/*--------------------------------*- C++ -*----------------------------------*\
  =========                 |
  \\      /  F ield         | OpenFOAM: The Open Source CFD Toolbox
   \\    /   O peration     | Website:  https://openfoam.org
    \\  /    A nd           | Version:  7
     \\/     M anipulation  |
\*---------------------------------------------------------------------------*/
FoamFile
{
    version     2.0;
    format      ascii;
    class       volScalarField;
    location    "60000";
    object      p;
}
// * * * * * * * * * * * * * * * * * * * * * * * * * * * * * * * * * * * * * //

dimensions      [0 2 -2 0 0 0 0];

internalField   nonuniform List<scalar> 
1745
(
-1.7627e-19
-1.7301e-19
-1.98455e-19
-2.06703e-19
-1.92925e-19
-2.26076e-19
-2.16129e-19
-2.29823e-19
-1.55262e-19
-1.6219e-19
-1.68075e-19
-1.64962e-19
-1.56979e-19
-1.82117e-19
-1.49006e-19
-1.73763e-19
-1.55221e-19
-1.56698e-19
-1.58111e-19
-1.79789e-19
-1.81416e-19
-1.73282e-19
-1.96138e-19
-1.91648e-19
-2.09016e-19
-2.29023e-19
-2.15763e-19
-2.2247e-19
-2.52473e-19
-1.57807e-19
-1.57439e-19
-1.60872e-19
-1.64972e-19
-1.59566e-19
-1.76174e-19
-1.52336e-19
-1.55012e-19
-1.55781e-19
-1.55341e-19
-1.67258e-19
-1.72016e-19
-1.76382e-19
-2.01502e-19
-2.01585e-19
-2.07693e-19
-2.11759e-19
-2.41151e-19
-2.34342e-19
-2.4541e-19
-2.61773e-19
-1.50701e-19
-1.63988e-19
-1.53289e-19
-1.78028e-19
-1.58701e-19
-1.45618e-19
-1.48925e-19
-1.3704e-19
-1.67193e-19
-1.62248e-19
-1.89707e-19
-1.76533e-19
-2.01367e-19
-1.76547e-19
-2.17024e-19
-2.23656e-19
-1.96094e-19
-2.1551e-19
-2.36246e-19
-2.19396e-19
-2.68213e-19
-1.51477e-19
-1.76261e-19
-1.38691e-19
-1.76875e-19
-1.68287e-19
-1.68469e-19
-1.4908e-19
-1.43484e-19
-1.6312e-19
-1.72731e-19
-1.75994e-19
-1.7212e-19
-1.92043e-19
-1.82543e-19
-2.05897e-19
-2.13178e-19
-2.15161e-19
-2.35516e-19
-2.35177e-19
-2.12847e-19
-2.55908e-19
-1.47854e-19
-1.581e-19
-1.5276e-19
-1.53028e-19
-1.6365e-19
-1.63153e-19
-1.24929e-19
-1.54557e-19
-1.7259e-19
-1.52087e-19
-1.74962e-19
-1.73657e-19
-1.89131e-19
-1.92179e-19
-2.20286e-19
-2.25934e-19
-2.18859e-19
-2.15574e-19
-2.17127e-19
-2.14634e-19
-2.65539e-19
-1.44327e-19
-1.52602e-19
-1.5561e-19
-1.38896e-19
-1.70398e-19
-1.65029e-19
-1.50224e-19
-1.67316e-19
-1.69373e-19
-1.34463e-19
-1.67705e-19
-1.71869e-19
-1.88593e-19
-2.0704e-19
-2.17696e-19
-2.19845e-19
-2.21644e-19
-2.2659e-19
-2.21657e-19
-2.37451e-19
-2.55024e-19
-1.39374e-19
-1.38492e-19
-1.41584e-19
-1.46124e-19
-1.73195e-19
-1.57916e-19
-1.59075e-19
-1.52936e-19
-1.72924e-19
-1.35907e-19
-1.45722e-19
-1.5763e-19
-1.87674e-19
-1.92627e-19
-2.06637e-19
-2.34198e-19
-2.23811e-19
-2.29101e-19
-2.42707e-19
-2.58661e-19
-2.49308e-19
-2.51191e-19
-1.14645e-19
-1.52172e-19
-1.36451e-19
-1.68016e-19
-1.73867e-19
-1.57673e-19
-1.68831e-19
-1.54486e-19
-1.65795e-19
-1.48958e-19
-1.72728e-19
-1.69969e-19
-2.00701e-19
-1.86993e-19
-2.13124e-19
-2.34881e-19
-2.23309e-19
-2.30395e-19
-2.62658e-19
-2.44111e-19
-2.51761e-19
-2.66154e-19
-1.2339e-19
-1.53798e-19
-1.52702e-19
-1.47649e-19
-1.58991e-19
-1.71875e-19
-1.45152e-19
-1.51844e-19
-1.81537e-19
-1.46085e-19
-1.65366e-19
-1.77002e-19
-1.92083e-19
-1.75586e-19
-1.91904e-19
-2.31214e-19
-2.19997e-19
-2.27871e-19
-2.51948e-19
-2.35466e-19
-2.53452e-19
-2.57829e-19
-2.43443e-19
-2.62276e-19
-2.67845e-19
-2.65554e-19
-2.88837e-19
-2.96642e-19
-2.77482e-19
-2.99391e-19
-1.39171e-19
-1.50728e-19
-1.60278e-19
-1.62658e-19
-1.35268e-19
-1.63647e-19
-1.53702e-19
-1.45758e-19
-1.78419e-19
-1.62896e-19
-1.7737e-19
-1.83386e-19
-1.97302e-19
-1.78119e-19
-1.95338e-19
-2.1661e-19
-2.14107e-19
-2.14056e-19
-2.47312e-19
-2.49597e-19
-2.56856e-19
-2.6124e-19
-2.54029e-19
-2.73744e-19
-2.75077e-19
-2.78036e-19
-2.82423e-19
-2.88804e-19
-2.78905e-19
-2.82542e-19
-1.42695e-19
-1.48387e-19
-1.59133e-19
-1.81291e-19
-1.40536e-19
-1.68256e-19
-1.70229e-19
-1.52752e-19
-1.55141e-19
-1.7496e-19
-1.81792e-19
-1.45046e-19
-1.80276e-19
-1.6712e-19
-1.8063e-19
-2.14327e-19
-2.34325e-19
-2.13827e-19
-2.55743e-19
-2.62673e-19
-2.60358e-19
-2.65915e-19
-2.43327e-19
-2.52251e-19
-2.47378e-19
-2.56023e-19
-2.92978e-19
-2.83144e-19
-2.78225e-19
-2.6947e-19
-1.53772e-19
-1.46041e-19
-1.5672e-19
-1.64641e-19
-1.5431e-19
-1.75899e-19
-1.54893e-19
-1.65756e-19
-1.64368e-19
-1.62685e-19
-1.91486e-19
-1.41684e-19
-1.94765e-19
-1.78697e-19
-1.80909e-19
-2.13782e-19
-2.24934e-19
-2.31594e-19
-2.7636e-19
-2.4256e-19
-2.6277e-19
-2.48477e-19
-2.54482e-19
-2.66217e-19
-2.60368e-19
-2.56608e-19
-2.83978e-19
-2.85327e-19
-2.7778e-19
-2.71259e-19
-1.59109e-19
-1.34484e-19
-1.54954e-19
-1.58322e-19
-1.39475e-19
-1.881e-19
-1.44938e-19
-1.54908e-19
-1.73604e-19
-1.47596e-19
-1.84854e-19
-1.43402e-19
-1.91867e-19
-1.79698e-19
-2.0236e-19
-2.23845e-19
-2.24562e-19
-2.44578e-19
-2.47569e-19
-2.49939e-19
-2.77012e-19
-2.53726e-19
-2.57012e-19
-2.8167e-19
-2.64575e-19
-2.77636e-19
-2.93338e-19
-2.72638e-19
-2.84872e-19
-2.47965e-19
-1.48201e-19
-1.343e-19
-1.54584e-19
-1.6992e-19
-1.41671e-19
-1.852e-19
-1.69416e-19
-1.51601e-19
-1.5554e-19
-1.58005e-19
-1.94126e-19
-1.75422e-19
-1.95408e-19
-1.77056e-19
-2.0742e-19
-2.1196e-19
-2.30139e-19
-2.35049e-19
-2.5134e-19
-2.46914e-19
-2.8019e-19
-2.56013e-19
-2.57292e-19
-2.69563e-19
-2.66085e-19
-2.89694e-19
-2.74401e-19
-2.80728e-19
-2.88568e-19
-2.62652e-19
-1.47903e-19
-1.46001e-19
-1.39778e-19
-1.69665e-19
-1.52595e-19
-1.80199e-19
-1.63034e-19
-1.54255e-19
-1.60893e-19
-1.64849e-19
-1.85316e-19
-1.72204e-19
-1.79609e-19
-1.69832e-19
-1.91768e-19
-1.99128e-19
-2.06099e-19
-2.24791e-19
-2.57054e-19
-2.55608e-19
-2.65796e-19
-2.63461e-19
-2.48739e-19
-2.66852e-19
-2.57777e-19
-2.82319e-19
-2.84172e-19
-2.88358e-19
-2.73299e-19
-2.86498e-19
-1.47354e-19
-1.43388e-19
-1.51505e-19
-1.65785e-19
-1.59264e-19
-1.93979e-19
-1.63588e-19
-1.48033e-19
-1.66287e-19
-1.62791e-19
-1.79738e-19
-1.74729e-19
-1.6582e-19
-1.74869e-19
-1.77891e-19
-2.09041e-19
-2.11476e-19
-2.36002e-19
-2.65626e-19
-2.55429e-19
-2.52935e-19
-2.71932e-19
-2.59517e-19
-2.66353e-19
-2.46713e-19
-2.70232e-19
-2.8669e-19
-2.96977e-19
-2.8492e-19
-2.83218e-19
-1.33662e-19
-1.39568e-19
-1.48429e-19
-1.63538e-19
-1.6947e-19
-1.84357e-19
-1.63115e-19
-1.39263e-19
-1.66151e-19
-1.52042e-19
-1.76089e-19
-1.63111e-19
-1.72549e-19
-1.6585e-19
-1.76512e-19
-2.21059e-19
-2.07639e-19
-2.39245e-19
-2.55644e-19
-2.61826e-19
-2.67284e-19
-2.61313e-19
-2.61333e-19
-2.6804e-19
-2.74911e-19
-2.7296e-19
-2.82671e-19
-2.86383e-19
-2.95626e-19
-3.00554e-19
-1.38052e-19
-1.55826e-19
-1.38397e-19
-1.61957e-19
-1.51693e-19
-1.70757e-19
-1.62768e-19
-1.33892e-19
-1.62125e-19
-1.59547e-19
-1.75428e-19
-1.57055e-19
-1.7333e-19
-1.62756e-19
-1.86539e-19
-2.09252e-19
-2.14412e-19
-2.43533e-19
-2.5375e-19
-2.68205e-19
-2.68032e-19
-2.57403e-19
-2.62717e-19
-2.69953e-19
-2.82323e-19
-2.67736e-19
-2.99478e-19
-2.88932e-19
-2.79776e-19
-3.00242e-19
-1.33008e-19
-1.54433e-19
-1.39217e-19
-1.627e-19
-1.5906e-19
-1.72545e-19
-1.70465e-19
-1.38099e-19
-1.73763e-19
-1.58824e-19
-1.77319e-19
-1.48711e-19
-1.6921e-19
-1.70824e-19
-1.89581e-19
-1.99076e-19
-2.19278e-19
-2.49024e-19
-2.51586e-19
-2.55192e-19
-2.62788e-19
-2.65943e-19
-2.63881e-19
-2.64721e-19
-2.64823e-19
-2.72887e-19
-2.85726e-19
-2.91056e-19
-2.81781e-19
-2.90549e-19
-1.13405e-19
-1.61198e-19
-1.43934e-19
-1.71437e-19
-1.65265e-19
-1.6881e-19
-1.79764e-19
-1.5085e-19
-1.62437e-19
-1.49375e-19
-1.75717e-19
-1.57034e-19
-1.66473e-19
-1.70924e-19
-1.8659e-19
-2.14825e-19
-2.16776e-19
-2.49599e-19
-2.49363e-19
-2.48851e-19
-2.64674e-19
-2.81107e-19
-2.6464e-19
-2.5956e-19
-2.60281e-19
-2.64639e-19
-2.66591e-19
-3.00841e-19
-2.94941e-19
-2.88584e-19
-1.26492e-19
-1.52887e-19
-1.45812e-19
-1.75772e-19
-1.5846e-19
-1.64805e-19
-1.59681e-19
-1.48213e-19
-1.53004e-19
-1.56742e-19
-1.70581e-19
-1.56986e-19
-1.64145e-19
-1.70319e-19
-1.82898e-19
-2.06222e-19
-2.06013e-19
-2.58627e-19
-2.47234e-19
-2.67144e-19
-2.66436e-19
-2.72529e-19
-2.64764e-19
-2.85652e-19
-2.68052e-19
-2.75329e-19
-2.77198e-19
-3.06598e-19
-2.89134e-19
-2.86844e-19
-1.48912e-19
-1.4686e-19
-1.51565e-19
-1.64628e-19
-1.62647e-19
-1.61616e-19
-1.64892e-19
-1.44661e-19
-1.62278e-19
-1.57162e-19
-1.73388e-19
-1.55728e-19
-1.61946e-19
-1.69364e-19
-1.78688e-19
-1.99268e-19
-2.11068e-19
-2.52557e-19
-2.37167e-19
-2.61469e-19
-2.73807e-19
-2.64919e-19
-2.5723e-19
-2.64516e-19
-2.68153e-19
-2.6791e-19
-2.79923e-19
-2.96543e-19
-2.88627e-19
-2.85624e-19
-1.48712e-19
-1.34996e-19
-1.56771e-19
-1.5458e-19
-1.66538e-19
-1.64228e-19
-1.6524e-19
-1.51061e-19
-1.66568e-19
-1.56452e-19
-1.7197e-19
-1.53211e-19
-1.59741e-19
-1.68336e-19
-1.73981e-19
-1.99042e-19
-2.14352e-19
-2.61826e-19
-2.4923e-19
-2.5661e-19
-2.64156e-19
-2.63413e-19
-2.66897e-19
-2.67772e-19
-2.50889e-19
-2.77777e-19
-2.76329e-19
-2.87906e-19
-2.82373e-19
-2.96225e-19
-1.38433e-19
-1.49633e-19
-1.57389e-19
-1.55571e-19
-1.48117e-19
-1.72326e-19
-1.60607e-19
-1.50004e-19
-1.6627e-19
-1.54472e-19
-1.7234e-19
-1.49479e-19
-1.51637e-19
-1.67485e-19
-1.85992e-19
-1.9934e-19
-2.10034e-19
-2.6226e-19
-2.59909e-19
-2.57645e-19
-2.55201e-19
-2.67577e-19
-2.64909e-19
-2.77389e-19
-2.3782e-19
-3.00279e-19
-2.7196e-19
-2.91441e-19
-2.6978e-19
-2.80561e-19
-1.28646e-19
-1.36767e-19
-1.36481e-19
-1.56746e-19
-1.50942e-19
-1.65061e-19
-1.72832e-19
-1.53365e-19
-1.67295e-19
-1.62421e-19
-1.80347e-19
-1.44667e-19
-1.54458e-19
-1.7222e-19
-1.80835e-19
-2.05466e-19
-2.0951e-19
-2.48271e-19
-2.53263e-19
-2.58671e-19
-2.68388e-19
-2.66673e-19
-2.67879e-19
-2.72375e-19
-2.5386e-19
-2.87479e-19
-2.71092e-19
-2.96718e-19
-2.83153e-19
-2.87548e-19
-1.29475e-19
-1.35115e-19
-1.47045e-19
-1.58943e-19
-1.47543e-19
-1.63608e-19
-1.74994e-19
-1.55233e-19
-1.63643e-19
-1.58145e-19
-1.68529e-19
-1.43441e-19
-1.56838e-19
-1.66183e-19
-1.75096e-19
-1.95754e-19
-2.07419e-19
-2.41725e-19
-2.46782e-19
-2.48516e-19
-2.76236e-19
-2.65611e-19
-2.65122e-19
-2.63181e-19
-2.72587e-19
-2.76911e-19
-2.57852e-19
-2.77077e-19
-2.79787e-19
-2.94835e-19
-1.27243e-19
-1.38368e-19
-1.36647e-19
-1.56753e-19
-1.58855e-19
-1.62416e-19
-1.73084e-19
-1.50627e-19
-1.55352e-19
-1.53314e-19
-1.69254e-19
-1.29864e-19
-1.53942e-19
-1.60334e-19
-1.744e-19
-1.92087e-19
-2.04424e-19
-2.41989e-19
-2.51355e-19
-2.58975e-19
-2.69435e-19
-2.64149e-19
-2.67796e-19
-2.69665e-19
-2.69913e-19
-2.67489e-19
-2.69502e-19
-2.84392e-19
-2.71003e-19
-2.90734e-19
-1.24678e-19
-1.34551e-19
-1.35844e-19
-1.40012e-19
-1.54495e-19
-1.61043e-19
-1.6736e-19
-1.55397e-19
-1.63069e-19
-1.63507e-19
-1.56543e-19
-1.29781e-19
-1.51826e-19
-1.59578e-19
-1.6834e-19
-1.88741e-19
-2.05743e-19
-2.43391e-19
-2.61125e-19
-2.79427e-19
-2.63374e-19
-2.62401e-19
-2.65348e-19
-2.76012e-19
-2.67335e-19
-2.68454e-19
-2.8043e-19
-2.823e-19
-2.66147e-19
-2.85589e-19
-1.14971e-19
-1.33475e-19
-1.34919e-19
-1.47922e-19
-1.55478e-19
-1.54741e-19
-1.72411e-19
-1.59308e-19
-1.65814e-19
-1.58584e-19
-1.44912e-19
-1.32935e-19
-1.45216e-19
-1.58806e-19
-1.62004e-19
-1.85618e-19
-2.01156e-19
-2.4552e-19
-2.60468e-19
-2.80324e-19
-2.72028e-19
-2.60549e-19
-2.67701e-19
-2.67911e-19
-2.74393e-19
-2.59111e-19
-2.66865e-19
-2.8095e-19
-2.77215e-19
-2.93236e-19
-1.2592e-19
-1.23552e-19
-1.33564e-19
-1.36653e-19
-1.56736e-19
-1.52862e-19
-1.58908e-19
-1.62427e-19
-1.64095e-19
-1.44196e-19
-1.38425e-19
-1.45015e-19
-1.58558e-19
-1.58433e-19
-1.65039e-19
-1.82869e-19
-2.05592e-19
-2.48637e-19
-2.54706e-19
-2.72339e-19
-2.75616e-19
-2.53181e-19
-2.6536e-19
-2.74394e-19
-2.67477e-19
-2.63656e-19
-2.72585e-19
-2.82692e-19
-2.75685e-19
-3.08428e-19
-1.11456e-19
-1.24911e-19
-1.46286e-19
-1.34539e-19
-1.44639e-19
-1.55427e-19
-1.60039e-19
-1.60758e-19
-1.6314e-19
-1.39289e-19
-1.46061e-19
-1.61345e-19
-1.62371e-19
-1.57853e-19
-1.6279e-19
-1.8003e-19
-1.99574e-19
-2.38434e-19
-2.43892e-19
-2.60255e-19
-2.70376e-19
-2.59191e-19
-2.63179e-19
-2.66997e-19
-2.55973e-19
-2.67774e-19
-2.73412e-19
-2.77947e-19
-2.73098e-19
-3.07126e-19
-1.09713e-19
-1.25912e-19
-1.37192e-19
-1.22823e-19
-1.55563e-19
-1.48957e-19
-1.61273e-19
-1.54461e-19
-1.62999e-19
-1.38206e-19
-1.43871e-19
-1.54267e-19
-1.61561e-19
-1.56997e-19
-1.55512e-19
-1.77194e-19
-1.93108e-19
-2.48331e-19
-2.5644e-19
-2.58013e-19
-2.56611e-19
-2.59975e-19
-2.70267e-19
-2.60229e-19
-2.64694e-19
-2.51508e-19
-2.71966e-19
-2.69115e-19
-2.76201e-19
-2.99106e-19
-1.07172e-19
-1.18419e-19
-1.24659e-19
-1.23211e-19
-1.58412e-19
-1.44419e-19
-1.56283e-19
-1.61356e-19
-1.72855e-19
-1.36277e-19
-1.32513e-19
-1.38342e-19
-1.51966e-19
-1.56072e-19
-1.56893e-19
-1.74602e-19
-1.90222e-19
-2.50237e-19
-2.59728e-19
-2.64996e-19
-2.65698e-19
-2.47009e-19
-2.68756e-19
-2.622e-19
-2.64734e-19
-2.5026e-19
-2.8001e-19
-2.7554e-19
-2.76523e-19
-2.79805e-19
-1.16947e-19
-1.1551e-19
-1.36023e-19
-1.14085e-19
-1.51669e-19
-1.39342e-19
-1.58121e-19
-1.61302e-19
-1.70557e-19
-1.46741e-19
-1.38914e-19
-1.4482e-19
-1.47321e-19
-1.55264e-19
-1.57766e-19
-1.76593e-19
-1.95077e-19
-2.49054e-19
-2.54173e-19
-2.67488e-19
-2.5295e-19
-2.48696e-19
-1.06276e-19
-1.16239e-19
-1.33613e-19
-1.22572e-19
-1.37939e-19
-1.31492e-19
-1.64538e-19
-1.56834e-19
-1.69152e-19
-1.47891e-19
-1.40476e-19
-1.46896e-19
-1.46975e-19
-1.54626e-19
-1.58184e-19
-1.69854e-19
-1.94524e-19
-2.36183e-19
-2.48554e-19
-2.64166e-19
-2.55286e-19
-2.50337e-19
-1.07188e-19
-1.08791e-19
-1.25835e-19
-1.18073e-19
-1.29146e-19
-1.37292e-19
-1.51099e-19
-1.66523e-19
-1.64433e-19
-1.46558e-19
-1.31149e-19
-1.51171e-19
-1.44327e-19
-1.52003e-19
-1.56269e-19
-1.11643e-19
-1.11006e-19
-1.18778e-19
-1.23104e-19
-1.28572e-19
-1.34854e-19
-1.44011e-19
-1.6623e-19
-1.56161e-19
-1.41098e-19
-1.33508e-19
-1.51851e-19
-1.07155e-19
-1.04596e-19
-1.19695e-19
-1.44491e-19
-1.51948e-19
-1.40412e-19
-1.60063e-19
-1.3109e-19
-9.38865e-20
-1.24284e-19
-1.2062e-19
-1.09312e-19
-1.32338e-19
-1.56024e-19
-1.38135e-19
-1.46703e-19
-1.49603e-19
-1.42288e-19
-1.15687e-19
-1.27084e-19
-1.24534e-19
-1.2854e-19
-1.31643e-19
-1.40216e-19
-1.18867e-19
-1.44145e-19
-1.49613e-19
-1.29212e-19
-1.17069e-19
-1.32276e-19
-1.16044e-19
-1.25132e-19
-1.29086e-19
-1.53093e-19
-1.22793e-19
-1.35717e-19
-1.5085e-19
-1.44404e-19
-1.23749e-19
-1.43063e-19
-1.02189e-19
-1.23321e-19
-1.2335e-19
-1.57107e-19
-1.58861e-19
-1.24894e-19
-1.45236e-19
-1.36004e-19
-1.22659e-19
-1.44061e-19
-1.18286e-19
-1.25259e-19
-1.21362e-19
-1.37713e-19
-1.59784e-19
-1.33602e-19
-1.52921e-19
-1.32985e-19
-1.25349e-19
-1.2353e-19
-1.18551e-19
-1.18258e-19
-1.05406e-19
-1.27809e-19
-1.40527e-19
-1.35432e-19
-1.54351e-19
-1.32787e-19
-1.36206e-19
-1.13584e-19
-1.186e-19
-1.22876e-19
-1.12933e-19
-1.28918e-19
-1.43809e-19
-1.34612e-19
-1.69313e-19
-1.24897e-19
-1.22357e-19
-9.99255e-20
-1.19199e-19
-1.20436e-19
-1.16685e-19
-1.39392e-19
-1.59134e-19
-1.36666e-19
-1.68384e-19
-1.19618e-19
-1.20705e-19
-1.08197e-19
-1.22351e-19
-1.27891e-19
-1.25618e-19
-1.3197e-19
-1.52969e-19
-1.39698e-19
-1.51591e-19
-1.15494e-19
-1.20815e-19
-9.52632e-20
-1.00306e-19
-1.01586e-19
-9.91914e-20
-1.40046e-19
-1.42597e-19
-1.39294e-19
-1.38927e-19
-1.11191e-19
-9.93242e-20
-1.04412e-19
-1.12549e-19
-1.0933e-19
-9.37724e-20
-1.27762e-19
-1.41435e-19
-1.38468e-19
-1.34919e-19
-1.17529e-19
-1.01047e-19
-1.05296e-19
-1.25569e-19
-1.09879e-19
-1.15104e-19
-1.33339e-19
-1.2632e-19
-1.45444e-19
-1.13578e-19
-1.18279e-19
-1.00493e-19
-9.66752e-20
-1.1053e-19
-1.08735e-19
-1.26432e-19
-1.09574e-19
-1.32718e-19
-1.49465e-19
-1.31313e-19
-9.90146e-20
-1.06263e-19
-8.64464e-20
-1.0499e-19
-9.85129e-20
-1.17916e-19
-1.20442e-19
-1.39415e-19
-1.34779e-19
-1.52701e-19
-8.00883e-20
-1.07032e-19
-8.78067e-20
-1.01588e-19
-8.61915e-20
-1.04177e-19
-1.22811e-19
-1.47482e-19
-1.40336e-19
-1.4681e-19
-8.79695e-20
-9.01493e-20
-8.65713e-20
-1.0072e-19
-1.13866e-19
-1.04635e-19
-1.17679e-19
-1.37054e-19
-1.45014e-19
-1.618e-19
-8.12853e-20
-8.11037e-20
-8.42265e-20
-1.00242e-19
-1.21728e-19
-1.03185e-19
-1.32432e-19
-1.34266e-19
-1.29227e-19
-1.59334e-19
-7.45661e-20
-8.55663e-20
-8.10539e-20
-9.26878e-20
-1.05558e-19
-1.11816e-19
-1.15617e-19
-1.31808e-19
-1.24468e-19
-1.47651e-19
-7.40841e-20
-9.74428e-20
-7.67901e-20
-8.51741e-20
-1.03212e-19
-1.07361e-19
-9.86374e-20
-1.37672e-19
-1.36622e-19
-1.44645e-19
-7.24772e-20
-8.63508e-20
-7.09782e-20
-1.08748e-19
-1.07909e-19
-1.16175e-19
-1.10478e-19
-1.45761e-19
-1.29214e-19
-1.37764e-19
-8.27324e-20
-7.71582e-20
-5.62802e-20
-8.51428e-20
-1.05915e-19
-1.07476e-19
-1.13701e-19
-1.32245e-19
-1.26522e-19
-1.32498e-19
-6.94757e-20
-7.49955e-20
-6.3058e-20
-8.62422e-20
-8.74454e-20
-1.1651e-19
-1.10177e-19
-1.20223e-19
-1.17782e-19
-1.38568e-19
-5.65444e-20
-7.96393e-20
-6.21384e-20
-9.4005e-20
-7.40186e-20
-1.38519e-19
-1.0573e-19
-1.25881e-19
-1.02561e-19
-1.22932e-19
-7.12862e-20
-8.04142e-20
-7.01613e-20
-8.71925e-20
-8.4976e-20
-1.25538e-19
-1.04605e-19
-1.33323e-19
-1.18297e-19
-1.29491e-19
-8.00928e-20
-8.19621e-20
-7.12661e-20
-7.60738e-20
-9.91722e-20
-1.15328e-19
-9.61544e-20
-1.10623e-19
-1.16895e-19
-1.36125e-19
-7.30749e-20
-8.39759e-20
-7.69816e-20
-8.03942e-20
-9.21899e-20
-1.06767e-19
-1.07453e-19
-1.19778e-19
-1.0996e-19
-1.25786e-19
-7.14168e-20
-8.6642e-20
-7.69901e-20
-8.93755e-20
-9.03552e-20
-1.09261e-19
-1.18116e-19
-1.19255e-19
-1.07081e-19
-1.1638e-19
-8.46877e-20
-8.50783e-20
-8.11959e-20
-8.35412e-20
-9.7871e-20
-1.02137e-19
-1.04242e-19
-1.1927e-19
-1.20491e-19
-1.21624e-19
-8.80875e-20
-7.87643e-20
-8.01992e-20
-9.20092e-20
-8.61918e-20
-1.04896e-19
-1.14254e-19
-1.2219e-19
-1.21828e-19
-1.33853e-19
-8.73914e-20
-8.65528e-20
-7.88841e-20
-8.65709e-20
-7.40972e-20
-1.07992e-19
-1.17046e-19
-1.18294e-19
-1.18227e-19
-1.3266e-19
-7.7901e-20
-8.50697e-20
-8.63428e-20
-8.18481e-20
-8.15591e-20
-9.12739e-20
-1.15477e-19
-1.12291e-19
-1.21015e-19
-1.25811e-19
-8.69752e-20
-7.02361e-20
-8.47827e-20
-8.60758e-20
-7.96176e-20
-9.00968e-20
-1.23535e-19
-1.17037e-19
-1.21582e-19
-1.08954e-19
-7.89359e-20
-7.47129e-20
-7.70606e-20
-8.60482e-20
-8.37923e-20
-9.05026e-20
-1.17403e-19
-1.06485e-19
-1.20446e-19
-1.13271e-19
-8.64081e-20
-8.31868e-20
-9.49251e-20
-8.41609e-20
-8.34399e-20
-9.0353e-20
-1.12347e-19
-1.16317e-19
-1.19937e-19
-1.27369e-19
-9.192e-20
-9.52399e-20
-8.79289e-20
-9.2372e-20
-8.08653e-20
-8.57397e-20
-1.05857e-19
-1.13825e-19
-1.19382e-19
-1.19876e-19
-9.75491e-20
-9.9073e-20
-8.08392e-20
-9.8709e-20
-8.80008e-20
-9.27858e-20
-1.03732e-19
-1.05558e-19
-1.18973e-19
-1.20595e-19
-2.90431e-19
-2.90724e-19
-2.91025e-19
-2.91329e-19
-2.92643e-19
-2.94202e-19
-3.09753e-19
-3.13884e-19
-3.01008e-19
-3.01513e-19
-3.0905e-19
-3.00223e-19
-2.98143e-19
-2.96804e-19
-2.95643e-19
-2.84027e-19
-2.82593e-19
-2.91019e-19
-2.84938e-19
-2.88416e-19
-3.05944e-19
-3.02641e-19
-3.00696e-19
-2.99604e-19
-2.89683e-19
-2.99135e-19
-2.99869e-19
-3.00094e-19
-3.05655e-19
-3.16476e-19
-3.08808e-19
-3.07195e-19
-3.04746e-19
-3.02053e-19
-3.04749e-19
-3.02216e-19
-2.94918e-19
-2.88411e-19
-2.92098e-19
-2.95853e-19
-2.90639e-19
-2.8103e-19
-3.04094e-19
-3.02394e-19
-3.24127e-19
-3.18596e-19
-3.24001e-19
-3.11822e-19
-3.0846e-19
-3.12634e-19
-3.24204e-19
-3.19183e-19
-3.2202e-19
-3.15354e-19
-3.10613e-19
-3.06949e-19
-2.98345e-19
-2.89824e-19
-2.9131e-19
-2.87975e-19
-2.89586e-19
-2.90913e-19
-2.87976e-19
-2.8755e-19
-3.00743e-19
-3.13522e-19
-3.0416e-19
-3.0266e-19
-3.00295e-19
-3.03832e-19
-3.01144e-19
-2.91751e-19
-2.98865e-19
-2.92276e-19
-2.90091e-19
-2.98464e-19
-3.00965e-19
-2.98038e-19
-2.95527e-19
-2.88839e-19
-2.82609e-19
-2.9046e-19
-2.78874e-19
-2.8059e-19
-3.00785e-19
-2.98501e-19
-2.95936e-19
-2.84882e-19
-2.93667e-19
-3.02264e-19
-2.9242e-19
-2.95804e-19
-2.99384e-19
-3.04816e-19
-2.9353e-19
-2.82915e-19
-2.89132e-19
-2.94757e-19
-2.89329e-19
-2.78853e-19
-2.79054e-19
-2.94565e-19
-3.06392e-19
-2.91349e-19
-2.86656e-19
-2.94377e-19
-2.84155e-19
-3.0011e-19
-2.94496e-19
-2.9884e-19
-2.9088e-19
-2.90726e-19
-2.83237e-19
-2.74893e-19
-2.84202e-19
-2.85724e-19
-2.73688e-19
-2.8437e-19
-2.88128e-19
-2.85757e-19
-2.88811e-19
-2.91838e-19
-2.78915e-19
-2.55409e-19
-2.56074e-19
-2.60499e-19
-2.73279e-19
-2.75655e-19
-2.68396e-19
-2.79901e-19
-2.80761e-19
-2.80036e-19
-2.79612e-19
-2.67693e-19
-2.6759e-19
-2.86402e-19
-2.98657e-19
-2.85505e-19
-2.87505e-19
-2.90481e-19
-2.87894e-19
-2.86911e-19
-2.75456e-19
-2.87963e-19
-2.9504e-19
-2.86399e-19
-2.83941e-19
-2.81728e-19
-2.80207e-19
-2.65007e-19
-2.60077e-19
-2.64167e-19
-2.76909e-19
-2.66774e-19
-2.85175e-19
-2.79929e-19
-2.73911e-19
-2.89912e-19
-2.82722e-19
-2.77668e-19
-2.6548e-19
-2.63617e-19
-2.78594e-19
-2.85448e-19
-2.78858e-19
-2.65235e-19
-2.68976e-19
-2.71423e-19
-2.73249e-19
-2.74023e-19
-2.73348e-19
-2.71895e-19
-2.69653e-19
-2.66749e-19
-2.73117e-19
-2.79542e-19
-2.72172e-19
-2.74238e-19
-2.89732e-19
-2.97575e-19
-2.86401e-19
-2.96429e-19
-2.84224e-19
-2.79707e-19
-2.84437e-19
-2.97521e-19
-2.85038e-19
-2.82312e-19
-2.80177e-19
-2.77863e-19
-2.75467e-19
-2.73127e-19
-2.78009e-19
-2.77125e-19
-2.82509e-19
-2.77698e-19
-2.79036e-19
-2.75314e-19
-2.77115e-19
-2.74566e-19
-2.76947e-19
-2.79248e-19
-2.72522e-19
-2.74553e-19
-2.76948e-19
-2.6732e-19
-2.91564e-19
-2.81983e-19
-2.64822e-19
-2.84515e-19
-2.81487e-19
-2.77025e-19
-2.77702e-19
-2.78829e-19
-2.81421e-19
-2.84776e-19
-2.57674e-19
-2.78432e-19
-2.69433e-19
-2.65216e-19
-2.70097e-19
-2.79311e-19
-2.72936e-19
-2.6675e-19
-2.75048e-19
-2.73436e-19
-2.76334e-19
-2.83196e-19
-2.81136e-19
-2.65027e-19
-2.58972e-19
-2.86195e-19
-2.78559e-19
-2.77261e-19
-2.77137e-19
-2.8494e-19
-2.94166e-19
-2.62817e-19
-2.56929e-19
-2.73888e-19
-2.76182e-19
-2.70604e-19
-2.71372e-19
-2.88565e-19
-2.95271e-19
-2.82717e-19
-2.66478e-19
-2.71057e-19
-2.75249e-19
-2.74724e-19
-2.78873e-19
-2.92552e-19
-2.8636e-19
-2.89269e-19
-2.70519e-19
-2.62417e-19
-2.89648e-19
-2.94957e-19
-2.73751e-19
-2.62725e-19
-2.71624e-19
-2.85881e-19
-2.86887e-19
-2.90858e-19
-2.8568e-19
-2.95081e-19
-2.81113e-19
-2.868e-19
-2.76355e-19
-2.54275e-19
-2.6314e-19
-2.70492e-19
-2.77078e-19
-2.73182e-19
-2.79214e-19
-2.75554e-19
-2.71955e-19
-2.88436e-19
-2.89585e-19
-2.49127e-19
-2.5749e-19
-2.56262e-19
-2.57834e-19
-2.55839e-19
-2.8213e-19
-2.72599e-19
-2.63526e-19
-2.73282e-19
-2.6102e-19
-2.72639e-19
-2.83351e-19
-2.69619e-19
-2.68865e-19
-2.73629e-19
-2.78413e-19
-2.79178e-19
-2.91925e-19
-2.84768e-19
-2.73453e-19
-2.82141e-19
-2.71897e-19
-2.68923e-19
-2.70375e-19
-2.62188e-19
-2.49087e-19
-2.58408e-19
-2.66215e-19
-2.58138e-19
-2.73063e-19
-2.73641e-19
-2.66771e-19
-2.72732e-19
-2.7861e-19
-2.72095e-19
-2.66465e-19
-2.59131e-19
-2.49812e-19
-2.62309e-19
-2.73299e-19
-2.66852e-19
-2.6405e-19
-2.81386e-19
-2.72214e-19
-2.72537e-19
-2.72213e-19
-2.69036e-19
-2.72773e-19
-2.80958e-19
-2.76358e-19
-2.66947e-19
-2.66891e-19
-2.68224e-19
-2.68581e-19
-2.6879e-19
-2.65318e-19
-2.88113e-19
-2.77344e-19
-2.66954e-19
-2.76403e-19
-2.86458e-19
-2.72808e-19
-2.78499e-19
-2.79538e-19
-2.81252e-19
-3.00302e-19
-2.72343e-19
-2.7693e-19
-2.86569e-19
-2.89429e-19
-2.75968e-19
-2.72233e-19
-2.75678e-19
-2.72682e-19
-2.71852e-19
-2.47731e-19
-2.6639e-19
-2.81851e-19
-2.83157e-19
-3.02445e-19
-2.91228e-19
-2.70754e-19
-2.76963e-19
-2.62412e-19
-2.72321e-19
-2.79423e-19
-2.78898e-19
-2.78278e-19
-2.77139e-19
-2.7554e-19
-2.78113e-19
-2.74207e-19
-2.70288e-19
-2.78009e-19
-2.8465e-19
-2.79019e-19
-2.66479e-19
-2.66701e-19
-2.72236e-19
-2.8764e-19
)
;

boundaryField
{
    inlet
    {
        type            cyclic;
    }
    outlet
    {
        type            cyclic;
    }
    wall
    {
        type            zeroGradient;
    }
    procBoundary5to1
    {
        type            processor;
        value           nonuniform List<scalar> 10(-3.11992e-19 -2.78602e-19 -2.8695e-19 -2.76683e-19 -2.92812e-19 -2.61559e-19 -2.78577e-19 -2.84059e-19 -2.78281e-19 -2.78933e-19);
    }
    procBoundary5to2
    {
        type            processor;
        value           nonuniform List<scalar> 
28
(
-2.64064e-19
-2.59659e-19
-2.68014e-19
-2.54614e-19
-2.73214e-19
-2.7098e-19
-2.75269e-19
-2.84216e-19
-2.64064e-19
-1.67861e-19
-1.95074e-19
-2.32453e-19
-2.52646e-19
-2.54094e-19
-2.56325e-19
-2.74506e-19
-2.52278e-19
-1.46027e-19
-1.48919e-19
-1.67861e-19
-1.49147e-19
-1.46027e-19
-2.84106e-19
-2.94665e-19
-2.65991e-19
-2.80149e-19
-2.7184e-19
-2.84646e-19
)
;
    }
    procBoundary5to3
    {
        type            processor;
        value           nonuniform List<scalar> 
22
(
-1.11048e-19
-1.16993e-19
-1.10969e-19
-1.14134e-19
-1.28017e-19
-1.42746e-19
-1.4646e-19
-1.58068e-19
-1.57696e-19
-1.51639e-19
-1.42036e-19
-1.52976e-19
-8.26643e-20
-1.00302e-19
-8.2138e-20
-9.72203e-20
-9.10116e-20
-8.99296e-20
-1.06272e-19
-1.01341e-19
-1.17288e-19
-1.27334e-19
)
;
    }
    procBoundary5to4
    {
        type            processor;
        value           nonuniform List<scalar> 
55
(
-1.4334e-19
-1.20578e-19
-1.12103e-19
-1.15241e-19
-1.33159e-19
-1.49281e-19
-1.25917e-19
-1.06936e-19
-1.18474e-19
-1.27219e-19
-1.0102e-19
-1.02664e-19
-9.4928e-20
-1.00374e-19
-9.71459e-20
-1.00008e-19
-1.03051e-19
-8.67953e-20
-7.79146e-20
-8.79122e-20
-8.5627e-20
-8.38457e-20
-8.78762e-20
-8.62141e-20
-7.36127e-20
-8.21412e-20
-1.00521e-19
-1.03427e-19
-9.67188e-20
-8.58798e-20
-8.04639e-20
-9.33385e-20
-1.01711e-19
-1.0191e-19
-9.64593e-20
-9.74638e-20
-3.14124e-19
-3.06746e-19
-3.13325e-19
-3.13657e-19
-3.01762e-19
-2.96176e-19
-2.95734e-19
-2.94068e-19
-2.97206e-19
-2.93119e-19
-2.87486e-19
-2.97168e-19
-3.00835e-19
-2.99214e-19
-2.97647e-19
-2.95962e-19
-2.9457e-19
-2.93456e-19
-2.92392e-19
)
;
    }
    procBoundary5to6
    {
        type            processor;
        value           nonuniform List<scalar> 
31
(
-2.06982e-19
-2.02622e-19
-2.06103e-19
-2.26174e-19
-1.9665e-19
-2.43996e-19
-2.4126e-19
-1.42324e-19
-1.57773e-19
-1.65817e-19
-1.57652e-19
-1.59484e-19
-1.59085e-19
-1.50234e-19
-1.62105e-19
-1.55655e-19
-1.76813e-19
-2.02772e-19
-1.9892e-19
-1.9892e-19
-1.03145e-19
-1.29945e-19
-1.15603e-19
-1.38709e-19
-1.43587e-19
-1.24188e-19
-1.69651e-19
-1.21568e-19
-9.05453e-20
-1.20445e-19
-1.20445e-19
)
;
    }
    procBoundary5to7
    {
        type            processor;
        value           nonuniform List<scalar> 
42
(
-2.28142e-19
-2.44657e-19
-2.44657e-19
-2.27343e-19
-2.32231e-19
-2.4821e-19
-2.47066e-19
-2.51411e-19
-2.49676e-19
-2.49676e-19
-2.62872e-19
-2.54422e-19
-2.54422e-19
-2.57065e-19
-2.62499e-19
-2.61493e-19
-2.72095e-19
-2.80986e-19
-2.73445e-19
-2.99037e-19
-3.03089e-19
-3.08319e-19
-2.89631e-19
-3.02404e-19
-2.99443e-19
-2.95381e-19
-2.97296e-19
-2.90199e-19
-2.72252e-19
-2.72252e-19
-3.04814e-19
-3.04814e-19
-2.82989e-19
-2.74745e-19
-2.87226e-19
-2.84552e-19
-2.70861e-19
-2.74086e-19
-2.62973e-19
-2.62817e-19
-2.66777e-19
-2.44675e-19
)
;
    }
}


// ************************************************************************* //
