/*--------------------------------*- C++ -*----------------------------------*\
  =========                 |
  \\      /  F ield         | OpenFOAM: The Open Source CFD Toolbox
   \\    /   O peration     | Website:  https://openfoam.org
    \\  /    A nd           | Version:  7
     \\/     M anipulation  |
\*---------------------------------------------------------------------------*/
FoamFile
{
    version     2.0;
    format      ascii;
    class       volVectorField;
    location    "84000";
    object      U;
}
// * * * * * * * * * * * * * * * * * * * * * * * * * * * * * * * * * * * * * //

dimensions      [0 1 -1 0 0 0 0];

internalField   nonuniform List<vector> 
4838
(
(2.56297e-20 -2.36844e-19 -0.0153735)
(1.81255e-19 -2.19457e-19 -0.0153794)
(2.32715e-19 -1.10861e-20 -0.0153847)
(2.38499e-19 1.54455e-20 -0.0153893)
(1.80341e-19 -1.91789e-19 -0.0153934)
(-2.13236e-20 -4.44661e-19 -0.0153968)
(-2.60144e-19 -3.35198e-19 -0.0153997)
(-3.86691e-19 -2.02257e-19 -0.015402)
(-5.09076e-19 -1.18832e-19 -0.0154039)
(-6.67576e-19 3.34146e-20 -0.0154053)
(-6.0073e-19 2.42302e-19 -0.0154063)
(-5.07359e-19 1.87117e-19 -0.0154071)
(-6.31411e-19 2.01792e-19 -0.0154076)
(-5.13598e-19 4.76374e-19 -0.015408)
(7.39256e-20 3.70863e-19 -0.0154082)
(2.25919e-19 9.28004e-20 -0.0154084)
(2.52956e-20 -1.95941e-19 -0.0154085)
(-5.12688e-20 -3.33617e-19 -0.0154086)
(-1.19938e-19 -4.12191e-19 -0.0154087)
(-2.07476e-19 -4.51297e-19 -0.0154088)
(-3.21911e-19 -4.6223e-19 -0.0154088)
(-3.95389e-19 -4.38977e-19 -0.0154089)
(-3.70537e-19 -4.31999e-19 -0.0154089)
(-3.62654e-19 -4.57863e-19 -0.0154089)
(-4.48877e-19 -4.42878e-19 -0.015409)
(-5.83863e-19 -4.20963e-19 -0.015409)
(-6.76874e-19 -3.35056e-19 -0.0154089)
(-7.05883e-19 -2.38321e-19 -0.0154089)
(-6.81054e-19 -1.40388e-19 -0.0154089)
(-6.27377e-19 -7.55087e-20 -0.0154088)
(-6.06491e-19 -1.74307e-20 -0.0154088)
(-5.99283e-19 8.54876e-20 -0.0154087)
(-4.76951e-19 1.9361e-19 -0.0154086)
(-5.5844e-19 1.82825e-19 -0.0154085)
(-8.02012e-19 6.03663e-19 -0.0154084)
(-7.90101e-19 9.73818e-19 -0.0154082)
(-5.63371e-19 9.80085e-19 -0.015408)
(-1.55541e-19 1.02697e-18 -0.0154076)
(-1.8331e-20 7.11836e-19 -0.0154071)
(-5.97568e-20 4.70866e-19 -0.0154063)
(-2.28034e-19 3.98086e-19 -0.0154053)
(-4.65617e-19 5.4652e-19 -0.0154039)
(-4.41772e-19 7.30474e-19 -0.015402)
(-3.48612e-19 6.14842e-19 -0.0153997)
(-5.21151e-19 5.62947e-19 -0.0153968)
(-7.35789e-19 7.21611e-19 -0.0153934)
(-6.74513e-19 8.82458e-19 -0.0153893)
(-5.47094e-19 8.18347e-19 -0.0153847)
(-4.98689e-19 7.29416e-19 -0.0153794)
(-3.98374e-19 7.46183e-19 -0.0153735)
(-1.18317e-19 -1.73936e-19 -0.0153629)
(1.58595e-19 -7.77938e-20 -0.0153692)
(2.65991e-19 -1.2026e-19 -0.0153751)
(2.16454e-19 -1.77492e-19 -0.0153804)
(1.51678e-19 -3.38575e-19 -0.0153853)
(2.53502e-19 -2.62129e-19 -0.0153895)
(2.0221e-19 -1.30112e-19 -0.0153933)
(-1.87768e-19 -9.96805e-20 -0.0153965)
(-4.22887e-19 -1.50466e-19 -0.0153992)
(-4.97886e-19 -5.12365e-20 -0.0154014)
(-5.1143e-19 1.41003e-19 -0.0154032)
(-3.97234e-19 2.80765e-19 -0.0154046)
(-4.86818e-19 3.35257e-19 -0.0154057)
(-5.83461e-19 5.34402e-19 -0.0154065)
(-2.43253e-19 5.22227e-19 -0.0154071)
(7.52582e-20 -5.60545e-20 -0.0154075)
(-1.6737e-20 -3.04651e-19 -0.0154078)
(-1.96529e-19 -4.60588e-19 -0.015408)
(-1.23876e-19 -4.91424e-19 -0.0154082)
(-4.78257e-20 -4.88546e-19 -0.0154083)
(-1.5393e-19 -4.73159e-19 -0.0154084)
(-2.64178e-19 -4.21201e-19 -0.0154085)
(-4.14031e-19 -3.87013e-19 -0.0154085)
(-5.12757e-19 -4.39722e-19 -0.0154086)
(-5.65158e-19 -4.99342e-19 -0.0154086)
(-5.9079e-19 -3.99516e-19 -0.0154086)
(-5.47876e-19 -2.55011e-19 -0.0154086)
(-5.62696e-19 -1.25658e-19 -0.0154085)
(-6.57926e-19 -5.5143e-21 -0.0154085)
(-6.73342e-19 6.6261e-20 -0.0154084)
(-6.47131e-19 6.92916e-20 -0.0154083)
(-7.63528e-19 9.23158e-20 -0.0154082)
(-7.9439e-19 1.37192e-19 -0.015408)
(-7.53547e-19 -5.70688e-20 -0.0154078)
(-6.29246e-19 9.81942e-20 -0.0154075)
(-4.57116e-19 2.9696e-19 -0.0154071)
(-2.51191e-19 5.33564e-19 -0.0154065)
(-1.65883e-19 4.82973e-19 -0.0154057)
(-1.97777e-19 3.13302e-19 -0.0154046)
(-9.98173e-20 1.39905e-19 -0.0154032)
(-2.79963e-19 1.01529e-19 -0.0154014)
(-5.30708e-19 3.01048e-19 -0.0153992)
(-5.97153e-19 5.55401e-19 -0.0153965)
(-6.11689e-19 5.81073e-19 -0.0153933)
(-7.41526e-19 6.77317e-19 -0.0153895)
(-7.64153e-19 8.05258e-19 -0.0153853)
(-6.29229e-19 8.968e-19 -0.0153804)
(-5.36083e-19 8.65784e-19 -0.0153751)
(-3.74088e-19 8.08689e-19 -0.0153692)
(-2.26501e-19 7.22193e-19 -0.0153629)
(-3.11834e-19 -9.0663e-21 -0.0153503)
(-5.53676e-20 1.13883e-19 -0.0153574)
(1.67597e-19 1.40081e-19 -0.0153639)
(2.15228e-19 2.20065e-19 -0.0153699)
(2.4431e-19 8.32663e-20 -0.0153755)
(3.042e-19 7.03529e-20 -0.0153805)
(3.04432e-19 -1.04099e-19 -0.015385)
(5.58071e-20 -2.264e-19 -0.015389)
(-2.75406e-19 -3.06796e-19 -0.0153925)
(-3.9998e-19 -2.18629e-19 -0.0153955)
(-3.27418e-19 2.14012e-20 -0.0153981)
(-2.97266e-19 2.57828e-19 -0.0154003)
(-4.46916e-19 1.82224e-19 -0.015402)
(-5.8036e-19 3.62557e-19 -0.0154035)
(-4.30141e-19 4.45536e-19 -0.0154046)
(-1.26688e-19 2.26078e-19 -0.0154055)
(-1.38122e-19 -4.4856e-20 -0.0154062)
(-2.64874e-19 -9.06752e-20 -0.0154067)
(-1.1202e-19 -2.10409e-20 -0.0154071)
(5.24374e-20 -1.61742e-19 -0.0154073)
(-1.9898e-20 -2.76825e-19 -0.0154075)
(-2.09176e-19 -3.47462e-19 -0.0154077)
(-4.3583e-19 -3.85422e-19 -0.0154078)
(-6.90762e-19 -2.89219e-19 -0.0154079)
(-5.72675e-19 -2.45455e-19 -0.0154079)
(-3.56836e-19 -1.26536e-19 -0.0154079)
(-3.78122e-19 -6.03446e-20 -0.0154079)
(-5.11624e-19 -1.23007e-19 -0.0154078)
(-6.72686e-19 -1.34938e-19 -0.0154077)
(-7.54715e-19 -9.33797e-21 -0.0154075)
(-8.42611e-19 -4.22013e-20 -0.0154073)
(-8.68115e-19 2.97947e-21 -0.0154071)
(-8.69169e-19 2.47568e-19 -0.0154067)
(-7.6479e-19 3.0856e-19 -0.0154062)
(-5.11898e-19 4.63716e-19 -0.0154055)
(-3.74635e-19 5.08354e-19 -0.0154046)
(-3.24679e-19 5.14147e-19 -0.0154035)
(-1.96117e-19 2.87894e-19 -0.015402)
(-1.47525e-19 1.81757e-19 -0.0154003)
(-2.15502e-19 6.46207e-20 -0.0153981)
(-3.57834e-19 9.6659e-21 -0.0153955)
(-3.90398e-19 1.54169e-19 -0.0153925)
(-4.41328e-19 4.0662e-19 -0.015389)
(-5.51009e-19 5.63127e-19 -0.015385)
(-6.32309e-19 7.17714e-19 -0.0153805)
(-6.4774e-19 9.37034e-19 -0.0153755)
(-5.50913e-19 8.98461e-19 -0.0153699)
(-4.26985e-19 7.9603e-19 -0.0153639)
(-3.1307e-19 8.32816e-19 -0.0153574)
(-2.93612e-19 7.97134e-19 -0.0153503)
(-2.43488e-19 3.02218e-19 -0.0153361)
(-1.14743e-19 4.84434e-19 -0.0153439)
(1.4737e-19 6.72552e-19 -0.0153512)
(1.45946e-19 5.37166e-19 -0.0153579)
(3.71194e-20 3.53566e-19 -0.0153641)
(1.08343e-19 2.63987e-19 -0.0153698)
(9.69939e-20 3.28164e-20 -0.015375)
(-4.27117e-20 -3.23021e-19 -0.0153797)
(-2.19685e-19 -4.80802e-19 -0.015384)
(-2.01963e-19 -3.30486e-19 -0.0153877)
(-8.5261e-20 -1.31526e-20 -0.015391)
(-1.69273e-19 -2.05833e-20 -0.0153939)
(-3.28495e-19 -1.11658e-19 -0.0153964)
(-4.82619e-19 -5.49425e-20 -0.0153985)
(-5.20446e-19 2.11835e-19 -0.0154002)
(-2.3082e-19 3.23444e-19 -0.0154017)
(-1.3525e-19 2.30939e-19 -0.0154028)
(-2.45646e-19 2.76423e-19 -0.0154038)
(-1.18387e-19 3.21154e-19 -0.0154045)
(1.89995e-19 1.56541e-19 -0.0154051)
(1.47639e-19 -1.45604e-19 -0.0154055)
(-1.12814e-19 -3.03258e-19 -0.0154059)
(-2.91781e-19 -3.40654e-19 -0.0154061)
(-4.99243e-19 -1.92995e-19 -0.0154062)
(-6.48121e-19 1.27308e-19 -0.0154063)
(-5.31391e-19 -6.36756e-20 -0.0154063)
(-5.40723e-19 -2.68471e-19 -0.0154062)
(-6.85566e-19 -4.4194e-19 -0.0154061)
(-6.45451e-19 -4.0542e-19 -0.0154059)
(-6.91963e-19 -3.77586e-19 -0.0154055)
(-7.08072e-19 -2.74622e-19 -0.0154051)
(-5.80322e-19 -1.21512e-19 -0.0154045)
(-7.44618e-19 2.16827e-19 -0.0154038)
(-8.68963e-19 4.68838e-19 -0.0154028)
(-5.56871e-19 5.5e-19 -0.0154017)
(-4.1271e-19 5.49011e-19 -0.0154002)
(-3.02082e-19 5.69442e-19 -0.0153985)
(-2.75803e-19 5.66915e-19 -0.0153964)
(-2.65048e-19 5.73215e-19 -0.0153939)
(-2.13075e-19 5.50532e-19 -0.015391)
(-2.41717e-19 6.16082e-19 -0.0153877)
(-2.55731e-19 7.42878e-19 -0.015384)
(-4.13912e-19 7.33794e-19 -0.0153797)
(-5.47039e-19 7.51366e-19 -0.015375)
(-5.42858e-19 7.61187e-19 -0.0153698)
(-5.97886e-19 8.2294e-19 -0.0153641)
(-6.14571e-19 7.47335e-19 -0.0153579)
(-3.78036e-19 5.3803e-19 -0.0153512)
(-1.77883e-19 5.28097e-19 -0.0153439)
(-9.03165e-20 5.95999e-19 -0.0153361)
(-1.42622e-19 4.13012e-19 -0.0153205)
(-3.19429e-20 5.56451e-19 -0.0153291)
(4.43344e-20 6.32387e-19 -0.015337)
(8.16698e-20 4.38282e-19 -0.0153444)
(8.02219e-20 4.97977e-19 -0.0153512)
(-1.28731e-20 4.16589e-19 -0.0153576)
(-1.78301e-19 1.49201e-19 -0.0153635)
(-3.3071e-19 -6.49994e-20 -0.0153688)
(-3.24509e-19 -1.26614e-19 -0.0153737)
(-9.7942e-20 -2.6839e-20 -0.0153781)
(-6.79222e-20 3.18599e-20 -0.0153821)
(-3.47609e-19 -2.12443e-19 -0.0153856)
(-5.095e-19 -3.85519e-19 -0.0153887)
(-2.95366e-19 -3.41149e-19 -0.0153914)
(-1.20196e-19 2.73577e-19 -0.0153937)
(-7.03779e-20 3.71802e-19 -0.0153957)
(-2.10444e-20 2.85119e-19 -0.0153974)
(-7.23606e-20 3.04807e-19 -0.0153989)
(2.85304e-20 3.45978e-19 -0.0154)
(1.26074e-19 1.64765e-19 -0.0154009)
(6.55852e-20 -2.27085e-19 -0.0154017)
(-1.20868e-19 -4.30878e-19 -0.0154022)
(-2.76536e-19 -5.86164e-19 -0.0154026)
(-3.7501e-19 -5.58022e-19 -0.0154029)
(-7.09553e-19 -3.59467e-19 -0.015403)
(-9.39157e-19 -2.13601e-19 -0.015403)
(-6.93996e-19 -3.54688e-19 -0.0154029)
(-4.62332e-19 -2.49811e-19 -0.0154026)
(-5.59551e-19 -1.7917e-19 -0.0154022)
(-6.78054e-19 -1.93142e-19 -0.0154017)
(-5.97922e-19 -1.00891e-19 -0.0154009)
(-3.89465e-19 -4.36309e-20 -0.0154)
(-5.16573e-19 -3.30893e-20 -0.0153989)
(-6.74164e-19 3.48141e-19 -0.0153974)
(-5.13481e-19 5.67669e-19 -0.0153957)
(-4.4633e-19 7.06268e-19 -0.0153937)
(-3.57586e-19 9.11149e-19 -0.0153914)
(-1.70052e-19 9.58148e-19 -0.0153887)
(-1.07175e-19 1.0045e-18 -0.0153856)
(-1.51807e-19 9.93823e-19 -0.0153821)
(-1.85045e-19 1.02003e-18 -0.0153781)
(-3.74621e-19 1.03986e-18 -0.0153737)
(-6.25555e-19 9.94385e-19 -0.0153688)
(-5.95648e-19 1.00693e-18 -0.0153634)
(-5.74509e-19 9.96758e-19 -0.0153576)
(-6.9007e-19 9.84248e-19 -0.0153512)
(-5.84754e-19 9.81194e-19 -0.0153444)
(-1.79265e-19 8.14789e-19 -0.015337)
(7.47112e-20 5.85931e-19 -0.0153291)
(1.11847e-19 5.39114e-19 -0.0153205)
(-1.75445e-19 3.75168e-19 -0.0153037)
(-2.35943e-20 4.90677e-19 -0.0153129)
(6.00923e-20 4.18729e-19 -0.0153214)
(1.07594e-19 3.61093e-19 -0.0153295)
(1.53083e-19 3.91328e-19 -0.0153369)
(-1.34414e-20 2.56087e-19 -0.0153439)
(-1.81681e-19 1.30164e-19 -0.0153504)
(-3.35935e-19 1.64821e-19 -0.0153564)
(-4.93125e-19 2.23357e-19 -0.0153618)
(-3.19684e-19 2.81315e-19 -0.0153668)
(-2.04141e-19 1.83906e-19 -0.0153714)
(-4.90483e-19 -5.30664e-20 -0.0153755)
(-6.75213e-19 -1.2833e-19 -0.0153792)
(-7.65545e-20 1.81932e-19 -0.0153824)
(2.24358e-19 5.29586e-19 -0.0153853)
(2.67468e-20 5.08968e-19 -0.0153878)
(1.22385e-19 3.15331e-19 -0.01539)
(1.06891e-19 1.60969e-19 -0.0153918)
(8.54079e-20 5.50466e-20 -0.0153934)
(1.30793e-19 -1.96444e-19 -0.0153946)
(-4.45897e-20 -3.77029e-19 -0.0153957)
(-3.84853e-19 -5.40891e-19 -0.0153965)
(-4.52354e-19 -5.83014e-19 -0.0153971)
(-3.40471e-19 -5.87032e-19 -0.0153974)
(-5.07799e-19 -4.54201e-19 -0.0153976)
(-7.16576e-19 -1.07402e-19 -0.0153976)
(-6.03078e-19 2.146e-19 -0.0153974)
(-4.56301e-19 1.95918e-19 -0.0153971)
(-5.69751e-19 1.6929e-19 -0.0153965)
(-6.62839e-19 2.7199e-19 -0.0153957)
(-5.29547e-19 4.66356e-19 -0.0153946)
(-4.53483e-19 5.37733e-19 -0.0153934)
(-5.05755e-19 4.76702e-19 -0.0153918)
(-4.47695e-19 6.57493e-19 -0.01539)
(-3.69339e-19 8.09698e-19 -0.0153878)
(-3.33568e-19 9.31146e-19 -0.0153853)
(-2.37929e-19 1.19129e-18 -0.0153824)
(-2.39799e-19 1.29033e-18 -0.0153792)
(-3.05224e-19 1.03784e-18 -0.0153755)
(-2.91874e-19 1.00524e-18 -0.0153714)
(-3.40689e-19 8.55514e-19 -0.0153668)
(-5.43815e-19 7.61076e-19 -0.0153618)
(-5.7657e-19 7.98587e-19 -0.0153564)
(-4.84643e-19 8.88074e-19 -0.0153504)
(-5.68361e-19 9.64252e-19 -0.0153439)
(-5.51817e-19 1.04551e-18 -0.0153369)
(-2.94834e-19 1.15471e-18 -0.0153294)
(-4.26627e-20 1.1872e-18 -0.0153214)
(-1.64369e-20 8.99105e-19 -0.0153129)
(-1.41381e-20 6.61166e-19 -0.0153037)
(-2.5901e-19 6.53191e-19 -0.0152856)
(-1.59101e-19 6.66809e-19 -0.0152954)
(-9.51472e-20 4.95625e-19 -0.0153046)
(5.45836e-20 4.1863e-19 -0.0153132)
(1.37415e-19 2.97662e-19 -0.0153213)
(4.95371e-22 1.51829e-19 -0.0153289)
(-1.09949e-19 1.4882e-19 -0.0153359)
(-1.68366e-19 1.27768e-19 -0.0153424)
(-3.55647e-19 1.69316e-19 -0.0153485)
(-4.06711e-19 4.52781e-19 -0.015354)
(-3.92996e-19 3.31601e-19 -0.0153591)
(-6.14791e-19 2.00882e-19 -0.0153637)
(-6.58938e-19 4.76285e-19 -0.0153679)
(-2.4268e-20 8.76459e-19 -0.0153717)
(3.94435e-19 9.6805e-19 -0.015375)
(9.13408e-20 7.45812e-19 -0.015378)
(-2.79996e-20 3.85562e-19 -0.0153806)
(5.32231e-20 1.27163e-19 -0.0153828)
(7.47513e-20 -9.97786e-20 -0.0153847)
(1.01707e-19 -3.40984e-19 -0.0153863)
(-1.93033e-20 -5.29506e-19 -0.0153876)
(-3.32883e-19 -3.96154e-19 -0.0153886)
(-4.52979e-19 -1.39325e-19 -0.0153893)
(-3.54443e-19 1.41944e-20 -0.0153898)
(-4.36498e-19 1.36969e-21 -0.0153901)
(-5.54883e-19 1.37335e-19 -0.0153901)
(-5.35571e-19 4.42325e-19 -0.0153898)
(-5.37067e-19 5.25383e-19 -0.0153893)
(-5.67114e-19 4.96849e-19 -0.0153886)
(-5.1394e-19 7.4619e-19 -0.0153876)
(-4.50377e-19 9.47483e-19 -0.0153863)
(-5.13036e-19 9.69308e-19 -0.0153847)
(-5.4411e-19 9.53869e-19 -0.0153828)
(-4.65031e-19 9.88005e-19 -0.0153806)
(-4.09496e-19 9.35177e-19 -0.015378)
(-2.88149e-19 8.76114e-19 -0.015375)
(-2.10085e-19 1.01671e-18 -0.0153717)
(-4.97231e-19 1.13529e-18 -0.0153679)
(-5.25881e-19 1.00837e-18 -0.0153637)
(-4.05287e-19 1.00316e-18 -0.0153591)
(-5.4991e-19 8.1705e-19 -0.015354)
(-5.67949e-19 5.9115e-19 -0.0153485)
(-4.83072e-19 6.4138e-19 -0.0153424)
(-4.34574e-19 6.27777e-19 -0.0153359)
(-4.56834e-19 6.75951e-19 -0.0153289)
(-3.27094e-19 7.98751e-19 -0.0153213)
(-7.37173e-20 9.39684e-19 -0.0153132)
(-5.89556e-20 1.11e-18 -0.0153046)
(-1.85016e-19 9.23517e-19 -0.0152954)
(-9.60592e-20 6.74541e-19 -0.0152856)
(-4.15491e-19 9.5889e-19 -0.0152665)
(-3.51941e-19 9.60137e-19 -0.0152768)
(-3.09458e-19 6.5417e-19 -0.0152866)
(-2.0043e-19 4.6714e-19 -0.0152958)
(-1.42837e-20 3.75652e-19 -0.0153044)
(-2.07817e-20 3.5932e-19 -0.0153125)
(-1.83015e-19 3.52475e-19 -0.0153201)
(-2.69192e-19 2.49525e-19 -0.0153272)
(-1.98453e-19 3.19944e-19 -0.0153337)
(-2.21525e-19 2.78823e-19 -0.0153398)
(-3.72013e-19 1.18492e-19 -0.0153454)
(-3.88709e-19 3.18703e-19 -0.0153505)
(-4.26438e-19 7.09241e-19 -0.0153551)
(3.47765e-20 1.04021e-18 -0.0153593)
(3.16712e-19 7.87863e-19 -0.0153631)
(-9.85275e-20 4.50198e-19 -0.0153665)
(-2.07075e-19 3.61286e-19 -0.0153694)
(-1.37786e-19 2.75569e-19 -0.015372)
(-1.35475e-19 1.53239e-19 -0.0153742)
(-5.48303e-20 -3.34479e-20 -0.0153761)
(5.84897e-20 -1.67889e-19 -0.0153776)
(-4.0136e-20 -4.50216e-20 -0.0153788)
(-1.91968e-19 1.81878e-19 -0.0153797)
(-3.48318e-19 3.71134e-19 -0.0153803)
(-5.97187e-19 3.48258e-19 -0.0153806)
(-5.14655e-19 3.40515e-19 -0.0153806)
(-3.72072e-19 6.12274e-19 -0.0153803)
(-5.14228e-19 7.66078e-19 -0.0153797)
(-4.77199e-19 8.21707e-19 -0.0153788)
(-3.56089e-19 1.04871e-18 -0.0153776)
(-4.92186e-19 1.14666e-18 -0.0153761)
(-6.79904e-19 9.63551e-19 -0.0153742)
(-6.64398e-19 9.32389e-19 -0.015372)
(-5.53496e-19 9.94197e-19 -0.0153694)
(-5.1766e-19 1.00781e-18 -0.0153665)
(-3.15232e-19 9.7235e-19 -0.0153631)
(-2.27514e-19 8.15634e-19 -0.0153593)
(-4.87927e-19 8.65764e-19 -0.0153551)
(-4.4828e-19 1.02388e-18 -0.0153505)
(-4.69979e-19 1.12579e-18 -0.0153454)
(-6.9771e-19 1.12317e-18 -0.0153398)
(-5.96273e-19 7.81791e-19 -0.0153337)
(-3.86876e-19 8.35491e-19 -0.0153272)
(-3.56419e-19 8.34858e-19 -0.0153201)
(-2.95187e-19 8.00864e-19 -0.0153125)
(-9.41927e-20 5.78136e-19 -0.0153044)
(9.55237e-20 5.22896e-19 -0.0152957)
(-1.43711e-19 7.00366e-19 -0.0152866)
(-3.46959e-19 7.59764e-19 -0.0152768)
(-6.05448e-20 5.72419e-19 -0.0152665)
(-3.50046e-19 9.66952e-19 -0.0152463)
(-5.18029e-19 7.79675e-19 -0.0152572)
(-5.62925e-19 4.00886e-19 -0.0152674)
(-3.33237e-19 3.65741e-19 -0.0152771)
(-8.65965e-20 4.74906e-19 -0.0152863)
(2.15796e-20 3.85645e-19 -0.0152949)
(-1.09941e-19 2.17015e-19 -0.015303)
(-2.60171e-19 3.31247e-19 -0.0153106)
(-4.46289e-19 3.11241e-19 -0.0153177)
(-4.95773e-19 -4.16056e-20 -0.0153242)
(-2.4679e-19 -1.07645e-19 -0.0153303)
(-1.10795e-19 2.42393e-19 -0.0153358)
(-1.7213e-19 5.52714e-19 -0.0153409)
(-8.55565e-20 7.58774e-19 -0.0153455)
(1.39668e-19 4.23759e-19 -0.0153497)
(5.65649e-20 3.97153e-19 -0.0153534)
(-5.90919e-20 5.75978e-19 -0.0153567)
(-5.19144e-20 5.18066e-19 -0.0153596)
(-1.61845e-19 5.44655e-19 -0.0153621)
(-1.94888e-19 5.37133e-19 -0.0153642)
(-2.59463e-20 4.79162e-19 -0.0153659)
(-3.10911e-20 4.8055e-19 -0.0153673)
(-1.26595e-19 4.82625e-19 -0.0153683)
(-2.9448e-19 5.44206e-19 -0.015369)
(-6.37468e-19 6.05298e-19 -0.0153693)
(-4.48588e-19 6.44277e-19 -0.0153693)
(-2.1982e-19 8.03135e-19 -0.015369)
(-4.42898e-19 9.42056e-19 -0.0153683)
(-3.88353e-19 9.47575e-19 -0.0153673)
(-3.06581e-19 1.13597e-18 -0.0153659)
(-7.34452e-19 9.86138e-19 -0.0153642)
(-9.37386e-19 9.92109e-19 -0.0153621)
(-6.36027e-19 9.75392e-19 -0.0153596)
(-4.37378e-19 1.05625e-18 -0.0153567)
(-3.95461e-19 1.05247e-18 -0.0153534)
(-3.92772e-19 1.10342e-18 -0.0153497)
(-4.06359e-19 8.85607e-19 -0.0153455)
(-4.108e-19 8.31445e-19 -0.0153409)
(-2.97192e-19 9.26726e-19 -0.0153358)
(-4.24226e-19 9.38967e-19 -0.0153303)
(-7.79371e-19 1.21534e-18 -0.0153242)
(-4.76066e-19 1.26475e-18 -0.0153177)
(-1.6514e-19 1.06802e-18 -0.0153106)
(-2.73813e-19 9.87252e-19 -0.015303)
(-3.84446e-19 9.05655e-19 -0.0152949)
(-2.55299e-19 5.66581e-19 -0.0152863)
(-2.9093e-20 3.46112e-19 -0.0152771)
(-2.69653e-19 2.56845e-19 -0.0152674)
(-2.88097e-19 4.09078e-19 -0.0152572)
(4.92632e-20 4.06542e-19 -0.0152463)
(-3.53802e-19 6.05173e-19 -0.0152251)
(-5.00658e-19 2.76422e-19 -0.0152365)
(-6.56239e-19 1.69927e-19 -0.0152473)
(-4.29358e-19 3.58664e-19 -0.0152575)
(-2.31732e-19 4.70322e-19 -0.0152671)
(-2.00085e-19 2.36868e-19 -0.0152762)
(-1.62976e-20 -6.19863e-20 -0.0152848)
(-3.81837e-20 1.20446e-19 -0.0152928)
(-4.34221e-19 7.35676e-20 -0.0153004)
(-7.04426e-19 1.16684e-19 -0.0153074)
(-3.28321e-19 2.796e-19 -0.0153138)
(1.0857e-19 5.94513e-19 -0.0153198)
(4.69259e-20 6.86044e-19 -0.0153253)
(-6.37056e-20 7.42762e-19 -0.0153303)
(9.31352e-20 6.81309e-19 -0.0153348)
(1.9221e-19 7.87051e-19 -0.0153389)
(-4.2246e-20 9.89185e-19 -0.0153425)
(-1.01734e-19 6.23327e-19 -0.0153457)
(-6.46376e-20 5.4343e-19 -0.0153485)
(-1.39372e-19 6.14116e-19 -0.0153508)
(-2.31368e-20 6.35345e-19 -0.0153527)
(-5.82139e-20 7.46554e-19 -0.0153542)
(-1.74215e-19 8.38819e-19 -0.0153554)
(-3.10896e-19 8.222e-19 -0.0153561)
(-6.55343e-19 9.11569e-19 -0.0153565)
(-4.31813e-19 1.05708e-18 -0.0153565)
(-1.38366e-19 9.95056e-19 -0.0153561)
(-4.52502e-19 1.0611e-18 -0.0153554)
(-3.74181e-19 1.10568e-18 -0.0153542)
(-4.6775e-19 9.12964e-19 -0.0153527)
(-8.31026e-19 8.35577e-19 -0.0153508)
(-7.66954e-19 1.21494e-18 -0.0153485)
(-5.64706e-19 1.26692e-18 -0.0153457)
(-4.43977e-19 1.19826e-18 -0.0153425)
(-4.52837e-19 1.09127e-18 -0.0153389)
(-4.59449e-19 1.06791e-18 -0.0153348)
(-4.38922e-19 1.10885e-18 -0.0153303)
(-3.61046e-19 1.00204e-18 -0.0153253)
(-3.20874e-19 9.97193e-19 -0.0153198)
(-4.45936e-19 7.57401e-19 -0.0153138)
(-4.15747e-19 9.35045e-19 -0.0153074)
(-2.65114e-19 1.34682e-18 -0.0153004)
(-3.93781e-19 1.11478e-18 -0.0152928)
(-5.27402e-19 8.53755e-19 -0.0152848)
(-5.60782e-19 6.77083e-19 -0.0152762)
(-2.29308e-19 5.59486e-19 -0.0152671)
(-8.42143e-20 4.02461e-19 -0.0152574)
(-2.61935e-19 3.49936e-19 -0.0152472)
(-7.3835e-20 3.51441e-19 -0.0152365)
(3.10955e-19 2.11981e-19 -0.0152251)
(-4.8355e-19 6.0606e-19 -0.0152031)
(-5.26631e-19 2.40991e-19 -0.0152149)
(-5.69848e-19 2.73029e-19 -0.0152261)
(-4.35898e-19 5.04257e-19 -0.0152368)
(-3.8393e-19 6.63619e-19 -0.0152469)
(-5.68363e-19 5.75901e-19 -0.0152564)
(-3.24062e-19 3.14284e-19 -0.0152655)
(4.02224e-20 1.795e-19 -0.015274)
(-1.89949e-19 1.75374e-19 -0.0152819)
(-5.17798e-19 4.77726e-19 -0.0152893)
(-3.3157e-19 8.61644e-19 -0.0152962)
(1.51029e-20 1.0123e-18 -0.0153026)
(1.98349e-20 9.23609e-19 -0.0153085)
(-4.84699e-20 8.59569e-19 -0.0153138)
(1.5465e-19 8.22192e-19 -0.0153187)
(4.11197e-19 8.98746e-19 -0.0153231)
(-1.1417e-19 9.69748e-19 -0.015327)
(-4.11657e-19 5.36198e-19 -0.0153304)
(-1.36473e-19 4.68262e-19 -0.0153334)
(-1.08958e-19 5.05147e-19 -0.015336)
(9.44219e-20 5.63894e-19 -0.0153381)
(1.65896e-19 7.64181e-19 -0.0153397)
(-8.03172e-20 9.58245e-19 -0.015341)
(-2.90486e-19 8.323e-19 -0.0153418)
(-5.46157e-19 9.04857e-19 -0.0153422)
(-4.4886e-19 1.15035e-18 -0.0153422)
(-2.49532e-19 1.06249e-18 -0.0153418)
(-3.98653e-19 1.01223e-18 -0.015341)
(-5.9662e-19 1.03044e-18 -0.0153397)
(-7.0227e-19 6.49231e-19 -0.0153381)
(-5.82008e-19 6.95246e-19 -0.015336)
(-5.8217e-19 8.63883e-19 -0.0153334)
(-6.4037e-19 9.29596e-19 -0.0153304)
(-5.96527e-19 9.87216e-19 -0.015327)
(-5.24835e-19 9.56847e-19 -0.0153231)
(-3.92351e-19 9.05496e-19 -0.0153187)
(-3.57271e-19 1.31616e-18 -0.0153138)
(-3.81297e-19 1.17031e-18 -0.0153085)
(-4.83411e-19 1.00215e-18 -0.0153026)
(-5.03538e-19 7.51828e-19 -0.0152962)
(-2.13623e-19 8.14415e-19 -0.0152893)
(-3.0112e-19 9.49682e-19 -0.0152819)
(-6.28528e-19 1.05831e-18 -0.0152739)
(-6.59063e-19 9.48278e-19 -0.0152655)
(-4.25869e-19 7.16349e-19 -0.0152564)
(-1.19358e-19 5.18887e-19 -0.0152469)
(-9.21375e-20 4.36053e-19 -0.0152367)
(-1.38991e-19 5.7147e-19 -0.0152261)
(6.27286e-20 4.62037e-19 -0.0152149)
(3.12149e-19 3.23164e-19 -0.015203)
(-6.87483e-19 6.7251e-19 -0.0151801)
(-7.73874e-19 5.81717e-19 -0.0151924)
(-6.79505e-19 5.69033e-19 -0.015204)
(-3.44107e-19 5.61535e-19 -0.0152151)
(-1.94959e-19 6.52949e-19 -0.0152257)
(-5.57853e-19 4.00977e-19 -0.0152357)
(-7.17249e-19 3.68237e-19 -0.0152451)
(-2.33094e-19 1.96837e-19 -0.015254)
(-3.08966e-20 3.06008e-19 -0.0152624)
(-2.08629e-19 5.51905e-19 -0.0152702)
(-1.90101e-19 8.90957e-19 -0.0152775)
(3.60815e-20 9.76387e-19 -0.0152842)
(-3.00622e-20 9.45634e-19 -0.0152904)
(-1.29249e-19 7.41076e-19 -0.0152961)
(6.93001e-20 7.59695e-19 -0.0153013)
(4.79357e-19 6.78782e-19 -0.015306)
(-7.36958e-20 4.43048e-19 -0.0153102)
(-5.08899e-19 4.95348e-19 -0.0153138)
(-1.57187e-19 6.94161e-19 -0.0153171)
(-1.04144e-19 7.40017e-19 -0.0153198)
(1.67569e-19 8.44237e-19 -0.0153221)
(3.12589e-19 9.2787e-19 -0.0153239)
(-1.00592e-19 8.92317e-19 -0.0153252)
(-4.00189e-19 7.38989e-19 -0.0153261)
(-4.64626e-19 7.22151e-19 -0.0153266)
(-3.52727e-19 8.80031e-19 -0.0153266)
(-2.8017e-19 9.91867e-19 -0.0153261)
(-5.38944e-19 9.22882e-19 -0.0153252)
(-8.09207e-19 7.95901e-19 -0.0153239)
(-8.4182e-19 6.71753e-19 -0.0153221)
(-6.8029e-19 5.02758e-19 -0.0153198)
(-6.79367e-19 1.84462e-19 -0.0153171)
(-5.80333e-19 1.54252e-19 -0.0153138)
(-4.82212e-19 4.84351e-19 -0.0153102)
(-5.23059e-19 6.86535e-19 -0.015306)
(-1.87784e-19 4.79986e-19 -0.0153013)
(-2.44057e-19 7.57553e-19 -0.0152961)
(-6.40291e-19 9.24961e-19 -0.0152904)
(-7.31536e-19 6.64191e-19 -0.0152842)
(-4.81089e-19 6.10908e-19 -0.0152774)
(-1.8345e-19 5.42266e-19 -0.0152702)
(-3.38829e-19 5.69852e-19 -0.0152624)
(-5.24632e-19 1.06025e-18 -0.015254)
(-5.77297e-19 1.16352e-18 -0.0152451)
(-4.70242e-19 9.76732e-19 -0.0152356)
(-1.66351e-19 5.75617e-19 -0.0152256)
(3.83517e-20 4.55807e-19 -0.0152151)
(1.54649e-20 6.87013e-19 -0.015204)
(1.92617e-19 6.52213e-19 -0.0151923)
(4.0362e-19 4.98345e-19 -0.0151801)
(-7.93018e-19 8.09253e-19 -0.0151563)
(-8.01035e-19 8.4297e-19 -0.015169)
(-9.82301e-19 7.40111e-19 -0.015181)
(-6.93198e-19 6.47382e-19 -0.0151925)
(-3.58357e-19 4.59771e-19 -0.0152035)
(-4.46554e-19 1.42605e-19 -0.0152139)
(-6.14228e-19 1.49455e-19 -0.0152238)
(-3.45507e-19 2.70751e-19 -0.0152331)
(-8.15786e-23 4.61162e-19 -0.0152418)
(-1.08734e-20 5.04733e-19 -0.01525)
(-2.95011e-20 6.8857e-19 -0.0152576)
(1.21266e-19 6.86165e-19 -0.0152647)
(5.99753e-22 5.64991e-19 -0.0152713)
(-1.24225e-19 4.71736e-19 -0.0152773)
(2.41656e-20 6.87287e-19 -0.0152828)
(2.79307e-19 6.72169e-19 -0.0152877)
(4.03993e-20 3.14705e-19 -0.0152921)
(-2.07214e-19 6.41449e-19 -0.0152961)
(-4.58287e-20 9.26871e-19 -0.0152995)
(-6.33062e-20 9.42752e-19 -0.0153024)
(1.78927e-19 1.08714e-18 -0.0153048)
(2.45824e-19 8.70821e-19 -0.0153067)
(-1.94594e-19 7.59719e-19 -0.0153082)
(-4.76996e-19 8.55253e-19 -0.0153091)
(-4.98287e-19 8.77592e-19 -0.0153096)
(-2.63885e-19 8.84267e-19 -0.0153096)
(-2.43991e-19 9.7054e-19 -0.0153091)
(-6.42514e-19 9.54934e-19 -0.0153082)
(-9.15692e-19 8.94443e-19 -0.0153067)
(-9.85135e-19 9.39738e-19 -0.0153048)
(-9.92323e-19 7.79352e-19 -0.0153024)
(-8.86861e-19 4.86573e-19 -0.0152995)
(-3.99792e-19 3.67312e-19 -0.0152961)
(-2.15724e-19 3.17652e-19 -0.0152921)
(-4.98373e-19 5.1118e-19 -0.0152877)
(-3.08021e-19 3.95982e-19 -0.0152827)
(-2.4007e-19 3.50655e-19 -0.0152773)
(-6.84661e-19 5.56972e-19 -0.0152713)
(-7.64317e-19 4.29284e-19 -0.0152647)
(-4.16476e-19 4.62606e-19 -0.0152576)
(-2.00327e-19 4.20326e-19 -0.01525)
(-1.1189e-19 3.60836e-19 -0.0152418)
(-2.74545e-19 9.56266e-19 -0.015233)
(-6.28173e-19 1.0841e-18 -0.0152237)
(-5.26937e-19 9.66827e-19 -0.0152139)
(-5.80299e-20 8.51786e-19 -0.0152035)
(2.31051e-19 6.95716e-19 -0.0151925)
(2.41882e-19 8.60424e-19 -0.015181)
(3.70628e-19 8.51727e-19 -0.015169)
(3.70891e-19 6.91296e-19 -0.0151563)
(-8.66602e-19 9.02748e-19 -0.0151318)
(-7.88846e-19 7.4758e-19 -0.0151448)
(-9.55483e-19 7.80533e-19 -0.0151572)
(-9.6467e-19 8.32873e-19 -0.0151691)
(-6.58903e-19 5.23012e-19 -0.0151805)
(-6.13351e-19 1.26521e-19 -0.0151913)
(-6.16845e-19 5.74215e-20 -0.0152015)
(-3.9716e-19 6.41387e-19 -0.0152112)
(-1.21061e-19 8.72932e-19 -0.0152203)
(-5.45989e-20 7.51157e-19 -0.0152288)
(-4.49977e-20 7.60435e-19 -0.0152368)
(5.31883e-20 5.71832e-19 -0.0152442)
(5.10985e-20 1.95481e-19 -0.015251)
(3.85418e-20 4.50724e-19 -0.0152574)
(1.63497e-19 8.05806e-19 -0.0152631)
(2.00337e-19 8.89183e-19 -0.0152683)
(6.52469e-21 5.83671e-19 -0.015273)
(-2.20035e-20 7.34398e-19 -0.0152771)
(4.62252e-20 9.2329e-19 -0.0152807)
(-1.19981e-20 8.77875e-19 -0.0152838)
(7.19129e-20 9.67579e-19 -0.0152864)
(1.01267e-19 7.04608e-19 -0.0152884)
(-7.42931e-20 6.58022e-19 -0.01529)
(-3.47976e-19 7.84282e-19 -0.015291)
(-5.03871e-19 9.51087e-19 -0.0152915)
(-3.07516e-19 9.80994e-19 -0.0152915)
(-2.60562e-19 8.91209e-19 -0.015291)
(-6.97066e-19 8.32137e-19 -0.01529)
(-9.30002e-19 8.26477e-19 -0.0152884)
(-1.00234e-18 9.87296e-19 -0.0152864)
(-1.05642e-18 9.22408e-19 -0.0152838)
(-8.69453e-19 9.16936e-19 -0.0152807)
(-5.16402e-19 8.02864e-19 -0.0152771)
(-3.83616e-19 3.89233e-19 -0.015273)
(-5.01553e-19 4.26706e-19 -0.0152683)
(-2.41515e-19 3.75794e-19 -0.0152631)
(-2.37897e-19 4.41052e-19 -0.0152574)
(-7.94419e-19 4.68699e-19 -0.015251)
(-7.39025e-19 4.70776e-19 -0.0152442)
(-2.92353e-19 4.18841e-19 -0.0152368)
(-1.0316e-19 4.49312e-19 -0.0152288)
(7.69523e-21 2.17137e-19 -0.0152202)
(-3.05173e-19 4.95735e-19 -0.0152111)
(-7.11859e-19 9.09085e-19 -0.0152015)
(-3.23533e-19 9.47004e-19 -0.0151912)
(2.0514e-19 9.69299e-19 -0.0151805)
(4.03044e-19 8.88671e-19 -0.0151691)
(3.63919e-19 9.81156e-19 -0.0151572)
(3.51692e-19 9.54491e-19 -0.0151448)
(3.29482e-19 6.95414e-19 -0.0151317)
(-8.07509e-19 7.3469e-19 -0.0151064)
(-7.80581e-19 6.57064e-19 -0.0151198)
(-8.61505e-19 7.4174e-19 -0.0151326)
(-1.06596e-18 7.49926e-19 -0.0151449)
(-9.86772e-19 3.28383e-19 -0.0151566)
(-7.90208e-19 7.01882e-20 -0.0151678)
(-4.91432e-19 5.24162e-19 -0.0151783)
(-1.75351e-19 9.23877e-19 -0.0151884)
(-1.66632e-19 9.68196e-19 -0.0151978)
(-2.07516e-19 1.02284e-18 -0.0152067)
(-2.36964e-19 1.00977e-18 -0.015215)
(-2.81204e-19 6.44595e-19 -0.0152227)
(7.53621e-22 2.84287e-19 -0.0152298)
(3.00974e-19 7.14354e-19 -0.0152364)
(3.11755e-19 1.0375e-18 -0.0152425)
(1.48326e-19 9.60218e-19 -0.0152479)
(-6.96779e-20 7.6109e-19 -0.0152528)
(1.90087e-20 9.89763e-19 -0.0152571)
(7.74376e-20 9.04102e-19 -0.0152609)
(-2.06825e-20 8.13735e-19 -0.0152642)
(4.1345e-20 8.5374e-19 -0.0152669)
(2.01533e-20 8.39746e-19 -0.015269)
(-1.17401e-19 7.80603e-19 -0.0152706)
(-2.68375e-19 6.33158e-19 -0.0152717)
(-3.90703e-19 7.07301e-19 -0.0152722)
(-3.37505e-19 9.48939e-19 -0.0152722)
(-4.03205e-19 8.40908e-19 -0.0152717)
(-8.02981e-19 5.71651e-19 -0.0152706)
(-9.08714e-19 6.61838e-19 -0.015269)
(-1.01226e-18 7.4769e-19 -0.0152669)
(-1.10315e-18 6.51698e-19 -0.0152642)
(-9.09613e-19 7.01339e-19 -0.0152609)
(-7.064e-19 5.92407e-19 -0.0152571)
(-5.31381e-19 1.29013e-19 -0.0152528)
(-5.02309e-19 3.20649e-19 -0.0152479)
(-2.33095e-19 2.66053e-19 -0.0152424)
(-3.37662e-19 9.00644e-20 -0.0152364)
(-8.73088e-19 1.65096e-19 -0.0152298)
(-6.43046e-19 3.75166e-19 -0.0152227)
(-1.69978e-19 4.99245e-19 -0.015215)
(-1.63806e-19 4.9745e-19 -0.0152067)
(-1.29194e-19 2.1115e-19 -0.0151978)
(-2.50658e-19 8.5271e-20 -0.0151883)
(-4.15864e-19 6.44271e-19 -0.0151783)
(-1.29182e-20 1.01608e-18 -0.0151677)
(3.50973e-19 9.33064e-19 -0.0151566)
(4.40167e-19 8.2511e-19 -0.0151449)
(2.98119e-19 7.66031e-19 -0.0151326)
(2.52768e-19 8.11446e-19 -0.0151198)
(3.50743e-19 7.23975e-19 -0.0151064)
(-7.79754e-19 6.7089e-19 -0.0150804)
(-7.11924e-19 5.94943e-19 -0.0150942)
(-7.13105e-19 6.02561e-19 -0.0151073)
(-1.12422e-18 6.10782e-19 -0.0151199)
(-1.25026e-18 4.4605e-19 -0.015132)
(-9.12071e-19 6.847e-19 -0.0151435)
(-6.01092e-19 1.02683e-18 -0.0151544)
(-2.58162e-19 7.48178e-19 -0.0151647)
(-3.00663e-20 8.79854e-19 -0.0151745)
(-8.98306e-20 1.2076e-18 -0.0151837)
(-3.84019e-19 1.26084e-18 -0.0151923)
(-5.72646e-19 8.57823e-19 -0.0152003)
(-1.42422e-19 7.81116e-19 -0.0152077)
(4.44672e-19 1.07147e-18 -0.0152146)
(3.73643e-19 1.18502e-18 -0.0152208)
(1.18363e-19 8.63152e-19 -0.0152265)
(3.34188e-20 8.20706e-19 -0.0152316)
(4.22775e-20 1.00669e-18 -0.0152361)
(-6.58654e-20 9.56085e-19 -0.0152401)
(-4.7516e-20 8.89221e-19 -0.0152435)
(8.13494e-20 9.78592e-19 -0.0152463)
(3.76029e-20 1.045e-18 -0.0152485)
(-2.45744e-19 1.02022e-18 -0.0152502)
(-4.30445e-19 7.64589e-19 -0.0152513)
(-2.98466e-19 6.49766e-19 -0.0152519)
(-2.35051e-19 8.91532e-19 -0.0152519)
(-6.01697e-19 8.2059e-19 -0.0152513)
(-9.33317e-19 5.64471e-19 -0.0152502)