/*--------------------------------*- C++ -*----------------------------------*\
  =========                 |
  \\      /  F ield         | OpenFOAM: The Open Source CFD Toolbox
   \\    /   O peration     | Website:  https://openfoam.org
    \\  /    A nd           | Version:  7
     \\/     M anipulation  |
\*---------------------------------------------------------------------------*/
FoamFile
{
    version     2.0;
    format      ascii;
    class       surfaceScalarField;
    location    "8000";
    object      phi;
}
// * * * * * * * * * * * * * * * * * * * * * * * * * * * * * * * * * * * * * //

dimensions      [0 3 -1 0 0 0 0];

internalField   nonuniform List<scalar> 
9490
(
-8.1305e-24
9.56454e-23
1.2573e-23
-8.02506e-25
-8.1526e-24
1.30193e-22
1.27644e-23
-1.19363e-23
3.08095e-24
-1.23534e-23
1.01876e-22
-6.74219e-24
7.81505e-23
3.87318e-23
-8.51813e-24
1.29628e-22
1.18524e-23
-1.18074e-23
3.68487e-23
-1.25805e-23
6.12252e-23
-6.17481e-24
6.59479e-23
4.16641e-23
-8.57997e-24
1.63081e-22
1.06811e-23
-1.29946e-23
3.49264e-23
-1.24072e-23
1.22949e-22
-6.41226e-24
8.83204e-23
4.2039e-23
-7.85664e-24
1.2887e-22
1.00455e-23
-1.32388e-23
-5.2378e-23
-1.23941e-23
1.218e-22
-6.33829e-24
1.09521e-22
4.46383e-23
-9.69894e-24
6.66656e-23
9.55029e-24
-1.18876e-23
-8.80797e-23
-1.37407e-23
8.53462e-23
-5.91267e-24
8.30672e-23
1.16698e-23
-1.03408e-23
6.87992e-23
1.0812e-23
-1.1575e-23
-6.24637e-23
-1.30134e-23
8.29e-23
-6.08987e-24
3.1213e-23
1.00795e-23
-1.01134e-23
1.03567e-22
1.1882e-23
-1.11468e-23
-6.88261e-23
-1.27835e-23
8.03505e-23
-5.7725e-24
1.6443e-23
-5.26423e-23
-1.15076e-23
1.02818e-22
1.15948e-23
-1.02374e-23
1.79318e-23
-1.34486e-23
7.98793e-23
-5.85721e-24
3.7982e-23
-5.54236e-23
-1.21694e-23
1.05291e-22
1.03964e-23
-1.01346e-23
1.31316e-22
-1.40607e-23
8.10805e-23
-6.05732e-24
6.55666e-23
-5.43889e-23
-1.14528e-23
4.29331e-23
9.765e-24
-1.123e-23
1.29095e-22
-1.36485e-23
7.62443e-23
-6.73177e-24
1.31226e-22
6.3095e-24
-1.07395e-23
4.0433e-23
9.82911e-24
-1.18536e-23
1.27555e-22
-1.44778e-23
7.69889e-23
-6.99295e-24
1.22365e-22
5.989e-24
-9.22135e-24
2.23679e-23
1.03059e-23
-1.24443e-23
9.41836e-23
-1.4848e-23
4.28371e-23
-7.14842e-24
1.12927e-22
-9.40171e-24
2.13649e-23
9.57454e-24
-1.25294e-23
9.87839e-23
-1.47018e-23
8.27901e-24
1.0545e-22
-9.5403e-24
2.09637e-23
9.85625e-24
-1.28799e-23
1.02222e-22
-1.50047e-23
1.15939e-23
1.63151e-22
-9.80131e-24
-3.7943e-23
9.28785e-24
-1.25534e-23
1.3658e-22
-1.46012e-23
1.64248e-23
-9.72475e-24
4.95046e-24
9.38371e-24
-1.30564e-23
1.41443e-22
-1.68248e-23
-9.12353e-24
-1.83432e-23
9.26242e-24
-1.31085e-23
1.48776e-22
-8.8423e-24
-1.56364e-23
9.98539e-24
1.51799e-22
-9.04644e-24
2.01174e-23
9.79343e-24
1.55602e-22
-8.64695e-24
-1.31329e-23
9.31495e-24
1.25542e-22
-8.74748e-24
2.48898e-23
9.32229e-24
9.84689e-23
-8.19691e-24
8.75306e-23
9.9894e-24
9.33232e-24
4.34262e-24
5.86204e-23
-8.12971e-24
3.34248e-24
3.94864e-23
2.12867e-24
2.66159e-23
1.28165e-23
7.74781e-23
2.00296e-24
4.79917e-23
1.44885e-24
-2.08604e-23
2.48087e-24
3.01896e-23
2.98846e-24
-4.92961e-24
7.73719e-24
1.13035e-22
1.59452e-23
-7.07949e-24
4.86239e-24
2.48605e-23
7.86631e-24
1.9719e-23
-6.78064e-24
3.95344e-23
3.17457e-24
5.18741e-23
1.4657e-23
1.31261e-22
2.40019e-23
1.79014e-22
1.76486e-23
1.1268e-22
1.61477e-23
9.19559e-23
5.21333e-24
7.84778e-23
3.02716e-23
3.48554e-24
7.88859e-23
-8.18881e-24
2.8319e-24
1.07122e-22
3.34856e-24
-3.82011e-23
1.03724e-23
7.32757e-23
4.0649e-25
-1.60348e-23
1.09839e-24
-1.96168e-23
1.79652e-24
2.76892e-23
4.82284e-24
-1.98459e-23
6.80517e-24
1.39488e-22
1.42872e-23
-1.89972e-23
5.01503e-24
3.88199e-23
8.94875e-24
-3.25252e-24
-7.4447e-24
-1.63717e-23
4.70919e-24
1.19123e-22
1.68015e-23
1.78955e-22
2.23929e-23
1.65731e-22
1.61012e-23
1.12361e-22
1.5449e-23
1.37197e-23
2.48618e-24
2.42523e-23
5.9124e-23
4.62982e-24
2.53487e-23
-8.92958e-24
6.80664e-26
4.79077e-23
3.9283e-24
-4.31327e-23
8.46132e-24
7.67402e-23
1.59961e-25
-3.44906e-23
9.89556e-25
-7.8276e-24
1.51453e-24
3.17821e-23
5.59271e-24
-3.6383e-23
5.13395e-24
1.41509e-22
1.43702e-23
-3.06478e-23
3.46509e-24
5.71173e-23
8.12025e-24
-5.36412e-24
-3.17665e-24
-6.54074e-24
5.55989e-24
7.73074e-23
1.65589e-23
1.54121e-22
2.05858e-23
1.3405e-22
1.50707e-23
4.03467e-23
1.57817e-23
2.03418e-23
2.62864e-24
-3.24215e-23
5.52325e-23
2.87862e-24
3.61773e-23
-9.51563e-24
-4.22812e-25
1.45428e-23
4.88989e-24
1.31012e-23
5.54952e-24
5.31874e-23
1.36795e-24
2.98431e-23
1.6982e-25
-4.30434e-23
2.4887e-24
-9.4983e-24
7.49674e-24
-2.97234e-23
4.07407e-24
1.68112e-22
1.42307e-23
-4.3878e-23
3.93669e-24
4.40169e-23
6.62488e-24
-6.66686e-25
-1.84956e-25
1.14771e-23
7.46687e-24
9.44695e-23
1.56655e-23
1.0146e-22
1.87193e-23
1.29063e-22
1.39925e-23
2.24534e-23
1.41924e-23
2.73245e-23
5.00632e-24
-1.49669e-23
5.57586e-23
1.10296e-24
4.85443e-23
-9.22212e-24
-8.62093e-25
5.43671e-23
4.99785e-24
-5.54879e-23
5.72548e-24
5.76585e-23
-8.6298e-26
3.89606e-23
4.75011e-26
-4.06648e-23
2.98907e-24
2.53649e-23
8.82111e-24
1.86786e-25
1.87005e-24
1.39485e-22
1.34524e-23
2.12596e-23
3.95008e-24
8.862e-23
5.74385e-24
-1.28267e-25
2.58875e-24
3.04552e-23
7.77833e-24
6.12205e-23
1.54325e-23
6.9268e-23
1.66897e-23
8.63259e-23
1.3335e-23
4.4822e-23
1.32762e-23
2.86505e-23
5.62591e-24
1.15568e-23
9.21466e-23
7.78415e-25
-5.75043e-24
-7.91175e-24
-2.7419e-24
5.96979e-23
5.19748e-24
-6.36843e-23
5.55845e-24
5.14942e-23
-1.34154e-24
4.68554e-23
-3.27271e-25
-3.95221e-23
5.2145e-24
3.7795e-23
1.06045e-23
-1.8289e-25
2.03512e-24
8.48044e-23
1.28634e-23
-5.60199e-23
3.98711e-24
7.98611e-23
6.36477e-24
4.16714e-25
3.66333e-24
6.18533e-23
7.69348e-24
9.14357e-23
1.50553e-23
1.36499e-22
1.56435e-23
7.90423e-23
1.20972e-23
3.87719e-23
1.28648e-23
6.48903e-24
7.0639e-24
1.05983e-23
2.59601e-23
1.16388e-25
-3.17537e-23
-6.96872e-24
-3.31834e-24
1.06288e-22
6.42729e-24
-3.75926e-23
5.06092e-24
1.80604e-23
-3.06289e-24
5.28478e-23
7.32121e-25
-1.93015e-23
5.46467e-24
1.12476e-22
9.85664e-24
-7.37525e-24
2.69534e-24
8.79299e-23
1.14672e-23
-5.65991e-23
4.32162e-24
1.25281e-22
6.04475e-24
3.34721e-23
3.6202e-24
6.31789e-23
9.92157e-24
1.0218e-22
1.15804e-23
8.93288e-23
1.5122e-23
6.65324e-23
1.10461e-23
-4.78153e-23
1.35237e-23
1.02587e-23
6.77061e-24
5.42382e-23
1.34047e-23
2.10865e-24
-1.09336e-23
-4.30497e-24
-5.65674e-24
2.49639e-23
6.03715e-24
-1.60561e-23
5.83811e-24
-4.52003e-23
-3.30072e-24
2.20723e-23
2.66316e-24
-1.75387e-23
5.88273e-24
1.88198e-22
8.57885e-24
-2.83663e-23
2.74362e-24
5.96432e-23
1.13545e-23
-5.96588e-23
4.83732e-24
1.31789e-22
5.12711e-24
2.83931e-24
6.40607e-24
9.49429e-23
8.72026e-24
3.19178e-23
1.05333e-23
5.63334e-23
1.41337e-23
5.75627e-23
1.14553e-23
-2.45739e-23
1.54804e-23
1.80874e-23
4.52236e-24
-1.04124e-23
2.38604e-24
2.82756e-23
-2.81408e-24
2.71889e-24
-4.84073e-24
-2.18585e-23
7.39488e-24
5.09273e-23
7.3482e-24
-1.30348e-24
-1.12397e-23
-4.56757e-23
-8.33487e-24
-7.75437e-24
-8.04812e-24
6.99204e-23
-9.90457e-24
-1.96967e-23
-2.3975e-24
3.47931e-24
-3.46927e-24
-1.52636e-23
1.67469e-24
2.33095e-23
-5.84136e-24
2.18159e-23
-1.11194e-23
3.62887e-23
6.43124e-26
6.46197e-23
3.01953e-24
3.0407e-24
3.12233e-23
-2.44894e-24
-6.19991e-24
6.79086e-24
5.99598e-24
9.35206e-24
6.8068e-24
-4.93647e-23
-2.90561e-24
7.24086e-23
4.63601e-24
4.67904e-23
4.3533e-24
1.32829e-22
7.69102e-24
1.52766e-24
2.15711e-24
1.0088e-22
1.25492e-23
-3.67589e-23
5.85692e-24
1.34704e-22
4.61274e-24
-4.37913e-23
5.8267e-24
9.57882e-23
8.01247e-24
2.67332e-23
9.73498e-24
4.79207e-23
1.23468e-23
4.68557e-23
1.13006e-23
1.20341e-23
1.55349e-23
1.64856e-23
4.44512e-24
-6.59913e-23
3.16491e-24
4.02601e-23
-4.02049e-24
-1.07491e-23
-2.31323e-24
4.77519e-23
6.04973e-24
4.08806e-23
6.25943e-24
1.87514e-23
-1.03996e-23
-1.23073e-23
-7.45433e-24
2.29466e-23
-9.17708e-24
6.86817e-23
-1.01363e-23
-3.32635e-23
-2.4949e-24
1.12681e-23
-2.74989e-24
3.31838e-23
2.432e-24
1.4128e-23
-5.46495e-24
-4.28493e-23
-1.07034e-23
-3.26656e-23
-6.00245e-26
5.91077e-23
2.53453e-24
1.48971e-23
-3.01311e-24
1.12669e-23
-1.50591e-23
1.73795e-24
1.94899e-23
-3.8668e-24
-6.02557e-24
-1.54601e-23
4.6522e-24
7.70589e-23
7.51354e-24
-5.18202e-23
-1.0438e-24
8.50499e-23
3.47063e-24
-1.86459e-23
3.38394e-24
4.97504e-23
8.65295e-24
-1.144e-23
1.62021e-24
4.00019e-23
1.19456e-23
-4.96347e-23
5.44351e-24
1.37991e-22
5.18818e-24
-1.24033e-23
5.70615e-24
1.53164e-22
7.69413e-24
3.09148e-23
9.56731e-24
4.58837e-23
1.242e-23
8.65999e-24
1.03154e-23
2.52699e-23
1.47276e-23
3.98363e-23
5.55213e-24
-4.85467e-23
3.29968e-24
5.63215e-23
-2.80635e-24
-3.76334e-23
-1.9851e-24
4.02853e-23
5.57291e-24
2.93085e-23
5.74644e-24
5.92527e-24
-9.50235e-24
-9.39606e-24
-7.60528e-24
3.29793e-23
-9.80122e-24
6.97931e-23
-1.05032e-23
-2.18416e-23
-1.51012e-24
3.25988e-23
-3.62996e-24
4.93843e-23
1.55248e-24
6.49478e-24
-4.90254e-24
-2.94862e-23
-9.51224e-24
-4.76905e-23
1.02899e-24
7.99479e-23
1.37747e-24
-1.13976e-23
-4.13958e-24
-1.13725e-23
-1.0768e-24
-7.39379e-24
1.73361e-23
1.80491e-24
2.06415e-23
-4.16476e-24
-6.46637e-24
-3.8508e-23
3.96938e-24
1.10227e-22
9.37787e-24
-1.88005e-23
-3.04524e-24
9.06326e-24
3.44971e-24
-4.62024e-24
3.9084e-24
2.18382e-23
8.14605e-24
1.57924e-23
1.47285e-24
7.62896e-24
1.29147e-23
-5.73819e-23
5.15305e-24
5.38888e-23
6.18168e-24
-4.90205e-24
4.80878e-24
1.60334e-22
6.18198e-24
3.84092e-23
9.35463e-24
5.81428e-23
1.27454e-23
4.43944e-23
1.03956e-23
3.51676e-23
1.40316e-23
3.86724e-23
6.42337e-24
-6.24029e-24
2.54051e-24
4.37322e-23
-1.57217e-24
-2.93327e-23
-1.76529e-24
3.2501e-23
5.22404e-24
3.56887e-23
5.65865e-24
-7.49108e-24
-8.40925e-24
-9.95124e-24
-8.23943e-24
1.97571e-23
-1.02033e-23
6.84413e-23
-1.07278e-23
-5.09201e-23
-4.40534e-25
3.10883e-23
-4.64446e-24
-1.96404e-23
8.38175e-25
4.38721e-23
-5.02016e-24
-3.53797e-23
-7.55039e-24
-3.9525e-23
-4.9932e-25
7.92643e-23
1.1574e-24
-5.07377e-25
-3.18407e-24
4.52119e-24
-5.69006e-25
-3.84651e-24
-5.71584e-24
-4.23136e-23
7.53393e-24
-1.70843e-23
8.56044e-23
1.93102e-24
2.33355e-23
-3.48499e-24
-5.9602e-24
-2.52736e-23
2.69691e-24
1.6448e-22
8.15903e-24
-2.52486e-23
-2.11544e-24
2.47863e-23
2.49417e-24
-2.08e-23
5.47014e-24
-7.08992e-24
7.65849e-24
6.96462e-23
2.11913e-24
5.85922e-24
1.15774e-23
-1.7977e-23
7.10729e-24
5.56979e-23
6.66196e-24
-1.58659e-23
4.23865e-24
7.93093e-23
6.3345e-24
5.0905e-23
8.70489e-24
7.69147e-23
1.17286e-23
7.7727e-23
1.0094e-23
7.02891e-23
1.38448e-23
6.32229e-24
6.53537e-24
-2.82929e-23
2.5884e-24
5.83757e-23
-3.31852e-26
-4.60075e-24
-1.63117e-24
3.59723e-23
4.41168e-24
2.81365e-23
5.84023e-24
-1.63004e-23
-7.7609e-24
-7.07797e-24
-8.35941e-24
1.4373e-23
-1.09841e-23
6.34167e-23
-1.05131e-23
-4.92288e-23
-1.6329e-24
6.88764e-23
-3.69963e-24
-1.29766e-23
-4.04271e-25
-3.58099e-23
-5.01972e-24
-2.37185e-23
-5.10898e-24
-2.50704e-23
-2.19241e-24
5.0381e-23
1.95142e-24
5.62102e-24
-2.9648e-24
-2.32866e-23
-1.66212e-24
-1.68268e-25
-4.26855e-24
-7.06924e-24
9.11506e-24
2.84849e-24
-1.93045e-24
3.58283e-23
-1.09158e-23
-3.18767e-24
1.66707e-23
1.19445e-24
2.91531e-23
-4.18789e-24
-4.68793e-24
-4.86893e-23
1.72816e-24
1.18335e-22
7.55422e-24
-3.63865e-23
-1.83599e-24
4.46461e-24
2.5233e-24
5.34625e-23
7.24295e-24
-5.17406e-24
5.72506e-24
6.52465e-23
1.70179e-24
7.15005e-24
1.15366e-23
-1.98819e-23
8.39325e-24
1.42206e-23
7.32325e-24
3.8844e-24
3.78665e-24
1.22983e-22
6.89144e-24
1.15041e-22
8.11911e-24
4.26437e-23
1.11916e-23
3.46356e-23
9.58456e-24
7.43446e-23
1.34367e-23
3.5553e-24
7.12409e-24
2.14731e-23
1.51372e-24
7.44805e-23
9.22091e-25
1.56486e-23
-2.02166e-24
-2.45429e-23
3.85454e-24
3.82292e-23
6.17972e-24
-2.14947e-23
-7.37679e-24
-1.43087e-24
-8.61851e-24
4.22657e-23
-1.16731e-23
4.51263e-23
-9.81397e-24
-5.70369e-23
-2.28757e-24
2.9586e-23
-3.79882e-24
-7.42131e-24
1.70341e-25
-1.22303e-23
-4.4525e-24
-1.48153e-23
-4.08138e-24
-1.91482e-23
-2.98104e-24
5.1527e-23
1.54513e-24
6.92087e-23
-3.13757e-24
-1.50536e-23
-4.94212e-25
3.18934e-24
-4.15598e-24
-6.36004e-23
9.2952e-24
2.56163e-23
-7.42781e-25
-1.35227e-23
-1.04569e-23
-2.75821e-23
-5.23328e-24
1.7967e-23
-1.2923e-23
1.61285e-23
-1.29912e-23
1.68506e-23
3.99997e-23
1.69963e-24
3.16866e-23
-3.82569e-24
-4.15844e-24
-1.03483e-22
7.94424e-25
7.97145e-23
6.25765e-24
1.67258e-23
-1.43274e-24
1.82421e-23
3.39352e-24
6.94523e-23
8.48627e-24
-2.62054e-24
3.94434e-24
6.57129e-23
1.40422e-24
3.90172e-23
1.22528e-23
7.05961e-24
8.91008e-24
1.2414e-23
7.44734e-24
4.41684e-23
5.35899e-24
1.06965e-22
5.07841e-24
4.9536e-23
8.49784e-24
6.90684e-23
1.03611e-23
-3.05433e-23
8.59131e-24
4.27606e-23
1.40235e-23
2.56142e-23
7.73784e-24
6.84283e-23
4.85535e-25
2.91998e-23
8.40511e-25
2.05332e-23
-1.57019e-24
-2.4342e-23
3.40568e-24
9.7364e-23
6.34854e-24
-2.42603e-23
-6.4729e-24
-2.8192e-23
-9.36091e-24
2.58149e-23
-1.21561e-23
3.89217e-23
-9.65557e-24
-2.99333e-23
-2.77236e-24
2.65068e-23
-3.83188e-24
-3.37244e-24
2.02626e-25
-2.10005e-23
-3.88046e-24
-4.43101e-23
-3.00448e-24
-1.79683e-23
-2.22536e-24
-1.0357e-23
1.08768e-25
3.27296e-23
-2.91845e-24
-5.1176e-24
-1.82189e-24
9.43546e-24
-1.62088e-24
9.16986e-24
8.37327e-24
5.18949e-23
6.25601e-26
-5.82668e-24
-1.04497e-23
-5.63095e-23
-4.4374e-24
5.24881e-23
-1.29733e-23
-6.97222e-24
-1.16273e-23
2.20537e-23
-1.9078e-23
-1.12696e-23
-1.68673e-23
7.49559e-23
-7.73144e-24
1.27644e-24
3.45975e-23
-3.49273e-24
-3.7865e-24
-6.5088e-23
6.7125e-25
7.74076e-23
5.62982e-24
1.2049e-23
-2.73531e-25
3.08886e-23
2.24401e-24
7.6085e-23
1.06294e-23
5.45982e-23
4.10688e-24
7.06945e-23
8.20015e-25
7.50708e-23
1.18199e-23
8.33788e-23
9.66339e-24
8.32342e-24
8.84528e-24
4.60842e-23
4.88356e-24
1.06388e-22
4.07849e-24
4.95139e-23
7.13225e-24
1.12891e-23
1.12616e-23
-3.49494e-23
7.68147e-24
4.36302e-23
1.57969e-23
6.99075e-23
6.56708e-24
-1.02889e-23
2.85504e-25
1.2941e-23
8.89454e-25
6.6737e-23
-1.593e-25
-2.63266e-23
1.94274e-24
9.34858e-23
6.23534e-24
-6.3271e-23
-5.65144e-24
-3.35063e-23
-9.93238e-24
2.41614e-23
-1.21476e-23
1.46312e-24
-1.01209e-23
-3.71998e-23
-2.928e-24
2.28613e-23
-3.67296e-24
3.43919e-23
-6.77664e-25
-2.3384e-23
-2.91603e-24
-1.23013e-23
-2.78505e-24
-1.6702e-23
-1.26081e-24
1.84198e-24
1.35628e-25
3.67128e-23
-3.04651e-24
1.31932e-23
-2.24816e-24
1.05104e-23
-9.7492e-25
1.44182e-23
8.02596e-24
4.63586e-23
-9.75857e-25
2.18108e-25
-8.42169e-24
-9.15298e-23
-5.17439e-24
1.54157e-23
-1.25459e-23
-3.3291e-23
-1.20274e-23
-6.51759e-24
-1.85384e-23
-4.42425e-23
-1.70227e-23
5.72169e-23
-1.79829e-23
-1.29448e-23
-7.86988e-24
3.54107e-23
-1.57681e-23
1.01653e-22
5.05134e-23
8.84379e-25
3.57852e-23
-3.09159e-24
-2.71801e-24
-6.40611e-23
-2.11885e-25
7.83864e-23
6.67402e-24
4.41008e-23
-1.57202e-24
-1.75231e-23
3.28866e-24
8.71057e-23
9.31392e-24
1.31491e-23
4.01161e-24
1.52394e-23
1.04777e-24
3.292e-23
1.05897e-23
6.025e-23
1.04304e-23
7.19798e-23
9.11142e-24
5.19302e-23
3.58259e-24
7.51537e-23
3.43261e-24
5.12957e-23
6.31128e-24
5.40576e-23
1.22534e-23
2.75129e-23
8.34927e-24
3.2431e-23
1.4847e-23
5.69446e-23
7.22233e-24
-5.95648e-23
4.62598e-25
4.1139e-23
2.83549e-25
7.14748e-23
1.18301e-24
6.50409e-24
-4.95075e-26
8.9486e-23
6.77665e-24
-1.14403e-23
-5.01477e-24
-2.67877e-23
-1.06607e-23
6.72404e-23
-1.1873e-23
3.04943e-23
-1.03229e-23
-3.99529e-23
-2.18047e-24
7.56464e-23
-4.97976e-24
3.66783e-23
-4.52805e-25
1.39368e-23
-3.29901e-24
-1.2438e-23
-2.42509e-24
-2.30951e-23
-7.86412e-25
4.75533e-25
4.27431e-25
-2.00511e-23
-3.66019e-24
-1.44579e-23
-1.54185e-24
9.70831e-24
2.18492e-25
1.73577e-23
7.4193e-24
4.52318e-23
-1.27065e-24
-6.58466e-23
-7.49025e-24
-1.19453e-22
-4.81727e-24
4.77407e-23
-1.13747e-23
-1.30531e-23
-1.25748e-23
3.38564e-23
-1.75786e-23
-8.07041e-23
-1.62646e-23
-1.06479e-23
-1.74891e-23
-1.54439e-23
-7.24145e-24
2.06367e-23
-1.56311e-23
3.81693e-23
5.22376e-23
5.80718e-25
6.64876e-23
-2.67586e-24
-2.25813e-24
-6.5055e-23
-6.11947e-25
4.48635e-23
4.98835e-24
3.61517e-23
-1.0885e-24
-8.56945e-24
2.84833e-24
8.60864e-23
9.10254e-24
6.66777e-24
5.55848e-24
2.35953e-23
1.11577e-24
3.56706e-23
1.13666e-23
9.33403e-23
9.51586e-24
3.76248e-23
9.86541e-24
9.18619e-23
3.35737e-24
1.26824e-23
2.76791e-24
1.58789e-23
7.01813e-24
6.76604e-23
1.18502e-23
6.68228e-23
9.11723e-24
6.69572e-23
1.25672e-23
4.01315e-23
8.66371e-24
7.36524e-24
2.56519e-25
5.56779e-23
7.83617e-25
7.48162e-23
1.32136e-24
4.20787e-23
-1.04801e-24
8.3823e-23
6.57512e-24
4.32604e-23
-3.98515e-24
-1.92907e-23
-1.13567e-23
7.54825e-23
-1.23544e-23
1.49008e-23
-9.13456e-24
-2.77093e-24
-2.61906e-24
7.21343e-23
-5.3524e-24
3.49509e-23
-8.88945e-25
4.28929e-23
-3.09571e-24
-2.59385e-23
-1.91868e-24
-2.95409e-23
-9.2832e-25
-7.44394e-24
-7.38815e-26
-3.4125e-23
-2.95178e-24
-4.50283e-23
-1.72779e-24
-2.27975e-23
1.23145e-24
2.10319e-23
5.50025e-24
-4.23585e-23
-8.75524e-25
-6.54964e-23
-6.58564e-24
-1.35821e-22
-5.16556e-24
2.94384e-23
-1.17787e-23
-2.90748e-24
-1.30393e-23
4.85378e-23
-1.69778e-23
-7.85903e-23
-1.55421e-23
-1.14643e-23
-1.63156e-23
4.85791e-23
-6.95421e-24
7.0825e-23
-1.47181e-23
1.05722e-23
8.94414e-24
-8.5206e-26
6.74666e-23
-2.8635e-24
-1.96245e-24
-3.12549e-23
-9.52415e-25
1.46086e-23
5.24528e-24
2.69459e-23
-1.44341e-24
-7.34303e-25
2.37842e-24
9.75886e-23
9.80672e-24
9.33916e-25
5.07518e-24
3.32306e-23
1.70818e-24
8.27254e-23
1.10548e-23
8.60602e-23
9.56694e-24
9.77759e-23
9.56641e-24
1.54297e-22
3.72366e-24
1.73018e-23
2.45513e-24
-1.98895e-23
7.21322e-24
1.04819e-22
1.21217e-23
7.94735e-23
7.94789e-24
8.12308e-24
1.20991e-23
2.73507e-23
1.00178e-23
4.03137e-23
-5.31284e-25
6.2899e-24
1.78671e-24
7.16323e-23
9.36573e-25
1.10342e-23
-7.42664e-25
8.14058e-23
5.64605e-24
7.49522e-23
-2.89305e-24
-1.32058e-23
-1.24581e-23
2.34486e-23
-1.22981e-23
-4.32462e-24
-8.81429e-24
-5.52001e-24
-2.89257e-24
6.39632e-23
-5.12758e-24
3.35118e-23
-2.40727e-24
-2.30848e-24
-3.07708e-24
-3.30637e-23
-1.8278e-24
-4.64649e-23
-4.72209e-25
-1.52011e-23
-9.40122e-26
-3.79007e-23
-2.70624e-24
-3.48826e-23
-9.69152e-25
-1.95646e-23
2.36067e-25
2.68341e-23
4.81663e-24
-3.97653e-23
-1.34338e-25
-6.66168e-23
-4.68736e-24
-1.2295e-22
-4.66987e-24
-3.28774e-23
-1.09833e-23
4.70991e-24
-1.47987e-23
1.85797e-23
-1.5882e-23
-1.75778e-23
-1.48053e-23
2.09826e-23
-1.75785e-23
1.16117e-22
-6.45502e-24
1.20851e-22
-1.43802e-23
-1.79561e-23
-2.85506e-23
-3.48012e-25
1.06658e-22
-2.95306e-24
-2.89699e-24
-2.97314e-23
-1.02231e-24
5.25562e-23
4.71041e-24
8.29045e-23
-2.26999e-25
6.72712e-24
2.65702e-24
1.3264e-22
1.05031e-23
-6.32927e-24
6.13284e-24
7.55616e-24
1.62725e-24
9.40926e-23
1.15689e-23
8.08477e-23
1.0005e-23
8.25742e-23
7.42397e-24
1.52277e-22
3.43528e-24
5.92022e-23
3.43028e-24
4.39358e-23
6.59964e-24
7.12169e-23
1.12275e-23
7.83341e-23
7.51399e-24
5.39562e-24
1.20596e-23
1.30087e-23
1.01209e-23
4.30979e-23
-4.27435e-25
-1.9021e-23
2.30593e-24
1.02265e-22
8.73303e-25
-2.59282e-23
-2.66192e-25
1.43455e-22
4.42958e-24
7.14953e-23
-2.94989e-24
-7.05782e-24
-1.28084e-23
-3.35157e-23
-1.21425e-23
-1.10357e-23
-8.23021e-24
-7.9153e-24
-2.86038e-24
5.66708e-23
-6.09525e-24
2.30926e-23
-2.35091e-24
2.31417e-23
-3.35649e-24
-4.01876e-23
-1.48077e-24
-1.70678e-23
2.32137e-25
7.23883e-23
-4.32852e-25
-7.57797e-23
-2.06549e-24
-2.92079e-23
-2.31648e-25
-1.54362e-23
-2.19835e-25
-2.96954e-24
4.63589e-24
-4.01639e-23
-8.79483e-26
-3.0842e-23
-3.90912e-24
-1.16074e-22
-4.02418e-24
-9.69533e-23
-1.09805e-23
-2.14101e-23
-1.49318e-23
2.78366e-23
-1.69447e-23
-1.58237e-23
-1.37945e-23
1.9994e-23
-1.78806e-23
4.77073e-23
-7.10411e-24
1.03547e-22
-1.37367e-23
-1.30523e-23
5.63985e-24
-1.40421e-26
7.26931e-23
-3.59023e-24
-3.2205e-24
-1.17683e-22
-3.45574e-25
5.11849e-23
4.0558e-24
1.16857e-22
-1.08706e-25
1.18566e-23
1.63837e-24
1.65261e-22
1.05665e-23
1.90168e-23
7.53525e-24
1.40679e-23
1.50007e-24
1.06065e-22
1.18219e-23
1.37112e-22
1.07481e-23
8.28555e-23
6.77437e-24
1.50799e-22
3.3574e-24
1.00909e-22
3.21778e-24
1.35679e-23
6.89703e-24
1.13439e-22
9.71809e-24
1.39855e-22
7.54341e-24
-5.92055e-24
1.20255e-23
-3.10918e-25
1.00872e-23
8.56105e-23
4.05732e-25
-6.7468e-23
1.52587e-24
6.74451e-23
2.84269e-24
3.54843e-23
-1.27448e-24
1.33973e-22
3.73373e-24
9.65813e-23
-4.1429e-24
-6.56738e-25
-1.21791e-23
-2.59846e-23
-1.22658e-23
-1.26102e-23
-7.19138e-24
3.30065e-23
-3.29299e-24
4.75219e-23
-6.56789e-24
2.5563e-23
-2.69033e-24
5.32908e-23
-3.30698e-24
-4.90219e-23
-1.37881e-25
-2.80062e-23
-1.35426e-24
2.71549e-24
4.84833e-25
-1.423e-23
-2.0927e-24
-9.26925e-23
-2.32471e-25
2.17113e-23
-2.24137e-25
-3.75158e-23
4.46579e-24
-2.95626e-23
-9.49186e-25
-2.5527e-23
-3.95057e-24
-1.09838e-22
-2.22739e-24
-9.97174e-23
-1.07993e-23
-1.035e-23
-1.42469e-23
5.81161e-24
-1.66988e-23
-1.92374e-23
-1.3482e-23
1.34025e-23
-1.71472e-23
1.52386e-23
-9.44387e-24
9.3488e-23
-1.34146e-23
4.70419e-23
6.38455e-23
-2.23693e-24
-1.01189e-23
-4.63285e-24
-1.9468e-24
-1.55259e-22
-9.54886e-25
3.44409e-23
3.69167e-24
8.21331e-23
-6.56248e-25
-1.71717e-23
1.8208e-24
1.55168e-22
1.0183e-23
7.37915e-23
8.42801e-24
1.88045e-23
1.98106e-24
1.55856e-22
1.05291e-23
1.28375e-22
1.03682e-23
1.21365e-22
7.12343e-24
1.46897e-22
2.00053e-24
1.03923e-22
2.9506e-24
1.7528e-23
7.54039e-24
1.13707e-22
8.35014e-24
1.08678e-22
8.24114e-24
5.51655e-23
1.16726e-23
2.50072e-23
9.57475e-24
1.52713e-22
1.0479e-24
-5.76657e-23
2.23083e-24
6.98138e-23
3.7507e-24
5.79564e-24
-1.76951e-24
1.05314e-22
2.65679e-24
8.92874e-23
-5.08831e-24
5.99307e-24
-1.20079e-23
-2.17495e-23
-1.18323e-23
-1.45415e-23
-6.89443e-24
2.56119e-23
-3.45747e-24
-2.62585e-23
-6.6599e-24
3.17287e-23
-3.05749e-24
8.32027e-23
-3.42046e-24
-6.82287e-23
2.89951e-25
-5.3037e-24
-1.67432e-24
-4.14159e-24
-8.03355e-25
-1.48659e-23
-2.96186e-25
-8.97823e-23
-1.11166e-24
-4.05015e-23
6.09889e-25
-3.65404e-23
5.19546e-24
-2.69782e-23
-1.54646e-24
-5.22046e-23
-3.17841e-24
-1.08541e-22
-7.28292e-25
-1.0752e-22
-1.12869e-23
-5.85481e-23
-1.32339e-23
1.46902e-23
-1.61012e-23
-1.81414e-23
-1.29228e-23
4.7378e-23
-1.68302e-23
-1.03877e-23
-9.18399e-24
1.17397e-22
-1.37276e-23
4.73288e-23
6.17916e-23
-2.98412e-24
-5.32703e-24
-2.90359e-24
-1.31628e-24
-9.54079e-23
1.16561e-26
2.90402e-23
3.00801e-24
1.8206e-23
3.72813e-25
-1.58591e-23
1.08595e-24
1.44506e-22
9.93403e-24
6.44156e-23
9.8353e-24
2.22044e-23
2.14273e-24
1.06779e-22
1.17092e-23
1.03424e-22
1.00473e-23
5.94422e-23
6.67911e-24
1.41885e-22
1.81053e-24
1.04873e-22
3.7112e-24
2.28736e-23
7.14409e-24
8.3191e-23
8.2165e-24
1.15175e-22
7.37433e-24
2.19557e-23
1.26305e-23
1.34575e-23
8.20626e-24
1.38033e-22
1.37278e-24
-4.81394e-23
2.97941e-24
6.80107e-23
4.34541e-24
3.19175e-24
-2.08377e-24
4.84223e-23
1.91064e-24
8.11545e-23
-5.75692e-24
-2.45675e-23
-1.20405e-23
-1.85978e-23
-1.14304e-23
4.55911e-23
-7.49117e-24
5.17797e-23
-2.66587e-24
6.92849e-25
-6.40945e-24
3.45167e-23
-4.04371e-24
4.30508e-23
-3.7846e-24
-7.167e-23
7.74647e-25
-1.47829e-23
-1.08066e-24
-8.65726e-24
-1.95799e-24
-1.34521e-23
-5.43185e-25
-5.18585e-23
-6.2316e-25
-4.22688e-23
4.74258e-25
-3.56957e-23
5.19848e-24
-2.69164e-23
-2.08464e-24
-4.1891e-23
-4.7575e-24
-4.50625e-23
-7.08091e-26
-2.29739e-23
-1.02879e-23
-1.21605e-23
-1.31348e-23
2.36292e-23
-1.51215e-23
-1.81217e-23
-1.29145e-23
4.64971e-23
-1.6208e-23
8.48715e-25
-9.97224e-24
1.13793e-22
-1.32068e-23
4.63731e-23
2.38264e-23
-2.49999e-24
2.91913e-23
-9.88183e-25
-9.61476e-25
-9.46089e-23
2.31084e-25
2.70415e-23
3.1008e-24
1.62722e-23
9.22472e-25
-4.97832e-23
1.87436e-24
7.06146e-23
1.02913e-23
5.59985e-23
1.02602e-23
2.46241e-23
2.06551e-24
8.79535e-23
1.14584e-23
1.27328e-22
1.02559e-23
1.23422e-22
5.8631e-24
1.06208e-22
1.589e-24
1.09813e-22
3.31652e-24
6.32501e-23
7.57146e-24
8.47372e-23
7.40552e-24
6.36029e-23
7.28172e-24
5.5072e-23
1.3273e-23
8.42249e-25
7.18474e-24
1.35813e-22
1.52557e-24
-7.61674e-24
3.2981e-24
6.42082e-23
4.18547e-24
-3.72218e-23
-1.69778e-24
5.33148e-23
8.93822e-25
4.0812e-23
-5.83357e-24
-5.44538e-23
-1.12816e-23
-2.86874e-23
-1.18903e-23
7.99689e-23
-8.06133e-24
8.41829e-23
-2.09355e-24
-4.52568e-24
-6.77413e-24
2.81097e-24
-4.47105e-24
3.04156e-24
-4.08774e-24
-7.65751e-23
1.87594e-24
3.42306e-23
-1.48691e-24
-7.01143e-23
-1.91599e-24
5.19372e-23
-8.01506e-25
-4.70327e-23
1.28083e-26
-6.76825e-24
-2.36491e-26
-3.42193e-23
5.71283e-24
1.76362e-24
-1.46017e-24
-3.43053e-23
-4.22504e-24
-7.94014e-23
-1.4614e-25
3.53806e-23
-9.62084e-24
-3.34302e-25
-1.44437e-23
3.10125e-23
-1.46078e-23
7.43662e-23
-1.29058e-23
8.21295e-23
-1.58602e-23
9.89608e-24
-1.03476e-23
1.07331e-22
-1.36005e-23
4.87079e-23
-1.35571e-23
-3.73448e-24
3.14178e-23
-4.93095e-25
-8.4478e-26
-8.81288e-24
-3.53426e-25
2.70156e-23
3.05254e-24
4.54694e-23
8.51554e-25
-4.88157e-23
1.9456e-24
1.20278e-22
1.04816e-23
1.09855e-22
1.01475e-23
2.2535e-23
2.54158e-24
7.21866e-23
1.2173e-23
1.20186e-22
1.00585e-23
6.42301e-23
6.19201e-24
6.77529e-23
1.26935e-24
1.51967e-22
2.81873e-24
1.06643e-22
7.17822e-24
8.73028e-23
7.44746e-24
1.26776e-22
6.43226e-24
5.17161e-23
1.45272e-23
5.03681e-23
6.5731e-24
1.11281e-22
1.25938e-24
-9.94892e-25
2.74885e-24
4.62898e-23
4.9549e-24
-4.1698e-23
-2.14795e-24
1.82345e-23
3.31977e-25
3.74315e-23
-5.75513e-24
-4.73834e-23
-1.00283e-23
-2.65194e-23
-1.21402e-23
4.42426e-23
-8.8703e-24
8.19486e-23
-1.85589e-24
8.01973e-23
-7.34622e-24
4.76036e-24
-4.42405e-24
6.29053e-25
-3.95812e-24
-4.75648e-23
1.0169e-24
2.65382e-23
2.59658e-25
-1.05221e-22
-2.85016e-24
-2.75906e-24
-6.3933e-25
-4.29747e-23
-1.17335e-25
-4.55135e-23
2.62684e-25
-6.99997e-23
5.66713e-24
2.71544e-23
-2.32832e-24
-5.83037e-23
-2.75866e-24
-1.51648e-23
2.48282e-25
5.44372e-24
-9.43792e-24
1.62959e-23
-1.30805e-23
3.75235e-23
-1.50431e-23
3.82672e-23
-1.30468e-23
8.04664e-23
-1.55086e-23
5.00534e-23
-1.02868e-23
1.03357e-22
-1.36129e-23
1.04412e-23
-9.26725e-24
-4.34099e-24
3.6092e-23
-1.32795e-24
-2.79228e-26
1.02442e-22
-8.40334e-25
3.05118e-23
2.7444e-24
7.87834e-23
2.01073e-24
-5.13535e-23
2.65913e-24
1.67538e-22
1.03817e-23
9.69703e-23
1.07376e-23
2.50671e-23
3.18983e-24
5.59096e-23
1.16506e-23
8.04349e-23
1.03628e-23
6.99956e-23
7.11164e-24
6.82111e-23
8.46617e-25
1.5726e-22
1.44278e-24
1.11572e-22
7.52198e-24
8.53972e-23
7.01039e-24
9.30111e-23
6.00925e-24
1.3275e-23
1.47009e-23
9.95404e-23
6.24586e-24
7.81136e-23
1.04895e-24
-3.03998e-23
2.50618e-24
4.23688e-23
5.42123e-24
1.73666e-23
-2.28228e-24
2.47471e-23
-2.26638e-25
3.81442e-23
-5.6983e-24
-4.11046e-23
-9.16259e-24
1.04761e-23
-1.1944e-23
4.10582e-23
-8.70344e-24
8.08779e-23
-2.91529e-24
7.19179e-23
-8.29426e-24
-3.87256e-24
-3.87818e-24
6.11744e-23
-4.13764e-24
-5.00737e-23
3.30646e-25
1.69617e-23
1.5114e-24
-4.34892e-23
-2.74337e-24
-2.82117e-23
-9.76688e-25
-3.75983e-23
-1.93893e-25
-6.50313e-23
1.53719e-24
-8.54741e-23
4.54509e-24
-1.89268e-23
-1.12876e-24
-3.63357e-23
-2.8452e-24
-4.64352e-23
8.62149e-26
1.80163e-23
-8.95447e-24
-6.37979e-24
-1.26022e-23
4.68925e-23
-1.56258e-23
3.81424e-24
-1.34604e-23
7.9763e-23
-1.48807e-23
2.00669e-23
-1.04571e-23
6.81489e-23
-1.41472e-23
-8.14096e-23
-8.60681e-24
-3.66053e-24
-2.2431e-23
-1.69285e-24
-1.12421e-24
9.69446e-23
-1.75432e-25
2.94916e-23
1.8487e-24
1.0598e-22
2.30495e-24
5.33001e-24
2.96398e-24
1.55192e-22
1.00858e-23
8.06116e-23
1.08972e-23
8.99007e-23
2.60937e-24
7.45757e-23
1.13934e-23
7.18227e-23
1.10892e-23
8.64115e-23
6.84565e-24
3.46719e-23
1.0618e-24
1.2728e-22
4.46843e-25
5.9334e-23
7.44319e-24
8.29561e-23
6.44458e-24
9.17738e-23
6.35613e-24
-2.6329e-23
1.42629e-23
1.26301e-22
5.51105e-24
6.65183e-23
1.10456e-24
3.45955e-23
2.67103e-24
4.39546e-23
5.364e-24
1.70487e-23
-2.35222e-24
3.21539e-23
-6.71435e-25
7.12148e-23
-5.3704e-24
-3.17491e-23
-8.78526e-24
1.03986e-23
-1.19346e-23
3.94613e-23
-8.22753e-24
9.12553e-23
-3.74365e-24
6.21681e-23
-8.42426e-24
-3.21876e-24
-4.34595e-24
6.09931e-23
-4.14176e-24
-4.88066e-23
6.24303e-25
1.25072e-23
1.85903e-24
-4.25543e-23
-3.12106e-24
-8.31391e-23
-1.16207e-24
-3.43004e-23
-9.09737e-26
-1.08411e-22
1.5449e-24
-6.14936e-23
6.06386e-24
-2.56033e-23
-1.15626e-24
-1.18031e-22
-1.98401e-24
-4.6935e-23
-4.37765e-26
1.85515e-23
-8.4321e-24
-6.21706e-23
-1.22019e-23
-1.29146e-23
-1.523e-23
-2.39874e-23
-1.23815e-23
1.15785e-22
-1.53725e-23
-2.26799e-24
-1.1504e-23
7.02095e-23
-1.35321e-23
-4.23326e-23
2.2749e-23
-3.00014e-24
-1.96175e-23
-1.33496e-24
-1.67423e-24
9.57279e-23
-1.28256e-24
3.2496e-23
1.85148e-24
1.05384e-22
2.9706e-24
-3.70213e-24
2.86628e-24
1.78739e-22
1.00694e-23
9.98118e-23
1.0991e-23
9.31951e-23
2.40585e-24
5.08643e-23
1.18009e-23
6.00885e-23
1.12258e-23
8.99926e-23
6.79195e-24
3.70828e-23
7.74241e-25
9.8653e-23
3.7461e-26
5.89316e-24
7.26035e-24
7.96439e-23
5.81011e-24
9.53869e-23
7.55093e-24
2.07212e-24
1.37417e-23
1.2128e-22
5.70445e-24
6.35895e-23
4.82633e-25
-5.00512e-25
2.9064e-24
4.08938e-23
5.57266e-24
4.86147e-23
-2.26985e-24
-2.48152e-23
-1.36178e-24
3.38347e-23
-5.12394e-24
1.08256e-23
-8.43961e-24
4.60436e-23
-1.16575e-23
3.59228e-23
-8.49786e-24
8.9682e-23
-4.13474e-24
5.79562e-23
-8.71959e-24
-3.33595e-23
-4.59562e-24
6.16899e-23
-4.85048e-24
-3.31946e-23
1.17883e-24
7.05748e-23
8.72042e-25
-3.91449e-23
-2.50074e-24
-6.58521e-23
-1.76171e-24
-2.87041e-23
8.51428e-25
-2.02184e-23
9.94355e-25
-2.67453e-23
5.97648e-24
4.40263e-24
8.89374e-27
-1.10676e-22
-1.46229e-24
-4.86639e-23
-6.95428e-25
-1.86729e-23
-7.40562e-24
-5.89196e-23
-1.2685e-23
2.81437e-23
-1.41653e-23
-5.10713e-23
-1.27112e-23
1.20019e-22
-1.54331e-23
7.01139e-24
-1.17269e-23
6.97607e-23
-1.25786e-23
-3.55835e-23
2.10079e-23
-1.55657e-24
-5.12191e-23
-7.01199e-25
-2.20794e-24
6.0372e-23
-1.90943e-24
-5.00138e-24
1.84118e-24
9.70606e-23
3.29668e-24
-1.70323e-23
2.34857e-24
1.57503e-22
1.04133e-23
1.75302e-22
1.05887e-23
9.24235e-23
2.83661e-24
6.51186e-23
1.16e-23
5.21795e-23
1.20481e-23
8.85686e-23
6.35292e-24
7.27659e-24
5.34107e-26
1.2072e-22
7.50689e-25
1.16266e-23
6.93682e-24
8.05251e-23
5.47081e-24
9.5456e-23
7.71582e-24
1.50884e-23
1.32964e-23
1.02381e-22
5.16783e-24
6.59991e-23
3.50396e-25
-3.34311e-23
3.34891e-24
7.72346e-23
4.67818e-24
4.54882e-23
-1.92923e-24
-1.50977e-23
-1.17397e-24
2.9067e-23
-5.11262e-24
1.84245e-23
-8.27757e-24
8.52294e-23
-1.14785e-23
3.51939e-23
-8.77585e-24
7.35801e-23
-4.64568e-24
5.37549e-23