/*--------------------------------*- C++ -*----------------------------------*\
  =========                 |
  \\      /  F ield         | OpenFOAM: The Open Source CFD Toolbox
   \\    /   O peration     | Website:  https://openfoam.org
    \\  /    A nd           | Version:  7
     \\/     M anipulation  |
\*---------------------------------------------------------------------------*/
FoamFile
{
    version     2.0;
    format      ascii;
    class       volScalarField;
    location    "4000";
    object      nu;
}
// * * * * * * * * * * * * * * * * * * * * * * * * * * * * * * * * * * * * * //

dimensions      [0 2 -1 0 0 0 0];

internalField   nonuniform List<scalar> 
4844
(
9.06652e-06
9.0215e-06
8.9729e-06
8.88807e-06
8.84503e-06
8.79856e-06
8.74885e-06
8.69615e-06
8.64069e-06
8.58271e-06
8.52244e-06
8.71702e-06
8.67582e-06
8.6313e-06
8.58368e-06
8.53315e-06
8.47997e-06
8.42433e-06
8.36648e-06
8.30664e-06
8.24504e-06
8.1819e-06
8.55284e-06
8.51334e-06
8.47064e-06
8.42495e-06
8.37646e-06
8.32539e-06
8.27193e-06
8.21633e-06
8.1588e-06
8.09955e-06
8.03878e-06
7.97671e-06
7.91355e-06
7.84949e-06
7.78478e-06
7.68596e-06
8.39503e-06
8.35712e-06
8.31611e-06
8.27222e-06
8.22563e-06
8.17653e-06
8.12512e-06
8.07162e-06
8.01624e-06
7.95918e-06
7.90063e-06
7.84081e-06
7.77991e-06
7.71811e-06
7.65565e-06
7.56134e-06
8.24317e-06
8.20672e-06
8.1673e-06
8.12509e-06
8.08027e-06
8.03301e-06
7.98352e-06
7.93199e-06
7.87863e-06
7.82362e-06
7.76715e-06
7.70944e-06
7.65065e-06
7.59097e-06
7.53064e-06
7.44052e-06
8.06177e-06
8.02383e-06
7.98319e-06
7.94002e-06
7.89449e-06
7.84679e-06
7.79712e-06
7.74565e-06
7.69256e-06
7.63806e-06
7.58231e-06
7.52552e-06
7.46784e-06
7.4095e-06
7.3233e-06
7.92189e-06
7.88534e-06
7.84618e-06
7.80456e-06
7.76065e-06
7.71464e-06
7.6667e-06
7.617e-06
7.56573e-06
7.51307e-06
7.45919e-06
7.40427e-06
7.34848e-06
7.29201e-06
7.20947e-06
7.78677e-06
7.75153e-06
7.71375e-06
7.67359e-06
7.6312e-06
7.58678e-06
7.54047e-06
7.49244e-06
7.44288e-06
7.39195e-06
7.33983e-06
7.28668e-06
7.23266e-06
7.17798e-06
7.09885e-06
7.68753e-06
7.65611e-06
7.62209e-06
7.58562e-06
7.54683e-06
7.50588e-06
7.46294e-06
7.41816e-06
7.37172e-06
7.32377e-06
7.27448e-06
7.22401e-06
7.17253e-06
7.1202e-06
7.06719e-06
6.99126e-06
7.55998e-06
7.52964e-06
7.49677e-06
7.46153e-06
7.42403e-06
7.38443e-06
7.3429e-06
7.29957e-06
7.25461e-06
7.20819e-06
7.16044e-06
7.11154e-06
7.06164e-06
7.01089e-06
6.95948e-06
6.88655e-06
7.43643e-06
7.40709e-06
7.37532e-06
7.34123e-06
7.30496e-06
7.26663e-06
7.22642e-06
7.18446e-06
7.14092e-06
7.09593e-06
7.04965e-06
7.00223e-06
6.95383e-06
6.90458e-06
6.85468e-06
6.78456e-06
7.31664e-06
7.28826e-06
7.25752e-06
7.22452e-06
7.1894e-06
7.15228e-06
7.11332e-06
7.07266e-06
7.03045e-06
6.98681e-06
6.94192e-06
6.89591e-06
6.84892e-06
6.8011e-06
6.75264e-06
6.68516e-06
7.22547e-06
7.2004e-06
7.17293e-06
7.14315e-06
7.11118e-06
7.07715e-06
7.04118e-06
7.00341e-06
6.96398e-06
6.92302e-06
6.88067e-06
6.8371e-06
6.79242e-06
6.74677e-06
6.70031e-06
6.6532e-06
6.58822e-06
7.11179e-06
7.08751e-06
7.06088e-06
7.03203e-06
7.00104e-06
6.96804e-06
6.93316e-06
6.89651e-06
6.85824e-06
6.81848e-06
6.77736e-06
6.73502e-06
6.69161e-06
6.64725e-06
6.60208e-06
6.55626e-06
6.49363e-06
7.02249e-06
7.00131e-06
6.97777e-06
6.95196e-06
6.92397e-06
6.89391e-06
6.86189e-06
6.82804e-06
6.79246e-06
6.7553e-06
6.71666e-06
6.67671e-06
6.63556e-06
6.59334e-06
6.5502e-06
6.50626e-06
6.46168e-06
6.40126e-06
6.9144e-06
6.89386e-06
6.87103e-06
6.84598e-06
6.81882e-06
6.78964e-06
6.75855e-06
6.72567e-06
6.69111e-06
6.65499e-06
6.61744e-06
6.5786e-06
6.53857e-06
6.49751e-06
6.45552e-06
6.41275e-06
6.36935e-06
6.31102e-06
6.80921e-06
6.78928e-06
6.76711e-06
6.7428e-06
6.71642e-06
6.68807e-06
6.65787e-06
6.62592e-06
6.59232e-06
6.5572e-06
6.52068e-06
6.48289e-06
6.44394e-06
6.40397e-06
6.3631e-06
6.32144e-06
6.27916e-06
6.22281e-06
6.70676e-06
6.68741e-06
6.66588e-06
6.64226e-06
6.61663e-06
6.58908e-06
6.55971e-06
6.52864e-06
6.49597e-06
6.4618e-06
6.42627e-06
6.38948e-06
6.35156e-06
6.31263e-06
6.27281e-06
6.23222e-06
6.19102e-06
6.13654e-06
6.60693e-06
6.58813e-06
6.5672e-06
6.54424e-06
6.51931e-06
6.49252e-06
6.46396e-06
6.43373e-06
6.40193e-06
6.36868e-06
6.33408e-06
6.29825e-06
6.26131e-06
6.22338e-06
6.18457e-06
6.145e-06
6.10483e-06
6.05212e-06
6.50957e-06
6.49129e-06
6.47094e-06
6.4486e-06
6.42435e-06
6.39828e-06
6.37049e-06
6.34106e-06
6.3101e-06
6.27772e-06
6.24402e-06
6.2091e-06
6.1731e-06
6.13612e-06
6.09828e-06
6.05969e-06
6.0205e-06
5.96947e-06
6.41456e-06
6.39678e-06
6.37698e-06
6.35524e-06
6.33163e-06
6.30626e-06
6.2792e-06
6.25053e-06
6.22038e-06
6.18882e-06
6.15598e-06
6.12194e-06
6.08684e-06
6.05077e-06
6.01386e-06
5.9762e-06
5.93796e-06
5.88852e-06
6.32179e-06
6.30448e-06
6.28521e-06
6.26404e-06
6.24106e-06
6.21634e-06
6.18997e-06
6.16204e-06
6.13266e-06
6.10189e-06
6.06987e-06
6.03667e-06
6.00243e-06
5.96724e-06
5.93121e-06
5.89446e-06
5.85712e-06
5.80919e-06
6.23116e-06
6.2143e-06
6.19553e-06
6.17491e-06
6.15252e-06
6.12843e-06
6.10273e-06
6.0755e-06
6.04685e-06
6.01685e-06
5.98561e-06
5.95322e-06
5.9198e-06
5.88545e-06
5.85027e-06
5.81438e-06
5.7779e-06
5.73142e-06
6.14256e-06
6.12613e-06
6.10784e-06
6.08775e-06
6.06592e-06
6.04243e-06
6.01737e-06
5.99082e-06
5.96287e-06
5.9336e-06
5.90312e-06
5.8715e-06
5.83888e-06
5.80532e-06
5.77096e-06
5.7359e-06
5.70026e-06
5.65515e-06
6.0559e-06
6.03989e-06
6.02206e-06
6.00246e-06
5.98118e-06
5.95827e-06
5.93383e-06
5.90792e-06
5.88064e-06
5.85207e-06
5.82231e-06
5.79144e-06
5.75958e-06
5.7268e-06
5.69322e-06
5.65895e-06
5.62411e-06
5.58032e-06
5.97109e-06
5.95548e-06
5.93809e-06
5.91898e-06
5.89821e-06
5.87587e-06
5.85201e-06
5.82672e-06
5.80008e-06
5.77219e-06
5.74313e-06
5.71297e-06
5.68183e-06
5.6498e-06
5.61698e-06
5.58348e-06
5.54942e-06
5.50687e-06
5.88806e-06
5.87283e-06
5.85586e-06
5.83722e-06
5.81695e-06
5.79513e-06
5.77185e-06
5.74715e-06
5.72114e-06
5.69389e-06
5.6655e-06
5.63603e-06
5.60559e-06
5.57427e-06
5.54219e-06
5.50942e-06
5.47611e-06
5.43475e-06
5.80673e-06
5.79186e-06
5.7753e-06
5.7571e-06
5.73731e-06
5.71601e-06
5.69327e-06
5.66915e-06
5.64374e-06
5.61711e-06
5.58936e-06
5.56055e-06
5.53079e-06
5.50016e-06
5.46878e-06
5.43673e-06
5.40413e-06
5.36391e-06
5.72702e-06
5.71251e-06
5.69633e-06
5.67856e-06
5.65924e-06
5.63843e-06
5.61621e-06
5.59264e-06
5.56781e-06
5.54178e-06
5.51465e-06
5.48648e-06
5.45737e-06
5.42741e-06
5.3967e-06
5.36534e-06
5.33344e-06
5.29431e-06
5.66138e-06
5.64887e-06
5.6347e-06
5.6189e-06
5.60153e-06
5.58266e-06
5.56233e-06
5.54061e-06
5.51758e-06
5.4933e-06
5.46785e-06
5.44131e-06
5.41376e-06
5.38528e-06
5.35597e-06
5.32591e-06
5.29522e-06
5.26399e-06
5.22589e-06
5.58444e-06
5.57222e-06
5.55837e-06
5.54293e-06
5.52597e-06
5.50752e-06
5.48765e-06
5.46642e-06
5.4439e-06
5.42016e-06
5.39527e-06
5.3693e-06
5.34235e-06
5.31447e-06
5.28578e-06
5.25636e-06
5.22631e-06
5.19573e-06
5.15863e-06
5.51926e-06
5.50894e-06
5.497e-06
5.48346e-06
5.46838e-06
5.4518e-06
5.43376e-06
5.41433e-06
5.39357e-06
5.37155e-06
5.34833e-06
5.32397e-06
5.29856e-06
5.27218e-06
5.2449e-06
5.21681e-06
5.188e-06
5.15857e-06
5.12861e-06
5.09247e-06
5.44492e-06
5.43484e-06
5.42316e-06
5.40993e-06
5.39518e-06
5.37897e-06
5.36133e-06
5.34234e-06
5.32203e-06
5.30048e-06
5.27776e-06
5.25392e-06
5.22905e-06
5.20323e-06
5.17651e-06
5.149e-06
5.12079e-06
5.09196e-06
5.06261e-06
5.02738e-06
5.37193e-06
5.36207e-06
5.35066e-06
5.33772e-06
5.3233e-06
5.30744e-06
5.29019e-06
5.2716e-06
5.25173e-06
5.23065e-06
5.20841e-06
5.18507e-06
5.16073e-06
5.13544e-06
5.10927e-06
5.08233e-06
5.05469e-06
5.02644e-06
4.99768e-06
4.96333e-06
5.30023e-06
5.29059e-06
5.27943e-06
5.26678e-06
5.25267e-06
5.23716e-06
5.22028e-06
5.20209e-06
5.18264e-06
5.16201e-06
5.14023e-06
5.11738e-06
5.09354e-06
5.06877e-06
5.04314e-06
5.01674e-06
4.98966e-06
4.96197e-06
4.93378e-06
4.90028e-06
5.22978e-06
5.22035e-06
5.20944e-06
5.19706e-06
5.18326e-06
5.16808e-06
5.15156e-06
5.13375e-06
5.11471e-06
5.09451e-06
5.07319e-06
5.05081e-06
5.02746e-06
5.00319e-06
4.97807e-06
4.95221e-06
4.92566e-06
4.89852e-06
4.87089e-06
4.83821e-06
5.16053e-06
5.15131e-06
5.14063e-06
5.12851e-06
5.11501e-06
5.10015e-06
5.08398e-06
5.06654e-06
5.0479e-06
5.02812e-06
5.00724e-06
4.98532e-06
4.96244e-06
4.93865e-06
4.91404e-06
4.88869e-06
4.86267e-06
4.83606e-06
4.80896e-06
4.77707e-06
5.09244e-06
5.08341e-06
5.07296e-06
5.0611e-06
5.04788e-06
5.03333e-06
5.0175e-06
5.00043e-06
4.98218e-06
4.9628e-06
4.94234e-06
4.92087e-06
4.89844e-06
4.87513e-06
4.85101e-06
4.82616e-06
4.80065e-06
4.77456e-06
4.74798e-06
4.71684e-06
5.02547e-06
5.01664e-06
5.0064e-06
4.99479e-06
4.98185e-06
4.96759e-06
4.95209e-06
4.93538e-06
4.9175e-06
4.89851e-06
4.87846e-06
4.85742e-06
4.83544e-06
4.8126e-06
4.78895e-06
4.76458e-06
4.73956e-06
4.71397e-06
4.68791e-06
4.6575e-06
4.95958e-06
4.95093e-06
4.94091e-06
4.92954e-06
4.91686e-06
4.9029e-06
4.88772e-06
4.87134e-06
4.85383e-06
4.83523e-06
4.81558e-06
4.79495e-06
4.77341e-06
4.75101e-06
4.72783e-06
4.70393e-06
4.67939e-06
4.65429e-06
4.62872e-06
4.59901e-06
4.89473e-06
4.88626e-06
4.87645e-06
4.86531e-06
4.85289e-06
4.83922e-06
4.82434e-06
4.8083e-06
4.79114e-06
4.7729e-06
4.75365e-06
4.73343e-06
4.71231e-06
4.69034e-06
4.66761e-06
4.64417e-06
4.6201e-06
4.59547e-06
4.57038e-06
4.54135e-06
4.83089e-06
4.8226e-06
4.81299e-06
4.80208e-06
4.7899e-06
4.77651e-06
4.76193e-06
4.74621e-06
4.72939e-06
4.71152e-06
4.69264e-06
4.67282e-06
4.65211e-06
4.63057e-06
4.60827e-06
4.58527e-06
4.56166e-06
4.5375e-06
4.51288e-06
4.4845e-06
4.76803e-06
4.75991e-06
4.75049e-06
4.7398e-06
4.72787e-06
4.71474e-06
4.70046e-06
4.68505e-06
4.66856e-06
4.65104e-06
4.63253e-06
4.6131e-06
4.59278e-06
4.57165e-06
4.54978e-06
4.52722e-06
4.50405e-06
4.48034e-06
4.45618e-06
4.42844e-06
4.70612e-06
4.69816e-06
4.68892e-06
4.67846e-06
4.66676e-06
4.65389e-06
4.63989e-06
4.62479e-06
4.60862e-06
4.59144e-06
4.5733e-06
4.55423e-06
4.53431e-06
4.51358e-06
4.49212e-06
4.46999e-06
4.44725e-06
4.42398e-06
4.40026e-06
4.37314e-06
4.64512e-06
4.63732e-06
4.62827e-06
4.61801e-06
4.60654e-06
4.59393e-06
4.5802e-06
4.56539e-06
4.54954e-06
4.53269e-06
4.5149e-06
4.4962e-06
4.47666e-06
4.45633e-06
4.43527e-06
4.41355e-06
4.39123e-06
4.36839e-06
4.34511e-06
4.31858e-06
4.58501e-06
4.57736e-06
4.56849e-06
4.55843e-06
4.54719e-06
4.53483e-06
4.52137e-06
4.50684e-06
4.4913e-06
4.47477e-06
4.45732e-06
4.43898e-06
4.41981e-06
4.39986e-06
4.3792e-06
4.35788e-06
4.33598e-06
4.31355e-06
4.29069e-06
4.26474e-06
4.52576e-06
4.51826e-06
4.50956e-06
4.49969e-06
4.48868e-06
4.47656e-06
4.46336e-06
4.44911e-06
4.43387e-06
4.41766e-06
4.40054e-06
4.38255e-06
4.36374e-06
4.34416e-06
4.32388e-06
4.30296e-06
4.28146e-06
4.25945e-06
4.237e-06
4.2116e-06
4.46734e-06
4.45999e-06
4.45146e-06
4.44178e-06
4.43099e-06
4.4191e-06
4.40615e-06
4.39218e-06
4.37723e-06
4.36133e-06
4.34453e-06
4.32688e-06
4.30842e-06
4.28921e-06
4.26931e-06
4.24877e-06
4.22766e-06
4.20605e-06
4.18401e-06
4.15915e-06
4.40973e-06
4.40253e-06
4.39417e-06
4.38467e-06
4.37409e-06
4.36243e-06
4.34973e-06
4.33602e-06
4.32135e-06
4.30576e-06
4.28927e-06
4.27196e-06
4.25384e-06
4.23499e-06
4.21545e-06
4.1953e-06
4.17457e-06
4.15335e-06
4.1317e-06
4.10737e-06
4.35292e-06
4.34585e-06
4.33765e-06
4.32834e-06
4.31795e-06
4.30652e-06
4.29406e-06
4.28062e-06
4.26622e-06
4.25092e-06
4.23475e-06
4.21775e-06
4.19998e-06
4.18147e-06
4.1623e-06
4.14251e-06
4.12216e-06
4.10132e-06
4.08006e-06
4.05623e-06
4.29686e-06
4.28993e-06
4.28189e-06
4.27276e-06
4.26257e-06
4.25135e-06
4.23913e-06
4.22594e-06
4.21182e-06
4.1968e-06
4.18093e-06
4.16426e-06
4.14681e-06
4.12865e-06
4.10982e-06
4.09039e-06
4.07041e-06
4.04994e-06
4.02906e-06
4.00574e-06
4.24155e-06
4.23475e-06
4.22686e-06
4.21791e-06
4.20792e-06
4.19691e-06
4.18492e-06
4.17198e-06
4.15812e-06
4.14338e-06
4.12781e-06
4.11144e-06
4.09432e-06
4.07649e-06
4.05801e-06
4.03893e-06
4.01931e-06
3.99921e-06
3.9787e-06
3.95586e-06
4.18697e-06
4.1803e-06
4.17256e-06
4.16378e-06
4.15397e-06
4.14317e-06
4.13141e-06
4.11871e-06
4.1051e-06
4.09065e-06
4.07536e-06
4.0593e-06
4.04249e-06
4.02499e-06
4.00684e-06
3.98811e-06
3.96885e-06
3.9491e-06
3.92896e-06
3.90658e-06
4.13309e-06
4.12655e-06
4.11895e-06
4.11034e-06
4.10071e-06
4.09012e-06
4.07858e-06
4.06611e-06
4.05276e-06
4.03857e-06
4.02357e-06
4.00781e-06
3.99131e-06
3.97413e-06
3.95631e-06
3.93792e-06
3.919e-06
3.8996e-06
3.87982e-06
3.8579e-06
4.04813e-06
4.03773e-06
4.02641e-06
4.01418e-06
4.00108e-06
3.98715e-06
3.97243e-06
3.95695e-06
3.94076e-06
3.92389e-06
3.9064e-06
3.88833e-06
3.86975e-06
3.8507e-06
3.83127e-06
3.80979e-06
3.95002e-06
3.93636e-06
3.92191e-06
3.90671e-06
3.89082e-06
3.87426e-06
3.85708e-06
3.83934e-06
3.82109e-06
3.80238e-06
3.78329e-06
3.76225e-06
7.20958e-06
7.29211e-06
7.09897e-06
7.17809e-06
6.99139e-06
7.06731e-06
6.88667e-06
6.9596e-06
7.01099e-06
6.78468e-06
6.85479e-06
6.90469e-06
6.68529e-06
6.75275e-06
6.80121e-06
6.84901e-06
6.58835e-06
6.65332e-06
6.70042e-06
6.74687e-06
6.49376e-06
6.55638e-06
6.60218e-06
6.64735e-06
6.40139e-06
6.46181e-06
6.50637e-06
6.55031e-06
6.59344e-06
6.31115e-06
6.36948e-06
6.41287e-06
6.45564e-06
6.49761e-06
6.22294e-06
6.27929e-06
6.32156e-06
6.36321e-06
6.40408e-06
6.13667e-06
6.19115e-06
6.23234e-06
6.27292e-06
6.31274e-06
6.05225e-06
6.10495e-06
6.14512e-06
6.18468e-06
6.22349e-06
5.9696e-06
6.02062e-06
6.0598e-06
6.09839e-06
6.13623e-06
5.88864e-06
5.93807e-06
5.97631e-06
6.01396e-06
6.05088e-06
6.08696e-06
5.80931e-06
5.85723e-06
5.89457e-06
5.93131e-06
5.96735e-06
6.00256e-06
5.73153e-06
5.77801e-06
5.81449e-06
5.85038e-06
5.88556e-06
5.91993e-06
5.95336e-06
5.65526e-06
5.70037e-06
5.73601e-06
5.77107e-06
5.80543e-06
5.839e-06
5.87164e-06
5.90325e-06
5.58042e-06
5.62423e-06
5.65907e-06
5.69334e-06
5.72691e-06
5.75969e-06
5.79157e-06
5.82245e-06
5.85221e-06
5.50697e-06
5.54953e-06
5.5836e-06
5.6171e-06
5.64992e-06
5.68195e-06
5.7131e-06
5.74326e-06
5.77233e-06
5.80022e-06
5.43485e-06
5.47622e-06
5.50954e-06
5.54231e-06
5.57439e-06
5.60571e-06
5.63615e-06
5.66562e-06
5.69403e-06
5.72128e-06
5.36401e-06
5.40424e-06
5.43684e-06
5.4689e-06
5.50028e-06
5.5309e-06
5.56067e-06
5.58948e-06
5.61724e-06
5.64387e-06
5.29441e-06
5.33355e-06
5.36546e-06
5.39682e-06
5.42753e-06
5.45748e-06
5.48659e-06
5.51476e-06
5.54191e-06
5.56794e-06
5.22599e-06
5.26409e-06
5.29533e-06
5.32603e-06
5.35608e-06
5.38539e-06
5.41387e-06
5.44143e-06
5.46797e-06
5.49342e-06
5.15872e-06
5.19583e-06
5.22642e-06
5.25648e-06
5.2859e-06
5.31458e-06
5.34245e-06
5.36941e-06
5.39539e-06
5.42028e-06
5.09257e-06
5.12872e-06
5.15867e-06
5.18811e-06
5.21692e-06
5.245e-06
5.27228e-06
5.29868e-06
5.32409e-06
5.34844e-06
5.02748e-06
5.06272e-06
5.09206e-06
5.1209e-06
5.14912e-06
5.17661e-06
5.20333e-06
5.22917e-06
5.25404e-06
5.27788e-06
4.96343e-06
4.99779e-06
5.02654e-06
5.0548e-06
5.08244e-06
5.10938e-06
5.13554e-06
5.16084e-06
5.1852e-06
5.20853e-06
4.90039e-06
4.93389e-06
4.96208e-06
4.98977e-06
5.01686e-06
5.04325e-06
5.06888e-06
5.09366e-06
5.11751e-06
5.14035e-06
4.83831e-06
4.871e-06
4.89864e-06
4.92578e-06
4.95232e-06
4.97819e-06
5.0033e-06
5.02757e-06
5.05093e-06
5.07331e-06
4.77717e-06
4.80908e-06
4.83618e-06
4.86279e-06
4.88881e-06
4.91416e-06
4.93877e-06
4.96256e-06
4.98544e-06
5.00736e-06
4.71695e-06
4.7481e-06
4.77467e-06
4.80076e-06
4.82628e-06
4.85114e-06
4.87526e-06
4.89857e-06
4.92099e-06
4.94247e-06
7.20959e-06
7.09898e-06
6.99139e-06
6.88668e-06
6.78469e-06
6.6853e-06
6.58836e-06
6.49377e-06
6.4014e-06
6.31116e-06
6.22295e-06
6.13668e-06
6.05225e-06
5.9696e-06
5.88864e-06
5.80931e-06
5.73154e-06
5.65527e-06
5.58043e-06
5.50697e-06
5.43485e-06
5.36401e-06
5.29441e-06
5.22599e-06
5.15872e-06
5.09257e-06
5.02748e-06
4.96343e-06
4.90038e-06
4.8383e-06
4.77716e-06
4.71694e-06
7.29214e-06
7.17811e-06
7.06733e-06
6.95962e-06
6.85482e-06
6.75277e-06
6.65334e-06
6.5564e-06
6.46182e-06
6.36949e-06
6.27931e-06
6.19116e-06
6.10497e-06
6.02064e-06
5.93809e-06
5.85724e-06
5.77803e-06
5.70038e-06
5.62424e-06
5.54954e-06
5.47622e-06
5.40424e-06
5.33355e-06
5.26409e-06
5.19582e-06
5.12871e-06
5.0627e-06
4.99776e-06
4.93387e-06
4.87097e-06
4.80905e-06
4.74807e-06
4.688e-06
7.3486e-06
7.23279e-06
7.12033e-06
7.01103e-06
6.90472e-06
6.80124e-06
6.70045e-06
6.60221e-06
6.5064e-06
6.41289e-06
6.32159e-06
6.23237e-06
6.14515e-06
6.05983e-06
5.97634e-06
5.89458e-06
5.8145e-06
5.73602e-06
5.65908e-06
5.5836e-06
5.50954e-06
5.43684e-06
5.36545e-06
5.29532e-06
5.22641e-06
5.15866e-06
5.09205e-06
5.02653e-06
4.96206e-06
4.89861e-06
4.83615e-06
4.77464e-06
4.71406e-06
4.65438e-06
4.59556e-06
4.53758e-06
4.48042e-06
4.42406e-06
7.40439e-06
7.28681e-06
7.17267e-06
7.06178e-06
6.95397e-06
6.84906e-06
6.74691e-06
6.64738e-06
6.55034e-06
6.45566e-06
6.36323e-06
6.27295e-06
6.18471e-06
6.09842e-06
6.01399e-06
5.93134e-06
5.8504e-06
5.77109e-06
5.69334e-06
5.6171e-06
5.5423e-06
5.46889e-06
5.39681e-06
5.32602e-06
5.25646e-06
5.1881e-06
5.12088e-06
5.05478e-06
4.98975e-06
4.92575e-06
4.86276e-06
4.80074e-06
4.73965e-06
4.67948e-06
4.62019e-06
4.56175e-06
4.50414e-06
4.44734e-06
7.45931e-06
7.33996e-06
7.22415e-06
7.11168e-06
7.00237e-06
6.89605e-06
6.79255e-06
6.69174e-06
6.59348e-06
6.49764e-06
6.40411e-06
6.31277e-06
6.22352e-06
6.13626e-06
6.0509e-06
5.96737e-06
5.88557e-06
5.80545e-06
5.72691e-06
5.64991e-06
5.57439e-06
5.50027e-06
5.42752e-06
5.35607e-06
5.28588e-06
5.2169e-06
5.1491e-06
5.08242e-06
5.01684e-06
4.9523e-06
4.88879e-06
4.82626e-06
4.76468e-06
4.70402e-06
4.64426e-06
4.58536e-06
4.52731e-06
4.47008e-06
7.51319e-06
7.39208e-06
7.27461e-06
7.16058e-06
7.04978e-06
6.94205e-06
6.83723e-06
6.73516e-06
6.6357e-06
6.53871e-06
6.44408e-06
6.35169e-06
6.26144e-06
6.17323e-06
6.08696e-06
6.00255e-06
5.91992e-06
5.83899e-06
5.75968e-06
5.68194e-06
5.6057e-06
5.5309e-06
5.45748e-06
5.38539e-06
5.31458e-06
5.245e-06
5.17661e-06
5.10937e-06
5.04324e-06
4.97817e-06
4.91414e-06
4.85111e-06
4.78905e-06
4.72792e-06
4.66771e-06
4.60837e-06
4.54988e-06
4.49222e-06
4.43537e-06
7.56585e-06
7.44302e-06
7.32391e-06
7.20833e-06
7.09607e-06
6.98696e-06
6.88082e-06
6.7775e-06
6.67684e-06
6.57872e-06
6.48301e-06
6.3896e-06
6.29837e-06
6.20922e-06
6.12206e-06
6.03679e-06
5.95333e-06
5.87161e-06
5.79155e-06
5.71308e-06
5.63613e-06
5.56066e-06
5.48659e-06
5.41387e-06
5.34245e-06
5.27228e-06
5.20333e-06
5.13553e-06
5.06887e-06
5.00328e-06
4.93875e-06
4.87523e-06
4.8127e-06
4.75111e-06
4.69044e-06
4.63067e-06
4.57176e-06
4.51369e-06
4.45643e-06
7.61712e-06
7.49257e-06
7.37186e-06
7.25476e-06
7.14107e-06
7.0306e-06
6.92317e-06
6.81862e-06
6.71679e-06
6.61757e-06
6.5208e-06
6.42638e-06
6.3342e-06
6.24413e-06
6.15608e-06
6.06997e-06
5.98571e-06
5.90321e-06
5.82241e-06
5.74323e-06
5.6656e-06
5.58946e-06
5.51475e-06
5.44142e-06
5.36941e-06
5.29867e-06
5.22916e-06
5.16083e-06
5.09365e-06
5.02756e-06
4.96254e-06
4.89854e-06
4.83555e-06
4.77351e-06
4.71241e-06
4.65221e-06
4.59289e-06
4.53441e-06
4.47677e-06
7.66681e-06
7.54059e-06
7.4183e-06
7.29972e-06
7.18462e-06
7.07281e-06
6.96412e-06
6.85837e-06
6.75542e-06
6.65511e-06
6.55731e-06
6.46191e-06
6.36879e-06
6.27782e-06
6.18893e-06
6.102e-06
6.01695e-06
5.9337e-06
5.85218e-06
5.7723e-06
5.69401e-06
5.61723e-06
5.5419e-06
5.46797e-06
5.39538e-06
5.32408e-06
5.25403e-06
5.18518e-06
5.11749e-06
5.05092e-06
4.98542e-06
4.92097e-06
4.85753e-06
4.79506e-06
4.73353e-06
4.67293e-06
4.6132e-06
4.55434e-06
4.49631e-06
7.71476e-06
7.58691e-06
7.46308e-06
7.34304e-06
7.22657e-06
7.11346e-06
7.00354e-06
6.89663e-06
6.79258e-06
6.69122e-06
6.59243e-06
6.49607e-06
6.40204e-06
6.31021e-06
6.22048e-06
6.13276e-06
6.04696e-06
5.96298e-06
5.88075e-06
5.8002e-06
5.72126e-06
5.64386e-06
5.56793e-06
5.49343e-06
5.42028e-06
5.34845e-06
5.27788e-06
5.20852e-06
5.14034e-06
5.0733e-06
5.00734e-06
4.94245e-06
4.87857e-06
4.81569e-06
4.75376e-06
4.69276e-06
4.63265e-06
4.57341e-06
4.51501e-06
7.76078e-06
7.63135e-06
7.50603e-06
7.38458e-06
7.26678e-06
7.15242e-06
7.04131e-06
6.93327e-06
6.82815e-06
6.72578e-06
6.62602e-06
6.52875e-06
6.43384e-06
6.34117e-06
6.25065e-06
6.16216e-06
6.07562e-06
5.99094e-06
5.90804e-06
5.82684e-06
5.74728e-06
5.66928e-06
5.59278e-06
5.51771e-06
5.44403e-06
5.37168e-06
5.30061e-06
5.23077e-06
5.16212e-06
5.09462e-06
5.02823e-06
4.96291e-06
4.89862e-06
4.83534e-06
4.77301e-06
4.71163e-06
4.65115e-06
4.59156e-06
4.53281e-06
7.67373e-06
7.54698e-06
7.42418e-06
7.30511e-06
7.18954e-06
7.07729e-06
6.96817e-06
6.86201e-06
6.75866e-06
6.65798e-06
6.55982e-06
6.46407e-06
6.3706e-06
6.27931e-06
6.19009e-06
6.10285e-06
6.0175e-06
5.93395e-06
5.85214e-06
5.77197e-06
5.6934e-06
5.61635e-06
5.54075e-06
5.46656e-06
5.39371e-06
5.32216e-06
5.25186e-06
5.18276e-06
5.11483e-06
5.04802e-06
4.9823e-06
4.91762e-06
4.85395e-06
4.79126e-06
4.72951e-06
4.66868e-06
4.60874e-06
4.54967e-06
7.58578e-06
7.46169e-06
7.34139e-06
7.22468e-06
7.11134e-06
7.00118e-06
6.89405e-06
6.78977e-06
6.6882e-06
6.5892e-06
6.49264e-06
6.3984e-06
6.30637e-06
6.21646e-06
6.12855e-06
6.04256e-06
5.9584e-06
5.87599e-06
5.79526e-06
5.71615e-06
5.63857e-06
5.56247e-06
5.48779e-06
5.41447e-06
5.34247e-06
5.27173e-06
5.20221e-06
5.13387e-06
5.06667e-06
5.00056e-06
4.9355e-06
4.87147e-06
4.80843e-06
4.74634e-06
4.68517e-06
4.62491e-06
4.56552e-06
7.62227e-06
7.49696e-06
7.3755e-06
7.25769e-06
7.14332e-06
7.03219e-06
6.92412e-06
6.81896e-06
6.71655e-06
6.61676e-06
6.51944e-06
6.42448e-06
6.33177e-06
6.24119e-06
6.15265e-06
6.06605e-06
5.98131e-06
5.89835e-06
5.81709e-06
5.73745e-06
5.65938e-06
5.5828e-06
5.50765e-06
5.4339e-06
5.36147e-06
5.29032e-06
5.2204e-06
5.15168e-06
5.0841e-06
5.01763e-06
4.95222e-06
4.88785e-06
4.82448e-06
4.76207e-06
4.70059e-06
4.64002e-06
4.58033e-06
7.52984e-06
7.4073e-06
7.28846e-06
7.17311e-06
7.06106e-06
6.95212e-06
6.84614e-06
6.74294e-06
6.6424e-06
6.54437e-06
6.44873e-06
6.35537e-06
6.26418e-06
6.17505e-06
6.08789e-06
6.00261e-06
5.91912e-06
5.83736e-06
5.75724e-06
5.6787e-06
5.60168e-06
5.52611e-06
5.45193e-06
5.37911e-06
5.30757e-06
5.23729e-06
5.1682e-06
5.10027e-06
5.03346e-06
4.96773e-06
4.90304e-06
4.83935e-06
4.77664e-06
4.71488e-06
4.65403e-06
4.59407e-06
7.5602e-06
7.43665e-06
7.31686e-06
7.2006e-06
7.0877e-06
6.97795e-06
6.8712e-06
6.76727e-06
6.66603e-06
6.56735e-06
6.47108e-06
6.37712e-06
6.28536e-06
6.19568e-06
6.10799e-06
6.02221e-06
5.93824e-06
5.85601e-06
5.77545e-06
5.69648e-06
5.61904e-06
5.54308e-06
5.46852e-06
5.39533e-06
5.32344e-06
5.25281e-06
5.18339e-06
5.11514e-06
5.04801e-06
4.98198e-06
4.91699e-06
4.85302e-06
4.79004e-06
4.72801e-06
4.66689e-06
4.60668e-06
7.46344e-06
7.34277e-06
7.22569e-06
7.112e-06
7.00151e-06
6.89405e-06
6.78945e-06
6.68758e-06
6.58828e-06
6.49144e-06
6.39693e-06
6.30464e-06
6.21446e-06
6.12629e-06
6.04004e-06
5.95564e-06
5.87299e-06
5.79202e-06
5.71265e-06
5.63484e-06
5.55851e-06
5.48361e-06
5.41008e-06
5.33786e-06
5.26692e-06
5.19719e-06
5.12865e-06
5.06124e-06
4.99493e-06
4.92968e-06
4.86545e-06
4.80221e-06
4.73993e-06
4.67858e-06
4.61813e-06
7.36609e-06
7.24826e-06
7.13386e-06
7.02269e-06
6.91459e-06
6.8094e-06
6.70695e-06
6.60711e-06
6.50974e-06
6.41473e-06
6.32195e-06
6.23132e-06
6.14271e-06
6.05606e-06
5.97125e-06
5.88822e-06
5.80688e-06
5.72717e-06
5.64902e-06
5.57236e-06
5.49715e-06
5.42331e-06
5.3508e-06
5.27957e-06
5.20958e-06
5.14077e-06
5.0731e-06
5.00654e-06
4.94105e-06
4.87658e-06
4.81312e-06
4.75062e-06
4.68906e-06
4.6284e-06
7.38671e-06
7.26822e-06
7.15318e-06
7.04142e-06
6.93275e-06
6.82702e-06
6.72406e-06
6.62373e-06
6.5259e-06
6.43044e-06
6.33725e-06
6.24621e-06
6.15722e-06
6.07019e-06
5.98504e-06
5.90167e-06
5.82001e-06
5.73998e-06
5.66153e-06
5.58458e-06
5.50908e-06
5.43498e-06
5.36221e-06
5.29074e-06
5.2205e-06
5.15145e-06
5.08356e-06
5.01678e-06
4.95107e-06
4.8864e-06
4.82273e-06
4.76004e-06
4.69829e-06
4.63745e-06
7.40455e-06
7.28548e-06
7.16989e-06
7.05761e-06
6.94846e-06
6.84225e-06
6.73885e-06
6.6381e-06
6.53986e-06
6.44403e-06
6.35047e-06
6.25908e-06
6.16976e-06
6.08241e-06
5.99694e-06
5.91327e-06
5.83133e-06
5.75104e-06
5.67233e-06
5.59514e-06
5.5194e-06
5.44506e-06
5.37207e-06
5.30037e-06
5.22992e-06
5.16067e-06
5.09258e-06
5.02561e-06
4.95972e-06
4.89487e-06
4.83103e-06
4.76816e-06
4.70625e-06
4.64525e-06
7.41954e-06
7.29998e-06
7.18393e-06
7.07122e-06
6.96164e-06
6.85505e-06
6.75127e-06
6.65016e-06
6.55159e-06
6.45543e-06
6.36156e-06
6.26987e-06
6.18027e-06
6.09265e-06
6.00692e-06
5.92301e-06
5.84083e-06
5.76032e-06
5.68139e-06
5.60398e-06
5.52804e-06
5.45351e-06
5.38033e-06
5.30845e-06
5.23782e-06
5.1684e-06
5.10015e-06
5.03301e-06
4.96697e-06
4.90197e-06
4.83798e-06
4.77497e-06
4.71292e-06
4.65178e-06
7.31166e-06
7.19524e-06
7.08217e-06
6.97226e-06
6.86535e-06
6.76127e-06
6.65987e-06
6.56102e-06
6.4646e-06
6.37048e-06
6.27856e-06
6.18873e-06
6.10089e-06
6.01496e-06
5.93085e-06
5.84847e-06
5.76777e-06
5.68867e-06
5.61109e-06
5.53499e-06
5.4603e-06
5.38697e-06
5.31494e-06
5.24417e-06
5.17461e-06
5.10622e-06
5.03896e-06
4.97279e-06
4.90767e-06
4.84356e-06
4.78044e-06
4.71828e-06
4.65704e-06
7.32045e-06
7.20377e-06
7.09043e-06
6.98027e-06
6.87312e-06
6.7688e-06
6.66719e-06
6.56813e-06
6.47151e-06
6.3772e-06
6.2851e-06
6.1951e-06
6.1071e-06
6.02101e-06
5.93675e-06
5.85423e-06
5.77339e-06
5.69415e-06
5.61645e-06
5.54022e-06
5.46541e-06
5.39196e-06
5.31983e-06
5.24895e-06
5.17929e-06
5.1108e-06
5.04344e-06
4.97717e-06
4.91196e-06
4.84777e-06
4.78456e-06
4.72231e-06
4.66099e-06
7.20947e-06
7.09596e-06
6.98562e-06
6.87831e-06
6.77384e-06
6.67208e-06
6.57289e-06
6.47613e-06
6.3817e-06
6.28948e-06
6.19936e-06
6.11125e-06
6.02505e-06
5.94069e-06
5.85808e-06
5.77715e-06
5.69782e-06
5.62003e-06
5.54372e-06
5.46883e-06
5.3953e-06
5.32309e-06
5.25214e-06
5.18241e-06
5.11386e-06
5.04644e-06
4.98011e-06
4.91483e-06
4.85058e-06
4.78731e-06
4.72501e-06
4.66363e-06
7.21232e-06
7.09872e-06
6.98831e-06
6.88091e-06
6.77637e-06
6.67454e-06
6.57528e-06
6.47846e-06
6.38396e-06
6.29167e-06
6.2015e-06
6.11333e-06
6.02709e-06
5.94267e-06
5.86001e-06
5.77903e-06
5.69965e-06
5.62182e-06
5.54547e-06
5.47054e-06
5.39697e-06
5.32472e-06
5.25374e-06
5.18397e-06
5.11538e-06
5.04793e-06
4.98157e-06
4.91626e-06
4.85198e-06
4.78869e-06
4.72636e-06
4.66495e-06
7.09873e-06
6.98832e-06
6.88091e-06
6.77637e-06
6.67454e-06
6.57528e-06
6.47846e-06
6.38396e-06
6.29168e-06
6.2015e-06
6.11334e-06
6.02709e-06
5.94268e-06
5.86002e-06
5.77903e-06
5.69966e-06
5.62183e-06
5.54547e-06
5.47054e-06
5.39697e-06
5.32472e-06
5.25374e-06
5.18397e-06
5.11538e-06
5.04792e-06
4.98156e-06
4.91626e-06
4.85198e-06
4.78869e-06
4.72636e-06
4.66495e-06
7.09596e-06
6.98563e-06
6.87831e-06
6.77384e-06
6.67209e-06
6.5729e-06
6.47615e-06
6.38172e-06
6.28949e-06
6.19937e-06
6.11126e-06
6.02507e-06
5.94071e-06
5.8581e-06
5.77716e-06
5.69783e-06
5.62003e-06
5.54372e-06
5.46883e-06
5.3953e-06
5.32309e-06
5.25214e-06
5.18241e-06
5.11385e-06
5.04643e-06
4.9801e-06
4.91483e-06
4.85057e-06
4.78731e-06
4.725e-06
4.66362e-06
7.09044e-06
6.98028e-06
6.87313e-06
6.76881e-06
6.6672e-06
6.56815e-06
6.47153e-06
6.37723e-06
6.28512e-06
6.19512e-06
6.10712e-06
6.02103e-06
5.93676e-06
5.85425e-06
5.77341e-06
5.69416e-06
5.61646e-06
5.54023e-06
5.46542e-06
5.39197e-06
5.31983e-06
5.24895e-06
5.17929e-06
5.1108e-06
5.04344e-06
4.97718e-06
4.91196e-06
4.84777e-06
4.78457e-06
4.72232e-06
4.661e-06
7.08219e-06
6.97229e-06
6.86537e-06
6.76129e-06
6.6599e-06
6.56105e-06
6.46463e-06
6.37051e-06
6.27858e-06
6.18875e-06
6.10092e-06
6.01498e-06
5.93086e-06
5.84849e-06
5.76779e-06
5.68868e-06
5.61111e-06
5.535e-06
5.46031e-06
5.38698e-06
5.31495e-06
5.24418e-06
5.17463e-06
5.10624e-06
5.03898e-06
4.9728e-06
4.90768e-06
4.84358e-06
4.78046e-06
4.71829e-06
4.65704e-06
7.07124e-06
6.96168e-06
6.85509e-06
6.75131e-06
6.6502e-06
6.55162e-06
6.45546e-06
6.36159e-06
6.2699e-06
6.18029e-06
6.09267e-06
6.00695e-06
5.92304e-06
5.84086e-06
5.76034e-06
5.68141e-06
5.604e-06
5.52806e-06
5.45353e-06
5.38035e-06
5.30847e-06
5.23784e-06
5.16842e-06
5.10017e-06
5.03303e-06
4.96699e-06
4.90199e-06
4.838e-06
4.77499e-06
4.71293e-06
4.65179e-06
7.05765e-06
6.9485e-06
6.84229e-06
6.73889e-06
6.63814e-06
6.5399e-06
6.44406e-06
6.3505e-06
6.25911e-06
6.16978e-06
6.08244e-06
5.99697e-06
5.91331e-06
5.83137e-06
5.75107e-06
5.67236e-06
5.59516e-06
5.51943e-06
5.44509e-06
5.3721e-06
5.3004e-06
5.22995e-06
5.1607e-06
5.09261e-06
5.02564e-06
4.95974e-06
4.89489e-06
4.83105e-06
4.76819e-06
4.70627e-06
4.64526e-06
7.04145e-06
6.93279e-06
6.82706e-06
6.7241e-06
6.62377e-06
6.52594e-06
6.43048e-06
6.33729e-06
6.24625e-06
6.15726e-06
6.07023e-06
5.98507e-06
5.9017e-06
5.82004e-06
5.74002e-06
5.66157e-06
5.58462e-06
5.50913e-06
5.43502e-06
5.36225e-06
5.29077e-06
5.22052e-06
5.15147e-06
5.08358e-06
5.0168e-06
4.95109e-06
4.88642e-06
4.82276e-06
4.76006e-06
4.6983e-06
4.63746e-06
7.02272e-06
6.91463e-06
6.80944e-06
6.70699e-06
6.60715e-06
6.50978e-06
6.41477e-06
6.322e-06
6.23136e-06
6.14276e-06
6.0561e-06
5.9713e-06
5.88826e-06
5.80693e-06
5.72721e-06
5.64906e-06
5.5724e-06
5.49719e-06
5.42335e-06
5.35084e-06
5.27961e-06
5.20961e-06
5.1408e-06
5.07313e-06
5.00656e-06
4.94107e-06
4.8766e-06
4.81313e-06
4.75063e-06
4.68907e-06
4.62841e-06
7.00154e-06
6.89409e-06
6.7895e-06
6.68763e-06
6.58834e-06
6.4915e-06
6.39699e-06
6.3047e-06
6.21451e-06
6.12634e-06
6.04009e-06
5.95568e-06
5.87303e-06
5.79206e-06
5.7127e-06
5.63489e-06
5.55856e-06
5.48366e-06
5.41012e-06
5.3379e-06
5.26695e-06
5.19722e-06
5.12868e-06
5.06126e-06
4.99495e-06
4.92969e-06
4.86546e-06
4.80222e-06
4.73994e-06
4.67859e-06
4.61815e-06
6.97799e-06
6.87125e-06
6.76733e-06
6.6661e-06
6.56742e-06
6.47116e-06
6.3772e-06
6.28542e-06
6.19574e-06
6.10805e-06
6.02226e-06
5.93829e-06
5.85606e-06
5.77549e-06
5.69653e-06
5.61909e-06
5.54313e-06
5.46857e-06
5.39537e-06
5.32348e-06
5.25284e-06
5.18342e-06
5.11516e-06
5.04803e-06
4.98199e-06
4.91701e-06
4.85304e-06
4.79006e-06
4.72803e-06
4.66692e-06
4.6067e-06
6.95217e-06
6.8462e-06
6.74301e-06
6.64247e-06
6.54445e-06
6.44882e-06
6.35545e-06
6.26425e-06
6.17512e-06
6.08795e-06
6.00266e-06
5.91917e-06
5.8374e-06
5.75728e-06
5.67875e-06
5.60172e-06
5.52615e-06
5.45198e-06
5.37915e-06
5.30761e-06
5.23732e-06
5.16824e-06
5.10031e-06
5.03349e-06
4.96776e-06
4.90306e-06
4.83938e-06