/*--------------------------------*- C++ -*----------------------------------*\
  =========                 |
  \\      /  F ield         | OpenFOAM: The Open Source CFD Toolbox
   \\    /   O peration     | Website:  https://openfoam.org
    \\  /    A nd           | Version:  7
     \\/     M anipulation  |
\*---------------------------------------------------------------------------*/
FoamFile
{
    version     2.0;
    format      ascii;
    class       volVectorField;
    location    "12000";
    object      U;
}
// * * * * * * * * * * * * * * * * * * * * * * * * * * * * * * * * * * * * * //

dimensions      [0 1 -1 0 0 0 0];

internalField   nonuniform List<vector> 
1762
(
(-5.62389e-19 1.17292e-18 -0.0132618)
(-2.38172e-19 1.79295e-18 -0.0133006)
(-3.77231e-19 3.18022e-19 -0.0133372)
(6.63183e-19 1.70058e-18 -0.013372)
(-3.27203e-19 1.25872e-18 -0.0134047)
(-8.27383e-19 2.91184e-19 -0.0134349)
(-3.92225e-19 1.00469e-18 -0.0134626)
(1.76086e-19 -3.0764e-19 -0.0134876)
(-6.76866e-19 4.37003e-20 -0.0135098)
(-5.04162e-19 1.56412e-18 -0.013529)
(1.24903e-18 2.43347e-18 -0.0135451)
(2.76373e-19 1.47281e-19 -0.0135581)
(-3.87746e-19 1.32425e-18 -0.0131698)
(-1.39492e-19 1.66471e-18 -0.0132087)
(-8.54101e-19 9.83237e-19 -0.0132456)
(3.69994e-19 2.29449e-18 -0.0132805)
(-2.7092e-19 1.07591e-18 -0.0133133)
(-9.12094e-19 4.00928e-19 -0.0133437)
(-5.59494e-19 1.29567e-18 -0.0133715)
(-2.44972e-19 6.91737e-19 -0.0133966)
(-6.81646e-19 3.67227e-19 -0.0134189)
(-3.44522e-19 1.37203e-18 -0.0134381)
(1.44506e-18 1.45074e-18 -0.0134543)
(2.56727e-19 -1.01549e-19 -0.0134674)
(-1.61504e-19 1.30685e-18 -0.0130766)
(-1.11904e-19 1.73466e-18 -0.0131157)
(-8.38565e-19 1.11603e-18 -0.0131527)
(-9.7779e-20 3.09433e-18 -0.0131878)
(-2.4691e-19 8.51675e-19 -0.0132207)
(-1.02665e-18 6.13744e-19 -0.0132512)
(-4.90975e-19 1.24371e-18 -0.0132792)
(-6.28385e-19 1.57552e-18 -0.0133044)
(-6.83167e-19 3.18217e-19 -0.0133267)
(-3.68674e-19 1.46083e-18 -0.0133461)
(1.59947e-18 6.58629e-19 -0.0133624)
(4.11891e-19 -5.46459e-19 -0.0133755)
(-6.98386e-20 1.46919e-18 -0.0129822)
(-1.88275e-19 1.89851e-18 -0.0130214)
(-6.09957e-19 9.88727e-19 -0.0130585)
(1.11004e-21 2.99492e-18 -0.0130938)
(-2.22457e-19 5.20772e-19 -0.0131269)
(-9.3482e-19 3.96437e-19 -0.0131575)
(-2.63666e-19 8.7268e-19 -0.0131856)
(-6.86811e-19 1.61185e-18 -0.0132109)
(-7.21269e-19 3.32035e-19 -0.0132333)
(-3.84743e-19 1.52594e-18 -0.0132528)
(1.48404e-18 7.54249e-19 -0.0132691)
(5.11409e-19 -7.6061e-19 -0.0132823)
(1.46849e-20 1.61705e-18 -0.0128864)
(6.04155e-20 1.63476e-18 -0.0129258)
(-5.46727e-19 9.9792e-19 -0.0129631)
(5.03708e-19 2.22749e-18 -0.0129985)
(-2.23294e-19 2.89501e-19 -0.0130317)
(-7.68202e-19 -1.60814e-20 -0.0130625)
(-6.66912e-20 6.06501e-19 -0.0130907)
(-5.97214e-19 1.3846e-18 -0.0131161)
(-7.30975e-19 2.84095e-19 -0.0131387)
(-3.71802e-19 1.53034e-18 -0.0131582)
(1.37064e-18 9.67099e-19 -0.0131746)
(4.87651e-19 -4.80513e-19 -0.0131878)
(5.39553e-20 1.81233e-18 -0.0127892)
(2.86285e-19 1.40747e-18 -0.0128288)
(-5.09244e-19 1.0245e-18 -0.0128663)
(9.53103e-19 1.522e-18 -0.0129019)
(-3.33031e-19 3.0145e-19 -0.0129352)
(-7.12535e-19 -2.18692e-19 -0.0129662)
(-6.9373e-20 8.14968e-19 -0.0129945)
(-5.41778e-19 1.20974e-18 -0.01302)
(-6.6189e-19 4.92371e-20 -0.0130427)
(-4.13061e-19 1.82614e-18 -0.0130623)
(1.30276e-18 1.02497e-18 -0.0130787)
(3.77366e-19 -6.51813e-20 -0.013092)
(2.73831e-19 1.78319e-18 -0.0126906)
(5.18157e-19 1.15542e-18 -0.0127304)
(-3.74472e-19 8.20981e-19 -0.0127681)
(1.39648e-18 8.56172e-19 -0.0128038)
(-4.39933e-19 4.05178e-19 -0.0128373)
(-7.09051e-19 -2.95355e-19 -0.0128684)
(-4.43576e-20 9.47082e-19 -0.0128968)
(-5.4179e-19 1.05789e-18 -0.0129225)
(-6.57536e-19 1.30371e-19 -0.0129452)
(-5.0465e-19 2.37001e-18 -0.0129649)
(1.22756e-18 1.16282e-18 -0.0129815)
(2.53271e-19 1.25905e-19 -0.0129948)
(9.43681e-19 1.11074e-18 -0.0125905)
(9.56936e-19 6.54641e-19 -0.0126304)
(-1.84131e-19 5.28644e-19 -0.0126683)
(1.74098e-18 4.03353e-19 -0.0127042)
(-3.53132e-19 2.37001e-19 -0.0127379)
(-7.79385e-19 -2.79046e-19 -0.0127691)
(1.41832e-19 7.10103e-19 -0.0127977)
(-6.29669e-19 1.23363e-18 -0.0128235)
(-7.16033e-19 5.34948e-19 -0.0128463)
(-4.9425e-19 2.51945e-18 -0.0128661)
(1.11027e-18 1.27611e-18 -0.0128827)
(1.50556e-18 4.27854e-19 -0.0124888)
(1.46369e-18 1.72081e-19 -0.012529)
(-1.82059e-19 5.26308e-19 -0.012567)
(1.75739e-18 4.47703e-19 -0.0126031)
(-5.92214e-20 -2.30385e-19 -0.012637)
(-9.90731e-19 1.70643e-20 -0.0126683)
(3.25049e-19 5.34257e-19 -0.012697)
(-5.53664e-19 1.11468e-18 -0.0127229)
(-7.78351e-19 7.86258e-19 -0.0127459)
(-4.09125e-19 2.30862e-18 -0.0127657)
(1.06974e-18 1.06171e-18 -0.0127824)
(1.75029e-18 -2.1423e-20 -0.0123855)
(1.70186e-18 9.54545e-20 -0.0124259)
(-2.20139e-19 6.95107e-19 -0.0124641)
(1.61129e-18 6.51468e-19 -0.0125004)
(2.8187e-19 -7.7073e-19 -0.0125344)
(-1.32112e-18 6.07126e-19 -0.0125659)
(5.6376e-19 4.61588e-20 -0.0125947)
(-2.52101e-19 4.47088e-19 -0.0126207)
(-7.01066e-19 7.31574e-19 -0.0126438)
(-3.73469e-19 2.16876e-18 -0.0126637)
(1.10912e-18 5.5213e-19 -0.0126805)
(1.63823e-18 -8.67669e-20 -0.0122805)
(1.86505e-18 1.79572e-19 -0.012321)
(-2.28146e-19 7.9949e-19 -0.0123595)
(1.54965e-18 6.50411e-19 -0.0123959)
(4.28324e-19 -8.8005e-19 -0.0124301)
(-1.55929e-18 9.66868e-19 -0.0124618)
(6.78604e-19 -3.64834e-19 -0.0124907)
(-1.19578e-21 2.3018e-20 -0.0125169)
(-4.97825e-19 3.77419e-19 -0.01254)
(-3.79667e-19 2.10074e-18 -0.0125601)
(1.10104e-18 2.00008e-19 -0.0125769)
(9.21819e-19 5.3396e-19 -0.0121736)
(2.0959e-18 1.42938e-19 -0.0122144)
(-1.27723e-19 7.91882e-19 -0.012253)
(1.37485e-18 8.33934e-19 -0.0122897)
(2.72605e-19 -4.58491e-19 -0.012324)
(-1.6787e-18 1.06491e-18 -0.0123558)
(3.70611e-19 1.10423e-19 -0.012385)
(1.19909e-19 -1.66111e-19 -0.0124112)
(-2.20519e-19 -1.3941e-19 -0.0124345)
(-3.53608e-19 2.01507e-18 -0.0124546)
(1.03002e-18 8.20288e-20 -0.0124715)
(2.02426e-19 1.2319e-18 -0.0120648)
(1.89246e-18 5.43808e-19 -0.0121058)
(6.04871e-20 7.00905e-19 -0.0121447)
(1.00704e-18 1.39869e-18 -0.0121815)
(2.34825e-19 -2.59916e-19 -0.012216)
(-1.80392e-18 1.21362e-18 -0.012248)
(9.00773e-21 6.53767e-19 -0.0122773)
(1.84197e-19 -4.39737e-19 -0.0123037)
(-4.56009e-20 -3.61916e-19 -0.0123271)
(-2.40617e-19 1.71148e-18 -0.0123473)
(9.42207e-19 8.98124e-20 -0.0123643)
(6.01974e-20 1.34987e-18 -0.011954)
(1.37392e-18 1.27934e-18 -0.0119952)
(1.90373e-19 6.95622e-19 -0.0120343)
(6.88387e-19 1.87611e-18 -0.0120714)
(4.06656e-19 -4.93131e-19 -0.0121061)
(-1.61062e-18 7.92172e-19 -0.0121382)
(-1.50542e-20 3.60222e-19 -0.0121677)
(2.69936e-19 -8.08017e-19 -0.0121942)
(4.44312e-20 -3.18321e-19 -0.0122177)
(-1.69375e-19 1.57863e-18 -0.012238)
(8.39182e-19 2.4628e-19 -0.0122551)
(4.47574e-19 9.14334e-19 -0.0118411)
(1.18521e-18 1.63513e-18 -0.0118826)
(2.44799e-19 7.40812e-19 -0.0119219)
(6.27647e-19 1.93301e-18 -0.0119591)
(5.8287e-19 -8.63277e-19 -0.011994)
(-1.33543e-18 1.54961e-19 -0.0120263)
(1.30534e-19 -2.2956e-19 -0.0120559)
(3.2341e-19 -9.95207e-19 -0.0120826)
(1.73934e-19 -3.13143e-19 -0.0121062)
(-1.74511e-19 1.75447e-18 -0.0121266)
(7.22574e-19 4.69209e-19 -0.0121438)
(8.60069e-19 4.12638e-19 -0.0117259)
(1.42073e-18 1.52534e-18 -0.0117676)
(3.09534e-19 7.75076e-19 -0.0118072)
(8.33398e-19 1.53415e-18 -0.0118446)
(6.57752e-19 -1.08257e-18 -0.0118797)
(-1.34892e-18 8.23959e-20 -0.0119122)
(1.44801e-19 -5.17135e-19 -0.011942)
(1.96216e-19 -6.7863e-19 -0.0119688)
(2.52533e-19 -9.77235e-20 -0.0119925)
(-1.82598e-19 2.007e-18 -0.0120131)
(6.53462e-19 5.52156e-19 -0.0120303)
(1.02437e-18 1.63747e-19 -0.0116083)
(1.366e-18 1.81422e-18 -0.0116503)
(5.65343e-19 5.07615e-19 -0.0116901)
(1.05126e-18 1.12959e-18 -0.0117278)
(6.31561e-19 -1.0369e-18 -0.0117631)
(-1.43944e-18 1.3529e-19 -0.0117958)
(7.59649e-20 -5.6375e-19 -0.0118257)
(-2.17929e-20 -6.20565e-20 -0.0118527)
(2.89873e-19 1.70276e-19 -0.0118765)
(-2.53187e-19 2.40187e-18 -0.0118972)
(6.00596e-19 4.5759e-19 -0.0119146)
(1.07929e-18 8.3369e-20 -0.0114883)
(9.86139e-19 2.4712e-18 -0.0115305)
(7.55973e-19 2.51042e-19 -0.0115706)
(8.89933e-19 1.37189e-18 -0.0116085)
(5.29884e-19 -8.52847e-19 -0.011644)
(-1.46831e-18 6.25748e-20 -0.0116769)
(-1.92725e-19 -1.13924e-19 -0.011707)
(-2.03681e-19 4.53155e-19 -0.0117341)
(4.08177e-19 2.08561e-19 -0.0117581)
(-2.5471e-19 2.53308e-18 -0.0117789)
(4.97329e-19 3.73589e-19 -0.0117963)
(1.01745e-18 1.98657e-19 -0.0113655)
(8.82668e-19 2.79983e-18 -0.011408)
(5.62008e-19 5.22169e-19 -0.0114483)
(6.3267e-19 1.79334e-18 -0.0114865)
(5.00505e-19 -8.65674e-19 -0.0115222)
(-1.47149e-18 -9.96875e-21 -0.0115553)
(-5.49957e-19 5.97547e-19 -0.0115856)
(-2.85814e-19 5.88297e-19 -0.0116129)
(5.07889e-19 1.93751e-19 -0.011637)
(-1.03734e-19 2.1382e-18 -0.0116579)
(4.14507e-19 2.94568e-19 -0.0116755)
(7.90058e-19 5.24533e-19 -0.0112399)
(9.8339e-19 2.89746e-18 -0.0112827)
(5.94049e-19 5.01266e-19 -0.0113233)
(6.27779e-19 1.75482e-18 -0.0113617)
(6.67974e-19 -1.24869e-18 -0.0113977)
(-1.42814e-18 -7.89915e-20 -0.011431)
(-7.1184e-19 8.5736e-19 -0.0114614)
(-3.49792e-19 5.88958e-19 -0.0114889)
(4.74017e-19 5.39899e-19 -0.0115132)
(-6.89676e-20 2.15083e-18 -0.0115342)
(3.59034e-19 2.19943e-19 -0.0115518)
(8.45808e-19 5.74201e-19 -0.0111113)
(1.36296e-18 2.58485e-18 -0.0111544)
(1.13092e-18 -2.40428e-19 -0.0111953)
(9.24124e-19 1.275e-18 -0.0112339)
(8.18876e-19 -1.58839e-18 -0.0112701)
(-1.34831e-18 -1.85813e-19 -0.0113037)
(-6.11471e-19 5.81072e-19 -0.0113343)
(-4.32752e-19 7.19995e-19 -0.0113619)
(4.71397e-19 8.46764e-19 -0.0113864)
(-1.11799e-19 2.32283e-18 -0.0114075)
(2.7262e-19 1.95312e-19 -0.0114253)
(1.30114e-18 9.09182e-20 -0.0109794)
(1.89714e-18 2.03622e-18 -0.0110229)
(1.56291e-18 -8.24765e-19 -0.011064)
(1.03001e-18 1.14833e-18 -0.011103)
(7.83513e-19 -1.56902e-18 -0.0111394)
(-1.1696e-18 -5.02535e-19 -0.0111732)
(-5.06781e-19 3.09676e-19 -0.011204)
(-4.89497e-19 8.24603e-19 -0.0112318)
(6.28596e-19 6.68282e-19 -0.0112564)
(7.01086e-22 1.97605e-18 -0.0112777)
(2.09404e-19 1.39919e-19 -0.0112956)
(1.63074e-18 -3.44552e-19 -0.0108441)
(2.08976e-18 1.94676e-18 -0.0108879)
(1.91008e-18 -1.23249e-18 -0.0109294)
(9.41398e-19 1.3674e-18 -0.0109686)
(6.67524e-19 -1.49799e-18 -0.0110053)
(-9.92728e-19 -8.48293e-19 -0.0110393)
(-5.5794e-19 4.51796e-19 -0.0110704)
(-5.62055e-19 9.37198e-19 -0.0110983)
(7.86916e-19 4.1312e-19 -0.0111231)
(1.39179e-19 1.56836e-18 -0.0111445)
(1.62813e-19 1.16462e-19 -0.0111625)
(1.49213e-18 -2.57097e-19 -0.0107051)
(1.99827e-18 2.1764e-18 -0.0107493)
(2.24254e-18 -1.62937e-18 -0.0107911)
(1.06662e-18 1.30915e-18 -0.0108306)
(6.37808e-19 -1.59864e-18 -0.0108676)
(-9.35509e-19 -9.24929e-19 -0.0109018)
(-7.01798e-19 8.23109e-19 -0.0109331)
(-7.51084e-19 1.26955e-18 -0.0109613)
(9.77216e-19 2.90014e-20 -0.0109862)
(3.00302e-19 1.1421e-18 -0.0110078)
(7.72928e-20 2.48335e-19 -0.0110259)
(1.24174e-18 -7.57926e-21 -0.0105622)
(1.81531e-18 2.47517e-18 -0.0106067)
(2.2526e-18 -1.62761e-18 -0.0106488)
(1.08911e-18 1.42918e-18 -0.0106887)
(6.12949e-19 -1.69943e-18 -0.0107259)
(-1.014e-18 -6.99353e-19 -0.0107604)
(-6.0379e-19 7.37214e-19 -0.010792)
(-9.62446e-19 1.54415e-18 -0.0108203)
(1.06746e-18 -2.03883e-19 -0.0108455)
(5.43093e-19 5.53165e-19 -0.0108672)
(1.01825e-18 2.39388e-19 -0.010415)
(1.79691e-18 2.57892e-18 -0.0104599)
(1.9923e-18 -1.25929e-18 -0.0105024)
(8.31055e-19 1.94996e-18 -0.0105426)
(6.419e-19 -1.89981e-18 -0.0105801)
(-1.20415e-18 -3.03264e-19 -0.0106149)
(-2.78356e-19 1.22843e-19 -0.0106467)
(-1.04055e-18 1.55448e-18 -0.0106753)
(9.74915e-19 2.56213e-20 -0.0107006)
(7.08487e-19 2.21884e-19 -0.0107225)
(6.35907e-19 6.5565e-19 -0.0102633)
(2.02636e-18 2.39059e-18 -0.0103086)
(1.759e-18 -8.73961e-19 -0.0103515)
(5.4565e-19 2.45623e-18 -0.010392)
(6.80943e-19 -2.15362e-18 -0.0104299)
(-1.30023e-18 -1.14765e-19 -0.0104649)
(-8.32772e-20 -2.24452e-19 -0.0104969)
(-1.07875e-18 1.57518e-18 -0.0105258)
(8.04697e-19 4.67163e-19 -0.0105513)
(6.97447e-19 4.409e-19 -0.0105733)
(1.29738e-19 1.19794e-18 -0.0101067)
(2.23742e-18 2.19907e-18 -0.0101524)
(1.66368e-18 -6.29997e-19 -0.0101957)
(6.30136e-19 2.37165e-18 -0.0102365)
(5.05171e-19 -2.08444e-18 -0.0102747)
(-1.20193e-18 -2.84376e-19 -0.0103101)
(-7.65755e-20 -1.63441e-19 -0.0103424)
(-1.00933e-18 1.38511e-18 -0.0103714)
(6.36079e-19 9.6244e-19 -0.0103972)
(5.74098e-19 9.29025e-19 -0.0104194)
(-2.47012e-19 1.59011e-18 -0.00994479)
(2.46172e-18 1.9606e-18 -0.00999099)
(1.58076e-18 -4.24632e-19 -0.0100346)
(1.11825e-18 1.6943e-18 -0.0100758)
(1.26578e-19 -1.6708e-18 -0.0101144)
(-1.05119e-18 -5.71111e-19 -0.01015)
(-1.4474e-19 7.54954e-20 -0.0101826)
(-8.59688e-19 1.03595e-18 -0.0102119)
(5.10765e-19 1.43448e-18 -0.0102379)
(5.38587e-19 1.03604e-18 -0.0102603)
(-3.20787e-19 1.63887e-18 -0.00977717)
(2.4896e-18 1.95016e-18 -0.00982383)
(1.54093e-18 -3.12129e-19 -0.00986789)
(1.61341e-18 1.02353e-18 -0.0099095)
(-6.56537e-20 -1.52924e-18 -0.00994839)
(-9.83915e-19 -7.17316e-19 -0.00998436)
(-2.26079e-19 3.39377e-19 -0.0100172)
(-8.09508e-19 9.51201e-19 -0.0100468)
(5.19358e-19 1.53125e-18 -0.010073)
(6.60034e-19 5.33381e-19 -0.0100956)
(-2.33674e-19 1.51853e-18 -0.00960335)
(2.18707e-18 2.33811e-18 -0.0096505)
(1.53371e-18 -3.03632e-19 -0.009695)
(1.82349e-18 7.69413e-19 -0.009737)
(1.42698e-20 -1.8183e-18 -0.00977627)
(-9.42247e-19 -7.84228e-19 -0.00981258)
(-2.61946e-19 5.39122e-19 -0.00984576)
(-8.31109e-19 1.00433e-18 -0.00987563)
(6.50618e-19 1.18275e-18 -0.00990205)
(7.94567e-19 -1.03118e-20 -0.0099249)
(-2.10765e-19 1.48725e-18 -0.0094228)
(1.93368e-18 2.6681e-18 -0.00947045)
(1.41432e-18 -1.82174e-19 -0.0095154)
(1.9038e-18 6.7958e-19 -0.00955783)
(6.14687e-20 -2.06076e-18 -0.00959749)
(-9.23413e-19 -7.62502e-19 -0.00963416)
(-1.92265e-19 5.21064e-19 -0.00966766)
(-7.40125e-19 7.25045e-19 -0.00969782)
(7.77012e-19 8.14502e-19 -0.0097245)
(8.50165e-19 -2.86383e-19 -0.00974757)
(-2.16654e-20 1.29696e-18 -0.00923492)
(1.84633e-18 2.80031e-18 -0.00928309)
(1.21301e-18 1.47151e-20 -0.00932852)
(2.09381e-18 4.0484e-19 -0.00937139)
(-1.50539e-19 -1.85708e-18 -0.00941145)
(-1.00738e-18 -5.52872e-19 -0.0094485)
(-7.4972e-20 3.66976e-19 -0.00948234)
(-6.1839e-19 3.6164e-19 -0.00951281)
(8.5188e-19 6.2608e-19 -0.00953975)
(8.29075e-19 -2.91914e-19 -0.00956306)
(3.33114e-19 9.37543e-19 -0.00903903)
(1.89261e-18 2.80332e-18 -0.00908775)
(1.06575e-18 1.01207e-19 -0.00913367)
(2.24831e-18 1.88852e-19 -0.009177)
(-4.2627e-19 -1.49844e-18 -0.00921749)
(-1.19664e-18 -1.831e-19 -0.00925493)
(-1.65531e-20 2.97234e-19 -0.00928913)
(-6.05773e-19 2.63801e-19 -0.00931991)
(9.21415e-19 4.96048e-19 -0.00934713)
(7.89129e-19 -2.42283e-19 -0.00937068)
(6.19413e-19 6.48509e-19 -0.00883439)
(2.08116e-18 2.65176e-18 -0.00888367)
(9.92074e-19 7.75105e-20 -0.00893011)
(2.15838e-18 3.47467e-19 -0.00897391)
(-4.9068e-19 -1.45804e-18 -0.00901485)
(-1.38665e-18 1.7176e-19 -0.00905269)
(5.40327e-20 1.75545e-19 -0.00908726)
(-6.22677e-19 2.23052e-19 -0.00911838)
(9.46037e-19 4.84171e-19 -0.00914589)
(7.82093e-19 -2.39464e-19 -0.0091697)
(8.25387e-19 4.28369e-19 -0.00862016)
(2.42385e-18 2.32306e-18 -0.00867002)
(1.0359e-18 -8.15236e-20 -0.00871698)
(1.88004e-18 7.68968e-19 -0.00876128)
(-5.20794e-19 -1.47505e-18 -0.00880267)
(-1.48069e-18 3.48847e-19 -0.00884094)
(1.48781e-19 -3.45987e-20 -0.00887589)
(-5.94555e-19 1.00824e-19 -0.00890736)
(8.97115e-19 7.02182e-19 -0.00893518)
(7.74335e-19 -1.94198e-19 -0.00895925)
(8.68791e-19 3.56706e-19 -0.00839538)
(2.83899e-18 1.89661e-18 -0.00844583)
(1.19066e-18 -3.45195e-19 -0.00849334)
(1.78822e-18 9.30069e-19 -0.00853814)
(-6.72227e-19 -1.31017e-18 -0.00858001)
(-1.42349e-18 2.23214e-19 -0.00861871)
(2.28039e-19 -2.23997e-19 -0.00865406)
(-6.12566e-19 1.34982e-19 -0.00868589)
(9.30696e-19 6.97596e-19 -0.00871402)
(7.75232e-19 -2.27655e-19 -0.00873836)
(7.11546e-19 4.993e-19 -0.008159)
(3.22596e-18 1.4788e-18 -0.00821004)
(1.16331e-18 -3.60825e-19 -0.0082581)
(1.86354e-18 8.64665e-19 -0.00830342)
(-8.5126e-19 -1.09746e-18 -0.00834577)
(-1.29825e-18 -5.3356e-20 -0.00838492)
(2.35058e-19 -2.33418e-19 -0.00842068)
(-7.68626e-19 5.019e-19 -0.00845287)
(1.00473e-18 5.54126e-19 -0.00848133)
(7.86711e-19 -2.80006e-19 -0.00850596)
(5.72834e-19 6.16699e-19 -0.00790982)
(3.42235e-18 1.27207e-18 -0.00796145)
(1.20758e-18 -4.50061e-19 -0.00801006)
(1.80641e-18 9.92094e-19 -0.0080559)
(-1.00269e-18 -9.34369e-19 -0.00809874)
(-1.2679e-18 -1.54798e-19 -0.00813834)
(2.48559e-19 -1.98202e-19 -0.00817451)
(-9.24632e-19 8.65363e-19 -0.00820708)
(9.89622e-19 6.05044e-19 -0.00823587)
(7.83799e-19 -2.53833e-19 -0.00826078)
(6.6111e-19 4.80038e-19 -0.0076465)
(3.32778e-18 1.38015e-18 -0.00769872)
(1.30993e-18 -6.10523e-19 -0.00774787)
(1.8048e-18 1.05535e-18 -0.00779422)
(-1.06623e-18 -9.21118e-19 -0.00783754)
(-1.29242e-18 -1.6068e-19 -0.00787759)
(2.727e-19 -1.74126e-19 -0.00791417)
(-8.9629e-19 7.93015e-19 -0.00794711)
(9.32526e-19 7.62922e-19 -0.00797623)
(7.40192e-19 -6.94742e-20 -0.00800143)
(7.66348e-19 3.173e-19 -0.0073676)
(3.07633e-18 1.6699e-18 -0.00742036)
(1.10027e-18 -3.77119e-19 -0.00747002)
(1.916e-18 9.39109e-19 -0.00751686)
(-1.05147e-18 -1.02356e-18 -0.00756063)
(-1.30872e-18 -1.70414e-19 -0.00760111)
(2.41063e-19 -4.28616e-20 -0.00763809)
(-7.84386e-19 5.33187e-19 -0.00767139)
(9.05855e-19 8.68866e-19 -0.00770084)
(7.01489e-19 1.07555e-19 -0.00772632)
(7.51465e-19 3.03565e-19 -0.00707152)
(2.90034e-18 1.87954e-18 -0.00712475)
(8.51131e-19 -1.23905e-19 -0.00717486)
(1.98401e-18 8.43679e-19 -0.00722214)
(-1.01649e-18 -1.13007e-18 -0.00726633)
(-1.34618e-18 -1.13765e-19 -0.0073072)
(2.35304e-19 2.55332e-20 -0.00734455)
(-7.48382e-19 4.60406e-19 -0.00737819)
(9.48923e-19 7.96387e-19 -0.00740794)
(7.29038e-19 4.35154e-20 -0.00743367)
(6.98137e-19 3.34773e-19 -0.00675657)
(2.94518e-18 1.80358e-18 -0.00681016)
(7.52014e-19 -8.2779e-20 -0.00686063)
(1.89695e-18 9.50957e-19 -0.00690826)
(-9.57367e-19 -1.25497e-18 -0.00695279)
(-1.36267e-18 -7.37062e-20 -0.006994)
(3.26119e-19 -1.10295e-19 -0.00703165)
(-7.86711e-19 5.7269e-19 -0.00706557)
(1.02003e-18 6.14127e-19 -0.00709558)
(7.63332e-19 -7.25681e-20 -0.00712155)
(5.92477e-19 4.10843e-19 -0.00642108)
(3.06925e-18 1.6103e-18 -0.00647486)
(6.47568e-19 -2.50485e-20 -0.00652553)
(1.79063e-18 1.0574e-18 -0.00657337)
(-9.39958e-19 -1.30169e-18 -0.00661812)
(-1.39286e-18 -3.00984e-21 -0.00665954)
(4.00008e-19 -1.91353e-19 -0.00669741)
(-7.94634e-19 6.27701e-19 -0.00673153)
(1.05362e-18 5.10185e-19 -0.00676173)
(7.81118e-19 -1.01958e-19 -0.00678786)
(4.43495e-19 5.4095e-19 -0.00606351)
(3.06996e-18 1.52709e-18 -0.00611721)
(6.28563e-19 -8.47256e-20 -0.00616784)
(1.75791e-18 1.02295e-18 -0.00621567)
(-9.79357e-19 -1.22443e-18 -0.00626044)
(-1.42773e-18 9.24537e-20 -0.0063019)
(4.12746e-19 -1.51245e-19 -0.00633983)
(-7.53035e-19 5.7422e-19 -0.00637402)
(9.98404e-19 6.48383e-19 -0.00640429)
(7.90211e-19 -7.14138e-20 -0.0064305)
(3.75463e-19 5.92321e-19 -0.00568271)
(2.95939e-18 1.52596e-18 -0.00573594)
(6.34792e-19 -1.91573e-19 -0.00578618)
(1.59491e-18 1.15986e-18 -0.00583368)
(-1.02938e-18 -1.09788e-18 -0.00587818)
(-1.34134e-18 -2.0187e-20 -0.00591942)
(4.33392e-19 -1.32094e-19 -0.00595717)
(-6.97941e-19 5.24154e-19 -0.00599122)
(9.41979e-19 7.81689e-19 -0.00602138)
(7.69568e-19 6.63507e-20 -0.0060475)
(3.81819e-19 5.72338e-19 -0.00527831)
(2.84535e-18 1.48124e-18 -0.00533054)
(5.35552e-19 -1.68334e-19 -0.00537989)
(1.36589e-18 1.3631e-18 -0.0054266)
(-1.06685e-18 -9.96546e-19 -0.00547041)
(-1.20839e-18 -2.0553e-19 -0.00551104)
(3.92692e-19 3.3898e-20 -0.00554827)
(-6.38083e-19 4.8194e-19 -0.00558187)
(9.3274e-19 7.88222e-19 -0.00561166)
(7.41836e-19 2.28572e-19 -0.00563747)
(5.06754e-19 4.16506e-19 -0.00485117)
(2.73861e-18 1.37482e-18 -0.0049017)
(3.9265e-19 -1.01425e-19 -0.0049495)
(1.26982e-18 1.31812e-18 -0.00499481)
(-1.09984e-18 -9.08921e-19 -0.00503735)
(-1.14135e-18 -2.40478e-19 -0.00507685)
(3.58207e-19 1.84375e-19 -0.00511309)
(-6.03632e-19 5.03661e-19 -0.00514582)
(9.27174e-19 7.78451e-19 -0.00517486)
(7.56992e-19 2.68886e-19 -0.00520005)
(5.94491e-19 2.71742e-19 -0.00440383)
(2.49065e-18 1.36384e-18 -0.00445181)
(2.4926e-19 -8.15832e-20 -0.00449726)
(1.22215e-18 1.15046e-18 -0.00454041)
(-1.10192e-18 -8.41227e-19 -0.00458097)
(-1.10477e-18 -2.06474e-19 -0.00461869)
(3.60926e-19 2.49784e-19 -0.00465333)
(-5.658e-19 5.18972e-19 -0.00468466)
(9.0508e-19 7.78847e-19 -0.00471248)
(8.11016e-19 1.82651e-19 -0.00473662)
(5.5054e-19 2.25503e-19 -0.00394059)
(2.16819e-18 1.34672e-18 -0.00398511)
(1.21267e-19 -1.47194e-19 -0.00402735)
(1.06777e-18 1.06772e-18 -0.0040675)
(-1.07993e-18 -8.0145e-19 -0.00410531)
(-1.01446e-18 -2.62084e-19 -0.0041405)
(3.95301e-19 2.22101e-19 -0.00417286)
(-4.72115e-19 3.91111e-19 -0.00420216)
(8.83874e-19 7.2367e-19 -0.00422821)
(8.34292e-19 1.84953e-19 -0.00425083)
(4.47647e-19 1.82874e-19 -0.00346706)
(1.85528e-18 1.19969e-18 -0.0035073)
(-5.57226e-20 -2.3224e-19 -0.00354552)
(9.26492e-19 8.82868e-19 -0.00358189)
(-1.08093e-18 -7.33725e-19 -0.00361618)
(-8.98427e-19 -3.83294e-19 -0.00364814)
(3.98036e-19 2.03915e-19 -0.00367756)
(-3.6395e-19 2.02913e-19 -0.00370421)
(8.71744e-19 5.83251e-19 -0.00372793)
(8.19767e-19 2.81861e-19 -0.00374855)
(3.25349e-19 7.59969e-20 -0.00298918)
(1.50446e-18 9.57171e-19 -0.0030245)
(-2.87263e-19 -3.4401e-19 -0.00305807)
(7.65317e-19 6.2299e-19 -0.00309005)
(-1.09454e-18 -6.68596e-19 -0.00312022)
(-8.26908e-19 -4.56505e-19 -0.00314837)
(3.53182e-19 1.88778e-19 -0.00317429)
(-3.27914e-19 1.05038e-19 -0.00319781)
(8.13097e-19 4.73476e-19 -0.00321874)
(7.93484e-19 3.13526e-19 -0.00323695)
(1.27371e-19 -4.86292e-20 -0.00251206)
(1.02636e-18 7.1591e-19 -0.00254206)
(-5.39868e-19 -5.34586e-19 -0.0025706)
(5.00682e-19 3.93467e-19 -0.00259779)
(-1.11051e-18 -6.46261e-19 -0.00262347)
(-8.3518e-19 -4.40528e-19 -0.00264743)
(2.58427e-19 1.30532e-19 -0.00266951)
(-3.65649e-19 4.1617e-20 -0.00268954)
(6.83715e-19 3.63798e-19 -0.00270739)
(7.16465e-19 2.7862e-19 -0.00272291)
(-1.1441e-19 -2.34636e-19 -0.0020393)
(4.96958e-19 3.71838e-19 -0.00206382)
(-8.37141e-19 -7.76399e-19 -0.00208713)
(1.2713e-19 1.7849e-19 -0.00210936)
(-1.15029e-18 -6.76336e-19 -0.00213035)
(-9.29517e-19 -4.04042e-19 -0.00214994)
(7.25006e-20 1.78038e-20 -0.002168)
(-4.96646e-19 -1.81476e-20 -0.00218439)
(4.55781e-19 2.37164e-19 -0.00219899)
(5.25383e-19 2.34915e-19 -0.0022117)
(-4.03914e-19 -4.8427e-19 -0.00157299)
(-7.04018e-20 -9.09115e-20 -0.00159198)
(-1.23415e-18 -9.97481e-19 -0.00161003)
(-3.02889e-19 -1.37524e-19 -0.00162724)
(-1.2682e-18 -7.48172e-19 -0.00164349)
(-1.09496e-18 -4.87727e-19 -0.00165867)
(-2.99669e-19 -1.23253e-19 -0.00167266)
(-7.61663e-19 -1.59774e-19 -0.00168536)
(7.98479e-20 7.05191e-20 -0.00169668)
(1.72846e-19 1.43044e-19 -0.00170653)
(-7.64451e-19 -7.84324e-19 -0.00111409)
(-7.27861e-19 -6.20178e-19 -0.00112758)
(-1.68528e-18 -1.26609e-18 -0.0011404)
(-8.54313e-19 -5.31818e-19 -0.00115262)
(-1.51395e-18 -8.95819e-19 -0.00116416)
(-1.4634e-18 -6.55241e-19 -0.00117494)
(-9.59629e-19 -3.81808e-19 -0.00118488)
(-1.25616e-18 -4.21423e-19 -0.00119391)
(-5.16242e-19 -1.47785e-19 -0.00120194)
(-4.01452e-19 -3.95484e-20 -0.00120894)
(-1.22662e-18 -1.13433e-18 -0.000662977)
(-1.48812e-18 -1.23655e-18 -0.000671019)
(-2.20215e-18 -1.6277e-18 -0.000678665)
(-1.58645e-18 -1.04209e-18 -0.000685954)
(-1.99316e-18 -1.16967e-18 -0.000692839)
(-2.14743e-18 -1.05027e-18 -0.000699269)
(-2.08138e-18 -8.45851e-19 -0.000705197)
(-2.15387e-18 -8.07997e-19 -0.000710578)
(-1.43683e-18 -4.28888e-19 -0.000715373)
(-1.28124e-18 -3.071e-19 -0.000719548)
(3.05906e-20 3.028e-20 -0.000219803)
(1.02346e-19 9.91818e-20 -0.000222476)
(-8.54017e-20 -6.42334e-20 -0.000225017)
(1.29641e-19 8.70727e-20 -0.00022744)
(1.8976e-20 9.73868e-21 -0.000229728)
(1.32075e-19 9.02561e-20 -0.000231865)
(3.42563e-19 1.54826e-19 -0.000233835)
(2.30379e-19 5.46338e-20 -0.000235624)
(2.7633e-19 6.97389e-20 -0.000237218)
(2.85687e-19 6.83411e-20 -0.000238606)
(-2.61143e-19 -5.89418e-19 -0.0135745)
(-1.7498e-18 1.8338e-18 -0.0135778)
(5.95604e-19 1.06183e-18 -0.0135778)
(1.67768e-19 1.62261e-18 -0.0135745)
(1.26664e-18 6.0631e-22 -0.0135679)
(-3.00063e-19 4.50924e-19 -0.0135581)
(1.66842e-18 7.22976e-19 -0.0135451)
(1.90374e-19 -4.8996e-19 -0.013529)
(-1.25315e-18 1.66999e-18 -0.0135098)
(-5.30109e-19 2.16658e-18 -0.0134876)
(1.2139e-18 1.87895e-18 -0.0134626)
(-1.69709e-18 8.72594e-19 -0.0134349)
(4.96042e-19 1.4006e-18 -0.0134046)
(1.01116e-18 1.71156e-18 -0.013372)
(1.55175e-18 -8.21438e-19 -0.0133372)
(2.02086e-18 5.15477e-19 -0.0133006)
(1.89761e-18 -1.06537e-18 -0.0132618)
(-5.48886e-19 -6.38174e-19 -0.0134838)
(-1.55477e-18 1.79158e-18 -0.0134871)
(2.88706e-19 9.46601e-19 -0.0134871)
(2.51352e-19 1.56792e-18 -0.0134838)
(1.32943e-18 -5.10175e-21 -0.0134772)
(-2.42491e-19 3.9741e-19 -0.0134674)
(1.80378e-18 6.63022e-19 -0.0134543)
(-3.17168e-19 -1.75691e-19 -0.0134381)
(-8.15284e-19 1.60191e-18 -0.0134188)
(-6.32562e-19 2.06836e-18 -0.0133966)
(1.45849e-18 1.82339e-18 -0.0133715)
(-1.30082e-18 6.50195e-19 -0.0133437)
(4.58969e-19 1.27127e-18 -0.0133133)
(1.4122e-18 1.33867e-18 -0.0132805)
(1.43458e-18 -8.89667e-19 -0.0132456)
(1.79147e-18 6.72327e-19 -0.0132087)
(1.81756e-18 -7.77882e-19 -0.0131698)
(-5.80638e-19 -7.14228e-19 -0.013392)
(-1.05918e-18 1.77757e-18 -0.0133953)
(1.71821e-19 8.50267e-19 -0.0133953)
(2.4758e-19 1.49856e-18 -0.013392)
(1.19783e-18 5.30906e-21 -0.0133854)
(1.90218e-19 2.77258e-19 -0.0133755)
(1.72575e-18 6.80482e-19 -0.0133624)
(-1.21117e-19 -7.51497e-20 -0.0133461)
(-6.91165e-19 1.60879e-18 -0.0133267)
(-6.71631e-19 1.93654e-18 -0.0133044)
(1.60253e-18 1.78416e-18 -0.0132792)
(-7.44972e-19 4.02266e-19 -0.0132512)
(1.06957e-20 1.36799e-18 -0.0132207)
(1.95867e-18 8.56036e-19 -0.0131878)
(1.18174e-18 -7.6192e-19 -0.0131527)
(1.44331e-18 9.72177e-19 -0.0131157)
(1.48503e-18 -3.76177e-19 -0.0130766)
(-5.49031e-19 2.72345e-18 -0.0132691)
(8.59087e-19 1.33515e-18 -0.0132823)
(-5.99145e-19 -1.08523e-18 -0.0132922)
(-7.84087e-19 -8.19072e-19 -0.0132989)
(-6.18154e-19 1.76226e-18 -0.0133022)
(5.33356e-19 7.89578e-19 -0.0133022)
(7.08649e-19 1.42213e-18 -0.0132989)
(1.04981e-18 -3.31261e-20 -0.0132922)
(3.102e-19 2.06069e-19 -0.0132823)
(1.48641e-18 7.41405e-19 -0.0132691)
(2.53297e-19 -2.96607e-20 -0.0132528)
(-5.69707e-19 1.66947e-18 -0.0132333)
(-3.87308e-19 1.68178e-18 -0.0132109)
(1.55818e-18 1.77191e-18 -0.0131856)
(-3.30702e-19 2.61831e-19 -0.0131575)
(-2.48406e-19 1.34687e-18 -0.0131269)
(1.91266e-18 7.40806e-19 -0.0130938)
(6.73759e-19 -3.76791e-19 -0.0130585)
(1.43308e-18 9.99691e-19 -0.0130214)
(1.3815e-18 -1.6776e-19 -0.0129822)
(-6.08511e-19 2.62414e-18 -0.0131746)
(5.33428e-19 1.33047e-18 -0.0131878)
(-1.65355e-19 -9.71085e-19 -0.0131978)
(-1.44943e-18 -9.54165e-19 -0.0132045)
(-5.53103e-19 1.66814e-18 -0.0132078)
(8.77986e-19 6.82259e-19 -0.0132078)
(1.18873e-18 1.39201e-18 -0.0132045)
(1.05782e-18 7.45694e-21 -0.0131978)
(-1.6092e-19 2.52742e-19 -0.0131878)
(1.35518e-18 7.38671e-19 -0.0131746)
(2.98507e-19 6.69526e-20 -0.0131582)
(-3.48387e-19 1.65158e-18 -0.0131387)
(-4.14822e-20 1.42074e-18 -0.0131161)
(1.53387e-18 1.79615e-18 -0.0130907)
(-3.47922e-19 3.28498e-19 -0.0130625)
(4.88083e-20 1.09148e-18 -0.0130317)
(1.14656e-18 1.14695e-18 -0.0129985)
(4.87355e-19 -2.9302e-19 -0.0129631)
(1.67744e-18 7.76126e-19 -0.0129258)
(1.58611e-18 -2.15738e-19 -0.0128864)
(-6.04918e-19 2.56557e-18 -0.0130787)
(1.7322e-20 1.26298e-18 -0.013092)
(4.12627e-19 -8.23651e-19 -0.013102)
(-1.88981e-18 -1.03483e-18 -0.0131087)
(-5.52076e-19 1.50878e-18 -0.0131121)
(1.00675e-18 5.70679e-19 -0.0131121)
(1.11282e-18 1.40858e-18 -0.0131087)
(1.26686e-18 5.84294e-20 -0.013102)
(-1.48856e-19 2.14274e-19 -0.013092)
(1.51022e-18 6.42176e-19 -0.0130787)
(3.9857e-19 1.40678e-19 -0.0130623)
(-4.57714e-19 1.7372e-18 -0.0130426)
(-2.05978e-19 1.37233e-18 -0.01302)
(1.49759e-18 1.84811e-18 -0.0129945)
(-5.37102e-19 4.2546e-19 -0.0129662)
(5.05422e-19 7.94336e-19 -0.0129352)
(3.72286e-19 1.57772e-18 -0.0129019)
(5.98902e-19 -5.29501e-19 -0.0128663)
(1.82767e-18 6.1828e-19 -0.0128288)
(1.81126e-18 -2.27056e-19 -0.0127892)
(-7.83238e-19 2.49034e-18 -0.0129815)
(-1.68959e-19 1.20749e-18 -0.0129948)
(8.07326e-19 -7.22647e-19 -0.0130048)
(-1.8761e-18 -1.0496e-18 -0.0130116)
(-5.38047e-19 1.33629e-18 -0.0130149)
(9.39468e-19 4.80088e-19 -0.0130149)
(9.69388e-19 1.42589e-18 -0.0130116)
(1.59851e-18 5.3335e-20 -0.0130048)
(3.06706e-19 1.00518e-19 -0.0129948)
(1.74931e-18 5.44957e-19 -0.0129815)
(5.12412e-19 2.57737e-19 -0.0129649)
(-3.65566e-19 1.79069e-18 -0.0129452)
(-1.62528e-19 1.21738e-18 -0.0129225)
(1.32672e-18 1.95419e-18 -0.0128968)
(-6.88865e-19 4.62368e-19 -0.0128684)
(5.24646e-19 7.97855e-19 -0.0128373)
(-1.3417e-19 1.87026e-18 -0.0128038)
(5.24397e-20 -3.66785e-19 -0.012768)
(1.5333e-18 8.19592e-19 -0.0127304)
(1.52365e-18 2.03794e-19 -0.0126906)
(-1.11904e-18 2.35057e-18 -0.0128827)
(-4.40475e-20 1.1769e-18 -0.0128961)
(1.02562e-18 -6.44404e-19 -0.0129062)
(-1.30213e-18 -1.00841e-18 -0.0129129)
(-4.37565e-19 1.18539e-18 -0.0129163)
(8.59874e-19 3.88616e-19 -0.0129163)
(9.33916e-19 1.40156e-18 -0.0129129)
(1.61686e-18 5.55017e-20 -0.0129062)
(1.82496e-19 9.08875e-20 -0.0128961)
(1.69152e-18 5.44332e-19 -0.0128827)
(3.39225e-19 4.3348e-19 -0.0128661)
(-1.72894e-19 1.77423e-18 -0.0128463)
(4.47029e-19 9.01749e-19 -0.0128235)
(1.04664e-18 2.15524e-18 -0.0127977)
(-4.64634e-19 3.08522e-19 -0.0127691)
(4.33075e-19 8.7621e-19 -0.0127379)
(-1.1319e-19 1.88605e-18 -0.0127042)
(-1.00108e-18 1.64731e-19 -0.0126683)
(1.06591e-18 1.13145e-18 -0.0126304)
(9.13307e-19 8.35971e-19 -0.0125905)
(-1.02094e-18 2.31699e-18 -0.0127824)
(2.80524e-21 1.0883e-18 -0.0127959)
(8.40797e-19 -6.71238e-19 -0.012806)
(-4.66816e-19 -9.48407e-19 -0.0128128)
(-1.0456e-19 1.0971e-18 -0.0128162)
(1.04005e-18 3.03026e-19 -0.0128162)
(7.20316e-19 1.42135e-18 -0.0128128)
(1.35531e-18 1.38152e-19 -0.012806)
(-2.75274e-19 1.38994e-19 -0.0127959)
(1.39221e-18 5.81871e-19 -0.0127824)
(6.43649e-20 6.30552e-19 -0.0127657)
(-2.04672e-19 1.75275e-18 -0.0127459)
(9.53061e-19 6.3335e-19 -0.0127229)
(7.94814e-19 2.36054e-18 -0.012697)