/*--------------------------------*- C++ -*----------------------------------*\
  =========                 |
  \\      /  F ield         | OpenFOAM: The Open Source CFD Toolbox
   \\    /   O peration     | Website:  https://openfoam.org
    \\  /    A nd           | Version:  7
     \\/     M anipulation  |
\*---------------------------------------------------------------------------*/
FoamFile
{
    version     2.0;
    format      ascii;
    class       volScalarField;
    location    "188000";
    object      strainRate;
}
// * * * * * * * * * * * * * * * * * * * * * * * * * * * * * * * * * * * * * //

dimensions      [0 0 -1 0 0 0 0];

internalField   nonuniform List<scalar> 
4783
(
0.0019747
0.00186854
0.00179303
0.00169614
0.00158942
0.00147829
0.00136536
0.00125207
0.00113943
0.00102846
0.000920381
0.000816743
0.000719365
0.000630083
0.000550409
0.000481252
0.000422785
0.000374479
0.000335585
0.000305006
0.00028149
0.00026384
0.00257443
0.00224918
0.002154
0.00204904
0.00193504
0.00181586
0.00169472
0.00157385
0.00145468
0.00133822
0.00122527
0.00111666
0.00101331
0.000916277
0.000826669
0.000745482
0.000673451
0.000610941
0.000557951
0.000514168
0.000479019
0.00045181
0.00295863
0.00255815
0.00243098
0.00231556
0.00220205
0.00208741
0.00197171
0.00185604
0.00174159
0.00162935
0.00152015
0.00141466
0.00131353
0.00121744
0.00112713
0.00104339
0.000966969
0.000898534
0.000838562
0.000787337
0.000744947
0.000711321
0.00325865
0.00286302
0.00271951
0.00259021
0.00246983
0.002354
0.0022405
0.00212869
0.00201878
0.0019113
0.00180684
0.00170598
0.00160925
0.00151717
0.00143026
0.00134907
0.0012742
0.00120624
0.00114574
0.00109318
0.00104894
0.00101332
0.00353531
0.00315441
0.00300928
0.00287324
0.00274627
0.00262638
0.00251158
0.00240061
0.00229293
0.0021885
0.00208758
0.00199054
0.00189778
0.00180973
0.00172679
0.0016494
0.001578
0.00151307
0.00145505
0.00140439
0.00136153
0.0013268
0.00380251
0.0034347
0.00329244
0.00315566
0.00302577
0.00290276
0.00278584
0.00267407
0.00256682
0.00246376
0.00236489
0.00227035
0.00218041
0.00209538
0.00201562
0.00194146
0.00187327
0.00181142
0.00175626
0.00170818
0.0016675
0.00163454
0.00406359
0.00370735
0.00356826
0.00343316
0.00330323
0.00317913
0.0030609
0.00294822
0.00284071
0.00273807
0.00264019
0.0025471
0.00245895
0.00237596
0.0022984
0.00222656
0.00216074
0.00210123
0.00204833
0.00200234
0.00196353
0.00193215
0.00432002
0.00397448
0.00383802
0.00370509
0.00357644
0.00345273
0.00333433
0.00322134
0.00311366
0.00301117
0.0029138
0.00282155
0.00273452
0.00265286
0.00257679
0.00250653
0.00244234
0.00238446
0.00233316
0.00228866
0.00225119
0.00222095
0.00457275
0.00423729
0.00410298
0.00397209
0.00384509
0.00372249
0.00360472
0.00349204
0.00338458
0.00328236
0.0031854
0.00309375
0.0030075
0.00292677
0.00285173
0.00278259
0.00271955
0.00266282
0.00261264
0.00256918
0.00253265
0.00250321
0.00482245
0.00449655
0.00436406
0.00423495
0.00410958
0.00398833
0.00387158
0.00375965
0.00365274
0.00355101
0.00345456
0.00336348
0.00327787
0.00319788
0.00312365
0.00305535
0.00299318
0.00293732
0.00288796
0.00284527
0.00280943
0.00278057
0.00506963
0.0047528
0.00462188
0.00449433
0.00437045
0.00425056
0.00413497
0.00402399
0.00391788
0.00381682
0.00372099
0.00363052
0.00354555
0.00346622
0.00339268
0.00332509
0.00326363
0.00320847
0.00315977
0.00311769
0.00308238
0.00305397
0.00531469
0.00500645
0.00487692
0.00475075
0.00462821
0.00450959
0.00439516
0.0042852
0.00417998
0.00407972
0.0039846
0.0038948
0.00381048
0.00373179
0.00365889
0.00359194
0.00353111
0.00347654
0.00342841
0.00338684
0.00335198
0.00332394
0.00555797
0.00525785
0.00512955
0.0050046
0.00488327
0.00476581
0.00465248
0.00454354
0.00443923
0.0043398
0.00424544
0.00415634
0.00407268
0.00399464
0.00392236
0.00385601
0.00379575
0.00374172
0.00369409
0.00365297
0.00361851
0.0035908
0.00579976
0.0055073
0.0053801
0.00525624
0.00513599
0.00501958
0.00490726
0.00479927
0.00469586
0.00459725
0.00450366
0.00441527
0.00433229
0.00425487
0.00418319
0.00411741
0.00405769
0.00400417
0.003957
0.00391629
0.00388218
0.00385477
0.00604031
0.00575508
0.00562884
0.00550595
0.00538666
0.0052712
0.0051598
0.00505271
0.00495014
0.00485232
0.00475947
0.00467178
0.00458945
0.00451265
0.00444155
0.00437631
0.0043171
0.00426405
0.0042173
0.00417698
0.00627985
0.00600143
0.00587604
0.005754
0.00563557
0.00552095
0.00541039
0.0053041
0.00520231
0.00510524
0.00501309
0.00492606
0.00484436
0.00476814
0.0046976
0.00463288
0.00457415
0.00452154
0.0044752
0.0065186
0.00624659
0.00612193
0.00600064
0.00588296
0.0057691
0.00565928
0.00555372
0.00545264
0.00535625
0.00526475
0.00517834
0.00509722
0.00502157
0.00495154
0.00488732
0.00482903
0.00675675
0.00649076
0.00636673
0.0062461
0.00612907
0.00601587
0.00590671
0.0058018
0.00570135
0.00560558
0.00551468
0.00542884
0.00534827
0.00527312
0.00699449
0.00673415
0.00661067
0.00649058
0.00637412
0.00626149
0.0061529
0.00604856
0.00594868
0.00585346
0.00576309
0.00567778
0.007232
0.00697696
0.00685392
0.0067343
0.00661832
0.00650618
0.00639808
0.00629423
0.00619484
0.0061001
0.00746944
0.00721937
0.0070967
0.00697745
0.00686186
0.00675012
0.00664244
0.00653901
0.00644004
0.00770698
0.00746157
0.00733917
0.00722022
0.00710494
0.00699353
0.00688618
0.0067831
0.00794478
0.00770373
0.00758152
0.00746278
0.00734773
0.00723657
0.00712949
0.00818299
0.00794601
0.00782391
0.00770531
0.00759042
0.00747943
0.00842175
0.00818858
0.00806652
0.00794798
0.00783317
0.00772229
0.00866122
0.00843159
0.00830949
0.00819094
0.00807615
0.00890152
0.00867519
0.00855299
0.00843436
0.00914281
0.00891955
0.00879718
0.0086784
0.00938522
0.00916481
0.00904219
0.00962889
0.00941111
0.00928818
0.00987394
0.00965859
0.00953529
0.0101205
0.0099074
0.00978366
0.0103687
0.0101577
0.0100334
0.0106188
0.0104096
0.0102848
0.0108707
0.0106632
0.0105378
0.0111247
0.0109187
0.0107926
0.0113808
0.0111763
0.0110495
0.0116393
0.011436
0.0113084
0.0119003
0.011698
0.0115695
0.0121638
0.0119625
0.0118331
0.01243
0.0122296
0.0120992
0.0126991
0.0124993
0.0123679
0.0019747
0.00257443
0.00295863
0.00325865
0.00353531
0.00380251
0.00406359
0.00432003
0.00457275
0.00482245
0.00506963
0.00531469
0.00555797
0.00579976
0.00604031
0.00627985
0.0065186
0.00675675
0.00699449
0.007232
0.00746944
0.00770698
0.00794478
0.00818299
0.00842175
0.00866122
0.00890152
0.00914281
0.00938522
0.00962889
0.00987394
0.0101205
0.0103687
0.0106188
0.0108707
0.0111247
0.0113808
0.0116393
0.0119003
0.0121638
0.01243
0.0126991
0.00186854
0.00224918
0.00255815
0.00286302
0.00315441
0.0034347
0.00370735
0.00397448
0.00423729
0.00449655
0.0047528
0.00500645
0.00525785
0.00550731
0.00575508
0.00600143
0.00624659
0.00649076
0.00673415
0.00697696
0.00721938
0.00746157
0.00770373
0.00794601
0.00818858
0.00843159
0.00867519
0.00891955
0.00916481
0.0094111
0.00965859
0.0099074
0.0101577
0.0104096
0.0106632
0.0109187
0.0111763
0.011436
0.011698
0.0119625
0.0122296
0.0124993
0.00179303
0.002154
0.00243098
0.00271951
0.00300928
0.00329244
0.00356826
0.00383802
0.00410299
0.00436406
0.00462189
0.00487692
0.00512955
0.0053801
0.00562884
0.00587604
0.00612193
0.00636673
0.00661067
0.00685393
0.0070967
0.00733917
0.00758152
0.00782392
0.00806652
0.00830949
0.00855299
0.00879718
0.00904219
0.00928818
0.00953529
0.00978366
0.0100334
0.0102848
0.0105378
0.0107926
0.0110494
0.0113084
0.0115695
0.0118331
0.0120992
0.0123679
0.00169614
0.00204904
0.00231556
0.00259021
0.00287324
0.00315566
0.00343316
0.00370509
0.00397209
0.00423495
0.00449433
0.00475075
0.00500461
0.00525624
0.00550595
0.005754
0.00600064
0.0062461
0.00649058
0.0067343
0.00697746
0.00722022
0.00746278
0.00770531
0.00794798
0.00819094
0.00843437
0.0086784
0.0089232
0.00916891
0.00941567
0.00966364
0.00991296
0.0101638
0.0104162
0.0106704
0.0109265
0.0111847
0.011445
0.0117077
0.0119728
0.0122406
0.00158942
0.00193504
0.00220205
0.00246983
0.00274627
0.00302577
0.00330323
0.00357644
0.00384509
0.00410958
0.00437045
0.00462821
0.00488327
0.00513599
0.00538666
0.00563557
0.00588296
0.00612907
0.00637412
0.00661832
0.00686186
0.00710494
0.00734774
0.00759042
0.00783317
0.00807615
0.00831952
0.00856343
0.00880804
0.0090535
0.00929996
0.00954756
0.00979645
0.0100468
0.0102986
0.0105522
0.0108077
0.0110651
0.0113247
0.0115866
0.0118508
0.0121176
0.00147829
0.00181586
0.00208741
0.002354
0.00262638
0.00290277
0.00317913
0.00345273
0.00372249
0.00398833
0.00425056
0.00450959
0.00476581
0.00501958
0.0052712
0.00552096
0.0057691
0.00601587
0.00626149
0.00650618
0.00675013
0.00699353
0.00723657
0.00747944
0.00772229
0.00796531
0.00820865
0.00845247
0.00869692
0.00894216
0.00918834
0.0094356
0.00968409
0.00993395
0.0101853
0.0104384
0.0106932
0.01095
0.0112088
0.0114699
0.0117333
0.0119992
0.00136536
0.00169472
0.00197171
0.0022405
0.00251159
0.00278584
0.0030609
0.00333433
0.00360472
0.00387158
0.00413497
0.00439516
0.00465248
0.00490726
0.00515981
0.00541039
0.00565928
0.00590671
0.00615291
0.00639808
0.00664244
0.00688619
0.00712949
0.00737255
0.00761553
0.00785861
0.00810194
0.00834569
0.00859001
0.00883506
0.00908099
0.00932795
0.00957608
0.00982552
0.0100764
0.0103289
0.0105832
0.0108393
0.0110975
0.0113578
0.0116205
0.0118856
0.00125207
0.00157385
0.00185604
0.00212869
0.00240061
0.00267407
0.00294823
0.00322134
0.00349204
0.00375965
0.004024
0.00428521
0.00454354
0.00479928
0.00505271
0.00530411
0.00555372
0.0058018
0.00604857
0.00629424
0.00653902
0.00678311
0.00702669
0.00726996
0.00751308
0.00775623
0.00799958
0.00824328
0.0084875
0.00873239
0.0089781
0.00922478
0.00947258
0.00972164
0.00997212
0.0102241
0.0104779
0.0107334
0.0109909
0.0112506
0.0115125
0.0117768
0.00113944
0.00145468
0.00174159
0.00201878
0.00229293
0.00256682
0.00284071
0.00311366
0.00338458
0.00365275
0.00391788
0.00417999
0.00443923
0.00469587
0.00495014
0.00520232
0.00545264
0.00570136
0.00594869
0.00619485
0.00644005
0.00668449
0.00692836
0.00717185
0.00741512
0.00765837
0.00790175
0.00814543
0.00838957
0.00863432
0.00887984
0.00912628
0.00937378
0.00962249
0.00987257
0.0101241
0.0103774
0.0106324
0.0108893
0.0111483
0.0114095
0.0116731
0.00102846
0.00133822
0.00162935
0.0019113
0.00218851
0.00246377
0.00273808
0.00301117
0.00328236
0.00355102
0.00381682
0.00407972
0.0043398
0.00459726
0.00485232
0.00510524
0.00535625
0.00560558
0.00585346
0.00610011
0.00634573
0.00659052
0.00683469
0.0070784
0.00732185
0.0075652
0.00780863
0.00805231
0.00829638
0.00854102
0.00878638
0.0090326
0.00927984
0.00952824
0.00977795
0.0100291
0.0102819
0.0105364
0.0107928
0.0110512
0.0113118
0.0115747
0.000920382
0.00122527
0.00152015
0.00180684
0.00208759
0.00236489
0.00264019
0.0029138
0.0031854
0.00345456
0.00372099
0.0039846
0.00424544
0.00450366
0.00475947
0.00501309
0.00526475
0.00551468
0.0057631
0.00601022
0.00625625
0.0065014
0.00674585
0.0069898
0.00723342
0.0074769
0.0077204
0.00796408
0.00820812
0.00845267
0.00869788
0.00894392
0.00919092
0.00943904
0.00968842
0.00993921
0.0101916
0.0104456
0.0107015
0.0109593
0.0112193
0.0114816
0.000816744
0.00111666
0.00141466
0.00170598
0.00199054
0.00227035
0.0025471
0.00282156
0.00309375
0.00336348
0.00363052
0.0038948
0.00415634
0.00441528
0.00467179
0.00492607
0.00517835
0.00542885
0.00567778
0.00592537
0.0061718
0.0064173
0.00666204
0.00690622
0.00715003
0.00739363
0.00763721
0.00788092
0.00812494
0.00836941
0.00861451
0.00886038
0.00910718
0.00935504
0.00960413
0.00985459
0.0101066
0.0103602
0.0106156
0.010873
0.0111324
0.0113941
0.0116581
0.000719366
0.00101331
0.00131353
0.00160925
0.00189778
0.00218041
0.00245895
0.00273452
0.0030075
0.00327788
0.00354555
0.00381048
0.00407269
0.00433229
0.00458945
0.00484436
0.00509723
0.00534827
0.0055977
0.00584573
0.00609256
0.00633839
0.00658342
0.00682784
0.00707183
0.00731557
0.00755923
0.00780298
0.00804699
0.00829141
0.00853642
0.00878215
0.00902876
0.0092764
0.00952523
0.00977538
0.010027
0.0102802
0.0105352
0.0107921
0.0110511
0.0113122
0.0115757
0.0118417
0.000630085
0.000916279
0.00121744
0.00151717
0.00180973
0.00209539
0.00237596
0.00265287
0.00292677
0.00319788
0.00346622
0.00373179
0.00399464
0.00425488
0.00451265
0.00476815
0.00502157
0.00527313
0.00552303
0.00577148
0.00601868
0.00626484
0.00651015
0.0067548
0.00699898
0.00724285
0.00748661
0.00773041
0.00797442
0.00821881
0.00846374
0.00870935
0.0089558
0.00920325
0.00945184
0.00970172
0.00995303
0.0102059
0.0104605
0.010717
0.0109755
0.0112362
0.0114992
0.0117646
0.00055041
0.000826671
0.00112714
0.00143026
0.00172679
0.00201562
0.00229841
0.00257679
0.00285173
0.00312365
0.00339268
0.0036589
0.00392236
0.0041832
0.00444155
0.00469761
0.00495155
0.00520359
0.00545394
0.00570279
0.00595035
0.00619682
0.0064424
0.00668728
0.00693163
0.00717565
0.0074195
0.00766335
0.00790738
0.00815175
0.00839661
0.00864212
0.00888844
0.00913572
0.0093841
0.00963374
0.00988478
0.0101374
0.0103916
0.0106478
0.0109058
0.0111661
0.0114286
0.0116935
0.0119609
0.000481254
0.000745484
0.00104339
0.00134907
0.0016494
0.00194147
0.00222656
0.00250653
0.00278259
0.00305536
0.0033251
0.00359195
0.00385601
0.00411742
0.00437632
0.00463289
0.00488732
0.00513982
0.00539058
0.0056398
0.0058877
0.00613447
0.00638031
0.0066254
0.00686993
0.00711408
0.00735803
0.00760194
0.007846
0.00809035
0.00833516
0.0085806
0.0088268
0.00907393
0.00932213
0.00957155
0.00982235
0.0100747
0.0103286
0.0105844
0.0108421
0.011102
0.011364
0.0116285
0.0118955
0.000422786
0.000673452
0.000966971
0.00127421
0.00157801
0.00187328
0.00216074
0.00244234
0.00271955
0.00299318
0.00326364
0.00353111
0.00379575
0.0040577
0.00431711
0.00457416
0.00482904
0.00508195
0.0053331
0.00558267
0.00583089
0.00607793
0.006324
0.0065693
0.00681399
0.00705828
0.00730232
0.0075463
0.00779039
0.00803473
0.00827951
0.00852488
0.00877098
0.00901799
0.00926603
0.00951527
0.00976585
0.0100179
0.0102716
0.0105271
0.0107845
0.011044
0.0113057
0.0115697
0.0118363
0.0121055
0.00037448
0.000610942
0.000898536
0.00120624
0.00151307
0.00181142
0.00210123
0.00238447
0.00266283
0.00293733
0.00320847
0.00347655
0.00374173
0.00400418
0.00426406
0.00452155
0.00477685
0.00503014
0.00528164
0.00553153
0.00578003
0.00602733
0.00627363
0.00651911
0.00676396
0.00700837
0.0072525
0.00749655
0.00774066
0.00798501
0.00822977
0.00847508
0.0087211
0.008968
0.00921591
0.00946499
0.00971538
0.00996724
0.0102207
0.0104759
0.0107331
0.0109922
0.0112536
0.0115173
0.0117835
0.0120523
0.0123239
0.000335586
0.000557952
0.000838564
0.00114574
0.00145505
0.00175627
0.00204833
0.00233316
0.00261264
0.00288796
0.00315977
0.00342841
0.00369409
0.003957
0.00421731
0.0044752
0.00473087
0.00498451
0.00523632
0.0054865
0.00573526
0.00598279
0.00622928
0.00647493
0.00671993
0.00696445
0.00720867
0.00745278
0.00769692
0.00794128
0.00818602
0.00843129
0.00867725
0.00892405
0.00917185
0.00942079
0.00967103
0.00992271
0.010176
0.010431
0.0106879
0.0109468
0.0112078
0.0114712
0.0117371
0.0120056
0.0122768
0.000305008
0.00051417
0.000787339
0.00109318
0.0014044
0.00170818
0.00200235
0.00228866
0.00256919
0.00284528
0.0031177
0.00338685
0.00365298
0.0039163
0.00417699
0.00443524
0.00469123
0.00494517
0.00519726
0.00544769
0.00569667
0.0059444
0.00619108
0.00643688
0.006682
0.00692662
0.00717093
0.00741508
0.00765926
0.00790364
0.00814836
0.00839359
0.0086395
0.00888623
0.00913393
0.00938276
0.00963287
0.0098844
0.0101375
0.0103923
0.010649
0.0109077
0.0111685
0.0114316
0.0116972
0.0119654
0.0122363
0.000281491
0.000479021
0.000744949
0.00104894
0.00136153
0.0016675
0.00196354
0.0022512
0.00253266
0.00280943
0.00308239
0.00335199
0.00361852
0.00388219
0.00414321
0.00440175
0.00465803
0.00491222
0.00516455
0.0054152
0.00566437
0.00591228
0.0061591
0.00640503
0.00665026
0.00689497
0.00713934
0.00738355
0.00762776
0.00787214
0.00811686
0.00836207
0.00860793
0.0088546
0.00910223
0.00935097
0.00960097
0.00985237
0.0101053
0.01036
0.0106165
0.010875
0.0111356
0.0113985
0.0116639
0.0119318
0.0122025
0.000263842
0.000451812
0.000711323
0.00101332
0.0013268
0.00163454
0.00193215
0.00222096
0.00250322
0.00278057
0.00305398
0.00332395
0.00359081
0.00385478
0.00411606
0.00437485
0.00463135
0.00488576
0.00513828
0.0053891
0.00563844
0.00588648
0.00613342
0.00637946
0.00662478
0.00686957
0.00711399
0.00735824
0.00760248
0.00784687
0.00809158
0.00833678
0.00858261
0.00882923
0.0090768
0.00932547
0.00957538
0.00982668
0.0100795
0.0103341
0.0105904
0.0108488
0.0111093
0.011372
0.0116372
0.0119049
0.0121754
0.0124487
0.000251359
0.000431977
0.000686309
0.000986486
0.00130051
0.00160958
0.00190842
0.00219812
0.00248101
0.00275882
0.00303257
0.00330284
0.00356994
0.00383414
0.00409563
0.00435461
0.00461128
0.00486585
0.00511851
0.00536947
0.00561892
0.00586707
0.00611411
0.00636023
0.00660562
0.00685046
0.00709493
0.00733921
0.00758347
0.00782787
0.00807258
0.00831776
0.00856357
0.00881016
0.00905768
0.0093063
0.00955615
0.00980738
0.0100601
0.0103146
0.0105709
0.0108291
0.0110894
0.0113521
0.0116171
0.0118847
0.012155
0.0124281
0.000243436
0.000419057
0.000669747
0.000968548
0.00128286
0.00159281
0.00189249
0.00218282
0.00246614
0.00274426
0.00301825
0.00328872
0.00355599
0.00382034
0.00408197
0.00434108
0.00459787
0.00485255
0.00510531
0.00535635
0.00560589
0.00585411
0.00610121
0.00634738
0.00659282
0.0068377
0.0070822
0.0073265
0.00757077
0.00781518
0.00805989
0.00830506
0.00855086
0.00879743
0.00904492
0.0092935
0.00954331
0.00979449
0.0100472
0.0103016
0.0105578
0.010816
0.0110762
0.0113388
0.0116037
0.0118712
0.0121414
0.0124144
0.0126905
0.000239596
0.000412694
0.000661505
0.000959566
0.001274
0.0015844
0.0018845
0.00217514
0.00245868
0.00273696
0.00301108
0.00328164
0.00354901
0.00381343
0.00407513
0.00433431
0.00459116
0.00484589
0.0050987
0.00534979
0.00559936
0.00584762
0.00609475
0.00634095
0.00658641
0.00683131
0.00707583
0.00732014
0.00756442
0.00780883
0.00805354
0.00829871
0.00854449
0.00879105
0.00903854
0.0092871
0.00953688
0.00978804
0.0100407
0.0102951
0.0105512
0.0108094
0.0110696
0.0113321
0.011597
0.0118644
0.0121346
0.0124076
0.0126836
0.000239596
0.000412694
0.000661505
0.000959566
0.001274
0.0015844
0.0018845
0.00217514
0.00245868
0.00273696
0.00301108
0.00328164
0.00354901
0.00381343
0.00407513
0.00433431
0.00459116
0.00484589
0.0050987
0.00534979
0.00559936
0.00584762
0.00609475
0.00634095
0.00658641
0.00683131
0.00707583
0.00732014
0.00756442
0.00780883
0.00805354
0.00829871
0.00854449
0.00879105
0.00903854
0.0092871
0.00953688
0.00978804
0.0100407
0.0102951
0.0105512
0.0108094
0.0110696
0.0113321
0.011597
0.0118644
0.0121346
0.0124076
0.0126836
0.0129628
0.000243436
0.000419056
0.000669747
0.000968548
0.00128286
0.00159281
0.00189249
0.00218282
0.00246614
0.00274426
0.00301825
0.00328872
0.00355599
0.00382034
0.00408197
0.00434108
0.00459787
0.00485255
0.00510531
0.00535635
0.00560589
0.00585411
0.00610121
0.00634739
0.00659282
0.0068377
0.0070822
0.0073265
0.00757077
0.00781518
0.00805989
0.00830506
0.00855086
0.00879743
0.00904492
0.0092935
0.00954331
0.00979449
0.0100472
0.0103016
0.0105578
0.010816
0.0110762
0.0113388
0.0116037
0.0118712
0.0121414
0.0124144
0.0126905
0.0129697
0.000251359
0.000431977
0.000686309
0.000986485
0.00130051
0.00160958
0.00190842
0.00219812
0.00248101
0.00275882
0.00303257
0.00330284
0.00356994
0.00383414
0.00409563
0.00435461
0.00461128
0.00486585
0.00511851
0.00536947
0.00561892
0.00586707
0.00611411
0.00636023
0.00660562
0.00685046
0.00709493
0.00733921
0.00758347
0.00782787
0.00807258
0.00831776
0.00856357
0.00881016
0.00905769
0.0093063
0.00955615
0.00980738
0.0100601
0.0103146
0.0105709
0.0108291
0.0110894
0.0113521
0.0116171
0.0118847
0.012155
0.0124281
0.0127043
0.0129837
0.000263841
0.000451812
0.000711323
0.00101332
0.0013268
0.00163454
0.00193215
0.00222096
0.00250322
0.00278057
0.00305398
0.00332395
0.00359081
0.00385478
0.00411606
0.00437485
0.00463135
0.00488576
0.00513828
0.0053891
0.00563844
0.00588648
0.00613342
0.00637946
0.00662478
0.00686957
0.007114
0.00735824
0.00760248
0.00784687
0.00809158
0.00833678
0.00858261
0.00882923
0.0090768
0.00932547
0.00957538
0.00982668
0.0100795
0.0103341
0.0105904
0.0108488
0.0111093
0.011372
0.0116372
0.0119049
0.0121754
0.0124487
0.012725
0.0130046
0.00028149
0.000479021
0.000744948
0.00104894
0.00136153
0.0016675
0.00196353
0.0022512
0.00253266
0.00280943
0.00308239
0.00335199
0.00361852
0.00388219
0.00414321
0.00440175
0.00465803
0.00491222
0.00516455
0.0054152
0.00566437
0.00591228
0.0061591
0.00640503
0.00665026
0.00689497
0.00713935
0.00738355
0.00762776
0.00787214
0.00811686
0.00836207
0.00860793
0.0088546
0.00910223
0.00935097
0.00960097
0.00985237
0.0101053
0.01036
0.0106165
0.010875
0.0111356
0.0113985
0.0116639
0.0119318
0.0122025
0.012476
0.0127526
0.0130324
0.000305007
0.000514169
0.000787338
0.00109318
0.0014044
0.00170818
0.00200234
0.00228866
0.00256919
0.00284528
0.0031177
0.00338684
0.00365298
0.0039163
0.00417699
0.00443524
0.00469123
0.00494517
0.00519726
0.00544769
0.00569668
0.00594441
0.00619108
0.00643688
0.006682
0.00692663
0.00717093
0.00741509
0.00765927
0.00790364
0.00814836
0.0083936
0.0086395
0.00888623
0.00913394
0.00938277
0.00963287
0.0098844
0.0101375
0.0103923
0.010649
0.0109077
0.0111685
0.0114316
0.0116972
0.0119654
0.0122363
0.0125101
0.012787
0.0130671
0.000335586
0.000557951
0.000838563
0.00114574
0.00145505
0.00175627
0.00204833
0.00233316
0.00261264
0.00288796
0.00315977
0.00342841
0.00369409
0.003957
0.00421731
0.0044752
0.00473087
0.00498451
0.00523632
0.0054865
0.00573526
0.00598279
0.00622928
0.00647494
0.00671993
0.00696445
0.00720868
0.00745278
0.00769693
0.00794129
0.00818602
0.00843129
0.00867725
0.00892405
0.00917185
0.0094208
0.00967103
0.00992271
0.010176
0.010431
0.0106879
0.0109468
0.0112078
0.0114712
0.0117371
0.0120056
0.0122768
0.0125509
0.0128282
0.0131086
0.00037448
0.000610942
0.000898535
0.00120624
0.00151307
0.00181142
0.00210123
0.00238446
0.00266283
0.00293732
0.00320847
0.00347655
0.00374173
0.00400418
0.00426406
0.00452155
0.00477685
0.00503014
0.00528164
0.00553153
0.00578003
0.00602733
0.00627363
0.00651911
0.00676396
0.00700837
0.00725251
0.00749655
0.00774066
0.00798502
0.00822977
0.00847508
0.00872111
0.008968
0.00921591
0.00946499
0.00971539
0.00996725
0.0102207
0.0104759
0.0107331
0.0109922
0.0112536
0.0115173
0.0117835
0.0120523
0.0123239
0.0125984
0.0128761
0.0131569
0.000422785
0.000673451
0.00096697
0.0012742
0.001578
0.00187328
0.00216074
0.00244234
0.00271955
0.00299318
0.00326364
0.00353111
0.00379575
0.0040577
0.00431711
0.00457416
0.00482904
0.00508195
0.0053331
0.00558267
0.00583089
0.00607793
0.00632401
0.0065693
0.006814
0.00705828
0.00730233
0.00754631
0.00779039
0.00803474
0.00827952
0.00852488
0.00877099
0.00901799
0.00926603
0.00951527
0.00976586
0.0100179
0.0102716
0.0105271
0.0107845
0.011044
0.0113057
0.0115697
0.0118363
0.0121055
0.0123775
0.0126525
0.0129306
0.013212
0.000481253
0.000745483
0.00104339
0.00134907
0.0016494
0.00194146
0.00222656
0.00250653
0.00278259
0.00305536
0.0033251
0.00359195
0.00385601
0.00411742
0.00437632
0.00463289
0.00488732
0.00513982
0.00539058
0.0056398
0.0058877
0.00613447
0.00638031
0.0066254
0.00686993
0.00711408
0.00735803
0.00760195
0.007846
0.00809035
0.00833517
0.0085806
0.0088268
0.00907393
0.00932213
0.00957156
0.00982235
0.0100747
0.0103286
0.0105844
0.0108421
0.011102
0.011364
0.0116285
0.0118955
0.0121652
0.0124377
0.0127131
0.0129918
0.0132737
0.000550409
0.00082667
0.00112713
0.00143026
0.00172679
0.00201562
0.0022984
0.00257679
0.00285173
0.00312365
0.00339268
0.00365889
0.00392236
0.0041832
0.00444155
0.00469761
0.00495155
0.00520359
0.00545394
0.00570279
0.00595035
0.00619682
0.0064424
0.00668728
0.00693163
0.00717565
0.0074195
0.00766336
0.00790739
0.00815175
0.00839661
0.00864213
0.00888845
0.00913572
0.00938411
0.00963374
0.00988478
0.0101374
0.0103916
0.0106478
0.0109059
0.0111661
0.0114286
0.0116935
0.0119609
0.0122311
0.0125042
0.0127802
0.0130594
0.013342
0.000630084
0.000916277
0.00121744
0.00151717
0.00180972
0.00209538
0.00237596
0.00265286
0.00292677
0.00319788
0.00346622
0.00373179
0.00399464
0.00425488
0.00451265
0.00476815
0.00502157
0.00527313
0.00552303
0.00577148
0.00601869
0.00626485
0.00651016
0.00675481
0.00699898
0.00724286
0.00748661
0.00773041
0.00797443
0.00821882
0.00846374
0.00870935
0.00895581
0.00920326
0.00945185
0.00970172
0.00995304
0.0102059
0.0104606
0.010717
0.0109755
0.0112362
0.0114992
0.0117646
0.0120326
0.0123033
0.012577
0.0128537
0.0131335
0.0134168
0.000719365
0.00101331
0.00131353
0.00160925
0.00189778
0.00218041
0.00245895
0.00273452
0.0030075
0.00327787
0.00354555
0.00381048
0.00407269
0.00433229
0.00458945
0.00484436
0.00509723
0.00534827
0.0055977
0.00584573
0.00609256
0.00633839
0.00658342
0.00682784
0.00707183
0.00731557
0.00755923
0.00780298
0.00804699
0.00829142
0.00853642
0.00878215
0.00902876
0.00927641
0.00952523
0.00977538
0.010027
0.0102802
0.0105352
0.0107921
0.0110511
0.0113122
0.0115757
0.0118417
0.0121103
0.0123817
0.012656
0.0129333
0.0132139
0.013498
0.000816743
0.00111666
0.00141466
0.00170598
0.00199054
0.00227035
0.0025471
0.00282155
0.00309375
0.00336348
0.00363052
0.0038948
0.00415634
0.00441528
0.00467178
0.00492607
0.00517835
0.00542885
0.00567778
0.00592537
0.0061718
0.0064173
0.00666204
0.00690623
0.00715003
0.00739364
0.00763721
0.00788092
0.00812494
0.00836942
0.00861452
0.00886039
0.00910718
0.00935505
0.00960414
0.00985459
0.0101066
0.0103602
0.0106156
0.010873
0.0111324
0.0113941
0.0116581
0.0119247
0.012194
0.012466
0.012741
0.0130192
0.0133006
0.0135854
0.000920381
0.00122527
0.00152015
0.00180684
0.00208758
0.00236489
0.00264019
0.0029138
0.0031854
0.00345456
0.00372099
0.0039846
0.00424544
0.00450366
0.00475947
0.00501309
0.00526475
0.00551468
0.0057631
0.00601022
0.00625626
0.0065014
0.00674586
0.0069898
0.00723343
0.0074769
0.0077204
0.00796409
0.00820812
0.00845267
0.00869789
0.00894392
0.00919092
0.00943904
0.00968843
0.00993922
0.0101916
0.0104456
0.0107015
0.0109594
0.0112193
0.0114816
0.0117463
0.0120135
0.0122835
0.0125563
0.0128321
0.013111
0.0133933
0.013679
0.00102846
0.00133822
0.00162935
0.0019113
0.0021885
0.00246376
0.00273807
0.00301117
0.00328236
0.00355101
0.00381682
0.00407972
0.0043398
0.00459726
0.00485232
0.00510524
0.00535625
0.00560558
0.00585346
0.00610011
0.00634573
0.00659053
0.00683469
0.0070784
0.00732185
0.0075652
0.00780864
0.00805231
0.00829639
0.00854103
0.00878638
0.0090326
0.00927984
0.00952824
0.00977796
0.0100291
0.0102819
0.0105364
0.0107928
0.0110512
0.0113118
0.0115747
0.01184
0.012108
0.0123787
0.0126523
0.0129289
0.0132088
0.0134919
0.0137787
0.00113943
0.00145468
0.00174159
0.00201878
0.00229293
0.00256682
0.00284071
0.00311366
0.00338458
0.00365274
0.00391788
0.00417998
0.00443923
0.00469587
0.00495014
0.00520232
0.00545264
0.00570136
0.00594869
0.00619485
0.00644005
0.00668449
0.00692836
0.00717185
0.00741513
0.00765837
0.00790176
0.00814543
0.00838957
0.00863432
0.00887984
0.00912628
0.00937378
0.0096225
0.00987257
0.0101241
0.0103774
0.0106324
0.0108893
0.0111483
0.0114095
0.0116731
0.0119392
0.0122079
0.0124794
0.0127539
0.0130314
0.0133122
0.0135964
0.0138842
0.00125207
0.00157385
0.00185604
0.00212869
0.00240061
0.00267407
0.00294822
0.00322134
0.00349204
0.00375965
0.00402399
0.00428521
0.00454354
0.00479928
0.00505271
0.00530411
0.00555372
0.0058018
0.00604857
0.00629424
0.00653902
0.00678311
0.00702669
0.00726996
0.00751308
0.00775624
0.00799958
0.00824329
0.00848751
0.00873239
0.0089781
0.00922479
0.00947259
0.00972165
0.00997212
0.0102241
0.0104779
0.0107334
0.0109909
0.0112506
0.0115125
0.0117768
0.0120437
0.0123132
0.0125856
0.012861
0.0131395
0.0134213
0.0137066
0.0139954
0.00136536
0.00169472
0.00197171
0.0022405
0.00251158
0.00278584
0.0030609
0.00333433
0.00360472
0.00387158
0.00413497
0.00439516
0.00465248
0.00490726
0.00515981
0.00541039
0.00565928
0.00590671
0.00615291
0.00639808
0.00664245
0.00688619
0.0071295
0.00737255
0.00761554
0.00785861
0.00810194
0.00834569
0.00859002
0.00883507
0.009081
0.00932795
0.00957608
0.00982553
0.0100764
0.0103289
0.0105832
0.0108393
0.0110975
0.0113578
0.0116205
0.0118856
0.0121533
0.0124237
0.012697
0.0129734
0.0132529
0.0135358
0.0138222
0.0141123
0.00147829
0.00181585
0.0020874
0.002354
0.00262638
0.00290276
0.00317912
0.00345273
0.00372249
0.00398833
0.00425056
0.00450959
0.00476581
0.00501958
0.0052712
0.00552096
0.0057691
0.00601587
0.0062615
0.00650618
0.00675013
0.00699353
0.00723658
0.00747944
0.0077223
0.00796531
0.00820865
0.00845247
0.00869692
0.00894217
0.00918834
0.00943561
0.0096841
0.00993396
0.0101853
0.0104384
0.0106932
0.01095
0.0112088
0.0114699
0.0117333
0.0119992
0.0122678
0.0125392
0.0128135
0.0130909
0.0133716
0.0136556
0.0139432
0.0142345
0.00158941
0.00193504
0.00220205
0.00246983
0.00274627
0.00302577
0.00330322
0.00357644
0.00384509
0.00410958
0.00437045
0.00462821
0.00488327
0.00513599
0.00538666
0.00563557
0.00588296
0.00612907
0.00637412
0.00661832
0.00686186
0.00710494
0.00734774
0.00759043
0.00783318
0.00807616
0.00831952
0.00856344
0.00880805
0.00905351
0.00929997
0.00954757
0.00979645
0.0100468
0.0102987
0.0105523
0.0108077
0.0110651
0.0113247
0.0115866
0.0118508
0.0121177
0.0123872
0.0126595
0.0129349
0.0132134
0.0134952
0.0137805
0.0140693
0.0143619
0.00169614
0.00204904
0.00231556
0.00259021
0.00287324
0.00315566
0.00343316
0.00370509
0.00397209
0.00423495
0.00449433
0.00475075
0.00500461
0.00525624
0.00550595
0.005754
0.00600064
0.0062461
0.00649058
0.00673431
0.00697746
0.00722022
0.00746279
0.00770532
0.00794798
0.00819095
0.00843437
0.0086784
0.0089232
0.00916891
0.00941568
0.00966365
0.00991297
0.0101638
0.0104162
0.0106704
0.0109265
0.0111847
0.011445
0.0117077
0.0119728
0.0122406
0.0125111
0.0127845
0.013061
0.0133407
0.0136237
0.0139102
0.0142004
0.0144944
0.00179303
0.002154
0.00243098
0.00271951
0.00300928
0.00329244
0.00356826
0.00383802
0.00410298
0.00436406
0.00462188
0.00487692
0.00512955
0.0053801
0.00562884
0.00587604
0.00612193
0.00636674
0.00661067
0.00685393
0.0070967
0.00733918
0.00758152
0.00782392
0.00806652
0.0083095
0.008553
0.00879718
0.00904219
0.00928818
0.00953529
0.00978367
0.0100334