/*--------------------------------*- C++ -*----------------------------------*\
  =========                 |
  \\      /  F ield         | OpenFOAM: The Open Source CFD Toolbox
   \\    /   O peration     | Website:  https://openfoam.org
    \\  /    A nd           | Version:  7
     \\/     M anipulation  |
\*---------------------------------------------------------------------------*/
FoamFile
{
    version     2.0;
    format      ascii;
    class       volScalarField;
    location    "268000";
    object      p;
}
// * * * * * * * * * * * * * * * * * * * * * * * * * * * * * * * * * * * * * //

dimensions      [0 2 -2 0 0 0 0];

internalField   nonuniform List<scalar> 
4844
(
-3.34418e-20
-7.38381e-19
-6.19553e-19
-6.05848e-19
-7.58774e-19
-6.18019e-19
-6.04442e-19
-5.99393e-19
-5.70246e-19
-5.64162e-19
-5.52735e-19
-7.11652e-19
-7.34986e-19
-6.24586e-19
-6.1095e-19
-5.94705e-19
-5.6086e-19
-5.69685e-19
-5.49944e-19
-5.3282e-19
-5.16457e-19
-5.17016e-19
-6.70309e-19
-6.74747e-19
-6.27657e-19
-6.09952e-19
-6.0006e-19
-5.65562e-19
-5.66889e-19
-5.56956e-19
-5.42865e-19
-5.40369e-19
-5.11427e-19
-5.03511e-19
-4.99654e-19
-4.80966e-19
-5.05491e-19
-4.92816e-19
-6.36504e-19
-6.55383e-19
-6.14798e-19
-6.00377e-19
-5.88969e-19
-5.53016e-19
-5.78119e-19
-5.44557e-19
-5.39388e-19
-5.42542e-19
-5.14913e-19
-5.10138e-19
-4.9308e-19
-4.97828e-19
-5.01734e-19
-4.92869e-19
-6.17699e-19
-6.34784e-19
-6.06154e-19
-6.07328e-19
-5.7143e-19
-5.52335e-19
-5.62756e-19
-5.35896e-19
-5.39962e-19
-5.31843e-19
-5.15775e-19
-5.10509e-19
-4.86711e-19
-5.07305e-19
-4.96089e-19
-4.81181e-19
-6.37342e-19
-6.10481e-19
-5.92356e-19
-5.71158e-19
-5.52604e-19
-5.56916e-19
-5.31031e-19
-5.41783e-19
-5.1746e-19
-5.13506e-19
-5.13088e-19
-4.89618e-19
-5.13087e-19
-4.90411e-19
-4.878e-19
-6.3449e-19
-6.11019e-19
-5.89545e-19
-5.7315e-19
-5.59386e-19
-5.59259e-19
-5.28927e-19
-5.40704e-19
-5.2439e-19
-5.2037e-19
-5.11718e-19
-5.10466e-19
-5.09023e-19
-4.80189e-19
-4.84639e-19
-6.23183e-19
-5.99722e-19
-5.79281e-19
-5.72651e-19
-5.57543e-19
-5.58014e-19
-5.31222e-19
-5.42865e-19
-5.18365e-19
-5.18238e-19
-5.05279e-19
-5.10264e-19
-5.0244e-19
-4.69165e-19
-4.95197e-19
-6.07343e-19
-6.12229e-19
-5.88274e-19
-5.74554e-19
-5.68573e-19
-5.49472e-19
-5.57811e-19
-5.42832e-19
-5.39561e-19
-5.18848e-19
-5.19743e-19
-5.05588e-19
-4.86239e-19
-4.85628e-19
-4.79896e-19
-4.91291e-19
-6.11908e-19
-6.11128e-19
-5.8702e-19
-5.69182e-19
-5.74852e-19
-5.51768e-19
-5.47014e-19
-5.5061e-19
-5.20075e-19
-5.19592e-19
-5.13703e-19
-4.97172e-19
-4.87043e-19
-4.79176e-19
-4.77775e-19
-4.75824e-19
-5.98542e-19
-6.01505e-19
-5.80792e-19
-5.70298e-19
-5.68654e-19
-5.49878e-19
-5.52928e-19
-5.37416e-19
-5.19773e-19
-5.14459e-19
-5.10975e-19
-5.01716e-19
-4.98446e-19
-4.78362e-19
-4.71224e-19
-4.73704e-19
-5.95435e-19
-5.96538e-19
-5.73815e-19
-5.74846e-19
-5.64062e-19
-5.43967e-19
-5.58247e-19
-5.35262e-19
-5.24958e-19
-5.199e-19
-5.1538e-19
-5.0563e-19
-4.87525e-19
-4.80469e-19
-4.68179e-19
-4.75693e-19
-5.95429e-19
-5.91954e-19
-5.89585e-19
-5.64871e-19
-5.78382e-19
-5.62332e-19
-5.39198e-19
-5.47858e-19
-5.27914e-19
-5.29908e-19
-5.29181e-19
-5.05265e-19
-5.06016e-19
-4.90552e-19
-4.83213e-19
-4.76138e-19
-4.804e-19
-5.88335e-19
-5.8634e-19
-5.8066e-19
-5.75667e-19
-5.76134e-19
-5.61186e-19
-5.37834e-19
-5.48459e-19
-5.33353e-19
-5.20506e-19
-5.19687e-19
-5.20134e-19
-5.03601e-19
-4.88886e-19
-4.90364e-19
-4.89133e-19
-4.77454e-19
-5.91513e-19
-5.81505e-19
-5.83223e-19
-5.78139e-19
-5.83752e-19
-5.64847e-19
-5.60943e-19
-5.45818e-19
-5.40997e-19
-5.38492e-19
-5.2214e-19
-5.1062e-19
-5.26058e-19
-4.92664e-19
-4.92259e-19
-4.8356e-19
-4.88378e-19
-4.71807e-19
-5.81826e-19
-5.79926e-19
-5.78708e-19
-5.68842e-19
-5.87651e-19
-5.62405e-19
-5.49664e-19
-5.40614e-19
-5.2137e-19
-5.34921e-19
-5.25162e-19
-5.03415e-19
-5.09727e-19
-4.91727e-19
-5.04332e-19
-4.85465e-19
-4.81088e-19
-4.63147e-19
-5.90997e-19
-5.76311e-19
-5.70955e-19
-5.65374e-19
-5.75142e-19
-5.57019e-19
-5.50118e-19
-5.34308e-19
-5.33229e-19
-5.37278e-19
-5.28958e-19
-5.01789e-19
-5.05296e-19
-4.81026e-19
-4.99012e-19
-4.82049e-19
-4.7479e-19
-4.64031e-19
-5.82393e-19
-5.64224e-19
-5.75163e-19
-5.70436e-19
-5.60977e-19
-5.56906e-19
-5.51254e-19
-5.40804e-19
-5.44505e-19
-5.32504e-19
-5.24299e-19
-4.96051e-19
-5.10715e-19
-4.88636e-19
-4.90308e-19
-4.70501e-19
-4.82744e-19
-4.72693e-19
-5.78163e-19
-5.63732e-19
-5.7096e-19
-5.77657e-19
-5.69659e-19
-5.62676e-19
-5.45025e-19
-5.40517e-19
-5.39367e-19
-5.29281e-19
-5.15403e-19
-4.972e-19
-5.1301e-19
-4.92435e-19
-4.90623e-19
-4.76382e-19
-4.92228e-19
-4.71056e-19
-5.76146e-19
-5.73119e-19
-5.70584e-19
-5.59303e-19
-5.59237e-19
-5.50129e-19
-5.39885e-19
-5.38107e-19
-5.32971e-19
-5.22574e-19
-5.10846e-19
-5.01871e-19
-5.13941e-19
-4.98686e-19
-4.89823e-19
-4.74669e-19
-4.85063e-19
-4.68293e-19
-5.81202e-19
-5.71145e-19
-5.72562e-19
-5.55302e-19
-5.49598e-19
-5.47153e-19
-5.28733e-19
-5.35943e-19
-5.23231e-19
-5.16155e-19
-5.11902e-19
-5.01481e-19
-5.16514e-19
-4.91448e-19
-4.85735e-19
-4.73139e-19
-4.77755e-19
-4.64644e-19
-5.82746e-19
-5.66602e-19
-5.68424e-19
-5.65307e-19
-5.52701e-19
-5.48916e-19
-5.39919e-19
-5.34991e-19
-5.22415e-19
-5.17049e-19
-5.11575e-19
-5.04971e-19
-5.10444e-19
-4.92332e-19
-4.93124e-19
-4.77631e-19
-4.679e-19
-4.65368e-19
-5.75883e-19
-5.64659e-19
-5.71962e-19
-5.6491e-19
-5.47954e-19
-5.49261e-19
-5.48819e-19
-5.27185e-19
-5.23099e-19
-5.23322e-19
-5.09464e-19
-5.00503e-19
-5.11219e-19
-4.93971e-19
-4.8708e-19
-4.81707e-19
-4.7735e-19
-4.67165e-19
-5.74808e-19
-5.65252e-19
-5.70953e-19
-5.61559e-19
-5.56469e-19
-5.51442e-19
-5.37458e-19
-5.30935e-19
-5.25365e-19
-5.21463e-19
-5.15845e-19
-4.93077e-19
-4.95911e-19
-4.86262e-19
-4.84593e-19
-4.75526e-19
-4.97469e-19
-4.60924e-19
-5.63467e-19
-5.64985e-19
-5.63772e-19
-5.56343e-19
-5.61386e-19
-5.46942e-19
-5.3112e-19
-5.32944e-19
-5.27423e-19
-5.12778e-19
-5.17784e-19
-4.82425e-19
-4.90283e-19
-4.90585e-19
-4.89402e-19
-4.73167e-19
-4.94443e-19
-4.66074e-19
-5.64054e-19
-5.64882e-19
-5.60473e-19
-5.50572e-19
-5.58688e-19
-5.46018e-19
-5.37768e-19
-5.40524e-19
-5.33366e-19
-5.27208e-19
-5.16607e-19
-4.93747e-19
-5.02403e-19
-5.06908e-19
-4.96505e-19
-4.85706e-19
-4.78508e-19
-4.63067e-19
-5.72816e-19
-5.66733e-19
-5.55794e-19
-5.5075e-19
-5.50314e-19
-5.41535e-19
-5.35274e-19
-5.33229e-19
-5.32457e-19
-5.24666e-19
-5.12683e-19
-4.96703e-19
-5.01086e-19
-5.06783e-19
-4.91717e-19
-4.85931e-19
-4.74773e-19
-4.62659e-19
-5.71306e-19
-5.60381e-19
-5.57627e-19
-5.52336e-19
-5.4248e-19
-5.47127e-19
-5.42589e-19
-5.2586e-19
-5.15261e-19
-5.25754e-19
-5.08985e-19
-4.90329e-19
-4.94616e-19
-4.86034e-19
-4.88292e-19
-4.74933e-19
-4.82779e-19
-4.61421e-19
-5.73284e-19
-5.6532e-19
-5.52955e-19
-5.55767e-19
-5.42304e-19
-5.38288e-19
-5.47119e-19
-5.39617e-19
-5.20263e-19
-5.10064e-19
-5.10345e-19
-4.83039e-19
-5.05112e-19
-4.81344e-19
-4.84092e-19
-4.78016e-19
-4.92087e-19
-4.70106e-19
-5.78485e-19
-5.63737e-19
-5.68787e-19
-5.62338e-19
-5.61547e-19
-5.46506e-19
-5.28987e-19
-5.47531e-19
-5.29372e-19
-5.24667e-19
-5.03847e-19
-5.17859e-19
-4.88247e-19
-5.07782e-19
-4.8194e-19
-4.91551e-19
-4.70495e-19
-4.78867e-19
-4.71731e-19
-5.7191e-19
-5.64724e-19
-5.67925e-19
-5.60063e-19
-5.56644e-19
-5.55551e-19
-5.2941e-19
-5.46302e-19
-5.17086e-19
-5.202e-19
-5.09016e-19
-5.1603e-19
-4.92825e-19
-4.97964e-19
-4.81158e-19
-4.93798e-19
-4.75834e-19
-4.67984e-19
-4.6286e-19
-5.70317e-19
-5.71587e-19
-5.70022e-19
-5.64356e-19
-5.5444e-19
-5.53335e-19
-5.56088e-19
-5.39016e-19
-5.40665e-19
-5.1939e-19
-5.18006e-19
-5.05517e-19
-5.17033e-19
-4.86747e-19
-5.01682e-19
-4.76121e-19
-4.92559e-19
-4.68149e-19
-4.70999e-19
-4.53961e-19
-5.77843e-19
-5.6669e-19
-5.67582e-19
-5.59429e-19
-5.51662e-19
-5.53037e-19
-5.48087e-19
-5.3369e-19
-5.40718e-19
-5.20861e-19
-5.16244e-19
-5.02654e-19
-5.10376e-19
-4.83667e-19
-5.0081e-19
-4.83401e-19
-4.95803e-19
-4.53509e-19
-4.87098e-19
-4.60374e-19
-5.85053e-19
-5.65996e-19
-5.68636e-19
-5.5919e-19
-5.54729e-19
-5.51436e-19
-5.48248e-19
-5.29159e-19
-5.44916e-19
-5.15589e-19
-5.24035e-19
-5.01996e-19
-5.03571e-19
-4.75993e-19
-5.01378e-19
-4.9105e-19
-5.02434e-19
-4.69699e-19
-4.94607e-19
-4.6352e-19
-5.75585e-19
-5.72083e-19
-5.59473e-19
-5.55723e-19
-5.50097e-19
-5.46807e-19
-5.44433e-19
-5.15792e-19
-5.40192e-19
-5.13537e-19
-5.25325e-19
-5.03441e-19
-5.05468e-19
-4.86085e-19
-5.06158e-19
-4.72367e-19
-5.01809e-19
-4.8502e-19
-4.75453e-19
-4.62462e-19
-5.77889e-19
-5.7693e-19
-5.60615e-19
-5.61386e-19
-5.48417e-19
-5.40714e-19
-5.46114e-19
-5.12631e-19
-5.46386e-19
-5.13106e-19
-5.26319e-19
-5.02532e-19
-5.0516e-19
-4.82816e-19
-5.03779e-19
-4.79765e-19
-4.9548e-19
-4.74848e-19
-4.81591e-19
-4.63743e-19
-5.81176e-19
-5.82266e-19
-5.5815e-19
-5.57101e-19
-5.48037e-19
-5.40154e-19
-5.49189e-19
-5.27768e-19
-5.40092e-19
-5.11036e-19
-5.16849e-19
-5.06639e-19
-5.10029e-19
-4.70785e-19
-4.9868e-19
-4.84187e-19
-4.74228e-19
-4.55417e-19
-4.79989e-19
-4.72813e-19
-5.86787e-19
-5.78174e-19
-5.65148e-19
-5.66291e-19
-5.49079e-19
-5.4486e-19
-5.53301e-19
-5.35707e-19
-5.39589e-19
-5.13632e-19
-5.24e-19
-5.16053e-19
-5.10394e-19
-4.76872e-19
-5.00743e-19
-4.69762e-19
-4.93582e-19
-4.54862e-19
-4.73682e-19
-4.47913e-19
-5.83427e-19
-5.8007e-19
-5.73024e-19
-5.64419e-19
-5.39595e-19
-5.44778e-19
-5.46715e-19
-5.24184e-19
-5.31469e-19
-5.05055e-19
-5.27365e-19
-5.03833e-19
-5.00327e-19
-4.86773e-19
-4.90214e-19
-4.78027e-19
-4.935e-19
-4.72143e-19
-4.70009e-19
-4.60885e-19
-5.86772e-19
-5.7352e-19
-5.62351e-19
-5.58834e-19
-5.49149e-19
-5.41952e-19
-5.43808e-19
-5.20341e-19
-5.20308e-19
-5.12034e-19
-5.2362e-19
-5.00974e-19
-5.00583e-19
-4.79267e-19
-4.99861e-19
-4.7136e-19
-4.80641e-19
-4.72075e-19
-4.83219e-19
-4.66035e-19
-5.8004e-19
-5.81027e-19
-5.61397e-19
-5.60545e-19
-5.52898e-19
-5.4446e-19
-5.44515e-19
-5.26998e-19
-5.30455e-19
-5.1692e-19
-5.22305e-19
-5.03073e-19
-5.06933e-19
-4.69248e-19
-4.88745e-19
-4.60907e-19
-4.80796e-19
-4.56457e-19
-4.71234e-19
-4.77366e-19
-5.74095e-19
-5.80755e-19
-5.58493e-19
-5.54144e-19
-5.51112e-19
-5.54955e-19
-5.42978e-19
-5.30218e-19
-5.29968e-19
-5.21165e-19
-5.21694e-19
-5.00399e-19
-5.02092e-19
-4.76783e-19
-4.85857e-19
-4.58822e-19
-4.79418e-19
-4.57472e-19
-4.66405e-19
-4.599e-19
-5.76909e-19
-5.77236e-19
-5.6329e-19
-5.47786e-19
-5.54618e-19
-5.49433e-19
-5.4421e-19
-5.37105e-19
-5.26997e-19
-5.15619e-19
-5.19003e-19
-5.05234e-19
-5.06132e-19
-4.72541e-19
-4.86649e-19
-4.6218e-19
-4.76503e-19
-4.58999e-19
-4.67211e-19
-4.55669e-19
-5.77652e-19
-5.78215e-19
-5.66718e-19
-5.52994e-19
-5.57061e-19
-5.45327e-19
-5.44152e-19
-5.346e-19
-5.25422e-19
-5.17747e-19
-5.12818e-19
-4.97669e-19
-4.99088e-19
-4.79083e-19
-4.99001e-19
-4.63139e-19
-4.8101e-19
-4.63768e-19
-4.61917e-19
-4.62586e-19
-5.75092e-19
-5.79514e-19
-5.70159e-19
-5.49683e-19
-5.59882e-19
-5.37015e-19
-5.41679e-19
-5.29474e-19
-5.23833e-19
-5.13192e-19
-5.14857e-19
-4.97641e-19
-4.96639e-19
-4.79365e-19
-4.95605e-19
-4.61425e-19
-4.75916e-19
-4.56445e-19
-4.66965e-19
-4.55225e-19
-5.73199e-19
-5.82473e-19
-5.686e-19
-5.574e-19
-5.59597e-19
-5.46393e-19
-5.39677e-19
-5.38583e-19
-5.2628e-19
-5.13595e-19
-5.19947e-19
-5.0235e-19
-4.88144e-19
-4.76236e-19
-4.80567e-19
-4.47089e-19
-4.80683e-19
-4.61262e-19
-4.55875e-19
-4.57573e-19
-5.75743e-19
-5.82097e-19
-5.70877e-19
-5.59504e-19
-5.57124e-19
-5.51618e-19
-5.38851e-19
-5.40139e-19
-5.24843e-19
-5.16116e-19
-5.30655e-19
-4.97936e-19
-4.88599e-19
-4.70235e-19
-4.89415e-19
-4.49143e-19
-4.77794e-19
-4.6066e-19
-4.69942e-19
-4.7215e-19
-5.75023e-19
-5.7577e-19
-5.69299e-19
-5.52438e-19
-5.62408e-19
-5.55675e-19
-5.37693e-19
-5.37001e-19
-5.27077e-19
-5.20598e-19
-5.29663e-19
-4.84239e-19
-5.00556e-19
-4.60919e-19
-4.73264e-19
-4.52154e-19
-4.78367e-19
-4.50854e-19
-4.69152e-19
-4.59757e-19
-5.72506e-19
-5.68437e-19
-5.65475e-19
-5.6119e-19
-5.60478e-19
-5.57428e-19
-5.39907e-19
-5.37869e-19
-5.24202e-19
-5.10948e-19
-5.24915e-19
-4.86763e-19
-4.97478e-19
-4.64146e-19
-4.76533e-19
-4.34475e-19
-4.82535e-19
-4.57321e-19
-4.6279e-19
-4.583e-19
-5.77054e-19
-5.73608e-19
-5.58011e-19
-5.64782e-19
-5.53662e-19
-5.55777e-19
-5.40508e-19
-5.32809e-19
-5.22586e-19
-5.1681e-19
-5.22576e-19
-4.7597e-19
-4.99064e-19
-4.70047e-19
-4.8327e-19
-4.38205e-19
-4.74847e-19
-4.51007e-19
-4.67536e-19
-4.57862e-19
-5.71294e-19
-5.76526e-19
-5.62412e-19
-5.63817e-19
-5.50312e-19
-5.48426e-19
-5.40945e-19
-5.33957e-19
-5.19689e-19
-5.16292e-19
-5.31034e-19
-4.8561e-19
-4.92056e-19
-4.67819e-19
-4.85127e-19
-4.55795e-19
-4.80301e-19
-4.50017e-19
-4.83403e-19
-4.52388e-19
-5.72273e-19
-5.7861e-19
-5.61587e-19
-5.65598e-19
-5.61235e-19
-5.46106e-19
-5.41369e-19
-5.24435e-19
-5.20204e-19
-5.10636e-19
-5.31048e-19
-4.83338e-19
-4.91657e-19
-4.58891e-19
-4.87924e-19
-4.57929e-19
-4.70194e-19
-4.54926e-19
-4.75619e-19
-4.54278e-19
-5.7143e-19
-5.71597e-19
-5.63923e-19
-5.57998e-19
-5.6033e-19
-5.4479e-19
-5.38472e-19
-5.25458e-19
-5.22e-19
-5.09177e-19
-5.2297e-19
-4.85904e-19
-4.9439e-19
-4.69961e-19
-4.84786e-19
-4.60388e-19
-4.67697e-19
-4.55651e-19
-4.75627e-19
-4.62402e-19
-5.64228e-19
-5.74264e-19
-5.62664e-19
-5.57394e-19
-5.66839e-19
-5.5269e-19
-5.41598e-19
-5.27462e-19
-5.23952e-19
-5.16531e-19
-5.18268e-19
-4.81788e-19
-4.80346e-19
-4.60549e-19
-4.85837e-19
-4.55364e-19
-4.70161e-19
-4.54671e-19
-4.78509e-19
-4.63967e-19
-5.63284e-19
-5.51175e-19
-5.47051e-19
-5.26942e-19
-5.29399e-19
-5.12125e-19
-5.21197e-19
-4.87374e-19
-4.83916e-19
-4.58423e-19
-4.74208e-19
-4.47365e-19
-4.5958e-19
-4.53064e-19
-4.7528e-19
-4.70346e-19
-5.27168e-19
-5.08438e-19
-5.13549e-19
-4.9011e-19
-4.85575e-19
-4.73525e-19
-4.62277e-19
-4.37743e-19
-4.68419e-19
-4.53234e-19
-4.75861e-19
-4.66149e-19
-4.8098e-19
-4.85688e-19
-4.67387e-19
-4.90456e-19
-4.74442e-19
-4.8795e-19
-4.80896e-19
-5.00192e-19
-4.75283e-19
-4.8493e-19
-5.05748e-19
-4.7996e-19
-4.81146e-19
-4.96299e-19
-4.68592e-19
-4.87423e-19
-4.82682e-19
-4.90518e-19
-4.86559e-19
-5.01408e-19
-4.89839e-19
-4.87775e-19
-4.81612e-19
-4.9975e-19
-4.92029e-19
-4.83579e-19
-4.82943e-19
-4.92952e-19
-4.82834e-19
-4.8787e-19
-4.94742e-19
-4.83836e-19
-4.79901e-19
-4.80457e-19
-4.79573e-19
-4.91069e-19
-4.82343e-19
-4.92253e-19
-4.85647e-19
-4.74073e-19
-4.76995e-19
-4.84791e-19
-5.01576e-19
-4.90234e-19
-4.70649e-19
-4.83616e-19
-4.78666e-19
-5.06944e-19
-4.8033e-19
-4.63729e-19
-5.09833e-19
-4.82282e-19
-4.91512e-19
-4.77504e-19
-4.69042e-19
-5.05005e-19
-4.85852e-19
-4.92501e-19
-4.87852e-19
-4.90481e-19
-4.78525e-19
-5.08993e-19
-4.87743e-19
-4.97818e-19
-4.77764e-19
-4.86113e-19
-4.6688e-19
-5.05098e-19
-4.8242e-19
-4.9591e-19
-4.77033e-19
-4.85483e-19
-4.59569e-19
-4.8439e-19
-4.92287e-19
-4.87356e-19
-4.93999e-19
-4.83612e-19
-4.8496e-19
-4.74929e-19
-4.69692e-19
-4.799e-19
-5.01189e-19
-4.82917e-19
-4.94607e-19
-4.93011e-19
-4.76274e-19
-4.82846e-19
-4.61101e-19
-4.52495e-19
-4.79831e-19
-5.01751e-19
-4.7722e-19
-4.87326e-19
-4.7226e-19
-4.76685e-19
-4.76745e-19
-4.50369e-19
-4.41025e-19
-4.46737e-19
-4.80865e-19
-4.94516e-19
-4.78329e-19
-4.91628e-19
-4.64305e-19
-4.73853e-19
-4.6528e-19
-4.60796e-19
-4.54388e-19
-4.54724e-19
-4.78592e-19
-5.01808e-19
-4.92876e-19
-4.97756e-19
-4.84599e-19
-4.83705e-19
-4.68735e-19
-4.64342e-19
-4.60554e-19
-4.61997e-19
-4.83803e-19
-4.89242e-19
-4.82166e-19
-4.86564e-19
-4.77805e-19
-4.81028e-19
-4.7171e-19
-4.61247e-19
-4.61407e-19
-4.65319e-19
-4.86519e-19
-4.90358e-19
-4.80796e-19
-4.79258e-19
-4.78637e-19
-4.64369e-19
-4.72973e-19
-4.65835e-19
-4.62105e-19
-4.58438e-19
-4.90284e-19
-4.92137e-19
-4.71278e-19
-4.79848e-19
-4.78495e-19
-4.6292e-19
-4.66839e-19
-4.62251e-19
-4.56441e-19
-4.58805e-19
-4.87874e-19
-4.88524e-19
-4.85679e-19
-4.76225e-19
-4.69496e-19
-4.66907e-19
-4.75333e-19
-4.57237e-19
-4.58358e-19
-4.56998e-19
-4.94855e-19
-4.71118e-19
-5.00041e-19
-4.6973e-19
-4.66511e-19
-4.7033e-19
-4.69368e-19
-4.562e-19
-4.57217e-19
-4.60796e-19
-4.85272e-19
-4.71713e-19
-4.83017e-19
-4.63906e-19
-4.5564e-19
-4.64736e-19
-4.63954e-19
-4.56159e-19
-4.51421e-19
-4.53427e-19
-4.76355e-19
-4.8344e-19
-4.70377e-19
-4.66581e-19
-4.62287e-19
-4.61111e-19
-4.55868e-19
-4.48468e-19
-4.49982e-19
-4.53283e-19
-4.74184e-19
-4.76626e-19
-4.69391e-19
-4.6466e-19
-4.67284e-19
-4.57784e-19
-4.50934e-19
-4.50944e-19
-4.45502e-19
-4.57329e-19
-4.65779e-19
-4.75911e-19
-4.7699e-19
-4.6691e-19
-4.6101e-19
-4.50053e-19
-4.50186e-19
-4.47708e-19
-4.50738e-19
-4.57023e-19
-4.86059e-19
-4.74076e-19
-4.82e-19
-4.59021e-19
-4.67917e-19
-4.43527e-19
-4.48056e-19
-4.4721e-19
-4.47136e-19
-4.47858e-19
-4.73256e-19
-4.88715e-19
-4.8362e-19
-4.80673e-19
-4.80654e-19
-4.82871e-19
-4.82424e-19
-4.76811e-19
-4.78556e-19
-4.86889e-19
-4.93738e-19
-5.03796e-19
-5.09719e-19
-5.17712e-19
-5.13868e-19
-5.06156e-19
-5.12892e-19
-4.96074e-19
-5.08391e-19
-5.06518e-19
-5.03983e-19
-5.0856e-19
-4.98026e-19
-4.92034e-19
-4.85397e-19
-4.8531e-19
-4.76178e-19
-4.83882e-19
-4.91121e-19
-4.90396e-19
-4.96154e-19
-4.74892e-19
-4.65184e-19
-4.6233e-19
-4.76147e-19
-4.57735e-19
-4.50552e-19
-4.61743e-19
-4.6922e-19
-4.73924e-19
-4.82462e-19
-4.76192e-19
-4.79247e-19
-5.02923e-19
-4.92004e-19
-4.65966e-19
-4.73467e-19
-4.69255e-19
-4.71478e-19
-4.84644e-19
-4.76608e-19
-4.77153e-19
-4.80818e-19
-4.73423e-19
-4.84306e-19
-4.80172e-19
-4.75705e-19
-4.76772e-19
-4.93033e-19
-4.92705e-19
-4.783e-19
-4.82429e-19
-4.80449e-19
-4.79508e-19
-4.74493e-19
-4.74639e-19
-4.73466e-19
-4.75157e-19
-4.78845e-19
-4.77577e-19
-4.84536e-19
-4.64806e-19
-4.71177e-19
-4.70554e-19
-4.7557e-19
-4.76641e-19
-4.75293e-19
-4.81297e-19
-4.76315e-19
-4.73784e-19
-4.75263e-19
-4.84754e-19
-4.78367e-19
-4.81218e-19
-4.86637e-19
-4.86349e-19
-4.70519e-19
-4.77643e-19
-4.74906e-19
-4.84552e-19
-4.74624e-19
-4.60228e-19
-4.75957e-19
-4.87493e-19
-4.86121e-19
-4.77812e-19
-4.75198e-19
-4.87642e-19
-4.79542e-19
-4.70157e-19
-4.71373e-19
-4.7246e-19
-4.86422e-19
-4.50075e-19
-4.58656e-19
-4.5406e-19
-4.53092e-19
-4.61874e-19
-4.56277e-19
-4.51843e-19
-4.53874e-19
-4.60012e-19
-4.72803e-19
-4.61843e-19
-4.55881e-19
-4.54262e-19
-4.70486e-19
-4.69443e-19
-4.6503e-19
-4.67019e-19
-4.64332e-19
-4.64572e-19
-4.73118e-19
-4.70559e-19
-4.70033e-19
-4.74797e-19
-4.76584e-19
-4.72728e-19
-4.75132e-19
-4.80587e-19
-4.85384e-19
-4.81631e-19
-4.82457e-19
-4.792e-19
-4.8471e-19
-4.8802e-19
-4.73766e-19
-4.7217e-19
-4.6825e-19
-4.70912e-19
-4.80212e-19
-4.67979e-19
-4.61131e-19
-4.64522e-19
-4.62995e-19
-4.62785e-19
-4.61854e-19
-4.58664e-19
-4.60985e-19
-4.64449e-19
-4.70175e-19
-4.62901e-19
-4.57817e-19
-4.68128e-19
-4.70991e-19
-4.60899e-19
-4.69134e-19
-4.71219e-19
-4.63914e-19
-4.52093e-19
-4.73633e-19
-4.82163e-19
-4.62307e-19
-4.65941e-19
-4.63281e-19
-4.615e-19
-4.70115e-19
-4.74135e-19
-4.86107e-19
-4.77794e-19
-4.69889e-19
-4.74859e-19
-4.74008e-19
-4.71566e-19
-4.63351e-19
-4.58736e-19
-4.69945e-19
-4.69097e-19
-4.68272e-19
-4.54877e-19
-4.53918e-19
-4.55381e-19
-4.58381e-19
-4.69857e-19
-4.70568e-19
-4.51813e-19
-4.56315e-19
-4.42564e-19
-4.52841e-19
-4.57777e-19
-4.57951e-19
-4.54715e-19
-4.45164e-19
-4.50166e-19
-4.52401e-19
-4.53157e-19
-4.50394e-19
-4.59131e-19
-4.58901e-19
-4.60491e-19
-4.496e-19
-4.51379e-19
-4.65735e-19
-4.65065e-19
-4.63763e-19
-4.58651e-19
-4.62747e-19
-4.64752e-19
-4.66363e-19
-4.70879e-19
-4.72682e-19
-4.61999e-19
-4.7362e-19
-4.65211e-19
-4.67038e-19
-4.6912e-19
-4.71352e-19
-4.76137e-19
-4.58527e-19
-4.45782e-19
-4.51509e-19
-4.55537e-19
-4.51933e-19
-4.57962e-19
-4.67889e-19
-4.52996e-19
-4.51155e-19
-4.4992e-19
-4.60985e-19
-4.53705e-19
-4.54259e-19
-4.53663e-19
-4.52368e-19
-4.59837e-19
-4.66748e-19
-4.50809e-19
-4.40436e-19
-4.43814e-19
-4.53764e-19
-4.48289e-19
-4.44361e-19
-4.41511e-19
-4.47012e-19
-4.39008e-19
-4.43485e-19
-4.53073e-19
-4.59217e-19
-4.6215e-19
-4.60808e-19
-4.62218e-19
-4.59278e-19
-4.56452e-19
-4.51841e-19
-4.54942e-19
-4.60412e-19
-4.7481e-19
-4.71165e-19
-4.50914e-19
-4.54624e-19
-4.65079e-19
-4.45549e-19
-4.47818e-19
-4.47411e-19
-4.32238e-19
-4.38325e-19
-4.50949e-19
-4.44054e-19
-4.46824e-19
-4.4816e-19
-4.40676e-19
-4.44285e-19
-4.31898e-19
-4.42997e-19
-4.43961e-19
-4.48682e-19
-4.56142e-19
-4.65739e-19
-4.54227e-19
-4.49448e-19
-4.52842e-19
-4.48725e-19
-4.49872e-19
-4.52587e-19
-4.52808e-19
-4.5197e-19
-4.5852e-19
-4.54643e-19
-4.56218e-19
-4.53335e-19
-4.54293e-19
-4.54939e-19
-4.56683e-19
-4.53152e-19
-4.61964e-19
-4.61919e-19
-4.60748e-19
-4.30963e-19
-4.39143e-19
-4.45981e-19
-4.38993e-19
-4.45647e-19
-4.62517e-19
-4.43571e-19
-4.40005e-19
-4.40543e-19
-4.42447e-19
-4.50396e-19
-4.56792e-19
-4.6043e-19
-4.5347e-19
-4.49857e-19
-4.45347e-19
-4.46114e-19
-4.54055e-19
-4.58961e-19
-4.69314e-19
-4.59451e-19
-4.53246e-19
-4.47282e-19
-4.45765e-19
-4.51662e-19
-4.49621e-19
-4.50411e-19
-4.5573e-19
-4.56648e-19
-4.60658e-19
-4.55112e-19
-4.58655e-19
-4.58227e-19
-4.6229e-19
-4.55694e-19
-4.4644e-19
-4.44917e-19
-4.42628e-19
-4.48843e-19
-4.50412e-19
-4.57129e-19
-4.51746e-19
-4.48322e-19
-4.47941e-19
-4.48292e-19
-4.47582e-19
-4.45427e-19
-4.39734e-19
-4.37573e-19
-4.46092e-19
-4.48601e-19
-4.41563e-19
-4.39002e-19
-4.51947e-19
-4.52796e-19
-4.47471e-19
-4.49451e-19
-4.5485e-19
-4.67107e-19
-4.60573e-19
-4.54515e-19
-4.52434e-19
-4.55701e-19
-4.53207e-19
-4.5448e-19
-4.48868e-19
-4.5412e-19
-4.51898e-19
-4.45011e-19
-4.42929e-19
-4.51823e-19
-4.53276e-19
-4.53341e-19
-4.54627e-19
-4.57235e-19
-4.58692e-19
-4.5127e-19
-4.53307e-19
-4.4457e-19
-4.42689e-19
-4.38881e-19
-4.48702e-19
-4.45923e-19
-4.45787e-19
-4.42022e-19
-4.43829e-19
-4.4547e-19
-4.49633e-19
-4.44845e-19
-4.40906e-19
-4.41069e-19
-4.42654e-19
-4.38803e-19
-4.41498e-19
-4.46783e-19
-4.46729e-19
-4.49556e-19
-4.63682e-19
-4.54e-19
-4.42283e-19
-4.45934e-19
-4.50665e-19
-4.42364e-19
-4.36399e-19
-4.44962e-19
-4.48269e-19
-4.52578e-19
-4.62855e-19
-4.50344e-19
-4.51012e-19
-4.47294e-19
-4.49116e-19
-4.52391e-19
-4.58243e-19
-4.54781e-19
-4.54016e-19
-4.49452e-19
-4.46641e-19
-4.44338e-19
-4.42335e-19
-4.39836e-19
-4.36261e-19
-4.43495e-19
-4.42874e-19
-4.43036e-19
-4.47388e-19
-4.59389e-19
-4.5803e-19
-4.47653e-19
-4.45647e-19
-4.40283e-19
-4.45364e-19
-4.43612e-19
-4.5419e-19
-4.58824e-19
-4.57688e-19
-4.56134e-19
-4.56445e-19
-4.51001e-19
-4.4925e-19
-4.54092e-19
-4.45447e-19
-4.54049e-19
-4.55355e-19
-4.5093e-19
-4.54223e-19
-4.59197e-19
-4.54297e-19
-4.46861e-19
-4.41303e-19
-4.5373e-19
-4.50957e-19
-4.50813e-19
-4.50831e-19
-4.46985e-19
-4.47113e-19
-4.42138e-19
-4.44334e-19
-4.47584e-19
-4.39574e-19
-4.33234e-19
-4.37697e-19
-4.47284e-19
-4.41205e-19
-4.39722e-19
-4.44353e-19
-4.4267e-19
-4.51593e-19
-4.43159e-19
-4.43528e-19
-4.40139e-19
-4.45639e-19
-4.59729e-19
-4.53567e-19
-4.5243e-19
-4.49344e-19
-4.44176e-19
-4.44911e-19
-4.54284e-19
-4.51222e-19
-4.54145e-19
-4.46105e-19
-4.37538e-19
-4.55825e-19
-4.50679e-19
-4.35388e-19
-4.39204e-19
-4.52211e-19
-4.48531e-19
-4.40822e-19
-4.4355e-19
-4.42029e-19
-4.35993e-19
-4.36324e-19
-4.36497e-19
-4.42792e-19
-4.42345e-19
-4.42009e-19
-4.42955e-19
-4.44443e-19
-4.42061e-19
-4.41818e-19
-4.47587e-19
-4.47933e-19
-4.45445e-19
-4.46878e-19
-4.46885e-19
-4.5577e-19
-4.64075e-19
-4.55479e-19
-4.52898e-19
-4.54322e-19
-4.58023e-19
-4.52747e-19
-4.54803e-19
-4.58964e-19
-4.54259e-19
-4.60733e-19
-4.5879e-19
-4.57831e-19
-4.50499e-19
-4.51667e-19
-4.51412e-19
-4.54642e-19
-4.51817e-19
-4.4667e-19
-4.44659e-19
-4.45759e-19
-4.43146e-19
-4.32238e-19
-4.31893e-19
-4.39789e-19
-4.43082e-19
-4.35814e-19
-4.42249e-19
-4.40539e-19
-4.40323e-19
-4.4038e-19
-4.46136e-19
-4.40958e-19
-4.35718e-19
-4.42304e-19
-4.4987e-19
-4.48792e-19
-4.4374e-19
-4.37165e-19
-4.39311e-19
-4.42073e-19
-4.47732e-19
-4.42104e-19
-4.5202e-19
-4.50736e-19
-4.49029e-19
-4.47031e-19
-4.4438e-19
-4.5021e-19
-4.55672e-19
-4.51266e-19
-4.47008e-19
-4.39713e-19
-4.38995e-19
-4.32492e-19
-4.33689e-19
-4.38536e-19
-4.24538e-19
-4.35438e-19
-4.3128e-19
-4.38701e-19
-4.4479e-19
-4.38759e-19
-4.4118e-19
-4.43537e-19
-4.35072e-19
-4.40074e-19
-4.38025e-19
-4.35642e-19
-4.42204e-19
-4.49404e-19
-4.47036e-19
-4.50949e-19
-4.52598e-19
-4.48805e-19
-4.46627e-19
-4.3857e-19
-4.32421e-19
-4.44103e-19
-4.48266e-19
-4.52812e-19
-4.51742e-19
-4.51505e-19
-4.44573e-19
-4.50238e-19
-4.49025e-19
-4.48441e-19
-4.51333e-19
-4.42394e-19
-4.35672e-19
-4.3763e-19
-4.36099e-19
-4.4047e-19
-4.43998e-19
-4.24575e-19
-4.2784e-19
-4.40165e-19
-4.39734e-19
-4.41134e-19
-4.32574e-19
-4.344e-19
-4.30181e-19
-4.34756e-19
-4.3572e-19
-4.37353e-19
-4.35183e-19
-4.29742e-19
-4.29655e-19
-4.33208e-19
-4.3023e-19
-4.37868e-19
-4.33381e-19
-4.21882e-19
-4.30386e-19
-4.34407e-19
-4.37826e-19
-4.34161e-19
-4.32558e-19
-4.31557e-19
-4.34505e-19
-4.25022e-19
-4.27676e-19
-4.25052e-19
-4.22674e-19
-4.22307e-19
-4.21266e-19
-4.20861e-19
-4.22415e-19
-4.19166e-19
-4.33352e-19
-4.35538e-19
-4.42699e-19
-4.3942e-19
-4.4217e-19
-4.35858e-19
-4.32949e-19
-4.27967e-19
-4.25457e-19
-4.33678e-19
-4.44574e-19
-4.43949e-19
-4.37413e-19
-4.37042e-19
-4.37471e-19
-4.33485e-19
-4.36288e-19
-4.41105e-19
-4.42909e-19
-4.33592e-19
-4.41014e-19
-4.43269e-19
-4.37866e-19
-4.33807e-19
-4.33983e-19
-4.33531e-19
-4.34255e-19
-4.36084e-19
-4.28957e-19
-4.31244e-19
-4.30404e-19
-4.31811e-19
-4.34076e-19
-4.30594e-19
-4.33723e-19
-4.44462e-19
-4.46707e-19
-4.38544e-19
-4.39588e-19
-4.45058e-19
-4.38468e-19
-4.40644e-19
-4.50209e-19
-4.44172e-19
-4.32609e-19
-4.37396e-19
-4.31782e-19
-4.26479e-19
-4.31308e-19
-4.29263e-19
-4.30891e-19
-4.19298e-19
-4.1642e-19
-4.16749e-19
-4.15798e-19
-4.1181e-19
-4.1073e-19
-4.04939e-19
-4.09537e-19
-4.08419e-19
-4.07549e-19
-4.15446e-19
-4.06631e-19
-4.0513e-19
-4.09419e-19
-4.11511e-19
-4.11462e-19
-4.13421e-19
-4.2938e-19
-4.30761e-19
-4.28852e-19
-4.25532e-19
-4.30765e-19
-4.31433e-19
-4.30702e-19
-4.28678e-19
-4.27703e-19
-4.28763e-19
-4.23296e-19
-4.24094e-19
-4.21897e-19
-4.22012e-19
-4.24451e-19
-4.19556e-19
-4.23853e-19
-4.24159e-19
-4.26073e-19
-4.28733e-19
-4.25985e-19
-4.2404e-19
-4.26057e-19
-4.216e-19
-4.18147e-19
-4.18259e-19
-4.20479e-19
-4.23613e-19
-4.23337e-19
-4.17247e-19
-4.14833e-19
-4.18327e-19
-4.12794e-19
-4.15444e-19
-4.50323e-19
-4.31169e-19
-4.27104e-19
-4.3115e-19
-4.28257e-19
-4.35275e-19
-4.40458e-19
-4.29687e-19
-4.30507e-19
-4.27845e-19
-4.30666e-19
-4.30523e-19
-4.32889e-19
-4.38292e-19
-4.26519e-19
-4.28911e-19
-4.28703e-19
-4.29299e-19
-4.19038e-19
-4.18099e-19
-4.18058e-19
-4.15718e-19
-4.11181e-19
-4.13267e-19
-4.11758e-19
-4.0971e-19
-4.05736e-19
-4.04055e-19
-4.01507e-19
-4.02184e-19
-4.06266e-19
-4.0861e-19
-4.09381e-19
-4.11597e-19
-4.29612e-19
-4.2721e-19
-4.22462e-19
-4.26495e-19
-4.35995e-19
-4.30333e-19
-4.30051e-19
-4.29362e-19
-4.28093e-19
-4.2674e-19
-4.25117e-19
-4.2141e-19
-4.18932e-19
-4.22541e-19
-4.22744e-19
-4.17545e-19
-4.21424e-19
-4.23157e-19
-4.23352e-19
-4.27085e-19
-4.24015e-19
-4.23439e-19
-4.19401e-19
-4.20581e-19
-4.15116e-19
-4.10189e-19
-4.11485e-19
-4.11874e-19
-4.11342e-19
-4.08311e-19
-4.05453e-19
-4.01229e-19
-4.02029e-19
-4.31966e-19
-4.31034e-19
-4.30331e-19
-4.3029e-19
-4.28651e-19
-4.26501e-19
-4.35754e-19
-4.36874e-19
-4.30055e-19
-4.27551e-19
-4.25115e-19
-4.20322e-19
-4.15428e-19
-4.16983e-19
-4.23061e-19
-4.25873e-19
-4.22875e-19
-4.24911e-19
-4.20783e-19
-4.10415e-19
-4.10214e-19
-4.0757e-19
-4.08655e-19
-4.07613e-19
-4.07314e-19
-4.03614e-19
-4.02431e-19
-4.06536e-19
-4.11683e-19
-4.05844e-19
-4.04015e-19
-4.06157e-19
-4.01671e-19
-4.32358e-19
-4.30548e-19
-4.29504e-19
-4.28333e-19
-4.25418e-19
-4.2046e-19
-4.23445e-19
-4.23896e-19
-4.27699e-19
-4.35073e-19
-4.22231e-19
-4.22108e-19
-4.22452e-19
-4.19694e-19
-4.16525e-19
-4.22819e-19
-4.19688e-19
-4.16594e-19
-4.16535e-19
-4.18214e-19
-4.14198e-19
-4.13725e-19
-4.15172e-19
-4.12749e-19
-4.09448e-19
-4.06516e-19
-4.10903e-19
-4.05787e-19
-4.09238e-19
-4.06132e-19
-4.08608e-19
-4.01931e-19
-4.21675e-19
-4.21992e-19
-4.30473e-19
-4.25483e-19
-4.26514e-19
-4.28148e-19
-4.19064e-19
-4.22612e-19
-4.27925e-19
-4.22765e-19
-4.20752e-19
-4.20548e-19
-4.21969e-19
-4.25156e-19
-4.18569e-19
-4.12441e-19
-4.14618e-19
-4.16712e-19
-4.18798e-19
-4.13487e-19
-4.10043e-19
-4.08199e-19
-4.06249e-19
-4.02536e-19
-4.05804e-19
-4.06239e-19
-4.02538e-19
-3.94418e-19
-4.0113e-19
-4.03462e-19
-4.03237e-19
-4.03051e-19
-4.3639e-19
-4.24222e-19
-4.2182e-19
-4.19327e-19
-4.26016e-19
-4.23523e-19
-4.21809e-19
-4.20407e-19
-4.18821e-19
-4.1902e-19
-4.21136e-19
-4.20172e-19
-4.23094e-19
-4.13382e-19
-4.01752e-19
-4.10758e-19
-4.1644e-19
-4.09725e-19
-4.02952e-19
-4.05331e-19
-4.06187e-19
-4.05612e-19
-4.03714e-19
-3.99156e-19
-4.0146e-19
-4.01966e-19
-4.01079e-19
-3.99129e-19
-3.94587e-19
-3.9659e-19
-3.96984e-19
-4.23976e-19
-4.22562e-19
-4.19841e-19
-4.18912e-19
-4.18134e-19
-4.17249e-19
-4.1671e-19
-4.16179e-19
-4.15404e-19
-4.14689e-19
-4.1422e-19
-4.10128e-19
-4.03707e-19
-4.16176e-19
-4.08653e-19
-4.0627e-19
-4.06523e-19
-4.04267e-19
-3.98334e-19
-3.99769e-19
-4.01996e-19
-4.00848e-19
-3.98047e-19
-4.05266e-19
-4.07045e-19
-4.00782e-19
-3.97619e-19
-3.93111e-19
-3.95371e-19
-3.99104e-19
-4.04341e-19
-4.15842e-19
-4.12953e-19
-4.20676e-19
-4.16583e-19
-4.11848e-19
-4.06208e-19
-4.11802e-19
-4.16017e-19
-4.11181e-19
-4.06358e-19
-4.10227e-19
-4.12689e-19
-4.12325e-19
-4.16397e-19
-4.13196e-19
-4.15456e-19
-4.17176e-19
-4.12076e-19
-4.05027e-19
-4.1233e-19
-4.06473e-19
-4.01063e-19
-4.00424e-19
-3.98486e-19
-3.96225e-19
-3.93318e-19
-3.94151e-19
-3.91929e-19
-3.90873e-19
-3.93621e-19
-3.92198e-19
-4.24972e-19
-4.20318e-19
-4.20921e-19
-4.23749e-19
-4.19316e-19
-4.23775e-19
-4.26526e-19
-4.14277e-19
-4.07792e-19
-4.01239e-19
-3.99499e-19
-4.0373e-19
-4.00381e-19
-3.94649e-19
-4.0754e-19
-4.00602e-19
-4.01406e-19
-3.93773e-19
-4.04394e-19
-4.07416e-19
-4.01218e-19
-3.94825e-19
-3.98398e-19
-4.0196e-19
-4.0603e-19
-4.02298e-19
-3.99517e-19
-3.98685e-19
-3.95642e-19
-3.93086e-19
-4.01289e-19
-4.11276e-19
-4.12836e-19
-4.1783e-19
-4.24269e-19
-4.09564e-19
-4.1089e-19
-4.16447e-19
-4.10174e-19
-4.07197e-19
-4.05923e-19
-4.06573e-19
-4.07244e-19
-4.02648e-19
-4.01126e-19
-4.0148e-19
-3.94937e-19
-3.96062e-19
-3.91974e-19
-3.96827e-19
-4.02928e-19
-4.03394e-19
-4.02723e-19
-3.95191e-19