/*--------------------------------*- C++ -*----------------------------------*\
  =========                 |
  \\      /  F ield         | OpenFOAM: The Open Source CFD Toolbox
   \\    /   O peration     | Website:  https://openfoam.org
    \\  /    A nd           | Version:  7
     \\/     M anipulation  |
\*---------------------------------------------------------------------------*/
FoamFile
{
    version     2.0;
    format      ascii;
    class       volScalarField;
    location    "204000";
    object      nu;
}
// * * * * * * * * * * * * * * * * * * * * * * * * * * * * * * * * * * * * * //

dimensions      [0 2 -1 0 0 0 0];

internalField   nonuniform List<scalar> 
4783
(
6.70329e-05
7.07838e-05
7.37218e-05
7.78746e-05
8.30351e-05
8.91997e-05
9.64923e-05
0.00010513
0.000115419
0.00012776
0.000142639
0.000160604
0.0001822
0.000207866
0.000237801
0.000271819
0.000309263
0.00034902
0.000389352
0.000428286
0.000463985
0.000494955
5.1651e-05
5.89749e-05
6.15362e-05
6.46361e-05
6.83844e-05
7.28061e-05
7.79372e-05
8.38443e-05
9.06289e-05
9.84266e-05
0.000107404
0.00011775
0.000129653
0.000143271
0.000158687
0.000175853
0.000194548
0.000214345
0.000234601
0.000254488
0.000273083
0.000289465
4.50743e-05
5.19737e-05
5.46398e-05
5.73129e-05
6.02151e-05
6.34667e-05
6.71313e-05
7.12516e-05
7.58671e-05
8.10228e-05
8.67697e-05
9.31634e-05
0.000100256
0.000108088
0.000116664
0.000125944
0.000135815
0.000146078
0.00015645
0.00016656
0.000175978
0.000184246
4.10169e-05
4.65464e-05
4.89496e-05
5.13429e-05
5.37962e-05
5.63935e-05
5.91991e-05
6.22553e-05
6.55895e-05
6.9221e-05
7.31641e-05
7.74293e-05
8.20219e-05
8.69379e-05
9.21583e-05
9.7642e-05
0.000103318
0.000109081
0.000114786
0.000120255
0.000125282
0.00012965
3.78857e-05
4.23395e-05
4.4333e-05
4.63844e-05
4.84825e-05
5.06496e-05
5.29185e-05
5.5318e-05
5.78685e-05
6.05815e-05
6.34612e-05
6.65057e-05
6.97066e-05
7.30489e-05
7.65084e-05
8.00501e-05
8.36255e-05
8.71705e-05
9.06053e-05
9.38359e-05
9.67578e-05
9.9263e-05
3.52941e-05
3.89664e-05
4.06066e-05
4.23232e-05
4.40969e-05
4.59229e-05
4.78081e-05
4.97642e-05
5.18015e-05
5.3926e-05
5.61385e-05
5.84341e-05
6.08027e-05
6.32287e-05
6.56907e-05
6.81611e-05
7.06051e-05
7.29813e-05
7.52412e-05
7.73307e-05
7.91922e-05
8.07683e-05
3.3091e-05
3.61745e-05
3.75454e-05
3.89834e-05
4.04773e-05
4.20182e-05
4.36023e-05
4.52303e-05
4.6904e-05
4.86245e-05
5.03898e-05
5.21946e-05
5.40296e-05
5.58815e-05
5.77331e-05
5.95632e-05
6.13469e-05
6.30557e-05
6.46578e-05
6.61195e-05
6.74063e-05
6.84845e-05
3.11862e-05
3.38106e-05
3.4977e-05
3.61959e-05
3.74619e-05
3.87682e-05
4.01091e-05
4.14807e-05
4.28805e-05
4.43057e-05
4.57527e-05
4.72156e-05
4.86863e-05
5.01539e-05
5.16049e-05
5.30231e-05
5.43902e-05
5.56858e-05
5.68881e-05
5.79745e-05
5.89225e-05
5.9711e-05
2.95181e-05
3.17757e-05
3.2783e-05
3.38303e-05
3.49146e-05
3.60314e-05
3.71758e-05
3.8343e-05
3.95286e-05
4.07283e-05
4.19374e-05
4.31499e-05
4.43586e-05
4.55545e-05
4.67266e-05
4.78627e-05
4.89488e-05
4.997e-05
5.09106e-05
5.17546e-05
5.24866e-05
5.3092e-05
2.80416e-05
3.00014e-05
3.08818e-05
3.17927e-05
3.27321e-05
3.36967e-05
3.46825e-05
3.56852e-05
3.67003e-05
3.77229e-05
3.87481e-05
3.97702e-05
4.07826e-05
4.17776e-05
4.27466e-05
4.36796e-05
4.4566e-05
4.53944e-05
4.61531e-05
4.68303e-05
4.7415e-05
4.78967e-05
2.67232e-05
2.84379e-05
2.9215e-05
3.00157e-05
3.08381e-05
3.16797e-05
3.25372e-05
3.34069e-05
3.42845e-05
3.51657e-05
3.60455e-05
3.69187e-05
3.77795e-05
3.86211e-05
3.94365e-05
4.02177e-05
4.09561e-05
4.16431e-05
4.22694e-05
4.28263e-05
4.33054e-05
4.36989e-05
2.55372e-05
2.70478e-05
2.77396e-05
2.84497e-05
2.91764e-05
2.99176e-05
3.06704e-05
3.14316e-05
3.21976e-05
3.29643e-05
3.37273e-05
3.44818e-05
3.52226e-05
3.59441e-05
3.66403e-05
3.73045e-05
3.79299e-05
3.85094e-05
3.9036e-05
3.95028e-05
3.99032e-05
4.02313e-05
2.44632e-05
2.58025e-05
2.64228e-05
2.70574e-05
2.77048e-05
2.8363e-05
2.90295e-05
2.97015e-05
3.03758e-05
3.10489e-05
3.17167e-05
3.23751e-05
3.30195e-05
3.3645e-05
3.42465e-05
3.48185e-05
3.53554e-05
3.58514e-05
3.63007e-05
3.6698e-05
3.7038e-05
3.7316e-05
2.34851e-05
2.46791e-05
2.52389e-05
2.58101e-05
2.63909e-05
2.69797e-05
2.75743e-05
2.81722e-05
2.87705e-05
2.93662e-05
2.99556e-05
3.05352e-05
3.11009e-05
3.16486e-05
3.21737e-05
3.26716e-05
3.31378e-05
3.35673e-05
3.39555e-05
3.4298e-05
3.45905e-05
3.48294e-05
2.25897e-05
2.36597e-05
2.41678e-05
2.46849e-05
2.52094e-05
2.57396e-05
2.62737e-05
2.68094e-05
2.73441e-05
2.78752e-05
2.83994e-05
2.89137e-05
2.94144e-05
2.9898e-05
3.03605e-05
3.07981e-05
3.12068e-05
3.15826e-05
3.19215e-05
3.222e-05
2.17662e-05
2.27296e-05
2.31933e-05
2.36639e-05
2.41402e-05
2.46205e-05
2.51032e-05
2.55862e-05
2.60672e-05
2.65438e-05
2.70133e-05
2.74729e-05
2.79193e-05
2.83496e-05
2.87603e-05
2.9148e-05
2.95094e-05
2.98411e-05
3.01398e-05
2.10057e-05
2.18768e-05
2.23019e-05
2.27324e-05
2.31671e-05
2.36046e-05
2.40432e-05
2.44812e-05
2.49165e-05
2.53469e-05
2.577e-05
2.61832e-05
2.6584e-05
2.69694e-05
2.73367e-05
2.76827e-05
2.80048e-05
2.03006e-05
2.10915e-05
2.14828e-05
2.18784e-05
2.22771e-05
2.26774e-05
2.3078e-05
2.34772e-05
2.38732e-05
2.4264e-05
2.46474e-05
2.50213e-05
2.53832e-05
2.57306e-05
1.96446e-05
2.03653e-05
2.07271e-05
2.1092e-05
2.14591e-05
2.18271e-05
2.21946e-05
2.25602e-05
2.29222e-05
2.32789e-05
2.36282e-05
2.39682e-05
1.90323e-05
1.96914e-05
2.00269e-05
2.03649e-05
2.07043e-05
2.10439e-05
2.13825e-05
2.17188e-05
2.20512e-05
2.23781e-05
1.84591e-05
1.90638e-05
1.93761e-05
1.96901e-05
2.00049e-05
2.03195e-05
2.06327e-05
2.09432e-05
2.12497e-05
1.7921e-05
1.84775e-05
1.8769e-05
1.90617e-05
1.93547e-05
1.96471e-05
1.99378e-05
2.02256e-05
1.74145e-05
1.79281e-05
1.8201e-05
1.84747e-05
1.87483e-05
1.90209e-05
1.92915e-05
1.69367e-05
1.7412e-05
1.76681e-05
1.79246e-05
1.81808e-05
1.84358e-05
1.64849e-05
1.69258e-05
1.71668e-05
1.74079e-05
1.76484e-05
1.78874e-05
1.60568e-05
1.64668e-05
1.66941e-05
1.69212e-05
1.71475e-05
1.56503e-05
1.60325e-05
1.62473e-05
1.64617e-05
1.52637e-05
1.56207e-05
1.58241e-05
1.6027e-05
1.48953e-05
1.52295e-05
1.54224e-05
1.45437e-05
1.48571e-05
1.50405e-05
1.42075e-05
1.4502e-05
1.46766e-05
1.38858e-05
1.41629e-05
1.43294e-05
1.35773e-05
1.38386e-05
1.39976e-05
1.32811e-05
1.35279e-05
1.368e-05
1.29965e-05
1.32299e-05
1.33755e-05
1.27226e-05
1.29437e-05
1.30833e-05
1.24588e-05
1.26685e-05
1.28025e-05
1.22043e-05
1.24035e-05
1.25322e-05
1.19586e-05
1.21481e-05
1.22719e-05
1.17212e-05
1.19016e-05
1.20209e-05
1.14916e-05
1.16636e-05
1.17785e-05
1.12693e-05
1.14334e-05
1.15443e-05
6.70329e-05
5.1651e-05
4.50743e-05
4.10169e-05
3.78857e-05
3.52941e-05
3.3091e-05
3.11862e-05
2.9518e-05
2.80415e-05
2.67232e-05
2.55372e-05
2.44632e-05
2.34851e-05
2.25897e-05
2.17662e-05
2.10057e-05
2.03006e-05
1.96446e-05
1.90323e-05
1.84591e-05
1.7921e-05
1.74145e-05
1.69367e-05
1.64849e-05
1.60568e-05
1.56503e-05
1.52637e-05
1.48953e-05
1.45437e-05
1.42075e-05
1.38858e-05
1.35773e-05
1.32811e-05
1.29965e-05
1.27226e-05
1.24588e-05
1.22043e-05
1.19586e-05
1.17212e-05
1.14916e-05
1.12693e-05
7.07838e-05
5.89749e-05
5.19737e-05
4.65464e-05
4.23395e-05
3.89664e-05
3.61745e-05
3.38106e-05
3.17757e-05
3.00014e-05
2.84379e-05
2.70478e-05
2.58024e-05
2.46791e-05
2.36597e-05
2.27296e-05
2.18768e-05
2.10915e-05
2.03653e-05
1.96914e-05
1.90638e-05
1.84775e-05
1.79281e-05
1.7412e-05
1.69258e-05
1.64668e-05
1.60325e-05
1.56207e-05
1.52295e-05
1.48571e-05
1.4502e-05
1.41629e-05
1.38386e-05
1.35279e-05
1.32299e-05
1.29437e-05
1.26685e-05
1.24035e-05
1.21481e-05
1.19016e-05
1.16636e-05
1.14334e-05
7.37218e-05
6.15362e-05
5.46398e-05
4.89496e-05
4.4333e-05
4.06066e-05
3.75454e-05
3.4977e-05
3.2783e-05
3.08818e-05
2.9215e-05
2.77396e-05
2.64228e-05
2.52389e-05
2.41678e-05
2.31933e-05
2.23019e-05
2.14828e-05
2.07271e-05
2.00269e-05
1.93761e-05
1.8769e-05
1.8201e-05
1.76681e-05
1.71668e-05
1.66941e-05
1.62473e-05
1.58241e-05
1.54224e-05
1.50405e-05
1.46766e-05
1.43294e-05
1.39976e-05
1.368e-05
1.33755e-05
1.30833e-05
1.28025e-05
1.25322e-05
1.22719e-05
1.20209e-05
1.17785e-05
1.15443e-05
7.78746e-05
6.46361e-05
5.73129e-05
5.13428e-05
4.63844e-05
4.23232e-05
3.89834e-05
3.61959e-05
3.38303e-05
3.17927e-05
3.00157e-05
2.84497e-05
2.70574e-05
2.58101e-05
2.46849e-05
2.36639e-05
2.27324e-05
2.18784e-05
2.1092e-05
2.03649e-05
1.96901e-05
1.90617e-05
1.84747e-05
1.79246e-05
1.74079e-05
1.69212e-05
1.64617e-05
1.6027e-05
1.56147e-05
1.52231e-05
1.48503e-05
1.44949e-05
1.41555e-05
1.38309e-05
1.352e-05
1.32217e-05
1.29352e-05
1.26598e-05
1.23945e-05
1.21389e-05
1.18922e-05
1.1654e-05
8.30351e-05
6.83844e-05
6.02151e-05
5.37962e-05
4.84825e-05
4.40969e-05
4.04773e-05
3.74619e-05
3.49146e-05
3.27321e-05
3.08381e-05
2.91764e-05
2.77048e-05
2.63909e-05
2.52094e-05
2.41402e-05
2.31671e-05
2.22771e-05
2.14591e-05
2.07042e-05
2.00049e-05
1.93547e-05
1.87483e-05
1.81808e-05
1.76484e-05
1.71475e-05
1.66752e-05
1.62287e-05
1.58058e-05
1.54044e-05
1.50227e-05
1.4659e-05
1.4312e-05
1.39803e-05
1.36629e-05
1.33586e-05
1.30665e-05
1.27857e-05
1.25156e-05
1.22553e-05
1.20044e-05
1.17621e-05
8.91997e-05
7.28061e-05
6.34667e-05
5.63935e-05
5.06496e-05
4.59228e-05
4.20182e-05
3.87681e-05
3.60314e-05
3.36966e-05
3.16797e-05
2.99176e-05
2.8363e-05
2.69797e-05
2.57396e-05
2.46205e-05
2.36046e-05
2.26774e-05
2.18271e-05
2.10439e-05
2.03195e-05
1.96471e-05
1.90209e-05
1.84357e-05
1.78874e-05
1.73722e-05
1.68869e-05
1.64286e-05
1.5995e-05
1.55837e-05
1.5193e-05
1.48211e-05
1.44665e-05
1.41277e-05
1.38038e-05
1.34934e-05
1.31957e-05
1.29097e-05
1.26347e-05
1.23698e-05
1.21146e-05
1.18682e-05
9.64923e-05
7.79372e-05
6.71313e-05
5.91991e-05
5.29185e-05
4.78081e-05
4.36023e-05
4.01091e-05
3.71758e-05
3.46825e-05
3.25372e-05
3.06704e-05
2.90295e-05
2.75743e-05
2.62737e-05
2.51032e-05
2.40432e-05
2.3078e-05
2.21946e-05
2.13825e-05
2.06327e-05
1.99378e-05
1.92915e-05
1.86885e-05
1.81242e-05
1.75945e-05
1.70961e-05
1.6626e-05
1.61816e-05
1.57605e-05
1.53608e-05
1.49806e-05
1.46183e-05
1.42726e-05
1.39421e-05
1.36257e-05
1.33224e-05
1.30312e-05
1.27514e-05
1.2482e-05
1.22225e-05
1.19722e-05
0.00010513
8.38443e-05
7.12515e-05
6.22553e-05
5.5318e-05
4.97641e-05
4.52302e-05
4.14807e-05
3.8343e-05
3.56852e-05
3.34069e-05
3.14316e-05
2.97015e-05
2.81722e-05
2.68094e-05
2.55862e-05
2.44812e-05
2.34772e-05
2.25602e-05
2.17188e-05
2.09432e-05
2.02256e-05
1.95591e-05
1.89381e-05
1.83577e-05
1.78135e-05
1.73021e-05
1.68201e-05
1.63649e-05
1.59341e-05
1.55254e-05
1.51369e-05
1.47671e-05
1.44144e-05
1.40775e-05
1.37552e-05
1.34463e-05
1.315e-05
1.28653e-05
1.25915e-05
1.23278e-05
1.20735e-05
0.000115419
9.06288e-05
7.58671e-05
6.55895e-05
5.78685e-05
5.18014e-05
4.6904e-05
4.28805e-05
3.95285e-05
3.67002e-05
3.42845e-05
3.21976e-05
3.03758e-05
2.87705e-05
2.73441e-05
2.60672e-05
2.49165e-05
2.38732e-05
2.29222e-05
2.20512e-05
2.12497e-05
2.05092e-05
1.98225e-05
1.91835e-05
1.8587e-05
1.80284e-05
1.75039e-05
1.70102e-05
1.65443e-05
1.61037e-05
1.56861e-05
1.52895e-05
1.49122e-05
1.45527e-05
1.42094e-05
1.38811e-05
1.35668e-05
1.32654e-05
1.2976e-05
1.26978e-05
1.243e-05
1.21719e-05
0.00012776
9.84266e-05
8.10227e-05
6.9221e-05
6.05815e-05
5.3926e-05
4.86244e-05
4.43057e-05
4.07283e-05
3.77229e-05
3.51657e-05
3.29643e-05
3.10488e-05
2.93661e-05
2.78751e-05
2.65438e-05
2.53468e-05
2.4264e-05
2.32788e-05
2.23781e-05
2.15506e-05
2.07873e-05
2.00805e-05
1.94236e-05
1.8811e-05
1.82381e-05
1.77007e-05
1.71953e-05
1.67189e-05
1.62687e-05
1.58423e-05
1.54377e-05
1.50531e-05
1.46867e-05
1.43372e-05
1.40032e-05
1.36835e-05
1.33772e-05
1.30831e-05
1.28006e-05
1.25288e-05
1.22669e-05
0.000142639
0.000107404
8.67697e-05
7.3164e-05
6.34612e-05
5.61384e-05
5.03898e-05
4.57526e-05
4.19373e-05
3.87481e-05
3.60455e-05
3.37272e-05
3.17166e-05
2.99556e-05
2.83994e-05
2.70133e-05
2.57699e-05
2.46474e-05
2.36281e-05
2.26978e-05
2.18445e-05
2.10586e-05
2.03317e-05
1.96571e-05
1.90287e-05
1.84417e-05
1.78916e-05
1.73747e-05
1.68879e-05
1.64283e-05
1.59933e-05
1.55809e-05
1.5189e-05
1.48161e-05
1.44604e-05
1.41208e-05
1.37959e-05
1.34847e-05
1.31862e-05
1.28995e-05
1.26237e-05
1.23582e-05
0.000160604
0.00011775
9.31633e-05
7.74293e-05
6.65056e-05
5.8434e-05
5.21946e-05
4.72156e-05
4.31499e-05
3.97702e-05
3.69187e-05
3.44817e-05
3.2375e-05
3.05352e-05
2.89137e-05
2.74728e-05
2.61832e-05
2.50213e-05
2.39681e-05
2.30085e-05
2.21298e-05
2.13215e-05
2.05749e-05
1.98829e-05
1.9239e-05
1.86381e-05
1.80756e-05
1.75475e-05
1.70506e-05
1.65817e-05
1.61384e-05
1.57183e-05
1.53195e-05
1.49401e-05
1.45786e-05
1.42335e-05
1.39036e-05
1.35877e-05
1.32848e-05
1.2994e-05
1.27145e-05
1.24455e-05
1.21862e-05
0.0001822
0.000129653
0.000100256
8.20218e-05
6.97066e-05
6.08026e-05
5.40295e-05
4.86863e-05
4.43586e-05
4.07826e-05
3.77794e-05
3.52226e-05
3.30194e-05
3.11009e-05
2.94144e-05
2.79193e-05
2.6584e-05
2.53831e-05
2.42967e-05
2.33083e-05
2.24046e-05
2.15744e-05
2.08087e-05
2.00996e-05
1.94407e-05
1.88263e-05
1.82517e-05
1.77128e-05
1.7206e-05
1.67283e-05
1.62769e-05
1.58495e-05
1.54439e-05
1.50583e-05
1.4691e-05
1.43407e-05
1.40059e-05
1.36855e-05
1.33785e-05
1.30838e-05
1.28007e-05
1.25283e-05
1.22659e-05
1.20129e-05
0.000207866
0.000143271
0.000108087
8.69378e-05
7.30488e-05
6.32287e-05
5.58814e-05
5.01539e-05
4.55544e-05
4.17776e-05
3.86211e-05
3.59441e-05
3.3645e-05
3.16485e-05
2.98979e-05
2.83495e-05
2.69694e-05
2.57306e-05
2.46117e-05
2.35953e-05
2.26673e-05
2.1816e-05
2.10316e-05
2.03061e-05
1.96326e-05
1.90053e-05
1.8419e-05
1.78697e-05
1.73535e-05
1.68672e-05
1.64081e-05
1.59736e-05
1.55615e-05
1.517e-05
1.47973e-05
1.4442e-05
1.41026e-05
1.37779e-05
1.34669e-05
1.31685e-05
1.28819e-05
1.26063e-05
1.23409e-05
1.2085e-05
0.0002378
0.000158686
0.000116664
9.21582e-05
7.65083e-05
6.56907e-05
5.7733e-05
5.16048e-05
4.67266e-05
4.27465e-05
3.94365e-05
3.66402e-05
3.42465e-05
3.21736e-05
3.03605e-05
2.87602e-05
2.73366e-05
2.60611e-05
2.49108e-05
2.38674e-05
2.29161e-05
2.20444e-05
2.12423e-05
2.05011e-05
1.98136e-05
1.91739e-05
1.85766e-05
1.80173e-05
1.74922e-05
1.69978e-05
1.65313e-05
1.609e-05
1.56719e-05
1.52748e-05
1.48969e-05
1.45368e-05
1.41931e-05
1.38643e-05
1.35496e-05
1.32477e-05
1.29579e-05
1.26792e-05
1.24109e-05
1.21524e-05
1.19031e-05
0.000271818
0.000175853
0.000125944
9.76419e-05
8.005e-05
6.8161e-05
5.95632e-05
5.30231e-05
4.78626e-05
4.36795e-05
4.02176e-05
3.73044e-05
3.48185e-05
3.26716e-05
3.07981e-05
2.9148e-05
2.76827e-05
2.6372e-05
2.51918e-05
2.41228e-05
2.31493e-05
2.22583e-05
2.14393e-05
2.06832e-05
1.99826e-05
1.93312e-05
1.87234e-05
1.81548e-05
1.76212e-05
1.71192e-05
1.66458e-05
1.61983e-05
1.57743e-05
1.5372e-05
1.49893e-05
1.46248e-05
1.42769e-05
1.39444e-05
1.36261e-05
1.3321e-05
1.30281e-05
1.27466e-05
1.24757e-05
1.22148e-05
1.1963e-05
0.000309262
0.000194548
0.000135814
0.000103318
8.36254e-05
7.06051e-05
6.13469e-05
5.43902e-05
4.89488e-05
4.45659e-05
4.09561e-05
3.79298e-05
3.53553e-05
3.31377e-05
3.12067e-05
2.95094e-05
2.80047e-05
2.66609e-05
2.54525e-05
2.43594e-05
2.33651e-05
2.24561e-05
2.16212e-05
2.08513e-05
2.01384e-05
1.94761e-05
1.88586e-05
1.82813e-05
1.77398e-05
1.72308e-05
1.67509e-05
1.62976e-05
1.58684e-05
1.54611e-05
1.5074e-05
1.47054e-05
1.43537e-05
1.40177e-05
1.36962e-05
1.33881e-05
1.30924e-05
1.28083e-05
1.2535e-05
1.22717e-05
1.20179e-05
1.17728e-05
0.000349019
0.000214345
0.000146078
0.000109081
8.71704e-05
7.29812e-05
6.30556e-05
5.56857e-05
4.997e-05
4.53943e-05
4.1643e-05
3.85094e-05
3.58513e-05
3.35672e-05
3.15825e-05
2.9841e-05
2.82998e-05
2.69252e-05
2.56908e-05
2.45754e-05
2.35619e-05
2.26362e-05
2.17868e-05
2.10041e-05
2.028e-05
1.96077e-05
1.89813e-05
1.8396e-05
1.78474e-05
1.73318e-05
1.68461e-05
1.63875e-05
1.59534e-05
1.55417e-05
1.51506e-05
1.47782e-05
1.44231e-05
1.40839e-05
1.37594e-05
1.34486e-05
1.31504e-05
1.28639e-05
1.25884e-05
1.2323e-05
1.20673e-05
1.18204e-05
1.15819e-05
0.000389351
0.000234601
0.00015645
0.000114786
9.06052e-05
7.52411e-05
6.46577e-05
5.6888e-05
5.09105e-05
4.6153e-05
4.22693e-05
3.9036e-05
3.63007e-05
3.39555e-05
3.19215e-05
3.01397e-05
2.8565e-05
2.71625e-05
2.59044e-05
2.47689e-05
2.3738e-05
2.27973e-05
2.19348e-05
2.11406e-05
2.04063e-05
1.9725e-05
1.90906e-05
1.84981e-05
1.79431e-05
1.74218e-05
1.69308e-05
1.64674e-05
1.6029e-05
1.56133e-05
1.52185e-05
1.48428e-05
1.44846e-05
1.41426e-05
1.38155e-05
1.35022e-05
1.32017e-05
1.29132e-05
1.26357e-05
1.23685e-05
1.2111e-05
1.18625e-05
1.16225e-05
0.000428285
0.000254487
0.00016656
0.000120255
9.38357e-05
7.73305e-05
6.61194e-05
5.79744e-05
5.17545e-05
4.68303e-05
4.28262e-05
3.95027e-05
3.66979e-05
3.42979e-05
3.222e-05
3.04023e-05
2.8798e-05
2.73706e-05
2.60916e-05
2.49382e-05
2.3892e-05
2.2938e-05
2.2064e-05
2.12596e-05
2.05165e-05
1.98272e-05
1.91858e-05
1.85871e-05
1.80264e-05
1.75e-05
1.70044e-05
1.65368e-05
1.60946e-05
1.56755e-05
1.52776e-05
1.48989e-05
1.45381e-05
1.41936e-05
1.38642e-05
1.35488e-05
1.32463e-05
1.29559e-05
1.26767e-05
1.24079e-05
1.21489e-05
1.1899e-05
1.16577e-05
0.000463983
0.000273082
0.000175977
0.000125282
9.67576e-05
7.91921e-05
6.74062e-05
5.89224e-05
5.24865e-05
4.74149e-05
4.33053e-05
3.99031e-05
3.70379e-05
3.45905e-05
3.24745e-05
3.06259e-05
2.89961e-05
2.75474e-05
2.62505e-05
2.50818e-05
2.40225e-05
2.30572e-05
2.21733e-05
2.13604e-05
2.06096e-05
1.99137e-05
1.92663e-05
1.86622e-05
1.80967e-05
1.7566e-05
1.70665e-05
1.65954e-05
1.615e-05
1.5728e-05
1.53273e-05
1.49462e-05
1.4583e-05
1.42364e-05
1.39051e-05
1.35879e-05
1.32838e-05
1.29918e-05
1.27111e-05
1.2441e-05
1.21807e-05
1.19297e-05
1.16872e-05
0.000494953
0.000289464
0.000184246
0.000129649
9.92628e-05
8.07681e-05
6.84844e-05
5.97109e-05
5.30919e-05
4.78966e-05
4.36988e-05
4.02312e-05
3.7316e-05
3.48293e-05
3.26821e-05
3.08081e-05
2.91573e-05
2.76912e-05
2.63796e-05
2.51984e-05
2.41284e-05
2.31539e-05
2.2262e-05
2.1442e-05
2.0685e-05
1.99836e-05
1.93314e-05
1.87229e-05
1.81536e-05
1.76193e-05
1.71167e-05
1.66427e-05
1.61947e-05
1.57703e-05
1.53674e-05
1.49843e-05
1.46193e-05
1.4271e-05
1.39381e-05
1.36195e-05
1.3314e-05
1.30208e-05
1.27389e-05
1.24677e-05
1.22064e-05
1.19544e-05
1.1711e-05
1.14759e-05
0.000519488
0.000302706
0.000190922
0.000133147
0.000101249
8.20049e-05
6.93236e-05
6.03207e-05
5.35581e-05
4.82664e-05
4.40001e-05
4.0482e-05
3.75282e-05
3.50114e-05
3.28401e-05
3.09466e-05
2.92799e-05
2.78004e-05
2.64776e-05
2.52869e-05
2.42087e-05
2.32272e-05
2.23291e-05
2.15038e-05
2.07421e-05
2.00366e-05
1.93806e-05
1.87689e-05
1.81966e-05
1.76597e-05
1.71547e-05
1.66785e-05
1.62285e-05
1.58022e-05
1.53977e-05
1.50131e-05
1.46467e-05
1.42972e-05
1.39631e-05
1.36433e-05
1.33368e-05
1.30426e-05
1.27599e-05
1.24878e-05
1.22258e-05
1.1973e-05
1.1729e-05
1.14932e-05
0.000536368
0.000312007
0.000195617
0.000135594
0.000102627
8.28572e-05
6.98983e-05
6.07365e-05
5.3875e-05
4.85171e-05
4.42041e-05
4.06514e-05
3.76714e-05
3.51342e-05
3.29466e-05
3.104e-05
2.93623e-05
2.78739e-05
2.65435e-05
2.53464e-05
2.42627e-05
2.32764e-05
2.23742e-05
2.15453e-05
2.07805e-05
2.00721e-05
1.94137e-05
1.87997e-05
1.82254e-05
1.76867e-05
1.71801e-05
1.67025e-05
1.62511e-05
1.58237e-05
1.54181e-05
1.50324e-05
1.46651e-05
1.43147e-05
1.39798e-05
1.36593e-05
1.33521e-05
1.30572e-05
1.27739e-05
1.25013e-05
1.22387e-05
1.19855e-05
1.1741e-05
1.15048e-05
1.12762e-05
0.000544951
0.000316801
0.000198041
0.000136853
0.000103334
8.3292e-05
7.01905e-05
6.09472e-05
5.40353e-05
4.86437e-05
4.4307e-05
4.07369e-05
3.77436e-05
3.51961e-05
3.30002e-05
3.10869e-05
2.94038e-05
2.79109e-05
2.65766e-05
2.53762e-05
2.42898e-05
2.33011e-05
2.23969e-05
2.15661e-05
2.07997e-05
2.00899e-05
1.94303e-05
1.88152e-05
1.82399e-05
1.77003e-05
1.71929e-05
1.67145e-05
1.62625e-05
1.58344e-05
1.54282e-05
1.50421e-05
1.46743e-05
1.43234e-05
1.39881e-05
1.36673e-05
1.33597e-05
1.30646e-05
1.2781e-05
1.25081e-05
1.22452e-05
1.19917e-05
1.1747e-05
1.15106e-05
1.12818e-05
0.000544951
0.000316801
0.000198041
0.000136853
0.000103334
8.3292e-05
7.01905e-05
6.09472e-05
5.40353e-05
4.86437e-05
4.4307e-05
4.07369e-05
3.77436e-05
3.51961e-05
3.30002e-05
3.10869e-05
2.94038e-05
2.79109e-05
2.65766e-05
2.53762e-05
2.42898e-05
2.33011e-05
2.23969e-05
2.15661e-05
2.07997e-05
2.00899e-05
1.94303e-05
1.88152e-05
1.82399e-05
1.77003e-05
1.71929e-05
1.67145e-05
1.62625e-05
1.58344e-05
1.54282e-05
1.50421e-05
1.46743e-05
1.43234e-05
1.39881e-05
1.36673e-05
1.33597e-05
1.30646e-05
1.2781e-05
1.25081e-05
1.22452e-05
1.19917e-05
1.1747e-05
1.15106e-05
1.12818e-05
1.10604e-05
0.000536368
0.000312007
0.000195617
0.000135594
0.000102627
8.28572e-05
6.98983e-05
6.07365e-05
5.3875e-05
4.85171e-05
4.42041e-05
4.06515e-05
3.76714e-05
3.51342e-05
3.29466e-05
3.104e-05
2.93623e-05
2.78739e-05
2.65435e-05
2.53464e-05
2.42627e-05
2.32764e-05
2.23742e-05
2.15453e-05
2.07805e-05
2.00721e-05
1.94137e-05
1.87997e-05
1.82254e-05
1.76867e-05
1.71801e-05
1.67025e-05
1.62511e-05
1.58237e-05
1.54181e-05
1.50324e-05
1.46651e-05
1.43147e-05
1.39798e-05
1.36593e-05
1.33521e-05
1.30572e-05
1.27739e-05
1.25013e-05
1.22387e-05
1.19855e-05
1.1741e-05
1.15048e-05
1.12762e-05
1.1055e-05
0.000519488
0.000302706
0.000190922
0.000133148
0.000101249
8.20049e-05
6.93236e-05
6.03207e-05
5.35581e-05
4.82664e-05
4.40001e-05
4.0482e-05
3.75282e-05
3.50114e-05
3.28401e-05
3.09466e-05
2.92799e-05
2.78004e-05
2.64776e-05
2.52869e-05
2.42087e-05
2.32272e-05
2.23291e-05
2.15038e-05
2.07421e-05
2.00366e-05
1.93806e-05
1.87689e-05
1.81966e-05
1.76597e-05
1.71547e-05
1.66785e-05
1.62285e-05
1.58022e-05
1.53977e-05
1.50131e-05
1.46467e-05
1.42972e-05
1.39631e-05
1.36433e-05
1.33368e-05
1.30426e-05
1.27599e-05
1.24878e-05
1.22258e-05
1.1973e-05
1.1729e-05
1.14932e-05
1.12651e-05
1.10442e-05
0.000494953
0.000289464
0.000184246
0.000129649
9.92629e-05
8.07682e-05
6.84844e-05
5.97109e-05
5.30919e-05
4.78966e-05
4.36988e-05
4.02312e-05
3.7316e-05
3.48293e-05
3.26821e-05
3.08081e-05
2.91573e-05
2.76912e-05
2.63796e-05
2.51984e-05
2.41284e-05
2.31539e-05
2.2262e-05
2.1442e-05
2.0685e-05
1.99836e-05
1.93314e-05
1.87229e-05
1.81536e-05
1.76193e-05
1.71167e-05
1.66427e-05
1.61947e-05
1.57703e-05
1.53674e-05
1.49843e-05
1.46193e-05
1.4271e-05
1.39381e-05
1.36195e-05
1.3314e-05
1.30208e-05
1.27389e-05
1.24677e-05
1.22064e-05
1.19544e-05
1.1711e-05
1.14759e-05
1.12484e-05
1.10281e-05
0.000463983
0.000273082
0.000175977
0.000125282
9.67577e-05
7.91921e-05
6.74062e-05
5.89225e-05
5.24865e-05
4.74149e-05
4.33053e-05
3.99031e-05
3.70379e-05
3.45905e-05
3.24745e-05
3.06259e-05
2.89961e-05
2.75474e-05
2.62505e-05
2.50818e-05
2.40225e-05
2.30572e-05
2.21733e-05
2.13604e-05
2.06096e-05
1.99137e-05
1.92663e-05
1.86622e-05
1.80967e-05
1.7566e-05
1.70665e-05
1.65954e-05
1.615e-05
1.57279e-05
1.53273e-05
1.49462e-05
1.4583e-05
1.42364e-05
1.39051e-05
1.35879e-05
1.32838e-05
1.29918e-05
1.27111e-05
1.2441e-05
1.21807e-05
1.19297e-05
1.16872e-05
1.14529e-05
1.12262e-05
1.10067e-05
0.000428285
0.000254487
0.00016656
0.000120255
9.38358e-05
7.73306e-05
6.61194e-05
5.79744e-05
5.17546e-05
4.68303e-05
4.28263e-05
3.95027e-05
3.66979e-05
3.42979e-05
3.222e-05
3.04023e-05
2.8798e-05
2.73706e-05
2.60916e-05
2.49382e-05
2.3892e-05
2.2938e-05
2.2064e-05
2.12596e-05
2.05165e-05
1.98272e-05
1.91858e-05
1.85871e-05
1.80264e-05
1.75e-05
1.70044e-05
1.65368e-05
1.60946e-05
1.56755e-05
1.52776e-05
1.48989e-05
1.45381e-05
1.41936e-05
1.38642e-05
1.35487e-05
1.32463e-05
1.29559e-05
1.26766e-05
1.24079e-05
1.21489e-05
1.1899e-05
1.16577e-05
1.14244e-05
1.11987e-05
1.09801e-05
0.000389351
0.000234601
0.00015645
0.000114786
9.06053e-05
7.52411e-05
6.46577e-05
5.6888e-05
5.09106e-05
4.6153e-05
4.22693e-05
3.9036e-05
3.63007e-05
3.39555e-05
3.19215e-05
3.01397e-05
2.85651e-05
2.71625e-05
2.59044e-05
2.47689e-05
2.3738e-05
2.27973e-05
2.19348e-05
2.11406e-05
2.04063e-05
1.9725e-05
1.90906e-05
1.84981e-05
1.79431e-05
1.74217e-05
1.69308e-05
1.64674e-05
1.6029e-05
1.56133e-05
1.52185e-05
1.48428e-05
1.44846e-05
1.41426e-05
1.38155e-05
1.35022e-05
1.32017e-05
1.29132e-05
1.26357e-05
1.23685e-05
1.2111e-05
1.18625e-05
1.16225e-05
1.13905e-05
1.1166e-05
1.09485e-05
0.000349019
0.000214345
0.000146078
0.000109081
8.71704e-05
7.29813e-05
6.30556e-05
5.56858e-05
4.997e-05
4.53943e-05
4.1643e-05
3.85094e-05
3.58513e-05
3.35672e-05
3.15825e-05
2.9841e-05
2.82998e-05
2.69252e-05
2.56908e-05
2.45754e-05
2.35619e-05
2.26362e-05
2.17868e-05
2.10041e-05
2.028e-05
1.96077e-05
1.89813e-05
1.8396e-05
1.78474e-05
1.73318e-05
1.68461e-05
1.63875e-05
1.59534e-05
1.55417e-05
1.51506e-05
1.47782e-05
1.44231e-05
1.40839e-05
1.37594e-05
1.34486e-05
1.31504e-05
1.28639e-05
1.25884e-05
1.2323e-05
1.20672e-05
1.18204e-05
1.15819e-05
1.13514e-05
1.11282e-05
1.0912e-05
0.000309262
0.000194548
0.000135815
0.000103318
8.36254e-05
7.06051e-05
6.13469e-05
5.43902e-05
4.89488e-05
4.45659e-05
4.09561e-05
3.79298e-05
3.53553e-05
3.31377e-05
3.12068e-05
2.95094e-05
2.80047e-05
2.66609e-05
2.54525e-05
2.43594e-05
2.33651e-05
2.24561e-05
2.16212e-05
2.08513e-05
2.01384e-05
1.94761e-05
1.88586e-05
1.82813e-05
1.77398e-05
1.72308e-05
1.67509e-05
1.62976e-05
1.58684e-05
1.54611e-05
1.5074e-05
1.47054e-05
1.43537e-05
1.40177e-05
1.36962e-05
1.33881e-05
1.30924e-05
1.28083e-05
1.2535e-05
1.22717e-05
1.20179e-05
1.17728e-05
1.15361e-05
1.13071e-05
1.10854e-05
1.08706e-05
0.000271819
0.000175853
0.000125944
9.7642e-05
8.00501e-05
6.8161e-05
5.95632e-05
5.30231e-05
4.78627e-05
4.36796e-05
4.02177e-05
3.73044e-05
3.48185e-05
3.26716e-05
3.07981e-05
2.9148e-05
2.76827e-05
2.6372e-05
2.51918e-05
2.41228e-05
2.31493e-05
2.22583e-05
2.14393e-05
2.06832e-05
1.99826e-05
1.93312e-05
1.87234e-05
1.81548e-05
1.76212e-05
1.71192e-05
1.66458e-05
1.61982e-05
1.57743e-05
1.5372e-05
1.49893e-05
1.46248e-05
1.42769e-05
1.39444e-05
1.36261e-05
1.3321e-05
1.30281e-05
1.27466e-05
1.24757e-05
1.22148e-05
1.1963e-05
1.172e-05
1.14852e-05
1.12579e-05
1.1038e-05
1.08248e-05
0.0002378
0.000158687
0.000116664
9.21583e-05
7.65084e-05
6.56907e-05
5.7733e-05
5.16049e-05
4.67266e-05
4.27465e-05
3.94365e-05
3.66402e-05
3.42465e-05
3.21736e-05
3.03605e-05
2.87602e-05
2.73366e-05
2.60611e-05
2.49108e-05
2.38674e-05
2.29161e-05
2.20444e-05
2.12423e-05
2.05011e-05
1.98136e-05
1.91739e-05
1.85766e-05
1.80173e-05
1.74921e-05
1.69978e-05
1.65313e-05
1.609e-05
1.56719e-05
1.52748e-05
1.48969e-05
1.45368e-05
1.4193e-05
1.38643e-05
1.35496e-05
1.32477e-05
1.29579e-05
1.26792e-05
1.24109e-05
1.21524e-05
1.1903e-05
1.16622e-05
1.14294e-05
1.12041e-05
1.09859e-05
1.07745e-05
0.000207866
0.000143271
0.000108088
8.69379e-05
7.30489e-05
6.32287e-05
5.58815e-05
5.01539e-05
4.55544e-05
4.17776e-05
3.86211e-05
3.59441e-05
3.3645e-05
3.16485e-05
2.98979e-05
2.83495e-05
2.69694e-05
2.57306e-05
2.46117e-05
2.35953e-05
2.26673e-05
2.1816e-05
2.10316e-05
2.03061e-05
1.96326e-05
1.90052e-05
1.8419e-05
1.78697e-05
1.73535e-05
1.68672e-05
1.64081e-05
1.59736e-05
1.55615e-05
1.517e-05
1.47973e-05
1.4442e-05
1.41026e-05
1.37779e-05
1.34669e-05
1.31685e-05
1.28819e-05
1.26063e-05
1.23409e-05
1.2085e-05
1.18381e-05
1.15996e-05
1.1369e-05
1.11458e-05
1.09296e-05
1.072e-05
0.0001822
0.000129653
0.000100257
8.20219e-05
6.97066e-05
6.08027e-05
5.40296e-05
4.86863e-05
4.43586e-05
4.07826e-05
3.77795e-05
3.52226e-05
3.30194e-05
3.11009e-05
2.94144e-05
2.79193e-05
2.6584e-05
2.53831e-05
2.42967e-05
2.33083e-05
2.24046e-05
2.15744e-05
2.08087e-05
2.00996e-05
1.94407e-05
1.88263e-05
1.82517e-05
1.77128e-05
1.7206e-05
1.67283e-05
1.62769e-05
1.58495e-05
1.54439e-05
1.50583e-05
1.4691e-05
1.43407e-05
1.40059e-05
1.36855e-05
1.33785e-05
1.30838e-05
1.28007e-05
1.25283e-05
1.22659e-05
1.20128e-05
1.17686e-05
1.15326e-05
1.13043e-05
1.10833e-05
1.08692e-05
1.06615e-05
0.000160604
0.00011775
9.31634e-05
7.74293e-05
6.65057e-05
5.84341e-05
5.21946e-05
4.72156e-05
4.31499e-05
3.97702e-05
3.69187e-05
3.44817e-05
3.2375e-05
3.05352e-05
2.89137e-05
2.74728e-05
2.61832e-05
2.50213e-05
2.39681e-05
2.30085e-05
2.21297e-05
2.13215e-05
2.05749e-05
1.98829e-05
1.9239e-05
1.86381e-05
1.80756e-05
1.75475e-05
1.70506e-05
1.65817e-05
1.61384e-05
1.57183e-05
1.53195e-05
1.49401e-05
1.45786e-05
1.42335e-05
1.39035e-05
1.35877e-05
1.32848e-05
1.2994e-05
1.27145e-05
1.24455e-05
1.21862e-05
1.19362e-05
1.16947e-05
1.14613e-05
1.12355e-05
1.10168e-05
1.08049e-05
1.05993e-05
0.000142639
0.000107404
8.67698e-05
7.31641e-05
6.34612e-05
5.61385e-05
5.03898e-05
4.57527e-05
4.19374e-05
3.87481e-05
3.60455e-05
3.37272e-05
3.17167e-05
2.99556e-05
2.83994e-05
2.70133e-05
2.57699e-05
2.46474e-05
2.36281e-05
2.26978e-05
2.18445e-05
2.10586e-05
2.03317e-05
1.96571e-05
1.90287e-05
1.84417e-05
1.78916e-05
1.73747e-05
1.68879e-05
1.64283e-05
1.59933e-05
1.55809e-05
1.5189e-05
1.48161e-05
1.44604e-05
1.41208e-05
1.37959e-05
1.34847e-05
1.31862e-05
1.28995e-05
1.26237e-05
1.23582e-05
1.21023e-05
1.18553e-05
1.16168e-05
1.13861e-05
1.11629e-05
1.09467e-05
1.0737e-05
1.05336e-05
0.00012776
9.84267e-05
8.10228e-05
6.9221e-05
6.05815e-05
5.3926e-05
4.86245e-05
4.43057e-05
4.07283e-05
3.77229e-05
3.51657e-05
3.29643e-05
3.10488e-05
2.93661e-05
2.78751e-05
2.65438e-05
2.53468e-05
2.4264e-05
2.32788e-05
2.23781e-05
2.15506e-05
2.07873e-05
2.00805e-05
1.94236e-05
1.8811e-05
1.82381e-05
1.77007e-05
1.71953e-05
1.67189e-05
1.62687e-05
1.58423e-05
1.54377e-05
1.50531e-05
1.46867e-05
1.43372e-05
1.40032e-05
1.36835e-05
1.33772e-05
1.30831e-05
1.28006e-05
1.25288e-05
1.22669e-05
1.20144e-05
1.17707e-05
1.15351e-05
1.13073e-05
1.10868e-05
1.08731e-05
1.06658e-05
1.04647e-05
0.000115419
9.06289e-05
7.58672e-05
6.55896e-05
5.78685e-05
5.18015e-05
4.6904e-05
4.28805e-05
3.95286e-05
3.67002e-05
3.42845e-05
3.21976e-05
3.03758e-05
2.87705e-05
2.73441e-05
2.60672e-05
2.49164e-05
2.38732e-05
2.29222e-05
2.20511e-05
2.12497e-05
2.05092e-05
1.98225e-05
1.91835e-05
1.8587e-05
1.80284e-05
1.75039e-05
1.70102e-05
1.65443e-05
1.61037e-05
1.56861e-05
1.52895e-05
1.49122e-05
1.45526e-05
1.42094e-05
1.38811e-05
1.35668e-05
1.32654e-05
1.2976e-05
1.26978e-05
1.243e-05
1.21719e-05
1.19229e-05
1.16825e-05
1.14501e-05
1.12252e-05
1.10074e-05
1.07963e-05
1.05915e-05
1.03928e-05
0.00010513
8.38444e-05
7.12516e-05
6.22553e-05
5.53181e-05
4.97642e-05
4.52303e-05
4.14807e-05
3.8343e-05
3.56852e-05
3.34069e-05
3.14316e-05
2.97015e-05
2.81722e-05