/*--------------------------------*- C++ -*----------------------------------*\
  =========                 |
  \\      /  F ield         | OpenFOAM: The Open Source CFD Toolbox
   \\    /   O peration     | Website:  https://openfoam.org
    \\  /    A nd           | Version:  7
     \\/     M anipulation  |
\*---------------------------------------------------------------------------*/
FoamFile
{
    version     2.0;
    format      ascii;
    class       volScalarField;
    location    "248000";
    object      k;
}
// * * * * * * * * * * * * * * * * * * * * * * * * * * * * * * * * * * * * * //

dimensions      [0 2 -2 0 0 0 0];

internalField   nonuniform List<scalar> 
4782
(
1.2374e-06
1.23124e-06
1.22446e-06
1.21704e-06
1.20892e-06
1.20006e-06
1.1904e-06
1.1799e-06
1.1685e-06
1.15612e-06
1.18966e-06
1.19479e-06
1.19979e-06
1.20466e-06
1.2094e-06
1.214e-06
1.21846e-06
1.22278e-06
1.22696e-06
1.231e-06
1.2349e-06
1.23865e-06
1.24224e-06
1.24569e-06
1.24898e-06
1.25211e-06
1.25508e-06
1.25788e-06
1.2605e-06
1.26295e-06
1.2652e-06
1.26727e-06
1.26915e-06
1.27081e-06
1.27228e-06
1.27352e-06
1.27454e-06
1.27533e-06
1.27588e-06
1.27618e-06
1.27622e-06
1.276e-06
1.27549e-06
1.27469e-06
1.27359e-06
1.27216e-06
1.2704e-06
1.26829e-06
1.26581e-06
1.26294e-06
1.25966e-06
1.25594e-06
1.25177e-06
1.24712e-06
1.24195e-06
1.23624e-06
1.22995e-06
1.22304e-06
1.21548e-06
1.20722e-06
1.19821e-06
1.18841e-06
1.17775e-06
1.16618e-06
1.15363e-06
1.19192e-06
1.197e-06
1.20194e-06
1.20675e-06
1.21142e-06
1.21596e-06
1.22036e-06
1.22463e-06
1.22875e-06
1.23273e-06
1.23656e-06
1.24025e-06
1.24379e-06
1.24717e-06
1.2504e-06
1.25347e-06
1.25637e-06
1.25911e-06
1.26166e-06
1.26404e-06
1.26623e-06
1.26823e-06
1.27003e-06
1.27163e-06
1.27301e-06
1.27418e-06
1.27513e-06
1.27584e-06
1.27631e-06
1.27653e-06
1.27649e-06
1.27618e-06
1.27559e-06
1.27471e-06
1.27351e-06
1.27199e-06
1.27014e-06
1.26793e-06
1.26535e-06
1.26238e-06
1.25899e-06
1.25517e-06
1.25088e-06
1.24611e-06
1.24082e-06
1.23498e-06
1.22856e-06
1.22152e-06
1.21382e-06
1.20541e-06
1.19625e-06
1.18629e-06
1.17547e-06
1.16373e-06
1.151e-06
1.19419e-06
1.1992e-06
1.20408e-06
1.20883e-06
1.21344e-06
1.21792e-06
1.22226e-06
1.22646e-06
1.23052e-06
1.23444e-06
1.23821e-06
1.24184e-06
1.24532e-06
1.24864e-06
1.2518e-06
1.2548e-06
1.25764e-06
1.2603e-06
1.26279e-06
1.2651e-06
1.26721e-06
1.26914e-06
1.27087e-06
1.27239e-06
1.2737e-06
1.27479e-06
1.27566e-06
1.27629e-06
1.27668e-06
1.27682e-06
1.2767e-06
1.2763e-06
1.27562e-06
1.27465e-06
1.27336e-06
1.27175e-06
1.2698e-06
1.26749e-06
1.2648e-06
1.26172e-06
1.25823e-06
1.25429e-06
1.24989e-06
1.245e-06
1.23958e-06
1.23362e-06
1.22706e-06
1.21988e-06
1.21203e-06
1.20348e-06
1.19416e-06
1.18404e-06
1.17305e-06
1.16113e-06
1.14822e-06
1.19648e-06
1.20142e-06
1.20623e-06
1.21092e-06
1.21546e-06
1.21988e-06
1.22415e-06
1.22829e-06
1.23228e-06
1.23613e-06
1.23984e-06
1.2434e-06
1.24681e-06
1.25007e-06
1.25316e-06
1.25609e-06
1.25886e-06
1.26145e-06
1.26386e-06
1.2661e-06
1.26814e-06
1.26999e-06
1.27164e-06
1.27309e-06
1.27432e-06
1.27533e-06
1.27612e-06
1.27667e-06
1.27697e-06
1.27703e-06
1.27682e-06
1.27633e-06
1.27556e-06
1.27449e-06
1.27311e-06
1.2714e-06
1.26935e-06
1.26694e-06
1.26415e-06
1.26096e-06
1.25735e-06
1.2533e-06
1.24878e-06
1.24376e-06
1.23822e-06
1.23212e-06
1.22542e-06
1.2181e-06
1.2101e-06
1.20139e-06
1.19191e-06
1.18162e-06
1.17046e-06
1.15836e-06
1.14526e-06
1.19648e-06
1.20142e-06
1.20623e-06
1.21092e-06
1.21546e-06
1.21988e-06
1.22415e-06
1.22829e-06
1.23228e-06
1.23613e-06
1.23984e-06
1.2434e-06
1.24681e-06
1.25007e-06
1.25316e-06
1.25609e-06
1.25886e-06
1.26145e-06
1.26386e-06
1.2661e-06
1.26814e-06
1.26999e-06
1.27164e-06
1.27309e-06
1.27432e-06
1.27533e-06
1.27612e-06
1.27667e-06
1.27697e-06
1.27703e-06
1.27682e-06
1.27633e-06
1.27556e-06
1.27449e-06
1.27311e-06
1.2714e-06
1.26935e-06
1.26694e-06
1.26415e-06
1.26096e-06
1.25735e-06
1.2533e-06
1.24878e-06
1.24376e-06
1.23822e-06
1.23212e-06
1.22542e-06
1.2181e-06
1.2101e-06
1.20139e-06
1.19191e-06
1.18162e-06
1.17046e-06
1.15836e-06
1.14526e-06
1.19419e-06
1.1992e-06
1.20408e-06
1.20883e-06
1.21344e-06
1.21792e-06
1.22226e-06
1.22646e-06
1.23052e-06
1.23444e-06
1.23821e-06
1.24184e-06
1.24532e-06
1.24864e-06
1.2518e-06
1.2548e-06
1.25764e-06
1.2603e-06
1.26279e-06
1.2651e-06
1.26721e-06
1.26914e-06
1.27087e-06
1.27239e-06
1.2737e-06
1.27479e-06
1.27566e-06
1.27629e-06
1.27668e-06
1.27682e-06
1.2767e-06
1.2763e-06
1.27562e-06
1.27465e-06
1.27336e-06
1.27175e-06
1.2698e-06
1.26749e-06
1.2648e-06
1.26172e-06
1.25823e-06
1.25429e-06
1.24989e-06
1.245e-06
1.23958e-06
1.23362e-06
1.22706e-06
1.21988e-06
1.21203e-06
1.20348e-06
1.19416e-06
1.18404e-06
1.17305e-06
1.16113e-06
1.14822e-06
1.13425e-06
1.11914e-06
1.10281e-06
1.08517e-06
1.19192e-06
1.19699e-06
1.20194e-06
1.20675e-06
1.21142e-06
1.21596e-06
1.22036e-06
1.22463e-06
1.22875e-06
1.23273e-06
1.23656e-06
1.24025e-06
1.24379e-06
1.24717e-06
1.2504e-06
1.25347e-06
1.25637e-06
1.25911e-06
1.26166e-06
1.26404e-06
1.26623e-06
1.26823e-06
1.27003e-06
1.27163e-06
1.27301e-06
1.27418e-06
1.27513e-06
1.27584e-06
1.27631e-06
1.27653e-06
1.27649e-06
1.27618e-06
1.27559e-06
1.27471e-06
1.27351e-06
1.27199e-06
1.27014e-06
1.26793e-06
1.26535e-06
1.26238e-06
1.25899e-06
1.25517e-06
1.25088e-06
1.24611e-06
1.24082e-06
1.23498e-06
1.22856e-06
1.22152e-06
1.21382e-06
1.20541e-06
1.19625e-06
1.18629e-06
1.17547e-06
1.16372e-06
1.151e-06
1.13721e-06
1.1223e-06
1.10617e-06
1.08875e-06
1.06993e-06
1.18966e-06
1.19479e-06
1.19979e-06
1.20466e-06
1.2094e-06
1.214e-06
1.21846e-06
1.22278e-06
1.22696e-06
1.231e-06
1.2349e-06
1.23865e-06
1.24224e-06
1.24569e-06
1.24898e-06
1.25211e-06
1.25508e-06
1.25788e-06
1.2605e-06
1.26295e-06
1.2652e-06
1.26727e-06
1.26915e-06
1.27081e-06
1.27228e-06
1.27352e-06
1.27454e-06
1.27533e-06
1.27588e-06
1.27618e-06
1.27622e-06
1.276e-06
1.27549e-06
1.27469e-06
1.27359e-06
1.27216e-06
1.2704e-06
1.26829e-06
1.26581e-06
1.26294e-06
1.25966e-06
1.25594e-06
1.25177e-06
1.24712e-06
1.24195e-06
1.23624e-06
1.22995e-06
1.22304e-06
1.21548e-06
1.20722e-06
1.19821e-06
1.18841e-06
1.17775e-06
1.16618e-06
1.15362e-06
1.14003e-06
1.1253e-06
1.10937e-06
1.09215e-06
1.07354e-06
1.05344e-06
1.03176e-06
1.00838e-06
9.83194e-07
9.56086e-07
9.26943e-07
8.95658e-07
8.62129e-07
8.26267e-07
7.88005e-07
7.473e-07
7.04133e-07
6.5847e-07
6.1032e-07
5.59859e-07
5.07443e-07
4.53609e-07
3.99095e-07
3.44836e-07
2.91934e-07
2.41576e-07
1.94921e-07
1.52969e-07
1.16434e-07
8.56713e-08
6.06695e-08
4.10968e-08
2.6389e-08
1.58445e-08
8.70711e-09
4.2278e-09
1.70416e-09
5.04229e-10
8.26547e-11
3.55532e-12
1.18742e-06
1.19261e-06
1.19767e-06
1.20259e-06
1.20738e-06
1.21204e-06
1.21656e-06
1.22094e-06
1.22518e-06
1.22928e-06
1.23323e-06
1.23704e-06
1.2407e-06
1.2442e-06
1.24755e-06
1.25075e-06
1.25377e-06
1.25664e-06
1.25932e-06
1.26183e-06
1.26416e-06
1.26629e-06
1.26823e-06
1.26997e-06
1.2715e-06
1.27282e-06
1.27392e-06
1.27478e-06
1.27541e-06
1.27579e-06
1.27591e-06
1.27576e-06
1.27534e-06
1.27462e-06
1.27361e-06
1.27227e-06
1.2706e-06
1.26858e-06
1.2662e-06
1.26343e-06
1.26025e-06
1.25664e-06
1.25258e-06
1.24804e-06
1.24299e-06
1.2374e-06
1.23124e-06
1.22446e-06
1.21704e-06
1.20892e-06
1.20006e-06
1.1904e-06
1.1799e-06
1.1685e-06
1.15612e-06
1.14269e-06
1.12815e-06
1.11241e-06
1.09539e-06
1.07698e-06
1.0571e-06
1.03563e-06
1.01246e-06
9.87498e-07
9.6061e-07
9.31688e-07
9.00618e-07
8.67296e-07
8.31631e-07
7.93548e-07
7.52999e-07
7.09962e-07
6.6441e-07
6.16331e-07
5.6588e-07
5.13397e-07
4.59405e-07
4.04631e-07
3.50006e-07
2.96634e-07
2.45721e-07
1.98453e-07
1.55868e-07
1.18717e-07
8.73933e-08
6.19078e-08
4.19416e-08
2.69312e-08
1.61676e-08
8.88192e-09
4.31048e-09
1.73604e-09
5.12892e-10
8.38172e-11
3.58162e-12
1.18521e-06
1.19046e-06
1.19557e-06
1.20055e-06
1.2054e-06
1.21011e-06
1.21468e-06
1.21912e-06
1.22342e-06
1.22757e-06
1.23158e-06
1.23544e-06
1.23916e-06
1.24272e-06
1.24613e-06
1.24938e-06
1.25247e-06
1.25539e-06
1.25814e-06
1.26071e-06
1.2631e-06
1.2653e-06
1.26731e-06
1.26912e-06
1.27072e-06
1.2721e-06
1.27327e-06
1.27421e-06
1.27491e-06
1.27536e-06
1.27556e-06
1.27549e-06
1.27515e-06
1.27452e-06
1.27358e-06
1.27233e-06
1.27075e-06
1.26883e-06
1.26654e-06
1.26386e-06
1.26078e-06
1.25728e-06
1.25332e-06
1.24889e-06
1.24396e-06
1.23848e-06
1.23244e-06
1.22579e-06
1.2185e-06
1.21051e-06
1.20179e-06
1.19229e-06
1.18194e-06
1.17069e-06
1.15848e-06
1.14523e-06
1.13086e-06
1.11531e-06
1.09847e-06
1.08026e-06
1.06058e-06
1.03931e-06
1.01636e-06
9.91609e-07
9.64937e-07
9.36228e-07
9.05368e-07
8.7225e-07
8.36776e-07
7.98869e-07
7.58476e-07
7.1557e-07
6.70132e-07
6.22127e-07
5.71693e-07
5.19155e-07
4.65021e-07
4.10005e-07
3.55033e-07
3.01215e-07
2.49768e-07
2.0191e-07
1.58709e-07
1.20959e-07
8.90859e-08
6.31261e-08
4.27731e-08
2.74651e-08
1.64857e-08
9.05404e-09
4.39186e-09
1.76738e-09
5.21399e-10
8.49554e-11
3.60721e-12
1.18305e-06
1.18834e-06
1.19351e-06
1.19854e-06
1.20344e-06
1.20821e-06
1.21284e-06
1.21733e-06
1.22168e-06
1.22589e-06
1.22995e-06
1.23387e-06
1.23764e-06
1.24125e-06
1.24472e-06
1.24803e-06
1.25117e-06
1.25415e-06
1.25696e-06
1.2596e-06
1.26205e-06
1.26431e-06
1.26638e-06
1.26825e-06
1.26992e-06
1.27137e-06
1.27261e-06
1.27361e-06
1.27439e-06
1.27491e-06
1.27519e-06
1.27519e-06
1.27493e-06
1.27438e-06
1.27352e-06
1.27236e-06
1.27086e-06
1.26902e-06
1.26682e-06
1.26424e-06
1.26126e-06
1.25785e-06
1.254e-06
1.24968e-06
1.24485e-06
1.23949e-06
1.23356e-06
1.22703e-06
1.21987e-06
1.21201e-06
1.20343e-06
1.19406e-06
1.18386e-06
1.17277e-06
1.16071e-06
1.14762e-06
1.13343e-06
1.11805e-06
1.1014e-06
1.08337e-06
1.06388e-06
1.04282e-06
1.02007e-06
9.95525e-07
9.6906e-07
9.40558e-07
9.09902e-07
8.76981e-07
8.41696e-07
8.03962e-07
7.63722e-07
7.20947e-07
6.75623e-07
6.27696e-07
5.77286e-07
5.24702e-07
4.70439e-07
4.152e-07
3.59903e-07
3.05661e-07
2.53705e-07
2.05278e-07
1.61483e-07
1.23151e-07
9.07427e-08
6.43196e-08
4.35882e-08
2.79886e-08
1.67977e-08
9.22278e-09
4.4716e-09
1.79807e-09
5.29719e-10
8.60655e-11
3.63201e-12
1.18094e-06
1.18628e-06
1.1915e-06
1.19658e-06
1.20154e-06
1.20635e-06
1.21103e-06
1.21557e-06
1.21998e-06
1.22424e-06
1.22835e-06
1.23232e-06
1.23615e-06
1.23982e-06
1.24333e-06
1.2467e-06
1.2499e-06
1.25293e-06
1.2558e-06
1.25849e-06
1.261e-06
1.26333e-06
1.26546e-06
1.26739e-06
1.26912e-06
1.27064e-06
1.27194e-06
1.27302e-06
1.27386e-06
1.27445e-06
1.2748e-06
1.27488e-06
1.27469e-06
1.27421e-06
1.27343e-06
1.27235e-06
1.27093e-06
1.26918e-06
1.26707e-06
1.26457e-06
1.26168e-06
1.25837e-06
1.25462e-06
1.25039e-06
1.24567e-06
1.24041e-06
1.2346e-06
1.22819e-06
1.22114e-06
1.21341e-06
1.20496e-06
1.19573e-06
1.18566e-06
1.17471e-06
1.16281e-06
1.14988e-06
1.13585e-06
1.12064e-06
1.10416e-06
1.08631e-06
1.06701e-06
1.04614e-06
1.02358e-06
9.99235e-07
9.72969e-07
9.44666e-07
9.14208e-07
8.81478e-07
8.46375e-07
8.0881e-07
7.68721e-07
7.26075e-07
6.80863e-07
6.33016e-07
5.82636e-07
5.30016e-07
4.75639e-07
4.20193e-07
3.64593e-07
3.09951e-07
2.57512e-07
2.0854e-07
1.64174e-07
1.25281e-07
9.23549e-08
6.54819e-08
4.43825e-08
2.84988e-08
1.71017e-08
9.38722e-09
4.54928e-09
1.82794e-09
5.37806e-10
8.71412e-11
3.65587e-12
1.17889e-06
1.18428e-06
1.18955e-06
1.19468e-06
1.19968e-06
1.20455e-06
1.20928e-06
1.21387e-06
1.21832e-06
1.22263e-06
1.2268e-06
1.23082e-06
1.23469e-06
1.23842e-06
1.24198e-06
1.2454e-06
1.24865e-06
1.25174e-06
1.25466e-06
1.25741e-06
1.25998e-06
1.26236e-06
1.26455e-06
1.26654e-06
1.26834e-06
1.26992e-06
1.27128e-06
1.27242e-06
1.27332e-06
1.27398e-06
1.27439e-06
1.27455e-06
1.27442e-06
1.27402e-06
1.27332e-06
1.27231e-06
1.27097e-06
1.2693e-06
1.26726e-06
1.26486e-06
1.26205e-06
1.25883e-06
1.25517e-06
1.25104e-06
1.24641e-06
1.24126e-06
1.23555e-06
1.22925e-06
1.22231e-06
1.2147e-06
1.20637e-06
1.19727e-06
1.18734e-06
1.17652e-06
1.16476e-06
1.15198e-06
1.1381e-06
1.12305e-06
1.10674e-06
1.08907e-06
1.06994e-06
1.04925e-06
1.02688e-06
1.00272e-06
9.76643e-07
9.4853e-07
9.1826e-07
8.85714e-07
8.50786e-07
8.13384e-07
7.73441e-07
7.30919e-07
6.85804e-07
6.38035e-07
5.87691e-07
5.35048e-07
4.80571e-07
4.24941e-07
3.69063e-07
3.14049e-07
2.61156e-07
2.1167e-07
1.66761e-07
1.27332e-07
9.39086e-08
6.66031e-08
4.51491e-08
2.89914e-08
1.73953e-08
9.54593e-09
4.62422e-09
1.85674e-09
5.45587e-10
8.81719e-11
3.67842e-12
1.17691e-06
1.18236e-06
1.18767e-06
1.19285e-06
1.1979e-06
1.20281e-06
1.20759e-06
1.21223e-06
1.21673e-06
1.22108e-06
1.2253e-06
1.22937e-06
1.23329e-06
1.23706e-06
1.24068e-06
1.24414e-06
1.24744e-06
1.25059e-06
1.25356e-06
1.25636e-06
1.25898e-06
1.26142e-06
1.26366e-06
1.26571e-06
1.26756e-06
1.2692e-06
1.27062e-06
1.27182e-06
1.27279e-06
1.27351e-06
1.27399e-06
1.2742e-06
1.27415e-06
1.27381e-06
1.27318e-06
1.27224e-06
1.27098e-06
1.26938e-06
1.26743e-06
1.2651e-06
1.26238e-06
1.25924e-06
1.25566e-06
1.25162e-06
1.24709e-06
1.24204e-06
1.23643e-06
1.23023e-06
1.2234e-06
1.2159e-06
1.20769e-06
1.1987e-06
1.1889e-06
1.17821e-06
1.16659e-06
1.15395e-06
1.14022e-06
1.12532e-06
1.10916e-06
1.09165e-06
1.07269e-06
1.05217e-06
1.02998e-06
1.006e-06
9.80103e-07
9.52172e-07
9.22082e-07
8.89712e-07
8.54953e-07
8.17709e-07
7.77908e-07
7.35507e-07
6.90489e-07
6.42797e-07
5.92493e-07
5.39833e-07
4.85269e-07
4.29469e-07
3.73333e-07
3.17971e-07
2.64649e-07
2.14676e-07
1.6925e-07
1.29307e-07
9.5407e-08
6.76853e-08
4.58894e-08
2.94672e-08
1.76789e-08
9.69925e-09
4.69658e-09
1.88452e-09
5.53086e-10
8.91627e-11
3.69998e-12
1.17502e-06
1.18051e-06
1.18587e-06
1.19109e-06
1.19618e-06
1.20114e-06
1.20596e-06
1.21065e-06
1.21519e-06
1.2196e-06
1.22386e-06
1.22797e-06
1.23194e-06
1.23576e-06
1.23942e-06
1.24293e-06
1.24628e-06
1.24947e-06
1.25249e-06
1.25534e-06
1.25801e-06
1.2605e-06
1.2628e-06
1.26491e-06
1.26681e-06
1.2685e-06
1.26998e-06
1.27124e-06
1.27226e-06
1.27305e-06
1.27359e-06
1.27386e-06
1.27387e-06
1.2736e-06
1.27304e-06
1.27216e-06
1.27097e-06
1.26944e-06
1.26756e-06
1.26531e-06
1.26266e-06
1.25961e-06
1.25611e-06
1.25216e-06
1.24771e-06
1.24275e-06
1.23724e-06
1.23113e-06
1.22441e-06
1.21701e-06
1.20891e-06
1.20004e-06
1.19035e-06
1.17979e-06
1.16829e-06
1.15578e-06
1.14219e-06
1.12743e-06
1.11142e-06
1.09407e-06
1.07527e-06
1.05491e-06
1.03289e-06
1.00907e-06
9.83352e-07
9.55595e-07
9.25676e-07
8.93474e-07
8.58876e-07
8.21783e-07
7.82119e-07
7.39836e-07
6.94913e-07
6.47299e-07
5.97037e-07
5.44366e-07
4.89725e-07
4.33771e-07
3.77395e-07
3.21708e-07
2.67985e-07
2.17551e-07
1.71633e-07
1.31202e-07
9.68455e-08
6.8725e-08
4.6601e-08
2.99247e-08
1.79516e-08
9.84664e-09
4.76612e-09
1.91121e-09
5.60282e-10
9.01113e-11
3.72052e-12
1.17323e-06
1.17875e-06
1.18415e-06
1.18942e-06
1.19455e-06
1.19955e-06
1.20442e-06
1.20914e-06
1.21373e-06
1.21818e-06
1.22248e-06
1.22664e-06
1.23065e-06
1.23451e-06
1.23822e-06
1.24177e-06
1.24517e-06
1.24841e-06
1.25147e-06
1.25437e-06
1.25709e-06
1.25963e-06
1.26198e-06
1.26413e-06
1.26609e-06
1.26783e-06
1.26936e-06
1.27067e-06
1.27175e-06
1.2726e-06
1.27319e-06
1.27353e-06
1.27359e-06
1.27338e-06
1.27288e-06
1.27207e-06
1.27095e-06
1.26948e-06
1.26767e-06
1.26549e-06
1.26292e-06
1.25993e-06
1.25652e-06
1.25264e-06
1.24828e-06
1.2434e-06
1.23798e-06
1.23197e-06
1.22534e-06
1.21804e-06
1.21004e-06
1.20127e-06
1.1917e-06
1.18125e-06
1.16987e-06
1.15749e-06
1.14403e-06
1.12941e-06
1.11354e-06
1.09633e-06
1.07767e-06
1.05747e-06
1.0356e-06
1.01195e-06
9.86391e-07
9.58797e-07
9.29041e-07
8.96998e-07
8.62554e-07
8.25605e-07
7.86071e-07
7.43901e-07
6.99071e-07
6.51534e-07
6.01315e-07
5.48638e-07
4.9393e-07
4.37836e-07
3.8124e-07
3.25251e-07
2.71151e-07
2.20284e-07
1.73902e-07
1.33007e-07
9.82183e-08
6.9718e-08
4.72809e-08
3.0362e-08
1.82122e-08
9.98751e-09
4.83257e-09
1.9367e-09
5.67147e-10
9.10145e-11
3.74001e-12
1.17153e-06
1.17709e-06
1.18253e-06
1.18784e-06
1.19301e-06
1.19805e-06
1.20295e-06
1.20772e-06
1.21235e-06
1.21684e-06
1.22118e-06
1.22538e-06
1.22943e-06
1.23333e-06
1.23708e-06
1.24068e-06
1.24412e-06
1.2474e-06
1.25051e-06
1.25345e-06
1.25621e-06
1.2588e-06
1.26119e-06
1.26339e-06
1.2654e-06
1.26719e-06
1.26877e-06
1.27013e-06
1.27127e-06
1.27216e-06
1.27281e-06
1.2732e-06
1.27332e-06
1.27317e-06
1.27272e-06
1.27198e-06
1.27091e-06
1.26951e-06
1.26776e-06
1.26565e-06
1.26314e-06
1.26023e-06
1.25689e-06
1.25308e-06
1.2488e-06
1.244e-06
1.23866e-06
1.23273e-06
1.22619e-06
1.21899e-06
1.21108e-06
1.20242e-06
1.19295e-06
1.18261e-06
1.17134e-06
1.15907e-06
1.14573e-06
1.13123e-06
1.1155e-06
1.09842e-06
1.07991e-06
1.05985e-06
1.03813e-06
1.01462e-06
9.89218e-07
9.61777e-07
9.32174e-07
9.00281e-07
8.65982e-07
8.29169e-07
7.8976e-07
7.47698e-07
7.02957e-07
6.55494e-07
6.0532e-07
5.52641e-07
4.97874e-07
4.41654e-07
3.84855e-07
3.28587e-07
2.74137e-07
2.22865e-07
1.76049e-07
1.34718e-07
9.95197e-08
7.066e-08
4.79263e-08
3.07771e-08
1.84597e-08
1.01212e-08
4.89564e-09
1.96088e-09
5.73654e-10
9.18689e-11
3.75838e-12
1.16993e-06
1.17554e-06
1.18101e-06
1.18635e-06
1.19156e-06
1.19664e-06
1.20158e-06
1.20639e-06
1.21105e-06
1.21558e-06
1.21996e-06
1.2242e-06
1.22829e-06
1.23223e-06
1.23602e-06
1.23965e-06
1.24313e-06
1.24645e-06
1.2496e-06
1.25258e-06
1.25539e-06
1.25801e-06
1.26045e-06
1.2627e-06
1.26474e-06
1.26659e-06
1.26821e-06
1.26962e-06
1.2708e-06
1.27174e-06
1.27244e-06
1.27288e-06
1.27306e-06
1.27296e-06
1.27257e-06
1.27187e-06
1.27087e-06
1.26952e-06
1.26784e-06
1.26578e-06
1.26334e-06
1.26049e-06
1.25722e-06
1.25348e-06
1.24927e-06
1.24455e-06
1.23928e-06
1.23344e-06
1.22698e-06
1.21986e-06
1.21204e-06
1.20347e-06
1.19409e-06
1.18385e-06
1.17269e-06
1.16053e-06
1.1473e-06
1.13292e-06
1.1173e-06
1.10035e-06
1.08197e-06
1.06204e-06
1.04046e-06
1.0171e-06
9.91832e-07
9.64534e-07
9.35073e-07
9.03321e-07
8.69157e-07
8.32472e-07
7.9318e-07
7.51221e-07
7.06565e-07
6.59174e-07
6.09043e-07
5.56367e-07
5.01549e-07
4.45214e-07
3.88232e-07
3.31707e-07
2.76934e-07
2.25287e-07
1.78065e-07
1.36326e-07
1.00744e-07
7.1547e-08
4.85342e-08
3.11683e-08
1.86929e-08
1.02473e-08
4.95505e-09
1.98365e-09
5.79775e-10
9.26713e-11
3.77557e-12
1.16845e-06
1.17409e-06
1.1796e-06
1.18497e-06
1.19022e-06
1.19533e-06
1.20031e-06
1.20515e-06
1.20985e-06
1.21441e-06
1.21882e-06
1.2231e-06
1.22722e-06
1.2312e-06
1.23502e-06
1.23869e-06
1.24221e-06
1.24556e-06
1.24875e-06
1.25177e-06
1.25462e-06
1.25728e-06
1.25976e-06
1.26205e-06
1.26414e-06
1.26602e-06
1.26769e-06
1.26914e-06
1.27036e-06
1.27135e-06
1.2721e-06
1.27258e-06
1.27281e-06
1.27276e-06
1.27241e-06
1.27177e-06
1.27082e-06
1.26953e-06
1.26789e-06
1.2659e-06
1.26351e-06
1.26073e-06
1.25751e-06
1.25384e-06
1.2497e-06
1.24504e-06
1.23984e-06
1.23407e-06
1.22769e-06
1.22065e-06
1.21291e-06
1.20442e-06
1.19514e-06
1.18499e-06
1.17392e-06
1.16186e-06
1.14874e-06
1.13446e-06
1.11896e-06
1.10212e-06
1.08386e-06
1.06405e-06
1.0426e-06
1.01936e-06
9.94231e-07
9.67066e-07
9.37737e-07
9.06114e-07
8.72076e-07
8.35511e-07
7.96329e-07
7.54465e-07
7.0989e-07
6.62567e-07
6.12479e-07
5.59807e-07
5.04945e-07
4.48509e-07
3.9136e-07
3.34601e-07
2.79532e-07
2.27538e-07
1.79942e-07
1.37825e-07
1.01887e-07
7.2375e-08
4.91019e-08
3.15336e-08
1.89107e-08
1.0365e-08
5.01054e-09
2.0049e-09
5.85485e-10
9.34186e-11
3.79153e-12
1.16709e-06
1.17276e-06
1.1783e-06
1.1837e-06
1.18898e-06
1.19412e-06
1.19913e-06
1.204e-06
1.20873e-06
1.21333e-06
1.21778e-06
1.22208e-06
1.22624e-06
1.23025e-06
1.23411e-06
1.23781e-06
1.24136e-06
1.24474e-06
1.24797e-06
1.25102e-06
1.2539e-06
1.25661e-06
1.25912e-06
1.26145e-06
1.26357e-06
1.26549e-06
1.2672e-06
1.26869e-06
1.26996e-06
1.27099e-06
1.27177e-06
1.2723e-06
1.27257e-06
1.27256e-06
1.27227e-06
1.27167e-06
1.27076e-06
1.26953e-06
1.26794e-06
1.266e-06
1.26367e-06
1.26093e-06
1.25777e-06
1.25416e-06
1.25008e-06
1.24548e-06
1.24035e-06
1.23465e-06
1.22833e-06
1.22136e-06
1.2137e-06
1.20529e-06
1.19609e-06
1.18602e-06
1.17504e-06
1.16307e-06
1.15004e-06
1.13586e-06
1.12046e-06
1.10373e-06
1.08557e-06
1.06588e-06
1.04454e-06
1.02143e-06
9.96415e-07
9.6937e-07
9.40162e-07
9.0866e-07
8.74737e-07
8.38282e-07
7.99201e-07
7.57427e-07
7.12926e-07
6.65667e-07
6.15621e-07
5.62955e-07
5.08056e-07
4.5153e-07
3.94231e-07
3.37261e-07
2.81922e-07
2.29613e-07
1.81673e-07
1.39208e-07
1.02942e-07
7.31403e-08
4.96269e-08
3.18716e-08
1.91122e-08
1.04738e-08
5.06184e-09
2.02455e-09
5.90759e-10
9.41077e-11
3.8062e-12
1.16585e-06
1.17154e-06
1.17711e-06
1.18255e-06
1.18785e-06
1.19302e-06
1.19806e-06
1.20296e-06
1.20772e-06
1.21234e-06
1.21682e-06
1.22116e-06
1.22535e-06
1.22938e-06
1.23327e-06
1.23701e-06
1.24058e-06
1.244e-06
1.24726e-06
1.25034e-06
1.25325e-06
1.25599e-06
1.25854e-06
1.2609e-06
1.26306e-06
1.26501e-06
1.26676e-06
1.26829e-06
1.26959e-06
1.27065e-06
1.27148e-06
1.27205e-06
1.27235e-06
1.27238e-06
1.27213e-06
1.27158e-06
1.27071e-06
1.26952e-06
1.26798e-06
1.26608e-06
1.2638e-06
1.26111e-06
1.25801e-06
1.25445e-06
1.25042e-06
1.24588e-06
1.24081e-06
1.23516e-06
1.22891e-06
1.222e-06
1.21441e-06
1.20607e-06
1.19694e-06
1.18695e-06
1.17604e-06
1.16416e-06
1.15121e-06
1.13712e-06
1.12181e-06
1.10518e-06
1.08712e-06
1.06753e-06
1.04629e-06
1.02329e-06
9.98382e-07
9.71447e-07
9.42349e-07
9.10955e-07
8.77138e-07
8.40783e-07
8.01794e-07
7.60102e-07
7.1567e-07
6.68471e-07
6.18463e-07
5.65806e-07
5.10875e-07
4.54269e-07
3.96837e-07
3.39678e-07
2.84096e-07
2.31501e-07
1.83251e-07
1.4047e-07
1.03906e-07
7.38396e-08
5.01068e-08
3.21805e-08
1.92964e-08
1.05734e-08
5.10873e-09
2.0425e-09
5.95574e-10
9.47361e-11
3.81955e-12
1.16473e-06
1.17045e-06
1.17605e-06
1.18151e-06
1.18684e-06
1.19204e-06
1.1971e-06
1.20203e-06
1.20681e-06
1.21146e-06
1.21597e-06
1.22033e-06
1.22454e-06
1.22861e-06
1.23252e-06
1.23628e-06
1.23989e-06
1.24333e-06
1.24661e-06
1.24973e-06
1.25267e-06
1.25543e-06
1.25801e-06
1.2604e-06
1.26259e-06
1.26458e-06
1.26636e-06
1.26792e-06
1.26925e-06
1.27035e-06
1.27121e-06
1.27181e-06
1.27215e-06
1.27222e-06
1.272e-06
1.27149e-06
1.27066e-06
1.26951e-06
1.26801e-06
1.26615e-06
1.26391e-06
1.26127e-06
1.25821e-06
1.2547e-06
1.25071e-06
1.24623e-06
1.2412e-06
1.23561e-06
1.22942e-06
1.22257e-06
1.21503e-06
1.20676e-06
1.19769e-06
1.18777e-06
1.17694e-06
1.16512e-06
1.15225e-06
1.13824e-06
1.12301e-06
1.10646e-06
1.08849e-06
1.06899e-06
1.04785e-06
1.02494e-06
1.00013e-06
9.73296e-07
9.44296e-07
9.12999e-07
8.79276e-07
8.43011e-07
8.04105e-07
7.62487e-07
7.18118e-07
6.70973e-07
6.21001e-07
5.68352e-07
5.13395e-07
4.5672e-07
3.99171e-07
3.41844e-07
2.86047e-07
2.33198e-07
1.84669e-07
1.41606e-07
1.04773e-07
7.44695e-08
5.05392e-08
3.2459e-08
1.94625e-08
1.06631e-08
5.15099e-09
2.05867e-09
5.9991e-10
9.53011e-11
3.83153e-12
1.16375e-06
1.16949e-06
1.17511e-06
1.18059e-06
1.18595e-06
1.19117e-06
1.19625e-06
1.2012e-06
1.20601e-06
1.21068e-06
1.21521e-06
1.2196e-06
1.22383e-06
1.22792e-06
1.23186e-06
1.23565e-06
1.23927e-06
1.24274e-06
1.24605e-06
1.24919e-06
1.25215e-06
1.25494e-06
1.25755e-06
1.25996e-06
1.26218e-06
1.26419e-06
1.266e-06
1.26759e-06
1.26895e-06
1.27008e-06
1.27097e-06
1.2716e-06
1.27197e-06
1.27207e-06
1.27189e-06
1.27141e-06
1.27061e-06
1.26949e-06
1.26803e-06
1.26621e-06
1.26401e-06
1.26141e-06
1.25838e-06
1.25491e-06
1.25097e-06
1.24653e-06
1.24155e-06
1.23601e-06
1.22986e-06
1.22306e-06
1.21558e-06
1.20736e-06
1.19835e-06
1.18848e-06
1.17771e-06
1.16596e-06
1.15316e-06
1.13922e-06
1.12406e-06
1.10759e-06
1.08969e-06
1.07027e-06
1.04921e-06
1.02639e-06
1.00166e-06
9.74914e-07
9.46001e-07
9.1479e-07
8.8115e-07
8.44965e-07
8.06133e-07
7.6458e-07
7.20266e-07
6.7317e-07
6.23231e-07
5.70591e-07
5.15611e-07
4.58878e-07
4.01227e-07
3.43754e-07
2.87769e-07
2.34697e-07
1.85923e-07
1.42611e-07
1.05541e-07
7.50272e-08
5.09221e-08
3.27056e-08
1.96096e-08
1.07425e-08
5.18842e-09
2.07299e-09
6.03747e-10
9.58007e-11
3.84209e-12
1.1629e-06
1.16866e-06
1.1743e-06
1.1798e-06
1.18518e-06
1.19042e-06
1.19552e-06
1.20049e-06
1.20532e-06
1.21001e-06
1.21456e-06
1.21896e-06
1.22322e-06
1.22733e-06
1.23129e-06
1.23509e-06
1.23874e-06
1.24223e-06
1.24556e-06
1.24872e-06
1.25171e-06
1.25452e-06
1.25715e-06
1.25958e-06
1.26182e-06
1.26386e-06
1.26569e-06
1.2673e-06
1.26869e-06
1.26984e-06
1.27076e-06
1.27142e-06
1.27182e-06
1.27194e-06
1.27179e-06
1.27133e-06
1.27057e-06
1.26948e-06
1.26805e-06
1.26626e-06
1.26409e-06
1.26152e-06
1.25853e-06
1.2551e-06
1.25119e-06
1.24678e-06
1.24185e-06
1.23634e-06
1.23024e-06
1.22348e-06
1.21605e-06
1.20787e-06
1.19891e-06
1.1891e-06
1.17838e-06
1.16668e-06
1.15394e-06
1.14006e-06
1.12496e-06
1.10855e-06
1.09072e-06
1.07137e-06
1.05038e-06
1.02763e-06
1.00298e-06
9.76302e-07
9.47464e-07
9.16326e-07
8.82759e-07
8.46642e-07
8.07874e-07
7.66378e-07
7.22113e-07
6.75058e-07
6.25148e-07
5.72517e-07
5.17519e-07
4.60736e-07
4.02999e-07
3.45402e-07
2.89255e-07
2.35991e-07
1.87007e-07
1.4348e-07
1.06206e-07
7.55102e-08
5.12538e-08
3.29193e-08
1.9737e-08
1.08114e-08
5.22084e-09
2.08538e-09
6.07068e-10
9.62326e-11
3.85121e-12
1.16219e-06
1.16797e-06
1.17362e-06
1.17914e-06
1.18453e-06
1.18979e-06
1.19491e-06
1.19989e-06
1.20474e-06
1.20945e-06
1.21401e-06
1.21843e-06
1.22271e-06
1.22683e-06
1.23081e-06
1.23463e-06
1.2383e-06
1.2418e-06
1.24515e-06
1.24833e-06
1.25133e-06
1.25416e-06
1.25681e-06
1.25926e-06
1.26152e-06
1.26358e-06
1.26543e-06
1.26706e-06
1.26847e-06
1.26965e-06
1.27058e-06
1.27126e-06
1.27168e-06
1.27183e-06
1.2717e-06
1.27127e-06
1.27053e-06
1.26946e-06
1.26806e-06
1.26629e-06
1.26415e-06
1.26161e-06
1.25865e-06
1.25525e-06
1.25137e-06
1.247e-06
1.24209e-06
1.23662e-06
1.23055e-06
1.22383e-06
1.21643e-06
1.2083e-06
1.19937e-06
1.18961e-06
1.17893e-06
1.16728e-06
1.15458e-06
1.14075e-06
1.12571e-06
1.10935e-06
1.09158e-06
1.07229e-06
1.05135e-06
1.02866e-06
1.00407e-06
9.77459e-07
9.48683e-07
9.17608e-07
8.84101e-07
8.48042e-07
8.09326e-07
7.67878e-07
7.23654e-07
6.76636e-07
6.26751e-07
5.74127e-07
5.19115e-07
4.62291e-07
4.04483e-07
3.46782e-07
2.90501e-07
2.37077e-07
1.87917e-07
1.4421e-07
1.06764e-07
7.59161e-08
5.15327e-08
3.30989e-08
1.98441e-08
1.08692e-08
5.24809e-09
2.09581e-09
6.09859e-10
9.65952e-11
3.85885e-12
1.16162e-06
1.16741e-06
1.17307e-06
1.17861e-06
1.18401e-06
1.18928e-06
1.19441e-06
1.19941e-06
1.20427e-06
1.20899e-06
1.21357e-06
1.218e-06
1.22229e-06
1.22643e-06
1.23042e-06
1.23426e-06
1.23794e-06
1.24146e-06
1.24482e-06
1.24801e-06
1.25103e-06
1.25387e-06
1.25653e-06
1.25901e-06
1.26128e-06
1.26336e-06
1.26522e-06
1.26687e-06
1.26829e-06
1.26949e-06
1.27044e-06
1.27114e-06
1.27158e-06
1.27174e-06
1.27163e-06
1.27122e-06
1.2705e-06
1.26945e-06
1.26807e-06
1.26632e-06
1.2642e-06
1.26168e-06
1.25875e-06
1.25536e-06
1.25151e-06
1.24716e-06
1.24228e-06
1.23684e-06
1.2308e-06
1.22411e-06
1.21674e-06
1.20864e-06
1.19975e-06
1.19001e-06
1.17937e-06
1.16776e-06
1.1551e-06
1.14131e-06
1.1263e-06
1.10999e-06
1.09226e-06
1.07302e-06
1.05213e-06
1.02948e-06
1.00495e-06
9.78384e-07
9.49658e-07
9.18633e-07
8.85174e-07
8.49161e-07
8.10489e-07
7.6908e-07
7.24889e-07
6.779e-07
6.28035e-07
5.75417e-07
5.20395e-07
4.63539e-07
4.05674e-07
3.47891e-07
2.91502e-07
2.3795e-07
1.88649e-07
1.44797e-07
1.07214e-07
7.62429e-08
5.17573e-08
3.32436e-08
1.99304e-08
1.09158e-08
5.27004e-09
2.1042e-09
6.12105e-10
9.68869e-11
3.86499e-12
1.16119e-06
1.16699e-06
1.17266e-06
1.17821e-06
1.18362e-06
1.1889e-06
1.19404e-06
1.19905e-06
1.20392e-06
1.20865e-06
1.21324e-06
1.21768e-06
1.22198e-06
1.22613e-06
1.23013e-06
1.23398e-06
1.23767e-06
1.2412e-06
1.24457e-06
1.24777e-06
1.2508e-06
1.25366e-06
1.25633e-06
1.25881e-06
1.2611e-06
1.26318e-06
1.26506e-06
1.26672e-06
1.26816e-06
1.26936e-06
1.27033e-06
1.27104e-06
1.27149e-06
1.27168e-06
1.27157e-06
1.27118e-06
1.27047e-06
1.26944e-06
1.26807e-06
1.26634e-06
1.26424e-06
1.26174e-06
1.25882e-06
1.25545e-06
1.25162e-06
1.24729e-06
1.24243e-06
1.237e-06
1.23098e-06
1.22432e-06
1.21697e-06
1.20889e-06
1.20002e-06
1.19031e-06
1.1797e-06
1.16811e-06
1.15548e-06
1.14172e-06
1.12675e-06
1.11047e-06
1.09277e-06
1.07356e-06
1.05271e-06
1.0301e-06
1.0056e-06
9.79075e-07
9.50386e-07
9.19398e-07
8.85976e-07
8.49998e-07
8.11358e-07
7.69978e-07
7.25812e-07
6.78843e-07
6.28993e-07
5.76381e-07
5.21351e-07
4.64471e-07
4.06565e-07
3.48721e-07
2.92252e-07
2.38605e-07
1.89198e-07
1.45238e-07
1.07551e-07
7.64884e-08
5.1926e-08
3.33523e-08
1.99952e-08
1.09509e-08
5.28653e-09
2.1105e-09
6.1379e-10
9.71053e-11
3.86955e-12
1.1609e-06
1.16671e-06
1.17239e-06
1.17794e-06
1.18336e-06
1.18864e-06
1.19379e-06
1.19881e-06
1.20368e-06
1.20842e-06
1.21302e-06
1.21747e-06
1.22177e-06
1.22593e-06
1.22994e-06
1.23379e-06
1.23749e-06
1.24102e-06
1.2444e-06
1.24761e-06
1.25065e-06
1.25351e-06
1.25619e-06
1.25868e-06
1.26098e-06
1.26307e-06
1.26496e-06
1.26662e-06
1.26807e-06
1.26928e-06
1.27025e-06
1.27098e-06
1.27144e-06
1.27163e-06
1.27154e-06
1.27115e-06
1.27045e-06
1.26943e-06
1.26807e-06
1.26635e-06
1.26426e-06
1.26177e-06
1.25886e-06
1.25551e-06
1.25169e-06
1.24737e-06
1.24252e-06
1.23711e-06
1.2311e-06
1.22445e-06
1.21712e-06
1.20905e-06
1.2002e-06
1.19051e-06
1.17992e-06
1.16835e-06
1.15574e-06
1.142e-06
1.12704e-06
1.11078e-06
1.09311e-06
1.07392e-06
1.05309e-06
1.03051e-06
1.00603e-06
9.79533e-07
9.50869e-07
9.19905e-07
8.86508e-07
8.50553e-07
8.11935e-07
7.70574e-07
7.26424e-07
6.79468e-07
6.29628e-07
5.7702e-07
5.21985e-07
4.65091e-07
4.07157e-07
3.49272e-07
2.92751e-07
2.3904e-07
1.89563e-07
1.45532e-07
1.07776e-07
7.66519e-08
5.20384e-08
3.34247e-08
2.00384e-08
1.09742e-08
5.29751e-09
2.11469e-09
6.14912e-10
9.72505e-11
3.87257e-12
1.16075e-06
1.16657e-06
1.17225e-06
1.1778e-06
1.18322e-06
1.18851e-06
1.19367e-06
1.19869e-06
1.20357e-06
1.20831e-06
1.2129e-06
1.21736e-06
1.22167e-06
1.22583e-06
1.22984e-06
1.23369e-06
1.2374e-06
1.24094e-06
1.24432e-06
1.24753e-06
1.25057e-06
1.25344e-06
1.25612e-06
1.25862e-06
1.26092e-06
1.26301e-06
1.2649e-06
1.26657e-06
1.26802e-06
1.26924e-06
1.27022e-06
1.27094e-06
1.27141e-06
1.2716e-06
1.27152e-06
1.27113e-06
1.27044e-06
1.26943e-06
1.26807e-06
1.26636e-06
1.26427e-06
1.26179e-06
1.25888e-06
1.25554e-06
1.25172e-06
1.24741e-06
1.24257e-06
1.23717e-06
1.23116e-06
1.22452e-06
1.21719e-06
1.20914e-06
1.2003e-06
1.19061e-06
1.18003e-06
1.16847e-06
1.15586e-06
1.14213e-06
1.12719e-06
1.11094e-06
1.09328e-06
1.0741e-06
1.05329e-06
1.03071e-06
1.00625e-06
9.79761e-07
9.5111e-07