/*--------------------------------*- C++ -*----------------------------------*\
  =========                 |
  \\      /  F ield         | OpenFOAM: The Open Source CFD Toolbox
   \\    /   O peration     | Website:  https://openfoam.org
    \\  /    A nd           | Version:  7
     \\/     M anipulation  |
\*---------------------------------------------------------------------------*/
FoamFile
{
    version     2.0;
    format      ascii;
    class       volVectorField;
    location    "12000";
    object      vorticity;
}
// * * * * * * * * * * * * * * * * * * * * * * * * * * * * * * * * * * * * * //

dimensions      [0 0 -1 0 0 0 0];

internalField   nonuniform List<vector> 
4825
(
(0.000168093 0.000155472 4.2305e-18)
(0.000166387 0.000154783 4.33171e-18)
(0.000169869 0.000157153 4.18022e-18)
(0.000168366 0.000156531 4.33086e-18)
(0.000172002 0.000151587 6.36736e-18)
(0.000174206 0.000145272 2.60477e-18)
(0.000176103 0.000138633 3.32467e-18)
(0.000172455 0.000159639 4.08441e-18)
(0.000170926 0.000158807 4.39717e-18)
(0.0001739 0.000153296 6.59356e-18)
(0.000176084 0.000147011 3.07822e-18)
(0.000177951 0.000140283 3.25585e-18)
(0.000176085 0.000163115 3.91759e-18)
(0.000174365 0.000161931 4.58751e-18)
(0.000176636 0.000155758 6.94671e-18)
(0.00017873 0.000149326 3.65932e-18)
(0.000180523 0.000142437 3.19834e-18)
(0.000180559 0.000167395 3.82117e-18)
(0.000178584 0.000165797 4.8562e-18)
(0.000180483 0.000159157 7.25596e-18)
(0.000182458 0.00015246 4.38756e-18)
(0.000184173 0.00014535 3.10361e-18)
(0.00018568 0.000172297 3.9626e-18)
(0.000183498 0.000170313 5.15244e-18)
(0.000185238 0.00016332 7.45198e-18)
(0.000187137 0.000156329 5.25409e-18)
(0.000188843 0.000148996 2.9379e-18)
(0.000191117 0.000177518 4.22943e-18)
(0.000188898 0.000175279 5.38564e-18)
(0.000190685 0.000168059 7.53535e-18)
(0.000192665 0.000160842 6.25485e-18)
(0.000194558 0.000153399 2.68749e-18)
(0.00019632 0.000182545 4.38442e-18)
(0.000194354 0.000180296 5.54128e-18)
(0.000196464 0.000173052 7.54171e-18)
(0.000198815 0.000165792 7.34165e-18)
(0.000201239 0.000158501 2.4435e-18)
(0.000200515 0.000186652 4.34497e-18)
(0.000199189 0.000184733 5.66462e-18)
(0.000201985 0.000177779 7.58983e-18)
(0.00020513 0.000170776 8.49978e-18)
(0.000208507 0.000164025 2.24423e-18)
(0.000202849 0.000189032 4.21962e-18)
(0.00020256 0.000187805 5.74669e-18)
(0.000206462 0.000181538 7.78847e-18)
(0.000210892 0.00017518 9.70767e-18)
(0.000215482 0.000169337 2.08959e-18)
(0.000202723 0.000189106 4.164e-18)
(0.000203723 0.000188809 5.78177e-18)
(0.000209091 0.000183609 8.11658e-18)
(0.000215208 0.000178286 1.09465e-17)
(0.000220674 0.000173374 2.04452e-18)
(0.000200263 0.000186962 4.01976e-18)
(0.000202458 0.000187516 5.75629e-18)
(0.000209421 0.000183577 8.47257e-18)
(0.000217271 0.000179521 1.21607e-17)
(0.000222146 0.000174772 2.13971e-18)
(0.000196778 0.000183794 3.65314e-18)
(0.000199561 0.000184625 5.76247e-18)
(0.000207835 0.000181755 8.7805e-18)
(0.000216744 0.00017881 1.33169e-17)
(0.000219424 0.000173209 2.34774e-18)
(0.000195031 0.000182161 3.01527e-18)
(0.000197216 0.000182112 5.6209e-18)
(0.000205966 0.000179562 9.13939e-18)
(0.000214284 0.000176798 1.44653e-17)
(0.000199365 0.000186109 2.20297e-18)
(0.000199167 0.000183384 5.22955e-18)
(0.000206908 0.000179736 9.60988e-18)
(0.000211759 0.000175109 1.57679e-17)
(0.000216053 0.000201503 1.04531e-18)
(0.000210946 0.000193495 4.42899e-18)
(0.000215293 0.000186421 9.85976e-18)
(0.000213779 0.000177388 1.72396e-17)
(0.000254528 0.000237162 -5.20359e-19)
(0.00024071 0.000219914 3.1018e-18)
(0.000237735 0.00020536 9.40116e-18)
(0.000329864 0.00030719 -2.56976e-18)
(0.000301266 0.000274418 1.2965e-18)
(0.000285259 0.000246051 8.75801e-18)
(0.000465763 0.000433815 -5.43672e-18)
(0.000413205 0.000375837 -5.77467e-19)
(0.000695011 0.000647904 -9.2783e-18)
(0.00060679 0.000551938 -2.22191e-18)
(0.0010527 0.000982719 -1.36779e-17)
(0.00091822 0.000835964 -3.41258e-18)
(0.00156161 0.00146021 -1.76264e-17)
(0.00137694 0.00125494 -2.12099e-18)
(0.00221903 0.00207845 -1.99169e-17)
(0.00199106 0.0018162 -5.8111e-19)
(0.00299829 0.00281278 -2.03584e-17)
(-0.000105803 0.000119116 3.48107e-18)
(-0.000106633 0.000116034 2.24834e-18)
(-0.000102755 0.00011714 2.83141e-18)
(-9.86702e-05 0.000118194 7.56898e-19)
(-9.44909e-05 0.000119217 1.16309e-18)
(-9.02749e-05 0.000120221 1.18565e-18)
(-8.60537e-05 0.000121227 -7.19105e-19)
(-8.18397e-05 0.000122262 -5.21226e-19)
(-7.7628e-05 0.000123345 -9.93507e-19)
(-7.34386e-05 0.000124454 -5.78651e-19)
(-6.92647e-05 0.000125687 -3.25533e-19)
(-6.4893e-05 0.000127019 -3.34236e-19)
(-6.02377e-05 0.000128245 1.32148e-18)
(-5.54282e-05 0.000129301 9.28927e-19)
(-5.05498e-05 0.000130169 -3.73185e-19)
(-4.56717e-05 0.000130849 -2.819e-18)
(-4.08475e-05 0.000131326 -2.10527e-18)
(-3.61328e-05 0.000131548 -1.54954e-18)
(-3.16211e-05 0.00013143 -9.92691e-19)
(-2.74561e-05 0.00013092 -7.83993e-19)
(-0.000106997 0.000120117 3.39627e-18)
(-0.000107769 0.000117051 2.39914e-18)
(-0.000103888 0.000118184 2.79185e-18)
(-9.97761e-05 0.000119269 7.58488e-19)
(-9.55519e-05 0.000120321 1.35404e-18)
(-9.12811e-05 0.000121353 1.17818e-18)
(-8.69976e-05 0.000122383 -7.19746e-19)
(-8.27135e-05 0.000123432 -6.49722e-19)
(-7.84244e-05 0.000124513 -9.5077e-19)
(-7.41418e-05 0.0001256 -4.43456e-19)
(-6.98769e-05 0.000126815 -3.79018e-19)
(-6.54606e-05 0.000128157 -2.61965e-19)
(-6.07811e-05 0.000129385 1.40232e-18)
(-5.59468e-05 0.000130444 7.29722e-19)
(-5.10411e-05 0.000131316 -5.26625e-19)
(-4.61341e-05 0.000131999 -2.67643e-18)
(-4.12855e-05 0.000132482 -1.96106e-18)
(-3.65602e-05 0.000132749 -1.56002e-18)
(-3.20561e-05 0.000132815 -1.13099e-18)
(-2.79118e-05 0.00013288 -7.93618e-19)
(-0.000108635 0.000121602 3.26567e-18)
(-0.000109265 0.000118517 2.60039e-18)
(-0.000105345 0.000119668 2.88279e-18)
(-0.000101188 0.000120786 8.4684e-19)
(-9.69048e-05 0.000121871 1.66673e-18)
(-9.2565e-05 0.000122934 1.30732e-18)
(-8.82052e-05 0.000123991 -7.19361e-19)
(-8.38385e-05 0.00012506 -9.48308e-19)
(-7.94626e-05 0.000126147 -9.22973e-19)
(-7.50838e-05 0.000127237 -1.928e-19)
(-7.07143e-05 0.000128445 -4.9254e-19)
(-6.62237e-05 0.000129774 -3.33502e-19)
(-6.15009e-05 0.000131 1.34617e-18)
(-5.66255e-05 0.000132061 4.84248e-19)
(-5.16776e-05 0.00013294 -6.20247e-19)
(-4.67278e-05 0.000133632 -2.45037e-18)
(-4.18388e-05 0.000134143 -1.72115e-18)
(-3.70773e-05 0.000134497 -1.55127e-18)
(-3.25283e-05 0.000134823 -1.21045e-18)
(-2.82885e-05 0.00013555 -6.14588e-19)
(-0.000110793 0.000123662 3.19208e-18)
(-0.000111223 0.000120549 2.91341e-18)
(-0.000107221 0.000121712 3.09208e-18)
(-0.000102993 0.000122865 9.41976e-19)
(-9.86307e-05 0.000123987 1.986e-18)
(-9.42028e-05 0.000125085 1.47277e-18)
(-8.9748e-05 0.000126173 -7.54053e-19)
(-8.52816e-05 0.000127266 -1.38193e-18)
(-8.08035e-05 0.000128369 -9.18798e-19)
(-7.63174e-05 0.000129478 9.52545e-20)
(-7.18284e-05 0.000130687 -6.61641e-19)
(-6.72369e-05 0.000131995 -4.38921e-19)
(-6.24463e-05 0.000133216 1.20092e-18)
(-5.75094e-05 0.000134283 1.93742e-19)
(-5.25003e-05 0.000135172 -6.71678e-19)
(-4.74885e-05 0.000135884 -2.18984e-18)
(-4.25367e-05 0.000136441 -1.44458e-18)
(-3.77051e-05 0.000136915 -1.55905e-18)
(-3.30496e-05 0.000137535 -1.33266e-18)
(-2.8617e-05 0.000138916 -3.49894e-19)
(-0.000113283 0.000126074 3.16167e-18)
(-0.000113489 0.000122939 3.26697e-18)
(-0.000109369 0.000124111 3.37321e-18)
(-0.000105049 0.000125295 8.86494e-19)
(-0.000100593 0.000126455 2.22668e-18)
(-9.60642e-05 0.00012759 1.60717e-18)
(-9.15027e-05 0.000128711 -8.96389e-19)
(-8.69255e-05 0.000129831 -1.85171e-18)
(-8.2335e-05 0.000130955 -9.50916e-19)
(-7.77329e-05 0.00013209 3.13644e-19)
(-7.31171e-05 0.000133303 -8.41545e-19)
(-6.84109e-05 0.000134591 -5.13906e-19)
(-6.35353e-05 0.000135808 1.05536e-18)
(-5.85229e-05 0.00013688 -2.2113e-20)
(-5.34398e-05 0.000137784 -6.48592e-19)
(-4.83526e-05 0.000138525 -1.94818e-18)
(-4.33204e-05 0.000139142 -1.20313e-18)
(-3.83898e-05 0.00013975 -1.62404e-18)
(-3.35744e-05 0.000140653 -1.55202e-18)
(-2.8846e-05 0.000142569 -8.50895e-20)
(-0.000115999 0.000128722 3.13545e-18)
(-0.000115981 0.000125581 3.56314e-18)
(-0.000111718 0.000126762 3.68548e-18)
(-0.000107288 0.000127975 6.91909e-19)
(-0.000102725 0.000129171 2.45133e-18)
(-9.80851e-05 0.000130343 1.63133e-18)
(-9.34079e-05 0.000131497 -1.16571e-18)
(-8.87119e-05 0.000132646 -2.20948e-18)
(-8.40012e-05 0.000133795 -9.77622e-19)
(-7.92762e-05 0.000134956 4.12765e-19)
(-7.45293e-05 0.000136176 -1.06611e-18)
(-6.97005e-05 0.000137448 -5.12776e-19)
(-6.47273e-05 0.000138661 9.50221e-19)
(-5.96286e-05 0.000139741 -1.90506e-19)
(-5.44614e-05 0.000140664 -5.64364e-19)
(-4.92878e-05 0.000141439 -1.71546e-18)
(-4.41602e-05 0.000142124 -1.05028e-18)
(-3.91067e-05 0.000142863 -1.78596e-18)
(-3.40919e-05 0.000143994 -1.78718e-18)
(-2.89787e-05 0.000146217 1.9905e-19)
(-0.000118879 0.000131544 3.03466e-18)
(-0.000118651 0.000128418 3.73797e-18)
(-0.000114229 0.000129611 4.04249e-18)
(-0.000109673 0.00013085 4.38814e-19)
(-0.000104992 0.000132081 2.64465e-18)
(-0.000100233 0.000133289 1.49663e-18)
(-9.54328e-05 0.000134477 -1.48971e-18)
(-9.06112e-05 0.000135655 -2.36811e-18)
(-8.57738e-05 0.000136831 -9.68271e-19)
(-8.09199e-05 0.000138017 3.62122e-19)
(-7.60385e-05 0.000139246 -1.38611e-18)
(-7.1082e-05 0.000140508 -4.27208e-19)
(-6.60013e-05 0.000141718 8.67777e-19)
(-6.08068e-05 0.000142807 -2.85587e-19)
(-5.55468e-05 0.00014375 -4.00804e-19)
(-5.0277e-05 0.000144564 -1.44859e-18)
(-4.50412e-05 0.000145318 -9.84769e-19)
(-3.98469e-05 0.000146172 -2.06929e-18)
(-3.46141e-05 0.00014745 -2.01615e-18)
(-2.91253e-05 0.000149693 4.48773e-19)
(-0.000121885 0.000134506 2.87591e-18)
(-0.000121472 0.000131415 3.84859e-18)
(-0.000116883 0.000132627 4.47331e-18)
(-0.000112187 0.000133893 2.13975e-19)
(-0.000107378 0.000135157 2.7392e-18)
(-0.000102491 0.000136399 1.21541e-18)
(-9.75614e-05 0.000137621 -1.74774e-18)
(-9.2608e-05 0.000138829 -2.31911e-18)
(-8.7638e-05 0.000140031 -9.27287e-19)
(-8.26496e-05 0.000141241 1.9722e-19)
(-7.76305e-05 0.00014248 -1.74906e-18)
(-7.25422e-05 0.000143738 -2.98113e-19)
(-6.7346e-05 0.000144947 8.22909e-19)
(-6.20472e-05 0.000146045 -2.04e-19)
(-5.66862e-05 0.000147011 -2.0905e-19)
(-5.13113e-05 0.000147865 -1.23923e-18)
(-4.59563e-05 0.000148683 -9.96671e-19)
(-4.061e-05 0.000149625 -2.39854e-18)
(-3.51613e-05 0.000150964 -2.23415e-18)
(-2.93532e-05 0.000152983 6.15754e-19)
(-2.42499e-05 0.000155359 -1.11146e-18)
(-1.95838e-05 0.000157231 -5.40555e-19)
(-1.41588e-05 0.000158186 4.13605e-19)
(-8.46148e-06 0.000158528 -1.76313e-18)
(-2.73937e-06 0.000158573 3.18825e-19)
(2.93894e-06 0.000158483 3.39222e-18)
(8.57305e-06 0.000158314 1.48936e-18)
(1.41772e-05 0.000158075 2.43912e-18)
(1.97627e-05 0.000157762 1.67059e-18)
(2.53347e-05 0.000157364 1.62884e-18)
(3.08914e-05 0.000156873 3.6459e-19)
(3.64222e-05 0.000156278 -4.22244e-19)
(4.19067e-05 0.000155572 2.13044e-18)
(4.73256e-05 0.000154789 -3.05943e-19)
(5.27273e-05 0.000154145 -1.98093e-18)
(-0.000124996 0.000137589 2.73292e-18)
(-0.000124421 0.000134552 3.9051e-18)
(-0.000119663 0.000135791 4.90502e-18)
(-0.000114818 0.000137084 1.8639e-20)
(-0.000109873 0.000138382 2.67381e-18)
(-0.000104851 0.000139659 9.45132e-19)
(-9.97853e-05 0.000140913 -1.845e-18)
(-9.46944e-05 0.000142151 -2.17533e-18)
(-8.95861e-05 0.00014338 -8.91998e-19)
(-8.44582e-05 0.000144613 -1.37485e-20)
(-7.9298e-05 0.000145864 -2.05235e-18)
(-7.40739e-05 0.00014712 -1.75188e-19)
(-6.87551e-05 0.00014833 7.72604e-19)
(-6.33443e-05 0.000149438 6.12006e-20)
(-5.78745e-05 0.000150427 -5.03143e-20)
(-5.23862e-05 0.000151319 -1.19231e-18)
(-4.69031e-05 0.000152194 -1.06123e-18)
(-4.13991e-05 0.000153196 -2.61983e-18)
(-3.57519e-05 0.000154522 -2.46966e-18)
(-2.97399e-05 0.000156191 6.30692e-19)
(-2.4323e-05 0.000157104 -9.99928e-19)
(-1.95899e-05 0.000158636 -4.99909e-19)
(-1.42156e-05 0.000159613 5.06565e-19)
(-8.52935e-06 0.000160033 -1.58267e-18)
(-2.7757e-06 0.00016013 4.28584e-19)
(2.95507e-06 0.000160062 3.47599e-18)
(8.64829e-06 0.0001599 1.7968e-18)
(1.43123e-05 0.000159661 2.71881e-18)
(1.99567e-05 0.000159344 1.83791e-18)
(2.55862e-05 0.000158943 1.78485e-18)
(3.11989e-05 0.000158448 4.74212e-19)
(3.67854e-05 0.000157851 -4.61458e-19)
(4.23321e-05 0.000157158 1.75179e-18)
(4.7849e-05 0.000156425 -5.78278e-19)
(5.34736e-05 0.000155872 -2.07887e-18)
(5.93395e-05 0.000156346 -8.33361e-19)
(6.48627e-05 0.000155927 2.8629e-19)
(-0.000128195 0.00014078 2.66035e-18)
(-0.000127481 0.000137811 3.89771e-18)
(-0.000122559 0.000139086 5.26523e-18)
(-0.000117559 0.000140412 -1.14771e-19)
(-0.000112469 0.000141744 2.5749e-18)
(-0.000107307 0.000143056 9.01232e-19)
(-0.000102099 0.000144344 -1.83031e-18)
(-9.68658e-05 0.000145613 -2.05114e-18)
(-9.1614e-05 0.000146869 -8.52855e-19)
(-8.63419e-05 0.000148124 -2.35626e-19)
(-8.10371e-05 0.000149387 -2.23823e-18)
(-7.56732e-05 0.000150646 -1.12014e-19)
(-7.02256e-05 0.000151858 6.68217e-19)
(-6.46954e-05 0.000152977 4.31294e-19)
(-5.91092e-05 0.000153989 5.35611e-20)
(-5.34999e-05 0.000154917 -1.29417e-18)
(-4.78818e-05 0.000155837 -1.16684e-18)
(-4.22187e-05 0.000156872 -2.67016e-18)
(-3.63933e-05 0.000158132 -2.72259e-18)
(-3.02705e-05 0.000159443 5.66074e-19)
(-2.46168e-05 0.000159498 -8.98789e-19)
(-1.9694e-05 0.000160666 -6.76832e-19)
(-1.43097e-05 0.000161599 3.88366e-19)
(-8.61136e-06 0.000162068 -1.61212e-18)
(-2.8137e-06 0.00016221 3.73213e-19)
(2.9815e-06 0.000162166 3.3466e-18)
(8.74735e-06 0.000162012 1.87672e-18)
(1.44858e-05 0.000161774 2.82127e-18)
(2.02044e-05 0.000161456 1.71881e-18)
(2.5907e-05 0.000161051 1.81045e-18)
(3.15921e-05 0.000160554 5.95572e-19)
(3.72523e-05 0.00015996 -4.83146e-19)
(4.28826e-05 0.000159282 1.39048e-18)
(4.85159e-05 0.00015859 -8.10281e-19)
(5.43203e-05 0.000158047 -2.08228e-18)
(6.01182e-05 0.000157937 -8.84931e-19)
(6.58226e-05 0.000157669 2.03865e-19)
(7.2016e-05 0.000158393 3.02184e-19)
(-0.000131468 0.000144063 2.71103e-18)
(-0.000130636 0.000141173 3.84737e-18)
(-0.000125555 0.000142497 5.53789e-18)
(-0.0001204 0.000143862 -8.69174e-20)
(-0.000115161 0.000145232 2.63338e-18)
(-0.000109853 0.000146582 1.09009e-18)
(-0.000104499 0.000147906 -1.93498e-18)
(-9.91183e-05 0.000149206 -2.04031e-18)
(-9.37187e-05 0.000150491 -7.99729e-19)
(-8.82982e-05 0.000151768 -4.77131e-19)
(-8.28452e-05 0.000153045 -2.32503e-18)
(-7.73377e-05 0.000154309 -1.24836e-19)
(-7.17556e-05 0.000155526 5.04044e-19)
(-6.60992e-05 0.000156657 7.95315e-19)
(-6.03894e-05 0.00015769 1.0303e-19)
(-5.46521e-05 0.00015865 -1.47961e-18)
(-4.88936e-05 0.000159606 -1.26787e-18)
(-4.30729e-05 0.00016065 -2.59984e-18)
(-3.70881e-05 0.000161818 -2.96995e-18)
(-3.08855e-05 0.000162819 5.13433e-19)
(-2.50701e-05 0.000162613 -7.75738e-19)
(-1.99127e-05 0.000163463 -9.66438e-19)
(-1.44605e-05 0.000164314 2.1345e-19)
(-8.7183e-06 0.000164805 -1.74209e-18)
(-2.85664e-06 0.000164983 2.37937e-19)
(3.0208e-06 0.000164962 3.13955e-18)
(8.87782e-06 0.000164818 1.94305e-18)
(1.47103e-05 0.000164582 2.89491e-18)
(2.05231e-05 0.000164262 1.46168e-18)
(2.63194e-05 0.000163855 1.79192e-18)
(3.20981e-05 0.000163356 6.78603e-19)
(3.78547e-05 0.000162764 -4.63114e-19)
(4.35928e-05 0.000162102 1.05889e-18)
(4.93587e-05 0.000161434 -1.02059e-18)
(5.52832e-05 0.000160862 -1.95899e-18)
(6.10443e-05 0.000160192 -8.12134e-19)
(6.69394e-05 0.000159904 2.58248e-19)
(7.31436e-05 0.000160089 1.79056e-19)
(7.9502e-05 0.00016088 -2.08106e-18)
(8.54835e-05 0.000160382 -5.09378e-18)
(-0.000134801 0.000147422 2.8519e-18)
(-0.000133865 0.00014462 3.75142e-18)
(-0.000128636 0.000146005 5.73579e-18)
(-0.000123326 0.000147417 1.46829e-19)
(-0.000117937 0.00014883 2.84131e-18)
(-0.00011248 0.000150223 1.28761e-18)
(-0.000106978 0.000151586 -2.33409e-18)
(-0.000101447 0.000152922 -2.14585e-18)
(-9.58961e-05 0.000154237 -6.69939e-19)
(-9.0324e-05 0.000155539 -6.96666e-19)
(-8.47198e-05 0.000156832 -2.4029e-18)
(-7.90652e-05 0.000158105 -2.33005e-19)
(-7.33436e-05 0.000159329 2.91596e-19)
(-6.75547e-05 0.000160473 1.07506e-18)
(-6.17149e-05 0.000161527 1.21726e-19)
(-5.58434e-05 0.000162516 -1.65701e-18)
(-4.99403e-05 0.000163496 -1.29555e-18)
(-4.39644e-05 0.000164533 -2.48843e-18)
(-3.78347e-05 0.000165601 -3.2113e-18)
(-3.15572e-05 0.00016637 4.53934e-19)
(-2.56094e-05 0.000166148 -6.84472e-19)
(-2.02148e-05 0.000166757 -1.21524e-18)
(-1.46545e-05 0.000167507 9.34275e-20)
(-8.84268e-06 0.000167998 -1.89652e-18)
(-2.90207e-06 0.000168203 1.32343e-19)
(3.06937e-06 0.000168204 2.99855e-18)
(9.02935e-06 0.000168071 2.13211e-18)
(1.49683e-05 0.000167838 3.05646e-18)
(2.08883e-05 0.000167517 1.23865e-18)
(2.67919e-05 0.000167107 1.82541e-18)
(3.26783e-05 0.000166606 6.96454e-19)
(3.85466e-05 0.000166018 -4.49178e-19)
(4.44073e-05 0.000165367 7.887e-19)
(5.03104e-05 0.000164709 -1.21579e-18)
(5.63333e-05 0.00016408 -1.81076e-18)
(6.21778e-05 0.000163196 -7.0098e-19)
(6.82196e-05 0.00016281 3.60419e-19)
(7.43927e-05 0.000162382 2.71273e-19)
(8.05757e-05 0.000162512 -2.33842e-18)
(8.67137e-05 0.000162153 -5.74286e-18)
(9.33705e-05 0.000162496 3.01314e-19)
(9.95269e-05 0.000161755 9.5543e-19)
(-0.000138183 0.000150843 3.05179e-18)
(-0.000137153 0.000148133 3.64069e-18)
(-0.000131785 0.000149588 5.90254e-18)
(-0.000126324 0.000151057 5.24711e-19)
(-0.000120784 0.000152521 3.05174e-18)
(-0.000115178 0.000153962 1.38299e-18)
(-0.000109526 0.00015537 -2.93609e-18)
(-0.000103844 0.000156746 -2.30462e-18)
(-9.814e-05 0.000158096 -4.34851e-19)
(-9.24141e-05 0.000159426 -8.58381e-19)
(-8.66568e-05 0.00016074 -2.55167e-18)
(-8.08523e-05 0.000162026 -4.38918e-19)
(-7.49871e-05 0.000163262 3.60804e-20)
(-6.90604e-05 0.00016442 1.26925e-18)
(-6.30846e-05 0.000165496 1.88946e-19)
(-5.70736e-05 0.000166509 -1.785e-18)
(-5.10231e-05 0.000167507 -1.23877e-18)
(-4.48945e-05 0.000168526 -2.38338e-18)
(-3.86292e-05 0.0001695 -3.48194e-18)
(-3.22712e-05 0.000170111 3.66591e-19)
(-2.61988e-05 0.00016996 -5.96567e-19)
(-2.05793e-05 0.0001704 -1.41461e-18)
(-1.48845e-05 0.000171049 5.32322e-21)
(-8.98154e-06 0.000171525 -2.02481e-18)
(-2.94929e-06 0.000171748 2.84115e-20)
(3.12519e-06 0.000171767 2.93702e-18)
(9.19665e-06 0.000171644 2.41965e-18)
(1.52511e-05 0.000171415 3.2499e-18)
(2.12878e-05 0.000171093 1.04807e-18)
(2.73083e-05 0.000170681 1.90029e-18)
(3.33132e-05 0.000170179 6.75645e-19)
(3.93041e-05 0.000169594 -4.72599e-19)
(4.52968e-05 0.00016895 5.78021e-19)
(5.13374e-05 0.000168289 -1.41191e-18)
(5.74596e-05 0.000167597 -1.68682e-18)
(6.344e-05 0.00016665 -5.7383e-19)
(6.96047e-05 0.000166128 4.1846e-19)
(7.58082e-05 0.000165396 4.15879e-19)
(8.18638e-05 0.000164843 -2.30477e-18)
(8.81436e-05 0.000164431 -5.96476e-18)
(9.46163e-05 0.000164192 -2.07879e-19)
(0.000100957 0.000163571 5.53373e-19)
(0.000107881 0.000163712 1.53216e-18)
(0.000114048 0.000162554 2.92655e-18)
(0.00012011 0.000161209 6.07971e-18)
(-0.000141613 0.000154321 3.2981e-18)
(-0.000140489 0.000151702 3.57135e-18)
(-0.000134987 0.000153232 6.07609e-18)
(-0.000129378 0.000154763 9.15623e-19)
(-0.000123688 0.000156285 3.16566e-18)
(-0.000117933 0.00015778 1.4375e-18)
(-0.000112131 0.000159238 -3.55081e-18)
(-0.000106298 0.00016066 -2.51874e-18)
(-0.000100441 0.000162051 -2.30902e-19)
(-9.45607e-05 0.000163415 -9.58813e-19)
(-8.86492e-05 0.000164754 -2.74121e-18)
(-8.26931e-05 0.00016606 -7.41604e-19)
(-7.66813e-05 0.000167311 -2.33194e-19)
(-7.06126e-05 0.000168488 1.49026e-18)
(-6.44962e-05 0.000169586 4.00379e-19)
(-5.83415e-05 0.000170623 -1.88164e-18)
(-5.21416e-05 0.000171633 -1.21257e-18)
(-4.58627e-05 0.00017263 -2.3263e-18)
(-3.94667e-05 0.000173525 -3.72681e-18)
(-3.3019e-05 0.000174037 2.72308e-19)
(-2.68205e-05 0.000173973 -4.93666e-19)
(-2.09913e-05 0.000174307 -1.60426e-18)
(-1.51454e-05 0.000174864 -6.17901e-20)
(-9.13365e-06 0.000175315 -2.0667e-18)
(-2.99835e-06 0.000175547 -9.45912e-20)
(3.18694e-06 0.000175582 2.92909e-18)
(9.37675e-06 0.000175469 2.75686e-18)
(1.55536e-05 0.000175243 3.45961e-18)
(2.17144e-05 0.000174921 8.7303e-19)
(2.786e-05 0.000174507 1.98665e-18)
(3.39914e-05 0.000174003 6.73213e-19)
(4.01133e-05 0.000173418 -5.4643e-19)
(4.62441e-05 0.000172776 4.04686e-19)
(5.24224e-05 0.000172102 -1.64528e-18)
(5.86532e-05 0.000171356 -1.65409e-18)
(6.47881e-05 0.000170398 -4.06653e-19)
(7.10675e-05 0.000169736 4.69598e-19)
(7.73352e-05 0.000168832 4.80698e-19)
(8.34284e-05 0.000167941 -2.15014e-18)
(8.9803e-05 0.000167393 -5.89525e-18)
(9.61144e-05 0.00016655 -3.42793e-19)
(0.000102603 0.000165868 4.20574e-19)
(0.000109254 0.000165374 1.42239e-18)
(0.000115462 0.000164299 2.75161e-18)
(0.000121809 0.000163048 5.76401e-18)
(0.000128829 0.000162913 5.85026e-18)
(0.000135123 0.000161832 5.23907e-18)
(-0.000145105 0.000157872 3.57671e-18)
(-0.000143877 0.000155331 3.55813e-18)
(-0.000138239 0.000156933 6.24083e-18)
(-0.00013248 0.000158527 1.2249e-18)
(-0.000126639 0.000160108 3.17251e-18)
(-0.000120734 0.00016166 1.52898e-18)
(-0.000114782 0.000163173 -4.04336e-18)
(-0.000108798 0.000164646 -2.82415e-18)
(-0.000102788 0.000166082 -1.66084e-19)
(-9.67536e-05 0.000167485 -9.6196e-19)
(-9.06878e-05 0.000168856 -2.91734e-18)
(-8.45796e-05 0.000170187 -1.07165e-18)
(-7.84192e-05 0.000171461 -3.96383e-19)
(-7.22056e-05 0.000172661 1.77952e-18)
(-6.59452e-05 0.000173783 6.59541e-19)
(-5.96438e-05 0.000174843 -1.99692e-18)
(-5.32933e-05 0.000175863 -1.30834e-18)
(-4.68661e-05 0.00017684 -2.31166e-18)
(-4.03414e-05 0.000177672 -3.86909e-18)
(-3.37943e-05 0.000178131 1.41702e-19)
(-2.74653e-05 0.000178148 -4.29459e-19)
(-2.14394e-05 0.000178421 -1.80254e-18)
(-1.54328e-05 0.000178901 -7.10077e-20)
(-9.2981e-06 0.000179323 -1.9694e-18)
(-3.04952e-06 0.000179557 -2.489e-19)
(3.2536e-06 0.000179604 2.92449e-18)
(9.56761e-06 0.0001795 3.09021e-18)
(1.58728e-05 0.000179277 3.64774e-18)
(2.21638e-05 0.000178954 6.8941e-19)
(2.84406e-05 0.000178537 2.10522e-18)
(3.47053e-05 0.00017803 7.77104e-19)
(4.09645e-05 0.000177444 -6.1544e-19)
(4.72374e-05 0.000176798 2.50656e-19)
(5.35541e-05 0.000176103 -1.8956e-18)
(5.99046e-05 0.000175311 -1.73093e-18)
(6.61973e-05 0.000174353 -2.9061e-19)
(7.25912e-05 0.000173564 4.95754e-19)
(7.89475e-05 0.000172548 4.94321e-19)
(8.51533e-05 0.000171487 -1.99579e-18)
(9.1605e-05 0.000170761 -5.77587e-18)
(9.79303e-05 0.000169639 -3.6519e-19)
(0.000104506 0.000168817 4.21078e-19)
(0.000110909 0.00016768 1.5368e-18)
(0.000117203 0.00016657 2.65883e-18)
(0.000123757 0.000165318 5.35261e-18)
(0.0001305 0.000164554 5.79526e-18)
(0.000137003 0.000163541 5.40476e-18)
(0.000144276 0.000163408 3.09684e-18)
(0.000150471 0.000162028 1.65754e-18)
(0.000151962 0.000164826 7.10923e-18)
(-0.000148704 0.000161542 3.83458e-18)
(-0.000147347 0.000159053 3.55066e-18)
(-0.000141559 0.000160712 6.3451e-18)
(-0.00013564 0.00016236 1.5183e-18)
(-0.00012964 0.000163994 3.19286e-18)
(-0.000123579 0.000165599 1.68222e-18)
(-0.000117473 0.000167165 -4.36009e-18)
(-0.000111335 0.000168689 -3.17684e-18)
(-0.000105172 0.000170173 -2.00531e-19)
(-9.89829e-05 0.000171619 -9.05598e-19)
(-9.2763e-05 0.000173027 -3.07676e-18)
(-8.65021e-05 0.000174388 -1.30274e-18)
(-8.01923e-05 0.00017569 -4.43338e-19)
(-7.38317e-05 0.000176917 2.01856e-18)
(-6.7425e-05 0.000178067 8.17631e-19)
(-6.09751e-05 0.00017915 -2.12563e-18)
(-5.44738e-05 0.000180181 -1.46558e-18)
(-4.78999e-05 0.000181141 -2.26888e-18)
(-4.12467e-05 0.000181929 -3.93819e-18)
(-3.45914e-05 0.000182366 -9.21931e-20)
(-2.81272e-05 0.000182452 -4.34038e-19)
(-2.19147e-05 0.000182696 -1.97767e-18)
(-1.57425e-05 0.000183117 5.60352e-21)
(-9.47378e-06 0.000183508 -1.76355e-18)
(-3.10297e-06 0.00018374 -4.33786e-19)
(3.32423e-06 0.000183795 2.90877e-18)
(9.76744e-06 0.000183698 3.43629e-18)
(1.62057e-05 0.000183478 3.78632e-18)
(2.26318e-05 0.000183153 4.41827e-19)
(2.90452e-05 0.000182732 2.22562e-18)
(3.54483e-05 0.00018222 9.8284e-19)
(4.18495e-05 0.000181629 -6.28412e-19)
(4.82671e-05 0.000180973 1.20489e-19)
(5.47235e-05 0.000180253 -2.09627e-18)
(6.12027e-05 0.000179423 -1.8489e-18)
(6.76507e-05 0.000178457 -2.79775e-19)
(7.4163e-05 0.00017756 4.56803e-19)
(8.06262e-05 0.000176461 4.68928e-19)
(8.69747e-05 0.000175305 -1.85462e-18)
(9.35072e-05 0.000174402 -5.7072e-18)
(9.99266e-05 0.000173145 -5.17128e-19)
(0.000106563 0.000172146 3.41642e-19)
(0.000112931 0.000170707 1.70044e-18)
(0.000119344 0.000169508 2.70982e-18)
(0.000126026 0.000168207 5.09863e-18)
(0.000132516 0.000166816 5.42699e-18)
(0.000139178 0.000165711 5.34445e-18)
(0.000146058 0.000164933 2.86871e-18)
(0.000152286 0.000163626 1.48165e-18)
(0.000153975 0.000166382 7.10744e-18)
(-0.000152487 0.000165414 3.98492e-18)
(-0.000150964 0.000162939 3.55031e-18)
(-0.000144995 0.000164626 6.44809e-18)
(-0.000138893 0.000166305 1.91528e-18)
(-0.000132714 0.000167973 3.25055e-18)
(-0.000126483 0.000169618 1.8206e-18)
(-0.000120213 0.000171227 -4.54261e-18)
(-0.000113914 0.000172795 -3.58794e-18)
(-0.000107591 0.000174322 -3.34087e-19)
(-0.000101245 0.000175809 -9.15903e-19)
(-9.48687e-05 0.000177254 -3.29007e-18)
(-8.84539e-05 0.000178648 -1.37294e-18)
(-8.1993e-05 0.00017998 -3.82905e-19)
(-7.54838e-05 0.000181237 2.11035e-18)
(-6.89288e-05 0.000182416 8.09486e-19)
(-6.23293e-05 0.000183524 -2.22437e-18)
(-5.56774e-05 0.000184567 -1.54431e-18)
(-4.89582e-05 0.000185516 -2.17225e-18)
(-4.21755e-05 0.000186276 -4.00687e-18)
(-3.54046e-05 0.000186711 -4.04307e-19)
(-2.88013e-05 0.000186858 -5.14586e-19)
(-2.241e-05 0.000187093 -2.13795e-18)
(-1.60699e-05 0.00018747 1.30468e-19)
(-9.65919e-06 0.000187833 -1.50349e-18)
(-3.15872e-06 0.00018806 -6.03942e-19)
(3.39791e-06 0.00018812 2.89944e-18)
(9.97448e-06 0.000188028 3.80668e-18)
(1.65495e-05 0.00018781 3.87701e-18)
(2.31146e-05 0.000187482 1.3386e-19)
(2.96685e-05 0.000187055 2.31445e-18)
(3.62141e-05 0.000186536 1.27023e-18)
(4.27604e-05 0.000185936 -5.5038e-19)
(4.93245e-05 0.000185265 -2.6791e-20)
(5.5922e-05 0.000184518 -2.23938e-18)
(6.25369e-05 0.000183653 -1.94902e-18)
(6.91367e-05 0.000182669 -3.69278e-19)
(7.57727e-05 0.000181682 3.24875e-19)
(8.23569e-05 0.000180519 4.52173e-19)
(8.88587e-05 0.000179299 -1.69058e-18)
(9.54859e-05 0.00017824 -5.69849e-18)
(0.000102034 0.000176907 -7.68201e-19)
(0.000108735 0.00017574 7.08239e-20)
(0.000115181 0.000174167 1.75463e-18)
(0.000121732 0.000172867 2.95207e-18)
(0.000128512 0.000171486 5.15805e-18)
(0.000135 0.000169817 4.96558e-18)
(0.000141767 0.000168576 5.27331e-18)
(0.000148298 0.000167165 2.7802e-18)
(0.000154605 0.000165833 1.29446e-18)
(0.000156461 0.000168531 7.0341e-18)
(-0.000156558 0.000169597 3.97948e-18)
(-0.000154823 0.000167091 3.61616e-18)
(-0.000148628 0.000168769 6.56922e-18)
(-0.000142305 0.000170446 2.37233e-18)
(-0.000135916 0.000172119 3.26795e-18)
(-0.000129487 0.000173776 1.90636e-18)
(-0.000123031 0.000175405 -4.65787e-18)
(-0.000116555 0.000176999 -4.1418e-18)
(-0.000110061 0.000178556 -5.8273e-19)
(-0.000103549 0.000180073 -9.69041e-19)
(-9.70096e-05 0.000181546 -3.59354e-18)
(-9.0436e-05 0.000182969 -1.31951e-18)
(-8.382e-05 0.000184328 -1.99039e-19)
(-7.71588e-05 0.000185613 2.02517e-18)
(-7.04531e-05 0.00018682 6.32539e-19)
(-6.37024e-05 0.000187951 -2.22854e-18)
(-5.68997e-05 0.000189005 -1.43312e-18)
(-5.00356e-05 0.000189948 -2.1123e-18)
(-4.31218e-05 0.000190693 -4.12933e-18)
(-3.62292e-05 0.00019114 -6.95679e-19)
(-2.94839e-05 0.000191339 -6.46158e-19)
(-2.29193e-05 0.000191579 -2.30916e-18)
(-1.64112e-05 0.000191925 2.32839e-19)
(-9.85274e-06 0.000192262 -1.22591e-18)
(-3.21666e-06 0.000192482 -6.7868e-19)
(3.47384e-06 0.000192545 2.96232e-18)
(1.01871e-05 0.000192457 4.1421e-18)
(1.69018e-05 0.000192239 3.89017e-18)
(2.36088e-05 0.000191907 -1.97524e-19)
(3.03062e-05 0.000191473 2.3878e-18)
(3.69971e-05 0.000190946 1.62284e-18)
(4.36909e-05 0.000190334 -3.97906e-19)
(5.04028e-05 0.000189646 -2.08662e-19)
(5.71437e-05 0.00018887 -2.31129e-18)
(6.38992e-05 0.000187975 -1.96756e-18)
(7.06489e-05 0.000186967 -5.04729e-19)
(7.74156e-05 0.000185909 1.35597e-19)
(8.41332e-05 0.000184695 4.96934e-19)
(9.0793e-05 0.000183428 -1.50682e-18)
(9.75342e-05 0.000182248 -5.74487e-18)
(0.000104229 0.000180866 -9.89262e-19)
(0.000111018 0.000179562 -3.98927e-19)
(0.000117605 0.000177941 1.61194e-18)
(0.000124316 0.000176558 3.26605e-18)
(0.000131205 0.000175102 5.40131e-18)
(0.000137826 0.000173337 4.53294e-18)
(0.000144697 0.000171964 5.28922e-18)
(0.000151191 0.000170284 2.92996e-18)
(0.000157641 0.000168906 1.27589e-18)
(0.000159651 0.000171589 6.84039e-18)
(-0.000161026 0.000174209 3.83298e-18)
(-0.000159033 0.000171632 3.76206e-18)
(-0.000152562 0.000173264 6.67234e-18)
(-0.00014597 0.000174901 2.85494e-18)
(-0.000139328 0.000176541 3.24026e-18)
(-0.000132664 0.000178174 1.95289e-18)
(-0.000125989 0.00017979 -4.68607e-18)
(-0.000119308 0.00018138 -4.8187e-18)
(-0.000112621 0.00018294 -9.20247e-19)
(-0.000105923 0.000184464 -9.73509e-19)
(-9.92077e-05 0.000185949 -3.97486e-18)
(-9.24643e-05 0.000187386 -1.24538e-18)
(-8.56846e-05 0.000188761 1.13127e-19)
(-7.88644e-05 0.000190064 1.87136e-18)
(-7.20024e-05 0.000191291 3.36243e-19)
(-6.50967e-05 0.000192438 -2.13662e-18)
(-5.81412e-05 0.0001935 -1.16107e-18)
(-5.11311e-05 0.000194437 -2.17154e-18)
(-4.40832e-05 0.000195175 -4.26141e-18)
(-3.7063e-05 0.000195638 -9.07595e-19)
(-3.0173e-05 0.000195882 -8.25093e-19)
(-2.3439e-05 0.000196134 -2.51929e-18)
(-1.67634e-05 0.000196459 2.50076e-19)
(-1.00532e-05 0.000196775 -9.29365e-19)
(-3.27673e-06 0.000196986 -5.90093e-19)
(3.55141e-06 0.000197049 3.13395e-18)
(1.04041e-05 0.000196964 4.37788e-18)
(1.72611e-05 0.000196745 3.83045e-18)
(2.41124e-05 0.00019641 -5.16815e-19)
(3.09558e-05 0.00019597 2.42735e-18)
(3.77947e-05 0.000195434 1.99844e-18)
(4.46383e-05 0.000194811 -1.85367e-19)
(5.15001e-05 0.000194106 -4.18814e-19)
(5.83877e-05 0.000193306 -2.32735e-18)
(6.52893e-05 0.000192387 -1.90411e-18)
(7.21905e-05 0.000191358 -6.71134e-19)
(7.90974e-05 0.000190249 -3.71845e-20)
(8.59616e-05 0.000189002 6.19217e-19)
(9.27869e-05 0.000187704 -1.36353e-18)
(9.96655e-05 0.000186441 -5.78498e-18)
(0.000106523 0.000185034 -1.03483e-18)
(0.000113436 0.000183643 -9.81994e-19)