/*--------------------------------*- C++ -*----------------------------------*\
  =========                 |
  \\      /  F ield         | OpenFOAM: The Open Source CFD Toolbox
   \\    /   O peration     | Website:  https://openfoam.org
    \\  /    A nd           | Version:  7
     \\/     M anipulation  |
\*---------------------------------------------------------------------------*/
FoamFile
{
    version     2.0;
    format      ascii;
    class       volScalarField;
    location    "4000";
    object      nut;
}
// * * * * * * * * * * * * * * * * * * * * * * * * * * * * * * * * * * * * * //

dimensions      [0 2 -1 0 0 0 0];

internalField   nonuniform List<scalar> 
4838
(
1.11352e-15
1.11594e-15
1.11826e-15
1.12049e-15
1.12262e-15
1.12465e-15
1.12659e-15
1.12842e-15
1.13017e-15
1.13181e-15
1.13336e-15
1.1348e-15
1.13615e-15
1.1374e-15
1.13854e-15
1.13958e-15
1.14052e-15
1.14136e-15
1.14209e-15
1.14272e-15
1.14324e-15
1.14366e-15
1.14397e-15
1.14418e-15
1.14429e-15
1.14428e-15
1.14418e-15
1.14397e-15
1.14365e-15
1.14323e-15
1.1427e-15
1.14207e-15
1.14133e-15
1.14049e-15
1.13955e-15
1.13851e-15
1.13736e-15
1.13611e-15
1.13477e-15
1.13332e-15
1.13177e-15
1.13013e-15
1.12838e-15
1.12654e-15
1.12461e-15
1.12258e-15
1.12045e-15
1.11823e-15
1.11591e-15
1.11348e-15
1.10939e-15
1.11174e-15
1.11406e-15
1.11632e-15
1.11849e-15
1.12057e-15
1.12257e-15
1.12446e-15
1.12626e-15
1.12796e-15
1.12957e-15
1.13107e-15
1.13246e-15
1.13376e-15
1.13495e-15
1.13603e-15
1.13701e-15
1.13788e-15
1.13865e-15
1.1393e-15
1.13985e-15
1.14029e-15
1.14061e-15
1.14083e-15
1.14094e-15
1.14094e-15
1.14082e-15
1.1406e-15
1.14027e-15
1.13983e-15
1.13928e-15
1.13862e-15
1.13785e-15
1.13698e-15
1.136e-15
1.13491e-15
1.13372e-15
1.13242e-15
1.13102e-15
1.12952e-15
1.12792e-15
1.12622e-15
1.12442e-15
1.12252e-15
1.12053e-15
1.11845e-15
1.11628e-15
1.11403e-15
1.11172e-15
1.10937e-15
1.10514e-15
1.1075e-15
1.10982e-15
1.1121e-15
1.1143e-15
1.11643e-15
1.11847e-15
1.12041e-15
1.12226e-15
1.12401e-15
1.12566e-15
1.12721e-15
1.12866e-15
1.13e-15
1.13123e-15
1.13235e-15
1.13336e-15
1.13427e-15
1.13506e-15
1.13574e-15
1.13631e-15
1.13676e-15
1.1371e-15
1.13733e-15
1.13744e-15
1.13744e-15
1.13732e-15
1.13709e-15
1.13674e-15
1.13629e-15
1.13571e-15
1.13503e-15
1.13423e-15
1.13333e-15
1.13231e-15
1.13118e-15
1.12995e-15
1.12861e-15
1.12716e-15
1.12561e-15
1.12396e-15
1.12221e-15
1.12036e-15
1.11842e-15
1.11638e-15
1.11426e-15
1.11206e-15
1.1098e-15
1.10748e-15
1.10511e-15
1.10076e-15
1.10316e-15
1.10551e-15
1.10781e-15
1.11004e-15
1.1122e-15
1.11428e-15
1.11626e-15
1.11816e-15
1.11995e-15
1.12165e-15
1.12324e-15
1.12472e-15
1.1261e-15
1.12737e-15
1.12853e-15
1.12958e-15
1.13051e-15
1.13133e-15
1.13203e-15
1.13262e-15
1.13309e-15
1.13344e-15
1.13367e-15
1.13379e-15
1.13379e-15
1.13366e-15
1.13342e-15
1.13307e-15
1.13259e-15
1.132e-15
1.13129e-15
1.13047e-15
1.12953e-15
1.12848e-15
1.12732e-15
1.12605e-15
1.12467e-15
1.12318e-15
1.12159e-15
1.11989e-15
1.1181e-15
1.11621e-15
1.11422e-15
1.11215e-15
1.11e-15
1.10777e-15
1.10548e-15
1.10314e-15
1.10073e-15
1.09628e-15
1.09872e-15
1.1011e-15
1.10343e-15
1.10569e-15
1.10788e-15
1.10999e-15
1.11202e-15
1.11395e-15
1.11578e-15
1.11752e-15
1.11915e-15
1.12067e-15
1.12209e-15
1.12339e-15
1.12458e-15
1.12566e-15
1.12662e-15
1.12746e-15
1.12818e-15
1.12878e-15
1.12927e-15
1.12963e-15
1.12987e-15
1.12999e-15
1.12999e-15
1.12986e-15
1.12961e-15
1.12925e-15
1.12876e-15
1.12815e-15
1.12742e-15
1.12657e-15
1.12561e-15
1.12453e-15
1.12333e-15
1.12203e-15
1.12061e-15
1.11909e-15
1.11745e-15
1.11572e-15
1.11389e-15
1.11196e-15
1.10994e-15
1.10783e-15
1.10565e-15
1.10339e-15
1.10107e-15
1.09869e-15
1.09625e-15
1.0917e-15
1.09418e-15
1.09661e-15
1.09897e-15
1.10126e-15
1.10348e-15
1.10562e-15
1.10768e-15
1.10964e-15
1.11151e-15
1.11328e-15
1.11495e-15
1.1165e-15
1.11795e-15
1.11928e-15
1.1205e-15
1.12161e-15
1.12259e-15
1.12345e-15
1.12419e-15
1.12481e-15
1.12531e-15
1.12568e-15
1.12593e-15
1.12605e-15
1.12604e-15
1.12592e-15
1.12566e-15
1.12528e-15
1.12478e-15
1.12416e-15
1.12341e-15
1.12254e-15
1.12155e-15
1.12044e-15
1.11922e-15
1.11788e-15
1.11644e-15
1.11488e-15
1.11321e-15
1.11144e-15
1.10958e-15
1.10761e-15
1.10556e-15
1.10342e-15
1.10121e-15
1.09892e-15
1.09657e-15
1.09415e-15
1.09166e-15
1.08704e-15
1.08956e-15
1.09202e-15
1.09441e-15
1.09674e-15
1.09899e-15
1.10116e-15
1.10325e-15
1.10524e-15
1.10714e-15
1.10894e-15
1.11064e-15
1.11223e-15
1.1137e-15
1.11506e-15
1.11631e-15
1.11743e-15
1.11844e-15
1.11932e-15
1.12008e-15
1.12071e-15
1.12122e-15
1.1216e-15
1.12185e-15
1.12197e-15
1.12197e-15
1.12184e-15
1.12158e-15
1.12119e-15
1.12068e-15
1.12003e-15
1.11927e-15
1.11838e-15
1.11737e-15
1.11624e-15
1.11499e-15
1.11363e-15
1.11215e-15
1.11056e-15
1.10887e-15
1.10707e-15
1.10517e-15
1.10317e-15
1.10109e-15
1.09892e-15
1.09668e-15
1.09436e-15
1.09197e-15
1.08952e-15
1.087e-15
1.08231e-15
1.08486e-15
1.08735e-15
1.08977e-15
1.09213e-15
1.09441e-15
1.09661e-15
1.09873e-15
1.10075e-15
1.10268e-15
1.10451e-15
1.10623e-15
1.10784e-15
1.10934e-15
1.11073e-15
1.112e-15
1.11314e-15
1.11417e-15
1.11507e-15
1.11584e-15
1.11649e-15
1.117e-15
1.11739e-15
1.11765e-15
1.11777e-15
1.11777e-15
1.11763e-15
1.11737e-15
1.11697e-15
1.11644e-15
1.11579e-15
1.11501e-15
1.1141e-15
1.11307e-15
1.11192e-15
1.11065e-15
1.10926e-15
1.10776e-15
1.10614e-15
1.10442e-15
1.10259e-15
1.10067e-15
1.09864e-15
1.09653e-15
1.09434e-15
1.09206e-15
1.08971e-15
1.0873e-15
1.08481e-15
1.08226e-15
1.0775e-15
1.08009e-15
1.08261e-15
1.08506e-15
1.08744e-15
1.08975e-15
1.09198e-15
1.09412e-15
1.09617e-15
1.09812e-15
1.09998e-15
1.10172e-15
1.10336e-15
1.10488e-15
1.10629e-15
1.10758e-15
1.10874e-15
1.10979e-15
1.1107e-15
1.11149e-15
1.11214e-15
1.11267e-15
1.11306e-15
1.11332e-15
1.11345e-15
1.11344e-15
1.11331e-15
1.11303e-15
1.11263e-15
1.1121e-15
1.11143e-15
1.11064e-15
1.10971e-15
1.10867e-15
1.10749e-15
1.1062e-15
1.10479e-15
1.10326e-15
1.10163e-15
1.09988e-15
1.09803e-15
1.09607e-15
1.09403e-15
1.09189e-15
1.08967e-15
1.08737e-15
1.08499e-15
1.08254e-15
1.08003e-15
1.07744e-15
1.07263e-15
1.07525e-15
1.07779e-15
1.08027e-15
1.08268e-15
1.08502e-15
1.08727e-15
1.08943e-15
1.09151e-15
1.09348e-15
1.09536e-15
1.09713e-15
1.09878e-15
1.10033e-15
1.10175e-15
1.10306e-15
1.10424e-15
1.1053e-15
1.10622e-15
1.10702e-15
1.10769e-15
1.10822e-15
1.10862e-15
1.10888e-15
1.10901e-15
1.10901e-15
1.10887e-15
1.10859e-15
1.10818e-15
1.10764e-15
1.10696e-15
1.10615e-15
1.10522e-15
1.10415e-15
1.10296e-15
1.10165e-15
1.10022e-15
1.09868e-15
1.09702e-15
1.09525e-15
1.09337e-15
1.0914e-15
1.08933e-15
1.08717e-15
1.08492e-15
1.0826e-15
1.08019e-15
1.07772e-15
1.07518e-15
1.07257e-15
1.06771e-15
1.07035e-15
1.07292e-15
1.07542e-15
1.07785e-15
1.08021e-15
1.08248e-15
1.08467e-15
1.08676e-15
1.08876e-15
1.09066e-15
1.09244e-15
1.09412e-15
1.09568e-15
1.09712e-15
1.09844e-15
1.09964e-15
1.10071e-15
1.10165e-15
1.10246e-15
1.10313e-15
1.10367e-15
1.10407e-15
1.10434e-15
1.10447e-15
1.10446e-15
1.10432e-15
1.10404e-15
1.10362e-15
1.10307e-15
1.10239e-15
1.10157e-15
1.10062e-15
1.09954e-15
1.09834e-15
1.09701e-15
1.09557e-15
1.094e-15
1.09232e-15
1.09053e-15
1.08864e-15
1.08665e-15
1.08456e-15
1.08237e-15
1.08011e-15
1.07776e-15
1.07533e-15
1.07284e-15
1.07027e-15
1.06764e-15
1.06274e-15
1.06539e-15
1.06798e-15
1.07051e-15
1.07296e-15
1.07534e-15
1.07763e-15
1.07984e-15
1.08195e-15
1.08396e-15
1.08588e-15
1.08768e-15
1.08937e-15
1.09095e-15
1.09241e-15
1.09374e-15
1.09495e-15
1.09603e-15
1.09698e-15
1.09779e-15
1.09847e-15
1.09902e-15
1.09943e-15
1.0997e-15
1.09983e-15
1.09982e-15
1.09967e-15
1.09939e-15
1.09897e-15
1.09841e-15
1.09771e-15
1.09689e-15
1.09593e-15
1.09484e-15
1.09362e-15
1.09228e-15
1.09082e-15
1.08924e-15
1.08755e-15
1.08574e-15
1.08383e-15
1.08182e-15
1.07971e-15
1.07751e-15
1.07522e-15
1.07286e-15
1.07041e-15
1.06789e-15
1.06531e-15
1.06265e-15
1.05772e-15
1.06039e-15
1.063e-15
1.06554e-15
1.06801e-15
1.07041e-15
1.07272e-15
1.07494e-15
1.07707e-15
1.0791e-15
1.08102e-15
1.08284e-15
1.08455e-15
1.08614e-15
1.08761e-15
1.08895e-15
1.09017e-15
1.09126e-15
1.09222e-15
1.09304e-15
1.09373e-15
1.09428e-15
1.09469e-15
1.09496e-15
1.09509e-15
1.09508e-15
1.09493e-15
1.09465e-15
1.09422e-15
1.09366e-15
1.09295e-15
1.09212e-15
1.09115e-15
1.09005e-15
1.08882e-15
1.08747e-15
1.086e-15
1.08441e-15
1.0827e-15
1.08088e-15
1.07895e-15
1.07693e-15
1.0748e-15
1.07259e-15
1.07028e-15
1.0679e-15
1.06543e-15
1.0629e-15
1.0603e-15
1.05763e-15
1.05266e-15
1.05535e-15
1.05797e-15
1.06053e-15
1.06301e-15
1.06542e-15
1.06774e-15
1.06998e-15
1.07212e-15
1.07417e-15
1.07611e-15
1.07794e-15
1.07966e-15
1.08126e-15
1.08274e-15
1.08409e-15
1.08532e-15
1.08641e-15
1.08738e-15
1.08821e-15
1.0889e-15
1.08945e-15
1.08986e-15
1.09014e-15
1.09027e-15
1.09026e-15
1.09011e-15
1.08982e-15
1.08939e-15
1.08882e-15
1.08811e-15
1.08727e-15
1.08629e-15
1.08518e-15
1.08395e-15
1.08259e-15
1.0811e-15
1.0795e-15
1.07778e-15
1.07595e-15
1.07401e-15
1.07197e-15
1.06983e-15
1.0676e-15
1.06529e-15
1.06289e-15
1.06041e-15
1.05786e-15
1.05525e-15
1.05256e-15
1.04757e-15
1.05026e-15
1.0529e-15
1.05547e-15
1.05797e-15
1.06039e-15
1.06272e-15
1.06497e-15
1.06713e-15
1.06918e-15
1.07113e-15
1.07297e-15
1.0747e-15
1.07631e-15
1.07779e-15
1.07916e-15
1.08039e-15
1.08149e-15
1.08246e-15
1.0833e-15
1.08399e-15
1.08455e-15
1.08496e-15
1.08524e-15
1.08537e-15
1.08536e-15
1.08521e-15
1.08491e-15
1.08448e-15
1.0839e-15
1.08319e-15
1.08234e-15
1.08136e-15
1.08025e-15
1.079e-15
1.07763e-15
1.07614e-15
1.07453e-15
1.0728e-15
1.07096e-15
1.06901e-15
1.06696e-15
1.06481e-15
1.06257e-15
1.06024e-15
1.05783e-15
1.05534e-15
1.05278e-15
1.05015e-15
1.04746e-15
1.04245e-15
1.04515e-15
1.04779e-15
1.05037e-15
1.05288e-15
1.05531e-15
1.05766e-15
1.05991e-15
1.06208e-15
1.06414e-15
1.0661e-15
1.06795e-15
1.06968e-15
1.0713e-15
1.07279e-15
1.07416e-15
1.0754e-15
1.07651e-15
1.07748e-15
1.07832e-15
1.07901e-15
1.07957e-15
1.07999e-15
1.08026e-15
1.08039e-15
1.08038e-15
1.08023e-15
1.07993e-15
1.07949e-15
1.07892e-15
1.0782e-15
1.07735e-15
1.07636e-15
1.07524e-15
1.07399e-15
1.07261e-15
1.07111e-15
1.06949e-15
1.06776e-15
1.06591e-15
1.06396e-15
1.0619e-15
1.05974e-15
1.05749e-15
1.05515e-15
1.05273e-15
1.05024e-15
1.04767e-15
1.04503e-15
1.04232e-15
1.0373e-15
1.04001e-15
1.04266e-15
1.04524e-15
1.04776e-15
1.0502e-15
1.05255e-15
1.05481e-15
1.05698e-15
1.05905e-15
1.06102e-15
1.06287e-15
1.06461e-15
1.06623e-15
1.06773e-15
1.0691e-15
1.07035e-15
1.07146e-15
1.07243e-15
1.07327e-15
1.07397e-15
1.07453e-15
1.07495e-15
1.07522e-15
1.07535e-15
1.07534e-15
1.07518e-15
1.07489e-15
1.07445e-15
1.07387e-15
1.07315e-15
1.07229e-15
1.0713e-15
1.07017e-15
1.06892e-15
1.06754e-15
1.06603e-15
1.06441e-15
1.06267e-15
1.06082e-15
1.05886e-15
1.05679e-15
1.05463e-15
1.05237e-15
1.05003e-15
1.0476e-15
1.0451e-15
1.04252e-15
1.03988e-15
1.03717e-15
1.03214e-15
1.03484e-15
1.0375e-15
1.04009e-15
1.04261e-15
1.04505e-15
1.04741e-15
1.04968e-15
1.05185e-15
1.05393e-15
1.0559e-15
1.05775e-15
1.0595e-15
1.06112e-15
1.06262e-15
1.064e-15
1.06524e-15
1.06635e-15
1.06733e-15
1.06817e-15
1.06887e-15
1.06943e-15
1.06985e-15
1.07012e-15
1.07025e-15
1.07024e-15
1.07008e-15
1.06978e-15
1.06934e-15
1.06876e-15
1.06803e-15
1.06717e-15
1.06618e-15
1.06505e-15
1.0638e-15
1.06241e-15
1.0609e-15
1.05928e-15
1.05753e-15
1.05568e-15
1.05371e-15
1.05165e-15
1.04948e-15
1.04722e-15
1.04488e-15
1.04244e-15
1.03994e-15
1.03736e-15
1.03471e-15
1.032e-15
1.02697e-15
1.02966e-15
1.03232e-15
1.03491e-15
1.03743e-15
1.03987e-15
1.04224e-15
1.04451e-15
1.04669e-15
1.04876e-15
1.05074e-15
1.05259e-15
1.05434e-15
1.05596e-15
1.05747e-15
1.05884e-15
1.06009e-15
1.0612e-15
1.06218e-15
1.06302e-15
1.06372e-15
1.06428e-15
1.06469e-15
1.06497e-15
1.0651e-15
1.06508e-15
1.06492e-15
1.06462e-15
1.06418e-15
1.06359e-15
1.06287e-15
1.06201e-15
1.06101e-15
1.05988e-15
1.05862e-15
1.05724e-15
1.05573e-15
1.0541e-15
1.05236e-15
1.0505e-15
1.04854e-15
1.04647e-15
1.0443e-15
1.04204e-15
1.03969e-15
1.03726e-15
1.03475e-15
1.03217e-15
1.02952e-15
1.02681e-15
1.02712e-15
1.02972e-15
1.03223e-15
1.03468e-15
1.03704e-15
1.03932e-15
1.04149e-15
1.04357e-15
1.04554e-15
1.0474e-15
1.04915e-15
1.05077e-15
1.05227e-15
1.05365e-15
1.05489e-15
1.056e-15
1.05698e-15
1.05782e-15
1.05852e-15
1.05908e-15
1.05949e-15
1.05977e-15
1.05989e-15
1.05988e-15
1.05972e-15
1.05941e-15
1.05897e-15
1.05838e-15
1.05766e-15
1.0568e-15
1.0558e-15
1.05467e-15
1.05341e-15
1.05203e-15
1.05052e-15
1.04889e-15
1.04715e-15
1.04529e-15
1.04333e-15
1.04126e-15
1.0391e-15
1.03684e-15
1.03449e-15
1.03206e-15
1.02955e-15
1.02697e-15
1.02432e-15
1.02161e-15
1.02451e-15
1.02701e-15
1.02946e-15
1.03183e-15
1.0341e-15
1.03628e-15
1.03835e-15
1.04032e-15
1.04218e-15
1.04392e-15
1.04554e-15
1.04704e-15
1.04841e-15
1.04966e-15
1.05077e-15
1.05174e-15
1.05258e-15
1.05328e-15
1.05384e-15
1.05425e-15
1.05452e-15
1.05465e-15
1.05463e-15
1.05447e-15
1.05416e-15
1.05372e-15
1.05313e-15
1.05241e-15
1.05154e-15
1.05055e-15
1.04942e-15
1.04816e-15
1.04678e-15
1.04528e-15
1.04365e-15
1.04191e-15
1.04006e-15
1.0381e-15
1.03603e-15
1.03387e-15
1.03161e-15
1.02927e-15
1.02684e-15
1.02433e-15
1.02175e-15
1.01911e-15
1.0164e-15
1.02423e-15
1.0266e-15
1.02887e-15
1.03104e-15
1.03311e-15
1.03508e-15
1.03693e-15
1.03867e-15
1.04029e-15
1.04178e-15
1.04315e-15
1.04439e-15
1.0455e-15
1.04647e-15
1.04731e-15
1.048e-15
1.04856e-15
1.04897e-15
1.04924e-15
1.04936e-15
1.04935e-15
1.04918e-15
1.04888e-15
1.04843e-15
1.04784e-15
1.04712e-15
1.04626e-15
1.04526e-15
1.04414e-15
1.04288e-15
1.0415e-15
1.04e-15
1.03838e-15
1.03665e-15
1.0348e-15
1.03284e-15
1.03078e-15
1.02862e-15
1.02637e-15
1.02403e-15
1.02161e-15
1.01911e-15
1.01653e-15
1.0139e-15
1.01119e-15
1.02136e-15
1.02363e-15
1.02579e-15
1.02786e-15
1.02982e-15
1.03167e-15
1.0334e-15
1.03501e-15
1.0365e-15
1.03787e-15
1.0391e-15
1.0402e-15
1.04117e-15
1.042e-15
1.0427e-15
1.04325e-15
1.04366e-15
1.04393e-15
1.04405e-15
1.04403e-15
1.04387e-15
1.04356e-15
1.04311e-15
1.04252e-15
1.0418e-15
1.04094e-15
1.03995e-15
1.03883e-15
1.03758e-15
1.0362e-15
1.03471e-15
1.03309e-15
1.03136e-15
1.02952e-15
1.02757e-15
1.02552e-15
1.02337e-15
1.02112e-15
1.01879e-15
1.01637e-15
1.01388e-15
1.01131e-15
1.00868e-15
1.00598e-15
1.01838e-15
1.02052e-15
1.02259e-15
1.02455e-15
1.02639e-15
1.02811e-15
1.02971e-15
1.0312e-15
1.03256e-15
1.03379e-15
1.03488e-15
1.03585e-15
1.03668e-15
1.03737e-15
1.03792e-15
1.03832e-15
1.03859e-15
1.03871e-15
1.03869e-15
1.03852e-15
1.03821e-15
1.03777e-15
1.03718e-15
1.03646e-15
1.0356e-15
1.03461e-15
1.03349e-15
1.03225e-15
1.03088e-15
1.02939e-15
1.02779e-15
1.02606e-15
1.02423e-15
1.02229e-15
1.02024e-15
1.0181e-15
1.01586e-15
1.01354e-15
1.01113e-15
1.00865e-15
1.00609e-15
1.00347e-15
1.00078e-15
1.01732e-15
1.01928e-15
1.0211e-15
1.02281e-15
1.0244e-15
1.02589e-15
1.02724e-15
1.02845e-15
1.02954e-15
1.03051e-15
1.03133e-15
1.03202e-15
1.03256e-15
1.03297e-15
1.03323e-15
1.03335e-15
1.03332e-15
1.03316e-15
1.03285e-15
1.0324e-15
1.03182e-15
1.03109e-15
1.03024e-15
1.02926e-15
1.02814e-15
1.02691e-15
1.02555e-15
1.02406e-15
1.02247e-15
1.02075e-15
1.01893e-15
1.017e-15
1.01496e-15
1.01283e-15
1.01061e-15
1.00829e-15
1.00589e-15
1.00342e-15
1.00088e-15
9.98265e-16
9.95589e-16
1.014e-15
1.01581e-15
1.0175e-15
1.01908e-15
1.02056e-15
1.0219e-15
1.02311e-15
1.02419e-15
1.02515e-15
1.02597e-15
1.02665e-15
1.02719e-15
1.02759e-15
1.02785e-15
1.02797e-15
1.02794e-15
1.02777e-15
1.02746e-15
1.02702e-15
1.02643e-15
1.02572e-15
1.02486e-15
1.02388e-15
1.02278e-15
1.02155e-15
1.0202e-15
1.01873e-15
1.01714e-15
1.01544e-15
1.01362e-15
1.0117e-15
1.00968e-15
1.00756e-15
1.00535e-15
1.00305e-15
1.00066e-15
9.98201e-16
9.95668e-16
9.9307e-16
9.90408e-16
1.01524e-15
1.01656e-15
1.01776e-15
1.01882e-15
1.01978e-15
1.02059e-15
1.02128e-15
1.02181e-15
1.0222e-15
1.02246e-15
1.02258e-15
1.02255e-15
1.02238e-15
1.02207e-15
1.02162e-15
1.02104e-15
1.02032e-15
1.01948e-15
1.0185e-15
1.0174e-15
1.01618e-15
1.01484e-15
1.01338e-15
1.01181e-15
1.01012e-15
1.00832e-15
1.00641e-15
1.0044e-15
1.0023e-15
1.0001e-15
9.97808e-16
9.95438e-16
9.92991e-16
9.90472e-16
9.87889e-16
9.85241e-16
1.01441e-15
1.01521e-15
1.0159e-15
1.01642e-15
1.01681e-15
1.01706e-15
1.01718e-15
1.01715e-15
1.01698e-15
1.01666e-15
1.01622e-15
1.01564e-15
1.01493e-15
1.01408e-15
1.01311e-15
1.01202e-15
1.01081e-15
1.00948e-15
1.00804e-15
1.00648e-15
1.0048e-15
1.00301e-15
1.00112e-15
9.99128e-16
9.97036e-16
9.94852e-16
9.9258e-16
9.90226e-16
9.87794e-16
9.85292e-16
9.82724e-16
9.80092e-16
1.01052e-15
1.01104e-15
1.01141e-15
1.01165e-15
1.01178e-15
1.01174e-15
1.01157e-15
1.01126e-15
1.01081e-15
1.01024e-15
1.00953e-15
1.00868e-15
1.00772e-15
1.00664e-15
1.00544e-15
1.00413e-15
1.00269e-15
1.00115e-15
9.99486e-16
9.97716e-16
9.9584e-16
9.93862e-16
9.91787e-16
9.8962e-16
9.87365e-16
9.85028e-16
9.82614e-16
9.80129e-16
9.77578e-16
9.74964e-16
1.00638e-15
1.00634e-15
1.00617e-15
1.00585e-15
1.0054e-15
1.00484e-15
1.00413e-15
1.00328e-15
1.00233e-15
1.00126e-15
1.00008e-15
9.98776e-16
9.97357e-16
9.95825e-16
9.94181e-16
9.92428e-16
9.90569e-16
9.88608e-16
9.86552e-16
9.84403e-16
9.82166e-16
9.79848e-16
9.77452e-16
9.74986e-16
9.72455e-16
9.69859e-16
9.99442e-16
9.98731e-16
9.97889e-16
9.96951e-16
9.9588e-16
9.9472e-16
9.93433e-16
9.92029e-16
9.90515e-16
9.88888e-16
9.87152e-16
9.85311e-16
9.8337e-16
9.81333e-16
9.79203e-16
9.76986e-16
9.74688e-16
9.72313e-16
9.69867e-16
9.67355e-16
9.6478e-16
9.91576e-16
9.90507e-16
9.89375e-16
9.88101e-16
9.86713e-16
9.85218e-16
9.8361e-16
9.81893e-16
9.80071e-16
9.78149e-16
9.76133e-16
9.74024e-16
9.71828e-16
9.69551e-16
9.67198e-16
9.64773e-16
9.62283e-16
9.59729e-16
9.84045e-16
9.82784e-16
9.81412e-16
9.79938e-16
9.7835e-16
9.76652e-16
9.7485e-16
9.72948e-16
9.70955e-16
9.68868e-16
9.66694e-16
9.64441e-16
9.6211e-16
9.59707e-16
9.57239e-16
9.54708e-16
9.78737e-16
9.77484e-16
9.76128e-16
9.74679e-16
9.73111e-16
9.71433e-16
9.69651e-16
9.67771e-16
9.65803e-16
9.63738e-16
9.61586e-16
9.59358e-16
9.5705e-16
9.54671e-16
9.52227e-16
9.4972e-16
9.73447e-16
9.72204e-16
9.70863e-16
9.69444e-16
9.67896e-16
9.66239e-16
9.64478e-16
9.62618e-16
9.60678e-16
9.58636e-16
9.56507e-16
9.54305e-16
9.52022e-16
9.49667e-16
9.47249e-16
9.44767e-16
9.64236e-16
9.62708e-16
9.61072e-16
9.59332e-16
9.57493e-16
9.55585e-16
9.53565e-16
9.51458e-16
9.49286e-16
9.47028e-16
9.44698e-16
9.42305e-16
9.39851e-16
9.50524e-16
9.48526e-16
9.4644e-16
9.44303e-16
9.42068e-16
9.39764e-16
9.37398e-16
9.34974e-16
9.39356e-16
9.37146e-16
9.34868e-16
9.32531e-16
9.30139e-16
1.14339e-15
1.14364e-15
1.14379e-15
1.14383e-15
1.14376e-15
1.14359e-15
1.1433e-15
1.14292e-15
1.14242e-15
1.14182e-15
1.14112e-15
1.1403e-15
1.13939e-15
1.13837e-15
1.13725e-15
1.13602e-15
1.13469e-15
1.13326e-15
1.13173e-15
1.1301e-15
1.12837e-15
1.12654e-15
1.12462e-15
1.12259e-15
1.12047e-15
1.11825e-15
1.11593e-15
1.11349e-15
1.14001e-15
1.14028e-15
1.14043e-15
1.14047e-15
1.1404e-15
1.14021e-15
1.13992e-15
1.13951e-15
1.139e-15
1.13837e-15
1.13763e-15
1.13679e-15
1.13583e-15
1.13477e-15
1.1336e-15
1.13233e-15
1.13095e-15
1.12946e-15
1.12788e-15
1.12619e-15
1.1244e-15
1.12252e-15
1.12053e-15
1.11846e-15
1.11629e-15
1.11404e-15
1.11173e-15
1.10938e-15
1.13649e-15
1.13676e-15
1.13692e-15
1.13696e-15
1.13689e-15
1.1367e-15
1.13639e-15
1.13597e-15
1.13543e-15
1.13478e-15
1.13401e-15
1.13313e-15
1.13214e-15
1.13104e-15
1.12983e-15
1.12851e-15
1.12709e-15
1.12555e-15
1.12392e-15
1.12218e-15
1.12034e-15
1.11841e-15
1.11638e-15
1.11427e-15
1.11207e-15
1.1098e-15
1.10749e-15
1.10512e-15
1.13282e-15
1.1331e-15
1.13326e-15
1.13331e-15
1.13323e-15
1.13303e-15
1.13271e-15
1.13227e-15
1.13172e-15
1.13104e-15
1.13025e-15
1.12934e-15
1.12832e-15
1.12718e-15
1.12593e-15
1.12458e-15
1.12311e-15
1.12153e-15
1.11985e-15
1.11807e-15
1.11619e-15
1.11422e-15
1.11215e-15
1.11e-15
1.10778e-15
1.10549e-15
1.10315e-15
1.10074e-15
1.12901e-15
1.1293e-15
1.12946e-15
1.1295e-15
1.12942e-15
1.12922e-15
1.12889e-15
1.12844e-15
1.12786e-15
1.12717e-15
1.12635e-15
1.12542e-15
1.12437e-15
1.1232e-15
1.12192e-15
1.12052e-15
1.11901e-15
1.1174e-15
1.11568e-15
1.11386e-15
1.11194e-15
1.10993e-15
1.10783e-15
1.10565e-15
1.1034e-15
1.10108e-15
1.09871e-15
1.09626e-15
1.12506e-15
1.12535e-15
1.12552e-15
1.12556e-15
1.12548e-15
1.12527e-15
1.12493e-15
1.12447e-15
1.12388e-15
1.12316e-15
1.12233e-15
1.12137e-15
1.12029e-15
1.11909e-15
1.11778e-15
1.11635e-15
1.11481e-15
1.11316e-15
1.11141e-15
1.10955e-15
1.1076e-15
1.10556e-15
1.10343e-15
1.10122e-15
1.09893e-15
1.09658e-15
1.09417e-15
1.09168e-15
1.12097e-15
1.12128e-15
1.12145e-15
1.12149e-15
1.12141e-15
1.12119e-15
1.12084e-15
1.12037e-15
1.11976e-15
1.11903e-15
1.11818e-15
1.1172e-15
1.11609e-15
1.11487e-15
1.11353e-15
1.11207e-15
1.1105e-15
1.10882e-15
1.10704e-15
1.10515e-15
1.10317e-15
1.10109e-15
1.09893e-15
1.09669e-15
1.09438e-15
1.092e-15
1.08955e-15
1.08702e-15
1.11677e-15
1.11708e-15
1.11725e-15
1.1173e-15
1.11721e-15
1.11698e-15
1.11663e-15
1.11614e-15
1.11553e-15
1.11478e-15
1.11391e-15
1.11291e-15
1.11178e-15
1.11054e-15
1.10917e-15
1.10769e-15
1.10609e-15
1.10439e-15
1.10257e-15
1.10066e-15
1.09865e-15
1.09654e-15
1.09436e-15
1.09209e-15
1.08974e-15
1.08733e-15
1.08485e-15
1.08229e-15
1.11244e-15
1.11276e-15
1.11294e-15
1.11298e-15
1.11289e-15
1.11266e-15
1.1123e-15
1.1118e-15
1.11118e-15
1.11042e-15
1.10953e-15
1.10851e-15
1.10737e-15
1.1061e-15
1.10471e-15
1.10321e-15
1.10158e-15
1.09985e-15
1.09802e-15
1.09608e-15
1.09404e-15
1.09191e-15
1.0897e-15
1.0874e-15
1.08503e-15
1.08258e-15
1.08007e-15
1.07749e-15
1.10801e-15
1.10833e-15
1.10851e-15
1.10855e-15
1.10846e-15
1.10823e-15
1.10786e-15
1.10735e-15
1.10672e-15
1.10595e-15
1.10504e-15
1.10401e-15
1.10285e-15
1.10156e-15
1.10016e-15
1.09863e-15
1.09699e-15
1.09523e-15
1.09337e-15
1.09141e-15
1.08935e-15
1.0872e-15
1.08496e-15
1.08264e-15
1.08024e-15
1.07777e-15
1.07523e-15
1.07262e-15
1.10347e-15
1.10379e-15
1.10397e-15
1.10402e-15
1.10392e-15
1.10369e-15
1.10331e-15
1.1028e-15
1.10216e-15
1.10137e-15
1.10046e-15
1.09941e-15
1.09824e-15
1.09694e-15
1.09551e-15
1.09397e-15
1.0923e-15
1.09053e-15
1.08865e-15
1.08667e-15
1.08459e-15
1.08241e-15
1.08015e-15
1.07781e-15
1.07539e-15
1.0729e-15
1.07033e-15
1.0677e-15
1.09883e-15
1.09916e-15
1.09934e-15
1.09939e-15
1.09929e-15
1.09905e-15
1.09867e-15
1.09815e-15
1.0975e-15
1.09671e-15
1.09579e-15
1.09473e-15
1.09354e-15
1.09222e-15
1.09078e-15
1.08922e-15
1.08754e-15
1.08575e-15
1.08385e-15
1.08185e-15
1.07975e-15
1.07756e-15
1.07528e-15
1.07292e-15
1.07048e-15
1.06796e-15
1.06538e-15
1.06272e-15
1.09411e-15
1.09444e-15
1.09462e-15
1.09466e-15
1.09456e-15
1.09432e-15
1.09393e-15
1.09341e-15
1.09276e-15
1.09196e-15
1.09103e-15
1.08996e-15
1.08876e-15
1.08743e-15
1.08597e-15
1.0844e-15
1.0827e-15
1.0809e-15
1.07899e-15
1.07697e-15
1.07486e-15
1.07265e-15
1.07035e-15
1.06797e-15
1.06551e-15
1.06298e-15
1.06038e-15
1.05771e-15
1.0893e-15
1.08963e-15
1.08982e-15
1.08986e-15
1.08975e-15
1.08951e-15
1.08911e-15
1.08858e-15
1.08793e-15
1.08713e-15
1.08619e-15
1.08511e-15
1.0839e-15
1.08256e-15
1.08109e-15
1.0795e-15
1.07779e-15
1.07598e-15
1.07406e-15
1.07203e-15
1.0699e-15
1.06768e-15
1.06537e-15
1.06297e-15
1.0605e-15
1.05795e-15
1.05534e-15
1.05265e-15
1.08303e-15
1.08223e-15
1.08128e-15
1.08019e-15
1.07897e-15
1.07762e-15
1.07614e-15
1.07454e-15
1.07283e-15
1.07099e-15
1.06907e-15
1.06703e-15
1.06489e-15
1.06265e-15
1.06033e-15
1.05793e-15
1.05544e-15
1.05289e-15
1.05026e-15
1.04756e-15
1.06404e-15
1.06199e-15
1.05983e-15
1.05758e-15
1.05526e-15
1.05285e-15
1.05035e-15
1.04779e-15
1.04515e-15
1.04244e-15
1.05016e-15
1.04773e-15
1.04522e-15
1.04266e-15
1.04002e-15
1.0373e-15
1.03751e-15
1.03486e-15
1.03214e-15
9.15512e-16
9.10609e-16
9.057e-16
1.00419e-15
9.98896e-16
9.93602e-16
9.88314e-16
9.83036e-16
9.77773e-16
9.72528e-16
9.67304e-16
9.62103e-16
9.56929e-16
9.51782e-16
9.46666e-16
9.41583e-16
9.36535e-16
9.31523e-16
9.26551e-16
9.21616e-16
9.16693e-16
9.11757e-16
9.06821e-16
1.02146e-15
1.01615e-15
1.01083e-15
1.00551e-15
1.0002e-15
9.94889e-16
9.89588e-16
9.84297e-16
9.7902e-16
9.73761e-16
9.68522e-16
9.63305e-16
9.58115e-16
9.52952e-16
9.4782e-16
9.4272e-16
9.37655e-16
9.32627e-16
9.27637e-16
9.22688e-16
9.17753e-16
9.12804e-16
9.07853e-16
1.02267e-15
1.01736e-15
1.01203e-15
1.00671e-15
1.00139e-15
9.96064e-16
9.9075e-16
9.85446e-16
9.80156e-16
9.74883e-16
9.69629e-16
9.64398e-16
9.59192e-16
9.54014e-16
9.48866e-16
9.4375e-16
9.38668e-16
9.33623e-16
9.28615e-16
9.23647e-16
9.18698e-16
9.13741e-16
9.08783e-16
1.02376e-15
1.01844e-15
1.01312e-15
1.00779e-15
1.00245e-15
9.97121e-16
9.91795e-16
9.86479e-16
9.81177e-16
9.7589e-16
9.70623e-16
9.65378e-16
9.60158e-16
9.54965e-16
9.49802e-16
9.4467e-16
9.39572e-16
9.3451e-16
9.29485e-16
9.245e-16
9.19537e-16
9.14573e-16
9.09609e-16
1.02474e-15
1.01942e-15
1.01409e-15
1.00875e-15
1.0034e-15
9.9806e-16
9.92722e-16
9.87395e-16
9.8208e-16
9.76781e-16
9.71501e-16
9.66243e-16
9.6101e-16
9.55803e-16
9.50626e-16
9.4548e-16
9.40367e-16
9.3529e-16
9.3025e-16
9.25249e-16
9.20274e-16
9.15302e-16
9.10333e-16
1.12365e-15
1.11955e-15
1.11533e-15
1.11099e-15
1.10654e-15
1.10199e-15
1.09734e-15
1.0926e-15
1.08778e-15
1.08287e-15
1.0779e-15
1.07286e-15
1.06777e-15
1.06262e-15
1.05743e-15
1.05219e-15
1.04693e-15
1.04163e-15
1.03631e-15
1.03098e-15
1.02564e-15
1.0203e-15
1.01494e-15
1.00959e-15
1.00423e-15
9.98877e-16
9.93528e-16
9.88189e-16
9.82863e-16
9.77553e-16
9.72262e-16
9.66992e-16
9.61746e-16
9.56527e-16
9.51337e-16
9.46179e-16
9.41053e-16
9.35962e-16
9.30909e-16
9.25893e-16
9.20907e-16
9.15929e-16
9.10955e-16
1.12427e-15
1.1202e-15
1.116e-15
1.11168e-15
1.10724e-15
1.1027e-15
1.09805e-15
1.09332e-15
1.0885e-15
1.08361e-15
1.07864e-15
1.07361e-15
1.06852e-15
1.06337e-15
1.05818e-15
1.05295e-15
1.04769e-15
1.04239e-15
1.03707e-15
1.03174e-15
1.02639e-15
1.02103e-15
1.01567e-15
1.0103e-15
1.00493e-15
9.99568e-16
9.94209e-16
9.8886e-16
9.83524e-16
9.78204e-16
9.72902e-16
9.67622e-16
9.62366e-16
9.57136e-16
9.51936e-16
9.46766e-16
9.41629e-16
9.36527e-16
9.31461e-16
9.26434e-16
9.21439e-16
9.16454e-16
9.11476e-16
1.12478e-15
1.12073e-15
1.11654e-15
1.11223e-15
1.1078e-15
1.10327e-15
1.09863e-15
1.09391e-15
1.08909e-15
1.0842e-15
1.07924e-15
1.07421e-15
1.06912e-15
1.06398e-15
1.05879e-15
1.05356e-15
1.0483e-15
1.043e-15
1.03769e-15
1.03235e-15
1.02699e-15
1.02163e-15
1.01626e-15
1.01088e-15
1.0055e-15
1.00013e-15
9.94762e-16
9.89405e-16
9.8406e-16
9.78731e-16
9.73421e-16
9.68132e-16
9.62868e-16
9.57629e-16
9.52419e-16
9.4724e-16
9.42094e-16
9.36983e-16
9.31908e-16
9.26871e-16
9.21868e-16
9.16878e-16
9.11896e-16
1.14343e-15
1.14006e-15
1.13655e-15
1.13289e-15
1.1291e-15
1.12519e-15
1.12114e-15
1.11696e-15
1.11265e-15
1.10823e-15
1.1037e-15
1.09907e-15
1.09435e-15
1.08954e-15
1.08466e-15
1.0797e-15
1.07467e-15
1.06959e-15
1.06445e-15
1.05926e-15
1.05403e-15
1.04877e-15
1.04347e-15
1.03815e-15
1.03281e-15
1.02745e-15
1.02208e-15
1.0167e-15
1.01132e-15
1.00594e-15
1.00056e-15
9.95184e-16
9.8982e-16
9.84469e-16
9.79133e-16
9.73817e-16
9.68521e-16
9.6325e-16
9.58004e-16
9.52788e-16
9.47602e-16
9.42448e-16
9.3733e-16
9.32248e-16
9.27204e-16
9.22194e-16
9.172e-16
9.12215e-16
1.14368e-15
1.14033e-15
1.13683e-15
1.13318e-15
1.12939e-15
1.12548e-15
1.12143e-15
1.11725e-15
1.11295e-15
1.10853e-15
1.104e-15
1.09938e-15
1.09466e-15
1.08986e-15
1.08497e-15
1.08001e-15
1.07499e-15
1.0699e-15
1.06477e-15
1.05958e-15
1.05435e-15
1.04909e-15
1.04379e-15
1.03847e-15
1.03312e-15
1.02776e-15
1.02239e-15
1.01701e-15
1.01162e-15
1.00624e-15
1.00085e-15
9.95473e-16
9.90105e-16
9.84749e-16
9.79409e-16
9.74088e-16
9.68787e-16
9.63511e-16
9.58261e-16
9.5304e-16
9.47849e-16
9.42691e-16
9.37567e-16
9.3248e-16
9.27431e-16
9.22417e-16
9.1742e-16
9.12433e-16
1.14382e-15
1.14047e-15
1.13698e-15
1.13334e-15
1.12956e-15
1.12564e-15
1.12159e-15
1.11741e-15
1.11311e-15
1.10869e-15
1.10417e-15
1.09954e-15
1.09483e-15
1.09002e-15
1.08514e-15
1.08018e-15
1.07516e-15
1.07008e-15
1.06494e-15
1.05976e-15
1.05453e-15
1.04926e-15
1.04397e-15
1.03864e-15
1.0333e-15
1.02793e-15
1.02256e-15
1.01717e-15
1.01179e-15
1.0064e-15
1.00101e-15
9.95629e-16
9.90258e-16
9.849e-16
9.79557e-16
9.74233e-16
9.6893e-16
9.63651e-16
9.58399e-16
9.53175e-16
9.47981e-16
9.42821e-16
9.37694e-16
9.32605e-16
9.27553e-16
9.22537e-16
9.17538e-16
9.12549e-16
1.14386e-15
1.14051e-15
1.13702e-15
1.13338e-15
1.12959e-15
1.12567e-15
1.12162e-15
1.11744e-15
1.11314e-15
1.10872e-15
1.1042e-15
1.09957e-15
1.09485e-15
1.09005e-15
1.08517e-15
1.08021e-15
1.07519e-15
1.07011e-15
1.06497e-15
1.05978e-15
1.05456e-15
1.04929e-15
1.04399e-15
1.03867e-15
1.03332e-15
1.02796e-15
1.02259e-15
1.0172e-15
1.01181e-15
1.00642e-15
1.00103e-15
9.95651e-16
9.9028e-16
9.84921e-16
9.79577e-16
9.74253e-16
9.6895e-16
9.6367e-16
9.58417e-16
9.53193e-16
9.47999e-16
9.42838e-16
9.37711e-16
9.32622e-16
9.2757e-16
9.22553e-16
9.17554e-16
9.12564e-16
1.14379e-15
1.14044e-15
1.13694e-15
1.1333e-15
1.12951e-15
1.12558e-15
1.12152e-15
1.11734e-15
1.11303e-15
1.10861e-15
1.10409e-15
1.09946e-15
1.09474e-15
1.08994e-15
1.08505e-15
1.0801e-15
1.07507e-15
1.06999e-15
1.06485e-15
1.05967e-15
1.05444e-15
1.04917e-15
1.04388e-15
1.03855e-15
1.03321e-15
1.02785e-15
1.02247e-15
1.01709e-15
1.0117e-15
1.00631e-15
1.00092e-15
9.9554e-16
9.90169e-16
9.84811e-16
9.7947e-16
9.74146e-16
9.68845e-16
9.63567e-16
9.58316e-16
9.53093e-16
9.47901e-16
9.42742e-16
9.37618e-16
9.3253e-16
9.27481e-16
9.22466e-16
9.17467e-16
9.12478e-16
1.14361e-15
1.14025e-15
1.13675e-15
1.13309e-15
1.1293e-15
1.12536e-15
1.12129e-15
1.1171e-15
1.11279e-15
1.10837e-15
1.10384e-15
1.09921e-15
1.09449e-15
1.08968e-15
1.08479e-15
1.07983e-15
1.07481e-15
1.06973e-15
1.06459e-15
1.0594e-15
1.05418e-15
1.04891e-15
1.04362e-15
1.03829e-15
1.03295e-15
1.02759e-15
1.02221e-15
1.01683e-15
1.01144e-15
1.00606e-15
1.00067e-15
9.95295e-16
9.89927e-16
9.84572e-16
9.79234e-16
9.73914e-16
9.68616e-16
9.63342e-16
9.58095e-16
9.52876e-16
9.47688e-16
9.42534e-16
9.37414e-16
9.32331e-16
9.27286e-16
9.22275e-16
9.17278e-16
9.1229e-16
1.14332e-15
1.13995e-15
1.13643e-15
1.13277e-15
1.12896e-15
1.12502e-15
1.12094e-15