/*--------------------------------*- C++ -*----------------------------------*\
  =========                 |
  \\      /  F ield         | OpenFOAM: The Open Source CFD Toolbox
   \\    /   O peration     | Website:  https://openfoam.org
    \\  /    A nd           | Version:  7
     \\/     M anipulation  |
\*---------------------------------------------------------------------------*/
FoamFile
{
    version     2.0;
    format      ascii;
    class       volScalarField;
    location    "32000";
    object      p;
}
// * * * * * * * * * * * * * * * * * * * * * * * * * * * * * * * * * * * * * //

dimensions      [0 2 -2 0 0 0 0];

internalField   nonuniform List<scalar> 
1762
(
-3.84009e-19
-3.75593e-19
-3.82322e-19
-3.78787e-19
-3.92522e-19
-3.91584e-19
-3.83251e-19
-3.55393e-19
-3.92751e-19
-3.73188e-19
-3.831e-19
-3.77697e-19
-3.86564e-19
-3.96109e-19
-3.82269e-19
-3.66933e-19
-3.0763e-19
-3.1466e-19
-3.19648e-19
-3.30649e-19
-3.58594e-19
-3.67735e-19
-3.69504e-19
-3.82781e-19
-3.80478e-19
-3.82141e-19
-3.7222e-19
-3.82787e-19
-3.93011e-19
-3.83375e-19
-3.58599e-19
-2.65988e-19
-2.73352e-19
-2.85373e-19
-3.06431e-19
-3.14189e-19
-3.24769e-19
-3.25281e-19
-3.60772e-19
-3.70453e-19
-3.73808e-19
-3.7343e-19
-3.85511e-19
-3.89442e-19
-3.78352e-19
-3.85005e-19
-3.88461e-19
-3.80869e-19
-3.54133e-19
-2.64577e-19
-2.66903e-19
-2.90947e-19
-3.03528e-19
-3.15644e-19
-3.23996e-19
-3.2928e-19
-3.55484e-19
-3.55373e-19
-3.68204e-19
-3.71936e-19
-3.82778e-19
-3.91031e-19
-3.743e-19
-3.92964e-19
-3.8801e-19
-3.7124e-19
-3.51288e-19
-2.63156e-19
-2.67987e-19
-2.94676e-19
-2.98734e-19
-3.1126e-19
-3.23331e-19
-3.36642e-19
-3.54746e-19
-3.67483e-19
-3.68717e-19
-3.74167e-19
-3.7445e-19
-3.85493e-19
-3.67812e-19
-3.93692e-19
-3.87744e-19
-3.67414e-19
-3.40928e-19
-2.67416e-19
-2.64819e-19
-2.98775e-19
-3.07189e-19
-3.10773e-19
-3.22683e-19
-3.41839e-19
-3.54128e-19
-3.68203e-19
-3.61632e-19
-3.70837e-19
-3.69858e-19
-3.95397e-19
-3.64361e-19
-3.93141e-19
-3.78723e-19
-3.74571e-19
-3.5138e-19
-2.75346e-19
-2.55507e-19
-2.92144e-19
-3.0437e-19
-3.17523e-19
-3.23791e-19
-3.30434e-19
-3.51647e-19
-3.6378e-19
-3.67232e-19
-3.75043e-19
-3.64915e-19
-3.80899e-19
-3.68882e-19
-3.82689e-19
-3.78607e-19
-3.76655e-19
-3.4567e-19
-2.76376e-19
-2.56272e-19
-2.87945e-19
-3.0519e-19
-3.09757e-19
-3.24891e-19
-3.33464e-19
-3.52969e-19
-3.61409e-19
-3.63724e-19
-3.68825e-19
-3.64936e-19
-3.77754e-19
-3.78072e-19
-3.76249e-19
-3.87061e-19
-3.77415e-19
-3.53044e-19
-2.76174e-19
-2.61434e-19
-2.84119e-19
-2.9738e-19
-3.07255e-19
-3.261e-19
-3.3975e-19
-3.52687e-19
-3.57458e-19
-3.58528e-19
-3.62924e-19
-3.73266e-19
-3.76589e-19
-3.73527e-19
-3.83217e-19
-3.77287e-19
-3.76719e-19
-3.46979e-19
-2.71287e-19
-2.62459e-19
-2.8399e-19
-2.91507e-19
-3.06352e-19
-3.2739e-19
-3.40786e-19
-3.52533e-19
-3.57053e-19
-3.66907e-19
-3.60445e-19
-3.64808e-19
-3.75541e-19
-3.67285e-19
-3.9022e-19
-3.67662e-19
-3.63586e-19
-3.37624e-19
-2.40404e-19
-2.66841e-19
-2.66348e-19
-2.84097e-19
-2.93986e-19
-3.02013e-19
-3.28791e-19
-3.35194e-19
-3.49172e-19
-3.59878e-19
-3.60527e-19
-3.61141e-19
-3.61357e-19
-3.78016e-19
-3.67196e-19
-3.94479e-19
-3.70633e-19
-3.62014e-19
-3.35826e-19
-2.36285e-19
-2.58035e-19
-2.66645e-19
-2.84337e-19
-2.94767e-19
-3.02353e-19
-3.25615e-19
-3.36128e-19
-3.49163e-19
-3.62766e-19
-3.62308e-19
-3.57056e-19
-3.59364e-19
-3.83938e-19
-3.74411e-19
-3.962e-19
-3.81008e-19
-3.63714e-19
-3.35119e-19
-2.41881e-19
-2.60684e-19
-2.60506e-19
-2.79949e-19
-2.89206e-19
-3.05598e-19
-3.30615e-19
-3.38595e-19
-3.46001e-19
-3.57944e-19
-3.6566e-19
-3.46789e-19
-3.54066e-19
-3.77905e-19
-3.64365e-19
-4.02859e-19
-3.83665e-19
-3.64003e-19
-3.36911e-19
-2.44475e-19
-2.66579e-19
-2.58909e-19
-2.75831e-19
-2.89825e-19
-3.05532e-19
-3.29588e-19
-3.37957e-19
-3.55081e-19
-3.54823e-19
-3.63192e-19
-3.45516e-19
-3.56198e-19
-3.70989e-19
-3.67277e-19
-3.93899e-19
-3.8335e-19
-3.57178e-19
-3.42555e-19
-2.44205e-19
-2.71182e-19
-2.54074e-19
-2.70384e-19
-2.90372e-19
-3.08327e-19
-3.2881e-19
-3.38739e-19
-3.53711e-19
-3.66491e-19
-3.62569e-19
-3.52747e-19
-3.6551e-19
-3.67361e-19
-3.66911e-19
-4.01257e-19
-3.76142e-19
-3.54647e-19
-3.52107e-19
-2.4261e-19
-2.60162e-19
-2.51913e-19
-2.75276e-19
-2.89433e-19
-3.08065e-19
-3.34028e-19
-3.35106e-19
-3.55287e-19
-3.66501e-19
-3.66332e-19
-3.52402e-19
-3.61929e-19
-3.69488e-19
-3.73186e-19
-4.06252e-19
-3.75959e-19
-3.61534e-19
-3.4543e-19
-2.39876e-19
-2.59633e-19
-2.55154e-19
-2.74483e-19
-2.88436e-19
-3.04857e-19
-3.30912e-19
-3.37033e-19
-3.52686e-19
-3.66629e-19
-3.65951e-19
-3.46274e-19
-3.55709e-19
-3.71599e-19
-3.70848e-19
-3.95562e-19
-3.76984e-19
-3.70884e-19
-3.46749e-19
-2.38757e-19
-2.59369e-19
-2.53936e-19
-2.71031e-19
-2.86026e-19
-3.016e-19
-3.33627e-19
-3.40202e-19
-3.47429e-19
-3.65534e-19
-3.61699e-19
-3.5352e-19
-3.52279e-19
-3.72481e-19
-3.68332e-19
-3.90817e-19
-3.80475e-19
-3.6469e-19
-3.42848e-19
-2.44507e-19
-2.56689e-19
-2.53885e-19
-2.69062e-19
-2.8767e-19
-3.00919e-19
-3.2985e-19
-3.40624e-19
-3.42205e-19
-3.66003e-19
-3.65523e-19
-3.52628e-19
-3.57872e-19
-3.73562e-19
-3.72071e-19
-3.90317e-19
-3.77604e-19
-3.68707e-19
-3.41409e-19
-2.46412e-19
-2.58127e-19
-2.57594e-19
-2.6714e-19
-2.89285e-19
-3.00075e-19
-3.23773e-19
-3.38537e-19
-3.4986e-19
-3.64098e-19
-3.68068e-19
-3.55425e-19
-3.58149e-19
-3.73504e-19
-3.75541e-19
-3.92563e-19
-3.73559e-19
-3.73973e-19
-3.43432e-19
-2.42157e-19
-2.59634e-19
-2.59855e-19
-2.67723e-19
-2.88384e-19
-3.02909e-19
-3.24306e-19
-3.39078e-19
-3.49719e-19
-3.57326e-19
-3.6071e-19
-3.58012e-19
-3.60777e-19
-3.72337e-19
-3.73947e-19
-3.93829e-19
-3.74239e-19
-3.72251e-19
-3.44094e-19
-2.35698e-19
-2.64934e-19
-2.60767e-19
-2.70672e-19
-2.87527e-19
-3.03105e-19
-3.2368e-19
-3.3843e-19
-3.4838e-19
-3.55647e-19
-3.68141e-19
-3.55667e-19
-3.54892e-19
-3.73655e-19
-3.72262e-19
-3.91858e-19
-3.7361e-19
-3.69625e-19
-3.4917e-19
-2.35385e-19
-2.6318e-19
-2.59159e-19
-2.69911e-19
-2.87871e-19
-3.05615e-19
-3.21954e-19
-3.42621e-19
-3.47093e-19
-3.63427e-19
-3.69672e-19
-3.55642e-19
-3.55996e-19
-3.72781e-19
-3.70474e-19
-3.83425e-19
-3.7851e-19
-3.69405e-19
-3.45349e-19
-2.32768e-19
-2.59398e-19
-2.5866e-19
-2.72631e-19
-2.89336e-19
-3.05704e-19
-3.21434e-19
-3.41044e-19
-3.46899e-19
-3.64166e-19
-3.69029e-19
-3.47572e-19
-3.54698e-19
-3.70948e-19
-3.7307e-19
-3.77561e-19
-3.73502e-19
-3.6174e-19
-3.38436e-19
-2.3584e-19
-2.59301e-19
-2.6372e-19
-2.74146e-19
-2.89602e-19
-3.05763e-19
-3.19806e-19
-3.37385e-19
-3.45504e-19
-3.61627e-19
-3.67479e-19
-3.56056e-19
-3.57749e-19
-3.7035e-19
-3.75574e-19
-3.83649e-19
-3.73969e-19
-3.70031e-19
-3.31132e-19
-2.37739e-19
-2.5606e-19
-2.64223e-19
-2.74509e-19
-2.88729e-19
-3.05802e-19
-3.18231e-19
-3.38271e-19
-3.45175e-19
-3.61391e-19
-3.66087e-19
-3.57791e-19
-3.61698e-19
-3.76126e-19
-3.759e-19
-3.81398e-19
-3.66211e-19
-3.69169e-19
-3.388e-19
-2.36439e-19
-2.59335e-19
-2.63646e-19
-2.75919e-19
-2.87834e-19
-3.05838e-19
-3.188e-19
-3.37117e-19
-3.50049e-19
-3.58093e-19
-3.669e-19
-3.55261e-19
-3.58271e-19
-3.7672e-19
-3.73155e-19
-3.76837e-19
-3.73449e-19
-3.69017e-19
-3.4466e-19
-2.18587e-19
-2.37213e-19
-2.57494e-19
-2.63048e-19
-2.77311e-19
-2.86901e-19
-3.05874e-19
-3.19345e-19
-3.35024e-19
-3.51739e-19
-3.56921e-19
-3.68818e-19
-3.55732e-19
-3.55857e-19
-3.71994e-19
-3.72901e-19
-3.82147e-19
-3.74232e-19
-3.67548e-19
-3.36745e-19
-2.19325e-19
-2.3795e-19
-2.54803e-19
-2.63423e-19
-2.78708e-19
-2.89897e-19
-3.05912e-19
-3.17901e-19
-3.34985e-19
-3.5146e-19
-3.62617e-19
-3.63985e-19
-3.5466e-19
-3.55358e-19
-3.75143e-19
-3.71665e-19
-3.75194e-19
-3.72664e-19
-3.60743e-19
-3.40334e-19
-2.23897e-19
-2.40586e-19
-2.54167e-19
-2.63757e-19
-2.77696e-19
-2.87923e-19
-3.07869e-19
-3.17943e-19
-3.34007e-19
-3.45485e-19
-3.61054e-19
-3.64091e-19
-3.52629e-19
-3.59429e-19
-3.75079e-19
-3.68607e-19
-3.73938e-19
-3.68505e-19
-3.62628e-19
-3.35914e-19
-2.20066e-19
-2.37127e-19
-2.51714e-19
-2.64997e-19
-2.76758e-19
-2.89197e-19
-3.07923e-19
-3.19371e-19
-3.34027e-19
-3.45679e-19
-3.60522e-19
-3.62899e-19
-3.52841e-19
-3.57471e-19
-3.70667e-19
-3.70457e-19
-3.68836e-19
-3.74016e-19
-3.65398e-19
-3.36653e-19
-2.22643e-19
-2.37377e-19
-2.5339e-19
-2.63061e-19
-2.75419e-19
-2.86768e-19
-3.08435e-19
-3.18066e-19
-3.32284e-19
-3.44062e-19
-3.57407e-19
-3.60924e-19
-3.55604e-19
-3.53805e-19
-3.69051e-19
-3.74812e-19
-3.72753e-19
-3.69368e-19
-3.61137e-19
-3.38535e-19
-2.2474e-19
-2.37179e-19
-2.5287e-19
-2.6466e-19
-2.75457e-19
-2.87826e-19
-3.06356e-19
-3.1724e-19
-3.34513e-19
-3.42921e-19
-3.52732e-19
-3.56927e-19
-3.58252e-19
-3.5732e-19
-3.69198e-19
-3.73283e-19
-3.70426e-19
-3.66518e-19
-3.66248e-19
-3.31276e-19
-2.23903e-19
-2.38638e-19
-2.52387e-19
-2.65376e-19
-2.76344e-19
-2.88794e-19
-3.06874e-19
-3.18108e-19
-3.35049e-19
-3.44713e-19
-3.55267e-19
-3.52676e-19
-3.54703e-19
-3.55803e-19
-3.70977e-19
-3.71444e-19
-3.75646e-19
-3.65699e-19
-3.62483e-19
-3.30612e-19
-2.26329e-19
-2.4125e-19
-2.53936e-19
-2.64065e-19
-2.78019e-19
-2.89274e-19
-3.07782e-19
-3.18538e-19
-3.33201e-19
-3.42831e-19
-3.58556e-19
-3.55678e-19
-3.50897e-19
-3.57007e-19
-3.68509e-19
-3.68513e-19
-3.73169e-19
-3.67874e-19
-3.62657e-19
-3.35707e-19
-2.23311e-19
-2.42228e-19
-2.53112e-19
-2.65898e-19
-2.78496e-19
-2.89295e-19
-3.08276e-19
-3.18958e-19
-3.31842e-19
-3.4368e-19
-3.5529e-19
-3.58195e-19
-3.53988e-19
-3.56274e-19
-3.67293e-19
-3.73754e-19
-3.71189e-19
-3.65656e-19
-3.59356e-19
-3.31818e-19
-2.23008e-19
-2.39489e-19
-2.52312e-19
-2.65801e-19
-2.78607e-19
-2.88514e-19
-3.09133e-19
-3.19746e-19
-3.33889e-19
-3.46339e-19
-3.54387e-19
-3.56255e-19
-3.55484e-19
-3.5554e-19
-3.68989e-19
-3.68951e-19
-3.72436e-19
-3.65253e-19
-3.5728e-19
-3.33404e-19
-2.22732e-19
-2.40434e-19
-2.52971e-19
-2.66432e-19
-2.78743e-19
-2.89854e-19
-3.07108e-19
-3.18365e-19
-3.348e-19
-3.48194e-19
-3.53896e-19
-3.55805e-19
-3.53442e-19
-3.54442e-19
-3.72371e-19
-3.66027e-19
-3.71662e-19
-3.65859e-19
-3.55341e-19
-3.31676e-19
-2.2825e-19
-2.43402e-19
-2.53939e-19
-2.66016e-19
-2.79239e-19
-2.90408e-19
-3.07569e-19
-3.18753e-19
-3.33649e-19
-3.43542e-19
-3.53098e-19
-3.54383e-19
-3.53805e-19
-3.53994e-19
-3.66538e-19
-3.69979e-19
-3.73516e-19
-3.62348e-19
-3.54773e-19
-3.31216e-19
-2.27056e-19
-2.43646e-19
-2.55187e-19
-2.67257e-19
-2.80066e-19
-2.9057e-19
-3.07682e-19
-3.18476e-19
-3.33227e-19
-3.45258e-19
-3.52361e-19
-3.51747e-19
-3.54785e-19
-3.54476e-19
-3.63803e-19
-3.68192e-19
-3.72586e-19
-3.61096e-19
-3.53087e-19
-3.36022e-19
-2.27482e-19
-2.44206e-19
-2.54189e-19
-2.67818e-19
-2.79e-19
-2.90684e-19
-3.07478e-19
-3.2009e-19
-3.32842e-19
-3.45356e-19
-3.53837e-19
-3.53808e-19
-3.54515e-19
-3.57615e-19
-3.63593e-19
-3.67077e-19
-3.7058e-19
-3.65642e-19
-3.55759e-19
-3.33894e-19
-2.27608e-19
-2.45945e-19
-2.54119e-19
-2.66574e-19
-2.78598e-19
-2.9046e-19
-3.08768e-19
-3.19265e-19
-3.31893e-19
-3.45457e-19
-3.52625e-19
-3.56061e-19
-3.53098e-19
-3.55728e-19
-3.65668e-19
-3.6714e-19
-3.6925e-19
-3.59318e-19
-3.56713e-19
-3.32387e-19
-2.28861e-19
-2.47062e-19
-2.54604e-19
-2.66246e-19
-2.7965e-19
-2.90495e-19
-3.08866e-19
-3.19622e-19
-3.3184e-19
-3.44726e-19
-3.5232e-19
-3.54072e-19
-3.52834e-19
-3.56903e-19
-3.64166e-19
-3.65072e-19
-3.70121e-19
-3.62113e-19
-3.57415e-19
-3.29167e-19
-2.31388e-19
-2.46283e-19
-2.54516e-19
-2.65664e-19
-2.7906e-19
-2.90759e-19
-3.08963e-19
-3.20507e-19
-3.32331e-19
-3.43249e-19
-3.50991e-19
-3.52982e-19
-3.5153e-19
-3.5852e-19
-3.64798e-19
-3.66373e-19
-3.72466e-19
-3.65239e-19
-3.5886e-19
-3.3357e-19
-2.32795e-19
-2.45563e-19
-2.54678e-19
-2.65871e-19
-2.7979e-19
-2.91229e-19
-3.08549e-19
-3.19337e-19
-3.3205e-19
-3.43111e-19
-3.4975e-19
-3.5221e-19
-3.52971e-19
-3.55196e-19
-3.66844e-19
-3.65219e-19
-3.69677e-19
-3.6091e-19
-3.55711e-19
-3.31867e-19
-2.32263e-19
-2.46078e-19
-2.54824e-19
-2.65821e-19
-2.79069e-19
-2.90687e-19
-3.08399e-19
-3.18483e-19
-3.32269e-19
-3.42753e-19
-3.50932e-19
-3.52184e-19
-3.549e-19
-3.54103e-19
-3.64515e-19
-3.63455e-19
-3.70934e-19
-3.61932e-19
-3.54718e-19
-3.32242e-19
-2.31792e-19
-2.46793e-19
-2.54289e-19
-2.66551e-19
-2.79418e-19
-2.90373e-19
-3.08484e-19
-3.19801e-19
-3.3249e-19
-3.43412e-19
-3.50849e-19
-3.53025e-19
-3.54774e-19
-3.5572e-19
-3.63734e-19
-3.62826e-19
-3.7009e-19
-3.61162e-19
-3.55518e-19
-3.33554e-19
-2.33017e-19
-2.46752e-19
-2.54504e-19
-2.66607e-19
-2.79658e-19
-2.90363e-19
-3.08668e-19
-3.20521e-19
-3.3281e-19
-3.43106e-19
-3.50069e-19
-3.53709e-19
-3.55462e-19
-3.55922e-19
-3.63419e-19
-3.62806e-19
-3.68001e-19
-3.59497e-19
-3.57035e-19
-3.33757e-19
-2.33795e-19
-2.47299e-19
-2.54406e-19
-2.66561e-19
-2.79708e-19
-2.9013e-19
-3.08935e-19
-3.20528e-19
-3.32066e-19
-3.42066e-19
-3.50485e-19
-3.5266e-19
-3.5508e-19
-3.55268e-19
-3.61964e-19
-3.63403e-19
-3.70249e-19
-3.60559e-19
-3.56502e-19
-3.33001e-19
-2.3401e-19
-2.47639e-19
-2.55011e-19
-2.66605e-19
-2.79509e-19
-2.89976e-19
-3.09006e-19
-3.20282e-19
-3.31918e-19
-3.41634e-19
-3.49577e-19
-3.52557e-19
-3.54478e-19
-3.55921e-19
-3.62889e-19
-3.63941e-19
-3.68692e-19
-3.59524e-19
-3.56915e-19
-3.33375e-19
-2.34546e-19
-2.47317e-19
-2.55394e-19
-2.66642e-19
-2.79346e-19
-2.9021e-19
-3.09073e-19
-3.20069e-19
-3.32034e-19
-3.414e-19
-3.49233e-19
-3.527e-19
-3.55175e-19
-3.55581e-19
-3.64049e-19
-3.633e-19
-3.67222e-19
-3.59518e-19
-3.5639e-19
-3.32498e-19
-2.34688e-19
-2.4747e-19
-2.55298e-19
-2.66745e-19
-2.79362e-19
-2.90103e-19
-3.08916e-19
-3.20542e-19
-3.31423e-19
-3.4126e-19
-3.49358e-19
-3.52547e-19
-3.54964e-19
-3.54981e-19
-3.63185e-19
-3.62781e-19
-3.6705e-19
-3.601e-19
-3.5673e-19
-3.32326e-19
-2.34766e-19
-2.47288e-19
-2.55467e-19
-2.66703e-19
-2.7946e-19
-2.90178e-19
-3.08974e-19
-3.20651e-19
-3.31664e-19
-3.41135e-19
-3.49671e-19
-3.52412e-19
-3.54274e-19
-3.54992e-19
-3.6261e-19
-3.62551e-19
-3.67698e-19
-3.59429e-19
-3.56511e-19
-3.32846e-19
-2.34676e-19
-2.47248e-19
-2.55553e-19
-2.66661e-19
-2.79446e-19
-2.90397e-19
-3.09085e-19
-3.20527e-19
-3.31655e-19
-3.41253e-19
-3.49873e-19
-3.52436e-19
-3.54478e-19
-3.55826e-19
-3.63102e-19
-3.62474e-19
-3.6706e-19
-3.59511e-19
-3.56371e-19
-3.33037e-19
-2.34984e-19
-2.47371e-19
-2.55804e-19
-2.66647e-19
-2.79528e-19
-2.90413e-19
-3.09312e-19
-3.20301e-19
-3.31527e-19
-3.409e-19
-3.49254e-19
-3.52533e-19
-3.54733e-19
-3.55939e-19
-3.62917e-19
-3.624e-19
-3.66965e-19
-3.59648e-19
-3.56551e-19
-3.33078e-19
-2.34906e-19
-2.47571e-19
-2.55974e-19
-2.66696e-19
-2.79591e-19
-2.9045e-19
-3.09221e-19
-3.20269e-19
-3.3138e-19
-3.40747e-19
-3.49138e-19
-3.52401e-19
-3.54806e-19
-3.55538e-19
-3.62618e-19
-3.62076e-19
-3.67084e-19
-3.59126e-19
-3.56838e-19
-3.33201e-19
-2.3469e-19
-2.475e-19
-2.55983e-19
-2.66637e-19
-2.79661e-19
-2.9048e-19
-3.09203e-19
-3.20365e-19
-3.31374e-19
-3.40898e-19
-3.49345e-19
-3.52401e-19
-3.54964e-19
-3.55442e-19
-3.62664e-19
-3.6208e-19
-3.67186e-19
-3.59235e-19
-3.56388e-19
-3.32962e-19
-2.34891e-19
-2.47557e-19
-2.55963e-19
-2.66543e-19
-2.7959e-19
-2.90487e-19
-3.0927e-19
-3.20366e-19
-3.31312e-19
-3.41009e-19
-3.49121e-19
-3.52513e-19
-3.54731e-19
-3.55777e-19
-3.6255e-19
-3.62487e-19
-3.66866e-19
-3.59431e-19
-3.56116e-19
-3.33099e-19
-2.35036e-19
-2.47495e-19
-2.55905e-19
-2.66606e-19
-2.79571e-19
-2.90542e-19
-3.0924e-19
-3.20396e-19
-3.31359e-19
-3.40982e-19
-3.49133e-19
-3.52509e-19
-3.54709e-19
-3.56004e-19
-3.62829e-19
-3.6246e-19
-3.66928e-19
-3.59306e-19
-3.56281e-19
-3.33159e-19
-2.35075e-19
-2.47422e-19
-2.55908e-19
-2.66652e-19
-2.79575e-19
-2.90569e-19
-3.09222e-19
-3.20375e-19
-3.31387e-19
-3.40911e-19
-3.49157e-19
-3.52604e-19
-3.54806e-19
-3.55787e-19
-3.62858e-19
-3.62272e-19
-3.66866e-19
-3.59229e-19
-3.56278e-19
-3.33167e-19
-2.35049e-19
-2.47527e-19
-2.55956e-19
-2.66645e-19
-2.79612e-19
-2.90535e-19
-3.09215e-19
-3.20382e-19
-3.31343e-19
-3.40841e-19
-3.49147e-19
-3.52631e-19
-3.54908e-19
-3.55739e-19
-3.62726e-19
-3.62277e-19
-3.66806e-19
-3.59224e-19
-3.56277e-19
-3.33163e-19
-3.39379e-19
-3.41713e-19
-3.41542e-19
-3.41059e-19
-3.39511e-19
-3.3884e-19
-3.40059e-19
-3.39942e-19
-3.40562e-19
-3.39356e-19
-3.38871e-19
-3.38472e-19
-3.37616e-19
-3.38628e-19
-3.39391e-19
-3.38153e-19
-3.37558e-19
-3.37331e-19
-3.37505e-19
-3.37611e-19
-3.3722e-19
-3.37217e-19
-3.37291e-19
-3.37525e-19
-3.37519e-19
-3.37448e-19
-3.37451e-19
-3.37416e-19
-3.37443e-19
-3.37477e-19
-3.54648e-19
-3.52138e-19
-3.51441e-19
-3.51229e-19
-3.51078e-19
-3.47657e-19
-3.45846e-19
-3.46194e-19
-3.45896e-19
-3.4564e-19
-3.46017e-19
-3.45565e-19
-3.44633e-19
-3.4453e-19
-3.43743e-19
-3.43465e-19
-3.42709e-19
-3.43072e-19
-3.42981e-19
-3.4259e-19
-3.42974e-19
-3.42549e-19
-3.42414e-19
-3.42433e-19
-3.42503e-19
-3.42401e-19
-3.42396e-19
-3.42307e-19
-3.42227e-19
-3.42283e-19
-3.50074e-19
-3.50465e-19
-3.47924e-19
-3.48655e-19
-3.4706e-19
-3.44037e-19
-3.41825e-19
-3.45792e-19
-3.4342e-19
-3.42696e-19
-3.42003e-19
-3.42173e-19
-3.43388e-19
-3.43283e-19
-3.42242e-19
-3.4116e-19
-3.41893e-19
-3.42384e-19
-3.4214e-19
-3.42e-19
-3.41948e-19
-3.41838e-19
-3.41515e-19
-3.41688e-19
-3.41664e-19
-3.41419e-19
-3.41398e-19
-3.41361e-19
-3.41376e-19
-3.41409e-19
-3.48207e-19
-3.52173e-19
-3.4905e-19
-3.44491e-19
-3.46241e-19
-3.45763e-19
-3.44998e-19
-3.44655e-19
-3.44359e-19
-3.41637e-19
-3.41997e-19
-3.41534e-19
-3.41906e-19
-3.42275e-19
-3.40534e-19
-3.40119e-19
-3.4046e-19
-3.39658e-19
-3.40231e-19
-3.40287e-19
-3.39846e-19
-3.39202e-19
-3.39092e-19
-3.39529e-19
-3.395e-19
-3.39218e-19
-3.39415e-19
-3.39372e-19
-3.39331e-19
-3.39327e-19
-3.35216e-19
-3.37647e-19
-3.40805e-19
-3.36752e-19
-3.33604e-19
-3.34573e-19
-3.33392e-19
-3.33581e-19
-3.37275e-19
-3.34397e-19
-3.31663e-19
-3.33199e-19
-3.33866e-19
-3.34246e-19
-3.33909e-19
-3.3295e-19
-3.32262e-19
-3.33125e-19
-3.33148e-19
-3.32857e-19
-3.3281e-19
-3.32834e-19
-3.33055e-19
-3.32753e-19
-3.32776e-19
-3.3276e-19
-3.32606e-19
-3.32539e-19
-3.32461e-19
-3.32498e-19
-3.2975e-19
-3.24895e-19
-3.27567e-19
-3.31335e-19
-3.2785e-19
-3.25995e-19
-3.27714e-19
-3.27064e-19
-3.23924e-19
-3.24567e-19
-3.26637e-19
-3.25615e-19
-3.27007e-19
-3.25412e-19
-3.24267e-19
-3.24276e-19
-3.2359e-19
-3.24074e-19
-3.24695e-19
-3.24023e-19
-3.24262e-19
-3.2505e-19
-3.24883e-19
-3.24346e-19
-3.2429e-19
-3.24244e-19
-3.24396e-19
-3.24492e-19
-3.24385e-19
-3.24261e-19
-3.10121e-19
-3.10717e-19
-3.10901e-19
-3.07677e-19
-3.0937e-19
-3.10188e-19
-3.10171e-19
-3.10473e-19
-3.11772e-19
-3.12663e-19
-3.12232e-19
-3.09094e-19
-3.10935e-19
-3.0967e-19
-3.08183e-19
-3.11836e-19
-3.13202e-19
-3.117e-19
-3.11575e-19
-3.12546e-19
-3.12412e-19
-3.13356e-19
-3.13368e-19
-3.13746e-19
-3.13241e-19
-3.13301e-19
-3.13817e-19
-3.14016e-19
-3.1378e-19
-3.1363e-19
-3.13714e-19
-3.13871e-19
-3.03616e-19
-3.01632e-19
-3.02231e-19
-2.95234e-19
-2.90654e-19
-2.93886e-19
-2.82287e-19
-2.94004e-19
-2.94853e-19
-2.94071e-19
-2.93349e-19
-2.87652e-19
-2.81801e-19
-2.88033e-19
-2.95215e-19
-2.94767e-19
-2.95561e-19
-2.96239e-19
-2.96805e-19
-2.97232e-19
-2.97566e-19
-2.9911e-19
-2.98236e-19
-2.9853e-19
-2.99903e-19
-3.01252e-19
-2.96294e-19
-2.94543e-19
-2.9824e-19
-2.94636e-19
-2.94322e-19
-3.00062e-19
-3.02056e-19
-3.01422e-19
-2.99922e-19
-3.02621e-19
-3.03282e-19
-3.01728e-19
-3.0255e-19
-3.03916e-19
-3.06422e-19
-3.06992e-19
-3.04682e-19
-3.05686e-19
-3.0432e-19
-3.03969e-19
-3.05748e-19
-3.06115e-19
-3.06436e-19
-3.07984e-19
-3.07061e-19
-3.05824e-19
-3.06546e-19
-3.0693e-19
-3.06955e-19
-3.06962e-19
-3.07168e-19
-3.07114e-19
-3.07195e-19
-3.06853e-19
-3.06948e-19
-3.0706e-19
-3.18825e-19
-3.14976e-19
-3.17835e-19
-3.15119e-19
-3.14789e-19
-3.18848e-19
-3.21736e-19
-3.18367e-19
-3.10232e-19
-3.15761e-19
-3.26299e-19
-3.29192e-19
-3.23418e-19
-3.36694e-19
-3.31329e-19
-3.31048e-19
-3.24476e-19
-3.26806e-19
-3.29561e-19
-3.26302e-19
-3.1731e-19
-3.18561e-19
-3.17733e-19
-3.20657e-19
-3.14906e-19
-3.11619e-19
-3.117e-19
-3.13967e-19
-3.13409e-19
-3.15417e-19
-3.19831e-19
-3.11938e-19
-3.07395e-19
-3.15003e-19
-3.15302e-19
-3.1647e-19
-3.10724e-19
-3.15127e-19
-3.16397e-19
-3.10911e-19
-3.11284e-19
-3.11093e-19
-3.09824e-19
-3.11307e-19
-3.09724e-19
-3.10396e-19
-3.11948e-19
-3.10519e-19
-3.10376e-19
-3.09634e-19
-3.08722e-19
-3.09025e-19
-3.09243e-19
-3.09327e-19
-3.09302e-19
-3.09338e-19
-3.09629e-19
-3.0958e-19
-3.09151e-19
-3.09149e-19
-3.09325e-19
-3.09312e-19
-3.03198e-19
-3.07153e-19
-3.12693e-19
-3.15816e-19
-3.05306e-19
-3.0198e-19
-3.07048e-19
-3.21865e-19
-3.30945e-19
-3.21697e-19
-3.12628e-19
-3.12768e-19
-3.09277e-19
-3.06993e-19
-3.10123e-19
-3.01439e-19
-2.96578e-19
-3.06098e-19
-3.08429e-19
-3.06596e-19
-3.00843e-19
-2.97373e-19
-2.96043e-19
-3.024e-19
-3.08365e-19
-2.99198e-19
-2.98472e-19
-3.01117e-19
-2.94394e-19
-2.99469e-19
-2.99754e-19
-3.04284e-19
-3.00618e-19
-3.02339e-19
-3.01187e-19
-3.02274e-19
-3.03265e-19
-3.02097e-19
-3.02936e-19
-3.0082e-19
-3.01499e-19
-3.02977e-19
-3.03532e-19
-3.04816e-19
-3.01792e-19
-3.03952e-19
-3.02553e-19
-3.03274e-19
-3.05166e-19
-3.02746e-19
-3.04157e-19
-3.05505e-19
-3.05644e-19
-3.04919e-19
-3.05471e-19
-3.05502e-19
-3.05314e-19
-3.05162e-19
-3.05441e-19
-3.05352e-19
-3.05396e-19
-3.05441e-19
-3.22129e-19
-3.14356e-19
-3.22573e-19
-3.22684e-19
-3.26525e-19
-3.30376e-19
-3.37894e-19
-3.36804e-19
-3.27306e-19
-3.3278e-19
-3.41438e-19
-3.37533e-19
-3.26227e-19
-3.21209e-19
-3.20671e-19
-3.28537e-19
-3.28115e-19
-3.25325e-19
-3.18977e-19
-3.19182e-19
-3.20715e-19
-3.15277e-19
-3.136e-19
-3.14305e-19
-3.07435e-19
-3.03846e-19
-3.11567e-19
-3.03268e-19
-3.00964e-19
-3.01976e-19
-3.05598e-19
-2.9914e-19
-3.02879e-19
-3.05258e-19
-3.05633e-19
-3.02282e-19
-3.03353e-19
-3.03332e-19
-3.0231e-19
-3.05727e-19
-3.0688e-19
-3.02233e-19
-3.08455e-19
-3.0556e-19
-3.02576e-19
-3.06917e-19
-3.05467e-19
-3.05528e-19
-3.0822e-19
-3.06535e-19
-3.07072e-19
-3.06909e-19
-3.063e-19
-3.06881e-19
-3.06712e-19
-3.06493e-19
-3.06937e-19
-3.06771e-19
-3.06507e-19
-3.06802e-19
-3.06824e-19
-3.06769e-19
-3.35918e-19
-3.35269e-19
-3.35004e-19
-3.36741e-19
-3.46032e-19
-3.49825e-19
-3.42913e-19
-3.41429e-19
-3.41681e-19
-3.4055e-19
-3.50802e-19
-3.48419e-19
-3.41708e-19
-3.36823e-19
-3.40796e-19
-3.39289e-19
-3.27156e-19
-3.15304e-19
-3.22838e-19
-3.18834e-19
-3.13579e-19
-3.15363e-19
-3.18139e-19
-3.1639e-19
-3.21123e-19
-3.16359e-19
-3.12709e-19
-3.09096e-19
-3.08903e-19
-3.14185e-19
-3.10895e-19
-3.06829e-19
-3.09489e-19
-3.02473e-19
-3.04052e-19
-3.06595e-19
-3.0795e-19
-3.08542e-19
-3.10069e-19
-3.10274e-19
-3.11344e-19
-3.08392e-19
-3.07463e-19
-3.06805e-19
-3.05423e-19
-3.08537e-19
-3.09624e-19
-3.0903e-19
-3.07447e-19
-3.08107e-19
-3.07513e-19
-3.07888e-19
-3.07558e-19
-3.07801e-19
-3.07924e-19
-3.07716e-19
-3.07398e-19
-3.07813e-19
-3.08081e-19
-3.07904e-19
-3.07901e-19
-3.07908e-19
-3.54307e-19
-3.3844e-19
-3.46271e-19
-3.49966e-19
-3.51802e-19
-3.59094e-19
-3.45355e-19
-3.47526e-19
-3.38001e-19
-3.41565e-19
-3.49688e-19
-3.46845e-19
-3.44205e-19
-3.43255e-19
-3.35347e-19
-3.26153e-19
-3.33023e-19
-3.33104e-19
-3.37028e-19
-3.35944e-19
-3.30184e-19
-3.29286e-19
-3.22748e-19
-3.25047e-19
-3.30388e-19
-3.3608e-19
-3.2674e-19
-3.18692e-19
-3.24414e-19
-3.20896e-19
-3.2357e-19
-3.20658e-19
-3.21925e-19
-3.26277e-19
-3.2448e-19
-3.18068e-19
-3.21338e-19
-3.19447e-19
-3.20843e-19
-3.21255e-19
-3.16368e-19
-3.18387e-19
-3.1976e-19
-3.22824e-19
-3.18363e-19
-3.19987e-19
-3.19616e-19
-3.18381e-19
-3.18501e-19
-3.19364e-19
-3.19223e-19
-3.20153e-19
-3.20354e-19
-3.19815e-19
-3.20286e-19
-3.20247e-19
-3.20152e-19
-3.2021e-19
-3.20335e-19
-3.20235e-19
-3.20152e-19
-3.20216e-19
)
;

boundaryField
{
    inlet
    {
        type            cyclic;
    }
    outlet
    {
        type            cyclic;
    }
    wall
    {
        type            zeroGradient;
    }
    procBoundary2to0
    {
        type            processor;
        value           nonuniform List<scalar> 
30
(
-3.38437e-19
-3.40712e-19
-3.39926e-19
-3.38717e-19
-3.38278e-19
-3.37805e-19
-3.39806e-19
-3.38939e-19
-3.38396e-19
-3.38461e-19
-3.36994e-19
-3.36694e-19
-3.36373e-19
-3.36542e-19
-3.36433e-19
-3.36193e-19
-3.35947e-19
-3.35605e-19
-3.35363e-19
-3.3521e-19
-3.3528e-19
-3.35137e-19
-3.35005e-19
-3.3478e-19
-3.34827e-19
-3.34829e-19
-3.34778e-19
-3.34794e-19
-3.34804e-19
-3.34789e-19
)
;
    }
    procBoundary2to1
    {
        type            processor;
        value           nonuniform List<scalar> 
39
(
-3.39068e-19
-3.53428e-19
-3.49091e-19
-3.4534e-19
-3.34713e-19
-3.29629e-19
-3.30139e-19
-3.30139e-19
-2.98323e-19
-2.99744e-19
-2.96503e-19
-2.86523e-19
-2.87444e-19
-2.95031e-19
-2.98109e-19
-3.02499e-19
-3.03049e-19
-2.93023e-19
-2.99449e-19
-3.02116e-19
-3.02932e-19
-3.08149e-19
-3.0248e-19
-2.93711e-19
-2.98963e-19
-3.0647e-19
-3.1077e-19
-3.05614e-19
-3.06653e-19
-3.04955e-19
-3.10207e-19
-3.06945e-19
-3.09173e-19
-3.06697e-19
-3.03023e-19
-3.06432e-19
-3.08545e-19
-3.09456e-19
-3.09456e-19
)
;
    }
    procBoundary2to3
    {
        type            processor;
        value           nonuniform List<scalar> 
60
(
-2.52397e-19
-2.46795e-19
-2.54614e-19
-2.40478e-19
-2.30498e-19
-2.3637e-19
-2.38645e-19
-2.38645e-19
-2.24933e-19
-2.29158e-19
-2.28298e-19
-2.22647e-19
-2.22771e-19
-2.21122e-19
-2.20557e-19
-2.18317e-19
-2.22473e-19
-2.19817e-19
-2.19513e-19
-2.18977e-19
-2.18237e-19
-2.19675e-19
-2.16459e-19
-2.17507e-19
-2.18397e-19
-2.18397e-19
-2.16202e-19
-2.1355e-19
-2.09435e-19
-2.1082e-19
-2.16013e-19
-2.20063e-19
-2.18097e-19
-2.14506e-19
-2.1706e-19
-2.17956e-19
-2.18379e-19
-2.19395e-19
-2.20946e-19
-2.21427e-19
-2.22406e-19
-2.2189e-19
-2.22923e-19
-2.24833e-19
-2.24236e-19
-2.2395e-19
-2.24551e-19
-2.24023e-19
-2.24706e-19
-2.25288e-19
-2.25275e-19
-2.25037e-19
-2.24796e-19
-2.25186e-19
-2.25307e-19
-2.25111e-19
-2.25297e-19
-2.25341e-19
-2.25376e-19
-2.25365e-19
)
;
    }
    procBoundary2to5
    {
        type            processor;
        value           nonuniform List<scalar> 
28
(
-3.87335e-19
-3.75996e-19
-3.7831e-19
-3.73154e-19
-3.9936e-19
-3.9509e-19
-3.83261e-19
-3.52589e-19
-3.60322e-19
-3.11615e-19
-3.13843e-19
-3.20294e-19
-3.224e-19
-3.68482e-19
-3.66175e-19
-3.65347e-19
-3.65347e-19
-2.66608e-19
-2.78196e-19
-2.92717e-19
-2.92717e-19
-2.55092e-19
-3.12414e-19
-3.16713e-19
-3.00313e-19
-3.21412e-19
-3.39686e-19
-3.58068e-19
)
;
    }
}


// ************************************************************************* //
