/*--------------------------------*- C++ -*----------------------------------*\
  =========                 |
  \\      /  F ield         | OpenFOAM: The Open Source CFD Toolbox
   \\    /   O peration     | Website:  https://openfoam.org
    \\  /    A nd           | Version:  7
     \\/     M anipulation  |
\*---------------------------------------------------------------------------*/
FoamFile
{
    version     2.0;
    format      ascii;
    class       volScalarField;
    location    "136000";
    object      nu;
}
// * * * * * * * * * * * * * * * * * * * * * * * * * * * * * * * * * * * * * //

dimensions      [0 2 -1 0 0 0 0];

internalField   nonuniform List<scalar> 
4814
(
2.57476e-06
2.58192e-06
2.58842e-06
2.59424e-06
2.37157e-06
2.38514e-06
2.39819e-06
2.41092e-06
2.42332e-06
2.43536e-06
2.44701e-06
2.45824e-06
2.46904e-06
2.47936e-06
2.48919e-06
2.49849e-06
2.50723e-06
2.51539e-06
2.52295e-06
2.5299e-06
2.5362e-06
2.54185e-06
2.54683e-06
2.55112e-06
2.55471e-06
2.5576e-06
2.55977e-06
2.56122e-06
2.56195e-06
2.56195e-06
2.56122e-06
2.55977e-06
2.5576e-06
2.55471e-06
2.55112e-06
2.54683e-06
2.54185e-06
2.5362e-06
2.32526e-06
2.3384e-06
2.35104e-06
2.36338e-06
2.37539e-06
2.38705e-06
2.39833e-06
2.40922e-06
2.41968e-06
2.42969e-06
2.43922e-06
2.44823e-06
2.4567e-06
2.46461e-06
2.47195e-06
2.47868e-06
2.48479e-06
2.49027e-06
2.49509e-06
2.49925e-06
2.50274e-06
2.50554e-06
2.50764e-06
2.50905e-06
2.50976e-06
2.50976e-06
2.50905e-06
2.50764e-06
2.50554e-06
2.50274e-06
2.49925e-06
2.49509e-06
2.49027e-06
2.48479e-06
2.47868e-06
2.47195e-06
2.46462e-06
2.4567e-06
2.44823e-06
2.43922e-06
2.42969e-06
2.27971e-06
2.29243e-06
2.30466e-06
2.3166e-06
2.32823e-06
2.33952e-06
2.35045e-06
2.36099e-06
2.37112e-06
2.38081e-06
2.39004e-06
2.39876e-06
2.40697e-06
2.41464e-06
2.42174e-06
2.42826e-06
2.43419e-06
2.43949e-06
2.44417e-06
2.4482e-06
2.45157e-06
2.45429e-06
2.45633e-06
2.45769e-06
2.45838e-06
2.45838e-06
2.45769e-06
2.45633e-06
2.45429e-06
2.45157e-06
2.4482e-06
2.44417e-06
2.43949e-06
2.43419e-06
2.42827e-06
2.42174e-06
2.41464e-06
2.40697e-06
2.39877e-06
2.39004e-06
2.38081e-06
2.37112e-06
2.36098e-06
2.35045e-06
2.23494e-06
2.24723e-06
2.25906e-06
2.27061e-06
2.28186e-06
2.29278e-06
2.30335e-06
2.31355e-06
2.32335e-06
2.33273e-06
2.34166e-06
2.3501e-06
2.35805e-06
2.36547e-06
2.37235e-06
2.37866e-06
2.38439e-06
2.38953e-06
2.39405e-06
2.39796e-06
2.40123e-06
2.40385e-06
2.40583e-06
2.40715e-06
2.40781e-06
2.40781e-06
2.40715e-06
2.40583e-06
2.40385e-06
2.40123e-06
2.39796e-06
2.39405e-06
2.38953e-06
2.38439e-06
2.37866e-06
2.37235e-06
2.36547e-06
2.35805e-06
2.35011e-06
2.34166e-06
2.33273e-06
2.32335e-06
2.31354e-06
2.30335e-06
2.19095e-06
2.20282e-06
2.21425e-06
2.22541e-06
2.23628e-06
2.24683e-06
2.25705e-06
2.26691e-06
2.27638e-06
2.28545e-06
2.29408e-06
2.30225e-06
2.30993e-06
2.31711e-06
2.32376e-06
2.32987e-06
2.33541e-06
2.34038e-06
2.34476e-06
2.34853e-06
2.3517e-06
2.35424e-06
2.35615e-06
2.35743e-06
2.35807e-06
2.35807e-06
2.35743e-06
2.35615e-06
2.35424e-06
2.3517e-06
2.34854e-06
2.34476e-06
2.34038e-06
2.33541e-06
2.32987e-06
2.32376e-06
2.31711e-06
2.30994e-06
2.30225e-06
2.29408e-06
2.28545e-06
2.27638e-06
2.2669e-06
2.25705e-06
2.14774e-06
2.15919e-06
2.17023e-06
2.181e-06
2.19149e-06
2.20168e-06
2.21155e-06
2.22107e-06
2.23022e-06
2.23898e-06
2.24732e-06
2.25521e-06
2.26263e-06
2.26957e-06
2.276e-06
2.2819e-06
2.28725e-06
2.29206e-06
2.29629e-06
2.29994e-06
2.30299e-06
2.30545e-06
2.3073e-06
2.30853e-06
2.30915e-06
2.30915e-06
2.30854e-06
2.3073e-06
2.30545e-06
2.30299e-06
2.29994e-06
2.29629e-06
2.29206e-06
2.28726e-06
2.2819e-06
2.276e-06
2.26957e-06
2.26264e-06
2.25521e-06
2.24732e-06
2.23898e-06
2.23022e-06
2.22107e-06
2.21155e-06
2.10533e-06
2.11637e-06
2.12701e-06
2.1374e-06
2.14751e-06
2.15734e-06
2.16686e-06
2.17604e-06
2.18488e-06
2.19333e-06
2.20138e-06
2.20899e-06
2.21616e-06
2.22285e-06
2.22905e-06
2.23475e-06
2.23993e-06
2.24456e-06
2.24865e-06
2.25217e-06
2.25512e-06
2.25749e-06
2.25928e-06
2.26047e-06
2.26107e-06
2.26107e-06
2.26047e-06
2.25928e-06
2.2575e-06
2.25512e-06
2.25217e-06
2.24865e-06
2.24456e-06
2.23993e-06
2.23475e-06
2.22906e-06
2.22285e-06
2.21616e-06
2.20899e-06
2.20138e-06
2.19333e-06
2.18488e-06
2.17604e-06
2.16686e-06
2.15734e-06
2.06372e-06
2.07435e-06
2.0846e-06
2.0946e-06
2.10435e-06
2.11382e-06
2.12299e-06
2.13184e-06
2.14036e-06
2.14851e-06
2.15626e-06
2.1636e-06
2.17051e-06
2.17697e-06
2.18295e-06
2.18844e-06
2.19343e-06
2.19791e-06
2.20185e-06
2.20524e-06
2.20809e-06
2.21038e-06
2.2121e-06
2.21325e-06
2.21383e-06
2.21383e-06
2.21325e-06
2.2121e-06
2.21038e-06
2.20809e-06
2.20524e-06
2.20185e-06
2.19791e-06
2.19343e-06
2.18844e-06
2.18295e-06
2.17697e-06
2.17051e-06
2.16361e-06
2.15626e-06
2.14851e-06
2.14036e-06
2.13184e-06
2.12299e-06
2.11382e-06
2.02293e-06
2.03315e-06
2.04301e-06
2.05263e-06
2.06201e-06
2.07112e-06
2.07995e-06
2.08847e-06
2.09667e-06
2.10452e-06
2.11199e-06
2.11906e-06
2.12571e-06
2.13192e-06
2.13769e-06
2.14298e-06
2.14779e-06
2.1521e-06
2.15589e-06
2.15917e-06
2.16191e-06
2.16412e-06
2.16577e-06
2.16688e-06
2.16744e-06
2.16744e-06
2.16689e-06
2.16578e-06
2.16412e-06
2.16191e-06
2.15917e-06
2.15589e-06
2.1521e-06
2.14779e-06
2.14298e-06
2.13769e-06
2.13193e-06
2.12571e-06
2.11906e-06
2.11199e-06
2.10452e-06
2.09667e-06
2.08847e-06
2.07995e-06
2.07112e-06
1.98296e-06
1.99278e-06
2.00225e-06
2.01149e-06
2.02051e-06
2.02927e-06
2.03775e-06
2.04595e-06
2.05383e-06
2.06137e-06
2.06856e-06
2.07536e-06
2.08176e-06
2.08774e-06
2.09328e-06
2.09837e-06
2.103e-06
2.10715e-06
2.1108e-06
2.11395e-06
2.11659e-06
2.11871e-06
2.12031e-06
2.12138e-06
2.12191e-06
2.12191e-06
2.12138e-06
2.12031e-06
2.11871e-06
2.11659e-06
2.11395e-06
2.1108e-06
2.10715e-06
2.103e-06
2.09838e-06
2.09328e-06
2.08774e-06
2.08176e-06
2.07536e-06
2.06856e-06
2.06137e-06
2.05383e-06
2.04594e-06
2.03775e-06
2.02927e-06
1.94383e-06
1.95324e-06
1.96233e-06
1.9712e-06
1.97985e-06
1.98826e-06
1.99641e-06
2.00427e-06
2.01185e-06
2.01909e-06
2.02599e-06
2.03252e-06
2.03867e-06
2.04442e-06
2.04974e-06
2.05464e-06
2.05908e-06
2.06307e-06
2.06658e-06
2.06961e-06
2.07215e-06
2.07419e-06
2.07572e-06
2.07675e-06
2.07726e-06
2.07726e-06
2.07675e-06
2.07572e-06
2.07419e-06
2.07215e-06
2.06961e-06
2.06658e-06
2.06307e-06
2.05908e-06
2.05464e-06
2.04975e-06
2.04442e-06
2.03867e-06
2.03252e-06
2.02599e-06
2.01909e-06
2.01185e-06
2.00427e-06
1.99641e-06
1.90555e-06
1.91457e-06
1.92327e-06
1.93177e-06
1.94006e-06
1.94812e-06
1.95593e-06
1.96347e-06
1.97073e-06
1.97768e-06
1.9843e-06
1.99057e-06
1.99646e-06
2.00198e-06
2.00709e-06
2.01178e-06
2.01605e-06
2.01987e-06
2.02324e-06
2.02615e-06
2.02859e-06
2.03055e-06
2.03202e-06
2.033e-06
2.0335e-06
2.0335e-06
2.033e-06
2.03202e-06
2.03055e-06
2.02859e-06
2.02615e-06
2.02324e-06
2.01987e-06
2.01605e-06
2.01178e-06
2.00709e-06
2.00198e-06
1.99646e-06
1.99057e-06
1.9843e-06
1.97768e-06
1.97073e-06
1.96347e-06
1.95593e-06
1.86814e-06
1.87676e-06
1.88509e-06
1.89322e-06
1.90115e-06
1.90886e-06
1.91634e-06
1.92356e-06
1.93051e-06
1.93716e-06
1.9435e-06
1.9495e-06
1.95515e-06
1.96043e-06
1.96533e-06
1.96983e-06
1.97392e-06
1.97758e-06
1.98081e-06
1.9836e-06
1.98593e-06
1.98781e-06
1.98922e-06
1.99016e-06
1.99064e-06
1.99064e-06
1.99017e-06
1.98922e-06
1.98781e-06
1.98593e-06
1.9836e-06
1.98081e-06
1.97758e-06
1.97392e-06
1.96983e-06
1.96533e-06
1.96043e-06
1.95515e-06
1.9495e-06
1.9435e-06
1.93716e-06
1.93051e-06
1.92356e-06
1.91634e-06
1.83162e-06
1.83984e-06
1.84779e-06
1.85556e-06
1.86313e-06
1.8705e-06
1.87765e-06
1.88454e-06
1.89119e-06
1.89755e-06
1.90361e-06
1.90935e-06
1.91475e-06
1.9198e-06
1.92448e-06
1.92879e-06
1.9327e-06
1.93621e-06
1.9393e-06
1.94196e-06
1.9442e-06
1.94599e-06
1.94734e-06
1.94825e-06
1.9487e-06
1.9487e-06
1.94825e-06
1.94734e-06
1.94599e-06
1.9442e-06
1.94196e-06
1.9393e-06
1.9362e-06
1.9327e-06
1.92879e-06
1.92449e-06
1.9198e-06
1.91475e-06
1.90935e-06
1.90361e-06
1.89755e-06
1.89119e-06
1.88454e-06
1.87764e-06
1.79599e-06
1.80383e-06
1.8114e-06
1.8188e-06
1.82603e-06
1.83305e-06
1.83987e-06
1.84645e-06
1.85279e-06
1.85886e-06
1.86464e-06
1.87012e-06
1.87528e-06
1.8801e-06
1.88457e-06
1.88868e-06
1.89242e-06
1.89577e-06
1.89872e-06
1.90126e-06
1.9034e-06
1.90511e-06
1.9064e-06
1.90727e-06
1.9077e-06
1.9077e-06
1.90727e-06
1.9064e-06
1.90511e-06
1.9034e-06
1.90126e-06
1.89872e-06
1.89576e-06
1.89242e-06
1.88868e-06
1.88457e-06
1.8801e-06
1.87528e-06
1.87012e-06
1.86464e-06
1.85886e-06
1.85279e-06
1.84645e-06
1.83987e-06
1.76129e-06
1.76874e-06
1.77594e-06
1.78298e-06
1.78985e-06
1.79654e-06
1.80303e-06
1.8093e-06
1.81533e-06
1.82112e-06
1.82662e-06
1.83184e-06
1.83676e-06
1.84135e-06
1.84561e-06
1.84953e-06
1.85309e-06
1.85628e-06
1.8591e-06
1.86152e-06
1.86356e-06
1.86519e-06
1.86642e-06
1.86725e-06
1.86766e-06
1.86766e-06
1.86725e-06
1.86642e-06
1.86519e-06
1.86356e-06
1.86152e-06
1.85909e-06
1.85628e-06
1.85309e-06
1.84953e-06
1.84561e-06
1.84135e-06
1.83676e-06
1.83184e-06
1.82662e-06
1.82112e-06
1.81533e-06
1.8093e-06
1.80303e-06
1.72753e-06
1.73459e-06
1.74142e-06
1.74811e-06
1.75463e-06
1.76099e-06
1.76715e-06
1.7731e-06
1.77884e-06
1.78434e-06
1.78957e-06
1.79453e-06
1.7992e-06
1.80357e-06
1.80763e-06
1.81135e-06
1.81474e-06
1.81777e-06
1.82045e-06
1.82276e-06
1.8247e-06
1.82625e-06
1.82743e-06
1.82821e-06
1.8286e-06
1.8286e-06
1.82821e-06
1.82743e-06
1.82625e-06
1.8247e-06
1.82276e-06
1.82045e-06
1.81777e-06
1.81474e-06
1.81135e-06
1.80763e-06
1.80357e-06
1.7992e-06
1.79453e-06
1.78957e-06
1.78434e-06
1.77884e-06
1.7731e-06
1.76715e-06
1.69472e-06
1.70141e-06
1.70788e-06
1.71421e-06
1.72039e-06
1.72641e-06
1.73225e-06
1.73789e-06
1.74333e-06
1.74854e-06
1.75351e-06
1.75821e-06
1.76265e-06
1.76679e-06
1.77064e-06
1.77417e-06
1.77739e-06
1.78027e-06
1.78281e-06
1.785e-06
1.78684e-06
1.78832e-06
1.78943e-06
1.79018e-06
1.79055e-06
1.79055e-06
1.79018e-06
1.78943e-06
1.78832e-06
1.78684e-06
1.785e-06
1.78281e-06
1.78027e-06
1.77739e-06
1.77417e-06
1.77064e-06
1.76679e-06
1.76265e-06
1.75821e-06
1.75351e-06
1.74854e-06
1.74333e-06
1.73789e-06
1.73225e-06
1.6629e-06
1.66921e-06
1.67532e-06
1.6813e-06
1.68714e-06
1.69283e-06
1.69835e-06
1.70369e-06
1.70884e-06
1.71376e-06
1.71846e-06
1.72291e-06
1.72711e-06
1.73103e-06
1.73467e-06
1.73802e-06
1.74106e-06
1.74379e-06
1.7462e-06
1.74828e-06
1.75002e-06
1.75141e-06
1.75247e-06
1.75317e-06
1.75353e-06
1.75353e-06
1.75317e-06
1.75247e-06
1.75141e-06
1.75002e-06
1.74827e-06
1.7462e-06
1.74379e-06
1.74106e-06
1.73802e-06
1.73467e-06
1.73103e-06
1.72711e-06
1.72291e-06
1.71846e-06
1.71376e-06
1.70884e-06
1.70369e-06
1.69835e-06
1.63209e-06
1.63803e-06
1.64378e-06
1.64941e-06
1.65492e-06
1.66028e-06
1.66549e-06
1.67052e-06
1.67537e-06
1.68002e-06
1.68445e-06
1.68865e-06
1.69261e-06
1.69632e-06
1.69975e-06
1.70292e-06
1.70579e-06
1.70837e-06
1.71064e-06
1.7126e-06
1.71425e-06
1.71557e-06
1.71656e-06
1.71723e-06
1.71756e-06
1.71756e-06
1.71723e-06
1.71656e-06
1.71557e-06
1.71425e-06
1.7126e-06
1.71064e-06
1.70837e-06
1.70579e-06
1.70292e-06
1.69975e-06
1.69632e-06
1.69261e-06
1.68865e-06
1.68445e-06
1.68002e-06
1.67537e-06
1.67052e-06
1.66549e-06
1.6023e-06
1.60788e-06
1.61328e-06
1.61857e-06
1.62374e-06
1.62878e-06
1.63368e-06
1.63841e-06
1.64297e-06
1.64734e-06
1.65151e-06
1.65547e-06
1.65919e-06
1.66268e-06
1.66591e-06
1.66889e-06
1.6716e-06
1.67402e-06
1.67616e-06
1.67801e-06
1.67956e-06
1.6808e-06
1.68174e-06
1.68237e-06
1.68268e-06
1.68268e-06
1.68237e-06
1.68174e-06
1.6808e-06
1.67956e-06
1.67801e-06
1.67616e-06
1.67402e-06
1.6716e-06
1.66889e-06
1.66591e-06
1.66268e-06
1.65919e-06
1.65547e-06
1.65151e-06
1.64734e-06
1.64297e-06
1.63841e-06
1.63368e-06
1.62878e-06
1.57357e-06
1.57879e-06
1.58384e-06
1.58879e-06
1.59364e-06
1.59836e-06
1.60295e-06
1.60738e-06
1.61166e-06
1.61576e-06
1.61967e-06
1.62338e-06
1.62687e-06
1.63014e-06
1.63318e-06
1.63597e-06
1.63851e-06
1.64079e-06
1.6428e-06
1.64454e-06
1.64599e-06
1.64716e-06
1.64804e-06
1.64863e-06
1.64892e-06
1.64892e-06
1.64863e-06
1.64804e-06
1.64716e-06
1.64599e-06
1.64454e-06
1.6428e-06
1.64079e-06
1.63851e-06
1.63597e-06
1.63318e-06
1.63014e-06
1.62687e-06
1.62338e-06
1.61967e-06
1.61576e-06
1.61166e-06
1.60738e-06
1.60295e-06
1.59836e-06
1.54592e-06
1.55078e-06
1.55549e-06
1.56011e-06
1.56464e-06
1.56904e-06
1.57333e-06
1.57747e-06
1.58147e-06
1.5853e-06
1.58895e-06
1.59242e-06
1.59568e-06
1.59874e-06
1.60158e-06
1.60419e-06
1.60657e-06
1.6087e-06
1.61058e-06
1.61221e-06
1.61357e-06
1.61466e-06
1.61548e-06
1.61604e-06
1.61631e-06
1.61631e-06
1.61604e-06
1.61548e-06
1.61466e-06
1.61357e-06
1.61221e-06
1.61058e-06
1.6087e-06
1.60657e-06
1.6042e-06
1.60158e-06
1.59874e-06
1.59568e-06
1.59242e-06
1.58895e-06
1.5853e-06
1.58147e-06
1.57747e-06
1.57333e-06
1.56904e-06
1.51937e-06
1.52389e-06
1.52826e-06
1.53256e-06
1.53676e-06
1.54086e-06
1.54485e-06
1.5487e-06
1.55242e-06
1.55599e-06
1.55939e-06
1.56262e-06
1.56566e-06
1.56851e-06
1.57115e-06
1.57359e-06
1.5758e-06
1.57779e-06
1.57954e-06
1.58106e-06
1.58232e-06
1.58334e-06
1.58411e-06
1.58463e-06
1.58488e-06
1.58488e-06
1.58463e-06
1.58411e-06
1.58334e-06
1.58232e-06
1.58106e-06
1.57954e-06
1.57779e-06
1.5758e-06
1.57359e-06
1.57116e-06
1.56851e-06
1.56566e-06
1.56262e-06
1.55939e-06
1.55599e-06
1.55242e-06
1.5487e-06
1.54485e-06
1.54086e-06
1.49393e-06
1.49811e-06
1.50216e-06
1.50614e-06
1.51003e-06
1.51383e-06
1.51753e-06
1.5211e-06
1.52455e-06
1.52786e-06
1.53101e-06
1.534e-06
1.53683e-06
1.53947e-06
1.54193e-06
1.54418e-06
1.54624e-06
1.54808e-06
1.54971e-06
1.55112e-06
1.5523e-06
1.55324e-06
1.55396e-06
1.55443e-06
1.55467e-06
1.55467e-06
1.55443e-06
1.55396e-06
1.55324e-06
1.5523e-06
1.55112e-06
1.54971e-06
1.54808e-06
1.54624e-06
1.54418e-06
1.54193e-06
1.53947e-06
1.53683e-06
1.534e-06
1.53101e-06
1.52786e-06
1.52455e-06
1.5211e-06
1.51753e-06
1.46952e-06
1.47338e-06
1.47713e-06
1.48081e-06
1.48441e-06
1.48794e-06
1.49136e-06
1.49467e-06
1.49786e-06
1.50091e-06
1.50383e-06
1.50659e-06
1.5092e-06
1.51165e-06
1.51392e-06
1.516e-06
1.51791e-06
1.51961e-06
1.52112e-06
1.52242e-06
1.52351e-06
1.52438e-06
1.52504e-06
1.52549e-06
1.52571e-06
1.52571e-06
1.52549e-06
1.52504e-06
1.52438e-06
1.52351e-06
1.52242e-06
1.52112e-06
1.51961e-06
1.51791e-06
1.516e-06
1.51392e-06
1.51165e-06
1.5092e-06
1.50659e-06
1.50383e-06
1.50091e-06
1.49786e-06
1.49467e-06
1.49136e-06
1.44567e-06
1.44929e-06
1.45281e-06
1.45628e-06
1.45967e-06
1.46299e-06
1.46622e-06
1.46934e-06
1.47228e-06
1.4751e-06
1.47779e-06
1.48034e-06
1.48275e-06
1.48501e-06
1.4871e-06
1.48903e-06
1.49079e-06
1.49237e-06
1.49376e-06
1.49496e-06
1.49597e-06
1.49678e-06
1.49739e-06
1.4978e-06
1.498e-06
1.498e-06
1.4978e-06
1.49739e-06
1.49678e-06
1.49597e-06
1.49496e-06
1.49376e-06
1.49237e-06
1.49079e-06
1.48903e-06
1.4871e-06
1.48501e-06
1.48275e-06
1.48034e-06
1.47779e-06
1.4751e-06
1.47228e-06
1.46934e-06
1.46622e-06
1.42206e-06
1.4255e-06
1.42885e-06
1.43215e-06
1.43538e-06
1.43854e-06
1.44161e-06
1.44459e-06
1.44734e-06
1.44998e-06
1.4525e-06
1.4549e-06
1.45716e-06
1.45928e-06
1.46124e-06
1.46306e-06
1.46471e-06
1.46619e-06
1.4675e-06
1.46862e-06
1.46957e-06
1.47033e-06
1.47091e-06
1.47128e-06
1.47147e-06
1.47147e-06
1.47128e-06
1.47091e-06
1.47033e-06
1.46957e-06
1.46862e-06
1.46749e-06
1.46619e-06
1.46471e-06
1.46306e-06
1.46124e-06
1.45928e-06
1.45716e-06
1.4549e-06
1.4525e-06
1.44998e-06
1.44734e-06
1.44459e-06
1.44161e-06
1.39924e-06
1.40241e-06
1.40551e-06
1.40857e-06
1.41156e-06
1.41449e-06
1.41734e-06
1.42011e-06
1.42271e-06
1.42521e-06
1.4276e-06
1.42988e-06
1.43202e-06
1.43403e-06
1.43589e-06
1.43761e-06
1.43918e-06
1.44058e-06
1.44182e-06
1.4429e-06
1.44379e-06
1.44452e-06
1.44506e-06
1.44541e-06
1.44559e-06
1.44559e-06
1.44541e-06
1.44506e-06
1.44452e-06
1.44379e-06
1.44289e-06
1.44182e-06
1.44058e-06
1.43918e-06
1.43761e-06
1.43589e-06
1.43403e-06
1.43202e-06
1.42988e-06
1.4276e-06
1.42522e-06
1.42271e-06
1.42011e-06
1.41734e-06
1.37774e-06
1.38059e-06
1.38337e-06
1.38612e-06
1.38882e-06
1.39146e-06
1.39403e-06
1.39653e-06
1.39893e-06
1.40123e-06
1.40343e-06
1.40553e-06
1.40751e-06
1.40936e-06
1.41108e-06
1.41267e-06
1.41411e-06
1.41541e-06
1.41656e-06
1.41755e-06
1.41838e-06
1.41905e-06
1.41955e-06
1.41988e-06
1.42005e-06
1.42005e-06
1.41988e-06
1.41955e-06
1.41905e-06
1.41838e-06
1.41755e-06
1.41656e-06
1.41541e-06
1.41411e-06
1.41267e-06
1.41108e-06
1.40936e-06
1.40751e-06
1.40553e-06
1.40343e-06
1.40123e-06
1.39893e-06
1.39653e-06
1.39403e-06
1.35774e-06
1.36027e-06
1.36274e-06
1.36517e-06
1.36757e-06
1.36992e-06
1.3722e-06
1.37442e-06
1.37657e-06
1.37863e-06
1.3806e-06
1.38247e-06
1.38424e-06
1.3859e-06
1.38744e-06
1.38887e-06
1.39016e-06
1.39133e-06
1.39235e-06
1.39324e-06
1.39399e-06
1.39459e-06
1.39504e-06
1.39534e-06
1.39549e-06
1.39549e-06
1.39534e-06
1.39504e-06
1.39459e-06
1.39399e-06
1.39324e-06
1.39235e-06
1.39133e-06
1.39016e-06
1.38887e-06
1.38744e-06
1.3859e-06
1.38424e-06
1.38247e-06
1.3806e-06
1.37863e-06
1.37657e-06
1.37442e-06
1.3722e-06
1.3394e-06
1.34159e-06
1.34375e-06
1.34587e-06
1.34797e-06
1.35002e-06
1.35203e-06
1.35397e-06
1.35585e-06
1.35766e-06
1.3594e-06
1.36105e-06
1.36261e-06
1.36407e-06
1.36543e-06
1.36669e-06
1.36783e-06
1.36886e-06
1.36977e-06
1.37056e-06
1.37121e-06
1.37175e-06
1.37214e-06
1.37241e-06
1.37255e-06
1.37255e-06
1.37241e-06
1.37214e-06
1.37175e-06
1.37121e-06
1.37056e-06
1.36977e-06
1.36886e-06
1.36783e-06
1.36669e-06
1.36543e-06
1.36407e-06
1.36261e-06
1.36105e-06
1.3594e-06
1.35766e-06
1.35585e-06
1.35397e-06
1.35203e-06
1.32282e-06
1.3247e-06
1.32654e-06
1.32836e-06
1.33016e-06
1.33192e-06
1.33365e-06
1.33532e-06
1.33695e-06
1.33851e-06
1.34001e-06
1.34143e-06
1.34278e-06
1.34405e-06
1.34523e-06
1.34632e-06
1.34732e-06
1.34821e-06
1.349e-06
1.34968e-06
1.35025e-06
1.35072e-06
1.35106e-06
1.35129e-06
1.35141e-06
1.35141e-06
1.35129e-06
1.35106e-06
1.35071e-06
1.35025e-06
1.34968e-06
1.349e-06
1.34821e-06
1.34732e-06
1.34632e-06
1.34523e-06
1.34405e-06
1.34278e-06
1.34143e-06
1.34001e-06
1.33851e-06
1.33695e-06
1.33532e-06
1.33365e-06
1.33192e-06
1.30813e-06
1.30969e-06
1.31123e-06
1.31276e-06
1.31427e-06
1.31575e-06
1.3172e-06
1.31862e-06
1.31999e-06
1.32131e-06
1.32258e-06
1.32379e-06
1.32493e-06
1.32601e-06
1.32701e-06
1.32793e-06
1.32878e-06
1.32954e-06
1.33021e-06
1.33079e-06
1.33128e-06
1.33167e-06
1.33197e-06
1.33217e-06
1.33226e-06
1.33226e-06
1.33217e-06
1.33197e-06
1.33167e-06
1.33128e-06
1.33079e-06
1.33021e-06
1.32954e-06
1.32878e-06
1.32793e-06
1.32701e-06
1.32601e-06
1.32493e-06
1.32379e-06
1.32258e-06
1.32131e-06
1.31999e-06
1.31862e-06
1.3172e-06
1.31575e-06
1.29539e-06
1.29666e-06
1.29792e-06
1.29917e-06
1.3004e-06
1.30162e-06
1.30281e-06
1.30397e-06
1.3051e-06
1.30619e-06
1.30723e-06
1.30823e-06
1.30918e-06
1.31007e-06
1.3109e-06
1.31167e-06
1.31237e-06
1.313e-06
1.31356e-06
1.31404e-06
1.31445e-06
1.31477e-06
1.31502e-06
1.31518e-06
1.31527e-06
1.31527e-06
1.31518e-06
1.31502e-06
1.31477e-06
1.31445e-06
1.31404e-06
1.31356e-06
1.313e-06
1.31237e-06
1.31167e-06
1.3109e-06
1.31007e-06
1.30918e-06
1.30823e-06
1.30723e-06
1.30619e-06
1.3051e-06
1.30397e-06
1.30281e-06
1.30162e-06
1.28462e-06
1.28563e-06
1.28663e-06
1.28762e-06
1.2886e-06
1.28957e-06
1.29052e-06
1.29145e-06
1.29235e-06
1.29323e-06
1.29407e-06
1.29487e-06
1.29563e-06
1.29635e-06
1.29701e-06
1.29763e-06
1.2982e-06
1.29871e-06
1.29916e-06
1.29955e-06
1.29988e-06
1.30014e-06
1.30034e-06
1.30047e-06
1.30054e-06
1.30054e-06
1.30047e-06
1.30034e-06
1.30014e-06
1.29988e-06
1.29955e-06
1.29916e-06
1.29871e-06
1.2982e-06
1.29763e-06
1.29701e-06
1.29635e-06
1.29563e-06
1.29487e-06
1.29407e-06
1.29323e-06
1.29235e-06
1.29145e-06
1.29052e-06
1.28957e-06
1.2886e-06
1.2758e-06
1.27657e-06
1.27733e-06
1.2781e-06
1.27886e-06
1.2796e-06
1.28034e-06
1.28106e-06
1.28176e-06
1.28244e-06
1.28309e-06
1.28372e-06
1.28431e-06
1.28487e-06
1.28539e-06
1.28587e-06
1.28631e-06
1.28671e-06
1.28706e-06
1.28737e-06
1.28763e-06
1.28783e-06
1.28799e-06
1.28809e-06
1.28815e-06
1.28815e-06
1.28809e-06
1.28799e-06
1.28783e-06
1.28763e-06
1.28737e-06
1.28706e-06
1.28671e-06
1.28631e-06
1.28587e-06
1.28539e-06
1.28487e-06
1.28431e-06
1.28372e-06
1.28309e-06
1.28244e-06
1.28176e-06
1.28106e-06
1.28034e-06
1.2796e-06
1.27886e-06
1.26879e-06
1.26937e-06
1.26994e-06
1.27051e-06
1.27107e-06
1.27163e-06
1.27218e-06
1.27272e-06
1.27325e-06
1.27376e-06
1.27425e-06
1.27472e-06
1.27517e-06
1.27559e-06
1.27598e-06
1.27635e-06
1.27668e-06
1.27698e-06
1.27725e-06
1.27748e-06
1.27767e-06
1.27783e-06
1.27794e-06
1.27802e-06
1.27806e-06
1.27806e-06
1.27802e-06
1.27794e-06
1.27783e-06
1.27767e-06
1.27748e-06
1.27725e-06
1.27698e-06
1.27668e-06
1.27635e-06
1.27598e-06
1.27559e-06
1.27517e-06
1.27472e-06
1.27425e-06
1.27376e-06
1.27325e-06
1.27272e-06
1.27218e-06
1.27163e-06
1.27107e-06
1.27051e-06
1.26344e-06
1.26385e-06
1.26426e-06
1.26467e-06
1.26508e-06
1.26549e-06
1.26589e-06
1.26628e-06
1.26666e-06
1.26703e-06
1.26739e-06
1.26774e-06
1.26806e-06
1.26837e-06
1.26866e-06
1.26892e-06
1.26916e-06
1.26938e-06
1.26958e-06
1.26974e-06
1.26989e-06
1.27e-06
1.27009e-06
1.27014e-06
1.27017e-06
1.27017e-06
1.27014e-06
1.27009e-06
1.27e-06
1.26989e-06
1.26974e-06
1.26958e-06
1.26938e-06
1.26916e-06
1.26892e-06
1.26866e-06
1.26837e-06
1.26806e-06
1.26774e-06
1.26739e-06
1.26703e-06
1.26666e-06
1.26628e-06
1.26589e-06
1.26549e-06
1.26508e-06
1.26467e-06
1.25948e-06
1.25977e-06
1.26006e-06
1.26036e-06
1.26065e-06
1.26093e-06
1.26121e-06
1.26149e-06
1.26176e-06
1.26203e-06
1.26228e-06
1.26253e-06
1.26276e-06
1.26298e-06
1.26318e-06
1.26337e-06
1.26354e-06
1.26369e-06
1.26383e-06
1.26395e-06
1.26405e-06
1.26413e-06
1.26419e-06
1.26423e-06
1.26425e-06
1.26425e-06
1.26423e-06
1.26419e-06
1.26413e-06
1.26405e-06
1.26395e-06
1.26383e-06
1.26369e-06
1.26354e-06
1.26337e-06
1.26318e-06
1.26298e-06
1.26276e-06
1.26253e-06
1.26228e-06
1.26203e-06
1.26176e-06
1.26149e-06
1.26121e-06
1.26093e-06
1.26065e-06
1.26036e-06
1.25668e-06
1.25688e-06
1.25708e-06
1.25728e-06
1.25749e-06
1.25769e-06
1.25789e-06
1.25808e-06
1.25827e-06
1.25846e-06
1.25864e-06
1.25881e-06
1.25897e-06
1.25912e-06
1.25926e-06
1.25939e-06
1.25951e-06
1.25962e-06
1.25971e-06
1.25979e-06
1.25986e-06
1.25992e-06
1.25996e-06
1.25999e-06
1.26e-06
1.26e-06
1.25999e-06
1.25996e-06
1.25992e-06
1.25986e-06
1.25979e-06
1.25971e-06
1.25962e-06
1.25951e-06
1.25939e-06
1.25926e-06
1.25912e-06
1.25897e-06
1.25881e-06
1.25864e-06
1.25846e-06
1.25827e-06
1.25808e-06
1.25789e-06
1.25769e-06
1.25749e-06
1.25728e-06
1.25474e-06
1.25488e-06
1.25503e-06
1.25517e-06
1.25532e-06
1.25546e-06
1.2556e-06
1.25573e-06
1.25587e-06
1.256e-06
1.25613e-06
1.25625e-06
1.25636e-06
1.25647e-06
1.25657e-06
1.25666e-06
1.25674e-06
1.25682e-06
1.25688e-06
1.25694e-06
1.25699e-06
1.25702e-06
1.25705e-06
1.25707e-06
1.25708e-06
1.25708e-06
1.25707e-06
1.25705e-06
1.25702e-06
1.25699e-06
1.25694e-06
1.25688e-06
1.25682e-06
1.25674e-06
1.25666e-06
1.25657e-06
1.25647e-06
1.25636e-06
1.25625e-06
1.25613e-06
1.256e-06
1.25587e-06
1.25573e-06
1.2556e-06
1.25546e-06
1.25532e-06
1.25517e-06
1.25344e-06
1.25354e-06
1.25365e-06
1.25376e-06
1.25386e-06
1.25397e-06
1.25407e-06
1.25417e-06
1.25427e-06
1.25437e-06
1.25446e-06
1.25455e-06
1.25463e-06
1.25471e-06
1.25478e-06
1.25485e-06
1.2549e-06
1.25496e-06
1.255e-06
1.25505e-06
1.25508e-06
1.25511e-06
1.25513e-06
1.25514e-06
1.25515e-06
1.25515e-06
1.25514e-06
1.25513e-06
1.25511e-06
1.25508e-06
1.25505e-06
1.255e-06
1.25496e-06
1.2549e-06
1.25484e-06
1.25478e-06
1.25471e-06
1.25463e-06
1.25455e-06
1.25446e-06
1.25437e-06
1.25427e-06
1.25417e-06
1.25407e-06
1.25397e-06
1.25386e-06
1.25376e-06
1.25365e-06
1.25256e-06
1.25264e-06
1.25272e-06
1.25281e-06
1.25289e-06
1.25298e-06
1.25306e-06
1.25313e-06
1.25321e-06
1.25329e-06
1.25336e-06
1.25343e-06
1.2535e-06
1.25355e-06
1.25361e-06
1.25366e-06
1.25371e-06
1.25375e-06
1.25378e-06
1.25381e-06
1.25384e-06
1.25386e-06
1.25387e-06
1.25389e-06
1.25389e-06
1.25389e-06
1.25389e-06
1.25387e-06
1.25386e-06
1.25384e-06
1.25381e-06
1.25378e-06
1.25375e-06
1.25371e-06
1.25366e-06
1.25361e-06
1.25355e-06
1.25349e-06
1.25343e-06
1.25336e-06
1.25329e-06
1.25321e-06
1.25313e-06
1.25306e-06
1.25298e-06
1.25289e-06
1.25281e-06
1.25272e-06
1.25195e-06
1.25201e-06
1.25208e-06
1.25216e-06
1.25223e-06
1.2523e-06
1.25236e-06
1.25243e-06
1.2525e-06
1.25256e-06
1.25262e-06
1.25268e-06
1.25273e-06
1.25278e-06
1.25283e-06
1.25287e-06
1.25291e-06
1.25294e-06
1.25297e-06
1.253e-06
1.25302e-06
1.25304e-06
1.25305e-06
1.25306e-06
1.25306e-06
1.25306e-06
1.25306e-06
1.25305e-06
1.25304e-06
1.25302e-06
1.253e-06
1.25297e-06
1.25294e-06
1.25291e-06
1.25287e-06
1.25283e-06
1.25278e-06
1.25273e-06
1.25268e-06
1.25262e-06
1.25256e-06
1.2525e-06
1.25243e-06
1.25236e-06
1.2523e-06
1.25223e-06
1.25216e-06
1.25208e-06
1.25149e-06
1.25154e-06
1.25161e-06
1.25167e-06
1.25173e-06
1.2518e-06
1.25186e-06
1.25192e-06
1.25198e-06
1.25203e-06
1.25209e-06
1.25214e-06
1.25219e-06
1.25223e-06
1.25227e-06
1.25231e-06
1.25234e-06
1.25237e-06
1.2524e-06
1.25242e-06
1.25244e-06
1.25246e-06
1.25247e-06
1.25248e-06
1.25248e-06
1.25248e-06
1.25248e-06
1.25247e-06
1.25246e-06
1.25244e-06
1.25242e-06
1.2524e-06
1.25237e-06
1.25234e-06
1.25231e-06
1.25227e-06
1.25223e-06
1.25219e-06
1.25214e-06
1.25209e-06
1.25203e-06
1.25198e-06
1.25192e-06
1.25186e-06
1.2518e-06
1.25173e-06
1.25167e-06
1.25161e-06
1.2511e-06
1.25115e-06
1.25121e-06
1.25127e-06
1.25133e-06
1.25139e-06
1.25145e-06
1.2515e-06
1.25156e-06
1.25161e-06
1.25166e-06
1.25171e-06
1.25176e-06
1.2518e-06
1.25184e-06
1.25187e-06
1.2519e-06
1.25193e-06
1.25195e-06
1.25197e-06
1.25199e-06
1.252e-06
1.25201e-06
1.25202e-06
1.25202e-06
1.25202e-06
1.25202e-06
1.25201e-06
1.252e-06
1.25199e-06
1.25197e-06
1.25195e-06
1.25193e-06
1.2519e-06
1.25187e-06
1.25183e-06
1.2518e-06
1.25176e-06
1.25171e-06
1.25166e-06
1.25161e-06
1.25156e-06
1.2515e-06
1.25145e-06
1.25139e-06
1.25133e-06
1.25127e-06
1.25121e-06
1.25076e-06
1.2508e-06
1.25086e-06
1.25092e-06
1.25097e-06
1.25103e-06
1.25108e-06
1.25113e-06
1.25119e-06
1.25124e-06
1.25129e-06
1.25133e-06
1.25137e-06
1.25141e-06
1.25145e-06
1.25148e-06
1.25151e-06
1.25154e-06
1.25156e-06
1.25158e-06
1.2516e-06
1.25161e-06
1.25162e-06
1.25162e-06
1.25163e-06
1.25163e-06
1.25162e-06
1.25162e-06
1.25161e-06
1.2516e-06
1.25158e-06
1.25156e-06
1.25154e-06
1.25151e-06
1.25148e-06
1.25145e-06
1.25141e-06
1.25137e-06
1.25133e-06
1.25129e-06
1.25124e-06
1.25119e-06
1.25113e-06
1.25108e-06
1.25103e-06
1.25097e-06
1.25092e-06
1.25086e-06
1.25043e-06
1.25047e-06
1.25052e-06
1.25058e-06
1.25063e-06
1.25068e-06
1.25073e-06
1.25078e-06
1.25083e-06
1.25088e-06
1.25093e-06
1.25097e-06
1.25101e-06
1.25105e-06
1.25109e-06
1.25112e-06
1.25114e-06
1.25117e-06
1.25119e-06
1.25121e-06
1.25122e-06
1.25124e-06
1.25125e-06
1.25125e-06
1.25126e-06
1.25126e-06
1.25125e-06
1.25125e-06
1.25124e-06
1.25122e-06
1.25121e-06
1.25119e-06
1.25117e-06
1.25114e-06
1.25112e-06
1.25109e-06
1.25105e-06
1.25101e-06
1.25097e-06
1.25093e-06
1.25088e-06
1.25084e-06
1.25078e-06
1.25073e-06
1.25068e-06
1.25063e-06
1.25058e-06
1.25052e-06
1.25011e-06
1.25015e-06
1.2502e-06
1.25025e-06
1.2503e-06
1.25035e-06
1.2504e-06
1.25044e-06
1.25049e-06
1.25054e-06
1.25058e-06
1.25063e-06
1.25066e-06
1.2507e-06
1.25073e-06
1.25076e-06
1.25079e-06
1.25081e-06
1.25083e-06
1.25085e-06
1.25086e-06
1.25088e-06
1.25089e-06
1.25089e-06
1.25089e-06
1.25089e-06
1.25089e-06
1.25089e-06
1.25088e-06
1.25086e-06
1.25085e-06
1.25083e-06
1.25081e-06
1.25079e-06
1.25076e-06
1.25073e-06
1.2507e-06
1.25066e-06
1.25063e-06
1.25058e-06
1.25054e-06
1.25049e-06
1.25044e-06
1.2504e-06
1.25035e-06
1.2503e-06
1.25025e-06
1.2502e-06
2.37157e-06
2.32526e-06
2.27971e-06
2.23494e-06
2.19095e-06
2.14774e-06
2.10533e-06
2.06372e-06
2.02293e-06
1.98296e-06
1.94383e-06
1.90555e-06
1.86814e-06
1.83162e-06
1.796e-06
1.76129e-06
1.72753e-06
1.69472e-06
1.6629e-06
1.63209e-06
1.6023e-06
1.57357e-06
1.54592e-06
1.51937e-06
1.49393e-06
1.46952e-06
1.44567e-06
1.42206e-06
1.39924e-06
1.37774e-06
1.35774e-06
1.3394e-06
1.32282e-06
1.30813e-06
1.29539e-06
1.28462e-06
1.2758e-06
1.26879e-06
1.26344e-06
1.25948e-06
1.25668e-06
1.25474e-06
1.25344e-06
1.25256e-06
1.25195e-06
1.25149e-06
1.2511e-06
1.25076e-06
1.25043e-06
1.25011e-06
2.38514e-06
2.3384e-06
2.29243e-06
2.24723e-06
2.20282e-06
2.1592e-06
2.11637e-06
2.07435e-06
2.03315e-06
1.99278e-06
1.95325e-06
1.91457e-06
1.87676e-06
1.83985e-06
1.80383e-06
1.76874e-06
1.73459e-06
1.70141e-06
1.66921e-06
1.63803e-06
1.60788e-06
1.57879e-06
1.55078e-06
1.52389e-06
1.49811e-06
1.47338e-06
1.44929e-06
1.4255e-06
1.40241e-06
1.38059e-06
1.36027e-06
1.34159e-06
1.3247e-06
1.30969e-06
1.29666e-06
1.28563e-06
1.27657e-06
1.26937e-06
1.26385e-06
1.25977e-06
1.25688e-06
1.25488e-06
1.25354e-06
1.25264e-06
1.25201e-06
1.25154e-06
1.25115e-06
1.2508e-06
1.25047e-06
1.25015e-06
2.39819e-06
2.35104e-06
2.30466e-06
2.25907e-06
2.21425e-06
2.17023e-06
2.12701e-06
2.0846e-06
2.04301e-06
2.00225e-06
1.96233e-06
1.92327e-06
1.88509e-06
1.84779e-06
1.8114e-06
1.77594e-06
1.74143e-06
1.70788e-06
1.67532e-06
1.64378e-06
1.61328e-06
1.58384e-06
1.55549e-06
1.52826e-06
1.50216e-06
1.47713e-06
1.45281e-06
1.42885e-06
1.40551e-06
1.38337e-06
1.36274e-06
1.34375e-06
1.32654e-06
1.31123e-06
1.29792e-06
1.28663e-06
1.27733e-06
1.26994e-06
1.26426e-06
1.26006e-06
1.25708e-06
1.25503e-06
1.25365e-06
1.25272e-06
1.25208e-06
1.2516e-06
1.25121e-06
1.25086e-06
1.25052e-06
1.2502e-06
2.41093e-06
2.36338e-06
2.31661e-06
2.27062e-06
2.22541e-06
2.181e-06
2.1374e-06
2.0946e-06
2.05263e-06
2.0115e-06
1.9712e-06
1.93177e-06
1.89322e-06
1.85556e-06
1.8188e-06
1.78298e-06
1.74811e-06
1.71421e-06
1.6813e-06
1.64941e-06
1.61857e-06
1.58879e-06
1.56011e-06
1.53256e-06
1.50614e-06
1.48081e-06
1.45628e-06
1.43215e-06
1.40857e-06
1.38612e-06
1.36517e-06
1.34587e-06
1.32836e-06
1.31276e-06
1.29917e-06
1.28762e-06
1.2781e-06
1.27051e-06
1.26467e-06
1.26036e-06
1.25728e-06
1.25517e-06
1.25376e-06
1.25281e-06
1.25216e-06
1.25167e-06
1.25127e-06
1.25092e-06
1.25058e-06
1.25025e-06
2.42333e-06
2.37539e-06
2.32823e-06
2.28186e-06
2.23628e-06
2.1915e-06
2.14752e-06
2.10435e-06
2.06201e-06
2.02051e-06
1.97985e-06