/*--------------------------------*- C++ -*----------------------------------*\
  =========                 |
  \\      /  F ield         | OpenFOAM: The Open Source CFD Toolbox
   \\    /   O peration     | Website:  https://openfoam.org
    \\  /    A nd           | Version:  7
     \\/     M anipulation  |
\*---------------------------------------------------------------------------*/
FoamFile
{
    version     2.0;
    format      ascii;
    class       volScalarField;
    location    "232000";
    object      p;
}
// * * * * * * * * * * * * * * * * * * * * * * * * * * * * * * * * * * * * * //

dimensions      [0 2 -2 0 0 0 0];

internalField   nonuniform List<scalar> 
4844
(
-5.30042e-20
-1.14274e-18
-9.60154e-19
-9.29274e-19
-1.1686e-18
-9.56995e-19
-9.60388e-19
-9.55623e-19
-9.27563e-19
-9.22602e-19
-9.11446e-19
-1.0913e-18
-1.13255e-18
-9.64101e-19
-9.66566e-19
-9.49994e-19
-9.19824e-19
-9.27897e-19
-9.08809e-19
-8.93549e-19
-8.75907e-19
-8.75045e-19
-1.02135e-18
-1.05806e-18
-9.67313e-19
-9.65123e-19
-9.56452e-19
-9.24388e-19
-9.27108e-19
-9.15879e-19
-9.02088e-19
-8.99043e-19
-8.67348e-19
-8.5894e-19
-8.49716e-19
-8.26467e-19
-8.57171e-19
-8.41614e-19
-9.72626e-19
-1.02636e-18
-9.56512e-19
-9.54643e-19
-9.43736e-19
-9.11837e-19
-9.38328e-19
-9.05712e-19
-8.99654e-19
-9.00653e-19
-8.70969e-19
-8.65544e-19
-8.43638e-19
-8.43041e-19
-8.51166e-19
-8.42199e-19
-9.54192e-19
-1.00013e-18
-9.49489e-19
-9.62442e-19
-9.26573e-19
-9.11632e-19
-9.23005e-19
-8.99603e-19
-9.01336e-19
-8.89319e-19
-8.71796e-19
-8.66449e-19
-8.37934e-19
-8.53378e-19
-8.4629e-19
-8.28348e-19
-9.99077e-19
-9.56117e-19
-9.47382e-19
-9.263e-19
-9.12802e-19
-9.16908e-19
-8.90862e-19
-9.02065e-19
-8.74029e-19
-8.69346e-19
-8.677e-19
-8.3932e-19
-8.58966e-19
-8.39741e-19
-8.34445e-19
-9.91608e-19
-9.60638e-19
-9.45734e-19
-9.27771e-19
-9.18794e-19
-9.18959e-19
-8.87264e-19
-9.0052e-19
-8.82182e-19
-8.76105e-19
-8.65373e-19
-8.58609e-19
-8.53986e-19
-8.29383e-19
-8.29952e-19
-9.80311e-19
-9.5172e-19
-9.37613e-19
-9.28344e-19
-9.16684e-19
-9.17638e-19
-8.90124e-19
-9.02707e-19
-8.77375e-19
-8.73813e-19
-8.58352e-19
-8.58795e-19
-8.45721e-19
-8.16928e-19
-8.38211e-19
-9.52411e-19
-9.69078e-19
-9.41423e-19
-9.33833e-19
-9.26956e-19
-9.10941e-19
-9.1751e-19
-9.02167e-19
-8.99626e-19
-8.77114e-19
-8.75068e-19
-8.58402e-19
-8.3745e-19
-8.30651e-19
-8.27239e-19
-8.32925e-19
-9.53343e-19
-9.67207e-19
-9.40342e-19
-9.30224e-19
-9.35537e-19
-9.13856e-19
-9.08852e-19
-9.10223e-19
-8.78369e-19
-8.77302e-19
-8.68762e-19
-8.49683e-19
-8.37057e-19
-8.2726e-19
-8.25336e-19
-8.19267e-19
-9.39347e-19
-9.54244e-19
-9.3327e-19
-9.29567e-19
-9.29247e-19
-9.12817e-19
-9.17123e-19
-8.97117e-19
-8.7848e-19
-8.71867e-19
-8.65789e-19
-8.5393e-19
-8.47348e-19
-8.27198e-19
-8.19185e-19
-8.18152e-19
-9.36716e-19
-9.47208e-19
-9.26975e-19
-9.32905e-19
-9.24516e-19
-9.07937e-19
-9.25322e-19
-8.9472e-19
-8.84128e-19
-8.77168e-19
-8.69969e-19
-8.5761e-19
-8.37235e-19
-8.3014e-19
-8.14542e-19
-8.18278e-19
-9.39869e-19
-9.35138e-19
-9.38869e-19
-9.18505e-19
-9.35462e-19
-9.22583e-19
-9.04269e-19
-9.14504e-19
-8.86453e-19
-8.87595e-19
-8.8644e-19
-8.59613e-19
-8.5772e-19
-8.40937e-19
-8.33937e-19
-8.20926e-19
-8.24579e-19
-9.33003e-19
-9.3071e-19
-9.30819e-19
-9.29875e-19
-9.32248e-19
-9.21121e-19
-9.04311e-19
-9.15532e-19
-8.90387e-19
-8.78801e-19
-8.75101e-19
-8.76302e-19
-8.54895e-19
-8.39823e-19
-8.40534e-19
-8.34018e-19
-8.22854e-19
-9.32563e-19
-9.26451e-19
-9.28215e-19
-9.29313e-19
-9.36644e-19
-9.1983e-19
-9.20348e-19
-9.12182e-19
-9.09391e-19
-8.9519e-19
-8.81412e-19
-8.65937e-19
-8.82429e-19
-8.45212e-19
-8.43755e-19
-8.33526e-19
-8.32971e-19
-8.18252e-19
-9.22508e-19
-9.25441e-19
-9.23782e-19
-9.21374e-19
-9.39205e-19
-9.16092e-19
-9.08328e-19
-9.05256e-19
-8.88174e-19
-8.90191e-19
-8.83918e-19
-8.58234e-19
-8.66678e-19
-8.45273e-19
-8.54384e-19
-8.35537e-19
-8.24918e-19
-8.10706e-19
-9.29064e-19
-9.2079e-19
-9.15478e-19
-9.17926e-19
-9.25106e-19
-9.09211e-19
-9.07975e-19
-8.97542e-19
-8.97599e-19
-8.92021e-19
-8.87795e-19
-8.57635e-19
-8.61249e-19
-8.33569e-19
-8.4935e-19
-8.32679e-19
-8.17164e-19
-8.11096e-19
-9.19462e-19
-9.08153e-19
-9.20493e-19
-9.21858e-19
-9.10958e-19
-9.09324e-19
-9.08346e-19
-9.02976e-19
-9.07312e-19
-8.89651e-19
-8.83699e-19
-8.50721e-19
-8.65965e-19
-8.42072e-19
-8.40741e-19
-8.22289e-19
-8.28582e-19
-8.21607e-19
-9.13832e-19
-9.07518e-19
-9.16726e-19
-9.28508e-19
-9.19396e-19
-9.15155e-19
-9.01352e-19
-9.01965e-19
-9.01091e-19
-8.86338e-19
-8.7389e-19
-8.52263e-19
-8.67775e-19
-8.44921e-19
-8.40809e-19
-8.26035e-19
-8.38994e-19
-8.18446e-19
-9.11837e-19
-9.15292e-19
-9.16557e-19
-9.09996e-19
-9.08455e-19
-9.02596e-19
-8.95379e-19
-8.97293e-19
-8.93975e-19
-8.79128e-19
-8.68756e-19
-8.57136e-19
-8.68361e-19
-8.50229e-19
-8.396e-19
-8.22353e-19
-8.30661e-19
-8.14445e-19
-9.16585e-19
-9.13759e-19
-9.18665e-19
-9.04369e-19
-8.97999e-19
-8.99654e-19
-8.8337e-19
-8.94896e-19
-8.83941e-19
-8.71832e-19
-8.69496e-19
-8.56853e-19
-8.70732e-19
-8.41983e-19
-8.36963e-19
-8.22538e-19
-8.23865e-19
-8.09762e-19
-9.17539e-19
-9.09882e-19
-9.1466e-19
-9.12986e-19
-9.00019e-19
-9.01599e-19
-8.93597e-19
-8.93877e-19
-8.81427e-19
-8.73269e-19
-8.69099e-19
-8.60397e-19
-8.64618e-19
-8.41624e-19
-8.4414e-19
-8.27004e-19
-8.16138e-19
-8.09471e-19
-9.09778e-19
-9.08923e-19
-9.16598e-19
-9.13131e-19
-8.9386e-19
-9.02401e-19
-9.01303e-19
-8.845e-19
-8.80604e-19
-8.78052e-19
-8.67131e-19
-8.57713e-19
-8.63766e-19
-8.41673e-19
-8.38108e-19
-8.31054e-19
-8.26054e-19
-8.11841e-19
-9.07353e-19
-9.11062e-19
-9.13809e-19
-9.10662e-19
-9.02202e-19
-9.03717e-19
-8.8844e-19
-8.86979e-19
-8.81555e-19
-8.76187e-19
-8.73852e-19
-8.50489e-19
-8.46867e-19
-8.33727e-19
-8.35901e-19
-8.23037e-19
-8.46863e-19
-8.05934e-19
-8.95765e-19
-9.07956e-19
-9.061e-19
-9.05103e-19
-9.06371e-19
-8.98795e-19
-8.80286e-19
-8.88025e-19
-8.82413e-19
-8.67243e-19
-8.74579e-19
-8.38604e-19
-8.41301e-19
-8.392e-19
-8.4133e-19
-8.1859e-19
-8.44883e-19
-8.11112e-19
-8.95651e-19
-9.05664e-19
-9.01901e-19
-9.01273e-19
-9.04062e-19
-8.97972e-19
-8.84715e-19
-8.94987e-19
-8.87191e-19
-8.79562e-19
-8.72375e-19
-8.48979e-19
-8.55099e-19
-8.5641e-19
-8.51207e-19
-8.31892e-19
-8.27088e-19
-8.0781e-19
-9.03409e-19
-9.05796e-19
-8.9588e-19
-8.99014e-19
-8.95426e-19
-8.90792e-19
-8.82803e-19
-8.85786e-19
-8.8349e-19
-8.78088e-19
-8.67644e-19
-8.51116e-19
-8.53788e-19
-8.56758e-19
-8.4475e-19
-8.32294e-19
-8.21819e-19
-8.0692e-19
-9.0068e-19
-8.99796e-19
-8.96013e-19
-8.98767e-19
-8.86967e-19
-8.957e-19
-8.88689e-19
-8.76869e-19
-8.66719e-19
-8.78612e-19
-8.63247e-19
-8.43994e-19
-8.47364e-19
-8.34521e-19
-8.40119e-19
-8.19469e-19
-8.28523e-19
-8.06685e-19
-9.02882e-19
-9.07278e-19
-8.9085e-19
-9.00868e-19
-8.84243e-19
-8.865e-19
-8.93095e-19
-8.89335e-19
-8.70476e-19
-8.62357e-19
-8.6402e-19
-8.35978e-19
-8.56424e-19
-8.29676e-19
-8.36833e-19
-8.22024e-19
-8.3666e-19
-8.14705e-19
-9.0071e-19
-8.94918e-19
-9.10742e-19
-8.99211e-19
-9.05819e-19
-8.88765e-19
-8.75609e-19
-8.91474e-19
-8.77947e-19
-8.73587e-19
-8.55631e-19
-8.71065e-19
-8.4052e-19
-8.59351e-19
-8.31436e-19
-8.44151e-19
-8.13565e-19
-8.22281e-19
-8.14141e-19
-8.93628e-19
-8.9577e-19
-9.08973e-19
-8.96968e-19
-9.00523e-19
-8.97849e-19
-8.74773e-19
-8.8791e-19
-8.64719e-19
-8.67735e-19
-8.60377e-19
-8.67275e-19
-8.44451e-19
-8.49853e-19
-8.31587e-19
-8.45168e-19
-8.19171e-19
-8.103e-19
-8.03086e-19
-8.80975e-19
-8.92619e-19
-9.00899e-19
-9.05125e-19
-8.90896e-19
-8.97198e-19
-8.98224e-19
-8.83432e-19
-8.82704e-19
-8.66358e-19
-8.64019e-19
-8.56616e-19
-8.66325e-19
-8.37755e-19
-8.53991e-19
-8.27354e-19
-8.4148e-19
-8.1149e-19
-8.13842e-19
-7.91885e-19
-8.87816e-19
-8.85487e-19
-8.96712e-19
-8.97384e-19
-8.87193e-19
-8.95707e-19
-8.89898e-19
-8.77352e-19
-8.82881e-19
-8.67404e-19
-8.62073e-19
-8.53778e-19
-8.60705e-19
-8.35644e-19
-8.53614e-19
-8.33933e-19
-8.43968e-19
-7.96695e-19
-8.3065e-19
-7.97287e-19
-8.94143e-19
-8.84068e-19
-8.96097e-19
-8.93284e-19
-8.88979e-19
-8.94797e-19
-8.89642e-19
-8.72211e-19
-8.86969e-19
-8.61905e-19
-8.69469e-19
-8.53398e-19
-8.54839e-19
-8.27423e-19
-8.54762e-19
-8.40893e-19
-8.49954e-19
-8.12608e-19
-8.37603e-19
-8.00663e-19
-8.83569e-19
-8.89421e-19
-8.85376e-19
-8.87786e-19
-8.84262e-19
-8.88236e-19
-8.85284e-19
-8.59853e-19
-8.81915e-19
-8.58309e-19
-8.70111e-19
-8.52343e-19
-8.57673e-19
-8.36926e-19
-8.5881e-19
-8.22965e-19
-8.50245e-19
-8.27475e-19
-8.16591e-19
-7.99656e-19
-8.84537e-19
-8.93568e-19
-8.85075e-19
-8.93111e-19
-8.8231e-19
-8.80529e-19
-8.86306e-19
-8.54913e-19
-8.89084e-19
-8.56462e-19
-8.70316e-19
-8.49011e-19
-8.58472e-19
-8.32941e-19
-8.57311e-19
-8.31168e-19
-8.44943e-19
-8.1958e-19
-8.23958e-19
-8.00922e-19
-8.86225e-19
-8.98291e-19
-8.82685e-19
-8.87185e-19
-8.80049e-19
-8.78591e-19
-8.90149e-19
-8.69854e-19
-8.82256e-19
-8.54469e-19
-8.61456e-19
-8.52063e-19
-8.64797e-19
-8.19963e-19
-8.51794e-19
-8.36372e-19
-8.21873e-19
-8.00864e-19
-8.22185e-19
-8.09893e-19
-8.9142e-19
-8.93669e-19
-8.89869e-19
-8.949e-19
-8.8201e-19
-8.82084e-19
-8.93611e-19
-8.77626e-19
-8.81194e-19
-8.5716e-19
-8.67787e-19
-8.60169e-19
-8.6709e-19
-8.26265e-19
-8.53602e-19
-8.21363e-19
-8.42307e-19
-8.01094e-19
-8.15748e-19
-7.83344e-19
-8.88825e-19
-8.95104e-19
-8.98111e-19
-8.92993e-19
-8.71984e-19
-8.8084e-19
-8.86421e-19
-8.65981e-19
-8.75309e-19
-8.48713e-19
-8.70334e-19
-8.47671e-19
-8.56686e-19
-8.36049e-19
-8.44357e-19
-8.30562e-19
-8.43258e-19
-8.17818e-19
-8.12025e-19
-7.98811e-19
-8.92767e-19
-8.88073e-19
-8.87992e-19
-8.87357e-19
-8.79617e-19
-8.76871e-19
-8.84389e-19
-8.60622e-19
-8.66422e-19
-8.55856e-19
-8.65721e-19
-8.45608e-19
-8.57224e-19
-8.30851e-19
-8.55496e-19
-8.26221e-19
-8.31426e-19
-8.17145e-19
-8.26639e-19
-8.04974e-19
-8.87969e-19
-8.95045e-19
-8.86452e-19
-8.8906e-19
-8.81391e-19
-8.7823e-19
-8.84747e-19
-8.65618e-19
-8.77705e-19
-8.60883e-19
-8.63428e-19
-8.48227e-19
-8.64372e-19
-8.22842e-19
-8.45945e-19
-8.1815e-19
-8.32664e-19
-8.0217e-19
-8.17439e-19
-8.17247e-19
-8.83985e-19
-8.95465e-19
-8.81814e-19
-8.82747e-19
-8.77495e-19
-8.87578e-19
-8.83097e-19
-8.66895e-19
-8.77302e-19
-8.65259e-19
-8.61654e-19
-8.44461e-19
-8.60758e-19
-8.32189e-19
-8.44712e-19
-8.18585e-19
-8.32375e-19
-8.05042e-19
-8.12858e-19
-8.0054e-19
-8.86137e-19
-8.92511e-19
-8.86379e-19
-8.76699e-19
-8.81417e-19
-8.80864e-19
-8.84537e-19
-8.72832e-19
-8.7209e-19
-8.58504e-19
-8.57584e-19
-8.5065e-19
-8.66515e-19
-8.29534e-19
-8.45873e-19
-8.23313e-19
-8.30495e-19
-8.083e-19
-8.15381e-19
-7.97005e-19
-8.86301e-19
-8.94003e-19
-8.89636e-19
-8.79767e-19
-8.84082e-19
-8.75466e-19
-8.83721e-19
-8.73015e-19
-8.68618e-19
-8.59518e-19
-8.49735e-19
-8.42857e-19
-8.6163e-19
-8.37514e-19
-8.59952e-19
-8.25863e-19
-8.35985e-19
-8.14715e-19
-8.13224e-19
-8.04544e-19
-8.84513e-19
-8.95811e-19
-8.93001e-19
-8.74434e-19
-8.8705e-19
-8.65702e-19
-8.8211e-19
-8.69059e-19
-8.66639e-19
-8.53948e-19
-8.52447e-19
-8.42396e-19
-8.60561e-19
-8.39035e-19
-8.56942e-19
-8.25957e-19
-8.31756e-19
-8.10195e-19
-8.17736e-19
-7.97647e-19
-8.83387e-19
-8.99284e-19
-8.91484e-19
-8.81485e-19
-8.8693e-19
-8.74727e-19
-8.78668e-19
-8.7664e-19
-8.68846e-19
-8.53396e-19
-8.57953e-19
-8.4639e-19
-8.50115e-19
-8.36988e-19
-8.40936e-19
-8.12378e-19
-8.37258e-19
-8.17831e-19
-8.06188e-19
-7.99157e-19
-8.85401e-19
-8.99425e-19
-8.93936e-19
-8.81581e-19
-8.84674e-19
-8.79357e-19
-8.76707e-19
-8.76544e-19
-8.68637e-19
-8.54962e-19
-8.689e-19
-8.42244e-19
-8.49126e-19
-8.32044e-19
-8.50033e-19
-8.14261e-19
-8.34885e-19
-8.16358e-19
-8.19915e-19
-8.12864e-19
-8.85394e-19
-8.92365e-19
-8.92689e-19
-8.72365e-19
-8.90322e-19
-8.82587e-19
-8.74706e-19
-8.74098e-19
-8.6985e-19
-8.58415e-19
-8.67972e-19
-8.3108e-19
-8.60028e-19
-8.22579e-19
-8.3394e-19
-8.17379e-19
-8.35826e-19
-8.05771e-19
-8.18842e-19
-8.00661e-19
-8.83573e-19
-8.85559e-19
-8.8943e-19
-8.80024e-19
-8.8643e-19
-8.83266e-19
-8.75075e-19
-8.75529e-19
-8.66203e-19
-8.48858e-19
-8.61864e-19
-8.36058e-19
-8.57341e-19
-8.24527e-19
-8.35961e-19
-7.98785e-19
-8.40254e-19
-8.11571e-19
-8.11053e-19
-7.99317e-19
-8.8882e-19
-8.9126e-19
-8.82791e-19
-8.82251e-19
-8.77834e-19
-8.80338e-19
-8.75248e-19
-8.7097e-19
-8.64016e-19
-8.54788e-19
-8.56681e-19
-8.2771e-19
-8.59533e-19
-8.29204e-19
-8.41356e-19
-8.01903e-19
-8.31517e-19
-8.05833e-19
-8.14468e-19
-8.00132e-19
-8.8496e-19
-8.94671e-19
-8.87122e-19
-8.83307e-19
-8.72875e-19
-8.72731e-19
-8.7541e-19
-8.72627e-19
-8.60701e-19
-8.55557e-19
-8.64345e-19
-8.37586e-19
-8.50887e-19
-8.25748e-19
-8.41745e-19
-8.20377e-19
-8.35869e-19
-8.04362e-19
-8.30194e-19
-7.92324e-19
-8.87871e-19
-8.97197e-19
-8.86471e-19
-8.85704e-19
-8.84694e-19
-8.71205e-19
-8.75688e-19
-8.64822e-19
-8.60899e-19
-8.50052e-19
-8.65462e-19
-8.35759e-19
-8.49043e-19
-8.15606e-19
-8.42921e-19
-8.22484e-19
-8.25656e-19
-8.08948e-19
-8.23367e-19
-7.91865e-19
-8.89007e-19
-8.90528e-19
-8.89215e-19
-8.77331e-19
-8.84685e-19
-8.70524e-19
-8.72703e-19
-8.66492e-19
-8.63602e-19
-8.48834e-19
-8.59193e-19
-8.39034e-19
-8.50468e-19
-8.25564e-19
-8.41467e-19
-8.2293e-19
-8.24102e-19
-8.10601e-19
-8.24414e-19
-7.99841e-19
-8.83865e-19
-8.95821e-19
-8.88594e-19
-8.78124e-19
-8.93346e-19
-8.78938e-19
-8.75793e-19
-8.69258e-19
-8.66498e-19
-8.57648e-19
-8.55907e-19
-8.33543e-19
-8.36311e-19
-8.14982e-19
-8.4064e-19
-8.16113e-19
-8.26288e-19
-8.10626e-19
-8.30709e-19
-8.00894e-19
-8.89683e-19
-8.76595e-19
-8.81225e-19
-8.68454e-19
-8.7178e-19
-8.52392e-19
-8.62233e-19
-8.40275e-19
-8.38774e-19
-8.1055e-19
-8.27028e-19
-8.07661e-19
-8.14194e-19
-8.10081e-19
-8.28771e-19
-8.07496e-19
-8.69423e-19
-8.47825e-19
-8.56585e-19
-8.4544e-19
-8.40541e-19
-8.245e-19
-8.13028e-19
-7.97814e-19
-8.22578e-19
-8.10284e-19
-8.28625e-19
-8.0307e-19
-7.28444e-19
-7.30474e-19
-7.13614e-19
-7.35642e-19
-7.21088e-19
-7.33236e-19
-7.27482e-19
-7.47541e-19
-7.18998e-19
-7.30942e-19
-7.53388e-19
-7.26833e-19
-7.28159e-19
-7.44385e-19
-7.17988e-19
-7.3709e-19
-7.30273e-19
-7.39032e-19
-7.3639e-19
-7.52792e-19
-7.37645e-19
-7.36733e-19
-7.29741e-19
-7.52484e-19
-7.37682e-19
-7.33088e-19
-7.33038e-19
-7.47076e-19
-7.39174e-19
-7.34737e-19
-7.44956e-19
-7.35589e-19
-7.35585e-19
-7.36184e-19
-7.27142e-19
-7.4205e-19
-7.35525e-19
-7.47864e-19
-7.42255e-19
-7.21936e-19
-7.28766e-19
-7.39375e-19
-7.57268e-19
-7.47313e-19
-7.20393e-19
-7.34331e-19
-7.3476e-19
-7.62723e-19
-7.39468e-19
-7.17149e-19
-7.61166e-19
-7.38365e-19
-7.49015e-19
-7.36693e-19
-7.24533e-19
-7.58432e-19
-7.42143e-19
-7.51706e-19
-7.46939e-19
-7.56537e-19
-7.32814e-19
-7.64202e-19
-7.44255e-19
-7.58888e-19
-7.38173e-19
-7.52637e-19
-7.21916e-19
-7.61973e-19
-7.42538e-19
-7.5914e-19
-7.36593e-19
-7.52627e-19
-7.31493e-19
-7.40341e-19
-7.50671e-19
-7.51026e-19
-7.59763e-19
-7.43504e-19
-7.52868e-19
-7.51261e-19
-7.47366e-19
-7.35209e-19
-7.60934e-19
-7.48504e-19
-7.61532e-19
-7.55993e-19
-7.44926e-19
-7.62151e-19
-7.41951e-19
-7.41269e-19
-7.36304e-19
-7.61086e-19
-7.43191e-19
-7.53918e-19
-7.3607e-19
-7.47549e-19
-7.57728e-19
-7.34022e-19
-7.30917e-19
-7.4899e-19
-7.38649e-19
-7.533e-19
-7.44936e-19
-7.58056e-19
-7.28455e-19
-7.45041e-19
-7.48266e-19
-7.47056e-19
-7.45113e-19
-7.55376e-19
-7.37854e-19
-7.63078e-19
-7.60488e-19
-7.64134e-19
-7.48689e-19
-7.5497e-19
-7.54073e-19
-7.53119e-19
-7.53547e-19
-7.63092e-19
-7.43109e-19
-7.52756e-19
-7.51101e-19
-7.54559e-19
-7.44651e-19
-7.55307e-19
-7.58209e-19
-7.50814e-19
-7.56456e-19
-7.68777e-19
-7.47474e-19
-7.56065e-19
-7.51319e-19
-7.50452e-19
-7.47827e-19
-7.4141e-19
-7.5941e-19
-7.57679e-19
-7.59045e-19
-7.62829e-19
-7.52905e-19
-7.58453e-19
-7.41922e-19
-7.54292e-19
-7.49609e-19
-7.41051e-19
-7.54955e-19
-7.56329e-19
-7.55147e-19
-7.64309e-19
-7.5228e-19
-7.55419e-19
-7.58029e-19
-7.52578e-19
-7.42103e-19
-7.47569e-19
-7.65263e-19
-7.53563e-19
-7.58725e-19
-7.63752e-19
-7.61239e-19
-7.38457e-19
-7.72575e-19
-7.48258e-19
-7.41711e-19
-7.51902e-19
-7.59611e-19
-7.54828e-19
-7.59126e-19
-7.68925e-19
-7.52363e-19
-7.39355e-19
-7.57151e-19
-7.44921e-19
-7.33052e-19
-7.48647e-19
-7.56018e-19
-7.5723e-19
-7.54735e-19
-7.63026e-19
-7.45897e-19
-7.54149e-19
-7.4608e-19
-7.48952e-19
-7.41558e-19
-7.47282e-19
-7.49683e-19
-7.50663e-19
-7.5453e-19
-7.6444e-19
-7.4648e-19
-7.50188e-19
-7.46635e-19
-7.47233e-19
-7.49522e-19
-7.46169e-19
-7.4645e-19
-7.54452e-19
-7.511e-19
-7.70111e-19
-7.39642e-19
-7.52203e-19
-7.5575e-19
-7.49889e-19
-7.4594e-19
-7.40588e-19
-7.47347e-19
-7.54156e-19
-7.58677e-19
-7.71463e-19
-7.60318e-19
-7.53043e-19
-7.62228e-19
-7.41044e-19
-7.55398e-19
-7.36149e-19
-7.46734e-19
-7.58252e-19
-7.5723e-19
-7.61096e-19
-7.28753e-19
-7.42229e-19
-7.35536e-19
-7.31052e-19
-7.31396e-19
-7.33745e-19
-7.33259e-19
-7.27434e-19
-7.28782e-19
-7.36667e-19
-7.42903e-19
-7.52125e-19
-7.58915e-19
-7.67532e-19
-7.63953e-19
-7.56131e-19
-7.62511e-19
-7.44919e-19
-7.57691e-19
-7.57564e-19
-7.5645e-19
-7.60525e-19
-7.52364e-19
-7.46943e-19
-7.4062e-19
-7.42076e-19
-7.34147e-19
-7.4275e-19
-7.49101e-19
-7.5146e-19
-7.59944e-19
-7.39687e-19
-7.23148e-19
-7.196e-19
-7.33199e-19
-7.1493e-19
-7.08423e-19
-7.18718e-19
-7.25625e-19
-7.29897e-19
-7.37986e-19
-7.31275e-19
-7.3393e-19
-7.5531e-19
-7.43845e-19
-7.17046e-19
-7.23576e-19
-7.18033e-19
-7.21864e-19
-7.36117e-19
-7.27038e-19
-7.27831e-19
-7.3291e-19
-7.26397e-19
-7.37731e-19
-7.35145e-19
-7.3185e-19
-7.33849e-19
-7.50911e-19
-7.51247e-19
-7.37394e-19
-7.42109e-19
-7.40672e-19
-7.40192e-19
-7.35544e-19
-7.31321e-19
-7.29515e-19
-7.32349e-19
-7.36868e-19
-7.36229e-19
-7.43772e-19
-7.2476e-19
-7.32177e-19
-7.3089e-19
-7.35418e-19
-7.36159e-19
-7.34606e-19
-7.40803e-19
-7.34721e-19
-7.31518e-19
-7.34588e-19
-7.44591e-19
-7.39244e-19
-7.41881e-19
-7.47641e-19
-7.48246e-19
-7.33865e-19
-7.41529e-19
-7.38334e-19
-7.48019e-19
-7.36944e-19
-7.21668e-19
-7.36744e-19
-7.47746e-19
-7.45944e-19
-7.37268e-19
-7.34338e-19
-7.46464e-19
-7.39345e-19
-7.31108e-19
-7.32354e-19
-7.34999e-19
-7.49457e-19
-7.08619e-19
-7.17843e-19
-7.14011e-19
-7.14048e-19
-7.22026e-19
-7.15852e-19
-7.11042e-19
-7.14774e-19
-7.22587e-19
-7.35235e-19
-7.24249e-19
-7.16395e-19
-7.12704e-19
-7.30206e-19
-7.28286e-19
-7.22734e-19
-7.26626e-19
-7.25282e-19
-7.24538e-19
-7.33217e-19
-7.30327e-19
-7.27313e-19
-7.33736e-19
-7.36521e-19
-7.33152e-19
-7.35603e-19
-7.40794e-19
-7.45217e-19
-7.39616e-19
-7.40069e-19
-7.36449e-19
-7.43109e-19
-7.46329e-19
-7.32137e-19
-7.29416e-19
-7.25772e-19
-7.2874e-19
-7.38329e-19
-7.29747e-19
-7.22426e-19
-7.25428e-19
-7.23511e-19
-7.22558e-19
-7.20355e-19
-7.17373e-19
-7.21432e-19
-7.26346e-19
-7.3333e-19
-7.2715e-19
-7.23018e-19
-7.32465e-19
-7.36462e-19
-7.25752e-19
-7.35103e-19
-7.40124e-19
-7.36e-19
-7.24405e-19
-7.43393e-19
-7.5154e-19
-7.31705e-19
-7.34307e-19
-7.31071e-19
-7.29111e-19
-7.36379e-19
-7.36241e-19
-7.44089e-19
-7.34423e-19
-7.24965e-19
-7.2818e-19
-7.25303e-19
-7.23288e-19
-7.15095e-19
-7.11505e-19
-7.23507e-19
-7.23237e-19
-7.22808e-19
-7.16694e-19
-7.171e-19
-7.17645e-19
-7.21869e-19
-7.3476e-19
-7.35257e-19
-7.16955e-19
-7.20675e-19
-7.06512e-19
-7.18568e-19
-7.25424e-19
-7.2591e-19
-7.23153e-19
-7.14349e-19
-7.2221e-19
-7.26049e-19
-7.27229e-19
-7.23657e-19
-7.31856e-19
-7.29427e-19
-7.30362e-19
-7.18639e-19
-7.19423e-19
-7.3262e-19
-7.3054e-19
-7.29118e-19
-7.23715e-19
-7.26044e-19
-7.26435e-19
-7.26583e-19
-7.29732e-19
-7.30185e-19
-7.19616e-19
-7.31521e-19
-7.22192e-19
-7.23303e-19
-7.26147e-19
-7.27988e-19
-7.32629e-19
-7.24251e-19
-7.10885e-19
-7.16163e-19
-7.19928e-19
-7.15965e-19
-7.21118e-19
-7.29712e-19
-7.17056e-19
-7.15259e-19
-7.16029e-19
-7.27253e-19
-7.22092e-19
-7.22981e-19
-7.22755e-19
-7.21671e-19
-7.30921e-19
-7.37645e-19
-7.21272e-19
-7.11971e-19
-7.18204e-19
-7.28181e-19
-7.21631e-19
-7.17119e-19
-7.14149e-19
-7.1841e-19
-7.07993e-19
-7.10315e-19
-7.17895e-19
-7.2212e-19
-7.24615e-19
-7.2433e-19
-7.2407e-19
-7.1818e-19
-7.12407e-19
-7.06096e-19
-7.08659e-19
-7.13406e-19
-7.24267e-19
-7.19419e-19
-7.18015e-19
-7.21291e-19
-7.30831e-19
-7.11921e-19
-7.16612e-19
-7.14362e-19
-6.97282e-19
-7.034e-19
-7.16039e-19
-7.09198e-19
-7.11896e-19
-7.14926e-19
-7.08966e-19
-7.15844e-19
-7.03245e-19
-7.14393e-19
-7.15563e-19
-7.20699e-19
-7.25403e-19
-7.32397e-19
-7.21339e-19
-7.16807e-19
-7.20283e-19
-7.16157e-19
-7.17242e-19
-7.19893e-19
-7.18601e-19
-7.16371e-19
-7.2316e-19
-7.1823e-19
-7.18967e-19
-7.15385e-19
-7.15835e-19
-7.148e-19
-7.1646e-19
-7.11681e-19
-7.18079e-19
-7.15679e-19
-7.12248e-19
-7.0413e-19
-7.11803e-19
-7.19087e-19
-7.11458e-19
-7.18406e-19
-7.34148e-19
-7.14771e-19
-7.07406e-19
-7.06396e-19
-7.08744e-19
-7.17096e-19
-7.23912e-19
-7.29735e-19
-7.23017e-19
-7.19344e-19
-7.14481e-19
-7.14691e-19
-7.21942e-19
-7.24299e-19
-7.35441e-19
-7.23158e-19
-7.17902e-19
-7.1137e-19
-7.09383e-19
-7.14829e-19
-7.12289e-19
-7.12478e-19
-7.1709e-19
-7.17184e-19
-7.20181e-19
-7.1337e-19
-7.15394e-19
-7.14558e-19
-7.19353e-19
-7.1332e-19
-7.04545e-19
-7.02178e-19
-6.97788e-19
-7.02028e-19
-7.19671e-19
-7.26769e-19
-7.20862e-19
-7.18134e-19
-7.17612e-19
-7.16911e-19
-7.16407e-19
-7.13699e-19
-7.06957e-19
-7.05282e-19
-7.13823e-19
-7.17908e-19
-7.12316e-19
-7.11188e-19
-7.23905e-19
-7.22914e-19
-7.15713e-19
-7.15646e-19
-7.18751e-19
-7.28546e-19
-7.2091e-19
-7.13461e-19
-7.11213e-19
-7.15524e-19
-7.13774e-19
-7.15597e-19
-7.10346e-19
-7.15961e-19
-7.14178e-19
-7.07859e-19
-7.05093e-19
-7.13596e-19
-7.13528e-19
-7.1233e-19
-7.12498e-19
-7.14044e-19
-7.14414e-19
-7.04464e-19
-7.06457e-19
-7.18764e-19
-7.17185e-19
-7.1368e-19
-7.24054e-19
-7.22098e-19
-7.21083e-19
-7.16845e-19
-7.18483e-19
-7.20241e-19
-7.24894e-19
-7.18975e-19
-7.14076e-19
-7.13386e-19
-7.14158e-19
-7.09488e-19
-7.1326e-19
-7.18156e-19
-7.16425e-19
-7.16342e-19
-7.2791e-19
-7.17521e-19
-7.05267e-19
-7.08598e-19
-7.13149e-19
-7.04771e-19
-7.00427e-19
-7.06193e-19
-7.08222e-19
-7.12573e-19
-7.22679e-19
-7.08294e-19
-7.08311e-19
-7.03678e-19
-7.05768e-19
-7.09097e-19
-7.14848e-19
-7.12504e-19
-7.12815e-19
-7.08049e-19
-7.2592e-19
-7.22837e-19
-7.20436e-19
-7.17742e-19
-7.1401e-19
-7.21169e-19
-7.20562e-19
-7.20892e-19
-7.25632e-19
-7.38292e-19
-7.34169e-19
-7.21305e-19
-7.16903e-19
-7.09054e-19
-7.13141e-19
-7.09969e-19
-7.18667e-19
-7.22687e-19
-7.22352e-19
-7.19893e-19
-7.19272e-19
-7.14467e-19
-7.11737e-19
-7.15588e-19
-7.05825e-19
-7.16156e-19
-7.19108e-19
-7.14922e-19
-7.17134e-19
-7.21156e-19
-7.15394e-19
-7.07205e-19
-7.02459e-19
-7.14521e-19
-7.11526e-19
-7.11248e-19
-7.12496e-19
-7.09867e-19
-7.26015e-19
-7.21336e-19
-7.23721e-19
-7.27036e-19
-7.1894e-19
-7.12346e-19
-7.1633e-19
-7.25268e-19
-7.18352e-19
-7.15696e-19
-7.18907e-19
-7.15596e-19
-7.24571e-19
-7.14479e-19
-7.13256e-19
-7.08296e-19
-7.12262e-19
-7.24805e-19
-7.18557e-19
-7.17108e-19
-7.13505e-19
-7.07545e-19
-7.08792e-19
-7.18443e-19
-7.15478e-19
-7.18259e-19
-7.09723e-19
-7.00311e-19
-7.18975e-19
-7.12399e-19
-6.95278e-19
-6.98251e-19
-7.11327e-19
-7.09979e-19
-7.02893e-19
-7.0726e-19
-7.08362e-19
-7.18803e-19
-7.17837e-19
-7.18574e-19
-7.25353e-19
-7.25333e-19
-7.25429e-19
-7.24822e-19
-7.24585e-19
-7.22041e-19
-7.21343e-19
-7.26449e-19
-7.25969e-19
-7.20789e-19
-7.21166e-19
-7.1996e-19
-7.27527e-19
-7.34442e-19
-7.2611e-19
-7.23789e-19
-7.25406e-19
-7.29262e-19
-7.24184e-19
-7.26521e-19
-7.31084e-19
-7.2694e-19
-7.34151e-19
-7.31554e-19
-7.28607e-19
-7.23809e-19
-7.26243e-19
-7.26127e-19
-7.28467e-19
-7.25107e-19
-7.19755e-19
-7.20527e-19
-7.23405e-19
-7.203e-19
-7.19693e-19
-7.17764e-19
-7.26158e-19
-7.29792e-19
-7.22798e-19
-7.29508e-19
-7.28266e-19
-7.26984e-19
-7.26337e-19
-7.31716e-19
-7.24606e-19
-7.17619e-19
-7.22627e-19
-7.28683e-19
-7.26087e-19
-7.19542e-19
-7.13164e-19
-7.17182e-19
-7.20289e-19
-7.24862e-19
-7.19875e-19
-7.2893e-19
-7.26786e-19
-7.25688e-19
-7.25738e-19
-7.22082e-19
-7.26883e-19
-7.32751e-19
-7.2856e-19
-7.24298e-19
-7.16756e-19
-7.15559e-19
-7.08296e-19
-7.09827e-19
-7.14671e-19
-7.02909e-19
-7.25581e-19
-7.223e-19
-7.30789e-19
-7.36061e-19
-7.29369e-19
-7.31219e-19
-7.33006e-19
-7.23851e-19
-7.28177e-19
-7.25522e-19
-7.22517e-19
-7.28475e-19
-7.35116e-19
-7.32254e-19
-7.33986e-19
-7.35168e-19
-7.30873e-19
-7.28097e-19
-7.19256e-19
-7.13754e-19
-7.2601e-19
-7.30647e-19
-7.35617e-19
-7.34954e-19
-7.35088e-19
-7.28444e-19
-7.34399e-19
-7.35011e-19
-7.34954e-19
-7.38539e-19
-7.30441e-19
-7.24708e-19
-7.26433e-19
-7.24809e-19
-7.29239e-19
-7.33009e-19
-7.18846e-19
-7.22979e-19
-7.34356e-19
-7.33221e-19
-7.34185e-19
-7.25477e-19
-7.25562e-19
-7.19734e-19
-7.24539e-19
-7.25655e-19
-7.2739e-19
-7.25276e-19
-7.19824e-19
-7.19715e-19
-7.23374e-19
-7.20676e-19
-7.27128e-19
-7.21619e-19
-7.09215e-19
-7.18477e-19
-7.2331e-19
-7.27601e-19
-7.24954e-19
-7.23016e-19
-7.21786e-19
-7.24535e-19
-7.14796e-19
-7.18504e-19
-7.16759e-19
-7.16556e-19
-7.18327e-19
-7.18087e-19
-7.17222e-19
-7.17057e-19
-7.12073e-19
-7.28123e-19
-7.29878e-19
-7.36399e-19
-7.32276e-19
-7.33956e-19
-7.28211e-19
-7.2574e-19
-7.21254e-19
-7.19355e-19
-7.28359e-19
-7.40264e-19
-7.39125e-19
-7.32271e-19
-7.31686e-19
-7.31905e-19
-7.27609e-19
-7.30043e-19
-7.34443e-19
-7.35762e-19
-7.2739e-19
-7.33984e-19
-7.3665e-19
-7.32788e-19
-7.30031e-19
-7.31407e-19
-7.32154e-19
-7.34221e-19
-7.36141e-19
-7.29269e-19
-7.31895e-19
-7.31419e-19
-7.33224e-19
-7.35953e-19
-7.31733e-19
-7.31811e-19
-7.41606e-19
-7.43108e-19
-7.34343e-19
-7.34963e-19
-7.40269e-19
-7.3364e-19
-7.35854e-19
-7.45623e-19
-7.40054e-19
-7.29135e-19
-7.34709e-19
-7.30001e-19
-7.25721e-19
-7.31794e-19
-7.29606e-19
-7.31401e-19
-7.20264e-19
-7.18146e-19
-7.19553e-19
-7.19966e-19
-7.17744e-19
-7.15828e-19
-7.09553e-19
-7.13961e-19
-7.11394e-19
-7.10601e-19
-7.18553e-19
-7.11084e-19
-7.09446e-19
-7.13571e-19
-7.15474e-19
-7.15191e-19
-7.1685e-19
-7.27089e-19
-7.28622e-19
-7.26405e-19
-7.22434e-19
-7.26684e-19
-7.27909e-19
-7.27492e-19
-7.23745e-19
-7.20767e-19
-7.23036e-19
-7.1835e-19
-7.21394e-19
-7.21297e-19
-7.21798e-19
-7.24683e-19
-7.20295e-19
-7.25264e-19
-7.26511e-19
-7.29683e-19
-7.33929e-19
-7.31486e-19
-7.30068e-19
-7.3275e-19
-7.27609e-19
-7.23565e-19
-7.24575e-19
-7.27745e-19
-7.33347e-19
-7.34283e-19
-7.26771e-19
-7.2305e-19
-7.26627e-19
-7.21145e-19
-7.25166e-19
-7.52697e-19
-7.34609e-19
-7.29807e-19
-7.3344e-19
-7.30552e-19
-7.36236e-19
-7.4051e-19
-7.29119e-19
-7.29579e-19
-7.26847e-19
-7.2975e-19
-7.29756e-19
-7.3218e-19
-7.37492e-19
-7.25307e-19
-7.26968e-19
-7.25642e-19
-7.26287e-19
-7.17112e-19
-7.18264e-19
-7.19751e-19
-7.18517e-19
-7.14683e-19
-7.18587e-19
-7.1857e-19
-7.17769e-19
-7.14893e-19
-7.14236e-19
-7.12595e-19
-7.14064e-19
-7.18893e-19
-7.21991e-19
-7.23543e-19
-7.26591e-19
-7.35702e-19
-7.31745e-19
-7.25286e-19
-7.27341e-19
-7.36372e-19
-7.29855e-19
-7.30323e-19
-7.30269e-19
-7.29599e-19
-7.28864e-19
-7.27925e-19
-7.23233e-19
-7.23288e-19
-7.2617e-19
-7.25905e-19
-7.20371e-19
-7.25649e-19
-7.28881e-19
-7.30687e-19
-7.34528e-19
-7.33118e-19
-7.34193e-19
-7.31891e-19
-7.3501e-19
-7.28778e-19
-7.23242e-19
-7.25417e-19
-7.26686e-19
-7.2703e-19
-7.24865e-19
-7.22827e-19
-7.19337e-19
-7.22085e-19
-7.39872e-19
-7.39479e-19
-7.37422e-19
-7.36155e-19
-7.3342e-19
-7.30206e-19
-7.38371e-19
-7.40096e-19
-7.33728e-19
-7.31593e-19
-7.29501e-19
-7.25089e-19
-7.20686e-19
-7.20909e-19
-7.28824e-19
-7.33299e-19
-7.31875e-19
-7.35453e-19
-7.32858e-19
-7.24022e-19
-7.2543e-19
-7.22911e-19
-7.22621e-19
-7.21579e-19
-7.2254e-19
-7.19959e-19
-7.19848e-19
-7.25004e-19
-7.31152e-19
-7.27651e-19
-7.28156e-19
-7.32752e-19
-7.30865e-19
-7.42754e-19
-7.40614e-19
-7.39026e-19
-7.37347e-19
-7.34011e-19
-7.28645e-19
-7.31175e-19
-7.31058e-19
-7.34118e-19
-7.40493e-19
-7.28072e-19
-7.29811e-19
-7.31873e-19
-7.30969e-19
-7.29903e-19
-7.36949e-19
-7.34847e-19
-7.32982e-19
-7.34311e-19
-7.37516e-19
-7.33607e-19
-7.3335e-19
-7.35148e-19
-7.33186e-19
-7.30411e-19
-7.2808e-19
-7.34555e-19
-7.30208e-19
-7.35941e-19
-7.32458e-19
-7.37256e-19
-7.3284e-19
-7.36597e-19
-7.37655e-19
-7.43387e-19
-7.37752e-19
-7.39962e-19
-7.42814e-19
-7.33147e-19
-7.36205e-19
-7.41095e-19
-7.35578e-19
-7.33307e-19
-7.32902e-19
-7.34066e-19
-7.36845e-19
-7.31274e-19
-7.25825e-19
-7.29975e-19
-7.33769e-19
-7.37344e-19
-7.33342e-19
-7.31045e-19
-7.30248e-19
-7.29285e-19
-7.26531e-19
-7.29291e-19
-7.30601e-19
-7.27705e-19
-7.20284e-19
-7.29013e-19
-7.33285e-19
-7.35037e-19
-7.36867e-19
-7.51082e-19
-7.3958e-19
-7.39375e-19
-7.37e-19
-7.45554e-19
-7.42953e-19
-7.41092e-19
-7.395e-19
-7.37677e-19
-7.37597e-19
-7.39394e-19
-7.3807e-19
-7.406e-19
-7.32169e-19
-7.21743e-19
-7.31945e-19
-7.3873e-19
-7.33032e-19
-7.2721e-19
-7.30501e-19
-7.32254e-19
-7.32543e-19
-7.3147e-19
-7.27695e-19
-7.30746e-19
-7.3195e-19
-7.317e-19
-7.30312e-19
-7.26186e-19
-7.29792e-19
-7.31606e-19
-7.47295e-19
-7.46142e-19
-7.43897e-19
-7.43488e-19
-7.43265e-19
-7.42824e-19
-7.42603e-19
-7.42214e-19
-7.41326e-19
-7.40336e-19
-7.39484e-19
-7.34835e-19
-7.27698e-19
-7.42584e-19
-7.35651e-19
-7.35331e-19
-7.3594e-19
-7.33987e-19
-7.28257e-19
-7.29688e-19
-7.33105e-19
-7.32917e-19
-7.30944e-19
-7.40405e-19
-7.43043e-19
-7.37764e-19
-7.35776e-19
-7.32727e-19
-7.35483e-19
-7.40109e-19
-7.46606e-19
-7.44336e-19
-7.42143e-19
-7.50751e-19
-7.47706e-19
-7.44191e-19
-7.39955e-19
-7.47175e-19
-7.53287e-19
-7.47165e-19
-7.41334e-19
-7.46051e-19
-7.47705e-19
-7.48259e-19
-7.53317e-19
-7.51056e-19
-7.5425e-19
-7.55294e-19
-7.50993e-19
-7.46278e-19
-7.56138e-19
-7.48709e-19
-7.42123e-19
-7.40621e-19
-7.38016e-19
-7.35193e-19
-7.31793e-19
-7.30803e-19
-7.26716e-19
-7.26368e-19
-7.2966e-19
-7.28617e-19
-7.56421e-19
-7.52896e-19
-7.54806e-19
-7.59097e-19
-7.56266e-19
-7.62467e-19
-7.6723e-19
-7.55562e-19
-7.49948e-19
-7.44645e-19
-7.44646e-19
-7.49427e-19
-7.47206e-19
-7.43162e-19
-7.56674e-19
-7.49244e-19
-7.51622e-19
-7.43e-19
-7.51652e-19
-7.53059e-19
-7.45399e-19
-7.37629e-19
-7.41376e-19
-7.43793e-19
-7.46898e-19
-7.40955e-19
-7.3752e-19
-7.36245e-19
-7.33053e-19
-7.30602e-19
-7.39199e-19
-7.43174e-19
-7.46658e-19
-7.53519e-19
-7.61862e-19
-7.4903e-19
-7.50395e-19
-7.55902e-19
-7.5114e-19
-7.49495e-19
-7.49461e-19
-7.51312e-19
-7.53166e-19
-7.49726e-19
-7.49386e-19
-7.51057e-19
-7.44427e-19
-7.4414e-19
-7.38774e-19
-7.42468e-19
-7.47488e-19
-7.48445e-19
-7.46928e-19
-7.37236e-19