/*--------------------------------*- C++ -*----------------------------------*\
  =========                 |
  \\      /  F ield         | OpenFOAM: The Open Source CFD Toolbox
   \\    /   O peration     | Website:  https://openfoam.org
    \\  /    A nd           | Version:  7
     \\/     M anipulation  |
\*---------------------------------------------------------------------------*/
FoamFile
{
    version     2.0;
    format      ascii;
    class       volScalarField;
    location    "80000";
    object      nu;
}
// * * * * * * * * * * * * * * * * * * * * * * * * * * * * * * * * * * * * * //

dimensions      [0 2 -1 0 0 0 0];

internalField   nonuniform List<scalar> 
4850
(
1.25692e-05
1.29831e-05
1.21818e-05
1.25566e-05
1.27665e-05
1.18257e-05
1.21669e-05
1.23587e-05
1.25533e-05
1.275e-05
1.14965e-05
1.18085e-05
1.19849e-05
1.21633e-05
1.23432e-05
1.25241e-05
1.11906e-05
1.14771e-05
1.16402e-05
1.18047e-05
1.19701e-05
1.21361e-05
1.2302e-05
1.09052e-05
1.11692e-05
1.13206e-05
1.14731e-05
1.16261e-05
1.17792e-05
1.19318e-05
1.20835e-05
1.22334e-05
1.06377e-05
1.08819e-05
1.10231e-05
1.1165e-05
1.13071e-05
1.14491e-05
1.15903e-05
1.17302e-05
1.18684e-05
1.2004e-05
1.03862e-05
1.06127e-05
1.07449e-05
1.08775e-05
1.10101e-05
1.11423e-05
1.12735e-05
1.14033e-05
1.15311e-05
1.16564e-05
1.17786e-05
1.18972e-05
1.20112e-05
1.21202e-05
1.01489e-05
1.03596e-05
1.04839e-05
1.06082e-05
1.07323e-05
1.08558e-05
1.09783e-05
1.10992e-05
1.12181e-05
1.13344e-05
1.14477e-05
1.15574e-05
1.16627e-05
1.17632e-05
1.18581e-05
1.1947e-05
1.20291e-05
1.21038e-05
9.92442e-06
1.01209e-05
1.0238e-05
1.0355e-05
1.04716e-05
1.05874e-05
1.07021e-05
1.08152e-05
1.09261e-05
1.10346e-05
1.11401e-05
1.1242e-05
1.13398e-05
1.14329e-05
1.15208e-05
1.16029e-05
1.16788e-05
1.17477e-05
1.18093e-05
1.1863e-05
9.7115e-06
9.89525e-06
1.00058e-05
1.01162e-05
1.02261e-05
1.03351e-05
1.04428e-05
1.05489e-05
1.06529e-05
1.07544e-05
1.0853e-05
1.09481e-05
1.10393e-05
1.1126e-05
1.12077e-05
1.1284e-05
1.13544e-05
1.14182e-05
1.14752e-05
1.1525e-05
1.1567e-05
1.1601e-05
1.16268e-05
1.16441e-05
9.50911e-06
9.68132e-06
9.78598e-06
9.89036e-06
9.99415e-06
1.0097e-05
1.01985e-05
1.02984e-05
1.03962e-05
1.04915e-05
1.0584e-05
1.06731e-05
1.07584e-05
1.08395e-05
1.09158e-05
1.0987e-05
1.10525e-05
1.1112e-05
1.1165e-05
1.12112e-05
1.12503e-05
1.12818e-05
1.13057e-05
1.13218e-05
1.13298e-05
1.13299e-05
1.13218e-05
1.13057e-05
1.12818e-05
9.31635e-06
9.47809e-06
9.57739e-06
9.67632e-06
9.77457e-06
9.87186e-06
9.96781e-06
1.00621e-05
1.01543e-05
1.02441e-05
1.03311e-05
1.04148e-05
1.04949e-05
1.0571e-05
1.06425e-05
1.07091e-05
1.07704e-05
1.0826e-05
1.08755e-05
1.09187e-05
1.09551e-05
1.09845e-05
1.10068e-05
1.10218e-05
1.10293e-05
1.10293e-05
1.10218e-05
1.10068e-05
1.09845e-05
1.0955e-05
1.09186e-05
1.08756e-05
9.13237e-06
9.28458e-06
9.37899e-06
9.47296e-06
9.56619e-06
9.65841e-06
9.74932e-06
9.83854e-06
9.92574e-06
1.00105e-05
1.00926e-05
1.01715e-05
1.0247e-05
1.03185e-05
1.03858e-05
1.04483e-05
1.05058e-05
1.05579e-05
1.06044e-05
1.06448e-05
1.06788e-05
1.07064e-05
1.07273e-05
1.07413e-05
1.07483e-05
1.07483e-05
1.07413e-05
1.07273e-05
1.07064e-05
1.06789e-05
1.06448e-05
1.06045e-05
1.05581e-05
1.0506e-05
8.95646e-06
9.09995e-06
9.18989e-06
9.27932e-06
9.36798e-06
9.4556e-06
9.54191e-06
9.62654e-06
9.70917e-06
9.78946e-06
9.86709e-06
9.94166e-06
1.00129e-05
1.00804e-05
1.01438e-05
1.02027e-05
1.02568e-05
1.03058e-05
1.03495e-05
1.03874e-05
1.04195e-05
1.04454e-05
1.0465e-05
1.04781e-05
1.04847e-05
1.04847e-05
1.04781e-05
1.0465e-05
1.04454e-05
1.04196e-05
1.03876e-05
1.03497e-05
1.03061e-05
1.02571e-05
8.78798e-06
8.92348e-06
9.00931e-06
9.09458e-06
9.17906e-06
9.26248e-06
9.34458e-06
9.42503e-06
9.50351e-06
9.57968e-06
9.65327e-06
9.72393e-06
9.79132e-06
9.85516e-06
9.91503e-06
9.97067e-06
1.00218e-05
1.00681e-05
1.01092e-05
1.01449e-05
1.01751e-05
1.01996e-05
1.0218e-05
1.02304e-05
1.02366e-05
1.02366e-05
1.02304e-05
1.0218e-05
1.01996e-05
1.01753e-05
1.01451e-05
1.01094e-05
1.00682e-05
1.0022e-05
8.62634e-06
8.75451e-06
8.83656e-06
8.91801e-06
8.99866e-06
9.07824e-06
9.15648e-06
9.23309e-06
9.30777e-06
9.38021e-06
9.45011e-06
9.5172e-06
9.5811e-06
9.64158e-06
9.6983e-06
9.75099e-06
9.79934e-06
9.84312e-06
9.88203e-06
9.91579e-06
9.9443e-06
9.96739e-06
9.98479e-06
9.99646e-06
1.00023e-05
1.00023e-05
9.99643e-06
9.98478e-06
9.96743e-06
9.94442e-06
9.91593e-06
9.88212e-06
9.84324e-06
9.79957e-06
8.47103e-06
8.59247e-06
8.67102e-06
8.74896e-06
8.82607e-06
8.90212e-06
8.9768e-06
9.04989e-06
9.12111e-06
9.19012e-06
9.25665e-06
9.32046e-06
9.3812e-06
9.43863e-06
9.4925e-06
9.54249e-06
9.58834e-06
9.62983e-06
9.66668e-06
9.69867e-06
9.72567e-06
9.74749e-06
9.76396e-06
9.77501e-06
9.78055e-06
9.78055e-06
9.77499e-06
9.76395e-06
9.74754e-06
9.72576e-06
9.69877e-06
9.66675e-06
9.62994e-06
9.58855e-06
8.32156e-06
8.43682e-06
8.51215e-06
8.58683e-06
8.66068e-06
8.73346e-06
8.80487e-06
8.87471e-06
8.94273e-06
9.0086e-06
9.07207e-06
9.13288e-06
9.19072e-06
9.24537e-06
9.29663e-06
9.34417e-06
9.38774e-06
9.42713e-06
9.4621e-06
9.49247e-06
9.51808e-06
9.53875e-06
9.55439e-06
9.56486e-06
9.5701e-06
9.57012e-06
9.56487e-06
9.5544e-06
9.53881e-06
9.51816e-06
9.49256e-06
9.46217e-06
9.42724e-06
9.38792e-06
8.17751e-06
8.28709e-06
8.35942e-06
8.4311e-06
8.50193e-06
8.57167e-06
8.64006e-06
8.70691e-06
8.77197e-06
8.83495e-06
8.89561e-06
8.95367e-06
9.00885e-06
9.06097e-06
9.10983e-06
9.15512e-06
9.19661e-06
9.23407e-06
9.26733e-06
9.29621e-06
9.32055e-06
9.34019e-06
9.35506e-06
9.36501e-06
9.36999e-06
9.37e-06
9.36504e-06
9.35509e-06
9.34026e-06
9.32063e-06
9.29628e-06
9.26741e-06
9.2342e-06
9.19676e-06
8.03851e-06
8.14282e-06
8.2124e-06
8.28128e-06
8.3493e-06
8.41623e-06
8.48184e-06
8.5459e-06
8.60823e-06
8.66855e-06
8.72661e-06
8.78214e-06
8.8349e-06
8.88469e-06
8.93132e-06
8.97455e-06
9.01412e-06
9.04982e-06
9.08151e-06
9.10904e-06
9.13222e-06
9.15092e-06
9.16508e-06
9.17455e-06
9.17928e-06
9.1793e-06
9.17458e-06
9.16514e-06
9.151e-06
9.13227e-06
9.10909e-06
9.08163e-06
9.04995e-06
9.01426e-06
7.90422e-06
8.00365e-06
8.07064e-06
8.13695e-06
8.20235e-06
8.26667e-06
8.32969e-06
8.39118e-06
8.45097e-06
8.50881e-06
8.56447e-06
8.61768e-06
8.6682e-06
8.71585e-06
8.76043e-06
8.80176e-06
8.83956e-06
8.87365e-06
8.90392e-06
8.93019e-06
8.95232e-06
8.97016e-06
8.98365e-06
8.99267e-06
8.99719e-06
8.99721e-06
8.99272e-06
8.98372e-06
8.97022e-06
8.95235e-06
8.93024e-06
8.90403e-06
8.87378e-06
8.83971e-06
7.77434e-06
7.86924e-06
7.93381e-06
7.99769e-06
8.06067e-06
8.12255e-06
8.18317e-06
8.24227e-06
8.29971e-06
8.35524e-06
8.40867e-06
8.45972e-06
8.50817e-06
8.55385e-06
8.59655e-06
8.63611e-06
8.67229e-06
8.70491e-06
8.73388e-06
8.75899e-06
8.78015e-06
8.7972e-06
8.81007e-06
8.81868e-06
8.823e-06
8.82302e-06
8.81873e-06
8.81014e-06
8.79724e-06
8.78018e-06
8.75904e-06
8.73395e-06
8.70503e-06
8.67244e-06
8.6363e-06
7.64859e-06
7.73928e-06
7.80158e-06
7.86317e-06
7.9239e-06
7.9835e-06
8.04186e-06
8.09876e-06
8.154e-06
8.2074e-06
8.25874e-06
8.30778e-06
8.35433e-06
8.39818e-06
8.43914e-06
8.47707e-06
8.51175e-06
8.54302e-06
8.57079e-06
8.59483e-06
8.61508e-06
8.63141e-06
8.6437e-06
8.65195e-06
8.65607e-06
8.65609e-06
8.652e-06
8.64377e-06
8.63143e-06
8.6151e-06
8.59486e-06
8.57081e-06
8.54312e-06
8.51191e-06
8.47727e-06
7.52673e-06
7.61348e-06
7.67365e-06
7.7331e-06
7.7917e-06
7.84919e-06
7.90544e-06
7.96028e-06
8.01347e-06
8.0649e-06
8.11427e-06
8.16144e-06
8.20621e-06
8.24837e-06
8.28772e-06
8.32414e-06
8.35744e-06
8.38746e-06
8.41408e-06
8.43716e-06
8.45656e-06
8.47222e-06
8.484e-06
8.49189e-06
8.49585e-06
8.49586e-06
8.49193e-06
8.48405e-06
8.47222e-06
8.45656e-06
8.43716e-06
8.41409e-06
8.38752e-06
8.35758e-06
8.32434e-06
7.40849e-06
7.49156e-06
7.54974e-06
7.6072e-06
7.66379e-06
7.7193e-06
7.77359e-06
7.82649e-06
7.87778e-06
7.92734e-06
7.97489e-06
8.02031e-06
8.06343e-06
8.104e-06
8.14186e-06
8.17686e-06
8.20888e-06
8.23774e-06
8.2633e-06
8.28548e-06
8.3041e-06
8.31913e-06
8.33044e-06
8.33801e-06
8.34182e-06
8.34181e-06
8.33803e-06
8.33046e-06
8.31912e-06
8.30407e-06
8.28546e-06
8.26332e-06
8.23779e-06
8.20901e-06
7.29367e-06
7.37332e-06
7.42962e-06
7.48521e-06
7.53992e-06
7.59358e-06
7.64602e-06
7.6971e-06
7.74659e-06
7.7944e-06
7.84026e-06
7.88406e-06
7.92561e-06
7.96471e-06
8.00117e-06
8.03485e-06
8.06567e-06
8.09344e-06
8.11803e-06
8.13934e-06
8.15725e-06
8.17169e-06
8.18258e-06
8.18986e-06
8.19352e-06
8.1935e-06
8.18986e-06
8.18256e-06
8.17169e-06
8.15722e-06
8.13933e-06
8.11804e-06
8.0935e-06
8.06579e-06
7.18207e-06
7.25852e-06
7.31306e-06
7.36689e-06
7.41983e-06
7.47174e-06
7.52245e-06
7.57181e-06
7.61963e-06
7.66579e-06
7.71007e-06
7.75234e-06
7.79242e-06
7.83013e-06
7.86529e-06
7.89775e-06
7.92744e-06
7.9542e-06
7.97787e-06
7.99837e-06
8.01563e-06
8.02952e-06
8.04001e-06
8.04703e-06
8.05053e-06
8.05052e-06
8.047e-06
8.03997e-06
8.02951e-06
8.01561e-06
7.99838e-06
7.97789e-06
7.95427e-06
7.92758e-06
7.07353e-06
7.14698e-06
7.19984e-06
7.25199e-06
7.30327e-06
7.35354e-06
7.40263e-06
7.45038e-06
7.49663e-06
7.54123e-06
7.58402e-06
7.62485e-06
7.66357e-06
7.69996e-06
7.7339e-06
7.76523e-06
7.79386e-06
7.81968e-06
7.8425e-06
7.86225e-06
7.8789e-06
7.89227e-06
7.90238e-06
7.90913e-06
7.9125e-06
7.9125e-06
7.90909e-06
7.90232e-06
7.89225e-06
7.87888e-06
7.86227e-06
7.84254e-06
7.81974e-06
7.79403e-06
6.96787e-06
7.03851e-06
7.08978e-06
7.14034e-06
7.19005e-06
7.23877e-06
7.28633e-06
7.33256e-06
7.37735e-06
7.42048e-06
7.46188e-06
7.50134e-06
7.53877e-06
7.57394e-06
7.60674e-06
7.63701e-06
7.66464e-06
7.68954e-06
7.71158e-06
7.73065e-06
7.74671e-06
7.75961e-06
7.76936e-06
7.77587e-06
7.77911e-06
7.7791e-06
7.77581e-06
7.76928e-06
7.75957e-06
7.74669e-06
7.73067e-06
7.71164e-06
7.68965e-06
6.86495e-06
6.93293e-06
6.98269e-06
7.03175e-06
7.07997e-06
7.12723e-06
7.17334e-06
7.21816e-06
7.26155e-06
7.30332e-06
7.34339e-06
7.38158e-06
7.41777e-06
7.45179e-06
7.48351e-06
7.51277e-06
7.53949e-06
7.56354e-06
7.58483e-06
7.60326e-06
7.61876e-06
7.63123e-06
7.64064e-06
7.64692e-06
7.65005e-06
7.65004e-06
7.64686e-06
7.64054e-06
7.63116e-06
7.61873e-06
7.60328e-06
7.5849e-06
7.56368e-06
6.76461e-06
6.8301e-06
6.87842e-06
6.92606e-06
6.97286e-06
7.01873e-06
7.06348e-06
7.10696e-06
7.14904e-06
7.18953e-06
7.22835e-06
7.26533e-06
7.30036e-06
7.33329e-06
7.36397e-06
7.39229e-06
7.41814e-06
7.44139e-06
7.462e-06
7.47984e-06
7.4948e-06
7.50687e-06
7.51595e-06
7.522e-06
7.52504e-06
7.52502e-06
7.52195e-06
7.51583e-06
7.50676e-06
7.49475e-06
7.47983e-06
7.46207e-06
6.66672e-06
6.72986e-06
6.77682e-06
6.82311e-06
6.86857e-06
6.91312e-06
6.95658e-06
6.99878e-06
7.0396e-06
7.07889e-06
7.11653e-06
7.15239e-06
7.18632e-06
7.21822e-06
7.24791e-06
7.27535e-06
7.30036e-06
7.32288e-06
7.34284e-06
7.36011e-06
7.37458e-06
7.38625e-06
7.39504e-06
7.40089e-06
7.40383e-06
7.4038e-06
7.40082e-06
7.39491e-06
7.38613e-06
7.37452e-06
7.36009e-06
7.34292e-06
6.57118e-06
6.63208e-06
6.67774e-06
6.72275e-06
6.76694e-06
6.81024e-06
6.85247e-06
6.89346e-06
6.9331e-06
6.97125e-06
7.00777e-06
7.04256e-06
7.07545e-06
7.10636e-06
7.13514e-06
7.16174e-06
7.18597e-06
7.2078e-06
7.22714e-06
7.24385e-06
7.25786e-06
7.26916e-06
7.27768e-06
7.28335e-06
7.28619e-06
7.28615e-06
7.28326e-06
7.27755e-06
7.26905e-06
7.25781e-06
7.24384e-06
7.22724e-06
6.47787e-06
6.53666e-06
6.58107e-06
6.62485e-06
6.66784e-06
6.70994e-06
6.751e-06
6.79085e-06
6.82937e-06
6.86643e-06
6.9019e-06
6.93567e-06
6.96758e-06
6.99756e-06
7.02547e-06
7.05126e-06
7.07477e-06
7.09596e-06
7.11469e-06
7.13088e-06
7.14446e-06
7.1554e-06
7.16367e-06
7.16917e-06
7.17193e-06
7.17189e-06
7.16908e-06
7.16355e-06
7.15532e-06
7.14442e-06
7.13088e-06
7.11481e-06
6.38667e-06
6.44345e-06
6.48668e-06
6.52929e-06
6.57115e-06
6.6121e-06
6.65204e-06
6.69082e-06
6.72828e-06
6.7643e-06
6.79876e-06
6.83156e-06
6.86255e-06
6.89165e-06
6.91875e-06
6.94377e-06
6.96659e-06
6.98716e-06
7.00532e-06
7.02101e-06
7.03419e-06
7.04479e-06
7.05281e-06
7.05817e-06
7.06084e-06
7.06081e-06
7.05808e-06
7.05272e-06
7.04473e-06
7.03416e-06
7.02104e-06
7.00546e-06
6.29749e-06
6.35237e-06
6.39446e-06
6.43595e-06
6.47673e-06
6.5166e-06
6.55547e-06
6.59323e-06
6.62968e-06
6.66472e-06
6.69822e-06
6.7301e-06
6.76021e-06
6.78849e-06
6.81482e-06
6.8391e-06
6.86125e-06
6.88122e-06
6.89885e-06
6.91408e-06
6.92686e-06
6.93715e-06
6.94493e-06
6.95014e-06
6.95273e-06
6.95271e-06
6.95008e-06
6.94488e-06
6.93712e-06
6.92686e-06
6.91414e-06
6.899e-06
6.21022e-06
6.26332e-06
6.30432e-06
6.34474e-06
6.38447e-06
6.42333e-06
6.46119e-06
6.49795e-06
6.53344e-06
6.56754e-06
6.60014e-06
6.63114e-06
6.66044e-06
6.68792e-06
6.71352e-06
6.73711e-06
6.75863e-06
6.778e-06
6.79512e-06
6.80992e-06
6.82234e-06
6.83234e-06
6.83987e-06
6.84493e-06
6.84746e-06
6.84745e-06
6.84491e-06
6.83985e-06
6.83231e-06
6.82235e-06
6.81001e-06
6.79529e-06
6.12481e-06
6.17619e-06
6.21616e-06
6.25555e-06
6.29429e-06
6.33218e-06
6.36907e-06
6.40488e-06
6.43946e-06
6.47266e-06
6.5044e-06
6.53457e-06
6.56308e-06
6.58981e-06
6.61472e-06
6.63764e-06
6.65856e-06
6.67737e-06
6.69401e-06
6.70839e-06
6.72046e-06
6.73019e-06
6.73749e-06
6.74241e-06
6.74486e-06
6.74487e-06
6.74241e-06
6.7375e-06
6.73018e-06
6.72049e-06
6.70851e-06
6.69419e-06
6.04115e-06
6.0909e-06
6.12988e-06
6.1683e-06
6.20608e-06
6.24304e-06
6.27901e-06
6.31391e-06
6.34761e-06
6.37996e-06
6.41088e-06
6.44027e-06
6.46802e-06
6.49404e-06
6.51826e-06
6.54057e-06
6.56093e-06
6.57921e-06
6.59538e-06
6.60937e-06
6.6211e-06
6.63056e-06
6.63766e-06
6.64244e-06
6.64482e-06
6.64483e-06
6.64245e-06
6.63769e-06
6.63057e-06
6.62115e-06
6.60949e-06
6.59557e-06
5.95918e-06
6.00737e-06
6.0454e-06
6.0829e-06
6.11976e-06
6.15581e-06
6.19092e-06
6.22495e-06
6.25781e-06
6.28934e-06
6.31947e-06
6.34811e-06
6.37514e-06
6.40049e-06
6.42406e-06
6.44578e-06
6.4656e-06
6.48338e-06
6.4991e-06
6.51271e-06
6.52413e-06
6.53333e-06
6.54023e-06
6.54488e-06
6.5472e-06
6.54722e-06
6.54491e-06
6.54027e-06
6.53337e-06
6.52421e-06
6.51285e-06
6.4993e-06
5.87885e-06
5.92551e-06
5.96264e-06
5.99927e-06
6.03524e-06
6.07043e-06
6.1047e-06
6.1379e-06
6.16994e-06
6.2007e-06
6.23009e-06
6.25799e-06
6.28436e-06
6.30904e-06
6.332e-06
6.35316e-06
6.37246e-06
6.38978e-06
6.40507e-06
6.41831e-06
6.42943e-06
6.43838e-06
6.4451e-06
6.44961e-06
6.45187e-06
6.4519e-06
6.44964e-06
6.44515e-06
6.43844e-06
6.42952e-06
6.41846e-06
6.40526e-06
5.80008e-06
5.84526e-06
5.88152e-06
5.91731e-06
5.95245e-06
5.98681e-06
6.02027e-06
6.05267e-06
6.08393e-06
6.11396e-06
6.14262e-06
6.16983e-06
6.19555e-06
6.21961e-06
6.24199e-06
6.26261e-06
6.28141e-06
6.29828e-06
6.31316e-06
6.32604e-06
6.33688e-06
6.34559e-06
6.35215e-06
6.35653e-06
6.35874e-06
6.35876e-06
6.35656e-06
6.35221e-06
6.34568e-06
6.33699e-06
6.3262e-06
6.31335e-06
5.72283e-06
5.76655e-06
5.80197e-06
5.83696e-06
5.8713e-06
5.90487e-06
5.93754e-06
5.96918e-06
5.9997e-06
6.02902e-06
6.057e-06
6.08355e-06
6.10863e-06
6.1321e-06
6.15393e-06
6.17403e-06
6.19234e-06
6.20879e-06
6.22329e-06
6.23583e-06
6.24638e-06
6.25487e-06
6.26127e-06
6.26554e-06
6.26769e-06
6.26769e-06
6.26557e-06
6.26134e-06
6.25499e-06
6.24651e-06
6.23599e-06
6.22346e-06
5.64703e-06
5.68932e-06
5.72393e-06
5.75815e-06
5.79173e-06
5.82454e-06
5.85645e-06
5.88736e-06
5.91718e-06
5.9458e-06
5.97313e-06
5.99905e-06
6.02352e-06
6.04643e-06
6.06773e-06
6.08733e-06
6.10518e-06
6.12121e-06
6.13535e-06
6.14757e-06
6.15784e-06
6.16612e-06
6.17236e-06
6.17653e-06
6.17862e-06
6.17862e-06
6.17656e-06
6.17244e-06
6.16625e-06
6.15799e-06
6.14772e-06
6.13552e-06
5.57263e-06
5.61351e-06
5.64735e-06
5.68083e-06
5.71367e-06
5.74575e-06
5.77694e-06
5.80716e-06
5.83629e-06
5.86425e-06
5.89095e-06
5.91626e-06
5.94015e-06
5.96252e-06
5.9833e-06
6.00243e-06
6.01983e-06
6.03546e-06
6.04926e-06
6.06117e-06
6.07119e-06
6.07925e-06
6.08535e-06
6.08942e-06
6.09145e-06
6.09144e-06
6.08944e-06
6.08542e-06
6.07938e-06
6.07134e-06
6.06133e-06
6.04942e-06
5.4996e-06
5.53904e-06
5.57215e-06
5.60494e-06
5.63707e-06
5.66844e-06
5.69894e-06
5.72849e-06
5.75696e-06
5.78428e-06
5.81037e-06
5.8351e-06
5.85843e-06
5.88028e-06
5.90058e-06
5.91924e-06
5.93622e-06
5.95146e-06
5.96492e-06
5.97655e-06
5.98633e-06
5.99418e-06
6.00014e-06
6.0041e-06
6.00609e-06
6.00608e-06
6.00412e-06
6.0002e-06
5.9943e-06
5.98647e-06
5.97671e-06
5.42785e-06
5.46586e-06
5.4983e-06
5.53041e-06
5.56187e-06
5.59256e-06
5.62239e-06
5.6513e-06
5.67914e-06
5.70584e-06
5.73133e-06
5.75551e-06
5.7783e-06
5.79966e-06
5.81947e-06
5.8377e-06
5.85426e-06
5.86914e-06
5.88227e-06
5.89364e-06
5.90317e-06
5.91083e-06
5.91664e-06
5.9205e-06
5.92245e-06
5.92246e-06
5.92053e-06
5.91671e-06
5.91094e-06
5.9033e-06
5.8938e-06
5.35675e-06
5.3939e-06
5.42574e-06
5.45721e-06
5.48801e-06
5.51804e-06
5.54723e-06
5.57552e-06
5.60275e-06
5.62885e-06
5.65378e-06
5.67742e-06
5.6997e-06
5.72057e-06
5.73992e-06
5.75772e-06
5.7739e-06
5.78842e-06
5.80124e-06
5.81235e-06
5.82165e-06
5.82913e-06
5.83479e-06
5.83856e-06
5.84046e-06
5.84048e-06
5.83861e-06
5.83486e-06
5.82923e-06
5.82177e-06
5.28536e-06
5.3231e-06
5.35442e-06
5.38528e-06
5.41545e-06
5.44485e-06
5.47342e-06
5.5011e-06
5.52774e-06
5.55328e-06
5.57766e-06
5.60077e-06
5.62255e-06
5.64295e-06
5.66186e-06
5.67925e-06
5.69506e-06
5.70925e-06
5.72177e-06
5.73261e-06
5.74171e-06
5.74901e-06
5.75452e-06
5.7582e-06
5.76006e-06
5.76009e-06
5.75827e-06
5.75459e-06
5.74909e-06
5.74181e-06
5.21372e-06
5.25303e-06
5.28427e-06
5.31457e-06
5.34413e-06
5.37294e-06
5.4009e-06
5.42799e-06
5.45407e-06
5.47906e-06
5.5029e-06
5.5255e-06
5.5468e-06
5.56675e-06
5.58523e-06
5.60223e-06
5.6177e-06
5.63156e-06
5.64379e-06
5.65438e-06
5.66327e-06
5.67041e-06
5.67579e-06
5.67938e-06
5.68119e-06
5.68122e-06
5.67945e-06
5.67584e-06
5.67048e-06
5.66334e-06
5.14245e-06
5.18267e-06
5.21444e-06
5.24467e-06
5.27397e-06
5.30223e-06
5.32962e-06
5.35615e-06
5.38168e-06
5.40614e-06
5.42947e-06
5.45156e-06
5.4724e-06
5.49192e-06
5.50999e-06
5.52661e-06
5.54174e-06
5.5553e-06
5.56725e-06
5.57759e-06
5.58628e-06
5.59326e-06
5.59851e-06
5.60201e-06
5.60379e-06
5.60381e-06
5.60208e-06
5.59855e-06
5.59331e-06
5.58633e-06
5.07198e-06
5.11153e-06
5.14377e-06
5.1745e-06
5.20406e-06
5.23224e-06
5.25945e-06
5.28551e-06
5.31051e-06
5.33447e-06
5.35731e-06
5.37892e-06
5.3993e-06
5.4184e-06
5.43608e-06
5.45234e-06
5.46715e-06
5.4804e-06
5.49209e-06
5.5022e-06
5.51068e-06
5.51751e-06
5.52263e-06
5.52606e-06
5.5278e-06
5.52781e-06
5.52611e-06
5.52266e-06
5.51754e-06
5.51072e-06
5.00258e-06
5.04053e-06
5.07255e-06
5.10347e-06
5.13326e-06
5.16187e-06
5.18942e-06
5.21543e-06
5.24029e-06
5.26395e-06
5.28634e-06
5.30751e-06
5.32747e-06
5.34615e-06
5.36345e-06
5.37936e-06
5.39385e-06
5.40682e-06
5.41826e-06
5.42814e-06
5.43642e-06
5.44309e-06
5.44811e-06
5.45146e-06
5.45315e-06
5.45315e-06
5.45149e-06
5.44813e-06
5.44312e-06
5.43646e-06
4.93447e-06
4.97072e-06
5.00197e-06
5.03242e-06
5.06198e-06
5.09071e-06
5.1184e-06
5.1448e-06
5.17001e-06
5.19381e-06
5.21613e-06
5.23719e-06
5.2568e-06
5.2751e-06
5.29204e-06
5.30762e-06
5.32181e-06
5.3345e-06
5.3457e-06
5.35535e-06
5.36345e-06
5.36998e-06
5.37488e-06
5.37816e-06
5.3798e-06
5.37981e-06
5.37818e-06
5.3749e-06
5.36999e-06
5.36348e-06
4.86775e-06
4.90246e-06
4.93274e-06
4.96242e-06
4.99139e-06
5.01967e-06
5.04703e-06
5.0735e-06
5.09884e-06
5.12291e-06
5.1456e-06
5.16696e-06
5.18656e-06
5.20478e-06
5.22164e-06
5.23704e-06
5.25094e-06
5.26338e-06
5.27434e-06
5.28379e-06
5.29173e-06
5.2981e-06
5.3029e-06
5.30611e-06
5.30771e-06
5.30771e-06
5.30613e-06
5.30292e-06
5.2981e-06
5.29174e-06
4.80246e-06
4.83583e-06
4.86511e-06
4.89391e-06
4.92213e-06
4.94972e-06
4.97649e-06
5.00251e-06
5.02753e-06
5.05147e-06
5.07429e-06
5.09578e-06
5.11565e-06
5.13413e-06
5.15124e-06
5.16675e-06
5.18059e-06
5.19298e-06
5.20389e-06
5.21328e-06
5.22114e-06
5.22739e-06
5.23208e-06
5.23522e-06
5.23679e-06
5.23679e-06
5.23523e-06
5.2321e-06
5.22738e-06
5.22112e-06
4.73859e-06
4.77078e-06
4.79912e-06
4.82705e-06
4.85447e-06
4.88128e-06
4.90735e-06
4.93272e-06
4.95716e-06
4.98062e-06
5.00309e-06
5.02429e-06
5.04418e-06
5.06274e-06
5.07995e-06
5.09561e-06
5.10966e-06
5.12225e-06
5.13331e-06
5.14281e-06
5.15074e-06
5.15696e-06
5.16161e-06
5.16473e-06
5.16628e-06
5.16628e-06
5.16472e-06
5.16161e-06
5.1569e-06
5.15066e-06
4.67607e-06
4.70724e-06
4.73473e-06
4.76182e-06
4.78844e-06
4.81447e-06
4.83982e-06
4.86445e-06
4.88824e-06
4.91107e-06
4.93296e-06
4.95366e-06
4.97323e-06
4.9915e-06
5.00845e-06
5.02402e-06
5.03813e-06
5.05079e-06
5.0619e-06
5.07144e-06
5.07938e-06
5.08569e-06
5.09038e-06
5.09351e-06
5.09507e-06
5.09507e-06
5.09348e-06
5.09032e-06
5.08555e-06
5.07923e-06
4.61486e-06
4.6451e-06
4.67181e-06
4.69813e-06
4.72399e-06
4.74927e-06
4.7739e-06
4.79781e-06
4.82091e-06
4.84308e-06
4.86432e-06
4.88445e-06
4.90352e-06
4.92134e-06
4.93788e-06
4.95313e-06
4.967e-06
4.97945e-06
4.9904e-06
4.99981e-06
5.00764e-06
5.01395e-06
5.01866e-06
5.02178e-06
5.02334e-06
5.02334e-06
5.02173e-06
5.01855e-06
5.01376e-06
5.00745e-06
4.55487e-06
4.58426e-06
4.61025e-06
4.63586e-06
4.661e-06
4.68559e-06
4.70954e-06
4.73276e-06
4.75518e-06
4.7767e-06
4.79729e-06
4.81684e-06
4.83536e-06
4.85267e-06
4.86874e-06
4.88357e-06
4.89708e-06
4.9092e-06
4.91987e-06
4.92906e-06
4.93672e-06
4.94291e-06
4.94756e-06
4.95062e-06
4.95216e-06
4.95215e-06
4.95056e-06
4.94741e-06
4.94273e-06
4.93651e-06
4.49601e-06
4.52462e-06
4.54994e-06
4.5749e-06
4.59938e-06
4.62331e-06
4.64662e-06
4.66919e-06
4.69098e-06
4.71188e-06
4.73185e-06
4.75085e-06
4.76881e-06
4.7856e-06
4.80119e-06
4.81556e-06
4.82868e-06
4.84042e-06
4.85079e-06
4.85971e-06
4.8672e-06
4.87321e-06
4.87775e-06
4.88074e-06
4.88224e-06
4.88223e-06
4.88067e-06
4.8776e-06
4.87303e-06
4.86696e-06
4.4382e-06
4.46608e-06
4.4908e-06
4.51514e-06
4.539e-06
4.56233e-06
4.58503e-06
4.60701e-06
4.6282e-06
4.64851e-06
4.66792e-06
4.68639e-06
4.70383e-06
4.72011e-06
4.73524e-06
4.74917e-06
4.76188e-06
4.77325e-06
4.78331e-06
4.79196e-06
4.79924e-06
4.80509e-06
4.80949e-06
4.8124e-06
4.81385e-06
4.81385e-06
4.81233e-06
4.80935e-06
4.80491e-06
4.79901e-06
4.38139e-06
4.40857e-06
4.43272e-06
4.4565e-06
4.47979e-06
4.50254e-06
4.52467e-06
4.54611e-06
4.56672e-06
4.58651e-06
4.60539e-06
4.62337e-06
4.64031e-06
4.65612e-06
4.67082e-06
4.68433e-06
4.69664e-06
4.70766e-06
4.71741e-06
4.72581e-06
4.73289e-06
4.73857e-06
4.74283e-06
4.74568e-06
4.74707e-06
4.74706e-06
4.74559e-06
4.74271e-06
4.73839e-06
4.73267e-06
4.3255e-06
4.35202e-06
4.37565e-06
4.3989e-06
4.42165e-06
4.44384e-06
4.46545e-06
4.48638e-06
4.50647e-06
4.52578e-06
4.54416e-06
4.56166e-06
4.57815e-06
4.59353e-06
4.60782e-06
4.62096e-06
4.63289e-06
4.64357e-06
4.65303e-06
4.6612e-06
4.66808e-06
4.67359e-06
4.67773e-06
4.68051e-06
4.68184e-06
4.68183e-06
4.68041e-06
4.6776e-06
4.67342e-06
4.66788e-06
4.2705e-06
4.29637e-06
4.31951e-06
4.34227e-06
4.36451e-06
4.38619e-06
4.4073e-06
4.42774e-06
4.44735e-06
4.46621e-06
4.48412e-06
4.50118e-06
4.51723e-06
4.53223e-06
4.54614e-06
4.55892e-06
4.57051e-06
4.58089e-06
4.59007e-06
4.59802e-06
4.60469e-06
4.61006e-06
4.61409e-06
4.61679e-06
4.61808e-06
4.61807e-06
4.6167e-06
4.61396e-06
4.60992e-06
4.60454e-06
4.21632e-06
4.2416e-06
4.26425e-06
4.28654e-06
4.30831e-06
4.32952e-06
4.35015e-06
4.37012e-06
4.38929e-06
4.40771e-06
4.4252e-06
4.44181e-06
4.45748e-06
4.47211e-06
4.48567e-06
4.49811e-06
4.50938e-06
4.51948e-06
4.52843e-06
4.53617e-06
4.54264e-06
4.54786e-06
4.5518e-06
4.55442e-06
4.55569e-06
4.55567e-06
4.55435e-06
4.55169e-06
4.54778e-06
4.54254e-06
4.16294e-06
4.18765e-06
4.20983e-06
4.23167e-06
4.253e-06
4.27377e-06
4.29393e-06
4.31345e-06
4.33222e-06
4.35021e-06
4.36731e-06
4.38351e-06
4.3988e-06
4.41309e-06
4.42632e-06
4.43844e-06
4.44943e-06
4.45928e-06
4.468e-06
4.47554e-06
4.48181e-06
4.4869e-06
4.49076e-06
4.49331e-06
4.49456e-06
4.49455e-06
4.49325e-06
4.49067e-06
4.4869e-06
4.48179e-06
4.11032e-06
4.13448e-06
4.15622e-06
4.17761e-06
4.19852e-06
4.21887e-06
4.23859e-06
4.25768e-06
4.27606e-06
4.29365e-06
4.31037e-06
4.32619e-06
4.34112e-06
4.35509e-06
4.36801e-06
4.37984e-06
4.39057e-06
4.40018e-06
4.40869e-06
4.41603e-06
4.42213e-06
4.4271e-06
4.43086e-06
4.43336e-06
4.4346e-06
4.43458e-06
4.43332e-06
4.43081e-06
4.42716e-06
4.42219e-06
4.05843e-06
4.08207e-06
4.10338e-06
4.12434e-06
4.14483e-06
4.16478e-06
4.18408e-06
4.20277e-06
4.22077e-06
4.23799e-06
4.25434e-06
4.26981e-06
4.28439e-06
4.29805e-06
4.31068e-06
4.32224e-06
4.33273e-06
4.34211e-06
4.35042e-06
4.35757e-06
4.36352e-06
4.36836e-06
4.37204e-06
4.37448e-06
4.37571e-06
4.37569e-06
4.37447e-06
4.37204e-06
4.36848e-06
4.36365e-06
4.05127e-06
4.07181e-06
4.0919e-06
4.11146e-06
4.13037e-06
4.14866e-06
4.16629e-06
4.18315e-06
4.19916e-06
4.2143e-06
4.22855e-06
4.24192e-06
4.3059e-06
4.31063e-06
4.31421e-06
4.31661e-06
4.31782e-06
4.3178e-06
4.31661e-06
4.31427e-06
4.31079e-06
4.30609e-06
2.58829e-05
2.62149e-05
2.64723e-05
2.6648e-05
2.67371e-05
2.67371e-05
2.66481e-05
2.64726e-05
2.62158e-05
2.58845e-05
2.29185e-05
2.32153e-05
2.34614e-05
2.36512e-05
2.37802e-05
2.38456e-05
2.38456e-05
2.37803e-05
2.36513e-05
2.34618e-05
2.32163e-05
2.292e-05
2.25793e-05
2.22009e-05
2.17916e-05
2.13578e-05
2.09059e-05
2.04416e-05
1.99702e-05
1.94962e-05
1.90237e-05
2.03856e-05
2.0684e-05
2.09512e-05
2.11823e-05
2.1373e-05
2.15195e-05
2.16189e-05
2.16692e-05
2.16692e-05
2.16189e-05
2.15195e-05
2.13731e-05
2.11828e-05
2.0952e-05
2.06853e-05
2.03873e-05
2.00627e-05
1.97164e-05
1.9353e-05
1.8977e-05
1.85924e-05
1.82029e-05
1.78118e-05
1.74219e-05
1.70356e-05
1.66549e-05
1.62814e-05
1.80826e-05
1.8382e-05
1.86659e-05
1.89306e-05
1.91726e-05
1.93881e-05
1.95738e-05
1.97265e-05
1.98435e-05
1.99227e-05
1.99628e-05
1.99628e-05
1.99227e-05
1.98435e-05
1.97265e-05
1.9574e-05
1.93885e-05
1.91733e-05
1.89316e-05
1.86671e-05
1.83834e-05
1.8084e-05
1.77724e-05
1.74518e-05
1.71253e-05
1.67954e-05
1.64646e-05
1.61349e-05
1.58081e-05
1.54858e-05
1.51689e-05
1.48587e-05
1.45559e-05
1.64889e-05
1.67608e-05
1.70238e-05
1.72754e-05
1.75128e-05
1.77332e-05
1.79339e-05
1.81119e-05
1.82649e-05
1.83903e-05
1.84862e-05
1.8551e-05
1.85838e-05
1.85838e-05
1.85511e-05
1.84862e-05
1.83903e-05
1.82649e-05
1.81122e-05
1.79343e-05
1.77337e-05
1.75134e-05
1.72761e-05
1.70245e-05
1.67615e-05
1.64895e-05
1.62111e-05
1.59285e-05
1.56436e-05
1.53583e-05
1.50741e-05
1.47923e-05
1.45141e-05
1.42404e-05
1.39719e-05
1.37093e-05
1.3453e-05
1.29931e-05
1.51781e-05
1.54236e-05
1.56644e-05
1.58985e-05
1.61241e-05
1.6339e-05
1.65409e-05
1.67278e-05
1.68973e-05
1.70474e-05
1.71758e-05
1.72809e-05
1.73612e-05
1.74154e-05
1.74427e-05
1.74428e-05
1.74155e-05
1.73612e-05
1.72809e-05
1.71758e-05
1.70473e-05
1.68974e-05
1.67279e-05
1.65411e-05
1.63391e-05
1.61242e-05
1.58987e-05
1.56645e-05
1.54238e-05
1.51784e-05
1.493e-05
1.46801e-05
1.44301e-05
1.41811e-05
1.39343e-05
1.36904e-05
1.34502e-05
1.32144e-05
1.29832e-05
1.2569e-05
1.43022e-05
1.45214e-05
1.47371e-05
1.49478e-05
1.51521e-05
1.53481e-05
1.55342e-05
1.57086e-05
1.58694e-05
1.60149e-05
1.61434e-05
1.62531e-05
1.63427e-05
1.6411e-05
1.64571e-05
1.64803e-05
1.64803e-05
1.64571e-05
1.6411e-05
1.63425e-05
1.62529e-05
1.61431e-05
1.60146e-05
1.58692e-05
1.57083e-05
1.5534e-05
1.53479e-05
1.51519e-05
1.49477e-05
1.4737e-05
1.45214e-05
1.43023e-05
1.40811e-05
1.3859e-05
1.3637e-05
1.3416e-05
1.31968e-05
1.29802e-05
1.27667e-05
1.25567e-05
1.21816e-05
1.35469e-05
1.37447e-05
1.39399e-05
1.41314e-05
1.43178e-05
1.44979e-05
1.46703e-05
1.48335e-05
1.49859e-05
1.51262e-05
1.52527e-05
1.53641e-05
1.54592e-05
1.55367e-05
1.55957e-05
1.56355e-05
1.56555e-05
1.56554e-05
1.56354e-05
1.55955e-05
1.55364e-05
1.54588e-05
1.53636e-05
1.52521e-05
1.51256e-05
1.49854e-05
1.4833e-05
1.46699e-05
1.44975e-05
1.43175e-05
1.41311e-05
1.39398e-05
1.37447e-05
1.35471e-05
1.33479e-05
1.31482e-05
1.29487e-05
1.27503e-05
1.25535e-05
1.23589e-05
1.21669e-05
1.18256e-05
1.28865e-05
1.30666e-05
1.32449e-05
1.34202e-05
1.35916e-05
1.37581e-05
1.39186e-05
1.40717e-05
1.42163e-05
1.4351e-05
1.44746e-05
1.45859e-05
1.46838e-05
1.47671e-05
1.4835e-05
1.48867e-05
1.49214e-05
1.49388e-05
1.49387e-05
1.49211e-05
1.48863e-05
1.48346e-05
1.47666e-05
1.46832e-05
1.45852e-05
1.44739e-05
1.43503e-05
1.42156e-05
1.40711e-05
1.3918e-05
1.37577e-05
1.35913e-05
1.34199e-05
1.32447e-05
1.30667e-05
1.28867e-05
1.27056e-05
1.25243e-05
1.23434e-05
1.21634e-05
1.1985e-05
1.18085e-05
1.14964e-05
1.23021e-05
1.24674e-05
1.26313e-05
1.2793e-05
1.29517e-05
1.31065e-05
1.32565e-05
1.34006e-05
1.35378e-05
1.3667e-05
1.37872e-05
1.38973e-05
1.39963e-05
1.40831e-05
1.41569e-05
1.42171e-05
1.42627e-05
1.42934e-05
1.43088e-05
1.43086e-05
1.4293e-05
1.42622e-05
1.42165e-05
1.41563e-05
1.40824e-05
1.39955e-05
1.38966e-05
1.37865e-05
1.36663e-05
1.35371e-05
1.33999e-05
1.32559e-05
1.31061e-05
1.29513e-05
1.27927e-05
1.26312e-05
1.24674e-05
1.23022e-05
1.21363e-05
1.19703e-05
1.18048e-05
1.16402e-05
1.14771e-05
1.11906e-05
1.19321e-05
1.20838e-05
1.22339e-05
1.23816e-05
1.25263e-05
1.2667e-05
1.28031e-05
1.29335e-05
1.30574e-05
1.3174e-05
1.32821e-05
1.3381e-05
1.34697e-05
1.35475e-05
1.36136e-05
1.36673e-05
1.3708e-05
1.37354e-05
1.37491e-05
1.37489e-05
1.3735e-05
1.37075e-05
1.36666e-05
1.36128e-05
1.35468e-05
1.3469e-05
1.33802e-05
1.32813e-05
1.31732e-05
1.30567e-05
1.29328e-05
1.28024e-05
1.26665e-05
1.25258e-05
1.23813e-05
1.22337e-05
1.20837e-05
1.1932e-05
1.17793e-05
1.16262e-05
1.14732e-05
1.13207e-05
1.11692e-05
1.09051e-05
1.14494e-05
1.15906e-05
1.17307e-05
1.18689e-05
1.20046e-05
1.21373e-05
1.22661e-05
1.23903e-05
1.25092e-05
1.2622e-05
1.27278e-05
1.28259e-05
1.29154e-05
1.29955e-05
1.30657e-05
1.31253e-05
1.31737e-05
1.32104e-05
1.3235e-05
1.32473e-05
1.32472e-05
1.32347e-05
1.32099e-05
1.31731e-05
1.31246e-05
1.3065e-05
1.29948e-05
1.29146e-05
1.2825e-05
1.2727e-05
1.26212e-05
1.25085e-05
1.23896e-05
1.22655e-05
1.21368e-05
1.20042e-05
1.18686e-05
1.17304e-05
1.15904e-05
1.14492e-05
1.13072e-05
1.11651e-05
1.10232e-05
1.08819e-05
1.06377e-05
1.10104e-05
1.11426e-05
1.12739e-05
1.14038e-05
1.15317e-05
1.16571e-05
1.17794e-05
1.1898e-05
1.20122e-05
1.21212e-05
1.22244e-05
1.23211e-05
1.24106e-05
1.24922e-05
1.25652e-05
1.2629e-05
1.26831e-05
1.2727e-05
1.27602e-05
1.27826e-05
1.27937e-05
1.27937e-05