/*--------------------------------*- C++ -*----------------------------------*\
  =========                 |
  \\      /  F ield         | OpenFOAM: The Open Source CFD Toolbox
   \\    /   O peration     | Website:  https://openfoam.org
    \\  /    A nd           | Version:  7
     \\/     M anipulation  |
\*---------------------------------------------------------------------------*/
FoamFile
{
    version     2.0;
    format      ascii;
    class       volScalarField;
    location    "200000";
    object      omega;
}
// * * * * * * * * * * * * * * * * * * * * * * * * * * * * * * * * * * * * * //

dimensions      [0 0 -1 0 0 0 0];

internalField   nonuniform List<scalar> 
4850
(
0.0287832
0.0285229
0.0292913
0.0290245
0.0287689
0.0298126
0.0295393
0.0292774
0.0290263
0.028786
0.0303467
0.0300672
0.0297992
0.0295419
0.0292958
0.0290608
0.0308937
0.0306081
0.0303339
0.0300708
0.0298187
0.0295781
0.0293489
0.0314533
0.0311616
0.0308816
0.0306125
0.0303548
0.0301085
0.0298739
0.0296511
0.0294403
0.0320254
0.0317278
0.0314419
0.0311671
0.0309037
0.030652
0.0304121
0.0301841
0.0299684
0.0297649
0.0326099
0.0323065
0.0320148
0.0317343
0.0314654
0.0312083
0.0309631
0.0307302
0.0305095
0.0303014
0.0301058
0.0299229
0.0297529
0.0295957
0.0332068
0.0328975
0.0326001
0.0323141
0.0320397
0.0317773
0.031527
0.0312891
0.0310636
0.0308509
0.030651
0.030464
0.03029
0.0301292
0.0299816
0.0298472
0.0297262
0.0296185
0.033816
0.033501
0.0331979
0.0329063
0.0326266
0.0323589
0.0321036
0.0318607
0.0316306
0.0314133
0.0312091
0.031018
0.0308403
0.0306759
0.0305249
0.0303875
0.0302637
0.0301536
0.0300571
0.0299744
0.0344374
0.0341167
0.033808
0.033511
0.0332259
0.0329531
0.0326927
0.032445
0.0322102
0.0319885
0.0317801
0.031585
0.0314035
0.0312355
0.0310813
0.030941
0.0308144
0.0307019
0.0306032
0.0305187
0.0304481
0.0303917
0.0303493
0.0303211
0.0350711
0.0347447
0.0344305
0.034128
0.0338376
0.0335597
0.0332943
0.0330418
0.0328025
0.0325764
0.0323638
0.0321648
0.0319795
0.0318081
0.0316507
0.0315074
0.0313782
0.0312632
0.0311625
0.031076
0.031004
0.0309463
0.030903
0.0308742
0.0308597
0.0308597
0.0308742
0.030903
0.0309463
0.035717
0.035385
0.0350653
0.0347574
0.0344618
0.0341787
0.0339084
0.0336512
0.0334073
0.0331769
0.0329601
0.0327572
0.0325683
0.0323935
0.0322329
0.0320866
0.0319548
0.0318375
0.0317346
0.0316464
0.0315729
0.031514
0.0314698
0.0314403
0.0314256
0.0314256
0.0314403
0.0314698
0.031514
0.0315729
0.0316464
0.0317346
0.0363753
0.0360377
0.0357124
0.0353992
0.0350983
0.0348102
0.034535
0.0342731
0.0340247
0.0337899
0.0335691
0.0333623
0.0331697
0.0329916
0.0328278
0.0326787
0.0325443
0.0324246
0.0323197
0.0322297
0.0321547
0.0320946
0.0320495
0.0320194
0.0320044
0.0320044
0.0320194
0.0320495
0.0320946
0.0321547
0.0322297
0.0323197
0.0324245
0.0325442
0.037046
0.0367027
0.0363719
0.0360533
0.0357473
0.0354541
0.035174
0.0349074
0.0346545
0.0344155
0.0341906
0.03398
0.0337838
0.0336023
0.0334355
0.0332835
0.0331465
0.0330245
0.0329176
0.0328258
0.0327493
0.0326881
0.0326421
0.0326114
0.0325961
0.0325961
0.0326114
0.0326421
0.032688
0.0327493
0.0328258
0.0329176
0.0330244
0.0331464
0.0377292
0.0373802
0.0370439
0.03672
0.0364087
0.0361105
0.0358256
0.0355543
0.0352969
0.0350536
0.0348247
0.0346103
0.0344106
0.0342257
0.0340558
0.033901
0.0337614
0.0336371
0.0335282
0.0334347
0.0333567
0.0332943
0.0332475
0.0332162
0.0332006
0.0332006
0.0332162
0.0332475
0.0332943
0.0333567
0.0334347
0.0335282
0.0336371
0.0337613
0.0384249
0.0380703
0.0377285
0.0373991
0.0370827
0.0367794
0.0364897
0.0362137
0.0359519
0.0357044
0.0354714
0.0352532
0.0350499
0.0348617
0.0346887
0.0345311
0.034389
0.0342624
0.0341515
0.0340563
0.0339769
0.0339133
0.0338656
0.0338338
0.0338179
0.0338178
0.0338338
0.0338656
0.0339133
0.0339769
0.0340563
0.0341515
0.0342624
0.034389
0.0391333
0.038773
0.0384257
0.0380909
0.0377692
0.0374609
0.0371663
0.0368857
0.0366195
0.0363677
0.0361307
0.0359087
0.0357019
0.0355104
0.0353344
0.035174
0.0350293
0.0349005
0.0347876
0.0346907
0.0346098
0.0345451
0.0344965
0.0344641
0.0344479
0.0344479
0.0344641
0.0344965
0.0345451
0.0346098
0.0346907
0.0347876
0.0349004
0.0350293
0.0398545
0.0394886
0.0391356
0.0387955
0.0384686
0.0381552
0.0378557
0.0375705
0.0372997
0.0370437
0.0368027
0.0365769
0.0363666
0.0361718
0.0359927
0.0358295
0.0356823
0.0355513
0.0354364
0.0353378
0.0352555
0.0351896
0.0351402
0.0351072
0.0350907
0.0350907
0.0351072
0.0351402
0.0351896
0.0352555
0.0353378
0.0354364
0.0355512
0.0356823
0.0405887
0.040217
0.0398585
0.0395129
0.0391807
0.0388623
0.0385579
0.038268
0.0379928
0.0377325
0.0374875
0.0372579
0.037044
0.0368459
0.0366638
0.0364979
0.0363482
0.0362148
0.036098
0.0359977
0.035914
0.0358469
0.0357966
0.0357631
0.0357463
0.0357463
0.0357631
0.0357966
0.0358469
0.035914
0.0359976
0.0360979
0.0362148
0.0363481
0.0413362
0.0409586
0.0405944
0.0402434
0.0399059
0.0395823
0.0392731
0.0389785
0.0386987
0.0384342
0.0381852
0.0379518
0.0377344
0.037533
0.0373478
0.0371791
0.0370268
0.0368913
0.0367724
0.0366704
0.0365853
0.0365171
0.036466
0.0364318
0.0364148
0.0364148
0.0364318
0.036466
0.0365171
0.0365853
0.0366704
0.0367724
0.0368912
0.0370268
0.0420969
0.0417136
0.0413437
0.0409871
0.0406442
0.0403155
0.0400013
0.039702
0.0394178
0.039149
0.0388959
0.0386587
0.0384377
0.038233
0.0380448
0.0378732
0.0377185
0.0375806
0.0374598
0.0373561
0.0372696
0.0372003
0.0371483
0.0371136
0.0370962
0.0370962
0.0371135
0.0371482
0.0372003
0.0372696
0.0373561
0.0374598
0.0375806
0.0377184
0.0428713
0.042482
0.0421063
0.0417442
0.041396
0.0410621
0.0407429
0.0404387
0.04015
0.0398769
0.0396197
0.0393787
0.0391541
0.0389461
0.0387548
0.0385804
0.0384232
0.0382831
0.0381603
0.0380549
0.0379669
0.0378964
0.0378436
0.0378083
0.0377907
0.0377907
0.0378083
0.0378436
0.0378964
0.0379669
0.0380548
0.0381602
0.038283
0.0384231
0.0385804
0.0436595
0.0432642
0.0428827
0.0425149
0.0421612
0.0418221
0.0414979
0.0411889
0.0408956
0.0406181
0.0403569
0.040112
0.0398838
0.0396724
0.0394781
0.0393009
0.0391411
0.0389987
0.0388739
0.0387668
0.0386774
0.0386058
0.0385521
0.0385162
0.0384983
0.0384983
0.0385162
0.0385521
0.0386058
0.0386774
0.0387668
0.0388739
0.0389987
0.039141
0.0393008
0.0444617
0.0440604
0.043673
0.0432995
0.0429403
0.0425959
0.0422666
0.0419528
0.0416548
0.041373
0.0411075
0.0408588
0.0406269
0.0404122
0.0402147
0.0400347
0.0398723
0.0397277
0.0396009
0.039492
0.0394012
0.0393285
0.0392739
0.0392374
0.0392192
0.0392192
0.0392374
0.0392739
0.0393285
0.0394012
0.039492
0.0396009
0.0397277
0.0398723
0.0400347
0.0452783
0.0448708
0.0444774
0.0440981
0.0437334
0.0433836
0.0430491
0.0427304
0.0424278
0.0421415
0.0418719
0.0416192
0.0413837
0.0411656
0.040965
0.0407821
0.0406172
0.0404702
0.0403414
0.0402308
0.0401385
0.0400646
0.0400092
0.0399722
0.0399536
0.0399536
0.0399722
0.0400092
0.0400646
0.0401385
0.0402308
0.0403414
0.0404702
0.0406171
0.0461096
0.0456958
0.0452964
0.0449112
0.0445408
0.0441855
0.0438459
0.0435222
0.0432148
0.0429241
0.0426502
0.0423936
0.0421544
0.0419328
0.041729
0.0415433
0.0413757
0.0412265
0.0410956
0.0409833
0.0408895
0.0408145
0.0407581
0.0407205
0.0407017
0.0407017
0.0407205
0.0407581
0.0408145
0.0408895
0.0409833
0.0410956
0.0412264
0.0413757
0.0469558
0.0465356
0.04613
0.0457389
0.0453628
0.045002
0.0446571
0.0443283
0.0440162
0.0437209
0.0434428
0.0431821
0.0429391
0.0427141
0.0425071
0.0423185
0.0421483
0.0419967
0.0418638
0.0417497
0.0416544
0.0415782
0.041521
0.0414828
0.0414637
0.0414637
0.0414828
0.0415209
0.0415782
0.0416544
0.0417496
0.0418637
0.0419966
0.0421482
0.0478173
0.0473906
0.0469788
0.0465816
0.0461996
0.0458333
0.045483
0.0451491
0.0448321
0.0445322
0.0442497
0.043985
0.0437382
0.0435097
0.0432995
0.0431079
0.042935
0.042781
0.0426461
0.0425302
0.0424335
0.042356
0.0422979
0.0422591
0.0422397
0.0422397
0.0422591
0.0422979
0.042356
0.0424335
0.0425301
0.042646
0.042781
0.042935
0.0486944
0.0482612
0.0478429
0.0474396
0.0470517
0.0466796
0.0463239
0.0459849
0.0456629
0.0453583
0.0450714
0.0448026
0.044552
0.0443198
0.0441064
0.0439118
0.0437363
0.0435799
0.0434428
0.0433251
0.0432269
0.0431482
0.0430892
0.0430498
0.0430301
0.0430301
0.0430498
0.0430892
0.0431482
0.0432269
0.0433251
0.0434427
0.0435798
0.0495875
0.0491476
0.0487228
0.0483132
0.0479193
0.0475414
0.0471802
0.0468358
0.0465089
0.0461995
0.0459082
0.0456352
0.0453806
0.0451449
0.0449281
0.0447305
0.0445522
0.0443934
0.0442542
0.0441347
0.0440349
0.0439551
0.0438951
0.0438551
0.0438351
0.0438351
0.0438551
0.0438951
0.0439551
0.0440349
0.0441346
0.0442542
0.0443934
0.0504969
0.0500502
0.0496188
0.0492029
0.0488028
0.0484191
0.0480521
0.0477025
0.0473704
0.0470562
0.0467604
0.0464831
0.0462246
0.0459852
0.045765
0.0455643
0.0453833
0.045222
0.0450806
0.0449592
0.0448579
0.0447768
0.044716
0.0446753
0.044655
0.044655
0.0446753
0.0447159
0.0447768
0.0448579
0.0449592
0.0450806
0.0514232
0.0509695
0.0505314
0.0501089
0.0497026
0.0493128
0.0489402
0.048585
0.0482478
0.0479287
0.0476282
0.0473466
0.0470841
0.0468409
0.0466174
0.0464135
0.0462297
0.0460659
0.0459223
0.0457991
0.0456962
0.0456138
0.045552
0.0455108
0.0454901
0.0454901
0.0455108
0.045552
0.0456138
0.0456962
0.045799
0.0459223
0.0523667
0.0519058
0.0514609
0.0510317
0.050619
0.0502232
0.0498447
0.049484
0.0491414
0.0488174
0.0485122
0.0482261
0.0479595
0.0477126
0.0474855
0.0472785
0.0470918
0.0469255
0.0467797
0.0466545
0.04655
0.0464664
0.0464036
0.0463617
0.0463408
0.0463408
0.0463617
0.0464036
0.0464664
0.04655
0.0466545
0.0467796
0.0533278
0.0528597
0.0524077
0.0519718
0.0515526
0.0511505
0.0507661
0.0503997
0.0500517
0.0497226
0.0494126
0.0491221
0.0488513
0.0486005
0.0483699
0.0481597
0.04797
0.0478011
0.047653
0.0475259
0.0474198
0.0473349
0.0472711
0.0472286
0.0472073
0.0472073
0.0472286
0.0472711
0.0473349
0.0474198
0.0475259
0.047653
0.0543071
0.0538316
0.0533724
0.0529296
0.0525037
0.0520953
0.0517047
0.0513325
0.0509791
0.0506448
0.0503299
0.0500348
0.0497598
0.049505
0.0492708
0.0490573
0.0488647
0.0486931
0.0485428
0.0484137
0.0483059
0.0482197
0.0481549
0.0481117
0.0480901
0.0480901
0.0481117
0.0481549
0.0482197
0.0483059
0.0484136
0.0485427
0.055305
0.0548218
0.0543553
0.0539055
0.0534728
0.0530579
0.0526612
0.052283
0.051924
0.0515844
0.0512645
0.0509648
0.0506854
0.0504266
0.0501887
0.0499719
0.0497763
0.049602
0.0494493
0.0493182
0.0492088
0.0491212
0.0490554
0.0490115
0.0489896
0.0489896
0.0490115
0.0490554
0.0491211
0.0492088
0.0493181
0.0494493
0.056322
0.0558311
0.0553571
0.0549
0.0544604
0.0540389
0.0536358
0.0532516
0.0528869
0.0525418
0.0522169
0.0519124
0.0516286
0.0513657
0.0511241
0.0509038
0.0507051
0.0505281
0.050373
0.0502398
0.0501287
0.0500398
0.049973
0.0499284
0.0499061
0.0499061
0.0499284
0.049973
0.0500397
0.0501287
0.0502398
0.050373
0.0573587
0.0568598
0.0563782
0.0559137
0.0554671
0.0550387
0.0546291
0.0542388
0.0538682
0.0535176
0.0531875
0.0528782
0.0525898
0.0523228
0.0520773
0.0518536
0.0516517
0.051472
0.0513144
0.0511791
0.0510663
0.0509759
0.0509081
0.0508628
0.0508402
0.0508402
0.0508628
0.0509081
0.0509759
0.0510663
0.0511791
0.0513144
0.0584156
0.0579086
0.0574191
0.0569471
0.0564932
0.0560579
0.0556417
0.0552451
0.0548685
0.0545123
0.0541769
0.0538625
0.0535696
0.0532983
0.0530489
0.0528216
0.0526166
0.052434
0.0522739
0.0521365
0.0520218
0.05193
0.0518611
0.0518152
0.0517922
0.0517922
0.0518152
0.0518611
0.05193
0.0520218
0.0521365
0.0522739
0.0594933
0.058978
0.0584805
0.0580008
0.0575394
0.057097
0.0566741
0.056271
0.0558883
0.0555263
0.0551855
0.0548661
0.0545684
0.0542928
0.0540394
0.0538084
0.0536001
0.0534146
0.053252
0.0531124
0.0529959
0.0529027
0.0528327
0.052786
0.0527627
0.0527627
0.052786
0.0528327
0.0529027
0.0529959
0.0531124
0.053252
0.0605924
0.0600686
0.0595629
0.0590753
0.0586063
0.0581567
0.0577268
0.0573171
0.0569281
0.0565603
0.0562139
0.0558893
0.0555868
0.0553067
0.0550493
0.0548146
0.0546029
0.0544144
0.0542492
0.0541074
0.0539891
0.0538944
0.0538232
0.0537758
0.0537521
0.0537521
0.0537758
0.0538232
0.0538943
0.0539891
0.0541074
0.0542492
0.0617136
0.0611811
0.0606669
0.0601712
0.0596945
0.0592374
0.0588004
0.058384
0.0579886
0.0576147
0.0572626
0.0569328
0.0566254
0.0563407
0.0560791
0.0558406
0.0556255
0.055434
0.0552661
0.055122
0.0550018
0.0549055
0.0548333
0.0547851
0.054761
0.054761
0.0547851
0.0548333
0.0549055
0.0550018
0.055122
0.0552661
0.0628574
0.062316
0.0617932
0.0612892
0.0608046
0.0603398
0.0598956
0.0594722
0.0590703
0.0586902
0.0583324
0.0579971
0.0576846
0.0573953
0.0571294
0.0568871
0.0566685
0.0564738
0.0563032
0.0561568
0.0560347
0.0559368
0.0558634
0.0558145
0.05579
0.05579
0.0558145
0.0558634
0.0559368
0.0560346
0.0561568
0.0563032
0.0640247
0.0634741
0.0629425
0.06243
0.0619372
0.0614647
0.0610129
0.0605825
0.0601739
0.0597875
0.0594237
0.0590828
0.0587652
0.0584711
0.0582008
0.0579545
0.0577324
0.0575345
0.0573612
0.0572124
0.0570882
0.0569888
0.0569142
0.0568645
0.0568396
0.0568396
0.0568645
0.0569142
0.0569888
0.0570882
0.0572123
0.0573611
0.0652162
0.0646561
0.0641155
0.0635943
0.0630931
0.0626125
0.0621532
0.0617155
0.0613
0.0609071
0.0605372
0.0601907
0.0598678
0.0595688
0.0592941
0.0590437
0.0588179
0.0586168
0.0584405
0.0582893
0.0581631
0.0580621
0.0579863
0.0579357
0.0579104
0.0579104
0.0579357
0.0579863
0.0580621
0.0581631
0.0582893
0.0584405
0.0664324
0.0658628
0.0653128
0.0647827
0.0642729
0.0637842
0.063317
0.0628719
0.0624494
0.0620498
0.0616737
0.0613213
0.060993
0.0606891
0.0604097
0.0601551
0.0599256
0.0597211
0.059542
0.0593883
0.05926
0.0591573
0.0590802
0.0590288
0.0590031
0.0590031
0.0590288
0.0590802
0.0591573
0.05926
0.0593882
0.0676744
0.0670948
0.0665354
0.065996
0.0654775
0.0649803
0.0645051
0.0640524
0.0636226
0.0632163
0.0628338
0.0624754
0.0621416
0.0618325
0.0615484
0.0612896
0.0610562
0.0608483
0.0606662
0.0605099
0.0603795
0.0602751
0.0601968
0.0601445
0.0601184
0.0601184
0.0601445
0.0601968
0.0602751
0.0603795
0.0605099
0.0689428
0.0683531
0.0677838
0.0672351
0.0667076
0.0662018
0.0657183
0.0652578
0.0648206
0.0644073
0.0640182
0.0636537
0.0633142
0.0629999
0.062711
0.0624478
0.0622104
0.0619991
0.0618139
0.061655
0.0615224
0.0614162
0.0613366
0.0612834
0.0612569
0.0612569
0.0612834
0.0613366
0.0614162
0.0615224
0.0702385
0.0696384
0.0690591
0.0685008
0.0679639
0.0674493
0.0669574
0.0664888
0.0660441
0.0656236
0.0652278
0.064857
0.0645116
0.0641919
0.0638981
0.0636304
0.063389
0.0631741
0.0629858
0.0628241
0.0626893
0.0625814
0.0625004
0.0624464
0.0624193
0.0624193
0.0624464
0.0625004
0.0625814
0.0626893
0.0715625
0.0709517
0.0703621
0.0697938
0.0692475
0.0687237
0.0682232
0.0677464
0.0672938
0.066866
0.0664633
0.0660861
0.0657347
0.0654095
0.0651106
0.0648383
0.0645928
0.0643742
0.0641826
0.0640182
0.0638811
0.0637713
0.063689
0.063634
0.0636065
0.0636065
0.063634
0.063689
0.0637713
0.0638811
0.0729156
0.0722938
0.0716936
0.0711151
0.0705591
0.070026
0.0695165
0.0690313
0.0685707
0.0681353
0.0677256
0.0673417
0.0669842
0.0666533
0.0663492
0.0660722
0.0658225
0.0656001
0.0654052
0.065238
0.0650985
0.0649869
0.0649031
0.0648472
0.0648193
0.0648193
0.0648472
0.0649031
0.0649869
0.0650985
0.0742988
0.0736657
0.0730546
0.0724657
0.0718996
0.071357
0.0708384
0.0703444
0.0698757
0.0694325
0.0690155
0.0686249
0.0682611
0.0679243
0.0676149
0.0673331
0.0670789
0.0668527
0.0666545
0.0664843
0.0663425
0.0662289
0.0661436
0.0660868
0.0660583
0.0660583
0.0660868
0.0661436
0.0662289
0.0663424
0.075713
0.0750684
0.0744461
0.0738465
0.0732701
0.0727176
0.0721896
0.0716868
0.0712096
0.0707585
0.070334
0.0699364
0.0695661
0.0692234
0.0689086
0.0686217
0.0683631
0.0681329
0.0679312
0.0677581
0.0676137
0.0674981
0.0674114
0.0673536
0.0673246
0.0673246
0.0673535
0.0674114
0.0674981
0.0676137
0.0771595
0.0765029
0.0758692
0.0752585
0.0746716
0.0741089
0.0735713
0.0730593
0.0725734
0.0721142
0.071682
0.0712773
0.0709004
0.0705515
0.070231
0.0699391
0.0696759
0.0694416
0.0692363
0.0690601
0.0689132
0.0687956
0.0687073
0.0686485
0.068619
0.068619
0.0686485
0.0687073
0.0687956
0.0689132
0.0786392
0.0779703
0.0773248
0.0767029
0.076105
0.075532
0.0749845
0.074463
0.0739683
0.0735006
0.0730606
0.0726485
0.0722648
0.0719096
0.0715833
0.0712861
0.0710182
0.0707797
0.0705708
0.0703915
0.0702419
0.0701222
0.0700324
0.0699725
0.0699425
0.0699425
0.0699725
0.0700324
0.0701222
0.0702419
0.0801533
0.0794718
0.0788142
0.0781806
0.0775715
0.0769878
0.0764301
0.075899
0.0753951
0.0749188
0.0744707
0.0740511
0.0736603
0.0732987
0.0729665
0.0726639
0.0723911
0.0721483
0.0719356
0.0717531
0.0716009
0.071479
0.0713876
0.0713266
0.0712961
0.0712961
0.0713266
0.0713876
0.071479
0.0716009
0.081703
0.0810086
0.0803385
0.0796929
0.0790723
0.0784776
0.0779095
0.0773684
0.0768551
0.0763699
0.0759135
0.0754861
0.0750881
0.0747199
0.0743816
0.0740734
0.0737957
0.0735484
0.0733319
0.073146
0.072991
0.072867
0.0727739
0.0727118
0.0726807
0.0726807
0.0727118
0.0727739
0.0728669
0.072991
0.0832895
0.0825818
0.0818989
0.0812409
0.0806086
0.0800026
0.0794236
0.0788723
0.0783493
0.0778551
0.0773901
0.0769547
0.0765493
0.0761742
0.0758296
0.0755158
0.0752329
0.0749812
0.0747606
0.0745713
0.0744135
0.0742872
0.0741924
0.0741291
0.0740975
0.0740975
0.0741291
0.0741924
0.0742872
0.0744135
0.0849142
0.0841928
0.0834967
0.082826
0.0821815
0.0815639
0.0809738
0.080412
0.0798791
0.0793755
0.0789017
0.0784581
0.0780451
0.0776629
0.0773119
0.0769923
0.0767041
0.0764476
0.076223
0.0760302
0.0758695
0.0757408
0.0756442
0.0755798
0.0755476
0.0755476
0.0755798
0.0756442
0.0757408
0.0758695
0.0865784
0.0858429
0.0851332
0.0844495
0.0837924
0.0831628
0.0825614
0.0819888
0.0814456
0.0809323
0.0804495
0.0799975
0.0795766
0.0791873
0.0788296
0.0785039
0.0782103
0.0779491
0.0777202
0.0775238
0.0773601
0.077229
0.0771306
0.077065
0.0770322
0.0770322
0.077065
0.0771306
0.077229
0.0773601
0.0882836
0.0875335
0.0868099
0.0861127
0.0854428
0.0848008
0.0841877
0.0836039
0.0830502
0.082527
0.0820349
0.0815742
0.0811453
0.0807484
0.080384
0.0800521
0.0797529
0.0794867
0.0792535
0.0790534
0.0788866
0.078753
0.0786528
0.078586
0.0785526
0.0785526
0.078586
0.0786528
0.078753
0.0788866
0.0900312
0.0892662
0.0885281
0.0878171
0.0871339
0.0864793
0.0858541
0.0852588
0.0846943
0.0841609
0.0836592
0.0831895
0.0827523
0.0823478
0.0819763
0.081638
0.0813332
0.0810618
0.0808242
0.0806203
0.0804503
0.0803142
0.080212
0.0801439
0.0801099
0.0801099
0.0801439
0.080212
0.0803141
0.0804502
0.0918228
0.0910424
0.0902895
0.0895643
0.0888674
0.0881997
0.087562
0.086955
0.0863793
0.0858354
0.0853238
0.0848449
0.0843992
0.0839868
0.0836081
0.0832632
0.0829524
0.0826759
0.0824336
0.0822258
0.0820525
0.0819138
0.0818097
0.0817403
0.0817056
0.0817056
0.0817403
0.0818097
0.0819138
0.0820525
0.0936601
0.0928639
0.0920957
0.0913557
0.0906447
0.0899636
0.0893131
0.088694
0.0881067
0.087552
0.0870303
0.0865419
0.0860874
0.0856669
0.0852807
0.0849291
0.0846122
0.0843302
0.0840833
0.0838714
0.0836947
0.0835533
0.0834472
0.0833764
0.0833411
0.0833411
0.0833764
0.0834472
0.0835533
0.0836947
0.0955447
0.0947322
0.0939483
0.0931932
0.0924677
0.0917727
0.091109
0.0904773
0.0898782
0.0893123
0.0887801
0.088282
0.0878184
0.0873895
0.0869957
0.0866371
0.086314
0.0860265
0.0857746
0.0855586
0.0853784
0.0852342
0.085126
0.0850539
0.0850178
0.0850178
0.0850539
0.085126
0.0852342
0.0853784
0.0974785
0.0966493
0.0958491
0.0950783
0.0943379
0.0936286
0.0929513
0.0923067
0.0916954
0.091118
0.0905751
0.0900669
0.0895939
0.0891564
0.0887547
0.088389
0.0880594
0.0877661
0.0875092
0.0872889
0.0871052
0.0869581
0.0868478
0.0867742
0.0867374
0.0867374
0.0867742
0.0868478
0.0869581
0.0871052
0.0994635
0.0986169
0.0977999
0.0970131
0.0962572
0.0955331
0.0948418
0.0941839
0.0935601
0.0929709
0.0924168
0.0918982
0.0914156
0.0909693
0.0905594
0.0901863
0.08985
0.0895508
0.0892888
0.089064
0.0888766
0.0887266
0.0886141
0.088539
0.0885015
0.0885015
0.088539
0.0886141
0.0887266
0.0888766
0.101501
0.100637
0.0998028
0.0989993
0.0982275
0.0974882
0.0967825
0.0961109
0.095474
0.0948726
0.0943071
0.0937778
0.0932853
0.0928298
0.0924115
0.0920308
0.0916877
0.0913824
0.091115
0.0908857
0.0906945
0.0905414
0.0904266
0.09035
0.0903117
0.0903117
0.09035
0.0904266
0.0905414
0.0906945
0.103595
0.102712
0.10186
0.101039
0.100251
0.0994959
0.0987752
0.0980894
0.0974392
0.0968252
0.0962479
0.0957076
0.0952049
0.0947399
0.094313
0.0939243
0.0935742
0.0932626
0.0929897
0.0927557
0.0925606
0.0924044
0.0922872
0.0922091
0.09217
0.09217
0.0922091
0.0922872
0.0924044
0.0925606
0.103973
0.103134
0.102329
0.101558
0.100822
0.100122
0.0994577
0.0988307
0.0982411
0.0976895
0.0971762
0.0967015
0.0944768
0.0943174
0.0941978
0.094118
0.0940781
0.0940781
0.094118
0.0941978
0.0943174
0.0944768
0.0238308
0.0237969
0.0237714
0.0237545
0.0237461
0.0237461
0.0237545
0.0237714
0.0237969
0.0238308
0.0242044
0.0241595
0.0241237
0.024097
0.0240791
0.0240702
0.0240702
0.0240791
0.024097
0.0241237
0.0241595
0.0242044
0.0242583
0.0243215
0.0243939
0.0244757
0.024567
0.0246679
0.0247784
0.0248987
0.0250288
0.024676
0.0246098
0.0245533
0.0245062
0.0244687
0.0244405
0.0244218
0.0244124
0.0244124
0.0244218
0.0244405
0.0244687
0.0245062
0.0245533
0.0246098
0.024676
0.0247519
0.0248375
0.024933
0.0250384
0.0251538
0.0252793
0.0254149
0.0255608
0.025717
0.0258835
0.0260604
0.0253158
0.0252163
0.025127
0.0250478
0.0249787
0.0249195
0.0248704
0.0248311
0.0248017
0.0247821
0.0247723
0.0247723
0.0247821
0.0248017
0.0248311
0.0248704
0.0249195
0.0249787
0.0250478
0.025127
0.0252163
0.0253158
0.0254256
0.0255458
0.0256763
0.0258173
0.0259688
0.0261309
0.0263035
0.0264867
0.0266805
0.0268848
0.0270997
0.0259539
0.0258291
0.0257151
0.0256116
0.0255187
0.0254363
0.0253643
0.0253027
0.0252515
0.0252105
0.0251799
0.0251594
0.0251492
0.0251492
0.0251594
0.0251799
0.0252105
0.0252515
0.0253027
0.0253643
0.0254363
0.0255187
0.0256116
0.0257151
0.0258292
0.0259539
0.0260893
0.0262355
0.0263924
0.0265602
0.0267387
0.026928
0.0271281
0.0273389
0.0275604
0.0277924
0.0280349
0.0282885
0.026669
0.0265178
0.0263776
0.0262485
0.0261303
0.026023
0.0259266
0.025841
0.0257663
0.0257023
0.0256491
0.0256065
0.0255747
0.0255534
0.0255428
0.0255428
0.0255534
0.0255747
0.0256065
0.0256491
0.0257023
0.0257663
0.0258411
0.0259266
0.026023
0.0261303
0.0262485
0.0263777
0.0265178
0.026669
0.0268313
0.0270045
0.0271888
0.0273841
0.0275903
0.0278074
0.0280352
0.0282738
0.0285229
0.0287832
0.0272849
0.0271176
0.0269615
0.0268167
0.0266832
0.026561
0.02645
0.0263502
0.0262616
0.0261842
0.0261179
0.0260627
0.0260186
0.0259856
0.0259635
0.0259525
0.0259525
0.0259635
0.0259856
0.0260186
0.0260628
0.0261179
0.0261842
0.0262616
0.0263502
0.02645
0.026561
0.0266832
0.0268167
0.0269615
0.0271176
0.0272849
0.0274636
0.0276534
0.0278545
0.0280666
0.0282898
0.028524
0.0287689
0.0290245
0.0292913
0.0279369
0.0277531
0.0275807
0.0274199
0.0272707
0.027133
0.0270068
0.0268922
0.0267892
0.0266977
0.0266176
0.0265491
0.026492
0.0264464
0.0264122
0.0263894
0.026378
0.026378
0.0263894
0.0264122
0.0264464
0.026492
0.0265491
0.0266176
0.0266977
0.0267892
0.0268922
0.0270068
0.027133
0.0272707
0.0274199
0.0275808
0.0277531
0.027937
0.0281323
0.0283389
0.0285569
0.0287861
0.0290263
0.0292774
0.0295393
0.0298126
0.028625
0.0284244
0.0282355
0.0280582
0.0278928
0.0277392
0.0275974
0.0274674
0.0273493
0.0272431
0.0271487
0.0270662
0.0269955
0.0269365
0.0268894
0.0268541
0.0268306
0.0268188
0.0268188
0.0268306
0.0268541
0.0268894
0.0269366
0.0269955
0.0270662
0.0271487
0.0272431
0.0273494
0.0274674
0.0275974
0.0277392
0.0278928
0.0280583
0.0282355
0.0284244
0.028625
0.0288372
0.0290608
0.0292958
0.029542
0.0297992
0.0300673
0.0303468
0.0293489
0.0291314
0.0289256
0.0287317
0.0285497
0.0283798
0.0282219
0.0280761
0.0279425
0.027821
0.0277117
0.0276145
0.0275295
0.0274566
0.0273959
0.0273474
0.027311
0.0272867
0.0272746
0.0272746
0.0272867
0.027311
0.0273474
0.027396
0.0274566
0.0275295
0.0276145
0.0277117
0.027821
0.0279425
0.0280762
0.0282219
0.0283798
0.0285498
0.0287317
0.0289256
0.0291314
0.0293489
0.0295781
0.0298188
0.0300708
0.030334
0.0306081
0.0308937
0.0298739
0.0296512
0.0294403
0.0292416
0.029055
0.0288807
0.0287186
0.028569
0.0284317
0.0283069
0.0281945
0.0280946
0.0280072
0.0279323
0.0278699
0.02782
0.0277825
0.0277575
0.027745
0.027745
0.0277575
0.0277825
0.02782
0.0278699
0.0279323
0.0280072
0.0280946
0.0281945
0.0283069
0.0284317
0.028569
0.0287186
0.0288807
0.029055
0.0292416
0.0294404
0.0296512
0.029874
0.0301086
0.0303548
0.0306126
0.0308816
0.0311617
0.0314533
0.030652
0.0304121
0.0301842
0.0299684
0.0297649
0.0295738
0.0293951
0.029229
0.0290756
0.0289348
0.0288067
0.0286914
0.0285889
0.0284991
0.0284222
0.0283581
0.0283068
0.0282683
0.0282426
0.0282298
0.0282298
0.0282426
0.0282683
0.0283068
0.0283581
0.0284222
0.0284991
0.0285889
0.0286914
0.0288067
0.0289348
0.0290756
0.029229
0.0293951
0.0295738
0.0297649
0.0299684
0.0301842
0.0304121
0.030652
0.0309038
0.0311671
0.0314419
0.0317278
0.0320254
0.0314654
0.0312083
0.0309631
0.0307302
0.0305095
0.0303014
0.0301058
0.029923
0.0297529
0.0295957
0.0294515
0.0293203
0.0292021
0.0290969
0.0290049
0.028926
0.0288602
0.0288076
0.0287681
0.0287418
0.0287286
0.0287286
0.0287418
0.0287681
0.0288076
0.0288602
0.028926
0.0290049
0.0290969
0.0292021
0.0293203
0.0294515
0.0295957
0.0297529
0.029923
0.0301058
0.0303014
0.0305096
0.0307302
0.0309632
0.0312083
0.0314654
0.0317343
0.0320148
0.0323065
0.0326099
0.0320397
0.0317773
0.031527
0.0312891
0.0310636
0.0308509
0.030651
0.030464
0.03029
0.0301292
0.0299816
0.0298473
0.0297262
0.0296186
0.0295243
0.0294435
0.0293761
0.0293222
0.0292817
0.0292547
0.0292412
0.0292412
0.0292547
0.0292817
0.0293222
0.0293761
0.0294435
0.0295243
0.0296186
0.0297263
0.0298473
0.0299816
0.0301292
0.0302901
0.030464
0.030651
0.0308509
0.0310637
0.0312891
0.031527
0.0317773
0.0320398
0.0323141
0.0326001
0.0328975
0.0332068
0.0329063
0.0326266
0.0323589
0.0321035
0.0318607
0.0316306
0.0314133
0.0312091
0.0310181
0.0308403
0.0306759
0.030525
0.0303876
0.0302638
0.0301536
0.0300572
0.0299745
0.0299055
0.0298503
0.0298089
0.0297812
0.0297674
0.0297674
0.0297812
0.0298089
0.0298503
0.0299055
0.0299745
0.0300572
0.0301536
0.0302638
0.0303876
0.030525
0.0306759
0.0308403
0.0310181
0.0312091
0.0314134
0.0316306
0.0318607
0.0321036
0.0323589
0.0326266
0.0329063
0.0331979
0.033501
0.033816
0.033511
0.0332259
0.032953
0.0326927
0.032445
0.0322102
0.0319885
0.0317801
0.031585
0.0314035
0.0312356
0.0310814
0.030941
0.0308145
0.0307019
0.0306033
0.0305187
0.0304482
0.0303917
0.0303494
0.0303211
0.030307
0.030307
0.0303211
0.0303494
0.0303917
0.0304482
0.0305187
0.0306033
0.0307019
0.0308145
0.030941
0.0310814
0.0312356
0.0314035
0.031585
0.0317801
0.0319885
0.0322102
0.032445
0.0326927
0.0329531
0.0332259
0.033511
0.033808
0.0341167
0.0344374
0.034128
0.0338376
0.0335596
0.0332943
0.0330418
0.0328025
0.0325764
0.0323638
0.0321648
0.0319795
0.0318081
0.0316507
0.0315074
0.0313782
0.0312632
0.0311625
0.0310761
0.031004
0.0309464
0.0309031
0.0308742
0.0308598
0.0308598
0.0308742
0.0309031
0.0309464
0.0310041
0.0310761
0.0311625
0.0312632
0.0313782
0.0315074
0.0316508
0.0318082
0.0319795
0.0321648
0.0323638
0.0325764
0.0328025
0.0330419
0.0332943
0.0335597
0.0338377
0.034128
0.0344305
0.0347447
0.0350711
0.0347574
0.0344618
0.0341787
0.0339084
0.0336512
0.0334073
0.0331769
0.0329601
0.0327572
0.0325683
0.0323935
0.0322329
0.0320867
0.0319548
0.0318375
0.0317347
0.0316465
0.0315729
0.031514
0.0314698
0.0314404
0.0314256
0.0314256
0.0314404
0.0314698
0.031514
0.0315729
0.0316465
0.0317347
0.0318375
0.0319549
0.0320867
0.0322329
0.0323935
0.0325683
0.0327572
0.0329602
0.0331769
0.0334073
0.0336513
0.0339085
0.0341787
0.0344618
0.0347574
0.0350653
0.035385
0.035717
0.0353991
0.0350983
0.0348101
0.034535
0.0342731
0.0340247
0.0337899
0.0335691
0.0333623
0.0331698
0.0329916
0.0328279
0.0326787
0.0325443
0.0324246
0.0323197
0.0322298
0.0321547
0.0320946
0.0320496
0.0320195
0.0320045
0.0320044
0.0320195
0.0320496
0.0320946
0.0321547
0.0322298
0.0323198
0.0324246
0.0325443
0.0326788
0.0328279
0.0329916
0.0331698
0.0333623
0.0335691
0.03379
0.0340247
0.0342731
0.034535
0.0348102
0.0350983
0.0353992
0.0357124
0.0360377
0.0363753
0.0360533
0.0357472
0.0354541
0.035174
0.0349074
0.0346545
0.0344155
0.0341906
0.03398
0.0337839
0.0336023
0.0334355
0.0332835
0.0331465
0.0330245
0.0329176
0.0328259
0.0327494
0.0326881
0.0326421
0.0326115
0.0325961
0.0325961
0.0326115
0.0326421
0.0326881
0.0327494
0.0328259
0.0329176
0.0330245
0.0331465
0.0332835
0.0334355
0.0336023
0.0337839
0.03398
0.0341906
0.0344155
0.0346546
0.0349075
0.0351741
0.0354541
0.0357473
0.0360534
0.0363719
0.0367027
0.037046
0.0367199
0.0364087
0.0361104
0.0358256
0.0355543
0.0352969
0.0350536
0.0348247
0.0346103
0.0344106
0.0342257
0.0340558
0.033901
0.0337614
0.0336371
0.0335282
0.0334347
0.0333568
0.0332944
0.0332475
0.0332163
0.0332006
0.0332006
0.0332163
0.0332475
0.0332944
0.0333568
0.0334348
0.0335282
0.0336371
0.0337614
0.033901
0.0340558
0.0342257
0.0344106
0.0346103
0.0348247
0.0350537
0.035297
0.0355543
0.0358256
0.0361105
0.0364087
0.03672
0.0370439
0.0373802
0.0377292
0.0373991
0.0370826
0.0367794
0.0364896
0.0362137
0.0359519
0.0357044
0.0354714
0.0352532
0.0350499
0.0348617
0.0346888
0.0345312
0.034389
0.0342625
0.0341515
0.0340564
0.033977
0.0339134
0.0338656
0.0338338
0.0338179
0.0338179
0.0338338
0.0338657
0.0339134
0.033977
0.0340564
0.0341516
0.0342625
0.034389
0.0345312
0.0346888
0.0348617
0.0350499
0.0352532
0.0354714
0.0357044
0.0359519
0.0362138
0.0364897
0.0367794
0.0370827
0.0373992
0.0377285
0.0380703
0.0384249
0.0380909
0.0377692
0.0374609
0.0371663
0.0368857
0.0366194
0.0363677
0.0361307
0.0359087
0.0357019
0.0355104
0.0353344
0.035174
0.0350293
0.0349005
0.0347876
0.0346907
0.0346099
0.0345451
0.0344965
0.0344641
0.0344479
0.0344479
0.0344641
0.0344966
0.0345451
0.0346099
0.0346907
0.0347876
0.0349005
0.0350294
0.035174
0.0353344
0.0355104
0.0357019
0.0359088
0.0361308
0.0363677
0.0366195
0.0368858
0.0371664
0.037461
0.0377693
0.038091
0.0384257
0.038773
0.0391333
0.0387954
0.0384685
0.0381552
0.0378557
0.0375705
0.0372997