/*--------------------------------*- C++ -*----------------------------------*\
  =========                 |
  \\      /  F ield         | OpenFOAM: The Open Source CFD Toolbox
   \\    /   O peration     | Website:  https://openfoam.org
    \\  /    A nd           | Version:  7
     \\/     M anipulation  |
\*---------------------------------------------------------------------------*/
FoamFile
{
    version     2.0;
    format      ascii;
    class       volScalarField;
    location    "8000";
    object      omega;
}
// * * * * * * * * * * * * * * * * * * * * * * * * * * * * * * * * * * * * * //

dimensions      [0 0 -1 0 0 0 0];

internalField   nonuniform List<scalar> 
4783
(
0.120501
0.120348
0.120201
0.120061
0.119927
0.1198
0.119679
0.119565
0.119457
0.119355
0.11926
0.119171
0.119089
0.119013
0.118943
0.11888
0.118824
0.118774
0.11873
0.118694
0.118663
0.118639
0.120765
0.120616
0.120468
0.120326
0.120188
0.120057
0.119932
0.119813
0.119701
0.119595
0.119495
0.119403
0.119316
0.119237
0.119164
0.119098
0.119038
0.118986
0.11894
0.118901
0.118869
0.118844
0.121039
0.120888
0.12074
0.120595
0.120455
0.12032
0.120191
0.120068
0.119952
0.119842
0.119739
0.119642
0.119552
0.119469
0.119393
0.119324
0.119262
0.119207
0.119159
0.119119
0.119085
0.119058
0.121323
0.121169
0.121018
0.12087
0.120727
0.120589
0.120457
0.120331
0.120211
0.120097
0.119991
0.119891
0.119798
0.119711
0.119632
0.119561
0.119496
0.119439
0.119389
0.119346
0.119311
0.119283
0.121616
0.121458
0.121303
0.121153
0.121007
0.120866
0.120731
0.120601
0.120478
0.120361
0.120251
0.120148
0.120052
0.119963
0.119881
0.119806
0.119739
0.11968
0.119628
0.119584
0.119547
0.119518
0.121917
0.121755
0.121597
0.121444
0.121295
0.121151
0.121012
0.12088
0.120753
0.120633
0.12052
0.120414
0.120315
0.120223
0.120139
0.120062
0.119992
0.119931
0.119877
0.119831
0.119793
0.119763
0.122226
0.12206
0.121899
0.121742
0.12159
0.121443
0.121301
0.121166
0.121037
0.120914
0.120798
0.120689
0.120587
0.120492
0.120405
0.120326
0.120255
0.120191
0.120136
0.120088
0.120049
0.120018
0.122542
0.122373
0.122208
0.122048
0.121893
0.121743
0.121598
0.12146
0.121328
0.121202
0.121083
0.120971
0.120867
0.12077
0.120681
0.1206
0.120526
0.120461
0.120404
0.120355
0.120314
0.120282
0.122865
0.122692
0.122524
0.122361
0.122203
0.12205
0.121903
0.121762
0.121627
0.121498
0.121377
0.121263
0.121156
0.121057
0.120965
0.120882
0.120806
0.120739
0.120681
0.120631
0.120589
0.120556
0.123195
0.123019
0.122848
0.122681
0.12252
0.122365
0.122215
0.122071
0.121933
0.121802
0.121679
0.121562
0.121453
0.121351
0.121258
0.121172
0.121095
0.121027
0.120966
0.120915
0.120872
0.120838
0.123531
0.123352
0.123178
0.123009
0.122845
0.122686
0.122534
0.122387
0.122247
0.122114
0.121988
0.121869
0.121757
0.121654
0.121558
0.121471
0.121392
0.121322
0.121261
0.121208
0.121164
0.121129
0.123873
0.123691
0.123514
0.123343
0.123176
0.123015
0.12286
0.122711
0.122569
0.122433
0.122305
0.122183
0.12207
0.121964
0.121867
0.121778
0.121698
0.121626
0.121563
0.121509
0.121464
0.121429
0.124221
0.124036
0.123857
0.123683
0.123514
0.12335
0.123193
0.123042
0.122897
0.122759
0.122628
0.122505
0.12239
0.122282
0.122183
0.122093
0.122011
0.121938
0.121874
0.121819
0.121773
0.121736
0.124574
0.124387
0.124206
0.124029
0.123857
0.123692
0.123532
0.123379
0.123232
0.123092
0.122959
0.122834
0.122717
0.122608
0.122507
0.122415
0.122331
0.122257
0.122191
0.122136
0.122089
0.122051
0.124932
0.124744
0.12456
0.124381
0.124207
0.124039
0.123877
0.123722
0.123573
0.123431
0.123297
0.12317
0.123051
0.12294
0.122838
0.122744
0.122659
0.122583
0.122517
0.12246
0.125296
0.125105
0.124919
0.124738
0.124562
0.124392
0.124228
0.124071
0.123921
0.123777
0.123641
0.123512
0.123391
0.123279
0.123175
0.123079
0.122993
0.122916
0.122848
0.125664
0.125471
0.125283
0.1251
0.124922
0.124751
0.124585
0.124426
0.124274
0.124129
0.123991
0.123861
0.123738
0.123624
0.123519
0.123421
0.123333
0.126036
0.125841
0.125652
0.125467
0.125288
0.125114
0.124947
0.124787
0.124633
0.124486
0.124347
0.124215
0.124091
0.123975
0.126413
0.126216
0.126025
0.125838
0.125658
0.125483
0.125314
0.125152
0.124997
0.124849
0.124708
0.124574
0.126793
0.126595
0.126402
0.126214
0.126032
0.125856
0.125686
0.125522
0.125366
0.125217
0.127176
0.126977
0.126783
0.126594
0.126411
0.126233
0.126062
0.125897
0.12574
0.127563
0.127363
0.127167
0.126977
0.126793
0.126614
0.126442
0.126277
0.127953
0.127752
0.127555
0.127364
0.127179
0.126999
0.126827
0.128345
0.128143
0.127946
0.127754
0.127568
0.127387
0.12874
0.128537
0.12834
0.128147
0.127961
0.127779
0.129138
0.128934
0.128736
0.128543
0.128356
0.129537
0.129332
0.129134
0.128941
0.129938
0.129733
0.129534
0.129342
0.13034
0.130135
0.129935
0.130744
0.130538
0.130337
0.131149
0.130943
0.130741
0.131556
0.131348
0.131146
0.131963
0.131755
0.131552
0.13237
0.132163
0.13196
0.132779
0.132571
0.132368
0.133187
0.13298
0.132777
0.133596
0.133389
0.133186
0.134004
0.133799
0.133596
0.134413
0.134209
0.134006
0.134823
0.134618
0.134416
0.135236
0.13503
0.134827
0.135651
0.135445
0.13524
0.120501
0.120765
0.121039
0.121323
0.121616
0.121917
0.122225
0.122541
0.122864
0.123194
0.12353
0.123872
0.12422
0.124573
0.124932
0.125295
0.125663
0.126035
0.126411
0.126792
0.127175
0.127562
0.127952
0.128344
0.12874
0.129137
0.129536
0.129937
0.13034
0.130745
0.13115
0.131557
0.131964
0.132372
0.13278
0.133189
0.133598
0.134006
0.134414
0.134824
0.135237
0.135652
0.120345
0.120613
0.120885
0.121166
0.121455
0.121752
0.122057
0.122369
0.122689
0.123015
0.123348
0.123688
0.124033
0.124383
0.12474
0.125101
0.125467
0.125837
0.126212
0.12659
0.126973
0.127358
0.127747
0.128139
0.128533
0.12893
0.129329
0.12973
0.130133
0.130537
0.130943
0.13135
0.131758
0.132166
0.132575
0.132985
0.133395
0.133804
0.134214
0.134624
0.135036
0.135449
0.120197
0.120464
0.120735
0.121013
0.121298
0.121592
0.121893
0.122202
0.122519
0.122842
0.123172
0.123509
0.123851
0.124199
0.124553
0.124912
0.125276
0.125645
0.126018
0.126395
0.126776
0.12716
0.127548
0.127939
0.128332
0.128729
0.129127
0.129528
0.129931
0.130335
0.130741
0.131148
0.131556
0.131965
0.132375
0.132785
0.133196
0.133607
0.134018
0.134429
0.13484
0.135252
0.120055
0.12032
0.120588
0.120864
0.121146
0.121437
0.121735
0.12204
0.122354
0.122674
0.123001
0.123334
0.123674
0.12402
0.124372
0.124729
0.125091
0.125457
0.125829
0.126204
0.126584
0.126967
0.127354
0.127744
0.128137
0.128532
0.12893
0.129331
0.129733
0.130138
0.130543
0.130951
0.131359
0.131769
0.132179
0.13259
0.133002
0.133414
0.133826
0.134238
0.134649
0.135061
0.11992
0.12018
0.120446
0.120719
0.120999
0.121286
0.121581
0.121883
0.122193
0.122511
0.122835
0.123166
0.123503
0.123846
0.124196
0.124551
0.124911
0.125276
0.125645
0.126019
0.126397
0.12678
0.127165
0.127554
0.127946
0.128341
0.128739
0.129139
0.129541
0.129946
0.130352
0.130759
0.131168
0.131578
0.131989
0.132401
0.132813
0.133225
0.133638
0.134051
0.134464
0.134877
0.119791
0.120047
0.12031
0.120579
0.120856
0.12114
0.121432
0.121731
0.122038
0.122353
0.122674
0.123003
0.123337
0.123678
0.124025
0.124378
0.124736
0.1251
0.125468
0.12584
0.126217
0.126598
0.126983
0.127371
0.127762
0.128157
0.128554
0.128954
0.129356
0.12976
0.130166
0.130573
0.130982
0.131393
0.131804
0.132216
0.132629
0.133043
0.133456
0.13387
0.134284
0.134697
0.119668
0.11992
0.120179
0.120445
0.120718
0.121
0.121288
0.121585
0.121889
0.122201
0.12252
0.122845
0.123178
0.123516
0.123861
0.124212
0.124568
0.12493
0.125296
0.125667
0.126043
0.126423
0.126806
0.127194
0.127584
0.127978
0.128375
0.128774
0.129176
0.12958
0.129986
0.130394
0.130803
0.131214
0.131625
0.132038
0.132452
0.132866
0.13328
0.133695
0.13411
0.134524
0.119552
0.1198
0.120054
0.120317
0.120587
0.120865
0.121151
0.121444
0.121746
0.122055
0.122371
0.122694
0.123024
0.123361
0.123704
0.124052
0.124407
0.124767
0.125132
0.125501
0.125876
0.126254
0.126637
0.127023
0.127413
0.127807
0.128203
0.128602
0.129003
0.129407
0.129813
0.130221
0.13063
0.131041
0.131454
0.131867
0.132281
0.132696
0.133111
0.133526
0.133942
0.134357
0.119442
0.119685
0.119936
0.120195
0.120462
0.120736
0.121019
0.12131
0.121609
0.121915
0.122229
0.12255
0.122877
0.123212
0.123553
0.1239
0.124252
0.124611
0.124974
0.125342
0.125716
0.126093
0.126475
0.12686
0.127249
0.127642
0.128038
0.128436
0.128838
0.129241
0.129647
0.130055
0.130465
0.130876
0.131289
0.131702
0.132117
0.132532
0.132948
0.133365
0.133781
0.134198
0.119338
0.119577
0.119824
0.120079
0.120343
0.120614
0.120894
0.121182
0.121478
0.121782
0.122093
0.122412
0.122737
0.12307
0.123409
0.123754
0.124105
0.124462
0.124824
0.125191
0.125563
0.125939
0.12632
0.126705
0.127093
0.127485
0.12788
0.128279
0.12868
0.129083
0.129489
0.129897
0.130307
0.130718
0.131131
0.131545
0.131961
0.132377
0.132793
0.133211
0.133628
0.134046
0.119241
0.119476
0.119719
0.11997
0.12023
0.120499
0.120776
0.121061
0.121355
0.121656
0.121965
0.122281
0.122605
0.122935
0.123272
0.123616
0.123965
0.12432
0.124681
0.125047
0.125417
0.125793
0.126173
0.126557
0.126944
0.127336
0.127731
0.128128
0.128529
0.128933
0.129338
0.129746
0.130156
0.130568
0.130981
0.131396
0.131812
0.132228
0.132646
0.133064
0.133482
0.133901
0.11915
0.119381
0.11962
0.119868
0.120125
0.12039
0.120665
0.120947
0.121238
0.121537
0.121844
0.122158
0.122479
0.122808
0.123143
0.123485
0.123833
0.124187
0.124546
0.124911
0.12528
0.125655
0.126034
0.126417
0.126804
0.127195
0.127589
0.127987
0.128387
0.12879
0.129196
0.129604
0.130014
0.130426
0.130839
0.131254
0.13167
0.132087
0.132505
0.132924
0.133343
0.133762
0.134181
0.119066
0.119292
0.119528
0.119773
0.120026
0.120289
0.120561
0.120841
0.121129
0.121426
0.12173
0.122042
0.122362
0.122689
0.123022
0.123362
0.123709
0.124061
0.124419
0.124783
0.125152
0.125525
0.125903
0.126286
0.126672
0.127062
0.127456
0.127853
0.128254
0.128657
0.129062
0.12947
0.12988
0.130292
0.130706
0.131121
0.131537
0.131955
0.132373
0.132792
0.133212
0.133631
0.134051
0.13447
0.118987
0.11921
0.119442
0.119684
0.119935
0.120195
0.120464
0.120741
0.121027
0.121322
0.121624
0.121935
0.122252
0.122577
0.122909
0.123248
0.123593
0.123944
0.124301
0.124664
0.125031
0.125404
0.125781
0.126163
0.126549
0.126939
0.127332
0.127729
0.128129
0.128532
0.128937
0.129345
0.129755
0.130167
0.130581
0.130996
0.131413
0.131831
0.13225
0.13267
0.13309
0.13351
0.133931
0.134352
0.118915
0.119135
0.119364
0.119603
0.119851
0.120108
0.120374
0.12065
0.120934
0.121226
0.121527
0.121835
0.122151
0.122475
0.122805
0.123142
0.123486
0.123836
0.124192
0.124553
0.12492
0.125292
0.125668
0.126049
0.126435
0.126824
0.127217
0.127613
0.128013
0.128416
0.128821
0.129229
0.129639
0.130051
0.130465
0.130881
0.131298
0.131716
0.132135
0.132555
0.132976
0.133397
0.133819
0.13424
0.134661
0.11885
0.119066
0.119292
0.119528
0.119774
0.120028
0.120292
0.120566
0.120848
0.121138
0.121437
0.121744
0.122058
0.12238
0.122709
0.123045
0.123388
0.123736
0.124091
0.124452
0.124818
0.125189
0.125564
0.125945
0.12633
0.126718
0.127111
0.127507
0.127906
0.128309
0.128714
0.129122
0.129532
0.129944
0.130358
0.130774
0.131192
0.13161
0.13203
0.13245
0.132872
0.133293
0.133716
0.134138
0.134561
0.118791
0.119004
0.119228
0.119461
0.119704
0.119956
0.120218
0.12049
0.12077
0.121058
0.121355
0.121661
0.121974
0.122294
0.122622
0.122957
0.123298
0.123646
0.124
0.12436
0.124725
0.125095
0.12547
0.12585
0.126234
0.126622
0.127015
0.12741
0.12781
0.128212
0.128617
0.129025
0.129435
0.129847
0.130261
0.130677
0.131095
0.131513
0.131933
0.132354
0.132776
0.133198
0.13362
0.134043
0.134466
0.134889
0.118738
0.118949
0.11917
0.119401
0.119642
0.119892
0.120152
0.120421
0.1207
0.120987
0.121283
0.121586
0.121898
0.122217
0.122544
0.122878
0.123218
0.123565
0.123918
0.124277
0.124641
0.125011
0.125385
0.125765
0.126148
0.126536
0.126928
0.127324
0.127722
0.128124
0.128529
0.128937
0.129347
0.129759
0.130174
0.13059
0.131007
0.131426
0.131847
0.132268
0.132689
0.133112
0.133534
0.133957
0.13438
0.134803
0.135228
0.118692
0.118901
0.119119
0.119348
0.119587
0.119835
0.120094
0.120361
0.120638
0.120924
0.121218
0.121521
0.121831
0.12215
0.122475
0.122808
0.123147
0.123493
0.123845
0.124204
0.124567
0.124936
0.12531
0.125689
0.126072
0.12646
0.126851
0.127247
0.127645
0.128047
0.128452
0.128859
0.129269
0.129682
0.130096
0.130512
0.13093
0.131349
0.13177
0.132191
0.132613
0.133036
0.133459
0.133882
0.134306
0.13473
0.135155
0.118652
0.118859
0.119075
0.119302
0.119539
0.119787
0.120043
0.12031
0.120585
0.12087
0.121163
0.121464
0.121774
0.122091
0.122415
0.122747
0.123086
0.123431
0.123783
0.12414
0.124503
0.124872
0.125245
0.125624
0.126006
0.126394
0.126785
0.12718
0.127578
0.12798
0.128384
0.128792
0.129202
0.129614
0.130028
0.130445
0.130863
0.131282
0.131702
0.132124
0.132547
0.13297
0.133393
0.133817
0.134241
0.134666
0.135093
0.118619
0.118824
0.119039
0.119264
0.1195
0.119745
0.120001
0.120266
0.12054
0.120824
0.121116
0.121416
0.121725
0.122041
0.122365
0.122696
0.123034
0.123379
0.12373
0.124087
0.124449
0.124817
0.12519
0.125568
0.125951
0.126338
0.126728
0.127123
0.127521
0.127923
0.128327
0.128735
0.129145
0.129557
0.129971
0.130387
0.130805
0.131225
0.131645
0.132067
0.13249
0.132913
0.133337
0.133761
0.134186
0.134611
0.135039
0.118592
0.118795
0.119009
0.119233
0.119468
0.119712
0.119967
0.120231
0.120504
0.120787
0.121078
0.121378
0.121685
0.122001
0.122324
0.122655
0.122992
0.123336
0.123687
0.124043
0.124405
0.124773
0.125145
0.125523
0.125905
0.126292
0.126682
0.127077
0.127475
0.127876
0.128281
0.128688
0.129098
0.12951
0.129924
0.13034
0.130758
0.131177
0.131598
0.13202
0.132443
0.132866
0.13329
0.133714
0.134139
0.134564
0.134991
0.13542
0.118572
0.118774
0.118986
0.11921
0.119443
0.119687
0.119941
0.120204
0.120477
0.120758
0.121049
0.121348
0.121655
0.12197
0.122293
0.122623
0.12296
0.123303
0.123653
0.124009
0.124371
0.124738
0.125111
0.125488
0.12587
0.126256
0.126647
0.127041
0.127439
0.12784
0.128244
0.128651
0.129061
0.129473
0.129887
0.130303
0.130721
0.131141
0.131561
0.131983
0.132406
0.132829
0.133253
0.133677
0.134102
0.134527
0.134954
0.135385
0.118558
0.118759
0.118971
0.119194
0.119426
0.11967
0.119923
0.120185
0.120457
0.120739
0.121029
0.121327
0.121634
0.121949
0.122271
0.122601
0.122937
0.123281
0.12363
0.123986
0.124347
0.124714
0.125087
0.125464
0.125845
0.126232
0.126622
0.127016
0.127413
0.127814
0.128218
0.128625
0.129035
0.129447
0.129861
0.130277
0.130695
0.131114
0.131535
0.131956
0.132379
0.132802
0.133226
0.13365
0.134074
0.134499
0.134925
0.135356
0.135789
0.11855
0.118751
0.118963
0.119185
0.119417
0.11966
0.119913
0.120175
0.120447
0.120728
0.121018
0.121316
0.121623
0.121937
0.122259
0.122589
0.122925
0.123268
0.123617
0.123973
0.124334
0.124701
0.125073
0.12545
0.125831
0.126217
0.126607
0.127001
0.127399
0.127799
0.128203
0.12861
0.12902
0.129431
0.129845
0.130261
0.130679
0.131098
0.131518
0.13194
0.132362
0.132786
0.133209
0.133633
0.134057
0.134482
0.134908
0.135338
0.135774
0.118549
0.11875
0.118961
0.119183
0.119416
0.119659
0.119911
0.120173
0.120445
0.120726
0.121016
0.121314
0.12162
0.121935
0.122257
0.122586
0.122922
0.123265
0.123614
0.12397
0.124331
0.124698
0.125069
0.125446
0.125828
0.126213
0.126603
0.126997
0.127394
0.127795
0.128199
0.128606
0.129015
0.129427
0.12984
0.130256
0.130674
0.131093
0.131513
0.131934
0.132356
0.132779
0.133203
0.133627
0.13405
0.134474
0.134899
0.135329
0.135764
0.136203
0.118554
0.118756
0.118967
0.119189
0.119422
0.119665
0.119918
0.12018
0.120452
0.120733
0.121023
0.121321
0.121628
0.121942
0.122264
0.122593
0.122929
0.123272
0.123622
0.123977
0.124338
0.124705
0.125076
0.125453
0.125835
0.12622
0.12661
0.127004
0.127401
0.127802
0.128205
0.128612
0.129021
0.129432
0.129846
0.130262
0.130679
0.131098
0.131518
0.131939
0.132361
0.132784
0.133207
0.13363
0.134054
0.134478
0.134903
0.135332
0.135768
0.136208
0.118566
0.118768
0.11898
0.119203
0.119436
0.119679
0.119933
0.120195
0.120467
0.120749
0.121039
0.121337
0.121644
0.121959
0.122281
0.12261
0.122947
0.12329
0.123639
0.123994
0.124356
0.124722
0.125094
0.125471
0.125852
0.126238
0.126627
0.127021
0.127418
0.127819
0.128222
0.128629
0.129038
0.129449
0.129862
0.130278
0.130695
0.131113
0.131533
0.131954
0.132376
0.132799
0.133222
0.133645
0.134068
0.134492
0.134917
0.135346
0.135782
0.136222
0.118584
0.118787
0.119
0.119224
0.119458
0.119702
0.119955
0.120219
0.120492
0.120773
0.121064
0.121363
0.12167
0.121985
0.122307
0.122637
0.122974
0.123317
0.123666
0.124022
0.124383
0.12475
0.125122
0.125499
0.12588
0.126266
0.126655
0.127049
0.127446
0.127846
0.12825
0.128656
0.129065
0.129476
0.129889
0.130305
0.130722
0.13114
0.13156
0.13198
0.132402
0.132824
0.133247
0.13367
0.134093
0.134516
0.134941
0.13537
0.135806
0.136247
0.118609
0.118813
0.119027
0.119252
0.119487
0.119732
0.119986
0.120251
0.120524
0.120807
0.121098
0.121397
0.121705
0.12202
0.122343
0.122673
0.12301
0.123354
0.123704
0.12406
0.124421
0.124788
0.12516
0.125537
0.125918
0.126304
0.126694
0.127087
0.127485
0.127885
0.128288
0.128694
0.129103
0.129514
0.129927
0.130342
0.130759
0.131177
0.131596
0.132017
0.132438
0.13286
0.133282
0.133705
0.134128
0.13455
0.134975
0.135404
0.13584
0.136281
0.11864
0.118846
0.119062
0.119288
0.119524
0.11977
0.120026
0.120291
0.120565
0.120849
0.121141
0.121441
0.121749
0.122065
0.122389
0.122719
0.123057
0.123401
0.123751
0.124107
0.124469
0.124836
0.125209
0.125586
0.125967
0.126353
0.126743
0.127136
0.127533
0.127934
0.128337
0.128743
0.129151
0.129562
0.129975
0.13039
0.130806
0.131224
0.131643
0.132063
0.132484
0.132906
0.133328
0.13375
0.134172
0.134595
0.135019
0.135448
0.135884
0.136325
0.118678
0.118886
0.119103
0.119331
0.119568
0.119816
0.120073
0.120339
0.120615
0.120899
0.121192
0.121493
0.121803
0.12212
0.122444
0.122775
0.123113
0.123458
0.123808
0.124165
0.124527
0.124895
0.125267
0.125644
0.126026
0.126412
0.126802
0.127196
0.127593
0.127993
0.128396
0.128802
0.12921
0.129621
0.130034
0.130448
0.130864
0.131282
0.1317
0.13212
0.13254
0.132961
0.133383
0.133805
0.134227
0.134648
0.135072
0.135501
0.135937
0.136379
0.118722
0.118932
0.119151
0.119381
0.11962
0.119869
0.120128
0.120396
0.120673
0.120959
0.121253
0.121555
0.121865
0.122183
0.122508
0.12284
0.123179
0.123524
0.123875
0.124232
0.124595
0.124963
0.125336
0.125713
0.126095
0.126482
0.126872
0.127265
0.127662
0.128062
0.128466
0.128871
0.129279
0.12969
0.130102
0.130516
0.130932
0.131349
0.131767
0.132187
0.132607
0.133027
0.133448
0.133869
0.13429
0.134712
0.135135
0.135564
0.136001
0.136443
0.118773
0.118985
0.119207
0.119438
0.11968
0.119931
0.120191
0.120461
0.120739
0.121026
0.121322
0.121625
0.121937
0.122255
0.122581
0.122914
0.123254
0.1236
0.123952
0.12431
0.124673
0.125041
0.125414
0.125792
0.126175
0.126561
0.126951
0.127345
0.127742
0.128142
0.128545
0.128951
0.129359
0.129769
0.130181
0.130595
0.13101
0.131427
0.131844
0.132263
0.132683
0.133103
0.133523
0.133943
0.134364
0.134784
0.135207
0.135636
0.136073
0.136516
0.11883
0.119044
0.119269
0.119503
0.119747
0.12
0.120262
0.120533
0.120814
0.121102
0.121399
0.121704
0.122017
0.122337
0.122664
0.122998
0.123338
0.123685
0.124038
0.124396
0.12476
0.125129
0.125503
0.125881
0.126264
0.12665
0.12704
0.127434
0.127831
0.128232
0.128635
0.12904
0.129448
0.129858
0.130269
0.130683
0.131098
0.131514
0.131931
0.132349
0.132768
0.133187
0.133607
0.134027
0.134447
0.134866
0.135288
0.135718
0.136155
0.136598
0.118893
0.119111
0.119338
0.119575
0.119821
0.120076
0.120341
0.120614
0.120896
0.121186
0.121485
0.121791
0.122105
0.122427
0.122755
0.12309
0.123432
0.12378
0.124133
0.124492
0.124857
0.125226
0.125601
0.125979
0.126362
0.126749
0.12714
0.127534
0.127931
0.128331
0.128734
0.129139
0.129547
0.129956
0.130368
0.130781
0.131195
0.131611
0.132028
0.132445
0.132863
0.133282
0.1337
0.134119
0.134538
0.134957
0.135379
0.135809
0.136246
0.13669
0.118963
0.119184
0.119414
0.119654
0.119902
0.12016
0.120427
0.120703
0.120987
0.121279
0.121579
0.121887
0.122203
0.122525
0.122855
0.123191
0.123534
0.123883
0.124237
0.124597
0.124963
0.125333
0.125708
0.126087
0.12647
0.126857
0.127248
0.127642
0.12804
0.12844
0.128842
0.129248
0.129655
0.130064
0.130475
0.130888
0.131302
0.131717
0.132133
0.13255
0.132967
0.133385
0.133803
0.134221
0.134639
0.135057
0.135479
0.135909
0.136347
0.136791
0.119039
0.119263
0.119497
0.119739
0.119991
0.120252
0.120521
0.120799
0.121085
0.121379
0.121681
0.121991
0.122308
0.122632
0.122964
0.123301
0.123645
0.123995
0.124351
0.124712
0.125078
0.125448
0.125824
0.126204
0.126587
0.126975
0.127366
0.12776
0.128158
0.128558
0.128961
0.129366
0.129773
0.130182
0.130592
0.131005
0.131418
0.131832
0.132248
0.132664
0.13308
0.133497
0.133914
0.134331
0.134748
0.135165
0.135588
0.136018
0.136457
0.136902
0.119121
0.11935
0.119587
0.119832
0.120087
0.12035
0.120622
0.120902
0.121191
0.121487
0.121791
0.122103
0.122422
0.122748
0.12308
0.123419
0.123765
0.124116
0.124472
0.124834
0.125201
0.125573
0.125949
0.126329
0.126714
0.127101
0.127493
0.127887
0.128285
0.128685
0.129088
0.129492
0.129899
0.130308
0.130718
0.13113
0.131543
0.131957
0.132371
0.132787
0.133202
0.133618
0.134034
0.13445
0.134866
0.135283
0.135705
0.136136
0.136575
0.137021
0.11921
0.119442
0.119683
0.119932
0.12019
0.120456
0.12073
0.121013
0.121304
0.121602
0.121909
0.122222
0.122543
0.122871
0.123205
0.123546
0.123892
0.124245
0.124602
0.124965
0.125333
0.125706
0.126083
0.126464
0.126848
0.127237
0.127628
0.128023
0.128421
0.128821
0.129223
0.129628
0.130035
0.130443
0.130853
0.131264
0.131677
0.13209
0.132504
0.132918
0.133333
0.133748
0.134163
0.134578
0.134992
0.135408
0.135831
0.136262
0.136703
0.137149
0.119305
0.119542
0.119786
0.120038
0.120299
0.120568
0.120845
0.121131
0.121424
0.121725
0.122033
0.122349
0.122672
0.123001
0.123337
0.12368
0.124028
0.124381
0.124741
0.125105
0.125474
0.125847
0.126225
0.126606
0.126992
0.12738
0.127772
0.128167
0.128565
0.128965
0.129368
0.129772
0.130179
0.130587
0.130996
0.131407
0.131819
0.132231
0.132644
0.133058
0.133472
0.133886
0.134299
0.134713
0.135126
0.135542
0.135965
0.136398
0.136839
0.137286
0.119407
0.119647
0.119895
0.120151
0.120415
0.120687
0.120967
0.121255
0.121551
0.121855
0.122165
0.122483
0.122808
0.12314
0.123477
0.123821
0.124171
0.124526
0.124886
0.125252
0.125622
0.125996
0.126375
0.126757
0.127143
0.127532
0.127924
0.12832
0.128718
0.129118
0.12952
0.129925
0.130331
0.130739
0.131148
0.131558
0.131969
0.132381
0.132793
0.133206
0.133618
0.134031
0.134444
0.134856
0.135269
0.135685
0.136108
0.136541
0.136983
0.137432
0.119515
0.119759
0.120011
0.120271
0.120538
0.120813
0.121096
0.121387
0.121685
0.121991
0.122304
0.122624
0.122951
0.123285
0.123624
0.12397
0.124321
0.124678
0.12504
0.125406
0.125777
0.126153
0.126532
0.126915
0.127302
0.127692
0.128084
0.12848
0.128878
0.129278
0.129681
0.130085
0.130491
0.130898
0.131307
0.131716
0.132127
0.132538
0.132949
0.133361
0.133773
0.134185
0.134596
0.135007
0.135419
0.135835
0.136259
0.136693
0.137137
0.137587
0.119629
0.119878
0.120133
0.120396
0.120667
0.120945
0.121231
0.121524
0.121825
0.122134
0.122449
0.122772
0.123101
0.123437
0.123778
0.124126
0.124479
0.124837
0.1252
0.125568
0.12594
0.126317
0.126697
0.127081
0.127468
0.127859
0.128252
0.128648
0.129046
0.129446
0.129849
0.130253
0.130658
0.131065
0.131473
0.131882
0.132292
0.132702
0.133113
0.133524
0.133935
0.134345
0.134756
0.135166
0.135577
0.135993
0.136418
0.136853
0.137298
0.13775
0.119749
0.120002
0.120262
0.120528
0.120801
0.121082
0.121371
0.121667
0.121971
0.122282
0.122601
0.122926
0.123257
0.123595
0.123939
0.124288
0.124643
0.125003
0.125368
0.125737
0.12611
0.126488
0.126869
0.127254
0.127642
0.128032
0.128426
0.128822
0.129221
0.129621
0.130024
0.130428
0.130833
0.13124
0.131647
0.132056
0.132465
0.132874
0.133284
0.133694
0.134104
0.134513
0.134922
0.135331
0.135742
0.136158
0.136585
0.137022
0.137469
0.137923
0.119876
0.120133
0.120396
0.120665
0.120941
0.121225
0.121517
0.121816
0.122123
0.122437
0.122758
0.123085
0.123419
0.123759
0.124105
0.124457
0.124813
0.125175
0.125541
0.125912
0.126287
0.126665
0.127047
0.127433
0.127822
0.128213
0.128607
0.129004
0.129402
0.129803
0.130205
0.130609
0.131014
0.131421
0.131828
0.132236
0.132644
0.133053
0.133462
0.13387
0.134279
0.134688
0.135095
0.135503
0.135914
0.136332
0.13676
0.137199
0.137648
0.138104
0.120009
0.12027
0.120535
0.120807
0.121086
0.121373
0.121668
0.12197
0.12228
0.122597
0.122921
0.123251
0.123587
0.12393
0.124278
0.124631
0.12499
0.125353
0.125721
0.126093
0.126469
0.126849
0.127232
0.127619
0.128008
0.1284
0.128795
0.129192
0.12959
0.129991
0.130393
0.130797
0.131202
0.131608
0.132015
0.132422
0.132829
0.133237
0.133645
0.134053
0.134461
0.134868
0.135275
0.135682
0.136093
0.136513
0.136942
0.137384
0.137835
0.138294
0.120148
0.120412
0.120679
0.120954
0.121236
0.121526
0.121824
0.122129
0.122442
0.122762
0.123089
0.123422
0.123761
0.124106
0.124456
0.124811
0.125172
0.125537
0.125906
0.12628
0.126657
0.127038
0.127423
0.12781
0.1282
0.128593
0.128988
0.129385
0.129784
0.130185
0.130587
0.130991
0.131396
0.131801
0.132207
0.132614
0.133021
0.133428
0.133835
0.134242
0.134648
0.135054
0.13546
0.135867
0.136279
0.136701
0.137134
0.137578
0.138033
0.138495
0.120294
0.120558
0.120827
0.121104
0.121389
0.121683
0.121984
0.122293
0.122609
0.122932
0.123262
0.123598
0.123939
0.124286
0.124639
0.124997
0.125359
0.125726
0.126097
0.126472
0.126851
0.127233
0.127618
0.128007
0.128398
0.128791
0.129187
0.129584
0.129983
0.130384
0.130787
0.13119
0.131594
0.132
0.132405
0.132811
0.133218
0.133624
0.13403
0.134436
0.134841
0.135246
0.135651
0.136058
0.136473
0.136898
0.137334
0.137782
0.13824
0.138705
0.120447
0.120707
0.120978
0.121258
0.121547
0.121845
0.12215
0.122462
0.122782
0.123108
0.12344
0.123779
0.124123
0.124473
0.124828
0.125188
0.125552
0.125921
0.126293
0.12667
0.12705
0.127433
0.12782
0.128209
0.1286
0.128994
0.129391
0.129789
0.130188
0.130589
0.130991
0.131395
0.131799
0.132204
0.132609
0.133014
0.133419
0.133825
0.13423
0.134634
0.135038
0.135441
0.135847
0.136257
0.136676
0.137104
0.137545
0.137997
0.138458
0.138925
0.120448
0.120708
0.120978
0.121259
0.121548
0.121845
0.12215
0.122463
0.122782
0.123108
0.123441
0.123779
0.124124
0.124473
0.124828
0.125188
0.125552
0.125921
0.126294
0.12667
0.12705
0.127433
0.12782
0.128209
0.1286
0.128994
0.12939
0.129788
0.130188
0.130589
0.130991
0.131394
0.131798
0.132203
0.132608
0.133013
0.133418
0.133823
0.134228
0.134633
0.135036
0.135439
0.135845
0.136255
0.136674
0.137102
0.137543
0.137994
0.138455
0.138922
0.120296
0.12056
0.120829
0.121105
0.121391
0.121684
0.121986
0.122295
0.122611
0.122934
0.123263
0.123599
0.12394
0.124288
0.12464
0.124998
0.12536
0.125727
0.126098
0.126473
0.126851
0.127233
0.127619
0.128007
0.128397
0.128791
0.129186
0.129583
0.129983
0.130383
0.130785
0.131188
0.131593
0.131997
0.132403
0.132808
0.133214
0.13362
0.134026
0.134431
0.134836
0.135241
0.135645
0.136052
0.136467
0.136891
0.137327
0.137775
0.138233
0.138697
0.120151
0.120415
0.120682
0.120956
0.121238
0.121529
0.121826
0.122132
0.122445
0.122765
0.123091
0.123424
0.123763
0.124108
0.124458
0.124813
0.125174
0.125539
0.125908
0.126281
0.126658
0.127039
0.127423
0.12781
0.1282
0.128593
0.128987
0.129384
0.129783
0.130183
0.130585
0.130988
0.131393
0.131798
0.132203
0.132609
0.133016
0.133422
0.133829
0.134235
0.134641
0.135046
0.135451
0.135857
0.13627
0.136691
0.137123
0.137567
0.138021
0.138482
0.120013
0.120274
0.12054
0.120811
0.12109
0.121377
0.121672
0.121974
0.122284
0.122601
0.122924
0.123254
0.123591
0.123933
0.124281
0.124634
0.124992
0.125356
0.125723
0.126095
0.126471
0.12685
0.127233
0.127619
0.128008
0.1284
0.128794
0.129191
0.129589
0.129989
0.130391
0.130794
0.131198
0.131604
0.13201
0.132416
0.132823
0.13323
0.133637
0.134044
0.134451
0.134858
0.135263
0.13567
0.13608
0.136499
0.136928
0.137369
0.137819
0.138277
0.119882
0.120139
0.120401
0.12067
0.120947
0.12123
0.121522
0.121821
0.122128
0.122442
0.122762
0.12309
0.123424
0.123764
0.124109
0.124461
0.124817
0.125178
0.125544
0.125915
0.126289
0.126667
0.127049
0.127434
0.127823
0.128214
0.128607
0.129003
0.129401
0.129801
0.130203
0.130606
0.13101
0.131416
0.131822
0.132229
0.132637
0.133044
0.133452
0.13386
0.134268
0.134675
0.135082
0.135488
0.135898
0.136315
0.136742
0.13718
0.137628
0.138082
0.119757
0.12001
0.120269
0.120535
0.120808
0.121089
0.121377
0.121673
0.121977
0.122288
0.122606
0.122931
0.123263
0.1236
0.123944
0.124293
0.124648
0.125007
0.125372
0.125741
0.126114
0.126491
0.126872
0.127256
0.127643
0.128034
0.128427
0.128822
0.12922
0.12962
0.130021
0.130424
0.130829
0.131235
0.131641
0.132049
0.132457
0.132865
0.133274
0.133683
0.134091
0.134499
0.134907
0.135315
0.135724
0.13614
0.136565
0.137001
0.137446
0.137898
0.119638
0.119886
0.120142
0.120404
0.120675
0.120952
0.121238
0.121531
0.121832
0.122141
0.122456
0.122779
0.123108
0.123443
0.123785
0.124132
0.124485
0.124843
0.125206
0.125573
0.125945
0.126321
0.126701
0.127084
0.127471
0.127861
0.128253
0.128648
0.129046
0.129445
0.129847
0.13025
0.130655
0.131061
0.131468
0.131876
0.132284
0.132693
0.133103
0.133512
0.133922
0.134331
0.13474
0.135148
0.135558
0.135973
0.136398
0.136831
0.137274
0.137723
0.119525
0.119769
0.120021
0.12028
0.120547
0.120822
0.121105
0.121395
0.121693
0.121999
0.122312
0.122632
0.122959
0.123292
0.123632
0.123977
0.124328
0.124685
0.125046
0.125413
0.125783
0.126158
0.126537
0.12692
0.127306
0.127695
0.128087
0.128482
0.128879
0.129278
0.12968
0.130083
0.130488
0.130894
0.131302
0.13171
0.132119
0.132529
0.132939
0.13335
0.13376
0.13417
0.13458
0.13499
0.1354
0.135816
0.136239
0.136671
0.137112
0.137558
0.119418
0.119659
0.119906
0.120162
0.120426
0.120698
0.120978
0.121265
0.121561
0.121864
0.122175
0.122493
0.122817
0.123149
0.123486
0.12383
0.124179
0.124534
0.124894
0.125259
0.125629
0.126003
0.126381
0.126763
0.127148
0.127537
0.127929
0.128323
0.12872
0.129119
0.129521
0.129924
0.130329
0.130736
0.131144
0.131553
0.131962
0.132373
0.132784
0.133195
0.133606
0.134018