/*--------------------------------*- C++ -*----------------------------------*\
  =========                 |
  \\      /  F ield         | OpenFOAM: The Open Source CFD Toolbox
   \\    /   O peration     | Website:  https://openfoam.org
    \\  /    A nd           | Version:  7
     \\/     M anipulation  |
\*---------------------------------------------------------------------------*/
FoamFile
{
    version     2.0;
    format      ascii;
    class       surfaceScalarField;
    location    "136000";
    object      phi;
}
// * * * * * * * * * * * * * * * * * * * * * * * * * * * * * * * * * * * * * //

dimensions      [0 3 -1 0 0 0 0];

internalField   nonuniform List<scalar> 
9490
(
-2.60125e-23
1.45376e-22
2.50721e-23
-1.21663e-23
-2.57064e-23
1.3689e-22
2.57302e-23
-2.55065e-23
-1.56802e-23
-2.2855e-23
1.51509e-22
-2.29842e-23
1.24053e-22
4.95369e-24
-2.51569e-23
1.36782e-22
2.56036e-23
-2.50523e-23
-2.48706e-23
-2.30216e-23
9.70913e-23
-2.32149e-23
1.33601e-22
1.45968e-23
-2.53177e-23
1.72955e-22
2.45941e-23
-2.54831e-23
-3.10022e-23
-2.24262e-23
1.51283e-22
-2.46928e-23
1.36518e-22
2.72692e-23
-2.44635e-23
1.26872e-22
2.42349e-23
-2.47656e-23
-6.72105e-23
-2.22144e-23
1.34111e-22
-2.52267e-23
1.91918e-22
4.01262e-23
-2.58884e-23
9.35275e-23
2.2764e-23
-2.32508e-23
-6.58434e-23
-2.31023e-23
9.17557e-23
-2.53137e-23
1.65685e-22
-3.96053e-23
-2.58024e-23
8.75113e-23
2.31512e-23
-2.35517e-23
-4.53556e-23
-2.14269e-23
7.96988e-23
-2.67884e-23
4.74308e-23
-3.459e-23
-2.4785e-23
8.32773e-23
2.3548e-23
-2.34678e-23
-5.84133e-23
-2.10845e-23
7.09695e-23
-2.6569e-23
6.87271e-23
-1.6773e-23
-2.54783e-23
8.00716e-23
2.31413e-23
-2.26412e-23
1.1786e-23
-2.1377e-23
6.77046e-23
-2.60271e-23
6.2889e-23
-1.45626e-23
-2.57578e-23
7.83238e-23
2.15256e-23
-2.23571e-23
1.18929e-22
-2.19828e-23
6.56651e-23
-2.52539e-23
7.99295e-23
-1.78068e-23
-2.46548e-23
-6.50615e-24
2.05244e-23
-2.3226e-23
1.13191e-22
-2.13756e-23
6.06589e-23
-2.49666e-23
9.71398e-23
-7.60212e-24
-2.35932e-23
-3.50735e-24
2.05343e-23
-2.34997e-23
1.11858e-22
-2.31287e-23
5.60245e-23
-2.41348e-23
1.07497e-22
-8.85482e-24
-2.14167e-23
-6.64165e-23
2.09499e-23
-2.37726e-23
5.13689e-23
-2.38998e-23
3.49087e-23
-2.35147e-23
1.1394e-22
-2.12166e-23
-6.09861e-23
2.06437e-23
-2.29485e-23
5.82511e-23
-2.40148e-23
1.89182e-23
1.1914e-22
-2.10076e-23
-5.7146e-23
2.1713e-23
-2.22368e-23
6.65111e-23
-2.4844e-23
2.29495e-23
1.3556e-22
-2.1006e-23
-1.316e-22
2.17859e-23
-2.06811e-23
1.12472e-22
-2.52543e-23
2.92485e-23
-2.05942e-23
-5.31852e-23
2.23381e-23
-2.01806e-23
1.20713e-22
-2.7173e-23
-1.97522e-23
-8.24333e-23
2.22212e-23
-1.93549e-23
1.29922e-22
-1.93357e-23
-7.84401e-23
2.30995e-23
1.37828e-22
-1.95795e-23
-3.65781e-23
2.24546e-23
1.37446e-22
-1.90291e-23
-8.00415e-23
2.13602e-23
1.18203e-22
-1.89235e-23
-2.24386e-23
2.066e-23
7.94001e-23
-1.81989e-23
5.14367e-23
2.08165e-23
1.95675e-23
1.45481e-23
3.92868e-23
-1.06786e-23
2.08891e-23
7.59176e-23
1.27552e-23
4.17552e-23
2.61599e-23
1.37756e-22
6.89726e-25
1.46775e-23
1.40504e-23
-7.35575e-24
1.39068e-23
6.13837e-23
2.24618e-23
5.85125e-24
1.45654e-23
1.49533e-22
1.15228e-23
2.6936e-24
1.2488e-23
3.93533e-23
6.86097e-24
1.86105e-23
-7.0095e-24
6.1786e-23
1.24953e-23
9.48531e-23
1.79429e-23
1.58814e-22
2.76833e-23
1.91936e-22
2.62948e-23
7.65576e-23
2.43469e-23
8.61804e-23
6.3314e-24
3.22411e-23
5.76776e-23
1.47827e-23
7.00481e-23
-1.04245e-23
1.96533e-23
1.71089e-22
1.52327e-23
2.89405e-24
2.07615e-23
1.26618e-22
1.07294e-24
-3.25343e-23
1.2359e-23
-1.74714e-23
1.34934e-23
6.01889e-23
2.41753e-23
-5.14469e-24
1.37049e-23
2.02733e-22
9.7971e-24
1.4339e-24
1.23959e-23
2.87476e-23
8.37636e-24
-4.57186e-24
-6.74805e-24
-2.7046e-26
1.3017e-23
1.10021e-22
1.97608e-23
1.51152e-22
2.55022e-23
1.99669e-22
2.52431e-23
8.28504e-23
2.26903e-23
1.63421e-23
4.70001e-24
3.146e-24
7.68498e-23
1.77906e-23
2.72023e-23
-1.07751e-23
1.66138e-23
1.04259e-22
1.52914e-23
1.25224e-23
1.72596e-23
1.15831e-22
1.54789e-24
-4.39762e-23
1.18914e-23
-2.63894e-23
1.33308e-23
5.70308e-23
2.50138e-23
-6.44157e-24
1.15217e-23
2.33304e-22
9.63322e-24
4.44263e-24
1.08489e-23
1.50928e-23
8.14775e-24
1.12218e-23
-3.12619e-24
4.62309e-23
1.28491e-23
9.83346e-23
2.15047e-23
1.44267e-22
2.25279e-23
1.63991e-22
2.52776e-23
1.02444e-22
2.27838e-23
2.69711e-23
4.75818e-24
-2.0598e-23
6.26378e-23
1.62723e-23
2.3842e-23
-1.3028e-23
1.65381e-23
8.84375e-23
1.54718e-23
5.01815e-23
1.29019e-23
7.30451e-23
2.93076e-24
-4.73137e-24
1.08407e-23
-3.23885e-23
1.53721e-23
6.37102e-23
2.7982e-23
2.46651e-24
9.73093e-24
1.76476e-22
8.07956e-24
4.20007e-24
1.25554e-23
8.52248e-23
7.87643e-24
2.5277e-23
-1.24227e-24
5.90978e-23
1.39683e-23
1.3328e-22
2.18828e-23
1.0712e-22
2.24547e-23
1.61074e-22
2.23215e-23
1.09958e-22
2.18477e-23
2.67873e-23
5.64656e-24
-5.58346e-24
5.35663e-23
1.56353e-23
2.63428e-23
-1.38114e-23
1.46749e-23
1.3322e-22
1.5356e-23
1.24097e-23
1.12268e-23
6.28146e-23
3.3495e-24
-1.35466e-24
1.1539e-23
-3.18671e-23
1.51943e-23
9.26467e-23
2.73726e-23
3.46705e-23
8.98807e-24
1.16937e-22
7.87488e-24
3.87839e-23
1.11437e-23
6.16093e-23
8.59148e-24
4.363e-23
6.63626e-25
4.01151e-23
1.36178e-23
9.03725e-23
2.19024e-23
7.07633e-23
2.27336e-23
1.05672e-22
1.89839e-23
7.81779e-23
2.16664e-23
1.76244e-23
4.47191e-24
9.15392e-24
8.23565e-23
1.69017e-23
4.20451e-23
-1.26606e-23
1.23661e-23
1.40538e-22
1.37248e-23
1.24922e-23
9.77161e-24
8.48982e-23
3.99278e-24
-5.20559e-24
1.13283e-23
-3.40368e-23
1.72809e-23
1.36019e-22
2.69688e-23
2.31567e-23
1.07065e-23
1.01898e-22
7.47076e-24
-4.14578e-23
1.20331e-23
9.62345e-23
9.38976e-24
5.83804e-23
1.51174e-24
9.12058e-23
1.28851e-23
1.17102e-22
2.19725e-23
1.06244e-22
2.20567e-23
9.60739e-23
1.65285e-23
8.71984e-23
2.19054e-23
4.07549e-23
4.33859e-24
-2.18699e-23
4.31898e-23
1.53667e-23
1.12144e-24
-1.37682e-23
1.19182e-23
1.77297e-22
1.39596e-23
4.54216e-23
7.03564e-24
3.44774e-23
3.48809e-24
-1.58095e-23
1.40332e-23
4.25136e-25
1.58399e-23
1.74884e-22
2.5e-23
1.05654e-23
1.20165e-23
1.18193e-22
6.7453e-24
-3.98799e-23
1.22937e-23
1.26382e-22
8.90132e-24
1.18664e-22
6.08744e-25
1.08766e-22
1.38668e-23
1.16108e-22
1.9664e-23
5.89442e-23
2.20684e-23
8.24059e-23
1.55109e-23
-3.70441e-23
2.14359e-23
3.1162e-23
3.992e-24
2.65621e-23
1.11236e-22
1.726e-23
3.79487e-23
-1.16376e-23
9.42221e-24
1.04679e-22
1.21226e-23
5.71756e-23
5.82092e-24
-1.96901e-23
5.38073e-24
8.27772e-25
1.6534e-23
-5.02683e-24
1.60642e-23
2.03975e-22
2.24154e-23
-3.49644e-23
1.24233e-23
9.50816e-23
6.69421e-24
-3.71094e-23
1.38121e-23
1.27069e-22
7.702e-24
5.04886e-23
2.57363e-24
1.54819e-22
1.10659e-23
6.05889e-23
2.01748e-23
5.89329e-23
2.09374e-23
7.35472e-23
1.65537e-23
-5.54764e-23
2.26158e-23
1.94227e-23
3.68873e-24
1.08323e-23
9.08865e-24
9.93009e-23
1.04789e-23
1.89931e-23
3.57869e-24
5.43639e-23
1.03381e-23
7.19003e-23
1.26818e-23
-8.22779e-23
-1.08726e-24
-3.18475e-23
-7.78641e-24
-3.77586e-23
2.18337e-24
8.65729e-23
-4.52977e-24
-3.72987e-23
-6.92129e-24
-6.87723e-24
8.58953e-26
-4.55709e-23
1.0411e-23
4.61451e-23
-1.85017e-24
-5.84129e-23
6.43291e-25
4.30956e-23
1.73171e-24
3.9173e-23
2.46445e-23
1.87e-23
1.26098e-22
-1.0029e-23
7.98349e-24
3.62085e-23
1.17251e-23
8.59731e-23
5.44098e-24
-3.42933e-23
6.7558e-24
1.25429e-22
1.76546e-23
7.46098e-23
1.46509e-23
1.23033e-22
2.10018e-23
-1.83307e-24
1.20785e-23
1.32822e-22
7.85359e-24
-5.83652e-23
1.57462e-23
1.30158e-22
7.62167e-24
-7.31642e-23
8.22797e-25
1.65084e-22
9.47464e-24
4.59865e-23
1.9981e-23
4.19649e-23
1.7312e-23
6.50568e-23
1.78641e-23
7.32535e-23
2.30177e-23
1.32213e-23
4.33172e-24
-1.01107e-22
8.84538e-24
8.78851e-23
1.01236e-23
1.13919e-23
3.90798e-24
-1.80427e-23
7.63273e-24
5.76219e-23
1.3517e-23
-1.08719e-23
-1.55556e-24
-2.30359e-23
-5.6436e-24
7.30409e-24
4.44298e-26
8.47265e-23
-5.119e-24
-7.26781e-23
-7.10668e-24
7.07157e-25
1.49484e-24
-6.94142e-24
8.89011e-24
4.84771e-23
7.94712e-26
-1.28535e-22
6.45794e-25
-2.90362e-23
2.07932e-24
2.9464e-23
9.05007e-24
2.54122e-23
1.47279e-25
2.09737e-23
-9.09308e-24
1.53273e-23
7.85104e-23
-1.25873e-23
8.66917e-24
2.25981e-23
9.5478e-24
1.12953e-22
6.23194e-24
-4.32129e-23
8.41518e-24
1.17756e-22
1.49126e-23
-5.39719e-23
1.37864e-23
5.04687e-23
2.2138e-23
-2.97061e-24
1.08702e-23
4.25675e-23
7.6219e-24
-5.05616e-23
1.42932e-23
1.31559e-22
1.08548e-23
-6.41215e-23
-5.32921e-25
1.70125e-22
8.19996e-24
3.48321e-23
2.06044e-23
1.79405e-23
1.80157e-23
2.37661e-23
1.60764e-23
7.04468e-23
2.11869e-23
4.51573e-23
7.32254e-24
-8.80807e-23
8.376e-24
8.39458e-23
8.83036e-24
-2.32366e-23
5.42092e-24
-6.59352e-24
6.75478e-24
4.12103e-23
1.25964e-23
-2.87513e-23
-6.64852e-25
-1.95994e-23
-5.11972e-24
-2.93188e-23
-1.64909e-24
8.51632e-23
-5.67784e-24
-6.42507e-23
-6.02315e-24
6.91165e-24
1.32856e-24
-5.21774e-24
6.06743e-24
5.8823e-23
1.6527e-24
-1.1721e-22
1.42449e-24
-6.70009e-23
3.70003e-24
7.24319e-24
8.128e-24
-1.49138e-23
-1.15892e-24
5.95748e-24
-3.27451e-24
-1.16354e-23
1.88154e-23
1.47315e-23
7.40506e-23
-1.24966e-23
7.32241e-24
-4.27835e-23
9.12365e-24
1.43636e-22
8.26074e-24
-1.5311e-23
4.67576e-24
8.07957e-23
1.56079e-23
-2.50397e-23
1.41201e-23
1.28546e-23
2.11335e-23
2.62964e-23
1.07654e-23
6.42296e-23
9.0986e-24
-4.69888e-23
1.24077e-23
4.85925e-23
1.33859e-23
-4.58437e-23
-1.84878e-24
1.91469e-22
5.31277e-24
2.20405e-23
2.16529e-23
2.53927e-23
1.88401e-23
6.39091e-23
1.58642e-23
7.36189e-23
1.93077e-23
4.58222e-23
9.79534e-24
-4.27842e-23
7.2276e-24
4.91019e-23
8.10952e-24
-2.40665e-23
6.61863e-24
2.08766e-24
6.18369e-24
-1.53139e-23
1.2506e-23
-4.30064e-23
-6.7039e-25
-1.223e-23
-4.3183e-24
-2.63349e-23
-2.96541e-24
8.73252e-23
-6.42052e-24
-8.60943e-23
-4.66448e-24
1.22113e-24
1.38051e-24
-4.09285e-23
3.22528e-24
4.44243e-23
2.28466e-24
-6.68362e-23
2.53852e-24
-7.12851e-23
2.76743e-24
8.72645e-24
8.46186e-24
-7.90369e-24
-9.45303e-26
1.62196e-23
-3.19923e-24
-1.86158e-23
1.54595e-24
-5.45681e-23
5.72298e-24
-4.18016e-23
3.66735e-23
1.34819e-23
7.33279e-23
-1.12941e-23
7.88042e-24
-2.6777e-23
7.74992e-24
1.80903e-22
8.0274e-24
-1.91788e-23
3.67425e-24
9.11211e-23
1.4763e-23
-3.91818e-23
1.56715e-23
-2.71588e-23
2.14771e-23
1.08589e-22
1.05432e-23
6.17632e-23
7.52926e-24
-1.47191e-23
1.32493e-23
5.16433e-23
1.54122e-23
-3.08066e-23
-3.13925e-24
8.26418e-23
4.92651e-24
8.61054e-23
2.20273e-23
8.61843e-23
1.8129e-23
9.08387e-23
1.52425e-23
1.1285e-22
1.79727e-23
9.77497e-24
1.07863e-23
-7.97928e-23
7.28006e-24
5.23532e-23
8.4036e-24
-4.45139e-23
6.28008e-24
3.64833e-24
6.27765e-24
-2.06875e-23
1.27243e-23
-5.20928e-23
-7.94017e-25
-8.13291e-25
-3.34866e-24
-2.14895e-23
-4.47208e-24
9.34616e-23
-6.81833e-24
-7.84555e-23
-5.08285e-24
3.40999e-23
1.7295e-24
-4.31474e-23
2.07925e-24
-7.33235e-23
1.26089e-24
-4.63501e-23
4.35658e-24
-4.37789e-23
1.79401e-24
-2.13179e-23
1.01727e-23
-1.02643e-23
5.39482e-26
-1.84835e-23
-4.66066e-24
-1.98844e-23
2.44015e-24
1.27131e-23
7.32517e-24
-1.70656e-23
-9.72351e-24
9.52034e-24
-1.0408e-23
-4.4921e-23
-4.19468e-23
1.10874e-23
7.09818e-23
-1.19666e-23
8.89141e-24
-5.98232e-23
7.41422e-24
1.28735e-22
8.22939e-24
-2.70151e-23
2.3706e-24
1.96666e-23
1.47677e-23
3.38709e-23
1.78227e-23
-3.006e-23
1.97167e-23
1.03557e-22
8.99729e-24
5.16789e-23
7.59844e-24
-1.45907e-23
1.43866e-23
-9.7075e-24
1.64048e-23
2.30501e-23
-3.11482e-24
1.39487e-22
4.92421e-24
1.68446e-22
2.11747e-23
7.54814e-23
1.79931e-23
4.83697e-23
1.46532e-23
1.1673e-22
1.62062e-23
1.26085e-23
1.21789e-23
-5.11803e-24
5.5477e-24
5.41282e-23
8.82738e-24
-6.3769e-24
5.67498e-24
-3.07163e-23
6.39969e-24
1.29706e-23
1.33151e-23
-6.38761e-23
-9.82759e-25
1.31451e-23
-2.64322e-24
1.14009e-23
-5.9437e-24
6.825e-23
-6.92151e-24
-7.33114e-23
-5.18365e-24
-1.24777e-24
8.80313e-25
-3.95077e-23
3.65227e-24
-2.82771e-23
1.87096e-24
-3.00985e-23
4.13106e-24
-5.37169e-23
1.31676e-24
-9.79301e-24
1.03576e-23
1.12425e-22
-5.76829e-25
-1.51727e-24
-2.36605e-24
-2.00283e-23
1.05126e-24
-4.4361e-23
7.81998e-24
1.37123e-23
-8.59508e-24
-1.98486e-23
-1.07726e-23
-3.08958e-23
-3.8659e-24
-4.86142e-23
-7.83402e-24
-1.28318e-22
-9.97063e-24
-8.98245e-24
1.34641e-23
1.05197e-23
6.9797e-23
-1.08131e-23
9.18259e-24
-4.98564e-23
7.19374e-24
8.80483e-23
6.33377e-24
-2.00042e-23
1.95687e-24
3.97935e-23
1.62662e-23
5.8246e-23
1.93266e-23
-3.01114e-23
1.79148e-23
1.00787e-22
7.99884e-24
9.29922e-23
7.92415e-24
1.75995e-23
1.57864e-23
-8.31274e-24
1.60415e-23
7.39523e-23
-4.2314e-25
7.74353e-23
2.55304e-24
9.22352e-23
2.10443e-23
1.59205e-22
1.73454e-23
4.03681e-24
1.38344e-23
8.08463e-23
1.58421e-23
5.59941e-23
1.26656e-23
7.73931e-23
4.52403e-24
2.02942e-23
8.49961e-24
2.63548e-25
6.07967e-24
-2.59669e-23
6.02501e-24
4.4691e-23
1.40109e-23
-7.07441e-23
-5.40628e-25
-4.58165e-24
-2.85394e-24
-2.90536e-23
-6.8252e-24
7.87085e-23
-7.51437e-24
-8.86182e-23
-5.3569e-24
4.72388e-24
3.65449e-25
-3.37918e-23
4.20827e-24
-1.28744e-23
1.90073e-24
-5.97478e-23
4.37692e-24
-5.87535e-23
3.87284e-24
-4.49958e-23
8.5307e-24
5.78409e-23
-7.65565e-25
1.64778e-23
-2.99259e-24
-1.59951e-23
2.41207e-24
3.11816e-23
7.50681e-24
3.60451e-23
-7.62343e-24
-1.28791e-23
-1.26251e-23
-8.02092e-23
-3.98404e-24
-2.17564e-23
-6.22666e-24
-1.02321e-22
-8.53553e-24
-4.64877e-24
-3.20331e-23
-4.13158e-23
-2.45401e-23
1.00141e-22
1.74465e-23
1.02909e-23
6.87384e-23
-9.64587e-24
7.91292e-24
-2.08338e-23
6.52185e-24
6.92976e-23
6.64128e-24
-2.08985e-23
2.93034e-24
5.05776e-23
1.47909e-23
5.91645e-23
2.17873e-23
1.73774e-24
1.87557e-23
1.05212e-22
6.69615e-24
1.40674e-22
6.84068e-24
8.46618e-23
1.76091e-23
5.43828e-23
1.62415e-23
8.66258e-23
6.81031e-25
1.07277e-22
2.28217e-24
9.21829e-23
1.84878e-23
8.60364e-23
1.79299e-23
-1.16565e-23
1.30107e-23
8.40395e-23
1.74626e-23
8.34524e-23
1.09917e-23
3.85758e-23
4.21491e-24
-9.72658e-24
8.19949e-24
8.48879e-23
6.85454e-24
-2.17745e-23
4.91817e-24
4.06054e-23
1.46191e-23
-6.11285e-23
-6.64667e-25
-3.41626e-23
-2.18322e-24
-3.59532e-23
-8.26535e-24
4.46628e-23
-7.73898e-24
-8.41704e-23
-5.31353e-24
5.55151e-24
4.08273e-25
1.32392e-23
3.42508e-24
2.20677e-24
2.39151e-24
-1.0283e-23
4.30129e-24
-6.38815e-23
5.5043e-24
-4.42193e-24
8.59363e-24
5.41697e-23
-1.52398e-24
1.87405e-23
-2.67532e-24
-1.60036e-23
1.87435e-24
2.82445e-23
8.14424e-24
3.01965e-23
-9.27869e-24
-1.43366e-23
-1.17891e-23
-1.04184e-22
-4.93489e-24
-1.34442e-23
-5.10722e-24
-7.739e-23
-9.26262e-24
-7.98263e-23
-3.03337e-23
-6.0364e-23
-2.44732e-23
5.87738e-23
-1.82697e-23
1.78999e-23
-7.00872e-24
1.36658e-22
-2.00506e-23
4.98964e-23
7.85815e-23
9.68855e-24
7.01116e-23
-8.46041e-24
7.95024e-24
-3.34467e-23
5.01285e-24
6.24576e-23
8.76559e-24
1.88388e-23
5.094e-25
-6.77053e-23
1.54808e-23
2.55739e-23
2.05711e-23
-7.89864e-23
1.93472e-23
2.90696e-23
5.99781e-24
2.40681e-23
6.30406e-24
3.38657e-23
1.84264e-23
1.16268e-22
1.52334e-23
1.00651e-22
2.46972e-25
9.06097e-23
2.3597e-24
9.34385e-23
1.6339e-23
1.01113e-22
1.91902e-23
1.11895e-22
1.36282e-23
4.87979e-23
1.75415e-23
7.82344e-23
9.99178e-24
-1.43574e-23
5.0817e-24
7.28154e-23
6.66273e-24
8.96859e-23
7.79272e-24
1.2824e-23
4.13094e-24
4.60671e-23
1.43711e-23
-3.63132e-23
-4.44343e-25
-2.98092e-23
-1.78047e-24
2.69284e-24
-9.14255e-24
4.20202e-23
-7.71787e-24
-8.21565e-23
-4.30206e-24
3.78129e-23
-1.00331e-24
2.48201e-23
3.71889e-24
5.11663e-23
8.85336e-25
1.3082e-23
4.98785e-24
-7.09814e-23
6.04971e-24
-2.02071e-24
8.7642e-24
-3.79922e-23
-2.42023e-24
-1.51209e-24
-1.02138e-24
-1.79745e-23
2.1906e-24
4.03207e-23
7.68984e-24
2.48899e-23
-9.16021e-24
-1.20641e-22
-1.14151e-23
-1.28409e-22
-4.32026e-24
4.76448e-23
-4.63965e-24
-3.66794e-23
-9.13515e-24
-3.12639e-23
-2.88832e-23
-1.38106e-22
-2.29734e-23
-2.38585e-23
-1.72459e-23
-4.3247e-24
-8.59689e-24
1.18629e-22
-1.88501e-23
2.92576e-23
9.26064e-23
8.96261e-24
1.05539e-22
-7.20828e-24
7.3091e-24
-4.09844e-23
4.02861e-24
3.64351e-23
6.66855e-24
1.68513e-23
6.77142e-25
-5.04874e-23
1.46787e-23
2.01813e-23
2.12701e-23
-7.7443e-23
2.08313e-23
2.61174e-23
5.95707e-24
3.92807e-23
8.25978e-24
6.0251e-23
1.77746e-23
7.72416e-23
1.51713e-23
8.3671e-23
5.42321e-25
-2.01897e-23
1.98929e-24
5.93555e-23
1.7472e-23
1.12452e-22
1.74157e-23
1.31444e-22
1.48267e-23
7.33885e-23
1.62217e-23
3.28369e-23
1.05818e-23
6.04216e-23
4.45567e-24
7.02997e-23
6.57115e-24
8.36438e-23
7.4792e-24
8.70648e-23
3.55757e-24
5.87544e-23
1.39888e-23
-1.01802e-23
1.19536e-25
-3.12082e-23
-1.99337e-24
3.76218e-24
-9.97214e-24
2.05404e-23
-6.78359e-24
-5.40982e-23
-4.18891e-24
4.61171e-23
-1.15947e-24
3.42248e-23
3.42902e-24
4.42234e-23
7.92084e-26
-5.42229e-23
5.74867e-24
-6.47745e-23
5.39785e-24
7.13161e-25
8.46025e-24
-3.65296e-23
-1.89003e-24
-3.3734e-23
-5.47069e-25
-5.42489e-23
2.41574e-24
5.43857e-23
5.08766e-24
-5.47263e-23
-7.36288e-24
-9.48062e-23
-1.10457e-23
-1.5285e-22
-4.82458e-24
-5.21664e-24
-6.41109e-24
-3.05143e-23
-9.25229e-24
1.39666e-23
-2.71791e-23
-1.28563e-22
-2.20227e-23
-3.12353e-23
-1.48177e-23
8.28175e-23
-9.71874e-24
9.65916e-23
-1.74016e-23
-9.63721e-24
2.39599e-23
7.92099e-24
1.04123e-22
-6.92167e-24
6.96637e-24
-1.19522e-23
2.99737e-24
-1.6208e-24
6.96167e-24
1.35774e-23
-2.26091e-25
-3.00568e-23
1.38419e-23
5.44729e-23
2.2781e-23
-7.081e-23
2.00191e-23
2.66852e-23
6.23387e-24
8.35899e-23
8.94319e-24
5.10527e-23
1.70884e-23
1.11494e-22
1.44503e-23
1.17629e-22
2.06183e-24
-3.48379e-24
2.13718e-24
4.26845e-23
1.74783e-23
1.24004e-22
1.67458e-23
1.53979e-22
1.31822e-23
8.13071e-23
1.73566e-23
2.68793e-23
1.09862e-23
8.9544e-23
3.33783e-24
3.31134e-23
8.05795e-24
7.04207e-23
6.14359e-24
3.0023e-23
3.64452e-24
6.65187e-23
1.32611e-23
2.25545e-23
8.38894e-25
-2.96345e-23
-2.77659e-24
-4.14886e-23
-1.0248e-23
-1.88313e-24
-6.35585e-24
-4.9715e-23
-4.00549e-24
3.39102e-23
-1.41157e-24
6.64598e-23
1.43465e-24
9.29127e-24
3.34808e-25
-4.21329e-23
5.74112e-24
-9.56813e-23
5.80485e-24
2.69901e-25
8.49885e-24
-4.85907e-23
-2.02934e-24
-2.31165e-23
1.2031e-24
-5.47079e-23
7.57858e-25
6.24825e-23
3.68169e-24
-5.83797e-23
-5.49508e-24
-1.10348e-22
-9.77702e-24
-1.48751e-22
-3.90373e-24
-5.92573e-23
-5.9221e-24
-1.80597e-23
-1.15247e-23
-2.1209e-23
-2.50058e-23
-8.0536e-23
-2.09513e-23
6.40281e-24
-1.68593e-23
1.70233e-22
-9.21886e-24
1.18747e-22
-1.68775e-23
-2.96655e-23
-4.23268e-23
7.16517e-24
1.40814e-22
-6.23042e-24
5.27563e-24
-4.47591e-24
2.49834e-24
7.27199e-23
6.19045e-24
8.66878e-23
1.33162e-24
-1.83718e-23
1.35411e-23
7.66569e-23
2.40831e-23
-6.1564e-23
2.10737e-23
-5.58441e-25
6.02813e-24
9.95675e-23
9.69851e-24
4.13105e-23
1.72166e-23
6.97349e-23
1.21959e-23
1.31581e-22
2.95761e-24
4.15974e-23
2.93325e-24
6.96013e-23
1.70722e-23
1.06676e-22
1.57738e-23
1.33553e-22
1.16102e-23
7.32619e-23
1.86649e-23
2.23147e-23
1.03378e-23
1.03626e-22
2.62089e-24
-2.84102e-25
8.96561e-24
1.3827e-22
5.42367e-24
3.74367e-23
3.82316e-24
1.0804e-22
1.2023e-23
1.75974e-23
7.52785e-25
-2.31564e-23
-3.24313e-24
-6.51721e-23
-1.00172e-23
5.868e-24
-5.86762e-24
-4.82844e-23
-2.88955e-24
3.53379e-23
-3.18808e-24
8.3981e-23
1.32751e-24
3.79168e-23
-3.65631e-25
-3.07653e-23
6.45701e-24
-5.04597e-23
6.29057e-24
8.88384e-23
8.16619e-24
-9.44843e-23
-1.64251e-24
-1.23512e-23
2.96129e-24
-5.51449e-23
-1.72154e-25
-3.10982e-24
2.68053e-24
-6.69898e-23
-4.33917e-24
-5.89341e-23
-9.28972e-24
-1.41796e-22
-3.27474e-24
-1.04266e-22
-6.39688e-24
-3.92035e-23
-1.2432e-23
-7.54544e-24
-2.51794e-23
-6.84146e-23
-1.94805e-23
1.5447e-23
-1.80602e-23
9.16088e-23
-9.5365e-24
1.13625e-22
-1.63844e-23
-2.01335e-23
-3.26116e-24
7.5572e-24
6.05668e-23
-6.59676e-24
4.98199e-24
-1.20389e-22
2.50365e-24
6.0174e-23
5.07697e-24
6.54154e-23
1.14103e-24
-6.41502e-24
1.21976e-23
1.14589e-22
2.43557e-23
-2.23943e-23
2.25566e-23
3.19533e-24
5.74422e-24
1.09785e-22
9.62849e-24
1.23029e-22
1.85686e-23
5.48886e-23
1.14111e-23
1.25321e-22
3.05472e-24
9.6096e-23
3.52396e-24
7.67854e-23
1.72478e-23
2.12401e-22
1.43138e-23
1.60444e-22
1.06653e-23
1.98278e-23
2.00828e-23
9.51747e-24
9.358e-24
1.04048e-22
3.52359e-24
-3.74965e-23
8.67533e-24
9.49906e-23
5.51973e-24
5.55122e-23
2.91169e-24
7.87179e-23
1.13818e-23
4.71203e-23
2.31712e-25
-1.74583e-23
-3.15327e-24
-6.35809e-23
-1.02013e-23
1.16263e-23
-4.73683e-24
3.60394e-23
-2.13892e-24
3.85141e-23
-4.77691e-24
8.49272e-23
9.47392e-25
6.59476e-23
-6.8069e-25
-2.59139e-23
7.81916e-24
-3.58991e-23
4.41939e-24
-3.30544e-23
9.39094e-24
-2.86707e-23
-2.33325e-24
-1.29777e-22
3.15428e-24
-9.64692e-24
-7.81927e-26
-1.40583e-23
1.72379e-24
-3.86369e-23
-4.35904e-24
-4.13614e-23
-9.20586e-24
-1.27732e-22
-1.61268e-24
-1.21167e-22
-6.60501e-24
-2.76644e-23
-1.19824e-23
-3.49615e-23
-2.36267e-23
-6.10345e-23
-1.9232e-23
2.84861e-23
-1.7612e-23
6.65715e-23
-1.23773e-23
1.02669e-22
-1.62854e-23
6.81295e-23
-9.62875e-24
4.8528e-24
-2.04591e-23
-7.4312e-24
6.63433e-24
-9.66239e-23
4.47777e-26
8.76679e-24
5.46546e-24
6.30161e-23
9.65237e-26
-3.27324e-23
1.25364e-23
1.1823e-22
2.38912e-23
6.08544e-23
2.34627e-23
4.31281e-24
6.23426e-24
1.66023e-22
7.32764e-24
1.17487e-22
1.83373e-23
6.44457e-23
1.21961e-23
1.54489e-22
2.2495e-24
1.01673e-22
4.23935e-24
6.89732e-23
1.6159e-23
1.92716e-22
1.32402e-23
1.17812e-22
1.11362e-23
3.04841e-23
2.01288e-23
3.85689e-23
8.82598e-24
1.47592e-22
3.97979e-24
-2.70751e-23
9.2862e-24
8.3844e-23
5.05454e-24
7.76804e-25
2.91668e-24
1.00375e-22
1.0334e-23
3.98466e-23
-2.32828e-25
-1.05408e-23
-3.4067e-24
-5.81032e-23
-9.24201e-24
1.59761e-23
-4.89297e-24
3.80807e-23
-1.46721e-24
-5.09297e-23
-5.67785e-24
8.31808e-23
6.56305e-25
9.13665e-23
-9.42507e-25
-5.58075e-23
6.95857e-24
1.48428e-23
4.65636e-24
-2.78649e-23
7.26508e-24
-4.6076e-23
1.24198e-26
-1.24821e-22
2.76667e-24
-3.17668e-23
1.21611e-24
3.76657e-24
1.60977e-24
-3.36644e-23
-4.19125e-24
-4.22025e-23
-8.29773e-24
-1.15747e-22
-1.65027e-25
-1.36341e-22
-7.62428e-24
-8.96413e-23
-1.10232e-23
-3.18767e-23
-2.16187e-23
-5.9742e-23
-1.85071e-23
8.20233e-23
-1.76859e-23
4.16694e-23
-1.20096e-23
1.27426e-22
-1.81669e-23
7.74423e-23
-4.28274e-24
4.71279e-24
-1.53335e-23
-5.63136e-24
6.15634e-24
-6.42367e-23
9.04503e-25
4.11026e-24
4.71646e-24
2.93035e-23
1.14837e-24
-2.67074e-23
1.15891e-23
1.22639e-22
2.3408e-23
6.76065e-23
2.49584e-23
6.79576e-24
6.55149e-24
1.03047e-22
7.88856e-24
7.00003e-23
1.89545e-23
1.75282e-23
1.1625e-23
1.59299e-22
2.70683e-24
1.09652e-22
5.9872e-24
5.20686e-23
1.418e-23
1.45748e-22
1.27271e-23
1.16305e-22
1.06637e-23
-1.14631e-23
2.12507e-23
2.45886e-23
7.83994e-24
1.36687e-22
3.82077e-24
-1.98053e-23
1.00927e-23
1.44868e-22
5.26614e-24
-1.07713e-23
2.23649e-24
6.55395e-23
9.59807e-24
3.07856e-23
-4.57363e-25
-3.40016e-23
-3.63329e-24
-4.83992e-23
-8.38542e-24
5.54622e-23
-6.21984e-24
2.31235e-23
2.5408e-25
1.6953e-23
-6.19889e-24
7.94996e-23
-3.5832e-25
1.01315e-22
-1.16314e-24
-4.80159e-23
6.12921e-24
2.88431e-23
5.69605e-24
-3.13773e-23
5.60116e-24
-4.73257e-23
5.71686e-25
-9.13683e-23
3.26801e-24
-3.81544e-23
1.23631e-24
1.87932e-23
7.67644e-25
-9.4538e-23
-4.09255e-24
-3.31102e-23
-1.06471e-23
-7.01423e-23
6.86698e-26
-7.54139e-23
-6.63075e-24
-3.01803e-23
-1.09005e-23
-3.13825e-23
-1.92188e-23
-6.45159e-23
-1.86118e-23
9.53825e-23
-1.7484e-23
5.16987e-23
-1.28676e-23
1.27263e-22
-1.87238e-23
9.03087e-23
-4.32489e-23
5.49037e-24
3.78005e-23
-3.30081e-24
5.95527e-24
-6.09128e-23
1.51214e-24
-2.14217e-24
4.40081e-24
1.61279e-23
1.80038e-24
-5.30362e-23
1.26946e-23
6.27752e-23
2.35187e-23
7.61637e-23
2.51507e-23
5.56854e-24
6.21131e-24
4.88809e-23
7.36476e-24
9.56665e-23
1.97301e-23
1.19501e-22
1.06225e-23
1.23385e-22
2.70767e-24
1.14563e-22
6.25352e-24
7.98318e-23
1.32894e-23
1.37922e-22
1.16141e-23
7.31762e-23
1.11189e-23
1.63332e-23
2.18602e-23
1.65074e-23
7.31352e-24
1.54844e-22
4.44113e-24
2.25047e-23
9.36579e-24
1.27321e-22
5.04966e-24
-6.55441e-23
2.04707e-24
5.85705e-23
8.73359e-24
-9.79862e-24
-1.02859e-25
-5.91144e-23
-3.35394e-24
-7.4817e-23
-9.0617e-24
9.03879e-23
-6.12619e-24
6.68477e-23
9.85754e-25
-2.37458e-25
-6.50681e-24
3.63129e-23
-1.26107e-24
4.76441e-23
-1.15848e-24
-3.72024e-23
5.87746e-24
8.2101e-23
5.30329e-24
-5.8593e-23
5.24541e-24
-1.23883e-23
1.2292e-24
-8.45652e-23
4.17217e-24
2.79754e-23
-2.52423e-26
2.09881e-23
1.28405e-24
-4.60085e-23
-2.95164e-24
2.97474e-23
-1.02479e-23
-8.41795e-23
-9.6752e-26
-1.36609e-23
-6.14533e-24
-2.23496e-23
-1.26964e-23
-2.2736e-23
-1.72032e-23
6.10831e-23
-1.86761e-23
8.00509e-23
-1.74441e-23
5.67513e-23
-1.32063e-23
1.2933e-22
-2.04271e-23
9.58935e-23
-5.45881e-23
3.87641e-24
4.50309e-23
-3.43107e-24
6.41479e-24
1.94543e-23
9.60992e-25
-9.13462e-25
4.12102e-24
-9.1558e-24
1.71195e-24
-5.46688e-23
1.27879e-23
1.3922e-22
2.31481e-23
1.19273e-22
2.4178e-23
4.58575e-24
7.07108e-24
3.04035e-23
8.62619e-24
1.00684e-22
1.97737e-23
7.39207e-23
1.08327e-23
4.25859e-23
2.24932e-24
1.53859e-22
6.50386e-24
1.442e-22
1.18601e-23
1.36512e-22
1.1133e-23
1.08637e-22
1.09882e-23
5.75147e-24
2.32769e-23
4.27983e-23
7.00978e-24
9.59264e-23
4.33387e-24
2.56223e-23
7.87352e-24
6.48012e-23
5.89005e-24
-7.89805e-23
1.0921e-24
5.5829e-23
8.38933e-24
-1.48308e-23
-4.6046e-26
-5.21723e-23
-2.24765e-24
-5.92696e-23
-9.45243e-24
5.0074e-23
-6.45197e-24
8.11048e-23
1.48514e-24
7.91414e-23
-7.05938e-24
2.93291e-23
-1.37021e-24
3.03124e-23
-1.21346e-24
-4.23613e-23
4.12606e-24
9.77681e-23
6.29377e-24
-8.90895e-23
4.38801e-24
-4.52437e-23
2.68436e-24
-7.91704e-23
3.84489e-24
-1.29888e-23
-1.35531e-25
-8.11055e-24
1.6695e-24
-2.22587e-25
-4.25317e-24
-7.31171e-24
-9.13243e-24
-2.22325e-23
3.80329e-25
2.74611e-24
-5.99326e-24
-2.68961e-23
-1.08696e-23
-1.50309e-23
-1.74806e-23
1.89256e-23
-1.82636e-23
8.66484e-23
-1.72131e-23
1.0142e-22
-1.29499e-23
1.2962e-22
-2.1071e-23
-1.19927e-23
-5.49323e-23
2.57248e-24
5.29505e-23
-5.18317e-24
6.30398e-24
1.36505e-22
-1.96864e-25
4.84279e-24
4.44752e-24
5.17569e-23
3.31475e-24
-5.86134e-23
1.32503e-23
2.04851e-22
2.27004e-23
1.24084e-22
2.41958e-23
2.8398e-24
8.22217e-24
1.16625e-23
8.40565e-24
2.19903e-23
1.94521e-23
6.97035e-23
1.23388e-23
3.08493e-23
2.08992e-24
1.55257e-22
5.29413e-24
1.45484e-22
1.08609e-23
1.37902e-22
1.07249e-23
1.22266e-22
1.0883e-23
-2.30154e-23
2.31409e-23
1.11386e-22
7.5522e-24
7.9884e-23
3.79747e-24
-1.34516e-23
7.26965e-24
4.51852e-23
7.04132e-24
-9.14898e-24
-1.22076e-25
4.92004e-23
8.12047e-24
-2.27984e-23
1.26043e-25
-4.58732e-23
-1.53385e-24
-5.05018e-24
-9.29177e-24
4.18334e-23
-6.16471e-24
9.23738e-23
5.53524e-25
7.49234e-23
-8.06749e-24
-1.1349e-23
-1.28344e-24
1.02462e-22
-6.66191e-25
-3.72745e-23
2.56853e-24
1.11907e-22
6.86371e-24
-1.93375e-23
4.43337e-24
-3.20863e-23
3.33571e-24
-7.12633e-23
3.7478e-24
-4.54206e-23
8.9378e-25
-8.42512e-23
6.82159e-25
-7.32226e-23
-3.20057e-24
-1.40412e-23
-8.81831e-24
-8.55936e-23
-9.64974e-25
5.86171e-23
-5.31629e-24
-6.89711e-24
-1.00799e-23
-6.63391e-24
-1.79184e-23
-2.0623e-23
-1.83497e-23
9.73409e-23
-1.65218e-23
8.40719e-23
-1.3743e-23
8.10605e-23
-2.17909e-23
-1.00892e-22
-5.94666e-23
2.73251e-24
-2.01846e-23
-6.61001e-24
5.05189e-24
1.32594e-22
3.5794e-25
1.24468e-23
3.61842e-24
1.04541e-22
3.58199e-24
-1.88288e-23
1.35802e-23
1.91069e-22
2.16937e-23
1.31903e-22
2.38325e-23
9.25474e-23
7.26866e-24
1.93798e-23
8.99716e-24
2.69527e-23
1.96255e-23
9.46116e-23
1.22507e-23
5.13313e-25
2.61579e-24
1.17393e-22
4.60029e-24
9.97256e-23
1.02179e-23
1.43836e-22
9.50342e-24
1.1844e-22
1.16599e-23
-6.39638e-23
2.26106e-23
1.53517e-22
7.16644e-24
5.84075e-23
3.40623e-24
-3.33757e-23
7.32334e-24
3.08476e-23
7.33774e-24
-1.53598e-23
-1.19939e-24
5.50813e-23
8.13648e-24
4.2589e-23
6.36966e-25
-4.02003e-23
-1.3299e-24
7.02994e-24
-9.37424e-24
2.89239e-23
-5.43384e-24
1.34342e-22
-6.87623e-25
4.3171e-23
-7.64142e-24
-2.11055e-24
-2.40425e-24
1.04299e-22
3.05787e-25
-2.87687e-23
2.03457e-24
1.09464e-22
7.05199e-24
3.1963e-23
3.31747e-24
-1.1254e-22
4.01953e-24
-6.26006e-23
3.36833e-24
-7.30219e-23
5.99145e-25
-3.82869e-23
2.87731e-24
-7.10667e-23
-3.77757e-24
-1.31673e-22
-6.48719e-24
-6.97796e-23
-1.86019e-24
6.7612e-23
-5.32963e-24
-4.54987e-23
-9.19053e-24
-7.47243e-23
-1.71584e-23
-5.39567e-23
-1.63983e-23
1.4316e-22
-1.7717e-23
4.04074e-23
-1.51957e-23
8.3972e-23
-2.13176e-23
-5.81327e-23
-2.51984e-23
2.8467e-24
-1.1997e-23
-6.50815e-24
4.43198e-24
1.27486e-22
-1.16084e-24
2.85002e-23
3.3158e-24
1.02443e-22
4.8747e-24
-2.62345e-23
1.37233e-23
2.3074e-22
2.08106e-23
1.30132e-22
2.32177e-23
1.02273e-22
6.95564e-24
-9.66047e-24
1.03164e-23
2.73687e-23
1.91313e-23
8.53376e-23
1.24821e-23
1.19934e-24
2.91602e-24
8.43604e-23
4.13009e-24
5.57441e-23
9.59319e-24
1.44767e-22
8.34222e-24
1.10861e-22
1.34371e-23
-8.29089e-23
2.16085e-23
1.60905e-22
6.61385e-24
7.00947e-23
3.45202e-24
-7.01654e-23
7.61666e-24
1.83511e-23
8.04965e-24
1.84128e-23
-1.59963e-24
3.30928e-23
7.42372e-24
5.71659e-23
1.08941e-24
5.66732e-24
-1.31889e-24
4.43596e-23
-8.74649e-24
1.88733e-23
-6.18803e-24
1.38789e-22
-1.06719e-24
3.92424e-23
-7.4032e-24
-2.69009e-23
-3.19794e-24
1.09076e-22
2.25876e-25
2.53284e-24
2.41528e-24
1.42539e-22
4.62646e-24
1.75838e-23
3.73764e-24
-8.05896e-23
4.21634e-24
-5.09252e-23
4.03954e-24
-3.79878e-23
-2.3827e-25
-4.4916e-23
2.88787e-24
-3.25459e-23
-2.47585e-24
-1.04624e-22
-4.80511e-24
-6.77605e-23
-3.121e-24
-2.46997e-24
-5.13558e-24
-5.1686e-23
-9.55026e-24
-2.3488e-23
-1.5451e-23
-6.79944e-23
-1.63009e-23
1.4589e-22
-1.81492e-23
3.87078e-23
-1.56322e-23
8.50744e-23
-2.0393e-23
-5.63861e-23
-2.51312e-23
3.97767e-24
-5.09269e-23
-5.70687e-24
3.96209e-24
1.09566e-22
-2.0102e-24
1.64665e-24
3.05078e-24
9.96036e-23
5.72394e-24
-3.5351e-23
1.28322e-23
1.96026e-22
2.07789e-23
2.08278e-22
2.19885e-23
9.80065e-23
7.62694e-24
-6.61467e-25
1.05878e-23
3.15347e-23
1.95838e-23
8.32487e-23
1.21178e-23
-3.73993e-23
3.01407e-24
1.17873e-22
4.83149e-24
5.43002e-23
8.69593e-24
1.42219e-22
6.89143e-24
1.04791e-22
1.50121e-23
2.68286e-23
2.05603e-23
1.23808e-22
5.1865e-24
8.62676e-23
3.80642e-24
-5.73447e-23
8.21349e-24
4.4565e-23
7.94165e-24
1.50281e-23
-1.56694e-24
4.82986e-23
6.93895e-24
3.9164e-23
1.26806e-24
1.90649e-23
-1.36665e-24
8.23895e-23
-8.30757e-24
1.93032e-23
-6.90991e-24
1.09382e-22
-1.49259e-24
4.05024e-23
-6.37745e-24
1.1535e-23
-3.73239e-24
1.42724e-22
9.0707e-25
3.35592e-23
1.41235e-24
1.79016e-22
3.80125e-24