/*--------------------------------*- C++ -*----------------------------------*\
  =========                 |
  \\      /  F ield         | OpenFOAM: The Open Source CFD Toolbox
   \\    /   O peration     | Website:  https://openfoam.org
    \\  /    A nd           | Version:  7
     \\/     M anipulation  |
\*---------------------------------------------------------------------------*/
FoamFile
{
    version     2.0;
    format      ascii;
    class       volVectorField;
    location    "128000";
    object      vorticity;
}
// * * * * * * * * * * * * * * * * * * * * * * * * * * * * * * * * * * * * * //

dimensions      [0 0 -1 0 0 0 0];

internalField   nonuniform List<vector> 
4782
(
(-0.0731698 -0.0550922 3.08192e-17)
(-0.0757223 -0.0570088 2.86038e-17)
(-0.078413 -0.0590293 2.82698e-17)
(-0.0812521 -0.0611611 3.00749e-17)
(-0.0842503 -0.0634123 3.2578e-17)
(-0.0874195 -0.0657919 3.42851e-17)
(-0.0907723 -0.0683093 3.48769e-17)
(-0.0943226 -0.0709749 3.53392e-17)
(-0.0980854 -0.0738 3.6266e-17)
(-0.102077 -0.0767967 3.76706e-17)
(-0.0228846 -0.018448 1.49445e-17)
(-0.0233566 -0.0188262 1.71928e-17)
(-0.0238409 -0.0192143 1.81083e-17)
(-0.024338 -0.0196126 1.78813e-17)
(-0.0248485 -0.0200217 1.7191e-17)
(-0.0253727 -0.0204418 1.6442e-17)
(-0.0259114 -0.0208735 1.62228e-17)
(-0.0264651 -0.0213173 1.58508e-17)
(-0.0270345 -0.0217737 1.5345e-17)
(-0.0276217 -0.0222443 1.44618e-17)
(-0.0282304 -0.0227323 1.33827e-17)
(-0.0288635 -0.0232402 1.27725e-17)
(-0.0295198 -0.0237668 1.27029e-17)
(-0.0301977 -0.0243107 1.282e-17)
(-0.0308966 -0.0248714 1.33149e-17)
(-0.0316166 -0.0254491 1.42824e-17)
(-0.0323584 -0.0260441 1.5007e-17)
(-0.0331231 -0.0266575 1.55233e-17)
(-0.0339119 -0.0272901 1.5716e-17)
(-0.034726 -0.027943 1.54612e-17)
(-0.035567 -0.0286174 1.41601e-17)
(-0.0364364 -0.0293145 1.27659e-17)
(-0.0373358 -0.0300357 1.18458e-17)
(-0.0382668 -0.0307822 1.10076e-17)
(-0.0392314 -0.0315555 9.94139e-18)
(-0.0402314 -0.0323571 8.69858e-18)
(-0.0412687 -0.0331887 7.83878e-18)
(-0.0423456 -0.034052 7.34135e-18)
(-0.0434642 -0.0349487 7.395e-18)
(-0.044627 -0.0358808 7.35574e-18)
(-0.0458365 -0.0368504 7.09062e-18)
(-0.0470956 -0.0378596 7.05282e-18)
(-0.048407 -0.0389107 7.00898e-18)
(-0.0497741 -0.0400064 7.28301e-18)
(-0.0512 -0.0411494 7.30567e-18)
(-0.0526886 -0.0423424 7.0302e-18)
(-0.0542436 -0.0435886 7.02516e-18)
(-0.0558692 -0.0448915 6.7422e-18)
(-0.05757 -0.0462546 5.44607e-18)
(-0.0593509 -0.0476818 3.52891e-18)
(-0.0612171 -0.0491773 1.50857e-18)
(-0.0631743 -0.0507457 -7.53773e-19)
(-0.0652285 -0.0523919 -3.31875e-18)
(-0.0673865 -0.0541211 -5.36794e-18)
(-0.0696554 -0.0559392 -6.64309e-18)
(-0.0720429 -0.0578523 -7.00801e-18)
(-0.0745575 -0.0598671 -7.8719e-18)
(-0.0772082 -0.0619909 -9.17226e-18)
(-0.0800048 -0.0642317 -1.06903e-17)
(-0.0829582 -0.0665979 -1.20855e-17)
(-0.0860797 -0.0690989 -1.28532e-17)
(-0.0893819 -0.0717445 -1.38332e-17)
(-0.0928783 -0.0745457 -1.60087e-17)
(-0.0965836 -0.0775142 -1.9444e-17)
(-0.100513 -0.0806625 -2.31821e-17)
(-0.022493 -0.0192951 1.71794e-17)
(-0.0229567 -0.0196911 1.64031e-17)
(-0.0234325 -0.0200975 1.43413e-17)
(-0.0239209 -0.0205147 1.19219e-17)
(-0.0244224 -0.0209431 1.03584e-17)
(-0.0249376 -0.0213832 9.84528e-18)
(-0.025467 -0.0218354 1.0863e-17)
(-0.0260111 -0.0223003 1.29485e-17)
(-0.0265708 -0.0227786 1.45291e-17)
(-0.0271492 -0.0232731 1.51507e-17)
(-0.0277508 -0.0237875 1.48142e-17)
(-0.0283757 -0.0243222 1.40507e-17)
(-0.0290218 -0.0248751 1.32932e-17)
(-0.0296882 -0.0254452 1.32917e-17)
(-0.0303747 -0.0260326 1.38348e-17)
(-0.0310818 -0.0266374 1.47305e-17)
(-0.0318103 -0.0272604 1.60589e-17)
(-0.0325614 -0.0279027 1.71264e-17)
(-0.0333362 -0.0285652 1.7301e-17)
(-0.0341361 -0.029249 1.69231e-17)
(-0.0349626 -0.0299555 1.62872e-17)
(-0.0358171 -0.030686 1.57579e-17)
(-0.0367012 -0.0314417 1.61587e-17)
(-0.0376166 -0.032224 1.73808e-17)
(-0.038565 -0.0330346 1.85745e-17)
(-0.0395483 -0.033875 1.90321e-17)
(-0.0405685 -0.0347469 1.80113e-17)
(-0.0416276 -0.035652 1.6118e-17)
(-0.0427278 -0.0365923 1.43914e-17)
(-0.0438716 -0.0375697 1.31277e-17)
(-0.0450614 -0.0385865 1.21363e-17)
(-0.0462999 -0.0396448 1.06343e-17)
(-0.0475901 -0.0407473 8.68867e-18)
(-0.0489349 -0.0418965 6.74484e-18)
(-0.0503378 -0.0430952 4.71312e-18)
(-0.0518023 -0.0443466 3.17799e-18)
(-0.0533322 -0.0456538 1.94534e-18)
(-0.0549316 -0.0470204 5.76319e-19)
(-0.0566051 -0.0484503 -6.22007e-19)
(-0.0583573 -0.0499473 -2.40827e-18)
(-0.0601935 -0.0515161 -4.62376e-18)
(-0.0621192 -0.0531614 -6.56443e-18)
(-0.0641405 -0.0548882 -8.78917e-18)
(-0.0662637 -0.0567021 -1.11806e-17)
(-0.0684961 -0.0586092 -1.27027e-17)
(-0.0708451 -0.0606159 -1.31268e-17)
(-0.0733191 -0.0627293 -1.39662e-17)
(-0.0759269 -0.0649569 -1.55593e-17)
(-0.0786782 -0.0673071 -1.77168e-17)
(-0.0815835 -0.0697887 -2.01694e-17)
(-0.084654 -0.0724114 -2.17735e-17)
(-0.087902 -0.0751857 -2.17041e-17)
(-0.0913408 -0.0781228 -2.09598e-17)
(-0.0949846 -0.0812349 -2.24309e-17)
(-0.0988488 -0.0845353 -2.60482e-17)
(-0.0220787 -0.0201383 1.11891e-17)
(-0.0225337 -0.0205519 1.13637e-17)
(-0.0230006 -0.0209764 1.07606e-17)
(-0.02348 -0.0214121 9.11381e-18)
(-0.0239724 -0.0218596 7.84102e-18)
(-0.0244783 -0.0223194 7.51397e-18)
(-0.0249983 -0.022792 7.43229e-18)
(-0.0255328 -0.0232782 8.26088e-18)
(-0.0260834 -0.02378 9.6009e-18)
(-0.026654 -0.0243008 1.11333e-17)
(-0.027247 -0.0248425 1.29036e-17)
(-0.0278616 -0.0254036 1.46188e-17)
(-0.0284958 -0.0259823 1.64121e-17)
(-0.0291493 -0.0265782 1.80591e-17)
(-0.0298222 -0.0271916 1.93987e-17)
(-0.0305153 -0.0278232 2.05859e-17)
(-0.0312296 -0.0284739 2.2103e-17)
(-0.0319662 -0.0291448 2.39366e-17)
(-0.0327263 -0.029837 2.56887e-17)
(-0.0335112 -0.0305518 2.73911e-17)
(-0.0343223 -0.0312904 2.89362e-17)
(-0.0351611 -0.0320541 3.01147e-17)
(-0.0360291 -0.0328444 3.12588e-17)
(-0.0369279 -0.0336628 3.29103e-17)
(-0.0378592 -0.0345107 3.44862e-17)
(-0.0388249 -0.0353899 3.62077e-17)
(-0.0398269 -0.0363021 3.73988e-17)
(-0.0408672 -0.0372492 3.80436e-17)
(-0.0419479 -0.0382331 3.82424e-17)
(-0.0430715 -0.039256 3.80647e-17)
(-0.0442403 -0.0403201 3.75716e-17)
(-0.0454571 -0.0414278 3.65762e-17)
(-0.0467247 -0.0425817 3.58113e-17)
(-0.048046 -0.0437846 3.54709e-17)
(-0.0494244 -0.0450394 3.43203e-17)
(-0.0508633 -0.0463493 3.26364e-17)
(-0.0523666 -0.0477177 3.13867e-17)
(-0.0539382 -0.0491484 3.0659e-17)
(-0.0555826 -0.0506452 2.9954e-17)
(-0.0573044 -0.0522125 2.91693e-17)
(-0.0591087 -0.0538548 2.7996e-17)
(-0.0610009 -0.0555772 2.6696e-17)
(-0.062987 -0.0573849 2.59547e-17)
(-0.0650733 -0.0592839 2.53777e-17)
(-0.0672668 -0.0612804 2.49896e-17)
(-0.0695748 -0.0633811 2.45109e-17)
(-0.0720056 -0.0655934 2.40096e-17)
(-0.0745677 -0.0679252 2.28687e-17)
(-0.0772706 -0.0703852 2.15871e-17)
(-0.0801246 -0.0729826 2.02911e-17)
(-0.0831408 -0.0757275 1.94297e-17)
(-0.086331 -0.0786308 1.94766e-17)
(-0.0897083 -0.0817042 1.98481e-17)
(-0.0932864 -0.0849604 1.89053e-17)
(-0.0970806 -0.088413 1.69737e-17)
(-0.0222698 -0.0203462 2.3223e-17)
(-0.0227129 -0.020779 2.5843e-17)
(-0.0231678 -0.0212229 2.78207e-17)
(-0.0236348 -0.0216784 2.9295e-17)
(-0.0241145 -0.022146 3.00532e-17)
(-0.0246081 -0.0226267 2.95641e-17)
(-0.0251181 -0.023123 2.84098e-17)
(-0.0256465 -0.0236371 2.72408e-17)
(-0.0261932 -0.0241694 2.63553e-17)
(-0.0267573 -0.0247193 2.65492e-17)
(-0.0273391 -0.0252864 2.74877e-17)
(-0.027939 -0.0258709 2.79788e-17)
(-0.0285576 -0.0264729 2.75573e-17)
(-0.0291951 -0.0270929 2.65274e-17)
(-0.0298522 -0.0277316 2.53515e-17)
(-0.0305297 -0.0283897 2.43857e-17)
(-0.0312284 -0.0290681 2.39799e-17)
(-0.0319493 -0.0297679 2.42608e-17)
(-0.0326936 -0.0304902 2.4704e-17)
(-0.0334625 -0.0312362 2.54557e-17)
(-0.0342573 -0.0320071 2.6283e-17)
(-0.0350795 -0.0328044 2.65741e-17)
(-0.0359304 -0.0336294 2.65832e-17)
(-0.0368118 -0.0344837 2.63865e-17)
(-0.0377252 -0.035369 2.62845e-17)
(-0.0386725 -0.0362868 2.62275e-17)
(-0.0396555 -0.0372391 2.64097e-17)
(-0.0406763 -0.0382278 2.60477e-17)
(-0.0417369 -0.039255 2.56252e-17)
(-0.0428397 -0.0403228 2.53695e-17)
(-0.043987 -0.0414336 2.54742e-17)
(-0.0451816 -0.0425898 2.58561e-17)
(-0.0464261 -0.0437943 2.62277e-17)
(-0.0477236 -0.0450499 2.71105e-17)
(-0.0490772 -0.0463597 2.82909e-17)
(-0.0504904 -0.047727 2.91397e-17)
(-0.0519669 -0.0491553 2.96332e-17)
(-0.0535106 -0.0506486 2.99533e-17)
(-0.0551259 -0.0522109 3.05924e-17)
(-0.0568173 -0.0538467 3.19501e-17)
(-0.0585897 -0.0555608 3.31662e-17)
(-0.0604487 -0.0573584 3.44221e-17)
(-0.0623999 -0.0592451 3.52428e-17)
(-0.0644496 -0.061227 3.48275e-17)
(-0.0666046 -0.0633105 3.34376e-17)
(-0.0688721 -0.0655028 3.21641e-17)
(-0.07126 -0.0678115 3.09904e-17)
(-0.0737769 -0.0702448 3.06141e-17)
(-0.076432 -0.0728116 3.04696e-17)
(-0.0792353 -0.0755218 3.02428e-17)
(-0.0821975 -0.0783856 2.9982e-17)
(-0.0853304 -0.0814144 2.88558e-17)
(-0.0886466 -0.0846204 2.74501e-17)
(-0.0921595 -0.0880168 2.5495e-17)
(-0.0958839 -0.0916177 2.27544e-17)
(-0.0203463 -0.0222697 1.52169e-17)
(-0.020779 -0.0227129 1.70922e-17)
(-0.0212229 -0.0231677 1.87928e-17)
(-0.0216784 -0.0236348 2.01957e-17)
(-0.022146 -0.0241145 2.11888e-17)
(-0.0226267 -0.0246081 2.16738e-17)
(-0.023123 -0.025118 2.16117e-17)
(-0.0236372 -0.0256465 2.10314e-17)
(-0.0241694 -0.0261931 2.0674e-17)
(-0.0247193 -0.0267573 2.13496e-17)
(-0.0252865 -0.0273391 2.2618e-17)
(-0.0258709 -0.0279391 2.32412e-17)
(-0.0264729 -0.0285576 2.30988e-17)
(-0.0270929 -0.0291951 2.21973e-17)
(-0.0277316 -0.0298522 2.06933e-17)
(-0.0283897 -0.0305297 1.88689e-17)
(-0.0290681 -0.0312284 1.68082e-17)
(-0.0297679 -0.0319493 1.53957e-17)
(-0.0304902 -0.0326936 1.45136e-17)
(-0.0312362 -0.0334625 1.33361e-17)
(-0.0320071 -0.0342573 1.1847e-17)
(-0.0328044 -0.0350795 1.04725e-17)
(-0.0336294 -0.0359304 9.04159e-18)
(-0.0344837 -0.0368118 7.12032e-18)
(-0.0353689 -0.0377252 5.04886e-18)
(-0.0362868 -0.0386725 3.11678e-18)
(-0.0372391 -0.0396555 1.66678e-18)
(-0.0382278 -0.0406763 -3.15839e-19)
(-0.0392549 -0.0417369 -2.14869e-18)
(-0.0403227 -0.0428397 -3.48588e-18)
(-0.0414335 -0.0439871 -3.96027e-18)
(-0.0425898 -0.0451816 -3.80686e-18)
(-0.0437944 -0.0464262 -3.66865e-18)
(-0.0450499 -0.0477236 -3.54531e-18)
(-0.0463597 -0.0490773 -3.08545e-18)
(-0.047727 -0.0504905 -3.32224e-18)
(-0.0491553 -0.051967 -4.55009e-18)
(-0.0506486 -0.0535107 -5.71209e-18)
(-0.0522109 -0.055126 -6.69133e-18)
(-0.0538467 -0.0568174 -7.49377e-18)
(-0.0555608 -0.0585899 -8.02901e-18)
(-0.0573584 -0.0604488 -8.93035e-18)
(-0.0592451 -0.0624 -1.06669e-17)
(-0.061227 -0.0644497 -1.3261e-17)
(-0.0633105 -0.0666047 -1.70727e-17)
(-0.0655027 -0.0688722 -2.10499e-17)
(-0.0678114 -0.0712601 -2.452e-17)
(-0.0702447 -0.073777 -2.72467e-17)
(-0.0728115 -0.0764321 -2.99097e-17)
(-0.0755217 -0.0792354 -3.31515e-17)
(-0.0783855 -0.0821977 -3.61953e-17)
(-0.0814143 -0.0853306 -3.99741e-17)
(-0.0846203 -0.0886467 -4.42151e-17)
(-0.0880167 -0.0921596 -4.75969e-17)
(-0.0916176 -0.095884 -4.99094e-17)
(-0.0201383 -0.0220787 2.04272e-17)
(-0.0205519 -0.0225337 2.10225e-17)
(-0.0209764 -0.0230006 2.08158e-17)
(-0.0214122 -0.02348 2.02371e-17)
(-0.0218597 -0.0239724 1.95843e-17)
(-0.0223194 -0.0244783 1.91887e-17)
(-0.022792 -0.0249983 1.95585e-17)
(-0.0232783 -0.0255328 2.02471e-17)
(-0.0237801 -0.0260834 2.09382e-17)
(-0.0243009 -0.026654 2.21712e-17)
(-0.0248426 -0.0272471 2.33959e-17)
(-0.0254036 -0.0278616 2.39575e-17)
(-0.0259823 -0.0284959 2.45389e-17)
(-0.0265783 -0.0291493 2.52255e-17)
(-0.0271917 -0.0298223 2.56046e-17)
(-0.0278233 -0.0305154 2.54172e-17)
(-0.0284739 -0.0312296 2.54333e-17)
(-0.0291448 -0.0319662 2.57277e-17)
(-0.029837 -0.0327263 2.58058e-17)
(-0.0305518 -0.0335112 2.5598e-17)
(-0.0312904 -0.0343223 2.52881e-17)
(-0.0320541 -0.0351611 2.52732e-17)
(-0.0328444 -0.0360291 2.5224e-17)
(-0.0336628 -0.0369279 2.53389e-17)
(-0.0345107 -0.0378592 2.56389e-17)
(-0.0353899 -0.038825 2.63199e-17)
(-0.0363021 -0.0398269 2.71589e-17)
(-0.0372492 -0.0408672 2.8117e-17)
(-0.0382332 -0.041948 2.85137e-17)
(-0.039256 -0.0430716 2.848e-17)
(-0.0403201 -0.0442404 2.86904e-17)
(-0.0414279 -0.0454572 2.86514e-17)
(-0.0425818 -0.0467248 2.81915e-17)
(-0.0437847 -0.0480461 2.78806e-17)
(-0.0450394 -0.0494245 2.67365e-17)
(-0.0463493 -0.0508635 2.44671e-17)
(-0.0477178 -0.0523668 2.19829e-17)
(-0.0491484 -0.0539384 1.9731e-17)
(-0.0506452 -0.0555828 1.76541e-17)
(-0.0522125 -0.0573046 1.57638e-17)
(-0.0538548 -0.0591088 1.40614e-17)
(-0.0555772 -0.061001 1.22221e-17)
(-0.057385 -0.0629871 1.07141e-17)
(-0.0592839 -0.0650734 9.29583e-18)
(-0.0612804 -0.0672669 8.07367e-18)
(-0.0633811 -0.0695749 7.22162e-18)
(-0.0655934 -0.0720056 6.5211e-18)
(-0.0679252 -0.0745677 5.16358e-18)
(-0.0703852 -0.0772707 3.48738e-18)
(-0.0729826 -0.0801247 1.74066e-18)
(-0.0757275 -0.0831408 -1.96259e-19)
(-0.0786307 -0.086331 -2.54729e-18)
(-0.0817041 -0.0897082 -4.74442e-18)
(-0.0849603 -0.0932864 -6.32033e-18)
(-0.0884129 -0.0970805 -6.76195e-18)
(-0.0920768 -0.101107 -6.46838e-18)
(-0.0959677 -0.105383 -6.2381e-18)
(-0.100102 -0.109927 -5.17905e-18)
(-0.104499 -0.114759 -4.10541e-18)
(-0.0192951 -0.0224929 2.14168e-17)
(-0.0196912 -0.0229567 2.14938e-17)
(-0.0200976 -0.0234325 2.16445e-17)
(-0.0205147 -0.0239209 2.17745e-17)
(-0.0209431 -0.0244224 2.17424e-17)
(-0.0213832 -0.0249376 2.16353e-17)
(-0.0218354 -0.025467 2.15238e-17)
(-0.0223004 -0.0260111 2.13798e-17)
(-0.0227787 -0.0265708 2.11011e-17)
(-0.0232731 -0.0271492 2.07249e-17)
(-0.0237875 -0.0277508 2.02457e-17)
(-0.0243222 -0.0283757 2.02179e-17)
(-0.0248752 -0.0290219 2.05432e-17)
(-0.0254453 -0.0296883 2.12249e-17)
(-0.0260326 -0.0303748 2.27371e-17)
(-0.0266374 -0.0310819 2.43956e-17)
(-0.0272605 -0.0318104 2.62816e-17)
(-0.0279027 -0.0325614 2.79006e-17)
(-0.0285652 -0.0333363 2.86939e-17)
(-0.0292491 -0.0341362 2.89168e-17)
(-0.0299556 -0.0349626 2.92716e-17)
(-0.030686 -0.0358171 2.96302e-17)
(-0.0314417 -0.0367013 3.04092e-17)
(-0.0322241 -0.0376167 3.21705e-17)
(-0.0330347 -0.0385651 3.41096e-17)
(-0.0338751 -0.0395484 3.56507e-17)
(-0.034747 -0.0405686 3.59082e-17)
(-0.0356521 -0.0416277 3.5075e-17)
(-0.0365924 -0.042728 3.40718e-17)
(-0.0375698 -0.0438717 3.34e-17)
(-0.0385865 -0.0450615 3.26438e-17)
(-0.0396449 -0.0463001 3.0771e-17)
(-0.0407474 -0.0475902 2.78983e-17)
(-0.0418966 -0.0489351 2.49966e-17)
(-0.0430953 -0.050338 2.20189e-17)
(-0.0443467 -0.0518024 1.96193e-17)
(-0.0456539 -0.0533323 1.80655e-17)
(-0.0470205 -0.0549318 1.72858e-17)
(-0.0484503 -0.0566052 1.67996e-17)
(-0.0499474 -0.0583575 1.62648e-17)
(-0.0515162 -0.0601936 1.59949e-17)
(-0.0531614 -0.0621193 1.59227e-17)
(-0.0548882 -0.0641405 1.54328e-17)
(-0.0567021 -0.0662638 1.51337e-17)
(-0.0586092 -0.0684961 1.59679e-17)
(-0.0606158 -0.0708451 1.71197e-17)
(-0.0627292 -0.073319 1.75722e-17)
(-0.0649568 -0.0759268 1.7618e-17)
(-0.067307 -0.0786781 1.66454e-17)
(-0.0697886 -0.0815833 1.53692e-17)
(-0.0724113 -0.0846538 1.47534e-17)
(-0.0751855 -0.0879018 1.44648e-17)
(-0.0781226 -0.0913405 1.36677e-17)
(-0.0812348 -0.0949843 1.29114e-17)
(-0.0845352 -0.0988486 1.18674e-17)
(-0.088038 -0.10295 1.08252e-17)
(-0.0917584 -0.107306 1.02614e-17)
(-0.0957129 -0.111937 9.32664e-18)
(-0.0999187 -0.116862 7.71142e-18)
(-0.104395 -0.122103 5.99835e-18)
(-0.018448 -0.0228846 -9.22193e-21)
(-0.0188262 -0.0233566 -2.76772e-20)
(-0.0192143 -0.0238409 1.38366e-18)
(-0.0196127 -0.024338 3.31013e-18)
(-0.0200217 -0.0248484 4.40558e-18)
(-0.0204418 -0.0253727 5.56447e-18)
(-0.0208736 -0.0259114 6.67326e-18)
(-0.0213173 -0.0264651 7.73993e-18)
(-0.0217737 -0.0270345 9.11743e-18)
(-0.0222443 -0.0276217 1.08445e-17)
(-0.0227324 -0.0282305 1.26033e-17)
(-0.0232403 -0.0288635 1.44925e-17)
(-0.0237669 -0.0295199 1.59235e-17)
(-0.0243108 -0.0301978 1.71535e-17)
(-0.0248715 -0.0308967 1.88236e-17)
(-0.0254491 -0.0316167 2.05716e-17)
(-0.0260442 -0.0323585 2.23059e-17)
(-0.0266576 -0.0331232 2.36952e-17)
(-0.0272902 -0.0339119 2.46706e-17)
(-0.0279431 -0.0347261 2.54086e-17)
(-0.0286175 -0.0355671 2.54054e-17)
(-0.0293146 -0.0364364 2.51893e-17)
(-0.0300357 -0.0373358 2.48343e-17)
(-0.0307822 -0.0382669 2.41397e-17)
(-0.0315555 -0.0392315 2.34362e-17)
(-0.0323572 -0.0402314 2.272e-17)
(-0.0331888 -0.0412688 2.18668e-17)
(-0.0340521 -0.0423457 2.1506e-17)
(-0.0349488 -0.0434643 2.21565e-17)
(-0.0358809 -0.0446271 2.30802e-17)
(-0.0368505 -0.0458367 2.34512e-17)
(-0.0378597 -0.0470957 2.35204e-17)
(-0.0389109 -0.0484071 2.32615e-17)
(-0.0400065 -0.0497741 2.24498e-17)
(-0.0411494 -0.0512001 2.17568e-17)
(-0.0423425 -0.0526886 2.15275e-17)
(-0.0435887 -0.0542436 2.12009e-17)
(-0.0448916 -0.0558693 2.03975e-17)
(-0.0462547 -0.0575701 1.88341e-17)
(-0.0476819 -0.059351 1.6903e-17)
(-0.0491774 -0.0612171 1.4699e-17)
(-0.0507458 -0.0631743 1.2818e-17)
(-0.0523919 -0.0652285 1.08962e-17)
(-0.0541211 -0.0673865 9.28554e-18)
(-0.0559392 -0.0696553 8.01162e-18)
(-0.0578522 -0.0720428 6.56097e-18)
(-0.059867 -0.0745574 4.98777e-18)
(-0.0619909 -0.077208 3.76643e-18)
(-0.0642316 -0.0800047 2.82967e-18)
(-0.0665978 -0.082958 2.67217e-18)
(-0.0690987 -0.0860795 2.87051e-18)
(-0.0717444 -0.0893817 2.58471e-18)
(-0.0745456 -0.0928781 1.60496e-18)
(-0.077514 -0.0965834 1.33745e-19)
(-0.0806624 -0.100513 -1.99372e-18)
(-0.0840044 -0.104685 -5.06779e-18)
(-0.0875546 -0.109117 -8.37925e-18)
(-0.0913287 -0.113828 -1.21986e-17)
(-0.0953436 -0.11884 -1.60429e-17)
(-0.0996173 -0.124175 -1.91666e-17)
(-0.104169 -0.129857 -2.18557e-17)
(-0.109017 -0.13591 -2.32376e-17)
(-0.114184 -0.142361 -2.30284e-17)
(-0.119691 -0.149236 -2.28599e-17)
(-0.125559 -0.156562 -2.40489e-17)
(-0.13181 -0.164365 -2.56853e-17)
(-0.138463 -0.172673 -2.66873e-17)
(-0.145539 -0.181507 -2.77075e-17)
(-0.153056 -0.190892 -2.88669e-17)
(-0.16103 -0.200848 -2.84715e-17)
(-0.169496 -0.211419 -2.84139e-17)
(-0.178595 -0.222781 -2.88917e-17)
(-0.188559 -0.235223 -2.88534e-17)
(-0.199424 -0.248788 -2.81921e-17)
(-0.210987 -0.263226 -2.63274e-17)
(-0.223055 -0.278294 -2.41646e-17)
(-0.235458 -0.293782 -2.1882e-17)
(-0.247965 -0.309399 -1.76484e-17)
(-0.260277 -0.324774 -1.25941e-17)
(-0.272044 -0.339468 -7.91193e-18)
(-0.282902 -0.353028 -3.02152e-18)
(-0.292523 -0.365045 2.25648e-18)
(-0.300673 -0.375226 7.9892e-18)
(-0.307251 -0.383444 1.19205e-17)
(-0.312302 -0.389756 1.41471e-17)
(-0.315999 -0.394378 1.53465e-17)
(-0.318593 -0.397622 1.70789e-17)
(-0.320358 -0.399831 2.05613e-17)
(-0.32155 -0.401325 2.71575e-17)
(-0.32238 -0.402366 3.98563e-17)
(-0.322999 -0.403145 5.80264e-17)
(-0.323509 -0.403787 8.41021e-17)
(-0.323968 -0.404365 1.2135e-16)
(-0.324406 -0.404917 -1.88593e-16)
(-0.324833 -0.405455 -1.93824e-16)
(-0.0175975 -0.023255 1.07645e-17)
(-0.0179579 -0.0237349 1.03162e-17)
(-0.0183276 -0.0242272 1.06365e-17)
(-0.0187072 -0.0247326 1.12473e-17)
(-0.0190968 -0.0252515 1.16117e-17)
(-0.0194971 -0.0257844 1.21551e-17)
(-0.0199083 -0.0263319 1.25575e-17)
(-0.020331 -0.0268947 1.29824e-17)
(-0.0207656 -0.0274735 1.3097e-17)
(-0.0212129 -0.0280689 1.26753e-17)
(-0.0216754 -0.0286847 1.16624e-17)
(-0.0221569 -0.0293253 1.0439e-17)
(-0.0226572 -0.029991 9.37979e-18)
(-0.0231748 -0.0306793 8.41709e-18)
(-0.0237087 -0.0313895 7.23447e-18)
(-0.0242589 -0.0321214 5.77512e-18)
(-0.0248259 -0.0328756 4.62618e-18)
(-0.0254103 -0.033653 3.79028e-18)
(-0.0260129 -0.0344548 2.38046e-18)
(-0.0266348 -0.0352824 8.74538e-19)
(-0.0272771 -0.036137 2.71804e-20)
(-0.027941 -0.0370204 -5.31163e-19)
(-0.0286276 -0.0379342 -1.32268e-18)
(-0.0293383 -0.0388801 -2.64628e-18)
(-0.0300744 -0.0398599 -3.98348e-18)
(-0.0308375 -0.0408755 -5.04561e-18)
(-0.031629 -0.0419291 -5.1168e-18)
(-0.0324505 -0.0430227 -3.49675e-18)
(-0.0333039 -0.0441586 -1.53705e-18)
(-0.0341908 -0.0453393 4.79366e-19)
(-0.0351134 -0.0465674 2.93436e-18)
(-0.0360736 -0.0478457 5.8158e-18)
(-0.0370737 -0.0491772 9.45867e-18)
(-0.0381162 -0.050565 1.35077e-17)
(-0.0392035 -0.0520127 1.77036e-17)
(-0.0403384 -0.0535238 2.1265e-17)
(-0.041524 -0.0551023 2.34329e-17)
(-0.0427634 -0.0567525 2.50549e-17)
(-0.04406 -0.058479 2.63181e-17)
(-0.0454177 -0.0602867 2.75175e-17)
(-0.0468402 -0.062181 2.87002e-17)
(-0.0483321 -0.0641676 2.9553e-17)
(-0.049898 -0.0662527 3.03091e-17)
(-0.0515429 -0.0684432 3.08868e-17)
(-0.0532723 -0.0707462 3.0647e-17)
(-0.0550922 -0.0731697 3.00262e-17)
(-0.0570089 -0.0757223 2.98078e-17)
(-0.0590293 -0.078413 3.07342e-17)
(-0.0611611 -0.0812521 3.30861e-17)
(-0.0634123 -0.0842503 3.61849e-17)
(-0.0657918 -0.0874194 3.94838e-17)
(-0.0683092 -0.0907722 4.26105e-17)
(-0.0709748 -0.0943225 4.48363e-17)
(-0.0737999 -0.0980853 4.73153e-17)
(-0.0767966 -0.102077 4.967e-17)
(-0.0799779 -0.106314 5.11631e-17)
(-0.0833579 -0.110816 5.22456e-17)
(-0.0869517 -0.115603 5.2835e-17)
(-0.0907756 -0.120696 5.28934e-17)
(-0.0948468 -0.126119 5.28962e-17)
(-0.0991835 -0.131896 5.29788e-17)
(-0.103805 -0.138052 5.28564e-17)
(-0.108731 -0.144615 5.22986e-17)
(-0.113984 -0.151611 5.18111e-17)
(-0.119582 -0.159069 5.24677e-17)
(-0.125549 -0.167017 5.26592e-17)
(-0.131903 -0.175483 5.21392e-17)
(-0.138665 -0.18449 5.10728e-17)
(-0.145851 -0.194064 4.74406e-17)
(-0.153478 -0.204226 4.28095e-17)
(-0.161577 -0.215016 3.79912e-17)
(-0.17026 -0.226585 3.31157e-17)
(-0.179752 -0.239231 2.99103e-17)
(-0.190137 -0.253064 2.62602e-17)
(-0.201229 -0.267842 2.12613e-17)
(-0.212828 -0.283296 1.46357e-17)
(-0.224775 -0.299214 9.05497e-18)
(-0.236851 -0.315304 1.31474e-18)
(-0.24877 -0.331186 -8.17415e-18)
(-0.260195 -0.34641 -1.7316e-17)
(-0.27077 -0.360503 -2.76331e-17)
(-0.280169 -0.373032 -3.93409e-17)
(-0.288154 -0.383676 -5.5518e-17)
(-0.294615 -0.392291 -7.53791e-17)
(-0.299586 -0.398922 -9.6896e-17)
(-0.303228 -0.403783 -1.21722e-16)
(-0.305783 -0.407195 -1.46726e-16)
(-0.30752 -0.409518 -1.70611e-16)
(-0.30869 -0.411085 -1.94774e-16)
(-0.309501 -0.412172 -2.15244e-16)
(-0.310103 -0.412982 -2.30552e-16)
(-0.310596 -0.413648 -2.3863e-16)
(-0.31104 -0.414246 -2.36151e-16)
(-0.311461 -0.414816 -4.16132e-16)
(-0.311874 -0.415373 -4.36331e-16)
(-0.0167444 -0.0236046 5.3411e-18)
(-0.0170869 -0.0240919 4.57469e-18)
(-0.0174383 -0.0245919 5.17218e-18)
(-0.017799 -0.025105 6.54098e-18)
(-0.0181693 -0.0256318 7.68966e-18)
(-0.0185496 -0.0261729 8.54337e-18)
(-0.0189404 -0.0267288 9.28688e-18)
(-0.019342 -0.0273001 9.84651e-18)
(-0.019755 -0.0278876 1.00051e-17)
(-0.0201799 -0.0284919 9.20834e-18)
(-0.0206182 -0.0291155 8.03387e-18)
(-0.0210731 -0.0297624 6.77534e-18)
(-0.0215465 -0.0304352 5.1399e-18)
(-0.0220373 -0.0311328 3.29848e-18)
(-0.0225444 -0.0318534 1.18614e-18)
(-0.0230673 -0.0325965 -6.69776e-19)
(-0.0236061 -0.0333623 -2.34023e-18)
(-0.0241616 -0.0341518 -4.614e-18)
(-0.0247343 -0.0349659 -7.25444e-18)
(-0.0253253 -0.035806 -1.00353e-17)
(-0.0259355 -0.0366736 -1.25389e-17)
(-0.0265662 -0.0375702 -1.46167e-17)
(-0.0272184 -0.0384976 -1.63686e-17)
(-0.0278934 -0.0394574 -1.77866e-17)
(-0.0285924 -0.0404515 -1.88259e-17)
(-0.029317 -0.0414818 -1.97098e-17)
(-0.0300685 -0.0425506 -2.06598e-17)
(-0.0308485 -0.0436598 -2.14181e-17)
(-0.0316587 -0.044812 -2.17309e-17)
(-0.0325007 -0.0460095 -2.17678e-17)
(-0.0333764 -0.047255 -2.23885e-17)
(-0.0342878 -0.0485514 -2.32872e-17)
(-0.0352371 -0.0499016 -2.37026e-17)
(-0.0362265 -0.0513089 -2.4138e-17)
(-0.0372585 -0.0527768 -2.44404e-17)
(-0.0383357 -0.054309 -2.4063e-17)
(-0.0394609 -0.0559096 -2.25636e-17)
(-0.0406371 -0.0575828 -1.97886e-17)
(-0.0418677 -0.0593332 -1.67274e-17)
(-0.0431561 -0.061166 -1.38357e-17)
(-0.0445061 -0.0630866 -1.09439e-17)
(-0.0459219 -0.0651007 -8.12767e-18)
(-0.0474079 -0.0672147 -5.48992e-18)
(-0.0489689 -0.0694355 -3.2814e-18)
(-0.0506101 -0.0717704 -1.04356e-18)
(-0.0523371 -0.0742275 1.2229e-18)
(-0.054156 -0.0768153 3.49565e-18)
(-0.0560735 -0.0795435 5.1239e-18)
(-0.0580967 -0.082422 6.4213e-18)
(-0.0602334 -0.0854621 7.31732e-18)
(-0.062492 -0.0886756 7.79616e-18)
(-0.0648816 -0.0920756 9.03798e-18)
(-0.0674121 -0.0956762 1.01491e-17)
(-0.0700941 -0.0994925 1.09998e-17)
(-0.0729394 -0.103541 1.14199e-17)
(-0.0759603 -0.107839 1.19166e-17)
(-0.0791704 -0.112407 1.24028e-17)
(-0.0825841 -0.117265 1.27808e-17)
(-0.0862169 -0.122434 1.3325e-17)
(-0.0900855 -0.127939 1.25814e-17)
(-0.0942074 -0.133805 1.14491e-17)
(-0.0986011 -0.140057 9.71199e-18)
(-0.103286 -0.146724 7.74142e-18)
(-0.108282 -0.153834 5.55576e-18)
(-0.113611 -0.161416 3.05095e-18)
(-0.119291 -0.1695 1.8618e-18)
(-0.125343 -0.178114 4.54226e-19)
(-0.131787 -0.187284 -7.96345e-19)
(-0.138639 -0.197036 -1.15934e-18)
(-0.145916 -0.207392 -7.18415e-19)
(-0.153642 -0.21839 -7.60915e-19)
(-0.161907 -0.230153 -5.34681e-20)
(-0.170926 -0.242989 2.32565e-18)
(-0.180825 -0.257075 4.30877e-18)
(-0.191435 -0.272176 7.39784e-18)
(-0.20255 -0.287997 9.54687e-18)
(-0.214022 -0.304325 1.21859e-17)
(-0.225644 -0.320869 1.62078e-17)
(-0.237145 -0.337241 1.91634e-17)
(-0.2482 -0.352981 2.17292e-17)
(-0.258464 -0.367594 2.40843e-17)
(-0.267614 -0.380624 2.58474e-17)
(-0.275409 -0.391726 2.38079e-17)
(-0.281731 -0.400734 2.03077e-17)
(-0.286605 -0.407682 1.35116e-17)
(-0.290181 -0.412781 3.30166e-18)
(-0.292689 -0.416362 -8.57613e-18)
(-0.294392 -0.418797 -2.34526e-17)
(-0.295536 -0.420437 -4.0039e-17)
(-0.296325 -0.42157 -5.77322e-17)
(-0.296909 -0.422411 -7.30445e-17)
(-0.297385 -0.4231 -8.31513e-17)
(-0.297812 -0.423717 -8.77208e-17)
(-0.298217 -0.424305 -1.17606e-16)
(-0.298614 -0.424879 -1.25703e-16)
(-0.0158892 -0.023934 -7.73566e-19)
(-0.0162139 -0.0244282 -4.10878e-18)
(-0.016547 -0.0249353 -6.08939e-18)
(-0.0168889 -0.0254558 -6.82608e-18)
(-0.0172398 -0.0259901 -7.48358e-18)
(-0.0176003 -0.0265388 -7.99254e-18)
(-0.0179706 -0.0271025 -8.25664e-18)
(-0.0183513 -0.0276819 -8.51558e-18)
(-0.0187426 -0.0282776 -8.68029e-18)
(-0.0191452 -0.0288904 -8.76335e-18)
(-0.0195596 -0.0295213 -8.59475e-18)
(-0.0199886 -0.0301742 -8.58679e-18)
(-0.0204353 -0.0308536 -9.05199e-18)
(-0.0208995 -0.0315596 -9.28867e-18)
(-0.0213796 -0.0322896 -8.92835e-18)
(-0.021875 -0.033043 -8.20332e-18)
(-0.0223858 -0.0338197 -7.44032e-18)
(-0.0229122 -0.0346203 -6.76708e-18)
(-0.0234551 -0.035446 -5.9673e-18)
(-0.0240152 -0.036298 -4.99106e-18)
(-0.0245935 -0.0371777 -3.79854e-18)
(-0.025191 -0.0380867 -2.474e-18)
(-0.0258089 -0.0390268 -1.38925e-18)
(-0.0264483 -0.0399996 -6.09002e-19)
(-0.0271105 -0.0410071 2.82434e-19)
(-0.0277967 -0.0420513 5.29569e-19)
(-0.0285084 -0.0431342 8.00533e-19)
(-0.029247 -0.0442582 1.28498e-18)
(-0.0300141 -0.0454255 1.22511e-18)
(-0.0308113 -0.0466387 3.9612e-19)
(-0.0316405 -0.0479005 -9.68284e-19)
(-0.0325034 -0.0492137 -2.46227e-18)
(-0.0334021 -0.0505815 -3.98523e-18)
(-0.0343387 -0.0520069 -5.77172e-18)
(-0.0353156 -0.0534937 -8.16383e-18)
(-0.0363353 -0.0550456 -1.06765e-17)
(-0.0374004 -0.0566667 -1.23403e-17)
(-0.0385137 -0.0583613 -1.3664e-17)
(-0.0396785 -0.0601341 -1.46216e-17)
(-0.040898 -0.0619902 -1.54279e-17)
(-0.0421758 -0.0639352 -1.62717e-17)
(-0.0435159 -0.0659749 -1.68198e-17)
(-0.0449224 -0.0681158 -1.69877e-17)
(-0.0463999 -0.0703648 -1.65133e-17)
(-0.0479533 -0.0727294 -1.55726e-17)
(-0.049588 -0.0752176 -1.44715e-17)
(-0.0513097 -0.0778384 -1.31282e-17)
(-0.0531247 -0.0806013 -1.26401e-17)
(-0.0550398 -0.0835166 -1.24255e-17)
(-0.0570624 -0.0865956 -1.21072e-17)
(-0.0592005 -0.0898504 -1.19098e-17)
(-0.0614628 -0.0932943 -1.23628e-17)
(-0.0638586 -0.0969414 -1.3466e-17)
(-0.0663981 -0.100807 -1.45813e-17)
(-0.0690924 -0.104909 -1.55674e-17)
(-0.0719534 -0.109265 -1.62282e-17)
(-0.0749938 -0.113894 -1.69316e-17)
(-0.0782277 -0.118817 -1.78211e-17)
(-0.0816697 -0.124057 -1.87399e-17)
(-0.0853357 -0.129638 -2.00958e-17)
(-0.0892426 -0.135587 -2.05777e-17)
(-0.0934083 -0.141929 -2.12908e-17)
(-0.0978513 -0.148694 -2.2642e-17)
(-0.102591 -0.15591 -2.38894e-17)
(-0.107647 -0.163609 -2.52205e-17)
(-0.11304 -0.17182 -2.73442e-17)
(-0.118789 -0.180573 -3.01452e-17)
(-0.124912 -0.189896 -3.1021e-17)
(-0.131426 -0.199815 -2.9312e-17)
(-0.138347 -0.210355 -2.66304e-17)
(-0.145697 -0.221547 -2.36875e-17)
(-0.153541 -0.233492 -1.96897e-17)
(-0.162088 -0.246505 -1.48676e-17)
(-0.171496 -0.260828 -9.56422e-18)
(-0.181613 -0.276235 -3.11962e-18)
(-0.192231 -0.292404 4.2246e-18)
(-0.20321 -0.309124 1.2153e-17)
(-0.214357 -0.326102 2.03953e-17)
(-0.225416 -0.342946 2.82222e-17)
(-0.236075 -0.359183 3.56358e-17)
(-0.245999 -0.374302 4.351e-17)
(-0.254872 -0.387821 5.1193e-17)
(-0.262451 -0.399373 5.69144e-17)
(-0.268614 -0.408769 5.88775e-17)
(-0.273374 -0.41603 5.87508e-17)
(-0.27687 -0.421366 5.50186e-17)
(-0.279323 -0.425115 4.99044e-17)
(-0.280986 -0.427662 4.44701e-17)
(-0.282101 -0.429373 3.65177e-17)
(-0.282867 -0.430552 2.73717e-17)
(-0.28343 -0.431423 1.85547e-17)
(-0.283888 -0.432134 1.03092e-17)
(-0.284298 -0.43277 1.76442e-18)
(-0.284687 -0.433375 1.91495e-16)
(-0.285066 -0.433966 2.1154e-16)
(-0.0150325 -0.0242434 -2.7159e-18)
(-0.0153393 -0.0247443 -4.52811e-18)
(-0.0156541 -0.025258 -5.92955e-18)
(-0.0159772 -0.0257853 -7.45496e-18)
(-0.0163089 -0.0263266 -9.0891e-18)
(-0.0166495 -0.0268824 -1.09856e-17)
(-0.0169994 -0.0274535 -1.34587e-17)
(-0.0173591 -0.0280404 -1.60917e-17)
(-0.0177288 -0.0286438 -1.89438e-17)
(-0.0181091 -0.0292644 -2.16937e-17)
(-0.0185005 -0.0299031 -2.40239e-17)
(-0.0189047 -0.0305627 -2.58869e-17)
(-0.0193246 -0.0312476 -2.7596e-17)
(-0.0197616 -0.0319601 -2.90125e-17)
(-0.0202146 -0.0326985 -3.0055e-17)
(-0.0206825 -0.0334613 -3.07218e-17)
(-0.0211652 -0.0342481 -3.11851e-17)
(-0.0216627 -0.0350593 -3.16011e-17)
(-0.0221758 -0.0358958 -3.19e-17)
(-0.0227051 -0.0367589 -3.15627e-17)
(-0.0232515 -0.03765 -3.08918e-17)
(-0.0238161 -0.0385707 -3.00582e-17)
(-0.0243998 -0.0395226 -2.93637e-17)
(-0.0250037 -0.0405077 -2.88749e-17)
(-0.0256291 -0.0415278 -2.86763e-17)
(-0.0262772 -0.0425848 -2.84374e-17)
(-0.0269492 -0.0436811 -2.77588e-17)
(-0.0276466 -0.0448187 -2.70494e-17)
(-0.0283709 -0.0460002 -2.69619e-17)
(-0.0291235 -0.047228 -2.75976e-17)
(-0.0299063 -0.0485049 -2.7432e-17)
(-0.0307209 -0.0498338 -2.64633e-17)
(-0.0315692 -0.0512178 -2.5327e-17)
(-0.0324533 -0.0526602 -2.43696e-17)
(-0.0333754 -0.0541646 -2.31878e-17)
(-0.0343379 -0.0557348 -2.23142e-17)
(-0.0353431 -0.0573749 -2.25052e-17)
(-0.036394 -0.0590893 -2.31933e-17)