/*--------------------------------*- C++ -*----------------------------------*\
  =========                 |
  \\      /  F ield         | OpenFOAM: The Open Source CFD Toolbox
   \\    /   O peration     | Website:  https://openfoam.org
    \\  /    A nd           | Version:  7
     \\/     M anipulation  |
\*---------------------------------------------------------------------------*/
FoamFile
{
    version     2.0;
    format      ascii;
    class       volScalarField;
    location    "100000";
    object      nut;
}
// * * * * * * * * * * * * * * * * * * * * * * * * * * * * * * * * * * * * * //

dimensions      [0 2 -1 0 0 0 0];

internalField   nonuniform List<scalar> 
4783
(
2.96121e-05
2.9633e-05
2.96519e-05
2.96689e-05
2.96837e-05
2.96967e-05
2.9708e-05
2.97176e-05
2.97259e-05
2.97328e-05
2.97385e-05
2.97433e-05
2.97471e-05
2.97502e-05
2.97526e-05
2.97544e-05
2.97558e-05
2.97568e-05
2.97575e-05
2.97579e-05
2.97582e-05
2.97584e-05
2.95762e-05
2.95981e-05
2.96187e-05
2.96378e-05
2.96551e-05
2.96705e-05
2.96842e-05
2.96962e-05
2.97066e-05
2.97156e-05
2.97233e-05
2.97298e-05
2.97353e-05
2.97399e-05
2.97437e-05
2.97467e-05
2.97492e-05
2.97512e-05
2.97528e-05
2.97539e-05
2.97548e-05
2.97555e-05
2.95303e-05
2.95557e-05
2.95789e-05
2.96003e-05
2.962e-05
2.96379e-05
2.9654e-05
2.96684e-05
2.96811e-05
2.96923e-05
2.97021e-05
2.97106e-05
2.97179e-05
2.97241e-05
2.97294e-05
2.97339e-05
2.97376e-05
2.97407e-05
2.97432e-05
2.97452e-05
2.97467e-05
2.97479e-05
2.94777e-05
2.95067e-05
2.9533e-05
2.95572e-05
2.95794e-05
2.95997e-05
2.96183e-05
2.9635e-05
2.965e-05
2.96634e-05
2.96753e-05
2.96858e-05
2.9695e-05
2.97029e-05
2.97098e-05
2.97157e-05
2.97207e-05
2.97249e-05
2.97284e-05
2.97313e-05
2.97336e-05
2.97354e-05
2.9419e-05
2.94513e-05
2.94808e-05
2.95079e-05
2.95329e-05
2.95558e-05
2.95768e-05
2.9596e-05
2.96133e-05
2.96289e-05
2.96429e-05
2.96554e-05
2.96664e-05
2.96762e-05
2.96846e-05
2.9692e-05
2.96984e-05
2.97038e-05
2.97083e-05
2.97121e-05
2.97151e-05
2.97175e-05
2.93541e-05
2.93896e-05
2.94223e-05
2.94525e-05
2.94803e-05
2.95059e-05
2.95295e-05
2.9551e-05
2.95707e-05
2.95886e-05
2.96047e-05
2.96192e-05
2.96321e-05
2.96436e-05
2.96538e-05
2.96626e-05
2.96703e-05
2.96769e-05
2.96825e-05
2.96872e-05
2.9691e-05
2.9694e-05
2.92831e-05
2.93219e-05
2.93577e-05
2.93908e-05
2.94215e-05
2.94499e-05
2.94761e-05
2.95001e-05
2.95222e-05
2.95423e-05
2.95606e-05
2.95771e-05
2.95919e-05
2.96052e-05
2.9617e-05
2.96273e-05
2.96364e-05
2.96442e-05
2.96509e-05
2.96565e-05
2.96611e-05
2.96647e-05
2.92062e-05
2.92481e-05
2.92869e-05
2.93231e-05
2.93567e-05
2.93878e-05
2.94166e-05
2.94432e-05
2.94676e-05
2.949e-05
2.95104e-05
2.95289e-05
2.95457e-05
2.95608e-05
2.95742e-05
2.95861e-05
2.95965e-05
2.96056e-05
2.96133e-05
2.96199e-05
2.96252e-05
2.96294e-05
2.91234e-05
2.91683e-05
2.92102e-05
2.92492e-05
2.92857e-05
2.93196e-05
2.9351e-05
2.93801e-05
2.94069e-05
2.94316e-05
2.94542e-05
2.94748e-05
2.94934e-05
2.95103e-05
2.95253e-05
2.95387e-05
2.95506e-05
2.95609e-05
2.95697e-05
2.95772e-05
2.95833e-05
2.95882e-05
2.90348e-05
2.90827e-05
2.91275e-05
2.91695e-05
2.92087e-05
2.92453e-05
2.92794e-05
2.9311e-05
2.93402e-05
2.93671e-05
2.93919e-05
2.94145e-05
2.9435e-05
2.94536e-05
2.94704e-05
2.94853e-05
2.94985e-05
2.951e-05
2.952e-05
2.95284e-05
2.95353e-05
2.95408e-05
2.89406e-05
2.89914e-05
2.9039e-05
2.90838e-05
2.91258e-05
2.91651e-05
2.92017e-05
2.92358e-05
2.92674e-05
2.92966e-05
2.93235e-05
2.93481e-05
2.93706e-05
2.93909e-05
2.94093e-05
2.94257e-05
2.94403e-05
2.94531e-05
2.94641e-05
2.94734e-05
2.94811e-05
2.94872e-05
2.88408e-05
2.88944e-05
2.89449e-05
2.89924e-05
2.90371e-05
2.9079e-05
2.91182e-05
2.91547e-05
2.91886e-05
2.922e-05
2.9249e-05
2.92757e-05
2.93e-05
2.93221e-05
2.93421e-05
2.93601e-05
2.9376e-05
2.939e-05
2.9402e-05
2.94123e-05
2.94208e-05
2.94275e-05
2.87355e-05
2.8792e-05
2.88451e-05
2.88954e-05
2.89427e-05
2.89871e-05
2.90288e-05
2.90677e-05
2.91039e-05
2.91376e-05
2.91686e-05
2.91972e-05
2.92234e-05
2.92473e-05
2.92689e-05
2.92883e-05
2.93056e-05
2.93207e-05
2.93339e-05
2.93451e-05
2.93543e-05
2.93616e-05
2.8625e-05
2.86841e-05
2.87399e-05
2.87928e-05
2.88426e-05
2.88896e-05
2.89337e-05
2.8975e-05
2.90134e-05
2.90492e-05
2.90824e-05
2.91129e-05
2.91409e-05
2.91665e-05
2.91897e-05
2.92105e-05
2.92291e-05
2.92455e-05
2.92596e-05
2.92717e-05
2.92817e-05
2.92897e-05
2.85092e-05
2.85709e-05
2.86293e-05
2.86847e-05
2.87371e-05
2.87865e-05
2.8833e-05
2.88765e-05
2.89172e-05
2.89551e-05
2.89903e-05
2.90227e-05
2.90525e-05
2.90798e-05
2.91045e-05
2.91268e-05
2.91467e-05
2.91642e-05
2.91794e-05
2.91924e-05
2.83883e-05
2.84526e-05
2.85135e-05
2.85714e-05
2.86262e-05
2.8678e-05
2.87268e-05
2.87726e-05
2.88154e-05
2.88554e-05
2.88925e-05
2.89268e-05
2.89584e-05
2.89873e-05
2.90135e-05
2.90372e-05
2.90583e-05
2.9077e-05
2.90932e-05
2.82625e-05
2.83292e-05
2.83926e-05
2.84529e-05
2.85101e-05
2.85642e-05
2.86152e-05
2.86632e-05
2.87081e-05
2.87501e-05
2.87891e-05
2.88252e-05
2.88585e-05
2.8889e-05
2.89168e-05
2.89418e-05
2.89642e-05
2.81319e-05
2.8201e-05
2.82667e-05
2.83293e-05
2.83888e-05
2.84451e-05
2.84983e-05
2.85484e-05
2.85954e-05
2.86393e-05
2.86802e-05
2.87182e-05
2.87531e-05
2.87852e-05
2.79965e-05
2.8068e-05
2.8136e-05
2.82009e-05
2.82626e-05
2.8321e-05
2.83764e-05
2.84285e-05
2.84775e-05
2.85233e-05
2.8566e-05
2.86057e-05
2.78566e-05
2.79303e-05
2.80005e-05
2.80676e-05
2.81314e-05
2.8192e-05
2.82494e-05
2.83035e-05
2.83544e-05
2.84021e-05
2.77122e-05
2.7788e-05
2.78604e-05
2.79296e-05
2.79955e-05
2.80582e-05
2.81175e-05
2.81736e-05
2.82263e-05
2.75635e-05
2.76414e-05
2.77159e-05
2.77871e-05
2.7855e-05
2.79196e-05
2.79809e-05
2.80388e-05
2.74106e-05
2.74905e-05
2.7567e-05
2.76402e-05
2.77101e-05
2.77766e-05
2.78397e-05
2.72536e-05
2.73355e-05
2.74139e-05
2.74889e-05
2.75607e-05
2.7629e-05
2.70927e-05
2.71764e-05
2.72566e-05
2.73335e-05
2.74071e-05
2.74772e-05
2.69279e-05
2.70134e-05
2.70954e-05
2.71741e-05
2.72494e-05
2.67594e-05
2.68466e-05
2.69303e-05
2.70107e-05
2.65873e-05
2.66761e-05
2.67615e-05
2.68435e-05
2.64117e-05
2.65021e-05
2.65891e-05
2.62327e-05
2.63246e-05
2.64131e-05
2.60504e-05
2.61438e-05
2.62337e-05
2.58651e-05
2.59598e-05
2.60511e-05
2.56766e-05
2.57727e-05
2.58653e-05
2.54852e-05
2.55826e-05
2.56764e-05
2.5291e-05
2.53895e-05
2.54846e-05
2.5094e-05
2.51937e-05
2.52899e-05
2.48944e-05
2.49952e-05
2.50924e-05
2.46923e-05
2.4794e-05
2.48923e-05
2.44877e-05
2.45904e-05
2.46896e-05
2.42808e-05
2.43844e-05
2.44845e-05
2.40716e-05
2.41761e-05
2.4277e-05
2.38603e-05
2.39655e-05
2.40673e-05
2.96121e-05
2.95762e-05
2.95303e-05
2.94777e-05
2.9419e-05
2.93541e-05
2.92831e-05
2.92062e-05
2.91234e-05
2.90348e-05
2.89406e-05
2.88408e-05
2.87355e-05
2.8625e-05
2.85092e-05
2.83883e-05
2.82625e-05
2.81319e-05
2.79965e-05
2.78566e-05
2.77122e-05
2.75635e-05
2.74106e-05
2.72536e-05
2.70927e-05
2.69279e-05
2.67594e-05
2.65873e-05
2.64117e-05
2.62327e-05
2.60504e-05
2.58651e-05
2.56766e-05
2.54852e-05
2.5291e-05
2.5094e-05
2.48944e-05
2.46923e-05
2.44877e-05
2.42808e-05
2.40716e-05
2.38603e-05
2.96329e-05
2.95981e-05
2.95557e-05
2.95067e-05
2.94513e-05
2.93896e-05
2.93218e-05
2.9248e-05
2.91683e-05
2.90827e-05
2.89914e-05
2.88944e-05
2.87919e-05
2.86841e-05
2.85709e-05
2.84526e-05
2.83292e-05
2.8201e-05
2.80679e-05
2.79302e-05
2.7788e-05
2.76414e-05
2.74905e-05
2.73354e-05
2.71764e-05
2.70134e-05
2.68466e-05
2.66761e-05
2.65021e-05
2.63246e-05
2.61438e-05
2.59598e-05
2.57727e-05
2.55826e-05
2.53895e-05
2.51937e-05
2.49952e-05
2.4794e-05
2.45904e-05
2.43844e-05
2.41761e-05
2.39655e-05
2.96519e-05
2.96187e-05
2.95789e-05
2.9533e-05
2.94808e-05
2.94223e-05
2.93576e-05
2.92869e-05
2.92101e-05
2.91275e-05
2.9039e-05
2.89448e-05
2.88451e-05
2.87399e-05
2.86293e-05
2.85135e-05
2.83926e-05
2.82667e-05
2.81359e-05
2.80005e-05
2.78604e-05
2.77158e-05
2.75669e-05
2.74138e-05
2.72566e-05
2.70954e-05
2.69303e-05
2.67615e-05
2.6589e-05
2.64131e-05
2.62337e-05
2.60511e-05
2.58653e-05
2.56764e-05
2.54846e-05
2.52899e-05
2.50924e-05
2.48923e-05
2.46896e-05
2.44845e-05
2.4277e-05
2.40673e-05
2.96689e-05
2.96378e-05
2.96003e-05
2.95571e-05
2.95079e-05
2.94524e-05
2.93908e-05
2.9323e-05
2.92492e-05
2.91694e-05
2.90838e-05
2.89924e-05
2.88953e-05
2.87927e-05
2.86847e-05
2.85714e-05
2.84528e-05
2.83293e-05
2.82008e-05
2.80675e-05
2.79296e-05
2.77871e-05
2.76401e-05
2.74889e-05
2.73335e-05
2.71741e-05
2.70107e-05
2.68435e-05
2.66726e-05
2.64982e-05
2.63202e-05
2.6139e-05
2.59545e-05
2.57668e-05
2.55762e-05
2.53826e-05
2.51862e-05
2.49871e-05
2.47854e-05
2.45812e-05
2.43745e-05
2.41656e-05
2.96837e-05
2.96551e-05
2.962e-05
2.95794e-05
2.95328e-05
2.94803e-05
2.94215e-05
2.93566e-05
2.92856e-05
2.92087e-05
2.91258e-05
2.9037e-05
2.89426e-05
2.88426e-05
2.8737e-05
2.86261e-05
2.851e-05
2.83887e-05
2.82625e-05
2.81313e-05
2.79955e-05
2.7855e-05
2.771e-05
2.75606e-05
2.7407e-05
2.72493e-05
2.70876e-05
2.6922e-05
2.67527e-05
2.65797e-05
2.64032e-05
2.62233e-05
2.60401e-05
2.58537e-05
2.56642e-05
2.54717e-05
2.52764e-05
2.50783e-05
2.48775e-05
2.46742e-05
2.44684e-05
2.42602e-05
2.96967e-05
2.96705e-05
2.96379e-05
2.95997e-05
2.95558e-05
2.95059e-05
2.94499e-05
2.93877e-05
2.93195e-05
2.92452e-05
2.9165e-05
2.90789e-05
2.89871e-05
2.88895e-05
2.87864e-05
2.86779e-05
2.85641e-05
2.8445e-05
2.8321e-05
2.81919e-05
2.80581e-05
2.79196e-05
2.77765e-05
2.7629e-05
2.74772e-05
2.73212e-05
2.71611e-05
2.69971e-05
2.68293e-05
2.66577e-05
2.64826e-05
2.6304e-05
2.61221e-05
2.59369e-05
2.57486e-05
2.55572e-05
2.53629e-05
2.51658e-05
2.4966e-05
2.47635e-05
2.45585e-05
2.43511e-05
2.9708e-05
2.96842e-05
2.9654e-05
2.96182e-05
2.95768e-05
2.95294e-05
2.9476e-05
2.94165e-05
2.93509e-05
2.92793e-05
2.92016e-05
2.91181e-05
2.90287e-05
2.89336e-05
2.88329e-05
2.87267e-05
2.86151e-05
2.84982e-05
2.83763e-05
2.82493e-05
2.81174e-05
2.79808e-05
2.78396e-05
2.76939e-05
2.75438e-05
2.73895e-05
2.7231e-05
2.70685e-05
2.69022e-05
2.67321e-05
2.65583e-05
2.6381e-05
2.62003e-05
2.60163e-05
2.58291e-05
2.56388e-05
2.54455e-05
2.52494e-05
2.50505e-05
2.48489e-05
2.46448e-05
2.44381e-05
2.97176e-05
2.96961e-05
2.96683e-05
2.9635e-05
2.95959e-05
2.9551e-05
2.95001e-05
2.94431e-05
2.938e-05
2.93109e-05
2.92357e-05
2.91546e-05
2.90676e-05
2.89748e-05
2.88764e-05
2.87724e-05
2.8663e-05
2.85483e-05
2.84284e-05
2.83034e-05
2.81735e-05
2.80388e-05
2.78993e-05
2.77554e-05
2.76069e-05
2.74542e-05
2.72973e-05
2.71363e-05
2.69714e-05
2.68027e-05
2.66303e-05
2.64542e-05
2.62747e-05
2.60919e-05
2.59058e-05
2.57166e-05
2.55243e-05
2.53291e-05
2.51311e-05
2.49303e-05
2.4727e-05
2.45211e-05
2.97258e-05
2.97065e-05
2.96811e-05
2.965e-05
2.96132e-05
2.95706e-05
2.95221e-05
2.94675e-05
2.94068e-05
2.93401e-05
2.92673e-05
2.91885e-05
2.91038e-05
2.90133e-05
2.89171e-05
2.88153e-05
2.8708e-05
2.85953e-05
2.84774e-05
2.83543e-05
2.82262e-05
2.80933e-05
2.79556e-05
2.78134e-05
2.76666e-05
2.75154e-05
2.736e-05
2.72005e-05
2.7037e-05
2.68696e-05
2.66984e-05
2.65236e-05
2.63453e-05
2.61636e-05
2.59785e-05
2.57903e-05
2.5599e-05
2.54047e-05
2.52076e-05
2.50077e-05
2.48051e-05
2.45999e-05
2.97327e-05
2.97155e-05
2.96922e-05
2.96634e-05
2.96288e-05
2.95885e-05
2.95422e-05
2.94899e-05
2.94315e-05
2.9367e-05
2.92965e-05
2.92199e-05
2.91374e-05
2.90491e-05
2.8955e-05
2.88552e-05
2.87499e-05
2.86392e-05
2.85232e-05
2.8402e-05
2.82757e-05
2.81445e-05
2.80085e-05
2.78678e-05
2.77226e-05
2.7573e-05
2.7419e-05
2.72609e-05
2.70987e-05
2.69326e-05
2.67627e-05
2.65891e-05
2.64119e-05
2.62312e-05
2.60472e-05
2.586e-05
2.56696e-05
2.54762e-05
2.52799e-05
2.50808e-05
2.4879e-05
2.46746e-05
2.97385e-05
2.97232e-05
2.9702e-05
2.96753e-05
2.96428e-05
2.96046e-05
2.95605e-05
2.95103e-05
2.94541e-05
2.93917e-05
2.93233e-05
2.92489e-05
2.91685e-05
2.90822e-05
2.89902e-05
2.88924e-05
2.8789e-05
2.86801e-05
2.85659e-05
2.84465e-05
2.83219e-05
2.81924e-05
2.8058e-05
2.79188e-05
2.77751e-05
2.76269e-05
2.74743e-05
2.73175e-05
2.71567e-05
2.69918e-05
2.6823e-05
2.66506e-05
2.64745e-05
2.62948e-05
2.61118e-05
2.59256e-05
2.57361e-05
2.55436e-05
2.53481e-05
2.51497e-05
2.49486e-05
2.47449e-05
2.97432e-05
2.97297e-05
2.97105e-05
2.96857e-05
2.96553e-05
2.96191e-05
2.9577e-05
2.95289e-05
2.94747e-05
2.94144e-05
2.9348e-05
2.92755e-05
2.91971e-05
2.91128e-05
2.90226e-05
2.89267e-05
2.88251e-05
2.8718e-05
2.86056e-05
2.84878e-05
2.83648e-05
2.82369e-05
2.8104e-05
2.79663e-05
2.7824e-05
2.76772e-05
2.7526e-05
2.73705e-05
2.72108e-05
2.70471e-05
2.68795e-05
2.67081e-05
2.6533e-05
2.63544e-05
2.61723e-05
2.59869e-05
2.57983e-05
2.56066e-05
2.54119e-05
2.52142e-05
2.50138e-05
2.48107e-05
2.4605e-05
2.97471e-05
2.97352e-05
2.97178e-05
2.96949e-05
2.96663e-05
2.9632e-05
2.95918e-05
2.95456e-05
2.94933e-05
2.94349e-05
2.93704e-05
2.92999e-05
2.92233e-05
2.91408e-05
2.90524e-05
2.89583e-05
2.88584e-05
2.8753e-05
2.86421e-05
2.85259e-05
2.84045e-05
2.82781e-05
2.81466e-05
2.80104e-05
2.78694e-05
2.77239e-05
2.75739e-05
2.74196e-05
2.72611e-05
2.70985e-05
2.69319e-05
2.67616e-05
2.65875e-05
2.64098e-05
2.62286e-05
2.60441e-05
2.58563e-05
2.56653e-05
2.54713e-05
2.52744e-05
2.50746e-05
2.48722e-05
2.46671e-05
2.44594e-05
2.97501e-05
2.97398e-05
2.9724e-05
2.97029e-05
2.96761e-05
2.96435e-05
2.96051e-05
2.95606e-05
2.95101e-05
2.94535e-05
2.93908e-05
2.9322e-05
2.92472e-05
2.91664e-05
2.90797e-05
2.89871e-05
2.88889e-05
2.87851e-05
2.86757e-05
2.8561e-05
2.8441e-05
2.8316e-05
2.81859e-05
2.80509e-05
2.79112e-05
2.77669e-05
2.76181e-05
2.74649e-05
2.73075e-05
2.71459e-05
2.69804e-05
2.6811e-05
2.66378e-05
2.6461e-05
2.62807e-05
2.60969e-05
2.59099e-05
2.57197e-05
2.55264e-05
2.53301e-05
2.5131e-05
2.49291e-05
2.47245e-05
2.45174e-05
2.97525e-05
2.97436e-05
2.97293e-05
2.97097e-05
2.96846e-05
2.96536e-05
2.96168e-05
2.95741e-05
2.95252e-05
2.94703e-05
2.94092e-05
2.9342e-05
2.92688e-05
2.91896e-05
2.91044e-05
2.90134e-05
2.89166e-05
2.88142e-05
2.87063e-05
2.8593e-05
2.84744e-05
2.83506e-05
2.82217e-05
2.8088e-05
2.79495e-05
2.78063e-05
2.76586e-05
2.75064e-05
2.735e-05
2.71894e-05
2.70248e-05
2.68563e-05
2.6684e-05
2.6508e-05
2.63285e-05
2.61455e-05
2.59591e-05
2.57696e-05
2.55769e-05
2.53813e-05
2.51827e-05
2.49814e-05
2.47773e-05
2.45707e-05
2.43616e-05
2.97544e-05
2.97467e-05
2.97338e-05
2.97156e-05
2.96919e-05
2.96625e-05
2.96272e-05
2.9586e-05
2.95386e-05
2.94852e-05
2.94256e-05
2.93599e-05
2.92882e-05
2.92104e-05
2.91267e-05
2.90371e-05
2.89417e-05
2.88406e-05
2.8734e-05
2.86219e-05
2.85045e-05
2.83819e-05
2.82543e-05
2.81216e-05
2.79842e-05
2.7842e-05
2.76953e-05
2.75441e-05
2.73887e-05
2.7229e-05
2.70652e-05
2.68975e-05
2.6726e-05
2.65508e-05
2.6372e-05
2.61897e-05
2.6004e-05
2.58151e-05
2.5623e-05
2.54279e-05
2.52299e-05
2.50291e-05
2.48255e-05
2.46193e-05
2.44106e-05
2.97557e-05
2.97492e-05
2.97375e-05
2.97206e-05
2.96983e-05
2.96702e-05
2.96363e-05
2.95964e-05
2.95504e-05
2.94984e-05
2.94402e-05
2.93759e-05
2.93054e-05
2.9229e-05
2.91465e-05
2.90582e-05
2.89641e-05
2.88642e-05
2.87588e-05
2.86479e-05
2.85316e-05
2.84101e-05
2.82835e-05
2.81518e-05
2.80154e-05
2.78742e-05
2.77284e-05
2.75781e-05
2.74234e-05
2.72646e-05
2.71016e-05
2.69347e-05
2.67639e-05
2.65893e-05
2.64112e-05
2.62295e-05
2.60444e-05
2.58561e-05
2.56646e-05
2.547e-05
2.52725e-05
2.50721e-05
2.4869e-05
2.46632e-05
2.44549e-05
2.42441e-05
2.97567e-05
2.97511e-05
2.97406e-05
2.97248e-05
2.97036e-05
2.96768e-05
2.96441e-05
2.96054e-05
2.95607e-05
2.95099e-05
2.94529e-05
2.93898e-05
2.93206e-05
2.92453e-05
2.9164e-05
2.90768e-05
2.89838e-05
2.88851e-05
2.87807e-05
2.86708e-05
2.85555e-05
2.8435e-05
2.83093e-05
2.81786e-05
2.8043e-05
2.79027e-05
2.77577e-05
2.76082e-05
2.74543e-05
2.72962e-05
2.71339e-05
2.69677e-05
2.67975e-05
2.66236e-05
2.64461e-05
2.62649e-05
2.60804e-05
2.58926e-05
2.57016e-05
2.55075e-05
2.53104e-05
2.51104e-05
2.49077e-05
2.47023e-05
2.44943e-05
2.42839e-05
2.40711e-05
2.97574e-05
2.97527e-05
2.97431e-05
2.97283e-05
2.97082e-05
2.96824e-05
2.96508e-05
2.96132e-05
2.95696e-05
2.95198e-05
2.94639e-05
2.94019e-05
2.93337e-05
2.92595e-05
2.91792e-05
2.90931e-05
2.9001e-05
2.89032e-05
2.87998e-05
2.86908e-05
2.85764e-05
2.84568e-05
2.83319e-05
2.8202e-05
2.80672e-05
2.79276e-05
2.77833e-05
2.76345e-05
2.74814e-05
2.73239e-05
2.71623e-05
2.69966e-05
2.6827e-05
2.66536e-05
2.64766e-05
2.6296e-05
2.61119e-05
2.59246e-05
2.5734e-05
2.55403e-05
2.53436e-05
2.5144e-05
2.49416e-05
2.47366e-05
2.45289e-05
2.43188e-05
2.41062e-05
2.97579e-05
2.97539e-05
2.97451e-05
2.97312e-05
2.97119e-05
2.96871e-05
2.96564e-05
2.96197e-05
2.9577e-05
2.95282e-05
2.94733e-05
2.94121e-05
2.93449e-05
2.92716e-05
2.91922e-05
2.91069e-05
2.90157e-05
2.89187e-05
2.88161e-05
2.87079e-05
2.85943e-05
2.84753e-05
2.83512e-05
2.8222e-05
2.80879e-05
2.79489e-05
2.78053e-05
2.76571e-05
2.75045e-05
2.73476e-05
2.71865e-05
2.70214e-05
2.68523e-05
2.66794e-05
2.65028e-05
2.63226e-05
2.6139e-05
2.5952e-05
2.57618e-05
2.55685e-05
2.53721e-05
2.51728e-05
2.49708e-05
2.4766e-05
2.45586e-05
2.43487e-05
2.41364e-05
2.97582e-05
2.97548e-05
2.97467e-05
2.97335e-05
2.9715e-05
2.96908e-05
2.96609e-05
2.96251e-05
2.95831e-05
2.95351e-05
2.94809e-05
2.94206e-05
2.93541e-05
2.92815e-05
2.92029e-05
2.91183e-05
2.90278e-05
2.89316e-05
2.88296e-05
2.87221e-05
2.86091e-05
2.84908e-05
2.83673e-05
2.82387e-05
2.81051e-05
2.79667e-05
2.78236e-05
2.76759e-05
2.75238e-05
2.73673e-05
2.72067e-05
2.7042e-05
2.68733e-05
2.67008e-05
2.65246e-05
2.63448e-05
2.61615e-05
2.59749e-05
2.5785e-05
2.5592e-05
2.53959e-05
2.51969e-05
2.49951e-05
2.47905e-05
2.45834e-05
2.43737e-05
2.41616e-05
2.97583e-05
2.97554e-05
2.97478e-05
2.97353e-05
2.97173e-05
2.96938e-05
2.96645e-05
2.96293e-05
2.9588e-05
2.95406e-05
2.9487e-05
2.94273e-05
2.93614e-05
2.92895e-05
2.92114e-05
2.91274e-05
2.90375e-05
2.89418e-05
2.88404e-05
2.87334e-05
2.86209e-05
2.85031e-05
2.83801e-05
2.82519e-05
2.81188e-05
2.79809e-05
2.78382e-05
2.76909e-05
2.75392e-05
2.73831e-05
2.72228e-05
2.70585e-05
2.68901e-05
2.6718e-05
2.65421e-05
2.63626e-05
2.61796e-05
2.59932e-05
2.58035e-05
2.56107e-05
2.54149e-05
2.52161e-05
2.50145e-05
2.48102e-05
2.46032e-05
2.43937e-05
2.41818e-05
2.39675e-05
2.97584e-05
2.97559e-05
2.97487e-05
2.97365e-05
2.97191e-05
2.9696e-05
2.96672e-05
2.96324e-05
2.95916e-05
2.95447e-05
2.94916e-05
2.94323e-05
2.93669e-05
2.92954e-05
2.92178e-05
2.91342e-05
2.90448e-05
2.89495e-05
2.88485e-05
2.87419e-05
2.86298e-05
2.85124e-05
2.83897e-05
2.82619e-05
2.81291e-05
2.79915e-05
2.78491e-05
2.77022e-05
2.75507e-05
2.7395e-05
2.7235e-05
2.70709e-05
2.69028e-05
2.67308e-05
2.65552e-05
2.63759e-05
2.61931e-05
2.60069e-05
2.58175e-05
2.56249e-05
2.54292e-05
2.52306e-05
2.50291e-05
2.48249e-05
2.46181e-05
2.44087e-05
2.41969e-05
2.39827e-05
2.97585e-05
2.97562e-05
2.97493e-05
2.97374e-05
2.97202e-05
2.96974e-05
2.96689e-05
2.96345e-05
2.9594e-05
2.95474e-05
2.94946e-05
2.94356e-05
2.93706e-05
2.92993e-05
2.9222e-05
2.91388e-05
2.90496e-05
2.89546e-05
2.88538e-05
2.87475e-05
2.86357e-05
2.85185e-05
2.83961e-05
2.82685e-05
2.8136e-05
2.79986e-05
2.78564e-05
2.77097e-05
2.75584e-05
2.74028e-05
2.7243e-05
2.70791e-05
2.69112e-05
2.67394e-05
2.65639e-05
2.63848e-05
2.62021e-05
2.60161e-05
2.58267e-05
2.56342e-05
2.54387e-05
2.52402e-05
2.50388e-05
2.48347e-05
2.4628e-05
2.44187e-05
2.42069e-05
2.39929e-05
2.37765e-05
2.97585e-05
2.97563e-05
2.97495e-05
2.97378e-05
2.97207e-05
2.96982e-05
2.96698e-05
2.96355e-05
2.95952e-05
2.95487e-05
2.94961e-05
2.94373e-05
2.93724e-05
2.93013e-05
2.92242e-05
2.9141e-05
2.9052e-05
2.89571e-05
2.88565e-05
2.87503e-05
2.86386e-05
2.85216e-05
2.83993e-05
2.82718e-05
2.81394e-05
2.80021e-05
2.78601e-05
2.77134e-05
2.75623e-05
2.74068e-05
2.7247e-05
2.70832e-05
2.69154e-05
2.67437e-05
2.65682e-05
2.63892e-05
2.62066e-05
2.60206e-05
2.58314e-05
2.56389e-05
2.54434e-05
2.5245e-05
2.50437e-05
2.48396e-05
2.46329e-05
2.44237e-05
2.4212e-05
2.39979e-05
2.37816e-05
2.97585e-05
2.97563e-05
2.97495e-05
2.97378e-05
2.97207e-05
2.96981e-05
2.96698e-05
2.96355e-05
2.95952e-05
2.95487e-05
2.94961e-05
2.94373e-05
2.93724e-05
2.93013e-05
2.92241e-05
2.9141e-05
2.9052e-05
2.89571e-05
2.88565e-05
2.87503e-05
2.86386e-05
2.85216e-05
2.83993e-05
2.82718e-05
2.81394e-05
2.80021e-05
2.786e-05
2.77134e-05
2.75622e-05
2.74067e-05
2.7247e-05
2.70832e-05
2.69153e-05
2.67437e-05
2.65682e-05
2.63892e-05
2.62066e-05
2.60206e-05
2.58314e-05
2.56389e-05
2.54434e-05
2.5245e-05
2.50437e-05
2.48396e-05
2.46329e-05
2.44237e-05
2.4212e-05
2.39979e-05
2.37816e-05
2.35631e-05
2.97585e-05
2.97562e-05
2.97492e-05
2.97374e-05
2.97202e-05
2.96974e-05
2.96689e-05
2.96345e-05
2.9594e-05
2.95474e-05
2.94946e-05
2.94356e-05
2.93705e-05
2.92993e-05
2.9222e-05
2.91387e-05
2.90496e-05
2.89545e-05
2.88538e-05
2.87475e-05
2.86357e-05
2.85185e-05
2.8396e-05
2.82685e-05
2.81359e-05
2.79985e-05
2.78564e-05
2.77096e-05
2.75584e-05
2.74028e-05
2.7243e-05
2.7079e-05
2.69111e-05
2.67394e-05
2.65638e-05
2.63847e-05
2.62021e-05
2.6016e-05
2.58267e-05
2.56342e-05
2.54387e-05
2.52402e-05
2.50388e-05
2.48347e-05
2.46279e-05
2.44186e-05
2.42069e-05
2.39928e-05
2.37765e-05
2.3558e-05
2.97584e-05
2.97559e-05
2.97487e-05
2.97365e-05
2.97191e-05
2.9696e-05
2.96672e-05
2.96324e-05
2.95916e-05
2.95447e-05
2.94916e-05
2.94323e-05
2.93669e-05
2.92954e-05
2.92178e-05
2.91342e-05
2.90447e-05
2.89494e-05
2.88484e-05
2.87418e-05
2.86297e-05
2.85123e-05
2.83896e-05
2.82618e-05
2.81291e-05
2.79914e-05
2.7849e-05
2.77021e-05
2.75506e-05
2.73948e-05
2.72348e-05
2.70707e-05
2.69027e-05
2.67307e-05
2.65551e-05
2.63758e-05
2.6193e-05
2.60068e-05
2.58174e-05
2.56248e-05
2.54291e-05
2.52305e-05
2.5029e-05
2.48248e-05
2.4618e-05
2.44086e-05
2.41968e-05
2.39826e-05
2.37662e-05
2.35477e-05
2.97583e-05
2.97554e-05
2.97478e-05
2.97353e-05
2.97173e-05
2.96938e-05
2.96645e-05
2.96293e-05
2.9588e-05
2.95406e-05
2.9487e-05
2.94273e-05
2.93614e-05
2.92894e-05
2.92114e-05
2.91274e-05
2.90375e-05
2.89417e-05
2.88403e-05
2.87333e-05
2.86209e-05
2.8503e-05
2.838e-05
2.82518e-05
2.81187e-05
2.79807e-05
2.78381e-05
2.76908e-05
2.75391e-05
2.7383e-05
2.72227e-05
2.70583e-05
2.689e-05
2.67179e-05
2.6542e-05
2.63625e-05
2.61795e-05
2.59931e-05
2.58034e-05
2.56106e-05
2.54148e-05
2.5216e-05
2.50144e-05
2.48101e-05
2.46031e-05
2.43936e-05
2.41817e-05
2.39674e-05
2.37509e-05
2.35322e-05
2.97582e-05
2.97548e-05
2.97466e-05
2.97335e-05
2.9715e-05
2.96909e-05
2.96609e-05
2.96251e-05
2.95831e-05
2.95351e-05
2.94809e-05
2.94206e-05
2.93541e-05
2.92815e-05
2.92029e-05
2.91183e-05
2.90278e-05
2.89315e-05
2.88295e-05
2.8722e-05
2.8609e-05
2.84907e-05
2.83671e-05
2.82385e-05
2.81049e-05
2.79665e-05
2.78234e-05
2.76757e-05
2.75236e-05
2.73672e-05
2.72065e-05
2.70418e-05
2.68731e-05
2.67007e-05
2.65245e-05
2.63447e-05
2.61614e-05
2.59747e-05
2.57848e-05
2.55918e-05
2.53957e-05
2.51968e-05
2.49949e-05
2.47904e-05
2.45833e-05
2.43736e-05
2.41615e-05
2.39471e-05
2.37304e-05
2.35116e-05
2.97579e-05
2.97539e-05
2.97451e-05
2.97312e-05
2.97119e-05
2.96871e-05
2.96564e-05
2.96197e-05
2.9577e-05
2.95282e-05
2.94732e-05
2.94121e-05
2.93448e-05
2.92715e-05
2.91921e-05
2.91068e-05
2.90156e-05
2.89186e-05
2.8816e-05
2.87078e-05
2.85941e-05
2.84752e-05
2.8351e-05
2.82218e-05
2.80877e-05
2.79487e-05
2.78051e-05
2.76569e-05
2.75043e-05
2.73474e-05
2.71863e-05
2.70211e-05
2.68521e-05
2.66792e-05
2.65026e-05
2.63224e-05
2.61388e-05
2.59518e-05
2.57616e-05
2.55683e-05
2.53719e-05
2.51727e-05
2.49706e-05
2.47658e-05
2.45585e-05
2.43486e-05
2.41363e-05
2.39217e-05
2.37049e-05
2.34859e-05
2.97574e-05
2.97527e-05
2.97431e-05
2.97283e-05
2.97082e-05
2.96824e-05
2.96508e-05
2.96132e-05
2.95695e-05
2.95198e-05
2.94639e-05
2.94018e-05
2.93337e-05
2.92594e-05
2.91792e-05
2.9093e-05
2.90009e-05
2.89031e-05
2.87996e-05
2.86907e-05
2.85763e-05
2.84566e-05
2.83317e-05
2.82018e-05
2.8067e-05
2.79274e-05
2.77831e-05
2.76343e-05
2.74811e-05
2.73237e-05
2.7162e-05
2.69964e-05
2.68268e-05
2.66534e-05
2.64764e-05
2.62958e-05
2.61117e-05
2.59244e-05
2.57338e-05
2.55401e-05
2.53434e-05
2.51439e-05
2.49415e-05
2.47364e-05
2.45288e-05
2.43186e-05
2.41061e-05
2.38913e-05
2.36743e-05
2.34552e-05
2.97567e-05
2.97511e-05
2.97406e-05
2.97248e-05
2.97036e-05
2.96768e-05
2.96441e-05
2.96054e-05
2.95607e-05
2.95098e-05
2.94529e-05
2.93898e-05
2.93205e-05
2.92452e-05
2.9164e-05
2.90767e-05
2.89837e-05
2.88849e-05
2.87805e-05
2.86706e-05
2.85554e-05
2.84348e-05
2.83091e-05
2.81784e-05
2.80428e-05
2.79025e-05
2.77575e-05
2.7608e-05
2.74541e-05
2.7296e-05
2.71337e-05
2.69674e-05
2.67973e-05
2.66234e-05
2.64458e-05
2.62647e-05
2.60802e-05
2.58924e-05
2.57014e-05
2.55073e-05
2.53102e-05
2.51102e-05
2.49075e-05
2.47021e-05
2.44942e-05
2.42838e-05
2.4071e-05
2.38559e-05
2.36387e-05
2.34193e-05
2.97557e-05
2.97492e-05
2.97375e-05
2.97206e-05
2.96982e-05
2.96702e-05
2.96362e-05
2.95963e-05
2.95504e-05
2.94983e-05
2.94401e-05
2.93758e-05
2.93053e-05
2.92289e-05
2.91464e-05
2.90581e-05
2.89639e-05
2.88641e-05
2.87586e-05
2.86477e-05
2.85314e-05
2.84099e-05
2.82832e-05
2.81516e-05
2.80151e-05
2.78739e-05
2.77281e-05
2.75778e-05
2.74232e-05
2.72643e-05
2.71014e-05
2.69344e-05
2.67636e-05
2.65891e-05
2.64109e-05
2.62293e-05
2.60442e-05
2.58559e-05
2.56644e-05
2.54698e-05
2.52723e-05
2.50719e-05
2.48688e-05
2.46631e-05
2.44547e-05
2.4244e-05
2.40309e-05
2.38155e-05
2.3598e-05
2.33784e-05
2.97544e-05
2.97467e-05
2.97338e-05
2.97156e-05
2.96919e-05
2.96625e-05
2.96272e-05
2.95859e-05
2.95386e-05
2.94851e-05
2.94255e-05
2.93599e-05
2.92881e-05
2.92103e-05
2.91266e-05
2.90369e-05
2.89415e-05
2.88405e-05
2.87338e-05
2.86218e-05
2.85043e-05
2.83817e-05
2.8254e-05
2.81214e-05
2.7984e-05
2.78418e-05
2.76951e-05
2.75439e-05
2.73884e-05
2.72287e-05
2.7065e-05
2.68973e-05
2.67258e-05
2.65505e-05
2.63717e-05
2.61894e-05
2.60038e-05
2.58149e-05
2.56228e-05
2.54277e-05
2.52297e-05
2.50289e-05
2.48253e-05
2.46192e-05
2.44105e-05
2.41994e-05
2.39859e-05
2.37703e-05
2.35525e-05
2.33326e-05
2.97525e-05
2.97436e-05
2.97293e-05
2.97097e-05
2.96845e-05
2.96536e-05
2.96168e-05
2.9574e-05
2.95252e-05
2.94702e-05
2.94091e-05
2.93419e-05
2.92687e-05
2.91894e-05
2.91043e-05
2.90132e-05
2.89165e-05
2.88141e-05
2.87061e-05
2.85928e-05
2.84742e-05
2.83504e-05
2.82215e-05
2.80878e-05
2.79492e-05
2.7806e-05
2.76583e-05
2.75062e-05
2.73497e-05
2.71892e-05
2.70246e-05
2.6856e-05
2.66837e-05
2.65077e-05
2.63282e-05
2.61452e-05
2.59589e-05
2.57694e-05
2.55767e-05
2.53811e-05
2.51825e-05
2.49812e-05
2.47772e-05
2.45706e-05
2.43615e-05
2.41499e-05
2.39361e-05
2.37201e-05
2.3502e-05
2.32819e-05
2.97501e-05
2.97398e-05
2.9724e-05
2.97028e-05
2.9676e-05
2.96435e-05
2.9605e-05
2.95606e-05
2.95101e-05
2.94534e-05
2.93907e-05
2.93219e-05
2.92471e-05
2.91663e-05
2.90795e-05
2.8987e-05
2.88887e-05
2.87849e-05
2.86755e-05
2.85608e-05
2.84409e-05
2.83158e-05
2.81857e-05
2.80507e-05
2.7911e-05
2.77667e-05
2.76178e-05
2.74646e-05
2.73072e-05
2.71456e-05
2.69801e-05
2.68107e-05
2.66375e-05
2.64607e-05
2.62804e-05
2.60967e-05
2.59097e-05
2.57194e-05
2.55262e-05
2.53299e-05
2.51308e-05
2.49289e-05
2.47243e-05
2.45172e-05
2.43077e-05
2.40958e-05
2.38816e-05
2.36652e-05
2.34467e-05
2.32263e-05
2.9747e-05
2.97352e-05
2.97177e-05
2.96948e-05
2.96663e-05
2.9632e-05
2.95917e-05
2.95455e-05
2.94932e-05
2.94348e-05
2.93703e-05
2.92998e-05
2.92232e-05
2.91407e-05
2.90523e-05
2.89581e-05
2.88582e-05
2.87528e-05
2.8642e-05
2.85258e-05
2.84044e-05
2.82779e-05
2.81464e-05
2.80101e-05
2.78692e-05
2.77236e-05
2.75736e-05
2.74193e-05
2.72608e-05
2.70982e-05
2.69316e-05
2.67613e-05
2.65872e-05
2.64095e-05
2.62284e-05
2.60438e-05
2.5856e-05
2.56651e-05
2.54711e-05
2.52742e-05
2.50745e-05
2.4872e-05
2.46669e-05
2.44593e-05
2.42492e-05
2.40368e-05
2.38222e-05
2.36055e-05
2.33866e-05
2.31659e-05
2.97432e-05
2.97297e-05
2.97104e-05
2.96857e-05
2.96552e-05
2.9619e-05
2.95769e-05
2.95288e-05
2.94745e-05
2.94142e-05
2.93479e-05
2.92754e-05
2.9197e-05
2.91126e-05
2.90224e-05
2.89265e-05
2.88249e-05
2.87179e-05
2.86054e-05
2.84876e-05
2.83647e-05
2.82367e-05
2.81038e-05
2.79661e-05
2.78238e-05
2.7677e-05
2.75257e-05
2.73702e-05
2.72105e-05
2.70468e-05
2.68792e-05
2.67078e-05
2.65327e-05
2.63541e-05
2.61721e-05
2.59867e-05
2.57981e-05
2.56064e-05
2.54117e-05
2.52141e-05
2.50137e-05
2.48106e-05
2.46049e-05
2.43967e-05
2.41862e-05
2.39733e-05
2.37582e-05
2.35411e-05
2.33219e-05
2.31007e-05
2.97385e-05
2.97232e-05
2.9702e-05
2.96752e-05
2.96428e-05
2.96045e-05
2.95604e-05
2.95102e-05
2.9454e-05
2.93916e-05
2.93232e-05
2.92488e-05
2.91684e-05
2.90821e-05
2.899e-05
2.88922e-05
2.87888e-05
2.86799e-05
2.85657e-05
2.84463e-05
2.83217e-05
2.81922e-05
2.80578e-05
2.79186e-05
2.77749e-05
2.76267e-05
2.74741e-05
2.73173e-05
2.71564e-05
2.69915e-05
2.68228e-05
2.66503e-05
2.64742e-05
2.62946e-05
2.61116e-05
2.59253e-05
2.57359e-05
2.55433e-05
2.53479e-05
2.51495e-05
2.49484e-05
2.47447e-05
2.45384e-05
2.43296e-05
2.41185e-05
2.39052e-05
2.36897e-05
2.3472e-05
2.32524e-05
2.3031e-05
2.97327e-05
2.97155e-05
2.96922e-05
2.96633e-05
2.96288e-05
2.95884e-05
2.95421e-05
2.94898e-05
2.94314e-05
2.93669e-05
2.92963e-05
2.92198e-05
2.91373e-05
2.90489e-05
2.89548e-05
2.88551e-05
2.87498e-05
2.8639e-05
2.8523e-05
2.84018e-05
2.82755e-05
2.81443e-05
2.80083e-05
2.78676e-05
2.77224e-05
2.75727e-05
2.74188e-05
2.72606e-05
2.70985e-05
2.69324e-05
2.67624e-05
2.65888e-05
2.64116e-05
2.6231e-05
2.6047e-05
2.58598e-05
2.56694e-05
2.54761e-05
2.52798e-05
2.50807e-05
2.48788e-05
2.46744e-05
2.44675e-05
2.42581e-05
2.40465e-05
2.38326e-05
2.36166e-05
2.33985e-05
2.31785e-05
2.29566e-05
2.97258e-05
2.97065e-05
2.9681e-05
2.96499e-05
2.96131e-05
2.95705e-05
2.9522e-05
2.94674e-05
2.94067e-05
2.934e-05
2.92672e-05
2.91884e-05
2.91037e-05
2.90132e-05
2.89169e-05
2.88151e-05
2.87078e-05
2.85951e-05
2.84772e-05
2.83541e-05
2.82261e-05
2.80931e-05
2.79554e-05
2.78131e-05
2.76663e-05
2.75152e-05
2.73598e-05
2.72002e-05
2.70367e-05
2.68693e-05
2.66982e-05
2.65234e-05
2.63451e-05
2.61633e-05
2.59783e-05
2.57901e-05
2.55988e-05
2.54046e-05
2.52074e-05
2.50075e-05
2.48049e-05
2.45998e-05
2.43922e-05
2.41822e-05
2.397e-05
2.37556e-05
2.3539e-05
2.33205e-05
2.31001e-05
2.28778e-05
2.97175e-05
2.9696e-05
2.96682e-05
2.96349e-05
2.95958e-05
2.95509e-05
2.95e-05
2.9443e-05
2.93799e-05
2.93107e-05
2.92356e-05
2.91544e-05
2.90674e-05