/*--------------------------------*- C++ -*----------------------------------*\
  =========                 |
  \\      /  F ield         | OpenFOAM: The Open Source CFD Toolbox
   \\    /   O peration     | Website:  https://openfoam.org
    \\  /    A nd           | Version:  7
     \\/     M anipulation  |
\*---------------------------------------------------------------------------*/
FoamFile
{
    version     2.0;
    format      ascii;
    class       volVectorField;
    location    "100000";
    object      vorticity;
}
// * * * * * * * * * * * * * * * * * * * * * * * * * * * * * * * * * * * * * //

dimensions      [0 0 -1 0 0 0 0];

internalField   nonuniform List<vector> 
4783
(
(-0.00136261 0.00299654 -3.04339e-17)
(-0.00252359 0.00190464 7.71129e-19)
(-0.00237966 0.0020146 1.63599e-17)
(-0.00223993 0.00207891 1.91829e-17)
(-0.00210322 0.00212075 8.12011e-18)
(-0.00197089 0.00214806 7.74701e-19)
(-0.0018426 0.00216534 -6.94103e-18)
(-0.00171796 0.00217514 -1.18144e-17)
(-0.00159672 0.00217908 -5.20276e-18)
(-0.00147874 0.00217827 8.54995e-18)
(-0.00136396 0.00217359 1.12271e-17)
(-0.00125232 0.00216578 5.57709e-18)
(-0.00114379 0.00215548 7.63765e-19)
(-0.00103834 0.0021433 1.6622e-18)
(-0.000935895 0.0021298 7.31138e-18)
(-0.00083638 0.0021155 1.06285e-17)
(-0.000739676 0.00210093 9.39715e-18)
(-0.000645634 0.00208655 4.81158e-18)
(-0.000554064 0.00207284 -3.91507e-18)
(-0.00046474 0.00206021 -1.13551e-17)
(-0.000377403 0.00204904 -1.46032e-17)
(-0.000291756 0.00203968 -1.52263e-17)
(-0.00145237 0.00375232 -4.16531e-18)
(-0.00254883 0.00258623 5.86829e-19)
(-0.00245606 0.00259192 -1.50196e-18)
(-0.0023424 0.00259327 -2.337e-18)
(-0.00221627 0.00258896 -2.15645e-18)
(-0.00208648 0.00257835 -2.5785e-19)
(-0.00195691 0.00256294 2.09067e-18)
(-0.00182915 0.00254426 7.26594e-19)
(-0.00170382 0.00252345 -2.11434e-19)
(-0.00158119 0.00250131 2.08181e-18)
(-0.00146137 0.00247839 4.44331e-18)
(-0.0013444 0.00245513 3.65162e-18)
(-0.00123029 0.0024319 4.64529e-18)
(-0.001119 0.002409 7.78412e-18)
(-0.00101051 0.00238674 8.10378e-18)
(-0.000904723 0.00236539 5.63116e-18)
(-0.000801534 0.00234522 5.80152e-18)
(-0.0007008 0.00232651 7.70082e-18)
(-0.000602341 0.0023095 -7.8517e-21)
(-0.000505943 0.00229442 -9.10551e-18)
(-0.000411363 0.0022815 -1.01636e-17)
(-0.000318329 0.00227092 -1.10089e-17)
(-0.00162164 0.00401763 -8.10203e-18)
(-0.00266968 0.00280509 -1.00885e-18)
(-0.00255475 0.00279159 -2.10191e-18)
(-0.00244325 0.00278094 -4.17417e-18)
(-0.00232287 0.00277323 -2.98919e-18)
(-0.00219656 0.00276407 2.06145e-20)
(-0.00206761 0.00275209 1.54771e-18)
(-0.00193829 0.00273738 2.14599e-18)
(-0.00180997 0.00272047 3.31978e-18)
(-0.00168339 0.00270196 2.90042e-18)
(-0.00155896 0.00268239 2.04874e-18)
(-0.00143689 0.00266223 1.98786e-18)
(-0.0013173 0.00264185 4.75279e-18)
(-0.00120023 0.0026216 7.10481e-18)
(-0.00108566 0.00260179 5.67655e-18)
(-0.000973545 0.00258272 9.87914e-19)
(-0.000863796 0.00256465 2.34415e-18)
(-0.000756288 0.00254784 5.79692e-18)
(-0.000650859 0.00253255 -1.82122e-18)
(-0.000547315 0.00251898 -1.08966e-17)
(-0.000445435 0.00250734 -1.06551e-17)
(-0.000344967 0.00249781 -9.30738e-18)
(-0.00179669 0.00419534 7.32842e-19)
(-0.00281641 0.00300053 -3.03938e-19)
(-0.00268039 0.00298066 -1.98976e-18)
(-0.00255704 0.00296288 -1.24685e-18)
(-0.00243252 0.0029509 -2.55248e-19)
(-0.00230499 0.00294104 1.63447e-18)
(-0.00217503 0.00293096 2.26979e-18)
(-0.00204393 0.00291959 3.03012e-18)
(-0.00191286 0.00290668 3.31602e-18)
(-0.00178269 0.00289236 1.61077e-18)
(-0.00165399 0.00287694 8.21322e-19)
(-0.00152713 0.00286077 5.14352e-19)
(-0.00140231 0.00284417 3.34564e-18)
(-0.00127965 0.00282747 4.67556e-18)
(-0.00115919 0.00281097 2.73978e-18)
(-0.00104092 0.00279495 -4.00009e-19)
(-0.000924761 0.00277967 -3.93446e-19)
(-0.000810626 0.00276538 1.76904e-18)
(-0.000698373 0.00275232 -3.67511e-18)
(-0.00058783 0.0027407 -1.11209e-17)
(-0.000478798 0.0027307 -1.03558e-17)
(-0.00037105 0.00272249 -7.41515e-18)
(-0.00196925 0.0043535 4.15695e-18)
(-0.00296762 0.00318175 1.06488e-18)
(-0.00281877 0.00316537 -2.02224e-18)
(-0.00268304 0.00314698 -2.3751e-18)
(-0.00254993 0.00313328 2.25213e-20)
(-0.00241698 0.00312264 3.15981e-18)
(-0.00228325 0.00311327 3.03008e-18)
(-0.00214885 0.00310392 3.73153e-18)
(-0.00201432 0.00309389 4.17526e-18)
(-0.00188029 0.00308293 1.21703e-18)
(-0.00174726 0.00307108 -7.96584e-19)
(-0.00161564 0.00305849 1.56802e-18)
(-0.00148567 0.0030454 4.91306e-18)
(-0.00135753 0.00303206 1.63161e-18)
(-0.00123127 0.00301873 -2.60991e-18)
(-0.00110694 0.00300566 -3.53888e-18)
(-0.000984492 0.0029931 -2.78515e-18)
(-0.00086385 0.00298128 -1.27359e-18)
(-0.000744901 0.00297041 -4.33858e-18)
(-0.000627494 0.00296069 -9.06275e-18)
(-0.000511453 0.00295231 -7.15526e-18)
(-0.000396575 0.0029454 -3.62867e-18)
(-0.0021391 0.00450397 -1.9295e-18)
(-0.00311799 0.00335419 3.86032e-19)
(-0.002961 0.00334378 -9.29269e-19)
(-0.00281553 0.00332881 -5.61268e-19)
(-0.00267356 0.00331649 1.73508e-19)
(-0.00253345 0.00330658 3.611e-18)
(-0.00239403 0.00329825 5.07585e-18)
(-0.00225482 0.00329057 4.98436e-18)
(-0.00211582 0.00328283 3.07115e-18)
(-0.00197732 0.00327463 -5.93785e-19)
(-0.00183963 0.0032658 -1.69303e-18)
(-0.00170308 0.00325636 2.51142e-18)
(-0.00156789 0.00324642 5.21596e-18)
(-0.00143424 0.00323615 -1.84639e-18)
(-0.00130222 0.00322576 -6.91118e-18)
(-0.00117188 0.00321545 -4.33483e-18)
(-0.00104321 0.00320545 -2.36552e-18)
(-0.000916144 0.00319596 -1.16153e-18)
(-0.000790594 0.00318717 -2.55934e-18)
(-0.000666432 0.00317927 -6.15222e-18)
(-0.0005435 0.00317242 -4.23535e-18)
(-0.000421618 0.00316676 -8.00282e-19)
(-0.00230676 0.00465037 -2.96824e-18)
(-0.0032667 0.00352147 2.46363e-18)
(-0.00310363 0.00351708 2.1509e-18)
(-0.00295051 0.00350703 2.12658e-18)
(-0.00280067 0.00349806 1.63572e-18)
(-0.00265325 0.00349047 3.3999e-18)
(-0.00250736 0.00348407 4.19975e-18)
(-0.0023624 0.00347836 3.29024e-18)
(-0.00221812 0.00347285 1.50068e-18)
(-0.00207451 0.00346715 -7.04007e-19)
(-0.00193174 0.00346104 -9.81753e-19)
(-0.00178997 0.00345443 3.26189e-18)
(-0.0016494 0.00344735 4.55049e-18)
(-0.00151015 0.00343991 -3.83862e-18)
(-0.00137234 0.00343224 -9.12592e-18)
(-0.001236 0.00342451 -4.02588e-18)
(-0.00110113 0.0034169 -1.03669e-18)
(-0.000967689 0.0034096 -1.54078e-18)
(-0.000835607 0.00340277 -1.812e-18)
(-0.00070477 0.00339659 -3.88033e-18)
(-0.00057504 0.00339119 -3.81846e-18)
(-0.000446257 0.0033867 -1.80406e-18)
(-0.00247269 0.00479439 6.06901e-18)
(-0.00341393 0.00368557 6.5308e-18)
(-0.00324561 0.0036868 6.70471e-18)
(-0.00308604 0.00368202 5.29691e-18)
(-0.0029293 0.0036773 3.13437e-18)
(-0.00277498 0.00367308 4.25809e-18)
(-0.00262252 0.00366944 5.61914e-18)
(-0.00247141 0.00366624 3.51238e-18)
(-0.00232134 0.00366319 1.60396e-18)
(-0.00217218 0.00366001 -4.12629e-19)
(-0.00202393 0.0036565 -2.29439e-18)
(-0.00187668 0.00365255 -4.85817e-19)
(-0.00173052 0.00364815 5.31713e-19)
(-0.00158556 0.00364333 -4.2001e-18)
(-0.00144188 0.00363821 -7.81255e-18)
(-0.0012995 0.00363289 -3.06286e-18)
(-0.00115843 0.00362754 9.68049e-19)
(-0.00101865 0.00362231 4.77169e-19)
(-0.000880077 0.00361734 -4.521e-19)
(-0.000742624 0.00361277 -3.01723e-18)
(-0.000606168 0.00360875 -4.58352e-18)
(-0.000470565 0.00360538 -4.25722e-18)
(-0.00263721 0.00493697 1.49631e-17)
(-0.00356001 0.00384759 1.11613e-17)
(-0.00338677 0.0038541 1.03574e-17)
(-0.00322138 0.00385451 7.5331e-18)
(-0.00305838 0.00385438 4.76088e-18)
(-0.00289762 0.00385406 4.65491e-18)
(-0.00273875 0.00385378 5.8996e-18)
(-0.00258142 0.00385354 4.00384e-18)
(-0.00242534 0.00385324 3.346e-18)
(-0.00227035 0.00385272 1.63224e-18)
(-0.00211636 0.00385184 -1.62618e-18)
(-0.00196339 0.0038505 -2.92055e-18)
(-0.00181147 0.00384867 -1.97896e-18)
(-0.00166067 0.00384637 -2.65472e-18)
(-0.00151102 0.00384366 -5.8431e-18)
(-0.00136256 0.00384065 -3.96753e-18)
(-0.00121528 0.00383744 1.88723e-20)
(-0.00106916 0.00383416 2.99302e-19)
(-0.00092412 0.00383095 -8.94033e-19)
(-0.000780092 0.00382793 -2.31326e-18)
(-0.000636963 0.00382521 -4.11099e-18)
(-0.000494604 0.00382291 -4.95909e-18)
(-0.0028006 0.00507869 1.16702e-17)
(-0.00370521 0.00400819 1.25764e-17)
(-0.00352718 0.00401971 1.24399e-17)
(-0.00335627 0.00402518 9.70758e-18)
(-0.00318742 0.00402968 7.10827e-18)
(-0.00302056 0.00403352 7.57117e-18)
(-0.0028555 0.00403692 7.45736e-18)
(-0.00269202 0.00403997 4.02533e-18)
(-0.00252987 0.00404269 3.7257e-18)
(-0.0023689 0.004045 2.34698e-18)
(-0.00220902 0.00404683 -2.22021e-18)
(-0.00205016 0.00404811 -6.59691e-18)
(-0.00189235 0.00404882 -4.97333e-18)
(-0.00173559 0.00404897 -1.98297e-18)
(-0.00157991 0.0040486 -4.84799e-18)
(-0.00142531 0.00404779 -5.86367e-18)
(-0.00127179 0.00404663 -8.5703e-19)
(-0.00111932 0.00404523 5.40009e-19)
(-0.00096783 0.0040437 -1.77099e-18)
(-0.000817254 0.00404215 -2.29782e-18)
(-0.000667491 0.00404069 -4.20714e-18)
(-0.000518426 0.0040394 -6.06076e-18)
(-0.00296306 0.00521991 7.1502e-18)
(-0.00384976 0.00416779 1.11283e-17)
(-0.00366698 0.00418416 1.14752e-17)
(-0.00349072 0.00419452 9.45004e-18)
(-0.00331623 0.00420362 8.09199e-18)
(-0.00314351 0.00421169 9.21427e-18)
(-0.00297245 0.00421894 7.53173e-18)
(-0.00280291 0.00422549 2.6821e-18)
(-0.00263471 0.00423141 1.69157e-18)
(-0.00246773 0.0042367 8.68686e-19)
(-0.00230185 0.00424133 -3.37407e-18)
(-0.00213701 0.00424527 -8.07351e-18)
(-0.0019732 0.00424852 -5.63321e-18)
(-0.0018104 0.00425108 -1.26548e-18)
(-0.00164862 0.004253 -4.33036e-18)
(-0.00148784 0.00425433 -7.54528e-18)
(-0.00132805 0.00425516 -1.41854e-18)
(-0.00116921 0.00425557 1.3189e-18)
(-0.00101128 0.00425567 -2.12442e-18)
(-0.000854174 0.00425554 -2.61453e-18)
(-0.000697808 0.00425527 -4.86622e-18)
(-0.000542075 0.00425495 -7.50741e-18)
(-0.00312477 0.00536093 7.66427e-18)
(-0.00399385 0.00432672 8.49806e-18)
(-0.00380631 0.00434779 9.3558e-18)
(-0.00362478 0.00436293 7.40422e-18)
(-0.00344478 0.00437655 6.81824e-18)
(-0.00326634 0.00438885 9.88864e-18)
(-0.00308942 0.00440001 9.34962e-18)
(-0.00291391 0.00441017 4.74509e-18)
(-0.00273971 0.00441941 1.28788e-18)
(-0.0025667 0.00442778 -5.67502e-19)
(-0.00239479 0.00443529 -4.91422e-18)
(-0.00222391 0.00444194 -8.18986e-18)
(-0.00205404 0.00444774 -4.69187e-18)
(-0.00188514 0.00445271 -2.59313e-19)
(-0.0017172 0.00445688 -2.99397e-18)
(-0.0015502 0.00446032 -6.72121e-18)
(-0.00138412 0.00446309 -1.28482e-18)
(-0.00121891 0.00446526 6.36314e-19)
(-0.00105453 0.00446693 -3.24046e-18)
(-0.000890905 0.00446817 -2.99556e-18)
(-0.000727956 0.00446907 -5.25964e-18)
(-0.000565585 0.00446969 -8.57019e-18)
(-0.00328589 0.00550195 4.98601e-18)
(-0.00413765 0.00448519 6.52968e-18)
(-0.00394532 0.00451087 8.80439e-18)
(-0.00375854 0.00453068 8.59433e-18)
(-0.0035731 0.00454875 8.50433e-18)
(-0.00338903 0.00456525 1.02006e-17)
(-0.00320633 0.00458034 8.79956e-18)
(-0.00302493 0.00459415 4.20193e-18)
(-0.00284476 0.00460678 -2.41321e-20)
(-0.00266574 0.0046183 -1.97583e-18)
(-0.00248779 0.00462874 -5.30433e-18)
(-0.00231084 0.00463813 -6.94152e-18)
(-0.00213487 0.0046465 -3.52525e-18)
(-0.00195983 0.00465387 -4.96246e-19)
(-0.00178569 0.00466029 -3.26757e-18)
(-0.00161244 0.00466581 -6.41391e-18)
(-0.00144004 0.00467048 -1.98096e-18)
(-0.00126845 0.00467438 -9.68147e-19)
(-0.00109762 0.00467758 -4.09433e-18)
(-0.000927488 0.00468016 -3.24239e-18)
(-0.000757973 0.00468218 -4.96637e-18)
(-0.000588986 0.00468371 -8.11795e-18)
(-0.00344655 0.00564313 3.77437e-18)
(-0.00428128 0.00464341 4.23438e-18)
(-0.00408412 0.00467362 7.04929e-18)
(-0.0038921 0.00469801 8.56172e-18)
(-0.00370124 0.00472046 1.03427e-17)
(-0.0035116 0.00474111 1.0694e-17)
(-0.00332317 0.00476012 8.14928e-18)
(-0.00313593 0.00477759 3.02346e-18)
(-0.00294983 0.00479364 -6.79413e-19)
(-0.00276482 0.00480834 -2.66248e-18)
(-0.00258082 0.00482175 -5.06663e-18)
(-0.00239779 0.00483391 -5.47112e-18)
(-0.00221569 0.00484486 -2.97665e-18)
(-0.00203447 0.00485464 -2.34764e-18)
(-0.00185412 0.00486328 -4.81169e-18)
(-0.00167459 0.00487086 -5.81879e-18)
(-0.00149586 0.00487741 -2.28539e-18)
(-0.00131788 0.004883 -2.56949e-18)
(-0.0011406 0.00488771 -4.54643e-18)
(-0.000963959 0.00489159 -3.70602e-18)
(-0.00078789 0.0048947 -5.19985e-18)
(-0.000612302 0.00489712 -7.45762e-18)
(-0.00360689 0.00578461 4.52282e-18)
(-0.00442486 0.00480153 4.67547e-18)
(-0.00422283 0.00483621 6.20454e-18)
(-0.00402556 0.0048651 8.62768e-18)
(-0.0038293 0.00489187 1.09068e-17)
(-0.00363409 0.00491663 9.85373e-18)
(-0.00343997 0.00493951 5.88805e-18)
(-0.00324692 0.00496064 1.24534e-18)
(-0.00305492 0.00498011 -1.23097e-18)
(-0.00286392 0.00499801 -2.72435e-18)
(-0.00267388 0.00501441 -3.53937e-18)
(-0.00248475 0.00502935 -3.02922e-18)
(-0.0022965 0.00504289 -3.13155e-18)
(-0.0021091 0.00505507 -5.33768e-18)
(-0.0019225 0.00506594 -6.45313e-18)
(-0.00173668 0.00507555 -4.77131e-18)
(-0.0015516 0.00508396 -2.32663e-18)
(-0.00136722 0.00509122 -3.7926e-18)
(-0.00118349 0.0050974 -5.07672e-18)
(-0.00100035 0.00510256 -4.43517e-18)
(-0.00376703 0.00592651 1.70705e-18)
(-0.00456852 0.00495969 4.01436e-18)
(-0.00436156 0.00499879 5.66129e-18)
(-0.00415902 0.00503212 8.75729e-18)
(-0.00395733 0.00506314 1.10343e-17)
(-0.00375657 0.00509196 8.95749e-18)
(-0.00355677 0.0051187 4.31517e-18)
(-0.00335792 0.00514346 5.32285e-19)
(-0.00316002 0.00516635 -2.85216e-18)
(-0.00296305 0.00518745 -4.31706e-18)
(-0.00276696 0.00520683 -3.09169e-18)
(-0.00257174 0.00522456 -1.2652e-18)
(-0.00237733 0.00524069 -3.71854e-18)
(-0.00218372 0.00525527 -8.13341e-18)
(-0.00199086 0.00526835 -7.96171e-18)
(-0.00179873 0.00527998 -4.32628e-18)
(-0.0016073 0.00529023 -2.74049e-18)
(-0.00141651 0.00529914 -4.4051e-18)
(-0.00122632 0.00530678 -4.36261e-18)
(-0.00392708 0.00606894 2.40672e-18)
(-0.00471235 0.00511801 4.19091e-18)
(-0.00450041 0.0051615 5.2996e-18)
(-0.00429256 0.00519921 7.16214e-18)
(-0.00408544 0.00523444 8.52813e-18)
(-0.00387911 0.00526727 6.70372e-18)
(-0.00367362 0.00529783 4.07802e-18)
(-0.00346898 0.0053262 1.54626e-18)
(-0.00326519 0.00535249 -3.53327e-18)
(-0.00306224 0.00537677 -5.06722e-18)
(-0.00286011 0.00539914 -3.1043e-18)
(-0.00265877 0.00541964 -1.36481e-18)
(-0.00245819 0.00543835 -5.0884e-18)
(-0.00225836 0.00545532 -9.47367e-18)
(-0.00205923 0.0054706 -7.26918e-18)
(-0.00186078 0.00548425 -3.05583e-18)
(-0.00166297 0.00549632 -3.57968e-18)
(-0.00408715 0.006212 6.56704e-18)
(-0.00485645 0.00527661 5.74665e-18)
(-0.00463947 0.00532445 5.26682e-18)
(-0.00442627 0.0053665 5.76935e-18)
(-0.00421369 0.00540588 6.11557e-18)
(-0.00400178 0.0054427 5.05692e-18)
(-0.00379059 0.00547703 4.65067e-18)
(-0.00358014 0.00550898 1.89039e-18)
(-0.00337045 0.00553865 -4.52737e-18)
(-0.00316152 0.00556611 -6.11216e-18)
(-0.00295333 0.00559144 -3.34121e-18)
(-0.00274587 0.00561471 -1.31071e-18)
(-0.00253912 0.00563599 -5.26029e-18)
(-0.00233305 0.00565534 -9.12893e-18)
(-0.00424734 0.00635577 8.07715e-18)
(-0.00500092 0.0054356 7.38813e-18)
(-0.00477883 0.00548775 5.40095e-18)
(-0.00456025 0.0055341 4.78094e-18)
(-0.00434216 0.0055776 4.31748e-18)
(-0.00412464 0.00561835 4.17214e-18)
(-0.00390773 0.00565643 4.76045e-18)
(-0.00369146 0.00569194 1.8967e-18)
(-0.00347586 0.00572496 -4.60689e-18)
(-0.00326094 0.00575557 -7.01258e-18)
(-0.00304668 0.00578385 -3.32186e-18)
(-0.00283309 0.00580988 -1.702e-18)
(-0.00440775 0.00650034 5.61897e-18)
(-0.00514583 0.00559506 7.40581e-18)
(-0.00491857 0.00565151 4.86499e-18)
(-0.00469457 0.00570212 3.92163e-18)
(-0.00447094 0.00574971 3.64948e-18)
(-0.00424778 0.00579437 3.89993e-18)
(-0.00402512 0.00583616 4.43548e-18)
(-0.00380301 0.00587519 1.72851e-18)
(-0.00358148 0.00591154 -5.03777e-18)
(-0.00336054 0.00594528 -7.57415e-18)
(-0.00456847 0.00664579 5.29536e-18)
(-0.00529127 0.00575511 7.52971e-18)
(-0.00505879 0.00581583 4.66384e-18)
(-0.00482931 0.00587067 3.29895e-18)
(-0.0046001 0.00592232 2.99667e-18)
(-0.00437125 0.00597085 3.34481e-18)
(-0.00414281 0.00601633 3.47972e-18)
(-0.00391483 0.00605885 1.08625e-18)
(-0.00368734 0.0060985 -5.07947e-18)
(-0.0047296 0.0067922 8.08971e-18)
(-0.00543733 0.00591582 9.45759e-18)
(-0.00519955 0.00598081 5.37491e-18)
(-0.00496455 0.00603985 2.96109e-18)
(-0.00472972 0.00609553 1.79542e-18)
(-0.00449514 0.0061479 1.44708e-18)
(-0.00426088 0.00619704 1.35846e-18)
(-0.004027 0.00624304 -1.509e-19)
(-0.00489123 0.00693965 1.0555e-17)
(-0.00558408 0.0060773 1.06192e-17)
(-0.00534095 0.00614653 5.10605e-18)
(-0.00510036 0.00620976 2.53486e-18)
(-0.00485985 0.00626943 1.53951e-18)
(-0.00461951 0.00632563 2.73611e-19)
(-0.00437939 0.0063784 -3.1754e-19)
(-0.00505345 0.0070882 1.15352e-17)
(-0.0057316 0.00623962 1.09458e-17)
(-0.00548305 0.00631308 5.27322e-18)
(-0.00523683 0.00638048 2.37906e-18)
(-0.00499059 0.00644414 1.42952e-18)
(-0.00474442 0.00650412 -5.40742e-19)
(-0.00521634 0.00723793 1.14958e-17)
(-0.00587998 0.00640287 9.0552e-18)
(-0.00562593 0.00648056 4.41341e-18)
(-0.00537402 0.00655211 2.29293e-18)
(-0.00512199 0.00661973 1.13822e-18)
(-0.00486996 0.00668349 -1.57247e-18)
(-0.00538 0.00738892 7.64447e-18)
(-0.00602928 0.00656713 6.1967e-18)
(-0.00576967 0.00664905 3.51969e-18)
(-0.005512 0.00672473 1.99271e-18)
(-0.00525413 0.0067963 3.16837e-19)
(-0.0055445 0.00754124 -8.39605e-20)
(-0.00617958 0.0067325 2.15198e-18)
(-0.00591434 0.00681864 2.25569e-18)
(-0.00565085 0.00689844 1.49144e-18)
(-0.00570993 0.00769496 -3.88071e-18)
(-0.00633096 0.00689904 -4.30426e-19)
(-0.00606001 0.0069894 1.30634e-18)
(-0.00579063 0.00707331 9.9278e-19)
(-0.00587638 0.00785014 -2.15912e-18)
(-0.00648349 0.00706685 -1.09251e-18)
(-0.00620675 0.00716143 6.96514e-19)
(-0.00604393 0.00800688 4.74523e-20)
(-0.00663725 0.00723601 -1.53419e-18)
(-0.00635465 0.00733481 1.0478e-19)
(-0.00621266 0.00816523 1.65789e-19)
(-0.00679231 0.00740659 -1.96665e-18)
(-0.00650377 0.00750963 -4.34328e-20)
(-0.00638265 0.00832527 -2.82469e-18)
(-0.00694875 0.00757868 -2.73788e-18)
(-0.00665418 0.00768596 -6.62367e-19)
(-0.00655399 0.00848708 -5.8421e-18)
(-0.00710663 0.00775236 -3.14801e-18)
(-0.00680596 0.0078639 -1.24375e-18)
(-0.00672677 0.00865073 -5.4244e-18)
(-0.00726605 0.00792772 -2.49066e-18)
(-0.00695918 0.00804353 -2.05149e-18)
(-0.00690107 0.00881631 -3.21811e-18)
(-0.00742706 0.00810484 -1.19028e-18)
(-0.00711392 0.00822493 -2.35075e-18)
(-0.00707696 0.00898387 1.11889e-19)
(-0.00758976 0.00828381 3.99165e-19)
(-0.00727025 0.0084082 -2.56028e-18)
(-0.00725455 0.00915352 4.84857e-18)
(-0.00775422 0.00846471 2.75606e-18)
(-0.00742824 0.00859342 -2.1858e-18)
(-0.00743392 0.00932531 8.83641e-18)
(-0.00792052 0.00864763 4.57739e-18)
(-0.00758797 0.00878067 -1.4304e-18)
(-0.00761514 0.00949935 8.70356e-18)
(-0.00808874 0.00883265 5.33987e-18)
(-0.00774953 0.00897006 8.7924e-20)
(-0.00779833 0.0096757 5.62091e-18)
(-0.00825896 0.00901987 5.97224e-18)
(-0.00791299 0.00916167 2.29799e-18)
(-0.00798355 0.00985446 2.97941e-18)
(-0.00843127 0.00920938 6.0804e-18)
(-0.00807842 0.00935559 3.41728e-18)
(-0.00817091 0.0100357 2.1012e-18)
(-0.00860574 0.00940126 5.43176e-18)
(-0.00824592 0.00955193 3.25047e-18)
(-0.00299653 0.00136261 -4.17757e-17)
(-0.00375232 0.00145237 6.98829e-18)
(-0.00401763 0.00162165 5.97368e-18)
(-0.00419534 0.00179669 6.14607e-18)
(-0.0043535 0.00196925 5.83925e-18)
(-0.00450397 0.0021391 5.13388e-18)
(-0.00465037 0.00230676 6.36059e-18)
(-0.0047944 0.00247268 1.26163e-17)
(-0.00493698 0.00263721 1.52619e-17)
(-0.0050787 0.00280059 8.33724e-18)
(-0.00521993 0.00296305 4.7753e-18)
(-0.00536095 0.00312476 6.53986e-18)
(-0.00550196 0.00328587 9.10554e-19)
(-0.00564314 0.00344653 -1.65242e-18)
(-0.00578463 0.00360687 3.37894e-18)
(-0.00592653 0.00376701 3.45019e-18)
(-0.00606897 0.00392706 2.3954e-18)
(-0.00621202 0.00408713 3.94275e-18)
(-0.0063558 0.00424732 5.83959e-18)
(-0.00650037 0.00440772 6.7635e-18)
(-0.00664582 0.00456844 9.57963e-18)
(-0.00679223 0.00472957 1.21832e-17)
(-0.00693968 0.0048912 1.37562e-17)
(-0.00708823 0.00505342 1.30768e-17)
(-0.00723796 0.00521631 1.03945e-17)
(-0.00738895 0.00537997 4.69599e-18)
(-0.00754127 0.00554447 -2.98385e-18)
(-0.00769499 0.0057099 -6.55781e-18)
(-0.00785018 0.00587635 -5.33112e-18)
(-0.00800692 0.00604389 -4.05814e-18)
(-0.00816527 0.00621262 -5.36655e-18)
(-0.00832531 0.00638261 -8.68902e-18)
(-0.00848712 0.00655395 -9.67695e-18)
(-0.00865077 0.00672673 -6.27859e-18)
(-0.00881634 0.00690103 -1.61627e-18)
(-0.00898391 0.00707693 2.72566e-18)
(-0.00915355 0.00725451 5.94123e-18)
(-0.00932534 0.00743388 9.18533e-18)
(-0.00949938 0.00761511 9.7843e-18)
(-0.00967573 0.00779829 7.77975e-18)
(-0.00985448 0.00798352 5.64031e-18)
(-0.0100357 0.00817088 4.1794e-18)
(-0.00190464 0.0025236 -2.01643e-17)
(-0.00258623 0.00254883 -4.9519e-18)
(-0.00280509 0.00266968 8.24823e-19)
(-0.00300053 0.00281642 1.44294e-18)
(-0.00318175 0.00296762 2.50929e-18)
(-0.00335419 0.00311799 1.20165e-18)
(-0.00352148 0.0032667 2.50506e-18)
(-0.00368558 0.00341393 6.57552e-18)
(-0.0038476 0.00356 1.19196e-17)
(-0.0040082 0.0037052 1.34134e-17)
(-0.00416781 0.00384975 1.1837e-17)
(-0.00432673 0.00399384 9.34602e-18)
(-0.00448521 0.00413763 7.08622e-18)
(-0.00464343 0.00428126 3.96928e-18)
(-0.00480155 0.00442485 3.62622e-18)
(-0.00495971 0.00456851 3.48424e-18)
(-0.00511804 0.00471234 4.09364e-18)
(-0.00527664 0.00485644 4.80604e-18)
(-0.00543562 0.0050009 5.86633e-18)
(-0.00559509 0.0051458 6.63897e-18)
(-0.00575514 0.00529125 7.08727e-18)
(-0.00591585 0.0054373 7.98577e-18)
(-0.00607733 0.00558405 9.34701e-18)
(-0.00623965 0.00573158 1.0115e-17)
(-0.0064029 0.00587995 9.31887e-18)
(-0.00656717 0.00602925 5.90702e-18)
(-0.00673254 0.00617955 1.54141e-18)
(-0.00689908 0.00633093 -1.08584e-18)
(-0.00706689 0.00648346 -1.73728e-18)
(-0.00723605 0.00663722 -1.94784e-18)
(-0.00740663 0.00679227 -2.38229e-18)
(-0.00757872 0.00694871 -3.2315e-18)
(-0.0077524 0.00710659 -3.33357e-18)
(-0.00792776 0.007266 -2.71685e-18)
(-0.00810488 0.00742702 -1.0189e-18)
(-0.00828384 0.00758972 1.34541e-18)
(-0.00846474 0.00775418 3.987e-18)
(-0.00864766 0.00792048 5.72003e-18)
(-0.00883268 0.0080887 5.99542e-18)
(-0.00901989 0.00825892 5.86128e-18)
(-0.0092094 0.00843123 5.96611e-18)
(-0.00940128 0.0086057 5.45845e-18)
(-0.00201459 0.00237967 1.559e-17)
(-0.00259192 0.00245607 -5.07312e-18)
(-0.00279159 0.00255475 -8.30879e-19)
(-0.00298066 0.00268039 7.18136e-19)
(-0.00316537 0.00281877 1.92367e-18)
(-0.00334379 0.00296101 1.44135e-18)
(-0.00351709 0.00310363 3.7879e-18)
(-0.00368681 0.00324561 7.76979e-18)
(-0.00385411 0.00338676 1.15139e-17)
(-0.00401973 0.00352717 1.36008e-17)
(-0.00418417 0.00366697 1.26431e-17)
(-0.00434781 0.0038063 1.04432e-17)
(-0.00451089 0.00394531 9.50405e-18)
(-0.00467364 0.00408411 7.03727e-18)
(-0.00483624 0.00422282 5.57247e-18)
(-0.00499882 0.00436155 4.96703e-18)
(-0.00516152 0.00450039 4.50259e-18)
(-0.00532447 0.00463945 4.78198e-18)
(-0.00548778 0.00477881 5.4241e-18)
(-0.00565154 0.00491855 5.24918e-18)
(-0.00581586 0.00505877 4.82935e-18)
(-0.00598084 0.00519953 5.40256e-18)
(-0.00614656 0.00534093 5.60857e-18)
(-0.00631312 0.00548303 5.40806e-18)
(-0.0064806 0.00562591 4.46669e-18)
(-0.00664909 0.00576964 3.26654e-18)
(-0.00681868 0.00591431 2.22239e-18)
(-0.00698945 0.00605998 1.32604e-18)
(-0.00716148 0.00620672 1.03668e-18)
(-0.00733486 0.00635462 9.18841e-19)
(-0.00750968 0.00650373 1.09457e-18)
(-0.00768601 0.00665414 7.33916e-19)
(-0.00786395 0.00680592 4.66497e-19)
(-0.00804357 0.00695914 -8.27994e-19)
(-0.00822497 0.00711387 -9.62982e-19)
(-0.00840824 0.00727019 -1.58764e-18)
(-0.00859345 0.00742818 -1.56078e-18)
(-0.00878071 0.00758792 -1.42592e-18)
(-0.00897009 0.00774947 -2.69151e-19)
(-0.0091617 0.00791293 1.30313e-18)
(-0.00935562 0.00807836 2.15817e-18)
(-0.00955195 0.00824586 1.69265e-18)
(-0.0020789 0.00223994 2.35371e-17)
(-0.00259327 0.00234241 -1.93431e-18)
(-0.00278094 0.00244326 -2.00736e-18)
(-0.00296288 0.00255704 1.40142e-18)
(-0.00314699 0.00268304 8.92769e-19)
(-0.00332882 0.00281553 1.89865e-18)
(-0.00350704 0.00295051 3.87592e-18)
(-0.00368203 0.00308604 6.62548e-18)
(-0.00385452 0.00322137 8.63773e-18)
(-0.00402519 0.00335627 1.04533e-17)
(-0.00419454 0.00349072 9.61017e-18)
(-0.00436295 0.00362477 7.85344e-18)
(-0.0045307 0.00375853 8.95917e-18)
(-0.00469803 0.00389209 8.9551e-18)
(-0.00486512 0.00402555 8.76012e-18)
(-0.00503215 0.004159 8.71405e-18)
(-0.00519924 0.00429254 7.14016e-18)
(-0.00536652 0.00442626 5.96455e-18)
(-0.00553413 0.00456023 4.93734e-18)
(-0.00570215 0.00469455 3.91241e-18)
(-0.00587071 0.00482929 2.74581e-18)
(-0.00603989 0.00496453 2.5654e-18)
(-0.00620979 0.00510034 2.39452e-18)
(-0.00638051 0.00523681 2.22357e-18)
(-0.00655214 0.00537399 2.28451e-18)
(-0.00672477 0.00551197 2.25888e-18)
(-0.00689849 0.00565082 2.31687e-18)
(-0.00707337 0.0057906 1.97482e-18)
(-0.00724952 0.00593139 1.43894e-18)
(-0.00742701 0.00607326 9.40602e-19)
(-0.00760594 0.00621628 3.36557e-19)
(-0.00778639 0.00636051 -7.34851e-19)
(-0.00796845 0.00650604 -1.72432e-18)
(-0.0081522 0.00665292 -2.3913e-18)
(-0.00833774 0.00680124 -2.49521e-18)
(-0.00852515 0.00695106 -2.43025e-18)
(-0.00871453 0.00710245 -1.82526e-18)
(-0.00890597 0.0072555 -7.07307e-19)
(-0.00909955 0.00741028 1.49503e-19)
(-0.00929538 0.00756685 2.875e-19)
(-0.00949354 0.0077253 -3.17948e-19)
(-0.00969413 0.0078857 -5.83148e-19)
(-0.00212075 0.00210323 1.11919e-17)
(-0.00258896 0.00221628 1.34331e-19)
(-0.00277323 0.00232288 -5.893e-19)
(-0.0029509 0.00243252 2.29882e-18)
(-0.00313329 0.00254993 2.71146e-18)
(-0.0033165 0.00267356 2.57191e-18)
(-0.00349807 0.00280067 3.61818e-18)
(-0.00367731 0.0029293 4.70519e-18)
(-0.00385439 0.00305838 5.66224e-18)
(-0.0040297 0.00318742 7.48455e-18)
(-0.00420364 0.00331623 7.99292e-18)
(-0.00437657 0.00344478 7.10188e-18)
(-0.00454878 0.00357309 8.60432e-18)
(-0.00472048 0.00370124 1.07222e-17)
(-0.00489189 0.00382929 1.1264e-17)
(-0.00506317 0.00395732 1.10583e-17)
(-0.00523447 0.00408542 8.62404e-18)
(-0.00540591 0.00421367 6.39404e-18)
(-0.00557764 0.00434215 3.83165e-18)
(-0.00574975 0.00447093 2.65337e-18)
(-0.00592236 0.00460009 1.89165e-18)
(-0.00609556 0.0047297 6.36187e-19)
(-0.00626947 0.00485983 3.51372e-19)
(-0.00644418 0.00499057 7.49035e-20)
(-0.00661978 0.00512197 1.95971e-19)
(-0.00679636 0.00525411 -3.11789e-20)
(-0.00697401 0.00538705 -2.41951e-19)
(-0.00715283 0.00552086 -9.03413e-19)
(-0.00733291 0.00565562 -1.67853e-18)
(-0.00751432 0.00579139 -2.07255e-18)
(-0.00769717 0.00592823 -2.43951e-18)
(-0.00788154 0.00606622 -2.83163e-18)
(-0.00806753 0.00620542 -2.8835e-18)
(-0.00825521 0.0063459 -1.40544e-18)
(-0.00844469 0.00648773 -5.43122e-19)
(-0.00863605 0.00663098 8.5923e-19)
(-0.00882939 0.00677571 1.76799e-18)
(-0.0090248 0.00692201 1.8146e-18)
(-0.00922237 0.00706994 1.28587e-18)
(-0.0094222 0.00721957 1.16351e-18)
(-0.00962439 0.00737098 1.52951e-18)
(-0.00982904 0.00752424 2.07195e-18)
(-0.00214806 0.0019709 1.1059e-18)
(-0.00257835 0.0020865 2.15566e-18)
(-0.00276407 0.00219657 2.36198e-18)
(-0.00294105 0.002305 4.48923e-18)
(-0.00312264 0.00241699 6.35426e-18)
(-0.00330659 0.00253345 6.46434e-18)
(-0.00349048 0.00265325 5.60737e-18)
(-0.00367309 0.00277498 5.98851e-18)
(-0.00385408 0.00289762 5.3128e-18)
(-0.00403354 0.00302056 7.3084e-18)
(-0.00421171 0.00314351 8.86644e-18)
(-0.00438888 0.00326634 9.64342e-18)
(-0.00456528 0.00338903 9.67349e-18)
(-0.00474114 0.00351159 1.03944e-17)
(-0.00491666 0.00363409 9.40421e-18)
(-0.00509199 0.00375657 8.17433e-18)
(-0.00526731 0.0038791 5.94324e-18)
(-0.00544273 0.00400176 4.19001e-18)
(-0.00561839 0.00412463 2.61235e-18)
(-0.0057944 0.00424776 2.66553e-18)
(-0.00597088 0.00437123 2.4598e-18)
(-0.00614794 0.00449512 1.51627e-19)
(-0.00632567 0.00461949 -1.22494e-18)
(-0.00650418 0.0047444 -2.14339e-18)
(-0.00668356 0.00486993 -2.86607e-18)
(-0.00686391 0.00499614 -3.80756e-18)
(-0.00704532 0.0051231 -4.53936e-18)
(-0.00722789 0.00525087 -4.68546e-18)
(-0.0074117 0.00537952 -4.43151e-18)
(-0.00759685 0.00550911 -3.62732e-18)
(-0.00778343 0.00563971 -2.34868e-18)
(-0.00797154 0.00577138 -1.36144e-18)
(-0.00816125 0.00590418 -4.4321e-19)
(-0.00835267 0.00603819 5.35673e-19)
(-0.00854589 0.00617348 1.27261e-18)
(-0.008741 0.00631009 1.89149e-18)
(-0.0089381 0.00644811 1.94603e-18)
(-0.00913728 0.00658759 1.96588e-18)
(-0.00933863 0.00672862 2.23313e-18)
(-0.00954227 0.00687125 2.34393e-18)
(-0.00974827 0.00701556 2.21308e-18)
(-0.00995675 0.00716162 2.17844e-18)
(-0.00216533 0.00184261 -7.59473e-18)
(-0.00256294 0.00195693 4.30196e-18)
(-0.0027521 0.00206762 3.52261e-18)
(-0.00293097 0.00217504 4.83939e-18)
(-0.00311328 0.00228326 6.28572e-18)
(-0.00329826 0.00239404 7.47396e-18)
(-0.00348408 0.00250736 6.07516e-18)
(-0.00366946 0.00262252 6.99336e-18)
(-0.0038538 0.00273875 6.43483e-18)
(-0.00403694 0.00285551 7.58885e-18)
(-0.00421896 0.00297245 7.74223e-18)
(-0.00440004 0.00308942 9.01551e-18)
(-0.00458037 0.00320633 8.1679e-18)
(-0.00476014 0.00332317 7.20477e-18)
(-0.00493954 0.00343996 4.81371e-18)
(-0.00511873 0.00355676 3.18878e-18)
(-0.00529786 0.00367361 3.29644e-18)
(-0.00547706 0.00379057 3.63488e-18)
(-0.00565647 0.00390772 3.80544e-18)
(-0.0058362 0.0040251 3.93679e-18)
(-0.00601637 0.0041428 2.48981e-18)
(-0.00619709 0.00426086 2.35528e-19)
(-0.00637846 0.00437937 -1.28421e-18)
(-0.00656059 0.00449838 -3.1139e-18)
(-0.00674357 0.00461795 -4.80735e-18)
(-0.00692751 0.00473815 -5.24717e-18)
(-0.00711249 0.00485905 -5.19825e-18)
(-0.00729862 0.0049807 -4.29688e-18)
(-0.00748598 0.00510317 -3.46773e-18)
(-0.00767468 0.00522651 -2.51426e-18)
(-0.0078648 0.0053508 -2.25666e-18)
(-0.00805645 0.00547609 -1.96027e-18)
(-0.0082497 0.00560244 -1.26417e-18)
(-0.00844466 0.00572992 -9.40403e-19)
(-0.00864143 0.00585859 -2.0346e-19)
(-0.00884009 0.00598852 7.92527e-20)
(-0.00904075 0.00611976 4.78784e-19)
(-0.00924349 0.00625238 6.15007e-19)
(-0.00944843 0.00638645 2.54004e-19)
(-0.00965566 0.00652203 -5.16337e-19)
(-0.00986527 0.00665919 -8.95855e-19)
(-0.0100774 0.006798 -9.17896e-19)
(-0.00217514 0.00171798 -1.09803e-17)
(-0.00254427 0.00182916 3.13426e-18)
(-0.00273739 0.00193831 3.67779e-18)
(-0.0029196 0.00204394 4.20315e-18)