/*--------------------------------*- C++ -*----------------------------------*\
  =========                 |
  \\      /  F ield         | OpenFOAM: The Open Source CFD Toolbox
   \\    /   O peration     | Website:  https://openfoam.org
    \\  /    A nd           | Version:  7
     \\/     M anipulation  |
\*---------------------------------------------------------------------------*/
FoamFile
{
    version     2.0;
    format      ascii;
    class       volVectorField;
    location    "256000";
    object      vorticity;
}
// * * * * * * * * * * * * * * * * * * * * * * * * * * * * * * * * * * * * * //

dimensions      [0 0 -1 0 0 0 0];

internalField   nonuniform List<vector> 
4783
(
(-0.00137842 0.00303117 -3.80439e-17)
(-0.00255362 0.00192814 -7.00311e-18)
(-0.00240944 0.00204076 1.72914e-17)
(-0.00226956 0.00210741 2.12708e-17)
(-0.0021327 0.00215152 9.03197e-18)
(-0.00200017 0.00218108 1.38978e-18)
(-0.0018716 0.0022006 -7.18616e-18)
(-0.00174659 0.00221267 -1.2516e-17)
(-0.00162487 0.00221888 -4.37411e-18)
(-0.0015063 0.00222035 1.02912e-17)
(-0.00139078 0.00221794 1.26983e-17)
(-0.00127827 0.00221238 7.23054e-18)
(-0.00116872 0.00220431 2.09753e-18)
(-0.00106208 0.0021943 3.03995e-18)
(-0.000958294 0.0021829 8.71455e-18)
(-0.000857274 0.00217062 1.25914e-17)
(-0.000758905 0.00215795 1.22851e-17)
(-0.00066304 0.00214535 7.22611e-18)
(-0.000569496 0.00213325 -2.14513e-18)
(-0.000478059 0.00212205 -1.05069e-17)
(-0.000388474 0.00211211 -1.55015e-17)
(-0.000300458 0.00210376 -1.52444e-17)
(-0.00146771 0.00379148 3.10361e-19)
(-0.00257653 0.00261535 -3.55476e-18)
(-0.00248398 0.00262276 -5.53478e-18)
(-0.00237033 0.00262581 -2.07596e-18)
(-0.00224406 0.00262319 1.30785e-18)
(-0.00211405 0.00261428 2.55281e-18)
(-0.00198418 0.00260058 2.13378e-18)
(-0.00185601 0.00258363 -5.67514e-19)
(-0.00173018 0.00256457 -1.60573e-18)
(-0.00160694 0.00254419 7.40742e-19)
(-0.00148639 0.00252304 2.26098e-18)
(-0.00136856 0.00250155 2.71411e-18)
(-0.00125345 0.00248006 5.0793e-18)
(-0.00114104 0.00245887 8.26688e-18)
(-0.00103126 0.00243827 7.8284e-18)
(-0.000924049 0.00241851 4.23461e-18)
(-0.000819293 0.00239985 4.5569e-18)
(-0.000716852 0.00238254 6.33845e-18)
(-0.000616555 0.0023668 -1.98961e-18)
(-0.000518196 0.00235286 -1.22361e-17)
(-0.000421539 0.00234091 -1.4587e-17)
(-0.000326321 0.00233113 -1.56411e-17)
(-0.00163696 0.00405506 -7.46602e-18)
(-0.00269577 0.00283323 -4.14148e-18)
(-0.00258099 0.00282119 -4.51707e-18)
(-0.00246955 0.00281207 -5.22975e-18)
(-0.00234907 0.00280592 -3.20189e-18)
(-0.00222254 0.00279834 -1.2888e-18)
(-0.00209327 0.00278796 -1.81918e-18)
(-0.00196355 0.00277486 -1.26597e-18)
(-0.00183472 0.00275957 1.95421e-19)
(-0.00170752 0.0027427 2.0521e-19)
(-0.00158237 0.00272476 -1.069e-18)
(-0.00145946 0.00270622 -1.06494e-19)
(-0.00133891 0.00268743 3.80416e-18)
(-0.00122075 0.00266874 6.37917e-18)
(-0.00110496 0.00265045 4.63989e-18)
(-0.000991499 0.00263282 -4.96331e-19)
(-0.000880275 0.00261611 3.86968e-19)
(-0.000771166 0.00260057 3.16282e-18)
(-0.00066402 0.00258642 -4.45916e-18)
(-0.000558651 0.00257388 -1.41261e-17)
(-0.000454842 0.00256311 -1.47701e-17)
(-0.000352351 0.00255429 -1.41175e-17)
(-0.00181202 0.0042309 2.15783e-18)
(-0.00284126 0.00302773 -3.39376e-18)
(-0.00270525 0.00300915 -5.14968e-18)
(-0.0025819 0.00299272 -4.57335e-18)
(-0.00245727 0.00298216 -2.81156e-18)
(-0.00232952 0.00297376 -1.48183e-18)
(-0.00219925 0.00296516 -1.83852e-18)
(-0.00206773 0.00295528 -1.49635e-18)
(-0.00193615 0.00294387 -1.30027e-18)
(-0.00180537 0.00293107 -2.32182e-18)
(-0.00167596 0.00291715 -3.31787e-18)
(-0.00154828 0.00290247 -2.16157e-18)
(-0.00142253 0.00288734 1.77991e-18)
(-0.00129883 0.00287207 3.13135e-18)
(-0.00117721 0.00285695 1.42755e-18)
(-0.00105765 0.00284225 -1.85244e-18)
(-0.000940104 0.00282821 -2.01337e-18)
(-0.000824465 0.00281508 -3.87059e-20)
(-0.000710603 0.00280306 -5.87468e-18)
(-0.000598355 0.00279236 -1.4074e-17)
(-0.000487526 0.00278315 -1.42569e-17)
(-0.000377897 0.0027756 -1.19845e-17)
(-0.00198454 0.00438724 3.61387e-18)
(-0.00299141 0.00320801 -1.22447e-18)
(-0.00284246 0.00319281 -3.90973e-18)
(-0.00270666 0.00317565 -4.91416e-18)
(-0.0025734 0.00316325 -2.32941e-18)
(-0.00244022 0.00315394 -3.88618e-19)
(-0.00230616 0.00314595 -1.62445e-18)
(-0.00217134 0.00313798 -1.41977e-18)
(-0.0020363 0.00312934 -6.70316e-19)
(-0.00190167 0.00311978 -2.69898e-18)
(-0.00176795 0.00310932 -4.36114e-18)
(-0.00163552 0.00309811 -1.30522e-18)
(-0.00150466 0.00308636 2.01153e-18)
(-0.0013755 0.00307434 -3.36009e-19)
(-0.00124814 0.00306228 -3.5205e-18)
(-0.00112259 0.00305042 -4.34795e-18)
(-0.000998826 0.00303899 -3.77804e-18)
(-0.000876766 0.00302822 -2.77374e-18)
(-0.000756305 0.00301831 -6.43328e-18)
(-0.0006373 0.00300943 -1.20116e-17)
(-0.00051958 0.00300177 -1.11915e-17)
(-0.000402947 0.00299546 -8.02032e-18)
(-0.0021543 0.00453598 -2.37075e-18)
(-0.00314082 0.0033795 -2.10098e-18)
(-0.00298367 0.00337021 -3.22692e-18)
(-0.00283805 0.00335638 -3.7345e-18)
(-0.00269588 0.00334525 -2.91367e-18)
(-0.00255552 0.00333659 1.19044e-19)
(-0.00241576 0.00332952 1.22225e-18)
(-0.00227613 0.00332312 3.12278e-19)
(-0.00213663 0.00331668 -7.79935e-19)
(-0.00199752 0.00330977 -3.4554e-18)
(-0.00185915 0.00330223 -4.81959e-18)
(-0.00172182 0.00329406 -3.74138e-19)
(-0.00158576 0.00328537 2.21271e-18)
(-0.00145114 0.00327631 -3.75197e-18)
(-0.00131806 0.00326709 -7.70653e-18)
(-0.00118657 0.00325789 -5.4038e-18)
(-0.00105664 0.00324893 -3.39638e-18)
(-0.000928237 0.0032404 -2.58702e-18)
(-0.000801263 0.00323249 -4.66479e-18)
(-0.000675598 0.00322536 -9.13746e-18)
(-0.000551091 0.00321916 -8.88395e-18)
(-0.000427567 0.00321404 -5.17232e-18)
(-0.00232183 0.00468078 -1.80005e-18)
(-0.00328865 0.00354585 -5.37245e-19)
(-0.00312537 0.00354253 -6.92907e-19)
(-0.00297205 0.00353356 -1.16331e-18)
(-0.00282198 0.0035257 -1.25202e-18)
(-0.00267427 0.00351926 9.25515e-19)
(-0.00252802 0.00351404 1.49894e-18)
(-0.00238263 0.00350953 1.37438e-19)
(-0.00223784 0.00350523 -1.52509e-18)
(-0.00209365 0.00350073 -3.55422e-18)
(-0.0019502 0.00349581 -4.04567e-18)
(-0.00180768 0.00349038 1.55063e-19)
(-0.00166626 0.00348446 1.40925e-18)
(-0.00152609 0.00347813 -5.75722e-18)
(-0.00138726 0.00347153 -9.76585e-18)
(-0.00124981 0.00346483 -4.93889e-18)
(-0.00111375 0.00345818 -2.00029e-18)
(-0.000979046 0.00345176 -2.68207e-18)
(-0.000845619 0.00344574 -3.63114e-18)
(-0.000713365 0.00344026 -6.629e-18)
(-0.000582154 0.00343546 -8.39858e-18)
(-0.000451829 0.00343147 -5.88487e-18)
(-0.00248759 0.00482334 7.48359e-18)
(-0.00343507 0.00370907 3.06447e-18)
(-0.0032665 0.00371133 3.40959e-18)
(-0.0031067 0.00370756 1.87078e-18)
(-0.00294969 0.00370389 3.55907e-19)
(-0.00279505 0.00370074 2.17411e-18)
(-0.00264222 0.00369821 3.19214e-18)
(-0.00249067 0.00369612 8.25957e-19)
(-0.0023401 0.00369419 -1.09264e-18)
(-0.00219036 0.00369213 -3.29684e-18)
(-0.00204145 0.00368973 -5.06029e-18)
(-0.00189346 0.00368688 -3.05515e-18)
(-0.00174649 0.00368355 -1.87949e-18)
(-0.00160063 0.00367977 -6.14498e-18)
(-0.00145597 0.00367564 -9.00397e-18)
(-0.00131253 0.00367128 -4.00654e-18)
(-0.00117033 0.00366681 -2.2925e-20)
(-0.00102934 0.00366239 -6.75257e-19)
(-0.000889498 0.00365815 -1.89597e-18)
(-0.000750707 0.00365424 -5.03737e-18)
(-0.000612854 0.00365077 -8.44192e-18)
(-0.000475799 0.00364786 -7.71315e-18)
(-0.00265192 0.00496458 1.45328e-17)
(-0.00358039 0.00387025 7.92893e-18)
(-0.00340688 0.00387774 7.07807e-18)
(-0.00324123 0.00387913 4.11825e-18)
(-0.00307793 0.00387998 1.61697e-18)
(-0.00291683 0.00388068 1.82287e-18)
(-0.00275757 0.00388143 3.01778e-18)
(-0.0025998 0.00388223 1.83011e-18)
(-0.00244322 0.00388298 1.52847e-18)
(-0.00228764 0.00388351 -1.99764e-19)
(-0.00213301 0.00388366 -3.94705e-18)
(-0.00197932 0.00388334 -4.9371e-18)
(-0.00182661 0.00388251 -3.70059e-18)
(-0.00167495 0.00388117 -4.61937e-18)
(-0.00152436 0.00387939 -7.13841e-18)
(-0.00137489 0.00387725 -4.78915e-18)
(-0.00122653 0.00387486 -1.02074e-18)
(-0.00107926 0.00387233 -1.04014e-18)
(-0.00093301 0.0038698 -2.1888e-18)
(-0.000787714 0.00386738 -4.43932e-18)
(-0.000643263 0.00386518 -7.39914e-18)
(-0.000499534 0.00386329 -7.75714e-18)
(-0.0028151 0.00510506 9.97352e-18)
(-0.00372488 0.00403007 1.01212e-17)
(-0.00354657 0.00404253 9.41546e-18)
(-0.00337538 0.00404892 6.30026e-18)
(-0.00320621 0.00405437 3.78362e-18)
(-0.00303899 0.00405916 4.08201e-18)
(-0.00287354 0.00406353 4.33548e-18)
(-0.0027096 0.00406756 2.49092e-18)
(-0.00254694 0.00407126 2.57803e-18)
(-0.00238541 0.00407455 1.46154e-18)
(-0.00222488 0.00407735 -3.61467e-18)
(-0.00206533 0.00407958 -7.91018e-18)
(-0.00190675 0.00408122 -6.50413e-18)
(-0.00174915 0.00408226 -4.19907e-18)
(-0.00159257 0.00408275 -6.33112e-18)
(-0.001437 0.00408275 -6.56703e-18)
(-0.00128245 0.00408235 -2.26204e-18)
(-0.00112888 0.00408165 -1.44741e-18)
(-0.000976239 0.00408075 -2.93662e-18)
(-0.000824459 0.00407976 -4.18148e-18)
(-0.000673444 0.00407877 -6.83207e-18)
(-0.000523082 0.00407786 -8.32449e-18)
(-0.00297734 0.00524517 4.46248e-18)
(-0.00386878 0.00418894 9.28026e-18)
(-0.0036857 0.00420621 8.9351e-18)
(-0.00350914 0.00421746 5.70955e-18)
(-0.00333432 0.00422745 4.86914e-18)
(-0.00316123 0.00423642 5.96033e-18)
(-0.00298976 0.00424458 4.97977e-18)
(-0.00281976 0.00425205 1.5073e-18)
(-0.00265105 0.0042589 7.4199e-19)
(-0.0024835 0.0042651 2.12525e-19)
(-0.00231699 0.00427064 -4.35643e-18)
(-0.00215148 0.00427547 -8.68528e-18)
(-0.00198692 0.00427959 -6.69599e-18)
(-0.00182331 0.00428299 -3.39165e-18)
(-0.00166066 0.0042857 -6.17792e-18)
(-0.00149895 0.00428779 -8.24357e-18)
(-0.00133817 0.00428933 -2.65762e-18)
(-0.00117829 0.00429039 3.50955e-20)
(-0.00101925 0.00429107 -2.38189e-18)
(-0.000861003 0.00429145 -3.72713e-18)
(-0.000703446 0.00429163 -6.2769e-18)
(-0.000546483 0.00429167 -9.47313e-18)
(-0.00313883 0.00538516 1.51945e-18)
(-0.00401226 0.00434719 6.62093e-18)
(-0.00382442 0.00436911 7.2087e-18)
(-0.00364257 0.0043851 4.92179e-18)
(-0.00346222 0.00439958 4.70857e-18)
(-0.0032834 0.00441274 6.75327e-18)
(-0.00310606 0.00442476 6.53899e-18)
(-0.00293009 0.00443579 3.21641e-18)
(-0.00275538 0.00444589 4.85047e-19)
(-0.0025818 0.00445512 -7.8629e-19)
(-0.00240928 0.00446348 -4.73907e-18)
(-0.00223774 0.00447097 -8.02789e-18)
(-0.00206714 0.00447758 -5.62256e-18)
(-0.00189746 0.00448333 -1.81604e-18)
(-0.00172867 0.00448825 -4.49659e-18)
(-0.00156078 0.0044924 -7.29117e-18)
(-0.00139374 0.00449583 -2.44262e-18)
(-0.00122754 0.00449861 -5.63858e-19)
(-0.00106211 0.00450082 -3.37323e-18)
(-0.000897391 0.00450254 -3.78993e-18)
(-0.000733309 0.00450384 -6.04368e-18)
(-0.000569767 0.00450479 -9.95519e-18)
(-0.00329973 0.00552523 -5.44363e-18)
(-0.00415549 0.00450503 4.33173e-18)
(-0.00396285 0.00453153 6.81842e-18)
(-0.00377574 0.00455214 6.48034e-18)
(-0.00358994 0.00457103 6.08482e-18)
(-0.00340549 0.00458835 6.76125e-18)
(-0.00322236 0.00460426 6.30197e-18)
(-0.0030405 0.00461889 2.67312e-18)
(-0.00285982 0.00463233 -8.76732e-19)
(-0.00268024 0.00464466 -2.06254e-18)
(-0.00250168 0.0046559 -4.67968e-18)
(-0.00232408 0.00466608 -6.5271e-18)
(-0.0021474 0.00467521 -4.07025e-18)
(-0.0019716 0.00468332 -1.77106e-18)
(-0.00179665 0.00469044 -4.51009e-18)
(-0.00162253 0.00469661 -6.96367e-18)
(-0.00144922 0.0047019 -2.68351e-18)
(-0.00127667 0.00470636 -1.65358e-18)
(-0.00110484 0.00471007 -4.27378e-18)
(-0.000933663 0.0047131 -3.69941e-18)
(-0.000763066 0.0047155 -5.54181e-18)
(-0.000592962 0.00471734 -9.57822e-18)
(-0.00346018 0.00566555 -3.21346e-18)
(-0.00429859 0.00466266 1.73623e-18)
(-0.00410111 0.00469365 4.65e-18)
(-0.00390876 0.00471881 6.7463e-18)
(-0.00371754 0.00474204 8.45291e-18)
(-0.0035275 0.00476348 7.88941e-18)
(-0.00333864 0.00478326 5.92398e-18)
(-0.00315094 0.00480151 1.66999e-18)
(-0.00296433 0.00481833 -1.47474e-18)
(-0.00277876 0.00483379 -2.75327e-18)
(-0.00259417 0.00484796 -4.51308e-18)
(-0.0024105 0.00486086 -4.68269e-18)
(-0.0022277 0.00487252 -3.04922e-18)
(-0.00204575 0.00488299 -3.64757e-18)
(-0.0018646 0.0048923 -5.91078e-18)
(-0.00168424 0.00490049 -6.27974e-18)
(-0.00150463 0.00490761 -2.28038e-18)
(-0.00132573 0.00491374 -2.37216e-18)
(-0.00114749 0.00491892 -4.38417e-18)
(-0.000969848 0.00492322 -4.38358e-18)
(-0.000792743 0.0049267 -6.39287e-18)
(-0.000616089 0.00492941 -9.81646e-18)
(-0.00362032 0.00580625 5.65395e-18)
(-0.00444169 0.00482023 3.48564e-18)
(-0.00423933 0.00485567 4.60681e-18)
(-0.00404172 0.0048853 7.68132e-18)
(-0.00384508 0.0049128 9.03872e-18)
(-0.00364948 0.00493831 6.95407e-18)
(-0.00345492 0.00496194 3.62252e-18)
(-0.00326141 0.0049838 -5.14941e-20)
(-0.0030689 0.00500401 -2.15377e-18)
(-0.00287735 0.00502263 -2.82962e-18)
(-0.00268672 0.00503974 -2.90668e-18)
(-0.00249697 0.00505538 -1.77115e-18)
(-0.00230804 0.00506959 -2.35421e-18)
(-0.00211992 0.00508242 -5.85098e-18)
(-0.00193256 0.00509391 -7.01698e-18)
(-0.00174593 0.0051041 -4.74276e-18)
(-0.00156 0.00511305 -1.65955e-18)
(-0.00137473 0.00512082 -3.54597e-18)
(-0.00119007 0.00512745 -5.53175e-18)
(-0.00100597 0.00513301 -5.73095e-18)
(-0.00378026 0.00594743 4.47898e-18)
(-0.00458489 0.00497788 3.70516e-18)
(-0.0043776 0.00501771 4.64384e-18)
(-0.00417471 0.00505175 8.52118e-18)
(-0.00397265 0.00508348 9.75684e-18)
(-0.00377148 0.00511301 5.99147e-18)
(-0.00357124 0.00514046 2.13475e-18)
(-0.00337193 0.00516592 -5.35457e-19)
(-0.00317353 0.00518951 -3.56954e-18)
(-0.00297601 0.00521129 -4.08967e-18)
(-0.00277935 0.00523135 -2.10739e-18)
(-0.0025835 0.00524974 5.21545e-19)
(-0.00238844 0.0052665 -2.54186e-18)
(-0.00219412 0.00528169 -8.09357e-18)
(-0.00200052 0.00529536 -8.34257e-18)
(-0.00180761 0.00530754 -4.20445e-18)
(-0.00161535 0.0053183 -2.42086e-18)
(-0.00142371 0.00532769 -4.90142e-18)
(-0.00123263 0.00533575 -5.88058e-18)
(-0.00394012 0.0060892 2.96177e-18)
(-0.00472831 0.00513574 3.83269e-18)
(-0.00451602 0.00517992 4.26442e-18)
(-0.00430782 0.00521831 6.99415e-18)
(-0.00410032 0.00525422 7.49059e-18)
(-0.00389358 0.00528774 4.06538e-18)
(-0.00368766 0.00531897 2.45273e-18)
(-0.00348255 0.00534801 7.6273e-19)
(-0.00327826 0.00537496 -4.38842e-18)
(-0.00307477 0.0053999 -4.95451e-18)
(-0.00287207 0.0054229 -2.1961e-18)
(-0.00267012 0.00544404 3.43236e-19)
(-0.0024689 0.00546335 -3.9359e-18)
(-0.00226838 0.0054809 -9.43948e-18)
(-0.00206853 0.00549673 -7.97989e-18)
(-0.00186932 0.0055109 -3.40769e-18)
(-0.00167072 0.00552346 -4.03998e-18)
(-0.00410001 0.00623165 6.13874e-18)
(-0.00487202 0.0052939 4.94363e-18)
(-0.00465469 0.00534241 4.04573e-18)
(-0.00444114 0.00538511 5.72299e-18)
(-0.00422817 0.00542515 5.36817e-18)
(-0.00401584 0.00546262 2.84585e-18)
(-0.00380422 0.0054976 3.47266e-18)
(-0.0035933 0.00553019 1.20206e-18)
(-0.00338312 0.00556049 -5.08591e-18)
(-0.00317366 0.00558857 -6.04081e-18)
(-0.0029649 0.00561452 -2.39428e-18)
(-0.00275685 0.00563839 3.3282e-19)
(-0.00254946 0.00566024 -4.29456e-18)
(-0.00234272 0.00568014 -9.30545e-18)
(-0.00426002 0.00637487 7.86935e-18)
(-0.00501612 0.00545249 6.12706e-18)
(-0.00479369 0.00550529 4.31973e-18)
(-0.00457475 0.00555226 5.28733e-18)
(-0.00435627 0.0055964 4.05467e-18)
(-0.00413834 0.00563777 2.47054e-18)
(-0.00392099 0.00567648 4.04228e-18)
(-0.00370425 0.00571259 1.41961e-18)
(-0.00348816 0.00574622 -4.79917e-18)
(-0.00327271 0.00577743 -7.24622e-18)
(-0.00305789 0.0058063 -3.16107e-18)
(-0.00284371 0.0058329 -1.06157e-18)
(-0.00442027 0.00651893 5.45593e-18)
(-0.00516071 0.00561159 6.57527e-18)
(-0.0049331 0.00566866 4.9844e-18)
(-0.00470873 0.00571988 5.36601e-18)
(-0.00448471 0.00576807 3.24703e-18)
(-0.00426113 0.00581333 2.55165e-18)
(-0.00403803 0.00585572 3.71214e-18)
(-0.00381545 0.00589534 1.21321e-18)
(-0.00359343 0.00593226 -5.58736e-18)
(-0.00337197 0.00596658 -8.48941e-18)
(-0.00458085 0.00666391 5.07874e-18)
(-0.00530585 0.0057713 6.85362e-18)
(-0.00507301 0.00583262 5.31077e-18)
(-0.00484316 0.00588805 4.63281e-18)
(-0.00461356 0.00594028 2.28884e-18)
(-0.00438429 0.00598938 2.43167e-18)
(-0.00415541 0.00603544 2.8457e-18)
(-0.00392696 0.00607853 3.24711e-19)
(-0.00369898 0.00611874 -6.18856e-18)
(-0.00474185 0.0068099 7.0009e-18)
(-0.00545163 0.0059317 7.71497e-18)
(-0.00521349 0.00599726 6.38499e-18)
(-0.00497811 0.00605688 4.79353e-18)
(-0.00474288 0.00611311 1.74241e-18)
(-0.00450788 0.00616604 6.40118e-19)
(-0.00427318 0.00621574 3.3244e-19)
(-0.00403883 0.00626229 -1.359e-18)
(-0.00490335 0.00695695 9.67881e-18)
(-0.00559812 0.00609289 9.24858e-18)
(-0.00535463 0.00616268 6.73369e-18)
(-0.00511366 0.00622646 4.58323e-18)
(-0.00487275 0.00628668 1.77671e-18)
(-0.00463198 0.00634341 -8.53034e-19)
(-0.00439142 0.00639673 -1.9712e-18)
(-0.00506546 0.00710515 1.18073e-17)
(-0.00574542 0.00625496 9.5512e-18)
(-0.00549649 0.00632896 6.50597e-18)
(-0.00524989 0.00639689 4.30573e-18)
(-0.00500324 0.00646108 1.58461e-18)
(-0.00475665 0.00652159 -2.07239e-18)
(-0.00522825 0.00725456 1.21958e-17)
(-0.00589358 0.00641797 7.62053e-18)
(-0.00563916 0.00649619 5.36507e-18)
(-0.00538685 0.00656825 4.06015e-18)
(-0.00513442 0.00663639 1.64901e-18)
(-0.00488196 0.00670067 -3.2089e-18)
(-0.00539181 0.00740526 7.38983e-18)
(-0.00604269 0.00658203 5.12655e-18)
(-0.0057827 0.00666446 4.50933e-18)
(-0.00552464 0.00674063 3.58382e-18)
(-0.00526636 0.00681271 9.86284e-19)
(-0.00555624 0.00755731 -1.50961e-18)
(-0.00619282 0.0067472 1.82192e-18)
(-0.00592719 0.00683384 3.12591e-18)
(-0.0056633 0.00691413 2.70659e-18)
(-0.0057216 0.00771079 -6.12318e-18)
(-0.00634405 0.00691358 -1.2358e-19)
(-0.0060727 0.00700442 1.91043e-18)
(-0.00580293 0.00708882 1.72981e-18)
(-0.00588799 0.00786577 -5.19933e-18)
(-0.00649644 0.00708124 -8.29582e-19)
(-0.00621931 0.00717629 7.71142e-19)
(-0.00605549 0.00802231 -3.35387e-18)
(-0.00665008 0.00725026 -1.42347e-18)
(-0.00636708 0.00734953 3.04577e-19)
(-0.00622418 0.00818049 -3.70172e-18)
(-0.00680503 0.00742072 -2.05323e-18)
(-0.00651609 0.00752422 1.03967e-19)
(-0.00639415 0.00834039 -6.9053e-18)
(-0.00696138 0.00759272 -2.82381e-18)
(-0.0066664 0.00770044 -5.81703e-19)
(-0.00656548 0.00850207 -8.54836e-18)
(-0.00711919 0.00776632 -2.63146e-18)
(-0.0068181 0.00787829 -9.37082e-19)
(-0.00673826 0.00866562 -6.00602e-18)
(-0.00727854 0.00794161 -1.61818e-18)
(-0.00697125 0.00805784 -1.87241e-18)
(-0.00691256 0.0088311 -2.36315e-18)
(-0.00743951 0.00811868 1.97321e-19)
(-0.00712594 0.00823918 -2.33892e-18)
(-0.00708847 0.00899859 8.84255e-19)
(-0.00760218 0.00829761 2.45053e-18)
(-0.00728222 0.0084224 -2.58304e-18)
(-0.00726609 0.00916818 5.72454e-18)
(-0.00776662 0.00847848 5.03032e-18)
(-0.00744019 0.00860759 -2.66254e-18)
(-0.00744549 0.00933993 9.91437e-18)
(-0.00793291 0.00866139 6.29795e-18)
(-0.00759991 0.00879483 -2.15908e-18)
(-0.00762676 0.00951394 1.05872e-17)
(-0.00810114 0.00884642 7.07433e-18)
(-0.00776146 0.00898422 -3.37238e-19)
(-0.00781 0.00969029 8.20104e-18)
(-0.00827138 0.00903365 7.04467e-18)
(-0.00792493 0.00917584 1.2565e-18)
(-0.0079953 0.00986906 5.19468e-18)
(-0.00844371 0.00922319 6.8582e-18)
(-0.00809039 0.00936979 2.01798e-18)
(-0.00818274 0.0100503 3.23108e-18)
(-0.00861823 0.00941513 5.826e-18)
(-0.00825792 0.00956617 1.97272e-18)
(-0.00303117 0.00137842 2.86426e-18)
(-0.00379148 0.00146771 4.61701e-18)
(-0.00405507 0.00163696 1.67829e-18)
(-0.0042309 0.00181202 5.43455e-18)
(-0.00438724 0.00198454 6.27882e-18)
(-0.00453598 0.0021543 4.06192e-18)
(-0.00468078 0.00232183 1.0995e-18)
(-0.00482334 0.00248758 5.69658e-18)
(-0.00496458 0.00265192 1.17893e-17)
(-0.00510507 0.0028151 8.58254e-18)
(-0.00524517 0.00297734 6.33644e-18)
(-0.00538516 0.00313883 7.57143e-18)
(-0.00552524 0.00329973 1.80939e-18)
(-0.00566556 0.00346018 1.06371e-18)
(-0.00580625 0.00362032 7.16502e-18)
(-0.00594743 0.00378026 4.32196e-18)
(-0.0060892 0.00394012 1.19371e-18)
(-0.00623165 0.0041 3.94633e-18)
(-0.00637487 0.00426002 6.89546e-18)
(-0.00651893 0.00442027 5.8394e-18)
(-0.00666392 0.00458085 7.57689e-18)
(-0.0068099 0.00474184 1.05012e-17)
(-0.00695695 0.00490335 1.20619e-17)
(-0.00710515 0.00506546 1.15631e-17)
(-0.00725457 0.00522825 7.7673e-18)
(-0.00740526 0.00539181 1.10275e-18)
(-0.00755732 0.00555623 -5.4844e-18)
(-0.00771079 0.0057216 -6.8747e-18)
(-0.00786577 0.00588799 -3.65755e-18)
(-0.00802231 0.00605549 -1.48048e-18)
(-0.0081805 0.00622418 -2.66416e-18)
(-0.00834039 0.00639415 -6.14731e-18)
(-0.00850208 0.00656548 -7.819e-18)
(-0.00866562 0.00673825 -5.37156e-18)
(-0.0088311 0.00691256 -9.77196e-19)
(-0.00899859 0.00708847 3.26842e-18)
(-0.00916818 0.00726609 7.39708e-18)
(-0.00933994 0.00744549 1.05069e-17)
(-0.00951395 0.00762676 1.00843e-17)
(-0.00969029 0.00781 7.22669e-18)
(-0.00986906 0.0079953 4.55847e-18)
(-0.0100503 0.00818274 3.29026e-18)
(-0.00192814 0.00255362 -1.00551e-17)
(-0.00261535 0.00257653 2.15708e-19)
(-0.00283323 0.00269577 2.86305e-18)
(-0.00302773 0.00284126 2.26263e-18)
(-0.00320801 0.00299141 2.58107e-18)
(-0.0033795 0.00314082 1.48826e-18)
(-0.00354585 0.00328865 2.85178e-18)
(-0.00370907 0.00343507 6.59049e-18)
(-0.00387026 0.00358039 1.15869e-17)
(-0.00403007 0.00372488 1.31495e-17)
(-0.00418894 0.00386878 1.14786e-17)
(-0.00434719 0.00401226 8.10946e-18)
(-0.00450503 0.00415549 5.46874e-18)
(-0.00466266 0.00429859 3.63616e-18)
(-0.00482023 0.00444169 5.51001e-18)
(-0.00497788 0.00458489 5.75502e-18)
(-0.00513574 0.00472831 5.76491e-18)
(-0.00529391 0.00487202 6.50399e-18)
(-0.00545249 0.00501612 7.30467e-18)
(-0.00561159 0.0051607 6.5892e-18)
(-0.0057713 0.00530584 6.60313e-18)
(-0.0059317 0.00545162 7.86962e-18)
(-0.0060929 0.00559812 8.96289e-18)
(-0.00625496 0.00574541 9.90978e-18)
(-0.00641798 0.00589358 9.03427e-18)
(-0.00658203 0.00604269 5.47316e-18)
(-0.00674721 0.00619282 8.97699e-19)
(-0.00691358 0.00634405 -1.55429e-18)
(-0.00708124 0.00649644 -1.90747e-18)
(-0.00725026 0.00665008 -1.91222e-18)
(-0.00742073 0.00680503 -2.25182e-18)
(-0.00759272 0.00696138 -2.93151e-18)
(-0.00776632 0.00711919 -3.08769e-18)
(-0.00794161 0.00727854 -2.32917e-18)
(-0.00811868 0.00743951 -9.79874e-19)
(-0.00829761 0.00760218 1.5319e-18)
(-0.00847848 0.00776662 4.41253e-18)
(-0.00866139 0.00793291 6.36235e-18)
(-0.00884642 0.00810114 7.57162e-18)
(-0.00903365 0.00827138 8.301e-18)
(-0.0092232 0.00844371 8.24231e-18)
(-0.00941513 0.00861823 6.93408e-18)
(-0.00204076 0.00240944 1.90473e-17)
(-0.00262276 0.00248398 1.49843e-18)
(-0.00282119 0.00258099 3.63782e-18)
(-0.00300916 0.00270525 2.45917e-18)
(-0.00319281 0.00284246 2.35762e-18)
(-0.00337021 0.00298367 1.80791e-18)
(-0.00354253 0.00312537 3.991e-18)
(-0.00371133 0.0032665 7.83333e-18)
(-0.00387775 0.00340688 1.13415e-17)
(-0.00404254 0.00354657 1.35311e-17)
(-0.00420621 0.0036857 1.26365e-17)
(-0.00436912 0.00382441 1.03583e-17)
(-0.00453153 0.00396284 9.44737e-18)
(-0.00469366 0.00410111 7.58857e-18)
(-0.00485567 0.00423933 7.15578e-18)
(-0.00501771 0.0043776 7.1529e-18)
(-0.00517992 0.00451602 6.87753e-18)
(-0.00534241 0.00465469 6.83289e-18)
(-0.00550529 0.00479368 6.88787e-18)
(-0.00566866 0.0049331 6.15641e-18)
(-0.00583262 0.005073 5.55354e-18)
(-0.00599727 0.00521349 6.03402e-18)
(-0.00616268 0.00535463 6.33946e-18)
(-0.00632897 0.00549649 6.29535e-18)
(-0.0064962 0.00563916 5.50576e-18)
(-0.00666446 0.0057827 4.76724e-18)
(-0.00683384 0.00592719 3.01987e-18)
(-0.00700442 0.0060727 1.85805e-18)
(-0.00717629 0.00621931 1.30665e-18)
(-0.00734953 0.00636708 8.22118e-19)
(-0.00752422 0.00651608 6.61092e-19)
(-0.00770045 0.0066664 1.22e-19)
(-0.00787829 0.0068181 -6.66652e-19)
(-0.00805784 0.00697125 -1.74297e-18)
(-0.00823919 0.00712593 -2.05279e-18)
(-0.00842241 0.00728222 -1.64295e-18)
(-0.00860759 0.00744019 -1.25368e-18)
(-0.00879483 0.00759991 -3.99534e-19)
(-0.00898422 0.00776146 1.55145e-18)
(-0.00917584 0.00792493 3.62188e-18)
(-0.00936979 0.00809038 4.29169e-18)
(-0.00956617 0.00825792 3.14687e-18)
(-0.00210741 0.00226956 2.35654e-17)
(-0.00262581 0.00237032 3.67083e-18)
(-0.00281207 0.00246955 2.8058e-18)
(-0.00299272 0.0025819 3.99505e-18)
(-0.00317566 0.00270665 2.42268e-18)
(-0.00335638 0.00283805 3.07227e-18)
(-0.00353356 0.00297205 5.04815e-18)
(-0.00370756 0.0031067 7.45398e-18)
(-0.00387913 0.00324122 9.36586e-18)
(-0.00404893 0.00337538 1.1146e-17)
(-0.00421746 0.00350914 1.0328e-17)
(-0.0043851 0.00364257 8.71831e-18)
(-0.00455215 0.00377574 9.882e-18)
(-0.00471882 0.00390876 1.00232e-17)
(-0.0048853 0.00404172 1.04504e-17)
(-0.00505175 0.00417471 1.12973e-17)
(-0.00521832 0.00430782 9.79684e-18)
(-0.00538512 0.00444114 8.13257e-18)
(-0.00555227 0.00457474 6.79179e-18)
(-0.00571988 0.00470872 5.58328e-18)
(-0.00588805 0.00484315 4.45521e-18)
(-0.00605688 0.00497811 4.14111e-18)
(-0.00622646 0.00511366 3.82943e-18)
(-0.00639689 0.00524988 3.31924e-18)
(-0.00656825 0.00538685 2.83884e-18)
(-0.00674064 0.00552463 2.36096e-18)
(-0.00691413 0.0056633 1.57128e-18)
(-0.00708882 0.00580292 1.64832e-18)
(-0.00726479 0.00594357 1.32994e-18)
(-0.00744213 0.00608531 8.05499e-19)
(-0.00762092 0.00622822 2.96097e-19)
(-0.00780125 0.00637235 -5.77188e-19)
(-0.00798321 0.00651779 -1.27089e-18)
(-0.00816688 0.00666461 -1.59687e-18)
(-0.00835235 0.00681287 -1.4243e-18)
(-0.00853971 0.00696265 -7.08084e-19)
(-0.00872906 0.00711401 -1.13842e-19)
(-0.00892047 0.00726704 1.3151e-18)
(-0.00911405 0.0074218 2.84465e-18)
(-0.00930988 0.00757838 3.90617e-18)
(-0.00950807 0.00773685 3.24523e-18)
(-0.00970871 0.00789729 2.55473e-18)
(-0.00215152 0.0021327 1.1324e-17)
(-0.0026232 0.00224406 5.06558e-18)
(-0.00280592 0.00234907 3.47425e-18)
(-0.00298216 0.00245727 4.9549e-18)
(-0.00316325 0.0025734 4.55361e-18)
(-0.00334525 0.00269588 4.11646e-18)
(-0.0035257 0.00282198 5.69327e-18)
(-0.00370389 0.00294969 6.06687e-18)
(-0.00387999 0.00307793 6.82383e-18)
(-0.00405437 0.00320621 8.69652e-18)
(-0.00422745 0.00333432 9.11021e-18)
(-0.00439958 0.00346222 8.29192e-18)
(-0.00457103 0.00358994 9.56964e-18)
(-0.00474204 0.00371754 1.16384e-17)
(-0.00491281 0.00384508 1.21703e-17)
(-0.00508348 0.00397265 1.26473e-17)
(-0.00525422 0.00410031 1.01058e-17)
(-0.00542516 0.00422816 7.5042e-18)
(-0.0055964 0.00435627 5.70935e-18)
(-0.00576808 0.00448471 4.74024e-18)
(-0.00594028 0.00461355 3.51596e-18)
(-0.00611312 0.00474288 2.30406e-18)
(-0.00628669 0.00487275 1.87829e-18)
(-0.00646108 0.00500324 1.01825e-18)
(-0.00663639 0.00513442 8.70842e-19)
(-0.00681271 0.00526636 4.73593e-19)
(-0.00699013 0.00539912 3.15762e-19)
(-0.00716874 0.00553277 -2.79285e-19)
(-0.00734862 0.00566738 -1.45158e-18)
(-0.00752987 0.00580301 -1.71963e-18)
(-0.00771258 0.00593974 -1.8653e-18)
(-0.00789682 0.00607763 -1.93074e-18)
(-0.00808269 0.00621674 -2.01516e-18)
(-0.00827029 0.00635715 -8.22178e-19)
(-0.00845969 0.00649892 2.62936e-19)
(-0.00865099 0.00664212 1.76285e-18)
(-0.00884429 0.00678682 2.80687e-18)
(-0.00903967 0.00693309 3.46324e-18)
(-0.00923723 0.007081 3.44603e-18)
(-0.00943707 0.00723063 4.02452e-18)
(-0.00963928 0.00738205 3.97158e-18)
(-0.00984396 0.00753534 3.88544e-18)
(-0.00218108 0.00200017 5.32411e-18)
(-0.00261428 0.00211405 5.91404e-18)
(-0.00279834 0.00222254 5.29477e-18)
(-0.00297376 0.00232952 6.41753e-18)
(-0.00315394 0.00244022 7.55865e-18)
(-0.00333659 0.00255552 7.01275e-18)
(-0.00351927 0.00267427 6.5291e-18)
(-0.00370075 0.00279505 6.64463e-18)
(-0.00388068 0.00291683 6.43441e-18)
(-0.00405916 0.00303899 8.58735e-18)
(-0.00423643 0.00316123 9.92774e-18)
(-0.00441274 0.0032834 1.05775e-17)
(-0.00458835 0.00340549 1.04659e-17)
(-0.00476348 0.0035275 1.1056e-17)
(-0.00493831 0.00364948 9.72839e-18)
(-0.00511302 0.00377148 8.69153e-18)
(-0.00528774 0.00389358 6.81504e-18)
(-0.00546262 0.00401584 5.38341e-18)
(-0.00563778 0.00413833 4.82199e-18)
(-0.00581333 0.00426112 4.91374e-18)
(-0.00598938 0.00438428 4.5228e-18)
(-0.00616605 0.00450788 2.54941e-18)
(-0.00634342 0.00463198 6.59013e-19)
(-0.00652159 0.00475665 -2.97865e-19)
(-0.00670067 0.00488195 -7.09144e-19)
(-0.00688075 0.00500796 -1.98457e-18)
(-0.00706191 0.00513473 -2.56151e-18)
(-0.00724425 0.00526234 -2.95829e-18)
(-0.00742786 0.00539084 -2.8391e-18)
(-0.00761283 0.00552029 -2.25068e-18)
(-0.00779925 0.00565077 -1.42402e-18)
(-0.00798722 0.00578234 -7.20934e-19)
(-0.00817681 0.00591506 -2.54931e-19)
(-0.00836813 0.00604899 1.04075e-18)
(-0.00856127 0.00618421 1.68222e-18)
(-0.00875631 0.00632077 2.1337e-18)
(-0.00895336 0.00645875 2.011e-18)
(-0.0091525 0.0065982 1.82362e-18)
(-0.00935384 0.00673921 2.22234e-18)
(-0.00955747 0.00688184 2.44271e-18)
(-0.00976349 0.00702616 2.10554e-18)
(-0.00997201 0.00717223 1.37166e-18)
(-0.0022006 0.0018716 -1.82561e-18)
(-0.00260058 0.00198417 7.03613e-18)
(-0.00278796 0.00209327 5.21758e-18)
(-0.00296516 0.00219925 6.07744e-18)
(-0.00314595 0.00230616 7.35749e-18)
(-0.00332953 0.00241576 7.98671e-18)
(-0.00351404 0.00252802 6.75957e-18)
(-0.00369821 0.00264222 7.95104e-18)
(-0.00388143 0.00275757 7.76517e-18)
(-0.00406353 0.00287354 8.66747e-18)
(-0.00424458 0.00298976 8.65999e-18)
(-0.00442476 0.00310606 9.89065e-18)
(-0.00460426 0.00322236 9.10242e-18)
(-0.00478326 0.00333864 8.36359e-18)
(-0.00496194 0.00345492 6.13514e-18)
(-0.00514046 0.00357124 4.69736e-18)
(-0.00531897 0.00368765 4.87867e-18)
(-0.0054976 0.00380421 5.71457e-18)
(-0.00567648 0.00392098 6.2086e-18)
(-0.00585572 0.00403803 5.61149e-18)
(-0.00603544 0.0041554 4.32809e-18)
(-0.00621574 0.00427318 1.95045e-18)
(-0.00639673 0.00439142 1.831e-19)
(-0.00657851 0.00451018 -1.17649e-18)
(-0.00676117 0.00462953 -2.55514e-18)
(-0.00694481 0.00474953 -3.10573e-18)
(-0.00712953 0.00487024 -2.74529e-18)
(-0.00731542 0.00499172 -2.00061e-18)
(-0.00750257 0.00511404 -1.19838e-18)
(-0.00769108 0.00523725 -7.04928e-19)
(-0.00788103 0.00536141 -5.58777e-19)
(-0.00807252 0.0054866 -6.70405e-19)
(-0.00826564 0.00561286 -1.87142e-19)
(-0.0084605 0.00574026 2.65577e-19)
(-0.00865717 0.00586886 5.13533e-19)
(-0.00885575 0.00599873 6.74443e-19)
(-0.00905635 0.00612993 1.06454e-18)
(-0.00925906 0.00626252 1.25649e-18)
(-0.00946397 0.00639656 1.44448e-18)
(-0.00967119 0.00653214 9.38786e-19)
(-0.00988082 0.0066693 5.36417e-19)
(-0.010093 0.00680812 -3.81651e-19)
(-0.00221267 0.00174659 -5.16152e-18)
(-0.00258363 0.00185601 4.75658e-18)