/*--------------------------------*- C++ -*----------------------------------*\
  =========                 |
  \\      /  F ield         | OpenFOAM: The Open Source CFD Toolbox
   \\    /   O peration     | Website:  https://openfoam.org
    \\  /    A nd           | Version:  7
     \\/     M anipulation  |
\*---------------------------------------------------------------------------*/
FoamFile
{
    version     2.0;
    format      ascii;
    class       volVectorField;
    location    "84000";
    object      U;
}
// * * * * * * * * * * * * * * * * * * * * * * * * * * * * * * * * * * * * * //

dimensions      [0 1 -1 0 0 0 0];

internalField   nonuniform List<vector> 
4850
(
(-1.48122e-18 -1.32731e-19 -0.0125933)
(-9.90412e-19 -1.56558e-19 -0.0125935)
(-1.43597e-18 1.47816e-20 -0.0125929)
(-1.15294e-18 7.49903e-20 -0.0125931)
(-5.98605e-19 4.41244e-19 -0.0125933)
(-1.13693e-18 4.04163e-20 -0.0125925)
(-1.28926e-18 1.48157e-19 -0.0125927)
(-6.32374e-19 3.77582e-19 -0.0125929)
(-6.35278e-19 4.13331e-19 -0.0125931)
(-8.59722e-19 2.78173e-19 -0.0125934)
(-1.03137e-18 -9.64569e-20 -0.0125921)
(-1.20725e-18 3.58632e-20 -0.0125923)
(-6.93292e-19 2.21923e-19 -0.0125925)
(-5.3921e-19 2.09426e-19 -0.0125928)
(-7.39281e-19 2.75606e-19 -0.012593)
(-6.26152e-19 3.73814e-19 -0.0125932)
(-1.08153e-18 -1.30549e-19 -0.0125917)
(-1.24015e-18 -1.9339e-20 -0.0125919)
(-7.78109e-19 1.78173e-19 -0.0125922)
(-5.90038e-19 2.96098e-19 -0.0125924)
(-6.70194e-19 1.8713e-20 -0.0125926)
(-5.0383e-19 5.82347e-20 -0.0125928)
(-4.2251e-19 5.10176e-19 -0.012593)
(-9.29123e-19 -3.3509e-19 -0.0125913)
(-1.14515e-18 -1.59816e-19 -0.0125915)
(-8.51214e-19 2.28444e-19 -0.0125918)
(-6.55948e-19 1.12437e-19 -0.012592)
(-7.22641e-19 -1.89235e-19 -0.0125922)
(-4.78444e-19 2.75043e-19 -0.0125924)
(-3.20557e-19 7.51091e-19 -0.0125926)
(-5.40419e-19 8.13281e-19 -0.0125928)
(-8.8979e-19 6.43238e-19 -0.012593)
(-7.78116e-19 -6.35111e-19 -0.0125909)
(-1.00554e-18 -1.3878e-19 -0.0125911)
(-8.96555e-19 2.07328e-19 -0.0125914)
(-7.43299e-19 -3.33574e-21 -0.0125916)
(-6.46698e-19 -8.81044e-20 -0.0125918)
(-4.52043e-19 5.87686e-19 -0.012592)
(-3.35808e-19 8.31524e-19 -0.0125922)
(-5.47705e-19 4.99082e-19 -0.0125924)
(-8.71019e-19 6.9916e-20 -0.0125926)
(-9.19083e-19 2.41406e-20 -0.0125928)
(-7.48684e-19 -5.606e-19 -0.0125905)
(-8.46177e-19 7.89279e-21 -0.0125907)
(-8.58543e-19 9.83211e-20 -0.012591)
(-9.4288e-19 1.64904e-19 -0.0125912)
(-7.12527e-19 1.11107e-19 -0.0125914)
(-3.66598e-19 6.67049e-19 -0.0125916)
(-4.13031e-19 7.56508e-19 -0.0125918)
(-5.92784e-19 1.23701e-19 -0.012592)
(-8.53543e-19 -1.37402e-19 -0.0125922)
(-8.69492e-19 -3.84638e-20 -0.0125924)
(-9.19886e-19 4.01867e-20 -0.0125926)
(-1.02547e-18 1.02959e-19 -0.0125928)
(-8.52406e-19 -1.11709e-19 -0.012593)
(-1.08833e-18 -1.4636e-19 -0.0125931)
(-9.85434e-19 -1.23314e-19 -0.0125901)
(-7.72551e-19 2.98626e-20 -0.0125903)
(-6.83513e-19 -6.22784e-20 -0.0125905)
(-7.9264e-19 -5.89719e-20 -0.0125908)
(-7.62271e-19 1.72077e-19 -0.012591)
(-3.27914e-19 6.1395e-19 -0.0125912)
(-5.27226e-19 6.3586e-19 -0.0125914)
(-7.54253e-19 5.76833e-21 -0.0125916)
(-8.86895e-19 -1.70078e-19 -0.0125918)
(-8.51678e-19 -1.40328e-19 -0.012592)
(-8.46459e-19 -1.90199e-19 -0.0125922)
(-9.87206e-19 -6.82207e-20 -0.0125924)
(-9.54548e-19 9.66221e-20 -0.0125926)
(-1.13883e-18 3.15833e-20 -0.0125927)
(-1.51062e-18 1.15198e-20 -0.0125929)
(-1.6332e-18 -2.24651e-19 -0.012593)
(-1.89265e-18 -3.89329e-20 -0.0125932)
(-1.45743e-18 2.92158e-19 -0.0125933)
(-1.13494e-18 9.4245e-20 -0.0125897)
(-9.18188e-19 1.35231e-20 -0.0125899)
(-7.51574e-19 -1.87353e-19 -0.0125901)
(-5.90507e-19 -3.47165e-19 -0.0125904)
(-6.06962e-19 1.16573e-19 -0.0125906)
(-1.94951e-19 3.99626e-19 -0.0125908)
(-4.33318e-19 2.04648e-19 -0.012591)
(-8.90858e-19 -5.48381e-20 -0.0125912)
(-9.56922e-19 -2.35003e-19 -0.0125914)
(-8.9801e-19 -2.78373e-19 -0.0125916)
(-8.31337e-19 -3.14358e-19 -0.0125918)
(-8.39725e-19 -2.74128e-19 -0.012592)
(-9.34438e-19 1.53434e-19 -0.0125922)
(-1.14516e-18 -3.60378e-20 -0.0125923)
(-1.59188e-18 1.36357e-19 -0.0125925)
(-1.66825e-18 -1.39354e-19 -0.0125926)
(-1.87281e-18 3.277e-20 -0.0125928)
(-1.60864e-18 7.92975e-21 -0.0125929)
(-7.59994e-19 -4.94507e-19 -0.012593)
(-8.63698e-19 -2.46134e-19 -0.0125931)
(-1.06953e-18 -4.20025e-20 -0.0125893)
(-1.01308e-18 4.39036e-20 -0.0125895)
(-8.75689e-19 -1.9557e-19 -0.0125897)
(-6.23765e-19 -2.68114e-19 -0.01259)
(-5.16435e-19 -7.4045e-22 -0.0125902)
(-2.12072e-19 1.42118e-19 -0.0125904)
(-1.24277e-19 -5.77883e-19 -0.0125906)
(-7.68715e-19 -3.46298e-19 -0.0125908)
(-1.01672e-18 -3.538e-19 -0.012591)
(-9.46024e-19 -3.37088e-19 -0.0125912)
(-8.79438e-19 -3.92959e-19 -0.0125914)
(-7.20799e-19 -4.37269e-19 -0.0125916)
(-8.46293e-19 -5.05089e-22 -0.0125918)
(-1.05372e-18 -2.462e-19 -0.0125919)
(-1.62303e-18 2.82042e-19 -0.0125921)
(-1.74011e-18 -1.82007e-19 -0.0125922)
(-1.90729e-18 -1.28856e-19 -0.0125924)
(-1.84104e-18 -3.50377e-19 -0.0125925)
(-8.84886e-19 -8.16e-19 -0.0125926)
(-6.96586e-19 -4.02048e-19 -0.0125927)
(-9.28917e-19 -5.87014e-21 -0.0125928)
(-8.25942e-19 1.04872e-19 -0.0125928)
(-9.30075e-19 -2.92908e-19 -0.0125929)
(-3.34212e-19 -1.06507e-18 -0.0125929)
(-9.23488e-19 -2.08225e-19 -0.0125889)
(-1.08027e-18 1.33401e-19 -0.0125891)
(-9.76335e-19 -2.05943e-19 -0.0125893)
(-7.048e-19 -1.87371e-19 -0.0125895)
(-5.32665e-19 -6.31081e-21 -0.0125898)
(-4.40197e-19 -2.08832e-20 -0.01259)
(-1.21111e-19 -8.99788e-19 -0.0125902)
(-4.82117e-19 -5.09082e-19 -0.0125904)
(-9.554e-19 -3.89952e-19 -0.0125906)
(-1.00199e-18 -4.05288e-19 -0.0125908)
(-9.58511e-19 -4.77937e-19 -0.012591)
(-7.23943e-19 -3.64626e-19 -0.0125912)
(-7.72215e-19 -2.15836e-19 -0.0125914)
(-8.86784e-19 -3.88476e-19 -0.0125915)
(-1.56929e-18 2.55764e-19 -0.0125917)
(-1.89076e-18 -2.32666e-19 -0.0125918)
(-1.98661e-18 -2.53827e-19 -0.012592)
(-2.06424e-18 -5.14563e-19 -0.0125921)
(-1.02525e-18 -4.23834e-19 -0.0125922)
(-6.30119e-19 -6.64249e-20 -0.0125923)
(-9.61916e-19 -9.11549e-20 -0.0125924)
(-9.31545e-19 -2.06531e-19 -0.0125924)
(-1.21858e-18 -4.19743e-19 -0.0125925)
(-6.20141e-19 -6.54029e-19 -0.0125925)
(-2.19388e-19 -6.76102e-19 -0.0125925)
(-2.20359e-18 -4.54556e-19 -0.0125925)
(-3.26236e-18 1.11222e-19 -0.0125925)
(-1.66753e-18 3.45995e-19 -0.0125925)
(-1.01754e-18 5.39005e-19 -0.0125924)
(-8.26173e-19 -1.88796e-19 -0.0125885)
(-1.04119e-18 2.23019e-19 -0.0125887)
(-1.10644e-18 -1.4431e-19 -0.0125889)
(-7.7882e-19 -4.58911e-20 -0.0125891)
(-6.72175e-19 2.38842e-19 -0.0125893)
(-7.25749e-19 3.91284e-20 -0.0125896)
(-4.77056e-19 -4.28083e-19 -0.0125898)
(-4.42849e-19 -3.50697e-19 -0.01259)
(-9.18784e-19 -4.45501e-19 -0.0125902)
(-1.03777e-18 -4.77228e-19 -0.0125904)
(-9.99437e-19 -4.18766e-19 -0.0125906)
(-7.91059e-19 -2.06256e-19 -0.0125908)
(-8.20215e-19 -3.19841e-19 -0.012591)
(-7.59124e-19 -4.096e-19 -0.0125911)
(-1.39104e-18 -1.46318e-19 -0.0125913)
(-2.05576e-18 3.43401e-20 -0.0125914)
(-2.10304e-18 -2.27066e-19 -0.0125916)
(-2.17378e-18 -6.62524e-20 -0.0125917)
(-1.05075e-18 5.04912e-20 -0.0125918)
(-7.38159e-19 1.30759e-19 -0.0125919)
(-1.11463e-18 -3.91612e-21 -0.0125919)
(-1.12433e-18 9.50502e-20 -0.012592)
(-1.3251e-18 -3.39774e-19 -0.0125921)
(-7.38311e-19 -5.03863e-20 -0.0125921)
(-3.94707e-19 -3.92502e-19 -0.0125921)
(-2.24156e-18 -3.04313e-19 -0.0125921)
(-3.28265e-18 2.363e-19 -0.0125921)
(-1.81955e-18 6.22072e-19 -0.0125921)
(-1.18697e-18 8.00374e-19 -0.012592)
(-1.87633e-18 1.32471e-18 -0.0125919)
(-1.51942e-18 1.35308e-18 -0.0125919)
(-1.18937e-18 1.26331e-18 -0.0125918)
(-8.64904e-19 1.13922e-19 -0.0125881)
(-7.82402e-19 -4.8249e-20 -0.0125883)
(-1.1571e-18 -7.45399e-20 -0.0125885)
(-8.30708e-19 1.69578e-19 -0.0125887)
(-7.45358e-19 4.18936e-19 -0.0125889)
(-8.57493e-19 2.75844e-20 -0.0125892)
(-7.78083e-19 -1.3668e-19 -0.0125894)
(-5.39263e-19 -3.9199e-19 -0.0125896)
(-9.31402e-19 -5.31849e-19 -0.0125898)
(-1.05062e-18 -4.85175e-19 -0.01259)
(-1.07434e-18 -1.85522e-19 -0.0125902)
(-8.73506e-19 -9.26024e-20 -0.0125904)
(-9.06196e-19 -3.35204e-19 -0.0125905)
(-8.07396e-19 -3.85051e-19 -0.0125907)
(-1.07338e-18 -6.09488e-19 -0.0125909)
(-2.02289e-18 1.93751e-19 -0.012591)
(-2.12836e-18 -2.43862e-19 -0.0125911)
(-2.30469e-18 4.40754e-19 -0.0125913)
(-1.28193e-18 3.26359e-19 -0.0125914)
(-7.92528e-19 7.88226e-20 -0.0125915)
(-1.10627e-18 5.19618e-20 -0.0125915)
(-1.27788e-18 4.62651e-19 -0.0125916)
(-1.48333e-18 -4.17073e-20 -0.0125916)
(-9.03068e-19 1.53908e-19 -0.0125917)
(-6.33459e-19 -2.09877e-19 -0.0125917)
(-2.32317e-18 -2.76434e-19 -0.0125917)
(-3.30588e-18 1.05296e-19 -0.0125917)
(-1.90504e-18 7.72188e-19 -0.0125916)
(-1.35084e-18 1.05673e-18 -0.0125916)
(-2.05082e-18 1.58435e-18 -0.0125915)
(-1.76511e-18 1.91257e-18 -0.0125915)
(-1.69286e-18 2.31944e-18 -0.0125914)
(-1.3339e-18 8.97171e-19 -0.0125913)
(-5.68616e-18 2.57549e-18 -0.0125911)
(-1.03053e-18 2.81109e-19 -0.0125877)
(-6.33039e-19 -2.47895e-19 -0.0125879)
(-1.00074e-18 4.98753e-20 -0.0125881)
(-7.63449e-19 2.02417e-19 -0.0125883)
(-6.73053e-19 1.27841e-19 -0.0125885)
(-8.97604e-19 -1.94976e-19 -0.0125887)
(-9.21883e-19 -2.07786e-19 -0.012589)
(-6.93134e-19 -3.47336e-19 -0.0125892)
(-8.88664e-19 -6.6599e-19 -0.0125894)
(-9.76582e-19 -4.72425e-19 -0.0125896)
(-1.02312e-18 -2.0784e-19 -0.0125898)
(-1.03875e-18 7.67946e-20 -0.01259)
(-1.03118e-18 -2.71438e-19 -0.0125901)
(-9.50273e-19 -3.35343e-19 -0.0125903)
(-8.88634e-19 -8.65621e-19 -0.0125904)
(-1.82007e-18 -1.65207e-19 -0.0125906)
(-2.04199e-18 -3.97523e-19 -0.0125907)
(-2.16619e-18 2.7697e-19 -0.0125908)
(-1.46716e-18 1.93004e-19 -0.0125909)
(-9.83916e-19 8.53779e-20 -0.012591)
(-1.04411e-18 -2.04112e-20 -0.0125911)
(-1.30414e-18 2.49859e-19 -0.0125912)
(-1.65284e-18 9.53799e-20 -0.0125912)
(-1.03521e-18 9.62239e-20 -0.0125913)
(-8.73089e-19 -8.39809e-20 -0.0125913)
(-2.51893e-18 -2.94786e-19 -0.0125913)
(-3.31181e-18 1.14957e-19 -0.0125913)
(-1.92123e-18 1.21808e-18 -0.0125912)
(-1.53657e-18 1.27321e-18 -0.0125912)
(-2.304e-18 1.66919e-18 -0.0125911)
(-1.98055e-18 1.98382e-18 -0.012591)
(-2.23675e-18 3.01687e-18 -0.0125909)
(-1.94076e-18 1.54351e-18 -0.0125908)
(-8.6799e-18 3.04547e-18 -0.0125907)
(-1.08545e-18 3.47824e-19 -0.0125872)
(-7.74789e-19 -1.69982e-20 -0.0125874)
(-8.93052e-19 9.35383e-20 -0.0125877)
(-7.53142e-19 1.41289e-19 -0.0125879)
(-5.08554e-19 -2.75342e-19 -0.0125881)
(-8.23038e-19 -3.54574e-19 -0.0125883)
(-9.48413e-19 -2.50132e-19 -0.0125886)
(-8.83194e-19 -3.37464e-19 -0.0125888)
(-9.55703e-19 -8.10533e-19 -0.012589)
(-9.3673e-19 -5.16104e-19 -0.0125892)
(-8.67949e-19 -3.34384e-19 -0.0125894)
(-1.03256e-18 1.51575e-19 -0.0125895)
(-1.17129e-18 -2.1722e-19 -0.0125897)
(-1.14979e-18 -3.70025e-19 -0.0125899)
(-8.78289e-19 -9.97474e-19 -0.01259)
(-1.60389e-18 -6.45769e-19 -0.0125902)
(-1.93752e-18 -6.34951e-19 -0.0125903)
(-2.04769e-18 -4.44412e-19 -0.0125904)
(-1.4686e-18 -2.93782e-19 -0.0125905)
(-1.04128e-18 1.41809e-19 -0.0125906)
(-1.12072e-18 -1.44182e-19 -0.0125907)
(-1.28302e-18 -1.6916e-19 -0.0125908)
(-1.71044e-18 2.09499e-19 -0.0125908)
(-1.17356e-18 8.61045e-20 -0.0125908)
(-1.07326e-18 -2.18794e-19 -0.0125909)
(-2.66953e-18 -4.84021e-19 -0.0125909)
(-3.1654e-18 1.88923e-19 -0.0125908)
(-1.95683e-18 1.54997e-18 -0.0125908)
(-1.95082e-18 1.18073e-18 -0.0125908)
(-2.68287e-18 1.31545e-18 -0.0125907)
(-2.13661e-18 2.17711e-18 -0.0125906)
(-2.78136e-18 3.10545e-18 -0.0125905)
(-2.73508e-18 2.68078e-18 -0.0125904)
(-1.3681e-17 4.21098e-18 -0.0125903)
(-1.06127e-18 4.00523e-19 -0.0125865)
(-9.02779e-19 1.24112e-19 -0.0125869)
(-8.22388e-19 1.19615e-19 -0.0125872)
(-8.00467e-19 1.15014e-19 -0.0125875)
(-6.16969e-19 -2.60755e-19 -0.0125877)
(-7.71033e-19 -3.80803e-19 -0.0125879)
(-9.70965e-19 -3.08662e-19 -0.0125881)
(-9.87817e-19 -4.92197e-19 -0.0125883)
(-1.14184e-18 -6.11057e-19 -0.0125886)
(-8.86353e-19 -5.64098e-19 -0.0125888)
(-7.80562e-19 -2.94617e-19 -0.0125889)
(-8.99873e-19 -1.70389e-19 -0.0125891)
(-1.21459e-18 -3.79248e-19 -0.0125893)
(-1.33165e-18 -4.78557e-19 -0.0125895)
(-9.88282e-19 -1.03717e-18 -0.0125896)
(-1.48216e-18 -9.38468e-19 -0.0125898)
(-1.9494e-18 -7.80269e-19 -0.0125899)
(-1.96065e-18 -8.55683e-19 -0.01259)
(-1.33426e-18 -1.90158e-19 -0.0125901)
(-1.08408e-18 2.96472e-19 -0.0125902)
(-1.26549e-18 -2.0124e-19 -0.0125903)
(-1.20931e-18 -2.8037e-19 -0.0125903)
(-1.66144e-18 1.13968e-19 -0.0125904)
(-1.37837e-18 1.93273e-19 -0.0125904)
(-1.36132e-18 -3.05592e-19 -0.0125904)
(-2.78273e-18 -6.6939e-19 -0.0125904)
(-2.973e-18 6.49699e-19 -0.0125904)
(-2.14279e-18 1.27894e-18 -0.0125904)
(-2.5114e-18 1.15277e-18 -0.0125903)
(-2.93104e-18 9.54756e-19 -0.0125903)
(-2.26888e-18 2.47716e-18 -0.0125902)
(-3.23003e-18 3.07369e-18 -0.0125901)
(-3.34342e-18 4.27363e-18 -0.01259)
(-1.78762e-17 8.85659e-18 -0.0125899)
(-1.02123e-18 3.76815e-19 -0.0125852)
(-9.17794e-19 -3.63083e-20 -0.012586)
(-7.68076e-19 2.07757e-19 -0.0125865)
(-7.67725e-19 1.45625e-19 -0.0125869)
(-7.39489e-19 -9.43797e-20 -0.0125872)
(-8.24119e-19 -3.88735e-19 -0.0125875)
(-1.01742e-18 -3.6042e-19 -0.0125877)
(-1.04771e-18 -4.86494e-19 -0.0125879)
(-1.36792e-18 -4.17981e-19 -0.0125881)
(-9.90721e-19 -5.27641e-19 -0.0125883)
(-7.875e-19 -2.69095e-19 -0.0125885)
(-8.5462e-19 -3.45855e-19 -0.0125887)
(-1.14013e-18 -4.96331e-19 -0.0125889)
(-1.45446e-18 -5.10355e-19 -0.0125891)
(-1.14403e-18 -9.36726e-19 -0.0125892)
(-1.47101e-18 -7.9796e-19 -0.0125894)
(-1.95362e-18 -7.397e-19 -0.0125895)
(-1.95874e-18 -3.66488e-19 -0.0125896)
(-1.22936e-18 3.14689e-19 -0.0125897)
(-1.18785e-18 4.25283e-19 -0.0125898)
(-1.47671e-18 -9.82085e-20 -0.0125899)
(-1.23235e-18 -2.79292e-19 -0.0125899)
(-1.56795e-18 -1.20629e-19 -0.01259)
(-1.46742e-18 3.08174e-19 -0.01259)
(-1.65848e-18 -3.08861e-19 -0.01259)
(-2.71179e-18 -5.83522e-19 -0.01259)
(-2.89828e-18 9.8697e-19 -0.01259)
(-2.47469e-18 9.93091e-19 -0.01259)
(-2.9839e-18 1.27574e-18 -0.0125899)
(-3.15423e-18 1.33089e-18 -0.0125899)
(-2.42782e-18 2.62566e-18 -0.0125898)
(-3.43003e-18 3.3266e-18 -0.0125897)
(-2.87162e-18 5.31645e-18 -0.0125896)
(-1.21907e-17 1.14401e-17 -0.0125895)
(-8.40773e-19 2.83764e-20 -0.0125829)
(-1.08217e-18 -4.40279e-20 -0.0125843)
(-6.66089e-19 4.16795e-19 -0.0125853)
(-7.01637e-19 2.32703e-20 -0.012586)
(-7.98719e-19 -1.83429e-19 -0.0125865)
(-8.5758e-19 -4.18946e-19 -0.0125869)
(-1.09027e-18 -3.4512e-19 -0.0125872)
(-1.11805e-18 -4.42081e-19 -0.0125875)
(-1.5073e-18 -4.32962e-19 -0.0125877)
(-1.20159e-18 -1.3591e-19 -0.0125879)
(-8.78532e-19 3.21535e-20 -0.0125881)
(-9.15148e-19 -2.20005e-19 -0.0125883)
(-1.11546e-18 -4.70642e-19 -0.0125885)
(-1.54476e-18 -4.40018e-19 -0.0125886)
(-1.32535e-18 -4.41087e-19 -0.0125888)
(-1.55006e-18 -4.2889e-19 -0.0125889)
(-1.9185e-18 -4.88448e-19 -0.0125891)
(-1.85136e-18 1.12847e-19 -0.0125892)
(-1.26338e-18 7.30995e-19 -0.0125893)
(-1.34351e-18 4.74986e-19 -0.0125894)
(-1.7304e-18 3.27147e-19 -0.0125895)
(-1.32435e-18 -3.52343e-20 -0.0125895)
(-1.43867e-18 -3.09516e-20 -0.0125896)
(-1.50522e-18 2.69711e-19 -0.0125896)
(-1.92046e-18 -2.63731e-19 -0.0125896)
(-2.69202e-18 -2.81083e-19 -0.0125896)
(-2.93179e-18 7.15275e-19 -0.0125896)
(-2.78248e-18 8.73963e-19 -0.0125896)
(-3.30212e-18 1.27267e-18 -0.0125895)
(-3.35372e-18 1.91849e-18 -0.0125894)
(-2.72327e-18 2.81544e-18 -0.0125894)
(-3.57716e-18 3.69662e-18 -0.0125893)
(-2.38922e-18 5.82551e-18 -0.0125892)
(-7.38559e-18 1.06983e-17 -0.0125891)
(-4.28156e-19 -5.8561e-19 -0.0125789)
(-1.29642e-18 9.51854e-20 -0.0125812)
(-7.39133e-19 4.49463e-19 -0.012583)
(-4.70673e-19 -5.05183e-19 -0.0125843)
(-8.38691e-19 -1.34084e-19 -0.0125853)
(-8.5131e-19 -4.40645e-19 -0.012586)
(-1.18689e-18 -2.79312e-19 -0.0125865)
(-1.22508e-18 -3.6964e-19 -0.0125869)
(-1.61334e-18 -3.00992e-19 -0.0125872)
(-1.32463e-18 4.0315e-19 -0.0125875)
(-1.06236e-18 3.41362e-19 -0.0125877)
(-1.01736e-18 -2.82206e-19 -0.0125879)
(-1.0693e-18 -4.16511e-19 -0.0125881)
(-1.48855e-18 -3.44067e-19 -0.0125882)
(-1.44394e-18 9.13244e-21 -0.0125884)
(-1.7043e-18 -1.34957e-19 -0.0125885)
(-2.03397e-18 1.12907e-19 -0.0125887)
(-1.76942e-18 5.49033e-19 -0.0125888)
(-1.26175e-18 1.10949e-18 -0.0125889)
(-1.3925e-18 4.26124e-19 -0.012589)
(-1.92044e-18 7.60074e-19 -0.012589)
(-1.51197e-18 3.96098e-19 -0.0125891)
(-1.42537e-18 2.7521e-19 -0.0125891)
(-1.51679e-18 1.09519e-19 -0.0125892)
(-2.03918e-18 -1.49225e-19 -0.0125892)
(-2.76638e-18 -7.13567e-20 -0.0125892)
(-3.08213e-18 5.81858e-19 -0.0125892)
(-3.01681e-18 8.20918e-19 -0.0125891)
(-3.52085e-18 1.45305e-18 -0.0125891)
(-3.55657e-18 2.41464e-18 -0.012589)
(-3.034e-18 3.06609e-18 -0.012589)
(-3.75224e-18 4.08207e-18 -0.0125889)
(-2.26294e-18 6.49645e-18 -0.0125888)
(-4.97763e-18 9.4982e-18 -0.0125886)
(-1.80081e-19 -5.96762e-19 -0.0125722)
(-1.21911e-18 -1.14432e-19 -0.0125759)
(-8.2493e-19 2.24215e-19 -0.0125789)
(-5.1921e-19 -6.19494e-19 -0.0125812)
(-9.03765e-19 -2.93016e-20 -0.0125829)
(-8.4472e-19 -4.77303e-19 -0.0125842)
(-1.22807e-18 -2.22648e-19 -0.0125851)
(-1.26972e-18 -2.68299e-19 -0.0125858)
(-1.69803e-18 -5.812e-20 -0.0125863)
(-1.26706e-18 6.9908e-19 -0.0125868)
(-1.17396e-18 2.11611e-19 -0.0125871)
(-1.22862e-18 -2.17336e-19 -0.0125874)
(-1.04113e-18 -2.25843e-19 -0.0125876)
(-1.40325e-18 -3.83341e-19 -0.0125878)
(-1.39561e-18 1.46398e-20 -0.012588)
(-1.70122e-18 3.62114e-20 -0.0125881)
(-2.07486e-18 6.45317e-19 -0.0125882)
(-1.7581e-18 1.03209e-18 -0.0125884)
(-1.37728e-18 1.29191e-18 -0.0125885)
(-1.47758e-18 3.9126e-19 -0.0125885)
(-1.98439e-18 8.47579e-19 -0.0125886)
(-1.64473e-18 6.15315e-19 -0.0125887)
(-1.45738e-18 5.14122e-19 -0.0125887)
(-1.5216e-18 1.27117e-19 -0.0125888)
(-2.10294e-18 6.81814e-21 -0.0125888)
(-2.8729e-18 1.57298e-20 -0.0125888)
(-3.2441e-18 6.68123e-19 -0.0125888)
(-3.19056e-18 9.95877e-19 -0.0125887)
(-3.64921e-18 1.65089e-18 -0.0125887)
(-3.81652e-18 2.81152e-18 -0.0125886)
(-3.41614e-18 3.23238e-18 -0.0125885)
(-3.89875e-18 4.33558e-18 -0.0125885)
(-2.46335e-18 6.89305e-18 -0.0125883)
(-4.08503e-18 8.83416e-18 -0.0125882)
(-1.91964e-19 1.55268e-20 -0.0125624)
(-9.05467e-19 -7.96444e-20 -0.0125677)
(-7.48608e-19 1.08262e-19 -0.0125722)
(-7.90097e-19 -3.05383e-19 -0.0125758)
(-9.99706e-19 1.41527e-19 -0.0125786)
(-8.73567e-19 -3.69258e-19 -0.0125809)
(-1.29247e-18 -3.93655e-20 -0.0125826)
(-1.20036e-18 -3.01077e-19 -0.0125839)
(-1.73379e-18 1.33978e-19 -0.0125848)
(-1.11808e-18 7.45958e-19 -0.0125856)
(-1.0249e-18 -3.89379e-19 -0.0125861)
(-1.4745e-18 1.36383e-19 -0.0125865)
(-1.15171e-18 -4.38964e-20 -0.0125869)
(-1.49061e-18 -3.01335e-19 -0.0125872)
(-1.30416e-18 7.88925e-20 -0.0125874)
(-1.5456e-18 -2.3088e-20 -0.0125876)
(-2.02787e-18 7.85382e-19 -0.0125878)
(-1.73549e-18 1.12627e-18 -0.0125879)
(-1.39161e-18 1.00999e-18 -0.012588)
(-1.54387e-18 3.84048e-19 -0.0125881)
(-2.07654e-18 6.49841e-19 -0.0125882)
(-1.73366e-18 6.37095e-19 -0.0125883)
(-1.4047e-18 5.74882e-19 -0.0125883)
(-1.43418e-18 2.31038e-19 -0.0125883)
(-2.13126e-18 -2.33698e-20 -0.0125884)
(-3.0159e-18 1.38438e-19 -0.0125884)
(-3.39373e-18 7.39657e-19 -0.0125883)
(-3.34022e-18 1.27937e-18 -0.0125883)
(-3.82356e-18 1.70092e-18 -0.0125883)
(-4.12317e-18 3.03836e-18 -0.0125882)
(-3.77414e-18 3.3251e-18 -0.0125881)
(-4.10784e-18 4.52376e-18 -0.012588)
(-2.8496e-18 6.7038e-18 -0.0125879)
(-4.04997e-18 8.13317e-18 -0.0125877)
(-6.93904e-20 1.81204e-19 -0.0125496)
(-7.43628e-19 1.20211e-20 -0.0125564)
(-6.52732e-19 5.00726e-19 -0.0125623)
(-6.62193e-19 1.8045e-19 -0.0125674)
(-1.01203e-18 2.61836e-19 -0.0125717)
(-8.69182e-19 -3.48872e-19 -0.0125752)
(-1.33959e-18 -4.24991e-20 -0.012578)
(-9.87647e-19 -4.51344e-19 -0.0125802)
(-1.60861e-18 2.15544e-19 -0.012582)
(-1.05475e-18 5.48968e-19 -0.0125833)
(-8.2726e-19 -9.5926e-19 -0.0125843)
(-1.55146e-18 2.13011e-19 -0.0125851)
(-1.21572e-18 1.84304e-20 -0.0125857)
(-1.62941e-18 -4.74211e-20 -0.0125862)
(-1.41489e-18 4.89942e-19 -0.0125865)
(-1.34405e-18 -1.65032e-19 -0.0125868)
(-1.8749e-18 7.84175e-19 -0.0125871)
(-1.76951e-18 9.91965e-19 -0.0125873)
(-1.38715e-18 6.07491e-19 -0.0125874)
(-1.56082e-18 2.98483e-19 -0.0125876)
(-2.20377e-18 3.85989e-19 -0.0125877)
(-1.78474e-18 9.25629e-19 -0.0125877)
(-1.26968e-18 6.72366e-19 -0.0125878)
(-1.30391e-18 2.78518e-19 -0.0125878)
(-2.11932e-18 -3.22637e-19 -0.0125879)
(-3.14752e-18 1.13419e-19 -0.0125879)
(-3.53207e-18 7.45191e-19 -0.0125878)
(-3.45667e-18 1.43169e-18 -0.0125878)
(-4.00127e-18 1.50583e-18 -0.0125877)
(-4.44308e-18 3.13511e-18 -0.0125877)
(-4.07264e-18 3.43855e-18 -0.0125876)
(-4.32759e-18 4.66092e-18 -0.0125874)
(-3.30515e-18 6.37849e-18 -0.0125873)
(-4.20035e-18 7.28208e-18 -0.0125871)
(3.50756e-18 1.43966e-17 -0.0125868)
(1.76867e-19 6.23542e-20 -0.012534)
(-6.10477e-19 1.25377e-19 -0.0125421)
(-5.87835e-19 6.43458e-19 -0.0125494)
(-4.59374e-19 2.41264e-19 -0.0125559)
(-9.3001e-19 4.15564e-19 -0.0125616)
(-7.40169e-19 -2.26214e-19 -0.0125665)
(-1.30119e-18 9.1886e-20 -0.0125706)
(-8.14337e-19 -3.02936e-19 -0.0125741)
(-1.3229e-18 -8.85882e-20 -0.0125769)
(-9.67924e-19 2.18904e-19 -0.0125791)
(-8.38884e-19 -8.9511e-19 -0.0125809)
(-1.49525e-18 1.12988e-19 -0.0125823)
(-1.35722e-18 6.56841e-20 -0.0125834)
(-1.69987e-18 5.77195e-20 -0.0125843)
(-1.50692e-18 9.68578e-19 -0.0125849)
(-1.1925e-18 -3.24113e-21 -0.0125855)
(-1.58736e-18 4.81346e-19 -0.0125859)
(-1.85444e-18 5.38315e-19 -0.0125862)
(-1.43077e-18 6.71204e-19 -0.0125865)
(-1.57649e-18 3.15719e-19 -0.0125867)
(-2.31878e-18 4.37626e-19 -0.0125869)
(-1.79336e-18 1.45266e-18 -0.012587)
(-1.18744e-18 8.16917e-19 -0.0125871)
(-1.20843e-18 2.65224e-19 -0.0125871)
(-2.1215e-18 -8.04145e-19 -0.0125872)
(-3.22389e-18 6.80852e-20 -0.0125872)
(-3.60693e-18 7.89753e-19 -0.0125871)
(-3.58543e-18 1.48393e-18 -0.0125871)
(-4.15259e-18 1.10082e-18 -0.012587)
(-4.66107e-18 2.85485e-18 -0.0125868)
(-4.22672e-18 3.48509e-18 -0.0125867)
(-4.53898e-18 4.31582e-18 -0.0125865)
(-3.66043e-18 6.0699e-18 -0.0125862)
(-4.03823e-18 6.8667e-18 -0.0125859)
(3.29566e-18 1.28326e-17 -0.0125854)
(1.19828e-19 1.8945e-19 -0.0125159)
(-4.20998e-19 4.47865e-20 -0.0125252)
(-4.71645e-19 4.81345e-19 -0.0125337)
(-3.20392e-19 2.83643e-19 -0.0125414)
(-8.10437e-19 3.68999e-19 -0.0125484)
(-5.84769e-19 -1.36715e-19 -0.0125546)
(-1.26233e-18 4.17692e-19 -0.0125601)
(-6.98438e-19 9.87081e-20 -0.0125648)
(-9.05696e-19 -3.37757e-19 -0.0125688)
(-8.88642e-19 2.45861e-19 -0.0125722)
(-8.11457e-19 -7.69891e-19 -0.012575)
(-1.47857e-18 8.0461e-20 -0.0125774)
(-1.41914e-18 -9.39863e-20 -0.0125792)
(-1.86476e-18 5.703e-19 -0.0125807)
(-1.50827e-18 1.13631e-18 -0.0125819)
(-1.17793e-18 2.20822e-19 -0.0125829)
(-1.32106e-18 -1.44611e-19 -0.0125836)
(-1.69528e-18 -1.04668e-19 -0.0125842)
(-1.38259e-18 1.01739e-18 -0.0125847)
(-1.57485e-18 1.55416e-19 -0.0125851)
(-2.47601e-18 8.50686e-19 -0.0125854)
(-1.80817e-18 1.73426e-18 -0.0125856)
(-1.1291e-18 9.49569e-19 -0.0125857)
(-1.23834e-18 1.63023e-19 -0.0125858)
(-2.04908e-18 -1.07667e-18 -0.0125859)
(-3.07895e-18 1.00695e-19 -0.0125859)
(-3.61734e-18 8.51801e-19 -0.0125858)
(-3.74074e-18 1.42779e-18 -0.0125857)
(-4.27014e-18 9.70971e-19 -0.0125856)
(-4.72581e-18 2.45436e-18 -0.0125854)
(-4.307e-18 3.39822e-18 -0.0125851)
(-4.5998e-18 3.51324e-18 -0.0125847)
(-3.46512e-18 5.78797e-18 -0.0125842)
(-3.54118e-18 6.47413e-18 -0.0125836)
(2.91366e-18 1.08373e-17 -0.0125828)
(-2.19746e-20 4.59741e-19 -0.0124957)
(-4.26324e-19 -3.70638e-20 -0.012506)
(-3.80535e-19 3.54698e-19 -0.0125155)
(-2.57015e-19 3.02197e-19 -0.0125243)
(-7.82224e-19 2.79592e-19 -0.0125324)
(-3.98849e-19 -1.07106e-19 -0.0125398)
(-1.02728e-18 4.17785e-19 -0.0125465)
(-7.84624e-19 5.66648e-19 -0.0125524)
(-6.73618e-19 -1.83404e-19 -0.0125576)
(-8.22439e-19 5.30866e-19 -0.0125622)
(-8.27903e-19 -3.69098e-19 -0.0125661)
(-1.32971e-18 2.13316e-19 -0.0125695)
(-1.25832e-18 3.66602e-20 -0.0125723)
(-1.85983e-18 8.56517e-19 -0.0125747)
(-1.55606e-18 1.12045e-18 -0.0125766)
(-1.21188e-18 2.56277e-19 -0.0125782)
(-1.24634e-18 -2.7517e-20 -0.0125795)
(-1.58252e-18 -2.80739e-19 -0.0125805)
(-1.21333e-18 8.75046e-19 -0.0125814)
(-1.42005e-18 -2.20143e-19 -0.012582)
(-2.45626e-18 1.01549e-18 -0.0125825)
(-1.80752e-18 1.8298e-18 -0.0125829)
(-1.18376e-18 9.99623e-19 -0.0125832)
(-1.37595e-18 8.25729e-20 -0.0125834)
(-1.96289e-18 -4.71289e-19 -0.0125835)
(-2.77979e-18 -3.40602e-20 -0.0125835)
(-3.50204e-18 7.15269e-19 -0.0125834)
(-3.81022e-18 1.25243e-18 -0.0125832)
(-4.15776e-18 1.08686e-18 -0.0125829)
(-4.56311e-18 2.17168e-18 -0.0125825)
(-4.21557e-18 3.21308e-18 -0.012582)
(-4.2502e-18 3.16048e-18 -0.0125813)
(-2.94852e-18 5.25648e-18 -0.0125805)
(-2.95766e-18 5.11312e-18 -0.0125794)
(4.1796e-20 4.54136e-19 -0.0124736)
(-4.18229e-19 -1.95961e-19 -0.0124847)
(-4.65643e-19 3.39445e-19 -0.0124952)
(-1.36439e-19 1.82101e-19 -0.0125049)
(-8.72723e-19 3.15422e-19 -0.012514)
(-3.21065e-19 -8.821e-20 -0.0125224)
(-7.64688e-19 5.21631e-19 -0.0125301)
(-7.764e-19 8.9852e-19 -0.0125371)
(-6.51396e-19 1.94847e-19 -0.0125434)
(-7.42363e-19 6.7414e-19 -0.012549)
(-8.55298e-19 -9.79264e-20 -0.012554)
(-1.24546e-18 3.87648e-19 -0.0125584)
(-1.00701e-18 3.30075e-19 -0.0125622)
(-1.45741e-18 7.22756e-19 -0.0125655)
(-1.42314e-18 8.94181e-19 -0.0125683)
(-1.19532e-18 4.76097e-19 -0.0125706)
(-1.24595e-18 6.93769e-19 -0.0125726)
(-1.52462e-18 -1.26775e-19 -0.0125742)
(-1.0688e-18 8.49681e-19 -0.0125756)
(-1.25373e-18 -4.65768e-19 -0.0125767)
(-2.31244e-18 9.49683e-19 -0.0125775)
(-1.74226e-18 1.43448e-18 -0.0125782)
(-1.29648e-18 9.67799e-19 -0.0125786)
(-1.45683e-18 2.73947e-19 -0.0125789)
(-1.81841e-18 5.29128e-19 -0.0125791)
(-2.44362e-18 8.62414e-20 -0.0125791)
(-3.2035e-18 8.4673e-19 -0.0125789)
(-3.76021e-18 1.40057e-18 -0.0125786)
(-3.90033e-18 1.42849e-18 -0.0125781)
(-4.2022e-18 1.66041e-18 -0.0125775)
(-3.91558e-18 3.00046e-18 -0.0125766)
(-3.65444e-18 2.89989e-18 -0.0125755)
(-2.44077e-18 4.62042e-18 -0.0125742)
(-2.53355e-18 3.8027e-18 -0.0125725)
(7.92338e-20 3.11357e-19 -0.0124497)
(-3.2408e-19 -4.15112e-19 -0.0124616)
(-6.00217e-19 4.47519e-19 -0.0124729)
(-1.37975e-19 2.02947e-19 -0.0124835)
(-9.52735e-19 3.50346e-19 -0.0124934)
(-4.56552e-19 2.79795e-19 -0.0125027)
(-5.40804e-19 6.42822e-19 -0.0125113)
(-7.61995e-19 1.07697e-18 -0.0125192)
(-6.07792e-19 3.20478e-19 -0.0125264)
(-7.00736e-19 6.80355e-19 -0.012533)
(-8.59728e-19 2.42086e-20 -0.0125389)
(-1.17695e-18 5.21781e-19 -0.0125442)
(-9.09714e-19 5.32329e-19 -0.0125489)
(-1.17737e-18 5.34279e-19 -0.0125531)
(-1.20566e-18 6.66729e-19 -0.0125567)
(-1.02373e-18 6.33263e-19 -0.0125598)
(-1.12006e-18 7.90329e-19 -0.0125625)
(-1.41841e-18 -9.32793e-20 -0.0125648)
(-8.8537e-19 6.80387e-19 -0.0125667)
(-1.00962e-18 -6.10106e-19 -0.0125682)
(-1.95744e-18 8.96147e-19 -0.0125695)
(-1.55581e-18 8.4327e-19 -0.0125705)
(-1.34358e-18 9.09665e-19 -0.0125712)
(-1.48261e-18 5.90901e-19 -0.0125716)
(-1.72083e-18 9.44371e-19 -0.0125718)
(-2.22025e-18 1.24814e-19 -0.0125718)
(-2.99806e-18 9.86386e-19 -0.0125716)
(-3.87534e-18 1.07553e-18 -0.0125711)
(-3.97214e-18 1.78835e-18 -0.0125704)
(-4.1317e-18 1.36102e-18 -0.0125695)
(-3.82016e-18 2.86307e-18 -0.0125682)
(-3.47807e-18 2.8303e-18 -0.0125666)
(-2.49689e-18 4.0797e-18 -0.0125647)
(-2.46872e-18 3.24653e-18 -0.0125624)
(4.57146e-20 1.81148e-19 -0.0124243)
(-1.83018e-19 -6.11256e-19 -0.0124369)
(-6.31939e-19 4.5775e-19 -0.0124489)
(-2.91602e-19 4.28694e-19 -0.0124603)
(-8.99851e-19 2.92382e-19 -0.012471)
(-7.63661e-19 8.096e-19 -0.012481)
(-3.48262e-19 6.16501e-19 -0.0124903)
(-7.67667e-19 1.24599e-18 -0.012499)
(-7.27768e-19 5.71968e-19 -0.0125071)
(-6.94373e-19 7.36051e-19 -0.0125144)
(-9.27088e-19 2.16908e-19 -0.0125212)
(-1.09606e-18 5.19815e-19 -0.0125273)
(-9.19865e-19 7.71861e-19 -0.0125328)
(-1.05438e-18 4.31772e-19 -0.0125377)
(-1.07773e-18 5.72648e-19 -0.0125421)
(-8.81774e-19 6.74095e-19 -0.0125459)
(-8.65096e-19 2.3673e-19 -0.0125492)
(-1.27899e-18 -1.19832e-19 -0.0125521)
(-7.18208e-19 3.70003e-19 -0.0125545)
(-8.22844e-19 -3.20678e-19 -0.0125566)
(-1.6472e-18 9.7548e-19 -0.0125582)
(-1.41091e-18 7.93589e-19 -0.0125595)
(-1.30291e-18 9.2104e-19 -0.0125604)
(-1.4472e-18 8.26223e-19 -0.0125611)
(-1.69197e-18 1.13848e-18 -0.0125614)
(-2.12789e-18 2.81944e-20 -0.0125614)
(-2.98442e-18 1.12743e-18 -0.0125611)
(-4.02677e-18 5.77383e-19 -0.0125604)
(-3.96203e-18 1.70717e-18 -0.0125595)
(-3.98289e-18 1.31174e-18 -0.0125582)
(-3.62294e-18 2.60139e-18 -0.0125565)
(-3.21658e-18 2.59261e-18 -0.0125545)
(-2.38881e-18 3.55869e-18 -0.012552)
(-2.235e-18 2.82144e-18 -0.0125491)
(-5.2081e-20 4.18206e-20 -0.0123975)
(-4.29551e-20 -8.16449e-19 -0.0124108)
(-3.69069e-19 2.5326e-19 -0.0124234)
(-2.04646e-19 2.26845e-19 -0.0124354)
(-7.92426e-19 1.9905e-19 -0.0124468)
(-8.92681e-19 1.04315e-18 -0.0124575)
(-3.72954e-19 8.27216e-19 -0.0124675)
(-5.62475e-19 1.11138e-18 -0.0124769)
(-8.72529e-19 7.94804e-19 -0.0124857)
(-7.83806e-19 8.02442e-19 -0.0124937)
(-9.82582e-19 2.02098e-19 -0.0125012)
(-1.032e-18 5.14866e-19 -0.012508)
(-9.67454e-19 9.51195e-19 -0.0125142)
(-1.03702e-18 4.10719e-19 -0.0125197)
(-9.60605e-19 6.35829e-19 -0.0125247)
(-8.69413e-19 7.39851e-19 -0.0125292)
(-7.78566e-19 7.29118e-20 -0.0125331)
(-1.15974e-18 -8.18111e-20 -0.0125365)
(-5.50376e-19 2.71769e-19 -0.0125394)
(-6.20137e-19 1.10854e-19 -0.0125418)
(-1.39226e-18 9.77187e-19 -0.0125438)
(-1.33848e-18 9.92248e-19 -0.0125454)
(-1.31282e-18 8.9565e-19 -0.0125466)
(-1.41053e-18 8.02806e-19 -0.0125473)
(-1.7348e-18 1.06775e-18 -0.0125477)
(-1.9925e-18 -1.15682e-19 -0.0125477)
(-2.90945e-18 8.41051e-19 -0.0125473)
(-4.11758e-18 5.04703e-19 -0.0125466)
(-3.81703e-18 1.51208e-18 -0.0125454)
(-3.73668e-18 1.20357e-18 -0.0125438)
(-3.33231e-18 2.20601e-18 -0.0125418)
(-2.83865e-18 2.33252e-18 -0.0125393)
(-2.21233e-18 3.31127e-18 -0.0125364)
(-4.14473e-20 -2.05888e-19 -0.0123694)
(-1.31008e-19 -7.8301e-19 -0.0123832)
(-2.19725e-19 4.96187e-20 -0.0123964)
(3.31378e-20 -8.78592e-20 -0.0124091)
(-6.05771e-19 2.04182e-19 -0.012421)
(-6.81896e-19 7.83665e-19 -0.0124324)
(-3.70699e-19 7.74414e-19 -0.012443)
(-3.39214e-19 7.22435e-19 -0.0124531)
(-7.52251e-19 5.94859e-19 -0.0124624)
(-9.04566e-19 8.25819e-19 -0.0124711)
(-1.02281e-18 8.48258e-20 -0.0124792)