/*--------------------------------*- C++ -*----------------------------------*\
  =========                 |
  \\      /  F ield         | OpenFOAM: The Open Source CFD Toolbox
   \\    /   O peration     | Website:  https://openfoam.org
    \\  /    A nd           | Version:  7
     \\/     M anipulation  |
\*---------------------------------------------------------------------------*/
FoamFile
{
    version     2.0;
    format      ascii;
    class       volScalarField;
    location    "32000";
    object      nut;
}
// * * * * * * * * * * * * * * * * * * * * * * * * * * * * * * * * * * * * * //

dimensions      [0 2 -1 0 0 0 0];

internalField   nonuniform List<scalar> 
14100
(
2.60301e-05
2.60578e-05
2.6081e-05
2.60997e-05
2.61144e-05
2.61255e-05
2.61337e-05
2.61395e-05
2.61435e-05
2.6146e-05
2.61474e-05
2.61482e-05
2.61485e-05
2.61486e-05
2.61486e-05
2.61486e-05
2.61486e-05
2.61485e-05
2.61482e-05
2.61474e-05
2.6146e-05
2.61435e-05
2.61395e-05
2.61337e-05
2.61255e-05
2.61144e-05
2.60997e-05
2.6081e-05
2.60578e-05
2.60301e-05
2.59804e-05
2.60118e-05
2.60395e-05
2.60632e-05
2.60831e-05
2.60991e-05
2.61119e-05
2.61217e-05
2.61291e-05
2.61346e-05
2.61385e-05
2.61412e-05
2.6143e-05
2.6144e-05
2.61445e-05
2.61445e-05
2.6144e-05
2.6143e-05
2.61412e-05
2.61385e-05
2.61346e-05
2.61291e-05
2.61217e-05
2.61119e-05
2.60991e-05
2.60831e-05
2.60632e-05
2.60395e-05
2.60118e-05
2.59804e-05
2.59109e-05
2.59501e-05
2.59837e-05
2.6013e-05
2.60381e-05
2.60593e-05
2.60768e-05
2.6091e-05
2.61023e-05
2.61112e-05
2.61178e-05
2.61228e-05
2.61262e-05
2.61284e-05
2.61294e-05
2.61294e-05
2.61284e-05
2.61262e-05
2.61228e-05
2.61178e-05
2.61112e-05
2.61024e-05
2.6091e-05
2.60768e-05
2.60593e-05
2.60381e-05
2.6013e-05
2.59837e-05
2.59501e-05
2.59109e-05
2.58266e-05
2.58735e-05
2.5914e-05
2.59493e-05
2.598e-05
2.60064e-05
2.60287e-05
2.60473e-05
2.60626e-05
2.60748e-05
2.60844e-05
2.60916e-05
2.60968e-05
2.61002e-05
2.61018e-05
2.61018e-05
2.61002e-05
2.60968e-05
2.60916e-05
2.60844e-05
2.60748e-05
2.60626e-05
2.60473e-05
2.60287e-05
2.60064e-05
2.598e-05
2.59493e-05
2.5914e-05
2.58735e-05
2.58266e-05
2.57283e-05
2.57826e-05
2.583e-05
2.58717e-05
2.59082e-05
2.59398e-05
2.5967e-05
2.599e-05
2.60092e-05
2.60249e-05
2.60374e-05
2.6047e-05
2.6054e-05
2.60585e-05
2.60608e-05
2.60608e-05
2.60585e-05
2.6054e-05
2.6047e-05
2.60374e-05
2.60249e-05
2.60092e-05
2.599e-05
2.5967e-05
2.59398e-05
2.59082e-05
2.58717e-05
2.583e-05
2.57826e-05
2.57283e-05
2.56164e-05
2.56778e-05
2.57319e-05
2.578e-05
2.58223e-05
2.58593e-05
2.58914e-05
2.59188e-05
2.5942e-05
2.59611e-05
2.59765e-05
2.59885e-05
2.59972e-05
2.6003e-05
2.60058e-05
2.60058e-05
2.6003e-05
2.59972e-05
2.59885e-05
2.59765e-05
2.59611e-05
2.5942e-05
2.59189e-05
2.58914e-05
2.58593e-05
2.58223e-05
2.578e-05
2.57319e-05
2.56778e-05
2.56164e-05
2.54914e-05
2.55595e-05
2.56202e-05
2.56744e-05
2.57225e-05
2.57649e-05
2.58018e-05
2.58337e-05
2.58607e-05
2.58832e-05
2.59015e-05
2.59158e-05
2.59263e-05
2.59332e-05
2.59367e-05
2.59367e-05
2.59332e-05
2.59263e-05
2.59158e-05
2.59015e-05
2.58832e-05
2.58607e-05
2.58337e-05
2.58018e-05
2.57649e-05
2.57225e-05
2.56744e-05
2.56202e-05
2.55595e-05
2.54914e-05
2.53537e-05
2.54282e-05
2.54952e-05
2.55554e-05
2.56091e-05
2.56567e-05
2.56984e-05
2.57346e-05
2.57654e-05
2.57913e-05
2.58124e-05
2.5829e-05
2.58412e-05
2.58493e-05
2.58533e-05
2.58533e-05
2.58493e-05
2.58412e-05
2.5829e-05
2.58124e-05
2.57913e-05
2.57654e-05
2.57346e-05
2.56984e-05
2.56567e-05
2.56091e-05
2.55554e-05
2.54952e-05
2.54282e-05
2.53537e-05
2.52037e-05
2.52844e-05
2.53573e-05
2.54233e-05
2.54825e-05
2.55351e-05
2.55815e-05
2.56218e-05
2.56564e-05
2.56856e-05
2.57094e-05
2.57282e-05
2.57421e-05
2.57513e-05
2.57559e-05
2.57559e-05
2.57513e-05
2.57421e-05
2.57282e-05
2.57094e-05
2.56856e-05
2.56564e-05
2.56218e-05
2.55815e-05
2.55351e-05
2.54825e-05
2.54233e-05
2.53573e-05
2.52844e-05
2.52037e-05
2.50418e-05
2.51284e-05
2.52071e-05
2.52786e-05
2.5343e-05
2.54005e-05
2.54513e-05
2.54958e-05
2.5534e-05
2.55663e-05
2.55928e-05
2.56137e-05
2.56293e-05
2.56396e-05
2.56447e-05
2.56447e-05
2.56396e-05
2.56293e-05
2.56137e-05
2.55928e-05
2.55663e-05
2.5534e-05
2.54958e-05
2.54513e-05
2.54005e-05
2.5343e-05
2.52786e-05
2.52071e-05
2.51284e-05
2.50418e-05
2.48685e-05
2.49607e-05
2.50449e-05
2.51216e-05
2.5191e-05
2.52532e-05
2.53084e-05
2.53567e-05
2.53985e-05
2.54338e-05
2.54628e-05
2.54859e-05
2.5503e-05
2.55144e-05
2.552e-05
2.552e-05
2.55144e-05
2.5503e-05
2.54859e-05
2.54629e-05
2.54338e-05
2.53985e-05
2.53567e-05
2.53084e-05
2.52532e-05
2.5191e-05
2.51216e-05
2.50449e-05
2.49607e-05
2.48685e-05
2.46842e-05
2.47818e-05
2.48712e-05
2.4953e-05
2.50271e-05
2.50938e-05
2.51531e-05
2.52052e-05
2.52503e-05
2.52885e-05
2.532e-05
2.5345e-05
2.53637e-05
2.5376e-05
2.53822e-05
2.53822e-05
2.5376e-05
2.53637e-05
2.5345e-05
2.532e-05
2.52885e-05
2.52503e-05
2.52052e-05
2.51531e-05
2.50938e-05
2.50271e-05
2.49529e-05
2.48712e-05
2.47818e-05
2.46842e-05
2.44892e-05
2.45919e-05
2.46863e-05
2.47729e-05
2.48516e-05
2.49226e-05
2.49858e-05
2.50415e-05
2.50898e-05
2.51308e-05
2.51647e-05
2.51916e-05
2.52117e-05
2.5225e-05
2.52317e-05
2.52317e-05
2.5225e-05
2.52117e-05
2.51916e-05
2.51647e-05
2.51308e-05
2.50898e-05
2.50415e-05
2.49858e-05
2.49226e-05
2.48516e-05
2.47729e-05
2.46863e-05
2.45919e-05
2.44892e-05
2.4284e-05
2.43916e-05
2.44908e-05
2.45819e-05
2.4665e-05
2.474e-05
2.4807e-05
2.48661e-05
2.49174e-05
2.49611e-05
2.49972e-05
2.5026e-05
2.50475e-05
2.50617e-05
2.50688e-05
2.50688e-05
2.50617e-05
2.50475e-05
2.5026e-05
2.49972e-05
2.49611e-05
2.49174e-05
2.48661e-05
2.4807e-05
2.474e-05
2.4665e-05
2.45819e-05
2.44908e-05
2.43916e-05
2.4284e-05
2.40689e-05
2.41812e-05
2.42849e-05
2.43803e-05
2.44675e-05
2.45464e-05
2.4617e-05
2.46794e-05
2.47336e-05
2.47798e-05
2.48181e-05
2.48486e-05
2.48714e-05
2.48865e-05
2.48941e-05
2.48941e-05
2.48865e-05
2.48714e-05
2.48486e-05
2.48181e-05
2.47798e-05
2.47336e-05
2.46794e-05
2.4617e-05
2.45464e-05
2.44675e-05
2.43803e-05
2.42849e-05
2.41812e-05
2.40689e-05
2.38444e-05
2.39611e-05
2.4069e-05
2.41686e-05
2.42597e-05
2.43423e-05
2.44163e-05
2.44817e-05
2.45387e-05
2.45874e-05
2.46277e-05
2.46599e-05
2.46839e-05
2.46999e-05
2.47078e-05
2.47078e-05
2.46999e-05
2.46839e-05
2.46599e-05
2.46277e-05
2.45874e-05
2.45388e-05
2.44817e-05
2.44163e-05
2.43423e-05
2.42597e-05
2.41686e-05
2.4069e-05
2.39611e-05
2.38444e-05
2.36108e-05
2.37316e-05
2.38436e-05
2.39471e-05
2.4042e-05
2.4128e-05
2.42052e-05
2.42736e-05
2.43332e-05
2.43842e-05
2.44264e-05
2.44602e-05
2.44854e-05
2.45022e-05
2.45105e-05
2.45105e-05
2.45022e-05
2.44854e-05
2.44602e-05
2.44265e-05
2.43842e-05
2.43333e-05
2.42736e-05
2.42052e-05
2.4128e-05
2.4042e-05
2.39471e-05
2.38436e-05
2.37316e-05
2.36108e-05
2.33684e-05
2.34932e-05
2.36091e-05
2.37163e-05
2.38146e-05
2.39039e-05
2.39842e-05
2.40554e-05
2.41175e-05
2.41706e-05
2.42147e-05
2.42499e-05
2.42763e-05
2.42938e-05
2.43025e-05
2.43026e-05
2.42938e-05
2.42763e-05
2.42499e-05
2.42147e-05
2.41706e-05
2.41175e-05
2.40554e-05
2.39842e-05
2.39039e-05
2.38146e-05
2.37163e-05
2.36091e-05
2.34932e-05
2.33684e-05
2.31177e-05
2.32462e-05
2.33657e-05
2.34764e-05
2.3578e-05
2.36705e-05
2.37536e-05
2.38274e-05
2.38919e-05
2.3947e-05
2.39929e-05
2.40295e-05
2.40569e-05
2.40752e-05
2.40843e-05
2.40843e-05
2.40752e-05
2.40569e-05
2.40295e-05
2.39929e-05
2.3947e-05
2.38919e-05
2.38274e-05
2.37536e-05
2.36705e-05
2.3578e-05
2.34764e-05
2.33657e-05
2.32462e-05
2.31177e-05
2.28589e-05
2.29909e-05
2.31138e-05
2.32278e-05
2.33326e-05
2.3428e-05
2.35138e-05
2.35901e-05
2.36568e-05
2.37139e-05
2.37614e-05
2.37993e-05
2.38278e-05
2.38467e-05
2.38561e-05
2.38562e-05
2.38467e-05
2.38278e-05
2.37993e-05
2.37614e-05
2.37139e-05
2.36568e-05
2.35901e-05
2.35138e-05
2.3428e-05
2.33326e-05
2.32278e-05
2.31138e-05
2.29909e-05
2.28589e-05
2.25925e-05
2.27278e-05
2.28539e-05
2.2971e-05
2.30787e-05
2.31768e-05
2.32652e-05
2.33439e-05
2.34126e-05
2.34715e-05
2.35206e-05
2.35598e-05
2.35892e-05
2.36087e-05
2.36185e-05
2.36185e-05
2.36087e-05
2.35892e-05
2.35598e-05
2.35206e-05
2.34716e-05
2.34126e-05
2.33439e-05
2.32652e-05
2.31768e-05
2.30787e-05
2.2971e-05
2.28539e-05
2.27278e-05
2.25925e-05
2.23188e-05
2.24571e-05
2.25863e-05
2.27062e-05
2.28166e-05
2.29173e-05
2.30082e-05
2.3089e-05
2.31597e-05
2.32204e-05
2.32709e-05
2.33112e-05
2.33415e-05
2.33617e-05
2.33718e-05
2.33718e-05
2.33617e-05
2.33415e-05
2.33112e-05
2.32709e-05
2.32204e-05
2.31597e-05
2.3089e-05
2.30082e-05
2.29174e-05
2.28166e-05
2.27062e-05
2.25863e-05
2.24571e-05
2.23188e-05
2.20382e-05
2.21793e-05
2.23112e-05
2.24338e-05
2.25468e-05
2.265e-05
2.2743e-05
2.28259e-05
2.28985e-05
2.29607e-05
2.30126e-05
2.3054e-05
2.30852e-05
2.31059e-05
2.31163e-05
2.31163e-05
2.31059e-05
2.30852e-05
2.30541e-05
2.30126e-05
2.29607e-05
2.28985e-05
2.28259e-05
2.2743e-05
2.265e-05
2.25468e-05
2.24338e-05
2.23112e-05
2.21793e-05
2.20382e-05
2.17509e-05
2.18947e-05
2.20291e-05
2.21543e-05
2.22696e-05
2.2375e-05
2.24701e-05
2.25549e-05
2.26292e-05
2.26929e-05
2.27461e-05
2.27886e-05
2.28205e-05
2.28418e-05
2.28524e-05
2.28524e-05
2.28418e-05
2.28205e-05
2.27886e-05
2.27461e-05
2.26929e-05
2.26292e-05
2.25549e-05
2.24702e-05
2.2375e-05
2.22696e-05
2.21543e-05
2.20291e-05
2.18947e-05
2.17509e-05
2.14573e-05
2.16035e-05
2.17404e-05
2.18678e-05
2.19854e-05
2.20928e-05
2.21899e-05
2.22764e-05
2.23523e-05
2.24174e-05
2.24718e-05
2.25153e-05
2.25479e-05
2.25696e-05
2.25805e-05
2.25805e-05
2.25696e-05
2.25479e-05
2.25153e-05
2.24718e-05
2.24175e-05
2.23523e-05
2.22764e-05
2.21899e-05
2.20928e-05
2.19854e-05
2.18678e-05
2.17404e-05
2.16035e-05
2.14573e-05
2.11578e-05
2.13062e-05
2.14453e-05
2.15748e-05
2.16944e-05
2.18038e-05
2.19026e-05
2.19908e-05
2.20681e-05
2.21346e-05
2.219e-05
2.22344e-05
2.22677e-05
2.22899e-05
2.2301e-05
2.2301e-05
2.22899e-05
2.22677e-05
2.22344e-05
2.219e-05
2.21346e-05
2.20682e-05
2.19908e-05
2.19026e-05
2.18038e-05
2.16944e-05
2.15748e-05
2.14453e-05
2.13062e-05
2.11578e-05
2.08527e-05
2.10031e-05
2.11442e-05
2.12756e-05
2.13971e-05
2.15082e-05
2.16087e-05
2.16983e-05
2.17771e-05
2.18447e-05
2.19011e-05
2.19463e-05
2.19803e-05
2.20029e-05
2.20142e-05
2.20142e-05
2.20029e-05
2.19803e-05
2.19463e-05
2.19011e-05
2.18447e-05
2.17771e-05
2.16984e-05
2.16087e-05
2.15082e-05
2.13971e-05
2.12756e-05
2.11442e-05
2.10031e-05
2.08527e-05
2.05423e-05
2.06945e-05
2.08374e-05
2.09706e-05
2.10937e-05
2.12064e-05
2.13084e-05
2.13994e-05
2.14794e-05
2.15481e-05
2.16055e-05
2.16515e-05
2.1686e-05
2.1709e-05
2.17205e-05
2.17205e-05
2.1709e-05
2.1686e-05
2.16515e-05
2.16055e-05
2.15481e-05
2.14794e-05
2.13994e-05
2.13084e-05
2.12064e-05
2.10937e-05
2.09706e-05
2.08374e-05
2.06945e-05
2.05423e-05
2.02269e-05
2.03808e-05
2.05252e-05
2.066e-05
2.07847e-05
2.08988e-05
2.10021e-05
2.10944e-05
2.11755e-05
2.12452e-05
2.13035e-05
2.13501e-05
2.13852e-05
2.14086e-05
2.14203e-05
2.14203e-05
2.14086e-05
2.13852e-05
2.13501e-05
2.13035e-05
2.12452e-05
2.11755e-05
2.10944e-05
2.10021e-05
2.08988e-05
2.07847e-05
2.066e-05
2.05252e-05
2.03808e-05
2.0227e-05
1.9907e-05
2.00623e-05
2.02081e-05
2.03443e-05
2.04703e-05
2.05857e-05
2.06902e-05
2.07836e-05
2.08657e-05
2.09364e-05
2.09954e-05
2.10427e-05
2.10782e-05
2.11019e-05
2.11138e-05
2.11138e-05
2.11019e-05
2.10782e-05
2.10427e-05
2.09954e-05
2.09364e-05
2.08657e-05
2.07836e-05
2.06902e-05
2.05857e-05
2.04702e-05
2.03443e-05
2.02081e-05
2.00623e-05
1.9907e-05
1.95827e-05
1.97392e-05
1.98863e-05
2.00237e-05
2.01508e-05
2.02674e-05
2.0373e-05
2.04674e-05
2.05504e-05
2.06219e-05
2.06816e-05
2.07294e-05
2.07654e-05
2.07894e-05
2.08014e-05
2.08014e-05
2.07894e-05
2.07654e-05
2.07294e-05
2.06816e-05
2.06219e-05
2.05504e-05
2.04674e-05
2.0373e-05
2.02674e-05
2.01508e-05
2.00237e-05
1.98863e-05
1.97392e-05
1.95827e-05
1.92544e-05
1.94119e-05
1.95601e-05
1.96985e-05
1.98267e-05
1.99442e-05
2.00508e-05
2.01461e-05
2.02299e-05
2.03021e-05
2.03624e-05
2.04108e-05
2.04471e-05
2.04714e-05
2.04835e-05
2.04835e-05
2.04714e-05
2.04471e-05
2.04108e-05
2.03624e-05
2.03021e-05
2.02299e-05
2.01461e-05
2.00508e-05
1.99442e-05
1.98267e-05
1.96985e-05
1.95601e-05
1.94119e-05
1.92544e-05
1.89224e-05
1.90808e-05
1.92299e-05
1.93692e-05
1.94982e-05
1.96166e-05
1.9724e-05
1.982e-05
1.99045e-05
1.99773e-05
2.00382e-05
2.0087e-05
2.01237e-05
2.01482e-05
2.01605e-05
2.01605e-05
2.01482e-05
2.01237e-05
2.0087e-05
2.00382e-05
1.99773e-05
1.99045e-05
1.982e-05
1.9724e-05
1.96166e-05
1.94982e-05
1.93692e-05
1.92299e-05
1.90808e-05
1.89224e-05
1.8587e-05
1.87461e-05
1.88959e-05
1.90359e-05
1.91656e-05
1.92847e-05
1.93928e-05
1.94895e-05
1.95746e-05
1.96479e-05
1.97092e-05
1.97584e-05
1.97955e-05
1.98202e-05
1.98325e-05
1.98325e-05
1.98202e-05
1.97955e-05
1.97585e-05
1.97092e-05
1.96479e-05
1.95746e-05
1.94895e-05
1.93928e-05
1.92847e-05
1.91656e-05
1.90359e-05
1.88959e-05
1.87461e-05
1.8587e-05
1.82486e-05
1.84082e-05
1.85585e-05
1.8699e-05
1.88294e-05
1.8949e-05
1.90576e-05
1.91548e-05
1.92404e-05
1.93142e-05
1.93759e-05
1.94255e-05
1.94627e-05
1.94876e-05
1.95001e-05
1.95001e-05
1.94876e-05
1.94627e-05
1.94255e-05
1.93759e-05
1.93142e-05
1.92404e-05
1.91548e-05
1.90576e-05
1.8949e-05
1.88294e-05
1.8699e-05
1.85585e-05
1.84082e-05
1.82486e-05
1.79073e-05
1.80673e-05
1.82179e-05
1.83589e-05
1.84896e-05
1.86097e-05
1.87187e-05
1.88164e-05
1.89024e-05
1.89765e-05
1.90386e-05
1.90884e-05
1.91259e-05
1.91509e-05
1.91634e-05
1.91634e-05
1.91509e-05
1.91259e-05
1.90884e-05
1.90386e-05
1.89765e-05
1.89024e-05
1.88164e-05
1.87187e-05
1.86097e-05
1.84896e-05
1.83589e-05
1.82179e-05
1.80673e-05
1.79073e-05
1.75636e-05
1.77237e-05
1.78746e-05
1.80158e-05
1.81468e-05
1.82671e-05
1.83765e-05
1.84744e-05
1.85608e-05
1.86352e-05
1.86975e-05
1.87475e-05
1.87851e-05
1.88103e-05
1.88229e-05
1.88229e-05
1.88103e-05
1.87851e-05
1.87475e-05
1.86975e-05
1.86352e-05
1.85608e-05
1.84744e-05
1.83765e-05
1.82671e-05
1.81468e-05
1.80158e-05
1.78746e-05
1.77237e-05
1.75636e-05
1.72177e-05
1.73778e-05
1.75287e-05
1.767e-05
1.78011e-05
1.79216e-05
1.80312e-05
1.81293e-05
1.82158e-05
1.82905e-05
1.83529e-05
1.84031e-05
1.84409e-05
1.84662e-05
1.84788e-05
1.84788e-05
1.84662e-05
1.84409e-05
1.84032e-05
1.8353e-05
1.82905e-05
1.82158e-05
1.81293e-05
1.80312e-05
1.79216e-05
1.78011e-05
1.767e-05
1.75287e-05
1.73778e-05
1.72177e-05
1.68698e-05
1.70297e-05
1.71806e-05
1.73218e-05
1.74529e-05
1.75735e-05
1.76831e-05
1.77813e-05
1.7868e-05
1.79427e-05
1.80053e-05
1.80556e-05
1.80935e-05
1.81188e-05
1.81314e-05
1.81314e-05
1.81188e-05
1.80935e-05
1.80556e-05
1.80053e-05
1.79427e-05
1.7868e-05
1.77813e-05
1.76831e-05
1.75735e-05
1.74529e-05
1.73218e-05
1.71805e-05
1.70297e-05
1.68698e-05
1.65202e-05
1.66799e-05
1.68304e-05
1.69715e-05
1.71025e-05
1.72229e-05
1.73325e-05
1.74308e-05
1.75174e-05
1.75922e-05
1.76549e-05
1.77052e-05
1.77431e-05
1.77685e-05
1.77812e-05
1.77812e-05
1.77685e-05
1.77432e-05
1.77053e-05
1.76549e-05
1.75922e-05
1.75174e-05
1.74308e-05
1.73325e-05
1.72229e-05
1.71025e-05
1.69715e-05
1.68304e-05
1.66799e-05
1.65202e-05
1.61693e-05
1.63285e-05
1.64787e-05
1.66194e-05
1.67501e-05
1.68703e-05
1.69797e-05
1.70779e-05
1.71645e-05
1.72393e-05
1.73019e-05
1.73523e-05
1.73902e-05
1.74156e-05
1.74282e-05
1.74282e-05
1.74156e-05
1.73902e-05
1.73523e-05
1.73019e-05
1.72393e-05
1.71645e-05
1.70779e-05
1.69797e-05
1.68703e-05
1.67501e-05
1.66194e-05
1.64787e-05
1.63285e-05
1.61693e-05
1.58173e-05
1.59758e-05
1.61255e-05
1.62657e-05
1.6396e-05
1.65159e-05
1.66251e-05
1.67231e-05
1.68095e-05
1.68842e-05
1.69468e-05
1.69971e-05
1.7035e-05
1.70603e-05
1.7073e-05
1.7073e-05
1.70603e-05
1.7035e-05
1.69971e-05
1.69468e-05
1.68842e-05
1.68095e-05
1.67231e-05
1.66251e-05
1.65159e-05
1.6396e-05
1.62657e-05
1.61255e-05
1.59758e-05
1.58173e-05
1.54644e-05
1.56222e-05
1.57711e-05
1.59107e-05
1.60405e-05
1.616e-05
1.62688e-05
1.63665e-05
1.64528e-05
1.65272e-05
1.65897e-05
1.66399e-05
1.66777e-05
1.6703e-05
1.67157e-05
1.67157e-05
1.6703e-05
1.66777e-05
1.66399e-05
1.65897e-05
1.65272e-05
1.64528e-05
1.63665e-05
1.62688e-05
1.616e-05
1.60405e-05
1.59107e-05
1.57711e-05
1.56222e-05
1.54644e-05
1.51108e-05
1.52677e-05
1.54159e-05
1.55548e-05
1.56839e-05
1.58029e-05
1.59112e-05
1.60085e-05
1.60945e-05
1.61687e-05
1.6231e-05
1.62811e-05
1.63188e-05
1.6344e-05
1.63566e-05
1.63566e-05
1.6344e-05
1.63188e-05
1.62811e-05
1.6231e-05
1.61687e-05
1.60945e-05
1.60085e-05
1.59112e-05
1.58029e-05
1.56839e-05
1.55548e-05
1.54159e-05
1.52677e-05
1.51108e-05
1.47569e-05
1.49128e-05
1.506e-05
1.5198e-05
1.53264e-05
1.54448e-05
1.55525e-05
1.56494e-05
1.57349e-05
1.58089e-05
1.58709e-05
1.59208e-05
1.59584e-05
1.59835e-05
1.59961e-05
1.59961e-05
1.59835e-05
1.59584e-05
1.59208e-05
1.58709e-05
1.58089e-05
1.57349e-05
1.56494e-05
1.55526e-05
1.54448e-05
1.53264e-05
1.5198e-05
1.506e-05
1.49128e-05
1.47569e-05
1.44029e-05
1.45576e-05
1.47037e-05
1.48408e-05
1.49684e-05
1.50859e-05
1.51931e-05
1.52894e-05
1.53744e-05
1.5448e-05
1.55097e-05
1.55594e-05
1.55968e-05
1.56218e-05
1.56343e-05
1.56343e-05
1.56218e-05
1.55968e-05
1.55594e-05
1.55097e-05
1.5448e-05
1.53744e-05
1.52894e-05
1.51931e-05
1.50859e-05
1.49684e-05
1.48408e-05
1.47037e-05
1.45576e-05
1.44029e-05
1.4049e-05
1.42024e-05
1.43473e-05
1.44833e-05
1.46099e-05
1.47266e-05
1.4833e-05
1.49287e-05
1.50132e-05
1.50863e-05
1.51477e-05
1.51971e-05
1.52343e-05
1.52592e-05
1.52716e-05
1.52716e-05
1.52592e-05
1.52343e-05
1.51971e-05
1.51477e-05
1.50863e-05
1.50132e-05
1.49287e-05
1.4833e-05
1.47266e-05
1.46099e-05
1.44833e-05
1.43473e-05
1.42024e-05
1.4049e-05
1.36954e-05
1.38474e-05
1.3991e-05
1.41258e-05
1.42513e-05
1.43671e-05
1.44727e-05
1.45676e-05
1.46516e-05
1.47242e-05
1.47851e-05
1.48342e-05
1.48711e-05
1.48959e-05
1.49083e-05
1.49083e-05
1.48959e-05
1.48711e-05
1.48342e-05
1.47851e-05
1.47242e-05
1.46516e-05
1.45676e-05
1.44727e-05
1.43671e-05
1.42513e-05
1.41258e-05
1.3991e-05
1.38474e-05
1.36954e-05
1.33424e-05
1.34929e-05
1.3635e-05
1.37685e-05
1.38929e-05
1.40076e-05
1.41123e-05
1.42064e-05
1.42897e-05
1.43617e-05
1.44222e-05
1.44709e-05
1.45076e-05
1.45322e-05
1.45445e-05
1.45445e-05
1.45322e-05
1.45076e-05
1.44709e-05
1.44222e-05
1.43617e-05
1.42897e-05
1.42064e-05
1.41123e-05
1.40076e-05
1.38929e-05
1.37685e-05
1.3635e-05
1.34929e-05
1.33424e-05
1.29901e-05
1.3139e-05
1.32796e-05
1.34117e-05
1.35348e-05
1.36484e-05
1.3752e-05
1.38453e-05
1.39279e-05
1.39993e-05
1.40593e-05
1.41076e-05
1.4144e-05
1.41683e-05
1.41805e-05
1.41805e-05
1.41683e-05
1.4144e-05
1.41076e-05
1.40593e-05
1.39993e-05
1.39279e-05
1.38453e-05
1.3752e-05
1.36484e-05
1.35348e-05
1.34117e-05
1.32796e-05
1.3139e-05
1.29901e-05
1.26389e-05
1.2786e-05
1.2925e-05
1.30556e-05
1.31773e-05
1.32897e-05
1.33922e-05
1.34846e-05
1.35663e-05
1.36371e-05
1.36965e-05
1.37443e-05
1.37804e-05
1.38045e-05
1.38166e-05
1.38166e-05
1.38045e-05
1.37804e-05
1.37443e-05
1.36965e-05
1.36371e-05
1.35663e-05
1.34846e-05
1.33922e-05
1.32897e-05
1.31773e-05
1.30556e-05
1.2925e-05
1.2786e-05
1.26389e-05
1.22888e-05
1.2434e-05
1.25713e-05
1.27003e-05
1.28206e-05
1.29316e-05
1.30331e-05
1.31244e-05
1.32053e-05
1.32753e-05
1.33341e-05
1.33815e-05
1.34172e-05
1.34411e-05
1.34531e-05
1.34531e-05
1.34411e-05
1.34172e-05
1.33815e-05
1.33341e-05
1.32753e-05
1.32053e-05
1.31244e-05
1.30331e-05
1.29316e-05
1.28206e-05
1.27003e-05
1.25713e-05
1.2434e-05
1.22888e-05
1.19401e-05
1.20834e-05
1.22188e-05
1.23461e-05
1.24649e-05
1.25746e-05
1.26748e-05
1.27651e-05
1.2845e-05
1.29142e-05
1.29724e-05
1.30193e-05
1.30546e-05
1.30782e-05
1.30901e-05
1.30901e-05
1.30782e-05
1.30546e-05
1.30193e-05
1.29724e-05
1.29142e-05
1.2845e-05
1.27651e-05
1.26748e-05
1.25746e-05
1.24649e-05
1.23461e-05
1.22188e-05
1.20834e-05
1.19401e-05
1.1593e-05
1.17342e-05
1.18678e-05
1.19933e-05
1.21104e-05
1.22187e-05
1.23176e-05
1.24067e-05
1.24857e-05
1.25541e-05
1.26115e-05
1.26578e-05
1.26928e-05
1.27161e-05
1.27279e-05
1.27279e-05
1.27161e-05
1.26928e-05
1.26579e-05
1.26115e-05
1.25541e-05
1.24857e-05
1.24067e-05
1.23176e-05
1.22187e-05
1.21104e-05
1.19933e-05
1.18678e-05
1.17342e-05
1.1593e-05
1.12477e-05
1.13868e-05
1.15183e-05
1.1642e-05
1.17574e-05
1.18641e-05
1.19617e-05
1.20496e-05
1.21275e-05
1.2195e-05
1.22518e-05
1.22975e-05
1.2332e-05
1.23551e-05
1.23666e-05
1.23666e-05
1.23551e-05
1.2332e-05
1.22975e-05
1.22518e-05
1.2195e-05
1.21275e-05
1.20496e-05
1.19617e-05
1.18641e-05
1.17574e-05
1.1642e-05
1.15183e-05
1.13868e-05
1.12477e-05
1.09043e-05
1.10412e-05
1.11706e-05
1.12923e-05
1.1406e-05
1.15111e-05
1.16073e-05
1.1694e-05
1.17708e-05
1.18373e-05
1.18933e-05
1.19384e-05
1.19725e-05
1.19952e-05
1.20066e-05
1.20066e-05
1.19952e-05
1.19725e-05
1.19384e-05
1.18933e-05
1.18373e-05
1.17708e-05
1.1694e-05
1.16073e-05
1.15111e-05
1.1406e-05
1.12923e-05
1.11706e-05
1.10412e-05
1.09043e-05
1.05631e-05
1.06977e-05
1.08249e-05
1.09446e-05
1.10564e-05
1.11599e-05
1.12546e-05
1.134e-05
1.14156e-05
1.14812e-05
1.15364e-05
1.15808e-05
1.16144e-05
1.16368e-05
1.16481e-05
1.16481e-05
1.16368e-05
1.16144e-05
1.15808e-05
1.15364e-05
1.14812e-05
1.14156e-05
1.134e-05
1.12546e-05
1.11599e-05
1.10564e-05
1.09446e-05
1.08249e-05
1.06976e-05
1.05631e-05
1.02242e-05
1.03563e-05
1.04813e-05
1.0599e-05
1.07089e-05
1.08107e-05
1.09038e-05
1.09878e-05
1.10623e-05
1.11268e-05
1.11811e-05
1.12249e-05
1.1258e-05
1.12801e-05
1.12912e-05
1.12912e-05
1.12801e-05
1.12579e-05
1.12249e-05
1.11811e-05
1.11268e-05
1.10623e-05
1.09878e-05
1.09038e-05
1.08107e-05
1.07089e-05
1.0599e-05
1.04813e-05
1.03563e-05
1.02242e-05
9.88778e-06
1.00175e-05
1.01401e-05
1.02556e-05
1.03636e-05
1.04636e-05
1.05551e-05
1.06377e-05
1.07109e-05
1.07744e-05
1.08278e-05
1.08709e-05
1.09034e-05
1.09252e-05
1.09361e-05
1.09361e-05
1.09252e-05
1.09034e-05
1.08709e-05
1.08278e-05
1.07744e-05
1.07109e-05
1.06377e-05
1.05551e-05
1.04636e-05
1.03636e-05
1.02556e-05
1.01401e-05
1.00175e-05
9.88778e-06
9.55401e-06
9.68114e-06
9.80142e-06
9.91471e-06
1.00206e-05
1.01188e-05
1.02086e-05
1.02897e-05
1.03617e-05
1.04241e-05
1.04766e-05
1.05189e-05
1.05509e-05
1.05723e-05
1.0583e-05
1.0583e-05
1.05723e-05
1.05509e-05
1.05189e-05
1.04766e-05
1.04241e-05
1.03617e-05
1.02897e-05
1.02086e-05
1.01188e-05
1.00206e-05
9.91471e-06
9.80142e-06
9.68114e-06
9.55401e-06
9.22305e-06
9.34757e-06
9.4654e-06
9.57641e-06
9.68026e-06
9.7765e-06
9.86465e-06
9.94424e-06
1.00149e-05
1.00761e-05
1.01277e-05
1.01693e-05
1.02006e-05
1.02217e-05
1.02322e-05
1.02322e-05
1.02217e-05
1.02006e-05
1.01693e-05
1.01277e-05
1.00761e-05
1.00149e-05
9.94424e-06
9.86465e-06
9.7765e-06
9.68026e-06
9.57641e-06
9.4654e-06
9.34757e-06
9.22305e-06
8.89505e-06
9.0169e-06
9.13221e-06
9.2409e-06
9.34261e-06
9.4369e-06
9.5233e-06
9.60133e-06
9.67058e-06
9.73066e-06
9.78123e-06
9.82203e-06
9.85283e-06
9.87345e-06
9.88379e-06
9.88379e-06
9.87345e-06
9.85283e-06
9.82203e-06
9.78124e-06
9.73066e-06
9.67058e-06
9.60133e-06
9.5233e-06
9.4369e-06
9.34261e-06
9.2409e-06
9.13221e-06
9.0169e-06
8.89505e-06
8.57018e-06
8.68929e-06
8.80204e-06
8.90834e-06
9.00786e-06
9.10016e-06
9.18475e-06
9.26118e-06
9.32902e-06
9.38789e-06
9.43745e-06
9.47744e-06
9.50763e-06
9.52785e-06
9.53798e-06
9.53798e-06
9.52784e-06
9.50763e-06
9.47744e-06
9.43745e-06
9.38789e-06
9.32902e-06
9.26118e-06
9.18475e-06
9.10016e-06
9.00786e-06
8.90834e-06
8.80203e-06
8.68929e-06
8.57018e-06
8.24857e-06
8.36489e-06
8.47502e-06
8.57889e-06
8.67618e-06
8.76643e-06
8.84918e-06
8.92396e-06
8.99036e-06
9.04798e-06
9.09651e-06
9.13566e-06
9.16522e-06
9.18502e-06
9.19495e-06
9.19495e-06
9.18502e-06
9.16522e-06
9.13566e-06
9.09651e-06
9.04798e-06
8.99036e-06
8.92396e-06
8.84918e-06
8.76643e-06
8.67618e-06
8.57889e-06
8.47502e-06
8.36489e-06
8.24857e-06
7.93038e-06
8.04386e-06
8.15132e-06
8.25271e-06
8.34772e-06
8.43589e-06
8.51675e-06
8.58985e-06
8.65476e-06
8.71111e-06
8.75857e-06
8.79687e-06
8.82579e-06
8.84516e-06
8.85487e-06
8.85487e-06
8.84516e-06
8.82579e-06
8.79687e-06
8.75857e-06
8.71111e-06
8.65476e-06
8.58985e-06
8.51675e-06
8.43589e-06
8.34772e-06
8.25271e-06
8.15132e-06
8.04386e-06
7.93038e-06
7.61575e-06
7.72634e-06
7.83108e-06
7.92995e-06
8.02264e-06
8.10868e-06
8.18762e-06
8.25899e-06
8.32239e-06
8.37744e-06
8.42381e-06
8.46123e-06
8.48949e-06
8.50843e-06
8.51792e-06
8.51792e-06
8.50842e-06
8.48949e-06
8.46123e-06
8.42381e-06
8.37744e-06
8.32239e-06
8.25899e-06
8.18762e-06
8.10868e-06
8.02264e-06
7.92995e-06
7.83108e-06
7.72634e-06
7.61575e-06
7.30482e-06
7.41247e-06
7.51446e-06
7.61077e-06
7.70109e-06
7.78497e-06
7.86194e-06
7.93156e-06
7.99342e-06
8.04713e-06
8.09239e-06
8.12892e-06
8.15651e-06
8.17499e-06
8.18425e-06
8.18425e-06
8.17499e-06
8.1565e-06
8.12892e-06
8.09239e-06
8.04713e-06
7.99342e-06
7.93156e-06
7.86194e-06
7.78497e-06
7.70109e-06
7.61077e-06
7.51446e-06
7.41247e-06
7.30482e-06
6.99773e-06
7.1024e-06
7.20159e-06
7.29531e-06
7.38323e-06
7.46491e-06
7.53989e-06
7.60772e-06
7.66799e-06
7.72035e-06
7.76447e-06
7.80009e-06
7.82699e-06
7.84501e-06
7.85405e-06
7.85405e-06
7.84501e-06
7.82699e-06
7.80009e-06
7.76447e-06
7.72035e-06
7.668e-06
7.60772e-06
7.53989e-06
7.46491e-06
7.38323e-06
7.29531e-06
7.20159e-06
7.1024e-06
6.99773e-06
6.69461e-06
6.79627e-06
6.89263e-06
6.98371e-06
7.0692e-06
7.14864e-06
7.2216e-06
7.28761e-06
7.34629e-06
7.39726e-06
7.44022e-06
7.47491e-06
7.50111e-06
7.51866e-06
7.52746e-06
7.52746e-06
7.51866e-06
7.50111e-06
7.47491e-06
7.44022e-06
7.39726e-06
7.34629e-06
7.28761e-06
7.22159e-06
7.14864e-06
7.0692e-06
6.98371e-06
6.89263e-06
6.79627e-06
6.69461e-06
6.3956e-06
6.49421e-06
6.58771e-06
6.67613e-06
6.75915e-06
6.83633e-06
6.90723e-06
6.9714e-06
7.02844e-06
7.07801e-06
7.11979e-06
7.15353e-06
7.17902e-06
7.1961e-06
7.20466e-06
7.20466e-06
7.1961e-06
7.17902e-06
7.15353e-06
7.11979e-06
7.07801e-06
7.02844e-06
6.97139e-06
6.90722e-06
6.83633e-06
6.75915e-06
6.67613e-06
6.58771e-06
6.49421e-06
6.3956e-06
6.10083e-06
6.19636e-06
6.28697e-06
6.3727e-06
6.45322e-06
6.52812e-06
6.59692e-06
6.65922e-06
6.71462e-06
6.76276e-06
6.80335e-06
6.83612e-06
6.86088e-06
6.87748e-06
6.8858e-06
6.8858e-06
6.87748e-06
6.86088e-06
6.83612e-06
6.80335e-06
6.76276e-06
6.71462e-06
6.65922e-06
6.59692e-06
6.52812e-06
6.45322e-06
6.3727e-06
6.28697e-06
6.19636e-06
6.10083e-06
5.81044e-06
5.90286e-06
5.99055e-06
6.07356e-06
6.15157e-06
6.22414e-06
6.29084e-06
6.35125e-06
6.40497e-06
6.45166e-06
6.49103e-06
6.52283e-06
6.54686e-06
6.56296e-06
6.57104e-06
6.57104e-06
6.56296e-06
6.54686e-06
6.52283e-06
6.49103e-06
6.45166e-06
6.40497e-06
6.35125e-06
6.29084e-06
6.22414e-06
6.15157e-06
6.07356e-06
5.99055e-06
5.90286e-06
5.81044e-06
5.52455e-06
5.61384e-06
5.6986e-06
5.77887e-06
5.85433e-06
5.92456e-06
5.98913e-06
6.04761e-06
6.09964e-06
6.14487e-06
6.18301e-06
6.21382e-06
6.2371e-06
6.25271e-06
6.26053e-06
6.26053e-06
6.2527e-06
6.2371e-06
6.21382e-06
6.18301e-06
6.14487e-06
6.09964e-06
6.04761e-06
5.98913e-06
5.92456e-06
5.85433e-06
5.77887e-06
5.6986e-06
5.61384e-06
5.52455e-06
5.24331e-06
5.32944e-06
5.41124e-06
5.48875e-06
5.56165e-06
5.62952e-06
5.69193e-06
5.74848e-06
5.79879e-06
5.84254e-06
5.87943e-06
5.90924e-06
5.93177e-06
5.94687e-06
5.95444e-06
5.95444e-06
5.94687e-06
5.93177e-06
5.90924e-06
5.87943e-06
5.84254e-06
5.79879e-06
5.74848e-06
5.69193e-06
5.62952e-06
5.56165e-06
5.48875e-06
5.41124e-06
5.32944e-06
5.2433e-06
4.96683e-06
5.0498e-06
5.12863e-06
5.20336e-06
5.27367e-06
5.33916e-06
5.39939e-06
5.45398e-06
5.50256e-06
5.54482e-06
5.58046e-06
5.60925e-06
5.63101e-06
5.6456e-06
5.65292e-06
5.65292e-06
5.6456e-06
5.63101e-06
5.60925e-06
5.58046e-06
5.54482e-06
5.50256e-06
5.45398e-06
5.39939e-06
5.33916e-06
5.27367e-06
5.20336e-06
5.12863e-06
5.0498e-06
4.96683e-06
4.69526e-06
4.77505e-06
4.85089e-06
4.92283e-06
4.99054e-06
5.05363e-06
5.11167e-06
5.16429e-06
5.21112e-06
5.25186e-06
5.28623e-06
5.31401e-06
5.335e-06
5.34907e-06
5.35613e-06
5.35613e-06
5.34907e-06
5.335e-06
5.31401e-06
5.28623e-06
5.25186e-06
5.21112e-06
5.16429e-06
5.11167e-06
5.05363e-06
4.99054e-06
4.92283e-06
4.85089e-06
4.77505e-06
4.69526e-06
4.42874e-06
4.50533e-06
4.57817e-06
4.6473e-06
4.7124e-06
4.77308e-06
4.82892e-06
4.87955e-06
4.92462e-06
4.96384e-06
4.99693e-06
5.02367e-06
5.04388e-06
5.05743e-06
5.06423e-06
5.06423e-06
5.05743e-06
5.04388e-06
5.02367e-06
4.99693e-06
4.96384e-06
4.92462e-06
4.87955e-06
4.82892e-06
4.77308e-06
4.71241e-06
4.6473e-06
4.57817e-06
4.50533e-06
4.42874e-06
4.1674e-06
4.24079e-06
4.31063e-06
4.37694e-06
4.43941e-06
4.49766e-06
4.55128e-06
4.59991e-06
4.64321e-06
4.68089e-06
4.71269e-06
4.73839e-06
4.75782e-06
4.77085e-06
4.77738e-06
4.77738e-06
4.77085e-06
4.75782e-06
4.73839e-06
4.71269e-06
4.68089e-06
4.64321e-06
4.59991e-06
4.55128e-06
4.49766e-06
4.43942e-06
4.37694e-06
4.31063e-06
4.24079e-06
4.1674e-06
3.91138e-06
3.98157e-06
4.0484e-06
4.11188e-06
4.17172e-06
4.22753e-06
4.27892e-06
4.32554e-06
4.36706e-06
4.4032e-06
4.4337e-06
4.45835e-06
4.47699e-06
4.48949e-06
4.49576e-06
4.49576e-06
4.48949e-06
4.47699e-06
4.45835e-06
4.4337e-06
4.4032e-06
4.36706e-06
4.32554e-06
4.27892e-06
4.22753e-06
4.17172e-06
4.11188e-06
4.04839e-06
3.98157e-06
3.91138e-06
3.66084e-06
3.72782e-06
3.79163e-06
3.85229e-06
3.90949e-06
3.96285e-06
4.012e-06
4.0566e-06
4.09633e-06
4.13092e-06
4.16011e-06
4.18371e-06
4.20156e-06
4.21352e-06
4.21953e-06
4.21953e-06
4.21352e-06
4.20156e-06
4.18371e-06
4.16011e-06
4.13092e-06
4.09633e-06
4.0566e-06
4.012e-06
3.96285e-06
3.90949e-06
3.85229e-06
3.79163e-06
3.72782e-06
3.66084e-06
3.41592e-06
3.4797e-06
3.5405e-06
3.59833e-06
3.65288e-06
3.70378e-06
3.75069e-06
3.79326e-06
3.8312e-06
3.86422e-06
3.89211e-06
3.91465e-06
3.9317e-06
3.94313e-06
3.94887e-06
3.94886e-06
3.94313e-06
3.9317e-06
3.91465e-06
3.89211e-06
3.86422e-06
3.8312e-06
3.79326e-06
3.75069e-06
3.70378e-06
3.65288e-06
3.59833e-06
3.5405e-06
3.4797e-06
3.41592e-06
3.17679e-06
3.23737e-06
3.29516e-06
3.35015e-06
3.40205e-06
3.45051e-06
3.49516e-06
3.5357e-06
3.57184e-06
3.6033e-06
3.62986e-06
3.65135e-06
3.66759e-06
3.67849e-06
3.68396e-06
3.68396e-06
3.67849e-06
3.66759e-06
3.65135e-06
3.62986e-06
3.6033e-06
3.57184e-06
3.5357e-06
3.49516e-06
3.45051e-06
3.40205e-06
3.35015e-06
3.29516e-06
3.23737e-06
3.17679e-06
2.94362e-06
3.001e-06
3.05579e-06
3.10795e-06
3.1572e-06
3.2032e-06