/*--------------------------------*- C++ -*----------------------------------*\
  =========                 |
  \\      /  F ield         | OpenFOAM: The Open Source CFD Toolbox
   \\    /   O peration     | Website:  https://openfoam.org
    \\  /    A nd           | Version:  7
     \\/     M anipulation  |
\*---------------------------------------------------------------------------*/
FoamFile
{
    version     2.0;
    format      ascii;
    class       volScalarField;
    location    "176000";
    object      nu;
}
// * * * * * * * * * * * * * * * * * * * * * * * * * * * * * * * * * * * * * //

dimensions      [0 2 -1 0 0 0 0];

internalField   nonuniform List<scalar> 
4783
(
2.31211e-05
2.39589e-05
2.42457e-05
2.46694e-05
2.51638e-05
2.56992e-05
2.62637e-05
2.68511e-05
2.74576e-05
2.80795e-05
2.87132e-05
2.93545e-05
2.99985e-05
3.06396e-05
3.12713e-05
3.18865e-05
3.24772e-05
3.30347e-05
3.355e-05
3.40139e-05
3.44174e-05
3.4752e-05
1.93806e-05
2.12013e-05
2.15073e-05
2.19106e-05
2.2391e-05
2.29237e-05
2.34919e-05
2.40846e-05
2.46946e-05
2.53163e-05
2.59446e-05
2.65749e-05
2.72018e-05
2.78199e-05
2.8423e-05
2.90046e-05
2.95577e-05
3.00748e-05
3.05486e-05
3.09715e-05
3.13367e-05
3.16375e-05
1.81862e-05
2.00522e-05
2.04537e-05
2.08445e-05
2.12623e-05
2.1714e-05
2.21954e-05
2.27e-05
2.32212e-05
2.37535e-05
2.42918e-05
2.48312e-05
2.5367e-05
2.58939e-05
2.64068e-05
2.69e-05
2.73675e-05
2.78034e-05
2.82016e-05
2.85561e-05
2.88615e-05
2.91125e-05
1.73966e-05
1.90269e-05
1.94612e-05
1.98661e-05
2.02652e-05
2.06739e-05
2.10977e-05
2.15365e-05
2.19874e-05
2.24467e-05
2.29102e-05
2.33738e-05
2.3833e-05
2.42836e-05
2.47208e-05
2.51401e-05
2.55364e-05
2.59048e-05
2.62405e-05
2.65387e-05
2.67949e-05
2.70052e-05
1.67315e-05
1.8138e-05
1.85494e-05
1.89451e-05
1.93299e-05
1.97121e-05
2.0098e-05
2.04903e-05
2.08888e-05
2.12918e-05
2.16966e-05
2.20999e-05
2.24982e-05
2.28878e-05
2.32648e-05
2.36252e-05
2.39651e-05
2.42802e-05
2.45666e-05
2.48204e-05
2.50381e-05
2.52164e-05
1.61391e-05
1.73604e-05
1.77355e-05
1.81054e-05
1.84682e-05
1.88262e-05
1.91826e-05
1.95396e-05
1.9898e-05
2.02573e-05
2.06158e-05
2.09713e-05
2.13209e-05
2.16617e-05
2.19905e-05
2.2304e-05
2.25987e-05
2.28714e-05
2.31186e-05
2.33374e-05
2.35246e-05
2.36778e-05
1.56001e-05
1.66691e-05
1.70091e-05
1.73487e-05
1.76851e-05
1.80177e-05
1.83472e-05
1.86747e-05
1.90006e-05
1.93248e-05
1.96461e-05
1.9963e-05
2.02733e-05
2.05747e-05
2.08646e-05
2.11401e-05
2.13985e-05
2.1637e-05
2.18528e-05
2.20433e-05
2.22062e-05
2.23392e-05
1.51042e-05
1.60465e-05
1.63558e-05
1.66662e-05
1.69757e-05
1.72827e-05
1.75868e-05
1.78879e-05
1.81861e-05
1.84809e-05
1.87715e-05
1.90567e-05
1.93348e-05
1.96039e-05
1.98619e-05
2.01064e-05
2.03351e-05
2.05457e-05
2.07359e-05
2.09036e-05
2.10467e-05
2.11634e-05
1.46445e-05
1.54804e-05
1.57631e-05
1.60475e-05
1.63317e-05
1.66144e-05
1.68946e-05
1.71718e-05
1.74454e-05
1.77149e-05
1.79795e-05
1.82381e-05
1.84893e-05
1.87315e-05
1.89629e-05
1.91817e-05
1.93859e-05
1.95736e-05
1.97427e-05
1.98916e-05
2.00184e-05
2.01218e-05
1.42164e-05
1.49619e-05
1.52217e-05
1.5483e-05
1.57445e-05
1.60049e-05
1.62632e-05
1.65185e-05
1.67702e-05
1.70175e-05
1.72595e-05
1.74953e-05
1.77236e-05
1.79431e-05
1.81523e-05
1.83496e-05
1.85332e-05
1.87017e-05
1.88533e-05
1.89864e-05
1.90998e-05
1.91921e-05
1.38159e-05
1.44843e-05
1.47241e-05
1.49651e-05
1.52064e-05
1.54467e-05
1.56851e-05
1.59207e-05
1.61527e-05
1.63803e-05
1.66025e-05
1.68185e-05
1.70272e-05
1.72272e-05
1.74175e-05
1.75964e-05
1.77627e-05
1.7915e-05
1.80517e-05
1.81717e-05
1.82738e-05
1.83567e-05
1.34402e-05
1.40422e-05
1.42644e-05
1.44876e-05
1.47108e-05
1.49332e-05
1.51538e-05
1.53717e-05
1.55861e-05
1.57961e-05
1.60009e-05
1.61995e-05
1.6391e-05
1.65743e-05
1.67481e-05
1.69114e-05
1.70628e-05
1.72012e-05
1.73254e-05
1.74342e-05
1.75266e-05
1.76017e-05
1.30868e-05
1.36312e-05
1.38379e-05
1.40453e-05
1.42525e-05
1.44589e-05
1.46635e-05
1.48655e-05
1.50641e-05
1.52585e-05
1.54478e-05
1.56311e-05
1.58075e-05
1.59761e-05
1.61357e-05
1.62854e-05
1.6424e-05
1.65505e-05
1.66638e-05
1.6763e-05
1.68472e-05
1.69155e-05
1.27534e-05
1.32478e-05
1.34406e-05
1.36339e-05
1.3827e-05
1.40191e-05
1.42094e-05
1.43972e-05
1.45817e-05
1.4762e-05
1.49375e-05
1.51072e-05
1.52704e-05
1.5426e-05
1.55732e-05
1.57109e-05
1.58384e-05
1.59545e-05
1.60584e-05
1.61493e-05
1.62263e-05
1.62888e-05
1.24382e-05
1.28888e-05
1.30693e-05
1.325e-05
1.34304e-05
1.36097e-05
1.37872e-05
1.39622e-05
1.41341e-05
1.43019e-05
1.44651e-05
1.46227e-05
1.4774e-05
1.49181e-05
1.50543e-05
1.51816e-05
1.52993e-05
1.54063e-05
1.55021e-05
1.55857e-05
1.21397e-05
1.25518e-05
1.27212e-05
1.28906e-05
1.30596e-05
1.32274e-05
1.33934e-05
1.3557e-05
1.37174e-05
1.38741e-05
1.40261e-05
1.41729e-05
1.43137e-05
1.44477e-05
1.45741e-05
1.46922e-05
1.48011e-05
1.49002e-05
1.49887e-05
1.18564e-05
1.22345e-05
1.23939e-05
1.25532e-05
1.27118e-05
1.28693e-05
1.3025e-05
1.31782e-05
1.33284e-05
1.34749e-05
1.36171e-05
1.37542e-05
1.38855e-05
1.40104e-05
1.41281e-05
1.42379e-05
1.43392e-05
1.15871e-05
1.1935e-05
1.20853e-05
1.22354e-05
1.23848e-05
1.25329e-05
1.26792e-05
1.28232e-05
1.29641e-05
1.31015e-05
1.32347e-05
1.3363e-05
1.34859e-05
1.36026e-05
1.13307e-05
1.16517e-05
1.17938e-05
1.19356e-05
1.20765e-05
1.22161e-05
1.2354e-05
1.24895e-05
1.26221e-05
1.27512e-05
1.28763e-05
1.29967e-05
1.10861e-05
1.13831e-05
1.15177e-05
1.16519e-05
1.17851e-05
1.19171e-05
1.20472e-05
1.2175e-05
1.23e-05
1.24217e-05
1.08525e-05
1.1128e-05
1.12557e-05
1.13829e-05
1.15092e-05
1.16341e-05
1.17572e-05
1.1878e-05
1.19961e-05
1.0629e-05
1.08852e-05
1.10066e-05
1.11275e-05
1.12473e-05
1.13658e-05
1.14825e-05
1.15969e-05
1.04149e-05
1.06538e-05
1.07694e-05
1.08843e-05
1.09983e-05
1.11109e-05
1.12217e-05
1.02097e-05
1.04327e-05
1.0543e-05
1.06526e-05
1.07611e-05
1.08682e-05
1.00126e-05
1.02213e-05
1.03266e-05
1.04312e-05
1.05348e-05
1.06369e-05
9.82306e-06
1.00188e-05
1.01196e-05
1.02195e-05
1.03184e-05
9.64068e-06
9.82462e-06
9.92109e-06
1.00168e-05
9.46496e-06
9.63809e-06
9.73061e-06
9.82232e-06
9.29548e-06
9.45872e-06
9.54755e-06
9.13187e-06
9.28604e-06
9.37141e-06
8.97377e-06
9.11959e-06
9.20174e-06
8.82086e-06
8.95899e-06
9.03812e-06
8.67283e-06
8.80387e-06
8.88016e-06
8.52942e-06
8.6539e-06
8.72752e-06
8.39035e-06
8.50877e-06
8.57988e-06
8.25541e-06
8.3682e-06
8.43694e-06
8.12437e-06
8.23192e-06
8.29843e-06
7.99703e-06
8.09971e-06
8.1641e-06
7.87319e-06
7.97133e-06
8.03372e-06
7.75268e-06
7.84659e-06
7.90708e-06
7.63533e-06
7.72529e-06
7.78398e-06
7.521e-06
7.60725e-06
7.66424e-06
2.31211e-05
1.93806e-05
1.81862e-05
1.73966e-05
1.67315e-05
1.61391e-05
1.56001e-05
1.51042e-05
1.46445e-05
1.42164e-05
1.38159e-05
1.34402e-05
1.30868e-05
1.27534e-05
1.24382e-05
1.21397e-05
1.18564e-05
1.15871e-05
1.13307e-05
1.10861e-05
1.08525e-05
1.0629e-05
1.04149e-05
1.02097e-05
1.00126e-05
9.82305e-06
9.64067e-06
9.46496e-06
9.29548e-06
9.13187e-06
8.97377e-06
8.82086e-06
8.67283e-06
8.52942e-06
8.39035e-06
8.25541e-06
8.12437e-06
7.99703e-06
7.87319e-06
7.75268e-06
7.63533e-06
7.521e-06
2.39589e-05
2.12013e-05
2.00522e-05
1.90269e-05
1.8138e-05
1.73604e-05
1.66691e-05
1.60465e-05
1.54804e-05
1.49619e-05
1.44843e-05
1.40422e-05
1.36312e-05
1.32478e-05
1.28888e-05
1.25518e-05
1.22345e-05
1.1935e-05
1.16517e-05
1.13831e-05
1.1128e-05
1.08852e-05
1.06538e-05
1.04327e-05
1.02213e-05
1.00188e-05
9.82462e-06
9.63809e-06
9.45872e-06
9.28604e-06
9.11959e-06
8.95899e-06
8.80387e-06
8.6539e-06
8.50877e-06
8.3682e-06
8.23192e-06
8.09971e-06
7.97133e-06
7.84659e-06
7.72529e-06
7.60725e-06
2.42457e-05
2.15073e-05
2.04537e-05
1.94612e-05
1.85494e-05
1.77355e-05
1.70091e-05
1.63558e-05
1.57631e-05
1.52217e-05
1.47241e-05
1.42644e-05
1.38379e-05
1.34406e-05
1.30693e-05
1.27212e-05
1.23939e-05
1.20853e-05
1.17938e-05
1.15177e-05
1.12557e-05
1.10066e-05
1.07694e-05
1.0543e-05
1.03266e-05
1.01196e-05
9.92109e-06
9.73061e-06
9.54755e-06
9.37141e-06
9.20174e-06
9.03812e-06
8.88016e-06
8.72752e-06
8.57988e-06
8.43694e-06
8.29843e-06
8.1641e-06
8.03372e-06
7.90708e-06
7.78398e-06
7.66424e-06
2.46694e-05
2.19106e-05
2.08445e-05
1.98661e-05
1.89451e-05
1.81054e-05
1.73487e-05
1.66662e-05
1.60475e-05
1.5483e-05
1.49651e-05
1.44876e-05
1.40453e-05
1.36339e-05
1.325e-05
1.28906e-05
1.25532e-05
1.22354e-05
1.19356e-05
1.16519e-05
1.13829e-05
1.11275e-05
1.08843e-05
1.06526e-05
1.04312e-05
1.02195e-05
1.00168e-05
9.82232e-06
9.63556e-06
9.45597e-06
9.28306e-06
9.11641e-06
8.95561e-06
8.8003e-06
8.65015e-06
8.50484e-06
8.3641e-06
8.22766e-06
8.09529e-06
7.96676e-06
7.84187e-06
7.72042e-06
2.51638e-05
2.2391e-05
2.12623e-05
2.02652e-05
1.93299e-05
1.84682e-05
1.76851e-05
1.69757e-05
1.63317e-05
1.57445e-05
1.52064e-05
1.47108e-05
1.42525e-05
1.3827e-05
1.34304e-05
1.30596e-05
1.27118e-05
1.23848e-05
1.20765e-05
1.17851e-05
1.15092e-05
1.12473e-05
1.09983e-05
1.07611e-05
1.05348e-05
1.03184e-05
1.01114e-05
9.91296e-06
9.72248e-06
9.53943e-06
9.3633e-06
9.19362e-06
9.02999e-06
8.87202e-06
8.71937e-06
8.5717e-06
8.42874e-06
8.29021e-06
8.15585e-06
8.02544e-06
7.89877e-06
7.77563e-06
2.56992e-05
2.29237e-05
2.1714e-05
2.06739e-05
1.97121e-05
1.88262e-05
1.80177e-05
1.72827e-05
1.66144e-05
1.60049e-05
1.54467e-05
1.49332e-05
1.44589e-05
1.4019e-05
1.36097e-05
1.32274e-05
1.28693e-05
1.25329e-05
1.22161e-05
1.19171e-05
1.16341e-05
1.13658e-05
1.11109e-05
1.08682e-05
1.06369e-05
1.0416e-05
1.02046e-05
1.00022e-05
9.80805e-06
9.62155e-06
9.4422e-06
9.26952e-06
9.10307e-06
8.94246e-06
8.78732e-06
8.63732e-06
8.49215e-06
8.35154e-06
8.21522e-06
8.08295e-06
7.95452e-06
7.82971e-06
2.62637e-05
2.34919e-05
2.21954e-05
2.10977e-05
2.0098e-05
1.91826e-05
1.83472e-05
1.75868e-05
1.68946e-05
1.62632e-05
1.56851e-05
1.51538e-05
1.46635e-05
1.42094e-05
1.37872e-05
1.33934e-05
1.3025e-05
1.26792e-05
1.2354e-05
1.20472e-05
1.17572e-05
1.14825e-05
1.12217e-05
1.09736e-05
1.07373e-05
1.05118e-05
1.02962e-05
1.00898e-05
9.89196e-06
9.70205e-06
9.51951e-06
9.34385e-06
9.17461e-06
9.01138e-06
8.85379e-06
8.70148e-06
8.55413e-06
8.41147e-06
8.27321e-06
8.13911e-06
8.00894e-06
7.88249e-06
2.68511e-05
2.40846e-05
2.27e-05
2.15365e-05
2.04903e-05
1.95396e-05
1.86747e-05
1.78879e-05
1.71718e-05
1.65185e-05
1.59207e-05
1.53717e-05
1.48655e-05
1.43972e-05
1.39622e-05
1.3557e-05
1.31782e-05
1.28232e-05
1.24895e-05
1.2175e-05
1.1878e-05
1.15969e-05
1.13303e-05
1.10768e-05
1.08356e-05
1.06055e-05
1.03857e-05
1.01754e-05
9.97394e-06
9.78064e-06
9.59496e-06
9.41635e-06
9.24437e-06
9.07856e-06
8.91855e-06
8.76396e-06
8.61448e-06
8.46979e-06
8.32963e-06
8.19373e-06
8.06185e-06
7.93378e-06
2.74576e-05
2.46946e-05
2.32212e-05
2.19874e-05
2.08888e-05
1.9898e-05
1.90006e-05
1.81861e-05
1.74454e-05
1.67702e-05
1.61527e-05
1.55861e-05
1.50641e-05
1.45817e-05
1.41341e-05
1.37174e-05
1.33284e-05
1.29641e-05
1.26221e-05
1.23e-05
1.19961e-05
1.17087e-05
1.14362e-05
1.11775e-05
1.09314e-05
1.06968e-05
1.04728e-05
1.02587e-05
1.00537e-05
9.85705e-06
9.66827e-06
9.48678e-06
9.31209e-06
9.14376e-06
8.98137e-06
8.82456e-06
8.67298e-06
8.52632e-06
8.38429e-06
8.24662e-06
8.11308e-06
7.98344e-06
2.80795e-05
2.53163e-05
2.37535e-05
2.24467e-05
2.12918e-05
2.02573e-05
1.93248e-05
1.84809e-05
1.77149e-05
1.70175e-05
1.63803e-05
1.57961e-05
1.52585e-05
1.4762e-05
1.43019e-05
1.38741e-05
1.34749e-05
1.31015e-05
1.27512e-05
1.24217e-05
1.21109e-05
1.18173e-05
1.15392e-05
1.12753e-05
1.10243e-05
1.07853e-05
1.05573e-05
1.03394e-05
1.01308e-05
9.93098e-06
9.73917e-06
9.55486e-06
9.37753e-06
9.20673e-06
9.04203e-06
8.88304e-06
8.72942e-06
8.58083e-06
8.43699e-06
8.29761e-06
8.16245e-06
8.03127e-06
2.87132e-05
2.59446e-05
2.42918e-05
2.29102e-05
2.16966e-05
2.06158e-05
1.96461e-05
1.87715e-05
1.79795e-05
1.72595e-05
1.66025e-05
1.60009e-05
1.54478e-05
1.49375e-05
1.4465e-05
1.40261e-05
1.36171e-05
1.32347e-05
1.28763e-05
1.25394e-05
1.2222e-05
1.19223e-05
1.16386e-05
1.13696e-05
1.1114e-05
1.08707e-05
1.06387e-05
1.04171e-05
1.02052e-05
1.00021e-05
9.80738e-06
9.62033e-06
9.44044e-06
9.26724e-06
9.10029e-06
8.9392e-06
8.78359e-06
8.63314e-06
8.48754e-06
8.34651e-06
8.20978e-06
8.07711e-06
2.93545e-05
2.65749e-05
2.48312e-05
2.33737e-05
2.20999e-05
2.09713e-05
1.9963e-05
1.90567e-05
1.82381e-05
1.74953e-05
1.68185e-05
1.61995e-05
1.56311e-05
1.51072e-05
1.46227e-05
1.41729e-05
1.37541e-05
1.3363e-05
1.29967e-05
1.26527e-05
1.23288e-05
1.20232e-05
1.17341e-05
1.14602e-05
1.12e-05
1.09525e-05
1.07167e-05
1.04916e-05
1.02763e-05
1.00702e-05
9.87263e-06
9.68292e-06
9.50056e-06
9.32505e-06
9.15594e-06
8.99281e-06
8.8353e-06
8.68305e-06
8.53576e-06
8.39313e-06
8.25489e-06
8.12079e-06
7.99062e-06
2.99985e-05
2.72018e-05
2.5367e-05
2.3833e-05
2.24982e-05
2.13209e-05
2.02733e-05
1.93348e-05
1.84892e-05
1.77236e-05
1.70271e-05
1.6391e-05
1.58075e-05
1.52704e-05
1.4774e-05
1.43137e-05
1.38855e-05
1.34859e-05
1.31119e-05
1.2761e-05
1.24308e-05
1.21195e-05
1.18252e-05
1.15465e-05
1.1282e-05
1.10305e-05
1.07909e-05
1.05624e-05
1.0344e-05
1.01349e-05
9.93462e-06
9.74238e-06
9.55764e-06
9.37992e-06
9.20873e-06
9.04366e-06
8.88432e-06
8.73036e-06
8.58145e-06
8.43729e-06
8.29761e-06
8.16216e-06
8.03069e-06
7.903e-06
3.06395e-05
2.78199e-05
2.58939e-05
2.42836e-05
2.28878e-05
2.16617e-05
2.05747e-05
1.96039e-05
1.87315e-05
1.79431e-05
1.72272e-05
1.65742e-05
1.59761e-05
1.5426e-05
1.49181e-05
1.44477e-05
1.40104e-05
1.36026e-05
1.32213e-05
1.28637e-05
1.25276e-05
1.22107e-05
1.19115e-05
1.16282e-05
1.13595e-05
1.11042e-05
1.08611e-05
1.06293e-05
1.04078e-05
1.0196e-05
9.9931e-06
9.79843e-06
9.61145e-06
9.43161e-06
9.25846e-06
9.09154e-06
8.93047e-06
8.77487e-06
8.62443e-06
8.47882e-06
8.33778e-06
8.20103e-06
8.06835e-06
7.9395e-06
3.12713e-05
2.8423e-05
2.64068e-05
2.47208e-05
2.32648e-05
2.19905e-05
2.08646e-05
1.98619e-05
1.89629e-05
1.81523e-05
1.74174e-05
1.67481e-05
1.61357e-05
1.55731e-05
1.50543e-05
1.45741e-05
1.41281e-05
1.37125e-05
1.33242e-05
1.29603e-05
1.26184e-05
1.22964e-05
1.19924e-05
1.17048e-05
1.14322e-05
1.11732e-05
1.09268e-05
1.06919e-05
1.04676e-05
1.02532e-05
1.00478e-05
9.85084e-06
9.66173e-06
9.47991e-06
9.3049e-06
9.13624e-06
8.97354e-06
8.81641e-06
8.66453e-06
8.51756e-06
8.37524e-06
8.23728e-06
8.10344e-06
7.97351e-06
7.84727e-06
3.18865e-05
2.90046e-05
2.68999e-05
2.51401e-05
2.36252e-05
2.2304e-05
2.11401e-05
2.01064e-05
1.91817e-05
1.83496e-05
1.75964e-05
1.69114e-05
1.62854e-05
1.57109e-05
1.51816e-05
1.46921e-05
1.42379e-05
1.3815e-05
1.34201e-05
1.30503e-05
1.2703e-05
1.23761e-05
1.20677e-05
1.1776e-05
1.14997e-05
1.12373e-05
1.09877e-05
1.075e-05
1.0523e-05
1.03061e-05
1.00984e-05
9.89936e-06
9.70826e-06
9.52459e-06
9.34785e-06
9.17758e-06
9.01336e-06
8.8548e-06
8.70157e-06
8.55334e-06
8.40982e-06
8.27074e-06
8.13584e-06
8.00489e-06
7.87769e-06
3.24772e-05
2.95577e-05
2.73675e-05
2.55364e-05
2.39651e-05
2.25987e-05
2.13985e-05
2.03351e-05
1.93859e-05
1.85332e-05
1.77627e-05
1.70628e-05
1.6424e-05
1.58384e-05
1.52992e-05
1.48011e-05
1.43392e-05
1.39094e-05
1.35083e-05
1.3133e-05
1.27807e-05
1.24493e-05
1.21368e-05
1.18414e-05
1.15616e-05
1.12961e-05
1.10436e-05
1.08032e-05
1.05738e-05
1.03546e-05
1.01448e-05
9.94375e-06
9.75083e-06
9.56546e-06
9.38712e-06
9.21536e-06
9.04974e-06
8.88987e-06
8.73541e-06
8.58602e-06
8.4414e-06
8.30128e-06
8.1654e-06
8.03353e-06
7.90544e-06
7.78095e-06
3.30347e-05
3.00748e-05
2.78034e-05
2.59048e-05
2.42802e-05
2.28714e-05
2.1637e-05
2.05457e-05
1.95736e-05
1.87017e-05
1.7915e-05
1.72012e-05
1.65505e-05
1.59545e-05
1.54063e-05
1.49002e-05
1.44312e-05
1.39951e-05
1.35884e-05
1.3208e-05
1.28512e-05
1.25156e-05
1.21993e-05
1.19005e-05
1.16176e-05
1.13492e-05
1.10941e-05
1.08512e-05
1.06196e-05
1.03983e-05
1.01866e-05
9.98381e-06
9.78923e-06
9.60231e-06
9.42253e-06
9.24941e-06
9.08252e-06
8.92147e-06
8.76588e-06
8.61544e-06
8.46983e-06
8.32877e-06
8.192e-06
8.05929e-06
7.93041e-06
7.80516e-06
7.68335e-06
3.355e-05
3.05485e-05
2.82016e-05
2.62405e-05
2.45666e-05
2.31186e-05
2.18528e-05
2.07359e-05
1.97427e-05
1.88533e-05
1.80517e-05
1.73254e-05
1.66638e-05
1.60584e-05
1.5502e-05
1.49887e-05
1.45133e-05
1.40716e-05
1.36598e-05
1.32748e-05
1.29139e-05
1.25746e-05
1.22549e-05
1.19531e-05
1.16673e-05
1.13964e-05
1.1139e-05
1.08939e-05
1.06603e-05
1.04371e-05
1.02237e-05
1.00193e-05
9.82327e-06
9.63497e-06
9.4539e-06
9.27958e-06
9.11156e-06
8.94944e-06
8.79286e-06
8.64148e-06
8.49499e-06
8.35309e-06
8.21554e-06
8.08208e-06
7.95249e-06
7.82657e-06
7.70413e-06
3.40139e-05
3.09715e-05
2.85561e-05
2.65387e-05
2.48204e-05
2.33373e-05
2.20433e-05
2.09036e-05
1.98915e-05
1.89864e-05
1.81717e-05
1.74342e-05
1.6763e-05
1.61493e-05
1.55857e-05
1.50659e-05
1.45849e-05
1.41382e-05
1.3722e-05
1.3333e-05
1.29684e-05
1.26259e-05
1.23033e-05
1.19987e-05
1.17106e-05
1.14374e-05
1.11779e-05
1.09309e-05
1.06956e-05
1.04708e-05
1.02559e-05
1.00501e-05
9.85278e-06
9.66328e-06
9.48109e-06
9.30571e-06
9.13671e-06
8.97368e-06
8.81623e-06
8.66403e-06
8.51677e-06
8.37415e-06
8.23591e-06
8.1018e-06
7.9716e-06
7.8451e-06
7.72209e-06
3.44174e-05
3.13367e-05
2.88615e-05
2.67949e-05
2.50381e-05
2.35246e-05
2.22062e-05
2.10467e-05
2.00184e-05
1.90998e-05
1.82737e-05
1.75266e-05
1.68472e-05
1.62263e-05
1.56565e-05
1.51313e-05
1.46455e-05
1.41945e-05
1.37745e-05
1.33821e-05
1.30145e-05
1.26692e-05
1.23441e-05
1.20373e-05
1.1747e-05
1.14719e-05
1.12107e-05
1.09621e-05
1.07253e-05
1.04992e-05
1.0283e-05
1.00761e-05
9.87761e-06
9.68709e-06
9.50395e-06
9.32769e-06
9.15786e-06
8.99405e-06
8.83587e-06
8.68298e-06
8.53507e-06
8.39184e-06
8.25302e-06
8.11836e-06
7.98765e-06
7.86065e-06
7.73718e-06
3.47519e-05
3.16375e-05
2.91125e-05
2.70052e-05
2.52164e-05
2.36778e-05
2.23392e-05
2.11634e-05
2.01218e-05
1.91921e-05
1.83567e-05
1.76017e-05
1.69155e-05
1.62888e-05
1.57139e-05
1.51843e-05
1.46946e-05
1.42401e-05
1.3817e-05
1.34218e-05
1.30517e-05
1.27042e-05
1.23771e-05
1.20684e-05
1.17765e-05
1.14998e-05
1.12372e-05
1.09873e-05
1.07493e-05
1.05221e-05
1.03049e-05
1.0097e-05
9.89763e-06
9.70629e-06
9.52239e-06
9.34541e-06
9.17491e-06
9.01046e-06
8.85169e-06
8.69825e-06
8.54981e-06
8.40609e-06
8.2668e-06
8.1317e-06
8.00057e-06
7.87317e-06
7.74933e-06
7.62884e-06
3.50101e-05
3.18684e-05
2.93049e-05
2.7166e-05
2.53527e-05
2.37947e-05
2.24407e-05
2.12523e-05
2.02004e-05
1.92622e-05
1.84198e-05
1.76587e-05
1.69673e-05
1.63362e-05
1.57574e-05
1.52244e-05
1.47317e-05
1.42746e-05
1.38492e-05
1.34519e-05
1.30799e-05
1.27307e-05
1.2402e-05
1.20919e-05
1.17987e-05
1.15209e-05
1.12572e-05
1.10064e-05
1.07674e-05
1.05393e-05
1.03214e-05
1.01127e-05
9.91274e-06
9.72078e-06
9.5363e-06
9.35878e-06
9.18777e-06
9.02284e-06
8.86363e-06
8.70976e-06
8.56093e-06
8.41683e-06
8.27719e-06
8.14176e-06
8.01031e-06
7.88261e-06
7.75848e-06
7.63773e-06
3.51857e-05
3.2025e-05
2.94351e-05
2.72749e-05
2.54448e-05
2.38736e-05
2.25091e-05
2.13123e-05
2.02534e-05
1.93095e-05
1.84622e-05
1.7697e-05
1.70022e-05
1.6368e-05
1.57867e-05
1.52514e-05
1.47567e-05
1.42978e-05
1.38707e-05
1.34721e-05
1.30988e-05
1.27484e-05
1.24187e-05
1.21077e-05
1.18136e-05
1.1535e-05
1.12706e-05
1.10191e-05
1.07795e-05
1.05509e-05
1.03324e-05
1.01233e-05
9.92286e-06
9.73048e-06
9.54561e-06
9.36773e-06
9.19637e-06
9.03113e-06
8.87162e-06
8.71747e-06
8.56837e-06
8.42402e-06
8.28414e-06
8.14849e-06
8.01682e-06
7.88893e-06
7.76461e-06
7.64367e-06
7.52595e-06
3.52747e-05
3.21041e-05
2.95008e-05
2.73297e-05
2.54912e-05
2.39134e-05
2.25436e-05
2.13425e-05
2.02801e-05
1.93332e-05
1.84835e-05
1.77163e-05
1.70197e-05
1.6384e-05
1.58014e-05
1.52649e-05
1.47692e-05
1.43094e-05
1.38816e-05
1.34822e-05
1.31083e-05
1.27573e-05
1.24271e-05
1.21156e-05
1.18211e-05
1.15421e-05
1.12773e-05
1.10255e-05
1.07856e-05
1.05567e-05
1.0338e-05
1.01286e-05
9.92794e-06
9.73535e-06
9.55028e-06
9.37221e-06
9.20069e-06
9.03529e-06
8.87562e-06
8.72133e-06
8.5721e-06
8.42762e-06
8.28763e-06
8.15186e-06
8.02009e-06
7.89209e-06
7.76767e-06
7.64665e-06
7.52884e-06
3.52747e-05
3.21041e-05
2.95008e-05
2.73297e-05
2.54912e-05
2.39134e-05
2.25436e-05
2.13425e-05
2.02801e-05
1.93332e-05
1.84835e-05
1.77163e-05
1.70197e-05
1.6384e-05
1.58014e-05
1.52649e-05
1.47692e-05
1.43094e-05
1.38816e-05
1.34822e-05
1.31083e-05
1.27573e-05
1.24271e-05
1.21156e-05
1.18211e-05
1.15421e-05
1.12773e-05
1.10255e-05
1.07856e-05
1.05567e-05
1.0338e-05
1.01286e-05
9.92794e-06
9.73535e-06
9.55028e-06
9.37221e-06
9.20069e-06
9.03529e-06
8.87562e-06
8.72133e-06
8.5721e-06
8.42762e-06
8.28763e-06
8.15186e-06
8.02009e-06
7.89209e-06
7.76767e-06
7.64665e-06
7.52884e-06
7.41408e-06
3.51857e-05
3.2025e-05
2.94351e-05
2.72749e-05
2.54448e-05
2.38736e-05
2.25091e-05
2.13123e-05
2.02534e-05
1.93095e-05
1.84622e-05
1.7697e-05
1.70022e-05
1.6368e-05
1.57867e-05
1.52514e-05
1.47567e-05
1.42978e-05
1.38707e-05
1.34721e-05
1.30988e-05
1.27484e-05
1.24187e-05
1.21077e-05
1.18136e-05
1.1535e-05
1.12706e-05
1.10191e-05
1.07795e-05
1.05509e-05
1.03324e-05
1.01233e-05
9.92286e-06
9.73048e-06
9.54561e-06
9.36773e-06
9.19637e-06
9.03113e-06
8.87162e-06
8.71747e-06
8.56837e-06
8.42402e-06
8.28414e-06
8.14849e-06
8.01682e-06
7.88893e-06
7.7646e-06
7.64367e-06
7.52594e-06
7.41127e-06
3.50101e-05
3.18685e-05
2.93049e-05
2.7166e-05
2.53527e-05
2.37947e-05
2.24407e-05
2.12523e-05
2.02004e-05
1.92622e-05
1.84198e-05
1.76587e-05
1.69673e-05
1.63362e-05
1.57574e-05
1.52244e-05
1.47317e-05
1.42746e-05
1.38492e-05
1.34519e-05
1.30799e-05
1.27307e-05
1.2402e-05
1.20919e-05
1.17987e-05
1.15209e-05
1.12572e-05
1.10063e-05
1.07674e-05
1.05393e-05
1.03214e-05
1.01127e-05
9.91274e-06
9.72078e-06
9.5363e-06
9.35878e-06
9.18777e-06
9.02284e-06
8.86363e-06
8.70976e-06
8.56093e-06
8.41683e-06
8.27719e-06
8.14176e-06
8.01031e-06
7.88261e-06
7.75848e-06
7.63773e-06
7.52017e-06
7.40567e-06
3.47519e-05
3.16375e-05
2.91125e-05
2.70052e-05
2.52164e-05
2.36778e-05
2.23392e-05
2.11634e-05
2.01218e-05
1.91921e-05
1.83567e-05
1.76017e-05
1.69155e-05
1.62888e-05
1.57139e-05
1.51843e-05
1.46946e-05
1.42401e-05
1.3817e-05
1.34218e-05
1.30517e-05
1.27042e-05
1.23771e-05
1.20684e-05
1.17764e-05
1.14998e-05
1.12372e-05
1.09873e-05
1.07493e-05
1.05221e-05
1.03049e-05
1.0097e-05
9.89763e-06
9.70629e-06
9.52239e-06
9.34541e-06
9.17491e-06
9.01046e-06
8.85169e-06
8.69825e-06
8.54981e-06
8.40609e-06
8.2668e-06
8.1317e-06
8.00057e-06
7.87317e-06
7.74933e-06
7.62884e-06
7.51155e-06
7.39729e-06
3.44174e-05
3.13367e-05
2.88615e-05
2.67949e-05
2.50381e-05
2.35246e-05
2.22062e-05
2.10467e-05
2.00184e-05
1.90998e-05
1.82737e-05
1.75266e-05
1.68472e-05
1.62263e-05
1.56565e-05
1.51313e-05
1.46455e-05
1.41945e-05
1.37745e-05
1.33821e-05
1.30145e-05
1.26692e-05
1.23441e-05
1.20373e-05
1.1747e-05
1.14719e-05
1.12107e-05
1.09621e-05
1.07253e-05
1.04992e-05
1.0283e-05
1.00761e-05
9.87761e-06
9.68709e-06
9.50395e-06
9.32769e-06
9.15786e-06
8.99405e-06
8.83587e-06
8.68298e-06
8.53507e-06
8.39184e-06
8.25302e-06
8.11836e-06
7.98765e-06
7.86065e-06
7.73718e-06
7.61705e-06
7.5001e-06
7.38617e-06
3.40139e-05
3.09715e-05
2.85561e-05
2.65387e-05
2.48204e-05
2.33373e-05
2.20433e-05
2.09036e-05
1.98915e-05
1.89864e-05
1.81717e-05
1.74342e-05
1.6763e-05
1.61493e-05
1.55857e-05
1.50659e-05
1.45849e-05
1.41382e-05
1.3722e-05
1.3333e-05
1.29684e-05
1.26259e-05
1.23033e-05
1.19987e-05
1.17106e-05
1.14374e-05
1.11779e-05
1.09309e-05
1.06956e-05
1.04708e-05
1.02559e-05
1.00501e-05
9.85278e-06
9.66328e-06
9.48108e-06
9.30571e-06
9.13671e-06
8.97367e-06
8.81623e-06
8.66403e-06
8.51677e-06
8.37415e-06
8.23591e-06
8.1018e-06
7.9716e-06
7.84509e-06
7.72209e-06
7.60241e-06
7.48588e-06
7.37235e-06
3.355e-05
3.05485e-05
2.82016e-05
2.62405e-05
2.45666e-05
2.31186e-05
2.18528e-05
2.07359e-05
1.97427e-05
1.88533e-05
1.80517e-05
1.73254e-05
1.66638e-05
1.60584e-05
1.5502e-05
1.49887e-05
1.45133e-05
1.40716e-05
1.36598e-05
1.32748e-05
1.29139e-05
1.25746e-05
1.22549e-05
1.1953e-05
1.16673e-05
1.13964e-05
1.11389e-05
1.08939e-05
1.06603e-05
1.04371e-05
1.02237e-05
1.00193e-05
9.82327e-06
9.63497e-06
9.4539e-06
9.27958e-06
9.11156e-06
8.94944e-06
8.79286e-06
8.64148e-06
8.49499e-06
8.35309e-06
8.21554e-06
8.08208e-06
7.95249e-06
7.82657e-06
7.70412e-06
7.58497e-06
7.46894e-06
7.35589e-06
3.30347e-05
3.00748e-05
2.78034e-05
2.59048e-05
2.42802e-05
2.28714e-05
2.1637e-05
2.05457e-05
1.95736e-05
1.87017e-05
1.7915e-05
1.72012e-05
1.65505e-05
1.59545e-05
1.54063e-05
1.49002e-05
1.44312e-05
1.39951e-05
1.35884e-05
1.3208e-05
1.28512e-05
1.25156e-05
1.21993e-05
1.19005e-05
1.16176e-05
1.13492e-05
1.10941e-05
1.08512e-05
1.06196e-05
1.03983e-05
1.01866e-05
9.98381e-06
9.78923e-06
9.60231e-06
9.42253e-06
9.24941e-06
9.08252e-06
8.92147e-06
8.76588e-06
8.61544e-06
8.46983e-06
8.32877e-06
8.192e-06
8.05929e-06
7.93041e-06
7.80516e-06
7.68335e-06
7.5648e-06
7.44935e-06
7.33685e-06
3.24772e-05
2.95577e-05
2.73675e-05
2.55364e-05
2.39651e-05
2.25987e-05
2.13985e-05
2.03351e-05
1.93859e-05
1.85332e-05
1.77627e-05
1.70628e-05
1.6424e-05
1.58384e-05
1.52992e-05
1.48011e-05
1.43392e-05
1.39094e-05
1.35083e-05
1.3133e-05
1.27807e-05
1.24493e-05
1.21368e-05
1.18414e-05
1.15616e-05
1.12961e-05
1.10436e-05
1.08032e-05
1.05738e-05
1.03546e-05
1.01448e-05
9.94375e-06
9.75083e-06
9.56546e-06
9.38712e-06
9.21536e-06
9.04974e-06
8.88987e-06
8.73541e-06
8.58602e-06
8.4414e-06
8.30128e-06
8.1654e-06
8.03353e-06
7.90544e-06
7.78095e-06
7.65985e-06
7.54199e-06
7.42719e-06
7.3153e-06
3.18865e-05
2.90046e-05
2.68999e-05
2.51401e-05
2.36252e-05
2.2304e-05
2.11401e-05
2.01064e-05
1.91817e-05
1.83496e-05
1.75964e-05
1.69114e-05
1.62854e-05
1.57109e-05
1.51816e-05
1.46921e-05
1.42379e-05
1.3815e-05
1.34201e-05
1.30503e-05
1.2703e-05
1.23761e-05
1.20677e-05
1.1776e-05
1.14997e-05
1.12373e-05
1.09877e-05
1.075e-05
1.0523e-05
1.03061e-05
1.00984e-05
9.89936e-06
9.70826e-06
9.52459e-06
9.34785e-06
9.17758e-06
9.01335e-06
8.8548e-06
8.70157e-06
8.55334e-06
8.40982e-06
8.27074e-06
8.13584e-06
8.00489e-06
7.87769e-06
7.75403e-06
7.63373e-06
7.51662e-06
7.40254e-06
7.29134e-06
3.12713e-05
2.8423e-05
2.64068e-05
2.47208e-05
2.32648e-05
2.19905e-05
2.08646e-05
1.98619e-05
1.89629e-05
1.81523e-05
1.74174e-05
1.67481e-05
1.61357e-05
1.55731e-05
1.50543e-05
1.45741e-05
1.41281e-05
1.37125e-05
1.33242e-05
1.29603e-05
1.26184e-05
1.22964e-05
1.19924e-05
1.17048e-05
1.14322e-05
1.11732e-05
1.09268e-05
1.06919e-05
1.04676e-05
1.02532e-05
1.00478e-05
9.85084e-06
9.66173e-06
9.47991e-06
9.3049e-06
9.13624e-06
8.97354e-06
8.81641e-06
8.66453e-06
8.51756e-06
8.37523e-06
8.23728e-06
8.10344e-06
7.97351e-06
7.84726e-06
7.72451e-06
7.60508e-06
7.48879e-06
7.37549e-06
7.26504e-06
3.06396e-05
2.78199e-05
2.58939e-05
2.42836e-05
2.28878e-05
2.16617e-05
2.05747e-05
1.96039e-05
1.87315e-05
1.79431e-05
1.72272e-05
1.65742e-05
1.59761e-05
1.5426e-05
1.49181e-05
1.44477e-05
1.40104e-05
1.36026e-05
1.32213e-05
1.28637e-05
1.25276e-05
1.22107e-05
1.19115e-05
1.16282e-05
1.13595e-05
1.11042e-05
1.08611e-05
1.06293e-05
1.04078e-05
1.0196e-05
9.9931e-06
9.79843e-06
9.61144e-06
9.43161e-06
9.25845e-06
9.09154e-06
8.93047e-06
8.77487e-06
8.62443e-06
8.47882e-06
8.33778e-06
8.20103e-06
8.06835e-06
7.9395e-06
7.81429e-06
7.69252e-06
7.57401e-06
7.45861e-06
7.34616e-06
7.23651e-06
2.99985e-05
2.72018e-05
2.5367e-05
2.3833e-05
2.24982e-05
2.13209e-05
2.02733e-05
1.93348e-05
1.84892e-05
1.77236e-05
1.70272e-05
1.6391e-05
1.58075e-05
1.52704e-05
1.4774e-05
1.43137e-05
1.38855e-05
1.34859e-05
1.31119e-05
1.2761e-05
1.24308e-05
1.21195e-05
1.18252e-05
1.15465e-05
1.1282e-05
1.10305e-05
1.07909e-05
1.05624e-05
1.0344e-05
1.01349e-05
9.93462e-06
9.74237e-06
9.55764e-06
9.37991e-06
9.20873e-06
9.04366e-06
8.88432e-06
8.73036e-06
8.58145e-06
8.43729e-06
8.29761e-06
8.16215e-06
8.03069e-06
7.903e-06
7.77889e-06
7.65816e-06
7.54065e-06
7.42619e-06
7.31464e-06
7.20585e-06
2.93545e-05
2.65749e-05
2.48312e-05
2.33738e-05
2.20999e-05
2.09713e-05
1.9963e-05
1.90567e-05
1.82381e-05
1.74953e-05
1.68185e-05
1.61995e-05
1.56311e-05
1.51072e-05
1.46227e-05
1.41729e-05
1.37541e-05
1.3363e-05
1.29967e-05
1.26527e-05
1.23288e-05
1.20232e-05
1.17341e-05
1.14602e-05
1.12e-05
1.09525e-05
1.07167e-05
1.04915e-05
1.02763e-05
1.00702e-05
9.87263e-06
9.68292e-06
9.50056e-06
9.32505e-06
9.15593e-06
8.99281e-06
8.8353e-06
8.68305e-06
8.53576e-06
8.39312e-06
8.25488e-06
8.12079e-06
7.99062e-06
7.86415e-06
7.7412e-06
7.62158e-06
7.50512e-06
7.39166e-06
7.28106e-06
7.17318e-06
2.87132e-05
2.59446e-05
2.42918e-05
2.29102e-05
2.16966e-05
2.06158e-05
1.96461e-05
1.87715e-05
1.79795e-05
1.72595e-05
1.66025e-05
1.60009e-05
1.54478e-05
1.49375e-05
1.4465e-05
1.40261e-05
1.36171e-05
1.32347e-05
1.28763e-05
1.25394e-05
1.2222e-05
1.19223e-05
1.16386e-05
1.13696e-05
1.1114e-05
1.08707e-05
1.06387e-05
1.04171e-05
1.02052e-05
1.00021e-05
9.80738e-06
9.62033e-06
9.44044e-06
9.26724e-06
9.10029e-06
8.9392e-06
8.78359e-06
8.63314e-06
8.48754e-06
8.3465e-06
8.20977e-06
8.07711e-06
7.94829e-06
7.8231e-06
7.70137e-06
7.5829e-06
7.46754e-06
7.35513e-06
7.24553e-06
7.13861e-06
2.80795e-05
2.53163e-05
2.37535e-05
2.24467e-05
2.12918e-05
2.02573e-05
1.93248e-05
1.84809e-05
1.77149e-05
1.70175e-05
1.63803e-05
1.57961e-05
1.52585e-05
1.4762e-05
1.43019e-05
1.38741e-05
1.34749e-05
1.31015e-05
1.27512e-05
1.24217e-05
1.21109e-05
1.18173e-05
1.15392e-05
1.12753e-05
1.10243e-05
1.07853e-05
1.05573e-05
1.03394e-05
1.01308e-05
9.93098e-06
9.73917e-06
9.55486e-06
9.37753e-06
9.20673e-06
9.04203e-06
8.88304e-06
8.72942e-06
8.58083e-06
8.43699e-06
8.29761e-06
8.16245e-06
8.03127e-06
7.90385e-06
7.78e-06
7.65953e-06
7.54227e-06
7.42806e-06
7.31675e-06
7.20819e-06
7.10226e-06
2.74576e-05
2.46946e-05
2.32212e-05
2.19874e-05
2.08888e-05
1.9898e-05
1.90006e-05
1.81861e-05
1.74454e-05
1.67702e-05
1.61527e-05
1.55861e-05
1.50641e-05
1.45817e-05
1.41341e-05
1.37174e-05
1.33284e-05
1.29641e-05
1.26221e-05
1.23e-05
1.19961e-05
1.17087e-05
1.14362e-05
1.11775e-05
1.09314e-05
1.06968e-05
1.04728e-05
1.02587e-05
1.00537e-05
9.85705e-06
9.66827e-06
9.48678e-06
9.31209e-06
9.14376e-06
8.98137e-06
8.82455e-06
8.67297e-06
8.52631e-06
8.38428e-06
8.24662e-06
8.11308e-06
7.98343e-06
7.85747e-06
7.73501e-06
7.61585e-06
7.49984e-06
7.38681e-06
7.27663e-06
7.16916e-06
7.06427e-06
2.68511e-05
2.40846e-05
2.27e-05
2.15365e-05
2.04903e-05
1.95396e-05
1.86747e-05
1.78879e-05
1.71718e-05
1.65185e-05