/*--------------------------------*- C++ -*----------------------------------*\
  =========                 |
  \\      /  F ield         | OpenFOAM: The Open Source CFD Toolbox
   \\    /   O peration     | Website:  https://openfoam.org
    \\  /    A nd           | Version:  7
     \\/     M anipulation  |
\*---------------------------------------------------------------------------*/
FoamFile
{
    version     2.0;
    format      ascii;
    class       volScalarField;
    location    "176000";
    object      omega;
}
// * * * * * * * * * * * * * * * * * * * * * * * * * * * * * * * * * * * * * //

dimensions      [0 0 -1 0 0 0 0];

internalField   nonuniform List<scalar> 
4783
(
0.0217247
0.0215708
0.0214258
0.0212895
0.0211617
0.0210423
0.0209309
0.0208272
0.020731
0.020642
0.0205601
0.0204848
0.0204161
0.0203537
0.0202974
0.020247
0.0202022
0.020163
0.0201291
0.0201003
0.0200766
0.0200578
0.0219881
0.0218361
0.0216888
0.0215477
0.0214141
0.0212883
0.0211704
0.0210603
0.0209578
0.0208627
0.0207749
0.0206941
0.0206201
0.0205527
0.0204918
0.0204371
0.0203885
0.0203458
0.0203088
0.0202773
0.0202513
0.0202307
0.0222795
0.0221196
0.0219675
0.0218217
0.0216827
0.021551
0.021427
0.0213107
0.0212021
0.0211011
0.0210074
0.0209211
0.0208418
0.0207695
0.020704
0.020645
0.0205925
0.0205462
0.0205061
0.0204719
0.0204437
0.0204212
0.0225889
0.0224206
0.0222616
0.0221098
0.0219652
0.0218279
0.0216981
0.021576
0.0214616
0.0213549
0.0212557
0.0211641
0.0210797
0.0210026
0.0209326
0.0208695
0.0208131
0.0207635
0.0207203
0.0206835
0.0206531
0.0206288
0.0229141
0.0227379
0.0225714
0.022413
0.0222622
0.0221191
0.0219836
0.0218558
0.0217359
0.0216237
0.0215192
0.0214225
0.0213333
0.0212516
0.0211772
0.0211101
0.0210501
0.0209972
0.0209511
0.0209118
0.0208792
0.0208532
0.0232541
0.0230704
0.0228966
0.0227313
0.0225741
0.0224249
0.0222836
0.0221502
0.0220248
0.0219073
0.0217978
0.0216961
0.0216022
0.021516
0.0214375
0.0213666
0.0213031
0.0212469
0.021198
0.0211563
0.0211216
0.021094
0.0236082
0.0234174
0.0232365
0.0230643
0.0229006
0.0227453
0.0225981
0.0224592
0.0223283
0.0222056
0.0220911
0.0219846
0.0218862
0.0217957
0.0217132
0.0216385
0.0215716
0.0215124
0.0214608
0.0214167
0.02138
0.0213508
0.0239759
0.0237781
0.0235904
0.0234116
0.0232415
0.02308
0.022927
0.0227824
0.0226462
0.0225184
0.0223989
0.0222878
0.0221849
0.0220903
0.0220039
0.0219256
0.0218554
0.0217932
0.0217389
0.0216925
0.021654
0.0216232
0.0243566
0.0241522
0.023958
0.0237727
0.0235963
0.0234287
0.0232699
0.0231198
0.0229783
0.0228454
0.0227211
0.0226053
0.0224981
0.0223994
0.0223092
0.0222274
0.022154
0.0220889
0.0220321
0.0219835
0.0219431
0.0219108
0.0247501
0.0245393
0.0243386
0.0241471
0.0239646
0.0237911
0.0236265
0.0234709
0.0233242
0.0231863
0.0230572
0.022937
0.0228256
0.0227229
0.022629
0.0225438
0.0224672
0.0223993
0.0223401
0.0222893
0.0222471
0.0222134
0.025156
0.0249389
0.0247321
0.0245344
0.0243459
0.0241667
0.0239965
0.0238355
0.0236836
0.0235409
0.0234071
0.0232825
0.0231669
0.0230603
0.0229628
0.0228742
0.0227947
0.0227241
0.0226623
0.0226095
0.0225656
0.0225304
0.025574
0.0253509
0.025138
0.0249344
0.0247401
0.0245552
0.0243796
0.0242133
0.0240564
0.0239088
0.0237705
0.0236415
0.0235218
0.0234114
0.0233104
0.0232186
0.023136
0.0230627
0.0229987
0.0229438
0.0228981
0.0228616
0.026004
0.0257749
0.0255561
0.0253467
0.0251468
0.0249563
0.0247753
0.0246039
0.024442
0.0242897
0.0241469
0.0240137
0.02389
0.0237759
0.0236714
0.0235764
0.023491
0.0234151
0.0233487
0.0232919
0.0232446
0.0232067
0.0264456
0.0262107
0.0259862
0.0257711
0.0255656
0.0253698
0.0251836
0.0250071
0.0248404
0.0246834
0.0245362
0.0243988
0.0242712
0.0241535
0.0240456
0.0239475
0.0238592
0.0237808
0.0237122
0.0236534
0.0236045
0.0235653
0.0268988
0.0266582
0.026428
0.0262074
0.0259965
0.0257953
0.025604
0.0254226
0.0252511
0.0250896
0.0249381
0.0247966
0.0246652
0.0245439
0.0244326
0.0243315
0.0242405
0.0241596
0.0240888
0.0240281
0.0273633
0.0271171
0.0268813
0.0266553
0.0264391
0.0262328
0.0260364
0.0258502
0.025674
0.0255081
0.0253524
0.0252069
0.0250717
0.0249469
0.0248324
0.0247282
0.0246345
0.0245512
0.0244782
0.027839
0.0275873
0.0273461
0.0271147
0.0268933
0.0266819
0.0264806
0.0262896
0.0261089
0.0259386
0.0257787
0.0256293
0.0254905
0.0253622
0.0252445
0.0251374
0.025041
0.0283258
0.0280686
0.0278221
0.0275855
0.0273589
0.0271425
0.0269364
0.0267408
0.0265556
0.026381
0.026217
0.0260638
0.0259213
0.0257896
0.0288235
0.0285611
0.0283093
0.0280675
0.0278358
0.0276145
0.0274037
0.0272034
0.0270138
0.026835
0.026667
0.02651
0.0293323
0.0290645
0.0288075
0.0285606
0.028324
0.0280978
0.0278823
0.0276775
0.0274836
0.0273006
0.0298519
0.0295788
0.0293167
0.0290647
0.0288232
0.0285922
0.0283721
0.0281628
0.0279646
0.0303823
0.0301041
0.0298368
0.0295798
0.0293334
0.0290978
0.028873
0.0286593
0.0309235
0.0306402
0.0303678
0.0301059
0.0298546
0.0296143
0.029385
0.0314756
0.0311871
0.0309097
0.0306428
0.0303868
0.0301418
0.0320386
0.0317449
0.0314624
0.0311907
0.0309299
0.0306803
0.0326124
0.0323136
0.0320261
0.0317495
0.0314839
0.0331971
0.0328932
0.0326007
0.0323192
0.0337929
0.0334839
0.0331863
0.0328999
0.0343997
0.0340856
0.033783
0.0350178
0.0346984
0.0343908
0.0356471
0.0353225
0.0350099
0.0362878
0.0359581
0.0356403
0.0369402
0.0366051
0.0362823
0.0376042
0.0372639
0.0369358
0.0382802
0.0379345
0.0376012
0.0389683
0.0386171
0.0382786
0.0396686
0.039312
0.0389681
0.0403815
0.0400193
0.03967
0.0411071
0.0407393
0.0403845
0.0418457
0.0414722
0.0411118
0.0425976
0.0422182
0.0418522
0.0433629
0.0429777
0.0426059
0.0217247
0.0219881
0.0222795
0.0225889
0.0229141
0.0232541
0.0236082
0.0239759
0.0243566
0.0247501
0.025156
0.0255741
0.026004
0.0264456
0.0268988
0.0273633
0.027839
0.0283258
0.0288235
0.0293323
0.0298519
0.0303823
0.0309235
0.0314756
0.0320386
0.0326124
0.0331971
0.0337929
0.0343997
0.0350178
0.0356471
0.0362878
0.0369402
0.0376042
0.0382802
0.0389683
0.0396686
0.0403815
0.0411071
0.0418457
0.0425976
0.0433629
0.0215708
0.0218361
0.0221196
0.0224206
0.0227379
0.0230704
0.0234174
0.0237781
0.0241522
0.0245393
0.0249389
0.0253509
0.0257749
0.0262107
0.0266582
0.0271171
0.0275873
0.0280686
0.0285611
0.0290645
0.0295788
0.0301041
0.0306402
0.0311871
0.0317449
0.0323136
0.0328932
0.0334839
0.0340856
0.0346984
0.0353226
0.0359581
0.0366051
0.0372639
0.0379345
0.0386171
0.039312
0.0400193
0.0407393
0.0414722
0.0422182
0.0429777
0.0214258
0.0216888
0.0219675
0.0222616
0.0225714
0.0228966
0.0232365
0.0235904
0.023958
0.0243386
0.0247321
0.025138
0.0255561
0.0259862
0.026428
0.0268813
0.0273461
0.0278221
0.0283093
0.0288075
0.0293167
0.0298368
0.0303678
0.0309097
0.0314624
0.0320261
0.0326007
0.0331863
0.033783
0.0343908
0.0350099
0.0356403
0.0362823
0.0369358
0.0376012
0.0382786
0.0389681
0.03967
0.0403845
0.0411118
0.0418522
0.0426059
0.0212895
0.0215477
0.0218217
0.0221098
0.022413
0.0227313
0.0230643
0.0234116
0.0237727
0.0241471
0.0245344
0.0249344
0.0253467
0.0257711
0.0262074
0.0266553
0.0271147
0.0275855
0.0280675
0.0285606
0.0290647
0.0295798
0.0301059
0.0306428
0.0311907
0.0317495
0.0323192
0.0328999
0.0334917
0.0340946
0.0347088
0.0353343
0.0359712
0.0366198
0.0372801
0.0379523
0.0386367
0.0393333
0.0400425
0.0407645
0.0414994
0.0422476
0.0211617
0.0214141
0.0216827
0.0219652
0.0222622
0.0225741
0.0229006
0.0232415
0.0235963
0.0239646
0.0243459
0.0247401
0.0251468
0.0255656
0.0259965
0.0264391
0.0268933
0.0273589
0.0278358
0.028324
0.0288232
0.0293334
0.0298546
0.0303868
0.0309299
0.0314839
0.0320489
0.0326249
0.0332119
0.0338101
0.0344195
0.0350402
0.0356723
0.036316
0.0369714
0.0376387
0.0383181
0.0390097
0.0397138
0.0404306
0.0411603
0.0419031
0.0210423
0.0212883
0.021551
0.0218279
0.0221191
0.0224249
0.0227453
0.02308
0.0234287
0.0237911
0.0241667
0.0245552
0.0249563
0.0253698
0.0257953
0.0262328
0.0266819
0.0271425
0.0276145
0.0280978
0.0285923
0.0290978
0.0296143
0.0301418
0.0306803
0.0312297
0.0317901
0.0323615
0.032944
0.0335375
0.0341423
0.0347584
0.0353859
0.0360249
0.0366756
0.0373381
0.0380127
0.0386995
0.0393986
0.0401104
0.0408351
0.0415728
0.0209309
0.0211704
0.021427
0.0216981
0.0219836
0.0222836
0.0225981
0.022927
0.0232699
0.0236265
0.0239965
0.0243796
0.0247753
0.0251836
0.025604
0.0260364
0.0264806
0.0269364
0.0274037
0.0278823
0.0283721
0.028873
0.029385
0.029908
0.030442
0.030987
0.031543
0.03211
0.032688
0.0332772
0.0338775
0.0344892
0.0351122
0.0357467
0.0363929
0.0370509
0.0377208
0.0384029
0.0390974
0.0398044
0.0405242
0.0412571
0.0208273
0.0210603
0.0213107
0.021576
0.0218559
0.0221502
0.0224592
0.0227824
0.0231198
0.0234709
0.0238355
0.0242133
0.0246039
0.0250071
0.0254226
0.0258502
0.0262896
0.0267408
0.0272034
0.0276775
0.0281628
0.0286594
0.029167
0.0296857
0.0302154
0.0307561
0.0313078
0.0318706
0.0324444
0.0330293
0.0336254
0.0342328
0.0348515
0.0354818
0.0361236
0.0367772
0.0374428
0.0381204
0.0388104
0.0395129
0.0402281
0.0409563
0.020731
0.0209578
0.0212021
0.0214616
0.0217359
0.0220248
0.0223283
0.0226462
0.0229783
0.0233242
0.0236837
0.0240564
0.024442
0.0248404
0.0252511
0.025674
0.0261089
0.0265556
0.0270138
0.0274836
0.0279646
0.0284569
0.0289604
0.0294749
0.0300005
0.0305371
0.0310848
0.0316435
0.0322132
0.0327941
0.0333862
0.0339895
0.0346041
0.0352303
0.035868
0.0365175
0.0371788
0.0378522
0.0385379
0.0392361
0.0399469
0.0406706
0.0206421
0.0208627
0.0211011
0.0213549
0.0216237
0.0219073
0.0222056
0.0225184
0.0228454
0.0231863
0.0235409
0.0239088
0.0242897
0.0246834
0.0250896
0.0255081
0.0259386
0.026381
0.026835
0.0273006
0.0277776
0.0282658
0.0287653
0.0292759
0.0297976
0.0303303
0.0308741
0.0314289
0.0319948
0.0325718
0.03316
0.0337595
0.0343703
0.0349925
0.0356263
0.0362718
0.0369292
0.0375986
0.0382802
0.0389743
0.0396809
0.0404005
0.0205601
0.0207749
0.0210075
0.0212557
0.0215193
0.0217978
0.0220911
0.0223989
0.0227211
0.0230573
0.0234071
0.0237705
0.0241469
0.0245362
0.0249381
0.0253524
0.0257787
0.026217
0.0266671
0.0271287
0.0276018
0.0280862
0.0285819
0.0290887
0.0296067
0.0301357
0.0306758
0.031227
0.0317892
0.0323626
0.0329472
0.033543
0.0341501
0.0347686
0.0353988
0.0360405
0.0366942
0.0373598
0.0380376
0.0387278
0.0394305
0.0401461
0.0204848
0.0206941
0.0209211
0.0211641
0.0214225
0.0216961
0.0219846
0.0222878
0.0226053
0.022937
0.0232825
0.0236415
0.0240137
0.0243988
0.0247967
0.0252069
0.0256293
0.0260638
0.02651
0.0269679
0.0274373
0.0279181
0.0284102
0.0289135
0.029428
0.0299535
0.0304902
0.0310379
0.0315967
0.0321666
0.0327478
0.0333401
0.0339438
0.0345589
0.0351855
0.0358238
0.0364739
0.037136
0.0378102
0.0384967
0.0391958
0.0399076
0.0406325
0.0204161
0.0206201
0.0208419
0.0210797
0.0213333
0.0216022
0.0218862
0.0221849
0.0224981
0.0228256
0.0231669
0.0235218
0.02389
0.0242713
0.0246652
0.0250717
0.0254905
0.0259213
0.026364
0.0268184
0.0272844
0.0277617
0.0282505
0.0287504
0.0292616
0.0297839
0.0303173
0.0308618
0.0314174
0.0319841
0.032562
0.0331511
0.0337516
0.0343635
0.0349868
0.0356219
0.0362687
0.0369274
0.0375983
0.0382814
0.038977
0.0396854
0.0404067
0.0411412
0.0203537
0.0205528
0.0207695
0.0210026
0.0212516
0.0215161
0.0217957
0.0220903
0.0223995
0.0227229
0.0230603
0.0234114
0.0237759
0.0241535
0.0245439
0.0249469
0.0253622
0.0257896
0.026229
0.0266801
0.0271429
0.0276171
0.0281027
0.0285996
0.0291076
0.0296269
0.0301573
0.0306987
0.0312513
0.0318151
0.03239
0.0329762
0.0335736
0.0341825
0.0348028
0.0354348
0.0360786
0.0367342
0.037402
0.038082
0.0387744
0.0394796
0.0401976
0.0409289
0.0202974
0.0204918
0.020704
0.0209326
0.0211772
0.0214376
0.0217132
0.0220039
0.0223092
0.022629
0.0229628
0.0233104
0.0236714
0.0240456
0.0244327
0.0248324
0.0252445
0.0256688
0.0261051
0.0265532
0.027013
0.0274843
0.027967
0.028461
0.0289662
0.0294826
0.0300102
0.0305489
0.0310988
0.0316597
0.0322319
0.0328153
0.03341
0.0340161
0.0346337
0.0352628
0.0359038
0.0365566
0.0372215
0.0378986
0.0385881
0.0392903
0.0400054
0.0407336
0.0414751
0.020247
0.0204372
0.020645
0.0208695
0.0211101
0.0213666
0.0216385
0.0219256
0.0222275
0.0225438
0.0228743
0.0232186
0.0235764
0.0239475
0.0243315
0.0247283
0.0251375
0.0255589
0.0259924
0.0264377
0.0268947
0.0273633
0.0278434
0.0283347
0.0288374
0.0293512
0.0298763
0.0304124
0.0309597
0.0315182
0.0320878
0.0326687
0.0332609
0.0338644
0.0344795
0.0351061
0.0357445
0.0363947
0.037057
0.0377314
0.0384183
0.0391178
0.0398301
0.0405555
0.0412943
0.0202023
0.0203885
0.0205925
0.0208132
0.0210502
0.0213031
0.0215716
0.0218554
0.022154
0.0224673
0.0227947
0.0231361
0.023491
0.0238592
0.0242405
0.0246345
0.0250411
0.0254599
0.0258908
0.0263336
0.0267882
0.0272543
0.027732
0.028221
0.0287212
0.0292328
0.0297555
0.0302893
0.0308343
0.0313905
0.0319579
0.0325365
0.0331264
0.0337276
0.0343404
0.0349647
0.0356007
0.0362486
0.0369085
0.0375806
0.0382651
0.0389621
0.039672
0.0403949
0.0411311
0.0418809
0.020163
0.0203458
0.0205462
0.0207635
0.0209972
0.0212469
0.0215124
0.0217932
0.022089
0.0223994
0.0227241
0.0230628
0.0234151
0.0237808
0.0241596
0.0245512
0.0249554
0.0253719
0.0258005
0.026241
0.0266934
0.0271573
0.0276328
0.0281197
0.0286179
0.0291273
0.0296479
0.0301797
0.0307227
0.0312768
0.0318421
0.0324187
0.0330065
0.0336058
0.0342165
0.0348387
0.0354727
0.0361185
0.0367763
0.0374463
0.0381286
0.0388235
0.0395312
0.0402519
0.0409858
0.0417333
0.0424946
0.0201291
0.0203088
0.0205061
0.0207203
0.0209511
0.021198
0.0214608
0.0217389
0.0220321
0.0223401
0.0226624
0.0229987
0.0233488
0.0237122
0.0240888
0.0244783
0.0248803
0.0252948
0.0257214
0.0261599
0.0266103
0.0270724
0.0275459
0.0280309
0.0285273
0.0290349
0.0295537
0.0300837
0.0306248
0.0311772
0.0317407
0.0323155
0.0329015
0.033499
0.0341079
0.0347283
0.0353605
0.0360044
0.0366604
0.0373285
0.038009
0.0387019
0.0394077
0.0401264
0.0408584
0.0416039
0.0423631
0.0201003
0.0202773
0.0204719
0.0206836
0.0209118
0.0211563
0.0214167
0.0216926
0.0219836
0.0222893
0.0226096
0.0229439
0.0232919
0.0236535
0.0240282
0.0244158
0.024816
0.0252287
0.0256535
0.0260904
0.0265391
0.0269995
0.0274714
0.0279548
0.0284495
0.0289555
0.0294728
0.0300012
0.0305408
0.0310916
0.0316536
0.0322268
0.0328114
0.0334073
0.0340146
0.0346335
0.0352641
0.0359065
0.0365609
0.0372274
0.0379062
0.0385976
0.0393017
0.0400187
0.040749
0.0414928
0.0422503
0.0200766
0.0202514
0.0204437
0.0206531
0.0208792
0.0211217
0.02138
0.021654
0.0219431
0.0222471
0.0225656
0.0228982
0.0232446
0.0236045
0.0239776
0.0243637
0.0247624
0.0251736
0.025597
0.0260324
0.0264797
0.0269387
0.0274093
0.0278913
0.0283847
0.0288894
0.0294053
0.0299324
0.0304708
0.0310203
0.031581
0.0321529
0.0327362
0.0333308
0.0339368
0.0345544
0.0351837
0.0358248
0.0364779
0.037143
0.0378205
0.0385105
0.0392132
0.0399289
0.0406578
0.0414001
0.0421561
0.0200578
0.0202307
0.0204212
0.0206288
0.0208532
0.021094
0.0213508
0.0216232
0.0219109
0.0222134
0.0225304
0.0228617
0.0232067
0.0235653
0.0239372
0.024322
0.0247195
0.0251295
0.0255517
0.025986
0.0264321
0.02689
0.0273595
0.0278404
0.0283328
0.0288364
0.0293513
0.0298774
0.0304146
0.0309631
0.0315228
0.0320937
0.0326759
0.0332695
0.0338745
0.0344911
0.0351193
0.0357594
0.0364114
0.0370755
0.0377519
0.0384408
0.0391424
0.0398569
0.0405847
0.0413258
0.0420807
0.0428496
0.0200437
0.0202153
0.0204044
0.0206107
0.0208338
0.0210734
0.0213289
0.0216002
0.0218867
0.0221881
0.0225041
0.0228343
0.0231784
0.023536
0.0239069
0.0242907
0.0246873
0.0250964
0.0255178
0.0259512
0.0263965
0.0268535
0.0273222
0.0278023
0.0282938
0.0287966
0.0293107
0.029836
0.0303725
0.0309202
0.0314791
0.0320493
0.0326307
0.0332235
0.0338277
0.0344435
0.035071
0.0357102
0.0363614
0.0370247
0.0377003
0.0383884
0.0390892
0.0398029
0.0405298
0.0412701
0.0420241
0.0427922
0.0200344
0.0202051
0.0203932
0.0205987
0.0208209
0.0210596
0.0213144
0.0215848
0.0218706
0.0221713
0.0224866
0.0228161
0.0231594
0.0235164
0.0238867
0.0242699
0.0246659
0.0250744
0.0254951
0.0259279
0.0263727
0.0268292
0.0272973
0.0277769
0.0282678
0.0287701
0.0292837
0.0298085
0.0303444
0.0308916
0.03145
0.0320196
0.0326005
0.0331928
0.0337965
0.0344118
0.0350387
0.0356775
0.0363281
0.0369909
0.037666
0.0383535
0.0390537
0.0397669
0.0404932
0.0412329
0.0419864
0.0427538
0.0435355
0.0200298
0.0202
0.0203877
0.0205926
0.0208145
0.0210527
0.0213071
0.0215772
0.0218626
0.0221629
0.0224778
0.0228069
0.02315
0.0235066
0.0238765
0.0242595
0.0246551
0.0250633
0.0254838
0.0259163
0.0263608
0.026817
0.0272848
0.0277641
0.0282548
0.0287569
0.0292702
0.0297947
0.0303304
0.0308773
0.0314354
0.0320048
0.0325855
0.0331775
0.0337809
0.034396
0.0350226
0.0356611
0.0363115
0.036974
0.0376488
0.038336
0.039036
0.0397489
0.0404749
0.0412144
0.0419675
0.0427346
0.043516
0.0200298
0.0202
0.0203877
0.0205926
0.0208145
0.0210527
0.0213071
0.0215772
0.0218626
0.0221629
0.0224778
0.0228069
0.02315
0.0235066
0.0238765
0.0242595
0.0246551
0.0250633
0.0254838
0.0259163
0.0263608
0.026817
0.0272848
0.0277641
0.0282548
0.0287569
0.0292702
0.0297947
0.0303304
0.0308773
0.0314354
0.0320048
0.0325855
0.0331775
0.0337809
0.034396
0.0350226
0.0356611
0.0363115
0.036974
0.0376488
0.038336
0.039036
0.0397489
0.0404749
0.0412144
0.0419675
0.0427346
0.043516
0.0443121
0.0200344
0.0202051
0.0203932
0.0205987
0.0208209
0.0210596
0.0213144
0.0215848
0.0218706
0.0221713
0.0224866
0.0228161
0.0231594
0.0235164
0.0238867
0.0242699
0.0246659
0.0250744
0.0254951
0.0259279
0.0263727
0.0268292
0.0272973
0.0277769
0.0282678
0.0287701
0.0292837
0.0298085
0.0303444
0.0308916
0.03145
0.0320196
0.0326005
0.0331928
0.0337965
0.0344118
0.0350387
0.0356775
0.0363281
0.0369909
0.037666
0.0383535
0.0390537
0.0397669
0.0404932
0.0412329
0.0419864
0.0427538
0.0435355
0.0443319
0.0200438
0.0202153
0.0204044
0.0206107
0.0208338
0.0210734
0.0213289
0.0216002
0.0218867
0.0221881
0.0225041
0.0228343
0.0231784
0.023536
0.0239069
0.0242907
0.0246873
0.0250964
0.0255178
0.0259512
0.0263965
0.0268535
0.0273222
0.0278023
0.0282938
0.0287966
0.0293107
0.029836
0.0303725
0.0309202
0.0314791
0.0320493
0.0326307
0.0332235
0.0338277
0.0344435
0.035071
0.0357102
0.0363614
0.0370247
0.0377003
0.0383884
0.0390892
0.0398029
0.0405298
0.0412701
0.0420241
0.0427922
0.0435745
0.0443714
0.0200578
0.0202307
0.0204212
0.0206288
0.0208532
0.021094
0.0213508
0.0216232
0.0219109
0.0222134
0.0225304
0.0228617
0.0232067
0.0235653
0.0239372
0.024322
0.0247195
0.0251295
0.0255517
0.025986
0.0264322
0.02689
0.0273595
0.0278405
0.0283328
0.0288364
0.0293513
0.0298774
0.0304146
0.0309631
0.0315228
0.0320937
0.0326759
0.0332695
0.0338745
0.0344911
0.0351193
0.0357594
0.0364114
0.0370755
0.0377519
0.0384408
0.0391424
0.0398569
0.0405847
0.0413258
0.0420807
0.0428496
0.0436329
0.0444308
0.0200766
0.0202514
0.0204437
0.0206531
0.0208792
0.0211217
0.0213801
0.021654
0.0219432
0.0222471
0.0225656
0.0228982
0.0232446
0.0236045
0.0239776
0.0243637
0.0247624
0.0251736
0.025597
0.0260324
0.0264797
0.0269387
0.0274093
0.0278913
0.0283847
0.0288894
0.0294053
0.0299324
0.0304708
0.0310203
0.031581
0.0321529
0.0327362
0.0333308
0.0339368
0.0345544
0.0351837
0.0358248
0.0364779
0.037143
0.0378205
0.0385105
0.0392132
0.0399289
0.0406578
0.0414001
0.0421562
0.0429262
0.0437107
0.0445098
0.0201003
0.0202773
0.0204719
0.0206836
0.0209118
0.0211563
0.0214167
0.0216926
0.0219836
0.0222893
0.0226096
0.0229439
0.0232919
0.0236535
0.0240282
0.0244158
0.024816
0.0252287
0.0256535
0.0260904
0.0265391
0.0269995
0.0274714
0.0279548
0.0284495
0.0289555
0.0294728
0.0300012
0.0305408
0.0310916
0.0316536
0.0322268
0.0328114
0.0334073
0.0340146
0.0346335
0.0352641
0.0359065
0.0365609
0.0372274
0.0379062
0.0385976
0.0393017
0.0400188
0.040749
0.0414928
0.0422503
0.0430219
0.0438078
0.0446084
0.0201291
0.0203088
0.0205061
0.0207203
0.0209511
0.021198
0.0214608
0.0217389
0.0220322
0.0223401
0.0226624
0.0229987
0.0233488
0.0237122
0.0240888
0.0244783
0.0248803
0.0252948
0.0257214
0.0261599
0.0266103
0.0270724
0.0275459
0.0280309
0.0285273
0.0290349
0.0295537
0.0300837
0.0306248
0.0311772
0.0317407
0.0323155
0.0329015
0.033499
0.0341079
0.0347283
0.0353605
0.0360044
0.0366604
0.0373285
0.038009
0.0387019
0.0394077
0.0401264
0.0408584
0.0416039
0.0423632
0.0431365
0.0439242
0.0447267
0.020163
0.0203458
0.0205462
0.0207635
0.0209972
0.0212469
0.0215124
0.0217932
0.022089
0.0223994
0.0227241
0.0230628
0.0234151
0.0237808
0.0241596
0.0245512
0.0249554
0.0253719
0.0258005
0.026241
0.0266934
0.0271573
0.0276328
0.0281197
0.0286179
0.0291273
0.0296479
0.0301797
0.0307227
0.0312768
0.0318421
0.0324187
0.0330065
0.0336058
0.0342165
0.0348387
0.0354727
0.0361185
0.0367763
0.0374463
0.0381286
0.0388235
0.0395312
0.0402519
0.0409858
0.0417333
0.0424946
0.04327
0.0440599
0.0448645
0.0202023
0.0203885
0.0205925
0.0208132
0.0210502
0.0213031
0.0215716
0.0218554
0.0221541
0.0224673
0.0227947
0.0231361
0.023491
0.0238593
0.0242405
0.0246345
0.0250411
0.0254599
0.0258908
0.0263336
0.0267882
0.0272543
0.027732
0.028221
0.0287213
0.0292328
0.0297555
0.0302893
0.0308343
0.0313905
0.0319579
0.0325365
0.0331264
0.0337276
0.0343404
0.0349647
0.0356007
0.0362486
0.0369085
0.0375806
0.0382651
0.0389622
0.039672
0.0403949
0.0411311
0.0418809
0.0426445
0.0434223
0.0442146
0.0450216
0.020247
0.0204372
0.020645
0.0208695
0.0211101
0.0213666
0.0216385
0.0219256
0.0222275
0.0225438
0.0228743
0.0232186
0.0235764
0.0239475
0.0243315
0.0247283
0.0251375
0.0255589
0.0259924
0.0264377
0.0268948
0.0273633
0.0278434
0.0283348
0.0288374
0.0293513
0.0298763
0.0304124
0.0309597
0.0315182
0.0320878
0.0326687
0.0332609
0.0338644
0.0344795
0.0351061
0.0357445
0.0363947
0.037057
0.0377314
0.0384183
0.0391178
0.0398301
0.0405555
0.0412943
0.0420466
0.0428129
0.0435933
0.0443882
0.045198
0.0202974
0.0204918
0.020704
0.0209326
0.0211772
0.0214376
0.0217132
0.0220039
0.0223093
0.022629
0.0229628
0.0233104
0.0236714
0.0240456
0.0244327
0.0248324
0.0252445
0.0256688
0.0261051
0.0265532
0.027013
0.0274843
0.027967
0.028461
0.0289662
0.0294827
0.0300102
0.0305489
0.0310988
0.0316597
0.0322319
0.0328153
0.03341
0.0340161
0.0346337
0.0352629
0.0359038
0.0365566
0.0372215
0.0378986
0.0385881
0.0392903
0.0400054
0.0407336
0.0414751
0.0422303
0.0429994
0.0437828
0.0445808
0.0453936
0.0203537
0.0205528
0.0207695
0.0210026
0.0212516
0.0215161
0.0217957
0.0220903
0.0223995
0.0227229
0.0230603
0.0234115
0.0237759
0.0241535
0.0245439
0.0249469
0.0253622
0.0257896
0.026229
0.0266801
0.0271429
0.0276171
0.0281027
0.0285996
0.0291077
0.0296269
0.0301573
0.0306988
0.0312514
0.0318151
0.03239
0.0329762
0.0335736
0.0341825
0.0348028
0.0354348
0.0360786
0.0367342
0.037402
0.038082
0.0387744
0.0394796
0.0401977
0.0409289
0.0416735
0.0424318
0.0432041
0.0439907
0.044792
0.0456082
0.0204161
0.0206201
0.0208419
0.0210797
0.0213333
0.0216022
0.0218862
0.0221849
0.0224982
0.0228256
0.0231669
0.0235218
0.02389
0.0242713
0.0246653
0.0250717
0.0254905
0.0259213
0.026364
0.0268184
0.0272844
0.0277618
0.0282505
0.0287505
0.0292616
0.0297839
0.0303173
0.0308618
0.0314174
0.0319841
0.032562
0.0331512
0.0337516
0.0343635
0.0349869
0.0356219
0.0362687
0.0369274
0.0375983
0.0382814
0.0389771
0.0396854
0.0404067
0.0411413
0.0418892
0.042651
0.0434267
0.0442169
0.0450217
0.0458415
0.0204848
0.0206941
0.0209211
0.0211641
0.0214225
0.0216961
0.0219846
0.0222878
0.0226053
0.022937
0.0232825
0.0236415
0.0240137
0.0243988
0.0247967
0.0252069
0.0256294
0.0260638
0.02651
0.0269679
0.0274374
0.0279182
0.0284102
0.0289135
0.029428
0.0299535
0.0304902
0.0310379
0.0315967
0.0321667
0.0327478
0.0333401
0.0339438
0.0345589
0.0351855
0.0358238
0.0364739
0.037136
0.0378102
0.0384967
0.0391958
0.0399077
0.0406325
0.0413706
0.0421222
0.0428876
0.0436671
0.044461
0.0452697
0.0460935
0.0205601
0.0207749
0.0210075
0.0212557
0.0215193
0.0217978
0.0220911
0.0223989
0.0227211
0.0230573
0.0234072
0.0237705
0.0241469
0.0245362
0.0249381
0.0253524
0.0257787
0.026217
0.0266671
0.0271287
0.0276018
0.0280862
0.0285819
0.0290887
0.0296067
0.0301357
0.0306758
0.031227
0.0317893
0.0323626
0.0329472
0.033543
0.0341501
0.0347687
0.0353988
0.0360406
0.0366942
0.0373598
0.0380376
0.0387278
0.0394305
0.0401461
0.0408747
0.0416166
0.0423721
0.0431414
0.043925
0.044723
0.0455358
0.0463638
0.0206421
0.0208627
0.0211011
0.0213549
0.0216237
0.0219073
0.0222056
0.0225184
0.0228454
0.0231863
0.0235409
0.0239088
0.0242897
0.0246834
0.0250896
0.0255081
0.0259386
0.026381
0.026835
0.0273006
0.0277776
0.0282658
0.0287653
0.0292759
0.0297976
0.0303303
0.0308741
0.0314289
0.0319948
0.0325718
0.03316
0.0337595
0.0343703
0.0349925
0.0356263
0.0362718
0.0369292
0.0375986
0.0382803
0.0389743
0.039681
0.0404005
0.0411331
0.0418791
0.0426387
0.0434123
0.0442001
0.0450025
0.0458198
0.0466523
0.020731
0.0209578
0.0212021
0.0214616
0.0217359
0.0220248
0.0223283
0.0226462
0.0229783
0.0233242
0.0236837
0.0240564
0.0244421
0.0248404
0.0252511
0.0256741
0.0261089
0.0265556
0.0270139
0.0274836
0.0279646
0.0284569
0.0289604
0.0294749
0.0300005
0.0305372
0.0310848
0.0316435
0.0322133
0.0327941
0.0333862
0.0339895
0.0346042
0.0352303
0.035868
0.0365175
0.0371788
0.0378523
0.0385379
0.0392361
0.0399469
0.0406706
0.0414075
0.0421579
0.0429219
0.0436999
0.0444923
0.0452993
0.0461213
0.0469586
0.0208273
0.0210603
0.0213107
0.021576
0.0218559
0.0221503
0.0224592
0.0227824
0.0231198
0.0234709
0.0238355
0.0242133
0.0246039
0.0250071
0.0254226
0.0258502
0.0262896
0.0267408
0.0272034
0.0276775
0.0281629
0.0286594
0.029167
0.0296857
0.0302154
0.0307561
0.0313078
0.0318706
0.0324444
0.0330293
0.0336254
0.0342328
0.0348515
0.0354818
0.0361236
0.0367772
0.0374428
0.0381204
0.0388104
0.0395129
0.0402281
0.0409563
0.0416977
0.0424526
0.0432213
0.0440041
0.0448012
0.0456131
0.0464401
0.0472825
0.0209309
0.0211704
0.021427
0.0216981
0.0219836
0.0222836
0.0225981
0.022927
0.0232699
0.0236265
0.0239965
0.0243796
0.0247754
0.0251836
0.025604
0.0260365
0.0264807
0.0269365
0.0274037
0.0278823
0.0283721
0.028873
0.029385
0.029908
0.0304421
0.030987
0.031543
0.03211
0.032688
0.0332772
0.0338775
0.0344892
0.0351122
0.0357467
0.0363929
0.0370509
0.0377208
0.0384029
0.0390974
0.0398044
0.0405243
0.0412571
0.0420033
0.042763
0.0435366
0.0443243
0.0451266
0.0459436
0.0467759
0.0476237
0.0210423
0.0212883
0.021551
0.0218279
0.0221191
0.0224249
0.0227453
0.02308
0.0234287
0.0237911
0.0241667
0.0245552
0.0249563
0.0253698
0.0257953
0.0262328
0.0266819
0.0271425
0.0276146
0.0280978
0.0285923
0.0290978
0.0296143
0.0301418
0.0306803
0.0312297
0.0317901
0.0323615
0.032944
0.0335375
0.0341423
0.0347584
0.0353859
0.0360249
0.0366756
0.0373381
0.0380127
0.0386995
0.0393986
0.0401104
0.0408351
0.0415729
0.042324
0.0430888
0.0438675
0.0446605
0.045468
0.0462905
0.0471283
0.0479817
0.0211618
0.0214141
0.0216827
0.0219652
0.0222622
0.0225741
0.0229006
0.0232415
0.0235963
0.0239646
0.024346
0.0247401
0.0251468
0.0255656
0.0259965
0.0264391
0.0268933
0.0273589
0.0278359
0.028324
0.0288232
0.0293334
0.0298546
0.0303868
0.0309299
0.0314839
0.0320489
0.0326249
0.0332119
0.0338101
0.0344195
0.0350402
0.0356723
0.036316
0.0369714
0.0376387
0.0383181
0.0390097
0.0397138
0.0404306
0.0411603
0.0419032
0.0426595
0.0434295
0.0442136
0.0450121
0.0458252
0.0466533
0.0474969
0.0483562
0.0212895
0.0215477
0.0218217
0.0221098
0.022413
0.0227313
0.0230643
0.0234116
0.0237727
0.0241471
0.0245344
0.0249344
0.0253467
0.0257711
0.0262074
0.0266553
0.0271147
0.0275855
0.0280675
0.0285606
0.0290647
0.0295798
0.0301059
0.0306428
0.0311907
0.0317495
0.0323192
0.0328999
0.0334917
0.0340946
0.0347088
0.0353343
0.0359712
0.0366198
0.0372801
0.0379523
0.0386367
0.0393333
0.0400425
0.0407645
0.0414994
0.0422477
0.0430094
0.043785
0.0445747
0.0453788
0.0461977
0.0470318
0.0478813
0.0487467
0.0214258
0.0216888
0.0219675
0.0222616
0.0225714
0.0228966
0.0232365
0.0235904
0.023958
0.0243386
0.0247321
0.025138
0.0255561
0.0259862
0.026428
0.0268813
0.0273461
0.0278221
0.0283093
0.0288075
0.0293167
0.0298368
0.0303678
0.0309097
0.0314625
0.0320261
0.0326008
0.0331864
0.033783
0.0343908
0.0350099
0.0356403
0.0362823
0.0369358
0.0376012
0.0382786
0.0389681
0.03967
0.0403845
0.0411118
0.0418522
0.042606
0.0433733
0.0441546
0.0449501
0.0457602
0.0465851
0.0474253
0.0482811
0.049153
0.0215708
0.0218361
0.0221196
0.0224206
0.0227379
0.0230704
0.0234174
0.0237781
0.0241522
0.0245393
0.0249389
0.0253509
0.0257749
0.0262107
0.0266582
0.0271171
0.0275873
0.0280686
0.0285611
0.0290645
0.0295788
0.0301041
0.0306402
0.0311871
0.0317449
0.0323136
0.0328932
0.0334839
0.0340856
0.0346984
0.0353226
0.0359581
0.0366052
0.0372639
0.0379345
0.0386172
0.039312
0.0400193
0.0407393
0.0414722
0.0422182
0.0429777
0.0437509
0.0445381
0.0453396
0.0461558
0.046987
0.0478336
0.0486959
0.0495743
0.0217247
0.0219881
0.0222795
0.0225889
0.0229141
0.0232541
0.0236082
0.0239759
0.0243566
0.0247501
0.025156
0.0255741
0.026004
0.0264457
0.0268988
0.0273633
0.027839
0.0283258
0.0288236
0.0293323
0.0298519
0.0303823
0.0309236
0.0314756
0.0320386
0.0326124
0.0331971
0.0337929
0.0343997
0.0350178
0.0356471
0.0362879
0.0369402
0.0376042
0.0382802
0.0389683
0.0396686
0.0403815
0.0411071
0.0418457
0.0425976
0.043363
0.0441422
0.0449355
0.0457432
0.0465657
0.0474034
0.0482566
0.0491256
0.0500109
0.0217247
0.0219881
0.0222795
0.0225889
0.0229141
0.0232541
0.0236082
0.0239759
0.0243566
0.0247501
0.025156
0.0255741
0.026004
0.0264457
0.0268988
0.0273633
0.027839
0.0283258
0.0288236
0.0293323
0.0298519
0.0303823
0.0309236
0.0314756
0.0320386
0.0326124
0.0331971
0.0337929
0.0343997
0.0350178
0.0356471
0.0362879
0.0369402
0.0376042
0.0382802
0.0389683
0.0396686
0.0403815
0.0411071
0.0418457
0.0425976
0.043363
0.0441422
0.0449355
0.0457432
0.0465657
0.0474034
0.0482565
0.0491256
0.0500109
0.0215708
0.0218361
0.0221196
0.0224206
0.0227379
0.0230704
0.0234174
0.0237781
0.0241522
0.0245393
0.0249389
0.0253509
0.0257749
0.0262107
0.0266582
0.0271171
0.0275873
0.0280686
0.0285611
0.0290645
0.0295788
0.0301041
0.0306402
0.0311871
0.0317449
0.0323136
0.0328932
0.0334839
0.0340856
0.0346984
0.0353226
0.0359581
0.0366052
0.0372639
0.0379345
0.0386171
0.039312
0.0400193
0.0407393
0.0414722
0.0422182
0.0429777
0.0437509
0.0445381
0.0453396
0.0461558
0.046987
0.0478336
0.0486959
0.0495743
0.0214258
0.0216888
0.0219675
0.0222616
0.0225714
0.0228966
0.0232365