/*--------------------------------*- C++ -*----------------------------------*\
  =========                 |
  \\      /  F ield         | OpenFOAM: The Open Source CFD Toolbox
   \\    /   O peration     | Website:  https://openfoam.org
    \\  /    A nd           | Version:  7
     \\/     M anipulation  |
\*---------------------------------------------------------------------------*/
FoamFile
{
    version     2.0;
    format      ascii;
    class       volScalarField;
    location    "56000";
    object      k;
}
// * * * * * * * * * * * * * * * * * * * * * * * * * * * * * * * * * * * * * //

dimensions      [0 2 -2 0 0 0 0];

internalField   nonuniform List<scalar> 
14100
(
5.92778e-07
5.85872e-07
5.79601e-07
5.73921e-07
5.68831e-07
5.64312e-07
5.60342e-07
5.56898e-07
5.53957e-07
5.51493e-07
5.49483e-07
5.47906e-07
5.46741e-07
5.45973e-07
5.45592e-07
5.45592e-07
5.45973e-07
5.46741e-07
5.47906e-07
5.49483e-07
5.51493e-07
5.53957e-07
5.56898e-07
5.60342e-07
5.64312e-07
5.68831e-07
5.73921e-07
5.79601e-07
5.85872e-07
5.92778e-07
6.04755e-07
5.97818e-07
5.91319e-07
5.85303e-07
5.79827e-07
5.74907e-07
5.70544e-07
5.66725e-07
5.63437e-07
5.60662e-07
5.58383e-07
5.56583e-07
5.55248e-07
5.54365e-07
5.53926e-07
5.53926e-07
5.54365e-07
5.55248e-07
5.56583e-07
5.58383e-07
5.60662e-07
5.63437e-07
5.66725e-07
5.70544e-07
5.74907e-07
5.79827e-07
5.85303e-07
5.91319e-07
5.97818e-07
6.04755e-07
6.18136e-07
6.10785e-07
6.0398e-07
5.97654e-07
5.91843e-07
5.86575e-07
5.81862e-07
5.77705e-07
5.74101e-07
5.71041e-07
5.68514e-07
5.66509e-07
5.65016e-07
5.64026e-07
5.63533e-07
5.63533e-07
5.64026e-07
5.65016e-07
5.66509e-07
5.68514e-07
5.71041e-07
5.74101e-07
5.77705e-07
5.81862e-07
5.86575e-07
5.91843e-07
5.97654e-07
6.0398e-07
6.10785e-07
6.18136e-07
6.32446e-07
6.24685e-07
6.17524e-07
6.10877e-07
6.04754e-07
5.99175e-07
5.94155e-07
5.89703e-07
5.85822e-07
5.8251e-07
5.79763e-07
5.77576e-07
5.75942e-07
5.74856e-07
5.74314e-07
5.74314e-07
5.74856e-07
5.75942e-07
5.77576e-07
5.79763e-07
5.8251e-07
5.85822e-07
5.89703e-07
5.94155e-07
5.99175e-07
6.04754e-07
6.10877e-07
6.17524e-07
6.24685e-07
6.32446e-07
6.47495e-07
6.39384e-07
6.31885e-07
6.24923e-07
6.18503e-07
6.12638e-07
6.07343e-07
6.02628e-07
5.98502e-07
5.94968e-07
5.92027e-07
5.89679e-07
5.87921e-07
5.86751e-07
5.86166e-07
5.86166e-07
5.86751e-07
5.87921e-07
5.89679e-07
5.92027e-07
5.94968e-07
5.98502e-07
6.02628e-07
6.07343e-07
6.12638e-07
6.18503e-07
6.24923e-07
6.31885e-07
6.39384e-07
6.47495e-07
6.63153e-07
6.54752e-07
6.46956e-07
6.39706e-07
6.33011e-07
6.26885e-07
6.21341e-07
6.16392e-07
6.12048e-07
6.08318e-07
6.05207e-07
6.02717e-07
6.00849e-07
5.99604e-07
5.98982e-07
5.98982e-07
5.99604e-07
6.00849e-07
6.02717e-07
6.05207e-07
6.08318e-07
6.12048e-07
6.16392e-07
6.21341e-07
6.26885e-07
6.33011e-07
6.39706e-07
6.46956e-07
6.54752e-07
6.63153e-07
6.79314e-07
6.70674e-07
6.62627e-07
6.55126e-07
6.48188e-07
6.41828e-07
6.36061e-07
6.30903e-07
6.26368e-07
6.22465e-07
6.19203e-07
6.16589e-07
6.14625e-07
6.13314e-07
6.12659e-07
6.12659e-07
6.13314e-07
6.14625e-07
6.16589e-07
6.19203e-07
6.22465e-07
6.26368e-07
6.30903e-07
6.36061e-07
6.41828e-07
6.48188e-07
6.55126e-07
6.62627e-07
6.70674e-07
6.79314e-07
6.95886e-07
6.87054e-07
6.788e-07
6.71087e-07
6.63938e-07
6.57374e-07
6.51412e-07
6.46071e-07
6.41367e-07
6.37313e-07
6.3392e-07
6.31196e-07
6.29148e-07
6.2778e-07
6.27096e-07
6.27096e-07
6.27781e-07
6.29148e-07
6.31196e-07
6.3392e-07
6.37313e-07
6.41367e-07
6.46072e-07
6.51412e-07
6.57374e-07
6.63938e-07
6.71087e-07
6.788e-07
6.87054e-07
6.95886e-07
7.12789e-07
7.03807e-07
6.95384e-07
6.87497e-07
6.80172e-07
6.73434e-07
6.67305e-07
6.61806e-07
6.56956e-07
6.5277e-07
6.49263e-07
6.46445e-07
6.44324e-07
6.42907e-07
6.42197e-07
6.42197e-07
6.42907e-07
6.44324e-07
6.46445e-07
6.49263e-07
6.5277e-07
6.56956e-07
6.61806e-07
6.67305e-07
6.73434e-07
6.80172e-07
6.87497e-07
6.95384e-07
7.03807e-07
7.12789e-07
7.29953e-07
7.20855e-07
7.12302e-07
7.04275e-07
6.96806e-07
6.89923e-07
6.83654e-07
6.78021e-07
6.73047e-07
6.68749e-07
6.65144e-07
6.62245e-07
6.60062e-07
6.58602e-07
6.57871e-07
6.57871e-07
6.58602e-07
6.60062e-07
6.62245e-07
6.65144e-07
6.68749e-07
6.73047e-07
6.78021e-07
6.83654e-07
6.89923e-07
6.96806e-07
7.04275e-07
7.12302e-07
7.20855e-07
7.29953e-07
7.47312e-07
7.38133e-07
7.29481e-07
7.21346e-07
7.13763e-07
7.06764e-07
7.0038e-07
6.94637e-07
6.89559e-07
6.85167e-07
6.8148e-07
6.78513e-07
6.76277e-07
6.74781e-07
6.74032e-07
6.74032e-07
6.74781e-07
6.76277e-07
6.78513e-07
6.8148e-07
6.85167e-07
6.89559e-07
6.94637e-07
7.0038e-07
7.06764e-07
7.13763e-07
7.21346e-07
7.29481e-07
7.38133e-07
7.47312e-07
7.64808e-07
7.55578e-07
7.46858e-07
7.38644e-07
7.30975e-07
7.23886e-07
7.17411e-07
7.11579e-07
7.06417e-07
7.01948e-07
6.98194e-07
6.9517e-07
6.9289e-07
6.91365e-07
6.906e-07
6.906e-07
6.91365e-07
6.9289e-07
6.9517e-07
6.98194e-07
7.01948e-07
7.06417e-07
7.11579e-07
7.17411e-07
7.23886e-07
7.30975e-07
7.38644e-07
7.46858e-07
7.55578e-07
7.64808e-07
7.82391e-07
7.73135e-07
7.64374e-07
7.56108e-07
7.48377e-07
7.41223e-07
7.34679e-07
7.28778e-07
7.23551e-07
7.19021e-07
7.15213e-07
7.12143e-07
7.09828e-07
7.08279e-07
7.07502e-07
7.07502e-07
7.08279e-07
7.09828e-07
7.12143e-07
7.15213e-07
7.19021e-07
7.23551e-07
7.28778e-07
7.34679e-07
7.41223e-07
7.48377e-07
7.56108e-07
7.64374e-07
7.73135e-07
7.82391e-07
8.00012e-07
7.90756e-07
7.81978e-07
7.73682e-07
7.65915e-07
7.58715e-07
7.52123e-07
7.46173e-07
7.40897e-07
7.36321e-07
7.32471e-07
7.29366e-07
7.27024e-07
7.25455e-07
7.24669e-07
7.24669e-07
7.25455e-07
7.27024e-07
7.29366e-07
7.32471e-07
7.36321e-07
7.40897e-07
7.46173e-07
7.52123e-07
7.58715e-07
7.65915e-07
7.73682e-07
7.81978e-07
7.90756e-07
8.00012e-07
8.1763e-07
8.08394e-07
7.99621e-07
7.91319e-07
7.83534e-07
7.76311e-07
7.69689e-07
7.63706e-07
7.58396e-07
7.53788e-07
7.49908e-07
7.46778e-07
7.44415e-07
7.42832e-07
7.42038e-07
7.42038e-07
7.42832e-07
7.44415e-07
7.46778e-07
7.49908e-07
7.53788e-07
7.58396e-07
7.63707e-07
7.69689e-07
7.76311e-07
7.83534e-07
7.91319e-07
7.99621e-07
8.08394e-07
8.1763e-07
8.35205e-07
8.2601e-07
8.17261e-07
8.08972e-07
8.01189e-07
7.9396e-07
7.87326e-07
7.81326e-07
7.75997e-07
7.71369e-07
7.67469e-07
7.64322e-07
7.61945e-07
7.60352e-07
7.59554e-07
7.59554e-07
7.60352e-07
7.61945e-07
7.64322e-07
7.67469e-07
7.71369e-07
7.75997e-07
7.81326e-07
7.87326e-07
7.9396e-07
8.01189e-07
8.08972e-07
8.17261e-07
8.2601e-07
8.35205e-07
8.52705e-07
8.43567e-07
8.3486e-07
8.26601e-07
8.18838e-07
8.11619e-07
8.04988e-07
7.98985e-07
7.93649e-07
7.89013e-07
7.85104e-07
7.81947e-07
7.79562e-07
7.77964e-07
7.77163e-07
7.77163e-07
7.77964e-07
7.79563e-07
7.81947e-07
7.85104e-07
7.89013e-07
7.9365e-07
7.98986e-07
8.04988e-07
8.11619e-07
8.18838e-07
8.26601e-07
8.3486e-07
8.43567e-07
8.52705e-07
8.70097e-07
8.61032e-07
8.52384e-07
8.4417e-07
8.36442e-07
8.29248e-07
8.22633e-07
8.16642e-07
8.11311e-07
8.06676e-07
8.02766e-07
7.99608e-07
7.97221e-07
7.95621e-07
7.94818e-07
7.94818e-07
7.95621e-07
7.97221e-07
7.99608e-07
8.02766e-07
8.06676e-07
8.11311e-07
8.16642e-07
8.22634e-07
8.29248e-07
8.36442e-07
8.4417e-07
8.52384e-07
8.61032e-07
8.70097e-07
8.87353e-07
8.78376e-07
8.698e-07
8.61646e-07
8.53967e-07
8.46811e-07
8.40226e-07
8.34256e-07
8.28941e-07
8.24317e-07
8.20415e-07
8.17261e-07
8.14877e-07
8.13278e-07
8.12476e-07
8.12476e-07
8.13278e-07
8.14877e-07
8.17261e-07
8.20415e-07
8.24317e-07
8.28941e-07
8.34256e-07
8.40226e-07
8.46811e-07
8.53967e-07
8.61646e-07
8.698e-07
8.78376e-07
8.87354e-07
9.0445e-07
8.95573e-07
8.87081e-07
8.79e-07
8.71381e-07
8.64276e-07
8.57732e-07
8.51794e-07
8.46505e-07
8.419e-07
8.38013e-07
8.34869e-07
8.32493e-07
8.30899e-07
8.30099e-07
8.30099e-07
8.30899e-07
8.32493e-07
8.3487e-07
8.38013e-07
8.419e-07
8.46505e-07
8.51794e-07
8.57732e-07
8.64276e-07
8.71381e-07
8.79e-07
8.87081e-07
8.95573e-07
9.0445e-07
9.21364e-07
9.12597e-07
9.04202e-07
8.96204e-07
8.88658e-07
8.81613e-07
8.7512e-07
8.69225e-07
8.63969e-07
8.59392e-07
8.55526e-07
8.52399e-07
8.50033e-07
8.48447e-07
8.4765e-07
8.4765e-07
8.48447e-07
8.50033e-07
8.52399e-07
8.55526e-07
8.59392e-07
8.63969e-07
8.69225e-07
8.7512e-07
8.81613e-07
8.88658e-07
8.96204e-07
9.04202e-07
9.12597e-07
9.21364e-07
9.38074e-07
9.29428e-07
9.2114e-07
9.13236e-07
9.05771e-07
8.98797e-07
8.92364e-07
8.86519e-07
8.81305e-07
8.76762e-07
8.72923e-07
8.69817e-07
8.67467e-07
8.6589e-07
8.65099e-07
8.65099e-07
8.6589e-07
8.67467e-07
8.69817e-07
8.72923e-07
8.76762e-07
8.81306e-07
8.86519e-07
8.92364e-07
8.98797e-07
9.05771e-07
9.13236e-07
9.2114e-07
9.29428e-07
9.38074e-07
9.54564e-07
9.46047e-07
9.37874e-07
9.30073e-07
9.22698e-07
9.15803e-07
9.09438e-07
9.03652e-07
8.98487e-07
8.93984e-07
8.90178e-07
8.87097e-07
8.84766e-07
8.83201e-07
8.82416e-07
8.82416e-07
8.83201e-07
8.84766e-07
8.87097e-07
8.90178e-07
8.93984e-07
8.98487e-07
9.03652e-07
9.09438e-07
9.15803e-07
9.22698e-07
9.30073e-07
9.37874e-07
9.46047e-07
9.54564e-07
9.70816e-07
9.62436e-07
9.54386e-07
9.46696e-07
9.3942e-07
9.32611e-07
9.26322e-07
9.206e-07
9.15491e-07
9.11034e-07
9.07265e-07
9.04214e-07
9.01904e-07
9.00354e-07
8.99576e-07
8.99576e-07
9.00354e-07
9.01904e-07
9.04214e-07
9.07265e-07
9.11034e-07
9.15491e-07
9.206e-07
9.26322e-07
9.32611e-07
9.3942e-07
9.46696e-07
9.54386e-07
9.62436e-07
9.70816e-07
9.86817e-07
9.7858e-07
9.7066e-07
9.63088e-07
9.55917e-07
9.49202e-07
9.42994e-07
9.37343e-07
9.32295e-07
9.27889e-07
9.24163e-07
9.21144e-07
9.18859e-07
9.17325e-07
9.16555e-07
9.16555e-07
9.17325e-07
9.18859e-07
9.21144e-07
9.24163e-07
9.2789e-07
9.32295e-07
9.37343e-07
9.42994e-07
9.49202e-07
9.55917e-07
9.63088e-07
9.7066e-07
9.7858e-07
9.86817e-07
1.00255e-06
9.94465e-07
9.86681e-07
9.79233e-07
9.72174e-07
9.65558e-07
9.59438e-07
9.53864e-07
9.48881e-07
9.44531e-07
9.4085e-07
9.37868e-07
9.3561e-07
9.34094e-07
9.33333e-07
9.33333e-07
9.34094e-07
9.3561e-07
9.37868e-07
9.4085e-07
9.44531e-07
9.48881e-07
9.53864e-07
9.59438e-07
9.65558e-07
9.72174e-07
9.79233e-07
9.86681e-07
9.94465e-07
1.00255e-06
1.01801e-06
1.01008e-06
1.00244e-06
9.95117e-07
9.88175e-07
9.81664e-07
9.75637e-07
9.70144e-07
9.65232e-07
9.60942e-07
9.5731e-07
9.54367e-07
9.52138e-07
9.50642e-07
9.49891e-07
9.49891e-07
9.50642e-07
9.52138e-07
9.54367e-07
9.5731e-07
9.60942e-07
9.65232e-07
9.70144e-07
9.75637e-07
9.81664e-07
9.88175e-07
9.95117e-07
1.00244e-06
1.01008e-06
1.01801e-06
1.03318e-06
1.02541e-06
1.01791e-06
1.01073e-06
1.00391e-06
9.97506e-07
9.91576e-07
9.86169e-07
9.81332e-07
9.77105e-07
9.73526e-07
9.70625e-07
9.68428e-07
9.66952e-07
9.66211e-07
9.66211e-07
9.66952e-07
9.68428e-07
9.70625e-07
9.73526e-07
9.77105e-07
9.81332e-07
9.86169e-07
9.91576e-07
9.97506e-07
1.00391e-06
1.01073e-06
1.01791e-06
1.02541e-06
1.03318e-06
1.04806e-06
1.04045e-06
1.0331e-06
1.02606e-06
1.01936e-06
1.01307e-06
1.00724e-06
1.00193e-06
9.97167e-07
9.93007e-07
9.89484e-07
9.86627e-07
9.84463e-07
9.8301e-07
9.8228e-07
9.8228e-07
9.8301e-07
9.84463e-07
9.86627e-07
9.89484e-07
9.93007e-07
9.97167e-07
1.00193e-06
1.00724e-06
1.01307e-06
1.01936e-06
1.02606e-06
1.0331e-06
1.04045e-06
1.04806e-06
1.06263e-06
1.05518e-06
1.04799e-06
1.04109e-06
1.03452e-06
1.02835e-06
1.02263e-06
1.0174e-06
1.01273e-06
1.00864e-06
1.00517e-06
1.00236e-06
1.00023e-06
9.98801e-07
9.98082e-07
9.98082e-07
9.98801e-07
1.00023e-06
1.00236e-06
1.00517e-06
1.00864e-06
1.01273e-06
1.0174e-06
1.02263e-06
1.02835e-06
1.03452e-06
1.04109e-06
1.04799e-06
1.05518e-06
1.06263e-06
1.07689e-06
1.06961e-06
1.06258e-06
1.05582e-06
1.04939e-06
1.04333e-06
1.03772e-06
1.03259e-06
1.028e-06
1.02398e-06
1.02057e-06
1.01781e-06
1.01572e-06
1.01431e-06
1.01361e-06
1.01361e-06
1.01431e-06
1.01572e-06
1.01781e-06
1.02057e-06
1.02398e-06
1.028e-06
1.03259e-06
1.03772e-06
1.04333e-06
1.04939e-06
1.05582e-06
1.06258e-06
1.06961e-06
1.07689e-06
1.09082e-06
1.08372e-06
1.07685e-06
1.07024e-06
1.06394e-06
1.05801e-06
1.05251e-06
1.04748e-06
1.04297e-06
1.03903e-06
1.03568e-06
1.03297e-06
1.03092e-06
1.02954e-06
1.02884e-06
1.02884e-06
1.02954e-06
1.03092e-06
1.03297e-06
1.03568e-06
1.03903e-06
1.04297e-06
1.04748e-06
1.05251e-06
1.05801e-06
1.06394e-06
1.07024e-06
1.07685e-06
1.08372e-06
1.09082e-06
1.10444e-06
1.09751e-06
1.0908e-06
1.08433e-06
1.07817e-06
1.07237e-06
1.06698e-06
1.06205e-06
1.05764e-06
1.05377e-06
1.05049e-06
1.04783e-06
1.04582e-06
1.04446e-06
1.04378e-06
1.04378e-06
1.04446e-06
1.04582e-06
1.04783e-06
1.05049e-06
1.05377e-06
1.05764e-06
1.06205e-06
1.06698e-06
1.07237e-06
1.07817e-06
1.08433e-06
1.0908e-06
1.09751e-06
1.10444e-06
1.11772e-06
1.11096e-06
1.10442e-06
1.09811e-06
1.09209e-06
1.08641e-06
1.08114e-06
1.07631e-06
1.07199e-06
1.0682e-06
1.06499e-06
1.06238e-06
1.0604e-06
1.05908e-06
1.05841e-06
1.05841e-06
1.05908e-06
1.0604e-06
1.06238e-06
1.06499e-06
1.0682e-06
1.07199e-06
1.07631e-06
1.08114e-06
1.08641e-06
1.09209e-06
1.09811e-06
1.10442e-06
1.11096e-06
1.11772e-06
1.13066e-06
1.12408e-06
1.1177e-06
1.11155e-06
1.10567e-06
1.10013e-06
1.09497e-06
1.09025e-06
1.08602e-06
1.08231e-06
1.07916e-06
1.07661e-06
1.07468e-06
1.07338e-06
1.07272e-06
1.07272e-06
1.07338e-06
1.07468e-06
1.07661e-06
1.07916e-06
1.08231e-06
1.08602e-06
1.09025e-06
1.09497e-06
1.10013e-06
1.10567e-06
1.11155e-06
1.1177e-06
1.12408e-06
1.13066e-06
1.14326e-06
1.13686e-06
1.13065e-06
1.12465e-06
1.11892e-06
1.1135e-06
1.10847e-06
1.10385e-06
1.09971e-06
1.09609e-06
1.09301e-06
1.09052e-06
1.08862e-06
1.08735e-06
1.08671e-06
1.08671e-06
1.08735e-06
1.08862e-06
1.09052e-06
1.09301e-06
1.09609e-06
1.09972e-06
1.10385e-06
1.10847e-06
1.1135e-06
1.11892e-06
1.12465e-06
1.13065e-06
1.13686e-06
1.14326e-06
1.15552e-06
1.1493e-06
1.14325e-06
1.13741e-06
1.13182e-06
1.12654e-06
1.12162e-06
1.11712e-06
1.11308e-06
1.10954e-06
1.10653e-06
1.10409e-06
1.10224e-06
1.101e-06
1.10037e-06
1.10037e-06
1.101e-06
1.10224e-06
1.10409e-06
1.10653e-06
1.10954e-06
1.11308e-06
1.11712e-06
1.12162e-06
1.12654e-06
1.13182e-06
1.13741e-06
1.14325e-06
1.1493e-06
1.15552e-06
1.16742e-06
1.16138e-06
1.15551e-06
1.14982e-06
1.14438e-06
1.13923e-06
1.13444e-06
1.13005e-06
1.1261e-06
1.12265e-06
1.11971e-06
1.11733e-06
1.11552e-06
1.11431e-06
1.1137e-06
1.1137e-06
1.11431e-06
1.11552e-06
1.11733e-06
1.11971e-06
1.12265e-06
1.1261e-06
1.13005e-06
1.13444e-06
1.13923e-06
1.14438e-06
1.14982e-06
1.15551e-06
1.16138e-06
1.16742e-06
1.17897e-06
1.17311e-06
1.16741e-06
1.16188e-06
1.15659e-06
1.15158e-06
1.14691e-06
1.14262e-06
1.13878e-06
1.13541e-06
1.13255e-06
1.13022e-06
1.12846e-06
1.12727e-06
1.12668e-06
1.12668e-06
1.12727e-06
1.12846e-06
1.13022e-06
1.13255e-06
1.13541e-06
1.13878e-06
1.14262e-06
1.14691e-06
1.15158e-06
1.15659e-06
1.16188e-06
1.16741e-06
1.17311e-06
1.17897e-06
1.19016e-06
1.18448e-06
1.17895e-06
1.17358e-06
1.16844e-06
1.16356e-06
1.15902e-06
1.15485e-06
1.1511e-06
1.14782e-06
1.14503e-06
1.14277e-06
1.14105e-06
1.13989e-06
1.13931e-06
1.13931e-06
1.13989e-06
1.14105e-06
1.14277e-06
1.14503e-06
1.14782e-06
1.1511e-06
1.15485e-06
1.15902e-06
1.16356e-06
1.16844e-06
1.17358e-06
1.17895e-06
1.18448e-06
1.19016e-06
1.20099e-06
1.19549e-06
1.19013e-06
1.18492e-06
1.17993e-06
1.17519e-06
1.17077e-06
1.16672e-06
1.16307e-06
1.15988e-06
1.15716e-06
1.15496e-06
1.15328e-06
1.15216e-06
1.1516e-06
1.1516e-06
1.15216e-06
1.15328e-06
1.15496e-06
1.15716e-06
1.15988e-06
1.16307e-06
1.16672e-06
1.17077e-06
1.17519e-06
1.17993e-06
1.18492e-06
1.19013e-06
1.19549e-06
1.20099e-06
1.21144e-06
1.20613e-06
1.20094e-06
1.1959e-06
1.19105e-06
1.18645e-06
1.18216e-06
1.17822e-06
1.17468e-06
1.17157e-06
1.16893e-06
1.16679e-06
1.16516e-06
1.16407e-06
1.16352e-06
1.16352e-06
1.16407e-06
1.16516e-06
1.16679e-06
1.16893e-06
1.17157e-06
1.17468e-06
1.17822e-06
1.18216e-06
1.18645e-06
1.19105e-06
1.1959e-06
1.20094e-06
1.20613e-06
1.21144e-06
1.22153e-06
1.2164e-06
1.21138e-06
1.2065e-06
1.2018e-06
1.19734e-06
1.19318e-06
1.18936e-06
1.18592e-06
1.1829e-06
1.18034e-06
1.17826e-06
1.17668e-06
1.17561e-06
1.17508e-06
1.17508e-06
1.17561e-06
1.17668e-06
1.17826e-06
1.18034e-06
1.1829e-06
1.18592e-06
1.18936e-06
1.19318e-06
1.19734e-06
1.2018e-06
1.2065e-06
1.21138e-06
1.2164e-06
1.22153e-06
1.23124e-06
1.22629e-06
1.22145e-06
1.21673e-06
1.21218e-06
1.20786e-06
1.20383e-06
1.20012e-06
1.19679e-06
1.19386e-06
1.19137e-06
1.18935e-06
1.18782e-06
1.18679e-06
1.18627e-06
1.18627e-06
1.18679e-06
1.18782e-06
1.18935e-06
1.19137e-06
1.19386e-06
1.19679e-06
1.20012e-06
1.20383e-06
1.20786e-06
1.21218e-06
1.21673e-06
1.22145e-06
1.22629e-06
1.23124e-06
1.24056e-06
1.2358e-06
1.23113e-06
1.22657e-06
1.22218e-06
1.218e-06
1.2141e-06
1.21051e-06
1.20728e-06
1.20445e-06
1.20204e-06
1.20008e-06
1.19859e-06
1.19759e-06
1.19709e-06
1.19709e-06
1.19759e-06
1.19859e-06
1.20008e-06
1.20204e-06
1.20445e-06
1.20728e-06
1.21051e-06
1.2141e-06
1.218e-06
1.22218e-06
1.22657e-06
1.23113e-06
1.2358e-06
1.24056e-06
1.2495e-06
1.24492e-06
1.24043e-06
1.23604e-06
1.2318e-06
1.22776e-06
1.22399e-06
1.22052e-06
1.21739e-06
1.21465e-06
1.21232e-06
1.21042e-06
1.20899e-06
1.20802e-06
1.20753e-06
1.20753e-06
1.20802e-06
1.20899e-06
1.21042e-06
1.21232e-06
1.21465e-06
1.21739e-06
1.22052e-06
1.22399e-06
1.22776e-06
1.2318e-06
1.23604e-06
1.24043e-06
1.24492e-06
1.2495e-06
1.25805e-06
1.25366e-06
1.24934e-06
1.24511e-06
1.24102e-06
1.23713e-06
1.23349e-06
1.23014e-06
1.22712e-06
1.22447e-06
1.22222e-06
1.22039e-06
1.219e-06
1.21806e-06
1.21759e-06
1.21759e-06
1.21806e-06
1.219e-06
1.22039e-06
1.22222e-06
1.22447e-06
1.22712e-06
1.23014e-06
1.23349e-06
1.23713e-06
1.24102e-06
1.24511e-06
1.24934e-06
1.25366e-06
1.25805e-06
1.26621e-06
1.26199e-06
1.25785e-06
1.25379e-06
1.24985e-06
1.24611e-06
1.2426e-06
1.23937e-06
1.23646e-06
1.2339e-06
1.23173e-06
1.22996e-06
1.22862e-06
1.22771e-06
1.22726e-06
1.22726e-06
1.22771e-06
1.22862e-06
1.22996e-06
1.23173e-06
1.2339e-06
1.23646e-06
1.23937e-06
1.2426e-06
1.24611e-06
1.24985e-06
1.25379e-06
1.25785e-06
1.26199e-06
1.26621e-06
1.27395e-06
1.26993e-06
1.26596e-06
1.26206e-06
1.25829e-06
1.25468e-06
1.25131e-06
1.2482e-06
1.2454e-06
1.24293e-06
1.24084e-06
1.23914e-06
1.23784e-06
1.23697e-06
1.23654e-06
1.23654e-06
1.23697e-06
1.23784e-06
1.23914e-06
1.24084e-06
1.24293e-06
1.2454e-06
1.2482e-06
1.25131e-06
1.25468e-06
1.25829e-06
1.26206e-06
1.26596e-06
1.26993e-06
1.27395e-06
1.28129e-06
1.27745e-06
1.27366e-06
1.26993e-06
1.26631e-06
1.26285e-06
1.25961e-06
1.25663e-06
1.25393e-06
1.25157e-06
1.24955e-06
1.24791e-06
1.24667e-06
1.24583e-06
1.24541e-06
1.24541e-06
1.24583e-06
1.24667e-06
1.24791e-06
1.24955e-06
1.25157e-06
1.25393e-06
1.25663e-06
1.25961e-06
1.26285e-06
1.26631e-06
1.26993e-06
1.27366e-06
1.27745e-06
1.28129e-06
1.28822e-06
1.28456e-06
1.28095e-06
1.27738e-06
1.27392e-06
1.27061e-06
1.26751e-06
1.26464e-06
1.26206e-06
1.25979e-06
1.25786e-06
1.25628e-06
1.25509e-06
1.25428e-06
1.25388e-06
1.25388e-06
1.25428e-06
1.25509e-06
1.25628e-06
1.25786e-06
1.25979e-06
1.26206e-06
1.26464e-06
1.26751e-06
1.27061e-06
1.27392e-06
1.27738e-06
1.28095e-06
1.28456e-06
1.28822e-06
1.29472e-06
1.29125e-06
1.28781e-06
1.28441e-06
1.28111e-06
1.27795e-06
1.27498e-06
1.27224e-06
1.26977e-06
1.2676e-06
1.26574e-06
1.26424e-06
1.26309e-06
1.26232e-06
1.26194e-06
1.26194e-06
1.26232e-06
1.26309e-06
1.26424e-06
1.26575e-06
1.2676e-06
1.26977e-06
1.27224e-06
1.27498e-06
1.27795e-06
1.28111e-06
1.28441e-06
1.28781e-06
1.29125e-06
1.29472e-06
1.30078e-06
1.2975e-06
1.29424e-06
1.29102e-06
1.28787e-06
1.28486e-06
1.28203e-06
1.27942e-06
1.27706e-06
1.27498e-06
1.27321e-06
1.27177e-06
1.27068e-06
1.26994e-06
1.26957e-06
1.26957e-06
1.26994e-06
1.27068e-06
1.27177e-06
1.27321e-06
1.27498e-06
1.27706e-06
1.27942e-06
1.28203e-06
1.28486e-06
1.28787e-06
1.29102e-06
1.29424e-06
1.2975e-06
1.30078e-06
1.3064e-06
1.30331e-06
1.30024e-06
1.29718e-06
1.2942e-06
1.29134e-06
1.28865e-06
1.28616e-06
1.28391e-06
1.28193e-06
1.28025e-06
1.27887e-06
1.27783e-06
1.27713e-06
1.27677e-06
1.27677e-06
1.27713e-06
1.27783e-06
1.27887e-06
1.28025e-06
1.28193e-06
1.28391e-06
1.28616e-06
1.28865e-06
1.29134e-06
1.2942e-06
1.29718e-06
1.30023e-06
1.30331e-06
1.30641e-06
1.31158e-06
1.30867e-06
1.30578e-06
1.3029e-06
1.30008e-06
1.29737e-06
1.29482e-06
1.29246e-06
1.29032e-06
1.28844e-06
1.28684e-06
1.28554e-06
1.28454e-06
1.28388e-06
1.28354e-06
1.28354e-06
1.28388e-06
1.28454e-06
1.28554e-06
1.28684e-06
1.28844e-06
1.29032e-06
1.29246e-06
1.29482e-06
1.29737e-06
1.30008e-06
1.3029e-06
1.30578e-06
1.30867e-06
1.31158e-06
1.31629e-06
1.31357e-06
1.31086e-06
1.30816e-06
1.3055e-06
1.30295e-06
1.30054e-06
1.29831e-06
1.29629e-06
1.29451e-06
1.29299e-06
1.29175e-06
1.29081e-06
1.29018e-06
1.28986e-06
1.28986e-06
1.29018e-06
1.29081e-06
1.29175e-06
1.29299e-06
1.29451e-06
1.29629e-06
1.29831e-06
1.30054e-06
1.30295e-06
1.3055e-06
1.30816e-06
1.31086e-06
1.31357e-06
1.31629e-06
1.32052e-06
1.318e-06
1.31548e-06
1.31295e-06
1.31046e-06
1.30806e-06
1.30579e-06
1.30369e-06
1.30179e-06
1.30011e-06
1.29867e-06
1.29751e-06
1.29662e-06
1.29602e-06
1.29572e-06
1.29572e-06
1.29602e-06
1.29662e-06
1.29751e-06
1.29867e-06
1.30011e-06
1.30179e-06
1.30369e-06
1.30579e-06
1.30806e-06
1.31046e-06
1.31295e-06
1.31548e-06
1.318e-06
1.32052e-06
1.32427e-06
1.32194e-06
1.31961e-06
1.31725e-06
1.31493e-06
1.31269e-06
1.31057e-06
1.3086e-06
1.30681e-06
1.30523e-06
1.30389e-06
1.30279e-06
1.30195e-06
1.30139e-06
1.3011e-06
1.3011e-06
1.30139e-06
1.30195e-06
1.30279e-06
1.30389e-06
1.30524e-06
1.30681e-06
1.3086e-06
1.31057e-06
1.31269e-06
1.31493e-06
1.31725e-06
1.31961e-06
1.32194e-06
1.32427e-06
1.32752e-06
1.32539e-06
1.32324e-06
1.32106e-06
1.31891e-06
1.31683e-06
1.31485e-06
1.31302e-06
1.31135e-06
1.30988e-06
1.30862e-06
1.30759e-06
1.30681e-06
1.30628e-06
1.30601e-06
1.30601e-06
1.30628e-06
1.30681e-06
1.30759e-06
1.30862e-06
1.30988e-06
1.31135e-06
1.31302e-06
1.31485e-06
1.31683e-06
1.31891e-06
1.32106e-06
1.32324e-06
1.32539e-06
1.32752e-06
1.33024e-06
1.32831e-06
1.32635e-06
1.32436e-06
1.32239e-06
1.32046e-06
1.31864e-06
1.31694e-06
1.31539e-06
1.31402e-06
1.31285e-06
1.31189e-06
1.31116e-06
1.31067e-06
1.31042e-06
1.31042e-06
1.31067e-06
1.31116e-06
1.31189e-06
1.31285e-06
1.31402e-06
1.31539e-06
1.31694e-06
1.31864e-06
1.32046e-06
1.32239e-06
1.32436e-06
1.32635e-06
1.32831e-06
1.33024e-06
1.33244e-06
1.33071e-06
1.32894e-06
1.32714e-06
1.32533e-06
1.32358e-06
1.3219e-06
1.32034e-06
1.31891e-06
1.31765e-06
1.31656e-06
1.31568e-06
1.315e-06
1.31455e-06
1.31432e-06
1.31432e-06
1.31455e-06
1.315e-06
1.31568e-06
1.31656e-06
1.31765e-06
1.31891e-06
1.32034e-06
1.3219e-06
1.32358e-06
1.32533e-06
1.32714e-06
1.32894e-06
1.33071e-06
1.33244e-06
1.33408e-06
1.33255e-06
1.33098e-06
1.32937e-06
1.32774e-06
1.32615e-06
1.32462e-06
1.3232e-06
1.3219e-06
1.32074e-06
1.31975e-06
1.31894e-06
1.31832e-06
1.3179e-06
1.31769e-06
1.31769e-06
1.3179e-06
1.31832e-06
1.31894e-06
1.31975e-06
1.32074e-06
1.3219e-06
1.3232e-06
1.32462e-06
1.32615e-06
1.32774e-06
1.32937e-06
1.33098e-06
1.33255e-06
1.33408e-06
1.33514e-06
1.33382e-06
1.33246e-06
1.33103e-06
1.32959e-06
1.32816e-06
1.32679e-06
1.32551e-06
1.32433e-06
1.32328e-06
1.32238e-06
1.32164e-06
1.32108e-06
1.3207e-06
1.32051e-06
1.32051e-06
1.3207e-06
1.32108e-06
1.32164e-06
1.32238e-06
1.32328e-06
1.32433e-06
1.32551e-06
1.32679e-06
1.32816e-06
1.32959e-06
1.33103e-06
1.33246e-06
1.33382e-06
1.33514e-06
1.33561e-06
1.3345e-06
1.33334e-06
1.33211e-06
1.33085e-06
1.32959e-06
1.32838e-06
1.32724e-06
1.32619e-06
1.32526e-06
1.32445e-06
1.32378e-06
1.32328e-06
1.32293e-06
1.32276e-06
1.32276e-06
1.32293e-06
1.32328e-06
1.32378e-06
1.32445e-06
1.32526e-06
1.32619e-06
1.32724e-06
1.32838e-06
1.32959e-06
1.33085e-06
1.33211e-06
1.33334e-06
1.3345e-06
1.33561e-06
1.33545e-06
1.33456e-06
1.33361e-06
1.33257e-06
1.3315e-06
1.33042e-06
1.32937e-06
1.32838e-06
1.32746e-06
1.32663e-06
1.32592e-06
1.32533e-06
1.32488e-06
1.32457e-06
1.32442e-06
1.32442e-06
1.32457e-06
1.32488e-06
1.32533e-06
1.32592e-06
1.32663e-06
1.32746e-06
1.32838e-06
1.32937e-06
1.33042e-06
1.3315e-06
1.33257e-06
1.33361e-06
1.33456e-06
1.33545e-06
1.33465e-06
1.33397e-06
1.33323e-06
1.3324e-06
1.33152e-06
1.33062e-06
1.32974e-06
1.32889e-06
1.3281e-06
1.32739e-06
1.32677e-06
1.32626e-06
1.32587e-06
1.3256e-06
1.32547e-06
1.32547e-06
1.3256e-06
1.32587e-06
1.32626e-06
1.32677e-06
1.32739e-06
1.3281e-06
1.32889e-06
1.32974e-06
1.33062e-06
1.33152e-06
1.3324e-06
1.33323e-06
1.33397e-06
1.33465e-06
1.33316e-06
1.33271e-06
1.33219e-06
1.33157e-06
1.33088e-06
1.33016e-06
1.32944e-06
1.32875e-06
1.32809e-06
1.3275e-06
1.32698e-06
1.32655e-06
1.32621e-06
1.32599e-06
1.32587e-06
1.32587e-06
1.32599e-06
1.32621e-06
1.32655e-06
1.32698e-06
1.3275e-06
1.32809e-06
1.32875e-06
1.32944e-06
1.33016e-06
1.33088e-06
1.33157e-06
1.33219e-06
1.33271e-06
1.33316e-06
1.33096e-06
1.33074e-06
1.33044e-06
1.33003e-06
1.32954e-06
1.32901e-06
1.32846e-06
1.32792e-06
1.3274e-06
1.32693e-06
1.32651e-06
1.32616e-06
1.32589e-06
1.3257e-06
1.32561e-06
1.32561e-06
1.3257e-06
1.32589e-06
1.32616e-06
1.32651e-06
1.32693e-06
1.3274e-06
1.32792e-06
1.32846e-06
1.32901e-06
1.32954e-06
1.33003e-06
1.33044e-06
1.33074e-06
1.33096e-06
1.32801e-06
1.32803e-06
1.32795e-06
1.32776e-06
1.32747e-06
1.32713e-06
1.32676e-06
1.32638e-06
1.326e-06
1.32565e-06
1.32533e-06
1.32506e-06
1.32485e-06
1.32471e-06
1.32463e-06
1.32463e-06
1.32471e-06
1.32485e-06
1.32506e-06
1.32533e-06
1.32565e-06
1.326e-06
1.32638e-06
1.32676e-06
1.32713e-06
1.32747e-06
1.32776e-06
1.32795e-06
1.32803e-06
1.32801e-06
1.32427e-06
1.32452e-06
1.32468e-06
1.32471e-06
1.32464e-06
1.32449e-06
1.3243e-06
1.32408e-06
1.32384e-06
1.32361e-06
1.3234e-06
1.32322e-06
1.32307e-06
1.32297e-06
1.32292e-06
1.32292e-06
1.32297e-06
1.32307e-06
1.32322e-06
1.3234e-06
1.32361e-06
1.32384e-06
1.32408e-06
1.3243e-06
1.32449e-06
1.32464e-06
1.32471e-06
1.32468e-06
1.32452e-06
1.32427e-06
1.31968e-06
1.32019e-06
1.32059e-06
1.32085e-06
1.32099e-06
1.32105e-06
1.32104e-06
1.32098e-06
1.32089e-06
1.32079e-06
1.32068e-06
1.32059e-06
1.3205e-06
1.32045e-06
1.32041e-06
1.32041e-06
1.32045e-06
1.3205e-06
1.32059e-06
1.32068e-06
1.32079e-06
1.32089e-06
1.32098e-06
1.32104e-06
1.32105e-06
1.32099e-06
1.32085e-06
1.32059e-06
1.32019e-06
1.31968e-06
1.31421e-06
1.31498e-06
1.31563e-06
1.31612e-06
1.31648e-06
1.31675e-06
1.31692e-06
1.31704e-06
1.3171e-06
1.31713e-06
1.31713e-06
1.31712e-06
1.31711e-06
1.31709e-06
1.31708e-06
1.31708e-06
1.31709e-06
1.31711e-06
1.31712e-06
1.31713e-06
1.31713e-06
1.3171e-06
1.31704e-06
1.31692e-06
1.31675e-06
1.31648e-06
1.31612e-06
1.31563e-06
1.31498e-06
1.31421e-06
1.3078e-06
1.30883e-06
1.30973e-06
1.31047e-06
1.31106e-06
1.31154e-06
1.31191e-06
1.3122e-06
1.31242e-06
1.31258e-06
1.31269e-06
1.31277e-06
1.31283e-06
1.31286e-06
1.31287e-06
1.31287e-06
1.31286e-06
1.31283e-06
1.31277e-06
1.31269e-06
1.31258e-06
1.31242e-06
1.3122e-06
1.31191e-06
1.31154e-06
1.31106e-06
1.31047e-06
1.30973e-06
1.30883e-06
1.3078e-06
1.30038e-06
1.30168e-06
1.30285e-06
1.30384e-06
1.30467e-06
1.30536e-06
1.30594e-06
1.3064e-06
1.30678e-06
1.30708e-06
1.30731e-06
1.30749e-06
1.30761e-06
1.30769e-06
1.30773e-06
1.30773e-06
1.30769e-06
1.30761e-06
1.30749e-06
1.30731e-06
1.30708e-06
1.30678e-06
1.3064e-06
1.30594e-06
1.30536e-06
1.30467e-06
1.30384e-06
1.30285e-06
1.30168e-06
1.30038e-06
1.29189e-06
1.29347e-06
1.29492e-06
1.29617e-06
1.29724e-06
1.29816e-06
1.29893e-06
1.29959e-06
1.30013e-06
1.30057e-06
1.30092e-06
1.30119e-06
1.30139e-06
1.30152e-06
1.30158e-06
1.30158e-06
1.30152e-06
1.30139e-06
1.30119e-06
1.30092e-06
1.30057e-06
1.30013e-06
1.29959e-06
1.29893e-06
1.29816e-06
1.29724e-06
1.29617e-06
1.29492e-06
1.29347e-06
1.29189e-06
1.28224e-06
1.28413e-06
1.28585e-06
1.28737e-06
1.28869e-06
1.28984e-06
1.29084e-06
1.29168e-06
1.2924e-06
1.29298e-06
1.29346e-06
1.29383e-06
1.2941e-06
1.29428e-06
1.29436e-06
1.29436e-06
1.29428e-06
1.2941e-06
1.29383e-06
1.29346e-06
1.29298e-06
1.2924e-06
1.29168e-06
1.29084e-06
1.28984e-06
1.28869e-06
1.28737e-06
1.28585e-06
1.28413e-06
1.28224e-06
1.27136e-06
1.27355e-06
1.27557e-06
1.27737e-06
1.27895e-06
1.28035e-06
1.28156e-06
1.28261e-06
1.28349e-06
1.28423e-06
1.28484e-06
1.28531e-06
1.28566e-06
1.28588e-06
1.286e-06
1.286e-06
1.28588e-06
1.28566e-06
1.28531e-06
1.28484e-06
1.28423e-06
1.28349e-06
1.28261e-06
1.28156e-06
1.28035e-06
1.27895e-06
1.27737e-06
1.27557e-06
1.27355e-06
1.27136e-06
1.25915e-06
1.26166e-06
1.26399e-06
1.26607e-06
1.26793e-06
1.26957e-06
1.27101e-06
1.27226e-06
1.27333e-06
1.27423e-06
1.27497e-06
1.27554e-06
1.27597e-06
1.27626e-06
1.2764e-06
1.2764e-06
1.27626e-06
1.27597e-06
1.27554e-06
1.27497e-06
1.27423e-06
1.27333e-06
1.27226e-06
1.27101e-06
1.26957e-06
1.26793e-06
1.26607e-06
1.26399e-06
1.26166e-06
1.25915e-06
1.2455e-06
1.24834e-06
1.25099e-06
1.25337e-06
1.25551e-06
1.25741e-06
1.25909e-06
1.26056e-06
1.26182e-06
1.26288e-06
1.26375e-06
1.26444e-06
1.26495e-06
1.26529e-06
1.26546e-06
1.26546e-06
1.26529e-06
1.26495e-06
1.26444e-06
1.26375e-06
1.26288e-06
1.26182e-06
1.26056e-06
1.25909e-06
1.25741e-06
1.25551e-06
1.25337e-06
1.25099e-06
1.24834e-06
1.2455e-06
1.23029e-06
1.23348e-06
1.23646e-06
1.23916e-06
1.24159e-06
1.24376e-06
1.24569e-06
1.24738e-06
1.24883e-06
1.25006e-06
1.25108e-06
1.25188e-06
1.25248e-06
1.25287e-06
1.25307e-06
1.25307e-06
1.25287e-06
1.25248e-06
1.25188e-06
1.25108e-06
1.25006e-06
1.24883e-06
1.24738e-06
1.24569e-06
1.24376e-06
1.24159e-06
1.23916e-06
1.23646e-06
1.23348e-06
1.23029e-06
1.21339e-06
1.21695e-06
1.22027e-06
1.22329e-06
1.22603e-06
1.22848e-06
1.23067e-06
1.23259e-06
1.23425e-06
1.23566e-06
1.23682e-06
1.23774e-06
1.23843e-06
1.23888e-06
1.23911e-06
1.23911e-06
1.23888e-06
1.23843e-06
1.23774e-06
1.23682e-06
1.23566e-06
1.23425e-06
1.23259e-06
1.23067e-06
1.22849e-06
1.22603e-06
1.22329e-06
1.22027e-06
1.21695e-06
1.21339e-06
1.19465e-06
1.19858e-06
1.20227e-06
1.20563e-06
1.20869e-06
1.21144e-06
1.21389e-06
1.21605e-06
1.21792e-06
1.21952e-06
1.22083e-06
1.22188e-06
1.22266e-06
1.22318e-06
1.22344e-06
1.22344e-06
1.22318e-06
1.22266e-06
1.22188e-06
1.22083e-06
1.21952e-06
1.21792e-06
1.21605e-06
1.21389e-06
1.21144e-06
1.20869e-06
1.20563e-06
1.20227e-06
1.19858e-06
1.19465e-06
1.1739e-06