/*--------------------------------*- C++ -*----------------------------------*\
  =========                 |
  \\      /  F ield         | OpenFOAM: The Open Source CFD Toolbox
   \\    /   O peration     | Website:  https://openfoam.org
    \\  /    A nd           | Version:  7
     \\/     M anipulation  |
\*---------------------------------------------------------------------------*/
FoamFile
{
    version     2.0;
    format      ascii;
    class       volScalarField;
    location    "56000";
    object      strainRate;
}
// * * * * * * * * * * * * * * * * * * * * * * * * * * * * * * * * * * * * * //

dimensions      [0 0 -1 0 0 0 0];

internalField   nonuniform List<scalar> 
14100
(
0.00332975
0.00312769
0.00302054
0.00289828
0.00276916
0.00264121
0.00251844
0.0024034
0.00229808
0.00220418
0.00212322
0.00205659
0.00200548
0.00197083
0.00195334
0.00195334
0.00197083
0.00200548
0.00205659
0.00212322
0.00220418
0.00229808
0.0024034
0.00251844
0.00264121
0.00276916
0.00289828
0.00302054
0.00312769
0.00332975
0.00416472
0.00371134
0.00356867
0.00341893
0.00326554
0.00311511
0.00297233
0.00284034
0.00272128
0.00261668
0.00252777
0.00245549
0.00240061
0.00236371
0.00234515
0.00234515
0.00236371
0.00240061
0.00245549
0.00252777
0.00261668
0.00272128
0.00284034
0.00297233
0.00311511
0.00326555
0.00341893
0.00356867
0.00371134
0.00416472
0.00463764
0.00412162
0.00395178
0.00379486
0.00364317
0.00349668
0.00335764
0.00322858
0.00311163
0.00300854
0.00292068
0.00284913
0.00279475
0.00275815
0.00273974
0.00273974
0.00275815
0.00279475
0.00284913
0.00292068
0.00300854
0.00311163
0.00322858
0.00335764
0.00349668
0.00364317
0.00379487
0.00395178
0.00412162
0.00463764
0.00504078
0.00453989
0.00435133
0.00418199
0.00402525
0.00387825
0.00374081
0.00361404
0.0034994
0.00339836
0.00331221
0.00324201
0.00318862
0.00315268
0.0031346
0.0031346
0.00315268
0.00318862
0.00324201
0.00331221
0.00339836
0.0034994
0.00361404
0.00374082
0.00387825
0.00402525
0.00418199
0.00435133
0.00453989
0.00504078
0.00542599
0.00495004
0.00475563
0.00457834
0.00441585
0.004266
0.00412786
0.00400164
0.00388815
0.00378845
0.00370357
0.00363447
0.00358194
0.00354658
0.0035288
0.0035288
0.00354658
0.00358194
0.00363447
0.00370357
0.00378845
0.00388815
0.00400164
0.00412786
0.004266
0.00441585
0.00457834
0.00475563
0.00495004
0.00542599
0.00580421
0.00535174
0.00515663
0.00497597
0.00480976
0.00465717
0.00451759
0.00439098
0.00427778
0.00417872
0.00409462
0.00402627
0.00397436
0.00393944
0.00392189
0.00392189
0.00393945
0.00397436
0.00402627
0.00409462
0.00417872
0.00427778
0.00439098
0.00451759
0.00465717
0.00480976
0.00497597
0.00515663
0.00535174
0.00580421
0.0061793
0.00574748
0.00555309
0.00537144
0.00520339
0.00504899
0.00490813
0.00478087
0.00466754
0.0045687
0.004485
0.0044171
0.00436561
0.00433101
0.00431362
0.00431362
0.00433101
0.00436561
0.0044171
0.004485
0.0045687
0.00466754
0.00478087
0.00490813
0.005049
0.00520339
0.00537144
0.00555309
0.00574748
0.0061793
0.00655316
0.00613933
0.00594584
0.00576416
0.00559537
0.00543997
0.00529822
0.00517037
0.00505679
0.00495795
0.00487444
0.0048068
0.00475557
0.00472116
0.00470388
0.00470388
0.00472116
0.00475557
0.0048068
0.00487444
0.00495795
0.00505679
0.00517037
0.00529822
0.00543997
0.00559537
0.00576417
0.00594584
0.00613933
0.00655316
0.00692691
0.0065288
0.00633604
0.00615459
0.00598556
0.00582964
0.00568734
0.00555905
0.00544521
0.0053463
0.00526283
0.00519533
0.00514425
0.00510997
0.00509276
0.00509276
0.00510997
0.00514425
0.00519533
0.00526284
0.0053463
0.00544521
0.00555905
0.00568734
0.00582965
0.00598556
0.00615459
0.00633605
0.0065288
0.00692691
0.00730136
0.00691699
0.00672471
0.00654346
0.00637435
0.00621815
0.00607548
0.00594686
0.00583279
0.00573376
0.00565028
0.00558282
0.00553181
0.0054976
0.00548043
0.00548043
0.0054976
0.00553181
0.00558282
0.00565028
0.00573376
0.00583279
0.00594686
0.00607548
0.00621815
0.00637435
0.00654346
0.00672472
0.006917
0.00730137
0.00767714
0.00730481
0.00711273
0.00693153
0.00676232
0.00660589
0.00646293
0.00633403
0.00621973
0.00612056
0.00603701
0.00596953
0.00591854
0.00588435
0.0058672
0.0058672
0.00588435
0.00591854
0.00596953
0.00603701
0.00612056
0.00621973
0.00633403
0.00646293
0.0066059
0.00676232
0.00693153
0.00711273
0.00730481
0.00767715
0.0080548
0.007693
0.00750085
0.00731953
0.00715011
0.00699341
0.00685014
0.00672095
0.0066064
0.00650704
0.00642336
0.00635582
0.00630479
0.0062706
0.00625344
0.00625344
0.0062706
0.00630479
0.00635582
0.00642336
0.00650704
0.0066064
0.00672095
0.00685014
0.00699341
0.00715011
0.00731953
0.00750085
0.007693
0.00805481
0.00843486
0.00808226
0.00788978
0.00770812
0.00753834
0.00738127
0.00723763
0.00710808
0.00699323
0.00689363
0.00680977
0.0067421
0.006691
0.00665676
0.00663958
0.00663958
0.00665676
0.006691
0.0067421
0.00680977
0.00689363
0.00699323
0.00710808
0.00723763
0.00738127
0.00753835
0.00770812
0.00788978
0.00808226
0.00843486
0.0088178
0.00847323
0.00828016
0.00809794
0.00792763
0.00777004
0.00762592
0.00749594
0.00738071
0.0072808
0.0071967
0.00712885
0.00707762
0.00704331
0.0070261
0.0070261
0.00704331
0.00707762
0.00712885
0.0071967
0.0072808
0.00738071
0.00749594
0.00762592
0.00777005
0.00792763
0.00809794
0.00828016
0.00847323
0.0088178
0.00920412
0.00886651
0.0086726
0.0084896
0.00831857
0.00816032
0.00801558
0.00788505
0.00776936
0.00766905
0.00758464
0.00751655
0.00746516
0.00743073
0.00741347
0.00741347
0.00743073
0.00746516
0.00751656
0.00758464
0.00766905
0.00776936
0.00788506
0.00801558
0.00816032
0.00831857
0.0084896
0.0086726
0.00886651
0.00920412
0.00959429
0.00926269
0.00906769
0.00888369
0.00871175
0.00855265
0.00840717
0.00827598
0.00815971
0.00805892
0.00797412
0.00790573
0.00785412
0.00781955
0.00780222
0.00780222
0.00781955
0.00785412
0.00790573
0.00797412
0.00805892
0.00815971
0.00827598
0.00840717
0.00855266
0.00871175
0.0088837
0.0090677
0.00926269
0.0095943
0.00998882
0.00966234
0.00946602
0.0092808
0.00910773
0.00894763
0.00880124
0.00866925
0.00855229
0.00845093
0.00836566
0.00829691
0.00824503
0.00821029
0.00819287
0.00819287
0.00821029
0.00824503
0.00829691
0.00836566
0.00845093
0.00855229
0.00866925
0.00880124
0.00894763
0.00910773
0.0092808
0.00946602
0.00966235
0.00998882
0.0103882
0.010066
0.00986814
0.00968148
0.00950709
0.0093458
0.00919835
0.00906543
0.00894767
0.00884563
0.00875981
0.00869062
0.00863843
0.00860348
0.00858596
0.00858596
0.00860348
0.00863843
0.00869062
0.00875981
0.00884563
0.00894767
0.00906543
0.00919835
0.0093458
0.00950709
0.00968148
0.00986814
0.010066
0.0103882
0.0107929
0.0104743
0.0102746
0.0100863
0.0099104
0.00974774
0.00959906
0.00946507
0.00934638
0.00924356
0.0091571
0.00908741
0.00903485
0.00899965
0.00898201
0.00898201
0.00899965
0.00903485
0.00908741
0.0091571
0.00924356
0.00934638
0.00946507
0.00959906
0.00974773
0.0099104
0.0100863
0.0102746
0.0104743
0.0107929
0.0112035
0.0108878
0.0106861
0.0104958
0.0103182
0.010154
0.0100039
0.00986872
0.00974898
0.00964527
0.00955809
0.00948783
0.00943484
0.00939937
0.00938159
0.00938159
0.00939936
0.00943484
0.00948783
0.00955809
0.00964527
0.00974898
0.00986872
0.0100039
0.010154
0.0103182
0.0104958
0.0106861
0.0108878
0.0112035
0.0116204
0.011307
0.011103
0.0109107
0.0107311
0.0105651
0.0104135
0.0102769
0.010156
0.0100513
0.00996333
0.00989242
0.00983896
0.00980317
0.00978523
0.00978523
0.00980317
0.00983896
0.00989242
0.00996333
0.0100513
0.010156
0.0102769
0.0104135
0.0105651
0.0107311
0.0109107
0.011103
0.011307
0.0116204
0.0120443
0.0117325
0.011526
0.0113313
0.0111496
0.0109817
0.0108284
0.0106903
0.0105681
0.0104623
0.0103734
0.0103018
0.0102478
0.0102116
0.0101935
0.0101935
0.0102116
0.0102478
0.0103018
0.0103734
0.0104623
0.0105681
0.0106903
0.0108284
0.0109817
0.0111496
0.0113313
0.011526
0.0117325
0.0120443
0.0124756
0.012165
0.0119556
0.0117584
0.0115744
0.0114044
0.0112492
0.0111094
0.0109858
0.0108787
0.0107888
0.0107164
0.0106618
0.0106253
0.010607
0.010607
0.0106253
0.0106618
0.0107164
0.0107888
0.0108787
0.0109858
0.0111094
0.0112492
0.0114044
0.0115744
0.0117584
0.0119556
0.012165
0.0124756
0.012915
0.0126049
0.0123926
0.0121926
0.012006
0.0118337
0.0116764
0.0115348
0.0114096
0.0113012
0.0112102
0.011137
0.0110817
0.0110448
0.0110263
0.0110263
0.0110448
0.0110817
0.011137
0.0112102
0.0113012
0.0114096
0.0115348
0.0116764
0.0118337
0.012006
0.0121926
0.0123926
0.0126049
0.012915
0.013363
0.0130529
0.0128374
0.0126343
0.012445
0.0122702
0.0121107
0.0119671
0.0118402
0.0117304
0.0116382
0.011564
0.0115081
0.0114707
0.0114519
0.0114519
0.0114707
0.0115081
0.011564
0.0116382
0.0117304
0.0118402
0.0119671
0.0121107
0.0122702
0.012445
0.0126343
0.0128374
0.0130529
0.013363
0.0138203
0.0135097
0.0132906
0.0130844
0.0128921
0.0127146
0.0125526
0.012407
0.0122782
0.0121668
0.0120734
0.0119981
0.0119414
0.0119035
0.0118845
0.0118845
0.0119035
0.0119414
0.0119981
0.0120734
0.0121668
0.0122782
0.012407
0.0125526
0.0127146
0.0128921
0.0130844
0.0132906
0.0135097
0.0138203
0.0142874
0.0139758
0.013753
0.0135433
0.0133478
0.0131674
0.0130029
0.0128549
0.0127242
0.0126112
0.0125163
0.01244
0.0123825
0.012344
0.0123248
0.0123248
0.012344
0.0123825
0.01244
0.0125163
0.0126112
0.0127242
0.0128549
0.0130029
0.0131674
0.0133478
0.0135433
0.013753
0.0139758
0.0142874
0.0147651
0.0144521
0.0142252
0.0140118
0.0138129
0.0136294
0.0134621
0.0133117
0.0131788
0.013064
0.0129677
0.0128902
0.0128318
0.0127928
0.0127732
0.0127732
0.0127928
0.0128318
0.0128902
0.0129677
0.013064
0.0131788
0.0133117
0.0134621
0.0136294
0.0138129
0.0140118
0.0142252
0.0144521
0.0147651
0.0152539
0.014939
0.0147079
0.0144905
0.0142879
0.0141011
0.0139309
0.0137779
0.0136428
0.013526
0.0134281
0.0133494
0.01329
0.0132504
0.0132305
0.0132305
0.0132504
0.01329
0.0133494
0.0134281
0.013526
0.0136428
0.0137779
0.0139309
0.0141011
0.0142879
0.0144905
0.0147079
0.014939
0.0152539
0.0157547
0.0154374
0.0152018
0.0149801
0.0147737
0.0145834
0.01441
0.0142542
0.0141167
0.0139979
0.0138983
0.0138182
0.0137579
0.0137176
0.0136974
0.0136974
0.0137176
0.0137579
0.0138182
0.0138983
0.0139979
0.0141167
0.0142542
0.01441
0.0145834
0.0147737
0.0149801
0.0152018
0.0154374
0.0157547
0.0162681
0.015948
0.0157075
0.0154814
0.0152709
0.0150768
0.0149001
0.0147414
0.0146014
0.0144804
0.014379
0.0142975
0.0142361
0.0141951
0.0141746
0.0141746
0.0141951
0.0142361
0.0142975
0.014379
0.0144804
0.0146014
0.0147414
0.0149001
0.0150768
0.0152709
0.0154814
0.0157075
0.015948
0.0162681
0.0167948
0.0164715
0.016226
0.0159951
0.0157803
0.0155823
0.015402
0.0152402
0.0150974
0.0149742
0.0148709
0.0147879
0.0147254
0.0146836
0.0146627
0.0146627
0.0146836
0.0147254
0.0147879
0.0148709
0.0149742
0.0150974
0.0152402
0.015402
0.0155823
0.0157803
0.0159951
0.016226
0.0164715
0.0167948
0.0173359
0.0170089
0.0167579
0.0165221
0.0163026
0.0161004
0.0159164
0.0157513
0.0156057
0.01548
0.0153747
0.0152901
0.0152264
0.0151839
0.0151626
0.0151626
0.0151839
0.0152264
0.0152901
0.0153747
0.01548
0.0156057
0.0157513
0.0159164
0.0161004
0.0163026
0.0165221
0.0167579
0.0170089
0.0173359
0.0178919
0.0175608
0.0173042
0.017063
0.0168387
0.0166321
0.0164442
0.0162756
0.016127
0.0159987
0.0158913
0.015805
0.0157401
0.0156967
0.0156749
0.0156749
0.0156967
0.0157401
0.015805
0.0158913
0.0159987
0.016127
0.0162756
0.0164442
0.0166321
0.0168387
0.017063
0.0173042
0.0175608
0.0178919
0.018464
0.0181282
0.0178656
0.0176189
0.0173894
0.0171782
0.0169862
0.0168139
0.0166621
0.0165311
0.0164215
0.0163334
0.0162671
0.0162228
0.0162007
0.0162007
0.0162228
0.0162671
0.0163334
0.0164215
0.0165311
0.0166621
0.0168139
0.0169862
0.0171782
0.0173894
0.0176189
0.0178656
0.0181282
0.018464
0.0190529
0.0187121
0.0184432
0.0181906
0.0179557
0.0177396
0.0175432
0.0173671
0.0172119
0.0170781
0.016966
0.0168761
0.0168084
0.0167632
0.0167406
0.0167406
0.0167632
0.0168084
0.0168761
0.016966
0.0170781
0.0172119
0.0173671
0.0175432
0.0177396
0.0179557
0.0181906
0.0184432
0.0187121
0.0190529
0.0196596
0.0193134
0.0190378
0.018779
0.0185385
0.0183173
0.0181162
0.017936
0.0177773
0.0176405
0.017526
0.017434
0.0173648
0.0173187
0.0172955
0.0172955
0.0173187
0.0173648
0.017434
0.017526
0.0176405
0.0177773
0.017936
0.0181162
0.0183173
0.0185385
0.018779
0.0190378
0.0193134
0.0196596
0.0202853
0.0199331
0.0196505
0.0193852
0.0191387
0.0189121
0.0187062
0.0185217
0.0183593
0.0182193
0.0181022
0.0180081
0.0179374
0.0178902
0.0178665
0.0178665
0.0178902
0.0179374
0.0180081
0.0181022
0.0182193
0.0183593
0.0185217
0.0187062
0.0189121
0.0191387
0.0193852
0.0196505
0.0199331
0.0202853
0.0209309
0.0205724
0.0202824
0.0200103
0.0197575
0.0195252
0.0193142
0.0191252
0.0189589
0.0188156
0.0186957
0.0185994
0.0185271
0.0184787
0.0184546
0.0184546
0.0184787
0.0185271
0.0185994
0.0186957
0.0188156
0.0189589
0.0191252
0.0193142
0.0195252
0.0197575
0.0200103
0.0202824
0.0205724
0.0209309
0.0215977
0.0212323
0.0209346
0.0206552
0.0203959
0.0201576
0.0199413
0.0197476
0.0195771
0.0194303
0.0193075
0.0192089
0.0191349
0.0190854
0.0190606
0.0190606
0.0190854
0.0191349
0.0192089
0.0193075
0.0194303
0.0195771
0.0197476
0.0199413
0.0201576
0.0203959
0.0206552
0.0209346
0.0212323
0.0215977
0.0222869
0.0219141
0.0216082
0.0213213
0.0210551
0.0208105
0.0205886
0.0203899
0.0202152
0.0200647
0.0199388
0.0198378
0.0197619
0.0197112
0.0196859
0.0196859
0.0197112
0.0197619
0.0198378
0.0199388
0.0200647
0.0202152
0.0203899
0.0205886
0.0208105
0.0210551
0.0213213
0.0216082
0.0219141
0.0222869
0.0229997
0.022619
0.0223046
0.0220098
0.0217363
0.0214852
0.0212573
0.0210535
0.0208742
0.0207198
0.0205907
0.0204872
0.0204094
0.0203574
0.0203314
0.0203314
0.0203574
0.0204094
0.0204872
0.0205907
0.0207198
0.0208742
0.0210535
0.0212573
0.0214852
0.0217363
0.0220098
0.0223046
0.022619
0.0229997
0.0237376
0.0233485
0.0230251
0.022722
0.0224409
0.0221828
0.0219488
0.0217395
0.0215554
0.021397
0.0212645
0.0211583
0.0210785
0.0210252
0.0209985
0.0209985
0.0210252
0.0210785
0.0211583
0.0212645
0.021397
0.0215554
0.0217395
0.0219488
0.0221828
0.0224409
0.022722
0.0230251
0.0233485
0.0237376
0.0245021
0.024104
0.0237712
0.0234593
0.0231702
0.0229049
0.0226644
0.0224493
0.0222603
0.0220976
0.0219616
0.0218525
0.0217706
0.0217159
0.0216885
0.0216885
0.0217159
0.0217706
0.0218525
0.0219616
0.0220976
0.0222603
0.0224493
0.0226644
0.0229049
0.0231702
0.0234593
0.0237712
0.024104
0.0245021
0.0252946
0.024887
0.0245443
0.0242233
0.0239257
0.0236528
0.0234055
0.0231845
0.0229901
0.0228229
0.0226832
0.0225712
0.022487
0.0224308
0.0224027
0.0224027
0.0224308
0.022487
0.0225712
0.0226832
0.0228229
0.0229901
0.0231845
0.0234055
0.0236528
0.0239257
0.0242233
0.0245443
0.024887
0.0252946
0.0261169
0.0256991
0.025346
0.0250154
0.0247091
0.0244282
0.0241738
0.0239464
0.0237465
0.0235746
0.023431
0.0233158
0.0232293
0.0231716
0.0231427
0.0231427
0.0231716
0.0232293
0.0233158
0.023431
0.0235746
0.0237465
0.0239464
0.0241738
0.0244282
0.0247091
0.0250154
0.025346
0.0256991
0.0261169
0.0269708
0.0265422
0.0261782
0.0258375
0.0255219
0.0252327
0.0249708
0.0247367
0.0245311
0.0243542
0.0242065
0.0240881
0.0239991
0.0239397
0.02391
0.02391
0.0239397
0.0239991
0.0240881
0.0242065
0.0243542
0.0245311
0.0247367
0.0249708
0.0252327
0.0255219
0.0258375
0.0261782
0.0265422
0.0269707
0.0278581
0.0274182
0.0270427
0.0266914
0.0263661
0.0260681
0.0257983
0.0255573
0.0253455
0.0251635
0.0250114
0.0248895
0.024798
0.0247369
0.0247063
0.0247063
0.0247369
0.024798
0.0248895
0.0250114
0.0251635
0.0253455
0.0255573
0.0257983
0.0260681
0.0263661
0.0266914
0.0270427
0.0274182
0.0278581
0.0287809
0.028329
0.0279415
0.027579
0.0272436
0.0269363
0.0266582
0.0264099
0.0261918
0.0260043
0.0258476
0.0257221
0.0256278
0.0255649
0.0255335
0.0255335
0.0255649
0.0256278
0.0257221
0.0258476
0.0260042
0.0261918
0.0264099
0.0266582
0.0269363
0.0272436
0.027579
0.0279415
0.028329
0.0287809
0.0297414
0.0292767
0.0288766
0.0285025
0.0281563
0.0278394
0.0275526
0.0272966
0.0270717
0.0268785
0.0267171
0.0265877
0.0264906
0.0264258
0.0263934
0.0263934
0.0264258
0.0264906
0.0265877
0.0267171
0.0268785
0.0270717
0.0272966
0.0275526
0.0278394
0.0281563
0.0285025
0.0288766
0.0292767
0.0297414
0.0307421
0.0302638
0.0298504
0.029464
0.0291066
0.0287796
0.0284836
0.0282195
0.0279876
0.0277882
0.0276218
0.0274885
0.0273883
0.0273215
0.0272881
0.0272881
0.0273215
0.0273883
0.0274884
0.0276218
0.0277882
0.0279876
0.0282195
0.0284836
0.0287796
0.0291066
0.029464
0.0298504
0.0302638
0.0307421
0.0317853
0.0312928
0.0308654
0.0304661
0.0300969
0.0297591
0.0294536
0.0291809
0.0289416
0.0287359
0.0285642
0.0284266
0.0283233
0.0282543
0.0282199
0.0282199
0.0282543
0.0283233
0.0284266
0.0285642
0.0287359
0.0289416
0.0291809
0.0294536
0.0297591
0.0300969
0.0304661
0.0308654
0.0312928
0.0317853
0.0328738
0.0323662
0.0319241
0.0315112
0.0311297
0.0307807
0.030465
0.0301834
0.0299362
0.0297239
0.0295465
0.0294045
0.0292979
0.0292267
0.0291911
0.0291911
0.0292267
0.0292979
0.0294045
0.0295465
0.0297239
0.0299362
0.0301834
0.030465
0.0307807
0.0311297
0.0315112
0.0319241
0.0323662
0.0328738
0.0340107
0.0334871
0.0330295
0.0326024
0.0322078
0.0318469
0.0315207
0.0312296
0.0309742
0.0307548
0.0305716
0.0304248
0.0303147
0.0302412
0.0302044
0.0302044
0.0302412
0.0303147
0.0304248
0.0305716
0.0307548
0.0309742
0.0312296
0.0315207
0.0318469
0.0322078
0.0326024
0.0330295
0.0334871
0.0340107
0.035199
0.0346585
0.0341847
0.0337425
0.0333342
0.0329609
0.0326235
0.0323225
0.0320583
0.0318315
0.0316421
0.0314904
0.0313766
0.0313006
0.0312626
0.0312626
0.0313006
0.0313765
0.0314904
0.0316421
0.0318315
0.0320583
0.0323224
0.0326235
0.0329609
0.0333342
0.0337425
0.0341847
0.0346585
0.035199
0.0364423
0.0358839
0.0353929
0.034935
0.0345122
0.0341258
0.0337765
0.0334651
0.0331918
0.0329571
0.0327612
0.0326043
0.0324865
0.0324079
0.0323686
0.0323686
0.0324079
0.0324865
0.0326043
0.0327612
0.0329571
0.0331918
0.0334651
0.0337765
0.0341258
0.0345122
0.034935
0.0353929
0.0358839
0.0364423
0.0377442
0.0371669
0.0366579
0.0361833
0.0357453
0.035345
0.0349834
0.0346608
0.0343779
0.0341349
0.0339322
0.0337697
0.0336478
0.0335665
0.0335258
0.0335258
0.0335665
0.0336478
0.0337697
0.0339322
0.0341349
0.0343779
0.0346608
0.0349834
0.035345
0.0357453
0.0361833
0.0366579
0.0371669
0.0377442
0.0391089
0.0385116
0.0379835
0.0374913
0.0370373
0.0366224
0.0362477
0.0359135
0.0356204
0.0353687
0.0351586
0.0349904
0.0348641
0.0347799
0.0347378
0.0347378
0.0347799
0.0348641
0.0349904
0.0351586
0.0353687
0.0356204
0.0359135
0.0362477
0.0366225
0.0370373
0.0374913
0.0379835
0.0385116
0.0391089
0.0405407
0.0399222
0.039374
0.0388633
0.0383923
0.0379621
0.0375735
0.037227
0.0369231
0.0366622
0.0364445
0.0362701
0.0361392
0.0360519
0.0360083
0.0360083
0.0360519
0.0361392
0.0362701
0.0364445
0.0366622
0.0369231
0.037227
0.0375735
0.0379621
0.0383923
0.0388633
0.039374
0.0399222
0.0405407
0.0420444
0.0414035
0.0408341
0.0403039
0.039815
0.0393685
0.0389653
0.0386058
0.0382905
0.0380198
0.037794
0.0376131
0.0374774
0.0373868
0.0373415
0.0373415
0.0373868
0.0374774
0.0376131
0.037794
0.0380198
0.0382905
0.0386058
0.0389653
0.0393685
0.039815
0.0403039
0.0408341
0.0414035
0.0420444
0.0436254
0.0429607
0.0423688
0.041818
0.0413102
0.0408466
0.0404278
0.0400546
0.0397273
0.0394463
0.0392118
0.0390241
0.0388832
0.0387892
0.0387422
0.0387422
0.0387892
0.0388832
0.0390241
0.0392118
0.0394463
0.0397273
0.0400546
0.0404278
0.0408466
0.0413102
0.041818
0.0423688
0.0429607
0.0436254
0.0452892
0.0445993
0.0439838
0.0434111
0.0428834
0.0424015
0.0419664
0.0415786
0.0412385
0.0409466
0.040703
0.040508
0.0403617
0.040264
0.0402152
0.0402152
0.040264
0.0403617
0.040508
0.040703
0.0409466
0.0412385
0.0415786
0.0419664
0.0424015
0.0428834
0.0434111
0.0439838
0.0445993
0.0452892
0.0470423
0.0463256
0.045685
0.0450893
0.0445403
0.0440392
0.0435868
0.0431835
0.04283
0.0425265
0.0422732
0.0420705
0.0419184
0.0418169
0.0417661
0.0417661
0.0418169
0.0419184
0.0420705
0.0422732
0.0425265
0.04283
0.0431835
0.0435867
0.0440392
0.0445403
0.0450893
0.045685
0.0463256
0.0470423
0.0488914
0.0481464
0.0474792
0.046859
0.0462876
0.0457661
0.0452952
0.0448756
0.0445078
0.044192
0.0439285
0.0437176
0.0435593
0.0434537
0.043401
0.043401
0.0434538
0.0435593
0.0437176
0.0439285
0.044192
0.0445078
0.0448756
0.0452952
0.0457661
0.0462876
0.046859
0.0474792
0.0481464
0.0488914
0.0508441
0.0500689
0.0493736
0.0487275
0.0481323
0.0475891
0.0470988
0.0466618
0.0462787
0.0459499
0.0456756
0.0454559
0.0452911
0.0451812
0.0451263
0.0451263
0.0451812
0.0452912
0.0454559
0.0456756
0.0459499
0.0462787
0.0466618
0.0470988
0.0475891
0.0481323
0.0487275
0.0493736
0.0500689
0.0508441
0.0529088
0.0521016
0.0513764
0.0507027
0.0500823
0.0495161
0.049005
0.0485496
0.0481503
0.0478076
0.0475218
0.0472929
0.0471212
0.0470067
0.0469494
0.0469494
0.0470067
0.0471212
0.0472929
0.0475218
0.0478076
0.0481503
0.0485496
0.049005
0.0495161
0.0500823
0.0507027
0.0513764
0.0521016
0.0529088
0.0550946
0.0542533
0.0534964
0.0527934
0.0521461
0.0515555
0.0510223
0.0505473
0.0501309
0.0497734
0.0494753
0.0492366
0.0490575
0.0489381
0.0488784
0.0488784
0.0489381
0.0490575
0.0492366
0.0494753
0.0497734
0.0501309
0.0505473
0.0510223
0.0515555
0.0521461
0.0527934
0.0534964
0.0542533
0.0550946
0.0574116
0.056534
0.0557434
0.0550093
0.0543335
0.0537168
0.0531601
0.0526642
0.0522295
0.0518563
0.0515451
0.051296
0.051109
0.0509844
0.050922
0.050922
0.0509844
0.051109
0.051296
0.0515451
0.0518563
0.0522295
0.0526642
0.0531601
0.0537168
0.0543335
0.0550093
0.0557434
0.056534
0.0574116
0.0598711
0.0589549
0.0581283
0.0573611
0.0566548
0.0560104
0.0554287
0.0549105
0.0544563
0.0540664
0.0537412
0.0534809
0.0532856
0.0531554
0.0530902
0.0530902
0.0531554
0.0532856
0.0534809
0.0537412
0.0540664
0.0544563
0.0549105
0.0554287
0.0560104
0.0566548
0.0573611
0.0581283
0.0589549
0.0598711
0.0624856
0.0615281
0.0606633
0.0598608
0.059122
0.058448
0.0578396
0.0572976
0.0568225
0.0564148
0.0560747
0.0558025
0.0555983
0.0554621
0.055394
0.055394
0.0554621
0.0555983
0.0558025
0.0560747
0.0564148
0.0568225
0.0572976
0.0578396
0.058448
0.059122
0.0598608
0.0606633
0.0615281
0.0624856
0.0652689
0.0642673
0.0633617
0.0625215
0.061748
0.0610424
0.0604054
0.059838
0.0593407
0.0589139
0.0585579
0.058273
0.0580592
0.0579166
0.0578453
0.0578453
0.0579166
0.0580592
0.058273
0.0585579
0.0589139
0.0593407
0.059838
0.0604054
0.0610424
0.061748
0.0625215
0.0633617
0.0642673
0.0652689
0.0682364
0.0671878
0.0662386
0.065358
0.0645475
0.063808
0.0631406
0.062546
0.0620249
0.0615776
0.0612046
0.0609061
0.0606821
0.0605327
0.060458
0.060458
0.0605327
0.0606821
0.0609061
0.0612046
0.0615776
0.0620249
0.062546
0.0631406
0.063808
0.0645475
0.065358
0.0662386
0.0671878
0.0682364
0.0714055
0.0703065
0.0693107
0.068387
0.0675367
0.066761
0.0660609
0.0654372
0.0648906
0.0644215
0.0640302
0.0637171
0.0634821
0.0633255
0.0632471
0.0632471
0.0633255
0.0634821
0.0637171
0.0640302
0.0644215
0.0648906
0.0654372
0.0660609
0.066761
0.0675367
0.068387
0.0693107
0.0703065
0.0714055
0.0747955
0.0736426
0.0725968
0.0716268
0.070734
0.0699195
0.0691843
0.0685294
0.0679554
0.0674628
0.067052
0.0667232
0.0664765
0.066312
0.0662298
0.0662298
0.066312
0.0664765
0.0667232
0.067052
0.0674628
0.0679554
0.0685294
0.0691843
0.0699195
0.070734
0.0716268
0.0725968
0.0736426
0.0747955
0.0784281
0.0772174
0.076118
0.0750984
0.07416
0.0733037
0.0725309
0.0718424
0.071239
0.0707213
0.0702894
0.0699438
0.0696845
0.0695116
0.0694251
0.0694251
0.0695116
0.0696845
0.0699438
0.0702894
0.0707213
0.071239
0.0718424
0.0725309
0.0733037
0.07416
0.0750984
0.076118
0.0772174
0.0784281
0.0823279
0.0810551
0.0798981
0.0788253
0.0778377
0.0769366
0.0761233
0.0753987
0.0747637
0.0742188
0.0737644
0.0734006
0.0731277
0.0729458
0.0728548
0.0728548
0.0729458
0.0731277
0.0734006
0.0737644
0.0742188
0.0747637
0.0753987
0.0761233
0.0769366
0.0778377
0.0788253
0.0798981
0.0810551
0.0823279
0.0865224
0.0851829
0.0839641
0.0828338
0.0817933
0.080844
0.079987
0.0792236
0.0785546
0.0779804
0.0775016
0.0771184
0.0768309
0.0766392
0.0765433
0.0765433
0.0766392
0.0768309
0.0771184
0.0775016
0.0779804
0.0785546
0.0792236
0.079987
0.0808439
0.0817933
0.0828338
0.0839641
0.0851829
0.0865224
0.0910431
0.0896317
0.0883462
0.0871541
0.0860566
0.0850552
0.0841512
0.0833459
0.0826401
0.0820344
0.0815293
0.0811251
0.0808218
0.0806195
0.0805184
0.0805184
0.0806195
0.0808218
0.0811251
0.0815293
0.0820344
0.0826401
0.0833459
0.0841512
0.0850552
0.0860566
0.0871541
0.0883462
0.0896317
0.0910431
0.0959253
0.0944365
0.0930792
0.0918203
0.0906613
0.0896036
0.0886488
0.0877982
0.0870527
0.086413
0.0858795
0.0854525
0.0851321
0.0849185
0.0848117
0.0848117
0.0849185
0.0851321
0.0854525
0.0858795
0.086413
0.0870527
0.0877982
0.0886488
0.0896036
0.0906613
0.0918203
0.0930792
0.0944365
0.0959253
0.10121
0.0996372
0.0982022
0.0968713
0.0956457
0.0945272
0.0935174
0.0926179
0.0918295
0.0911529
0.0905886
0.090137
0.0897982
0.0895723
0.0894593
0.0894593
0.0895723
0.0897982
0.090137
0.0905886
0.0911529
0.0918295
0.0926179
0.0935174
0.0945272
0.0956457
0.0968713
0.0982022
0.0996372
0.10121
0.106942
0.105279
0.10376
0.102351
0.101054
0.0998694
0.0988002
0.0978475
0.0970126
0.0962961
0.0956985
0.0952202
0.0948614
0.0946221
0.0945025
0.0945025
0.0946221
0.0948614
0.0952202
0.0956985
0.0962961
0.0970126
0.0978475
0.0988002
0.0998694
0.101054
0.102351
0.10376
0.105279
0.106942
0.113175
0.111415
0.109805
0.108312
0.106936
0.10568
0.104546
0.103536
0.102651
0.101891
0.101257
0.10075
0.100369
0.100116
0.0999887
0.0999887
0.100116
0.100369
0.10075
0.101257
0.101891
0.102651
0.103536
0.104546
0.10568
0.106936
0.108312
0.109805
0.111415
0.113175
0.119969
0.118104
0.116396
0.11481
0.11335
0.112017
0.110813
0.10974
0.1088
0.107993
0.10732
0.106781
0.106377
0.106107
0.105973
0.105973
0.106107
0.106377
0.106781
0.10732
0.107993
0.1088
0.10974
0.110813
0.112017
0.11335
0.11481
0.116396
0.118104
0.119969
0.127395
0.125415
0.1236
0.121915
0.120362
0.118945
0.117665
0.116524
0.115524
0.114666
0.11395
0.113377
0.112947
0.112661
0.112517
0.112517
0.112661
0.112947
0.113377
0.11395
0.114666
0.115524
0.116524
0.117665
0.118945
0.120362
0.121915
0.1236
0.125415
0.127395
0.13553
0.133427
0.131496
0.129703
0.12805
0.126541
0.125178
0.123964
0.122899
0.121985
0.121223
0.120612
0.120154
0.119849
0.119696
0.119696
0.119849
0.120154
0.120612
0.121223
0.121985
0.122899
0.123964
0.125178
0.126541
0.12805
0.129703
0.131496
0.133427
0.13553
0.144469
0.142231
0.140174
0.138264
0.136503
0.134894
0.133441
0.132146
0.13101
0.130036
0.129222
0.128572
0.128083
0.127758
0.127595
0.127595
0.127758
0.128083
0.128572
0.129222
0.130036
0.13101
0.132146
0.133441
0.134894
0.136503
0.138264
0.140174
0.142231
0.144469
0.154315
0.151933
0.149739
0.147702
0.145823
0.144106
0.142555
0.141172
0.139959
0.138918
0.13805
0.137355
0.136833
0.136485
0.136311
0.136311
0.136485
0.136833
0.137355
0.13805
0.138918
0.139959
0.141172
0.142555
0.144106
0.145823
0.147702
0.149739
0.151933
0.154315
0.165192
0.162653
0.160312
0.158136
0.156129
0.154295
0.152637
0.151159
0.149863
0.14875
0.147821
0.147078
0.14652
0.146147
0.145961
0.145961
0.146147
0.14652
0.147078
0.147821
0.14875
0.149863
0.151159
0.152637
0.154295
0.156129
0.158136
0.160312
0.162653
0.165192
0.177238
0.174531
0.172031
0.169706
0.16756
0.165599
0.163826
0.162244
0.160857
0.159665
0.158671
0.157875
0.157278
0.156879
0.15668
0.15668
0.156879
0.157278
0.157875
0.158671
0.159665
0.160857
0.162244
0.163826
0.165599
0.16756
0.169706
0.172031
0.174531
0.177238
0.190612
0.187724
0.185054
0.182569
0.180274
0.178176
0.176278
0.174585
0.173099
0.171823
0.170757
0.169904
0.169264
0.168837
0.168623
0.168623
0.168837
0.169264
0.169904
0.170757
0.171823
0.173099
0.174584
0.176278
0.178176
0.180274
0.182569
0.185054
0.187724
0.190612
0.205489
0.202412
0.199561
0.196905
0.194451
0.192206
0.190174
0.188361
0.18677
0.185402
0.184261
0.183346
0.18266
0.182202
0.181973
0.181973
0.182202
0.18266
0.183346
0.184261
0.185402
0.18677
0.188361
0.190174
0.192206
0.194451
0.196905
0.199561
0.202412
0.205489
0.222065
0.21879
0.21575
0.212915
0.210293
0.207893
0.20572
0.203779
0.202075
0.20061
0.199387
0.198407
0.197671
0.19718
0.196935
0.196935
0.19718
0.197671
0.198407
0.199387
0.20061
0.202075
0.203779
0.20572
0.207893
0.210293
0.212915
0.21575
0.21879
0.222065
0.24054
0.237065
0.233832
0.230813
0.228019
0.225458
0.223138
0.221065
0.219243
0.217676
0.216368
0.215319
0.214531
0.214005
0.213742
0.213742
0.214005
0.214531
0.215319
0.216368
0.217676
0.219243
0.221065
0.223138
0.225458
0.228019
0.230813
0.233832
0.237065
0.24054
0.26111
0.257442
0.254019
0.250819
0.247853
0.245131
0.242663
0.240456
0.238515
0.236845
0.235449
0.234329
0.233488
0.232927
0.232646
0.232646
0.232927
0.233488
0.234329
0.235449
0.236845
0.238515
0.240456
0.242663
0.245131
0.247853
0.250819
0.254019
0.257442
0.26111
0.283931
0.28009
0.276495
0.273128
0.270001
0.267129
0.26452
0.262184
0.260128
0.258358
0.256876
0.255688
0.254795
0.254198
0.2539
0.2539
0.254198
0.254795
0.255688
0.256876
0.258358
0.260128
0.262184
0.26452
0.267129
0.270001
0.273128
0.276495
0.28009
0.283931
0.309065
0.305095
0.301366
0.297863
0.294605
0.291605
0.288877
0.28643
0.284273
0.282413
0.280856
0.279606
0.278666
0.278038
0.277723
0.277723
0.278038
0.278666
0.279606
0.280856
0.282413
0.284273
0.28643
0.288877
0.291605
0.294605
0.297863
0.301366
0.305095
0.309065
0.33639
0.332368
0.328571
0.324994
0.321657
0.318577
0.31577
0.313247
0.311019
0.309096
0.307483
0.306187
0.305211
0.304559
0.304233
0.304233
0.304559
0.305211
0.306187
0.307483
0.309096
0.311019
0.313247
0.31577
0.318577
0.321657
0.324994
0.328571
0.332368
0.33639
0.365479
0.361519
0.357761
0.354207
0.350879
0.347797
0.34498
0.342442
0.340196
0.338252
0.336621
0.335307
0.334317
0.333655
0.333324
0.333324
0.333655
0.334317
0.335307
0.336621
0.338252
0.340196
0.342442
0.34498
0.347797
0.350879
0.354207
0.357761
0.361519
0.365479
0.395459
0.391719
0.388146
0.38475
0.381556
0.378587
0.375863
0.373401
0.371216
0.369321
0.367726
0.36644
0.36547
0.36482
0.364494
0.364494
0.36482
0.36547
0.36644
0.367726
0.369321