/*--------------------------------*- C++ -*----------------------------------*\
  =========                 |
  \\      /  F ield         | OpenFOAM: The Open Source CFD Toolbox
   \\    /   O peration     | Website:  https://openfoam.org
    \\  /    A nd           | Version:  7
     \\/     M anipulation  |
\*---------------------------------------------------------------------------*/
FoamFile
{
    version     2.0;
    format      ascii;
    class       volVectorField;
    location    "260000";
    object      vorticity;
}
// * * * * * * * * * * * * * * * * * * * * * * * * * * * * * * * * * * * * * //

dimensions      [0 0 -1 0 0 0 0];

internalField   nonuniform List<vector> 
4782
(
(-0.0733708 -0.0552409 3.37543e-17)
(-0.0758804 -0.0571253 3.33729e-17)
(-0.0785223 -0.059109 3.38397e-17)
(-0.081306 -0.0611992 3.50548e-17)
(-0.0842417 -0.0634034 3.66644e-17)
(-0.0873406 -0.0657302 3.74835e-17)
(-0.0906148 -0.0681885 3.77156e-17)
(-0.0940775 -0.0707883 3.80106e-17)
(-0.0977429 -0.0735402 3.92327e-17)
(-0.101626 -0.0764559 4.1912e-17)
(-0.0230472 -0.0185768 9.67286e-18)
(-0.0235236 -0.0189586 1.10002e-17)
(-0.0240126 -0.0193505 1.18829e-17)
(-0.0245146 -0.0197528 1.22567e-17)
(-0.0250302 -0.020166 1.20227e-17)
(-0.0255623 -0.0205925 1.1917e-17)
(-0.0261153 -0.0210359 1.22916e-17)
(-0.0266897 -0.0214968 1.18576e-17)
(-0.0272833 -0.021973 1.10537e-17)
(-0.0278945 -0.0224634 1.05761e-17)
(-0.0285228 -0.0229675 9.78686e-18)
(-0.0291686 -0.0234856 9.21542e-18)
(-0.0298325 -0.0240181 9.22534e-18)
(-0.0305154 -0.0245658 9.52413e-18)
(-0.0312181 -0.0251295 9.69524e-18)
(-0.0319419 -0.0257099 1.03824e-17)
(-0.0326877 -0.026308 1.1568e-17)
(-0.0334569 -0.0269247 1.2294e-17)
(-0.0342505 -0.027561 1.2551e-17)
(-0.0350699 -0.028218 1.23444e-17)
(-0.0359165 -0.0288968 1.15606e-17)
(-0.0367917 -0.0295984 1.10389e-17)
(-0.0376969 -0.0303241 1.05913e-17)
(-0.0386338 -0.0310751 1.01267e-17)
(-0.039604 -0.0318529 9.44913e-18)
(-0.0406093 -0.0326587 8.71606e-18)
(-0.0416516 -0.0334942 7.86439e-18)
(-0.0427329 -0.034361 7.17935e-18)
(-0.0438553 -0.0352607 6.97939e-18)
(-0.0450211 -0.0361951 6.73463e-18)
(-0.0462328 -0.0371663 6.48465e-18)
(-0.0474929 -0.0381762 6.54145e-18)
(-0.0488042 -0.0392272 6.88833e-18)
(-0.0501697 -0.0403216 7.13611e-18)
(-0.0515926 -0.041462 7.24374e-18)
(-0.0530763 -0.0426511 7.56116e-18)
(-0.0546246 -0.0438919 7.96728e-18)
(-0.0562413 -0.0451875 8.12535e-18)
(-0.0579307 -0.0465414 7.37293e-18)
(-0.0596975 -0.0479572 5.81185e-18)
(-0.0615466 -0.0494389 4.17897e-18)
(-0.0634833 -0.0509908 2.61935e-18)
(-0.0655134 -0.0526175 8.92194e-19)
(-0.0676431 -0.0543241 -2.29912e-19)
(-0.0698793 -0.0561158 -9.20976e-19)
(-0.0722292 -0.0579986 -1.45918e-18)
(-0.0747007 -0.0599789 -2.34607e-18)
(-0.0773024 -0.0620634 -3.75217e-18)
(-0.0800437 -0.0642597 -5.45471e-18)
(-0.0829345 -0.0665758 -7.53089e-18)
(-0.085986 -0.0690204 -9.49776e-18)
(-0.0892098 -0.0716032 -1.15902e-17)
(-0.092619 -0.0743344 -1.5162e-17)
(-0.0962276 -0.0772253 -1.73158e-17)
(-0.100051 -0.0802879 -1.75798e-17)
(-0.0226534 -0.0194303 1.51724e-17)
(-0.0231216 -0.0198302 1.35533e-17)
(-0.023602 -0.0202406 1.14124e-17)
(-0.0240953 -0.0206621 9.59851e-18)
(-0.0246027 -0.0210957 8.79833e-18)
(-0.0251278 -0.0215446 8.49309e-18)
(-0.0256741 -0.0220119 9.49253e-18)
(-0.0262404 -0.0224965 1.14717e-17)
(-0.0268241 -0.0229961 1.28583e-17)
(-0.0274245 -0.0235098 1.34879e-17)
(-0.0280414 -0.0240376 1.32003e-17)
(-0.0286754 -0.0245799 1.19872e-17)
(-0.0293272 -0.0251373 1.08847e-17)
(-0.0299976 -0.0257106 1.06624e-17)
(-0.0306878 -0.0263007 1.10604e-17)
(-0.0313987 -0.0269084 1.191e-17)
(-0.0321314 -0.0275348 1.30008e-17)
(-0.032887 -0.0281807 1.37946e-17)
(-0.0336669 -0.0288473 1.42164e-17)
(-0.0344722 -0.0295356 1.40518e-17)
(-0.0353043 -0.0302468 1.35359e-17)
(-0.0361645 -0.0309819 1.30922e-17)
(-0.0370544 -0.0317424 1.32186e-17)
(-0.0379754 -0.0325295 1.42846e-17)
(-0.0389292 -0.0333447 1.5509e-17)
(-0.0399177 -0.0341894 1.62927e-17)
(-0.0409425 -0.0350651 1.55906e-17)
(-0.0420057 -0.0359737 1.39616e-17)
(-0.0431094 -0.0369168 1.20645e-17)
(-0.0442559 -0.0378964 1.06458e-17)
(-0.0454474 -0.0389146 9.36381e-18)
(-0.0466866 -0.0399734 7.20594e-18)
(-0.0479762 -0.0410753 5.24426e-18)
(-0.0493192 -0.0422228 3.35224e-18)
(-0.0507186 -0.0434185 1.34822e-18)
(-0.0521778 -0.0446653 -2.03947e-19)
(-0.0537006 -0.0459663 -1.35176e-18)
(-0.0552907 -0.0473248 -2.60056e-18)
(-0.0569523 -0.0487444 -3.81361e-18)
(-0.0586901 -0.050229 -5.38087e-18)
(-0.0605088 -0.0517827 -7.68787e-18)
(-0.0624136 -0.05341 -9.99678e-18)
(-0.0644104 -0.0551157 -1.19885e-17)
(-0.0665051 -0.0569052 -1.32032e-17)
(-0.0687045 -0.0587839 -1.38218e-17)
(-0.0710156 -0.0607581 -1.39892e-17)
(-0.0734464 -0.0628345 -1.45526e-17)
(-0.0760051 -0.0650201 -1.61149e-17)
(-0.078701 -0.0673227 -1.83207e-17)
(-0.0815438 -0.0697509 -2.05139e-17)
(-0.0845445 -0.0723138 -2.24575e-17)
(-0.0877145 -0.0750213 -2.30784e-17)
(-0.0910665 -0.0778841 -2.26234e-17)
(-0.0946142 -0.0809141 -2.26443e-17)
(-0.0983724 -0.0841238 -2.30759e-17)
(-0.0222378 -0.020279 4.96238e-18)
(-0.0226977 -0.0206967 4.93704e-18)
(-0.0231697 -0.0211256 4.65668e-18)
(-0.0236541 -0.0215666 3.97415e-18)
(-0.0241535 -0.0220221 3.24852e-18)
(-0.0246721 -0.0224959 2.99884e-18)
(-0.0252107 -0.022988 3.48382e-18)
(-0.0257669 -0.023496 4.57125e-18)
(-0.0263394 -0.0240184 5.90918e-18)
(-0.0269276 -0.0245549 7.0246e-18)
(-0.0275319 -0.0251058 8.32333e-18)
(-0.0281531 -0.0256719 9.88977e-18)
(-0.0287919 -0.0262538 1.12345e-17)
(-0.0294492 -0.0268525 1.2649e-17)
(-0.0301259 -0.0274688 1.43471e-17)
(-0.0308232 -0.0281037 1.57794e-17)
(-0.031542 -0.0287583 1.69838e-17)
(-0.0322834 -0.0294334 1.86582e-17)
(-0.0330488 -0.0301302 2.06001e-17)
(-0.0338391 -0.0308498 2.22804e-17)
(-0.0346559 -0.0315934 2.36251e-17)
(-0.0355003 -0.0323622 2.4795e-17)
(-0.0363739 -0.0331575 2.61559e-17)
(-0.0372781 -0.0339807 2.78729e-17)
(-0.0382146 -0.0348333 2.94759e-17)
(-0.0391852 -0.0357168 3.09146e-17)
(-0.0401915 -0.0366329 3.21566e-17)
(-0.0412355 -0.0375833 3.3318e-17)
(-0.0423194 -0.03857 3.35252e-17)
(-0.0434452 -0.0395949 3.31129e-17)
(-0.0446154 -0.0406601 3.26977e-17)
(-0.0458325 -0.041768 3.19343e-17)
(-0.047099 -0.0429209 3.15879e-17)
(-0.048418 -0.0441215 3.16921e-17)
(-0.0497925 -0.0453727 3.09991e-17)
(-0.0512258 -0.0466773 2.99884e-17)
(-0.0527214 -0.0480387 2.87872e-17)
(-0.0542833 -0.0494603 2.79696e-17)
(-0.0559154 -0.0509459 2.73695e-17)
(-0.0576223 -0.0524995 2.6711e-17)
(-0.0594087 -0.0541254 2.57566e-17)
(-0.0612797 -0.0558284 2.42477e-17)
(-0.063241 -0.0576134 2.33942e-17)
(-0.0652985 -0.059486 2.30804e-17)
(-0.0674587 -0.0614521 2.28992e-17)
(-0.0697287 -0.063518 2.27334e-17)
(-0.072116 -0.0656907 2.27926e-17)
(-0.074629 -0.0679777 2.22953e-17)
(-0.0772765 -0.0703871 2.13e-17)
(-0.0800683 -0.0729277 2.01197e-17)
(-0.0830148 -0.0756091 1.88905e-17)
(-0.0861274 -0.0784416 1.82808e-17)
(-0.0894185 -0.0814365 1.83718e-17)
(-0.0929014 -0.0846058 1.86264e-17)
(-0.0965906 -0.0879628 1.92254e-17)
(-0.0224265 -0.0204866 1.66039e-17)
(-0.022875 -0.020924 1.91262e-17)
(-0.0233391 -0.0213761 2.14588e-17)
(-0.0238199 -0.0218446 2.32334e-17)
(-0.0243164 -0.0223289 2.38316e-17)
(-0.0248277 -0.0228283 2.34807e-17)
(-0.0253541 -0.0233423 2.27926e-17)
(-0.025896 -0.0238708 2.17281e-17)
(-0.0264534 -0.024414 2.10666e-17)
(-0.0270267 -0.0249722 2.13653e-17)
(-0.0276164 -0.025546 2.22717e-17)
(-0.0282231 -0.0261359 2.32321e-17)
(-0.0288474 -0.0267428 2.33494e-17)
(-0.0294902 -0.0273674 2.26303e-17)
(-0.0301523 -0.0280106 2.16494e-17)
(-0.0308347 -0.0286734 2.0948e-17)
(-0.0315384 -0.0293566 2.05409e-17)
(-0.0322645 -0.0300614 2.06469e-17)
(-0.0330141 -0.0307888 2.13552e-17)
(-0.0337884 -0.03154 2.22618e-17)
(-0.0345886 -0.0323163 2.29276e-17)
(-0.0354162 -0.0331188 2.32171e-17)
(-0.0362725 -0.0339491 2.33421e-17)
(-0.0371589 -0.0348084 2.30205e-17)
(-0.0380771 -0.0356984 2.2864e-17)
(-0.0390288 -0.0366206 2.30897e-17)
(-0.0400158 -0.0375769 2.34956e-17)
(-0.0410398 -0.0385689 2.32488e-17)
(-0.0421031 -0.0395987 2.29093e-17)
(-0.0432076 -0.0406684 2.3082e-17)
(-0.0443558 -0.0417802 2.34195e-17)
(-0.04555 -0.0429364 2.35093e-17)
(-0.046793 -0.0441396 2.39421e-17)
(-0.0480875 -0.0453926 2.51319e-17)
(-0.0494365 -0.0466983 2.65317e-17)
(-0.0508434 -0.0480598 2.74748e-17)
(-0.0523116 -0.0494805 2.7985e-17)
(-0.0538449 -0.050964 2.84505e-17)
(-0.0554472 -0.0525142 2.90796e-17)
(-0.057123 -0.0541354 3.02472e-17)
(-0.0588769 -0.055832 3.13832e-17)
(-0.0607139 -0.057609 3.22286e-17)
(-0.0626396 -0.0594715 3.26609e-17)
(-0.0646598 -0.0614254 3.23699e-17)
(-0.0667808 -0.0634768 3.11536e-17)
(-0.0690096 -0.0656323 2.97742e-17)
(-0.0713536 -0.0678992 2.87178e-17)
(-0.0738208 -0.0702852 2.85577e-17)
(-0.0764201 -0.0727988 2.8607e-17)
(-0.0791608 -0.0754492 2.84213e-17)
(-0.0820532 -0.0782464 2.79444e-17)
(-0.0851084 -0.0812009 2.6751e-17)
(-0.0883385 -0.0843246 2.54084e-17)
(-0.0917564 -0.0876301 2.50137e-17)
(-0.0953763 -0.091131 2.48584e-17)
(-0.0204866 -0.0224265 1.2442e-17)
(-0.020924 -0.022875 1.50307e-17)
(-0.0213761 -0.0233391 1.6816e-17)
(-0.0218446 -0.0238199 1.79775e-17)
(-0.0223289 -0.0243164 1.86445e-17)
(-0.0228283 -0.0248277 1.88747e-17)
(-0.0233424 -0.0253541 1.84085e-17)
(-0.0238708 -0.025896 1.71262e-17)
(-0.024414 -0.0264534 1.63839e-17)
(-0.0249722 -0.0270267 1.71116e-17)
(-0.025546 -0.0276164 1.81755e-17)
(-0.0261359 -0.0282231 1.91579e-17)
(-0.0267428 -0.0288474 1.95553e-17)
(-0.0273674 -0.0294902 1.87245e-17)
(-0.0280106 -0.0301523 1.69617e-17)
(-0.0286734 -0.0308347 1.46937e-17)
(-0.0293566 -0.0315384 1.26041e-17)
(-0.0300614 -0.0322645 1.11814e-17)
(-0.0307888 -0.0330141 1.04064e-17)
(-0.03154 -0.0337884 9.45485e-18)
(-0.0323163 -0.0345886 8.07991e-18)
(-0.0331188 -0.0354162 6.87172e-18)
(-0.0339491 -0.0362724 5.53701e-18)
(-0.0348084 -0.0371589 3.71196e-18)
(-0.0356984 -0.0380771 2.04214e-18)
(-0.0366206 -0.0390288 3.08106e-19)
(-0.0375769 -0.0400158 -1.39587e-18)
(-0.0385689 -0.0410398 -3.32911e-18)
(-0.0395987 -0.0421031 -4.70191e-18)
(-0.0406684 -0.0432076 -5.77587e-18)
(-0.0417802 -0.0443558 -6.21209e-18)
(-0.0429364 -0.04555 -5.70961e-18)
(-0.0441397 -0.046793 -5.55889e-18)
(-0.0453926 -0.0480875 -5.49917e-18)
(-0.0466983 -0.0494365 -5.05407e-18)
(-0.0480598 -0.0508434 -5.79784e-18)
(-0.0494805 -0.0523116 -7.38192e-18)
(-0.050964 -0.0538449 -8.58826e-18)
(-0.0525142 -0.0554472 -9.66668e-18)
(-0.0541354 -0.057123 -1.01664e-17)
(-0.055832 -0.0588769 -1.02809e-17)
(-0.057609 -0.0607139 -1.10901e-17)
(-0.0594715 -0.0626396 -1.25683e-17)
(-0.0614254 -0.0646598 -1.51512e-17)
(-0.0634768 -0.0667808 -1.87511e-17)
(-0.0656323 -0.0690096 -2.2368e-17)
(-0.0678992 -0.0713536 -2.58118e-17)
(-0.0702852 -0.0738208 -2.86273e-17)
(-0.0727988 -0.0764201 -3.09467e-17)
(-0.0754492 -0.0791608 -3.36827e-17)
(-0.0782464 -0.0820532 -3.67126e-17)
(-0.0812009 -0.0851084 -3.99972e-17)
(-0.0843246 -0.0883385 -4.30468e-17)
(-0.0876301 -0.0917564 -4.58748e-17)
(-0.091131 -0.0953763 -4.8613e-17)
(-0.020279 -0.0222378 1.67072e-17)
(-0.0206967 -0.0226977 1.79561e-17)
(-0.0211256 -0.0231697 1.78649e-17)
(-0.0215666 -0.0236541 1.75896e-17)
(-0.0220221 -0.0241535 1.76791e-17)
(-0.0224959 -0.0246721 1.77785e-17)
(-0.022988 -0.0252107 1.83972e-17)
(-0.023496 -0.0257669 1.9297e-17)
(-0.0240184 -0.0263393 2.05671e-17)
(-0.0245549 -0.0269276 2.23417e-17)
(-0.0251058 -0.0275319 2.36139e-17)
(-0.0256719 -0.0281531 2.44791e-17)
(-0.0262538 -0.0287919 2.52431e-17)
(-0.0268525 -0.0294491 2.56094e-17)
(-0.0274688 -0.0301259 2.56332e-17)
(-0.0281037 -0.0308232 2.53465e-17)
(-0.0287583 -0.031542 2.51735e-17)
(-0.0294334 -0.0322834 2.52283e-17)
(-0.0301302 -0.0330488 2.52408e-17)
(-0.0308498 -0.0338391 2.49808e-17)
(-0.0315934 -0.0346559 2.44914e-17)
(-0.0323622 -0.0355003 2.4353e-17)
(-0.0331575 -0.0363739 2.43382e-17)
(-0.0339807 -0.0372781 2.4467e-17)
(-0.0348333 -0.0382146 2.47171e-17)
(-0.0357168 -0.0391852 2.52036e-17)
(-0.0366329 -0.0401915 2.59413e-17)
(-0.0375834 -0.0412355 2.69333e-17)
(-0.03857 -0.0423194 2.72193e-17)
(-0.0395949 -0.0434452 2.71541e-17)
(-0.0406601 -0.0446154 2.71795e-17)
(-0.041768 -0.0458325 2.74467e-17)
(-0.0429209 -0.047099 2.74412e-17)
(-0.0441215 -0.048418 2.7122e-17)
(-0.0453727 -0.0497925 2.59261e-17)
(-0.0466773 -0.0512258 2.38373e-17)
(-0.0480387 -0.0527215 2.15634e-17)
(-0.0494603 -0.0542833 1.96456e-17)
(-0.0509459 -0.0559154 1.80851e-17)
(-0.0524995 -0.0576223 1.63826e-17)
(-0.0541254 -0.0594087 1.47838e-17)
(-0.0558284 -0.0612797 1.33333e-17)
(-0.0576134 -0.063241 1.19745e-17)
(-0.059486 -0.0652985 1.10657e-17)
(-0.0614521 -0.0674587 1.06726e-17)
(-0.063518 -0.0697287 1.00347e-17)
(-0.0656907 -0.072116 9.59281e-18)
(-0.0679777 -0.074629 8.8892e-18)
(-0.0703871 -0.0772765 7.50797e-18)
(-0.0729277 -0.0800683 5.35973e-18)
(-0.0756091 -0.0830148 3.1795e-18)
(-0.0784416 -0.0861274 1.36838e-18)
(-0.0814365 -0.0894185 -2.49058e-19)
(-0.0846058 -0.0929014 -1.73876e-18)
(-0.0879628 -0.0965906 -2.2676e-18)
(-0.0915217 -0.100502 -1.75659e-18)
(-0.0952978 -0.104652 -4.12117e-20)
(-0.0993078 -0.109059 2.14705e-18)
(-0.103569 -0.113742 4.19733e-18)
(-0.0194303 -0.0226534 1.8697e-17)
(-0.0198302 -0.0231216 2.05197e-17)
(-0.0202406 -0.023602 2.05448e-17)
(-0.0206621 -0.0240953 1.99262e-17)
(-0.0210957 -0.0246027 1.95682e-17)
(-0.0215446 -0.0251278 1.96489e-17)
(-0.0220119 -0.0256741 1.9868e-17)
(-0.0224965 -0.0262404 1.99037e-17)
(-0.0229961 -0.0268241 1.98416e-17)
(-0.0235098 -0.0274245 2.01649e-17)
(-0.0240376 -0.0280414 2.03353e-17)
(-0.0245799 -0.0286754 2.00899e-17)
(-0.0251373 -0.0293272 2.02542e-17)
(-0.0257106 -0.0299976 2.07626e-17)
(-0.0263007 -0.0306878 2.18129e-17)
(-0.0269084 -0.0313986 2.32931e-17)
(-0.0275348 -0.0321313 2.46901e-17)
(-0.0281807 -0.032887 2.57345e-17)
(-0.0288473 -0.0336669 2.65213e-17)
(-0.0295356 -0.0344722 2.67822e-17)
(-0.0302468 -0.0353043 2.67211e-17)
(-0.0309819 -0.0361645 2.67251e-17)
(-0.0317424 -0.0370544 2.72821e-17)
(-0.0325295 -0.0379754 2.86932e-17)
(-0.0333447 -0.0389292 3.04531e-17)
(-0.0341894 -0.0399177 3.21713e-17)
(-0.0350651 -0.0409425 3.24976e-17)
(-0.0359737 -0.0420057 3.16943e-17)
(-0.0369168 -0.0431094 3.06299e-17)
(-0.0378964 -0.0442559 2.99443e-17)
(-0.0389146 -0.0454474 2.885e-17)
(-0.0399734 -0.0466866 2.68056e-17)
(-0.0410753 -0.0479762 2.40254e-17)
(-0.0422228 -0.0493192 2.13131e-17)
(-0.0434185 -0.0507186 1.87147e-17)
(-0.0446653 -0.0521778 1.62484e-17)
(-0.0459663 -0.0537006 1.46577e-17)
(-0.0473248 -0.0552907 1.39211e-17)
(-0.0487444 -0.0569523 1.33252e-17)
(-0.050229 -0.0586901 1.24876e-17)
(-0.0517827 -0.0605088 1.18458e-17)
(-0.05341 -0.0624136 1.15235e-17)
(-0.0551157 -0.0644104 1.13365e-17)
(-0.0569052 -0.0665051 1.13387e-17)
(-0.0587839 -0.0687045 1.17278e-17)
(-0.0607582 -0.0710156 1.23904e-17)
(-0.0628345 -0.0734464 1.28288e-17)
(-0.0650201 -0.0760051 1.28315e-17)
(-0.0673227 -0.078701 1.2406e-17)
(-0.0697509 -0.0815438 1.19137e-17)
(-0.0723138 -0.0845445 1.11821e-17)
(-0.0750213 -0.0877145 1.04977e-17)
(-0.0778841 -0.0910665 9.83653e-18)
(-0.0809141 -0.0946142 8.91875e-18)
(-0.0841238 -0.0983724 7.71664e-18)
(-0.0875269 -0.102357 6.92124e-18)
(-0.0911383 -0.106586 6.52559e-18)
(-0.0949739 -0.111077 6.11111e-18)
(-0.0990509 -0.115852 5.35442e-18)
(-0.103388 -0.12093 5.23161e-18)
(-0.0185768 -0.0230472 7.35563e-19)
(-0.0189586 -0.0235236 3.64718e-18)
(-0.0193505 -0.0240126 4.26468e-18)
(-0.0197528 -0.0245146 3.43966e-18)
(-0.020166 -0.0250302 2.79675e-18)
(-0.0205925 -0.0255623 2.70782e-18)
(-0.0210359 -0.0261153 3.25438e-18)
(-0.0214968 -0.0266897 4.37729e-18)
(-0.021973 -0.0272833 5.85075e-18)
(-0.0224634 -0.0278945 7.49038e-18)
(-0.0229675 -0.0285228 8.94387e-18)
(-0.0234856 -0.0291686 1.03495e-17)
(-0.0240181 -0.0298325 1.1882e-17)
(-0.0245658 -0.0305154 1.33497e-17)
(-0.0251295 -0.0312181 1.46548e-17)
(-0.0257099 -0.0319419 1.62932e-17)
(-0.026308 -0.0326877 1.78452e-17)
(-0.0269247 -0.0334569 1.92491e-17)
(-0.027561 -0.0342505 2.04064e-17)
(-0.028218 -0.0350699 2.08846e-17)
(-0.0288968 -0.0359165 2.07101e-17)
(-0.0295984 -0.0367917 2.05438e-17)
(-0.0303241 -0.0376969 2.03078e-17)
(-0.0310751 -0.0386338 1.99237e-17)
(-0.0318529 -0.039604 1.95715e-17)
(-0.0326588 -0.0406093 1.8912e-17)
(-0.0334943 -0.0416516 1.80306e-17)
(-0.034361 -0.0427329 1.80561e-17)
(-0.0352607 -0.0438553 1.91362e-17)
(-0.0361951 -0.0450211 2.02563e-17)
(-0.0371663 -0.0462328 2.10934e-17)
(-0.0381762 -0.0474929 2.14108e-17)
(-0.0392272 -0.0488042 2.16121e-17)
(-0.0403216 -0.0501697 2.16045e-17)
(-0.041462 -0.0515926 2.11169e-17)
(-0.0426511 -0.0530763 2.07631e-17)
(-0.0438919 -0.0546246 2.09113e-17)
(-0.0451875 -0.0562413 2.10697e-17)
(-0.0465414 -0.0579307 1.99733e-17)
(-0.0479572 -0.0596975 1.81557e-17)
(-0.0494389 -0.0615466 1.63279e-17)
(-0.0509908 -0.0634833 1.47986e-17)
(-0.0526175 -0.0655134 1.29448e-17)
(-0.0543241 -0.0676431 1.11808e-17)
(-0.0561158 -0.0698793 9.93745e-18)
(-0.0579987 -0.0722292 9.15357e-18)
(-0.0599789 -0.0747007 8.2477e-18)
(-0.0620634 -0.0773024 7.16823e-18)
(-0.0642597 -0.0800437 6.27425e-18)
(-0.0665758 -0.0829345 5.85645e-18)
(-0.0690204 -0.085986 5.79299e-18)
(-0.0716032 -0.0892098 5.65469e-18)
(-0.0743344 -0.092619 5.09328e-18)
(-0.0772253 -0.0962276 3.42645e-18)
(-0.0802879 -0.100051 8.7166e-19)
(-0.0835355 -0.104105 -1.04788e-18)
(-0.0869823 -0.108407 -2.78822e-18)
(-0.0906436 -0.112978 -5.66373e-18)
(-0.0945361 -0.117837 -8.67661e-18)
(-0.0986774 -0.123007 -1.09671e-17)
(-0.103087 -0.128512 -1.19225e-17)
(-0.107784 -0.134376 -1.19611e-17)
(-0.112791 -0.140627 -1.16543e-17)
(-0.11813 -0.147293 -1.02273e-17)
(-0.123825 -0.154403 -9.58634e-18)
(-0.129899 -0.161986 -9.73207e-18)
(-0.136376 -0.170072 -9.03987e-18)
(-0.143281 -0.178694 -8.4308e-18)
(-0.150643 -0.187886 -7.64181e-18)
(-0.158515 -0.197715 -6.01594e-18)
(-0.167083 -0.208412 -4.82018e-18)
(-0.176535 -0.220215 -5.15138e-18)
(-0.186808 -0.233042 -4.92165e-18)
(-0.197781 -0.246743 -2.48313e-18)
(-0.209411 -0.261264 1.28687e-19)
(-0.221614 -0.276501 2.29749e-18)
(-0.234247 -0.292276 6.3453e-18)
(-0.247096 -0.308319 1.083e-17)
(-0.259869 -0.324269 1.30368e-17)
(-0.272209 -0.339679 1.44937e-17)
(-0.283726 -0.354062 1.54553e-17)
(-0.294049 -0.366955 1.60922e-17)
(-0.302891 -0.377999 1.58658e-17)
(-0.3101 -0.387004 1.31021e-17)
(-0.315686 -0.393984 7.70285e-18)
(-0.319805 -0.399131 -1.40646e-18)
(-0.322711 -0.402765 -1.09873e-17)
(-0.324697 -0.405251 -1.97864e-17)
(-0.326043 -0.406936 -2.95475e-17)
(-0.32698 -0.40811 -3.83917e-17)
(-0.327678 -0.408987 -4.64903e-17)
(-0.328252 -0.409708 -5.12884e-17)
(-0.328767 -0.410356 -4.89964e-17)
(-0.329257 -0.410973 8.30438e-17)
(-0.329736 -0.411575 1.01612e-16)
(-0.0177199 -0.0234198 7.52492e-18)
(-0.0180836 -0.0239041 1.05678e-17)
(-0.0184569 -0.0244011 1.08514e-17)
(-0.0188401 -0.0249114 9.64166e-18)
(-0.0192337 -0.0254355 9.04108e-18)
(-0.0196388 -0.0259749 8.92459e-18)
(-0.0200586 -0.0265337 8.91145e-18)
(-0.0204955 -0.0271149 8.77046e-18)
(-0.0209483 -0.0277172 8.63667e-18)
(-0.0214152 -0.0283383 8.25291e-18)
(-0.0218955 -0.0289772 7.18582e-18)
(-0.0223893 -0.0296341 6.23994e-18)
(-0.0228969 -0.0303093 5.72374e-18)
(-0.0234188 -0.0310038 5.21935e-18)
(-0.0239559 -0.0317184 4.38628e-18)
(-0.024509 -0.0324543 3.24328e-18)
(-0.0250788 -0.0332125 2.16484e-18)
(-0.0256663 -0.0339943 1.13893e-18)
(-0.0262724 -0.0348009 -1.33997e-19)
(-0.0268981 -0.0356337 -1.49353e-18)
(-0.0275444 -0.0364939 -2.25745e-18)
(-0.0282125 -0.0373832 -2.80195e-18)
(-0.0289035 -0.0383029 -3.63054e-18)
(-0.0296185 -0.0392547 -4.87888e-18)
(-0.0303589 -0.0402403 -5.98035e-18)
(-0.0311261 -0.0412615 -6.6703e-18)
(-0.0319214 -0.0423202 -6.75014e-18)
(-0.0327464 -0.0434185 -5.81926e-18)
(-0.0336028 -0.0445585 -3.79064e-18)
(-0.0344922 -0.0457425 -1.19692e-18)
(-0.0354165 -0.0469731 1.40009e-18)
(-0.0363777 -0.0482528 4.70473e-18)
(-0.0373779 -0.0495845 8.52555e-18)
(-0.0384194 -0.0509712 1.23556e-17)
(-0.0395047 -0.0524161 1.64069e-17)
(-0.0406363 -0.0539228 1.9926e-17)
(-0.041817 -0.055495 2.27259e-17)
(-0.0430499 -0.0571366 2.51921e-17)
(-0.0443383 -0.0588521 2.66595e-17)
(-0.0456855 -0.0606461 2.78257e-17)
(-0.0470955 -0.0625237 2.8655e-17)
(-0.0485723 -0.0644902 2.95245e-17)
(-0.0501202 -0.0665515 3.07037e-17)
(-0.0517441 -0.0687141 3.11843e-17)
(-0.0534491 -0.0709847 3.09952e-17)
(-0.0552409 -0.0733708 3.05427e-17)
(-0.0571253 -0.0758804 3.05392e-17)
(-0.059109 -0.0785223 3.16673e-17)
(-0.0611992 -0.081306 3.41945e-17)
(-0.0634034 -0.0842417 3.72835e-17)
(-0.0657302 -0.0873406 4.00179e-17)
(-0.0681885 -0.0906148 4.2955e-17)
(-0.0707883 -0.0940775 4.60054e-17)
(-0.0735402 -0.0977429 4.91049e-17)
(-0.0764559 -0.101626 5.15252e-17)
(-0.0795481 -0.105745 5.35738e-17)
(-0.0828302 -0.110117 5.52903e-17)
(-0.0863172 -0.114762 5.5924e-17)
(-0.0900248 -0.1197 5.67394e-17)
(-0.0939702 -0.124956 5.7542e-17)
(-0.0981717 -0.130552 5.79639e-17)
(-0.102649 -0.136516 5.89501e-17)
(-0.107422 -0.142875 5.99342e-17)
(-0.112514 -0.149658 6.08515e-17)
(-0.117946 -0.156894 6.24843e-17)
(-0.123742 -0.164616 6.37297e-17)
(-0.129926 -0.172853 6.47845e-17)
(-0.136521 -0.181639 6.60641e-17)
(-0.143555 -0.191011 6.52912e-17)
(-0.151077 -0.201032 6.30554e-17)
(-0.159245 -0.211916 6.00359e-17)
(-0.168243 -0.223906 5.79319e-17)
(-0.178049 -0.23697 5.72725e-17)
(-0.188554 -0.250966 5.48895e-17)
(-0.199704 -0.265822 5.14372e-17)
(-0.211424 -0.281436 4.62206e-17)
(-0.223581 -0.297634 4.05837e-17)
(-0.235974 -0.314146 3.37477e-17)
(-0.248325 -0.330604 2.42079e-17)
(-0.260293 -0.346552 1.27956e-17)
(-0.271498 -0.361483 -2.04837e-18)
(-0.281573 -0.37491 -1.85047e-17)
(-0.290227 -0.386446 -3.88883e-17)
(-0.297302 -0.395878 -6.4463e-17)
(-0.302796 -0.403205 -9.41903e-17)
(-0.306852 -0.408616 -1.29069e-16)
(-0.309715 -0.412437 -1.65823e-16)
(-0.31167 -0.415049 -2.05689e-16)
(-0.31299 -0.416816 -2.49925e-16)
(-0.313905 -0.418043 -2.9576e-16)
(-0.314585 -0.418955 -3.42342e-16)
(-0.31514 -0.419702 -3.88016e-16)
(-0.315638 -0.420372 -4.30192e-16)
(-0.316111 -0.42101 -1.27439e-16)
(-0.316573 -0.421632 -1.27077e-16)
(-0.0168605 -0.0237716 2.46667e-18)
(-0.0172061 -0.0242634 4.66145e-18)
(-0.0175608 -0.0247681 5.29601e-18)
(-0.017925 -0.0252862 5.53046e-18)
(-0.018299 -0.0258182 5.63864e-18)
(-0.0186833 -0.0263649 5.40487e-18)
(-0.0190802 -0.0269295 5.26179e-18)
(-0.0194932 -0.0275167 4.87389e-18)
(-0.0199223 -0.0281267 4.27201e-18)
(-0.0203656 -0.0287567 3.12347e-18)
(-0.0208221 -0.0294054 1.75609e-18)
(-0.0212915 -0.0300725 8.06869e-19)
(-0.021774 -0.0307584 -4.54844e-19)
(-0.0222703 -0.0314637 -2.57732e-18)
(-0.0227808 -0.0321895 -4.72965e-18)
(-0.0233065 -0.0329368 -6.29016e-18)
(-0.023848 -0.0337067 -7.94751e-18)
(-0.0244063 -0.0345004 -1.01735e-17)
(-0.0249822 -0.0353192 -1.25461e-17)
(-0.0255766 -0.0361645 -1.48831e-17)
(-0.0261907 -0.0370376 -1.70425e-17)
(-0.0268253 -0.0379401 -1.87433e-17)
(-0.0274816 -0.0388734 -1.99829e-17)
(-0.0281607 -0.0398392 -2.11987e-17)
(-0.0288639 -0.0408392 -2.21147e-17)
(-0.0295925 -0.0418754 -2.31551e-17)
(-0.0303477 -0.0429495 -2.44256e-17)
(-0.0311311 -0.0440637 -2.50691e-17)
(-0.0319443 -0.0452202 -2.48382e-17)
(-0.0327888 -0.0464214 -2.4601e-17)
(-0.0336664 -0.0476697 -2.53415e-17)
(-0.034579 -0.0489678 -2.61198e-17)
(-0.0355286 -0.0503185 -2.66239e-17)
(-0.0365175 -0.0517251 -2.67166e-17)
(-0.0375478 -0.0531906 -2.65465e-17)
(-0.038622 -0.0547188 -2.65338e-17)
(-0.039743 -0.0563133 -2.56748e-17)
(-0.0409134 -0.0579783 -2.32409e-17)
(-0.0421364 -0.0597182 -2.0108e-17)
(-0.0434154 -0.0615376 -1.68868e-17)
(-0.0447539 -0.0634417 -1.37292e-17)
(-0.0461558 -0.0654361 -1.11123e-17)
(-0.0476252 -0.0675267 -8.52132e-18)
(-0.0491668 -0.0697198 -6.05911e-18)
(-0.0507854 -0.0720226 -3.78148e-18)
(-0.0524862 -0.0744425 -2.09701e-18)
(-0.0542752 -0.0769877 -2.15971e-19)
(-0.0561585 -0.0796672 1.58323e-18)
(-0.0581428 -0.0824905 2.98719e-18)
(-0.0602355 -0.0854681 4.38028e-18)
(-0.0624446 -0.0886113 5.48811e-18)
(-0.0647788 -0.0919325 6.79189e-18)
(-0.0672474 -0.0954451 7.78904e-18)
(-0.0698607 -0.0991635 8.78369e-18)
(-0.0726298 -0.103104 9.87127e-18)
(-0.0755667 -0.107283 1.04699e-17)
(-0.0786844 -0.111719 1.0992e-17)
(-0.0819971 -0.116433 1.15243e-17)
(-0.08552 -0.121446 1.22915e-17)
(-0.0892694 -0.126781 1.34753e-17)
(-0.0932629 -0.132464 1.3534e-17)
(-0.0975194 -0.138522 1.18568e-17)
(-0.102059 -0.144982 9.97398e-18)
(-0.106902 -0.151874 8.47523e-18)
(-0.112071 -0.15923 7.32989e-18)
(-0.117588 -0.167081 7.47175e-18)
(-0.123476 -0.175461 8.541e-18)
(-0.129759 -0.184402 9.41559e-18)
(-0.136462 -0.193943 9.74867e-18)
(-0.14363 -0.204145 1.08904e-17)
(-0.151398 -0.215203 1.26469e-17)
(-0.159943 -0.227367 1.50492e-17)
(-0.169279 -0.240653 1.88277e-17)
(-0.179308 -0.254927 2.23656e-17)
(-0.189968 -0.2701 2.66777e-17)
(-0.20119 -0.286073 3.09629e-17)
(-0.212853 -0.302674 3.46308e-17)
(-0.224768 -0.319635 3.86544e-17)
(-0.236674 -0.336583 4.17946e-17)
(-0.248242 -0.353051 4.34178e-17)
(-0.259105 -0.368516 4.31182e-17)
(-0.268902 -0.382466 4.09568e-17)
(-0.277342 -0.394487 3.59243e-17)
(-0.28426 -0.404341 2.94424e-17)
(-0.289643 -0.412012 1.95003e-17)
(-0.293622 -0.417686 6.39042e-18)
(-0.296432 -0.421694 -1.12096e-17)
(-0.298348 -0.424432 -3.31081e-17)
(-0.29964 -0.42628 -5.47939e-17)
(-0.300531 -0.427559 -7.76648e-17)
(-0.301189 -0.428505 -1.01127e-16)
(-0.301726 -0.429278 -1.25905e-16)
(-0.302205 -0.42997 -1.54795e-16)
(-0.30266 -0.430627 1.58861e-16)
(-0.303105 -0.431269 1.78406e-16)
(-0.015999 -0.0241031 -3.79583e-18)
(-0.0163266 -0.0246018 -5.42166e-18)
(-0.0166628 -0.0251136 -7.45901e-18)
(-0.0170079 -0.025639 -9.24798e-18)
(-0.0173623 -0.0261786 -1.04059e-17)
(-0.0177264 -0.0267328 -1.10152e-17)
(-0.0181015 -0.027304 -1.15324e-17)
(-0.0184907 -0.0278961 -1.17951e-17)
(-0.0188956 -0.028512 -1.16863e-17)
(-0.0193151 -0.0291499 -1.1651e-17)
(-0.0197476 -0.0298076 -1.13398e-17)
(-0.0201926 -0.0304843 -1.13034e-17)
(-0.0206502 -0.0311802 -1.19392e-17)
(-0.0211207 -0.0318959 -1.23947e-17)
(-0.0216048 -0.0326322 -1.22768e-17)
(-0.0221031 -0.0333902 -1.1921e-17)
(-0.0226164 -0.0341711 -1.13629e-17)
(-0.0231455 -0.034976 -1.03858e-17)
(-0.0236912 -0.0358063 -9.57277e-18)
(-0.0242545 -0.0366633 -8.59718e-18)
(-0.0248363 -0.0375485 -7.33566e-18)
(-0.0254375 -0.0384634 -6.0079e-18)
(-0.0260593 -0.0394094 -4.61034e-18)
(-0.0267026 -0.0403883 -3.52123e-18)
(-0.0273687 -0.0414019 -2.49332e-18)
(-0.0280587 -0.042452 -2.0346e-18)
(-0.028774 -0.0435406 -1.51568e-18)
(-0.029516 -0.0446697 -9.83906e-19)
(-0.0302861 -0.0458417 -1.06509e-18)
(-0.0310858 -0.0470588 -1.81621e-18)
(-0.0319169 -0.0483236 -3.16084e-18)
(-0.0327811 -0.0496389 -4.64636e-18)
(-0.0336804 -0.0510075 -6.21962e-18)
(-0.0346167 -0.0524325 -8.30646e-18)
(-0.0355923 -0.0539174 -1.06206e-17)
(-0.0366094 -0.0554656 -1.28825e-17)
(-0.0376708 -0.057081 -1.4527e-17)
(-0.038779 -0.0587677 -1.53753e-17)
(-0.039937 -0.0605303 -1.62559e-17)
(-0.0411479 -0.0623735 -1.75529e-17)
(-0.0424152 -0.0643024 -1.80602e-17)
(-0.0437424 -0.0663228 -1.81167e-17)
(-0.0451337 -0.0684405 -1.78188e-17)
(-0.0465932 -0.0706622 -1.69867e-17)
(-0.0481257 -0.0729949 -1.57051e-17)
(-0.0497361 -0.0754463 -1.41573e-17)
(-0.0514299 -0.0780248 -1.2707e-17)
(-0.053213 -0.0807392 -1.20716e-17)
(-0.0550919 -0.0835993 -1.19353e-17)
(-0.0570735 -0.0866159 -1.23616e-17)
(-0.0591654 -0.0898004 -1.25528e-17)
(-0.0613758 -0.0931654 -1.30239e-17)
(-0.0637136 -0.0967245 -1.41694e-17)
(-0.0661887 -0.100492 -1.49704e-17)
(-0.0688114 -0.104485 -1.53417e-17)
(-0.0715934 -0.108721 -1.58997e-17)
(-0.074547 -0.113217 -1.61418e-17)
(-0.0776856 -0.117996 -1.545e-17)
(-0.0810238 -0.123078 -1.43774e-17)
(-0.0845772 -0.128488 -1.45212e-17)
(-0.0883628 -0.134252 -1.46955e-17)
(-0.0923984 -0.140396 -1.4045e-17)
(-0.0967031 -0.14695 -1.33785e-17)
(-0.101297 -0.153945 -1.35912e-17)
(-0.106202 -0.161413 -1.47983e-17)
(-0.111438 -0.169386 -1.57191e-17)
(-0.117029 -0.177899 -1.54091e-17)
(-0.122997 -0.186987 -1.44851e-17)
(-0.129367 -0.196687 -1.21015e-17)
(-0.136179 -0.207059 -8.39903e-18)
(-0.143546 -0.218279 -4.00013e-18)
(-0.151639 -0.230603 1.62538e-18)
(-0.160501 -0.244098 7.24298e-18)
(-0.170047 -0.258635 1.36819e-17)
(-0.180208 -0.274107 2.17532e-17)
(-0.19092 -0.29042 2.94809e-17)
(-0.202072 -0.307404 3.88629e-17)
(-0.21349 -0.324794 4.93235e-17)
(-0.224926 -0.342212 5.74245e-17)
(-0.236068 -0.359182 6.53458e-17)
(-0.246559 -0.375165 7.20419e-17)
(-0.25605 -0.389625 7.45419e-17)
(-0.26425 -0.40212 7.53362e-17)
(-0.270987 -0.412391 7.28582e-17)
(-0.276241 -0.420402 6.80937e-17)
(-0.28013 -0.426336 6.00645e-17)
(-0.282876 -0.43053 4.73426e-17)
(-0.284747 -0.433393 3.32198e-17)
(-0.286006 -0.435322 1.94656e-17)
(-0.286871 -0.436652 4.97182e-18)
(-0.287507 -0.437632 -1.04435e-17)
(-0.288023 -0.43843 -2.68328e-17)
(-0.288483 -0.439143 -4.52472e-17)
(-0.288919 -0.439819 2.66304e-16)
(-0.289345 -0.44048 2.95439e-16)
(-0.0151361 -0.0244146 -8.29925e-18)
(-0.0154457 -0.0249199 -9.99479e-18)
(-0.0157633 -0.0254384 -1.0829e-17)
(-0.0160895 -0.0259707 -1.16722e-17)
(-0.0164244 -0.0265172 -1.26582e-17)
(-0.0167684 -0.0270787 -1.38289e-17)
(-0.0171221 -0.0276559 -1.5422e-17)
(-0.0174878 -0.0282527 -1.72929e-17)
(-0.0178688 -0.028874 -1.93209e-17)
(-0.0182645 -0.0295191 -2.16992e-17)
(-0.0186729 -0.030185 -2.38768e-17)
(-0.0190935 -0.0308706 -2.56574e-17)
(-0.019526 -0.0315758 -2.72618e-17)
(-0.0199708 -0.0323011 -2.86646e-17)
(-0.0204284 -0.0330472 -2.98291e-17)
(-0.0208994 -0.0338153 -3.06677e-17)
(-0.0213845 -0.0346064 -3.11615e-17)
(-0.0218845 -0.0354219 -3.14216e-17)
(-0.0224002 -0.0362629 -3.17391e-17)
(-0.0229324 -0.0371309 -3.15307e-17)
(-0.023482 -0.0380274 -3.09913e-17)
(-0.0240499 -0.0389538 -3.02762e-17)
(-0.0246372 -0.0399118 -2.98193e-17)
(-0.0252448 -0.040903 -2.95703e-17)
(-0.0258739 -0.0419292 -2.95133e-17)
(-0.0265256 -0.0429924 -2.92488e-17)
(-0.0272011 -0.0440944 -2.82426e-17)
(-0.0279018 -0.0452375 -2.77339e-17)
(-0.028629 -0.0464238 -2.78619e-17)
(-0.0293841 -0.0476558 -2.80589e-17)
(-0.0301689 -0.0489361 -2.77332e-17)
(-0.0309848 -0.0502673 -2.70013e-17)
(-0.0318339 -0.0516525 -2.6492e-17)
(-0.0327179 -0.0530948 -2.58931e-17)
(-0.033639 -0.0545976 -2.46078e-17)
(-0.0345993 -0.0561645 -2.3999e-17)
(-0.0356013 -0.0577993 -2.38321e-17)