/*--------------------------------*- C++ -*----------------------------------*\
  =========                 |
  \\      /  F ield         | OpenFOAM: The Open Source CFD Toolbox
   \\    /   O peration     | Website:  https://openfoam.org
    \\  /    A nd           | Version:  7
     \\/     M anipulation  |
\*---------------------------------------------------------------------------*/
FoamFile
{
    version     2.0;
    format      ascii;
    class       volScalarField;
    location    "140000";
    object      strainRate;
}
// * * * * * * * * * * * * * * * * * * * * * * * * * * * * * * * * * * * * * //

dimensions      [0 0 -1 0 0 0 0];

internalField   nonuniform List<scalar> 
4814
(
0.0831581
0.0827878
0.0824545
0.0821582
0.0952357
0.0943214
0.0934596
0.0926327
0.0918408
0.0910846
0.0903645
0.0896809
0.0890341
0.0884244
0.087852
0.0873171
0.0868196
0.0863599
0.0859382
0.0855546
0.0852094
0.0849024
0.0846338
0.0844036
0.0842117
0.0840582
0.0839431
0.0838663
0.0838279
0.0838279
0.0838663
0.0839431
0.0840582
0.0842117
0.0844036
0.0846338
0.0849024
0.0852094
0.0984964
0.0975495
0.0966564
0.0957997
0.0949792
0.0941957
0.0934495
0.0927411
0.0920709
0.091439
0.0908458
0.0902914
0.0897759
0.0892994
0.0888624
0.0884649
0.0881071
0.0877889
0.0875106
0.087272
0.0870731
0.086914
0.0867947
0.0867151
0.0866754
0.0866754
0.0867151
0.0867947
0.086914
0.0870731
0.087272
0.0875106
0.0877889
0.0881071
0.0884649
0.0888624
0.0892994
0.0897759
0.0902914
0.0908458
0.091439
0.101929
0.100947
0.100021
0.0991334
0.098283
0.0974707
0.0966972
0.0959628
0.0952678
0.0946127
0.0939977
0.0934228
0.0928883
0.0923942
0.091941
0.0915289
0.0911579
0.090828
0.0905393
0.0902919
0.0900857
0.0899207
0.089797
0.0897145
0.0896733
0.0896733
0.0897145
0.089797
0.0899207
0.0900857
0.0902919
0.0905393
0.090828
0.0911579
0.0915289
0.091941
0.0923942
0.0928883
0.0934228
0.0939977
0.0946127
0.0952678
0.0959628
0.0966972
0.105544
0.104527
0.103567
0.102646
0.101764
0.100922
0.100119
0.0993575
0.0986367
0.097957
0.097319
0.0967227
0.0961681
0.0956556
0.0951854
0.0947578
0.0943729
0.0940307
0.0937312
0.0934745
0.0932606
0.0930894
0.092961
0.0928755
0.0928327
0.0928327
0.0928755
0.092961
0.0930894
0.0932606
0.0934745
0.0937312
0.0940307
0.0943729
0.0947578
0.0951854
0.0956556
0.0961681
0.0967227
0.097319
0.097957
0.0986367
0.0993575
0.100119
0.109357
0.108302
0.107306
0.10635
0.105435
0.104561
0.103728
0.102938
0.10219
0.101485
0.100822
0.100203
0.0996278
0.0990957
0.0986077
0.0981639
0.0977643
0.0974091
0.0970983
0.0968318
0.0966097
0.096432
0.0962988
0.0962099
0.0961655
0.0961655
0.0962099
0.0962988
0.096432
0.0966097
0.0968318
0.0970983
0.0974091
0.0977643
0.0981639
0.0986077
0.0990957
0.0996277
0.100203
0.100822
0.101485
0.10219
0.102938
0.103728
0.11338
0.112286
0.111252
0.11026
0.10931
0.108403
0.107539
0.106718
0.105941
0.105209
0.104521
0.103878
0.103281
0.102728
0.102221
0.10176
0.101345
0.100976
0.100654
0.100377
0.100146
0.0999617
0.0998233
0.099731
0.0996849
0.0996849
0.099731
0.0998233
0.0999617
0.100146
0.100377
0.100654
0.100976
0.101345
0.10176
0.102221
0.102728
0.103281
0.103878
0.104521
0.105209
0.105941
0.106718
0.107539
0.11763
0.116494
0.11542
0.114391
0.113405
0.112462
0.111565
0.110712
0.109905
0.109144
0.10843
0.107762
0.107141
0.106567
0.10604
0.105562
0.10513
0.104747
0.104412
0.104124
0.103884
0.103693
0.103549
0.103453
0.103405
0.103405
0.103453
0.103549
0.103693
0.103884
0.104124
0.104412
0.104747
0.10513
0.105562
0.10604
0.106567
0.107141
0.107762
0.10843
0.109144
0.109905
0.110712
0.111565
0.112462
0.122124
0.120944
0.119829
0.118759
0.117734
0.116755
0.115823
0.114937
0.114098
0.113308
0.112565
0.111871
0.111225
0.110629
0.110081
0.109583
0.109135
0.108737
0.108388
0.108089
0.10784
0.10764
0.107491
0.107391
0.107341
0.107341
0.107391
0.107491
0.10764
0.10784
0.108089
0.108388
0.108737
0.109135
0.109583
0.110081
0.110629
0.111225
0.111871
0.112565
0.113308
0.114098
0.114937
0.115823
0.116755
0.126878
0.125653
0.124494
0.123383
0.122318
0.1213
0.120331
0.11941
0.118538
0.117716
0.116944
0.116222
0.115551
0.11493
0.114361
0.113843
0.113377
0.112962
0.1126
0.112289
0.112029
0.111822
0.111666
0.111563
0.111511
0.111511
0.111563
0.111666
0.111822
0.112029
0.112289
0.1126
0.112962
0.113377
0.113843
0.114361
0.11493
0.115551
0.116222
0.116944
0.117716
0.118538
0.11941
0.120331
0.1213
0.131914
0.130641
0.129436
0.128281
0.127174
0.126116
0.125108
0.12415
0.123243
0.122388
0.121585
0.120834
0.120136
0.11949
0.118898
0.118359
0.117874
0.117443
0.117065
0.116741
0.116472
0.116256
0.116094
0.115986
0.115932
0.115932
0.115986
0.116094
0.116256
0.116472
0.116741
0.117065
0.117443
0.117874
0.118359
0.118898
0.11949
0.120136
0.120834
0.121585
0.122388
0.123243
0.12415
0.125108
0.126116
0.137252
0.135929
0.134677
0.133476
0.132324
0.131224
0.130175
0.129179
0.128235
0.127345
0.126509
0.125728
0.125001
0.124329
0.123712
0.123152
0.122647
0.122198
0.121805
0.121468
0.121187
0.120962
0.120794
0.120681
0.120625
0.120625
0.120681
0.120794
0.120962
0.121187
0.121468
0.121805
0.122198
0.122647
0.123152
0.123712
0.124329
0.125001
0.125728
0.126509
0.127345
0.128235
0.129179
0.130175
0.142915
0.14154
0.140238
0.138989
0.137791
0.136646
0.135555
0.134518
0.133536
0.13261
0.13174
0.130926
0.130169
0.129469
0.128827
0.128243
0.127718
0.12725
0.126841
0.12649
0.126197
0.125963
0.125788
0.125671
0.125612
0.125612
0.125671
0.125788
0.125963
0.126197
0.12649
0.126841
0.12725
0.127718
0.128243
0.128827
0.129469
0.130169
0.130926
0.13174
0.13261
0.133536
0.134518
0.135555
0.148928
0.147498
0.146144
0.144845
0.143599
0.142408
0.141272
0.140193
0.13917
0.138206
0.1373
0.136453
0.135664
0.134935
0.134267
0.133658
0.133111
0.132623
0.132197
0.131831
0.131527
0.131283
0.1311
0.130978
0.130917
0.130917
0.130978
0.1311
0.131283
0.131527
0.131831
0.132197
0.132623
0.133111
0.133658
0.134267
0.134935
0.135664
0.136453
0.1373
0.138206
0.13917
0.140193
0.141272
0.155317
0.15383
0.152422
0.151071
0.149774
0.148535
0.147353
0.146229
0.145164
0.14416
0.143216
0.142334
0.141513
0.140753
0.140057
0.139423
0.138852
0.138344
0.1379
0.137519
0.137201
0.136947
0.136756
0.136629
0.136566
0.136566
0.136629
0.136756
0.136947
0.137201
0.137519
0.1379
0.138344
0.138852
0.139423
0.140057
0.140753
0.141513
0.142334
0.143216
0.14416
0.145164
0.146229
0.147353
0.16211
0.160565
0.1591
0.157695
0.156346
0.155056
0.153825
0.152655
0.151547
0.150501
0.149518
0.148598
0.147743
0.146952
0.146226
0.145565
0.14497
0.144441
0.143978
0.14358
0.143249
0.142984
0.142786
0.142653
0.142587
0.142587
0.142653
0.142786
0.142984
0.143249
0.14358
0.143978
0.144441
0.14497
0.145565
0.146226
0.146952
0.147743
0.148598
0.149518
0.150501
0.151547
0.152655
0.153825
0.169338
0.167732
0.166209
0.164748
0.163344
0.162002
0.160721
0.159503
0.158349
0.157259
0.156235
0.155277
0.154386
0.153561
0.152805
0.152116
0.151496
0.150944
0.150461
0.150047
0.149702
0.149426
0.149218
0.14908
0.149011
0.149011
0.14908
0.149218
0.149426
0.149702
0.150047
0.150461
0.150944
0.151496
0.152116
0.152805
0.153561
0.154386
0.155277
0.156235
0.157259
0.158349
0.159503
0.160721
0.177032
0.175364
0.173781
0.172262
0.170802
0.169405
0.168072
0.166804
0.165602
0.164467
0.163401
0.162403
0.161474
0.160615
0.159827
0.159109
0.158463
0.157888
0.157384
0.156953
0.156593
0.156304
0.156088
0.155944
0.155872
0.155872
0.155944
0.156088
0.156304
0.156593
0.156953
0.157384
0.157888
0.158463
0.159109
0.159827
0.160615
0.161474
0.162403
0.163401
0.164467
0.165602
0.166804
0.168072
0.185226
0.183494
0.18185
0.180271
0.178753
0.1773
0.175913
0.174594
0.173343
0.172162
0.171051
0.170012
0.169044
0.168149
0.167328
0.16658
0.165906
0.165307
0.164782
0.164332
0.163957
0.163656
0.163431
0.163281
0.163206
0.163206
0.163281
0.163431
0.163656
0.163957
0.164332
0.164782
0.165307
0.165906
0.16658
0.167328
0.168149
0.169044
0.170012
0.171051
0.172162
0.173343
0.174594
0.175913
0.193956
0.192158
0.190451
0.188811
0.187234
0.185724
0.184282
0.18291
0.181608
0.180379
0.179223
0.178141
0.177134
0.176201
0.175346
0.174567
0.173865
0.17324
0.172693
0.172224
0.171833
0.17152
0.171285
0.171128
0.17105
0.17105
0.171128
0.171285
0.17152
0.171833
0.172224
0.172693
0.17324
0.173865
0.174567
0.175346
0.176201
0.177134
0.178141
0.179223
0.180379
0.181608
0.18291
0.184282
0.203255
0.201392
0.199622
0.19792
0.196282
0.194714
0.193216
0.19179
0.190437
0.189158
0.187956
0.18683
0.185782
0.184812
0.183921
0.18311
0.182379
0.181729
0.181159
0.18067
0.180262
0.179936
0.179691
0.179528
0.179447
0.179447
0.179528
0.179691
0.179936
0.180262
0.18067
0.181159
0.181729
0.182379
0.18311
0.183921
0.184812
0.185782
0.18683
0.187956
0.189158
0.190437
0.19179
0.193216
0.213162
0.211233
0.209399
0.207635
0.205937
0.20431
0.202755
0.201274
0.199869
0.198541
0.197291
0.196121
0.195031
0.194022
0.193095
0.192252
0.191491
0.190814
0.190221
0.189712
0.189288
0.188948
0.188693
0.188523
0.188438
0.188438
0.188523
0.188693
0.188948
0.189288
0.189712
0.190221
0.190814
0.191491
0.192252
0.193095
0.194022
0.195031
0.196121
0.197291
0.198541
0.199869
0.201274
0.202755
0.20431
0.223714
0.221719
0.219822
0.217996
0.216237
0.214551
0.21294
0.211404
0.209947
0.208568
0.207271
0.206056
0.204924
0.203876
0.202913
0.202036
0.201245
0.200542
0.199925
0.199396
0.198955
0.198601
0.198336
0.198159
0.198071
0.198071
0.198159
0.198336
0.198601
0.198955
0.199396
0.199925
0.200542
0.201245
0.202036
0.202913
0.203876
0.204924
0.206056
0.207271
0.208568
0.209947
0.211404
0.21294
0.214551
0.234949
0.23289
0.230929
0.229041
0.227223
0.225479
0.223811
0.222222
0.220712
0.219283
0.217939
0.216679
0.215505
0.214417
0.213418
0.212508
0.211688
0.210957
0.210316
0.209767
0.209308
0.208941
0.208666
0.208482
0.20839
0.20839
0.208482
0.208666
0.208941
0.209308
0.209767
0.210316
0.210957
0.211688
0.212508
0.213418
0.214417
0.215505
0.216679
0.217939
0.219283
0.220712
0.222222
0.223811
0.225479
0.24693
0.244802
0.242773
0.240818
0.23894
0.237139
0.235416
0.233772
0.23221
0.230732
0.229339
0.228035
0.226819
0.225693
0.224658
0.223715
0.222864
0.222107
0.221443
0.220873
0.220397
0.220016
0.219731
0.21954
0.219445
0.219445
0.21954
0.219731
0.220016
0.220397
0.220873
0.221443
0.222107
0.222864
0.223715
0.224658
0.225693
0.226819
0.228035
0.229339
0.230732
0.23221
0.233772
0.235416
0.237139
0.259825
0.257594
0.255464
0.253411
0.25147
0.249607
0.247824
0.246122
0.244505
0.242973
0.241529
0.240177
0.238918
0.237753
0.236683
0.235707
0.234827
0.234043
0.233355
0.232765
0.232272
0.231878
0.231582
0.231384
0.231286
0.231286
0.231384
0.231582
0.231878
0.232272
0.232765
0.233355
0.234043
0.234827
0.235707
0.236683
0.237753
0.238918
0.240177
0.241529
0.242973
0.244505
0.246122
0.247824
0.273928
0.271562
0.269298
0.267116
0.265078
0.263121
0.261247
0.259458
0.257756
0.256145
0.254627
0.253204
0.251892
0.250687
0.249578
0.248568
0.247656
0.246843
0.246131
0.245519
0.245008
0.244599
0.244292
0.244087
0.243985
0.243985
0.244087
0.244292
0.244599
0.245008
0.245519
0.246131
0.246843
0.247656
0.248568
0.249578
0.250687
0.251892
0.253204
0.254627
0.256145
0.257756
0.259458
0.261247
0.289367
0.286894
0.284524
0.282237
0.280068
0.277986
0.275991
0.274086
0.272275
0.270561
0.268944
0.267429
0.266043
0.264775
0.263609
0.262546
0.261586
0.260731
0.259981
0.259337
0.258799
0.258369
0.258045
0.25783
0.257722
0.257722
0.25783
0.258045
0.258369
0.258799
0.259337
0.259981
0.260731
0.261586
0.262546
0.263609
0.264775
0.266043
0.267429
0.268944
0.270561
0.272275
0.274086
0.275991
0.306004
0.303464
0.301026
0.29867
0.296403
0.294223
0.292135
0.29014
0.288242
0.286445
0.28475
0.28316
0.281692
0.280342
0.279099
0.277966
0.276944
0.276032
0.275233
0.274546
0.273973
0.273515
0.27317
0.27294
0.272825
0.272825
0.27294
0.27317
0.273515
0.273973
0.274546
0.275233
0.276032
0.276944
0.277966
0.279099
0.280342
0.281692
0.28316
0.28475
0.286445
0.288242
0.29014
0.292135
0.323701
0.321116
0.31863
0.316224
0.313902
0.311668
0.309525
0.307477
0.305526
0.303676
0.30193
0.300292
0.298765
0.297352
0.296051
0.294864
0.293792
0.292837
0.291999
0.291279
0.290679
0.290197
0.289836
0.289595
0.289474
0.289474
0.289595
0.289836
0.290197
0.290679
0.291279
0.291999
0.292837
0.293792
0.294864
0.296051
0.297352
0.298765
0.300292
0.30193
0.303676
0.305526
0.307477
0.309525
0.342369
0.339766
0.337259
0.334827
0.332476
0.330211
0.328035
0.325952
0.323966
0.322081
0.3203
0.318628
0.317067
0.315619
0.314286
0.313069
0.311969
0.310988
0.310128
0.309388
0.308771
0.308276
0.307904
0.307656
0.307532
0.307532
0.307656
0.307904
0.308276
0.308771
0.309388
0.310128
0.310988
0.311969
0.313069
0.314286
0.315619
0.317066
0.318628
0.3203
0.322081
0.323966
0.325952
0.328035
0.361849
0.359266
0.356772
0.354347
0.351999
0.349732
0.34755
0.345458
0.343462
0.341564
0.339769
0.338081
0.336504
0.335039
0.333689
0.332455
0.33134
0.330345
0.329471
0.32872
0.328092
0.327589
0.327211
0.326959
0.326833
0.326833
0.326959
0.327211
0.327589
0.328092
0.32872
0.329471
0.330345
0.33134
0.332455
0.333689
0.335039
0.336504
0.338081
0.339769
0.341564
0.343462
0.345458
0.34755
0.381885
0.379368
0.376931
0.374556
0.37225
0.370019
0.367868
0.365802
0.363827
0.361947
0.360166
0.358488
0.356918
0.355458
0.354111
0.352879
0.351764
0.350768
0.349893
0.349141
0.348512
0.348008
0.347629
0.347376
0.347249
0.347249
0.347376
0.347629
0.348008
0.348512
0.349141
0.349893
0.350768
0.351764
0.352879
0.354111
0.355458
0.356918
0.358488
0.360166
0.361947
0.363827
0.365802
0.367868
0.40211
0.399713
0.397385
0.39511
0.392894
0.390746
0.388669
0.386672
0.384758
0.382932
0.3812
0.379566
0.378034
0.376607
0.375289
0.374082
0.372988
0.372011
0.371151
0.370411
0.369792
0.369296
0.368923
0.368673
0.368549
0.368549
0.368673
0.368923
0.369296
0.369792
0.370411
0.371151
0.372011
0.372988
0.374082
0.375289
0.376607
0.378034
0.379566
0.3812
0.382932
0.384758
0.386672
0.388669
0.390746
0.422043
0.419824
0.417662
0.415542
0.413471
0.411456
0.409505
0.407623
0.405816
0.404089
0.402448
0.400896
0.399438
0.398078
0.396819
0.395665
0.394618
0.393681
0.392857
0.392147
0.391552
0.391075
0.390716
0.390477
0.390357
0.390357
0.390477
0.390716
0.391075
0.391552
0.392147
0.392857
0.393681
0.394618
0.395665
0.396819
0.398078
0.399438
0.400896
0.402448
0.404089
0.405816
0.407623
0.409505
0.411456
0.441121
0.439136
0.437194
0.435283
0.433408
0.43158
0.429805
0.428088
0.426436
0.424854
0.423346
0.421918
0.420573
0.419316
0.41815
0.41708
0.416108
0.415238
0.41447
0.413809
0.413255
0.41281
0.412475
0.412251
0.412139
0.412139
0.412251
0.412475
0.41281
0.413255
0.413809
0.41447
0.415238
0.416108
0.41708
0.41815
0.419316
0.420573
0.421918
0.423346
0.424854
0.426436
0.428088
0.429805
0.43158
0.458752
0.457043
0.455365
0.453707
0.452074
0.450477
0.448922
0.447414
0.44596
0.444563
0.44323
0.441964
0.440769
0.439649
0.43861
0.437653
0.436784
0.436004
0.435316
0.434722
0.434224
0.433824
0.433522
0.433321
0.43322
0.43322
0.433321
0.433522
0.433824
0.434224
0.434722
0.435316
0.436004
0.436784
0.437653
0.43861
0.439649
0.440769
0.441964
0.44323
0.444563
0.44596
0.447414
0.448922
0.450477
0.452074
0.474398
0.47299
0.471601
0.470223
0.46886
0.467522
0.466216
0.464947
0.46372
0.46254
0.46141
0.460335
0.459318
0.458363
0.457474
0.456655
0.45591
0.45524
0.454649
0.454138
0.453709
0.453365
0.453105
0.452932
0.452845
0.452845
0.452932
0.453105
0.453365
0.453709
0.454138
0.454649
0.45524
0.45591
0.456655
0.457474
0.458363
0.459318
0.460335
0.46141
0.46254
0.46372
0.464947
0.466216
0.467522
0.46886
0.487673
0.486563
0.485464
0.484368
0.48328
0.482209
0.481161
0.48014
0.479151
0.478198
0.477285
0.476414
0.475587
0.474809
0.474084
0.473415
0.472805
0.472257
0.471772
0.471354
0.471002
0.470719
0.470505
0.470363
0.470291
0.470291
0.470363
0.470505
0.470719
0.471002
0.471353
0.471772
0.472257
0.472805
0.473415
0.474084
0.474809
0.475587
0.476414
0.477285
0.478198
0.479151
0.48014
0.481161
0.482209
0.48328
0.484368
0.498406
0.49757
0.496736
0.495902
0.495069
0.494248
0.493443
0.492658
0.491896
0.491161
0.490456
0.489782
0.489141
0.488537
0.487972
0.487452
0.486976
0.486549
0.48617
0.485843
0.485568
0.485347
0.48518
0.485069
0.485013
0.485013
0.485068
0.48518
0.485347
0.485568
0.485843
0.48617
0.486549
0.486976
0.487452
0.487972
0.488537
0.489141
0.489782
0.490456
0.491161
0.491896
0.492658
0.493443
0.494248
0.495069
0.495902
0.50667
0.506063
0.505453
0.504841
0.504225
0.503618
0.503022
0.50244
0.501876
0.501332
0.500809
0.500309
0.499833
0.499382
0.498961
0.498572
0.498218
0.497899
0.497616
0.497372
0.497166
0.497001
0.496877
0.496793
0.496751
0.496751
0.496793
0.496877
0.497001
0.497166
0.497372
0.497616
0.497899
0.498218
0.498572
0.498961
0.499382
0.499833
0.500309
0.500809
0.501332
0.501876
0.50244
0.503022
0.503618
0.504225
0.504841
0.512739
0.512309
0.511873
0.511433
0.510987
0.510547
0.510115
0.509695
0.509288
0.508894
0.508517
0.508157
0.507813
0.507486
0.507181
0.5069
0.506643
0.506412
0.506208
0.506032
0.505883
0.505764
0.505674
0.505614
0.505584
0.505584
0.505614
0.505674
0.505764
0.505883
0.506032
0.506208
0.506412
0.506643
0.5069
0.507181
0.507486
0.507813
0.508157
0.508517
0.508894
0.509287
0.509695
0.510115
0.510547
0.510987
0.511433
0.517018
0.516715
0.516403
0.516085
0.515762
0.515442
0.515128
0.514824
0.51453
0.514247
0.513976
0.513718
0.51347
0.513235
0.513015
0.512813
0.512629
0.512463
0.512317
0.512191
0.512085
0.512
0.511935
0.511893
0.511871
0.511871
0.511893
0.511935
0.512
0.512085
0.512191
0.512317
0.512463
0.512629
0.512813
0.513015
0.513235
0.51347
0.513718
0.513976
0.514247
0.51453
0.514824
0.515128
0.515442
0.515762
0.516085
0.519954
0.519735
0.519504
0.519267
0.519023
0.518783
0.518548
0.518321
0.518102
0.517893
0.517693
0.517502
0.517319
0.517145
0.516983
0.516834
0.516698
0.516577
0.51647
0.516377
0.5163
0.516238
0.516191
0.51616
0.516144
0.516144
0.51616
0.516191
0.516238
0.5163
0.516377
0.51647
0.516577
0.516698
0.516834
0.516983
0.517145
0.517319
0.517502
0.517693
0.517893
0.518102
0.518321
0.518548
0.518783
0.519023
0.519267
0.519504
0.521959
0.521792
0.521611
0.521423
0.521229
0.521037
0.520851
0.520671
0.520499
0.520334
0.520177
0.520029
0.519885
0.519749
0.519622
0.519505
0.5194
0.519306
0.519223
0.519151
0.519092
0.519044
0.519008
0.518984
0.518971
0.518971
0.518984
0.519008
0.519044
0.519092
0.519151
0.519223
0.519306
0.5194
0.519505
0.519622
0.519749
0.519885
0.520029
0.520177
0.520334
0.520499
0.520671
0.520851
0.521037
0.521229
0.521423
0.521611
0.523372
0.523236
0.523084
0.522925
0.52276
0.522596
0.522437
0.522285
0.522139
0.522
0.521868
0.521744
0.521623
0.521508
0.521401
0.521304
0.521216
0.521137
0.521068
0.521008
0.520959
0.520919
0.520889
0.520869
0.520859
0.520859
0.520869
0.520889
0.520919
0.520959
0.521008
0.521068
0.521137
0.521215
0.521304
0.521401
0.521508
0.521623
0.521744
0.521868
0.522
0.522139
0.522285
0.522437
0.522596
0.52276
0.522925
0.523084
0.524441
0.524325
0.524189
0.524046
0.523897
0.523749
0.523606
0.523469
0.523338
0.523213
0.523096
0.522984
0.522877
0.522774
0.522678
0.522591
0.522512
0.522442
0.52238
0.522328
0.522283
0.522248
0.522222
0.522204
0.522195
0.522195
0.522204
0.522222
0.522248
0.522283
0.522328
0.52238
0.522442
0.522512
0.522591
0.522678
0.522774
0.522877
0.522984
0.523096
0.523213
0.523338
0.523469
0.523606
0.523749
0.523897
0.524046
0.524189
0.52533
0.525226
0.5251
0.524968
0.524828
0.52469
0.524556
0.524428
0.524306
0.52419
0.524081
0.523977
0.523877
0.523781
0.523692
0.52361
0.523537
0.523472
0.523415
0.523366
0.523325
0.523292
0.523267
0.523251
0.523243
0.523243
0.523251
0.523267
0.523292
0.523325
0.523366
0.523415
0.523472
0.523537
0.52361
0.523692
0.523781
0.523877
0.523977
0.524081
0.52419
0.524306
0.524428
0.524556
0.52469
0.524828
0.524968
0.5251
0.526134
0.526039
0.525921
0.525795
0.525663
0.525531
0.525404
0.525283
0.525167
0.525057
0.524953
0.524855
0.524759
0.524668
0.524584
0.524506
0.524437
0.524375
0.524321
0.524274
0.524235
0.524204
0.524181
0.524166
0.524158
0.524158
0.524166
0.524181
0.524204
0.524235
0.524274
0.524321
0.524375
0.524437
0.524506
0.524584
0.524668
0.524759
0.524855
0.524953
0.525057
0.525167
0.525282
0.525404
0.525531
0.525663
0.525795
0.525921
0.526901
0.526815
0.526703
0.526583
0.526456
0.526331
0.526209
0.526093
0.525982
0.525877
0.525778
0.525685
0.525594
0.525506
0.525425
0.525352
0.525285
0.525226
0.525174
0.52513
0.525093
0.525063
0.525041
0.525026
0.525018
0.525018
0.525026
0.525041
0.525063
0.525093
0.52513
0.525174
0.525226
0.525285
0.525352
0.525425
0.525506
0.525594
0.525685
0.525778
0.525877
0.525982
0.526093
0.526209
0.526331
0.526456
0.526583
0.526703
0.527651
0.527573
0.527467
0.527353
0.527232
0.527112
0.526996
0.526884
0.526779
0.526678
0.526584
0.526494
0.526407
0.526323
0.526246
0.526175
0.526112
0.526055
0.526006
0.525963
0.525928
0.525899
0.525878
0.525864
0.525857
0.525857
0.525864
0.525878
0.525899
0.525928
0.525963
0.526006
0.526055
0.526112
0.526175
0.526246
0.526323
0.526407
0.526494
0.526584
0.526678
0.526778
0.526884
0.526996
0.527112
0.527232
0.527353
0.527467
0.0952357
0.0984964
0.101929
0.105544
0.109357
0.11338
0.11763
0.122124
0.126878
0.131914
0.137252
0.142915
0.148928
0.155317
0.16211
0.169338
0.177032
0.185226
0.193956
0.203255
0.213162
0.223714
0.234949
0.24693
0.259825
0.273928
0.289367
0.306004
0.323701
0.342369
0.361849
0.381885
0.40211
0.422043
0.441121
0.458752
0.474398
0.487673
0.498406
0.50667
0.512739
0.517018
0.519954
0.521959
0.523372
0.524441
0.52533
0.526134
0.526901
0.527651
0.0943214
0.0975495
0.100947
0.104527
0.108302
0.112286
0.116494
0.120944
0.125653
0.130641
0.135929
0.14154
0.147498
0.15383
0.160565
0.167732
0.175364
0.183494
0.192158
0.201392
0.211233
0.221719
0.23289
0.244802
0.257594
0.271562
0.286894
0.303464
0.321116
0.339766
0.359266
0.379368
0.399713
0.419824
0.439136
0.457043
0.47299
0.486563
0.49757
0.506063
0.512309
0.516715
0.519735
0.521792
0.523236
0.524325
0.525226
0.526039
0.526815
0.527573
0.0934596
0.0966563
0.100021
0.103567
0.107306
0.111252
0.11542
0.119829
0.124494
0.129436
0.134677
0.140238
0.146144
0.152422
0.1591
0.166209
0.173781
0.18185
0.190451
0.199622
0.209399
0.219822
0.230929
0.242773
0.255464
0.269298
0.284524
0.301026
0.31863
0.337259
0.356772
0.376931
0.397385
0.417662
0.437194
0.455365
0.471601
0.485464
0.496736
0.505453
0.511873
0.516403
0.519504
0.521611
0.523084
0.524189
0.5251
0.525921
0.526703
0.527467
0.0926327
0.0957996
0.0991334
0.102646
0.10635
0.11026
0.114391
0.118759
0.123383
0.128281
0.133476
0.138989
0.144845
0.151071
0.157695
0.164748
0.172262
0.180271
0.188811
0.19792
0.207635
0.217996
0.229041
0.240818
0.253411
0.267116
0.282237
0.29867
0.316224
0.334827
0.354347
0.374556
0.39511
0.415542
0.435283
0.453707
0.470223
0.484368
0.495902
0.504841
0.511433
0.516085
0.519267
0.521423
0.522925
0.524046
0.524968
0.525795
0.526583
0.527353
0.0918408
0.0949792
0.098283
0.101764
0.105435
0.10931
0.113405
0.117734
0.122318
0.127174
0.132324
0.137791
0.143599
0.149774
0.156346
0.163344
0.170802
0.178753
0.187234
0.196282
0.205937
0.216237
0.227223
0.23894
0.25147
0.265078
0.280068
0.296403
0.313902
0.332476
0.351999
0.37225
0.392894
0.413471
0.433408
0.452074
0.46886
0.48328
0.495069
0.504225
0.510987
0.515762
0.519023
0.521229
0.52276
0.523897
0.524828
0.525663
0.526456
0.527232
0.0910846
0.0941957
0.0974707
0.100922
0.104561
0.108403
0.112462
0.116755
0.1213
0.126116
0.131224
0.136646
0.142408
0.148535
0.155056
0.162002
0.169405
0.1773
0.185724
0.194714
0.20431
0.214551
0.225479
0.237139
0.249607
0.263121
0.277986
0.294223
0.311668
0.330211
0.349732
0.370019
0.390746
0.411456
0.43158
0.450477
0.467522
0.482209
0.494248
0.503618
0.510547
0.515442
0.518783
0.521037
0.522596
0.523749
0.52469
0.525531
0.526331
0.527112
0.0903645
0.0934495
0.0966972
0.100119
0.103728
0.107539
0.111565
0.115823
0.120331
0.125108
0.130175
0.135555
0.141272
0.147353
0.153825
0.160721
0.168072
0.175913
0.184282
0.193216
0.202755
0.21294
0.223811
0.235416
0.247824
0.261247
0.275991
0.292135
0.309525
0.328035
0.34755
0.367868
0.388669
0.409505
0.429805
0.448922
0.466216
0.481161
0.493443
0.503022
0.510116
0.515129
0.518548
0.520851
0.522437
0.523606
0.524556
0.525404
0.526209
0.526996
0.0896809
0.0927411
0.0959628
0.0993575
0.102938
0.106718
0.110712
0.114937
0.11941
0.12415
0.129179
0.134518
0.140193
0.146229
0.152655
0.159503
0.166804
0.174594
0.18291
0.19179
0.201274
0.211404
0.222222
0.233772
0.246122
0.259458
0.274086
0.29014
0.307477
0.325952
0.345458
0.365802
0.386672
0.407623
0.428088
0.447414
0.464947
0.48014
0.492658
0.50244
0.509695
0.514824
0.518321
0.520671
0.522285
0.523469
0.524428
0.525283
0.526093
0.526884
0.0890341
0.0920709
0.0952678
0.0986367
0.10219
0.105941
0.109905
0.114098
0.118538
0.123243
0.128235
0.133536
0.13917
0.145164
0.151547
0.158349
0.165602
0.173343
0.181608
0.190437
0.199869
0.209947
0.220712
0.23221
0.244505
0.257756
0.272275
0.288242
0.305526
0.323966
0.343462
0.363827
0.384758
0.405816
0.426436
0.44596
0.46372
0.479151
0.491896
0.501876
0.509288
0.51453
0.518102
0.520499
0.522139
0.523338
0.524306
0.525167
0.525982
0.526779
0.0884244
0.091439
0.0946127
0.097957
0.101485
0.105209
0.109144
0.113308
0.117716
0.122388
0.127345
0.13261
0.138206
0.14416
0.150501
0.157259
0.164467
0.172162
0.180379
0.189158
0.198541
0.208568
0.219283
0.230732
0.242973
0.256145
0.270561
0.286445
0.303676
0.322081
0.341564
0.361947
0.382932
0.404089
0.424854
0.444563
0.46254
0.478198
0.491161
0.501332
0.508895
0.514247
0.517893
0.520334
0.522
0.523213
0.52419
0.525057
0.525878
0.526678
0.087852
0.0908458
0.0939976
0.097319
0.100822
0.104521
0.10843
0.112565
0.116944
0.121585
0.126509
0.13174
0.1373
0.143216
0.149518
0.156235
0.163401
0.171051
0.179223
0.187956
0.197291
0.207271
0.217939
0.229339
0.241529
0.254627
0.268944
0.28475
0.30193
0.3203
0.339769
0.360166
0.3812
0.402448
0.423346
0.44323
0.46141
0.477285
0.490456
0.500809
0.508517
0.513976
0.517693
0.520178
0.521868
0.523096
0.524081
0.524953
0.525779
0.526584
0.0873171
0.0902914
0.0934228
0.0967227
0.100203
0.103878
0.107762
0.111871
0.116222
0.120834
0.125728
0.130926
0.136453
0.142334
0.148598
0.155277
0.162403
0.170012
0.178141
0.18683
0.196121
0.206056
0.216679
0.228035
0.240177
0.253204
0.267429
0.28316
0.300292
0.318628
0.338081
0.358488
0.379566
0.400896
0.421918
0.441964
0.460336
0.476414
0.489782
0.500309
0.508157
0.513718
0.517502
0.520029
0.521744
0.522985
0.523977
0.524855
0.525685
0.526494
0.0868196
0.0897759
0.0928883
0.0961681
0.0996277
0.103281
0.107141
0.111225
0.115551
0.120136
0.125001
0.130169
0.135664
0.141513
0.147743
0.154386
0.161474
0.169044
0.177134
0.185782
0.195031
0.204924
0.215505
0.226819
0.238918
0.251892
0.266043
0.281692
0.298765
0.317067
0.336504
0.356918
0.378034
0.399438
0.420573
0.440769
0.459318
0.475587
0.489141
0.499833
0.507813
0.51347
0.517319
0.519885
0.521623
0.522877
0.523877
0.524759
0.525594
0.526407
0.0863599
0.0892994
0.0923942
0.0956556
0.0990957
0.102728
0.106567
0.110629
0.11493
0.11949
0.124329
0.129469
0.134935
0.140753
0.146952
0.153561
0.160615
0.168149
0.176201
0.184812
0.194022
0.203876
0.214417
0.225693
0.237753
0.250687
0.264775
0.280342
0.297352
0.315619
0.335039
0.355458
0.376607
0.398078
0.419316
0.439649
0.458363
0.474809
0.488537
0.499382
0.507486
0.513235
0.517145
0.519749
0.521508
0.522774
0.523781
0.524668
0.525506
0.526324
0.0859381
0.0888623
0.091941
0.0951854
0.0986077
0.102221
0.10604
0.110081
0.114361
0.118898
0.123712
0.128827
0.134267
0.140057
0.146226
0.152805
0.159827
0.167328
0.175346
0.183921
0.193095
0.202913
0.213418
0.224658
0.236683
0.249578
0.263609
0.279099
0.296051
0.314286
0.333689
0.354111
0.375289
0.396819
0.41815
0.43861
0.457474
0.474084
0.487972
0.498961
0.507181
0.513015
0.516983
0.519622
0.521401
0.522678
0.523692
0.524584
0.525425
0.526246
0.0855546
0.0884649
0.0915289
0.0947578
0.0981639
0.10176
0.105562
0.109583
0.113843
0.118359
0.123152
0.128243
0.133658
0.139423
0.145565
0.152116
0.159109
0.16658
0.174567
0.18311
0.192252
0.202036
0.212508
0.223715
0.235707
0.248568
0.262546
0.277966
0.294864
0.313069
0.332455
0.352879
0.374082
0.395665
0.41708
0.437653
0.456655
0.473415
0.487452
0.498573
0.5069
0.512813
0.516834
0.519505
0.521304
0.522591
0.52361
0.524506
0.525352
0.526175
0.0852094
0.088107
0.0911578
0.0943729
0.0977643
0.101345
0.10513
0.109135
0.113377
0.117874
0.122647
0.127718
0.133111
0.138852
0.14497
0.151496
0.158463
0.165906
0.173865
0.182379
0.191491
0.201245
0.211688
0.222864
0.234827
0.247656
0.261586
0.276944
0.293792
0.311969
0.33134
0.351764
0.372988
0.394618
0.416108
0.436784
0.45591
0.472805
0.486976
0.498218
0.506643
0.512629
0.516698
0.5194
0.521216
0.522512
0.523537
0.524437
0.525285
0.526112
0.0849024
0.0877889
0.090828
0.0940307
0.0974091
0.100976
0.104747
0.108737
0.112962
0.117443
0.122198
0.12725
0.132623
0.138344
0.144441
0.150944
0.157888
0.165307
0.17324
0.181729
0.190814
0.200542
0.210957
0.222107
0.234043
0.246843
0.260731
0.276032
0.292837
0.310988
0.330345
0.350768
0.372011
0.393681
0.415238
0.436004
0.45524
0.472257
0.486549
0.497899
0.506413
0.512463
0.516577
0.519306
0.521137
0.522442
0.523472
0.524375
0.525226
0.526055
0.0846338
0.0875106
0.0905393
0.0937312
0.0970983
0.100654
0.104412
0.108388
0.1126
0.117065
0.121805
0.126841
0.132197
0.1379
0.143978
0.150461
0.157384
0.164782
0.172693
0.181159
0.190221
0.199925
0.210316
0.221443
0.233355
0.246131
0.259981
0.275233
0.291999
0.310128
0.329471
0.349893
0.371151
0.392857
0.41447
0.435316
0.454649
0.471773
0.48617
0.497616
0.506208
0.512317
0.51647
0.519223
0.521068
0.52238
0.523415
0.524321
0.525174
0.526006
0.0844036
0.0872719
0.0902919
0.0934745
0.0968318
0.100377
0.104124
0.108089
0.112289
0.116741
0.121468
0.12649
0.131831
0.137519
0.14358
0.150047
0.156953
0.164332
0.172224
0.18067
0.189712
0.199396
0.209767
0.220873
0.232765
0.245519
0.259337
0.274546
0.291279
0.309388
0.32872
0.349141
0.370411
0.392147
0.413809
0.434722
0.454138
0.471354
0.485843
0.497372
0.506032
0.512191
0.516377
0.519151
0.521008
0.522328
0.523366
0.524274
0.52513
0.525963
0.0842117
0.0870731
0.0900857
0.0932606
0.0966097
0.100146
0.103884
0.10784
0.112029
0.116472
0.121187
0.126197
0.131527
0.137201