/*--------------------------------*- C++ -*----------------------------------*\
  =========                 |
  \\      /  F ield         | OpenFOAM: The Open Source CFD Toolbox
   \\    /   O peration     | Website:  https://openfoam.org
    \\  /    A nd           | Version:  7
     \\/     M anipulation  |
\*---------------------------------------------------------------------------*/
FoamFile
{
    version     2.0;
    format      ascii;
    class       volScalarField;
    location    "64000";
    object      strainRate;
}
// * * * * * * * * * * * * * * * * * * * * * * * * * * * * * * * * * * * * * //

dimensions      [0 0 -1 0 0 0 0];

internalField   nonuniform List<scalar> 
4850
(
0.000100183
9.73878e-05
0.000102459
9.96802e-05
9.87271e-05
0.000104793
0.000102031
0.00010099
0.000100093
9.92629e-05
0.000107079
0.000104409
0.00010332
0.000102349
0.000101474
0.000100731
0.000109274
0.000106704
0.000105655
0.000104662
0.00010374
0.000102902
0.00010221
0.000111374
0.00010891
0.000107899
0.000106938
0.000106029
0.000105132
0.000104339
0.000103665
0.000103023
0.000113376
0.000111021
0.000110052
0.000109125
0.000108239
0.000107375
0.000106529
0.000105776
0.000105092
0.000104511
0.000115278
0.000113031
0.000112107
0.000111219
0.000110363
0.00010953
0.00010872
0.00010794
0.000107214
0.000106544
0.000105974
0.000105383
0.000104797
0.000104262
0.000117075
0.000114938
0.000114062
0.000113215
0.000112395
0.000111596
0.000110818
0.000110066
0.000109354
0.000108638
0.000108002
0.000107414
0.000106837
0.000106289
0.000105829
0.000105371
0.000104947
0.000104597
0.000118765
0.000116737
0.000115911
0.00011511
0.00011433
0.000113568
0.000112824
0.000112102
0.000111409
0.000110729
0.000110073
0.000109485
0.000108921
0.000108365
0.000107854
0.000107402
0.000106981
0.000106613
0.000106356
0.000106146
0.000120348
0.000118428
0.000117653
0.000116899
0.000116162
0.000115439
0.000114732
0.000114044
0.000113377
0.000112727
0.000112103
0.000111526
0.000110977
0.000110444
0.00010992
0.000109469
0.000109057
0.000108672
0.000108347
0.000108103
0.000107964
0.000107836
0.000107752
0.000107752
0.000121821
0.000120007
0.000119287
0.000118581
0.000117888
0.000117207
0.000116539
0.000115886
0.000115251
0.000114632
0.000114038
0.00011348
0.000112949
0.000112438
0.000111945
0.000111504
0.000111102
0.000110732
0.000110381
0.000110105
0.000109896
0.000109758
0.000109667
0.000109638
0.000109722
0.000109822
0.00010997
0.00011018
0.000110483
0.000123182
0.000121475
0.000120809
0.000120154
0.000119507
0.00011887
0.000118241
0.000117625
0.000117024
0.000116439
0.000115875
0.000115341
0.000114831
0.000114343
0.000113877
0.000113452
0.000113063
0.000112706
0.000112377
0.000112106
0.000111866
0.000111716
0.00011162
0.000111564
0.000111571
0.000111654
0.000111792
0.000111987
0.000112253
0.00011264
0.000113051
0.000113542
0.000124432
0.00012283
0.00012222
0.000121616
0.000121017
0.000120423
0.000119836
0.000119259
0.000118693
0.000118142
0.00011761
0.000117102
0.000116617
0.000116154
0.000115713
0.000115307
0.000114934
0.000114592
0.000114281
0.000114018
0.000113795
0.000113642
0.000113542
0.000113486
0.000113455
0.000113521
0.000113646
0.000113827
0.000114056
0.000114353
0.000114732
0.000115184
0.000115762
0.000116384
0.000125568
0.000124072
0.000123518
0.000122967
0.000122416
0.000121867
0.000121322
0.000120785
0.000120256
0.00011974
0.00011924
0.000118761
0.000118302
0.000117864
0.000117449
0.000117063
0.000116708
0.000116383
0.00011609
0.000115838
0.000115629
0.000115478
0.000115377
0.000115319
0.000115299
0.000115353
0.000115467
0.000115634
0.00011585
0.000116096
0.000116445
0.000116853
0.000117337
0.000117946
0.00012659
0.000125199
0.000124704
0.000124205
0.000123703
0.0001232
0.000122698
0.0001222
0.00012171
0.00012123
0.000120763
0.000120314
0.000119883
0.000119472
0.000119082
0.000118718
0.000118382
0.000118075
0.000117799
0.000117561
0.000117364
0.000117218
0.000117119
0.000117061
0.000117046
0.000117094
0.000117197
0.000117351
0.000117553
0.000117796
0.00011812
0.000118505
0.000118927
0.000119468
0.000127496
0.000126212
0.000125776
0.00012533
0.000124877
0.00012442
0.000123962
0.000123505
0.000123053
0.00012261
0.000122177
0.000121759
0.000121357
0.000120973
0.000120609
0.000120268
0.000119953
0.000119665
0.000119406
0.000119183
0.000118998
0.000118858
0.000118762
0.000118707
0.000118694
0.000118737
0.000118831
0.000118974
0.000119162
0.000119397
0.0001197
0.000120059
0.000120461
0.000120923
0.000128284
0.000127111
0.000126735
0.000126342
0.000125938
0.000125527
0.000125113
0.000124698
0.000124285
0.000123879
0.000123481
0.000123095
0.000122723
0.000122367
0.000122028
0.000121711
0.000121417
0.000121149
0.000120908
0.0001207
0.000120527
0.000120395
0.000120303
0.000120251
0.00012024
0.000120278
0.000120364
0.000120497
0.000120673
0.000120897
0.00012118
0.000121516
0.000121892
0.000122295
0.000128953
0.000127895
0.00012758
0.000127241
0.000126886
0.000126521
0.00012615
0.000125777
0.000125405
0.000125036
0.000124673
0.00012432
0.000123978
0.00012365
0.000123339
0.000123046
0.000122774
0.000122525
0.000122302
0.000122109
0.00012195
0.000121826
0.00012174
0.00012169
0.000121681
0.000121715
0.000121794
0.000121916
0.000122082
0.000122293
0.000122557
0.00012287
0.000123221
0.00012359
0.000129499
0.000128567
0.000128312
0.000128026
0.000127719
0.000127401
0.000127074
0.000126743
0.000126411
0.00012608
0.000125753
0.000125433
0.000125123
0.000124824
0.000124539
0.000124271
0.000124021
0.000123793
0.000123588
0.000123411
0.000123264
0.000123149
0.000123069
0.000123023
0.000123014
0.000123045
0.000123118
0.00012323
0.000123384
0.000123581
0.000123828
0.00012412
0.000124447
0.000124792
0.000129917
0.000129129
0.00012893
0.000128698
0.000128438
0.000128166
0.000127884
0.000127595
0.000127304
0.00012701
0.000126719
0.000126434
0.000126155
0.000125885
0.000125628
0.000125385
0.000125158
0.00012495
0.000124764
0.000124602
0.000124468
0.000124363
0.000124289
0.000124247
0.000124239
0.000124267
0.000124333
0.000124436
0.000124578
0.000124761
0.000124991
0.000125263
0.000125565
0.000125883
0.000130265
0.000129586
0.000129436
0.000129255
0.000129041
0.000128817
0.000128579
0.000128333
0.000128083
0.000127827
0.000127573
0.000127322
0.000127074
0.000126835
0.000126605
0.000126388
0.000126184
0.000125996
0.000125829
0.000125683
0.000125562
0.000125467
0.000125399
0.000125361
0.000125353
0.000125379
0.000125438
0.000125532
0.000125662
0.000125831
0.000126043
0.000126295
0.000126573
0.000126853
0.000130796
0.000129951
0.000129828
0.0001297
0.000129528
0.000129352
0.000129159
0.000128955
0.000128748
0.00012853
0.000128312
0.000128097
0.000127881
0.000127671
0.00012747
0.000127278
0.000127097
0.000126931
0.000126782
0.000126652
0.000126544
0.000126459
0.000126398
0.000126363
0.000126357
0.00012638
0.000126433
0.000126518
0.000126635
0.000126789
0.000126984
0.000127217
0.000127472
0.000127709
0.000127914
0.000131796
0.000130487
0.000130218
0.000130033
0.000129899
0.000129772
0.000129623
0.000129461
0.000129298
0.000129117
0.000128936
0.000128758
0.000128573
0.000128394
0.000128222
0.000128056
0.000127898
0.000127753
0.000127623
0.000127509
0.000127415
0.00012734
0.000127286
0.000127255
0.000127249
0.000127269
0.000127316
0.000127391
0.000127496
0.000127634
0.000127812
0.000128026
0.000128262
0.000128474
0.000128514
0.000133298
0.000131627
0.000130979
0.000130533
0.000130296
0.000130113
0.000129972
0.00012985
0.000129734
0.000129589
0.000129446
0.000129305
0.000129152
0.000129003
0.00012886
0.000128721
0.000128586
0.000128462
0.000128351
0.000128254
0.000128173
0.000128108
0.000128061
0.000128034
0.000128028
0.000128046
0.000128088
0.000128153
0.000128244
0.000128366
0.000128526
0.00012872
0.000128938
0.000129125
0.000129028
0.000135201
0.000133404
0.000132411
0.000131653
0.000131106
0.000130681
0.000130404
0.000130213
0.000130059
0.000129945
0.000129839
0.000129739
0.000129616
0.000129497
0.000129385
0.000129273
0.000129161
0.000129058
0.000128965
0.000128886
0.000128819
0.000128764
0.000128723
0.0001287
0.000128695
0.000128711
0.000128746
0.000128802
0.000128879
0.000128984
0.000129125
0.000129299
0.000129498
0.000129662
0.00013742
0.000135579
0.000134408
0.000133423
0.000132574
0.000131877
0.000131329
0.000130896
0.000130547
0.000130351
0.000130192
0.000130061
0.000129965
0.000129877
0.000129795
0.000129712
0.000129622
0.00012954
0.000129467
0.000129404
0.000129352
0.000129307
0.000129273
0.000129253
0.000129249
0.000129262
0.000129292
0.000129338
0.0001294
0.000129487
0.000129609
0.000129759
0.000129939
0.000130116
0.000139873
0.000138005
0.000136741
0.000135603
0.000134575
0.000133686
0.000132899
0.000132217
0.00013164
0.000131199
0.000130837
0.000130541
0.000130377
0.000130243
0.000130128
0.000130038
0.000129968
0.000129907
0.000129854
0.000129809
0.000129771
0.000129737
0.000129709
0.000129693
0.00012969
0.0001297
0.000129725
0.000129762
0.000129807
0.000129874
0.000129977
0.000130155
0.000130454
0.000130521
0.000142488
0.000140601
0.000139284
0.000138049
0.000136908
0.000135881
0.000134944
0.000134103
0.000133361
0.000132688
0.000132112
0.000131624
0.00013125
0.000130943
0.000130683
0.000130495
0.00013038
0.000130287
0.000130207
0.000130141
0.000130088
0.000130053
0.000130031
0.000130019
0.000130017
0.000130025
0.000130045
0.000130084
0.000130153
0.000130258
0.000130423
0.000130761
0.000131322
0.000131117
0.000145198
0.000143304
0.000141959
0.000140669
0.000139454
0.000138331
0.000137293
0.000136342
0.000135479
0.000134674
0.00013396
0.00013333
0.000132759
0.000132271
0.000131853
0.000131513
0.000131251
0.000131036
0.000130854
0.000130704
0.000130586
0.000130516
0.00013048
0.000130462
0.00013046
0.000130474
0.00013051
0.000130592
0.000130747
0.000130978
0.000131317
0.000131836
0.000132393
0.000147942
0.000146058
0.000144706
0.00014339
0.000142132
0.000140948
0.000139841
0.000138812
0.000137862
0.000136972
0.000136163
0.000135431
0.000134749
0.000134147
0.00013362
0.000133157
0.000132752
0.00013241
0.000132122
0.000131884
0.000131696
0.000131565
0.000131485
0.000131444
0.00013144
0.000131475
0.000131558
0.00013171
0.000131952
0.000132292
0.000132743
0.000133255
0.000133525
0.000150675
0.000148814
0.000147471
0.000146153
0.000144879
0.000143662
0.000142512
0.000141432
0.000140422
0.000139475
0.000138599
0.000137793
0.000137043
0.000136365
0.000135761
0.000135218
0.00013473
0.00013431
0.000133955
0.00013366
0.000133425
0.000133245
0.000133122
0.000133057
0.000133052
0.000133108
0.000133235
0.000133438
0.000133721
0.00013409
0.000134517
0.000134864
0.000153378
0.000151542
0.000150213
0.000148908
0.000147638
0.000146413
0.000145244
0.000144136
0.00014309
0.000142106
0.000141186
0.000140331
0.000139535
0.000138806
0.000138148
0.000137551
0.000137012
0.000136543
0.000136142
0.000135808
0.000135539
0.000135329
0.000135183
0.000135105
0.000135098
0.000135165
0.00013531
0.000135532
0.000135822
0.000136169
0.00013651
0.000136679
0.000156081
0.000154246
0.00015292
0.000151627
0.000150368
0.000149151
0.000147981
0.000146865
0.000145804
0.000144802
0.000143858
0.000142974
0.000142151
0.00014139
0.000140695
0.000140063
0.000139493
0.000138991
0.00013856
0.000138198
0.000137905
0.000137677
0.000137516
0.00013743
0.00013742
0.000137489
0.000137636
0.000137855
0.000138129
0.000138428
0.000138677
0.000138736
0.000158879
0.000156989
0.000155628
0.000154322
0.000153063
0.000151851
0.000150687
0.000149574
0.000148514
0.000147508
0.000146557
0.000145663
0.000144826
0.00014405
0.000143335
0.000142683
0.000142095
0.000141574
0.000141123
0.000140744
0.000140435
0.000140194
0.000140026
0.000139933
0.000139918
0.000139982
0.00014012
0.000140321
0.000140564
0.000140809
0.000140989
0.000141026
0.000161941
0.000159908
0.00015844
0.000157064
0.000155765
0.000154533
0.000153361
0.000152247
0.000151189
0.000150186
0.000149238
0.000148344
0.000147507
0.000146728
0.000146008
0.000145349
0.000144754
0.000144225
0.000143765
0.000143376
0.000143058
0.000142811
0.000142637
0.000142539
0.000142517
0.000142571
0.000142692
0.000142867
0.000143072
0.000143269
0.000143411
0.000143482
0.000165496
0.000163209
0.000161532
0.000159999
0.000158588
0.00015728
0.000156059
0.000154915
0.000153841
0.000152831
0.000151882
0.000150991
0.000150157
0.000149382
0.000148665
0.000148008
0.000147415
0.000146886
0.000146425
0.000146033
0.000145712
0.000145463
0.000145286
0.000145183
0.000145154
0.000145194
0.000145294
0.00014544
0.000145607
0.000145768
0.0001459
0.000146024
0.000169793
0.000167141
0.000165144
0.000163345
0.000161722
0.000160251
0.000158909
0.000157678
0.000156544
0.000155494
0.00015452
0.000153615
0.000152775
0.000151998
0.000151283
0.00015063
0.000150041
0.000149516
0.000149058
0.000148668
0.000148349
0.000148099
0.000147921
0.000147814
0.000147776
0.000147802
0.000147881
0.000148
0.000148138
0.000148279
0.000148421
0.000148604
0.000175018
0.000171937
0.000169527
0.000167356
0.000165413
0.000163674
0.000162116
0.000160714
0.000159447
0.000158297
0.00015725
0.000156293
0.000155417
0.000154616
0.000153887
0.000153226
0.000152633
0.000152108
0.00015165
0.000151262
0.000150942
0.000150693
0.000150513
0.000150402
0.000150355
0.000150369
0.000150432
0.000150533
0.000150658
0.000150803
0.000150979
0.000151228
0.000181179
0.000177705
0.000174863
0.000172261
0.000169912
0.000167808
0.000165932
0.000164261
0.000162771
0.00016144
0.000160248
0.000159177
0.000158214
0.000157348
0.000156569
0.000155873
0.000155254
0.000154711
0.000154241
0.000153843
0.000153517
0.000153262
0.000153077
0.00015296
0.000152907
0.000152912
0.000152968
0.000153068
0.000153207
0.000153392
0.000153639
0.000153979
0.000187957
0.000184297
0.000181139
0.000178149
0.000175384
0.000172867
0.000170602
0.000168577
0.000166775
0.000165174
0.000163754
0.000162492
0.000161373
0.000160379
0.000159499
0.000158722
0.00015804
0.000157447
0.00015694
0.000156513
0.000156165
0.000155893
0.000155695
0.000155568
0.000155508
0.000155512
0.000155576
0.000155699
0.000155889
0.000156164
0.000156541
0.000157026
0.000194571
0.000191154
0.000187997
0.000184834
0.000181779
0.000178907
0.000176259
0.000173852
0.000171685
0.000169748
0.000168026
0.000166499
0.000165149
0.000163959
0.000162914
0.000161999
0.000161204
0.000160519
0.000159936
0.00015945
0.000159056
0.000158749
0.000158525
0.000158382
0.000158316
0.000158326
0.000158414
0.000158591
0.000158878
0.000159307
0.000159894
0.0001606
0.000199739
0.00019721
0.0001946
0.000191695
0.000188674
0.000185674
0.00018279
0.000180082
0.000177584
0.000175308
0.000173256
0.00017142
0.000169787
0.000168344
0.000167075
0.000165967
0.000165006
0.000164181
0.000163482
0.000162901
0.00016243
0.000162065
0.000161799
0.000161631
0.000161558
0.000161582
0.000161714
0.000161974
0.000162403
0.000163052
0.000163943
0.000164927
0.000201864
0.000200959
0.000199603
0.000197596
0.000195151
0.000192461
0.000189678
0.000186919
0.000184262
0.000181761
0.000179446
0.00017733
0.000175418
0.000173707
0.000172188
0.000170852
0.000169688
0.000168686
0.000167835
0.000167127
0.000166553
0.000166108
0.000165785
0.000165582
0.000165501
0.000165546
0.000165736
0.000166103
0.000166706
0.000167624
0.000168896
0.000170082
0.00019954
0.000200809
0.000201376
0.000200975
0.000199793
0.000198035
0.000195891
0.000193525
0.000191068
0.000188619
0.000186248
0.000184004
0.000181917
0.000180005
0.000178276
0.000176732
0.000175371
0.000174187
0.000173173
0.000172325
0.000171634
0.000171096
0.000170707
0.000170465
0.000170374
0.000170445
0.000170701
0.000171183
0.000171964
0.000173148
0.000174809
0.000175799
0.000192324
0.000195763
0.000198543
0.000200249
0.000200948
0.000200782
0.000199924
0.000198551
0.000196823
0.000194879
0.00019283
0.000190763
0.000188744
0.000186822
0.000185027
0.000183383
0.000181903
0.000180592
0.000179455
0.000178492
0.000177701
0.000177082
0.000176633
0.000176357
0.00017626
0.000176356
0.000176673
0.000177255
0.000178174
0.000179536
0.000181425
0.000181869
0.000181436
0.000186208
0.000190779
0.000194531
0.000197333
0.000199176
0.000200139
0.000200344
0.000199935
0.000199056
0.000197839
0.000196402
0.000194841
0.000193236
0.000191649
0.000190127
0.000188706
0.000187412
0.000186263
0.000185271
0.000184445
0.000183792
0.000183317
0.000183028
0.000182934
0.000183052
0.000183409
0.000184044
0.000185008
0.000186362
0.000188002
0.000169991
0.000174397
0.000179481
0.000184417
0.00018884
0.00019254
0.000195428
0.000197505
0.00019883
0.000199498
0.00019962
0.00019931
0.000198676
0.000197818
0.000196819
0.000195751
0.000194674
0.000193634
0.000192668
0.000191807
0.000191071
0.00019048
0.000190048
0.000189788
0.000189716
0.000189849
0.000190209
0.000190816
0.000191681
0.000192761
0.000193699
0.000162726
0.000164361
0.000167943
0.00017241
0.000177171
0.000181805
0.000186034
0.000189691
0.000192698
0.000195045
0.000196766
0.000197927
0.000198609
0.000198897
0.000198879
0.000198636
0.000198239
0.000197753
0.000197231
0.000196718
0.000196252
0.000195862
0.000195574
0.000195409
0.000195387
0.000195524
0.000195832
0.000196308
0.000196907
0.00019746
0.000165941
0.000161608
0.000161046
0.000162766
0.000165908
0.000169834
0.000174082
0.00017831
0.000182282
0.000185852
0.000188936
0.000191507
0.000193576
0.00019518
0.000196371
0.000197212
0.000197768
0.000198101
0.000198269
0.000198325
0.000198315
0.000198279
0.000198248
0.000198252
0.000198312
0.000198441
0.000198639
0.000198877
0.00019906
0.000198941
0.00018912
0.000173758
0.00016528
0.000161217
0.000160176
0.00016118
0.000163528
0.000166687
0.000170259
0.000173948
0.000177542
0.000180896
0.000183923
0.000186576
0.000188842
0.000190733
0.000192278
0.000193514
0.000194483
0.000195228
0.00019579
0.000196207
0.000196515
0.00019674
0.000196904
0.000197014
0.000197059
0.000196989
0.000196682
0.000195887
0.000250325
0.000213901
0.000190642
0.000175837
0.000166838
0.0001619
0.000159824
0.000159748
0.000161037
0.000163217
0.000165924
0.000168886
0.000171904
0.000174833
0.000177571
0.000180058
0.000182263
0.000184174
0.000185793
0.000187134
0.000188215
0.000189061
0.000189695
0.000190136
0.000190399
0.000190484
0.000190371
0.00019
0.000189254
0.000187945
0.00038858
0.000309428
0.00025666
0.000220974
0.000196887
0.00018084
0.000170437
0.000164043
0.00016052
0.00015905
0.000159023
0.000159986
0.0001616
0.000163601
0.000165785
0.000168006
0.000170159
0.000172167
0.000173977
0.000175553
0.00017688
0.000177953
0.000178771
0.000179339
0.000179657
0.000179716
0.000179491
0.000178928
0.000177936
0.00017642
0.00068594
0.000519974
0.00040604
0.000327212
0.000272492
0.000234479
0.000208031
0.00018971
0.000177176
0.000168794
0.000163414
0.00016021
0.000158583
0.000158077
0.000158341
0.000159116
0.000160202
0.000161443
0.000162717
0.000163935
0.000165031
0.000165963
0.0001667
0.00016722
0.000167508
0.000167546
0.000167308
0.000166751
0.000165825
0.00016452
0.00128969
0.000963002
0.000728366
0.000561079
0.000442432
0.000358604
0.000299099
0.000256722
0.000226463
0.000204796
0.000189304
0.000178296
0.000170565
0.000165243
0.000161689
0.000159433
0.000158115
0.000157457
0.000157247
0.000157319
0.000157548
0.000157843
0.000158133
0.000158369
0.000158512
0.000158537
0.000158417
0.000158127
0.000157659
0.000157068
0.00239246
0.00182043
0.00138124
0.0010511
0.00080741
0.000630325
0.000501942
0.000409085
0.00034183
0.000292803
0.000256894
0.000230473
0.000210923
0.000196427
0.00018569
0.000177756
0.000171922
0.000167663
0.00016459
0.000162411
0.000160901
0.000159889
0.000159246
0.000158881
0.000158729
0.000158749
0.000158916
0.000159227
0.000159712
0.000160487
0.00412177
0.00326936
0.00256091
0.00198771
0.00153759
0.00119335
0.000933334
0.000739539
0.000596063
0.000489709
0.000410833
0.000352125
0.000308063
0.000274816
0.00024965
0.000230507
0.000215884
0.000204705
0.00019619
0.000189762
0.000184986
0.000181527
0.000179141
0.000177658
0.000176962
0.000176989
0.000177712
0.000179154
0.000181402
0.000184658
0.00640524
0.00533674
0.00437816
0.00353838
0.00282834
0.00224581
0.00177806
0.00141117
0.00112781
0.000910565
0.000745384
0.000620142
0.000524726
0.000451907
0.000396308
0.000353629
0.000320684
0.000295214
0.000275577
0.000260556
0.000249237
0.000240914
0.000235086
0.000231408
0.000229657
0.00022971
0.000231535
0.000235205
0.000240917
0.000249046
0.00897874
0.00782659
0.00672912
0.00569788
0.00476137
0.00393415
0.00322147
0.00262495
0.00213547
0.00174014
0.00142621
0.00117941
0.000985647
0.00083432
0.000716807
0.000625378
0.000553995
0.000498347
0.000455163
0.000421946
0.000396796
0.00037821
0.000365133
0.00035685
0.000352893
0.000353016
0.000357171
0.000365534
0.000378535
0.000396917
0.0115619
0.010439
0.00933094
0.00823951
0.00719147
0.00620577
0.00529886
0.00448844
0.00377829
0.00316854
0.00265635
0.00223221
0.00188374
0.00160096
0.00137426
0.00119311
0.00104845
0.000933729
0.000843515
0.000773382
0.000719845
0.00068002
0.000651856
0.000633964
0.000625407
0.0006257
0.000634758
0.000652949
0.000681138
0.000720735
0.014039
0.0129744
0.0119139
0.0108612
0.00981975
0.00879879
0.00781383
0.00688529
0.00602341
0.00523915
0.00454168
0.00393076
0.00340175
0.00295168
0.00257465
0.00226153
0.00200284
0.00179196
0.00162228
0.00148775
0.00138339
0.00130481
0.00124871
0.00121288
0.00119571
0.00119637
0.00121468
0.00125128
0.00130763
0.00138595
0.0164334
0.0154039
0.0143853
0.0133903
0.0124003
0.011418
0.0104579
0.00952169
0.00861825
0.00776006
0.00696005
0.00622426
0.00555515
0.00495853
0.00443523
0.00398197
0.0035925
0.00326432
0.00299245
0.00277111
0.00259526
0.00246054
0.00236307
0.00230031
0.00227016
0.00227145
0.00230386
0.00236818
0.00246627
0.00260065
0.0187314
0.0177438
0.0167738
0.0158181
0.0148676
0.0139303
0.0130244
0.0121301
0.0112593
0.0104197
0.00961284
0.00884577
0.00812399
0.0074555
0.00684593
0.00629803
0.00580985
0.00538514
0.00502276
0.0047194
0.00447213
0.00427911
0.00413732
0.00404518
0.00400081
0.00400292
0.00405101
0.00414566
0.00428848
0.00448106
0.02088
0.0199594
0.019059
0.018151
0.0172458
0.016352
0.0154821
0.0146246
0.0137975
0.0130046
0.012234
0.0114934
0.0107939
0.0101305
0.00950952
0.0089368
0.00841435
0.0079484
0.00754093
0.00719156
0.00690045
0.0066693
0.00649706
0.00638419
0.00632983
0.00633264
0.0063921
0.00650828
0.0066818
0.00691238
0.0228649
0.022016
0.021189
0.0203479
0.0195083
0.0186731
0.0178444
0.0170296
0.0162402
0.0154793
0.0147405
0.0140333
0.0133752
0.0127462
0.0121505
0.0115953
0.0110918
0.0106363
0.0102315
0.00987854
0.00957983
0.00933956
0.00915852
0.00903915
0.00898185
0.00898504
0.00904833
0.00917142
0.00935367
0.00959331
0.0246972
0.023914
0.0231546
0.0223821
0.0216114
0.0208433
0.0200754
0.0193212
0.0185805
0.017856
0.0171548
0.0164827
0.015851
0.0152484
0.0146772
0.014145
0.0136727
0.013244
0.0128603
0.0125231
0.0122358
0.0120029
0.0118262
0.0117093
0.0116536
0.0116568
0.0117189
0.0118396
0.0120171
0.0122495
0.0263984
0.0256711
0.0249697
0.0242586
0.0235512
0.0228468
0.0221426
0.0214514
0.0207696
0.020099
0.0194511
0.0188262
0.0182245
0.0176522
0.0171108
0.0166061
0.0161536
0.0157433
0.0153761
0.0150533
0.0147783
0.0145545
0.0143842
0.0142715
0.0142181
0.0142212
0.014281
0.0143976
0.0145678
0.0147914
0.0279917
0.0273104
0.0266566
0.0259977
0.0253437
0.0246947
0.0240482
0.023414
0.0227898
0.0221758
0.0215835
0.0210107
0.0204537
0.0199247
0.0194254
0.0189589
0.0185285
0.0181386
0.0177903
0.0174848
0.0172255
0.0170139
0.0168529
0.0167461
0.0166957
0.0166984
0.0167548
0.0168652
0.0170252
0.0172371
0.0294981
0.0288541
0.0282387
0.0276228
0.0270122
0.0264092
0.0258115
0.0252256
0.0246517
0.0240892
0.0235474
0.0230234
0.0225133
0.0220291
0.0215736
0.0211475
0.0207498
0.0203892
0.0200679
0.0197871
0.0195498
0.0193558
0.019208
0.01911
0.0190634
0.0190655
0.0191173
0.0192184
0.0193644
0.0195591
0.0309355
0.0303213
0.0297365
0.0291557
0.0285801
0.0280143
0.0274566
0.0269103
0.0263779
0.025859
0.02536
0.0248779
0.0244101
0.0239665
0.0235506
0.0231619
0.0227982
0.022468
0.0221746
0.0219198
0.0217051
0.0215295
0.0213959
0.0213072
0.0212643
0.0212658
0.0213125
0.0214037
0.0215353
0.0217118
0.0311678
0.0306149
0.030068
0.0295319
0.0290063
0.0284924
0.0279933
0.0275096
0.0270456
0.0265979
0.0261657
0.0257566
0.0236881
0.0235288
0.023409
0.0233288
0.0232889
0.0232898
0.0233318
0.0234134
0.0235325
0.0236921
6.39775e-05
6.34013e-05
6.30214e-05
6.2804e-05
6.27081e-05
6.27209e-05
6.28474e-05
6.3089e-05
6.34464e-05
6.39336e-05
6.78615e-05
6.71912e-05
6.6682e-05
6.63288e-05
6.61252e-05
6.60322e-05
6.60462e-05
6.61674e-05
6.63949e-05
6.67237e-05
6.71596e-05
6.77153e-05
6.83468e-05
6.90552e-05
6.98284e-05
7.06638e-05
7.15562e-05
7.24999e-05
7.34903e-05
7.45234e-05
7.56108e-05
7.25455e-05
7.17401e-05
7.10323e-05
7.04774e-05
7.00392e-05
6.97128e-05
6.95104e-05
6.94176e-05
6.94292e-05
6.95432e-05
6.97575e-05
7.00675e-05
7.04584e-05
7.0954e-05
7.15474e-05
7.22218e-05
7.29649e-05
7.37706e-05
7.46326e-05
7.5545e-05
7.65018e-05
7.7496e-05
7.85282e-05
7.96128e-05
8.0714e-05
8.18468e-05
8.30263e-05
7.82822e-05
7.73175e-05
7.64322e-05
7.56033e-05
7.4882e-05
7.42745e-05
7.37889e-05
7.33839e-05
7.30789e-05
7.28824e-05
7.27901e-05
7.27985e-05
7.29052e-05
7.31075e-05
7.34012e-05
7.37812e-05
7.42382e-05
7.4799e-05
7.54419e-05
7.61548e-05
7.69302e-05
7.77614e-05
7.86419e-05
7.95652e-05
8.0524e-05
8.15023e-05
8.25203e-05
8.35783e-05
8.46685e-05
8.57918e-05
8.6973e-05
8.81784e-05
8.94492e-05
8.31938e-05
8.21593e-05
8.11829e-05
8.02916e-05
7.94639e-05
7.8726e-05
7.80746e-05
7.75212e-05
7.70548e-05
7.66733e-05
7.63852e-05
7.61962e-05
7.61057e-05
7.61115e-05
7.62116e-05
7.64035e-05
7.66836e-05
7.70483e-05
7.74948e-05
7.80306e-05
7.86452e-05
7.93293e-05
8.00751e-05
8.08758e-05
8.17248e-05
8.26155e-05
8.35405e-05
8.44931e-05
8.5463e-05
8.64821e-05
8.75331e-05
8.85989e-05
8.97042e-05
9.08538e-05
9.20515e-05
9.33209e-05
9.46218e-05
9.75974e-05
8.81238e-05
8.7025e-05
8.59798e-05
8.50205e-05
8.4137e-05
8.33114e-05
8.25381e-05
8.18542e-05
8.12387e-05
8.07078e-05
8.02608e-05
7.98979e-05
7.96238e-05
7.94423e-05
7.9354e-05
7.93579e-05
7.94523e-05
7.9635e-05
7.99032e-05
8.02541e-05
8.0686e-05
8.11999e-05
8.1789e-05
8.24457e-05
8.3163e-05
8.39341e-05
8.47525e-05
8.56117e-05
8.65051e-05
8.74273e-05
8.83756e-05
8.93608e-05
9.03743e-05
9.141e-05
9.24592e-05
9.35603e-05
9.46871e-05
9.58618e-05
9.70885e-05
9.98861e-05
9.19093e-05
9.07812e-05
8.9758e-05
8.88101e-05
8.79196e-05
8.70936e-05
8.63084e-05
8.55776e-05
8.492e-05
8.43334e-05
8.38247e-05
8.33962e-05
8.30493e-05
8.27873e-05
8.26129e-05
8.25272e-05
8.25296e-05
8.26189e-05
8.27933e-05
8.30505e-05
8.33882e-05
8.38046e-05
8.4298e-05
8.48634e-05
8.54942e-05
8.61841e-05
8.69264e-05
8.77151e-05
8.85438e-05
8.94069e-05
9.02999e-05
9.12212e-05
9.21735e-05
9.31519e-05
9.41522e-05
9.51741e-05
9.62322e-05
9.73194e-05
9.84248e-05
9.95911e-05
0.000102251
9.5607e-05
9.4473e-05
9.34675e-05
9.25194e-05
9.16335e-05
9.07847e-05
8.9988e-05
8.92382e-05
8.85426e-05
8.79127e-05
8.73515e-05
8.6864e-05
8.64529e-05
8.61205e-05
8.58693e-05
8.57017e-05
8.56186e-05
8.56199e-05
8.57047e-05
8.58715e-05
8.61183e-05
8.64431e-05
8.68438e-05
8.73178e-05
8.78607e-05
8.84668e-05
8.91302e-05
8.98447e-05
9.06044e-05
9.14035e-05
9.22369e-05
9.31006e-05
9.39927e-05
9.49127e-05
9.58571e-05
9.68234e-05
9.78125e-05
9.88304e-05
9.98742e-05
0.000100945
0.000102062
0.000104621
9.92044e-05
9.80643e-05
9.70608e-05
9.61392e-05
9.52401e-05
9.43872e-05
9.35749e-05
9.28096e-05
9.20919e-05
9.14275e-05
9.08243e-05
9.02868e-05
8.98193e-05
8.94248e-05
8.91059e-05
8.88648e-05
8.87035e-05
8.8623e-05
8.86235e-05
8.87042e-05
8.88639e-05
8.91009e-05
8.9413e-05
8.97982e-05
9.02536e-05
9.07749e-05
9.13572e-05
9.19948e-05
9.26821e-05
9.34135e-05
9.41837e-05
9.49877e-05
9.58218e-05
9.66836e-05
9.75714e-05
9.84823e-05
9.94146e-05
0.000100369
0.000101348
0.000102351
0.000103382
0.000104454
0.000106914
0.000102712
0.000101551
0.000100541
9.96233e-05
9.87374e-05
9.78806e-05
9.70625e-05
9.62842e-05
9.555e-05
9.48626e-05
9.42269e-05
9.36492e-05
9.31341e-05
9.26857e-05
9.23071e-05
9.20009e-05
9.17694e-05
9.16142e-05
9.15365e-05
9.15363e-05
9.16133e-05
9.17662e-05
9.19935e-05
9.22933e-05
9.26633e-05
9.31005e-05
9.3601e-05
9.41601e-05
9.47727e-05
9.54334e-05
9.61371e-05
9.68785e-05
9.76532e-05
9.84575e-05
9.92885e-05
0.000100144
0.000101021
0.000101919
0.000102838
0.000103778
0.000104742
0.000105732
0.000106759
0.000109119
0.000104945
0.000103909
0.000102987
0.000102104
0.000101255
0.000100436
9.96527e-05
9.89071e-05
9.82032e-05
9.75447e-05
9.69361e-05
9.63828e-05
9.58892e-05
9.54592e-05
9.50959e-05
9.48021e-05
9.45797e-05
9.44306e-05
9.43555e-05
9.43549e-05
9.44283e-05
9.45747e-05
9.47927e-05
9.50804e-05
9.54355e-05
9.58549e-05
9.63351e-05
9.68716e-05
9.74597e-05
9.80943e-05
9.87704e-05
9.94834e-05
0.000100229
0.000101003
0.000101803
0.000102626
0.000103469
0.000104332
0.000105214
0.000106116
0.00010704
0.000107988
0.000108971
0.00011123
0.000108211
0.000107148
0.000106223
0.000105343
0.000104498
0.000103686
0.000102903
0.000102153
0.000101439
0.000100764
0.000100134
9.95513e-05
9.90215e-05
9.85486e-05
9.81366e-05
9.77883e-05
9.75065e-05
9.72931e-05
9.71498e-05
9.70775e-05
9.70765e-05
9.71465e-05
9.72866e-05
9.74955e-05
9.77713e-05
9.81117e-05
9.85138e-05
9.8974e-05
9.94883e-05
0.000100052
0.000100661
0.00010131
0.000101995
0.00010271
0.000103454
0.000104222
0.000105013
0.000105822
0.00010665
0.000107495
0.000108358
0.000109241
0.000110147
0.000111083
0.000113242
0.000111297
0.000110217
0.000109305
0.000108443
0.000107607
0.000106801
0.000106024
0.000105275
0.000104558
0.000103875
0.00010323
0.000102627
0.000102069
0.000101562
0.00010111
0.000100715
0.000100382
0.000100112
9.99072e-05
9.97697e-05
9.97001e-05
9.96989e-05
9.97656e-05
9.98996e-05
0.0001001
0.000100364
0.000100689
0.000101074
0.000101515
0.000102008
0.000102548
0.000103131
0.000103753
0.000104409
0.000105095
0.000105808
0.000106545
0.000107301
0.000108077
0.000108868
0.000109676
0.0001105
0.000111341
0.000112203
0.000113092
0.000115152
0.000113167
0.000112218
0.000111387
0.000110569
0.000109775
0.000109007
0.000108265
0.000107551
0.000106866
0.000106213
0.000105597
0.00010502
0.000104488
0.000104003
0.000103571
0.000103193
0.000102874
0.000102616
0.00010242
0.000102288
0.000102222
0.00010222
0.000102284
0.000102412