/*--------------------------------*- C++ -*----------------------------------*\
  =========                 |
  \\      /  F ield         | OpenFOAM: The Open Source CFD Toolbox
   \\    /   O peration     | Website:  https://openfoam.org
    \\  /    A nd           | Version:  7
     \\/     M anipulation  |
\*---------------------------------------------------------------------------*/
FoamFile
{
    version     2.0;
    format      ascii;
    class       surfaceScalarField;
    location    "32000";
    object      phi;
}
// * * * * * * * * * * * * * * * * * * * * * * * * * * * * * * * * * * * * * //

dimensions      [0 3 -1 0 0 0 0];

internalField   nonuniform List<scalar> 
9474
(
3.14229e-24
-2.87056e-23
1.65297e-24
-5.80493e-23
2.88059e-24
2.81371e-23
-9.99744e-24
5.3303e-24
6.99378e-24
-4.39514e-24
5.09882e-24
3.45756e-23
4.97135e-24
2.19402e-23
4.2173e-24
1.96102e-23
5.55278e-24
6.64785e-23
9.87732e-24
8.21857e-23
9.61823e-24
-1.60318e-23
1.19417e-23
1.79751e-23
1.03183e-23
-8.01908e-23
8.34603e-24
1.50133e-23
4.89254e-24
-1.96516e-23
8.055e-24
1.79387e-23
4.49458e-24
-7.90487e-23
5.66594e-24
-5.925e-24
3.0085e-24
-1.85618e-23
1.99193e-24
-5.88439e-23
2.67241e-24
6.57187e-24
4.687e-24
-1.70488e-23
2.9293e-25
-4.564e-23
-1.00543e-25
-4.74396e-23
-2.48924e-24
8.27138e-24
-2.01e-24
5.29474e-24
-3.37821e-24
-4.1921e-23
-3.87152e-24
-2.67984e-24
-4.75272e-24
-5.13787e-23
-7.17158e-24
-2.97236e-23
-8.53424e-24
-1.5969e-23
-9.70821e-24
-2.70808e-23
-9.59887e-24
-2.9461e-23
-1.08029e-23
-1.90438e-23
-9.84542e-24
5.00956e-23
-5.80201e-24
6.50054e-23
-5.70788e-24
7.125e-23
3.37032e-23
5.31242e-24
-7.62843e-24
-4.63963e-24
5.22618e-24
5.30739e-23
4.90835e-24
1.0786e-23
4.30528e-24
2.58432e-23
5.64601e-24
5.62578e-23
9.49986e-24
4.87131e-23
9.45154e-24
8.45054e-26
1.17585e-23
2.49654e-23
1.02743e-23
-7.93338e-23
8.4249e-24
2.13573e-24
4.67987e-24
-2.91878e-23
7.9554e-24
3.31875e-23
4.51197e-24
-1.02578e-22
5.65266e-24
-1.90652e-23
2.87976e-24
-2.50737e-23
2.08498e-24
-6.75317e-23
2.70553e-24
-9.65376e-24
4.54657e-24
-1.54233e-23
4.16046e-25
-4.44243e-23
7.32569e-27
-4.29724e-23
-2.52479e-24
5.64256e-24
-2.01628e-24
7.72908e-24
-3.36523e-24
-3.93741e-23
-3.86974e-24
-1.66298e-24
-4.68885e-24
-3.88598e-23
-6.98919e-24
-2.94707e-23
-8.46722e-24
-3.28754e-23
-9.57663e-24
-3.05193e-23
-9.32863e-24
-1.80484e-23
-1.05166e-23
-1.2721e-23
-9.56081e-24
4.34298e-23
-5.72267e-24
6.69265e-23
-5.66173e-24
6.5739e-23
-5.02682e-24
2.69411e-23
-4.9661e-24
4.134e-23
-3.98059e-24
3.95937e-23
-1.8264e-24
4.0864e-23
-1.16568e-25
2.16984e-23
-3.07901e-24
1.22298e-23
-7.32207e-25
4.20138e-23
2.46322e-23
5.34509e-24
-1.74632e-23
-4.68334e-24
5.12721e-24
3.99701e-23
4.83635e-24
1.12518e-23
4.36911e-24
3.88745e-23
5.5783e-24
5.78261e-23
9.27262e-24
2.96874e-23
9.24385e-24
8.81222e-24
1.14909e-23
3.23625e-23
1.03884e-23
-6.00751e-23
8.41003e-24
1.58099e-23
4.68475e-24
-3.21755e-23
7.7557e-24
4.05778e-23
4.58327e-24
-1.01015e-22
5.51991e-24
-3.55596e-23
2.84994e-24
-3.09338e-23
2.03417e-24
-6.55736e-23
2.75558e-24
-1.40985e-23
4.43313e-24
-2.00427e-23
5.5537e-25
-4.29396e-23
5.36558e-26
-3.9693e-23
-2.45825e-24
-7.66657e-24
-2.086e-24
2.75738e-24
-3.31699e-24
-3.86106e-23
-3.82969e-24
-7.0839e-24
-4.66258e-24
-4.0363e-23
-6.87453e-24
-2.85343e-23
-8.35565e-24
-3.4623e-23
-9.38855e-24
-3.26016e-23
-9.05145e-24
-1.93038e-23
-1.02924e-23
-1.05948e-23
-9.25929e-24
4.27329e-23
-5.72077e-24
6.39008e-23
-5.53646e-24
6.42852e-23
-4.95608e-24
2.8408e-23
-4.93969e-24
4.03048e-23
-3.72595e-24
4.2778e-23
-1.94857e-24
2.90816e-23
-9.51001e-27
4.7468e-23
-2.96312e-24
-8.81361e-25
-8.33258e-25
3.52089e-23
2.78631e-24
1.78234e-23
1.59961e-24
3.13054e-23
-2.20439e-24
-2.29113e-23
1.18572e-23
5.61183e-24
-1.80516e-23
-4.53979e-24
5.09587e-24
3.14855e-23
4.99636e-24
2.35745e-23
4.26471e-24
3.32585e-23
5.43513e-24
5.78882e-23
9.29182e-24
1.9256e-23
9.13202e-24
9.32331e-24
1.12076e-23
1.98542e-23
1.04868e-23
-5.02621e-23
8.22537e-24
1.77414e-23
4.76889e-24
-3.10299e-23
7.36435e-24
3.53574e-23
4.76943e-24
-9.67948e-23
5.47212e-24
-3.26976e-23
2.77754e-24
-2.71413e-23
1.96555e-24
-5.07774e-23
2.75072e-24
-1.23444e-23
4.269e-24
-8.63595e-24
7.87175e-25
-4.16196e-23
3.04602e-27
-4.08728e-23
-2.38257e-24
-8.03709e-24
-2.09252e-24
6.51129e-24
-3.29197e-24
-3.00625e-23
-3.77395e-24
-6.25798e-24
-4.65404e-24
-4.22471e-23
-6.74952e-24
-1.31273e-23
-8.25336e-24
-3.5124e-23
-9.18612e-24
-3.34315e-23
-8.7531e-24
-2.26237e-23
-1.01134e-23
-1.85097e-23
-8.92562e-24
3.17948e-23
-5.71721e-24
6.32266e-23
-5.38642e-24
6.12688e-23
-4.85984e-24
2.67634e-23
-4.94962e-24
1.88317e-23
-3.61096e-24
4.4549e-23
-1.76259e-24
1.34929e-23
-2.53812e-25
4.00384e-23
-2.72723e-24
1.71477e-23
-8.68462e-25
3.63518e-23
3.00311e-24
1.60286e-23
1.59457e-24
1.72356e-23
-2.1291e-24
-1.86948e-23
-3.06247e-24
5.577e-24
-2.13753e-23
-4.62572e-24
5.1156e-24
1.73057e-23
4.94672e-24
9.89078e-24
4.20907e-24
4.0033e-23
5.28486e-24
3.34988e-23
9.22202e-24
2.68984e-23
8.91058e-24
1.49693e-23
1.11086e-23
2.00667e-23
1.04541e-23
-3.13345e-23
8.19224e-24
2.06371e-23
4.81011e-24
-3.09553e-23
6.96879e-24
1.68036e-23
4.85932e-24
-8.18344e-23
5.44389e-24
-1.68389e-23
2.69373e-24
-3.10353e-23
1.93561e-24
-5.55755e-23
2.85791e-24
1.78674e-24
4.09443e-24
-1.72361e-23
9.141e-25
-3.37799e-23
-5.53478e-26
-4.56557e-23
-2.22148e-24
-3.76128e-24
-2.09904e-24
-1.00465e-23
-3.27216e-24
-2.1775e-23
-3.72064e-24
1.65773e-25
-4.57034e-24
-3.87701e-23
-6.68678e-24
-4.9525e-24
-8.15616e-24
-2.98306e-23
-9.01717e-24
-3.4391e-23
-8.49089e-24
-1.37882e-23
-9.93086e-24
-2.00362e-23
-8.55901e-24
2.03767e-23
-5.7377e-24
6.15953e-23
-5.22746e-24
7.04435e-23
-4.93743e-24
1.39443e-23
-4.95186e-24
1.8532e-23
-3.40874e-24
3.77484e-23
-1.63631e-24
1.20203e-23
-2.38994e-25
3.34027e-23
-2.60235e-24
1.52624e-23
-9.15957e-25
2.61929e-23
2.95015e-24
2.133e-23
1.75954e-24
-2.70596e-24
-1.9948e-24
-1.41127e-23
-1.16334e-23
5.59255e-24
-2.51382e-23
-4.65269e-24
5.19835e-24
3.19826e-23
4.90166e-24
8.69412e-24
4.08852e-24
3.73562e-23
5.25908e-24
4.18729e-23
8.98583e-24
2.02152e-23
8.78357e-24
9.68674e-24
1.10205e-23
2.58023e-23
1.03223e-23
-5.48536e-23
8.21058e-24
5.63749e-24
4.71448e-24
-3.12852e-23
6.78524e-24
1.00471e-23
4.8683e-24
-6.94358e-23
5.45114e-24
-1.43634e-23
2.68268e-24
-3.61622e-23
1.94637e-24
-4.07179e-23
2.83508e-24
2.06029e-24
3.99191e-24
-1.31007e-23
9.4452e-25
-2.59515e-23
-4.27258e-26
-3.58049e-23
-2.17666e-24
-3.32932e-25
-2.01462e-24
-7.17098e-24
-3.27887e-24
-3.53316e-23
-3.67956e-24
2.83676e-25
-4.4745e-24
-3.92066e-23
-6.61713e-24
-2.99523e-24
-8.08204e-24
-3.13957e-23
-8.79658e-24
-2.87356e-23
-8.21937e-24
-1.17916e-23
-9.80678e-24
-3.25568e-23
-8.17291e-24
3.4982e-23
-5.65667e-24
4.91166e-23
-5.21199e-24
6.06006e-23
-4.87321e-24
1.46496e-23
-4.917e-24
1.22665e-23
-3.38864e-24
3.5951e-23
-1.54993e-24
1.14173e-23
-2.27545e-25
2.7834e-23
-2.45376e-24
2.3191e-23
-9.66008e-25
2.39504e-23
2.85956e-24
3.62159e-23
2.01126e-24
2.23798e-23
-1.89515e-24
-1.62227e-23
-1.38988e-23
5.71019e-24
-2.40527e-23
-4.58168e-24
5.14893e-24
1.34513e-23
4.95378e-24
8.51193e-24
3.98801e-24
4.06164e-23
5.13283e-24
4.04103e-23
8.75195e-24
1.67607e-23
8.72725e-24
3.18582e-24
1.07756e-23
3.04282e-23
1.0343e-23
-4.21e-23
8.07702e-24
1.93498e-23
4.61201e-24
-3.3931e-23
6.64052e-24
9.12835e-24
4.82758e-24
-9.98219e-23
5.34201e-24
-1.30531e-23
2.72663e-24
-3.46587e-23
1.88232e-24
-4.07908e-23
2.78859e-24
1.31922e-23
3.81917e-24
-3.65932e-24
1.02562e-24
-2.41195e-23
-9.76055e-26
-3.22905e-23
-2.11212e-24
-3.84142e-24
-1.9844e-24
-5.45973e-24
-3.22622e-24
-2.79666e-23
-3.65056e-24
-4.31064e-26
-4.37413e-24
-3.30238e-23
-6.54813e-24
-8.88959e-25
-7.99277e-24
-2.6284e-23
-8.57054e-24
-1.22897e-23
-8.0579e-24
-2.18224e-23
-9.50575e-24
-3.21975e-23
-7.89977e-24
3.63406e-23
-5.55896e-24
4.14554e-23
-5.07124e-24
5.70289e-23
-4.85792e-24
8.97627e-24
-4.85593e-24
1.75589e-23
-3.14265e-24
2.70132e-23
-1.5723e-24
1.06204e-23
-2.42329e-25
2.68677e-23
-2.28153e-24
2.41938e-23
-1.01226e-24
2.88757e-23
2.93e-24
3.15581e-23
2.02748e-24
2.4077e-23
-1.75963e-24
-2.83148e-23
-2.28291e-24
-5.3219e-24
-5.37449e-24
5.7544e-24
-2.31838e-23
-4.55575e-24
5.13095e-24
1.28837e-23
4.81743e-24
-2.74927e-24
3.97416e-24
4.39623e-23
4.93061e-24
3.56792e-23
8.63794e-24
1.91863e-23
8.67953e-24
1.13922e-23
1.04552e-23
4.28737e-23
1.03065e-23
-2.94486e-23
7.91232e-24
1.4884e-23
4.44249e-24
-4.24008e-23
6.39757e-24
1.29022e-23
4.8375e-24
-8.91791e-23
5.29676e-24
-7.562e-24
2.65e-24
-4.41846e-23
1.92645e-24
-3.30859e-23
2.80351e-24
6.14563e-24
3.66217e-24
5.9489e-24
1.13687e-24
-2.16272e-23
-1.5532e-25
-4.00783e-23
-2.07576e-24
-8.31191e-24
-1.94347e-24
2.50087e-24
-3.1825e-24
-3.16025e-23
-3.58697e-24
-6.05084e-24
-4.28398e-24
-3.36637e-23
-6.4722e-24
-2.69458e-24
-7.83256e-24
-2.10317e-23
-8.4507e-24
-1.31213e-23
-7.84402e-24
-2.03011e-23
-9.22092e-24
-3.24208e-23
-7.69079e-24
5.02076e-23
-5.48063e-24
3.96334e-23
-5.08666e-24
4.61021e-23
-4.75963e-24
1.57361e-23
-4.87109e-24
1.40971e-23
-2.91083e-24
3.44939e-23
-1.50919e-24
1.57753e-23
-1.76133e-25
3.01723e-23
-2.1247e-24
1.44827e-23
-9.64639e-25
4.01451e-23
2.97374e-24
4.11907e-23
2.09366e-24
1.3937e-23
-1.65802e-24
-5.32456e-23
-2.0831e-24
-3.46631e-24
-1.25955e-23
5.77727e-24
-2.09357e-23
-4.4807e-24
5.12546e-24
1.39569e-23
4.77132e-24
-2.45542e-23
3.90068e-24
3.46698e-23
4.76516e-24
4.70414e-23
8.55199e-24
4.43331e-23
8.5217e-24
9.63658e-24
1.03303e-23
4.32758e-23
1.01227e-23
-1.67279e-23
7.75827e-24
1.72551e-23
4.51616e-24
-5.52896e-23
6.09838e-24
7.24712e-24
4.96305e-24
-7.9167e-23
5.11586e-24
-2.40549e-23
2.69718e-24
-4.22599e-23
1.88227e-24
-2.66912e-23
2.76444e-24
5.15268e-24
3.52141e-24
2.12657e-24
1.13455e-24
-3.18397e-23
-1.90654e-25
-3.21861e-23
-1.98976e-24
-7.61206e-24
-1.95464e-24
9.83535e-24
-3.14851e-24
-2.42839e-23
-3.50373e-24
-1.24098e-23
-4.18417e-24
-3.38361e-23
-6.3716e-24
-6.41895e-24
-7.70223e-24
-2.18198e-23
-8.28266e-24
-1.43187e-23
-7.64947e-24
-1.78982e-23
-8.9063e-24
-3.27789e-23
-7.52824e-24
4.06991e-23
-5.36589e-24
3.7349e-23
-4.95861e-24
4.98228e-23
-4.69392e-24
1.11789e-23
-4.85673e-24
2.96689e-23
-2.73048e-24
4.30144e-23
-1.39695e-24
2.71859e-23
-2.16418e-25
2.41344e-23
-1.95657e-24
1.47154e-23
-1.07118e-24
4.36299e-23
2.9673e-24
3.55205e-23
2.1125e-24
1.61055e-23
-1.48086e-24
-4.79629e-23
-2.00298e-24
-1.25886e-24
-1.95146e-23
5.74313e-24
-2.03721e-24
-4.49059e-24
5.03608e-24
1.97948e-23
4.83664e-24
-2.37022e-23
3.72632e-24
3.60269e-23
4.7216e-24
4.52902e-23
8.35361e-24
5.07039e-23
8.39803e-24
8.67788e-24
1.01077e-23
4.72585e-23
9.95124e-24
-1.56811e-23
7.50224e-24
4.27836e-24
4.35211e-24
-5.21795e-23
5.90902e-24
1.2275e-23
4.91834e-24
-7.08324e-23
5.17866e-24
-2.8885e-23
2.63944e-24
-4.51465e-23
1.89712e-24
-1.39096e-23
2.70869e-24
-6.95016e-24
3.42249e-24
1.58617e-23
1.1328e-24
-2.9853e-23
-1.99864e-25
-3.27848e-23
-1.90172e-24
-7.61216e-24
-1.92452e-24
9.82319e-24
-3.13842e-24
-3.51899e-23
-3.41267e-24
-1.49476e-23
-4.07807e-24
-3.4301e-23
-6.27062e-24
-5.14364e-24
-7.57397e-24
-1.73121e-23
-8.12504e-24
-4.29963e-24
-7.47084e-24
-7.31106e-24
-8.60162e-24
-3.29699e-23
-7.34759e-24
3.87088e-23
-5.25825e-24
3.94494e-23
-4.89192e-24
4.40825e-23
-4.58356e-24
1.13229e-23
-4.7758e-24
2.16263e-23
-2.65362e-24
4.8406e-23
-1.42915e-24
3.24549e-23
-1.34445e-25
3.5883e-23
-1.675e-24
1.29342e-23
-1.0741e-24
4.4581e-23
2.92665e-24
4.78226e-23
2.19453e-24
1.73421e-23
-1.37914e-24
-4.84803e-23
-1.88933e-24
-4.57332e-24
5.75176e-24
4.71648e-24
-4.42662e-24
4.96245e-24
1.21327e-23
4.80297e-24
-2.89325e-23
3.71746e-24
4.21379e-23
4.6404e-24
4.08603e-23
8.1948e-24
3.72689e-23
8.2074e-24
9.04646e-24
9.8577e-24
5.23278e-23
9.85203e-24
-1.7533e-23
7.31351e-24
1.14896e-23
4.27218e-24
-4.96802e-23
5.75781e-24
1.1603e-23
4.81039e-24
-6.03199e-23
5.05368e-24
-2.98703e-23
2.69561e-24
-3.26114e-23
1.80424e-24
-1.22274e-23
2.73595e-24
-2.13304e-23
3.2517e-24
8.06393e-24
1.1018e-24
-3.70895e-23
-1.5823e-25
-1.62159e-23
-1.85111e-24
-7.80054e-24
-1.92827e-24
9.56774e-24
-3.11882e-24
-3.33341e-23
-3.32248e-24
-1.72545e-23
-3.95584e-24
-3.4427e-23
-6.15997e-24
-3.76099e-24
-7.40662e-24
-2.19432e-23
-7.96343e-24
-4.69551e-24
-7.29423e-24
-1.00842e-23
-8.33761e-24
-3.76462e-23
-7.14868e-24
3.84283e-23
-5.11907e-24
3.62822e-23
-4.79296e-24
5.56875e-23
-4.45012e-24
1.234e-23
-4.69567e-24
1.94466e-23
-2.49232e-24
4.8246e-23
-1.38602e-24
3.21991e-23
-1.40811e-25
3.96076e-23
-1.5674e-24
1.27002e-23
-1.0463e-24
4.69984e-23
2.77881e-24
3.88389e-23
2.18674e-24
1.90168e-23
-1.20409e-24
-5.44629e-23
5.01529e-24
5.68925e-24
-1.87161e-24
-4.50759e-24
4.84119e-24
4.21188e-24
4.83813e-24
-2.46122e-23
3.69347e-24
2.13143e-23
4.47322e-24
4.04125e-23
8.06183e-24
5.09041e-23
8.09882e-24
1.30647e-23
9.49707e-24
5.29575e-23
9.67258e-24
1.1194e-23
7.13601e-24
-7.13409e-24
4.16887e-24
-3.61065e-23
5.69777e-24
1.16073e-23
4.64158e-24
-4.42847e-23
5.05867e-24
-3.48387e-23
2.63529e-24
-2.20687e-23
1.72528e-24
-1.09569e-23
2.77853e-24
-3.02295e-23
3.1399e-24
1.89924e-23
1.07279e-24
-3.72091e-23
-1.93988e-25
-6.89551e-24
-1.82757e-24
-1.35072e-23
-1.92904e-24
8.01942e-24
-3.08465e-24
-2.42877e-23
-3.24957e-24
-1.86085e-23
-3.81115e-24
-3.87077e-23
-6.07024e-24
-5.75352e-24
-7.20778e-24
-2.25513e-23
-7.80311e-24
7.57281e-25
-7.12867e-24
-1.05079e-23
-8.01397e-24
-3.50473e-23
-6.96207e-24
3.16468e-23
-4.93815e-24
3.2997e-23
-4.75009e-24
4.99244e-23
-4.38277e-24
1.33318e-23
-4.59918e-24
5.34179e-24
-2.35546e-24
3.17918e-23
-1.419e-24
3.16244e-23
-1.14065e-25
2.83324e-23
-1.527e-24
2.63502e-24
-1.04935e-24
3.34018e-23
2.80598e-24
5.74165e-23
2.14599e-24
-3.08157e-25
-9.69908e-25
-5.09749e-23
-7.7655e-24
5.63962e-24
-9.59199e-24
-4.50848e-24
4.74119e-24
5.00504e-24
4.71533e-24
-2.43776e-23
3.68832e-24
3.34034e-23
4.39339e-24
2.90806e-23
7.91328e-24
5.91796e-23
7.95782e-24
4.86821e-24
9.29149e-24
5.84356e-23
9.40408e-24
1.34397e-23
7.00779e-24
-2.53629e-24
3.99903e-24
-4.93672e-23
5.597e-24
1.16247e-23
4.54981e-24
-4.14358e-23
5.03697e-24
-3.48713e-23
2.58292e-24
-2.61087e-23
1.61751e-24
-9.82316e-24
2.77776e-24
-1.61592e-23
3.00501e-24
2.49693e-23
1.13124e-24
-4.03889e-23
-2.56589e-25
-3.19764e-24
-1.7679e-24
-1.88386e-23
-1.92323e-24
6.67303e-24
-3.05763e-24
-2.15623e-23
-3.18108e-24
-1.54473e-23
-3.65382e-24
-3.85855e-23
-5.99754e-24
-1.35024e-23
-6.98831e-24
-2.30616e-23
-7.66582e-24
-8.09774e-24
-6.95323e-24
-5.47545e-24
-7.73017e-24
-3.46019e-23
-6.81126e-24
2.74323e-23
-4.77607e-24
2.85757e-23
-4.67999e-24
4.16328e-23
-4.32596e-24
9.94828e-24
-4.506e-24
-2.73175e-24
-2.23488e-24
3.10657e-23
-1.44099e-24
2.08534e-23
-8.38027e-26
2.77188e-23
-1.38179e-24
4.60147e-24
-9.90069e-25
3.9431e-23
2.65723e-24
5.40817e-23
2.19843e-24
-1.36654e-24
-8.62568e-25
-6.41519e-23
-6.94965e-25
5.57647e-24
-1.73769e-23
-4.385e-24
4.69519e-24
1.13733e-24
4.71708e-24
-1.29144e-23
3.64618e-24
3.43208e-23
4.37168e-24
2.65016e-23
7.73145e-24
5.63133e-23
7.82731e-24
1.77565e-23
9.16881e-24
6.75147e-23
9.10931e-24
1.47344e-23
6.83276e-24
1.9006e-24
3.9852e-24
-4.46875e-23
5.37264e-24
1.28391e-23
4.39396e-24
-4.23672e-23
5.02852e-24
-4.32971e-23
2.54138e-24
-2.22851e-23
1.57886e-24
-1.35235e-23
2.76642e-24
-1.30136e-23
2.84933e-24
2.15398e-23
1.13437e-24
-3.48625e-23
-3.11237e-25
-9.24849e-24
-1.7033e-24
-1.86412e-23
-1.91201e-24
6.17153e-24
-3.01821e-24
-2.16035e-23
-3.14202e-24
-1.15324e-23
-3.52484e-24
-3.95871e-23
-5.87224e-24
-2.74245e-23
-6.79855e-24
-2.28531e-23
-7.47825e-24
1.25447e-24
-6.7895e-24
-5.78378e-24
-7.51017e-24
-3.48588e-23
-6.57186e-24
2.54348e-23
-4.64382e-24
2.42388e-23
-4.60668e-24
4.85515e-23
-4.30183e-24
1.08164e-23
-4.39622e-24
3.83916e-24
-2.16122e-24
2.42557e-23
-1.34588e-24
2.11498e-23
1.94076e-26
2.65565e-23
-1.31636e-24
5.1631e-24
-9.0829e-25
4.94401e-23
2.47823e-24
5.1281e-23
2.11191e-24
-6.15779e-24
-7.06067e-25
-6.15176e-23
-1.21616e-23
5.43076e-24
-2.47316e-23
-4.30567e-24
4.74268e-24
6.89921e-24
4.6634e-24
-2.22543e-23
3.60097e-24
3.4211e-23
4.2171e-24
2.04025e-23
7.58035e-24
5.3462e-23
7.78347e-24
2.37962e-23
8.84894e-24
6.78143e-23
8.81717e-24
1.73411e-23
6.6717e-24
6.29204e-24
3.95768e-24
-5.04664e-23
5.20258e-24
1.06433e-23
4.25792e-24
-4.33657e-23
5.0269e-24
-4.05664e-23
2.47042e-24
-3.06727e-23
1.5607e-24
-2.1929e-23
2.73196e-24
-1.58769e-23
2.71572e-24
6.31722e-24
1.08855e-24
-3.65229e-23
-3.28907e-25
-2.3777e-24
-1.6504e-24
-1.40531e-23
-1.87653e-24
1.19133e-24
-2.97012e-24
-2.39368e-23
-3.10476e-24
-1.07903e-23
-3.43164e-24
-2.94958e-23
-5.70372e-24
-2.54808e-23
-6.59754e-24
-2.2636e-23
-7.31802e-24
6.83139e-24
-6.62607e-24
-1.78159e-24
-7.25747e-24
-3.04965e-23
-6.38478e-24
2.78537e-23
-4.48645e-24
2.3516e-23
-4.54962e-24
5.89846e-23
-4.18779e-24
1.5505e-23
-4.38223e-24
-5.55079e-24
-1.97473e-24
2.57911e-23
-1.31853e-24
2.30909e-23
-2.30759e-26
2.99282e-23
-1.18002e-24
4.93262e-24
-9.00653e-25
6.18249e-23
2.33712e-24
4.81448e-23
2.13532e-24
-1.2013e-24
-5.85898e-25
-5.86722e-23
-1.44529e-23
5.44365e-24
-2.72684e-23
-4.17611e-24
4.59184e-24
-8.42124e-24
4.67503e-24
-1.8389e-23
3.51431e-24
2.37051e-23
4.12436e-24
1.54041e-23
7.369e-24
3.43353e-23
7.6393e-24
1.53257e-23
8.592e-24
5.30863e-23
8.58769e-24
1.85922e-23
6.38371e-24
1.11418e-23
3.857e-24
-4.24859e-23
5.13436e-24
1.00323e-23
4.11143e-24
-5.43628e-23
4.99185e-24
-1.99546e-23
2.41736e-24
-3.93808e-23
1.51475e-24
-1.49392e-23
2.63918e-24
-1.31544e-23
2.65745e-24
-1.23704e-24
1.05337e-24
-3.33877e-23
-3.54805e-25
-9.8878e-24
-1.60742e-24
-8.02851e-24
-1.87588e-24
-2.02257e-24
-2.88825e-24
-2.15874e-23
-3.06518e-24
-1.42851e-23
-3.35227e-24
-2.00293e-23
-5.55671e-24
-2.26847e-23
-6.34848e-24
-1.28983e-23
-7.1849e-24
-1.68982e-24
-6.44972e-24
2.60058e-24
-7.00256e-24
-3.02242e-23
-6.22378e-24
2.41847e-23
-4.26759e-24
1.95674e-23
-4.52995e-24
4.76403e-23
-4.17478e-24
1.13289e-23
-4.20999e-24
-3.80735e-24
-1.84245e-24
3.7754e-23
-1.37526e-24
1.43174e-23
2.72372e-26
4.63214e-23
-1.06505e-24
2.7676e-24
-8.30198e-25
7.48478e-23
2.12478e-24
3.52765e-23
2.17375e-24
1.17508e-24
-4.0367e-25
-4.54258e-23
-2.11883e-23
5.35751e-24
-2.91064e-23
-4.07153e-24
4.53908e-24
-1.14752e-23
4.63454e-24
-1.32482e-23
3.452e-24
1.02881e-23
4.06239e-24
1.07197e-23
7.32023e-24
1.57966e-23
7.48808e-24
6.21742e-24
8.42687e-24
4.25977e-23
8.31395e-24
3.23801e-24
6.22211e-24
1.86092e-23
3.7978e-24
-3.78653e-23
4.92648e-24
5.73516e-24
4.05021e-24
-4.48039e-23
4.86281e-24
-2.13075e-23
2.38311e-24
-3.81976e-23
1.5035e-24
-9.26476e-24
2.51245e-24
-1.32856e-23
2.61727e-24
2.3645e-24
1.00387e-24
-3.03741e-23
-3.43405e-25
-8.07958e-24
-1.59381e-24
-1.16041e-23
-1.86529e-24
-5.37932e-24
-2.80656e-24
-9.60237e-24
-2.98425e-24
-7.26915e-24
-3.28901e-24
-1.91073e-23
-5.39227e-24
-2.01492e-23
-6.17033e-24
-3.40897e-24
-7.00268e-24
-4.86415e-24
-6.30673e-24
3.08339e-24
-6.73502e-24
-2.82286e-23
-6.05638e-24
1.55382e-23
-4.10741e-24
1.5275e-23
-4.50882e-24
3.88528e-23
-4.08166e-24
1.08957e-23
-4.10989e-24
-1.25344e-23
-1.81206e-24
5.03723e-23
-1.23202e-24
1.34059e-23
6.5705e-26
4.63099e-23
-9.41265e-25
3.40893e-24
-9.32095e-25
5.37497e-23
1.98207e-24
2.87704e-23
2.19779e-24
1.55974e-23
-4.29426e-25
-4.22029e-23
-1.40253e-23
5.25439e-24
-3.60743e-23
-3.96839e-24
4.53987e-24
-1.87185e-23
4.53968e-24
-8.96123e-24
3.43416e-24
-1.06911e-24
3.97352e-24
-4.91102e-24
7.2011e-24
1.2884e-23
7.31551e-24
7.96111e-24
8.22198e-24
4.10258e-23
8.14701e-24
7.46175e-24
5.98711e-24
2.1753e-23
3.64089e-24
-3.36637e-23
4.81932e-24
5.31104e-24
3.90988e-24
-3.94556e-23
4.77708e-24
-2.81567e-23
2.37098e-24
-3.98293e-23
1.44756e-24
-1.1421e-23
2.43188e-24
-2.11503e-23
2.5011e-24
-1.32092e-24
9.75039e-25
-2.92627e-23
-3.52689e-25
-9.07368e-24
-1.54945e-24
-1.81019e-24
-1.8147e-24
-4.09718e-24
-2.75375e-24
-1.70007e-23
-2.91628e-24
-6.49843e-24
-3.2183e-24
-1.79879e-23
-5.20195e-24
-1.82886e-23
-6.03858e-24
-2.05866e-24
-6.79926e-24
-3.94959e-24
-6.16121e-24
3.62592e-24
-6.52794e-24
-2.84337e-23
-5.87766e-24
6.48887e-24
-3.95004e-24
1.49255e-23
-4.42569e-24
4.95444e-23
-4.01951e-24
9.53599e-24
-3.93854e-24
-1.36291e-23
-1.80907e-24
4.92513e-23
-1.13578e-24
3.36427e-23
1.23954e-25
4.78205e-23
-8.82618e-25
4.75096e-24
-9.36594e-25
5.66469e-23
1.91005e-24
2.84053e-23
2.1089e-24
1.10012e-23
-3.34397e-25
-4.40948e-23
-1.038e-23
5.09804e-24
-3.40922e-23
-3.87488e-24
4.5228e-24
-1.77693e-23
4.42725e-24
-7.28954e-24
3.35953e-24
4.53843e-25
3.84722e-24
-7.29032e-24
7.08736e-24
1.04243e-23
7.19075e-24
8.69866e-24
8.02665e-24
3.62937e-23
8.01618e-24
6.93086e-24
5.76363e-24
1.15574e-23
3.47271e-24
-2.95196e-23
4.71953e-24
3.76143e-24
3.71772e-24
-4.0043e-23
4.72882e-24
-3.07829e-23
2.33362e-24
-4.72026e-23
1.41316e-24
-1.50293e-23
2.38051e-24
-2.56594e-23
2.40203e-24
-1.35096e-23
9.03111e-25
-2.85061e-23
-3.29797e-25
-6.54802e-24
-1.53739e-24
-3.03479e-24
-1.78881e-24
-2.23905e-24
-2.6719e-24
-1.33268e-23
-2.84608e-24
-2.23342e-24
-3.1399e-24
-1.57869e-23
-5.01837e-24
-1.65227e-23
-5.90048e-24
2.10334e-24
-6.61524e-24
-2.31867e-24
-6.01415e-24
2.92727e-24
-6.31759e-24
-1.89363e-23
-5.68097e-24
-1.91543e-24
-3.77889e-24
1.50289e-23
-4.38239e-24
4.0391e-23
-3.9724e-24
1.22788e-23
-3.76827e-24
-1.50815e-23
-1.72067e-24
5.62344e-23
-1.12302e-24
3.28844e-23
1.3674e-25
4.58796e-23
-8.0973e-25
5.98671e-24
-9.33123e-25
4.82694e-23
1.80185e-24
3.21007e-23
2.0245e-24
3.35999e-23
-2.39594e-25
-4.1233e-23
-7.18887e-24
5.00076e-24
-3.64218e-23
-3.76004e-24
4.43637e-24
-1.66234e-23
4.38141e-24
-1.81189e-23
3.2026e-24
7.05979e-24
3.80361e-24
1.35207e-23
6.95582e-24
3.78223e-24
7.06382e-24
-1.50983e-25
7.8063e-24
3.72009e-23
7.74767e-24
-4.46035e-24
5.63362e-24
4.41271e-24
3.37708e-24
-2.60097e-23
4.54973e-24
2.93831e-24
3.60426e-24
-3.19065e-23
4.6379e-24
-2.18487e-23
2.29567e-24
-4.43238e-23
1.36006e-24
-2.58153e-23
2.33468e-24
-2.767e-23
2.29453e-24
-2.61245e-23
9.02277e-25
-2.41711e-23
-3.28502e-25
-1.45965e-23
-1.52891e-24
-2.42004e-24
-1.77375e-24
3.39089e-24
-2.59321e-24
-2.11008e-23
-2.77979e-24
-1.12471e-23
-3.05676e-24
-1.3016e-23
-4.84096e-24
-1.54081e-23
-5.74958e-24
6.24014e-24
-6.44292e-24
-9.78525e-25
-5.81742e-24
5.23021e-24
-6.16521e-24
-1.97771e-23
-5.47839e-24
9.3662e-24
-3.63769e-24
1.25909e-23
-4.3189e-24
4.63034e-23
-3.91037e-24
1.95086e-23
-3.6014e-24
-1.29203e-23
-1.66285e-24
5.17214e-23
-1.10242e-24
2.27627e-23
9.84882e-26
3.44522e-23
-8.02417e-25
6.86638e-24
-9.48604e-25
4.05046e-23
1.79741e-24
3.0353e-23
1.97976e-24
2.85395e-23
-1.71934e-25
-3.85948e-23
5.27391e-24
4.9509e-24
-3.03305e-23
-3.63612e-24
4.33467e-24
-1.49304e-23
4.38274e-24
-1.00844e-23
3.15205e-24
-4.42869e-24
3.70085e-24
1.17939e-23
6.78883e-24
1.88209e-24
6.95195e-24
7.82908e-24
7.57987e-24
2.89518e-23
7.51844e-24
-8.58739e-24
5.46228e-24
-7.44555e-24
3.21087e-24
-3.35716e-23
4.43062e-24
1.51942e-23
3.51803e-24
-2.72948e-23
4.51043e-24
-1.82953e-23
2.21083e-24
-4.14555e-23
1.32769e-24
-9.16154e-24
2.20338e-24
-3.06548e-23
2.27995e-24
-2.12233e-23
8.58782e-25
-1.99987e-23
-3.33777e-25
-1.23117e-23
-1.47371e-24
8.55504e-24
-1.78746e-24
4.95371e-24
-2.50708e-24
-1.88152e-23
-2.68853e-24
-1.79574e-23
-2.98385e-24
-7.74826e-24
-4.65174e-24
-1.43204e-23
-5.61388e-24
4.68291e-24
-6.27464e-24
-4.11085e-25
-5.65509e-24
5.44779e-24
-6.00326e-24
-2.53631e-23
-5.27917e-24
2.3758e-24
-3.51623e-24
1.82062e-23
-4.21616e-24
3.70844e-23
-3.85914e-24
2.67054e-23
-3.43147e-24
-3.88635e-24
-1.6353e-24
4.96207e-23
-1.09034e-24
2.39563e-23
1.04686e-25
3.08142e-23
-7.81263e-25
-6.09753e-25
-8.59031e-25
4.25963e-23
1.72118e-24
3.42895e-23
1.90547e-24
2.77145e-23
-8.30266e-26
-3.0818e-23
-5.2659e-25
-8.75144e-24
-3.08723e-24
4.85903e-24
-1.69705e-23
-3.53183e-24
4.24811e-24
-1.18726e-23
4.2921e-24
-5.87572e-24
3.13593e-24
-3.22021e-24
3.52718e-24
9.94598e-24
6.63023e-24
7.97175e-24
6.80175e-24
7.54386e-24
7.34961e-24
2.05186e-23
7.33177e-24
-1.28349e-23
5.32875e-24
-4.11137e-24
3.12099e-24
-2.51689e-23
4.30567e-24
2.33017e-23
3.40618e-24
-2.15093e-23
4.39918e-24
-2.90335e-23
2.18156e-24
-4.24041e-23
1.24209e-24
-2.27125e-23
2.15003e-24
-2.46334e-23
2.2307e-24
-1.90398e-23
8.29347e-25
-2.00207e-23
-2.90372e-25
-1.26422e-23
-1.48254e-24
4.10692e-24
-1.79063e-24
6.39136e-24
-2.4602e-24
-1.34427e-23
-2.55913e-24
-1.47035e-23
-2.92285e-24
-1.36865e-23
-4.47186e-24
-1.3073e-23
-5.47084e-24
-4.2554e-25
-6.08793e-24
7.71094e-26
-5.51948e-24
1.44333e-23
-5.83299e-24
-2.23161e-23
-5.04291e-24
4.78282e-24
-3.44776e-24
1.3837e-23
-4.11124e-24
3.48827e-23
-3.82047e-24
2.42401e-23
-3.34325e-24
9.14529e-24
-1.59372e-24
4.31685e-23
-1.07469e-24
3.25251e-23
1.02589e-25
2.72658e-23
-7.59139e-25
-1.06866e-23
-8.64821e-25
3.29711e-23
1.61929e-24
3.51294e-23
1.83765e-24
3.54345e-23
-3.14195e-26
-2.00727e-23
-3.82953e-25
-1.23705e-23
-1.50778e-24
4.78588e-24
-1.08074e-23
-3.43202e-24
4.21586e-24
-2.19355e-23
4.21348e-24
-1.31983e-23
3.07558e-24
-1.98478e-23
3.45539e-24
8.57551e-24
6.56467e-24
1.67144e-23
6.59129e-24
7.79287e-24
7.14092e-24
1.60305e-23
7.08674e-24
-1.34315e-23
5.11505e-24
-9.32463e-25
3.04851e-24
-2.60486e-23
4.19042e-24
2.2248e-23
3.22891e-24
-1.94977e-23
4.32469e-24
-2.76643e-23
2.09951e-24
-3.98445e-23
1.18646e-24
-3.30844e-23
2.05122e-24
-2.64778e-23
2.12642e-24
-1.26304e-23
7.93901e-25
-1.62805e-23
-2.61909e-25
-1.44592e-23
-1.46868e-24
7.97156e-24
-1.80067e-24
7.81283e-24
-2.40269e-24
-1.25841e-23
-2.45331e-24
-1.93881e-23
-2.84001e-24
-1.75662e-23
-4.32039e-24
-1.57675e-23
-5.3071e-24
1.82267e-24
-5.90533e-24
-8.37358e-24
-5.3901e-24
1.00907e-23
-5.64942e-24
-2.23293e-23
-4.83579e-24
6.37934e-24
-3.32309e-24
9.75579e-24
-3.98256e-24
2.15657e-23
-3.72833e-24
2.18298e-23
-3.30368e-24
1.02423e-23
-1.51279e-24
4.79536e-23
-1.08978e-24
3.00928e-23
7.74432e-26
3.04694e-23
-6.97797e-25
-9.35641e-24
-8.23973e-25
3.52753e-23
1.58867e-24
2.29227e-23
1.78022e-24
3.54604e-23
-7.15005e-27
-1.75621e-23
-2.87393e-25
-8.28228e-24
-1.23822e-23
4.60821e-24
-4.95759e-24
-3.36326e-24
4.11265e-24
-3.92991e-23
4.10509e-24
-9.18608e-24
3.03981e-24
-1.86358e-23
3.31104e-24
-5.0578e-26
6.38219e-24
1.37647e-23
6.44419e-24
4.02e-24
6.95216e-24
1.63612e-23
6.88164e-24
-1.39823e-23
4.94482e-24
-2.14095e-24
2.97966e-24
-1.62456e-23
4.06779e-24
2.83191e-23
3.06833e-24
-1.75127e-23
4.22144e-24
-1.91709e-23
2.01836e-24
-4.11186e-23
1.1318e-24
-3.69715e-23
1.97445e-24
-2.59965e-23
2.08086e-24
-1.12778e-23
7.11098e-25
-1.8107e-23
-2.04266e-25
-1.2548e-23
-1.48081e-24
-2.07633e-24
-1.78332e-24
1.03919e-23
-2.37772e-24
-1.18939e-23
-2.35015e-24
-1.80192e-23
-2.75268e-24
-1.79839e-23
-4.15363e-24
-1.46862e-23
-5.16585e-24
1.04302e-24
-5.71268e-24
-9.74247e-24
-5.24811e-24
1.0199e-23
-5.46146e-24
-1.76922e-23
-4.65245e-24
4.0406e-24
-3.264e-24
1.11991e-23
-3.84727e-24
2.23684e-23
-3.63404e-24
2.04804e-23
-3.2229e-24
1.20123e-23
-1.4741e-24
4.58006e-23
-1.08876e-24
3.17415e-23
1.46847e-26
2.64446e-23
-6.55737e-25
-1.64941e-23
-8.13756e-25
2.14939e-23
1.55873e-24
2.11608e-23
1.66836e-24
3.56731e-23
-3.11453e-26
-1.5904e-23
-1.4361e-25
2.83067e-24
4.48175e-24
-9.35218e-24
-3.31435e-24
4.10628e-24
-2.86043e-23
4.06483e-24
-8.44371e-24
2.99264e-24
-2.47492e-23
3.2894e-24
6.06061e-24
6.18694e-24
1.84019e-23
6.31943e-24
3.69226e-24
6.69616e-24
1.3895e-23
6.65715e-24
-1.4991e-23
4.80288e-24
-3.05569e-24
2.88567e-24
-1.40897e-23
3.90621e-24
2.62134e-23
2.94445e-24
-1.09171e-23
4.09394e-24
-2.02207e-23
1.92158e-24
-3.88909e-23
1.11424e-24
-3.79524e-23
1.88419e-24
-3.35277e-23
2.01068e-24
-7.09705e-24
6.59302e-25
-1.21889e-23
-2.06489e-25
-1.58866e-23
-1.44381e-24
-8.46975e-24
-1.78245e-24
1.13913e-23
-2.33473e-24
-1.48873e-23
-2.26133e-24
-1.72266e-23
-2.66259e-24
-1.55345e-23
-3.99335e-24
-1.77764e-23
-5.03084e-24
-3.00575e-24
-5.52055e-24
-9.49776e-24
-5.10119e-24
1.05157e-23
-5.30355e-24
-1.7015e-23
-4.45915e-24
1.48712e-24
-3.18739e-24
9.13769e-24
-3.71778e-24
1.8804e-23
-3.52828e-24
2.32632e-23
-3.16024e-24
2.25577e-23
-1.45048e-24
4.8096e-23
-1.09082e-24
3.4268e-23
-3.29824e-26
2.04105e-23
-6.34163e-25
-8.98772e-24
-7.61732e-25
2.22435e-23
1.53012e-24
2.66706e-23
1.6008e-24
2.86064e-23
-2.5484e-26
-2.24329e-23
3.93762e-24
4.39441e-24
-3.78653e-24
-3.21807e-24
4.01061e-24
-2.79789e-23
3.97565e-24
-1.41675e-23
2.96527e-24
-2.09953e-23
3.20774e-24
7.51664e-24
6.0055e-24
1.25115e-23
6.12022e-24
3.50415e-24
6.48278e-24
4.16008e-24
6.47583e-24
-1.60246e-23
4.68484e-24
-7.50604e-24
2.78646e-24
-1.89066e-23
3.77743e-24
2.77571e-23
2.81021e-24
-1.61714e-23
3.94267e-24
-2.09597e-23
1.83586e-24
-2.92867e-23
1.06113e-24
-3.37758e-23
1.84108e-24
-3.40136e-23
1.95569e-24
-3.02077e-26
5.81278e-25
-1.06481e-23
-2.04489e-25
-8.52755e-24
-1.39349e-24
-7.59256e-24
-1.79263e-24
4.38469e-24
-2.28242e-24
-6.68068e-24
-2.17543e-24
-1.71493e-23
-2.58201e-24
-1.68206e-23
-3.83794e-24
-1.2621e-23
-4.88597e-24
-3.00698e-24
-5.333e-24
-1.84786e-24
-4.95013e-24
1.06507e-23
-5.15079e-24
-1.24408e-23
-4.29705e-24
-1.77465e-24
-3.10525e-24
1.11514e-23
-3.6078e-24
1.50345e-23
-3.42826e-24
2.21105e-23
-3.10928e-24
1.50473e-23
-1.40528e-24
4.62183e-23
-1.11299e-24
3.34028e-23
-7.31411e-26
1.42818e-23
-6.08525e-25
-8.45283e-24
-7.63113e-25
2.60742e-23
1.48313e-24
1.71737e-23
1.49642e-24
2.18074e-23
2.95843e-26
-1.42313e-23
1.67865e-24
4.24697e-24
-4.30292e-24
-3.14654e-24
3.94598e-24
-2.48869e-23
3.91398e-24
-1.29942e-23
2.9206e-24
-1.43046e-23
3.15907e-24
1.85101e-23
5.85575e-24
9.74724e-24
5.91249e-24
2.9864e-24
6.26343e-24
3.69835e-24
6.28852e-24
-1.99392e-23
4.53445e-24
1.25065e-24
2.74639e-24
-8.18677e-24
3.63579e-24
1.76997e-23
2.70596e-24
-1.76393e-23
3.82624e-24
-2.13162e-23
1.76026e-24
-2.68169e-23
9.88512e-25
-3.34063e-23
1.80313e-24
-2.72442e-23
1.86923e-24
8.48879e-25
5.02083e-25
-9.84447e-24
-2.01971e-25
-1.27453e-24
-1.38377e-24
-6.47691e-24
-1.76066e-24
4.10237e-24
-2.24507e-24
-6.39184e-24
-2.10011e-24
-1.70194e-23
-2.48737e-24
-1.47448e-23
-3.70117e-24
-1.51532e-23
-4.72055e-24
-2.72672e-24
-5.15789e-24
-1.24434e-24
-4.8122e-24
1.0896e-23
-4.98865e-24
-8.05541e-24
-4.12846e-24
-8.00002e-24
-3.03746e-24
1.30931e-23
-3.47561e-24
1.48926e-23
-3.36005e-24
1.43329e-23
-3.02702e-24
1.16724e-23
-1.40859e-24
4.42568e-23
-1.15622e-24
3.20766e-23
-1.04298e-25
1.17842e-23
-5.88973e-25
-2.12783e-24