/*--------------------------------*- C++ -*----------------------------------*\
  =========                 |
  \\      /  F ield         | OpenFOAM: The Open Source CFD Toolbox
   \\    /   O peration     | Website:  https://openfoam.org
    \\  /    A nd           | Version:  7
     \\/     M anipulation  |
\*---------------------------------------------------------------------------*/
FoamFile
{
    version     2.0;
    format      ascii;
    class       volScalarField;
    location    "132000";
    object      omega;
}
// * * * * * * * * * * * * * * * * * * * * * * * * * * * * * * * * * * * * * //

dimensions      [0 0 -1 0 0 0 0];

internalField   nonuniform List<scalar> 
4783
(
0.0221262
0.0220353
0.0219518
0.0218764
0.0218093
0.02175
0.0216982
0.0216534
0.021615
0.0215827
0.0215558
0.0215338
0.0215161
0.021502
0.0214909
0.0214822
0.0214755
0.0214703
0.0214662
0.0214631
0.0214607
0.021459
0.0222855
0.022191
0.0221014
0.0220179
0.0219415
0.0218724
0.0218106
0.0217558
0.0217077
0.0216659
0.0216299
0.0215993
0.0215735
0.0215522
0.0215346
0.0215204
0.021509
0.0214999
0.0214927
0.0214872
0.0214829
0.0214797
0.0224787
0.0223717
0.0222731
0.0221811
0.0220958
0.0220175
0.0219461
0.0218818
0.0218242
0.021773
0.0217279
0.0216886
0.0216545
0.0216253
0.0216006
0.0215799
0.0215627
0.0215486
0.0215371
0.021528
0.0215209
0.0215156
0.0226973
0.0225775
0.0224677
0.0223658
0.0222713
0.0221838
0.0221035
0.02203
0.0219634
0.0219034
0.0218496
0.0218019
0.0217597
0.0217229
0.0216909
0.0216635
0.0216402
0.0216206
0.0216043
0.0215911
0.0215806
0.0215725
0.0229385
0.0228068
0.0226855
0.022573
0.0224686
0.0223719
0.0222825
0.0222002
0.0221249
0.0220564
0.0219944
0.0219387
0.0218889
0.0218447
0.0218058
0.0217719
0.0217426
0.0217176
0.0216965
0.0216791
0.021665
0.0216541
0.0232009
0.0230581
0.0229258
0.0228026
0.0226881
0.0225818
0.0224833
0.0223923
0.0223085
0.0222318
0.0221619
0.0220985
0.0220413
0.0219902
0.0219448
0.0219047
0.0218697
0.0218395
0.0218138
0.0217923
0.0217749
0.0217612
0.0234837
0.0233303
0.0231875
0.023054
0.0229295
0.0228136
0.0227059
0.0226062
0.022514
0.0224292
0.0223516
0.0222808
0.0222166
0.0221588
0.022107
0.0220611
0.0220208
0.0219857
0.0219556
0.0219303
0.0219096
0.0218933
0.0237861
0.0236226
0.0234697
0.0233263
0.0231921
0.0230668
0.02295
0.0228416
0.0227411
0.0226484
0.0225631
0.0224851
0.0224141
0.0223498
0.022292
0.0222405
0.022195
0.0221552
0.022121
0.0220921
0.0220684
0.0220496
0.0241074
0.0239342
0.0237716
0.0236186
0.023475
0.0233406
0.023215
0.023098
0.0229894
0.0228888
0.0227962
0.0227111
0.0226334
0.0225628
0.0224992
0.0224422
0.0223917
0.0223475
0.0223093
0.0222769
0.0222502
0.0222291
0.0244469
0.0242643
0.0240925
0.0239303
0.0237777
0.0236344
0.0235002
0.0233749
0.0232583
0.0231501
0.0230501
0.0229582
0.0228739
0.0227972
0.0227279
0.0226657
0.0226104
0.0225618
0.0225198
0.0224841
0.0224546
0.0224312
0.024804
0.0246125
0.0244317
0.0242607
0.0240993
0.0239475
0.023805
0.0236716
0.0235473
0.0234316
0.0233246
0.0232258
0.0231352
0.0230526
0.0229777
0.0229104
0.0228504
0.0227976
0.0227518
0.0227129
0.0226807
0.0226551
0.0251782
0.024978
0.0247886
0.0246091
0.0244393
0.0242792
0.0241287
0.0239875
0.0238556
0.0237328
0.0236188
0.0235135
0.0234167
0.0233283
0.023248
0.0231757
0.0231112
0.0230543
0.0230049
0.0229629
0.0229281
0.0229003
0.0255689
0.0253603
0.0251626
0.0249749
0.024797
0.0246289
0.0244706
0.024322
0.0241828
0.0240529
0.0239322
0.0238206
0.0237178
0.0236237
0.0235382
0.0234611
0.0233922
0.0233313
0.0232784
0.0232334
0.023196
0.0231662
0.0259756
0.025759
0.0255532
0.0253575
0.0251718
0.0249961
0.0248303
0.0246743
0.0245281
0.0243915
0.0242643
0.0241465
0.0240379
0.0239384
0.0238477
0.0237659
0.0236927
0.0236281
0.0235718
0.0235238
0.0234839
0.0234522
0.0263979
0.0261735
0.02596
0.0257566
0.0255633
0.0253802
0.0252071
0.0250441
0.024891
0.0247478
0.0246144
0.0244906
0.0243764
0.0242716
0.024176
0.0240897
0.0240123
0.023944
0.0238844
0.0238335
0.0268354
0.0266033
0.0263823
0.0261715
0.0259709
0.0257806
0.0256006
0.0254307
0.0252711
0.0251215
0.024982
0.0248525
0.0247328
0.0246228
0.0245225
0.0244317
0.0243504
0.0242784
0.0242157
0.0272876
0.0270482
0.0268199
0.0266019
0.0263942
0.026197
0.0260101
0.0258337
0.0256677
0.025512
0.0253666
0.0252315
0.0251065
0.0249916
0.0248866
0.0247916
0.0247064
0.0277542
0.0275077
0.0272723
0.0270473
0.0268328
0.0266288
0.0264354
0.0262526
0.0260804
0.0259187
0.0257677
0.0256271
0.025497
0.0253773
0.0282348
0.0279814
0.0277391
0.0275073
0.0272862
0.0270756
0.0268759
0.0266869
0.0265087
0.0263413
0.0261847
0.0260389
0.0287292
0.028469
0.0282201
0.0279817
0.027754
0.0275372
0.0273312
0.0271362
0.0269522
0.0267792
0.029237
0.0289703
0.0287148
0.02847
0.0282361
0.0280131
0.0278011
0.0276002
0.0274106
0.0297581
0.029485
0.0292231
0.0289721
0.028732
0.028503
0.0282851
0.0280786
0.0302923
0.0300128
0.0297448
0.0294876
0.0292415
0.0290066
0.028783
0.0308393
0.0305536
0.0302795
0.0300163
0.0297643
0.0295237
0.0313989
0.0311072
0.0308271
0.0305581
0.0303003
0.0300541
0.0319712
0.0316735
0.0313875
0.0311127
0.0308493
0.0325559
0.0322523
0.0319605
0.03168
0.033153
0.0328436
0.032546
0.0322599
0.0337623
0.0334472
0.033144
0.034384
0.0340632
0.0337544
0.035018
0.0346915
0.0343771
0.0356643
0.0353321
0.0350122
0.0363229
0.0359851
0.0356596
0.0369939
0.0366505
0.0363195
0.0376774
0.0373283
0.0369918
0.0383734
0.0380187
0.0376767
0.0390821
0.0387217
0.0383742
0.0398037
0.0394376
0.0390845
0.0405382
0.0401664
0.0398077
0.041286
0.0409083
0.040544
0.042047
0.0416635
0.0412935
0.0428217
0.0424322
0.0420564
0.0221262
0.0222855
0.0224787
0.0226973
0.0229385
0.0232009
0.0234837
0.0237861
0.0241074
0.0244469
0.024804
0.0251782
0.0255689
0.0259756
0.0263979
0.0268354
0.0272876
0.0277542
0.0282348
0.0287292
0.029237
0.0297582
0.0302923
0.0308393
0.0313989
0.0319712
0.0325559
0.033153
0.0337624
0.034384
0.035018
0.0356643
0.0363229
0.0369939
0.0376774
0.0383734
0.0390821
0.0398037
0.0405383
0.041286
0.042047
0.0428217
0.0220353
0.022191
0.0223717
0.0225775
0.0228068
0.0230581
0.0233303
0.0236226
0.0239342
0.0242643
0.0246125
0.024978
0.0253603
0.025759
0.0261735
0.0266034
0.0270482
0.0275077
0.0279814
0.028469
0.0289703
0.029485
0.0300128
0.0305536
0.0311072
0.0316735
0.0322523
0.0328436
0.0334472
0.0340632
0.0346915
0.0353321
0.0359851
0.0366505
0.0373283
0.0380187
0.0387217
0.0394376
0.0401664
0.0409083
0.0416635
0.0424322
0.0219518
0.0221014
0.0222731
0.0224677
0.0226855
0.0229258
0.0231875
0.0234697
0.0237716
0.0240925
0.0244317
0.0247886
0.0251626
0.0255532
0.02596
0.0263823
0.0268199
0.0272723
0.0277391
0.0282201
0.0287149
0.0292232
0.0297448
0.0302795
0.0308271
0.0313875
0.0319605
0.0325461
0.033144
0.0337544
0.0343771
0.0350122
0.0356597
0.0363195
0.0369918
0.0376767
0.0383742
0.0390845
0.0398077
0.040544
0.0412935
0.0420565
0.0218764
0.0220179
0.0221811
0.0223658
0.022573
0.0228026
0.023054
0.0233263
0.0236186
0.0239303
0.0242607
0.0246091
0.0249749
0.0253575
0.0257566
0.0261715
0.0266019
0.0270473
0.0275074
0.0279817
0.0284701
0.0289721
0.0294876
0.0300164
0.0305581
0.0311127
0.03168
0.03226
0.0328524
0.0334573
0.0340746
0.0347042
0.0353463
0.0360008
0.0366677
0.0373472
0.0380394
0.0387442
0.039462
0.0401928
0.0409368
0.0416942
0.0218093
0.0219415
0.0220958
0.0222713
0.0224686
0.0226881
0.0229295
0.0231921
0.023475
0.0237777
0.0240993
0.0244393
0.024797
0.0251718
0.0255633
0.025971
0.0263942
0.0268328
0.0272862
0.0277541
0.0282361
0.028732
0.0292415
0.0297644
0.0303004
0.0308493
0.0314111
0.0319855
0.0325726
0.0331721
0.0337841
0.0344085
0.0350453
0.0356946
0.0363563
0.0370306
0.0377175
0.0384172
0.0391297
0.0398552
0.0405938
0.0413458
0.02175
0.0218724
0.0220174
0.0221838
0.0223719
0.0225818
0.0228136
0.0230668
0.0233406
0.0236344
0.0239475
0.0242792
0.024629
0.0249961
0.0253802
0.0257806
0.026197
0.0266288
0.0270757
0.0275372
0.0280131
0.028503
0.0290066
0.0295237
0.0300541
0.0305976
0.0311539
0.0317231
0.0323048
0.0328992
0.033506
0.0341253
0.0347571
0.0354013
0.036058
0.0367272
0.0374091
0.0381037
0.0388111
0.0395315
0.040265
0.0410118
0.0216982
0.0218106
0.0219461
0.0221035
0.0222825
0.0224833
0.0227059
0.02295
0.023215
0.0235002
0.023805
0.0241287
0.0244706
0.0248303
0.0252071
0.0256006
0.0260102
0.0264354
0.0268759
0.0273313
0.0278011
0.0282852
0.0287831
0.0292946
0.0298196
0.0303577
0.0309088
0.0314727
0.0320494
0.0326387
0.0332406
0.0338549
0.0344818
0.0351211
0.0357729
0.0364373
0.0371144
0.0378041
0.0385066
0.0392221
0.0399507
0.0406925
0.0216534
0.0217558
0.0218818
0.02203
0.0222002
0.0223923
0.0226062
0.0228416
0.023098
0.0233749
0.0236716
0.0239875
0.024322
0.0246743
0.0250441
0.0254307
0.0258337
0.0262526
0.0266869
0.0271363
0.0276003
0.0280787
0.028571
0.0290772
0.0295968
0.0301298
0.0306758
0.0312347
0.0318065
0.0323909
0.032988
0.0335976
0.0342198
0.0348544
0.0355016
0.0361613
0.0368336
0.0375187
0.0382165
0.0389273
0.0396512
0.0403883
0.021615
0.0217077
0.0218242
0.0219634
0.0221249
0.0223085
0.022514
0.0227411
0.0229894
0.0232583
0.0235473
0.0238556
0.0241828
0.0245281
0.0248911
0.0252711
0.0256677
0.0260804
0.0265087
0.0269523
0.0274106
0.0278835
0.0283706
0.0288715
0.0293861
0.029914
0.0304551
0.0310093
0.0315763
0.0321561
0.0327486
0.0333536
0.0339712
0.0346014
0.0352441
0.0358993
0.0365672
0.0372478
0.0379412
0.0386475
0.0393668
0.0400994
0.0215827
0.0216659
0.021773
0.0219033
0.0220564
0.0222318
0.0224292
0.0226484
0.0228888
0.0231501
0.0234316
0.0237328
0.0240529
0.0243915
0.0247479
0.0251216
0.025512
0.0259188
0.0263413
0.0267793
0.0272323
0.0276999
0.0281818
0.0286777
0.0291874
0.0297105
0.030247
0.0307965
0.031359
0.0319344
0.0325224
0.0331231
0.0337364
0.0343623
0.0350007
0.0356517
0.0363153
0.0369917
0.0376808
0.0383829
0.0390979
0.0398261
0.0215558
0.0216299
0.0217279
0.0218496
0.0219944
0.0221619
0.0223515
0.0225631
0.0227961
0.0230501
0.0233246
0.0236188
0.0239322
0.0242643
0.0246144
0.0249821
0.0253666
0.0257677
0.0261847
0.0266174
0.0270651
0.0275277
0.0280047
0.0284958
0.0290008
0.0295194
0.0300514
0.0305966
0.0311548
0.0317259
0.0323097
0.0329063
0.0335155
0.0341373
0.0347716
0.0354186
0.0360783
0.0367506
0.0374357
0.0381337
0.0388447
0.0395689
0.0215338
0.0215992
0.0216885
0.0218018
0.0219387
0.0220985
0.0222807
0.0224851
0.0227111
0.0229582
0.0232258
0.0235135
0.0238206
0.0241465
0.0244907
0.0248525
0.0252315
0.0256271
0.0260389
0.0264665
0.0269093
0.0273671
0.0278394
0.028326
0.0288266
0.0293408
0.0298686
0.0304096
0.0309637
0.0315308
0.0321107
0.0327033
0.0333086
0.0339266
0.0345571
0.0352003
0.0358561
0.0365247
0.037206
0.0379002
0.0386074
0.0393277
0.0400614
0.021516
0.0215735
0.0216545
0.0217597
0.0218889
0.0220413
0.0222166
0.0224141
0.0226334
0.0228739
0.0231352
0.0234167
0.0237178
0.0240379
0.0243764
0.0247328
0.0251065
0.025497
0.0259039
0.0263266
0.0267648
0.027218
0.0276859
0.0281683
0.0286646
0.0291748
0.0296985
0.0302356
0.0307859
0.0313492
0.0319253
0.0325143
0.033116
0.0337303
0.0343573
0.0349969
0.0356492
0.0363142
0.036992
0.0376827
0.0383863
0.039103
0.039833
0.0405765
0.0215019
0.0215521
0.0216253
0.0217229
0.0218447
0.0219902
0.0221587
0.0223498
0.0225628
0.0227972
0.0230526
0.0233283
0.0236237
0.0239384
0.0242716
0.0246228
0.0249916
0.0253773
0.0257795
0.0261977
0.0266315
0.0270805
0.0275443
0.0280226
0.0285151
0.0290214
0.0295414
0.0300748
0.0306215
0.0311812
0.0317539
0.0323394
0.0329377
0.0335487
0.0341723
0.0348086
0.0354576
0.0361193
0.0367938
0.0374812
0.0381815
0.0388949
0.0396216
0.0403617
0.0214909
0.0215346
0.0216006
0.0216909
0.0218058
0.0219447
0.022107
0.022292
0.0224992
0.0227279
0.0229777
0.023248
0.0235382
0.0238478
0.0241761
0.0245225
0.0248867
0.0252679
0.0256658
0.0260798
0.0265095
0.0269546
0.0274145
0.0278891
0.0283779
0.0288807
0.0293972
0.0299272
0.0304706
0.031027
0.0315965
0.0321788
0.032774
0.0333818
0.0340024
0.0346356
0.0352815
0.0359402
0.0366116
0.0372959
0.0379932
0.0387036
0.0394271
0.0401641
0.0409147
0.0214822
0.0215204
0.0215798
0.0216635
0.0217719
0.0219047
0.0220611
0.0222405
0.0224422
0.0226657
0.0229104
0.0231757
0.0234611
0.0237659
0.0240897
0.0244318
0.0247916
0.0251688
0.0255626
0.0259728
0.0263988
0.0268402
0.0272966
0.0277677
0.0282532
0.0287527
0.029266
0.0297929
0.0303332
0.0308866
0.0314531
0.0320325
0.0326248
0.0332298
0.0338475
0.0344779
0.0351211
0.0357769
0.0364456
0.0371271
0.0378216
0.0385291
0.0392499
0.0399841
0.0407318
0.0214755
0.021509
0.0215626
0.0216401
0.0217426
0.0218697
0.0220207
0.022195
0.0223917
0.0226104
0.0228504
0.0231112
0.0233922
0.0236928
0.0240124
0.0243505
0.0247064
0.0250798
0.02547
0.0258766
0.0262992
0.0267373
0.0271905
0.0276585
0.0281409
0.0286374
0.0291479
0.0296719
0.0302094
0.0307601
0.0313239
0.0319007
0.0324903
0.0330927
0.0337079
0.0343357
0.0349763
0.0356297
0.0362958
0.0369748
0.0376668
0.0383718
0.03909
0.0398216
0.0405667
0.0413256
0.0214702
0.0214999
0.0215485
0.0216205
0.0217175
0.0218395
0.0219856
0.0221552
0.0223475
0.0225618
0.0227976
0.0230543
0.0233313
0.0236281
0.023944
0.0242785
0.024631
0.0250009
0.0253879
0.0257913
0.0262108
0.0266459
0.0270962
0.0275614
0.0280411
0.028535
0.0290428
0.0295643
0.0300992
0.0306475
0.0312089
0.0317833
0.0323706
0.0329707
0.0335835
0.0342091
0.0348475
0.0354985
0.0361624
0.0368392
0.0375289
0.0382316
0.0389476
0.0396769
0.0404197
0.0411763
0.0419468
0.0214662
0.0214927
0.0215371
0.0216043
0.0216964
0.0218138
0.0219556
0.022121
0.0223093
0.0225197
0.0227518
0.0230049
0.0232785
0.0235718
0.0238844
0.0242157
0.0245651
0.0249321
0.0253162
0.0257168
0.0261336
0.0265661
0.0270138
0.0274765
0.0279537
0.0284453
0.0289508
0.02947
0.0300028
0.0305489
0.0311082
0.0316805
0.0322657
0.0328637
0.0334746
0.0340982
0.0347345
0.0353836
0.0360455
0.0367203
0.037408
0.0381088
0.0388227
0.0395501
0.0402909
0.0410454
0.0418138
0.0214631
0.0214871
0.021528
0.0215911
0.021679
0.0217923
0.0219303
0.0220921
0.0222769
0.0224841
0.0227129
0.0229629
0.0232334
0.0235238
0.0238336
0.0241621
0.0245088
0.0248733
0.0252548
0.025653
0.0260675
0.0264977
0.0269432
0.0274037
0.0278789
0.0283684
0.0288719
0.0293892
0.0299201
0.0304643
0.0310217
0.0315922
0.0321757
0.032772
0.0333811
0.0340029
0.0346376
0.035285
0.0359452
0.0366182
0.0373042
0.0380033
0.0387156
0.0394412
0.0401802
0.040933
0.0416997
0.0214607
0.0214829
0.0215209
0.0215805
0.0216649
0.0217748
0.0219096
0.0220683
0.0222502
0.0224546
0.0226807
0.0229281
0.023196
0.023484
0.0237913
0.0241176
0.0244621
0.0248243
0.0252038
0.0256
0.0260124
0.0264407
0.0268844
0.0273431
0.0278165
0.0283043
0.0288062
0.0293218
0.0298511
0.0303938
0.0309497
0.0315187
0.0321006
0.0326954
0.0333031
0.0339235
0.0345567
0.0352026
0.0358614
0.0365331
0.0372177
0.0379153
0.0386261
0.0393503
0.0400879
0.0408392
0.0416044
0.0214589
0.0214797
0.0215155
0.0215724
0.021654
0.0217611
0.0218933
0.0220495
0.0222291
0.0224312
0.0226551
0.0229004
0.0231662
0.0234522
0.0237577
0.024082
0.0244247
0.0247852
0.025163
0.0255576
0.0259684
0.0263952
0.0268374
0.0272946
0.0277666
0.028253
0.0287536
0.0292679
0.0297959
0.0303373
0.030892
0.0314598
0.0320405
0.0326341
0.0332406
0.0338599
0.0344919
0.0351367
0.0357944
0.0364649
0.0371483
0.0378448
0.0385545
0.0392775
0.040014
0.0407641
0.0415282
0.0423063
0.0214576
0.0214774
0.0215117
0.0215666
0.021646
0.021751
0.0218812
0.0220356
0.0222133
0.0224137
0.022636
0.0228796
0.023144
0.0234285
0.0237325
0.0240554
0.0243968
0.0247559
0.0251324
0.0255258
0.0259355
0.026361
0.0268021
0.0272583
0.0277292
0.0282146
0.0287141
0.0292275
0.0297545
0.030295
0.0308487
0.0314156
0.0319954
0.0325882
0.0331937
0.0338121
0.0344433
0.0350873
0.035744
0.0364137
0.0370963
0.0377919
0.0385008
0.0392229
0.0399585
0.0407078
0.0414709
0.0422481
0.0214568
0.0214759
0.0215092
0.0215628
0.0216407
0.0217443
0.0218732
0.0220263
0.0222029
0.0224021
0.0226233
0.0228659
0.0231292
0.0234127
0.0237157
0.0240377
0.0243781
0.0247364
0.0251121
0.0255046
0.0259135
0.0263383
0.0267786
0.0272341
0.0277043
0.028189
0.0286878
0.0292005
0.0297269
0.0302667
0.0308198
0.0313861
0.0319653
0.0325575
0.0331625
0.0337803
0.0344109
0.0350543
0.0357105
0.0363795
0.0370616
0.0377567
0.0384649
0.0391864
0.0399215
0.0406702
0.0414327
0.0422093
0.0430003
0.0214564
0.0214752
0.021508
0.0215609
0.0216381
0.021741
0.0218692
0.0220217
0.0221977
0.0223963
0.022617
0.022859
0.0231218
0.0234048
0.0237073
0.0240289
0.0243688
0.0247267
0.0251019
0.025494
0.0259025
0.0263269
0.0267669
0.0272219
0.0276918
0.0281761
0.0286746
0.029187
0.0297131
0.0302526
0.0308054
0.0313713
0.0319503
0.0325421
0.0331469
0.0337644
0.0343947
0.0350378
0.0356937
0.0363625
0.0370442
0.037739
0.038447
0.0391682
0.039903
0.0406514
0.0414136
0.0421899
0.0429806
0.0214564
0.0214752
0.021508
0.0215609
0.0216381
0.021741
0.0218692
0.0220217
0.0221977
0.0223963
0.022617
0.022859
0.0231218
0.0234048
0.0237073
0.0240289
0.0243688
0.0247267
0.0251019
0.025494
0.0259025
0.0263269
0.0267669
0.0272219
0.0276918
0.0281761
0.0286746
0.029187
0.0297131
0.0302526
0.0308054
0.0313713
0.0319503
0.0325421
0.0331469
0.0337644
0.0343947
0.0350378
0.0356937
0.0363625
0.0370442
0.037739
0.038447
0.0391682
0.039903
0.0406514
0.0414136
0.0421899
0.0429806
0.0437859
0.0214568
0.0214759
0.0215092
0.0215628
0.0216407
0.0217443
0.0218732
0.0220263
0.0222029
0.0224021
0.0226233
0.0228659
0.0231292
0.0234127
0.0237157
0.0240377
0.0243781
0.0247364
0.0251121
0.0255046
0.0259135
0.0263383
0.0267786
0.0272341
0.0277043
0.028189
0.0286878
0.0292005
0.0297269
0.0302667
0.0308198
0.0313861
0.0319653
0.0325575
0.0331625
0.0337803
0.0344109
0.0350543
0.0357105
0.0363796
0.0370616
0.0377567
0.0384649
0.0391864
0.0399215
0.0406702
0.0414327
0.0422093
0.0430003
0.0438059
0.0214576
0.0214774
0.0215117
0.0215666
0.021646
0.021751
0.0218812
0.0220356
0.0222133
0.0224137
0.022636
0.0228796
0.023144
0.0234285
0.0237325
0.0240554
0.0243968
0.0247559
0.0251325
0.0255258
0.0259355
0.026361
0.0268021
0.0272583
0.0277292
0.0282146
0.0287141
0.0292275
0.0297545
0.030295
0.0308487
0.0314156
0.0319954
0.0325882
0.0331938
0.0338121
0.0344433
0.0350873
0.035744
0.0364137
0.0370963
0.0377919
0.0385008
0.0392229
0.0399585
0.0407078
0.0414709
0.0422481
0.0430397
0.0438459
0.0214589
0.0214797
0.0215155
0.0215725
0.021654
0.0217611
0.0218933
0.0220495
0.0222291
0.0224312
0.0226551
0.0229004
0.0231662
0.0234522
0.0237577
0.024082
0.0244247
0.0247852
0.025163
0.0255576
0.0259684
0.0263952
0.0268374
0.0272946
0.0277666
0.028253
0.0287536
0.0292679
0.0297959
0.0303373
0.030892
0.0314598
0.0320405
0.0326342
0.0332406
0.0338599
0.0344919
0.0351367
0.0357944
0.0364649
0.0371483
0.0378448
0.0385545
0.0392775
0.040014
0.0407641
0.0415282
0.0423063
0.0430988
0.0439059
0.0214607
0.0214829
0.0215209
0.0215805
0.021665
0.0217748
0.0219096
0.0220683
0.0222502
0.0224546
0.0226807
0.0229281
0.023196
0.023484
0.0237913
0.0241176
0.0244621
0.0248243
0.0252038
0.0256
0.0260124
0.0264407
0.0268844
0.0273431
0.0278165
0.0283043
0.0288062
0.0293218
0.0298511
0.0303938
0.0309497
0.0315187
0.0321006
0.0326954
0.0333031
0.0339235
0.0345567
0.0352027
0.0358614
0.0365331
0.0372177
0.0379153
0.0386261
0.0393503
0.0400879
0.0408392
0.0416044
0.0423838
0.0431774
0.0439858
0.0214631
0.0214871
0.021528
0.0215911
0.021679
0.0217923
0.0219303
0.0220921
0.0222769
0.0224841
0.0227129
0.0229629
0.0232334
0.0235238
0.0238336
0.0241621
0.0245088
0.0248733
0.0252548
0.0256531
0.0260675
0.0264977
0.0269432
0.0274037
0.0278789
0.0283684
0.0288719
0.0293892
0.0299201
0.0304643
0.0310218
0.0315923
0.0321757
0.032772
0.0333811
0.034003
0.0346376
0.035285
0.0359452
0.0366182
0.0373043
0.0380033
0.0387156
0.0394412
0.0401803
0.040933
0.0416997
0.0424805
0.0432757
0.0440855
0.0214662
0.0214927
0.0215371
0.0216043
0.0216965
0.0218138
0.0219556
0.022121
0.0223093
0.0225198
0.0227518
0.0230049
0.0232785
0.0235718
0.0238844
0.0242157
0.0245651
0.0249321
0.0253162
0.0257168
0.0261336
0.0265661
0.0270138
0.0274765
0.0279538
0.0284453
0.0289508
0.02947
0.0300028
0.0305489
0.0311082
0.0316805
0.0322657
0.0328638
0.0334746
0.0340982
0.0347345
0.0353836
0.0360455
0.0367203
0.037408
0.0381088
0.0388228
0.0395501
0.0402909
0.0410454
0.0418138
0.0425964
0.0433934
0.0442051
0.0214702
0.0214999
0.0215485
0.0216205
0.0217175
0.0218395
0.0219856
0.0221552
0.0223475
0.0225618
0.0227976
0.0230543
0.0233313
0.0236281
0.023944
0.0242785
0.024631
0.0250009
0.0253879
0.0257914
0.0262108
0.0266459
0.0270963
0.0275614
0.0280411
0.028535
0.0290428
0.0295643
0.0300993
0.0306475
0.0312089
0.0317833
0.0323706
0.0329707
0.0335836
0.0342092
0.0348475
0.0354986
0.0361625
0.0368392
0.0375289
0.0382317
0.0389476
0.0396769
0.0404198
0.0411763
0.0419468
0.0427315
0.0435306
0.0443444
0.0214755
0.021509
0.0215626
0.0216401
0.0217426
0.0218697
0.0220207
0.022195
0.0223917
0.0226104
0.0228504
0.0231112
0.0233922
0.0236928
0.0240124
0.0243505
0.0247064
0.0250798
0.02547
0.0258767
0.0262992
0.0267373
0.0271905
0.0276585
0.0281409
0.0286375
0.0291479
0.0296719
0.0302094
0.0307601
0.0313239
0.0319007
0.0324903
0.0330927
0.0337079
0.0343358
0.0349764
0.0356297
0.0362959
0.0369749
0.0376668
0.0383718
0.0390901
0.0398216
0.0405668
0.0413257
0.0420985
0.0428855
0.043687
0.0445032
0.0214822
0.0215204
0.0215799
0.0216635
0.0217719
0.0219047
0.0220611
0.0222405
0.0224422
0.0226657
0.0229104
0.0231757
0.0234611
0.023766
0.0240897
0.0244318
0.0247917
0.0251688
0.0255626
0.0259728
0.0263988
0.0268402
0.0272966
0.0277677
0.0282532
0.0287527
0.029266
0.0297929
0.0303332
0.0308867
0.0314532
0.0320326
0.0326248
0.0332298
0.0338475
0.034478
0.0351211
0.035777
0.0364456
0.0371271
0.0378216
0.0385292
0.03925
0.0399841
0.0407318
0.0414933
0.0422687
0.0430584
0.0438626
0.0446816
0.0214909
0.0215346
0.0216006
0.0216909
0.0218058
0.0219448
0.022107
0.022292
0.0224992
0.0227279
0.0229777
0.023248
0.0235382
0.0238478
0.0241761
0.0245226
0.0248867
0.0252679
0.0256658
0.0260798
0.0265095
0.0269546
0.0274146
0.0278891
0.0283779
0.0288807
0.0293972
0.0299273
0.0304706
0.0310271
0.0315965
0.0321789
0.032774
0.0333819
0.0340024
0.0346357
0.0352816
0.0359402
0.0366117
0.037296
0.0379933
0.0387036
0.0394272
0.0401642
0.0409147
0.0416791
0.0424575
0.0432501
0.0440573
0.0448792
0.0215019
0.0215521
0.0216253
0.0217229
0.0218447
0.0219902
0.0221588
0.0223498
0.0225628
0.0227973
0.0230526
0.0233283
0.0236238
0.0239384
0.0242716
0.0246229
0.0249916
0.0253773
0.0257795
0.0261977
0.0266315
0.0270805
0.0275443
0.0280226
0.0285151
0.0290214
0.0295414
0.0300749
0.0306215
0.0311813
0.031754
0.0323395
0.0329378
0.0335487
0.0341724
0.0348087
0.0354577
0.0361194
0.0367939
0.0374812
0.0381815
0.038895
0.0396216
0.0403617
0.0411154
0.0418829
0.0426645
0.0434604
0.0442708
0.0450961
0.021516
0.0215735
0.0216545
0.0217597
0.0218889
0.0220413
0.0222166
0.0224141
0.0226334
0.0228739
0.0231353
0.0234168
0.0237178
0.0240379
0.0243764
0.0247328
0.0251065
0.025497
0.0259039
0.0263266
0.0267648
0.027218
0.027686
0.0281683
0.0286647
0.0291749
0.0296986
0.0302357
0.0307859
0.0313492
0.0319254
0.0325144
0.033116
0.0337304
0.0343574
0.034997
0.0356493
0.0363143
0.0369921
0.0376827
0.0383863
0.0391031
0.0398331
0.0405766
0.0413337
0.0421046
0.0428896
0.043689
0.044503
0.0453319
0.0215338
0.0215992
0.0216886
0.0218018
0.0219387
0.0220985
0.0222808
0.0224851
0.0227111
0.0229582
0.0232258
0.0235135
0.0238206
0.0241465
0.0244907
0.0248525
0.0252315
0.0256272
0.026039
0.0264665
0.0269093
0.0273671
0.0278395
0.0283261
0.0288266
0.0293409
0.0298686
0.0304096
0.0309637
0.0315308
0.0321107
0.0327033
0.0333087
0.0339266
0.0345572
0.0352004
0.0358562
0.0365248
0.0372061
0.0379003
0.0386075
0.0393278
0.0400614
0.0408085
0.0415693
0.0423439
0.0431327
0.0439359
0.0447537
0.0455865
0.0215558
0.0216299
0.0217279
0.0218496
0.0219944
0.0221619
0.0223516
0.0225631
0.0227962
0.0230502
0.0233246
0.0236188
0.0239323
0.0242643
0.0246145
0.0249821
0.0253667
0.0257677
0.0261848
0.0266174
0.0270652
0.0275277
0.0280047
0.0284959
0.0290009
0.0295195
0.0300515
0.0305966
0.0311548
0.0317259
0.0323098
0.0329063
0.0335155
0.0341373
0.0347717
0.0354187
0.0360783
0.0367506
0.0374358
0.0381338
0.0388448
0.0395689
0.0403064
0.0410574
0.0418221
0.0426007
0.0433935
0.0442007
0.0450226
0.0458596
0.0215827
0.0216659
0.021773
0.0219034
0.0220564
0.0222318
0.0224292
0.0226484
0.0228889
0.0231501
0.0234316
0.0237328
0.0240529
0.0243915
0.0247479
0.0251216
0.025512
0.0259188
0.0263414
0.0267793
0.0272323
0.0276999
0.0281818
0.0286777
0.0291874
0.0297106
0.030247
0.0307966
0.0313591
0.0319344
0.0325224
0.0331231
0.0337364
0.0343623
0.0350007
0.0356518
0.0363154
0.0369918
0.0376809
0.0383829
0.039098
0.0398262
0.0405678
0.0413229
0.0420918
0.0428746
0.0436717
0.0444832
0.0453096
0.046151
0.021615
0.0217077
0.0218242
0.0219634
0.0221249
0.0223085
0.022514
0.0227411
0.0229894
0.0232583
0.0235473
0.0238556
0.0241828
0.0245281
0.0248911
0.0252711
0.0256677
0.0260804
0.0265087
0.0269523
0.0274107
0.0278836
0.0283706
0.0288715
0.0293861
0.029914
0.0304552
0.0310093
0.0315764
0.0321562
0.0327486
0.0333537
0.0339713
0.0346014
0.0352441
0.0358994
0.0365673
0.0372479
0.0379413
0.0386476
0.0393669
0.0400994
0.0408454
0.0416049
0.0423781
0.0431655
0.0439671
0.0447832
0.0456142
0.0464604
0.0216534
0.0217558
0.0218818
0.02203
0.0222002
0.0223923
0.0226062
0.0228416
0.023098
0.0233749
0.0236717
0.0239875
0.024322
0.0246744
0.0250442
0.0254308
0.0258338
0.0262526
0.0266869
0.0271363
0.0276003
0.0280787
0.0285711
0.0290772
0.0295969
0.0301298
0.0306758
0.0312348
0.0318065
0.032391
0.0329881
0.0335977
0.0342198
0.0348544
0.0355016
0.0361613
0.0368337
0.0375187
0.0382166
0.0389274
0.0396512
0.0403883
0.0411388
0.0419029
0.0426809
0.0434729
0.0442793
0.0451003
0.0459363
0.0467875
0.0216982
0.0218106
0.0219461
0.0221035
0.0222825
0.0224833
0.022706
0.02295
0.023215
0.0235002
0.023805
0.0241287
0.0244707
0.0248304
0.0252072
0.0256006
0.0260102
0.0264354
0.0268759
0.0273313
0.0278012
0.0282852
0.0287831
0.0292947
0.0298196
0.0303577
0.0309088
0.0314728
0.0320494
0.0326387
0.0332406
0.033855
0.0344818
0.0351212
0.035773
0.0364374
0.0371144
0.0378041
0.0385067
0.0392221
0.0399507
0.0406926
0.0414479
0.0422168
0.0429997
0.0437967
0.0446082
0.0454343
0.0462754
0.0471319
0.02175
0.0218724
0.0220175
0.0221839
0.0223719
0.0225818
0.0228136
0.0230668
0.0233406
0.0236344
0.0239475
0.0242792
0.024629
0.0249962
0.0253802
0.0257807
0.026197
0.0266288
0.0270757
0.0275373
0.0280131
0.028503
0.0290067
0.0295238
0.0300542
0.0305976
0.031154
0.0317231
0.0323049
0.0328992
0.0335061
0.0341254
0.0347571
0.0354013
0.036058
0.0367273
0.0374091
0.0381037
0.0388112
0.0395315
0.0402651
0.0410119
0.0417722
0.0425463
0.0433343
0.0441365
0.0449532
0.0457847
0.0466312
0.0474932
0.0218093
0.0219415
0.0220958
0.0222713
0.0224686
0.0226882
0.0229295
0.0231921
0.0234751
0.0237777
0.0240994
0.0244393
0.024797
0.0251719
0.0255634
0.025971
0.0263943
0.0268328
0.0272862
0.0277541
0.0282362
0.0287321
0.0292416
0.0297644
0.0303004
0.0308494
0.0314112
0.0319856
0.0325726
0.0331722
0.0337841
0.0344086
0.0350454
0.0356947
0.0363564
0.0370307
0.0377176
0.0384172
0.0391297
0.0398552
0.0405939
0.0413459
0.0421115
0.0428908
0.0436842
0.0444918
0.045314
0.0461511
0.0470034
0.0478711
0.0218764
0.022018
0.0221811
0.0223658
0.022573
0.0228027
0.023054
0.0233263
0.0236187
0.0239304
0.0242607
0.0246091
0.0249749
0.0253576
0.0257566
0.0261716
0.0266019
0.0270473
0.0275074
0.0279818
0.0284701
0.0289722
0.0294877
0.0300164
0.0305582
0.0311128
0.0316801
0.03226
0.0328525
0.0334573
0.0340746
0.0347043
0.0353464
0.0360009
0.0366678
0.0373473
0.0380394
0.0387443
0.0394621
0.0401929
0.0409369
0.0416943
0.0424653
0.0432501
0.0440491
0.0448623
0.0456903
0.0465332
0.0473914
0.0482651
0.0219518
0.0221014
0.0222731
0.0224677
0.0226855
0.0229258
0.0231875
0.0234697
0.0237716
0.0240925
0.0244317
0.0247886
0.0251627
0.0255533
0.02596
0.0263824
0.0268199
0.0272723
0.0277392
0.0282201
0.0287149
0.0292232
0.0297448
0.0302796
0.0308272
0.0313876
0.0319606
0.0325461
0.0331441
0.0337545
0.0343772
0.0350123
0.0356597
0.0363196
0.0369919
0.0376768
0.0383743
0.0390846
0.0398078
0.0405441
0.0412936
0.0420566
0.0428332
0.0436237
0.0444285
0.0452476
0.0460815
0.0469304
0.0477948
0.0486748
0.0220353
0.022191
0.0223717
0.0225775
0.0228068
0.0230581
0.0233303
0.0236226
0.0239342
0.0242644
0.0246125
0.024978
0.0253604
0.025759
0.0261735
0.0266034
0.0270482
0.0275077
0.0279814
0.0284691
0.0289703
0.029485
0.0300129
0.0305537
0.0311073
0.0316736
0.0322524
0.0328437
0.0334473
0.0340633
0.0346916
0.0353322
0.0359852
0.0366505
0.0373284
0.0380188
0.0387218
0.0394377
0.0401665
0.0409084
0.0416636
0.0424323
0.0432148
0.0440112
0.0448219
0.0456472
0.0464872
0.0473424
0.0482131
0.0490996
0.0221262
0.0222855
0.0224788
0.0226974
0.0229385
0.0232009
0.0234837
0.0237861
0.0241074
0.0244469
0.024804
0.0251782
0.0255689
0.0259757
0.026398
0.0268354
0.0272876
0.0277542
0.0282348
0.0287292
0.0292371
0.0297582
0.0302923
0.0308393
0.031399
0.0319713
0.0325559
0.033153
0.0337624
0.0343841
0.0350181
0.0356644
0.036323
0.036994
0.0376775
0.0383735
0.0390822
0.0398038
0.0405383
0.0412861
0.0420471
0.0428218
0.0436102
0.0444127
0.0452296
0.046061
0.0469074
0.0477691
0.0486464
0.0495396
0.0221262
0.0222855
0.0224788
0.0226974
0.0229385
0.0232009
0.0234837
0.0237861
0.0241074
0.0244469
0.024804
0.0251782
0.0255689
0.0259757
0.026398
0.0268354
0.0272876
0.0277542
0.0282348
0.0287292
0.0292371
0.0297582
0.0302923
0.0308393
0.031399
0.0319713
0.0325559
0.033153
0.0337624
0.0343841
0.0350181
0.0356644
0.036323
0.036994
0.0376775
0.0383735
0.0390822
0.0398038
0.0405383
0.0412861
0.0420471
0.0428218
0.0436102
0.0444127
0.0452296
0.046061
0.0469074
0.0477691
0.0486464
0.0495396
0.0220353
0.022191
0.0223717
0.0225775
0.0228068
0.0230581
0.0233303
0.0236226
0.0239342
0.0242644
0.0246125
0.024978
0.0253604
0.025759
0.0261735
0.0266034
0.0270482
0.0275077
0.0279814
0.0284691
0.0289703
0.029485
0.0300129
0.0305537
0.0311073
0.0316736
0.0322524
0.0328436
0.0334473
0.0340633
0.0346916
0.0353322
0.0359852
0.0366505
0.0373284
0.0380188
0.0387218
0.0394377
0.0401665
0.0409084
0.0416636
0.0424323
0.0432148
0.0440112
0.0448219
0.0456471
0.0464872
0.0473424
0.0482131
0.0490996
0.0219518
0.0221014
0.0222731
0.0224677
0.0226855
0.0229258
0.0231875
0.0234697