/*--------------------------------*- C++ -*----------------------------------*\
  =========                 |
  \\      /  F ield         | OpenFOAM: The Open Source CFD Toolbox
   \\    /   O peration     | Website:  https://openfoam.org
    \\  /    A nd           | Version:  7
     \\/     M anipulation  |
\*---------------------------------------------------------------------------*/
FoamFile
{
    version     2.0;
    format      ascii;
    class       volScalarField;
    location    "132000";
    object      p;
}
// * * * * * * * * * * * * * * * * * * * * * * * * * * * * * * * * * * * * * //

dimensions      [0 2 -2 0 0 0 0];

internalField   nonuniform List<scalar> 
4783
(
-1.98506e-18
-1.99792e-18
-2.00831e-18
-2.0598e-18
-2.03219e-18
-2.06141e-18
-2.005e-18
-1.96829e-18
-1.9224e-18
-2.03831e-18
-2.0111e-18
-1.99537e-18
-1.97443e-18
-1.92259e-18
-1.81034e-18
-1.8578e-18
-2.20085e-18
-2.24415e-18
-2.13134e-18
-2.30516e-18
-2.29497e-18
-1.85187e-18
-1.99784e-18
-2.01983e-18
-1.9671e-18
-1.99609e-18
-2.0026e-18
-2.04814e-18
-2.01272e-18
-2.00122e-18
-1.99498e-18
-1.99597e-18
-1.98475e-18
-1.98852e-18
-1.99796e-18
-1.97028e-18
-1.94536e-18
-1.96261e-18
-2.08722e-18
-1.89183e-18
-1.8143e-18
-1.86101e-18
-1.99561e-18
-1.9847e-18
-1.96143e-18
-1.95563e-18
-1.9781e-18
-1.98021e-18
-1.95783e-18
-1.98432e-18
-1.9901e-18
-2.01518e-18
-2.05279e-18
-2.03647e-18
-1.9807e-18
-1.9576e-18
-2.0356e-18
-1.9979e-18
-1.96848e-18
-1.91986e-18
-1.97706e-18
-1.94645e-18
-1.87433e-18
-1.94824e-18
-1.98478e-18
-2.01179e-18
-1.99494e-18
-1.98576e-18
-1.96372e-18
-1.96432e-18
-2.01219e-18
-1.95768e-18
-1.97703e-18
-1.98606e-18
-1.97692e-18
-1.94245e-18
-1.94521e-18
-2.02023e-18
-2.0107e-18
-2.03639e-18
-1.99167e-18
-1.96906e-18
-1.98688e-18
-1.97474e-18
-1.91644e-18
-1.98911e-18
-2.00982e-18
-2.00018e-18
-1.9957e-18
-1.97903e-18
-2.02364e-18
-2.00228e-18
-2.00536e-18
-1.99277e-18
-1.98508e-18
-1.97116e-18
-1.92894e-18
-1.9572e-18
-1.97388e-18
-1.98782e-18
-1.97438e-18
-1.93884e-18
-1.96998e-18
-1.95164e-18
-2.02127e-18
-1.99965e-18
-1.98916e-18
-2.00875e-18
-2.08349e-18
-2.03948e-18
-1.99694e-18
-1.99101e-18
-1.99979e-18
-2.00062e-18
-2.02516e-18
-2.00587e-18
-1.98549e-18
-1.98804e-18
-1.97959e-18
-1.95786e-18
-1.97988e-18
-1.98469e-18
-1.9624e-18
-1.90271e-18
-1.96383e-18
-1.97626e-18
-1.98804e-18
-1.99769e-18
-2.02507e-18
-2.0002e-18
-2.01114e-18
-1.99102e-18
-1.98228e-18
-1.99204e-18
-1.9913e-18
-1.97194e-18
-2.00041e-18
-2.01401e-18
-1.96242e-18
-1.98446e-18
-2.01683e-18
-1.98665e-18
-1.99154e-18
-1.98752e-18
-1.94231e-18
-1.91086e-18
-1.97505e-18
-1.99316e-18
-1.97818e-18
-1.97935e-18
-1.98021e-18
-1.98332e-18
-2.01692e-18
-2.00675e-18
-2.00705e-18
-2.00386e-18
-2.00671e-18
-2.01612e-18
-1.99017e-18
-1.97555e-18
-1.98297e-18
-1.96261e-18
-1.9618e-18
-1.96411e-18
-1.99973e-18
-2.01551e-18
-1.96413e-18
-1.97049e-18
-2.01786e-18
-2.03746e-18
-1.96151e-18
-1.96762e-18
-1.946e-18
-1.9378e-18
-1.94291e-18
-1.95945e-18
-2.02918e-18
-2.03938e-18
-2.02439e-18
-2.00192e-18
-1.97542e-18
-2.01917e-18
-2.02472e-18
-2.01362e-18
-1.99522e-18
-2.00346e-18
-1.98311e-18
-1.99375e-18
-2.01179e-18
-1.98611e-18
-1.96416e-18
-1.99246e-18
-1.97724e-18
-1.97675e-18
-1.97225e-18
-1.95193e-18
-1.94618e-18
-1.96991e-18
-2.01305e-18
-2.04482e-18
-1.98619e-18
-1.99251e-18
-1.99275e-18
-2.00976e-18
-1.97164e-18
-1.99306e-18
-1.9956e-18
-1.96381e-18
-1.93333e-18
-1.95794e-18
-1.99187e-18
-1.98548e-18
-1.97351e-18
-1.98745e-18
-1.99091e-18
-1.98118e-18
-1.9873e-18
-2.00623e-18
-1.98012e-18
-1.97994e-18
-2.00423e-18
-2.00375e-18
-1.99459e-18
-1.99859e-18
-1.99351e-18
-1.97583e-18
-1.94472e-18
-1.98189e-18
-1.98644e-18
-1.97966e-18
-1.95679e-18
-1.97886e-18
-1.99058e-18
-1.98779e-18
-1.96025e-18
-2.00676e-18
-2.03669e-18
-1.98365e-18
-1.97864e-18
-1.98333e-18
-1.96258e-18
-2.00007e-18
-2.01427e-18
-1.98854e-18
-1.99172e-18
-1.99844e-18
-2.0194e-18
-2.03394e-18
-2.00879e-18
-1.98332e-18
-1.98565e-18
-1.99146e-18
-1.98443e-18
-1.99336e-18
-2.01418e-18
-2.01091e-18
-1.97621e-18
-1.97084e-18
-2.02588e-18
-1.96035e-18
-1.96262e-18
-1.9759e-18
-1.95629e-18
-1.98406e-18
-1.99365e-18
-2.00272e-18
-2.00031e-18
-1.97107e-18
-1.99632e-18
-1.99879e-18
-1.99714e-18
-1.96416e-18
-1.97955e-18
-1.98611e-18
-1.98978e-18
-2.0084e-18
-2.01878e-18
-1.9948e-18
-1.97813e-18
-1.97731e-18
-1.99189e-18
-1.9611e-18
-1.997e-18
-1.98454e-18
-1.97528e-18
-1.97197e-18
-2.00046e-18
-2.00017e-18
-2.01317e-18
-2.00487e-18
-2.00061e-18
-1.98006e-18
-1.98867e-18
-1.96159e-18
-1.9664e-18
-1.9686e-18
-1.97918e-18
-1.99126e-18
-2.00659e-18
-1.98263e-18
-1.96278e-18
-1.98233e-18
-2.00004e-18
-1.97472e-18
-1.98494e-18
-1.98306e-18
-1.98638e-18
-1.996e-18
-2.01165e-18
-1.9979e-18
-1.99402e-18
-2.00022e-18
-1.99399e-18
-1.98501e-18
-1.97615e-18
-1.98719e-18
-1.99123e-18
-1.98255e-18
-1.96968e-18
-1.98343e-18
-1.96178e-18
-1.96424e-18
-1.97714e-18
-1.98544e-18
-1.97184e-18
-1.95826e-18
-1.98059e-18
-1.9776e-18
-2.00171e-18
-1.99858e-18
-2.01658e-18
-2.00115e-18
-1.97812e-18
-1.96127e-18
-1.96071e-18
-1.98747e-18
-1.97814e-18
-1.99047e-18
-1.99245e-18
-1.98112e-18
-1.94459e-18
-1.96236e-18
-1.98767e-18
-2.0026e-18
-1.99598e-18
-1.96748e-18
-1.99108e-18
-1.99782e-18
-1.99562e-18
-1.98827e-18
-2.00669e-18
-1.98069e-18
-1.98404e-18
-1.98944e-18
-1.97285e-18
-1.97629e-18
-1.98971e-18
-1.97926e-18
-1.97691e-18
-1.9643e-18
-1.97851e-18
-2.00419e-18
-1.98922e-18
-1.98468e-18
-2.00622e-18
-1.99542e-18
-1.98437e-18
-2.00001e-18
-1.99369e-18
-1.99428e-18
-2.00963e-18
-1.96382e-18
-1.99128e-18
-1.98968e-18
-1.99651e-18
-1.99209e-18
-1.96656e-18
-1.97385e-18
-2.00575e-18
-1.9964e-18
-1.98767e-18
-1.97509e-18
-1.98808e-18
-1.99011e-18
-1.9952e-18
-1.98022e-18
-1.97362e-18
-1.99169e-18
-2.00291e-18
-1.98751e-18
-1.99723e-18
-1.98372e-18
-1.99256e-18
-1.9872e-18
-1.98699e-18
-1.9835e-18
-1.97261e-18
-1.97767e-18
-1.95375e-18
-1.99814e-18
-1.99829e-18
-1.97961e-18
-1.99626e-18
-1.99021e-18
-1.9885e-18
-1.99015e-18
-1.96045e-18
-1.95999e-18
-1.95371e-18
-2.00964e-18
-1.99333e-18
-1.98788e-18
-1.97682e-18
-1.98359e-18
-1.99282e-18
-1.98511e-18
-1.98042e-18
-1.99983e-18
-1.98962e-18
-1.98606e-18
-1.98574e-18
-1.97781e-18
-1.98793e-18
-1.99531e-18
-2.00217e-18
-1.9914e-18
-1.97173e-18
-1.98608e-18
-1.97125e-18
-1.98039e-18
-2.00914e-18
-1.99397e-18
-1.97451e-18
-1.9877e-18
-1.97945e-18
-1.96507e-18
-1.98645e-18
-1.98567e-18
-1.98482e-18
-1.97304e-18
-1.97308e-18
-1.97904e-18
-1.98384e-18
-1.99442e-18
-1.97989e-18
-1.98183e-18
-1.98954e-18
-1.98732e-18
-1.98767e-18
-1.99045e-18
-1.98957e-18
-1.98045e-18
-1.9927e-18
-1.99227e-18
-1.98232e-18
-1.99346e-18
-1.99117e-18
-1.97985e-18
-1.98487e-18
-1.99504e-18
-1.96995e-18
-1.97819e-18
-2.00764e-18
-1.98203e-18
-1.98983e-18
-1.98779e-18
-1.98364e-18
-1.99584e-18
-1.98851e-18
-1.98353e-18
-1.99818e-18
-1.98924e-18
-1.98201e-18
-2.00602e-18
-1.99041e-18
-1.97535e-18
-2.01741e-18
-1.98186e-18
-1.98297e-18
-2.01749e-18
-1.99622e-18
-1.985e-18
-2.00216e-18
-2.00102e-18
-1.98593e-18
-2.00416e-18
-2.00692e-18
-1.99241e-18
-2.01266e-18
-2.00083e-18
-1.98726e-18
-2.02032e-18
-2.00631e-18
-2.03911e-18
-2.00948e-18
-2.01122e-18
-2.01224e-18
-2.02269e-18
-1.9987e-18
-1.97695e-18
-1.99467e-18
-2.00613e-18
-1.99548e-18
-2.01298e-18
-1.99641e-18
-1.99284e-18
-2.00502e-18
-2.00656e-18
-1.99597e-18
-1.99146e-18
-2.00162e-18
-2.00192e-18
-1.98838e-18
-1.99582e-18
-1.99189e-18
-1.97962e-18
-2.0028e-18
-2.01022e-18
-2.01028e-18
-2.00126e-18
-1.99869e-18
-2.0001e-18
-2.01047e-18
-2.01884e-18
-2.00863e-18
-2.00701e-18
-2.00225e-18
-1.99387e-18
-1.98398e-18
-1.98675e-18
-2.00446e-18
-2.00456e-18
-1.9978e-18
-2.00348e-18
-1.98556e-18
-2.04983e-18
-2.01913e-18
-2.02815e-18
-2.01219e-18
-2.01762e-18
-2.00279e-18
-1.96473e-18
-1.95957e-18
-2.00236e-18
-2.01707e-18
-1.99906e-18
-2.00378e-18
-2.0065e-18
-2.00745e-18
-2.00869e-18
-2.00385e-18
-2.00248e-18
-2.01401e-18
-2.01836e-18
-2.00535e-18
-2.00364e-18
-2.00273e-18
-1.99798e-18
-2.00494e-18
-2.0056e-18
-2.00181e-18
-2.00073e-18
-1.99967e-18
-2.00264e-18
-1.99869e-18
-1.98912e-18
-2.00917e-18
-2.00861e-18
-1.99898e-18
-2.00912e-18
-2.02611e-18
-2.01138e-18
-2.00685e-18
-2.00359e-18
-2.0096e-18
-1.99609e-18
-2.03856e-18
-2.02791e-18
-2.04016e-18
-1.98531e-18
-2.0041e-18
-2.01413e-18
-2.00078e-18
-1.98132e-18
-2.02057e-18
-2.01135e-18
-2.0142e-18
-2.00638e-18
-1.99331e-18
-2.01079e-18
-1.98759e-18
-2.01391e-18
-2.01841e-18
-2.0141e-18
-2.00967e-18
-2.00878e-18
-2.00988e-18
-2.00761e-18
-2.02028e-18
-2.01665e-18
-2.00614e-18
-1.99606e-18
-2.00286e-18
-2.00919e-18
-2.00908e-18
-2.0104e-18
-2.02045e-18
-2.01379e-18
-2.01317e-18
-2.0143e-18
-2.01656e-18
-2.02335e-18
-2.02082e-18
-2.02112e-18
-2.02284e-18
-2.02158e-18
-2.02975e-18
-1.94655e-18
-2.01069e-18
-2.02669e-18
-2.04665e-18
-2.00699e-18
-2.00906e-18
-2.03608e-18
-1.98923e-18
-2.00732e-18
-2.01433e-18
-2.00738e-18
-2.0064e-18
-2.03497e-18
-2.00014e-18
-2.00342e-18
-2.00393e-18
-1.99611e-18
-2.00033e-18
-2.02576e-18
-2.01364e-18
-2.01022e-18
-2.0208e-18
-2.01039e-18
-2.0108e-18
-2.01168e-18
-2.02048e-18
-2.01128e-18
-2.00301e-18
-2.01604e-18
-2.0123e-18
-2.01598e-18
-2.01982e-18
-2.02533e-18
-2.01442e-18
-2.01265e-18
-2.00697e-18
-2.00368e-18
-1.99414e-18
-2.01013e-18
-2.01908e-18
-2.02283e-18
-2.01149e-18
-1.97559e-18
-2.01026e-18
-2.05169e-18
-1.99714e-18
-2.00306e-18
-1.98163e-18
-2.00685e-18
-2.01695e-18
-2.03325e-18
-2.0132e-18
-2.01283e-18
-1.98754e-18
-2.01355e-18
-2.0044e-18
-2.01037e-18
-2.0264e-18
-2.02372e-18
-2.00725e-18
-2.013e-18
-2.01419e-18
-2.01277e-18
-2.01733e-18
-2.02377e-18
-2.0261e-18
-2.01389e-18
-2.01098e-18
-2.02055e-18
-2.0218e-18
-2.01687e-18
-2.02197e-18
-2.02214e-18
-2.02587e-18
-2.02097e-18
-2.01184e-18
-2.01824e-18
-2.01687e-18
-2.02335e-18
-2.03535e-18
-2.0313e-18
-2.0352e-18
-2.03302e-18
-2.02723e-18
-1.948e-18
-1.95754e-18
-2.01708e-18
-2.0496e-18
-2.01513e-18
-2.00116e-18
-1.99227e-18
-2.03154e-18
-1.9887e-18
-1.99728e-18
-2.03054e-18
-1.97205e-18
-2.00647e-18
-2.02513e-18
-2.0189e-18
-2.04308e-18
-2.0202e-18
-2.00833e-18
-2.01185e-18
-2.01802e-18
-2.01278e-18
-2.00816e-18
-2.01309e-18
-2.01925e-18
-2.03067e-18
-2.02849e-18
-2.02324e-18
-2.01716e-18
-2.01702e-18
-2.01157e-18
-2.02474e-18
-2.02216e-18
-2.0105e-18
-2.0109e-18
-2.01732e-18
-2.02382e-18
-2.02181e-18
-2.01309e-18
-2.01561e-18
-2.02227e-18
-2.03198e-18
-2.02565e-18
-2.00522e-18
-1.9939e-18
-2.01402e-18
-2.03082e-18
-2.023e-18
-2.02226e-18
-2.04176e-18
-2.02362e-18
-1.98379e-18
-2.03631e-18
-2.06189e-18
-1.99761e-18
-2.00882e-18
-2.01723e-18
-2.03215e-18
-2.045e-18
-2.01789e-18
-1.99315e-18
-2.00716e-18
-2.03255e-18
-2.0531e-18
-2.02261e-18
-2.01011e-18
-2.02515e-18
-2.01372e-18
-2.01062e-18
-2.0183e-18
-2.01619e-18
-2.00242e-18
-2.00752e-18
-2.02737e-18
-2.0365e-18
-2.02397e-18
-2.03576e-18
-2.03236e-18
-2.03486e-18
-2.03405e-18
-2.03716e-18
-2.04097e-18
-2.04097e-18
-2.04041e-18
-2.04919e-18
-2.05349e-18
-2.00746e-18
-1.99191e-18
-2.02558e-18
-2.03836e-18
-2.01919e-18
-2.02169e-18
-2.0443e-18
-1.99246e-18
-2.01662e-18
-2.02384e-18
-2.02347e-18
-2.04258e-18
-2.04085e-18
-2.01861e-18
-2.01934e-18
-2.03448e-18
-2.03914e-18
-2.02372e-18
-2.02664e-18
-2.04413e-18
-2.02379e-18
-2.01075e-18
-2.01981e-18
-2.01785e-18
-2.01036e-18
-2.0216e-18
-2.02356e-18
-2.02478e-18
-2.01813e-18
-2.02436e-18
-2.02742e-18
-2.02636e-18
-2.02282e-18
-2.02903e-18
-2.03348e-18
-2.03536e-18
-2.03666e-18
-2.04198e-18
-2.03095e-18
-2.03126e-18
-2.03248e-18
-2.08751e-18
-2.01457e-18
-1.95779e-18
-2.03491e-18
-2.08198e-18
-2.03401e-18
-1.99461e-18
-2.0483e-18
-2.01441e-18
-2.0143e-18
-2.01793e-18
-2.02242e-18
-2.02787e-18
-2.04158e-18
-2.01612e-18
-2.0304e-18
-2.03264e-18
-2.01682e-18
-2.03386e-18
-2.05336e-18
-2.05094e-18
-2.03129e-18
-2.03231e-18
-2.01167e-18
-2.00326e-18
-2.02163e-18
-2.02501e-18
-2.01859e-18
-2.02622e-18
-2.02849e-18
-2.02799e-18
-2.02436e-18
-2.02581e-18
-2.03216e-18
-2.03314e-18
-2.04673e-18
-2.0414e-18
-2.04256e-18
-2.05343e-18
-2.04722e-18
-2.05388e-18
-2.04953e-18
-1.97076e-18
-2.00553e-18
-1.97175e-18
-2.06657e-18
-2.05488e-18
-2.05652e-18
-2.02948e-18
-2.0488e-18
-2.00944e-18
-2.04855e-18
-2.02907e-18
-2.01743e-18
-2.02593e-18
-2.04077e-18
-2.02368e-18
-2.02059e-18
-2.02276e-18
-2.02182e-18
-2.02708e-18
-2.01799e-18
-2.02561e-18
-2.02538e-18
-2.02625e-18
-2.02003e-18
-2.02915e-18
-2.0282e-18
-2.03145e-18
-2.0321e-18
-2.03557e-18
-2.03815e-18
-2.03444e-18
-2.03805e-18
-2.04236e-18
-2.04085e-18
-2.04246e-18
-2.04533e-18
-2.05341e-18
-2.06794e-18
-2.06274e-18
-2.05897e-18
-2.05168e-18
-2.04425e-18
-2.00293e-18
-2.02573e-18
-2.0294e-18
-2.06453e-18
-2.0352e-18
-2.03414e-18
-2.02835e-18
-2.0183e-18
-2.02941e-18
-2.07878e-18
-2.0568e-18
-2.02785e-18
-2.02281e-18
-2.03239e-18
-2.0431e-18
-2.02014e-18
-2.03354e-18
-2.01622e-18
-2.01433e-18
-2.02406e-18
-2.02718e-18
-2.02214e-18
-2.03632e-18
-2.03798e-18
-2.04736e-18
-2.02656e-18
-2.02257e-18
-2.03248e-18
-2.03656e-18
-2.03702e-18
-2.03222e-18
-2.0458e-18
-2.04601e-18
-2.04847e-18
-2.04696e-18
-2.04385e-18
-2.05339e-18
-2.05643e-18
-2.04917e-18
-2.02707e-18
-2.03067e-18
-2.04577e-18
-2.02202e-18
-2.02995e-18
-2.05652e-18
-1.99312e-18
-2.01485e-18
-2.02645e-18
-2.02955e-18
-2.00165e-18
-2.02295e-18
-2.05653e-18
-2.03706e-18
-2.02059e-18
-2.0066e-18
-2.02478e-18
-2.0316e-18
-2.03331e-18
-2.0369e-18
-2.0209e-18
-2.02635e-18
-2.01843e-18
-2.03048e-18
-2.03377e-18
-2.03169e-18
-2.03122e-18
-2.03516e-18
-2.0354e-18
-2.03374e-18
-2.03078e-18
-2.03891e-18
-2.04447e-18
-2.05202e-18
-2.04964e-18
-2.05112e-18
-2.06315e-18
-2.04798e-18
-2.04693e-18
-2.04746e-18
-2.04454e-18
-2.06647e-18
-2.07659e-18
-2.06793e-18
-2.06728e-18
-2.06194e-18
-2.03786e-18
-2.01701e-18
-1.98055e-18
-2.00489e-18
-2.03884e-18
-2.05266e-18
-2.07369e-18
-2.05155e-18
-2.00506e-18
-2.02581e-18
-2.02659e-18
-2.00303e-18
-1.99852e-18
-2.01057e-18
-2.05498e-18
-2.07178e-18
-2.05146e-18
-2.04435e-18
-2.03772e-18
-2.02881e-18
-2.03577e-18
-2.04205e-18
-2.03574e-18
-2.03315e-18
-2.03479e-18
-2.0249e-18
-2.03618e-18
-2.04733e-18
-2.04141e-18
-2.02946e-18
-2.03676e-18
-2.03536e-18
-2.04327e-18
-2.04656e-18
-2.04583e-18
-2.04113e-18
-2.04747e-18
-2.05074e-18
-2.05463e-18
-2.06255e-18
-2.06533e-18
-2.05516e-18
-2.04544e-18
-2.04736e-18
-2.07795e-18
-2.04016e-18
-2.0139e-18
-1.98114e-18
-2.07708e-18
-2.11454e-18
-2.10596e-18
-2.0459e-18
-2.03551e-18
-2.03231e-18
-2.02955e-18
-2.00897e-18
-2.02549e-18
-2.03629e-18
-2.05411e-18
-2.05613e-18
-2.04007e-18
-2.042e-18
-2.03238e-18
-2.01066e-18
-2.02506e-18
-2.01627e-18
-2.03572e-18
-2.0438e-18
-2.03113e-18
-2.03103e-18
-2.02446e-18
-2.04513e-18
-2.03455e-18
-2.03454e-18
-2.04626e-18
-2.05736e-18
-2.06069e-18
-2.05243e-18
-2.04983e-18
-2.04797e-18
-2.049e-18
-2.05415e-18
-2.05251e-18
-2.05002e-18
-2.04999e-18
-2.05765e-18
-2.06631e-18
-2.0727e-18
-2.19894e-18
-2.07277e-18
-2.04847e-18
-2.02666e-18
-2.05115e-18
-2.05364e-18
-2.04248e-18
-2.00195e-18
-2.05401e-18
-2.04532e-18
-2.05867e-18
-2.04339e-18
-2.04162e-18
-2.05672e-18
-2.04138e-18
-2.0322e-18
-2.02176e-18
-2.02213e-18
-2.02664e-18
-2.03596e-18
-2.03866e-18
-2.03759e-18
-2.03845e-18
-2.02618e-18
-2.02779e-18
-2.03623e-18
-2.04125e-18
-2.04409e-18
-2.04661e-18
-2.02754e-18
-2.03212e-18
-2.02086e-18
-2.02221e-18
-2.04058e-18
-2.04816e-18
-2.05263e-18
-2.05622e-18
-2.06904e-18
-2.05892e-18
-2.05569e-18
-2.06566e-18
-2.06816e-18
-2.06552e-18
-2.06666e-18
-2.05651e-18
-2.15895e-18
-2.05998e-18
-2.10188e-18
-2.0496e-18
-2.06526e-18
-2.04264e-18
-2.02703e-18
-1.9819e-18
-2.0284e-18
-2.0376e-18
-2.01369e-18
-2.04958e-18
-2.04235e-18
-2.03854e-18
-2.03619e-18
-2.01716e-18
-2.03201e-18
-2.04014e-18
-2.04021e-18
-2.04079e-18
-2.04294e-18
-2.05354e-18
-2.05391e-18
-2.03999e-18
-2.03279e-18
-2.04014e-18
-2.04341e-18
-2.04474e-18
-2.04733e-18
-2.04784e-18
-2.05185e-18
-2.06421e-18
-2.04033e-18
-2.04099e-18
-2.03235e-18
-2.0444e-18
-2.05321e-18
-2.05109e-18
-2.0522e-18
-2.05414e-18
-2.04548e-18
-2.06388e-18
-2.05432e-18
-2.0585e-18
-2.0659e-18
-1.81737e-18
-1.94368e-18
-2.04515e-18
-2.03234e-18
-1.99816e-18
-2.03222e-18
-2.04284e-18
-2.05923e-18
-2.04315e-18
-2.03131e-18
-1.98469e-18
-1.99637e-18
-2.03073e-18
-2.0228e-18
-2.05076e-18
-2.02537e-18
-2.03695e-18
-2.05085e-18
-2.04542e-18
-2.05168e-18
-2.04448e-18
-2.04112e-18
-2.03167e-18
-2.0315e-18
-2.04414e-18
-2.03705e-18
-2.04136e-18
-2.04076e-18
-2.04288e-18
-2.03951e-18
-2.03114e-18
-2.04694e-18
-2.04948e-18
-2.04948e-18
-2.05181e-18
-2.05492e-18
-2.05429e-18
-2.06098e-18
-2.07309e-18
-2.06041e-18
-2.05791e-18
-2.05667e-18
-2.04481e-18
-2.05855e-18
-2.07407e-18
-2.07099e-18
-1.78493e-18
-2.13815e-18
-2.08187e-18
-2.04926e-18
-2.02197e-18
-2.02411e-18
-2.0435e-18
-2.0547e-18
-2.04556e-18
-2.04125e-18
-2.04103e-18
-2.0643e-18
-2.06461e-18
-2.05108e-18
-2.06685e-18
-2.05957e-18
-2.04786e-18
-2.0408e-18
-2.03231e-18
-2.04203e-18
-2.04547e-18
-2.05497e-18
-2.0602e-18
-2.06423e-18
-2.05525e-18
-2.072e-18
-2.07069e-18
-2.05196e-18
-2.04882e-18
-2.05301e-18
-2.05918e-18
-2.06493e-18
-2.05684e-18
-2.04621e-18
-2.03584e-18
-2.05528e-18
-2.07361e-18
-2.06732e-18
-2.07637e-18
-2.06528e-18
-2.06205e-18
-2.06059e-18
-2.05365e-18
-2.06045e-18
-2.06656e-18
-2.06472e-18
-2.06583e-18
-1.90996e-18
-2.21746e-18
-2.15363e-18
-2.112e-18
-2.0334e-18
-1.99763e-18
-2.04181e-18
-2.07725e-18
-2.05179e-18
-2.03748e-18
-2.04712e-18
-2.06308e-18
-2.02747e-18
-2.03883e-18
-2.04248e-18
-2.03012e-18
-2.03669e-18
-2.02728e-18
-2.0276e-18
-2.02973e-18
-2.02975e-18
-2.03118e-18
-2.041e-18
-2.04532e-18
-2.04627e-18
-2.04663e-18
-2.04954e-18
-2.05116e-18
-2.049e-18
-2.05521e-18
-2.07425e-18
-2.08213e-18
-2.07948e-18
-2.05919e-18
-2.04758e-18
-2.07391e-18
-2.08495e-18
-2.07413e-18
-2.08151e-18
-2.0679e-18
-2.05278e-18
-2.06862e-18
-2.08339e-18
-2.06958e-18
-2.07046e-18
-2.07098e-18
-2.07203e-18
-1.73577e-18
-2.17151e-18
-2.08464e-18
-2.05574e-18
-2.01715e-18
-2.02442e-18
-2.04036e-18
-2.08661e-18
-2.07372e-18
-2.02062e-18
-2.04488e-18
-2.05256e-18
-2.04394e-18
-2.04494e-18
-2.052e-18
-2.06404e-18
-2.04956e-18
-2.04682e-18
-2.05938e-18
-2.05804e-18
-2.05737e-18
-2.04232e-18
-2.04712e-18
-2.05604e-18
-2.06205e-18
-2.03583e-18
-2.05324e-18
-2.06443e-18
-2.04015e-18
-2.05143e-18
-2.06111e-18
-2.0408e-18
-2.04955e-18
-2.05503e-18
-2.05673e-18
-2.05853e-18
-2.05664e-18
-2.04527e-18
-2.05889e-18
-2.06447e-18
-2.06371e-18
-2.06399e-18
-2.06177e-18
-2.05197e-18
-2.05752e-18
-2.05078e-18
-2.06343e-18
-1.7516e-18
-2.03376e-18
-2.04371e-18
-2.01892e-18
-1.94499e-18
-2.0155e-18
-2.00709e-18
-2.08207e-18
-2.08105e-18
-2.04846e-18
-2.06939e-18
-2.07513e-18
-2.0577e-18
-2.04866e-18
-2.05204e-18
-2.05509e-18
-2.04734e-18
-2.04074e-18
-2.05621e-18
-2.05065e-18
-2.05027e-18
-2.04705e-18
-2.05105e-18
-2.05583e-18
-2.03625e-18
-2.02817e-18
-2.05411e-18
-2.07274e-18
-2.05947e-18
-2.05511e-18
-2.05454e-18
-2.05128e-18
-2.06202e-18
-2.06913e-18
-2.06602e-18
-2.0664e-18
-2.07109e-18
-2.08474e-18
-2.07337e-18
-2.07013e-18
-2.06725e-18
-2.06125e-18
-2.08383e-18
-2.07935e-18
-2.07481e-18
-2.07614e-18
-2.0842e-18
-2.21434e-18
-2.03576e-18
-2.0124e-18
-2.0197e-18
-1.98059e-18
-2.03373e-18
-2.01399e-18
-2.07625e-18
-2.06421e-18
-2.04851e-18
-2.02582e-18
-2.04691e-18
-2.06484e-18
-2.03334e-18
-2.05212e-18
-2.0667e-18
-2.03579e-18
-2.04276e-18
-2.04301e-18
-2.05559e-18
-2.06864e-18
-2.03296e-18
-2.03219e-18
-2.06858e-18
-2.0785e-18
-2.07891e-18
-2.05932e-18
-2.06124e-18
-2.06765e-18
-2.04381e-18
-2.05889e-18
-2.07523e-18
-2.06529e-18
-2.05074e-18
-2.05604e-18
-2.04845e-18
-2.05976e-18
-2.07158e-18
-2.08486e-18
-2.0739e-18
-2.07619e-18
-2.09213e-18
-2.0977e-18
-2.08915e-18
-2.06055e-18
-2.05793e-18
-2.07308e-18
-2.0796e-18
-2.08079e-18
-1.97459e-18
-1.95084e-18
-2.007e-18
-2.02738e-18
-2.101e-18
-2.09e-18
-2.05963e-18
-2.08142e-18
-2.07904e-18
-2.04225e-18
-2.02348e-18
-2.02823e-18
-2.04196e-18
-2.05265e-18
-2.05097e-18
-2.02321e-18
-2.05032e-18
-2.05898e-18
-2.06727e-18
-2.05991e-18
-2.05567e-18
-2.06074e-18
-2.07944e-18
-2.06621e-18
-2.0682e-18
-2.05679e-18
-2.05615e-18
-2.05263e-18
-2.04268e-18
-2.05578e-18
-2.06164e-18
-2.06501e-18
-2.07264e-18
-2.05818e-18
-2.07396e-18
-2.06042e-18
-2.08017e-18
-2.07441e-18
-2.07087e-18
-2.0715e-18
-2.0735e-18
-2.07539e-18
-2.07728e-18
-2.07765e-18
-2.07965e-18
-2.08162e-18
-2.0826e-18
-2.04195e-18
-1.86005e-18
-2.09346e-18
-1.98082e-18
-1.99713e-18
-2.10876e-18
-2.09367e-18
-2.01804e-18
-2.05171e-18
-2.05605e-18
-2.02506e-18
-2.04276e-18
-2.04742e-18
-2.03627e-18
-2.0613e-18
-2.0761e-18
-2.06417e-18
-2.07337e-18
-2.05984e-18
-2.05757e-18
-2.04299e-18
-2.05197e-18
-2.04948e-18
-2.08732e-18
-2.06893e-18
-2.05981e-18
-2.06045e-18
-2.06245e-18
-2.06379e-18
-2.06846e-18
-2.08519e-18
-2.08721e-18
-2.07055e-18
-2.06695e-18
-2.07054e-18
-2.086e-18
-2.0795e-18
-2.05673e-18
-2.06609e-18
-2.07295e-18
-2.07479e-18
-2.07453e-18
-2.07188e-18
-2.07761e-18
-2.07937e-18
-2.08081e-18
-2.07858e-18
-2.08243e-18
-2.08683e-18
-2.29416e-18
-2.02215e-18
-2.05745e-18
-2.05254e-18
-2.05287e-18
-2.10036e-18
-2.06351e-18
-2.02031e-18
-2.05188e-18
-2.07402e-18
-2.03229e-18
-2.05819e-18
-2.07882e-18
-2.06546e-18
-2.0939e-18
-2.08758e-18
-2.06385e-18
-2.05189e-18
-2.06019e-18
-2.06072e-18
-2.05541e-18
-2.04198e-18
-2.05735e-18
-2.06442e-18
-2.0632e-18
-2.06178e-18
-2.05897e-18
-2.04742e-18
-2.0608e-18
-2.06672e-18
-2.07563e-18
-2.0945e-18
-2.06747e-18
-2.08086e-18
-2.07569e-18
-2.07213e-18
-2.07297e-18
-2.07259e-18
-2.0738e-18
-2.07527e-18
-2.07575e-18
-2.07601e-18
-2.07581e-18
-2.07253e-18
-2.06345e-18
-2.07496e-18
-2.07969e-18
-2.076e-18
-2.06648e-18
-2.33664e-18
-2.12329e-18
-2.04383e-18
-2.12821e-18
-2.07415e-18
-2.07247e-18
-2.06727e-18
-2.0825e-18
-2.0575e-18
-2.03552e-18
-2.05448e-18
-2.0815e-18
-2.06319e-18
-2.05248e-18
-2.04844e-18
-2.07555e-18
-2.06278e-18
-2.06525e-18
-2.0697e-18
-2.04374e-18
-2.05315e-18
-2.04705e-18
-2.06934e-18
-2.0872e-18
-2.0791e-18
-2.09049e-18
-2.08982e-18
-2.07783e-18
-2.08758e-18
-2.07701e-18
-2.07234e-18
-2.07749e-18
-2.0855e-18
-2.07692e-18
-2.07246e-18
-2.06348e-18
-2.07378e-18
-2.07802e-18
-2.07955e-18
-2.08463e-18
-2.09625e-18
-2.08116e-18
-2.06707e-18
-2.07897e-18
-2.08445e-18
-2.08995e-18
-2.09961e-18
-2.08665e-18
-2.08581e-18
-2.09008e-18
-2.12215e-18
-2.2583e-18
-1.95422e-18
-2.12221e-18
-2.09079e-18
-2.09815e-18
-2.06913e-18
-2.06774e-18
-2.06056e-18
-2.05368e-18
-2.05742e-18
-2.05565e-18
-2.03594e-18
-2.03502e-18
-2.04788e-18
-2.03933e-18
-2.03193e-18
-2.05908e-18
-2.06653e-18
-2.06167e-18
-2.05479e-18
-2.06815e-18
-2.09327e-18
-2.08779e-18
-2.07362e-18
-2.07277e-18
-2.07131e-18
-2.0717e-18
-2.07493e-18
-2.08778e-18
-2.07678e-18
-2.07332e-18
-2.07507e-18
-2.08075e-18
-2.09515e-18
-2.09597e-18
-2.07911e-18
-2.06781e-18
-2.07778e-18
-2.08125e-18
-2.0829e-18
-2.08019e-18
-2.07409e-18
-2.08049e-18
-2.08432e-18
-2.08538e-18
-2.08591e-18
-2.08368e-18
-2.07242e-18
-2.07489e-18
-2.02533e-18
-1.90205e-18
-1.91325e-18
-2.0753e-18
-2.11633e-18
-2.07089e-18
-2.07002e-18
-2.06755e-18
-2.06786e-18
-2.05892e-18
-2.05195e-18
-2.03827e-18
-2.05006e-18
-2.0388e-18
-2.04484e-18
-2.06433e-18
-2.0804e-18
-2.07045e-18
-2.06666e-18
-2.05908e-18
-2.0581e-18
-2.05674e-18
-2.08809e-18
-2.07451e-18
-2.06711e-18
-2.05718e-18
-2.06935e-18
-2.07854e-18
-2.09624e-18
-2.09996e-18
-2.09996e-18
-2.0984e-18
-2.10053e-18
-2.0951e-18
-2.07309e-18
-2.0787e-18
-2.08331e-18
-2.08428e-18
-2.08551e-18
-2.09055e-18
-2.10227e-18
-2.08777e-18
-2.07376e-18
-2.08376e-18
-2.08839e-18
-2.08557e-18
-2.07809e-18
-2.08701e-18
-2.09299e-18
-2.09364e-18
-2.08084e-18
-1.99308e-18
-1.99387e-18
-2.05004e-18
-2.06775e-18
-2.02653e-18
-2.09224e-18
-2.077e-18
-2.08894e-18
-2.06009e-18
-2.03499e-18
-2.05624e-18
-2.05837e-18
-2.04603e-18
-2.07838e-18
-2.06719e-18
-2.05449e-18
-2.07596e-18
-2.05044e-18
-2.05797e-18
-2.0451e-18
-2.08712e-18
-2.09454e-18
-2.06289e-18
-2.06988e-18
-2.07524e-18
-2.0776e-18
-2.0752e-18
-2.07554e-18
-2.07731e-18
-2.07803e-18
-2.07862e-18
-2.08e-18
-2.08222e-18
-2.07664e-18
-2.06705e-18
-2.07866e-18
-2.08258e-18
-2.08366e-18
-2.08603e-18
-2.08372e-18
-2.07495e-18
-2.08673e-18
-2.09309e-18
-2.09882e-18
-2.10977e-18
-2.10093e-18
-2.09752e-18
-2.10282e-18
-2.11149e-18
-2.2319e-18
-2.0372e-18
-1.96276e-18
-2.03348e-18
-2.07426e-18
-2.06289e-18
-2.07135e-18
-2.05844e-18
-2.03437e-18
-2.05195e-18
-2.04414e-18
-2.08583e-18
-2.06928e-18
-2.04305e-18
-2.04766e-18
-2.05775e-18
-2.04296e-18
-2.08094e-18
-2.07427e-18
-2.06323e-18
-2.07103e-18
-2.07892e-18
-2.07732e-18
-2.07623e-18
-2.07823e-18
-2.08147e-18
-2.07983e-18
-2.0848e-18
-2.0973e-18
-2.08393e-18
-2.08301e-18
-2.08221e-18
-2.0833e-18
-2.08233e-18
-2.07385e-18
-2.08608e-18
-2.10498e-18
-2.09901e-18
-2.10655e-18
-2.0968e-18
-2.09648e-18
-2.1051e-18
-2.08525e-18
-2.08674e-18
-2.08134e-18
-2.09179e-18
-2.0922e-18
-2.08394e-18
-2.09808e-18
-2.10723e-18
-1.85082e-18
-1.98818e-18
-2.02148e-18
-2.0127e-18
-2.12221e-18
-2.08381e-18
-2.06679e-18
-2.04662e-18
-2.01264e-18
-2.06078e-18
-2.06049e-18
-2.07255e-18
-2.09484e-18
-2.06966e-18
-2.06656e-18
-2.0749e-18
-2.08258e-18
-2.0782e-18
-2.07598e-18
-2.0746e-18
-2.06846e-18
-2.0763e-18
-2.07933e-18
-2.08112e-18
-2.08195e-18
-2.08211e-18
-2.08093e-18
-2.08932e-18
-2.10175e-18
-2.08767e-18
-2.08808e-18
-2.10422e-18
-2.09655e-18
-2.0942e-18
-2.10566e-18
-2.09466e-18
-2.09196e-18
-2.09347e-18
-2.09429e-18
-2.09324e-18
-2.09641e-18
-2.09949e-18
-2.10011e-18
-2.10042e-18
-2.10247e-18
-2.10539e-18
-2.10555e-18
-2.1029e-18
-2.09969e-18
-2.10707e-18
-2.01533e-18
-1.93659e-18
-2.04462e-18
-2.05372e-18
-2.12823e-18
-2.08797e-18
-2.06538e-18
-2.03706e-18
-2.06559e-18
-2.08925e-18
-2.02684e-18
-2.04832e-18
-2.10724e-18
-2.07883e-18
-2.07205e-18
-2.08577e-18
-2.06208e-18
-2.07029e-18
-2.07772e-18
-2.08989e-18
-2.09212e-18
-2.08595e-18
-2.08519e-18
-2.09008e-18
-2.10975e-18
-2.10851e-18
-2.09201e-18
-2.10039e-18
-2.09078e-18
-2.08009e-18
-2.07485e-18
-2.10563e-18
-2.11065e-18
-2.08861e-18
-2.06683e-18
-2.07e-18
-2.0855e-18
-2.09256e-18
-2.09512e-18
-2.0948e-18
-2.09625e-18
-2.09413e-18
-2.07919e-18
-2.07993e-18
-2.09568e-18
-2.10301e-18
-2.10426e-18
-2.10554e-18
-2.0988e-18
-2.09542e-18
-2.20559e-18
-2.08664e-18
-2.06609e-18
-2.01436e-18
-2.08796e-18
-2.11794e-18
-2.08102e-18
-2.07469e-18
-2.10333e-18
-2.07823e-18
-2.04032e-18
-2.06113e-18
-2.08092e-18
-2.09164e-18
-2.06068e-18
-2.07377e-18
-2.07617e-18
-2.08161e-18
-2.10192e-18
-2.08486e-18
-2.08275e-18
-2.07985e-18
-2.07449e-18
-2.08361e-18
-2.07854e-18
-2.10007e-18
-2.08116e-18
-2.11033e-18
-2.10771e-18
-2.07432e-18
-2.08071e-18
-2.07951e-18
-2.09545e-18
-2.11254e-18
-2.09886e-18
-2.09676e-18
-2.09862e-18
-2.10459e-18
-2.11543e-18
-2.09968e-18
-2.08644e-18
-2.0986e-18
-2.10298e-18
-2.10609e-18
-2.10186e-18
-2.09461e-18
-2.10294e-18
-2.10364e-18
-2.10763e-18
-2.10139e-18
-1.82074e-18
-2.19883e-18
-2.09836e-18
-2.06716e-18
-2.09023e-18
-2.12193e-18
-2.08477e-18
-2.08509e-18
-2.08472e-18
-2.0719e-18
-2.04606e-18
-2.04922e-18
-2.06776e-18
-2.07295e-18
-2.07596e-18
-2.09817e-18
-2.09917e-18
-2.08215e-18
-2.07645e-18
-2.07902e-18
-2.09471e-18
-2.09038e-18
-2.09174e-18
-2.10863e-18
-2.08537e-18
-2.08914e-18
-2.08945e-18
-2.08797e-18
-2.09294e-18
-2.08934e-18
-2.0809e-18
-2.10636e-18
-2.10178e-18
-2.09843e-18
-2.09771e-18
-2.09919e-18
-2.10055e-18
-2.0997e-18
-2.09531e-18
-2.08879e-18
-2.10424e-18
-2.10911e-18
-2.11751e-18
-2.09482e-18
-2.09487e-18
-2.1062e-18
-2.11212e-18
-2.11184e-18
-2.11425e-18
-2.11524e-18
-1.99068e-18
-2.214e-18
-2.10329e-18
-2.08387e-18
-2.08297e-18
-2.08571e-18
-2.07328e-18
-2.09913e-18
-2.08139e-18
-2.07506e-18
-2.06731e-18
-2.06839e-18
-2.06042e-18
-2.07268e-18
-2.06679e-18
-2.08262e-18
-2.08111e-18
-2.07306e-18
-2.0831e-18
-2.08648e-18
-2.08633e-18
-2.09601e-18
-2.09168e-18
-2.08153e-18
-2.07855e-18
-2.0919e-18
-2.10399e-18
-2.09648e-18
-2.07824e-18
-2.09055e-18
-2.09782e-18
-2.098e-18
-2.10019e-18
-2.09958e-18
-2.10046e-18
-2.10219e-18
-2.0995e-18
-2.1001e-18
-2.09079e-18
-2.09874e-18
-2.11169e-18
-2.12781e-18
-2.11921e-18
-2.1052e-18
-2.1077e-18
-2.10552e-18
-2.11776e-18
-2.11347e-18
-2.11348e-18
-2.11705e-18
-1.99443e-18
-2.12037e-18
-2.08568e-18
-2.08426e-18
-2.09123e-18
-2.07445e-18
-2.06385e-18
-2.05663e-18
-2.07266e-18
-2.07701e-18
-2.05755e-18
-2.07397e-18
-2.10112e-18
-2.08809e-18
-2.10128e-18
-2.10204e-18
-2.07595e-18
-2.08515e-18
-2.09717e-18
-2.09133e-18
-2.08733e-18
-2.08318e-18
-2.08872e-18
-2.09578e-18
-2.09492e-18
-2.09834e-18
-2.09825e-18
-2.09981e-18
-2.10082e-18
-2.11425e-18
-2.10496e-18
-2.10774e-18
-2.12885e-18
-2.12226e-18
-2.12797e-18
-2.11418e-18
-2.1093e-18
-2.10086e-18
-2.12472e-18
-2.12387e-18
-2.1276e-18
-2.11489e-18
-2.11022e-18
-2.11423e-18
-2.12157e-18
-2.11247e-18
-2.11444e-18
-2.11539e-18
-2.11994e-18
-2.12595e-18
-2.184e-18
-2.11387e-18
-2.10229e-18
-2.09958e-18
-2.12708e-18
-2.04707e-18
-2.0399e-18
-2.09372e-18
-2.08598e-18
-2.11038e-18
-2.09737e-18
-2.04505e-18
-2.07396e-18
-2.05752e-18
-2.04773e-18
-2.07971e-18
-2.08778e-18
-2.09906e-18
-2.09174e-18
-2.10176e-18
-2.10515e-18
-2.08885e-18
-2.08283e-18
-2.09548e-18
-2.09605e-18
-2.09263e-18
-2.09936e-18
-2.10881e-18
-2.11051e-18
-2.11855e-18
-2.10842e-18
-2.10884e-18
-2.0967e-18
-2.0934e-18
-2.09973e-18
-2.10638e-18
-2.10978e-18
-2.10568e-18
-2.10461e-18
-2.11512e-18
-2.12032e-18
-2.11293e-18
-2.10836e-18
-2.11508e-18
-2.12197e-18
-2.11874e-18
-2.12121e-18
-2.12512e-18
-2.13201e-18
-2.11845e-18
-2.01791e-18
-2.0884e-18
-2.14459e-18
-2.14748e-18
-2.13099e-18
-2.06913e-18
-2.03459e-18
-2.05776e-18
-2.07958e-18
-2.09412e-18
-2.08032e-18
-2.05413e-18
-2.07089e-18
-2.06153e-18
-2.06188e-18
-2.08691e-18
-2.10299e-18
-2.092e-18
-2.08849e-18
-2.09386e-18
-2.09105e-18
-2.08696e-18
-2.10238e-18
-2.10031e-18
-2.10016e-18
-2.10737e-18
-2.10044e-18
-2.09831e-18
-2.09352e-18
-2.11369e-18
-2.11799e-18
-2.11393e-18
-2.11929e-18
-2.11609e-18
-2.11639e-18
-2.1202e-18
-2.12641e-18
-2.12256e-18
-2.12289e-18
-2.12554e-18
-2.11874e-18
-2.12984e-18
-2.12901e-18
-2.13299e-18
-2.1329e-18
-2.13477e-18
-2.1338e-18
-2.12286e-18
-2.11424e-18
-2.11207e-18
-2.05408e-18
-2.08199e-18
-2.09846e-18
-2.13974e-18
-2.09795e-18
-2.08173e-18
-2.07814e-18
-2.10686e-18
-2.08841e-18
-2.10188e-18
-2.05923e-18
-2.05661e-18
-2.08691e-18
-2.10707e-18
-2.09155e-18
-2.09287e-18
-2.10959e-18
-2.10701e-18
-2.08989e-18
-2.10561e-18
-2.10129e-18
-2.11293e-18
-2.121e-18