/*--------------------------------*- C++ -*----------------------------------*\
  =========                 |
  \\      /  F ield         | OpenFOAM: The Open Source CFD Toolbox
   \\    /   O peration     | Website:  https://openfoam.org
    \\  /    A nd           | Version:  7
     \\/     M anipulation  |
\*---------------------------------------------------------------------------*/
FoamFile
{
    version     2.0;
    format      ascii;
    class       volScalarField;
    location    "60000";
    object      strainRate;
}
// * * * * * * * * * * * * * * * * * * * * * * * * * * * * * * * * * * * * * //

dimensions      [0 0 -1 0 0 0 0];

internalField   nonuniform List<scalar> 
4844
(
6.05526e-05
6.07194e-05
6.0899e-05
6.08535e-05
6.09162e-05
6.10054e-05
6.11682e-05
6.12695e-05
6.13848e-05
6.14707e-05
6.15971e-05
6.1212e-05
6.11676e-05
6.11672e-05
6.11542e-05
6.11923e-05
6.12766e-05
6.13037e-05
6.13554e-05
6.1562e-05
6.14557e-05
6.15263e-05
6.1553e-05
6.1375e-05
6.13259e-05
6.11927e-05
6.11697e-05
6.12354e-05
6.11903e-05
6.11566e-05
6.12688e-05
6.09739e-05
6.10649e-05
6.22654e-05
6.52107e-05
7.29062e-05
8.95163e-05
0.000123531
6.16613e-05
6.14522e-05
6.13773e-05
6.1188e-05
6.11085e-05
6.11799e-05
6.10411e-05
6.0931e-05
6.11314e-05
6.24806e-05
6.55612e-05
7.31561e-05
8.84447e-05
0.00011698
0.000169228
0.000261708
6.15521e-05
6.13664e-05
6.1328e-05
6.10555e-05
6.09166e-05
6.10506e-05
6.18357e-05
6.36844e-05
6.71282e-05
7.6028e-05
9.17262e-05
0.000119748
0.00016926
0.000252895
0.000389021
0.000600172
6.11139e-05
6.11937e-05
6.18628e-05
6.33595e-05
6.59526e-05
7.17188e-05
8.21618e-05
9.94047e-05
0.000129952
0.000180824
0.000263583
0.000395119
0.000592971
0.00087226
0.00124407
6.44324e-05
6.6652e-05
7.17988e-05
8.02998e-05
9.34733e-05
0.000115115
0.000150159
0.000205918
0.000293165
0.000426708
0.000621572
0.000892404
0.00124409
0.00167078
0.00216789
8.52487e-05
9.68486e-05
0.000115425
0.000143854
0.000186878
0.000251693
0.00034869
0.000490422
0.000689144
0.000957152
0.00129821
0.00170888
0.0021758
0.00267891
0.0032169
0.000133229
0.000159707
0.000197924
0.000252944
0.000332131
0.000444293
0.000599092
0.000807668
0.00107778
0.00141144
0.00180604
0.00225082
0.0027298
0.00322747
0.00372944
0.00424867
0.000302078
0.00037451
0.000472653
0.000603305
0.00077546
0.00099599
0.00126912
0.00159653
0.00197451
0.00239406
0.00284342
0.00331098
0.00378476
0.00425723
0.00472341
0.00520608
0.000712565
0.000862991
0.00105054
0.00127903
0.00155177
0.00186844
0.00222521
0.00261503
0.00302992
0.00346096
0.00389958
0.00434023
0.00477822
0.00521142
0.00563914
0.00608787
0.00145786
0.00168414
0.00194584
0.00224153
0.00256802
0.00292116
0.00329535
0.0036839
0.00408157
0.00448407
0.00488779
0.00529094
0.00569212
0.00609067
0.00648667
0.00690785
0.00223063
0.00246225
0.00272245
0.00300826
0.00331627
0.00364232
0.00398289
0.00433457
0.00469381
0.00505817
0.00542597
0.00579581
0.00616675
0.00653803
0.00690904
0.00727964
0.0076783
0.00330886
0.00354226
0.00379663
0.00406945
0.00435797
0.00465943
0.00497161
0.00529279
0.00562116
0.00595531
0.00629419
0.00663691
0.00698242
0.00732985
0.00767857
0.00802808
0.00840764
0.0041581
0.00435476
0.0045711
0.0048048
0.00505425
0.00531759
0.005593
0.00587888
0.00617419
0.00647751
0.00678773
0.00710387
0.00742499
0.00774989
0.00807757
0.00840744
0.00873878
0.00910168
0.00513849
0.00531802
0.00551551
0.00572914
0.00595777
0.0062
0.00645434
0.00671939
0.00699438
0.00727784
0.00756884
0.00786653
0.00816974
0.0084772
0.00878789
0.00910129
0.00941667
0.00976477
0.00603811
0.0062033
0.0063854
0.00658306
0.00679534
0.00702106
0.00725878
0.00750723
0.00776577
0.00803282
0.00830778
0.00858981
0.00887759
0.00916986
0.00946562
0.00976449
0.0100657
0.0104005
0.00687286
0.0070267
0.00719666
0.00738167
0.00758092
0.00779325
0.00801725
0.00825191
0.00849653
0.0087496
0.00901075
0.00927902
0.00955321
0.00983207
0.0101146
0.0104006
0.010689
0.011012
0.00765632
0.0078009
0.00796092
0.00813555
0.00832387
0.00852481
0.00873701
0.00895983
0.00919232
0.00943325
0.00968227
0.00993831
0.0102003
0.0104673
0.0107382
0.0110127
0.0112897
0.0116022
0.00839757
0.00853429
0.00868591
0.00885165
0.00903048
0.00922143
0.00942331
0.00963579
0.00985748
0.0100877
0.010326
0.0105712
0.0108223
0.0110787
0.0113392
0.0116035
0.0118706
0.0121737
0.0091027
0.0092327
0.00937704
0.00953493
0.00970544
0.00988745
0.0100803
0.0102836
0.0104957
0.0107165
0.0109452
0.0111807
0.0114222
0.0116691
0.0119203
0.0121757
0.012434
0.0127286
0.00977634
0.00990055
0.0100384
0.0101893
0.0103525
0.0105266
0.0107114
0.0109065
0.0111101
0.0113226
0.0115426
0.0117695
0.0120026
0.0122411
0.0124841
0.0127316
0.0129823
0.0132691
0.0104223
0.0105413
0.0106735
0.0108182
0.0109749
0.011142
0.0113196
0.0115073
0.0117035
0.0119085
0.0121208
0.0123402
0.0125658
0.0127969
0.0130329
0.0132735
0.0135173
0.0137973
0.0110437
0.0111582
0.0112853
0.0114245
0.0115753
0.0117363
0.0119077
0.0120887
0.0122785
0.0124766
0.0126822
0.0128951
0.0131141
0.0133388
0.0135688
0.0138035
0.0140412
0.0143148
0.0116436
0.0117539
0.0118764
0.0120109
0.0121564
0.0123121
0.0124779
0.0126531
0.0128372
0.0130293
0.0132292
0.0134362
0.0136496
0.0138689
0.0140936
0.0143235
0.014556
0.0148238
0.0122244
0.012331
0.0124495
0.0125797
0.0127206
0.0128715
0.0130325
0.0132029
0.0133817
0.0135687
0.013764
0.0139657
0.0141742
0.014389
0.0146091
0.0148351
0.0150636
0.0153262
0.0127885
0.0128919
0.0130069
0.0131333
0.0132703
0.013417
0.0135737
0.01374
0.0139143
0.0140969
0.0142882
0.0144855
0.0146899
0.0149011
0.0151173
0.0153406
0.0155673
0.0158285
0.0133384
0.0134388
0.0135508
0.0136739
0.0138075
0.0139507
0.0141037
0.0142664
0.0144369
0.0146159
0.0148039
0.0149974
0.0151987
0.0154076
0.015622
0.0158454
0.0160839
0.0163648
0.0138762
0.0139739
0.0140833
0.0142038
0.0143343
0.0144745
0.0146245
0.0147842
0.0149515
0.0151275
0.0153131
0.0155047
0.0157049
0.0159168
0.0161436
0.0163825
0.0166501
0.0169715
0.0143196
0.0144038
0.0144992
0.0146063
0.0147246
0.0148528
0.0149903
0.015138
0.0152955
0.015461
0.0156359
0.0158213
0.0160214
0.0162344
0.0164636
0.0167194
0.0169896
0.0172815
0.017628
0.0148407
0.0149233
0.0150167
0.0151222
0.0152387
0.0153654
0.0155014
0.0156484
0.0158056
0.0159776
0.0161631
0.016361
0.0165839
0.0168245
0.0170807
0.0173576
0.0176482
0.0179474
0.0182942
0.0152843
0.0153556
0.0154373
0.0155302
0.015635
0.0157508
0.0158788
0.0160223
0.0161784
0.0163462
0.0165372
0.0167467
0.0169703
0.0172133
0.0174729
0.0177444
0.0180257
0.0183176
0.0186141
0.0189526
0.0157988
0.0158708
0.015957
0.0160559
0.0161671
0.0162899
0.0164281
0.0165896
0.0167657
0.0169556
0.0171654
0.0173918
0.017632
0.0178817
0.0181436
0.0184149
0.0186928
0.0189789
0.0192684
0.0195965
0.016344
0.0164217
0.0165187
0.0166307
0.016756
0.0168947
0.0170497
0.0172244
0.0174142
0.0176187
0.0178357
0.0180647
0.0183055
0.0185536
0.0188106
0.0190757
0.0193469
0.019625
0.0199064
0.0202243
0.0169586
0.0170458
0.0171507
0.0172717
0.0174068
0.0175564
0.0177207
0.0178984
0.0180896
0.0182949
0.0185103
0.0187359
0.0189714
0.0192141
0.0194638
0.0197211
0.0199845
0.0202543
0.0205279
0.0208368
0.0176274
0.0177204
0.017827
0.0179491
0.0180855
0.0182362
0.0183998
0.0185754
0.018763
0.0189637
0.0191739
0.0193938
0.0196225
0.0198585
0.0201007
0.0203503
0.0206062
0.0208682
0.0211351
0.021436
0.0183097
0.0184029
0.0185086
0.0186284
0.0187625
0.0189103
0.0190695
0.0192408
0.019423
0.0196177
0.0198217
0.0200349
0.0202569
0.0204862
0.0207217
0.0209647
0.0212139
0.0214692
0.0217303
0.0220249
0.0189845
0.0190758
0.019179
0.0192959
0.0194261
0.0195696
0.0197238
0.0198898
0.0200666
0.0202552
0.0204531
0.0206598
0.0208758
0.021099
0.0213289
0.0215665
0.02181
0.02206
0.0223161
0.0226062
0.0196443
0.0197325
0.0198329
0.0199468
0.0200732
0.020212
0.0203614
0.0205223
0.0206942
0.0208772
0.0210696
0.0212707
0.0214814
0.0216995
0.021925
0.0221581
0.0223974
0.0226432
0.0228958
0.0231827
0.0202873
0.0203723
0.0204701
0.020581
0.0207038
0.0208382
0.0209838
0.0211401
0.0213081
0.0214857
0.0216738
0.0218703
0.0220765
0.0222909
0.022513
0.0227427
0.0229792
0.0232223
0.0234726
0.0237574
0.0209148
0.0209967
0.0210922
0.0212003
0.0213201
0.0214508
0.0215932
0.0217458
0.0219105
0.0220839
0.0222685
0.0224614
0.0226641
0.0228761
0.023096
0.0233238
0.0235587
0.0238006
0.0240499
0.0243336
0.0215291
0.0216084
0.0217018
0.0218074
0.0219248
0.0220528
0.0221924
0.0223422
0.0225043
0.0226752
0.0228571
0.0230476
0.0232476
0.0234583
0.0236771
0.0239045
0.0241388
0.0243811
0.0246305
0.0249145
0.0221333
0.0222104
0.0223022
0.0224058
0.0225213
0.0226473
0.0227846
0.0229326
0.0230926
0.0232625
0.0234426
0.0236319
0.0238306
0.0240409
0.0242597
0.0244879
0.0247228
0.0249663
0.025217
0.0255027
0.0227303
0.0228058
0.0228963
0.0229986
0.0231126
0.0232373
0.0233731
0.0235203
0.023679
0.0238489
0.0240282
0.0242174
0.0244161
0.0246269
0.0248469
0.0250763
0.0253131
0.0255583
0.0258114
0.0260999
0.0233233
0.023398
0.0234875
0.0235891
0.0237019
0.0238261
0.0239614
0.0241083
0.0242669
0.0244374
0.0246168
0.0248069
0.0250068
0.0252189
0.025441
0.025672
0.0259117
0.0261591
0.0264153
0.0267069
0.0239157
0.0239904
0.0240793
0.0241806
0.0242927
0.0244172
0.0245529
0.0246999
0.0248594
0.0250309
0.0252113
0.0254029
0.0256052
0.0258191
0.0260437
0.0262767
0.0265197
0.02677
0.0270296
0.0273245
0.0245111
0.0245862
0.0246748
0.0247761
0.0248883
0.0250134
0.0251504
0.0252982
0.0254591
0.0256318
0.0258141
0.0260076
0.0262129
0.026429
0.026656
0.026892
0.0271382
0.0273922
0.0276551
0.0279534
0.0251126
0.0251882
0.0252768
0.025378
0.0254913
0.0256171
0.0257561
0.0259053
0.0260679
0.0262419
0.0264265
0.0266225
0.026831
0.0270495
0.0272791
0.0275186
0.0277679
0.0280259
0.0282924
0.0285942
0.0257223
0.0257985
0.0258875
0.0259889
0.0261036
0.0262305
0.0263715
0.0265225
0.0266871
0.0268627
0.0270499
0.0272487
0.0274602
0.0276813
0.0279139
0.0281569
0.0284095
0.0286718
0.0289421
0.0292477
0.0263415
0.0264188
0.0265084
0.0266103
0.0267264
0.026855
0.0269979
0.0271512
0.0273178
0.0274955
0.0276852
0.0278871
0.0281015
0.0283253
0.0285611
0.0288076
0.0290639
0.0293303
0.0296046
0.0299145
0.0269715
0.0270502
0.0271403
0.0272435
0.0273607
0.0274913
0.027636
0.0277922
0.0279607
0.028141
0.0283332
0.0285386
0.0287558
0.0289823
0.0292215
0.0294715
0.0297318
0.0300022
0.0302806
0.0305955
0.0276132
0.0276935
0.0277844
0.027889
0.0280076
0.0281403
0.0282866
0.0284458
0.0286165
0.0287996
0.0289944
0.0292033
0.0294237
0.0296534
0.0298958
0.0301495
0.030414
0.0306885
0.0309713
0.0312915
0.0282674
0.0283493
0.0284415
0.0285477
0.0286677
0.0288026
0.0289506
0.0291127
0.0292858
0.0294716
0.0296695
0.0298818
0.0301055
0.030339
0.0305847
0.0308426
0.0311111
0.03139
0.0316776
0.0320032
0.028935
0.0290184
0.0291124
0.0292203
0.0293419
0.0294792
0.0296291
0.0297934
0.0299692
0.030158
0.0303595
0.0305747
0.030802
0.0310394
0.0312888
0.031551
0.0318242
0.0321077
0.0324005
0.0327311
0.0300313
0.0301706
0.0303228
0.0304889
0.0306674
0.0308596
0.031065
0.031283
0.0315138
0.0317554
0.0320092
0.0322757
0.0325539
0.0328425
0.0331409
0.0334762
0.0313815
0.0315771
0.0317862
0.0320075
0.0322418
0.0324878
0.0327466
0.0330176
0.0333013
0.0335955
0.0338994
0.0342394
0.00216981
0.00167253
0.0032184
0.00268079
0.00424942
0.00373082
0.00520639
0.00472433
0.0042588
0.00608803
0.00563978
0.00521259
0.00690802
0.00648723
0.00609163
0.00569385
0.00767857
0.00728026
0.00691002
0.00653955
0.00840809
0.00802882
0.00767972
0.00733141
0.00910238
0.00873973
0.0084088
0.00807928
0.00775181
0.00976581
0.00941796
0.00910291
0.00878974
0.00847914
0.0104019
0.0100674
0.00976644
0.00946762
0.00917185
0.0110137
0.0106912
0.0104029
0.0101168
0.00983415
0.0116043
0.0112923
0.0110154
0.0107407
0.0104696
0.0121761
0.0118734
0.0116066
0.0113422
0.0110812
0.0127313
0.0124371
0.0121792
0.0119237
0.0116719
0.0114243
0.0132721
0.0129856
0.0127353
0.0124878
0.012244
0.0120047
0.0138005
0.0135208
0.0132773
0.0130366
0.0128
0.0125679
0.0123421
0.0143186
0.0140448
0.0138071
0.0135723
0.013342
0.0131164
0.012897
0.0126842
0.014828
0.0145597
0.0143268
0.0140969
0.0138721
0.0136521
0.0134383
0.0132314
0.0130315
0.0153309
0.0150674
0.0148384
0.0146123
0.0143924
0.0141769
0.013968
0.0137664
0.0135715
0.013385
0.0158325
0.0155712
0.0153439
0.0151206
0.0149047
0.0146927
0.0144882
0.0142909
0.0141002
0.0139178
0.0163666
0.0160863
0.0158487
0.0156254
0.0154112
0.0152017
0.0150006
0.0148068
0.0146194
0.0144407
0.0169711
0.016649
0.0163835
0.0161447
0.0159184
0.015708
0.015508
0.0153162
0.0151313
0.0149556
0.0176262
0.0172778
0.0169859
0.0167154
0.0164607
0.016235
0.0160227
0.0158242
0.0156398
0.0154655
0.0182917
0.0179433
0.0176415
0.0173503
0.0170741
0.01682
0.0165803
0.0163612
0.0161646
0.0159803
0.0189496
0.0186103
0.0183108
0.0180182
0.0177368
0.0174649
0.0172061
0.016965
0.0167428
0.0165351
0.0195931
0.0192648
0.0189728
0.0186863
0.0184076
0.0181351
0.0178735
0.017623
0.0173838
0.0171589
0.0202209
0.0199029
0.0196198
0.0193417
0.0190693
0.018803
0.0185452
0.018296
0.0180552
0.0178265
0.0208335
0.0205246
0.02025
0.0199803
0.0197157
0.0194572
0.0192059
0.0189623
0.018726
0.0184997
0.0214328
0.0211317
0.0208646
0.0206023
0.0203456
0.0200947
0.0198504
0.0196135
0.0193838
0.0191628
0.0220213
0.0217265
0.0214657
0.0212097
0.0209599
0.0207159
0.0204784
0.0202479
0.0200253
0.0198105
0.0226022
0.022312
0.0220562
0.0218052
0.0215611
0.0213229
0.0210914
0.0208668
0.0206509
0.0204423
0.00217025
0.00321871
0.00424961
0.00520649
0.00608806
0.00690799
0.00767851
0.00840801
0.0091023
0.00976569
0.0104018
0.0110137
0.0116043
0.0121761
0.0127314
0.0132723
0.0138009
0.014319
0.0148282
0.015331
0.0158327
0.0163672
0.0169723
0.0176281
0.0182939
0.0189519
0.0195953
0.0202223
0.020834
0.0214328
0.0220211
0.0226019
0.00167391
0.00268173
0.00373129
0.00472451
0.00563984
0.00648723
0.00728017
0.00802863
0.00873945
0.00941755
0.0100668
0.0106906
0.0112918
0.0118732
0.0124372
0.0129859
0.0135216
0.014046
0.014561
0.0150686
0.0155722
0.0160883
0.016653
0.017283
0.0179483
0.0186147
0.0192685
0.0199058
0.0205266
0.0211328
0.0217271
0.0223123
0.0228916
0.0012481
0.0021796
0.00323013
0.00425886
0.00521245
0.00609148
0.00690986
0.00767949
0.00840851
0.00910253
0.00976589
0.0104022
0.0110145
0.0116058
0.0121785
0.012735
0.0132775
0.0138079
0.0143281
0.01484
0.0153457
0.0158505
0.0163869
0.0169927
0.0176502
0.0183191
0.01898
0.0196257
0.0202546
0.0208679
0.0214681
0.0220583
0.0226413
0.0232203
0.0237981
0.0243781
0.0249631
0.0255551
0.000897242
0.00171376
0.00273339
0.00378703
0.00477965
0.00569317
0.00653897
0.00733083
0.00807862
0.00878901
0.00946686
0.010116
0.0107398
0.0113411
0.0119228
0.0124872
0.0130366
0.0135728
0.0140978
0.0146135
0.0151217
0.0156264
0.016148
0.0167234
0.0173609
0.0180282
0.0186949
0.0193487
0.0199861
0.0206072
0.0212142
0.0218097
0.0223967
0.022978
0.0235571
0.0241372
0.0247211
0.0253111
0.000626984
0.00130411
0.0022555
0.00331398
0.00434206
0.00529221
0.00616785
0.00698352
0.007751
0.00847823
0.00917082
0.00983307
0.0104685
0.0110803
0.0116711
0.0122436
0.0128
0.0133423
0.0138726
0.0143928
0.0149048
0.0154112
0.0159206
0.0164678
0.0170848
0.0177483
0.0184186
0.0190791
0.0197236
0.0203516
0.0209647
0.0215655
0.0221567
0.022741
0.0233218
0.0239025
0.0244862
0.0250751
0.000432268
0.000963792
0.00181177
0.00284722
0.00390176
0.00488909
0.0057968
0.00663785
0.00742597
0.00817073
0.00887866
0.00955449
0.0102019
0.0108242
0.0114243
0.012005
0.0125685
0.013117
0.0136525
0.0141772
0.0146928
0.0152016
0.0157079
0.0162372
0.0168274
0.0174761
0.018147
0.0188137
0.0194661
0.0201018
0.0207218
0.0213284
0.0219242
0.0225119
0.0230948
0.0236762
0.0242592
0.0248468
0.0254413
0.000298391
0.000695875
0.00141787
0.00239863
0.00346352
0.00448539
0.00542684
0.00629503
0.00710484
0.00786768
0.00859118
0.00928064
0.00994017
0.0105732
0.0111827
0.0117716
0.0123424
0.0128974
0.0134387
0.0139681
0.0144877
0.0149994
0.0155066
0.0160236
0.0165864
0.017216
0.0178842
0.0185555
0.0192152
0.0198586
0.0204858
0.0210987
0.0216995
0.022291
0.0228761
0.0234584
0.0240415
0.0246283
0.0252211
0.000210566
0.000496758
0.00108453
0.00197986
0.00303308
0.00408311
0.00505899
0.00595599
0.00678857
0.00756999
0.00830922
0.00901233
0.00968394
0.0103278
0.0109471
0.0115446
0.0121229
0.0126844
0.0132313
0.0137656
0.0142896
0.014805
0.0153143
0.0158227
0.0163625
0.0169717
0.0176331
0.0183063
0.0189718
0.0196227
0.0202573
0.0208764
0.0214821
0.0220774
0.0226655
0.0232497
0.0238334
0.0244197
0.0250112
0.000154129
0.000354444
0.000814494
0.00160264
0.00261899
0.00368586
0.0046947
0.00562175
0.00647817
0.0072787
0.00803391
0.00875084
0.00943459
0.0100892
0.0107181
0.0113241
0.0119099
0.012478
0.0130305
0.0135697
0.0140978
0.0146167
0.0151284
0.015637
0.0161642
0.0167475
0.0173925
0.0180655
0.0187368
0.0193947
0.020036
0.0206612
0.021272
0.0218715
0.0224628
0.0230494
0.0236343
0.0242205
0.0248106
0.000118354
0.000256507
0.000605455
0.0012757
0.00223013
0.00329807
0.00433582
0.00529344
0.0061747
0.0069949
0.0077663
0.00849709
0.00919299
0.00985829
0.0104966
0.011111
0.0117044
0.0122793
0.0128378
0.0133822
0.0139147
0.0144375
0.0149523
0.015462
0.0159783
0.0165373
0.0171654
0.0178363
0.0185119
0.0191764
0.0198245
0.0204558
0.0210719
0.0216754
0.0222698
0.0228583
0.0234441
0.0240304
0.0246199
9.58977e-05
0.000191044
0.000450351
0.001003
0.00187427
0.0029246
0.0039844
0.00497217
0.00587912
0.00671954
0.00750738
0.00825213
0.00896013
0.00963614
0.010284
0.0109067
0.0115074
0.0120888
0.0126531
0.0132028
0.0137399
0.0142665
0.0147846
0.0152963
0.0158067
0.0163473
0.0169566
0.0176197
0.0182964
0.0189658
0.0196202
0.020258
0.0208802
0.0214891
0.0220875
0.0226785
0.0232653
0.0238513
0.02444
0.000147945
0.000338028
0.000782451
0.00155798
0.00257188
0.00364393
0.00465975
0.00559279
0.00645392
0.00725832
0.00801694
0.00873695
0.00942344
0.0100805
0.0107116
0.0113197
0.0119075
0.0124775
0.013032
0.0135735
0.0141038
0.0146248
0.0151387
0.0156494
0.0161797
0.0167671
0.0174158
0.0180915
0.0187651
0.0194255
0.0200696
0.0206976
0.0213113
0.0219135
0.0225071
0.0230955
0.0236821
0.0242708
0.000258664
0.000610456
0.00128568
0.00224591
0.00331815
0.00435824
0.00531712
0.00619926
0.00702029
0.0077926
0.00852433
0.00922107
0.00988722
0.0105264
0.0111418
0.011736
0.0123117
0.0128715
0.0134174
0.0139514
0.0144755
0.0149919
0.0155036
0.0160247
0.0165917
0.0172261
0.0178997
0.0185766
0.0192421
0.0198915
0.0205243
0.0211422
0.0217479
0.0223446
0.0229353
0.0235233
0.0241121
0.000202774
0.000479379
0.00105757
0.00195102
0.00301067
0.00406982
0.00505369
0.005957
0.0067947
0.00758049
0.00832356
0.00903016
0.00970503
0.010352
0.0109744
0.0115749
0.0121561
0.0127207
0.0132709
0.0138087
0.0143362
0.0148553
0.0153684
0.0158818
0.0164307
0.0170517
0.0177225
0.0184015
0.0190711
0.0197248
0.0203618
0.0209837
0.0215929
0.0221925
0.0227853
0.0233746
0.0239641
0.000380717
0.000870268
0.00168999
0.00272549
0.0037973
0.00480425
0.00572825
0.00658231
0.00738123
0.00813537
0.00885165
0.00953502
0.0101894
0.0108182
0.0114244
0.0120109
0.0125802
0.0131345
0.0136758
0.0142061
0.0147274
0.0152418
0.0157542
0.0162931
0.0168965
0.0175567
0.0182354
0.018909
0.0195684
0.0202113
0.0208383
0.0214516
0.0220538
0.022648
0.023238
0.0238275
0.000307106
0.000719406
0.00146413
0.00246604
0.00354345
0.00457073
0.00551455
0.00638445
0.007196
0.00796062
0.00868589
0.00937718
0.0100386
0.0106737
0.0112856
0.011877
0.0124507
0.0130088
0.0135534
0.0140865
0.0146101
0.0151263
0.0156391
0.0161701
0.0167571
0.0174062
0.0180839
0.0187606
0.0194244
0.020072
0.0207036
0.0213208
0.0219263
0.022523
0.0231144
0.0237041
0.0006008
0.00127324
0.00223422
0.00331022
0.00435457
0.00531704
0.00620214
0.00702569
0.00780018
0.00853388
0.00923254
0.0099006
0.0105417
0.0111589
0.011755
0.0123326
0.0128941
0.0134416
0.0139774
0.0145033
0.0150214
0.0155349
0.0160599
0.0166331
0.0172729
0.0179496
0.0186285
0.0192955
0.0199465
0.0205811
0.0212011
0.021809
0.0224076
0.0230005
0.023591
0.00111483
0.00203122
0.00309964
0.00415756
0.00513723
0.00603673
0.00687159
0.00765526
0.00839671
0.00910208
0.00977605
0.0104224
0.0110444
0.0116448
0.0122261
0.012791
0.0133416
0.0138799
0.0144079
0.0149277
0.0154421
0.0159617
0.0165225
0.0171537
0.0178294
0.0185105
0.0191806
0.0198345
0.0204719
0.0210945
0.0217044
0.0223046
0.0228986
0.0234901
0.000984915
0.00185656
0.00291338
0.00398155
0.00497654
0.00588925
0.00673448
0.00752653
0.00827509
0.0089867
0.00966611
0.0103172
0.0109433
0.0115472
0.0121319
0.0126997
0.013253
0.0137938
0.0143241
0.0148457
0.015361
0.0158759
0.0164259
0.0170489
0.017723
0.0184055
0.0190787
0.0197359
0.0203763
0.0210011
0.0216129
0.0222146
0.0228095
0.0234012
0.000880886
0.00171013
0.00275265
0.0038279
0.00483612
0.00576067
0.00661519
0.00741471
0.00816957
0.0088866
0.0095708
0.0102261
0.010856
0.0114633
0.012051
0.0126213
0.0131766
0.0137191
0.0142508
0.0147737
0.01529
0.0158047
0.0163492
0.0169624
0.0176306
0.0183133
0.0189887
0.0196487
0.0202917
0.0209191
0.0215332
0.0221367
0.0227326
0.0233245
0.000799625
0.00159116
0.0026185
0.00369812
0.00471727
0.00565202
0.00651459
0.00732051
0.00808068
0.00880226
0.00949044
0.0101494
0.0107825
0.0113928
0.011983
0.0125556
0.0131127
0.0136568
0.0141898
0.0147137
0.0152309
0.015746
0.0162866
0.0168911
0.0175532
0.0182354
0.0189127
0.0195755
0.0202213
0.0208509
0.0214665
0.022071
0.0226679
0.0232608
0.00149842
0.0025115
0.00359326
0.00462093
0.005564
0.00643321
0.00724439
0.008009
0.00873448
0.00942607
0.0100879
0.0107235
0.0113359
0.0119281
0.0125024
0.0130611
0.0136066
0.0141407
0.0146655
0.0151834
0.0156987
0.0162366
0.0168349
0.0174927
0.0181741
0.0188521
0.019516
0.0201633
0.0207945
0.0214117
0.0220174
0.022615
0.0232084
0.00142996
0.00243125
0.00351412
0.00454815
0.0054976
0.00637191
0.00718711
0.007955
0.00868332
0.00937737
0.0100414
0.0106789
0.0112931
0.0118867
0.0124623
0.0130223
0.0135688
0.0141039
0.0146296
0.0151481
0.0156637
0.0161994
0.0167925
0.0174464
0.0181269
0.0188054
0.0194706
0.0201191
0.0207515
0.0213699
0.0219769
0.0225756
0.0231698
0.00237792
0.00346124
0.00449934
0.00545307
0.00633082
0.00714874
0.00791885
0.00864901
0.00934466
0.0100101
0.010649
0.0112645
0.0118593
0.0124358
0.0129965
0.0135438
0.0140794
0.0146056
0.0151244
0.0156399
0.016174
0.016764
0.0174159
0.0180959
0.0187746
0.0194401
0.0200892
0.0207223
0.0213414
0.021949
0.0225482
0.023143
0.00235111
0.0034347
0.00447495
0.00543085
0.00631027
0.00712944
0.0079006
0.00863172
0.00932829
0.00999458
0.0106341
0.0112501
0.0118453
0.0124223
0.0129835
0.0135311
0.0140672
0.0145936
0.0151126
0.0156282
0.0161615
0.0167497
0.0174003
0.01808
0.0187587
0.0194246
0.0200742
0.0207077
0.0213269
0.0219347
0.0225343
0.0231292
0.00343483
0.00447514
0.00543093
0.00631031
0.00712948
0.00790065
0.00863175
0.00932833
0.00999469
0.0106343
0.0112503
0.0118455
0.0124225
0.0129837
0.0135311
0.014067
0.0145936
0.0151128
0.0156285
0.0161617
0.0167496
0.0173997
0.0180793
0.0187583
0.0194245
0.0200742
0.0207075
0.0213264
0.0219339
0.0225331
0.0231277
0.0034615
0.00449982
0.00545348
0.00633113
0.00714895
0.00791897
0.00864908
0.00934477
0.0100103
0.0106493
0.0112649
0.0118596
0.0124361
0.0129969
0.0135441
0.0140798
0.014606
0.0151248
0.0156403
0.0161741
0.0167634
0.0174144
0.018094
0.0187727
0.0194386
0.0200879
0.020721
0.0213398
0.0219471
0.022546
0.0231402
0.00351483
0.00454902
0.00549836
0.00637256
0.00718763
0.00795535
0.00868349
0.00937753
0.0100417
0.0106794
0.0112939
0.0118876
0.0124633
0.0130231
0.0135694
0.0141042
0.0146297
0.015148
0.0156631
0.0161983
0.0167911
0.0174451
0.0181255
0.0188038
0.0194686
0.0201167
0.0207486
0.0213661
0.0219724
0.0225709
0.0231653
0.00359449
0.00462239
0.0055653
0.00643426
0.00724521
0.00800964
0.00873509
0.00942681
0.0100888
0.0107245
0.0113371
0.0119293
0.0125034
0.013062
0.0136071
0.014141
0.0146656
0.0151832
0.0156982
0.016236
0.016834
0.0174913
0.0181717
0.0188486
0.0195118
0.0201586
0.0207894
0.0214065
0.0220124
0.0226105
0.0232042
0.00369988
0.00471916
0.00565367
0.00651604
0.00732183
0.00808197
0.00880365
0.00949203
0.0101511
0.0107841
0.0113941
0.0119841
0.0125564
0.0131136
0.0136575
0.0141903
0.014714
0.0152308
0.0157453
0.0162856
0.0168899
0.0175518
0.0182334
0.01891
0.0195719
0.0202169
0.020846
0.0214612
0.0220656
0.0226623
0.0232548
0.0038304
0.00483875
0.00576307
0.00661739
0.00741677
0.00817156
0.00888863
0.00957289
0.0102282
0.010858
0.0114651
0.0120524
0.0126223
0.0131774
0.0137197
0.0142513
0.014774
0.01529
0.0158045
0.0163489
0.0169618
0.0176295
0.0183114
0.0189859
0.0196452
0.0202877
0.0209144
0.0215277
0.0221305
0.0227261
0.0233183
0.00398495
0.0049801
0.0058926
0.00673762
0.00752949
0.00827791
0.00898938
0.00966869
0.0103196
0.0109454
0.0115491
0.0121335
0.0127011
0.0132541
0.0137945
0.0143245
0.0148458
0.0153608
0.0158756
0.0164253
0.0170479
0.0177214
0.0184031
0.0190752
0.0197316
0.0203715
0.0209962
0.021608
0.0222096
0.0228044
0.0233957
0.00416215
0.00514187
0.00604101
0.00687549
0.00765887
0.00840011
0.00910526
0.00977891
0.0104249
0.0110464
0.0116464
0.0122276
0.0127922
0.0133426
0.0138806
0.0144084
0.0149281
0.0154424
0.0159618
0.0165223
0.0171525
0.017827
0.018507
0.0191766
0.0198303
0.0204676
0.0210899
0.0216996
0.0222995
0.0228929
0.0234834
0.00436023
0.00532261
0.00620726
0.00703033
0.00780437
0.00853767
0.00923587
0.00990331
0.0105437
0.0111604
0.0117562
0.0123337
0.0128949
0.0134423
0.0139779
0.0145037
0.0150216
0.0155351
0.0160599
0.0166327
0.0172718
0.0179477
0.0186261
0.0192928
0.0199431
0.0205771
0.0211964
0.0218035
0.0224013
0.0229933
0.0235831
0.00457711
0.00552059
0.00638989
0.00720089
0.00796501
0.00868976
0.00938042
0.0100412
0.0106757
0.0112872
0.0118784
0.0124517
0.0130093
0.0135536
0.0140865
0.01461
0.0151261
0.0156389
0.0161702
0.0167576
0.0174065
0.0180834
0.0187592
0.0194221
0.0200687
0.0206991
0.0213151
0.0219193
0.0225149
0.0231056
0.0236951
0.00481116
0.00573458
0.0065879
0.0073862
0.00813978
0.00885544
0.00953816
0.010192
0.0108203
0.0114262
0.0120125
0.0125813
0.0131353
0.0136763
0.0142065
0.0147275
0.0152418
0.0157541
0.0162929
0.0168964
0.017556
0.0182338
0.0189064
0.0195648
0.0202069
0.0208332
0.0214459
0.0220478
0.0226418
0.0232314
0.0238201
0.00506083
0.00596339
0.00680033
0.00758549
0.00832806
0.00903425
0.00970866
0.0103551
0.0109768
0.0115768
0.0121578
0.0127221
0.0132721
0.0138096
0.0143367
0.0148553
0.0153679
0.0158811
0.01643
0.0170508
0.017721
0.0183991
0.0190678
0.0197211
0.020358
0.0209796
0.0215881
0.0221864
0.0227782
0.0233668
0.0239555
0.00532447
0.00620588
0.00702622
0.00779791
0.00852914
0.00922551
0.00989123
0.0105298
0.0111445
0.0117382
0.0123136
0.012873
0.0134185
0.0139522
0.0144759
0.0149917
0.0155028
0.0160236
0.0165905
0.0172246
0.0178974
0.0185734
0.0192381
0.0198868
0.0205191
0.0211365
0.0217415
0.0223374
0.0229273
0.0235146
0.024103
0.00560014
0.00646055
0.00726433
0.00802239
0.0087419
0.00942795
0.0100846
0.0107152
0.0113227
0.01191
0.0124796
0.0130338
0.013575
0.0141048
0.0146252
0.0151383
0.0156484
0.0161784
0.0167655
0.0174136
0.0180886
0.0187618
0.0194215
0.0200646
0.0206913
0.0213036
0.0219046
0.0224977
0.0230861
0.023673
0.0242614
0.00588654
0.00672616
0.00751333
0.00825757
0.00896517
0.00964075
0.010288
0.0109103
0.0115105
0.0120913
0.0126552
0.0132043
0.0137409
0.014267
0.0147844
0.0152955
0.0158053
0.0163457
0.0169547
0.0176174
0.0182934
0.0189623
0.0196161
0.020253
0.0208743
0.0214823
0.0220798
0.0226697
0.0232556
0.0238411
0.0244295
0.00618234
0.00700156
0.0077722
0.00850247
0.00919793
0.00986279
0.0105006
0.0111144
0.011707
0.0122812
0.0128392
0.0133834
0.0139156
0.0144379
0.0149523
0.0154615
0.0159774
0.016536
0.0171634
0.0178332
0.0185081
0.0191723
0.0198202
0.0204513
0.0210671
0.0216704
0.0222641
0.0228515
0.0234358
0.0240206
0.0246091
0.00648615
0.00728568
0.00804011
0.00875638
0.00943948
0.0100934
0.0107215
0.0113267
0.0119117
0.0124792
0.0130314
0.0135705
0.0140983
0.0146168
0.0151281
0.0156361
0.0161627
0.0167454
0.01739
0.0180627
0.0187339
0.0193918
0.0200331
0.0206581
0.0212686
0.0218677
0.0224584
0.0230437
0.0236268
0.0242111
0.0247998
0.00679674
0.00757716
0.00831556
0.00901797
0.00968886
0.0103319
0.0109502
0.0115468
0.0121243
0.0126852
0.0132316
0.0137656
0.0142892
0.0148044
0.0153132
0.0158208
0.01636
0.0169689
0.0176308
0.0183047
0.0189706
0.0196211
0.020255
0.0208733
0.0214786
0.0220737
0.0226615
0.023245
0.0238273
0.0244116
0.0250009
0.00711312
0.00787488
0.00859739
0.00928599
0.00994478
0.0105771
0.0111859
0.0117739
0.0123437
0.0128978
0.0134384
0.0139673
0.0144865
0.014998
0.0155048
0.0160212
0.0165837
0.0172134
0.0178819
0.0185534
0.0192133
0.0198569
0.0204842
0.021097
0.0216976
0.0222886
0.0228729
0.0234541
0.0240353
0.02462
0.025211
0.00743406
0.00817782
0.00888487
0.00955992
0.0102066
0.0108282
0.0114274
0.012007
0.0125696
0.0131174
0.0136523
0.0141763
0.0146913
0.0151994
0.0157053
0.0162343
0.0168244
0.0174732
0.0181442
0.0188114
0.0194646
0.0201011
0.0207216
0.0213284
0.021924
0.0225111
0.023093
0.0236728
0.0242538
0.024839
0.0254311
0.00775875
0.0084851
0.0091769
0.00983844
0.0104732
0.0110842
0.0116743
0.0122459
0.0128014
0.0133429
0.0138724
0.0143918
0.014903
0.0154086
0.0159175
0.0164646
0.0170819
0.0177459
0.0184169
0.0190782
0.0197235
0.0203521
0.0209653
0.0215656
0.0221561
0.0227398
0.0233195
0.0238985
0.02448
0.0250668
0.0256613
0.0080861
0.00879556
0.00947261
0.0101211
0.0107443
0.0113451
0.0119261
0.0124896
0.013038
0.0135732
0.0140972
0.0146119
0.0151195
0.0156237
0.0161451
0.0167208
0.0173592
0.0180274
0.0186948
0.019349
0.0199866
0.0206078
0.0212144
0.0218093
0.0223957
0.0229763
0.0235543
0.0241326
0.0247147
0.025303
0.0258998
0.0265065
0.0271244
0.027754
0.0283963
0.00841534
0.00910848
0.00977111
0.0104068
0.0110186
0.0116095
0.0121816
0.0127374
0.0132789
0.0138082
0.0143273
0.0148383
0.0153434
0.0158477
0.0163844
0.0169914
0.0176501
0.0183194
0.0189802
0.0196259
0.020255
0.0208687
0.021469
0.0220587
0.0226411
0.0232189
0.0237954
0.0243737
0.0249571
0.0255482
0.0261485
0.0267588
0.02738
0.0280132
0.0286593
0.00874574
0.00942294
0.0100715
0.0106948
0.0112956
0.0118764
0.0124396
0.0129875
0.0135222
0.0140456
0.0145597
0.0150665
0.0155697
0.0160864
0.0166531
0.0172846
0.0179504
0.0186171
0.0192708