/*--------------------------------*- C++ -*----------------------------------*\
  =========                 |
  \\      /  F ield         | OpenFOAM: The Open Source CFD Toolbox
   \\    /   O peration     | Website:  https://openfoam.org
    \\  /    A nd           | Version:  7
     \\/     M anipulation  |
\*---------------------------------------------------------------------------*/
FoamFile
{
    version     2.0;
    format      ascii;
    class       volScalarField;
    location    "240000";
    object      p;
}
// * * * * * * * * * * * * * * * * * * * * * * * * * * * * * * * * * * * * * //

dimensions      [0 2 -2 0 0 0 0];

internalField   nonuniform List<scalar> 
4850
(
-1.46882e-18
-1.45747e-18
-1.46927e-18
-1.45238e-18
-1.46968e-18
-1.47917e-18
-1.46626e-18
-1.46653e-18
-1.4643e-18
-1.46819e-18
-1.4712e-18
-1.46487e-18
-1.4657e-18
-1.47001e-18
-1.46268e-18
-1.47167e-18
-1.47207e-18
-1.46529e-18
-1.45274e-18
-1.4685e-18
-1.45675e-18
-1.46809e-18
-1.46476e-18
-1.48289e-18
-1.46906e-18
-1.45597e-18
-1.4711e-18
-1.46569e-18
-1.45589e-18
-1.47497e-18
-1.47865e-18
-1.49753e-18
-1.4614e-18
-1.46421e-18
-1.46506e-18
-1.45975e-18
-1.46224e-18
-1.4588e-18
-1.47809e-18
-1.49051e-18
-1.47843e-18
-1.46752e-18
-1.45478e-18
-1.46347e-18
-1.47547e-18
-1.46781e-18
-1.45981e-18
-1.46509e-18
-1.47373e-18
-1.47697e-18
-1.47571e-18
-1.47051e-18
-1.48415e-18
-1.4699e-18
-1.47036e-18
-1.48537e-18
-1.4558e-18
-1.46769e-18
-1.47066e-18
-1.47601e-18
-1.46394e-18
-1.47061e-18
-1.4754e-18
-1.47436e-18
-1.47969e-18
-1.47194e-18
-1.47539e-18
-1.47834e-18
-1.46157e-18
-1.46544e-18
-1.46468e-18
-1.46572e-18
-1.45983e-18
-1.45571e-18
-1.46493e-18
-1.46882e-18
-1.46584e-18
-1.46548e-18
-1.46612e-18
-1.47299e-18
-1.48835e-18
-1.47391e-18
-1.4773e-18
-1.47101e-18
-1.47308e-18
-1.47239e-18
-1.46999e-18
-1.4753e-18
-1.46207e-18
-1.46522e-18
-1.46384e-18
-1.45941e-18
-1.45487e-18
-1.46166e-18
-1.4664e-18
-1.47228e-18
-1.46722e-18
-1.47016e-18
-1.46313e-18
-1.47901e-18
-1.48652e-18
-1.48223e-18
-1.47449e-18
-1.47103e-18
-1.47473e-18
-1.46941e-18
-1.48186e-18
-1.48039e-18
-1.47736e-18
-1.46282e-18
-1.46838e-18
-1.45711e-18
-1.44939e-18
-1.44758e-18
-1.44432e-18
-1.45701e-18
-1.46274e-18
-1.42978e-18
-1.46616e-18
-1.47204e-18
-1.46689e-18
-1.46803e-18
-1.46464e-18
-1.46663e-18
-1.46607e-18
-1.47538e-18
-1.4767e-18
-1.47515e-18
-1.48165e-18
-1.46549e-18
-1.47861e-18
-1.47056e-18
-1.47994e-18
-1.46194e-18
-1.47661e-18
-1.45449e-18
-1.43098e-18
-1.43386e-18
-1.44544e-18
-1.44404e-18
-1.44826e-18
-1.41386e-18
-1.42844e-18
-1.44114e-18
-1.41775e-18
-1.39457e-18
-1.41178e-18
-1.45744e-18
-1.4769e-18
-1.45968e-18
-1.46936e-18
-1.46532e-18
-1.47108e-18
-1.45289e-18
-1.47187e-18
-1.48194e-18
-1.47493e-18
-1.4699e-18
-1.46989e-18
-1.48323e-18
-1.46273e-18
-1.49397e-18
-1.45436e-18
-1.46635e-18
-1.44066e-18
-1.43032e-18
-1.45344e-18
-1.44375e-18
-1.43018e-18
-1.44237e-18
-1.41669e-18
-1.43766e-18
-1.45791e-18
-1.42367e-18
-1.39765e-18
-1.41121e-18
-1.3973e-18
-1.35736e-18
-1.34857e-18
-1.44782e-18
-1.48776e-18
-1.4685e-18
-1.46171e-18
-1.46888e-18
-1.4858e-18
-1.47335e-18
-1.47886e-18
-1.482e-18
-1.47466e-18
-1.47438e-18
-1.47129e-18
-1.48053e-18
-1.46433e-18
-1.49586e-18
-1.4826e-18
-1.46713e-18
-1.4552e-18
-1.43972e-18
-1.45653e-18
-1.44874e-18
-1.44563e-18
-1.43859e-18
-1.4326e-18
-1.45254e-18
-1.44554e-18
-1.42203e-18
-1.39816e-18
-1.41052e-18
-1.39603e-18
-1.36773e-18
-1.34573e-18
-1.33048e-18
-1.3579e-18
-1.45946e-18
-1.46953e-18
-1.46878e-18
-1.47391e-18
-1.47865e-18
-1.48623e-18
-1.46217e-18
-1.48374e-18
-1.47873e-18
-1.47574e-18
-1.47109e-18
-1.462e-18
-1.4796e-18
-1.4709e-18
-1.48084e-18
-1.47967e-18
-1.4672e-18
-1.4698e-18
-1.46531e-18
-1.45892e-18
-1.45248e-18
-1.4616e-18
-1.4347e-18
-1.43743e-18
-1.44441e-18
-1.45902e-18
-1.42048e-18
-1.40834e-18
-1.40941e-18
-1.39756e-18
-1.3712e-18
-1.36348e-18
-1.30639e-18
-1.36697e-18
-1.46563e-18
-1.47074e-18
-1.46953e-18
-1.47752e-18
-1.47474e-18
-1.48143e-18
-1.47323e-18
-1.47955e-18
-1.48062e-18
-1.47701e-18
-1.4768e-18
-1.47825e-18
-1.48336e-18
-1.47706e-18
-1.47651e-18
-1.48678e-18
-1.4697e-18
-1.48239e-18
-1.47451e-18
-1.46145e-18
-1.45316e-18
-1.45643e-18
-1.4528e-18
-1.43591e-18
-1.44595e-18
-1.47113e-18
-1.40856e-18
-1.43236e-18
-1.41605e-18
-1.40712e-18
-1.36037e-18
-1.38449e-18
-1.31576e-18
-1.3694e-18
-1.46745e-18
-1.47062e-18
-1.4685e-18
-1.4829e-18
-1.47799e-18
-1.4761e-18
-1.47347e-18
-1.47687e-18
-1.46961e-18
-1.47714e-18
-1.48451e-18
-1.47749e-18
-1.48912e-18
-1.47965e-18
-1.47589e-18
-1.47959e-18
-1.46968e-18
-1.4663e-18
-1.44669e-18
-1.46288e-18
-1.45174e-18
-1.46324e-18
-1.44064e-18
-1.42422e-18
-1.45548e-18
-1.44471e-18
-1.40849e-18
-1.42542e-18
-1.42652e-18
-1.39611e-18
-1.36965e-18
-1.38386e-18
-1.31914e-18
-1.34656e-18
-1.47397e-18
-1.47191e-18
-1.46197e-18
-1.48846e-18
-1.47048e-18
-1.47867e-18
-1.4754e-18
-1.47609e-18
-1.47754e-18
-1.47203e-18
-1.47323e-18
-1.47887e-18
-1.48497e-18
-1.48131e-18
-1.47426e-18
-1.47474e-18
-1.47138e-18
-1.45355e-18
-1.44207e-18
-1.46858e-18
-1.4518e-18
-1.4598e-18
-1.45403e-18
-1.43105e-18
-1.44553e-18
-1.43889e-18
-1.42581e-18
-1.42119e-18
-1.41557e-18
-1.37939e-18
-1.37455e-18
-1.36985e-18
-1.32014e-18
-1.36539e-18
-1.48646e-18
-1.46212e-18
-1.46757e-18
-1.49572e-18
-1.46446e-18
-1.48254e-18
-1.47171e-18
-1.47753e-18
-1.47905e-18
-1.45864e-18
-1.47392e-18
-1.4852e-18
-1.48509e-18
-1.48098e-18
-1.46375e-18
-1.4782e-18
-1.46755e-18
-1.46577e-18
-1.45716e-18
-1.48378e-18
-1.44285e-18
-1.45338e-18
-1.43872e-18
-1.4576e-18
-1.44432e-18
-1.44455e-18
-1.44142e-18
-1.4222e-18
-1.41482e-18
-1.38902e-18
-1.37658e-18
-1.36818e-18
-1.32145e-18
-1.36811e-18
-1.48675e-18
-1.47385e-18
-1.4701e-18
-1.48367e-18
-1.46903e-18
-1.4804e-18
-1.47083e-18
-1.47453e-18
-1.47116e-18
-1.46524e-18
-1.48538e-18
-1.46793e-18
-1.48556e-18
-1.48513e-18
-1.47655e-18
-1.48048e-18
-1.45738e-18
-1.45829e-18
-1.45136e-18
-1.47598e-18
-1.45675e-18
-1.44585e-18
-1.44888e-18
-1.453e-18
-1.44613e-18
-1.44044e-18
-1.42871e-18
-1.42388e-18
-1.41938e-18
-1.3837e-18
-1.38035e-18
-1.37206e-18
-1.31826e-18
-1.36699e-18
-1.47263e-18
-1.47863e-18
-1.47128e-18
-1.47815e-18
-1.46707e-18
-1.48116e-18
-1.47281e-18
-1.48744e-18
-1.4811e-18
-1.47245e-18
-1.51e-18
-1.45914e-18
-1.47813e-18
-1.49003e-18
-1.48244e-18
-1.48174e-18
-1.47379e-18
-1.47194e-18
-1.46856e-18
-1.47706e-18
-1.46413e-18
-1.45884e-18
-1.45622e-18
-1.45008e-18
-1.44521e-18
-1.43974e-18
-1.43014e-18
-1.42048e-18
-1.41594e-18
-1.39866e-18
-1.38713e-18
-1.37732e-18
-1.34719e-18
-1.37635e-18
-1.47376e-18
-1.48444e-18
-1.47606e-18
-1.47511e-18
-1.47147e-18
-1.47743e-18
-1.47619e-18
-1.49058e-18
-1.48139e-18
-1.48294e-18
-1.50717e-18
-1.47083e-18
-1.47906e-18
-1.49254e-18
-1.47501e-18
-1.49351e-18
-1.47924e-18
-1.47813e-18
-1.48635e-18
-1.4763e-18
-1.47022e-18
-1.45901e-18
-1.45903e-18
-1.4519e-18
-1.45415e-18
-1.44204e-18
-1.43149e-18
-1.4115e-18
-1.41926e-18
-1.40275e-18
-1.39095e-18
-1.38293e-18
-1.37433e-18
-1.36837e-18
-1.48113e-18
-1.48074e-18
-1.47019e-18
-1.48407e-18
-1.47945e-18
-1.48452e-18
-1.47042e-18
-1.48933e-18
-1.48479e-18
-1.49306e-18
-1.49541e-18
-1.47381e-18
-1.4915e-18
-1.48728e-18
-1.47503e-18
-1.478e-18
-1.48275e-18
-1.48301e-18
-1.4727e-18
-1.47734e-18
-1.47931e-18
-1.44569e-18
-1.46028e-18
-1.45479e-18
-1.4792e-18
-1.44887e-18
-1.43403e-18
-1.43019e-18
-1.43046e-18
-1.39885e-18
-1.39417e-18
-1.39321e-18
-1.37135e-18
-1.36906e-18
-1.31663e-18
-1.47717e-18
-1.49008e-18
-1.47539e-18
-1.49011e-18
-1.47933e-18
-1.48444e-18
-1.48001e-18
-1.47655e-18
-1.50041e-18
-1.48541e-18
-1.49364e-18
-1.48558e-18
-1.502e-18
-1.48094e-18
-1.4825e-18
-1.49066e-18
-1.49838e-18
-1.49412e-18
-1.45744e-18
-1.4833e-18
-1.45978e-18
-1.44295e-18
-1.4616e-18
-1.45854e-18
-1.45887e-18
-1.46067e-18
-1.43987e-18
-1.44801e-18
-1.42419e-18
-1.42457e-18
-1.39917e-18
-1.41279e-18
-1.3749e-18
-1.3689e-18
-1.34106e-18
-1.46532e-18
-1.49017e-18
-1.47749e-18
-1.48282e-18
-1.48432e-18
-1.48507e-18
-1.49412e-18
-1.47959e-18
-1.4949e-18
-1.47995e-18
-1.49566e-18
-1.49186e-18
-1.50086e-18
-1.47668e-18
-1.48193e-18
-1.4893e-18
-1.48975e-18
-1.48814e-18
-1.46726e-18
-1.4951e-18
-1.46757e-18
-1.45443e-18
-1.46319e-18
-1.46414e-18
-1.44794e-18
-1.45183e-18
-1.43746e-18
-1.43921e-18
-1.42208e-18
-1.4275e-18
-1.40392e-18
-1.41722e-18
-1.38138e-18
-1.39922e-18
-1.37044e-18
-1.47429e-18
-1.4873e-18
-1.47531e-18
-1.48959e-18
-1.48023e-18
-1.48465e-18
-1.48795e-18
-1.47284e-18
-1.49046e-18
-1.48685e-18
-1.49971e-18
-1.49228e-18
-1.48974e-18
-1.49393e-18
-1.49266e-18
-1.48442e-18
-1.47924e-18
-1.48419e-18
-1.47578e-18
-1.4903e-18
-1.47569e-18
-1.48823e-18
-1.46572e-18
-1.46253e-18
-1.43941e-18
-1.44978e-18
-1.43776e-18
-1.43724e-18
-1.41971e-18
-1.43824e-18
-1.40648e-18
-1.40896e-18
-1.39537e-18
-1.40707e-18
-1.48034e-18
-1.50076e-18
-1.47051e-18
-1.4941e-18
-1.48173e-18
-1.48223e-18
-1.48576e-18
-1.4938e-18
-1.49946e-18
-1.49197e-18
-1.49258e-18
-1.49442e-18
-1.49575e-18
-1.49788e-18
-1.49743e-18
-1.48839e-18
-1.48565e-18
-1.48835e-18
-1.48161e-18
-1.4977e-18
-1.47833e-18
-1.49403e-18
-1.46614e-18
-1.46089e-18
-1.44744e-18
-1.45691e-18
-1.44123e-18
-1.44383e-18
-1.41339e-18
-1.43421e-18
-1.40958e-18
-1.41155e-18
-1.41077e-18
-1.40193e-18
-1.48457e-18
-1.50592e-18
-1.47627e-18
-1.48891e-18
-1.48214e-18
-1.47078e-18
-1.49147e-18
-1.49059e-18
-1.49444e-18
-1.49409e-18
-1.4964e-18
-1.49866e-18
-1.49501e-18
-1.49979e-18
-1.50293e-18
-1.49811e-18
-1.50459e-18
-1.49128e-18
-1.48719e-18
-1.48895e-18
-1.47724e-18
-1.48012e-18
-1.46633e-18
-1.45792e-18
-1.4419e-18
-1.46875e-18
-1.44489e-18
-1.45596e-18
-1.42587e-18
-1.43496e-18
-1.4142e-18
-1.41433e-18
-1.40904e-18
-1.40345e-18
-1.48168e-18
-1.49644e-18
-1.46739e-18
-1.48767e-18
-1.48298e-18
-1.47365e-18
-1.48829e-18
-1.4937e-18
-1.48123e-18
-1.49563e-18
-1.49792e-18
-1.50564e-18
-1.49358e-18
-1.49532e-18
-1.49612e-18
-1.49346e-18
-1.51008e-18
-1.49331e-18
-1.49214e-18
-1.48607e-18
-1.46821e-18
-1.47453e-18
-1.46807e-18
-1.46439e-18
-1.45373e-18
-1.45957e-18
-1.45145e-18
-1.44825e-18
-1.43419e-18
-1.44511e-18
-1.4209e-18
-1.4175e-18
-1.41379e-18
-1.41154e-18
-1.48241e-18
-1.49067e-18
-1.48549e-18
-1.49925e-18
-1.48835e-18
-1.48934e-18
-1.48176e-18
-1.51082e-18
-1.5019e-18
-1.49827e-18
-1.50313e-18
-1.50373e-18
-1.50365e-18
-1.49749e-18
-1.49402e-18
-1.48916e-18
-1.49735e-18
-1.4938e-18
-1.48048e-18
-1.48852e-18
-1.48462e-18
-1.47663e-18
-1.46948e-18
-1.46714e-18
-1.45951e-18
-1.45611e-18
-1.46803e-18
-1.44592e-18
-1.43573e-18
-1.4372e-18
-1.42976e-18
-1.43117e-18
-1.41611e-18
-1.4907e-18
-1.48809e-18
-1.48073e-18
-1.4963e-18
-1.48637e-18
-1.48676e-18
-1.49917e-18
-1.50582e-18
-1.50935e-18
-1.50245e-18
-1.50245e-18
-1.50387e-18
-1.51195e-18
-1.49944e-18
-1.50456e-18
-1.49845e-18
-1.49846e-18
-1.4889e-18
-1.4816e-18
-1.49399e-18
-1.49067e-18
-1.48073e-18
-1.47042e-18
-1.46823e-18
-1.46271e-18
-1.45547e-18
-1.46865e-18
-1.44875e-18
-1.43401e-18
-1.4344e-18
-1.4273e-18
-1.44196e-18
-1.42792e-18
-1.49359e-18
-1.48414e-18
-1.48242e-18
-1.48936e-18
-1.48331e-18
-1.50133e-18
-1.49667e-18
-1.49717e-18
-1.50911e-18
-1.51015e-18
-1.50176e-18
-1.50542e-18
-1.50956e-18
-1.50188e-18
-1.49946e-18
-1.49888e-18
-1.49838e-18
-1.4941e-18
-1.49325e-18
-1.50075e-18
-1.48898e-18
-1.48685e-18
-1.47267e-18
-1.46957e-18
-1.46599e-18
-1.45301e-18
-1.4516e-18
-1.45109e-18
-1.44125e-18
-1.44871e-18
-1.43114e-18
-1.43659e-18
-1.48996e-18
-1.49556e-18
-1.48382e-18
-1.47771e-18
-1.47812e-18
-1.49133e-18
-1.49386e-18
-1.50376e-18
-1.50962e-18
-1.51248e-18
-1.50019e-18
-1.50291e-18
-1.50206e-18
-1.50379e-18
-1.50238e-18
-1.49719e-18
-1.50868e-18
-1.49285e-18
-1.49389e-18
-1.4969e-18
-1.49254e-18
-1.48577e-18
-1.47395e-18
-1.47092e-18
-1.47203e-18
-1.4597e-18
-1.45294e-18
-1.45621e-18
-1.44692e-18
-1.45474e-18
-1.43691e-18
-1.43426e-18
-1.48303e-18
-1.49212e-18
-1.4829e-18
-1.49134e-18
-1.48607e-18
-1.48834e-18
-1.48632e-18
-1.50456e-18
-1.50255e-18
-1.50595e-18
-1.50746e-18
-1.4928e-18
-1.51021e-18
-1.50786e-18
-1.50552e-18
-1.51008e-18
-1.50908e-18
-1.50025e-18
-1.4904e-18
-1.49766e-18
-1.48827e-18
-1.48111e-18
-1.47844e-18
-1.47189e-18
-1.47108e-18
-1.46582e-18
-1.4574e-18
-1.45031e-18
-1.44911e-18
-1.45076e-18
-1.42939e-18
-1.43996e-18
-1.48026e-18
-1.47816e-18
-1.48599e-18
-1.4998e-18
-1.49172e-18
-1.48971e-18
-1.49492e-18
-1.50111e-18
-1.49721e-18
-1.5053e-18
-1.51382e-18
-1.498e-18
-1.51377e-18
-1.50994e-18
-1.50807e-18
-1.50559e-18
-1.51201e-18
-1.50369e-18
-1.49938e-18
-1.49972e-18
-1.48584e-18
-1.48789e-18
-1.48315e-18
-1.47435e-18
-1.47637e-18
-1.46423e-18
-1.45971e-18
-1.45579e-18
-1.45099e-18
-1.44073e-18
-1.43129e-18
-1.43663e-18
-1.4773e-18
-1.48459e-18
-1.48073e-18
-1.50395e-18
-1.48169e-18
-1.49421e-18
-1.49568e-18
-1.50815e-18
-1.49299e-18
-1.51406e-18
-1.51597e-18
-1.51242e-18
-1.51111e-18
-1.50607e-18
-1.50483e-18
-1.51014e-18
-1.51015e-18
-1.50868e-18
-1.50015e-18
-1.50471e-18
-1.49769e-18
-1.48735e-18
-1.47456e-18
-1.4798e-18
-1.47682e-18
-1.46595e-18
-1.46193e-18
-1.46123e-18
-1.45322e-18
-1.45394e-18
-1.43975e-18
-1.44112e-18
-1.46899e-18
-1.5102e-18
-1.48562e-18
-1.48867e-18
-1.4749e-18
-1.50477e-18
-1.49771e-18
-1.50187e-18
-1.49951e-18
-1.51832e-18
-1.51652e-18
-1.51891e-18
-1.51456e-18
-1.50764e-18
-1.51249e-18
-1.51499e-18
-1.51219e-18
-1.51599e-18
-1.49429e-18
-1.50849e-18
-1.4982e-18
-1.48892e-18
-1.4743e-18
-1.47814e-18
-1.47593e-18
-1.45953e-18
-1.46388e-18
-1.46708e-18
-1.44718e-18
-1.45472e-18
-1.44316e-18
-1.44696e-18
-1.47347e-18
-1.50432e-18
-1.48917e-18
-1.49127e-18
-1.48929e-18
-1.50085e-18
-1.5027e-18
-1.51458e-18
-1.50837e-18
-1.5072e-18
-1.52221e-18
-1.52951e-18
-1.5107e-18
-1.5139e-18
-1.52209e-18
-1.50898e-18
-1.51187e-18
-1.50995e-18
-1.50288e-18
-1.50826e-18
-1.50236e-18
-1.49081e-18
-1.48213e-18
-1.47878e-18
-1.48162e-18
-1.46301e-18
-1.46586e-18
-1.4613e-18
-1.44494e-18
-1.45118e-18
-1.44357e-18
-1.4392e-18
-1.48082e-18
-1.51037e-18
-1.49153e-18
-1.49768e-18
-1.48281e-18
-1.49952e-18
-1.49235e-18
-1.50434e-18
-1.51138e-18
-1.5081e-18
-1.52087e-18
-1.52509e-18
-1.52199e-18
-1.51607e-18
-1.52013e-18
-1.50387e-18
-1.51555e-18
-1.50059e-18
-1.51414e-18
-1.51432e-18
-1.49945e-18
-1.49247e-18
-1.4858e-18
-1.47716e-18
-1.47757e-18
-1.46316e-18
-1.46827e-18
-1.45637e-18
-1.45783e-18
-1.45779e-18
-1.4474e-18
-1.43586e-18
-1.46836e-18
-1.50832e-18
-1.48704e-18
-1.49805e-18
-1.48185e-18
-1.50328e-18
-1.48653e-18
-1.50336e-18
-1.51122e-18
-1.51346e-18
-1.51832e-18
-1.52829e-18
-1.52423e-18
-1.51407e-18
-1.51221e-18
-1.50788e-18
-1.52445e-18
-1.50409e-18
-1.50789e-18
-1.51218e-18
-1.49971e-18
-1.49587e-18
-1.48773e-18
-1.47135e-18
-1.4745e-18
-1.46751e-18
-1.4699e-18
-1.46338e-18
-1.46518e-18
-1.4613e-18
-1.45667e-18
-1.45058e-18
-1.48637e-18
-1.49557e-18
-1.49475e-18
-1.4981e-18
-1.48938e-18
-1.50556e-18
-1.50371e-18
-1.50303e-18
-1.50421e-18
-1.51677e-18
-1.52092e-18
-1.51976e-18
-1.53036e-18
-1.50988e-18
-1.51697e-18
-1.50517e-18
-1.52826e-18
-1.51325e-18
-1.51244e-18
-1.51643e-18
-1.49763e-18
-1.50127e-18
-1.49191e-18
-1.4859e-18
-1.48282e-18
-1.46584e-18
-1.47204e-18
-1.47158e-18
-1.47274e-18
-1.46301e-18
-1.46232e-18
-1.45463e-18
-1.48132e-18
-1.50439e-18
-1.49168e-18
-1.50035e-18
-1.50249e-18
-1.49828e-18
-1.51535e-18
-1.49939e-18
-1.50014e-18
-1.51516e-18
-1.52207e-18
-1.51771e-18
-1.5276e-18
-1.50764e-18
-1.52797e-18
-1.50757e-18
-1.52536e-18
-1.51615e-18
-1.51665e-18
-1.51667e-18
-1.49252e-18
-1.4985e-18
-1.5011e-18
-1.48773e-18
-1.49006e-18
-1.47342e-18
-1.47453e-18
-1.46897e-18
-1.47377e-18
-1.46238e-18
-1.45949e-18
-1.45183e-18
-1.48328e-18
-1.50639e-18
-1.48601e-18
-1.49601e-18
-1.48496e-18
-1.5002e-18
-1.5114e-18
-1.49335e-18
-1.49193e-18
-1.5071e-18
-1.51169e-18
-1.5201e-18
-1.51438e-18
-1.51696e-18
-1.53583e-18
-1.51653e-18
-1.5292e-18
-1.51844e-18
-1.51388e-18
-1.51303e-18
-1.50488e-18
-1.49769e-18
-1.50237e-18
-1.48864e-18
-1.48609e-18
-1.47988e-18
-1.47907e-18
-1.46755e-18
-1.46873e-18
-1.463e-18
-1.46042e-18
-1.45276e-18
-1.48736e-18
-1.50047e-18
-1.48731e-18
-1.50301e-18
-1.47823e-18
-1.49881e-18
-1.50383e-18
-1.50675e-18
-1.50677e-18
-1.515e-18
-1.5216e-18
-1.52321e-18
-1.52301e-18
-1.52183e-18
-1.53705e-18
-1.52029e-18
-1.52396e-18
-1.52548e-18
-1.5178e-18
-1.51836e-18
-1.50674e-18
-1.49969e-18
-1.49604e-18
-1.49064e-18
-1.48408e-18
-1.4791e-18
-1.48583e-18
-1.46886e-18
-1.46927e-18
-1.46858e-18
-1.46332e-18
-1.46575e-18
-1.48582e-18
-1.51055e-18
-1.50536e-18
-1.51015e-18
-1.50105e-18
-1.51159e-18
-1.5114e-18
-1.5133e-18
-1.51602e-18
-1.52286e-18
-1.53501e-18
-1.52474e-18
-1.52654e-18
-1.52249e-18
-1.53818e-18
-1.52463e-18
-1.53069e-18
-1.52278e-18
-1.51786e-18
-1.51243e-18
-1.50495e-18
-1.50655e-18
-1.49158e-18
-1.49435e-18
-1.48876e-18
-1.4794e-18
-1.47178e-18
-1.46588e-18
-1.47829e-18
-1.47094e-18
-1.47086e-18
-1.47748e-18
-1.49139e-18
-1.50058e-18
-1.49826e-18
-1.50141e-18
-1.49803e-18
-1.51163e-18
-1.51554e-18
-1.5115e-18
-1.51996e-18
-1.52871e-18
-1.53447e-18
-1.53229e-18
-1.53198e-18
-1.52057e-18
-1.53404e-18
-1.53617e-18
-1.54467e-18
-1.51832e-18
-1.52957e-18
-1.51169e-18
-1.50273e-18
-1.50249e-18
-1.49294e-18
-1.48843e-18
-1.4919e-18
-1.48127e-18
-1.48278e-18
-1.47034e-18
-1.46987e-18
-1.47125e-18
-1.47299e-18
-1.47828e-18
-1.49472e-18
-1.50259e-18
-1.49912e-18
-1.49626e-18
-1.50075e-18
-1.49752e-18
-1.51985e-18
-1.51888e-18
-1.52385e-18
-1.52492e-18
-1.53101e-18
-1.53471e-18
-1.53951e-18
-1.52897e-18
-1.53864e-18
-1.52762e-18
-1.53721e-18
-1.51703e-18
-1.53103e-18
-1.50889e-18
-1.51322e-18
-1.50057e-18
-1.49404e-18
-1.49205e-18
-1.49402e-18
-1.4858e-18
-1.48446e-18
-1.46759e-18
-1.47787e-18
-1.47974e-18
-1.47492e-18
-1.50201e-18
-1.50673e-18
-1.49051e-18
-1.50032e-18
-1.50224e-18
-1.49847e-18
-1.51542e-18
-1.51793e-18
-1.51991e-18
-1.52735e-18
-1.54052e-18
-1.53223e-18
-1.53956e-18
-1.52835e-18
-1.53128e-18
-1.52631e-18
-1.53278e-18
-1.52707e-18
-1.52929e-18
-1.50491e-18
-1.51303e-18
-1.50002e-18
-1.49976e-18
-1.49381e-18
-1.49496e-18
-1.49642e-18
-1.48519e-18
-1.46686e-18
-1.47484e-18
-1.47871e-18
-1.47399e-18
-1.50142e-18
-1.50536e-18
-1.50598e-18
-1.49847e-18
-1.49608e-18
-1.5048e-18
-1.52427e-18
-1.51546e-18
-1.52365e-18
-1.52629e-18
-1.54603e-18
-1.54343e-18
-1.53094e-18
-1.52553e-18
-1.53547e-18
-1.52295e-18
-1.5289e-18
-1.52389e-18
-1.52717e-18
-1.5075e-18
-1.51218e-18
-1.4989e-18
-1.51043e-18
-1.49364e-18
-1.49587e-18
-1.49309e-18
-1.48783e-18
-1.47294e-18
-1.4784e-18
-1.48285e-18
-1.51053e-18
-1.4886e-18
-1.52145e-18
-1.49362e-18
-1.49565e-18
-1.50902e-18
-1.52024e-18
-1.517e-18
-1.52444e-18
-1.53236e-18
-1.54148e-18
-1.53618e-18
-1.53464e-18
-1.53145e-18
-1.54054e-18
-1.52358e-18
-1.53025e-18
-1.51883e-18
-1.5323e-18
-1.50903e-18
-1.51368e-18
-1.49987e-18
-1.51115e-18
-1.49266e-18
-1.50326e-18
-1.48835e-18
-1.49241e-18
-1.48119e-18
-1.47409e-18
-1.47856e-18
-1.50599e-18
-1.48828e-18
-1.50552e-18
-1.4878e-18
-1.48712e-18
-1.50564e-18
-1.5168e-18
-1.51962e-18
-1.52063e-18
-1.52757e-18
-1.54219e-18
-1.53195e-18
-1.53216e-18
-1.52755e-18
-1.53732e-18
-1.52941e-18
-1.53386e-18
-1.52209e-18
-1.53422e-18
-1.50629e-18
-1.51746e-18
-1.4967e-18
-1.51464e-18
-1.4967e-18
-1.50231e-18
-1.48908e-18
-1.4898e-18
-1.47056e-18
-1.4709e-18
-1.47217e-18
-1.50389e-18
-1.50327e-18
-1.49411e-18
-1.49177e-18
-1.49604e-18
-1.50414e-18
-1.51072e-18
-1.51321e-18
-1.52117e-18
-1.53013e-18
-1.53474e-18
-1.53493e-18
-1.54053e-18
-1.52926e-18
-1.53936e-18
-1.53771e-18
-1.53806e-18
-1.52591e-18
-1.54075e-18
-1.50969e-18
-1.51481e-18
-1.49967e-18
-1.51645e-18
-1.49821e-18
-1.50364e-18
-1.49078e-18
-1.48955e-18
-1.47764e-18
-1.47688e-18
-1.47266e-18
-1.50502e-18
-1.49926e-18
-1.49594e-18
-1.4909e-18
-1.50324e-18
-1.50284e-18
-1.50784e-18
-1.51706e-18
-1.51867e-18
-1.53734e-18
-1.5231e-18
-1.53161e-18
-1.54939e-18
-1.53318e-18
-1.53881e-18
-1.5323e-18
-1.53816e-18
-1.52565e-18
-1.53386e-18
-1.51017e-18
-1.51598e-18
-1.49687e-18
-1.51504e-18
-1.4988e-18
-1.50867e-18
-1.49202e-18
-1.49272e-18
-1.4842e-18
-1.48442e-18
-1.47357e-18
-1.498e-18
-1.50093e-18
-1.50357e-18
-1.49385e-18
-1.49915e-18
-1.49704e-18
-1.50922e-18
-1.5167e-18
-1.52587e-18
-1.53972e-18
-1.53737e-18
-1.52656e-18
-1.53125e-18
-1.53923e-18
-1.53429e-18
-1.5339e-18
-1.54781e-18
-1.52762e-18
-1.53416e-18
-1.51252e-18
-1.51806e-18
-1.50314e-18
-1.51343e-18
-1.49991e-18
-1.51014e-18
-1.49259e-18
-1.4962e-18
-1.4844e-18
-1.48185e-18
-1.48208e-18
-1.51486e-18
-1.50261e-18
-1.50578e-18
-1.48773e-18
-1.50256e-18
-1.4923e-18
-1.51069e-18
-1.52062e-18
-1.52417e-18
-1.53099e-18
-1.53865e-18
-1.53711e-18
-1.53946e-18
-1.53833e-18
-1.53843e-18
-1.53351e-18
-1.54536e-18
-1.52572e-18
-1.53399e-18
-1.51095e-18
-1.52228e-18
-1.50991e-18
-1.51709e-18
-1.50309e-18
-1.50671e-18
-1.4924e-18
-1.48843e-18
-1.4872e-18
-1.47923e-18
-1.48814e-18
-1.50184e-18
-1.50673e-18
-1.49314e-18
-1.48624e-18
-1.50665e-18
-1.50237e-18
-1.51669e-18
-1.52188e-18
-1.52385e-18
-1.53091e-18
-1.54445e-18
-1.54448e-18
-1.55631e-18
-1.54031e-18
-1.53837e-18
-1.52969e-18
-1.54833e-18
-1.52291e-18
-1.52621e-18
-1.50678e-18
-1.52436e-18
-1.50723e-18
-1.51708e-18
-1.50563e-18
-1.50684e-18
-1.49041e-18
-1.48646e-18
-1.49019e-18
-1.47606e-18
-1.48634e-18
-1.50302e-18
-1.4988e-18
-1.49989e-18
-1.49927e-18
-1.50443e-18
-1.50054e-18
-1.52151e-18
-1.51905e-18
-1.51915e-18
-1.53202e-18
-1.54211e-18
-1.54289e-18
-1.55542e-18
-1.54041e-18
-1.54705e-18
-1.53926e-18
-1.55127e-18
-1.52917e-18
-1.53211e-18
-1.50574e-18
-1.52613e-18
-1.50514e-18
-1.51064e-18
-1.50057e-18
-1.50897e-18
-1.49233e-18
-1.49284e-18
-1.49373e-18
-1.48212e-18
-1.49547e-18
-1.51119e-18
-1.50999e-18
-1.5093e-18
-1.50102e-18
-1.50943e-18
-1.50767e-18
-1.52699e-18
-1.51898e-18
-1.52662e-18
-1.53184e-18
-1.53871e-18
-1.534e-18
-1.54559e-18
-1.54401e-18
-1.54763e-18
-1.5467e-18
-1.55244e-18
-1.52895e-18
-1.53324e-18
-1.51168e-18
-1.52496e-18
-1.50505e-18
-1.50477e-18
-1.50627e-18
-1.51329e-18
-1.49226e-18
-1.4963e-18
-1.49339e-18
-1.48591e-18
-1.49282e-18
-1.5191e-18
-1.51163e-18
-1.50801e-18
-1.50505e-18
-1.4997e-18
-1.50457e-18
-1.52362e-18
-1.5239e-18
-1.53681e-18
-1.5303e-18
-1.53296e-18
-1.53852e-18
-1.54591e-18
-1.54601e-18
-1.55388e-18
-1.54554e-18
-1.5531e-18
-1.52928e-18
-1.53097e-18
-1.5137e-18
-1.52205e-18
-1.50715e-18
-1.50866e-18
-1.50199e-18
-1.51007e-18
-1.49699e-18
-1.50132e-18
-1.49598e-18
-1.48642e-18
-1.49659e-18
-1.51832e-18
-1.50522e-18
-1.50537e-18
-1.50243e-18
-1.50057e-18
-1.50383e-18
-1.5181e-18
-1.51623e-18
-1.5393e-18
-1.52991e-18
-1.53667e-18
-1.53886e-18
-1.55189e-18
-1.54776e-18
-1.55233e-18
-1.54805e-18
-1.55467e-18
-1.52751e-18
-1.53066e-18
-1.51358e-18
-1.51849e-18
-1.50873e-18
-1.50864e-18
-1.50556e-18
-1.51026e-18
-1.49153e-18
-1.49833e-18
-1.49592e-18
-1.48908e-18
-1.49854e-18
-1.51328e-18
-1.50913e-18
-1.49501e-18
-1.49317e-18
-1.50124e-18
-1.50421e-18
-1.50647e-18
-1.51859e-18
-1.54259e-18
-1.53977e-18
-1.53781e-18
-1.53756e-18
-1.54754e-18
-1.5439e-18
-1.54702e-18
-1.54482e-18
-1.55447e-18
-1.52356e-18
-1.53093e-18
-1.5196e-18
-1.51675e-18
-1.51136e-18
-1.50599e-18
-1.5021e-18
-1.51654e-18
-1.49625e-18
-1.49564e-18
-1.49328e-18
-1.4926e-18
-1.49322e-18
-1.51644e-18
-1.50548e-18
-1.50267e-18
-1.50589e-18
-1.49947e-18
-1.49155e-18
-1.51172e-18
-1.5193e-18
-1.53733e-18
-1.53631e-18
-1.5389e-18
-1.53735e-18
-1.55022e-18
-1.54917e-18
-1.55918e-18
-1.54399e-18
-1.55936e-18
-1.53061e-18
-1.53037e-18
-1.51464e-18
-1.51511e-18
-1.50863e-18
-1.50734e-18
-1.50619e-18
-1.52235e-18
-1.5017e-18
-1.4917e-18
-1.4933e-18
-1.48536e-18
-1.48855e-18
-1.5088e-18
-1.52209e-18
-1.50116e-18
-1.502e-18
-1.50553e-18
-1.49255e-18
-1.51589e-18
-1.5185e-18
-1.53521e-18
-1.53148e-18
-1.54526e-18
-1.54722e-18
-1.54671e-18
-1.55279e-18
-1.55745e-18
-1.54501e-18
-1.54434e-18
-1.53157e-18
-1.54076e-18
-1.51591e-18
-1.51631e-18
-1.50447e-18
-1.50472e-18
-1.50845e-18
-1.5159e-18
-1.49889e-18
-1.49409e-18
-1.49884e-18
-1.49108e-18
-1.49114e-18
-1.49758e-18
-1.51401e-18
-1.49672e-18
-1.49934e-18
-1.49919e-18
-1.4901e-18
-1.53323e-18
-1.51872e-18
-1.53747e-18
-1.525e-18
-1.54408e-18
-1.55447e-18
-1.54955e-18
-1.54995e-18
-1.55616e-18
-1.54834e-18
-1.53759e-18
-1.53065e-18
-1.54539e-18
-1.51912e-18
-1.51781e-18
-1.51306e-18
-1.50985e-18
-1.50148e-18
-1.51015e-18
-1.4971e-18
-1.50011e-18
-1.50073e-18
-1.49393e-18
-1.49039e-18
-1.51067e-18
-1.51548e-18
-1.50061e-18
-1.49802e-18
-1.50308e-18
-1.51028e-18
-1.53661e-18
-1.51695e-18
-1.55305e-18
-1.5255e-18
-1.54566e-18
-1.54041e-18
-1.54842e-18
-1.55084e-18
-1.55269e-18
-1.54658e-18
-1.54746e-18
-1.52922e-18
-1.53433e-18
-1.52167e-18
-1.52322e-18
-1.51252e-18
-1.51248e-18
-1.50317e-18
-1.50887e-18
-1.50392e-18
-1.50354e-18
-1.50021e-18
-1.49538e-18
-1.4978e-18
-1.51143e-18
-1.51735e-18
-1.50545e-18
-1.49406e-18
-1.52164e-18
-1.50016e-18
-1.52735e-18
-1.50899e-18
-1.54617e-18
-1.52618e-18
-1.56157e-18
-1.53753e-18
-1.55494e-18
-1.54799e-18
-1.54695e-18
-1.5409e-18
-1.54757e-18
-1.5298e-18
-1.53016e-18
-1.52511e-18
-1.51874e-18
-1.51047e-18
-1.5153e-18
-1.50448e-18
-1.50914e-18
-1.50294e-18
-1.50573e-18
-1.50354e-18
-1.49791e-18
-1.50574e-18
-1.5087e-18
-1.51469e-18
-1.51143e-18
-1.49543e-18
-1.51666e-18
-1.49777e-18
-1.52041e-18
-1.50117e-18
-1.54548e-18
-1.53178e-18
-1.55516e-18
-1.53624e-18
-1.56192e-18
-1.54135e-18
-1.54884e-18
-1.54619e-18
-1.54823e-18
-1.53495e-18
-1.53366e-18
-1.5223e-18
-1.51437e-18
-1.51314e-18
-1.5122e-18
-1.50416e-18
-1.50965e-18
-1.50177e-18
-1.50926e-18
-1.50065e-18
-1.49759e-18
-1.50313e-18
-1.51671e-18
-1.50746e-18
-1.51398e-18
-1.49252e-18
-1.50777e-18
-1.49335e-18
-1.52282e-18
-1.51392e-18
-1.53997e-18
-1.52683e-18
-1.55947e-18
-1.5316e-18
-1.55395e-18
-1.54275e-18
-1.55948e-18
-1.55499e-18
-1.55168e-18
-1.53118e-18
-1.52751e-18
-1.52315e-18
-1.51606e-18
-1.517e-18
-1.50807e-18
-1.50477e-18
-1.51168e-18
-1.50027e-18
-1.51433e-18
-1.49891e-18
-1.50324e-18
-1.50248e-18
-1.51579e-18
-1.51414e-18
-1.51701e-18
-1.49609e-18
-1.50668e-18
-1.49049e-18
-1.52708e-18
-1.52107e-18
-1.53418e-18
-1.51384e-18
-1.55176e-18
-1.53201e-18
-1.5588e-18
-1.55923e-18
-1.55475e-18
-1.5552e-18
-1.55546e-18
-1.52468e-18
-1.52996e-18
-1.52768e-18
-1.51878e-18
-1.51495e-18
-1.50753e-18
-1.50638e-18
-1.51652e-18
-1.50676e-18
-1.51389e-18
-1.49676e-18
-1.50285e-18
-1.5012e-18
-1.51528e-18
-1.51369e-18
-1.51461e-18
-1.50136e-18
-1.51079e-18
-1.49957e-18
-1.51449e-18
-1.5207e-18
-1.53739e-18
-1.52235e-18
-1.54527e-18
-1.53741e-18
-1.56292e-18
-1.55656e-18
-1.55952e-18
-1.54945e-18
-1.55625e-18
-1.52113e-18
-1.54211e-18
-1.5251e-18
-1.51537e-18
-1.51299e-18
-1.51166e-18
-1.50772e-18
-1.51691e-18
-1.50561e-18
-1.51516e-18
-1.50016e-18
-1.50023e-18
-1.4981e-18
-1.51477e-18
-1.49463e-18
-1.52786e-18
-1.50349e-18
-1.52307e-18
-1.52708e-18
-1.54695e-18
-1.53357e-18
-1.54182e-18
-1.53742e-18
-1.5688e-18
-1.55611e-18
-1.52132e-18
-1.50749e-18
-1.51343e-18
-1.4993e-18
-1.51297e-18
-1.50286e-18
-1.51099e-18
-1.50085e-18
-1.49886e-18
-1.50152e-18
-1.46556e-18
-1.46447e-18
-1.4645e-18
-1.466e-18
-1.47563e-18
-1.46502e-18
-1.47404e-18
-1.48122e-18
-1.46156e-18
-1.48442e-18
-1.45286e-18
-1.46286e-18
-1.45429e-18
-1.46766e-18
-1.45141e-18
-1.45404e-18
-1.47066e-18
-1.48818e-18
-1.46908e-18
-1.46935e-18
-1.47899e-18
-1.4669e-18
-1.46213e-18
-1.47113e-18
-1.45286e-18
-1.46981e-18
-1.45622e-18
-1.47364e-18
-1.46826e-18
-1.46666e-18
-1.47895e-18
-1.46535e-18
-1.47103e-18
-1.46231e-18
-1.46974e-18
-1.47897e-18
-1.49115e-18
-1.46136e-18
-1.45941e-18
-1.48002e-18
-1.49585e-18
-1.4596e-18
-1.48094e-18
-1.49309e-18
-1.45982e-18
-1.48076e-18
-1.47038e-18
-1.4529e-18
-1.47299e-18
-1.48082e-18
-1.46612e-18
-1.45343e-18
-1.44855e-18
-1.46941e-18
-1.47362e-18
-1.46049e-18
-1.45079e-18
-1.45043e-18
-1.4869e-18
-1.46874e-18
-1.45651e-18
-1.46962e-18
-1.48433e-18
-1.46334e-18
-1.47537e-18
-1.47286e-18
-1.46927e-18
-1.45308e-18
-1.44927e-18
-1.45438e-18
-1.47174e-18
-1.46705e-18
-1.46771e-18
-1.4635e-18
-1.46779e-18
-1.47302e-18
-1.46521e-18
-1.4724e-18
-1.48603e-18
-1.46852e-18
-1.45279e-18
-1.46465e-18
-1.45489e-18
-1.46359e-18
-1.46733e-18
-1.4575e-18
-1.48921e-18
-1.45261e-18
-1.46588e-18
-1.46218e-18
-1.47059e-18
-1.45908e-18
-1.47614e-18
-1.48454e-18
-1.47052e-18
-1.46262e-18
-1.48039e-18
-1.48659e-18
-1.44961e-18
-1.45535e-18
-1.47556e-18
-1.46166e-18
-1.471e-18
-1.46734e-18
-1.4676e-18
-1.46674e-18
-1.4764e-18
-1.50467e-18
-1.47451e-18
-1.47118e-18
-1.4665e-18
-1.4467e-18
-1.48532e-18
-1.47457e-18
-1.4554e-18
-1.46149e-18
-1.47133e-18
-1.47884e-18
-1.45395e-18
-1.4699e-18
-1.48277e-18
-1.48012e-18
-1.46644e-18
-1.46761e-18
-1.47205e-18
-1.4932e-18
-1.4643e-18
-1.45716e-18
-1.47698e-18
-1.48343e-18
-1.48389e-18
-1.47357e-18
-1.49577e-18
-1.47373e-18
-1.46917e-18
-1.45356e-18
-1.46852e-18
-1.48435e-18
-1.45687e-18
-1.46079e-18
-1.458e-18
-1.4515e-18
-1.47062e-18
-1.46769e-18
-1.49659e-18
-1.47275e-18
-1.48536e-18
-1.48838e-18
-1.48496e-18
-1.47419e-18
-1.45491e-18
-1.46657e-18
-1.48362e-18
-1.47033e-18
-1.46367e-18
-1.45303e-18
-1.4672e-18
-1.45727e-18
-1.46692e-18
-1.48006e-18
-1.49773e-18
-1.49433e-18
-1.47405e-18
-1.47539e-18
-1.47836e-18
-1.47696e-18
-1.4684e-18
-1.4741e-18
-1.46892e-18
-1.47873e-18
-1.47877e-18
-1.47557e-18
-1.47024e-18
-1.4843e-18
-1.4719e-18
-1.46425e-18
-1.46299e-18
-1.46426e-18
-1.48426e-18
-1.4509e-18
-1.46182e-18
-1.44247e-18
-1.46098e-18
-1.48692e-18
-1.47011e-18
-1.49349e-18
-1.47112e-18
-1.48267e-18
-1.49022e-18
-1.4759e-18
-1.48801e-18
-1.45779e-18
-1.47187e-18
-1.45911e-18
-1.46873e-18
-1.46958e-18
-1.45706e-18
-1.47237e-18
-1.46396e-18
-1.47922e-18
-1.4751e-18
-1.48222e-18
-1.48152e-18
-1.4815e-18
-1.48112e-18
-1.4712e-18
-1.46429e-18
-1.46745e-18
-1.47619e-18
-1.48673e-18
-1.47001e-18
-1.47524e-18
-1.48276e-18
-1.4724e-18
-1.46308e-18
-1.49021e-18
-1.47224e-18
-1.45651e-18
-1.46759e-18
-1.45344e-18
-1.47834e-18
-1.46109e-18
-1.46676e-18
-1.48661e-18
-1.46762e-18
-1.47499e-18
-1.48653e-18
-1.47114e-18
-1.46393e-18
-1.48864e-18
-1.44843e-18
-1.47241e-18
-1.48871e-18
-1.46947e-18
-1.47543e-18
-1.46691e-18
-1.46414e-18
-1.47771e-18
-1.47259e-18
-1.47817e-18
-1.45751e-18
-1.47189e-18
-1.47113e-18
-1.46168e-18
-1.47093e-18
-1.47228e-18
-1.48217e-18
-1.46878e-18
-1.46034e-18
-1.46987e-18
-1.47684e-18
-1.46211e-18
-1.49148e-18
-1.4699e-18
-1.47642e-18
-1.46766e-18
-1.47209e-18
-1.46874e-18
-1.47225e-18