/*--------------------------------*- C++ -*----------------------------------*\
  =========                 |
  \\      /  F ield         | OpenFOAM: The Open Source CFD Toolbox
   \\    /   O peration     | Website:  https://openfoam.org
    \\  /    A nd           | Version:  7
     \\/     M anipulation  |
\*---------------------------------------------------------------------------*/
FoamFile
{
    version     2.0;
    format      ascii;
    class       surfaceScalarField;
    location    "240000";
    object      phi;
}
// * * * * * * * * * * * * * * * * * * * * * * * * * * * * * * * * * * * * * //

dimensions      [0 3 -1 0 0 0 0];

internalField   nonuniform List<scalar> 
9540
(
-3.05158e-23
3.51537e-23
1.93163e-23
3.15425e-23
-3.14735e-23
3.60251e-23
3.05595e-23
-6.52215e-24
5.28945e-23
2.67962e-23
-3.15415e-23
2.26606e-23
1.16532e-23
-1.65429e-23
4.5309e-23
-1.02411e-23
2.17682e-23
7.19805e-24
4.89248e-23
3.3189e-23
-2.43604e-23
3.70231e-23
1.40992e-23
-2.0596e-23
4.21255e-23
-7.10651e-24
2.04014e-23
-4.97069e-24
4.90493e-23
1.05592e-23
4.02398e-23
3.49454e-23
-2.38015e-23
5.48108e-23
1.32118e-23
-2.48799e-23
5.16247e-23
-1.42756e-24
4.58113e-23
-9.55819e-24
6.9365e-23
1.95842e-23
5.88492e-23
2.08693e-23
3.40597e-23
9.99774e-23
-3.15075e-23
-6.80665e-24
1.09813e-23
-2.27424e-23
5.45541e-23
-6.61637e-24
7.45114e-23
-3.29785e-24
4.93744e-23
5.87646e-24
6.12969e-23
3.56278e-23
5.90764e-23
2.31782e-23
6.9783e-23
1.79296e-23
9.16458e-23
2.40041e-23
-2.4425e-23
3.65449e-23
2.68981e-23
-1.33292e-23
4.38295e-23
-1.75399e-23
8.57439e-23
-2.81767e-24
7.8004e-23
1.05346e-23
6.35378e-23
3.5804e-23
8.49583e-23
2.95152e-23
5.15223e-23
-4.39947e-24
2.64846e-23
-2.61728e-23
3.35996e-23
5.55965e-23
-1.385e-23
5.56523e-23
2.92355e-23
-9.57907e-24
8.10982e-23
-1.57807e-23
5.7578e-23
-7.71368e-24
7.13735e-23
1.52538e-23
9.29968e-23
2.8433e-23
7.80291e-23
1.74606e-23
6.3288e-23
-3.44728e-24
3.73088e-23
-1.52318e-23
2.96959e-23
-2.81552e-24
3.27759e-23
-1.84264e-23
1.03193e-23
-7.15225e-24
2.72162e-23
5.26122e-24
9.24044e-24
-2.50812e-23
-9.30978e-24
7.02062e-23
2.31267e-23
-1.66081e-23
5.46693e-23
-1.05494e-23
5.33115e-23
-1.11865e-23
4.74077e-23
1.22878e-23
7.84588e-23
2.26794e-23
8.01418e-23
5.88481e-24
8.3128e-23
-3.34129e-24
3.59349e-23
-1.86242e-23
-7.22744e-25
-7.93442e-24
1.49055e-23
-7.14418e-24
7.0591e-24
-1.58638e-23
5.72854e-26
-9.78543e-25
4.12557e-23
-2.42746e-23
3.69804e-23
-3.09695e-23
3.20746e-23
-3.75186e-23
1.83407e-23
-3.51749e-23
3.10794e-23
2.344e-23
-7.64268e-24
5.82214e-23
1.65862e-23
-1.46414e-23
6.8494e-23
-1.3147e-23
5.04435e-23
-5.86982e-24
7.40683e-23
1.05464e-23
6.44275e-23
2.11537e-23
6.76852e-23
-2.70304e-24
2.01725e-23
-5.76767e-24
3.38884e-23
-1.65185e-23
5.05452e-24
-1.38766e-23
8.97795e-24
-1.27559e-23
1.4943e-24
-1.21498e-23
1.07284e-24
1.0634e-25
3.56854e-23
-2.33349e-23
2.27174e-23
-2.53835e-23
6.52152e-23
-3.55557e-23
2.10124e-23
-4.02521e-23
3.05001e-23
-4.05979e-23
-4.28687e-25
-2.62448e-23
-5.76368e-23
-4.48367e-23
-9.60716e-24
5.31707e-23
1.49972e-23
-1.39554e-23
7.27849e-23
-9.38908e-24
4.99049e-23
-1.07266e-23
6.70267e-23
1.03397e-23
8.11222e-23
4.69395e-24
3.31278e-23
-2.41588e-24
-1.59505e-23
-9.50547e-24
-3.60829e-24
-1.53892e-23
5.78019e-24
-1.14299e-23
-2.38097e-25
-1.24239e-23
-1.11606e-24
3.1425e-25
-1.06285e-23
-3.57638e-24
9.58028e-24
-1.61056e-23
-1.03305e-23
-3.13617e-23
3.83148e-23
-3.22681e-23
2.00048e-23
-5.05079e-23
3.71429e-23
-5.07965e-23
-2.20246e-23
-2.42821e-23
-1.19204e-22
-2.48461e-23
-5.89447e-23
-1.92303e-23
-1.30049e-23
-2.44108e-23
-3.34612e-23
-5.1161e-23
-6.21996e-23
-7.93477e-23
-8.72937e-24
4.90285e-23
1.67742e-23
-1.77808e-23
7.21032e-23
-1.54458e-23
4.65065e-23
-9.24006e-24
6.01227e-23
1.29407e-24
6.83754e-23
1.21455e-24
8.04568e-23
3.74589e-25
-1.61641e-23
-6.56574e-24
4.17876e-24
-1.9786e-23
1.85003e-23
-1.50854e-23
-4.68761e-24
-1.98468e-23
-3.44772e-23
2.68679e-24
1.94642e-24
-9.45657e-24
2.09528e-23
-1.11052e-23
-1.20761e-23
-3.53629e-23
5.8647e-23
-3.21791e-23
1.31234e-23
-6.00505e-23
-1.82811e-23
-6.8058e-23
-4.06807e-23
-1.33402e-23
-2.49034e-23
-1.22942e-23
1.62224e-23
-2.59128e-23
-1.37048e-24
-2.81862e-23
-2.58807e-23
-5.54966e-23
-3.99904e-23
-2.74812e-23
-1.06422e-23
-5.99052e-23
1.89001e-23
-1.3132e-22
5.94535e-23
-1.27884e-22
2.69595e-23
-1.11751e-22
6.85771e-24
6.36342e-24
-1.47577e-24
2.57243e-23
1.84968e-23
-1.91264e-23
7.74826e-23
-1.18503e-23
6.64948e-23
-1.38924e-23
5.63317e-23
-1.37906e-24
7.45542e-23
-1.29593e-23
8.99265e-23
-4.97333e-25
7.34739e-23
-7.77273e-24
1.38117e-23
-1.92385e-23
-7.47022e-24
-2.49026e-23
1.95936e-24
-1.3541e-23
-9.16763e-24
2.31898e-24
-1.36543e-23
-1.7643e-23
-2.854e-25
3.17821e-24
2.85467e-24
-4.35747e-23
5.94345e-24
-3.42501e-23
8.81003e-23
-6.9832e-23
2.85442e-24
-6.28839e-23
8.1122e-23
-4.29485e-24
6.23262e-23
-1.18267e-23
7.07592e-23
-3.09194e-23
3.00393e-23
-2.65858e-23
4.46575e-23
-4.86139e-23
-2.03319e-23
-2.01654e-23
4.16116e-23
-5.30926e-23
6.01217e-23
-1.35127e-22
-1.62284e-24
-1.3389e-22
2.96694e-23
-1.10867e-22
5.00114e-23
-1.42971e-22
3.93169e-23
-1.67994e-22
2.5455e-23
-1.5134e-22
2.32209e-23
-5.29838e-23
4.67653e-24
9.03188e-23
1.89203e-23
-1.88387e-23
-1.55784e-24
-1.30829e-23
5.37432e-23
-6.25272e-24
8.86498e-23
-9.31406e-25
6.33277e-23
-1.86943e-23
5.32897e-23
-5.436e-24
1.57884e-23
-8.79747e-24
1.92151e-23
-2.47522e-23
-2.02248e-23
-2.05125e-23
1.60804e-25
-1.36809e-23
-1.64477e-23
-1.85361e-24
-2.25887e-23
-1.22154e-23
4.77951e-24
4.58702e-24
1.31573e-23
-3.33552e-23
-5.41243e-23
-4.74781e-23
3.00182e-24
-5.37779e-23
-1.78397e-24
-6.10583e-23
6.6842e-23
-2.65044e-24
1.49729e-22
-2.2776e-23
7.61981e-23
-2.98206e-23
2.65732e-23
-3.93428e-23
5.34727e-23
-3.63884e-23
-1.20155e-23
-1.56466e-23
3.24472e-23
-6.18219e-23
1.71755e-23
-1.28133e-22
6.50285e-23
-1.32585e-22
4.67384e-23
-1.09301e-22
1.01172e-22
-1.45351e-22
6.83189e-23
-1.65614e-22
4.75049e-23
-1.68637e-22
4.07143e-23
-1.84634e-22
3.69203e-23
-2.31082e-22
-2.34353e-22
-3.32612e-22
-9.19279e-24
8.48857e-23
1.29644e-23
-1.34138e-23
3.07192e-23
-1.32694e-23
5.28569e-23
-1.03069e-23
8.00145e-23
-1.64902e-24
5.68062e-23
-2.09575e-23
1.6418e-23
-4.55777e-24
3.93257e-23
-1.75059e-23
-5.76104e-24
-2.3373e-23
-1.00907e-23
-2.13563e-23
-4.24078e-24
-1.51001e-23
2.16843e-23
4.12385e-24
4.99315e-23
-9.67708e-24
1.22639e-23
-8.44648e-24
3.60701e-24
-2.52233e-23
-4.97069e-23
-4.59285e-23
1.54636e-23
-4.60115e-23
-7.82367e-24
-4.44184e-23
4.80384e-23
-2.52433e-23
6.76795e-23
-2.78917e-23
4.91044e-23
-2.50052e-23
1.77933e-23
-4.91832e-23
7.08244e-24
-2.72754e-23
4.93661e-23
-2.16854e-23
3.23201e-23
-4.95734e-23
3.12332e-23
-1.35064e-22
7.31817e-23
-1.22229e-22
3.46714e-23
-1.13645e-22
1.56471e-22
-1.44684e-22
9.67539e-23
-1.66268e-22
7.46171e-23
-1.66114e-22
4.69986e-23
-2.30513e-22
1.01633e-22
-2.82881e-22
-7.43828e-23
-3.12066e-22
-1.34349e-23
8.65523e-23
9.41539e-24
-1.05088e-23
4.71833e-23
-1.26832e-23
4.85653e-23
-1.15517e-23
9.42531e-23
-1.12756e-23
4.90075e-23
-2.52568e-23
1.9393e-23
-1.87399e-23
2.34207e-23
-2.10886e-23
-5.24259e-24
-2.47477e-23
-4.06787e-23
-1.86428e-23
-9.57237e-24
-8.74803e-24
2.54516e-23
-9.12927e-25
9.78384e-24
-1.3091e-23
1.4842e-23
-1.75579e-23
8.0862e-24
-2.14976e-23
-5.18088e-23
-4.76707e-23
-4.21004e-23
-3.72024e-23
-2.77739e-23
-3.98762e-23
-5.1716e-23
-2.81613e-23
-6.36043e-23
-2.94067e-23
3.62753e-23
-2.92669e-23
8.98075e-24
-4.08894e-23
3.06278e-23
-3.26049e-23
-4.29336e-23
-1.86747e-23
1.92478e-23
-3.82627e-23
3.9603e-23
-1.45477e-22
-8.13096e-23
-9.98305e-23
6.55425e-23
-1.23688e-22
8.4459e-23
-1.4292e-22
1.12214e-22
-1.73217e-22
3.95572e-23
-1.57111e-22
1.21589e-22
-2.58711e-22
1.0716e-22
-3.73592e-22
4.03381e-23
-1.40821e-22
-2.04492e-23
9.31038e-23
1.06087e-23
-1.83813e-23
4.45402e-23
-6.44035e-24
2.87796e-23
-2.11335e-23
7.02669e-23
-1.98468e-23
5.70425e-24
-2.06104e-23
8.9949e-24
-1.85843e-23
1.55091e-23
-2.27237e-23
1.80134e-24
-2.12585e-23
3.00295e-24
-1.0723e-23
-1.11702e-23
-1.07967e-23
-3.79291e-24
2.6054e-24
1.9182e-23
-1.47821e-23
-1.26697e-23
-1.96614e-23
3.78821e-24
-2.2473e-23
-5.5122e-23
-4.09749e-23
-2.49239e-23
-4.38157e-23
-3.15554e-23
-4.12478e-23
-5.41415e-23
-1.49441e-23
-5.96822e-24
-3.39005e-23
4.48307e-23
-2.4096e-23
1.10067e-23
-5.02511e-23
2.79382e-24
-2.70861e-23
9.20801e-23
-1.12117e-23
6.87243e-23
-5.88354e-23
-4.56395e-24
-1.19925e-22
-1.12127e-23
-9.91533e-23
1.12468e-22
-1.14797e-22
8.98797e-23
-1.53374e-22
6.30146e-23
-1.59641e-22
5.30292e-23
-1.60532e-22
1.41376e-22
-2.62383e-22
1.07702e-22
-4.15013e-22
1.84472e-22
4.3725e-22
-1.99623e-23
7.26268e-23
1.01581e-23
-2.08483e-23
3.67754e-23
-4.96135e-24
5.52816e-23
-2.44334e-23
6.00274e-23
-2.01564e-23
2.24211e-24
-2.09971e-23
2.67556e-24
-1.77614e-23
1.5279e-23
-2.00944e-23
1.09373e-23
-2.85346e-23
1.46945e-23
-1.08409e-23
-2.29553e-23
-5.51715e-24
4.68415e-23
-2.78895e-24
2.11378e-23
-1.39556e-23
-3.72057e-24
-2.23891e-23
1.25248e-23
-2.41591e-23
-5.23932e-23
-3.57781e-23
-1.99431e-23
-4.58699e-23
-1.38795e-23
-3.19204e-23
1.91865e-23
-7.55805e-24
5.8305e-23
-3.49634e-23
7.35318e-23
-2.64833e-23
7.02158e-24
-3.75147e-23
5.21449e-24
-3.08384e-23
8.51243e-24
-1.91266e-23
1.2731e-22
-6.03673e-23
3.00333e-23
-1.01787e-22
2.90139e-23
-1.03484e-22
1.21422e-22
-1.1363e-22
8.96293e-23
-1.53486e-22
9.86963e-23
-1.45205e-22
1.4458e-22
-1.63188e-22
1.83316e-22
-2.42107e-22
1.92475e-22
-3.83115e-22
3.15919e-22
6.22968e-22
-2.64673e-23
5.90664e-23
4.26842e-24
-1.83523e-23
6.00801e-23
-6.77237e-24
4.97797e-23
-3.51539e-23
1.42198e-24
-2.30428e-23
3.16509e-23
-2.17461e-23
2.44937e-23
-1.76443e-23
5.06285e-24
-2.54073e-23
2.32872e-23
-2.94275e-23
2.41577e-23
-7.65835e-24
5.9699e-23
-4.54819e-24
9.9077e-23
-1.20732e-23
-4.61495e-23
-1.25668e-23
-7.9479e-26
-2.66424e-23
1.65903e-23
-1.82135e-23
2.27874e-23
-4.06337e-23
1.13867e-23
-3.97424e-23
-9.45541e-24
-2.28211e-23
2.72053e-23
-3.38983e-24
3.88831e-23
-4.45786e-23
2.68196e-23
-2.41002e-23
8.42201e-23
-3.73321e-23
1.28656e-23
-1.44325e-23
8.18722e-23
-3.44584e-23
5.14205e-23
-5.67115e-23
4.369e-23
-9.14812e-23
1.61033e-23
-1.05815e-22
5.41224e-23
-1.13408e-22
9.37554e-23
-1.4367e-22
1.22048e-22
-1.40122e-22
1.48261e-22
-1.54746e-22
2.19875e-22
-2.19019e-22
2.59083e-22
-2.9864e-22
3.98428e-22
6.52367e-22
-2.33371e-23
3.49741e-23
8.10367e-24
-2.5231e-23
6.18414e-23
-1.66039e-23
4.51334e-23
-3.08672e-23
2.10576e-23
-2.03813e-23
2.58049e-23
-2.48471e-23
3.58799e-23
-1.64729e-23
3.0221e-23
-2.62304e-23
7.39834e-23
-2.20309e-23
6.66091e-23
-7.54833e-24
8.62228e-23
-2.44995e-23
1.25045e-22
-8.1658e-24
-7.83861e-24
-1.0243e-23
7.34374e-24
-2.26372e-23
1.78141e-23
-2.11757e-23
1.9784e-23
-4.0025e-23
3.02106e-23
-3.45192e-23
7.76127e-23
-2.08753e-23
1.09741e-22
-6.54252e-24
1.27313e-22
-3.74126e-23
6.63071e-23
-3.17081e-23
7.86537e-23
-2.68934e-23
3.96343e-23
-1.94024e-23
7.27088e-23
-3.28217e-23
5.92043e-23
-5.88317e-23
4.88892e-23
-8.98038e-23
4.40291e-23
-9.71069e-23
8.87155e-23
-1.09118e-22
9.57377e-23
-1.40489e-22
1.18281e-22
-1.29136e-22
2.3767e-22
-1.43795e-22
2.5383e-22
-1.97656e-22
3.15993e-22
-2.28446e-22
5.49632e-22
6.65701e-22
-1.92465e-23
3.1838e-23
1.44103e-23
-2.57438e-23
7.05451e-23
-1.66599e-23
7.6202e-23
-2.99753e-23
3.74792e-23
-2.18499e-23
2.48514e-23
-2.21078e-23
4.00143e-24
-1.06887e-23
2.50298e-23
-2.075e-23
4.69092e-23
-1.97882e-23
6.89612e-23
4.80414e-24
1.05692e-22
-3.84911e-23
7.56606e-23
-4.79337e-24
6.12623e-23
-9.37245e-24
4.9186e-23
-2.12928e-23
2.32742e-23
-1.8516e-23
1.3773e-23
-3.10898e-23
4.46481e-23
-3.03992e-23
8.15504e-23
-1.77401e-23
1.0186e-22
-1.3753e-23
1.30813e-22
-3.51516e-23
6.12131e-23
-3.31853e-23
7.86677e-23
-2.50869e-23
3.20048e-23
-2.18134e-23
6.80633e-23
-3.26036e-23
6.35002e-23
-5.89324e-23
7.19604e-23
-8.5754e-23
7.05985e-23
-9.46245e-23
8.98545e-23
-1.02933e-22
1.02018e-22
-1.24952e-22
1.42773e-22
-1.23499e-22
2.42445e-22
-1.32455e-22
2.72224e-22
-1.66446e-22
3.52089e-22
-1.94396e-22
5.4927e-22
5.83051e-22
-2.06999e-23
3.84033e-23
9.55679e-24
-2.67989e-23
4.38016e-23
-1.33964e-23
2.11454e-23
-2.66871e-23
4.296e-23
-2.35608e-23
6.28733e-23
-1.91932e-23
3.41823e-23
-1.00805e-23
1.42954e-23
-1.96934e-23
5.85442e-23
-1.14748e-23
6.68254e-23
-6.1603e-24
1.01654e-22
-3.6275e-23
2.33989e-23
-1.10127e-23
8.90703e-23
-8.43334e-24
8.2484e-23
-2.47928e-23
-2.81156e-24
-1.10126e-23
3.76834e-23
-2.48352e-23
-2.84867e-23
-2.79881e-23
9.82268e-23
-1.13216e-23
9.88281e-23
-2.47013e-23
1.19736e-23
-3.34e-23
7.32018e-23
-3.82365e-23
8.52326e-23
-2.17379e-23
1.948e-23
-2.13138e-23
6.29127e-23
-2.88716e-23
6.29583e-23
-6.02715e-23
1.06287e-22
-8.24981e-23
8.57408e-23
-9.42346e-23
1.05359e-22
-9.25457e-23
1.96273e-22
-1.16879e-22
1.74867e-22
-1.14299e-22
2.44494e-22
-1.19532e-22
2.79938e-22
-1.41766e-22
3.72841e-22
-1.72291e-22
4.56796e-22
5.70979e-22
-1.71596e-23
1.58476e-23
6.97066e-24
-2.71213e-23
5.37e-23
-1.81172e-23
4.81995e-23
-2.5223e-23
5.35498e-23
-1.9231e-23
1.74635e-23
-2.25033e-23
3.25461e-23
-5.36911e-24
8.80884e-23
-1.61511e-23
2.2352e-23
-1.21106e-23
1.06227e-22
-1.30196e-23
5.96893e-23
-3.06889e-23
3.42116e-23
-9.09328e-24
1.1489e-22
-1.78886e-23
8.39854e-23
-2.09688e-23
-6.181e-24
-1.41178e-23
7.10519e-23
-1.55624e-23
6.69183e-23
-2.32181e-23
1.15859e-22
-2.23992e-23
1.05836e-22
-1.63118e-23
1.09931e-23
-3.02865e-23
8.57846e-23
-4.65994e-23
1.41089e-23
-1.43169e-23
7.6255e-23
-2.30187e-23
6.27423e-23
-2.10704e-23
5.51455e-23
-6.33873e-23
-4.50729e-23
-7.84131e-23
9.7284e-23
-8.42579e-23
1.17449e-22
-8.94363e-23
1.98539e-22
-1.14335e-22
1.18637e-22
-1.04475e-22
3.25782e-22
-1.08458e-22
2.84145e-22
-1.32822e-22
3.87153e-22
-1.47243e-22
4.53202e-22
-1.34941e-22
5.37765e-22
8.99841e-22
-1.23711e-23
1.79945e-23
6.49213e-24
-2.89897e-23
2.98721e-23
-1.4699e-23
3.17637e-23
-2.50652e-23
2.58675e-23
-1.99138e-23
5.06599e-23
-2.15576e-23
2.97725e-23
-1.68769e-23
8.05805e-23
-5.14605e-24
5.4205e-23
-2.41004e-23
4.52079e-23
-1.38869e-23
4.7969e-23
-2.42281e-23
3.72566e-23
-9.49345e-24
1.04079e-22
-2.88627e-23
5.52961e-23
-1.21894e-23
8.76912e-24
-1.43198e-23
5.3418e-23
-1.15784e-23
2.69367e-23
-2.37677e-23
3.87995e-23
-3.51556e-23
3.02777e-23
-3.8568e-24
6.95703e-23
-3.75351e-23
1.12376e-22
-4.27126e-23
9.82763e-23
-1.4114e-23
1.29063e-22
-2.30923e-23
6.36977e-23
-3.07929e-23
5.02147e-23
-4.9019e-23
-3.42115e-23
-7.6309e-23
3.3451e-23
-7.46777e-23
8.82822e-23
-9.39208e-23
1.17111e-22
-9.4485e-23
1.20476e-22
-1.05485e-22
2.44716e-22
-9.37722e-23
2.66346e-22
-1.24288e-22
3.26172e-22
-1.24089e-22
4.46905e-22
-1.13315e-22
5.56717e-22
8.19817e-22
-9.9138e-24
4.55839e-23
1.21546e-23
-2.86129e-23
4.90496e-23
-1.85812e-23
2.19215e-23
-2.50848e-23
3.3166e-23
-2.25017e-23
4.57156e-23
-1.26639e-23
1.69351e-23
-2.06769e-23
4.82174e-23
-2.10677e-24
2.9363e-23
-2.17991e-23
7.21545e-23
-1.16209e-23
8.15683e-23
-2.12886e-23
4.99655e-23
-1.51977e-23
9.32632e-23
-3.28008e-23
2.4159e-23
-1.04368e-23
1.1652e-22
-1.23036e-23
9.53436e-23
-1.1333e-23
2.85083e-23
-2.15525e-23
4.97645e-23
-3.26174e-23
4.27392e-23
3.31793e-25
1.09132e-22
-3.57883e-23
4.99192e-23
-4.12813e-23
9.28649e-23
-1.88027e-23
2.32973e-22
-2.69732e-23
6.40001e-23
-3.78594e-23
2.08202e-23
-4.28759e-23
-3.80497e-23
-6.70284e-23
5.30643e-23
-7.38873e-23
9.95655e-23
-8.56041e-23
1.23516e-22
-8.49788e-23
1.21447e-22
-9.77252e-23
2.50978e-22
-8.80331e-23
2.49978e-22
-1.13847e-22
2.6729e-22
-1.04334e-22
4.32205e-22
-1.00133e-22
4.50851e-22
-6.35195e-24
3.92308e-23
5.72785e-24
-2.87425e-23
6.237e-23
-1.68082e-23
1.29353e-23
-2.46452e-23
4.4375e-23
-2.16332e-23
4.34052e-23
-1.1672e-23
1.13038e-23
-2.08701e-23
5.54587e-23
-5.07434e-25
1.40757e-22
-1.7287e-23
9.23408e-23
-1.22073e-23
8.37944e-23
-2.02719e-23
2.33248e-23
-1.99522e-23
9.17752e-23
-2.11129e-23
5.9378e-23
-1.64842e-23
8.02551e-23
-1.574e-23
9.38565e-23
-1.37388e-23
6.67094e-23
-2.01091e-23
9.21974e-23
-2.64078e-23
5.21727e-23
-5.36789e-24
8.81159e-23
-3.08019e-23
7.31104e-23
-2.93729e-23
8.16512e-23
-3.37944e-23
1.26459e-22
-3.25547e-23
5.07002e-23
-4.09381e-23
1.82318e-23
-3.71261e-23
3.75668e-23
-6.08268e-23
6.94798e-23
-7.20274e-23
1.13984e-22
-8.14727e-23
1.21253e-22
-7.78083e-23
1.23007e-22
-9.09678e-23
1.63486e-22
-8.31456e-23
2.37765e-22
-9.43018e-23
2.80608e-22
-9.2422e-23
4.23575e-22
3.89062e-22
-2.8069e-24
4.22123e-23
-6.03591e-25
-3.49798e-23
5.48502e-23
-1.12756e-23
2.67012e-23
-2.51426e-23
2.1264e-23
-2.41224e-23
4.72642e-23
-5.76746e-24
-1.30972e-23
-7.60518e-24
4.88445e-23
-7.80954e-24
9.51425e-23
-2.34364e-23
3.10723e-23
-1.52966e-23
8.22838e-23
-1.75386e-23
5.87665e-23
-1.92487e-23
9.04775e-23
-1.99604e-23
5.93493e-23
-1.46147e-23
7.80171e-23
-1.65568e-23
9.55957e-23
-1.13431e-23
6.75815e-23
-2.00005e-23
1.33913e-22
-2.5931e-23
5.98988e-23
-5.83442e-24
6.74765e-23
-3.01714e-23
1.61009e-23
-2.75343e-23
7.35316e-23
-3.95971e-23
3.37444e-23
-3.70309e-23
4.00509e-23
-3.65568e-23
7.36119e-24
-3.36873e-23
2.21973e-23
-5.71486e-23
8.15667e-23
-6.95899e-23
1.21064e-22
-7.89959e-23
1.19684e-22
-7.53394e-23
1.52436e-22
-8.10036e-23
1.81359e-22
-7.81488e-23
2.26181e-22
-8.15258e-23
2.58643e-22
-8.91027e-23
3.32331e-22
3.64906e-22
1.22643e-24
2.06254e-23
-3.48253e-25
-3.58563e-23
-3.63135e-23
-1.65488e-23
5.99652e-24
-2.43663e-23
3.00421e-23
-3.01472e-23
5.56233e-23
9.34002e-25
8.71695e-23
-1.05466e-23
5.22693e-23
-1.2082e-23
1.31899e-22
-1.84641e-23
4.50132e-23
-1.54094e-23
8.53551e-23
-1.66706e-23
5.28876e-23
-2.03477e-23
9.39295e-23
-1.96049e-23
6.12592e-23
-1.64835e-23
4.06237e-23
-1.66622e-23
5.77789e-23
-6.6163e-24
6.09369e-23
-2.55979e-23
1.15536e-22
-2.27943e-23
5.23249e-23
-1.0612e-23
7.90451e-23
-2.33067e-23
3.31935e-23
-3.28941e-23
5.92167e-24
-3.5624e-23
2.89923e-23
-3.99471e-23
3.78781e-23
-3.50054e-23
7.07829e-23
-2.67396e-23
9.66098e-23
-5.68008e-23
9.02268e-24
-6.6795e-23
1.22617e-22
-7.6064e-23
8.48589e-23
-7.1552e-23
1.4601e-22
-7.65441e-23
1.76847e-22
-7.20523e-23
2.16204e-22
-7.96228e-23
2.62934e-22
-8.03773e-23
3.26768e-22
3.44279e-22
-5.15638e-24
2.40543e-23
1.34013e-24
-3.31211e-23
-9.84643e-24
-1.38538e-23
6.83413e-23
-1.87221e-23
3.81673e-23
-2.99698e-23
5.37993e-23
-3.00969e-24
1.39123e-22
-6.12322e-24
4.32913e-23
-1.76521e-23
1.41282e-22
-1.68996e-23
1.31578e-22
-1.66424e-23
9.38238e-23
-1.30953e-23
4.62887e-23
-2.11591e-23
6.03879e-23
-1.88864e-23
1.02987e-22
-1.81433e-23
8.14825e-23
-1.45555e-23
5.84733e-23
-2.56124e-24
5.30173e-23
-2.72674e-23
9.51294e-24
-2.28114e-23
4.32881e-23
-1.3652e-23
2.83931e-23
-2.63283e-23
4.61653e-23
-3.11951e-23
9.68766e-23
-3.39756e-23
3.05546e-23
-3.66877e-23
3.22817e-23
-3.35184e-23
5.64573e-23
-3.16265e-23
9.07345e-23
-4.75826e-23
1.33914e-23
-6.74979e-23
1.27412e-22
-7.13254e-23
8.17945e-23
-6.89603e-23
1.43232e-22
-7.05731e-23
1.34078e-22
-6.80672e-23
2.11886e-22
-7.27101e-23
2.66302e-22
-7.39833e-23
2.89834e-22
-1.10863e-23
3.52293e-23
3.70832e-24
-2.51219e-23
2.14978e-24
-1.48528e-23
2.27376e-23
-2.11374e-23
9.51518e-24
-1.94317e-23
1.27412e-23
-8.17665e-24
7.89815e-23
1.63725e-24
9.25062e-23
-1.91651e-23
7.71038e-23
-1.93367e-23
9.61845e-23
-1.57376e-23
9.74925e-23
-1.70098e-23
5.20359e-23
-1.67926e-23
5.53324e-23
-2.40123e-23
1.1679e-22
-1.88374e-23
8.18243e-23
-1.37624e-23
1.02651e-22
-7.19091e-24
8.6366e-23
-2.3501e-23
5.58426e-23
-2.50768e-23
4.0239e-23
-1.15014e-23
6.1729e-23
-2.2688e-23
5.5708e-23
-3.60017e-23
6.89009e-23
-3.27054e-23
2.81097e-23
-3.35924e-23
3.63882e-23
-3.26507e-23
5.21071e-23
-3.61236e-23
8.99734e-23
-3.93795e-23
4.06444e-24
-6.97081e-23
5.41546e-23
-6.6341e-23
7.10504e-23
-6.61933e-23
1.33434e-22
-6.46636e-23
1.27047e-22
-6.05843e-23
1.60826e-22
-7.26281e-23
2.34733e-22
2.75313e-22
-1.26262e-23
1.1081e-23
2.64211e-24
-2.28828e-23
8.61637e-24
-1.31486e-23
4.34587e-23
-2.08458e-23
2.62377e-23
-1.93473e-23
1.78315e-23
-2.66263e-24
1.06346e-22
-4.84873e-24
4.6428e-23
-1.59286e-23
1.3963e-23
-2.12643e-23
6.54541e-23
-1.7229e-23
1.02198e-22
-1.75462e-23
5.8214e-23
-1.39249e-23
4.76344e-23
-2.89133e-23
5.24186e-23
-1.68535e-23
7.88589e-23
-1.55926e-23
6.11288e-23
-1.04469e-23
8.13577e-23
-2.1863e-23
5.42296e-23
-2.27954e-23
7.62901e-23
-1.00069e-23
8.29986e-23
-2.40808e-23
7.0285e-23
-3.71941e-23
4.43826e-23
-3.27627e-23
2.54476e-23
-3.09716e-23
3.78689e-23
-3.19288e-23
4.41392e-23
-3.94147e-23
8.62375e-23
-3.76299e-23
-4.73193e-24
-6.56873e-23
-1.69659e-23
-6.32255e-23
6.12578e-23
-6.44786e-23
1.11957e-22
-6.11625e-23
1.54989e-22
-5.24727e-23
1.4902e-22
-6.89645e-23
1.74234e-22
-1.31303e-23
-1.70475e-23
2.15267e-24
-2.04753e-23
4.32775e-23
-1.84883e-23
3.95012e-23
-1.91769e-23
-3.09766e-24
-1.07514e-23
1.39453e-23
-7.16229e-24
2.09052e-23
-6.35041e-24
4.2976e-23
-1.01981e-23
4.42783e-23
-2.02017e-23
-1.63883e-26
-2.22893e-23
3.01034e-23
-1.87247e-23
6.31352e-23
-1.39229e-23
4.40301e-23
-2.31513e-23
6.28073e-23
-1.84236e-23
8.08963e-23
-1.23504e-23
9.21031e-23
-1.22871e-23
7.9756e-23
-2.15895e-23
1.00952e-22
-2.01821e-23
7.60432e-23
-1.03898e-23
6.99219e-23
-2.58059e-23
3.78552e-23
-3.73593e-23
5.22191e-23
-3.20636e-23
3.54039e-23
-2.95128e-23
3.7705e-23
-3.08978e-23
3.8864e-23
-4.29935e-23
8.83933e-23
-4.02723e-23
6.26747e-23
-5.72708e-23
2.98759e-23
-6.18566e-23
7.08957e-23
-5.84481e-23
1.07205e-22
-6.22366e-23
1.1536e-22
-5.04101e-23
1.3743e-22
1.43968e-22
-1.18738e-23
-7.82052e-24
2.81059e-24
-2.07011e-23
3.91678e-23
-1.62473e-23
3.78802e-23
-1.5386e-23
9.19172e-23
-1.26518e-23
6.11232e-23
-7.8791e-24
6.05128e-23
-7.28321e-24
1.8759e-23
-1.10833e-23
-2.10709e-24
-1.73261e-23
-3.52569e-23
-1.93634e-23
5.50181e-23
-1.78974e-23
1.03175e-22
-1.37829e-23
4.08864e-23
-1.88817e-23
6.49751e-23
-1.63134e-23
7.48449e-23
-1.46457e-23
9.21932e-23
-9.42363e-24
1.14498e-22
-2.31387e-23
7.33993e-23
-2.05527e-23
7.0036e-23
-1.31619e-23
6.18631e-23
-2.46565e-23
5.01168e-23
-3.75085e-23
2.97232e-23
-3.14672e-23
5.33381e-23
-2.8295e-23
4.03464e-23
-2.926e-23
3.61365e-23
-4.23194e-23
5.39072e-23
-4.38802e-23
5.46255e-23
-5.3528e-23
3.89692e-23
-5.91777e-23
4.30273e-23
-5.65811e-23
9.99656e-23
-6.07787e-23
7.93908e-23
-4.77794e-23
9.67334e-23
1.47818e-22
-1.13509e-23
-7.11044e-24
8.0303e-24
-2.05027e-23
4.24774e-23
-1.32456e-23
3.39607e-23
-1.51011e-23
5.62919e-23
-1.29168e-23
6.3921e-23
-1.0486e-23
8.89274e-23
-8.37496e-24
4.86906e-23
-1.7468e-23
5.54632e-24
-1.60026e-23
-2.74612e-23
-1.36765e-23
6.47453e-23
-2.23222e-23
1.18373e-22
-9.29493e-24
1.13703e-22
-1.9045e-23
7.9413e-23
-1.78728e-23
7.47073e-23
-8.3894e-24
8.35412e-23
-1.27024e-23
7.64228e-23
-2.22985e-23
8.5943e-23
-1.9881e-23
7.75566e-23
-1.23384e-23
9.50601e-23
-2.58326e-23
6.34779e-23
-3.53917e-23
4.15223e-23
-3.29434e-23
4.01437e-23
-2.83011e-23
3.9123e-23
-2.94026e-23
3.35506e-23
-4.01833e-23
5.5111e-23
-4.43814e-23
1.55637e-23
-5.38869e-23
4.63142e-23
-5.5168e-23
8.2554e-23
-5.59558e-23
9.34741e-23
-6.0053e-23
4.30834e-23
-4.25352e-23
1.236e-22
1.19053e-22
-1.38918e-23
-2.39704e-23
1.13318e-23
-1.48063e-23
1.10753e-22
-1.13169e-23
2.77201e-23
-1.54883e-23
7.23548e-23
-1.39071e-23
2.92464e-23
-7.28813e-24
7.81278e-23
-9.66047e-24
4.74464e-23
-1.53481e-23
1.65017e-23
-1.1661e-23
4.43687e-24
-8.63871e-24
7.32857e-23
-2.38437e-23
5.43313e-23
-1.32501e-23
1.39921e-22
-1.93628e-23
8.9445e-23
-1.7287e-23
7.24548e-23
-1.09472e-23
6.83737e-23
-9.63209e-24
7.19656e-23
-2.27929e-23
6.92529e-23
-1.64737e-23
7.45931e-23
-1.60411e-23
9.61863e-23
-2.74602e-23
7.71368e-23
-3.51682e-23
9.45444e-23
-3.30131e-23
2.14163e-23
-2.76415e-23
-6.12935e-25
-2.85129e-23
3.68273e-23
-4.0854e-23
2.07822e-23
-4.26159e-23
1.86427e-23
-5.18478e-23
5.81897e-23
-5.48557e-23
7.66621e-23
-5.76584e-23
9.38733e-23
-5.45262e-23
1.24914e-22
-3.96453e-23
1.55619e-22
1.30944e-22
-5.97757e-24
-5.31418e-23
1.298e-23
-1.56889e-23
1.49046e-22
-8.2167e-24
9.69723e-23
-1.71931e-23
1.33267e-24
-1.44282e-23
3.03981e-23
-9.07536e-24
7.23299e-23
-1.18528e-23
4.55138e-23
-1.98709e-23
-1.58436e-23
-3.18477e-24
2.88916e-23
-9.28813e-24
2.29006e-24
-1.78331e-23
6.7082e-23
-1.73524e-23
1.3976e-22
-2.00022e-23
9.37697e-23
-1.74299e-23
6.28968e-23
-7.99643e-24
1.3005e-22
-1.26706e-23
6.62992e-23
-2.28987e-23
8.51524e-23
-1.57662e-23
9.34542e-23
-1.78506e-23
9.55488e-23
-2.43419e-23
8.63807e-23
-3.98877e-23
3.24342e-23
-3.49381e-23
3.24878e-23
-2.40549e-23
3.28086e-23
-3.11381e-23
1.24468e-23
-3.93906e-23
4.39915e-23
-4.05888e-23
-1.82061e-23
-4.90962e-23
6.39899e-23
-5.49717e-23
7.96491e-23
-5.4521e-23
9.19715e-23
-5.42017e-23
9.64991e-23
-3.62602e-23
1.47349e-22
1.44634e-22
3.17571e-24
1.40992e-23
1.71716e-23
-1.55032e-23
7.14534e-23
-1.52789e-23
8.23244e-23
-1.5248e-23
4.85438e-23
-9.29013e-24
7.40755e-23
-9.97585e-24
3.7197e-23
-1.50554e-23
4.66676e-23
-1.54742e-23
3.09185e-23
-5.59153e-24
2.49407e-23
-6.6668e-24
-2.36265e-23
-1.2526e-23
7.06215e-23
-1.79568e-23
1.40441e-22
-2.32815e-23
8.9379e-23
-1.44122e-23
4.18561e-23
-1.05463e-23
1.15727e-22
-1.29184e-23
1.97183e-23
-1.9414e-23
8.96657e-23
-1.74644e-23
4.36268e-23
-1.75493e-23
1.27125e-22
-2.7378e-23
5.73524e-23
-3.94931e-23
6.08608e-23
-3.49994e-23
4.11575e-23
-2.3621e-23
6.92687e-23
-2.92968e-23
1.64908e-23
-4.24487e-23
5.14816e-23
-3.66762e-23
5.44359e-23
-4.72067e-23
7.52722e-23
-5.59187e-23
4.51977e-23
-5.12672e-23
1.30197e-22
-5.14681e-23
1.04401e-22
-3.39173e-23
1.6345e-22
1.09153e-22
8.01051e-25
8.21685e-23
1.65287e-23
-1.15601e-23
8.97537e-23
-1.9041e-23
7.94362e-23
-1.10349e-23
4.63044e-23
-1.43043e-23
8.77138e-24
-1.11334e-23
5.3513e-23
-1.54371e-23
7.183e-23
-1.44983e-23
-1.25624e-24
-1.00781e-23
2.54612e-23
-1.12457e-24
1.11393e-23
-9.84185e-24
4.40605e-23
-2.43131e-23
5.83124e-23
-2.08574e-23
1.1387e-22
-1.29511e-23
3.11358e-23
-1.51589e-23
6.7108e-23
-1.04639e-23
1.29251e-23
-2.00754e-23
9.57254e-23
-1.40855e-23
3.92038e-23
-1.88155e-23
1.07059e-22
-2.58098e-23
5.96278e-23
-4.05063e-23
-1.30664e-24
-3.32785e-23
4.52215e-23
-2.5801e-23
7.33713e-23
-2.77019e-23
1.9353e-23
-4.12213e-23
1.26141e-23
-3.61761e-23
4.39431e-23
-4.72748e-23
8.22676e-23
-5.18912e-23
5.36411e-23
-5.1173e-23
1.6639e-22
-4.97191e-23
1.48727e-22
-3.49383e-23
2.01077e-22
1.57129e-22
3.63408e-24
2.74295e-23
1.65912e-23
-1.22062e-23
5.73514e-23
-1.98679e-23
4.96435e-23
-1.30431e-23
5.99072e-23
-1.03267e-23
5.56678e-23
-1.40517e-23
1.00626e-22
-1.72225e-23
7.35512e-23
-1.39741e-23
4.70859e-24
-1.13446e-23
3.29086e-23
1.27495e-24
1.57735e-25
-1.08313e-23
1.59815e-23
-2.00697e-23
6.17374e-23
-2.34277e-23
7.15762e-23
-1.24259e-23
4.32802e-23
-1.60539e-23
3.91414e-23
-6.79867e-24
4.03194e-23
-2.22761e-23
1.17226e-22
-1.13269e-23
6.31103e-23
-1.78619e-23
6.59616e-23
-2.96884e-23
2.78125e-23
-3.72457e-23
1.09436e-23
-3.23233e-23
4.94921e-23
-2.80161e-23
8.18378e-23
-2.8233e-23
1.12537e-23
-3.84796e-23
1.00053e-23
-3.48276e-23
7.23136e-23
-4.74155e-23
8.81188e-23
-4.73578e-23
9.6412e-23
-4.97286e-23
1.68912e-22
-4.83441e-23
1.5556e-22
-3.54054e-23
2.28191e-22
2.43983e-22
6.24662e-24
1.37181e-22
1.95502e-23
-1.31311e-23
2.49183e-23
-1.74506e-23
8.35827e-23
-1.48971e-23
5.90159e-23
-7.35583e-24
6.60143e-23
-1.6152e-23
6.74536e-23
-1.79117e-23
1.57584e-22
-1.5566e-23
8.22808e-24
-9.88887e-24
-7.62514e-24
2.1389e-25
6.45493e-23
-7.97612e-24
5.13309e-23
-1.97452e-23
-1.84664e-23
-2.46184e-23
7.02854e-23
-1.53076e-23
2.65663e-23
-1.53478e-23
1.17051e-22
-3.95557e-24
2.07854e-23
-2.14968e-23
1.03158e-22
-1.42434e-23
9.31386e-23
-1.67391e-23
1.025e-22
-3.20932e-23
3.53844e-23
-3.44371e-23
1.43826e-23
-3.15127e-23
5.38358e-23
-2.94937e-23
8.87279e-23
-2.84749e-23
9.17225e-23
-3.54058e-23
8.61176e-23
-3.45912e-23
5.69698e-23
-4.50211e-23
9.81611e-23
-4.52681e-23
1.06806e-22
-4.80638e-23
1.76549e-22
-4.51116e-23
1.62062e-22
-3.28901e-23
2.15928e-22
2.40445e-22
9.50331e-26
8.78727e-23
1.57817e-23
-9.56572e-24
6.23243e-23
-2.08681e-23
4.92677e-23
-1.23383e-23
7.19528e-23
-7.6088e-24
1.08897e-22
-1.38531e-23
2.64323e-23
-2.22529e-23
1.20532e-22
-1.90198e-23
4.32394e-23
-6.49177e-24
2.77611e-23
1.19278e-24
5.46975e-23
-8.79584e-24
5.93259e-23
-1.68086e-23
2.80268e-23
-2.51212e-23
3.24471e-23
-1.0813e-23
-4.8378e-25
-1.73969e-23
1.11416e-22
-2.36725e-25
8.18285e-23
-1.9792e-23
8.79212e-23
-1.7967e-23
9.34752e-23
-1.75629e-23
9.26811e-23
-3.26582e-23
8.50746e-24
-3.00018e-23
1.08986e-23
-3.05302e-23
2.18661e-23
-2.77301e-23
8.87722e-23
-2.77045e-23
5.29987e-23
-3.76149e-23
8.0792e-23
-3.23144e-23
1.2769e-22
-4.29138e-23
1.01111e-22
-4.43958e-23
7.81289e-23
-4.74295e-23
1.45159e-22
-4.3423e-23
1.65055e-22
-3.08497e-23
2.04584e-22
2.10066e-22
3.30601e-24
1.20679e-22
1.77628e-23
-1.1855e-23
4.1818e-23
-1.86837e-23
5.37018e-23
-1.19353e-23
3.40816e-23
-8.89093e-24
2.29554e-23
-1.03214e-23
5.57517e-23
-2.6773e-23
9.04812e-23
-1.9799e-23
4.21131e-23
-4.90641e-24
6.58315e-23
1.73727e-24
4.74752e-23
-1.17486e-23
7.14611e-23
-1.63582e-23
2.79001e-23
-2.56272e-23
-2.60472e-24
-3.89024e-24
9.72749e-23
-1.86832e-23
9.82012e-23
-6.71078e-25
1.39613e-22
-1.7906e-23
1.02267e-22
-1.83988e-23
9.19389e-23
-1.83139e-23
1.11136e-22
-3.35308e-23
-1.77828e-23
-2.87273e-23
9.2056e-23
-2.75784e-23
2.39435e-23
-2.93452e-23
4.57464e-23
-2.52526e-23
5.13413e-23
-3.62358e-23
5.13582e-23
-3.34603e-23
1.1932e-22
-4.2796e-23
1.04359e-22
-4.21124e-23
7.72969e-23
-4.48063e-23
1.11877e-22
-4.15066e-23
1.67844e-22
-3.07146e-23
2.33501e-22
2.4968e-22
1.39653e-24
1.52638e-22
1.7842e-23
-1.16612e-23
1.24945e-23
-1.7438e-23
9.94097e-23
-1.54387e-23
2.16405e-23
-7.74391e-24
5.82331e-23
-1.12267e-23
2.05265e-23
-2.56506e-23
6.49624e-23
-1.98762e-23
1.18507e-22
-4.28103e-24
1.34414e-22
3.69925e-25
1.23781e-22
-8.6202e-24
1.10021e-22
-1.84523e-23
7.23576e-23
-1.79204e-23
8.19588e-23
-5.49813e-24
7.42701e-23
-1.85184e-23
1.01103e-22
-2.95646e-24
1.08586e-22
-1.64129e-23
7.31506e-23
-1.95268e-23
9.34351e-23
-2.13648e-23
1.44469e-22
-3.13994e-23
-1.17449e-23
-3.03439e-23
5.86271e-23
-2.55119e-23
2.2913e-23
-2.87202e-23
1.64062e-23
-2.42592e-23
4.19835e-23
-3.31828e-23
6.52153e-23
-3.4391e-23
9.35267e-23
-4.33271e-23
1.17953e-22
-4.17747e-23
8.01143e-23
-4.02053e-23
1.11345e-22
-3.79065e-23
1.98325e-22
-3.05916e-23
2.6444e-22
3.09826e-22
-7.33667e-25
1.40621e-22
1.71521e-23
-1.35915e-23
6.57825e-23
-1.68655e-23
1.49702e-22
-1.85091e-23
1.14067e-23
-4.64834e-24
1.42666e-22
-1.27572e-23
7.02429e-23