/*--------------------------------*- C++ -*----------------------------------*\
  =========                 |
  \\      /  F ield         | OpenFOAM: The Open Source CFD Toolbox
   \\    /   O peration     | Website:  https://openfoam.org
    \\  /    A nd           | Version:  7
     \\/     M anipulation  |
\*---------------------------------------------------------------------------*/
FoamFile
{
    version     2.0;
    format      ascii;
    class       volScalarField;
    location    "256000";
    object      k;
}
// * * * * * * * * * * * * * * * * * * * * * * * * * * * * * * * * * * * * * //

dimensions      [0 2 -2 0 0 0 0];

internalField   nonuniform List<scalar> 
4844
(
7.48296e-07
7.50835e-07
7.53606e-07
7.58394e-07
7.60929e-07
7.63696e-07
7.66687e-07
7.69897e-07
7.73316e-07
7.76938e-07
7.80754e-07
7.68486e-07
7.71016e-07
7.73777e-07
7.76761e-07
7.79961e-07
7.8337e-07
7.86981e-07
7.90783e-07
7.94769e-07
7.98928e-07
8.03251e-07
7.78565e-07
7.81088e-07
7.83841e-07
7.86815e-07
7.90005e-07
7.93402e-07
7.96998e-07
8.00785e-07
8.04753e-07
8.08893e-07
8.13194e-07
8.17646e-07
8.22239e-07
8.26961e-07
8.31802e-07
8.36758e-07
7.88625e-07
7.91139e-07
7.93881e-07
7.96845e-07
8.00022e-07
8.03404e-07
8.06985e-07
8.10754e-07
8.14702e-07
8.18819e-07
8.23096e-07
8.27522e-07
8.32087e-07
8.36778e-07
8.41585e-07
8.46506e-07
7.98658e-07
8.01162e-07
8.03893e-07
8.06843e-07
8.10006e-07
8.13372e-07
8.16934e-07
8.20683e-07
8.2461e-07
8.28703e-07
8.32954e-07
8.37352e-07
8.41885e-07
8.46543e-07
8.51315e-07
8.56197e-07
8.11152e-07
8.13869e-07
8.16805e-07
8.19951e-07
8.233e-07
8.26842e-07
8.30569e-07
8.34472e-07
8.38539e-07
8.42762e-07
8.47129e-07
8.51629e-07
8.56252e-07
8.60987e-07
8.65828e-07
8.21102e-07
8.23805e-07
8.26725e-07
8.29853e-07
8.33182e-07
8.36703e-07
8.40406e-07
8.44283e-07
8.48323e-07
8.52515e-07
8.5685e-07
8.61316e-07
8.65901e-07
8.70596e-07
8.75396e-07
8.31008e-07
8.33695e-07
8.36597e-07
8.39706e-07
8.43014e-07
8.46511e-07
8.50189e-07
8.54039e-07
8.58049e-07
8.6221e-07
8.6651e-07
8.7094e-07
8.75487e-07
8.8014e-07
8.84896e-07
8.38414e-07
8.40864e-07
8.43535e-07
8.46418e-07
8.49506e-07
8.52791e-07
8.56264e-07
8.59915e-07
8.63736e-07
8.67715e-07
8.71842e-07
8.76107e-07
8.80498e-07
8.85004e-07
8.89615e-07
8.94325e-07
8.48233e-07
8.50667e-07
8.53319e-07
8.56182e-07
8.59248e-07
8.62509e-07
8.65956e-07
8.69579e-07
8.73369e-07
8.77315e-07
8.81408e-07
8.85635e-07
8.89986e-07
8.94451e-07
8.99017e-07
9.03681e-07
8.57995e-07
8.60412e-07
8.63045e-07
8.65886e-07
8.68929e-07
8.72165e-07
8.75584e-07
8.79177e-07
8.82935e-07
8.86848e-07
8.90904e-07
8.95092e-07
8.99402e-07
9.03823e-07
9.08344e-07
9.12959e-07
8.67696e-07
8.70094e-07
8.72707e-07
8.75526e-07
8.78544e-07
8.81753e-07
8.85144e-07
8.88707e-07
8.92431e-07
8.96308e-07
9.00326e-07
9.04475e-07
9.08743e-07
9.13119e-07
9.17592e-07
9.22158e-07
8.75172e-07
8.77332e-07
8.79711e-07
8.82302e-07
8.85098e-07
8.88091e-07
8.91272e-07
8.94633e-07
8.98163e-07
9.01854e-07
9.05694e-07
9.09673e-07
9.1378e-07
9.18005e-07
9.22335e-07
9.2676e-07
9.31275e-07
8.84757e-07
8.86899e-07
8.89258e-07
8.91827e-07
8.94598e-07
8.97564e-07
9.00717e-07
9.04047e-07
9.07544e-07
9.112e-07
9.15002e-07
9.18941e-07
9.23006e-07
9.27185e-07
9.31468e-07
9.35844e-07
9.40307e-07
8.92368e-07
8.9427e-07
8.96394e-07
8.98732e-07
9.01277e-07
9.04024e-07
9.06963e-07
9.10086e-07
9.13384e-07
9.16847e-07
9.20466e-07
9.24229e-07
9.28127e-07
9.32148e-07
9.36282e-07
9.40517e-07
9.44842e-07
9.49252e-07
9.01824e-07
9.03709e-07
9.05813e-07
9.08129e-07
9.10651e-07
9.13372e-07
9.16282e-07
9.19375e-07
9.2264e-07
9.26068e-07
9.2965e-07
9.33373e-07
9.37229e-07
9.41206e-07
9.45293e-07
9.49478e-07
9.53752e-07
9.58109e-07
9.11203e-07
9.1307e-07
9.15154e-07
9.17448e-07
9.19946e-07
9.22639e-07
9.25521e-07
9.28582e-07
9.31813e-07
9.35206e-07
9.38749e-07
9.42432e-07
9.46245e-07
9.50176e-07
9.54215e-07
9.58351e-07
9.62572e-07
9.66874e-07
9.20502e-07
9.22351e-07
9.24414e-07
9.26685e-07
9.29157e-07
9.31823e-07
9.34675e-07
9.37704e-07
9.40901e-07
9.44257e-07
9.47761e-07
9.51402e-07
9.55171e-07
9.59057e-07
9.63047e-07
9.67131e-07
9.713e-07
9.75546e-07
9.29718e-07
9.31548e-07
9.3359e-07
9.35838e-07
9.38284e-07
9.40922e-07
9.43743e-07
9.46739e-07
9.49901e-07
9.53219e-07
9.56683e-07
9.60283e-07
9.64007e-07
9.67845e-07
9.71786e-07
9.75819e-07
9.79934e-07
9.84124e-07
9.38849e-07
9.4066e-07
9.4268e-07
9.44904e-07
9.47323e-07
9.49932e-07
9.52722e-07
9.55685e-07
9.58811e-07
9.62091e-07
9.65514e-07
9.69071e-07
9.7275e-07
9.76541e-07
9.80432e-07
9.84412e-07
9.88472e-07
9.92606e-07
9.47892e-07
9.49684e-07
9.51682e-07
9.5388e-07
9.56273e-07
9.58852e-07
9.61611e-07
9.64539e-07
9.67629e-07
9.7087e-07
9.74252e-07
9.77765e-07
9.81399e-07
9.85141e-07
9.88981e-07
9.92908e-07
9.96913e-07
1.00099e-06
9.56846e-07
9.58617e-07
9.60592e-07
9.62766e-07
9.65131e-07
9.6768e-07
9.70406e-07
9.733e-07
9.76353e-07
9.79554e-07
9.82895e-07
9.86364e-07
9.8995e-07
9.93644e-07
9.97433e-07
1.00131e-06
1.00526e-06
1.00927e-06
9.65707e-07
9.67457e-07
9.6941e-07
9.71558e-07
9.73895e-07
9.76414e-07
9.79107e-07
9.81966e-07
9.84981e-07
9.88143e-07
9.91441e-07
9.94865e-07
9.98404e-07
1.00205e-06
1.00579e-06
1.00961e-06
1.0135e-06
1.01746e-06
9.74474e-07
9.76204e-07
9.78132e-07
9.80255e-07
9.82563e-07
9.85052e-07
9.87712e-07
9.90535e-07
9.93511e-07
9.96633e-07
9.99888e-07
1.00327e-06
1.00676e-06
1.01035e-06
1.01404e-06
1.0178e-06
1.02164e-06
1.02554e-06
9.83146e-07
9.84854e-07
9.86759e-07
9.88854e-07
9.91134e-07
9.93591e-07
9.96218e-07
9.99004e-07
1.00194e-06
1.00502e-06
1.00824e-06
1.01157e-06
1.01501e-06
1.01856e-06
1.02219e-06
1.0259e-06
1.02968e-06
1.03352e-06
9.91719e-07
9.93406e-07
9.95287e-07
9.97356e-07
9.99607e-07
1.00203e-06
1.00462e-06
1.00737e-06
1.01027e-06
1.01331e-06
1.01648e-06
1.01977e-06
1.02316e-06
1.02666e-06
1.03023e-06
1.03389e-06
1.03761e-06
1.04139e-06
1.00019e-06
1.00186e-06
1.00371e-06
1.00576e-06
1.00798e-06
1.01037e-06
1.01293e-06
1.01564e-06
1.0185e-06
1.0215e-06
1.02462e-06
1.02786e-06
1.03121e-06
1.03465e-06
1.03818e-06
1.04178e-06
1.04544e-06
1.04916e-06
1.00857e-06
1.01021e-06
1.01204e-06
1.01406e-06
1.01625e-06
1.01861e-06
1.02113e-06
1.02381e-06
1.02663e-06
1.02958e-06
1.03266e-06
1.03586e-06
1.03915e-06
1.04254e-06
1.04601e-06
1.04956e-06
1.05316e-06
1.05682e-06
1.01684e-06
1.01846e-06
1.02026e-06
1.02225e-06
1.02441e-06
1.02674e-06
1.02923e-06
1.03187e-06
1.03465e-06
1.03756e-06
1.04059e-06
1.04374e-06
1.04699e-06
1.05033e-06
1.05374e-06
1.05723e-06
1.06078e-06
1.06438e-06
1.0236e-06
1.02501e-06
1.0266e-06
1.02838e-06
1.03034e-06
1.03247e-06
1.03477e-06
1.03722e-06
1.03982e-06
1.04256e-06
1.04543e-06
1.04842e-06
1.05152e-06
1.05472e-06
1.058e-06
1.06137e-06
1.06479e-06
1.06828e-06
1.07182e-06
1.03168e-06
1.03307e-06
1.03464e-06
1.0364e-06
1.03833e-06
1.04043e-06
1.04269e-06
1.04511e-06
1.04767e-06
1.05037e-06
1.05319e-06
1.05614e-06
1.05919e-06
1.06234e-06
1.06557e-06
1.06888e-06
1.07225e-06
1.07568e-06
1.07916e-06
1.03847e-06
1.03965e-06
1.04102e-06
1.04257e-06
1.0443e-06
1.04621e-06
1.04828e-06
1.0505e-06
1.05288e-06
1.05541e-06
1.05807e-06
1.06085e-06
1.06375e-06
1.06675e-06
1.06985e-06
1.07303e-06
1.07628e-06
1.0796e-06
1.08296e-06
1.08638e-06
1.04636e-06
1.04752e-06
1.04887e-06
1.0504e-06
1.0521e-06
1.05398e-06
1.05601e-06
1.05821e-06
1.06055e-06
1.06304e-06
1.06565e-06
1.06839e-06
1.07125e-06
1.0742e-06
1.07725e-06
1.08038e-06
1.08357e-06
1.08683e-06
1.09014e-06
1.0935e-06
1.05414e-06
1.05528e-06
1.05661e-06
1.05811e-06
1.05979e-06
1.06164e-06
1.06364e-06
1.0658e-06
1.06811e-06
1.07056e-06
1.07313e-06
1.07583e-06
1.07864e-06
1.08154e-06
1.08454e-06
1.08761e-06
1.09075e-06
1.09395e-06
1.0972e-06
1.1005e-06
1.0618e-06
1.06293e-06
1.06424e-06
1.06572e-06
1.06737e-06
1.06919e-06
1.07116e-06
1.07329e-06
1.07556e-06
1.07797e-06
1.0805e-06
1.08315e-06
1.08591e-06
1.08877e-06
1.09172e-06
1.09474e-06
1.09782e-06
1.10096e-06
1.10415e-06
1.10738e-06
1.06936e-06
1.07047e-06
1.07176e-06
1.07321e-06
1.07484e-06
1.07663e-06
1.07857e-06
1.08066e-06
1.08289e-06
1.08526e-06
1.08775e-06
1.09036e-06
1.09308e-06
1.09588e-06
1.09878e-06
1.10175e-06
1.10478e-06
1.10786e-06
1.11099e-06
1.11416e-06
1.0768e-06
1.0779e-06
1.07916e-06
1.0806e-06
1.08219e-06
1.08395e-06
1.08586e-06
1.08792e-06
1.09012e-06
1.09244e-06
1.09489e-06
1.09746e-06
1.10012e-06
1.10288e-06
1.10573e-06
1.10864e-06
1.11162e-06
1.11464e-06
1.11771e-06
1.12082e-06
1.08414e-06
1.08521e-06
1.08645e-06
1.08786e-06
1.08944e-06
1.09116e-06
1.09304e-06
1.09506e-06
1.09722e-06
1.09951e-06
1.10192e-06
1.10444e-06
1.10706e-06
1.10977e-06
1.11256e-06
1.11542e-06
1.11834e-06
1.12131e-06
1.12431e-06
1.12736e-06
1.09135e-06
1.09241e-06
1.09363e-06
1.09502e-06
1.09656e-06
1.09826e-06
1.10011e-06
1.10209e-06
1.10422e-06
1.10646e-06
1.10883e-06
1.1113e-06
1.11388e-06
1.11654e-06
1.11928e-06
1.12209e-06
1.12495e-06
1.12786e-06
1.1308e-06
1.13379e-06
1.09845e-06
1.09949e-06
1.10069e-06
1.10206e-06
1.10357e-06
1.10524e-06
1.10706e-06
1.10901e-06
1.11109e-06
1.1133e-06
1.11562e-06
1.11805e-06
1.12058e-06
1.12319e-06
1.12588e-06
1.12863e-06
1.13144e-06
1.13429e-06
1.13717e-06
1.14009e-06
1.10544e-06
1.10646e-06
1.10764e-06
1.10898e-06
1.11047e-06
1.11211e-06
1.11389e-06
1.1158e-06
1.11785e-06
1.12002e-06
1.1223e-06
1.12468e-06
1.12716e-06
1.12972e-06
1.13236e-06
1.13506e-06
1.13781e-06
1.1406e-06
1.14343e-06
1.14628e-06
1.11231e-06
1.11331e-06
1.11447e-06
1.11578e-06
1.11724e-06
1.11885e-06
1.1206e-06
1.12248e-06
1.12449e-06
1.12662e-06
1.12886e-06
1.13119e-06
1.13363e-06
1.13614e-06
1.13872e-06
1.14137e-06
1.14406e-06
1.1468e-06
1.14956e-06
1.15235e-06
1.11906e-06
1.12004e-06
1.12118e-06
1.12247e-06
1.1239e-06
1.12548e-06
1.1272e-06
1.12904e-06
1.13101e-06
1.1331e-06
1.13529e-06
1.13759e-06
1.13997e-06
1.14243e-06
1.14497e-06
1.14756e-06
1.15019e-06
1.15287e-06
1.15557e-06
1.1583e-06
1.12569e-06
1.12665e-06
1.12777e-06
1.12903e-06
1.13044e-06
1.13199e-06
1.13367e-06
1.13548e-06
1.13741e-06
1.13946e-06
1.14161e-06
1.14386e-06
1.14619e-06
1.14861e-06
1.15109e-06
1.15363e-06
1.15621e-06
1.15882e-06
1.16146e-06
1.16413e-06
1.1322e-06
1.13314e-06
1.13424e-06
1.13548e-06
1.13686e-06
1.13837e-06
1.14002e-06
1.1418e-06
1.14369e-06
1.1457e-06
1.14781e-06
1.15001e-06
1.1523e-06
1.15466e-06
1.15709e-06
1.15957e-06
1.16209e-06
1.16465e-06
1.16723e-06
1.16983e-06
1.13859e-06
1.13951e-06
1.14058e-06
1.1418e-06
1.14315e-06
1.14464e-06
1.14626e-06
1.14799e-06
1.14985e-06
1.15181e-06
1.15388e-06
1.15604e-06
1.15828e-06
1.16059e-06
1.16297e-06
1.16539e-06
1.16786e-06
1.17036e-06
1.17288e-06
1.17541e-06
1.14485e-06
1.14576e-06
1.14681e-06
1.148e-06
1.14932e-06
1.15078e-06
1.15236e-06
1.15407e-06
1.15588e-06
1.1578e-06
1.15983e-06
1.16194e-06
1.16413e-06
1.16639e-06
1.16872e-06
1.17109e-06
1.1735e-06
1.17594e-06
1.1784e-06
1.18087e-06
1.151e-06
1.15188e-06
1.15291e-06
1.15408e-06
1.15537e-06
1.1568e-06
1.15835e-06
1.16001e-06
1.16179e-06
1.16367e-06
1.16565e-06
1.16772e-06
1.16986e-06
1.17207e-06
1.17434e-06
1.17666e-06
1.17902e-06
1.1814e-06
1.18379e-06
1.1862e-06
1.15701e-06
1.15788e-06
1.15889e-06
1.16003e-06
1.1613e-06
1.16269e-06
1.16421e-06
1.16584e-06
1.16757e-06
1.16941e-06
1.17135e-06
1.17337e-06
1.17546e-06
1.17763e-06
1.17984e-06
1.18211e-06
1.18441e-06
1.18673e-06
1.18906e-06
1.1914e-06
1.1629e-06
1.16375e-06
1.16474e-06
1.16585e-06
1.16709e-06
1.16846e-06
1.16994e-06
1.17153e-06
1.17323e-06
1.17503e-06
1.17692e-06
1.17889e-06
1.18094e-06
1.18305e-06
1.18522e-06
1.18743e-06
1.18967e-06
1.19193e-06
1.1942e-06
1.19648e-06
1.16867e-06
1.1695e-06
1.17046e-06
1.17155e-06
1.17276e-06
1.17409e-06
1.17554e-06
1.1771e-06
1.17876e-06
1.18051e-06
1.18236e-06
1.18429e-06
1.18629e-06
1.18835e-06
1.19046e-06
1.19261e-06
1.1948e-06
1.197e-06
1.19921e-06
1.20142e-06
1.1743e-06
1.17511e-06
1.17605e-06
1.17711e-06
1.1783e-06
1.1796e-06
1.18101e-06
1.18253e-06
1.18416e-06
1.18587e-06
1.18767e-06
1.18955e-06
1.1915e-06
1.19351e-06
1.19557e-06
1.19767e-06
1.1998e-06
1.20194e-06
1.20409e-06
1.20624e-06
1.17981e-06
1.1806e-06
1.18151e-06
1.18255e-06
1.18371e-06
1.18498e-06
1.18636e-06
1.18784e-06
1.18942e-06
1.19109e-06
1.19285e-06
1.19469e-06
1.19659e-06
1.19855e-06
1.20055e-06
1.2026e-06
1.20467e-06
1.20675e-06
1.20883e-06
1.21092e-06
1.18518e-06
1.18595e-06
1.18684e-06
1.18786e-06
1.18898e-06
1.19022e-06
1.19157e-06
1.19301e-06
1.19456e-06
1.19619e-06
1.1979e-06
1.19969e-06
1.20154e-06
1.20345e-06
1.2054e-06
1.20739e-06
1.2094e-06
1.21142e-06
1.21345e-06
1.21547e-06
1.19413e-06
1.19533e-06
1.19664e-06
1.19805e-06
1.19956e-06
1.20114e-06
1.20281e-06
1.20455e-06
1.20636e-06
1.20821e-06
1.21011e-06
1.21204e-06
1.214e-06
1.21596e-06
1.21793e-06
1.21988e-06
1.20442e-06
1.20597e-06
1.20759e-06
1.20928e-06
1.21104e-06
1.21284e-06
1.21469e-06
1.21656e-06
1.21846e-06
1.22037e-06
1.22227e-06
1.22415e-06
8.75397e-07
8.70597e-07
8.84897e-07
8.80141e-07
8.94326e-07
8.89616e-07
9.03681e-07
8.99018e-07
8.94451e-07
9.1296e-07
9.08345e-07
9.03824e-07
9.22159e-07
9.17593e-07
9.1312e-07
9.08743e-07
9.31275e-07
9.26761e-07
9.22335e-07
9.18005e-07
9.40308e-07
9.35845e-07
9.31469e-07
9.27186e-07
9.49253e-07
9.44843e-07
9.40517e-07
9.36283e-07
9.32149e-07
9.58109e-07
9.53753e-07
9.49479e-07
9.45293e-07
9.41207e-07
9.66874e-07
9.62573e-07
9.58351e-07
9.54216e-07
9.50177e-07
9.75547e-07
9.713e-07
9.67132e-07
9.63047e-07
9.59057e-07
9.84125e-07
9.79934e-07
9.7582e-07
9.71787e-07
9.67846e-07
9.92606e-07
9.88473e-07
9.84413e-07
9.80432e-07
9.76541e-07
1.00099e-06
9.96914e-07
9.92909e-07
9.88981e-07
9.85141e-07
9.81399e-07
1.00927e-06
1.00526e-06
1.00131e-06
9.97433e-07
9.93644e-07
9.89951e-07
1.01746e-06
1.0135e-06
1.00961e-06
1.00579e-06
1.00205e-06
9.98405e-07
9.94866e-07
1.02554e-06
1.02164e-06
1.0178e-06
1.01404e-06
1.01035e-06
1.00676e-06
1.00327e-06
9.99888e-07
1.03352e-06
1.02968e-06
1.0259e-06
1.02219e-06
1.01856e-06
1.01501e-06
1.01157e-06
1.00824e-06
1.00502e-06
1.04139e-06
1.03761e-06
1.03389e-06
1.03023e-06
1.02666e-06
1.02316e-06
1.01977e-06
1.01648e-06
1.01331e-06
1.01027e-06
1.04916e-06
1.04544e-06
1.04178e-06
1.03818e-06
1.03465e-06
1.03121e-06
1.02786e-06
1.02462e-06
1.0215e-06
1.0185e-06
1.05682e-06
1.05316e-06
1.04956e-06
1.04601e-06
1.04254e-06
1.03915e-06
1.03586e-06
1.03266e-06
1.02958e-06
1.02663e-06
1.06438e-06
1.06078e-06
1.05723e-06
1.05374e-06
1.05033e-06
1.04699e-06
1.04374e-06
1.04059e-06
1.03756e-06
1.03465e-06
1.07182e-06
1.06828e-06
1.0648e-06
1.06137e-06
1.058e-06
1.05472e-06
1.05152e-06
1.04842e-06
1.04543e-06
1.04256e-06
1.07916e-06
1.07568e-06
1.07225e-06
1.06888e-06
1.06557e-06
1.06234e-06
1.05919e-06
1.05614e-06
1.05319e-06
1.05037e-06
1.08638e-06
1.08297e-06
1.0796e-06
1.07628e-06
1.07303e-06
1.06985e-06
1.06675e-06
1.06375e-06
1.06085e-06
1.05807e-06
1.0935e-06
1.09014e-06
1.08683e-06
1.08357e-06
1.08038e-06
1.07725e-06
1.0742e-06
1.07125e-06
1.0684e-06
1.06566e-06
1.1005e-06
1.0972e-06
1.09395e-06
1.09076e-06
1.08761e-06
1.08454e-06
1.08154e-06
1.07864e-06
1.07583e-06
1.07313e-06
1.10739e-06
1.10415e-06
1.10096e-06
1.09782e-06
1.09474e-06
1.09172e-06
1.08877e-06
1.08591e-06
1.08315e-06
1.0805e-06
1.11416e-06
1.11099e-06
1.10786e-06
1.10478e-06
1.10175e-06
1.09878e-06
1.09589e-06
1.09308e-06
1.09036e-06
1.08775e-06
1.12082e-06
1.11771e-06
1.11464e-06
1.11162e-06
1.10864e-06
1.10573e-06
1.10289e-06
1.10012e-06
1.09746e-06
1.09489e-06
1.12736e-06
1.12432e-06
1.12131e-06
1.11834e-06
1.11542e-06
1.11256e-06
1.10977e-06
1.10706e-06
1.10444e-06
1.10192e-06
8.75397e-07
8.84897e-07
8.94326e-07
9.03681e-07
9.1296e-07
9.22159e-07
9.31275e-07
9.40308e-07
9.49253e-07
9.58109e-07
9.66874e-07
9.75547e-07
9.84125e-07
9.92606e-07
1.00099e-06
1.00927e-06
1.01746e-06
1.02554e-06
1.03352e-06
1.04139e-06
1.04916e-06
1.05682e-06
1.06438e-06
1.07182e-06
1.07916e-06
1.08638e-06
1.0935e-06
1.1005e-06
1.10739e-06
1.11416e-06
1.12082e-06
1.12736e-06
8.70597e-07
8.80141e-07
8.89615e-07
8.99018e-07
9.08345e-07
9.17593e-07
9.26761e-07
9.35844e-07
9.44843e-07
9.53753e-07
9.62573e-07
9.713e-07
9.79934e-07
9.88473e-07
9.96914e-07
1.00526e-06
1.0135e-06
1.02164e-06
1.02968e-06
1.03761e-06
1.04544e-06
1.05316e-06
1.06078e-06
1.06828e-06
1.07568e-06
1.08297e-06
1.09014e-06
1.0972e-06
1.10415e-06
1.11099e-06
1.11771e-06
1.12432e-06
1.1308e-06
8.65902e-07
8.75487e-07
8.85005e-07
8.94451e-07
9.03824e-07
9.1312e-07
9.22335e-07
9.31469e-07
9.40517e-07
9.49479e-07
9.58351e-07
9.67132e-07
9.7582e-07
9.84413e-07
9.92909e-07
1.00131e-06
1.00961e-06
1.0178e-06
1.0259e-06
1.03389e-06
1.04178e-06
1.04956e-06
1.05723e-06
1.06479e-06
1.07225e-06
1.0796e-06
1.08683e-06
1.09395e-06
1.10096e-06
1.10786e-06
1.11464e-06
1.12131e-06
1.12786e-06
1.13429e-06
1.1406e-06
1.1468e-06
1.15287e-06
1.15882e-06
8.61316e-07
8.7094e-07
8.80498e-07
8.89987e-07
8.99403e-07
9.08743e-07
9.18005e-07
9.27186e-07
9.36282e-07
9.45293e-07
9.54215e-07
9.63047e-07
9.71787e-07
9.80432e-07
9.88981e-07
9.97433e-07
1.00579e-06
1.01404e-06
1.02219e-06
1.03023e-06
1.03818e-06
1.04601e-06
1.05374e-06
1.06137e-06
1.06888e-06
1.07628e-06
1.08357e-06
1.09076e-06
1.09782e-06
1.10478e-06
1.11162e-06
1.11834e-06
1.12495e-06
1.13144e-06
1.13781e-06
1.14406e-06
1.1502e-06
1.15621e-06
8.5685e-07
8.66511e-07
8.76107e-07
8.85635e-07
8.95093e-07
9.04475e-07
9.13781e-07
9.23006e-07
9.32149e-07
9.41206e-07
9.50177e-07
9.59057e-07
9.67846e-07
9.76541e-07
9.85141e-07
9.93644e-07
1.00205e-06
1.01035e-06
1.01856e-06
1.02666e-06
1.03465e-06
1.04254e-06
1.05033e-06
1.058e-06
1.06557e-06
1.07303e-06
1.08038e-06
1.08761e-06
1.09474e-06
1.10175e-06
1.10864e-06
1.11542e-06
1.12209e-06
1.12863e-06
1.13506e-06
1.14137e-06
1.14756e-06
1.15363e-06
8.52516e-07
8.6221e-07
8.71842e-07
8.81408e-07
8.90904e-07
9.00327e-07
9.09674e-07
9.18942e-07
9.28128e-07
9.3723e-07
9.46245e-07
9.55172e-07
9.64008e-07
9.72751e-07
9.81399e-07
9.89951e-07
9.98405e-07
1.00676e-06
1.01501e-06
1.02316e-06
1.03121e-06
1.03915e-06
1.04699e-06
1.05472e-06
1.06234e-06
1.06985e-06
1.07725e-06
1.08454e-06
1.09172e-06
1.09878e-06
1.10573e-06
1.11256e-06
1.11928e-06
1.12588e-06
1.13236e-06
1.13872e-06
1.14497e-06
1.15109e-06
1.15709e-06
8.48323e-07
8.58049e-07
8.67715e-07
8.77316e-07
8.86848e-07
8.96309e-07
9.05695e-07
9.15002e-07
9.2423e-07
9.33374e-07
9.42432e-07
9.51403e-07
9.60283e-07
9.69072e-07
9.77766e-07
9.86364e-07
9.94865e-07
1.00327e-06
1.01157e-06
1.01977e-06
1.02786e-06
1.03586e-06
1.04374e-06
1.05152e-06
1.05919e-06
1.06675e-06
1.0742e-06
1.08154e-06
1.08877e-06
1.09588e-06
1.10289e-06
1.10977e-06
1.11654e-06
1.12319e-06
1.12972e-06
1.13614e-06
1.14243e-06
1.14861e-06
1.15466e-06
8.44283e-07
8.54039e-07
8.63736e-07
8.73369e-07
8.82936e-07
8.92432e-07
9.01854e-07
9.112e-07
9.20466e-07
9.2965e-07
9.38749e-07
9.47761e-07
9.56684e-07
9.65515e-07
9.74253e-07
9.82895e-07
9.91441e-07
9.99888e-07
1.00824e-06
1.01648e-06
1.02462e-06
1.03266e-06
1.04059e-06
1.04842e-06
1.05614e-06
1.06375e-06
1.07125e-06
1.07864e-06
1.08591e-06
1.09308e-06
1.10012e-06
1.10706e-06
1.11388e-06
1.12058e-06
1.12716e-06
1.13363e-06
1.13997e-06
1.14619e-06
1.1523e-06
8.40406e-07
8.5019e-07
8.59916e-07
8.69579e-07
8.79178e-07
8.88707e-07
8.98164e-07
9.07545e-07
9.16847e-07
9.26069e-07
9.35206e-07
9.44257e-07
9.53219e-07
9.62091e-07
9.7087e-07
9.79555e-07
9.88143e-07
9.96633e-07
1.00502e-06
1.01331e-06
1.0215e-06
1.02958e-06
1.03756e-06
1.04543e-06
1.05319e-06
1.06085e-06
1.0684e-06
1.07583e-06
1.08315e-06
1.09036e-06
1.09746e-06
1.10444e-06
1.1113e-06
1.11805e-06
1.12468e-06
1.13119e-06
1.13759e-06
1.14386e-06
1.15001e-06
8.36703e-07
8.46512e-07
8.56264e-07
8.65956e-07
8.75584e-07
8.85144e-07
8.94633e-07
9.04047e-07
9.13384e-07
9.2264e-07
9.31814e-07
9.40901e-07
9.49901e-07
9.58811e-07
9.67629e-07
9.76353e-07
9.84981e-07
9.93512e-07
1.00194e-06
1.01027e-06
1.0185e-06
1.02663e-06
1.03465e-06
1.04256e-06
1.05037e-06
1.05807e-06
1.06566e-06
1.07313e-06
1.0805e-06
1.08775e-06
1.09489e-06
1.10192e-06
1.10883e-06
1.11562e-06
1.1223e-06
1.12886e-06
1.13529e-06
1.14161e-06
1.14781e-06
8.33182e-07
8.43014e-07
8.52791e-07
8.6251e-07
8.72165e-07
8.81754e-07
8.91272e-07
9.00717e-07
9.10086e-07
9.19375e-07
9.28582e-07
9.37704e-07
9.46739e-07
9.55685e-07
9.6454e-07
9.73301e-07
9.81966e-07
9.90535e-07
9.99005e-07
1.00737e-06
1.01564e-06
1.02381e-06
1.03187e-06
1.03982e-06
1.04767e-06
1.05541e-06
1.06304e-06
1.07056e-06
1.07797e-06
1.08526e-06
1.09244e-06
1.09951e-06
1.10646e-06
1.1133e-06
1.12002e-06
1.12662e-06
1.1331e-06
1.13946e-06
1.1457e-06
8.39706e-07
8.49506e-07
8.59249e-07
8.68929e-07
8.78545e-07
8.88091e-07
8.97565e-07
9.06963e-07
9.16283e-07
9.25521e-07
9.34675e-07
9.43743e-07
9.52723e-07
9.61611e-07
9.70407e-07
9.79108e-07
9.87712e-07
9.96218e-07
1.00462e-06
1.01293e-06
1.02113e-06
1.02923e-06
1.03722e-06
1.04511e-06
1.05288e-06
1.06055e-06
1.06811e-06
1.07556e-06
1.08289e-06
1.09012e-06
1.09722e-06
1.10422e-06
1.11109e-06
1.11785e-06
1.12449e-06
1.13101e-06
1.13741e-06
1.14369e-06
8.46418e-07
8.56183e-07
8.65887e-07
8.75526e-07
8.85098e-07
8.94598e-07
9.04024e-07
9.13372e-07
9.22639e-07
9.31824e-07
9.40922e-07
9.49933e-07
9.58853e-07
9.67681e-07
9.76414e-07
9.85052e-07
9.93592e-07
1.00203e-06
1.01037e-06
1.01861e-06
1.02674e-06
1.03477e-06
1.04269e-06
1.0505e-06
1.05821e-06
1.0658e-06
1.07329e-06
1.08066e-06
1.08792e-06
1.09506e-06
1.10209e-06
1.10901e-06
1.1158e-06
1.12248e-06
1.12904e-06
1.13548e-06
1.1418e-06
8.43535e-07
8.5332e-07
8.63045e-07
8.72707e-07
8.82302e-07
8.91827e-07
9.01278e-07
9.10652e-07
9.19946e-07
9.29158e-07
9.38284e-07
9.47324e-07
9.56273e-07
9.65131e-07
9.73895e-07
9.82564e-07
9.91135e-07
9.99607e-07
1.00798e-06
1.01625e-06
1.02441e-06
1.03247e-06
1.04043e-06
1.04828e-06
1.05602e-06
1.06364e-06
1.07116e-06
1.07857e-06
1.08586e-06
1.09304e-06
1.10011e-06
1.10706e-06
1.11389e-06
1.1206e-06
1.1272e-06
1.13367e-06
1.14002e-06
8.50668e-07
8.60412e-07
8.70095e-07
8.79711e-07
8.89258e-07
8.98732e-07
9.0813e-07
9.17448e-07
9.26685e-07
9.35838e-07
9.44904e-07
9.5388e-07
9.62766e-07
9.71558e-07
9.80255e-07
9.88855e-07
9.97356e-07
1.00576e-06
1.01406e-06
1.02225e-06
1.03034e-06
1.03833e-06
1.04621e-06
1.05398e-06
1.06164e-06
1.06919e-06
1.07663e-06
1.08395e-06
1.09116e-06
1.09826e-06
1.10524e-06
1.11211e-06
1.11885e-06
1.12548e-06
1.13199e-06
1.13837e-06
8.48233e-07
8.57996e-07
8.67696e-07
8.77332e-07
8.86899e-07
8.96394e-07
9.05813e-07
9.15155e-07
9.24414e-07
9.33591e-07
9.4268e-07
9.51682e-07
9.60592e-07
9.6941e-07
9.78133e-07
9.86759e-07
9.95287e-07
1.00371e-06
1.01204e-06
1.02027e-06
1.02838e-06
1.0364e-06
1.0443e-06
1.0521e-06
1.05979e-06
1.06737e-06
1.07484e-06
1.08219e-06
1.08944e-06
1.09656e-06
1.10357e-06
1.11047e-06
1.11724e-06
1.1239e-06
1.13044e-06
1.13686e-06
8.55802e-07
8.65519e-07
8.75172e-07
8.84757e-07
8.94271e-07
9.03709e-07
9.13071e-07
9.22351e-07
9.31549e-07
9.4066e-07
9.49684e-07
9.58617e-07
9.67458e-07
9.76204e-07
9.84854e-07
9.93406e-07
1.00186e-06
1.01021e-06
1.01846e-06
1.0266e-06
1.03464e-06
1.04257e-06
1.0504e-06
1.05811e-06
1.06572e-06
1.07321e-06
1.0806e-06
1.08786e-06
1.09502e-06
1.10206e-06
1.10898e-06
1.11578e-06
1.12247e-06
1.12903e-06
1.13548e-06
8.63568e-07
8.73236e-07
8.82838e-07
8.92368e-07
9.01824e-07
9.11203e-07
9.20502e-07
9.29718e-07
9.38849e-07
9.47893e-07
9.56846e-07
9.65707e-07
9.74475e-07
9.83146e-07
9.9172e-07
1.00019e-06
1.00857e-06
1.01684e-06
1.02501e-06
1.03307e-06
1.04102e-06
1.04887e-06
1.05661e-06
1.06424e-06
1.07176e-06
1.07916e-06
1.08645e-06
1.09363e-06
1.10069e-06
1.10764e-06
1.11447e-06
1.12118e-06
1.12777e-06
1.13424e-06
8.61849e-07
8.71531e-07
8.81146e-07
8.90691e-07
9.00162e-07
9.09557e-07
9.18872e-07
9.28105e-07
9.37253e-07
9.46314e-07
9.55285e-07
9.64164e-07
9.7295e-07
9.8164e-07
9.90232e-07
9.98726e-07
1.00712e-06
1.01541e-06
1.0236e-06
1.03168e-06
1.03965e-06
1.04752e-06
1.05528e-06
1.06293e-06
1.07047e-06
1.0779e-06
1.08521e-06
1.09241e-06
1.09949e-06
1.10646e-06
1.11331e-06
1.12004e-06
1.12665e-06
1.13314e-06
8.60368e-07
8.70061e-07
8.79688e-07
8.89245e-07
8.98729e-07
9.08137e-07
9.17466e-07
9.26713e-07
9.35876e-07
9.44951e-07
9.53938e-07
9.62833e-07
9.71634e-07
9.8034e-07
9.88949e-07
9.97459e-07
1.00587e-06
1.01418e-06
1.02238e-06
1.03048e-06
1.03847e-06
1.04636e-06
1.05414e-06
1.0618e-06
1.06936e-06
1.0768e-06
1.08414e-06
1.09135e-06
1.09845e-06
1.10544e-06
1.11231e-06
1.11906e-06
1.12569e-06
1.1322e-06
8.59126e-07
8.68829e-07
8.78466e-07
8.88034e-07
8.97529e-07
9.06948e-07
9.16288e-07
9.25547e-07
9.34722e-07
9.4381e-07
9.52809e-07
9.61717e-07
9.70532e-07
9.79251e-07
9.87874e-07
9.96398e-07
1.00482e-06
1.01314e-06
1.02136e-06
1.02948e-06
1.03748e-06
1.04538e-06
1.05318e-06
1.06086e-06
1.06843e-06
1.07589e-06
1.08324e-06
1.09047e-06
1.09759e-06
1.10459e-06
1.11147e-06
1.11824e-06
1.12488e-06
1.13141e-06
8.6784e-07
8.77485e-07
8.87061e-07
8.96564e-07
9.05992e-07
9.15342e-07
9.24611e-07
9.33795e-07
9.42893e-07
9.51902e-07
9.60821e-07
9.69646e-07
9.78376e-07
9.8701e-07
9.95545e-07
1.00398e-06
1.01231e-06
1.02054e-06
1.02867e-06
1.03669e-06
1.0446e-06
1.0524e-06
1.0601e-06
1.06768e-06
1.07515e-06
1.08251e-06
1.08976e-06
1.09689e-06
1.1039e-06
1.1108e-06
1.11758e-06
1.12423e-06
1.13077e-06
8.67095e-07
8.76746e-07
8.86328e-07
8.95839e-07
9.05273e-07
9.1463e-07
9.23906e-07
9.33097e-07
9.42203e-07
9.5122e-07
9.60146e-07
9.68979e-07
9.77717e-07
9.86359e-07
9.94902e-07
1.00335e-06
1.01169e-06
1.01993e-06
1.02806e-06
1.03609e-06
1.04401e-06
1.05182e-06
1.05953e-06
1.06712e-06
1.0746e-06
1.08197e-06
1.08922e-06
1.09636e-06
1.10338e-06
1.11029e-06
1.11708e-06
1.12375e-06
1.13029e-06
8.76253e-07
8.85839e-07
8.95354e-07
9.04793e-07
9.14154e-07
9.23435e-07
9.32631e-07
9.41742e-07
9.50764e-07
9.59695e-07
9.68533e-07
9.77277e-07
9.85924e-07
9.94473e-07
1.00292e-06
1.01127e-06
1.01951e-06
1.02765e-06
1.03569e-06
1.04362e-06
1.05143e-06
1.05914e-06
1.06674e-06
1.07423e-06
1.0816e-06
1.08886e-06
1.09601e-06
1.10304e-06
1.10995e-06
1.11674e-06
1.12342e-06
1.12997e-06
8.76006e-07
8.85594e-07
8.95111e-07
9.04552e-07
9.13916e-07
9.23199e-07
9.32398e-07
9.41511e-07
9.50535e-07
9.59469e-07
9.6831e-07
9.77057e-07
9.85707e-07
9.94258e-07
1.00271e-06
1.01106e-06
1.01931e-06
1.02745e-06
1.03549e-06
1.04342e-06
1.05124e-06
1.05895e-06
1.06655e-06
1.07404e-06
1.08142e-06
1.08868e-06
1.09583e-06
1.10287e-06
1.10978e-06
1.11658e-06
1.12326e-06
1.12981e-06
8.85594e-07
8.95111e-07
9.04552e-07
9.13916e-07
9.23199e-07
9.32398e-07
9.41511e-07
9.50535e-07
9.59469e-07
9.6831e-07
9.77057e-07
9.85707e-07
9.94258e-07
1.00271e-06
1.01106e-06
1.01931e-06
1.02745e-06
1.03549e-06
1.04342e-06
1.05124e-06
1.05895e-06
1.06655e-06
1.07404e-06
1.08142e-06
1.08868e-06
1.09583e-06
1.10287e-06
1.10978e-06
1.11658e-06
1.12326e-06
1.12981e-06
8.85839e-07
8.95354e-07
9.04793e-07
9.14154e-07
9.23435e-07
9.32631e-07
9.41742e-07
9.50764e-07
9.59695e-07
9.68533e-07
9.77277e-07
9.85924e-07
9.94473e-07
1.00292e-06
1.01127e-06
1.01951e-06
1.02765e-06
1.03569e-06
1.04362e-06
1.05143e-06
1.05914e-06
1.06674e-06
1.07423e-06
1.0816e-06
1.08886e-06
1.09601e-06
1.10304e-06
1.10995e-06
1.11674e-06
1.12342e-06
1.12997e-06
8.86328e-07
8.95839e-07
9.05273e-07
9.1463e-07
9.23906e-07
9.33097e-07
9.42203e-07
9.5122e-07
9.60146e-07
9.68979e-07
9.77717e-07
9.86359e-07
9.94902e-07
1.00335e-06
1.01169e-06
1.01993e-06
1.02806e-06
1.03609e-06
1.04401e-06
1.05182e-06
1.05953e-06
1.06712e-06
1.0746e-06
1.08197e-06
1.08922e-06
1.09636e-06
1.10338e-06
1.11029e-06
1.11708e-06
1.12375e-06
1.13029e-06
8.87061e-07
8.96564e-07
9.05992e-07
9.15342e-07
9.24611e-07
9.33795e-07
9.42893e-07
9.51902e-07
9.6082e-07
9.69646e-07
9.78376e-07
9.8701e-07
9.95545e-07
1.00398e-06
1.01231e-06
1.02054e-06
1.02867e-06
1.03669e-06
1.0446e-06
1.0524e-06
1.0601e-06
1.06768e-06
1.07515e-06
1.08251e-06
1.08976e-06
1.09689e-06
1.1039e-06
1.1108e-06
1.11758e-06
1.12423e-06
1.13077e-06
8.88034e-07
8.97529e-07
9.06948e-07
9.16288e-07
9.25547e-07
9.34722e-07
9.4381e-07
9.52809e-07
9.61717e-07
9.70532e-07
9.79251e-07
9.87874e-07
9.96398e-07
1.00482e-06
1.01314e-06
1.02136e-06
1.02948e-06
1.03748e-06
1.04538e-06
1.05318e-06
1.06086e-06
1.06843e-06
1.07589e-06
1.08324e-06
1.09047e-06
1.09759e-06
1.10459e-06
1.11147e-06
1.11824e-06
1.12488e-06
1.13141e-06
8.89245e-07
8.98729e-07
9.08137e-07
9.17466e-07
9.26713e-07
9.35876e-07
9.44951e-07
9.53938e-07
9.62833e-07
9.71634e-07
9.8034e-07
9.88949e-07
9.97459e-07
1.00587e-06
1.01418e-06
1.02238e-06
1.03048e-06
1.03847e-06
1.04636e-06
1.05414e-06
1.0618e-06
1.06936e-06
1.0768e-06
1.08414e-06
1.09135e-06
1.09845e-06
1.10544e-06
1.11231e-06
1.11906e-06
1.12569e-06
1.1322e-06
8.90691e-07
9.00162e-07
9.09557e-07
9.18872e-07
9.28105e-07
9.37253e-07
9.46314e-07
9.55285e-07
9.64164e-07
9.7295e-07
9.8164e-07
9.90232e-07
9.98726e-07
1.00712e-06
1.01541e-06
1.0236e-06
1.03168e-06
1.03965e-06
1.04752e-06
1.05528e-06
1.06293e-06
1.07047e-06
1.0779e-06
1.08521e-06
1.09241e-06
1.09949e-06
1.10646e-06
1.11331e-06
1.12004e-06
1.12665e-06
1.13314e-06
8.92368e-07
9.01824e-07
9.11203e-07
9.20502e-07
9.29718e-07
9.38849e-07
9.47893e-07
9.56846e-07
9.65707e-07
9.74474e-07
9.83146e-07
9.91719e-07
1.00019e-06
1.00857e-06
1.01684e-06
1.02501e-06
1.03307e-06
1.04102e-06
1.04887e-06
1.05661e-06
1.06424e-06
1.07176e-06
1.07916e-06
1.08645e-06
1.09363e-06
1.10069e-06
1.10764e-06
1.11447e-06
1.12118e-06
1.12777e-06
1.13424e-06
8.9427e-07
9.03709e-07
9.13071e-07
9.22351e-07
9.31549e-07
9.4066e-07
9.49684e-07
9.58617e-07
9.67458e-07
9.76204e-07
9.84854e-07
9.93406e-07
1.00186e-06
1.01021e-06
1.01846e-06
1.0266e-06
1.03464e-06
1.04257e-06
1.0504e-06
1.05811e-06
1.06572e-06
1.07321e-06
1.0806e-06
1.08786e-06
1.09502e-06
1.10206e-06
1.10898e-06
1.11578e-06
1.12247e-06
1.12903e-06
1.13548e-06
8.96394e-07
9.05813e-07
9.15154e-07
9.24414e-07
9.3359e-07
9.4268e-07
9.51682e-07
9.60592e-07
9.6941e-07
9.78133e-07
9.86759e-07
9.95287e-07
1.00371e-06
1.01204e-06
1.02026e-06
1.02838e-06
1.0364e-06
1.0443e-06
1.0521e-06
1.05979e-06
1.06737e-06
1.07484e-06
1.08219e-06
1.08944e-06
1.09656e-06
1.10357e-06
1.11047e-06
1.11724e-06
1.1239e-06
1.13044e-06
1.13686e-06
8.98732e-07
9.0813e-07
9.17448e-07
9.26685e-07
9.35838e-07
9.44904e-07
9.5388e-07
9.62766e-07
9.71558e-07
9.80255e-07
9.88855e-07
9.97356e-07
1.00576e-06
1.01406e-06
1.02225e-06
1.03034e-06
1.03833e-06
1.04621e-06
1.05398e-06
1.06164e-06
1.06919e-06
1.07663e-06
1.08395e-06
1.09116e-06
1.09826e-06