/*--------------------------------*- C++ -*----------------------------------*\
  =========                 |
  \\      /  F ield         | OpenFOAM: The Open Source CFD Toolbox
   \\    /   O peration     | Website:  https://openfoam.org
    \\  /    A nd           | Version:  7
     \\/     M anipulation  |
\*---------------------------------------------------------------------------*/
FoamFile
{
    version     2.0;
    format      ascii;
    class       volVectorField;
    location    "196000";
    object      U;
}
// * * * * * * * * * * * * * * * * * * * * * * * * * * * * * * * * * * * * * //

dimensions      [0 1 -1 0 0 0 0];

internalField   nonuniform List<vector> 
4764
(
(-1.10277e-18 9.99827e-19 -0.0127601)
(-8.72974e-20 3.75517e-19 -0.0127708)
(-5.567e-19 7.23759e-19 -0.0127805)
(-3.53068e-19 9.41405e-19 -0.0127892)
(-2.59207e-19 4.90609e-19 -0.0127968)
(-1.1279e-18 3.98686e-19 -0.0128033)
(-9.10601e-19 4.87043e-19 -0.0125679)
(3.51214e-19 3.75443e-19 -0.0125867)
(-1.58309e-20 6.23472e-19 -0.0126048)
(-1.1017e-18 2.62154e-19 -0.0126221)
(-1.09386e-18 1.81683e-20 -0.0126385)
(-5.71247e-19 9.72219e-19 -0.0126541)
(-6.25339e-19 5.90605e-19 -0.0126687)
(-5.10547e-19 2.27442e-19 -0.0126824)
(-1.33095e-18 3.29942e-19 -0.0126951)
(-1.1951e-18 1.1928e-18 -0.0127069)
(-2.06197e-19 7.11311e-19 -0.0127176)
(-5.72811e-19 9.84426e-19 -0.0127274)
(-3.41065e-19 8.21204e-19 -0.012736)
(-2.30701e-19 3.30694e-19 -0.0127437)
(-1.12388e-18 5.54621e-19 -0.0127502)
(-1.05066e-18 7.912e-19 -0.0127557)
(-6.50133e-19 4.35919e-19 -0.0127601)
(-1.11593e-18 6.92099e-19 -0.0127634)
(-7.42225e-19 1.89696e-19 -0.0127656)
(-6.05534e-19 -3.91903e-20 -0.0127667)
(-1.29723e-18 8.17133e-19 -0.0127667)
(-1.33023e-18 5.00106e-19 -0.0127656)
(-1.74615e-18 4.1158e-19 -0.0127634)
(-7.59037e-19 1.14768e-18 -0.0127601)
(-1.21739e-18 1.38039e-18 -0.0127557)
(-5.52506e-19 1.4932e-18 -0.0127502)
(-1.59735e-19 6.35013e-19 -0.0127437)
(-4.74693e-19 7.21337e-19 -0.012736)
(3.13273e-19 8.14261e-19 -0.0127274)
(-9.3201e-19 5.03757e-19 -0.0125139)
(3.98328e-19 2.82461e-19 -0.0125328)
(1.83421e-19 4.11758e-19 -0.012551)
(-1.1464e-18 3.48967e-19 -0.0125683)
(-9.94642e-19 -1.05332e-19 -0.0125847)
(-4.9152e-19 9.46825e-19 -0.0126003)
(-8.27975e-19 9.58522e-19 -0.012615)
(-5.10768e-19 1.68612e-19 -0.0126287)
(-1.22172e-18 2.2166e-19 -0.0126415)
(-1.21106e-18 1.29338e-18 -0.0126532)
(-3.20743e-19 1.10914e-18 -0.012664)
(-5.81125e-19 9.93063e-19 -0.0126738)
(-3.57118e-19 5.95754e-19 -0.0126825)
(-1.8158e-19 1.45511e-19 -0.0126901)
(-1.05764e-18 4.35897e-19 -0.0126967)
(-1.06907e-18 7.54584e-19 -0.0127022)
(-6.35231e-19 3.2943e-19 -0.0127066)
(-1.12858e-18 8.2217e-19 -0.0127099)
(-8.06946e-19 4.9726e-19 -0.0127121)
(-5.82764e-19 1.58421e-19 -0.0127133)
(-1.30078e-18 8.27324e-19 -0.0127133)
(-1.38396e-18 2.68285e-19 -0.0127121)
(-1.70187e-18 5.6775e-19 -0.0127099)
(-7.08011e-19 1.10443e-18 -0.0127066)
(-1.1926e-18 1.43627e-18 -0.0127022)
(-6.04756e-19 1.58039e-18 -0.0126967)
(-2.7336e-19 3.86975e-19 -0.0126901)
(-4.72852e-19 5.84628e-19 -0.0126825)
(3.53403e-19 9.22599e-19 -0.0126738)
(2.26507e-19 2.74385e-19 -0.012664)
(1.40154e-19 6.12511e-19 -0.0126532)
(2.54516e-20 7.17016e-19 -0.0126415)
(6.19022e-19 1.21724e-18 -0.0126287)
(-1.03731e-18 6.43859e-19 -0.0124595)
(3.46089e-19 3.16909e-19 -0.0124785)
(3.94579e-19 2.28518e-19 -0.0124966)
(-1.24516e-18 5.56709e-19 -0.012514)
(-1.05973e-18 2.11744e-20 -0.0125305)
(-3.37374e-19 8.21197e-19 -0.0125461)
(-9.56991e-19 1.21473e-18 -0.0125608)
(-6.46171e-19 3.80905e-19 -0.0125746)
(-1.09821e-18 8.78125e-20 -0.0125874)
(-1.17943e-18 1.35419e-18 -0.0125992)
(-3.94935e-19 1.25198e-18 -0.01261)
(-5.14441e-19 5.74851e-19 -0.0126197)
(-3.49742e-19 3.77502e-19 -0.0126285)
(-1.74163e-19 1.80332e-19 -0.0126361)
(-9.58731e-19 1.4941e-19 -0.0126427)
(-1.08324e-18 7.82876e-19 -0.0126482)
(-6.30945e-19 4.00559e-19 -0.0126527)
(-1.12424e-18 9.65708e-19 -0.012656)
(-8.65183e-19 6.99522e-19 -0.0126582)
(-5.70237e-19 3.39302e-19 -0.0126593)
(-1.33038e-18 4.87016e-19 -0.0126593)
(-1.43639e-18 1.58514e-19 -0.0126582)
(-1.66355e-18 6.47275e-19 -0.012656)
(-6.60126e-19 1.04973e-18 -0.0126527)
(-1.1838e-18 1.40319e-18 -0.0126482)
(-6.99778e-19 1.45383e-18 -0.0126427)
(-3.39239e-19 3.64795e-19 -0.0126361)
(-3.92209e-19 6.86979e-19 -0.0126285)
(4.19808e-19 1.15719e-18 -0.0126197)
(1.6461e-19 1.39725e-19 -0.01261)
(8.90566e-20 3.53941e-19 -0.0125992)
(7.59972e-20 6.47219e-19 -0.0125874)
(5.75468e-19 1.1049e-18 -0.0125746)
(1.94202e-20 2.75733e-19 -0.0125608)
(5.15244e-19 6.97657e-20 -0.0125461)
(-8.89405e-19 1.47962e-19 -0.0125305)
(-3.18668e-20 7.82131e-19 -0.012514)
(-3.57972e-20 1.02268e-18 -0.0124966)
(-2.56984e-19 8.38104e-19 -0.0124785)
(-1.38895e-19 8.88211e-19 -0.0124595)
(3.42612e-19 9.74014e-19 -0.0124399)
(1.04133e-18 1.54599e-18 -0.0124195)
(1.68177e-19 2.5675e-19 -0.0123985)
(-2.33738e-19 -1.10935e-19 -0.0123769)
(-1.13703e-18 1.30353e-19 -0.0123547)
(-1.28142e-18 1.01158e-18 -0.0124046)
(2.25795e-19 3.98829e-19 -0.0124236)
(5.49588e-19 1.55056e-19 -0.0124419)
(-1.32911e-18 8.43765e-19 -0.0124593)
(-1.2412e-18 3.59786e-19 -0.0124758)
(-2.54067e-19 8.41631e-19 -0.0124914)
(-9.22189e-19 1.15919e-18 -0.0125062)
(-8.61591e-19 7.171e-19 -0.01252)
(-1.05303e-18 9.33494e-20 -0.0125328)
(-1.1396e-18 1.42992e-18 -0.0125446)
(-4.64776e-19 1.2641e-18 -0.0125555)
(-5.01144e-19 2.94227e-19 -0.0125653)
(-3.42725e-19 3.47608e-19 -0.012574)
(-2.27095e-19 4.89355e-19 -0.0125817)
(-8.67216e-19 -1.2513e-19 -0.0125883)
(-1.05426e-18 7.71008e-19 -0.0125938)
(-6.17625e-19 4.67241e-19 -0.0125983)
(-1.11851e-18 1.06671e-18 -0.0126016)
(-9.17755e-19 8.16493e-19 -0.0126038)
(-6.19152e-19 5.16208e-19 -0.0126049)
(-1.37829e-18 6.86046e-20 -0.0126049)
(-1.42709e-18 1.29667e-19 -0.0126038)
(-1.61173e-18 8.32462e-19 -0.0126016)
(-6.24292e-19 1.00693e-18 -0.0125983)
(-1.18968e-18 1.3377e-18 -0.0125938)
(-7.49054e-19 1.57316e-18 -0.0125883)
(-3.62829e-19 4.10245e-19 -0.0125817)
(-2.87802e-19 8.41477e-19 -0.012574)
(3.83674e-19 1.11071e-18 -0.0125653)
(1.06361e-19 1.2445e-19 -0.0125555)
(5.75527e-20 8.91821e-20 -0.0125446)
(1.52544e-19 6.77861e-19 -0.0125328)
(4.50541e-19 8.33747e-19 -0.01252)
(-4.4182e-21 2.65909e-19 -0.0125062)
(5.94648e-19 2.41107e-19 -0.0124914)
(-9.11425e-19 7.4043e-20 -0.0124758)
(-1.04652e-19 4.54411e-19 -0.0124593)
(-1.96818e-19 7.25948e-19 -0.0124419)
(-3.29059e-19 7.0115e-19 -0.0124236)
(-7.38897e-20 9.33134e-19 -0.0124046)
(4.77721e-19 1.07482e-18 -0.0123849)
(8.25926e-19 1.34103e-18 -0.0123645)
(5.37744e-20 3.04164e-19 -0.0123434)
(-4.20351e-20 2.12116e-19 -0.0123217)
(-9.05457e-19 3.04982e-19 -0.0122995)
(-1.42407e-18 1.22784e-18 -0.0123492)
(-7.31314e-20 7.07594e-19 -0.0123683)
(5.97122e-19 3.1628e-19 -0.0123866)
(-1.2555e-18 8.85877e-19 -0.012404)
(-1.34606e-18 4.90932e-19 -0.0124206)
(-2.58024e-19 9.34986e-19 -0.0124363)
(-7.87062e-19 9.16827e-19 -0.0124511)
(-9.7726e-19 8.87936e-19 -0.0124649)
(-1.02141e-18 9.25735e-20 -0.0124778)
(-1.12144e-18 1.55526e-18 -0.0124897)
(-5.24004e-19 1.19169e-18 -0.0125005)
(-5.41369e-19 2.55488e-19 -0.0125103)
(-2.81852e-19 2.63512e-19 -0.0125191)
(-3.33299e-19 9.56184e-19 -0.0125268)
(-8.35036e-19 -2.68751e-19 -0.0125334)
(-1.0077e-18 7.08522e-19 -0.012539)
(-5.86014e-19 4.51371e-19 -0.0125434)
(-1.09366e-18 1.02935e-18 -0.0125467)
(-9.61629e-19 8.94881e-19 -0.012549)
(-6.7801e-19 6.55337e-19 -0.0125501)
(-1.43015e-18 8.13041e-20 -0.0125501)
(-1.3906e-18 2.47879e-19 -0.012549)
(-1.56631e-18 1.05507e-18 -0.0125467)
(-6.24415e-19 7.98118e-19 -0.0125434)
(-1.16018e-18 1.3145e-18 -0.012539)
(-7.62005e-19 1.8782e-18 -0.0125334)
(-4.30441e-19 3.47317e-19 -0.0125268)
(-2.26717e-19 9.15275e-19 -0.0125191)
(2.76989e-19 7.86718e-19 -0.0125103)
(9.24741e-20 2.69539e-19 -0.0125005)
(2.44197e-20 -1.48472e-19 -0.0124897)
(1.8376e-19 5.71262e-19 -0.0124778)
(3.93403e-19 7.11771e-19 -0.0124649)
(-3.38468e-20 2.00218e-19 -0.0124511)
(6.04605e-19 2.81117e-19 -0.0124363)
(-9.31327e-19 5.60311e-20 -0.0124206)
(-1.45331e-19 2.33863e-19 -0.012404)
(-3.64678e-19 3.63619e-19 -0.0123866)
(-2.99381e-19 7.08103e-19 -0.0123683)
(-1.80962e-19 7.04081e-19 -0.0123492)
(5.22113e-19 1.0644e-18 -0.0123294)
(5.2681e-19 1.01823e-18 -0.0123089)
(1.24876e-19 4.81341e-19 -0.0122878)
(2.66519e-19 6.24168e-19 -0.012266)
(-7.0836e-19 4.97969e-19 -0.0122437)
(-1.24955e-18 1.05434e-18 -0.0122933)
(-2.79754e-19 9.01875e-19 -0.0123124)
(5.77636e-19 4.59037e-19 -0.0123308)
(-9.99147e-19 5.57063e-19 -0.0123483)
(-1.30762e-18 4.07542e-19 -0.0123649)
(-2.16507e-19 9.18772e-19 -0.0123807)
(-7.70711e-19 9.44332e-19 -0.0123955)
(-1.05348e-18 9.44356e-19 -0.0124094)
(-9.57257e-19 7.17001e-21 -0.0124223)
(-1.01052e-18 1.39614e-18 -0.0124342)
(-5.81148e-19 1.08713e-18 -0.0124451)
(-6.17452e-19 2.95118e-19 -0.0124549)
(-1.79346e-19 1.23279e-19 -0.0124637)
(-4.01065e-19 1.31646e-18 -0.0124714)
(-8.70877e-19 -2.02106e-19 -0.012478)
(-9.45598e-19 5.88524e-19 -0.0124836)
(-5.53133e-19 3.90262e-19 -0.012488)
(-1.04894e-18 7.82597e-19 -0.0124914)
(-9.87366e-19 9.11221e-19 -0.0124936)
(-7.29555e-19 4.0473e-19 -0.0124947)
(-1.47374e-18 1.41467e-19 -0.0124947)
(-1.3396e-18 5.43246e-19 -0.0124936)
(-1.55505e-18 1.28081e-18 -0.0124914)
(-6.3472e-19 6.00452e-19 -0.012488)
(-1.09869e-18 1.2457e-18 -0.0124836)
(-8.51203e-19 1.80048e-18 -0.012478)
(-5.38576e-19 1.12558e-19 -0.0124714)
(-1.52773e-19 1.08895e-18 -0.0124637)
(2.08327e-19 5.94183e-19 -0.0124549)
(9.97942e-20 4.51535e-19 -0.0124451)
(5.02488e-20 -1.35257e-19 -0.0124342)
(2.41284e-19 5.11197e-19 -0.0124223)
(3.80415e-19 7.29217e-19 -0.0124094)
(-6.44526e-20 1.14238e-19 -0.0123955)
(5.75613e-19 2.0488e-19 -0.0123807)
(-8.95492e-19 1.8525e-19 -0.0123649)
(4.775e-20 5.05552e-19 -0.0123483)
(-3.20546e-19 3.68483e-19 -0.0123308)
(-2.11334e-19 8.03589e-19 -0.0123124)
(-2.12079e-19 6.03865e-19 -0.0122933)
(5.29847e-19 1.01961e-18 -0.0122734)
(3.43111e-19 8.26124e-19 -0.0122529)
(2.66889e-19 6.72412e-19 -0.0122317)
(3.95828e-19 8.57287e-19 -0.0122098)
(-7.95899e-19 4.24678e-19 -0.0121874)
(-9.68479e-19 7.25388e-19 -0.0122369)
(-2.28722e-19 7.22331e-19 -0.012256)
(6.20184e-19 4.6966e-19 -0.0122744)
(-7.664e-19 2.49455e-19 -0.012292)
(-1.33009e-18 4.75016e-19 -0.0123087)
(-1.28002e-19 8.48575e-19 -0.0123245)
(-6.34384e-19 7.33616e-19 -0.0123394)
(-1.19505e-18 1.12622e-18 -0.0123533)
(-9.1478e-19 -1.25495e-19 -0.0123662)
(-8.61174e-19 1.12008e-18 -0.0123782)
(-6.33239e-19 1.09118e-18 -0.0123891)
(-6.96429e-19 3.62825e-19 -0.012399)
(-9.39324e-20 1.26442e-19 -0.0124078)
(-3.93523e-19 1.35484e-18 -0.0124155)
(-9.52015e-19 -4.65774e-20 -0.0124222)
(-9.00256e-19 4.21508e-19 -0.0124277)
(-5.15191e-19 1.78528e-19 -0.0124322)
(-9.99837e-19 5.61756e-19 -0.0124356)
(-1.01351e-18 5.85897e-19 -0.0124378)
(-7.78207e-19 2.49072e-19 -0.0124389)
(-1.45691e-18 1.08118e-19 -0.0124389)
(-1.27385e-18 8.38227e-19 -0.0124378)
(-1.58948e-18 1.29653e-18 -0.0124356)
(-6.27816e-19 7.97309e-19 -0.0124322)
(-1.06488e-18 1.12917e-18 -0.0124277)
(-1.00432e-18 1.40043e-18 -0.0124222)
(-5.87365e-19 -3.20877e-20 -0.0124155)
(-7.14756e-20 1.22106e-18 -0.0124078)
(1.2181e-19 3.57903e-19 -0.012399)
(6.39044e-20 4.3031e-19 -0.0123891)
(1.21745e-19 4.8439e-20 -0.0123782)
(2.84446e-19 4.44578e-19 -0.0123662)
(3.38538e-19 6.69414e-19 -0.0123533)
(-3.92974e-20 2.09372e-19 -0.0123394)
(5.73478e-19 1.59651e-19 -0.0123245)
(-7.96774e-19 3.06443e-19 -0.0123087)
(3.25904e-19 9.14718e-19 -0.012292)
(-2.06759e-19 5.50838e-19 -0.0122744)
(-8.49217e-20 1.00201e-18 -0.012256)
(5.72319e-20 9.96722e-19 -0.0122369)
(5.63879e-19 1.03242e-18 -0.0122169)
(2.85131e-19 7.8385e-19 -0.0121963)
(3.13947e-19 7.23321e-19 -0.012175)
(3.49117e-19 9.15978e-19 -0.0121531)
(-1.01291e-18 2.06509e-19 -0.0121306)
(-8.56669e-19 6.1617e-19 -0.0121799)
(-2.631e-19 7.28846e-19 -0.0121991)
(6.41607e-19 5.00487e-19 -0.0122176)
(-6.09663e-19 1.3645e-19 -0.0122352)
(-1.35816e-18 6.0043e-19 -0.0122519)
(-1.0224e-19 7.8532e-19 -0.0122678)
(-4.61834e-19 4.86512e-19 -0.0122827)
(-1.30917e-18 1.30342e-18 -0.0122967)
(-1.07623e-18 2.32161e-19 -0.0123097)
(-7.5361e-19 1.03475e-18 -0.0123216)
(-6.87862e-19 1.14708e-18 -0.0123326)
(-7.85024e-19 4.29643e-19 -0.0123425)
(-6.44092e-20 3.01977e-19 -0.0123513)
(-3.17826e-19 1.09492e-18 -0.0123591)
(-1.02525e-18 8.03931e-20 -0.0123658)
(-8.9167e-19 3.50556e-19 -0.0123714)
(-4.78099e-19 1.24591e-20 -0.0123758)
(-9.86684e-19 5.64248e-19 -0.0123792)
(-1.01924e-18 3.37017e-19 -0.0123814)
(-7.98207e-19 3.63866e-19 -0.0123826)
(-1.44362e-18 1.00471e-19 -0.0123826)
(-1.22528e-18 9.13228e-19 -0.0123814)
(-1.61702e-18 1.19331e-18 -0.0123792)
(-5.871e-19 1.24026e-18 -0.0123758)
(-1.08836e-18 9.89407e-19 -0.0123714)
(-1.12855e-18 1.14531e-18 -0.0123658)
(-5.73246e-19 -1.01038e-20 -0.0123591)
(-2.92906e-20 1.29882e-18 -0.0123513)
(3.75536e-20 1.92183e-19 -0.0123425)
(1.15254e-19 5.75144e-19 -0.0123326)
(1.9525e-19 2.22531e-19 -0.0123216)
(2.74913e-19 2.97304e-19 -0.0123097)
(2.1387e-19 3.5113e-19 -0.0122967)
(1.72316e-20 3.22402e-19 -0.0122827)
(7.24332e-19 4.62483e-19 -0.0122678)
(-6.61151e-19 4.93193e-19 -0.0122519)
(4.69832e-19 1.07549e-18 -0.0122352)
(-2.74634e-19 4.20968e-19 -0.0122176)
(-6.44448e-21 1.02461e-18 -0.0121991)
(2.25351e-19 1.25313e-18 -0.0121799)
(5.34517e-19 1.04822e-18 -0.0121599)
(2.5194e-19 7.91984e-19 -0.0121392)
(3.04575e-19 7.07557e-19 -0.0121178)
(4.95931e-20 7.1029e-19 -0.0120958)
(-1.24395e-18 -6.50032e-20 -0.0120733)
(-9.96637e-19 9.20933e-19 -0.0121223)
(-3.74507e-19 8.57759e-19 -0.0121416)
(6.001e-19 6.20202e-19 -0.0121601)
(-5.79589e-19 2.43749e-19 -0.0121778)
(-1.21072e-18 3.50123e-19 -0.0121946)
(-5.8634e-20 7.01584e-19 -0.0122105)
(-4.46058e-19 6.4263e-19 -0.0122255)
(-1.29351e-18 1.29796e-18 -0.0122395)
(-1.32843e-18 8.16112e-19 -0.0122525)
(-7.38392e-19 1.04778e-18 -0.0122645)
(-6.43094e-19 8.95294e-19 -0.0122755)
(-7.83103e-19 2.23955e-19 -0.0122855)
(-1.08983e-19 7.02202e-19 -0.0122943)
(-2.47405e-19 7.9309e-19 -0.0123021)
(-1.04591e-18 8.56816e-21 -0.0123088)
(-8.98217e-19 2.85922e-19 -0.0123144)
(-4.50959e-19 -1.11206e-20 -0.0123189)
(-9.69873e-19 6.5569e-19 -0.0123223)
(-1.0496e-18 4.22515e-19 -0.0123245)
(-8.18446e-19 3.32225e-19 -0.0123257)
(-1.42836e-18 2.11795e-19 -0.0123257)
(-1.18219e-18 9.14068e-19 -0.0123245)
(-1.61074e-18 1.16429e-18 -0.0123223)
(-5.67467e-19 1.60702e-18 -0.0123189)
(-1.14615e-18 8.45577e-19 -0.0123144)
(-1.19711e-18 1.14318e-18 -0.0123088)
(-5.51586e-19 -2.5209e-20 -0.0123021)
(-1.38231e-21 1.30413e-18 -0.0122943)
(4.01206e-20 2.68442e-19 -0.0122855)
(1.52282e-19 6.47117e-19 -0.0122755)
(1.82596e-19 2.64774e-19 -0.0122645)
(1.7964e-19 3.36574e-20 -0.0122525)
(9.53927e-20 6.54588e-21 -0.0122395)
(-3.63309e-20 2.08093e-20 -0.0122255)
(7.8258e-19 5.19128e-19 -0.0122105)
(-5.57454e-19 6.56726e-19 -0.0121946)
(5.39834e-19 1.18217e-18 -0.0121778)
(-3.31002e-19 3.38821e-19 -0.0121601)
(-3.18785e-20 8.69568e-19 -0.0121416)
(1.10791e-19 1.06918e-18 -0.0121223)
(5.18078e-19 1.05375e-18 -0.0121022)
(1.94758e-19 7.55277e-19 -0.0120815)
(2.54089e-19 6.96591e-19 -0.01206)
(-4.90236e-19 2.44382e-19 -0.012038)
(-1.23013e-18 -1.25514e-19 -0.0120154)
(-1.13797e-18 1.2336e-18 -0.0120642)
(-4.55813e-19 8.99236e-19 -0.0120836)
(4.67464e-19 9.06831e-19 -0.0121021)
(-5.74313e-19 3.14141e-19 -0.0121199)
(-1.06798e-18 8.06315e-20 -0.0121367)
(-8.89791e-20 8.87635e-19 -0.0121527)
(-4.15093e-19 7.5578e-19 -0.0121677)
(-1.1954e-18 1.08824e-18 -0.0121818)
(-1.33295e-18 7.29163e-19 -0.0121948)
(-7.87335e-19 1.09835e-18 -0.0122069)
(-6.55558e-19 7.08339e-19 -0.0122179)
(-6.72963e-19 -1.73134e-19 -0.0122279)
(-1.27622e-19 1.04844e-18 -0.0122368)
(-2.21541e-19 4.97185e-19 -0.0122446)
(-1.04956e-18 -1.14998e-19 -0.0122513)
(-8.8035e-19 1.70919e-19 -0.0122569)
(-4.26716e-19 1.24949e-19 -0.0122614)
(-9.44084e-19 6.90827e-19 -0.0122648)
(-1.09065e-18 6.27172e-19 -0.0122671)
(-8.34355e-19 3.46727e-19 -0.0122682)
(-1.4068e-18 4.14965e-19 -0.0122682)
(-1.148e-18 9.8579e-19 -0.0122671)
(-1.58176e-18 1.23351e-18 -0.0122648)
(-5.98011e-19 1.5188e-18 -0.0122614)
(-1.21574e-18 7.09438e-19 -0.0122569)
(-1.24787e-18 1.24079e-18 -0.0122513)
(-5.24629e-19 4.16846e-20 -0.0122446)
(3.20048e-20 1.29565e-18 -0.0122368)
(2.21162e-20 3.27317e-19 -0.0122279)
(9.94088e-20 4.42176e-19 -0.0122179)
(1.42353e-19 2.29753e-19 -0.0122069)
(5.71133e-20 -2.8685e-19 -0.0121948)
(1.0358e-19 3.89165e-20 -0.0121818)
(-1.23558e-19 -3.421e-19 -0.0121677)
(7.51921e-19 2.83825e-19 -0.0121527)
(-5.3277e-19 6.02472e-19 -0.0121367)
(5.45948e-19 1.1528e-18 -0.0121199)
(-2.87952e-19 4.676e-19 -0.0121021)
(-1.03501e-19 6.70928e-19 -0.0120836)
(-1.83303e-20 8.35245e-19 -0.0120642)
(6.09337e-19 1.20873e-18 -0.0120441)
(7.20541e-20 6.48724e-19 -0.0120232)
(6.56032e-20 5.71017e-19 -0.0120017)
(-8.10105e-19 1.96861e-20 -0.0119796)
(-9.95474e-19 1.07194e-20 -0.0119569)
(-1.07559e-18 1.23423e-18 -0.0120055)
(-4.54017e-19 8.37987e-19 -0.0120249)
(4.33127e-19 1.01503e-18 -0.0120436)
(-5.16186e-19 2.18188e-19 -0.0120614)
(-1.03915e-18 1.02137e-19 -0.0120783)
(-1.46922e-19 1.14177e-18 -0.0120943)
(-3.08745e-19 5.75205e-19 -0.0121093)
(-1.19789e-18 1.07168e-18 -0.0121234)
(-1.24749e-18 4.52196e-19 -0.0121365)
(-7.97519e-19 1.14882e-18 -0.0121486)
(-7.8609e-19 8.52848e-19 -0.0121597)
(-6.6443e-19 -1.58284e-19 -0.0121697)
(-8.69422e-20 1.15018e-18 -0.0121786)
(-2.23918e-19 2.80878e-19 -0.0121864)
(-1.05486e-18 -1.57666e-19 -0.0121932)
(-8.71248e-19 2.04423e-19 -0.0121988)
(-3.89692e-19 1.75729e-19 -0.0122033)
(-9.116e-19 6.99334e-19 -0.0122067)
(-1.13393e-18 9.48703e-19 -0.012209)
(-8.5607e-19 4.2775e-19 -0.0122101)
(-1.38291e-18 5.98908e-19 -0.0122101)
(-1.11262e-18 1.12681e-18 -0.012209)
(-1.59189e-18 1.24217e-18 -0.0122067)
(-6.74383e-19 1.21892e-18 -0.0122033)
(-1.22143e-18 7.98148e-19 -0.0121988)
(-1.27678e-18 1.3334e-18 -0.0121932)
(-4.65748e-19 2.70077e-19 -0.0121864)
(7.48172e-20 1.37654e-18 -0.0121786)
(-2.59103e-20 3.12282e-19 -0.0121697)
(4.835e-20 2.43995e-19 -0.0121597)
(9.62093e-20 2.17441e-19 -0.0121486)
(1.34634e-19 -8.91738e-20 -0.0121365)
(1.99225e-19 2.58511e-19 -0.0121234)
(-6.713e-21 -1.60799e-19 -0.0121093)
(5.91664e-19 -2.32177e-19 -0.0120943)
(-5.3986e-19 4.85397e-19 -0.0120783)
(5.07126e-19 1.00957e-18 -0.0120614)
(-2.24212e-19 6.39135e-19 -0.0120436)
(-1.26815e-19 6.05794e-19 -0.0120249)
(-1.09325e-19 6.03486e-19 -0.0120055)
(7.29163e-19 1.38567e-18 -0.0119853)
(-7.65322e-20 5.61326e-19 -0.0119644)
(-8.82026e-20 4.70921e-19 -0.0119428)
(-8.03584e-19 1.30466e-19 -0.0119206)
(-7.45958e-19 1.95993e-19 -0.0118979)
(-1.01311e-18 1.22009e-18 -0.0119462)
(-4.86179e-19 8.27674e-19 -0.0119657)
(4.99204e-19 9.4541e-19 -0.0119844)
(-4.40579e-19 1.32454e-19 -0.0120022)
(-1.0373e-18 2.1349e-19 -0.0120192)
(-1.56715e-19 1.22833e-18 -0.0120353)
(-9.4442e-20 1.74461e-19 -0.0120504)
(-1.1988e-18 1.08811e-18 -0.0120645)
(-1.21821e-18 2.86597e-19 -0.0120777)
(-7.46013e-19 1.0633e-18 -0.0120898)
(-9.00961e-19 9.96524e-19 -0.0121009)
(-7.28998e-19 8.47644e-20 -0.0121109)
(-3.73064e-20 1.08833e-18 -0.0121198)
(-2.50361e-19 1.73022e-19 -0.0121277)
(-1.03169e-18 -2.73308e-19 -0.0121345)
(-8.98313e-19 4.91735e-19 -0.0121401)
(-3.57149e-19 1.94205e-19 -0.0121447)
(-8.56748e-19 7.76586e-19 -0.0121481)
(-1.16203e-18 1.06831e-18 -0.0121503)
(-8.86915e-19 4.45499e-19 -0.0121515)
(-1.35429e-18 8.20075e-19 -0.0121515)
(-1.0973e-18 1.20545e-18 -0.0121503)
(-1.62611e-18 1.16279e-18 -0.0121481)
(-6.94851e-19 1.15688e-18 -0.0121447)
(-1.20303e-18 9.72642e-19 -0.0121401)
(-1.32203e-18 1.36218e-18 -0.0121345)
(-3.97225e-19 5.45703e-19 -0.0121277)
(1.20386e-19 1.56115e-18 -0.0121198)
(-6.43264e-20 4.38236e-19 -0.0121109)
(-1.55696e-20 -6.3748e-21 -0.0121009)
(1.4219e-19 2.93606e-19 -0.0120898)
(3.70518e-19 5.11111e-19 -0.0120777)
(1.81469e-19 2.24539e-19 -0.0120645)
(1.73603e-19 3.40599e-19 -0.0120504)
(4.12763e-19 -7.06315e-19 -0.0120353)
(-4.99498e-19 3.59428e-19 -0.0120192)
(4.81901e-19 8.49581e-19 -0.0120022)
(-1.94954e-19 7.27886e-19 -0.0119844)
(-8.68554e-20 6.82164e-19 -0.0119657)
(-1.12334e-19 5.01323e-19 -0.0119462)
(8.0901e-19 1.50377e-18 -0.0119259)
(-2.06867e-19 5.16309e-19 -0.0119049)
(-2.31295e-20 6.24021e-19 -0.0118833)
(-7.30743e-19 2.97631e-19 -0.0118611)
(-5.51846e-19 3.48335e-19 -0.0118383)
(-7.74393e-19 -5.18533e-20 -0.0118659)
(-1.09276e-18 1.43625e-18 -0.0118863)
(-5.70405e-19 8.93162e-19 -0.0119058)
(4.60564e-19 1.03766e-18 -0.0119246)
(-3.89519e-19 9.82235e-20 -0.0119425)
(-9.90224e-19 2.48123e-19 -0.0119595)
(-2.34902e-19 1.38162e-18 -0.0119756)
(6.68905e-20 -1.54025e-19 -0.0119908)
(-1.08413e-18 8.54302e-19 -0.012005)
(-1.1725e-18 7.79776e-20 -0.0120182)
(-6.63162e-19 9.52836e-19 -0.0120303)
(-9.60289e-19 1.03268e-18 -0.0120414)
(-7.76432e-19 2.06985e-19 -0.0120515)
(-5.55919e-21 1.05451e-18 -0.0120605)
(-3.29476e-19 3.19202e-19 -0.0120684)
(-1.01095e-18 -2.06248e-19 -0.0120752)
(-9.19129e-19 8.60964e-19 -0.0120808)
(-3.61489e-19 3.89202e-19 -0.0120854)
(-8.18012e-19 8.45223e-19 -0.0120888)
(-1.19529e-18 1.05101e-18 -0.0120911)
(-8.92171e-19 3.67181e-19 -0.0120922)
(-1.32285e-18 1.13007e-18 -0.0120922)
(-1.11608e-18 9.13212e-19 -0.0120911)
(-1.65905e-18 1.07202e-18 -0.0120888)
(-7.14506e-19 1.12719e-18 -0.0120854)
(-1.21702e-18 9.24218e-19 -0.0120808)
(-1.34226e-18 1.43352e-18 -0.0120752)
(-3.28889e-19 7.20049e-19 -0.0120684)
(1.34633e-19 1.60625e-18 -0.0120605)
(-1.1204e-19 6.3985e-19 -0.0120515)
(-2.0024e-20 -3.69429e-20 -0.0120414)
(2.50729e-19 4.25242e-19 -0.0120303)
(4.50639e-19 7.56296e-19 -0.0120182)
(1.31525e-19 1.05765e-19 -0.012005)
(3.44567e-19 7.91255e-19 -0.0119908)
(3.87844e-19 -7.59302e-19 -0.0119756)
(-4.42103e-19 2.78748e-19 -0.0119595)
(4.65e-19 6.9975e-19 -0.0119425)
(-2.93186e-19 5.64149e-19 -0.0119246)
(-4.61536e-20 7.61103e-19 -0.0119058)
(-1.52695e-19 3.33236e-19 -0.0118863)
(8.77746e-19 1.6069e-18 -0.0118659)
(-3.17179e-19 4.77852e-19 -0.0118449)
(1.87786e-19 9.36558e-19 -0.0118232)
(-6.39695e-19 4.98284e-19 -0.0118009)
(-4.2083e-19 4.8267e-19 -0.011778)
(-8.0829e-19 8.04775e-20 -0.0118053)
(-1.13104e-18 1.57793e-18 -0.0118257)
(-6.86008e-19 9.90022e-19 -0.0118454)
(4.53939e-19 1.06449e-18 -0.0118642)
(-3.22347e-19 1.18376e-20 -0.0118821)
(-8.90654e-19 2.21229e-19 -0.0118992)
(-3.2972e-19 1.55587e-18 -0.0119154)
(1.02478e-19 -2.55856e-19 -0.0119306)
(-1.01324e-18 7.2807e-19 -0.0119448)
(-1.12928e-18 -9.24052e-20 -0.011958)
(-6.18867e-19 9.91286e-19 -0.0119702)
(-9.89863e-19 9.86217e-19 -0.0119814)
(-8.34952e-19 3.82647e-19 -0.0119915)
(3.49969e-20 1.05169e-18 -0.0120005)
(-3.89349e-19 4.40376e-19 -0.0120084)
(-1.00613e-18 -6.90356e-20 -0.0120152)
(-8.97025e-19 8.99625e-19 -0.0120209)
(-3.83434e-19 5.84677e-19 -0.0120255)
(-7.63106e-19 5.63501e-19 -0.0120289)
(-1.225e-18 8.75023e-19 -0.0120312)
(-8.84506e-19 4.72712e-19 -0.0120323)
(-1.32425e-18 1.08879e-18 -0.0120323)
(-1.16832e-18 5.13879e-19 -0.0120312)
(-1.66412e-18 9.70999e-19 -0.0120289)
(-7.27406e-19 1.09562e-18 -0.0120255)
(-1.20796e-18 9.43957e-19 -0.0120209)
(-1.34663e-18 1.54815e-18 -0.0120152)
(-3.22221e-19 6.89155e-19 -0.0120084)
(1.08195e-19 1.47194e-18 -0.0120005)
(-1.72652e-19 7.24797e-19 -0.0119915)
(1.04822e-19 3.73067e-19 -0.0119814)
(3.12553e-19 4.43203e-19 -0.0119702)
(4.42738e-19 7.6536e-19 -0.011958)
(1.66612e-19 1.38143e-19 -0.0119448)
(3.91638e-19 9.63599e-19 -0.0119306)
(3.63103e-19 -7.57093e-19 -0.0119154)
(-2.97984e-19 3.76851e-19 -0.0118992)
(5.11118e-19 7.02289e-19 -0.0118821)
(-4.40122e-19 2.96989e-19 -0.0118642)
(-6.6604e-20 7.34577e-19 -0.0118454)
(-2.19059e-19 1.2273e-19 -0.0118257)
(8.76172e-19 1.59169e-18 -0.0118053)
(-4.17672e-19 4.27043e-19 -0.0117842)
(2.50312e-19 1.03497e-18 -0.0117625)
(-6.15426e-19 6.41793e-19 -0.0117401)
(-3.88871e-19 5.35677e-19 -0.0117171)
(-9.27462e-19 3.04921e-19 -0.0117441)
(-1.0746e-18 1.59623e-18 -0.0117645)
(-8.63635e-19 1.18156e-18 -0.0117842)
(4.88654e-19 9.79298e-19 -0.0118031)
(-2.50279e-19 -8.09116e-20 -0.0118211)
(-7.684e-19 1.81923e-19 -0.0118383)
(-2.95824e-19 1.45553e-18 -0.0118545)
(5.29365e-20 -1.85186e-19 -0.0118697)
(-9.28048e-19 5.48029e-19 -0.011884)
(-1.15492e-18 -5.5609e-20 -0.0118973)
(-6.06504e-19 1.15383e-18 -0.0119095)
(-9.9981e-19 9.20591e-19 -0.0119207)
(-8.8688e-19 5.30832e-19 -0.0119308)
(2.99491e-20 1.15448e-18 -0.0119398)
(-3.7393e-19 1.88331e-19 -0.0119478)
(-9.80467e-19 -1.0061e-19 -0.0119546)
(-8.08433e-19 5.09503e-19 -0.0119603)
(-4.27716e-19 8.10128e-19 -0.0119649)
(-7.46864e-19 3.45454e-19 -0.0119683)
(-1.20627e-18 6.99629e-19 -0.0119706)
(-8.76325e-19 6.00076e-19 -0.0119718)
(-1.36134e-18 7.41601e-19 -0.0119718)
(-1.19072e-18 3.08086e-19 -0.0119706)
(-1.6472e-18 9.87066e-19 -0.0119683)
(-7.37149e-19 1.02888e-18 -0.0119649)
(-1.21e-18 8.62167e-19 -0.0119603)
(-1.36685e-18 1.65287e-18 -0.0119546)
(-3.45071e-19 5.4357e-19 -0.0119478)
(9.0974e-20 1.32832e-18 -0.0119398)
(-1.93213e-19 7.88636e-19 -0.0119308)
(2.60499e-19 9.06364e-19 -0.0119207)
(3.16827e-19 4.02096e-19 -0.0119095)
(4.92237e-19 9.20386e-19 -0.0118973)
(2.2443e-19 2.40252e-19 -0.011884)
(3.30647e-19 8.88951e-19 -0.0118697)
(4.1032e-19 -6.4532e-19 -0.0118545)
(-6.66954e-20 6.34538e-19 -0.0118383)
(5.19248e-19 7.00532e-19 -0.0118211)
(-5.36482e-19 1.50449e-19 -0.0118031)
(-1.58524e-19 5.79634e-19 -0.0117842)
(-1.85732e-19 5.81045e-20 -0.0117645)
(6.73376e-19 1.28271e-18 -0.0117441)
(-6.28883e-19 2.27884e-19 -0.0117229)
(1.81319e-19 9.55739e-19 -0.0117011)
(-7.44223e-19 5.95176e-19 -0.0116786)
(-3.1888e-19 6.38209e-19 -0.0116556)
(-2.25311e-18 6.40212e-19 -0.0116609)
(-1.15151e-18 6.44559e-19 -0.0116822)
(-1.0375e-18 1.63134e-18 -0.0117027)
(-1.00292e-18 1.29919e-18 -0.0117224)
(4.74329e-19 9.41823e-19 -0.0117414)
(-2.19725e-19 -9.48169e-20 -0.0117594)
(-7.29867e-19 2.84631e-19 -0.0117766)
(-1.60729e-19 1.17402e-18 -0.0117929)
(1.46091e-20 -1.41227e-19 -0.0118082)
(-8.08039e-19 2.81316e-19 -0.0118225)
(-1.17568e-18 5.58886e-20 -0.0118358)
(-5.96781e-19 1.2701e-18 -0.0118481)
(-1.02387e-18 8.63442e-19 -0.0118593)
(-8.72274e-19 4.89963e-19 -0.0118695)
(-3.94948e-21 1.27821e-18 -0.0118785)
(-3.77631e-19 -5.56361e-20 -0.0118865)
(-9.65643e-19 -1.29361e-19 -0.0118934)
(-7.05889e-19 1.73903e-19 -0.0118991)
(-4.17956e-19 8.83242e-19 -0.0119037)
(-7.59628e-19 3.46305e-19 -0.0119071)
(-1.20609e-18 7.57988e-19 -0.0119094)
(-8.83485e-19 4.88157e-19 -0.0119106)
(-1.40553e-18 3.96823e-19 -0.0119106)
(-1.18985e-18 2.01342e-19 -0.0119094)
(-1.62488e-18 1.05673e-18 -0.0119071)
(-7.62449e-19 9.76744e-19 -0.0119037)
(-1.21458e-18 6.40426e-19 -0.0118991)
(-1.40193e-18 1.63141e-18 -0.0118934)
(-3.46197e-19 6.11889e-19 -0.0118865)
(9.39485e-20 1.22127e-18 -0.0118785)
(-1.51504e-19 9.70037e-19 -0.0118695)
(3.00249e-19 1.06e-18 -0.0118593)
(2.96542e-19 3.0351e-19 -0.0118481)
(5.52321e-19 1.07105e-18 -0.0118358)
(2.85021e-19 4.12264e-19 -0.0118225)
(3.3095e-19 9.56407e-19 -0.0118082)
(4.92808e-19 -5.18754e-19 -0.0117929)
(7.52758e-20 7.53073e-19 -0.0117766)
(4.2448e-19 5.52127e-19 -0.0117594)
(-5.45221e-19 1.65363e-19 -0.0117414)
(-2.49886e-19 4.09275e-19 -0.0117224)
(-1.37497e-19 5.25428e-20 -0.0117027)
(3.35631e-19 8.30619e-19 -0.0116822)
(-8.88857e-19 -8.50557e-20 -0.0116609)
(2.2758e-19 1.00282e-18 -0.011639)
(-9.60667e-19 4.21465e-19 -0.0116165)
(-1.15886e-19 8.6216e-19 -0.0115934)
(-2.16073e-18 5.76435e-19 -0.0115982)
(-1.25922e-18 7.98664e-19 -0.0116195)
(-1.03026e-18 1.6863e-18 -0.0116401)
(-1.06335e-18 1.29064e-18 -0.01166)
(3.98869e-19 1.00678e-18 -0.011679)
(-1.73062e-19 -1.14899e-19 -0.0116971)
(-8.30769e-19 6.31429e-19 -0.0117143)
(-8.59682e-20 9.80503e-19 -0.0117306)
(2.7031e-20 -2.1532e-19 -0.011746)
(-7.53488e-19 1.93483e-19 -0.0117604)
(-1.13736e-18 3.47702e-20 -0.0117737)
(-5.64135e-19 1.32133e-18 -0.011786)
(-1.0202e-18 6.94016e-19 -0.0117973)
(-8.58901e-19 4.57695e-19 -0.0118075)
(-7.38957e-21 1.28012e-18 -0.0118166)
(-3.97731e-19 -2.17637e-19 -0.0118245)
(-9.80195e-19 3.82289e-21 -0.0118314)
(-6.52119e-19 1.37494e-19 -0.0118371)
(-3.90184e-19 7.84521e-19 -0.0118418)
(-7.45578e-19 1.1566e-19 -0.0118452)
(-1.20892e-18 8.09878e-19 -0.0118475)
(-9.1449e-19 3.09211e-19 -0.0118487)
(-1.44137e-18 1.58961e-19 -0.0118487)
(-1.16598e-18 1.54735e-20 -0.0118475)
(-1.6031e-18 1.07982e-18 -0.0118452)
(-7.95536e-19 9.83538e-19 -0.0118418)
(-1.2264e-18 4.55596e-19 -0.0118371)
(-1.45639e-18 1.34954e-18 -0.0118314)
(-2.74732e-19 9.92955e-19 -0.0118245)
(1.14096e-19 1.18022e-18 -0.0118166)
(-9.71886e-20 1.21246e-18 -0.0118075)
(2.59067e-19 1.02436e-18 -0.0117973)
(2.90527e-19 2.26451e-19 -0.011786)
(5.8553e-19 1.09137e-18 -0.0117737)
(3.13388e-19 4.70192e-19 -0.0117604)
(3.70662e-19 1.13579e-18 -0.011746)
(5.39911e-19 -4.35909e-19 -0.0117306)
(7.19545e-21 4.82743e-19 -0.0117143)
(3.77024e-19 4.8204e-19 -0.0116971)
(-4.99119e-19 2.71749e-19 -0.011679)
(-2.76471e-19 3.56721e-19 -0.01166)
(-1.40953e-19 -3.34048e-21 -0.0116401)
(2.38502e-19 7.47331e-19 -0.0116195)
(-8.15556e-19 -1.5748e-20 -0.0115982)
(3.75412e-19 1.17063e-18 -0.0115762)
(-1.11451e-18 3.11919e-19 -0.0115536)
(1.16954e-20 9.99291e-19 -0.0115305)
(-8.69364e-19 -1.00856e-18 -0.0115128)
(-1.76786e-18 1.22645e-19 -0.0115348)
(-1.1998e-18 7.63733e-19 -0.0115562)
(-1.00352e-18 1.71126e-18 -0.0115769)
(-9.99179e-19 1.08563e-18 -0.0115968)
(2.65252e-19 1.16347e-18 -0.0116158)
(-1.04995e-19 -1.37718e-19 -0.011634)
(-9.29787e-19 9.75358e-19 -0.0116513)
(-9.25129e-20 8.99547e-19 -0.0116677)
(-9.28477e-21 -1.51884e-19 -0.0116831)
(-7.72484e-19 2.92514e-19 -0.0116975)
(-1.08216e-18 -2.28007e-20 -0.0117109)
(-5.56568e-19 1.40909e-18 -0.0117232)
(-9.56302e-19 3.04252e-19 -0.0117345)
(-8.42545e-19 4.74158e-19 -0.0117447)
(3.08099e-20 1.0333e-18 -0.0117539)
(-4.0986e-19 -3.483e-19 -0.0117619)
(-9.85992e-19 1.66257e-19 -0.0117688)
(-6.46877e-19 3.46885e-19 -0.0117745)
(-3.72583e-19 5.96884e-19 -0.0117791)
(-7.28363e-19 -8.49684e-20 -0.0117826)
(-1.19689e-18 7.30378e-19 -0.0117849)
(-9.53456e-19 2.03558e-19 -0.0117861)
(-1.48086e-18 2.26232e-19 -0.0117861)
(-1.13831e-18 -1.44129e-19 -0.0117849)
(-1.56897e-18 1.0549e-18 -0.0117826)
(-8.36415e-19 9.97309e-19 -0.0117791)
(-1.25239e-18 3.01333e-19 -0.0117745)
(-1.47656e-18 1.05269e-18 -0.0117688)
(-2.13971e-19 1.23789e-18 -0.0117619)
(1.23129e-19 1.16216e-18 -0.0117539)