/*--------------------------------*- C++ -*----------------------------------*\
  =========                 |
  \\      /  F ield         | OpenFOAM: The Open Source CFD Toolbox
   \\    /   O peration     | Website:  https://openfoam.org
    \\  /    A nd           | Version:  7
     \\/     M anipulation  |
\*---------------------------------------------------------------------------*/
FoamFile
{
    version     2.0;
    format      ascii;
    class       volScalarField;
    location    "48000";
    object      k;
}
// * * * * * * * * * * * * * * * * * * * * * * * * * * * * * * * * * * * * * //

dimensions      [0 2 -2 0 0 0 0];

internalField   nonuniform List<scalar> 
4844
(
2.74864e-16
2.75091e-16
2.75344e-16
2.75971e-16
2.76201e-16
2.76458e-16
2.76728e-16
2.7703e-16
2.77352e-16
2.77694e-16
2.78053e-16
2.77082e-16
2.77317e-16
2.77579e-16
2.77856e-16
2.7816e-16
2.78483e-16
2.78826e-16
2.79187e-16
2.79558e-16
2.79963e-16
2.80388e-16
2.78198e-16
2.78441e-16
2.78709e-16
2.78992e-16
2.79297e-16
2.79622e-16
2.79966e-16
2.80328e-16
2.80705e-16
2.8111e-16
2.81536e-16
2.81974e-16
2.82448e-16
2.82947e-16
2.8347e-16
2.84021e-16
2.79317e-16
2.79573e-16
2.79847e-16
2.80135e-16
2.80443e-16
2.80769e-16
2.81114e-16
2.81478e-16
2.81858e-16
2.82264e-16
2.82691e-16
2.83135e-16
2.8361e-16
2.84111e-16
2.84637e-16
2.8519e-16
2.80439e-16
2.80714e-16
2.80994e-16
2.81286e-16
2.81596e-16
2.81924e-16
2.8227e-16
2.82635e-16
2.83019e-16
2.83426e-16
2.83854e-16
2.84303e-16
2.84779e-16
2.85282e-16
2.8581e-16
2.86364e-16
2.81864e-16
2.8215e-16
2.82446e-16
2.82757e-16
2.83087e-16
2.83434e-16
2.83801e-16
2.84187e-16
2.84595e-16
2.85025e-16
2.85477e-16
2.85955e-16
2.8646e-16
2.8699e-16
2.87546e-16
2.83025e-16
2.83315e-16
2.83614e-16
2.83927e-16
2.84257e-16
2.84606e-16
2.84974e-16
2.85362e-16
2.85772e-16
2.86203e-16
2.86658e-16
2.87138e-16
2.87644e-16
2.88177e-16
2.88738e-16
2.84197e-16
2.8449e-16
2.8479e-16
2.85104e-16
2.85436e-16
2.85785e-16
2.86155e-16
2.86544e-16
2.86956e-16
2.87389e-16
2.87846e-16
2.88329e-16
2.88838e-16
2.89376e-16
2.89948e-16
2.85091e-16
2.85382e-16
2.85673e-16
2.85974e-16
2.8629e-16
2.86622e-16
2.86973e-16
2.87343e-16
2.87734e-16
2.88147e-16
2.88583e-16
2.89044e-16
2.89531e-16
2.90048e-16
2.90595e-16
2.91178e-16
2.86294e-16
2.86576e-16
2.86866e-16
2.87167e-16
2.87483e-16
2.87816e-16
2.88168e-16
2.8854e-16
2.88934e-16
2.8935e-16
2.89792e-16
2.90259e-16
2.90754e-16
2.91279e-16
2.91838e-16
2.92434e-16
2.87501e-16
2.87779e-16
2.88068e-16
2.88369e-16
2.88686e-16
2.89021e-16
2.89375e-16
2.89751e-16
2.9015e-16
2.90572e-16
2.91021e-16
2.91496e-16
2.92001e-16
2.92537e-16
2.93108e-16
2.93716e-16
2.88716e-16
2.88992e-16
2.8928e-16
2.89583e-16
2.89903e-16
2.90241e-16
2.90601e-16
2.90982e-16
2.91388e-16
2.91818e-16
2.92275e-16
2.9276e-16
2.93275e-16
2.93823e-16
2.94406e-16
2.95028e-16
2.89685e-16
2.89946e-16
2.90221e-16
2.90511e-16
2.90816e-16
2.9114e-16
2.91485e-16
2.9185e-16
2.92239e-16
2.92652e-16
2.93091e-16
2.93557e-16
2.94052e-16
2.94579e-16
2.95139e-16
2.95735e-16
2.9637e-16
2.90942e-16
2.91196e-16
2.91471e-16
2.91764e-16
2.92074e-16
2.92404e-16
2.92754e-16
2.93126e-16
2.93523e-16
2.93944e-16
2.94392e-16
2.94869e-16
2.95375e-16
2.95913e-16
2.96486e-16
2.97095e-16
2.97743e-16
2.92005e-16
2.92218e-16
2.9247e-16
2.92747e-16
2.93043e-16
2.93359e-16
2.93694e-16
2.94051e-16
2.94432e-16
2.94836e-16
2.95267e-16
2.95725e-16
2.96211e-16
2.96729e-16
2.97279e-16
2.97864e-16
2.98487e-16
2.99149e-16
2.93305e-16
2.93517e-16
2.9377e-16
2.94049e-16
2.94351e-16
2.94672e-16
2.95015e-16
2.95379e-16
2.95767e-16
2.96181e-16
2.9662e-16
2.97088e-16
2.97586e-16
2.98115e-16
2.98678e-16
2.99276e-16
2.99912e-16
3.00589e-16
2.94626e-16
2.94841e-16
2.95098e-16
2.95382e-16
2.95688e-16
2.96016e-16
2.96366e-16
2.96738e-16
2.97134e-16
2.97557e-16
2.98006e-16
2.98485e-16
2.98994e-16
2.99535e-16
3.00111e-16
3.00722e-16
3.01372e-16
3.02062e-16
2.95972e-16
2.96194e-16
2.96455e-16
2.96744e-16
2.97057e-16
2.97391e-16
2.97748e-16
2.98129e-16
2.98534e-16
2.98966e-16
2.99426e-16
2.99915e-16
3.00436e-16
3.00989e-16
3.01577e-16
3.02202e-16
3.02866e-16
3.0357e-16
2.97348e-16
2.97577e-16
2.97844e-16
2.98139e-16
2.98458e-16
2.988e-16
2.99164e-16
2.99553e-16
2.99967e-16
3.00408e-16
3.00879e-16
3.01379e-16
3.01912e-16
3.02478e-16
3.03079e-16
3.03718e-16
3.04395e-16
3.05114e-16
2.98755e-16
2.98992e-16
2.99265e-16
2.99567e-16
2.99892e-16
3.00241e-16
3.00613e-16
3.01011e-16
3.01434e-16
3.01886e-16
3.02367e-16
3.02879e-16
3.03423e-16
3.04002e-16
3.04617e-16
3.0527e-16
3.05961e-16
3.06694e-16
3.00195e-16
3.0044e-16
3.00721e-16
3.01028e-16
3.01361e-16
3.01717e-16
3.02098e-16
3.02504e-16
3.02937e-16
3.03398e-16
3.0389e-16
3.04414e-16
3.04971e-16
3.05563e-16
3.06192e-16
3.06858e-16
3.07564e-16
3.08312e-16
3.01668e-16
3.01924e-16
3.02211e-16
3.02525e-16
3.02865e-16
3.03229e-16
3.03617e-16
3.04032e-16
3.04475e-16
3.04947e-16
3.0545e-16
3.05986e-16
3.06556e-16
3.07162e-16
3.07804e-16
3.08485e-16
3.09205e-16
3.09967e-16
3.03178e-16
3.03443e-16
3.03738e-16
3.04059e-16
3.04405e-16
3.04776e-16
3.05174e-16
3.05598e-16
3.0605e-16
3.06533e-16
3.07047e-16
3.07596e-16
3.08179e-16
3.08798e-16
3.09455e-16
3.1015e-16
3.10885e-16
3.11662e-16
3.04726e-16
3.05001e-16
3.05303e-16
3.0563e-16
3.05983e-16
3.06362e-16
3.06767e-16
3.072e-16
3.07663e-16
3.08156e-16
3.08683e-16
3.09243e-16
3.0984e-16
3.10473e-16
3.11144e-16
3.11854e-16
3.12604e-16
3.13397e-16
3.06314e-16
3.06598e-16
3.06906e-16
3.0724e-16
3.07599e-16
3.07985e-16
3.08399e-16
3.08841e-16
3.09314e-16
3.09819e-16
3.10357e-16
3.10931e-16
3.11541e-16
3.12188e-16
3.12875e-16
3.13599e-16
3.14364e-16
3.15172e-16
3.07944e-16
3.08237e-16
3.0855e-16
3.08889e-16
3.09255e-16
3.09648e-16
3.1007e-16
3.10522e-16
3.11005e-16
3.11521e-16
3.12071e-16
3.12658e-16
3.13282e-16
3.13945e-16
3.14646e-16
3.15386e-16
3.16167e-16
3.1699e-16
3.09618e-16
3.09917e-16
3.10234e-16
3.10578e-16
3.1095e-16
3.11351e-16
3.11781e-16
3.12242e-16
3.12736e-16
3.13263e-16
3.13827e-16
3.14427e-16
3.15065e-16
3.15743e-16
3.1646e-16
3.17216e-16
3.18013e-16
3.18852e-16
3.11336e-16
3.11638e-16
3.1196e-16
3.12309e-16
3.12687e-16
3.13095e-16
3.13533e-16
3.14004e-16
3.14508e-16
3.15048e-16
3.15624e-16
3.16238e-16
3.16891e-16
3.17584e-16
3.18318e-16
3.1909e-16
3.19903e-16
3.20758e-16
3.13097e-16
3.13402e-16
3.13727e-16
3.14081e-16
3.14465e-16
3.1488e-16
3.15328e-16
3.15808e-16
3.16323e-16
3.16875e-16
3.17464e-16
3.18093e-16
3.18761e-16
3.1947e-16
3.2022e-16
3.21009e-16
3.21839e-16
3.2271e-16
3.14582e-16
3.149e-16
3.15208e-16
3.15537e-16
3.15896e-16
3.16287e-16
3.16709e-16
3.17165e-16
3.17656e-16
3.18182e-16
3.18746e-16
3.19349e-16
3.19992e-16
3.20677e-16
3.21402e-16
3.22169e-16
3.22975e-16
3.23821e-16
3.24709e-16
3.16438e-16
3.16745e-16
3.17055e-16
3.1739e-16
3.17755e-16
3.18152e-16
3.18582e-16
3.19047e-16
3.19548e-16
3.20086e-16
3.20663e-16
3.21279e-16
3.21938e-16
3.22638e-16
3.2338e-16
3.24164e-16
3.24988e-16
3.2585e-16
3.26754e-16
3.18091e-16
3.18329e-16
3.18631e-16
3.18946e-16
3.19286e-16
3.19658e-16
3.20062e-16
3.20501e-16
3.20975e-16
3.21486e-16
3.22035e-16
3.22625e-16
3.23256e-16
3.2393e-16
3.24646e-16
3.25406e-16
3.26207e-16
3.27047e-16
3.27927e-16
3.28847e-16
3.20024e-16
3.20258e-16
3.20559e-16
3.2088e-16
3.21227e-16
3.21606e-16
3.22018e-16
3.22465e-16
3.22949e-16
3.23471e-16
3.24032e-16
3.24635e-16
3.2528e-16
3.25969e-16
3.26702e-16
3.27478e-16
3.28297e-16
3.29155e-16
3.30051e-16
3.30986e-16
3.21993e-16
3.22229e-16
3.22531e-16
3.22859e-16
3.23214e-16
3.23601e-16
3.24021e-16
3.24477e-16
3.2497e-16
3.25503e-16
3.26076e-16
3.26692e-16
3.27351e-16
3.28056e-16
3.28805e-16
3.29599e-16
3.30434e-16
3.31309e-16
3.32222e-16
3.33172e-16
3.24003e-16
3.24243e-16
3.24549e-16
3.24884e-16
3.25248e-16
3.25642e-16
3.26071e-16
3.26535e-16
3.27039e-16
3.27582e-16
3.28167e-16
3.28796e-16
3.2947e-16
3.3019e-16
3.30955e-16
3.31766e-16
3.32619e-16
3.33511e-16
3.34439e-16
3.35405e-16
3.26058e-16
3.26304e-16
3.26613e-16
3.26956e-16
3.27328e-16
3.27731e-16
3.28168e-16
3.28642e-16
3.29155e-16
3.29709e-16
3.30306e-16
3.30948e-16
3.31636e-16
3.32371e-16
3.33152e-16
3.3398e-16
3.34851e-16
3.3576e-16
3.36705e-16
3.37686e-16
3.28159e-16
3.28411e-16
3.28725e-16
3.29075e-16
3.29455e-16
3.29867e-16
3.30313e-16
3.30796e-16
3.31319e-16
3.31883e-16
3.32492e-16
3.33146e-16
3.33848e-16
3.34598e-16
3.35397e-16
3.36242e-16
3.37131e-16
3.38059e-16
3.39022e-16
3.40019e-16
3.30307e-16
3.30565e-16
3.30884e-16
3.31241e-16
3.3163e-16
3.3205e-16
3.32504e-16
3.32996e-16
3.33529e-16
3.34105e-16
3.34724e-16
3.35391e-16
3.36108e-16
3.36874e-16
3.3769e-16
3.38554e-16
3.39462e-16
3.4041e-16
3.41394e-16
3.42409e-16
3.32502e-16
3.32765e-16
3.33089e-16
3.33453e-16
3.33851e-16
3.3428e-16
3.34743e-16
3.35244e-16
3.35787e-16
3.36373e-16
3.37005e-16
3.37685e-16
3.38417e-16
3.39201e-16
3.40036e-16
3.4092e-16
3.41851e-16
3.42822e-16
3.43828e-16
3.44866e-16
3.34743e-16
3.35012e-16
3.35341e-16
3.35712e-16
3.36118e-16
3.36556e-16
3.37028e-16
3.37539e-16
3.38093e-16
3.38691e-16
3.39336e-16
3.40031e-16
3.4078e-16
3.41583e-16
3.42439e-16
3.43348e-16
3.44304e-16
3.45302e-16
3.46336e-16
3.47399e-16
3.3703e-16
3.37305e-16
3.3764e-16
3.38019e-16
3.38434e-16
3.38881e-16
3.39363e-16
3.39885e-16
3.40451e-16
3.41062e-16
3.41722e-16
3.42435e-16
3.43203e-16
3.44028e-16
3.4491e-16
3.45846e-16
3.46832e-16
3.47862e-16
3.48927e-16
3.5002e-16
3.39364e-16
3.39646e-16
3.39988e-16
3.40375e-16
3.40801e-16
3.41259e-16
3.41752e-16
3.42286e-16
3.42866e-16
3.43494e-16
3.44171e-16
3.44904e-16
3.45696e-16
3.46547e-16
3.47458e-16
3.48426e-16
3.49446e-16
3.50511e-16
3.51612e-16
3.52736e-16
3.41751e-16
3.42041e-16
3.42391e-16
3.42788e-16
3.43225e-16
3.43696e-16
3.44202e-16
3.44751e-16
3.45349e-16
3.45995e-16
3.46693e-16
3.4745e-16
3.48269e-16
3.4915e-16
3.50094e-16
3.51098e-16
3.52156e-16
3.53259e-16
3.54395e-16
3.55551e-16
3.44199e-16
3.44498e-16
3.44857e-16
3.45266e-16
3.45717e-16
3.46202e-16
3.46724e-16
3.4729e-16
3.47908e-16
3.48576e-16
3.49299e-16
3.50083e-16
3.50932e-16
3.51846e-16
3.52826e-16
3.53868e-16
3.54963e-16
3.56103e-16
3.57273e-16
3.58454e-16
3.46719e-16
3.47028e-16
3.47399e-16
3.47821e-16
3.48288e-16
3.48789e-16
3.49329e-16
3.49915e-16
3.50556e-16
3.51249e-16
3.51998e-16
3.52811e-16
3.53691e-16
3.54639e-16
3.55654e-16
3.56731e-16
3.57861e-16
3.59031e-16
3.60224e-16
3.61419e-16
3.49326e-16
3.49648e-16
3.50032e-16
3.50469e-16
3.50953e-16
3.51471e-16
3.52029e-16
3.52636e-16
3.53302e-16
3.54019e-16
3.54794e-16
3.55635e-16
3.56545e-16
3.57523e-16
3.58568e-16
3.59672e-16
3.60825e-16
3.62012e-16
3.63214e-16
3.64407e-16
3.52037e-16
3.52371e-16
3.52769e-16
3.53221e-16
3.53722e-16
3.54256e-16
3.54833e-16
3.55458e-16
3.56147e-16
3.56886e-16
3.57683e-16
3.58546e-16
3.59478e-16
3.60477e-16
3.61539e-16
3.62656e-16
3.63815e-16
3.64999e-16
3.6619e-16
3.67362e-16
3.54863e-16
3.5521e-16
3.55621e-16
3.56085e-16
3.566e-16
3.57147e-16
3.57737e-16
3.58377e-16
3.59081e-16
3.59833e-16
3.60643e-16
3.61517e-16
3.62458e-16
3.63462e-16
3.64523e-16
3.65633e-16
3.66777e-16
3.67937e-16
3.69096e-16
3.70232e-16
3.57806e-16
3.58163e-16
3.58584e-16
3.59057e-16
3.59579e-16
3.60132e-16
3.60727e-16
3.61371e-16
3.62079e-16
3.6283e-16
3.63637e-16
3.64507e-16
3.65438e-16
3.66427e-16
3.67467e-16
3.68548e-16
3.69656e-16
3.70774e-16
3.7189e-16
3.72985e-16
3.6085e-16
3.61213e-16
3.61639e-16
3.62113e-16
3.62633e-16
3.63181e-16
3.6377e-16
3.64403e-16
3.65098e-16
3.65831e-16
3.66616e-16
3.67461e-16
3.68364e-16
3.69318e-16
3.70318e-16
3.71355e-16
3.72415e-16
3.73485e-16
3.74557e-16
3.75624e-16
3.63956e-16
3.64318e-16
3.64742e-16
3.65209e-16
3.65714e-16
3.66245e-16
3.66814e-16
3.6742e-16
3.68083e-16
3.68779e-16
3.69527e-16
3.70331e-16
3.71189e-16
3.72095e-16
3.73047e-16
3.74036e-16
3.75051e-16
3.76085e-16
3.77138e-16
3.78212e-16
3.67062e-16
3.67416e-16
3.67829e-16
3.68279e-16
3.68761e-16
3.69265e-16
3.698e-16
3.70366e-16
3.70983e-16
3.71631e-16
3.7233e-16
3.73085e-16
3.73895e-16
3.74755e-16
3.75665e-16
3.76621e-16
3.77616e-16
3.7865e-16
3.79733e-16
3.80883e-16
3.7009e-16
3.70428e-16
3.70824e-16
3.71253e-16
3.71711e-16
3.72182e-16
3.72679e-16
3.73199e-16
3.73767e-16
3.74366e-16
3.75019e-16
3.75733e-16
3.76508e-16
3.77342e-16
3.7824e-16
3.79202e-16
3.80231e-16
3.81334e-16
3.82537e-16
3.83876e-16
3.72973e-16
3.73295e-16
3.73672e-16
3.74079e-16
3.74523e-16
3.74965e-16
3.75427e-16
3.75909e-16
3.76445e-16
3.77011e-16
3.7764e-16
3.7834e-16
3.79116e-16
3.79969e-16
3.80913e-16
3.81957e-16
3.83113e-16
3.84405e-16
3.85881e-16
3.87614e-16
3.77203e-16
3.7763e-16
3.78076e-16
3.78545e-16
3.79086e-16
3.79656e-16
3.80304e-16
3.81043e-16
3.81886e-16
3.8284e-16
3.83934e-16
3.85189e-16
3.86639e-16
3.88333e-16
3.90362e-16
3.92861e-16
3.81838e-16
3.82475e-16
3.83218e-16
3.84089e-16
3.85114e-16
3.86314e-16
3.87739e-16
3.8944e-16
3.91489e-16
3.93983e-16
3.9709e-16
4.01045e-16
2.85616e-16
2.85043e-16
2.86787e-16
2.86203e-16
2.87972e-16
2.8738e-16
2.89178e-16
2.88578e-16
2.87993e-16
2.90405e-16
2.89798e-16
2.89213e-16
2.91659e-16
2.91042e-16
2.90453e-16
2.89904e-16
2.92939e-16
2.92311e-16
2.91716e-16
2.9116e-16
2.94247e-16
2.93608e-16
2.93005e-16
2.92439e-16
2.95586e-16
2.94935e-16
2.94322e-16
2.93747e-16
2.932e-16
2.96957e-16
2.96293e-16
2.95669e-16
2.95083e-16
2.9453e-16
2.98359e-16
2.97684e-16
2.97049e-16
2.96452e-16
2.95889e-16
2.99795e-16
2.99107e-16
2.98462e-16
2.97855e-16
2.97282e-16
3.01266e-16
3.00565e-16
2.99909e-16
2.99294e-16
2.98711e-16
3.02771e-16
3.02058e-16
3.01391e-16
3.00767e-16
3.00177e-16
3.04312e-16
3.03586e-16
3.02908e-16
3.02275e-16
3.01679e-16
3.01093e-16
3.05889e-16
3.0515e-16
3.04461e-16
3.03818e-16
3.03215e-16
3.02635e-16
3.07503e-16
3.0675e-16
3.06048e-16
3.05395e-16
3.04785e-16
3.04205e-16
3.03666e-16
3.09154e-16
3.08386e-16
3.07672e-16
3.07007e-16
3.06387e-16
3.05804e-16
3.05269e-16
3.04778e-16
3.10842e-16
3.10059e-16
3.09331e-16
3.08654e-16
3.08023e-16
3.07433e-16
3.06896e-16
3.06407e-16
3.05947e-16
3.12569e-16
3.1177e-16
3.11027e-16
3.10337e-16
3.09694e-16
3.09096e-16
3.0855e-16
3.08058e-16
3.07601e-16
3.07177e-16
3.14334e-16
3.13519e-16
3.12761e-16
3.12056e-16
3.11401e-16
3.10792e-16
3.10237e-16
3.09737e-16
3.09278e-16
3.08856e-16
3.1614e-16
3.15307e-16
3.14533e-16
3.13813e-16
3.13144e-16
3.12524e-16
3.11958e-16
3.11449e-16
3.10984e-16
3.10559e-16
3.17987e-16
3.17137e-16
3.16346e-16
3.1561e-16
3.14927e-16
3.14295e-16
3.13718e-16
3.13197e-16
3.12724e-16
3.12294e-16
3.19878e-16
3.1901e-16
3.18202e-16
3.1745e-16
3.16753e-16
3.16108e-16
3.15518e-16
3.14986e-16
3.14504e-16
3.14066e-16
3.21818e-16
3.20931e-16
3.20105e-16
3.19337e-16
3.18625e-16
3.17967e-16
3.17365e-16
3.16821e-16
3.16329e-16
3.15882e-16
3.23809e-16
3.22904e-16
3.22061e-16
3.21276e-16
3.20548e-16
3.19877e-16
3.19263e-16
3.18707e-16
3.18204e-16
3.17748e-16
3.25857e-16
3.24934e-16
3.24073e-16
3.23272e-16
3.22529e-16
3.21844e-16
3.21218e-16
3.2065e-16
3.20137e-16
3.19671e-16
3.27966e-16
3.27025e-16
3.26147e-16
3.25329e-16
3.24572e-16
3.23874e-16
3.23235e-16
3.22656e-16
3.22132e-16
3.21655e-16
3.30138e-16
3.2918e-16
3.28285e-16
3.27451e-16
3.26679e-16
3.25968e-16
3.25318e-16
3.24727e-16
3.24193e-16
3.23706e-16
3.32374e-16
3.31399e-16
3.30486e-16
3.29636e-16
3.2885e-16
3.28126e-16
3.27464e-16
3.26863e-16
3.26318e-16
3.25821e-16
3.34669e-16
3.33675e-16
3.32744e-16
3.31878e-16
3.31077e-16
3.30341e-16
3.29667e-16
3.29055e-16
3.285e-16
3.27994e-16
3.37017e-16
3.36002e-16
3.35051e-16
3.34167e-16
3.33351e-16
3.32601e-16
3.31915e-16
3.31292e-16
3.30727e-16
3.30211e-16
2.8563e-16
2.86801e-16
2.87986e-16
2.8919e-16
2.90418e-16
2.91671e-16
2.92951e-16
2.9426e-16
2.95599e-16
2.9697e-16
2.98372e-16
2.99808e-16
3.01278e-16
3.02783e-16
3.04323e-16
3.059e-16
3.07513e-16
3.09165e-16
3.10854e-16
3.12582e-16
3.14349e-16
3.16157e-16
3.18006e-16
3.19898e-16
3.21837e-16
3.23826e-16
3.25868e-16
3.27969e-16
3.30131e-16
3.32357e-16
3.34644e-16
3.36987e-16
2.8509e-16
2.86252e-16
2.87428e-16
2.88623e-16
2.8984e-16
2.91083e-16
2.92352e-16
2.9365e-16
2.94977e-16
2.96335e-16
2.97724e-16
2.99147e-16
3.00603e-16
3.02094e-16
3.0362e-16
3.05182e-16
3.06782e-16
3.08419e-16
3.10094e-16
3.11809e-16
3.13563e-16
3.15358e-16
3.17194e-16
3.19073e-16
3.20996e-16
3.22965e-16
3.24984e-16
3.27056e-16
3.29184e-16
3.31373e-16
3.33624e-16
3.35939e-16
3.38315e-16
2.84582e-16
2.85735e-16
2.86902e-16
2.88088e-16
2.89296e-16
2.90529e-16
2.91788e-16
2.93075e-16
2.94391e-16
2.95737e-16
2.97115e-16
2.98526e-16
2.99969e-16
3.01447e-16
3.0296e-16
3.04509e-16
3.06095e-16
3.07719e-16
3.09381e-16
3.11083e-16
3.12825e-16
3.14607e-16
3.16432e-16
3.18299e-16
3.20211e-16
3.22167e-16
3.2417e-16
3.26223e-16
3.28326e-16
3.30485e-16
3.32702e-16
3.34985e-16
3.37338e-16
3.39771e-16
3.42294e-16
3.44912e-16
3.47626e-16
3.50422e-16
2.84103e-16
2.85249e-16
2.86408e-16
2.87585e-16
2.88784e-16
2.90007e-16
2.91257e-16
2.92533e-16
2.93839e-16
2.95175e-16
2.96541e-16
2.9794e-16
2.99372e-16
3.00838e-16
3.02339e-16
3.03875e-16
3.05448e-16
3.07058e-16
3.08707e-16
3.10396e-16
3.12124e-16
3.13894e-16
3.15706e-16
3.1756e-16
3.19458e-16
3.214e-16
3.23387e-16
3.25419e-16
3.27499e-16
3.29629e-16
3.31813e-16
3.34058e-16
3.36372e-16
3.38767e-16
3.41255e-16
3.43842e-16
3.4653e-16
3.49308e-16
2.83652e-16
2.84791e-16
2.85943e-16
2.87112e-16
2.88303e-16
2.89517e-16
2.90756e-16
2.92023e-16
2.93319e-16
2.94644e-16
2.96e-16
2.97388e-16
2.98809e-16
3.00263e-16
3.01752e-16
3.03276e-16
3.04836e-16
3.06434e-16
3.0807e-16
3.09744e-16
3.11459e-16
3.13216e-16
3.15014e-16
3.16854e-16
3.18738e-16
3.20665e-16
3.22636e-16
3.24651e-16
3.26711e-16
3.28818e-16
3.30975e-16
3.3319e-16
3.3547e-16
3.37829e-16
3.40279e-16
3.42829e-16
3.45483e-16
3.48234e-16
2.83226e-16
2.84362e-16
2.85508e-16
2.86669e-16
2.87851e-16
2.89056e-16
2.90286e-16
2.91544e-16
2.9283e-16
2.94145e-16
2.95491e-16
2.96868e-16
2.98278e-16
2.99721e-16
3.01198e-16
3.0271e-16
3.04258e-16
3.05843e-16
3.07466e-16
3.09127e-16
3.10829e-16
3.12571e-16
3.14355e-16
3.16182e-16
3.18052e-16
3.19965e-16
3.21921e-16
3.23921e-16
3.25964e-16
3.28053e-16
3.3019e-16
3.32381e-16
3.34634e-16
3.36962e-16
3.39376e-16
3.41889e-16
3.44508e-16
3.47233e-16
3.50047e-16
2.82822e-16
2.83957e-16
2.85099e-16
2.86254e-16
2.87428e-16
2.88624e-16
2.89845e-16
2.91093e-16
2.9237e-16
2.93675e-16
2.95011e-16
2.96378e-16
2.97777e-16
2.9921e-16
3.00676e-16
3.02176e-16
3.03712e-16
3.05285e-16
3.06895e-16
3.08544e-16
3.10232e-16
3.11961e-16
3.13731e-16
3.15543e-16
3.17399e-16
3.19297e-16
3.21239e-16
3.23224e-16
3.25252e-16
3.27324e-16
3.29443e-16
3.31613e-16
3.33843e-16
3.36143e-16
3.38525e-16
3.41002e-16
3.43583e-16
3.46269e-16
3.49051e-16
2.8244e-16
2.83573e-16
2.84713e-16
2.85864e-16
2.87031e-16
2.88219e-16
2.89432e-16
2.90671e-16
2.91938e-16
2.93234e-16
2.9456e-16
2.95918e-16
2.97307e-16
2.98728e-16
3.00184e-16
3.01673e-16
3.03198e-16
3.04759e-16
3.06357e-16
3.07993e-16
3.09669e-16
3.11384e-16
3.1314e-16
3.14939e-16
3.1678e-16
3.18665e-16
3.20592e-16
3.22562e-16
3.24575e-16
3.26632e-16
3.28734e-16
3.30887e-16
3.33097e-16
3.35373e-16
3.37728e-16
3.40174e-16
3.4272e-16
3.4537e-16
3.48116e-16
2.8208e-16
2.83211e-16
2.8435e-16
2.85498e-16
2.86659e-16
2.87841e-16
2.89045e-16
2.90276e-16
2.91534e-16
2.92821e-16
2.94138e-16
2.95486e-16
2.96865e-16
2.98277e-16
2.99722e-16
3.01201e-16
3.02715e-16
3.04264e-16
3.05851e-16
3.07475e-16
3.09138e-16
3.10841e-16
3.12584e-16
3.1437e-16
3.16197e-16
3.18068e-16
3.19981e-16
3.21937e-16
3.23936e-16
3.25978e-16
3.28065e-16
3.30202e-16
3.32394e-16
3.3465e-16
3.36982e-16
3.39401e-16
3.41917e-16
3.44533e-16
3.47244e-16
2.8174e-16
2.8287e-16
2.84008e-16
2.85153e-16
2.8631e-16
2.87486e-16
2.88684e-16
2.89907e-16
2.91157e-16
2.92435e-16
2.93743e-16
2.95082e-16
2.96451e-16
2.97854e-16
2.99289e-16
3.00758e-16
3.02262e-16
3.03801e-16
3.05377e-16
3.0699e-16
3.08641e-16
3.10332e-16
3.12063e-16
3.13836e-16
3.1565e-16
3.17507e-16
3.19407e-16
3.21349e-16
3.23335e-16
3.25363e-16
3.27437e-16
3.29559e-16
3.31735e-16
3.33974e-16
3.36285e-16
3.38681e-16
3.4117e-16
3.43755e-16
3.46434e-16
2.81419e-16
2.82547e-16
2.83683e-16
2.84827e-16
2.85982e-16
2.87153e-16
2.88345e-16
2.89561e-16
2.90804e-16
2.92075e-16
2.93375e-16
2.94705e-16
2.96066e-16
2.9746e-16
2.98886e-16
3.00346e-16
3.0184e-16
3.03369e-16
3.04935e-16
3.06538e-16
3.08178e-16
3.09858e-16
3.11577e-16
3.13338e-16
3.1514e-16
3.16985e-16
3.18872e-16
3.20802e-16
3.22774e-16
3.2479e-16
3.2685e-16
3.28959e-16
3.31121e-16
3.33344e-16
3.35638e-16
3.38013e-16
3.40478e-16
3.43036e-16
3.45685e-16
2.82233e-16
2.83372e-16
2.84518e-16
2.85672e-16
2.8684e-16
2.88028e-16
2.89239e-16
2.90475e-16
2.9174e-16
2.93032e-16
2.94355e-16
2.95709e-16
2.97094e-16
2.98512e-16
2.99964e-16
3.01449e-16
3.02969e-16
3.04526e-16
3.06119e-16
3.07749e-16
3.09419e-16
3.11128e-16
3.12878e-16
3.14669e-16
3.16502e-16
3.18377e-16
3.20295e-16
3.22255e-16
3.24259e-16
3.26308e-16
3.28404e-16
3.30553e-16
3.32763e-16
3.35041e-16
3.37399e-16
3.39843e-16
3.42376e-16
3.44998e-16
2.8308e-16
2.84228e-16
2.85383e-16
2.86549e-16
2.87733e-16
2.8894e-16
2.90172e-16
2.9143e-16
2.92717e-16
2.94033e-16
2.9538e-16
2.96758e-16
2.98168e-16
2.99612e-16
3.01089e-16
3.02601e-16
3.04149e-16
3.05733e-16
3.07355e-16
3.09015e-16
3.10715e-16
3.12455e-16
3.14236e-16
3.16058e-16
3.17923e-16
3.1983e-16
3.2178e-16
3.23773e-16
3.25811e-16
3.27896e-16
3.30034e-16
3.32232e-16
3.34497e-16
3.36839e-16
3.39265e-16
3.41778e-16
3.44376e-16
2.82822e-16
2.83967e-16
2.8512e-16
2.86284e-16
2.87465e-16
2.88668e-16
2.89894e-16
2.91147e-16
2.92429e-16
2.93739e-16
2.95079e-16
2.9645e-16
2.97854e-16
2.9929e-16
3.0076e-16
3.02265e-16
3.03805e-16
3.05381e-16
3.06995e-16
3.08647e-16
3.10338e-16
3.12069e-16
3.13841e-16
3.15655e-16
3.1751e-16
3.19408e-16
3.21348e-16
3.23331e-16
3.25359e-16
3.27435e-16
3.29564e-16
3.31751e-16
3.34005e-16
3.36334e-16
3.38745e-16
3.41241e-16
3.4382e-16
2.83719e-16
2.84874e-16
2.86039e-16
2.87219e-16
2.88418e-16
2.89642e-16
2.9089e-16
2.92167e-16
2.93471e-16
2.94806e-16
2.96171e-16
2.97569e-16
2.98998e-16
3.00462e-16
3.0196e-16
3.03493e-16
3.05062e-16
3.06669e-16
3.08313e-16
3.09997e-16
3.1172e-16
3.13484e-16
3.1529e-16
3.17137e-16
3.19026e-16
3.20958e-16
3.22933e-16
3.24953e-16
3.2702e-16
3.29141e-16
3.31319e-16
3.33564e-16
3.35883e-16
3.38282e-16
3.40763e-16
3.43325e-16
2.83504e-16
2.84657e-16
2.8582e-16
2.86997e-16
2.88195e-16
2.89414e-16
2.90659e-16
2.91931e-16
2.93231e-16
2.9456e-16
2.9592e-16
2.97312e-16
2.98736e-16
3.00194e-16
3.01686e-16
3.03213e-16
3.04776e-16
3.06376e-16
3.08013e-16
3.0969e-16
3.11407e-16
3.13164e-16
3.14962e-16
3.16802e-16
3.18683e-16
3.20608e-16
3.22575e-16
3.24588e-16
3.26649e-16
3.28762e-16
3.30933e-16
3.3317e-16
3.3548e-16
3.37869e-16
3.40338e-16
3.42886e-16
2.84449e-16
2.85616e-16
2.86795e-16
2.87992e-16
2.8921e-16
2.90452e-16
2.9172e-16
2.93016e-16
2.94341e-16
2.95697e-16
2.97084e-16
2.98503e-16
2.99955e-16
3.01442e-16
3.02963e-16
3.0452e-16
3.06114e-16
3.07746e-16
3.09417e-16
3.11127e-16
3.12878e-16
3.1467e-16
3.16503e-16
3.18378e-16
3.20296e-16
3.22256e-16
3.24262e-16
3.26317e-16
3.28423e-16
3.30588e-16
3.32818e-16
3.35121e-16
3.37501e-16
3.3996e-16
3.42496e-16
2.85433e-16
2.86616e-16
2.87813e-16
2.8903e-16
2.90269e-16
2.91535e-16
2.92827e-16
2.94149e-16
2.95501e-16
2.96883e-16
2.98298e-16
2.99746e-16
3.01227e-16
3.02744e-16
3.04296e-16
3.05884e-16
3.07511e-16
3.09176e-16
3.1088e-16
3.12625e-16
3.14411e-16
3.16238e-16
3.18107e-16
3.20018e-16
3.21973e-16
3.23973e-16
3.26021e-16
3.28121e-16
3.3028e-16
3.32503e-16
3.34799e-16
3.37171e-16
3.39621e-16
3.42146e-16
2.85287e-16
2.86469e-16
2.87664e-16
2.88879e-16
2.90116e-16
2.91378e-16
2.92668e-16
2.93986e-16
2.95333e-16
2.96712e-16
2.98122e-16
2.99566e-16
3.01043e-16
3.02554e-16
3.04101e-16
3.05685e-16
3.07306e-16
3.08966e-16
3.10665e-16
3.12404e-16
3.14185e-16
3.16006e-16
3.17869e-16
3.19774e-16
3.21723e-16
3.23716e-16
3.25758e-16
3.27853e-16
3.30005e-16
3.32222e-16
3.34511e-16
3.36875e-16
3.39316e-16
3.4183e-16
2.85163e-16
2.86344e-16
2.87539e-16
2.88752e-16
2.89988e-16
2.91248e-16
2.92534e-16
2.93849e-16
2.95194e-16
2.96569e-16
2.97975e-16
2.99414e-16
3.00887e-16
3.02394e-16
3.03937e-16
3.05516e-16
3.07132e-16
3.08787e-16
3.10481e-16
3.12215e-16
3.1399e-16
3.15806e-16
3.17663e-16
3.19563e-16
3.21506e-16
3.23494e-16
3.2553e-16
3.27618e-16
3.29765e-16
3.31975e-16
3.34257e-16
3.36614e-16
3.39045e-16
3.41549e-16
2.85059e-16
2.8624e-16
2.87435e-16
2.88648e-16
2.89883e-16
2.91141e-16
2.92426e-16
2.93738e-16
2.9508e-16
2.96452e-16
2.97855e-16
2.99291e-16
3.0076e-16
3.02263e-16
3.03802e-16
3.05377e-16
3.06989e-16
3.08639e-16
3.10329e-16
3.12058e-16
3.13828e-16
3.15639e-16
3.17491e-16
3.19386e-16
3.21323e-16
3.23306e-16
3.25336e-16
3.27419e-16
3.29559e-16
3.31764e-16
3.34039e-16
3.36388e-16
3.38811e-16
3.41306e-16
2.86147e-16
2.87348e-16
2.88564e-16
2.89799e-16
2.91058e-16
2.92341e-16
2.93653e-16
2.94992e-16
2.96362e-16
2.97762e-16
2.99195e-16
3.00661e-16
3.02161e-16
3.03696e-16
3.05268e-16
3.06876e-16
3.08523e-16
3.10209e-16
3.11934e-16
3.137e-16
3.15506e-16
3.17354e-16
3.19244e-16
3.21177e-16
3.23154e-16
3.25179e-16
3.27257e-16
3.29392e-16
3.31591e-16
3.3386e-16
3.36203e-16
3.38618e-16
3.41104e-16
2.86089e-16
2.87291e-16
2.88508e-16
2.89743e-16
2.91001e-16
2.92284e-16
2.93594e-16
2.94931e-16
2.96299e-16
2.97697e-16
2.99128e-16
3.00591e-16
3.02089e-16
3.03621e-16
3.0519e-16
3.06795e-16
3.08439e-16
3.10122e-16
3.11844e-16
3.13606e-16
3.15409e-16
3.17253e-16
3.19139e-16
3.21068e-16
3.23041e-16
3.25062e-16
3.27135e-16
3.29266e-16
3.31461e-16
3.33725e-16
3.36062e-16
3.38471e-16
3.4095e-16
2.87246e-16
2.8847e-16
2.89709e-16
2.90969e-16
2.92252e-16
2.93561e-16
2.94898e-16
2.96264e-16
2.97661e-16
2.9909e-16
3.00552e-16
3.02048e-16
3.03578e-16
3.05145e-16
3.06748e-16
3.08389e-16
3.1007e-16
3.11789e-16
3.13549e-16
3.1535e-16
3.17191e-16
3.19074e-16
3.21e-16
3.2297e-16
3.24988e-16
3.27058e-16
3.29185e-16
3.31376e-16
3.33636e-16
3.35969e-16
3.38374e-16
3.40847e-16
2.87237e-16
2.88463e-16
2.89704e-16
2.90964e-16
2.92247e-16
2.93556e-16
2.94893e-16
2.96258e-16
2.97655e-16
2.99083e-16
3.00543e-16
3.02038e-16
3.03567e-16
3.05133e-16
3.06735e-16
3.08375e-16
3.10054e-16
3.11772e-16
3.13531e-16
3.15329e-16
3.17169e-16
3.1905e-16
3.20974e-16
3.22943e-16
3.24959e-16
3.27027e-16
3.29152e-16
3.3134e-16
3.33598e-16
3.35928e-16
3.3833e-16
3.408e-16
2.88469e-16
2.89718e-16
2.90983e-16
2.92268e-16
2.93578e-16
2.94915e-16
2.96281e-16
2.97678e-16
2.99106e-16
3.00567e-16
3.02061e-16
3.0359e-16
3.05156e-16
3.06758e-16
3.08398e-16
3.10076e-16
3.11794e-16
3.13552e-16
3.15351e-16
3.1719e-16
3.19071e-16
3.20994e-16
3.22962e-16
3.24977e-16
3.27045e-16
3.29169e-16
3.31357e-16
3.33614e-16
3.35943e-16
3.38344e-16
3.40813e-16
2.88515e-16
2.89765e-16
2.91032e-16
2.9232e-16
2.93631e-16
2.94969e-16
2.96336e-16
2.97733e-16
2.99161e-16
3.00623e-16
3.02118e-16
3.03648e-16
3.05214e-16
3.06817e-16
3.08458e-16
3.10137e-16
3.11856e-16
3.13615e-16
3.15414e-16
3.17254e-16
3.19136e-16
3.2106e-16
3.23029e-16
3.25045e-16
3.27114e-16
3.29239e-16
3.31428e-16
3.33686e-16
3.36017e-16
3.38419e-16
3.4089e-16
2.88586e-16
2.89839e-16
2.91108e-16
2.92398e-16
2.93711e-16
2.95051e-16
2.9642e-16
2.97819e-16
2.99249e-16
3.00712e-16
3.02209e-16
3.0374e-16
3.05308e-16
3.06913e-16
3.08555e-16
3.10236e-16
3.11957e-16
3.13718e-16
3.15519e-16
3.17362e-16
3.19246e-16
3.21173e-16
3.23144e-16
3.25163e-16
3.27233e-16
3.29361e-16
3.31553e-16
3.33814e-16
3.36148e-16
3.38554e-16
3.4103e-16
2.88682e-16
2.89938e-16
2.9121e-16
2.92503e-16
2.93819e-16
2.95162e-16
2.96533e-16
2.97935e-16
2.99368e-16
3.00833e-16
3.02333e-16
3.03867e-16
3.05437e-16
3.07044e-16
3.0869e-16
3.10374e-16
3.12097e-16
3.13861e-16
3.15666e-16
3.17512e-16
3.19399e-16
3.2133e-16
3.23305e-16
3.25327e-16
3.27402e-16
3.29534e-16
3.31731e-16
3.33996e-16
3.36335e-16
3.38747e-16
3.41229e-16
2.88805e-16
2.90064e-16
2.91339e-16
2.92635e-16
2.93955e-16
2.95301e-16
2.96676e-16
2.98081e-16
2.99517e-16
3.00986e-16
3.02489e-16
3.04027e-16
3.05601e-16
3.07212e-16
3.08861e-16
3.10548e-16
3.12276e-16
3.14044e-16
3.15853e-16
3.17703e-16
3.19595e-16
3.2153e-16
3.2351e-16
3.25537e-16
3.27617e-16
3.29754e-16
3.31956e-16
3.34227e-16
3.36573e-16
3.38992e-16
3.41482e-16
2.88954e-16
2.90216e-16
2.91495e-16
2.92795e-16
2.94119e-16
2.95469e-16
2.96848e-16
2.98257e-16
2.99698e-16
3.01171e-16
3.02678e-16
3.0422e-16
3.05798e-16
3.07414e-16
3.09067e-16
3.1076e-16
3.12493e-16
3.14266e-16
3.1608e-16
3.17935e-16
3.19833e-16
3.21773e-16
3.23758e-16
3.25792e-16
3.27877e-16
3.3002e-16
3.32228e-16
3.34506e-16
3.36858e-16
3.39286e-16
3.41785e-16
2.89129e-16
2.90396e-16
2.91679e-16
2.92983e-16
2.94311e-16
2.95666e-16
2.97049e-16
2.98463e-16
2.99909e-16
3.01387e-16
3.02899e-16
3.04446e-16
3.0603e-16
3.07651e-16
3.0931e-16
3.11008e-16
3.12746e-16
3.14525e-16
3.16345e-16
3.18207e-16
3.2011e-16
3.22057e-16
3.24049e-16
3.26088e-16
3.2818e-16
3.3033e-16
3.32544e-16
3.34829e-16
3.3719e-16
3.39627e-16
3.42137e-16
2.89332e-16
2.90602e-16
2.9189e-16
2.93199e-16
2.94532e-16
2.95892e-16
2.97281e-16
2.987e-16
3.00151e-16
3.01635e-16
3.03153e-16
3.04707e-16
3.06296e-16
3.07923e-16
3.09588e-16
3.11293e-16
3.13038e-16
3.14823e-16
3.1665e-16
3.18518e-16
3.20429e-16
3.22383e-16
3.24382e-16
3.26428e-16
3.28527e-16
3.30684e-16
3.32906e-16
3.35199e-16
3.37569e-16
3.40016e-16
3.42537e-16
2.89561e-16
2.90837e-16
2.9213e-16
2.93444e-16
2.94783e-16
2.96149e-16
2.97543e-16
2.98969e-16
3.00426e-16
3.01916e-16
3.03441e-16
3.05001e-16
3.06597e-16
3.08231e-16
3.09903e-16
3.11615e-16
3.13367e-16
3.1516e-16
3.16995e-16
3.18871e-16
3.2079e-16
3.22752e-16
3.24758e-16
3.26813e-16
3.2892e-16
3.31085e-16
3.33315e-16
3.35618e-16
3.37997e-16
3.40456e-16
3.42991e-16
2.89818e-16
2.91099e-16
2.92398e-16
2.93718e-16
2.95063e-16
2.96435e-16
2.97837e-16
2.99269e-16
3.00733e-16
3.02231e-16
3.03762e-16
3.0533e-16
3.06934e-16
3.08575e-16
3.10256e-16
3.11976e-16
3.13736e-16
3.15538e-16
3.17381e-16
3.19266e-16
3.21194e-16
3.23165e-16
3.2518e-16
3.27244e-16
3.2936e-16
3.31535e-16
3.33775e-16
3.36088e-16
3.3848e-16
3.40952e-16
3.43503e-16
2.90102e-16
2.91389e-16
2.92695e-16
2.94022e-16
2.95374e-16
2.96753e-16
2.98162e-16
2.99602e-16
3.01073e-16
3.02579e-16
3.04119e-16
3.05694e-16
3.07307e-16
3.08957e-16
3.10647e-16
3.12376e-16
3.14146e-16
3.15957e-16
3.1781e-16
3.19705e-16
3.21643e-16
3.23624e-16
3.2565e-16
3.27724e-16
3.2985e-16
3.32035e-16
3.34287e-16