/*--------------------------------*- C++ -*----------------------------------*\
  =========                 |
  \\      /  F ield         | OpenFOAM: The Open Source CFD Toolbox
   \\    /   O peration     | Website:  https://openfoam.org
    \\  /    A nd           | Version:  7
     \\/     M anipulation  |
\*---------------------------------------------------------------------------*/
FoamFile
{
    version     2.0;
    format      ascii;
    class       volScalarField;
    location    "48000";
    object      omega;
}
// * * * * * * * * * * * * * * * * * * * * * * * * * * * * * * * * * * * * * //

dimensions      [0 0 -1 0 0 0 0];

internalField   nonuniform List<scalar> 
4844
(
0.03515
0.0351601
0.035171
0.0351905
0.0352005
0.0352114
0.0352232
0.0352358
0.0352493
0.0352635
0.0352786
0.035231
0.035241
0.0352518
0.0352636
0.0352762
0.0352896
0.0353038
0.0353188
0.0353347
0.0353512
0.0353683
0.0352716
0.0352815
0.0352923
0.035304
0.0353165
0.0353299
0.0353441
0.0353591
0.0353748
0.0353913
0.0354084
0.0354262
0.0354446
0.0354634
0.0354828
0.0355026
0.0353123
0.0353221
0.0353328
0.0353444
0.0353569
0.0353702
0.0353844
0.0353993
0.035415
0.0354314
0.0354485
0.0354662
0.0354845
0.0355033
0.0355225
0.0355422
0.035353
0.0353627
0.0353733
0.0353849
0.0353973
0.0354106
0.0354246
0.0354395
0.0354551
0.0354715
0.0354885
0.0355061
0.0355243
0.035543
0.0355622
0.0355818
0.0354033
0.0354138
0.0354253
0.0354377
0.0354509
0.0354649
0.0354797
0.0354952
0.0355115
0.0355284
0.035546
0.0355641
0.0355828
0.0356018
0.0356213
0.0354438
0.0354543
0.0354657
0.035478
0.0354912
0.0355051
0.0355198
0.0355353
0.0355515
0.0355683
0.0355858
0.0356039
0.0356224
0.0356414
0.0356609
0.0354843
0.0354948
0.0355061
0.0355183
0.0355314
0.0355453
0.0355599
0.0355753
0.0355914
0.0356082
0.0356256
0.0356435
0.0356621
0.0356811
0.0357007
0.0355153
0.0355248
0.0355352
0.0355465
0.0355586
0.0355716
0.0355854
0.0356
0.0356153
0.0356313
0.035648
0.0356654
0.0356833
0.0357019
0.0357211
0.0357409
0.0355557
0.0355652
0.0355755
0.0355867
0.0355988
0.0356117
0.0356254
0.03564
0.0356552
0.0356712
0.0356879
0.0357054
0.0357234
0.0357421
0.0357615
0.0357816
0.0355961
0.0356055
0.0356158
0.0356269
0.035639
0.0356518
0.0356655
0.03568
0.0356954
0.0357114
0.0357282
0.0357458
0.035764
0.0357829
0.0358025
0.0358229
0.0356365
0.0356458
0.0356561
0.0356672
0.0356792
0.0356921
0.0357059
0.0357205
0.0357359
0.0357521
0.035769
0.0357867
0.0358051
0.0358243
0.0358441
0.0358648
0.0356685
0.035677
0.0356863
0.0356966
0.0357078
0.0357198
0.0357328
0.0357467
0.0357614
0.0357769
0.0357932
0.0358103
0.0358282
0.0358469
0.0358662
0.0358864
0.0359073
0.0357093
0.0357177
0.0357271
0.0357375
0.0357487
0.0357609
0.035774
0.035788
0.0358028
0.0358185
0.035835
0.0358523
0.0358704
0.0358892
0.0359089
0.0359293
0.0359505
0.0357426
0.0357504
0.0357589
0.0357684
0.0357788
0.0357902
0.0358025
0.0358158
0.0358299
0.0358449
0.0358607
0.0358774
0.0358949
0.0359132
0.0359323
0.0359522
0.0359729
0.0359944
0.0357841
0.0357919
0.0358006
0.0358102
0.0358208
0.0358323
0.0358447
0.0358581
0.0358724
0.0358875
0.0359035
0.0359204
0.0359381
0.0359567
0.035976
0.0359962
0.0360172
0.036039
0.0358261
0.035834
0.0358428
0.0358526
0.0358633
0.035875
0.0358876
0.0359011
0.0359155
0.0359309
0.0359471
0.0359642
0.0359821
0.0360009
0.0360205
0.0360409
0.0360622
0.0360843
0.0358687
0.0358767
0.0358857
0.0358956
0.0359064
0.0359183
0.035931
0.0359447
0.0359594
0.0359749
0.0359913
0.0360086
0.0360268
0.0360458
0.0360657
0.0360864
0.0361079
0.0361303
0.0359119
0.0359201
0.0359292
0.0359392
0.0359503
0.0359622
0.0359752
0.0359891
0.0360039
0.0360196
0.0360362
0.0360537
0.0360721
0.0360914
0.0361116
0.0361326
0.0361544
0.0361771
0.0359558
0.0359641
0.0359733
0.0359836
0.0359948
0.0360069
0.03602
0.0360341
0.0360491
0.036065
0.0360819
0.0360996
0.0361183
0.0361378
0.0361582
0.0361795
0.0362017
0.0362246
0.0360004
0.0360088
0.0360182
0.0360286
0.03604
0.0360523
0.0360656
0.0360798
0.036095
0.0361112
0.0361283
0.0361462
0.0361652
0.036185
0.0362057
0.0362273
0.0362497
0.036273
0.0360457
0.0360543
0.0360638
0.0360743
0.0360859
0.0360984
0.0361119
0.0361263
0.0361417
0.0361581
0.0361754
0.0361936
0.0362128
0.0362329
0.0362539
0.0362758
0.0362985
0.0363221
0.0360918
0.0361005
0.0361102
0.0361209
0.0361326
0.0361452
0.0361589
0.0361736
0.0361892
0.0362058
0.0362233
0.0362418
0.0362612
0.0362816
0.0363029
0.036325
0.0363481
0.036372
0.0361387
0.0361475
0.0361573
0.0361682
0.03618
0.0361929
0.0362067
0.0362216
0.0362374
0.0362542
0.036272
0.0362908
0.0363105
0.0363311
0.0363527
0.0363751
0.0363985
0.0364227
0.0361865
0.0361954
0.0362053
0.0362162
0.0362282
0.0362413
0.0362553
0.0362704
0.0362864
0.0363035
0.0363215
0.0363405
0.0363605
0.0363814
0.0364033
0.0364261
0.0364497
0.0364743
0.0362352
0.0362441
0.0362541
0.0362651
0.0362773
0.0362905
0.0363047
0.03632
0.0363363
0.0363535
0.0363718
0.0363911
0.0364113
0.0364326
0.0364547
0.0364778
0.0365018
0.0365267
0.0362848
0.0362937
0.0363037
0.0363149
0.0363271
0.0363405
0.0363549
0.0363704
0.0363869
0.0364044
0.036423
0.0364425
0.0364631
0.0364846
0.0365071
0.0365305
0.0365548
0.03658
0.0363353
0.0363441
0.0363542
0.0363654
0.0363778
0.0363913
0.036406
0.0364216
0.0364384
0.0364562
0.036475
0.0364948
0.0365156
0.0365375
0.0365603
0.036584
0.0366087
0.0366342
0.0363866
0.0363954
0.0364055
0.0364168
0.0364294
0.036443
0.0364579
0.0364738
0.0364907
0.0365088
0.0365278
0.036548
0.0365691
0.0365912
0.0366144
0.0366385
0.0366635
0.0366893
0.0364313
0.0364387
0.0364475
0.0364576
0.0364691
0.0364818
0.0364956
0.0365106
0.0365267
0.036544
0.0365622
0.0365816
0.036602
0.0366235
0.0366459
0.0366694
0.0366939
0.0367192
0.0367454
0.036484
0.0364915
0.0365004
0.0365106
0.0365222
0.036535
0.0365491
0.0365643
0.0365806
0.0365981
0.0366166
0.0366363
0.036657
0.0366788
0.0367016
0.0367254
0.0367502
0.0367758
0.0368024
0.0365303
0.0365374
0.0365451
0.0365541
0.0365645
0.0365762
0.0365892
0.0366034
0.0366189
0.0366354
0.0366531
0.036672
0.0366919
0.0367129
0.036735
0.0367581
0.0367823
0.0368074
0.0368334
0.0368603
0.0365844
0.0365915
0.0365995
0.0366087
0.0366193
0.0366311
0.0366443
0.0366587
0.0366743
0.0366912
0.0367091
0.0367282
0.0367485
0.0367698
0.0367922
0.0368156
0.0368401
0.0368655
0.0368919
0.0369191
0.0366392
0.0366464
0.0366547
0.0366641
0.0366749
0.0366869
0.0367003
0.0367149
0.0367308
0.0367478
0.0367661
0.0367854
0.0368059
0.0368276
0.0368503
0.036874
0.0368988
0.0369246
0.0369512
0.0369787
0.0366948
0.0367023
0.0367108
0.0367205
0.0367314
0.0367437
0.0367572
0.0367721
0.0367881
0.0368054
0.0368239
0.0368436
0.0368643
0.0368862
0.0369092
0.0369333
0.0369584
0.0369845
0.0370114
0.0370392
0.0367514
0.0367591
0.0367678
0.0367777
0.0367889
0.0368013
0.0368151
0.0368301
0.0368464
0.0368639
0.0368827
0.0369026
0.0369236
0.0369458
0.0369691
0.0369934
0.0370188
0.0370452
0.0370725
0.0371006
0.036809
0.0368167
0.0368257
0.0368358
0.0368472
0.0368598
0.0368738
0.0368891
0.0369056
0.0369233
0.0369423
0.0369624
0.0369838
0.0370062
0.0370298
0.0370545
0.0370802
0.0371069
0.0371345
0.037163
0.0368674
0.0368753
0.0368845
0.0368948
0.0369064
0.0369192
0.0369334
0.0369489
0.0369656
0.0369836
0.0370028
0.0370232
0.0370448
0.0370675
0.0370914
0.0371164
0.0371425
0.0371695
0.0371976
0.0372264
0.0369268
0.0369348
0.0369441
0.0369546
0.0369664
0.0369795
0.0369938
0.0370095
0.0370265
0.0370447
0.0370642
0.0370848
0.0371067
0.0371298
0.037154
0.0371793
0.0372058
0.0372333
0.0372618
0.0372912
0.036987
0.0369951
0.0370046
0.0370153
0.0370273
0.0370405
0.0370551
0.037071
0.0370882
0.0371067
0.0371265
0.0371474
0.0371696
0.0371931
0.0372177
0.0372435
0.0372704
0.0372985
0.0373275
0.0373575
0.037048
0.0370563
0.0370659
0.0370768
0.037089
0.0371025
0.0371173
0.0371335
0.037151
0.0371697
0.0371898
0.0372111
0.0372337
0.0372576
0.0372827
0.037309
0.0373365
0.0373652
0.037395
0.0374256
0.0371099
0.0371183
0.037128
0.0371391
0.0371516
0.0371654
0.0371805
0.0371969
0.0372147
0.0372339
0.0372543
0.0372761
0.0372992
0.0373236
0.0373493
0.0373762
0.0374045
0.0374339
0.0374644
0.0374958
0.0371728
0.0371813
0.0371912
0.0372026
0.0372153
0.0372294
0.0372448
0.0372616
0.0372798
0.0372994
0.0373204
0.0373427
0.0373663
0.0373913
0.0374177
0.0374454
0.0374744
0.0375046
0.0375358
0.037568
0.0372368
0.0372455
0.0372556
0.0372672
0.0372803
0.0372947
0.0373105
0.0373278
0.0373465
0.0373666
0.0373881
0.037411
0.0374354
0.0374611
0.0374882
0.0375166
0.0375464
0.0375773
0.0376093
0.037642
0.0373022
0.0373111
0.0373216
0.0373335
0.0373469
0.0373617
0.037378
0.0373958
0.037415
0.0374357
0.0374579
0.0374814
0.0375064
0.0375329
0.0375607
0.0375898
0.0376202
0.0376517
0.0376841
0.0377171
0.0373695
0.0373787
0.0373894
0.0374016
0.0374154
0.0374307
0.0374475
0.0374658
0.0374856
0.0375069
0.0375297
0.0375539
0.0375795
0.0376065
0.0376349
0.0376645
0.0376953
0.037727
0.0377594
0.0377923
0.037439
0.0374484
0.0374594
0.037472
0.0374862
0.0375019
0.0375191
0.0375379
0.0375583
0.0375801
0.0376034
0.0376281
0.0376541
0.0376815
0.0377102
0.0377399
0.0377705
0.0378019
0.0378339
0.0378661
0.037511
0.0375206
0.0375319
0.0375448
0.0375593
0.0375753
0.0375929
0.037612
0.0376328
0.0376549
0.0376784
0.0377033
0.0377295
0.0377569
0.0377853
0.0378146
0.0378446
0.0378751
0.0379061
0.0379373
0.0375855
0.0375953
0.0376068
0.0376199
0.0376345
0.0376506
0.0376684
0.0376876
0.0377084
0.0377305
0.0377539
0.0377786
0.0378044
0.0378312
0.0378589
0.0378872
0.0379161
0.0379453
0.0379749
0.0380049
0.0376621
0.037672
0.0376836
0.0376966
0.0377111
0.0377271
0.0377447
0.0377637
0.0377841
0.0378057
0.0378285
0.0378525
0.0378774
0.0379032
0.0379296
0.0379566
0.0379839
0.0380117
0.03804
0.0380691
0.0377398
0.0377497
0.0377611
0.0377739
0.0377879
0.0378035
0.0378206
0.037839
0.0378584
0.0378791
0.0379009
0.0379238
0.0379474
0.0379718
0.0379968
0.0380222
0.0380482
0.0380748
0.0381023
0.0381314
0.0378171
0.0378267
0.0378378
0.0378501
0.0378633
0.0378782
0.0378946
0.0379119
0.0379301
0.0379495
0.0379701
0.0379916
0.0380139
0.0380369
0.0380605
0.0380849
0.0381101
0.0381363
0.0381642
0.0381948
0.0378919
0.0379011
0.0379116
0.0379233
0.0379358
0.0379499
0.0379653
0.0379816
0.0379983
0.0380165
0.0380359
0.0380562
0.0380774
0.0380995
0.0381226
0.0381468
0.0381724
0.0382
0.0382303
0.0382651
0.0379626
0.0379713
0.0379813
0.0379924
0.0380043
0.0380177
0.0380322
0.0380476
0.0380633
0.0380807
0.0380993
0.0381191
0.0381401
0.0381625
0.0381864
0.0382121
0.0382404
0.038272
0.0383085
0.038352
0.038069
0.038082
0.0380961
0.0381111
0.0381268
0.0381441
0.0381631
0.0381837
0.0382061
0.0382305
0.0382576
0.038288
0.0383228
0.0383635
0.0384126
0.0384734
0.0381921
0.038211
0.0382321
0.0382557
0.0382821
0.0383122
0.0383467
0.0383872
0.0384356
0.0384947
0.0385684
0.0386625
0.0356613
0.035641
0.0357017
0.0356815
0.0357423
0.0357221
0.0357833
0.035763
0.0357433
0.0358247
0.0358044
0.0357846
0.0358667
0.0358461
0.0358262
0.0358066
0.0359092
0.0358885
0.0358683
0.0358487
0.0359524
0.0359314
0.0359111
0.0358913
0.0359962
0.035975
0.0359544
0.0359345
0.035915
0.0360408
0.0360193
0.0359985
0.0359783
0.0359587
0.0360861
0.0360643
0.0360433
0.0360229
0.0360031
0.0361321
0.0361101
0.0360888
0.0360683
0.0360483
0.0361789
0.0361566
0.0361352
0.0361144
0.0360944
0.0362265
0.036204
0.0361823
0.0361614
0.0361414
0.0362749
0.0362521
0.0362302
0.0362092
0.036189
0.0361698
0.0363241
0.036301
0.0362789
0.0362577
0.0362374
0.0362181
0.0363741
0.0363508
0.0363284
0.0363069
0.0362864
0.0362669
0.0362479
0.0364249
0.0364013
0.0363786
0.0363569
0.0363361
0.0363164
0.0362974
0.0362783
0.0364765
0.0364526
0.0364296
0.0364076
0.0363866
0.0363665
0.0363473
0.0363283
0.0363094
0.0365289
0.0365047
0.0364814
0.0364591
0.0364377
0.0364173
0.0363978
0.0363787
0.0363599
0.036341
0.0365822
0.0365576
0.036534
0.0365113
0.0364896
0.0364688
0.036449
0.0364297
0.0364108
0.036392
0.0366363
0.0366114
0.0365874
0.0365644
0.0365423
0.0365211
0.0365009
0.0364813
0.0364623
0.0364435
0.0366913
0.036666
0.0366417
0.0366183
0.0365958
0.0365743
0.0365536
0.0365338
0.0365145
0.0364956
0.0367473
0.0367216
0.0366969
0.0366731
0.0366502
0.0366283
0.0366073
0.0365871
0.0365675
0.0365486
0.0368043
0.0367783
0.0367532
0.036729
0.0367057
0.0366834
0.0366619
0.0366414
0.0366216
0.0366025
0.0368624
0.0368361
0.0368106
0.036786
0.0367623
0.0367396
0.0367178
0.0366969
0.0366768
0.0366575
0.0369218
0.0368951
0.0368693
0.0368443
0.0368203
0.0367972
0.036775
0.0367537
0.0367334
0.0367138
0.0369827
0.0369556
0.0369294
0.0369041
0.0368797
0.0368562
0.0368336
0.036812
0.0367914
0.0367716
0.0370449
0.0370176
0.0369911
0.0369654
0.0369406
0.0369167
0.0368938
0.0368719
0.036851
0.036831
0.0371086
0.037081
0.0370541
0.0370281
0.0370029
0.0369787
0.0369555
0.0369333
0.0369121
0.0368918
0.0371736
0.0371457
0.0371185
0.0370921
0.0370666
0.037042
0.0370184
0.0369959
0.0369744
0.0369539
0.0372396
0.0372114
0.0371838
0.037157
0.0371311
0.0371062
0.0370823
0.0370594
0.0370376
0.0370169
0.0356615
0.0357018
0.0357424
0.0357833
0.0358247
0.0358666
0.0359092
0.0359523
0.0359962
0.0360407
0.036086
0.036132
0.0361788
0.0362263
0.0362747
0.0363238
0.0363738
0.0364246
0.0364762
0.0365286
0.0365819
0.0366361
0.0366911
0.036747
0.036804
0.0368621
0.0369213
0.0369819
0.0370438
0.0371072
0.037172
0.037238
0.0356417
0.0356819
0.0357223
0.0357631
0.0358043
0.035846
0.0358883
0.0359312
0.0359748
0.0360191
0.0360641
0.0361098
0.0361562
0.0362035
0.0362515
0.0363003
0.0363499
0.0364004
0.0364517
0.0365038
0.0365568
0.0366107
0.0366654
0.036721
0.0367776
0.0368352
0.0368938
0.0369536
0.0370147
0.037077
0.0371409
0.0372061
0.0372727
0.0356226
0.0356626
0.0357029
0.0357435
0.0357845
0.035826
0.0358681
0.0359108
0.0359542
0.0359982
0.0360429
0.0360883
0.0361345
0.0361814
0.0362291
0.0362777
0.036327
0.0363771
0.0364281
0.0364799
0.0365326
0.0365861
0.0366406
0.0366959
0.0367522
0.0368093
0.0368675
0.0369267
0.0369869
0.0370483
0.0371109
0.0371749
0.0372404
0.0373077
0.0373769
0.0374483
0.0375218
0.0375972
0.035604
0.035644
0.0356841
0.0357245
0.0357654
0.0358067
0.0358486
0.0358911
0.0359342
0.035978
0.0360225
0.0360677
0.0361136
0.0361602
0.0362076
0.0362559
0.0363049
0.0363547
0.0364053
0.0364568
0.0365092
0.0365625
0.0366166
0.0366716
0.0367276
0.0367844
0.0368422
0.0369009
0.0369605
0.0370212
0.0370829
0.037146
0.0372106
0.037277
0.0373456
0.0374164
0.0374896
0.0375648
0.0355862
0.035626
0.035666
0.0357063
0.035747
0.0357881
0.0358298
0.0358721
0.035915
0.0359586
0.0360028
0.0360478
0.0360934
0.0361398
0.036187
0.0362349
0.0362836
0.0363332
0.0363835
0.0364347
0.0364868
0.0365397
0.0365935
0.0366483
0.0367039
0.0367604
0.0368178
0.0368761
0.0369353
0.0369955
0.0370566
0.037119
0.0371828
0.0372484
0.0373161
0.0373861
0.0374586
0.0375332
0.0355689
0.0356088
0.0356487
0.0356888
0.0357293
0.0357703
0.0358118
0.0358539
0.0358966
0.03594
0.035984
0.0360287
0.0360741
0.0361203
0.0361672
0.0362148
0.0362633
0.0363125
0.0363626
0.0364135
0.0364652
0.0365179
0.0365714
0.0366258
0.0366812
0.0367374
0.0367945
0.0368525
0.0369113
0.036971
0.0370317
0.0370936
0.0371567
0.0372215
0.0372882
0.0373573
0.0374288
0.0375028
0.0375788
0.0355522
0.0355922
0.0356321
0.0356721
0.0357125
0.0357533
0.0357946
0.0358365
0.035879
0.0359222
0.035966
0.0360105
0.0360557
0.0361016
0.0361483
0.0361957
0.0362439
0.0362928
0.0363426
0.0363932
0.0364447
0.036497
0.0365503
0.0366044
0.0366594
0.0367153
0.0367721
0.0368298
0.0368883
0.0369477
0.0370081
0.0370694
0.0371321
0.0371962
0.0372622
0.0373305
0.0374012
0.0374743
0.0375496
0.0355362
0.0355762
0.0356162
0.0356562
0.0356965
0.0357371
0.0357783
0.03582
0.0358623
0.0359053
0.0359489
0.0359931
0.0360381
0.0360838
0.0361302
0.0361774
0.0362253
0.0362741
0.0363236
0.0363739
0.0364251
0.0364772
0.0365301
0.0365839
0.0366387
0.0366943
0.0367508
0.0368082
0.0368664
0.0369255
0.0369855
0.0370466
0.0371088
0.0371724
0.0372379
0.0373054
0.0373753
0.0374476
0.0375221
0.0355208
0.0355609
0.035601
0.035641
0.0356812
0.0357218
0.0357628
0.0358043
0.0358464
0.0358892
0.0359326
0.0359767
0.0360214
0.0360669
0.0361131
0.0361601
0.0362078
0.0362563
0.0363056
0.0363556
0.0364066
0.0364584
0.036511
0.0365646
0.036619
0.0366743
0.0367306
0.0367877
0.0368456
0.0369044
0.0369642
0.0370249
0.0370867
0.03715
0.0372149
0.0372819
0.0373511
0.0374226
0.0374963
0.0355062
0.0355464
0.0355865
0.0356266
0.0356668
0.0357072
0.0357481
0.0357895
0.0358315
0.035874
0.0359173
0.0359611
0.0360057
0.036051
0.036097
0.0361437
0.0361912
0.0362395
0.0362885
0.0363384
0.036389
0.0364406
0.036493
0.0365462
0.0366004
0.0366555
0.0367114
0.0367682
0.0368259
0.0368845
0.0369439
0.0370043
0.0370659
0.0371288
0.0371933
0.0372598
0.0373284
0.0373992
0.0374722
0.0354923
0.0355326
0.0355728
0.035613
0.0356531
0.0356935
0.0357343
0.0357755
0.0358174
0.0358598
0.0359028
0.0359465
0.0359909
0.036036
0.0360818
0.0361283
0.0361756
0.0362236
0.0362725
0.0363221
0.0363725
0.0364238
0.036476
0.036529
0.0365829
0.0366377
0.0366934
0.03675
0.0368074
0.0368657
0.0369249
0.036985
0.0370463
0.0371089
0.0371731
0.0372391
0.0373072
0.0373774
0.0374497
0.0355197
0.0355599
0.0356001
0.0356403
0.0356807
0.0357213
0.0357625
0.0358042
0.0358464
0.0358893
0.0359329
0.0359771
0.036022
0.0360676
0.0361139
0.036161
0.0362089
0.0362575
0.0363069
0.0363571
0.0364082
0.0364601
0.0365129
0.0365666
0.0366211
0.0366765
0.0367328
0.03679
0.0368481
0.036907
0.0369669
0.0370279
0.0370903
0.0371541
0.0372197
0.0372874
0.0373571
0.0374287
0.0355479
0.0355881
0.0356284
0.0356687
0.0357093
0.0357503
0.0357919
0.035834
0.0358768
0.0359202
0.0359642
0.0360089
0.0360544
0.0361005
0.0361474
0.0361951
0.0362435
0.0362927
0.0363428
0.0363936
0.0364453
0.0364979
0.0365513
0.0366057
0.0366609
0.0367169
0.0367739
0.0368317
0.0368904
0.0369501
0.0370109
0.0370729
0.0371365
0.0372018
0.037269
0.0373382
0.0374094
0.0355365
0.0355769
0.0356172
0.0356575
0.0356981
0.0357391
0.0357805
0.0358226
0.0358652
0.0359084
0.0359523
0.0359969
0.0360422
0.0360882
0.0361349
0.0361824
0.0362307
0.0362797
0.0363295
0.0363802
0.0364317
0.0364841
0.0365373
0.0365914
0.0366464
0.0367022
0.0367589
0.0368165
0.036875
0.0369345
0.0369951
0.0370569
0.0371202
0.0371852
0.0372521
0.0373209
0.0373915
0.0355665
0.0356069
0.0356472
0.0356878
0.0357287
0.0357701
0.035812
0.0358546
0.0358977
0.0359415
0.0359859
0.036031
0.0360769
0.0361235
0.0361708
0.0362189
0.0362677
0.0363174
0.0363679
0.0364192
0.0364714
0.0365244
0.0365783
0.0366331
0.0366887
0.0367453
0.0368026
0.0368609
0.0369202
0.0369806
0.0370422
0.0371053
0.03717
0.0372366
0.037305
0.0373752
0.035557
0.0355974
0.0356378
0.0356784
0.0357193
0.0357606
0.0358025
0.0358449
0.0358879
0.0359316
0.0359759
0.0360209
0.0360666
0.036113
0.0361602
0.0362082
0.0362569
0.0363064
0.0363567
0.0364079
0.0364599
0.0365127
0.0365664
0.036621
0.0366765
0.0367328
0.03679
0.0368481
0.0369072
0.0369674
0.0370288
0.0370917
0.0371562
0.0372225
0.0372906
0.0373604
0.0355888
0.0356293
0.0356699
0.0357108
0.0357521
0.0357939
0.0358362
0.0358792
0.0359227
0.0359669
0.0360118
0.0360574
0.0361037
0.0361507
0.0361985
0.0362471
0.0362965
0.0363467
0.0363977
0.0364495
0.0365022
0.0365558
0.0366102
0.0366655
0.0367217
0.0367787
0.0368366
0.0368955
0.0369556
0.0370168
0.0370795
0.0371438
0.0372098
0.0372776
0.0373471
0.0356218
0.0356625
0.0357033
0.0357446
0.0357863
0.0358285
0.0358714
0.0359149
0.035959
0.0360038
0.0360492
0.0360954
0.0361424
0.0361901
0.0362385
0.0362877
0.0363378
0.0363887
0.0364404
0.0364929
0.0365464
0.0366006
0.0366558
0.0367118
0.0367686
0.0368264
0.0368852
0.0369451
0.0370062
0.0370687
0.0371328
0.0371986
0.0372662
0.0373354
0.0356149
0.0356557
0.0356967
0.0357379
0.0357796
0.0358218
0.0358646
0.035908
0.0359521
0.0359968
0.0360422
0.0360883
0.0361351
0.0361827
0.036231
0.0362801
0.0363301
0.0363808
0.0364324
0.0364848
0.0365381
0.0365923
0.0366473
0.0367032
0.0367599
0.0368175
0.0368762
0.0369359
0.0369969
0.0370593
0.0371232
0.0371889
0.0372562
0.0373251
0.035609
0.0356499
0.0356909
0.0357322
0.0357739
0.0358161
0.0358589
0.0359022
0.0359462
0.0359908
0.0360362
0.0360822
0.0361289
0.0361764
0.0362247
0.0362737
0.0363235
0.0363742
0.0364256
0.036478
0.0365312
0.0365852
0.0366401
0.0366958
0.0367524
0.03681
0.0368685
0.0369281
0.036989
0.0370512
0.0371151
0.0371806
0.0372477
0.0373164
0.035604
0.035645
0.0356861
0.0357274
0.0357692
0.0358114
0.0358541
0.0358975
0.0359414
0.035986
0.0360312
0.0360772
0.0361238
0.0361713
0.0362194
0.0362684
0.0363181
0.0363687
0.0364201
0.0364723
0.0365254
0.0365793
0.0366341
0.0366898
0.0367463
0.0368037
0.0368621
0.0369217
0.0369824
0.0370446
0.0371083
0.0371737
0.0372407
0.0373092
0.0356411
0.0356823
0.0357237
0.0357655
0.0358077
0.0358504
0.0358937
0.0359376
0.0359822
0.0360274
0.0360733
0.0361199
0.0361672
0.0362153
0.0362642
0.0363139
0.0363644
0.0364157
0.0364678
0.0365209
0.0365747
0.0366294
0.036685
0.0367414
0.0367988
0.0368571
0.0369166
0.0369772
0.0370393
0.037103
0.0371682
0.0372351
0.0373035
0.0356381
0.0356795
0.035721
0.0357628
0.035805
0.0358478
0.035891
0.0359349
0.0359794
0.0360246
0.0360704
0.036117
0.0361643
0.0362123
0.0362612
0.0363108
0.0363612
0.0364125
0.0364646
0.0365176
0.0365714
0.036626
0.0366815
0.0367379
0.0367952
0.0368535
0.0369128
0.0369735
0.0370355
0.037099
0.0371643
0.0372311
0.0372994
0.0356776
0.0357193
0.0357612
0.0358034
0.0358461
0.0358894
0.0359333
0.0359777
0.0360229
0.0360687
0.0361152
0.0361625
0.0362105
0.0362593
0.0363088
0.0363592
0.0364105
0.0364625
0.0365155
0.0365692
0.0366238
0.0366793
0.0367356
0.0367929
0.0368511
0.0369105
0.036971
0.037033
0.0370966
0.0371617
0.0372285
0.0372967
0.0356766
0.0357184
0.0357605
0.0358028
0.0358455
0.0358888
0.0359326
0.0359771
0.0360222
0.036068
0.0361145
0.0361617
0.0362097
0.0362585
0.0363081
0.0363584
0.0364096
0.0364617
0.0365146
0.0365683
0.0366229
0.0366784
0.0367347
0.0367919
0.0368501
0.0369095
0.03697
0.037032
0.0370955
0.0371606
0.0372273
0.0372955
0.0357186
0.0357608
0.0358031
0.0358459
0.0358892
0.035933
0.0359775
0.0360226
0.0360684
0.0361149
0.0361621
0.0362101
0.0362589
0.0363084
0.0363588
0.03641
0.0364621
0.0365149
0.0365687
0.0366233
0.0366787
0.036735
0.0367923
0.0368505
0.0369098
0.0369704
0.0370323
0.0370958
0.037161
0.0372277
0.0372959
0.0357196
0.0357619
0.0358044
0.0358472
0.0358905
0.0359344
0.0359789
0.036024
0.0360698
0.0361163
0.0361636
0.0362116
0.0362603
0.0363099
0.0363603
0.0364115
0.0364636
0.0365165
0.0365703
0.0366249
0.0366804
0.0367367
0.0367939
0.0368522
0.0369115
0.0369721
0.0370341
0.0370976
0.0371627
0.0372295
0.0372977
0.0357216
0.0357639
0.0358065
0.0358494
0.0358928
0.0359367
0.0359812
0.0360264
0.0360723
0.0361188
0.0361661
0.0362141
0.036263
0.0363126
0.036363
0.0364143
0.0364664
0.0365193
0.0365731
0.0366278
0.0366833
0.0367396
0.0367969
0.0368552
0.0369146
0.0369752
0.0370372
0.0371008
0.037166
0.0372328
0.0373011
0.0357246
0.035767
0.0358096
0.0358526
0.0358961
0.0359401
0.0359846
0.0360299
0.0360758
0.0361224
0.0361697
0.0362178
0.0362667
0.0363164
0.0363668
0.0364181
0.0364703
0.0365233
0.0365772
0.0366319
0.0366874
0.0367439
0.0368012
0.0368595
0.036919
0.0369797
0.0370417
0.0371054
0.0371706
0.0372375
0.0373059
0.0357285
0.035771
0.0358137
0.0358568
0.0359003
0.0359444
0.0359891
0.0360344
0.0360803
0.036127
0.0361744
0.0362226
0.0362715
0.0363213
0.0363718
0.0364232
0.0364754
0.0365285
0.0365824
0.0366372
0.0366929
0.0367494
0.0368068
0.0368652
0.0369247
0.0369855
0.0370476
0.0371114
0.0371767
0.0372438
0.0373123
0.0357335
0.035776
0.0358188
0.035862
0.0359056
0.0359497
0.0359945
0.0360399
0.0360859
0.0361327
0.0361802
0.0362285
0.0362775
0.0363273
0.036378
0.0364294
0.0364818
0.0365349
0.036589
0.0366438
0.0366996
0.0367562
0.0368137
0.0368722
0.0369318
0.0369927
0.037055
0.0371188
0.0371843
0.0372514
0.0373202
0.0357394
0.035782
0.0358249
0.0358681
0.0359118
0.0359561
0.0360009
0.0360464
0.0360926
0.0361395
0.0361871
0.0362354
0.0362846
0.0363345
0.0363852
0.0364368
0.0364893
0.0365425
0.0365967
0.0366517
0.0367075
0.0367643
0.0368219
0.0368806
0.0369403
0.0370012
0.0370636
0.0371276
0.0371933
0.0372606
0.0373295
0.0357463
0.035789
0.035832
0.0358753
0.0359191
0.0359635
0.0360084
0.036054
0.0361003
0.0361473
0.036195
0.0362435
0.0362927
0.0363428
0.0363937
0.0364454
0.0364979
0.0365513
0.0366056
0.0366608
0.0367168
0.0367736
0.0368314
0.0368902
0.0369501
0.0370112
0.0370737
0.0371378
0.0372036
0.0372712
0.0373404
0.0357542
0.035797
0.0358401
0.0358835
0.0359274
0.0359719
0.036017
0.0360627
0.0361091
0.0361562
0.036204
0.0362526
0.036302
0.0363522
0.0364032
0.0364551
0.0365078
0.0365614
0.0366158
0.0366711
0.0367272
0.0367843
0.0368422
0.0369011
0.0369611
0.0370224
0.0370851
0.0371494
0.0372155
0.0372833
0.0373527
0.0357631
0.035806
0.0358492
0.0358927
0.0359367
0.0359813
0.0360265
0.0360724
0.0361189
0.0361662
0.0362141
0.0362629
0.0363124
0.0363628
0.0364139
0.0364659
0.0365188
0.0365725
0.0366271
0.0366826
0.0367389
0.0367961
0.0368543
0.0369134
0.0369735
0.037035
0.0370979
0.0371624
0.0372287
0.0372968
0.0373666
0.0357729
0.0358159
0.0358592
0.0359029
0.035947
0.0359918
0.0360371
0.0360831
0.0361298
0.0361772
0.0362253
0.0362742
0.0363239
0.0363744
0.0364258
0.0364779
0.036531
0.0365849
0.0366397
0.0366954
0.0367519
0.0368093
0.0368676
0.0369269
0.0369872
0.0370489
0.037112
0.0371767
0.0372433
0.0373117
0.0373819
0.0357837
0.0358268
0.0358702
0.035914
0.0359583
0.0360032
0.0360487
0.0360948
0.0361417
0.0361892
0.0362376
0.0362866
0.0363365
0.0363872
0.0364387
0.0364911
0.0365444
0.0365985
0.0366535
0.0367093
0.0367661
0.0368237
0.0368822
0.0369417
0.0370022
0.0370641
0.0371274
0.0371924
0.0372593
0.0373281
0.0373988
0.0357954
0.0358387
0.0358822
0.0359262
0.0359706
0.0360156
0.0360613
0.0361076
0.0361546
0.0362024
0.0362509
0.0363001
0.0363502
0.0364011
0.0364528
0.0365054
0.0365589
0.0366132
0.0366684
0.0367245
0.0367815
0.0368393
0.036898
0.0369577
0.0370185
0.0370806
0.0371442
0.0372095
0.0372767
0.0373459
0.0374171
0.0358081
0.0358514
0.0358951
0.0359392
0.0359839
0.0360291
0.0360749
0.0361214
0.0361686
0.0362165
0.0362652
0.0363147
0.036365
0.0364161
0.036468
0.0365208
0.0365745
0.0366291
0.0366845
0.0367409
0.0367981
0.0368561
0.0369151
0.036975
0.037036
0.0370984
0.0371622
0.0372279
0.0372955
0.0373652
0.0374369
0.0358216
0.0358651
0.035909
0.0359533
0.0359981
0.0360435
0.0360895
0.0361362
0.0361836
0.0362317
0.0362806
0.0363303
0.0363808
0.0364321
0.0364843
0.0365374
0.0365913
0.0366461
0.0367018
0.0367584
0.0368158
0.0368742
0.0369334
0.0369935
0.0370548
0.0371174
0.0371816
0.0372476
0.0373157
0.0373859
0.0374581
0.035836
0.0358797
0.0359238
0.0359682
0.0360132
0.0360588
0.036105
0.036152
0.0361996
0.036248
0.0362971
0.036347
0.0363977
0.0364493
0.0365017
0.036555
0.0366092
0.0366643
0.0367203
0.0367771
0.0368348
0.0368934
0.0369528
0.0370133
0.0370748
0.0371377
0.0372022
0.0372687
0.0373372
0.037408
0.0374808
0.0358513
0.0358952
0.0359395
0.0359841
0.0360293
0.0360751
0.0361216
0.0361687
0.0362166
0.0362652
0.0363146
0.0363647
0.0364157
0.0364675
0.0365202
0.0365738
0.0366282
0.0366836
0.0367398
0.0367969
0.0368549
0.0369137
0.0369735
0.0370342
0.037096
0.0371593
0.0372241
0.037291
0.0373601
0.0374314
0.037505
0.0358675
0.0359116
0.035956
0.0360009
0.0360464
0.0360924
0.0361391
0.0361865
0.0362346
0.0362834
0.0363331
0.0363835
0.0364347
0.0364868
0.0365397
0.0365936
0.0366483
0.036704
0.0367605
0.0368179
0.0368761
0.0369353
0.0369953
0.0370563
0.0371184
0.037182
0.0372473
0.0373146
0.0373842
0.0374562
0.0375304
0.0358845
0.0359288
0.0359735
0.0360187
0.0360644
0.0361106
0.0361576
0.0362052
0.0362536
0.0363027
0.0363525
0.0364032
0.0364547
0.0365071
0.0365603
0.0366144
0.0366694
0.0367254
0.0367822
0.0368399
0.0368984
0.0369579
0.0370182
0.0370795
0.037142
0.0372059
0.0372716
0.0373394
0.0374096
0.0374822
0.037557
0.0359024
0.035947
0.0359919
0.0360373
0.0360833
0.0361298
0.036177
0.0362249
0.0362735
0.0363228
0.036373
0.0364239
0.0364757
0.0365283
0.0365818
0.0366362
0.0366916
0.0367478
0.0368049
0.0368629
0.0369218
0.0369815
0.0370421
0.0371038
0.0371666
0.0372309
0.037297
0.0373653
0.037436
0.0375092
0.0375846
0.0359211
0.035966
0.0360112
0.0360569
0.0361031
0.0361499
0.0361973
0.0362455
0.0362943
0.0363439
0.0363943
0.0364455
0.0364976
0.0365505
0.0366043
0.036659
0.0367146
0.0367712
0.0368286
0.036887
0.0369462
0.0370062
0.0370672
0.0371291
0.0371922
0.0372569
0.0373233
0.037392
0.0374631
0.0375368
0.0376126
0.0359408
0.035986
0.0360315
0.0360774
0.0361238
0.0361708
0.0362185
0.0362669
0.036316
0.0363658
0.0364165
0.036468
0.0365203
0.0365735
0.0366276
0.0366827
0.0367386
0.0367955
0.0368533
0.0369119
0.0369715
0.0370319
0.0370931
0.0371554
0.0372189
0.0372838
0.0373505
0.0374193
0.0374906
0.0375644
0.0376405
0.0377184
0.0377967
0.0378738
0.0379479
0.0359613
0.0360068
0.0360525
0.0360987
0.0361453
0.0361926
0.0362405
0.0362891
0.0363384
0.0363885
0.0364395
0.0364912
0.0365438
0.0365974
0.0366518
0.0367071
0.0367634
0.0368207
0.0368788
0.0369378
0.0369976
0.0370583
0.0371199
0.0371825
0.0372463
0.0373116
0.0373787
0.0374479
0.0375197
0.037594
0.0376707
0.0377489
0.0378273
0.0379039
0.0379771
0.0359828
0.0360284
0.0360744
0.0361207
0.0361675
0.036215
0.0362631
0.036312
0.0363615
0.0364119
0.0364631
0.0365152
0.0365681
0.036622
0.0366767
0.0367324
0.036789
0.0368466
0.0369051
0.0369644
0.0370245
0.0370856
0.0371475
0.0372104
0.0372746
0.0373403
0.0374079
0.0374778
0.0375502
0.0376252
0.0377023
0.0377807
0.0378586
0.0379344
0.0380062
0.036005
0.0360508
0.0360968
0.0361433
0.0361904
0.036238
0.0362864
0.0363355
0.0363853
0.036436
0.0364875
0.0365399
0.0365931
0.0366473
0.0367024
0.0367584
0.0368154
0.0368733
0.0369321
0.0369917
0.0370521
0.0371135
0.0371757
0.037239
0.0373036
0.0373699
0.0374381
0.0375088
0.037582
0.0376577
0.0377352
0.0378134
0.0378906
0.0379649
0.0380351
0.0360051
0.0360509
0.036097
0.0361434
0.0361904
0.0362381
0.0362864
0.0363355
0.0363854
0.036436
0.0364875
0.0365399
0.0365931
0.0366473
0.0367024
0.0367584
0.0368154
0.0368733
0.0369321
0.0369917
0.0370522
0.0371135
0.0371757
0.0372389
0.0373035
0.0373697
0.0374379
0.0375085
0.0375816
0.0376572
0.0377347
0.0378128
0.03789
0.0379644
0.0380346
0.0359831
0.0360288
0.0360747
0.036121
0.0361678
0.0362152