/*--------------------------------*- C++ -*----------------------------------*\
  =========                 |
  \\      /  F ield         | OpenFOAM: The Open Source CFD Toolbox
   \\    /   O peration     | Website:  https://openfoam.org
    \\  /    A nd           | Version:  7
     \\/     M anipulation  |
\*---------------------------------------------------------------------------*/
FoamFile
{
    version     2.0;
    format      ascii;
    class       volScalarField;
    location    "108000";
    object      k;
}
// * * * * * * * * * * * * * * * * * * * * * * * * * * * * * * * * * * * * * //

dimensions      [0 2 -2 0 0 0 0];

internalField   nonuniform List<scalar> 
4844
(
6.21835e-07
6.24543e-07
6.27501e-07
6.3265e-07
6.35354e-07
6.38307e-07
6.41498e-07
6.44922e-07
6.48565e-07
6.52422e-07
6.5649e-07
6.43463e-07
6.46162e-07
6.49107e-07
6.52292e-07
6.55703e-07
6.59335e-07
6.63178e-07
6.67232e-07
6.71488e-07
6.75926e-07
6.80524e-07
6.54265e-07
6.56955e-07
6.5989e-07
6.63063e-07
6.66464e-07
6.70081e-07
6.73906e-07
6.77945e-07
6.82178e-07
6.86594e-07
6.91168e-07
6.95908e-07
7.00801e-07
7.05834e-07
7.10989e-07
7.16267e-07
6.65042e-07
6.67726e-07
6.70647e-07
6.73808e-07
6.77192e-07
6.80791e-07
6.84598e-07
6.88616e-07
6.92828e-07
6.97218e-07
7.01766e-07
7.06474e-07
7.11337e-07
7.16331e-07
7.2145e-07
7.26686e-07
6.75791e-07
6.78463e-07
6.81371e-07
6.84516e-07
6.87884e-07
6.91463e-07
6.95248e-07
6.99244e-07
7.03431e-07
7.07791e-07
7.12308e-07
7.16985e-07
7.21813e-07
7.26769e-07
7.31846e-07
7.37039e-07
6.89159e-07
6.92054e-07
6.95182e-07
6.98529e-07
7.02085e-07
7.05849e-07
7.09817e-07
7.13979e-07
7.18305e-07
7.22793e-07
7.27432e-07
7.32224e-07
7.37138e-07
7.42171e-07
7.47322e-07
6.99811e-07
7.0269e-07
7.05797e-07
7.09126e-07
7.12655e-07
7.16395e-07
7.20334e-07
7.24465e-07
7.2876e-07
7.33211e-07
7.37814e-07
7.42564e-07
7.47439e-07
7.52425e-07
7.57528e-07
7.10411e-07
7.1327e-07
7.16358e-07
7.19663e-07
7.23166e-07
7.26881e-07
7.30788e-07
7.34885e-07
7.39146e-07
7.4356e-07
7.48122e-07
7.5283e-07
7.57663e-07
7.62603e-07
7.67656e-07
7.1835e-07
7.20955e-07
7.23791e-07
7.2686e-07
7.30137e-07
7.33614e-07
7.37302e-07
7.41175e-07
7.45237e-07
7.49462e-07
7.53833e-07
7.58356e-07
7.63021e-07
7.67807e-07
7.72697e-07
7.77699e-07
7.28849e-07
7.31432e-07
7.34248e-07
7.37293e-07
7.40541e-07
7.43992e-07
7.47651e-07
7.51489e-07
7.55516e-07
7.59701e-07
7.6403e-07
7.68512e-07
7.73128e-07
7.77867e-07
7.82709e-07
7.87657e-07
7.39278e-07
7.41842e-07
7.44636e-07
7.47654e-07
7.50874e-07
7.54298e-07
7.57922e-07
7.61727e-07
7.65714e-07
7.69858e-07
7.74146e-07
7.78586e-07
7.83154e-07
7.87844e-07
7.92634e-07
7.97527e-07
7.49638e-07
7.5218e-07
7.54949e-07
7.57938e-07
7.61132e-07
7.64526e-07
7.68117e-07
7.71885e-07
7.75833e-07
7.79934e-07
7.84178e-07
7.88571e-07
7.93093e-07
7.97734e-07
8.02466e-07
8.07306e-07
7.57623e-07
7.59919e-07
7.62442e-07
7.65184e-07
7.68145e-07
7.71306e-07
7.74673e-07
7.78227e-07
7.8196e-07
7.85868e-07
7.89925e-07
7.94122e-07
7.98468e-07
8.02942e-07
8.0753e-07
8.12205e-07
8.16989e-07
7.67847e-07
7.70121e-07
7.72621e-07
7.75334e-07
7.78266e-07
7.81398e-07
7.84732e-07
7.88252e-07
7.91948e-07
7.95812e-07
7.99825e-07
8.03975e-07
8.08275e-07
8.12699e-07
8.17231e-07
8.21849e-07
8.26576e-07
7.75973e-07
7.77989e-07
7.80236e-07
7.82713e-07
7.85399e-07
7.88299e-07
7.91402e-07
7.94705e-07
7.98185e-07
8.01843e-07
8.05663e-07
8.09629e-07
8.13734e-07
8.17987e-07
8.22359e-07
8.26833e-07
8.31395e-07
8.36061e-07
7.86046e-07
7.88041e-07
7.90266e-07
7.92719e-07
7.95375e-07
7.98242e-07
8.01315e-07
8.04584e-07
8.08023e-07
8.11641e-07
8.15421e-07
8.1934e-07
8.23398e-07
8.27599e-07
8.31917e-07
8.36338e-07
8.40842e-07
8.45447e-07
7.96029e-07
7.98002e-07
8.00205e-07
8.02632e-07
8.05261e-07
8.08094e-07
8.11135e-07
8.14366e-07
8.17767e-07
8.21346e-07
8.2508e-07
8.28951e-07
8.32962e-07
8.37113e-07
8.41377e-07
8.4574e-07
8.50186e-07
8.54731e-07
8.05916e-07
8.0787e-07
8.10049e-07
8.12449e-07
8.1505e-07
8.17851e-07
8.20859e-07
8.2405e-07
8.27414e-07
8.30951e-07
8.34639e-07
8.38463e-07
8.42426e-07
8.46523e-07
8.50732e-07
8.55037e-07
8.59427e-07
8.63911e-07
8.15711e-07
8.17641e-07
8.19797e-07
8.22169e-07
8.24738e-07
8.27509e-07
8.30486e-07
8.33636e-07
8.36961e-07
8.40453e-07
8.44095e-07
8.47874e-07
8.51787e-07
8.5583e-07
8.59985e-07
8.6423e-07
8.68562e-07
8.72983e-07
8.25405e-07
8.27314e-07
8.29445e-07
8.31787e-07
8.34329e-07
8.37068e-07
8.4001e-07
8.43119e-07
8.46408e-07
8.49854e-07
8.53448e-07
8.57179e-07
8.61044e-07
8.65033e-07
8.69133e-07
8.73318e-07
8.77592e-07
8.81945e-07
8.35001e-07
8.36885e-07
8.38989e-07
8.41302e-07
8.43816e-07
8.46525e-07
8.49429e-07
8.52498e-07
8.55748e-07
8.59148e-07
8.62695e-07
8.66379e-07
8.70193e-07
8.7413e-07
8.78172e-07
8.82298e-07
8.8651e-07
8.90799e-07
8.44492e-07
8.4635e-07
8.48428e-07
8.50716e-07
8.53196e-07
8.55875e-07
8.58742e-07
8.61772e-07
8.64981e-07
8.68334e-07
8.71835e-07
8.75472e-07
8.79234e-07
8.83117e-07
8.871e-07
8.91168e-07
8.95316e-07
8.99541e-07
8.53881e-07
8.55712e-07
8.57763e-07
8.60023e-07
8.62473e-07
8.65116e-07
8.67947e-07
8.7094e-07
8.74105e-07
8.77413e-07
8.80869e-07
8.84453e-07
8.88166e-07
8.91994e-07
8.95916e-07
8.99926e-07
9.04012e-07
9.08172e-07
8.63162e-07
8.64968e-07
8.66993e-07
8.69221e-07
8.71642e-07
8.7425e-07
8.77041e-07
8.79996e-07
8.83117e-07
8.86383e-07
8.8979e-07
8.93326e-07
8.96988e-07
9.00759e-07
9.04619e-07
9.0857e-07
9.12594e-07
9.16691e-07
8.72334e-07
8.74117e-07
8.76115e-07
8.78312e-07
8.80704e-07
8.83276e-07
8.86028e-07
8.88943e-07
8.92022e-07
8.95242e-07
8.98601e-07
9.02087e-07
9.05697e-07
9.0941e-07
9.1321e-07
9.17099e-07
9.21061e-07
9.25095e-07
8.814e-07
8.83157e-07
8.85129e-07
8.87294e-07
8.89657e-07
8.92191e-07
8.94905e-07
8.97779e-07
9.00815e-07
9.0399e-07
9.07298e-07
9.10737e-07
9.1429e-07
9.17946e-07
9.21688e-07
9.25516e-07
9.29414e-07
9.33385e-07
8.90353e-07
8.92086e-07
8.94029e-07
8.96166e-07
8.98497e-07
9.00996e-07
9.03671e-07
9.06503e-07
9.09494e-07
9.12624e-07
9.15881e-07
9.1927e-07
9.2277e-07
9.26369e-07
9.30053e-07
9.33819e-07
9.37654e-07
9.41561e-07
8.99193e-07
9.00903e-07
9.02818e-07
9.04925e-07
9.07224e-07
9.09684e-07
9.12321e-07
9.15114e-07
9.1806e-07
9.21142e-07
9.24351e-07
9.2769e-07
9.31137e-07
9.34678e-07
9.383e-07
9.42007e-07
9.45778e-07
9.49619e-07
9.07918e-07
9.09607e-07
9.11494e-07
9.13568e-07
9.15837e-07
9.18259e-07
9.20855e-07
9.23608e-07
9.26509e-07
9.29546e-07
9.32705e-07
9.35995e-07
9.39385e-07
9.42872e-07
9.46431e-07
9.50077e-07
9.53786e-07
9.57561e-07
9.15048e-07
9.16527e-07
9.18194e-07
9.20054e-07
9.22097e-07
9.24333e-07
9.26718e-07
9.29274e-07
9.31987e-07
9.34843e-07
9.37834e-07
9.40943e-07
9.44182e-07
9.47515e-07
9.50947e-07
9.54446e-07
9.58031e-07
9.61677e-07
9.65384e-07
9.23565e-07
9.25023e-07
9.26667e-07
9.28498e-07
9.30509e-07
9.32711e-07
9.35062e-07
9.37577e-07
9.4025e-07
9.43058e-07
9.46003e-07
9.49065e-07
9.5225e-07
9.55528e-07
9.58904e-07
9.62343e-07
9.65868e-07
9.69452e-07
9.7309e-07
9.30727e-07
9.31967e-07
9.33403e-07
9.3502e-07
9.36823e-07
9.38805e-07
9.40971e-07
9.43287e-07
9.45764e-07
9.48394e-07
9.51156e-07
9.54056e-07
9.57068e-07
9.60201e-07
9.63423e-07
9.66742e-07
9.70123e-07
9.73588e-07
9.77106e-07
9.80675e-07
9.39028e-07
9.40252e-07
9.41663e-07
9.43254e-07
9.45032e-07
9.46983e-07
9.49111e-07
9.51394e-07
9.53832e-07
9.5642e-07
9.59136e-07
9.61991e-07
9.64954e-07
9.68031e-07
9.712e-07
9.74461e-07
9.77783e-07
9.81186e-07
9.84639e-07
9.88142e-07
9.47212e-07
9.48416e-07
9.49807e-07
9.5137e-07
9.5312e-07
9.5504e-07
9.57134e-07
9.5938e-07
9.61783e-07
9.64326e-07
9.66997e-07
9.69805e-07
9.7272e-07
9.7574e-07
9.78856e-07
9.8206e-07
9.85324e-07
9.88664e-07
9.92051e-07
9.95487e-07
9.55275e-07
9.5646e-07
9.57829e-07
9.59367e-07
9.61089e-07
9.62975e-07
9.65039e-07
9.67247e-07
9.69611e-07
9.7211e-07
9.74739e-07
9.77498e-07
9.80364e-07
9.8333e-07
9.86391e-07
9.8954e-07
9.92746e-07
9.96023e-07
9.99344e-07
1.00271e-06
9.63219e-07
9.64385e-07
9.6573e-07
9.67245e-07
9.68936e-07
9.7079e-07
9.72821e-07
9.74994e-07
9.77318e-07
9.79774e-07
9.8236e-07
9.8507e-07
9.87886e-07
9.90799e-07
9.93807e-07
9.96898e-07
1.00004e-06
1.00326e-06
1.00651e-06
1.00982e-06
9.71044e-07
9.7219e-07
9.73512e-07
9.75003e-07
9.76664e-07
9.78484e-07
9.80481e-07
9.82618e-07
9.84901e-07
9.87318e-07
9.89859e-07
9.92523e-07
9.95284e-07
9.98147e-07
1.0011e-06
1.00413e-06
1.00722e-06
1.01038e-06
1.01356e-06
1.0168e-06
9.78745e-07
9.79871e-07
9.8117e-07
9.82637e-07
9.84271e-07
9.86056e-07
9.88017e-07
9.9012e-07
9.92363e-07
9.94738e-07
9.97233e-07
9.99851e-07
1.00256e-06
1.00537e-06
1.00827e-06
1.01125e-06
1.01427e-06
1.01737e-06
1.02049e-06
1.02366e-06
9.86323e-07
9.87432e-07
9.88707e-07
9.90149e-07
9.91754e-07
9.93507e-07
9.95433e-07
9.97501e-07
9.99704e-07
1.00204e-06
1.00448e-06
1.00706e-06
1.00972e-06
1.01247e-06
1.01532e-06
1.01824e-06
1.02121e-06
1.02424e-06
1.0273e-06
1.0304e-06
9.93778e-07
9.9487e-07
9.96121e-07
9.9754e-07
9.99112e-07
1.00083e-06
1.00272e-06
1.00476e-06
1.00692e-06
1.00921e-06
1.01161e-06
1.01414e-06
1.01675e-06
1.01945e-06
1.02225e-06
1.0251e-06
1.02801e-06
1.03098e-06
1.03398e-06
1.03701e-06
1.00111e-06
1.00218e-06
1.00341e-06
1.0048e-06
1.00635e-06
1.00804e-06
1.00989e-06
1.01189e-06
1.01401e-06
1.01626e-06
1.01862e-06
1.02109e-06
1.02365e-06
1.02631e-06
1.02905e-06
1.03185e-06
1.0347e-06
1.03761e-06
1.04054e-06
1.0435e-06
1.00831e-06
1.00937e-06
1.01058e-06
1.01195e-06
1.01346e-06
1.01512e-06
1.01693e-06
1.0189e-06
1.02098e-06
1.02318e-06
1.0255e-06
1.02792e-06
1.03044e-06
1.03304e-06
1.03572e-06
1.03846e-06
1.04126e-06
1.0441e-06
1.04698e-06
1.04987e-06
1.01539e-06
1.01643e-06
1.01762e-06
1.01896e-06
1.02044e-06
1.02207e-06
1.02385e-06
1.02578e-06
1.02782e-06
1.02998e-06
1.03225e-06
1.03463e-06
1.03709e-06
1.03964e-06
1.04227e-06
1.04495e-06
1.04769e-06
1.05048e-06
1.05329e-06
1.05611e-06
1.02235e-06
1.02337e-06
1.02453e-06
1.02585e-06
1.0273e-06
1.0289e-06
1.03064e-06
1.03253e-06
1.03453e-06
1.03665e-06
1.03888e-06
1.04121e-06
1.04362e-06
1.04612e-06
1.04869e-06
1.05132e-06
1.054e-06
1.05672e-06
1.05947e-06
1.06223e-06
1.02918e-06
1.03018e-06
1.03132e-06
1.03261e-06
1.03404e-06
1.03561e-06
1.03731e-06
1.03916e-06
1.04112e-06
1.04319e-06
1.04538e-06
1.04766e-06
1.05003e-06
1.05247e-06
1.05499e-06
1.05756e-06
1.06018e-06
1.06284e-06
1.06553e-06
1.06823e-06
1.03588e-06
1.03686e-06
1.03798e-06
1.03924e-06
1.04065e-06
1.04218e-06
1.04385e-06
1.04566e-06
1.04758e-06
1.04961e-06
1.05175e-06
1.05398e-06
1.0563e-06
1.0587e-06
1.06116e-06
1.06367e-06
1.06623e-06
1.06884e-06
1.07146e-06
1.0741e-06
1.04245e-06
1.04341e-06
1.04451e-06
1.04575e-06
1.04713e-06
1.04863e-06
1.05026e-06
1.05203e-06
1.05392e-06
1.0559e-06
1.058e-06
1.06018e-06
1.06245e-06
1.06479e-06
1.0672e-06
1.06966e-06
1.07216e-06
1.0747e-06
1.07727e-06
1.07984e-06
1.0489e-06
1.04984e-06
1.05091e-06
1.05213e-06
1.05347e-06
1.05495e-06
1.05654e-06
1.05827e-06
1.06012e-06
1.06206e-06
1.06411e-06
1.06625e-06
1.06846e-06
1.07076e-06
1.07311e-06
1.07552e-06
1.07796e-06
1.08045e-06
1.08295e-06
1.08546e-06
1.05521e-06
1.05613e-06
1.05718e-06
1.05838e-06
1.05969e-06
1.06114e-06
1.06269e-06
1.06438e-06
1.06619e-06
1.06809e-06
1.0701e-06
1.07219e-06
1.07435e-06
1.0766e-06
1.0789e-06
1.08125e-06
1.08364e-06
1.08606e-06
1.0885e-06
1.09095e-06
1.0614e-06
1.06229e-06
1.06333e-06
1.06449e-06
1.06579e-06
1.0672e-06
1.06872e-06
1.07037e-06
1.07213e-06
1.07399e-06
1.07596e-06
1.078e-06
1.08011e-06
1.08231e-06
1.08456e-06
1.08685e-06
1.08919e-06
1.09155e-06
1.09392e-06
1.0963e-06
1.06745e-06
1.06833e-06
1.06934e-06
1.07048e-06
1.07174e-06
1.07312e-06
1.07461e-06
1.07622e-06
1.07795e-06
1.07976e-06
1.08168e-06
1.08368e-06
1.08575e-06
1.08789e-06
1.09009e-06
1.09233e-06
1.0946e-06
1.0969e-06
1.09921e-06
1.10152e-06
1.07338e-06
1.07423e-06
1.07522e-06
1.07633e-06
1.07757e-06
1.07892e-06
1.08037e-06
1.08194e-06
1.08363e-06
1.0854e-06
1.08728e-06
1.08923e-06
1.09125e-06
1.09334e-06
1.09549e-06
1.09767e-06
1.09988e-06
1.10212e-06
1.10436e-06
1.1066e-06
1.07917e-06
1.08e-06
1.08097e-06
1.08206e-06
1.08327e-06
1.08458e-06
1.086e-06
1.08754e-06
1.08919e-06
1.09091e-06
1.09275e-06
1.09464e-06
1.09661e-06
1.09866e-06
1.10074e-06
1.10287e-06
1.10503e-06
1.1072e-06
1.10937e-06
1.11155e-06
1.08483e-06
1.08564e-06
1.08659e-06
1.08765e-06
1.08883e-06
1.09011e-06
1.0915e-06
1.093e-06
1.0946e-06
1.09629e-06
1.09808e-06
1.09993e-06
1.10184e-06
1.10383e-06
1.10587e-06
1.10793e-06
1.11003e-06
1.11213e-06
1.11424e-06
1.11635e-06
1.09426e-06
1.09551e-06
1.09686e-06
1.09832e-06
1.09989e-06
1.10153e-06
1.10327e-06
1.10507e-06
1.10693e-06
1.10887e-06
1.11085e-06
1.11285e-06
1.11488e-06
1.11692e-06
1.11896e-06
1.121e-06
1.10503e-06
1.10663e-06
1.10831e-06
1.11007e-06
1.11188e-06
1.11376e-06
1.11568e-06
1.11763e-06
1.11959e-06
1.12157e-06
1.12354e-06
1.12551e-06
7.57556e-07
7.52454e-07
7.67685e-07
7.62628e-07
7.77729e-07
7.72723e-07
7.87687e-07
7.82735e-07
7.77893e-07
7.97554e-07
7.9266e-07
7.8787e-07
8.07331e-07
8.02493e-07
7.9776e-07
7.93132e-07
8.17015e-07
8.12233e-07
8.07555e-07
8.0298e-07
8.26601e-07
8.21879e-07
8.17257e-07
8.12733e-07
8.36089e-07
8.31427e-07
8.2686e-07
8.22393e-07
8.18018e-07
8.45474e-07
8.40873e-07
8.36365e-07
8.31953e-07
8.2763e-07
8.54757e-07
8.50217e-07
8.45766e-07
8.41412e-07
8.37144e-07
8.63938e-07
8.59458e-07
8.55065e-07
8.50767e-07
8.46556e-07
8.7301e-07
8.68592e-07
8.64259e-07
8.60017e-07
8.55865e-07
8.81973e-07
8.77618e-07
8.73345e-07
8.6916e-07
8.65067e-07
8.90826e-07
8.86538e-07
8.82324e-07
8.78196e-07
8.7416e-07
8.70225e-07
8.9957e-07
8.95345e-07
8.91194e-07
8.87124e-07
8.83146e-07
8.79265e-07
9.082e-07
9.04041e-07
8.99954e-07
8.95944e-07
8.92024e-07
8.88195e-07
8.8448e-07
9.16717e-07
9.12624e-07
9.08602e-07
9.04653e-07
9.00788e-07
8.97014e-07
8.93357e-07
8.89812e-07
9.25118e-07
9.21093e-07
9.17136e-07
9.1325e-07
9.09442e-07
9.05722e-07
9.0212e-07
8.98624e-07
8.95259e-07
9.33406e-07
9.29445e-07
9.25556e-07
9.21732e-07
9.17984e-07
9.14316e-07
9.10768e-07
9.07324e-07
9.04004e-07
9.00822e-07
9.41579e-07
9.37684e-07
9.3386e-07
9.301e-07
9.2641e-07
9.22797e-07
9.19301e-07
9.15909e-07
9.12637e-07
9.09502e-07
9.49637e-07
9.45807e-07
9.42046e-07
9.38351e-07
9.3472e-07
9.31163e-07
9.27718e-07
9.2438e-07
9.21157e-07
9.18069e-07
9.57579e-07
9.53814e-07
9.50117e-07
9.46484e-07
9.42912e-07
9.3941e-07
9.3602e-07
9.32737e-07
9.29562e-07
9.26519e-07
9.65403e-07
9.61702e-07
9.58069e-07
9.545e-07
9.50986e-07
9.4754e-07
9.44207e-07
9.40975e-07
9.37848e-07
9.34851e-07
9.73109e-07
9.69472e-07
9.65904e-07
9.62396e-07
9.58944e-07
9.55553e-07
9.52274e-07
9.49095e-07
9.46018e-07
9.43067e-07
9.80696e-07
9.77124e-07
9.73619e-07
9.70172e-07
9.66783e-07
9.63448e-07
9.60222e-07
9.57095e-07
9.54071e-07
9.51166e-07
9.88163e-07
9.84658e-07
9.81216e-07
9.77831e-07
9.74501e-07
9.71223e-07
9.68051e-07
9.64978e-07
9.62004e-07
9.59146e-07
9.95509e-07
9.92072e-07
9.88694e-07
9.85371e-07
9.82099e-07
9.7888e-07
9.75761e-07
9.72739e-07
9.69817e-07
9.67008e-07
1.00273e-06
9.99364e-07
9.96052e-07
9.92789e-07
9.89575e-07
9.86416e-07
9.83353e-07
9.80381e-07
9.77509e-07
9.74751e-07
1.00984e-06
1.00654e-06
1.00329e-06
1.00009e-06
9.96929e-07
9.93831e-07
9.90821e-07
9.87904e-07
9.85081e-07
9.8237e-07
1.01682e-06
1.01359e-06
1.0104e-06
1.00726e-06
1.00416e-06
1.00113e-06
9.98169e-07
9.95305e-07
9.92529e-07
9.89866e-07
1.02368e-06
1.02052e-06
1.01739e-06
1.01432e-06
1.01128e-06
1.0083e-06
1.0054e-06
1.00258e-06
9.99856e-07
9.97241e-07
7.57557e-07
7.67682e-07
7.77725e-07
7.87684e-07
7.97553e-07
8.07332e-07
8.17015e-07
8.26602e-07
8.36087e-07
8.45472e-07
8.54756e-07
8.63932e-07
8.73003e-07
8.81967e-07
8.90823e-07
8.99566e-07
9.08198e-07
9.16719e-07
9.25124e-07
9.33414e-07
9.41587e-07
9.49645e-07
9.57585e-07
9.65406e-07
9.7311e-07
9.80693e-07
9.88158e-07
9.95504e-07
1.00273e-06
1.00984e-06
1.01682e-06
1.02368e-06
7.52458e-07
7.62636e-07
7.72731e-07
7.82743e-07
7.92666e-07
8.02498e-07
8.12238e-07
8.21884e-07
8.31429e-07
8.40876e-07
8.50218e-07
8.59458e-07
8.68593e-07
8.77619e-07
8.86535e-07
8.95341e-07
9.04036e-07
9.1262e-07
9.21092e-07
9.2945e-07
9.37691e-07
9.45815e-07
9.53821e-07
9.61711e-07
9.69482e-07
9.77135e-07
9.84667e-07
9.92079e-07
9.99372e-07
1.00654e-06
1.01359e-06
1.02052e-06
1.02732e-06
7.47473e-07
7.57695e-07
7.6784e-07
7.77903e-07
7.87879e-07
7.97764e-07
8.07559e-07
8.17257e-07
8.26859e-07
8.36364e-07
8.45767e-07
8.55066e-07
8.6426e-07
8.73349e-07
8.82327e-07
8.91197e-07
8.99954e-07
9.08598e-07
9.17131e-07
9.25548e-07
9.33852e-07
9.42041e-07
9.50112e-07
9.58067e-07
9.65903e-07
9.73618e-07
9.81216e-07
9.88692e-07
9.96049e-07
1.00329e-06
1.0104e-06
1.0174e-06
1.02426e-06
1.03101e-06
1.03764e-06
1.04413e-06
1.05051e-06
1.05675e-06
7.42598e-07
7.52866e-07
7.63059e-07
7.73167e-07
7.83192e-07
7.9313e-07
8.02977e-07
8.12732e-07
8.22389e-07
8.31948e-07
8.41406e-07
8.50763e-07
8.60017e-07
8.69165e-07
8.78203e-07
8.87131e-07
8.95946e-07
9.04651e-07
9.13241e-07
9.21718e-07
9.30081e-07
9.38329e-07
9.46462e-07
9.54478e-07
9.62376e-07
9.70157e-07
9.77816e-07
9.85356e-07
9.92776e-07
1.00008e-06
1.00725e-06
1.01431e-06
1.02124e-06
1.02805e-06
1.03474e-06
1.04129e-06
1.04773e-06
1.05404e-06
7.37852e-07
7.48164e-07
7.58403e-07
7.68559e-07
7.78631e-07
7.88617e-07
7.98516e-07
8.0832e-07
8.18031e-07
8.27645e-07
8.37158e-07
8.46568e-07
8.55873e-07
8.65075e-07
8.74171e-07
8.83156e-07
8.9203e-07
9.00794e-07
9.09443e-07
9.17979e-07
9.26401e-07
9.34708e-07
9.42899e-07
9.50974e-07
9.58931e-07
9.6677e-07
9.74491e-07
9.82092e-07
9.89573e-07
9.96935e-07
1.00417e-06
1.01129e-06
1.01828e-06
1.02515e-06
1.03189e-06
1.03851e-06
1.045e-06
1.05136e-06
7.33252e-07
7.43601e-07
7.53879e-07
7.6408e-07
7.74196e-07
7.84229e-07
7.94174e-07
8.0403e-07
8.13789e-07
8.2345e-07
8.33014e-07
8.42475e-07
8.51834e-07
8.61089e-07
8.70239e-07
8.79278e-07
8.88209e-07
8.9703e-07
9.0574e-07
9.14335e-07
9.22817e-07
9.31182e-07
9.39433e-07
9.47565e-07
9.55579e-07
9.63474e-07
9.71251e-07
9.78906e-07
9.86443e-07
9.93859e-07
1.00115e-06
1.00832e-06
1.01537e-06
1.02229e-06
1.02909e-06
1.03577e-06
1.04232e-06
1.04874e-06
1.05503e-06
7.28798e-07
7.39188e-07
7.49506e-07
7.59746e-07
7.69908e-07
7.79984e-07
7.89971e-07
7.99869e-07
8.09674e-07
8.19384e-07
8.28994e-07
8.38504e-07
8.47914e-07
8.5722e-07
8.66421e-07
8.75515e-07
8.84499e-07
8.9337e-07
9.02131e-07
9.1078e-07
9.19316e-07
9.27738e-07
9.36043e-07
9.44229e-07
9.52298e-07
9.60251e-07
9.68083e-07
9.75794e-07
9.83385e-07
9.90857e-07
9.98205e-07
1.00543e-06
1.01253e-06
1.01951e-06
1.02636e-06
1.03309e-06
1.0397e-06
1.04617e-06
1.05252e-06
7.24513e-07
7.34935e-07
7.45286e-07
7.55565e-07
7.65763e-07
7.75882e-07
7.85912e-07
7.95852e-07
8.05701e-07
8.15457e-07
8.25114e-07
8.34674e-07
8.4413e-07
8.53484e-07
8.62731e-07
8.71872e-07
8.80906e-07
8.89829e-07
8.98641e-07
9.07342e-07
9.15928e-07
9.244e-07
9.32754e-07
9.40992e-07
9.49114e-07
9.57118e-07
9.65003e-07
9.7277e-07
9.80414e-07
9.87936e-07
9.95334e-07
1.00261e-06
1.00977e-06
1.0168e-06
1.0237e-06
1.03049e-06
1.03714e-06
1.04367e-06
1.05007e-06
7.20389e-07
7.30841e-07
7.41227e-07
7.51542e-07
7.61777e-07
7.71932e-07
7.82001e-07
7.91982e-07
8.01874e-07
8.11672e-07
8.21375e-07
8.3098e-07
8.40484e-07
8.49883e-07
8.59178e-07
8.68366e-07
8.77447e-07
8.8642e-07
8.95282e-07
9.04034e-07
9.1267e-07
9.21191e-07
9.29594e-07
9.37882e-07
9.46051e-07
9.54103e-07
9.62037e-07
9.69849e-07
9.77543e-07
9.85115e-07
9.92568e-07
9.99896e-07
1.0071e-06
1.01418e-06
1.02114e-06
1.02797e-06
1.03467e-06
1.04125e-06
1.04771e-06
7.16453e-07
7.26933e-07
7.3735e-07
7.47696e-07
7.57968e-07
7.68157e-07
7.78265e-07
7.88287e-07
7.98221e-07
8.0806e-07
8.17805e-07
8.27454e-07
8.37001e-07
8.46444e-07
8.55784e-07
8.65016e-07
8.74139e-07
8.83155e-07
8.92061e-07
9.00856e-07
9.09539e-07
9.18106e-07
9.26558e-07
9.34895e-07
9.43114e-07
9.51213e-07
9.59192e-07
9.6705e-07
9.74789e-07
9.82408e-07
9.89907e-07
9.97282e-07
1.00453e-06
1.01167e-06
1.01867e-06
1.02555e-06
1.0323e-06
1.03893e-06
1.04543e-06
7.12707e-07
7.23218e-07
7.33666e-07
7.44044e-07
7.54346e-07
7.64568e-07
7.74711e-07
7.84768e-07
7.94737e-07
8.04618e-07
8.14402e-07
8.24089e-07
8.33676e-07
8.43161e-07
8.52541e-07
8.61814e-07
8.70983e-07
8.80043e-07
8.88991e-07
8.97831e-07
9.06556e-07
9.15166e-07
9.2366e-07
9.32036e-07
9.40298e-07
9.4844e-07
9.56465e-07
9.64369e-07
9.72155e-07
9.79818e-07
9.87361e-07
9.94781e-07
1.00208e-06
1.00925e-06
1.0163e-06
1.02323e-06
1.03003e-06
1.0367e-06
1.04325e-06
7.19699e-07
7.30171e-07
7.40576e-07
7.50907e-07
7.61163e-07
7.71336e-07
7.81425e-07
7.91428e-07
8.0134e-07
8.11159e-07
8.20882e-07
8.30506e-07
8.4003e-07
8.49451e-07
8.58765e-07
8.67973e-07
8.77073e-07
8.86066e-07
8.94945e-07
9.0371e-07
9.12361e-07
9.20894e-07
9.29313e-07
9.37614e-07
9.45798e-07
9.53864e-07
9.61811e-07
9.69639e-07
9.77347e-07
9.84934e-07
9.92396e-07
9.99737e-07
1.00695e-06
1.01405e-06
1.02102e-06
1.02786e-06
1.03458e-06
1.04117e-06
7.26882e-07
7.37313e-07
7.47673e-07
7.5796e-07
7.68164e-07
7.78287e-07
7.88322e-07
7.98266e-07
8.08119e-07
8.17876e-07
8.27533e-07
8.37092e-07
8.46546e-07
8.55894e-07
8.65138e-07
8.74274e-07
8.83299e-07
8.92214e-07
9.01017e-07
9.09708e-07
9.18284e-07
9.26743e-07
9.35087e-07
9.43311e-07
9.51419e-07
9.59408e-07
9.67277e-07
9.75026e-07
9.82652e-07
9.90154e-07
9.97535e-07
1.00479e-06
1.01192e-06
1.01893e-06
1.02581e-06
1.03257e-06
1.0392e-06
7.23818e-07
7.34269e-07
7.44652e-07
7.54963e-07
7.65194e-07
7.75344e-07
7.85406e-07
7.95379e-07
8.05262e-07
8.15051e-07
8.24743e-07
8.34337e-07
8.43826e-07
8.5321e-07
8.62486e-07
8.71655e-07
8.80717e-07
8.89668e-07
8.98506e-07
9.07231e-07
9.1584e-07
9.24334e-07
9.32713e-07
9.40975e-07
9.4912e-07
9.57146e-07
9.65054e-07
9.72839e-07
9.80504e-07
9.88044e-07
9.95464e-07
1.00276e-06
1.00993e-06
1.01697e-06
1.02389e-06
1.03068e-06
1.03734e-06
7.31447e-07
7.4185e-07
7.52182e-07
7.62438e-07
7.72614e-07
7.82707e-07
7.92709e-07
8.02618e-07
8.12435e-07
8.22156e-07
8.31776e-07
8.41295e-07
8.50712e-07
8.60023e-07
8.69229e-07
8.78323e-07
8.87306e-07
8.96175e-07
9.04932e-07
9.13576e-07
9.22103e-07
9.30515e-07
9.38811e-07
9.4699e-07
9.55051e-07
9.6299e-07
9.70809e-07
9.78506e-07
9.86079e-07
9.9353e-07
1.00086e-06
1.00806e-06
1.01514e-06
1.02209e-06
1.02892e-06
1.03562e-06
7.2886e-07
7.39283e-07
7.49636e-07
7.59912e-07
7.7011e-07
7.80224e-07
7.90251e-07
8.00187e-07
8.1003e-07
8.19777e-07
8.29426e-07
8.38975e-07
8.48421e-07
8.5776e-07
8.66994e-07
8.76117e-07
8.85129e-07
8.94029e-07
9.02817e-07
9.11491e-07
9.20048e-07
9.28491e-07
9.36818e-07
9.45029e-07
9.5312e-07
9.6109e-07
9.68938e-07
9.76663e-07
9.84267e-07
9.91749e-07
9.99106e-07
1.00634e-06
1.01345e-06
1.02043e-06
1.02729e-06
1.03402e-06
7.36956e-07
7.4733e-07
7.57627e-07
7.67843e-07
7.77977e-07
7.88027e-07
7.97985e-07
8.07851e-07
8.1762e-07
8.27292e-07
8.36864e-07
8.46331e-07
8.55693e-07
8.6495e-07
8.74099e-07
8.83138e-07
8.92066e-07
9.00882e-07
9.09583e-07
9.18169e-07
9.26639e-07
9.34994e-07
9.43231e-07
9.51347e-07
9.59344e-07
9.67222e-07
9.74979e-07
9.82615e-07
9.90126e-07
9.97516e-07
1.00478e-06
1.01192e-06
1.01893e-06
1.02582e-06
1.03258e-06
7.45251e-07
7.55569e-07
7.65806e-07
7.75962e-07
7.8603e-07
7.96006e-07
8.05892e-07
8.15684e-07
8.25379e-07
8.34976e-07
8.44468e-07
8.53854e-07
8.63132e-07
8.72304e-07
8.81367e-07
8.90316e-07
8.99155e-07
9.0788e-07
9.16492e-07
9.24986e-07
9.33364e-07
9.41626e-07
9.49766e-07
9.57788e-07
9.6569e-07
9.73471e-07
9.81132e-07
9.88671e-07
9.96086e-07
1.00337e-06
1.01054e-06
1.01758e-06
1.02449e-06
1.03128e-06
7.43421e-07
7.53754e-07
7.64006e-07
7.74176e-07
7.84263e-07
7.94261e-07
8.04165e-07
8.13975e-07
8.23689e-07
8.33304e-07
8.42817e-07
8.52227e-07
8.61528e-07
8.70723e-07
8.79808e-07
8.8878e-07
8.97639e-07
9.06383e-07
9.15014e-07
9.2353e-07
9.31931e-07
9.40215e-07
9.48378e-07
9.56423e-07
9.64346e-07
9.72146e-07
9.79826e-07
9.87384e-07
9.9482e-07
1.00213e-06
1.00932e-06
1.01638e-06
1.02332e-06
1.03013e-06
7.41851e-07
7.52194e-07
7.62457e-07
7.7264e-07
7.8274e-07
7.92753e-07
8.02675e-07
8.125e-07
8.2223e-07
8.31861e-07
8.41391e-07
8.50815e-07
8.60134e-07
8.69347e-07
8.78448e-07
8.87439e-07
8.96319e-07
9.05086e-07
9.13737e-07
9.22271e-07
9.30689e-07
9.38991e-07
9.47176e-07
9.5524e-07
9.63181e-07
9.71003e-07
9.78703e-07
9.86283e-07
9.9374e-07
1.00107e-06
1.00828e-06
1.01536e-06
1.02232e-06
1.02915e-06
7.40523e-07
7.50878e-07
7.61158e-07
7.71353e-07
7.81466e-07
7.91491e-07
8.01427e-07
8.11265e-07
8.21008e-07
8.30653e-07
8.40197e-07
8.49635e-07
8.58966e-07
8.6819e-07
8.77307e-07
8.86314e-07
8.95209e-07
9.03993e-07
9.1266e-07
9.21212e-07
9.29646e-07
9.37964e-07
9.46164e-07
9.54246e-07
9.62207e-07
9.70046e-07
9.77761e-07
9.85356e-07
9.92826e-07
1.00017e-06
1.0074e-06
1.0145e-06
1.02147e-06
1.02832e-06
7.49825e-07
7.60113e-07
7.70319e-07
7.80442e-07
7.90479e-07
8.00424e-07
8.10273e-07
8.20024e-07
8.29678e-07
8.3923e-07
8.48681e-07
8.58027e-07
8.67266e-07
8.76394e-07
8.85413e-07
8.94322e-07
9.03115e-07
9.11795e-07
9.2036e-07
9.28808e-07
9.37136e-07
9.45346e-07
9.53438e-07
9.61411e-07
9.69263e-07
9.76994e-07
9.84603e-07
9.9209e-07
9.99451e-07
1.00669e-06
1.0138e-06
1.02079e-06
1.02765e-06
7.49021e-07
7.59318e-07
7.69532e-07
7.79663e-07
7.89708e-07
7.99659e-07
8.09518e-07
8.19282e-07
8.28945e-07
8.38509e-07
8.47971e-07
8.57326e-07
8.66573e-07
8.7571e-07
8.84739e-07
8.93655e-07
9.02455e-07
9.11144e-07
9.19717e-07
9.28176e-07
9.36515e-07
9.44736e-07
9.5284e-07
9.60825e-07
9.68688e-07
9.76427e-07
9.84046e-07
9.9154e-07
9.98912e-07
1.00616e-06
1.01328e-06
1.02028e-06
1.02714e-06
7.58789e-07
7.69007e-07
7.79143e-07
7.89192e-07
7.99148e-07
8.09011e-07
8.18779e-07
8.28448e-07
8.38018e-07
8.47484e-07
8.56846e-07
8.66099e-07
8.75243e-07
8.84278e-07
8.93202e-07
9.02011e-07
9.10707e-07
9.19289e-07
9.27752e-07
9.361e-07
9.44328e-07
9.52436e-07
9.60424e-07
9.68293e-07
9.76042e-07
9.83666e-07
9.91169e-07
9.98547e-07
1.0058e-06
1.01293e-06
1.01993e-06
1.02681e-06
7.58519e-07
7.68744e-07
7.78884e-07
7.88935e-07
7.98894e-07
8.08762e-07
8.18533e-07
8.28204e-07
8.37776e-07
8.47244e-07
8.56608e-07
8.65864e-07
8.75013e-07
8.8405e-07
8.92974e-07
9.01787e-07
9.10484e-07
9.19067e-07
9.27535e-07
9.35883e-07
9.44115e-07
9.52226e-07
9.60218e-07
9.6809e-07
9.75841e-07
9.83469e-07
9.90974e-07
9.98354e-07
1.00561e-06
1.01274e-06
1.01975e-06
1.02662e-06
7.68733e-07
7.7887e-07
7.88921e-07
7.98882e-07
8.0875e-07
8.1852e-07
8.28193e-07
8.37765e-07
8.47232e-07
8.56595e-07
8.65852e-07
8.75001e-07
8.84038e-07
8.92964e-07
9.01778e-07
9.10477e-07
9.19058e-07
9.27523e-07
9.35872e-07
9.44104e-07
9.52217e-07
9.60212e-07
9.68084e-07
9.75835e-07
9.83462e-07
9.90967e-07
9.98349e-07
1.00561e-06
1.01274e-06
1.01975e-06
1.02662e-06
7.68986e-07
7.79121e-07
7.89169e-07
7.99127e-07
8.08991e-07
8.18759e-07
8.28429e-07
8.37998e-07
8.47465e-07
8.56824e-07
8.66076e-07
8.75221e-07
8.84257e-07
8.9318e-07
9.01987e-07
9.10681e-07
9.19261e-07
9.27725e-07
9.36072e-07
9.44302e-07
9.52414e-07
9.60407e-07
9.68277e-07
9.76024e-07
9.83648e-07
9.9115e-07
9.98527e-07
1.00578e-06
1.01291e-06
1.01991e-06
1.02679e-06
7.69512e-07
7.79644e-07
7.89686e-07
7.99636e-07
8.09494e-07
8.19257e-07
8.28922e-07
8.38484e-07
8.47941e-07
8.57294e-07
8.66538e-07
8.75674e-07
8.84701e-07
8.93618e-07
9.02422e-07
9.11113e-07
9.19686e-07
9.28144e-07
9.36485e-07
9.44709e-07
9.52812e-07
9.60793e-07
9.68654e-07
9.76393e-07
9.84011e-07
9.91506e-07
9.98878e-07
1.00613e-06
1.01325e-06
1.02025e-06
1.02711e-06
7.70284e-07
7.80409e-07
7.90447e-07
8.00395e-07
8.10247e-07
8.20001e-07
8.29654e-07
8.39204e-07
8.48652e-07
8.57996e-07
8.67231e-07
8.76359e-07
8.85377e-07
8.94285e-07
9.03081e-07
9.11764e-07
9.20331e-07
9.28779e-07
9.37109e-07
9.45319e-07
9.53411e-07
9.61383e-07
9.69236e-07
9.76969e-07
9.84578e-07
9.92062e-07
9.99421e-07
1.00666e-06
1.01377e-06
1.02075e-06
1.02761e-06
7.71322e-07
7.81436e-07
7.91464e-07
8.01398e-07
8.11235e-07
8.20976e-07
8.3062e-07
8.40159e-07
8.49595e-07
8.58927e-07
8.68153e-07
8.77271e-07
8.86276e-07
8.95169e-07
9.03951e-07
9.12618e-07
9.2117e-07
9.29607e-07
9.37927e-07
9.46129e-07
9.5421e-07
9.62169e-07
9.70005e-07
9.77721e-07
9.85315e-07
9.92786e-07
1.00013e-06
1.00736e-06
1.01446e-06
1.02143e-06
1.02828e-06
7.7261e-07
7.82714e-07
7.92727e-07
8.02646e-07
8.1247e-07
8.22198e-07
8.31824e-07
8.4135e-07
8.50774e-07
8.60092e-07
8.69305e-07
8.78409e-07
8.87403e-07
8.96282e-07
9.05047e-07
9.13696e-07
9.2223e-07
9.30649e-07
9.38951e-07
9.47135e-07
9.55201e-07
9.63145e-07
9.70968e-07
9.78671e-07
9.86252e-07
9.93709e-07
1.00104e-06
1.00825e-06
1.01534e-06
1.02229e-06
1.02912e-06
7.74144e-07
7.84229e-07
7.94224e-07
8.04127e-07
8.13937e-07
8.2365e-07
8.33265e-07
8.42775e-07
8.52182e-07
8.61485e-07
8.70682e-07
8.79768e-07
8.88741e-07
8.97601e-07
9.06348e-07
9.14979e-07
9.23496e-07
9.31897e-07
9.40179e-07
9.48344e-07
9.5639e-07
9.64314e-07
9.72118e-07
9.79801e-07
9.87362e-07
9.94798e-07
1.00211e-06
1.0093e-06
1.01636e-06
1.0233e-06
1.03011e-06
7.75916e-07
7.85984e-07
7.95963e-07
8.05852e-07
8.15643e-07
8.25337e-07
8.34932e-07
8.44426e-07
8.53813e-07
8.63095e-07
8.72269e-07
8.81331e-07
8.90283e-07
8.99123e-07
9.0785e-07
9.16463e-07
9.24957e-07
9.33336e-07
9.41598e-07
9.49741e-07
9.57767e-07
9.65672e-07
9.73455e-07
9.81117e-07
9.88655e-07
9.96069e-07
1.00336e-06
1.01052e-06
1.01757e-06
1.02448e-06
1.03127e-06
7.77932e-07
7.87979e-07
7.97938e-07
8.07806e-07
8.1758e-07
8.27254e-07
8.36829e-07
8.46303e-07
8.5567e-07
8.6493e-07
8.7408e-07
8.83118e-07
8.92047e-07
9.00863e-07
9.09563e-07
9.1815e-07
9.2662e-07
9.34974e-07
9.43212e-07
9.5133e-07
9.5933e-07
9.67209e-07
9.74965e-07
9.826e-07
9.90112e-07
9.97499e-07
1.00476e-06
1.0119e-06
1.01892e-06
1.02581e-06
1.03257e-06
7.80173e-07
7.902e-07
8.00138e-07
8.09983e-07
8.19732e-07
8.29384e-07
8.38935e-07
8.48385e-07
8.57728e-07
8.66962e-07
8.76086e-07
8.85098e-07
8.94e-07
9.02788e-07
9.11461e-07
9.2002e-07
9.28461e-07
9.36787e-07
9.44997e-07
9.53085e-07
9.61056e-07
9.68907e-07
9.76635e-07
9.8424e-07
9.91722e-07
9.99083e-07
1.00632e-06
1.01343e-06
1.02042e-06
1.02728e-06
1.03402e-06
7.82651e-07
7.92653e-07
8.02565e-07
8.12383e-07
8.22106e-07
8.3173e-07
8.41253e-07
8.50671e-07
8.59985e-07
8.69189e-07
8.78283e-07
8.87267e-07
8.96138e-07
9.04894e-07
9.13537e-07
9.22066e-07
9.30477e-07
9.38772e-07
9.46949e-07
9.55009e-07
9.62951e-07
9.70773e-07
9.78472e-07
9.86048e-07
9.93501e-07
1.00083e-06
1.00803e-06
1.01511e-06