/*--------------------------------*- C++ -*----------------------------------*\
  =========                 |
  \\      /  F ield         | OpenFOAM: The Open Source CFD Toolbox
   \\    /   O peration     | Website:  https://openfoam.org
    \\  /    A nd           | Version:  7
     \\/     M anipulation  |
\*---------------------------------------------------------------------------*/
FoamFile
{
    version     2.0;
    format      ascii;
    class       volScalarField;
    location    "108000";
    object      strainRate;
}
// * * * * * * * * * * * * * * * * * * * * * * * * * * * * * * * * * * * * * //

dimensions      [0 0 -1 0 0 0 0];

internalField   nonuniform List<scalar> 
4844
(
0.00911629
0.00918296
0.00925574
0.0093852
0.00945179
0.00952449
0.00960316
0.00968766
0.00977782
0.00987348
0.00997446
0.00965435
0.0097209
0.00979359
0.00987226
0.00995679
0.010047
0.0101427
0.0102438
0.01035
0.0104612
0.0105772
0.00992397
0.00999055
0.0100633
0.010142
0.0102266
0.010317
0.0104129
0.0105141
0.0106205
0.010732
0.0108483
0.0109692
0.0110945
0.011224
0.0113574
0.0115626
0.0101943
0.010261
0.0103338
0.0104127
0.0104975
0.010588
0.0106841
0.0107856
0.0108923
0.0110041
0.0111207
0.011242
0.0113678
0.0114978
0.0116318
0.0118358
0.0104656
0.0105324
0.0106054
0.0106844
0.0107694
0.0108602
0.0109566
0.0110584
0.0111655
0.0112777
0.0113948
0.0115166
0.0116429
0.0117735
0.0119082
0.0121112
0.010805
0.0108782
0.0109575
0.0110428
0.0111338
0.0112306
0.0113328
0.0114403
0.011553
0.0116706
0.011793
0.0119199
0.0120512
0.0121866
0.0123887
0.011079
0.0111525
0.0112321
0.0113177
0.0114091
0.0115063
0.0116089
0.0117169
0.0118302
0.0119484
0.0120714
0.012199
0.0123311
0.0124673
0.0126687
0.0113547
0.0114284
0.0115084
0.0115943
0.0116862
0.0117838
0.011887
0.0119956
0.0121094
0.0122283
0.0123521
0.0124805
0.0126133
0.0127504
0.0129512
0.0115644
0.0116321
0.0117062
0.0117865
0.011873
0.0119653
0.0120635
0.0121672
0.0122765
0.012391
0.0125106
0.0126352
0.0127644
0.0128981
0.0130361
0.0132365
0.0118435
0.0119116
0.0119861
0.0120668
0.0121538
0.0122467
0.0123454
0.0124498
0.0125597
0.012675
0.0127954
0.0129208
0.013051
0.0131857
0.0133247
0.0135247
0.0121248
0.0121933
0.0122682
0.0123494
0.0124369
0.0125304
0.0126298
0.0127349
0.0128456
0.0129616
0.0130829
0.0132092
0.0133404
0.0134761
0.0136162
0.013816
0.0124085
0.0124774
0.0125528
0.0126345
0.0127226
0.0128167
0.0129168
0.0130226
0.0131341
0.0132511
0.0133733
0.0135006
0.0136328
0.0137696
0.0139109
0.0141106
0.012632
0.0126947
0.0127641
0.01284
0.0129223
0.013011
0.0131058
0.0132066
0.0133133
0.0134256
0.0135435
0.0136668
0.0137952
0.0139284
0.0140664
0.014209
0.0144087
0.0129205
0.0129837
0.0130535
0.01313
0.013213
0.0133023
0.0133978
0.0134994
0.013607
0.0137203
0.0138392
0.0139635
0.014093
0.0142274
0.0143667
0.0145106
0.0147104
0.0131551
0.0132119
0.0132756
0.013346
0.0134231
0.0135067
0.0135967
0.013693
0.0137955
0.0139039
0.0140183
0.0141382
0.0142637
0.0143943
0.01453
0.0146706
0.0148158
0.015016
0.0134492
0.0135064
0.0135706
0.0136416
0.0137193
0.0138036
0.0138944
0.0139915
0.0140949
0.0142044
0.0143197
0.0144408
0.0145674
0.0146993
0.0148364
0.0149784
0.015125
0.0153256
0.0137465
0.0138042
0.0138689
0.0139405
0.0140189
0.014104
0.0141956
0.0142936
0.014398
0.0145085
0.0146249
0.0147472
0.014875
0.0150083
0.0151467
0.0152901
0.0154383
0.0156393
0.0140473
0.0141055
0.0141708
0.014243
0.0143221
0.014408
0.0145005
0.0145994
0.0147048
0.0148163
0.014934
0.0150575
0.0151866
0.0153212
0.0154611
0.0156061
0.0157558
0.0159574
0.0143517
0.0144104
0.0144763
0.0145492
0.0146291
0.0147158
0.0148092
0.0149091
0.0150156
0.0151282
0.0152471
0.0153719
0.0155024
0.0156385
0.0157799
0.0159264
0.0160778
0.0162801
0.01466
0.0147192
0.0147857
0.0148594
0.01494
0.0150276
0.0151219
0.015223
0.0153305
0.0154444
0.0155645
0.0156907
0.0158226
0.0159602
0.0161031
0.0162513
0.0164045
0.0166076
0.0149722
0.0150321
0.0150993
0.0151737
0.0152552
0.0153436
0.015439
0.0155411
0.0156497
0.0157649
0.0158864
0.0160139
0.0161474
0.0162865
0.0164311
0.0165811
0.016736
0.0169401
0.0152887
0.0153493
0.0154172
0.0154923
0.0155747
0.0156641
0.0157604
0.0158637
0.0159736
0.0160901
0.0162129
0.016342
0.016477
0.0166178
0.0167641
0.0169158
0.0170726
0.0172778
0.0156097
0.0156709
0.0157395
0.0158155
0.0158988
0.0159892
0.0160866
0.016191
0.0163022
0.0164201
0.0165443
0.0166749
0.0168116
0.0169541
0.0171022
0.0172558
0.0174146
0.0176209
0.0159352
0.0159971
0.0160666
0.0161434
0.0162276
0.0163191
0.0164177
0.0165233
0.0166358
0.0167551
0.0168808
0.017013
0.0171514
0.0172957
0.0174457
0.0176013
0.017762
0.0179695
0.0162657
0.0163283
0.0163985
0.0164763
0.0165615
0.016654
0.0167538
0.0168607
0.0169746
0.0170953
0.0172227
0.0173565
0.0174966
0.0176428
0.0177948
0.0179524
0.0181152
0.018324
0.0166011
0.0166645
0.0167356
0.0168143
0.0169005
0.0169942
0.0170952
0.0172034
0.0173187
0.017441
0.01757
0.0177056
0.0178476
0.0179957
0.0181497
0.0183094
0.0184744
0.0186846
0.0169419
0.0170061
0.017078
0.0171576
0.0172449
0.0173398
0.0174421
0.0175518
0.0176686
0.0177924
0.0179232
0.0180605
0.0182044
0.0183545
0.0185106
0.0186725
0.0188397
0.0190514
0.0172882
0.0173532
0.017426
0.0175066
0.017595
0.0176911
0.0177948
0.0179059
0.0180242
0.0181498
0.0182823
0.0184215
0.0185673
0.0187195
0.0188778
0.0190419
0.0192115
0.0194248
0.0176403
0.017706
0.0177798
0.0178615
0.0179511
0.0180485
0.0181535
0.018266
0.018386
0.0185133
0.0186476
0.0187887
0.0189366
0.019091
0.0192516
0.0194179
0.0195899
0.0198049
0.0179399
0.0179983
0.0180649
0.0181397
0.0182225
0.0183132
0.0184119
0.0185184
0.0186325
0.0187541
0.0188832
0.0190194
0.0191626
0.0193126
0.0194692
0.0196321
0.0198009
0.0199752
0.0201921
0.0183034
0.0183626
0.0184301
0.0185059
0.0185898
0.0186818
0.0187818
0.0188898
0.0190055
0.0191289
0.0192597
0.0193979
0.0195432
0.0196954
0.0198543
0.0200196
0.0201909
0.0203678
0.0205866
0.0186217
0.0186733
0.0187334
0.0188018
0.0188786
0.0189637
0.019057
0.0191585
0.0192679
0.0193853
0.0195105
0.0196432
0.0197834
0.0199309
0.0200854
0.0202467
0.0204145
0.0205883
0.0207678
0.0209886
0.0189977
0.01905
0.0191109
0.0191803
0.0192582
0.0193445
0.0194391
0.019542
0.0196531
0.0197721
0.0198992
0.0200339
0.0201762
0.0203259
0.0204828
0.0206466
0.0208169
0.0209935
0.0211757
0.0213985
0.0193807
0.0194337
0.0194954
0.0195659
0.0196449
0.0197324
0.0198284
0.0199328
0.0200455
0.0201664
0.0202953
0.0204321
0.0205765
0.0207286
0.0208879
0.0210543
0.0212273
0.0214066
0.0215916
0.0218165
0.0197709
0.0198247
0.0198873
0.0199588
0.020039
0.0201278
0.0202252
0.0203312
0.0204455
0.0205682
0.0206991
0.020838
0.0209847
0.0211392
0.0213011
0.02147
0.0216458
0.021828
0.0220159
0.022243
0.0201686
0.0202232
0.0202867
0.0203593
0.0204407
0.0205309
0.0206297
0.0207373
0.0208534
0.020978
0.0211109
0.021252
0.0214011
0.021558
0.0217225
0.0218942
0.0220729
0.022258
0.022449
0.0226781
0.0205741
0.0206295
0.0206941
0.0207677
0.0208504
0.0209419
0.0210423
0.0211516
0.0212695
0.0213961
0.0215311
0.0216744
0.0218259
0.0219854
0.0221525
0.0223271
0.0225087
0.022697
0.022891
0.0231223
0.0209878
0.0210441
0.0211096
0.0211844
0.0212683
0.0213614
0.0214633
0.0215743
0.0216941
0.0218226
0.0219599
0.0221055
0.0222595
0.0224216
0.0225915
0.022769
0.0229538
0.0231452
0.0233425
0.0235759
0.0214099
0.0214671
0.0215337
0.0216096
0.0216949
0.0217894
0.021893
0.0220057
0.0221275
0.0222581
0.0223976
0.0225456
0.0227022
0.022867
0.0230398
0.0232204
0.0234083
0.0236031
0.0238038
0.0240391
0.0218408
0.0218989
0.0219665
0.0220437
0.0221304
0.0222265
0.0223318
0.0224463
0.0225701
0.0227028
0.0228447
0.0229952
0.0231544
0.023322
0.0234978
0.0236815
0.0238727
0.024071
0.0242752
0.0245124
0.0222809
0.0223399
0.0224086
0.0224871
0.0225752
0.0226728
0.0227799
0.0228963
0.0230222
0.0231572
0.0233014
0.0234545
0.0236164
0.0237869
0.0239657
0.0241527
0.0243474
0.0245493
0.0247572
0.0249961
0.0227305
0.0227904
0.0228603
0.02294
0.0230296
0.0231289
0.0232378
0.0233561
0.0234841
0.0236215
0.0237681
0.0239239
0.0240886
0.0242621
0.0244441
0.0246345
0.0248326
0.0250384
0.0252504
0.0254919
0.0231899
0.0232508
0.0233219
0.0234029
0.0234941
0.0235951
0.0237058
0.0238262
0.0239564
0.0240961
0.0242453
0.0244038
0.0245714
0.024748
0.0249333
0.0251271
0.0253289
0.0255386
0.025755
0.0260035
0.0236596
0.0237215
0.0237938
0.0238762
0.023969
0.0240716
0.0241843
0.0243068
0.0244393
0.0245815
0.0247334
0.0248946
0.0250653
0.0252451
0.0254337
0.0256311
0.0258366
0.0260505
0.0262719
0.026534
0.0241399
0.0242029
0.0242764
0.0243603
0.0244546
0.0245591
0.0246737
0.0247985
0.0249333
0.025078
0.0252326
0.0253968
0.0255705
0.0257537
0.0259458
0.0261469
0.0263565
0.0265749
0.0268038
0.0270827
0.0246312
0.0246953
0.0247702
0.0248556
0.0249515
0.0250579
0.0251746
0.0253016
0.0254388
0.0255862
0.0257436
0.0259108
0.0260877
0.0262743
0.0264702
0.0266755
0.0268912
0.0271167
0.0273566
0.0276478
0.0251341
0.0251994
0.0252755
0.0253625
0.0254602
0.0255684
0.0256872
0.0258166
0.0259563
0.0261064
0.0262668
0.0264371
0.0266175
0.0268084
0.0270099
0.0272219
0.0274467
0.0276822
0.0279322
0.0282287
0.025649
0.0257154
0.0257929
0.0258815
0.025981
0.0260912
0.0262122
0.026344
0.0264864
0.0266393
0.0268029
0.0269776
0.0271634
0.0273608
0.0275709
0.027792
0.0280255
0.0282701
0.0285269
0.0288247
0.0261763
0.0262439
0.0263228
0.026413
0.0265144
0.0266267
0.0267501
0.0268845
0.0270303
0.0271876
0.0273562
0.0275375
0.0277314
0.0279371
0.0281553
0.0283846
0.0286245
0.0288754
0.0291369
0.0294352
0.0267166
0.0267855
0.026866
0.0269579
0.0270613
0.0271766
0.0273037
0.0274422
0.0275931
0.027757
0.0279329
0.0281216
0.0283229
0.0285357
0.0287599
0.0289951
0.02924
0.0294955
0.0297606
0.0300601
0.0272713
0.0273423
0.0274252
0.0275199
0.0276264
0.0277461
0.0278786
0.0280232
0.0281804
0.0283505
0.028533
0.0287277
0.0289343
0.0291522
0.0293811
0.0296208
0.0298699
0.0301294
0.0303978
0.0306993
0.0278457
0.0279197
0.028006
0.0281047
0.0282158
0.0283402
0.0284778
0.028628
0.0287905
0.0289653
0.0291524
0.0293516
0.0295623
0.0297843
0.0300171
0.0302607
0.0305137
0.0307769
0.0310486
0.0313531
0.0284449
0.0285219
0.0286113
0.0287138
0.028829
0.0289573
0.0290985
0.0292527
0.0294191
0.0295975
0.0297883
0.0299911
0.0302053
0.0304308
0.0306674
0.0309146
0.0311715
0.0314385
0.031714
0.0320222
0.0290675
0.0291466
0.0292385
0.0293436
0.0294618
0.0295929
0.029737
0.0298942
0.0300637
0.0302454
0.0304392
0.0306452
0.0308628
0.0310918
0.0313319
0.0315829
0.0318439
0.032115
0.0323947
0.0327071
0.0301114
0.030245
0.0303915
0.0305512
0.0307235
0.0309081
0.031105
0.0313141
0.031535
0.0317675
0.0320114
0.0322663
0.0325318
0.0328073
0.0330917
0.0334088
0.0313985
0.0315859
0.0317859
0.0319982
0.0322226
0.0324589
0.0327068
0.032966
0.0332361
0.0335165
0.033806
0.0341283
0.0126683
0.0124669
0.0129508
0.01275
0.0132361
0.0130357
0.0135243
0.0133243
0.0131853
0.0138156
0.0136158
0.0134757
0.0141103
0.0139105
0.0137692
0.0136324
0.0144083
0.0142086
0.014066
0.013928
0.01471
0.0145101
0.0143663
0.014227
0.0150156
0.0148154
0.0146702
0.0145296
0.0143939
0.0153252
0.0151246
0.0149779
0.014836
0.014699
0.0156389
0.0154379
0.0152897
0.0151463
0.0150079
0.015957
0.0157554
0.0156056
0.0154607
0.0153208
0.0162797
0.0160774
0.015926
0.0157795
0.0156381
0.0166072
0.0164041
0.016251
0.0161028
0.0159598
0.0169397
0.0167356
0.0165807
0.0164308
0.0162861
0.0161469
0.0172773
0.0170722
0.0169155
0.0167638
0.0166174
0.0164765
0.0176204
0.0174141
0.0172554
0.0171019
0.0169537
0.0168111
0.0166744
0.0179691
0.0177616
0.0176008
0.0174454
0.0172953
0.0171509
0.0170125
0.0168803
0.0183236
0.0181147
0.0179519
0.0177944
0.0176424
0.0174962
0.017356
0.0172221
0.0170947
0.0186842
0.0184739
0.0183088
0.0181492
0.0179952
0.0178471
0.017705
0.0175695
0.0174404
0.0173182
0.019051
0.0188392
0.0186719
0.0185101
0.018354
0.0182039
0.01806
0.0179226
0.0177918
0.017668
0.0194244
0.019211
0.0190414
0.0188773
0.018719
0.0185668
0.0184209
0.0182816
0.0181492
0.0180236
0.0198046
0.0195894
0.0194174
0.019251
0.0190905
0.0189362
0.0187882
0.018647
0.0185126
0.0183854
0.0201917
0.0199748
0.0198004
0.0196315
0.0194687
0.0193121
0.019162
0.0190188
0.0188826
0.0187535
0.0205862
0.0203674
0.0201904
0.0200191
0.0198538
0.019695
0.0195427
0.0193973
0.0192591
0.0191283
0.0209882
0.0207675
0.0205879
0.020414
0.0202462
0.0200849
0.0199304
0.0197829
0.0196426
0.0195098
0.0213981
0.0211753
0.0209931
0.0208165
0.0206461
0.0204824
0.0203254
0.0201757
0.0200333
0.0198985
0.0218161
0.0215912
0.0214062
0.0212269
0.0210538
0.0208875
0.0207281
0.020576
0.0204315
0.0202947
0.0222426
0.0220156
0.0218276
0.0216454
0.0214696
0.0213006
0.0211387
0.0209842
0.0208374
0.0206985
0.0226777
0.0224486
0.0222576
0.0220725
0.0218938
0.021722
0.0215575
0.0214006
0.0212514
0.0211103
0.0231219
0.0228906
0.0226966
0.0225083
0.0223267
0.022152
0.0219849
0.0218253
0.0216738
0.0215304
0.0235754
0.023342
0.0231448
0.0229533
0.0227686
0.022591
0.022421
0.0222589
0.0221049
0.0219592
0.0126682
0.0129508
0.0132361
0.0135243
0.0138156
0.0141102
0.0144083
0.01471
0.0150156
0.0153252
0.0156389
0.015957
0.0162798
0.0166073
0.0169397
0.0172774
0.0176204
0.0179691
0.0183236
0.0186841
0.019051
0.0194244
0.0198046
0.0201918
0.0205862
0.0209883
0.0213982
0.0218162
0.0222427
0.0226778
0.023122
0.0235755
0.0124669
0.01275
0.0130357
0.0133243
0.0136158
0.0139105
0.0142086
0.0145102
0.0148154
0.0151246
0.0154379
0.0157554
0.0160774
0.0164041
0.0167357
0.0170723
0.0174143
0.0177617
0.0181148
0.018474
0.0188393
0.019211
0.0195895
0.0199749
0.0203675
0.0207676
0.0211754
0.0215914
0.0220157
0.0224487
0.0228908
0.0233423
0.0238035
0.0123307
0.0126129
0.0128977
0.0131852
0.0134757
0.0137692
0.0140661
0.0143664
0.0146703
0.014978
0.0152898
0.0156057
0.0159261
0.016251
0.0165807
0.0169155
0.0172555
0.017601
0.017952
0.018309
0.0186721
0.0190415
0.0194176
0.0198005
0.0201906
0.020588
0.0209932
0.0214064
0.0218278
0.0222578
0.0226968
0.023145
0.0236029
0.0240708
0.0245491
0.0250381
0.0255384
0.0260503
0.0121987
0.0124801
0.012764
0.0130506
0.01334
0.0136324
0.0139281
0.0142271
0.0145297
0.0148361
0.0151464
0.0154608
0.0157796
0.0161028
0.0164308
0.0167638
0.0171019
0.0174454
0.0177945
0.0181494
0.0185104
0.0188776
0.0192513
0.0196318
0.0200193
0.0204142
0.0208167
0.0212271
0.0216456
0.0220727
0.0225085
0.0229535
0.0234081
0.0238725
0.0243471
0.0248323
0.0253286
0.0258363
0.0120711
0.0123517
0.0126348
0.0129204
0.0132089
0.0135003
0.0137948
0.0140926
0.014394
0.014699
0.0150079
0.0153209
0.0156382
0.0159599
0.0162863
0.0166175
0.0169538
0.0172954
0.0176425
0.0179954
0.0183543
0.0187193
0.0190908
0.019469
0.0198541
0.0202465
0.0206464
0.021054
0.0214698
0.0218939
0.0223268
0.0227687
0.0232201
0.0236812
0.0241524
0.0246341
0.0251268
0.0256308
0.0119481
0.012228
0.0125103
0.0127951
0.0130826
0.013373
0.0136664
0.0139632
0.0142633
0.0145671
0.0148748
0.0151864
0.0155022
0.0158224
0.0161472
0.0164768
0.0168114
0.0171512
0.0174964
0.0178473
0.0182041
0.0185671
0.0189364
0.0193124
0.0196952
0.0200852
0.0204826
0.0208877
0.0213008
0.0217222
0.0221522
0.0225912
0.0230395
0.0234975
0.0239654
0.0244438
0.024933
0.0254333
0.0259454
0.0118299
0.0121091
0.0123906
0.0126746
0.0129613
0.0132507
0.0135432
0.0138389
0.014138
0.0144406
0.014747
0.0150573
0.0153717
0.0156905
0.0160138
0.0163418
0.0166747
0.0170129
0.0173564
0.0177054
0.0180603
0.0184213
0.0187885
0.0191623
0.019543
0.0199306
0.0203257
0.0207283
0.0211389
0.0215577
0.0219851
0.0224213
0.0228667
0.0233217
0.0237866
0.0242618
0.0247477
0.0252447
0.0257533
0.0117166
0.0119953
0.0122761
0.0125594
0.0128452
0.0131338
0.0134254
0.01372
0.0140181
0.0143196
0.0146248
0.0149338
0.015247
0.0155644
0.0158863
0.0162128
0.0165442
0.0168807
0.0172225
0.0175699
0.0179229
0.018282
0.0186473
0.0190191
0.0193977
0.0197832
0.020176
0.0205763
0.0209845
0.0214008
0.0218257
0.0222593
0.022702
0.0231541
0.0236161
0.0240883
0.0245711
0.025065
0.0255702
0.0116086
0.0118867
0.0121669
0.0124495
0.0127346
0.0130224
0.013313
0.0136068
0.0139038
0.0142043
0.0145083
0.0148162
0.0151281
0.0154443
0.0157648
0.01609
0.01642
0.0167549
0.0170952
0.0174408
0.0177922
0.0181495
0.018513
0.0188829
0.0192595
0.019643
0.0200337
0.0204319
0.0208378
0.0212518
0.0216742
0.0221053
0.0225454
0.022995
0.0234542
0.0239236
0.0244035
0.0248943
0.0253965
0.0115059
0.0117835
0.0120632
0.0123451
0.0126295
0.0129165
0.0132064
0.0134993
0.0137954
0.0140948
0.0143979
0.0147047
0.0150154
0.0153304
0.0156497
0.0159735
0.0163021
0.0166357
0.0169745
0.0173186
0.0176684
0.018024
0.0183858
0.0187539
0.0191286
0.0195102
0.0198989
0.0202951
0.020699
0.0211108
0.0215309
0.0219597
0.0223974
0.0228444
0.0233011
0.0237678
0.024245
0.024733
0.0252323
0.0114088
0.0116859
0.011965
0.0122464
0.0125301
0.0128165
0.0131056
0.0133977
0.0136929
0.0139915
0.0142936
0.0145994
0.0149091
0.0152229
0.015541
0.0158636
0.016191
0.0165232
0.0168605
0.0172033
0.0175515
0.0179057
0.0182658
0.0186323
0.0190053
0.0193851
0.019772
0.0201662
0.0205681
0.0209779
0.0213959
0.0218225
0.022258
0.0227027
0.023157
0.0236213
0.0240958
0.0245812
0.0250776
0.011594
0.0118727
0.0121535
0.0124367
0.0127224
0.0130108
0.0133022
0.0135966
0.0138943
0.0141955
0.0145004
0.0148091
0.0151219
0.0154389
0.0157604
0.0160866
0.0164176
0.0167536
0.017095
0.0174419
0.0177946
0.0181533
0.0185182
0.0188896
0.0192678
0.019653
0.0200454
0.0204455
0.0208533
0.0212694
0.021694
0.0221274
0.0225699
0.023022
0.0234839
0.0239561
0.024439
0.0249329
0.0117863
0.0120666
0.0123492
0.0126344
0.0129222
0.0132128
0.0135066
0.0138035
0.0141039
0.0144079
0.0147157
0.0150276
0.0153436
0.015664
0.0159891
0.016319
0.0166539
0.016994
0.0173397
0.017691
0.0180483
0.0184118
0.0187817
0.0191583
0.0195419
0.0199327
0.020331
0.0207371
0.0211514
0.021574
0.0220055
0.022446
0.022896
0.0233559
0.0238259
0.0243065
0.0247981
0.0117059
0.0119858
0.012268
0.0125526
0.0128398
0.0131299
0.013423
0.0137192
0.0140189
0.0143221
0.0146291
0.01494
0.0152551
0.0155746
0.0158987
0.0162275
0.0165613
0.0169003
0.0172448
0.0175949
0.017951
0.0183132
0.0186817
0.0190569
0.019439
0.0198283
0.020225
0.0206295
0.0210421
0.021463
0.0218926
0.0223313
0.0227794
0.0232373
0.0237053
0.0241838
0.0246733
0.0119113
0.012193
0.0124772
0.0127639
0.0130534
0.0133459
0.0136415
0.0139405
0.014243
0.0145492
0.0148594
0.0151737
0.0154923
0.0158154
0.0161432
0.0164761
0.0168141
0.0171575
0.0175065
0.0178614
0.0182224
0.0185897
0.0189636
0.0193444
0.0197322
0.0201275
0.0205305
0.0209416
0.021361
0.021789
0.022226
0.0226724
0.0231284
0.0235945
0.0240711
0.0245586
0.0118432
0.0121245
0.0124082
0.0126945
0.0129835
0.0132755
0.0135705
0.0138689
0.0141707
0.0144763
0.0147857
0.0150993
0.0154171
0.0157394
0.0160664
0.0163983
0.0167354
0.0170778
0.0174258
0.0177797
0.0181396
0.0185057
0.0188785
0.019258
0.0196446
0.0200386
0.0204403
0.02085
0.021268
0.0216945
0.02213
0.0225748
0.0230292
0.0234937
0.0239685
0.0244541
0.0120625
0.0123459
0.0126317
0.0129203
0.0132118
0.0135063
0.0138041
0.0141054
0.0144104
0.0147192
0.015032
0.0153491
0.0156707
0.015997
0.0163281
0.0166643
0.0170059
0.017353
0.0177059
0.0180648
0.01843
0.0188017
0.0191801
0.0195657
0.0199585
0.020359
0.0207674
0.0211841
0.0216093
0.0220434
0.0224867
0.0229397
0.0234026
0.0238758
0.0243599
0.0122902
0.0125757
0.0128638
0.0131549
0.013449
0.0137464
0.0140472
0.0143516
0.0146598
0.0149721
0.0152885
0.0156095
0.0159351
0.0162655
0.016601
0.0169418
0.0172881
0.0176401
0.0179982
0.0183625
0.0187332
0.0191107
0.0194953
0.0198872
0.0202866
0.0206939
0.0211094
0.0215334
0.0219663
0.0224084
0.02286
0.0233215
0.0237934
0.024276
0.0122413
0.0125265
0.0128143
0.013105
0.0133987
0.0136957
0.013996
0.0143
0.0146077
0.0149195
0.0152354
0.0155558
0.0158807
0.0162105
0.0165454
0.0168855
0.0172311
0.0175825
0.0179398
0.0183033
0.0186732
0.0190499
0.0194336
0.0198245
0.020223
0.0206294
0.0210439
0.0214669
0.0218988
0.0223397
0.0227902
0.0232506
0.0237212
0.0242026
0.0121992
0.0124842
0.0127717
0.0130621
0.0133555
0.0136521
0.013952
0.0142556
0.0145629
0.0148743
0.0151897
0.0155096
0.0158341
0.0161634
0.0164977
0.0168372
0.0171822
0.0175329
0.0178896
0.0182524
0.0186217
0.0189977
0.0193806
0.0197708
0.0201685
0.020574
0.0209877
0.0214098
0.0218407
0.0222808
0.0227303
0.0231897
0.0236593
0.0241395
0.0121641
0.0124488
0.0127361
0.0130262
0.0133194
0.0136156
0.0139153
0.0142185
0.0145255
0.0148365
0.0151516
0.0154711
0.0157952
0.016124
0.0164579
0.0167969
0.0171414
0.0174916
0.0178477
0.01821
0.0185787
0.0189541
0.0193364
0.0197259
0.020123
0.0205278
0.0209408
0.0213622
0.0217924
0.0222316
0.0226804
0.0231389
0.0236076
0.024087
0.0124205
0.0127076
0.0129975
0.0132904
0.0135864
0.0138858
0.0141888
0.0144956
0.0148062
0.0151211
0.0154402
0.0157639
0.0160924
0.0164259
0.0167646
0.0171087
0.0174585
0.0178142
0.018176
0.0185443
0.0189192
0.019301
0.01969
0.0200866
0.0204909
0.0209033
0.0213241
0.0217536
0.0221922
0.0226403
0.0230982
0.0235662
0.0240448
0.0123992
0.0126861
0.0129759
0.0132686
0.0135645
0.0138637
0.0141665
0.014473
0.0147835
0.0150981
0.015417
0.0157405
0.0160687
0.0164019
0.0167403
0.0170841
0.0174336
0.017789
0.0181505
0.0185184
0.018893
0.0192744
0.0196631
0.0200592
0.020463
0.020875
0.0212954
0.0217245
0.0221626
0.0226102
0.0230676
0.0235351
0.0240133
0.0126718
0.0129615
0.0132541
0.0135499
0.013849
0.0141516
0.014458
0.0147683
0.0150828
0.0154015
0.0157248
0.0160529
0.0163859
0.0167241
0.0170678
0.017417
0.0177722
0.0181335
0.0185011
0.0188754
0.0192566
0.019645
0.0200409
0.0204445
0.0208562
0.0212762
0.021705
0.0221429
0.0225901
0.0230472
0.0235144
0.0239921
0.0126647
0.0129543
0.0132468
0.0135426
0.0138416
0.0141442
0.0144505
0.0147607
0.0150751
0.0153938
0.015717
0.016045
0.0163779
0.016716
0.0170596
0.0174087
0.0177638
0.018125
0.0184925
0.0188667
0.0192478
0.019636
0.0200318
0.0204352
0.0208468
0.0212667
0.0216953
0.022133
0.0225801
0.0230369
0.023504
0.0239816
0.0129543
0.0132468
0.0135426
0.0138416
0.0141442
0.0144505
0.0147607
0.0150751
0.0153938
0.015717
0.016045
0.0163779
0.016716
0.0170595
0.0174087
0.0177638
0.018125
0.0184925
0.0188667
0.0192478
0.019636
0.0200317
0.0204352
0.0208467
0.0212667
0.0216953
0.022133
0.02258
0.0230369
0.0235039
0.0239815
0.0129615
0.0132541
0.0135499
0.013849
0.0141516
0.014458
0.0147683
0.0150827
0.0154015
0.0157248
0.0160529
0.0163859
0.0167241
0.0170677
0.017417
0.0177722
0.0181335
0.0185012
0.0188754
0.0192566
0.019645
0.0200408
0.0204444
0.0208561
0.0212762
0.0217049
0.0221428
0.02259
0.0230471
0.0235143
0.023992
0.0129759
0.0132686
0.0135645
0.0138637
0.0141665
0.014473
0.0147834
0.015098
0.015417
0.0157405
0.0160687
0.0164019
0.0167403
0.0170842
0.0174336
0.017789
0.0181505
0.0185184
0.0188929
0.0192743
0.0196629
0.020059
0.0204629
0.0208749
0.0212953
0.0217243
0.0221625
0.02261
0.0230674
0.0235349
0.024013
0.0129975
0.0132904
0.0135864
0.0138858
0.0141888
0.0144955
0.0148062
0.015121
0.0154402
0.0157639
0.0160924
0.0164259
0.0167646
0.0171087
0.0174585
0.0178141
0.0181759
0.0185442
0.0189191
0.0193009
0.0196899
0.0200864
0.0204907
0.0209031
0.0213238
0.0217534
0.022192
0.0226401
0.0230979
0.023566
0.0240447
0.0130263
0.0133193
0.0136156
0.0139152
0.0142185
0.0145255
0.0148365
0.0151516
0.0154711
0.0157952
0.016124
0.0164578
0.0167969
0.0171414
0.0174916
0.0178477
0.01821
0.0185787
0.018954
0.0193363
0.0197258
0.0201228
0.0205277
0.0209407
0.0213621
0.0217922
0.0222314
0.0226801
0.0231387
0.0236074
0.0240868
0.0130621
0.0133555
0.013652
0.013952
0.0142556
0.0145629
0.0148743
0.0151898
0.0155097
0.0158342
0.0161634
0.0164977
0.0168372
0.0171822
0.0175329
0.0178896
0.0182524
0.0186217
0.0189977
0.0193806
0.0197707
0.0201685
0.020574
0.0209876
0.0214097
0.0218406
0.0222806
0.0227301
0.0231895
0.0236591
0.0241393
0.013105
0.0133987
0.0136957
0.013996
0.0143
0.0146078
0.0149195
0.0152355
0.0155558
0.0158808
0.0162106
0.0165454
0.0168855
0.0172311
0.0175825
0.0179398
0.0183033
0.0186732
0.0190499
0.0194336
0.0198245
0.020223
0.0206294
0.0210439
0.0214669
0.0218987
0.0223396
0.0227901
0.0232505
0.0237211
0.0242024
0.013155
0.0134491
0.0137464
0.0140472
0.0143516
0.0146599
0.0149721
0.0152886
0.0156095
0.0159351
0.0162655
0.016601
0.0169418
0.0172881
0.0176402
0.0179982
0.0183625
0.0187333
0.0191108
0.0194953
0.0198872
0.0202866
0.0206939
0.0211094
0.0215334
0.0219663
0.0224083
0.02286
0.0233215
0.0237934
0.0242759
0.0132119
0.0135065
0.0138043
0.0141056
0.0144105
0.0147193
0.0150321
0.0153492
0.0156707
0.015997
0.0163281
0.0166643
0.0170059
0.017353
0.0177059
0.0180648
0.01843
0.0188017
0.0191802
0.0195657
0.0199586
0.020359
0.0207675
0.0211841
0.0216093
0.0220434
0.0224868
0.0229397
0.0234026
0.0238758
0.0243598
0.0132757
0.0135707
0.013869
0.0141709
0.0144764
0.0147858
0.0150993
0.0154171
0.0157394
0.0160664
0.0163983
0.0167354
0.0170778
0.0174259
0.0177797
0.0181396
0.0185058
0.0188786
0.0192581
0.0196448
0.0200388
0.0204405
0.0208501
0.0212681
0.0216946
0.0221301
0.0225748
0.0230292
0.0234936
0.0239684
0.024454
0.0133461
0.0136417
0.0139407
0.0142432
0.0145494
0.0148595
0.0151737
0.0154923
0.0158154
0.0161433
0.0164761
0.0168141
0.0171575
0.0175066
0.0178615
0.0182224
0.0185898
0.0189637
0.0193445
0.0197324
0.0201277
0.0205307
0.0209417
0.021361
0.021789
0.022226
0.0226724
0.0231284
0.0235945
0.0240711
0.0245585
0.0134232
0.0137194
0.014019
0.0143223
0.0146292
0.0149402
0.0152553
0.0155747
0.0158988
0.0162276
0.0165614
0.0169004
0.0172449
0.017595
0.0179511
0.0183133
0.0186818
0.019057
0.0194391
0.0198284
0.0202251
0.0206296
0.0210422
0.0214631
0.0218927
0.0223314
0.0227795
0.0232373
0.0237052
0.0241837
0.0246731
0.0135068
0.0138037
0.0141041
0.0144081
0.0147159
0.0150278
0.0153438
0.0156642
0.0159892
0.0163191
0.016654
0.0169941
0.0173398
0.0176911
0.0180484
0.0184119
0.0187818
0.0191584
0.019542
0.0199328
0.0203311
0.0207372
0.0211514
0.0215741
0.0220055
0.0224461
0.022896
0.0233558
0.0238258
0.0243064
0.024798
0.0135968
0.0138946
0.0141958
0.0145006
0.0148094
0.0151222
0.0154392
0.0157606
0.0160868
0.0164177
0.0167538
0.0170952
0.0174421
0.0177948
0.0181534
0.0185183
0.0188897
0.0192679
0.0196531
0.0200455
0.0204455
0.0208534
0.0212694
0.021694
0.0221273
0.0225698
0.0230219
0.0234838
0.023956
0.0244389
0.0249328
0.0136932
0.0139917
0.0142938
0.0145996
0.0149094
0.0152232
0.0155413
0.0158639
0.0161912
0.0165234
0.0168608
0.0172035
0.0175518
0.0179059
0.018266
0.0186324
0.0190054
0.0193852
0.0197721
0.0201663
0.0205682
0.020978
0.021396
0.0218225
0.022258
0.0227027
0.0231569
0.0236211
0.0240957
0.024581
0.0250775
0.0137956
0.0140951
0.0143981
0.014705
0.0150158
0.0153307
0.01565
0.0159738
0.0163024
0.0166359
0.0169747
0.0173188
0.0176686
0.0180243
0.018386
0.0187541
0.0191288
0.0195104
0.0198991
0.0202952
0.020699
0.0211108
0.021531
0.0219597
0.0223974
0.0228444
0.0233011
0.0237678
0.024245
0.0247329
0.0252322
0.0139041
0.0142045
0.0145086
0.0148165
0.0151284
0.0154446
0.0157651
0.0160902
0.0164202
0.0167551
0.0170954
0.0174411
0.0177924
0.0181498
0.0185132
0.0188831
0.0192597
0.0196432
0.0200338
0.020432
0.0208379
0.0212519
0.0216743
0.0221054
0.0225455
0.022995
0.0234543
0.0239236
0.0244035
0.0248943
0.0253964
0.0140184
0.0143198
0.014625
0.0149341
0.0152472
0.0155647
0.0158865
0.016213
0.0165444
0.0168809
0.0172227
0.0175701
0.0179232
0.0182822
0.0186475
0.0190193
0.0193978
0.0197834
0.0201762
0.0205765
0.0209847
0.021401
0.0218257
0.0222593
0.022702
0.0231541
0.0236161
0.0240883
0.0245711
0.0250649
0.0255701
0.0141383
0.0144409
0.0147472
0.0150575
0.015372
0.0156908
0.016014
0.016342
0.016675
0.0170131
0.0173565
0.0177056
0.0180605
0.0184215
0.0187888
0.0191625
0.0195431
0.0199308
0.0203258
0.0207285
0.021139
0.0215578
0.0219851
0.0224213
0.0228668
0.0233217
0.0237866
0.0242618
0.0247477
0.0252447
0.0257532
0.0142636
0.0145674
0.014875
0.0151867
0.0155025
0.0158227
0.0161474
0.016477
0.0168116
0.0171514
0.0174967
0.0178476
0.0182044
0.0185673
0.0189366
0.0193125
0.0196953
0.0200853
0.0204827
0.0208877
0.0213008
0.0217222
0.0221523
0.0225913
0.0230396
0.0234975
0.0239655
0.0244439
0.024933
0.0254333
0.0259453
0.0143943
0.0146993
0.0150083
0.0153212
0.0156385
0.0159602
0.0162866
0.0166178
0.0169541
0.0172957
0.0176428
0.0179956
0.0183544
0.0187194
0.0190909
0.0194691
0.0198542
0.0202465
0.0206464
0.0210541
0.0214698
0.021894
0.0223269
0.0227688
0.0232202
0.0236813
0.0241525
0.0246342
0.0251268
0.0256308
0.0261465
0.01453
0.0148363
0.0151466
0.0154611
0.0157799
0.0161032
0.0164312
0.0167642
0.0171023
0.0174457
0.0177947
0.0181496
0.0185105
0.0188777
0.0192513
0.0196318
0.0200194
0.0204143
0.0208167
0.0212271
0.0216456
0.0220727
0.0225085
0.0229536
0.0234081
0.0238726
0.0243472
0.0248324
0.0253287
0.0258364
0.0263561
0.0268907
0.0274456
0.0280239
0.0286227
0.0146705
0.0149782
0.01529
0.0156059
0.0159263
0.0162513
0.0165811
0.0169158
0.0172558
0.0176012
0.0179522
0.0183091
0.0186722
0.0190416
0.0194177
0.0198006
0.0201906
0.0205881
0.0209933
0.0214064
0.0218278
0.0222579
0.0226969
0.0231452
0.023603
0.0240709
0.0245492
0.0250382
0.0255385
0.0260503
0.0265745
0.0271161
0.0276813
0.028269
0.0288741
0.0148156
0.0151248
0.0154381
0.0157556
0.0160777
0.0164044
0.016736
0.0170726
0.0174145
0.0177619
0.018115
0.0184741
0.0188394
0.0192112
0.0195896
0.019975
0.0203676
0.0207677
0.0211755
0.0215915
0.0220158
0.0224488
0.0228908
0.0233423
0.0238036
0.0242751
0.0247571
0.0252503
0.025755
0.0262718
0.0268036
0.0273563
0.0279317
0.0285262
0.029136
0.0150158
0.0153253
0.0156391
0.0159573
0.01628
0.0166075
0.01694
0.0172776
0.0176207
0.0179693
0.0183238
0.0186843
0.0190512
0.0194245
0.0198047
0.0201919
0.0205864
0.0209885
0.0213984
0.0218164
0.0222428
0.022678
0.0231222
0.0235757
0.0240389
0.0245122
0.0249959
0.0254917
0.0260034
0.0265339
0.0270825
0.0276476
0.0282283
0.0288241
0.0294344
0.0150157
0.0153253
0.0156391
0.0159572
0.0162799
0.0166074
0.0169399
0.0172776
0.0176206
0.0179692
0.0183237
0.0186843
0.0190511
0.0194245
0.0198047
0.0201919
0.0205864
0.0209884
0.0213984
0.0218164
0.0222428
0.022678
0.0231222
0.0235757
0.024039
0.0245122
0.024996
0.0254917
0.0260033
0.0265338
0.0270824
0.0276474
0.0282282
0.028824
0.0294343
0.0148156
0.0151248
0.015438
0.0157556
0.0160776
0.0164043
0.0167358
0.0170725
0.0174144
0.0177618
0.018115
0.0184741
0.0188394
0.0192111