/*--------------------------------*- C++ -*----------------------------------*\
  =========                 |
  \\      /  F ield         | OpenFOAM: The Open Source CFD Toolbox
   \\    /   O peration     | Website:  https://openfoam.org
    \\  /    A nd           | Version:  7
     \\/     M anipulation  |
\*---------------------------------------------------------------------------*/
FoamFile
{
    version     2.0;
    format      ascii;
    class       volScalarField;
    location    "24000";
    object      nu;
}
// * * * * * * * * * * * * * * * * * * * * * * * * * * * * * * * * * * * * * //

dimensions      [0 2 -1 0 0 0 0];

internalField   nonuniform List<scalar> 
4764
(
0.000365037
0.000363535
0.000361855
0.000360461
0.000359289
0.00035785
0.000356706
0.000371224
0.000380858
0.000386494
0.000389068
0.000389457
0.000388425
0.000386697
0.000385219
0.000386072
0.000384288
0.000381949
0.000379692
0.000377559
0.000375126
0.000370744
0.000369028
0.000368245
0.00036784
0.000367678
0.000367745
0.000368056
0.000368626
0.000369483
0.000370694
0.000372061
0.000373574
0.00037535
0.000376776
0.000297983
0.000325263
0.000347932
0.000365793
0.000379111
0.000388453
0.00039457
0.000398348
0.000400882
0.000403191
0.000403436
0.000402407
0.000400844
0.000398975
0.000396622
0.000393399
0.000391419
0.000390401
0.000389859
0.000389635
0.000389706
0.000390078
0.00039076
0.00039177
0.000393156
0.000394595
0.000395932
0.000397244
0.000397682
0.000394894
0.000394486
0.000394006
0.000391844
0.000213484
0.000245287
0.000275777
0.000303743
0.000328333
0.000349105
0.000366057
0.000379579
0.000390365
0.000398349
0.000404274
0.000407897
0.000409926
0.000410772
0.000410564
0.000410116
0.000409217
0.000408833
0.000408692
0.000408668
0.000408737
0.000408902
0.000409152
0.000409466
0.000409813
0.000409766
0.000409021
0.000407503
0.000404314
0.000398575
0.000392513
0.000384893
0.000374074
0.000357031
0.000339901
0.000319863
0.000296378
0.000269721
0.000240638
0.000210213
0.000179798
0.000150712
0.000124082
0.000100776
8.11578e-05
0.000133796
0.000159667
0.000187304
0.00021573
0.000243879
0.00027073
0.000295517
0.000317812
0.000337462
0.00035378
0.000367699
0.000378685
0.000387133
0.000393417
0.000397833
0.000401447
0.000403414
0.000404949
0.000406033
0.00040661
0.000406673
0.000406217
0.000405206
0.000403573
0.00040119
0.000397597
0.000392425
0.000385486
0.000376099
0.000364564
0.000350547
0.000334057
0.000314219
0.000290352
0.000265544
0.000239278
0.000211921
0.000184338
0.000157513
0.000132351
0.000109642
8.98391e-05
7.30948e-05
5.93661e-05
4.83469e-05
7.83118e-05
9.45935e-05
0.000113266
0.000134086
0.000156594
0.000180128
0.00020399
0.000227531
0.000250134
0.000270872
0.000289932
0.000306654
0.000320921
0.00033277
0.000342341
0.000350323
0.000355968
0.000360137
0.000362939
0.000364365
0.000364415
0.000363079
0.00036032
0.000356063
0.000350172
0.000342311
0.000332246
0.000319901
0.000305065
0.000288339
0.000269222
0.000248268
0.000225533
0.000201689
0.000177877
0.000154671
0.000132568
0.000112142
9.38152e-05
7.78098e-05
6.42275e-05
5.29527e-05
4.37586e-05
3.63953e-05
3.05417e-05
4.62855e-05
5.51677e-05
6.56924e-05
7.79458e-05
9.19033e-05
0.000107388
0.000124137
0.000141813
0.000159969
0.000177937
0.000195487
0.000212033
0.000227168
0.000240615
0.00025222
0.000262131
0.000269794
0.000275533
0.000279399
0.000281359
0.000281392
0.000279489
0.000275645
0.000269851
0.000262078
0.000252242
0.000240376
0.000226646
0.000211252
0.000194786
0.000177208
0.000159118
0.000140912
0.000123252
0.000106554
9.12107e-05
7.74163e-05
6.53127e-05
5.49119e-05
4.6124e-05
3.88386e-05
3.28696e-05
2.80189e-05
2.41129e-05
2.09648e-05
2.92227e-05
3.38616e-05
3.93753e-05
4.58664e-05
5.34019e-05
6.19829e-05
7.15727e-05
8.20839e-05
9.33399e-05
0.000105031
0.000116951
0.00012875
0.000140082
0.000150635
0.000160152
0.000168487
0.000175249
0.000180416
0.000183931
0.000185719
0.000185737
0.000183979
0.000180474
0.000175283
0.000168484
0.000160175
0.000150548
0.00013987
0.000128446
0.000116691
0.000104757
9.30132e-05
8.17439e-05
7.12712e-05
6.17075e-05
5.31762e-05
4.56961e-05
3.92548e-05
3.37813e-05
2.91726e-05
2.53377e-05
2.21643e-05
1.95461e-05
1.7392e-05
1.56099e-05
2.01372e-05
2.26126e-05
2.55157e-05
2.89009e-05
3.28133e-05
3.72732e-05
4.22891e-05
4.78488e-05
5.38966e-05
6.03146e-05
6.6996e-05
7.37815e-05
8.048e-05
8.68925e-05
9.28296e-05
9.81246e-05
0.000102539
0.000105963
0.000108313
0.000109513
0.000109521
0.000108334
0.000105989
0.000102557
9.81335e-05
9.28444e-05
8.68683e-05
8.04095e-05
7.3683e-05
6.69126e-05
6.02232e-05
5.37849e-05
4.77334e-05
4.21935e-05
3.7188e-05
3.27435e-05
2.88482e-05
2.54786e-05
2.25881e-05
2.01222e-05
1.8031e-05
1.62617e-05
1.47661e-05
1.35003e-05
1.24201e-05
1.50724e-05
1.64709e-05
1.8076e-05
1.99099e-05
2.19928e-05
2.43367e-05
2.69479e-05
2.98228e-05
3.29404e-05
3.62538e-05
3.97124e-05
4.32471e-05
4.67675e-05
5.01725e-05
5.33582e-05
5.62214e-05
5.86381e-05
6.05278e-05
6.18299e-05
6.24959e-05
6.24991e-05
6.18383e-05
6.05383e-05
5.8647e-05
5.62287e-05
5.33664e-05
5.01681e-05
4.67477e-05
4.32192e-05
3.96883e-05
3.62256e-05
3.29043e-05
2.97855e-05
2.69186e-05
2.43114e-05
2.1972e-05
1.98942e-05
1.8065e-05
1.64638e-05
1.50683e-05
1.38542e-05
1.2799e-05
1.18819e-05
1.1083e-05
1.038e-05
1.20508e-05
1.29e-05
1.38506e-05
1.49106e-05
1.60873e-05
1.73859e-05
1.88072e-05
2.0347e-05
2.19943e-05
2.37283e-05
2.55241e-05
2.73487e-05
2.91594e-05
3.09078e-05
3.25425e-05
3.40103e-05
3.52526e-05
3.62255e-05
3.68961e-05
3.72389e-05
3.72402e-05
3.68994e-05
3.62298e-05
3.52568e-05
3.40146e-05
3.25468e-05
3.09083e-05
2.9155e-05
2.7342e-05
2.5518e-05
2.37202e-05
2.1983e-05
2.03354e-05
1.87987e-05
1.7379e-05
1.60817e-05
1.49063e-05
1.38477e-05
1.28983e-05
1.20499e-05
1.12921e-05
1.06157e-05
1.00121e-05
9.47226e-06
8.9845e-06
1.01107e-05
1.06653e-05
1.12713e-05
1.1931e-05
1.26465e-05
1.3419e-05
1.4247e-05
1.51266e-05
1.60507e-05
1.70094e-05
1.79891e-05
1.89725e-05
1.99385e-05
2.08636e-05
2.17224e-05
2.2489e-05
2.31364e-05
2.36427e-05
2.39909e-05
2.41686e-05
2.41691e-05
2.39922e-05
2.36446e-05
2.31385e-05
2.24913e-05
2.17248e-05
2.08648e-05
1.99382e-05
1.89715e-05
1.79881e-05
1.70074e-05
1.60475e-05
1.51232e-05
1.42449e-05
1.34175e-05
1.26454e-05
1.19302e-05
1.12708e-05
1.06651e-05
1.01108e-05
9.60363e-06
9.14022e-06
8.71712e-06
8.33054e-06
7.9736e-06
8.77753e-06
9.16381e-06
9.57719e-06
1.0018e-05
1.04861e-05
1.09811e-05
1.1501e-05
1.20426e-05
1.26012e-05
1.31711e-05
1.37446e-05
1.4312e-05
1.48624e-05
1.53836e-05
1.58629e-05
1.62871e-05
1.66438e-05
1.69218e-05
1.71123e-05
1.72093e-05
1.72096e-05
1.71129e-05
1.69227e-05
1.66449e-05
1.62884e-05
1.58642e-05
1.53846e-05
1.4863e-05
1.43124e-05
1.37449e-05
1.3171e-05
1.26005e-05
1.20419e-05
1.15008e-05
1.09811e-05
1.04862e-05
1.00181e-05
9.57738e-06
9.16399e-06
8.77771e-06
8.41727e-06
8.08158e-06
7.76948e-06
7.47944e-06
7.20708e-06
7.53876e-06
7.80755e-06
8.09114e-06
8.38967e-06
8.70265e-06
9.02932e-06
9.36871e-06
9.719e-06
1.00776e-05
1.04414e-05
1.08066e-05
1.11687e-05
1.1522e-05
1.18603e-05
1.21771e-05
1.24655e-05
1.27186e-05
1.29301e-05
1.30941e-05
1.32062e-05
1.3263e-05
1.32632e-05
1.32065e-05
1.30946e-05
1.29307e-05
1.27193e-05
1.24663e-05
1.21779e-05
1.1861e-05
1.15226e-05
1.11692e-05
1.08069e-05
1.04414e-05
1.00777e-05
9.71928e-06
9.36912e-06
9.02973e-06
8.70302e-06
8.38998e-06
8.09137e-06
7.8077e-06
7.53885e-06
7.28474e-06
7.04514e-06
6.81956e-06
6.60495e-06
6.86138e-06
7.06932e-06
7.28624e-06
7.51172e-06
7.74503e-06
7.98528e-06
8.2314e-06
8.48187e-06
8.73472e-06
8.98768e-06
9.23827e-06
9.48349e-06
9.71985e-06
9.94367e-06
1.01511e-05
1.03382e-05
1.05011e-05
1.06364e-05
1.07408e-05
1.08119e-05
1.08479e-05
1.0848e-05
1.08121e-05
1.07411e-05
1.06367e-05
1.05016e-05
1.03387e-05
1.01516e-05
9.94421e-06
9.7204e-06
9.48399e-06
9.23864e-06
8.98792e-06
8.73496e-06
8.48224e-06
8.23183e-06
7.98568e-06
7.74539e-06
7.512e-06
7.28644e-06
7.06941e-06
6.86126e-06
6.66226e-06
6.47259e-06
6.29222e-06
6.11882e-06
6.32205e-06
6.48767e-06
6.65891e-06
6.83518e-06
7.01575e-06
7.19977e-06
7.38628e-06
7.57403e-06
7.76151e-06
7.94707e-06
8.12893e-06
8.30505e-06
8.47316e-06
8.63088e-06
8.7758e-06
8.90553e-06
9.01776e-06
9.11045e-06
9.18172e-06
9.23008e-06
9.25453e-06
9.25457e-06
9.23019e-06
9.18191e-06
9.11071e-06
9.01809e-06
8.9059e-06
8.7762e-06
8.63129e-06
8.47358e-06
8.30546e-06
8.12926e-06
7.94733e-06
7.76177e-06
7.57436e-06
7.38664e-06
7.20011e-06
7.01604e-06
6.83541e-06
6.65906e-06
6.48772e-06
6.32186e-06
6.16188e-06
6.00812e-06
5.86071e-06
5.71782e-06
5.7506e-06
5.882e-06
6.01696e-06
6.15548e-06
6.29699e-06
6.44083e-06
6.58625e-06
6.73243e-06
6.87835e-06
7.02287e-06
7.16473e-06
7.30263e-06
7.43511e-06
7.56061e-06
7.67752e-06
7.78423e-06
7.87919e-06
7.96093e-06
8.02813e-06
8.07963e-06
8.11449e-06
8.13208e-06
8.13211e-06
8.11456e-06
8.07976e-06
8.02832e-06
7.96117e-06
7.87947e-06
7.78453e-06
7.67784e-06
7.56094e-06
7.43543e-06
7.3029e-06
7.16496e-06
7.0231e-06
6.87862e-06
6.73272e-06
6.58652e-06
6.44106e-06
6.29717e-06
6.15559e-06
6.01698e-06
5.88182e-06
5.75054e-06
5.62349e-06
5.5009e-06
5.38124e-06
5.40636e-06
5.51594e-06
5.62792e-06
5.74216e-06
5.85817e-06
5.97535e-06
6.09308e-06
6.21066e-06
6.32728e-06
6.44204e-06
6.55398e-06
6.66211e-06
6.76536e-06
6.8626e-06
6.9527e-06
7.03453e-06
7.10701e-06
7.16916e-06
7.22008e-06
7.25899e-06
7.28529e-06
7.29855e-06
7.29857e-06
7.28534e-06
7.25909e-06
7.22022e-06
7.16933e-06
7.10722e-06
7.03476e-06
6.95294e-06
6.86286e-06
6.76561e-06
6.66233e-06
6.55417e-06
6.44223e-06
6.3275e-06
6.21089e-06
6.09329e-06
5.97553e-06
5.85831e-06
5.74225e-06
5.62792e-06
5.51578e-06
5.40624e-06
5.29962e-06
5.1962e-06
5.09464e-06
5.02318e-06
5.1139e-06
5.20657e-06
5.30087e-06
5.39659e-06
5.49329e-06
5.59049e-06
5.68764e-06
5.78417e-06
5.87943e-06
5.97269e-06
6.0632e-06
6.15021e-06
6.2329e-06
6.31043e-06
6.38195e-06
6.44667e-06
6.5038e-06
6.55263e-06
6.59254e-06
6.62297e-06
6.6435e-06
6.65385e-06
6.65386e-06
6.64355e-06
6.62304e-06
6.59264e-06
6.55277e-06
6.50396e-06
6.44685e-06
6.38215e-06
6.31063e-06
6.2331e-06
6.15039e-06
6.06337e-06
5.97285e-06
5.87961e-06
5.78436e-06
5.68782e-06
5.59064e-06
5.4934e-06
5.39665e-06
5.30086e-06
5.20644e-06
5.11376e-06
5.02313e-06
4.93481e-06
4.84764e-06
4.78438e-06
4.86231e-06
4.94163e-06
5.02202e-06
5.10327e-06
5.18502e-06
5.26684e-06
5.34828e-06
5.42885e-06
5.50802e-06
5.58521e-06
5.65984e-06
5.73129e-06
5.79893e-06
5.86213e-06
5.92025e-06
5.97267e-06
6.01882e-06
6.05817e-06
6.09027e-06
6.11471e-06
6.13118e-06
6.13947e-06
6.13948e-06
6.13121e-06
6.11477e-06
6.09035e-06
6.05828e-06
6.01895e-06
5.97281e-06
5.9204e-06
5.86229e-06
5.79909e-06
5.73143e-06
5.65997e-06
5.58535e-06
5.50816e-06
5.429e-06
5.34842e-06
5.26696e-06
5.18511e-06
5.10332e-06
5.022e-06
4.94151e-06
4.86218e-06
4.7843e-06
4.7081e-06
4.63255e-06
4.576e-06
4.6436e-06
4.71216e-06
4.78142e-06
4.85117e-06
4.92109e-06
4.99081e-06
5.05997e-06
5.12814e-06
5.1949e-06
5.25976e-06
5.32226e-06
5.38191e-06
5.43821e-06
5.49065e-06
5.53875e-06
5.58202e-06
5.62004e-06
5.6524e-06
5.67874e-06
5.69878e-06
5.71227e-06
5.71906e-06
5.71907e-06
5.7123e-06
5.69883e-06
5.67881e-06
5.65249e-06
5.62015e-06
5.58214e-06
5.53887e-06
5.49078e-06
5.43834e-06
5.38203e-06
5.32238e-06
5.25988e-06
5.19502e-06
5.12827e-06
5.06008e-06
4.99091e-06
4.92115e-06
4.8512e-06
4.7814e-06
4.71206e-06
4.64348e-06
4.57591e-06
4.50958e-06
4.44354e-06
4.39257e-06
4.45169e-06
4.51147e-06
4.57169e-06
4.63214e-06
4.69254e-06
4.75259e-06
4.81197e-06
4.87032e-06
4.92729e-06
4.98249e-06
5.03552e-06
5.086e-06
5.13352e-06
5.17768e-06
5.21808e-06
5.25437e-06
5.28619e-06
5.31322e-06
5.33521e-06
5.35191e-06
5.36314e-06
5.3688e-06
5.36881e-06
5.36317e-06
5.35195e-06
5.33526e-06
5.3133e-06
5.28627e-06
5.25447e-06
5.21819e-06
5.17779e-06
5.13363e-06
5.08611e-06
5.03562e-06
4.98259e-06
4.9274e-06
4.87043e-06
4.81206e-06
4.75267e-06
4.6926e-06
4.63216e-06
4.57167e-06
4.51139e-06
4.45159e-06
4.39248e-06
4.33429e-06
4.27614e-06
4.22986e-06
4.28194e-06
4.33447e-06
4.38724e-06
4.44006e-06
4.4927e-06
4.54489e-06
4.59636e-06
4.6468e-06
4.69592e-06
4.7434e-06
4.7889e-06
4.83211e-06
4.8727e-06
4.91034e-06
4.94471e-06
4.97553e-06
5.00251e-06
5.02541e-06
5.04401e-06
5.05812e-06
5.06762e-06
5.07239e-06
5.0724e-06
5.06764e-06
5.05816e-06
5.04406e-06
5.02547e-06
5.00259e-06
4.97561e-06
4.9448e-06
4.91043e-06
4.87279e-06
4.8322e-06
4.78899e-06
4.74348e-06
4.69601e-06
4.64689e-06
4.59644e-06
4.54496e-06
4.49274e-06
4.44008e-06
4.38722e-06
4.3344e-06
4.28185e-06
4.22978e-06
4.17837e-06
4.12683e-06
4.03883e-06
4.08455e-06
4.13072e-06
4.17718e-06
4.22374e-06
4.27024e-06
4.31647e-06
4.36219e-06
4.40716e-06
4.45115e-06
4.49388e-06
4.53509e-06
4.57451e-06
4.61186e-06
4.64688e-06
4.6793e-06
4.70886e-06
4.73533e-06
4.75846e-06
4.77808e-06
4.79399e-06
4.80606e-06
4.81417e-06
4.81825e-06
4.81826e-06
4.81419e-06
4.80609e-06
4.79403e-06
4.77813e-06
4.75853e-06
4.7354e-06
4.70894e-06
4.67938e-06
4.64696e-06
4.61194e-06
4.57459e-06
4.53517e-06
4.49396e-06
4.45122e-06
4.40723e-06
4.36224e-06
4.3165e-06
4.27026e-06
4.22373e-06
4.17712e-06
4.13064e-06
4.08447e-06
4.03878e-06
3.99283e-06
3.87194e-06
3.91313e-06
3.95397e-06
3.99515e-06
4.03648e-06
4.07783e-06
4.11902e-06
4.15988e-06
4.20021e-06
4.23981e-06
4.27845e-06
4.31591e-06
4.35197e-06
4.3864e-06
4.41897e-06
4.44946e-06
4.47763e-06
4.50329e-06
4.52622e-06
4.54625e-06
4.56322e-06
4.57697e-06
4.5874e-06
4.5944e-06
4.59792e-06
4.59792e-06
4.59442e-06
4.58742e-06
4.57701e-06
4.56326e-06
4.54631e-06
4.52628e-06
4.50335e-06
4.4777e-06
4.44953e-06
4.41904e-06
4.38647e-06
4.35204e-06
4.31598e-06
4.27851e-06
4.23986e-06
4.20026e-06
4.15991e-06
4.11903e-06
4.07781e-06
4.03643e-06
3.99508e-06
3.9539e-06
3.91307e-06
3.8719e-06
3.76225e-06
3.79933e-06
3.836e-06
3.8729e-06
3.90988e-06
3.94678e-06
3.98349e-06
4.01983e-06
4.05563e-06
4.0907e-06
4.12487e-06
4.15795e-06
4.18973e-06
4.22002e-06
4.24863e-06
4.27537e-06
4.30005e-06
4.32249e-06
4.34254e-06
4.36002e-06
4.37482e-06
4.38681e-06
4.39589e-06
4.40199e-06
4.40505e-06
4.40506e-06
4.402e-06
4.39591e-06
4.38684e-06
4.37486e-06
4.36007e-06
4.34259e-06
4.32255e-06
4.30011e-06
4.27543e-06
4.24869e-06
4.22008e-06
4.18978e-06
4.158e-06
4.12493e-06
4.09075e-06
4.05567e-06
4.01985e-06
3.9835e-06
3.94677e-06
3.90983e-06
3.87284e-06
3.83594e-06
3.79926e-06
3.7622e-06
3.66229e-06
3.69581e-06
3.72888e-06
3.7621e-06
3.79534e-06
3.82845e-06
3.86132e-06
3.89381e-06
3.92576e-06
3.95701e-06
3.98741e-06
4.01678e-06
4.04496e-06
4.07179e-06
4.09709e-06
4.1207e-06
4.14247e-06
4.16224e-06
4.17989e-06
4.19526e-06
4.20827e-06
4.2188e-06
4.22677e-06
4.23212e-06
4.23481e-06
4.23481e-06
4.23213e-06
4.22679e-06
4.21882e-06
4.2083e-06
4.19531e-06
4.17993e-06
4.16229e-06
4.14252e-06
4.12075e-06
4.09714e-06
4.07184e-06
4.04502e-06
4.01683e-06
3.98746e-06
3.95706e-06
3.92579e-06
3.89383e-06
3.86133e-06
3.82844e-06
3.7953e-06
3.76205e-06
3.72882e-06
3.69575e-06
3.66224e-06
3.57082e-06
3.60123e-06
3.63119e-06
3.66122e-06
3.69121e-06
3.72106e-06
3.75063e-06
3.77982e-06
3.80847e-06
3.83646e-06
3.86364e-06
3.88987e-06
3.915e-06
3.93889e-06
3.96139e-06
3.98237e-06
4.00169e-06
4.01922e-06
4.03485e-06
4.04846e-06
4.05996e-06
4.06927e-06
4.07631e-06
4.08103e-06
4.08341e-06
4.08341e-06
4.08105e-06
4.07633e-06
4.06929e-06
4.05999e-06
4.04849e-06
4.03489e-06
4.01926e-06
4.00173e-06
3.98241e-06
3.96144e-06
3.93893e-06
3.91505e-06
3.88991e-06
3.86368e-06
3.8365e-06
3.8085e-06
3.77984e-06
3.75064e-06
3.72104e-06
3.69118e-06
3.66117e-06
3.63113e-06
3.60118e-06
3.57076e-06
3.4868e-06
3.51449e-06
3.54171e-06
3.56897e-06
3.59615e-06
3.62315e-06
3.64987e-06
3.6762e-06
3.70201e-06
3.72719e-06
3.75161e-06
3.77515e-06
3.79767e-06
3.81905e-06
3.83917e-06
3.85791e-06
3.87514e-06
3.89077e-06
3.9047e-06
3.91681e-06
3.92704e-06
3.93532e-06
3.94158e-06
3.94578e-06
3.94789e-06
3.94789e-06
3.94579e-06
3.9416e-06
3.93534e-06
3.92707e-06
3.91685e-06
3.90473e-06
3.89082e-06
3.87519e-06
3.85795e-06
3.83921e-06
3.81909e-06
3.79771e-06
3.77519e-06
3.75165e-06
3.72723e-06
3.70204e-06
3.67621e-06
3.64987e-06
3.62313e-06
3.59611e-06
3.56892e-06
3.54166e-06
3.51444e-06
3.48674e-06
3.40935e-06
3.43465e-06
3.45947e-06
3.48428e-06
3.509e-06
3.53352e-06
3.55775e-06
3.58159e-06
3.60494e-06
3.62769e-06
3.64972e-06
3.67093e-06
3.69121e-06
3.71043e-06
3.72851e-06
3.74532e-06
3.76078e-06
3.77478e-06
3.78725e-06
3.79809e-06
3.80724e-06
3.81464e-06
3.82023e-06
3.82398e-06
3.82586e-06
3.82587e-06
3.82399e-06
3.82024e-06
3.81465e-06
3.80726e-06
3.79812e-06
3.78728e-06
3.77482e-06
3.76082e-06
3.74536e-06
3.72854e-06
3.71047e-06
3.69124e-06
3.67097e-06
3.64976e-06
3.62772e-06
3.60497e-06
3.58161e-06
3.55775e-06
3.5335e-06
3.50897e-06
3.48424e-06
3.45942e-06
3.4346e-06
3.40929e-06
3.33772e-06
3.3609e-06
3.3836e-06
3.40627e-06
3.42881e-06
3.45115e-06
3.4732e-06
3.49487e-06
3.51607e-06
3.5367e-06
3.55665e-06
3.57584e-06
3.59417e-06
3.61153e-06
3.62783e-06
3.64299e-06
3.65691e-06
3.66951e-06
3.68072e-06
3.69047e-06
3.69869e-06
3.70533e-06
3.71035e-06
3.71372e-06
3.71541e-06
3.71541e-06
3.71373e-06
3.71036e-06
3.70535e-06
3.69871e-06
3.69049e-06
3.68075e-06
3.66955e-06
3.65694e-06
3.64302e-06
3.62787e-06
3.61156e-06
3.5942e-06
3.57587e-06
3.55668e-06
3.53672e-06
3.51609e-06
3.49489e-06
3.4732e-06
3.45114e-06
3.42879e-06
3.40623e-06
3.38356e-06
3.36086e-06
3.33767e-06
3.27129e-06
3.29259e-06
3.3134e-06
3.33416e-06
3.35479e-06
3.3752e-06
3.39533e-06
3.41509e-06
3.4344e-06
3.45316e-06
3.4713e-06
3.48872e-06
3.50534e-06
3.52108e-06
3.53584e-06
3.54956e-06
3.56215e-06
3.57354e-06
3.58366e-06
3.59245e-06
3.59987e-06
3.60586e-06
3.61039e-06
3.61342e-06
3.61495e-06
3.61495e-06
3.61343e-06
3.6104e-06
3.60588e-06
3.59989e-06
3.59248e-06
3.58368e-06
3.57356e-06
3.56218e-06
3.54959e-06
3.53588e-06
3.52111e-06
3.50538e-06
3.48875e-06
3.47133e-06
3.45318e-06
3.43441e-06
3.4151e-06
3.39533e-06
3.37519e-06
3.35477e-06
3.33413e-06
3.31336e-06
3.29254e-06
3.27125e-06
3.20951e-06
3.22912e-06
3.24825e-06
3.26732e-06
3.28624e-06
3.30495e-06
3.32337e-06
3.34144e-06
3.35907e-06
3.3762e-06
3.39274e-06
3.40861e-06
3.42374e-06
3.43805e-06
3.45146e-06
3.46392e-06
3.47534e-06
3.48567e-06
3.49484e-06
3.50281e-06
3.50953e-06
3.51495e-06
3.51905e-06
3.5218e-06
3.52317e-06
3.52318e-06
3.5218e-06
3.51906e-06
3.51497e-06
3.50955e-06
3.50283e-06
3.49487e-06
3.4857e-06
3.47537e-06
3.46395e-06
3.45149e-06
3.43808e-06
3.42377e-06
3.40864e-06
3.39276e-06
3.37622e-06
3.35909e-06
3.34145e-06
3.32337e-06
3.30494e-06
3.28622e-06
3.26729e-06
3.24822e-06
3.22907e-06
3.20946e-06
3.1519e-06
3.16999e-06
3.18763e-06
3.20518e-06
3.22258e-06
3.23976e-06
3.25667e-06
3.27324e-06
3.28939e-06
3.30506e-06
3.32019e-06
3.33469e-06
3.3485e-06
3.36155e-06
3.37378e-06
3.38513e-06
3.39553e-06
3.40492e-06
3.41327e-06
3.42051e-06
3.42661e-06
3.43154e-06
3.43526e-06
3.43776e-06
3.43901e-06
3.43901e-06
3.43776e-06
3.43527e-06
3.43155e-06
3.42663e-06
3.42053e-06
3.41329e-06
3.40495e-06
3.39555e-06
3.38515e-06
3.37381e-06
3.36158e-06
3.34852e-06
3.33471e-06
3.32021e-06
3.30508e-06
3.2894e-06
3.27324e-06
3.25667e-06
3.23975e-06
3.22255e-06
3.20515e-06
3.18759e-06
3.16995e-06
3.15185e-06
3.09805e-06
3.11478e-06
3.13107e-06
3.14726e-06
3.16329e-06
3.17912e-06
3.19467e-06
3.2099e-06
3.22473e-06
3.23911e-06
3.25298e-06
3.26626e-06
3.2789e-06
3.29084e-06
3.30203e-06
3.31239e-06
3.32189e-06
3.33046e-06
3.33807e-06
3.34468e-06
3.35024e-06
3.35473e-06
3.35812e-06
3.36039e-06
3.36153e-06
3.36154e-06
3.3604e-06
3.35813e-06
3.35474e-06
3.35026e-06
3.3447e-06
3.3381e-06
3.33049e-06
3.32191e-06
3.31241e-06
3.30205e-06
3.29087e-06
3.27893e-06
3.26628e-06
3.253e-06
3.23913e-06
3.22474e-06
3.2099e-06
3.19467e-06
3.17911e-06
3.16327e-06
3.14723e-06
3.13104e-06
3.11475e-06
3.09801e-06
3.04761e-06
3.06311e-06
3.07818e-06
3.09314e-06
3.10795e-06
3.12255e-06
3.13689e-06
3.15092e-06
3.16457e-06
3.1778e-06
3.19054e-06
3.20274e-06
3.21434e-06
3.22529e-06
3.23554e-06
3.24504e-06
3.25373e-06
3.26158e-06
3.26854e-06
3.27458e-06
3.27967e-06
3.28377e-06
3.28687e-06
3.28894e-06
3.28998e-06
3.28999e-06
3.28895e-06
3.28688e-06
3.28378e-06
3.27968e-06
3.2746e-06
3.26856e-06
3.2616e-06
3.25375e-06
3.24506e-06
3.23556e-06
3.22531e-06
3.21436e-06
3.20276e-06
3.19056e-06
3.17781e-06
3.16458e-06
3.15092e-06
3.13689e-06
3.12254e-06
3.10793e-06
3.09312e-06
3.07815e-06
3.06308e-06
3.04757e-06
3.00026e-06
3.01464e-06
3.02861e-06
3.04247e-06
3.05617e-06
3.06967e-06
3.08291e-06
3.09586e-06
3.10845e-06
3.12064e-06
3.13238e-06
3.14361e-06
3.15428e-06
3.16435e-06
3.17376e-06
3.18248e-06
3.19046e-06
3.19766e-06
3.20405e-06
3.20959e-06
3.21425e-06
3.21801e-06
3.22084e-06
3.22275e-06
3.2237e-06
3.2237e-06
3.22275e-06
3.22085e-06
3.21802e-06
3.21426e-06
3.2096e-06
3.20407e-06
3.19768e-06
3.19048e-06
3.1825e-06
3.17379e-06
3.16437e-06
3.1543e-06
3.14363e-06
3.1324e-06
3.12066e-06
3.10846e-06
3.09587e-06
3.08291e-06
3.06966e-06
3.05615e-06
3.04244e-06
3.02858e-06
3.01461e-06
3.00022e-06
2.95572e-06
2.9691e-06
2.98206e-06
2.99491e-06
3.00761e-06
3.02011e-06
3.03237e-06
3.04435e-06
3.05598e-06
3.06724e-06
3.07807e-06
3.08843e-06
3.09827e-06
3.10754e-06
3.11621e-06
3.12424e-06
3.13158e-06
3.1382e-06
3.14407e-06
3.14916e-06
3.15344e-06
3.15689e-06
3.1595e-06
3.16124e-06
3.16212e-06
3.16212e-06
3.16125e-06
3.1595e-06
3.1569e-06
3.15345e-06
3.14917e-06
3.14408e-06
3.13822e-06
3.1316e-06
3.12426e-06
3.11623e-06
3.10756e-06
3.09829e-06
3.08845e-06
3.07809e-06
3.06726e-06
3.05599e-06
3.04435e-06
3.03237e-06
3.02011e-06
3.0076e-06
2.99489e-06
2.98203e-06
2.96907e-06
2.95569e-06
2.91376e-06
2.92621e-06
2.93826e-06
2.9502e-06
2.96199e-06
2.97359e-06
2.98495e-06
2.99604e-06
3.00682e-06
3.01723e-06
3.02725e-06
3.03682e-06
3.0459e-06
3.05446e-06
3.06246e-06
3.06986e-06
3.07663e-06
3.08273e-06
3.08814e-06
3.09282e-06
3.09676e-06
3.09994e-06
3.10234e-06
3.10395e-06
3.10475e-06
3.10475e-06
3.10395e-06
3.10235e-06
3.09995e-06
3.09678e-06
3.09284e-06
3.08815e-06
3.08275e-06
3.07665e-06
3.06988e-06
3.06248e-06
3.05448e-06
3.04592e-06
3.03683e-06
3.02726e-06
3.01724e-06
3.00683e-06
2.99605e-06
2.98495e-06
2.97358e-06
2.96198e-06
2.95018e-06
2.93824e-06
2.92618e-06
2.91373e-06
2.87415e-06
2.88575e-06
2.89698e-06
2.90809e-06
2.91905e-06
2.92982e-06
2.94037e-06
2.95066e-06
2.96065e-06
2.9703e-06
2.97957e-06
2.98843e-06
2.99684e-06
3.00476e-06
3.01215e-06
3.01899e-06
3.02524e-06
3.03087e-06
3.03586e-06
3.04018e-06
3.04382e-06
3.04675e-06
3.04896e-06
3.05044e-06
3.05118e-06
3.05119e-06
3.05045e-06
3.04897e-06
3.04676e-06
3.04383e-06
3.0402e-06
3.03587e-06
3.03088e-06
3.02525e-06
3.019e-06
3.01217e-06
3.00477e-06
2.99686e-06
2.98845e-06
2.97959e-06
2.97031e-06
2.96066e-06
2.95066e-06
2.94037e-06
2.92981e-06
2.91903e-06
2.90807e-06
2.89695e-06
2.88573e-06
2.87412e-06
2.8367e-06
2.84753e-06
2.858e-06
2.86834e-06
2.87855e-06
2.88857e-06
2.89838e-06
2.90794e-06
2.91721e-06
2.92617e-06
2.93477e-06
2.94299e-06
2.95078e-06
2.95811e-06
2.96495e-06
2.97128e-06
2.97706e-06
2.98227e-06
2.98689e-06
2.99088e-06
2.99424e-06
2.99695e-06
2.99899e-06
3.00036e-06
3.00105e-06
3.00105e-06
3.00037e-06
2.999e-06
2.99696e-06
2.99425e-06
2.99089e-06
2.9869e-06
2.98229e-06
2.97708e-06
2.9713e-06
2.96497e-06
2.95813e-06
2.95079e-06
2.943e-06
2.93479e-06
2.92618e-06
2.91722e-06
2.90794e-06
2.89838e-06
2.88856e-06
2.87853e-06
2.86833e-06
2.85797e-06
2.84751e-06
2.83667e-06
2.80125e-06
2.81136e-06
2.82113e-06
2.83078e-06
2.84029e-06
2.84962e-06
2.85876e-06
2.86765e-06
2.87628e-06
2.8846e-06
2.89259e-06
2.90022e-06
2.90745e-06
2.91425e-06
2.92059e-06
2.92646e-06
2.93182e-06
2.93664e-06
2.94091e-06
2.94461e-06
2.94772e-06
2.95023e-06
2.95212e-06
2.95339e-06
2.95402e-06
2.95402e-06
2.95339e-06
2.95213e-06
2.95024e-06
2.94773e-06
2.94463e-06
2.94093e-06
2.93666e-06
2.93183e-06
2.92647e-06
2.92061e-06
2.91426e-06
2.90746e-06
2.90023e-06
2.8926e-06
2.88461e-06
2.87628e-06
2.86765e-06
2.85875e-06
2.84962e-06
2.84028e-06
2.83076e-06
2.82111e-06
2.81134e-06
2.80122e-06
2.76763e-06
2.77709e-06
2.78621e-06
2.79522e-06
2.80409e-06
2.8128e-06
2.82131e-06
2.82959e-06
2.83762e-06
2.84537e-06
2.8528e-06
2.85989e-06
2.86661e-06
2.87293e-06
2.87882e-06
2.88427e-06
2.88924e-06
2.89371e-06
2.89767e-06
2.9011e-06
2.90399e-06
2.90631e-06
2.90806e-06
2.90924e-06
2.90982e-06
2.90983e-06
2.90924e-06
2.90807e-06
2.90632e-06
2.904e-06
2.90112e-06
2.89769e-06
2.89373e-06
2.88925e-06
2.88428e-06
2.87884e-06
2.87294e-06
2.86662e-06
2.8599e-06
2.85281e-06
2.84538e-06
2.83763e-06
2.8296e-06
2.82131e-06
2.81279e-06
2.80408e-06
2.79521e-06
2.78619e-06
2.77707e-06
2.7676e-06
2.7357e-06
2.74456e-06
2.75309e-06
2.76151e-06
2.7698e-06
2.77792e-06
2.78586e-06
2.79359e-06
2.80107e-06
2.80829e-06
2.81521e-06
2.82181e-06
2.82806e-06
2.83394e-06
2.83941e-06
2.84447e-06
2.84909e-06
2.85325e-06
2.85693e-06
2.86012e-06
2.86279e-06
2.86495e-06
2.86657e-06
2.86766e-06
2.86821e-06
2.86821e-06
2.86766e-06
2.86658e-06
2.86495e-06
2.8628e-06
2.86013e-06
2.85694e-06
2.85326e-06
2.84911e-06
2.84449e-06
2.83943e-06
2.83395e-06
2.82807e-06
2.82182e-06
2.81522e-06
2.8083e-06
2.80108e-06
2.79359e-06
2.78586e-06
2.77792e-06
2.76979e-06
2.7615e-06
2.75307e-06
2.74454e-06
2.73568e-06
2.70535e-06
2.71365e-06
2.72163e-06
2.72951e-06
2.73726e-06
2.74485e-06
2.75226e-06
2.75947e-06
2.76646e-06
2.77319e-06
2.77964e-06
2.78579e-06
2.79161e-06
2.79708e-06
2.80218e-06
2.80689e-06
2.81118e-06
2.81505e-06
2.81847e-06
2.82143e-06
2.82392e-06
2.82592e-06
2.82743e-06
2.82844e-06
2.82895e-06
2.82895e-06
2.82845e-06
2.82744e-06
2.82593e-06
2.82393e-06
2.82144e-06
2.81848e-06
2.81506e-06
2.8112e-06
2.8069e-06
2.80219e-06
2.79709e-06
2.79162e-06
2.7858e-06
2.77965e-06
2.7732e-06
2.76646e-06
2.75948e-06
2.75226e-06
2.74484e-06
2.73725e-06
2.7295e-06
2.72162e-06
2.71363e-06
2.70533e-06
2.67646e-06
2.68424e-06
2.69172e-06
2.69909e-06
2.70634e-06
2.71344e-06
2.72037e-06
2.7271e-06
2.73362e-06
2.73991e-06
2.74593e-06
2.75166e-06
2.75709e-06
2.76219e-06
2.76694e-06
2.77132e-06
2.77532e-06
2.77892e-06
2.78211e-06
2.78486e-06
2.78718e-06
2.78904e-06
2.79045e-06
2.79139e-06
2.79186e-06
2.79186e-06
2.79139e-06
2.79045e-06
2.78905e-06
2.78719e-06
2.78487e-06
2.78212e-06
2.77894e-06
2.77534e-06
2.77134e-06
2.76695e-06
2.7622e-06
2.7571e-06
2.75167e-06
2.74594e-06
2.73991e-06
2.73363e-06
2.72711e-06
2.72037e-06
2.71343e-06
2.70633e-06
2.69908e-06
2.6917e-06
2.68422e-06
2.67643e-06
2.64892e-06
2.65622e-06
2.66323e-06
2.67014e-06
2.67692e-06
2.68357e-06
2.69005e-06
2.69635e-06
2.70244e-06
2.70831e-06
2.71393e-06
2.71928e-06
2.72435e-06
2.72911e-06
2.73354e-06
2.73763e-06
2.74136e-06
2.74471e-06
2.74768e-06
2.75025e-06
2.7524e-06
2.75414e-06
2.75545e-06
2.75632e-06
2.75676e-06
2.75676e-06
2.75632e-06
2.75545e-06
2.75414e-06
2.75241e-06
2.75025e-06
2.74769e-06
2.74472e-06
2.74137e-06
2.73764e-06
2.73355e-06
2.72912e-06
2.72436e-06
2.7193e-06
2.71394e-06
2.70832e-06
2.70245e-06
2.69635e-06
2.69005e-06
2.68356e-06
2.67691e-06
2.67013e-06
2.66321e-06
2.6562e-06
2.6489e-06
2.62265e-06
2.6295e-06
2.63608e-06
2.64255e-06
2.64891e-06
2.65513e-06
2.6612e-06
2.66709e-06
2.67279e-06
2.67828e-06
2.68353e-06
2.68853e-06
2.69326e-06
2.6977e-06
2.70184e-06
2.70565e-06
2.70913e-06
2.71226e-06
2.71503e-06
2.71742e-06
2.71943e-06
2.72105e-06
2.72227e-06
2.72309e-06
2.72349e-06
2.7235e-06
2.72309e-06
2.72227e-06
2.72106e-06
2.71944e-06
2.71743e-06
2.71504e-06
2.71227e-06
2.70914e-06
2.70567e-06
2.70185e-06
2.69771e-06
2.69327e-06
2.68854e-06
2.68354e-06
2.67828e-06
2.6728e-06
2.66709e-06
2.6612e-06
2.65512e-06
2.6489e-06
2.64254e-06
2.63606e-06
2.62948e-06
2.62263e-06
2.59756e-06
2.60399e-06
2.61016e-06
2.61623e-06
2.62219e-06
2.62802e-06
2.63371e-06
2.63922e-06
2.64456e-06
2.64969e-06
2.6546e-06
2.65928e-06
2.6637e-06
2.66785e-06
2.67171e-06
2.67527e-06
2.67852e-06
2.68144e-06
2.68403e-06
2.68626e-06
2.68813e-06
2.68964e-06
2.69078e-06
2.69154e-06
2.69192e-06
2.69192e-06
2.69154e-06
2.69078e-06
2.68965e-06
2.68814e-06
2.68627e-06
2.68403e-06
2.68145e-06
2.67853e-06
2.67529e-06
2.67172e-06
2.66786e-06
2.66371e-06
2.65929e-06
2.65461e-06
2.6497e-06
2.64456e-06
2.63923e-06
2.6337e-06
2.62802e-06
2.62219e-06
2.61622e-06
2.61015e-06
2.60398e-06
2.59754e-06
2.57357e-06
2.57961e-06
2.58541e-06
2.5911e-06
2.59669e-06
2.60216e-06
2.60748e-06
2.61265e-06
2.61765e-06
2.62245e-06
2.62705e-06
2.63142e-06
2.63555e-06
2.63943e-06
2.64304e-06
2.64637e-06
2.64941e-06
2.65214e-06
2.65455e-06
2.65663e-06
2.65838e-06
2.65979e-06
2.66085e-06
2.66157e-06
2.66192e-06
2.66192e-06
2.66157e-06
2.66086e-06
2.6598e-06
2.65839e-06
2.65664e-06
2.65456e-06
2.65215e-06
2.64942e-06
2.64638e-06
2.64306e-06
2.63944e-06
2.63556e-06
2.63143e-06
2.62705e-06
2.62246e-06
2.61765e-06
2.61265e-06
2.60748e-06
2.60215e-06
2.59668e-06
2.59109e-06
2.58539e-06
2.5796e-06
2.57355e-06
2.55061e-06
2.55629e-06
2.56173e-06
2.56708e-06
2.57232e-06
2.57745e-06
2.58244e-06
2.58728e-06
2.59196e-06
2.59646e-06
2.60077e-06
2.60486e-06
2.60873e-06
2.61236e-06
2.61573e-06
2.61885e-06
2.62168e-06
2.62423e-06
2.62649e-06
2.62843e-06
2.63007e-06
2.63139e-06
2.63238e-06
2.63304e-06
2.63337e-06
2.63338e-06
2.63304e-06
2.63238e-06
2.63139e-06
2.63008e-06
2.62844e-06
2.62649e-06
2.62424e-06
2.62169e-06
2.61886e-06
2.61574e-06
2.61237e-06
2.60874e-06
2.60487e-06
2.60077e-06
2.59647e-06
2.59197e-06
2.58729e-06
2.58244e-06
2.57745e-06
2.57232e-06
2.56707e-06
2.56172e-06
2.55628e-06
2.55059e-06
2.52862e-06
2.53396e-06
2.53907e-06
2.54409e-06
2.54902e-06
2.55382e-06
2.55851e-06
2.56305e-06
2.56743e-06
2.57165e-06
2.57568e-06
2.57951e-06
2.58313e-06
2.58653e-06
2.58969e-06
2.5926e-06
2.59525e-06
2.59763e-06
2.59974e-06
2.60156e-06
2.60309e-06
2.60432e-06
2.60525e-06
2.60587e-06
2.60618e-06
2.60618e-06
2.60587e-06
2.60525e-06
2.60433e-06
2.6031e-06
2.60157e-06
2.59975e-06
2.59764e-06
2.59526e-06
2.59261e-06
2.58969e-06
2.58653e-06
2.58314e-06
2.57952e-06
2.57568e-06
2.57165e-06
2.56743e-06
2.56305e-06
2.5585e-06
2.55382e-06
2.54901e-06
2.54408e-06
2.53906e-06
2.53395e-06
2.5286e-06
2.50753e-06
2.51256e-06
2.51736e-06
2.52208e-06
2.5267e-06
2.53121e-06
2.5356e-06
2.53986e-06
2.54397e-06
2.54792e-06
2.5517e-06
2.55529e-06
2.55868e-06
2.56186e-06
2.56481e-06
2.56754e-06
2.57002e-06
2.57225e-06
2.57422e-06
2.57593e-06
2.57735e-06
2.5785e-06
2.57937e-06
2.57995e-06
2.58024e-06