/*--------------------------------*- C++ -*----------------------------------*\
  =========                 |
  \\      /  F ield         | OpenFOAM: The Open Source CFD Toolbox
   \\    /   O peration     | Website:  https://openfoam.org
    \\  /    A nd           | Version:  7
     \\/     M anipulation  |
\*---------------------------------------------------------------------------*/
FoamFile
{
    version     2.0;
    format      ascii;
    class       volScalarField;
    location    "24000";
    object      nut;
}
// * * * * * * * * * * * * * * * * * * * * * * * * * * * * * * * * * * * * * //

dimensions      [0 2 -1 0 0 0 0];

internalField   nonuniform List<scalar> 
4764
(
5.80749e-15
5.80925e-15
5.81083e-15
5.81224e-15
5.81346e-15
5.8145e-15
5.77849e-15
5.78136e-15
5.78409e-15
5.78669e-15
5.78917e-15
5.79154e-15
5.79378e-15
5.79589e-15
5.79788e-15
5.79985e-15
5.80155e-15
5.80307e-15
5.80442e-15
5.80559e-15
5.80656e-15
5.80723e-15
5.80783e-15
5.80823e-15
5.80841e-15
5.80839e-15
5.80816e-15
5.80773e-15
5.80712e-15
5.80632e-15
5.80536e-15
5.80427e-15
5.80306e-15
5.80171e-15
5.8002e-15
5.77024e-15
5.77356e-15
5.77659e-15
5.77938e-15
5.78197e-15
5.78438e-15
5.78664e-15
5.78874e-15
5.79071e-15
5.79266e-15
5.79432e-15
5.79579e-15
5.79708e-15
5.79819e-15
5.79909e-15
5.7997e-15
5.80024e-15
5.80061e-15
5.80078e-15
5.80075e-15
5.80052e-15
5.80011e-15
5.79951e-15
5.79875e-15
5.79782e-15
5.79677e-15
5.79561e-15
5.7943e-15
5.79284e-15
5.7911e-15
5.78936e-15
5.78753e-15
5.78559e-15
5.75978e-15
5.76413e-15
5.76791e-15
5.77125e-15
5.77423e-15
5.77692e-15
5.77937e-15
5.7816e-15
5.78366e-15
5.78566e-15
5.78735e-15
5.78881e-15
5.79009e-15
5.79117e-15
5.79203e-15
5.7926e-15
5.79311e-15
5.79346e-15
5.79361e-15
5.79358e-15
5.79336e-15
5.79295e-15
5.79237e-15
5.79163e-15
5.79073e-15
5.78971e-15
5.78857e-15
5.78727e-15
5.7858e-15
5.78403e-15
5.78226e-15
5.78038e-15
5.77835e-15
5.77604e-15
5.77367e-15
5.77109e-15
5.76824e-15
5.76506e-15
5.76146e-15
5.75731e-15
5.75252e-15
5.7468e-15
5.73974e-15
5.73089e-15
5.7197e-15
5.74493e-15
5.75115e-15
5.75634e-15
5.76088e-15
5.76477e-15
5.76814e-15
5.7711e-15
5.77372e-15
5.77608e-15
5.77828e-15
5.78013e-15
5.78171e-15
5.78306e-15
5.78418e-15
5.78506e-15
5.78566e-15
5.78616e-15
5.78651e-15
5.78667e-15
5.78664e-15
5.78642e-15
5.78601e-15
5.78543e-15
5.78469e-15
5.78378e-15
5.78274e-15
5.78157e-15
5.78022e-15
5.77865e-15
5.77676e-15
5.77482e-15
5.77272e-15
5.77037e-15
5.76761e-15
5.7647e-15
5.76142e-15
5.75765e-15
5.75337e-15
5.74835e-15
5.74233e-15
5.73502e-15
5.72601e-15
5.71472e-15
5.70054e-15
5.68283e-15
5.72139e-15
5.73125e-15
5.73932e-15
5.74599e-15
5.75155e-15
5.75621e-15
5.76025e-15
5.76373e-15
5.76678e-15
5.76949e-15
5.77176e-15
5.77365e-15
5.77523e-15
5.77652e-15
5.77753e-15
5.77824e-15
5.7788e-15
5.7792e-15
5.77939e-15
5.77938e-15
5.77916e-15
5.77874e-15
5.77813e-15
5.77734e-15
5.77637e-15
5.77523e-15
5.77391e-15
5.77238e-15
5.77055e-15
5.76835e-15
5.76598e-15
5.76335e-15
5.76031e-15
5.75663e-15
5.75265e-15
5.74806e-15
5.74263e-15
5.73613e-15
5.72825e-15
5.7186e-15
5.70672e-15
5.69204e-15
5.67385e-15
5.65153e-15
5.62452e-15
5.68257e-15
5.69849e-15
5.71154e-15
5.72226e-15
5.73107e-15
5.73833e-15
5.74437e-15
5.74943e-15
5.75373e-15
5.75741e-15
5.76051e-15
5.76309e-15
5.76521e-15
5.76693e-15
5.76826e-15
5.76922e-15
5.76997e-15
5.77049e-15
5.77077e-15
5.7708e-15
5.77058e-15
5.77012e-15
5.76944e-15
5.76851e-15
5.76736e-15
5.76597e-15
5.76432e-15
5.76235e-15
5.75997e-15
5.75708e-15
5.75388e-15
5.75024e-15
5.74592e-15
5.74067e-15
5.73461e-15
5.72741e-15
5.71871e-15
5.70816e-15
5.69531e-15
5.67961e-15
5.66055e-15
5.63752e-15
5.60988e-15
5.5772e-15
5.53928e-15
5.62091e-15
5.6453e-15
5.66578e-15
5.6829e-15
5.69711e-15
5.70886e-15
5.71861e-15
5.7267e-15
5.73346e-15
5.73913e-15
5.7438e-15
5.74762e-15
5.75072e-15
5.75322e-15
5.75517e-15
5.75662e-15
5.75772e-15
5.75849e-15
5.75894e-15
5.75905e-15
5.75884e-15
5.7583e-15
5.75745e-15
5.75627e-15
5.75476e-15
5.7529e-15
5.75062e-15
5.74785e-15
5.74447e-15
5.74035e-15
5.73556e-15
5.72991e-15
5.7231e-15
5.7148e-15
5.70501e-15
5.6933e-15
5.67919e-15
5.66225e-15
5.642e-15
5.61785e-15
5.58942e-15
5.55625e-15
5.51796e-15
5.47448e-15
5.42597e-15
5.53103e-15
5.56512e-15
5.5947e-15
5.62018e-15
5.64191e-15
5.66028e-15
5.67574e-15
5.68873e-15
5.69964e-15
5.70875e-15
5.71628e-15
5.72245e-15
5.72748e-15
5.73153e-15
5.73471e-15
5.73714e-15
5.73897e-15
5.74027e-15
5.74106e-15
5.74134e-15
5.74113e-15
5.74042e-15
5.73924e-15
5.73754e-15
5.7353e-15
5.73247e-15
5.72894e-15
5.72461e-15
5.71929e-15
5.71283e-15
5.70517e-15
5.69605e-15
5.68507e-15
5.67187e-15
5.65635e-15
5.63802e-15
5.6164e-15
5.59112e-15
5.56178e-15
5.52796e-15
5.4895e-15
5.44623e-15
5.39804e-15
5.34515e-15
5.288e-15
5.41235e-15
5.45556e-15
5.49427e-15
5.52869e-15
5.55895e-15
5.58528e-15
5.60804e-15
5.6276e-15
5.64433e-15
5.65851e-15
5.67041e-15
5.6803e-15
5.68845e-15
5.69508e-15
5.70037e-15
5.70449e-15
5.70761e-15
5.70984e-15
5.71124e-15
5.71182e-15
5.71161e-15
5.71062e-15
5.70883e-15
5.7062e-15
5.70268e-15
5.69817e-15
5.69254e-15
5.68561e-15
5.67716e-15
5.66699e-15
5.65496e-15
5.64074e-15
5.62393e-15
5.60418e-15
5.58136e-15
5.55508e-15
5.52494e-15
5.49075e-15
5.4523e-15
5.40937e-15
5.36202e-15
5.31034e-15
5.25437e-15
5.19453e-15
5.13135e-15
5.26894e-15
5.31936e-15
5.36569e-15
5.40798e-15
5.44619e-15
5.48034e-15
5.51067e-15
5.5374e-15
5.56081e-15
5.58107e-15
5.59844e-15
5.61316e-15
5.62551e-15
5.63574e-15
5.64404e-15
5.65061e-15
5.65564e-15
5.65928e-15
5.66159e-15
5.66264e-15
5.66244e-15
5.661e-15
5.65829e-15
5.65428e-15
5.64886e-15
5.64191e-15
5.63327e-15
5.62274e-15
5.61009e-15
5.59511e-15
5.57762e-15
5.5573e-15
5.53381e-15
5.50693e-15
5.47656e-15
5.44245e-15
5.40438e-15
5.36233e-15
5.31626e-15
5.26611e-15
5.2121e-15
5.15446e-15
5.0933e-15
5.02909e-15
4.96241e-15
5.10725e-15
5.1625e-15
5.21422e-15
5.26236e-15
5.30677e-15
5.34733e-15
5.38414e-15
5.41729e-15
5.44695e-15
5.47316e-15
5.49608e-15
5.51591e-15
5.53285e-15
5.54712e-15
5.5589e-15
5.56836e-15
5.5757e-15
5.58106e-15
5.58452e-15
5.58615e-15
5.58595e-15
5.58395e-15
5.58012e-15
5.5744e-15
5.56669e-15
5.55686e-15
5.54475e-15
5.53019e-15
5.51296e-15
5.49291e-15
5.46988e-15
5.44361e-15
5.41388e-15
5.38061e-15
5.34378e-15
5.30326e-15
5.25899e-15
5.21108e-15
5.15962e-15
5.10462e-15
5.04637e-15
4.9852e-15
4.92121e-15
4.85488e-15
4.78678e-15
4.93391e-15
4.9918e-15
5.04668e-15
5.09848e-15
5.14698e-15
5.19198e-15
5.23346e-15
5.27144e-15
5.30599e-15
5.33703e-15
5.36462e-15
5.38887e-15
5.4099e-15
5.42788e-15
5.44293e-15
5.45518e-15
5.46478e-15
5.47185e-15
5.47646e-15
5.47867e-15
5.47849e-15
5.47592e-15
5.47096e-15
5.46355e-15
5.45361e-15
5.44102e-15
5.42567e-15
5.40741e-15
5.3861e-15
5.36164e-15
5.33396e-15
5.30287e-15
5.26827e-15
5.2302e-15
5.1887e-15
5.14375e-15
5.09538e-15
5.04379e-15
4.98915e-15
4.93148e-15
4.87113e-15
4.80846e-15
4.74351e-15
4.67679e-15
4.60883e-15
4.69391e-15
4.75456e-15
4.81334e-15
4.86954e-15
4.9231e-15
4.97378e-15
5.02129e-15
5.06559e-15
5.10661e-15
5.14439e-15
5.17873e-15
5.20961e-15
5.23708e-15
5.26118e-15
5.28201e-15
5.29962e-15
5.31409e-15
5.32552e-15
5.334e-15
5.33957e-15
5.34226e-15
5.3421e-15
5.33906e-15
5.33317e-15
5.32438e-15
5.31264e-15
5.29785e-15
5.27996e-15
5.25888e-15
5.23453e-15
5.20688e-15
5.17592e-15
5.14153e-15
5.10373e-15
5.06263e-15
5.01832e-15
4.97085e-15
4.92028e-15
4.86691e-15
4.81093e-15
4.75234e-15
4.69154e-15
4.62889e-15
4.56438e-15
4.49851e-15
4.43177e-15
4.51362e-15
4.57356e-15
4.63195e-15
4.68809e-15
4.74194e-15
4.79327e-15
4.84175e-15
4.88729e-15
4.92978e-15
4.96927e-15
5.00545e-15
5.03826e-15
5.06768e-15
5.09369e-15
5.11635e-15
5.13564e-15
5.1516e-15
5.1643e-15
5.17375e-15
5.17999e-15
5.18303e-15
5.18288e-15
5.17953e-15
5.17299e-15
5.16325e-15
5.15028e-15
5.13404e-15
5.11449e-15
5.0916e-15
5.06535e-15
5.03578e-15
5.00292e-15
4.96668e-15
4.9272e-15
4.88463e-15
4.83909e-15
4.79065e-15
4.7394e-15
4.68571e-15
4.62977e-15
4.57156e-15
4.51147e-15
4.44993e-15
4.38679e-15
4.3226e-15
4.24286e-15
4.3356e-15
4.39404e-15
4.45115e-15
4.50626e-15
4.55937e-15
4.61025e-15
4.65855e-15
4.70413e-15
4.7469e-15
4.78689e-15
4.82374e-15
4.85732e-15
4.88761e-15
4.91454e-15
4.93812e-15
4.9583e-15
4.97507e-15
4.98847e-15
4.99848e-15
5.00511e-15
5.00835e-15
5.00822e-15
5.00469e-15
4.99779e-15
4.98752e-15
4.97389e-15
4.95686e-15
4.93645e-15
4.91266e-15
4.88552e-15
4.8551e-15
4.82148e-15
4.78458e-15
4.74461e-15
4.70177e-15
4.65618e-15
4.60792e-15
4.5571e-15
4.50412e-15
4.4492e-15
4.39222e-15
4.33365e-15
4.27391e-15
4.14546e-15
4.01664e-15
3.89233e-15
3.92034e-15
4.03487e-15
4.15296e-15
4.27338e-15
4.32683e-15
4.37851e-15
4.42819e-15
4.47551e-15
4.52032e-15
4.5625e-15
4.60212e-15
4.63877e-15
4.67228e-15
4.70263e-15
4.7297e-15
4.7535e-15
4.77394e-15
4.79097e-15
4.80462e-15
4.81486e-15
4.82164e-15
4.82497e-15
4.82485e-15
4.82125e-15
4.81422e-15
4.80377e-15
4.78991e-15
4.77265e-15
4.75201e-15
4.72803e-15
4.70076e-15
4.6703e-15
4.63676e-15
4.60006e-15
4.56047e-15
4.51823e-15
4.47341e-15
4.42613e-15
4.37648e-15
4.32491e-15
4.27162e-15
4.15284e-15
4.03467e-15
3.92055e-15
3.81037e-15
3.70459e-15
3.6017e-15
3.62284e-15
3.7172e-15
3.81397e-15
3.91307e-15
4.01388e-15
4.11618e-15
4.2195e-15
4.29529e-15
4.33877e-15
4.37981e-15
4.41847e-15
4.45433e-15
4.48718e-15
4.51702e-15
4.54369e-15
4.56719e-15
4.58744e-15
4.60435e-15
4.61793e-15
4.62813e-15
4.6349e-15
4.63823e-15
4.63812e-15
4.63454e-15
4.62756e-15
4.61716e-15
4.60341e-15
4.58631e-15
4.56589e-15
4.5422e-15
4.51536e-15
4.48544e-15
4.45256e-15
4.41665e-15
4.37802e-15
4.33693e-15
4.29343e-15
4.21946e-15
4.11615e-15
4.01378e-15
3.91291e-15
3.8138e-15
3.71701e-15
3.62296e-15
3.53155e-15
3.44327e-15
3.3568e-15
3.29559e-15
3.37278e-15
3.45176e-15
3.53238e-15
3.61445e-15
3.69747e-15
3.78125e-15
3.86541e-15
3.94928e-15
4.03209e-15
4.11354e-15
4.19295e-15
4.26951e-15
4.30482e-15
4.33377e-15
4.35969e-15
4.38258e-15
4.40232e-15
4.41884e-15
4.43213e-15
4.44211e-15
4.44876e-15
4.45203e-15
4.45193e-15
4.44844e-15
4.44161e-15
4.43145e-15
4.41801e-15
4.40133e-15
4.38142e-15
4.35838e-15
4.3323e-15
4.30329e-15
4.2694e-15
4.19278e-15
4.11339e-15
4.03198e-15
3.94907e-15
3.8653e-15
3.78116e-15
3.69733e-15
3.61426e-15
3.53218e-15
3.45159e-15
3.37284e-15
3.29586e-15
3.22115e-15
3.14751e-15
3.09368e-15
3.15952e-15
3.22656e-15
3.29468e-15
3.36369e-15
3.43316e-15
3.50291e-15
3.57265e-15
3.64184e-15
3.7098e-15
3.77635e-15
3.84098e-15
3.903e-15
3.96174e-15
4.01671e-15
4.06739e-15
4.11316e-15
4.15356e-15
4.18814e-15
4.21635e-15
4.23789e-15
4.25232e-15
4.25963e-15
4.25957e-15
4.2523e-15
4.23779e-15
4.21627e-15
4.18809e-15
4.15364e-15
4.11316e-15
4.06735e-15
4.01666e-15
3.96168e-15
3.90287e-15
3.84079e-15
3.77618e-15
3.70967e-15
3.64159e-15
3.57251e-15
3.50278e-15
3.43299e-15
3.36347e-15
3.29447e-15
3.22639e-15
3.15954e-15
3.09387e-15
3.02983e-15
2.96636e-15
2.91843e-15
2.97526e-15
3.03289e-15
3.09121e-15
3.15e-15
3.20896e-15
3.26787e-15
3.32653e-15
3.38452e-15
3.44121e-15
3.4965e-15
3.55003e-15
3.60119e-15
3.64949e-15
3.69454e-15
3.73593e-15
3.77323e-15
3.80606e-15
3.83412e-15
3.85696e-15
3.8744e-15
3.88605e-15
3.89194e-15
3.89189e-15
3.88602e-15
3.87429e-15
3.85687e-15
3.83405e-15
3.80613e-15
3.77321e-15
3.73587e-15
3.69447e-15
3.64942e-15
3.60105e-15
3.54983e-15
3.49632e-15
3.44104e-15
3.38425e-15
3.32636e-15
3.26769e-15
3.20875e-15
3.14977e-15
3.09098e-15
3.03272e-15
2.97527e-15
2.91857e-15
2.86306e-15
2.80773e-15
2.76459e-15
2.81419e-15
2.86429e-15
2.91479e-15
2.96549e-15
3.01616e-15
3.06655e-15
3.11657e-15
3.16584e-15
3.2138e-15
3.26043e-15
3.30545e-15
3.34832e-15
3.38868e-15
3.42622e-15
3.4606e-15
3.49153e-15
3.51867e-15
3.54186e-15
3.5607e-15
3.57508e-15
3.58465e-15
3.58949e-15
3.58944e-15
3.5846e-15
3.57496e-15
3.56058e-15
3.54178e-15
3.51874e-15
3.49148e-15
3.46052e-15
3.42612e-15
3.38858e-15
3.34817e-15
3.30524e-15
3.26024e-15
3.21362e-15
3.16556e-15
3.11637e-15
3.06634e-15
3.01592e-15
2.96524e-15
2.91454e-15
2.86411e-15
2.81417e-15
2.76469e-15
2.71606e-15
2.66735e-15
2.62809e-15
2.67185e-15
2.71585e-15
2.76004e-15
2.80425e-15
2.8483e-15
2.8919e-15
2.93508e-15
2.97746e-15
3.01858e-15
3.05841e-15
3.09678e-15
3.13321e-15
3.16743e-15
3.19916e-15
3.22813e-15
3.25419e-15
3.27697e-15
3.29643e-15
3.31222e-15
3.32426e-15
3.33225e-15
3.33629e-15
3.33625e-15
3.3322e-15
3.32414e-15
3.31208e-15
3.29634e-15
3.27703e-15
3.25411e-15
3.22807e-15
3.19905e-15
3.1673e-15
3.13305e-15
3.09658e-15
3.05822e-15
3.01836e-15
2.97718e-15
2.93487e-15
2.89169e-15
2.84802e-15
2.804e-15
2.7598e-15
2.71566e-15
2.67178e-15
2.62818e-15
2.58515e-15
2.54188e-15
2.46706e-15
2.50582e-15
2.54476e-15
2.58379e-15
2.62285e-15
2.66179e-15
2.70048e-15
2.73863e-15
2.77631e-15
2.81318e-15
2.84884e-15
2.88328e-15
2.91639e-15
2.94774e-15
2.97712e-15
3.0043e-15
3.02904e-15
3.05127e-15
3.07067e-15
3.08723e-15
3.10063e-15
3.11085e-15
3.11764e-15
3.12103e-15
3.12101e-15
3.11757e-15
3.11074e-15
3.10049e-15
3.08713e-15
3.07071e-15
3.05119e-15
3.02896e-15
3.00417e-15
2.97698e-15
2.94756e-15
2.91619e-15
2.88309e-15
2.84862e-15
2.81291e-15
2.77608e-15
2.73841e-15
2.70019e-15
2.66154e-15
2.62259e-15
2.58359e-15
2.54468e-15
2.50589e-15
2.46748e-15
2.4287e-15
2.32521e-15
2.3604e-15
2.39527e-15
2.43024e-15
2.46518e-15
2.5e-15
2.53463e-15
2.56896e-15
2.60266e-15
2.6359e-15
2.66831e-15
2.69955e-15
2.72967e-15
2.75856e-15
2.78584e-15
2.81138e-15
2.83491e-15
2.85631e-15
2.87549e-15
2.89222e-15
2.90649e-15
2.918e-15
2.9268e-15
2.93262e-15
2.93552e-15
2.9355e-15
2.93255e-15
2.92668e-15
2.91786e-15
2.90637e-15
2.89224e-15
2.87541e-15
2.85622e-15
2.83478e-15
2.81122e-15
2.78566e-15
2.75834e-15
2.72946e-15
2.69933e-15
2.66803e-15
2.63563e-15
2.60244e-15
2.56865e-15
2.53438e-15
2.49975e-15
2.46494e-15
2.43013e-15
2.39533e-15
2.36074e-15
2.3257e-15
2.23081e-15
2.26284e-15
2.29446e-15
2.32613e-15
2.35766e-15
2.38898e-15
2.42006e-15
2.45077e-15
2.48084e-15
2.51042e-15
2.5392e-15
2.56684e-15
2.59345e-15
2.61892e-15
2.64292e-15
2.66535e-15
2.68595e-15
2.70465e-15
2.72139e-15
2.73599e-15
2.74842e-15
2.75842e-15
2.76608e-15
2.77113e-15
2.77365e-15
2.77363e-15
2.77107e-15
2.76596e-15
2.75829e-15
2.74829e-15
2.73599e-15
2.72132e-15
2.70456e-15
2.68582e-15
2.66519e-15
2.64274e-15
2.61869e-15
2.59323e-15
2.56662e-15
2.53891e-15
2.51014e-15
2.48061e-15
2.45045e-15
2.41979e-15
2.38872e-15
2.35741e-15
2.32601e-15
2.29453e-15
2.26312e-15
2.23123e-15
2.14358e-15
2.17294e-15
2.20183e-15
2.23071e-15
2.25938e-15
2.28778e-15
2.31589e-15
2.34362e-15
2.37067e-15
2.39724e-15
2.42301e-15
2.44771e-15
2.47142e-15
2.49408e-15
2.5154e-15
2.53532e-15
2.55353e-15
2.57003e-15
2.5848e-15
2.59768e-15
2.60862e-15
2.6174e-15
2.62414e-15
2.62857e-15
2.63078e-15
2.63075e-15
2.62851e-15
2.62401e-15
2.61727e-15
2.60847e-15
2.59765e-15
2.58472e-15
2.56994e-15
2.5534e-15
2.53514e-15
2.51524e-15
2.49387e-15
2.4712e-15
2.44747e-15
2.42272e-15
2.39694e-15
2.37043e-15
2.34328e-15
2.31562e-15
2.28752e-15
2.25913e-15
2.23058e-15
2.20189e-15
2.17317e-15
2.14394e-15
2.06242e-15
2.08949e-15
2.11607e-15
2.14259e-15
2.16886e-15
2.19477e-15
2.2204e-15
2.24563e-15
2.27018e-15
2.29421e-15
2.3175e-15
2.33975e-15
2.36106e-15
2.38141e-15
2.40052e-15
2.41837e-15
2.43461e-15
2.44932e-15
2.46248e-15
2.47395e-15
2.48367e-15
2.49147e-15
2.49744e-15
2.50138e-15
2.50334e-15
2.5033e-15
2.50131e-15
2.49732e-15
2.49133e-15
2.48351e-15
2.47389e-15
2.46241e-15
2.44924e-15
2.4345e-15
2.41819e-15
2.40038e-15
2.38121e-15
2.36085e-15
2.3395e-15
2.31721e-15
2.29392e-15
2.26993e-15
2.24527e-15
2.22014e-15
2.19453e-15
2.16859e-15
2.14246e-15
2.11613e-15
2.08968e-15
2.06274e-15
1.98643e-15
2.01154e-15
2.03614e-15
2.06064e-15
2.08487e-15
2.10868e-15
2.13221e-15
2.15533e-15
2.17777e-15
2.19967e-15
2.22088e-15
2.24109e-15
2.26038e-15
2.27881e-15
2.2961e-15
2.31223e-15
2.32685e-15
2.34006e-15
2.35188e-15
2.36219e-15
2.37091e-15
2.3779e-15
2.38324e-15
2.38676e-15
2.38854e-15
2.38847e-15
2.3867e-15
2.38312e-15
2.37775e-15
2.37076e-15
2.36212e-15
2.35182e-15
2.33998e-15
2.32675e-15
2.31203e-15
2.29596e-15
2.27863e-15
2.26019e-15
2.24083e-15
2.22058e-15
2.1994e-15
2.17751e-15
2.15496e-15
2.13195e-15
2.10845e-15
2.08459e-15
2.06052e-15
2.03621e-15
2.0117e-15
1.9867e-15
1.91486e-15
1.9383e-15
1.9612e-15
1.98395e-15
2.00642e-15
2.02845e-15
2.05017e-15
2.07149e-15
2.09216e-15
2.11224e-15
2.1317e-15
2.15019e-15
2.16781e-15
2.18462e-15
2.20037e-15
2.21507e-15
2.22832e-15
2.2403e-15
2.251e-15
2.26033e-15
2.26823e-15
2.27454e-15
2.27936e-15
2.28255e-15
2.28415e-15
2.28408e-15
2.28248e-15
2.27927e-15
2.27441e-15
2.26808e-15
2.26027e-15
2.25094e-15
2.24022e-15
2.22823e-15
2.21485e-15
2.20023e-15
2.18444e-15
2.16763e-15
2.14993e-15
2.13141e-15
2.112e-15
2.09189e-15
2.07114e-15
2.04991e-15
2.02821e-15
2.00613e-15
1.98383e-15
1.96125e-15
1.93842e-15
1.91512e-15
1.84714e-15
1.86911e-15
1.89052e-15
1.91176e-15
1.93272e-15
1.95321e-15
1.97337e-15
1.99315e-15
2.0123e-15
2.03085e-15
2.04881e-15
2.06585e-15
2.08202e-15
2.09747e-15
2.11192e-15
2.12541e-15
2.13752e-15
2.14847e-15
2.15821e-15
2.16673e-15
2.17393e-15
2.17968e-15
2.18409e-15
2.18699e-15
2.18844e-15
2.18838e-15
2.18691e-15
2.18399e-15
2.17956e-15
2.1738e-15
2.16669e-15
2.15817e-15
2.1484e-15
2.13745e-15
2.12519e-15
2.11181e-15
2.09732e-15
2.08186e-15
2.06557e-15
2.04853e-15
2.03062e-15
2.01202e-15
1.9928e-15
1.97313e-15
1.95297e-15
1.93242e-15
1.91164e-15
1.89056e-15
1.86919e-15
1.84737e-15
1.78276e-15
1.80343e-15
1.82354e-15
1.84346e-15
1.86309e-15
1.88226e-15
1.90107e-15
1.91952e-15
1.93736e-15
1.95457e-15
1.97126e-15
1.98705e-15
2.00198e-15
2.01629e-15
2.02962e-15
2.04209e-15
2.05323e-15
2.0633e-15
2.07225e-15
2.08007e-15
2.08668e-15
2.09196e-15
2.096e-15
2.09866e-15
2.1e-15
2.09993e-15
2.09858e-15
2.09591e-15
2.09183e-15
2.08657e-15
2.08004e-15
2.07222e-15
2.06324e-15
2.05316e-15
2.04186e-15
2.02952e-15
2.01614e-15
2.00185e-15
1.98676e-15
1.97099e-15
1.95437e-15
1.93707e-15
1.91917e-15
1.90084e-15
1.882e-15
1.8628e-15
1.84334e-15
1.82357e-15
1.80349e-15
1.78295e-15
1.72129e-15
1.74082e-15
1.75977e-15
1.77853e-15
1.79699e-15
1.815e-15
1.83264e-15
1.84992e-15
1.86662e-15
1.88269e-15
1.89827e-15
1.91297e-15
1.92685e-15
1.94016e-15
1.95256e-15
1.96414e-15
1.97445e-15
1.98377e-15
1.99204e-15
1.99927e-15
2.00538e-15
2.01026e-15
2.01397e-15
2.01644e-15
2.01767e-15
2.0176e-15
2.01635e-15
2.0139e-15
2.01013e-15
2.00527e-15
1.99925e-15
1.99202e-15
1.98372e-15
1.97439e-15
1.9639e-15
1.95245e-15
1.94002e-15
1.92676e-15
1.91269e-15
1.89801e-15
1.88251e-15
1.86633e-15
1.84959e-15
1.83241e-15
1.81474e-15
1.79671e-15
1.77842e-15
1.75981e-15
1.74086e-15
1.72147e-15
1.66242e-15
1.68092e-15
1.69884e-15
1.71657e-15
1.73398e-15
1.75097e-15
1.76758e-15
1.78383e-15
1.79952e-15
1.8146e-15
1.8292e-15
1.84296e-15
1.85594e-15
1.86837e-15
1.87995e-15
1.89077e-15
1.90036e-15
1.90904e-15
1.91673e-15
1.92346e-15
1.92914e-15
1.93366e-15
1.93711e-15
1.93941e-15
1.94055e-15
1.94048e-15
1.9393e-15
1.93704e-15
1.93354e-15
1.92903e-15
1.92344e-15
1.91674e-15
1.90901e-15
1.90032e-15
1.89054e-15
1.87986e-15
1.86825e-15
1.85586e-15
1.8427e-15
1.82897e-15
1.81444e-15
1.79924e-15
1.78351e-15
1.76734e-15
1.75071e-15
1.73372e-15
1.71646e-15
1.69888e-15
1.68093e-15
1.66258e-15
1.60586e-15
1.62344e-15
1.64043e-15
1.65723e-15
1.67369e-15
1.68977e-15
1.70547e-15
1.7208e-15
1.73561e-15
1.74982e-15
1.76354e-15
1.77648e-15
1.78866e-15
1.80034e-15
1.8112e-15
1.82134e-15
1.83032e-15
1.83844e-15
1.84563e-15
1.85192e-15
1.85722e-15
1.86144e-15
1.86465e-15
1.86681e-15
1.86786e-15
1.8678e-15
1.86669e-15
1.86459e-15
1.86133e-15
1.85711e-15
1.85191e-15
1.84564e-15
1.83842e-15
1.83029e-15
1.82112e-15
1.81111e-15
1.80022e-15
1.78859e-15
1.77623e-15
1.76334e-15
1.74966e-15
1.73533e-15
1.72049e-15
1.70522e-15
1.68952e-15
1.67346e-15
1.65712e-15
1.64046e-15
1.62343e-15
1.606e-15
1.5514e-15
1.56813e-15
1.58427e-15
1.60023e-15
1.61584e-15
1.63109e-15
1.64597e-15
1.66049e-15
1.6745e-15
1.68793e-15
1.70088e-15
1.7131e-15
1.72456e-15
1.73557e-15
1.7458e-15
1.75535e-15
1.76379e-15
1.77142e-15
1.77817e-15
1.78405e-15
1.78904e-15
1.79299e-15
1.796e-15
1.79803e-15
1.79902e-15
1.79896e-15
1.79791e-15
1.79593e-15
1.7929e-15
1.78894e-15
1.78406e-15
1.77817e-15
1.77139e-15
1.76376e-15
1.75513e-15
1.7457e-15
1.73545e-15
1.7245e-15
1.71283e-15
1.70069e-15
1.68776e-15
1.67422e-15
1.66019e-15
1.64572e-15
1.63086e-15
1.61564e-15
1.60013e-15
1.5843e-15
1.5681e-15
1.55152e-15
1.49886e-15
1.5148e-15
1.53017e-15
1.54534e-15
1.56018e-15
1.57467e-15
1.58881e-15
1.60259e-15
1.61589e-15
1.62861e-15
1.64087e-15
1.65242e-15
1.66326e-15
1.67367e-15
1.68333e-15
1.69235e-15
1.70033e-15
1.70751e-15
1.71389e-15
1.71941e-15
1.72411e-15
1.72782e-15
1.73065e-15
1.73256e-15
1.73349e-15
1.73344e-15
1.73245e-15
1.73059e-15
1.72775e-15
1.72401e-15
1.71942e-15
1.71387e-15
1.70749e-15
1.70028e-15
1.69213e-15
1.68324e-15
1.67356e-15
1.66319e-15
1.65217e-15
1.64068e-15
1.62844e-15
1.61561e-15
1.6023e-15
1.58856e-15
1.57446e-15
1.55999e-15
1.54525e-15
1.53019e-15
1.51476e-15
1.49895e-15
1.44808e-15
1.46329e-15
1.47794e-15
1.49239e-15
1.50651e-15
1.52031e-15
1.53377e-15
1.54686e-15
1.55951e-15
1.57159e-15
1.58321e-15
1.59417e-15
1.60444e-15
1.6143e-15
1.62347e-15
1.632e-15
1.63957e-15
1.64636e-15
1.65238e-15
1.6576e-15
1.66204e-15
1.66554e-15
1.6682e-15
1.67001e-15
1.67089e-15
1.67084e-15
1.6699e-15
1.66815e-15
1.66548e-15
1.66194e-15
1.65761e-15
1.65236e-15
1.64633e-15
1.63951e-15
1.6318e-15
1.62338e-15
1.6142e-15
1.60438e-15
1.59393e-15
1.58305e-15
1.57143e-15
1.55924e-15
1.54658e-15
1.53352e-15
1.52011e-15
1.50634e-15
1.49231e-15
1.47797e-15
1.46324e-15
1.44816e-15
1.39897e-15
1.41348e-15
1.42746e-15
1.44124e-15
1.4547e-15
1.46783e-15
1.48066e-15
1.49313e-15
1.50517e-15
1.51666e-15
1.5277e-15
1.53811e-15
1.54787e-15
1.55723e-15
1.56595e-15
1.57403e-15
1.58121e-15
1.58765e-15
1.59336e-15
1.59831e-15
1.60251e-15
1.60582e-15
1.60834e-15
1.61005e-15
1.61089e-15
1.61084e-15
1.60994e-15
1.60829e-15
1.60577e-15
1.60241e-15
1.5983e-15
1.59335e-15
1.58763e-15
1.58116e-15
1.57385e-15
1.56584e-15
1.55714e-15
1.5478e-15
1.53788e-15
1.52755e-15
1.51651e-15
1.50491e-15
1.49285e-15
1.48042e-15
1.46764e-15
1.45454e-15
1.44116e-15
1.4275e-15
1.41344e-15
1.39903e-15
1.35144e-15
1.3653e-15
1.37863e-15
1.39177e-15
1.4046e-15
1.41712e-15
1.42935e-15
1.44125e-15
1.45271e-15
1.46366e-15
1.47416e-15
1.48405e-15
1.49334e-15
1.50224e-15
1.51055e-15
1.51821e-15
1.52505e-15
1.53115e-15
1.53657e-15
1.54129e-15
1.54525e-15
1.54841e-15
1.55079e-15
1.55239e-15
1.5532e-15
1.55315e-15
1.55231e-15
1.55073e-15
1.54837e-15
1.54516e-15
1.54126e-15
1.53656e-15
1.53115e-15
1.52499e-15
1.51805e-15
1.51042e-15
1.50216e-15
1.49327e-15
1.48384e-15
1.47401e-15
1.46351e-15
1.45245e-15
1.44096e-15
1.42912e-15
1.41694e-15
1.40445e-15
1.3917e-15
1.37867e-15
1.36524e-15
1.3515e-15
1.30543e-15
1.31865e-15
1.33137e-15
1.34391e-15
1.35614e-15
1.36807e-15
1.37973e-15
1.39109e-15
1.402e-15
1.41244e-15
1.42244e-15
1.43186e-15
1.4407e-15
1.44917e-15
1.45708e-15
1.46437e-15
1.47088e-15
1.47668e-15
1.48184e-15
1.48633e-15
1.49009e-15
1.49309e-15
1.49535e-15
1.49686e-15
1.49764e-15
1.49759e-15
1.49678e-15
1.49529e-15
1.49306e-15
1.49e-15
1.4863e-15
1.48183e-15
1.47669e-15
1.47082e-15
1.46422e-15
1.45694e-15
1.44909e-15
1.44063e-15
1.43165e-15
1.4223e-15
1.4123e-15
1.40175e-15
1.39079e-15
1.37952e-15
1.3679e-15
1.356e-15
1.34383e-15
1.33142e-15
1.3186e-15
1.30548e-15
1.2609e-15
1.27352e-15
1.28564e-15
1.29759e-15
1.30925e-15
1.32061e-15
1.33173e-15
1.34257e-15
1.35297e-15
1.36291e-15
1.37243e-15
1.3814e-15
1.38982e-15
1.39789e-15
1.40544e-15
1.41238e-15
1.41857e-15
1.4241e-15
1.429e-15
1.43328e-15
1.43684e-15
1.4397e-15
1.44185e-15
1.44328e-15
1.44403e-15
1.44397e-15
1.44321e-15
1.44179e-15
1.43968e-15
1.43677e-15
1.43325e-15
1.429e-15
1.42411e-15
1.41851e-15
1.41223e-15
1.40529e-15
1.39782e-15
1.38976e-15
1.38121e-15
1.37231e-15
1.36278e-15
1.35273e-15
1.34227e-15
1.33154e-15
1.32046e-15
1.3091e-15
1.29751e-15
1.28569e-15
1.27347e-15
1.26095e-15
1.21784e-15
1.22986e-15
1.2414e-15
1.25277e-15
1.26388e-15
1.27469e-15
1.2853e-15
1.29564e-15
1.30554e-15
1.31501e-15
1.32407e-15
1.33261e-15
1.34062e-15
1.34831e-15
1.35551e-15
1.36213e-15
1.36801e-15
1.37328e-15
1.37794e-15
1.38202e-15
1.3854e-15
1.38812e-15
1.39016e-15
1.39151e-15
1.39224e-15
1.39218e-15
1.39145e-15
1.39011e-15
1.38811e-15
1.38533e-15
1.38198e-15
1.37796e-15
1.37329e-15
1.36795e-15
1.36197e-15
1.35534e-15
1.34824e-15
1.34057e-15
1.33243e-15
1.32395e-15
1.31488e-15
1.30531e-15
1.29534e-15
1.28512e-15
1.27456e-15
1.26374e-15
1.2527e-15
1.24144e-15
1.22981e-15
1.21788e-15
1.17622e-15
1.18767e-15
1.19863e-15
1.20945e-15
1.22001e-15
1.2303e-15
1.2404e-15
1.25025e-15
1.25968e-15
1.26867e-15
1.2773e-15
1.28542e-15
1.29305e-15
1.30037e-15
1.30723e-15
1.31353e-15
1.31913e-15
1.32414e-15
1.32859e-15
1.33247e-15
1.33567e-15
1.33826e-15
1.3402e-15
1.34149e-15
1.34218e-15
1.34212e-15
1.34143e-15
1.34016e-15
1.33827e-15
1.33562e-15
1.33243e-15
1.3286e-15
1.32416e-15
1.31907e-15
1.31338e-15
1.30706e-15
1.3003e-15
1.29299e-15
1.28525e-15
1.27719e-15
1.26855e-15
1.25944e-15
1.24995e-15
1.24023e-15
1.23018e-15
1.21988e-15
1.20939e-15
1.19868e-15
1.18761e-15
1.17626e-15
1.13607e-15
1.14694e-15
1.15735e-15
1.16762e-15
1.17764e-15
1.18741e-15
1.19701e-15
1.20639e-15
1.21535e-15
1.2239e-15
1.2321e-15
1.2398e-15
1.24707e-15
1.25402e-15
1.26055e-15
1.26655e-15
1.27187e-15
1.27665e-15
1.28087e-15
1.28456e-15
1.2876e-15
1.29007e-15
1.29191e-15
1.29313e-15
1.29379e-15
1.29373e-15
1.29307e-15
1.29187e-15
1.29008e-15
1.28755e-15
1.28453e-15
1.28088e-15
1.27667e-15
1.27182e-15
1.2664e-15
1.26038e-15
1.25395e-15
1.247e-15
1.23965e-15
1.23199e-15
1.22377e-15
1.21512e-15
1.20609e-15
1.19685e-15
1.18731e-15
1.17752e-15
1.16756e-15
1.15739e-15
1.14689e-15
1.1361e-15
1.0922e-15
1.10771e-15
1.11756e-15
1.12729e-15
1.13678e-15
1.14604e-15
1.15515e-15
1.16406e-15
1.17255e-15
1.18066e-15
1.18844e-15
1.19574e-15
1.20264e-15
1.20924e-15
1.21546e-15
1.22116e-15
1.22621e-15
1.23076e-15
1.23476e-15
1.23827e-15
1.24115e-15
1.24349e-15
1.24523e-15
1.24639e-15
1.24702e-15
1.24696e-15
1.24634e-15
1.24521e-15
1.24351e-15
1.2411e-15
1.23824e-15
1.23478e-15
1.23077e-15
1.22615e-15
1.22101e-15
1.21528e-15
1.20918e-15
1.20258e-15
1.1956e-15
1.18833e-15
1.18054e-15
1.17232e-15
1.16376e-15
1.15499e-15
1.14594e-15
1.13666e-15
1.12722e-15
1.1176e-15
1.10765e-15
1.09221e-15
1.03202e-15
1.04746e-15
1.0625e-15
1.07733e-15
1.09181e-15
1.10594e-15
1.11481e-15
1.12326e-15
1.13129e-15
1.13897e-15
1.14634e-15
1.15324e-15
1.15978e-15
1.16603e-15
1.17194e-15
1.17734e-15
1.18214e-15
1.18646e-15
1.19025e-15
1.19358e-15
1.1963e-15
1.19853e-15
1.20017e-15
1.20127e-15
1.20186e-15
1.2018e-15
1.20122e-15
1.20015e-15
1.19854e-15
1.19626e-15
1.19355e-15
1.19027e-15
1.18646e-15
1.18208e-15
1.1772e-15
1.17176e-15
1.16597e-15
1.15971e-15
1.15311e-15
1.14624e-15
1.13885e-15
1.13108e-15
1.12296e-15
1.11467e-15
1.10584e-15
1.0917e-15
1.07727e-15
1.06254e-15
1.0474e-15
1.03203e-15
9.74102e-16
9.88687e-16
1.00291e-15
1.01695e-15
1.03065e-15
1.04402e-15
1.05716e-15
1.06999e-15
1.08224e-15
1.09396e-15
1.10518e-15
1.11232e-15
1.1185e-15
1.12441e-15
1.13001e-15
1.13512e-15
1.13966e-15
1.14375e-15
1.14734e-15
1.15048e-15
1.15306e-15
1.15516e-15
1.15671e-15
1.15775e-15
1.15832e-15
1.15824e-15
1.1577e-15
1.1567e-15
1.15518e-15
1.15303e-15
1.15047e-15
1.14736e-15
1.14376e-15
1.1396e-15
1.13499e-15
1.12982e-15
1.12436e-15
1.11843e-15
1.1122e-15
1.10506e-15
1.09383e-15
1.08203e-15
1.06969e-15
1.05703e-15
1.04393e-15
1.03054e-15
1.01688e-15
1.00295e-15
9.88632e-16
9.74117e-16
9.18619e-16
9.32322e-16
9.45702e-16
9.5892e-16
9.71823e-16
9.8441e-16
9.9683e-16
1.00897e-15
1.02054e-15
1.03162e-15
1.04224e-15
1.05222e-15
1.06169e-15
1.07068e-15
1.07914e-15
1.08687e-15
1.09379e-15
1.10003e-15
1.1055e-15
1.10901e-15
1.11144e-15
1.11343e-15
1.11488e-15
1.11586e-15
1.1164e-15
1.11632e-15
1.11582e-15
1.11488e-15
1.11344e-15
1.11141e-15
1.10902e-15
1.10552e-15
1.10002e-15
1.09372e-15
1.08673e-15
1.07893e-15
1.07063e-15
1.06162e-15
1.0521e-15
1.04213e-15
1.03151e-15
1.02034e-15
1.00869e-15
9.96714e-16
9.8433e-16
9.71709e-16
9.58854e-16
9.45747e-16
9.32274e-16
9.18632e-16
8.65713e-16
8.78523e-16
8.91042e-16
9.03423e-16
9.15507e-16
9.27291e-16
9.38965e-16
9.50391e-16
9.61261e-16
9.71683e-16
9.81678e-16
9.91079e-16
1.00002e-15
1.00852e-15
1.01651e-15
1.0238e-15
1.03035e-15
1.03625e-15
1.04142e-15
1.04593e-15
1.04965e-15
1.05268e-15
1.05492e-15
1.05642e-15
1.05723e-15
1.05714e-15
1.05638e-15
1.05492e-15
1.05269e-15
1.04962e-15
1.04592e-15
1.04144e-15
1.03624e-15
1.03028e-15
1.02368e-15
1.0163e-15
1.00846e-15
9.99954e-16
9.90971e-16
9.81585e-16
9.71587e-16
9.61084e-16
9.50123e-16
9.38867e-16
9.2722e-16
9.15395e-16
9.03358e-16
8.91089e-16
8.78479e-16
8.65728e-16
8.15507e-16
8.2742e-16
8.39069e-16
8.50605e-16
8.61857e-16
8.72827e-16
8.83742e-16
8.94438e-16
9.04593e-16
9.14342e-16
9.23699e-16
9.32503e-16
9.40891e-16
9.4888e-16
9.56385e-16
9.63234e-16
9.69392e-16
9.74937e-16
9.79797e-16
9.8404e-16
9.87546e-16
9.90395e-16
9.92505e-16
9.93912e-16
9.94681e-16
9.94591e-16
9.93873e-16
9.92514e-16
9.90412e-16
9.87514e-16
9.84046e-16
9.79827e-16
9.74937e-16
9.69326e-16
9.63125e-16
9.56171e-16
9.48818e-16
9.40835e-16
9.32401e-16
9.23611e-16
9.14259e-16
9.04436e-16
8.94182e-16
8.83658e-16
8.72765e-16
8.61746e-16
8.50538e-16
8.39117e-16
8.27376e-16
8.15521e-16
7.6809e-16
7.7911e-16
7.8989e-16
8.00579e-16
8.10998e-16
8.21152e-16
8.313e-16
8.4126e-16
8.5069e-16
8.59759e-16
8.68468e-16
8.76663e-16
8.84489e-16
8.91959e-16
8.98971e-16
9.05363e-16
9.11119e-16
9.16299e-16
9.20842e-16
9.24809e-16
9.28095e-16
9.30758e-16
9.32729e-16
9.34047e-16
9.34773e-16
9.34681e-16
9.34009e-16
9.32748e-16
9.30777e-16
9.28064e-16
9.24827e-16
9.20876e-16
9.16305e-16
9.11053e-16
9.05265e-16
8.98752e-16
8.91892e-16
8.84441e-16
8.76567e-16
8.68387e-16
8.59687e-16
8.50552e-16
8.41015e-16
8.31232e-16
8.211e-16
8.10888e-16
8.00511e-16
7.89939e-16
7.79067e-16
7.68104e-16
7.23511e-16
7.33654e-16
7.43574e-16
7.53427e-16
7.63024e-16
7.72365e-16
7.81749e-16
7.90972e-16
7.9968e-16
8.08067e-16
8.16125e-16
8.23709e-16
8.30966e-16
8.37912e-16
8.44427e-16
8.50354e-16
8.55706e-16
8.60516e-16
8.64733e-16
8.68421e-16
8.71481e-16
8.73957e-16
8.75787e-16
8.77012e-16
8.77697e-16
8.77603e-16