/*--------------------------------*- C++ -*----------------------------------*\
  =========                 |
  \\      /  F ield         | OpenFOAM: The Open Source CFD Toolbox
   \\    /   O peration     | Website:  https://openfoam.org
    \\  /    A nd           | Version:  7
     \\/     M anipulation  |
\*---------------------------------------------------------------------------*/
FoamFile
{
    version     2.0;
    format      ascii;
    class       volScalarField;
    location    "24000";
    object      omega;
}
// * * * * * * * * * * * * * * * * * * * * * * * * * * * * * * * * * * * * * //

dimensions      [0 0 -1 0 0 0 0];

internalField   nonuniform List<scalar> 
4764
(
0.0382342
0.0382226
0.0382122
0.0382029
0.0381949
0.0381881
0.0384261
0.038407
0.0383889
0.0383716
0.0383552
0.0383395
0.0383247
0.0383107
0.0382975
0.0382845
0.0382733
0.0382633
0.0382544
0.0382467
0.0382403
0.0382359
0.0382319
0.0382293
0.0382281
0.0382283
0.0382298
0.0382326
0.0382366
0.0382419
0.0382482
0.0382554
0.0382634
0.0382723
0.0382822
0.038481
0.0384589
0.0384387
0.0384201
0.0384029
0.0383869
0.038372
0.038358
0.038345
0.0383321
0.0383211
0.0383114
0.0383028
0.0382955
0.0382896
0.0382855
0.038282
0.0382795
0.0382784
0.0382786
0.0382801
0.0382828
0.0382868
0.0382918
0.0382979
0.0383049
0.0383125
0.0383212
0.0383309
0.0383424
0.0383539
0.038366
0.0383789
0.0385509
0.0385218
0.0384965
0.0384743
0.0384544
0.0384365
0.0384202
0.0384054
0.0383917
0.0383784
0.0383672
0.0383575
0.0383491
0.0383419
0.0383362
0.0383324
0.0383291
0.0383268
0.0383257
0.038326
0.0383275
0.0383301
0.038334
0.0383389
0.0383448
0.0383516
0.0383592
0.0383677
0.0383775
0.0383892
0.038401
0.0384135
0.038427
0.0384424
0.0384582
0.0384754
0.0384944
0.0385156
0.0385396
0.0385674
0.0386002
0.0386399
0.038689
0.0387512
0.0388312
0.0386533
0.03861
0.038574
0.0385436
0.0385175
0.038495
0.0384753
0.0384578
0.0384421
0.0384274
0.0384151
0.0384047
0.0383957
0.0383883
0.0383824
0.0383785
0.0383751
0.0383728
0.0383718
0.038372
0.0383734
0.0383761
0.03838
0.0383849
0.0383909
0.0383978
0.0384056
0.0384146
0.038425
0.0384376
0.0384505
0.0384645
0.0384801
0.0384985
0.038518
0.0385399
0.0385651
0.0385945
0.0386293
0.0386712
0.0387227
0.0387868
0.0388676
0.0389704
0.0391011
0.0388207
0.0387501
0.0386929
0.038646
0.0386074
0.0385751
0.0385478
0.0385244
0.0385041
0.038486
0.0384709
0.0384583
0.0384478
0.0384391
0.0384324
0.0384277
0.038424
0.0384214
0.0384201
0.0384202
0.0384216
0.0384244
0.0384284
0.0384337
0.0384402
0.0384478
0.0384565
0.0384668
0.0384789
0.0384936
0.0385094
0.038527
0.0385474
0.038572
0.0385993
0.0386312
0.0386691
0.0387149
0.0387709
0.0388401
0.0389262
0.0390339
0.0391687
0.0393367
0.039544
0.0391054
0.0389877
0.0388922
0.0388148
0.0387517
0.0387002
0.0386577
0.0386223
0.0385925
0.038567
0.038546
0.0385287
0.0385145
0.0385031
0.0384942
0.0384878
0.0384828
0.0384793
0.0384775
0.0384773
0.0384787
0.0384818
0.0384864
0.0384925
0.0385002
0.0385095
0.0385205
0.0385337
0.0385496
0.038569
0.0385907
0.038616
0.038646
0.0386829
0.0387256
0.0387769
0.0388393
0.0389158
0.03901
0.0391263
0.0392694
0.0394448
0.0396587
0.0399163
0.0402222
0.039575
0.0393871
0.0392315
0.0391034
0.0389983
0.0389123
0.0388416
0.0387835
0.0387353
0.0386951
0.0386622
0.0386355
0.0386138
0.0385964
0.0385828
0.0385727
0.0385651
0.0385597
0.0385566
0.0385558
0.0385572
0.0385609
0.0385667
0.0385747
0.0385851
0.0385981
0.0386138
0.0386331
0.0386566
0.0386855
0.0387192
0.0387593
0.0388079
0.0388678
0.0389389
0.0390249
0.0391295
0.0392566
0.0394107
0.039597
0.0398203
0.0400856
0.0403979
0.040761
0.0411773
0.0402933
0.0400166
0.0397809
0.0395814
0.0394138
0.039274
0.0391576
0.039061
0.0389806
0.0389139
0.0388593
0.0388147
0.0387786
0.0387496
0.0387269
0.0387096
0.0386965
0.0386872
0.0386816
0.0386796
0.038681
0.0386858
0.0386942
0.0387061
0.0387219
0.038742
0.0387671
0.038798
0.0388362
0.0388827
0.0389383
0.0390051
0.0390862
0.0391845
0.0393016
0.0394415
0.0396085
0.0398069
0.0400412
0.0403161
0.0406355
0.0410031
0.0414226
0.0418958
0.0424236
0.0413002
0.0409264
0.0405986
0.0403134
0.0400673
0.0398566
0.0396772
0.039525
0.0393964
0.0392885
0.0391988
0.0391248
0.0390641
0.039015
0.0389759
0.0389456
0.0389227
0.0389063
0.0388961
0.0388917
0.0388931
0.0389002
0.0389132
0.0389322
0.0389579
0.0389909
0.0390324
0.0390836
0.0391463
0.0392224
0.0393131
0.0394214
0.0395508
0.0397046
0.0398848
0.0400956
0.0403411
0.0406251
0.0409512
0.0413234
0.0417443
0.0422163
0.0427418
0.0433214
0.0439552
0.0426073
0.0421368
0.0417151
0.0413396
0.0410079
0.0407171
0.0404634
0.0402435
0.0400538
0.0398916
0.0397541
0.0396386
0.0395425
0.0394634
0.0393996
0.0393493
0.0393109
0.0392832
0.0392655
0.0392575
0.0392588
0.0392696
0.0392899
0.0393202
0.0393614
0.0394144
0.0394806
0.0395619
0.0396602
0.0397776
0.0399161
0.0400788
0.0402694
0.0404908
0.0407452
0.0410362
0.0413674
0.0417415
0.0421615
0.0426304
0.0431499
0.0437216
0.0443467
0.0450256
0.0457576
0.0442066
0.0436452
0.0431339
0.0426708
0.0422545
0.0418825
0.0415518
0.0412597
0.041003
0.0407796
0.0405868
0.0404219
0.0402823
0.0401658
0.0400703
0.039994
0.0399351
0.0398923
0.0398645
0.0398515
0.0398528
0.0398685
0.0398988
0.0399443
0.0400058
0.0400849
0.0401827
0.0403014
0.0404431
0.0406099
0.0408037
0.0410278
0.0412853
0.0415788
0.0419101
0.0422823
0.0426981
0.0431598
0.0436694
0.0442293
0.0448408
0.0455046
0.0462216
0.0469917
0.0478138
0.0460819
0.0454369
0.0448428
0.0442983
0.0438025
0.0433537
0.042949
0.0425865
0.0422635
0.0419784
0.0417286
0.041512
0.0413263
0.0411692
0.0410389
0.0409336
0.0408515
0.0407914
0.0407521
0.0407333
0.0407345
0.040756
0.0407977
0.0408604
0.040945
0.0410531
0.0411857
0.0413449
0.0415328
0.0417512
0.0420018
0.0422876
0.0426114
0.0429751
0.0433803
0.0438295
0.0443248
0.0448679
0.0454604
0.0461041
0.0468
0.0475482
0.0483493
0.0492029
0.0501077
0.0489846
0.0482155
0.0474943
0.0468243
0.0462053
0.0456366
0.045117
0.0446438
0.0442159
0.0438306
0.0434871
0.0431829
0.0429165
0.0426859
0.0424889
0.042324
0.0421898
0.0420844
0.0420066
0.0419555
0.0419308
0.0419319
0.0419593
0.0420127
0.0420929
0.0422008
0.0423379
0.0425048
0.0427038
0.0429366
0.0432048
0.0435096
0.0438538
0.0442397
0.0446689
0.0451423
0.0456626
0.0462308
0.0468485
0.0475168
0.0482372
0.0490103
0.0498358
0.0507138
0.0516439
0.0526248
0.0514309
0.0505911
0.0498
0.0490608
0.0483738
0.0477386
0.0471544
0.0466185
0.0461308
0.0456883
0.0452911
0.0449368
0.0446243
0.0443518
0.0441176
0.0439203
0.0437589
0.0436314
0.0435369
0.0434746
0.0434442
0.0434453
0.0434782
0.0435428
0.0436395
0.0437694
0.0439337
0.0441329
0.044369
0.0446436
0.0449578
0.0453125
0.0457104
0.0461532
0.0466423
0.0471782
0.0477633
0.0483983
0.0490842
0.0498216
0.0506121
0.051456
0.052352
0.0533007
0.054301
0.0553517
0.054098
0.0531936
0.0523387
0.0515362
0.0507869
0.0500911
0.0494478
0.0488548
0.0483125
0.047818
0.0473718
0.0469718
0.046617
0.0463065
0.0460381
0.0458112
0.0456249
0.045477
0.0453672
0.0452945
0.045259
0.0452599
0.045298
0.0453728
0.0454847
0.0456347
0.0458241
0.0460527
0.0463228
0.0466355
0.0469918
0.0473921
0.0478388
0.0483336
0.0488772
0.0494701
0.0501144
0.0508103
0.0515585
0.0523592
0.053214
0.0541226
0.0550832
0.0560965
0.0571613
0.058276
0.0579871
0.0569731
0.0560093
0.055096
0.0542358
0.0534295
0.0526783
0.0519812
0.0513358
0.0507438
0.0502018
0.0497111
0.0492693
0.0488761
0.0485308
0.0482313
0.0479774
0.0477683
0.047602
0.0474782
0.047396
0.0473558
0.0473566
0.0473994
0.0474835
0.0476093
0.0477777
0.0479898
0.0482452
0.0485463
0.0488936
0.0492882
0.0497299
0.0502213
0.0507635
0.0513567
0.0520018
0.0527002
0.0534519
0.054257
0.0551156
0.0560292
0.0569969
0.0580168
0.0590893
0.060213
0.0613866
0.0611126
0.0600438
0.0590259
0.0580591
0.057146
0.0562877
0.0554858
0.0547395
0.0540463
0.0534089
0.0528236
0.0522921
0.0518124
0.0513841
0.0510071
0.0506794
0.0504009
0.050171
0.0499879
0.0498514
0.0497605
0.049716
0.0497167
0.0497638
0.0498563
0.0499946
0.0501798
0.0504127
0.0506925
0.0510219
0.0514007
0.0518302
0.0523098
0.0528418
0.0534272
0.0540659
0.0547585
0.0555063
0.056309
0.0571663
0.0580777
0.0590451
0.0600669
0.0611412
0.0622676
0.0634453
0.0646726
0.0655885
0.064418
0.0632992
0.0622319
0.0612162
0.0602549
0.059349
0.0585008
0.0577095
0.0569727
0.0562938
0.0556689
0.0551002
0.0545858
0.0541255
0.0537196
0.0533661
0.0530651
0.0528164
0.0526179
0.05247
0.052371
0.0523226
0.0523231
0.0523742
0.0524744
0.0526241
0.0528245
0.0530764
0.0533784
0.0537335
0.0541411
0.0546025
0.0551165
0.0556859
0.0563105
0.0569908
0.0577268
0.0585197
0.059369
0.0602741
0.0612338
0.0622502
0.0633216
0.0644453
0.0656209
0.0668481
0.0681248
0.0691093
0.0678935
0.066729
0.0656164
0.064556
0.063551
0.0626017
0.0617111
0.0608787
0.0601023
0.0593853
0.0587246
0.0581217
0.0575757
0.0570862
0.0566539
0.0562769
0.0559553
0.0556896
0.0554769
0.0553186
0.0552122
0.0551602
0.0551607
0.0552155
0.0553225
0.0554828
0.0556971
0.0559661
0.0562884
0.056667
0.057101
0.0575912
0.0581368
0.0587403
0.0594007
0.0601188
0.0608945
0.0617285
0.0626202
0.0635691
0.0645726
0.0656338
0.0667506
0.0679197
0.06914
0.0704122
0.0717344
0.0727868
0.0715298
0.0703237
0.0691699
0.0680685
0.0670236
0.0660348
0.0651055
0.0642357
0.0634235
0.0626716
0.0619781
0.0613443
0.0607693
0.0602531
0.0597968
0.0593985
0.0590581
0.0587768
0.0585512
0.0583835
0.0582705
0.0582151
0.0582157
0.0582736
0.058387
0.0585568
0.0587837
0.0590684
0.0594092
0.059809
0.0602671
0.0607837
0.061358
0.0619928
0.0626859
0.0634385
0.0642503
0.0651216
0.0660519
0.0670408
0.0680844
0.0691864
0.0703443
0.0715548
0.0728162
0.0741297
0.0754932
0.0766139
0.0753191
0.0740751
0.0728833
0.0717448
0.0706637
0.0696384
0.0686739
0.0677701
0.0669253
0.0661416
0.0654182
0.0647567
0.0641549
0.0636148
0.0631363
0.0627189
0.0623612
0.0620658
0.0618285
0.061652
0.0615328
0.0614745
0.0614751
0.0615359
0.0616554
0.0618334
0.0620721
0.0623711
0.0627284
0.0631479
0.0636277
0.0641681
0.0647687
0.065432
0.0661548
0.0669388
0.0677838
0.0686886
0.0696541
0.0706796
0.0717597
0.072899
0.0740946
0.0753427
0.0766419
0.0779932
0.0793947
0.0805833
0.0792545
0.0779754
0.0767488
0.0755764
0.0744623
0.0734038
0.0724072
0.0714725
0.0705979
0.0697854
0.0690348
0.068348
0.067722
0.0671599
0.0666613
0.0662268
0.0658533
0.0655449
0.065297
0.0651125
0.064988
0.0649265
0.0649276
0.0649911
0.065116
0.0653013
0.0655506
0.0658626
0.0662351
0.0666724
0.0671721
0.0677343
0.0683583
0.069048
0.0697977
0.0706103
0.0714855
0.0724209
0.0734185
0.0744771
0.0755908
0.0767641
0.0779938
0.0792763
0.0806102
0.0819962
0.083433
0.0861002
0.08469
0.0833295
0.0820184
0.0807601
0.0795562
0.078412
0.0773234
0.0762975
0.0753343
0.0744327
0.0735942
0.0728189
0.0721089
0.071461
0.0708789
0.0703621
0.0699117
0.0695242
0.069204
0.0689461
0.0687543
0.0686252
0.0685606
0.0685622
0.068628
0.0687579
0.06895
0.0692089
0.0695326
0.0699192
0.0703723
0.0708901
0.0714724
0.0721178
0.0728312
0.0736053
0.0744443
0.0753471
0.0763099
0.0773372
0.0784257
0.07957
0.0807744
0.0820357
0.0833496
0.0847158
0.0861339
0.0876035
0.0918671
0.090371
0.0889296
0.0875397
0.086199
0.084911
0.0836786
0.0825068
0.0813906
0.0803379
0.0793487
0.0784219
0.0775601
0.0767623
0.0760309
0.0753633
0.0747626
0.0742296
0.0737644
0.0733645
0.0730334
0.0727662
0.0725681
0.0724345
0.0723675
0.0723691
0.0724372
0.0725715
0.0727702
0.0730374
0.0733717
0.0737711
0.074239
0.0747733
0.0753738
0.0760385
0.0767734
0.0775697
0.0784331
0.0793608
0.0803486
0.0814032
0.0825192
0.0836915
0.084925
0.0862149
0.0875579
0.0889539
0.0904018
0.091902
0.0962949
0.0947692
0.0932984
0.0918812
0.0905129
0.0891977
0.0879387
0.0867412
0.0855997
0.0845221
0.0835089
0.0825596
0.081676
0.0808575
0.0801072
0.0794215
0.0788038
0.0782556
0.077777
0.0773658
0.0770249
0.0767494
0.0765451
0.0764076
0.0763386
0.0763402
0.0764105
0.0765485
0.0767534
0.0770282
0.0773719
0.0777832
0.0782642
0.0788136
0.0794312
0.0801134
0.0808677
0.0816846
0.0825699
0.0835205
0.0845315
0.0856113
0.0867523
0.0879505
0.0892108
0.0905278
0.0918978
0.0933218
0.0947974
0.0963264
0.100847
0.0992934
0.0977951
0.0963521
0.0949573
0.0936164
0.0923329
0.0911117
0.0899462
0.0888457
0.0878101
0.0868403
0.0859368
0.0850988
0.084331
0.0836287
0.0829958
0.0824333
0.081943
0.0815215
0.0811712
0.0808884
0.0806786
0.0805374
0.0804665
0.0804677
0.0805403
0.0806817
0.080892
0.0811738
0.081526
0.0819482
0.0824412
0.0830045
0.0836376
0.0843363
0.0851082
0.0859442
0.0868495
0.0878217
0.0888539
0.0899567
0.0911216
0.0923437
0.0936288
0.0949716
0.0963671
0.0978171
0.0993195
0.100876
0.105525
0.103944
0.102419
0.100951
0.0995313
0.0981654
0.0968588
0.0956151
0.0944275
0.093305
0.092249
0.0912599
0.0903376
0.0894816
0.0886978
0.08798
0.0873331
0.0867578
0.0862563
0.0858253
0.0854666
0.085177
0.0849621
0.0848175
0.0847452
0.0847461
0.0848205
0.0849651
0.0851803
0.0854685
0.0858283
0.086261
0.0867651
0.0873412
0.0879883
0.0887024
0.0894904
0.090344
0.091268
0.0922602
0.0933126
0.0944371
0.0956238
0.096869
0.0981777
0.0995446
0.100964
0.10244
0.103968
0.105552
0.11033
0.108722
0.107171
0.105678
0.104234
0.102845
0.101516
0.10025
0.0990421
0.0978983
0.0968234
0.0958158
0.0948759
0.0940028
0.0932041
0.0924723
0.091812
0.0912246
0.0907127
0.0902729
0.0899065
0.0896107
0.0893908
0.0892432
0.0891698
0.0891702
0.0892464
0.089394
0.0896137
0.0899081
0.090275
0.0907169
0.0912312
0.0918198
0.0924796
0.093208
0.0940115
0.0948815
0.0958232
0.0968339
0.0979056
0.0990506
0.100259
0.101525
0.102857
0.104247
0.105691
0.107191
0.108744
0.110354
0.115265
0.11363
0.112054
0.110536
0.109069
0.107656
0.106305
0.105018
0.103789
0.102626
0.101532
0.100507
0.0995505
0.0986613
0.097848
0.0971029
0.0964299
0.0958315
0.0953098
0.0948615
0.0944879
0.0941861
0.0939619
0.0938117
0.0937367
0.0937372
0.0938145
0.0939655
0.0941895
0.0944891
0.094863
0.0953132
0.0958376
0.0964374
0.0971093
0.0978511
0.0986694
0.0995555
0.100513
0.101542
0.102632
0.103797
0.105026
0.106313
0.107667
0.10908
0.110548
0.112072
0.113652
0.115288
0.120336
0.118674
0.117071
0.115529
0.114037
0.112601
0.111228
0.10992
0.108671
0.107488
0.106376
0.105334
0.104361
0.103457
0.102629
0.101871
0.101186
0.100577
0.100046
0.0995897
0.0992092
0.0989018
0.0986739
0.0985209
0.0984443
0.0984452
0.0985235
0.0986774
0.0989053
0.0992105
0.0995909
0.100049
0.100583
0.101193
0.101877
0.102632
0.103464
0.104366
0.105339
0.106386
0.107494
0.108678
0.109927
0.111236
0.112611
0.114047
0.115539
0.117088
0.118694
0.120357
0.12555
0.123859
0.122229
0.120661
0.119144
0.117685
0.116289
0.11496
0.113691
0.112488
0.111358
0.110299
0.10931
0.108391
0.107549
0.106778
0.106082
0.105463
0.104922
0.104458
0.104071
0.103758
0.103526
0.103371
0.103293
0.103294
0.103373
0.10353
0.103761
0.104072
0.104459
0.104925
0.105468
0.106089
0.106783
0.107551
0.108398
0.109314
0.110304
0.111367
0.112494
0.113698
0.114967
0.116297
0.117694
0.119153
0.12067
0.122245
0.123877
0.125569
0.130914
0.129194
0.127536
0.12594
0.124398
0.122914
0.121495
0.120144
0.118853
0.117632
0.116482
0.115406
0.114401
0.113466
0.112611
0.111827
0.111119
0.11049
0.10994
0.109468
0.109075
0.108757
0.108521
0.108363
0.108284
0.108285
0.108365
0.108525
0.10876
0.109076
0.109469
0.109943
0.110495
0.111126
0.111832
0.112612
0.113473
0.114405
0.11541
0.116491
0.117636
0.11886
0.12015
0.121502
0.122923
0.124406
0.125948
0.12755
0.129211
0.130933
0.136441
0.134688
0.133
0.131376
0.129805
0.128296
0.126853
0.125478
0.124166
0.122924
0.121755
0.120661
0.119639
0.118689
0.117819
0.117022
0.116303
0.115664
0.115104
0.114625
0.114224
0.113902
0.113661
0.113501
0.11342
0.113422
0.113503
0.113665
0.113904
0.114226
0.114625
0.115107
0.115669
0.11631
0.117027
0.117819
0.118695
0.119643
0.120665
0.121763
0.122928
0.124172
0.125484
0.126859
0.128304
0.129813
0.131383
0.133013
0.134704
0.136458
0.142142
0.140354
0.138634
0.136978
0.135378
0.133841
0.132372
0.130972
0.129638
0.128374
0.127184
0.126071
0.125032
0.124065
0.123181
0.12237
0.121639
0.120989
0.12042
0.119932
0.119526
0.119198
0.118953
0.11879
0.118708
0.11871
0.118792
0.118957
0.1192
0.119527
0.119933
0.120423
0.120994
0.121646
0.122375
0.123181
0.12407
0.125036
0.126075
0.127192
0.128377
0.129643
0.130978
0.132378
0.133849
0.135386
0.136984
0.138646
0.14037
0.142158
0.148033
0.146207
0.144451
0.142761
0.14113
0.139563
0.138065
0.136639
0.135279
0.133992
0.13278
0.131647
0.130589
0.129606
0.128706
0.12788
0.127137
0.126475
0.125897
0.1254
0.124987
0.124653
0.124404
0.124238
0.124155
0.124156
0.12424
0.124408
0.124655
0.124988
0.125401
0.125899
0.126481
0.127143
0.127885
0.128705
0.12961
0.130593
0.13165
0.132788
0.133995
0.135284
0.136644
0.138071
0.139569
0.141137
0.142767
0.144462
0.146222
0.148048
0.154132
0.152264
0.150469
0.148741
0.147075
0.145475
0.143947
0.142491
0.141104
0.139792
0.138557
0.137401
0.136323
0.135322
0.134405
0.133564
0.132807
0.132133
0.131544
0.131039
0.130617
0.130278
0.130024
0.129855
0.12977
0.129772
0.129857
0.130027
0.13028
0.130618
0.131039
0.131546
0.132139
0.132813
0.133568
0.134403
0.135325
0.136326
0.137405
0.138564
0.139795
0.141109
0.142496
0.143952
0.145481
0.147082
0.148747
0.150479
0.152278
0.154145
0.160458
0.158543
0.156705
0.154936
0.153232
0.151596
0.150034
0.148546
0.147129
0.145789
0.144528
0.143349
0.142248
0.141227
0.140291
0.139434
0.138662
0.137976
0.137375
0.13686
0.13643
0.136084
0.135826
0.135654
0.135567
0.135568
0.135655
0.135828
0.136085
0.136431
0.136861
0.137377
0.137981
0.138668
0.139438
0.14029
0.14123
0.142251
0.143351
0.144535
0.145792
0.147133
0.14855
0.150038
0.151601
0.153238
0.154942
0.156714
0.158556
0.16047
0.167034
0.165069
0.163183
0.161369
0.159622
0.157946
0.156346
0.154822
0.153372
0.152002
0.150712
0.149507
0.148382
0.147339
0.146383
0.145508
0.144719
0.144018
0.143405
0.142879
0.14244
0.142088
0.141824
0.141648
0.141559
0.14156
0.141649
0.141826
0.142089
0.142441
0.142881
0.143408
0.144024
0.144725
0.14551
0.146381
0.147341
0.148384
0.149509
0.150719
0.152005
0.153377
0.154826
0.15635
0.15795
0.159627
0.161374
0.163191
0.165081
0.167045
0.173888
0.171867
0.169928
0.168062
0.166268
0.164548
0.162906
0.161343
0.159856
0.158453
0.157131
0.155897
0.154745
0.153677
0.152698
0.151803
0.150997
0.15028
0.149653
0.149115
0.148666
0.148306
0.148036
0.147857
0.147766
0.147767
0.147858
0.148038
0.148306
0.148667
0.149117
0.149656
0.150285
0.151002
0.151806
0.152696
0.153678
0.154746
0.155898
0.157137
0.158455
0.159861
0.161347
0.16291
0.164552
0.166273
0.168067
0.169935
0.171878
0.173898
0.18105
0.178966
0.176968
0.175046
0.173199
0.17143
0.169741
0.168134
0.166607
0.165165
0.163808
0.162541
0.161359
0.160264
0.15926
0.158343
0.157517
0.156782
0.15614
0.155589
0.155129
0.15476
0.154483
0.1543
0.154207
0.154208
0.154301
0.154486
0.15476
0.15513
0.155591
0.156143
0.156787
0.157522
0.158345
0.159259
0.160265
0.16136
0.162542
0.163814
0.165167
0.16661
0.168138
0.169744
0.171433
0.173204
0.17505
0.176973
0.178976
0.181059
0.188553
0.186399
0.184335
0.182352
0.180446
0.178621
0.17688
0.175224
0.173651
0.172168
0.170772
0.169469
0.168253
0.167128
0.166096
0.165154
0.164305
0.163551
0.162892
0.162325
0.161854
0.161475
0.161191
0.161003
0.160907
0.160908
0.161004
0.161194
0.161475
0.161855
0.162328
0.162894
0.163556
0.16431
0.165156
0.166094
0.167128
0.168254
0.169469
0.170777
0.17217
0.173655
0.175228
0.176883
0.178624
0.18045
0.182355
0.18434
0.186408
0.188561
0.196435
0.194205
0.192068
0.190015
0.188043
0.186157
0.184358
0.182648
0.181024
0.179494
0.178055
0.17671
0.175457
0.174298
0.173234
0.172265
0.171392
0.170616
0.169937
0.169354
0.168869
0.168479
0.168187
0.167994
0.167895
0.167896
0.167994
0.16819
0.168479
0.16887
0.169357
0.169939
0.17062
0.171396
0.172267
0.173234
0.174297
0.175457
0.17671
0.178058
0.179495
0.181027
0.182651
0.18436
0.186159
0.188047
0.190018
0.192072
0.194213
0.196443
0.204741
0.202425
0.200207
0.198076
0.196032
0.194077
0.192213
0.190442
0.188763
0.187179
0.185692
0.184302
0.183006
0.181809
0.180711
0.179711
0.17881
0.17801
0.177309
0.176707
0.176208
0.175806
0.175504
0.175305
0.175203
0.175204
0.175305
0.175507
0.175805
0.176208
0.176711
0.177311
0.178013
0.178813
0.179712
0.180711
0.181809
0.183007
0.184302
0.185695
0.187181
0.188765
0.190446
0.192216
0.194079
0.196035
0.19808
0.20021
0.202433
0.204749
0.21352
0.211108
0.208799
0.206583
0.204459
0.202426
0.200491
0.198652
0.196909
0.195267
0.193725
0.192284
0.190942
0.189703
0.188566
0.18753
0.186598
0.185771
0.185046
0.184424
0.183907
0.183491
0.18318
0.182974
0.182869
0.182869
0.182974
0.183182
0.183491
0.183908
0.184427
0.185047
0.185773
0.186601
0.187532
0.188565
0.189702
0.190942
0.192284
0.193727
0.195269
0.196912
0.198655
0.200493
0.202428
0.204461
0.206586
0.208802
0.211115
0.213526
0.222826
0.220308
0.217899
0.215588
0.213373
0.211256
0.209239
0.207326
0.205512
0.203804
0.202201
0.200704
0.19931
0.198023
0.196842
0.195768
0.194801
0.193942
0.193191
0.192546
0.19201
0.191579
0.191256
0.191042
0.190934
0.190934
0.191042
0.191258
0.191578
0.19201
0.192549
0.193192
0.193945
0.194804
0.19577
0.196842
0.198022
0.19931
0.200704
0.202204
0.203806
0.205514
0.207329
0.209242
0.211257
0.213375
0.21559
0.217902
0.220314
0.222832
0.232722
0.230086
0.227567
0.225149
0.222834
0.220622
0.218516
0.216518
0.214627
0.212846
0.211174
0.209614
0.208161
0.206822
0.205593
0.204475
0.203469
0.202575
0.201794
0.201123
0.200566
0.200117
0.199782
0.19956
0.199447
0.199447
0.19956
0.199784
0.200117
0.200566
0.201125
0.201795
0.202578
0.203471
0.204476
0.205592
0.20682
0.208162
0.209613
0.211176
0.212848
0.214629
0.216521
0.218519
0.220623
0.222835
0.225151
0.227569
0.230092
0.232727
0.243278
0.240512
0.237869
0.235334
0.232907
0.23059
0.228385
0.226294
0.224314
0.222452
0.220705
0.219074
0.217557
0.216158
0.214874
0.213707
0.212658
0.211726
0.21091
0.21021
0.20963
0.209162
0.208812
0.208581
0.208464
0.208464
0.208581
0.208814
0.209162
0.20963
0.210213
0.210911
0.211727
0.21266
0.213708
0.214874
0.216156
0.217557
0.219073
0.220706
0.222454
0.224317
0.226297
0.228387
0.230591
0.232908
0.235336
0.237871
0.240518
0.243283
0.254574
0.251664
0.248884
0.246218
0.243668
0.241234
0.238919
0.236723
0.234646
0.232693
0.230861
0.229152
0.227562
0.226097
0.224753
0.223532
0.222434
0.221458
0.220605
0.219873
0.219266
0.218777
0.218411
0.218168
0.218046
0.218047
0.218169
0.218412
0.218777
0.219265
0.219875
0.220606
0.221459
0.222435
0.223532
0.224752
0.226095
0.227562
0.229151
0.230862
0.232695
0.234649
0.236725
0.23892
0.241235
0.243669
0.24622
0.248886
0.251669
0.254578
0.266699
0.26363
0.260698
0.257888
0.2552
0.252636
0.250198
0.247887
0.245702
0.243648
0.241722
0.239925
0.238254
0.236715
0.235304
0.234022
0.232869
0.231845
0.23095
0.230182
0.229545
0.229032
0.228649
0.228395
0.228267
0.228267
0.228395
0.22865
0.229033
0.229545
0.230184
0.230951
0.231847
0.23287
0.234022
0.235303
0.236713
0.238255
0.239924
0.241723
0.243649
0.245704
0.247889
0.2502
0.252637
0.255201
0.25789
0.2607
0.263634
0.266703
0.279756
0.276511
0.27341
0.27044
0.2676
0.264892
0.262318
0.259878
0.257573
0.255406
0.253375
0.25148
0.24972
0.248099
0.246613
0.245263
0.244049
0.242971
0.242029
0.241221
0.24055
0.240012
0.239608
0.239341
0.239206
0.239206
0.239341
0.239609
0.240012
0.24055
0.241223
0.24203
0.242972
0.24405
0.245263
0.246612
0.248097
0.249721
0.25148
0.253376
0.255407
0.257575
0.25988
0.262319
0.264893
0.267601
0.270442
0.273412
0.276515
0.27976
0.293861
0.290421
0.287134
0.283985
0.280977
0.278108
0.275383
0.272801
0.270362
0.26807
0.265922
0.263919
0.262059
0.260346
0.258776
0.25735
0.256069
0.254931
0.253936
0.253084
0.252376
0.251807
0.251382
0.2511
0.250958
0.250958
0.2511
0.251383
0.251808
0.252376
0.253085
0.253937
0.254932
0.25607
0.25735
0.258775
0.260344
0.262059
0.263918
0.265923
0.268071
0.270364
0.272803
0.275384
0.27811
0.280977
0.283987
0.287135
0.290424
0.293864
0.309145
0.305489
0.301995
0.29865
0.295455
0.292409
0.289515
0.286775
0.284188
0.281756
0.279478
0.277355
0.275384
0.273568
0.271905
0.270395
0.269038
0.267833
0.26678
0.265878
0.265128
0.264527
0.264076
0.263778
0.263628
0.263628
0.263778
0.264077
0.264527
0.265128
0.265879
0.266781
0.267834
0.269039
0.270395
0.271905
0.273567
0.275384
0.277354
0.279479
0.281757
0.284189
0.286777
0.289517
0.29241
0.295455
0.298652
0.301996
0.305491
0.309148
0.32576
0.321864
0.318142
0.314579
0.311175
0.307932
0.304853
0.301937
0.299184
0.296598
0.294175
0.291918
0.289823
0.287894
0.286127
0.284523
0.283082
0.281802
0.280684
0.279726
0.27893
0.278292
0.277814
0.277497
0.277338
0.277338
0.277497
0.277815
0.278293
0.27893
0.279727
0.280685
0.281803
0.283082
0.284523
0.286127
0.287892
0.289823
0.291917
0.294176
0.296598
0.299186
0.301938
0.304854
0.307933
0.311176
0.31458
0.318143
0.321866
0.325763
0.343877
0.339716
0.33574
0.331935
0.328302
0.32484
0.321554
0.318442
0.315507
0.312748
0.310165
0.307758
0.305526
0.30347
0.301587
0.299879
0.298344
0.296981
0.29579
0.294771
0.293923
0.293244
0.292735
0.292397
0.292228
0.292228
0.292397
0.292736
0.293244
0.293923
0.294772
0.295791
0.296982
0.298344
0.299879
0.301587
0.303469
0.305526
0.307758
0.310166
0.312748
0.315508
0.318444
0.321555
0.324841
0.328302
0.331936
0.335741
0.339718
0.343879
0.363695
0.35924
0.354983
0.35091
0.347021
0.343317
0.3398
0.336472
0.333332
0.330382
0.327621
0.325048
0.322662
0.320465
0.318454
0.316629
0.314989
0.313534
0.312262
0.311174
0.310269
0.309544
0.309001
0.30864
0.308459
0.308459
0.30864
0.309001
0.309544
0.310268
0.311175
0.312263
0.313535
0.31499
0.316629
0.318454
0.320464
0.322663
0.325048
0.327621
0.330383
0.333333
0.336473
0.339801
0.343317
0.347021
0.350911
0.354984
0.359242
0.363697
0.385442
0.380661
0.376093
0.371721
0.367548
0.363575
0.359803
0.356233
0.352867
0.349703
0.346743
0.343986
0.341429
0.339075
0.336921
0.334965
0.333209
0.33165
0.330289
0.329123
0.328154
0.327378
0.326797
0.32641
0.326217
0.326217
0.32641
0.326797
0.327378
0.328154
0.329124
0.33029
0.331651
0.33321
0.334965
0.33692
0.339074
0.34143
0.343986
0.346744
0.349704
0.352867
0.356234
0.359804
0.363575
0.367549
0.371722
0.376093
0.380663
0.385444
0.409383
0.404239
0.399325
0.394622
0.390134
0.38586
0.381804
0.377966
0.374347
0.370947
0.367765
0.364802
0.362055
0.359525
0.357211
0.355111
0.353225
0.351551
0.350088
0.348837
0.347796
0.346963
0.346339
0.345924
0.345716
0.345716
0.345924
0.346339
0.346963
0.347796
0.348838
0.350089
0.351551
0.353225
0.355111
0.357211
0.359525
0.362055
0.364802
0.367766
0.370947
0.374347
0.377967
0.381805
0.38586
0.390134
0.394623
0.399325
0.404241
0.409385
0.435824
0.430278
0.424977
0.419907
0.415067
0.410459
0.406086
0.401949
0.398048
0.394384
0.390956
0.387763
0.384804
0.382079
0.379586
0.377324
0.375292
0.37349
0.371915
0.370567
0.369446
0.36855
0.367878
0.367431
0.367207
0.367207
0.367431
0.367878
0.36855
0.369446
0.370568
0.371916
0.37349
0.375293
0.377324
0.379585
0.382078
0.384804
0.387763
0.390956
0.394385
0.398049
0.40195
0.406087
0.410459
0.415067
0.419907
0.424978
0.430279
0.435826
0.465123
0.459128
0.453399
0.447917
0.442685
0.437705
0.432979
0.428509
0.424294
0.420334
0.416631
0.413181
0.409985
0.407041
0.404349
0.401906
0.399712
0.397766
0.396065
0.39461
0.3934
0.392432
0.391706
0.391224
0.390982
0.390982
0.391224
0.391707
0.392432
0.3934
0.394611
0.396066
0.397766
0.399712
0.401906
0.404349
0.407041
0.409985
0.413181
0.416631
0.420335
0.424294
0.428509
0.43298
0.437706
0.442685
0.447917
0.453399
0.459129
0.465125
0.497701
0.491205
0.484995
0.479055
0.473386
0.46799
0.46287
0.458026
0.45346
0.449171
0.445159
0.441422
0.43796
0.434772
0.431857
0.429211
0.426836
0.424728
0.422887
0.421312
0.420001
0.418954
0.418168
0.417645
0.417384
0.417384
0.417646
0.418168
0.418954
0.420001
0.421313
0.422888
0.424729
0.426836
0.429212
0.431857
0.434772
0.437961
0.441422
0.445159
0.449171
0.45346
0.458027
0.46287
0.46799
0.473386
0.479055
0.484996
0.491205
0.497702
0.53405
0.526994
0.520248
0.513795
0.507636
0.501774
0.496212
0.490951
0.485991
0.481333
0.476975
0.472917
0.469158
0.465696
0.46253
0.459657
0.457078
0.45479
0.452791
0.451081
0.449658
0.44852
0.447667
0.4471
0.446816
0.446816
0.4471
0.447668
0.44852
0.449658
0.451081
0.452792
0.45479
0.457079
0.459658
0.46253
0.465696
0.469158
0.472917
0.476976
0.481333
0.485991
0.490952
0.496213
0.501775
0.507636
0.513795
0.520248
0.526994
0.534051
0.574757
0.567073
0.559726
0.552697
0.545989
0.539604
0.533546
0.527816
0.522415
0.517341
0.512596
0.508177
0.504083
0.500313
0.496865
0.493738
0.49093
0.488438
0.486262
0.4844
0.48285
0.481612
0.480684
0.480066
0.479757
0.479757
0.480066
0.480684
0.481612
0.482851
0.4844
0.486263
0.488439
0.49093
0.493738
0.496866
0.500314
0.504084
0.508177
0.512596
0.517342
0.522415
0.527817
0.533547
0.539604
0.545988
0.552696
0.559725
0.567073
0.574758
0.620518
0.612128
0.604105
0.596428
0.589102
0.58213
0.575514
0.569256
0.563357
0.557817
0.552635
0.547809
0.543339
0.539222
0.535457
0.532042
0.528976
0.526255
0.523879
0.521846
0.520154
0.518802
0.517788
0.517113
0.516776
0.516776
0.517114
0.517789
0.518802
0.520154
0.521846
0.52388
0.526256
0.528976
0.532043
0.535458
0.539222
0.543339
0.547809
0.552635
0.557817
0.563357
0.569257
0.575514
0.58213
0.589102
0.596428
0.604104
0.612128
0.620519
0.672171
0.662984
0.654197
0.64579
0.637767
0.630131
0.622885
0.616032
0.609571
0.603503
0.597828
0.592543
0.587647
0.583139
0.579016
0.575275
0.571917
0.568938
0.566336
0.564109
0.562256
0.560775
0.559665
0.558926
0.558557
0.558557
0.558927
0.559666
0.560776
0.562257
0.56411
0.566337
0.568939
0.571918
0.575276
0.579016
0.583139
0.587648
0.592543
0.597828
0.603504
0.609571
0.616032
0.622885
0.630131
0.637766
0.64579
0.654197
0.662984
0.672171
0.730722
0.720634
0.710983
0.701749
0.692936
0.684548
0.676589
0.669061
0.661964
0.655298
0.649064
0.643258
0.63788
0.632928
0.628398
0.62429
0.620601
0.617328
0.614469
0.612024
0.609988
0.608361
0.607142
0.60633
0.605925
0.605925
0.606331
0.607143
0.608361
0.609989
0.612024
0.614471
0.617329
0.620602
0.624291
0.628399
0.632928
0.637881
0.643259
0.649064
0.655299
0.661964
0.669061
0.676589
0.684548
0.692935
0.701748
0.710982
0.720634
0.730723
0.797399
0.786286
0.775653
0.765478
0.755767
0.746524
0.737754
0.729458
0.721638
0.714293
0.707422