/*--------------------------------*- C++ -*----------------------------------*\
  =========                 |
  \\      /  F ield         | OpenFOAM: The Open Source CFD Toolbox
   \\    /   O peration     | Website:  https://openfoam.org
    \\  /    A nd           | Version:  7
     \\/     M anipulation  |
\*---------------------------------------------------------------------------*/
FoamFile
{
    version     2.0;
    format      ascii;
    class       surfaceScalarField;
    location    "152000";
    object      phi;
}
// * * * * * * * * * * * * * * * * * * * * * * * * * * * * * * * * * * * * * //

dimensions      [0 3 -1 0 0 0 0];

internalField   nonuniform List<scalar> 
9540
(
-4.45438e-23
7.16401e-24
2.08015e-23
1.32317e-23
-4.07981e-23
1.01155e-23
3.41684e-23
-1.88166e-23
2.78483e-23
5.84267e-24
-4.04165e-23
-5.45044e-24
1.59891e-23
-2.77493e-23
1.91987e-23
-2.68997e-23
2.02642e-24
2.51556e-24
4.54629e-23
1.0137e-23
-3.27675e-23
4.1961e-24
1.72561e-23
-3.03326e-23
1.41295e-23
-1.94691e-23
-5.65952e-25
-1.65091e-23
3.97191e-23
1.15071e-23
5.105e-23
3.33277e-23
-3.17539e-23
2.18245e-23
1.56654e-23
-3.26711e-23
2.35522e-23
-9.99097e-24
2.46292e-23
-1.55733e-23
5.39308e-23
1.59907e-23
5.07249e-23
1.6834e-23
2.60744e-23
8.16459e-23
-3.78137e-23
-3.75912e-23
1.23013e-23
-2.80204e-23
2.47721e-23
-1.39626e-23
5.41254e-23
-9.02048e-24
3.01993e-23
1.5151e-24
4.1169e-23
2.90179e-23
4.02514e-23
1.98915e-23
4.90925e-23
2.41306e-23
7.30173e-23
5.36144e-24
-2.96761e-23
1.29146e-23
2.69958e-23
-1.65304e-23
1.18555e-23
-2.49842e-23
7.14059e-23
-9.11732e-24
6.15094e-23
5.87775e-24
3.79212e-23
2.92692e-23
6.18076e-23
2.6149e-23
2.9245e-23
1.49025e-24
5.60529e-24
-9.91077e-24
9.24147e-24
8.80555e-24
-1.97807e-23
4.51165e-23
2.87304e-23
-7.84791e-24
4.74412e-23
-2.39188e-23
8.5479e-24
-1.53349e-23
6.01955e-23
1.11214e-23
6.27888e-23
2.28003e-23
5.05982e-23
1.40062e-23
3.77159e-23
1.07978e-24
1.6091e-23
-5.26091e-24
4.89356e-24
6.31781e-25
-6.37229e-24
-1.85143e-23
-2.68269e-23
3.13066e-24
2.58991e-24
1.42074e-23
-1.76055e-23
-5.95415e-23
-1.95369e-23
2.4557e-23
1.93312e-23
-1.76967e-23
1.88259e-23
-9.03138e-24
1.11734e-23
-2.30619e-23
9.69454e-24
8.47909e-24
4.5015e-23
1.83055e-23
5.08067e-23
2.6387e-24
5.93306e-23
1.44196e-25
1.55194e-23
-1.18915e-23
-2.3834e-23
-4.318e-24
-1.81448e-23
-3.79913e-24
-2.54318e-23
-6.34971e-24
-2.75204e-23
6.99963e-24
1.18481e-23
-1.4859e-23
-4.36418e-24
-2.52542e-23
-5.7057e-24
-3.23142e-23
-1.5625e-23
-3.58162e-23
-7.59906e-24
1.23377e-23
-1.43341e-23
2.477e-23
1.78431e-23
-1.71297e-23
3.3812e-23
-1.02911e-23
1.25404e-23
-1.57798e-23
1.87103e-23
8.43172e-24
3.40095e-23
1.86174e-23
3.99777e-23
-4.9941e-24
-1.72225e-24
-2.4008e-24
1.38541e-23
-1.14831e-23
-1.52959e-23
-1.0304e-23
-1.88153e-23
-8.24406e-24
-2.79393e-23
-3.21513e-24
-2.99706e-23
5.97137e-24
-2.9481e-24
-1.43141e-23
-2.41189e-23
-1.83916e-23
2.74466e-23
-3.0792e-23
-1.22811e-23
-3.41384e-23
-9.4773e-24
-1.77326e-23
-8.47719e-24
2.66947e-24
-5.59022e-23
-7.08433e-23
-1.54237e-23
2.86763e-23
1.91022e-23
-1.67898e-23
4.29079e-23
-9.21462e-24
2.11316e-23
-1.40113e-23
4.12259e-23
1.05823e-23
6.13715e-23
3.63775e-24
9.97064e-24
-3.6041e-24
-2.83356e-23
-6.57278e-24
-1.68846e-23
-1.13855e-23
-1.13143e-23
-8.33321e-24
-2.37075e-23
-8.31723e-24
-2.76215e-23
7.6707e-24
-4.43484e-23
9.1727e-25
-3.67531e-23
-5.77652e-24
-5.42504e-23
-2.35213e-23
-4.75485e-24
-2.76491e-23
-1.11511e-23
-3.87137e-23
-4.7866e-24
-2.5071e-23
-2.28429e-23
-4.03899e-24
-8.17617e-23
-4.33645e-24
-6.86405e-23
-2.88714e-24
-2.08685e-23
-2.60971e-24
-3.36297e-23
-2.63242e-23
-6.70116e-23
-9.00573e-23
-1.44134e-23
3.24226e-23
2.27726e-23
-2.02044e-23
5.00139e-23
-1.44179e-23
2.76789e-23
-1.07117e-23
4.39161e-23
2.52312e-24
5.58168e-23
1.36842e-24
5.3914e-23
-3.1682e-25
-3.10704e-23
-4.44985e-24
-9.98502e-24
-1.65423e-23
2.40109e-24
-1.28099e-23
-2.50703e-23
-1.712e-23
-5.726e-23
7.80286e-24
-3.07443e-23
-4.22461e-24
-2.43067e-23
-9.56615e-25
-5.52877e-23
-2.56823e-23
1.79762e-23
-2.86736e-23
-1.27085e-23
-4.041e-23
-1.98868e-23
-3.37573e-23
-3.27073e-23
-5.32379e-24
-3.12538e-23
8.78548e-24
-7.51515e-25
-8.3933e-24
-1.46722e-23
-8.00821e-24
-3.07609e-23
-3.20538e-23
-4.73139e-23
8.44698e-24
-3.62501e-23
-3.54464e-23
-5.32661e-23
-1.27234e-22
-1.23175e-23
-1.40471e-22
-3.21005e-23
-9.08592e-23
-2.0573e-23
-2.29356e-23
-7.01848e-24
1.66427e-23
2.58258e-23
-2.0936e-23
6.70287e-23
-9.79964e-24
5.81193e-23
-1.42199e-23
5.33643e-23
-2.32082e-24
7.40582e-23
-1.16934e-23
6.81676e-23
-1.33582e-24
4.53983e-23
-6.03056e-24
-3.33233e-24
-1.64603e-23
-2.56923e-23
-2.3358e-23
-1.69276e-23
-1.25289e-23
-2.70971e-23
5.85725e-24
-3.99924e-23
-1.20924e-23
-4.14891e-23
1.40014e-23
-3.60687e-23
-3.06041e-23
-2.39052e-23
-2.46832e-23
6.45467e-23
-4.83207e-23
-5.13676e-24
-3.24567e-23
5.20206e-23
1.58929e-24
3.05482e-23
8.5719e-24
3.8635e-23
-1.32835e-23
1.29583e-23
-6.91585e-24
4.96068e-23
-2.97049e-23
-3.07632e-23
5.31021e-24
5.87628e-24
-3.03418e-23
-2.31334e-23
-1.28989e-22
-8.0722e-23
-1.3841e-22
-3.01092e-23
-9.19119e-23
2.48144e-23
-1.10798e-22
1.49434e-23
-1.36304e-22
2.11009e-24
-1.31876e-22
8.19244e-24
-3.44884e-23
-5.73883e-26
8.90229e-23
2.73458e-23
-2.01261e-23
3.17211e-24
-9.96562e-24
6.13166e-23
-5.57749e-24
9.87459e-23
-4.97693e-24
8.00025e-23
-1.7773e-23
4.69079e-23
-4.70602e-24
-2.06661e-24
-7.30036e-24
1.03142e-25
-2.18595e-23
-5.01381e-23
-1.89602e-23
-1.88503e-23
-1.42166e-23
-2.95432e-23
5.76478e-25
-4.58371e-23
-6.70597e-24
-3.05966e-23
1.73678e-23
-1.38644e-23
-1.92311e-23
-7.85762e-23
-3.4575e-23
-2.17147e-23
-3.71571e-23
-1.26758e-23
-3.32326e-23
4.83205e-23
3.96963e-24
7.2207e-23
2.22146e-25
4.16989e-23
-8.45384e-24
6.59488e-24
-2.22109e-23
5.26112e-23
-2.35302e-23
-2.72754e-23
2.28122e-24
-9.79149e-24
-4.01584e-23
-5.53765e-23
-1.18396e-22
-1.53924e-23
-1.31821e-22
-8.95929e-24
-9.15637e-23
7.95706e-23
-1.15212e-22
5.14543e-23
-1.35585e-22
3.2146e-23
-1.46694e-22
2.29997e-23
-1.49517e-22
6.63279e-23
-1.86083e-22
-1.89711e-22
-1.085e-22
-1.20135e-23
9.06763e-23
2.23097e-23
-1.34229e-23
5.38417e-23
-9.13855e-24
6.0565e-23
-7.12758e-24
1.02295e-22
-9.23013e-24
4.74038e-23
-2.08332e-23
2.50044e-23
-4.46628e-24
2.10324e-23
-1.7802e-23
-2.44974e-23
-1.83262e-23
-4.80981e-23
-1.85682e-23
-2.34208e-23
-1.71493e-23
1.10542e-23
5.528e-24
3.51442e-23
-3.63318e-24
-1.64195e-23
4.9607e-24
-1.88559e-23
-1.11915e-23
-7.07038e-23
-3.02555e-23
-1.52134e-23
-3.22957e-23
-1.56827e-23
-2.81757e-23
4.46572e-23
-9.44993e-24
3.7861e-23
-2.6915e-24
2.57294e-23
-1.78703e-24
-8.02289e-24
-3.39756e-23
-1.88675e-23
-2.04346e-23
1.76775e-23
-8.67195e-24
-1.45696e-23
-3.14923e-23
-2.42141e-23
-1.19686e-22
-2.19049e-23
-1.16752e-22
-1.26103e-23
-9.52768e-23
1.36705e-22
-1.16262e-22
8.73326e-23
-1.39979e-22
6.40423e-23
-1.4099e-22
1.30844e-23
-1.9603e-22
1.14702e-22
-2.2819e-22
-4.1493e-23
-7.05425e-23
-1.2489e-23
8.8892e-23
2.06162e-23
-1.3018e-23
3.56771e-23
-5.75975e-24
5.7286e-23
-1.30421e-23
8.90315e-23
-1.52672e-23
5.28871e-23
-2.81043e-23
3.95639e-23
-1.91662e-23
1.86429e-23
-2.46331e-23
-1.92931e-23
-1.6378e-23
-3.88339e-23
-1.51679e-23
-2.70473e-23
-1.12875e-23
6.07354e-24
-1.2985e-24
-1.09441e-23
-6.16475e-24
-8.77602e-24
-3.98862e-24
-1.16671e-23
-9.27888e-24
-6.98941e-23
-2.80592e-23
-4.07316e-23
-2.39555e-23
-3.06367e-23
-2.86859e-23
-4.08774e-23
-1.08796e-23
-6.99562e-23
-4.79036e-24
1.69948e-23
-7.96408e-24
-2.50678e-23
-2.62965e-23
-9.61815e-24
-2.90108e-23
-6.91878e-23
-7.24615e-24
-4.47109e-23
-2.68354e-23
-8.11773e-24
-1.21549e-22
-1.09569e-22
-9.03323e-23
3.29305e-23
-1.04289e-22
7.14273e-23
-1.16852e-22
1.09353e-22
-1.53582e-22
3.44202e-23
-1.28247e-22
1.45998e-22
-2.26546e-22
1.05922e-22
-3.11439e-22
5.2645e-23
-1.03555e-23
-2.19427e-23
9.27325e-23
1.89777e-23
-1.7411e-23
4.31205e-23
-7.91562e-25
4.78585e-23
-2.04334e-23
7.64133e-23
-2.1337e-23
1.70268e-23
-2.59098e-23
3.95964e-23
-2.0717e-23
1.52798e-23
-2.3656e-23
-1.05209e-23
-1.62081e-23
-9.2718e-25
-7.96174e-24
-2.96582e-23
-1.34695e-23
-2.6102e-23
2.51177e-24
3.78077e-24
-7.45703e-24
-2.77189e-23
-6.01069e-24
-1.54943e-23
-6.93529e-24
-7.41438e-23
-2.26202e-23
-3.2695e-23
-2.8966e-23
-3.45357e-23
-3.41861e-23
-2.93225e-23
6.63093e-25
-4.44268e-24
-1.24915e-23
2.32323e-23
-5.15723e-24
-3.34047e-23
-3.30296e-23
-7.04103e-23
-2.99021e-23
9.27849e-24
1.92829e-24
1.31968e-23
-4.21556e-23
-5.11708e-23
-9.9499e-23
-5.17732e-23
-8.67102e-23
8.78842e-23
-9.47237e-23
7.85698e-23
-1.27793e-22
6.30651e-23
-1.36456e-22
4.56019e-23
-1.40765e-22
1.42673e-22
-2.35632e-22
9.09124e-23
-3.44497e-22
1.57557e-22
3.48357e-22
-2.16575e-23
6.58267e-23
1.61409e-23
-1.64811e-23
4.88715e-23
-1.3607e-24
6.2858e-23
-2.24533e-23
6.99164e-23
-1.93385e-23
1.48348e-23
-2.97573e-23
4.30267e-23
-2.18973e-23
1.67848e-23
-2.00408e-23
-1.06621e-24
-2.57246e-23
7.92824e-24
-7.90057e-24
-3.64956e-23
-8.01241e-24
2.0821e-23
-1.81947e-24
-3.85842e-24
-8.17069e-24
-2.0611e-23
-9.06441e-24
-8.52854e-24
-6.84145e-24
-7.36735e-23
-1.75386e-23
-3.42545e-23
-2.73267e-23
-2.1417e-23
-3.02766e-23
5.53272e-23
5.33216e-24
5.29324e-23
-1.78415e-23
4.73807e-23
-1.29682e-23
-4.60508e-23
-2.27164e-23
-8.86896e-23
-2.88097e-23
-7.59492e-23
-5.57883e-24
6.90621e-23
-4.03844e-23
-2.44782e-23
-8.11733e-23
-1.81663e-23
-8.85449e-23
9.78773e-23
-9.34694e-23
8.36093e-23
-1.29797e-22
9.65057e-23
-1.21716e-22
1.37345e-22
-1.49125e-22
1.60191e-22
-2.19724e-22
1.53124e-22
-3.30277e-22
2.74885e-22
4.61208e-22
-2.63363e-23
5.2824e-23
9.18694e-24
-1.38791e-23
7.9622e-23
-3.72204e-24
5.54157e-23
-3.2449e-23
9.55374e-24
-1.91452e-23
3.91661e-23
-3.54101e-23
1.71222e-23
-2.37469e-23
3.76369e-24
-2.50143e-23
1.26295e-23
-2.78489e-23
1.54207e-23
-5.94719e-24
3.6876e-23
-8.71744e-24
6.27017e-23
-9.10185e-24
-4.7233e-23
-7.98765e-24
-1.94327e-23
-1.3975e-23
-8.33505e-24
2.88911e-25
-1.25622e-24
-2.23521e-23
-6.09119e-24
-1.52641e-23
-2.7803e-23
-2.88202e-23
-5.93476e-24
7.03744e-24
2.30561e-23
-3.22832e-23
-2.37103e-24
-1.66019e-23
2.59999e-23
-2.23407e-23
-1.01511e-22
-8.07472e-24
4.12226e-24
-2.1214e-23
-8.28521e-24
-3.40276e-23
-2.1551e-23
-6.9007e-23
-3.51722e-23
-8.88631e-23
3.11168e-23
-9.32015e-23
8.36266e-23
-1.21723e-22
1.17314e-22
-1.1956e-22
1.32044e-22
-1.44998e-22
1.83696e-22
-1.99891e-22
2.06408e-22
-2.49929e-22
3.42858e-22
4.61238e-22
-2.11503e-23
2.71851e-23
1.31729e-23
-2.18403e-23
7.20171e-23
-1.43842e-23
4.58448e-23
-2.77979e-23
2.32384e-23
-1.94286e-23
2.91451e-23
-3.71436e-23
3.3611e-23
-2.40069e-23
3.56846e-23
-2.56124e-23
6.05874e-23
-2.29231e-23
5.15507e-23
-7.05993e-24
6.943e-23
-2.49897e-23
8.52957e-23
-7.72786e-24
-2.95421e-23
-6.70606e-24
-1.74406e-23
-1.05904e-23
-1.2325e-23
-1.5549e-24
-9.00916e-24
-2.30871e-23
1.41018e-23
-1.32786e-23
4.89305e-23
-2.48996e-23
4.33798e-23
2.40951e-24
8.56638e-23
-3.00988e-23
3.68604e-23
-3.23588e-23
2.03725e-23
-7.69862e-24
-8.53566e-25
-1.03241e-23
1.43061e-24
-2.10791e-23
-9.45448e-25
-3.3031e-23
9.45537e-24
-6.47792e-23
-9.36407e-24
-7.90424e-23
5.4737e-23
-8.85785e-23
7.57124e-23
-1.20645e-22
1.05752e-22
-1.11318e-22
2.10656e-22
-1.37703e-22
2.01367e-22
-1.83407e-22
2.5303e-22
-1.88347e-22
4.62248e-22
4.81278e-22
-1.62966e-23
2.85628e-23
1.90218e-23
-2.29889e-23
6.97897e-23
-1.56453e-23
7.282e-23
-2.63983e-23
3.03114e-23
-2.2199e-23
2.595e-23
-3.32186e-23
-2.76093e-24
-2.05592e-23
2.46862e-23
-2.07618e-23
3.25761e-23
-2.17466e-23
5.96725e-23
3.1249e-24
8.55364e-23
-3.71584e-23
4.26617e-23
-4.80448e-24
3.44261e-23
-6.69835e-24
2.09626e-23
-9.92014e-24
-1.0972e-23
3.02735e-24
-2.28891e-23
-1.68961e-23
3.6163e-23
-1.53132e-23
4.26255e-23
-1.8563e-23
4.15332e-23
-3.1341e-24
6.98887e-23
-3.18047e-23
-8.04999e-24
-3.11275e-23
1.40059e-23
-1.12529e-23
-3.07781e-23
-1.14494e-23
-1.52589e-24
-1.83746e-23
1.79794e-24
-3.40363e-23
1.86144e-23
-6.0021e-23
1.485e-23
-7.4486e-23
5.16486e-23
-8.26384e-23
7.10575e-23
-1.07218e-22
1.19477e-22
-1.09675e-22
2.05147e-22
-1.28857e-22
2.15375e-22
-1.60447e-22
2.8872e-22
-1.61546e-22
4.70718e-22
4.16692e-22
-1.85554e-23
3.24161e-23
1.38836e-23
-2.40583e-23
3.86753e-23
-1.41595e-23
1.69896e-23
-2.18178e-23
6.92947e-23
-2.48291e-23
6.58903e-23
-3.02417e-23
3.04932e-23
-2.14006e-23
2.31609e-23
-1.93426e-23
4.18359e-23
-1.47097e-23
7.18827e-23
-8.55067e-24
8.71692e-23
-3.43958e-23
4.21276e-25
-1.12053e-23
5.15004e-23
-6.58038e-24
5.58515e-23
-1.44455e-23
-3.80135e-23
1.40299e-23
-1.12038e-23
-1.51279e-23
-6.4716e-23
-1.67684e-23
4.37567e-23
-1.24782e-23
3.624e-23
-1.56133e-23
-2.06687e-23
-2.92019e-23
7.76285e-24
-3.60898e-23
1.51086e-23
-9.46717e-24
-6.94286e-23
-1.03136e-23
-5.479e-24
-1.40284e-23
1.36115e-24
-3.52088e-23
3.80735e-23
-5.58628e-23
3.59471e-23
-7.32059e-23
5.7315e-23
-7.22946e-23
1.55264e-22
-1.00793e-22
1.40938e-22
-1.03186e-22
1.99456e-22
-1.17799e-22
2.24114e-22
-1.41957e-22
3.24783e-22
-1.47287e-22
4.35592e-22
4.392e-22
-1.56622e-23
7.18656e-25
1.09094e-23
-2.40261e-23
4.54761e-23
-1.60814e-23
4.98709e-23
-2.29862e-23
7.42263e-23
-2.06799e-23
2.91664e-23
-3.25458e-23
3.28007e-23
-1.86925e-23
1.01962e-22
-1.36327e-23
6.31542e-23
-1.7269e-23
1.27047e-22
-1.55654e-23
5.5843e-23
-3.01707e-23
1.4658e-23
-8.77702e-24
7.10566e-23
-1.72313e-23
6.74006e-23
-1.28251e-23
-3.61465e-23
1.14682e-23
8.39633e-25
-7.59928e-24
-1.50607e-23
-1.4107e-23
4.08738e-23
-1.99989e-23
4.00021e-23
-1.2091e-23
-2.76179e-23
-2.6649e-23
2.10187e-23
-4.64546e-23
-6.52122e-23
-6.67715e-25
1.20063e-23
-1.14709e-23
-9.03167e-25
-6.99015e-24
-1.69218e-24
-3.66234e-23
-7.85398e-23
-5.18213e-23
4.92102e-23
-6.3552e-23
5.97296e-23
-6.91108e-23
1.49633e-22
-9.92509e-23
6.96935e-23
-9.45328e-23
2.77968e-22
-1.06949e-22
2.33031e-22
-1.32856e-22
3.60753e-22
-1.33337e-22
4.48691e-22
-1.32205e-22
4.48325e-22
8.96283e-22
-1.03711e-23
8.63273e-24
9.35708e-24
-2.48167e-23
2.04456e-23
-1.1077e-23
3.26374e-23
-2.36947e-23
4.41822e-23
-2.15514e-23
6.45667e-23
-3.06066e-23
3.39603e-23
-2.6435e-23
9.43993e-23
-5.26775e-24
8.70108e-23
-3.18518e-23
2.92435e-23
-1.85075e-23
4.52847e-23
-2.55809e-23
1.86377e-23
-7.26827e-24
5.98729e-23
-2.90225e-23
1.05915e-23
-8.73444e-24
-6.51626e-24
8.53414e-24
2.90597e-23
-2.54251e-24
-4.36952e-23
-1.49873e-23
-4.27644e-23
-2.92394e-23
-4.11538e-23
-3.0912e-24
-1.01255e-23
-3.56859e-23
4.84785e-23
-4.03058e-23
2.61443e-23
-1.57034e-24
1.04026e-22
-1.09253e-23
6.20923e-24
-1.34478e-23
-1.16255e-24
-2.53025e-23
-6.42246e-23
-5.08304e-23
-1.34863e-23
-5.35519e-23
2.87366e-23
-7.406e-23
7.1802e-23
-7.88885e-23
6.62944e-23
-9.64066e-23
2.03923e-22
-9.05862e-23
2.20296e-22
-1.24357e-22
3.08988e-22
-1.18587e-22
4.43595e-22
-1.10889e-22
4.81927e-22
8.31294e-22
-7.78467e-24
4.44712e-23
1.19953e-23
-2.35553e-23
3.23424e-23
-1.35555e-23
2.24729e-23
-2.43356e-23
5.06583e-23
-2.38874e-23
6.0048e-23
-2.12227e-23
2.5197e-23
-2.85735e-23
5.76884e-23
-7.91554e-24
6.64492e-23
-2.79116e-23
6.04818e-23
-1.76394e-23
7.29151e-23
-2.39668e-23
3.02997e-23
-1.47409e-23
5.49246e-23
-2.89798e-23
-3.04603e-24
-7.89798e-24
6.99357e-23
4.50375e-24
6.2059e-23
-2.50217e-24
-3.89063e-23
-1.27383e-23
-3.77009e-23
-2.79101e-23
-2.94657e-23
2.22719e-24
3.53144e-23
-3.44044e-23
-8.13806e-24
-3.29452e-23
2.04389e-23
-1.10024e-23
1.59382e-22
-1.47835e-23
1.06431e-23
-1.79414e-23
-1.83948e-23
-2.17195e-23
-5.89376e-23
-4.29294e-23
7.20698e-24
-5.21714e-23
4.2279e-23
-6.75951e-23
7.93249e-23
-6.7716e-23
5.74181e-23
-8.91223e-23
2.23658e-22
-8.2751e-23
2.07605e-22
-1.13815e-22
2.4315e-22
-1.04849e-22
4.27476e-22
-9.58161e-23
4.25143e-22
-5.36272e-24
3.48919e-23
8.84629e-24
-2.22209e-23
5.00653e-23
-1.05084e-23
1.48624e-23
-2.45319e-23
5.50321e-23
-2.21738e-23
6.0225e-23
-2.06112e-23
2.57106e-23
-2.66014e-23
5.10853e-23
-1.09762e-23
1.43462e-22
-2.30715e-23
7.92476e-23
-1.9109e-23
7.46372e-23
-2.38585e-23
1.59996e-24
-1.97741e-23
5.55511e-23
-1.87304e-23
2.88314e-23
-1.25376e-23
4.19235e-23
-3.42136e-24
5.54051e-23
-7.13797e-24
2.72702e-24
-1.08203e-23
5.62632e-25
-2.1617e-23
-2.1849e-23
-1.87894e-24
2.21963e-23
-3.1019e-23
2.53971e-23
-2.09998e-23
1.28132e-23
-2.43536e-23
6.45658e-23
-1.91213e-23
4.00701e-24
-1.87908e-23
-1.68887e-23
-1.94792e-23
-1.8765e-23
-3.83347e-23
2.42236e-23
-4.98828e-23
5.77746e-23
-6.53246e-23
8.24633e-23
-5.71988e-23
4.15096e-23
-8.37659e-23
1.56624e-22
-7.68857e-23
1.97183e-22
-9.3782e-23
2.55356e-22
-9.32794e-23
4.20602e-22
3.62057e-22
-1.96178e-24
2.88967e-23
4.51803e-24
-2.73341e-23
3.77114e-23
-4.46145e-24
3.76627e-23
-2.48275e-23
3.18226e-23
-2.35226e-23
5.26911e-23
-1.6642e-23
1.30051e-23
-1.3864e-23
3.86749e-23
-1.93374e-23
1.16141e-22
-2.87514e-23
5.62713e-23
-2.31108e-23
7.33483e-23
-2.17755e-23
3.4493e-23
-2.04011e-23
5.42687e-23
-1.78366e-23
2.09709e-23
-1.09955e-23
4.13954e-23
-6.69086e-24
5.03466e-23
-7.51977e-24
-4.29534e-24
-9.79104e-24
3.18651e-23
-2.10635e-23
-1.1303e-23
1.97202e-26
3.58358e-24
-3.31582e-23
-6.91481e-23
-1.76224e-23
1.11496e-24
-2.93688e-23
-1.80103e-23
-2.31643e-23
8.28155e-25
-1.6638e-23
-2.2695e-23
-1.55045e-23
-2.24582e-23
-3.55823e-23
4.00469e-23
-4.68371e-23
6.99051e-23
-6.68043e-23
9.23914e-23
-4.78335e-23
1.05756e-22
-7.75725e-23
1.0843e-22
-7.09997e-23
1.83118e-22
-8.00151e-23
2.21645e-22
-9.03772e-23
3.24158e-22
3.3693e-22
2.34618e-24
4.48781e-23
6.50975e-24
-2.61732e-23
-1.59037e-23
-1.00723e-23
2.03363e-23
-2.46387e-23
3.98644e-23
-2.6972e-23
4.73492e-23
-1.28888e-23
8.10646e-23
-1.54983e-23
3.72573e-23
-2.24669e-23
1.07745e-22
-2.71062e-23
6.04297e-23
-2.42651e-23
7.4784e-23
-2.16293e-23
2.57298e-23
-2.2865e-23
5.68095e-23
-1.69353e-23
1.06602e-23
-1.41325e-23
5.85713e-24
-9.42239e-24
2.2492e-24
-6.00988e-24
-1.24328e-23
-1.28552e-23
2.36516e-24
-1.76817e-23
-1.42742e-23
-6.46184e-24
1.85256e-23
-2.56681e-23
-3.93949e-23
-2.03551e-23
-2.50197e-23
-2.50601e-23
-8.37489e-24
-2.57995e-23
6.2533e-24
-1.63265e-23
4.49927e-23
-8.98673e-24
5.72297e-23
-3.63236e-23
-2.629e-23
-4.28626e-23
7.68818e-23
-6.52906e-23
2.0207e-23
-4.80862e-23
8.71452e-23
-6.98204e-23
1.31041e-22
-6.44199e-23
1.74699e-22
-7.63209e-23
2.25074e-22
-8.21661e-23
3.16612e-22
3.16892e-22
-4.31507e-24
3.43453e-23
5.45349e-24
-2.47434e-23
2.38696e-24
-8.47793e-24
8.54033e-23
-2.05906e-23
4.66877e-23
-2.60932e-23
6.56072e-23
-1.63516e-23
1.09566e-22
-1.36761e-23
3.22243e-23
-2.37407e-23
1.12214e-22
-2.77484e-23
9.98619e-23
-2.64315e-23
7.96522e-23
-1.89425e-23
1.67306e-23
-2.57906e-23
3.01323e-23
-1.48543e-23
7.62353e-23
-1.76263e-23
4.44029e-23
-9.08148e-24
-1.09663e-23
-5.8708e-24
-1.87221e-23
-1.12468e-23
-2.72005e-23
-1.73424e-23
-1.9503e-23
-1.07185e-23
-3.15552e-23
-2.48183e-23
-1.84959e-23
-1.90945e-23
7.06966e-23
-2.3195e-23
8.73114e-24
-2.25151e-23
7.96822e-24
-1.61875e-23
3.57694e-23
-1.3917e-23
5.97417e-23
-2.84376e-23
-1.12625e-23
-4.65369e-23
8.94078e-23
-5.90248e-23
2.97151e-23
-4.56553e-23
6.94859e-23
-6.34813e-23
5.43251e-23
-6.05927e-23
1.7348e-22
-6.72619e-23
2.27953e-22
-7.61611e-23
2.80798e-22
-9.80051e-24
2.77802e-23
5.83863e-24
-1.69856e-23
8.55504e-24
-1.0347e-23
4.27327e-23
-2.23558e-23
1.14947e-23
-1.89031e-23
1.77e-23
-1.90512e-23
7.18193e-23
-8.59594e-24
4.81926e-23
-2.5283e-23
2.81021e-23
-2.87062e-23
5.91304e-23
-2.63495e-23
8.00826e-23
-2.26755e-23
2.0037e-23
-2.1456e-23
2.50532e-23
-2.15073e-23
6.84448e-23
-2.14108e-23
4.05087e-23
-8.51186e-24
5.55634e-23
-7.29885e-24
1.52019e-23
-1.09693e-23
5.96114e-24
-1.94945e-23
-1.98204e-23
-9.14343e-24
-8.59147e-24
-1.7736e-23
-3.68549e-24
-2.37833e-23
3.96374e-23
-2.2301e-23
2.61057e-23
-1.96276e-23
1.86593e-23
-1.63415e-23
3.74718e-23
-1.84074e-23
6.68563e-23
-2.1716e-23
-2.7998e-24
-5.09804e-23
2.39841e-23
-5.51227e-23
3.11021e-23
-4.51098e-23
6.24013e-23
-5.34753e-23
6.24053e-23
-5.35174e-23
1.35811e-22
-6.47444e-23
2.00609e-22
2.86603e-22
-1.03392e-23
-7.00574e-24
6.34127e-24
-1.41786e-23
1.32889e-23
-1.04088e-23
2.15285e-23
-2.17978e-23
1.34814e-23
-1.94593e-23
7.23732e-24
-1.60217e-23
5.29884e-23
-1.61335e-23
2.11468e-23
-2.12761e-23
-3.92868e-24
-2.92959e-23
3.09852e-23
-2.80852e-23
7.79917e-23
-2.32119e-23
2.31859e-23
-2.04304e-23
1.83089e-23
-2.65373e-23
2.42243e-23
-1.95675e-23
3.35982e-23
-1.25777e-23
9.71501e-24
-9.10432e-24
9.9699e-24
-1.10395e-23
6.9547e-24
-1.80989e-23
1.46884e-23
-6.57062e-24
2.12668e-23
-1.67634e-23
1.66423e-23
-2.31837e-23
1.07074e-23
-2.33858e-23
4.16418e-23
-1.7385e-23
2.51991e-23
-1.629e-23
3.64788e-23
-2.12934e-23
7.17605e-23
-2.18104e-23
6.12757e-24
-4.87999e-23
-4.10703e-23
-5.39527e-23
3.29795e-23
-4.42472e-23
8.87268e-23
-4.61979e-23
1.0595e-22
-4.64215e-23
1.29852e-22
-5.70965e-23
1.77199e-22
-9.0726e-24
-3.94968e-23
7.06905e-24
-1.42224e-23
-1.06358e-25
-1.512e-23
1.71693e-23
-2.0159e-23
-3.4765e-23
-1.39269e-23
-6.5089e-24
-1.83153e-23
-2.72886e-23
-1.71029e-23
3.21661e-23
-1.6985e-23
4.03325e-23
-2.73001e-23
-1.47129e-24
-3.33652e-23
5.16164e-23
-2.41114e-23
2.33597e-23
-1.99078e-23
1.50895e-23
-2.33022e-23
1.88033e-23
-2.10928e-23
3.10265e-23
-1.09604e-23
4.0549e-23
-9.27957e-24
7.58772e-24
-1.23425e-23
4.42279e-23
-1.54973e-23
1.01409e-23
-6.58219e-24
1.78459e-23
-1.6757e-23
-2.52618e-24
-1.98204e-23
2.62675e-23
-2.46341e-23
2.63743e-23
-1.64307e-23
2.74469e-23
-1.55142e-23
3.90842e-23
-2.38289e-23
8.27076e-23
-2.70981e-23
4.90873e-23
-4.1914e-23
8.84881e-24
-5.13644e-23
4.93405e-23
-4.16088e-23
8.19262e-23
-4.48728e-23
5.8181e-23
-4.27726e-23
1.19022e-22
1.45684e-22
-9.55143e-24
-3.96697e-23
8.28666e-24
-1.31394e-23
4.60484e-24
-1.38184e-23
1.72853e-23
-1.58111e-23
9.82652e-23
-1.7001e-23
2.97074e-23
-1.63856e-23
7.39304e-24
-1.67612e-23
-2.88207e-23
-1.79298e-23
7.31231e-24
-2.26409e-23
-3.86015e-23
-3.51271e-23
1.65871e-23
-2.23803e-23
5.73847e-23
-2.03677e-23
1.42094e-23
-2.05445e-23
1.18295e-23
-1.85306e-23
2.07516e-23
-1.46448e-23
2.88504e-23
-5.88634e-24
4.06328e-23
-1.47812e-23
2.53702e-23
-1.50918e-23
3.89285e-23
-8.66937e-24
1.29903e-23
-1.48255e-23
1.4366e-23
-1.94093e-23
2.97552e-24
-2.34892e-23
3.67704e-24
-1.4933e-23
3.15925e-23
-1.44892e-23
4.46961e-23
-2.49912e-23
5.84059e-23
-3.07312e-23
5.52079e-23
-3.90009e-23
1.94804e-23
-4.8396e-23
2.3868e-23
-4.32345e-23
7.40849e-23
-4.02917e-23
7.69958e-23
-3.90707e-23
6.25374e-23
1.59126e-22
-9.31498e-24
-5.64423e-23
1.38373e-23
-1.16027e-23
6.33636e-24
-9.18309e-24
9.8115e-24
-1.86043e-23
5.36766e-23
-1.79521e-23
2.08617e-23
-1.92171e-23
4.68774e-23
-1.33562e-23
1.94089e-23
-2.53158e-23
2.33974e-23
-2.3534e-23
-4.1736e-23
-2.98467e-23
8.98366e-24
-2.55366e-23
5.46317e-23
-1.73177e-23
3.98239e-23
-2.16733e-23
2.10006e-23
-2.01945e-23
1.8111e-23
-9.35057e-24
1.565e-23
-8.2647e-24
-4.46419e-25
-1.1938e-23
4.43473e-23
-1.64441e-23
3.81765e-23
-6.87423e-24
3.87435e-23
-1.56267e-23
3.00377e-23
-1.96192e-23
1.25804e-23
-2.14682e-23
3.24807e-23
-1.42664e-23
3.42048e-23
-1.49712e-23
5.08919e-23
-2.4058e-23
7.57304e-23
-3.24481e-23
2.18156e-23
-4.02797e-23
2.57533e-23
-4.45955e-23
5.5696e-23
-4.17342e-23
6.44228e-23
-4.17094e-23
4.04045e-23
-3.10711e-23
8.86796e-23
1.23399e-22
-1.13895e-23
-3.79463e-23
2.15537e-23
-4.78761e-24
6.97966e-23
-6.46909e-24
1.08136e-23
-2.22143e-23
6.28928e-23
-1.72471e-23
-2.95336e-23
-1.58315e-23
4.18386e-23
-1.10186e-23
2.59207e-23
-2.5513e-23
4.34431e-23
-2.17494e-23
-9.80204e-24
-2.55255e-23
9.64874e-25
-2.78389e-23
1.74125e-23
-1.9663e-23
7.14769e-23
-2.26081e-23
3.15051e-23
-1.96817e-23
1.61184e-23
-1.26246e-23
6.53702e-24
-3.72041e-24
-9.05852e-24
-1.12132e-23
2.23328e-23
-1.53426e-23
4.45083e-23
-8.87602e-24
3.65758e-23
-1.73542e-23
4.55662e-23
-1.80931e-23
5.67791e-23
-2.13438e-23
1.1787e-23
-1.25902e-23
-2.63182e-24
-1.38903e-23
6.29325e-23
-2.67243e-23
4.97855e-23
-3.21751e-23
3.1515e-23
-3.96377e-23
3.50694e-23
-4.38688e-23
4.72712e-23
-4.24399e-23
5.94984e-23
-3.75358e-23
1.1378e-22
-2.70172e-23
1.12051e-22
1.28249e-22
-5.7568e-24
-1.90739e-23
2.46582e-23
-3.76535e-24
1.96728e-22
-2.71558e-24
4.9067e-23
-2.78486e-23
-5.865e-24
-1.47456e-23
3.33046e-23
-1.78521e-23
4.39484e-23
-9.67151e-24
2.8147e-23
-3.29524e-23
-1.20026e-23
-1.62053e-23
2.20298e-24
-2.42147e-23
-3.36127e-23
-2.39283e-23
1.63199e-23
-2.27103e-23
7.72294e-23
-2.37542e-23
4.19933e-23
-1.96626e-23
1.05476e-23
-1.05357e-23
3.84356e-23
-5.79873e-24
-1.98159e-23
-8.77953e-24
3.30054e-23
-1.78251e-23
-1.44419e-23
-8.6668e-24
3.14546e-23
-1.52065e-23
6.01664e-23
-2.08973e-23
2.58741e-23
-2.30656e-23
2.28271e-23
-7.41882e-24
3.87903e-23
-1.65145e-23
-5.24264e-24
-2.72072e-23
2.25993e-23
-3.22432e-23
-5.49595e-24
-3.81497e-23
3.73831e-23
-4.41066e-23
4.6777e-23
-3.8547e-23
5.76838e-23
-3.84663e-23
5.7826e-23
-2.22716e-23
9.06941e-23
1.30838e-22
4.36559e-24
4.35473e-23
2.73614e-23
-9.4248e-24
1.14251e-22
-6.88128e-24
4.77169e-23
-2.59539e-23
4.8799e-23
-1.06384e-23
8.33576e-23
-1.91375e-23
1.50915e-23
-1.11912e-23
3.06047e-23
-3.06154e-23
8.08729e-24
-1.77567e-23
-8.99382e-24
-2.33403e-23
-7.51416e-23
-1.92519e-23
8.93658e-24
-2.22985e-23
8.59131e-23
-2.70132e-23
5.04017e-23
-1.92738e-23
6.88769e-26
-1.15208e-23
3.94865e-23
-5.71762e-24
-6.8724e-23
-7.99087e-24
3.25938e-23
-1.73451e-23
-3.78738e-23
-5.79889e-24
1.00912e-22
-1.72722e-23
4.18025e-23
-2.07164e-23
4.13239e-23
-2.27191e-23
3.31627e-23
-9.00162e-24
7.6086e-23
-1.52209e-23
5.03279e-24
-2.84978e-23
3.95488e-23
-3.05311e-23
3.68081e-23
-3.75053e-23
4.55884e-23
-4.51782e-23
6.59984e-24
-3.58279e-23
8.21021e-23
-3.66014e-23
5.67895e-23
-1.78337e-23
1.17598e-22
8.91425e-23
3.32803e-24
1.42981e-22
2.59982e-23
-1.06049e-23
8.02707e-23
-7.94094e-24
5.22579e-23
-2.16074e-23
5.80154e-23
-1.6798e-23
2.99327e-23
-2.06883e-23
-9.25244e-24
-1.17045e-23
8.4706e-24
-3.04275e-23
-1.04261e-22
-2.16105e-23
-1.52105e-23
-1.91918e-23
-4.10801e-23
-1.59367e-23
-2.4852e-23
-2.74963e-23
-3.2555e-23
-2.43286e-23
4.12917e-23
-2.04461e-23
5.06036e-24
-1.53932e-23
4.37236e-24
-3.15512e-24
-7.34324e-23
-9.39105e-24
3.36295e-23
-1.05889e-23
-2.76363e-23
-7.01157e-24
7.51383e-23
-1.61929e-23
5.31198e-23
-2.10698e-23
1.95151e-23
-2.07995e-23
4.05683e-23
-1.26108e-23
7.83404e-23
-1.41204e-23
1.12259e-23
-2.83331e-23
2.18172e-23
-3.01421e-23
3.18198e-23
-3.88457e-23
5.22361e-23
-4.20614e-23
5.99217e-24
-3.54956e-23
1.69576e-22
-3.51476e-23
9.82053e-23
-1.72693e-23
1.55504e-22
1.27379e-22
2.94463e-24
7.41514e-23
2.41817e-23
-1.2962e-23
4.5843e-23
-5.75183e-24
6.84775e-23
-2.34282e-23
2.77446e-23
-1.72436e-23
5.38895e-23
-2.46533e-23
3.53344e-23
-1.54949e-23
9.67733e-24
-2.62633e-23
-8.01918e-23
-2.16621e-23
-1.07985e-23
-1.85645e-23
-4.29846e-23
-1.79326e-23
-5.58513e-23
-2.22536e-23
-2.19661e-23
-2.35204e-23
-2.5878e-23
-2.24592e-23
-6.589e-23
-1.65097e-23
-2.98955e-23
6.40776e-25
-3.91157e-23
-1.19364e-23
4.19903e-23
-5.20718e-24
5.37771e-24
-5.40897e-24
4.02542e-23
-1.81369e-23
3.24163e-23
-1.97845e-23
2.38238e-23
-1.99364e-23
4.64688e-23
-1.58134e-23
8.23687e-23
-1.42073e-23
1.19158e-23
-2.71438e-23
3.83057e-23
-2.95199e-23
6.78446e-23
-4.07043e-23
6.66582e-23
-3.48036e-23
7.88857e-23
-3.68641e-23
1.67293e-22
-3.39919e-23
1.04783e-22
-1.65904e-23
1.63778e-22
1.63011e-22
2.63588e-24
1.63046e-22
2.63254e-23
-1.29156e-23
5.93591e-24
-5.5044e-24
9.43513e-23
-2.37591e-23
4.12034e-23
-1.73734e-23
4.62425e-23
-2.75226e-23
9.56805e-24
-1.69489e-23
1.26639e-22
-2.5669e-23
-6.48403e-23
-1.81386e-23
-4.89816e-23
-2.20096e-23
-5.69872e-23
-1.5173e-23
-1.54063e-23
-2.34976e-23
-9.55366e-23
-2.46986e-23
-1.3544e-23
-2.2908e-23
-6.20687e-23
-1.54991e-23
1.54991e-23
2.94029e-24
-3.96122e-23
-1.06332e-23
2.06157e-23
-5.72979e-24
3.91865e-23
-3.55215e-24
7.95377e-23
-1.97215e-23
5.07132e-23
-1.81741e-23
1.87778e-23
-1.94942e-23
5.04404e-23
-1.78096e-23
7.75854e-23
-1.3638e-23
9.40998e-23
-2.58151e-23
8.79941e-23
-3.01948e-23
7.32207e-23
-3.80202e-23
7.72693e-23
-3.25287e-23
6.65524e-23
-3.78193e-23
1.70178e-22
-3.22327e-23
1.13872e-22
-1.4856e-23
1.48867e-22
1.61248e-22
-5.4406e-24
1.56131e-22
2.25304e-23
-8.26086e-24
8.45952e-23
-9.81982e-24
4.84422e-23
-2.12658e-23
1.79657e-23
-1.93956e-23
8.61214e-23
-2.3962e-23
-1.58898e-23
-2.33767e-23
9.48946e-23
-2.77324e-23
-1.82971e-23
-1.74922e-23
-2.21909e-23
-1.85649e-23
-4.38841e-23
-1.55187e-23
-4.17447e-24
-2.19634e-23
-4.74598e-23
-2.465e-23
-4.31121e-23
-1.93172e-23
-6.83647e-23
-1.44373e-23
1.87429e-23
4.91059e-24
-5.71384e-24
-7.85931e-24
-8.46403e-24
-7.12336e-24
3.86793e-23
-3.14032e-24
6.40314e-23
-2.07919e-23
-7.32604e-24
-1.47723e-23
1.02401e-23
-1.88733e-23
1.67091e-23
-1.58633e-23
7.34426e-23
-1.39378e-23
5.89589e-23
-2.69443e-23
9.90297e-23
-3.02049e-23
1.10652e-22
-3.6949e-23
7.95077e-23
-3.05045e-23
7.44588e-23
-3.93011e-23
1.35138e-22
-3.21337e-23
1.22332e-22
-1.325e-23
1.35899e-22
1.36796e-22
-4.27792e-24
1.72312e-22
2.28983e-23
-1.25209e-23
4.91921e-23
-9.72098e-24
4.47359e-23
-1.92079e-23
-9.04605e-25
-2.15823e-23
3.01419e-24
-1.92765e-23
3.4532e-23
-2.95996e-23
7.03823e-23
-2.79823e-23
-1.82736e-23
-1.71205e-23
2.43568e-24
-1.65304e-23
-3.18669e-23
-1.81758e-23
5.29096e-24
-2.27204e-23
-3.47826e-23
-2.38442e-23
-2.42238e-23
-1.37048e-23
3.68735e-24
-1.49712e-23
-8.7018e-25
3.89239e-24
1.81763e-23
-4.53926e-24
6.19122e-25
-5.75297e-24
3.28234e-23
-4.49116e-24
7.52727e-23
-2.03119e-23
-2.78492e-23
-1.42955e-23
8.52979e-23
-1.66099e-23
1.53381e-23
-1.71197e-23
3.39598e-23
-1.15484e-23
5.50882e-23
-2.71713e-23
6.28834e-23
-3.15115e-23
1.13163e-22
-3.56912e-23
8.08952e-23
-2.93541e-23
6.79669e-23
-3.83938e-23
9.32364e-23
-3.18917e-23
1.32506e-22
-1.30473e-23
1.61223e-22
1.83427e-22
-7.8175e-24
1.91234e-22
2.16319e-23
-1.36391e-23
4.9749e-24
-8.91217e-24
8.09338e-23
-2.18626e-23
1.8924e-23
-2.0368e-23
4.28031e-23
-1.9891e-23
-1.65959e-24
-3.03683e-23
4.88949e-23
-2.78992e-23
7.08766e-23
-1.61203e-23
7.89314e-23
-1.73144e-23
7.36262e-23
-1.4223e-23
8.56507e-23
-2.36924e-23
3.98453e-23
-1.93166e-23
5.98048e-23
-1.55262e-23
-6.2365e-24
-1.57599e-23
-8.30293e-25
2.74927e-24
7.66285e-24
-1.60376e-24
-2.52725e-23
-4.99117e-24
2.77771e-23
-7.67014e-24
5.6878e-23
-1.7477e-23
-2.25093e-23
-1.65027e-23
4.47814e-23
-1.50725e-23
8.56867e-24
-1.63582e-23
-5.98685e-24
-1.08952e-23
4.93305e-23
-2.5034e-23
6.89406e-23
-3.32054e-23
8.51762e-23
-3.52402e-23
8.14686e-23
-3.00904e-23
5.2492e-23
-3.52408e-23
8.87567e-23
-3.02269e-23
1.76124e-22
-1.25819e-23
1.8407e-22
2.51736e-22
-1.14561e-23