/*--------------------------------*- C++ -*----------------------------------*\
  =========                 |
  \\      /  F ield         | OpenFOAM: The Open Source CFD Toolbox
   \\    /   O peration     | Website:  https://openfoam.org
    \\  /    A nd           | Version:  7
     \\/     M anipulation  |
\*---------------------------------------------------------------------------*/
FoamFile
{
    version     2.0;
    format      ascii;
    class       volScalarField;
    location    "204000";
    object      nut;
}
// * * * * * * * * * * * * * * * * * * * * * * * * * * * * * * * * * * * * * //

dimensions      [0 2 -1 0 0 0 0];

internalField   nonuniform List<scalar> 
4814
(
4.67718e-06
4.69987e-06
4.72046e-06
4.73889e-06
4.01636e-06
4.06104e-06
4.10383e-06
4.14542e-06
4.18579e-06
4.22488e-06
4.26261e-06
4.29891e-06
4.3337e-06
4.3669e-06
4.39843e-06
4.42822e-06
4.45619e-06
4.48229e-06
4.50645e-06
4.52861e-06
4.54872e-06
4.56671e-06
4.58256e-06
4.59622e-06
4.60765e-06
4.61683e-06
4.62374e-06
4.62835e-06
4.63066e-06
4.63066e-06
4.62835e-06
4.62374e-06
4.61683e-06
4.60765e-06
4.59622e-06
4.58256e-06
4.56671e-06
4.54872e-06
3.85966e-06
3.90314e-06
3.94482e-06
3.98533e-06
4.02467e-06
4.06276e-06
4.09954e-06
4.13492e-06
4.16884e-06
4.20122e-06
4.23196e-06
4.26101e-06
4.2883e-06
4.31377e-06
4.33734e-06
4.35896e-06
4.37858e-06
4.39614e-06
4.41161e-06
4.42494e-06
4.4361e-06
4.44506e-06
4.45179e-06
4.4563e-06
4.45855e-06
4.45855e-06
4.4563e-06
4.45179e-06
4.44506e-06
4.4361e-06
4.42494e-06
4.41161e-06
4.39614e-06
4.37858e-06
4.35896e-06
4.33734e-06
4.31377e-06
4.2883e-06
4.26101e-06
4.23196e-06
4.20121e-06
3.70473e-06
3.74701e-06
3.78756e-06
3.827e-06
3.86528e-06
3.90237e-06
3.93819e-06
3.97266e-06
4.0057e-06
4.03724e-06
4.06719e-06
4.0955e-06
4.1221e-06
4.14692e-06
4.1699e-06
4.19097e-06
4.2101e-06
4.22723e-06
4.24231e-06
4.25531e-06
4.26619e-06
4.27493e-06
4.2815e-06
4.28589e-06
4.28808e-06
4.28808e-06
4.28589e-06
4.2815e-06
4.27493e-06
4.26619e-06
4.25531e-06
4.24231e-06
4.22723e-06
4.2101e-06
4.19097e-06
4.1699e-06
4.14692e-06
4.1221e-06
4.0955e-06
4.06719e-06
4.03723e-06
4.0057e-06
3.97266e-06
3.93819e-06
3.55164e-06
3.59272e-06
3.63214e-06
3.67047e-06
3.70771e-06
3.74378e-06
3.77863e-06
3.81217e-06
3.84433e-06
3.87502e-06
3.90418e-06
3.93175e-06
3.95764e-06
3.98181e-06
4.00419e-06
4.02472e-06
4.04335e-06
4.06003e-06
4.07473e-06
4.08739e-06
4.09799e-06
4.1065e-06
4.1129e-06
4.11718e-06
4.11932e-06
4.11932e-06
4.11718e-06
4.1129e-06
4.1065e-06
4.09799e-06
4.08739e-06
4.07472e-06
4.06003e-06
4.04335e-06
4.02472e-06
4.00419e-06
3.98181e-06
3.95764e-06
3.93175e-06
3.90418e-06
3.87502e-06
3.84433e-06
3.81217e-06
3.77863e-06
3.40045e-06
3.44031e-06
3.47859e-06
3.51583e-06
3.552e-06
3.58706e-06
3.62093e-06
3.65353e-06
3.68479e-06
3.71464e-06
3.743e-06
3.76981e-06
3.795e-06
3.81851e-06
3.84028e-06
3.86026e-06
3.87839e-06
3.89462e-06
3.90892e-06
3.92125e-06
3.93156e-06
3.93985e-06
3.94608e-06
3.95024e-06
3.95233e-06
3.95233e-06
3.95024e-06
3.94608e-06
3.93985e-06
3.93156e-06
3.92125e-06
3.90892e-06
3.89462e-06
3.87839e-06
3.86026e-06
3.84028e-06
3.81851e-06
3.795e-06
3.76981e-06
3.743e-06
3.71464e-06
3.68479e-06
3.65353e-06
3.62093e-06
3.25123e-06
3.28987e-06
3.327e-06
3.36313e-06
3.39823e-06
3.43226e-06
3.46514e-06
3.4968e-06
3.52717e-06
3.55616e-06
3.58371e-06
3.60975e-06
3.63423e-06
3.65708e-06
3.67824e-06
3.69765e-06
3.71528e-06
3.73106e-06
3.74496e-06
3.75695e-06
3.76698e-06
3.77504e-06
3.78109e-06
3.78514e-06
3.78717e-06
3.78717e-06
3.78514e-06
3.78109e-06
3.77504e-06
3.76698e-06
3.75695e-06
3.74496e-06
3.73106e-06
3.71528e-06
3.69765e-06
3.67824e-06
3.65708e-06
3.63423e-06
3.60975e-06
3.58371e-06
3.55616e-06
3.52717e-06
3.4968e-06
3.46514e-06
3.10404e-06
3.14145e-06
3.17743e-06
3.21244e-06
3.24646e-06
3.27946e-06
3.31135e-06
3.34206e-06
3.37151e-06
3.39964e-06
3.42637e-06
3.45165e-06
3.47541e-06
3.49759e-06
3.51813e-06
3.53698e-06
3.5541e-06
3.56942e-06
3.58292e-06
3.59456e-06
3.60431e-06
3.61213e-06
3.61802e-06
3.62195e-06
3.62391e-06
3.62391e-06
3.62195e-06
3.61802e-06
3.61213e-06
3.60431e-06
3.59456e-06
3.58292e-06
3.56942e-06
3.5541e-06
3.53698e-06
3.51813e-06
3.49759e-06
3.47541e-06
3.45165e-06
3.42637e-06
3.39964e-06
3.37151e-06
3.34206e-06
3.31135e-06
3.27946e-06
2.95896e-06
2.99514e-06
3.02995e-06
3.06383e-06
3.09678e-06
3.12873e-06
3.15962e-06
3.18937e-06
3.21791e-06
3.24517e-06
3.27108e-06
3.29558e-06
3.31861e-06
3.34011e-06
3.36004e-06
3.37832e-06
3.39492e-06
3.40978e-06
3.42288e-06
3.43417e-06
3.44362e-06
3.45121e-06
3.45692e-06
3.46074e-06
3.46264e-06
3.46264e-06
3.46074e-06
3.45692e-06
3.45121e-06
3.44362e-06
3.43417e-06
3.42288e-06
3.40978e-06
3.39492e-06
3.37832e-06
3.36004e-06
3.34012e-06
3.31861e-06
3.29558e-06
3.27108e-06
3.24517e-06
3.21791e-06
3.18937e-06
3.15962e-06
3.12873e-06
2.81606e-06
2.851e-06
2.88464e-06
2.91739e-06
2.94925e-06
2.98015e-06
3.01004e-06
3.03882e-06
3.06644e-06
3.09282e-06
3.1179e-06
3.14161e-06
3.16392e-06
3.18474e-06
3.20403e-06
3.22174e-06
3.23782e-06
3.25222e-06
3.26491e-06
3.27585e-06
3.28501e-06
3.29236e-06
3.29789e-06
3.30159e-06
3.30343e-06
3.30343e-06
3.30159e-06
3.29789e-06
3.29236e-06
3.28501e-06
3.27585e-06
3.26491e-06
3.25222e-06
3.23782e-06
3.22174e-06
3.20403e-06
3.18474e-06
3.16392e-06
3.14161e-06
3.1179e-06
3.09282e-06
3.06644e-06
3.03882e-06
3.01004e-06
2.98015e-06
2.67542e-06
2.70912e-06
2.74158e-06
2.7732e-06
2.80395e-06
2.8338e-06
2.86267e-06
2.89049e-06
2.91718e-06
2.94267e-06
2.96691e-06
2.98984e-06
3.01141e-06
3.03154e-06
3.0502e-06
3.06733e-06
3.08288e-06
3.09682e-06
3.10909e-06
3.11968e-06
3.12854e-06
3.13566e-06
3.14101e-06
3.14458e-06
3.14637e-06
3.14637e-06
3.14458e-06
3.14101e-06
3.13566e-06
3.12854e-06
3.11968e-06
3.10909e-06
3.09682e-06
3.08288e-06
3.06733e-06
3.0502e-06
3.03154e-06
3.01141e-06
2.98984e-06
2.96691e-06
2.94267e-06
2.91717e-06
2.89049e-06
2.86267e-06
2.8338e-06
2.53713e-06
2.56958e-06
2.60086e-06
2.63133e-06
2.66098e-06
2.68977e-06
2.71762e-06
2.74445e-06
2.77021e-06
2.79481e-06
2.81821e-06
2.84035e-06
2.86117e-06
2.88061e-06
2.89863e-06
2.91518e-06
2.9302e-06
2.94366e-06
2.95552e-06
2.96575e-06
2.97431e-06
2.98119e-06
2.98636e-06
2.98981e-06
2.99154e-06
2.99154e-06
2.98981e-06
2.98636e-06
2.98119e-06
2.97431e-06
2.96575e-06
2.95552e-06
2.94366e-06
2.9302e-06
2.91518e-06
2.89863e-06
2.88061e-06
2.86117e-06
2.84035e-06
2.81821e-06
2.79481e-06
2.77021e-06
2.74445e-06
2.71762e-06
2.40127e-06
2.43246e-06
2.46255e-06
2.49188e-06
2.52042e-06
2.54814e-06
2.57496e-06
2.60082e-06
2.62563e-06
2.64933e-06
2.67188e-06
2.69322e-06
2.71329e-06
2.73204e-06
2.74942e-06
2.76538e-06
2.77987e-06
2.79285e-06
2.80429e-06
2.81416e-06
2.82242e-06
2.82905e-06
2.83404e-06
2.83737e-06
2.83904e-06
2.83904e-06
2.83737e-06
2.83404e-06
2.82905e-06
2.82242e-06
2.81415e-06
2.80429e-06
2.79285e-06
2.77986e-06
2.76537e-06
2.74942e-06
2.73204e-06
2.71329e-06
2.69322e-06
2.67188e-06
2.64933e-06
2.62563e-06
2.60082e-06
2.57496e-06
2.26793e-06
2.29787e-06
2.32677e-06
2.35494e-06
2.38237e-06
2.40901e-06
2.4348e-06
2.45966e-06
2.48353e-06
2.50633e-06
2.52803e-06
2.54856e-06
2.56788e-06
2.58593e-06
2.60266e-06
2.61802e-06
2.63197e-06
2.64447e-06
2.65549e-06
2.665e-06
2.67295e-06
2.67934e-06
2.68415e-06
2.68736e-06
2.68896e-06
2.68896e-06
2.68736e-06
2.68415e-06
2.67934e-06
2.67295e-06
2.66499e-06
2.65549e-06
2.64447e-06
2.63197e-06
2.61802e-06
2.60266e-06
2.58593e-06
2.56788e-06
2.54856e-06
2.52803e-06
2.50633e-06
2.48353e-06
2.45966e-06
2.4348e-06
2.13721e-06
2.16589e-06
2.19359e-06
2.2206e-06
2.24691e-06
2.27248e-06
2.29724e-06
2.3211e-06
2.34401e-06
2.36591e-06
2.38675e-06
2.40647e-06
2.42503e-06
2.44237e-06
2.45845e-06
2.47321e-06
2.48662e-06
2.49864e-06
2.50924e-06
2.51837e-06
2.52602e-06
2.53217e-06
2.53679e-06
2.53988e-06
2.54142e-06
2.54142e-06
2.53988e-06
2.53679e-06
2.53217e-06
2.52602e-06
2.51837e-06
2.50924e-06
2.49864e-06
2.48662e-06
2.47321e-06
2.45845e-06
2.44237e-06
2.42503e-06
2.40647e-06
2.38675e-06
2.36591e-06
2.34401e-06
2.3211e-06
2.29724e-06
2.00921e-06
2.03663e-06
2.06313e-06
2.08898e-06
2.11417e-06
2.13865e-06
2.16237e-06
2.18523e-06
2.20718e-06
2.22817e-06
2.24814e-06
2.26705e-06
2.28485e-06
2.30148e-06
2.3169e-06
2.33106e-06
2.34393e-06
2.35546e-06
2.36563e-06
2.3744e-06
2.38174e-06
2.38764e-06
2.39207e-06
2.39503e-06
2.39651e-06
2.39651e-06
2.39503e-06
2.39207e-06
2.38764e-06
2.38174e-06
2.3744e-06
2.36563e-06
2.35546e-06
2.34393e-06
2.33106e-06
2.3169e-06
2.30148e-06
2.28485e-06
2.26705e-06
2.24814e-06
2.22817e-06
2.20718e-06
2.18523e-06
2.16237e-06
1.88403e-06
1.91019e-06
1.93549e-06
1.96017e-06
1.98424e-06
2.00764e-06
2.0303e-06
2.05216e-06
2.07316e-06
2.09323e-06
2.11233e-06
2.13042e-06
2.14745e-06
2.16337e-06
2.17813e-06
2.19169e-06
2.20401e-06
2.21505e-06
2.22479e-06
2.23318e-06
2.24022e-06
2.24586e-06
2.25011e-06
2.25295e-06
2.25437e-06
2.25437e-06
2.25295e-06
2.25011e-06
2.24586e-06
2.24022e-06
2.23318e-06
2.22479e-06
2.21505e-06
2.20401e-06
2.19169e-06
2.17813e-06
2.16337e-06
2.14745e-06
2.13042e-06
2.11233e-06
2.09323e-06
2.07316e-06
2.05216e-06
2.0303e-06
1.76179e-06
1.78668e-06
1.81078e-06
1.8343e-06
1.85724e-06
1.87954e-06
1.90116e-06
1.92202e-06
1.94204e-06
1.9612e-06
1.97943e-06
1.9967e-06
2.01296e-06
2.02816e-06
2.04226e-06
2.05521e-06
2.06698e-06
2.07753e-06
2.08683e-06
2.09485e-06
2.10157e-06
2.10697e-06
2.11103e-06
2.11374e-06
2.1151e-06
2.1151e-06
2.11374e-06
2.11103e-06
2.10697e-06
2.10157e-06
2.09485e-06
2.08683e-06
2.07753e-06
2.06698e-06
2.05521e-06
2.04226e-06
2.02816e-06
2.01296e-06
1.9967e-06
1.97943e-06
1.96119e-06
1.94204e-06
1.92202e-06
1.90116e-06
1.64259e-06
1.66622e-06
1.68911e-06
1.71147e-06
1.73328e-06
1.7545e-06
1.77506e-06
1.79491e-06
1.81397e-06
1.8322e-06
1.84956e-06
1.86601e-06
1.88149e-06
1.89597e-06
1.9094e-06
1.92174e-06
1.93296e-06
1.94302e-06
1.95188e-06
1.95953e-06
1.96594e-06
1.97109e-06
1.97496e-06
1.97754e-06
1.97883e-06
1.97883e-06
1.97754e-06
1.97496e-06
1.97109e-06
1.96594e-06
1.95953e-06
1.95188e-06
1.94302e-06
1.93296e-06
1.92174e-06
1.9094e-06
1.89597e-06
1.88149e-06
1.86601e-06
1.84956e-06
1.8322e-06
1.81397e-06
1.79491e-06
1.77506e-06
1.52655e-06
1.54893e-06
1.57062e-06
1.59181e-06
1.61249e-06
1.63261e-06
1.65213e-06
1.67096e-06
1.68906e-06
1.70636e-06
1.72285e-06
1.73847e-06
1.75318e-06
1.76694e-06
1.7797e-06
1.79143e-06
1.8021e-06
1.81166e-06
1.82009e-06
1.82736e-06
1.83345e-06
1.83835e-06
1.84203e-06
1.84448e-06
1.84571e-06
1.84571e-06
1.84448e-06
1.84203e-06
1.83835e-06
1.83345e-06
1.82736e-06
1.82009e-06
1.81166e-06
1.8021e-06
1.79143e-06
1.7797e-06
1.76694e-06
1.75318e-06
1.73847e-06
1.72285e-06
1.70636e-06
1.68906e-06
1.67096e-06
1.65213e-06
1.4138e-06
1.43492e-06
1.45541e-06
1.47544e-06
1.49499e-06
1.51403e-06
1.53249e-06
1.55032e-06
1.56744e-06
1.58382e-06
1.59943e-06
1.61423e-06
1.62816e-06
1.6412e-06
1.6533e-06
1.66441e-06
1.67452e-06
1.68358e-06
1.69158e-06
1.69847e-06
1.70425e-06
1.70889e-06
1.71238e-06
1.71471e-06
1.71588e-06
1.71588e-06
1.71471e-06
1.71238e-06
1.70889e-06
1.70425e-06
1.69847e-06
1.69157e-06
1.68358e-06
1.67452e-06
1.66441e-06
1.6533e-06
1.6412e-06
1.62816e-06
1.61423e-06
1.59943e-06
1.58382e-06
1.56744e-06
1.55032e-06
1.53249e-06
1.30445e-06
1.32433e-06
1.34363e-06
1.36249e-06
1.38092e-06
1.39887e-06
1.41629e-06
1.4331e-06
1.44926e-06
1.46472e-06
1.47946e-06
1.49342e-06
1.50658e-06
1.5189e-06
1.53032e-06
1.54083e-06
1.55038e-06
1.55894e-06
1.5665e-06
1.57302e-06
1.57848e-06
1.58287e-06
1.58617e-06
1.58837e-06
1.58947e-06
1.58947e-06
1.58837e-06
1.58617e-06
1.58287e-06
1.57848e-06
1.57302e-06
1.5665e-06
1.55894e-06
1.55038e-06
1.54083e-06
1.53032e-06
1.5189e-06
1.50658e-06
1.49342e-06
1.47946e-06
1.46472e-06
1.44926e-06
1.4331e-06
1.41629e-06
1.39887e-06
1.19865e-06
1.21729e-06
1.23539e-06
1.25311e-06
1.27042e-06
1.28729e-06
1.30365e-06
1.31946e-06
1.33465e-06
1.3492e-06
1.36306e-06
1.3762e-06
1.38859e-06
1.40018e-06
1.41094e-06
1.42083e-06
1.42983e-06
1.43789e-06
1.44501e-06
1.45115e-06
1.4563e-06
1.46044e-06
1.46354e-06
1.46562e-06
1.46666e-06
1.46666e-06
1.46562e-06
1.46354e-06
1.46044e-06
1.4563e-06
1.45115e-06
1.44501e-06
1.43789e-06
1.42983e-06
1.42083e-06
1.41094e-06
1.40018e-06
1.38859e-06
1.3762e-06
1.36306e-06
1.3492e-06
1.33465e-06
1.31946e-06
1.30365e-06
1.28729e-06
1.0965e-06
1.11392e-06
1.13085e-06
1.14742e-06
1.16362e-06
1.17941e-06
1.19473e-06
1.20954e-06
1.22377e-06
1.2374e-06
1.25039e-06
1.26271e-06
1.27433e-06
1.2852e-06
1.29529e-06
1.30457e-06
1.31302e-06
1.32059e-06
1.32727e-06
1.33303e-06
1.33787e-06
1.34175e-06
1.34467e-06
1.34662e-06
1.34759e-06
1.34759e-06
1.34662e-06
1.34467e-06
1.34175e-06
1.33787e-06
1.33303e-06
1.32727e-06
1.32059e-06
1.31302e-06
1.30457e-06
1.29529e-06
1.2852e-06
1.27433e-06
1.26271e-06
1.25039e-06
1.2374e-06
1.22377e-06
1.20954e-06
1.19473e-06
1.17941e-06
9.98152e-07
1.01436e-06
1.03012e-06
1.04555e-06
1.06065e-06
1.07537e-06
1.08967e-06
1.10348e-06
1.11676e-06
1.12948e-06
1.14161e-06
1.15311e-06
1.16396e-06
1.17412e-06
1.18355e-06
1.19222e-06
1.20011e-06
1.20719e-06
1.21344e-06
1.21883e-06
1.22335e-06
1.22698e-06
1.22971e-06
1.23153e-06
1.23244e-06
1.23244e-06
1.23153e-06
1.22971e-06
1.22698e-06
1.22335e-06
1.21883e-06
1.21344e-06
1.20719e-06
1.20011e-06
1.19222e-06
1.18355e-06
1.17412e-06
1.16396e-06
1.15311e-06
1.14161e-06
1.12948e-06
1.11676e-06
1.10348e-06
1.08967e-06
1.07537e-06
9.03682e-07
9.18696e-07
9.33309e-07
9.47632e-07
9.61646e-07
9.75316e-07
9.88596e-07
1.00143e-06
1.01377e-06
1.02558e-06
1.03685e-06
1.04755e-06
1.05764e-06
1.06709e-06
1.07586e-06
1.08393e-06
1.09127e-06
1.09786e-06
1.10368e-06
1.1087e-06
1.1129e-06
1.11629e-06
1.11883e-06
1.12052e-06
1.12137e-06
1.12137e-06
1.12052e-06
1.11883e-06
1.11629e-06
1.1129e-06
1.1087e-06
1.10368e-06
1.09786e-06
1.09127e-06
1.08393e-06
1.07586e-06
1.06709e-06
1.05764e-06
1.04755e-06
1.03685e-06
1.02558e-06
1.01377e-06
1.00143e-06
9.88596e-07
8.13059e-07
8.26924e-07
8.40432e-07
8.53679e-07
8.66648e-07
8.79305e-07
8.91606e-07
9.03496e-07
9.14901e-07
9.2583e-07
9.36261e-07
9.46162e-07
9.55501e-07
9.64248e-07
9.72374e-07
9.79851e-07
9.86655e-07
9.92761e-07
9.9815e-07
1.0028e-06
1.0067e-06
1.00984e-06
1.0122e-06
1.01377e-06
1.01455e-06
1.01455e-06
1.01377e-06
1.01219e-06
1.00984e-06
1.0067e-06
1.0028e-06
9.9815e-07
9.92761e-07
9.86654e-07
9.79851e-07
9.72374e-07
9.64248e-07
9.55501e-07
9.46161e-07
9.36261e-07
9.2583e-07
9.14901e-07
9.03496e-07
8.91606e-07
7.25633e-07
7.3848e-07
7.51014e-07
7.63317e-07
7.7537e-07
7.87141e-07
7.98588e-07
8.09644e-07
8.2015e-07
8.30222e-07
8.39838e-07
8.4897e-07
8.57586e-07
8.65658e-07
8.73159e-07
8.80063e-07
8.86346e-07
8.91987e-07
8.96966e-07
9.01265e-07
9.04871e-07
9.07768e-07
9.09943e-07
9.11391e-07
9.12115e-07
9.12115e-07
9.11391e-07
9.09942e-07
9.07768e-07
9.04871e-07
9.01265e-07
8.96965e-07
8.91987e-07
8.86346e-07
8.80063e-07
8.73159e-07
8.65658e-07
8.57586e-07
8.4897e-07
8.39838e-07
8.30222e-07
8.2015e-07
8.09643e-07
7.98588e-07
6.35504e-07
6.48275e-07
6.60775e-07
6.73048e-07
6.85072e-07
6.96812e-07
7.0823e-07
7.19165e-07
7.28875e-07
7.38187e-07
7.47084e-07
7.55536e-07
7.63514e-07
7.70992e-07
7.77943e-07
7.84343e-07
7.90169e-07
7.954e-07
8.00019e-07
8.04009e-07
8.07355e-07
8.10045e-07
8.12052e-07
8.13382e-07
8.14047e-07
8.14047e-07
8.13382e-07
8.12052e-07
8.10044e-07
8.07355e-07
8.04009e-07
8.00019e-07
7.954e-07
7.90169e-07
7.84342e-07
7.77943e-07
7.70992e-07
7.63514e-07
7.55535e-07
7.47084e-07
7.38187e-07
7.28874e-07
7.19165e-07
7.0823e-07
5.49203e-07
5.60805e-07
5.72174e-07
5.83348e-07
5.94304e-07
6.0501e-07
6.1543e-07
6.25513e-07
6.35167e-07
6.44432e-07
6.53282e-07
6.61689e-07
6.69624e-07
6.77061e-07
6.83972e-07
6.90334e-07
6.96126e-07
7.01326e-07
7.05916e-07
7.09881e-07
7.13206e-07
7.15879e-07
7.17804e-07
7.19028e-07
7.1964e-07
7.1964e-07
7.19028e-07
7.17804e-07
7.15879e-07
7.13206e-07
7.09881e-07
7.05916e-07
7.01326e-07
6.96126e-07
6.90334e-07
6.83972e-07
6.77061e-07
6.69624e-07
6.61689e-07
6.53282e-07
6.44432e-07
6.35167e-07
6.25512e-07
6.1543e-07
4.67887e-07
4.783e-07
4.88518e-07
4.98571e-07
5.08438e-07
5.18089e-07
5.27489e-07
5.36594e-07
5.45324e-07
5.53708e-07
5.61722e-07
5.6934e-07
5.76534e-07
5.83279e-07
5.89551e-07
5.95328e-07
6.00588e-07
6.05312e-07
6.09484e-07
6.13089e-07
6.16112e-07
6.18543e-07
6.20365e-07
6.21577e-07
6.22184e-07
6.22184e-07
6.21577e-07
6.20365e-07
6.18543e-07
6.16112e-07
6.13088e-07
6.09484e-07
6.05312e-07
6.00588e-07
5.95328e-07
5.89551e-07
5.83279e-07
5.76534e-07
5.6934e-07
5.61722e-07
5.53708e-07
5.45324e-07
5.36594e-07
5.27489e-07
3.92106e-07
4.01315e-07
4.10366e-07
4.19281e-07
4.28042e-07
4.3662e-07
4.44985e-07
4.53095e-07
4.60882e-07
4.68368e-07
4.75529e-07
4.8234e-07
4.88778e-07
4.94817e-07
5.00436e-07
5.05614e-07
5.10331e-07
5.1457e-07
5.18314e-07
5.2155e-07
5.24265e-07
5.26448e-07
5.28086e-07
5.29176e-07
5.29721e-07
5.29721e-07
5.29176e-07
5.28086e-07
5.26448e-07
5.24265e-07
5.2155e-07
5.18314e-07
5.1457e-07
5.10331e-07
5.05614e-07
5.00436e-07
4.94817e-07
4.88778e-07
4.8234e-07
4.75529e-07
4.68368e-07
4.60882e-07
4.53094e-07
4.44985e-07
3.22425e-07
3.30427e-07
3.38305e-07
3.46077e-07
3.53723e-07
3.61219e-07
3.68538e-07
3.75642e-07
3.82475e-07
3.8905e-07
3.95345e-07
4.01339e-07
4.07007e-07
4.1233e-07
4.17285e-07
4.21854e-07
4.26019e-07
4.29763e-07
4.33072e-07
4.35933e-07
4.38334e-07
4.40265e-07
4.41715e-07
4.4268e-07
4.43163e-07
4.43163e-07
4.4268e-07
4.41715e-07
4.40265e-07
4.38334e-07
4.35932e-07
4.33072e-07
4.29763e-07
4.26019e-07
4.21854e-07
4.17285e-07
4.1233e-07
4.07007e-07
4.01338e-07
3.95345e-07
3.8905e-07
3.82475e-07
3.75642e-07
3.68538e-07
2.59399e-07
2.66206e-07
2.7292e-07
2.79553e-07
2.8609e-07
2.92508e-07
2.98782e-07
3.04882e-07
3.10758e-07
3.16418e-07
3.21844e-07
3.27015e-07
3.31911e-07
3.36511e-07
3.40798e-07
3.44753e-07
3.48361e-07
3.51607e-07
3.54476e-07
3.56959e-07
3.59043e-07
3.6072e-07
3.61979e-07
3.62818e-07
3.63238e-07
3.63238e-07
3.62818e-07
3.61979e-07
3.6072e-07
3.59043e-07
3.56958e-07
3.54476e-07
3.51607e-07
3.48361e-07
3.44753e-07
3.40798e-07
3.36511e-07
3.31911e-07
3.27015e-07
3.21844e-07
3.16418e-07
3.10757e-07
3.04882e-07
2.98782e-07
2.92508e-07
2.03519e-07
2.09163e-07
2.14741e-07
2.20263e-07
2.25713e-07
2.31073e-07
2.36322e-07
2.41431e-07
2.46363e-07
2.5112e-07
2.55685e-07
2.60042e-07
2.64171e-07
2.68055e-07
2.71677e-07
2.75022e-07
2.78076e-07
2.80825e-07
2.83257e-07
2.85361e-07
2.87129e-07
2.88553e-07
2.89622e-07
2.90334e-07
2.90691e-07
2.90691e-07
2.90334e-07
2.89622e-07
2.88553e-07
2.87129e-07
2.85361e-07
2.83257e-07
2.80824e-07
2.78076e-07
2.75022e-07
2.71677e-07
2.68055e-07
2.64171e-07
2.60042e-07
2.55685e-07
2.5112e-07
2.46363e-07
2.41431e-07
2.36322e-07
2.31073e-07
1.55151e-07
1.59692e-07
1.64188e-07
1.68648e-07
1.73058e-07
1.77404e-07
1.81666e-07
1.85822e-07
1.89841e-07
1.93724e-07
1.97456e-07
2.01021e-07
2.04404e-07
2.07591e-07
2.10565e-07
2.13315e-07
2.15828e-07
2.18091e-07
2.20095e-07
2.2183e-07
2.23289e-07
2.24463e-07
2.25346e-07
2.25935e-07
2.2623e-07
2.2623e-07
2.25935e-07
2.25346e-07
2.24463e-07
2.23289e-07
2.2183e-07
2.20095e-07
2.18091e-07
2.15828e-07
2.13315e-07
2.10565e-07
2.07591e-07
2.04404e-07
2.01021e-07
1.97456e-07
1.93724e-07
1.89841e-07
1.85822e-07
1.81666e-07
1.77404e-07
1.14466e-07
1.1799e-07
1.21488e-07
1.24964e-07
1.28409e-07
1.31809e-07
1.3515e-07
1.38415e-07
1.41577e-07
1.44637e-07
1.47583e-07
1.50402e-07
1.5308e-07
1.55605e-07
1.57965e-07
1.6015e-07
1.62147e-07
1.63948e-07
1.65544e-07
1.66927e-07
1.6809e-07
1.69027e-07
1.69732e-07
1.70202e-07
1.70437e-07
1.70437e-07
1.70202e-07
1.69732e-07
1.69027e-07
1.6809e-07
1.66927e-07
1.65544e-07
1.63948e-07
1.62147e-07
1.6015e-07
1.57965e-07
1.55605e-07
1.5308e-07
1.50402e-07
1.47583e-07
1.44637e-07
1.41577e-07
1.38415e-07
1.3515e-07
1.31809e-07
1.28409e-07
8.13699e-08
8.39941e-08
8.66042e-08
8.92036e-08
9.17847e-08
9.43372e-08
9.68503e-08
9.93103e-08
1.01698e-07
1.04012e-07
1.06243e-07
1.08382e-07
1.10416e-07
1.12337e-07
1.14135e-07
1.158e-07
1.17325e-07
1.187e-07
1.19921e-07
1.20979e-07
1.21869e-07
1.22587e-07
1.23127e-07
1.23487e-07
1.23668e-07
1.23668e-07
1.23487e-07
1.23127e-07
1.22587e-07
1.21869e-07
1.20979e-07
1.19921e-07
1.187e-07
1.17325e-07
1.158e-07
1.14135e-07
1.12337e-07
1.10416e-07
1.08382e-07
1.06243e-07
1.04012e-07
1.01698e-07
9.93102e-08
9.68503e-08
9.43373e-08
9.17846e-08
5.54645e-08
5.73276e-08
5.91845e-08
6.10375e-08
6.2881e-08
6.47076e-08
6.65093e-08
6.82761e-08
6.99941e-08
7.1662e-08
7.32728e-08
7.48185e-08
7.62914e-08
7.76839e-08
7.89886e-08
8.01987e-08
8.13077e-08
8.23094e-08
8.31985e-08
8.39699e-08
8.46195e-08
8.51434e-08
8.55378e-08
8.58011e-08
8.59331e-08
8.59331e-08
8.58011e-08
8.55378e-08
8.51434e-08
8.46195e-08
8.39699e-08
8.31984e-08
8.23094e-08
8.13076e-08
8.01987e-08
7.89886e-08
7.76839e-08
7.62914e-08
7.48185e-08
7.32728e-08
7.1662e-08
6.9994e-08
6.8276e-08
6.65093e-08
6.47076e-08
6.2881e-08
6.10375e-08
3.60546e-08
3.73078e-08
3.8559e-08
3.98099e-08
4.10566e-08
4.2294e-08
4.35167e-08
4.47176e-08
4.58874e-08
4.70249e-08
4.81249e-08
4.91821e-08
5.01907e-08
5.11455e-08
5.20411e-08
5.28727e-08
5.36355e-08
5.43252e-08
5.49377e-08
5.54696e-08
5.59178e-08
5.62794e-08
5.65517e-08
5.67336e-08
5.68248e-08
5.68248e-08
5.67336e-08
5.65517e-08
5.62794e-08
5.59178e-08
5.54696e-08
5.49377e-08
5.43251e-08
5.36355e-08
5.28727e-08
5.20411e-08
5.11455e-08
5.01907e-08
4.91821e-08
4.81249e-08
4.70248e-08
4.58874e-08
4.47176e-08
4.35166e-08
4.22941e-08
4.10566e-08
3.98099e-08
2.22081e-08
2.3001e-08
2.37939e-08
2.45877e-08
2.53801e-08
2.61679e-08
2.69473e-08
2.7714e-08
2.8462e-08
2.91903e-08
2.98955e-08
3.0574e-08
3.12222e-08
3.18364e-08
3.24132e-08
3.29492e-08
3.34414e-08
3.38867e-08
3.42825e-08
3.46264e-08
3.49162e-08
3.51503e-08
3.53266e-08
3.54444e-08
3.55035e-08
3.55035e-08
3.54444e-08
3.53266e-08
3.51503e-08
3.49162e-08
3.46264e-08
3.42825e-08
3.38867e-08
3.34414e-08
3.29492e-08
3.24132e-08
3.18364e-08
3.12222e-08
3.0574e-08
2.98955e-08
2.91902e-08
2.8462e-08
2.7714e-08
2.69473e-08
2.61679e-08
2.53801e-08
2.45877e-08
1.28583e-08
1.33263e-08
1.37948e-08
1.42645e-08
1.47339e-08
1.52011e-08
1.56639e-08
1.61197e-08
1.65648e-08
1.69987e-08
1.74194e-08
1.78245e-08
1.82119e-08
1.85793e-08
1.89245e-08
1.92457e-08
1.95408e-08
1.98079e-08
2.00455e-08
2.02521e-08
2.04262e-08
2.05669e-08
2.06729e-08
2.07438e-08
2.07793e-08
2.07793e-08
2.07438e-08
2.06729e-08
2.05669e-08
2.04262e-08
2.02521e-08
2.00455e-08
1.98079e-08
1.95408e-08
1.92457e-08
1.89245e-08
1.85792e-08
1.82118e-08
1.78245e-08
1.74194e-08
1.69987e-08
1.65648e-08
1.61197e-08
1.56639e-08
1.52011e-08
1.47339e-08
1.42645e-08
6.92416e-09
7.17912e-09
7.43453e-09
7.69082e-09
7.94717e-09
8.20252e-09
8.45571e-09
8.70526e-09
8.94921e-09
9.18718e-09
9.41804e-09
9.64055e-09
9.85346e-09
1.00555e-08
1.02456e-08
1.04224e-08
1.0585e-08
1.07323e-08
1.08633e-08
1.09772e-08
1.10734e-08
1.1151e-08
1.12096e-08
1.12487e-08
1.12683e-08
1.12683e-08
1.12487e-08
1.12096e-08
1.1151e-08
1.10734e-08
1.09772e-08
1.08633e-08
1.07323e-08
1.0585e-08
1.04224e-08
1.02456e-08
1.00555e-08
9.85346e-09
9.64055e-09
9.41804e-09
9.18717e-09
8.9492e-09
8.70526e-09
8.45571e-09
8.20253e-09
7.94716e-09
7.69082e-09
3.4167e-09
3.54302e-09
3.6696e-09
3.79667e-09
3.92384e-09
4.05059e-09
4.17632e-09
4.30031e-09
4.42157e-09
4.53992e-09
4.65479e-09
4.76556e-09
4.87159e-09
4.97227e-09
5.06699e-09
5.15517e-09
5.23625e-09
5.30973e-09
5.37513e-09
5.43201e-09
5.48001e-09
5.51879e-09
5.54803e-09
5.56757e-09
5.57737e-09
5.57737e-09
5.56757e-09
5.54803e-09
5.51879e-09
5.48001e-09
5.43201e-09
5.37513e-09
5.30973e-09
5.23625e-09
5.15517e-09
5.06699e-09
4.97227e-09
4.87159e-09
4.76556e-09
4.65479e-09
4.53992e-09
4.42157e-09
4.30031e-09
4.17632e-09
4.05059e-09
3.92384e-09
3.79667e-09
3.66959e-09
1.51158e-09
1.56726e-09
1.62304e-09
1.67905e-09
1.73512e-09
1.791e-09
1.84645e-09
1.90113e-09
1.95462e-09
2.00684e-09
2.05753e-09
2.10642e-09
2.15322e-09
2.19767e-09
2.2395e-09
2.27844e-09
2.31426e-09
2.34672e-09
2.37561e-09
2.40075e-09
2.42196e-09
2.4391e-09
2.45202e-09
2.46066e-09
2.46499e-09
2.46499e-09
2.46066e-09
2.45202e-09
2.4391e-09
2.42196e-09
2.40075e-09
2.37561e-09
2.34672e-09
2.31426e-09
2.27844e-09
2.2395e-09
2.19767e-09
2.15322e-09
2.10642e-09
2.05753e-09
2.00684e-09
1.95462e-09
1.90113e-09
1.84644e-09
1.791e-09
1.73512e-09
1.67905e-09
1.62304e-09
5.79771e-10
6.00864e-10
6.21987e-10
6.43191e-10
6.64409e-10
6.85554e-10
7.0653e-10
7.27216e-10
7.47445e-10
7.67189e-10
7.86354e-10
8.04835e-10
8.22528e-10
8.39328e-10
8.55136e-10
8.69853e-10
8.83388e-10
8.95654e-10
9.06571e-10
9.16068e-10
9.24082e-10
9.30557e-10
9.35439e-10
9.38703e-10
9.40339e-10
9.40339e-10
9.38703e-10
9.35439e-10
9.30557e-10
9.24082e-10
9.16068e-10
9.06571e-10
8.95653e-10
8.83387e-10
8.69853e-10
8.55136e-10
8.39328e-10
8.22528e-10
8.04835e-10
7.86354e-10
7.67189e-10
7.47445e-10
7.27215e-10
7.0653e-10
6.85555e-10
6.64408e-10
6.43191e-10
6.21987e-10
1.82541e-10
1.89027e-10
1.95516e-10
2.02025e-10
2.08535e-10
2.15018e-10
2.21445e-10
2.2778e-10
2.33972e-10
2.40012e-10
2.45872e-10
2.51521e-10
2.56926e-10
2.62058e-10
2.66884e-10
2.71376e-10
2.75506e-10
2.79248e-10
2.82577e-10
2.85474e-10
2.87917e-10
2.89891e-10
2.91379e-10
2.92373e-10
2.92872e-10
2.92872e-10
2.92373e-10
2.91379e-10
2.89891e-10
2.87917e-10
2.85473e-10
2.82577e-10
2.79248e-10
2.75506e-10
2.71376e-10
2.66884e-10
2.62058e-10
2.56926e-10
2.51521e-10
2.45872e-10
2.40012e-10
2.33972e-10
2.2778e-10
2.21445e-10
2.15018e-10
2.08535e-10
2.02025e-10
1.95516e-10
4.28801e-11
4.43418e-11
4.58013e-11
4.72635e-11
4.8724e-11
5.0177e-11
5.16159e-11
5.30324e-11
5.44153e-11
5.5763e-11
5.70695e-11
5.83277e-11
5.95308e-11
6.0672e-11
6.17446e-11
6.27424e-11
6.36592e-11
6.44895e-11
6.52279e-11
6.587e-11
6.64115e-11
6.68488e-11
6.71784e-11
6.73986e-11
6.7509e-11
6.7509e-11
6.73986e-11
6.71784e-11
6.68488e-11
6.64115e-11
6.587e-11
6.52279e-11
6.44894e-11
6.36592e-11
6.27424e-11
6.17446e-11
6.0672e-11
5.95308e-11
5.83276e-11
5.70694e-11
5.5763e-11
5.44153e-11
5.30324e-11
5.16158e-11
5.0177e-11
4.8724e-11
4.72635e-11
4.58013e-11
6.24921e-12
6.44616e-12
6.64221e-12
6.83813e-12
7.03339e-12
7.22723e-12
7.4188e-12
7.607e-12
7.79033e-12
7.96867e-12
8.14125e-12
8.3072e-12
8.46565e-12
8.61574e-12
8.75663e-12
8.88754e-12
9.0077e-12
9.1164e-12
9.21301e-12
9.29695e-12
9.36769e-12
9.42479e-12
9.4678e-12
9.49653e-12
9.51093e-12
9.51093e-12
9.49653e-12
9.4678e-12
9.42479e-12
9.36769e-12
9.29695e-12
9.21301e-12
9.1164e-12
9.00769e-12
8.88754e-12
8.75663e-12
8.61574e-12
8.46565e-12
8.3072e-12
8.14125e-12
7.96867e-12
7.79032e-12
7.607e-12
7.4188e-12
7.22724e-12
7.03339e-12
6.83813e-12
6.6422e-12
3.76059e-13
3.85989e-13
3.95808e-13
4.05572e-13
4.15257e-13
4.24831e-13
4.34252e-13
4.43468e-13
4.52404e-13
4.61064e-13
4.69416e-13
4.77421e-13
4.85041e-13
4.92239e-13
4.98978e-13
5.05224e-13
5.10946e-13
5.16112e-13
5.20695e-13
5.2467e-13
5.28017e-13
5.30715e-13
5.32745e-13
5.34099e-13
5.34777e-13
5.34777e-13
5.34099e-13
5.32745e-13
5.30715e-13
5.28017e-13
5.2467e-13
5.20695e-13
5.16112e-13
5.10946e-13
5.05224e-13
4.98978e-13
4.92238e-13
4.85041e-13
4.7742e-13
4.69416e-13
4.61064e-13
4.52404e-13
4.43468e-13
4.34252e-13
4.24831e-13
4.15257e-13
4.05571e-13
3.95808e-13
3.32034e-15
3.37213e-15
3.42242e-15
3.47187e-15
3.52044e-15
3.56799e-15
3.61436e-15
3.65929e-15
3.70234e-15
3.74372e-15
3.78334e-15
3.82106e-15
3.85674e-15
3.89025e-15
3.92145e-15
3.95023e-15
3.97646e-15
4.00006e-15
4.02091e-15
4.03895e-15
4.05409e-15
4.06627e-15
4.07539e-15
4.08145e-15
4.08448e-15
4.08448e-15
4.08145e-15
4.07539e-15
4.06627e-15
4.05409e-15
4.03895e-15
4.02091e-15
4.00006e-15
3.97646e-15
3.95023e-15
3.92145e-15
3.89025e-15
3.85674e-15
3.82106e-15
3.78334e-15
3.74372e-15
3.70234e-15
3.65929e-15
3.61436e-15
3.56799e-15
3.52044e-15
3.47187e-15
3.42242e-15
4.01636e-06
3.85966e-06
3.70473e-06
3.55164e-06
3.40045e-06
3.25123e-06
3.10404e-06
2.95896e-06
2.81606e-06
2.67542e-06
2.53713e-06
2.40127e-06
2.26793e-06
2.13721e-06
2.00921e-06
1.88403e-06
1.76179e-06
1.64259e-06
1.52655e-06
1.4138e-06
1.30445e-06
1.19865e-06
1.0965e-06
9.98152e-07
9.03682e-07
8.13059e-07
7.25633e-07
6.35504e-07
5.49203e-07
4.67887e-07
3.92106e-07
3.22425e-07
2.59399e-07
2.03519e-07
1.55151e-07
1.14466e-07
8.13699e-08
5.54645e-08
3.60546e-08
2.22081e-08
1.28583e-08
6.92416e-09
3.4167e-09
1.51158e-09
5.79771e-10
1.82541e-10
4.28801e-11
6.24921e-12
3.76059e-13
3.32034e-15
4.06104e-06
3.90314e-06
3.74701e-06
3.59272e-06
3.44031e-06
3.28987e-06
3.14145e-06
2.99514e-06
2.851e-06
2.70912e-06
2.56958e-06
2.43246e-06
2.29787e-06
2.16589e-06
2.03663e-06
1.91019e-06
1.78668e-06
1.66622e-06
1.54893e-06
1.43492e-06
1.32433e-06
1.21729e-06
1.11392e-06
1.01436e-06
9.18696e-07
8.26924e-07
7.3848e-07
6.48275e-07
5.60805e-07
4.783e-07
4.01315e-07
3.30427e-07
2.66206e-07
2.09163e-07
1.59692e-07
1.1799e-07
8.39941e-08
5.73276e-08
3.73078e-08
2.3001e-08
1.33263e-08
7.17912e-09
3.54302e-09
1.56726e-09
6.00864e-10
1.89027e-10
4.43418e-11
6.44616e-12
3.85989e-13
3.37213e-15
4.10383e-06
3.94482e-06
3.78756e-06
3.63214e-06
3.47859e-06
3.327e-06
3.17743e-06
3.02995e-06
2.88464e-06
2.74158e-06
2.60086e-06
2.46255e-06
2.32677e-06
2.19359e-06
2.06313e-06
1.93549e-06
1.81078e-06
1.68911e-06
1.57062e-06
1.45541e-06
1.34363e-06
1.23539e-06
1.13085e-06
1.03012e-06
9.33309e-07
8.40432e-07
7.51014e-07
6.60775e-07
5.72174e-07
4.88518e-07
4.10366e-07
3.38305e-07
2.7292e-07
2.14741e-07
1.64188e-07
1.21488e-07
8.66042e-08
5.91845e-08
3.8559e-08
2.37939e-08
1.37948e-08
7.43453e-09
3.6696e-09
1.62304e-09
6.21987e-10
1.95516e-10
4.58013e-11
6.64221e-12
3.95808e-13
3.42242e-15
4.14542e-06
3.98533e-06
3.827e-06
3.67047e-06
3.51583e-06
3.36313e-06
3.21244e-06
3.06383e-06
2.91739e-06
2.7732e-06
2.63133e-06
2.49188e-06
2.35494e-06
2.2206e-06
2.08898e-06
1.96017e-06
1.8343e-06
1.71147e-06
1.59181e-06
1.47544e-06
1.36249e-06
1.25311e-06
1.14742e-06
1.04555e-06
9.47632e-07
8.53679e-07
7.63317e-07
6.73048e-07
5.83348e-07
4.98571e-07
4.19281e-07
3.46077e-07
2.79553e-07
2.20263e-07
1.68648e-07
1.24964e-07
8.92036e-08
6.10375e-08
3.98099e-08
2.45877e-08
1.42645e-08
7.69082e-09
3.79667e-09
1.67905e-09
6.43191e-10
2.02025e-10
4.72635e-11
6.83813e-12
4.05572e-13
3.47187e-15
4.18579e-06
4.02467e-06
3.86528e-06
3.70771e-06
3.552e-06
3.39823e-06
3.24646e-06
3.09678e-06
2.94925e-06
2.80395e-06
2.66098e-06