/*--------------------------------*- C++ -*----------------------------------*\
  =========                 |
  \\      /  F ield         | OpenFOAM: The Open Source CFD Toolbox
   \\    /   O peration     | Website:  https://openfoam.org
    \\  /    A nd           | Version:  7
     \\/     M anipulation  |
\*---------------------------------------------------------------------------*/
FoamFile
{
    version     2.0;
    format      ascii;
    class       volScalarField;
    location    "4000";
    object      nu;
}
// * * * * * * * * * * * * * * * * * * * * * * * * * * * * * * * * * * * * * //

dimensions      [0 2 -1 0 0 0 0];

internalField   nonuniform List<scalar> 
4782
(
0.000133521
0.000131408
0.000129483
0.000127745
0.000126241
0.000124925
0.000123641
0.000122121
0.00011999
0.00011658
0.000401905
0.00039586
0.000389061
0.000381478
0.00037351
0.000365384
0.000357224
0.000349101
0.000341055
0.000333112
0.00032529
0.0003176
0.000310051
0.000302647
0.000295392
0.000288286
0.000281329
0.000274518
0.000267853
0.000261331
0.000254951
0.000248712
0.000242616
0.000236665
0.000230861
0.000225207
0.000219706
0.000214358
0.000209158
0.000204099
0.000199165
0.000194336
0.000189586
0.000184888
0.000180214
0.000175542
0.000170859
0.000166166
0.000161483
0.000156844
0.000152298
0.000147906
0.000143728
0.000139822
0.000136234
0.000133004
0.000130161
0.00012772
0.000125676
0.000123981
0.000122523
0.000121106
0.000119432
0.000117105
0.000113466
0.000394996
0.000389661
0.000383575
0.000376602
0.000369104
0.000361316
0.000353392
0.000345432
0.000337501
0.000329644
0.00032189
0.00031426
0.000306765
0.000299414
0.000292212
0.00028516
0.000278258
0.000271505
0.0002649
0.00025844
0.000252124
0.00024595
0.000239919
0.000234031
0.000228287
0.000222687
0.000217233
0.000211922
0.000206752
0.000201716
0.000196805
0.000192005
0.0001873
0.000182674
0.000178108
0.000173585
0.000169095
0.000164629
0.000160191
0.000155794
0.000151461
0.000147228
0.000143141
0.000139255
0.000135631
0.000132327
0.000129395
0.000126862
0.000124723
0.00012292
0.000121322
0.000119711
0.00011777
0.000115096
0.000111048
0.000389346
0.000384318
0.00037859
0.000371973
0.00036479
0.000357262
0.000349543
0.00034174
0.000333932
0.000326174
0.000318502
0.000310943
0.000303515
0.000296228
0.000289088
0.000282099
0.000275261
0.000268572
0.000262032
0.000255638
0.000249389
0.000243282
0.000237316
0.000231491
0.000225806
0.000220262
0.000214859
0.000209594
0.000204466
0.00019947
0.000194599
0.000189844
0.000185193
0.000180631
0.000176142
0.00017171
0.000167323
0.00016297
0.00015865
0.000154371
0.000150153
0.000146029
0.000142045
0.000138257
0.000134727
0.000131513
0.000128663
0.000126198
0.000124099
0.00012229
0.000120618
0.000118842
0.000116628
0.00011357
0.000109058
0.000384614
0.000379836
0.0003743
0.000367829
0.000360762
0.000353333
0.000345705
0.000337992
0.000330272
0.000322601
0.000315016
0.000307544
0.000300202
0.000292999
0.000285943
0.000279036
0.000272278
0.00026567
0.000259209
0.000252892
0.000246719
0.000240686
0.000234793
0.000229038
0.000223421
0.000217941
0.000212599
0.000207393
0.000202322
0.000197382
0.000192566
0.000187865
0.000183269
0.000178762
0.000174328
0.000169953
0.000165623
0.00016133
0.000157074
0.000152864
0.000148726
0.000144695
0.00014082
0.000137159
0.000133772
0.000130714
0.000128021
0.000125701
0.000123715
0.000121961
0.000120257
0.000118336
0.000115842
0.000112372
0.000107353
0.000384359
0.000379534
0.000373982
0.000367518
0.000360475
0.00035308
0.000345489
0.000337813
0.000330128
0.000322487
0.000314928
0.000307477
0.000300151
0.000292962
0.000285916
0.000279017
0.000272266
0.000265663
0.000259206
0.000252893
0.000246722
0.000240691
0.000234799
0.000229043
0.000223425
0.000217943
0.000212599
0.000207391
0.000202317
0.000197375
0.000192559
0.000187859
0.000183263
0.000178756
0.000174323
0.000169947
0.000165615
0.000161318
0.000157059
0.000152852
0.000148723
0.000144713
0.000140877
0.000137275
0.000133969
0.000131012
0.000128436
0.000126236
0.000124361
0.000122691
0.000121026
0.00011908
0.000116497
0.00011288
0.00010768
0.00038848
0.000383332
0.000377582
0.000371017
0.000363931
0.000356523
0.000348929
0.000341246
0.000333544
0.000325876
0.000318279
0.00031078
0.000303398
0.000296147
0.000289036
0.000282068
0.000275246
0.000268572
0.000262043
0.000255658
0.000249415
0.000243312
0.000237349
0.000231522
0.000225833
0.000220282
0.000214868
0.000209592
0.000204453
0.000199448
0.000194572
0.000189817
0.000185171
0.000180617
0.000176139
0.000171719
0.00016734
0.000162994
0.000158679
0.000154409
0.000150212
0.000146134
0.000142237
0.000138593
0.000135279
0.000132363
0.000129894
0.000127881
0.000126271
0.000124931
0.000123619
0.000121972
0.000119522
0.000115744
0.000110172
0.000102552
9.29915e-05
8.20076e-05
7.03425e-05
0.000393035
0.000387643
0.000381675
0.000374926
0.000367695
0.000360175
0.000352496
0.000344745
0.000336987
0.000329267
0.000321621
0.000314071
0.000306638
0.000299333
0.000292165
0.000285138
0.000278257
0.000271521
0.00026493
0.000258483
0.000252177
0.000246012
0.000239985
0.000234095
0.000228343
0.000222728
0.000217252
0.000211914
0.000206715
0.000201653
0.000196723
0.000191916
0.000187222
0.000182625
0.000178105
0.000173643
0.000169223
0.00016483
0.000160463
0.000156132
0.000151867
0.000147713
0.000143736
0.000140015
0.000136634
0.000133672
0.000131188
0.000129206
0.000127686
0.000126505
0.000125428
0.000124092
0.000122009
0.000118617
0.000113392
0.000106002
9.64842e-05
8.53141e-05
7.33326e-05
6.14499e-05
0.000397816
0.000392273
0.000386144
0.000379232
0.000371846
0.000364186
0.000356382
0.000348523
0.000340669
0.000332864
0.000325139
0.000317518
0.000310016
0.000302645
0.000295411
0.000288321
0.000281376
0.000274577
0.000267924
0.000261414
0.000255046
0.000248818
0.000242729
0.000236777
0.000230963
0.000225286
0.000219748
0.000214349
0.00020909
0.00020397
0.000198985
0.000194127
0.000189385
0.000184743
0.000180183
0.000175684
0.000171227
0.000166795
0.000162384
0.000158002
0.000153673
0.000149443
0.000145376
0.000141553
0.000138062
0.000134992
0.000132417
0.000130374
0.000128851
0.00012775
0.000126867
0.000125863
0.000124261
0.000121472
0.000116897
0.00011008
0.000100907
8.97336e-05
7.7364e-05
6.48409e-05
5.3146e-05
4.29576e-05
3.45665e-05
2.79388e-05
2.28469e-05
1.89927e-05
1.60869e-05
1.38857e-05
1.21997e-05
1.08885e-05
9.85077e-06
9.01438e-06
8.32833e-06
7.75639e-06
7.27259e-06
6.85807e-06
6.49892e-06
6.18474e-06
5.90755e-06
5.66118e-06
5.44077e-06
5.24243e-06
5.06302e-06
4.89995e-06
4.75112e-06
4.61474e-06
4.48932e-06
4.3736e-06
4.2665e-06
4.1671e-06
4.07461e-06
3.98832e-06
3.90761e-06
3.8319e-06
3.76051e-06
0.000402582
0.000396952
0.000390719
0.000383685
0.000376172
0.000368384
0.000360457
0.000352481
0.000344519
0.000336613
0.000328795
0.000321086
0.000313501
0.000306052
0.000298744
0.000291582
0.000284567
0.000277701
0.000270981
0.000264406
0.000257974
0.000251684
0.000245532
0.000239518
0.000233641
0.000227903
0.000222303
0.000216843
0.000211525
0.000206346
0.000201305
0.000196394
0.000191603
0.000186918
0.000182318
0.000177783
0.000173291
0.000168826
0.000164377
0.00015995
0.000155565
0.000151265
0.000147112
0.000143186
0.00013958
0.000136388
0.000133694
0.000131552
0.000129965
0.00012886
0.000128059
0.000127245
0.000125954
0.00012359
0.000119509
0.000113175
0.000104366
9.33397e-05
8.08548e-05
6.79818e-05
5.57888e-05
4.50582e-05
3.61635e-05
2.91154e-05
2.36977e-05
1.96032e-05
1.65256e-05
1.42037e-05
1.24333e-05
1.10629e-05
9.98324e-06
9.11675e-06
8.40869e-06
7.82035e-06
7.32408e-06
6.89991e-06
6.53318e-06
6.21292e-06
5.93081e-06
5.6804e-06
5.45665e-06
5.25552e-06
5.07375e-06
4.90869e-06
4.75815e-06
4.62031e-06
4.49362e-06
4.37681e-06
4.26876e-06
4.16854e-06
4.07532e-06
3.98839e-06
3.90711e-06
3.83089e-06
3.75906e-06
0.000407235
0.000401554
0.000395252
0.00038813
0.000380518
0.000372625
0.000364591
0.000356508
0.000348441
0.000340435
0.00033252
0.000324718
0.000317046
0.000309512
0.000302124
0.000294884
0.000287795
0.000280857
0.000274067
0.000267425
0.000260927
0.000254572
0.000248357
0.00024228
0.000236341
0.000230541
0.000224879
0.000219359
0.00021398
0.000208742
0.000203644
0.00019868
0.00019384
0.000189109
0.000184469
0.000179898
0.000175374
0.000170877
0.000166395
0.000161929
0.000157496
0.000153134
0.000148903
0.000144882
0.000141166
0.000137853
0.000135034
0.000132774
0.000131093
0.000129938
0.000129153
0.000128446
0.000127371
0.000125339
0.000121681
0.0001158
0.00010738
9.65796e-05
8.40882e-05
7.09753e-05
5.83713e-05
4.71533e-05
3.7781e-05
3.03199e-05
2.45743e-05
2.02341e-05
1.6979e-05
1.45315e-05
1.26732e-05
1.12411e-05
1.01179e-05
9.22023e-06
8.48951e-06
7.88437e-06
7.37541e-06
6.94146e-06
6.56706e-06
6.24071e-06
5.95368e-06
5.69925e-06
5.47218e-06
5.26829e-06
5.0842e-06
4.91717e-06
4.76496e-06
4.62568e-06
4.49776e-06
4.37988e-06
4.27091e-06
4.16987e-06
4.07594e-06
3.98839e-06
3.90657e-06
3.82987e-06
3.7576e-06
0.00041174
0.000406025
0.000399673
0.000392484
0.000384793
0.000376814
0.000368688
0.000360512
0.000352351
0.000344251
0.000336245
0.000328354
0.000320594
0.000312976
0.000305506
0.000298187
0.000291022
0.00028401
0.00027715
0.000270438
0.000263873
0.000257452
0.000251173
0.000245033
0.000239032
0.00023317
0.000227447
0.000221866
0.000216427
0.000211131
0.000205976
0.000200957
0.000196067
0.00019129
0.000186609
0.000182001
0.000177444
0.000172917
0.000168404
0.000163903
0.000159427
0.000155011
0.000150711
0.000146604
0.000142785
0.000139355
0.000136412
0.000134031
0.000132244
0.000131016
0.000130213
0.000129567
0.000128657
0.0001269
0.000123617
0.000118163
0.000110137
9.95987e-05
8.716e-05
7.38708e-05
6.09088e-05
4.92381e-05
3.94058e-05
3.15376e-05
2.54636e-05
2.08748e-05
1.74391e-05
1.48636e-05
1.29154e-05
1.14205e-05
1.02529e-05
9.32359e-06
8.56994e-06
7.94786e-06
7.42616e-06
6.98244e-06
6.60041e-06
6.26799e-06
5.97609e-06
5.7177e-06
5.48736e-06
5.28074e-06
5.09437e-06
4.92542e-06
4.77157e-06
4.63089e-06
4.50177e-06
4.38285e-06
4.27298e-06
4.17116e-06
4.07654e-06
3.98839e-06
3.90604e-06
3.82887e-06
3.75619e-06
0.000416087
0.000410343
0.000403951
0.000396706
0.000388948
0.000380895
0.000372691
0.000364433
0.000356188
0.000348004
0.000339912
0.000331938
0.000324095
0.000316396
0.000308847
0.000301452
0.000294211
0.000287126
0.000280195
0.000273415
0.000266783
0.000260297
0.000253953
0.000247751
0.000241688
0.000235765
0.000229981
0.00022434
0.000218841
0.000213487
0.000208276
0.000203203
0.000198262
0.000193439
0.000188716
0.000184071
0.000179482
0.000174925
0.000170383
0.00016585
0.000161335
0.00015687
0.000152507
0.000148321
0.000144407
0.000140867
0.000137804
0.000135302
0.000133405
0.000132094
0.000131255
0.000130644
0.000129862
0.000128342
0.000125398
0.000120345
0.000112709
0.000102453
9.01061e-05
7.66869e-05
6.34072e-05
5.13111e-05
4.10332e-05
3.27627e-05
2.63602e-05
2.15209e-05
1.79025e-05
1.51971e-05
1.3158e-05
1.15994e-05
1.0387e-05
9.42594e-06
8.64932e-06
8.01035e-06
7.47597e-06
7.02256e-06
6.63299e-06
6.29462e-06
5.99793e-06
5.73564e-06
5.5021e-06
5.29283e-06
5.10424e-06
4.93342e-06
4.77797e-06
4.63594e-06
4.50565e-06
4.38572e-06
4.27498e-06
4.1724e-06
4.07712e-06
3.98839e-06
3.90553e-06
3.8279e-06
3.75482e-06
0.000420271
0.000414499
0.00040807
0.000400774
0.000392957
0.000384838
0.000376564
0.000368232
0.000359912
0.00035165
0.000343481
0.000335429
0.00032751
0.000319735
0.000312111
0.000304642
0.000297329
0.000290174
0.000283174
0.000276326
0.000269629
0.000263079
0.000256673
0.00025041
0.000244286
0.000238303
0.000232461
0.00022676
0.000221204
0.000215792
0.000210525
0.0002054
0.000200408
0.000195538
0.000190773
0.000186092
0.00018147
0.000176883
0.000172313
0.00016775
0.0001632
0.000158691
0.00015427
0.000150012
0.000146009
0.000142366
0.000139188
0.000136568
0.000134561
0.000133162
0.000132276
0.000131683
0.000131003
0.000129689
0.000127051
0.000122376
0.000115123
0.000105161
9.29359e-05
7.94247e-05
6.58626e-05
5.33666e-05
4.26572e-05
3.39899e-05
2.72599e-05
2.21691e-05
1.83665e-05
1.55303e-05
1.33994e-05
1.17768e-05
1.05196e-05
9.52671e-06
8.72721e-06
8.07148e-06
7.52458e-06
7.06163e-06
6.66466e-06
6.32045e-06
6.01908e-06
5.75301e-06
5.51636e-06
5.30451e-06
5.11376e-06
4.94112e-06
4.78414e-06
4.64079e-06
4.50938e-06
4.38848e-06
4.2769e-06
4.17359e-06
4.07767e-06
3.98838e-06
3.90503e-06
3.82698e-06
3.7535e-06
0.000424283
0.000418484
0.00041202
0.000404678
0.000396805
0.000388625
0.000380285
0.000371886
0.000363495
0.000355163
0.000346923
0.000338799
0.000330808
0.000322962
0.000315267
0.000307729
0.000300348
0.000293126
0.00028606
0.000279149
0.000272389
0.000265777
0.000259311
0.000252988
0.000246807
0.000240766
0.000234866
0.000229109
0.000223496
0.000218029
0.000212708
0.00020753
0.000202489
0.000197573
0.000192767
0.000188049
0.000183394
0.000178779
0.000174181
0.00016959
0.000165008
0.000160458
0.000155985
0.00015166
0.000147574
0.000143834
0.000140548
0.000137814
0.000135698
0.000134209
0.00013327
0.00013268
0.000132083
0.000130948
0.000128589
0.000124269
0.000117386
0.000107726
9.56461e-05
8.20765e-05
6.82652e-05
5.53946e-05
4.42693e-05
3.52128e-05
2.81578e-05
2.28158e-05
1.88288e-05
1.58612e-05
1.36384e-05
1.19518e-05
1.06499e-05
9.62537e-06
8.80322e-06
8.13096e-06
7.57175e-06
7.09947e-06
6.69528e-06
6.34538e-06
6.03947e-06
5.76972e-06
5.53007e-06
5.31573e-06
5.1229e-06
4.94852e-06
4.79006e-06
4.64544e-06
4.51295e-06
4.39112e-06
4.27873e-06
4.17472e-06
4.0782e-06
3.98837e-06
3.90456e-06
3.82609e-06
3.75225e-06
0.000428116
0.00042229
0.000415792
0.000408404
0.000400479
0.000392241
0.00038384
0.000375377
0.000366922
0.000358523
0.000350216
0.000342026
0.000333968
0.000326055
0.000318295
0.000310691
0.000303247
0.000295961
0.000288833
0.000281861
0.000275041
0.000268372
0.000261848
0.000255469
0.000249232
0.000243136
0.000237181
0.00023137
0.000225703
0.000220183
0.000214809
0.000209581
0.000204492
0.000199531
0.000194685
0.00018993
0.000185244
0.0001806
0.000175977
0.000171359
0.000166747
0.000162159
0.000157638
0.000153252
0.00014909
0.000145259
0.000141871
0.000139029
0.000136807
0.000135227
0.000134229
0.000133631
0.0001331
0.000132121
0.000130015
0.000126025
0.0001195
0.000110143
9.8228e-05
8.46302e-05
7.06017e-05
5.73829e-05
4.58592e-05
3.64234e-05
2.90481e-05
2.34569e-05
1.92863e-05
1.6188e-05
1.38737e-05
1.21234e-05
1.07771e-05
9.72144e-06
8.87699e-06
8.18852e-06
7.61729e-06
7.13591e-06
6.72471e-06
6.36931e-06
6.05902e-06
5.78573e-06
5.54318e-06
5.32645e-06
5.13163e-06
4.95557e-06
4.79569e-06
4.64987e-06
4.51635e-06
4.39363e-06
4.28047e-06
4.1758e-06
4.0787e-06
3.98837e-06
3.9041e-06
3.82524e-06
3.75105e-06
0.000431756
0.000425905
0.000419375
0.000411944
0.000403969
0.000395676
0.000387218
0.000378695
0.000370178
0.000361717
0.000353348
0.000345094
0.000336974
0.000328999
0.000321177
0.000313512
0.000306007
0.000298662
0.000291476
0.000284447
0.000277571
0.000270846
0.000264269
0.000257836
0.000251546
0.000245398
0.000239392
0.000233529
0.000227811
0.00022224
0.000216816
0.00021154
0.000206404
0.000201401
0.000196515
0.000191725
0.000187008
0.000182337
0.000177689
0.000173046
0.000168406
0.000163784
0.00015922
0.000154778
0.000150545
0.00014663
0.000143146
0.0001402
0.000137877
0.000136208
0.000135148
0.000134534
0.000134053
0.000133209
0.00013133
0.000127647
0.000121463
0.000112408
0.000100672
8.70721e-05
7.28571e-05
5.93176e-05
4.74155e-05
3.76129e-05
2.99244e-05
2.4088e-05
1.9736e-05
1.65084e-05
1.41037e-05
1.22906e-05
1.09007e-05
9.81439e-06
8.94816e-06
8.24389e-06
7.66099e-06
7.17081e-06
6.75285e-06
6.39215e-06
6.07766e-06
5.80097e-06
5.55565e-06
5.33663e-06
5.13992e-06
4.96226e-06
4.80104e-06
4.65407e-06
4.51957e-06
4.39601e-06
4.28212e-06
4.17682e-06
4.07917e-06
3.98836e-06
3.90367e-06
3.82444e-06
3.74992e-06
0.000435193
0.000429318
0.000422757
0.000415285
0.000407263
0.000398919
0.000390405
0.000381826
0.000373251
0.000364732
0.000356304
0.000347992
0.000339813
0.00033178
0.0003239
0.000316178
0.000308617
0.000301216
0.000293975
0.000286892
0.000279964
0.000273187
0.000266559
0.000260077
0.000253737
0.00024754
0.000241485
0.000235574
0.000229807
0.000224188
0.000218718
0.000213395
0.000208216
0.000203172
0.000198248
0.000193425
0.000188678
0.000183981
0.000179309
0.000174643
0.000169978
0.000165325
0.000160721
0.000156228
0.000151931
0.000147937
0.000144363
0.000141321
0.000138901
0.000137145
0.000136021
0.000135385
0.000134942
0.000134213
0.000132538
0.000129137
0.000123276
0.000114516
0.000102968
8.93889e-05
7.50167e-05
6.11843e-05
4.89259e-05
3.87717e-05
3.07797e-05
2.4704e-05
2.01745e-05
1.68201e-05
1.43268e-05
1.24524e-05
1.10198e-05
9.90372e-06
9.01634e-06
8.2968e-06
7.70266e-06
7.20402e-06
6.77957e-06
6.41382e-06
6.09531e-06
5.81539e-06
5.56744e-06
5.34626e-06
5.14774e-06
4.96858e-06
4.80608e-06
4.65803e-06
4.5226e-06
4.39825e-06
4.28368e-06
4.17778e-06
4.07961e-06
3.98835e-06
3.90327e-06
3.82369e-06
3.74886e-06
0.000438414
0.000432516
0.000425926
0.000418417
0.00041035
0.000401958
0.000393393
0.000384761
0.000376132
0.000367558
0.000359075
0.000350708
0.000342474
0.000334387
0.000326453
0.000318678
0.000311064
0.000303612
0.00029632
0.000289187
0.00028221
0.000275385
0.000268709
0.00026218
0.000255794
0.000249552
0.000243451
0.000237495
0.000231683
0.00022602
0.000220505
0.000215139
0.000209919
0.000204836
0.000199876
0.000195021
0.000190246
0.000185525
0.00018083
0.000176143
0.000171454
0.000166773
0.000162134
0.000157594
0.000153238
0.000149173
0.000145516
0.000142384
0.000139871
0.000138031
0.000136844
0.000136181
0.000135764
0.000135134
0.00013364
0.000130497
0.000124937
0.000116463
0.000105107
9.15682e-05
7.70658e-05
6.29688e-05
5.0378e-05
3.989e-05
3.16068e-05
2.52999e-05
2.05983e-05
1.71208e-05
1.45414e-05
1.26075e-05
1.11338e-05
9.98887e-06
9.08115e-06
8.34697e-06
7.74208e-06
7.23538e-06
6.80477e-06
6.43422e-06
6.11191e-06
5.82895e-06
5.57851e-06
5.35529e-06
5.15507e-06
4.97449e-06
4.8108e-06
4.66174e-06
4.52544e-06
4.40034e-06
4.28513e-06
4.17867e-06
4.08002e-06
3.98834e-06
3.90289e-06
3.82299e-06
3.74787e-06
0.000441406
0.000435487
0.000428871
0.000421327
0.000413219
0.000404782
0.00039617
0.000387489
0.00037881
0.000370185
0.000361651
0.000353233
0.000344948
0.00033681
0.000328827
0.000321002
0.00031334
0.000305839
0.0002985
0.000291321
0.000284298
0.000277429
0.000270709
0.000264137
0.000257709
0.000251424
0.000245281
0.000239283
0.00023343
0.000227725
0.000222169
0.000216763
0.000211505
0.000206385
0.000201392
0.000196507
0.000191705
0.00018696
0.000182245
0.000177538
0.000172828
0.000168122
0.000163451
0.000158869
0.000154461
0.000150331
0.000146598
0.000143381
0.000140782
0.000138863
0.000137613
0.000136919
0.00013652
0.000135974
0.000134639
0.000131729
0.000126449
0.000118246
0.000107084
9.35986e-05
7.89907e-05
6.46571e-05
5.17594e-05
4.09579e-05
3.23981e-05
2.58703e-05
2.10036e-05
1.74079e-05
1.47459e-05
1.27549e-05
1.12417e-05
1.00693e-05
9.14222e-06
8.39414e-06
7.77905e-06
7.26475e-06
6.82833e-06
6.45327e-06
6.1274e-06
5.84157e-06
5.58882e-06
5.36369e-06
5.1619e-06
4.97999e-06
4.81518e-06
4.66518e-06
4.52807e-06
4.40229e-06
4.28648e-06
4.17951e-06
4.08041e-06
3.98833e-06
3.90255e-06
3.82234e-06
3.74695e-06
0.000444159
0.000438221
0.000431581
0.000424005
0.00041586
0.000407382
0.000398727
0.00039
0.000381275
0.000372604
0.000364023
0.000355557
0.000347226
0.000339042
0.000331012
0.000323142
0.000315435
0.00030789
0.000300508
0.000293286
0.000286222
0.000279311
0.000272551
0.000265939
0.000259472
0.000253148
0.000246967
0.000240931
0.000235039
0.000229296
0.000223703
0.00021826
0.000212966
0.000207813
0.000202789
0.000197875
0.000193049
0.000188283
0.000183548
0.000178823
0.000174094
0.000169366
0.000164666
0.000160047
0.000155591
0.000151403
0.0001476
0.000144307
0.000141629
0.000139634
0.000138325
0.000137598
0.00013721
0.000136733
0.000135538
0.000132837
0.000127812
0.000119864
0.000108891
9.54705e-05
8.07791e-05
6.6236e-05
5.30582e-05
4.19656e-05
3.31463e-05
2.64099e-05
2.13868e-05
1.76789e-05
1.49386e-05
1.28933e-05
1.13428e-05
1.01445e-05
9.19917e-06
8.43802e-06
7.81339e-06
7.29198e-06
6.85015e-06
6.47089e-06
6.14171e-06
5.85323e-06
5.59833e-06
5.37144e-06
5.16818e-06
4.98506e-06
4.81922e-06
4.66835e-06
4.5305e-06
4.40408e-06
4.28772e-06
4.18028e-06
4.08076e-06
3.98833e-06
3.90223e-06
3.82175e-06
3.74612e-06
0.000446662
0.000440707
0.000434047
0.000426442
0.000418264
0.000409749
0.000401054
0.000392286
0.000383519
0.000374805
0.000366181
0.000357673
0.0003493
0.000341073
0.000333002
0.000325091
0.000317342
0.000309758
0.000302336
0.000295075
0.000287973
0.000281025
0.000274229
0.000267581
0.000261078
0.000254719
0.000248503
0.000242432
0.000236505
0.000230728
0.0002251
0.000219624
0.000214297
0.000209114
0.000204061
0.000199122
0.000194273
0.000189486
0.000184734
0.000179993
0.000175247
0.000170499
0.000165774
0.000161123
0.000156625
0.000152383
0.000148519
0.000145156
0.000142406
0.000140342
0.000138975
0.000138216
0.000137833
0.000137413
0.000136339
0.000133823
0.00012903
0.000121317
0.000110525
9.71753e-05
8.24194e-05
6.76934e-05
5.42629e-05
4.29034e-05
3.3844e-05
2.69135e-05
2.17442e-05
1.79314e-05
1.51177e-05
1.30218e-05
1.14364e-05
1.0214e-05
9.25163e-06
8.47836e-06
7.84491e-06
7.31693e-06
6.87011e-06
6.487e-06
6.15478e-06
5.86388e-06
5.607e-06
5.3785e-06
5.17391e-06
4.98967e-06
4.8229e-06
4.67123e-06
4.53271e-06
4.40571e-06
4.28885e-06
4.18098e-06
4.08109e-06
3.98833e-06
3.90195e-06
3.82122e-06
3.74536e-06
0.000448908
0.000442938
0.000436259
0.000428629
0.000420421
0.000411872
0.000403142
0.000394338
0.000385534
0.000376782
0.00036812
0.000359573
0.000351162
0.000342897
0.000334788
0.00032684
0.000319055
0.000311435
0.000303978
0.000296682
0.000289545
0.000282564
0.000275735
0.000269055
0.00026252
0.00025613
0.000249883
0.00024378
0.000237823
0.000232014
0.000226356
0.00022085
0.000215494
0.000210282
0.000205204
0.000200241
0.000195372
0.000190567
0.0001858
0.000181043
0.000176282
0.000171517
0.00016677
0.000162091
0.000157556
0.000153268
0.000149349
0.000145924
0.000143108
0.000140981
0.000139562
0.00013877
0.000138388
0.000138015
0.000137044
0.00013469
0.000130104
0.000122605
0.000111982
9.87058e-05
8.39017e-05
6.90179e-05
5.53629e-05
4.37625e-05
3.44843e-05
2.73759e-05
2.20723e-05
1.81629e-05
1.52816e-05
1.31392e-05
1.15217e-05
1.02771e-05
9.29926e-06
8.51493e-06
7.87343e-06
7.33947e-06
6.88813e-06
6.50152e-06
6.16655e-06
5.87346e-06
5.61481e-06
5.38485e-06
5.17906e-06
4.99382e-06
4.8262e-06
4.67382e-06
4.53469e-06
4.40717e-06
4.28987e-06
4.18161e-06
4.08139e-06
3.98834e-06
3.90169e-06
3.82074e-06
3.74468e-06
0.000450888
0.000444905
0.00043821
0.000430558
0.000422324
0.000413747
0.000404986
0.000396149
0.000387312
0.000378526
0.00036983
0.00036125
0.000352805
0.000344507
0.000336365
0.000328384
0.000320567
0.000312915
0.000305427
0.000298101
0.000290934
0.000283923
0.000277065
0.000270356
0.000263794
0.000257376
0.000251101
0.000244971
0.000238986
0.00023315
0.000227465
0.000221932
0.00021655
0.000211314
0.000206213
0.00020123
0.000196342
0.000191521
0.00018674
0.00018197
0.000177197
0.000172417
0.000167651
0.000162946
0.000158379
0.000154052
0.000150085
0.000146605
0.000143732
0.000141549
0.000140081
0.000139259
0.000138875
0.00013854
0.000137657
0.000135443
0.000131036
0.000123728
0.00011326
0.000100056
8.52172e-05
7.01995e-05
5.63481e-05
4.45343e-05
3.50606e-05
2.77923e-05
2.23677e-05
1.83711e-05
1.54288e-05
1.32444e-05
1.15981e-05
1.03335e-05
9.34173e-06
8.54747e-06
7.89878e-06
7.35949e-06
6.90412e-06
6.51439e-06
6.17698e-06
5.88194e-06
5.62171e-06
5.39047e-06
5.18361e-06
4.99749e-06
4.82913e-06
4.67611e-06
4.53645e-06
4.40847e-06
4.29077e-06
4.18216e-06
4.08165e-06
3.98834e-06
3.90147e-06
3.82032e-06
3.74409e-06
0.000452596
0.000446602
0.000439894
0.000432223
0.000423966
0.000415364
0.000406577
0.000397713
0.000388847
0.000380033
0.000371308
0.000362699
0.000354225
0.000345898
0.000337728
0.000329719
0.000321874
0.000314194
0.000306679
0.000299326
0.000292133
0.000285097
0.000278214
0.000271481
0.000264894
0.000258452
0.000252154
0.000246
0.000239992
0.000234132
0.000228423
0.000222868
0.000217463
0.000212206
0.000207085
0.000202083
0.000197179
0.000192345
0.000187551
0.000182771
0.000177986
0.000173194
0.000168412
0.000163687
0.000159093
0.000154731
0.000150723
0.000147197
0.000144273
0.000142041
0.000140532
0.000139682
0.000139294
0.000138988
0.000138178
0.000136082
0.00013183
0.000124688
0.000114357
0.000101222
8.63583e-05
7.12291e-05
5.72099e-05
4.52112e-05
3.55668e-05
2.81583e-05
2.26273e-05
1.85539e-05
1.5558e-05
1.33366e-05
1.16649e-05
1.03828e-05
9.37874e-06
8.5758e-06
7.92081e-06
7.37687e-06
6.91798e-06
6.52555e-06
6.18602e-06
5.88928e-06
5.62769e-06
5.39533e-06
5.18755e-06
5.00066e-06
4.83165e-06
4.67809e-06
4.53796e-06
4.40959e-06
4.29155e-06
4.18265e-06
4.08188e-06
3.98835e-06
3.90129e-06
3.81997e-06
3.74358e-06
0.000454026
0.000448024
0.000441304
0.000433619
0.000425343
0.000416721
0.000407911
0.000399024
0.000390135
0.000381296
0.000372547
0.000363914
0.000355415
0.000347065
0.00033887
0.000330838
0.000322969
0.000315267
0.000307729
0.000300354
0.00029314
0.000286082
0.000279178
0.000272424
0.000265817
0.000259355
0.000253037
0.000246863
0.000240835
0.000234956
0.000229228
0.000223652
0.000218229
0.000212954
0.000207816
0.0002028
0.000197882
0.000193036
0.000188232
0.000183443
0.000178648
0.000173845
0.000169051
0.000164309
0.000159692
0.000155302
0.00015126
0.000147695
0.000144729
0.000142456
0.000140911
0.000140037
0.000139644
0.000139361
0.00013861
0.000136611
0.000132488
0.000125485
0.000115272
0.000102198
8.73187e-05
7.20991e-05
5.79404e-05
4.57863e-05
3.59975e-05
2.84699e-05
2.28483e-05
1.87094e-05
1.56677e-05
1.34148e-05
1.17215e-05
1.04245e-05
9.41003e-06
8.59971e-06
7.9394e-06
7.39152e-06
6.92966e-06
6.53494e-06
6.19362e-06
5.89545e-06
5.63271e-06
5.39941e-06
5.19086e-06
5.00332e-06
4.83377e-06
4.67976e-06
4.53924e-06
4.41053e-06
4.2922e-06
4.18306e-06
4.08207e-06
3.98836e-06
3.90114e-06
3.81967e-06
3.74316e-06
0.000455176
0.000449167
0.000442438
0.00043474
0.00042645
0.000417811
0.000408984
0.000400078
0.00039117
0.000382312
0.000373544
0.000364891
0.000356373
0.000348003
0.000339789
0.000331738
0.000323851
0.00031613
0.000308574
0.000301181
0.000293949
0.000286874
0.000279954
0.000273183
0.00026656
0.000260082
0.000253747
0.000247558
0.000241514
0.000235619
0.000229875
0.000224284
0.000218846
0.000213556
0.000208405
0.000203376
0.000198447
0.000193592
0.00018878
0.000183983
0.000179181
0.00017437
0.000169565
0.000164809
0.000160175
0.000155763
0.000151693
0.000148096
0.000145097
0.000142791
0.000141217
0.000140322
0.000139924
0.000139659
0.000138954
0.000137032
0.000133012
0.000126122
0.000116005
0.000102983
8.80933e-05
7.28031e-05
5.85331e-05
4.62538e-05
3.6348e-05
2.87236e-05
2.30282e-05
1.8836e-05
1.5757e-05
1.34783e-05
1.17674e-05
1.04582e-05
9.43536e-06
8.61906e-06
7.95442e-06
7.40335e-06
6.93908e-06
6.54252e-06
6.19974e-06
5.90043e-06
5.63676e-06
5.40271e-06
5.19353e-06
5.00547e-06
4.83548e-06
4.6811e-06
4.54027e-06
4.41129e-06
4.29273e-06
4.18339e-06
4.08223e-06
3.98837e-06
3.90101e-06
3.81943e-06
3.74282e-06
0.00045604
0.000450027
0.000443291
0.000435585
0.000427284
0.000418632
0.000409792
0.000400872
0.00039195
0.000383078
0.000374295
0.000365627
0.000357095
0.00034871
0.000340482
0.000332416
0.000324515
0.00031678
0.00030921
0.000301804
0.000294559
0.000287472
0.000280538
0.000273755
0.000267119
0.000260629
0.000254283
0.000248081
0.000242025
0.000236118
0.000230362
0.00022476
0.00021931
0.00021401
0.000208848
0.00020381
0.000198873
0.000194011
0.000189192
0.000184389
0.000179582
0.000174765
0.000169952
0.000165187
0.000160539
0.00015611
0.00015202
0.0001484
0.000145376
0.000143044
0.000141447
0.000140537
0.000140135
0.000139882
0.000139211
0.000137346
0.000133403
0.000126598
0.000116555
0.000103574
8.8678e-05
7.33358e-05
5.89826e-05
4.66089e-05
3.66146e-05
2.89167e-05
2.31651e-05
1.89323e-05
1.58248e-05
1.35266e-05
1.18022e-05
1.04839e-05
9.45455e-06
8.6337e-06
7.96578e-06
7.41229e-06
6.94621e-06
6.54824e-06
6.20437e-06
5.90419e-06
5.63982e-06
5.40519e-06
5.19554e-06
5.00709e-06
4.83678e-06
4.68211e-06
4.54105e-06
4.41186e-06
4.29313e-06
4.18364e-06
4.08236e-06
3.98838e-06
3.90093e-06
3.81926e-06
3.74257e-06
0.000456619
0.000450602
0.000443862
0.00043615
0.000427841
0.000419182
0.000410333
0.000401404
0.000392472
0.00038359
0.000374797
0.00036612
0.000357578
0.000349183
0.000340946
0.00033287
0.00032496
0.000317216
0.000309637
0.000302222
0.000294968
0.000287871
0.000280929
0.000274138
0.000267494
0.000260996
0.000254641
0.000248432
0.000242368
0.000236453
0.000230689
0.000225079
0.000219621
0.000214313
0.000209145
0.000204101
0.000199158
0.000194291
0.000189468
0.000184662
0.000179851
0.000175029
0.000170212
0.000165439
0.000160783
0.000156343
0.000152239
0.000148604
0.000145562
0.000143214
0.000141602
0.000140681
0.000140276
0.000140031
0.000139382
0.000137555
0.000133663
0.000126915
0.000116922
0.000103969
8.90698e-05
7.36935e-05
5.92848e-05
4.6848e-05
3.67942e-05
2.90468e-05
2.32573e-05
1.89971e-05
1.58705e-05
1.35591e-05
1.18257e-05
1.05011e-05
9.46745e-06
8.64354e-06
7.97341e-06
7.4183e-06
6.95099e-06
6.55209e-06
6.20748e-06
5.90672e-06
5.64188e-06
5.40686e-06
5.1969e-06
5.00818e-06
4.83765e-06
4.6828e-06
4.54157e-06
4.41225e-06
4.29341e-06
4.18382e-06
4.08244e-06
3.98839e-06
3.90087e-06
3.81915e-06
3.74241e-06
0.00045691
0.000450891
0.00044415
0.000436434
0.000428122
0.000419459
0.000410605
0.000401672
0.000392735
0.000383848
0.00037505
0.000366368
0.000357821
0.000349422
0.000341179
0.000333099
0.000325184
0.000317435
0.000309851
0.000302432
0.000295173
0.000288073
0.000281126
0.000274331
0.000267683
0.00026118
0.000254822
0.000248608
0.00024254
0.000236621
0.000230853
0.000225239
0.000219778
0.000214466
0.000209294
0.000204247
0.000199302
0.000194432
0.000189607
0.000184799
0.000179986
0.000175162
0.000170342
0.000165566
0.000160906
0.00015646
0.000152349
0.000148706
0.000145656
0.000143299
0.00014168
0.000140754
0.000140346
0.000140106
0.000139467
0.000137659
0.000133793
0.000127074
0.000117106
0.000104167
8.92668e-05
7.38735e-05
5.94372e-05
4.69686e-05
3.68848e-05
2.91125e-05