/*--------------------------------*- C++ -*----------------------------------*\
  =========                 |
  \\      /  F ield         | OpenFOAM: The Open Source CFD Toolbox
   \\    /   O peration     | Website:  https://openfoam.org
    \\  /    A nd           | Version:  7
     \\/     M anipulation  |
\*---------------------------------------------------------------------------*/
FoamFile
{
    version     2.0;
    format      ascii;
    class       surfaceScalarField;
    location    "4000";
    object      phi;
}
// * * * * * * * * * * * * * * * * * * * * * * * * * * * * * * * * * * * * * //

dimensions      [0 3 -1 0 0 0 0];

internalField   nonuniform List<scalar> 
9414
(
-2.8913e-26
2.87787e-25
-1.62268e-25
2.79862e-25
-3.76636e-25
2.7837e-25
-5.64691e-25
2.96162e-25
-4.42855e-24
2.91048e-25
-2.60346e-24
2.9748e-25
-2.79426e-24
2.94986e-25
-2.8902e-24
2.77439e-25
-1.92633e-24
2.67499e-25
2.78409e-25
-6.50755e-24
2.13223e-25
-4.63234e-24
2.1871e-25
-4.52948e-24
1.39576e-25
-4.65806e-24
1.18191e-25
-5.26843e-24
1.348e-25
-8.02586e-24
9.06055e-26
-1.08839e-23
1.86522e-25
-8.53542e-24
2.28088e-25
-6.34613e-24
2.24341e-25
-2.55262e-24
2.37675e-25
-3.15834e-24
1.97401e-25
-3.492e-24
1.74322e-25
-5.75869e-24
1.52659e-25
-5.06286e-24
1.19225e-25
-1.2675e-24
1.71602e-25
-1.34373e-24
1.71742e-25
-1.67285e-24
2.07706e-25
-2.19799e-24
2.5091e-25
-4.42892e-25
1.73841e-25
3.16673e-24
1.78266e-25
2.82853e-24
1.2851e-25
3.12328e-24
5.69743e-26
-4.04545e-24
1.22529e-26
-4.0091e-24
4.37129e-26
-3.82711e-24
8.54178e-26
-2.03434e-26
1.26967e-25
3.80363e-24
1.04688e-25
3.90063e-24
6.83644e-26
1.96111e-24
6.68742e-26
4.07033e-24
9.88906e-26
6.25914e-24
1.03403e-25
5.98454e-24
1.09071e-25
3.90273e-24
1.16858e-25
1.64756e-24
1.03163e-25
1.69336e-24
1.06197e-25
1.88608e-24
1.40554e-25
2.00595e-24
1.47454e-25
2.63485e-24
1.61754e-25
2.73882e-24
1.78252e-25
2.59828e-24
1.86105e-25
1.92663e-24
1.53274e-25
2.66727e-24
1.8613e-25
2.38049e-24
1.71516e-25
2.8285e-24
1.55577e-25
-1.50792e-24
1.41353e-25
-1.41293e-24
1.54637e-25
-1.97911e-24
1.71248e-25
2.18263e-24
1.51572e-25
7.57971e-25
1.28413e-25
-9.91818e-25
1.20095e-25
-2.8544e-24
1.09232e-25
-2.99963e-24
1.26247e-25
-3.04973e-24
1.20723e-25
5.67489e-25
1.04587e-25
8.82998e-26
-6.32903e-24
-3.88486e-25
-8.09941e-24
-4.94272e-25
-7.48965e-24
-4.53398e-25
-7.36701e-24
-4.82678e-25
-7.07879e-24
-5.03469e-25
-8.88936e-24
-4.71871e-25
-1.06772e-23
-4.75341e-25
-1.02979e-23
-4.03226e-25
-1.01221e-23
-2.25967e-25
-1.16511e-23
-2.15623e-25
-1.15292e-23
-1.48534e-25
-1.14014e-23
-1.11235e-25
-1.07701e-23
-1.01572e-25
-8.17076e-24
-6.02928e-26
-8.15038e-24
1.27725e-26
-7.59898e-24
3.3573e-26
-1.09274e-23
5.5164e-26
-1.62043e-23
9.3744e-26
-1.36082e-23
1.78622e-25
-1.29249e-23
1.97154e-25
-1.48869e-23
2.3786e-25
-1.27027e-23
2.64516e-25
-1.25919e-23
3.13399e-25
-1.24564e-23
3.54793e-25
-1.01201e-23
3.95164e-25
-9.89791e-24
3.89518e-25
-9.62848e-24
3.92264e-25
-3.84067e-24
4.0433e-25
-3.64264e-24
3.73332e-25
-3.50172e-24
3.58398e-25
-1.40066e-24
3.90928e-25
-1.76515e-24
3.53972e-25
-4.09439e-24
3.41032e-25
-2.19418e-25
3.23701e-25
-5.36608e-25
3.10399e-25
1.13826e-24
3.1224e-25
8.20929e-25
2.98453e-25
-1.81424e-24
2.94059e-25
-1.18265e-24
2.81796e-25
-1.99013e-24
2.51543e-25
-2.39813e-24
2.4848e-25
-2.93778e-24
2.42041e-25
-2.95275e-24
2.05675e-25
-2.27174e-24
2.04856e-25
1.32096e-24
2.16408e-25
-1.03392e-24
2.27362e-25
-3.28665e-24
2.26884e-25
-3.49744e-24
2.26574e-25
-2.75041e-24
2.47702e-25
-3.8661e-24
2.19939e-25
-5.05411e-24
2.22022e-25
-6.46124e-24
2.27441e-25
-6.9255e-24
2.39452e-25
-7.3481e-24
2.6059e-25
2.60393e-25
-1.77443e-23
-3.91725e-26
-1.47027e-23
1.20127e-25
-1.51101e-23
1.24019e-25
-1.17897e-23
1.14653e-25
-7.00678e-24
1.34324e-25
-5.38128e-24
8.56886e-26
-1.88737e-24
1.01161e-25
-2.71104e-24
6.81258e-26
-7.36891e-24
6.37298e-26
-8.06353e-24
1.24234e-25
-8.25195e-24
1.31846e-25
-7.9662e-24
1.94745e-25
-3.78425e-24
2.30502e-25
5.16715e-25
2.77221e-25
-1.77465e-24
2.69544e-25
-1.47833e-24
2.36395e-25
-1.18837e-24
2.71036e-25
-1.08446e-24
3.28133e-25
-5.48967e-25
3.25278e-25
3.17367e-25
4.08544e-25
8.95215e-25
4.09859e-25
1.59651e-24
4.71091e-25
1.67096e-24
4.52867e-25
-4.20058e-25
4.7781e-25
-2.83073e-24
5.57977e-25
-5.07152e-24
5.69331e-25
-2.81578e-24
5.81736e-25
-2.58964e-24
5.92064e-25
-4.99471e-25
6.00511e-25
1.60659e-24
5.85152e-25
-2.79409e-24
5.80808e-25
8.51301e-25
5.73773e-25
-1.39112e-24
5.83935e-25
2.47603e-24
6.17085e-25
2.78313e-24
5.99525e-25
3.62387e-24
5.78636e-25
1.72132e-24
5.69634e-25
1.85223e-24
5.72987e-25
1.88069e-24
5.5853e-25
1.90712e-24
5.6251e-25
1.74844e-24
5.74434e-25
6.87443e-25
5.52266e-25
4.19441e-25
5.49299e-25
2.41332e-24
5.58573e-25
4.46839e-24
5.61455e-25
3.94341e-24
5.50147e-25
5.21331e-24
5.67714e-25
3.58453e-24
5.41096e-25
2.05785e-24
5.17983e-25
1.49937e-24
5.25309e-25
3.04719e-24
5.21575e-25
2.77272e-24
5.06796e-25
4.17432e-24
4.9479e-25
5.44779e-24
4.86259e-25
4.86531e-25
-8.29004e-24
9.07444e-26
-8.06939e-24
9.43139e-26
-1.02581e-23
1.68393e-25
-7.93365e-24
2.67499e-25
-7.93096e-24
3.2391e-25
-2.86038e-24
3.82459e-25
-6.07841e-25
3.10494e-25
-2.78379e-24
2.10836e-25
-5.17081e-24
1.66429e-25
-5.47275e-24
1.1932e-25
-3.51586e-24
2.06669e-25
-1.59395e-24
2.83485e-25
-1.7551e-24
2.74472e-25
-1.72192e-24
2.0107e-25
-3.97382e-24
1.622e-25
-3.44197e-24
1.69606e-25
-6.97428e-24
1.94396e-25
-6.06997e-24
1.70644e-25
-5.59065e-24
2.02382e-25
-7.37741e-24
1.823e-25
-8.89357e-24
2.01427e-25
-9.92257e-24
1.93386e-25
-9.37733e-24
2.23428e-25
-8.20984e-24
1.82195e-25
-1.12382e-23
1.3551e-25
-1.16051e-23
1.28503e-25
-8.58613e-24
1.76889e-25
-8.92853e-24
1.40426e-25
-5.6309e-24
1.13448e-25
-8.66088e-24
1.14832e-25
-1.18583e-23
1.24025e-25
-8.97533e-24
1.45831e-25
-6.14618e-24
1.55919e-25
-1.08564e-23
9.45452e-26
-1.00408e-23
1.35936e-25
-8.67827e-24
1.76357e-25
-8.44238e-24
1.70828e-25
-1.1276e-23
1.67132e-25
-1.27746e-23
1.8012e-25
-1.44375e-23
1.91235e-25
-1.25589e-23
2.16489e-25
-1.03998e-23
2.36026e-25
-7.8037e-24
2.51947e-25
-5.0556e-24
2.54317e-25
-4.34881e-24
2.30473e-25
-5.92014e-24
2.24586e-25
-8.05078e-24
1.97355e-25
-9.97927e-24
2.01567e-25
-9.16962e-24
2.35047e-25
-9.6045e-24
2.27385e-25
-9.1734e-24
2.25958e-25
-8.82694e-24
2.32731e-25
-7.7174e-24
2.30875e-25
-7.95621e-24
2.27858e-25
2.09722e-25
-8.94971e-24
-4.79567e-26
-9.06616e-24
4.01713e-26
-8.96601e-24
4.10975e-26
-8.89268e-24
3.81512e-26
-9.02629e-24
4.03908e-26
-1.27976e-23
2.84909e-26
-1.32007e-23
6.82049e-26
-1.41736e-23
9.33481e-26
-1.21356e-23
4.72719e-26
-6.92207e-24
1.57164e-25
-6.95081e-24
1.73548e-25
-9.06238e-24
1.30276e-25
-9.1208e-24
1.83101e-25
-9.60068e-24
2.31025e-25
-5.96338e-24
2.1107e-25
-5.87777e-24
1.91483e-25
-3.67761e-24
1.16278e-25
-3.96567e-24
1.28101e-25
-3.86191e-24
1.44534e-25
1.58527e-25
1.61665e-25
-3.1915e-24
1.56498e-25
-1.73825e-24
1.28338e-25
-2.45278e-24
1.20441e-25
-4.18086e-24
1.51654e-25
-1.86549e-24
1.37607e-25
-3.78561e-24
1.49354e-25
-7.16688e-24
1.16897e-25
-6.97165e-24
1.48967e-25
-6.52837e-24
1.70294e-25
-3.88617e-24
1.72626e-25
-3.44595e-24
1.6241e-25
-2.56101e-24
1.85574e-25
-4.53246e-24
1.99859e-25
1.0481e-24
2.67195e-25
1.17724e-24
2.54598e-25
-5.8383e-25
2.39168e-25
-1.09792e-24
2.38526e-25
1.23042e-24
2.39489e-25
3.06487e-24
2.42429e-25
1.01086e-24
2.3841e-25
1.11895e-24
1.99191e-25
5.06717e-25
2.02402e-25
-8.99212e-26
1.81788e-25
-2.56431e-24
1.67203e-25
-2.6654e-24
1.51257e-25
-5.05258e-24
1.28538e-25
-3.14967e-24
1.41062e-25
-2.27203e-24
1.47908e-25
-2.09961e-24
1.15646e-25
-2.19263e-24
1.22726e-25
-2.36823e-24
1.18285e-25
-2.62467e-24
1.00849e-25
-3.15085e-24
9.47075e-26
-3.57364e-24
8.32733e-26
8.28859e-26
-3.32151e-24
1.48969e-25
-2.40246e-24
5.69686e-26
-1.53471e-24
2.36742e-26
-3.83031e-24
4.13044e-26
-4.0791e-24
9.9028e-27
-4.39156e-24
8.7844e-27
-6.46637e-24
2.36984e-26
-6.41523e-24
1.38616e-25
-1.24419e-24
1.86495e-25
7.66485e-25
1.41336e-25
-1.63515e-24
1.54943e-25
-2.05003e-24
1.67303e-25
-4.5341e-24
1.53591e-25
-1.02148e-23
1.50063e-25
-1.00167e-23
2.07035e-25
-1.00599e-23
2.39947e-25
-8.42678e-24
2.74417e-25
-8.39706e-24
2.86055e-25
-8.86427e-24
2.9706e-25
-1.11898e-23
2.72862e-25
-1.16877e-23
3.03154e-25
-1.2128e-23
3.06414e-25
-1.25379e-23
3.43324e-25
-1.2897e-23
3.6952e-25
-1.12377e-23
3.84274e-25
-9.57477e-24
4.2824e-25
-1.23255e-23
4.65523e-25
-9.13049e-24
5.02058e-25
-1.03056e-23
4.74537e-25
-6.86962e-24
4.62921e-25
-3.03506e-24
4.4547e-25
-3.09313e-24
4.44666e-25
-3.34995e-24
4.22142e-25
-6.0015e-24
4.00843e-25
-6.3792e-24
4.00331e-25
-8.37781e-24
3.47985e-25
-6.19897e-24
3.04078e-25
-6.9909e-24
2.57436e-25
-6.89462e-24
2.48815e-25
-7.02801e-24
2.52128e-25
-7.08309e-24
2.53036e-25
-8.13466e-24
2.30447e-25
-6.53225e-24
2.73401e-25
-7.61471e-24
2.5824e-25
-7.31005e-24
2.72295e-25
-5.87051e-24
2.81096e-25
-8.12402e-24
2.50291e-25
-6.44846e-24
2.52472e-25
-5.86378e-24
2.4794e-25
-4.18364e-24
2.40974e-25
-5.59555e-24
2.2355e-25
-3.14779e-24
2.19396e-25
-3.32755e-24
2.05267e-25
-2.50642e-24
1.99075e-25
-3.80888e-24
2.06334e-25
-2.18888e-24
2.10142e-25
2.57971e-25
2.26882e-25
3.5831e-26
2.3528e-25
2.45217e-25
-1.73877e-23
-2.9243e-25
-1.46972e-23
-2.43725e-25
-1.22572e-23
-2.04419e-25
-1.19192e-23
-1.62614e-25
-1.18057e-23
-8.37698e-26
-9.67426e-24
-2.98224e-26
-5.85594e-24
1.80277e-26
-1.00339e-23
1.71996e-26
-9.84482e-24
2.8035e-26
-7.66358e-24
1.08541e-25
-7.36093e-24
6.58197e-26
-7.12743e-24
4.96348e-26
-7.38843e-24
8.74208e-26
-7.68023e-24
1.21534e-25
-7.22175e-24
9.16612e-26
-7.24052e-24
1.57483e-25
-4.81221e-24
1.92897e-25
-3.86286e-24
1.98595e-25
-3.6425e-24
2.41913e-25
-3.8434e-24
2.5799e-25
-1.93758e-24
2.43828e-25
-2.97726e-24
2.61958e-25
-3.32323e-24
2.48089e-25
-3.24199e-24
2.6608e-25
-3.52964e-24
2.57423e-25
-1.38565e-24
2.60432e-25
-3.40879e-24
2.45484e-25
-8.7687e-24
1.7318e-25
-8.46682e-24
1.97614e-25
-8.15518e-24
2.34077e-25
-5.53741e-24
2.49537e-25
-5.23699e-24
2.28916e-25
-3.18041e-24
1.83764e-25
-8.41319e-24
1.76577e-25
-9.59995e-24
1.62294e-25
-1.24269e-23
1.51297e-25
-1.20143e-23
1.76904e-25
-8.04182e-24
1.8083e-25
-9.30969e-24
1.86968e-25
-8.37955e-24
1.81728e-25
-6.35867e-24
1.68511e-25
-5.85386e-24
1.64837e-25
-5.2521e-24
1.49473e-25
-7.29346e-24
1.33447e-25
-9.39989e-24
1.25375e-25
-9.43557e-24
1.4733e-25
-7.53295e-24
1.6033e-25
-7.78631e-24
1.66779e-25
-9.07962e-24
1.40918e-25
-7.33053e-24
1.42278e-25
-7.40553e-24
1.41072e-25
-7.52696e-24
1.2556e-25
-4.93529e-24
1.39962e-25
-6.63049e-25
1.36181e-25
-6.64332e-25
1.12921e-25
1.16667e-24
1.04834e-25
3.06228e-25
8.06664e-26
3.57337e-25
8.64185e-26
-2.1753e-24
6.79791e-26
6.07959e-26
-5.59371e-24
-5.44769e-25
-5.28904e-24
-4.80217e-25
-5.9885e-24
-3.70184e-25
-6.38756e-24
-3.47946e-25
-8.55102e-24
-4.05938e-25
-8.43656e-24
-3.22763e-25
-8.02866e-24
-3.46336e-25
-9.85267e-24
-3.22417e-25
-1.15586e-23
-2.99325e-25
-1.00463e-23
-2.76645e-25
-7.10891e-24
-2.46948e-25
-6.32098e-24
-2.43068e-25
-7.70474e-24
-2.35331e-25
-9.37937e-24
-2.14677e-25
-1.12935e-23
-1.57276e-25
-1.08987e-23
-1.30701e-25
-1.04587e-23
-1.14576e-25
-9.91117e-24
-1.56086e-25
-1.15964e-23
-8.41902e-26
-1.52242e-23
-9.52306e-26
-1.46666e-23
-7.61603e-26
-1.44595e-23
-9.2117e-26
-1.15955e-23
-9.72653e-26
-1.08207e-23
-1.28213e-25
-1.06831e-23
-1.31555e-25
-1.44298e-23
-1.47219e-25
-1.82298e-23
-1.44123e-25
-1.82267e-23
-7.73517e-26
-1.42487e-23
-3.86636e-26
-1.39817e-23
-6.25208e-26
-1.77704e-23
-4.61761e-26
-1.74839e-23
-6.98932e-27
-1.56109e-23
3.98748e-26
-1.35452e-23
8.61995e-26
-1.38222e-23
6.92632e-26
-1.38558e-23
8.15419e-26
-1.18392e-23
1.44245e-25
-9.79536e-24
1.34779e-25
-9.96905e-24
1.13227e-25
-1.00566e-23
8.83241e-26
-7.69766e-24
1.37437e-25
-7.79479e-24
9.49472e-26
-8.165e-24
8.79267e-26
-8.64789e-24
1.08205e-25
-3.41687e-24
1.03908e-25
-5.61647e-24
7.71624e-26
-7.92767e-24
7.49871e-26
-9.6771e-24
7.54474e-26
-8.84198e-24
9.48493e-26
-9.8012e-24
1.05982e-25
-8.70145e-24
1.27133e-25
-8.8642e-24
1.36286e-25
-8.71944e-24
1.31908e-25
-6.76697e-24
1.36885e-25
-6.8988e-24
1.54199e-25
-7.9653e-24
1.44895e-25
-3.53291e-24
1.42176e-25
-5.48178e-24
1.27777e-25
-5.5439e-24
1.20729e-25
-5.37614e-24
1.11443e-25
-2.72091e-24
1.14567e-25
2.43073e-27
1.15142e-25
2.72217e-24
1.06123e-25
2.71633e-24
1.01244e-25
1.05279e-24
1.14599e-25
3.7174e-24
1.07969e-25
3.87992e-24
9.09259e-26
7.20601e-24
8.07979e-26
7.25297e-24
6.45882e-26
8.83639e-24
4.75904e-26
8.17807e-24
2.417e-26
6.10998e-24
4.84363e-27
8.12499e-24
-2.5905e-26
5.84504e-24
-4.43869e-26
7.0161e-24
-6.09043e-26
6.76354e-24
-7.19279e-26
6.06692e-24
-8.59815e-26
4.54225e-24
-9.75629e-26
4.79118e-24
-1.06876e-25
4.18081e-24
-1.13982e-25
3.74192e-24
-1.1949e-25
4.38249e-24
-1.21057e-25
3.55685e-24
-1.21534e-25
3.25633e-24
-1.20718e-25
2.97622e-24
-1.13872e-25
2.74605e-24
-1.10009e-25
1.63253e-24
-9.91235e-26
2.46469e-24
-8.15762e-26
1.96081e-24
-6.21177e-26
1.1112e-24
-3.83837e-26
2.97902e-25
-1.1817e-26
2.04006e-25
1.59222e-26
-6.10737e-26
4.60438e-26
-4.34159e-26
7.51164e-26
-2.15073e-26
-8.15336e-24
-1.30108e-25
-6.57108e-24
-1.18664e-25
-6.99965e-24
-1.06799e-25
-6.98174e-24
-1.60675e-25
-4.83357e-24
-6.24974e-26
-4.64553e-24
-7.56355e-26
-4.69918e-24
-3.3296e-26
-4.42689e-24
-7.25057e-26
-5.04615e-24
-7.7527e-26
-3.20748e-24
-6.46842e-26
-2.95469e-24
-1.17348e-25
-6.17434e-25
-1.40503e-25
-4.12221e-25
-1.31004e-25
-8.65829e-26
-2.00324e-25
-2.14936e-24
-2.25227e-25
-1.9995e-24
-2.61774e-25
-1.34227e-24
-3.10627e-25
1.02894e-24
-3.09493e-25
-8.76892e-25
-4.14389e-25
-6.00269e-24
-4.5582e-25
-5.82785e-24
-4.96502e-25
-8.15887e-24
-4.87836e-25
-8.07418e-24
-5.08456e-25
-7.7009e-24
-5.23472e-25
-7.45747e-24
-5.27377e-25
-7.32166e-24
-5.51535e-25
-7.17352e-24
-5.46936e-25
-9.34667e-24
-5.6436e-25
-1.12544e-23
-5.50057e-25
-1.10391e-23
-5.03715e-25
-8.48133e-24
-4.57317e-25
-1.03146e-23
-4.70977e-25
-1.02701e-23
-4.48463e-25
-1.59688e-23
-4.2637e-25
-1.34696e-23
-3.96609e-25
-1.52711e-23
-3.48516e-25
-1.91254e-23
-3.58632e-25
-1.96347e-23
-3.17038e-25
-1.94387e-23
-3.02488e-25
-1.9309e-23
-2.57679e-25
-1.80529e-23
-2.35896e-25
-1.66312e-23
-2.4926e-25
-1.5707e-23
-1.98678e-25
-1.36662e-23
-2.14927e-25
-1.35593e-23
-1.96235e-25
-1.25351e-23
-1.90453e-25
-1.27158e-23
-2.13101e-25
-1.24874e-23
-2.02318e-25
-1.22135e-23
-1.75208e-25
-8.21852e-24
-1.43e-25
-1.08129e-23
-1.34394e-25
-1.02824e-23
-1.06335e-25
-8.88647e-24
-7.0661e-26
-1.13552e-23
-4.43195e-26
-1.10044e-23
-3.22204e-26
-8.86611e-24
-1.50399e-26
-1.04079e-23
8.38027e-27
-7.40698e-24
2.91358e-26
-7.38817e-24
1.91517e-26
-4.79026e-24
4.09142e-26
-2.10331e-24
4.88867e-26
-9.48908e-25
4.77243e-26
1.01023e-24
5.12481e-26
1.9951e-24
6.44577e-26
-2.36786e-24
5.98676e-26
-2.41097e-24
6.52271e-26
-2.48548e-24
8.64964e-26
-2.41807e-24
8.45927e-26
-1.13308e-24
9.65973e-26
-2.5742e-24
7.97934e-26
-2.60372e-24
7.52971e-26
-4.14083e-24
5.71808e-26
-3.17884e-24
4.70215e-26
-1.34279e-24
3.84581e-26
-4.23065e-25
2.68885e-26
-8.5088e-25
4.88381e-27
-9.33991e-25
-1.12125e-26
-1.65086e-25
-3.00001e-26
-1.33588e-24
-3.92338e-26
-4.2093e-25
-4.55929e-26
-1.60594e-24
-5.70314e-26
-1.0221e-24
-5.98918e-26
-1.14081e-24
-6.19675e-26
-1.31868e-24
-5.79318e-26
-2.22151e-24
-5.49523e-26
-1.57672e-24
-4.34881e-26
-1.01689e-24
-3.17718e-26
-6.71881e-25
-1.44145e-26
8.57138e-27
8.63214e-27
-1.07424e-25
3.35795e-26
1.51921e-25
6.41352e-26
4.98679e-25
9.8858e-26
2.20194e-25
1.38376e-25
7.78687e-26
1.82596e-25
-2.16917e-27
-3.06756e-24
-7.17551e-25
-6.60196e-24
-6.85055e-25
-8.15661e-24
-7.48456e-25
-7.75746e-24
-6.95698e-25
-9.52754e-24
-7.5524e-25
-9.11936e-24
-7.06028e-25
-1.06214e-23
-6.68388e-25
-1.21932e-23
-6.83773e-25
-1.38179e-23
-6.14309e-25
-1.29955e-23
-5.91895e-25
-1.25341e-23
-5.63473e-25
-8.3686e-24
-6.03472e-25
-1.20105e-23
-6.11045e-25
-1.55815e-23
-6.23084e-25
-1.50041e-23
-6.4532e-25
-1.66503e-23
-5.62219e-25
-1.44363e-23
-5.73542e-25
-1.89074e-23
-6.05369e-25
-1.69234e-23
-5.44435e-25
-1.70241e-23
-5.47645e-25
-1.69553e-23
-5.54473e-25
-1.67889e-23
-5.66311e-25
-1.65128e-23
-5.69012e-25
-1.41308e-23
-5.74292e-25
-1.38376e-23
-5.54324e-25
-1.16725e-23
-5.49521e-25
-1.16643e-23
-5.752e-25
-9.57897e-24
-5.66482e-25
-7.31894e-24
-5.61483e-25
-7.04334e-24
-5.75676e-25
-6.58864e-24
-6.05396e-25
-4.29511e-24
-6.06377e-25
-8.27491e-24
-6.19433e-25
-4.79532e-24
-5.93791e-25
-5.14766e-24
-6.29725e-25
-9.03469e-24
-6.41473e-25
-1.27215e-23
-6.11891e-25
-1.267e-23
-5.57231e-25
-1.29611e-23
-5.32114e-25
-1.60957e-23
-5.29678e-25
-1.39376e-23
-4.9525e-25
-1.58714e-23
-4.71707e-25
-1.57547e-23
-4.40893e-25
-1.77563e-23
-4.23583e-25
-1.75408e-23
-4.11029e-25
-1.6955e-23
-3.72729e-25
-1.29098e-23
-3.35751e-25
-9.24523e-24
-3.17189e-25
-6.82718e-24
-3.2791e-25
-8.2475e-24
-3.32761e-25
-6.85483e-24
-3.20644e-25
-6.50344e-24
-3.10496e-25
-7.10365e-24
-3.17265e-25
-1.03629e-23
-3.26849e-25
-1.13636e-23
-3.238e-25
-1.00793e-23
-3.27376e-25
-1.32502e-23
-3.25637e-25
-1.55094e-23
-3.37653e-25
-1.53134e-23
-3.25591e-25
-1.4929e-23
-3.24181e-25
-1.10334e-23
-3.13579e-25
-8.10329e-24
-3.39864e-25
-7.75793e-24
-3.60081e-25
-7.38351e-24
-3.80248e-25
-5.85337e-24
-4.10233e-25
-5.3182e-24
-4.34093e-25
-6.48651e-24
-4.64603e-25
-8.46959e-24
-5.22502e-25
-7.88869e-24
-5.58079e-25
-8.68949e-24
-5.93032e-25
-8.16179e-24
-6.31426e-25
-7.38106e-24
-6.70423e-25
-6.65948e-24
-7.10281e-25
-7.3565e-24
-7.45071e-25
-6.47334e-24
-7.77449e-25
-7.71973e-24
-7.98366e-25
-6.20312e-24
-8.20491e-25
-5.10804e-24
-8.29567e-25
-5.02547e-24
-8.39292e-25
-6.29691e-24
-8.37519e-25
-6.67859e-24
-8.25305e-25
-5.91563e-24
-8.08624e-25
-5.18078e-24
-7.83575e-25
-5.41241e-24
-7.59105e-25
-4.70131e-24
-7.21749e-25
-3.42414e-24
-6.7391e-25
-2.15753e-24
-6.23219e-25
-1.61956e-24
-5.61184e-25
-1.12981e-24
-4.89859e-25
-1.37056e-24
-4.08273e-25
-9.9828e-25
-3.15349e-25
-7.01249e-25
-2.1293e-25
-5.08445e-26
-9.88433e-26
-8.41172e-26
2.38253e-26
-8.10684e-26
-4.07971e-24
-7.22042e-25
-3.70322e-24
-7.88901e-25
-4.20763e-24
-8.44241e-25
-6.33911e-24
-9.55124e-25
-3.8699e-24
-9.51193e-25
-3.93333e-24
-9.40993e-25
-3.49179e-24
-9.71713e-25
-3.57247e-24
-1.00204e-24
-5.71739e-24
-9.98862e-25
-7.91614e-24
-9.81375e-25
-7.91579e-24
-9.2593e-25
-7.91053e-24
-9.36157e-25
-8.61425e-24
-9.24959e-25
-8.59972e-24
-9.21818e-25
-8.55922e-24
-8.98297e-25
-1.04733e-23
-8.81129e-25
-1.29363e-23
-8.7896e-25
-8.76344e-24
-8.43054e-25
-1.24811e-23
-8.6973e-25
-1.25876e-23
-8.29833e-25
-1.25161e-23
-7.9123e-25
-1.29133e-23
-7.35423e-25
-1.29111e-23
-6.9205e-25
-8.938e-24
-6.89402e-25
-1.08797e-23
-6.69767e-25
-1.07657e-23
-6.85519e-25
-7.29738e-24
-6.57217e-25
-7.72903e-24
-6.02877e-25
-8.22447e-24
-6.02909e-25
-1.1117e-23
-5.72161e-25
-7.77046e-24
-5.39104e-25
-8.11073e-24
-5.89994e-25
-6.51499e-24
-5.91827e-25
-6.6843e-24
-6.17971e-25
-5.10291e-24
-6.1658e-25
-5.86075e-24
-6.07847e-25
-2.45733e-24
-6.09015e-25
-6.66925e-25
-6.38533e-25
-4.93076e-24
-6.42124e-25
-2.99749e-24
-6.22406e-25
-2.76037e-24
-6.27428e-25
-4.74756e-24
-6.24771e-25
-7.06345e-24
-5.89595e-25
-7.2778e-24
-5.8183e-25
-8.02736e-24
-5.77908e-25
-7.76205e-24
-5.63943e-25
-9.70111e-24
-5.47897e-25
-8.83714e-24
-5.22891e-25
-8.79063e-24
-5.28074e-25
-1.10047e-23
-5.10955e-25
-9.66006e-24
-5.01908e-25
-8.09579e-24
-5.11715e-25
-8.43996e-24
-5.26786e-25
-7.98504e-24
-5.27647e-25
-7.72649e-24
-5.33755e-25
-7.61696e-24
-5.33518e-25
-9.25733e-24
-5.52832e-25
-7.67402e-24
-5.5253e-25
-9.29533e-24
-5.58226e-25
-1.08057e-23
-5.81346e-25
-9.49466e-24
-5.89921e-25
-8.24558e-24
-5.95223e-25
-7.97557e-24
-5.95558e-25
-7.54124e-24
-6.15665e-25
-4.51537e-24
-6.32101e-25
-6.00081e-24
-6.62112e-25
-5.79854e-24
-6.98257e-25
-5.41316e-24
-7.11285e-25
-4.33297e-24
-7.48729e-25
-3.89958e-24
-7.86801e-25
-3.57098e-24
-8.20948e-25
-3.35497e-24
-8.52266e-25
-3.25864e-24
-8.78533e-25
-2.97491e-24
-9.00989e-25
-2.72434e-24
-9.22403e-25
-3.25284e-24
-9.40502e-25
-1.93643e-24
-9.44598e-25
-1.51822e-24
-9.50952e-25
-6.51211e-25
-9.44447e-25
9.82962e-25
-9.41862e-25
1.50124e-24
-9.26553e-25
2.90219e-25
-9.07955e-25
4.01456e-25
-8.79601e-25
4.93041e-25
-8.40802e-25
-2.54146e-25
-7.90599e-25
5.04669e-26
-7.34361e-25
-2.99877e-25
-6.72667e-25
-2.82188e-25
-5.97612e-25
-5.02667e-27
-5.14048e-25
4.90288e-25
-4.19924e-25
4.7493e-25
-3.14383e-25
1.62997e-25
-1.97715e-25
-8.39259e-26
-6.99721e-26
2.8359e-26
6.7423e-26
-5.25981e-26
-8.29238e-24
-6.67197e-25
-9.09645e-24
-5.75144e-25
-1.00216e-23
-5.29317e-25
-1.01061e-23
-5.68563e-25
-6.01418e-24
-5.51436e-25
-5.65131e-24
-6.21521e-25
-5.73699e-24
-6.06694e-25
-4.00673e-24
-6.65588e-25
-3.88445e-24
-8.02843e-25
-3.4447e-24
-8.52688e-25
-3.74426e-24
-1.00398e-24
-4.01341e-24
-1.03855e-24
-3.81761e-24
-1.04866e-24
-4.1706e-24
-1.12388e-24
-8.25353e-24
-1.14277e-24
-8.70338e-24
-1.1566e-24
-8.97718e-24
-1.14463e-24
-8.53921e-24
-1.17764e-24
-8.9551e-24
-1.15872e-24
-8.57792e-24
-1.14496e-24
-8.53667e-24
-1.13007e-24
-1.05311e-23
-1.11883e-24
-1.41399e-23
-1.10713e-24
-1.17909e-23
-1.07623e-24
-1.17671e-23
-1.06122e-24
-1.2624e-23
-1.04458e-24
-8.77725e-24
-9.88057e-25
-1.08011e-23
-1.02401e-24
-1.07228e-23
-1.05007e-24
-1.39348e-23
-1.07482e-24
-1.70208e-23
-1.09543e-24
-1.85995e-23
-1.04698e-24
-1.43213e-23
-1.05106e-24
-1.42888e-23
-1.04073e-24
-1.65028e-23
-1.00733e-24
-1.65536e-23
-9.80292e-25
-1.71208e-23
-9.53684e-25
-1.47842e-23
-9.77163e-25
-1.43147e-23
-9.72163e-25
-1.75971e-23
-9.45985e-25
-1.48285e-23
-9.13129e-25
-1.36391e-23
-8.95175e-25
-1.24855e-23
-9.02734e-25
-1.19035e-23
-8.8441e-25
-1.16224e-23
-8.62933e-25
-8.62653e-24
-8.50632e-25
-8.71214e-24
-8.31214e-25
-1.06902e-23
-8.07415e-25
-6.63206e-24
-7.86736e-25
-6.40898e-24
-8.06909e-25
-7.68728e-24
-8.32037e-25
-8.32468e-24
-8.25339e-25
-9.8746e-24
-8.06643e-25
-9.56555e-24
-8.22122e-25
-1.10168e-23
-8.25618e-25
-1.16222e-23
-8.23614e-25
-1.14861e-23
-8.0556e-25
-1.24025e-23
-8.20766e-25
-1.48566e-23
-8.39898e-25
-1.47212e-23
-8.41115e-25
-1.18211e-23
-8.38403e-25
-1.06795e-23
-8.5363e-25
-1.14972e-23
-8.65676e-25
-1.04519e-23
-8.80039e-25
-1.02485e-23
-8.91962e-25
-8.29983e-24
-9.076e-25
-6.35939e-24
-9.24108e-25
-5.14354e-24
-9.46491e-25
-4.72266e-24
-9.74978e-25
-3.73914e-24
-9.85214e-25
-1.21574e-24
-1.01219e-24
-9.97533e-25
-1.03145e-24
-2.21496e-24
-1.04965e-24
-7.35808e-25
-1.0606e-24
-6.7884e-25
-1.07221e-24
2.13819e-24
-1.07679e-24
1.47917e-24
-1.08056e-24
1.30105e-24
-1.07188e-24
6.16094e-25
-1.06484e-24
6.4246e-25
-1.04635e-24
-1.48186e-24
-1.02936e-24
-1.36503e-24
-1.00011e-24
-2.70796e-25
-9.61082e-25
-1.99969e-25
-9.22472e-25
-9.54593e-25
-8.75039e-25
-8.52528e-25
-8.17387e-25
-4.77399e-25
-7.49107e-25
-3.74958e-25
-6.73466e-25
1.78661e-25
-5.87871e-25
4.41617e-25
-4.93195e-25
5.32558e-25
-3.88422e-25
-1.49733e-26
-2.72563e-25
-1.63018e-25
-1.45608e-25
-7.53498e-26
-1.00209e-26
-8.83701e-26
-6.51296e-24
-2.40218e-25
-7.31247e-24
-2.67043e-25
-8.5442e-24
-2.51299e-25
-1.11794e-23
-2.24623e-25
-7.51118e-24
-1.89777e-25
-8.11726e-24
-1.24601e-25
-1.09363e-23
-1.7439e-25
-1.16811e-23
-1.66362e-25
-1.25701e-23
-1.42146e-25
-1.57118e-23
-1.76493e-25
-1.13667e-23
-1.66495e-25
-1.02425e-23
-1.68851e-25
-1.02147e-23
-2.44519e-25
-6.9918e-24
-2.69448e-25
-7.76997e-24
-2.77705e-25
-6.50278e-24
-2.76221e-25
-7.59388e-24
-3.07012e-25
-4.85265e-24
-3.0853e-25
-4.87071e-24
-3.36228e-25
-3.74176e-24
-3.93085e-25
-4.32909e-24
-4.05838e-25
-1.14193e-24
-4.20093e-25
-1.66223e-24
-4.9199e-25
-2.10161e-24
-5.55929e-25
1.07077e-24
-5.918e-25
2.28746e-25
-6.12644e-25
8.00726e-25
-6.43124e-25
6.25557e-25
-7.03871e-25
4.35923e-25
-7.27527e-25
-3.2247e-25
-7.19259e-25
3.12767e-24
-7.60544e-25
3.10333e-24
-7.83689e-25
2.82491e-24
-7.88542e-25
6.5521e-24
-8.22507e-25
6.48108e-24
-8.31398e-25
3.77032e-24
-8.36825e-25
1.3963e-24
-8.74362e-25
3.64537e-24
-8.52373e-25
5.34149e-24
-8.43357e-25
5.27201e-24
-8.55255e-25
5.2046e-24
-8.60145e-25
3.12593e-24
-8.59257e-25
3.24552e-24
-8.69731e-25
5.21608e-24
-8.60679e-25
3.04251e-24
-8.71256e-25
3.36911e-24
-8.84683e-25
3.29465e-24
-8.91067e-25
-7.28828e-25
-9.05348e-25
-2.76256e-24
-9.22691e-25
-5.47615e-24
-9.22405e-25
1.09004e-25
-9.1159e-25
-1.1282e-24
-9.36092e-25
-3.00412e-24
-9.49596e-25
-4.72466e-24
-9.53475e-25
-4.57595e-24
-9.62471e-25
-4.36574e-24
-9.86844e-25
-8.59661e-24
-1.00139e-24
-8.44094e-24
-1.0032e-24
-8.21049e-24
-1.00126e-24
-6.85441e-24
-9.95472e-25
-6.71201e-24
-1.00418e-24
-4.59933e-24
-1.0011e-24
-6.2915e-24
-1.01535e-24
-5.80846e-24
-1.03676e-24
-3.64461e-24
-1.03892e-24
-2.3395e-24
-1.04653e-24
-1.11157e-24
-1.06582e-24
-8.1295e-25
-1.07486e-24
-5.66057e-25
-1.0937e-24
-4.11741e-25
-1.10928e-24
-4.86183e-25
-1.13394e-24
2.53236e-25
-1.16326e-24
-2.38933e-25
-1.18683e-24
-1.42317e-24
-1.2072e-24
1.34873e-25
-1.22391e-24
-1.09488e-24
-1.23139e-24
1.69421e-24
-1.23502e-24
1.94386e-24
-1.23502e-24
5.8669e-26
-1.2266e-24
3.82176e-25
-1.2133e-24
5.84253e-25
-1.18599e-24
7.87679e-25
-1.15966e-24
1.00095e-24
-1.12337e-24
1.17896e-24
-1.07482e-24
4.107e-25
-1.02043e-24
4.78799e-25
-9.51467e-25
6.35896e-25
-8.73553e-25
1.80646e-25
-7.84026e-25
-1.77495e-27
-6.85033e-25
-3.40333e-25
-5.70748e-25
1.43391e-25
-4.4579e-25
1.30734e-25
-3.07755e-25
3.16972e-27
-1.5997e-25
1.81024e-26
-2.16479e-27
-6.31823e-26
-5.38852e-24
-1.06646e-24
-5.22922e-24
-1.03137e-24
-5.4163e-24
-9.76005e-25
-8.77756e-24
-9.26606e-25
-6.05019e-24
-8.59805e-25
-9.85096e-24
-9.28015e-25
-9.68981e-24
-8.89948e-25
-9.10651e-24
-9.29329e-25
-1.39333e-23
-9.32937e-25
-1.35194e-23
-8.21318e-25
-1.09607e-23
-8.52179e-25
-1.3053e-23
-7.8163e-25
-1.25531e-23
-8.16118e-25
-9.90202e-24
-8.15444e-25
-9.0967e-24
-8.01755e-25
-8.62716e-24
-8.39665e-25
-8.38083e-24
-8.39092e-25
-1.00957e-23
-8.21048e-25
-9.79748e-24
-8.77829e-25
-9.36671e-24
-8.71541e-25
-8.40944e-24
-9.53287e-25
-1.36e-23
-9.5202e-25
-1.33268e-23
-9.23886e-25
-1.26434e-23
-8.75101e-25
-1.25109e-23
-8.4117e-25
-1.43461e-23
-8.4053e-25
-1.40713e-23
-8.32247e-25
-1.6292e-23
-7.64226e-25
-1.67338e-23
-7.12659e-25
-1.69557e-23
-6.61956e-25
-1.70854e-23
-6.04006e-25
-1.35077e-23
-6.01113e-25
-1.3528e-23
-5.62421e-25
-1.00159e-23
-5.18177e-25
-9.54033e-24
-4.76736e-25
-1.07472e-23
-4.64608e-25
-7.48962e-24
-4.55641e-25
-3.77905e-24
-4.39847e-25
-3.8471e-24
-4.68089e-25
-1.91717e-24
-4.93728e-25
-6.11069e-24
-5.15401e-25
-6.58585e-24
-5.13111e-25
-1.18524e-24
-5.05473e-25
6.54388e-25
-5.18235e-25
-1.57065e-24
-5.65188e-25
-8.82562e-25
-5.84594e-25
9.63067e-25
-6.18496e-25
-1.647e-24
-6.38804e-25
-2.20305e-24
-6.32881e-25
-2.52315e-24
-6.44635e-25
1.15474e-24
-6.64474e-25
-1.8911e-24
-6.7465e-25
-1.30358e-24
-6.83161e-25
-1.55064e-24
-6.77216e-25
3.3413e-26
-6.70354e-25
-1.23727e-24
-6.65103e-25
1.47918e-24
-6.63598e-25
1.14049e-24
-6.69709e-25
9.50844e-25
-6.68114e-25
8.45804e-25
-6.8532e-25
4.13905e-25
-6.73883e-25
-1.72334e-24
-6.71321e-25
-1.83155e-24
-6.71351e-25
4.30994e-26
-6.57105e-25
9.29107e-25
-6.61664e-25
3.39356e-24
-6.60846e-25
3.30221e-24
-6.65235e-25
3.21118e-24
-6.56398e-25
3.86284e-24
-6.61727e-25
4.59408e-24
-6.7224e-25
5.89328e-24
-6.8482e-25
4.11889e-24
-6.89413e-25
4.40956e-24
-6.95427e-25
4.15737e-24
-7.06787e-25
4.24787e-24
-7.07757e-25
4.99699e-24
-7.06648e-25
4.63532e-24
-7.07177e-25
4.5108e-24
-7.01696e-25
3.87597e-24
-6.93336e-25
2.01479e-24
-6.75253e-25
1.40896e-24
-6.62841e-25
8.04415e-25
-6.42714e-25
2.60689e-25
-6.15733e-25
-1.96455e-25
-5.88761e-25
1.51795e-24
-5.55631e-25
1.85061e-24
-5.19284e-25
2.11623e-24
-4.80812e-25
1.80036e-24
-4.31348e-25
7.78629e-25
-3.78067e-25
1.07644e-25
-3.14217e-25
3.25736e-25
-2.45143e-25
-1.2965e-25
-1.69256e-25
-9.17388e-26
-8.82106e-26
-1.29645e-26
-3.23637e-27
-6.50214e-26
-6.22824e-24
-7.62702e-25
-2.60759e-24
-7.97301e-25
-2.62979e-24
-8.45304e-25
-2.72461e-24
-9.14545e-25
-6.56859e-24
-9.81718e-25
-4.27514e-24
-9.31851e-25
-9.77177e-24
-9.4529e-25
-7.42775e-24
-9.71088e-25
-7.40109e-24
-1.01568e-24
-9.47209e-24
-1.06052e-24
-5.35034e-24
-1.11014e-24
-1.07021e-23
-1.16203e-24
-8.06306e-24
-1.16564e-24
-7.6907e-24
-1.13388e-24
-9.13138e-24
-1.16758e-24
-8.61738e-24
-1.14479e-24
-7.81881e-24
-1.1992e-24
-1.26259e-23
-1.22628e-24
-1.22129e-23
-1.09786e-24
-1.15551e-23
-1.05034e-24
-9.24014e-24
-9.90443e-25
-8.69343e-24
-9.92177e-25
-5.96053e-24
-9.30904e-25
-4.88393e-24
-9.04981e-25
-4.43821e-24
-8.97929e-25
-2.46397e-24
-8.43611e-25
2.70001e-24
-7.87511e-25
2.99423e-24
-7.51034e-25
4.04805e-24
-7.47003e-25
4.56194e-24
-7.71632e-25
2.87976e-24
-7.44539e-25
5.10813e-24
-7.25686e-25
7.40043e-24
-7.15152e-25
9.91861e-24
-7.2005e-25
6.71614e-24
-7.19125e-25
5.41826e-24
-7.58264e-25
5.9325e-24
-7.15074e-25
8.86648e-25
-7.2988e-25
1.40925e-24
-7.18581e-25
2.52231e-24
-6.79092e-25
5.02362e-24
-6.51257e-25
3.01209e-24
-6.21665e-25
2.55091e-24
-5.88757e-25
2.87602e-25
-5.68403e-25
-1.24319e-26
-5.42004e-25
1.53425e-24
-5.19788e-25
2.90861e-24
-4.71303e-25
4.38277e-24
-4.49205e-25
3.88059e-24
-4.47467e-25
4.91235e-24
-4.44462e-25
4.46061e-24
-4.26793e-25
5.26088e-24
-4.06991e-25
7.42378e-24
-3.79483e-25
9.68944e-24
-3.85363e-25
9.37405e-24
-3.73172e-25
8.96774e-24
-3.59578e-25
6.65556e-24
-3.52139e-25
8.17047e-24
-3.33674e-25
8.0025e-24
-3.36039e-25
9.64737e-24
-3.33132e-25
8.32648e-24
-3.29352e-25
8.09855e-24
-3.33641e-25
7.64862e-24
-3.07884e-25
7.46436e-24
-2.81134e-25
7.05453e-24
-2.7315e-25
9.44684e-24
-2.49971e-25
6.48574e-24
-2.46682e-25
6.84318e-24
-2.44237e-25
4.71558e-24
-2.38832e-25
4.2647e-24
-2.33124e-25
5.49802e-24
-2.28533e-25
2.22626e-24
-2.40762e-25
1.96669e-24
-2.37426e-25
3.89981e-24
-2.37393e-25
3.62406e-24
-2.31753e-25
3.43864e-24
-2.30201e-25
3.08089e-24
-2.27718e-25
2.60545e-24
-2.24431e-25
2.4013e-24
-2.20396e-25
1.49506e-24
-2.16762e-25
2.25923e-24
-2.07075e-25
2.77379e-24
-2.00242e-25
2.43162e-24
-1.95792e-25
2.02664e-24
-1.82743e-25
2.04233e-24
-1.72046e-25
1.71356e-24
-1.57164e-25
1.43718e-24
-1.40069e-25
1.14784e-24
-1.17179e-25
1.20711e-24
-9.00078e-26
5.57649e-25
-6.01494e-26
4.15373e-25
-2.65014e-26
2.89616e-25
1.05301e-26
2.02584e-25
4.94448e-26
6.95512e-26
8.77418e-26
1.27846e-26
8.33138e-25
-6.95968e-25
-1.35036e-24
-7.80931e-25
-4.97878e-24
-7.90618e-25
-4.77957e-24
-8.48835e-25
-4.55201e-24
-8.48222e-25
-6.58682e-24
-9.01969e-25
-1.20753e-23
-9.25012e-25
-1.22759e-23
-8.10824e-25