/*--------------------------------*- C++ -*----------------------------------*\
  =========                 |
  \\      /  F ield         | OpenFOAM: The Open Source CFD Toolbox
   \\    /   O peration     | Website:  https://openfoam.org
    \\  /    A nd           | Version:  7
     \\/     M anipulation  |
\*---------------------------------------------------------------------------*/
FoamFile
{
    version     2.0;
    format      ascii;
    class       volVectorField;
    location    "4000";
    object      vorticity;
}
// * * * * * * * * * * * * * * * * * * * * * * * * * * * * * * * * * * * * * //

dimensions      [0 0 -1 0 0 0 0];

internalField   nonuniform List<vector> 
4782
(
(-0.000781731 -0.000597754 2.84331e-18)
(-0.000794396 -0.000607439 2.81811e-18)
(-0.000806124 -0.000616767 2.88484e-18)
(-0.000816857 -0.000625648 3.03737e-18)
(-0.000826195 -0.00063377 3.21284e-18)
(-0.000834368 -0.000641293 3.37519e-18)
(-0.000842379 -0.000648947 3.53026e-18)
(-0.000852149 -0.000658119 3.67278e-18)
(-0.000866624 -0.000670926 3.78474e-18)
(-0.00089157 -0.000691522 3.90292e-18)
(-0.000250799 -0.00020716 8.77769e-19)
(-0.000254374 -0.000210651 8.82641e-19)
(-0.000258698 -0.000214502 9.10169e-19)
(-0.000263811 -0.000218828 9.40308e-19)
(-0.000269461 -0.0002235 9.41401e-19)
(-0.000275504 -0.000228443 9.40873e-19)
(-0.000281863 -0.000233618 9.45188e-19)
(-0.000288495 -0.000239004 9.29467e-19)
(-0.00029538 -0.000244589 8.83807e-19)
(-0.000302502 -0.000250368 8.2354e-19)
(-0.000309857 -0.000256337 7.59683e-19)
(-0.00031744 -0.000262494 7.04809e-19)
(-0.000325249 -0.00026884 6.65213e-19)
(-0.000333284 -0.000275376 6.42244e-19)
(-0.000341547 -0.000282102 6.3712e-19)
(-0.000350042 -0.000289023 6.57515e-19)
(-0.000358774 -0.000296142 6.95361e-19)
(-0.000367749 -0.000303465 7.2238e-19)
(-0.000376975 -0.000310995 7.16759e-19)
(-0.000386458 -0.000318739 6.76299e-19)
(-0.000396205 -0.000326701 6.05528e-19)
(-0.00040622 -0.000334885 5.31545e-19)
(-0.000416506 -0.00034329 4.84961e-19)
(-0.000427059 -0.000351917 4.54209e-19)
(-0.000437876 -0.000360762 4.20786e-19)
(-0.000448949 -0.000369821 3.89041e-19)
(-0.000460269 -0.000379089 3.6123e-19)
(-0.000471829 -0.000388564 3.45044e-19)
(-0.000483631 -0.000398251 3.48678e-19)
(-0.000495688 -0.000408162 3.64095e-19)
(-0.00050803 -0.000418324 3.90564e-19)
(-0.000520712 -0.000428782 4.27902e-19)
(-0.000533815 -0.000439594 4.78689e-19)
(-0.000547444 -0.000450834 5.33281e-19)
(-0.000561726 -0.000462587 5.75413e-19)
(-0.000576794 -0.000474932 6.15387e-19)
(-0.000592771 -0.000487935 6.68892e-19)
(-0.00060975 -0.000501631 7.11299e-19)
(-0.000627763 -0.000516005 7.11512e-19)
(-0.000646765 -0.000530984 6.7279e-19)
(-0.000666608 -0.000546432 6.10902e-19)
(-0.000687039 -0.000562156 5.36341e-19)
(-0.000707704 -0.000577933 4.51562e-19)
(-0.000728164 -0.000593529 3.74126e-19)
(-0.000747917 -0.000608738 3.18931e-19)
(-0.000766497 -0.000623289 2.68929e-19)
(-0.00078346 -0.000636904 1.86907e-19)
(-0.000798465 -0.000649275 7.98553e-20)
(-0.00081134 -0.000660181 -1.88987e-20)
(-0.000822209 -0.000669665 -9.96132e-20)
(-0.000831683 -0.000678178 -1.82577e-19)
(-0.000841053 -0.000686728 -2.82656e-19)
(-0.000852468 -0.000697019 -4.19074e-19)
(-0.000869075 -0.000711563 -5.81446e-19)
(-0.000896796 -0.000735072 -7.59768e-19)
(-0.000249494 -0.000217512 8.5369e-19)
(-0.000252657 -0.000220797 7.20582e-19)
(-0.000256486 -0.000224527 6.08426e-19)
(-0.000261132 -0.000228827 5.26321e-19)
(-0.000266392 -0.000233556 4.67994e-19)
(-0.00027213 -0.000238626 4.59387e-19)
(-0.000278257 -0.000243984 5.22327e-19)
(-0.000284713 -0.000249594 6.35935e-19)
(-0.000291458 -0.000255437 7.35386e-19)
(-0.000298467 -0.000261497 7.77227e-19)
(-0.000305722 -0.000267766 7.63585e-19)
(-0.000313213 -0.000274239 7.13654e-19)
(-0.000320933 -0.000280912 6.64824e-19)
(-0.000328879 -0.000287785 6.51357e-19)
(-0.000337052 -0.000294858 6.73239e-19)
(-0.000345453 -0.000302134 7.16287e-19)
(-0.000354087 -0.000309615 7.686e-19)
(-0.000362959 -0.000317307 8.09262e-19)
(-0.000372074 -0.000325214 8.18742e-19)
(-0.00038144 -0.000333341 7.95476e-19)
(-0.000391063 -0.000341693 7.62252e-19)
(-0.000400946 -0.000350273 7.51862e-19)
(-0.000411094 -0.000359085 7.89614e-19)
(-0.000421506 -0.000368129 8.63025e-19)
(-0.000432182 -0.000377406 9.22452e-19)
(-0.00044312 -0.000386914 9.35935e-19)
(-0.000454315 -0.000396653 8.85889e-19)
(-0.000465768 -0.000406624 7.85009e-19)
(-0.000477479 -0.000416832 6.85471e-19)
(-0.000489461 -0.000427289 6.14145e-19)
(-0.000501735 -0.000438011 5.42266e-19)
(-0.000514335 -0.000449029 4.38832e-19)
(-0.000527312 -0.00046038 3.2319e-19)
(-0.000540733 -0.000472112 2.21716e-19)
(-0.000554676 -0.000484282 1.26799e-19)
(-0.000569229 -0.00049695 4.4639e-20)
(-0.000584482 -0.000510175 -9.72957e-21)
(-0.000600512 -0.000524006 -5.04488e-20)
(-0.000617372 -0.000538477 -9.92536e-20)
(-0.000635072 -0.000553588 -1.74535e-19)
(-0.000653562 -0.000569299 -2.74097e-19)
(-0.000672716 -0.000585513 -3.75424e-19)
(-0.000692309 -0.000602062 -4.70723e-19)
(-0.000712016 -0.000618696 -5.58243e-19)
(-0.000731413 -0.000635086 -6.13507e-19)
(-0.000750005 -0.000650836 -6.44817e-19)
(-0.000767281 -0.000665534 -6.92638e-19)
(-0.00078281 -0.000678823 -7.80334e-19)
(-0.000796372 -0.000690524 -9.16213e-19)
(-0.00080812 -0.000700773 -1.06679e-18)
(-0.000818764 -0.000710179 -1.20153e-18)
(-0.000829738 -0.000719976 -1.309e-18)
(-0.000843354 -0.000732148 -1.41424e-18)
(-0.000862926 -0.000749539 -1.53897e-18)
(-0.000894497 -0.000777291 -1.65685e-18)
(-0.000246965 -0.000227548 1.032e-19)
(-0.00025 -0.000230754 8.50939e-20)
(-0.000253638 -0.000234422 4.99045e-20)
(-0.000258063 -0.000238711 1.28758e-20)
(-0.0002631 -0.000243487 -2.74156e-20)
(-0.00026863 -0.000248664 -4.78275e-20)
(-0.000274571 -0.00025418 -3.15462e-20)
(-0.000280864 -0.000259994 3.11672e-20)
(-0.000287466 -0.000266075 1.37128e-19)
(-0.000294346 -0.000272402 2.53735e-19)
(-0.000301482 -0.000278958 3.72988e-19)
(-0.000308859 -0.000285734 4.99109e-19)
(-0.000316469 -0.000292723 6.21676e-19)
(-0.000324305 -0.000299921 7.39136e-19)
(-0.000332366 -0.000307328 8.43919e-19)
(-0.000340652 -0.000314945 9.33301e-19)
(-0.000349168 -0.000322775 1.03266e-18)
(-0.000357916 -0.000330821 1.14951e-18)
(-0.000366902 -0.000339089 1.26999e-18)
(-0.000376133 -0.000347583 1.3769e-18)
(-0.000385615 -0.00035631 1.45806e-18)
(-0.000395352 -0.000365273 1.51983e-18)
(-0.000405348 -0.000374477 1.58466e-18)
(-0.000415608 -0.000383924 1.66348e-18)
(-0.00042613 -0.000393617 1.74802e-18)
(-0.000436917 -0.000403557 1.82539e-18)
(-0.000447966 -0.000413744 1.88655e-18)
(-0.000459279 -0.000424179 1.92923e-18)
(-0.000470858 -0.000434867 1.94864e-18)
(-0.00048271 -0.000445815 1.95507e-18)
(-0.00049485 -0.000457036 1.9499e-18)
(-0.000507303 -0.00046855 1.93375e-18)
(-0.000520106 -0.00048039 1.91878e-18)
(-0.00053331 -0.000492597 1.91167e-18)
(-0.000546977 -0.000505224 1.87842e-18)
(-0.000561183 -0.000518331 1.81012e-18)
(-0.000576005 -0.000531984 1.74503e-18)
(-0.000591517 -0.000546244 1.71361e-18)
(-0.000607776 -0.000561158 1.70576e-18)
(-0.000624801 -0.000576741 1.69386e-18)
(-0.000642556 -0.000592959 1.66677e-18)
(-0.00066093 -0.000609711 1.64387e-18)
(-0.000679713 -0.000626809 1.64797e-18)
(-0.000698593 -0.000643974 1.67639e-18)
(-0.000717163 -0.000660837 1.72404e-18)
(-0.000734948 -0.000676972 1.77776e-18)
(-0.000751478 -0.000691956 1.8206e-18)
(-0.000766385 -0.000705461 1.84745e-18)
(-0.000779547 -0.000717385 1.87185e-18)
(-0.000791251 -0.000728002 1.89873e-18)
(-0.00080236 -0.000738117 1.92216e-18)
(-0.000814479 -0.000749212 1.96105e-18)
(-0.000830077 -0.000763561 2.04333e-18)
(-0.000852602 -0.000784334 2.12613e-18)
(-0.000888183 -0.0008171 2.18367e-18)
(-0.000250588 -0.000229728 8.1437e-19)
(-0.000253493 -0.000232903 9.12777e-19)
(-0.000257019 -0.00023661 1.00668e-18)
(-0.000261345 -0.00024101 1.09204e-18)
(-0.000266288 -0.000245951 1.14929e-18)
(-0.000271723 -0.000251331 1.16911e-18)
(-0.000277566 -0.000257077 1.14807e-18)
(-0.000283755 -0.000263138 1.11019e-18)
(-0.000290248 -0.000269479 1.1094e-18)
(-0.000297015 -0.000276076 1.16265e-18)
(-0.000304034 -0.00028291 1.24515e-18)
(-0.000311292 -0.00028997 1.3177e-18)
(-0.000318779 -0.00029725 1.35214e-18)
(-0.00032649 -0.000304745 1.34455e-18)
(-0.000334422 -0.000312455 1.31363e-18)
(-0.000342577 -0.000320381 1.281e-18)
(-0.000350957 -0.000328526 1.26628e-18)
(-0.000359565 -0.000336894 1.27819e-18)
(-0.000368407 -0.00034549 1.31137e-18)
(-0.000377489 -0.000354319 1.35305e-18)
(-0.000386816 -0.000363389 1.38919e-18)
(-0.000396394 -0.000372703 1.40585e-18)
(-0.000406227 -0.000382267 1.39554e-18)
(-0.000416319 -0.000392085 1.37187e-18)
(-0.00042667 -0.00040216 1.36957e-18)
(-0.000437283 -0.000412491 1.39423e-18)
(-0.000448157 -0.000423082 1.42553e-18)
(-0.000459291 -0.000433931 1.43937e-18)
(-0.000470689 -0.000445043 1.44749e-18)
(-0.000482357 -0.000456423 1.47166e-18)
(-0.000494307 -0.000468084 1.51511e-18)
(-0.000506563 -0.000480046 1.56669e-18)
(-0.000519158 -0.000492341 1.61827e-18)
(-0.000532141 -0.000505014 1.68582e-18)
(-0.000545571 -0.000518121 1.76325e-18)
(-0.000559519 -0.000531726 1.81257e-18)
(-0.000574058 -0.000545899 1.83623e-18)
(-0.000589254 -0.000560702 1.86445e-18)
(-0.000605151 -0.000576176 1.91491e-18)
(-0.000621753 -0.000592325 1.98596e-18)
(-0.000639005 -0.000609095 2.05281e-18)
(-0.000656769 -0.000626352 2.11213e-18)
(-0.000674815 -0.000643871 2.15315e-18)
(-0.000692814 -0.000661333 2.16063e-18)
(-0.000710357 -0.000678338 2.13937e-18)
(-0.000726995 -0.000694447 2.11552e-18)
(-0.00074232 -0.000709259 2.12812e-18)
(-0.000756069 -0.000722519 2.17558e-18)
(-0.000768271 -0.000734251 2.23217e-18)
(-0.000779399 -0.000744916 2.28994e-18)
(-0.000790527 -0.000755559 2.35137e-18)
(-0.000803469 -0.000767941 2.40691e-18)
(-0.000820886 -0.000784646 2.44499e-18)
(-0.000846389 -0.000809168 2.43457e-18)
(-0.000886206 -0.000847487 2.35342e-18)
(-0.000229946 -0.000250694 3.7426e-19)
(-0.000233098 -0.000253687 4.78164e-19)
(-0.00023676 -0.000257286 5.64389e-19)
(-0.000241103 -0.000261669 6.44878e-19)
(-0.00024598 -0.000266655 7.15158e-19)
(-0.000251295 -0.00027212 7.54607e-19)
(-0.000256978 -0.00027798 7.56861e-19)
(-0.000262982 -0.000284179 7.42067e-19)
(-0.000269273 -0.000290676 7.4136e-19)
(-0.000275827 -0.000297442 8.01089e-19)
(-0.000282625 -0.000304458 8.9177e-19)
(-0.000289657 -0.000311711 9.4982e-19)
(-0.000296914 -0.000319193 9.54229e-19)
(-0.000304392 -0.000326897 9.06852e-19)
(-0.000312088 -0.000334824 8.25922e-19)
(-0.000320004 -0.000342973 7.34063e-19)
(-0.000328142 -0.000351346 6.54187e-19)
(-0.000336504 -0.000359948 6.02505e-19)
(-0.000345096 -0.000368783 5.77573e-19)
(-0.000353924 -0.000377857 5.52181e-19)
(-0.000362993 -0.000387177 5.18052e-19)
(-0.000372309 -0.000396749 4.80822e-19)
(-0.000381876 -0.000406576 4.32502e-19)
(-0.000391699 -0.000416663 3.71025e-19)
(-0.000401779 -0.000427013 3.08464e-19)
(-0.000412118 -0.000437626 2.45222e-19)
(-0.000422715 -0.000448502 1.76873e-19)
(-0.000433572 -0.000459641 1.018e-19)
(-0.000444688 -0.000471045 4.0638e-20)
(-0.000456071 -0.000482718 -1.09511e-21)
(-0.000467732 -0.000494673 -4.57701e-21)
(-0.000479692 -0.000506932 1.77637e-20)
(-0.000491984 -0.000519529 3.18262e-20)
(-0.000504654 -0.000532512 4.5703e-20)
(-0.000517761 -0.000545944 5.02035e-20)
(-0.000531371 -0.000559896 1.66145e-20)
(-0.000545555 -0.000574444 -4.31434e-20)
(-0.000560373 -0.000589651 -1.10443e-19)
(-0.00057586 -0.000605556 -1.64956e-19)
(-0.00059201 -0.000622152 -2.05272e-19)
(-0.00060875 -0.00063936 -2.52106e-19)
(-0.000625927 -0.000657012 -3.18211e-19)
(-0.000643296 -0.000674838 -4.24168e-19)
(-0.000660517 -0.000692466 -5.86762e-19)
(-0.000677187 -0.000709445 -7.93568e-19)
(-0.000692882 -0.000725303 -1.00226e-18)
(-0.000707244 -0.00073963 -1.19484e-18)
(-0.000720094 -0.000752205 -1.37958e-18)
(-0.000731559 -0.00076314 -1.57362e-18)
(-0.000742215 -0.000773027 -1.79605e-18)
(-0.000753207 -0.000783086 -2.05569e-18)
(-0.000766356 -0.000795272 -2.35224e-18)
(-0.000784225 -0.000812361 -2.69693e-18)
(-0.000810197 -0.000838031 -3.0475e-18)
(-0.000850045 -0.00087853 -3.42384e-18)
(-0.000228067 -0.000247508 6.79418e-19)
(-0.000231276 -0.000250711 6.80811e-19)
(-0.000234901 -0.000254453 6.72422e-19)
(-0.000239114 -0.000258927 6.63933e-19)
(-0.000243796 -0.000263969 6.55006e-19)
(-0.000248871 -0.000269474 6.47679e-19)
(-0.000254287 -0.00027537 6.60661e-19)
(-0.000260007 -0.000281609 7.02083e-19)
(-0.000266004 -0.000288154 7.74188e-19)
(-0.000272258 -0.000294978 8.57919e-19)
(-0.000278753 -0.000302064 9.20093e-19)
(-0.000285479 -0.000309396 9.62332e-19)
(-0.000292428 -0.000316967 9.98385e-19)
(-0.000299594 -0.00032477 1.03481e-18)
(-0.000306976 -0.000332803 1.06906e-18)
(-0.000314573 -0.000341066 1.09834e-18)
(-0.000322386 -0.00034956 1.13027e-18)
(-0.000330419 -0.000358288 1.17793e-18)
(-0.000338676 -0.000367256 1.23087e-18)
(-0.000347162 -0.000376469 1.2692e-18)
(-0.000355882 -0.000385934 1.29521e-18)
(-0.000364841 -0.000395657 1.32194e-18)
(-0.000374045 -0.000405643 1.35013e-18)
(-0.000383498 -0.000415896 1.37838e-18)
(-0.000393202 -0.00042642 1.41024e-18)
(-0.000403157 -0.000437215 1.45355e-18)
(-0.000413364 -0.000448281 1.49951e-18)
(-0.000423822 -0.000459617 1.53471e-18)
(-0.000434531 -0.000471223 1.54416e-18)
(-0.000445495 -0.000483102 1.53652e-18)
(-0.000456723 -0.000495264 1.53663e-18)
(-0.000468233 -0.000507729 1.53999e-18)
(-0.000480057 -0.00052053 1.53418e-18)
(-0.000492237 -0.000533717 1.51776e-18)
(-0.000504832 -0.000547353 1.46081e-18)
(-0.000517912 -0.000561519 1.35702e-18)
(-0.000531549 -0.000576295 1.24251e-18)
(-0.000545811 -0.000591759 1.14315e-18)
(-0.000560738 -0.00060796 1.05523e-18)
(-0.00057633 -0.000624899 9.64613e-19)
(-0.000592516 -0.000642498 8.75169e-19)
(-0.000609134 -0.000660575 8.03025e-19)
(-0.000625914 -0.000678826 7.38323e-19)
(-0.000642476 -0.000696816 6.73612e-19)
(-0.000658349 -0.000714001 6.31829e-19)
(-0.000673026 -0.000729788 6.05321e-19)
(-0.000686055 -0.000743642 5.77974e-19)
(-0.000697176 -0.000755228 5.40934e-19)
(-0.000706481 -0.000764609 4.93353e-19)
(-0.000714592 -0.000772441 4.40303e-19)
(-0.000722825 -0.00078017 3.82261e-19)
(-0.000733315 -0.000790182 3.2616e-19)
(-0.000749116 -0.00080592 2.87671e-19)
(-0.000774283 -0.000831987 2.86296e-19)
(-0.000813985 -0.000874281 3.58136e-19)
(-0.000874786 -0.000940137 5.38475e-19)
(-0.000964868 -0.00103863 8.11075e-19)
(-0.00109429 -0.00118076 1.12767e-18)
(-0.00127649 -0.00138114 1.40284e-18)
(-0.000218441 -0.00025088 9.65246e-19)
(-0.000221657 -0.000254231 9.85954e-19)
(-0.00022526 -0.000258105 9.82595e-19)
(-0.000229403 -0.000262696 9.66888e-19)
(-0.000233969 -0.00026784 9.48366e-19)
(-0.000238884 -0.000273433 9.32126e-19)
(-0.000244102 -0.000279408 9.30097e-19)
(-0.000249593 -0.000285719 9.27747e-19)
(-0.000255336 -0.000292334 9.19144e-19)
(-0.000261315 -0.000299231 9.10085e-19)
(-0.00026752 -0.000306391 9.01265e-19)
(-0.000273942 -0.000313804 9.00744e-19)
(-0.000280577 -0.000321461 9.21388e-19)
(-0.00028742 -0.000329356 9.65832e-19)
(-0.00029447 -0.000337487 1.03753e-18)
(-0.000301728 -0.000345853 1.12781e-18)
(-0.000309195 -0.000354457 1.22474e-18)
(-0.000316873 -0.0003633 1.30217e-18)
(-0.000324767 -0.000372389 1.34417e-18)
(-0.000332882 -0.000381728 1.35504e-18)
(-0.000341223 -0.000391325 1.35275e-18)
(-0.000349796 -0.000401184 1.37043e-18)
(-0.000358605 -0.000411313 1.4219e-18)
(-0.000367654 -0.000421715 1.50204e-18)
(-0.000376946 -0.000432395 1.59831e-18)
(-0.000386482 -0.000443352 1.67448e-18)
(-0.000396262 -0.000454587 1.68988e-18)
(-0.000406283 -0.000466097 1.65244e-18)
(-0.000416547 -0.00047788 1.60261e-18)
(-0.000427053 -0.000489939 1.56487e-18)
(-0.000437809 -0.000502282 1.50733e-18)
(-0.000448832 -0.000514926 1.40232e-18)
(-0.000460149 -0.000527904 1.27305e-18)
(-0.0004718 -0.000541264 1.14858e-18)
(-0.000483844 -0.000555074 1.03797e-18)
(-0.000496349 -0.000569417 9.49859e-19)
(-0.000509391 -0.000584383 8.99793e-19)
(-0.000523042 -0.000600058 8.83274e-19)
(-0.000537352 -0.000616504 8.87517e-19)
(-0.000552329 -0.000633734 8.92292e-19)
(-0.000567914 -0.000651679 8.93949e-19)
(-0.000583956 -0.00067016 9.00086e-19)
(-0.000600188 -0.000688862 9.0375e-19)
(-0.000616226 -0.000707327 9.1084e-19)
(-0.00063158 -0.000724969 9.39963e-19)
(-0.000645707 -0.000741134 9.74007e-19)
(-0.000658099 -0.000755204 9.8271e-19)
(-0.000668415 -0.000766757 9.66121e-19)
(-0.000676654 -0.000775764 9.37725e-19)
(-0.000683325 -0.0007828 9.03553e-19)
(-0.000689623 -0.000789241 8.84539e-19)
(-0.000697555 -0.000797423 8.99105e-19)
(-0.000710027 -0.000810743 9.37593e-19)
(-0.000730924 -0.000833745 9.87543e-19)
(-0.000765209 -0.000872248 1.05279e-18)
(-0.000819126 -0.000933572 1.17187e-18)
(-0.000900488 -0.00102689 1.33517e-18)
(-0.001019 -0.00116362 1.44776e-18)
(-0.00118638 -0.00135761 1.38652e-18)
(-0.00141747 -0.00162632 1.13109e-18)
(-0.000208605 -0.000253951 -2.54228e-19)
(-0.000211731 -0.000257408 -1.78205e-19)
(-0.000215234 -0.000261393 -1.34206e-19)
(-0.000219255 -0.000266099 -1.10565e-19)
(-0.000223675 -0.000271354 -8.83867e-20)
(-0.000228421 -0.000277054 -4.25228e-20)
(-0.000233446 -0.000283131 2.72972e-20)
(-0.000238721 -0.000289538 9.89134e-20)
(-0.000244226 -0.000296245 1.8641e-19)
(-0.000249948 -0.00030323 3.01111e-19)
(-0.000255878 -0.000310478 4.14647e-19)
(-0.000262009 -0.000317979 5.21579e-19)
(-0.000268338 -0.000325724 6.29582e-19)
(-0.000274864 -0.000333711 7.29117e-19)
(-0.000281584 -0.000341936 8.29275e-19)
(-0.000288501 -0.0003504 9.36765e-19)
(-0.000295617 -0.000359105 1.04446e-18)
(-0.000302934 -0.000368054 1.14177e-18)
(-0.000310457 -0.000377251 1.21845e-18)
(-0.000318191 -0.000386704 1.25863e-18)
(-0.000326141 -0.000396418 1.26588e-18)
(-0.000334312 -0.0004064 1.27013e-18)
(-0.00034271 -0.000416657 1.27039e-18)
(-0.000351339 -0.000427193 1.26265e-18)
(-0.000360201 -0.000438012 1.25331e-18)
(-0.000369298 -0.000449114 1.23477e-18)
(-0.00037863 -0.0004605 1.2102e-18)
(-0.000388194 -0.000472167 1.20613e-18)
(-0.000397989 -0.000484112 1.23651e-18)
(-0.000408015 -0.000496335 1.28676e-18)
(-0.000418278 -0.000508842 1.33327e-18)
(-0.00042879 -0.00052165 1.36384e-18)
(-0.000439576 -0.000534787 1.38157e-18)
(-0.000450674 -0.000548302 1.39307e-18)
(-0.000462136 -0.00056226 1.39692e-18)
(-0.000474031 -0.000576748 1.40382e-18)
(-0.000486433 -0.00059186 1.42023e-18)
(-0.000499419 -0.000607692 1.42069e-18)
(-0.000513047 -0.00062432 1.38261e-18)
(-0.000527339 -0.000641771 1.31511e-18)
(-0.000542253 -0.000659997 1.24788e-18)
(-0.000557663 -0.00067884 1.18171e-18)
(-0.000573327 -0.000697998 1.10671e-18)
(-0.000588884 -0.000717018 1.03873e-18)
(-0.000603856 -0.000735299 9.88039e-19)
(-0.000617691 -0.000752143 9.41998e-19)
(-0.000629838 -0.000766852 8.80998e-19)
(-0.000639873 -0.00077888 8.0354e-19)
(-0.000647656 -0.000788034 7.26181e-19)
(-0.000653509 -0.000794693 6.54064e-19)
(-0.00065839 -0.000800026 5.93827e-19)
(-0.00066403 -0.000806169 5.39252e-19)
(-0.000673036 -0.000816342 4.79016e-19)
(-0.000688957 -0.000834953 4.07001e-19)
(-0.000716396 -0.000867719 2.95709e-19)
(-0.000761199 -0.000921919 1.00295e-19)
(-0.000830795 -0.00100681 -2.21903e-19)
(-0.000934642 -0.00113422 -7.08349e-19)
(-0.00108466 -0.00131907 -1.31145e-18)
(-0.00129531 -0.00157956 -1.95737e-18)
(-0.00158291 -0.00193619 -2.54638e-18)
(-0.00196366 -0.00240931 -3.08023e-18)
(-0.00245037 -0.00301499 -3.48886e-18)
(-0.00304877 -0.00376039 -3.88272e-18)
(-0.00375484 -0.00464048 -4.42486e-18)
(-0.00455478 -0.00563805 -5.12808e-18)
(-0.00542792 -0.00672733 -5.91164e-18)
(-0.00635128 -0.00787962 -6.6683e-18)
(-0.00730381 -0.00906864 -7.2979e-18)
(-0.00826901 -0.0102738 -7.74795e-18)
(-0.00923556 -0.0114808 -8.09559e-18)
(-0.0101966 -0.0126812 -8.34104e-18)
(-0.0111486 -0.0138704 -8.33633e-18)
(-0.0120899 -0.0150465 -8.08633e-18)
(-0.0130201 -0.0162089 -7.73031e-18)
(-0.0139393 -0.0173576 -7.21212e-18)
(-0.0148476 -0.0184929 -6.57651e-18)
(-0.0157454 -0.0196151 -5.78778e-18)
(-0.0166328 -0.0207245 -4.81549e-18)
(-0.0175101 -0.0218214 -3.53974e-18)
(-0.0183775 -0.0229059 -2.06416e-18)
(-0.0192349 -0.0239781 -4.59145e-19)
(-0.0200827 -0.0250383 1.5058e-18)
(-0.0209207 -0.0260864 3.55108e-18)
(-0.0217493 -0.0271227 5.62535e-18)
(-0.0225683 -0.0281473 7.82776e-18)
(-0.0233781 -0.0291602 1.03646e-17)
(-0.0241785 -0.0301616 1.31724e-17)
(-0.0249698 -0.0311516 1.58091e-17)
(-0.0257521 -0.0321304 1.82907e-17)
(-0.0265254 -0.033098 2.07026e-17)
(-0.0272901 -0.0340548 2.28508e-17)
(-0.0280463 -0.0350011 2.43122e-17)
(-0.0287949 -0.035938 7.13941e-18)
(-0.0295382 -0.0368683 6.55785e-18)
(-0.000198724 -0.000256841 3.96631e-19)
(-0.00020171 -0.000260369 4.33475e-19)
(-0.000205063 -0.000264435 4.43196e-19)
(-0.000208915 -0.000269231 4.36916e-19)
(-0.00021315 -0.000274583 4.37717e-19)
(-0.000217696 -0.000280382 4.49055e-19)
(-0.000222507 -0.000286557 4.57793e-19)
(-0.000227554 -0.000293061 4.58869e-19)
(-0.000232815 -0.000299864 4.52622e-19)
(-0.000238279 -0.000306944 4.27099e-19)
(-0.000243935 -0.000314286 3.83338e-19)
(-0.00024978 -0.000321879 3.40907e-19)
(-0.000255808 -0.000329717 2.95489e-19)
(-0.00026202 -0.000337796 2.37636e-19)
(-0.000268415 -0.000346115 1.64873e-19)
(-0.000274994 -0.000354675 9.28916e-20)
(-0.000281759 -0.000363477 2.90223e-20)
(-0.000288715 -0.000372525 -3.79142e-20)
(-0.000295865 -0.000381825 -1.14898e-19)
(-0.000303215 -0.000391382 -1.91539e-19)
(-0.00031077 -0.000401205 -2.48758e-19)
(-0.000318535 -0.000411299 -2.85109e-19)
(-0.000326516 -0.000421671 -3.26269e-19)
(-0.000334717 -0.000432328 -3.77552e-19)
(-0.000343141 -0.000443272 -4.25757e-19)
(-0.00035179 -0.000454506 -4.53267e-19)
(-0.000360663 -0.000466029 -4.31121e-19)
(-0.000369758 -0.000477838 -3.49482e-19)
(-0.000379074 -0.00048993 -2.23909e-19)
(-0.00038861 -0.000502304 -7.20021e-20)
(-0.000398369 -0.000514963 1.02447e-19)
(-0.000408361 -0.000527921 3.03535e-19)
(-0.000418607 -0.000541204 5.41563e-19)
(-0.00042914 -0.000554857 8.0078e-19)
(-0.000440009 -0.000568946 1.05486e-18)
(-0.000451279 -0.000583555 1.282e-18)
(-0.000463022 -0.000598784 1.45996e-18)
(-0.000475317 -0.000614736 1.58469e-18)
(-0.000488227 -0.000631498 1.68151e-18)
(-0.000501787 -0.000649118 1.77982e-18)
(-0.000515976 -0.000667567 1.87863e-18)
(-0.00053069 -0.000686712 1.96176e-18)
(-0.000545723 -0.000706273 2.03344e-18)
(-0.000560743 -0.000725812 2.09138e-18)
(-0.0005753 -0.000744726 2.12546e-18)
(-0.000588852 -0.00076229 2.14494e-18)
(-0.000600836 -0.000777745 2.19097e-18)
(-0.000610774 -0.000790447 2.28424e-18)
(-0.000618426 -0.000800067 2.40164e-18)
(-0.000623966 -0.000806824 2.51241e-18)
(-0.000628157 -0.000811718 2.61155e-18)
(-0.000632492 -0.000816729 2.71408e-18)
(-0.000639305 -0.000824952 2.83883e-18)
(-0.000651842 -0.000840698 2.99713e-18)
(-0.000674342 -0.000869607 3.18992e-18)
(-0.000712211 -0.000918871 3.41753e-18)
(-0.000772323 -0.000997635 3.63761e-18)
(-0.000863464 -0.00111759 3.82742e-18)
(-0.000996798 -0.00129361 4.02004e-18)
(-0.00118608 -0.00154399 4.28048e-18)
(-0.00144713 -0.00188982 4.66313e-18)
(-0.00179617 -0.00235271 5.0967e-18)
(-0.00224672 -0.00295073 5.52811e-18)
(-0.00280595 -0.00369347 5.95049e-18)
(-0.00347166 -0.00457812 6.39424e-18)
(-0.00423178 -0.00558874 6.81147e-18)
(-0.00506683 -0.00669946 7.04548e-18)
(-0.00595425 -0.00788032 7.03521e-18)
(-0.00687283 -0.0091031 6.72144e-18)
(-0.00780562 -0.0103452 6.15704e-18)
(-0.00874077 -0.0115908 5.44226e-18)
(-0.00967108 -0.0128303 4.68026e-18)
(-0.0105927 -0.0140585 4.11018e-18)
(-0.0115039 -0.0152731 3.71601e-18)
(-0.0124043 -0.0164734 3.20615e-18)
(-0.0132938 -0.0176595 2.55114e-18)
(-0.0141727 -0.0188316 2.06212e-18)
(-0.0150413 -0.0199902 1.66964e-18)
(-0.0158998 -0.0211354 1.13871e-18)
(-0.0167485 -0.0222677 5.24649e-19)
(-0.0175875 -0.0233871 -5.09158e-20)
(-0.0184169 -0.0244938 -4.97937e-19)
(-0.0192368 -0.0255881 -9.04295e-19)
(-0.0200474 -0.02667 -1.34257e-18)
(-0.0208487 -0.0277396 -1.66461e-18)
(-0.0216408 -0.0287971 -1.84487e-18)
(-0.0224239 -0.0298425 -1.93209e-18)
(-0.023198 -0.0308761 -2.11259e-18)
(-0.0239632 -0.0318978 -2.41398e-18)
(-0.0247196 -0.032908 -2.6215e-18)
(-0.0254674 -0.0339067 -2.81365e-18)
(-0.0262068 -0.0348941 -3.18809e-18)
(-0.026938 -0.0358707 -3.74329e-18)
(-0.0276618 -0.0368376 -3.62358e-17)
(-0.0283806 -0.0377977 -3.99307e-17)
(-0.000188854 -0.000259597 1.14712e-19)
(-0.000191678 -0.000263173 1.40898e-19)
(-0.000194855 -0.000267297 1.61936e-19)
(-0.000198512 -0.000272162 1.99409e-19)
(-0.000202536 -0.00027759 2.44515e-19)
(-0.000206859 -0.00028347 2.93605e-19)
(-0.000211435 -0.00028973 3.38833e-19)
(-0.000216235 -0.000296323 3.59748e-19)
(-0.000221239 -0.000303215 3.5385e-19)
(-0.000226434 -0.000310384 3.24685e-19)
(-0.000231811 -0.000317816 2.86212e-19)
(-0.000237364 -0.000325499 2.40744e-19)
(-0.00024309 -0.000333428 1.6309e-19)
(-0.000248987 -0.000341598 5.33579e-20)
(-0.000255056 -0.000350009 -5.94156e-20)
(-0.000261298 -0.000358661 -1.55857e-19)
(-0.000267715 -0.000367556 -2.56014e-19)
(-0.000274311 -0.0003767 -3.80459e-19)
(-0.00028109 -0.000386096 -5.25782e-19)
(-0.000288056 -0.000395752 -6.82194e-19)
(-0.000295216 -0.000405675 -8.34083e-19)
(-0.000302574 -0.000415873 -9.56888e-19)
(-0.000310137 -0.000426352 -1.04346e-18)
(-0.000317908 -0.000437119 -1.10029e-18)
(-0.000325891 -0.000448178 -1.14108e-18)
(-0.000334088 -0.000459531 -1.17901e-18)
(-0.000342499 -0.000471179 -1.20693e-18)
(-0.000351121 -0.000483118 -1.20995e-18)
(-0.000359954 -0.000495344 -1.18681e-18)
(-0.000368995 -0.000507856 -1.16093e-18)
(-0.000378247 -0.000520656 -1.15347e-18)
(-0.000387716 -0.000533752 -1.15137e-18)
(-0.000397419 -0.00054717 -1.14207e-18)
(-0.000407387 -0.000560951 -1.11992e-18)
(-0.000417663 -0.000575157 -1.08746e-18)
(-0.000428307 -0.000589873 -1.04155e-18)
(-0.000439389 -0.0006052 -9.57291e-19)
(-0.000450985 -0.000621247 -8.16272e-19)
(-0.000463164 -0.000638111 -6.3604e-19)
(-0.00047597 -0.000655856 -4.48264e-19)
(-0.000489397 -0.000674475 -2.6106e-19)
(-0.000503368 -0.000693858 -8.80996e-20)
(-0.000517705 -0.000713752 6.12319e-20)
(-0.000532113 -0.000733739 1.85629e-19)
(-0.000546177 -0.000753225 2.90466e-19)
(-0.000559381 -0.000771473 3.80002e-19)
(-0.000571166 -0.000787685 4.49525e-19)
(-0.000581029 -0.000801142 4.87562e-19)
(-0.000588662 -0.000811399 4.91692e-19)
(-0.000594122 -0.000818532 4.70345e-19)
(-0.000598002 -0.000823379 4.28362e-19)
(-0.000601583 -0.000827756 3.86771e-19)
(-0.000606944 -0.000834613 3.39117e-19)
(-0.000617029 -0.000848134 2.84059e-19)
(-0.000635727 -0.000873847 2.44378e-19)
(-0.000668011 -0.000918815 2.49872e-19)
(-0.000720207 -0.000992029 3.07591e-19)
(-0.000800411 -0.00110499 4.13632e-19)
(-0.000918967 -0.0012724 5.64799e-19)
(-0.00108877 -0.00151257 6.33766e-19)
(-0.00132496 -0.00184703 5.03553e-19)
(-0.0016435 -0.00229848 1.20255e-19)
(-0.00205843 -0.00288691 -5.84356e-19)
(-0.00257822 -0.00362441 -1.50046e-18)
(-0.00320255 -0.00451064 -2.52208e-18)
(-0.00392127 -0.00553127 -3.56736e-18)
(-0.00471632 -0.00666072 -4.55308e-18)
(-0.00556579 -0.00786797 -5.47711e-18)
(-0.0064485 -0.0091229 -6.31763e-18)
(-0.00734708 -0.0104008 -6.95487e-18)
(-0.00824919 -0.0116842 -7.35474e-18)
(-0.0091472 -0.0129621 -7.53383e-18)
(-0.010037 -0.0142287 -7.46112e-18)
(-0.0109167 -0.0154812 -7.1803e-18)
(-0.0117858 -0.0167188 -6.75662e-18)
(-0.0126442 -0.0179415 -6.20856e-18)
(-0.0134923 -0.0191497 -5.50715e-18)
(-0.0143303 -0.0203438 -4.64154e-18)
(-0.0151586 -0.021524 -3.54076e-18)
(-0.0159772 -0.0226908 -2.29918e-18)
(-0.0167864 -0.0238443 -9.86955e-19)
(-0.0175864 -0.0249848 5.97883e-19)
(-0.0183772 -0.0261123 2.34196e-18)
(-0.0191589 -0.027227 4.27944e-18)
(-0.0199316 -0.028329 6.46308e-18)
(-0.0206955 -0.0294185 8.96927e-18)
(-0.0214506 -0.0304956 1.17251e-17)
(-0.022197 -0.0315604 1.46195e-17)
(-0.0229348 -0.0326131 1.78849e-17)
(-0.0236642 -0.0336538 2.15529e-17)
(-0.0243852 -0.0346826 2.54436e-17)
(-0.025098 -0.0356998 2.95997e-17)
(-0.0258029 -0.0367059 3.40131e-17)
(-0.0265008 -0.0377019 -3.05223e-18)
(-0.0271937 -0.0386909 -1.95437e-18)
(-0.000179005 -0.000262232 -4.96033e-19)
(-0.000181661 -0.000265843 -6.33618e-19)
(-0.000184656 -0.00027001 -7.71797e-19)
(-0.000188106 -0.000274928 -8.84562e-19)
(-0.000191906 -0.000280416 -9.68209e-19)
(-0.000195992 -0.000286362 -1.00872e-18)
(-0.000200319 -0.000292693 -1.02425e-18)
(-0.00020486 -0.00029936 -1.02088e-18)
(-0.000209595 -0.000306329 -9.9061e-19)
(-0.000214512 -0.000313578 -9.36465e-19)
(-0.000219601 -0.00032109 -8.6801e-19)
(-0.000224856 -0.000328857 -8.09806e-19)
(-0.000230274 -0.000336869 -7.81126e-19)
(-0.000235854 -0.000345125 -7.63825e-19)
(-0.000241596 -0.000353622 -7.23064e-19)
(-0.000247499 -0.000362361 -6.60228e-19)
(-0.000253567 -0.000371345 -6.00037e-19)
(-0.000259803 -0.000380578 -5.43146e-19)
(-0.000266211 -0.000390065 -4.69309e-19)
(-0.000272795 -0.000399813 -3.76146e-19)
(-0.00027956 -0.00040983 -2.75599e-19)
(-0.000286513 -0.000420123 -1.74155e-19)
(-0.000293658 -0.0004307 -8.12629e-20)
(-0.000301 -0.000441568 -4.05099e-21)
(-0.000308542 -0.000452732 5.49967e-20)
(-0.000316287 -0.000464195 9.60561e-20)
(-0.000324235 -0.000475956 1.32795e-19)
(-0.000332385 -0.000488014 1.68834e-19)
(-0.000340734 -0.000500365 1.78439e-19)
(-0.00034928 -0.000513004 1.38633e-19)
(-0.000358024 -0.000525932 6.28014e-20)
(-0.000366971 -0.000539158 -2.39415e-20)
(-0.000376135 -0.000552701 -1.18972e-19)
(-0.000385541 -0.000566599 -2.29856e-19)
(-0.000395229 -0.000580914 -3.61453e-19)
(-0.000405253 -0.000595726 -4.9247e-19)
(-0.00041568 -0.000611138 -5.93184e-19)
(-0.000426583 -0.000627262 -6.69815e-19)
(-0.000438032 -0.000644205 -7.39166e-19)
(-0.000450077 -0.000662044 -8.07051e-19)
(-0.000462728 -0.000680791 -8.65695e-19)
(-0.000475926 -0.000700361 -8.93439e-19)
(-0.000489525 -0.000720528 -8.93652e-19)
(-0.000503264 -0.000740897 -8.69585e-19)
(-0.000516765 -0.00076089 -8.25627e-19)
(-0.000529544 -0.000779771 -7.865e-19)
(-0.000541061 -0.000796713 -7.71308e-19)
(-0.000550804 -0.000810936 -7.98684e-19)
(-0.00055842 -0.000821899 -8.65695e-19)
(-0.00056387 -0.000829541 -9.37163e-19)
(-0.000567605 -0.000834543 -1.01136e-18)
(-0.000570711 -0.000838556 -1.09971e-18)
(-0.000575026 -0.000844374 -1.19908e-18)