/*--------------------------------*- C++ -*----------------------------------*\
  =========                 |
  \\      /  F ield         | OpenFOAM: The Open Source CFD Toolbox
   \\    /   O peration     | Website:  https://openfoam.org
    \\  /    A nd           | Version:  7
     \\/     M anipulation  |
\*---------------------------------------------------------------------------*/
FoamFile
{
    version     2.0;
    format      ascii;
    class       volScalarField;
    location    "100000";
    object      strainRate;
}
// * * * * * * * * * * * * * * * * * * * * * * * * * * * * * * * * * * * * * //

dimensions      [0 0 -1 0 0 0 0];

internalField   nonuniform List<scalar> 
4783
(
8.23422e-05
7.90003e-05
7.82329e-05
7.70325e-05
7.561e-05
7.40789e-05
7.24891e-05
7.08696e-05
6.92406e-05
6.76184e-05
6.60178e-05
6.4452e-05
6.29337e-05
6.14753e-05
6.00887e-05
5.87856e-05
5.75774e-05
5.64751e-05
5.54893e-05
5.463e-05
5.39118e-05
5.33312e-05
9.69487e-05
8.87482e-05
8.78637e-05
8.64462e-05
8.4698e-05
8.2777e-05
8.07758e-05
7.87478e-05
7.67253e-05
7.47303e-05
7.27796e-05
7.0887e-05
6.90654e-05
6.73267e-05
6.56827e-05
6.41448e-05
6.27245e-05
6.14328e-05
6.02804e-05
5.92769e-05
5.84349e-05
5.77664e-05
0.000101202
9.18611e-05
9.06037e-05
8.9253e-05
8.77006e-05
8.59822e-05
8.4157e-05
8.2276e-05
8.03767e-05
7.84868e-05
7.66274e-05
7.48158e-05
7.30669e-05
7.13941e-05
6.98102e-05
6.83274e-05
6.69573e-05
6.57109e-05
6.45987e-05
6.363e-05
6.28166e-05
6.21687e-05
0.000105198
9.58662e-05
9.41746e-05
9.2632e-05
9.10662e-05
8.94213e-05
8.76999e-05
8.59262e-05
8.41282e-05
8.2331e-05
8.0556e-05
7.88214e-05
7.71432e-05
7.55357e-05
7.40123e-05
7.25853e-05
7.12666e-05
7.0067e-05
6.89966e-05
6.80646e-05
6.72818e-05
6.66584e-05
0.000109179
0.000100105
9.81556e-05
9.6417e-05
9.47566e-05
9.31008e-05
9.14183e-05
8.97086e-05
8.79841e-05
8.62621e-05
8.45604e-05
8.28959e-05
8.12841e-05
7.97393e-05
7.82748e-05
7.6903e-05
7.56353e-05
7.44825e-05
7.34544e-05
7.25595e-05
7.18081e-05
7.121e-05
0.000113301
0.000104425
0.000102307
0.000100436
9.86796e-05
9.69827e-05
9.53004e-05
9.36208e-05
9.19437e-05
9.02782e-05
8.86366e-05
8.70328e-05
8.54809e-05
8.39941e-05
8.25852e-05
8.12662e-05
8.00481e-05
7.89411e-05
7.79543e-05
7.70962e-05
7.63759e-05
7.5803e-05
0.000117775
0.000108768
0.00010649
0.000104563
0.000102737
0.000101007
9.93098e-05
9.76421e-05
9.59938e-05
9.43694e-05
9.27759e-05
9.12231e-05
8.97236e-05
8.82893e-05
8.69318e-05
8.56625e-05
8.44917e-05
8.34285e-05
8.24816e-05
8.1659e-05
8.09691e-05
8.0421e-05
0.000130161
0.000115116
0.000110979
0.000108812
0.000106861
0.000105126
0.000103404
0.000101743
0.000100112
9.85184e-05
9.69644e-05
9.54537e-05
9.4e-05
9.26126e-05
9.13016e-05
9.00786e-05
8.89526e-05
8.79311e-05
8.70221e-05
8.62332e-05
8.55727e-05
8.50486e-05
0.000170286
0.000134907
0.000121124
0.000114388
0.000111165
0.000109352
0.000107545
0.000105896
0.000104274
0.000102704
0.000101187
9.97094e-05
9.82961e-05
9.6951e-05
9.5681e-05
9.45009e-05
9.34179e-05
9.2436e-05
9.1562e-05
9.08047e-05
9.0172e-05
8.96712e-05
0.000265769
0.000192804
0.000154456
0.000131739
0.000120362
0.000114657
0.000111808
0.000110103
0.000108459
0.0001069
0.000105434
0.000103973
0.000102597
0.000101293
0.000100056
9.89151e-05
9.78755e-05
9.69314e-05
9.60884e-05
9.53593e-05
9.47527e-05
9.42741e-05
0.000451526
0.000321056
0.000240965
0.000186536
0.000152092
0.00013159
0.000121194
0.000115721
0.000112814
0.000111082
0.000109716
0.000108222
0.000106886
0.000105633
0.00010441
0.000103304
0.000102315
0.000101408
0.000100588
9.98826e-05
9.93004e-05
9.8842e-05
0.000759588
0.000554714
0.000416756
0.000312801
0.000237763
0.000186835
0.000154294
0.000134396
0.000123617
0.00011768
0.000114365
0.000112436
0.00011114
0.000109985
0.000108724
0.000107645
0.00010673
0.000105862
0.000105048
0.000104358
0.000103801
0.000103357
0.00119443
0.000915892
0.00071359
0.000546896
0.000415241
0.000316041
0.000243961
0.000194318
0.000161678
0.00014079
0.000128163
0.000121257
0.000117076
0.000114555
0.00011297
0.000111891
0.000111125
0.000110302
0.00010945
0.000108765
0.000108192
0.000107756
0.00172134
0.00139052
0.00113698
0.00091129
0.000717351
0.000557178
0.000429997
0.000333214
0.000261736
0.00021104
0.000176208
0.000152955
0.000137547
0.000127977
0.000122439
0.00011878
0.000116358
0.000114806
0.000113762
0.000112993
0.000112404
0.000111973
0.00228524
0.00193137
0.00165288
0.00139015
0.00114827
0.000932187
0.000745633
0.000590356
0.00046552
0.000368717
0.000295595
0.000241502
0.000202669
0.000175339
0.000156397
0.000143057
0.00013374
0.000127917
0.000124284
0.000121647
0.00284024
0.00248597
0.00220698
0.00193394
0.00167055
0.00142142
0.00119132
0.000984706
0.000804818
0.000653127
0.000528944
0.000429974
0.000353149
0.000294289
0.000249743
0.000216683
0.000192286
0.000174622
0.000161829
0.00336386
0.00302017
0.00275428
0.00248946
0.00222766
0.00197144
0.00172415
0.00148984
0.00127264
0.00107622
0.000903236
0.000754836
0.000630677
0.000528904
0.000447032
0.000382455
0.00033205
0.00385232
0.00352182
0.00327263
0.00302342
0.00277501
0.00252837
0.00228517
0.00204766
0.00181867
0.00160145
0.00139934
0.00121513
0.00105081
0.000907359
0.00430984
0.0039917
0.00375802
0.00352464
0.00329208
0.00306078
0.00283143
0.00260492
0.00238266
0.0021665
0.00195868
0.00176167
0.00474189
0.00443462
0.00421404
0.00399438
0.0037761
0.00355961
0.00334534
0.00313374
0.00292546
0.00272134
0.00515297
0.0048553
0.00464568
0.00443745
0.00423113
0.00402718
0.00382603
0.00362809
0.00343379
0.00554634
0.00525737
0.00505705
0.00485847
0.00466216
0.00446859
0.00427827
0.00409161
0.00592445
0.0056435
0.00545124
0.00526096
0.00507318
0.00488839
0.00470707
0.00628921
0.00601572
0.00583054
0.00564753
0.00546718
0.00528996
0.00664224
0.0063757
0.00619678
0.00602019
0.00584638
0.00567581
0.00698498
0.00672491
0.00655151
0.00638059
0.00621258
0.0073187
0.00706462
0.0068961
0.0067302
0.00764458
0.00739604
0.0072318
0.00707032
0.00796368
0.00772027
0.00755976
0.00827701
0.00803829
0.00788104
0.00858545
0.008351
0.00819657
0.00888985
0.00865927
0.00850724
0.00919103
0.00896394
0.00881391
0.00948971
0.00926576
0.00911735
0.00978655
0.00956541
0.00941829
0.0100821
0.00986351
0.00971739
0.010377
0.0101606
0.0100152
0.0106717
0.0104572
0.0103123
0.0109666
0.0107538
0.0106092
0.0112621
0.0110508
0.0109063
0.0115584
0.0113485
0.0112039
0.0118558
0.011647
0.0115024
8.18243e-05
9.65744e-05
0.00010083
0.000104849
0.000108855
0.000113004
0.000117513
0.000129902
0.000169973
0.000265431
0.000451209
0.000759286
0.00119413
0.00172105
0.00228496
0.00283999
0.00336362
0.00385211
0.00430965
0.00474172
0.00515281
0.0055462
0.00592431
0.00628908
0.00664213
0.00698488
0.00731862
0.00764452
0.00796364
0.00827696
0.00858538
0.00888977
0.00919094
0.00948962
0.00978647
0.0100821
0.010377
0.0106717
0.0109666
0.0112621
0.0115584
0.0118558
7.90678e-05
8.87739e-05
9.18803e-05
9.58795e-05
0.000100117
0.000104436
0.000108785
0.000115117
0.000134872
0.000192748
0.000320989
0.000554631
0.000915791
0.00139041
0.00193127
0.0024859
0.00302014
0.00352182
0.00399173
0.00443466
0.00485535
0.00525742
0.00564354
0.00601576
0.00637575
0.00672498
0.00706472
0.00739616
0.00772037
0.00803835
0.00835105
0.00865932
0.00896397
0.00926576
0.0095654
0.00986349
0.0101606
0.0104573
0.0107539
0.0110509
0.0113485
0.0116472
7.82659e-05
8.78846e-05
9.06221e-05
9.41892e-05
9.81675e-05
0.000102319
0.000106502
0.000110987
0.000121098
0.000154389
0.000240873
0.000416628
0.00071342
0.00113679
0.0016527
0.00220683
0.0027542
0.0032726
0.00375803
0.00421409
0.00464575
0.00505713
0.00545132
0.00583062
0.00619687
0.00655163
0.00689626
0.007232
0.00755996
0.00788118
0.00819665
0.00850728
0.00881393
0.00911736
0.00941829
0.00971739
0.0100153
0.0103125
0.0106094
0.0109065
0.0112041
0.0115025
7.7041e-05
8.64565e-05
8.92654e-05
9.2643e-05
9.64263e-05
0.000100444
0.000104572
0.00010882
0.000114378
0.000131683
0.000186427
0.000312639
0.000546669
0.000911011
0.00138987
0.00193369
0.0024893
0.00302334
0.00352464
0.00399442
0.00443753
0.00485858
0.00526108
0.00564766
0.00602033
0.00638077
0.00673044
0.0070706
0.00740244
0.00772704
0.00804541
0.00835852
0.00866726
0.00897243
0.00927478
0.00957498
0.00987366
0.0101714
0.0104688
0.0107661
0.0110637
0.0113621
7.55983e-05
8.46957e-05
8.77026e-05
9.10689e-05
9.47589e-05
9.86818e-05
0.00010274
0.000106865
0.000111167
0.000120321
0.000151982
0.000237583
0.00041497
0.000716992
0.00114787
0.00167019
0.00222739
0.00277485
0.00329203
0.00377613
0.00423123
0.00466229
0.00507334
0.00546736
0.00584658
0.00621283
0.00656763
0.00691234
0.00724818
0.00757627
0.00789766
0.00821336
0.00852428
0.00883128
0.00913513
0.00943652
0.00973611
0.0100345
0.0103323
0.0106299
0.0109276
0.011226
7.40465e-05
8.27597e-05
8.59701e-05
8.94114e-05
9.30918e-05
9.69746e-05
0.000101001
0.000105121
0.000109349
0.000114636
0.000131503
0.000186651
0.000315741
0.000556752
0.000931677
0.00142092
0.00197104
0.00252811
0.00306067
0.00355962
0.00402728
0.00446876
0.0048886
0.00529021
0.0056761
0.00604824
0.00640827
0.0067576
0.00709752
0.00742919
0.0077537
0.00807209
0.00838529
0.0086942
0.00899962
0.00930229
0.00960286
0.00990199
0.0102003
0.0104982
0.0107961
0.0110945
7.24348e-05
8.0741e-05
8.41276e-05
8.76734e-05
9.13938e-05
9.52778e-05
9.92898e-05
0.000103388
0.000107533
0.000111797
0.000121131
0.000154122
0.000243652
0.000429523
0.000745019
0.00119067
0.0017236
0.00228479
0.00283124
0.00334531
0.00382613
0.00427847
0.00470737
0.00511672
0.00550937
0.00588748
0.00625278
0.00660679
0.00695084
0.00728616
0.00761386
0.00793499
0.00825054
0.00856142
0.00886847
0.00917248
0.00947415
0.0097741
0.0100729
0.0103712
0.0106694
0.0109678
7.07914e-05
7.86925e-05
8.22259e-05
8.58795e-05
8.96645e-05
9.35796e-05
9.76045e-05
0.00010171
0.00010587
0.000110085
0.000115678
0.000134257
0.000194018
0.000332712
0.000589654
0.000983905
0.00148911
0.00204712
0.00260463
0.00313367
0.00362821
0.00409191
0.00453015
0.0049474
0.00534688
0.00573098
0.00610159
0.00646031
0.00680853
0.00714753
0.00747846
0.0078024
0.00812036
0.00843327
0.00874203
0.00904742
0.00935019
0.00965102
0.00995051
0.0102492
0.0105477
0.0108462
6.91362e-05
7.66465e-05
8.03026e-05
8.40575e-05
8.79163e-05
9.18795e-05
9.59341e-05
0.000100058
0.000104228
0.000108421
0.00011278
0.000123515
0.000161405
0.000261227
0.00046475
0.00080387
0.00127171
0.00181795
0.00238225
0.00292537
0.003434
0.00390954
0.00435745
0.00478274
0.00518911
0.00557924
0.00595517
0.0063186
0.00667099
0.00701367
0.00734784
0.00767462
0.00799503
0.00831003
0.00862053
0.00892737
0.00923131
0.00953304
0.00983322
0.0101324
0.0104312
0.0107299
6.74856e-05
7.4625e-05
7.83854e-05
8.22327e-05
8.61668e-05
9.01867e-05
9.4283e-05
9.84387e-05
0.000102633
0.00010684
0.000111036
0.000117596
0.000140558
0.00021055
0.000367906
0.000652049
0.00107508
0.00160053
0.00216599
0.0027213
0.00324403
0.00373187
0.00418978
0.00462327
0.00503657
0.00543271
0.00581395
0.00618207
0.00653862
0.00688498
0.00722239
0.007552
0.00787487
0.00819199
0.00850428
0.0088126
0.00911773
0.00942042
0.00972134
0.0100211
0.0103202
0.0106191
6.5854e-05
7.26445e-05
7.64953e-05
8.04264e-05
8.44335e-05
8.85136e-05
9.26582e-05
9.6854e-05
0.000101086
0.000105344
0.000109637
0.000114288
0.000127989
0.000175753
0.000294756
0.000527757
0.000901908
0.00139824
0.00195812
0.00252258
0.00305897
0.00355944
0.00402766
0.00446951
0.00488978
0.00529192
0.00567842
0.00605118
0.00641183
0.00676181
0.00710243
0.00743489
0.00776023
0.00807947
0.00839357
0.00870338
0.00900973
0.00931339
0.00961508
0.00991542
0.0102149
0.0105141
6.42547e-05
7.07191e-05
7.46497e-05
7.86569e-05
8.27335e-05
8.68739e-05
9.10694e-05
9.53075e-05
9.95735e-05
0.00010385
0.000108115
0.000112349
0.000121091
0.000152527
0.000240675
0.00042872
0.000753349
0.00121388
0.0017611
0.00233079
0.00287972
0.00339286
0.00387166
0.00432201
0.00474927
0.00515735
0.00554902
0.00592635
0.00629105
0.0066446
0.00698837
0.00732359
0.00765137
0.00797273
0.00828863
0.00859998
0.00890759
0.00921225
0.00951469
0.00981559
0.0101155
0.010415
0.0107144
6.27004e-05
6.88613e-05
7.28634e-05
7.69402e-05
8.10824e-05
8.52818e-05
8.95291e-05
9.38127e-05
9.81191e-05
0.000102434
0.000106742
0.000111024
0.000116916
0.000137155
0.000201856
0.000351838
0.000629077
0.00104948
0.00157739
0.00214765
0.00270727
0.00323285
0.00372237
0.00418132
0.00461556
0.0050295
0.00542624
0.00580803
0.00617668
0.00653373
0.00688058
0.00721851
0.00754868
0.0078721
0.00818976
0.00850259
0.00881145
0.00911714
0.0094204
0.00972191
0.0100223
0.010322
0.0106215
0.0109213
6.12034e-05
6.70833e-05
7.115e-05
7.5291e-05
7.94946e-05
8.37508e-05
8.80494e-05
9.23787e-05
9.67265e-05
0.000101082
0.000105439
0.00010981
0.00011439
0.000127661
0.00017456
0.000292921
0.000527238
0.000906025
0.00140915
0.00197499
0.00254279
0.00308019
0.00358044
0.00404803
0.0044892
0.00490889
0.00531055
0.00569665
0.00606912
0.00642956
0.0067794
0.00711997
0.00745243
0.00777785
0.00809723
0.00841152
0.00872163
0.00902835
0.00933241
0.00963452
0.0099353
0.0102353
0.010535
0.0108349
5.97758e-05
6.53968e-05
6.95226e-05
7.37227e-05
7.79838e-05
8.2294e-05
8.66421e-05
9.10162e-05
9.54034e-05
9.97905e-05
0.000104163
0.0001085
0.000112774
0.000122112
0.000155623
0.000248404
0.000445408
0.000783418
0.00125784
0.00181452
0.00238764
0.00293582
0.00344657
0.00392274
0.00437075
0.00479603
0.00520243
0.00559268
0.00596879
0.00633247
0.00668519
0.00702829
0.00736295
0.00769028
0.00801131
0.00832701
0.00863832
0.00894605
0.00925092
0.00955362
0.00985481
0.0101551
0.010455
0.010755
0.0110554
5.84293e-05
6.38136e-05
6.79934e-05
7.22482e-05
7.65628e-05
8.09239e-05
8.53194e-05
8.9737e-05
9.41644e-05
9.85888e-05
0.000102996
0.000107363
0.00011165
0.000118427
0.000142295
0.000215403
0.000380938
0.000680699
0.00112427
0.00166771
0.00224314
0.00280072
0.0033215
0.00380608
0.00426075
0.00469143
0.00510237
0.00549653
0.00587611
0.00624284
0.00659827
0.00694375
0.0072805
0.00760966
0.00793228
0.00824934
0.00856179
0.00887045
0.00917608
0.0094794
0.00978106
0.0100817
0.0103818
0.0106819
0.0109823
5.71755e-05
6.23452e-05
6.65744e-05
7.08796e-05
7.52438e-05
7.96523e-05
8.40922e-05
8.85513e-05
9.30176e-05
9.7481e-05
0.000101934
0.000106375
0.00011082
0.000115985
0.000133009
0.000191102
0.000330694
0.000596033
0.00100853
0.00153579
0.00211055
0.00267583
0.00320599
0.00369866
0.00415976
0.00459559
0.0050108
0.00540864
0.00579144
0.00616103
0.00651898
0.00686667
0.00720537
0.00753625
0.00786037
0.00817871
0.00849222
0.00880176
0.00910811
0.00941201
0.00971413
0.0100151
0.0103154
0.0106156
0.0109161
0.0112172
5.60257e-05
6.1003e-05
6.52773e-05
6.96285e-05
7.40382e-05
7.84903e-05
8.29712e-05
8.7468e-05
9.19689e-05
9.64636e-05
0.000100945
0.000105411
0.000109872
0.000114387
0.000127345
0.000173644
0.000291538
0.000527024
0.000909987
0.00141942
0.00199101
0.00256221
0.00310084
0.00360113
0.00406832
0.00450897
0.00492816
0.00532939
0.00571515
0.00608735
0.00644761
0.00679736
0.00713787
0.00747032
0.0077958
0.00811531
0.00842981
0.00874019
0.00904724
0.00935169
0.00965424
0.00995548
0.010256
0.0105563
0.0108569
0.011158
0.0114599
5.49908e-05
5.97982e-05
6.41132e-05
6.8506e-05
7.29568e-05
7.74485e-05
8.19666e-05
8.64975e-05
9.10286e-05
9.55482e-05
0.000100045
0.000104509
0.000108926
0.000113273
0.000123759
0.00016108
0.000261531
0.000471783
0.00082771
0.00131885
0.00188537
0.00246081
0.00300687
0.00351414
0.00398694
0.00443203
0.00485486
0.00525917
0.00564759
0.00602213
0.00638446
0.00673605
0.00707819
0.00741209
0.00773883
0.00805942
0.00837481
0.00868592
0.00899357
0.0092985
0.00960144
0.00990301
0.0102038
0.0105042
0.0108048
0.0111059
0.0114078
5.40811e-05
5.87415e-05
6.30926e-05
6.75222e-05
7.20097e-05
7.65367e-05
8.10881e-05
8.56499e-05
9.02087e-05
9.47517e-05
9.92659e-05
0.000103737
0.000108149
0.000112474
0.000121205
0.000151831
0.000238842
0.000428437
0.00076058
0.00123403
0.0017943
0.00237248
0.00292482
0.00343829
0.00391613
0.00436521
0.00479125
0.00519827
0.00558904
0.00596565
0.00632982
0.00668302
0.00702659
0.00736175
0.0076896
0.00801116
0.00832738
0.00863915
0.00894733
0.0092527
0.00955598
0.00985781
0.0101588
0.0104593
0.01076
0.011061
0.0113628
5.33059e-05
5.78428e-05
6.2225e-05
6.66866e-05
7.12056e-05
7.57633e-05
8.03442e-05
8.49337e-05
8.95184e-05
9.40855e-05
9.86223e-05
0.000103116
0.000107551
0.000111912
0.000119324
0.000144957
0.000221841
0.000395113
0.000707267
0.00116464
0.00171822
0.0022979
0.00285537
0.00337414
0.00385635
0.00430887
0.00473768
0.00514702
0.0055398
0.00591818
0.00628391
0.00663849
0.00698327
0.0073195
0.00764829
0.00797067
0.00828759
0.00859996
0.00890862
0.00921436
0.00951793
0.00981997
0.0101211
0.0104217
0.0107224
0.0110235
0.0113254
5.26739e-05
5.71111e-05
6.15191e-05
6.6007e-05
7.05524e-05
7.51357e-05
7.97414e-05
8.4355e-05
8.89634e-05
9.35543e-05
9.81165e-05
0.000102639
0.000107112
0.000111526
0.000117951
0.000139915
0.000209355
0.00037022
0.000666428
0.00111015
0.00165737
0.00223766
0.00279908
0.00332217
0.003808
0.00426336
0.00469446
0.0051057
0.00550011
0.00587993
0.00624693
0.00660262
0.00694841
0.00728551
0.00761505
0.00793807
0.00825556
0.00856841
0.00887749
0.00918359
0.00948742
0.00978964
0.0100909
0.0103916
0.0106924
0.0109935
0.0112953
0.0115981
5.2192e-05
5.65541e-05
6.09819e-05
6.54903e-05
7.00561e-05
7.46595e-05
7.92849e-05
8.3918e-05
8.85462e-05
9.31584e-05
9.77445e-05
0.000102296
0.000106807
0.000111271
0.000116988
0.000136367
0.000200583
0.000352539
0.00063688
0.00106997
0.00161183
0.00219218
0.00275644
0.00328281
0.00377142
0.00422897
0.00466181
0.00507451
0.00547018
0.00585109
0.00621904
0.00657559
0.00692212
0.00725988
0.00758999
0.0079135
0.00823141
0.00854465
0.00885405
0.00916041
0.00946446
0.00976686
0.0100682
0.010369
0.0106698
0.0109709
0.0112727
0.0115754
5.18661e-05
5.61776e-05
6.06192e-05
6.51416e-05
6.97215e-05
7.43388e-05
7.8978e-05
8.3625e-05
8.82677e-05
9.28958e-05
9.75006e-05
0.000102075
0.000106615
0.000111117
0.000116377
0.000134105
0.000194999
0.000341206
0.000617704
0.00104355
0.00158157
0.00216173
0.00272779
0.00325638
0.00374687
0.00420592
0.00463995
0.00505363
0.00545013
0.00583176
0.00620037
0.0065575
0.00690455
0.00724274
0.00757323
0.00789707
0.00821527
0.00852877
0.0088384
0.00914494
0.00944912
0.00975162
0.010053
0.0103539
0.0106547
0.0109558
0.0112575
0.0115603
0.0118642
5.16999e-05
5.59859e-05
6.04347e-05
6.49645e-05
6.95517e-05
7.41764e-05
7.88228e-05
8.34772e-05
8.81278e-05
9.27646e-05
9.73795e-05
0.000101967
0.000106522
0.000111045
0.00011608
0.000133004
0.000192283
0.000335675
0.000608277
0.00103045
0.00156647
0.00214648
0.00271342
0.00324311
0.00373456
0.00419435
0.00462898
0.00504315
0.00544008
0.0058221
0.00619104
0.00654845
0.00689573
0.00723413
0.00756481
0.00788885
0.00820722
0.00852085
0.00883056
0.00913716
0.00944139
0.00974395
0.0100454
0.0103463
0.0106471
0.0109482
0.01125
0.0115527
0.0118566
5.16954e-05
5.59812e-05
6.04305e-05
6.49608e-05
6.95485e-05
7.41736e-05
7.88205e-05
8.34753e-05
8.81262e-05
9.27633e-05
9.73786e-05
0.000101966
0.000106522
0.000111045
0.00011608
0.000133004
0.000192284
0.000335679
0.000608286
0.00103047
0.00156649
0.0021465
0.00271344
0.00324312
0.00373457
0.00419436
0.00462899
0.00504317
0.0054401
0.00582212
0.00619105
0.00654845
0.00689571
0.00723412
0.00756481
0.00788885
0.00820723
0.00852085
0.00883056
0.00913714
0.00944136
0.00974391
0.0100454
0.0103462
0.010647
0.0109481
0.0112499
0.0115526
0.0118566
0.012162
5.18528e-05
5.61635e-05
6.06066e-05
6.51305e-05
6.97118e-05
7.43305e-05
7.89709e-05
8.36191e-05
8.82629e-05
9.28921e-05
9.74978e-05
0.000102073
0.000106614
0.000111117
0.000116377
0.000134107
0.000195003
0.000341219
0.000617732
0.00104359
0.00158162
0.00216179
0.00272785
0.00325642
0.00374691
0.00420594
0.00463998
0.00505367
0.00545018
0.00583182
0.00620041
0.00655751
0.00690452
0.00724269
0.00757317
0.00789705
0.00821529
0.00852879
0.00883838
0.00914488
0.00944903
0.0097515
0.0100529
0.0103538
0.0106545
0.0109556
0.0112574
0.0115601
0.011864
0.0121695
5.21701e-05
5.65308e-05
6.09611e-05
6.54719e-05
7.004e-05
7.46457e-05
7.92731e-05
8.39082e-05
8.85383e-05
9.31521e-05
9.77398e-05
0.000102293
0.000106805
0.00011127
0.000116989
0.00013637
0.000200591
0.000352562
0.000636929
0.00107005
0.00161193
0.00219228
0.00275653
0.00328289
0.00377148
0.00422903
0.00466188
0.00507458
0.00547023
0.00585112
0.00621906
0.00657559
0.00692209
0.00725982
0.00758993
0.00791346
0.00823139
0.00854463
0.00885403
0.00916037
0.00946439
0.00976676
0.0100681
0.0103689
0.0106696
0.0109706
0.0112724
0.0115752
0.0118792
0.0121846
5.26435e-05
5.7079e-05
6.14903e-05
6.59815e-05
7.05301e-05
7.51165e-05
7.97251e-05
8.43414e-05
8.89523e-05
9.35455e-05
9.81098e-05
0.000102634
0.000107109
0.000111524
0.000117951
0.000139919
0.000209368
0.000370255
0.000666501
0.00111027
0.00165751
0.00223781
0.00279921
0.00332229
0.0038081
0.00426345
0.00469454
0.00510577
0.00550016
0.00587996
0.00624694
0.00660263
0.00694838
0.00728545
0.00761497
0.007938
0.00825549
0.00856835
0.00887743
0.00918353
0.00948735
0.00978956
0.0100908
0.0103915
0.0106921
0.0109932
0.011295
0.0115977
0.0119018
0.0122073
5.32674e-05
5.7802e-05
6.21884e-05
6.66541e-05
7.11773e-05
7.57389e-05
8.03233e-05
8.49163e-05
8.95042e-05
9.40743e-05
9.86137e-05
0.000103109
0.000107547
0.00011191
0.000119325
0.000144964
0.000221861
0.000395164
0.000707369
0.00116479
0.0017184
0.00229809
0.00285554
0.00337429
0.00385648
0.00430898
0.00473777
0.00514708
0.00553984
0.00591821
0.00628392
0.00663849
0.00698327
0.00731947
0.00764822
0.00797057
0.00828747
0.00859986
0.00890855
0.00921434
0.00951791
0.00981991
0.0101209
0.0104215
0.0107222
0.0110232
0.011325
0.0116278
0.0119319
0.0122374
5.40348e-05
5.86924e-05
6.30485e-05
6.74832e-05
7.19754e-05
7.65071e-05
8.1063e-05
8.56289e-05
9.01916e-05
9.47381e-05
9.92556e-05
0.00010373
0.000108143
0.000112471
0.000121206
0.00015184
0.000238871
0.000428508
0.000760716
0.00123423
0.00179453
0.00237272
0.00292504
0.00343848
0.00391629
0.00436533
0.00479135
0.00519834
0.00558909
0.00596569
0.00632982
0.00668301
0.00702658
0.00736171
0.00768952
0.00801105
0.00832728
0.0086391
0.00894731
0.00925268
0.00955591
0.00985766
0.0101585
0.0104591
0.0107597
0.0110607
0.0113624
0.0116653
0.0119694
0.012275
5.49372e-05
5.97414e-05
6.40621e-05
6.84605e-05
7.2917e-05
7.7414e-05
8.19373e-05
8.64731e-05
9.10087e-05
9.55324e-05
0.000100033
0.0001045
0.00010892
0.000113268
0.00012376
0.000161094
0.000261572
0.000471879
0.000827887
0.0013191
0.00188567
0.00246111
0.00300715
0.00351437
0.00398713
0.00443219
0.00485497
0.00525924
0.00564764
0.00602216
0.00638447
0.00673603
0.00707815
0.00741204
0.00773876
0.00805934
0.00837476
0.00868588
0.00899352
0.00929843
0.0096013
0.00990279
0.0102035
0.0105039
0.0108044
0.0111054
0.0114073
0.0117101
0.0120143
0.0123201
5.59651e-05
6.09388e-05
6.52195e-05
6.9577e-05
7.3993e-05
7.84512e-05
8.29379e-05
8.74403e-05
9.19463e-05
9.64458e-05
0.000100931
0.000105401
0.000109865
0.000114383
0.000127347
0.000173663
0.000291594
0.000527152
0.000910213
0.00141973
0.00199137
0.00256256
0.00310117
0.00360141
0.00406854
0.00450916
0.0049283
0.00532948
0.0057152
0.00608738
0.00644762
0.00679734
0.00713783
0.00747027
0.00779575
0.00811527
0.00842974
0.00874005
0.00904704
0.00935146
0.00965398
0.0099552
0.0102557
0.0105559
0.0108564
0.0111574
0.0114593
0.0117623
0.0120666
0.0123725
5.71084e-05
6.22742e-05
6.65103e-05
7.08223e-05
7.51935e-05
7.96087e-05
8.40552e-05
8.85205e-05
9.29926e-05
9.74614e-05
0.000101919
0.000106365
0.000110813
0.000115982
0.000133014
0.000191127
0.000330769
0.000596199
0.00100882
0.00153616
0.00211097
0.00267625
0.00320636
0.00369898
0.00416003
0.0045958
0.00501097
0.00540876
0.00579151
0.00616107
0.00651899
0.00686666
0.00720534
0.00753619
0.00786029
0.00817862
0.00849208
0.00880156
0.00910785
0.00941168
0.00971376
0.0100147
0.010315
0.0106151
0.0109155
0.0112166
0.0115185
0.0118216
0.0121261
0.0124322
5.83561e-05
6.37363e-05
6.79233e-05
7.21856e-05
7.65077e-05
8.08762e-05
8.52789e-05
8.97034e-05
9.41372e-05
9.85674e-05
0.00010298
0.000107352
0.000111643
0.000118426
0.000142304
0.000215438
0.000381038
0.000680911
0.00112462
0.00166816
0.00224362
0.00280119
0.00332193
0.00380645
0.00426107
0.00469168
0.00510257
0.00549667
0.00587619
0.00624289
0.00659828
0.00694372
0.00728045
0.00760959
0.00793219
0.00824922
0.00856161
0.00887017
0.00917571
0.00947895
0.00978056
0.0100811
0.0103812
0.0106813
0.0109817
0.0112827
0.0115848
0.011888
0.0121927
0.012499
5.96969e-05
6.53136e-05
6.9447e-05
7.3655e-05
7.79242e-05
8.22423e-05
8.65983e-05
9.09798e-05
9.53741e-05
9.97677e-05
0.000104146
0.000108488
0.000112766
0.000122112
0.000155637
0.000248454
0.000445542
0.000783685
0.00125825
0.00181503
0.00238819
0.00293635
0.00344704
0.00392316
0.0043711
0.00479632
0.00520266
0.00559282
0.00596887
0.00633251
0.00668521
0.00702827
0.0073629
0.00769019
0.00801118
0.00832684
0.00863807
0.00894569
0.00925047
0.00955312
0.00985429
0.0101545
0.0104544
0.0107543
0.0110546
0.0113558
0.0116579
0.0119613
0.0122662
0.0125727
6.11193e-05
6.69946e-05
7.10692e-05
7.52185e-05
7.94307e-05
8.36954e-05
8.80025e-05
9.23399e-05
9.66954e-05
0.000101058
0.000105421
0.000109798
0.000114382
0.000127661
0.000174581
0.000292992
0.000527415
0.000906356
0.00140963
0.00197557
0.00254339
0.00308076
0.00358096
0.00404849
0.00448959
0.00490919
0.00531077
0.0056968
0.00606919
0.00642959
0.00677943
0.00711996
0.00745236
0.00777773
0.00809706
0.00841129
0.00872132
0.00902796
0.00933196
0.009634
0.00993471
0.0102346
0.0105343
0.0108341
0.0111344
0.0114355
0.0117378
0.0120413
0.0123464
0.0126533
6.26113e-05
6.87675e-05
7.27776e-05
7.68632e-05
8.10144e-05
8.52229e-05
8.94794e-05
9.37718e-05
9.80864e-05
0.000102409
0.000106724
0.000111012
0.00011691
0.000137158
0.000201885
0.000351934
0.000629305
0.00104988
0.00157794
0.00214829
0.00270792
0.00323346
0.00372292
0.0041818
0.00461595
0.0050298
0.00542645
0.00580817
0.00617675
0.00653376
0.0068806
0.00721851
0.00754861
0.00787197
0.00818957
0.00850232
0.00881113
0.00911677
0.00941996
0.00972136
0.0100216
0.0103212
0.0106207
0.0109204
0.0112208
0.011522
0.0118243
0.0121281
0.0124334
0.0127406
6.4161e-05
7.06205e-05
7.45593e-05
7.85755e-05
8.26616e-05
8.68118e-05
9.1017e-05
9.52647e-05
9.95396e-05
0.000103824
0.000108097
0.000112336
0.000121086
0.000152535
0.000240717
0.000428852
0.000753638
0.00121435
0.00176172
0.00233148
0.0028804
0.0033935
0.00387223
0.00432249
0.00474965
0.00515764
0.00554922
0.00592648
0.00629113
0.00664465
0.0069884
0.00732359
0.00765131
0.00797259
0.00828841
0.00859969
0.00890727
0.00921191
0.00951428
0.00981505
0.0101148
0.0104142
0.0107135
0.0110132
0.0113135
0.0116148
0.0119173
0.0122213
0.0125269
0.0128345
6.57558e-05
7.25414e-05
7.64005e-05
8.03408e-05
8.4358e-05
8.84484e-05
9.26035e-05
9.68095e-05
0.000101051
0.000105318
0.000109619
0.000114276
0.000127985
0.000175765
0.000294817
0.000527934
0.000902265
0.00139878
0.00195879
0.0025233
0.00305968
0.0035601
0.00402825
0.00447
0.00489016
0.0052922
0.0056786
0.00605129
0.0064119
0.00676184
0.00710244
0.00743485
0.00776016
0.00807937
0.0083934
0.00870317
0.00900949
0.0093131
0.00961468
0.00991486
0.0102142
0.0105133
0.0108125
0.0111121
0.0114125
0.011714
0.0120167
0.0123209
0.0126269
0.0129348
6.73831e-05
7.45174e-05
7.82861e-05
8.2143e-05
8.60877e-05
9.01187e-05
9.42263e-05
9.8393e-05
0.000102598
0.000106814
0.000111018
0.000117586
0.000140555
0.000210568
0.000367994
0.000652281
0.00107551
0.00160113
0.0021667
0.00272204
0.00324475
0.00373253
0.00419036
0.00462374
0.00503694
0.00543299
0.00581414
0.00618217
0.00653865
0.00688496
0.00722236
0.00755198
0.00787485
0.00819196
0.00850421
0.00881247
0.00911754
0.00942014
0.00972096
0.0100206
0.0103196
0.0106184
0.0109174
0.0112171
0.0115176
0.0118193
0.0121222
0.0124268
0.0127331
0.0130415
6.90294e-05
7.65345e-05
8.0199e-05
8.39638e-05
8.78338e-05
9.1809e-05
9.58757e-05
0.000100012
0.000104192
0.000108395
0.000112762
0.000123505
0.000161403
0.000261255
0.000464874
0.000804166
0.00127221
0.00181861
0.00238299
0.00292612
0.00343471
0.00391019
0.00435802
0.00478322
0.00518948
0.0055795
0.00595534
0.00631868
0.00667101
0.00701366
0.00734782
0.0076746
0.00799504
0.00831006
0.00862054
0.00892731
0.00923114
0.00953278
0.00983288
0.010132
0.0104306
0.0107292
0.0110282
0.0113279
0.0116286
0.0119304
0.0122337
0.0125386
0.0128453
0.0131542
7.06801e-05
7.85759e-05
8.21177e-05
8.57818e-05
8.95788e-05
9.35068e-05
9.75449e-05
0.000101663
0.000105835
0.00011006
0.000115661
0.000134243
0.000194015
0.000332758
0.000589826
0.000984272
0.00148967
0.00204782
0.00260538
0.00313441
0.00362891
0.00409255
0.00453072
0.00494787
0.00534725
0.00573125
0.00610176
0.0064604
0.00680857
0.00714752
0.00747844
0.00780241
0.00812041
0.00843335
0.00874208
0.00904741
0.00935008
0.00965079
0.00995019
0.0102488
0.0105472
0.0108456
0.0111446
0.0114443
0.0117451
0.0120472
0.0123508
0.0126561
0.0129633
0.0132727
7.23187e-05
8.06196e-05
8.40148e-05
8.75718e-05
9.13053e-05
9.52034e-05
9.92297e-05
0.000103341
0.000107499
0.000111773
0.000121114
0.000154105
0.00024365
0.000429596
0.00074525
0.00119111
0.00172422
0.00228552
0.00283199
0.00334604
0.00382682
0.0042791
0.00470793
0.0051172
0.00550975
0.00588775
0.00625296
0.0066069
0.0069509
0.0072862
0.0076139
0.00793506
0.00825064
0.00856153
0.00886856
0.00917249
0.00947405
0.00977391
0.0100727
0.0103709
0.0106689
0.0109673
0.0112663
0.0115661
0.0118671
0.0121695
0.0124734
0.0127792
0.0130869
0.013397
7.39252e-05
8.26332e-05
8.58526e-05
8.93061e-05
9.3001e-05
9.68993e-05
0.000100941
0.000105077
0.000109318
0.000114613
0.000131478
0.000186626
0.000315749
0.000556866
0.000931978
0.00142143
0.0019717
0.00252885
0.00306142
0.00356034
0.00402795
0.00446937
0.00488915
0.00529068
0.00567649
0.00604854
0.00640847
0.00675773
0.00709761
0.00742928
0.00775381
0.00807222
0.00838543
0.00869432
0.00899969
0.00930229
0.0096028
0.00990185
0.0102
0.0104978
0.0107957
0.011094
0.011393
0.0116931
0.0119943
0.012297
0.0126013
0.0129075
0.0132159
0.0135266
7.54708e-05
8.45634e-05
8.75803e-05
9.09605e-05
9.46667e-05
9.86066e-05
0.000102682
0.000106822
0.000111137
0.000120297
0.000151951
0.000237552
0.000414996
0.000717162