/*--------------------------------*- C++ -*----------------------------------*\
  =========                 |
  \\      /  F ield         | OpenFOAM: The Open Source CFD Toolbox
   \\    /   O peration     | Website:  https://openfoam.org
    \\  /    A nd           | Version:  7
     \\/     M anipulation  |
\*---------------------------------------------------------------------------*/
FoamFile
{
    version     2.0;
    format      ascii;
    class       surfaceScalarField;
    location    "32000";
    object      phi;
}
// * * * * * * * * * * * * * * * * * * * * * * * * * * * * * * * * * * * * * //

dimensions      [0 3 -1 0 0 0 0];

internalField   nonuniform List<scalar> 
9444
(
-1.14993e-23
-7.48639e-24
1.37525e-23
2.99462e-24
-6.3703e-24
-1.93513e-24
2.5625e-24
1.64091e-24
-7.9833e-24
1.28034e-24
-1.27341e-23
-1.17772e-23
3.49761e-24
-4.28051e-24
-9.69913e-24
8.54835e-25
-2.00121e-23
-1.20454e-23
-4.19773e-24
-1.13048e-23
-5.02812e-24
-3.78271e-25
-6.09091e-24
-8.98066e-26
9.28003e-25
2.02313e-23
2.82464e-24
1.184e-24
-3.94293e-24
-7.15873e-24
-6.14828e-24
-6.09445e-24
-1.66688e-24
1.68352e-24
-9.82949e-24
5.69954e-24
3.32603e-25
-5.37292e-24
2.78317e-24
-7.15812e-25
-5.78461e-24
2.51781e-24
2.70984e-24
-1.74987e-24
4.7968e-24
1.02874e-23
1.49341e-23
4.12052e-24
-2.84977e-25
-7.73753e-24
-9.80893e-25
-1.29085e-23
-1.31629e-23
-1.57075e-24
-1.49676e-23
2.23515e-24
-1.99131e-24
-1.28334e-23
-1.40004e-23
-3.22766e-24
-1.83581e-23
-1.82913e-23
5.61911e-24
-1.57808e-23
1.42716e-23
-1.17502e-23
-8.47468e-24
-1.27244e-23
1.68231e-23
-1.90917e-23
-1.12059e-23
-1.79133e-24
-1.72684e-24
-9.64589e-24
-6.35972e-24
-8.57282e-24
-1.08088e-23
-1.31721e-23
-8.55201e-24
-9.01906e-24
-8.02904e-24
-2.48124e-24
-3.68251e-24
-2.62775e-25
-8.51357e-25
2.60268e-24
-1.023e-24
5.11168e-24
-6.44974e-24
-1.1904e-23
-1.23155e-23
-6.61136e-24
-3.32044e-24
-3.59165e-24
-2.26271e-24
3.58401e-25
-6.80665e-25
7.22087e-24
-3.15752e-24
-7.62634e-24
-4.08093e-24
-1.3566e-23
-3.2818e-24
-2.7836e-25
2.71555e-24
2.43035e-24
8.10311e-24
-5.2647e-24
9.89306e-24
1.08315e-23
-1.01767e-23
-1.64005e-24
2.51059e-23
-3.59246e-24
2.6455e-24
-5.35316e-24
-4.91006e-24
-1.06921e-23
-3.75441e-24
-5.92668e-24
1.07919e-24
-6.84777e-24
-8.44226e-24
-6.73728e-24
-8.1916e-24
-1.85777e-24
-1.00221e-23
-5.58632e-24
-1.36199e-23
-9.32449e-24
-1.54068e-23
-6.35543e-24
-6.22302e-24
2.15694e-24
-4.82029e-24
-6.79856e-24
-9.5916e-24
-5.8089e-24
-2.40567e-24
-5.89836e-24
-8.95816e-25
3.07103e-24
2.70375e-24
-3.31739e-24
2.17605e-24
-7.47974e-24
3.31673e-24
7.06662e-24
2.98785e-24
3.52597e-24
6.44982e-24
-1.57645e-24
1.13618e-23
1.02244e-23
-9.54267e-24
-2.89579e-24
1.27271e-23
-4.41352e-24
-4.13343e-24
-1.8388e-24
6.05855e-24
-4.56638e-25
8.60588e-25
-1.58297e-23
-6.0706e-24
-6.24061e-24
-1.82914e-24
-9.51703e-24
-6.74667e-24
-1.11573e-23
-1.06367e-23
-1.14086e-23
-1.2848e-23
-2.0884e-24
-6.74178e-24
-5.69991e-24
-9.79033e-24
-8.79251e-24
-1.15171e-23
-2.10871e-24
-1.14486e-23
-3.70528e-24
-1.839e-23
-1.63533e-24
-7.19746e-24
2.22023e-24
-5.67335e-24
-1.68945e-24
6.43903e-24
-8.8777e-24
1.14317e-23
1.224e-23
2.00863e-23
1.07801e-23
1.88602e-23
-3.58564e-24
2.40298e-23
2.01371e-23
-1.10046e-23
1.27316e-24
4.57669e-24
8.27504e-24
6.425e-24
-4.55025e-24
-1.74428e-24
-1.71423e-24
4.09736e-25
-8.71112e-24
-1.10663e-24
-9.41211e-24
-2.02343e-24
-1.17073e-23
-2.85489e-24
-1.50212e-23
-3.78383e-24
-5.80059e-24
-2.36245e-24
-2.46345e-24
-7.85816e-24
-4.53612e-24
-6.58346e-24
-7.20055e-24
-2.95757e-24
-1.23578e-23
-3.21012e-24
8.60329e-24
-1.48366e-24
-1.76952e-24
-3.66952e-24
1.84751e-23
1.15334e-23
2.40292e-24
5.84965e-24
3.42679e-24
8.88587e-24
6.27211e-24
1.24259e-23
1.67762e-23
6.22529e-24
-9.56209e-24
-8.07311e-24
-4.559e-24
-5.10693e-24
-6.78008e-25
1.29304e-24
-2.45546e-24
2.1283e-24
-6.02786e-24
6.15782e-24
-7.11317e-24
5.78538e-24
-7.33473e-24
3.49187e-24
-1.35262e-23
7.11751e-24
-1.0016e-23
-1.9039e-25
-9.47384e-24
4.80034e-24
-1.58352e-23
8.84956e-24
2.02313e-24
1.00298e-23
-3.8699e-24
4.44992e-24
-1.80549e-24
1.75521e-24
-8.8175e-24
3.2945e-24
8.71165e-24
1.54695e-23
1.6499e-23
2.29379e-23
1.2957e-23
1.78387e-23
6.08344e-24
1.32166e-23
6.64752e-24
7.59325e-24
1.93643e-25
3.63645e-24
3.12641e-24
3.516e-24
-4.67414e-24
3.38517e-25
8.35277e-24
6.73457e-24
8.47239e-24
3.99536e-25
3.47018e-25
8.03703e-24
-1.17655e-24
7.4926e-24
-1.00111e-23
8.55478e-24
2.05564e-25
-9.57326e-26
-1.9237e-23
-1.12943e-23
-4.99538e-24
5.89178e-24
-4.87235e-24
7.26299e-24
-1.25101e-23
4.18768e-25
-4.04044e-24
4.15579e-24
-2.2933e-24
7.85984e-24
-3.36936e-24
6.00427e-24
5.79057e-24
7.83945e-24
1.66517e-23
2.0736e-23
1.35672e-23
3.3678e-23
7.53502e-24
2.94611e-23
4.84259e-24
1.61398e-23
1.12344e-24
1.32536e-23
-2.32859e-24
7.68234e-24
-3.51778e-24
3.2916e-24
5.678e-24
1.78701e-24
8.31731e-24
7.60438e-24
7.70827e-24
-1.29964e-23
2.70304e-24
9.83831e-24
-2.56488e-25
7.19037e-24
-1.74154e-23
-1.1782e-23
-4.47645e-24
-4.17078e-24
1.30052e-24
6.05047e-24
-3.50071e-24
1.25257e-23
-1.31721e-23
1.15476e-23
-9.32696e-24
1.50122e-23
-8.70244e-24
1.89748e-23
-1.19996e-24
8.14245e-24
2.4713e-25
1.59569e-23
1.55491e-23
2.69002e-23
2.18539e-23
2.0831e-23
1.30109e-23
7.11234e-24
-6.38816e-24
1.02408e-23
3.54191e-24
2.29453e-23
-4.14066e-24
2.15327e-23
-3.93483e-24
2.19326e-23
-4.64411e-24
2.00619e-23
1.20394e-23
2.31242e-23
1.4648e-23
9.82446e-24
-7.42956e-24
-2.34166e-23
-1.21962e-24
3.13937e-24
-1.33353e-23
-1.7776e-23
-1.41195e-23
-2.09738e-24
4.02534e-24
4.33993e-24
5.65631e-24
-9.61097e-24
-2.89951e-24
-1.49013e-23
-7.15627e-24
-1.96704e-24
8.26393e-25
5.79728e-24
-1.88316e-23
-9.97485e-25
7.27604e-25
2.90948e-24
8.88054e-24
6.45869e-24
6.30065e-24
1.35838e-23
1.10629e-23
2.11169e-23
1.5834e-23
2.07775e-23
5.37689e-24
2.0788e-23
1.58872e-24
2.46238e-23
-2.55109e-24
2.34275e-23
-4.71249e-24
2.46956e-23
-2.55648e-24
3.65472e-23
5.68837e-24
3.0312e-23
2.21082e-23
1.87826e-23
-2.59704e-24
-1.09493e-23
-1.86241e-23
-2.31893e-23
-6.81521e-24
-3.55062e-24
-8.35179e-24
4.18064e-24
-4.88807e-24
4.97193e-24
-3.89497e-24
1.12195e-24
6.45272e-24
-8.62419e-24
-3.03036e-24
-5.6301e-24
-5.17651e-24
-3.48234e-24
-1.75644e-23
4.33867e-24
3.09825e-24
2.13641e-23
1.7785e-23
2.94766e-23
1.07927e-23
2.52858e-23
9.71892e-24
2.34966e-23
1.74141e-23
1.78416e-23
1.24286e-23
2.7148e-23
2.48931e-25
3.32499e-23
-3.03827e-24
2.33437e-23
4.76437e-24
2.05825e-23
-9.78978e-24
1.29366e-23
1.64544e-24
2.00313e-23
3.25302e-23
3.35945e-24
-3.52429e-24
-1.06944e-23
-3.61796e-24
-9.65114e-24
-3.61218e-24
-1.07179e-25
-3.32807e-24
2.5588e-24
-5.90377e-24
9.84966e-24
-9.93841e-24
2.11955e-23
2.93135e-24
1.79404e-23
-3.03645e-24
1.18017e-24
-2.75052e-24
2.8906e-25
-6.05754e-24
8.20483e-24
9.4585e-24
2.14946e-23
1.41822e-23
2.81326e-23
9.81883e-24
3.20811e-23
4.1375e-24
3.25828e-23
2.00644e-23
2.53026e-23
2.01664e-23
9.63518e-24
-9.56906e-24
2.3535e-23
-3.41553e-24
1.87853e-23
-3.58994e-25
2.09365e-23
-5.2129e-24
1.96403e-23
9.45561e-24
2.30378e-23
2.37234e-23
-8.72347e-25
-5.97209e-24
-2.22028e-23
3.27734e-24
1.00135e-23
-2.02335e-24
4.46078e-24
-1.24933e-24
8.52984e-25
-1.12033e-24
-3.8968e-24
-1.09417e-23
-7.15233e-24
-3.9819e-24
-6.26596e-24
-1.66944e-24
2.51447e-24
-1.24811e-24
2.26103e-24
4.92692e-24
6.42729e-24
1.20935e-23
1.76805e-23
1.48324e-23
2.97047e-23
1.07191e-23
1.85126e-23
-1.884e-24
5.64981e-24
6.4614e-24
1.79632e-23
3.0518e-23
2.45021e-23
-1.32627e-23
6.72733e-24
-3.6725e-24
3.46217e-23
-2.42975e-24
3.88236e-23
-1.92553e-25
1.83154e-23
8.91369e-24
2.63688e-23
2.03949e-23
9.1538e-24
5.94138e-24
-5.55975e-24
5.4298e-24
5.00531e-24
-4.11588e-24
1.00742e-23
-1.37401e-24
1.51087e-23
-6.76604e-24
6.47781e-24
-7.29349e-24
-8.57314e-24
-8.03162e-24
-6.03136e-24
-2.26233e-24
-1.10709e-23
2.55362e-24
3.75631e-25
7.28446e-24
5.39175e-24
1.64946e-23
1.16875e-23
4.57869e-24
1.96763e-24
7.13297e-25
8.89339e-24
3.64378e-24
8.94859e-24
1.00691e-23
1.27587e-23
1.81645e-23
1.70489e-23
5.92084e-24
2.16387e-23
-1.24249e-24
8.44757e-24
-1.56277e-23
1.36216e-23
7.62601e-24
3.23099e-23
2.74372e-24
3.09654e-23
3.22459e-23
7.23605e-24
6.17659e-24
-5.6021e-24
5.59304e-24
5.09937e-24
-3.42993e-24
-4.04101e-24
-7.64322e-24
4.32652e-25
-1.25466e-23
-1.48221e-24
-4.61838e-24
-6.26067e-24
-8.35024e-24
-4.52439e-24
5.97703e-24
1.29344e-23
1.35575e-24
2.40183e-23
9.57902e-24
1.99768e-23
7.24516e-24
1.95594e-23
9.20248e-24
6.13081e-24
-5.39657e-25
-1.38254e-23
6.76891e-24
8.05954e-24
1.48484e-23
2.4999e-23
1.63292e-23
1.98034e-23
1.52539e-24
-9.1696e-25
3.81755e-24
9.01085e-24
-3.30926e-24
2.17764e-23
3.78971e-24
2.71525e-23
3.9194e-24
4.77733e-24
-1.38347e-24
-1.08811e-23
5.46131e-24
2.55288e-24
-2.72286e-24
1.38877e-23
-1.24862e-23
-8.72548e-25
-1.44934e-23
-9.45663e-24
-7.87253e-24
-1.70937e-23
7.99933e-25
-7.04462e-24
1.03959e-23
2.57265e-24
1.84393e-24
-1.73336e-24
1.12223e-23
1.85855e-23
-1.8655e-24
2.61747e-23
1.3359e-24
1.35694e-23
1.01188e-23
4.83275e-25
1.71886e-23
1.74046e-23
1.46042e-23
2.90076e-23
6.7566e-24
3.14382e-23
6.19453e-24
1.68141e-23
9.71858e-24
2.05945e-23
-4.3014e-25
2.97281e-23
4.88197e-24
1.66257e-24
-5.52985e-24
5.9563e-24
-2.41398e-24
-9.4617e-24
-1.92787e-23
-1.56028e-23
-3.48994e-24
-1.78497e-23
6.73693e-24
-1.04341e-24
2.93882e-23
5.91627e-24
2.56139e-23
4.46169e-24
5.8585e-24
8.99104e-24
1.21882e-23
1.40479e-23
2.13067e-23
-3.44812e-24
1.06119e-23
-5.42209e-24
1.97036e-23
1.89665e-23
4.21804e-23
2.19764e-23
3.05089e-23
1.54491e-23
3.62891e-23
-1.89922e-24
9.80523e-24
5.80637e-24
1.50874e-23
1.51968e-23
1.98167e-24
2.10188e-24
-1.76362e-24
-6.0609e-25
-3.51697e-24
1.54555e-24
-8.24201e-24
-1.34135e-23
-5.29105e-24
-1.42252e-24
1.22173e-23
2.00725e-24
2.35334e-23
-1.40127e-24
2.70076e-23
8.20299e-24
1.23135e-23
1.6351e-23
2.41715e-23
1.19871e-23
2.9133e-23
4.15647e-24
3.79064e-23
2.54564e-24
3.83899e-23
1.03148e-23
2.33302e-23
2.50186e-23
1.69578e-23
2.05273e-24
1.31913e-24
2.18348e-24
1.29299e-24
-2.1262e-24
-5.18002e-24
8.01967e-26
2.17017e-24
2.38884e-25
-2.68978e-24
-1.85546e-23
-1.84979e-24
8.54718e-24
2.3735e-24
1.22844e-23
-1.33815e-23
3.04246e-24
1.39333e-23
2.26041e-23
1.64789e-23
3.01059e-23
1.46286e-23
3.03611e-23
4.36287e-24
2.84007e-23
-2.6827e-24
3.02604e-23
9.12366e-24
9.10154e-25
7.68047e-24
1.84756e-24
3.0705e-24
-5.54952e-24
-9.2181e-24
9.87544e-24
1.04463e-23
2.54513e-23
1.4904e-24
1.25049e-23
-3.62047e-24
1.10188e-23
1.5074e-24
-5.3843e-24
9.12973e-24
9.94796e-24
1.63763e-23
1.3182e-23
1.32429e-23
3.08323e-23
2.49208e-24
-3.55623e-24
6.73003e-24
-5.29588e-25
6.32995e-24
1.99709e-23
-3.26903e-24
1.88799e-23
6.2951e-24
1.62623e-23
-7.48569e-25
1.49294e-23
-1.1714e-23
1.39357e-23
7.58577e-24
9.98095e-24
7.82815e-24
7.73284e-24
2.42434e-23
1.00883e-23
-4.93986e-25
8.61886e-24
-3.90408e-24
6.93167e-24
1.85511e-24
-4.35945e-24
-8.34285e-24
2.90691e-24
7.85934e-24
9.08013e-25
8.59474e-24
-1.30983e-23
2.34421e-23
1.11664e-23
4.647e-23
7.70132e-24
5.38613e-23
-3.37568e-24
-1.51309e-23
-1.19667e-23
3.19078e-24
-2.33111e-24
-8.67766e-25
-8.5952e-24
6.51261e-24
1.16976e-23
3.18453e-24
4.33301e-24
-2.44847e-24
1.00241e-23
1.11278e-23
3.00037e-23
9.76636e-25
-7.77578e-24
-6.75416e-24
1.19242e-24
-3.45163e-24
3.20054e-24
-1.21997e-23
1.87846e-24
8.88192e-24
5.96374e-24
6.73342e-24
3.19007e-24
1.00597e-23
1.72522e-24
-4.67404e-24
-5.27704e-24
-9.99885e-25
-1.30315e-25
8.89825e-24
-1.04487e-23
4.84708e-25
1.38386e-23
1.03631e-23
1.08093e-23
1.34859e-23
-3.42582e-25
-2.90792e-23
-8.03773e-24
-2.62293e-24
3.27405e-24
1.11946e-23
1.25219e-23
1.85563e-24
-1.55404e-23
8.28703e-24
5.81764e-24
4.15654e-24
1.80538e-24
3.15723e-24
1.00863e-24
3.27206e-24
1.1933e-24
8.73085e-24
6.262e-24
-6.7568e-25
6.76258e-24
7.93262e-24
5.15509e-24
2.63852e-25
-5.75542e-25
-2.81553e-25
-5.33417e-24
-5.2628e-24
3.72476e-24
-8.52525e-24
2.48829e-24
-3.17735e-25
-1.36817e-23
2.14923e-25
-4.81837e-24
4.75621e-24
-9.0056e-24
-1.39921e-24
1.81938e-24
-1.04734e-23
-5.41856e-24
3.50181e-24
-1.24687e-23
-1.92093e-24
4.37828e-24
-6.32294e-24
-5.78958e-24
3.90272e-24
-1.09814e-23
-1.45865e-24
4.74415e-24
-5.68838e-24
-3.36692e-24
6.9783e-24
-1.86123e-23
6.68519e-25
6.5341e-24
-7.7835e-24
-1.3615e-23
8.26049e-24
1.00445e-23
3.20808e-24
5.71889e-24
-2.3979e-23
-1.0735e-23
3.08236e-24
5.3929e-24
-2.64568e-24
6.2007e-24
-8.97065e-24
-8.49519e-24
3.52833e-24
5.07706e-24
-6.25857e-24
5.8399e-24
-1.69906e-23
-1.01917e-23
5.58204e-25
8.20791e-24
-6.456e-24
3.24422e-24
-1.96311e-23
-2.12886e-23
4.09404e-26
-4.97678e-24
-7.97631e-24
2.44043e-24
-2.27177e-23
2.44313e-24
-2.55038e-24
-8.86401e-24
-1.25403e-23
5.39856e-24
9.00832e-24
-9.30456e-24
1.8937e-25
-1.72945e-23
-1.1329e-23
2.93779e-25
9.25089e-24
-2.01558e-23
2.3727e-24
-1.81336e-23
-7.22524e-24
-2.41437e-24
9.36683e-24
1.11343e-23
1.76477e-24
-1.38354e-23
-6.91511e-24
-3.15651e-24
-7.34488e-24
-9.34218e-24
2.03629e-24
-9.38461e-24
-2.3391e-24
7.24774e-24
-3.24204e-25
-1.07592e-23
1.63097e-23
5.46333e-24
8.97042e-24
1.29561e-23
1.23573e-23
8.53121e-24
1.0748e-23
4.08921e-24
1.12241e-23
-1.16465e-24
1.33091e-24
-1.2337e-23
2.79851e-25
-1.33906e-23
7.39692e-24
-1.73111e-23
9.08069e-24
-2.15801e-23
3.2659e-26
-1.21512e-23
2.30843e-23
-8.94094e-24
1.23576e-23
-1.64029e-23
7.66992e-24
-1.01979e-23
1.69075e-23
-3.71988e-24
1.22725e-23
-3.255e-24
1.28252e-23
-1.28811e-24
1.06043e-23
-2.76913e-24
3.75481e-24
-1.43337e-24
-5.18892e-25
2.41335e-24
-6.16301e-24
6.57755e-24
4.7143e-25
5.31824e-24
-2.26587e-24
1.42484e-24
-7.19008e-24
1.16847e-24
2.17936e-23
4.87884e-24
4.78726e-24
6.63911e-25
-3.60525e-24
-4.57911e-24
-1.30236e-23
-7.12625e-24
-1.21026e-23
-7.86939e-24
-1.04696e-23
-6.02628e-24
-1.23904e-23
-5.94108e-24
-5.98498e-24
-9.37833e-24
-3.07989e-23
-1.23379e-23
-2.98504e-23
-6.07388e-24
-1.93493e-23
-5.90718e-24
-2.47208e-23
-6.02558e-24
-3.40753e-23
-8.23023e-24
-2.43967e-23
-3.80056e-24
-1.45197e-23
-3.59077e-24
-1.64222e-23
-3.65712e-24
-2.25248e-23
-7.17514e-25
1.53279e-24
8.38548e-24
-2.12251e-24
-8.26411e-24
1.97427e-23
1.54873e-23
2.36469e-24
-1.32353e-24
7.18152e-24
1.08152e-24
1.99484e-24
-8.21759e-24
7.81934e-24
-1.04367e-24
1.38151e-24
-8.86805e-25
-3.38456e-24
-3.99506e-24
1.66326e-24
-2.56353e-24
1.98605e-23
4.8883e-24
1.066e-23
7.76452e-25
1.45312e-23
-7.49667e-26
2.53065e-23
-2.81987e-24
2.05265e-23
-9.35921e-24
1.69406e-23
-7.70023e-24
1.80513e-23
-1.09058e-23
1.55295e-23
-4.06339e-24
1.42041e-23
-2.1824e-24
1.70854e-23
-6.40633e-24
1.16067e-23
-5.39336e-24
-1.17659e-23
-8.20663e-24
-3.83993e-24
-2.60042e-24
-5.70767e-24
-1.50685e-24
-8.26135e-24
-7.35931e-25
-7.95053e-24
-2.15203e-24
-1.39842e-24
-4.70303e-24
-1.97878e-23
-5.3042e-24
-6.70787e-24
-3.69535e-24
-1.19211e-23
-5.39022e-24
-1.62962e-23
-5.87643e-24
-2.13666e-23
-3.70669e-24
-2.85282e-23
-1.21996e-24
6.18551e-24
-1.4568e-24
-9.17757e-24
-4.04566e-24
-1.33265e-23
-4.28426e-24
-1.21136e-23
-2.25595e-24
-2.3925e-23
-1.77044e-24
-1.40276e-23
-2.6282e-24
-1.71161e-23
-2.39999e-24
-2.05072e-23
-1.76523e-24
-4.84324e-24
8.02326e-25
2.3106e-24
1.66003e-23
-8.81353e-24
-7.55428e-24
8.6985e-24
-6.76115e-24
1.05395e-23
-4.01523e-24
-6.51348e-25
-5.82077e-24
6.26348e-24
-2.14488e-24
6.92019e-24
4.08099e-24
3.61324e-24
6.56764e-24
-8.01485e-25
-1.05034e-24
1.17526e-23
1.69952e-24
1.92795e-23
7.89701e-24
1.81906e-23
2.84191e-24
1.78082e-23
3.98002e-24
7.83062e-24
7.41801e-24
3.19086e-23
5.52176e-24
1.21512e-24
3.50273e-24
3.64682e-23
1.05851e-23
1.17005e-23
-3.3887e-24
2.1125e-23
-9.47275e-26
1.02708e-23
9.14183e-24
7.56703e-24
4.10935e-25
1.84766e-24
-3.80122e-24
-9.98716e-25
-4.54252e-24
-2.14415e-24
-8.309e-24
-7.4406e-24
-1.17502e-23
-1.71877e-23
-1.02729e-23
-1.39736e-23
-7.82894e-24
-1.47812e-23
-1.14837e-23
-6.9713e-24
-1.25392e-23
-3.45851e-24
-1.02074e-23
-2.20711e-24
-1.05716e-23
2.02695e-24
-1.08351e-23
-2.27199e-23
-1.50119e-23
-1.40806e-23
-1.2262e-23
-1.30777e-23
-1.00602e-23
-1.50243e-23
-7.99368e-24
-9.48144e-24
-8.62114e-24
-2.19129e-23
-8.47515e-24
-1.9441e-23
-6.90413e-24
-1.97299e-23
-2.60107e-24
-8.76257e-24
-1.04529e-24
1.22631e-23
-3.56661e-24
-4.00645e-24
1.64046e-23
3.00315e-24
-1.06055e-23
1.13949e-23
-2.62909e-24
1.09745e-23
-4.76835e-24
1.96897e-24
-1.39446e-23
8.94398e-24
-5.21801e-24
1.05915e-23
4.97743e-24
-2.46113e-24
1.68706e-24
1.084e-23
-1.23157e-25
9.11458e-24
-6.1865e-25
1.03722e-23
1.669e-24
1.06628e-23
4.55626e-25
2.56104e-23
-5.23493e-24
2.96862e-24
-6.7037e-24
2.45207e-23
-1.87249e-24
1.89387e-23
6.306e-24
1.60438e-23
7.8955e-24
1.50327e-23
1.16113e-23
3.5185e-23
2.48363e-24
-7.38504e-24
-1.18738e-23
-1.55203e-24
-9.95326e-24
-4.89999e-24
-9.36102e-24
-1.71409e-23
-1.57735e-23
-2.00484e-23
-1.18724e-23
-2.204e-23
-1.16002e-23
-1.7013e-23
-1.72646e-23
-2.47861e-23
-1.9364e-23
-1.94212e-23
-1.76743e-23
-4.57989e-24
-1.31868e-23
-1.58115e-23
-1.48779e-23
-1.62012e-23
-1.2194e-23
-1.81262e-23
-1.19031e-23
-1.77699e-23
-8.43611e-24
-1.30785e-23
-1.14916e-23
-1.15614e-23
-1.26054e-23
-1.69101e-23
-1.246e-23
-2.41964e-23
-9.39506e-24
-1.02954e-23
-7.45672e-24
-1.2464e-25
-1.78533e-24
-5.75284e-25
-2.5351e-24
-1.22417e-24
-2.79494e-24
-1.87339e-23
-3.5094e-24
-1.09442e-24
1.13489e-23
-5.33273e-24
-2.8638e-24
1.23495e-23
-1.2641e-23
5.02673e-24
-5.58208e-24
1.19365e-23
3.18958e-24
1.14563e-23
7.31381e-25
6.35325e-24
1.90452e-24
-1.18208e-24
6.59473e-25
4.95408e-25
-3.52823e-24
7.09283e-24
-6.06666e-24
1.4327e-23
-8.71518e-24
-1.0716e-24
-1.35481e-23
2.59706e-23
-1.3748e-23
6.23605e-24
-3.26386e-24
3.27143e-23
8.70782e-24
2.96414e-23
4.09097e-24
1.74701e-23
2.31644e-24
4.23741e-25
-1.06929e-23
6.81445e-24
-6.13988e-24
-9.89064e-25
-8.94059e-24
-1.13302e-23
-9.14876e-24
-1.39369e-23
-1.46411e-23
-1.46539e-23
-2.07843e-23
-2.37432e-23
-2.15511e-23
-2.9658e-23
-2.41132e-23
-3.20742e-23
-1.92523e-23
-2.72464e-23
-1.61801e-23
-2.01684e-23
-1.62544e-23
-1.23297e-23
-1.82375e-23
-1.06816e-23
-1.87887e-23
-1.85177e-23
-2.09052e-23
-1.16866e-23
-1.99303e-23
-2.18361e-23
-1.72115e-23
-1.63608e-23
-1.54422e-23
-4.79081e-24
-1.04253e-23
-4.94727e-24
-8.73131e-24
1.15824e-23
-6.62147e-24
8.95514e-24
-7.27072e-24
-4.96371e-24
-9.05935e-24
-1.65116e-24
-8.96128e-24
3.92025e-24
-6.51387e-24
-6.85114e-24
-6.30581e-24
-8.26027e-24
6.4442e-24
1.45282e-23
4.92988e-24
1.41398e-23
1.13459e-23
1.38388e-23
-3.98442e-24
8.94076e-24
-3.56318e-24
1.18842e-23
1.71972e-24
5.21366e-24
5.27939e-24
3.69705e-25
7.28709e-24
-5.13303e-24
-3.06651e-24
5.40099e-24
-7.58977e-25
1.03771e-23
1.15064e-23
-3.96941e-24
7.53854e-24
3.48993e-23
4.27198e-24
2.86346e-23
4.84587e-25
2.44186e-23
-3.73427e-24
2.85305e-23
-4.94092e-24
-8.88559e-25
-7.52941e-24
-3.7498e-24
-1.19652e-23
-9.2618e-25
-1.42166e-23
-7.50437e-24
-8.16188e-24
-1.94496e-23
-3.53158e-24
-3.82808e-23
-6.29716e-25
-1.39459e-23
-7.21966e-24
-2.1011e-23
-1.98433e-23
-2.85642e-23
-2.04958e-23
-1.81923e-23
-1.86594e-23
-2.81151e-23
-2.52247e-23
-2.55855e-23
-2.13396e-23
-2.69234e-23
-2.01676e-23
-2.53013e-23
-2.05801e-23
-1.41191e-23
-1.50269e-23
-1.19313e-23
-1.26177e-23
-1.73735e-23
-1.16226e-23
1.43004e-23
-8.99709e-24
3.51067e-25
-9.60706e-24
-4.74122e-24
-4.95181e-24
-4.84033e-24
-5.37543e-24
-9.23691e-24
-4.17054e-24
-1.63864e-24
-1.5506e-24
5.91305e-24
-3.63403e-25
1.93478e-23
-3.3044e-24
-4.21515e-24
-5.68644e-24
-5.48224e-24
1.64506e-24
9.15964e-24
8.22886e-25
7.75745e-24
2.96166e-24
1.41438e-23
-8.58439e-24
1.45129e-23
3.42189e-24
1.08932e-23
5.48745e-24
6.67895e-24
3.45227e-24
-7.4134e-24
-5.36911e-24
-7.54891e-24
-3.76406e-24
1.46597e-23
-2.05647e-25
8.21715e-24
-3.40251e-25
-7.20931e-24
2.34677e-24
2.80181e-23
4.97662e-24
2.12749e-23
5.46507e-24
1.75689e-23
-2.10555e-24
2.42679e-23
-9.04414e-24
-1.13338e-23
-1.51319e-23
-1.30689e-23
-1.08498e-23
5.7746e-24
-1.92228e-25
1.96157e-24
-9.02853e-24
-1.19999e-23
-1.09792e-23
-5.15357e-23
-1.2485e-23
-5.55697e-23
-9.98236e-24
-2.9586e-23
-1.00832e-23
-2.91761e-23
-9.79045e-24
-4.63521e-23
-1.47252e-23
-1.80488e-23
-1.46835e-23
-3.00356e-23
-1.36861e-23
-3.70141e-23
-1.01135e-23
-8.25781e-24
-7.57076e-24
2.65732e-24
-8.67506e-24
-6.47055e-25
-9.71174e-24
-1.65203e-23
-7.47495e-24
1.93412e-23
-6.70453e-24
2.49426e-24
-9.99515e-24
1.78718e-24
-6.0344e-24
2.25478e-24
-5.68808e-24
3.11515e-24
-5.41253e-24
6.61441e-24
-4.18315e-24
-9.9692e-24
-4.74766e-24
-7.61403e-24
-6.45e-24
-9.26156e-24
-6.69261e-24
-7.6119e-24
-4.4671e-24
-4.58861e-24
-3.22896e-24
-2.38798e-24
-4.16006e-25
2.2208e-23
6.16207e-24
1.82851e-23
1.07538e-23
6.65364e-24
1.47063e-23
2.80956e-25
1.15084e-24
-4.33493e-24
-4.90352e-24
-2.99947e-24
6.51458e-24
9.97957e-24
4.07496e-24
3.30039e-24
-1.75895e-24
3.91107e-24
-4.62193e-24
1.32038e-23
-5.24596e-24
1.13157e-23
-1.03288e-23
3.51702e-24
-1.35993e-23
1.04118e-23
-1.79665e-23
7.41832e-24
-1.46136e-23
-1.98989e-24
-2.10385e-23
-4.4552e-24
-1.63953e-23
-4.87484e-24
-9.76956e-24
-6.12259e-24
-1.07691e-23
-4.94172e-23
-1.24833e-23
-5.34886e-23
-1.35331e-23
-4.46909e-23
-7.15971e-24
-4.57835e-23
-7.88952e-24
-4.85273e-23
-1.08399e-23
-2.25987e-23
-6.57255e-24
-2.43318e-23
-7.88281e-24
-2.43072e-23
-7.50937e-24
-1.98212e-23
-7.34711e-24
-5.24121e-24
-5.44442e-24
-3.01349e-24
-7.64827e-24
2.50495e-25
-7.34813e-24
3.39009e-24
-8.6952e-24
1.48434e-23
-5.70787e-24
1.292e-23
-3.73648e-24
7.38184e-24
-1.36775e-24
3.13931e-24
-3.11343e-24
-6.70867e-24
-1.3175e-24
-2.80158e-23
-9.14825e-25
-1.47331e-23
-1.58573e-24
-2.19748e-23
-8.81682e-25
-3.86999e-24
-1.73374e-24
-9.40914e-24
-1.4643e-24
8.77526e-25
4.48637e-26
2.1854e-23
8.04328e-24
2.17588e-23
1.13553e-23
-1.77367e-24
-7.8637e-24
-5.32903e-24
6.91965e-25
5.07924e-24
4.63641e-25
-7.39605e-24
8.76465e-25
2.55267e-24
-1.14899e-23
1.40871e-26
-6.71289e-24
4.62602e-24
-1.04736e-23
3.05816e-24
-1.29524e-23
8.50343e-24
-1.63609e-23
-7.54261e-24
-1.58326e-23
8.07096e-24
-2.03289e-23
-7.14906e-24
-2.11358e-23
1.39456e-24
-2.10824e-23
-3.86605e-24
-2.07878e-23
-9.73023e-24
-1.88654e-23
-1.50623e-23
-2.68951e-23
-4.57483e-23
-2.96007e-23
-3.59332e-23
-2.55097e-23
-5.54013e-23
-2.47927e-23
-5.37665e-23
-1.69754e-23
-3.7369e-23
-1.02809e-23
-3.0554e-23
-7.05272e-24
-2.71918e-23
-7.63558e-24
-1.40624e-23
-4.5204e-24
-1.34687e-23
-5.72379e-24
-9.02005e-24
-5.87131e-24
-9.89461e-24
-3.73579e-24
2.27756e-24
-4.6887e-24
1.37932e-23
-2.69886e-24
1.62309e-23
-4.15396e-24
3.78071e-23
-4.66989e-24
5.38177e-24
-7.4483e-24
2.11194e-24
-3.03389e-24
-2.69992e-24
-2.27378e-24
-1.66265e-23
-4.68606e-24
-1.29209e-23
-6.11854e-24
-3.76671e-23
-1.01614e-23
-7.97091e-24
3.53791e-24
3.41062e-24
-1.47215e-24
3.71547e-24
5.15274e-24
2.22394e-23
1.56226e-23
1.01813e-23
5.27865e-24
1.68941e-24
-4.34889e-24
-4.75726e-24
-6.1226e-24
2.16726e-24
-4.57674e-24
-1.32087e-23
-3.66683e-24
1.13637e-23
1.04338e-24
-6.25526e-24
-9.72868e-24
-5.55726e-24
-1.19359e-23
-1.53426e-24
-1.85665e-23
2.20626e-24
-2.10598e-23
-7.85501e-24
-2.78249e-23
-1.2278e-24
-2.25324e-23
-3.82741e-24
-1.91823e-23
-5.21495e-24
-1.4038e-23
3.35091e-25
-2.16495e-23
-2.86122e-23
-2.57691e-23
-1.89974e-23
-2.05499e-23
-2.86974e-23
-2.35403e-23
-2.94297e-23
-2.40978e-23
-3.72051e-23
-1.58618e-23
-2.83241e-23
-8.8296e-24
-3.11992e-23
-4.20756e-24
-2.78466e-23
-9.68827e-24
-2.17603e-23
-1.0044e-23
-1.56271e-23
-8.93691e-24
-1.25885e-23
-6.61077e-24
-5.65135e-24
-8.13094e-24
-3.42696e-24
-9.35115e-24
-2.02378e-24
-5.94782e-24
7.05441e-24
-5.58035e-24
7.97443e-24
-5.13072e-24
1.30999e-23
-6.51635e-24
1.54636e-23
-9.83712e-24
1.78006e-23
-9.16832e-24
-1.72215e-23
-1.04194e-23
-2.7674e-23
-1.15871e-23
-4.679e-23
-1.82711e-23
-4.00742e-23
-1.29175e-23
-7.27516e-24
5.49699e-24
5.64624e-24
-9.18435e-24
8.34593e-24
5.94831e-24
1.40081e-23
1.10812e-23
3.70396e-24
-6.78853e-24
1.05164e-24
-1.84554e-24
-1.6766e-24
-5.40133e-25
-2.30983e-24
-2.04799e-24
-6.21652e-24
-3.3766e-24
-2.81841e-24
-7.71308e-24
-8.20199e-24
-1.79322e-23
-1.21147e-23
-2.205e-23
-9.78767e-24
-2.29871e-23
-1.10793e-23
-2.43036e-23
2.67828e-24
-1.20247e-23
4.76068e-25
-9.45038e-24
1.65184e-23
-1.05372e-23
-2.01906e-23
-1.31213e-23
-6.64912e-24
-1.38151e-23
-2.24984e-23
-1.76416e-23
-2.39998e-23
-1.92836e-23
-2.48594e-23
-2.16569e-23
-8.88305e-24
-1.84193e-23
-1.79773e-23
-1.8903e-23
-1.12196e-23
-1.95827e-23
-5.89637e-23
-2.23108e-23
-3.64004e-23
-1.23466e-23
-1.85664e-23
-6.91094e-24
-1.62346e-23
-9.6487e-24
-1.43926e-23
-7.26802e-24
-1.384e-23
-7.1121e-24
-2.77288e-24
-4.62673e-24
6.95255e-24
-3.19898e-24
7.67496e-24
-4.16605e-24
-6.89784e-24
-2.96555e-24
-6.5581e-24
-6.75725e-24
6.98674e-24
-5.47895e-24
-2.49024e-24
-7.73953e-24
-4.14753e-23
-9.6372e-24
-4.55405e-23
-4.25813e-25
-2.63196e-23
6.53271e-24
1.92042e-23
7.00474e-24
3.33156e-24
6.12466e-24
8.39438e-24
-6.23665e-24
8.14142e-24
3.59917e-24
3.36545e-24
-5.81289e-24
9.55416e-24
1.21577e-24
2.234e-24
1.94153e-24
2.11878e-24
1.50499e-24
-5.20598e-25
-3.61791e-24
-1.27016e-23
-1.1004e-24
-1.44495e-23
-4.78188e-24
-1.07005e-23
-1.07234e-23
-1.53947e-23
-1.88409e-23
-1.60513e-23
-2.56144e-23
7.99158e-24
-1.32979e-23
8.09177e-24
-1.26419e-23
7.17452e-24
-2.77704e-24
1.11534e-23
-4.56458e-24
-1.9275e-23
-1.56739e-23
-2.13652e-23
-1.73494e-23
-1.78224e-23
-2.01976e-23
-2.35461e-23
-2.33759e-23
-1.85593e-23
-2.06342e-23
-1.54369e-23
-1.65317e-23
-1.80042e-23
-1.92226e-23
-2.40484e-23
-1.81068e-23
-2.83784e-23
-1.81401e-23
-2.14765e-23
-1.58227e-23
-1.8294e-23
-1.07153e-23
-1.36229e-23
-3.92334e-24
-1.62722e-23
-4.87609e-24
-1.34364e-23
-6.91058e-24
-6.03376e-26
-7.60649e-24
6.86001e-24
-7.6915e-24
1.07361e-23
-9.49278e-24
-2.65622e-23
-1.15966e-23
-4.7191e-24
-7.81284e-24
3.09971e-25
-8.50953e-24
1.08635e-23
-6.99499e-24
2.47809e-23
-4.04933e-24
1.56041e-23
-4.98139e-24
-1.20418e-23
-7.18145e-24
-2.16177e-23
-5.35624e-24
-3.02024e-23
-7.12413e-24
-9.38319e-24
4.17335e-24
6.79301e-24
-4.8642e-24
2.66899e-24
1.76119e-24
7.09287e-24
2.46815e-24
1.16892e-23
-1.74478e-24
8.604e-24
5.49351e-24
-1.5701e-24
5.4477e-24
2.56828e-24
-9.28343e-25
-1.76166e-23
-2.02661e-23
-1.64967e-23
-1.66205e-23
-1.60674e-23
-1.35245e-23
-2.50887e-23
-1.35787e-23
3.07899e-25
-1.25335e-23
1.09059e-23
-8.24753e-24
2.81568e-23
-9.46099e-24
5.58436e-24
-1.40749e-23
-1.19264e-23
-1.78349e-23
-1.74579e-23
-2.33631e-23
-2.67919e-23
-2.48511e-23
-3.26306e-23
-2.65349e-23
-2.51862e-23
-2.7784e-23
-1.33985e-23
-2.20994e-23
-2.11891e-23
-2.36309e-23
-2.24676e-23
-1.69857e-23
-2.49594e-23
-1.38703e-23
-2.46761e-23
-1.31033e-23
-9.72071e-24
-1.36899e-23
7.27793e-25
-1.59775e-23
-2.85017e-23
-1.42453e-23
-1.34328e-23
-1.38028e-23
-1.575e-23
-1.27277e-23
-1.18634e-23
-8.1681e-24
1.50127e-24
-3.71135e-24
-1.65273e-24
-5.16415e-24
-2.73568e-24
-6.04488e-24
-2.61923e-24
-3.98763e-24
6.55078e-24
-3.88323e-24
5.85907e-24
-3.90485e-24
4.99887e-24
-5.11491e-24
2.47686e-24
-5.934e-24
-1.50797e-23
-6.7142e-24
-2.98713e-23
-7.37276e-24
-3.39078e-23
-3.58331e-24
-2.64378e-23
3.31435e-25
2.34349e-24
1.82206e-24
1.05451e-23
-6.87359e-24
3.02872e-24
-1.60804e-24
2.41369e-24
1.40486e-25
1.60236e-23
8.7392e-26
8.15947e-24
-1.14135e-23
-6.66177e-24
-2.50311e-23
-1.95629e-23
-2.67977e-23
-1.7445e-23
-2.15634e-23
-1.23754e-23
-8.92298e-24
-1.54956e-23
-1.43918e-23
-2.4122e-23
-1.04868e-23
7.22824e-24
-5.06805e-24
9.88254e-24
-9.86796e-24
1.58045e-23
-1.07299e-23
-2.58752e-24
-2.84227e-23
-2.60741e-23
-3.26806e-23
-1.79351e-23
-3.22668e-23
-3.61215e-23
-2.84228e-23
-3.8189e-23
-1.9857e-23
-9.62651e-24
-8.57158e-24
-2.09616e-23
-4.06577e-24
-2.48397e-24
-2.9079e-24
-8.58482e-24
-7.7819e-24
-2.699e-23
-1.05855e-23
-1.68894e-23
-7.84529e-24
-1.88209e-23
-4.01695e-24
1.598e-23
-2.69491e-24
-2.4051e-23
-9.11957e-24
-1.04694e-23
-7.38956e-24
-5.99086e-25
-1.37723e-23
3.59288e-24
-1.08881e-23
2.91417e-24
-1.3735e-23
-1.63913e-24
-1.67611e-23
1.05067e-24
-1.09126e-23
1.56709e-24
-7.50974e-24
-9.16132e-25
-7.38886e-24
-5.91093e-24
-5.97461e-24
-3.48427e-24
-5.17071e-24
-4.28046e-24
-5.49499e-24
-1.17268e-23
-5.36237e-24
-1.16464e-24
-3.37718e-24
-4.02161e-24
-4.53852e-24
-1.25095e-23
-6.73791e-24
-8.05256e-24
-4.47745e-24
-9.75355e-24
-1.49183e-23
2.02737e-24
-1.02445e-23
8.24758e-25
-3.73552e-24
4.56724e-24
-8.63012e-24
-8.68362e-26
-9.84973e-24
-8.56311e-24
-1.78199e-23
-1.94851e-23
-1.80568e-23
-6.88455e-24
-1.72388e-23
-1.69786e-23
-1.88292e-23
-1.13615e-23
-2.4821e-23
-1.34339e-23
-2.66134e-23
-1.09397e-24
-1.66704e-23
9.21045e-24
-1.83301e-23
-1.30395e-23
-2.59819e-23
-1.29381e-23
-2.30212e-23
-2.42674e-23
-1.89533e-23
-9.05827e-24
-9.8632e-24
-1.23443e-23
-7.91701e-24
-6.60873e-24
-4.90629e-24
-5.49129e-24
-2.53226e-24
-6.16917e-24
8.18524e-25
-1.11825e-23
2.80373e-24
-2.03614e-23
4.02964e-24
-2.04996e-23
4.76259e-24
-9.80323e-24
2.10671e-24
-1.29011e-23
3.07029e-24
-1.53813e-23
3.01285e-24
-2.12764e-23
2.27136e-24
-4.38647e-23
7.97864e-25
2.15922e-24
4.85247e-24
-1.23498e-23
2.26098e-24
-1.2951e-23
1.85935e-24
1.67259e-23
-1.54702e-24
1.75947e-23
-6.61822e-24
1.97384e-23
-1.05686e-23
1.77491e-23
-8.76142e-24
1.0593e-23
-7.1122e-24
-2.0871e-24
-7.87229e-24
-6.19015e-24
-7.9781e-24
-7.83321e-24
-1.0232e-23
-1.5306e-23
-1.36481e-23
-2.46455e-23
-1.24721e-23
-3.6618e-23
-1.31405e-23
-4.97672e-23
-1.30524e-23
-1.18728e-23
-2.66311e-24
-2.17287e-23
-1.39202e-24
4.44889e-24
-2.19547e-23
-3.97682e-24
-1.57926e-23
7.40072e-25
-1.39911e-23
-4.14904e-24
-2.06914e-23
-6.64541e-24
-1.80904e-23
-1.31859e-23
-1.34307e-23
-8.98678e-24
-5.04995e-24
-1.91237e-23
-1.18851e-23
-1.85945e-23
-1.64342e-23
-1.61827e-24
-2.89814e-23
-5.85267e-24
-2.99725e-23
-5.15748e-25
-2.09486e-23
-5.49007e-24
-1.83559e-23
-1.14946e-23
-1.32301e-23
-3.53048e-24
-1.03164e-23
-4.4919e-24
-8.98894e-24
-5.07374e-24
-3.53659e-24
-1.18301e-24
-4.62191e-24
-2.65357e-24
-1.39464e-24
-3.82613e-25
-2.9849e-24
-1.20745e-23
-4.07643e-24
-2.46013e-23
1.75919e-24
-1.96646e-23
5.15435e-24
-1.15883e-23
1.10426e-23
-1.38366e-23
7.92722e-24
-1.50081e-23
7.23712e-24
-1.64608e-23
6.42126e-24
-1.82577e-23
4.94332e-24
-1.5386e-23
2.03585e-24
-1.18647e-23
-1.226e-24
-4.39857e-23
-1.48209e-24
-1.51695e-23
4.06734e-24
-2.40152e-23
4.13018e-24
1.90843e-23
6.46405e-24
6.60279e-24
1.71455e-24
4.84121e-24
-1.62511e-24
-7.24385e-24
-8.55026e-25
-1.86179e-23
-3.04928e-24
-2.45374e-23
-5.24701e-24
6.37102e-24
-7.19584e-24
-3.58285e-23
-1.03805e-23
-2.35584e-23
-9.99906e-24
-3.06803e-23
-9.55177e-24