/*--------------------------------*- C++ -*----------------------------------*\
  =========                 |
  \\      /  F ield         | OpenFOAM: The Open Source CFD Toolbox
   \\    /   O peration     | Website:  https://openfoam.org
    \\  /    A nd           | Version:  7
     \\/     M anipulation  |
\*---------------------------------------------------------------------------*/
FoamFile
{
    version     2.0;
    format      ascii;
    class       volVectorField;
    location    "64000";
    object      U;
}
// * * * * * * * * * * * * * * * * * * * * * * * * * * * * * * * * * * * * * //

dimensions      [0 1 -1 0 0 0 0];

internalField   nonuniform List<vector> 
4782
(
(1.81291e-18 9.74794e-19 -0.00610309)
(1.88418e-18 8.60648e-19 -0.00600537)
(1.93456e-18 8.0782e-19 -0.00590625)
(1.94763e-18 8.37239e-19 -0.0058057)
(1.92491e-18 9.12013e-19 -0.00570369)
(1.89067e-18 9.90467e-19 -0.0056002)
(1.90793e-18 9.92998e-19 -0.00549521)
(1.95333e-18 9.57453e-19 -0.0053887)
(1.93496e-18 1.01503e-18 -0.00528066)
(1.87183e-18 1.13585e-18 -0.00517107)
(2.73395e-19 5.50233e-19 -0.00930169)
(6.25281e-19 3.39595e-19 -0.00925792)
(8.15666e-19 2.67842e-19 -0.00921184)
(7.73652e-19 4.54534e-19 -0.00916368)
(6.99407e-19 6.33401e-19 -0.00911366)
(5.08124e-19 9.42284e-19 -0.00906192)
(3.15239e-19 1.25812e-18 -0.0090086)
(3.21185e-19 1.30959e-18 -0.00895382)
(4.92885e-19 1.12628e-18 -0.00889766)
(7.56458e-19 8.08605e-19 -0.00884021)
(9.64863e-19 5.35928e-19 -0.00878153)
(1.05413e-18 4.28918e-19 -0.00872167)
(1.05794e-18 4.54709e-19 -0.00866067)
(1.02779e-18 5.24408e-19 -0.00859859)
(1.07693e-18 5.03638e-19 -0.00853544)
(1.16319e-18 4.6068e-19 -0.00847126)
(1.18518e-18 5.15947e-19 -0.00840606)
(1.18352e-18 5.69305e-19 -0.00833988)
(1.21244e-18 5.6821e-19 -0.00827273)
(1.31838e-18 4.52939e-19 -0.00820463)
(1.43703e-18 3.00558e-19 -0.00813557)
(1.34331e-18 3.9932e-19 -0.00806558)
(1.0277e-18 8.00988e-19 -0.00799466)
(7.89464e-19 1.11002e-18 -0.00792279)
(7.98087e-19 1.10278e-18 -0.00784998)
(9.77788e-19 8.78528e-19 -0.00777621)
(1.20439e-18 5.91365e-19 -0.00770149)
(1.34071e-18 4.29368e-19 -0.0076258)
(1.36384e-18 4.23599e-19 -0.00754912)
(1.33994e-18 4.75878e-19 -0.00747145)
(1.38745e-18 4.30459e-19 -0.00739278)
(1.51466e-18 3.03386e-19 -0.00731307)
(1.5459e-18 3.19399e-19 -0.00723232)
(1.49045e-18 4.33306e-19 -0.00715051)
(1.45903e-18 5.013e-19 -0.00706761)
(1.49972e-18 4.8474e-19 -0.00698362)
(1.54489e-18 4.77338e-19 -0.0068985)
(1.5135e-18 5.62754e-19 -0.00681223)
(1.50425e-18 5.88882e-19 -0.0067248)
(1.55348e-18 5.3052e-19 -0.00663616)
(1.52876e-18 5.74596e-19 -0.00654632)
(1.46611e-18 6.63254e-19 -0.00645522)
(1.47155e-18 6.55239e-19 -0.00636286)
(1.42343e-18 7.21387e-19 -0.0062692)
(1.27145e-18 9.32747e-19 -0.00617422)
(1.19071e-18 1.04763e-18 -0.00607789)
(1.28431e-18 9.31149e-19 -0.00598019)
(1.43488e-18 7.27485e-19 -0.00588109)
(1.46418e-18 6.72778e-19 -0.00578057)
(1.38922e-18 7.54703e-19 -0.00567861)
(1.30559e-18 8.49457e-19 -0.00557517)
(1.24759e-18 9.15265e-19 -0.00547026)
(1.28261e-18 8.43034e-19 -0.00536383)
(1.38845e-18 6.74429e-19 -0.00525589)
(1.31592e-18 7.46771e-19 -0.00514642)
(9.35155e-20 1.22939e-18 -0.00928439)
(6.43643e-21 1.31969e-18 -0.00923976)
(-7.18784e-20 1.36721e-18 -0.00919294)
(-6.90833e-20 1.33589e-18 -0.00914414)
(-1.42791e-20 1.27198e-18 -0.00909354)
(4.15803e-20 1.27256e-18 -0.00904129)
(6.37803e-20 1.38532e-18 -0.00898752)
(1.23539e-19 1.49337e-18 -0.00893233)
(2.1988e-19 1.54549e-18 -0.00887581)
(1.74669e-19 1.67503e-18 -0.00881803)
(9.64855e-20 1.77887e-18 -0.00875904)
(1.30949e-19 1.71393e-18 -0.0086989)
(1.73266e-19 1.64252e-18 -0.00863765)
(2.5325e-19 1.56417e-18 -0.00857533)
(4.24377e-19 1.42118e-18 -0.00851197)
(5.0895e-19 1.38067e-18 -0.00844758)
(3.94764e-19 1.57784e-18 -0.0083822)
(2.10717e-19 1.85203e-18 -0.00831585)
(1.50062e-19 1.9597e-18 -0.00824854)
(1.95184e-19 1.92632e-18 -0.00818028)
(2.33931e-19 1.89611e-18 -0.00811109)
(2.32125e-19 1.91901e-18 -0.00804098)
(2.474e-19 1.96057e-18 -0.00796993)
(3.53914e-19 1.93192e-18 -0.00789795)
(5.00604e-19 1.85426e-18 -0.00782504)
(5.71751e-19 1.84288e-18 -0.00775118)
(6.46648e-19 1.78228e-18 -0.00767637)
(8.47869e-19 1.54891e-18 -0.0076006)
(1.02492e-18 1.34327e-18 -0.00752384)
(1.02903e-18 1.34932e-18 -0.00744609)
(1.06044e-18 1.32481e-18 -0.00736734)
(1.12927e-18 1.22566e-18 -0.00728756)
(1.09314e-18 1.24615e-18 -0.00720675)
(1.04856e-18 1.29145e-18 -0.00712487)
(1.10672e-18 1.21259e-18 -0.00704192)
(1.24634e-18 1.04417e-18 -0.00695787)
(1.28865e-18 9.943e-19 -0.0068727)
(1.15626e-18 1.15288e-18 -0.00678639)
(1.0373e-18 1.29057e-18 -0.00669891)
(1.05818e-18 1.24795e-18 -0.00661025)
(1.11046e-18 1.16117e-18 -0.00652037)
(1.13197e-18 1.11865e-18 -0.00642925)
(1.14303e-18 1.09342e-18 -0.00633687)
(1.18573e-18 1.02744e-18 -0.00624321)
(1.2669e-18 9.37874e-19 -0.00614822)
(1.33367e-18 8.81072e-19 -0.0060519)
(1.33428e-18 8.98141e-19 -0.00595421)
(1.27921e-18 9.5818e-19 -0.00585514)
(1.25453e-18 9.66781e-19 -0.00575466)
(1.24744e-18 9.56588e-19 -0.00565274)
(1.24188e-18 9.5353e-19 -0.00554937)
(1.16342e-18 1.04834e-18 -0.00544452)
(1.06345e-18 1.17569e-18 -0.00533819)
(1.07997e-18 1.14842e-18 -0.00523035)
(1.12535e-18 1.07739e-18 -0.005121)
(-1.27381e-18 1.18699e-18 -0.00926628)
(-1.12985e-18 1.11531e-18 -0.00922082)
(-8.65851e-19 8.93745e-19 -0.00917328)
(-6.65259e-19 7.29446e-19 -0.00912384)
(-3.71828e-19 4.54479e-19 -0.00907268)
(-9.84168e-20 2.13046e-19 -0.00901993)
(1.09287e-19 8.95442e-20 -0.00896571)
(2.94659e-19 2.37241e-20 -0.00891012)
(1.75261e-19 3.06309e-19 -0.00885323)
(-4.47206e-20 6.87664e-19 -0.00879512)
(-4.66124e-20 8.23437e-19 -0.00873583)
(6.6289e-20 8.38427e-19 -0.00867541)
(3.15301e-19 7.21826e-19 -0.00861391)
(7.00691e-19 4.52699e-19 -0.00855136)
(9.76543e-19 2.83149e-19 -0.00848778)
(1.01666e-18 3.47257e-19 -0.0084232)
(9.5377e-19 5.17741e-19 -0.00835764)
(8.98348e-19 6.94551e-19 -0.00829112)
(9.03364e-19 8.05546e-19 -0.00822365)
(1.02378e-18 7.78021e-19 -0.00815525)
(1.20216e-18 6.73136e-19 -0.00808592)
(1.34129e-18 5.93609e-19 -0.00801568)
(1.40578e-18 5.98085e-19 -0.00794452)
(1.39471e-18 7.09937e-19 -0.00787243)
(1.3381e-18 8.77588e-19 -0.00779941)
(1.24943e-18 1.06671e-18 -0.00772545)
(1.27546e-18 1.12118e-18 -0.00765054)
(1.40065e-18 1.05879e-18 -0.00757466)
(1.44499e-18 1.06941e-18 -0.00749782)
(1.44856e-18 1.11176e-18 -0.00741998)
(1.40631e-18 1.20332e-18 -0.00734115)
(1.3623e-18 1.26598e-18 -0.00726129)
(1.42301e-18 1.21862e-18 -0.00718041)
(1.4644e-18 1.20592e-18 -0.00709846)
(1.51267e-18 1.17017e-18 -0.00701545)
(1.60392e-18 1.06414e-18 -0.00693134)
(1.60006e-18 1.06177e-18 -0.00684612)
(1.50699e-18 1.16751e-18 -0.00675976)
(1.44302e-18 1.25534e-18 -0.00667224)
(1.43388e-18 1.27512e-18 -0.00658354)
(1.42676e-18 1.28051e-18 -0.00649363)
(1.44213e-18 1.2592e-18 -0.0064025)
(1.48708e-18 1.21145e-18 -0.00631011)
(1.59328e-18 1.10739e-18 -0.00621644)
(1.67295e-18 1.02884e-18 -0.00612146)
(1.64448e-18 1.07253e-18 -0.00602515)
(1.55913e-18 1.17056e-18 -0.00592749)
(1.4852e-18 1.24316e-18 -0.00582845)
(1.46442e-18 1.2509e-18 -0.00572802)
(1.48766e-18 1.21106e-18 -0.00562616)
(1.54579e-18 1.13043e-18 -0.00552285)
(1.60565e-18 1.04294e-18 -0.00541809)
(1.60909e-18 1.03033e-18 -0.00531185)
(1.56194e-18 1.07735e-18 -0.00520413)
(1.53959e-18 1.09593e-18 -0.00509491)
(3.14248e-19 7.64137e-19 -0.00924739)
(3.96394e-19 8.91464e-19 -0.00920113)
(3.63227e-19 1.10584e-18 -0.00915289)
(4.1184e-19 1.20313e-18 -0.00910284)
(5.81128e-19 1.13609e-18 -0.00905113)
(8.04557e-19 9.44304e-19 -0.0089979)
(1.00772e-18 7.38507e-19 -0.00894325)
(1.00456e-18 7.17981e-19 -0.00888726)
(8.50706e-19 8.46537e-19 -0.00883001)
(7.61579e-19 9.68694e-19 -0.00877156)
(8.39721e-19 9.62733e-19 -0.00871197)
(1.10913e-18 7.46816e-19 -0.00865128)
(1.34572e-18 5.31176e-19 -0.00858953)
(1.34084e-18 5.36231e-19 -0.00852674)
(1.16541e-18 7.02387e-19 -0.00846295)
(9.70678e-19 9.14675e-19 -0.00839817)
(8.26818e-19 1.09225e-18 -0.00833243)
(7.0649e-19 1.25667e-18 -0.00826574)
(6.63355e-19 1.35296e-18 -0.00819812)
(6.82026e-19 1.38872e-18 -0.00812957)
(6.05448e-19 1.5172e-18 -0.00806012)
(4.96983e-19 1.66569e-18 -0.00798975)
(5.57485e-19 1.61681e-18 -0.00791847)
(7.21334e-19 1.44997e-18 -0.00784627)
(7.70228e-19 1.41253e-18 -0.00777314)
(7.4712e-19 1.47092e-18 -0.00769908)
(8.24578e-19 1.42743e-18 -0.00762407)
(9.20343e-19 1.32964e-18 -0.0075481)
(9.31476e-19 1.31681e-18 -0.00747116)
(8.55918e-19 1.42262e-18 -0.00739325)
(7.27367e-19 1.59388e-18 -0.00731433)
(7.49814e-19 1.61548e-18 -0.0072344)
(8.81825e-19 1.51461e-18 -0.00715343)
(8.48415e-19 1.58957e-18 -0.00707142)
(7.62515e-19 1.73935e-18 -0.00698834)
(8.08646e-19 1.74071e-18 -0.00690417)
(8.956e-19 1.68139e-18 -0.00681889)
(9.15626e-19 1.6941e-18 -0.00673248)
(8.84712e-19 1.76951e-18 -0.00664492)
(8.47943e-19 1.84844e-18 -0.00655618)
(8.76164e-19 1.85872e-18 -0.00646625)
(9.85691e-19 1.78283e-18 -0.00637509)
(1.16977e-18 1.62047e-18 -0.00628268)
(1.31162e-18 1.48495e-18 -0.00618901)
(1.37077e-18 1.41826e-18 -0.00609403)
(1.3618e-18 1.41666e-18 -0.00599773)
(1.20644e-18 1.57716e-18 -0.00590009)
(1.0549e-18 1.74795e-18 -0.00580108)
(1.05685e-18 1.76283e-18 -0.00570068)
(1.09879e-18 1.72831e-18 -0.00559887)
(1.08291e-18 1.74885e-18 -0.00549564)
(1.06855e-18 1.76271e-18 -0.00539096)
(1.0748e-18 1.74863e-18 -0.00528482)
(1.09345e-18 1.72032e-18 -0.00517721)
(1.09801e-18 1.70334e-18 -0.00506812)
(-4.21752e-19 4.46401e-19 -0.0092474)
(-4.40872e-19 5.39794e-19 -0.00920114)
(-3.37127e-19 5.53794e-19 -0.0091529)
(-2.16678e-19 5.72005e-19 -0.00910285)
(-1.41683e-19 6.32067e-19 -0.00905114)
(-1.59401e-19 7.55147e-19 -0.00899791)
(-2.57455e-19 9.0683e-19 -0.00894326)
(-3.72696e-19 1.0268e-18 -0.00888727)
(-3.58099e-19 1.03946e-18 -0.00883003)
(-7.96646e-20 8.71615e-19 -0.00877159)
(1.99982e-19 7.32745e-19 -0.008712)
(1.72828e-19 8.42896e-19 -0.0086513)
(-4.66415e-21 1.03089e-18 -0.00858955)
(-3.31252e-20 1.03631e-18 -0.00852676)
(1.58037e-19 8.12314e-19 -0.00846296)
(3.42631e-19 5.88057e-19 -0.00839818)
(3.82729e-19 5.15217e-19 -0.00833244)
(4.15013e-19 4.82171e-19 -0.00826575)
(4.98126e-19 4.28875e-19 -0.00819813)
(5.60571e-19 3.88486e-19 -0.00812958)
(5.6717e-19 3.82532e-19 -0.00806012)
(5.62166e-19 3.93588e-19 -0.00798975)
(5.34529e-19 4.30379e-19 -0.00791847)
(4.71002e-19 4.8212e-19 -0.00784627)
(4.55911e-19 4.72177e-19 -0.00777314)
(4.46987e-19 4.65953e-19 -0.00769907)
(2.88002e-19 6.03597e-19 -0.00762406)
(1.52219e-19 7.14856e-19 -0.00754809)
(2.57032e-19 6.02503e-19 -0.00747115)
(4.29218e-19 4.48769e-19 -0.00739323)
(5.20785e-19 3.90667e-19 -0.00731431)
(5.75627e-19 3.95495e-19 -0.00723438)
(6.15379e-19 4.04823e-19 -0.00715341)
(7.47773e-19 3.18214e-19 -0.0070714)
(8.96442e-19 2.22247e-19 -0.00698831)
(8.89556e-19 2.63189e-19 -0.00690414)
(8.08129e-19 3.59072e-19 -0.00681887)
(7.73251e-19 4.09756e-19 -0.00673246)
(7.45842e-19 4.63293e-19 -0.0066449)
(7.43304e-19 4.98421e-19 -0.00655616)
(7.85171e-19 4.92626e-19 -0.00646623)
(7.95396e-19 5.09609e-19 -0.00637507)
(6.9074e-19 6.2701e-19 -0.00628266)
(5.3399e-19 7.70258e-19 -0.00618898)
(4.21803e-19 8.54838e-19 -0.006094)
(3.80329e-19 8.64275e-19 -0.0059977)
(4.52526e-19 7.75249e-19 -0.00590006)
(5.6602e-19 6.58435e-19 -0.00580104)
(5.80288e-19 6.3409e-19 -0.00570064)
(5.34181e-19 6.67972e-19 -0.00559883)
(5.35724e-19 6.53428e-19 -0.0054956)
(5.42819e-19 6.31029e-19 -0.00539091)
(5.12067e-19 6.44598e-19 -0.00528477)
(4.39144e-19 6.99051e-19 -0.00517716)
(3.68287e-19 7.50976e-19 -0.00506808)
(4.33087e-19 2.59749e-19 -0.00926631)
(4.93166e-19 2.34303e-19 -0.00922085)
(5.72815e-19 2.09845e-19 -0.00917331)
(6.55275e-19 1.84083e-19 -0.00912388)
(7.36866e-19 1.53643e-19 -0.00907272)
(7.16411e-19 1.99756e-19 -0.00901998)
(5.66893e-19 3.64088e-19 -0.00896577)
(4.38758e-19 5.27501e-19 -0.00891018)
(6.10215e-19 4.3753e-19 -0.00885329)
(9.22987e-19 2.1905e-19 -0.00879517)
(1.02675e-18 1.63496e-19 -0.00873588)
(9.21001e-19 2.72761e-19 -0.00867546)
(6.53627e-19 5.303e-19 -0.00861395)
(2.43342e-19 9.27458e-19 -0.00855139)
(-1.19038e-19 1.27268e-18 -0.0084878)
(-2.36454e-19 1.37111e-18 -0.00842321)
(-9.67459e-20 1.24819e-18 -0.00835764)
(1.03256e-19 1.11184e-18 -0.00829111)
(1.63937e-19 1.09052e-18 -0.00822364)
(5.91228e-20 1.20976e-18 -0.00815524)
(-7.28481e-20 1.35636e-18 -0.00808591)
(-1.12995e-19 1.41801e-18 -0.00801566)
(-9.35295e-20 1.43902e-18 -0.00794449)
(-7.97907e-20 1.47442e-18 -0.0078724)
(-3.29517e-20 1.48441e-18 -0.00779938)
(7.29875e-20 1.44537e-18 -0.00772541)
(1.97699e-19 1.40327e-18 -0.0076505)
(2.99077e-19 1.38711e-18 -0.00757462)
(4.60747e-19 1.29321e-18 -0.00749777)
(6.73833e-19 1.12995e-18 -0.00741993)
(8.86461e-19 9.76721e-19 -0.0073411)
(1.04696e-18 8.69307e-19 -0.00726124)
(1.06149e-18 8.86793e-19 -0.00718035)
(9.9432e-19 9.71834e-19 -0.00709841)
(8.77925e-19 1.08666e-18 -0.0070154)
(7.71095e-19 1.16503e-18 -0.00693129)
(7.52869e-19 1.15307e-18 -0.00684606)
(8.15511e-19 1.0753e-18 -0.00675971)
(8.6682e-19 1.01817e-18 -0.00667219)
(8.55757e-19 1.02399e-18 -0.00658349)
(8.341e-19 1.03456e-18 -0.00649358)
(8.44898e-19 1.01115e-18 -0.00640244)
(8.16193e-19 1.02683e-18 -0.00631005)
(6.78388e-19 1.1504e-18 -0.00621637)
(5.76892e-19 1.24622e-18 -0.0061214)
(6.06107e-19 1.22552e-18 -0.00602509)
(6.23482e-19 1.20926e-18 -0.00592743)
(5.60894e-19 1.25393e-18 -0.00582839)
(5.8233e-19 1.21985e-18 -0.00572794)
(6.2857e-19 1.16596e-18 -0.00562608)
(5.71272e-19 1.20027e-18 -0.00552278)
(5.47816e-19 1.20325e-18 -0.00541801)
(5.88552e-19 1.15361e-18 -0.00531178)
(6.37334e-19 1.10656e-18 -0.00520406)
(6.67268e-19 1.08571e-18 -0.00509484)
(6.51499e-19 1.11212e-18 -0.00498412)
(6.7779e-19 1.10754e-18 -0.0048719)
(7.91523e-19 1.02009e-18 -0.00475818)
(8.55962e-19 9.67211e-19 -0.00464296)
(-5.86729e-19 1.49366e-18 -0.00928443)
(-4.37154e-19 1.43773e-18 -0.0092398)
(-2.19475e-19 1.29281e-18 -0.00919298)
(-1.12473e-19 1.24228e-18 -0.00914418)
(-1.0036e-19 1.26188e-18 -0.00909359)
(-1.11597e-19 1.26882e-18 -0.00904135)
(-7.04894e-20 1.24068e-18 -0.00898758)
(-1.12553e-19 1.29189e-18 -0.00893239)
(-1.82441e-19 1.34637e-18 -0.00887587)
(-5.14018e-20 1.2102e-18 -0.00881808)
(7.75816e-20 1.06948e-18 -0.00875909)
(3.43124e-20 1.08927e-18 -0.00869894)
(1.31834e-20 1.10345e-18 -0.00863769)
(4.85787e-20 1.0887e-18 -0.00857536)
(1.69149e-20 1.1626e-18 -0.00851199)
(3.44144e-20 1.22123e-18 -0.0084476)
(3.19631e-19 1.06376e-18 -0.00838222)
(5.81373e-19 9.05235e-19 -0.00831586)
(6.75065e-19 8.63537e-19 -0.00824854)
(7.80824e-19 8.06452e-19 -0.00818028)
(7.90638e-19 8.21538e-19 -0.00811108)
(8.18666e-19 8.20915e-19 -0.00804095)
(9.29129e-19 7.7522e-19 -0.0079699)
(9.7901e-19 8.00555e-19 -0.00789792)
(1.03938e-18 8.22268e-19 -0.007825)
(1.16366e-18 7.83742e-19 -0.00775113)
(1.149e-18 8.31193e-19 -0.00767631)
(8.85172e-19 1.04939e-18 -0.00760053)
(6.65212e-19 1.22371e-18 -0.00752376)
(7.472e-19 1.14587e-18 -0.00744601)
(9.07007e-19 9.95373e-19 -0.00736725)
(9.18811e-19 9.35126e-19 -0.00728747)
(8.86832e-19 8.95635e-19 -0.00720665)
(8.74965e-19 8.51469e-19 -0.00712477)
(7.10812e-19 9.49826e-19 -0.00704182)
(3.86322e-19 1.18811e-18 -0.00695776)
(2.32851e-19 1.28851e-18 -0.00687259)
(3.21055e-19 1.2016e-18 -0.00678628)
(4.50037e-19 1.08789e-18 -0.0066988)
(4.84917e-19 1.04845e-18 -0.00661014)
(4.47291e-19 1.06605e-18 -0.00652026)
(4.59703e-19 1.04881e-18 -0.00642915)
(4.97112e-19 1.00593e-18 -0.00633678)
(4.83822e-19 1.00609e-18 -0.00624311)
(4.13739e-19 1.07315e-18 -0.00614814)
(3.38903e-19 1.15464e-18 -0.00605183)
(3.09671e-19 1.19233e-18 -0.00595415)
(3.30413e-19 1.17966e-18 -0.00585509)
(3.51386e-19 1.16452e-18 -0.00575461)
(3.2773e-19 1.18229e-18 -0.0056527)
(3.17135e-19 1.19041e-18 -0.00554934)
(3.82973e-19 1.14023e-18 -0.0054445)
(5.18177e-19 1.03306e-18 -0.00533818)
(6.42567e-19 9.29375e-19 -0.00523035)
(7.35215e-19 8.4695e-19 -0.00512101)
(8.32258e-19 7.62289e-19 -0.00501015)
(8.63097e-19 7.44751e-19 -0.00489776)
(8.14773e-19 7.85917e-19 -0.00478386)
(7.62082e-19 8.18538e-19 -0.00466843)
(7.69689e-19 7.97768e-19 -0.0045515)
(-3.25344e-19 2.68203e-20 -0.00930171)
(-4.19047e-19 1.76729e-19 -0.00925794)
(-3.83119e-19 2.07879e-19 -0.00921186)
(-2.17008e-19 1.21313e-19 -0.00916371)
(-2.45431e-19 1.73025e-19 -0.00911369)
(-3.1765e-19 2.88455e-19 -0.00906195)
(-3.06794e-19 3.64229e-19 -0.00900864)
(-4.12586e-19 5.21721e-19 -0.00895386)
(-4.55915e-19 6.39952e-19 -0.0088977)
(-2.86975e-19 6.04335e-19 -0.00884024)
(-3.08429e-20 4.80255e-19 -0.00878156)
(1.06265e-19 4.48194e-19 -0.00872169)
(2.02793e-20 6.01825e-19 -0.00866069)
(-9.68234e-20 7.7488e-19 -0.00859861)
(-1.25075e-19 8.72436e-19 -0.00853546)
(-9.90894e-20 9.36988e-19 -0.00847128)
(-5.57628e-20 9.82149e-19 -0.00840608)
(-4.99939e-20 1.02697e-18 -0.0083399)
(-1.00611e-19 1.12738e-18 -0.00827275)
(-2.57001e-19 1.29687e-18 -0.00820464)
(-4.28582e-19 1.45041e-18 -0.00813558)
(-3.44622e-19 1.40447e-18 -0.00806559)
(-6.20008e-20 1.19424e-18 -0.00799466)
(9.93071e-20 1.07386e-18 -0.0079228)
(9.12063e-20 1.08681e-18 -0.00784999)
(-5.87978e-20 1.20249e-18 -0.00777622)
(-3.41056e-19 1.41031e-18 -0.0077015)
(-5.23202e-19 1.55117e-18 -0.0076258)
(-4.67903e-19 1.52653e-18 -0.00754912)
(-3.73261e-19 1.46709e-18 -0.00747144)
(-4.46871e-19 1.51924e-18 -0.00739275)
(-6.02464e-19 1.63184e-18 -0.00731303)
(-6.03302e-19 1.62825e-18 -0.00723227)
(-4.40497e-19 1.49263e-18 -0.00715045)
(-3.38999e-19 1.39395e-18 -0.00706755)
(-3.4305e-19 1.39436e-18 -0.00698354)
(-2.42024e-19 1.32817e-18 -0.00689841)
(-2.5656e-20 1.15738e-18 -0.00681214)
(6.6804e-20 1.0638e-18 -0.0067247)
(1.78382e-20 1.07402e-18 -0.00663607)
(3.44361e-20 1.04325e-18 -0.00654622)
(5.54781e-20 1.01565e-18 -0.00645513)
(-5.62173e-21 1.04773e-18 -0.00636277)
(4.58887e-20 9.91825e-19 -0.00626912)
(2.11352e-19 8.57203e-19 -0.00617414)
(2.74726e-19 8.09857e-19 -0.00607782)
(1.63679e-19 8.99166e-19 -0.00598013)
(1.12388e-20 1.02149e-18 -0.00588104)
(1.72954e-22 1.03279e-18 -0.00578054)
(4.74644e-20 1.00374e-18 -0.00567858)
(7.98217e-20 9.90738e-19 -0.00557517)
(1.39627e-19 9.57863e-19 -0.00547026)
(1.50439e-19 9.56642e-19 -0.00536385)
(1.18832e-19 9.81425e-19 -0.00525592)
(1.36988e-19 9.6498e-19 -0.00514646)
(2.5777e-19 8.64003e-19 -0.00503546)
(3.31134e-19 7.91544e-19 -0.00492292)
(2.54939e-19 8.36521e-19 -0.00480883)
(1.69167e-19 8.92e-19 -0.00469321)
(1.42706e-19 9.04264e-19 -0.00457605)
(2.09938e-19 8.43075e-19 -0.00445739)
(3.41501e-19 7.34999e-19 -0.00433722)
(4.41549e-19 6.57496e-19 -0.00421551)
(4.43447e-19 6.60786e-19 -0.00409215)
(4.24787e-19 6.77639e-19 -0.00396705)
(4.6995e-19 6.36058e-19 -0.00384026)
(5.49623e-19 5.65902e-19 -0.00371188)
(5.87678e-19 5.31396e-19 -0.00358201)
(6.01178e-19 5.11924e-19 -0.00345078)
(6.41448e-19 4.69703e-19 -0.00331836)
(6.47691e-19 4.5327e-19 -0.0031849)
(5.97828e-19 4.76678e-19 -0.0030506)
(5.40948e-19 5.01749e-19 -0.00291565)
(5.2495e-19 4.93005e-19 -0.00278025)
(5.38938e-19 4.61062e-19 -0.00264459)
(5.48965e-19 4.30173e-19 -0.00250887)
(5.28832e-19 4.19365e-19 -0.00237326)
(4.68717e-19 4.36614e-19 -0.00223792)
(4.21369e-19 4.41609e-19 -0.00210302)
(3.92171e-19 4.32551e-19 -0.00196866)
(3.65303e-19 4.20158e-19 -0.00183497)
(3.45383e-19 4.01326e-19 -0.00170203)
(3.30843e-19 3.76455e-19 -0.00156991)
(3.16903e-19 3.48523e-19 -0.00143867)
(3.03887e-19 3.15594e-19 -0.00130835)
(2.77473e-19 2.90178e-19 -0.00117899)
(2.5049e-19 2.63689e-19 -0.0010506)
(2.32959e-19 2.28787e-19 -0.000923215)
(2.12695e-19 1.94158e-19 -0.000796835)
(1.77177e-19 1.70149e-19 -0.00067147)
(1.33387e-19 1.51536e-19 -0.000547124)
(9.76433e-20 1.26594e-19 -0.000423801)
(6.84567e-20 9.5715e-20 -0.000301503)
(4.49938e-20 6.1259e-20 -0.00018023)
(1.21945e-20 1.77646e-20 -5.99828e-05)
(-9.52127e-20 4.72882e-19 -0.00931815)
(6.58788e-20 4.69703e-19 -0.00927525)
(-3.90265e-21 5.94081e-19 -0.00922992)
(-9.05969e-20 6.66557e-19 -0.00918244)
(1.55123e-20 5.8581e-19 -0.009133)
(2.50266e-19 4.3834e-19 -0.00908178)
(3.65157e-19 3.74582e-19 -0.00902893)
(3.17539e-19 4.2698e-19 -0.00897456)
(2.78169e-19 4.7354e-19 -0.00891877)
(2.90541e-19 4.63483e-19 -0.00886165)
(3.1087e-19 4.17274e-19 -0.00880327)
(3.9492e-19 3.3097e-19 -0.00874369)
(4.54819e-19 2.79856e-19 -0.00868295)
(3.88675e-19 3.15473e-19 -0.0086211)
(2.88619e-19 3.42974e-19 -0.00855818)
(2.39707e-19 3.34139e-19 -0.0084942)
(2.64968e-19 2.90966e-19 -0.00842919)
(4.01839e-19 1.68302e-19 -0.00836318)
(4.8095e-19 6.82282e-20 -0.00829619)
(3.24847e-19 1.47734e-19 -0.00822823)
(9.55094e-20 3.0674e-19 -0.00815932)
(-3.33654e-20 4.06771e-19 -0.00808945)
(-5.34098e-20 4.08877e-19 -0.00801865)
(-1.18386e-20 3.50119e-19 -0.0079469)
(1.9397e-20 3.04235e-19 -0.0078742)
(2.81296e-20 2.80866e-19 -0.00780054)
(8.96806e-21 2.97732e-19 -0.00772591)
(-8.68011e-20 4.02142e-19 -0.0076503)
(-2.30539e-19 5.58232e-19 -0.00757371)
(-2.73166e-19 6.41473e-19 -0.00749611)
(-1.99764e-19 6.42006e-19 -0.00741749)
(-1.26288e-19 6.54838e-19 -0.00733784)
(-1.31769e-19 7.39477e-19 -0.00725714)
(-2.09194e-19 8.79676e-19 -0.00717538)
(-2.46777e-19 9.90124e-19 -0.00709252)
(-2.7158e-19 1.08809e-18 -0.00700857)
(-4.09058e-19 1.24938e-18 -0.00692348)
(-5.70062e-19 1.40615e-18 -0.00683724)
(-5.97186e-19 1.4505e-18 -0.00674984)
(-4.85943e-19 1.39313e-18 -0.00666123)
(-3.51262e-19 1.31885e-18 -0.00657141)
(-2.87437e-19 1.29182e-18 -0.00648034)
(-2.62315e-19 1.29827e-18 -0.00638799)
(-1.78037e-19 1.26114e-18 -0.00629434)
(-7.228e-20 1.19429e-18 -0.00619937)
(-5.71812e-20 1.17956e-18 -0.00610304)
(-5.95244e-20 1.18212e-18 -0.00600533)
(-1.21119e-20 1.17107e-18 -0.00590622)
(8.36387e-20 1.14448e-18 -0.00580567)
(1.75101e-19 1.11555e-18 -0.00570367)
(2.43198e-19 1.09721e-18 -0.00560019)
(2.72265e-19 1.10466e-18 -0.00549522)
(2.95195e-19 1.12018e-18 -0.00538872)
(3.63526e-19 1.10396e-18 -0.00528069)
(4.18118e-19 1.09159e-18 -0.00517112)
(4.17653e-19 1.11697e-18 -0.00505998)
(3.99289e-19 1.14632e-18 -0.00494729)
(4.17712e-19 1.14508e-18 -0.00483303)
(4.65014e-19 1.12205e-18 -0.00471721)
(5.43589e-19 1.07648e-18 -0.00459984)
(6.35183e-19 1.02167e-18 -0.00448093)
(7.32972e-19 9.62059e-19 -0.0043605)
(8.19707e-19 9.07151e-19 -0.00423854)
(8.5717e-19 8.88539e-19 -0.00411492)
(7.94902e-19 9.48221e-19 -0.00398953)
(7.06642e-19 1.0269e-18 -0.00386242)
(6.93233e-19 1.0465e-18 -0.00373367)
(7.11916e-19 1.03558e-18 -0.00360339)
(7.19713e-19 1.02663e-18 -0.00347171)
(7.03391e-19 1.02762e-18 -0.00333878)
(6.47881e-19 1.0508e-18 -0.00320478)
(5.90917e-19 1.07401e-18 -0.00306989)
(5.73439e-19 1.06756e-18 -0.00293431)
(5.83147e-19 1.03992e-18 -0.00279823)
(5.99242e-19 1.00197e-18 -0.00266186)
(6.00715e-19 9.69379e-19 -0.00252539)
(5.9531e-19 9.3751e-19 -0.00238901)
(5.79385e-19 9.12753e-19 -0.00225288)
(5.69596e-19 8.80323e-19 -0.00211715)
(5.59538e-19 8.44501e-19 -0.00198196)
(5.35151e-19 8.13853e-19 -0.00184742)
(5.10378e-19 7.77818e-19 -0.00171362)
(4.85857e-19 7.38318e-19 -0.00158064)
(4.52117e-19 7.02143e-19 -0.00144854)
(4.02019e-19 6.73205e-19 -0.00131735)
(3.6748e-19 6.26702e-19 -0.00118713)
(3.51882e-19 5.62978e-19 -0.00105788)
(3.31831e-19 4.98202e-19 -0.000929624)
(3.06784e-19 4.31621e-19 -0.000802381)
(2.69718e-19 3.6856e-19 -0.000676154)
(2.24586e-19 3.05219e-19 -0.000550951)
(1.81535e-19 2.33034e-19 -0.000426772)
(1.29587e-19 1.60392e-19 -0.000303622)
(7.30545e-20 8.52164e-20 -0.000181499)
(3.1586e-20 4.18888e-20 -6.04066e-05)
(1.00671e-19 2.86598e-19 -0.0093337)
(-5.49267e-20 4.29157e-19 -0.0092917)
(-4.39932e-19 7.22494e-19 -0.00924715)
(-6.35077e-19 9.12417e-19 -0.00920033)
(-6.01021e-19 9.43139e-19 -0.00915148)
(-5.19134e-19 9.13734e-19 -0.00910078)
(-4.51938e-19 8.90602e-19 -0.0090484)
(-5.25639e-19 9.59271e-19 -0.00899444)
(-6.84379e-19 1.08171e-18 -0.00893903)
(-8.1446e-19 1.15113e-18 -0.00888225)
(-7.11317e-19 1.04445e-18 -0.00882418)
(-4.53937e-19 8.44828e-19 -0.00876488)
(-4.74814e-19 8.24995e-19 -0.00870441)
(-8.45656e-19 1.0086e-18 -0.0086428)
(-1.11817e-18 1.13521e-18 -0.00858009)
(-1.0334e-18 1.04117e-18 -0.00851631)
(-9.36234e-19 9.33382e-19 -0.0084515)
(-1.09396e-18 9.77679e-19 -0.00838566)
(-1.21928e-18 9.83417e-19 -0.00831883)
(-1.15647e-18 8.58016e-19 -0.00825102)
(-1.11152e-18 7.56479e-19 -0.00818224)
(-1.12575e-18 7.06754e-19 -0.0081125)
(-1.12284e-18 6.54082e-19 -0.00804181)
(-1.04985e-18 5.6256e-19 -0.00797017)
(-9.82502e-19 4.9599e-19 -0.00789757)
(-9.52608e-19 4.5052e-19 -0.007824)
(-8.62365e-19 3.59846e-19 -0.00774946)
(-7.00877e-19 2.3347e-19 -0.00767394)
(-5.37498e-19 1.31184e-19 -0.00759743)
(-4.563e-19 9.42905e-20 -0.00751991)
(-4.48469e-19 9.17348e-20 -0.00744137)
(-4.06707e-19 5.82073e-20 -0.0073618)
(-2.71336e-19 -2.82556e-20 -0.00728117)
(-8.61012e-20 -1.31982e-19 -0.00719947)
(-2.17483e-20 -1.52475e-19 -0.00711668)
(-2.18394e-19 7.19706e-21 -0.00703278)
(-4.53666e-19 2.11091e-19 -0.00694774)
(-5.21641e-19 3.25247e-19 -0.00686155)
(-5.343e-19 4.03713e-19 -0.00677418)
(-5.64189e-19 4.89772e-19 -0.00668561)
(-5.4859e-19 5.32733e-19 -0.0065958)
(-4.79629e-19 5.3862e-19 -0.00650475)
(-4.71478e-19 5.81549e-19 -0.00641241)
(-5.30593e-19 6.67635e-19 -0.00631877)
(-5.95251e-19 7.49516e-19 -0.00622379)
(-5.79853e-19 7.73817e-19 -0.00612745)
(-3.96947e-19 6.82943e-19 -0.00602972)
(-1.22362e-19 5.23823e-19 -0.00593058)
(8.89739e-21 4.57243e-19 -0.00583)
(-6.48229e-20 5.3034e-19 -0.00572795)
(-1.25957e-19 5.97697e-19 -0.00562441)
(-6.10757e-20 5.77416e-19 -0.00551936)
(2.16478e-21 5.56723e-19 -0.00541278)
(-8.07835e-20 6.35892e-19 -0.00530465)
(-1.45404e-19 6.96079e-19 -0.00519495)
(-1.32246e-19 7.01778e-19 -0.00508369)
(-1.70067e-19 7.50374e-19 -0.00497084)
(-2.4092e-19 8.19623e-19 -0.00485641)
(-2.81079e-19 8.66274e-19 -0.0047404)
(-2.70724e-19 8.778e-19 -0.00462282)
(-1.70728e-19 8.19243e-19 -0.00450368)
(-3.9866e-20 7.32477e-19 -0.00438299)
(5.35538e-20 6.6868e-19 -0.00426077)
(1.51019e-19 6.0133e-19 -0.00413688)
(2.2824e-19 5.4758e-19 -0.00401121)
(2.69738e-19 5.24343e-19 -0.00388379)
(2.77091e-19 5.26035e-19 -0.00375469)
(2.20223e-19 5.69116e-19 -0.00362402)
(1.4809e-19 6.2135e-19 -0.00349191)
(1.01191e-19 6.55456e-19 -0.00335851)
(1.04612e-19 6.54027e-19 -0.00322398)
(1.53063e-19 6.23062e-19 -0.00308853)
(2.01573e-19 5.90593e-19 -0.00295234)
(2.19873e-19 5.77131e-19 -0.00281561)
(2.02667e-19 5.85455e-19 -0.00267856)
(1.97322e-19 5.83014e-19 -0.00254137)
(2.29881e-19 5.51633e-19 -0.00240424)
(2.56645e-19 5.20119e-19 -0.00226735)
(2.43009e-19 5.16036e-19 -0.00213083)
(2.0662e-19 5.25861e-19 -0.00199484)
(1.7256e-19 5.32804e-19 -0.00185948)
(1.67093e-19 5.18464e-19 -0.00172486)
(1.77208e-19 4.90741e-19 -0.00159104)
(1.62692e-19 4.75558e-19 -0.0014581)
(1.41434e-19 4.63197e-19 -0.00132608)
(1.47092e-19 4.28546e-19 -0.00119501)
(1.65812e-19 3.79046e-19 -0.00106492)
(1.74911e-19 3.3132e-19 -0.000935832)
(1.69326e-19 2.87695e-19 -0.000807753)
(1.46604e-19 2.49612e-19 -0.000680693)
(1.15903e-19 2.09742e-19 -0.000554658)
(8.64103e-20 1.61219e-19 -0.000429651)
(6.08329e-20 1.01659e-19 -0.000305675)
(2.75438e-20 4.19056e-20 -0.00018273)
(2.26136e-20 3.2115e-20 -6.08174e-05)
(-6.22429e-19 1.98895e-19 -0.00934836)
(-5.88572e-19 9.53946e-20 -0.00930727)
(-5.51662e-19 6.73145e-21 -0.00926351)
(-5.73846e-19 -7.71235e-21 -0.00921738)
(-6.42272e-19 3.94854e-21 -0.00916913)
(-5.24799e-19 -6.12556e-20 -0.00911895)
(-3.74918e-19 -1.48632e-19 -0.00906703)
(-3.82749e-19 -1.43253e-19 -0.00901349)
(-5.75662e-19 1.09371e-20 -0.00895846)
(-8.427e-19 2.21029e-19 -0.00890202)
(-8.5191e-19 2.62773e-19 -0.00884425)
(-6.75245e-19 1.66482e-19 -0.00878523)
(-7.28223e-19 1.96637e-19 -0.008725)
(-8.6064e-19 2.85839e-19 -0.00866363)
(-7.82615e-19 2.75634e-19 -0.00860113)
(-7.3639e-19 2.84912e-19 -0.00853756)
(-8.06833e-19 3.54982e-19 -0.00847293)
(-8.43245e-19 4.02652e-19 -0.00840727)
(-8.71196e-19 4.60638e-19 -0.0083406)
(-9.48523e-19 5.52845e-19 -0.00827293)
(-9.84683e-19 6.16764e-19 -0.00820429)
(-9.48186e-19 6.35724e-19 -0.00813467)
(-8.31271e-19 5.9607e-19 -0.00806409)
(-5.52092e-19 4.40095e-19 -0.00799256)
(-3.72382e-19 3.39843e-19 -0.00792006)
(-4.14166e-19 3.74061e-19 -0.00784659)
(-3.77261e-19 3.5918e-19 -0.00777214)
(-2.02543e-19 2.60982e-19 -0.00769671)
(-1.03122e-19 2.00795e-19 -0.00762028)
(-2.24277e-19 2.60131e-19 -0.00754284)
(-3.63146e-19 3.26732e-19 -0.00746437)
(-3.09725e-19 2.65505e-19 -0.00738486)
(-1.46617e-19 1.31987e-19 -0.00730429)
(-1.28382e-19 8.16751e-20 -0.00722264)
(-1.73399e-19 5.89178e-20 -0.00713991)
(-6.33132e-20 -6.15278e-20 -0.00705605)
(1.0593e-19 -2.04487e-19 -0.00697107)
(1.05242e-19 -2.30738e-19 -0.00688492)
(5.81066e-21 -1.86668e-19 -0.00679759)
(-7.21808e-20 -1.5754e-19 -0.00670905)
(-1.05793e-19 -1.61916e-19 -0.00661927)
(-1.29093e-19 -1.63107e-19 -0.00652824)
(-2.02771e-19 -1.20194e-19 -0.00643591)
(-2.39467e-19 -9.41232e-20 -0.00634228)
(-2.53703e-19 -7.94619e-20 -0.0062473)
(-2.95138e-19 -3.98195e-20 -0.00615095)
(-3.74333e-19 2.52121e-20 -0.00605321)
(-4.59835e-19 8.30642e-20 -0.00595404)
(-4.50478e-19 7.21439e-20 -0.00585341)
(-3.5253e-19 1.39854e-20 -0.00575132)
(-2.8752e-19 -1.65396e-20 -0.00564772)
(-3.05607e-19 2.43747e-21 -0.00554259)
(-3.18819e-19 1.47803e-20 -0.00543593)
(-3.42303e-19 3.66221e-20 -0.0053277)
(-3.91952e-19 7.83194e-20 -0.00521789)
(-3.32693e-19 4.45176e-20 -0.00510649)
(-2.9311e-19 2.3383e-20 -0.0049935)
(-3.15752e-19 4.83631e-20 -0.00487891)
(-2.93146e-19 4.4779e-20 -0.00476271)
(-3.23901e-19 7.36045e-20 -0.00464493)
(-4.10121e-19 1.36969e-19 -0.00452557)
(-4.00852e-19 1.36987e-19 -0.00440464)
(-3.2187e-19 9.15562e-20 -0.00428215)
(-2.68503e-19 5.95119e-20 -0.00415799)
(-2.42214e-19 4.01175e-20 -0.00403206)
(-2.33933e-19 3.20265e-20 -0.00390434)
(-2.44571e-19 3.79451e-20 -0.00377491)
(-2.33597e-19 3.33267e-20 -0.00364387)
(-1.91918e-19 1.41708e-20 -0.00351135)
(-1.65881e-19 7.64745e-21 -0.00337749)
(-1.51516e-19 1.10996e-20 -0.00324247)
(-1.41444e-19 1.79697e-20 -0.00310648)
(-1.36651e-19 2.67486e-20 -0.00296971)
(-1.25036e-19 3.12593e-20 -0.00283236)
(-1.14702e-19 3.7678e-20 -0.00269465)
(-1.12134e-19 5.03974e-20 -0.00255678)
(-1.15452e-19 6.6389e-20 -0.00241893)
(-1.0727e-19 7.2676e-20 -0.00228129)
(-6.63597e-20 5.64546e-20 -0.00214402)
(-1.68391e-20 3.33391e-20 -0.00200725)
(3.03387e-20 1.1654e-20 -0.00187111)