/*--------------------------------*- C++ -*----------------------------------*\
  =========                 |
  \\      /  F ield         | OpenFOAM: The Open Source CFD Toolbox
   \\    /   O peration     | Website:  https://openfoam.org
    \\  /    A nd           | Version:  7
     \\/     M anipulation  |
\*---------------------------------------------------------------------------*/
FoamFile
{
    version     2.0;
    format      ascii;
    class       volScalarField;
    location    "20000";
    object      k;
}
// * * * * * * * * * * * * * * * * * * * * * * * * * * * * * * * * * * * * * //

dimensions      [0 2 -2 0 0 0 0];

internalField   nonuniform List<scalar> 
1762
(
5.48751e-07
5.50757e-07
5.53216e-07
5.56153e-07
5.59592e-07
5.63557e-07
5.68071e-07
5.73156e-07
5.7883e-07
5.85096e-07
5.91996e-07
5.57635e-07
5.59911e-07
5.62683e-07
5.65967e-07
5.69782e-07
5.74141e-07
5.79056e-07
5.84527e-07
5.90538e-07
5.97033e-07
6.03965e-07
5.67754e-07
5.70278e-07
5.73335e-07
5.76936e-07
5.81089e-07
5.85798e-07
5.91062e-07
5.96869e-07
6.0319e-07
6.09991e-07
6.17338e-07
5.78991e-07
5.81736e-07
5.85045e-07
5.88923e-07
5.93372e-07
5.98389e-07
6.03964e-07
6.10083e-07
6.16726e-07
6.23883e-07
6.3164e-07
5.91246e-07
5.94184e-07
5.97715e-07
6.01839e-07
6.06551e-07
6.11843e-07
6.17704e-07
6.24121e-07
6.3108e-07
6.38575e-07
6.46682e-07
6.04416e-07
6.07526e-07
6.11254e-07
6.15594e-07
6.20541e-07
6.26082e-07
6.32205e-07
6.38896e-07
6.46143e-07
6.53936e-07
6.62333e-07
6.18405e-07
6.21664e-07
6.25565e-07
6.30099e-07
6.35254e-07
6.41017e-07
6.47375e-07
6.5431e-07
6.61808e-07
6.69852e-07
6.78488e-07
6.33113e-07
6.36505e-07
6.40557e-07
6.4526e-07
6.50598e-07
6.56557e-07
6.63118e-07
6.70264e-07
6.77974e-07
6.86225e-07
6.95054e-07
6.4845e-07
6.51955e-07
6.56139e-07
6.60987e-07
6.66484e-07
6.7261e-07
6.79346e-07
6.86668e-07
6.94553e-07
7.02972e-07
7.11951e-07
6.64324e-07
6.67928e-07
6.72224e-07
6.77196e-07
6.82827e-07
6.89093e-07
6.95973e-07
7.0344e-07
7.11464e-07
7.20015e-07
7.29109e-07
6.80654e-07
6.8434e-07
6.8873e-07
6.93806e-07
6.99547e-07
7.05929e-07
7.12925e-07
7.20505e-07
7.28638e-07
7.37286e-07
7.46462e-07
6.97362e-07
7.01115e-07
7.05582e-07
7.10742e-07
7.16572e-07
7.23044e-07
7.30131e-07
7.37798e-07
7.46009e-07
7.54726e-07
7.63953e-07
7.14375e-07
7.18182e-07
7.2271e-07
7.27936e-07
7.33834e-07
7.40375e-07
7.47528e-07
7.55255e-07
7.63519e-07
7.72278e-07
7.8153e-07
7.31627e-07
7.35476e-07
7.4005e-07
7.45325e-07
7.51273e-07
7.57862e-07
7.65059e-07
7.72824e-07
7.81117e-07
7.89893e-07
7.99146e-07
7.52937e-07
7.57544e-07
7.62852e-07
7.68833e-07
7.75452e-07
7.82673e-07
7.90455e-07
7.98754e-07
8.07525e-07
8.16758e-07
7.75139e-07
7.80466e-07
7.86464e-07
7.93096e-07
8.00322e-07
8.08102e-07
8.16389e-07
8.25136e-07
8.34327e-07
7.92786e-07
7.9812e-07
8.0412e-07
8.10749e-07
8.17965e-07
8.25726e-07
8.33983e-07
8.42687e-07
8.51821e-07
8.10441e-07
8.1577e-07
8.2176e-07
8.28372e-07
8.35564e-07
8.43289e-07
8.51501e-07
8.60146e-07
8.69207e-07
8.28066e-07
8.33379e-07
8.39347e-07
8.45929e-07
8.53083e-07
8.6076e-07
8.68911e-07
8.77484e-07
8.86458e-07
8.45624e-07
8.50911e-07
8.56846e-07
8.63388e-07
8.70491e-07
8.78108e-07
8.86186e-07
8.94675e-07
9.03549e-07
8.63082e-07
8.68335e-07
8.74229e-07
8.80719e-07
8.87762e-07
8.95306e-07
9.03301e-07
9.11693e-07
9.20457e-07
8.85624e-07
8.91466e-07
8.97897e-07
9.04869e-07
9.12332e-07
9.20233e-07
9.28518e-07
9.37161e-07
9.0275e-07
9.08535e-07
9.14898e-07
9.21791e-07
9.29163e-07
9.36961e-07
9.45131e-07
9.53645e-07
8.11607e-07
8.29224e-07
8.46769e-07
8.64212e-07
8.81523e-07
8.98677e-07
9.15651e-07
9.32422e-07
9.48974e-07
9.65288e-07
9.8135e-07
6.42096e-07
6.57785e-07
6.73958e-07
6.90535e-07
7.07443e-07
7.24614e-07
7.41985e-07
7.595e-07
7.77106e-07
7.94757e-07
8.12409e-07
8.30023e-07
8.47565e-07
8.65003e-07
8.82309e-07
8.99455e-07
9.1642e-07
9.33183e-07
9.49725e-07
9.66029e-07
9.8208e-07
5.75174e-07
5.87143e-07
6.00062e-07
6.13829e-07
6.28344e-07
6.43513e-07
6.59244e-07
6.75453e-07
6.9206e-07
7.08992e-07
7.26182e-07
7.43567e-07
7.61092e-07
7.78704e-07
7.96356e-07
8.14007e-07
8.31617e-07
8.49152e-07
8.6658e-07
8.83873e-07
9.01005e-07
9.17954e-07
9.34699e-07
9.51221e-07
9.67504e-07
9.83533e-07
5.76806e-07
5.88899e-07
6.01928e-07
6.15791e-07
6.30391e-07
6.45633e-07
6.61427e-07
6.77688e-07
6.94339e-07
7.11307e-07
7.28524e-07
7.4593e-07
7.63468e-07
7.81088e-07
7.98743e-07
8.16391e-07
8.33993e-07
8.51517e-07
8.68929e-07
8.86204e-07
9.03314e-07
9.20239e-07
9.36956e-07
9.5345e-07
9.69701e-07
9.85697e-07
5.48751e-07
5.57636e-07
5.67754e-07
5.78992e-07
5.91246e-07
6.04417e-07
6.18405e-07
6.33114e-07
6.4845e-07
6.64324e-07
6.80654e-07
6.97362e-07
7.14375e-07
7.31628e-07
7.49059e-07
7.66615e-07
7.84244e-07
8.01901e-07
8.19544e-07
8.37136e-07
8.54643e-07
8.72035e-07
8.89283e-07
9.06365e-07
9.23256e-07
9.39937e-07
9.56391e-07
9.72601e-07
9.88552e-07
5.50757e-07
5.59912e-07
5.70278e-07
5.81736e-07
5.94184e-07
6.07526e-07
6.21665e-07
6.36505e-07
6.51956e-07
6.67928e-07
6.8434e-07
7.01115e-07
7.18183e-07
7.35477e-07
7.52938e-07
7.70513e-07
7.88152e-07
8.05809e-07
8.23445e-07
8.41022e-07
8.58508e-07
8.75873e-07
8.93089e-07
9.10132e-07
9.26982e-07
9.43617e-07
9.60021e-07
9.76178e-07
9.92074e-07
5.53217e-07
5.62683e-07
5.73336e-07
5.85045e-07
5.97716e-07
6.11254e-07
6.25566e-07
6.40558e-07
6.5614e-07
6.72224e-07
6.8873e-07
7.05582e-07
7.22711e-07
7.40051e-07
7.57545e-07
7.7514e-07
7.92787e-07
8.10443e-07
8.28067e-07
8.45625e-07
8.63084e-07
8.80414e-07
8.9759e-07
9.14587e-07
9.31385e-07
9.47965e-07
9.64309e-07
9.80403e-07
9.96232e-07
5.56154e-07
5.65967e-07
5.76936e-07
5.88924e-07
6.01839e-07
6.15595e-07
6.30099e-07
6.4526e-07
6.60988e-07
6.77197e-07
6.93807e-07
7.10743e-07
7.27937e-07
7.45326e-07
7.62854e-07
7.80468e-07
7.98121e-07
8.15772e-07
8.33381e-07
8.50913e-07
8.68338e-07
8.85626e-07
9.02753e-07
9.19695e-07
9.36432e-07
9.52946e-07
9.6922e-07
9.85239e-07
1.00099e-06
5.59592e-07
5.69782e-07
5.81089e-07
5.93373e-07
6.06551e-07
6.20541e-07
6.35254e-07
6.50598e-07
6.66484e-07
6.82827e-07
6.99548e-07
7.16573e-07
7.33835e-07
7.51274e-07
7.68834e-07
7.86465e-07
8.04121e-07
8.21761e-07
8.39348e-07
8.56848e-07
8.74231e-07
8.91468e-07
9.08537e-07
9.25415e-07
9.42081e-07
9.58518e-07
9.74711e-07
9.90644e-07
1.00631e-06
5.63557e-07
5.74141e-07
5.85798e-07
5.98389e-07
6.11844e-07
6.26083e-07
6.41018e-07
6.56557e-07
6.72611e-07
6.89094e-07
7.0593e-07
7.23046e-07
7.40377e-07
7.57864e-07
7.75453e-07
7.93097e-07
8.1075e-07
8.28373e-07
8.45931e-07
8.6339e-07
8.80721e-07
8.97899e-07
9.149e-07
9.31702e-07
9.48286e-07
9.64636e-07
9.80736e-07
9.96572e-07
1.01213e-06
5.68071e-07
5.79056e-07
5.91063e-07
6.03965e-07
6.17705e-07
6.32206e-07
6.47375e-07
6.63119e-07
6.79347e-07
6.95974e-07
7.12926e-07
7.30132e-07
7.47529e-07
7.6506e-07
7.82674e-07
8.00324e-07
8.17967e-07
8.35565e-07
8.53084e-07
8.70493e-07
8.87763e-07
9.04871e-07
9.21792e-07
9.38508e-07
9.54999e-07
9.71249e-07
9.87244e-07
1.00297e-06
1.01842e-06
5.73157e-07
5.84528e-07
5.96869e-07
6.10084e-07
6.24121e-07
6.38897e-07
6.54311e-07
6.70265e-07
6.86669e-07
7.03441e-07
7.20507e-07
7.37799e-07
7.55257e-07
7.72826e-07
7.90456e-07
8.08104e-07
8.25727e-07
8.43291e-07
8.60761e-07
8.78109e-07
8.95308e-07
9.12333e-07
9.29164e-07
9.45781e-07
9.62167e-07
9.78306e-07
9.94184e-07
1.00979e-06
1.02511e-06
5.78831e-07
5.90539e-07
6.03191e-07
6.16727e-07
6.3108e-07
6.46144e-07
6.61809e-07
6.77975e-07
6.94554e-07
7.11465e-07
7.28639e-07
7.4601e-07
7.6352e-07
7.81118e-07
7.98756e-07
8.1639e-07
8.33984e-07
8.51501e-07
8.68912e-07
8.86187e-07
9.03302e-07
9.20234e-07
9.36962e-07
9.53468e-07
9.69736e-07
9.85751e-07
1.0015e-06
1.01697e-06
1.03215e-06
5.85097e-07
5.97033e-07
6.09991e-07
6.23883e-07
6.38576e-07
6.53937e-07
6.69853e-07
6.86226e-07
7.02973e-07
7.20016e-07
7.37287e-07
7.54727e-07
7.72279e-07
7.89893e-07
8.07526e-07
8.25136e-07
8.42687e-07
8.60147e-07
8.77485e-07
8.94676e-07
9.11694e-07
9.28519e-07
9.45132e-07
9.61515e-07
9.77653e-07
9.93531e-07
1.00914e-06
1.02446e-06
1.0395e-06
5.91997e-07
6.03965e-07
6.17338e-07
6.3164e-07
6.46683e-07
6.62334e-07
6.78488e-07
6.95054e-07
7.11952e-07
7.2911e-07
7.46463e-07
7.63954e-07
7.81531e-07
7.99147e-07
8.16759e-07
8.34328e-07
8.51822e-07
8.69208e-07
8.86459e-07
9.0355e-07
9.20458e-07
9.37163e-07
9.53646e-07
9.69892e-07
9.85886e-07
1.00162e-06
1.01707e-06
1.03223e-06
1.0471e-06
5.91997e-07
6.03965e-07
6.17338e-07
6.3164e-07
6.46683e-07
6.62334e-07
6.78488e-07
6.95054e-07
7.11952e-07
7.2911e-07
7.46463e-07
7.63954e-07
7.81531e-07
7.99147e-07
8.16759e-07
8.34329e-07
8.51822e-07
8.69208e-07
8.86459e-07
9.0355e-07
9.20458e-07
9.37162e-07
9.53646e-07
9.69892e-07
9.85886e-07
1.00162e-06
1.01707e-06
1.03223e-06
1.0471e-06
5.85097e-07
5.97033e-07
6.09991e-07
6.23883e-07
6.38576e-07
6.53937e-07
6.69853e-07
6.86226e-07
7.02973e-07
7.20015e-07
7.37287e-07
7.54727e-07
7.72279e-07
7.89893e-07
8.07526e-07
8.25136e-07
8.42688e-07
8.60147e-07
8.77485e-07
8.94676e-07
9.11694e-07
9.28519e-07
9.45132e-07
9.61515e-07
9.77653e-07
9.93532e-07
1.00914e-06
1.02446e-06
1.0395e-06
5.78831e-07
5.90539e-07
6.03191e-07
6.16727e-07
6.3108e-07
6.46144e-07
6.61809e-07
6.77975e-07
6.94554e-07
7.11465e-07
7.28639e-07
7.4601e-07
7.6352e-07
7.81118e-07
7.98755e-07
8.1639e-07
8.33984e-07
8.51502e-07
8.68912e-07
8.86187e-07
9.03302e-07
9.20234e-07
9.36962e-07
9.53468e-07
9.69736e-07
9.85752e-07
1.0015e-06
1.01697e-06
1.03216e-06
5.73157e-07
5.84528e-07
5.96869e-07
6.10083e-07
6.24121e-07
6.38897e-07
6.54311e-07
6.70265e-07
6.86669e-07
7.03441e-07
7.20506e-07
7.37798e-07
7.55256e-07
7.72825e-07
7.90456e-07
8.08103e-07
8.25727e-07
8.4329e-07
8.60761e-07
8.78109e-07
8.95308e-07
9.12333e-07
9.29164e-07
9.45781e-07
9.62167e-07
9.78306e-07
9.94185e-07
1.00979e-06
1.02511e-06
5.68071e-07
5.79056e-07
5.91063e-07
6.03965e-07
6.17705e-07
6.32206e-07
6.47375e-07
6.63119e-07
6.79346e-07
6.95974e-07
7.12926e-07
7.30131e-07
7.47529e-07
7.6506e-07
7.82674e-07
8.00323e-07
8.17966e-07
8.35565e-07
8.53084e-07
8.70493e-07
8.87763e-07
9.04871e-07
9.21792e-07
9.38508e-07
9.54999e-07
9.7125e-07
9.87245e-07
1.00297e-06
1.01842e-06
5.63557e-07
5.74141e-07
5.85799e-07
5.98389e-07
6.11844e-07
6.26083e-07
6.41018e-07
6.56557e-07
6.72611e-07
6.89094e-07
7.05929e-07
7.23045e-07
7.40376e-07
7.57863e-07
7.75453e-07
7.93096e-07
8.1075e-07
8.28373e-07
8.4593e-07
8.63389e-07
8.80721e-07
8.97899e-07
9.14899e-07
9.31701e-07
9.48286e-07
9.64636e-07
9.80736e-07
9.96573e-07
1.01213e-06
5.59592e-07
5.69782e-07
5.81089e-07
5.93373e-07
6.06551e-07
6.20541e-07
6.35254e-07
6.50598e-07
6.66484e-07
6.82827e-07
6.99547e-07
7.16572e-07
7.33834e-07
7.51273e-07
7.68833e-07
7.86464e-07
8.0412e-07
8.21761e-07
8.39347e-07
8.56847e-07
8.7423e-07
8.91468e-07
9.08537e-07
9.25414e-07
9.42081e-07
9.58518e-07
9.74711e-07
9.90645e-07
1.00631e-06
5.56154e-07
5.65967e-07
5.76936e-07
5.88924e-07
6.01839e-07
6.15595e-07
6.30099e-07
6.4526e-07
6.60988e-07
6.77197e-07
6.93806e-07
7.10742e-07
7.27936e-07
7.45325e-07
7.62853e-07
7.80467e-07
7.9812e-07
8.15771e-07
8.33379e-07
8.50912e-07
8.68336e-07
8.85625e-07
9.02752e-07
9.19694e-07
9.36432e-07
9.52946e-07
9.6922e-07
9.85239e-07
1.00099e-06
5.53217e-07
5.62683e-07
5.73336e-07
5.85045e-07
5.97716e-07
6.11254e-07
6.25566e-07
6.40558e-07
6.5614e-07
6.72224e-07
6.8873e-07
7.05582e-07
7.2271e-07
7.4005e-07
7.57544e-07
7.75139e-07
7.92786e-07
8.10441e-07
8.28066e-07
8.45624e-07
8.63083e-07
8.80413e-07
8.97589e-07
9.14586e-07
9.31385e-07
9.47965e-07
9.64309e-07
9.80403e-07
9.96232e-07
5.50757e-07
5.59912e-07
5.70279e-07
5.81736e-07
5.94184e-07
6.07526e-07
6.21665e-07
6.36505e-07
6.51956e-07
6.67928e-07
6.8434e-07
7.01115e-07
7.18182e-07
7.35476e-07
7.52938e-07
7.70512e-07
7.8815e-07
8.05808e-07
8.23443e-07
8.41021e-07
8.58507e-07
8.75871e-07
8.93087e-07
9.10131e-07
9.26981e-07
9.43616e-07
9.6002e-07
9.76178e-07
9.92073e-07
5.48751e-07
5.57636e-07
5.67754e-07
5.78992e-07
5.91246e-07
6.04417e-07
6.18405e-07
6.33114e-07
6.4845e-07
6.64324e-07
6.80654e-07
6.97362e-07
7.14375e-07
7.31627e-07
7.49059e-07
7.66614e-07
7.84243e-07
8.01899e-07
8.19542e-07
8.37134e-07
8.54642e-07
8.72034e-07
8.89282e-07
9.06364e-07
9.23255e-07
9.39936e-07
9.5639e-07
9.72599e-07
9.88551e-07
5.47176e-07
5.55839e-07
5.65752e-07
5.76806e-07
5.88899e-07
6.01928e-07
6.15791e-07
6.30391e-07
6.45633e-07
6.61426e-07
6.77688e-07
6.94339e-07
7.11306e-07
7.28524e-07
7.45929e-07
7.63468e-07
7.81087e-07
7.98742e-07
8.16389e-07
8.33992e-07
8.51516e-07
8.68928e-07
8.86203e-07
9.03313e-07
9.20238e-07
9.36955e-07
9.53448e-07
9.697e-07
9.85696e-07
5.46014e-07
5.54505e-07
5.6426e-07
5.75174e-07
5.87143e-07
6.00062e-07
6.13829e-07
6.28344e-07
6.43513e-07
6.59244e-07
6.75453e-07
6.9206e-07
7.08992e-07
7.26182e-07
7.43567e-07
7.61091e-07
7.78703e-07
7.96356e-07
8.14006e-07
8.31616e-07
8.49151e-07
8.66579e-07
8.83872e-07
9.01004e-07
9.17953e-07
9.34698e-07
9.5122e-07
9.67504e-07
9.83533e-07
5.45248e-07
5.53623e-07
5.63271e-07
5.74089e-07
5.85973e-07
5.98817e-07
6.12519e-07
6.26977e-07
6.42096e-07
6.57785e-07
6.73958e-07
6.90535e-07
7.07443e-07
7.24614e-07
7.41985e-07
7.595e-07
7.77106e-07
7.94756e-07
8.12408e-07
8.30023e-07
8.47565e-07
8.65003e-07
8.82308e-07
8.99455e-07
9.1642e-07
9.33183e-07
9.49725e-07
9.66029e-07
9.8208e-07
5.44868e-07
5.53185e-07
5.62778e-07
5.73548e-07
5.85389e-07
5.98195e-07
6.11864e-07
6.26293e-07
6.41387e-07
6.57054e-07
6.73209e-07
6.89771e-07
7.06667e-07
7.23828e-07
7.41192e-07
7.58701e-07
7.76305e-07
7.93954e-07
8.11607e-07
8.29223e-07
8.46769e-07
8.64212e-07
8.81524e-07
8.98678e-07
9.15651e-07
9.32423e-07
9.48974e-07
5.44868e-07
5.53185e-07
5.62778e-07
5.73548e-07
5.85389e-07
5.98195e-07
6.11864e-07
6.26293e-07
6.41387e-07
6.57054e-07
6.73209e-07
6.89771e-07
7.06667e-07
7.23828e-07
7.41192e-07
7.58702e-07
7.76305e-07
7.93954e-07
8.11607e-07
8.29224e-07
8.4677e-07
8.64212e-07
8.81524e-07
8.98678e-07
9.15651e-07
9.32423e-07
9.48974e-07
5.45248e-07
5.53623e-07
5.63271e-07
5.74089e-07
5.85973e-07
5.98817e-07
6.12519e-07
6.26977e-07
6.42096e-07
6.57785e-07
6.73958e-07
6.90535e-07
7.07443e-07
7.24614e-07
7.41985e-07
7.595e-07
7.77106e-07
7.94757e-07
8.12409e-07
8.30024e-07
8.47566e-07
8.65004e-07
8.82309e-07
8.99456e-07
9.16421e-07
9.33184e-07
9.49725e-07
5.46014e-07
5.54505e-07
5.6426e-07
5.75174e-07
5.87142e-07
6.00061e-07
6.13828e-07
6.28344e-07
6.43513e-07
6.59244e-07
6.75453e-07
6.9206e-07
7.08992e-07
7.26182e-07
7.43567e-07
7.61092e-07
7.78704e-07
7.96357e-07
8.14007e-07
8.31617e-07
8.49152e-07
8.6658e-07
8.83873e-07
9.01005e-07
9.17954e-07
9.34699e-07
9.51221e-07
5.47176e-07
5.55839e-07
5.65751e-07
5.76806e-07
5.88899e-07
6.01928e-07
6.15791e-07
6.30391e-07
6.45633e-07
6.61427e-07
6.77688e-07
6.94339e-07
7.11307e-07
7.28524e-07
7.4593e-07
7.63468e-07
7.81088e-07
7.98743e-07
8.16391e-07
8.33993e-07
8.51517e-07
8.68929e-07
8.86204e-07
9.03314e-07
9.20239e-07
9.36957e-07
9.5345e-07
5.48751e-07
5.57636e-07
5.67754e-07
5.78992e-07
5.91246e-07
6.04416e-07
6.18405e-07
6.33113e-07
6.4845e-07
6.64324e-07
6.80654e-07
6.97362e-07
7.14375e-07
7.31628e-07
7.49059e-07
7.66615e-07
7.84244e-07
8.01901e-07
8.19544e-07
8.37136e-07
8.54643e-07
8.72035e-07
8.89284e-07
9.06365e-07
5.50757e-07
5.59911e-07
5.70278e-07
5.81736e-07
5.94184e-07
6.07526e-07
6.21665e-07
6.36505e-07
6.51955e-07
6.67928e-07
6.8434e-07
7.01115e-07
7.18183e-07
7.35477e-07
7.52938e-07
7.70513e-07
7.88152e-07
8.05809e-07
8.23445e-07
8.41022e-07
8.58508e-07
8.75873e-07
8.93089e-07
5.53216e-07
5.62683e-07
5.73335e-07
5.85045e-07
5.97716e-07
6.11254e-07
6.25565e-07
6.40558e-07
6.56139e-07
6.72224e-07
6.8873e-07
7.05582e-07
7.2271e-07
7.40051e-07
7.57545e-07
7.7514e-07
7.92787e-07
8.10443e-07
8.28067e-07
8.45625e-07
8.63084e-07
8.80414e-07
8.97589e-07
5.56153e-07
5.65967e-07
5.76936e-07
5.88923e-07
6.01839e-07
6.15595e-07
6.30099e-07
6.4526e-07
6.60988e-07
6.77197e-07
6.93806e-07
7.10742e-07
7.27936e-07
7.45326e-07
7.62853e-07
7.80467e-07
7.98121e-07
8.15771e-07
8.3338e-07
8.50913e-07
8.68337e-07
8.85626e-07
9.02752e-07
5.59592e-07
5.69782e-07
5.81089e-07
5.93372e-07
6.06551e-07
6.20541e-07
6.35254e-07
6.50598e-07
6.66484e-07
6.82827e-07
6.99547e-07
7.16572e-07
7.33835e-07
7.51274e-07
7.68834e-07
7.86465e-07
8.04121e-07
8.21761e-07
8.39348e-07
8.56848e-07
8.7423e-07
8.91468e-07
9.08537e-07
5.63557e-07
5.74141e-07
5.85798e-07
5.98389e-07
6.11843e-07
6.26082e-07
6.41018e-07
6.56557e-07
6.72611e-07
6.89094e-07
7.05929e-07
7.23045e-07
7.40376e-07
7.57863e-07
7.75453e-07
7.93096e-07
8.1075e-07
8.28373e-07
8.4593e-07
8.63389e-07
8.80721e-07
8.97899e-07
9.14899e-07
5.68071e-07
5.79056e-07
5.91062e-07
6.03964e-07
6.17705e-07
6.32205e-07
6.47375e-07
6.63119e-07
6.79346e-07
6.95974e-07
7.12925e-07
7.30131e-07
7.47529e-07
7.6506e-07
7.82674e-07
8.00323e-07
8.17966e-07
8.35565e-07
8.53084e-07
8.70492e-07
8.87763e-07
9.0487e-07
9.21792e-07
5.73156e-07
5.84527e-07
5.96869e-07
6.10083e-07
6.24121e-07
6.38897e-07
6.54311e-07
6.70265e-07
6.86669e-07
7.03441e-07
7.20506e-07
7.37798e-07
7.55256e-07
7.72825e-07
7.90456e-07
8.08103e-07
8.25727e-07
8.4329e-07
8.60761e-07
8.78108e-07
8.95307e-07
9.12333e-07
9.29163e-07
5.7883e-07
5.90538e-07
6.0319e-07
6.16727e-07
6.3108e-07
6.46144e-07
6.61808e-07
6.77974e-07
6.94553e-07
7.11465e-07
7.28638e-07
7.46009e-07
7.6352e-07
7.81117e-07
7.98755e-07
8.1639e-07
8.33983e-07
8.51501e-07
8.68911e-07
8.86187e-07
9.03301e-07
9.20233e-07
9.36961e-07
5.85096e-07
5.97033e-07
6.09991e-07
6.23883e-07
6.38575e-07
6.53936e-07
6.69852e-07
6.86226e-07
7.02972e-07
7.20015e-07
7.37287e-07
7.54726e-07
7.72278e-07
7.89892e-07
8.07525e-07
8.25135e-07
8.42687e-07
8.60146e-07
8.77484e-07
8.94675e-07
9.11693e-07
9.28519e-07
9.45131e-07
5.91996e-07
6.03965e-07
6.17338e-07
6.3164e-07
6.46682e-07
6.62333e-07
6.78488e-07
6.95054e-07
7.11951e-07
7.29109e-07
7.46462e-07
7.63953e-07
7.8153e-07
7.99146e-07
8.16758e-07
8.34327e-07
8.51821e-07
8.69207e-07
8.86458e-07
9.03549e-07
9.20457e-07
9.37162e-07
9.53645e-07
5.42248e-07
5.44004e-07
5.46179e-07
5.48804e-07
5.51909e-07
5.55526e-07
5.59685e-07
5.64414e-07
5.69747e-07
5.7574e-07
5.82646e-07
5.37716e-07
5.39302e-07
5.41284e-07
5.43699e-07
5.46584e-07
5.49974e-07
5.53902e-07
5.584e-07
5.63497e-07
5.69226e-07
5.7574e-07
5.33979e-07
5.35389e-07
5.37173e-07
5.39375e-07
5.42035e-07
5.45193e-07
5.48888e-07
5.53152e-07
5.58012e-07
5.63497e-07
5.69747e-07
5.3099e-07
5.32203e-07
5.3377e-07
5.35738e-07
5.38155e-07
5.41066e-07
5.44513e-07
5.48532e-07
5.53152e-07
5.584e-07
5.64414e-07
5.28723e-07
5.29716e-07
5.31042e-07
5.32756e-07
5.34912e-07
5.3756e-07
5.40748e-07
5.44513e-07
5.48888e-07
5.53902e-07
5.59685e-07
5.27134e-07
5.27887e-07
5.28951e-07
5.30391e-07
5.32269e-07
5.34642e-07
5.3756e-07
5.41066e-07
5.45193e-07
5.49974e-07
5.55526e-07
5.26139e-07
5.26652e-07
5.27444e-07
5.28595e-07
5.30182e-07
5.32269e-07
5.34912e-07
5.38155e-07
5.42035e-07
5.46584e-07
5.51909e-07
5.25593e-07
5.25904e-07
5.26441e-07
5.27306e-07
5.28595e-07
5.30391e-07
5.32756e-07
5.35738e-07
5.39375e-07
5.43699e-07
5.48804e-07
5.25319e-07
5.25499e-07
5.25835e-07
5.26441e-07
5.27444e-07
5.28951e-07
5.31042e-07
5.3377e-07
5.37173e-07
5.41284e-07
5.46179e-07
5.25171e-07
5.2529e-07
5.25499e-07
5.25904e-07
5.26652e-07
5.27887e-07
5.29716e-07
5.32203e-07
5.35389e-07
5.39302e-07
5.44004e-07
5.25067e-07
5.25171e-07
5.25319e-07
5.25593e-07
5.26139e-07
5.27134e-07
5.28723e-07
5.3099e-07
5.33979e-07
5.37716e-07
5.42248e-07
5.24983e-07
5.25087e-07
5.25216e-07
5.25418e-07
5.25825e-07
5.26627e-07
5.28009e-07
5.30085e-07
5.32905e-07
5.36494e-07
5.40883e-07
5.24921e-07
5.25024e-07
5.25149e-07
5.25321e-07
5.25642e-07
5.26305e-07
5.27526e-07
5.29448e-07
5.32133e-07
5.35605e-07
5.39882e-07
5.24879e-07
5.24982e-07
5.25106e-07
5.25267e-07
5.25543e-07
5.2612e-07
5.2723e-07
5.29044e-07
5.31635e-07
5.35027e-07
5.39228e-07
5.24858e-07
5.24961e-07
5.25085e-07
5.25242e-07
5.25498e-07
5.26035e-07
5.2709e-07
5.28848e-07
5.31392e-07
5.34742e-07
5.38904e-07
5.24858e-07
5.24961e-07
5.25085e-07
5.25242e-07
5.25498e-07
5.26035e-07
5.2709e-07
5.28848e-07
5.31392e-07
5.34742e-07
5.38904e-07
5.24879e-07
5.24982e-07
5.25106e-07
5.25267e-07
5.25543e-07
5.26119e-07
5.2723e-07
5.29044e-07
5.31635e-07
5.35027e-07
5.39227e-07
5.24921e-07
5.25024e-07
5.25149e-07
5.25321e-07
5.25642e-07
5.26305e-07
5.27526e-07
5.29448e-07
5.32133e-07
5.35605e-07
5.39882e-07
5.24983e-07
5.25087e-07
5.25216e-07
5.25418e-07
5.25825e-07
5.26627e-07
5.28009e-07
5.30085e-07
5.32905e-07
5.36494e-07
5.40883e-07
5.25067e-07
5.25171e-07
5.25319e-07
5.25593e-07
5.26139e-07
5.27134e-07
5.28723e-07
5.3099e-07
5.33979e-07
5.37716e-07
5.42248e-07
5.25171e-07
5.2529e-07
5.25499e-07
5.25904e-07
5.26652e-07
5.27887e-07
5.29716e-07
5.32203e-07
5.35388e-07
5.39301e-07
5.44004e-07
5.25319e-07
5.25499e-07
5.25835e-07
5.26441e-07
5.27444e-07
5.28951e-07
5.31042e-07
5.3377e-07
5.37173e-07
5.41284e-07
5.46179e-07
5.25593e-07
5.25904e-07
5.26441e-07
5.27306e-07
5.28595e-07
5.30391e-07
5.32756e-07
5.35738e-07
5.39375e-07
5.43699e-07
5.48804e-07
5.26139e-07
5.26652e-07
5.27444e-07
5.28595e-07
5.30182e-07
5.32269e-07
5.34911e-07
5.38155e-07
5.42034e-07
5.46584e-07
5.51909e-07
5.27134e-07
5.27887e-07
5.28951e-07
5.30391e-07
5.32269e-07
5.34642e-07
5.3756e-07
5.41066e-07
5.45193e-07
5.49974e-07
5.55526e-07
5.28723e-07
5.29716e-07
5.31042e-07
5.32756e-07
5.34911e-07
5.3756e-07
5.40748e-07
5.44513e-07
5.48888e-07
5.53902e-07
5.59684e-07
5.3099e-07
5.32203e-07
5.3377e-07
5.35738e-07
5.38155e-07
5.41066e-07
5.44513e-07
5.48532e-07
5.53151e-07
5.584e-07
5.64414e-07
5.33979e-07
5.35388e-07
5.37173e-07
5.39375e-07
5.42034e-07
5.45193e-07
5.48888e-07
5.53151e-07
5.58012e-07
5.63497e-07
5.69747e-07
5.37716e-07
5.39301e-07
5.41284e-07
5.43699e-07
5.46584e-07
5.49974e-07
5.53902e-07
5.584e-07
5.63496e-07
5.69225e-07
5.7574e-07
5.42248e-07
5.44004e-07
5.46179e-07
5.48804e-07
5.51909e-07
5.55526e-07
5.59684e-07
5.64414e-07
5.69747e-07
5.7574e-07
5.82645e-07
)
;

boundaryField
{
    inlet
    {
        type            cyclic;
    }
    outlet
    {
        type            cyclic;
    }
    wall
    {
        type            fixedValue;
        value           nonuniform 0();
    }
    procBoundary7to4
    {
        type            processor;
        value           nonuniform List<scalar> 
34
(
9.1565e-07
9.32422e-07
9.48973e-07
9.65288e-07
9.8135e-07
9.97147e-07
9.97865e-07
9.99295e-07
1.00142e-06
1.00423e-06
1.0077e-06
1.01178e-06
1.01646e-06
1.02168e-06
1.0274e-06
1.03357e-06
1.04014e-06
1.04704e-06
1.05423e-06
1.06167e-06
1.06167e-06
1.05423e-06
1.04704e-06
1.04014e-06
1.03358e-06
1.02741e-06
1.02168e-06
1.01646e-06
1.01178e-06
1.0077e-06
1.00423e-06
1.00142e-06
9.99294e-07
9.97865e-07
)
;
    }
    procBoundary7to5
    {
        type            processor;
        value           nonuniform List<scalar> 
42
(
7.49059e-07
7.49059e-07
7.70512e-07
7.70512e-07
7.8815e-07
8.05808e-07
8.23443e-07
8.41021e-07
8.58507e-07
8.80413e-07
8.80413e-07
8.97588e-07
9.19693e-07
9.25412e-07
9.317e-07
9.38506e-07
9.4578e-07
9.53467e-07
9.61514e-07
9.69891e-07
9.65289e-07
9.81351e-07
9.65289e-07
9.65289e-07
9.66029e-07
9.67505e-07
9.23256e-07
9.39938e-07
9.69701e-07
9.56391e-07
9.23256e-07
9.10132e-07
9.10132e-07
9.14587e-07
9.19695e-07
9.25414e-07
9.31701e-07
9.38507e-07
9.4578e-07
9.53467e-07
9.61514e-07
9.69891e-07
)
;
    }
    procBoundary7to6
    {
        type            processor;
        value           nonuniform List<scalar> 
72
(
5.47176e-07
5.55838e-07
5.65751e-07
5.76806e-07
5.88899e-07
6.01928e-07
6.15791e-07
6.30391e-07
6.45632e-07
6.61426e-07
6.77688e-07
6.94339e-07
7.11306e-07
7.28524e-07
8.11606e-07
8.29223e-07
8.46769e-07
8.64212e-07
8.81523e-07
8.98677e-07
6.41387e-07
6.57054e-07
6.73209e-07
6.89771e-07
7.06666e-07
7.23828e-07
7.41192e-07
7.58701e-07
7.76304e-07
7.93954e-07
7.93954e-07
5.74089e-07
5.85973e-07
5.98817e-07
6.12519e-07
6.26977e-07
6.26977e-07
5.6426e-07
5.47176e-07
5.55839e-07
5.65751e-07
5.65751e-07
5.40883e-07
5.36494e-07
5.32905e-07
5.30085e-07
5.28009e-07
5.26627e-07
5.25825e-07
5.25418e-07
5.25216e-07
5.25087e-07
5.24983e-07
5.249e-07
5.24838e-07
5.24796e-07
5.24776e-07
5.24776e-07
5.24796e-07
5.24838e-07
5.249e-07
5.24983e-07
5.25087e-07
5.25216e-07
5.25418e-07
5.25825e-07
5.26627e-07
5.28009e-07
5.30085e-07
5.32905e-07
5.36494e-07
5.40882e-07
)
;
    }
}


// ************************************************************************* //
