/*--------------------------------*- C++ -*----------------------------------*\
  =========                 |
  \\      /  F ield         | OpenFOAM: The Open Source CFD Toolbox
   \\    /   O peration     | Website:  https://openfoam.org
    \\  /    A nd           | Version:  7
     \\/     M anipulation  |
\*---------------------------------------------------------------------------*/
FoamFile
{
    version     2.0;
    format      ascii;
    class       surfaceScalarField;
    location    "40000";
    object      phi;
}
// * * * * * * * * * * * * * * * * * * * * * * * * * * * * * * * * * * * * * //

dimensions      [0 3 -1 0 0 0 0];

internalField   nonuniform List<scalar> 
3450
(
-1.24527e-22
5.07203e-23
-3.51989e-23
-5.54158e-23
4.82477e-23
-2.69962e-23
-4.28661e-23
6.42389e-23
-3.96686e-23
-9.59427e-23
2.52122e-23
-4.3921e-23
1.08634e-22
3.02666e-23
1.512e-23
2.69824e-23
-3.98069e-23
6.33448e-24
4.18628e-23
-6.15983e-23
5.54972e-23
8.91794e-23
-8.26495e-23
2.82349e-23
-2.24287e-23
-1.09059e-22
-3.5104e-23
5.03328e-23
-5.17509e-23
-3.41334e-23
-5.52689e-24
6.90907e-23
-4.26352e-24
-1.13044e-22
-7.94709e-24
-3.81029e-24
-2.29793e-23
-8.26886e-23
-1.02678e-22
-1.41816e-23
-2.7806e-24
2.18022e-23
-3.60198e-24
-1.58983e-23
-4.45027e-24
1.63092e-23
3.0462e-23
2.18758e-23
5.94493e-23
9.15502e-23
5.82275e-23
1.66226e-22
-8.90519e-24
-4.24194e-23
6.25404e-23
-1.37209e-22
6.73462e-23
-1.26955e-22
1.94008e-22
2.38473e-23
2.27777e-22
-1.08754e-23
1.18403e-23
4.68845e-23
-4.13465e-23
2.8625e-23
-2.9762e-24
5.3935e-23
3.36918e-24
-1.27542e-23
-5.14013e-24
2.76078e-23
1.12039e-23
1.0257e-22
2.26834e-23
-1.39317e-23
7.36304e-23
-6.93618e-24
3.98241e-23
-1.33949e-22
5.16252e-24
-2.22401e-22
3.31139e-23
-2.93786e-23
1.1415e-22
1.07395e-22
8.28526e-23
2.25282e-23
4.86266e-23
2.54446e-23
7.50712e-24
-6.08967e-26
-4.79083e-24
5.14666e-23
3.83586e-23
6.53925e-23
-1.83248e-23
-1.51718e-23
6.2212e-23
-2.6178e-23
7.49299e-24
-1.01902e-22
3.39886e-23
-1.1191e-22
3.45028e-23
-2.20954e-23
3.35147e-23
1.14118e-22
-5.97355e-23
-5.3129e-24
-1.16329e-22
1.88807e-23
-2.95897e-23
5.03678e-23
2.29286e-23
3.8723e-23
3.31293e-23
7.12751e-23
4.47089e-23
1.4862e-23
3.09512e-23
-2.72894e-23
4.46267e-23
-8.99385e-23
1.06049e-22
-1.12596e-22
4.87819e-23
-4.65105e-23
-2.62193e-23
1.06835e-22
3.06496e-23
7.58842e-23
-9.76504e-23
6.9991e-23
-3.51312e-23
6.61104e-23
1.69662e-23
5.5151e-23
6.05761e-23
1.96298e-23
6.46646e-23
3.54498e-23
-1.75341e-23
3.69706e-23
1.95984e-23
-1.64421e-22
-5.5271e-24
-1.66601e-22
3.05862e-23
-3.25977e-24
1.18854e-22
-1.82747e-24
3.10675e-23
1.28888e-22
5.84197e-23
1.22304e-22
-9.83594e-24
7.25293e-23
4.68188e-23
5.07821e-23
1.03092e-22
-3.84541e-23
1.74019e-23
4.19482e-23
-5.64688e-23
3.2899e-23
7.03584e-24
-1.48099e-22
-9.84618e-23
-1.17222e-22
2.8654e-23
-4.49272e-23
7.3442e-23
4.06428e-23
-2.03561e-23
7.36656e-23
5.61519e-23
1.46336e-22
1.31264e-22
8.80202e-23
7.62099e-23
6.56964e-26
-5.62826e-23
-3.9181e-23
2.56308e-23
7.51522e-23
-7.10179e-23
-3.33391e-23
6.33992e-23
-7.35589e-23
-5.41347e-23
-8.40666e-23
4.31064e-23
-9.18539e-23
5.85503e-23
1.07135e-22
1.9942e-23
1.21274e-22
-2.29951e-24
1.16872e-22
-1.7371e-22
1.78406e-23
-5.03162e-23
6.61832e-23
-8.87875e-23
-5.13863e-23
-9.17909e-23
1.27817e-22
-7.84949e-23
-9.88406e-23
1.03466e-22
-3.20553e-23
1.9513e-22
-3.95015e-23
5.94296e-23
-9.27658e-23
5.34894e-23
8.84391e-23
2.38905e-22
7.25652e-23
-4.73763e-24
1.93426e-22
-7.45905e-23
2.87023e-23
-1.9558e-22
5.41403e-23
-7.82747e-23
3.84768e-23
-4.65655e-23
6.55006e-23
-1.21275e-22
-6.77051e-23
5.37829e-23
-9.9636e-23
1.66155e-22
-4.49597e-23
4.42127e-23
-6.2681e-24
-3.5548e-23
-8.54063e-24
-8.93475e-23
2.61524e-23
-3.40413e-23
1.41058e-22
6.54912e-23
7.36302e-23
-1.64527e-22
6.49341e-23
-7.27666e-23
5.83529e-23
-1.46208e-24
3.50277e-25
-1.22896e-22
-2.87818e-23
3.20826e-24
-1.46711e-22
6.12804e-23
-6.58415e-23
-2.34137e-23
-4.40057e-25
-1.23026e-22
3.17042e-23
-1.42159e-22
9.14786e-23
-9.94859e-23
4.25463e-23
8.75758e-23
1.01465e-22
3.94862e-23
1.08476e-22
-1.16039e-22
4.96671e-23
-1.92504e-22
-1.11462e-22
-7.58062e-23
-4.59576e-24
-2.46523e-23
-1.5379e-22
-1.79177e-23
-1.11617e-22
-3.10487e-23
-6.52027e-24
2.83347e-23
3.41169e-23
-1.80229e-22
1.89714e-22
-2.81407e-23
1.25741e-23
-2.13433e-22
5.82426e-23
-2.01613e-23
1.249e-22
2.84843e-23
6.30465e-23
-1.33213e-22
-8.97135e-24
4.89855e-24
-2.19327e-24
-1.33721e-22
-8.99153e-23
-8.96551e-23
-6.0506e-23
-6.28371e-23
-1.18454e-23
9.20158e-23
-6.32024e-23
1.544e-22
-5.07428e-23
9.32772e-23
-1.82926e-22
5.8095e-23
2.59048e-23
6.76458e-23
3.20867e-23
8.79776e-23
-1.21442e-22
6.88333e-23
2.11866e-23
-1.1866e-22
-8.53363e-23
1.13648e-22
-8.26793e-23
2.42334e-22
1.00952e-22
1.91359e-22
8.90741e-23
-1.67963e-23
1.41005e-22
7.69689e-24
6.67926e-23
1.164e-22
3.22266e-23
1.16107e-22
1.05821e-22
4.84418e-23
-5.47605e-23
-2.94639e-24
-4.80545e-23
2.26588e-22
-9.67601e-23
2.45314e-22
3.55244e-23
3.35214e-22
8.11524e-23
1.96727e-22
1.45061e-22
1.69827e-22
6.43047e-23
1.72622e-22
2.5246e-23
-4.66005e-23
7.15648e-23
2.3096e-23
1.39496e-23
3.9059e-23
-6.0354e-23
3.56545e-22
-7.35805e-23
2.73044e-22
-2.5896e-24
2.71756e-22
8.54595e-23
2.3593e-22
1.39928e-22
1.51746e-22
2.33481e-23
5.48794e-23
4.81168e-23
-8.64601e-23
7.49124e-23
4.02224e-23
1.06759e-23
6.05044e-23
-7.63315e-23
3.01341e-22
-6.94832e-23
3.10115e-22
1.03435e-23
2.5054e-22
7.27783e-23
2.06234e-22
9.74036e-23
1.47302e-22
-2.17153e-23
2.23987e-22
7.76442e-23
2.97292e-22
6.89594e-23
5.77334e-23
5.28216e-23
6.44792e-23
-5.87613e-23
2.86447e-22
-8.06798e-23
3.23868e-22
1.0438e-23
1.98428e-22
7.54808e-23
2.35659e-22
1.10491e-22
1.65715e-22
-3.81559e-23
1.69158e-22
3.90015e-23
4.4218e-22
6.30742e-23
4.32535e-23
6.16093e-23
5.34429e-23
-3.71842e-23
2.44802e-22
-9.67458e-23
1.94816e-22
2.32763e-23
3.42942e-22
7.41693e-23
2.03569e-22
1.24321e-22
1.35613e-22
1.54926e-23
7.41298e-23
-1.96778e-23
3.08406e-22
4.62725e-23
2.49822e-22
1.29264e-22
3.43726e-23
-3.07232e-23
-7.68079e-23
1.10186e-24
9.227e-25
2.75171e-22
5.98855e-23
2.07665e-22
1.04142e-22
7.73032e-23
5.28123e-23
1.19573e-22
-3.17091e-23
1.6811e-22
3.34844e-23
2.41309e-22
1.46844e-22
1.45133e-23
-4.06173e-23
-8.92055e-24
-6.20532e-25
2.65198e-22
4.44762e-23
2.27724e-22
1.1182e-22
2.48105e-22
4.98848e-23
1.45965e-22
-1.12515e-23
1.92539e-22
5.2928e-24
2.29108e-22
1.67886e-22
1.80852e-24
-1.28724e-23
2.02312e-23
4.25628e-23
1.00821e-22
4.42792e-23
-1.659e-23
2.3426e-23
-2.0277e-23
-2.07504e-23
4.5021e-23
5.172e-23
2.21776e-23
-2.49128e-22
-8.46325e-24
-1.22072e-22
3.05944e-24
-4.1695e-23
-1.53311e-24
-1.87282e-22
-5.76203e-24
-1.54512e-22
1.19232e-23
-1.61643e-22
-1.23574e-25
-1.57814e-22
3.20172e-24
-1.14377e-22
6.24347e-25
-1.08713e-23
-1.86235e-22
2.31328e-24
-1.13231e-22
2.98237e-23
-8.20468e-23
6.65034e-23
1.0592e-22
6.571e-23
1.29088e-22
4.03922e-23
2.43063e-23
-7.17028e-25
-9.23407e-23
2.72509e-23
-3.07821e-23
5.27978e-23
4.31844e-23
2.38369e-23
-1.51863e-22
2.83628e-23
-1.20875e-22
2.90494e-23
-1.10815e-22
5.3775e-23
-1.53257e-22
3.64398e-23
-1.46337e-22
2.59579e-23
-8.49433e-23
1.96131e-23
-3.49708e-23
8.79975e-24
-2.21772e-22
5.86514e-24
-1.75694e-23
1.13633e-23
-5.43839e-23
-1.31749e-23
-8.49509e-23
-3.06766e-23
-2.39525e-23
-4.09662e-23
-2.09469e-23
-1.8513e-23
-1.60888e-23
-4.82865e-23
4.12789e-23
4.35336e-23
-1.49149e-23
-2.04144e-22
-7.35471e-23
-1.29434e-22
4.99972e-24
-3.89159e-23
1.93339e-23
-1.16701e-22
-2.38752e-23
-2.2273e-24
8.15902e-24
-3.59498e-23
5.93781e-23
8.58105e-23
1.07078e-22
-1.06217e-23
1.28748e-22
-6.41013e-23
1.10024e-22
1.40682e-22
8.36097e-23
-1.07819e-22
4.10826e-23
8.88952e-23
6.25234e-23
-1.44575e-22
5.23152e-23
-1.21596e-22
4.10203e-23
-1.24755e-22
9.10828e-24
-8.91089e-23
-2.26878e-23
-1.84065e-23
-3.82158e-23
-1.68913e-22
-5.32476e-23
-2.97962e-22
-7.29488e-23
-2.83376e-22
-7.85751e-23
-1.25579e-22
-5.11619e-23
-6.66965e-23
-3.95054e-23
-1.31795e-22
3.88771e-23
-6.82951e-23
-1.15206e-22
-8.00639e-23
-5.5725e-23
-2.80417e-23
-1.0691e-22
-1.48953e-23
-1.22716e-22
2.42425e-23
-1.16555e-22
5.99468e-23
8.5336e-24
1.06064e-22
1.77748e-22
8.57343e-23
1.60798e-22
4.1417e-23
1.70681e-22
5.95445e-23
-3.20605e-23
2.76134e-23
-1.88207e-22
3.17648e-23
-9.52798e-23
1.06331e-23
-5.60726e-23
4.9214e-23
-9.68407e-24
2.74734e-23
-2.46695e-22
-9.93256e-24
-4.3024e-22
-3.53123e-23
-3.88583e-22
-3.01773e-23
-3.39196e-22
-6.65142e-24
-3.06849e-22
2.66178e-24
-3.38747e-22
-2.10283e-23
-3.66633e-22
-2.05822e-23
-1.39195e-23
5.90557e-24
-2.49829e-22
-1.56814e-23
-1.14745e-23
6.30667e-23
-1.19566e-22
8.22843e-24
1.64434e-22
-5.2484e-23
5.99164e-23
-2.54562e-23
3.22719e-23
-1.27439e-22
2.06827e-23
-7.88438e-23
-3.18699e-23
-4.38375e-23
-2.11671e-23
-7.56443e-23
-1.20987e-23
-5.43055e-23
-1.71397e-23
3.26383e-23
-2.45799e-23
7.17515e-23
4.09101e-24
3.91245e-23
9.66096e-23
-1.22285e-23
1.82398e-22
-3.5314e-23
1.33489e-23
-5.87323e-23
-1.89292e-23
5.30685e-24
-2.29176e-22
4.39333e-24
4.31595e-23
1.08976e-23
-8.40192e-23
-4.82826e-23
-2.2565e-22
-6.0841e-23
-3.79279e-22
-6.97813e-23
-3.98953e-22
-3.00258e-23
-1.97181e-22
-1.32382e-23
-1.69161e-22
-2.34226e-23
-3.22322e-22
-2.23609e-23
-3.17141e-22
-2.47097e-24
-8.07643e-23
1.237e-23
-2.69383e-22
-6.98199e-25
-2.18275e-22
-2.84845e-24
-1.63482e-25
9.60166e-23
4.29273e-23
4.35969e-23
1.78286e-22
-1.37419e-22
-4.64023e-23
-5.10354e-23
8.91468e-23
-1.23355e-23
2.85374e-23
-6.06971e-24
-5.49864e-23
5.66577e-24
2.60588e-23
9.2625e-23
1.23542e-22
9.65013e-23
6.07088e-23
3.21496e-23
-1.39673e-22
-1.70876e-24
-1.35979e-22
4.84666e-23
6.75521e-24
9.58925e-23
1.24872e-22
1.02286e-22
1.96454e-22
8.03981e-23
-6.97343e-23
7.29704e-23
-1.41048e-22
1.01903e-22
-2.26944e-22
9.67028e-23
-1.40823e-22
5.28945e-23
-2.03716e-22
1.92396e-23
-1.14123e-22
2.80032e-23
-1.60575e-22
1.93088e-23
-1.80109e-22
-2.5776e-24
-2.16145e-22
-1.14561e-23
-2.22409e-22
1.56459e-23
-2.31598e-22
1.50814e-23
-2.03845e-22
1.6182e-23
-2.43863e-22
3.26612e-23
-1.17288e-22
3.26368e-23
2.3077e-23
-5.72063e-24
4.22663e-24
1.8918e-23
2.1406e-22
1.08308e-22
-5.01561e-23
-2.05909e-23
8.74367e-23
1.43463e-22
5.38619e-23
3.76285e-23
1.47724e-23
4.36107e-23
1.88366e-23
9.91342e-23
9.42696e-24
6.67669e-23
-1.84681e-23
4.67594e-23
-2.32416e-23
9.84592e-24
-2.49721e-24
1.52923e-23
1.05802e-22
3.60092e-23
1.25586e-22
7.13915e-23
1.82579e-22
4.95218e-23
-8.77061e-24
3.5596e-23
-1.51915e-22
-3.01128e-24
-3.62809e-22
-7.21305e-24
-3.22157e-22
5.33068e-24
-3.21405e-22
-3.93682e-24
-2.89899e-22
-1.6272e-23
-2.90624e-22
-1.89063e-23
-3.02317e-22
2.06117e-24
-7.53936e-23
2.00785e-23
-1.27793e-22
2.42974e-23
-1.4079e-22
2.28468e-23
-1.09924e-23
3.24267e-23
-2.09699e-22
1.11867e-23
-2.60284e-22
1.05075e-23
1.75538e-23
5.8089e-23
2.10567e-22
4.70742e-23
9.26006e-23
6.36255e-23
8.43196e-23
-1.22983e-24
-8.79398e-24
1.60616e-23
4.44603e-23
-6.9065e-25
7.7992e-23
1.91776e-23
-4.74197e-23
-2.54266e-23
-2.1802e-23
1.20151e-23
-2.90549e-23
5.36073e-23
-2.55654e-23
3.0924e-23
7.92575e-23
-5.51927e-23
1.75104e-22
-3.58474e-23
7.40198e-23
-2.59365e-23
1.14243e-22
9.18718e-24
-1.47505e-22
-9.54109e-25
-2.40826e-22
2.41263e-23
-2.97945e-22
1.26603e-23
-2.83951e-22
6.25091e-24
-3.26174e-22
2.01589e-23
-1.85001e-22
4.1183e-23
-5.18176e-23
2.72025e-23
-3.81527e-23
5.1693e-24
2.23997e-23
-1.61978e-23
-1.03019e-22
-3.52457e-23
-6.38817e-23
-3.41736e-23
-2.60658e-22
-2.39539e-23
-2.32822e-22
-1.70588e-23
-1.89127e-22
-3.37183e-23
-2.8578e-23
-1.03116e-23
-2.59963e-24
-1.67416e-23
5.0086e-23
2.90287e-23
1.20089e-22
-1.26535e-23
-7.38104e-24
-7.7387e-23
1.16408e-22
-1.04055e-22
7.62849e-24
-1.14319e-22
2.70273e-23
-4.23495e-23
5.6559e-23
-4.87107e-23
-5.5121e-23
-1.08507e-22
-2.22701e-22
-8.24963e-23
1.86744e-22
2.16849e-23
1.93984e-22
-3.88309e-23
2.15882e-22
-5.05227e-23
6.09547e-23
-1.10445e-22
-7.66689e-23
-1.07537e-22
-3.03094e-22
-5.85653e-23
-2.8186e-22
-1.21845e-23
-2.54494e-22
-4.08115e-23
-1.94355e-22
-4.62164e-23
-3.09077e-22
-5.80017e-23
-2.816e-22
-3.90169e-23
-2.69799e-22
-2.75931e-23
-2.28534e-22
-3.17757e-23
-2.09845e-22
-2.62198e-23
6.99144e-24
-2.57439e-23
-2.38141e-22
-2.94688e-23
-3.57071e-22
-2.30381e-23
-1.63407e-22
-8.16754e-24
-2.04321e-23
2.64498e-23
6.97937e-23
2.84375e-23
2.50001e-23
8.52493e-23
6.53634e-23
2.5465e-23
-8.91867e-24
3.92598e-24
1.38459e-22
1.88245e-23
7.64448e-23
-5.39921e-23
1.15232e-23
-8.47967e-23
-1.28148e-23
-7.13874e-23
2.39748e-23
-1.30043e-22
4.7348e-23
-8.50303e-23
9.46974e-23
-7.1184e-23
1.45551e-22
-1.28531e-22
5.97165e-23
-2.2737e-22
7.81784e-23
-1.8955e-22
7.01134e-23
-1.16573e-22
-1.4609e-22
-9.54291e-23
-3.04864e-22
-1.29911e-22
-2.35787e-22
-1.1125e-22
-2.27446e-22
-1.07478e-22
-1.70972e-22
-9.70687e-23
-1.62288e-22
-7.36035e-23
-1.16833e-22
-4.88765e-23
-1.51066e-22
-4.12892e-23
-1.83725e-22
-4.96615e-23
2.68857e-24
-5.62334e-23
-1.98881e-22
-4.52584e-23
-2.47023e-22
-1.75333e-23
-2.24644e-22
-2.86083e-23
-3.26121e-23
1.01373e-23
2.91252e-23
1.68787e-23
-3.17932e-23
4.91821e-23
3.65174e-23
2.10296e-23
1.22875e-23
1.67052e-23
5.20619e-23
-2.29817e-23
5.01457e-23
-5.75965e-23
4.26103e-23
-1.22253e-22
-9.4142e-23
-1.71512e-22
1.59934e-22
-1.7128e-22
3.66974e-23
-2.34745e-22
3.41527e-24
-1.63967e-22
-3.8298e-23
-1.04305e-22
2.58059e-22
-7.89372e-23
2.45858e-22
-1.64653e-22
1.03364e-22
-2.20955e-22
-2.36475e-22
-2.37628e-22
-1.96011e-22
-1.93868e-22
-1.52025e-22
-1.51139e-22
-1.26548e-22
-1.48052e-22
-6.5439e-23
-1.46188e-22
6.95942e-24
-1.11982e-22
-1.67748e-22
-1.07477e-22
-1.57272e-22
-9.57263e-23
-1.20738e-22
-8.37374e-23
1.26639e-22
-6.89759e-23
-5.30335e-23
-9.86902e-23
-2.44745e-22
-9.11467e-23
-2.82118e-22
-5.92932e-23
-2.5422e-23
4.36245e-23
-1.49962e-23
-3.95661e-24
-6.95487e-23
6.52367e-23
7.39194e-25
9.82639e-23
-4.07583e-23
7.53477e-23
7.21143e-24
3.65757e-23
-1.10957e-23
-4.30982e-23
-3.83725e-23
-8.92263e-23
-6.76282e-23
-1.29252e-22
9.40084e-23
-7.84104e-23
1.79517e-22
-1.29862e-22
1.45623e-22
-1.6974e-22
-8.89987e-24
-1.85361e-22
4.77076e-23
-1.33689e-22
1.06249e-23
-1.36889e-22
-6.21437e-23
-1.54251e-22
-9.56048e-23
-1.49065e-22
-6.80039e-23
-1.1096e-22
-1.25905e-22
-4.33143e-23
-2.11443e-23
1.69574e-24
9.14021e-23
-3.92094e-23
3.50132e-23
-6.87112e-23
-7.58185e-23
-5.99369e-23
-1.14874e-22
-4.86646e-23
1.49351e-23
-4.79146e-23
4.51604e-24
-4.27288e-23
1.13472e-22
-3.01983e-23
3.52319e-23
-2.98412e-23
1.48085e-22
-1.30065e-23
-1.85614e-23
8.50014e-23
5.30818e-23
1.12213e-23
-6.97823e-23
-4.08398e-25
-3.43454e-23
6.92853e-23
-8.82674e-23
3.42744e-23
-8.55414e-23
4.40906e-23
-1.11259e-22
-3.80346e-23
-1.40436e-22
-8.6032e-23
3.68696e-23
-2.20523e-23
6.54206e-23
-1.23734e-22
9.45851e-23
-1.37017e-22
9.19156e-23
-1.74459e-22
1.62363e-22
-2.34875e-22
-3.20282e-23
-2.15502e-22
-3.37403e-23
-1.2288e-22
-5.36275e-23
-6.40286e-23
1.20777e-22
-4.81317e-23
1.49953e-22
-5.81838e-23
-6.28933e-23
-5.54794e-23
-2.29294e-22
-1.68765e-23
-1.06495e-22
1.69217e-23
2.15121e-23
2.32176e-23
-2.42315e-23
-6.80395e-25
-9.1767e-23
2.01969e-24
4.5979e-23
4.83402e-24
1.21762e-22
9.96992e-25
7.19097e-23
-1.29837e-23
2.13352e-22
-2.59921e-24
4.40156e-24
-2.14451e-23
-3.39981e-23
4.82734e-23
5.01439e-23
-3.46811e-23
-1.54164e-23
-5.07418e-23
-8.09358e-23
-2.5493e-25
-7.32656e-23
2.03703e-23
-1.65543e-22
-1.01465e-23
-2.00842e-22
2.12971e-23
-3.62975e-23
5.52442e-23
-9.19337e-23
-1.0761e-23
3.17707e-23
-2.38079e-23
5.32891e-24
-1.22655e-22
-3.87791e-23
-1.38979e-22
3.04383e-22
-8.79709e-23
2.15844e-22
-9.36151e-23
2.04763e-22
-9.68529e-23
6.00336e-23
-9.91825e-23
1.11585e-22
-5.57622e-23
1.09687e-22
-3.87896e-23
1.01475e-22
-4.94724e-23
1.041e-22
-4.0037e-23
-9.67947e-23
-2.1941e-23
-9.78179e-23
-1.54176e-23
-1.09015e-22
1.45952e-23
-6.4263e-23
-6.74478e-24
-5.39697e-23
-2.65424e-24
-2.58198e-23
8.52106e-24
-2.12916e-23
1.09583e-23
-3.74634e-24
7.61063e-24
-4.55721e-23
1.92267e-23
7.96567e-24
-2.23391e-23
6.0804e-23
-1.93096e-23
-1.45843e-23
5.7681e-23
-7.56675e-23
6.20625e-23
-1.15783e-22
5.95299e-23
-1.47328e-22
2.52512e-23
-1.7575e-22
2.62389e-23
-1.40691e-22
3.08472e-23
-1.50969e-22
2.23642e-23
-1.58036e-22
2.66935e-23
-6.86301e-23
5.34626e-23
7.62832e-23
3.17021e-23
2.38676e-22
5.02722e-23
1.49179e-22
3.48713e-23
7.42589e-23
3.31647e-23
2.10911e-22
5.67208e-23
1.5544e-22
1.82796e-23
1.59848e-22
-5.52562e-24
9.07168e-23
-2.89166e-24
1.64081e-23
6.55464e-24
3.80585e-24
2.28658e-23
-2.79859e-23
4.58896e-23
-7.96796e-23
6.52502e-23
6.40006e-23
1.02149e-22
2.06743e-22
8.41858e-23
1.61855e-22
3.39253e-23
1.01581e-23
9.30484e-24
5.12996e-23
-4.51911e-24
-3.06789e-22
-2.02819e-23
9.64779e-25
6.56199e-23
1.19939e-22
-1.04595e-22
5.34838e-23
1.74201e-22
-1.32602e-23
1.08823e-22
-1.20488e-22
2.82057e-24
-1.08107e-22
-1.15351e-23
-1.05975e-22
1.68821e-23
-7.71205e-23
2.59228e-23
-1.16084e-22
6.12676e-23
-7.20809e-23
1.1247e-24
-3.11195e-23
4.70103e-23
1.66571e-22
9.74017e-23
1.74357e-22
7.7247e-23
1.83144e-22
4.83139e-23
2.22596e-22
2.45991e-23
8.53944e-23
-4.09633e-24
1.30795e-22
1.00419e-24
1.64925e-22
7.91914e-25
1.4269e-22
1.6165e-24
1.45428e-22
-9.77095e-24
1.79526e-22
1.83332e-23
2.15332e-22
4.849e-23
2.7299e-22
3.75576e-23
-4.10257e-23
2.27441e-24
-2.46729e-22
-1.411e-23
-2.24039e-22
-2.25239e-24
-2.08074e-22
-1.68764e-24
-1.71824e-22
4.31376e-24
-6.08221e-24
2.53861e-23
1.95065e-23
1.00486e-22
1.42883e-22
-1.16572e-22
6.1578e-23
1.43484e-22
-9.17193e-23
1.1641e-22
-1.24723e-22
-1.36997e-23
-1.09128e-22
-3.69579e-23
-1.38106e-22
2.49688e-23
-5.86773e-23
4.71048e-23
-2.25939e-22
-3.06513e-23
-2.48467e-23
9.02961e-23
-1.72196e-23
6.96644e-23
7.71752e-23
3.07948e-23
7.31515e-23
6.50817e-23
1.04091e-22
2.72053e-23
1.53314e-22
2.94005e-23
1.15018e-22
3.65307e-23
8.82658e-23
1.74942e-23
9.62887e-23
1.33074e-23
5.36362e-23
2.17441e-23
2.57725e-22
5.91118e-23
2.59474e-22
4.35341e-23
2.70963e-22
1.92561e-23
1.54763e-23
1.04824e-23
-6.9524e-24
1.42877e-23
-3.69566e-23
-1.66392e-24
-5.72911e-23
-1.45763e-23
-8.25082e-23
-4.07256e-24
-5.75106e-23
-1.09768e-23
-1.29712e-22
-1.86088e-23
-1.20803e-23
1.02441e-22
1.41958e-22
-1.0607e-22
8.50992e-23
1.35719e-22
-1.20936e-22
7.92493e-23
-1.06382e-22
1.57503e-22
-1.82795e-23
1.58096e-22
-6.52115e-23
5.63974e-23
-1.41363e-22
7.55964e-23
-6.1403e-23
1.2024e-22
-7.41979e-23
8.27168e-23
-4.97606e-23
7.48768e-23
9.62267e-23
1.44578e-22
6.17644e-23
1.37192e-22
2.11766e-22
1.56038e-22
1.67758e-22
1.13158e-22
1.50621e-22
4.57151e-23
1.3053e-22
1.4247e-23
1.84106e-22
-1.14589e-23
2.52281e-22
-4.81384e-23
1.34486e-22
-7.51534e-23
1.92063e-22
-2.92953e-23
2.38187e-22
-2.53585e-23
3.60927e-24
-5.98329e-23
-1.65294e-22
-8.43073e-23
-1.26709e-22
-4.92324e-23
-1.42048e-22
-4.08651e-23
-1.7816e-22
-4.29472e-23
-1.61754e-22
-2.79492e-23
-1.2079e-22
-2.15657e-23
-3.79133e-23
1.04402e-22
1.3869e-22
-8.68427e-23
7.6893e-23
1.64053e-22
-1.24046e-23
1.41706e-22
-6.8592e-23
6.80545e-23
-1.37852e-22
8.33615e-23
1.95788e-23
1.09579e-22
-6.43843e-23
9.4239e-23
-4.43976e-23
5.51338e-23
-1.00784e-22
8.38954e-23
7.08806e-23
1.45865e-22
8.27857e-23
1.49252e-22
1.04278e-22
1.09527e-22
1.46259e-22
1.06415e-22
-2.53061e-23
5.69001e-23
1.42284e-26
4.57182e-23
-7.93016e-24
2.92749e-23
-3.18275e-23
4.04267e-23
1.59972e-22
2.9322e-23
3.26572e-22
3.98199e-24
3.11274e-22
-4.32645e-23
1.37227e-22
-8.85296e-23
-8.1646e-23
-8.72702e-23
1.11531e-22
-6.42037e-23
-7.69862e-23
-6.41793e-23
-9.77404e-23
-4.59262e-23
4.90836e-23
-1.25496e-23
1.01094e-23
-1.95299e-23
-2.06692e-22
-2.48615e-23
-2.02262e-23
1.03997e-22
1.24472e-22
-6.34065e-23
8.60362e-23
1.55575e-22
-1.62379e-23
1.13971e-22
-3.69835e-23
9.60202e-23
-9.83751e-23
9.65942e-23
2.46023e-23
1.43531e-22
-7.48726e-23
1.45658e-22
3.53788e-23
1.88906e-22
2.76652e-24
9.09696e-23
6.63306e-23
4.85935e-23
-3.30991e-23
-2.46966e-23
9.04405e-23
-5.57498e-24
-3.82658e-23
-2.22766e-23
-2.86339e-23
4.49782e-23
-3.16388e-23
2.28147e-23
-7.78202e-24
-6.40545e-24
-1.63392e-23
2.35878e-23
-4.6104e-23
6.38335e-23
1.13829e-22
4.6626e-23
4.65238e-23
3.9654e-23
1.19481e-22
2.71127e-23
1.69217e-22
2.85929e-23
2.78003e-22
1.63329e-23
1.76986e-22
-3.6552e-24
1.89755e-22
-1.02664e-23
1.8682e-24
-2.41502e-23
2.23148e-23
-2.27837e-23
-1.70436e-22
-3.30618e-23
-1.74545e-23
1.44354e-22
2.47662e-22
-4.9511e-24
9.76541e-23
1.75793e-22
-3.57449e-24
9.69789e-23
-2.29341e-23
1.30254e-22
-2.1057e-23
5.74078e-23
-4.66339e-23
5.513e-23
5.60077e-24
4.46672e-23
-1.45187e-22
5.47773e-23
-1.24888e-22
4.18441e-23
-1.33491e-22
6.26135e-23
3.44223e-23
9.27931e-23
1.68075e-24
6.74915e-23
1.63419e-22
5.67289e-23
-5.53337e-23
2.14531e-23
-7.71107e-23
3.06837e-23
2.48427e-23
7.83383e-23
1.75212e-22
7.46138e-23
-6.94003e-23
6.99051e-23
7.05739e-23
9.68559e-23
-2.03436e-23
1.16745e-22
1.37509e-22
9.38754e-23
4.17234e-23
6.62168e-23
-9.37804e-24
5.7742e-23
9.46122e-23
7.52576e-23
4.30742e-23
4.73636e-23
2.79152e-23
3.93372e-23
-4.07924e-23
5.1164e-23
5.86836e-23
7.19948e-23
6.22738e-23
1.02975e-22
2.94385e-22
-1.35347e-23
6.45078e-23
1.85364e-22
2.06795e-23
1.46121e-22
-1.15456e-22
1.13612e-23
-5.09768e-23
-5.77578e-23
-6.6691e-23
1.292e-23
-1.45163e-24
-4.74176e-23
-1.56972e-22
-4.62861e-23
-1.07647e-22
-1.73865e-23
-6.82656e-23
1.72266e-24
-2.16169e-23
3.63262e-23
5.17429e-24
6.86312e-23
1.74568e-23
4.48009e-23
3.00881e-23
4.43979e-23
7.68262e-23
4.29972e-23
1.42225e-22
5.36393e-23
1.72607e-22
7.43033e-23
1.31107e-22
9.89932e-23
1.68636e-22
6.23514e-23
-6.42354e-23
2.75246e-23
-4.05314e-23
2.03699e-23
-5.5715e-23
4.75747e-23
1.76026e-22
6.30889e-23
3.47391e-24
4.43751e-23
-3.04555e-23
5.36523e-23
1.87271e-22
5.6053e-23
1.71997e-22
3.59946e-23
-2.08874e-23
4.62517e-23
6.85376e-23
2.24202e-23
2.03018e-22
-3.41171e-23
5.45872e-23
1.72545e-22
-7.80544e-23
4.07988e-23
-1.70288e-22
7.45748e-23
1.45815e-23
1.62217e-22
-1.08634e-22
8.00953e-23
1.7695e-23
8.88261e-23
-8.06283e-23
1.28905e-23
-1.08488e-22
1.8859e-23
4.92155e-23
6.46965e-23
7.94032e-24
6.09771e-23
5.62734e-25
6.47816e-23
7.53747e-24
4.90189e-23
8.3731e-24
5.84135e-23
7.15454e-23
6.48196e-23
1.83003e-22
6.89675e-23
2.56175e-22
5.54271e-23
-5.69624e-23
5.08202e-24
-8.77838e-24
3.47339e-23
-1.37589e-23
5.05856e-23
1.89022e-22
7.30991e-23
1.76201e-22
6.02377e-23
1.16842e-22
6.99817e-23
4.29621e-23
4.92407e-23
-6.18515e-24
4.7664e-23
-2.61109e-23
7.0221e-23
2.97901e-22
6.19119e-23
2.48868e-22
5.00961e-23
5.94247e-23
-3.34732e-24
2.49044e-22
-3.79254e-23
-9.16329e-24
1.90773e-22
-2.4223e-23
7.59521e-23
-6.80605e-23
9.23917e-23
-3.06636e-23
1.11165e-22
-8.87376e-23
9.02081e-23
-6.1093e-23
6.5945e-23
-4.1629e-23
3.28843e-23
-6.53498e-23
9.18163e-23
9.60255e-23
1.37115e-22
4.69929e-23
9.55794e-23
5.34734e-23
8.06384e-23
5.86294e-23
7.06537e-23
6.78575e-23
2.25631e-23
6.46241e-23
6.00375e-23
7.13684e-23
9.02865e-23
3.40031e-23
1.14706e-22
1.19862e-22
1.28684e-22
2.78796e-23
1.25865e-22
1.42374e-22
1.60587e-22
3.05138e-23
1.82668e-22
1.40184e-22
1.93471e-22
3.87039e-23
1.73164e-22
1.26903e-22
1.72184e-22
2.54105e-22
1.57643e-22
-4.49481e-23
1.23466e-22
1.68511e-22
1.43636e-22
3.20298e-22
1.38135e-22
1.05639e-22
-2.48787e-23
8.09714e-23
-8.21397e-23
-5.24998e-23
2.5851e-22
3.90631e-23
2.56161e-22
-3.20664e-23
1.56436e-22
-6.97968e-23
1.28201e-22
-8.79032e-23
1.13704e-22
-9.44068e-23
1.11837e-22
5.71988e-23
1.96039e-22
3.60971e-23
1.57926e-22
2.17354e-23
1.40056e-22
2.5042e-23
1.22857e-22
-8.40122e-24
9.58875e-23
-9.08146e-23
1.05597e-22
1.56911e-22
1.6805e-22
2.63897e-22
1.16607e-22
2.35059e-22
1.49009e-22
1.94273e-22
1.23697e-22
2.10535e-22
1.0867e-22
3.4642e-22
1.49602e-22
3.3903e-22
1.31011e-22
2.0509e-22
1.11465e-22
8.65082e-23
1.40991e-22
1.44268e-22
1.19075e-22
-2.52693e-23
1.08861e-22
-3.8431e-23
1.04029e-22
1.37737e-22
1.10262e-22
1.39629e-22
8.89116e-23
9.51685e-24
8.07149e-23
7.38738e-23
8.0409e-23
1.02269e-22
-6.24879e-23
-3.45345e-23
1.03764e-22
-3.34361e-23
2.75545e-22
-4.6294e-23
1.68489e-22
-5.13315e-23
1.54812e-22
-1.0601e-22
1.29989e-22
4.17842e-23
2.49318e-22
-8.73715e-25
2.4085e-22
1.46087e-23
2.64114e-22
-1.64475e-23
2.02103e-22
-1.97961e-23
1.60349e-22
7.13901e-23
2.3763e-22
1.22623e-22
2.77244e-22
4.62796e-23
2.38286e-22
3.94271e-22
2.17974e-22
1.57207e-22
1.71737e-22
1.09601e-22
1.54963e-22
3.11909e-22
1.49008e-22
2.44972e-22
1.22173e-22
2.08821e-22
1.04172e-22
2.35244e-22
9.49884e-23
-1.02095e-22
7.70124e-23
3.74133e-25
8.49355e-23
-1.31821e-22
7.01059e-23
-8.33828e-23
9.01434e-23
-1.23924e-22
1.25046e-22
1.15645e-23
1.39172e-22
-4.12319e-23
1.16074e-22
8.49249e-23
8.79498e-23
1.28444e-22
-8.12752e-23
9.90281e-23
1.039e-22
-1.23979e-22
3.14827e-23
-4.70942e-23
1.3531e-22
-6.67467e-23
1.87334e-22
3.9726e-23
2.45467e-22
3.87185e-23
2.36812e-22
5.88958e-23
2.26782e-22
-9.02915e-23
2.09124e-22
-5.65953e-23
2.06138e-22
1.38478e-22
1.94886e-22
1.66274e-22
1.85707e-22
-2.37027e-23
1.55722e-22
-2.29513e-23
1.76461e-22
1.44986e-22
2.38287e-22
8.76593e-23
2.02185e-22
1.15328e-22
1.81781e-22
1.77296e-22
1.26809e-22
1.74203e-22
1.08981e-22
1.62247e-22
9.74237e-23
2.14622e-22
8.43148e-23
2.18357e-23
6.31721e-23
8.69638e-23
6.77341e-23
1.49111e-22
8.02319e-23
4.11525e-22
8.21307e-23
9.17621e-23
6.57004e-23
-5.92054e-23
5.13512e-23
-3.61632e-22
4.16842e-23
5.26984e-23
9.85042e-23
2.01856e-22
-1.22573e-22
6.28479e-23
1.46984e-22
-1.15437e-23
1.21221e-22
5.89522e-24
1.55806e-22
-3.33931e-24
1.66443e-22
3.11584e-23
1.95176e-22
6.38405e-24
2.03391e-22
2.17146e-23
1.84568e-22
-1.23208e-22
1.52984e-22
-1.18385e-22
1.93974e-22
1.02816e-22
2.44377e-22
9.47018e-23
1.88173e-22
3.66493e-23
1.47414e-22
2.01762e-22
1.92145e-22
1.52098e-23
1.83965e-22
2.40135e-23
1.71786e-22
-1.40843e-22
1.29234e-22
6.55095e-23
1.79586e-22
4.49438e-23
1.53405e-22
5.74092e-23
1.33313e-22
3.8718e-23
1.28874e-22
-5.91142e-23
1.36244e-22
7.577e-23
1.55919e-22
3.48023e-23
1.5712e-22
1.9522e-22
1.36918e-22
-6.71475e-23
1.12608e-22
-1.40407e-22
9.43362e-23
-1.7811e-22
1.00358e-22
1.19369e-22
6.82935e-23
2.81821e-22
-1.25749e-22
5.3574e-23
2.05016e-22
3.21171e-23
2.5147e-22
1.66682e-23
1.68096e-22
3.9183e-23
1.11328e-22
3.39882e-23
1.60852e-22
-2.0427e-23
1.52008e-22
-2.43684e-23
1.74612e-22
-3.50602e-23
1.75464e-22
-1.56392e-23
1.79381e-22
5.26051e-24
1.92375e-22
-5.84225e-24
1.81611e-22
1.72453e-22
1.62108e-22
1.7578e-22
1.54362e-22
2.96599e-23
7.50953e-23
-1.2657e-22
7.96622e-23
1.13563e-22
1.25153e-22
-4.56554e-23
9.13095e-23
1.25518e-23
7.99308e-23
5.57034e-23
1.00991e-22
1.83932e-22
1.11261e-22
1.79035e-22
1.1589e-22
2.1074e-22
8.82719e-23
1.95761e-23
7.28754e-23
6.71136e-23
4.59116e-23
-1.26641e-22
3.51702e-23
-1.12851e-22
4.0545e-23
-1.24298e-23
-3.07181e-25
9.09456e-23
-9.13578e-23
7.05691e-23
2.02214e-22
-5.16709e-23
9.72828e-23
-4.24706e-23
1.7471e-22
8.55821e-23
2.95893e-22
2.27541e-23
1.90206e-22
2.41379e-23
1.42673e-22
-6.97484e-24
1.93148e-22
-1.62226e-23
1.91048e-22
2.38604e-23
1.50008e-22
-1.34077e-23
1.6783e-22
-7.01324e-23
1.77e-22
1.3573e-22
1.94031e-22
-1.10192e-22
1.27909e-22
3.63352e-23
1.05006e-22
-1.38456e-23
1.35628e-22
-3.58194e-23
1.70235e-22
-7.10959e-23
1.76721e-22
1.61201e-22
1.65378e-22
1.69708e-22
1.46207e-22
1.83909e-22
1.37905e-22
-3.58579e-23
6.56279e-23
-4.83868e-24
5.99558e-23
-2.596e-22
5.55103e-23
-8.09193e-23
4.43264e-23
-7.73748e-23
2.25575e-23
-4.35206e-25
6.37827e-23
5.36259e-23
-1.13454e-23
-1.17826e-23
1.69003e-23
1.95887e-25
1.16698e-22
6.04183e-23
1.43258e-22
-2.93939e-23
1.43241e-22
-3.57178e-23
2.10516e-22
8.99611e-23
2.67856e-22
-7.30461e-25
2.83242e-22
-7.72647e-23
2.29898e-22
7.32497e-23
2.3043e-22
6.658e-24
1.76661e-22
-1.23034e-23
1.27078e-22
-4.42097e-23
1.54479e-22
-1.51063e-22
2.01253e-22
1.86142e-22
2.32007e-22
2.01506e-22
1.5792e-22
5.16818e-23
1.15239e-22
-7.04962e-23
1.23651e-22
4.51661e-23
1.21157e-22
1.18437e-22
9.42635e-23
-2.70262e-22
5.97e-23
-4.27332e-23
7.66825e-23
-2.96168e-23
5.55475e-23
-2.76493e-22
3.83946e-23
-2.62989e-22
5.18717e-23
-2.69091e-22
3.53143e-23
3.30128e-23
4.27708e-23
6.32476e-23
-4.07397e-23
5.21598e-23
6.16861e-23
2.99961e-23
1.18795e-22
7.75475e-23
1.58068e-22
4.75683e-23
1.5485e-22
4.66527e-23
1.80468e-22
1.22916e-22
1.90626e-22
-1.11126e-22
2.10926e-22
-8.97564e-23
1.73399e-22
-3.8211e-23
1.65113e-22
-9.39588e-23
1.78753e-22
9.43754e-23
1.61023e-22
1.07215e-22
1.09166e-22
-1.79278e-23
3.36095e-23
-8.343e-23
8.15777e-23
-2.90123e-23
1.05282e-22
2.64269e-23
6.78662e-23
-1.60925e-22
7.58737e-23
-1.16874e-22
7.7024e-23
-1.08095e-22
1.01298e-22
-1.65032e-22
8.37026e-23
-1.73686e-22
7.61162e-23
-1.45189e-22
7.38328e-23
-1.36557e-22
6.67221e-23
-3.58501e-22
6.80774e-23
-1.81016e-22
7.99466e-23
4.22925e-23
4.93614e-23
1.82002e-23
1.24854e-23
9.01546e-23
5.64118e-23
6.84636e-23
1.00485e-22
6.89403e-23
1.68815e-22
8.26437e-23
1.37685e-22
6.21807e-23
1.67503e-22
1.55862e-22
8.49834e-23
-1.63231e-22
-2.85685e-24
-8.05035e-23
7.64664e-23
-3.41273e-24
8.22306e-23
-1.59602e-22
2.82239e-23
-7.85438e-23
7.11573e-23
-1.59425e-22
1.31298e-22
9.61683e-23
1.93067e-22
-7.85861e-24
1.72637e-22
-8.40773e-23
1.67645e-22
1.54229e-22
1.3752e-22
-9.39244e-23
8.45455e-23
1.11751e-22
9.76905e-23
-1.18338e-22
8.16114e-23
-1.05246e-22
7.32598e-23
-1.32553e-22
4.51995e-23
-1.32505e-22
1.74122e-23
-1.00025e-22
5.31481e-24
-2.68347e-22
-1.50399e-23
-5.91367e-22
-4.23233e-23
-3.48739e-23
6.75146e-23
1.62495e-22
6.66823e-23
1.05176e-22
1.92358e-23
1.31823e-22
7.13788e-23
4.21413e-23
1.79238e-23
1.1302e-22
2.98621e-23
-2.89009e-23
1.32379e-24
2.1214e-23
3.14963e-23
-5.88638e-23
3.21726e-23
-8.33434e-23
6.29941e-23
-9.04386e-23
9.94016e-23
4.96944e-24
1.52248e-22
1.49189e-22
1.46477e-22
1.08738e-22
1.22626e-22
8.36354e-23
1.7059e-22
2.67648e-23
1.2357e-22
-2.09985e-22
8.96035e-23
-1.21437e-22
5.45655e-23
-6.88992e-23
8.72521e-23
-3.4257e-24
6.39085e-23
-1.73573e-22
2.47481e-23
-3.45799e-22
-1.01691e-23
-3.10105e-22
-1.39924e-23
-2.97879e-22
2.61235e-24
-3.7368e-22
7.00786e-24
-4.44406e-22
-4.85681e-22
-1.84597e-23
7.76e-23
5.54568e-23
1.4145e-22
1.3978e-22
7.4746e-23
1.25895e-22
6.43687e-23
4.09783e-24
7.53992e-23
3.58593e-23
3.11507e-23
2.30063e-23
3.56343e-23
-2.44729e-23
2.499e-23
-7.04148e-24
2.26724e-23
6.42742e-23
1.32593e-23
1.11508e-22
2.93534e-23
8.78311e-23
1.12782e-22
4.41703e-23
2.11987e-22
2.17558e-23
-1.08288e-22
-1.15589e-23
-6.81562e-23
9.29796e-23
-2.68241e-22
5.42567e-23
2.0787e-23