/*--------------------------------*- C++ -*----------------------------------*\
  =========                 |
  \\      /  F ield         | OpenFOAM: The Open Source CFD Toolbox
   \\    /   O peration     | Website:  https://openfoam.org
    \\  /    A nd           | Version:  7
     \\/     M anipulation  |
\*---------------------------------------------------------------------------*/
FoamFile
{
    version     2.0;
    format      ascii;
    class       volScalarField;
    location    "204000";
    object      nut;
}
// * * * * * * * * * * * * * * * * * * * * * * * * * * * * * * * * * * * * * //

dimensions      [0 2 -1 0 0 0 0];

internalField   nonuniform List<scalar> 
4814
(
4.92869e-06
4.95344e-06
4.97589e-06
4.99599e-06
4.21179e-06
4.25998e-06
4.3062e-06
4.35118e-06
4.39487e-06
4.4372e-06
4.4781e-06
4.51749e-06
4.55527e-06
4.59134e-06
4.62563e-06
4.65803e-06
4.68847e-06
4.71687e-06
4.74316e-06
4.76727e-06
4.78914e-06
4.80872e-06
4.82597e-06
4.84083e-06
4.85328e-06
4.86327e-06
4.87079e-06
4.87581e-06
4.87832e-06
4.87832e-06
4.87581e-06
4.87079e-06
4.86327e-06
4.85328e-06
4.84083e-06
4.82597e-06
4.80872e-06
4.78914e-06
4.04304e-06
4.08985e-06
4.13477e-06
4.17849e-06
4.22097e-06
4.26213e-06
4.30191e-06
4.34021e-06
4.37696e-06
4.41206e-06
4.44542e-06
4.47695e-06
4.50658e-06
4.53421e-06
4.5598e-06
4.58327e-06
4.60456e-06
4.62362e-06
4.64041e-06
4.65488e-06
4.667e-06
4.67673e-06
4.68404e-06
4.68893e-06
4.69138e-06
4.69138e-06
4.68893e-06
4.68404e-06
4.67673e-06
4.667e-06
4.65488e-06
4.64041e-06
4.62362e-06
4.60456e-06
4.58327e-06
4.5598e-06
4.53421e-06
4.50658e-06
4.47695e-06
4.44542e-06
4.41206e-06
3.87657e-06
3.92199e-06
3.96561e-06
4.00807e-06
4.04932e-06
4.08931e-06
4.12796e-06
4.16519e-06
4.2009e-06
4.23502e-06
4.26745e-06
4.29811e-06
4.32691e-06
4.35379e-06
4.37867e-06
4.40149e-06
4.4222e-06
4.44074e-06
4.45707e-06
4.47114e-06
4.48293e-06
4.4924e-06
4.49952e-06
4.50427e-06
4.50665e-06
4.50665e-06
4.50427e-06
4.49952e-06
4.4924e-06
4.48293e-06
4.47114e-06
4.45707e-06
4.44074e-06
4.4222e-06
4.40149e-06
4.37867e-06
4.35379e-06
4.32691e-06
4.29811e-06
4.26745e-06
4.23502e-06
4.2009e-06
4.16519e-06
4.12796e-06
3.71241e-06
3.75644e-06
3.79876e-06
3.83996e-06
3.87999e-06
3.9188e-06
3.95631e-06
3.99246e-06
4.02714e-06
4.06027e-06
4.09177e-06
4.12155e-06
4.14953e-06
4.17564e-06
4.19981e-06
4.22199e-06
4.24211e-06
4.26013e-06
4.276e-06
4.28968e-06
4.30113e-06
4.31033e-06
4.31725e-06
4.32188e-06
4.32419e-06
4.32419e-06
4.32188e-06
4.31725e-06
4.31033e-06
4.30113e-06
4.28968e-06
4.276e-06
4.26013e-06
4.24211e-06
4.22199e-06
4.19981e-06
4.17564e-06
4.14953e-06
4.12155e-06
4.09177e-06
4.06027e-06
4.02714e-06
3.99246e-06
3.95631e-06
3.55062e-06
3.59326e-06
3.63428e-06
3.6742e-06
3.71301e-06
3.75064e-06
3.78702e-06
3.82208e-06
3.85573e-06
3.88787e-06
3.91844e-06
3.94734e-06
3.97449e-06
3.99983e-06
4.02329e-06
4.04482e-06
4.06435e-06
4.08185e-06
4.09725e-06
4.11054e-06
4.12166e-06
4.13059e-06
4.13731e-06
4.1418e-06
4.14405e-06
4.14405e-06
4.1418e-06
4.13731e-06
4.13059e-06
4.12166e-06
4.11054e-06
4.09725e-06
4.08185e-06
4.06435e-06
4.04482e-06
4.02329e-06
3.99983e-06
3.97449e-06
3.94734e-06
3.91844e-06
3.88787e-06
3.85572e-06
3.82208e-06
3.78702e-06
3.39125e-06
3.43251e-06
3.47222e-06
3.51087e-06
3.54846e-06
3.5849e-06
3.62015e-06
3.65411e-06
3.68672e-06
3.71788e-06
3.74751e-06
3.77552e-06
3.80185e-06
3.82642e-06
3.84917e-06
3.87004e-06
3.88898e-06
3.90595e-06
3.92089e-06
3.93378e-06
3.94456e-06
3.95323e-06
3.95975e-06
3.96411e-06
3.96629e-06
3.96629e-06
3.96411e-06
3.95975e-06
3.95323e-06
3.94456e-06
3.93378e-06
3.92089e-06
3.90595e-06
3.88898e-06
3.87004e-06
3.84917e-06
3.82642e-06
3.80185e-06
3.77552e-06
3.74751e-06
3.71788e-06
3.68672e-06
3.65411e-06
3.62015e-06
3.23437e-06
3.27424e-06
3.31264e-06
3.35002e-06
3.38638e-06
3.42164e-06
3.45575e-06
3.48862e-06
3.52018e-06
3.55035e-06
3.57904e-06
3.60617e-06
3.63166e-06
3.65546e-06
3.6775e-06
3.69771e-06
3.71606e-06
3.7325e-06
3.74698e-06
3.75946e-06
3.76992e-06
3.77831e-06
3.78463e-06
3.78885e-06
3.79096e-06
3.79096e-06
3.78885e-06
3.78463e-06
3.77831e-06
3.76992e-06
3.75946e-06
3.74698e-06
3.7325e-06
3.71606e-06
3.69771e-06
3.6775e-06
3.65546e-06
3.63166e-06
3.60617e-06
3.57904e-06
3.55035e-06
3.52018e-06
3.48862e-06
3.45575e-06
3.42164e-06
3.08003e-06
3.11852e-06
3.1556e-06
3.19171e-06
3.22684e-06
3.26092e-06
3.29388e-06
3.32566e-06
3.35618e-06
3.38535e-06
3.4131e-06
3.43934e-06
3.464e-06
3.48702e-06
3.50834e-06
3.5279e-06
3.54566e-06
3.56157e-06
3.57558e-06
3.58766e-06
3.59778e-06
3.6059e-06
3.61202e-06
3.6161e-06
3.61815e-06
3.61815e-06
3.6161e-06
3.61202e-06
3.6059e-06
3.59778e-06
3.58766e-06
3.57558e-06
3.56157e-06
3.54566e-06
3.5279e-06
3.50834e-06
3.48702e-06
3.464e-06
3.43934e-06
3.4131e-06
3.38535e-06
3.35618e-06
3.32566e-06
3.29388e-06
3.26092e-06
2.9283e-06
2.96541e-06
3.00117e-06
3.03602e-06
3.06991e-06
3.1028e-06
3.13462e-06
3.16531e-06
3.19478e-06
3.22295e-06
3.24975e-06
3.2751e-06
3.29893e-06
3.32118e-06
3.34178e-06
3.36068e-06
3.37784e-06
3.39321e-06
3.40676e-06
3.41844e-06
3.42822e-06
3.43607e-06
3.44199e-06
3.44594e-06
3.44791e-06
3.44791e-06
3.44594e-06
3.44199e-06
3.43607e-06
3.42822e-06
3.41844e-06
3.40676e-06
3.39321e-06
3.37784e-06
3.36068e-06
3.34178e-06
3.32118e-06
3.29893e-06
3.2751e-06
3.24975e-06
3.22295e-06
3.19477e-06
3.16531e-06
3.13462e-06
3.1028e-06
2.77925e-06
2.81497e-06
2.84943e-06
2.88299e-06
2.91566e-06
2.94736e-06
2.97803e-06
3.00762e-06
3.03604e-06
3.06322e-06
3.08908e-06
3.11353e-06
3.13653e-06
3.15799e-06
3.17787e-06
3.19611e-06
3.21268e-06
3.22752e-06
3.24059e-06
3.25187e-06
3.26131e-06
3.26889e-06
3.2746e-06
3.27842e-06
3.28032e-06
3.28032e-06
3.27842e-06
3.2746e-06
3.26889e-06
3.26131e-06
3.25187e-06
3.24059e-06
3.22752e-06
3.21268e-06
3.19611e-06
3.17787e-06
3.15799e-06
3.13653e-06
3.11353e-06
3.08908e-06
3.06322e-06
3.03604e-06
3.00762e-06
2.97803e-06
2.94736e-06
2.63296e-06
2.66729e-06
2.70043e-06
2.73273e-06
2.76416e-06
2.79467e-06
2.8242e-06
2.85269e-06
2.88006e-06
2.90623e-06
2.93114e-06
2.95471e-06
2.97686e-06
2.99754e-06
3.0167e-06
3.03428e-06
3.05025e-06
3.06455e-06
3.07716e-06
3.08803e-06
3.09713e-06
3.10444e-06
3.10995e-06
3.11362e-06
3.11546e-06
3.11546e-06
3.11362e-06
3.10995e-06
3.10444e-06
3.09713e-06
3.08802e-06
3.07716e-06
3.06455e-06
3.05025e-06
3.03428e-06
3.0167e-06
2.99754e-06
2.97686e-06
2.95471e-06
2.93114e-06
2.90623e-06
2.88006e-06
2.85269e-06
2.8242e-06
2.48949e-06
2.52244e-06
2.55427e-06
2.58529e-06
2.61548e-06
2.6448e-06
2.67319e-06
2.70058e-06
2.7269e-06
2.75207e-06
2.77603e-06
2.7987e-06
2.82001e-06
2.83991e-06
2.85835e-06
2.87527e-06
2.89063e-06
2.9044e-06
2.91653e-06
2.927e-06
2.93576e-06
2.9428e-06
2.9481e-06
2.95164e-06
2.95341e-06
2.95341e-06
2.95164e-06
2.9481e-06
2.9428e-06
2.93576e-06
2.927e-06
2.91653e-06
2.9044e-06
2.89063e-06
2.87527e-06
2.85835e-06
2.83991e-06
2.82001e-06
2.7987e-06
2.77603e-06
2.75207e-06
2.7269e-06
2.70058e-06
2.67319e-06
2.34893e-06
2.38051e-06
2.41102e-06
2.44076e-06
2.46973e-06
2.49786e-06
2.5251e-06
2.55139e-06
2.57665e-06
2.60082e-06
2.62383e-06
2.6456e-06
2.66607e-06
2.68519e-06
2.7029e-06
2.71916e-06
2.73392e-06
2.74715e-06
2.75881e-06
2.76887e-06
2.77729e-06
2.78406e-06
2.78915e-06
2.79255e-06
2.79426e-06
2.79426e-06
2.79255e-06
2.78915e-06
2.78406e-06
2.77729e-06
2.76887e-06
2.75881e-06
2.74715e-06
2.73392e-06
2.71916e-06
2.7029e-06
2.68519e-06
2.66607e-06
2.6456e-06
2.62383e-06
2.60082e-06
2.57665e-06
2.55138e-06
2.5251e-06
2.21136e-06
2.24156e-06
2.27076e-06
2.29924e-06
2.32697e-06
2.35391e-06
2.38e-06
2.40519e-06
2.4294e-06
2.45257e-06
2.47463e-06
2.4955e-06
2.51513e-06
2.53346e-06
2.55044e-06
2.56604e-06
2.5802e-06
2.59289e-06
2.60408e-06
2.61373e-06
2.62181e-06
2.6283e-06
2.63319e-06
2.63646e-06
2.63809e-06
2.63809e-06
2.63646e-06
2.63319e-06
2.6283e-06
2.62181e-06
2.61373e-06
2.60408e-06
2.59289e-06
2.5802e-06
2.56604e-06
2.55044e-06
2.53346e-06
2.51513e-06
2.4955e-06
2.47463e-06
2.45257e-06
2.4294e-06
2.40519e-06
2.38e-06
2.07688e-06
2.10571e-06
2.1336e-06
2.1608e-06
2.1873e-06
2.21305e-06
2.238e-06
2.26209e-06
2.28525e-06
2.30741e-06
2.32851e-06
2.34849e-06
2.36728e-06
2.38482e-06
2.40108e-06
2.41601e-06
2.42957e-06
2.44172e-06
2.45243e-06
2.46167e-06
2.46942e-06
2.47564e-06
2.48032e-06
2.48344e-06
2.48501e-06
2.48501e-06
2.48344e-06
2.48032e-06
2.47564e-06
2.46942e-06
2.46167e-06
2.45243e-06
2.44172e-06
2.42957e-06
2.41601e-06
2.40108e-06
2.38482e-06
2.36728e-06
2.34849e-06
2.32851e-06
2.30741e-06
2.28525e-06
2.26209e-06
2.238e-06
1.94558e-06
1.97304e-06
1.99962e-06
2.02555e-06
2.05082e-06
2.07539e-06
2.09919e-06
2.12218e-06
2.14428e-06
2.16545e-06
2.1856e-06
2.20467e-06
2.22262e-06
2.23938e-06
2.25491e-06
2.26917e-06
2.28213e-06
2.29374e-06
2.30398e-06
2.31281e-06
2.32021e-06
2.32616e-06
2.33063e-06
2.33362e-06
2.33512e-06
2.33512e-06
2.33362e-06
2.33063e-06
2.32616e-06
2.32021e-06
2.31281e-06
2.30398e-06
2.29374e-06
2.28213e-06
2.26917e-06
2.25491e-06
2.23938e-06
2.22262e-06
2.20467e-06
2.1856e-06
2.16545e-06
2.14428e-06
2.12218e-06
2.09919e-06
1.81755e-06
1.84364e-06
1.86892e-06
1.89359e-06
1.91764e-06
1.94102e-06
1.96368e-06
1.98557e-06
2.00662e-06
2.02678e-06
2.04598e-06
2.06416e-06
2.08126e-06
2.09723e-06
2.11204e-06
2.12564e-06
2.13799e-06
2.14907e-06
2.15883e-06
2.16725e-06
2.17431e-06
2.17998e-06
2.18425e-06
2.1871e-06
2.18853e-06
2.18853e-06
2.1871e-06
2.18425e-06
2.17998e-06
2.17431e-06
2.16725e-06
2.15883e-06
2.14907e-06
2.13799e-06
2.12564e-06
2.11204e-06
2.09723e-06
2.08126e-06
2.06416e-06
2.04598e-06
2.02678e-06
2.00662e-06
1.98557e-06
1.96368e-06
1.6929e-06
1.71764e-06
1.74161e-06
1.76502e-06
1.78785e-06
1.81005e-06
1.83157e-06
1.85236e-06
1.87237e-06
1.89152e-06
1.90977e-06
1.92706e-06
1.94332e-06
1.95851e-06
1.97259e-06
1.98552e-06
1.99727e-06
2.00781e-06
2.0171e-06
2.02511e-06
2.03183e-06
2.03723e-06
2.04129e-06
2.044e-06
2.04536e-06
2.04536e-06
2.044e-06
2.04129e-06
2.03723e-06
2.03183e-06
2.02511e-06
2.0171e-06
2.00781e-06
1.99727e-06
1.98552e-06
1.97259e-06
1.95851e-06
1.94332e-06
1.92706e-06
1.90977e-06
1.89152e-06
1.87237e-06
1.85236e-06
1.83157e-06
1.57173e-06
1.59512e-06
1.61781e-06
1.63996e-06
1.66157e-06
1.68259e-06
1.70298e-06
1.72268e-06
1.74164e-06
1.7598e-06
1.7771e-06
1.79349e-06
1.80891e-06
1.82331e-06
1.83667e-06
1.84894e-06
1.86009e-06
1.87009e-06
1.87891e-06
1.88651e-06
1.89289e-06
1.89801e-06
1.90187e-06
1.90444e-06
1.90573e-06
1.90573e-06
1.90444e-06
1.90187e-06
1.89801e-06
1.89289e-06
1.88651e-06
1.87891e-06
1.87009e-06
1.86009e-06
1.84894e-06
1.83667e-06
1.82331e-06
1.80891e-06
1.79349e-06
1.7771e-06
1.7598e-06
1.74164e-06
1.72268e-06
1.70298e-06
1.45417e-06
1.47622e-06
1.49762e-06
1.51853e-06
1.53893e-06
1.55878e-06
1.57803e-06
1.59664e-06
1.61456e-06
1.63172e-06
1.64808e-06
1.66357e-06
1.67816e-06
1.69178e-06
1.70442e-06
1.71603e-06
1.72658e-06
1.73604e-06
1.74438e-06
1.75158e-06
1.75762e-06
1.76247e-06
1.76612e-06
1.76856e-06
1.76978e-06
1.76978e-06
1.76856e-06
1.76612e-06
1.76247e-06
1.75762e-06
1.75158e-06
1.74438e-06
1.73604e-06
1.72658e-06
1.71603e-06
1.70442e-06
1.69178e-06
1.67816e-06
1.66357e-06
1.64808e-06
1.63172e-06
1.61456e-06
1.59664e-06
1.57803e-06
1.34033e-06
1.36105e-06
1.38117e-06
1.40084e-06
1.42004e-06
1.43872e-06
1.45685e-06
1.47438e-06
1.49125e-06
1.50743e-06
1.52284e-06
1.53745e-06
1.5512e-06
1.56405e-06
1.57596e-06
1.58691e-06
1.59687e-06
1.60579e-06
1.61367e-06
1.62046e-06
1.62615e-06
1.63073e-06
1.63418e-06
1.63648e-06
1.63763e-06
1.63763e-06
1.63648e-06
1.63418e-06
1.63073e-06
1.62615e-06
1.62046e-06
1.61367e-06
1.60579e-06
1.59687e-06
1.58691e-06
1.57596e-06
1.56405e-06
1.5512e-06
1.53745e-06
1.52284e-06
1.50743e-06
1.49125e-06
1.47438e-06
1.45685e-06
1.43872e-06
1.23031e-06
1.24972e-06
1.26858e-06
1.28702e-06
1.30503e-06
1.32255e-06
1.33956e-06
1.35602e-06
1.37186e-06
1.38705e-06
1.40153e-06
1.41526e-06
1.42817e-06
1.44025e-06
1.45145e-06
1.46174e-06
1.4711e-06
1.47949e-06
1.4869e-06
1.49329e-06
1.49864e-06
1.50295e-06
1.50619e-06
1.50836e-06
1.50944e-06
1.50944e-06
1.50836e-06
1.50619e-06
1.50295e-06
1.49864e-06
1.49329e-06
1.4869e-06
1.47949e-06
1.4711e-06
1.46174e-06
1.45145e-06
1.44025e-06
1.42817e-06
1.41526e-06
1.40153e-06
1.38705e-06
1.37186e-06
1.35602e-06
1.33956e-06
1.32255e-06
1.12423e-06
1.14234e-06
1.15996e-06
1.17719e-06
1.19401e-06
1.21039e-06
1.2263e-06
1.24169e-06
1.25651e-06
1.27072e-06
1.28428e-06
1.29713e-06
1.30922e-06
1.32053e-06
1.33102e-06
1.34066e-06
1.34943e-06
1.35729e-06
1.36423e-06
1.37022e-06
1.37524e-06
1.37927e-06
1.38231e-06
1.38434e-06
1.38536e-06
1.38536e-06
1.38434e-06
1.38231e-06
1.37927e-06
1.37524e-06
1.37022e-06
1.36423e-06
1.35729e-06
1.34943e-06
1.34066e-06
1.33102e-06
1.32053e-06
1.30922e-06
1.29713e-06
1.28428e-06
1.27072e-06
1.25651e-06
1.24169e-06
1.2263e-06
1.21039e-06
1.02209e-06
1.03896e-06
1.05537e-06
1.07144e-06
1.0871e-06
1.10235e-06
1.11717e-06
1.13151e-06
1.14532e-06
1.15857e-06
1.17122e-06
1.1832e-06
1.19448e-06
1.20503e-06
1.21481e-06
1.22381e-06
1.23199e-06
1.23933e-06
1.2458e-06
1.25139e-06
1.25608e-06
1.25985e-06
1.26269e-06
1.26458e-06
1.26553e-06
1.26553e-06
1.26458e-06
1.26269e-06
1.25985e-06
1.25608e-06
1.25139e-06
1.2458e-06
1.23933e-06
1.23199e-06
1.22381e-06
1.21481e-06
1.20503e-06
1.19448e-06
1.1832e-06
1.17122e-06
1.15857e-06
1.14532e-06
1.13151e-06
1.11717e-06
1.10235e-06
9.23562e-07
9.3932e-07
9.54677e-07
9.69714e-07
9.84249e-07
9.98412e-07
1.01218e-06
1.0255e-06
1.03834e-06
1.05067e-06
1.06242e-06
1.07357e-06
1.08406e-06
1.09386e-06
1.10295e-06
1.11131e-06
1.11891e-06
1.12573e-06
1.13176e-06
1.13695e-06
1.14131e-06
1.14482e-06
1.14745e-06
1.14922e-06
1.1501e-06
1.1501e-06
1.14922e-06
1.14745e-06
1.14482e-06
1.14131e-06
1.13695e-06
1.13176e-06
1.12573e-06
1.11891e-06
1.11131e-06
1.10295e-06
1.09386e-06
1.08406e-06
1.07357e-06
1.06242e-06
1.05067e-06
1.03834e-06
1.0255e-06
1.01218e-06
8.25943e-07
8.41413e-07
8.5654e-07
8.71348e-07
8.84879e-07
8.98071e-07
9.10897e-07
9.23321e-07
9.35301e-07
9.46799e-07
9.57775e-07
9.68186e-07
9.7793e-07
9.87e-07
9.95418e-07
1.00316e-06
1.01021e-06
1.01653e-06
1.02211e-06
1.02693e-06
1.03097e-06
1.03422e-06
1.03667e-06
1.0383e-06
1.03912e-06
1.03912e-06
1.0383e-06
1.03667e-06
1.03422e-06
1.03097e-06
1.02693e-06
1.02211e-06
1.01653e-06
1.01021e-06
1.00316e-06
9.95419e-07
9.87e-07
9.77929e-07
9.68186e-07
9.57775e-07
9.46799e-07
9.35301e-07
9.2332e-07
9.10897e-07
7.29086e-07
7.4333e-07
7.57271e-07
7.7094e-07
7.84247e-07
7.97226e-07
8.09844e-07
8.22064e-07
8.33846e-07
8.45151e-07
8.55942e-07
8.66179e-07
8.75442e-07
8.83862e-07
8.91681e-07
8.98875e-07
9.05421e-07
9.11298e-07
9.16486e-07
9.20965e-07
9.24722e-07
9.27744e-07
9.30019e-07
9.3154e-07
9.32302e-07
9.32302e-07
9.3154e-07
9.30019e-07
9.27744e-07
9.24722e-07
9.20965e-07
9.16485e-07
9.11298e-07
9.05421e-07
8.98875e-07
8.91681e-07
8.83862e-07
8.75442e-07
8.66179e-07
8.55942e-07
8.45151e-07
8.33846e-07
8.22064e-07
8.09844e-07
6.3676e-07
6.49769e-07
6.62512e-07
6.75018e-07
6.87206e-07
6.99101e-07
7.10672e-07
7.21884e-07
7.327e-07
7.43084e-07
7.52999e-07
7.6241e-07
7.71254e-07
7.79513e-07
7.87183e-07
7.94241e-07
8.00663e-07
8.06427e-07
8.11514e-07
8.15908e-07
8.19592e-07
8.22554e-07
8.24785e-07
8.26276e-07
8.27023e-07
8.27023e-07
8.26276e-07
8.24785e-07
8.22554e-07
8.19592e-07
8.15908e-07
8.11514e-07
8.06427e-07
8.00663e-07
7.94241e-07
7.87183e-07
7.79513e-07
7.71254e-07
7.6241e-07
7.52999e-07
7.43084e-07
7.327e-07
7.21884e-07
7.10672e-07
5.49369e-07
5.61133e-07
5.7267e-07
5.84002e-07
5.9506e-07
6.0586e-07
6.16373e-07
6.26567e-07
6.36407e-07
6.45858e-07
6.54889e-07
6.63464e-07
6.71528e-07
6.79065e-07
6.86066e-07
6.9251e-07
6.98376e-07
7.03643e-07
7.08292e-07
7.12308e-07
7.15676e-07
7.18385e-07
7.20425e-07
7.21789e-07
7.22472e-07
7.22472e-07
7.21789e-07
7.20425e-07
7.18385e-07
7.15676e-07
7.12308e-07
7.08292e-07
7.03643e-07
6.98376e-07
6.9251e-07
6.86066e-07
6.79065e-07
6.71528e-07
6.63464e-07
6.54889e-07
6.45858e-07
6.36406e-07
6.26567e-07
6.16373e-07
4.67357e-07
4.77871e-07
4.88195e-07
4.98347e-07
5.08265e-07
5.17961e-07
5.27408e-07
5.36574e-07
5.45428e-07
5.53939e-07
5.62076e-07
5.69807e-07
5.77084e-07
5.83889e-07
5.90214e-07
5.96039e-07
6.01342e-07
6.06106e-07
6.10312e-07
6.13946e-07
6.16995e-07
6.19447e-07
6.21294e-07
6.22529e-07
6.23148e-07
6.23148e-07
6.22529e-07
6.21294e-07
6.19447e-07
6.16995e-07
6.13946e-07
6.10312e-07
6.06106e-07
6.01342e-07
5.96039e-07
5.90214e-07
5.83889e-07
5.77084e-07
5.69807e-07
5.62076e-07
5.53939e-07
5.45428e-07
5.36574e-07
5.27408e-07
3.912e-07
4.00465e-07
4.09575e-07
4.18544e-07
4.27319e-07
4.35906e-07
4.44281e-07
4.52414e-07
4.60278e-07
4.67842e-07
4.7508e-07
4.81962e-07
4.88445e-07
4.94513e-07
5.00156e-07
5.05354e-07
5.1009e-07
5.14346e-07
5.18105e-07
5.21353e-07
5.24079e-07
5.26273e-07
5.27925e-07
5.2903e-07
5.29583e-07
5.29583e-07
5.2903e-07
5.27925e-07
5.26273e-07
5.24079e-07
5.21353e-07
5.18105e-07
5.14346e-07
5.1009e-07
5.05354e-07
5.00156e-07
4.94513e-07
4.88445e-07
4.81962e-07
4.7508e-07
4.67842e-07
4.60278e-07
4.52414e-07
4.44281e-07
3.21387e-07
3.29413e-07
3.37317e-07
3.45109e-07
3.52745e-07
3.60226e-07
3.67531e-07
3.74632e-07
3.81505e-07
3.88123e-07
3.94461e-07
4.00492e-07
4.0618e-07
4.11507e-07
4.16465e-07
4.21036e-07
4.25202e-07
4.28946e-07
4.32256e-07
4.35117e-07
4.37519e-07
4.39452e-07
4.40908e-07
4.41882e-07
4.4237e-07
4.4237e-07
4.41882e-07
4.40908e-07
4.39452e-07
4.37519e-07
4.35117e-07
4.32256e-07
4.28946e-07
4.25202e-07
4.21036e-07
4.16465e-07
4.11507e-07
4.0618e-07
4.00492e-07
3.94461e-07
3.88123e-07
3.81505e-07
3.74632e-07
3.67531e-07
2.58397e-07
2.65207e-07
2.71926e-07
2.7856e-07
2.85072e-07
2.91461e-07
2.97707e-07
3.03788e-07
3.09679e-07
3.15359e-07
3.20803e-07
3.2599e-07
3.30886e-07
3.35476e-07
3.39752e-07
3.43696e-07
3.47293e-07
3.50529e-07
3.5339e-07
3.55865e-07
3.57943e-07
3.59615e-07
3.60876e-07
3.61719e-07
3.62142e-07
3.62142e-07
3.61719e-07
3.60876e-07
3.59615e-07
3.57943e-07
3.55865e-07
3.5339e-07
3.50529e-07
3.47293e-07
3.43696e-07
3.39752e-07
3.35476e-07
3.30886e-07
3.2599e-07
3.20803e-07
3.15359e-07
3.09679e-07
3.03788e-07
2.97707e-07
2.91461e-07
2.02654e-07
2.08291e-07
2.13863e-07
2.19374e-07
2.24793e-07
2.30119e-07
2.35333e-07
2.40417e-07
2.45349e-07
2.5011e-07
2.54679e-07
2.59037e-07
2.63155e-07
2.67021e-07
2.70625e-07
2.73953e-07
2.7699e-07
2.79723e-07
2.82142e-07
2.84234e-07
2.85992e-07
2.87408e-07
2.88475e-07
2.89189e-07
2.89547e-07
2.89547e-07
2.89189e-07
2.88475e-07
2.87408e-07
2.85992e-07
2.84234e-07
2.82142e-07
2.79723e-07
2.7699e-07
2.73953e-07
2.70625e-07
2.67021e-07
2.63155e-07
2.59037e-07
2.54679e-07
2.5011e-07
2.45349e-07
2.40417e-07
2.35333e-07
2.30119e-07
1.54468e-07
1.58997e-07
1.63482e-07
1.67928e-07
1.72308e-07
1.76619e-07
1.80848e-07
1.84977e-07
1.8899e-07
1.92868e-07
1.96596e-07
2.00155e-07
2.03524e-07
2.0669e-07
2.09644e-07
2.12374e-07
2.14868e-07
2.17115e-07
2.19104e-07
2.20826e-07
2.22273e-07
2.23439e-07
2.24318e-07
2.24907e-07
2.25201e-07
2.25201e-07
2.24907e-07
2.24318e-07
2.23439e-07
2.22273e-07
2.20826e-07
2.19103e-07
2.17115e-07
2.14868e-07
2.12374e-07
2.09644e-07
2.0669e-07
2.03524e-07
2.00155e-07
1.96596e-07
1.92868e-07
1.8899e-07
1.84977e-07
1.80848e-07
1.76619e-07
1.13966e-07
1.17479e-07
1.20966e-07
1.24428e-07
1.27847e-07
1.31218e-07
1.34531e-07
1.37771e-07
1.40924e-07
1.43977e-07
1.46916e-07
1.49726e-07
1.5239e-07
1.54896e-07
1.57237e-07
1.59403e-07
1.61383e-07
1.63169e-07
1.64751e-07
1.66121e-07
1.67274e-07
1.68203e-07
1.68903e-07
1.69373e-07
1.69608e-07
1.69608e-07
1.69373e-07
1.68903e-07
1.68203e-07
1.67274e-07
1.66121e-07
1.64751e-07
1.63169e-07
1.61383e-07
1.59403e-07
1.57237e-07
1.54896e-07
1.5239e-07
1.49726e-07
1.46916e-07
1.43977e-07
1.40924e-07
1.37771e-07
1.34531e-07
1.31218e-07
1.27847e-07
8.10296e-08
8.36448e-08
8.62457e-08
8.88339e-08
9.13946e-08
9.3925e-08
9.64158e-08
9.88564e-08
1.01236e-07
1.03543e-07
1.05768e-07
1.07898e-07
1.0992e-07
1.11825e-07
1.13607e-07
1.15258e-07
1.16768e-07
1.18131e-07
1.1934e-07
1.20388e-07
1.21269e-07
1.2198e-07
1.22517e-07
1.22876e-07
1.23056e-07
1.23056e-07
1.22876e-07
1.22517e-07
1.2198e-07
1.21269e-07
1.20388e-07
1.1934e-07
1.18131e-07
1.16768e-07
1.15258e-07
1.13607e-07
1.11825e-07
1.0992e-07
1.07898e-07
1.05768e-07
1.03543e-07
1.01236e-07
9.88563e-08
9.64158e-08
9.3925e-08
9.13946e-08
5.5248e-08
5.7105e-08
5.89555e-08
6.08005e-08
6.26296e-08
6.44405e-08
6.62262e-08
6.79791e-08
6.9691e-08
7.13538e-08
7.29592e-08
7.4499e-08
7.59626e-08
7.73435e-08
7.86366e-08
7.98356e-08
8.09341e-08
8.19263e-08
8.28067e-08
8.35706e-08
8.42137e-08
8.47326e-08
8.51242e-08
8.53866e-08
8.55181e-08
8.55181e-08
8.53866e-08
8.51242e-08
8.47325e-08
8.42137e-08
8.35706e-08
8.28067e-08
8.19263e-08
8.09341e-08
7.98356e-08
7.86366e-08
7.73435e-08
7.59625e-08
7.4499e-08
7.29592e-08
7.13538e-08
6.9691e-08
6.79791e-08
6.62262e-08
6.44405e-08
6.26296e-08
6.08005e-08
3.59262e-08
3.71756e-08
3.84228e-08
3.96686e-08
4.09059e-08
4.2133e-08
4.33452e-08
4.4537e-08
4.57027e-08
4.68368e-08
4.79334e-08
4.89865e-08
4.99889e-08
5.09359e-08
5.18237e-08
5.26478e-08
5.34035e-08
5.40867e-08
5.46934e-08
5.52201e-08
5.56639e-08
5.6022e-08
5.62925e-08
5.64737e-08
5.65646e-08
5.65646e-08
5.64737e-08
5.62925e-08
5.6022e-08
5.56638e-08
5.52201e-08
5.46934e-08
5.40867e-08
5.34035e-08
5.26478e-08
5.18237e-08
5.09359e-08
4.99889e-08
4.89865e-08
4.79333e-08
4.68368e-08
4.57027e-08
4.4537e-08
4.33452e-08
4.21331e-08
4.09059e-08
3.96686e-08
2.21374e-08
2.29282e-08
2.37187e-08
2.45097e-08
2.52965e-08
2.6078e-08
2.6851e-08
2.76122e-08
2.83578e-08
2.90841e-08
2.97873e-08
3.04634e-08
3.11078e-08
3.17172e-08
3.22892e-08
3.28206e-08
3.33083e-08
3.37495e-08
3.41417e-08
3.44823e-08
3.47695e-08
3.50013e-08
3.51765e-08
3.52939e-08
3.53527e-08
3.53527e-08
3.52939e-08
3.51765e-08
3.50013e-08
3.47695e-08
3.44823e-08
3.41417e-08
3.37495e-08
3.33083e-08
3.28205e-08
3.22892e-08
3.17172e-08
3.11078e-08
3.04634e-08
2.97873e-08
2.90841e-08
2.83578e-08
2.76122e-08
2.6851e-08
2.6078e-08
2.52965e-08
2.45097e-08
1.28225e-08
1.32895e-08
1.37569e-08
1.4225e-08
1.46913e-08
1.5155e-08
1.56142e-08
1.60669e-08
1.65109e-08
1.69438e-08
1.73633e-08
1.77672e-08
1.81524e-08
1.85171e-08
1.88597e-08
1.91782e-08
1.94707e-08
1.97356e-08
1.99711e-08
2.01758e-08
2.03484e-08
2.04878e-08
2.05932e-08
2.06638e-08
2.06992e-08
2.06992e-08
2.06638e-08
2.05932e-08
2.04878e-08
2.03484e-08
2.01758e-08
1.99711e-08
1.97356e-08
1.94707e-08
1.91782e-08
1.88597e-08
1.85171e-08
1.81524e-08
1.77672e-08
1.73633e-08
1.69438e-08
1.65109e-08
1.60669e-08
1.56142e-08
1.5155e-08
1.46913e-08
1.4225e-08
6.90791e-09
7.16244e-09
7.41736e-09
7.67292e-09
7.92769e-09
8.18127e-09
8.43263e-09
8.68061e-09
8.92399e-09
9.16151e-09
9.3919e-09
9.61382e-09
9.82567e-09
1.00263e-08
1.0215e-08
1.03904e-08
1.05517e-08
1.06978e-08
1.08277e-08
1.09407e-08
1.1036e-08
1.1113e-08
1.11712e-08
1.12102e-08
1.12298e-08
1.12298e-08
1.12102e-08
1.11712e-08
1.1113e-08
1.1036e-08
1.09407e-08
1.08277e-08
1.06978e-08
1.05517e-08
1.03904e-08
1.0215e-08
1.00263e-08
9.82567e-09
9.61382e-09
9.3919e-09
9.16151e-09
8.92399e-09
8.68061e-09
8.43263e-09
8.18127e-09
7.92769e-09
7.67292e-09
3.41034e-09
3.53651e-09
3.66292e-09
3.7897e-09
3.91616e-09
4.04208e-09
4.16697e-09
4.29025e-09
4.41129e-09
4.52948e-09
4.64418e-09
4.75471e-09
4.86027e-09
4.9603e-09
5.05437e-09
5.14191e-09
5.22239e-09
5.2953e-09
5.36018e-09
5.41661e-09
5.46423e-09
5.5027e-09
5.53179e-09
5.55129e-09
5.56107e-09
5.56107e-09
5.55129e-09
5.53179e-09
5.5027e-09
5.46423e-09
5.41661e-09
5.36018e-09
5.2953e-09
5.22238e-09
5.14191e-09
5.05437e-09
4.9603e-09
4.86027e-09
4.75471e-09
4.64418e-09
4.52948e-09
4.41129e-09
4.29025e-09
4.16697e-09
4.04208e-09
3.91616e-09
3.7897e-09
3.66291e-09
1.50962e-09
1.56526e-09
1.62101e-09
1.67692e-09
1.7327e-09
1.78826e-09
1.84337e-09
1.89777e-09
1.9512e-09
2.00338e-09
2.05402e-09
2.10283e-09
2.14946e-09
2.19365e-09
2.23521e-09
2.2739e-09
2.30947e-09
2.3417e-09
2.37038e-09
2.39533e-09
2.41638e-09
2.4334e-09
2.44626e-09
2.45488e-09
2.45921e-09
2.45921e-09
2.45488e-09
2.44626e-09
2.4334e-09
2.41638e-09
2.39533e-09
2.37038e-09
2.3417e-09
2.30947e-09
2.2739e-09
2.23521e-09
2.19365e-09
2.14946e-09
2.10283e-09
2.05402e-09
2.00338e-09
1.9512e-09
1.89777e-09
1.84337e-09
1.78826e-09
1.7327e-09
1.67692e-09
1.62101e-09
5.79413e-10
6.0051e-10
6.21633e-10
6.42816e-10
6.63942e-10
6.84978e-10
7.0584e-10
7.26433e-10
7.46654e-10
7.66398e-10
7.8556e-10
8.04027e-10
8.21664e-10
8.3838e-10
8.54098e-10
8.68727e-10
8.82178e-10
8.94366e-10
9.05211e-10
9.14645e-10
9.22605e-10
9.29038e-10
9.33901e-10
9.37161e-10
9.38797e-10
9.38797e-10
9.37161e-10
9.33901e-10
9.29038e-10
9.22605e-10
9.14645e-10
9.05211e-10
8.94365e-10
8.82178e-10
8.68727e-10
8.54098e-10
8.3838e-10
8.21664e-10
8.04027e-10
7.8556e-10
7.66398e-10
7.46653e-10
7.26432e-10
7.0584e-10
6.84978e-10
6.63942e-10
6.42816e-10
6.21633e-10
1.82587e-10
1.89081e-10
1.95576e-10
2.02085e-10
2.08572e-10
2.15027e-10
2.21426e-10
2.27738e-10
2.33933e-10
2.39979e-10
2.45844e-10
2.51494e-10
2.56887e-10
2.61997e-10
2.668e-10
2.71269e-10
2.75377e-10
2.79098e-10
2.82409e-10
2.85288e-10
2.87717e-10
2.8968e-10
2.91164e-10
2.92158e-10
2.92657e-10
2.92657e-10
2.92158e-10
2.91164e-10
2.8968e-10
2.87717e-10
2.85288e-10
2.82409e-10
2.79098e-10
2.75377e-10
2.71269e-10
2.668e-10
2.61997e-10
2.56887e-10
2.51494e-10
2.45844e-10
2.39979e-10
2.33933e-10
2.27738e-10
2.21426e-10
2.15027e-10
2.08572e-10
2.02085e-10
1.95576e-10
4.29434e-11
4.44087e-11
4.58716e-11
4.73356e-11
4.87928e-11
5.02411e-11
5.16751e-11
5.30882e-11
5.44738e-11
5.58247e-11
5.7134e-11
5.83942e-11
5.95962e-11
6.0734e-11
6.18028e-11
6.27966e-11
6.37096e-11
6.45362e-11
6.52714e-11
6.59104e-11
6.64494e-11
6.68847e-11
6.72138e-11
6.74343e-11
6.75449e-11
6.75449e-11
6.74343e-11
6.72138e-11
6.68847e-11
6.64493e-11
6.59104e-11
6.52714e-11
6.45362e-11
6.37096e-11
6.27966e-11
6.18028e-11
6.0734e-11
5.95962e-11
5.83942e-11
5.7134e-11
5.58247e-11
5.44738e-11
5.30882e-11
5.1675e-11
5.02411e-11
4.87927e-11
4.73356e-11
4.58715e-11
6.27039e-12
6.46827e-12
6.66517e-12
6.86176e-12
7.05692e-12
7.25048e-12
7.44172e-12
7.62982e-12
7.8139e-12
7.99306e-12
8.16641e-12
8.33298e-12
8.49159e-12
8.64151e-12
8.78215e-12
8.91277e-12
9.03264e-12
9.14107e-12
9.23741e-12
9.3211e-12
9.39163e-12
9.44858e-12
9.4916e-12
9.52043e-12
9.53489e-12
9.53489e-12
9.52043e-12
9.4916e-12
9.44858e-12
9.39163e-12
9.32109e-12
9.23741e-12
9.14106e-12
9.03264e-12
8.91277e-12
8.78215e-12
8.64151e-12
8.49159e-12
8.33298e-12
8.16641e-12
7.99306e-12
7.8139e-12
7.62982e-12
7.44172e-12
7.25048e-12
7.05691e-12
6.86175e-12
6.66517e-12
3.78665e-13
3.88682e-13
3.98583e-13
4.08418e-13
4.1813e-13
4.27719e-13
4.37153e-13
4.46395e-13
4.55405e-13
4.64142e-13
4.72566e-13
4.80634e-13
4.8829e-13
4.95503e-13
5.02252e-13
5.08505e-13
5.1423e-13
5.19398e-13
5.23983e-13
5.27959e-13
5.31306e-13
5.34005e-13
5.36043e-13
5.37407e-13
5.38092e-13
5.38092e-13
5.37407e-13
5.36043e-13
5.34005e-13
5.31306e-13
5.27959e-13
5.23983e-13
5.19398e-13
5.1423e-13
5.08505e-13
5.02252e-13
4.95503e-13
4.8829e-13
4.80634e-13
4.72566e-13
4.64142e-13
4.55405e-13
4.46395e-13
4.37153e-13
4.27719e-13
4.18129e-13
4.08417e-13
3.98583e-13
3.36735e-15
3.42007e-15
3.47126e-15
3.5215e-15
3.57047e-15
3.61834e-15
3.66502e-15
3.71035e-15
3.75418e-15
3.79636e-15
3.83672e-15
3.8751e-15
3.91121e-15
3.94498e-15
3.97639e-15
4.00535e-15
4.03173e-15
4.05545e-15
4.07642e-15
4.09454e-15
4.10975e-15
4.122e-15
4.13122e-15
4.13739e-15
4.14048e-15
4.14048e-15
4.13739e-15
4.13122e-15
4.122e-15
4.10975e-15
4.09454e-15
4.07642e-15
4.05545e-15
4.03173e-15
4.00534e-15
3.97639e-15
3.94498e-15
3.91121e-15
3.8751e-15
3.83672e-15
3.79636e-15
3.75418e-15
3.71035e-15
3.66502e-15
3.61835e-15
3.57047e-15
3.52149e-15
3.47126e-15
4.21179e-06
4.04304e-06
3.87657e-06
3.71241e-06
3.55062e-06
3.39125e-06
3.23437e-06
3.08003e-06
2.9283e-06
2.77925e-06
2.63296e-06
2.48949e-06
2.34893e-06
2.21136e-06
2.07688e-06
1.94558e-06
1.81755e-06
1.6929e-06
1.57173e-06
1.45417e-06
1.34033e-06
1.23031e-06
1.12423e-06
1.02209e-06
9.23562e-07
8.25943e-07
7.29086e-07
6.3676e-07
5.49369e-07
4.67357e-07
3.912e-07
3.21387e-07
2.58397e-07
2.02654e-07
1.54468e-07
1.13966e-07
8.10296e-08
5.5248e-08
3.59262e-08
2.21374e-08
1.28225e-08
6.90791e-09
3.41034e-09
1.50962e-09
5.79413e-10
1.82587e-10
4.29434e-11
6.27039e-12
3.78665e-13
3.36735e-15
4.25998e-06
4.08985e-06
3.92199e-06
3.75644e-06
3.59326e-06
3.43251e-06
3.27424e-06
3.11852e-06
2.96541e-06
2.81497e-06
2.66729e-06
2.52244e-06
2.38051e-06
2.24156e-06
2.10571e-06
1.97304e-06
1.84364e-06
1.71764e-06
1.59512e-06
1.47622e-06
1.36105e-06
1.24972e-06
1.14234e-06
1.03896e-06
9.3932e-07
8.41413e-07
7.4333e-07
6.49769e-07
5.61133e-07
4.77871e-07
4.00465e-07
3.29413e-07
2.65207e-07
2.08291e-07
1.58997e-07
1.17479e-07
8.36448e-08
5.7105e-08
3.71756e-08
2.29282e-08
1.32895e-08
7.16244e-09
3.53651e-09
1.56526e-09
6.0051e-10
1.89081e-10
4.44087e-11
6.46827e-12
3.88682e-13
3.42007e-15
4.3062e-06
4.13477e-06
3.96561e-06
3.79876e-06
3.63428e-06
3.47222e-06
3.31264e-06
3.1556e-06
3.00117e-06
2.84943e-06
2.70043e-06
2.55427e-06
2.41102e-06
2.27076e-06
2.1336e-06
1.99962e-06
1.86892e-06
1.74161e-06
1.61781e-06
1.49762e-06
1.38117e-06
1.26858e-06
1.15996e-06
1.05537e-06
9.54677e-07
8.5654e-07
7.57271e-07
6.62512e-07
5.7267e-07
4.88195e-07
4.09575e-07
3.37317e-07
2.71926e-07
2.13863e-07
1.63482e-07
1.20966e-07
8.62457e-08
5.89555e-08
3.84228e-08
2.37187e-08
1.37569e-08
7.41736e-09
3.66292e-09
1.62101e-09
6.21633e-10
1.95576e-10
4.58716e-11
6.66517e-12
3.98583e-13
3.47126e-15
4.35118e-06
4.17849e-06
4.00807e-06
3.83996e-06
3.6742e-06
3.51087e-06
3.35002e-06
3.19171e-06
3.03602e-06
2.883e-06
2.73273e-06
2.58529e-06
2.44076e-06
2.29924e-06
2.1608e-06
2.02555e-06
1.89359e-06
1.76502e-06
1.63996e-06
1.51853e-06
1.40084e-06
1.28702e-06
1.17719e-06
1.07144e-06
9.69714e-07
8.71348e-07
7.7094e-07
6.75018e-07
5.84002e-07
4.98347e-07
4.18544e-07
3.45109e-07
2.7856e-07
2.19374e-07
1.67928e-07
1.24428e-07
8.88339e-08
6.08005e-08
3.96686e-08
2.45097e-08
1.4225e-08
7.67292e-09
3.7897e-09
1.67692e-09
6.42816e-10
2.02085e-10
4.73356e-11
6.86176e-12
4.08417e-13
3.52149e-15
4.39487e-06
4.22097e-06
4.04932e-06
3.87999e-06
3.71301e-06
3.54846e-06
3.38638e-06
3.22684e-06
3.06991e-06
2.91566e-06
2.76416e-06
2.61548e-06
2.46973e-06