/*--------------------------------*- C++ -*----------------------------------*\
  =========                 |
  \\      /  F ield         | OpenFOAM: The Open Source CFD Toolbox
   \\    /   O peration     | Website:  https://openfoam.org
    \\  /    A nd           | Version:  7
     \\/     M anipulation  |
\*---------------------------------------------------------------------------*/
FoamFile
{
    version     2.0;
    format      ascii;
    class       volScalarField;
    location    "216000";
    object      p;
}
// * * * * * * * * * * * * * * * * * * * * * * * * * * * * * * * * * * * * * //

dimensions      [0 2 -2 0 0 0 0];

internalField   nonuniform List<scalar> 
4783
(
-1.48072e-18
-1.49083e-18
-1.49475e-18
-1.52473e-18
-1.5072e-18
-1.52572e-18
-1.5004e-18
-1.48762e-18
-1.47481e-18
-1.51748e-18
-1.50226e-18
-1.49773e-18
-1.49647e-18
-1.48825e-18
-1.47047e-18
-1.48215e-18
-1.53807e-18
-1.54189e-18
-1.52187e-18
-1.54135e-18
-1.53937e-18
-1.49473e-18
-1.48593e-18
-1.50342e-18
-1.47164e-18
-1.4904e-18
-1.49315e-18
-1.52087e-18
-1.50143e-18
-1.49823e-18
-1.4985e-18
-1.50289e-18
-1.49364e-18
-1.49683e-18
-1.5022e-18
-1.4973e-18
-1.49347e-18
-1.49926e-18
-1.5294e-18
-1.48489e-18
-1.4707e-18
-1.47956e-18
-1.50458e-18
-1.50698e-18
-1.46068e-18
-1.45966e-18
-1.47637e-18
-1.48017e-18
-1.46836e-18
-1.48961e-18
-1.49022e-18
-1.50654e-18
-1.52593e-18
-1.51971e-18
-1.49136e-18
-1.48516e-18
-1.51863e-18
-1.50389e-18
-1.49577e-18
-1.47772e-18
-1.50184e-18
-1.49506e-18
-1.47438e-18
-1.49744e-18
-1.50466e-18
-1.51124e-18
-1.48502e-18
-1.48034e-18
-1.46313e-18
-1.46503e-18
-1.50321e-18
-1.47426e-18
-1.48748e-18
-1.4941e-18
-1.49005e-18
-1.4728e-18
-1.47429e-18
-1.51422e-18
-1.50814e-18
-1.52057e-18
-1.50389e-18
-1.49416e-18
-1.50528e-18
-1.5021e-18
-1.47843e-18
-1.50509e-18
-1.5143e-18
-1.5098e-18
-1.48264e-18
-1.47302e-18
-1.50793e-18
-1.49169e-18
-1.49677e-18
-1.49317e-18
-1.49244e-18
-1.48663e-18
-1.45783e-18
-1.48042e-18
-1.49376e-18
-1.50269e-18
-1.4946e-18
-1.47328e-18
-1.49681e-18
-1.48561e-18
-1.52071e-18
-1.51038e-18
-1.50381e-18
-1.50999e-18
-1.54917e-18
-1.52867e-18
-1.48366e-18
-1.48258e-18
-1.49359e-18
-1.49193e-18
-1.51323e-18
-1.50318e-18
-1.49073e-18
-1.49502e-18
-1.49181e-18
-1.47586e-18
-1.49573e-18
-1.50071e-18
-1.48707e-18
-1.4523e-18
-1.49181e-18
-1.49938e-18
-1.50485e-18
-1.5094e-18
-1.52522e-18
-1.50718e-18
-1.51636e-18
-1.50989e-18
-1.47098e-18
-1.48187e-18
-1.48329e-18
-1.46898e-18
-1.4931e-18
-1.50682e-18
-1.47304e-18
-1.49041e-18
-1.51231e-18
-1.49541e-18
-1.49904e-18
-1.49998e-18
-1.46994e-18
-1.45255e-18
-1.49957e-18
-1.5117e-18
-1.50022e-18
-1.49974e-18
-1.5011e-18
-1.50398e-18
-1.52657e-18
-1.52148e-18
-1.4909e-18
-1.49178e-18
-1.49451e-18
-1.50365e-18
-1.48614e-18
-1.47719e-18
-1.48608e-18
-1.47193e-18
-1.47381e-18
-1.47763e-18
-1.50306e-18
-1.51536e-18
-1.48362e-18
-1.49185e-18
-1.52097e-18
-1.53578e-18
-1.48865e-18
-1.49609e-18
-1.48275e-18
-1.47902e-18
-1.48502e-18
-1.49321e-18
-1.509e-18
-1.5199e-18
-1.50859e-18
-1.49122e-18
-1.47563e-18
-1.51084e-18
-1.51705e-18
-1.51101e-18
-1.49836e-18
-1.50619e-18
-1.49297e-18
-1.49859e-18
-1.51438e-18
-1.4999e-18
-1.48344e-18
-1.50123e-18
-1.49572e-18
-1.50131e-18
-1.50108e-18
-1.48602e-18
-1.48663e-18
-1.50262e-18
-1.49552e-18
-1.5264e-18
-1.47829e-18
-1.48501e-18
-1.48991e-18
-1.50492e-18
-1.47701e-18
-1.49527e-18
-1.49724e-18
-1.47542e-18
-1.45532e-18
-1.47624e-18
-1.50114e-18
-1.49835e-18
-1.49026e-18
-1.50042e-18
-1.50571e-18
-1.50038e-18
-1.5088e-18
-1.52173e-18
-1.50741e-18
-1.51073e-18
-1.48759e-18
-1.48935e-18
-1.48515e-18
-1.48915e-18
-1.49049e-18
-1.47722e-18
-1.45724e-18
-1.49008e-18
-1.49395e-18
-1.48795e-18
-1.47269e-18
-1.49219e-18
-1.49984e-18
-1.50005e-18
-1.48073e-18
-1.51561e-18
-1.54071e-18
-1.50126e-18
-1.5012e-18
-1.50678e-18
-1.49254e-18
-1.52271e-18
-1.49967e-18
-1.47372e-18
-1.48121e-18
-1.48735e-18
-1.50926e-18
-1.52446e-18
-1.50854e-18
-1.49081e-18
-1.49485e-18
-1.49731e-18
-1.49318e-18
-1.50361e-18
-1.52009e-18
-1.51796e-18
-1.49268e-18
-1.49098e-18
-1.5346e-18
-1.4847e-18
-1.48961e-18
-1.50245e-18
-1.48801e-18
-1.51035e-18
-1.47414e-18
-1.49714e-18
-1.48893e-18
-1.46084e-18
-1.49122e-18
-1.49335e-18
-1.49561e-18
-1.47218e-18
-1.48919e-18
-1.49332e-18
-1.49641e-18
-1.5153e-18
-1.52537e-18
-1.50424e-18
-1.49428e-18
-1.49602e-18
-1.50769e-18
-1.48517e-18
-1.51523e-18
-1.50829e-18
-1.50142e-18
-1.50079e-18
-1.48662e-18
-1.49036e-18
-1.50453e-18
-1.50185e-18
-1.5048e-18
-1.47479e-18
-1.48632e-18
-1.4701e-18
-1.47743e-18
-1.47947e-18
-1.48807e-18
-1.49952e-18
-1.51487e-18
-1.49338e-18
-1.48125e-18
-1.49965e-18
-1.51321e-18
-1.49576e-18
-1.50887e-18
-1.50928e-18
-1.51032e-18
-1.52034e-18
-1.50078e-18
-1.48774e-18
-1.47795e-18
-1.49133e-18
-1.48777e-18
-1.48029e-18
-1.47175e-18
-1.49122e-18
-1.50311e-18
-1.49224e-18
-1.48007e-18
-1.49337e-18
-1.47713e-18
-1.47839e-18
-1.49331e-18
-1.50236e-18
-1.49276e-18
-1.4826e-18
-1.50602e-18
-1.50479e-18
-1.48614e-18
-1.48751e-18
-1.50726e-18
-1.49091e-18
-1.46548e-18
-1.454e-18
-1.45606e-18
-1.48618e-18
-1.4789e-18
-1.49539e-18
-1.50408e-18
-1.4914e-18
-1.46184e-18
-1.47776e-18
-1.50214e-18
-1.51668e-18
-1.51374e-18
-1.49001e-18
-1.51321e-18
-1.48122e-18
-1.48383e-18
-1.47929e-18
-1.49746e-18
-1.46765e-18
-1.47797e-18
-1.48826e-18
-1.47028e-18
-1.47566e-18
-1.49141e-18
-1.48375e-18
-1.4818e-18
-1.4727e-18
-1.49245e-18
-1.51675e-18
-1.5022e-18
-1.50189e-18
-1.48675e-18
-1.48326e-18
-1.47422e-18
-1.49167e-18
-1.48473e-18
-1.48937e-18
-1.51338e-18
-1.46351e-18
-1.4989e-18
-1.49617e-18
-1.50614e-18
-1.50413e-18
-1.47759e-18
-1.4882e-18
-1.48913e-18
-1.48204e-18
-1.47666e-18
-1.46684e-18
-1.48051e-18
-1.48429e-18
-1.49391e-18
-1.47936e-18
-1.47836e-18
-1.49765e-18
-1.50858e-18
-1.49783e-18
-1.47982e-18
-1.47083e-18
-1.48103e-18
-1.47733e-18
-1.48004e-18
-1.47992e-18
-1.47148e-18
-1.47709e-18
-1.45806e-18
-1.50435e-18
-1.48005e-18
-1.46657e-18
-1.48408e-18
-1.48157e-18
-1.4818e-18
-1.4854e-18
-1.46078e-18
-1.46082e-18
-1.45714e-18
-1.49079e-18
-1.47875e-18
-1.47694e-18
-1.46964e-18
-1.47728e-18
-1.48898e-18
-1.48269e-18
-1.47945e-18
-1.48264e-18
-1.47688e-18
-1.47653e-18
-1.47867e-18
-1.47132e-18
-1.48495e-18
-1.49361e-18
-1.48346e-18
-1.47721e-18
-1.46376e-18
-1.47971e-18
-1.46718e-18
-1.47885e-18
-1.49204e-18
-1.48106e-18
-1.46663e-18
-1.48156e-18
-1.47459e-18
-1.46339e-18
-1.46974e-18
-1.47389e-18
-1.47511e-18
-1.46647e-18
-1.4699e-18
-1.46263e-18
-1.47433e-18
-1.48606e-18
-1.47323e-18
-1.46506e-18
-1.47737e-18
-1.47985e-18
-1.47979e-18
-1.47335e-18
-1.47767e-18
-1.47503e-18
-1.47492e-18
-1.48029e-18
-1.47626e-18
-1.47434e-18
-1.47902e-18
-1.47314e-18
-1.46635e-18
-1.48308e-18
-1.4626e-18
-1.46011e-18
-1.49347e-18
-1.47421e-18
-1.4705e-18
-1.4735e-18
-1.47536e-18
-1.47567e-18
-1.474e-18
-1.47478e-18
-1.47751e-18
-1.47444e-18
-1.47274e-18
-1.48507e-18
-1.47532e-18
-1.46554e-18
-1.49374e-18
-1.46393e-18
-1.47006e-18
-1.49084e-18
-1.47559e-18
-1.4714e-18
-1.47677e-18
-1.48005e-18
-1.4694e-18
-1.47961e-18
-1.48577e-18
-1.47276e-18
-1.48874e-18
-1.47979e-18
-1.46605e-18
-1.49728e-18
-1.48663e-18
-1.51266e-18
-1.48982e-18
-1.48946e-18
-1.49245e-18
-1.50167e-18
-1.4837e-18
-1.4654e-18
-1.47806e-18
-1.4845e-18
-1.47201e-18
-1.49782e-18
-1.4824e-18
-1.46779e-18
-1.48092e-18
-1.48412e-18
-1.47644e-18
-1.47125e-18
-1.48065e-18
-1.47967e-18
-1.46739e-18
-1.47355e-18
-1.47085e-18
-1.45972e-18
-1.48167e-18
-1.49101e-18
-1.49026e-18
-1.48087e-18
-1.47867e-18
-1.47873e-18
-1.48633e-18
-1.49224e-18
-1.48155e-18
-1.47886e-18
-1.47503e-18
-1.4673e-18
-1.45833e-18
-1.46033e-18
-1.47805e-18
-1.47849e-18
-1.47214e-18
-1.48663e-18
-1.47142e-18
-1.51377e-18
-1.49287e-18
-1.49967e-18
-1.48723e-18
-1.4952e-18
-1.48514e-18
-1.45528e-18
-1.44858e-18
-1.48186e-18
-1.49723e-18
-1.47204e-18
-1.48196e-18
-1.48384e-18
-1.48127e-18
-1.48341e-18
-1.48245e-18
-1.48172e-18
-1.49188e-18
-1.49552e-18
-1.48173e-18
-1.47965e-18
-1.47901e-18
-1.47523e-18
-1.48007e-18
-1.48099e-18
-1.47665e-18
-1.47475e-18
-1.47256e-18
-1.4736e-18
-1.46928e-18
-1.45884e-18
-1.47837e-18
-1.47734e-18
-1.46757e-18
-1.47529e-18
-1.49209e-18
-1.47895e-18
-1.47603e-18
-1.47485e-18
-1.48156e-18
-1.48333e-18
-1.50308e-18
-1.49733e-18
-1.50814e-18
-1.46715e-18
-1.47891e-18
-1.48653e-18
-1.47975e-18
-1.46554e-18
-1.49595e-18
-1.48808e-18
-1.49146e-18
-1.48345e-18
-1.4688e-18
-1.49287e-18
-1.46054e-18
-1.48854e-18
-1.49373e-18
-1.48875e-18
-1.48298e-18
-1.48367e-18
-1.48349e-18
-1.48031e-18
-1.49198e-18
-1.48989e-18
-1.48065e-18
-1.46989e-18
-1.47461e-18
-1.47983e-18
-1.47902e-18
-1.48009e-18
-1.48796e-18
-1.47935e-18
-1.47739e-18
-1.47781e-18
-1.47975e-18
-1.48599e-18
-1.48296e-18
-1.48288e-18
-1.48419e-18
-1.48219e-18
-1.49135e-18
-1.45612e-18
-1.48753e-18
-1.4949e-18
-1.50951e-18
-1.48378e-18
-1.48544e-18
-1.50209e-18
-1.4661e-18
-1.48041e-18
-1.48862e-18
-1.48477e-18
-1.48618e-18
-1.51295e-18
-1.47145e-18
-1.47976e-18
-1.47799e-18
-1.47031e-18
-1.47499e-18
-1.49795e-18
-1.48492e-18
-1.48078e-18
-1.49029e-18
-1.48101e-18
-1.48011e-18
-1.48072e-18
-1.48939e-18
-1.47866e-18
-1.46794e-18
-1.48098e-18
-1.47673e-18
-1.47992e-18
-1.48265e-18
-1.48382e-18
-1.47025e-18
-1.46739e-18
-1.46471e-18
-1.46159e-18
-1.45259e-18
-1.46754e-18
-1.47593e-18
-1.47959e-18
-1.46636e-18
-1.47596e-18
-1.4875e-18
-1.51126e-18
-1.47415e-18
-1.47823e-18
-1.46429e-18
-1.48141e-18
-1.48893e-18
-1.49986e-18
-1.48504e-18
-1.48515e-18
-1.46396e-18
-1.48441e-18
-1.47173e-18
-1.48411e-18
-1.50255e-18
-1.50019e-18
-1.48219e-18
-1.48489e-18
-1.48418e-18
-1.48165e-18
-1.48496e-18
-1.49012e-18
-1.49062e-18
-1.4792e-18
-1.47818e-18
-1.48521e-18
-1.48434e-18
-1.47743e-18
-1.48083e-18
-1.48228e-18
-1.48548e-18
-1.47785e-18
-1.46674e-18
-1.47205e-18
-1.47068e-18
-1.47517e-18
-1.4851e-18
-1.48092e-18
-1.48429e-18
-1.48133e-18
-1.47448e-18
-1.45835e-18
-1.46108e-18
-1.49002e-18
-1.50652e-18
-1.4838e-18
-1.47366e-18
-1.46657e-18
-1.4971e-18
-1.46397e-18
-1.47032e-18
-1.49773e-18
-1.44917e-18
-1.47884e-18
-1.49825e-18
-1.49103e-18
-1.51431e-18
-1.49083e-18
-1.47924e-18
-1.48079e-18
-1.48459e-18
-1.48016e-18
-1.47471e-18
-1.47699e-18
-1.48088e-18
-1.48993e-18
-1.48682e-18
-1.48204e-18
-1.47598e-18
-1.47333e-18
-1.46499e-18
-1.47503e-18
-1.47329e-18
-1.46119e-18
-1.46105e-18
-1.46457e-18
-1.47089e-18
-1.46881e-18
-1.45774e-18
-1.46073e-18
-1.46592e-18
-1.47461e-18
-1.46761e-18
-1.48303e-18
-1.4814e-18
-1.4914e-18
-1.4943e-18
-1.48923e-18
-1.48981e-18
-1.50172e-18
-1.48831e-18
-1.45685e-18
-1.49908e-18
-1.51833e-18
-1.46609e-18
-1.47794e-18
-1.48698e-18
-1.50039e-18
-1.51354e-18
-1.48275e-18
-1.45551e-18
-1.47295e-18
-1.49698e-18
-1.51462e-18
-1.48407e-18
-1.47043e-18
-1.48492e-18
-1.47273e-18
-1.46675e-18
-1.47275e-18
-1.46881e-18
-1.45543e-18
-1.45853e-18
-1.47701e-18
-1.48557e-18
-1.4703e-18
-1.47991e-18
-1.47407e-18
-1.47409e-18
-1.4729e-18
-1.47521e-18
-1.47809e-18
-1.47688e-18
-1.47485e-18
-1.4821e-18
-1.5017e-18
-1.48595e-18
-1.47577e-18
-1.4885e-18
-1.49579e-18
-1.48292e-18
-1.48648e-18
-1.5033e-18
-1.46448e-18
-1.48467e-18
-1.48713e-18
-1.48515e-18
-1.50158e-18
-1.50452e-18
-1.48394e-18
-1.48551e-18
-1.502e-18
-1.50552e-18
-1.48935e-18
-1.49179e-18
-1.50639e-18
-1.48455e-18
-1.46814e-18
-1.47501e-18
-1.47307e-18
-1.462e-18
-1.47261e-18
-1.47333e-18
-1.47309e-18
-1.46459e-18
-1.46907e-18
-1.47031e-18
-1.46724e-18
-1.46162e-18
-1.46589e-18
-1.4685e-18
-1.46882e-18
-1.46878e-18
-1.47302e-18
-1.46118e-18
-1.45894e-18
-1.45819e-18
-1.51519e-18
-1.48562e-18
-1.45517e-18
-1.49405e-18
-1.52406e-18
-1.49108e-18
-1.46682e-18
-1.50608e-18
-1.48032e-18
-1.48284e-18
-1.48309e-18
-1.48354e-18
-1.48764e-18
-1.49876e-18
-1.4738e-18
-1.49598e-18
-1.49761e-18
-1.47268e-18
-1.49182e-18
-1.50882e-18
-1.50631e-18
-1.48747e-18
-1.48604e-18
-1.46519e-18
-1.45455e-18
-1.47164e-18
-1.47382e-18
-1.46651e-18
-1.47132e-18
-1.47113e-18
-1.46839e-18
-1.46228e-18
-1.46137e-18
-1.46558e-18
-1.4644e-18
-1.47594e-18
-1.46844e-18
-1.4674e-18
-1.47593e-18
-1.46692e-18
-1.47023e-18
-1.46654e-18
-1.46908e-18
-1.4788e-18
-1.45999e-18
-1.51141e-18
-1.50371e-18
-1.50473e-18
-1.48693e-18
-1.50311e-18
-1.47357e-18
-1.50438e-18
-1.48967e-18
-1.47995e-18
-1.48523e-18
-1.49688e-18
-1.48281e-18
-1.48153e-18
-1.48338e-18
-1.47665e-18
-1.47825e-18
-1.47087e-18
-1.47801e-18
-1.47729e-18
-1.47691e-18
-1.46916e-18
-1.47698e-18
-1.47451e-18
-1.47619e-18
-1.4748e-18
-1.47601e-18
-1.47587e-18
-1.47162e-18
-1.47169e-18
-1.47213e-18
-1.4688e-18
-1.46824e-18
-1.46879e-18
-1.4747e-18
-1.48714e-18
-1.47951e-18
-1.47304e-18
-1.46272e-18
-1.45196e-18
-1.48296e-18
-1.49212e-18
-1.4925e-18
-1.5082e-18
-1.48976e-18
-1.48855e-18
-1.48398e-18
-1.4784e-18
-1.4867e-18
-1.52599e-18
-1.50959e-18
-1.48834e-18
-1.48252e-18
-1.48769e-18
-1.49499e-18
-1.47347e-18
-1.49267e-18
-1.46617e-18
-1.46242e-18
-1.47359e-18
-1.47694e-18
-1.47221e-18
-1.48488e-18
-1.48442e-18
-1.49115e-18
-1.46929e-18
-1.46465e-18
-1.47108e-18
-1.47382e-18
-1.47278e-18
-1.46694e-18
-1.47726e-18
-1.47416e-18
-1.47348e-18
-1.46857e-18
-1.46151e-18
-1.46885e-18
-1.471e-18
-1.46204e-18
-1.43764e-18
-1.43881e-18
-1.45385e-18
-1.49137e-18
-1.49403e-18
-1.50354e-18
-1.4707e-18
-1.48003e-18
-1.48308e-18
-1.48427e-18
-1.46712e-18
-1.4831e-18
-1.50693e-18
-1.49012e-18
-1.47819e-18
-1.46532e-18
-1.47923e-18
-1.48421e-18
-1.48573e-18
-1.49365e-18
-1.47106e-18
-1.47596e-18
-1.46636e-18
-1.47649e-18
-1.47935e-18
-1.47759e-18
-1.47677e-18
-1.47744e-18
-1.47495e-18
-1.47283e-18
-1.46894e-18
-1.47391e-18
-1.4763e-18
-1.48267e-18
-1.47823e-18
-1.47736e-18
-1.487e-18
-1.46897e-18
-1.46502e-18
-1.46506e-18
-1.45962e-18
-1.47977e-18
-1.48624e-18
-1.47402e-18
-1.47215e-18
-1.46519e-18
-1.49565e-18
-1.48744e-18
-1.47132e-18
-1.47854e-18
-1.49033e-18
-1.49701e-18
-1.51191e-18
-1.49859e-18
-1.46686e-18
-1.48078e-18
-1.48207e-18
-1.46215e-18
-1.45744e-18
-1.46567e-18
-1.50218e-18
-1.51743e-18
-1.50668e-18
-1.5022e-18
-1.49926e-18
-1.48095e-18
-1.48348e-18
-1.49038e-18
-1.48133e-18
-1.4771e-18
-1.47392e-18
-1.46438e-18
-1.47375e-18
-1.48282e-18
-1.47416e-18
-1.46182e-18
-1.46645e-18
-1.46251e-18
-1.46834e-18
-1.46976e-18
-1.46728e-18
-1.46109e-18
-1.464e-18
-1.46372e-18
-1.4639e-18
-1.46992e-18
-1.47027e-18
-1.45964e-18
-1.44935e-18
-1.45093e-18
-1.50446e-18
-1.49457e-18
-1.48515e-18
-1.46634e-18
-1.51283e-18
-1.53382e-18
-1.53031e-18
-1.49087e-18
-1.48535e-18
-1.48381e-18
-1.48086e-18
-1.464e-18
-1.47768e-18
-1.4873e-18
-1.50044e-18
-1.50269e-18
-1.48984e-18
-1.49405e-18
-1.48028e-18
-1.45577e-18
-1.46959e-18
-1.46358e-18
-1.47892e-18
-1.48613e-18
-1.47111e-18
-1.46941e-18
-1.46144e-18
-1.47875e-18
-1.46685e-18
-1.46606e-18
-1.47467e-18
-1.48219e-18
-1.48336e-18
-1.47423e-18
-1.47025e-18
-1.46671e-18
-1.46591e-18
-1.46683e-18
-1.46322e-18
-1.45877e-18
-1.45684e-18
-1.46273e-18
-1.4695e-18
-1.4739e-18
-1.52954e-18
-1.50252e-18
-1.49692e-18
-1.48668e-18
-1.49505e-18
-1.49415e-18
-1.48665e-18
-1.4655e-18
-1.50053e-18
-1.49017e-18
-1.50247e-18
-1.49073e-18
-1.48857e-18
-1.50054e-18
-1.48671e-18
-1.4789e-18
-1.46423e-18
-1.46256e-18
-1.46509e-18
-1.47542e-18
-1.47845e-18
-1.47842e-18
-1.47839e-18
-1.46738e-18
-1.46787e-18
-1.47264e-18
-1.4764e-18
-1.47727e-18
-1.47773e-18
-1.45603e-18
-1.46049e-18
-1.44905e-18
-1.44896e-18
-1.46447e-18
-1.46957e-18
-1.47159e-18
-1.47281e-18
-1.48331e-18
-1.47095e-18
-1.46576e-18
-1.47408e-18
-1.47517e-18
-1.46914e-18
-1.46933e-18
-1.45855e-18
-1.52116e-18
-1.50076e-18
-1.51817e-18
-1.49769e-18
-1.50761e-18
-1.49177e-18
-1.47784e-18
-1.45229e-18
-1.48315e-18
-1.48296e-18
-1.46635e-18
-1.49493e-18
-1.48873e-18
-1.48418e-18
-1.48173e-18
-1.46768e-18
-1.4779e-18
-1.48166e-18
-1.48204e-18
-1.48293e-18
-1.48524e-18
-1.49348e-18
-1.49304e-18
-1.47938e-18
-1.47131e-18
-1.47739e-18
-1.47874e-18
-1.47785e-18
-1.47772e-18
-1.47807e-18
-1.47958e-18
-1.4898e-18
-1.46597e-18
-1.46469e-18
-1.45458e-18
-1.46352e-18
-1.46968e-18
-1.46517e-18
-1.46424e-18
-1.46413e-18
-1.45326e-18
-1.46958e-18
-1.45772e-18
-1.45968e-18
-1.46495e-18
-1.46683e-18
-1.47501e-18
-1.49753e-18
-1.48889e-18
-1.47596e-18
-1.49093e-18
-1.49296e-18
-1.50372e-18
-1.4921e-18
-1.48123e-18
-1.44624e-18
-1.45409e-18
-1.47894e-18
-1.47043e-18
-1.49486e-18
-1.47462e-18
-1.48375e-18
-1.49873e-18
-1.49004e-18
-1.49775e-18
-1.48762e-18
-1.48309e-18
-1.47378e-18
-1.47306e-18
-1.48427e-18
-1.4766e-18
-1.47768e-18
-1.47578e-18
-1.47457e-18
-1.46845e-18
-1.4571e-18
-1.46987e-18
-1.47139e-18
-1.47003e-18
-1.47067e-18
-1.47161e-18
-1.46864e-18
-1.47307e-18
-1.48558e-18
-1.47132e-18
-1.46572e-18
-1.46199e-18
-1.44817e-18
-1.45822e-18
-1.47017e-18
-1.46537e-18
-1.46658e-18
-1.52234e-18
-1.50772e-18
-1.4984e-18
-1.48762e-18
-1.48722e-18
-1.49543e-18
-1.49846e-18
-1.4921e-18
-1.48929e-18
-1.48864e-18
-1.5054e-18
-1.50482e-18
-1.49135e-18
-1.50614e-18
-1.50046e-18
-1.48837e-18
-1.4812e-18
-1.46995e-18
-1.48034e-18
-1.48533e-18
-1.49572e-18
-1.50079e-18
-1.50364e-18
-1.49219e-18
-1.50311e-18
-1.50089e-18
-1.48485e-18
-1.47931e-18
-1.48171e-18
-1.48671e-18
-1.48958e-18
-1.47714e-18
-1.4654e-18
-1.45395e-18
-1.47042e-18
-1.48614e-18
-1.47722e-18
-1.4841e-18
-1.47096e-18
-1.46545e-18
-1.46119e-18
-1.45316e-18
-1.45853e-18
-1.4629e-18
-1.45922e-18
-1.45846e-18
-1.48452e-18
-1.53682e-18
-1.5302e-18
-1.5241e-18
-1.49524e-18
-1.47234e-18
-1.49516e-18
-1.51427e-18
-1.4947e-18
-1.48537e-18
-1.49199e-18
-1.50249e-18
-1.47501e-18
-1.48195e-18
-1.48432e-18
-1.47424e-18
-1.47775e-18
-1.46559e-18
-1.46354e-18
-1.46587e-18
-1.46734e-18
-1.47056e-18
-1.48066e-18
-1.48264e-18
-1.48246e-18
-1.48272e-18
-1.48094e-18
-1.4787e-18
-1.4763e-18
-1.48102e-18
-1.49758e-18
-1.50084e-18
-1.49631e-18
-1.47719e-18
-1.46282e-18
-1.48568e-18
-1.49446e-18
-1.48013e-18
-1.48292e-18
-1.47052e-18
-1.45588e-18
-1.46985e-18
-1.48262e-18
-1.4688e-18
-1.46769e-18
-1.46643e-18
-1.46598e-18
-1.46598e-18
-1.52617e-18
-1.50818e-18
-1.50072e-18
-1.48885e-18
-1.49098e-18
-1.49668e-18
-1.52258e-18
-1.51245e-18
-1.47615e-18
-1.49011e-18
-1.49302e-18
-1.48547e-18
-1.48679e-18
-1.49156e-18
-1.50181e-18
-1.48971e-18
-1.4875e-18
-1.50061e-18
-1.49188e-18
-1.49475e-18
-1.47763e-18
-1.48338e-18
-1.48847e-18
-1.49434e-18
-1.47058e-18
-1.48413e-18
-1.49743e-18
-1.47021e-18
-1.48017e-18
-1.48856e-18
-1.46629e-18
-1.47355e-18
-1.47862e-18
-1.47599e-18
-1.47426e-18
-1.46941e-18
-1.45549e-18
-1.46489e-18
-1.46922e-18
-1.46747e-18
-1.46703e-18
-1.46231e-18
-1.45025e-18
-1.45368e-18
-1.44484e-18
-1.45335e-18
-1.46983e-18
-1.50281e-18
-1.50171e-18
-1.49052e-18
-1.45441e-18
-1.4848e-18
-1.47432e-18
-1.51949e-18
-1.51778e-18
-1.49476e-18
-1.50871e-18
-1.51132e-18
-1.49702e-18
-1.4869e-18
-1.48838e-18
-1.49106e-18
-1.48274e-18
-1.4753e-18
-1.49687e-18
-1.49073e-18
-1.48798e-18
-1.48301e-18
-1.48772e-18
-1.49238e-18
-1.47234e-18
-1.46642e-18
-1.48547e-18
-1.50228e-18
-1.49025e-18
-1.48652e-18
-1.48645e-18
-1.48478e-18
-1.48867e-18
-1.48993e-18
-1.485e-18
-1.48294e-18
-1.48474e-18
-1.49561e-18
-1.48111e-18
-1.47519e-18
-1.46983e-18
-1.46134e-18
-1.48378e-18
-1.47683e-18
-1.46977e-18
-1.46856e-18
-1.47401e-18
-1.52143e-18
-1.50198e-18
-1.49653e-18
-1.49391e-18
-1.47057e-18
-1.49267e-18
-1.47603e-18
-1.51181e-18
-1.5041e-18
-1.49449e-18
-1.47788e-18
-1.4913e-18
-1.50308e-18
-1.47669e-18
-1.49037e-18
-1.50133e-18
-1.47462e-18
-1.47917e-18
-1.47484e-18
-1.48943e-18
-1.50655e-18
-1.46293e-18
-1.4703e-18
-1.50771e-18
-1.51471e-18
-1.51285e-18
-1.49538e-18
-1.49568e-18
-1.50218e-18
-1.47846e-18
-1.49026e-18
-1.50377e-18
-1.4897e-18
-1.47582e-18
-1.47828e-18
-1.46863e-18
-1.47438e-18
-1.48362e-18
-1.49208e-18
-1.4784e-18
-1.47792e-18
-1.49105e-18
-1.49588e-18
-1.48646e-18
-1.45495e-18
-1.44976e-18
-1.46266e-18
-1.46716e-18
-1.50685e-18
-1.49131e-18
-1.48046e-18
-1.49145e-18
-1.49406e-18
-1.52303e-18
-1.51702e-18
-1.49854e-18
-1.51496e-18
-1.51581e-18
-1.48801e-18
-1.47313e-18
-1.4738e-18
-1.48233e-18
-1.48888e-18
-1.48679e-18
-1.4626e-18
-1.48432e-18
-1.49018e-18
-1.49933e-18
-1.48995e-18
-1.48393e-18
-1.48773e-18
-1.50778e-18
-1.49698e-18
-1.50049e-18
-1.48951e-18
-1.4894e-18
-1.48708e-18
-1.47379e-18
-1.48466e-18
-1.48874e-18
-1.4911e-18
-1.49361e-18
-1.47878e-18
-1.48935e-18
-1.47429e-18
-1.49192e-18
-1.48288e-18
-1.47607e-18
-1.47371e-18
-1.47294e-18
-1.4723e-18
-1.47173e-18
-1.46956e-18
-1.46905e-18
-1.46868e-18
-1.46742e-18
-1.50358e-18
-1.47732e-18
-1.51556e-18
-1.47659e-18
-1.47634e-18
-1.52576e-18
-1.51791e-18
-1.47404e-18
-1.49449e-18
-1.49721e-18
-1.47599e-18
-1.48793e-18
-1.48868e-18
-1.47574e-18
-1.49456e-18
-1.50533e-18
-1.49147e-18
-1.49672e-18
-1.48049e-18
-1.48112e-18
-1.46467e-18
-1.47716e-18
-1.47833e-18
-1.51776e-18
-1.49959e-18
-1.49249e-18
-1.49113e-18
-1.49193e-18
-1.49175e-18
-1.49449e-18
-1.5095e-18
-1.50965e-18
-1.49126e-18
-1.48617e-18
-1.48897e-18
-1.50427e-18
-1.49884e-18
-1.47409e-18
-1.4765e-18
-1.47752e-18
-1.47625e-18
-1.47302e-18
-1.46746e-18
-1.47023e-18
-1.46872e-18
-1.46654e-18
-1.46235e-18
-1.46384e-18
-1.46548e-18
-1.53378e-18
-1.50003e-18
-1.50425e-18
-1.49951e-18
-1.49751e-18
-1.52077e-18
-1.49933e-18
-1.47511e-18
-1.49294e-18
-1.50692e-18
-1.47905e-18
-1.49718e-18
-1.51027e-18
-1.49874e-18
-1.52095e-18
-1.51381e-18
-1.49142e-18
-1.47817e-18
-1.48666e-18
-1.48598e-18
-1.48034e-18
-1.46114e-18
-1.48031e-18
-1.49108e-18
-1.489e-18
-1.48769e-18
-1.48496e-18
-1.47392e-18
-1.48407e-18
-1.4875e-18
-1.49393e-18
-1.50975e-18
-1.48281e-18
-1.49567e-18
-1.48914e-18
-1.48403e-18
-1.48339e-18
-1.48086e-18
-1.47919e-18
-1.47778e-18
-1.47559e-18
-1.47344e-18
-1.47113e-18
-1.46624e-18
-1.45382e-18
-1.46248e-18
-1.46466e-18
-1.45854e-18
-1.4466e-18
-1.53647e-18
-1.51375e-18
-1.49866e-18
-1.52483e-18
-1.50426e-18
-1.50296e-18
-1.49953e-18
-1.51241e-18
-1.49536e-18
-1.48005e-18
-1.49406e-18
-1.51288e-18
-1.49835e-18
-1.48953e-18
-1.48347e-18
-1.5035e-18
-1.49066e-18
-1.49084e-18
-1.4954e-18
-1.46601e-18
-1.47399e-18
-1.45976e-18
-1.48527e-18
-1.50364e-18
-1.49788e-18
-1.51062e-18
-1.50963e-18
-1.49591e-18
-1.50322e-18
-1.49331e-18
-1.48849e-18
-1.49363e-18
-1.5025e-18
-1.4901e-18
-1.48219e-18
-1.46926e-18
-1.4796e-18
-1.48219e-18
-1.48041e-18
-1.48375e-18
-1.49317e-18
-1.47537e-18
-1.45823e-18
-1.46892e-18
-1.4728e-18
-1.47665e-18
-1.48481e-18
-1.47052e-18
-1.46869e-18
-1.47254e-18
-1.51165e-18
-1.53564e-18
-1.47528e-18
-1.52359e-18
-1.51079e-18
-1.51745e-18
-1.50059e-18
-1.50127e-18
-1.49619e-18
-1.49239e-18
-1.49597e-18
-1.49373e-18
-1.47822e-18
-1.47622e-18
-1.4845e-18
-1.47431e-18
-1.4647e-18
-1.48584e-18
-1.4924e-18
-1.48596e-18
-1.48642e-18
-1.48889e-18
-1.50946e-18
-1.50463e-18
-1.49029e-18
-1.4894e-18
-1.48723e-18
-1.48576e-18
-1.49228e-18
-1.50375e-18
-1.4913e-18
-1.48671e-18
-1.48707e-18
-1.49116e-18
-1.50456e-18
-1.50553e-18
-1.49053e-18
-1.47861e-18
-1.48098e-18
-1.48074e-18
-1.47948e-18
-1.47445e-18
-1.46664e-18
-1.46994e-18
-1.47123e-18
-1.47021e-18
-1.46915e-18
-1.46601e-18
-1.45225e-18
-1.45265e-18
-1.4983e-18
-1.4789e-18
-1.46568e-18
-1.50617e-18
-1.52191e-18
-1.50071e-18
-1.50164e-18
-1.50161e-18
-1.50192e-18
-1.49585e-18
-1.49173e-18
-1.47965e-18
-1.48758e-18
-1.47559e-18
-1.47933e-18
-1.49228e-18
-1.50154e-18
-1.49345e-18
-1.48308e-18
-1.47121e-18
-1.47456e-18
-1.46841e-18
-1.50377e-18
-1.49248e-18
-1.48317e-18
-1.47263e-18
-1.4865e-18
-1.49367e-18
-1.51099e-18
-1.51361e-18
-1.51274e-18
-1.51143e-18
-1.5096e-18
-1.50049e-18
-1.47423e-18
-1.4801e-18
-1.4839e-18
-1.48249e-18
-1.48221e-18
-1.4851e-18
-1.49448e-18
-1.47742e-18
-1.4608e-18
-1.46818e-18
-1.47001e-18
-1.46414e-18
-1.45311e-18
-1.46221e-18
-1.46601e-18
-1.46439e-18
-1.50523e-18
-1.49329e-18
-1.48745e-18
-1.50064e-18
-1.50305e-18
-1.48132e-18
-1.51536e-18
-1.50731e-18
-1.5146e-18
-1.4962e-18
-1.47847e-18
-1.49253e-18
-1.49161e-18
-1.47938e-18
-1.50407e-18
-1.4926e-18
-1.48176e-18
-1.4969e-18
-1.46832e-18
-1.47566e-18
-1.46882e-18
-1.51316e-18
-1.50771e-18
-1.47472e-18
-1.48127e-18
-1.48561e-18
-1.48596e-18
-1.48571e-18
-1.48798e-18
-1.48636e-18
-1.48291e-18
-1.48352e-18
-1.48375e-18
-1.48446e-18
-1.47732e-18
-1.46667e-18
-1.47786e-18
-1.47936e-18
-1.47865e-18
-1.47748e-18
-1.47213e-18
-1.46059e-18
-1.46993e-18
-1.47411e-18
-1.47789e-18
-1.48716e-18
-1.47481e-18
-1.46821e-18
-1.47022e-18
-1.47532e-18
-1.52567e-18
-1.50368e-18
-1.47815e-18
-1.49242e-18
-1.5034e-18
-1.49703e-18
-1.50315e-18
-1.49668e-18
-1.47879e-18
-1.49063e-18
-1.48391e-18
-1.51303e-18
-1.49746e-18
-1.47448e-18
-1.47616e-18
-1.48334e-18
-1.46881e-18
-1.50003e-18
-1.48879e-18
-1.47739e-18
-1.48487e-18
-1.49309e-18
-1.48879e-18
-1.48605e-18
-1.48683e-18
-1.48931e-18
-1.48709e-18
-1.49228e-18
-1.50544e-18
-1.4927e-18
-1.48829e-18
-1.48511e-18
-1.48427e-18
-1.48151e-18
-1.4712e-18
-1.48191e-18
-1.49899e-18
-1.49049e-18
-1.49518e-18
-1.48181e-18
-1.47951e-18
-1.48562e-18
-1.46262e-18
-1.46279e-18
-1.45567e-18
-1.46423e-18
-1.46246e-18
-1.45193e-18
-1.46382e-18
-1.47071e-18
-1.48117e-18
-1.49294e-18
-1.49089e-18
-1.4825e-18
-1.52395e-18
-1.50568e-18
-1.50074e-18
-1.4906e-18
-1.46446e-18
-1.49754e-18
-1.49501e-18
-1.50109e-18
-1.51537e-18
-1.49496e-18
-1.49178e-18
-1.49998e-18
-1.50522e-18
-1.49787e-18
-1.49281e-18
-1.48862e-18
-1.4778e-18
-1.48612e-18
-1.48772e-18
-1.48752e-18
-1.48626e-18
-1.48617e-18
-1.48488e-18
-1.49232e-18
-1.50262e-18
-1.48952e-18
-1.48909e-18
-1.50357e-18
-1.49412e-18
-1.4904e-18
-1.5001e-18
-1.48886e-18
-1.48348e-18
-1.48252e-18
-1.4812e-18
-1.47861e-18
-1.47863e-18
-1.479e-18
-1.47711e-18
-1.47504e-18
-1.4748e-18
-1.47552e-18
-1.47361e-18
-1.46915e-18
-1.46443e-18
-1.4707e-18
-1.49515e-18
-1.47583e-18
-1.49649e-18
-1.4979e-18
-1.52723e-18
-1.50664e-18
-1.49645e-18
-1.47995e-18
-1.49993e-18
-1.51304e-18
-1.46601e-18
-1.47996e-18
-1.52506e-18
-1.50245e-18
-1.49514e-18
-1.50562e-18
-1.48223e-18
-1.49091e-18
-1.49699e-18
-1.50764e-18
-1.50682e-18
-1.49623e-18
-1.49197e-18
-1.49299e-18
-1.5047e-18
-1.50967e-18
-1.49735e-18
-1.50408e-18
-1.49377e-18
-1.4843e-18
-1.4761e-18
-1.49949e-18
-1.50371e-18
-1.48517e-18
-1.4626e-18
-1.46161e-18
-1.47369e-18
-1.47737e-18
-1.47652e-18
-1.475e-18
-1.47494e-18
-1.4713e-18
-1.455e-18
-1.45258e-18
-1.46545e-18
-1.46981e-18
-1.46779e-18
-1.4675e-18
-1.45875e-18
-1.45304e-18
-1.51822e-18
-1.50517e-18
-1.49968e-18
-1.47752e-18
-1.50708e-18
-1.52614e-18
-1.50282e-18
-1.49811e-18
-1.51854e-18
-1.50263e-18
-1.47497e-18
-1.48971e-18
-1.50293e-18
-1.50823e-18
-1.48183e-18
-1.49457e-18
-1.49594e-18
-1.49977e-18
-1.51763e-18
-1.49772e-18
-1.49343e-18
-1.48811e-18
-1.48077e-18
-1.48638e-18
-1.47903e-18
-1.50211e-18
-1.48756e-18
-1.50895e-18
-1.50588e-18
-1.47361e-18
-1.47929e-18
-1.47541e-18
-1.48819e-18
-1.50331e-18
-1.48732e-18
-1.48306e-18
-1.48328e-18
-1.48567e-18
-1.49349e-18
-1.47733e-18
-1.46171e-18
-1.47183e-18
-1.4743e-18
-1.47569e-18
-1.4699e-18
-1.46151e-18
-1.46725e-18
-1.46607e-18
-1.46679e-18
-1.45783e-18
-1.46096e-18
-1.52968e-18
-1.50488e-18
-1.49339e-18
-1.50633e-18
-1.52686e-18
-1.5031e-18
-1.50166e-18
-1.50255e-18
-1.49486e-18
-1.47627e-18
-1.4777e-18
-1.4918e-18
-1.49397e-18
-1.49455e-18
-1.51451e-18
-1.51254e-18
-1.49215e-18
-1.47852e-18
-1.47982e-18
-1.50419e-18
-1.49627e-18
-1.4951e-18
-1.5076e-18
-1.48384e-18
-1.48784e-18
-1.48802e-18
-1.48581e-18
-1.48858e-18
-1.48294e-18
-1.47211e-18
-1.49551e-18
-1.4882e-18
-1.48215e-18
-1.47874e-18
-1.47739e-18
-1.47808e-18
-1.47371e-18
-1.46806e-18
-1.46041e-18
-1.47505e-18
-1.4771e-18
-1.48293e-18
-1.45989e-18
-1.45779e-18
-1.46705e-18
-1.47048e-18
-1.46751e-18
-1.46698e-18
-1.46476e-18
-1.48775e-18
-1.53464e-18
-1.50559e-18
-1.50025e-18
-1.50037e-18
-1.50292e-18
-1.49709e-18
-1.51333e-18
-1.50031e-18
-1.49709e-18
-1.49188e-18
-1.49232e-18
-1.4824e-18
-1.4912e-18
-1.48227e-18
-1.4943e-18
-1.48968e-18
-1.47795e-18
-1.48806e-18
-1.4915e-18
-1.49258e-18
-1.49692e-18
-1.48873e-18
-1.47936e-18
-1.47581e-18
-1.48795e-18
-1.49702e-18
-1.48888e-18
-1.46966e-18
-1.47915e-18
-1.48358e-18
-1.48083e-18
-1.48016e-18
-1.4768e-18
-1.47537e-18
-1.47537e-18
-1.47152e-18
-1.46915e-18
-1.45729e-18
-1.46335e-18
-1.47473e-18
-1.48915e-18
-1.47868e-18
-1.46284e-18
-1.46576e-18
-1.46451e-18
-1.47202e-18
-1.46538e-18
-1.46319e-18
-1.46468e-18
-1.48277e-18
-1.50772e-18
-1.49832e-18
-1.4989e-18
-1.50402e-18
-1.49601e-18
-1.49363e-18
-1.48588e-18
-1.49518e-18
-1.49662e-18
-1.48191e-18
-1.49581e-18
-1.51527e-18
-1.50176e-18
-1.51001e-18
-1.50893e-18
-1.48167e-18
-1.49179e-18
-1.50486e-18
-1.49584e-18
-1.48925e-18
-1.48239e-18
-1.4861e-18
-1.48828e-18
-1.48436e-18
-1.48643e-18
-1.48631e-18
-1.48695e-18
-1.48635e-18
-1.49787e-18
-1.48538e-18
-1.48472e-18
-1.50227e-18
-1.49115e-18
-1.49415e-18
-1.47886e-18
-1.47155e-18
-1.46191e-18
-1.48151e-18
-1.4799e-18
-1.4845e-18
-1.47009e-18
-1.46357e-18
-1.46522e-18
-1.46964e-18
-1.46097e-18
-1.46248e-18
-1.46249e-18
-1.46587e-18
-1.4706e-18
-1.52019e-18
-1.50615e-18
-1.50662e-18
-1.50631e-18
-1.52498e-18
-1.47923e-18
-1.47526e-18
-1.50712e-18
-1.50134e-18
-1.51751e-18
-1.50921e-18
-1.46913e-18
-1.49089e-18
-1.47417e-18
-1.46199e-18
-1.4872e-18
-1.49537e-18
-1.50787e-18
-1.49793e-18
-1.50434e-18
-1.50431e-18
-1.48713e-18
-1.47888e-18
-1.48546e-18
-1.48313e-18
-1.47933e-18
-1.4861e-18
-1.49307e-18
-1.49227e-18
-1.50074e-18
-1.4858e-18
-1.48216e-18
-1.46618e-18
-1.45978e-18
-1.46376e-18
-1.46863e-18
-1.47084e-18
-1.46401e-18
-1.46102e-18
-1.46843e-18
-1.47138e-18
-1.46427e-18
-1.46051e-18
-1.46463e-18
-1.46988e-18
-1.4658e-18
-1.46798e-18
-1.47003e-18
-1.47536e-18
-1.46028e-18
-1.47891e-18
-1.49993e-18
-1.52527e-18
-1.53322e-18
-1.52655e-18
-1.49021e-18
-1.46726e-18
-1.48267e-18
-1.4966e-18
-1.50573e-18
-1.49616e-18
-1.47568e-18
-1.48804e-18
-1.47612e-18
-1.47433e-18
-1.49561e-18
-1.5103e-18
-1.49714e-18
-1.48901e-18
-1.49207e-18
-1.48638e-18
-1.47898e-18
-1.49148e-18
-1.48839e-18
-1.48767e-18
-1.49249e-18
-1.48319e-18
-1.47871e-18
-1.47223e-18
-1.48915e-18
-1.48974e-18
-1.48169e-18
-1.48291e-18
-1.47756e-18
-1.47536e-18
-1.47638e-18
-1.47921e-18
-1.47342e-18
-1.47098e-18
-1.46983e-18
-1.46278e-18
-1.47288e-18
-1.47018e-18
-1.47336e-18
-1.47369e-18
-1.47522e-18
-1.47316e-18
-1.46253e-18
-1.45393e-18
-1.45163e-18
-1.49106e-18
-1.4983e-18
-1.50301e-18
-1.52972e-18
-1.50503e-18
-1.49534e-18
-1.49488e-18
-1.51529e-18
-1.5014e-18
-1.51288e-18
-1.47914e-18
-1.47543e-18
-1.49715e-18
-1.51039e-18
-1.4971e-18
-1.49707e-18
-1.51236e-18
-1.5072e-18
-1.48166e-18
-1.50218e-18