/*--------------------------------*- C++ -*----------------------------------*\
  =========                 |
  \\      /  F ield         | OpenFOAM: The Open Source CFD Toolbox
   \\    /   O peration     | Website:  https://openfoam.org
    \\  /    A nd           | Version:  7
     \\/     M anipulation  |
\*---------------------------------------------------------------------------*/
FoamFile
{
    version     2.0;
    format      ascii;
    class       volScalarField;
    location    "52000";
    object      omega;
}
// * * * * * * * * * * * * * * * * * * * * * * * * * * * * * * * * * * * * * //

dimensions      [0 0 -1 0 0 0 0];

internalField   nonuniform List<scalar> 
1777
(
0.120706
0.118964
0.117344
0.115839
0.114452
0.113184
0.112039
0.111018
0.110122
0.109352
0.125006
0.123199
0.121517
0.119957
0.118518
0.117204
0.116017
0.114958
0.11403
0.113232
0.129517
0.127639
0.125894
0.124275
0.122782
0.121419
0.120188
0.11909
0.118127
0.117299
0.134251
0.132301
0.130489
0.128807
0.127258
0.125843
0.124565
0.123425
0.122425
0.121567
0.139227
0.137199
0.135316
0.133569
0.13196
0.13049
0.129162
0.127979
0.126941
0.12605
0.144461
0.142351
0.140393
0.138577
0.136904
0.135377
0.133997
0.132767
0.131689
0.130763
0.149972
0.147776
0.145739
0.14385
0.14211
0.140521
0.139086
0.137807
0.136686
0.135723
0.155781
0.153494
0.151373
0.149406
0.147595
0.145942
0.144449
0.143118
0.141951
0.140949
0.161912
0.159528
0.157318
0.15527
0.153383
0.151661
0.150106
0.14872
0.147505
0.146462
0.168389
0.165902
0.163598
0.161463
0.159497
0.157702
0.156081
0.154637
0.153371
0.152284
0.175239
0.172644
0.17024
0.168013
0.165962
0.16409
0.1624
0.160894
0.159573
0.15844
0.182495
0.179784
0.177274
0.174949
0.172808
0.170854
0.16909
0.167518
0.16614
0.164957
0.190189
0.187355
0.184733
0.182304
0.180067
0.178025
0.176182
0.17454
0.173101
0.171865
0.19836
0.195395
0.192653
0.190112
0.187773
0.185639
0.183712
0.181995
0.18049
0.179198
0.207048
0.203944
0.201074
0.198415
0.195967
0.193733
0.191717
0.18992
0.188346
0.186994
0.216301
0.213048
0.210041
0.207256
0.204692
0.202352
0.20024
0.198358
0.196709
0.195293
0.22617
0.222758
0.219605
0.216685
0.213997
0.211544
0.209329
0.207356
0.205627
0.204143
0.236712
0.233131
0.229822
0.226757
0.223936
0.221361
0.219037
0.216966
0.215152
0.213594
0.247994
0.244231
0.240755
0.237535
0.234571
0.231866
0.229424
0.227249
0.225342
0.223706
0.260089
0.25613
0.252475
0.249088
0.245971
0.243126
0.240558
0.23827
0.236265
0.234544
0.273078
0.268909
0.265061
0.261496
0.258213
0.255218
0.252514
0.250105
0.247994
0.246182
0.287055
0.282661
0.278605
0.274847
0.271387
0.268229
0.265378
0.262839
0.260614
0.258704
0.302126
0.297489
0.293209
0.289243
0.285591
0.282258
0.27925
0.276569
0.274221
0.272205
0.318411
0.120706
0.125006
0.129517
0.134251
0.139227
0.144461
0.149972
0.155781
0.161912
0.168389
0.175239
0.182495
0.190189
0.19836
0.207048
0.216301
0.22617
0.236712
0.247994
0.260089
0.273078
0.287055
0.302126
0.318411
0.118964
0.123199
0.127639
0.132301
0.137199
0.142351
0.147776
0.153494
0.159528
0.165902
0.172644
0.179784
0.187355
0.195395
0.203944
0.213048
0.222758
0.233131
0.244231
0.25613
0.268909
0.282661
0.297489
0.313512
0.117343
0.121517
0.125894
0.130489
0.135316
0.140393
0.145739
0.151373
0.157318
0.163598
0.17024
0.177274
0.184733
0.192653
0.201074
0.210041
0.219605
0.229822
0.240755
0.252475
0.265061
0.278605
0.293209
0.308991
0.115839
0.119957
0.124275
0.128807
0.133569
0.138577
0.14385
0.149406
0.15527
0.161463
0.168013
0.174949
0.182304
0.190112
0.198415
0.207256
0.216685
0.226757
0.237535
0.249088
0.261496
0.274847
0.289243
0.3048
0.114452
0.118518
0.122782
0.127258
0.13196
0.136904
0.14211
0.147595
0.153383
0.159497
0.165962
0.172808
0.180067
0.187773
0.195967
0.204692
0.213997
0.223936
0.234571
0.245971
0.258213
0.271387
0.285591
0.30094
0.113184
0.117204
0.121419
0.125843
0.13049
0.135377
0.140521
0.145942
0.151661
0.157702
0.16409
0.170854
0.178025
0.185639
0.193733
0.202352
0.211544
0.221361
0.231866
0.243126
0.255218
0.268229
0.282258
0.297418
0.112039
0.116017
0.120188
0.124565
0.129162
0.133997
0.139086
0.144449
0.150106
0.156081
0.1624
0.16909
0.176182
0.183712
0.191717
0.20024
0.209329
0.219037
0.229424
0.240558
0.252514
0.265378
0.27925
0.294239
0.111018
0.114958
0.11909
0.123425
0.127979
0.132767
0.137807
0.143118
0.14872
0.154637
0.160894
0.167518
0.17454
0.181995
0.18992
0.198358
0.207356
0.216966
0.227249
0.23827
0.250105
0.262839
0.276569
0.291406
0.110122
0.11403
0.118126
0.122425
0.126941
0.131689
0.136686
0.141951
0.147505
0.153371
0.159573
0.16614
0.173101
0.18049
0.188345
0.196709
0.205627
0.215152
0.225342
0.236265
0.247994
0.260614
0.274221
0.288924
0.109352
0.113232
0.117299
0.121567
0.12605
0.130763
0.135723
0.140949
0.146462
0.152284
0.15844
0.164957
0.171865
0.179198
0.186994
0.195293
0.204143
0.213594
0.223706
0.234544
0.246182
0.258704
0.272205
0.286794
0.10871
0.112567
0.116609
0.120851
0.125306
0.12999
0.13492
0.140114
0.145592
0.151378
0.157495
0.16397
0.170835
0.178121
0.185867
0.194113
0.202905
0.212295
0.222342
0.233109
0.244671
0.257111
0.270524
0.285017
0.108196
0.112033
0.116056
0.120277
0.124711
0.129371
0.134277
0.139445
0.144896
0.150652
0.156738
0.16318
0.17001
0.177259
0.184964
0.193168
0.201914
0.211256
0.22125
0.231961
0.243462
0.255837
0.269179
0.283596
0.10781
0.111633
0.115642
0.119847
0.124264
0.128907
0.133794
0.138942
0.144373
0.150107
0.15617
0.162588
0.169391
0.176611
0.184287
0.192458
0.201171
0.210476
0.22043
0.231099
0.242555
0.25488
0.26817
0.282529
0.107552
0.111366
0.115365
0.11956
0.123966
0.128598
0.133472
0.138608
0.144024
0.149744
0.155791
0.162192
0.168978
0.17618
0.183836
0.191986
0.200675
0.209956
0.219884
0.230524
0.24195
0.254243
0.267497
0.281818
0.107423
0.111233
0.115226
0.119416
0.123817
0.128443
0.133311
0.13844
0.14385
0.149562
0.155602
0.161995
0.168771
0.175964
0.18361
0.191749
0.200427
0.209696
0.219611
0.230237
0.241647
0.253924
0.26716
0.281462
0.107423
0.111233
0.115226
0.119416
0.123817
0.128443
0.133311
0.13844
0.14385
0.149562
0.155602
0.161995
0.168771
0.175964
0.18361
0.191749
0.200427
0.209696
0.219611
0.230237
0.241647
0.253924
0.26716
0.281462
0.107552
0.111366
0.115365
0.11956
0.123966
0.128598
0.133472
0.138608
0.144024
0.149744
0.155791
0.162192
0.168978
0.17618
0.183836
0.191986
0.200675
0.209956
0.219884
0.230524
0.24195
0.254243
0.267497
0.281818
0.10781
0.111633
0.115642
0.119847
0.124264
0.128907
0.133794
0.138942
0.144373
0.150107
0.15617
0.162588
0.16939
0.176611
0.184287
0.192458
0.201171
0.210476
0.22043
0.231099
0.242555
0.25488
0.26817
0.282529
0.108196
0.112033
0.116056
0.120277
0.124711
0.129371
0.134277
0.139445
0.144896
0.150652
0.156738
0.16318
0.17001
0.177259
0.184964
0.193168
0.201914
0.211256
0.22125
0.231961
0.243462
0.255837
0.269179
0.283596
0.0860323
0.088873
0.0918332
0.0949205
0.0981428
0.101509
0.105028
0.10871
0.112567
0.116609
0.120851
0.125306
0.12999
0.13492
0.140114
0.145592
0.151378
0.157495
0.16397
0.170835
0.178121
0.185867
0.194113
0.202905
0.212295
0.222342
0.233109
0.244671
0.257111
0.270524
0.285018
0.0865405
0.0893976
0.0923751
0.0954805
0.0987218
0.102108
0.105648
0.109352
0.113232
0.117299
0.121567
0.12605
0.130763
0.135723
0.140949
0.146462
0.152284
0.15844
0.164957
0.171865
0.179198
0.186994
0.195293
0.204143
0.213594
0.223706
0.234544
0.246182
0.258704
0.272205
0.286794
0.087149
0.0900259
0.0930241
0.0961513
0.0994155
0.102825
0.106391
0.110122
0.11403
0.118127
0.122425
0.126941
0.131689
0.136686
0.141951
0.147505
0.153371
0.159573
0.16614
0.173101
0.18049
0.188346
0.196709
0.205627
0.215152
0.225342
0.236265
0.247994
0.260614
0.274221
0.288924
0.087857
0.090757
0.0937794
0.096932
0.100223
0.103661
0.107256
0.111018
0.114958
0.11909
0.123425
0.127979
0.132767
0.137807
0.143118
0.14872
0.154637
0.160894
0.167518
0.17454
0.181995
0.18992
0.198358
0.207356
0.216966
0.227249
0.23827
0.250105
0.262839
0.276569
0.291406
0.0886635
0.0915899
0.09464
0.0978216
0.101143
0.104613
0.108242
0.112039
0.116017
0.120188
0.124565
0.129162
0.133997
0.139086
0.144449
0.150106
0.156081
0.1624
0.16909
0.176182
0.183712
0.191717
0.20024
0.209329
0.219037
0.229424
0.240558
0.252514
0.265378
0.27925
0.294239
0.089567
0.0925231
0.0956043
0.0988186
0.102174
0.10568
0.109347
0.113184
0.117204
0.121419
0.125843
0.13049
0.135377
0.140521
0.145942
0.151661
0.157702
0.16409
0.170854
0.178025
0.185639
0.193733
0.202352
0.211544
0.221361
0.231866
0.243126
0.255218
0.268229
0.282258
0.297418
0.0905659
0.0935549
0.0966708
0.0999213
0.103315
0.106861
0.11057
0.114452
0.118518
0.122782
0.127258
0.13196
0.136904
0.14211
0.147595
0.153383
0.159497
0.165962
0.172808
0.180067
0.187773
0.195967
0.204692
0.213997
0.223936
0.234571
0.245971
0.258213
0.271387
0.285591
0.30094
0.091658
0.0946833
0.0978371
0.101128
0.104563
0.108154
0.111908
0.115839
0.119957
0.124275
0.128807
0.133569
0.138577
0.14385
0.149406
0.15527
0.161463
0.168013
0.174949
0.182304
0.190112
0.198415
0.207256
0.216685
0.226757
0.237535
0.249088
0.261496
0.274847
0.289243
0.3048
0.0928412
0.095906
0.0991013
0.102435
0.105917
0.109555
0.11336
0.117344
0.121517
0.125894
0.130489
0.135316
0.140393
0.145739
0.151373
0.157318
0.163598
0.17024
0.177274
0.184733
0.192653
0.201074
0.210041
0.219605
0.229822
0.240755
0.252475
0.265061
0.278605
0.293209
0.308991
0.0941137
0.0972213
0.100461
0.103843
0.107373
0.111064
0.114923
0.118964
0.123199
0.127639
0.132301
0.137199
0.142351
0.147776
0.153494
0.159528
0.165902
0.172644
0.179784
0.187355
0.195395
0.203944
0.213048
0.222758
0.233131
0.244231
0.25613
0.268909
0.282661
0.297489
0.313512
0.095477
0.098631
0.10192
0.105352
0.108937
0.112683
0.116603
0.120706
0.125006
0.129517
0.134251
0.139227
0.144461
0.149972
0.155781
0.161912
0.168389
0.175239
0.182495
0.190189
0.19836
0.207048
0.216301
0.226169
0.236712
0.247994
0.260089
0.273078
0.287055
0.302126
0.318411
0.095477
0.0986311
0.10192
0.105352
0.108937
0.112683
0.116603
0.120706
0.125006
0.129517
0.134251
0.139227
0.144461
0.149972
0.155781
0.161912
0.168389
0.175239
0.182495
0.190189
0.19836
0.207048
0.216301
0.226169
0.236712
0.247994
0.260089
0.273078
0.287055
0.302126
0.318411
0.0941137
0.0972213
0.100461
0.103843
0.107373
0.111064
0.114923
0.118964
0.123199
0.127639
0.132301
0.137199
0.142351
0.147776
0.153494
0.159528
0.165902
0.172644
0.179784
0.187355
0.195395
0.203944
0.213048
0.222758
0.233131
0.244231
0.25613
0.268909
0.282661
0.297489
0.313512
0.0928412
0.095906
0.0991013
0.102435
0.105917
0.109555
0.11336
0.117344
0.121517
0.125894
0.130489
0.135316
0.140393
0.145739
0.151373
0.157318
0.163598
0.17024
0.177274
0.184733
0.192653
0.201074
0.210041
0.219605
0.229822
0.240755
0.252475
0.265061
0.278605
0.293209
0.308991
0.091658
0.0946833
0.0978372
0.101128
0.104563
0.108154
0.111908
0.115839
0.119957
0.124275
0.128807
0.133569
0.138577
0.14385
0.149406
0.15527
0.161463
0.168013
0.174949
0.182304
0.190112
0.198415
0.207256
0.216685
0.226757
0.237535
0.249088
0.261496
0.274847
0.289243
0.3048
0.0905659
0.0935549
0.0966708
0.0999213
0.103315
0.106861
0.11057
0.114452
0.118518
0.122782
0.127258
0.13196
0.136904
0.14211
0.147595
0.153383
0.159497
0.165962
0.172808
0.180067
0.187773
0.195967
0.204692
0.213997
0.223936
0.234571
0.245971
0.258213
0.271387
0.285591
0.30094
0.089567
0.0925231
0.0956043
0.0988186
0.102174
0.10568
0.109347
0.113184
0.117204
0.121419
0.125843
0.13049
0.135377
0.140521
0.145942
0.151661
0.157702
0.16409
0.170854
0.178025
0.185639
0.193733
0.202352
0.211544
0.221361
0.231866
0.243126
0.255218
0.268229
0.282258
0.297418
0.0886635
0.0915899
0.09464
0.0978216
0.101143
0.104613
0.108242
0.112039
0.116017
0.120188
0.124565
0.129162
0.133997
0.139086
0.144449
0.150106
0.156081
0.1624
0.16909
0.176182
0.183712
0.191717
0.20024
0.209329
0.219037
0.229424
0.240558
0.252514
0.265378
0.27925
0.294239
0.087857
0.090757
0.0937794
0.096932
0.100223
0.103661
0.107256
0.111018
0.114958
0.11909
0.123425
0.127979
0.132767
0.137807
0.143118
0.14872
0.154637
0.160894
0.167518
0.17454
0.181995
0.18992
0.198358
0.207356
0.216966
0.227249
0.23827
0.250105
0.262839
0.276569
0.291406
0.087149
0.0900259
0.0930241
0.0961513
0.0994155
0.102825
0.106391
0.110122
0.11403
0.118127
0.122425
0.126941
0.131689
0.136686
0.141951
0.147505
0.153371
0.159573
0.16614
0.173101
0.18049
0.188345
0.196709
0.205627
0.215152
0.225342
0.236265
0.247994
0.260614
0.274221
0.288924
0.0865405
0.0893976
0.0923751
0.0954805
0.0987218
0.102108
0.105648
0.109352
0.113232
0.117299
0.121567
0.12605
0.130763
0.135723
0.140949
0.146462
0.152284
0.15844
0.164957
0.171865
0.179198
0.186994
0.195293
0.204143
0.213594
0.223706
0.234544
0.246182
0.258704
0.272205
0.286794
0.0860323
0.088873
0.0918332
0.0949205
0.0981428
0.101509
0.105028
0.10871
0.112567
0.116609
0.120851
0.125306
0.12999
0.13492
0.140114
0.145592
0.151378
0.157495
0.16397
0.170835
0.178121
0.185867
0.194113
0.202905
0.212295
0.222342
0.233109
0.244671
0.257111
0.270524
0.285018
0.0856251
0.0884526
0.0913991
0.0944718
0.0976789
0.101029
0.104531
0.108196
0.112033
0.116056
0.120277
0.124711
0.129371
0.134277
0.139445
0.144896
0.150652
0.156738
0.16318
0.17001
0.177259
0.184964
0.193168
0.201914
0.211256
0.22125
0.231961
0.243462
0.255837
0.269179
0.283596
0.0853194
0.088137
0.0910731
0.094135
0.0973307
0.100669
0.104158
0.10781
0.111633
0.115642
0.119847
0.124264
0.128907
0.133794
0.138942
0.144373
0.150107
0.15617
0.162588
0.169391
0.176611
0.184287
0.192458
0.201171
0.210476
0.22043
0.231099
0.242555
0.25488
0.26817
0.282529
0.0851154
0.0879265
0.0908557
0.0939103
0.0970984
0.100428
0.10391
0.107552
0.111367
0.115365
0.11956
0.123966
0.128598
0.133472
0.138608
0.144024
0.149744
0.155791
0.162192
0.168978
0.17618
0.183836
0.191986
0.200675
0.209956
0.219884
0.230524
0.24195
0.254243
0.267497
0.281818
0.0850133
0.0878211
0.0907469
0.0937979
0.0969822
0.100308
0.103785
0.107423
0.111233
0.115226
0.119416
0.123817
0.128443
0.133311
0.13844
0.14385
0.149562
0.155602
0.161995
0.168771
0.175964
0.18361
0.191749
0.200427
0.209696
0.219611
0.230237
0.241647
0.253924
0.26716
0.281462
0.0850133
0.0878211
0.0907469
0.0937979
0.0969822
0.100308
0.103785
0.107423
0.111233
0.115226
0.119416
0.123817
0.128443
0.133311
0.13844
0.14385
0.149562
0.155602
0.161995
0.168771
0.175964
0.18361
0.191749
0.200427
0.209696
0.219611
0.230237
0.241647
0.253924
0.26716
0.281462
0.0851154
0.0879265
0.0908557
0.0939104
0.0970984
0.100428
0.10391
0.107552
0.111366
0.115365
0.11956
0.123966
0.128598
0.133472
0.138608
0.144024
0.149744
0.155791
0.162192
0.168978
0.17618
0.183836
0.191986
0.200675
0.209956
0.219884
0.230524
0.24195
0.254243
0.267497
0.281818
0.0853194
0.088137
0.0910731
0.0941351
0.0973307
0.100669
0.104158
0.10781
0.111633
0.115642
0.119847
0.124264
0.128907
0.133794
0.138942
0.144373
0.150107
0.15617
0.162588
0.169391
0.176611
0.184287
0.192458
0.201171
0.210476
0.22043
0.231099
0.242555
0.25488
0.26817
0.282529
0.298082
0.0856251
0.0884526
0.0913991
0.0944719
0.0976789
0.101029
0.104531
0.108196
0.112033
0.116056
0.120277
0.124711
0.129371
0.134277
0.139445
0.144896
0.150652
0.156738
0.16318
0.17001
0.177259
0.184964
0.193168
0.201914
0.211256
0.22125
0.231961
0.243462
0.255837
0.269179
0.283596
0.29921
0.0860323
0.088873
0.0918332
0.0949205
0.0981428
0.101509
0.105028
0.10871
0.112567
0.116609
0.120851
0.125306
0.12999
0.13492
0.140114
0.145592
0.151378
0.157495
0.16397
0.170835
0.178121
0.185867
0.194113
0.202905
0.212295
0.222342
0.233109
0.244671
0.257111
0.270524
0.285018
0.300715
0.0865405
0.0893976
0.0923751
0.0954805
0.0987218
0.102108
0.105648
0.109352
0.113232
0.117299
0.121567
0.12605
0.130763
0.135723
0.140949
0.146462
0.152284
0.15844
0.164957
0.171865
0.179198
0.186994
0.195293
0.204143
0.213594
0.223706
0.234544
0.246182
0.258704
0.272205
0.286794
0.302595
0.087149
0.0900259
0.0930241
0.0961513
0.0994155
0.102826
0.106391
0.110122
0.11403
0.118127
0.122425
0.126941
0.131689
0.136686
0.141951
0.147505
0.153371
0.159573
0.16614
0.173101
0.18049
0.188346
0.196709
0.205627
0.215152
0.225342
0.236265
0.247994
0.260614
0.274221
0.288924
0.304849
0.087857
0.090757
0.0937794
0.096932
0.100223
0.103661
0.107256
0.111018
0.114958
0.11909
0.123425
0.127979
0.132767
0.137807
0.143118
0.14872
0.154637
0.160894
0.167518
0.17454
0.181995
0.18992
0.198358
0.207356
0.216966
0.227249
0.23827
0.250105
0.262839
0.276569
0.291406
0.307476
0.0886635
0.0915899
0.09464
0.0978216
0.101143
0.104613
0.108242
0.112039
0.116017
0.120188
0.124565
0.129162
0.133997
0.139086
0.144449
0.150106
0.156081
0.1624
0.16909
0.176182
0.183712
0.191717
0.20024
0.209329
0.219037
0.229424
0.240558
0.252514
0.265378
0.27925
)
;

boundaryField
{
    inlet
    {
        type            cyclic;
    }
    outlet
    {
        type            cyclic;
    }
    wall
    {
        type            fixedValue;
        value           nonuniform 0();
    }
    procBoundary1to0
    {
        type            processor;
        value           nonuniform List<scalar> 
59
(
0.313512
0.308991
0.3048
0.30094
0.297418
0.294239
0.291406
0.288924
0.286794
0.313512
0.336048
0.336048
0.330867
0.326083
0.321649
0.317565
0.313838
0.310473
0.307476
0.304849
0.302595
0.300715
0.29921
0.298082
0.297329
0.296953
0.296953
0.297329
0.298082
0.29921
0.300715
0.302595
0.304849
0.307476
0.310473
0.313838
0.317565
0.321649
0.326083
0.330866
0.336048
0.336048
0.330867
0.326083
0.321649
0.317565
0.313838
0.310473
0.307476
0.304849
0.302595
0.300715
0.29921
0.298082
0.297329
0.296953
0.296953
0.297329
0.297329
)
;
    }
    procBoundary1to2
    {
        type            processor;
        value           nonuniform List<scalar> 
39
(
0.314968
0.316164
0.317758
0.31975
0.322139
0.294239
0.324923
0.310473
0.089567
0.0925231
0.0956043
0.0988186
0.102174
0.10568
0.109347
0.113184
0.117204
0.121419
0.125843
0.13049
0.135377
0.140521
0.145942
0.151661
0.157702
0.16409
0.170854
0.178025
0.185639
0.193733
0.202352
0.211544
0.221361
0.231866
0.243126
0.255218
0.268229
0.294239
0.282258
)
;
    }
    procBoundary1to3
    {
        type            processor;
        value           nonuniform List<scalar> 
23
(
0.10871
0.112567
0.116609
0.120851
0.125306
0.12999
0.13492
0.140114
0.145592
0.151378
0.157495
0.16397
0.170835
0.178121
0.185867
0.194113
0.202905
0.212295
0.222342
0.233109
0.244671
0.257111
0.270524
)
;
    }
    procBoundary1to4
    {
        type            processor;
        value           nonuniform List<scalar> 
61
(
0.116603
0.114923
0.11336
0.111908
0.11057
0.109347
0.108242
0.107256
0.106391
0.105648
0.116603
0.114923
0.11336
0.111908
0.11057
0.109347
0.108242
0.107256
0.106391
0.105648
0.105028
0.104531
0.104158
0.10391
0.103785
0.103785
0.10391
0.104158
0.0856251
0.0884527
0.0913991
0.0944719
0.0976789
0.101029
0.104531
0.104531
0.0833043
0.0837968
0.0843865
0.0850725
0.0858538
0.086729
0.0876964
0.0887539
0.0898994
0.091131
0.0924501
0.0924501
0.0911311
0.0898994
0.0887539
0.0876964
0.086729
0.0858538
0.0850725
0.0843865
0.0837968
0.0833043
0.0829097
0.0826133
0.0824156
)
;
    }
    procBoundary1to5
    {
        type            processor;
        value           nonuniform List<scalar> 10(0.0823167 0.0823167 0.0824156 0.0826133 0.0829097 0.0833043 0.0837968 0.0843865 0.0850725 0.0858538);
    }
}


// ************************************************************************* //
