/*--------------------------------*- C++ -*----------------------------------*\
  =========                 |
  \\      /  F ield         | OpenFOAM: The Open Source CFD Toolbox
   \\    /   O peration     | Website:  https://openfoam.org
    \\  /    A nd           | Version:  7
     \\/     M anipulation  |
\*---------------------------------------------------------------------------*/
FoamFile
{
    version     2.0;
    format      ascii;
    class       volVectorField;
    location    "260000";
    object      vorticity;
}
// * * * * * * * * * * * * * * * * * * * * * * * * * * * * * * * * * * * * * //

dimensions      [0 0 -1 0 0 0 0];

internalField   nonuniform List<vector> 
4850
(
(0.0059865 0.00405821 7.46459e-18)
(0.00513438 0.00472455 1.36328e-17)
(0.0061561 0.00423088 7.67713e-18)
(0.00531365 0.00488771 1.32158e-17)
(0.00535387 0.0046588 1.09533e-17)
(0.00632537 0.0044037 1.29672e-17)
(0.00549276 0.00505072 1.378e-17)
(0.00553808 0.00481645 1.1417e-17)
(0.00557737 0.00458582 1.10285e-17)
(0.00561309 0.00435644 9.24862e-18)
(0.00649447 0.00457675 1.8642e-17)
(0.00567185 0.0052137 1.46223e-17)
(0.00572223 0.004974 1.14026e-17)
(0.0057665 0.00473769 1.08261e-17)
(0.00580706 0.00450249 9.68835e-18)
(0.00584403 0.00426854 6.28415e-18)
(0.00666356 0.0047501 1.92977e-17)
(0.00585104 0.00537675 1.6171e-17)
(0.00590643 0.00513155 1.18345e-17)
(0.00595564 0.00488951 1.12576e-17)
(0.00600097 0.00464844 9.90287e-18)
(0.00604255 0.00440847 5.54097e-18)
(0.00608054 0.00416974 4.37762e-18)
(0.00683278 0.00492384 1.75528e-17)
(0.00603045 0.00553998 1.68256e-17)
(0.0060908 0.00528922 1.18442e-17)
(0.00614491 0.00504138 1.09606e-17)
(0.00619496 0.00479438 8.85751e-18)
(0.0062411 0.00454835 4.40245e-18)
(0.00628347 0.00430342 3.03486e-18)
(0.00632221 0.0040597 4.70902e-18)
(0.00635749 0.00381725 8.13818e-18)
(0.00700227 0.00509804 1.6755e-17)
(0.00621019 0.00570352 1.416e-17)
(0.00627548 0.00544711 1.09774e-17)
(0.00633443 0.00519341 1.07515e-17)
(0.00638917 0.00494042 8.13631e-18)
(0.00643981 0.00468828 3.13217e-18)
(0.00648651 0.00443711 2.40168e-18)
(0.0065294 0.00418701 6.05875e-18)
(0.00656865 0.00393809 9.55853e-18)
(0.00660441 0.00369039 8.37446e-18)
(0.00717216 0.00527279 1.51216e-17)
(0.00639038 0.00586744 1.06385e-17)
(0.00646057 0.00560532 1.08869e-17)
(0.00652434 0.0053457 1.09027e-17)
(0.00658371 0.00508666 7.35254e-18)
(0.00663882 0.00482835 2.37414e-18)
(0.0066898 0.00457089 2.73646e-18)
(0.00673679 0.00431438 6.80449e-18)
(0.00677995 0.00405892 9.49174e-18)
(0.00681945 0.00380459 8.84227e-18)
(0.00685542 0.00355143 7.42443e-18)
(0.00688806 0.00329949 6.78584e-18)
(0.00691751 0.00304878 4.98439e-18)
(0.00694393 0.00279931 6.73266e-18)
(0.00734258 0.00544817 1.23904e-17)
(0.00657113 0.00603187 9.014e-18)
(0.0066462 0.00576396 1.0606e-17)
(0.00671474 0.00549834 1.04428e-17)
(0.00677871 0.0052332 6.43875e-18)
(0.00683824 0.00496865 2.17651e-18)
(0.00689346 0.00470485 3.48294e-18)
(0.00694452 0.00444188 7.13731e-18)
(0.00699155 0.00417985 9.37952e-18)
(0.00703472 0.00391884 9.3624e-18)
(0.00707418 0.00365889 8.25201e-18)
(0.0071101 0.00340005 7.81571e-18)
(0.00714263 0.00314235 6.16706e-18)
(0.00717192 0.00288578 7.59297e-18)
(0.00719814 0.00263035 9.90416e-18)
(0.00722143 0.00237601 9.48056e-18)
(0.00724194 0.00212273 1.03709e-17)
(0.0072598 0.00187044 6.67566e-18)
(0.00751365 0.00562427 8.22878e-18)
(0.00675255 0.0061969 8.9159e-18)
(0.00683246 0.00592313 1.02549e-17)
(0.00690575 0.00565145 9.83507e-18)
(0.00697429 0.00538012 5.61395e-18)
(0.00703821 0.00510929 2.51611e-18)
(0.00709763 0.00483909 4.16742e-18)
(0.00715271 0.00456961 7.16618e-18)
(0.00720357 0.00430096 9.22189e-18)
(0.00725038 0.00403322 9.51439e-18)
(0.00729329 0.00376644 8.48169e-18)
(0.00733244 0.00350068 7.70511e-18)
(0.00736801 0.00323595 6.19549e-18)
(0.00740013 0.00297227 7.65301e-18)
(0.00742896 0.00270964 9.88007e-18)
(0.00745465 0.00244802 9.42614e-18)
(0.00747733 0.00218737 1.00763e-17)
(0.00749713 0.00192765 7.88959e-18)
(0.00751417 0.00166878 2.02013e-18)
(0.00752856 0.00141067 9.9592e-19)
(0.00768549 0.00580117 4.77019e-18)
(0.00693474 0.00636263 8.51561e-18)
(0.00701949 0.00608291 9.91159e-18)
(0.00709749 0.0058051 9.28276e-18)
(0.00717057 0.00552754 5.19813e-18)
(0.00723884 0.00525036 3.28619e-18)
(0.00730244 0.00497369 5.03515e-18)
(0.00736149 0.00469765 6.9456e-18)
(0.00741615 0.00442233 9.05039e-18)
(0.00746656 0.00414781 9.61732e-18)
(0.00751287 0.00387417 8.76382e-18)
(0.00755523 0.00360144 7.14042e-18)
(0.0075938 0.00332966 5.95909e-18)
(0.00762871 0.00305884 6.96288e-18)
(0.00766012 0.00278898 9.22301e-18)
(0.00768817 0.00252005 9.65851e-18)
(0.00771299 0.00225203 1.02321e-17)
(0.0077347 0.00198487 9.85514e-18)
(0.00775343 0.00171849 2.86614e-18)
(0.00776927 0.00145283 -3.40968e-19)
(0.00778233 0.00118779 -3.16481e-19)
(0.00779267 0.000923274 -2.12427e-18)
(0.00780038 0.000659176 2.83039e-19)
(0.00780548 0.000395382 5.41433e-20)
(0.00785822 0.00597895 4.02992e-18)
(0.00711781 0.00652915 7.70459e-18)
(0.00720737 0.00624341 9.79186e-18)
(0.00729007 0.00595941 8.71959e-18)
(0.00736766 0.00567553 5.05184e-18)
(0.00744026 0.00539193 4.59814e-18)
(0.00750799 0.00510874 5.47025e-18)
(0.007571 0.00482607 5.95364e-18)
(0.00762942 0.00454403 8.53862e-18)
(0.0076834 0.0042627 9.83005e-18)
(0.00773308 0.00398214 9.32718e-18)
(0.00777861 0.00370241 7.01723e-18)
(0.00782014 0.00342354 6.15366e-18)
(0.00785781 0.00314554 5.99483e-18)
(0.00789177 0.00286843 7.80178e-18)
(0.00792214 0.00259218 9.67474e-18)
(0.00794907 0.00231676 1.06187e-17)
(0.00797267 0.00204214 1.13384e-17)
(0.00799306 0.00176825 3.17405e-18)
(0.00801033 0.00149502 -8.83721e-19)
(0.00802459 0.00122237 -1.07081e-19)
(0.00803589 0.000950205 -1.2982e-18)
(0.00804432 0.000678434 1.93848e-18)
(0.00804991 0.000406945 8.75022e-19)
(0.00805269 0.000135627 1.76623e-18)
(0.00805269 -0.000135633 1.60674e-17)
(0.00804991 -0.00040695 2.48887e-17)
(0.00804432 -0.000678439 1.5441e-17)
(0.00803589 -0.000950211 8.41172e-18)
(0.00803195 0.00615771 6.07659e-18)
(0.00730187 0.00669657 6.83718e-18)
(0.00739623 0.00640473 9.11541e-18)
(0.0074836 0.00611444 7.85649e-18)
(0.00756568 0.00582418 4.89078e-18)
(0.00764258 0.0055341 5.62344e-18)
(0.00771443 0.00524432 5.7087e-18)
(0.00778136 0.00495498 5.28678e-18)
(0.00784351 0.00466616 8.61931e-18)
(0.00790102 0.00437795 1.02638e-17)
(0.00795404 0.00409043 9.39682e-18)
(0.00800271 0.00380365 6.51465e-18)
(0.00804717 0.00351765 6.05715e-18)
(0.00808757 0.00323245 5.03805e-18)
(0.00812404 0.00294805 6.49618e-18)
(0.00815672 0.00266444 9.64541e-18)
(0.00818573 0.0023816 1.07507e-17)
(0.0082112 0.0020995 1.13613e-17)
(0.00823322 0.00181807 2.84832e-18)
(0.00825191 0.00153726 -1.08338e-18)
(0.00826734 0.00125699 3.80687e-19)
(0.00827959 0.000977169 -2.17636e-20)
(0.00828873 0.000697713 3.63363e-18)
(0.0082948 0.00041852 1.27209e-18)
(0.00829782 0.000139487 1.27311e-18)
(0.00829782 -0.000139493 1.58079e-17)
(0.00829479 -0.000418525 2.5017e-17)
(0.00828873 -0.000697718 1.60706e-17)
(0.00827959 -0.000977174 9.39476e-18)
(0.00826734 -0.00125699 1.54247e-17)
(0.00825191 -0.00153726 1.5144e-17)
(0.00823322 -0.00181808 1.21049e-17)
(0.00820679 0.00633752 8.47613e-18)
(0.00748702 0.00686497 6.56002e-18)
(0.00758616 0.00656695 8.3897e-18)
(0.0076782 0.00627031 7.12839e-18)
(0.00776474 0.00597359 4.51952e-18)
(0.00784592 0.00567696 6.09942e-18)
(0.00792186 0.00538053 6.34943e-18)
(0.00799268 0.00508443 5.78216e-18)
(0.00805854 0.00478878 9.24821e-18)
(0.00811956 0.00449364 1.0343e-17)
(0.00817589 0.00419911 9.12882e-18)
(0.00822766 0.00390524 6.25415e-18)
(0.00827503 0.00361206 5.67953e-18)
(0.00831813 0.00331961 4.48228e-18)
(0.00835709 0.00302788 5.11473e-18)
(0.00839205 0.00273689 9.03496e-18)
(0.00842312 0.0024466 1.05403e-17)
(0.00845042 0.00215699 1.04606e-17)
(0.00847407 0.00186801 2.85982e-18)
(0.00849415 0.00157959 -7.66408e-19)
(0.00851074 0.00129168 3.08765e-19)
(0.00852393 0.00100418 1.23935e-18)
(0.00853377 0.000717027 5.02961e-18)
(0.0085403 0.000430116 1.85786e-18)
(0.00854356 0.000143353 2.82665e-18)
(0.00854356 -0.000143359 1.64374e-17)
(0.0085403 -0.000430121 2.38933e-17)
(0.00853377 -0.000717032 1.59734e-17)
(0.00852393 -0.00100419 1.10099e-17)
(0.00851074 -0.00129168 1.69678e-17)
(0.00849414 -0.0015796 1.67975e-17)
(0.00847406 -0.00186801 1.59511e-17)
(0.00845042 -0.002157 3.43982e-17)
(0.00842312 -0.00244661 5.15068e-17)
(0.00838285 0.00651848 8.99162e-18)
(0.00767336 0.00703445 7.69968e-18)
(0.00777728 0.00673016 7.26825e-18)
(0.00787396 0.00642709 6.28165e-18)
(0.00796496 0.00612385 5.46349e-18)
(0.0080504 0.00582058 7.69072e-18)
(0.0081304 0.00551743 7.40266e-18)
(0.0082051 0.00521453 6.80559e-18)
(0.00827464 0.00491197 9.73129e-18)
(0.00833914 0.00460985 9.81028e-18)
(0.00839875 0.00430825 8.84789e-18)
(0.00845362 0.00400723 6.01757e-18)
(0.00850386 0.00370683 5.13417e-18)
(0.00854964 0.00340708 4.73206e-18)
(0.00859106 0.003108 4.30873e-18)
(0.00862827 0.00280958 7.91211e-18)
(0.00866138 0.00251181 9.35695e-18)
(0.0086905 0.00221465 8.90355e-18)
(0.00871575 0.00191808 3.31383e-18)
(0.0087372 0.00162204 1.30102e-19)
(0.00875495 0.00132646 1.16253e-19)
(0.00876906 0.00103127 2.17336e-18)
(0.00877959 0.00073639 6.04216e-18)
(0.00878659 0.00044174 1.76228e-18)
(0.00879008 0.00014723 2.9778e-18)
(0.00879008 -0.000147235 1.66193e-17)
(0.00878659 -0.000441745 2.29567e-17)
(0.00877959 -0.000736394 1.58927e-17)
(0.00876906 -0.00103127 1.33301e-17)
(0.00875495 -0.00132646 1.87284e-17)
(0.0087372 -0.00162204 1.72856e-17)
(0.00871574 -0.00191809 1.90021e-17)
(0.0086905 -0.00221466 4.56256e-17)
(0.00866137 -0.00251181 8.62359e-17)
(0.00856023 0.00670068 7.87769e-18)
(0.00786099 0.00720511 8.9089e-18)
(0.00796969 0.00689447 6.62425e-18)
(0.008071 0.00658489 6.40606e-18)
(0.00816644 0.00627503 6.94062e-18)
(0.00825613 0.00596506 8.58561e-18)
(0.00834018 0.00565512 8.11434e-18)
(0.00841874 0.00534533 8.02027e-18)
(0.00849193 0.00503581 1.00859e-17)
(0.00855989 0.00472664 8.94777e-18)
(0.00862277 0.00441791 8.08034e-18)
(0.00868069 0.00410969 5.56587e-18)
(0.0087338 0.00380201 4.79675e-18)
(0.00878222 0.00349492 5.57291e-18)
(0.00882609 0.00318843 4.16118e-18)
(0.00886553 0.00288255 6.80087e-18)
(0.00890066 0.00257725 8.36319e-18)
(0.00893158 0.00227253 8.3705e-18)
(0.0089584 0.00196834 3.46114e-18)
(0.00898122 0.00166463 3.29097e-19)
(0.0090001 0.00136135 3.73665e-19)
(0.00901513 0.00105844 2.70835e-18)
(0.00902635 0.000755815 6.47489e-18)
(0.0090338 0.000453402 1.31141e-18)
(0.00903752 0.000151118 2.76902e-18)
(0.00903752 -0.000151123 1.65289e-17)
(0.0090338 -0.000453407 2.13491e-17)
(0.00902635 -0.000755819 1.50626e-17)
(0.00901513 -0.00105844 1.49535e-17)
(0.0090001 -0.00136136 1.99269e-17)
(0.00898122 -0.00166463 1.7126e-17)
(0.0089584 -0.00196834 1.99753e-17)
(0.00893158 -0.00227253 5.18096e-17)
(0.00890065 -0.00257725 1.23259e-16)
(0.00873905 0.00688419 6.96304e-18)
(0.00805002 0.00737704 9.887e-18)
(0.0081635 0.00705995 6.15692e-18)
(0.00826944 0.00674377 6.74277e-18)
(0.0083693 0.00642723 8.51134e-18)
(0.00846322 0.00611048 9.02579e-18)
(0.00855131 0.00579367 8.55353e-18)
(0.00863371 0.00547692 8.67024e-18)
(0.00871054 0.00516036 1.00629e-17)
(0.00878195 0.00484409 8.08441e-18)
(0.00884806 0.00452817 7.20054e-18)
(0.00890903 0.00421268 5.56235e-18)
(0.00896497 0.00389768 5.03677e-18)
(0.00901602 0.00358319 6.35288e-18)
(0.00906231 0.00326925 4.3109e-18)
(0.00910396 0.00295585 6.06065e-18)
(0.00914109 0.00264299 7.96199e-18)
(0.0091738 0.00233065 8.14445e-18)
(0.00920219 0.0020188 2.37897e-18)
(0.00922635 0.00170739 -9.99213e-20)
(0.00924636 0.00139639 1.25873e-18)
(0.00926229 0.00108572 2.97794e-18)
(0.00927419 0.000775314 5.81251e-18)
(0.0092821 0.000465108 7.78594e-19)
(0.00928604 0.000155021 3.40625e-18)
(0.00928604 -0.000155026 1.57841e-17)
(0.00928209 -0.000465113 1.91501e-17)
(0.00927419 -0.000775319 1.43889e-17)
(0.00926229 -0.00108572 1.62579e-17)
(0.00924636 -0.00139639 1.96644e-17)
(0.00922635 -0.0017074 1.66069e-17)
(0.00920219 -0.0020188 2.17781e-17)
(0.00917379 -0.00233065 6.01349e-17)
(0.00914108 -0.00264299 1.54266e-16)
(0.0089194 0.00706913 7.54838e-18)
(0.00824055 0.00755033 1.10743e-17)
(0.00835881 0.00722671 5.83609e-18)
(0.00846936 0.00690385 7.46207e-18)
(0.00857365 0.00658053 9.42879e-18)
(0.00867179 0.00625692 8.70455e-18)
(0.00876391 0.00593316 8.96906e-18)
(0.00885013 0.00560939 8.79748e-18)
(0.00893059 0.00528572 1.02393e-17)
(0.00900542 0.00496226 7.77005e-18)
(0.00907476 0.00463909 6.55619e-18)
(0.00913875 0.00431628 5.53845e-18)
(0.00919751 0.00399388 4.85724e-18)
(0.00925117 0.00367195 6.52182e-18)
(0.00929987 0.00335049 4.62405e-18)
(0.00934372 0.00302952 5.25523e-18)
(0.00938283 0.00270905 7.39499e-18)
(0.0094173 0.00238905 7.54908e-18)
(0.00944725 0.0020695 8.93584e-19)
(0.00947275 0.00175036 -3.52663e-19)
(0.00949387 0.00143158 2.63129e-18)
(0.00951069 0.00111312 2.86518e-18)
(0.00952326 0.000794902 4.44732e-18)
(0.00953162 0.000476866 7.55539e-19)
(0.00953579 0.000158942 4.16136e-18)
(0.00953579 -0.000158946 1.43096e-17)
(0.00953162 -0.000476871 1.7484e-17)
(0.00952326 -0.000794906 1.46565e-17)
(0.00951069 -0.00111312 1.69341e-17)
(0.00949387 -0.00143159 1.83732e-17)
(0.00947274 -0.00175036 1.5052e-17)
(0.00944724 -0.0020695 2.10274e-17)
(0.0094173 -0.00238905 5.1105e-17)
(0.00938282 -0.00270905 1.27753e-16)
(0.00910139 0.00725557 8.57258e-18)
(0.00843269 0.00772508 1.20682e-17)
(0.00855572 0.00739482 6.09916e-18)
(0.0086709 0.00706519 8.51886e-18)
(0.0087796 0.00673501 1.00002e-17)
(0.00888196 0.00640445 9.08746e-18)
(0.00897809 0.00607367 9.17929e-18)
(0.00906812 0.00574279 8.47498e-18)
(0.0091522 0.00541194 1.05883e-17)
(0.00923044 0.00508122 7.09898e-18)
(0.009303 0.00475073 5.73867e-18)
(0.00936999 0.00442053 6.14557e-18)
(0.00943155 0.00409068 4.85929e-18)
(0.00948781 0.00376123 6.38229e-18)
(0.0095389 0.00343221 4.31132e-18)
(0.00958492 0.00310362 4.51336e-18)
(0.009626 0.00277548 6.75007e-18)
(0.00966224 0.00244777 6.06033e-18)
(0.00969372 0.00212047 -3.74106e-19)
(0.00972054 0.00179355 4.15288e-19)
(0.00974278 0.00146696 4.61112e-18)
(0.00976048 0.00114066 2.89881e-18)
(0.00977372 0.000814589 2.04221e-18)
(0.00978252 0.000488684 1.01132e-19)
(0.00978691 0.000162882 4.88914e-18)
(0.00978691 -0.000162886 1.31215e-17)
(0.00978252 -0.000488688 1.62103e-17)
(0.00977372 -0.000814593 1.49174e-17)
(0.00976048 -0.00114066 1.69183e-17)
(0.00974277 -0.00146697 1.70802e-17)
(0.00972054 -0.00179355 1.39336e-17)
(0.00969372 -0.00212048 2.05162e-17)
(0.00966223 -0.00244777 4.44954e-17)
(0.009626 -0.00277548 9.68508e-17)
(0.00928513 0.0074436 8.75123e-18)
(0.00862652 0.00790138 1.23886e-17)
(0.00875434 0.0075644 7.50687e-18)
(0.00887414 0.0072279 9.20967e-18)
(0.00898726 0.00689077 9.70313e-18)
(0.00909383 0.00655318 9.06056e-18)
(0.00919397 0.00621528 8.83372e-18)
(0.00928781 0.00587721 8.23341e-18)
(0.00937549 0.0055391 1.02578e-17)
(0.00945714 0.00520105 5.9823e-18)
(0.00953289 0.00486316 5.93385e-18)
(0.00960288 0.0045255 7.14665e-18)
(0.00966723 0.00418813 4.17616e-18)
(0.00972607 0.00385111 5.81361e-18)
(0.00977953 0.00351445 4.03101e-18)
(0.00982773 0.00317819 3.90594e-18)
(0.00987076 0.00284233 5.7537e-18)
(0.00990874 0.00250685 4.64523e-18)
(0.00994175 0.00217175 -9.47036e-19)
(0.00996989 0.001837 9.55515e-19)
(0.00999322 0.00150255 5.77566e-18)
(0.0100118 0.00116836 2.72064e-18)
(0.0100257 0.000834389 5.87633e-19)
(0.0100349 0.00050057 2.26694e-19)
(0.0100396 0.000166845 5.35478e-18)
(0.0100396 -0.000166848 1.24128e-17)
(0.0100349 -0.000500573 1.49449e-17)
(0.0100257 -0.000834393 1.43193e-17)
(0.0100118 -0.00116837 1.63572e-17)
(0.00999322 -0.00150255 1.5846e-17)
(0.00996989 -0.001837 1.25521e-17)
(0.00994175 -0.00217175 1.92999e-17)
(0.00990873 -0.00250685 3.66096e-17)
(0.00987075 -0.00284233 6.52556e-17)
(0.00947072 0.00763333 8.71964e-18)
(0.00882217 0.00807932 1.17879e-17)
(0.00895478 0.00773552 8.52155e-18)
(0.00907921 0.00739206 9.00378e-18)
(0.00919675 0.00704789 9.31197e-18)
(0.00930753 0.00670317 8.76986e-18)
(0.00941167 0.00635807 8.23512e-18)
(0.00950932 0.00601273 7.45866e-18)
(0.00960059 0.00566727 9.23912e-18)
(0.00968563 0.00532181 5.05898e-18)
(0.00976457 0.00497644 6.94414e-18)
(0.00983754 0.00463125 7.95906e-18)
(0.00990467 0.00428629 3.74921e-18)
(0.00996609 0.00394162 5.41168e-18)
(0.0100219 0.00359727 3.73138e-18)
(0.0100723 0.00325327 2.90321e-18)
(0.0101172 0.00290962 4.75739e-18)
(0.010157 0.00256633 3.65212e-18)
(0.0101915 0.00222337 -6.55338e-19)
(0.0102209 0.00188072 1.54379e-18)
(0.0102453 0.00153836 6.203e-18)
(0.0102648 0.00119624 2.77206e-18)
(0.0102794 0.000854314 -6.80054e-20)
(0.010289 0.000512529 2.94195e-19)
(0.0102939 0.000170832 5.37539e-18)
(0.0102939 -0.000170836 1.19808e-17)
(0.010289 -0.000512533 1.43296e-17)
(0.0102794 -0.000854317 1.37383e-17)
(0.0102648 -0.00119624 1.51045e-17)
(0.0102453 -0.00153836 1.44428e-17)
(0.0102209 -0.00188073 1.14655e-17)
(0.0101915 -0.00222337 1.71083e-17)
(0.0101569 -0.00256633 2.93258e-17)
(0.0101172 -0.00290962 4.41174e-17)
(0.00965827 0.00782484 9.43815e-18)
(0.00901973 0.008259 1.09685e-17)
(0.00915714 0.00790827 8.95136e-18)
(0.0092862 0.00755776 8.04794e-18)
(0.00940817 0.00720645 9.17011e-18)
(0.00952316 0.00685452 8.66697e-18)
(0.00963131 0.00650212 8.13806e-18)
(0.00973276 0.00614942 7.35928e-18)
(0.00982762 0.00579653 8.33713e-18)
(0.00991605 0.00544357 5.10714e-18)
(0.00999817 0.00509065 7.68001e-18)
(0.0100741 0.00473784 8.17325e-18)
(0.010144 0.00438522 4.06575e-18)
(0.010208 0.00403283 5.6153e-18)
(0.0102662 0.00368072 3.3032e-18)
(0.0103187 0.00332891 1.68525e-18)
(0.0103656 0.00297741 3.54101e-18)
(0.010407 0.00262623 3.01572e-18)
(0.0104431 0.00227535 -1.13566e-19)
(0.0104738 0.00192476 1.73559e-18)
(0.0104993 0.00157442 6.83367e-18)
(0.0105196 0.00122431 3.11686e-18)
(0.0105348 0.000874375 -5.79803e-19)
(0.010545 0.000524571 9.14055e-20)
(0.01055 0.000174847 5.03701e-18)
(0.01055 -0.00017485 1.13447e-17)
(0.010545 -0.000524574 1.37241e-17)
(0.0105348 -0.000874378 1.31271e-17)
(0.0105196 -0.00122431 1.40272e-17)
(0.0104993 -0.00157443 1.35761e-17)
(0.0104738 -0.00192476 1.02416e-17)
(0.0104431 -0.00227535 1.48718e-17)
(0.010407 -0.00262623 2.40794e-17)
(0.0103656 -0.00297741 3.10685e-17)
(0.00984788 0.00801823 9.90828e-18)
(0.0092193 0.00844052 1.02839e-17)
(0.00936154 0.00808276 8.45689e-18)
(0.00949524 0.00772509 7.70376e-18)
(0.00962164 0.00736654 9.60396e-18)
(0.00974085 0.00700729 8.97206e-18)
(0.00985301 0.00664751 8.45403e-18)
(0.00995825 0.00628735 6.77488e-18)
(0.0100567 0.00592694 7.09292e-18)
(0.0101485 0.00556641 6.24622e-18)
(0.0102338 0.00520585 7.80779e-18)
(0.0103127 0.00484534 7.65667e-18)
(0.0103854 0.00448497 4.4103e-18)
(0.0104519 0.00412479 5.82975e-18)
(0.0105124 0.00376484 2.89719e-18)
(0.0105671 0.00340515 8.01783e-19)
(0.0106159 0.00304573 2.30398e-18)
(0.0106591 0.00268659 2.95455e-18)
(0.0106966 0.00232773 3.54539e-19)
(0.0107287 0.00196913 1.59028e-18)
(0.0107552 0.00161076 7.42085e-18)
(0.0107764 0.00125259 3.32296e-18)
(0.0107923 0.000894586 -9.49554e-19)
(0.0108028 0.000536702 -4.83388e-20)
(0.0108081 0.000178891 4.44289e-18)
(0.0108081 -0.000178894 1.02936e-17)
(0.0108028 -0.000536705 1.27434e-17)
(0.0107923 -0.000894589 1.28472e-17)
(0.0107764 -0.00125259 1.34629e-17)
(0.0107552 -0.00161076 1.28527e-17)
(0.0107286 -0.00196913 9.21813e-18)
(0.0106966 -0.00232773 1.32767e-17)
(0.0106591 -0.00268659 2.01655e-17)
(0.0106159 -0.00304573 2.25437e-17)
(0.0105671 -0.00340514 5.77364e-18)
(0.0100396 0.00821361 7.53948e-18)
(0.009421 0.00862397 9.22434e-18)
(0.00956808 0.00825907 7.83917e-18)
(0.00970644 0.00789414 7.28335e-18)
(0.00983727 0.00752825 9.999e-18)
(0.00996071 0.00716159 8.79633e-18)
(0.0100769 0.00679432 8.78428e-18)
(0.0101859 0.00642661 6.42119e-18)
(0.010288 0.00605859 6.49215e-18)
(0.0103832 0.00569038 6.8134e-18)
(0.0104716 0.00532209 6.64351e-18)
(0.0105535 0.00495381 7.08511e-18)
(0.0106289 0.00458561 5.35356e-18)
(0.010698 0.00421755 5.84702e-18)
(0.0107609 0.00384968 2.54234e-18)
(0.0108176 0.00348203 2.23552e-19)
(0.0108684 0.00311462 1.66152e-18)
(0.0109133 0.00274746 3.41369e-18)
(0.0109523 0.00238054 3.99566e-19)
(0.0109856 0.00201386 1.54531e-18)
(0.0110133 0.00164738 7.64024e-18)
(0.0110353 0.0012811 3.13017e-18)
(0.0110518 0.000914957 -6.02813e-19)
(0.0110628 0.000548929 9.51678e-19)
(0.0110683 0.000182968 3.98696e-18)
(0.0110683 -0.000182971 8.43364e-18)
(0.0110628 -0.000548932 1.14994e-17)
(0.0110518 -0.00091496 1.27163e-17)
(0.0110353 -0.0012811 1.25704e-17)
(0.0110133 -0.00164739 1.17318e-17)
(0.0109856 -0.00201386 8.50032e-18)
(0.0109523 -0.00238054 1.18869e-17)
(0.0109133 -0.00274746 1.75449e-17)
(0.0108684 -0.00311462 1.70396e-17)
(0.0108176 -0.00348203 5.29953e-18)
(0.0102337 0.00841106 4.05606e-18)
(0.00962493 0.00880945 8.16679e-18)
(0.00977687 0.0084373 7.47802e-18)
(0.0099199 0.00806501 6.98886e-18)
(0.0100552 0.00769167 1.05315e-17)
(0.0101829 0.00731749 8.61694e-18)
(0.010303 0.00694263 9.12802e-18)
(0.0104159 0.00656727 6.1556e-18)
(0.0105215 0.00619154 6.12578e-18)
(0.0106201 0.00581556 6.70595e-18)
(0.0107117 0.00543945 5.90016e-18)
(0.0107966 0.0050633 7.0704e-18)
(0.0108748 0.00468718 5.89966e-18)
(0.0109464 0.00431116 5.41397e-18)
(0.0110116 0.00393529 2.70645e-18)
(0.0110705 0.0035596 5.78699e-19)
(0.0111232 0.00318412 1.35629e-18)
(0.0111697 0.00280886 2.71526e-18)
(0.0112103 0.00243381 -3.53794e-19)
(0.0112449 0.00205897 1.4933e-18)
(0.0112736 0.00168432 6.80781e-18)
(0.0112965 0.00130985 3.15596e-18)
(0.0113136 0.000935502 9.65605e-19)
(0.0113251 0.00056126 2.50554e-18)
(0.0113307 0.000187079 3.62824e-18)
(0.0113307 -0.000187081 6.52212e-18)
(0.0113251 -0.000561262 1.06357e-17)
(0.0113136 -0.000935505 1.27881e-17)
(0.0112965 -0.00130985 1.13912e-17)
(0.0112736 -0.00168433 1.03408e-17)
(0.0112449 -0.00205897 8.06654e-18)
(0.0112103 -0.00243381 1.04432e-17)
(0.0111697 -0.00280885 1.51792e-17)
(0.0111231 -0.00318412 1.3378e-17)
(0.0110705 -0.0035596 5.44496e-18)
(0.0104301 0.00861069 2.06643e-18)
(0.00983121 0.00899706 7.75857e-18)
(0.00998802 0.00861755 7.45066e-18)
(0.0101357 0.00823777 6.8555e-18)
(0.0102755 0.00785688 1.09787e-17)
(0.0104074 0.00747507 8.81048e-18)
(0.0105316 0.00709253 9.04906e-18)
(0.0106483 0.00670941 5.67554e-18)
(0.0107575 0.00632586 5.53622e-18)
(0.0108595 0.00594202 6.31067e-18)
(0.0109543 0.00555799 5.68044e-18)
(0.0110421 0.00517388 6.97606e-18)
(0.011123 0.00478975 5.62545e-18)
(0.0111972 0.00440568 4.67032e-18)
(0.0112647 0.00402172 3.16788e-18)
(0.0113257 0.00363791 1.38061e-18)
(0.0113803 0.00325427 8.39324e-19)
(0.0114286 0.00287083 1.53545e-18)
(0.0114706 0.00248757 -1.11493e-18)
(0.0115065 0.0021045 1.42147e-18)
(0.0115363 0.0017216 5.37193e-18)
(0.0115601 0.00133885 3.42482e-18)
(0.0115779 0.000956232 3.2259e-18)
(0.0115897 0.000573701 3.92705e-18)
(0.0115956 0.000191227 3.38276e-18)
(0.0115956 -0.000191229 5.21974e-18)
(0.0115897 -0.000573704 9.90885e-18)
(0.0115779 -0.000956234 1.28646e-17)
(0.0115601 -0.00133886 1.05661e-17)
(0.0115363 -0.0017216 9.10384e-18)
(0.0115065 -0.0021045 7.76141e-18)
(0.0114706 -0.00248757 8.69732e-18)
(0.0114286 -0.00287082 1.31884e-17)
(0.0113803 -0.00325427 1.13235e-17)
(0.010629 0.00881261 1.62751e-18)
(0.0100399 0.00918691 8.45185e-18)
(0.0102016 0.00879991 7.69415e-18)
(0.0103541 0.00841254 6.54459e-18)
(0.0104983 0.00802397 1.0958e-17)
(0.0106345 0.00763443 9.0468e-18)
(0.0107627 0.00724408 7.8703e-18)
(0.0108832 0.0068531 4.97141e-18)
(0.0109961 0.00646164 5.30319e-18)
(0.0111014 0.00606983 6.34094e-18)
(0.0111994 0.00567779 5.99008e-18)
(0.0112902 0.00528561 6.52509e-18)
(0.0113739 0.00489338 4.95366e-18)
(0.0114506 0.00450116 4.27108e-18)
(0.0115204 0.00410902 3.73543e-18)
(0.0115836 0.003717 1.78705e-18)
(0.0116401 0.00332512 3.4262e-19)
(0.0116901 0.0029334 1.04617e-18)
(0.0117336 0.00254185 -1.19418e-18)
(0.0117707 0.00215047 1.46817e-18)
(0.0118016 0.00175924 4.43574e-18)
(0.0118262 0.00136814 3.68566e-18)
(0.0118446 0.000977159 4.74079e-18)
(0.0118569 0.000586261 4.55835e-18)
(0.011863 0.000195414 2.83174e-18)
(0.011863 -0.000195416 4.2628e-18)
(0.0118569 -0.000586263 9.35487e-18)
(0.0118446 -0.000977161 1.33106e-17)
(0.0118262 -0.00136814 1.04966e-17)
(0.0118016 -0.00175924 8.10944e-18)
(0.0117707 -0.00215047 7.42138e-18)
(0.0117336 -0.00254185 7.43127e-18)
(0.01169 -0.0029334 1.1719e-17)
(0.0116401 -0.00332512 1.03086e-17)
(0.0108305 0.00901691 1.31961e-18)
(0.0102512 0.00937908 9.10979e-18)
(0.0104179 0.00898449 7.30787e-18)
(0.010575 0.0085894 6.41475e-18)
(0.0107238 0.00819305 1.09242e-17)
(0.0108642 0.00779565 8.87152e-18)
(0.0109965 0.00739739 6.63181e-18)
(0.0111208 0.00699844 4.74791e-18)
(0.0112373 0.00659895 5.36616e-18)
(0.011346 0.00619906 6.35743e-18)
(0.0114472 0.0057989 6.12418e-18)
(0.011541 0.00539855 5.92928e-18)
(0.0116274 0.00499811 4.71592e-18)
(0.0117067 0.00459766 4.06062e-18)
(0.0117789 0.00419725 3.816e-18)
(0.0118441 0.00379691 1.86506e-18)
(0.0119025 0.0033967 2.85851e-19)
(0.0119542 0.00299662 1.16766e-18)
(0.0119992 0.00259669 -1.08123e-18)
(0.0120377 0.0021969 1.33656e-18)
(0.0120696 0.00179725 3.96856e-18)
(0.012095 0.00139772 3.86998e-18)
(0.0121141 0.000998295 5.24816e-18)
(0.0121268 0.000598946 4.71916e-18)
(0.0121331 0.000199643 2.55917e-18)
(0.0121331 -0.000199645 3.63984e-18)
(0.0121268 -0.000598947 8.82759e-18)
(0.0121141 -0.000998297 1.34026e-17)
(0.012095 -0.00139772 1.05458e-17)
(0.0120696 -0.00179725 7.49099e-18)
(0.0120376 -0.0021969 6.8116e-18)
(0.0119992 -0.00259668 6.63592e-18)
(0.0119542 -0.00299662 1.11439e-17)
(0.0119025 -0.0033967 1.01839e-17)
(0.0110348 0.0092237 8.87844e-19)
(0.0104652 0.0095737 9.72277e-18)
(0.0106368 0.00917137 6.58925e-18)
(0.0107987 0.00876844 5.80824e-18)
(0.010952 0.00836419 1.04146e-17)
(0.0110967 0.00795882 8.92081e-18)
(0.0112331 0.00755252 6.16495e-18)
(0.0113613 0.00714549 4.40126e-18)
(0.0114813 0.00673786 5.13168e-18)
(0.0115935 0.00632979 6.43421e-18)
(0.0116979 0.00592139 6.14351e-18)
(0.0117946 0.00551277 5.33206e-18)
(0.0118838 0.00510402 4.61908e-18)
(0.0119656 0.00469523 4.17077e-18)
(0.0120401 0.00428643 3.94071e-18)
(0.0121075 0.0038777 1.67416e-18)
(0.0121678 0.00346905 2.52952e-19)
(0.0122212 0.00306052 1.45781e-18)
(0.0122677 0.00265211 -1.03212e-18)
(0.0123074 0.00224382 8.73375e-19)
(0.0123404 0.00183566 3.75186e-18)
(0.0123667 0.00142761 3.98023e-18)
(0.0123864 0.00101965 4.94893e-18)
(0.0123995 0.000611763 4.46009e-18)
(0.0124061 0.000203916 2.92813e-18)
(0.0124061 -0.000203918 3.36403e-18)
(0.0123995 -0.000611765 8.41554e-18)
(0.0123864 -0.00101965 1.36298e-17)
(0.0123667 -0.00142761 1.03893e-17)
(0.0123404 -0.00183566 6.89617e-18)
(0.0123074 -0.00224382 6.09776e-18)
(0.0122677 -0.0026521 5.99659e-18)
(0.0122212 -0.00306051 1.06024e-17)
(0.0121678 -0.00346905 9.86879e-18)
(0.0112418 0.0094331 1.62401e-18)
(0.0106819 0.00977086 9.18843e-18)
(0.0108585 0.00936067 5.51804e-18)
(0.0110253 0.00894978 6.051e-18)
(0.0111831 0.00853749 1.0101e-17)
(0.0113321 0.00812403 8.69916e-18)
(0.0114726 0.00770958 4.96244e-18)
(0.0116046 0.00729434 3.49229e-18)
(0.0117284 0.00687845 5.12322e-18)
(0.0118439 0.00646208 7.15922e-18)
(0.0119515 0.00604533 6.72064e-18)
(0.0120512 0.00562833 4.86773e-18)
(0.0121432 0.00521117 4.56933e-18)
(0.0122275 0.00479392 4.39858e-18)
(0.0123044 0.00437664 4.00135e-18)
(0.0123739 0.0039594 1.744e-18)
(0.0124362 0.00354222 2.54961e-19)
(0.0124912 0.00312513 1.43108e-18)
(0.0125392 0.00270814 -1.65548e-18)
(0.0125802 0.00229127 -4.97951e-19)
(0.0126142 0.0018745 3.57514e-18)
(0.0126414 0.00145783 4.60644e-18)
(0.0126618 0.00104125 4.76704e-18)
(0.0126753 0.000624721 4.08722e-18)
(0.0126821 0.000208236 3.54367e-18)
(0.0126821 -0.000208237 3.47213e-18)
(0.0126753 -0.000624722 8.13571e-18)
(0.0126618 -0.00104125 1.40925e-17)
(0.0126414 -0.00145783 1.04902e-17)
(0.0126142 -0.0018745 6.27707e-18)
(0.0125802 -0.00229127 4.73011e-18)
(0.0125392 -0.00270814 5.29896e-18)
(0.0124912 -0.00312512 1.0189e-17)
(0.0114518 0.00964521 3.67941e-18)
(0.0109016 0.00997067 8.74285e-18)
(0.0110833 0.00955249 5.28228e-18)
(0.0112548 0.00913351 6.2404e-18)
(0.0114172 0.00871306 9.10697e-18)
(0.0115706 0.00829137 7.93362e-18)
(0.0117152 0.00786864 4.81849e-18)
(0.0118511 0.00744507 3.65265e-18)
(0.0119785 0.00702081 5.19272e-18)
(0.0120975 0.00659601 7.73679e-18)
(0.0122082 0.0061708 7.58991e-18)
(0.0123109 0.0057453 4.29023e-18)
(0.0124057 0.0053196 4.21405e-18)
(0.0124926 0.00489379 4.42585e-18)
(0.0125718 0.00446793 3.75642e-18)
(0.0126435 0.00404206 1.54202e-18)
(0.0127076 0.00361624 4.77467e-19)
(0.0127644 0.00319049 1.61711e-18)
(0.0128139 0.00276483 -2.35595e-18)
(0.0128561 0.00233926 -1.48143e-18)
(0.0128912 0.00191378 3.55682e-18)
(0.0129193 0.0014884 5.04831e-18)
(0.0129402 0.00106308 4.71122e-18)
(0.0129542 0.000637827 3.5755e-18)
(0.0129612 0.000212604 4.04891e-18)
(0.0129612 -0.000212606 4.1596e-18)
(0.0129542 -0.000637828 7.90137e-18)
(0.0129402 -0.00106308 1.40502e-17)
(0.0129193 -0.0014884 1.05846e-17)
(0.0128912 -0.00191378 6.12403e-18)
(0.0128561 -0.00233926 3.47603e-18)
(0.0128139 -0.00276482 3.92723e-18)
(0.0127644 -0.00319049 9.64476e-18)
(0.0116649 0.00986016 6.18723e-18)
(0.0111243 0.0101732 7.44768e-18)
(0.011311 0.00974694 5.00741e-18)
(0.0114874 0.00931972 6.01537e-18)
(0.0116544 0.00889098 7.91169e-18)
(0.0118122 0.00846094 7.56777e-18)
(0.0119609 0.0080298 5.37374e-18)
(0.0121007 0.00759777 3.70899e-18)
(0.0122318 0.007165 5.16962e-18)
(0.0123542 0.00673165 7.82966e-18)
(0.0124682 0.00629786 8.15013e-18)
(0.0125739 0.00586374 4.00251e-18)
(0.0126715 0.0054294 3.68738e-18)
(0.012761 0.0049949 4.24699e-18)
(0.0128425 0.00456033 3.51848e-18)
(0.0129163 0.00412574 1.23811e-18)
(0.0129824 0.00369117 4.96725e-19)
(0.0130409 0.00325664 1.60815e-18)
(0.0130918 0.00282219 -2.48901e-18)
(0.0131354 0.00238782 -1.72812e-18)
(0.0131716 0.00195354 3.36014e-18)
(0.0132004 0.00151933 5.10692e-18)
(0.0132221 0.00108518 4.83692e-18)
(0.0132364 0.000651087 3.1004e-18)
(0.0132436 0.000217025 4.36955e-18)
(0.0132436 -0.000217026 5.36287e-18)
(0.0132364 -0.000651088 7.89182e-18)
(0.0132221 -0.00108518 1.32631e-17)
(0.0132004 -0.00151933 1.03336e-17)