/*--------------------------------*- C++ -*----------------------------------*\
  =========                 |
  \\      /  F ield         | OpenFOAM: The Open Source CFD Toolbox
   \\    /   O peration     | Website:  https://openfoam.org
    \\  /    A nd           | Version:  7
     \\/     M anipulation  |
\*---------------------------------------------------------------------------*/
FoamFile
{
    version     2.0;
    format      ascii;
    class       volScalarField;
    location    "44000";
    object      k;
}
// * * * * * * * * * * * * * * * * * * * * * * * * * * * * * * * * * * * * * //

dimensions      [0 2 -2 0 0 0 0];

internalField   nonuniform List<scalar> 
1777
(
1.31627e-06
1.31356e-06
1.31085e-06
1.30814e-06
1.30549e-06
1.30293e-06
1.30052e-06
1.29829e-06
1.29627e-06
1.29449e-06
1.32051e-06
1.31799e-06
1.31546e-06
1.31293e-06
1.31044e-06
1.30804e-06
1.30577e-06
1.30367e-06
1.30177e-06
1.30009e-06
1.32425e-06
1.32193e-06
1.31959e-06
1.31724e-06
1.31492e-06
1.31267e-06
1.31055e-06
1.30858e-06
1.3068e-06
1.30522e-06
1.3275e-06
1.32537e-06
1.32322e-06
1.32105e-06
1.3189e-06
1.31681e-06
1.31484e-06
1.313e-06
1.31134e-06
1.30986e-06
1.33023e-06
1.3283e-06
1.32634e-06
1.32435e-06
1.32237e-06
1.32045e-06
1.31862e-06
1.31692e-06
1.31537e-06
1.314e-06
1.33242e-06
1.33069e-06
1.32893e-06
1.32712e-06
1.32532e-06
1.32356e-06
1.32188e-06
1.32032e-06
1.3189e-06
1.31763e-06
1.33406e-06
1.33254e-06
1.33097e-06
1.32935e-06
1.32773e-06
1.32613e-06
1.32461e-06
1.32318e-06
1.32188e-06
1.32073e-06
1.33513e-06
1.33381e-06
1.33244e-06
1.33102e-06
1.32957e-06
1.32815e-06
1.32678e-06
1.32549e-06
1.32432e-06
1.32327e-06
1.33559e-06
1.33449e-06
1.33332e-06
1.33209e-06
1.33083e-06
1.32958e-06
1.32837e-06
1.32723e-06
1.32618e-06
1.32524e-06
1.33544e-06
1.33455e-06
1.33359e-06
1.33256e-06
1.33149e-06
1.33041e-06
1.32936e-06
1.32836e-06
1.32744e-06
1.32662e-06
1.33463e-06
1.33396e-06
1.33322e-06
1.33239e-06
1.33151e-06
1.33061e-06
1.32972e-06
1.32887e-06
1.32808e-06
1.32737e-06
1.33315e-06
1.3327e-06
1.33217e-06
1.33155e-06
1.33086e-06
1.33015e-06
1.32943e-06
1.32873e-06
1.32808e-06
1.32748e-06
1.33095e-06
1.33073e-06
1.33043e-06
1.33001e-06
1.32953e-06
1.329e-06
1.32845e-06
1.32791e-06
1.32739e-06
1.32691e-06
1.32799e-06
1.32801e-06
1.32794e-06
1.32774e-06
1.32746e-06
1.32712e-06
1.32675e-06
1.32636e-06
1.32598e-06
1.32563e-06
1.32425e-06
1.32451e-06
1.32467e-06
1.3247e-06
1.32462e-06
1.32448e-06
1.32429e-06
1.32406e-06
1.32383e-06
1.3236e-06
1.31967e-06
1.32018e-06
1.32058e-06
1.32083e-06
1.32098e-06
1.32103e-06
1.32102e-06
1.32097e-06
1.32088e-06
1.32077e-06
1.3142e-06
1.31496e-06
1.31561e-06
1.3161e-06
1.31647e-06
1.31673e-06
1.31691e-06
1.31702e-06
1.31709e-06
1.31711e-06
1.30778e-06
1.30881e-06
1.30972e-06
1.31046e-06
1.31105e-06
1.31152e-06
1.31189e-06
1.31218e-06
1.3124e-06
1.31256e-06
1.30037e-06
1.30167e-06
1.30284e-06
1.30383e-06
1.30466e-06
1.30535e-06
1.30592e-06
1.30639e-06
1.30677e-06
1.30707e-06
1.29187e-06
1.29346e-06
1.2949e-06
1.29615e-06
1.29722e-06
1.29814e-06
1.29892e-06
1.29957e-06
1.30012e-06
1.30056e-06
1.28223e-06
1.28411e-06
1.28584e-06
1.28735e-06
1.28868e-06
1.28983e-06
1.29082e-06
1.29167e-06
1.29238e-06
1.29297e-06
1.27135e-06
1.27354e-06
1.27556e-06
1.27735e-06
1.27894e-06
1.28033e-06
1.28154e-06
1.28259e-06
1.28348e-06
1.28422e-06
1.25913e-06
1.26164e-06
1.26397e-06
1.26605e-06
1.26791e-06
1.26956e-06
1.271e-06
1.27225e-06
1.27332e-06
1.27422e-06
1.24548e-06
1.31627e-06
1.32051e-06
1.32425e-06
1.3275e-06
1.33023e-06
1.33242e-06
1.33406e-06
1.33513e-06
1.33559e-06
1.33544e-06
1.33463e-06
1.33315e-06
1.33095e-06
1.32799e-06
1.32425e-06
1.31967e-06
1.3142e-06
1.30778e-06
1.30037e-06
1.29187e-06
1.28223e-06
1.27135e-06
1.25913e-06
1.24548e-06
1.31356e-06
1.31799e-06
1.32193e-06
1.32537e-06
1.3283e-06
1.33069e-06
1.33254e-06
1.33381e-06
1.33449e-06
1.33455e-06
1.33396e-06
1.3327e-06
1.33073e-06
1.32801e-06
1.32451e-06
1.32018e-06
1.31496e-06
1.30881e-06
1.30167e-06
1.29346e-06
1.28411e-06
1.27354e-06
1.26164e-06
1.24833e-06
1.31085e-06
1.31546e-06
1.31959e-06
1.32322e-06
1.32634e-06
1.32893e-06
1.33097e-06
1.33244e-06
1.33332e-06
1.33359e-06
1.33322e-06
1.33217e-06
1.33043e-06
1.32794e-06
1.32467e-06
1.32058e-06
1.31561e-06
1.30972e-06
1.30284e-06
1.2949e-06
1.28584e-06
1.27556e-06
1.26397e-06
1.25097e-06
1.30814e-06
1.31293e-06
1.31724e-06
1.32105e-06
1.32435e-06
1.32712e-06
1.32935e-06
1.33102e-06
1.33209e-06
1.33256e-06
1.33239e-06
1.33155e-06
1.33001e-06
1.32774e-06
1.3247e-06
1.32083e-06
1.3161e-06
1.31046e-06
1.30383e-06
1.29615e-06
1.28735e-06
1.27735e-06
1.26605e-06
1.25336e-06
1.30549e-06
1.31044e-06
1.31492e-06
1.3189e-06
1.32237e-06
1.32532e-06
1.32773e-06
1.32957e-06
1.33083e-06
1.33149e-06
1.33151e-06
1.33086e-06
1.32953e-06
1.32746e-06
1.32462e-06
1.32098e-06
1.31647e-06
1.31105e-06
1.30466e-06
1.29722e-06
1.28868e-06
1.27894e-06
1.26791e-06
1.25549e-06
1.30293e-06
1.30804e-06
1.31267e-06
1.31681e-06
1.32045e-06
1.32356e-06
1.32613e-06
1.32815e-06
1.32958e-06
1.33041e-06
1.33061e-06
1.33015e-06
1.329e-06
1.32712e-06
1.32448e-06
1.32103e-06
1.31673e-06
1.31152e-06
1.30535e-06
1.29814e-06
1.28983e-06
1.28033e-06
1.26956e-06
1.2574e-06
1.30052e-06
1.30577e-06
1.31055e-06
1.31484e-06
1.31862e-06
1.32188e-06
1.32461e-06
1.32678e-06
1.32837e-06
1.32936e-06
1.32972e-06
1.32943e-06
1.32845e-06
1.32675e-06
1.32429e-06
1.32102e-06
1.31691e-06
1.31189e-06
1.30592e-06
1.29892e-06
1.29082e-06
1.28154e-06
1.271e-06
1.25908e-06
1.29829e-06
1.30367e-06
1.30858e-06
1.313e-06
1.31692e-06
1.32032e-06
1.32318e-06
1.32549e-06
1.32723e-06
1.32836e-06
1.32887e-06
1.32873e-06
1.32791e-06
1.32636e-06
1.32406e-06
1.32097e-06
1.31702e-06
1.31218e-06
1.30639e-06
1.29957e-06
1.29167e-06
1.28259e-06
1.27225e-06
1.26054e-06
1.29627e-06
1.30177e-06
1.3068e-06
1.31134e-06
1.31537e-06
1.3189e-06
1.32188e-06
1.32432e-06
1.32618e-06
1.32744e-06
1.32808e-06
1.32808e-06
1.32739e-06
1.32598e-06
1.32383e-06
1.32088e-06
1.31709e-06
1.3124e-06
1.30677e-06
1.30012e-06
1.29238e-06
1.28348e-06
1.27332e-06
1.2618e-06
1.29449e-06
1.30009e-06
1.30522e-06
1.30986e-06
1.314e-06
1.31763e-06
1.32073e-06
1.32327e-06
1.32524e-06
1.32662e-06
1.32737e-06
1.32748e-06
1.32691e-06
1.32563e-06
1.3236e-06
1.32077e-06
1.31711e-06
1.31256e-06
1.30707e-06
1.30056e-06
1.29297e-06
1.28422e-06
1.27422e-06
1.26287e-06
1.29297e-06
1.29866e-06
1.30387e-06
1.3086e-06
1.31283e-06
1.31655e-06
1.31973e-06
1.32237e-06
1.32443e-06
1.3259e-06
1.32676e-06
1.32696e-06
1.32649e-06
1.32531e-06
1.32339e-06
1.32067e-06
1.31712e-06
1.31268e-06
1.3073e-06
1.30091e-06
1.29344e-06
1.28482e-06
1.27495e-06
1.26374e-06
1.29174e-06
1.29749e-06
1.30277e-06
1.30757e-06
1.31188e-06
1.31566e-06
1.31892e-06
1.32163e-06
1.32377e-06
1.32532e-06
1.32625e-06
1.32653e-06
1.32614e-06
1.32504e-06
1.3232e-06
1.32057e-06
1.31711e-06
1.31276e-06
1.30747e-06
1.30118e-06
1.29381e-06
1.28529e-06
1.27553e-06
1.26442e-06
1.29079e-06
1.2966e-06
1.30194e-06
1.30679e-06
1.31115e-06
1.31499e-06
1.3183e-06
1.32106e-06
1.32326e-06
1.32487e-06
1.32585e-06
1.3262e-06
1.32587e-06
1.32483e-06
1.32305e-06
1.32049e-06
1.31709e-06
1.31281e-06
1.30759e-06
1.30138e-06
1.29408e-06
1.28564e-06
1.27596e-06
1.26494e-06
1.29016e-06
1.296e-06
1.30137e-06
1.30626e-06
1.31065e-06
1.31453e-06
1.31788e-06
1.32068e-06
1.32292e-06
1.32456e-06
1.32559e-06
1.32597e-06
1.32568e-06
1.32469e-06
1.32295e-06
1.32043e-06
1.31708e-06
1.31284e-06
1.30767e-06
1.3015e-06
1.29426e-06
1.28587e-06
1.27624e-06
1.26527e-06
1.28984e-06
1.2957e-06
1.30109e-06
1.306e-06
1.31041e-06
1.3143e-06
1.31767e-06
1.32049e-06
1.32274e-06
1.32441e-06
1.32545e-06
1.32586e-06
1.32559e-06
1.32462e-06
1.3229e-06
1.3204e-06
1.31707e-06
1.31286e-06
1.30771e-06
1.30157e-06
1.29435e-06
1.28598e-06
1.27638e-06
1.26544e-06
1.28984e-06
1.2957e-06
1.30109e-06
1.306e-06
1.31041e-06
1.3143e-06
1.31767e-06
1.32049e-06
1.32274e-06
1.32441e-06
1.32545e-06
1.32586e-06
1.32559e-06
1.32462e-06
1.3229e-06
1.3204e-06
1.31707e-06
1.31286e-06
1.30771e-06
1.30157e-06
1.29435e-06
1.28598e-06
1.27638e-06
1.26544e-06
1.29016e-06
1.296e-06
1.30137e-06
1.30626e-06
1.31065e-06
1.31453e-06
1.31788e-06
1.32068e-06
1.32292e-06
1.32456e-06
1.32559e-06
1.32597e-06
1.32568e-06
1.32469e-06
1.32295e-06
1.32043e-06
1.31708e-06
1.31284e-06
1.30767e-06
1.3015e-06
1.29426e-06
1.28587e-06
1.27624e-06
1.26527e-06
1.29079e-06
1.2966e-06
1.30194e-06
1.30679e-06
1.31115e-06
1.31499e-06
1.3183e-06
1.32106e-06
1.32326e-06
1.32487e-06
1.32585e-06
1.3262e-06
1.32587e-06
1.32483e-06
1.32305e-06
1.32049e-06
1.31709e-06
1.31281e-06
1.30759e-06
1.30138e-06
1.29408e-06
1.28564e-06
1.27596e-06
1.26494e-06
1.29174e-06
1.29749e-06
1.30277e-06
1.30757e-06
1.31188e-06
1.31566e-06
1.31892e-06
1.32163e-06
1.32377e-06
1.32532e-06
1.32625e-06
1.32653e-06
1.32614e-06
1.32504e-06
1.3232e-06
1.32057e-06
1.31711e-06
1.31276e-06
1.30747e-06
1.30118e-06
1.29381e-06
1.28529e-06
1.27553e-06
1.26442e-06
1.24083e-06
1.24954e-06
1.25784e-06
1.26573e-06
1.2732e-06
1.28023e-06
1.28683e-06
1.29297e-06
1.29866e-06
1.30387e-06
1.3086e-06
1.31283e-06
1.31655e-06
1.31973e-06
1.32237e-06
1.32443e-06
1.3259e-06
1.32676e-06
1.32696e-06
1.32649e-06
1.32531e-06
1.32339e-06
1.32067e-06
1.31712e-06
1.31268e-06
1.3073e-06
1.30091e-06
1.29344e-06
1.28482e-06
1.27495e-06
1.26374e-06
1.24292e-06
1.25155e-06
1.25977e-06
1.26758e-06
1.27497e-06
1.28192e-06
1.28843e-06
1.29449e-06
1.30009e-06
1.30522e-06
1.30986e-06
1.314e-06
1.31763e-06
1.32073e-06
1.32327e-06
1.32524e-06
1.32662e-06
1.32737e-06
1.32748e-06
1.32691e-06
1.32563e-06
1.3236e-06
1.32077e-06
1.31711e-06
1.31256e-06
1.30707e-06
1.30056e-06
1.29297e-06
1.28422e-06
1.27422e-06
1.26286e-06
1.24538e-06
1.25392e-06
1.26205e-06
1.26976e-06
1.27704e-06
1.2839e-06
1.29031e-06
1.29627e-06
1.30177e-06
1.3068e-06
1.31134e-06
1.31537e-06
1.3189e-06
1.32188e-06
1.32432e-06
1.32618e-06
1.32744e-06
1.32808e-06
1.32808e-06
1.32739e-06
1.32598e-06
1.32383e-06
1.32088e-06
1.31709e-06
1.3124e-06
1.30677e-06
1.30012e-06
1.29238e-06
1.28348e-06
1.27332e-06
1.2618e-06
1.24818e-06
1.25661e-06
1.26463e-06
1.27223e-06
1.2794e-06
1.28614e-06
1.29244e-06
1.29829e-06
1.30367e-06
1.30858e-06
1.313e-06
1.31692e-06
1.32032e-06
1.32318e-06
1.32549e-06
1.32723e-06
1.32836e-06
1.32887e-06
1.32873e-06
1.32791e-06
1.32636e-06
1.32406e-06
1.32097e-06
1.31702e-06
1.31218e-06
1.30639e-06
1.29957e-06
1.29167e-06
1.28259e-06
1.27225e-06
1.26054e-06
1.25129e-06
1.2596e-06
1.26749e-06
1.27497e-06
1.28202e-06
1.28863e-06
1.2948e-06
1.30052e-06
1.30577e-06
1.31055e-06
1.31484e-06
1.31862e-06
1.32188e-06
1.32461e-06
1.32678e-06
1.32837e-06
1.32936e-06
1.32972e-06
1.32943e-06
1.32845e-06
1.32675e-06
1.32429e-06
1.32102e-06
1.31691e-06
1.31189e-06
1.30592e-06
1.29892e-06
1.29082e-06
1.28154e-06
1.271e-06
1.25908e-06
1.25467e-06
1.26284e-06
1.2706e-06
1.27794e-06
1.28485e-06
1.29132e-06
1.29736e-06
1.30293e-06
1.30804e-06
1.31267e-06
1.31681e-06
1.32045e-06
1.32356e-06
1.32613e-06
1.32815e-06
1.32958e-06
1.33041e-06
1.33061e-06
1.33015e-06
1.329e-06
1.32712e-06
1.32448e-06
1.32103e-06
1.31673e-06
1.31152e-06
1.30535e-06
1.29814e-06
1.28983e-06
1.28033e-06
1.26956e-06
1.2574e-06
1.25827e-06
1.2663e-06
1.27391e-06
1.2811e-06
1.28786e-06
1.29418e-06
1.30006e-06
1.30549e-06
1.31044e-06
1.31492e-06
1.3189e-06
1.32237e-06
1.32532e-06
1.32773e-06
1.32957e-06
1.33083e-06
1.33149e-06
1.33151e-06
1.33086e-06
1.32953e-06
1.32746e-06
1.32462e-06
1.32098e-06
1.31647e-06
1.31105e-06
1.30466e-06
1.29722e-06
1.28868e-06
1.27894e-06
1.26791e-06
1.25549e-06
1.26205e-06
1.26991e-06
1.27737e-06
1.2844e-06
1.291e-06
1.29717e-06
1.30288e-06
1.30814e-06
1.31293e-06
1.31724e-06
1.32105e-06
1.32435e-06
1.32712e-06
1.32935e-06
1.33102e-06
1.33209e-06
1.33256e-06
1.33239e-06
1.33155e-06
1.33001e-06
1.32774e-06
1.3247e-06
1.32083e-06
1.31611e-06
1.31046e-06
1.30383e-06
1.29615e-06
1.28735e-06
1.27735e-06
1.26605e-06
1.25336e-06
1.26594e-06
1.27365e-06
1.28093e-06
1.28779e-06
1.29423e-06
1.30022e-06
1.30576e-06
1.31085e-06
1.31546e-06
1.31959e-06
1.32322e-06
1.32634e-06
1.32893e-06
1.33097e-06
1.33244e-06
1.33333e-06
1.33359e-06
1.33322e-06
1.33217e-06
1.33043e-06
1.32794e-06
1.32467e-06
1.32058e-06
1.31561e-06
1.30972e-06
1.30284e-06
1.2949e-06
1.28584e-06
1.27556e-06
1.26397e-06
1.25097e-06
1.26991e-06
1.27744e-06
1.28455e-06
1.29123e-06
1.29748e-06
1.3033e-06
1.30866e-06
1.31356e-06
1.31799e-06
1.32193e-06
1.32537e-06
1.3283e-06
1.33069e-06
1.33254e-06
1.33381e-06
1.33449e-06
1.33455e-06
1.33396e-06
1.3327e-06
1.33073e-06
1.32801e-06
1.32451e-06
1.32018e-06
1.31496e-06
1.30881e-06
1.30167e-06
1.29346e-06
1.28411e-06
1.27354e-06
1.26164e-06
1.24833e-06
1.27394e-06
1.28128e-06
1.2882e-06
1.2947e-06
1.30077e-06
1.30639e-06
1.31156e-06
1.31627e-06
1.32051e-06
1.32426e-06
1.3275e-06
1.33023e-06
1.33242e-06
1.33406e-06
1.33513e-06
1.33559e-06
1.33544e-06
1.33463e-06
1.33315e-06
1.33095e-06
1.32799e-06
1.32425e-06
1.31967e-06
1.3142e-06
1.30778e-06
1.30037e-06
1.29187e-06
1.28223e-06
1.27135e-06
1.25913e-06
1.24548e-06
1.27394e-06
1.28128e-06
1.2882e-06
1.2947e-06
1.30077e-06
1.30639e-06
1.31156e-06
1.31627e-06
1.32051e-06
1.32425e-06
1.3275e-06
1.33023e-06
1.33242e-06
1.33406e-06
1.33513e-06
1.33559e-06
1.33544e-06
1.33463e-06
1.33315e-06
1.33095e-06
1.32799e-06
1.32425e-06
1.31967e-06
1.3142e-06
1.30778e-06
1.30037e-06
1.29187e-06
1.28223e-06
1.27135e-06
1.25913e-06
1.24548e-06
1.26991e-06
1.27744e-06
1.28455e-06
1.29123e-06
1.29748e-06
1.3033e-06
1.30866e-06
1.31356e-06
1.31799e-06
1.32193e-06
1.32537e-06
1.3283e-06
1.33069e-06
1.33254e-06
1.33381e-06
1.33449e-06
1.33455e-06
1.33396e-06
1.3327e-06
1.33073e-06
1.32801e-06
1.32451e-06
1.32018e-06
1.31496e-06
1.30881e-06
1.30167e-06
1.29346e-06
1.28411e-06
1.27354e-06
1.26164e-06
1.24833e-06
1.26594e-06
1.27364e-06
1.28093e-06
1.28779e-06
1.29423e-06
1.30022e-06
1.30576e-06
1.31085e-06
1.31546e-06
1.31959e-06
1.32322e-06
1.32634e-06
1.32893e-06
1.33097e-06
1.33244e-06
1.33332e-06
1.33359e-06
1.33322e-06
1.33217e-06
1.33043e-06
1.32794e-06
1.32467e-06
1.32058e-06
1.31561e-06
1.30972e-06
1.30284e-06
1.2949e-06
1.28584e-06
1.27556e-06
1.26397e-06
1.25097e-06
1.26205e-06
1.26991e-06
1.27737e-06
1.2844e-06
1.291e-06
1.29717e-06
1.30288e-06
1.30814e-06
1.31293e-06
1.31724e-06
1.32105e-06
1.32435e-06
1.32712e-06
1.32935e-06
1.33102e-06
1.33209e-06
1.33256e-06
1.33239e-06
1.33155e-06
1.33001e-06
1.32774e-06
1.3247e-06
1.32083e-06
1.3161e-06
1.31046e-06
1.30383e-06
1.29615e-06
1.28735e-06
1.27735e-06
1.26605e-06
1.25336e-06
1.25827e-06
1.26629e-06
1.27391e-06
1.2811e-06
1.28786e-06
1.29418e-06
1.30006e-06
1.30549e-06
1.31044e-06
1.31492e-06
1.3189e-06
1.32237e-06
1.32532e-06
1.32773e-06
1.32957e-06
1.33083e-06
1.33149e-06
1.33151e-06
1.33086e-06
1.32953e-06
1.32746e-06
1.32462e-06
1.32098e-06
1.31647e-06
1.31105e-06
1.30466e-06
1.29722e-06
1.28868e-06
1.27894e-06
1.26791e-06
1.25549e-06
1.25467e-06
1.26284e-06
1.2706e-06
1.27794e-06
1.28485e-06
1.29132e-06
1.29736e-06
1.30293e-06
1.30804e-06
1.31267e-06
1.31681e-06
1.32045e-06
1.32356e-06
1.32613e-06
1.32815e-06
1.32958e-06
1.33041e-06
1.33061e-06
1.33015e-06
1.329e-06
1.32712e-06
1.32448e-06
1.32103e-06
1.31673e-06
1.31152e-06
1.30535e-06
1.29814e-06
1.28983e-06
1.28033e-06
1.26956e-06
1.2574e-06
1.25129e-06
1.2596e-06
1.26749e-06
1.27497e-06
1.28202e-06
1.28863e-06
1.2948e-06
1.30052e-06
1.30577e-06
1.31055e-06
1.31484e-06
1.31862e-06
1.32188e-06
1.32461e-06
1.32678e-06
1.32837e-06
1.32936e-06
1.32972e-06
1.32943e-06
1.32845e-06
1.32675e-06
1.32429e-06
1.32102e-06
1.31691e-06
1.31189e-06
1.30592e-06
1.29892e-06
1.29082e-06
1.28154e-06
1.271e-06
1.25908e-06
1.24818e-06
1.25661e-06
1.26463e-06
1.27223e-06
1.2794e-06
1.28614e-06
1.29244e-06
1.29829e-06
1.30367e-06
1.30858e-06
1.313e-06
1.31692e-06
1.32032e-06
1.32318e-06
1.32549e-06
1.32723e-06
1.32836e-06
1.32887e-06
1.32873e-06
1.32791e-06
1.32636e-06
1.32406e-06
1.32097e-06
1.31702e-06
1.31218e-06
1.30639e-06
1.29957e-06
1.29167e-06
1.28259e-06
1.27225e-06
1.26054e-06
1.24538e-06
1.25392e-06
1.26205e-06
1.26976e-06
1.27704e-06
1.2839e-06
1.29031e-06
1.29627e-06
1.30177e-06
1.3068e-06
1.31134e-06
1.31537e-06
1.3189e-06
1.32188e-06
1.32432e-06
1.32618e-06
1.32744e-06
1.32808e-06
1.32808e-06
1.32739e-06
1.32598e-06
1.32383e-06
1.32088e-06
1.31709e-06
1.3124e-06
1.30677e-06
1.30012e-06
1.29238e-06
1.28348e-06
1.27332e-06
1.2618e-06
1.24292e-06
1.25155e-06
1.25977e-06
1.26758e-06
1.27497e-06
1.28192e-06
1.28843e-06
1.29449e-06
1.30009e-06
1.30522e-06
1.30986e-06
1.314e-06
1.31763e-06
1.32073e-06
1.32327e-06
1.32524e-06
1.32662e-06
1.32737e-06
1.32748e-06
1.32691e-06
1.32563e-06
1.3236e-06
1.32077e-06
1.31711e-06
1.31256e-06
1.30707e-06
1.30056e-06
1.29297e-06
1.28422e-06
1.27422e-06
1.26287e-06
1.24083e-06
1.24954e-06
1.25784e-06
1.26573e-06
1.2732e-06
1.28023e-06
1.28683e-06
1.29297e-06
1.29866e-06
1.30387e-06
1.3086e-06
1.31283e-06
1.31655e-06
1.31973e-06
1.32237e-06
1.32443e-06
1.3259e-06
1.32676e-06
1.32696e-06
1.32649e-06
1.32531e-06
1.32339e-06
1.32067e-06
1.31712e-06
1.31268e-06
1.3073e-06
1.30091e-06
1.29344e-06
1.28482e-06
1.27495e-06
1.26374e-06
1.23912e-06
1.2479e-06
1.25627e-06
1.26422e-06
1.27176e-06
1.27886e-06
1.28552e-06
1.29174e-06
1.29749e-06
1.30277e-06
1.30757e-06
1.31188e-06
1.31566e-06
1.31892e-06
1.32163e-06
1.32377e-06
1.32532e-06
1.32625e-06
1.32653e-06
1.32614e-06
1.32504e-06
1.3232e-06
1.32057e-06
1.31711e-06
1.31276e-06
1.30747e-06
1.30118e-06
1.29381e-06
1.28529e-06
1.27553e-06
1.26442e-06
1.23783e-06
1.24666e-06
1.25507e-06
1.26308e-06
1.27066e-06
1.27781e-06
1.28453e-06
1.29079e-06
1.2966e-06
1.30194e-06
1.30679e-06
1.31115e-06
1.31499e-06
1.3183e-06
1.32106e-06
1.32326e-06
1.32487e-06
1.32585e-06
1.3262e-06
1.32587e-06
1.32483e-06
1.32305e-06
1.32049e-06
1.31709e-06
1.31281e-06
1.30759e-06
1.30138e-06
1.29408e-06
1.28564e-06
1.27596e-06
1.26494e-06
1.23696e-06
1.24582e-06
1.25427e-06
1.26231e-06
1.26992e-06
1.27711e-06
1.28386e-06
1.29016e-06
1.296e-06
1.30137e-06
1.30626e-06
1.31065e-06
1.31453e-06
1.31788e-06
1.32068e-06
1.32292e-06
1.32456e-06
1.32559e-06
1.32597e-06
1.32568e-06
1.32469e-06
1.32295e-06
1.32043e-06
1.31708e-06
1.31284e-06
1.30767e-06
1.3015e-06
1.29426e-06
1.28587e-06
1.27624e-06
1.26527e-06
1.23652e-06
1.2454e-06
1.25387e-06
1.26192e-06
1.26955e-06
1.27676e-06
1.28352e-06
1.28984e-06
1.2957e-06
1.30109e-06
1.306e-06
1.31041e-06
1.3143e-06
1.31767e-06
1.32049e-06
1.32274e-06
1.32441e-06
1.32545e-06
1.32586e-06
1.32559e-06
1.32462e-06
1.3229e-06
1.3204e-06
1.31707e-06
1.31286e-06
1.30771e-06
1.30157e-06
1.29435e-06
1.28598e-06
1.27638e-06
1.26544e-06
1.23652e-06
1.2454e-06
1.25387e-06
1.26192e-06
1.26955e-06
1.27676e-06
1.28352e-06
1.28984e-06
1.2957e-06
1.30109e-06
1.306e-06
1.31041e-06
1.3143e-06
1.31767e-06
1.32049e-06
1.32274e-06
1.32441e-06
1.32545e-06
1.32586e-06
1.32559e-06
1.32462e-06
1.3229e-06
1.3204e-06
1.31707e-06
1.31286e-06
1.30771e-06
1.30157e-06
1.29435e-06
1.28598e-06
1.27638e-06
1.26544e-06
1.23696e-06
1.24582e-06
1.25427e-06
1.26231e-06
1.26992e-06
1.27711e-06
1.28386e-06
1.29016e-06
1.296e-06
1.30137e-06
1.30626e-06
1.31065e-06
1.31453e-06
1.31788e-06
1.32068e-06
1.32292e-06
1.32456e-06
1.32559e-06
1.32597e-06
1.32568e-06
1.32469e-06
1.32295e-06
1.32043e-06
1.31708e-06
1.31284e-06
1.30767e-06
1.3015e-06
1.29426e-06
1.28587e-06
1.27624e-06
1.26527e-06
1.23783e-06
1.24666e-06
1.25507e-06
1.26308e-06
1.27066e-06
1.27781e-06
1.28453e-06
1.29079e-06
1.2966e-06
1.30194e-06
1.30679e-06
1.31115e-06
1.31499e-06
1.3183e-06
1.32106e-06
1.32326e-06
1.32487e-06
1.32585e-06
1.3262e-06
1.32587e-06
1.32483e-06
1.32305e-06
1.32049e-06
1.31709e-06
1.31281e-06
1.30759e-06
1.30138e-06
1.29408e-06
1.28564e-06
1.27596e-06
1.26494e-06
1.25246e-06
1.23912e-06
1.2479e-06
1.25627e-06
1.26422e-06
1.27176e-06
1.27886e-06
1.28552e-06
1.29174e-06
1.29749e-06
1.30277e-06
1.30757e-06
1.31188e-06
1.31566e-06
1.31892e-06
1.32163e-06
1.32377e-06
1.32532e-06
1.32625e-06
1.32653e-06
1.32614e-06
1.32504e-06
1.3232e-06
1.32057e-06
1.31711e-06
1.31276e-06
1.30747e-06
1.30118e-06
1.29381e-06
1.28529e-06
1.27553e-06
1.26442e-06
1.25187e-06
1.24083e-06
1.24954e-06
1.25784e-06
1.26573e-06
1.2732e-06
1.28023e-06
1.28683e-06
1.29297e-06
1.29866e-06
1.30387e-06
1.3086e-06
1.31283e-06
1.31655e-06
1.31973e-06
1.32237e-06
1.32443e-06
1.3259e-06
1.32676e-06
1.32696e-06
1.32649e-06
1.32531e-06
1.32339e-06
1.32067e-06
1.31712e-06
1.31268e-06
1.3073e-06
1.30091e-06
1.29344e-06
1.28482e-06
1.27495e-06
1.26374e-06
1.25106e-06
1.24292e-06
1.25155e-06
1.25977e-06
1.26758e-06
1.27497e-06
1.28192e-06
1.28843e-06
1.29449e-06
1.30009e-06
1.30522e-06
1.30986e-06
1.314e-06
1.31763e-06
1.32073e-06
1.32327e-06
1.32524e-06
1.32662e-06
1.32737e-06
1.32748e-06
1.32691e-06
1.32563e-06
1.3236e-06
1.32077e-06
1.31711e-06
1.31256e-06
1.30707e-06
1.30056e-06
1.29297e-06
1.28422e-06
1.27422e-06
1.26286e-06
1.25005e-06
1.24538e-06
1.25392e-06
1.26205e-06
1.26976e-06
1.27704e-06
1.2839e-06
1.29031e-06
1.29627e-06
1.30177e-06
1.3068e-06
1.31134e-06
1.31537e-06
1.3189e-06
1.32188e-06
1.32432e-06
1.32618e-06
1.32744e-06
1.32808e-06
1.32808e-06
1.32739e-06
1.32598e-06
1.32383e-06
1.32088e-06
1.31709e-06
1.3124e-06
1.30677e-06
1.30012e-06
1.29238e-06
1.28348e-06
1.27332e-06
1.2618e-06
1.24882e-06
1.24818e-06
1.25661e-06
1.26463e-06
1.27223e-06
1.2794e-06
1.28614e-06
1.29244e-06
1.29829e-06
1.30367e-06
1.30858e-06
1.313e-06
1.31692e-06
1.32032e-06
1.32318e-06
1.32549e-06
1.32723e-06
1.32836e-06
1.32887e-06
1.32873e-06
1.32791e-06
1.32636e-06
1.32406e-06
1.32097e-06
1.31702e-06
1.31218e-06
1.30639e-06
1.29957e-06
1.29167e-06
1.28259e-06
1.27225e-06
1.26054e-06
1.24736e-06
1.25129e-06
1.2596e-06
1.26749e-06
1.27497e-06
1.28202e-06
1.28863e-06
1.2948e-06
1.30052e-06
1.30577e-06
1.31055e-06
1.31484e-06
1.31862e-06
1.32188e-06
1.32461e-06
1.32678e-06
1.32837e-06
1.32936e-06
1.32972e-06
1.32943e-06
1.32845e-06
1.32675e-06
1.32429e-06
1.32102e-06
1.31691e-06
1.31189e-06
1.30592e-06
1.29892e-06
1.29082e-06
1.28154e-06
1.271e-06
)
;

boundaryField
{
    inlet
    {
        type            cyclic;
    }
    outlet
    {
        type            cyclic;
    }
    wall
    {
        type            fixedValue;
        value           nonuniform 0();
    }
    procBoundary1to0
    {
        type            processor;
        value           nonuniform List<scalar> 
59
(
1.24833e-06
1.25097e-06
1.25336e-06
1.25549e-06
1.2574e-06
1.25908e-06
1.26054e-06
1.2618e-06
1.26286e-06
1.24833e-06
1.23028e-06
1.23028e-06
1.23347e-06
1.23644e-06
1.23914e-06
1.24157e-06
1.24375e-06
1.24567e-06
1.24736e-06
1.24882e-06
1.25005e-06
1.25106e-06
1.25187e-06
1.25246e-06
1.25286e-06
1.25306e-06
1.25306e-06
1.25286e-06
1.25246e-06
1.25187e-06
1.25106e-06
1.25005e-06
1.24882e-06
1.24736e-06
1.24567e-06
1.24375e-06
1.24157e-06
1.23914e-06
1.23644e-06
1.23347e-06
1.23028e-06
1.23028e-06
1.23347e-06
1.23644e-06
1.23914e-06
1.24157e-06
1.24375e-06
1.24567e-06
1.24736e-06
1.24882e-06
1.25005e-06
1.25106e-06
1.25187e-06
1.25246e-06
1.25286e-06
1.25306e-06
1.25306e-06
1.25286e-06
1.25286e-06
)
;
    }
    procBoundary1to2
    {
        type            processor;
        value           nonuniform List<scalar> 
39
(
1.23841e-06
1.23773e-06
1.2368e-06
1.23564e-06
1.23423e-06
1.25908e-06
1.23257e-06
1.24567e-06
1.25467e-06
1.26284e-06
1.2706e-06
1.27794e-06
1.28485e-06
1.29132e-06
1.29736e-06
1.30293e-06
1.30804e-06
1.31267e-06
1.31681e-06
1.32045e-06
1.32356e-06
1.32613e-06
1.32815e-06
1.32958e-06
1.33041e-06
1.33061e-06
1.33015e-06
1.329e-06
1.32712e-06
1.32448e-06
1.32103e-06
1.31673e-06
1.31152e-06
1.30535e-06
1.29814e-06
1.28983e-06
1.28033e-06
1.25908e-06
1.26956e-06
)
;
    }
    procBoundary1to3
    {
        type            processor;
        value           nonuniform List<scalar> 
23
(
1.29297e-06
1.29866e-06
1.30387e-06
1.3086e-06
1.31283e-06
1.31655e-06
1.31973e-06
1.32237e-06
1.32443e-06
1.3259e-06
1.32676e-06
1.32696e-06
1.32649e-06
1.32531e-06
1.32339e-06
1.32067e-06
1.31712e-06
1.31268e-06
1.3073e-06
1.30091e-06
1.29344e-06
1.28482e-06
1.27495e-06
)
;
    }
    procBoundary1to4
    {
        type            processor;
        value           nonuniform List<scalar> 
61
(
1.31156e-06
1.30866e-06
1.30576e-06
1.30288e-06
1.30006e-06
1.29736e-06
1.2948e-06
1.29244e-06
1.29031e-06
1.28843e-06
1.31156e-06
1.30866e-06
1.30576e-06
1.30288e-06
1.30006e-06
1.29736e-06
1.2948e-06
1.29244e-06
1.29031e-06
1.28843e-06
1.28683e-06
1.28552e-06
1.28453e-06
1.28386e-06
1.28352e-06
1.28352e-06
1.28386e-06
1.28453e-06
1.23912e-06
1.2479e-06
1.25627e-06
1.26422e-06
1.27176e-06
1.27886e-06
1.28552e-06
1.28552e-06
1.23171e-06
1.23389e-06
1.23644e-06
1.23935e-06
1.24258e-06
1.24609e-06
1.24984e-06
1.25377e-06
1.25783e-06
1.26198e-06
1.26619e-06
1.26619e-06
1.26198e-06
1.25783e-06
1.25377e-06
1.24984e-06
1.24609e-06
1.24258e-06
1.23935e-06
1.23644e-06
1.23389e-06
1.23171e-06
1.22995e-06
1.2286e-06
1.2277e-06
)
;
    }
    procBoundary1to5
    {
        type            processor;
        value           nonuniform List<scalar> 10(1.22725e-06 1.22725e-06 1.2277e-06 1.2286e-06 1.22994e-06 1.23171e-06 1.23389e-06 1.23644e-06 1.23935e-06 1.24258e-06);
    }
}


// ************************************************************************* //
