/*--------------------------------*- C++ -*----------------------------------*\
  =========                 |
  \\      /  F ield         | OpenFOAM: The Open Source CFD Toolbox
   \\    /   O peration     | Website:  https://openfoam.org
    \\  /    A nd           | Version:  7
     \\/     M anipulation  |
\*---------------------------------------------------------------------------*/
FoamFile
{
    version     2.0;
    format      ascii;
    class       volVectorField;
    location    "44000";
    object      U;
}
// * * * * * * * * * * * * * * * * * * * * * * * * * * * * * * * * * * * * * //

dimensions      [0 1 -1 0 0 0 0];

internalField   nonuniform List<vector> 
1777
(
(-2.95746e-18 1.23037e-18 -0.0130142)
(-5.11771e-18 -1.81268e-18 -0.0130534)
(-1.08059e-18 -1.85335e-18 -0.0130906)
(-5.58859e-18 -1.13835e-18 -0.0131259)
(-1.08341e-18 -9.7005e-19 -0.013159)
(-2.52805e-18 -2.07956e-18 -0.0131897)
(-1.58479e-18 -1.36654e-18 -0.0132178)
(-2.88257e-18 -8.59284e-19 -0.0132431)
(1.16289e-18 -6.22148e-19 -0.0132656)
(-1.56155e-18 -1.3806e-18 -0.013285)
(-3.24589e-18 1.24551e-18 -0.0129183)
(-5.35772e-18 -1.95353e-18 -0.0129577)
(-8.49461e-19 -1.74856e-18 -0.0129951)
(-5.2711e-18 -9.34248e-19 -0.0130305)
(-5.27517e-19 -8.22934e-19 -0.0130638)
(-2.74466e-18 -2.1858e-18 -0.0130946)
(-1.28767e-18 -1.27881e-18 -0.0131228)
(-2.62679e-18 -8.98803e-19 -0.0131483)
(1.14954e-18 -7.27426e-19 -0.0131708)
(-1.51669e-18 -1.33177e-18 -0.0131903)
(-3.42995e-18 1.39057e-18 -0.0128211)
(-5.4273e-18 -1.97845e-18 -0.0128606)
(-8.47097e-19 -1.85948e-18 -0.0128982)
(-4.88796e-18 -6.9621e-19 -0.0129338)
(-5.28935e-19 -9.76504e-19 -0.0129672)
(-2.59822e-18 -2.11021e-18 -0.0129981)
(-1.15326e-18 -1.27018e-18 -0.0130265)
(-2.41451e-18 -9.69292e-19 -0.0130521)
(1.3945e-18 -7.33981e-19 -0.0130747)
(-1.80268e-18 -1.32836e-18 -0.0130943)
(-3.32538e-18 1.76687e-18 -0.0127224)
(-5.26317e-18 -1.79986e-18 -0.0127622)
(-7.31534e-19 -1.91683e-18 -0.0127999)
(-4.44108e-18 -4.117e-19 -0.0128356)
(-8.23044e-19 -1.27984e-18 -0.0128692)
(-2.39807e-18 -2.04815e-18 -0.0129003)
(-9.69975e-19 -1.22844e-18 -0.0129288)
(-2.48784e-18 -1.14588e-18 -0.0129544)
(1.40033e-18 -7.77648e-19 -0.0129772)
(-2.26072e-18 -1.3603e-18 -0.0129969)
(-2.95771e-18 2.32215e-18 -0.0126222)
(-4.97452e-18 -1.49941e-18 -0.0126622)
(-3.58442e-19 -1.81962e-18 -0.0127001)
(-4.19217e-18 -1.99624e-19 -0.012736)
(-6.38239e-19 -1.29075e-18 -0.0127697)
(-2.21842e-18 -2.0383e-18 -0.012801)
(-7.2262e-19 -1.11224e-18 -0.0128295)
(-2.49917e-18 -1.26966e-18 -0.0128553)
(1.11027e-18 -9.153e-19 -0.0128782)
(-2.34142e-18 -1.27429e-18 -0.012898)
(-2.68699e-18 2.66483e-18 -0.0125204)
(-4.81429e-18 -1.27925e-18 -0.0125606)
(-8.44256e-20 -1.76707e-18 -0.0125987)
(-4.05121e-18 -7.81817e-20 -0.0126348)
(-1.38062e-19 -1.12615e-18 -0.0126687)
(-2.29906e-18 -2.13546e-18 -0.0127001)
(-3.30746e-19 -9.37879e-19 -0.0127288)
(-1.97125e-18 -1.13126e-18 -0.0127547)
(8.58817e-19 -1.0409e-18 -0.0127777)
(-1.88956e-18 -1.06328e-18 -0.0127975)
(-2.54754e-18 2.85837e-18 -0.012417)
(-4.87477e-18 -1.22084e-18 -0.0124574)
(-2.31131e-19 -2.03979e-18 -0.0124957)
(-3.88789e-18 4.77607e-20 -0.012532)
(4.11401e-19 -8.95635e-19 -0.012566)
(-2.67474e-18 -2.39558e-18 -0.0125976)
(1.77584e-19 -7.80421e-19 -0.0126264)
(-1.46394e-18 -9.58062e-19 -0.0126524)
(6.22381e-19 -1.1576e-18 -0.0126755)
(-1.68489e-18 -9.59225e-19 -0.0126955)
(-2.63473e-18 2.85121e-18 -0.0123119)
(-4.96526e-18 -1.11588e-18 -0.0123525)
(-3.82786e-19 -2.32678e-18 -0.012391)
(-3.7293e-18 6.86296e-20 -0.0124274)
(6.68211e-19 -7.88465e-19 -0.0124616)
(-2.94418e-18 -2.58072e-18 -0.0124933)
(5.87849e-19 -7.16185e-19 -0.0125223)
(-1.17233e-18 -8.07797e-19 -0.0125485)
(5.50296e-19 -1.19037e-18 -0.0125717)
(-1.84528e-18 -1.02223e-18 -0.0125917)
(-3.41702e-18 2.27517e-18 -0.012205)
(-5.10895e-18 -1.07792e-18 -0.0122457)
(-1.28179e-19 -2.34047e-18 -0.0122844)
(-3.85687e-18 -6.78541e-20 -0.0123211)
(2.09919e-19 -1.07691e-18 -0.0123555)
(-3.03461e-18 -2.71057e-18 -0.0123873)
(4.8115e-19 -9.13917e-19 -0.0124165)
(-1.09084e-18 -7.37079e-19 -0.0124428)
(9.70981e-19 -1.03116e-18 -0.012466)
(-1.63141e-18 -9.57563e-19 -0.0124862)
(-4.21169e-18 1.77325e-18 -0.0120961)
(-5.53706e-18 -1.37494e-18 -0.0121371)
(1.67025e-19 -2.3081e-18 -0.012176)
(-4.43178e-18 -4.27804e-19 -0.0122129)
(-2.99405e-19 -1.41559e-18 -0.0122474)
(-2.94307e-18 -2.75454e-18 -0.0122794)
(9.13543e-20 -1.24139e-18 -0.0123087)
(-9.18033e-19 -7.03273e-19 -0.0123351)
(1.05917e-18 -1.02306e-18 -0.0123585)
(-1.32706e-18 -8.28806e-19 -0.0123788)
(-4.46333e-18 1.84563e-18 -0.0119852)
(-6.43404e-18 -2.07553e-18 -0.0120264)
(3.53123e-19 -2.36542e-18 -0.0120656)
(-5.05492e-18 -7.7604e-19 -0.0121026)
(-1.38234e-19 -1.43657e-18 -0.0121374)
(-2.3181e-18 -2.52844e-18 -0.0121696)
(7.7633e-20 -1.41952e-18 -0.012199)
(-2.32171e-19 -4.65539e-19 -0.0122255)
(6.3739e-19 -1.15979e-18 -0.012249)
(-1.39732e-18 -8.22162e-19 -0.0122694)
(-4.55822e-18 2.14246e-18 -0.0118722)
(-7.22229e-18 -2.68626e-18 -0.0119137)
(3.5321e-19 -2.61662e-18 -0.011953)
(-5.16295e-18 -8.29115e-19 -0.0119903)
(4.54874e-19 -1.29888e-18 -0.0120252)
(-1.71741e-18 -2.28498e-18 -0.0120576)
(4.46837e-19 -1.42843e-18 -0.0120872)
(-5.73303e-20 -3.9748e-19 -0.0121139)
(5.6975e-19 -1.11347e-18 -0.0121375)
(-1.71726e-18 -8.95079e-19 -0.0121579)
(-4.48394e-18 2.60465e-18 -0.0117569)
(-7.55708e-18 -2.89537e-18 -0.0117987)
(4.79412e-19 -2.84864e-18 -0.0118382)
(-4.60679e-18 -4.90612e-19 -0.0118757)
(7.16526e-19 -1.3529e-18 -0.0119109)
(-1.55623e-18 -2.26806e-18 -0.0119434)
(7.2567e-19 -1.44361e-18 -0.0119731)
(-7.07669e-19 -6.46606e-19 -0.012)
(7.60908e-19 -9.81437e-19 -0.0120237)
(-2.20622e-18 -9.8624e-19 -0.0120443)
(-4.41219e-18 3.08658e-18 -0.0116393)
(-8.13913e-18 -3.28344e-18 -0.0116813)
(7.7801e-19 -3.03705e-18 -0.0117211)
(-4.23874e-18 -2.5457e-19 -0.0117588)
(7.40401e-19 -1.49863e-18 -0.0117941)
(-1.47608e-18 -2.2966e-18 -0.0118269)
(7.80443e-19 -1.52258e-18 -0.0118568)
(-1.19435e-18 -8.37709e-19 -0.0118838)
(6.57856e-19 -9.60137e-19 -0.0119076)
(-2.69643e-18 -1.06867e-18 -0.0119283)
(-4.42227e-18 3.58417e-18 -0.0115191)
(-8.89021e-18 -3.78898e-18 -0.0115614)
(1.07128e-18 -3.31403e-18 -0.0116014)
(-4.60808e-18 -4.91057e-19 -0.0116394)
(5.85561e-19 -1.76006e-18 -0.0116749)
(-1.48884e-18 -2.37656e-18 -0.0117078)
(4.84095e-19 -1.7535e-18 -0.0117379)
(-1.43215e-18 -9.15068e-19 -0.0117651)
(4.88545e-19 -9.44203e-19 -0.0117891)
(-2.81159e-18 -1.0557e-18 -0.0118099)
(-4.74918e-18 3.84897e-18 -0.0113962)
(-9.47615e-18 -4.14405e-18 -0.0114388)
(1.30414e-18 -3.64949e-18 -0.0114791)
(-4.95943e-18 -6.78002e-19 -0.0115173)
(5.89594e-19 -1.96152e-18 -0.0115531)
(-1.49185e-18 -2.43724e-18 -0.0115862)
(-8.56924e-21 -2.07044e-18 -0.0116165)
(-1.44191e-18 -9.36768e-19 -0.0116438)
(5.40468e-19 -8.74627e-19 -0.0116679)
(-2.51745e-18 -9.21781e-19 -0.0116889)
(-5.46098e-18 3.86151e-18 -0.0112705)
(-9.96618e-18 -4.43969e-18 -0.0113134)
(1.81065e-18 -3.85106e-18 -0.011354)
(-4.64072e-18 -4.42307e-19 -0.0113924)
(9.46751e-19 -1.96838e-18 -0.0114284)
(-1.25124e-18 -2.3317e-18 -0.0114618)
(-2.42246e-20 -2.18109e-18 -0.0114922)
(-1.10851e-18 -8.51579e-19 -0.0115197)
(4.5057e-19 -8.55447e-19 -0.011544)
(-2.42247e-18 -8.3653e-19 -0.011565)
(-5.85148e-18 4.2197e-18 -0.0111418)
(-9.90624e-18 -4.34693e-18 -0.011185)
(2.60774e-18 -3.92539e-18 -0.0112259)
(-4.29126e-18 -1.63058e-19 -0.0112646)
(1.57067e-18 -1.804e-18 -0.0113008)
(-8.5655e-19 -2.14104e-18 -0.0113343)
(3.71379e-19 -2.1083e-18 -0.011365)
(-9.91009e-19 -8.24083e-19 -0.0113926)
(3.28519e-19 -8.16048e-19 -0.0114171)
(-2.48226e-18 -8.00356e-19 -0.0114383)
(-5.64845e-18 5.09373e-18 -0.0110098)
(-9.73437e-18 -4.16778e-18 -0.0110533)
(3.26618e-18 -4.11197e-18 -0.0110945)
(-4.28444e-18 -1.23634e-19 -0.0111335)
(2.09079e-18 -1.7206e-18 -0.01117)
(-4.77424e-19 -1.92959e-18 -0.0112038)
(5.03168e-19 -2.13009e-18 -0.0112346)
(-1.14311e-18 -8.87297e-19 -0.0112624)
(3.36293e-19 -7.38355e-19 -0.0112871)
(-2.19742e-18 -6.65309e-19 -0.0113084)
(-5.52864e-18 5.88026e-18 -0.0108744)
(-1.00593e-17 -4.35652e-18 -0.0109183)
(3.95183e-18 -4.31075e-18 -0.0109598)
(-4.33758e-18 -1.02762e-19 -0.010999)
(2.15208e-18 -1.92818e-18 -0.0110358)
(-1.52667e-19 -1.72737e-18 -0.0110698)
(1.50437e-19 -2.35284e-18 -0.0111009)
(-1.41404e-18 -1.00611e-18 -0.0111289)
(4.16688e-19 -6.6007e-19 -0.0111537)
(-1.77615e-18 -4.80536e-19 -0.0111751)
(-5.92434e-18 6.27066e-18 -0.0107353)
(-1.1126e-17 -5.16316e-18 -0.0107796)
(4.52647e-18 -4.6616e-18 -0.0108214)
(-4.23186e-18 6.34214e-20 -0.0108609)
(2.23267e-18 -2.14642e-18 -0.0108979)
(1.75023e-19 -1.49737e-18 -0.0109322)
(-2.79117e-19 -2.57631e-18 -0.0109635)
(-1.71056e-18 -1.16998e-18 -0.0109917)
(6.48008e-19 -5.61284e-19 -0.0110167)
(-1.31823e-18 -2.855e-19 -0.0110383)
(-6.6335e-18 6.55177e-18 -0.0105923)
(-1.27819e-17 -6.46515e-18 -0.0106369)
(4.91981e-18 -5.30644e-18 -0.0106791)
(-4.09672e-18 2.57583e-19 -0.0107189)
(2.47057e-18 -2.2743e-18 -0.0107562)
(3.144e-19 -1.33865e-18 -0.0107907)
(-2.16471e-19 -2.54708e-18 -0.0108223)
(-1.77984e-18 -1.27296e-18 -0.0108507)
(6.27444e-19 -5.81583e-19 -0.0108758)
(-7.4309e-19 -4.32267e-20 -0.0108976)
(-7.52081e-18 6.86092e-18 -0.0104451)
(-1.31576e-17 -6.73556e-18 -0.01049)
(5.00972e-18 -6.34024e-18 -0.0105325)
(-4.35384e-18 1.87353e-19 -0.0105727)
(2.77125e-18 -2.3817e-18 -0.0106103)
(1.20453e-19 -1.36705e-18 -0.0106451)
(3.33042e-19 -2.29381e-18 -0.0106769)
(-1.81681e-18 -1.33541e-18 -0.0107055)
(2.67934e-19 -7.46847e-19 -0.0107308)
(-3.98644e-19 1.25034e-19 -0.0107528)
(-8.46823e-18 7.11929e-18 -0.0102932)
(-3.14268e-18 -1.11381e-18 -0.0130142)
(-3.11495e-18 -9.99652e-19 -0.0129183)
(-3.15759e-18 -1.0157e-18 -0.0128211)
(-3.35096e-18 -1.24397e-18 -0.0127224)
(-3.87207e-18 -1.88348e-18 -0.0126222)
(-4.36251e-18 -2.58767e-18 -0.0125204)
(-4.40983e-18 -2.86727e-18 -0.012417)
(-4.09601e-18 -2.74418e-18 -0.0123119)
(-3.43498e-18 -2.22697e-18 -0.012205)
(-2.84752e-18 -1.69525e-18 -0.0120961)
(-2.74801e-18 -1.61393e-18 -0.0119852)
(-3.06537e-18 -1.94342e-18 -0.0118722)
(-3.31945e-18 -2.22017e-18 -0.0117569)
(-3.34822e-18 -2.27874e-18 -0.0116393)
(-3.38178e-18 -2.31481e-18 -0.0115191)
(-3.22916e-18 -2.16784e-18 -0.0113962)
(-3.02996e-18 -1.92147e-18 -0.0112705)
(-3.10581e-18 -1.95823e-18 -0.0111418)
(-3.46853e-18 -2.41742e-18 -0.0110098)
(-3.65768e-18 -2.77505e-18 -0.0108744)
(-3.35507e-18 -2.57962e-18 -0.0107353)
(-2.90657e-18 -2.19303e-18 -0.0105923)
(-2.43536e-18 -1.74392e-18 -0.0104451)
(-2.00019e-18 -1.35642e-18 -0.0102932)
(-2.80282e-18 1.31071e-18 -0.0130534)
(-3.12475e-18 1.17437e-18 -0.0129577)
(-3.59156e-18 8.15651e-19 -0.0128606)
(-3.84042e-18 7.68196e-19 -0.0127622)
(-4.08576e-18 7.33261e-19 -0.0126622)
(-4.65754e-18 4.08967e-19 -0.0125606)
(-4.98881e-18 4.19661e-19 -0.0124574)
(-5.20824e-18 6.26528e-19 -0.0123525)
(-5.50802e-18 6.66115e-19 -0.0122457)
(-5.31056e-18 1.23601e-18 -0.0121371)
(-4.74419e-18 2.19824e-18 -0.0120264)
(-4.55334e-18 2.7104e-18 -0.0119137)
(-4.65131e-18 2.91304e-18 -0.0117987)
(-4.51808e-18 3.4119e-18 -0.0116813)
(-4.37913e-18 3.89205e-18 -0.0115614)
(-4.38971e-18 4.18209e-18 -0.0114388)
(-4.45561e-18 4.41542e-18 -0.0113134)
(-5.01065e-18 4.04702e-18 -0.011185)
(-5.6291e-18 3.58512e-18 -0.0110533)
(-5.72376e-18 3.79359e-18 -0.0109183)
(-5.57148e-18 4.2793e-18 -0.0107796)
(-5.46527e-18 4.66716e-18 -0.0106369)
(-5.57639e-18 4.79303e-18 -0.01049)
(-5.88765e-18 4.64716e-18 -0.0103386)
(-1.39819e-18 4.9426e-19 -0.0130906)
(-1.79553e-18 9.03499e-20 -0.0129951)
(-1.92908e-18 9.34285e-20 -0.0128982)
(-2.08765e-18 1.50755e-20 -0.0127999)
(-2.19124e-18 -8.51943e-20 -0.0127001)
(-2.24076e-18 -1.1593e-19 -0.0125987)
(-2.20873e-18 4.85237e-20 -0.0124957)
(-2.23334e-18 1.75206e-19 -0.012391)
(-2.48719e-18 8.82054e-21 -0.0122844)
(-2.78929e-18 -2.06635e-19 -0.012176)
(-3.00069e-18 -3.55449e-19 -0.0120656)
(-3.06593e-18 -3.3974e-19 -0.011953)
(-3.12128e-18 -3.53519e-19 -0.0118382)
(-3.28374e-18 -5.91897e-19 -0.0117211)
(-3.46042e-18 -9.27018e-19 -0.0116014)
(-3.32943e-18 -8.07473e-19 -0.0114791)
(-3.09334e-18 -5.50504e-19 -0.011354)
(-3.15795e-18 -7.71057e-19 -0.0112259)
(-3.41447e-18 -1.18413e-18 -0.0110945)
(-3.65553e-18 -1.55513e-18 -0.0109598)
(-3.79963e-18 -1.8305e-18 -0.0108214)
(-3.6466e-18 -1.75602e-18 -0.0106791)
(-3.3149e-18 -1.43485e-18 -0.0105325)
(-3.07295e-18 -1.2121e-18 -0.0103815)
(-2.06745e-18 3.04254e-18 -0.0131259)
(-2.21703e-18 2.8793e-18 -0.0130305)
(-2.59788e-18 2.35519e-18 -0.0129338)
(-3.14097e-18 1.64481e-18 -0.0128356)
(-3.55918e-18 1.14267e-18 -0.012736)
(-3.70267e-18 1.02808e-18 -0.0126348)
(-3.46877e-18 1.42004e-18 -0.012532)
(-3.23836e-18 1.73337e-18 -0.0124274)
(-3.1665e-18 1.81987e-18 -0.0123211)
(-2.99313e-18 2.11226e-18 -0.0122129)
(-2.73923e-18 2.58968e-18 -0.0121026)
(-2.74143e-18 2.67038e-18 -0.0119903)
(-3.08902e-18 2.21378e-18 -0.0118757)
(-3.35601e-18 1.90525e-18 -0.0117588)
(-3.24932e-18 2.22793e-18 -0.0116394)
(-2.99722e-18 2.77075e-18 -0.0115173)
(-3.15188e-18 2.66869e-18 -0.0113924)
(-3.42096e-18 2.3807e-18 -0.0112646)
(-3.42017e-18 2.48934e-18 -0.0111335)
(-3.44201e-18 2.5981e-18 -0.010999)
(-3.63176e-18 2.50137e-18 -0.0108609)
(-3.71189e-18 2.58511e-18 -0.0107189)
(-3.57503e-18 2.98387e-18 -0.0105727)
(-3.30725e-18 3.52128e-18 -0.010422)
(-1.54073e-18 -1.13026e-20 -0.013159)
(-1.58773e-18 -3.25997e-19 -0.0130638)
(-1.38399e-18 -1.60479e-19 -0.0129672)
(-1.29675e-18 -6.80056e-20 -0.0128692)
(-1.49638e-18 -3.73707e-19 -0.0127697)
(-1.88714e-18 -9.69463e-19 -0.0126687)
(-2.26494e-18 -1.46701e-18 -0.012566)
(-2.3801e-18 -1.53806e-18 -0.0124616)
(-2.36864e-18 -1.38083e-18 -0.0123555)
(-2.29584e-18 -1.12101e-18 -0.0122474)
(-2.29943e-18 -1.07188e-18 -0.0121374)
(-2.31495e-18 -1.16901e-18 -0.0120252)
(-2.24653e-18 -1.11928e-18 -0.0119109)
(-2.14911e-18 -9.63795e-19 -0.0117941)
(-2.18092e-18 -1.03542e-18 -0.0116749)
(-2.13862e-18 -1.07497e-18 -0.0115531)
(-2.01821e-18 -1.04819e-18 -0.0114284)
(-2.16437e-18 -1.45037e-18 -0.0113008)
(-2.28249e-18 -1.83364e-18 -0.01117)
(-2.1835e-18 -1.857e-18 -0.0110358)
(-2.11386e-18 -1.95844e-18 -0.0108979)
(-2.06438e-18 -2.10861e-18 -0.0107562)
(-2.02032e-18 -2.29526e-18 -0.0106103)
(-1.92844e-18 -2.42911e-18 -0.0104599)
(-8.84748e-19 8.09694e-19 -0.0131897)
(-7.90524e-19 9.23765e-19 -0.0130946)
(-6.66239e-19 9.96266e-19 -0.0129981)
(-5.50913e-19 1.08336e-18 -0.0129003)
(-4.69208e-19 1.11133e-18 -0.012801)
(-2.24631e-19 1.46548e-18 -0.0127001)
(9.6528e-20 2.0667e-18 -0.0125976)
(2.55858e-19 2.30048e-18 -0.0124933)
(3.24461e-19 2.37626e-18 -0.0123873)
(3.01872e-19 2.28343e-18 -0.0122794)
(8.91955e-20 1.83542e-18 -0.0121696)
(-1.32706e-19 1.36242e-18 -0.0120576)
(-1.91689e-19 1.16467e-18 -0.0119434)
(-1.77005e-19 1.05304e-18 -0.0118269)
(-2.47281e-19 8.45893e-19 -0.0117078)
(-3.8831e-19 5.94865e-19 -0.0115862)
(-5.49544e-19 3.14452e-19 -0.0114618)
(-6.87974e-19 4.40221e-20 -0.0113343)
(-7.20695e-19 1.51692e-20 -0.0112038)
(-7.52392e-19 -1.55828e-20 -0.0110698)
(-9.22961e-19 -3.10287e-19 -0.0109322)
(-1.01768e-18 -4.40419e-19 -0.0107907)
(-9.40282e-19 -2.72138e-19 -0.0106451)
(-8.38496e-19 -1.08205e-19 -0.010495)
(-2.07426e-18 4.9003e-19 -0.0132178)
(-2.23846e-18 1.92191e-19 -0.0131228)
(-2.23895e-18 2.49149e-19 -0.0130265)
(-2.13009e-18 5.29515e-19 -0.0129288)
(-2.28793e-18 3.08766e-19 -0.0128295)
(-2.43665e-18 1.15965e-19 -0.0127288)
(-2.55246e-18 -2.32971e-19 -0.0126264)
(-2.52269e-18 -4.19599e-19 -0.0125223)
(-2.24557e-18 -1.39762e-19 -0.0124165)
(-1.92777e-18 2.15754e-19 -0.0123087)
(-1.71621e-18 2.83857e-19 -0.012199)
(-1.68987e-18 -2.47797e-21 -0.0120872)
(-1.69719e-18 -3.30169e-19 -0.0119731)
(-1.44787e-18 -5.41189e-20 -0.0118568)
(-1.00998e-18 6.88906e-19 -0.0117379)
(-7.01811e-19 1.19321e-18 -0.0116165)
(-6.63784e-19 1.15481e-18 -0.0114922)
(-7.59266e-19 8.27784e-19 -0.011365)
(-7.68359e-19 6.94543e-19 -0.0112346)
(-6.96162e-19 7.09436e-19 -0.0111009)
(-6.58659e-19 7.11374e-19 -0.0109635)
(-7.99662e-19 3.89658e-19 -0.0108223)
(-1.08565e-18 -2.26965e-19 -0.0106769)
(-1.15054e-18 -3.84524e-19 -0.010527)
(-2.29653e-18 1.90249e-18 -0.0132431)
(-2.27615e-18 1.83664e-18 -0.0131483)
(-2.28893e-18 1.77371e-18 -0.0130521)
(-2.08978e-18 2.0534e-18 -0.0129544)
(-1.88001e-18 2.38525e-18 -0.0128553)
(-1.98927e-18 2.01574e-18 -0.0127547)
(-2.24957e-18 1.33514e-18 -0.0126524)
(-2.48808e-18 7.9141e-19 -0.0125485)
(-2.57286e-18 5.84579e-19 -0.0124428)
(-2.64109e-18 3.20675e-19 -0.0123351)
(-2.70465e-18 -2.19651e-20 -0.0122255)
(-2.65887e-18 -6.0392e-20 -0.0121139)
(-2.53937e-18 1.33438e-19 -0.012)
(-2.38006e-18 5.1506e-19 -0.0118838)
(-2.21611e-18 8.05231e-19 -0.0117651)
(-2.05286e-18 9.91785e-19 -0.0116438)
(-1.96265e-18 9.49683e-19 -0.0115197)
(-1.98093e-18 7.30518e-19 -0.0113926)
(-1.96589e-18 5.97088e-19 -0.0112624)
(-1.84915e-18 7.11874e-19 -0.0111289)
(-1.66896e-18 9.51064e-19 -0.0109917)
(-1.53469e-18 1.074e-18 -0.0108507)
(-1.45077e-18 1.1729e-18 -0.0107055)
(-1.44397e-18 1.19733e-18 -0.0105559)
(-1.56867e-18 -6.38768e-19 -0.0132656)
(-1.58046e-18 -8.48841e-19 -0.0131708)
(-1.61829e-18 -1.14057e-18 -0.0130747)
(-1.69056e-18 -1.35395e-18 -0.0129772)
(-1.62751e-18 -1.18264e-18 -0.0128782)
(-1.48714e-18 -8.47571e-19 -0.0127777)
(-1.43783e-18 -7.55508e-19 -0.0126755)
(-1.4865e-18 -8.82035e-19 -0.0125717)
(-1.5971e-18 -1.0636e-18 -0.012466)
(-1.68744e-18 -1.24537e-18 -0.0123585)
(-1.75634e-18 -1.27906e-18 -0.012249)
(-1.81692e-18 -1.23199e-18 -0.0121375)
(-1.82649e-18 -1.02052e-18 -0.0120237)
(-1.83513e-18 -7.33122e-19 -0.0119076)
(-1.91335e-18 -6.67499e-19 -0.0117891)
(-1.9754e-18 -6.13773e-19 -0.0116679)
(-1.94608e-18 -3.54849e-19 -0.011544)
(-1.99753e-18 -2.20231e-19 -0.0114171)
(-2.14842e-18 -3.15568e-19 -0.0112871)
(-2.27497e-18 -4.13277e-19 -0.0111537)
(-2.38735e-18 -5.08023e-19 -0.0110167)
(-2.3958e-18 -3.43849e-19 -0.0108758)
(-2.25585e-18 9.71115e-20 -0.0107308)
(-2.0778e-18 6.10875e-19 -0.0105814)
(-9.89739e-19 8.86579e-19 -0.013285)
(-1.04322e-18 8.01947e-19 -0.0131903)
(-1.00139e-18 1.17713e-18 -0.0130943)
(-9.00536e-19 1.86704e-18 -0.0129969)
(-9.77259e-19 2.00486e-18 -0.012898)
(-1.18976e-18 1.56395e-18 -0.0127975)
(-1.34351e-18 1.18928e-18 -0.0126955)
(-1.35265e-18 1.21299e-18 -0.0125917)
(-1.37047e-18 1.20972e-18 -0.0124862)
(-1.44328e-18 9.99492e-19 -0.0123788)
(-1.46356e-18 1.04404e-18 -0.0122694)
(-1.4711e-18 1.17682e-18 -0.0121579)
(-1.39598e-18 1.60998e-18 -0.0120443)
(-1.27673e-18 2.13085e-18 -0.0119283)
(-1.3046e-18 2.13856e-18 -0.0118099)
(-1.40795e-18 1.89829e-18 -0.0116889)
(-1.4034e-18 2.02763e-18 -0.011565)
(-1.30903e-18 2.41473e-18 -0.0114383)
(-1.38839e-18 2.18997e-18 -0.0113084)
(-1.5151e-18 1.83508e-18 -0.0111751)
(-1.59155e-18 1.74047e-18 -0.0110383)
(-1.85541e-18 1.0473e-18 -0.0108976)
(-2.12088e-18 3.95067e-19 -0.0107528)
(-2.11884e-18 5.9243e-19 -0.0106035)
(-2.92059e-18 2.23074e-19 -0.0133014)
(-2.85819e-18 3.35989e-19 -0.0132068)
(-2.8339e-18 4.4807e-19 -0.0131108)
(-2.78014e-18 5.90654e-19 -0.0130135)
(-2.67503e-18 7.56312e-19 -0.0129146)
(-2.67926e-18 6.08864e-19 -0.0128142)
(-2.79214e-18 1.38548e-19 -0.0127123)
(-2.87534e-18 -2.25437e-19 -0.0126086)
(-2.88145e-18 -4.29731e-19 -0.0125031)
(-2.87433e-18 -4.79471e-19 -0.0123958)
(-2.80881e-18 -2.44823e-19 -0.0122865)
(-2.76536e-18 -8.29772e-20 -0.0121751)
(-2.77891e-18 -7.2401e-20 -0.0120616)
(-2.73868e-18 -1.29565e-20 -0.0119457)
(-2.65412e-18 5.188e-20 -0.0118274)
(-2.58886e-18 6.8333e-20 -0.0117064)
(-2.53024e-18 6.83738e-20 -0.0115827)
(-2.47468e-18 -3.09895e-20 -0.0114561)
(-2.37781e-18 -2.91256e-20 -0.0113263)
(-2.25147e-18 2.53582e-19 -0.0111931)
(-2.11613e-18 5.71985e-19 -0.0110564)
(-1.97076e-18 9.78022e-19 -0.0109158)
(-1.92045e-18 1.19524e-18 -0.0107712)
(-1.98098e-18 9.46067e-19 -0.0106221)
(-2.11159e-18 -9.82863e-19 -0.0133146)
(-2.14007e-18 -6.17767e-19 -0.01322)
(-2.1102e-18 -1.37801e-19 -0.0131241)
(-2.08478e-18 -3.14928e-21 -0.0130268)
(-2.04043e-18 5.10376e-20 -0.012928)
(-1.95734e-18 1.864e-19 -0.0128277)
(-1.94971e-18 3.12262e-20 -0.0127258)
(-2.02043e-18 -3.55698e-19 -0.0126222)
(-2.05065e-18 -5.29263e-19 -0.0125168)
(-2.00848e-18 -4.98644e-19 -0.0124095)
(-1.96096e-18 -3.65668e-19 -0.0123003)
(-1.8729e-18 5.07587e-21 -0.012189)
(-1.81973e-18 2.10174e-19 -0.0120755)
(-1.8836e-18 -9.82625e-20 -0.0119597)
(-1.94089e-18 -3.77759e-19 -0.0118414)
(-1.94805e-18 -4.18596e-19 -0.0117206)
(-1.93471e-18 -3.86588e-19 -0.0115969)
(-1.87948e-18 -3.16658e-19 -0.0114704)
(-1.8154e-18 -2.38694e-19 -0.0113407)
(-1.74076e-18 -8.86221e-20 -0.0112076)
(-1.67252e-18 2.15506e-20 -0.011071)
(-1.59747e-18 9.31943e-20 -0.0109306)
(-1.52346e-18 5.18404e-20 -0.010786)
(-1.48234e-18 -1.57445e-19 -0.010637)
(-1.25152e-19 8.88839e-19 -0.0133245)
(-3.02487e-19 3.80641e-19 -0.01323)
(-4.92394e-19 -1.9994e-19 -0.0131341)
(-6.48201e-19 -6.91418e-19 -0.0130369)
(-7.6828e-19 -9.07497e-19 -0.0129381)
(-8.14651e-19 -9.93382e-19 -0.0128379)
(-7.99467e-19 -9.19671e-19 -0.012736)
(-8.02136e-19 -9.97144e-19 -0.0126324)
(-8.77752e-19 -1.56265e-18 -0.0125271)
(-9.19434e-19 -1.82123e-18 -0.0124198)
(-9.05984e-19 -1.44614e-18 -0.0123107)
(-8.94375e-19 -1.20585e-18 -0.0121994)
(-8.53544e-19 -8.60277e-19 -0.012086)
(-8.28827e-19 -5.20715e-19 -0.0119702)
(-8.79555e-19 -5.13104e-19 -0.011852)
(-9.35942e-19 -6.26919e-19 -0.0117312)
(-1.02366e-18 -1.04545e-18 -0.0116077)
(-1.11201e-18 -1.53621e-18 -0.0114812)
(-1.13764e-18 -1.49762e-18 -0.0113515)
(-1.09541e-18 -1.09065e-18 -0.0112186)
(-1.05839e-18 -8.45055e-19 -0.011082)
(-1.0322e-18 -7.57846e-19 -0.0109417)
(-1.01388e-18 -7.12963e-19 -0.0107972)
(-9.93107e-19 -5.97181e-19 -0.0106483)
(-3.36625e-19 1.13822e-18 -0.0133311)
(-1.98974e-19 1.84051e-18 -0.0132367)
(-9.13689e-20 2.16747e-18 -0.0131408)
(-7.90528e-20 2.13426e-18 -0.0130436)
(-1.08602e-19 1.74771e-18 -0.0129449)
(-1.73207e-19 1.10784e-18 -0.0128447)
(-2.34356e-19 6.53847e-19 -0.0127428)
(-2.92993e-19 4.29756e-19 -0.0126393)
(-3.52515e-19 4.7427e-19 -0.0125339)
(-4.29834e-19 8.4243e-19 -0.0124268)
(-4.42938e-19 1.11442e-18 -0.0123176)
(-4.39361e-19 1.24897e-18 -0.0122064)
(-3.91663e-19 1.50353e-18 -0.012093)
(-3.17552e-19 1.70883e-18 -0.0119773)
(-2.55122e-19 1.659e-18 -0.0118591)
(-2.53313e-19 1.41923e-18 -0.0117384)
(-2.55647e-19 1.27792e-18 -0.0116149)
(-2.69125e-19 1.31672e-18 -0.0114884)
(-3.01746e-19 1.22709e-18 -0.0113588)
(-3.32161e-19 9.85584e-19 -0.0112259)
(-3.41417e-19 8.20802e-19 -0.0110894)
(-3.19297e-19 8.1076e-19 -0.0109491)
(-2.9501e-19 8.14174e-19 -0.0108046)
(-2.81798e-19 7.19858e-19 -0.0106558)
(-2.39924e-18 5.36331e-19 -0.0133345)
(-2.34998e-18 -1.20123e-19 -0.01324)
(-2.22387e-18 -1.18955e-19 -0.0131442)
(-2.08725e-18 8.89299e-20 -0.013047)
(-1.96409e-18 1.8133e-19 -0.0129483)
(-1.88239e-18 3.7551e-19 -0.0128481)
(-1.81524e-18 7.2908e-19 -0.0127462)
(-1.7913e-18 1.02218e-18 -0.0126427)
(-1.81149e-18 1.07124e-18 -0.0125374)
(-1.83882e-18 5.52923e-19 -0.0124302)
(-1.82897e-18 2.85243e-20 -0.0123211)
(-1.8001e-18 -3.05375e-19 -0.0122099)
(-1.76078e-18 -5.80378e-19 -0.0120965)
(-1.69823e-18 -5.95413e-19 -0.0119808)
(-1.60429e-18 -1.34203e-19 -0.0118627)
(-1.50759e-18 4.06709e-19 -0.011742)
(-1.43023e-18 3.94511e-19 -0.0116185)
(-1.34985e-18 2.7381e-19 -0.011492)
(-1.27417e-18 2.3377e-19 -0.0113625)
(-1.20795e-18 2.69217e-19 -0.0112296)
(-1.16279e-18 6.46694e-20 -0.0110931)
(-1.12093e-18 -1.53508e-19 -0.0109528)
(-1.06137e-18 -1.58786e-19 -0.0108084)
(-9.91973e-19 -1.59378e-19 -0.0106596)
(-6.00303e-19 2.9267e-19 -0.0133345)
(-5.52899e-19 -1.30949e-19 -0.01324)
(-5.18257e-19 -2.85616e-19 -0.0131442)
(-4.66538e-19 -2.34372e-19 -0.013047)
(-4.09076e-19 -1.19929e-19 -0.0129483)
(-3.70278e-19 -2.07828e-19 -0.0128481)
(-3.41943e-19 -1.52578e-19 -0.0127462)
(-3.05364e-19 2.89341e-19 -0.0126427)
(-2.53308e-19 5.46734e-19 -0.0125374)
(-1.85647e-19 4.27731e-19 -0.0124302)
(-1.34543e-19 1.60534e-19 -0.0123211)
(-9.31173e-20 2.3691e-20 -0.0122099)
(-9.38187e-20 -9.5476e-21 -0.0120965)
(-1.17005e-19 -1.95766e-19 -0.0119808)
(-1.54803e-19 -4.65293e-19 -0.0118627)
(-1.64274e-19 -6.56184e-19 -0.011742)
(-1.80008e-19 -8.19175e-19 -0.0116185)
(-2.00531e-19 -7.9572e-19 -0.011492)
(-2.23064e-19 -6.90112e-19 -0.0113625)
(-2.35314e-19 -6.23866e-19 -0.0112296)
(-2.38846e-19 -5.71911e-19 -0.0110931)
(-2.5676e-19 -7.2122e-19 -0.0109528)
(-2.6678e-19 -1.02941e-18 -0.0108084)
(-2.84955e-19 -1.01838e-18 -0.0106596)
(-1.44735e-18 -4.10292e-19 -0.0133311)
(-1.45289e-18 -5.56195e-19 -0.0132367)
(-1.47827e-18 -6.74282e-19 -0.0131408)
(-1.51473e-18 -6.80202e-19 -0.0130436)
(-1.55725e-18 -4.13653e-19 -0.0129449)
(-1.60124e-18 6.90821e-20 -0.0128447)
(-1.63867e-18 3.55947e-19 -0.0127428)
(-1.6162e-18 4.28538e-19 -0.0126393)
(-1.55163e-18 3.52051e-19 -0.0125339)
(-1.48088e-18 9.53332e-22 -0.0124268)
(-1.41426e-18 -2.35602e-19 -0.0123176)
(-1.37953e-18 -7.87486e-20 -0.0122064)
(-1.32044e-18 3.43076e-19 -0.012093)
(-1.25685e-18 7.97395e-19 -0.0119773)
(-1.21265e-18 1.11675e-18 -0.0118591)
(-1.17208e-18 1.40685e-18 -0.0117384)
(-1.13801e-18 1.47954e-18 -0.0116149)
(-1.10765e-18 1.39303e-18 -0.0114884)
(-1.06221e-18 1.28404e-18 -0.0113588)
(-1.00437e-18 1.1507e-18 -0.0112259)
(-9.59446e-19 1.11777e-18 -0.0110894)
(-9.19601e-19 1.08762e-18 -0.0109491)
(-8.7285e-19 9.74281e-19 -0.0108046)
(-8.37406e-19 7.52204e-19 -0.0106558)
(-6.37041e-19 3.4827e-20 -0.0133245)
(-6.71791e-19 1.0738e-19 -0.01323)
(-7.41143e-19 5.05024e-20 -0.0131341)
(-7.89652e-19 -3.98381e-20 -0.0130369)
(-8.20628e-19 -2.08457e-19 -0.0129381)
(-8.14021e-19 -3.9023e-19 -0.0128379)
(-7.69242e-19 -6.8288e-19 -0.012736)
(-7.42717e-19 -9.24827e-19 -0.0126324)
(-7.82323e-19 -8.35126e-19 -0.0125271)
(-8.19147e-19 -8.76279e-19 -0.0124198)
(-8.67699e-19 -1.16802e-18 -0.0123107)
(-8.92865e-19 -1.72613e-18 -0.0121994)
(-9.09625e-19 -2.26413e-18 -0.012086)
(-9.55684e-19 -2.18948e-18 -0.0119702)
(-9.9672e-19 -2.07496e-18 -0.011852)
(-1.02767e-18 -1.95688e-18 -0.0117312)
(-1.05504e-18 -1.67766e-18 -0.0116077)
(-1.04238e-18 -1.59012e-18 -0.0114812)
(-9.78399e-19 -1.70335e-18 -0.0113515)
(-9.28817e-19 -1.6267e-18 -0.0112186)
(-9.07139e-19 -1.37858e-18 -0.011082)
(-8.30463e-19 -1.41205e-18 -0.0109417)
(-7.53098e-19 -1.46676e-18 -0.0107972)
(-6.92468e-19 -1.42763e-18 -0.0106483)
(-4.05209e-19 7.00439e-19 -0.0133146)
(-3.8255e-19 9.13495e-19 -0.01322)
(-3.43975e-19 1.01473e-18 -0.0131241)
(-2.35592e-19 8.06506e-19 -0.0130268)
(-1.42962e-19 7.0736e-19 -0.012928)
(-6.69214e-20 6.71081e-19 -0.0128277)
(-6.18937e-20 8.24801e-19 -0.0127258)
(-1.34858e-19 1.18132e-18 -0.0126222)
(-1.85929e-19 1.40954e-18 -0.0125168)
(-1.92654e-19 1.54476e-18 -0.0124095)
(-2.00013e-19 1.74061e-18 -0.0123003)
(-1.77181e-19 1.81538e-18 -0.012189)
(-1.44925e-19 1.56833e-18 -0.0120755)
(-1.70333e-19 1.35694e-18 -0.0119597)
(-2.20032e-19 1.41341e-18 -0.0118414)
(-2.34475e-19 1.309e-18 -0.0117206)
(-1.96469e-19 9.49337e-19 -0.0115969)
(-9.81239e-20 4.22722e-19 -0.0114704)
(-2.23139e-20 -4.59002e-20 -0.0113407)
(-5.25125e-20 -1.52853e-19 -0.0112076)
(-8.33293e-20 -2.60994e-19 -0.011071)
(-9.37895e-20 -4.1703e-19 -0.0109306)
(-1.3233e-19 -3.92707e-19 -0.010786)
(-1.39479e-19 -3.72602e-19 -0.010637)
(-9.03375e-19 -5.8436e-19 -0.0139298)
(-7.58329e-19 -1.37357e-18 -0.0138434)
(-6.76352e-19 -1.63821e-18 -0.0137559)
(-6.17952e-19 -1.64484e-18 -0.0136673)
(-6.0906e-19 -1.40419e-18 -0.0135776)
(-6.12912e-19 -1.02552e-18 -0.0134867)
(-6.41021e-19 -7.64186e-19 -0.0133947)
(-6.45565e-19 -4.66032e-19 -0.0133014)
(-6.30046e-19 -2.91167e-19 -0.0132068)
(-5.20926e-19 -4.00721e-19 -0.0131108)
(-4.37223e-19 -5.77088e-19 -0.0130135)
(-4.15592e-19 -6.51111e-19 -0.0129146)
(-4.84135e-19 -4.16861e-19 -0.0128142)
(-6.01239e-19 1.66437e-20 -0.0127123)
(-6.76049e-19 1.62374e-19 -0.0126086)
(-6.76941e-19 2.80564e-20 -0.0125031)
(-6.05396e-19 -3.40145e-19 -0.0123958)
(-4.93417e-19 -7.90703e-19 -0.0122865)
(-4.36238e-19 -9.49723e-19 -0.0121751)
(-5.03408e-19 -5.01948e-19 -0.0120616)
(-5.70707e-19 -1.67567e-19 -0.0119457)
(-4.95284e-19 -3.51675e-19 -0.0118274)
(-4.69606e-19 -3.56461e-19 -0.0117064)
(-4.34017e-19 -4.56657e-19 -0.0115827)
(-4.093e-19 -5.28562e-19 -0.0114561)
(-5.42329e-19 -5.56923e-22 -0.0113263)
(-7.03028e-19 5.68156e-19 -0.0111931)
(-7.31623e-19 6.62505e-19 -0.0110564)
(-7.08744e-19 3.8213e-19 -0.0109158)
(-6.475e-19 -1.68519e-19 -0.0107712)
(-6.24201e-19 -4.92413e-19 -0.0106221)
(1.01191e-18 -3.56128e-19 -0.0139139)
(8.47419e-19 -2.48303e-19 -0.0138274)
(6.28349e-19 -1.84092e-19 -0.0137399)
(4.39481e-19 -1.08631e-19 -0.0136512)
(2.46777e-19 1.02459e-19 -0.0135614)
(1.08028e-19 2.47348e-19 -0.0134705)
(6.35767e-20 8.68218e-20 -0.0133784)
(4.35914e-20 -1.61168e-19 -0.013285)
(-2.23163e-20 -1.28222e-19 -0.0131903)
(-1.28933e-19 5.1325e-20 -0.0130943)
(-3.43837e-19 4.29767e-19 -0.0129969)
(-5.48941e-19 7.70695e-19 -0.012898)
(-7.02628e-19 9.16424e-19 -0.0127975)
(-9.05344e-19 1.28572e-18 -0.0126955)
(-1.08982e-18 1.73205e-18 -0.0125917)
(-1.11719e-18 1.67142e-18 -0.0124862)
(-1.10402e-18 1.38749e-18 -0.0123788)
(-1.14921e-18 1.23459e-18 -0.0122694)
(-1.19809e-18 1.03282e-18 -0.0121579)
(-1.2775e-18 9.02457e-19 -0.0120443)
(-1.29658e-18 7.40781e-19 -0.0119283)
(-1.34966e-18 6.70669e-19 -0.0118099)
(-1.47222e-18 7.90845e-19 -0.0116889)
(-1.5138e-18 6.01359e-19 -0.011565)
(-1.53956e-18 3.23512e-19 -0.0114383)
(-1.6313e-18 2.63886e-19 -0.0113084)
(-1.64816e-18 9.5482e-20 -0.0111751)
(-1.70868e-18 1.21439e-19 -0.0110383)
(-1.88507e-18 6.19923e-19 -0.0108976)
(-1.94576e-18 6.84965e-19 -0.0107528)
(-1.87591e-18 2.50052e-19 -0.0106035)
(-1.36932e-18 6.92957e-19 -0.013895)
(-1.70896e-18 1.30672e-18 -0.0138085)
(-1.71201e-18 1.21068e-18 -0.0137208)
(-1.58558e-18 7.74187e-19 -0.0136321)
(-1.53531e-18 5.53757e-19 -0.0135422)
(-1.58202e-18 6.05359e-19 -0.0134512)
(-1.70653e-18 7.66418e-19 -0.013359)
(-1.80729e-18 7.94592e-19 -0.0132656)
(-1.834e-18 7.09257e-19 -0.0131708)
(-1.96372e-18 9.35047e-19 -0.0130747)
(-2.05632e-18 1.10971e-18 -0.0129772)
(-2.02117e-18 1.03072e-18 -0.0128782)
(-1.99062e-18 1.16468e-18 -0.0127777)
(-1.89252e-18 1.15672e-18 -0.0126755)
(-1.66063e-18 8.68902e-19 -0.0125717)
(-1.54143e-18 7.84801e-19 -0.012466)
(-1.47095e-18 7.81429e-19 -0.0123585)
(-1.37569e-18 6.49842e-19 -0.012249)
(-1.37112e-18 6.89329e-19 -0.0121375)