/*--------------------------------*- C++ -*----------------------------------*\
  =========                 |
  \\      /  F ield         | OpenFOAM: The Open Source CFD Toolbox
   \\    /   O peration     | Website:  https://openfoam.org
    \\  /    A nd           | Version:  7
     \\/     M anipulation  |
\*---------------------------------------------------------------------------*/
FoamFile
{
    version     2.0;
    format      ascii;
    class       volVectorField;
    location    "76000";
    object      U;
}
// * * * * * * * * * * * * * * * * * * * * * * * * * * * * * * * * * * * * * //

dimensions      [0 1 -1 0 0 0 0];

internalField   nonuniform List<vector> 
4825
(
(-1.51172e-18 -1.63729e-19 -0.00997021)
(-9.54777e-19 -8.82986e-19 -0.00999242)
(-1.58605e-18 -1.51969e-19 -0.009916)
(-9.62728e-19 -8.60089e-19 -0.00993829)
(-1.82548e-18 -5.7587e-20 -0.00996003)
(-8.89261e-19 -2.0714e-19 -0.00998119)
(-9.372e-19 -5.46956e-19 -0.0100017)
(-1.64821e-18 -1.17954e-19 -0.00986129)
(-1.0776e-18 -7.65e-19 -0.00988365)
(-1.65015e-18 -2.82423e-19 -0.00990547)
(-9.96753e-19 -1.7341e-19 -0.00992671)
(-8.5405e-19 -7.09478e-19 -0.0099473)
(-1.72104e-18 -2.43908e-20 -0.00980606)
(-1.19285e-18 -6.83821e-19 -0.0098285)
(-1.62409e-18 -3.28745e-19 -0.0098504)
(-1.12873e-18 -1.00485e-19 -0.00987171)
(-8.91473e-19 -6.85915e-19 -0.00989238)
(-1.74126e-18 -4.18657e-21 -0.0097503)
(-1.03693e-18 -9.51561e-19 -0.00977282)
(-1.64432e-18 -3.01257e-19 -0.00979479)
(-1.16491e-18 -1.46169e-19 -0.00981618)
(-9.40771e-19 -6.43887e-19 -0.00983692)
(-1.57505e-18 -2.7132e-19 -0.009694)
(-8.29125e-19 -1.26189e-18 -0.0097166)
(-1.51358e-18 -4.24411e-19 -0.00973865)
(-1.04554e-18 -4.13162e-19 -0.00976012)
(-8.10891e-19 -7.97667e-19 -0.00978094)
(-1.43645e-18 -5.24998e-19 -0.00963716)
(-8.04754e-19 -1.34624e-18 -0.00965984)
(-1.35819e-18 -6.03715e-19 -0.00968196)
(-8.59052e-19 -7.71276e-19 -0.00970351)
(-6.1039e-19 -1.00199e-18 -0.00972439)
(-1.52846e-18 -5.21575e-19 -0.00957975)
(-8.85325e-19 -1.30003e-18 -0.00960251)
(-1.37442e-18 -5.98119e-19 -0.00962471)
(-8.30374e-19 -9.25405e-19 -0.00964633)
(-5.07172e-19 -1.05628e-18 -0.00966729)
(-1.66938e-18 -4.07994e-19 -0.00952177)
(-1.17445e-18 -1.01507e-18 -0.00954461)
(-1.38556e-18 -6.05419e-19 -0.00956689)
(-1.01065e-18 -8.09677e-19 -0.00958858)
(-4.52609e-19 -1.07307e-18 -0.00960962)
(-1.59238e-18 -4.6667e-19 -0.00946321)
(-1.66948e-18 -5.00351e-19 -0.00948612)
(-1.3826e-18 -6.59204e-19 -0.00950848)
(-1.25826e-18 -6.00643e-19 -0.00953025)
(-4.56248e-19 -1.02832e-18 -0.00955135)
(-1.36092e-18 -6.39374e-19 -0.00940404)
(-2.0558e-18 -8.89989e-20 -0.00942704)
(-1.50065e-18 -6.00919e-19 -0.00944947)
(-1.40296e-18 -5.20227e-19 -0.00947131)
(-5.22402e-19 -8.82271e-19 -0.00949249)
(-1.15194e-18 -7.71831e-19 -0.00934427)
(-2.09189e-18 -5.29315e-20 -0.00936734)
(-1.62349e-18 -5.67337e-19 -0.00938985)
(-1.46738e-18 -5.53698e-19 -0.00941176)
(-5.38941e-19 -7.71958e-19 -0.00943302)
(-1.03156e-18 -8.35985e-19 -0.00928386)
(-1.84967e-18 -3.29111e-19 -0.00930701)
(-1.57293e-18 -7.27681e-19 -0.0093296)
(-1.55761e-18 -5.51863e-19 -0.00935159)
(-5.31461e-19 -7.17931e-19 -0.00937292)
(-9.81701e-19 -8.69039e-19 -0.00922281)
(-1.60596e-18 -6.26192e-19 -0.00924604)
(-1.45447e-18 -9.25498e-19 -0.00926871)
(-1.63604e-18 -5.37815e-19 -0.00929077)
(-9.24397e-19 -9.41079e-19 -0.00916111)
(-1.56145e-18 -6.92711e-19 -0.00918441)
(-1.39977e-18 -1.01611e-18 -0.00920716)
(-1.81604e-18 -3.62331e-19 -0.0092293)
(-8.76287e-19 -9.93145e-19 -0.00909872)
(-1.62007e-18 -6.30684e-19 -0.0091221)
(-1.39032e-18 -1.02253e-18 -0.00914494)
(-2.01096e-18 -1.51752e-19 -0.00916715)
(-8.24493e-19 -1.04816e-18 -0.00903564)
(-1.727e-18 -5.06102e-19 -0.0090591)
(-1.40786e-18 -9.89534e-19 -0.00908202)
(-7.95721e-19 -1.07213e-18 -0.00897185)
(-1.81146e-18 -3.94728e-19 -0.00899539)
(-1.33197e-18 -1.06777e-18 -0.00901838)
(-8.74303e-19 -9.86772e-19 -0.00890732)
(-1.8525e-18 -3.57669e-19 -0.00893094)
(-9.28425e-19 -9.06129e-19 -0.00884203)
(-1.91542e-18 -3.2249e-19 -0.00886573)
(-8.35451e-19 -9.69963e-19 -0.00877596)
(-1.92824e-18 -3.45103e-19 -0.00879974)
(-7.86709e-19 -9.97726e-19 -0.00870908)
(-1.86463e-18 -4.43961e-19 -0.00873295)
(-9.36741e-19 -8.2316e-19 -0.00864138)
(-1.81959e-18 -5.51652e-19 -0.00866533)
(-1.09526e-18 -6.22911e-19 -0.00857281)
(-1.28409e-18 -5.24871e-19 -0.0107212)
(-8.85607e-19 -2.09306e-20 -0.0107413)
(-4.94854e-19 -9.68882e-20 -0.0107607)
(-1.11606e-18 4.66016e-19 -0.0107795)
(-1.51822e-18 -1.24017e-19 -0.0107975)
(-2.39502e-19 5.08113e-19 -0.0108149)
(-1.22795e-18 4.0456e-19 -0.0108314)
(-7.56444e-19 4.86641e-19 -0.0108472)
(-1.82344e-18 2.65218e-19 -0.0108622)
(-6.17745e-19 9.71058e-19 -0.0108763)
(-9.86268e-19 4.16303e-19 -0.0108895)
(-7.45518e-19 5.32912e-19 -0.0109019)
(-7.78307e-19 -1.26892e-19 -0.0109134)
(-1.04649e-18 -1.36095e-19 -0.010924)
(-1.21715e-18 -1.17325e-20 -0.0109337)
(-1.75824e-18 8.93204e-19 -0.0109426)
(-1.18366e-18 9.68813e-19 -0.0109505)
(-4.43626e-19 6.91693e-19 -0.0109576)
(-3.20083e-20 8.49969e-19 -0.0109638)
(-3.35997e-19 6.34149e-19 -0.0109691)
(-1.1184e-18 -3.61608e-19 -0.0106755)
(-1.08183e-18 -2.4877e-19 -0.0106959)
(-6.16081e-19 -1.72157e-19 -0.0107156)
(-1.37083e-18 3.58677e-19 -0.0107347)
(-1.09398e-18 8.30387e-20 -0.0107531)
(-3.92877e-19 3.80277e-19 -0.0107708)
(-1.15613e-18 4.62166e-19 -0.0107878)
(-7.50371e-19 5.55884e-19 -0.0108039)
(-1.88558e-18 2.2261e-19 -0.0108192)
(-5.1132e-19 9.56823e-19 -0.0108337)
(-8.38543e-19 5.14373e-19 -0.0108473)
(-5.84212e-19 5.9554e-19 -0.01086)
(-1.73707e-19 1.66274e-19 -0.0108719)
(-1.14142e-18 -1.21382e-19 -0.0108828)
(-1.0718e-18 9.48756e-20 -0.0108929)
(-1.97162e-18 8.57657e-19 -0.010902)
(-1.03862e-18 9.04059e-19 -0.0109103)
(-3.64772e-19 6.58398e-19 -0.0109176)
(-1.80052e-19 8.65903e-19 -0.010924)
(-6.28791e-19 5.8132e-19 -0.0109295)
(-1.07044e-18 -1.63763e-19 -0.010629)
(-1.19668e-18 -3.71411e-19 -0.0106496)
(-5.71206e-19 -1.89994e-19 -0.0106696)
(-1.30663e-18 3.9505e-19 -0.010689)
(-6.32715e-19 2.96989e-19 -0.0107077)
(-3.05497e-19 4.40658e-19 -0.0107257)
(-9.5313e-19 6.08853e-19 -0.010743)
(-8.10582e-19 6.18167e-19 -0.0107594)
(-2.05811e-18 1.09713e-19 -0.010775)
(-5.18164e-19 8.70076e-19 -0.0107898)
(-7.84082e-19 6.051e-19 -0.0108038)
(-7.24741e-19 5.0662e-19 -0.0108168)
(-2.10652e-19 2.20441e-19 -0.010829)
(-1.31237e-18 -9.27493e-20 -0.0108402)
(-9.83449e-19 1.55057e-19 -0.0108505)
(-1.7391e-18 9.39378e-19 -0.01086)
(-8.22834e-19 8.67223e-19 -0.0108685)
(-2.82078e-19 6.54733e-19 -0.010876)
(-3.64077e-19 8.84105e-19 -0.0108827)
(-6.06807e-19 5.42487e-19 -0.0108883)
(-1.02887e-18 -1.30908e-20 -0.0105817)
(-9.10814e-19 -1.93232e-19 -0.0106026)
(-3.35954e-19 -5.18004e-20 -0.0106228)
(-1.05537e-18 5.41011e-19 -0.0106425)
(-5.14634e-19 2.92253e-19 -0.0106614)
(-1.94747e-19 5.22888e-19 -0.0106797)
(-7.99817e-19 7.38313e-19 -0.0106972)
(-8.02525e-19 7.81368e-19 -0.0107139)
(-2.24447e-18 8.48405e-21 -0.0107298)
(-4.82918e-19 7.62217e-19 -0.0107449)
(-8.14005e-19 6.46834e-19 -0.0107591)
(-8.02814e-19 4.91408e-19 -0.0107724)
(-5.37888e-19 1.72054e-19 -0.0107848)
(-1.15844e-18 -8.1241e-21 -0.0107963)
(-9.90802e-19 1.44327e-19 -0.0108069)
(-1.42827e-18 1.02158e-18 -0.0108166)
(-4.86924e-19 8.71349e-19 -0.0108253)
(-1.9351e-19 6.86576e-19 -0.010833)
(-3.66914e-19 9.37341e-19 -0.0108398)
(-4.42122e-19 5.11514e-19 -0.0108457)
(-9.01638e-19 1.42538e-19 -0.0105338)
(-8.1493e-19 -1.84386e-19 -0.0105548)
(-1.60309e-19 3.33806e-20 -0.0105753)
(-9.44642e-19 6.40616e-19 -0.0105951)
(-7.05198e-19 1.02829e-19 -0.0106143)
(-6.47802e-20 5.86178e-19 -0.0106328)
(-8.42815e-19 7.49956e-19 -0.0106505)
(-8.15993e-19 9.49464e-19 -0.0106675)
(-2.01886e-18 1.13977e-19 -0.0106836)
(-3.72686e-19 6.87458e-19 -0.0106989)
(-1.07885e-18 6.04659e-19 -0.0107134)
(-7.99574e-19 5.15786e-19 -0.0107269)
(-4.75053e-19 2.20443e-19 -0.0107396)
(-9.21927e-19 1.0801e-19 -0.0107513)
(-8.00614e-19 2.10807e-19 -0.0107621)
(-1.20751e-18 1.03262e-18 -0.0107719)
(-2.00245e-19 8.85507e-19 -0.0107808)
(-2.89303e-19 6.9416e-19 -0.0107888)
(-3.00583e-19 9.88519e-19 -0.0107957)
(-2.98677e-19 4.50243e-19 -0.0108017)
(-7.60798e-19 2.88076e-19 -0.0104852)
(-8.91511e-19 -2.98262e-19 -0.0105064)
(-2.00407e-19 -5.32583e-20 -0.010527)
(-1.02674e-18 6.4036e-19 -0.0105471)
(-9.58967e-19 -1.48928e-19 -0.0105664)
(-5.34364e-20 5.58503e-19 -0.0105851)
(-1.18512e-18 6.03075e-19 -0.010603)
(-9.31277e-19 9.95394e-19 -0.0106202)
(-1.56348e-18 3.37041e-19 -0.0106366)
(-3.8702e-19 6.45017e-19 -0.0106521)
(-1.32981e-18 5.55216e-19 -0.0106667)
(-7.09196e-19 5.05987e-19 -0.0106805)
(-5.40154e-19 2.24769e-19 -0.0106933)
(-8.39259e-19 1.50525e-19 -0.0107052)
(-7.38625e-19 2.29438e-19 -0.0107162)
(-1.12348e-18 1.03084e-18 -0.0107262)
(-3.12376e-20 8.96102e-19 -0.0107353)
(-5.47106e-19 6.80031e-19 -0.0107434)
(-2.88489e-19 1.00392e-18 -0.0107505)
(-1.71317e-19 3.96046e-19 -0.0107566)
(-5.79585e-19 4.72473e-19 -0.010436)
(-9.26021e-19 -3.41181e-19 -0.0104573)
(-2.93166e-19 -1.86276e-19 -0.0104781)
(-1.05838e-18 6.90059e-19 -0.0104983)
(-1.1422e-18 -3.47317e-19 -0.0105179)
(-2.16938e-19 4.38565e-19 -0.0105367)
(-1.92045e-18 2.23818e-19 -0.0105548)
(-9.93722e-19 9.77303e-19 -0.0105722)
(-1.2924e-18 4.55836e-19 -0.0105887)
(-1.23401e-19 7.76079e-19 -0.0106044)
(-1.34268e-18 6.00528e-19 -0.0106192)
(-7.92672e-19 4.57316e-19 -0.0106331)
(-6.15701e-19 2.19819e-19 -0.0106461)
(-5.92489e-19 2.50666e-19 -0.0106582)
(-7.7582e-19 2.25375e-19 -0.0106693)
(-1.0767e-18 9.71485e-19 -0.0106795)
(-6.24676e-22 8.99316e-19 -0.0106887)
(-7.62668e-19 6.81835e-19 -0.0106969)
(-3.09416e-19 9.74338e-19 -0.0107041)
(-2.73819e-19 3.2312e-19 -0.0107104)
(-5.15209e-19 5.3298e-19 -0.0103862)
(-8.40341e-19 -2.47601e-19 -0.0104077)
(-3.81698e-19 -3.24679e-19 -0.0104286)
(-9.6685e-19 8.30956e-19 -0.010449)
(-1.16513e-18 -4.0828e-19 -0.0104687)
(-5.68304e-19 2.85784e-19 -0.0104877)
(-2.51441e-18 -9.40567e-20 -0.0105059)
(-8.76855e-19 9.48467e-19 -0.0105234)
(-1.23881e-18 4.0884e-19 -0.0105401)
(3.15448e-19 9.97409e-19 -0.010556)
(-1.27454e-18 7.56257e-19 -0.0105709)
(-4.69942e-19 5.52952e-19 -0.010585)
(-5.20542e-19 2.23131e-19 -0.0105982)
(-3.83769e-19 3.31178e-19 -0.0106104)
(-4.67484e-19 3.56391e-19 -0.0106216)
(-1.02445e-18 9.44095e-19 -0.0106319)
(4.87295e-21 9.0532e-19 -0.0106413)
(-6.90637e-19 7.4468e-19 -0.0106496)
(-2.28828e-19 9.83769e-19 -0.0106569)
(-4.8755e-19 2.56403e-19 -0.0106632)
(-1.49104e-19 7.09254e-19 -0.0106685)
(-5.9559e-20 6.73926e-19 -0.0106727)
(-5.79683e-20 3.0044e-19 -0.0106759)
(-1.97826e-19 7.11511e-19 -0.010678)
(9.47403e-20 6.75702e-20 -0.010679)
(-4.56956e-20 -9.1857e-19 -0.010679)
(-5.40546e-19 2.43445e-19 -0.010678)
(4.31572e-20 -3.58303e-19 -0.0106759)
(1.11166e-19 -2.73416e-19 -0.0106727)
(1.56931e-19 -4.04442e-19 -0.0106685)
(-2.19668e-19 -2.04455e-19 -0.0106633)
(-1.58024e-20 -8.93296e-20 -0.010657)
(-2.88945e-19 -6.04893e-19 -0.0106498)
(-1.60038e-19 -2.00868e-20 -0.0106415)
(-2.64024e-19 -6.61592e-20 -0.0106322)
(-6.73549e-19 4.00176e-19 -0.0103359)
(-6.35526e-19 -5.35013e-20 -0.0103575)
(-5.52933e-19 -5.3029e-19 -0.0103786)
(-8.55963e-19 9.61209e-19 -0.010399)
(-1.15439e-18 -3.79187e-19 -0.0104189)
(-9.0794e-19 1.67038e-19 -0.010438)
(-2.24692e-18 3.41989e-20 -0.0104564)
(-7.10782e-19 9.31963e-19 -0.010474)
(-1.26828e-18 3.01188e-19 -0.0104908)
(3.35645e-19 9.9373e-19 -0.0105068)
(-1.17702e-18 8.75921e-19 -0.0105219)
(1.4263e-19 7.89274e-19 -0.0105361)
(-6.87212e-19 2.02019e-19 -0.0105494)
(-2.17056e-19 3.62578e-19 -0.0105618)
(-1.53649e-19 4.87547e-19 -0.0105731)
(-8.58464e-19 9.68366e-19 -0.0105836)
(-2.02334e-19 8.39002e-19 -0.010593)
(-6.65844e-19 7.83693e-19 -0.0106014)
(3.96446e-20 1.05647e-18 -0.0106088)
(-5.04866e-19 2.67627e-19 -0.0106152)
(-4.25694e-19 6.49039e-19 -0.0106205)
(-2.5193e-20 6.91133e-19 -0.0106248)
(-2.43441e-19 2.69359e-19 -0.010628)
(-1.15066e-19 6.69372e-19 -0.0106301)
(3.00464e-19 7.62664e-20 -0.0106312)
(-1.43866e-19 -8.77088e-19 -0.0106312)
(-5.99096e-19 2.2422e-19 -0.0106301)
(2.62005e-19 -4.29859e-19 -0.010628)
(-2.76563e-20 -2.70992e-19 -0.0106248)
(1.18684e-19 -3.94069e-19 -0.0106205)
(-2.24141e-19 -1.84963e-19 -0.0106153)
(1.85693e-19 -1.07414e-19 -0.0106089)
(-8.11883e-20 -6.19298e-19 -0.0106016)
(-1.00104e-19 9.09751e-21 -0.0105932)
(-1.5454e-19 -1.05465e-20 -0.0105838)
(-7.46082e-19 -3.50977e-19 -0.0105734)
(-6.40636e-19 -5.67133e-19 -0.010562)
(-7.83935e-19 3.42866e-19 -0.0102851)
(-3.77139e-19 1.87031e-19 -0.0103068)
(-7.60489e-19 -7.41344e-19 -0.010328)
(-8.3123e-19 9.99908e-19 -0.0103486)
(-1.2744e-18 -4.11341e-19 -0.0103685)
(-8.80129e-19 2.04385e-19 -0.0103877)
(-1.55896e-18 3.85395e-19 -0.0104063)
(-5.95707e-19 9.66549e-19 -0.010424)
(-1.11705e-18 3.24202e-19 -0.010441)
(1.34168e-19 8.72659e-19 -0.010457)
(-1.02185e-18 9.6103e-19 -0.0104723)
(4.49641e-19 9.2566e-19 -0.0104866)
(-8.42026e-19 1.93065e-19 -0.0105)
(-1.03184e-20 3.57829e-19 -0.0105124)
(-4.9041e-20 5.52825e-19 -0.0105239)
(-8.09266e-19 1.02693e-18 -0.0105344)
(-4.70777e-19 7.95138e-19 -0.0105439)
(-6.22252e-19 7.58187e-19 -0.0105524)
(8.71933e-20 1.0657e-18 -0.0105599)
(-4.39986e-19 3.32889e-19 -0.0105663)
(-3.1347e-19 6.15176e-19 -0.0105717)
(1.40505e-19 6.89063e-19 -0.010576)
(-3.42263e-20 3.14295e-19 -0.0105793)
(-1.89403e-19 6.31758e-19 -0.0105815)
(2.43738e-19 6.15451e-20 -0.0105825)
(-3.49639e-19 -8.24926e-19 -0.0105825)
(-6.5163e-19 1.62517e-19 -0.0105814)
(4.67164e-19 -5.1229e-19 -0.0105793)
(-2.6319e-19 -2.22557e-19 -0.010576)
(7.22627e-20 -3.58114e-19 -0.0105718)
(-4.66313e-19 -1.43632e-19 -0.0105664)
(3.05685e-19 -1.3837e-19 -0.01056)
(7.62919e-20 -6.08785e-19 -0.0105526)
(-2.49826e-19 8.95962e-20 -0.0105441)
(1.28444e-20 7.17123e-21 -0.0105346)
(-4.65903e-19 -4.0303e-19 -0.0105242)
(-4.43377e-19 -6.36958e-19 -0.0105127)
(-2.77906e-19 -3.68696e-19 -0.0105002)
(-7.71902e-19 3.58575e-19 -0.0102338)
(-1.2024e-19 4.52317e-19 -0.0102556)
(-9.6716e-19 -9.20124e-19 -0.0102769)
(-8.46304e-19 1.00638e-18 -0.0102975)
(-1.11499e-18 -2.81031e-19 -0.0103176)
(-5.28001e-19 3.64095e-19 -0.0103369)
(-1.07793e-18 6.27402e-19 -0.0103556)
(-6.86405e-19 9.16977e-19 -0.0103734)
(-7.20185e-19 4.95515e-19 -0.0103905)
(1.0648e-19 8.40951e-19 -0.0104067)
(-8.5311e-19 1.01612e-18 -0.010422)
(4.25246e-19 9.5116e-19 -0.0104364)
(-7.1534e-19 3.04589e-19 -0.0104499)
(6.18158e-20 3.11019e-19 -0.0104625)
(-8.5024e-20 5.92889e-19 -0.010474)
(-8.51341e-19 1.05416e-18 -0.0104846)
(-3.46596e-19 8.1424e-19 -0.0104942)
(-5.24627e-19 7.58076e-19 -0.0105028)
(-1.56723e-19 1.0333e-18 -0.0105103)
(-3.38206e-19 3.53814e-19 -0.0105168)
(-1.42353e-19 5.95898e-19 -0.0105222)
(7.46708e-20 6.78142e-19 -0.0105266)
(1.40427e-19 3.44812e-19 -0.0105299)
(-6.9346e-20 6.30082e-19 -0.010532)
(9.72948e-20 8.43001e-20 -0.0105331)
(-4.90343e-19 -7.82628e-19 -0.0105331)
(-6.74922e-19 7.31414e-20 -0.010532)
(6.90756e-19 -5.56895e-19 -0.0105298)
(-5.61301e-19 -1.62863e-19 -0.0105266)
(-3.17614e-20 -3.40993e-19 -0.0105222)
(-4.35298e-19 -1.62739e-19 -0.0105169)
(1.75965e-19 -1.6071e-19 -0.0105104)
(2.09457e-19 -5.62794e-19 -0.0105029)
(-4.08607e-19 1.6859e-19 -0.0104944)
(2.26058e-19 -4.404e-20 -0.0104848)
(-2.2045e-19 -4.35492e-19 -0.0104742)
(-3.47323e-19 -6.81071e-19 -0.0104627)
(-3.81214e-20 -5.05164e-19 -0.0104501)
(3.14253e-19 -4.06958e-19 -0.0104366)
(4.74405e-20 4.65577e-19 -0.0104222)
(-8.17872e-19 2.83395e-19 -0.010182)
(-1.38044e-20 6.21389e-19 -0.0102039)
(-1.08028e-18 -9.95191e-19 -0.0102253)
(-9.02425e-19 9.02199e-19 -0.010246)
(-7.10659e-19 -2.96796e-20 -0.0102662)
(-3.26627e-19 4.50672e-19 -0.0102856)
(-9.48248e-19 7.3298e-19 -0.0103043)
(-1.09752e-18 6.79483e-19 -0.0103223)
(-4.59581e-19 5.65429e-19 -0.0103394)
(7.75338e-20 8.4569e-19 -0.0103557)
(-6.59067e-19 1.11223e-18 -0.0103711)
(2.98331e-19 9.10377e-19 -0.0103856)
(-4.1833e-19 4.54315e-19 -0.0103992)
(1.10615e-19 2.79109e-19 -0.0104118)
(-1.83304e-19 6.06364e-19 -0.0104235)
(-8.58148e-19 1.07152e-18 -0.0104341)
(-3.23121e-19 8.21201e-19 -0.0104438)
(-4.61812e-19 7.91184e-19 -0.0104524)
(-2.25088e-19 1.01826e-18 -0.01046)
(-2.4377e-19 3.59097e-19 -0.0104665)
(-1.78645e-19 5.65676e-19 -0.010472)
(2.39418e-20 6.5149e-19 -0.0104764)
(1.97343e-19 3.46916e-19 -0.0104797)
(1.81858e-20 6.45989e-19 -0.0104819)
(-3.05124e-20 1.07435e-19 -0.010483)
(-5.10273e-19 -7.52299e-19 -0.010483)
(-5.91115e-19 -5.33877e-20 -0.0104819)
(8.76535e-19 -5.97414e-19 -0.0104797)
(-5.30943e-19 -9.2238e-20 -0.0104764)
(-3.29148e-20 -3.65965e-19 -0.010472)
(-1.91304e-19 -2.02628e-19 -0.0104666)
(-1.30354e-20 -1.51434e-19 -0.0104601)
(8.21703e-20 -4.83578e-19 -0.0104526)
(-1.75694e-19 1.32972e-19 -0.010444)
(1.36494e-19 -2.76728e-20 -0.0104343)
(1.19349e-19 -4.93181e-19 -0.0104237)
(-2.39328e-19 -7.27466e-19 -0.0104121)
(1.18819e-19 -6.02082e-19 -0.0103994)
(2.06536e-19 -3.26256e-19 -0.0103858)
(1.7542e-19 4.82365e-19 -0.0103713)
(-5.5149e-19 -7.91505e-19 -0.0103559)
(-2.90992e-19 -6.22391e-19 -0.0103396)
(-8.27763e-19 2.4828e-19 -0.0101297)
(-7.20714e-20 6.38102e-19 -0.0101517)
(-9.4908e-19 -8.65774e-19 -0.0101732)
(-1.03212e-18 7.18496e-19 -0.010194)
(-5.06607e-19 7.32886e-20 -0.0102142)
(-4.34371e-19 3.71558e-19 -0.0102338)
(-9.18383e-19 8.26004e-19 -0.0102526)
(-1.45603e-18 4.68123e-19 -0.0102706)
(-4.50361e-19 4.64606e-19 -0.0102878)
(-2.33963e-20 7.87336e-19 -0.0103042)
(-3.56782e-19 1.24352e-18 -0.0103197)
(2.26158e-19 8.97754e-19 -0.0103343)
(-4.04455e-19 4.94312e-19 -0.010348)
(-5.80438e-20 2.13216e-19 -0.0103606)
(-4.62737e-19 5.74501e-19 -0.0103724)
(-8.47685e-19 1.09307e-18 -0.0103831)
(-4.49618e-19 7.65687e-19 -0.0103928)
(-3.01492e-19 8.16538e-19 -0.0104015)
(-5.75914e-20 1.05946e-18 -0.0104091)
(-1.2357e-19 3.78113e-19 -0.0104157)
(-4.46166e-20 5.61514e-19 -0.0104212)
(6.58804e-20 6.35504e-19 -0.0104256)
(6.74109e-20 3.31869e-19 -0.0104289)
(4.37874e-20 6.65964e-19 -0.0104311)
(-1.26936e-19 1.45266e-19 -0.0104322)
(-4.70193e-19 -7.44675e-19 -0.0104322)
(-6.39138e-19 -1.74215e-19 -0.0104311)
(6.68487e-19 -6.03751e-19 -0.0104289)
(-4.99587e-19 -3.9459e-20 -0.0104256)
(-1.21191e-20 -4.00895e-19 -0.0104212)
(-1.14439e-19 -2.03318e-19 -0.0104157)
(-5.57111e-20 -1.34633e-19 -0.0104092)
(-8.25257e-20 -4.38727e-19 -0.0104016)
(7.08879e-20 9.87234e-20 -0.0103929)
(-6.83046e-20 1.69938e-20 -0.0103833)
(2.35529e-19 -5.22426e-19 -0.0103726)
(-1.26084e-19 -7.55469e-19 -0.0103608)
(3.69645e-20 -5.78799e-19 -0.0103482)
(5.25629e-20 -2.19746e-19 -0.0103345)
(3.97566e-19 4.19699e-19 -0.0103199)
(-1.4801e-19 -1.01156e-18 -0.0103044)
(-1.38526e-19 -7.20338e-19 -0.010288)
(-1.47011e-19 -8.01731e-19 -0.0102708)
(-4.11776e-19 -7.98539e-19 -0.0102527)
(-1.1579e-18 -1.13933e-18 -0.0102339)
(-7.47676e-19 2.88512e-19 -0.010077)
(-7.69673e-20 6.77317e-19 -0.0100991)
(-7.49835e-19 -6.72487e-19 -0.0101206)
(-1.05755e-18 6.26821e-19 -0.0101415)
(-5.42722e-19 1.30915e-20 -0.0101618)
(-6.73548e-19 2.04079e-19 -0.0101814)
(-8.4999e-19 9.44771e-19 -0.0102003)
(-1.51406e-18 4.47468e-19 -0.0102184)
(-6.99993e-19 2.22311e-19 -0.0102357)
(-3.31153e-19 5.99006e-19 -0.0102522)
(-1.91194e-19 1.31881e-18 -0.0102677)
(-6.57194e-20 8.36007e-19 -0.0102824)
(-6.52432e-19 4.53276e-19 -0.0102961)
(-2.66984e-19 1.38101e-19 -0.0103089)
(-5.48094e-19 5.60072e-19 -0.0103207)
(-6.33008e-19 1.14999e-18 -0.0103314)
(-4.25642e-19 7.48543e-19 -0.0103412)
(-2.75495e-19 7.91823e-19 -0.0103499)
(-3.7368e-21 1.07474e-18 -0.0103576)
(-1.13112e-19 3.75986e-19 -0.0103642)
(-3.57291e-20 5.46858e-19 -0.0103697)
(1.53862e-19 6.60411e-19 -0.0103742)
(-1.96282e-19 3.11492e-19 -0.0103775)
(6.86406e-20 6.7238e-19 -0.0103798)
(8.01975e-21 1.68996e-19 -0.0103809)
(-1.65874e-19 -7.26694e-19 -0.0103808)
(-6.94734e-19 -2.58013e-19 -0.0103797)
(4.1717e-19 -6.2421e-19 -0.0103775)
(-4.51071e-19 -7.32027e-21 -0.0103742)
(-9.59052e-20 -4.24166e-19 -0.0103697)
(-1.06658e-19 -1.9694e-19 -0.0103642)
(1.32695e-19 -1.6222e-19 -0.0103577)
(-1.51956e-19 -4.17773e-19 -0.01035)
(1.85722e-19 9.55664e-20 -0.0103413)
(6.59171e-21 1.69367e-21 -0.0103316)
(-2.81972e-22 -4.53677e-19 -0.0103208)
(-5.13785e-20 -7.59998e-19 -0.0103091)
(-1.92464e-19 -4.85554e-19 -0.0102963)
(-1.67363e-20 -2.05508e-19 -0.0102826)
(5.34123e-19 3.32558e-19 -0.0102679)
(3.61205e-19 -1.26415e-18 -0.0102524)
(-3.03949e-20 -7.72441e-19 -0.0102359)
(1.32711e-19 -9.62552e-19 -0.0102186)
(-3.38117e-19 -8.06649e-19 -0.0102005)
(-8.37676e-19 -1.23693e-18 -0.0101816)
(-1.92773e-18 -7.96315e-19 -0.010162)
(-1.14067e-18 -1.25554e-18 -0.0101417)
(-6.91917e-19 2.88274e-19 -0.0100238)
(3.50115e-21 7.74964e-19 -0.0100459)
(-6.33319e-19 -5.39526e-19 -0.0100675)
(-1.01558e-18 6.22266e-19 -0.0100885)
(-6.46289e-19 -5.67455e-20 -0.0101089)
(-8.42513e-19 5.51661e-20 -0.0101286)
(-8.79051e-19 9.67539e-19 -0.0101476)
(-1.39004e-18 5.78569e-19 -0.0101657)
(-1.04352e-18 -1.47697e-20 -0.0101831)
(-5.86158e-19 3.86198e-19 -0.0101996)
(-4.16918e-19 1.20482e-18 -0.0102153)
(-2.89087e-19 8.27128e-19 -0.01023)
(-7.24182e-19 4.50062e-19 -0.0102438)
(-2.20071e-19 1.21888e-19 -0.0102566)
(-4.68709e-19 5.7083e-19 -0.0102684)
(-4.32897e-19 1.20861e-18 -0.0102792)
(-3.59976e-19 7.69391e-19 -0.010289)
(-4.92946e-19 7.27035e-19 -0.0102978)
(-1.45677e-19 1.05927e-18 -0.0103055)
(-1.56295e-19 3.75298e-19 -0.0103122)
(-1.13122e-19 5.01516e-19 -0.0103177)
(2.10287e-19 6.84926e-19 -0.0103222)
(-3.84151e-19 3.01028e-19 -0.0103255)
(2.24786e-19 6.38343e-19 -0.0103278)
(4.32483e-19 1.73822e-19 -0.0103289)
(-9.71185e-20 -6.92385e-19 -0.0103289)
(-4.71109e-19 -3.1017e-19 -0.0103277)
(2.56695e-19 -6.48044e-19 -0.0103255)
(-4.35031e-19 2.10028e-20 -0.0103222)
(-2.80942e-19 -4.27718e-19 -0.0103177)
(-7.07655e-20 -2.32221e-19 -0.0103122)
(2.0952e-19 -1.59032e-19 -0.0103056)
(-1.4453e-19 -4.00126e-19 -0.0102979)
(2.34663e-19 8.8102e-20 -0.0102892)
(1.5207e-19 -2.70674e-21 -0.0102794)
(-8.69287e-20 -4.22297e-19 -0.0102686)
(-2.69325e-20 -7.58219e-19 -0.0102568)
(-2.89216e-19 -4.35941e-19 -0.0102439)
(-3.29917e-20 -2.2143e-19 -0.0102302)
(6.18099e-19 2.32839e-19 -0.0102154)
(5.02653e-19 -1.34812e-18 -0.0101998)
(-5.88833e-21 -7.64924e-19 -0.0101833)
(2.79072e-19 -1.03708e-18 -0.0101659)
(-3.40228e-19 -7.79679e-19 -0.0101477)
(-5.18116e-19 -1.39436e-18 -0.0101288)
(-1.41515e-18 -1.16553e-18 -0.0101091)
(-1.01702e-18 -1.38204e-18 -0.0100887)
(-1.30107e-18 -6.31555e-19 -0.0100677)
(-1.35197e-18 1.00942e-19 -0.0100461)
(-1.76206e-18 -8.75368e-19 -0.0100239)
(-7.01489e-19 2.19541e-19 -0.00997009)
(3.3615e-20 8.19564e-19 -0.00999231)
(-5.7134e-19 -4.39063e-19 -0.010014)
(-9.99168e-19 6.0913e-19 -0.0100351)
(-4.79924e-19 6.30991e-20 -0.0100555)
(-9.41339e-19 -4.26362e-20 -0.0100753)
(-8.77931e-19 9.85062e-19 -0.0100943)
(-1.0711e-18 8.33384e-19 -0.0101126)
(-1.01737e-18 -3.4727e-20 -0.01013)
(-5.94409e-19 3.18332e-19 -0.0101466)
(-8.19141e-19 1.00914e-18 -0.0101623)
(-2.65731e-19 8.68154e-19 -0.0101771)
(-5.34679e-19 5.36337e-19 -0.0101909)
(-2.18002e-19 9.67405e-20 -0.0102038)
(-6.02355e-19 5.14573e-19 -0.0102156)
(-5.87312e-19 1.16142e-18 -0.0102265)
(-4.09163e-19 7.96072e-19 -0.0102364)
(-6.33014e-19 6.96446e-19 -0.0102451)
(-1.46293e-19 1.03804e-18 -0.0102529)
(-2.58892e-19 3.46556e-19 -0.0102596)
(-1.70761e-19 4.62543e-19 -0.0102651)
(3.55034e-20 6.97483e-19 -0.0102696)
(-4.272e-19 2.82085e-19 -0.010273)
(3.91167e-19 5.62193e-19 -0.0102752)
(6.01677e-19 2.1099e-19 -0.0102764)
(-3.8963e-19 -6.38318e-19 -0.0102763)
(-3.16203e-19 -3.70413e-19 -0.0102752)
(1.68948e-19 -6.49157e-19 -0.0102729)
(-4.74417e-19 6.47157e-20 -0.0102696)
(-4.78377e-19 -4.40806e-19 -0.0102651)
(-1.90742e-19 -2.43797e-19 -0.0102596)
(3.53809e-20 -1.13276e-19 -0.0102529)
(-8.5289e-20 -4.04915e-19 -0.0102452)
(1.62154e-19 1.11864e-19 -0.0102364)
(2.7817e-19 -1.28709e-20 -0.0102266)
(4.9285e-21 -4.42173e-19 -0.0102158)
(4.01861e-20 -7.58943e-19 -0.0102039)
(-3.19521e-19 -4.13298e-19 -0.0101911)
(8.12313e-20 -3.17926e-19 -0.0101772)
(7.30403e-19 1.2935e-19 -0.0101624)
(5.88202e-19 -1.37884e-18 -0.0101467)
(-3.97994e-20 -7.42401e-19 -0.0101302)
(2.62912e-19 -1.02839e-18 -0.0101127)
(-3.55088e-19 -7.66097e-19 -0.0100945)
(-1.48982e-19 -1.62932e-18 -0.0100754)
(-1.01998e-18 -1.42164e-18 -0.0100557)
(-1.07444e-18 -1.3346e-18 -0.0100352)
(-1.22375e-18 -6.33175e-19 -0.0100141)
(-1.09352e-18 -1.17866e-19 -0.00999245)
(-1.6991e-18 -9.74335e-19 -0.00997021)
(-7.45811e-19 1.3043e-19 -0.00991589)
(-3.5861e-20 7.64648e-19 -0.00993819)
(-5.81414e-19 -3.99974e-19 -0.00995993)
(-9.50903e-19 5.93876e-19 -0.0099811)
(-2.06051e-19 2.72581e-19 -0.0100016)
(-9.89725e-19 -8.57019e-20 -0.0100215)
(-7.2246e-19 1.0375e-18 -0.0100406)
(-8.68872e-19 1.00944e-18 -0.0100589)
(-8.27862e-19 7.43407e-20 -0.0100764)
(-5.61052e-19 3.15193e-19 -0.010093)
(-9.58329e-19 9.23888e-19 -0.0101088)
(-3.26026e-19 8.28715e-19 -0.0101236)
(-2.54755e-19 6.71634e-19 -0.0101375)
(-2.09219e-19 1.1727e-19 -0.0101504)
(-8.62017e-19 4.39303e-19 -0.0101624)
(-9.26474e-19 1.05193e-18 -0.0101733)
(-5.61617e-19 7.59346e-19 -0.0101831)
(-5.3927e-19 6.94995e-19 -0.010192)
(-9.5708e-20 1.05259e-18 -0.0101997)
(-4.54911e-19 3.30549e-19 -0.0102064)
(-2.74561e-19 4.22876e-19 -0.010212)
(-1.5502e-19 6.93571e-19 -0.0102165)
(-4.09362e-19 2.38333e-19 -0.0102199)
(2.4845e-19 4.84476e-19 -0.0102222)
(5.08158e-19 2.73826e-19 -0.0102233)
(-5.77594e-19 -5.99072e-19 -0.0102233)
(-1.45063e-19 -4.49694e-19 -0.0102221)
(8.13336e-20 -6.49172e-19 -0.0102199)
(-5.06615e-19 1.13115e-19 -0.0102165)
(-6.13758e-19 -4.41428e-19 -0.010212)
(-4.57093e-19 -2.33036e-19 -0.0102064)
(1.34299e-19 -1.40613e-19 -0.0101998)
(-5.32936e-20 -4.08412e-19 -0.010192)
(1.9618e-19 9.99175e-20 -0.0101832)
(5.56595e-19 -8.08858e-20 -0.0101734)
(2.0353e-19 -4.94873e-19 -0.0101625)
(3.07404e-19 -8.23758e-19 -0.0101506)
(-2.89894e-19 -4.22838e-19 -0.0101376)
(2.99478e-19 -4.58522e-19 -0.0101238)
(8.58951e-19 1.74568e-20 -0.0101089)
(8.31956e-19 -1.48331e-18 -0.0100932)
(4.96789e-20 -7.51712e-19 -0.0100765)
(8.2225e-20 -9.24444e-19 -0.010059)
(-5.74617e-19 -6.80416e-19 -0.0100407)
(-2.93748e-20 -1.73763e-18 -0.0100216)
(-8.84215e-19 -1.45167e-18 -0.0100018)
(-1.35299e-18 -1.10229e-18 -0.00998126)
(-1.24542e-18 -5.92184e-19 -0.00996009)
(-8.57816e-19 -3.33048e-19 -0.00993833)
(-1.47923e-18 -1.18357e-18 -0.00991601)
(-8.47409e-19 1.94151e-20 -0.00986118)
(-1.64079e-19 6.59917e-19 -0.00988355)
(-5.62907e-19 -3.56452e-19 -0.00990538)
(-9.37214e-19 5.25752e-19 -0.00992663)
(-9.95971e-20 3.64339e-19 -0.00994723)
(-9.72743e-19 -8.08987e-20 -0.00996713)
(-6.21324e-19 1.06658e-18 -0.0099863)
(-8.8679e-19 1.06828e-18 -0.0100047)
(-8.61439e-19 6.02678e-20 -0.0100223)
(-6.6616e-19 2.56883e-19 -0.010039)
(-1.04835e-18 8.84197e-19 -0.0100548)
(-6.79843e-19 6.43473e-19 -0.0100697)
(-1.4003e-19 7.14952e-19 -0.0100836)
(-1.58961e-19 1.91452e-19 -0.0100966)
(-1.1146e-18 3.97291e-19 -0.0101085)
(-1.137e-18 9.72045e-19 -0.0101195)
(-6.14081e-19 7.20477e-19 -0.0101294)
(-3.61557e-19 7.04352e-19 -0.0101383)
(-2.62815e-19 1.03961e-18 -0.0101461)
(-4.48559e-19 3.44179e-19 -0.0101528)
(-3.50716e-19 3.81226e-19 -0.0101584)
(-1.63192e-19 7.05289e-19 -0.0101629)
(-4.36278e-19 2.13351e-19 -0.0101663)
(-6.3388e-20 4.02986e-19 -0.0101685)
(4.00097e-19 3.13766e-19 -0.0101697)
(-4.61225e-19 -5.88459e-19 -0.0101697)
(1.01881e-19 -5.28496e-19 -0.0101685)
(3.0095e-20 -6.2375e-19 -0.0101662)
(-4.78675e-19 1.56996e-19 -0.0101629)
(-6.86945e-19 -4.39428e-19 -0.0101584)
(-5.34798e-19 -2.84696e-19 -0.0101527)
(3.01338e-19 -2.0349e-19 -0.0101461)
(6.28461e-20 -4.1706e-19 -0.0101383)
(1.91495e-19 7.16932e-20 -0.0101294)
(8.12914e-19 -1.53265e-19 -0.0101196)
(3.08463e-19 -5.18383e-19 -0.0101086)
(5.49248e-19 -8.61114e-19 -0.0100967)
(-2.40058e-19 -4.27813e-19 -0.0100837)
(5.49952e-19 -6.31426e-19 -0.0100698)
(9.45522e-19 -7.52027e-20 -0.0100549)
(1.01762e-18 -1.54914e-18 -0.0100391)
(2.95886e-19 -8.02109e-19 -0.0100224)
(-4.36588e-20 -8.07124e-19 -0.0100048)
(-6.12568e-19 -7.11809e-19 -0.00998646)
(-2.84922e-19 -1.6296e-18 -0.0099673)
(-1.00234e-18 -1.27349e-18 -0.00994739)
(-1.70232e-18 -8.14446e-19 -0.00992679)
(-1.37473e-18 -5.43857e-19 -0.00990554)
(-6.5309e-19 -5.63837e-19 -0.0098837)
(-1.25132e-18 -1.36237e-18 -0.0098613)
(-1.01026e-18 -1.14805e-19 -0.00980595)
(-2.48905e-19 5.59937e-19 -0.00982841)
(-4.98252e-19 -2.84428e-19 -0.00985031)
(-1.05401e-18 3.74152e-19 -0.00987164)
(-1.87584e-19 3.1733e-19 -0.00989231)
(-1.02576e-18 -1.21399e-19 -0.00991228)
(-6.53426e-19 1.00902e-18 -0.00993152)
(-8.43388e-19 1.17819e-18 -0.00994998)
(-9.72404e-19 3.35589e-20 -0.00996762)
(-9.04346e-19 1.30744e-19 -0.00998439)
(-1.05773e-18 8.98753e-19 -0.0100002)
(-9.26792e-19 4.94488e-19 -0.0100152)
(-3.54011e-19 5.91416e-19 -0.0100292)
(-1.71203e-19 2.57267e-19 -0.0100422)
(-1.15068e-18 4.34821e-19 -0.0100542)
(-1.2002e-18 9.13011e-19 -0.0100652)
(-4.7031e-19 7.01227e-19 -0.0100751)
(-1.6967e-19 7.38634e-19 -0.010084)
(-3.45378e-19 1.05187e-18 -0.0100918)
(-1.82215e-19 3.9237e-19 -0.0100986)
(-5.64589e-19 3.29944e-19 -0.0101042)
(-2.30078e-19 7.06456e-19 -0.0101087)
(-6.38879e-19 1.95339e-19 -0.0101121)
(-2.47571e-19 3.34689e-19 -0.0101144)
(2.33183e-19 3.16926e-19 -0.0101155)
(-5.44902e-20 -6.06926e-19 -0.0101155)
(1.93261e-19 -5.81324e-19 -0.0101144)
(-3.6323e-20 -5.94349e-19 -0.0101121)
(-4.43956e-19 2.01851e-19 -0.0101087)
(-6.2774e-19 -4.53761e-19 -0.0101042)
(-4.46959e-19 -3.66272e-19 -0.0100985)
(2.435e-19 -2.27847e-19 -0.0100918)
(1.25794e-19 -4.03824e-19 -0.010084)
(3.18344e-20 8.8184e-20 -0.0100752)
(8.36841e-19 -1.64409e-19 -0.0100652)
(3.12558e-19 -5.0649e-19 -0.0100543)
(5.13641e-19 -8.11279e-19 -0.0100423)
(-5.19971e-20 -5.05824e-19 -0.0100293)
(6.1293e-19 -7.17488e-19 -0.0100153)
(7.45247e-19 -2.3424e-20 -0.0100004)
(1.05546e-18 -1.5696e-18 -0.00998451)
(5.42263e-19 -8.37264e-19 -0.00996775)
(-8.19591e-20 -7.42786e-19 -0.00995012)
(-3.02738e-19 -9.29198e-19 -0.00993168)
(-5.3683e-19 -1.47401e-18 -0.00991245)
(-1.05397e-18 -1.14441e-18 -0.00989247)
(-1.73987e-18 -7.69575e-19 -0.00987179)
(-1.48296e-18 -5.57967e-19 -0.00985047)
(-6.31655e-19 -6.71221e-19 -0.00982855)
(-1.1919e-18 -1.36872e-18 -0.00980607)
(-9.82431e-19 -5.68718e-20 -0.0097502)
(-1.00518e-19 6.3102e-19 -0.00977273)
(-5.29775e-19 -2.73005e-19 -0.00979472)
(-1.14444e-18 2.59782e-19 -0.00981612)