/*--------------------------------*- C++ -*----------------------------------*\
  =========                 |
  \\      /  F ield         | OpenFOAM: The Open Source CFD Toolbox
   \\    /   O peration     | Website:  https://openfoam.org
    \\  /    A nd           | Version:  7
     \\/     M anipulation  |
\*---------------------------------------------------------------------------*/
FoamFile
{
    version     2.0;
    format      ascii;
    class       volScalarField;
    location    "144000";
    object      nut;
}
// * * * * * * * * * * * * * * * * * * * * * * * * * * * * * * * * * * * * * //

dimensions      [0 2 -1 0 0 0 0];

internalField   nonuniform List<scalar> 
4844
(
2.63313e-05
2.62865e-05
2.62374e-05
2.61434e-05
2.6098e-05
2.60482e-05
2.59939e-05
2.59352e-05
2.58723e-05
2.58051e-05
2.57337e-05
2.59524e-05
2.59063e-05
2.58558e-05
2.58008e-05
2.57414e-05
2.56777e-05
2.56096e-05
2.55373e-05
2.54609e-05
2.53804e-05
2.52959e-05
2.57582e-05
2.57116e-05
2.56604e-05
2.56047e-05
2.55446e-05
2.54801e-05
2.54112e-05
2.53381e-05
2.52608e-05
2.51794e-05
2.50941e-05
2.50048e-05
2.49118e-05
2.48151e-05
2.47149e-05
2.46113e-05
2.5561e-05
2.55138e-05
2.54621e-05
2.54057e-05
2.53449e-05
2.52797e-05
2.52101e-05
2.51362e-05
2.50581e-05
2.49759e-05
2.48897e-05
2.47995e-05
2.47056e-05
2.46081e-05
2.4507e-05
2.44025e-05
2.53609e-05
2.53132e-05
2.52609e-05
2.5204e-05
2.51425e-05
2.50766e-05
2.50063e-05
2.49317e-05
2.48528e-05
2.47698e-05
2.46828e-05
2.45918e-05
2.44971e-05
2.43987e-05
2.42968e-05
2.41915e-05
2.51099e-05
2.5057e-05
2.49995e-05
2.49375e-05
2.48709e-05
2.47999e-05
2.47246e-05
2.4645e-05
2.45613e-05
2.44735e-05
2.43818e-05
2.42863e-05
2.41871e-05
2.40845e-05
2.39784e-05
2.49039e-05
2.48505e-05
2.47925e-05
2.47298e-05
2.46627e-05
2.45911e-05
2.45151e-05
2.44348e-05
2.43504e-05
2.42619e-05
2.41695e-05
2.40732e-05
2.39734e-05
2.387e-05
2.37632e-05
2.46953e-05
2.46415e-05
2.45829e-05
2.45198e-05
2.4452e-05
2.43798e-05
2.43032e-05
2.42224e-05
2.41373e-05
2.40481e-05
2.3955e-05
2.38581e-05
2.37576e-05
2.36535e-05
2.35461e-05
2.45338e-05
2.44843e-05
2.443e-05
2.4371e-05
2.43073e-05
2.42391e-05
2.41663e-05
2.40892e-05
2.40077e-05
2.3922e-05
2.38322e-05
2.37385e-05
2.3641e-05
2.35398e-05
2.34352e-05
2.33271e-05
2.43208e-05
2.42709e-05
2.42162e-05
2.41567e-05
2.40926e-05
2.40239e-05
2.39506e-05
2.38729e-05
2.37909e-05
2.37046e-05
2.36143e-05
2.352e-05
2.34219e-05
2.33202e-05
2.3215e-05
2.31063e-05
2.41055e-05
2.40552e-05
2.40002e-05
2.39403e-05
2.38757e-05
2.38065e-05
2.37328e-05
2.36546e-05
2.35721e-05
2.34853e-05
2.33945e-05
2.32996e-05
2.3201e-05
2.30987e-05
2.2993e-05
2.28839e-05
2.3888e-05
2.38374e-05
2.3782e-05
2.37217e-05
2.36568e-05
2.35871e-05
2.3513e-05
2.34343e-05
2.33513e-05
2.32641e-05
2.31728e-05
2.30775e-05
2.29784e-05
2.28756e-05
2.27694e-05
2.26598e-05
2.37144e-05
2.36684e-05
2.36175e-05
2.35617e-05
2.35011e-05
2.34358e-05
2.33658e-05
2.32912e-05
2.32122e-05
2.31288e-05
2.30411e-05
2.29493e-05
2.28536e-05
2.2754e-05
2.26509e-05
2.25442e-05
2.24342e-05
2.3493e-05
2.34468e-05
2.33956e-05
2.33395e-05
2.32786e-05
2.32129e-05
2.31426e-05
2.30676e-05
2.29882e-05
2.29044e-05
2.28164e-05
2.27242e-05
2.26281e-05
2.25281e-05
2.24246e-05
2.23175e-05
2.22072e-05
2.33111e-05
2.32697e-05
2.32232e-05
2.31718e-05
2.31154e-05
2.30542e-05
2.29882e-05
2.29176e-05
2.28423e-05
2.27625e-05
2.26784e-05
2.259e-05
2.24975e-05
2.2401e-05
2.23007e-05
2.21968e-05
2.20894e-05
2.19787e-05
2.30861e-05
2.30445e-05
2.29978e-05
2.29462e-05
2.28896e-05
2.28281e-05
2.27618e-05
2.26909e-05
2.26153e-05
2.25352e-05
2.24508e-05
2.23621e-05
2.22692e-05
2.21725e-05
2.20719e-05
2.19677e-05
2.186e-05
2.1749e-05
2.28594e-05
2.28176e-05
2.27707e-05
2.27188e-05
2.2662e-05
2.26003e-05
2.25338e-05
2.24626e-05
2.23867e-05
2.23064e-05
2.22217e-05
2.21327e-05
2.20396e-05
2.19425e-05
2.18417e-05
2.17372e-05
2.16293e-05
2.15181e-05
2.26309e-05
2.25889e-05
2.25419e-05
2.24898e-05
2.24328e-05
2.23709e-05
2.23041e-05
2.22327e-05
2.21566e-05
2.20761e-05
2.19911e-05
2.19019e-05
2.18086e-05
2.17113e-05
2.16102e-05
2.15055e-05
2.13975e-05
2.12861e-05
2.24008e-05
2.23587e-05
2.23115e-05
2.22593e-05
2.22021e-05
2.214e-05
2.2073e-05
2.20014e-05
2.19251e-05
2.18444e-05
2.17592e-05
2.16698e-05
2.15763e-05
2.14788e-05
2.13776e-05
2.12727e-05
2.11645e-05
2.10529e-05
2.21691e-05
2.21269e-05
2.20796e-05
2.20272e-05
2.19699e-05
2.19076e-05
2.18405e-05
2.17687e-05
2.16923e-05
2.16114e-05
2.15261e-05
2.14365e-05
2.13428e-05
2.12452e-05
2.11438e-05
2.10388e-05
2.09304e-05
2.08188e-05
2.1936e-05
2.18937e-05
2.18463e-05
2.17938e-05
2.17363e-05
2.16739e-05
2.16067e-05
2.15348e-05
2.14582e-05
2.13771e-05
2.12917e-05
2.1202e-05
2.11082e-05
2.10105e-05
2.0909e-05
2.08039e-05
2.06955e-05
2.05838e-05
2.17015e-05
2.16591e-05
2.16116e-05
2.1559e-05
2.15014e-05
2.14389e-05
2.13716e-05
2.12996e-05
2.12229e-05
2.11418e-05
2.10562e-05
2.09664e-05
2.08726e-05
2.07747e-05
2.06732e-05
2.05681e-05
2.04596e-05
2.03479e-05
2.14657e-05
2.14232e-05
2.13757e-05
2.1323e-05
2.12653e-05
2.12028e-05
2.11354e-05
2.10633e-05
2.09865e-05
2.09053e-05
2.08197e-05
2.07298e-05
2.06359e-05
2.05381e-05
2.04365e-05
2.03314e-05
2.02229e-05
2.01112e-05
2.12287e-05
2.11862e-05
2.11385e-05
2.10858e-05
2.10281e-05
2.09655e-05
2.0898e-05
2.08259e-05
2.07491e-05
2.06678e-05
2.05822e-05
2.04923e-05
2.03984e-05
2.03005e-05
2.0199e-05
2.00939e-05
1.99854e-05
1.98738e-05
2.09905e-05
2.0948e-05
2.09003e-05
2.08476e-05
2.07898e-05
2.07272e-05
2.06597e-05
2.05875e-05
2.05107e-05
2.04294e-05
2.03438e-05
2.02539e-05
2.016e-05
2.00622e-05
1.99607e-05
1.98557e-05
1.97473e-05
1.96358e-05
2.07513e-05
2.07087e-05
2.0661e-05
2.06083e-05
2.05505e-05
2.04879e-05
2.04204e-05
2.03482e-05
2.02714e-05
2.01902e-05
2.01046e-05
2.00148e-05
1.99209e-05
1.98232e-05
1.97217e-05
1.96168e-05
1.95086e-05
1.93972e-05
2.05111e-05
2.04685e-05
2.04208e-05
2.0368e-05
2.03103e-05
2.02477e-05
2.01802e-05
2.01081e-05
2.00313e-05
1.99501e-05
1.98646e-05
1.97748e-05
1.96811e-05
1.95834e-05
1.94821e-05
1.93773e-05
1.92692e-05
1.9158e-05
2.02699e-05
2.02274e-05
2.01797e-05
2.01269e-05
2.00692e-05
2.00066e-05
1.99392e-05
1.98671e-05
1.97905e-05
1.97093e-05
1.96239e-05
1.95343e-05
1.94406e-05
1.93431e-05
1.9242e-05
1.91373e-05
1.90294e-05
1.89184e-05
2.00279e-05
1.99854e-05
1.99377e-05
1.9885e-05
1.98274e-05
1.97648e-05
1.96975e-05
1.96255e-05
1.95489e-05
1.94679e-05
1.93826e-05
1.92931e-05
1.91996e-05
1.91023e-05
1.90013e-05
1.88969e-05
1.87892e-05
1.86785e-05
1.98224e-05
1.97851e-05
1.97426e-05
1.96951e-05
1.96424e-05
1.95848e-05
1.95224e-05
1.94551e-05
1.93832e-05
1.93068e-05
1.92259e-05
1.91407e-05
1.90514e-05
1.89581e-05
1.8861e-05
1.87602e-05
1.8656e-05
1.85486e-05
1.84382e-05
1.95789e-05
1.95416e-05
1.94992e-05
1.94517e-05
1.93991e-05
1.93416e-05
1.92793e-05
1.92121e-05
1.91404e-05
1.90641e-05
1.89834e-05
1.88984e-05
1.88092e-05
1.87162e-05
1.86193e-05
1.85188e-05
1.84148e-05
1.83077e-05
1.81976e-05
1.93667e-05
1.93347e-05
1.92975e-05
1.92551e-05
1.92077e-05
1.91552e-05
1.90978e-05
1.90356e-05
1.89686e-05
1.8897e-05
1.88209e-05
1.87404e-05
1.86556e-05
1.85667e-05
1.84738e-05
1.83772e-05
1.8277e-05
1.81734e-05
1.80666e-05
1.79568e-05
1.91218e-05
1.90899e-05
1.90528e-05
1.90105e-05
1.89632e-05
1.89108e-05
1.88536e-05
1.87915e-05
1.87247e-05
1.86532e-05
1.85773e-05
1.8497e-05
1.84124e-05
1.83238e-05
1.82312e-05
1.81349e-05
1.8035e-05
1.79317e-05
1.78253e-05
1.77158e-05
1.88764e-05
1.88446e-05
1.88075e-05
1.87654e-05
1.87181e-05
1.86659e-05
1.86088e-05
1.85469e-05
1.84803e-05
1.8409e-05
1.83333e-05
1.82532e-05
1.81689e-05
1.80806e-05
1.79883e-05
1.78923e-05
1.77928e-05
1.76898e-05
1.75838e-05
1.74748e-05
1.86305e-05
1.85988e-05
1.85618e-05
1.85198e-05
1.84727e-05
1.84206e-05
1.83637e-05
1.8302e-05
1.82355e-05
1.81645e-05
1.8089e-05
1.80092e-05
1.79252e-05
1.78372e-05
1.77453e-05
1.76496e-05
1.75504e-05
1.74479e-05
1.73423e-05
1.72337e-05
1.83843e-05
1.83526e-05
1.83158e-05
1.82739e-05
1.82269e-05
1.8175e-05
1.81183e-05
1.80567e-05
1.79905e-05
1.79198e-05
1.78445e-05
1.7765e-05
1.76813e-05
1.75936e-05
1.75021e-05
1.74068e-05
1.7308e-05
1.72059e-05
1.71007e-05
1.69926e-05
1.81377e-05
1.81061e-05
1.80694e-05
1.80276e-05
1.79808e-05
1.79291e-05
1.78726e-05
1.78112e-05
1.77453e-05
1.76748e-05
1.75999e-05
1.75207e-05
1.74373e-05
1.735e-05
1.72588e-05
1.71639e-05
1.70656e-05
1.69639e-05
1.68592e-05
1.67516e-05
1.78908e-05
1.78593e-05
1.78228e-05
1.77811e-05
1.77345e-05
1.7683e-05
1.76267e-05
1.75656e-05
1.74999e-05
1.74297e-05
1.73551e-05
1.72762e-05
1.71932e-05
1.71063e-05
1.70155e-05
1.6921e-05
1.68232e-05
1.6722e-05
1.66178e-05
1.65107e-05
1.76437e-05
1.76124e-05
1.75759e-05
1.75345e-05
1.74881e-05
1.74367e-05
1.73806e-05
1.73198e-05
1.72544e-05
1.71845e-05
1.71102e-05
1.70317e-05
1.69491e-05
1.68626e-05
1.67722e-05
1.66782e-05
1.65808e-05
1.64802e-05
1.63765e-05
1.627e-05
1.73964e-05
1.73652e-05
1.7329e-05
1.72877e-05
1.72415e-05
1.71904e-05
1.71345e-05
1.7074e-05
1.70089e-05
1.69393e-05
1.68654e-05
1.67872e-05
1.6705e-05
1.66189e-05
1.6529e-05
1.64356e-05
1.63387e-05
1.62386e-05
1.61355e-05
1.60295e-05
1.71491e-05
1.7118e-05
1.70819e-05
1.70408e-05
1.69948e-05
1.6944e-05
1.68884e-05
1.68281e-05
1.67633e-05
1.66941e-05
1.66205e-05
1.65428e-05
1.64611e-05
1.63754e-05
1.6286e-05
1.6193e-05
1.60967e-05
1.59972e-05
1.58946e-05
1.57893e-05
1.69017e-05
1.68708e-05
1.68348e-05
1.67939e-05
1.67482e-05
1.66976e-05
1.66423e-05
1.65823e-05
1.65179e-05
1.6449e-05
1.63758e-05
1.62985e-05
1.62172e-05
1.61321e-05
1.60432e-05
1.59508e-05
1.5855e-05
1.5756e-05
1.56541e-05
1.55495e-05
1.66543e-05
1.66235e-05
1.65878e-05
1.65471e-05
1.65016e-05
1.64512e-05
1.63962e-05
1.63366e-05
1.62725e-05
1.6204e-05
1.61313e-05
1.60544e-05
1.59736e-05
1.58889e-05
1.58006e-05
1.57087e-05
1.56135e-05
1.55152e-05
1.54139e-05
1.53099e-05
1.6407e-05
1.63764e-05
1.63408e-05
1.63004e-05
1.62551e-05
1.6205e-05
1.61503e-05
1.60911e-05
1.60273e-05
1.59593e-05
1.5887e-05
1.58106e-05
1.57302e-05
1.56461e-05
1.55583e-05
1.5467e-05
1.53724e-05
1.52747e-05
1.51741e-05
1.50709e-05
1.61598e-05
1.61294e-05
1.6094e-05
1.60538e-05
1.60088e-05
1.5959e-05
1.59047e-05
1.58457e-05
1.57824e-05
1.57147e-05
1.56429e-05
1.5567e-05
1.54872e-05
1.54036e-05
1.53164e-05
1.52257e-05
1.51317e-05
1.50347e-05
1.49348e-05
1.48322e-05
1.59128e-05
1.58825e-05
1.58474e-05
1.58074e-05
1.57627e-05
1.57133e-05
1.56592e-05
1.56007e-05
1.55377e-05
1.54705e-05
1.53991e-05
1.53237e-05
1.52445e-05
1.51614e-05
1.50748e-05
1.49848e-05
1.48915e-05
1.47951e-05
1.46959e-05
1.45941e-05
1.5666e-05
1.5636e-05
1.5601e-05
1.55613e-05
1.55169e-05
1.54678e-05
1.54141e-05
1.53559e-05
1.52934e-05
1.52266e-05
1.51558e-05
1.50809e-05
1.50021e-05
1.49197e-05
1.48337e-05
1.47443e-05
1.46517e-05
1.45561e-05
1.44576e-05
1.43566e-05
1.54195e-05
1.53897e-05
1.5355e-05
1.53155e-05
1.52714e-05
1.52226e-05
1.51693e-05
1.51115e-05
1.50494e-05
1.49832e-05
1.49128e-05
1.48384e-05
1.47603e-05
1.46784e-05
1.45931e-05
1.45044e-05
1.44125e-05
1.43176e-05
1.42199e-05
1.41196e-05
1.51733e-05
1.51437e-05
1.51093e-05
1.50701e-05
1.50262e-05
1.49778e-05
1.49249e-05
1.48675e-05
1.48059e-05
1.47401e-05
1.46703e-05
1.45965e-05
1.45189e-05
1.44377e-05
1.4353e-05
1.4265e-05
1.41738e-05
1.40797e-05
1.39828e-05
1.38833e-05
1.49276e-05
1.48982e-05
1.4864e-05
1.48251e-05
1.47815e-05
1.47335e-05
1.46809e-05
1.4624e-05
1.45629e-05
1.44976e-05
1.44282e-05
1.4355e-05
1.42781e-05
1.41975e-05
1.41135e-05
1.40262e-05
1.39358e-05
1.38424e-05
1.37463e-05
1.36477e-05
1.46822e-05
1.4653e-05
1.46191e-05
1.45805e-05
1.45373e-05
1.44896e-05
1.44375e-05
1.4381e-05
1.43203e-05
1.42555e-05
1.41868e-05
1.41142e-05
1.40378e-05
1.3958e-05
1.38747e-05
1.37881e-05
1.36984e-05
1.36058e-05
1.35105e-05
1.34128e-05
1.44374e-05
1.44084e-05
1.43748e-05
1.43365e-05
1.42936e-05
1.42463e-05
1.41946e-05
1.41386e-05
1.40784e-05
1.40141e-05
1.39459e-05
1.38739e-05
1.37982e-05
1.3719e-05
1.36364e-05
1.35506e-05
1.34618e-05
1.337e-05
1.32755e-05
1.31757e-05
1.41931e-05
1.41643e-05
1.41309e-05
1.4093e-05
1.40505e-05
1.40035e-05
1.39522e-05
1.38967e-05
1.3837e-05
1.37733e-05
1.37057e-05
1.36343e-05
1.35593e-05
1.34808e-05
1.3399e-05
1.33139e-05
1.32259e-05
1.31349e-05
1.30413e-05
1.29361e-05
1.39493e-05
1.39208e-05
1.38877e-05
1.38501e-05
1.38079e-05
1.37614e-05
1.37105e-05
1.36555e-05
1.35963e-05
1.35332e-05
1.34662e-05
1.33954e-05
1.33211e-05
1.32433e-05
1.31622e-05
1.3078e-05
1.29907e-05
1.29006e-05
1.28079e-05
1.26963e-05
1.35661e-05
1.35199e-05
1.34695e-05
1.3415e-05
1.33564e-05
1.32938e-05
1.32274e-05
1.31573e-05
1.30837e-05
1.30066e-05
1.29263e-05
1.28428e-05
1.27564e-05
1.26656e-05
1.257e-05
1.24571e-05
1.31171e-05
1.30551e-05
1.29894e-05
1.292e-05
1.2847e-05
1.27707e-05
1.26912e-05
1.26064e-05
1.25179e-05
1.24258e-05
1.23298e-05
1.2219e-05
2.37632e-05
2.387e-05
2.35461e-05
2.36536e-05
2.33271e-05
2.34352e-05
2.31063e-05
2.3215e-05
2.33202e-05
2.28839e-05
2.2993e-05
2.30988e-05
2.26598e-05
2.27694e-05
2.28756e-05
2.29784e-05
2.24342e-05
2.25442e-05
2.26509e-05
2.27541e-05
2.22072e-05
2.23176e-05
2.24246e-05
2.25281e-05
2.19788e-05
2.20895e-05
2.21968e-05
2.23007e-05
2.2401e-05
2.1749e-05
2.186e-05
2.19677e-05
2.20719e-05
2.21725e-05
2.15181e-05
2.16293e-05
2.17372e-05
2.18417e-05
2.19425e-05
2.12861e-05
2.13975e-05
2.15055e-05
2.16102e-05
2.17113e-05
2.10529e-05
2.11645e-05
2.12727e-05
2.13776e-05
2.14788e-05
2.08188e-05
2.09305e-05
2.10388e-05
2.11438e-05
2.12452e-05
2.05838e-05
2.06955e-05
2.08039e-05
2.0909e-05
2.10105e-05
2.11082e-05
2.03479e-05
2.04596e-05
2.05681e-05
2.06732e-05
2.07748e-05
2.08726e-05
2.01112e-05
2.02229e-05
2.03314e-05
2.04365e-05
2.05381e-05
2.06359e-05
2.07299e-05
1.98738e-05
1.99855e-05
2.00939e-05
2.0199e-05
2.03006e-05
2.03984e-05
2.04923e-05
2.05822e-05
1.96358e-05
1.97473e-05
1.98557e-05
1.99607e-05
2.00622e-05
2.016e-05
2.0254e-05
2.03438e-05
2.04294e-05
1.93972e-05
1.95086e-05
1.96168e-05
1.97217e-05
1.98232e-05
1.99209e-05
2.00148e-05
2.01046e-05
2.01902e-05
2.02714e-05
1.91581e-05
1.92693e-05
1.93773e-05
1.94821e-05
1.95835e-05
1.96811e-05
1.97749e-05
1.98646e-05
1.99501e-05
2.00313e-05
1.89185e-05
1.90295e-05
1.91373e-05
1.9242e-05
1.93431e-05
1.94406e-05
1.95343e-05
1.96239e-05
1.97094e-05
1.97905e-05
1.86785e-05
1.87892e-05
1.88969e-05
1.90013e-05
1.91023e-05
1.91996e-05
1.92931e-05
1.93826e-05
1.94679e-05
1.95489e-05
1.84382e-05
1.85486e-05
1.8656e-05
1.87602e-05
1.8861e-05
1.89581e-05
1.90514e-05
1.91407e-05
1.92259e-05
1.93068e-05
1.81976e-05
1.83077e-05
1.84149e-05
1.85188e-05
1.86193e-05
1.87162e-05
1.88093e-05
1.88984e-05
1.89834e-05
1.90641e-05
1.79568e-05
1.80666e-05
1.81734e-05
1.8277e-05
1.83772e-05
1.84739e-05
1.85667e-05
1.86556e-05
1.87404e-05
1.88209e-05
1.77158e-05
1.78253e-05
1.79317e-05
1.8035e-05
1.81349e-05
1.82312e-05
1.83238e-05
1.84124e-05
1.8497e-05
1.85773e-05
1.74748e-05
1.75838e-05
1.76899e-05
1.77928e-05
1.78923e-05
1.79883e-05
1.80806e-05
1.8169e-05
1.82533e-05
1.83333e-05
1.72337e-05
1.73423e-05
1.74479e-05
1.75504e-05
1.76496e-05
1.77453e-05
1.78372e-05
1.79253e-05
1.80093e-05
1.80891e-05
1.69926e-05
1.71007e-05
1.72059e-05
1.7308e-05
1.74068e-05
1.75021e-05
1.75936e-05
1.76814e-05
1.7765e-05
1.78446e-05
1.67516e-05
1.68592e-05
1.69639e-05
1.70656e-05
1.71639e-05
1.72588e-05
1.735e-05
1.74373e-05
1.75207e-05
1.75999e-05
1.65108e-05
1.66178e-05
1.6722e-05
1.68232e-05
1.69211e-05
1.70155e-05
1.71063e-05
1.71932e-05
1.72762e-05
1.73551e-05
2.37632e-05
2.35461e-05
2.33271e-05
2.31063e-05
2.28839e-05
2.26598e-05
2.24342e-05
2.22072e-05
2.19788e-05
2.1749e-05
2.15181e-05
2.12861e-05
2.10529e-05
2.08188e-05
2.05838e-05
2.03479e-05
2.01112e-05
1.98738e-05
1.96358e-05
1.93972e-05
1.9158e-05
1.89185e-05
1.86785e-05
1.84382e-05
1.81976e-05
1.79568e-05
1.77158e-05
1.74748e-05
1.72337e-05
1.69926e-05
1.67516e-05
1.65108e-05
2.387e-05
2.36536e-05
2.34352e-05
2.3215e-05
2.2993e-05
2.27694e-05
2.25442e-05
2.23176e-05
2.20895e-05
2.186e-05
2.16293e-05
2.13975e-05
2.11645e-05
2.09305e-05
2.06955e-05
2.04596e-05
2.02229e-05
1.99855e-05
1.97473e-05
1.95086e-05
1.92693e-05
1.90295e-05
1.87892e-05
1.85486e-05
1.83077e-05
1.80666e-05
1.78253e-05
1.75838e-05
1.73423e-05
1.71007e-05
1.68592e-05
1.66178e-05
1.63765e-05
2.39734e-05
2.37576e-05
2.35398e-05
2.33202e-05
2.30988e-05
2.28756e-05
2.26509e-05
2.24246e-05
2.21968e-05
2.19677e-05
2.17372e-05
2.15055e-05
2.12727e-05
2.10388e-05
2.08039e-05
2.05681e-05
2.03314e-05
2.00939e-05
1.98557e-05
1.96168e-05
1.93773e-05
1.91373e-05
1.88969e-05
1.8656e-05
1.84148e-05
1.81734e-05
1.79317e-05
1.76899e-05
1.74479e-05
1.72059e-05
1.69639e-05
1.6722e-05
1.64802e-05
1.62386e-05
1.59972e-05
1.5756e-05
1.55152e-05
1.52747e-05
2.40733e-05
2.38581e-05
2.3641e-05
2.34219e-05
2.3201e-05
2.29784e-05
2.27541e-05
2.25281e-05
2.23007e-05
2.20719e-05
2.18417e-05
2.16102e-05
2.13776e-05
2.11438e-05
2.0909e-05
2.06732e-05
2.04365e-05
2.0199e-05
1.99607e-05
1.97217e-05
1.94821e-05
1.9242e-05
1.90013e-05
1.87602e-05
1.85188e-05
1.8277e-05
1.8035e-05
1.77928e-05
1.75504e-05
1.7308e-05
1.70656e-05
1.68232e-05
1.65809e-05
1.63387e-05
1.60967e-05
1.5855e-05
1.56135e-05
1.53724e-05
2.41695e-05
2.3955e-05
2.37385e-05
2.352e-05
2.32997e-05
2.30775e-05
2.28536e-05
2.26281e-05
2.2401e-05
2.21725e-05
2.19425e-05
2.17113e-05
2.14788e-05
2.12452e-05
2.10105e-05
2.07748e-05
2.05381e-05
2.03006e-05
2.00622e-05
1.98232e-05
1.95835e-05
1.93431e-05
1.91023e-05
1.8861e-05
1.86193e-05
1.83772e-05
1.81349e-05
1.78923e-05
1.76496e-05
1.74068e-05
1.71639e-05
1.69211e-05
1.66783e-05
1.64356e-05
1.61931e-05
1.59508e-05
1.57087e-05
1.5467e-05
2.42619e-05
2.40481e-05
2.38322e-05
2.36143e-05
2.33945e-05
2.31728e-05
2.29493e-05
2.27242e-05
2.24975e-05
2.22693e-05
2.20396e-05
2.18086e-05
2.15763e-05
2.13428e-05
2.11082e-05
2.08726e-05
2.06359e-05
2.03984e-05
2.016e-05
1.99209e-05
1.96811e-05
1.94406e-05
1.91996e-05
1.89581e-05
1.87162e-05
1.84738e-05
1.82312e-05
1.79883e-05
1.77453e-05
1.75021e-05
1.72588e-05
1.70155e-05
1.67722e-05
1.6529e-05
1.6286e-05
1.60432e-05
1.58006e-05
1.55583e-05
1.53164e-05
2.43504e-05
2.41373e-05
2.3922e-05
2.37047e-05
2.34853e-05
2.32641e-05
2.30411e-05
2.28164e-05
2.259e-05
2.23621e-05
2.21327e-05
2.19019e-05
2.16698e-05
2.14365e-05
2.1202e-05
2.09664e-05
2.07299e-05
2.04923e-05
2.0254e-05
2.00148e-05
1.97749e-05
1.95343e-05
1.92931e-05
1.90514e-05
1.88093e-05
1.85667e-05
1.83238e-05
1.80806e-05
1.78372e-05
1.75936e-05
1.735e-05
1.71063e-05
1.68626e-05
1.66189e-05
1.63754e-05
1.61321e-05
1.58889e-05
1.56461e-05
1.54036e-05
2.44348e-05
2.42224e-05
2.40077e-05
2.37909e-05
2.35721e-05
2.33513e-05
2.31288e-05
2.29044e-05
2.26784e-05
2.24508e-05
2.22217e-05
2.19911e-05
2.17592e-05
2.15261e-05
2.12917e-05
2.10562e-05
2.08197e-05
2.05822e-05
2.03438e-05
2.01046e-05
1.98646e-05
1.96239e-05
1.93826e-05
1.91407e-05
1.88984e-05
1.86556e-05
1.84124e-05
1.8169e-05
1.79252e-05
1.76813e-05
1.74373e-05
1.71932e-05
1.69491e-05
1.6705e-05
1.64611e-05
1.62172e-05
1.59736e-05
1.57302e-05
1.54872e-05
2.45151e-05
2.43033e-05
2.40892e-05
2.38729e-05
2.36546e-05
2.34343e-05
2.32122e-05
2.29882e-05
2.27625e-05
2.25352e-05
2.23064e-05
2.20761e-05
2.18444e-05
2.16114e-05
2.13772e-05
2.11418e-05
2.09053e-05
2.06678e-05
2.04294e-05
2.01902e-05
1.99501e-05
1.97093e-05
1.94679e-05
1.92259e-05
1.89834e-05
1.87404e-05
1.8497e-05
1.82532e-05
1.80092e-05
1.7765e-05
1.75207e-05
1.72762e-05
1.70317e-05
1.67872e-05
1.65428e-05
1.62986e-05
1.60545e-05
1.58106e-05
1.5567e-05
2.45911e-05
2.43799e-05
2.41663e-05
2.39506e-05
2.37328e-05
2.3513e-05
2.32912e-05
2.30676e-05
2.28423e-05
2.26153e-05
2.23867e-05
2.21567e-05
2.19252e-05
2.16923e-05
2.14582e-05
2.12229e-05
2.09865e-05
2.07491e-05
2.05107e-05
2.02714e-05
2.00313e-05
1.97905e-05
1.95489e-05
1.93068e-05
1.90641e-05
1.88209e-05
1.85773e-05
1.83333e-05
1.80891e-05
1.78446e-05
1.75999e-05
1.73551e-05
1.71102e-05
1.68654e-05
1.66206e-05
1.63759e-05
1.61313e-05
1.5887e-05
1.56429e-05
2.46627e-05
2.4452e-05
2.42391e-05
2.40239e-05
2.38065e-05
2.35871e-05
2.33658e-05
2.31426e-05
2.29176e-05
2.26909e-05
2.24626e-05
2.22327e-05
2.20014e-05
2.17687e-05
2.15348e-05
2.12996e-05
2.10633e-05
2.08259e-05
2.05875e-05
2.03482e-05
2.01081e-05
1.98671e-05
1.96255e-05
1.93832e-05
1.91404e-05
1.8897e-05
1.86532e-05
1.8409e-05
1.81645e-05
1.79198e-05
1.76748e-05
1.74297e-05
1.71845e-05
1.69393e-05
1.66941e-05
1.6449e-05
1.6204e-05
1.59593e-05
1.57148e-05
2.45198e-05
2.43073e-05
2.40926e-05
2.38757e-05
2.36568e-05
2.34358e-05
2.32129e-05
2.29883e-05
2.27618e-05
2.25338e-05
2.23042e-05
2.2073e-05
2.18405e-05
2.16067e-05
2.13716e-05
2.11354e-05
2.08981e-05
2.06597e-05
2.04204e-05
2.01802e-05
1.99392e-05
1.96975e-05
1.94551e-05
1.92122e-05
1.89686e-05
1.87247e-05
1.84803e-05
1.82355e-05
1.79905e-05
1.77453e-05
1.74999e-05
1.72544e-05
1.70089e-05
1.67633e-05
1.65179e-05
1.62725e-05
1.60274e-05
1.57824e-05
2.4371e-05
2.41567e-05
2.39403e-05
2.37217e-05
2.35011e-05
2.32786e-05
2.30542e-05
2.28281e-05
2.26003e-05
2.23709e-05
2.214e-05
2.19076e-05
2.16739e-05
2.14389e-05
2.12028e-05
2.09655e-05
2.07272e-05
2.04879e-05
2.02477e-05
2.00066e-05
1.97649e-05
1.95224e-05
1.92793e-05
1.90356e-05
1.87915e-05
1.85469e-05
1.8302e-05
1.80567e-05
1.78113e-05
1.75656e-05
1.73198e-05
1.7074e-05
1.68281e-05
1.65823e-05
1.63366e-05
1.60911e-05
1.58458e-05
2.443e-05
2.42162e-05
2.40002e-05
2.3782e-05
2.35617e-05
2.33395e-05
2.31154e-05
2.28896e-05
2.2662e-05
2.24328e-05
2.22021e-05
2.19699e-05
2.17363e-05
2.15014e-05
2.12653e-05
2.10281e-05
2.07898e-05
2.05505e-05
2.03103e-05
2.00692e-05
1.98274e-05
1.95848e-05
1.93416e-05
1.90979e-05
1.88536e-05
1.86088e-05
1.83637e-05
1.81183e-05
1.78726e-05
1.76267e-05
1.73806e-05
1.71345e-05
1.68884e-05
1.66423e-05
1.63962e-05
1.61504e-05
1.59047e-05
2.42709e-05
2.40553e-05
2.38374e-05
2.36175e-05
2.33956e-05
2.31718e-05
2.29462e-05
2.27188e-05
2.24898e-05
2.22593e-05
2.20272e-05
2.17938e-05
2.1559e-05
2.1323e-05
2.10858e-05
2.08476e-05
2.06083e-05
2.03681e-05
2.0127e-05
1.98851e-05
1.96424e-05
1.93991e-05
1.91552e-05
1.89108e-05
1.86659e-05
1.84207e-05
1.8175e-05
1.79291e-05
1.7683e-05
1.74367e-05
1.71904e-05
1.6944e-05
1.66976e-05
1.64513e-05
1.62051e-05
1.5959e-05
2.43208e-05
2.41055e-05
2.3888e-05
2.36684e-05
2.34468e-05
2.32232e-05
2.29979e-05
2.27707e-05
2.25419e-05
2.23115e-05
2.20796e-05
2.18463e-05
2.16116e-05
2.13757e-05
2.11385e-05
2.09003e-05
2.0661e-05
2.04208e-05
2.01797e-05
1.99377e-05
1.96951e-05
1.94517e-05
1.92077e-05
1.89632e-05
1.87182e-05
1.84727e-05
1.82269e-05
1.79809e-05
1.77345e-05
1.74881e-05
1.72415e-05
1.69948e-05
1.67482e-05
1.65016e-05
1.62551e-05
1.60088e-05
2.41509e-05
2.39337e-05
2.37144e-05
2.3493e-05
2.32697e-05
2.30445e-05
2.28176e-05
2.25889e-05
2.23587e-05
2.21269e-05
2.18937e-05
2.16591e-05
2.14233e-05
2.11862e-05
2.0948e-05
2.07087e-05
2.04685e-05
2.02274e-05
1.99854e-05
1.97426e-05
1.94992e-05
1.92551e-05
1.90105e-05
1.87654e-05
1.85198e-05
1.82739e-05
1.80276e-05
1.77812e-05
1.75345e-05
1.72877e-05
1.70408e-05
1.67939e-05
1.65471e-05
1.63004e-05
1.60538e-05
2.39744e-05
2.37553e-05
2.35342e-05
2.33111e-05
2.30861e-05
2.28594e-05
2.26309e-05
2.24008e-05
2.21691e-05
2.1936e-05
2.17015e-05
2.14657e-05
2.12287e-05
2.09905e-05
2.07513e-05
2.05111e-05
2.02699e-05
2.00279e-05
1.97851e-05
1.95416e-05
1.92975e-05
1.90528e-05
1.88075e-05
1.85619e-05
1.83158e-05
1.80694e-05
1.78228e-05
1.75759e-05
1.7329e-05
1.70819e-05
1.68348e-05
1.65878e-05
1.63408e-05
1.6094e-05
2.40101e-05
2.37913e-05
2.35704e-05
2.33475e-05
2.31227e-05
2.2896e-05
2.26677e-05
2.24377e-05
2.22062e-05
2.19731e-05
2.17387e-05
2.1503e-05
2.1266e-05
2.10279e-05
2.07887e-05
2.05484e-05
2.03073e-05
2.00653e-05
1.98224e-05
1.95789e-05
1.93347e-05
1.90899e-05
1.88446e-05
1.85988e-05
1.83526e-05
1.81061e-05
1.78593e-05
1.76124e-05
1.73652e-05
1.7118e-05
1.68708e-05
1.66235e-05
1.63764e-05
1.61294e-05
2.40408e-05
2.38222e-05
2.36014e-05
2.33787e-05
2.3154e-05
2.29275e-05
2.26993e-05
2.24694e-05
2.2238e-05
2.20051e-05
2.17707e-05
2.1535e-05
2.12981e-05
2.106e-05
2.08208e-05
2.05806e-05
2.03394e-05
2.00974e-05
1.98545e-05
1.96109e-05
1.93667e-05
1.91218e-05
1.88764e-05
1.86306e-05
1.83843e-05
1.81377e-05
1.78908e-05
1.76437e-05
1.73964e-05
1.71491e-05
1.69017e-05
1.66543e-05
1.6407e-05
1.61598e-05
2.40664e-05
2.38479e-05
2.36274e-05
2.34048e-05
2.31802e-05
2.29539e-05
2.27257e-05
2.2496e-05
2.22646e-05
2.20317e-05
2.17974e-05
2.15618e-05
2.13249e-05
2.10868e-05
2.08476e-05
2.06074e-05
2.03663e-05
2.01242e-05
1.98813e-05
1.96377e-05
1.93934e-05
1.91485e-05
1.8903e-05
1.86571e-05
1.84108e-05
1.81641e-05
1.79171e-05
1.76699e-05
1.74225e-05
1.7175e-05
1.69275e-05
1.668e-05
1.64325e-05
1.61852e-05
2.38686e-05
2.36481e-05
2.34256e-05
2.32012e-05
2.29749e-05
2.27469e-05
2.25172e-05
2.22859e-05
2.20531e-05
2.18188e-05
2.15832e-05
2.13464e-05
2.11083e-05
2.08692e-05
2.06289e-05
2.03878e-05
2.01457e-05
1.99028e-05
1.96592e-05
1.94148e-05
1.91699e-05
1.89244e-05
1.86784e-05
1.8432e-05
1.81852e-05
1.79382e-05
1.76909e-05
1.74434e-05
1.71959e-05
1.69482e-05
1.67006e-05
1.64531e-05
1.62056e-05
2.38841e-05
2.36637e-05
2.34413e-05
2.3217e-05
2.29908e-05
2.27628e-05
2.25332e-05
2.23019e-05
2.20691e-05
2.18349e-05
2.15994e-05
2.13625e-05
2.11245e-05
2.08853e-05
2.06451e-05
2.04039e-05
2.01619e-05
1.99189e-05
1.96753e-05
1.94309e-05
1.91859e-05
1.89404e-05
1.86944e-05
1.84479e-05
1.82011e-05
1.7954e-05
1.77067e-05
1.74592e-05
1.72115e-05
1.69638e-05
1.67161e-05
1.64685e-05
1.62209e-05
2.36741e-05
2.34518e-05
2.32275e-05
2.30013e-05
2.27734e-05
2.25438e-05
2.23126e-05
2.20798e-05
2.18456e-05
2.16101e-05
2.13733e-05
2.11353e-05
2.08961e-05
2.06559e-05
2.04147e-05
2.01726e-05
1.99297e-05
1.9686e-05
1.94417e-05
1.91967e-05
1.89511e-05
1.87051e-05
1.84586e-05
1.82117e-05
1.79646e-05
1.77172e-05
1.74696e-05
1.7222e-05
1.69742e-05
1.67265e-05
1.64788e-05
1.62312e-05
2.36793e-05
2.3457e-05
2.32328e-05
2.30066e-05
2.27787e-05
2.25491e-05
2.23179e-05
2.20852e-05
2.1851e-05
2.16155e-05
2.13787e-05
2.11406e-05
2.09015e-05
2.06613e-05
2.04201e-05
2.0178e-05
1.99351e-05
1.96914e-05
1.9447e-05
1.9202e-05
1.89565e-05
1.87104e-05
1.84639e-05
1.8217e-05
1.79699e-05
1.77225e-05
1.74749e-05
1.72272e-05
1.69794e-05
1.67316e-05
1.64839e-05
1.62363e-05
2.3457e-05
2.32328e-05
2.30066e-05
2.27787e-05
2.25491e-05
2.23179e-05
2.20852e-05
2.1851e-05
2.16155e-05
2.13787e-05
2.11407e-05
2.09015e-05
2.06613e-05
2.04201e-05
2.0178e-05
1.99351e-05
1.96914e-05
1.9447e-05
1.9202e-05
1.89565e-05
1.87104e-05
1.84639e-05
1.8217e-05
1.79699e-05
1.77225e-05
1.74749e-05
1.72272e-05
1.69794e-05
1.67316e-05
1.64839e-05
1.62363e-05
2.34518e-05
2.32275e-05
2.30013e-05
2.27734e-05
2.25438e-05
2.23126e-05
2.20798e-05
2.18457e-05
2.16101e-05
2.13733e-05
2.11353e-05
2.08961e-05
2.06559e-05
2.04147e-05
2.01726e-05
1.99297e-05
1.9686e-05
1.94417e-05
1.91967e-05
1.89511e-05
1.87051e-05
1.84586e-05
1.82117e-05
1.79646e-05
1.77172e-05
1.74696e-05
1.7222e-05
1.69742e-05
1.67265e-05
1.64788e-05
1.62312e-05
2.34413e-05
2.3217e-05
2.29908e-05
2.27628e-05
2.25332e-05
2.23019e-05
2.20691e-05
2.18349e-05
2.15994e-05
2.13625e-05
2.11245e-05
2.08853e-05
2.06451e-05
2.04039e-05
2.01619e-05
1.99189e-05
1.96753e-05
1.94309e-05
1.91859e-05
1.89404e-05
1.86944e-05
1.84479e-05
1.82011e-05
1.7954e-05
1.77067e-05
1.74592e-05
1.72115e-05
1.69638e-05
1.67161e-05
1.64685e-05
1.62209e-05
2.34256e-05
2.32012e-05
2.29749e-05
2.27469e-05
2.25172e-05
2.22859e-05
2.20531e-05
2.18188e-05
2.15832e-05
2.13464e-05
2.11083e-05
2.08692e-05
2.06289e-05
2.03878e-05
2.01457e-05
1.99028e-05
1.96592e-05
1.94148e-05
1.91699e-05
1.89244e-05
1.86784e-05
1.8432e-05
1.81852e-05
1.79382e-05
1.76909e-05
1.74434e-05
1.71959e-05
1.69482e-05
1.67006e-05
1.64531e-05
1.62056e-05
2.34048e-05
2.31802e-05
2.29539e-05
2.27257e-05
2.2496e-05
2.22646e-05
2.20317e-05
2.17974e-05
2.15618e-05
2.13249e-05
2.10868e-05
2.08476e-05
2.06074e-05
2.03663e-05
2.01242e-05
1.98813e-05
1.96377e-05
1.93934e-05
1.91485e-05
1.8903e-05
1.86571e-05
1.84108e-05
1.81641e-05
1.79171e-05
1.76699e-05
1.74225e-05
1.7175e-05
1.69275e-05
1.668e-05
1.64325e-05
1.61852e-05
2.33787e-05
2.3154e-05
2.29275e-05
2.26993e-05
2.24694e-05
2.2238e-05
2.20051e-05
2.17707e-05
2.1535e-05
2.12981e-05
2.106e-05
2.08208e-05
2.05806e-05
2.03394e-05
2.00974e-05
1.98545e-05
1.96109e-05
1.93667e-05
1.91218e-05
1.88764e-05
1.86306e-05
1.83843e-05
1.81377e-05
1.78908e-05
1.76437e-05
1.73964e-05
1.71491e-05
1.69017e-05
1.66543e-05
1.6407e-05
1.61598e-05
2.33475e-05
2.31227e-05
2.2896e-05
2.26677e-05
2.24377e-05
2.22062e-05
2.19731e-05
2.17387e-05
2.1503e-05
2.1266e-05
2.10279e-05
2.07887e-05
2.05485e-05
2.03073e-05
2.00653e-05
1.98224e-05
1.95789e-05
1.93347e-05
1.90899e-05
1.88446e-05
1.85988e-05
1.83526e-05
1.81061e-05
1.78593e-05
1.76124e-05
1.73652e-05
1.7118e-05
1.68708e-05
1.66235e-05
1.63764e-05
1.61294e-05
2.33111e-05
2.30861e-05
2.28594e-05
2.26309e-05
2.24008e-05
2.21691e-05
2.1936e-05
2.17015e-05
2.14657e-05
2.12287e-05
2.09905e-05
2.07513e-05
2.05111e-05
2.02699e-05
2.00279e-05
1.97851e-05
1.95416e-05
1.92975e-05
1.90528e-05
1.88075e-05
1.85619e-05
1.83158e-05
1.80694e-05
1.78228e-05
1.75759e-05
1.7329e-05
1.70819e-05
1.68348e-05
1.65878e-05
1.63408e-05
1.6094e-05
2.32697e-05
2.30445e-05
2.28176e-05
2.25889e-05
2.23587e-05
2.21269e-05
2.18937e-05
2.16591e-05
2.14233e-05
2.11862e-05
2.0948e-05
2.07087e-05
2.04685e-05
2.02274e-05
1.99854e-05
1.97426e-05
1.94992e-05
1.92551e-05
1.90105e-05
1.87654e-05
1.85198e-05
1.82739e-05
1.80276e-05
1.77811e-05
1.75345e-05
1.72877e-05
1.70408e-05
1.67939e-05
1.65471e-05
1.63004e-05
1.60538e-05
2.32232e-05
2.29979e-05
2.27707e-05
2.25419e-05
2.23115e-05
2.20796e-05
2.18463e-05
2.16116e-05
2.13757e-05
2.11385e-05
2.09003e-05
2.0661e-05
2.04208e-05
2.01797e-05
1.99377e-05
1.96951e-05
1.94517e-05
1.92077e-05
1.89632e-05
1.87181e-05
1.84727e-05
1.82269e-05
1.79808e-05
1.77345e-05
1.74881e-05
1.72415e-05
1.69948e-05
1.67482e-05
1.65016e-05
1.62551e-05
1.60088e-05
2.31718e-05
2.29462e-05
2.27188e-05
2.24898e-05
2.22593e-05
2.20272e-05
2.17938e-05
2.1559e-05
2.1323e-05
2.10858e-05
2.08476e-05
2.06083e-05
2.03681e-05
2.0127e-05
1.98851e-05
1.96424e-05
1.93991e-05
1.91552e-05
1.89108e-05
1.86659e-05
1.84207e-05
1.8175e-05
1.79291e-05
1.7683e-05
1.74367e-05
1.71904e-05
1.6944e-05
1.66976e-05