/*--------------------------------*- C++ -*----------------------------------*\
  =========                 |
  \\      /  F ield         | OpenFOAM: The Open Source CFD Toolbox
   \\    /   O peration     | Website:  https://openfoam.org
    \\  /    A nd           | Version:  7
     \\/     M anipulation  |
\*---------------------------------------------------------------------------*/
FoamFile
{
    version     2.0;
    format      ascii;
    class       volScalarField;
    location    "188000";
    object      strainRate;
}
// * * * * * * * * * * * * * * * * * * * * * * * * * * * * * * * * * * * * * //

dimensions      [0 0 -1 0 0 0 0];

internalField   nonuniform List<scalar> 
4814
(
0.0831584
0.0827881
0.0824548
0.0821584
0.095236
0.0943217
0.0934599
0.092633
0.0918411
0.0910849
0.0903648
0.0896812
0.0890344
0.0884247
0.0878523
0.0873173
0.0868199
0.0863601
0.0859384
0.0855549
0.0852096
0.0849027
0.0846341
0.0844038
0.084212
0.0840585
0.0839433
0.0838666
0.0838282
0.0838282
0.0838666
0.0839433
0.0840585
0.084212
0.0844038
0.0846341
0.0849027
0.0852096
0.0984967
0.0975498
0.0966567
0.0958
0.0949795
0.094196
0.0934498
0.0927414
0.0920711
0.0914393
0.0908461
0.0902917
0.0897762
0.0892997
0.0888626
0.0884651
0.0881073
0.0877892
0.0875108
0.0872722
0.0870734
0.0869143
0.086795
0.0867154
0.0866756
0.0866756
0.0867154
0.086795
0.0869143
0.0870734
0.0872722
0.0875109
0.0877892
0.0881073
0.0884651
0.0888626
0.0892997
0.0897762
0.0902917
0.0908461
0.0914393
0.101929
0.100948
0.100022
0.0991338
0.0982833
0.097471
0.0966975
0.0959631
0.0952682
0.094613
0.0939979
0.0934231
0.0928886
0.0923945
0.0919413
0.0915292
0.0911581
0.0908283
0.0905396
0.0902922
0.090086
0.089921
0.0897973
0.0897148
0.0896736
0.0896736
0.0897148
0.0897973
0.089921
0.090086
0.0902922
0.0905396
0.0908283
0.0911581
0.0915292
0.0919413
0.0923945
0.0928886
0.0934231
0.0939979
0.094613
0.0952682
0.0959631
0.0966975
0.105545
0.104527
0.103567
0.102646
0.101764
0.100922
0.10012
0.0993578
0.098637
0.0979574
0.0973193
0.096723
0.0961684
0.0956559
0.0951857
0.0947581
0.0943732
0.094031
0.0937315
0.0934748
0.0932609
0.0930897
0.0929613
0.0928757
0.092833
0.092833
0.0928757
0.0929613
0.0930897
0.0932609
0.0934748
0.0937315
0.094031
0.0943732
0.0947581
0.0951857
0.0956559
0.0961684
0.096723
0.0973193
0.0979574
0.098637
0.0993578
0.10012
0.109357
0.108302
0.107306
0.106351
0.105435
0.104561
0.103729
0.102938
0.10219
0.101485
0.100823
0.100204
0.0996281
0.099096
0.098608
0.0981642
0.0977646
0.0974094
0.0970986
0.0968321
0.09661
0.0964323
0.0962991
0.0962102
0.0961658
0.0961658
0.0962102
0.0962991
0.0964323
0.09661
0.0968321
0.0970986
0.0974094
0.0977646
0.0981642
0.098608
0.099096
0.0996281
0.100204
0.100823
0.101485
0.10219
0.102938
0.103729
0.113381
0.112286
0.111252
0.11026
0.109311
0.108403
0.107539
0.106718
0.105941
0.105209
0.104521
0.103879
0.103281
0.102728
0.102222
0.101761
0.101346
0.100977
0.100654
0.100377
0.100147
0.099962
0.0998236
0.0997313
0.0996852
0.0996852
0.0997313
0.0998236
0.099962
0.100147
0.100377
0.100654
0.100977
0.101346
0.101761
0.102222
0.102728
0.103281
0.103879
0.104521
0.105209
0.105941
0.106718
0.107539
0.117631
0.116495
0.115421
0.114391
0.113405
0.112463
0.111565
0.110712
0.109906
0.109145
0.10843
0.107763
0.107141
0.106567
0.106041
0.105562
0.105131
0.104747
0.104412
0.104124
0.103885
0.103693
0.103549
0.103453
0.103405
0.103405
0.103453
0.103549
0.103693
0.103885
0.104124
0.104412
0.104747
0.105131
0.105562
0.106041
0.106567
0.107141
0.107763
0.10843
0.109145
0.109906
0.110712
0.111565
0.112463
0.122124
0.120944
0.119829
0.11876
0.117735
0.116756
0.115823
0.114937
0.114099
0.113308
0.112565
0.111871
0.111226
0.110629
0.110082
0.109584
0.109136
0.108737
0.108388
0.108089
0.10784
0.107641
0.107491
0.107391
0.107342
0.107342
0.107391
0.107491
0.107641
0.10784
0.108089
0.108388
0.108737
0.109136
0.109584
0.110082
0.110629
0.111226
0.111871
0.112565
0.113308
0.114099
0.114937
0.115823
0.116756
0.126879
0.125653
0.124495
0.123383
0.122318
0.121301
0.120331
0.11941
0.118538
0.117716
0.116944
0.116222
0.115551
0.11493
0.114361
0.113843
0.113377
0.112963
0.1126
0.112289
0.11203
0.111822
0.111667
0.111563
0.111511
0.111511
0.111563
0.111667
0.111822
0.11203
0.112289
0.1126
0.112963
0.113377
0.113843
0.114361
0.11493
0.115551
0.116222
0.116944
0.117716
0.118538
0.11941
0.120331
0.121301
0.131914
0.130641
0.129437
0.128282
0.127175
0.126117
0.125108
0.124151
0.123244
0.122389
0.121585
0.120835
0.120136
0.11949
0.118898
0.118359
0.117874
0.117443
0.117065
0.116742
0.116472
0.116256
0.116094
0.115986
0.115932
0.115932
0.115986
0.116094
0.116256
0.116472
0.116742
0.117065
0.117443
0.117874
0.118359
0.118898
0.11949
0.120136
0.120835
0.121585
0.122389
0.123244
0.124151
0.125108
0.126117
0.137252
0.135929
0.134677
0.133476
0.132325
0.131224
0.130176
0.129179
0.128236
0.127346
0.12651
0.125728
0.125001
0.124329
0.123713
0.123152
0.122647
0.122198
0.121805
0.121468
0.121187
0.120963
0.120794
0.120682
0.120625
0.120625
0.120682
0.120794
0.120963
0.121187
0.121468
0.121805
0.122198
0.122647
0.123152
0.123713
0.124329
0.125001
0.125728
0.12651
0.127346
0.128236
0.129179
0.130176
0.142915
0.14154
0.140238
0.138989
0.137792
0.136647
0.135556
0.134519
0.133537
0.13261
0.13174
0.130927
0.13017
0.12947
0.128828
0.128244
0.127718
0.12725
0.126841
0.12649
0.126198
0.125964
0.125788
0.125671
0.125612
0.125612
0.125671
0.125788
0.125964
0.126198
0.12649
0.126841
0.12725
0.127718
0.128244
0.128828
0.12947
0.13017
0.130927
0.13174
0.13261
0.133537
0.134519
0.135556
0.148928
0.147498
0.146144
0.144845
0.143599
0.142408
0.141273
0.140193
0.139171
0.138206
0.1373
0.136453
0.135665
0.134936
0.134267
0.133659
0.133111
0.132624
0.132197
0.131832
0.131527
0.131283
0.1311
0.130978
0.130917
0.130917
0.130978
0.1311
0.131283
0.131527
0.131832
0.132197
0.132624
0.133111
0.133659
0.134267
0.134936
0.135665
0.136453
0.1373
0.138206
0.139171
0.140193
0.141273
0.155317
0.153831
0.152422
0.151071
0.149775
0.148535
0.147353
0.146229
0.145165
0.14416
0.143217
0.142334
0.141513
0.140754
0.140057
0.139423
0.138852
0.138345
0.1379
0.137519
0.137202
0.136947
0.136757
0.13663
0.136566
0.136566
0.13663
0.136757
0.136947
0.137202
0.137519
0.1379
0.138345
0.138852
0.139423
0.140057
0.140754
0.141513
0.142334
0.143217
0.14416
0.145165
0.146229
0.147353
0.16211
0.160565
0.159101
0.157696
0.156347
0.155056
0.153826
0.152656
0.151547
0.150501
0.149518
0.148599
0.147743
0.146952
0.146226
0.145566
0.144971
0.144441
0.143978
0.143581
0.14325
0.142985
0.142786
0.142653
0.142587
0.142587
0.142653
0.142786
0.142985
0.14325
0.143581
0.143978
0.144441
0.144971
0.145565
0.146226
0.146952
0.147743
0.148599
0.149518
0.150501
0.151547
0.152656
0.153826
0.169338
0.167733
0.16621
0.164748
0.163345
0.162002
0.160721
0.159503
0.158349
0.157259
0.156235
0.155278
0.154386
0.153562
0.152805
0.152117
0.151497
0.150945
0.150462
0.150048
0.149703
0.149426
0.149219
0.149081
0.149012
0.149012
0.149081
0.149219
0.149426
0.149703
0.150048
0.150462
0.150945
0.151497
0.152117
0.152805
0.153562
0.154386
0.155278
0.156235
0.157259
0.158349
0.159503
0.160721
0.177033
0.175365
0.173782
0.172262
0.170802
0.169405
0.168073
0.166805
0.165603
0.164468
0.163401
0.162404
0.161475
0.160616
0.159827
0.15911
0.158463
0.157888
0.157385
0.156953
0.156593
0.156305
0.156089
0.155945
0.155873
0.155873
0.155945
0.156089
0.156305
0.156593
0.156953
0.157385
0.157888
0.158463
0.15911
0.159827
0.160616
0.161475
0.162404
0.163401
0.164468
0.165603
0.166805
0.168073
0.185227
0.183495
0.181851
0.180271
0.178753
0.177301
0.175914
0.174595
0.173344
0.172162
0.171052
0.170013
0.169045
0.16815
0.167328
0.166581
0.165907
0.165308
0.164783
0.164333
0.163957
0.163657
0.163432
0.163281
0.163206
0.163206
0.163281
0.163432
0.163657
0.163957
0.164333
0.164783
0.165308
0.165907
0.166581
0.167328
0.16815
0.169045
0.170013
0.171052
0.172162
0.173344
0.174595
0.175914
0.193956
0.192159
0.190452
0.188812
0.187234
0.185724
0.184283
0.18291
0.181609
0.18038
0.179223
0.178142
0.177134
0.176202
0.175346
0.174567
0.173866
0.173241
0.172694
0.172225
0.171834
0.171521
0.171286
0.171129
0.171051
0.171051
0.171129
0.171286
0.171521
0.171834
0.172225
0.172694
0.173241
0.173866
0.174567
0.175346
0.176202
0.177134
0.178142
0.179223
0.18038
0.181609
0.18291
0.184283
0.203256
0.201393
0.199622
0.197921
0.196283
0.194715
0.193217
0.191791
0.190437
0.189159
0.187956
0.186831
0.185783
0.184812
0.183922
0.183111
0.18238
0.181729
0.18116
0.180671
0.180263
0.179937
0.179692
0.179529
0.179447
0.179447
0.179529
0.179692
0.179937
0.180263
0.180671
0.18116
0.181729
0.18238
0.183111
0.183922
0.184812
0.185783
0.186831
0.187956
0.189159
0.190437
0.191791
0.193217
0.213163
0.211234
0.2094
0.207636
0.205938
0.204311
0.202756
0.201275
0.19987
0.198542
0.197292
0.196122
0.195032
0.194023
0.193096
0.192252
0.191492
0.190815
0.190222
0.189713
0.189289
0.188949
0.188694
0.188524
0.188439
0.188439
0.188524
0.188694
0.188949
0.189289
0.189713
0.190222
0.190815
0.191492
0.192252
0.193096
0.194023
0.195032
0.196122
0.197292
0.198542
0.19987
0.201275
0.202756
0.204311
0.223715
0.221721
0.219823
0.217997
0.216238
0.214552
0.212941
0.211405
0.209948
0.208569
0.207272
0.206057
0.204925
0.203877
0.202914
0.202037
0.201246
0.200543
0.199926
0.199397
0.198955
0.198602
0.198337
0.19816
0.198072
0.198072
0.19816
0.198337
0.198602
0.198955
0.199397
0.199926
0.200543
0.201246
0.202037
0.202914
0.203877
0.204925
0.206057
0.207272
0.208569
0.209948
0.211405
0.212941
0.214552
0.23495
0.232892
0.23093
0.229043
0.227224
0.22548
0.223812
0.222223
0.220713
0.219285
0.21794
0.21668
0.215506
0.214418
0.213419
0.212509
0.211689
0.210958
0.210317
0.209768
0.209309
0.208942
0.208667
0.208483
0.208391
0.208391
0.208483
0.208667
0.208942
0.209309
0.209768
0.210317
0.210958
0.211689
0.212509
0.213419
0.214418
0.215506
0.21668
0.21794
0.219284
0.220713
0.222223
0.223812
0.22548
0.246931
0.244803
0.242774
0.240819
0.238941
0.23714
0.235417
0.233773
0.232211
0.230733
0.229341
0.228036
0.22682
0.225694
0.224659
0.223716
0.222865
0.222108
0.221444
0.220874
0.220398
0.220018
0.219732
0.219541
0.219446
0.219446
0.219541
0.219732
0.220018
0.220398
0.220874
0.221444
0.222108
0.222865
0.223716
0.224659
0.225694
0.22682
0.228036
0.229341
0.230733
0.232211
0.233773
0.235417
0.23714
0.259827
0.257596
0.255465
0.253412
0.251471
0.249609
0.247826
0.246124
0.244506
0.242974
0.241531
0.240178
0.238919
0.237754
0.236684
0.235708
0.234828
0.234044
0.233356
0.232766
0.232274
0.231879
0.231583
0.231386
0.231287
0.231287
0.231386
0.231583
0.231879
0.232274
0.232766
0.233356
0.234044
0.234828
0.235708
0.236684
0.237754
0.238919
0.240178
0.241531
0.242974
0.244506
0.246124
0.247826
0.27393
0.271564
0.2693
0.267118
0.265079
0.263123
0.261248
0.259459
0.257758
0.256147
0.254628
0.253205
0.251893
0.250688
0.24958
0.248569
0.247657
0.246845
0.246132
0.24552
0.24501
0.244601
0.244293
0.244089
0.243986
0.243986
0.244089
0.244293
0.244601
0.24501
0.24552
0.246132
0.246845
0.247657
0.248569
0.24958
0.250688
0.251893
0.253205
0.254628
0.256147
0.257758
0.259459
0.261248
0.289369
0.286896
0.284525
0.282238
0.28007
0.277987
0.275992
0.274088
0.272277
0.270562
0.268946
0.267431
0.266044
0.264776
0.263611
0.262548
0.261588
0.260733
0.259983
0.259338
0.258801
0.25837
0.258047
0.257831
0.257723
0.257723
0.257831
0.258047
0.25837
0.258801
0.259338
0.259983
0.260733
0.261588
0.262548
0.263611
0.264776
0.266044
0.267431
0.268946
0.270562
0.272277
0.274088
0.275992
0.306006
0.303466
0.301028
0.298672
0.296404
0.294225
0.292137
0.290142
0.288244
0.286446
0.284751
0.283162
0.281694
0.280343
0.279101
0.277968
0.276945
0.276034
0.275234
0.274548
0.273975
0.273516
0.273172
0.272942
0.272827
0.272827
0.272942
0.273172
0.273516
0.273975
0.274548
0.275234
0.276034
0.276945
0.277968
0.279101
0.280343
0.281694
0.283162
0.284751
0.286446
0.288244
0.290142
0.292137
0.323703
0.321118
0.318632
0.316226
0.313904
0.311671
0.309527
0.307479
0.305528
0.303678
0.301932
0.300294
0.298767
0.297354
0.296053
0.294866
0.293794
0.292839
0.292001
0.291281
0.29068
0.290199
0.289838
0.289597
0.289476
0.289476
0.289597
0.289838
0.290199
0.29068
0.291281
0.292001
0.292839
0.293794
0.294866
0.296053
0.297354
0.298767
0.300294
0.301932
0.303678
0.305528
0.307479
0.309527
0.342372
0.339769
0.337261
0.33483
0.332479
0.330214
0.328037
0.325954
0.323968
0.322083
0.320303
0.31863
0.317069
0.315621
0.314288
0.313071
0.311971
0.31099
0.31013
0.30939
0.308773
0.308278
0.307906
0.307658
0.307534
0.307534
0.307658
0.307906
0.308278
0.308773
0.30939
0.31013
0.31099
0.311971
0.313071
0.314288
0.315621
0.317069
0.31863
0.320303
0.322083
0.323968
0.325954
0.328037
0.361853
0.359269
0.356775
0.354351
0.352002
0.349735
0.347553
0.345461
0.343465
0.341567
0.339772
0.338084
0.336506
0.335042
0.333692
0.332458
0.331343
0.330347
0.329473
0.328722
0.328094
0.327591
0.327213
0.326961
0.326835
0.326835
0.326961
0.327213
0.327591
0.328094
0.328722
0.329473
0.330347
0.331343
0.332458
0.333692
0.335042
0.336506
0.338084
0.339772
0.341567
0.343465
0.345461
0.347553
0.381889
0.379372
0.376935
0.37456
0.372254
0.370022
0.367871
0.365806
0.36383
0.36195
0.360169
0.358491
0.356921
0.355461
0.354114
0.352882
0.351767
0.350771
0.349896
0.349144
0.348515
0.34801
0.347631
0.347378
0.347252
0.347252
0.347378
0.347631
0.34801
0.348515
0.349144
0.349896
0.350771
0.351767
0.352882
0.354114
0.355461
0.356921
0.358491
0.360169
0.36195
0.36383
0.365806
0.367871
0.402114
0.399717
0.397389
0.395114
0.392899
0.39075
0.388674
0.386676
0.384762
0.382936
0.381204
0.37957
0.378038
0.376611
0.375292
0.374085
0.372992
0.372014
0.371155
0.370415
0.369796
0.369299
0.368926
0.368677
0.368552
0.368552
0.368677
0.368926
0.369299
0.369796
0.370415
0.371155
0.372014
0.372992
0.374085
0.375292
0.376611
0.378038
0.37957
0.381204
0.382936
0.384762
0.386676
0.388674
0.39075
0.422048
0.41983
0.417667
0.415548
0.413476
0.411461
0.40951
0.407628
0.405821
0.404094
0.402452
0.400901
0.399443
0.398082
0.396823
0.395669
0.394622
0.393686
0.392861
0.392151
0.391556
0.391079
0.39072
0.390481
0.390361
0.390361
0.390481
0.39072
0.391079
0.391556
0.392151
0.392861
0.393686
0.394622
0.395669
0.396823
0.398082
0.399443
0.400901
0.402452
0.404094
0.405821
0.407628
0.40951
0.411461
0.441128
0.439142
0.4372
0.435289
0.433414
0.431586
0.429811
0.428094
0.426442
0.424859
0.423351
0.421923
0.420578
0.419321
0.418156
0.417085
0.416114
0.415243
0.414476
0.413814
0.41326
0.412815
0.41248
0.412256
0.412144
0.412144
0.412256
0.41248
0.412815
0.41326
0.413814
0.414476
0.415243
0.416114
0.417085
0.418156
0.419321
0.420578
0.421923
0.423351
0.424859
0.426442
0.428094
0.429811
0.431586
0.458759
0.45705
0.455372
0.453714
0.452081
0.450484
0.448929
0.447421
0.445966
0.44457
0.443236
0.441971
0.440775
0.439656
0.438616
0.43766
0.43679
0.43601
0.435322
0.434728
0.43423
0.43383
0.433528
0.433327
0.433226
0.433226
0.433327
0.433528
0.43383
0.43423
0.434728
0.435322
0.43601
0.43679
0.43766
0.438616
0.439656
0.440775
0.441971
0.443236
0.44457
0.445966
0.447421
0.448929
0.450484
0.452081
0.474407
0.472998
0.471609
0.470231
0.468867
0.46753
0.466224
0.464955
0.463728
0.462547
0.461418
0.460343
0.459325
0.45837
0.457481
0.456662
0.455917
0.455247
0.454656
0.454145
0.453716
0.453372
0.453112
0.452939
0.452852
0.452852
0.452939
0.453112
0.453372
0.453716
0.454145
0.454656
0.455247
0.455917
0.456662
0.457481
0.45837
0.459325
0.460343
0.461418
0.462547
0.463728
0.464955
0.466224
0.46753
0.468867
0.487682
0.486573
0.485473
0.484377
0.483289
0.482217
0.481169
0.480149
0.47916
0.478207
0.477293
0.476422
0.475595
0.474817
0.474092
0.473423
0.472814
0.472265
0.471781
0.471362
0.47101
0.470727
0.470513
0.470371
0.470299
0.470299
0.470371
0.470513
0.470727
0.47101
0.471362
0.471781
0.472265
0.472814
0.473423
0.474092
0.474817
0.475595
0.476422
0.477293
0.478207
0.47916
0.480149
0.481169
0.482217
0.483289
0.484377
0.498416
0.49758
0.496746
0.495912
0.495079
0.494258
0.493452
0.492667
0.491906
0.491171
0.490465
0.489792
0.489151
0.488546
0.487982
0.487461
0.486985
0.486558
0.48618
0.485852
0.485577
0.485356
0.485189
0.485078
0.485022
0.485022
0.485078
0.485189
0.485356
0.485577
0.485852
0.486179
0.486558
0.486985
0.487461
0.487982
0.488546
0.489151
0.489792
0.490465
0.491171
0.491906
0.492667
0.493452
0.494258
0.495079
0.495912
0.50668
0.506073
0.505464
0.504851
0.504236
0.503628
0.503032
0.502451
0.501887
0.501342
0.500819
0.50032
0.499843
0.499392
0.498971
0.498582
0.498228
0.497909
0.497626
0.497382
0.497176
0.497011
0.496886
0.496803
0.496761
0.496761
0.496803
0.496886
0.497011
0.497176
0.497382
0.497626
0.497908
0.498228
0.498582
0.498971
0.499392
0.499843
0.500319
0.500819
0.501342
0.501887
0.502451
0.503032
0.503628
0.504236
0.504851
0.51275
0.51232
0.511884
0.511444
0.510998
0.510558
0.510126
0.509706
0.509298
0.508905
0.508528
0.508168
0.507823
0.507497
0.507192
0.506911
0.506654
0.506423
0.506219
0.506042
0.505894
0.505775
0.505685
0.505624
0.505594
0.505594
0.505624
0.505685
0.505775
0.505894
0.506042
0.506219
0.506423
0.506654
0.506911
0.507192
0.507497
0.507823
0.508168
0.508528
0.508905
0.509298
0.509706
0.510126
0.510558
0.510998
0.511444
0.51703
0.516727
0.516414
0.516097
0.515773
0.515453
0.51514
0.514836
0.514541
0.514258
0.513988
0.513729
0.513481
0.513246
0.513026
0.512824
0.51264
0.512474
0.512328
0.512202
0.512096
0.512011
0.511946
0.511904
0.511882
0.511882
0.511904
0.511946
0.512011
0.512096
0.512202
0.512328
0.512474
0.51264
0.512824
0.513026
0.513246
0.513481
0.513729
0.513988
0.514258
0.514541
0.514835
0.51514
0.515453
0.515773
0.516097
0.519965
0.519746
0.519515
0.519278
0.519035
0.518794
0.51856
0.518333
0.518114
0.517904
0.517704
0.517514
0.517331
0.517156
0.516994
0.516845
0.516709
0.516588
0.516481
0.516389
0.516311
0.516249
0.516202
0.516171
0.516155
0.516155
0.516171
0.516202
0.516249
0.516311
0.516389
0.516481
0.516588
0.516709
0.516845
0.516994
0.517156
0.517331
0.517514
0.517704
0.517904
0.518114
0.518333
0.51856
0.518794
0.519035
0.519278
0.519515
0.52197
0.521804
0.521622
0.521435
0.521241
0.521049
0.520863
0.520683
0.52051
0.520346
0.520189
0.52004
0.519897
0.51976
0.519633
0.519517
0.519411
0.519317
0.519234
0.519163
0.519103
0.519055
0.519019
0.518995
0.518983
0.518983
0.518995
0.519019
0.519055
0.519103
0.519163
0.519234
0.519317
0.519411
0.519517
0.519633
0.51976
0.519897
0.52004
0.520189
0.520346
0.52051
0.520683
0.520863
0.521049
0.521241
0.521435
0.521622
0.523384
0.523248
0.523096
0.522937
0.522771
0.522608
0.522449
0.522296
0.52215
0.522012
0.52188
0.521755
0.521635
0.52152
0.521413
0.521315
0.521227
0.521148
0.521079
0.52102
0.52097
0.52093
0.5209
0.520881
0.520871
0.520871
0.520881
0.5209
0.52093
0.52097
0.52102
0.521079
0.521148
0.521227
0.521315
0.521413
0.52152
0.521635
0.521755
0.52188
0.522012
0.52215
0.522296
0.522449
0.522608
0.522771
0.522937
0.523096
0.524453
0.524336
0.524201
0.524058
0.523909
0.523761
0.523618
0.52348
0.523349
0.523225
0.523108
0.522996
0.522888
0.522785
0.52269
0.522602
0.522524
0.522454
0.522392
0.522339
0.522295
0.52226
0.522233
0.522216
0.522207
0.522207
0.522216
0.522233
0.52226
0.522295
0.522339
0.522392
0.522454
0.522524
0.522602
0.52269
0.522785
0.522888
0.522996
0.523108
0.523225
0.523349
0.52348
0.523618
0.523761
0.523908
0.524058
0.524201
0.525342
0.525238
0.525112
0.524979
0.52484
0.524702
0.524568
0.52444
0.524318
0.524202
0.524092
0.523989
0.523888
0.523792
0.523703
0.523622
0.523549
0.523484
0.523426
0.523377
0.523336
0.523304
0.523279
0.523263
0.523255
0.523255
0.523263
0.523279
0.523304
0.523336
0.523377
0.523426
0.523483
0.523549
0.523622
0.523703
0.523792
0.523888
0.523989
0.524092
0.524202
0.524318
0.52444
0.524568
0.524701
0.52484
0.524979
0.525112
0.526145
0.526051
0.525933
0.525807
0.525674
0.525543
0.525416
0.525294
0.525178
0.525068
0.524965
0.524867
0.524771
0.52468
0.524595
0.524518
0.524448
0.524387
0.524332
0.524286
0.524247
0.524216
0.524193
0.524177
0.524169
0.524169
0.524177
0.524193
0.524216
0.524247
0.524286
0.524332
0.524387
0.524448
0.524518
0.524595
0.52468
0.524771
0.524866
0.524965
0.525068
0.525178
0.525294
0.525416
0.525543
0.525674
0.525807
0.525933
0.526913
0.526827
0.526715
0.526595
0.526468
0.526343
0.526221
0.526105
0.525994
0.525889
0.52579
0.525696
0.525605
0.525518
0.525437
0.525363
0.525297
0.525237
0.525186
0.525141
0.525104
0.525075
0.525052
0.525038
0.52503
0.52503
0.525038
0.525052
0.525075
0.525104
0.525141
0.525186
0.525237
0.525297
0.525363
0.525437
0.525518
0.525605
0.525696
0.52579
0.525889
0.525994
0.526105
0.526221
0.526343
0.526468
0.526595
0.526715
0.527663
0.527585
0.527479
0.527365
0.527244
0.527123
0.527007
0.526896
0.52679
0.52669
0.526595
0.526506
0.526419
0.526335
0.526258
0.526187
0.526123
0.526067
0.526017
0.525975
0.525939
0.525911
0.52589
0.525876
0.525869
0.525869
0.525876
0.52589
0.525911
0.525939
0.525975
0.526017
0.526067
0.526123
0.526187
0.526258
0.526335
0.526419
0.526506
0.526595
0.52669
0.52679
0.526896
0.527007
0.527123
0.527244
0.527365
0.527479
0.095236
0.0984967
0.101929
0.105545
0.109357
0.113381
0.117631
0.122124
0.126879
0.131914
0.137252
0.142915
0.148928
0.155317
0.16211
0.169338
0.177033
0.185227
0.193956
0.203256
0.213163
0.223715
0.23495
0.246931
0.259827
0.27393
0.289369
0.306006
0.323703
0.342372
0.361853
0.381889
0.402114
0.422048
0.441128
0.458759
0.474407
0.487682
0.498416
0.50668
0.51275
0.51703
0.519965
0.52197
0.523384
0.524453
0.525342
0.526145
0.526913
0.527663
0.0943217
0.0975498
0.100948
0.104527
0.108302
0.112286
0.116495
0.120944
0.125653
0.130641
0.135929
0.14154
0.147498
0.153831
0.160565
0.167733
0.175365
0.183495
0.192159
0.201393
0.211234
0.221721
0.232892
0.244803
0.257596
0.271564
0.286896
0.303466
0.321118
0.339769
0.359269
0.379372
0.399717
0.41983
0.439142
0.45705
0.472998
0.486573
0.49758
0.506073
0.51232
0.516727
0.519746
0.521804
0.523248
0.524336
0.525238
0.526051
0.526827
0.527585
0.0934599
0.0966567
0.100022
0.103567
0.107306
0.111252
0.115421
0.119829
0.124495
0.129437
0.134677
0.140238
0.146144
0.152422
0.159101
0.16621
0.173782
0.181851
0.190452
0.199622
0.2094
0.219823
0.23093
0.242774
0.255465
0.2693
0.284525
0.301028
0.318632
0.337261
0.356775
0.376935
0.397389
0.417667
0.4372
0.455372
0.471609
0.485473
0.496746
0.505464
0.511884
0.516414
0.519515
0.521623
0.523096
0.524201
0.525112
0.525933
0.526715
0.527479
0.092633
0.0958
0.0991337
0.102646
0.106351
0.11026
0.114391
0.11876
0.123383
0.128282
0.133476
0.138989
0.144845
0.151071
0.157696
0.164748
0.172262
0.180271
0.188812
0.197921
0.207636
0.217997
0.229043
0.240819
0.253412
0.267118
0.282238
0.298672
0.316226
0.33483
0.354351
0.37456
0.395114
0.415548
0.435289
0.453714
0.470231
0.484377
0.495912
0.504851
0.511444
0.516097
0.519278
0.521435
0.522937
0.524058
0.524979
0.525807
0.526595
0.527365
0.0918411
0.0949795
0.0982833
0.101764
0.105435
0.109311
0.113405
0.117735
0.122318
0.127175
0.132325
0.137792
0.143599
0.149775
0.156347
0.163345
0.170802
0.178753
0.187234
0.196283
0.205938
0.216238
0.227224
0.238941
0.251471
0.265079
0.28007
0.296404
0.313904
0.332479
0.352002
0.372254
0.392899
0.413476
0.433414
0.452081
0.468867
0.483289
0.495079
0.504236
0.510998
0.515773
0.519035
0.521241
0.522771
0.523909
0.52484
0.525674
0.526468
0.527244
0.0910849
0.094196
0.097471
0.100922
0.104561
0.108403
0.112463
0.116756
0.121301
0.126117
0.131224
0.136647
0.142408
0.148535
0.155056
0.162002
0.169405
0.177301
0.185724
0.194715
0.204311
0.214552
0.22548
0.23714
0.249609
0.263123
0.277987
0.294225
0.311671
0.330214
0.349735
0.370022
0.39075
0.411461
0.431586
0.450484
0.46753
0.482217
0.494258
0.503628
0.510558
0.515453
0.518794
0.521049
0.522608
0.523761
0.524702
0.525543
0.526343
0.527123
0.0903648
0.0934498
0.0966975
0.10012
0.103729
0.107539
0.111565
0.115823
0.120331
0.125108
0.130176
0.135556
0.141273
0.147353
0.153826
0.160721
0.168073
0.175914
0.184283
0.193217
0.202756
0.212941
0.223812
0.235417
0.247826
0.261248
0.275992
0.292137
0.309527
0.328037
0.347553
0.367871
0.388674
0.40951
0.429811
0.448929
0.466224
0.481169
0.493452
0.503032
0.510126
0.51514
0.51856
0.520863
0.522449
0.523618
0.524568
0.525416
0.526221
0.527007
0.0896812
0.0927414
0.0959631
0.0993578
0.102938
0.106718
0.110712
0.114937
0.11941
0.124151
0.129179
0.134519
0.140193
0.146229
0.152656
0.159503
0.166805
0.174595
0.18291
0.191791
0.201275
0.211405
0.222223
0.233773
0.246124
0.259459
0.274088
0.290142
0.307479
0.325954
0.345461
0.365806
0.386676
0.407628
0.428094
0.447421
0.464955
0.480149
0.492667
0.502451
0.509706
0.514836
0.518333
0.520683
0.522296
0.52348
0.52444
0.525294
0.526105
0.526896
0.0890344
0.0920711
0.0952681
0.098637
0.10219
0.105941
0.109906
0.114099
0.118538
0.123244
0.128236
0.133537
0.139171
0.145165
0.151547
0.158349
0.165603
0.173344
0.181609
0.190437
0.19987
0.209948
0.220713
0.232211
0.244506
0.257758
0.272277
0.288244
0.305528
0.323968
0.343465
0.36383
0.384762
0.405821
0.426442
0.445966
0.463728
0.47916
0.491906
0.501887
0.509298
0.514541
0.518114
0.52051
0.52215
0.52335
0.524318
0.525178
0.525994
0.52679
0.0884247
0.0914393
0.094613
0.0979574
0.101485
0.105209
0.109145
0.113308
0.117716
0.122389
0.127346
0.13261
0.138206
0.14416
0.150501
0.157259
0.164468
0.172162
0.18038
0.189159
0.198542
0.208569
0.219284
0.230733
0.242974
0.256147
0.270562
0.286446
0.303678
0.322083
0.341567
0.36195
0.382936
0.404094
0.424859
0.44457
0.462547
0.478207
0.491171
0.501342
0.508905
0.514258
0.517904
0.520346
0.522012
0.523225
0.524202
0.525069
0.525889
0.52669
0.0878523
0.0908461
0.0939979
0.0973193
0.100823
0.104521
0.10843
0.112565
0.116944
0.121585
0.12651
0.13174
0.1373
0.143217
0.149518
0.156235
0.163401
0.171052
0.179223
0.187956
0.197292
0.207272
0.21794
0.229341
0.241531
0.254628
0.268946
0.284751
0.301932
0.320303
0.339772
0.360169
0.381204
0.402452
0.423351
0.443236
0.461418
0.477293
0.490465
0.500819
0.508528
0.513988
0.517704
0.520189
0.52188
0.523108
0.524092
0.524965
0.52579
0.526596
0.0873173
0.0902917
0.0934231
0.096723
0.100204
0.103879
0.107763
0.111871
0.116222
0.120835
0.125728
0.130927
0.136453
0.142334
0.148599
0.155278
0.162404
0.170013
0.178142
0.186831
0.196122
0.206057
0.21668
0.228036
0.240178
0.253205
0.267431
0.283162
0.300294
0.31863
0.338084
0.358491
0.37957
0.400901
0.421923
0.441971
0.460343
0.476422
0.489792
0.50032
0.508168
0.513729
0.517514
0.52004
0.521755
0.522996
0.523989
0.524867
0.525696
0.526506
0.0868199
0.0897762
0.0928886
0.0961684
0.0996281
0.103281
0.107141
0.111226
0.115551
0.120136
0.125001
0.13017
0.135665
0.141513
0.147743
0.154386
0.161475
0.169045
0.177134
0.185783
0.195032
0.204925
0.215506
0.22682
0.238919
0.251893
0.266044
0.281694
0.298767
0.317069
0.336506
0.356921
0.378038
0.399443
0.420578
0.440775
0.459325
0.475595
0.489151
0.499843
0.507823
0.513481
0.517331
0.519897
0.521635
0.522888
0.523888
0.524771
0.525605
0.526419
0.0863601
0.0892997
0.0923945
0.0956559
0.099096
0.102728
0.106567
0.110629
0.11493
0.11949
0.124329
0.12947
0.134936
0.140754
0.146952
0.153562
0.160616
0.16815
0.176202
0.184812
0.194023
0.203877
0.214418
0.225694
0.237754
0.250688
0.264776
0.280343
0.297354
0.315621
0.335042
0.355461
0.376611
0.398082
0.419321
0.439656
0.45837
0.474817
0.488546
0.499392
0.507497
0.513246
0.517156
0.51976
0.52152
0.522785
0.523792
0.52468
0.525518
0.526335
0.0859384
0.0888626
0.0919413
0.0951857
0.098608
0.102222
0.106041
0.110082
0.114361
0.118898
0.123713
0.128828
0.134267
0.140057
0.146226
0.152805
0.159827
0.167328
0.175346
0.183922
0.193096
0.202914
0.213419
0.224659
0.236684
0.24958
0.263611
0.279101
0.296053
0.314288
0.333692
0.354114
0.375293
0.396823
0.418156
0.438616
0.457481
0.474092
0.487982
0.498971
0.507192
0.513026
0.516994
0.519633
0.521413
0.52269
0.523703
0.524595
0.525437
0.526258
0.0855549
0.0884651
0.0915292
0.0947581
0.0981642
0.101761
0.105562
0.109584
0.113843
0.118359
0.123152
0.128244
0.133659
0.139423
0.145566
0.152117
0.15911
0.166581
0.174567
0.183111
0.192252
0.202037
0.212509
0.223716
0.235708
0.248569
0.262548
0.277968
0.294866
0.313071
0.332458
0.352882
0.374085
0.395669
0.417085
0.43766
0.456662
0.473423
0.487461
0.498583
0.506911
0.512824
0.516845
0.519517
0.521315
0.522603
0.523622
0.524518
0.525363
0.526187
0.0852096
0.0881073
0.0911581
0.0943732
0.0977646
0.101346
0.105131
0.109136
0.113377
0.117874
0.122647
0.127718
0.133111
0.138852
0.144971
0.151497
0.158463
0.165907
0.173866
0.18238
0.191492
0.201246
0.211689
0.222865
0.234828
0.247657
0.261588
0.276945
0.293794
0.311971
0.331343
0.351767
0.372992
0.394623
0.416114
0.43679
0.455917
0.472814
0.486986
0.498228
0.506654
0.51264
0.51671
0.519412
0.521227
0.522524
0.523549
0.524449
0.525297
0.526123
0.0849027
0.0877892
0.0908283
0.094031
0.0974094
0.100977
0.104747
0.108737
0.112963
0.117443
0.122198
0.12725
0.132624
0.138345
0.144441
0.150945
0.157888
0.165308
0.173241
0.181729
0.190815
0.200543
0.210958
0.222108
0.234044
0.246845
0.260733
0.276034
0.292839
0.31099
0.330347
0.350771
0.372014
0.393686
0.415243
0.43601
0.455247
0.472265
0.486558
0.497909
0.506423
0.512474
0.516588
0.519317
0.521148
0.522454
0.523484
0.524387
0.525237
0.526067
0.0846341
0.0875108
0.0905396
0.0937315
0.0970986
0.100654
0.104412
0.108388
0.1126
0.117065
0.121805
0.126841
0.132197
0.1379
0.143978
0.150462
0.157385
0.164783
0.172694
0.18116
0.190222
0.199926
0.210317
0.221444
0.233356
0.246132
0.259983
0.275234
0.292001
0.31013
0.329473
0.349896
0.371155
0.392861
0.414476
0.435322
0.454656
0.471781
0.48618
0.497626
0.506219
0.512328
0.516481
0.519234
0.521079
0.522392
0.523426
0.524332
0.525186
0.526017
0.0844038
0.0872722
0.0902922
0.0934748
0.0968321
0.100377
0.104124
0.108089
0.112289
0.116742
0.121468
0.12649
0.131832
0.137519
0.143581
0.150048
0.156953
0.164333
0.172225
0.180671
0.189713
0.199397
0.209768
0.220874
0.232766
0.24552
0.259338
0.274548
0.291281
0.30939
0.328722
0.349144
0.370415
0.392151
0.413814
0.434728
0.454145
0.471362
0.485852
0.497382
0.506042
0.512202
0.516389
0.519163
0.52102
0.522339
0.523377
0.524286
0.525141
0.525975
0.084212
0.0870734
0.090086
0.0932608
0.09661
0.100147
0.103885
0.10784
0.11203
0.116472
0.121187
0.126198