/*--------------------------------*- C++ -*----------------------------------*\
  =========                 |
  \\      /  F ield         | OpenFOAM: The Open Source CFD Toolbox
   \\    /   O peration     | Website:  https://openfoam.org
    \\  /    A nd           | Version:  7
     \\/     M anipulation  |
\*---------------------------------------------------------------------------*/
FoamFile
{
    version     2.0;
    format      ascii;
    class       volScalarField;
    location    "132000";
    object      strainRate;
}
// * * * * * * * * * * * * * * * * * * * * * * * * * * * * * * * * * * * * * //

dimensions      [0 0 -1 0 0 0 0];

internalField   nonuniform List<scalar> 
4844
(
0.00998691
0.0100448
0.0101082
0.0102209
0.0102793
0.0103432
0.0104124
0.010487
0.0105668
0.0106517
0.0107416
0.0104572
0.010516
0.0105804
0.0106502
0.0107254
0.0108059
0.0108915
0.0109821
0.0110776
0.0111779
0.0112828
0.0106959
0.0107552
0.0108201
0.0108905
0.0109663
0.0110475
0.0111338
0.0112252
0.0113216
0.0114227
0.0115285
0.0116389
0.0117535
0.0118723
0.0119951
0.0121934
0.010937
0.0109968
0.0110623
0.0111333
0.0112098
0.0112916
0.0113788
0.011471
0.0115682
0.0116703
0.0117771
0.0118885
0.0120042
0.0121242
0.0122482
0.0124456
0.0111807
0.0112411
0.0113071
0.0113788
0.011456
0.0115386
0.0116265
0.0117196
0.0118178
0.0119208
0.0120287
0.0121411
0.012258
0.0123791
0.0125044
0.0127011
0.0114881
0.0115547
0.011627
0.011705
0.0117883
0.0118771
0.0119711
0.0120702
0.0121743
0.0122832
0.0123968
0.0125149
0.0126373
0.0127638
0.01296
0.0117379
0.0118052
0.0118782
0.0119569
0.0120411
0.0121308
0.0122257
0.0123258
0.012431
0.012541
0.0126557
0.012775
0.0128987
0.0130266
0.0132224
0.0119908
0.0120587
0.0121325
0.0122119
0.012297
0.0123875
0.0124835
0.0125846
0.0126909
0.012802
0.012918
0.0130386
0.0131636
0.0132929
0.0134884
0.0121841
0.0122468
0.0123154
0.0123899
0.0124702
0.0125561
0.0126476
0.0127445
0.0128468
0.0129542
0.0130665
0.0131838
0.0133057
0.0134321
0.0135628
0.0137582
0.0124427
0.012506
0.0125754
0.0126506
0.0127318
0.0128186
0.0129111
0.0130091
0.0131124
0.013221
0.0133346
0.0134532
0.0135765
0.0137043
0.0138365
0.0140319
0.0127047
0.0127687
0.0128387
0.0129148
0.0129968
0.0130846
0.0131781
0.0132772
0.0133817
0.0134915
0.0136064
0.0137263
0.013851
0.0139803
0.0141141
0.0143096
0.0129702
0.0130348
0.0131056
0.0131826
0.0132655
0.0133543
0.0134488
0.013549
0.0136547
0.0137658
0.0138821
0.0140034
0.0141295
0.0142604
0.0143957
0.0145914
0.0131802
0.0132392
0.0133046
0.0133762
0.013454
0.0135379
0.0136277
0.0137233
0.0138247
0.0139316
0.014044
0.0141617
0.0142845
0.0144122
0.0145446
0.0146816
0.0148776
0.0134524
0.0135121
0.0135782
0.0136507
0.0137294
0.0138142
0.013905
0.0140018
0.0141044
0.0142126
0.0143264
0.0144455
0.0145697
0.014699
0.0148331
0.0149718
0.0151683
0.0136746
0.0137285
0.0137889
0.0138558
0.0139291
0.0140087
0.0140945
0.0141865
0.0142844
0.0143883
0.0144978
0.014613
0.0147335
0.0148594
0.0149903
0.0151261
0.0152665
0.0154635
0.0139541
0.0140086
0.0140698
0.0141375
0.0142116
0.0142922
0.0143791
0.0144721
0.0145713
0.0146764
0.0147874
0.014904
0.0150261
0.0151535
0.0152861
0.0154236
0.0155659
0.0157636
0.0142378
0.014293
0.0143549
0.0144234
0.0144984
0.01458
0.014668
0.0147622
0.0148626
0.0149691
0.0150814
0.0151995
0.0153232
0.0154523
0.0155866
0.015726
0.0158701
0.0160686
0.0145259
0.0145817
0.0146443
0.0147137
0.0147897
0.0148723
0.0149613
0.0150568
0.0151585
0.0152663
0.0153801
0.0154998
0.0156251
0.0157559
0.015892
0.0160332
0.0161793
0.0163787
0.0148184
0.0148749
0.0149383
0.0150086
0.0150855
0.0151692
0.0152594
0.0153561
0.0154591
0.0155684
0.0156837
0.0158049
0.015932
0.0160645
0.0162025
0.0163456
0.0164937
0.016694
0.0151156
0.0151728
0.015237
0.0153082
0.0153862
0.0154709
0.0155623
0.0156603
0.0157647
0.0158754
0.0159923
0.0161152
0.0162439
0.0163783
0.0165182
0.0166633
0.0168135
0.0170149
0.0154176
0.0154756
0.0155406
0.0156127
0.0156917
0.0157776
0.0158702
0.0159695
0.0160753
0.0161875
0.016306
0.0164306
0.0165612
0.0166975
0.0168393
0.0169865
0.0171388
0.0173413
0.0157246
0.0157834
0.0158493
0.0159223
0.0160024
0.0160894
0.0161833
0.016284
0.0163912
0.016505
0.0166252
0.0167515
0.0168839
0.0170222
0.017166
0.0173153
0.0174698
0.0176736
0.0160368
0.0160963
0.0161632
0.0162372
0.0163184
0.0164066
0.0165018
0.0166038
0.0167126
0.016828
0.0169499
0.0170781
0.0172123
0.0173526
0.0174985
0.01765
0.0178067
0.0180119
0.0163544
0.0164147
0.0164825
0.0165575
0.0166398
0.0167293
0.0168258
0.0169293
0.0170397
0.0171567
0.0172803
0.0174104
0.0175466
0.0176889
0.017837
0.0179907
0.0181497
0.0183565
0.0166775
0.0167387
0.0168074
0.0168835
0.016967
0.0170577
0.0171556
0.0172606
0.0173725
0.0174913
0.0176167
0.0177487
0.017887
0.0180314
0.0181817
0.0183377
0.0184991
0.0187075
0.0170064
0.0170684
0.0171381
0.0172153
0.0173
0.017392
0.0174914
0.0175979
0.0177115
0.017832
0.0179593
0.0180932
0.0182336
0.0183802
0.0185328
0.0186912
0.0188551
0.0190651
0.0173412
0.0174042
0.0174749
0.0175532
0.0176391
0.0177325
0.0178333
0.0179414
0.0180567
0.018179
0.0183083
0.0184442
0.0185867
0.0187356
0.0188905
0.0190513
0.0192178
0.0194296
0.0176822
0.0177461
0.0178178
0.0178973
0.0179845
0.0180793
0.0181816
0.0182913
0.0184084
0.0185326
0.0186638
0.0188019
0.0189466
0.0190978
0.0192551
0.0194185
0.0195875
0.0198012
0.0180297
0.0180945
0.0181673
0.0182479
0.0183364
0.0184326
0.0185365
0.0186479
0.0187668
0.0188929
0.0190262
0.0191664
0.0193134
0.0194669
0.0196268
0.0197927
0.0199644
0.0201802
0.018326
0.0183837
0.0184495
0.0185234
0.0186053
0.0186951
0.0187928
0.0188983
0.0190114
0.0191321
0.0192602
0.0193956
0.019538
0.0196874
0.0198434
0.0200058
0.0201744
0.0203489
0.0205668
0.018686
0.0187446
0.0188114
0.0188864
0.0189695
0.0190608
0.01916
0.0192671
0.019382
0.0195046
0.0196348
0.0197723
0.0199171
0.0200688
0.0202274
0.0203925
0.0205638
0.0207411
0.0209612
0.019002
0.019053
0.0191125
0.0191804
0.0192566
0.019341
0.0194337
0.0195345
0.0196433
0.01976
0.0198846
0.0200169
0.0201566
0.0203037
0.020458
0.0206191
0.0207869
0.0209611
0.0211413
0.0213638
0.0193756
0.0194274
0.0194878
0.0195568
0.0196341
0.0197199
0.0198141
0.0199165
0.020027
0.0201457
0.0202723
0.0204067
0.0205487
0.0206983
0.0208551
0.0210189
0.0211895
0.0213666
0.0215499
0.0217747
0.0197567
0.0198094
0.0198707
0.0199408
0.0200194
0.0201066
0.0202022
0.0203063
0.0204187
0.0205392
0.0206679
0.0208045
0.020949
0.021101
0.0212605
0.0214271
0.0216006
0.0217806
0.021967
0.0221944
0.0201456
0.0201992
0.0202615
0.0203327
0.0204126
0.0205012
0.0205984
0.0207042
0.0208184
0.020941
0.0210718
0.0212107
0.0213576
0.0215122
0.0216744
0.0218438
0.0220203
0.0222034
0.0223929
0.022623
0.0205427
0.0205971
0.0206605
0.0207328
0.020814
0.0209041
0.0210029
0.0211104
0.0212265
0.0213512
0.0214842
0.0216255
0.0217749
0.0219321
0.0220971
0.0222695
0.022449
0.0226354
0.0228281
0.0230609
0.0209481
0.0210034
0.0210678
0.0211414
0.0212239
0.0213155
0.021416
0.0215253
0.0216434
0.0217702
0.0219055
0.0220492
0.0222011
0.0223611
0.022529
0.0227044
0.0228871
0.0230767
0.0232728
0.0235085
0.0213622
0.0214184
0.021484
0.0215587
0.0216427
0.0217358
0.021838
0.0219492
0.0220693
0.0221983
0.0223359
0.0224821
0.0226367
0.0227995
0.0229703
0.0231489
0.0233348
0.0235278
0.0237274
0.023966
0.0217853
0.0218425
0.0219091
0.0219852
0.0220706
0.0221653
0.0222692
0.0223824
0.0225046
0.0226358
0.0227758
0.0229246
0.0230819
0.0232476
0.0234215
0.0236032
0.0237925
0.023989
0.0241921
0.0244338
0.0222178
0.0222759
0.0223437
0.0224211
0.0225079
0.0226043
0.0227101
0.0228252
0.0229495
0.023083
0.0232255
0.023377
0.0235371
0.0237058
0.0238828
0.0240679
0.0242606
0.0244607
0.0246675
0.0249123
0.0226599
0.0227191
0.022788
0.0228667
0.0229551
0.0230532
0.0231608
0.0232779
0.0234045
0.0235404
0.0236855
0.0238396
0.0240026
0.0241744
0.0243547
0.0245431
0.0247394
0.0249432
0.0251538
0.0254018
0.023112
0.0231722
0.0232424
0.0233225
0.0234125
0.0235123
0.0236218
0.023741
0.0238699
0.0240082
0.0241559
0.0243129
0.0244789
0.0246538
0.0248374
0.0250294
0.0252294
0.0254369
0.0256514
0.0259027
0.0235745
0.0236358
0.0237072
0.0237888
0.0238803
0.0239819
0.0240935
0.0242149
0.024346
0.0244869
0.0246373
0.0247972
0.0249663
0.0251445
0.0253315
0.0255271
0.0257308
0.0259423
0.0261608
0.0264155
0.0240478
0.0241102
0.0241829
0.0242659
0.0243592
0.0244626
0.0245762
0.0246998
0.0248334
0.0249769
0.0251301
0.0252929
0.0254652
0.0256467
0.0258373
0.0260366
0.0262442
0.0264598
0.0266824
0.0269406
0.0245322
0.0245958
0.0246698
0.0247544
0.0248493
0.0249547
0.0250704
0.0251963
0.0253324
0.0254785
0.0256346
0.0258005
0.025976
0.026161
0.0263552
0.0265583
0.02677
0.0269898
0.0272167
0.0274784
0.0250283
0.025093
0.0251684
0.0252545
0.0253513
0.0254586
0.0255764
0.0257047
0.0258433
0.0259922
0.0261513
0.0263203
0.0264992
0.0266877
0.0268857
0.0270928
0.0273087
0.0275328
0.0277641
0.0280294
0.0255363
0.0256023
0.0256791
0.0257668
0.0258654
0.0259747
0.0260948
0.0262255
0.0263668
0.0265185
0.0266806
0.0268529
0.0270353
0.0272275
0.0274293
0.0276405
0.0278606
0.0280892
0.0283251
0.028594
0.0260569
0.0261241
0.0262024
0.0262917
0.0263922
0.0265036
0.026626
0.0267592
0.0269032
0.0270579
0.0272231
0.0273988
0.0275847
0.0277807
0.0279865
0.0282019
0.0284264
0.0286597
0.0289004
0.0291727
0.0265904
0.0266588
0.0267386
0.0268297
0.0269321
0.0270457
0.0271705
0.0273063
0.0274531
0.0276108
0.0277792
0.0279583
0.028148
0.0283478
0.0285578
0.0287774
0.0290066
0.0292446
0.0294903
0.0297662
0.0271373
0.0272071
0.0272885
0.0273813
0.0274857
0.0276015
0.0277287
0.0278672
0.0280169
0.0281777
0.0283495
0.0285322
0.0287256
0.0289295
0.0291436
0.0293678
0.0296016
0.0298446
0.0300956
0.0303749
0.0276982
0.0277694
0.0278524
0.0279471
0.0280535
0.0281716
0.0283013
0.0284426
0.0285952
0.0287593
0.0289345
0.0291209
0.0293182
0.0295262
0.0297447
0.0299735
0.0302122
0.0304603
0.0307168
0.0310011
0.0282737
0.0283463
0.0284309
0.0285275
0.028636
0.0287565
0.0288888
0.0290329
0.0291886
0.029356
0.0295348
0.0297249
0.0299263
0.0301385
0.0303616
0.030595
0.0308387
0.0310922
0.0313546
0.0316487
0.0288642
0.0289383
0.0290246
0.0291231
0.0292339
0.0293568
0.0294918
0.0296388
0.0297977
0.0299685
0.0301509
0.030345
0.0305505
0.0307671
0.0309948
0.0312332
0.0314821
0.031741
0.0320097
0.0323197
0.0294705
0.029546
0.0296341
0.0297346
0.0298477
0.0299731
0.0301109
0.0302609
0.0304231
0.0305974
0.0307836
0.0309817
0.0311915
0.0314126
0.0316452
0.0318886
0.0321429
0.0324084
0.0326856
0.033013
0.030478
0.030606
0.0307467
0.0308998
0.0310654
0.0312434
0.0314334
0.0316357
0.0318499
0.0320758
0.0323134
0.0325632
0.0328248
0.0330993
0.0333881
0.0337274
0.0317253
0.0319071
0.0321012
0.0323078
0.0325269
0.032759
0.0330035
0.0332622
0.0335336
0.0338182
0.0341177
0.0344628
0.0132224
0.0130266
0.0134884
0.0132929
0.0137582
0.0135628
0.0140319
0.0138365
0.0137043
0.0143096
0.0141141
0.0139803
0.0145914
0.0143957
0.0142604
0.0141295
0.0148776
0.0146816
0.0145446
0.0144122
0.0151683
0.0149718
0.0148331
0.014699
0.0154635
0.0152665
0.0151261
0.0149903
0.0148594
0.0157636
0.0155659
0.0154236
0.0152861
0.0151535
0.0160686
0.0158701
0.015726
0.0155866
0.0154523
0.0163787
0.0161793
0.0160332
0.015892
0.0157559
0.016694
0.0164937
0.0163456
0.0162025
0.0160645
0.0170148
0.0168135
0.0166633
0.0165182
0.0163783
0.0173413
0.0171387
0.0169865
0.0168393
0.0166975
0.0165612
0.0176736
0.0174698
0.0173153
0.017166
0.0170221
0.0168839
0.0180119
0.0178067
0.01765
0.0174985
0.0173526
0.0172123
0.017078
0.0183565
0.0181497
0.0179907
0.017837
0.0176889
0.0175466
0.0174104
0.0172803
0.0187075
0.0184991
0.0183377
0.0181817
0.0180314
0.017887
0.0177487
0.0176167
0.0174913
0.0190651
0.0188551
0.0186912
0.0185328
0.0183802
0.0182336
0.0180932
0.0179593
0.017832
0.0177115
0.0194296
0.0192178
0.0190513
0.0188905
0.0187356
0.0185867
0.0184442
0.0183083
0.018179
0.0180567
0.0198012
0.0195875
0.0194184
0.0192551
0.0190977
0.0189466
0.0188019
0.0186638
0.0185326
0.0184084
0.0201802
0.0199644
0.0197927
0.0196268
0.0194669
0.0193134
0.0191664
0.0190262
0.0188929
0.0187668
0.0205668
0.0203489
0.0201744
0.0200058
0.0198434
0.0196874
0.019538
0.0193956
0.0192602
0.0191321
0.0209612
0.0207411
0.0205638
0.0203925
0.0202274
0.0200688
0.0199171
0.0197723
0.0196348
0.0195046
0.0213638
0.0211413
0.0209611
0.0207869
0.0206191
0.020458
0.0203037
0.0201566
0.0200168
0.0198846
0.0217747
0.0215499
0.0213666
0.0211895
0.0210189
0.0208551
0.0206983
0.0205487
0.0204067
0.0202723
0.0221944
0.021967
0.0217806
0.0216006
0.0214271
0.0212605
0.021101
0.020949
0.0208045
0.0206679
0.022623
0.0223929
0.0222034
0.0220203
0.0218438
0.0216743
0.0215122
0.0213576
0.0212107
0.0210718
0.0230609
0.0228281
0.0226354
0.022449
0.0222695
0.0220971
0.0219321
0.0217748
0.0216255
0.0214842
0.0235085
0.0232728
0.0230767
0.0228871
0.0227044
0.022529
0.0223611
0.0222011
0.0220492
0.0219055
0.023966
0.0237274
0.0235278
0.0233348
0.0231489
0.0229703
0.0227995
0.0226367
0.0224821
0.0223359
0.0132224
0.0134884
0.0137582
0.0140319
0.0143096
0.0145914
0.0148776
0.0151683
0.0154635
0.0157636
0.0160686
0.0163787
0.016694
0.0170148
0.0173413
0.0176736
0.0180119
0.0183565
0.0187075
0.0190651
0.0194296
0.0198012
0.0201802
0.0205668
0.0209612
0.0213638
0.0217747
0.0221944
0.022623
0.0230609
0.0235085
0.023966
0.0130266
0.0132929
0.0135628
0.0138365
0.0141141
0.0143957
0.0146816
0.0149718
0.0152665
0.0155659
0.0158701
0.0161793
0.0164937
0.0168135
0.0171387
0.0174698
0.0178067
0.0181497
0.0184991
0.0188551
0.0192178
0.0195875
0.0199644
0.0203489
0.0207411
0.0211413
0.0215499
0.021967
0.0223929
0.0228281
0.0232728
0.0237274
0.0241921
0.0128987
0.0131636
0.0134321
0.0137043
0.0139803
0.0142604
0.0145446
0.0148331
0.0151261
0.0154236
0.015726
0.0160332
0.0163456
0.0166633
0.0169865
0.0173153
0.01765
0.0179907
0.0183377
0.0186912
0.0190513
0.0194184
0.0197927
0.0201744
0.0205638
0.0209611
0.0213666
0.0217806
0.0222034
0.0226354
0.0230767
0.0235278
0.023989
0.0244607
0.0249432
0.0254369
0.0259423
0.0264598
0.012775
0.0130386
0.0133057
0.0135764
0.013851
0.0141295
0.0144122
0.014699
0.0149903
0.0152861
0.0155866
0.015892
0.0162025
0.0165182
0.0168393
0.017166
0.0174985
0.017837
0.0181817
0.0185328
0.0188905
0.0192551
0.0196268
0.0200058
0.0203925
0.0207869
0.0211895
0.0216006
0.0220203
0.022449
0.0228871
0.0233348
0.0237925
0.0242606
0.0247394
0.0252294
0.0257308
0.0262442
0.0126557
0.012918
0.0131838
0.0134532
0.0137263
0.0140034
0.0142845
0.0145697
0.0148594
0.0151535
0.0154523
0.0157559
0.0160645
0.0163783
0.0166975
0.0170222
0.0173526
0.0176889
0.0180314
0.0183802
0.0187356
0.0190978
0.0194669
0.0198434
0.0202274
0.0206191
0.0210189
0.0214271
0.0218438
0.0222695
0.0227044
0.0231489
0.0236032
0.0240679
0.0245431
0.0250294
0.025527
0.0260365
0.012541
0.012802
0.0130665
0.0133346
0.0136064
0.0138821
0.0141617
0.0144455
0.0147335
0.0150261
0.0153232
0.0156251
0.015932
0.0162439
0.0165612
0.0168839
0.0172123
0.0175466
0.017887
0.0182336
0.0185867
0.0189466
0.0193134
0.0196874
0.0200688
0.020458
0.0208551
0.0212605
0.0216744
0.0220971
0.022529
0.0229703
0.0234215
0.0238828
0.0243547
0.0248374
0.0253315
0.0258372
0.0263552
0.012431
0.0126909
0.0129542
0.013221
0.0134915
0.0137658
0.014044
0.0143264
0.014613
0.014904
0.0151995
0.0154998
0.0158049
0.0161152
0.0164306
0.0167515
0.017078
0.0174104
0.0177487
0.0180932
0.0184442
0.0188019
0.0191664
0.019538
0.0199171
0.0203037
0.0206983
0.021101
0.0215122
0.0219321
0.0223611
0.0227995
0.0232476
0.0237058
0.0241744
0.0246538
0.0251444
0.0256467
0.026161
0.0123258
0.0125846
0.0128468
0.0131124
0.0133817
0.0136547
0.0139316
0.0142126
0.0144978
0.0147874
0.0150814
0.0153801
0.0156837
0.0159923
0.016306
0.0166252
0.0169499
0.0172803
0.0176167
0.0179593
0.0183083
0.0186638
0.0190262
0.0193956
0.0197723
0.0201566
0.0205487
0.020949
0.0213576
0.0217748
0.0222011
0.0226367
0.0230819
0.0235371
0.0240026
0.0244789
0.0249663
0.0254652
0.025976
0.0122257
0.0124835
0.0127445
0.0130091
0.0132772
0.013549
0.0138247
0.0141044
0.0143883
0.0146764
0.014969
0.0152663
0.0155684
0.0158754
0.0161875
0.016505
0.016828
0.0171567
0.0174913
0.017832
0.018179
0.0185326
0.0188929
0.0192602
0.0196348
0.0200168
0.0204067
0.0208045
0.0212107
0.0216255
0.0220492
0.0224821
0.0229246
0.023377
0.0238396
0.0243129
0.0247972
0.0252929
0.0258004
0.0121308
0.0123875
0.0126476
0.0129111
0.0131781
0.0134488
0.0137233
0.0140018
0.0142844
0.0145713
0.0148626
0.0151585
0.0154591
0.0157647
0.0160753
0.0163912
0.0167126
0.0170397
0.0173725
0.0177115
0.0180567
0.0184084
0.0187668
0.0191321
0.0195046
0.0198846
0.0202723
0.0206679
0.0210718
0.0214842
0.0219055
0.0223359
0.0227758
0.0232255
0.0236854
0.0241559
0.0246373
0.0251301
0.0256346
0.0120411
0.012297
0.0125561
0.0128186
0.0130846
0.0133543
0.0136277
0.013905
0.0141865
0.0144721
0.0147622
0.0150568
0.0153561
0.0156603
0.0159695
0.016284
0.0166038
0.0169293
0.0172606
0.0175979
0.0179414
0.0182913
0.0186479
0.0190114
0.019382
0.01976
0.0201457
0.0205392
0.020941
0.0213512
0.0217702
0.0221983
0.0226358
0.023083
0.0235404
0.0240082
0.0244869
0.0249769
0.0254785
0.0122119
0.0124702
0.0127318
0.0129968
0.0132655
0.0135379
0.0138142
0.0140945
0.0143791
0.014668
0.0149613
0.0152594
0.0155623
0.0158702
0.0161833
0.0165018
0.0168258
0.0171556
0.0174914
0.0178333
0.0181816
0.0185365
0.0188983
0.0192671
0.0196433
0.020027
0.0204186
0.0208184
0.0212265
0.0216434
0.0220693
0.0225046
0.0229495
0.0234045
0.0238699
0.024346
0.0248334
0.0253323
0.0123899
0.0126506
0.0129148
0.0131826
0.013454
0.0137294
0.0140087
0.0142922
0.01458
0.0148723
0.0151692
0.0154709
0.0157776
0.0160894
0.0164066
0.0167293
0.0170577
0.017392
0.0177325
0.0180793
0.0184326
0.0187928
0.01916
0.0195345
0.0199165
0.0203063
0.0207042
0.0211104
0.0215253
0.0219492
0.0223824
0.0228252
0.0232779
0.023741
0.0242149
0.0246998
0.0251963
0.0123154
0.0125754
0.0128387
0.0131056
0.0133762
0.0136507
0.0139291
0.0142116
0.0144984
0.0147897
0.0150855
0.0153862
0.0156917
0.0160024
0.0163184
0.0166398
0.016967
0.0173
0.0176391
0.0179845
0.0183364
0.0186951
0.0190608
0.0194337
0.0198141
0.0202022
0.0205984
0.0210029
0.021416
0.021838
0.0222692
0.0227101
0.0231608
0.0236218
0.0240935
0.0245762
0.0250704
0.012506
0.0127687
0.0130348
0.0133046
0.0135782
0.0138558
0.0141375
0.0144234
0.0147137
0.0150086
0.0153082
0.0156127
0.0159223
0.0162372
0.0165575
0.0168835
0.0172153
0.0175532
0.0178973
0.0182479
0.0186053
0.0189695
0.019341
0.0197199
0.0201066
0.0205012
0.0209041
0.0213155
0.0217358
0.0221653
0.0226043
0.0230532
0.0235122
0.0239819
0.0244626
0.0249547
0.0124427
0.0127047
0.0129702
0.0132392
0.0135121
0.0137889
0.0140698
0.0143548
0.0146443
0.0149383
0.015237
0.0155406
0.0158493
0.0161632
0.0164825
0.0168074
0.0171381
0.0174749
0.0178178
0.0181673
0.0185234
0.0188864
0.0192566
0.0196341
0.0200194
0.0204126
0.020814
0.0212239
0.0216427
0.0220706
0.0225079
0.0229551
0.0234125
0.0238803
0.0243592
0.0248493
0.0126469
0.0129117
0.0131802
0.0134524
0.0137285
0.0140086
0.014293
0.0145817
0.0148749
0.0151728
0.0154756
0.0157834
0.0160963
0.0164147
0.0167387
0.0170684
0.0174042
0.0177461
0.0180945
0.0184495
0.0188114
0.0191804
0.0195567
0.0199408
0.0203327
0.0207328
0.0211414
0.0215587
0.0219852
0.0224211
0.0228667
0.0233225
0.0237888
0.0242659
0.0247544
0.0128596
0.0131275
0.0133991
0.0136746
0.0139541
0.0142378
0.0145259
0.0148184
0.0151156
0.0154176
0.0157246
0.0160368
0.0163544
0.0166775
0.0170064
0.0173412
0.0176822
0.0180297
0.0183837
0.0187446
0.0191125
0.0194878
0.0198707
0.0202615
0.0206605
0.0210678
0.021484
0.0219091
0.0223437
0.022788
0.0232424
0.0237072
0.0241829
0.0246698
0.0128139
0.0130813
0.0133524
0.0136274
0.0139063
0.0141895
0.0144769
0.0147688
0.0150654
0.0153667
0.0156731
0.0159846
0.0163014
0.0166238
0.016952
0.017286
0.0176262
0.0179728
0.018326
0.018686
0.019053
0.0194274
0.0198094
0.0201992
0.0205971
0.0210034
0.0214184
0.0218425
0.0222759
0.0227191
0.0231722
0.0236358
0.0241102
0.0245958
0.0127747
0.0130416
0.0133123
0.0135868
0.0138653
0.0141479
0.0144348
0.0147262
0.0150222
0.015323
0.0156288
0.0159397
0.016256
0.0165777
0.0169052
0.0172386
0.0175781
0.017924
0.0182765
0.0186357
0.019002
0.0193756
0.0197567
0.0201456
0.0205427
0.0209481
0.0213622
0.0217853
0.0222178
0.0226599
0.023112
0.0235745
0.0240478
0.0245322
0.0127419
0.0130085
0.0132787
0.0135529
0.013831
0.0141132
0.0143997
0.0146907
0.0149862
0.0152866
0.0155919
0.0159023
0.016218
0.0165393
0.0168662
0.0171991
0.017538
0.0178833
0.0182351
0.0185938
0.0189594
0.0193323
0.0197127
0.020101
0.0204973
0.020902
0.0213153
0.0217376
0.0221693
0.0226105
0.0230618
0.0235234
0.0239958
0.0244792
0.0129819
0.0132519
0.0135257
0.0138035
0.0140854
0.0143716
0.0146622
0.0149574
0.0152574
0.0155623
0.0158723
0.0161877
0.0165085
0.016835
0.0171674
0.0175059
0.0178507
0.018202
0.0185602
0.0189253
0.0192977
0.0196776
0.0200652
0.020461
0.020865
0.0212778
0.0216995
0.0221304
0.022571
0.0230216
0.0234825
0.0239541
0.0244368
0.0129619
0.0132317
0.0135053
0.0137829
0.0140645
0.0143504
0.0146408
0.0149357
0.0152354
0.0155401
0.0158498
0.0161648
0.0164854
0.0168115
0.0171436
0.0174818
0.0178262
0.0181772
0.0185349
0.0188997
0.0192717
0.0196511
0.0200384
0.0204337
0.0208373
0.0212496
0.0216708
0.0221013
0.0225414
0.0229914
0.0234518
0.0239228
0.024405
0.0132183
0.0134917
0.0137691
0.0140506
0.0143364
0.0146265
0.0149213
0.0152208
0.0155253
0.0158348
0.0161496
0.0164699
0.0167959
0.0171277
0.0174657
0.0178099
0.0181606
0.0185181
0.0188826
0.0192543
0.0196335
0.0200205
0.0204155
0.0208188
0.0212308
0.0216517
0.0220818
0.0225216
0.0229713
0.0234313
0.023902
0.0243838
0.0132115
0.0134849
0.0137622
0.0140436
0.0143293
0.0146194
0.0149141
0.0152135
0.0155178
0.0158273
0.016142
0.0164622
0.0167881
0.0171198
0.0174576
0.0178017
0.0181523
0.0185097
0.0188741
0.0192456
0.0196247
0.0200115
0.0204064
0.0208096
0.0212214
0.0216421
0.0220721
0.0225117
0.0229612
0.0234211
0.0238916
0.0243732
0.0134849
0.0137622
0.0140436
0.0143293
0.0146194
0.0149141
0.0152135
0.0155178
0.0158273
0.016142
0.0164622
0.0167881
0.0171198
0.0174576
0.0178017
0.0181523
0.0185097
0.0188741
0.0192456
0.0196247
0.0200115
0.0204064
0.0208096
0.0212214
0.0216421
0.0220721
0.0225117
0.0229612
0.0234211
0.0238916
0.0243732
0.0134917
0.0137691
0.0140506
0.0143364
0.0146265
0.0149213
0.0152208
0.0155253
0.0158348
0.0161496
0.0164699
0.0167959
0.0171277
0.0174657
0.0178099
0.0181606
0.0185181
0.0188826
0.0192543
0.0196335
0.0200205
0.0204155
0.0208188
0.0212308
0.0216517
0.0220818
0.0225216
0.0229713
0.0234313
0.023902
0.0243838
0.0135053
0.0137829
0.0140645
0.0143504
0.0146408
0.0149357
0.0152354
0.0155401
0.0158498
0.0161648
0.0164854
0.0168115
0.0171436
0.0174818
0.0178262
0.0181772
0.0185349
0.0188997
0.0192717
0.0196511
0.0200384
0.0204337
0.0208373
0.0212496
0.0216708
0.0221013
0.0225414
0.0229914
0.0234518
0.0239228
0.024405
0.0135257
0.0138035
0.0140854
0.0143716
0.0146622
0.0149574
0.0152574
0.0155623
0.0158723
0.0161877
0.0165085
0.016835
0.0171674
0.0175059
0.0178507
0.018202
0.0185602
0.0189253
0.0192977
0.0196776
0.0200652
0.020461
0.020865
0.0212778
0.0216995
0.0221304
0.022571
0.0230216
0.0234825
0.0239541
0.0244368
0.0135529
0.013831
0.0141132
0.0143997
0.0146907
0.0149862
0.0152866
0.0155919
0.0159023
0.016218
0.0165393
0.0168662
0.0171991
0.017538
0.0178833
0.0182351
0.0185938
0.0189594
0.0193323
0.0197127
0.020101
0.0204973
0.020902
0.0213153
0.0217376
0.0221693
0.0226105
0.0230618
0.0235234
0.0239958
0.0244792
0.0135868
0.0138653
0.0141479
0.0144348
0.0147262
0.0150222
0.015323
0.0156288
0.0159397
0.016256
0.0165777
0.0169052
0.0172386
0.0175781
0.017924
0.0182765
0.0186357
0.019002
0.0193756
0.0197567
0.0201456
0.0205427
0.0209481
0.0213622
0.0217853
0.0222178
0.0226599
0.023112
0.0235745
0.0240478
0.0245322
0.0136274
0.0139063
0.0141895
0.0144769
0.0147688
0.0150654
0.0153667
0.0156731
0.0159846
0.0163014
0.0166238
0.0169519
0.017286
0.0176262
0.0179728
0.018326
0.018686
0.019053
0.0194274
0.0198094
0.0201992
0.0205971
0.0210034
0.0214184
0.0218425
0.0222759
0.0227191
0.0231722
0.0236358
0.0241102
0.0245958
0.0136746
0.0139541
0.0142378
0.0145259
0.0148184
0.0151156
0.0154176
0.0157246
0.0160368
0.0163544
0.0166775
0.0170064
0.0173412
0.0176822
0.0180296
0.0183837
0.0187445
0.0191125
0.0194878
0.0198707
0.0202615
0.0206605
0.0210678
0.021484
0.0219091
0.0223437
0.022788
0.0232424
0.0237072
0.0241829
0.0246698
0.0137285
0.0140086
0.014293
0.0145817
0.0148749
0.0151728
0.0154756
0.0157833
0.0160963
0.0164147
0.0167387
0.0170684
0.0174042
0.0177461
0.0180945
0.0184495
0.0188114
0.0191804
0.0195567
0.0199408
0.0203327
0.0207328
0.0211414
0.0215587
0.0219852
0.0224211
0.0228667
0.0233225
0.0237888
0.0242659
0.0247544
0.0137889
0.0140698
0.0143548
0.0146443
0.0149383
0.015237
0.0155406
0.0158493
0.0161632
0.0164825
0.0168074
0.0171381
0.0174749
0.0178178
0.0181673
0.0185234
0.0188864
0.0192566
0.0196341
0.0200194
0.0204126
0.020814
0.0212239
0.0216427
0.0220706
0.0225079
0.0229551
0.0234125
0.0238803
0.0243592
0.0248493
0.0138558
0.0141374
0.0144234
0.0147137
0.0150086
0.0153082
0.0156127
0.0159223
0.0162372
0.0165575
0.0168835
0.0172153
0.0175532
0.0178973
0.0182479
0.0186053
0.0189695
0.019341
0.0197199
0.0201066
0.0205012
0.020904
0.0213155
0.0217358
0.0221653
0.0226043
0.0230532
0.0235123
0.0239819
0.0244626
0.0249547
0.0139291
0.0142116
0.0144984
0.0147897
0.0150855
0.0153862
0.0156917
0.0160024
0.0163184
0.0166398
0.016967
0.0173
0.0176391
0.0179845
0.0183364
0.0186951
0.0190608
0.0194337
0.0198141
0.0202022
0.0205984
0.0210029
0.021416
0.021838
0.0222692
0.0227101
0.0231608
0.0236218
0.0240935
0.0245762
0.0250704
0.0140087
0.0142922
0.01458
0.0148723
0.0151692
0.0154709
0.0157776
0.0160894
0.0164066
0.0167293
0.0170577
0.017392
0.0177325
0.0180793
0.0184326
0.0187928
0.01916
0.0195345
0.0199165
0.0203063
0.0207042
0.0211104
0.0215253
0.0219492
0.0223824
0.0228252
0.0232779
0.023741
0.0242149
0.0246998
0.0251963
0.0140945
0.0143791
0.0146679
0.0149613
0.0152594
0.0155623
0.0158702
0.0161833
0.0165018
0.0168258
0.0171556
0.0174914
0.0178333
0.0181816
0.0185365
0.0188983
0.0192671
0.0196433
0.020027
0.0204186
0.0208184
0.0212265
0.0216434
0.0220693
0.0225046
0.0229495
0.0234045
0.0238699
0.024346
0.0248334
0.0253323
0.0141865
0.0144721
0.0147622
0.0150568
0.0153561
0.0156603
0.0159695
0.016284
0.0166038
0.0169293
0.0172606
0.0175979
0.0179414
0.0182913
0.0186479
0.0190114
0.019382
0.01976
0.0201457
0.0205392
0.020941
0.0213512
0.0217702
0.0221983
0.0226358
0.023083
0.0235404
0.0240082
0.0244869
0.0249769
0.0254785
0.0142844
0.0145713
0.0148626
0.0151585
0.0154591
0.0157647
0.0160753
0.0163912
0.0167126
0.0170397
0.0173725
0.0177115
0.0180567
0.0184084
0.0187668
0.0191321
0.0195046
0.0198846
0.0202723
0.0206679
0.0210718
0.0214842
0.0219055
0.0223359
0.0227758
0.0232255
0.0236854
0.0241559
0.0246373
0.0251301
0.0256346
0.0143883
0.0146764
0.014969
0.0152663
0.0155684
0.0158754
0.0161875
0.016505
0.016828
0.0171567
0.0174913
0.017832
0.018179
0.0185326
0.0188929
0.0192602
0.0196348
0.0200168
0.0204067
0.0208045
0.0212107
0.0216255
0.0220492
0.0224821
0.0229246
0.0233769
0.0238396
0.0243129
0.0247972
0.0252929
0.0258004
0.0144978
0.0147874
0.0150814
0.0153801
0.0156837
0.0159923
0.016306
0.0166252
0.0169499
0.0172803
0.0176167
0.0179593
0.0183083
0.0186638
0.0190262
0.0193956
0.0197723
0.0201566
0.0205487
0.020949
0.0213576
0.0217748
0.0222011
0.0226367
0.0230819
0.0235371
0.0240026
0.0244789
0.0249663
0.0254652
0.025976
0.014613
0.014904
0.0151995
0.0154998
0.0158049
0.0161152
0.0164306
0.0167515
0.017078
0.0174104
0.0177487
0.0180932
0.0184442
0.0188019
0.0191664
0.019538
0.0199171
0.0203037
0.0206983
0.021101
0.0215122
0.0219321
0.0223611
0.0227995
0.0232476
0.0237058
0.0241744
0.0246538
0.0251444
0.0256467
0.026161
0.0147335
0.0150261
0.0153232
0.0156251
0.015932
0.0162439
0.0165612
0.0168839
0.0172123
0.0175466
0.017887
0.0182336
0.0185867
0.0189466
0.0193134
0.0196874
0.0200688
0.020458
0.0208551
0.0212605
0.0216744
0.0220971
0.022529
0.0229703
0.0234215
0.0238828
0.0243547
0.0248374
0.0253315
0.0258372
0.0263552
0.0148594
0.0151535
0.0154523
0.0157559
0.0160645
0.0163783
0.0166975
0.0170221
0.0173526
0.0176889
0.0180314
0.0183802
0.0187356
0.0190978
0.0194669
0.0198434
0.0202274
0.0206191
0.0210189
0.0214271
0.0218438
0.0222695
0.0227044
0.0231489
0.0236032
0.0240679
0.0245431
0.0250294
0.0255271
0.0260366
0.0265583
0.0149903
0.0152861
0.0155866
0.015892
0.0162025
0.0165182
0.0168393
0.017166
0.0174985
0.017837
0.0181817
0.0185328
0.0188905
0.0192551
0.0196268
0.0200058
0.0203925
0.0207869
0.0211895
0.0216006
0.0220203
0.022449
0.0228871
0.0233348
0.0237925
0.0242606
0.0247394
0.0252294
0.0257308
0.0262442
0.02677
0.0273087
0.0278606
0.0284264
0.0290066
0.0151261
0.0154236
0.015726
0.0160332
0.0163456
0.0166633
0.0169865
0.0173153
0.01765
0.0179907
0.0183377
0.0186912
0.0190513
0.0194184
0.0197927
0.0201744
0.0205638
0.0209611
0.0213666
0.0217806
0.0222034
0.0226354
0.0230767
0.0235278
0.023989
0.0244607
0.0249432
0.0254369
0.0259423
0.0264598
0.0269898
0.0275328
0.0280892
0.0286597
0.0292446
0.0152665
0.0155659
0.0158701
0.0161793
0.0164937
0.0168135
0.0171387
0.0174698
0.0178067
0.0181497
0.0184991
0.0188551
0.0192178
0.0195875
0.0199644
0.0203489
0.0207411
0.0211413
0.0215499
0.021967
0.0223929
0.0228281
0.0232728
0.0237274
0.0241921
0.0246675
0.0251538
0.0256514
0.0261608
0.0266824
0.0272167
0.0277641
0.0283251
0.0289004
0.0294903
0.0154635
0.0157636
0.0160686
0.0163787
0.016694
0.0170148
0.0173413
0.0176736
0.0180119
0.0183565
0.0187075
0.0190651
0.0194296
0.0198012
0.0201802
0.0205668
0.0209612
0.0213638
0.0217747
0.0221944
0.022623
0.0230609
0.0235085
0.023966
0.0244338
0.0249123
0.0254018
0.0259027
0.0264155
0.0269406
0.0274784
0.0280294
0.028594
0.0291727
0.0297662
0.0154635
0.0157636
0.0160686
0.0163787
0.016694
0.0170148
0.0173413
0.0176736
0.0180119
0.0183565
0.0187075
0.0190651
0.0194296
0.0198012
0.0201802
0.0205668
0.0209612
0.0213638
0.0217747
0.0221944
0.022623
0.0230609
0.0235085
0.023966
0.0244338
0.0249123
0.0254018
0.0259027
0.0264155
0.0269406
0.0274784
0.0280294
0.028594
0.0291727
0.0297662
0.0152665
0.0155659
0.0158701
0.0161793
0.0164937
0.0168135
0.0171387