/*--------------------------------*- C++ -*----------------------------------*\
  =========                 |
  \\      /  F ield         | OpenFOAM: The Open Source CFD Toolbox
   \\    /   O peration     | Website:  https://openfoam.org
    \\  /    A nd           | Version:  7
     \\/     M anipulation  |
\*---------------------------------------------------------------------------*/
FoamFile
{
    version     2.0;
    format      ascii;
    class       volScalarField;
    location    "72000";
    object      p;
}
// * * * * * * * * * * * * * * * * * * * * * * * * * * * * * * * * * * * * * //

dimensions      [0 2 -2 0 0 0 0];

internalField   nonuniform List<scalar> 
4844
(
-3.98333e-18
-4.46427e-17
-4.24234e-17
-3.24554e-17
-4.59648e-17
-4.23518e-17
-4.27599e-17
-4.32805e-17
-4.31096e-17
-4.3476e-17
-4.35683e-17
-4.1311e-17
-4.57305e-17
-4.24972e-17
-4.29532e-17
-4.32129e-17
-4.30098e-17
-4.36295e-17
-4.35684e-17
-4.35572e-17
-4.3526e-17
-4.37268e-17
-4.18811e-17
-4.432e-17
-4.26254e-17
-4.30098e-17
-4.33762e-17
-4.31694e-17
-4.36693e-17
-4.37299e-17
-4.37908e-17
-4.41003e-17
-4.35492e-17
-4.36032e-17
-4.37588e-17
-4.3547e-17
-4.42537e-17
-4.41393e-17
-4.15476e-17
-4.37629e-17
-4.25517e-17
-4.29305e-17
-4.31994e-17
-4.29751e-17
-4.39592e-17
-4.3506e-17
-4.37615e-17
-4.41033e-17
-4.36441e-17
-4.37982e-17
-4.36041e-17
-4.3896e-17
-4.42117e-17
-4.42172e-17
-4.15786e-17
-4.33622e-17
-4.2553e-17
-4.31863e-17
-4.29233e-17
-4.30236e-17
-4.36581e-17
-4.3356e-17
-4.38193e-17
-4.38524e-17
-4.37196e-17
-4.3903e-17
-4.34946e-17
-4.4144e-17
-4.41847e-17
-4.39007e-17
-4.34639e-17
-4.28295e-17
-4.30243e-17
-4.29953e-17
-4.30931e-17
-4.35421e-17
-4.32847e-17
-4.39011e-17
-4.35509e-17
-4.37218e-17
-4.39307e-17
-4.36095e-17
-4.4361e-17
-4.40784e-17
-4.40524e-17
-4.35142e-17
-4.30458e-17
-4.30938e-17
-4.31253e-17
-4.32778e-17
-4.36014e-17
-4.33219e-17
-4.39079e-17
-4.37155e-17
-4.38672e-17
-4.39337e-17
-4.41157e-17
-4.42762e-17
-4.38685e-17
-4.40469e-17
-4.34501e-17
-4.302e-17
-4.30068e-17
-4.3198e-17
-4.33025e-17
-4.36379e-17
-4.3493e-17
-4.40032e-17
-4.36991e-17
-4.3873e-17
-4.38346e-17
-4.40816e-17
-4.41103e-17
-4.36581e-17
-4.42995e-17
-4.29178e-17
-4.34348e-17
-4.29478e-17
-4.30357e-17
-4.32123e-17
-4.32327e-17
-4.36888e-17
-4.38005e-17
-4.39699e-17
-4.37725e-17
-4.39697e-17
-4.38374e-17
-4.36094e-17
-4.37938e-17
-4.39285e-17
-4.42389e-17
-4.32192e-17
-4.3592e-17
-4.31277e-17
-4.31026e-17
-4.34928e-17
-4.33633e-17
-4.35304e-17
-4.40264e-17
-4.35989e-17
-4.38106e-17
-4.38848e-17
-4.37015e-17
-4.36612e-17
-4.37604e-17
-4.38942e-17
-4.39737e-17
-4.31699e-17
-4.35238e-17
-4.31738e-17
-4.32843e-17
-4.35089e-17
-4.34383e-17
-4.37453e-17
-4.37459e-17
-4.36257e-17
-4.37512e-17
-4.38501e-17
-4.38363e-17
-4.39494e-17
-4.376e-17
-4.37451e-17
-4.39883e-17
-4.33044e-17
-4.35247e-17
-4.31119e-17
-4.34748e-17
-4.35061e-17
-4.34151e-17
-4.40259e-17
-4.36998e-17
-4.37459e-17
-4.39183e-17
-4.39632e-17
-4.39343e-17
-4.37158e-17
-4.3852e-17
-4.36655e-17
-4.40511e-17
-4.35857e-17
-4.34184e-17
-4.34735e-17
-4.29597e-17
-4.36296e-17
-4.35549e-17
-4.34157e-17
-4.38413e-17
-4.36008e-17
-4.38829e-17
-4.42229e-17
-4.37888e-17
-4.39574e-17
-4.38137e-17
-4.39556e-17
-4.38844e-17
-4.42305e-17
-4.35901e-17
-4.34668e-17
-4.34112e-17
-4.34105e-17
-4.36758e-17
-4.36288e-17
-4.34929e-17
-4.39112e-17
-4.37607e-17
-4.36887e-17
-4.40273e-17
-4.42256e-17
-4.39146e-17
-4.38024e-17
-4.41574e-17
-4.42109e-17
-4.41527e-17
-4.3803e-17
-4.35589e-17
-4.35296e-17
-4.34967e-17
-4.37901e-17
-4.35739e-17
-4.3713e-17
-4.37769e-17
-4.38359e-17
-4.3913e-17
-4.37789e-17
-4.38064e-17
-4.43752e-17
-4.37101e-17
-4.38731e-17
-4.39907e-17
-4.41641e-17
-4.40124e-17
-4.3729e-17
-4.36561e-17
-4.35502e-17
-4.34318e-17
-4.3979e-17
-4.36275e-17
-4.35296e-17
-4.37168e-17
-4.34124e-17
-4.38952e-17
-4.39182e-17
-4.36227e-17
-4.40111e-17
-4.3769e-17
-4.41145e-17
-4.40494e-17
-4.39934e-17
-4.38288e-17
-4.40599e-17
-4.36921e-17
-4.3529e-17
-4.35229e-17
-4.37124e-17
-4.35972e-17
-4.36634e-17
-4.36506e-17
-4.37795e-17
-4.40506e-17
-4.40817e-17
-4.36494e-17
-4.39199e-17
-4.3511e-17
-4.40824e-17
-4.40041e-17
-4.38529e-17
-4.38705e-17
-4.3926e-17
-4.35226e-17
-4.37515e-17
-4.37669e-17
-4.35272e-17
-4.37086e-17
-4.38062e-17
-4.38858e-17
-4.41434e-17
-4.40399e-17
-4.40278e-17
-4.36012e-17
-4.40878e-17
-4.37935e-17
-4.39731e-17
-4.37519e-17
-4.41487e-17
-4.41515e-17
-4.38923e-17
-4.36259e-17
-4.38025e-17
-4.40982e-17
-4.38531e-17
-4.3982e-17
-4.37527e-17
-4.40012e-17
-4.41039e-17
-4.4018e-17
-4.38648e-17
-4.37029e-17
-4.41738e-17
-4.3946e-17
-4.40517e-17
-4.3899e-17
-4.44221e-17
-4.41203e-17
-4.39315e-17
-4.39386e-17
-4.39093e-17
-4.37681e-17
-4.36701e-17
-4.38363e-17
-4.37101e-17
-4.39693e-17
-4.403e-17
-4.39082e-17
-4.38207e-17
-4.38819e-17
-4.42367e-17
-4.41456e-17
-4.40733e-17
-4.38833e-17
-4.42405e-17
-4.40827e-17
-4.41364e-17
-4.39934e-17
-4.40873e-17
-4.37839e-17
-4.36024e-17
-4.38438e-17
-4.35529e-17
-4.39952e-17
-4.38527e-17
-4.37983e-17
-4.39087e-17
-4.39492e-17
-4.43239e-17
-4.40224e-17
-4.40577e-17
-4.39516e-17
-4.41052e-17
-4.40514e-17
-4.43013e-17
-4.39881e-17
-4.40721e-17
-4.41452e-17
-4.3773e-17
-4.39754e-17
-4.39552e-17
-4.40329e-17
-4.38964e-17
-4.39293e-17
-4.39329e-17
-4.40977e-17
-4.4154e-17
-4.40695e-17
-4.42033e-17
-4.40831e-17
-4.40097e-17
-4.40812e-17
-4.41961e-17
-4.40676e-17
-4.42135e-17
-4.42686e-17
-4.37513e-17
-4.41e-17
-4.42545e-17
-4.3883e-17
-4.39516e-17
-4.41312e-17
-4.39821e-17
-4.40839e-17
-4.42004e-17
-4.40939e-17
-4.41154e-17
-4.41461e-17
-4.41103e-17
-4.41176e-17
-4.42016e-17
-4.4196e-17
-4.42491e-17
-4.42285e-17
-4.40626e-17
-4.42265e-17
-4.40325e-17
-4.40137e-17
-4.40458e-17
-4.41624e-17
-4.41464e-17
-4.40228e-17
-4.40387e-17
-4.40383e-17
-4.40892e-17
-4.41121e-17
-4.42028e-17
-4.41118e-17
-4.40149e-17
-4.41503e-17
-4.41457e-17
-4.41448e-17
-4.42594e-17
-4.41747e-17
-4.3929e-17
-4.40829e-17
-4.40948e-17
-4.40498e-17
-4.41478e-17
-4.39785e-17
-4.40337e-17
-4.40839e-17
-4.41145e-17
-4.41019e-17
-4.41767e-17
-4.41301e-17
-4.40541e-17
-4.41527e-17
-4.41262e-17
-4.40908e-17
-4.42263e-17
-4.41812e-17
-4.4065e-17
-4.41875e-17
-4.41647e-17
-4.41474e-17
-4.41285e-17
-4.40807e-17
-4.41117e-17
-4.41399e-17
-4.41337e-17
-4.41298e-17
-4.41378e-17
-4.41305e-17
-4.42122e-17
-4.4194e-17
-4.41026e-17
-4.40959e-17
-4.41284e-17
-4.41236e-17
-4.40867e-17
-4.4128e-17
-4.41527e-17
-4.41282e-17
-4.41109e-17
-4.41057e-17
-4.41173e-17
-4.41378e-17
-4.41257e-17
-4.41296e-17
-4.41332e-17
-4.41333e-17
-4.41845e-17
-4.41445e-17
-4.41546e-17
-4.413e-17
-4.40838e-17
-4.41418e-17
-4.41229e-17
-4.4101e-17
-4.40938e-17
-4.41232e-17
-4.41051e-17
-4.40977e-17
-4.41083e-17
-4.4108e-17
-4.41204e-17
-4.41216e-17
-4.41408e-17
-4.41347e-17
-4.41819e-17
-4.41698e-17
-4.41399e-17
-4.41465e-17
-4.40971e-17
-4.41146e-17
-4.4134e-17
-4.41276e-17
-4.41013e-17
-4.40979e-17
-4.41094e-17
-4.40912e-17
-4.41211e-17
-4.41056e-17
-4.41198e-17
-4.41261e-17
-4.41481e-17
-4.4143e-17
-4.41869e-17
-4.41538e-17
-4.4176e-17
-4.4165e-17
-4.41595e-17
-4.41186e-17
-4.41022e-17
-4.41295e-17
-4.4113e-17
-4.41091e-17
-4.40933e-17
-4.41176e-17
-4.40994e-17
-4.41241e-17
-4.41096e-17
-4.41272e-17
-4.41222e-17
-4.41415e-17
-4.41476e-17
-4.41699e-17
-4.41582e-17
-4.41728e-17
-4.41594e-17
-4.41503e-17
-4.41349e-17
-4.41074e-17
-4.41246e-17
-4.41021e-17
-4.41071e-17
-4.41009e-17
-4.41162e-17
-4.41056e-17
-4.41187e-17
-4.41123e-17
-4.41303e-17
-4.41271e-17
-4.41368e-17
-4.41459e-17
-4.41573e-17
-4.417e-17
-4.41684e-17
-4.41713e-17
-4.41541e-17
-4.4148e-17
-4.4135e-17
-4.41193e-17
-4.41203e-17
-4.41077e-17
-4.41069e-17
-4.41013e-17
-4.4117e-17
-4.41033e-17
-4.41215e-17
-4.41116e-17
-4.41306e-17
-4.41254e-17
-4.41406e-17
-4.41449e-17
-4.41675e-17
-4.41668e-17
-4.41695e-17
-4.41681e-17
-4.41534e-17
-4.4151e-17
-4.41304e-17
-4.4118e-17
-4.41227e-17
-4.41127e-17
-4.41082e-17
-4.4102e-17
-4.41142e-17
-4.41046e-17
-4.41229e-17
-4.41169e-17
-4.41342e-17
-4.41195e-17
-4.41508e-17
-4.41499e-17
-4.41751e-17
-4.41697e-17
-4.41731e-17
-4.41704e-17
-4.4157e-17
-4.41522e-17
-4.41327e-17
-4.41173e-17
-4.41281e-17
-4.41115e-17
-4.41142e-17
-4.41032e-17
-4.41122e-17
-4.41025e-17
-4.41253e-17
-4.41225e-17
-4.41389e-17
-4.41295e-17
-4.41549e-17
-4.41527e-17
-4.41709e-17
-4.41758e-17
-4.41699e-17
-4.41707e-17
-4.41556e-17
-4.41491e-17
-4.41325e-17
-4.41132e-17
-4.41274e-17
-4.41108e-17
-4.41159e-17
-4.41059e-17
-4.41155e-17
-4.41098e-17
-4.41297e-17
-4.41158e-17
-4.41387e-17
-4.41382e-17
-4.41461e-17
-4.41536e-17
-4.41737e-17
-4.41799e-17
-4.41734e-17
-4.41751e-17
-4.41549e-17
-4.41454e-17
-4.41347e-17
-4.41138e-17
-4.41336e-17
-4.41116e-17
-4.4117e-17
-4.41078e-17
-4.4117e-17
-4.41103e-17
-4.41317e-17
-4.41215e-17
-4.41394e-17
-4.41328e-17
-4.41509e-17
-4.41551e-17
-4.41763e-17
-4.41844e-17
-4.41755e-17
-4.41722e-17
-4.4155e-17
-4.41463e-17
-4.41372e-17
-4.41233e-17
-4.41309e-17
-4.41137e-17
-4.41141e-17
-4.41125e-17
-4.41213e-17
-4.41064e-17
-4.41304e-17
-4.41262e-17
-4.41341e-17
-4.41247e-17
-4.41507e-17
-4.41603e-17
-4.41798e-17
-4.41826e-17
-4.41785e-17
-4.41766e-17
-4.41571e-17
-4.41495e-17
-4.41388e-17
-4.41284e-17
-4.41313e-17
-4.41174e-17
-4.41191e-17
-4.41157e-17
-4.41241e-17
-4.41112e-17
-4.4131e-17
-4.41216e-17
-4.41436e-17
-4.41274e-17
-4.41489e-17
-4.41524e-17
-4.41799e-17
-4.41833e-17
-4.41814e-17
-4.4176e-17
-4.41533e-17
-4.41505e-17
-4.4137e-17
-4.41243e-17
-4.4129e-17
-4.41162e-17
-4.4122e-17
-4.41119e-17
-4.41209e-17
-4.41171e-17
-4.41282e-17
-4.41259e-17
-4.41445e-17
-4.41375e-17
-4.41486e-17
-4.41596e-17
-4.41823e-17
-4.41798e-17
-4.41789e-17
-4.41748e-17
-4.41586e-17
-4.41497e-17
-4.41373e-17
-4.4124e-17
-4.41251e-17
-4.41209e-17
-4.41221e-17
-4.41129e-17
-4.41225e-17
-4.4115e-17
-4.41343e-17
-4.41263e-17
-4.41409e-17
-4.41396e-17
-4.41566e-17
-4.41631e-17
-4.41806e-17
-4.41838e-17
-4.41798e-17
-4.41773e-17
-4.41605e-17
-4.41511e-17
-4.41388e-17
-4.41286e-17
-4.4131e-17
-4.41243e-17
-4.41224e-17
-4.41155e-17
-4.41267e-17
-4.41122e-17
-4.41317e-17
-4.4125e-17
-4.4143e-17
-4.4135e-17
-4.41567e-17
-4.41698e-17
-4.41791e-17
-4.41848e-17
-4.41785e-17
-4.41739e-17
-4.416e-17
-4.41568e-17
-4.41391e-17
-4.41317e-17
-4.41318e-17
-4.41274e-17
-4.41229e-17
-4.41154e-17
-4.41263e-17
-4.41176e-17
-4.41329e-17
-4.41261e-17
-4.41447e-17
-4.41387e-17
-4.4158e-17
-4.41659e-17
-4.41808e-17
-4.41831e-17
-4.41813e-17
-4.41708e-17
-4.41623e-17
-4.41555e-17
-4.41422e-17
-4.41345e-17
-4.41318e-17
-4.41255e-17
-4.41245e-17
-4.41199e-17
-4.41306e-17
-4.41173e-17
-4.41347e-17
-4.41295e-17
-4.4145e-17
-4.41413e-17
-4.4161e-17
-4.41668e-17
-4.41817e-17
-4.41835e-17
-4.41833e-17
-4.41728e-17
-4.41635e-17
-4.41545e-17
-4.41441e-17
-4.41341e-17
-4.41328e-17
-4.41264e-17
-4.41232e-17
-4.4119e-17
-4.41294e-17
-4.41211e-17
-4.41409e-17
-4.41322e-17
-4.41488e-17
-4.41456e-17
-4.41614e-17
-4.41715e-17
-4.41809e-17
-4.41851e-17
-4.41856e-17
-4.41717e-17
-4.41647e-17
-4.41515e-17
-4.4145e-17
-4.41335e-17
-4.4134e-17
-4.41262e-17
-4.41259e-17
-4.41206e-17
-4.41297e-17
-4.41232e-17
-4.41409e-17
-4.41338e-17
-4.41486e-17
-4.4146e-17
-4.41662e-17
-4.41712e-17
-4.41802e-17
-4.41876e-17
-4.41852e-17
-4.41744e-17
-4.41651e-17
-4.41563e-17
-4.41469e-17
-4.41384e-17
-4.41363e-17
-4.41278e-17
-4.41296e-17
-4.41237e-17
-4.41275e-17
-4.41247e-17
-4.41368e-17
-4.41307e-17
-4.41522e-17
-4.41506e-17
-4.41647e-17
-4.41743e-17
-4.41817e-17
-4.41885e-17
-4.4187e-17
-4.41741e-17
-4.41644e-17
-4.4159e-17
-4.41469e-17
-4.41393e-17
-4.41368e-17
-4.41301e-17
-4.41353e-17
-4.41237e-17
-4.41297e-17
-4.41254e-17
-4.4142e-17
-4.41339e-17
-4.4153e-17
-4.41521e-17
-4.41716e-17
-4.41816e-17
-4.41815e-17
-4.41866e-17
-4.41872e-17
-4.417e-17
-4.41665e-17
-4.41609e-17
-4.41468e-17
-4.41392e-17
-4.41374e-17
-4.41329e-17
-4.41361e-17
-4.4121e-17
-4.41358e-17
-4.41237e-17
-4.41377e-17
-4.41373e-17
-4.41551e-17
-4.41499e-17
-4.41732e-17
-4.4178e-17
-4.41806e-17
-4.41849e-17
-4.41859e-17
-4.41731e-17
-4.41659e-17
-4.4162e-17
-4.41484e-17
-4.41407e-17
-4.41363e-17
-4.41306e-17
-4.41351e-17
-4.41245e-17
-4.4136e-17
-4.41269e-17
-4.41408e-17
-4.41327e-17
-4.41585e-17
-4.41542e-17
-4.41725e-17
-4.4179e-17
-4.41828e-17
-4.41861e-17
-4.4184e-17
-4.41741e-17
-4.41633e-17
-4.41615e-17
-4.41498e-17
-4.41399e-17
-4.4136e-17
-4.41343e-17
-4.41349e-17
-4.4123e-17
-4.41388e-17
-4.41308e-17
-4.41448e-17
-4.41363e-17
-4.41572e-17
-4.41536e-17
-4.41755e-17
-4.41805e-17
-4.41809e-17
-4.41864e-17
-4.4185e-17
-4.41752e-17
-4.41624e-17
-4.4159e-17
-4.41512e-17
-4.41421e-17
-4.41358e-17
-4.41348e-17
-4.41393e-17
-4.41284e-17
-4.41382e-17
-4.41317e-17
-4.41466e-17
-4.41452e-17
-4.41612e-17
-4.41548e-17
-4.41826e-17
-4.41801e-17
-4.4182e-17
-4.41869e-17
-4.4184e-17
-4.41768e-17
-4.4167e-17
-4.41589e-17
-4.41521e-17
-4.41393e-17
-4.41367e-17
-4.4133e-17
-4.41409e-17
-4.41294e-17
-4.414e-17
-4.41304e-17
-4.41496e-17
-4.41473e-17
-4.41591e-17
-4.41586e-17
-4.41809e-17
-4.4182e-17
-4.41821e-17
-4.41836e-17
-4.41843e-17
-4.41736e-17
-4.41672e-17
-4.41591e-17
-4.41514e-17
-4.41408e-17
-4.41394e-17
-4.41336e-17
-4.41399e-17
-4.41324e-17
-4.4143e-17
-4.41365e-17
-4.41508e-17
-4.41499e-17
-4.41602e-17
-4.41612e-17
-4.41826e-17
-4.41864e-17
-4.41796e-17
-4.41856e-17
-4.41836e-17
-4.41738e-17
-4.41708e-17
-4.41627e-17
-4.41533e-17
-4.41429e-17
-4.41412e-17
-4.41377e-17
-4.414e-17
-4.41326e-17
-4.41396e-17
-4.41343e-17
-4.41526e-17
-4.41502e-17
-4.4163e-17
-4.41629e-17
-4.41857e-17
-4.41875e-17
-4.41703e-17
-4.41621e-17
-4.41564e-17
-4.4144e-17
-4.41443e-17
-4.41371e-17
-4.41431e-17
-4.41375e-17
-4.4143e-17
-4.41346e-17
-4.41496e-17
-4.41486e-17
-4.41596e-17
-4.41639e-17
-4.41864e-17
-4.41905e-17
-4.41446e-17
-4.41363e-17
-4.41424e-17
-4.41404e-17
-4.41458e-17
-4.41417e-17
-4.41464e-17
-4.41468e-17
-4.41639e-17
-4.41649e-17
-4.41873e-17
-4.4189e-17
-4.4109e-17
-4.41271e-17
-4.38091e-17
-4.41862e-17
-4.39475e-17
-4.41459e-17
-4.40516e-17
-4.44699e-17
-4.36787e-17
-4.41188e-17
-4.46136e-17
-4.37819e-17
-4.40311e-17
-4.43095e-17
-4.35386e-17
-4.39494e-17
-4.40394e-17
-4.41127e-17
-4.39232e-17
-4.42656e-17
-4.42109e-17
-4.39791e-17
-4.37756e-17
-4.42583e-17
-4.42398e-17
-4.38221e-17
-4.38258e-17
-4.41007e-17
-4.399e-17
-4.41093e-17
-4.40898e-17
-4.38661e-17
-4.37619e-17
-4.38938e-17
-4.38662e-17
-4.40023e-17
-4.38536e-17
-4.40661e-17
-4.39962e-17
-4.37087e-17
-4.36605e-17
-4.39228e-17
-4.42702e-17
-4.40808e-17
-4.36494e-17
-4.36848e-17
-4.37624e-17
-4.43446e-17
-4.38239e-17
-4.35919e-17
-4.43311e-17
-4.38412e-17
-4.39086e-17
-4.37379e-17
-4.37592e-17
-4.41218e-17
-4.39053e-17
-4.39693e-17
-4.40371e-17
-4.42144e-17
-4.39124e-17
-4.41019e-17
-4.39344e-17
-4.40821e-17
-4.388e-17
-4.40909e-17
-4.38685e-17
-4.40513e-17
-4.3903e-17
-4.40322e-17
-4.3881e-17
-4.4086e-17
-4.37249e-17
-4.39446e-17
-4.39755e-17
-4.3968e-17
-4.40139e-17
-4.39478e-17
-4.40468e-17
-4.39694e-17
-4.39482e-17
-4.39443e-17
-4.39944e-17
-4.39662e-17
-4.4004e-17
-4.40207e-17
-4.39721e-17
-4.40571e-17
-4.39326e-17
-4.38858e-17
-4.39514e-17
-4.39949e-17
-4.39596e-17
-4.39813e-17
-4.39627e-17
-4.39866e-17
-4.40131e-17
-4.39107e-17
-4.38663e-17
-4.39067e-17
-4.39568e-17
-4.3983e-17
-4.39639e-17
-4.39874e-17
-4.39496e-17
-4.39821e-17
-4.39794e-17
-4.39788e-17
-4.39657e-17
-4.39657e-17
-4.39569e-17
-4.3989e-17
-4.39804e-17
-4.39932e-17
-4.3981e-17
-4.39971e-17
-4.39941e-17
-4.39994e-17
-4.39999e-17
-4.39987e-17
-4.39606e-17
-4.39788e-17
-4.3975e-17
-4.39829e-17
-4.39789e-17
-4.39966e-17
-4.40038e-17
-4.39961e-17
-4.4001e-17
-4.40053e-17
-4.39638e-17
-4.39798e-17
-4.39743e-17
-4.39785e-17
-4.39797e-17
-4.3985e-17
-4.40048e-17
-4.40001e-17
-4.40007e-17
-4.39958e-17
-4.39668e-17
-4.39805e-17
-4.39682e-17
-4.39803e-17
-4.39792e-17
-4.39844e-17
-4.39993e-17
-4.39976e-17
-4.39945e-17
-4.39964e-17
-4.39663e-17
-4.39786e-17
-4.39759e-17
-4.3979e-17
-4.39747e-17
-4.39882e-17
-4.40033e-17
-4.39951e-17
-4.39956e-17
-4.39959e-17
-4.3971e-17
-4.39689e-17
-4.39843e-17
-4.39757e-17
-4.39743e-17
-4.39908e-17
-4.39997e-17
-4.39948e-17
-4.39954e-17
-4.3999e-17
-4.39666e-17
-4.39668e-17
-4.39759e-17
-4.39723e-17
-4.39698e-17
-4.39877e-17
-4.39979e-17
-4.39955e-17
-4.39928e-17
-4.39951e-17
-4.39632e-17
-4.39726e-17
-4.39704e-17
-4.39745e-17
-4.39726e-17
-4.39861e-17
-4.39919e-17
-4.39915e-17
-4.39923e-17
-4.39948e-17
-4.39635e-17
-4.39696e-17
-4.39704e-17
-4.39745e-17
-4.3976e-17
-4.39849e-17
-4.39886e-17
-4.39932e-17
-4.39895e-17
-4.39969e-17
-4.3961e-17
-4.39701e-17
-4.39735e-17
-4.39758e-17
-4.39759e-17
-4.39828e-17
-4.39897e-17
-4.39929e-17
-4.39908e-17
-4.3997e-17
-4.39707e-17
-4.39697e-17
-4.39756e-17
-4.39727e-17
-4.39809e-17
-4.39818e-17
-4.39899e-17
-4.3994e-17
-4.39897e-17
-4.39929e-17
-4.40035e-17
-4.43032e-17
-4.4187e-17
-4.411e-17
-4.40934e-17
-4.41022e-17
-4.40431e-17
-4.38465e-17
-4.38448e-17
-4.40059e-17
-4.41085e-17
-4.42863e-17
-4.43219e-17
-4.4362e-17
-4.41948e-17
-4.40243e-17
-4.40485e-17
-4.39834e-17
-4.40017e-17
-4.3995e-17
-4.39884e-17
-4.39886e-17
-4.39827e-17
-4.39797e-17
-4.39769e-17
-4.39751e-17
-4.39692e-17
-4.39734e-17
-4.39766e-17
-4.39759e-17
-4.39778e-17
-4.39697e-17
-4.39523e-17
-4.38752e-17
-4.41361e-17
-4.37047e-17
-4.35096e-17
-4.37643e-17
-4.39362e-17
-4.40282e-17
-4.41962e-17
-4.39929e-17
-4.40728e-17
-4.46631e-17
-4.43086e-17
-4.36511e-17
-4.38143e-17
-4.38197e-17
-4.38899e-17
-4.39698e-17
-4.39516e-17
-4.39547e-17
-4.39604e-17
-4.39571e-17
-4.39648e-17
-4.39636e-17
-4.39638e-17
-4.39666e-17
-4.3976e-17
-4.39764e-17
-4.39702e-17
-4.39736e-17
-4.39735e-17
-4.39744e-17
-4.39731e-17
-4.42052e-17
-4.41365e-17
-4.41455e-17
-4.42105e-17
-4.42331e-17
-4.44378e-17
-4.39908e-17
-4.41234e-17
-4.40567e-17
-4.41428e-17
-4.4128e-17
-4.40498e-17
-4.4152e-17
-4.39383e-17
-4.38742e-17
-4.39137e-17
-4.40246e-17
-4.39877e-17
-4.39842e-17
-4.39914e-17
-4.39864e-17
-4.39692e-17
-4.39738e-17
-4.39714e-17
-4.39779e-17
-4.39732e-17
-4.39665e-17
-4.39746e-17
-4.3979e-17
-4.39781e-17
-4.39743e-17
-4.39739e-17
-4.39798e-17
-4.39766e-17
-4.39729e-17
-4.39746e-17
-4.39751e-17
-4.39775e-17
-4.37306e-17
-4.39161e-17
-4.38196e-17
-4.37984e-17
-4.39597e-17
-4.3857e-17
-4.37426e-17
-4.38033e-17
-4.39796e-17
-4.43277e-17
-4.39636e-17
-4.37236e-17
-4.36109e-17
-4.40305e-17
-4.39619e-17
-4.38679e-17
-4.39383e-17
-4.39337e-17
-4.39419e-17
-4.39677e-17
-4.39651e-17
-4.39627e-17
-4.39687e-17
-4.39715e-17
-4.39693e-17
-4.39702e-17
-4.39728e-17
-4.39754e-17
-4.39731e-17
-4.39728e-17
-4.39712e-17
-4.39736e-17
-4.39749e-17
-4.39707e-17
-4.39716e-17
-4.39713e-17
-4.39729e-17
-4.39767e-17
-4.42205e-17
-4.41073e-17
-4.41652e-17
-4.41238e-17
-4.41301e-17
-4.414e-17
-4.404e-17
-4.40613e-17
-4.41306e-17
-4.4225e-17
-4.40849e-17
-4.39614e-17
-4.41927e-17
-4.42201e-17
-4.38921e-17
-4.4035e-17
-4.40558e-17
-4.39884e-17
-4.39222e-17
-4.39865e-17
-4.40017e-17
-4.39743e-17
-4.39762e-17
-4.39748e-17
-4.39747e-17
-4.39794e-17
-4.39799e-17
-4.39832e-17
-4.39777e-17
-4.39737e-17
-4.39762e-17
-4.39755e-17
-4.39758e-17
-4.39718e-17
-4.39707e-17
-4.39754e-17
-4.3977e-17
-4.39775e-17
-4.40554e-17
-4.40526e-17
-4.40675e-17
-4.4154e-17
-4.44639e-17
-4.44533e-17
-4.40191e-17
-4.40982e-17
-4.37826e-17
-4.40507e-17
-4.41641e-17
-4.41497e-17
-4.40344e-17
-4.37674e-17
-4.38916e-17
-4.39543e-17
-4.3958e-17
-4.39351e-17
-4.39892e-17
-4.39702e-17
-4.39779e-17
-4.39641e-17
-4.39669e-17
-4.39792e-17
-4.3978e-17
-4.39769e-17
-4.39736e-17
-4.39758e-17
-4.39765e-17
-4.39769e-17
-4.39794e-17
-4.39808e-17
-4.39768e-17
-4.39823e-17
-4.39798e-17
-4.39807e-17
-4.39817e-17
-4.39828e-17
-4.39849e-17
-4.43278e-17
-4.4069e-17
-4.41516e-17
-4.42006e-17
-4.41122e-17
-4.42531e-17
-4.44491e-17
-4.41272e-17
-4.40785e-17
-4.40879e-17
-4.43439e-17
-4.41526e-17
-4.41059e-17
-4.40522e-17
-4.39798e-17
-4.41357e-17
-4.42324e-17
-4.39747e-17
-4.38998e-17
-4.39478e-17
-4.3986e-17
-4.39773e-17
-4.3973e-17
-4.39728e-17
-4.39784e-17
-4.3973e-17
-4.39755e-17
-4.39792e-17
-4.39817e-17
-4.3982e-17
-4.39824e-17
-4.39829e-17
-4.39813e-17
-4.39797e-17
-4.39781e-17
-4.39793e-17
-4.39804e-17
-4.39843e-17
-4.39842e-17
-4.42708e-17
-4.43717e-17
-4.45981e-17
-4.41466e-17
-4.42239e-17
-4.41466e-17
-4.37619e-17
-4.3919e-17
-4.41785e-17
-4.39781e-17
-4.40325e-17
-4.40707e-17
-4.38913e-17
-4.39358e-17
-4.35661e-17
-4.38626e-17
-4.38925e-17
-4.39929e-17
-4.4025e-17
-4.40514e-17
-4.39909e-17
-4.39749e-17
-4.39803e-17
-4.39771e-17
-4.3978e-17
-4.398e-17
-4.39798e-17
-4.39796e-17
-4.39841e-17
-4.39828e-17
-4.39838e-17
-4.39827e-17
-4.39827e-17
-4.39826e-17
-4.39836e-17
-4.39817e-17
-4.3985e-17
-4.39855e-17
-4.39852e-17
-4.39203e-17
-4.4087e-17
-4.42361e-17
-4.4084e-17
-4.42468e-17
-4.46101e-17
-4.41686e-17
-4.40225e-17
-4.39927e-17
-4.40215e-17
-4.42198e-17
-4.44016e-17
-4.44689e-17
-4.42249e-17
-4.4091e-17
-4.39633e-17
-4.39497e-17
-4.40711e-17
-4.40751e-17
-4.40812e-17
-4.40117e-17
-4.39849e-17
-4.39747e-17
-4.39749e-17
-4.39818e-17
-4.3981e-17
-4.39812e-17
-4.39835e-17
-4.39835e-17
-4.39856e-17
-4.39821e-17
-4.3982e-17
-4.39829e-17
-4.39857e-17
-4.39832e-17
-4.39797e-17
-4.3981e-17
-4.3981e-17
-4.39837e-17
-4.4275e-17
-4.44202e-17
-4.43161e-17
-4.42464e-17
-4.42305e-17
-4.42171e-17
-4.41882e-17
-4.41141e-17
-4.39302e-17
-4.38626e-17
-4.40539e-17
-4.4119e-17
-4.39234e-17
-4.38169e-17
-4.41434e-17
-4.41205e-17
-4.39621e-17
-4.39634e-17
-4.40196e-17
-4.41044e-17
-4.40228e-17
-4.39824e-17
-4.39837e-17
-4.39926e-17
-4.39904e-17
-4.399e-17
-4.39865e-17
-4.39892e-17
-4.39874e-17
-4.39834e-17
-4.39824e-17
-4.39868e-17
-4.39869e-17
-4.39872e-17
-4.39875e-17
-4.39879e-17
-4.39884e-17
-4.39852e-17
-4.39869e-17
-4.41887e-17
-4.41386e-17
-4.40563e-17
-4.4305e-17
-4.42661e-17
-4.42355e-17
-4.41703e-17
-4.42175e-17
-4.42663e-17
-4.43423e-17
-4.42162e-17
-4.4068e-17
-4.40408e-17
-4.40609e-17
-4.39485e-17
-4.40452e-17
-4.41432e-17
-4.40454e-17
-4.40312e-17
-4.41473e-17
-4.40416e-17
-4.39813e-17
-4.39895e-17
-4.39985e-17
-4.39897e-17
-4.39842e-17
-4.39878e-17
-4.39885e-17
-4.39898e-17
-4.39933e-17
-4.39879e-17
-4.3988e-17
-4.39858e-17
-4.39867e-17
-4.39877e-17
-4.39896e-17
-4.39884e-17
-4.39882e-17
-4.39861e-17
-4.43742e-17
-4.43224e-17
-4.42895e-17
-4.42369e-17
-4.4152e-17
-4.43211e-17
-4.42785e-17
-4.42407e-17
-4.43563e-17
-4.46506e-17
-4.45227e-17
-4.41485e-17
-4.39849e-17
-4.37028e-17
-4.38667e-17
-4.38138e-17
-4.40617e-17
-4.4109e-17
-4.40753e-17
-4.40369e-17
-4.40219e-17
-4.40022e-17
-4.39987e-17
-4.4004e-17
-4.39956e-17
-4.40014e-17
-4.40008e-17
-4.39964e-17
-4.39962e-17
-4.39979e-17
-4.39934e-17
-4.39883e-17
-4.39858e-17
-4.39908e-17
-4.39897e-17
-4.39896e-17
-4.39897e-17
-4.39889e-17
-4.44144e-17
-4.42849e-17
-4.43047e-17
-4.43865e-17
-4.42158e-17
-4.40573e-17
-4.41402e-17
-4.42935e-17
-4.41154e-17
-4.40449e-17
-4.40846e-17
-4.39769e-17
-4.42137e-17
-4.39814e-17
-4.39564e-17
-4.38564e-17
-4.39704e-17
-4.41634e-17
-4.40466e-17
-4.40075e-17
-4.39918e-17
-4.39813e-17
-4.39845e-17
-4.39935e-17
-4.39905e-17
-4.39914e-17
-4.39854e-17
-4.39785e-17
-4.39884e-17
-4.39874e-17
-4.39814e-17
-4.39822e-17
-4.39877e-17
-4.39875e-17
-4.3986e-17
-4.39881e-17
-4.39879e-17
-4.41472e-17
-4.41371e-17
-4.41615e-17
-4.42904e-17
-4.42612e-17
-4.42342e-17
-4.42139e-17
-4.41977e-17
-4.41313e-17
-4.41034e-17
-4.4183e-17
-4.41311e-17
-4.40282e-17
-4.40108e-17
-4.39912e-17
-4.41728e-17
-4.42931e-17
-4.40889e-17
-4.40155e-17
-4.40131e-17
-4.40205e-17
-4.40057e-17
-4.40065e-17
-4.40095e-17
-4.40047e-17
-4.4008e-17
-4.40051e-17
-4.40031e-17
-4.39997e-17
-4.4e-17
-4.39996e-17
-4.40008e-17
-4.39985e-17
-4.39956e-17
-4.39963e-17
-4.39984e-17
-4.39969e-17
-4.40937e-17
-4.40754e-17
-4.42207e-17
-4.42721e-17
-4.40914e-17
-4.42519e-17
-4.42115e-17
-4.41721e-17
-4.41689e-17
-4.42818e-17
-4.40898e-17
-4.39007e-17
-4.40411e-17
-4.4214e-17
-4.41411e-17
-4.40156e-17
-4.38978e-17
-4.39384e-17
-4.39831e-17
-4.40128e-17
-4.40014e-17
-4.4009e-17
-4.40046e-17
-4.40008e-17
-4.39998e-17
-4.40001e-17
-4.40033e-17
-4.40048e-17
-4.40016e-17
-4.39992e-17
-4.39952e-17
-4.39939e-17
-4.39901e-17
-4.39898e-17
-4.3993e-17
-4.39877e-17
-4.42243e-17
-4.41305e-17
-4.42108e-17
-4.426e-17
-4.41525e-17
-4.41895e-17
-4.42184e-17
-4.40132e-17
-4.41261e-17
-4.40791e-17
-4.39753e-17
-4.41188e-17
-4.42561e-17
-4.41584e-17
-4.41853e-17
-4.42094e-17
-4.41063e-17
-4.40412e-17
-4.39812e-17
-4.39749e-17
-4.40129e-17
-4.40189e-17
-4.40201e-17
-4.40184e-17
-4.4019e-17
-4.40137e-17
-4.40162e-17
-4.40151e-17
-4.40147e-17
-4.40153e-17
-4.40092e-17
-4.40049e-17
-4.40054e-17
-4.40044e-17
-4.4005e-17
-4.40051e-17
-4.402e-17
-4.40613e-17
-4.43137e-17
-4.42571e-17
-4.42435e-17
-4.40466e-17
-4.40608e-17
-4.39671e-17
-4.40445e-17
-4.40637e-17
-4.41019e-17
-4.40294e-17
-4.38751e-17
-4.38543e-17
-4.39668e-17
-4.39426e-17
-4.40537e-17
-4.40176e-17
-4.39636e-17
-4.40003e-17
-4.4013e-17
-4.4016e-17
-4.4011e-17
-4.40074e-17
-4.40054e-17
-4.4006e-17
-4.40012e-17
-4.40022e-17
-4.40001e-17
-4.40002e-17
-4.40007e-17
-4.40006e-17
-4.4e-17
-4.3999e-17
-4.39955e-17
-4.41835e-17
-4.42251e-17
-4.43526e-17
-4.42752e-17
-4.43289e-17
-4.41644e-17
-4.4075e-17
-4.39387e-17
-4.38725e-17
-4.40914e-17
-4.43991e-17
-4.43107e-17
-4.41014e-17
-4.40624e-17
-4.40572e-17
-4.39944e-17
-4.4013e-17
-4.40343e-17
-4.40375e-17
-4.4018e-17
-4.40264e-17
-4.40283e-17
-4.40231e-17
-4.40193e-17
-4.40187e-17
-4.40178e-17
-4.40178e-17
-4.40188e-17
-4.40153e-17
-4.40148e-17
-4.40131e-17
-4.4012e-17
-4.40116e-17
-4.40089e-17
-4.41701e-17
-4.43501e-17
-4.43957e-17
-4.42273e-17
-4.42431e-17
-4.43495e-17
-4.42246e-17
-4.43109e-17
-4.45994e-17
-4.44256e-17
-4.41085e-17
-4.42253e-17
-4.40925e-17
-4.39539e-17
-4.40841e-17
-4.40642e-17
-4.40755e-17
-4.40045e-17
-4.40034e-17
-4.40102e-17
-4.40105e-17
-4.40084e-17
-4.401e-17
-4.40093e-17
-4.40104e-17
-4.40077e-17
-4.40056e-17
-4.40084e-17
-4.40029e-17
-4.40022e-17
-4.4003e-17
-4.40022e-17
-4.40011e-17
-4.40016e-17
-4.40882e-17
-4.40886e-17
-4.40413e-17
-4.39662e-17
-4.4043e-17
-4.40613e-17
-4.40466e-17
-4.39809e-17
-4.39066e-17
-4.39677e-17
-4.38667e-17
-4.39313e-17
-4.39003e-17
-4.39035e-17
-4.40099e-17
-4.39565e-17
-4.40121e-17
-4.40242e-17
-4.40278e-17
-4.40317e-17
-4.40242e-17
-4.40208e-17
-4.40211e-17
-4.40167e-17
-4.40132e-17
-4.40126e-17
-4.40137e-17
-4.40157e-17
-4.40153e-17
-4.40106e-17
-4.40088e-17
-4.40086e-17
-4.40037e-17
-4.40022e-17
-4.45695e-17
-4.41476e-17
-4.40097e-17
-4.40946e-17
-4.40597e-17
-4.41901e-17
-4.42677e-17
-4.40685e-17
-4.40627e-17
-4.39817e-17
-4.40922e-17
-4.41351e-17
-4.42225e-17
-4.43912e-17
-4.41003e-17
-4.41067e-17
-4.40638e-17
-4.40507e-17
-4.40005e-17
-4.40021e-17
-4.40055e-17
-4.40039e-17
-4.40002e-17
-4.40025e-17
-4.40018e-17
-4.40004e-17
-4.39974e-17
-4.3996e-17
-4.39939e-17
-4.39941e-17
-4.39969e-17
-4.39982e-17
-4.39981e-17
-4.39991e-17
-4.41456e-17
-4.40543e-17
-4.39401e-17
-4.40436e-17
-4.42208e-17
-4.40459e-17
-4.40605e-17
-4.40602e-17
-4.40417e-17
-4.40202e-17
-4.39692e-17
-4.38402e-17
-4.3839e-17
-4.39658e-17
-4.39865e-17
-4.39433e-17
-4.39918e-17
-4.40086e-17
-4.40103e-17
-4.40144e-17
-4.40105e-17
-4.401e-17
-4.40069e-17
-4.40078e-17
-4.40035e-17
-4.39997e-17
-4.40006e-17
-4.40007e-17
-4.40001e-17
-4.39986e-17
-4.39973e-17
-4.39949e-17
-4.39954e-17
-4.41638e-17
-4.41394e-17
-4.4121e-17
-4.41179e-17
-4.4082e-17
-4.4015e-17
-4.42524e-17
-4.43203e-17
-4.41489e-17
-4.40749e-17
-4.40193e-17
-4.38813e-17
-4.38053e-17
-4.38806e-17
-4.40228e-17
-4.40686e-17
-4.40298e-17
-4.40298e-17
-4.4016e-17
-4.39982e-17
-4.39981e-17
-4.39955e-17
-4.39978e-17
-4.39981e-17
-4.39976e-17
-4.39953e-17
-4.39948e-17
-4.39972e-17
-4.40001e-17
-4.39975e-17
-4.39968e-17
-4.39978e-17
-4.39957e-17
-4.41598e-17
-4.41249e-17
-4.41044e-17
-4.40794e-17
-4.4037e-17
-4.39503e-17
-4.40349e-17
-4.40643e-17
-4.41732e-17
-4.43494e-17
-4.39969e-17
-4.39961e-17
-4.4024e-17
-4.40046e-17
-4.39758e-17
-4.40356e-17
-4.40187e-17
-4.40114e-17
-4.40126e-17
-4.40152e-17
-4.4011e-17
-4.40099e-17
-4.40103e-17
-4.40078e-17
-4.40057e-17
-4.4005e-17
-4.40067e-17
-4.40044e-17
-4.40076e-17
-4.40059e-17
-4.40065e-17
-4.40032e-17
-4.39209e-17
-4.39634e-17
-4.41457e-17
-4.40385e-17
-4.40918e-17
-4.41598e-17
-4.39503e-17
-4.40826e-17
-4.42395e-17
-4.41093e-17
-4.40313e-17
-4.40153e-17
-4.40525e-17
-4.41112e-17
-4.40247e-17
-4.39748e-17
-4.40024e-17
-4.40169e-17
-4.40227e-17
-4.40159e-17
-4.4013e-17
-4.40114e-17
-4.40098e-17
-4.40068e-17
-4.40082e-17
-4.40085e-17
-4.40067e-17
-4.40026e-17
-4.40057e-17
-4.40066e-17
-4.40063e-17
-4.40059e-17
-4.429e-17
-4.40278e-17
-4.40096e-17
-4.39622e-17
-4.41623e-17
-4.41212e-17
-4.40733e-17
-4.40675e-17
-4.40719e-17
-4.41178e-17
-4.41721e-17
-4.41386e-17
-4.41562e-17
-4.40335e-17
-4.39478e-17
-4.40094e-17
-4.40318e-17
-4.40213e-17
-4.40133e-17
-4.40152e-17
-4.40151e-17
-4.4014e-17
-4.4012e-17
-4.40091e-17
-4.40106e-17
-4.40109e-17
-4.40102e-17
-4.40098e-17
-4.40085e-17
-4.40093e-17
-4.40091e-17
-4.41408e-17
-4.41253e-17
-4.40916e-17
-4.40807e-17
-4.40772e-17
-4.40715e-17
-4.40728e-17
-4.4073e-17
-4.40632e-17
-4.40512e-17
-4.40422e-17
-4.39488e-17
-4.38126e-17
-4.40469e-17
-4.4027e-17
-4.40177e-17
-4.40175e-17
-4.40144e-17
-4.40093e-17
-4.40097e-17
-4.40125e-17
-4.40124e-17
-4.40107e-17
-4.40144e-17
-4.40148e-17
-4.40119e-17
-4.40102e-17
-4.40083e-17
-4.40095e-17
-4.40107e-17
-4.4013e-17
-4.40303e-17
-4.39588e-17
-4.41383e-17
-4.40958e-17
-4.40186e-17
-4.39189e-17
-4.40925e-17
-4.42361e-17
-4.40849e-17
-4.39341e-17
-4.40355e-17
-4.40751e-17
-4.40676e-17
-4.40971e-17
-4.40545e-17
-4.40484e-17
-4.40427e-17
-4.40322e-17
-4.4024e-17
-4.40311e-17
-4.40258e-17
-4.40212e-17
-4.40194e-17
-4.40178e-17
-4.40163e-17
-4.40146e-17
-4.40139e-17
-4.40111e-17
-4.40092e-17
-4.40102e-17
-4.4009e-17
-4.42339e-17
-4.41532e-17
-4.42044e-17
-4.42893e-17
-4.42458e-17
-4.44266e-17
-4.45875e-17
-4.42662e-17
-4.40869e-17
-4.39326e-17
-4.39244e-17
-4.4038e-17
-4.39839e-17
-4.39411e-17
-4.40713e-17
-4.40343e-17
-4.40262e-17
-4.40157e-17
-4.40273e-17
-4.40293e-17
-4.40238e-17
-4.40193e-17
-4.40214e-17
-4.40224e-17
-4.40235e-17
-4.40206e-17
-4.40192e-17
-4.40192e-17
-4.40174e-17
-4.40161e-17
-4.40191e-17
-4.38957e-17
-4.39625e-17
-4.41096e-17
-4.42992e-17
-4.39738e-17
-4.40426e-17
-4.42189e-17
-4.40896e-17
-4.40335e-17
-4.4039e-17
-4.40919e-17
-4.41432e-17
-4.40684e-17
-4.40479e-17
-4.40511e-17
-4.40224e-17
-4.40246e-17
-4.40196e-17
-4.40257e-17
-4.40316e-17
-4.4031e-17
-4.40287e-17