/*--------------------------------*- C++ -*----------------------------------*\
  =========                 |
  \\      /  F ield         | OpenFOAM: The Open Source CFD Toolbox
   \\    /   O peration     | Website:  https://openfoam.org
    \\  /    A nd           | Version:  7
     \\/     M anipulation  |
\*---------------------------------------------------------------------------*/
FoamFile
{
    version     2.0;
    format      ascii;
    class       volScalarField;
    location    "88000";
    object      k;
}
// * * * * * * * * * * * * * * * * * * * * * * * * * * * * * * * * * * * * * //

dimensions      [0 2 -2 0 0 0 0];

internalField   nonuniform List<scalar> 
4783
(
1.7824e-07
1.78123e-07
1.78013e-07
1.77909e-07
1.7781e-07
1.77716e-07
1.77627e-07
1.77542e-07
1.77463e-07
1.77388e-07
1.77318e-07
1.77252e-07
1.77191e-07
1.77135e-07
1.77084e-07
1.77037e-07
1.76995e-07
1.76957e-07
1.76924e-07
1.76896e-07
1.76873e-07
1.76854e-07
1.7844e-07
1.78327e-07
1.78218e-07
1.78112e-07
1.78011e-07
1.77915e-07
1.77824e-07
1.77738e-07
1.77656e-07
1.7758e-07
1.77508e-07
1.77441e-07
1.77378e-07
1.77321e-07
1.77268e-07
1.7722e-07
1.77176e-07
1.77138e-07
1.77104e-07
1.77075e-07
1.77051e-07
1.77031e-07
1.78649e-07
1.78535e-07
1.78425e-07
1.78319e-07
1.78217e-07
1.78119e-07
1.78026e-07
1.77938e-07
1.77855e-07
1.77777e-07
1.77703e-07
1.77635e-07
1.77571e-07
1.77512e-07
1.77458e-07
1.77408e-07
1.77364e-07
1.77324e-07
1.7729e-07
1.7726e-07
1.77235e-07
1.77215e-07
1.78865e-07
1.78749e-07
1.78637e-07
1.7853e-07
1.78426e-07
1.78327e-07
1.78233e-07
1.78144e-07
1.78059e-07
1.77979e-07
1.77904e-07
1.77834e-07
1.77769e-07
1.77708e-07
1.77653e-07
1.77602e-07
1.77557e-07
1.77517e-07
1.77481e-07
1.7745e-07
1.77425e-07
1.77404e-07
1.79086e-07
1.78967e-07
1.78854e-07
1.78745e-07
1.7864e-07
1.7854e-07
1.78445e-07
1.78354e-07
1.78267e-07
1.78186e-07
1.7811e-07
1.78038e-07
1.77972e-07
1.7791e-07
1.77853e-07
1.77802e-07
1.77755e-07
1.77714e-07
1.77678e-07
1.77647e-07
1.7762e-07
1.77599e-07
1.79311e-07
1.79191e-07
1.79076e-07
1.78965e-07
1.78859e-07
1.78757e-07
1.7866e-07
1.78568e-07
1.7848e-07
1.78398e-07
1.7832e-07
1.78247e-07
1.78179e-07
1.78117e-07
1.78059e-07
1.78006e-07
1.77959e-07
1.77917e-07
1.7788e-07
1.77848e-07
1.77821e-07
1.778e-07
1.79541e-07
1.79418e-07
1.79302e-07
1.79189e-07
1.79082e-07
1.78979e-07
1.7888e-07
1.78787e-07
1.78698e-07
1.78614e-07
1.78535e-07
1.78461e-07
1.78392e-07
1.78328e-07
1.78269e-07
1.78216e-07
1.78167e-07
1.78124e-07
1.78086e-07
1.78054e-07
1.78027e-07
1.78005e-07
1.79774e-07
1.7965e-07
1.79531e-07
1.79418e-07
1.79308e-07
1.79204e-07
1.79104e-07
1.79009e-07
1.78919e-07
1.78834e-07
1.78753e-07
1.78678e-07
1.78608e-07
1.78543e-07
1.78484e-07
1.78429e-07
1.7838e-07
1.78336e-07
1.78298e-07
1.78265e-07
1.78237e-07
1.78215e-07
1.8001e-07
1.79885e-07
1.79765e-07
1.7965e-07
1.79539e-07
1.79433e-07
1.79332e-07
1.79236e-07
1.79144e-07
1.79058e-07
1.78976e-07
1.789e-07
1.78829e-07
1.78763e-07
1.78702e-07
1.78647e-07
1.78597e-07
1.78553e-07
1.78513e-07
1.7848e-07
1.78452e-07
1.78429e-07
1.8025e-07
1.80123e-07
1.80001e-07
1.79885e-07
1.79773e-07
1.79665e-07
1.79563e-07
1.79466e-07
1.79373e-07
1.79285e-07
1.79203e-07
1.79125e-07
1.79053e-07
1.78986e-07
1.78925e-07
1.78869e-07
1.78818e-07
1.78773e-07
1.78733e-07
1.78699e-07
1.7867e-07
1.78647e-07
1.80492e-07
1.80364e-07
1.80241e-07
1.80123e-07
1.8001e-07
1.79901e-07
1.79798e-07
1.79699e-07
1.79605e-07
1.79516e-07
1.79433e-07
1.79355e-07
1.79281e-07
1.79214e-07
1.79151e-07
1.79094e-07
1.79043e-07
1.78997e-07
1.78957e-07
1.78922e-07
1.78893e-07
1.7887e-07
1.80737e-07
1.80608e-07
1.80484e-07
1.80364e-07
1.8025e-07
1.8014e-07
1.80035e-07
1.79935e-07
1.79841e-07
1.79751e-07
1.79666e-07
1.79587e-07
1.79513e-07
1.79444e-07
1.79381e-07
1.79324e-07
1.79272e-07
1.79225e-07
1.79184e-07
1.79149e-07
1.7912e-07
1.79096e-07
1.80984e-07
1.80854e-07
1.80729e-07
1.80608e-07
1.80493e-07
1.80382e-07
1.80276e-07
1.80175e-07
1.80079e-07
1.79988e-07
1.79903e-07
1.79823e-07
1.79748e-07
1.79678e-07
1.79615e-07
1.79556e-07
1.79503e-07
1.79456e-07
1.79415e-07
1.79379e-07
1.7935e-07
1.79326e-07
1.81234e-07
1.81102e-07
1.80976e-07
1.80855e-07
1.80738e-07
1.80626e-07
1.80519e-07
1.80417e-07
1.8032e-07
1.80229e-07
1.80142e-07
1.80061e-07
1.79986e-07
1.79916e-07
1.79851e-07
1.79792e-07
1.79739e-07
1.79691e-07
1.79649e-07
1.79613e-07
1.79583e-07
1.79559e-07
1.81485e-07
1.81353e-07
1.81226e-07
1.81103e-07
1.80986e-07
1.80873e-07
1.80765e-07
1.80662e-07
1.80564e-07
1.80472e-07
1.80385e-07
1.80303e-07
1.80226e-07
1.80156e-07
1.8009e-07
1.80031e-07
1.79977e-07
1.79929e-07
1.79886e-07
1.7985e-07
1.81739e-07
1.81606e-07
1.81478e-07
1.81354e-07
1.81236e-07
1.81122e-07
1.81013e-07
1.8091e-07
1.80811e-07
1.80718e-07
1.8063e-07
1.80547e-07
1.8047e-07
1.80398e-07
1.80332e-07
1.80272e-07
1.80218e-07
1.80169e-07
1.80127e-07
1.81994e-07
1.8186e-07
1.81731e-07
1.81607e-07
1.81488e-07
1.81373e-07
1.81264e-07
1.81159e-07
1.8106e-07
1.80966e-07
1.80877e-07
1.80794e-07
1.80716e-07
1.80644e-07
1.80577e-07
1.80517e-07
1.80462e-07
1.82251e-07
1.82117e-07
1.81987e-07
1.81862e-07
1.81742e-07
1.81627e-07
1.81516e-07
1.81411e-07
1.81311e-07
1.81216e-07
1.81127e-07
1.81043e-07
1.80964e-07
1.80892e-07
1.82509e-07
1.82374e-07
1.82244e-07
1.82119e-07
1.81998e-07
1.81882e-07
1.81771e-07
1.81665e-07
1.81564e-07
1.81469e-07
1.81378e-07
1.81294e-07
1.82769e-07
1.82634e-07
1.82503e-07
1.82377e-07
1.82255e-07
1.82139e-07
1.82027e-07
1.8192e-07
1.81819e-07
1.81723e-07
1.83031e-07
1.82895e-07
1.82763e-07
1.82637e-07
1.82514e-07
1.82397e-07
1.82285e-07
1.82178e-07
1.82076e-07
1.83293e-07
1.83157e-07
1.83025e-07
1.82898e-07
1.82775e-07
1.82657e-07
1.82544e-07
1.82437e-07
1.83557e-07
1.8342e-07
1.83288e-07
1.8316e-07
1.83037e-07
1.82919e-07
1.82805e-07
1.83821e-07
1.83684e-07
1.83552e-07
1.83423e-07
1.833e-07
1.83181e-07
1.84087e-07
1.83949e-07
1.83816e-07
1.83688e-07
1.83564e-07
1.83445e-07
1.84354e-07
1.84215e-07
1.84082e-07
1.83953e-07
1.83829e-07
1.84629e-07
1.84483e-07
1.84349e-07
1.84219e-07
1.84957e-07
1.84772e-07
1.84621e-07
1.84486e-07
1.85443e-07
1.85154e-07
1.84939e-07
1.8627e-07
1.85769e-07
1.85411e-07
1.87738e-07
1.8686e-07
1.86221e-07
1.90219e-07
1.88781e-07
1.87678e-07
1.94007e-07
1.91888e-07
1.9016e-07
1.9918e-07
1.96379e-07
1.93965e-07
2.05583e-07
2.02202e-07
1.99163e-07
2.12975e-07
2.09132e-07
2.05594e-07
2.21176e-07
2.16955e-07
2.13013e-07
2.30027e-07
2.25509e-07
2.21238e-07
2.39402e-07
2.34647e-07
2.30119e-07
2.49208e-07
2.44256e-07
2.39523e-07
2.59352e-07
2.54253e-07
2.49358e-07
2.69773e-07
2.64562e-07
2.59531e-07
1.7824e-07
1.78441e-07
1.7865e-07
1.78865e-07
1.79086e-07
1.79312e-07
1.79541e-07
1.79774e-07
1.80011e-07
1.8025e-07
1.80493e-07
1.80737e-07
1.80985e-07
1.81234e-07
1.81486e-07
1.81739e-07
1.81995e-07
1.82252e-07
1.8251e-07
1.8277e-07
1.83031e-07
1.83294e-07
1.83558e-07
1.83822e-07
1.84088e-07
1.84355e-07
1.8463e-07
1.84958e-07
1.85443e-07
1.8627e-07
1.87739e-07
1.9022e-07
1.94008e-07
1.99182e-07
2.05586e-07
2.12975e-07
2.21171e-07
2.30023e-07
2.39404e-07
2.49208e-07
2.59358e-07
2.69778e-07
1.78124e-07
1.78328e-07
1.78536e-07
1.7875e-07
1.78969e-07
1.79192e-07
1.7942e-07
1.79652e-07
1.79886e-07
1.80125e-07
1.80366e-07
1.80609e-07
1.80856e-07
1.81104e-07
1.81355e-07
1.81608e-07
1.81862e-07
1.82119e-07
1.82377e-07
1.82636e-07
1.82897e-07
1.83159e-07
1.83422e-07
1.83687e-07
1.83952e-07
1.84218e-07
1.84485e-07
1.84775e-07
1.85157e-07
1.85772e-07
1.86864e-07
1.88785e-07
1.91894e-07
1.96384e-07
2.02207e-07
2.09138e-07
2.16958e-07
2.25506e-07
2.34646e-07
2.44263e-07
2.54261e-07
2.64561e-07
1.78015e-07
1.7822e-07
1.78427e-07
1.78639e-07
1.78856e-07
1.79078e-07
1.79304e-07
1.79534e-07
1.79768e-07
1.80004e-07
1.80244e-07
1.80487e-07
1.80732e-07
1.80979e-07
1.81229e-07
1.81481e-07
1.81735e-07
1.81991e-07
1.82248e-07
1.82507e-07
1.82767e-07
1.83029e-07
1.83292e-07
1.83556e-07
1.83821e-07
1.84087e-07
1.84354e-07
1.84625e-07
1.84944e-07
1.85415e-07
1.86227e-07
1.87685e-07
1.9017e-07
1.93976e-07
1.99176e-07
2.05606e-07
2.13024e-07
2.21245e-07
2.30122e-07
2.3953e-07
2.49362e-07
2.59541e-07
1.77912e-07
1.78115e-07
1.78322e-07
1.78533e-07
1.78748e-07
1.78968e-07
1.79193e-07
1.79421e-07
1.79653e-07
1.79889e-07
1.80127e-07
1.80369e-07
1.80613e-07
1.80859e-07
1.81108e-07
1.81359e-07
1.81612e-07
1.81867e-07
1.82124e-07
1.82382e-07
1.82642e-07
1.82903e-07
1.83166e-07
1.83429e-07
1.83694e-07
1.8396e-07
1.84226e-07
1.84493e-07
1.84781e-07
1.85158e-07
1.85769e-07
1.86865e-07
1.88806e-07
1.91955e-07
1.96502e-07
2.02383e-07
2.09369e-07
2.17238e-07
2.25831e-07
2.3501e-07
2.44663e-07
2.54699e-07
1.77813e-07
1.78015e-07
1.7822e-07
1.7843e-07
1.78644e-07
1.78863e-07
1.79086e-07
1.79313e-07
1.79544e-07
1.79778e-07
1.80015e-07
1.80255e-07
1.80498e-07
1.80744e-07
1.80992e-07
1.81242e-07
1.81494e-07
1.81749e-07
1.82005e-07
1.82262e-07
1.82522e-07
1.82782e-07
1.83044e-07
1.83308e-07
1.83572e-07
1.83837e-07
1.84104e-07
1.84371e-07
1.84643e-07
1.84962e-07
1.85438e-07
1.86265e-07
1.87758e-07
1.90306e-07
1.94199e-07
1.99494e-07
2.06011e-07
2.13507e-07
2.21797e-07
2.30734e-07
2.40195e-07
2.50074e-07
1.7772e-07
1.77919e-07
1.78123e-07
1.78332e-07
1.78545e-07
1.78762e-07
1.78984e-07
1.7921e-07
1.79439e-07
1.79672e-07
1.79908e-07
1.80147e-07
1.80389e-07
1.80633e-07
1.8088e-07
1.8113e-07
1.81381e-07
1.81635e-07
1.8189e-07
1.82147e-07
1.82406e-07
1.82666e-07
1.82928e-07
1.83191e-07
1.83455e-07
1.83719e-07
1.83985e-07
1.84252e-07
1.84519e-07
1.8481e-07
1.85196e-07
1.85829e-07
1.86971e-07
1.88994e-07
1.92261e-07
1.96943e-07
2.02954e-07
2.10049e-07
2.1802e-07
2.26698e-07
2.35954e-07
2.4567e-07
1.77631e-07
1.77829e-07
1.78031e-07
1.78239e-07
1.7845e-07
1.78666e-07
1.78886e-07
1.79111e-07
1.79339e-07
1.7957e-07
1.79805e-07
1.80043e-07
1.80284e-07
1.80527e-07
1.80774e-07
1.81022e-07
1.81273e-07
1.81526e-07
1.8178e-07
1.82037e-07
1.82295e-07
1.82555e-07
1.82816e-07
1.83078e-07
1.83342e-07
1.83607e-07
1.83872e-07
1.84139e-07
1.84406e-07
1.84681e-07
1.8501e-07
1.8551e-07
1.86387e-07
1.87976e-07
1.90669e-07
1.94738e-07
2.00207e-07
2.06877e-07
2.14502e-07
2.22906e-07
2.31941e-07
2.41488e-07
1.77547e-07
1.77743e-07
1.77944e-07
1.7815e-07
1.7836e-07
1.78575e-07
1.78794e-07
1.79017e-07
1.79243e-07
1.79474e-07
1.79707e-07
1.79944e-07
1.80184e-07
1.80427e-07
1.80672e-07
1.8092e-07
1.8117e-07
1.81422e-07
1.81676e-07
1.81932e-07
1.82189e-07
1.82449e-07
1.82709e-07
1.82971e-07
1.83235e-07
1.83499e-07
1.83764e-07
1.84031e-07
1.84298e-07
1.84566e-07
1.84864e-07
1.85273e-07
1.85958e-07
1.872e-07
1.89388e-07
1.9287e-07
1.97781e-07
2.03996e-07
2.11262e-07
2.19375e-07
2.28174e-07
2.37531e-07
1.77469e-07
1.77663e-07
1.77862e-07
1.78066e-07
1.78275e-07
1.78488e-07
1.78706e-07
1.78927e-07
1.79153e-07
1.79382e-07
1.79615e-07
1.7985e-07
1.80089e-07
1.80331e-07
1.80575e-07
1.80822e-07
1.81072e-07
1.81323e-07
1.81576e-07
1.81832e-07
1.82089e-07
1.82347e-07
1.82608e-07
1.82869e-07
1.83132e-07
1.83396e-07
1.83662e-07
1.83928e-07
1.84195e-07
1.84462e-07
1.84742e-07
1.85091e-07
1.85638e-07
1.86614e-07
1.88376e-07
1.91315e-07
1.95664e-07
2.01398e-07
2.08287e-07
2.16093e-07
2.24649e-07
2.3381e-07
1.77394e-07
1.77587e-07
1.77784e-07
1.77987e-07
1.78194e-07
1.78406e-07
1.78623e-07
1.78843e-07
1.79067e-07
1.79296e-07
1.79527e-07
1.79762e-07
1.8e-07
1.80241e-07
1.80484e-07
1.8073e-07
1.80979e-07
1.81229e-07
1.81482e-07
1.81737e-07
1.81993e-07
1.82252e-07
1.82511e-07
1.82773e-07
1.83035e-07
1.83299e-07
1.83564e-07
1.8383e-07
1.84097e-07
1.84366e-07
1.84636e-07
1.84945e-07
1.85397e-07
1.86174e-07
1.8759e-07
1.90044e-07
1.93852e-07
1.99092e-07
2.05587e-07
2.1308e-07
2.21382e-07
2.30343e-07
1.77325e-07
1.77516e-07
1.77712e-07
1.77913e-07
1.78119e-07
1.78329e-07
1.78545e-07
1.78764e-07
1.78987e-07
1.79214e-07
1.79445e-07
1.79678e-07
1.79915e-07
1.80155e-07
1.80398e-07
1.80643e-07
1.80891e-07
1.81141e-07
1.81393e-07
1.81647e-07
1.81903e-07
1.82161e-07
1.82421e-07
1.82681e-07
1.82944e-07
1.83207e-07
1.83472e-07
1.83738e-07
1.84004e-07
1.84272e-07
1.8454e-07
1.8483e-07
1.85214e-07
1.85844e-07
1.86984e-07
1.8902e-07
1.92322e-07
1.97064e-07
2.03147e-07
2.10315e-07
2.18358e-07
2.27111e-07
1.7726e-07
1.77449e-07
1.77644e-07
1.77843e-07
1.78048e-07
1.78258e-07
1.78471e-07
1.7869e-07
1.78912e-07
1.79138e-07
1.79367e-07
1.796e-07
1.79836e-07
1.80075e-07
1.80317e-07
1.80562e-07
1.80809e-07
1.81058e-07
1.8131e-07
1.81563e-07
1.81819e-07
1.82076e-07
1.82335e-07
1.82596e-07
1.82858e-07
1.83121e-07
1.83385e-07
1.83651e-07
1.83917e-07
1.84185e-07
1.84453e-07
1.8473e-07
1.85069e-07
1.85592e-07
1.86521e-07
1.88207e-07
1.9105e-07
1.95307e-07
2.00968e-07
2.0781e-07
2.15587e-07
2.24123e-07
2.33276e-07
1.772e-07
1.77388e-07
1.77581e-07
1.77779e-07
1.77982e-07
1.78191e-07
1.78403e-07
1.7862e-07
1.78842e-07
1.79067e-07
1.79295e-07
1.79527e-07
1.79762e-07
1.80001e-07
1.80242e-07
1.80486e-07
1.80732e-07
1.80981e-07
1.81232e-07
1.81485e-07
1.8174e-07
1.81997e-07
1.82256e-07
1.82516e-07
1.82777e-07
1.8304e-07
1.83304e-07
1.8357e-07
1.83836e-07
1.84104e-07
1.84372e-07
1.84642e-07
1.84951e-07
1.85398e-07
1.86165e-07
1.87567e-07
1.90006e-07
1.93806e-07
1.99046e-07
2.05552e-07
2.1306e-07
2.21382e-07
2.30364e-07
2.39879e-07
1.77145e-07
1.77331e-07
1.77522e-07
1.7772e-07
1.77922e-07
1.78129e-07
1.7834e-07
1.78557e-07
1.78777e-07
1.79001e-07
1.79228e-07
1.7946e-07
1.79694e-07
1.79932e-07
1.80172e-07
1.80415e-07
1.80661e-07
1.80909e-07
1.8116e-07
1.81412e-07
1.81667e-07
1.81923e-07
1.82182e-07
1.82441e-07
1.82703e-07
1.82965e-07
1.83229e-07
1.83494e-07
1.8376e-07
1.84027e-07
1.84295e-07
1.84564e-07
1.84856e-07
1.85248e-07
1.85893e-07
1.87066e-07
1.89158e-07
1.92539e-07
1.9737e-07
2.03536e-07
2.10779e-07
2.1889e-07
2.27705e-07
2.37081e-07
1.77094e-07
1.77279e-07
1.77469e-07
1.77665e-07
1.77866e-07
1.78072e-07
1.78283e-07
1.78498e-07
1.78717e-07
1.7894e-07
1.79167e-07
1.79397e-07
1.79631e-07
1.79868e-07
1.80108e-07
1.8035e-07
1.80596e-07
1.80843e-07
1.81093e-07
1.81345e-07
1.816e-07
1.81856e-07
1.82113e-07
1.82373e-07
1.82634e-07
1.82896e-07
1.8316e-07
1.83425e-07
1.83691e-07
1.83957e-07
1.84225e-07
1.84493e-07
1.84775e-07
1.85127e-07
1.85682e-07
1.86675e-07
1.88476e-07
1.91481e-07
1.95921e-07
2.01753e-07
2.08738e-07
2.16637e-07
2.25276e-07
2.34515e-07
2.44239e-07
1.77048e-07
1.77231e-07
1.77421e-07
1.77615e-07
1.77815e-07
1.7802e-07
1.7823e-07
1.78444e-07
1.78663e-07
1.78885e-07
1.79111e-07
1.79341e-07
1.79574e-07
1.7981e-07
1.80049e-07
1.80291e-07
1.80536e-07
1.80783e-07
1.81033e-07
1.81284e-07
1.81538e-07
1.81794e-07
1.82051e-07
1.8231e-07
1.82571e-07
1.82833e-07
1.83097e-07
1.83361e-07
1.83627e-07
1.83894e-07
1.84162e-07
1.8443e-07
1.84704e-07
1.85028e-07
1.85515e-07
1.8637e-07
1.87931e-07
1.90606e-07
1.94684e-07
2.00192e-07
2.0692e-07
2.14615e-07
2.23093e-07
2.32204e-07
2.41827e-07
1.77007e-07
1.77189e-07
1.77377e-07
1.77571e-07
1.7777e-07
1.77974e-07
1.78183e-07
1.78396e-07
1.78614e-07
1.78835e-07
1.79061e-07
1.7929e-07
1.79522e-07
1.79758e-07
1.79996e-07
1.80238e-07
1.80482e-07
1.80729e-07
1.80978e-07
1.81229e-07
1.81482e-07
1.81738e-07
1.81995e-07
1.82254e-07
1.82514e-07
1.82776e-07
1.83039e-07
1.83304e-07
1.83569e-07
1.83836e-07
1.84104e-07
1.84373e-07
1.84642e-07
1.84948e-07
1.85385e-07
1.86132e-07
1.87498e-07
1.89889e-07
1.93641e-07
1.98844e-07
2.05329e-07
2.12827e-07
2.2115e-07
2.30138e-07
2.39655e-07
2.49607e-07
1.7697e-07
1.77151e-07
1.77338e-07
1.77531e-07
1.77729e-07
1.77932e-07
1.78141e-07
1.78353e-07
1.7857e-07
1.78791e-07
1.79016e-07
1.79244e-07
1.79476e-07
1.79711e-07
1.79949e-07
1.8019e-07
1.80434e-07
1.8068e-07
1.80929e-07
1.8118e-07
1.81433e-07
1.81688e-07
1.81945e-07
1.82203e-07
1.82464e-07
1.82725e-07
1.82988e-07
1.83252e-07
1.83518e-07
1.83784e-07
1.84052e-07
1.8432e-07
1.84589e-07
1.84884e-07
1.85284e-07
1.85947e-07
1.87156e-07
1.89308e-07
1.9277e-07
1.97692e-07
2.03944e-07
2.11263e-07
2.19442e-07
2.2831e-07
2.37732e-07
2.47608e-07
2.57848e-07
1.76938e-07
1.77118e-07
1.77304e-07
1.77496e-07
1.77694e-07
1.77896e-07
1.78104e-07
1.78316e-07
1.78532e-07
1.78752e-07
1.78976e-07
1.79204e-07
1.79436e-07
1.7967e-07
1.79908e-07
1.80149e-07
1.80392e-07
1.80638e-07
1.80886e-07
1.81137e-07
1.81389e-07
1.81644e-07
1.81901e-07
1.82159e-07
1.82419e-07
1.82681e-07
1.82943e-07
1.83207e-07
1.83473e-07
1.83739e-07
1.84006e-07
1.84274e-07
1.84543e-07
1.8483e-07
1.85202e-07
1.85802e-07
1.86887e-07
1.88841e-07
1.92055e-07
1.96724e-07
2.02763e-07
2.09914e-07
2.17956e-07
2.26715e-07
2.36055e-07
2.45865e-07
2.56052e-07
1.7691e-07
1.7709e-07
1.77275e-07
1.77467e-07
1.77663e-07
1.77865e-07
1.78072e-07
1.78283e-07
1.78499e-07
1.78719e-07
1.78943e-07
1.7917e-07
1.79401e-07
1.79635e-07
1.79872e-07
1.80113e-07
1.80356e-07
1.80601e-07
1.80849e-07
1.811e-07
1.81352e-07
1.81607e-07
1.81863e-07
1.82121e-07
1.82381e-07
1.82642e-07
1.82905e-07
1.83169e-07
1.83434e-07
1.837e-07
1.83967e-07
1.84235e-07
1.84504e-07
1.84786e-07
1.85136e-07
1.85688e-07
1.86676e-07
1.8847e-07
1.91474e-07
1.95922e-07
2.01771e-07
2.08773e-07
2.16695e-07
2.25362e-07
2.34631e-07
2.44386e-07
2.54528e-07
1.76887e-07
1.77066e-07
1.77251e-07
1.77442e-07
1.77638e-07
1.77839e-07
1.78046e-07
1.78256e-07
1.78472e-07
1.78691e-07
1.78914e-07
1.79142e-07
1.79372e-07
1.79606e-07
1.79843e-07
1.80083e-07
1.80326e-07
1.80571e-07
1.80819e-07
1.81069e-07
1.81321e-07
1.81575e-07
1.81832e-07
1.8209e-07
1.82349e-07
1.8261e-07
1.82873e-07
1.83137e-07
1.83402e-07
1.83668e-07
1.83935e-07
1.84203e-07
1.84472e-07
1.84749e-07
1.85084e-07
1.85598e-07
1.86512e-07
1.88181e-07
1.91014e-07
1.95277e-07
2.00962e-07
2.07838e-07
2.1566e-07
2.24244e-07
2.33442e-07
2.4314e-07
2.53233e-07
1.76869e-07
1.77047e-07
1.77232e-07
1.77422e-07
1.77618e-07
1.77819e-07
1.78025e-07
1.78235e-07
1.7845e-07
1.78669e-07
1.78892e-07
1.79119e-07
1.79349e-07
1.79583e-07
1.79819e-07
1.80059e-07
1.80301e-07
1.80547e-07
1.80794e-07
1.81044e-07
1.81296e-07
1.8155e-07
1.81806e-07
1.82064e-07
1.82324e-07
1.82585e-07
1.82847e-07
1.83111e-07
1.83376e-07
1.83642e-07
1.83909e-07
1.84178e-07
1.84447e-07
1.8472e-07
1.85043e-07
1.8553e-07
1.86389e-07
1.87961e-07
1.90659e-07
1.94773e-07
2.00322e-07
2.07094e-07
2.14829e-07
2.23345e-07
2.32487e-07
2.4214e-07
2.52207e-07
2.62597e-07
1.76855e-07
1.77033e-07
1.77217e-07
1.77407e-07
1.77603e-07
1.77803e-07
1.78009e-07
1.78219e-07
1.78434e-07
1.78652e-07
1.78875e-07
1.79102e-07
1.79332e-07
1.79565e-07
1.79802e-07
1.80041e-07
1.80283e-07
1.80528e-07
1.80776e-07
1.81026e-07
1.81278e-07
1.81532e-07
1.81788e-07
1.82045e-07
1.82305e-07
1.82566e-07
1.82828e-07
1.83092e-07
1.83357e-07
1.83623e-07
1.8389e-07
1.84158e-07
1.84427e-07
1.84698e-07
1.85013e-07
1.85482e-07
1.86301e-07
1.87803e-07
1.90402e-07
1.94401e-07
1.99845e-07
2.0653e-07
2.14197e-07
2.22659e-07
2.31761e-07
2.41382e-07
2.51419e-07
2.61791e-07
1.76846e-07
1.77024e-07
1.77208e-07
1.77397e-07
1.77593e-07
1.77793e-07
1.77998e-07
1.78208e-07
1.78423e-07
1.78642e-07
1.78864e-07
1.7909e-07
1.7932e-07
1.79554e-07
1.7979e-07
1.80029e-07
1.80272e-07
1.80516e-07
1.80764e-07
1.81013e-07
1.81265e-07
1.81519e-07
1.81775e-07
1.82033e-07
1.82292e-07
1.82553e-07
1.82815e-07
1.83079e-07
1.83344e-07
1.8361e-07
1.83877e-07
1.84146e-07
1.84415e-07
1.84684e-07
1.84995e-07
1.85451e-07
1.86245e-07
1.87702e-07
1.90234e-07
1.94158e-07
1.99532e-07
2.06161e-07
2.13783e-07
2.2221e-07
2.31287e-07
2.40888e-07
2.50905e-07
2.61264e-07
2.71896e-07
1.76842e-07
1.77019e-07
1.77203e-07
1.77393e-07
1.77588e-07
1.77788e-07
1.77993e-07
1.78203e-07
1.78418e-07
1.78636e-07
1.78859e-07
1.79085e-07
1.79315e-07
1.79548e-07
1.79784e-07
1.80024e-07
1.80266e-07
1.8051e-07
1.80758e-07
1.81007e-07
1.81259e-07
1.81513e-07
1.81769e-07
1.82027e-07
1.82286e-07
1.82547e-07
1.82809e-07
1.83073e-07
1.83338e-07
1.83604e-07
1.83871e-07
1.84139e-07
1.84408e-07
1.84677e-07
1.84986e-07
1.85437e-07
1.86219e-07
1.87653e-07
1.90153e-07
1.94039e-07
1.99379e-07
2.05979e-07
2.13577e-07
2.21985e-07
2.31045e-07
2.4063e-07
2.5064e-07
2.6099e-07
2.71612e-07
1.76842e-07
1.7702e-07
1.77203e-07
1.77393e-07
1.77588e-07
1.77788e-07
1.77994e-07
1.78204e-07
1.78418e-07
1.78636e-07
1.78859e-07
1.79085e-07
1.79315e-07
1.79548e-07
1.79785e-07
1.80024e-07
1.80266e-07
1.80511e-07
1.80758e-07
1.81008e-07
1.8126e-07
1.81513e-07
1.81769e-07
1.82027e-07
1.82286e-07
1.82547e-07
1.8281e-07
1.83073e-07
1.83338e-07
1.83604e-07
1.83871e-07
1.84139e-07
1.84408e-07
1.84678e-07
1.84986e-07
1.85437e-07
1.86219e-07
1.87653e-07
1.90154e-07
1.9404e-07
1.9938e-07
2.05981e-07
2.1358e-07
2.21989e-07
2.31052e-07
2.40636e-07
2.50646e-07
2.6099e-07
2.71608e-07
2.82439e-07
1.76847e-07
1.77025e-07
1.77208e-07
1.77398e-07
1.77593e-07
1.77794e-07
1.77999e-07
1.78209e-07
1.78424e-07
1.78642e-07
1.78865e-07
1.79091e-07
1.79321e-07
1.79554e-07
1.79791e-07
1.8003e-07
1.80272e-07
1.80517e-07
1.80765e-07
1.81014e-07
1.81266e-07
1.8152e-07
1.81776e-07
1.82034e-07
1.82293e-07
1.82554e-07
1.82816e-07
1.8308e-07
1.83345e-07
1.83611e-07
1.83878e-07
1.84146e-07
1.84415e-07
1.84685e-07
1.84995e-07
1.85452e-07
1.86246e-07
1.87703e-07
1.90236e-07
1.94161e-07
1.99536e-07
2.06166e-07
2.13786e-07
2.22212e-07
2.31286e-07
2.40881e-07
2.50899e-07
2.61255e-07
2.71882e-07
2.82712e-07
1.76856e-07
1.77034e-07
1.77218e-07
1.77408e-07
1.77604e-07
1.77805e-07
1.7801e-07
1.7822e-07
1.78435e-07
1.78654e-07
1.78877e-07
1.79103e-07
1.79333e-07
1.79567e-07
1.79803e-07
1.80043e-07
1.80285e-07
1.8053e-07
1.80777e-07
1.81027e-07
1.81279e-07
1.81533e-07
1.81789e-07
1.82047e-07
1.82306e-07
1.82567e-07
1.8283e-07
1.83093e-07
1.83358e-07
1.83624e-07
1.83892e-07
1.8416e-07
1.84429e-07
1.847e-07
1.85014e-07
1.85483e-07
1.86302e-07
1.87805e-07
1.90403e-07
1.94403e-07
1.99849e-07
2.06534e-07
2.14201e-07
2.22665e-07
2.31773e-07
2.41394e-07
2.51427e-07
2.61798e-07
2.7243e-07
2.83274e-07
1.76871e-07
1.77049e-07
1.77233e-07
1.77424e-07
1.77619e-07
1.7782e-07
1.78026e-07
1.78237e-07
1.78452e-07
1.78671e-07
1.78894e-07
1.79121e-07
1.79351e-07
1.79585e-07
1.79821e-07
1.80061e-07
1.80304e-07
1.80549e-07
1.80796e-07
1.81046e-07
1.81298e-07
1.81552e-07
1.81808e-07
1.82066e-07
1.82326e-07
1.82587e-07
1.82849e-07
1.83113e-07
1.83378e-07
1.83644e-07
1.83911e-07
1.84179e-07
1.84448e-07
1.84722e-07
1.85044e-07
1.85532e-07
1.8639e-07
1.87962e-07
1.9066e-07
1.94772e-07
2.0032e-07
2.07089e-07
2.14821e-07
2.23335e-07
2.32481e-07
2.42135e-07
2.522e-07
2.62587e-07
2.73237e-07
2.84094e-07
1.76889e-07
1.77068e-07
1.77253e-07
1.77444e-07
1.7764e-07
1.77842e-07
1.78048e-07
1.78259e-07
1.78474e-07
1.78694e-07
1.78917e-07
1.79144e-07
1.79375e-07
1.79608e-07
1.79846e-07
1.80085e-07
1.80328e-07
1.80574e-07
1.80821e-07
1.81071e-07
1.81324e-07
1.81578e-07
1.81834e-07
1.82092e-07
1.82352e-07
1.82613e-07
1.82875e-07
1.83139e-07
1.83404e-07
1.8367e-07
1.83938e-07
1.84205e-07
1.84474e-07
1.84751e-07
1.85086e-07
1.856e-07
1.86514e-07
1.88182e-07
1.91014e-07
1.95276e-07
2.00959e-07
2.07833e-07
2.15653e-07
2.24241e-07
2.33441e-07
2.43134e-07
2.5323e-07
2.63649e-07
2.74323e-07
2.85199e-07
1.76913e-07
1.77092e-07
1.77278e-07
1.77469e-07
1.77666e-07
1.77868e-07
1.78075e-07
1.78286e-07
1.78502e-07
1.78722e-07
1.78946e-07
1.79173e-07
1.79404e-07
1.79638e-07
1.79876e-07
1.80116e-07
1.80359e-07
1.80605e-07
1.80853e-07
1.81103e-07
1.81355e-07
1.8161e-07
1.81866e-07
1.82124e-07
1.82384e-07
1.82645e-07
1.82908e-07
1.83172e-07
1.83437e-07
1.83703e-07
1.8397e-07
1.84238e-07
1.84507e-07
1.84788e-07
1.85139e-07
1.8569e-07
1.86678e-07
1.88473e-07
1.91476e-07
1.95924e-07
2.01772e-07
2.08776e-07
2.16697e-07
2.25363e-07
2.34631e-07
2.44384e-07
2.5453e-07
2.64985e-07
2.75683e-07
2.86579e-07
1.7694e-07
1.77121e-07
1.77307e-07
1.77499e-07
1.77697e-07
1.77899e-07
1.78107e-07
1.78319e-07
1.78535e-07
1.78756e-07
1.7898e-07
1.79208e-07
1.79439e-07
1.79674e-07
1.79912e-07
1.80152e-07
1.80396e-07
1.80642e-07
1.8089e-07
1.81141e-07
1.81393e-07
1.81648e-07
1.81905e-07
1.82163e-07
1.82423e-07
1.82684e-07
1.82947e-07
1.83211e-07
1.83476e-07
1.83743e-07
1.8401e-07
1.84278e-07
1.84546e-07
1.84834e-07
1.85206e-07
1.85805e-07
1.8689e-07
1.88845e-07
1.92058e-07
1.96727e-07
2.02766e-07
2.09919e-07
2.1796e-07
2.26724e-07
2.36064e-07
2.45874e-07
2.56062e-07
2.66554e-07
2.77285e-07
2.88206e-07
1.76973e-07
1.77154e-07
1.77342e-07
1.77535e-07
1.77733e-07
1.77936e-07
1.78144e-07
1.78357e-07
1.78574e-07
1.78795e-07
1.7902e-07
1.79248e-07
1.7948e-07
1.79715e-07
1.79954e-07
1.80195e-07
1.80438e-07
1.80685e-07
1.80933e-07
1.81184e-07
1.81437e-07
1.81693e-07
1.81949e-07
1.82208e-07
1.82468e-07
1.8273e-07
1.82993e-07
1.83257e-07
1.83522e-07
1.83789e-07
1.84056e-07
1.84324e-07
1.84593e-07
1.84888e-07
1.85288e-07
1.85952e-07
1.8716e-07
1.89313e-07
1.92775e-07
1.97697e-07
2.03949e-07
2.11266e-07
2.19442e-07
2.28313e-07
2.37743e-07
2.4762e-07
2.57862e-07
2.68397e-07
2.79155e-07
2.90092e-07
1.7701e-07
1.77193e-07
1.77381e-07
1.77575e-07
1.77774e-07
1.77978e-07
1.78187e-07
1.784e-07
1.78618e-07
1.7884e-07
1.79065e-07
1.79294e-07
1.79527e-07
1.79763e-07
1.80001e-07
1.80243e-07
1.80487e-07
1.80734e-07
1.80983e-07
1.81234e-07
1.81488e-07
1.81743e-07
1.82e-07
1.82259e-07
1.82519e-07
1.82781e-07
1.83045e-07
1.83309e-07
1.83575e-07
1.83841e-07
1.84109e-07
1.84378e-07
1.84647e-07
1.84953e-07
1.8539e-07
1.86138e-07
1.87504e-07
1.89896e-07
1.93649e-07
1.98853e-07
2.05336e-07
2.12834e-07
2.21155e-07
2.3014e-07
2.39661e-07
2.49613e-07
2.59914e-07
2.70493e-07
2.81293e-07
2.92254e-07
1.77052e-07
1.77236e-07
1.77425e-07
1.7762e-07
1.7782e-07
1.78025e-07
1.78235e-07
1.78449e-07
1.78668e-07
1.7889e-07
1.79116e-07
1.79346e-07
1.79579e-07
1.79816e-07
1.80055e-07
1.80297e-07
1.80542e-07
1.80789e-07
1.81038e-07
1.8129e-07
1.81544e-07
1.818e-07
1.82057e-07
1.82316e-07
1.82577e-07
1.82839e-07
1.83102e-07
1.83367e-07
1.83633e-07
1.839e-07
1.84168e-07
1.84436e-07
1.8471e-07
1.85034e-07
1.85521e-07
1.86376e-07
1.87939e-07
1.90615e-07
1.94696e-07
2.00207e-07
2.06936e-07
2.14633e-07
2.23111e-07
2.32216e-07
2.41831e-07
2.51859e-07
2.62218e-07
2.7284e-07
2.83669e-07
2.94656e-07
1.77099e-07
1.77283e-07
1.77474e-07
1.7767e-07
1.77871e-07
1.78077e-07
1.78288e-07
1.78503e-07
1.78723e-07
1.78946e-07
1.79173e-07
1.79403e-07
1.79637e-07
1.79874e-07
1.80114e-07
1.80357e-07
1.80602e-07
1.8085e-07
1.811e-07
1.81352e-07
1.81606e-07
1.81862e-07
1.8212e-07
1.82379e-07
1.8264e-07
1.82903e-07
1.83166e-07
1.83431e-07
1.83697e-07
1.83964e-07
1.84232e-07
1.845e-07
1.84782e-07
1.85134e-07
1.85689e-07
1.86683e-07
1.88486e-07
1.91492e-07
1.95936e-07
2.0177e-07
2.08756e-07
2.16656e-07
2.25301e-07
2.34541e-07
2.44261e-07
2.54373e-07
2.64792e-07
2.75461e-07
2.86324e-07
2.97336e-07
1.7715e-07
1.77336e-07
1.77528e-07
1.77725e-07
1.77927e-07
1.78135e-07
1.78346e-07
1.78562e-07
1.78783e-07
1.79007e-07
1.79235e-07
1.79466e-07
1.79701e-07
1.79938e-07
1.80179e-07
1.80422e-07
1.80668e-07
1.80916e-07
1.81167e-07
1.81419e-07
1.81674e-07
1.81931e-07
1.82189e-07
1.82449e-07
1.8271e-07
1.82973e-07
1.83237e-07
1.83502e-07
1.83768e-07
1.84035e-07
1.84303e-07
1.84571e-07
1.84864e-07
1.85255e-07
1.85901e-07
1.87075e-07
1.89169e-07
1.92552e-07
1.97385e-07
2.03554e-07
2.10799e-07
2.1891e-07
2.27721e-07
2.37099e-07
2.46935e-07
2.57133e-07
2.67621e-07
2.78345e-07
2.89243e-07
3.00282e-07
1.77206e-07
1.77393e-07
1.77586e-07
1.77785e-07
1.77988e-07
1.78197e-07
1.7841e-07
1.78627e-07
1.78848e-07
1.79073e-07
1.79302e-07
1.79534e-07
1.7977e-07
1.80008e-07
1.80249e-07
1.80493e-07
1.8074e-07
1.80989e-07
1.8124e-07
1.81493e-07
1.81748e-07
1.82005e-07
1.82264e-07
1.82524e-07
1.82785e-07
1.83048e-07
1.83313e-07
1.83578e-07
1.83844e-07
1.84112e-07
1.8438e-07
1.8465e-07
1.84959e-07
1.85406e-07
1.86175e-07
1.87578e-07
1.90019e-07
1.93823e-07
1.99068e-07
2.05576e-07
2.1309e-07
2.21415e-07
2.30394e-07
2.39906e-07
2.49842e-07
2.60124e-07
2.70683e-07
2.81459e-07
2.92395e-07
3.03458e-07
1.77266e-07
1.77455e-07
1.7765e-07
1.7785e-07
1.78055e-07
1.78264e-07
1.78478e-07
1.78697e-07
1.78919e-07
1.79145e-07
1.79375e-07
1.79608e-07
1.79844e-07
1.80083e-07
1.80325e-07
1.8057e-07
1.80817e-07
1.81067e-07
1.81318e-07
1.81572e-07
1.81828e-07
1.82085e-07
1.82344e-07
1.82604e-07
1.82866e-07
1.8313e-07
1.83394e-07
1.8366e-07
1.83926e-07
1.84194e-07
1.84462e-07
1.84739e-07
1.85078e-07
1.85601e-07
1.86531e-07
1.88219e-07
1.91066e-07
1.95327e-07
2.00992e-07
2.07837e-07
2.15618e-07
2.24157e-07
2.33305e-07
2.42951e-07
2.52999e-07
2.6337e-07
2.73997e-07
2.84817e-07
2.95792e-07
3.06873e-07
1.77331e-07
1.77522e-07
1.77718e-07
1.7792e-07
1.78126e-07
1.78337e-07
1.78552e-07
1.78771e-07
1.78995e-07
1.79222e-07
1.79453e-07
1.79687e-07
1.79924e-07
1.80164e-07
1.80407e-07
1.80652e-07
1.809e-07
1.8115e-07
1.81402e-07
1.81657e-07
1.81913e-07
1.82171e-07
1.8243e-07
1.82691e-07
1.82953e-07
1.83217e-07
1.83482e-07
1.83747e-07
1.84014e-07
1.84282e-07
1.8455e-07
1.8484e-07
1.85224e-07
1.85854e-07
1.86996e-07
1.89034e-07
1.92339e-07
1.97085e-07
2.03171e-07
2.10345e-07
2.18389e-07
2.27143e-07
2.36464e-07
2.46248e-07
2.56407e-07
2.66857e-07
2.77546e-07
2.88419e-07
2.99425e-07
3.10534e-07
1.77401e-07
1.77593e-07
1.77791e-07
1.77994e-07
1.78202e-07
1.78414e-07
1.78631e-07
1.78851e-07
1.79076e-07
1.79304e-07
1.79536e-07
1.79771e-07
1.80009e-07
1.8025e-07
1.80493e-07
1.8074e-07
1.80988e-07
1.81239e-07
1.81492e-07
1.81747e-07
1.82003e-07
1.82262e-07
1.82522e-07
1.82783e-07
1.83046e-07
1.83309e-07
1.83575e-07
1.83841e-07
1.84108e-07
1.84376e-07
1.84646e-07
1.84956e-07
1.85408e-07
1.86186e-07
1.87603e-07
1.90059e-07
1.93871e-07
1.99114e-07
2.05611e-07
2.13107e-07
2.21416e-07
2.30377e-07
2.39871e-07
2.49789e-07
2.60047e-07
2.70585e-07
2.81335e-07
2.92248e-07
3.0329e-07
3.14415e-07
1.77476e-07
1.7767e-07
1.77869e-07
1.78074e-07
1.78283e-07
1.78496e-07
1.78714e-07
1.78936e-07
1.79162e-07
1.79391e-07
1.79624e-07
1.7986e-07
1.80099e-07
1.80341e-07
1.80585e-07
1.80832e-07
1.81082e-07
1.81333e-07
1.81587e-07
1.81842e-07
1.82099e-07
1.82358e-07
1.82619e-07
1.8288e-07
1.83143e-07
1.83407e-07
1.83673e-07
1.83939e-07
1.84206e-07
1.84474e-07
1.84753e-07
1.85102e-07
1.8565e-07
1.86627e-07
1.88391e-07
1.91333e-07
1.95687e-07
2.01424e-07
2.08313e-07
2.16123e-07
2.24684e-07
2.33851e-07
2.43503e-07
2.53544e-07
2.63904e-07
2.74516e-07
2.85326e-07
2.96288e-07
3.07363e-07
3.18509e-07
1.77555e-07
1.77751e-07
1.77952e-07
1.78158e-07
1.78369e-07
1.78584e-07
1.78803e-07
1.79026e-07
1.79253e-07
1.79483e-07
1.79717e-07
1.79954e-07
1.80194e-07
1.80437e-07