/*--------------------------------*- C++ -*----------------------------------*\
  =========                 |
  \\      /  F ield         | OpenFOAM: The Open Source CFD Toolbox
   \\    /   O peration     | Website:  https://openfoam.org
    \\  /    A nd           | Version:  7
     \\/     M anipulation  |
\*---------------------------------------------------------------------------*/
FoamFile
{
    version     2.0;
    format      ascii;
    class       volScalarField;
    location    "84000";
    object      p;
}
// * * * * * * * * * * * * * * * * * * * * * * * * * * * * * * * * * * * * * //

dimensions      [0 2 -2 0 0 0 0];

internalField   nonuniform List<scalar> 
4782
(
-8.15335e-19
-8.16111e-19
-8.16694e-19
-8.17634e-19
-8.1915e-19
-8.16659e-19
-8.15044e-19
-8.17044e-19
-8.18741e-19
-8.16481e-19
-8.02543e-19
-8.02568e-19
-8.1356e-19
-8.13242e-19
-8.08525e-19
-8.23304e-19
-8.14534e-19
-8.00512e-19
-8.04038e-19
-8.02215e-19
-8.03127e-19
-8.07859e-19
-8.09044e-19
-8.07275e-19
-8.05004e-19
-8.07001e-19
-8.06608e-19
-8.03361e-19
-8.02228e-19
-7.97061e-19
-8.01432e-19
-8.11707e-19
-8.18462e-19
-8.06065e-19
-8.02065e-19
-7.969e-19
-7.97685e-19
-8.04266e-19
-8.07379e-19
-8.04823e-19
-8.00431e-19
-8.00854e-19
-8.10273e-19
-8.0933e-19
-8.08115e-19
-8.03926e-19
-8.07582e-19
-8.11553e-19
-8.06131e-19
-8.06562e-19
-8.12322e-19
-8.07694e-19
-8.07088e-19
-8.14179e-19
-8.14883e-19
-8.0835e-19
-8.05762e-19
-8.0449e-19
-8.1186e-19
-8.13103e-19
-8.12274e-19
-8.107e-19
-8.0636e-19
-8.0499e-19
-8.11933e-19
-8.24884e-19
-8.25024e-19
-8.19124e-19
-8.17997e-19
-8.17121e-19
-8.16613e-19
-8.21507e-19
-8.20438e-19
-8.16804e-19
-8.24579e-19
-8.14064e-19
-8.13316e-19
-8.14187e-19
-8.11469e-19
-8.06724e-19
-8.15719e-19
-8.20188e-19
-8.19431e-19
-8.10052e-19
-8.11087e-19
-8.0804e-19
-8.11594e-19
-8.08884e-19
-8.04139e-19
-8.03555e-19
-8.0662e-19
-8.03393e-19
-7.94821e-19
-8.04646e-19
-8.102e-19
-8.06524e-19
-8.06604e-19
-8.11776e-19
-8.10233e-19
-8.06017e-19
-8.05301e-19
-8.13342e-19
-8.16398e-19
-8.12089e-19
-8.11099e-19
-8.08948e-19
-8.13534e-19
-8.09474e-19
-8.12834e-19
-8.09312e-19
-8.12598e-19
-8.15315e-19
-8.14038e-19
-8.13135e-19
-8.14083e-19
-8.14308e-19
-8.16678e-19
-8.13929e-19
-8.112e-19
-8.11092e-19
-8.19868e-19
-8.0461e-19
-8.10241e-19
-8.0871e-19
-8.02473e-19
-8.05535e-19
-8.06139e-19
-8.09568e-19
-8.21934e-19
-8.13831e-19
-8.09085e-19
-8.05269e-19
-7.9548e-19
-7.92147e-19
-8.02063e-19
-8.05962e-19
-8.07703e-19
-8.05571e-19
-8.04539e-19
-7.96816e-19
-7.9886e-19
-7.98064e-19
-8.00761e-19
-8.03742e-19
-8.03418e-19
-8.05861e-19
-8.00739e-19
-7.99588e-19
-7.97329e-19
-7.99859e-19
-8.05537e-19
-7.99481e-19
-8.031e-19
-8.00323e-19
-7.99186e-19
-7.96971e-19
-8.06034e-19
-8.05117e-19
-8.03825e-19
-8.03765e-19
-8.03659e-19
-8.03234e-19
-8.03091e-19
-8.00628e-19
-8.01878e-19
-8.06977e-19
-8.04328e-19
-8.03817e-19
-8.05881e-19
-8.01772e-19
-7.99454e-19
-8.01997e-19
-8.02764e-19
-8.03136e-19
-8.01105e-19
-8.17265e-19
-8.24904e-19
-8.25228e-19
-8.18308e-19
-8.16142e-19
-8.11063e-19
-8.12415e-19
-8.22135e-19
-8.21625e-19
-8.21271e-19
-8.13405e-19
-8.10306e-19
-8.10729e-19
-8.18525e-19
-8.19635e-19
-8.16552e-19
-8.15224e-19
-8.17738e-19
-8.10794e-19
-8.13776e-19
-8.15765e-19
-8.13776e-19
-8.02111e-19
-8.05451e-19
-8.07988e-19
-8.08225e-19
-7.96821e-19
-8.02889e-19
-8.05151e-19
-8.07569e-19
-8.07566e-19
-7.9867e-19
-7.99209e-19
-8.11606e-19
-8.04156e-19
-7.97643e-19
-8.02831e-19
-8.06654e-19
-8.04763e-19
-8.05171e-19
-8.00733e-19
-7.97008e-19
-7.96584e-19
-7.96719e-19
-8.01066e-19
-8.01736e-19
-8.06193e-19
-8.0452e-19
-7.98526e-19
-8.02297e-19
-8.01925e-19
-8.00998e-19
-8.00233e-19
-8.00765e-19
-8.02417e-19
-8.17349e-19
-8.101e-19
-8.1152e-19
-8.12644e-19
-8.13617e-19
-8.15545e-19
-8.14259e-19
-8.16028e-19
-8.079e-19
-7.96198e-19
-8.051e-19
-8.12095e-19
-8.10175e-19
-7.99482e-19
-7.94075e-19
-7.97492e-19
-8.02813e-19
-7.96648e-19
-8.00011e-19
-7.96114e-19
-8.00978e-19
-7.94949e-19
-8.02105e-19
-7.98825e-19
-7.95908e-19
-7.96091e-19
-8.05175e-19
-7.92963e-19
-7.86159e-19
-7.87808e-19
-7.90713e-19
-7.91254e-19
-7.93092e-19
-7.8225e-19
-7.898e-19
-7.96367e-19
-7.92179e-19
-7.91234e-19
-7.92106e-19
-7.9286e-19
-7.93201e-19
-7.94373e-19
-7.96375e-19
-7.99198e-19
-7.94609e-19
-7.95076e-19
-7.90096e-19
-7.91237e-19
-7.96178e-19
-7.93141e-19
-7.92984e-19
-7.93629e-19
-7.94828e-19
-7.95633e-19
-7.93821e-19
-8.09004e-19
-8.18838e-19
-8.14131e-19
-8.14006e-19
-8.16037e-19
-8.19123e-19
-8.23333e-19
-8.20435e-19
-8.0732e-19
-8.09545e-19
-8.15054e-19
-8.16748e-19
-8.23955e-19
-8.27117e-19
-8.18492e-19
-8.09431e-19
-8.02586e-19
-8.06292e-19
-8.07448e-19
-8.13571e-19
-8.08668e-19
-8.05684e-19
-8.05021e-19
-8.04024e-19
-8.01054e-19
-7.96585e-19
-8.01642e-19
-7.98777e-19
-8.01972e-19
-7.94736e-19
-7.93212e-19
-7.98597e-19
-8.01074e-19
-8.02532e-19
-8.02038e-19
-8.03972e-19
-7.97593e-19
-7.96259e-19
-7.97547e-19
-7.97882e-19
-7.97932e-19
-7.97698e-19
-7.96601e-19
-8.00452e-19
-7.96276e-19
-7.90784e-19
-7.96271e-19
-7.94734e-19
-7.92202e-19
-7.95058e-19
-7.97115e-19
-7.92331e-19
-7.94323e-19
-7.9327e-19
-7.95304e-19
-7.95324e-19
-7.92713e-19
-7.91568e-19
-7.93635e-19
-8.16766e-19
-8.14509e-19
-8.121e-19
-8.16287e-19
-8.18284e-19
-8.17002e-19
-8.13608e-19
-8.18405e-19
-8.13717e-19
-8.0101e-19
-8.09935e-19
-8.0927e-19
-8.06002e-19
-8.04785e-19
-8.11258e-19
-8.02982e-19
-7.99713e-19
-7.98609e-19
-8.00432e-19
-7.99397e-19
-8.0198e-19
-7.97962e-19
-8.00244e-19
-8.03313e-19
-7.99755e-19
-7.978e-19
-8.0645e-19
-8.13787e-19
-8.02452e-19
-7.94732e-19
-7.96714e-19
-8.00808e-19
-7.96587e-19
-7.99107e-19
-8.06766e-19
-8.07579e-19
-7.97426e-19
-7.94682e-19
-8.00043e-19
-7.97426e-19
-7.98876e-19
-7.96685e-19
-7.99586e-19
-7.97198e-19
-7.98877e-19
-7.9776e-19
-7.93949e-19
-7.94751e-19
-7.95782e-19
-7.92966e-19
-7.93713e-19
-7.90634e-19
-7.8857e-19
-7.89079e-19
-7.89774e-19
-7.88544e-19
-7.90123e-19
-7.90703e-19
-7.91149e-19
-7.87895e-19
-8.19013e-19
-8.20871e-19
-8.16301e-19
-8.14278e-19
-8.21262e-19
-8.15717e-19
-8.20157e-19
-8.20802e-19
-8.14498e-19
-8.08525e-19
-8.07928e-19
-8.13956e-19
-8.21215e-19
-8.15329e-19
-8.1414e-19
-8.10846e-19
-8.10137e-19
-8.11973e-19
-8.11457e-19
-8.15598e-19
-8.10793e-19
-7.99789e-19
-7.95306e-19
-8.06247e-19
-8.04032e-19
-8.1084e-19
-8.13431e-19
-8.03306e-19
-7.97507e-19
-8.00826e-19
-8.06055e-19
-8.05894e-19
-7.96135e-19
-7.96798e-19
-7.97786e-19
-8.0044e-19
-7.94651e-19
-7.90908e-19
-7.99153e-19
-7.99363e-19
-7.9342e-19
-7.9827e-19
-7.98286e-19
-7.91591e-19
-7.91628e-19
-7.98968e-19
-7.99037e-19
-7.98633e-19
-7.93549e-19
-7.94268e-19
-7.93246e-19
-7.92758e-19
-7.94827e-19
-7.93496e-19
-7.91438e-19
-7.90788e-19
-7.90828e-19
-7.95213e-19
-7.92636e-19
-7.92156e-19
-7.89396e-19
-7.88924e-19
-7.90053e-19
-7.92512e-19
-7.91505e-19
-7.88485e-19
-7.90228e-19
-7.8939e-19
-7.89869e-19
-7.89636e-19
-7.90119e-19
-7.90995e-19
-7.89891e-19
-7.9012e-19
-7.89401e-19
-7.89717e-19
-7.90133e-19
-7.90589e-19
-7.89994e-19
-7.90086e-19
-7.90201e-19
-7.89852e-19
-7.89833e-19
-7.89981e-19
-7.89745e-19
-7.90181e-19
-7.89996e-19
-7.89778e-19
-7.90028e-19
-7.90195e-19
-7.90188e-19
-7.90037e-19
-7.89995e-19
-7.89939e-19
-7.89921e-19
-7.95241e-19
-8.03923e-19
-8.06206e-19
-8.04648e-19
-7.90673e-19
-7.95592e-19
-7.9562e-19
-8.01411e-19
-7.97269e-19
-7.98933e-19
-7.97263e-19
-7.93518e-19
-7.96955e-19
-8.00842e-19
-7.98635e-19
-7.98596e-19
-7.98473e-19
-7.91822e-19
-8.0026e-19
-8.05413e-19
-8.03048e-19
-8.00687e-19
-7.96696e-19
-7.95297e-19
-7.95071e-19
-7.94356e-19
-7.94708e-19
-8.0042e-19
-7.9873e-19
-7.93326e-19
-7.90532e-19
-7.94975e-19
-7.94944e-19
-7.9704e-19
-7.93558e-19
-7.94895e-19
-7.96774e-19
-7.94658e-19
-7.9033e-19
-7.87609e-19
-7.889e-19
-7.9074e-19
-7.89793e-19
-7.89097e-19
-7.88091e-19
-7.89618e-19
-7.88852e-19
-7.88891e-19
-7.87841e-19
-7.86011e-19
-7.88211e-19
-7.89595e-19
-7.87314e-19
-7.86578e-19
-7.88228e-19
-7.87012e-19
-7.87772e-19
-7.85514e-19
-7.85852e-19
-7.84743e-19
-7.84017e-19
-7.85372e-19
-7.84099e-19
-7.86039e-19
-7.88932e-19
-7.86392e-19
-7.84811e-19
-7.85359e-19
-7.84518e-19
-7.85627e-19
-7.85983e-19
-7.86044e-19
-7.84815e-19
-7.84353e-19
-7.84589e-19
-7.84739e-19
-7.84576e-19
-7.85054e-19
-7.84639e-19
-7.84723e-19
-7.85256e-19
-7.84656e-19
-7.85013e-19
-7.85067e-19
-7.85063e-19
-7.84684e-19
-7.84531e-19
-7.84747e-19
-7.84628e-19
-7.84804e-19
-7.84836e-19
-7.8462e-19
-7.84814e-19
-7.84836e-19
-7.84811e-19
-8.1152e-19
-8.17034e-19
-8.19799e-19
-8.13281e-19
-8.11678e-19
-8.07553e-19
-8.07227e-19
-8.11528e-19
-8.06758e-19
-8.08453e-19
-7.96187e-19
-7.92208e-19
-8.07051e-19
-8.09815e-19
-8.02324e-19
-7.93746e-19
-7.97358e-19
-8.02347e-19
-7.95344e-19
-7.95997e-19
-7.97482e-19
-7.97667e-19
-7.96665e-19
-7.94538e-19
-7.9669e-19
-7.95658e-19
-7.91124e-19
-7.93812e-19
-7.92622e-19
-7.987e-19
-7.96897e-19
-7.93427e-19
-7.94077e-19
-7.91597e-19
-7.95455e-19
-8.06579e-19
-7.98159e-19
-7.95311e-19
-7.93889e-19
-7.94458e-19
-7.92299e-19
-7.92402e-19
-7.94059e-19
-7.93967e-19
-7.92208e-19
-7.90829e-19
-7.84495e-19
-7.85885e-19
-7.88825e-19
-7.94079e-19
-7.89107e-19
-7.89248e-19
-7.91346e-19
-7.93438e-19
-7.91718e-19
-7.8974e-19
-7.91691e-19
-7.91597e-19
-7.89579e-19
-7.9048e-19
-7.8717e-19
-7.8807e-19
-7.886e-19
-7.87536e-19
-7.89121e-19
-7.89249e-19
-7.8964e-19
-7.91218e-19
-7.9059e-19
-7.89804e-19
-7.88725e-19
-7.88178e-19
-7.88697e-19
-7.89215e-19
-7.89675e-19
-7.88638e-19
-7.88649e-19
-7.88856e-19
-7.89024e-19
-7.89341e-19
-7.88999e-19
-7.88491e-19
-7.88353e-19
-7.8886e-19
-7.88655e-19
-7.88071e-19
-7.88103e-19
-7.88268e-19
-7.88276e-19
-7.88453e-19
-7.88464e-19
-7.88315e-19
-7.88194e-19
-7.88332e-19
-7.88326e-19
-7.89669e-19
-7.93691e-19
-7.87799e-19
-7.97983e-19
-7.90998e-19
-7.89177e-19
-7.95483e-19
-7.961e-19
-8.01692e-19
-7.99831e-19
-7.88518e-19
-7.9011e-19
-7.95451e-19
-7.93605e-19
-7.8807e-19
-7.92669e-19
-7.91992e-19
-7.87473e-19
-7.93539e-19
-7.90982e-19
-7.9052e-19
-7.85573e-19
-7.84687e-19
-7.81392e-19
-7.87004e-19
-7.88236e-19
-7.80891e-19
-7.82982e-19
-7.8524e-19
-7.92289e-19
-7.84448e-19
-7.82103e-19
-7.81105e-19
-7.87835e-19
-7.81742e-19
-7.7801e-19
-7.81881e-19
-7.84528e-19
-7.89997e-19
-7.82495e-19
-7.84146e-19
-7.85733e-19
-7.87273e-19
-7.8489e-19
-7.84246e-19
-7.87277e-19
-7.88568e-19
-7.87123e-19
-7.82237e-19
-7.84225e-19
-7.84321e-19
-7.84871e-19
-7.84403e-19
-7.85938e-19
-7.85077e-19
-7.82386e-19
-7.85236e-19
-7.83048e-19
-7.83492e-19
-7.85107e-19
-7.84782e-19
-7.81685e-19
-7.81718e-19
-7.83157e-19
-7.82181e-19
-7.83484e-19
-7.83341e-19
-7.82557e-19
-7.81926e-19
-7.8304e-19
-7.82551e-19
-7.82065e-19
-7.82803e-19
-7.82014e-19
-7.82182e-19
-7.82433e-19
-7.81939e-19
-7.81982e-19
-7.81167e-19
-7.81441e-19
-7.81466e-19
-7.81982e-19
-7.8205e-19
-7.81825e-19
-7.81824e-19
-7.81651e-19
-7.81646e-19
-7.81509e-19
-7.81544e-19
-7.81632e-19
-7.81714e-19
-7.81687e-19
-7.81594e-19
-7.81597e-19
-7.81636e-19
-8.21311e-19
-8.10718e-19
-8.03047e-19
-8.04786e-19
-7.93404e-19
-8.00926e-19
-8.02147e-19
-7.97113e-19
-8.04818e-19
-8.11581e-19
-8.02233e-19
-8.02555e-19
-8.06225e-19
-8.04354e-19
-8.03352e-19
-7.97523e-19
-8.01368e-19
-8.05447e-19
-7.95754e-19
-7.99831e-19
-7.98793e-19
-8.01902e-19
-8.06164e-19
-7.95999e-19
-8.01614e-19
-7.96024e-19
-7.89905e-19
-7.95495e-19
-7.96503e-19
-7.99599e-19
-7.9683e-19
-7.91717e-19
-7.91207e-19
-7.91929e-19
-7.93493e-19
-7.91711e-19
-7.91091e-19
-7.86907e-19
-7.9011e-19
-7.9366e-19
-7.82414e-19
-7.82549e-19
-7.86629e-19
-7.87672e-19
-7.8642e-19
-7.84653e-19
-7.87423e-19
-7.87143e-19
-7.84475e-19
-7.88975e-19
-7.90598e-19
-7.88247e-19
-7.8624e-19
-7.88849e-19
-7.90031e-19
-7.87826e-19
-7.85725e-19
-7.87467e-19
-7.8878e-19
-7.86531e-19
-7.84471e-19
-7.85476e-19
-7.86582e-19
-7.8588e-19
-7.85487e-19
-7.84796e-19
-7.84722e-19
-7.85223e-19
-7.85502e-19
-7.8499e-19
-7.84448e-19
-7.85367e-19
-7.85623e-19
-7.84404e-19
-7.85147e-19
-7.84721e-19
-7.85135e-19
-7.85244e-19
-7.8539e-19
-7.84956e-19
-7.85361e-19
-7.84965e-19
-7.84625e-19
-7.84869e-19
-7.85167e-19
-7.84752e-19
-7.84326e-19
-7.84674e-19
-7.84619e-19
-7.84627e-19
-7.8474e-19
-7.84751e-19
-7.84697e-19
-7.84679e-19
-7.84667e-19
-7.96948e-19
-8.02645e-19
-8.04307e-19
-7.99984e-19
-7.89792e-19
-7.95842e-19
-8.00219e-19
-7.95724e-19
-7.95201e-19
-8.01446e-19
-7.83748e-19
-7.88905e-19
-7.89496e-19
-7.87675e-19
-7.88421e-19
-7.854e-19
-7.86253e-19
-7.89933e-19
-7.82687e-19
-7.85973e-19
-7.86706e-19
-7.84492e-19
-7.86199e-19
-7.8499e-19
-7.80231e-19
-7.82619e-19
-7.85492e-19
-7.86174e-19
-7.85524e-19
-7.78576e-19
-7.81696e-19
-7.83472e-19
-7.81111e-19
-7.75068e-19
-7.83841e-19
-7.88904e-19
-7.83945e-19
-7.7568e-19
-7.77043e-19
-7.80224e-19
-7.82613e-19
-7.81816e-19
-7.81026e-19
-7.77847e-19
-7.82609e-19
-7.80067e-19
-7.80106e-19
-7.82871e-19
-7.83955e-19
-7.82138e-19
-7.77508e-19
-7.81496e-19
-7.8291e-19
-7.81889e-19
-7.80173e-19
-7.80753e-19
-7.83188e-19
-7.808e-19
-7.79831e-19
-7.79677e-19
-7.77705e-19
-7.77113e-19
-7.79963e-19
-7.80242e-19
-7.78383e-19
-7.78435e-19
-7.79038e-19
-7.78248e-19
-7.78531e-19
-7.78482e-19
-7.78055e-19
-7.7864e-19
-7.78589e-19
-7.79078e-19
-7.78696e-19
-7.78397e-19
-7.782e-19
-7.78681e-19
-7.78634e-19
-7.78891e-19
-7.78139e-19
-7.78455e-19
-7.78893e-19
-7.78905e-19
-7.78586e-19
-7.78335e-19
-7.78577e-19
-7.78898e-19
-7.79062e-19
-7.78785e-19
-7.7865e-19
-7.78638e-19
-7.78733e-19
-7.78734e-19
-7.78716e-19
-8.19483e-19
-8.19541e-19
-8.21849e-19
-8.14868e-19
-8.07466e-19
-8.20409e-19
-8.14513e-19
-8.13516e-19
-8.19574e-19
-8.11749e-19
-8.07447e-19
-8.11912e-19
-8.05886e-19
-7.98426e-19
-8.05948e-19
-8.0559e-19
-8.05223e-19
-8.07095e-19
-8.02414e-19
-7.99103e-19
-8.05038e-19
-8.0788e-19
-8.02101e-19
-7.98889e-19
-7.931e-19
-8.01188e-19
-7.99779e-19
-7.94753e-19
-7.93098e-19
-7.92402e-19
-7.89984e-19
-7.85854e-19
-7.88101e-19
-7.81404e-19
-7.86587e-19
-7.89289e-19
-7.82702e-19
-7.78595e-19
-7.80845e-19
-7.84721e-19
-7.8796e-19
-7.82471e-19
-7.7682e-19
-7.78783e-19
-7.82473e-19
-7.77161e-19
-7.79883e-19
-7.79536e-19
-7.77852e-19
-7.78841e-19
-7.79297e-19
-7.79772e-19
-7.79264e-19
-7.79508e-19
-7.7929e-19
-7.80232e-19
-7.78031e-19
-7.79144e-19
-7.8151e-19
-7.82604e-19
-7.81803e-19
-7.83975e-19
-7.82827e-19
-7.81102e-19
-7.79447e-19
-7.81454e-19
-7.82428e-19
-7.81959e-19
-7.82607e-19
-7.83625e-19
-7.82782e-19
-7.82958e-19
-7.82103e-19
-7.82492e-19
-7.82409e-19
-7.82122e-19
-7.82572e-19
-7.82763e-19
-7.83159e-19
-7.83e-19
-7.8289e-19
-7.82889e-19
-7.82886e-19
-7.82679e-19
-7.82236e-19
-7.82661e-19
-7.82812e-19
-7.82813e-19
-7.83078e-19
-7.82864e-19
-7.82854e-19
-7.82908e-19
-7.82838e-19
-7.82804e-19
-7.82813e-19
-7.81656e-19
-7.82057e-19
-7.90501e-19
-7.96847e-19
-8.02716e-19
-7.9525e-19
-7.98184e-19
-7.88782e-19
-7.9484e-19
-8.00366e-19
-7.9018e-19
-7.96996e-19
-7.90526e-19
-7.8487e-19
-7.96367e-19
-7.8981e-19
-7.93442e-19
-7.95976e-19
-7.87417e-19
-7.84532e-19
-7.77332e-19
-7.85507e-19
-7.82835e-19
-7.81949e-19
-7.84526e-19
-7.8114e-19
-7.74675e-19
-7.85902e-19
-7.81764e-19
-7.85586e-19
-7.83475e-19
-7.80503e-19
-7.77803e-19
-7.82204e-19
-7.81811e-19
-7.8689e-19
-7.8117e-19
-7.8254e-19
-7.77553e-19
-7.77134e-19
-7.77228e-19
-7.76554e-19
-7.76091e-19
-7.80394e-19
-7.77171e-19
-7.73346e-19
-7.72669e-19
-7.74123e-19
-7.75182e-19
-7.74561e-19
-7.74156e-19
-7.73441e-19
-7.71681e-19
-7.74241e-19
-7.76923e-19
-7.76276e-19
-7.75494e-19
-7.74363e-19
-7.74804e-19
-7.74141e-19
-7.75046e-19
-7.76655e-19
-7.76469e-19
-7.76521e-19
-7.74932e-19
-7.74815e-19
-7.75897e-19
-7.76817e-19
-7.77128e-19
-7.76051e-19
-7.75476e-19
-7.77491e-19
-7.76633e-19
-7.75596e-19
-7.76192e-19
-7.76502e-19
-7.76415e-19
-7.76302e-19
-7.76971e-19
-7.77021e-19
-7.76145e-19
-7.7626e-19
-7.76597e-19
-7.76668e-19
-7.76606e-19
-7.76682e-19
-7.76723e-19
-7.76696e-19
-7.76641e-19
-7.76777e-19
-7.76748e-19
-7.76847e-19
-7.76759e-19
-7.76775e-19
-7.76747e-19
-7.95886e-19
-8.01779e-19
-8.02491e-19
-7.99202e-19
-7.98561e-19
-8.03715e-19
-8.10483e-19
-7.98382e-19
-7.98342e-19
-8.01553e-19
-7.99792e-19
-7.95281e-19
-7.93846e-19
-8.0337e-19
-7.99608e-19
-7.98047e-19
-7.9154e-19
-7.88843e-19
-8.00898e-19
-8.01764e-19
-7.99024e-19
-7.97181e-19
-8.01654e-19
-7.98266e-19
-7.91485e-19
-7.92414e-19
-7.96302e-19
-8.03559e-19
-7.99579e-19
-7.97927e-19
-7.95739e-19
-7.94515e-19
-7.94242e-19
-7.95295e-19
-7.9691e-19
-7.90983e-19
-7.96997e-19
-7.90238e-19
-7.88368e-19
-7.91896e-19
-7.91056e-19
-7.9071e-19
-7.88993e-19
-7.90467e-19
-7.88764e-19
-7.80503e-19
-7.88119e-19
-7.89003e-19
-7.8563e-19
-7.83469e-19
-7.84795e-19
-7.83861e-19
-7.85015e-19
-7.82813e-19
-7.84026e-19
-7.83504e-19
-7.85283e-19
-7.84983e-19
-7.84858e-19
-7.8417e-19
-7.83949e-19
-7.83485e-19
-7.85916e-19
-7.86473e-19
-7.85011e-19
-7.864e-19
-7.86371e-19
-7.85742e-19
-7.86026e-19
-7.85738e-19
-7.85425e-19
-7.84194e-19
-7.84162e-19
-7.84159e-19
-7.84905e-19
-7.8553e-19
-7.85499e-19
-7.85652e-19
-7.86167e-19
-7.85963e-19
-7.86192e-19
-7.85563e-19
-7.85642e-19
-7.85927e-19
-7.85851e-19
-7.8571e-19
-7.85512e-19
-7.85742e-19
-7.85882e-19
-7.85921e-19
-7.85846e-19
-7.8591e-19
-7.8598e-19
-7.85975e-19
-7.85949e-19
-7.82356e-19
-7.89035e-19
-7.87008e-19
-7.83527e-19
-7.80796e-19
-7.78663e-19
-7.87934e-19
-7.94496e-19
-7.95514e-19
-7.88115e-19
-7.90877e-19
-7.93405e-19
-7.92753e-19
-7.86022e-19
-7.85878e-19
-7.87415e-19
-7.91155e-19
-7.82189e-19
-7.86973e-19
-7.81021e-19
-7.82346e-19
-7.87738e-19
-7.89405e-19
-7.80155e-19
-7.82079e-19
-7.90806e-19
-7.93196e-19
-7.83031e-19
-7.79009e-19
-7.85655e-19
-7.85526e-19
-7.83404e-19
-7.79293e-19
-7.77215e-19
-7.80983e-19
-7.79917e-19
-7.79756e-19
-7.81076e-19
-7.77586e-19
-7.74678e-19
-7.76753e-19
-7.75135e-19
-7.78009e-19
-7.78557e-19
-7.81622e-19
-7.79858e-19
-7.78056e-19
-7.76451e-19
-7.81047e-19
-7.82254e-19
-7.79452e-19
-7.77159e-19
-7.79574e-19
-7.81362e-19
-7.82831e-19
-7.81331e-19
-7.80392e-19
-7.77873e-19
-7.78357e-19
-7.8075e-19
-7.78565e-19
-7.80898e-19
-7.8064e-19
-7.79327e-19
-7.80596e-19
-7.80737e-19
-7.80575e-19
-7.80295e-19
-7.80527e-19
-7.81082e-19
-7.80352e-19
-7.79682e-19
-7.80399e-19
-7.80163e-19
-7.79842e-19
-7.80365e-19
-7.80994e-19
-7.81092e-19
-7.80195e-19
-7.80224e-19
-7.80574e-19
-7.80208e-19
-7.8019e-19
-7.80517e-19
-7.80554e-19
-7.8028e-19
-7.80185e-19
-7.80258e-19
-7.80531e-19
-7.80626e-19
-7.80553e-19
-7.80323e-19
-7.80482e-19
-7.80572e-19
-7.80543e-19
-8.0141e-19
-8.0235e-19
-7.889e-19
-7.89446e-19
-7.92491e-19
-7.90225e-19
-7.89331e-19
-7.98268e-19
-7.93654e-19
-7.92372e-19
-7.94467e-19
-7.99924e-19
-8.01675e-19
-7.93897e-19
-7.90382e-19
-7.88012e-19
-7.9236e-19
-7.9255e-19
-7.91616e-19
-7.97164e-19
-7.94828e-19
-7.94034e-19
-7.95962e-19
-7.96279e-19
-7.95567e-19
-7.96769e-19
-7.95266e-19
-8.0202e-19
-7.93903e-19
-7.91543e-19
-7.88934e-19
-7.9436e-19
-7.93918e-19
-7.97699e-19
-7.91627e-19
-7.91083e-19
-7.95868e-19
-7.88795e-19
-7.88946e-19
-7.93796e-19
-7.92895e-19
-7.92132e-19
-7.93076e-19
-7.95037e-19
-7.93803e-19
-7.93853e-19
-7.91722e-19
-7.91972e-19
-7.93136e-19
-7.92739e-19
-7.89549e-19
-7.93428e-19
-7.93795e-19
-7.89098e-19
-7.89571e-19
-7.90772e-19
-7.92661e-19
-7.89362e-19
-7.89642e-19
-7.94353e-19
-7.94735e-19
-7.90549e-19
-7.90554e-19
-7.91719e-19
-7.92721e-19
-7.92003e-19
-7.90932e-19
-7.91722e-19
-7.92293e-19
-7.91834e-19
-7.91578e-19
-7.90467e-19
-7.91835e-19
-7.92355e-19
-7.91253e-19
-7.91336e-19
-7.91998e-19
-7.91486e-19
-7.90907e-19
-7.913e-19
-7.91614e-19
-7.91292e-19
-7.91274e-19
-7.91302e-19
-7.9116e-19
-7.91343e-19
-7.9136e-19
-7.91212e-19
-7.91166e-19
-7.91171e-19
-7.91155e-19
-7.91103e-19
-7.91129e-19
-7.91152e-19
-7.91166e-19
-7.95465e-19
-7.83309e-19
-7.84794e-19
-7.81606e-19
-7.88317e-19
-7.87996e-19
-7.8527e-19
-7.76929e-19
-7.84086e-19
-7.80337e-19
-7.7635e-19
-7.79098e-19
-7.80345e-19
-7.84078e-19
-7.84637e-19
-7.85982e-19
-7.83367e-19
-7.80529e-19
-7.87617e-19
-7.89011e-19
-7.9024e-19
-7.90431e-19
-7.89244e-19
-7.87543e-19
-7.83571e-19
-7.82729e-19
-7.78345e-19
-7.85425e-19
-7.89356e-19
-7.84885e-19
-7.84908e-19
-7.83219e-19
-7.82417e-19
-7.80306e-19
-7.84087e-19
-7.85485e-19
-7.87385e-19
-7.86019e-19
-7.84534e-19
-7.88506e-19
-7.87736e-19
-7.84329e-19
-7.85821e-19
-7.8745e-19
-7.88327e-19
-7.85289e-19
-7.87076e-19
-7.87042e-19
-7.87458e-19
-7.8345e-19
-7.8573e-19
-7.88371e-19
-7.8633e-19
-7.86446e-19
-7.86481e-19
-7.90411e-19
-7.89751e-19
-7.87388e-19
-7.86975e-19
-7.85993e-19
-7.85672e-19
-7.8578e-19
-7.85819e-19
-7.86074e-19
-7.87164e-19
-7.87819e-19
-7.86805e-19
-7.86434e-19
-7.86186e-19
-7.86506e-19
-7.86915e-19
-7.86287e-19
-7.85646e-19
-7.85756e-19
-7.86733e-19
-7.86294e-19
-7.86173e-19
-7.86834e-19
-7.86361e-19
-7.86024e-19
-7.85583e-19
-7.86204e-19
-7.86583e-19
-7.86164e-19
-7.86325e-19
-7.8656e-19
-7.8652e-19
-7.86585e-19
-7.86538e-19
-7.86404e-19
-7.86526e-19
-7.86545e-19
-7.86461e-19
-7.86443e-19
-7.86446e-19
-7.97946e-19
-7.84912e-19
-7.83695e-19
-7.88234e-19
-7.97465e-19
-7.96984e-19
-7.94587e-19
-7.91551e-19
-7.91144e-19
-7.85762e-19
-7.88845e-19
-7.88096e-19
-7.91548e-19
-7.8626e-19
-7.91004e-19
-7.93006e-19
-7.94153e-19
-7.92168e-19
-7.92679e-19
-7.92748e-19
-7.96914e-19
-7.92247e-19
-7.91594e-19
-7.9606e-19
-7.97981e-19
-7.96669e-19
-7.95521e-19
-7.96988e-19
-7.98533e-19
-8.01685e-19
-8.04524e-19
-8.04137e-19
-7.99504e-19
-7.98756e-19
-8.0393e-19
-8.0352e-19
-8.01878e-19
-8.05524e-19
-8.06947e-19
-8.05255e-19
-8.00839e-19
-8.02314e-19
-8.03233e-19
-8.01812e-19
-7.98428e-19
-8.01048e-19
-8.01992e-19
-8.03022e-19
-8.03864e-19
-8.02103e-19
-8.05243e-19
-8.04562e-19
-8.03738e-19
-8.03533e-19
-8.02956e-19
-8.02964e-19
-8.02255e-19
-8.01304e-19
-8.00011e-19
-8.01337e-19
-8.00548e-19
-8.02725e-19
-8.00962e-19
-7.99691e-19
-7.99329e-19
-8.00251e-19
-7.98401e-19
-7.9886e-19
-7.98554e-19
-7.9974e-19
-8.00343e-19
-7.99145e-19
-7.98372e-19
-7.98438e-19
-7.98411e-19
-7.98358e-19
-7.98559e-19
-7.98648e-19
-7.98164e-19
-7.98393e-19
-7.98036e-19
-7.97893e-19
-7.98219e-19
-7.98044e-19
-7.97547e-19
-7.97895e-19
-7.98125e-19
-7.97636e-19
-7.97768e-19
-7.97804e-19
-7.97797e-19
-7.9786e-19
-7.97771e-19
-7.97816e-19
-7.97791e-19
-7.8738e-19
-7.84455e-19
-7.81211e-19
-7.82107e-19
-7.82459e-19
-7.90073e-19
-7.79836e-19
-7.79009e-19
-7.79859e-19
-7.85494e-19
-7.80424e-19
-7.86341e-19
-7.82883e-19
-7.7806e-19
-7.79625e-19
-7.89382e-19
-7.90199e-19
-7.90838e-19
-7.94994e-19
-7.91693e-19
-7.93671e-19
-7.92324e-19
-7.98757e-19
-7.97366e-19
-7.9765e-19
-7.94927e-19
-7.93757e-19
-7.96532e-19
-7.99974e-19
-8.03336e-19
-7.94276e-19
-7.95794e-19
-7.98626e-19
-7.98781e-19
-7.97786e-19
-7.98802e-19
-7.97955e-19
-7.94629e-19
-7.95268e-19
-7.95429e-19
-8.00981e-19
-8.03534e-19
-7.97265e-19
-7.95932e-19
-7.98465e-19
-7.96193e-19
-7.95334e-19
-7.9611e-19
-7.95954e-19
-7.97326e-19
-7.96749e-19
-7.98687e-19
-7.95455e-19
-7.94679e-19
-7.92876e-19
-7.93605e-19
-7.95834e-19
-7.97382e-19
-7.96668e-19
-7.96035e-19
-7.96508e-19
-7.95433e-19
-7.95395e-19
-7.95125e-19
-7.95004e-19
-7.95286e-19
-7.9611e-19
-7.963e-19
-7.95662e-19
-7.95092e-19
-7.95748e-19
-7.9578e-19
-7.96117e-19
-7.96351e-19
-7.9606e-19
-7.96345e-19
-7.96343e-19
-7.95952e-19
-7.95959e-19
-7.96298e-19
-7.96106e-19
-7.96222e-19
-7.96174e-19
-7.9594e-19
-7.96181e-19
-7.96173e-19
-7.95999e-19
-7.96051e-19
-7.95877e-19
-7.95899e-19
-7.95981e-19
-7.95865e-19
-7.95909e-19
-7.95971e-19
-7.96014e-19
-7.942e-19
-7.99781e-19
-8.02015e-19
-8.02346e-19
-7.95397e-19
-7.89942e-19
-7.92079e-19
-7.93151e-19
-7.96512e-19
-7.97935e-19
-7.95273e-19
-7.95965e-19
-8.01897e-19
-8.09162e-19
-8.05174e-19
-7.99834e-19
-7.98573e-19
-8.04048e-19
-8.02728e-19
-8.05706e-19
-8.06172e-19
-8.02876e-19
-8.02002e-19
-8.0249e-19
-8.04305e-19
-8.07021e-19
-8.05306e-19
-8.05345e-19
-8.03861e-19
-8.04386e-19
-8.10346e-19
-8.07242e-19
-8.04697e-19
-8.07053e-19
-8.1054e-19
-8.08054e-19
-8.07118e-19
-8.04581e-19
-8.04873e-19
-8.07217e-19
-8.05385e-19
-8.06786e-19
-8.08169e-19
-8.03135e-19
-8.06069e-19
-8.06044e-19
-8.04648e-19
-8.07023e-19
-8.09425e-19
-8.06983e-19
-8.07842e-19
-8.09017e-19
-8.08467e-19
-8.06527e-19
-8.07851e-19
-8.06401e-19
-8.07578e-19
-8.07785e-19
-8.05546e-19
-8.03197e-19
-8.04848e-19
-8.06487e-19
-8.05025e-19
-8.04769e-19
-8.04736e-19
-8.05793e-19
-8.06001e-19
-8.05579e-19
-8.05122e-19
-8.06083e-19
-8.06381e-19
-8.05362e-19
-8.0475e-19
-8.04703e-19
-8.04865e-19
-8.04866e-19
-8.04441e-19
-8.05088e-19
-8.05646e-19
-8.05604e-19
-8.05205e-19
-8.05312e-19
-8.05353e-19
-8.05373e-19
-8.05197e-19
-8.05174e-19
-8.05312e-19
-8.05437e-19
-8.05365e-19
-8.05381e-19
-8.05408e-19
-8.05404e-19
-8.053e-19
-8.05279e-19
-8.05342e-19
-7.99036e-19
-8.0404e-19
-8.01883e-19
-7.89266e-19
-7.93151e-19
-7.9985e-19
-8.00872e-19
-7.97524e-19
-7.99487e-19
-8.03438e-19
-7.94756e-19
-7.93063e-19
-7.91989e-19
-7.92459e-19
-7.91422e-19
-7.96708e-19
-7.97863e-19
-7.9597e-19
-7.97438e-19
-7.98576e-19
-7.96242e-19
-7.96702e-19
-7.99898e-19
-8.01952e-19
-8.01661e-19
-8.03655e-19
-8.05817e-19
-8.05408e-19
-8.05295e-19
-8.03108e-19
-8.05068e-19
-8.01865e-19
-8.01927e-19
-8.04442e-19
-8.0389e-19
-8.02128e-19
-8.01655e-19
-8.0279e-19
-8.04133e-19
-8.03351e-19
-8.0933e-19
-8.09115e-19
-8.07958e-19
-8.04635e-19
-8.03738e-19
-8.02173e-19
-8.02858e-19
-8.0259e-19
-8.03892e-19
-8.03449e-19
-8.02145e-19
-8.02333e-19
-8.02674e-19
-7.99947e-19
-8.02274e-19
-8.021e-19
-8.01619e-19
-8.0185e-19
-8.03741e-19
-8.02776e-19
-8.02922e-19
-8.03412e-19
-8.0413e-19
-8.04224e-19
-8.03732e-19
-8.03481e-19
-8.04304e-19
-8.04407e-19
-8.04078e-19
-8.0457e-19
-8.04055e-19
-8.04092e-19
-8.04028e-19
-8.03742e-19
-8.04182e-19
-8.04106e-19
-8.04345e-19
-8.04259e-19
-8.04178e-19
-8.04481e-19
-8.04295e-19
-8.0412e-19
-8.04094e-19
-8.0418e-19
-8.04153e-19
-8.04225e-19
-8.04298e-19
-8.0438e-19
-8.04397e-19
-8.0437e-19
-8.04289e-19
-8.04275e-19
-8.04289e-19
-8.04313e-19
-8.04335e-19
-8.13771e-19
-8.12926e-19
-8.08603e-19
-8.09993e-19
-8.16026e-19
-8.13403e-19
-8.09895e-19
-8.07531e-19
-8.08361e-19
-8.12391e-19
-8.15392e-19
-8.17596e-19
-8.14057e-19
-8.11872e-19
-8.13858e-19
-8.10211e-19
-8.12407e-19
-8.1935e-19
-8.17635e-19
-8.16234e-19
-8.18247e-19
-8.20929e-19
-8.19452e-19
-8.19463e-19
-8.23025e-19
-8.22577e-19
-8.16976e-19
-8.18058e-19
-8.19217e-19
-8.20089e-19
-8.20724e-19
-8.17671e-19
-8.16304e-19
-8.18406e-19
-8.18044e-19
-8.17067e-19
-8.14788e-19
-8.18468e-19
-8.20464e-19
-8.16192e-19
-8.14015e-19
-8.12526e-19
-8.14503e-19
-8.17058e-19
-8.19322e-19
-8.18659e-19
-8.18672e-19
-8.19332e-19
-8.17002e-19
-8.16685e-19
-8.18558e-19
-8.18378e-19
-8.17763e-19
-8.16727e-19
-8.18684e-19
-8.1971e-19
-8.18707e-19
-8.17797e-19
-8.1675e-19
-8.17362e-19
-8.16967e-19
-8.16319e-19
-8.15628e-19
-8.1668e-19
-8.16635e-19
-8.16181e-19
-8.15512e-19
-8.15466e-19
-8.16397e-19
-8.15791e-19
-8.16631e-19
-8.17041e-19
-8.16782e-19
-8.15978e-19
-8.15357e-19
-8.1543e-19
-8.15462e-19
-8.16068e-19
-8.16435e-19
-8.15923e-19
-8.15613e-19
-8.15613e-19
-8.15489e-19
-8.15709e-19
-8.15897e-19
-8.15686e-19
-8.15534e-19
-8.15502e-19
-8.15756e-19
-8.15727e-19
-8.15642e-19
-8.1563e-19
-8.15642e-19
-8.15657e-19
-8.15656e-19
-8.24791e-19
-8.21816e-19
-8.20364e-19
-8.24952e-19
-8.19601e-19
-8.17596e-19
-8.18872e-19
-8.21416e-19
-8.1564e-19
-8.17364e-19
-8.19055e-19
-8.17609e-19
-8.16099e-19
-8.1847e-19
-8.19713e-19
-8.2181e-19
-8.2385e-19
-8.19267e-19
-8.14581e-19
-8.1566e-19
-8.18777e-19
-8.20819e-19
-8.2405e-19
-8.24238e-19
-8.20578e-19
-8.19776e-19
-8.20503e-19
-8.21154e-19
-8.19748e-19
-8.18644e-19
-8.20145e-19
-8.17695e-19
-8.163e-19
-8.18132e-19
-8.20557e-19
-8.21112e-19
-8.20909e-19
-8.23761e-19
-8.23839e-19
-8.20552e-19
-8.18279e-19
-8.20814e-19
-8.22339e-19
-8.19188e-19
-8.20882e-19
-8.20408e-19
-8.1988e-19
-8.19302e-19
-8.19232e-19
-8.19657e-19
-8.20037e-19
-8.19323e-19
-8.19343e-19
-8.20063e-19
-8.20246e-19
-8.19914e-19
-8.1909e-19
-8.19033e-19
-8.19927e-19
-8.20879e-19
-8.20856e-19
-8.19211e-19
-8.19931e-19
-8.19856e-19
-8.19855e-19
-8.20719e-19
-8.19231e-19
-8.19512e-19
-8.1873e-19
-8.18492e-19
-8.19569e-19
-8.19596e-19
-8.19402e-19
-8.19329e-19
-8.19246e-19
-8.19037e-19
-8.18936e-19
-8.19093e-19
-8.19278e-19
-8.19249e-19
-8.18963e-19
-8.18766e-19
-8.18849e-19
-8.18879e-19
-8.18629e-19
-8.18635e-19
-8.18582e-19
-8.18748e-19
-8.18747e-19
-8.18581e-19
-8.18587e-19
-8.18645e-19
-8.18662e-19
-8.18668e-19
-8.18662e-19
-8.21856e-19
-8.16504e-19
-8.20044e-19
-8.23209e-19
-8.28393e-19
-8.25776e-19
-8.17718e-19
-8.18192e-19
-8.23658e-19
-8.2375e-19
-8.24899e-19
-8.23992e-19
-8.29172e-19
-8.33442e-19
-8.33905e-19
-8.36515e-19
-8.33581e-19
-8.33653e-19
-8.35778e-19
-8.34102e-19
-8.32224e-19
-8.30905e-19
-8.26151e-19
-8.30569e-19
-8.33246e-19
-8.32605e-19
-8.32045e-19
-8.29899e-19
-8.34611e-19
-8.33795e-19
-8.33094e-19
-8.33243e-19
-8.33486e-19
-8.32711e-19
-8.29817e-19
-8.33036e-19
-8.36252e-19
-8.31553e-19
-8.3338e-19
-8.30511e-19
-8.31957e-19
-8.3311e-19
-8.33666e-19
-8.33327e-19
-8.33965e-19
-8.3553e-19
-8.34218e-19
-8.32701e-19
-8.33486e-19
-8.31293e-19
-8.32103e-19
-8.32145e-19
-8.32732e-19
-8.3285e-19
-8.31788e-19
-8.31263e-19
-8.31474e-19
-8.30923e-19
-8.30855e-19
-8.30599e-19
-8.30583e-19
-8.30188e-19
-8.30512e-19
-8.30759e-19
-8.31028e-19
-8.307e-19
-8.30494e-19
-8.30489e-19
-8.3091e-19
-8.30349e-19
-8.29689e-19
-8.30282e-19
-8.30126e-19
-8.29805e-19
-8.30201e-19
-8.30072e-19
-8.29915e-19
-8.30135e-19
-8.30087e-19
-8.29706e-19
-8.29703e-19
-8.29676e-19
-8.2933e-19
-8.29266e-19
-8.29365e-19
-8.29255e-19
-8.2924e-19
-8.29113e-19
-8.29072e-19
-8.28993e-19
-8.29003e-19
-8.29073e-19
-8.29082e-19
-8.29026e-19
-8.29018e-19
-8.323e-19
-8.36508e-19
-8.36327e-19
-8.32998e-19
-8.32119e-19
-8.3222e-19
-8.34377e-19
-8.3769e-19
-8.32562e-19
-8.30579e-19
-8.30583e-19
-8.33562e-19
-8.32443e-19
-8.35217e-19
-8.34843e-19
-8.33317e-19
-8.35485e-19
-8.34684e-19
-8.28159e-19
-8.34752e-19
-8.39766e-19
-8.36238e-19
-8.3053e-19
-8.3524e-19
-8.38594e-19
-8.39806e-19
-8.41033e-19
-8.40654e-19
-8.41927e-19
-8.3847e-19
-8.38954e-19
-8.38289e-19
-8.3989e-19
-8.41855e-19
-8.43117e-19
-8.39075e-19
-8.39688e-19
-8.42025e-19
-8.43724e-19
-8.40465e-19
-8.37969e-19
-8.37453e-19
-8.38822e-19
-8.38001e-19
-8.39323e-19
-8.39749e-19
-8.39595e-19
-8.39743e-19
-8.40473e-19
-8.40119e-19
-8.37931e-19
-8.38149e-19
-8.37353e-19
-8.37327e-19
-8.35605e-19
-8.36291e-19
-8.36729e-19
-8.35921e-19
-8.36015e-19
-8.34192e-19
-8.34585e-19
-8.35265e-19
-8.3329e-19
-8.32969e-19