/*--------------------------------*- C++ -*----------------------------------*\
  =========                 |
  \\      /  F ield         | OpenFOAM: The Open Source CFD Toolbox
   \\    /   O peration     | Website:  https://openfoam.org
    \\  /    A nd           | Version:  7
     \\/     M anipulation  |
\*---------------------------------------------------------------------------*/
FoamFile
{
    version     2.0;
    format      ascii;
    class       volVectorField;
    location    "188000";
    object      vorticity;
}
// * * * * * * * * * * * * * * * * * * * * * * * * * * * * * * * * * * * * * //

dimensions      [0 0 -1 0 0 0 0];

internalField   nonuniform List<vector> 
4838
(
(0.00179637 0.000820044 3.40268e-17)
(0.00111044 0.00150278 -5.43093e-18)
(0.00114365 0.00138094 -2.17143e-17)
(0.00114256 0.00125357 -2.42905e-17)
(0.00112051 0.00112725 -1.27882e-17)
(0.00108347 0.0010057 3.45115e-18)
(0.0010355 0.000889909 2.07694e-17)
(0.000979216 0.000780257 2.94093e-17)
(0.00091649 0.000677013 3.20108e-17)
(0.000848953 0.000580522 2.02885e-17)
(0.000778291 0.000491281 -1.10498e-17)
(0.000706415 0.000409927 -3.93417e-17)
(0.000635462 0.000337147 -2.65298e-17)
(0.000567629 0.000273491 -2.92585e-17)
(0.000504889 0.000219164 -1.02274e-16)
(0.000448736 0.000173888 -1.74732e-16)
(0.000400001 0.000136907 -1.35287e-16)
(0.000358829 0.000107121 -6.85053e-17)
(0.000325084 8.32866e-05 -5.62301e-17)
(0.000298194 6.40941e-05 -5.80187e-17)
(0.000277312 4.83068e-05 -3.63863e-17)
(0.000261497 3.5077e-05 -2.59758e-17)
(0.000250228 2.37989e-05 -2.27268e-17)
(0.000243041 1.38161e-05 -2.90098e-18)
(0.000239551 4.5326e-06 3.2418e-18)
(0.000239551 -4.53263e-06 2.46336e-17)
(0.000243041 -1.38161e-05 4.67064e-17)
(0.000250228 -2.3799e-05 6.09688e-17)
(0.000261497 -3.50771e-05 9.12808e-17)
(0.000277312 -4.83068e-05 9.90862e-17)
(0.000298195 -6.40942e-05 1.28346e-16)
(0.000325084 -8.32867e-05 2.00646e-16)
(0.000358829 -0.000107121 2.32453e-16)
(0.000400002 -0.000136907 2.02331e-16)
(0.000448736 -0.000173889 1.60352e-16)
(0.00050489 -0.000219164 1.24082e-16)
(0.00056763 -0.000273492 9.28559e-17)
(0.000635463 -0.000337148 3.76525e-17)
(0.000706416 -0.000409927 1.70801e-18)
(0.000778291 -0.000491281 4.66597e-18)
(0.000848954 -0.000580523 3.16982e-17)
(0.000916491 -0.000677014 5.52474e-17)
(0.000979216 -0.000780258 4.50393e-17)
(0.0010355 -0.00088991 2.39383e-17)
(0.00108347 -0.0010057 6.55754e-18)
(0.00112051 -0.00112725 2.04076e-18)
(0.00114256 -0.00125357 6.50523e-18)
(0.00114365 -0.00138094 4.66156e-19)
(0.00111044 -0.00150278 -2.07503e-17)
(0.00179637 -0.000820045 -1.75529e-17)
(0.00240597 0.000915949 3.84999e-17)
(0.00159557 0.00158522 4.19147e-18)
(0.00154888 0.00149688 -4.17349e-18)
(0.00150254 0.00139318 -1.2803e-17)
(0.00145186 0.00127924 -1.66493e-17)
(0.00139471 0.0011628 -8.67468e-18)
(0.00133178 0.00104806 6.0371e-18)
(0.00126436 0.000937218 1.22384e-17)
(0.00119368 0.000831397 1.4317e-17)
(0.00112076 0.000731239 1.9112e-17)
(0.00104656 0.000637179 8.30972e-18)
(0.000972034 0.000549603 -2.11563e-17)
(0.00089828 0.000468909 -2.05276e-17)
(0.000826519 0.000395502 -9.72121e-18)
(0.000758065 0.000329717 -5.12235e-17)
(0.000694199 0.000271709 -1.19448e-16)
(0.000636026 0.000221366 -1.06287e-16)
(0.000584356 0.000178251 -4.99156e-17)
(0.000539662 0.000141672 -5.34763e-17)
(0.000502093 0.000110764 -6.52965e-17)
(0.000471497 8.45486e-05 -3.41348e-17)
(0.000447528 6.20467e-05 -2.48876e-17)
(0.000429892 4.23565e-05 -2.6112e-17)
(0.000418328 2.464e-05 -4.13736e-18)
(0.000412612 8.08597e-06 -4.22851e-18)
(0.000412612 -8.08604e-06 3.13887e-18)
(0.000418328 -2.46401e-05 2.1994e-17)
(0.000429892 -4.23565e-05 5.25532e-17)
(0.000447528 -6.20468e-05 8.52239e-17)
(0.000471497 -8.45487e-05 7.76892e-17)
(0.000502094 -0.000110764 1.02432e-16)
(0.000539662 -0.000141672 1.57844e-16)
(0.000584356 -0.000178252 1.54951e-16)
(0.000636026 -0.000221366 1.25088e-16)
(0.0006942 -0.000271709 1.03323e-16)
(0.000758066 -0.000329717 8.19638e-17)
(0.00082652 -0.000395503 4.25923e-17)
(0.000898281 -0.000468909 1.4623e-19)
(0.000972035 -0.000549603 -1.30406e-17)
(0.00104656 -0.00063718 -3.05539e-19)
(0.00112076 -0.000731239 1.12593e-17)
(0.00119368 -0.000831397 1.4199e-17)
(0.00126436 -0.000937219 7.30369e-19)
(0.00133178 -0.00104806 -9.5397e-18)
(0.00139471 -0.0011628 -2.27479e-18)
(0.00145186 -0.00127925 -2.53867e-19)
(0.00150254 -0.00139318 -1.80631e-17)
(0.00154888 -0.00149688 -3.55709e-17)
(0.00159558 -0.00158522 -4.1631e-17)
(0.00240597 -0.00091595 -3.33262e-17)
(0.00275026 0.00109064 2.04857e-17)
(0.00185542 0.00176112 1.30992e-18)
(0.00179187 0.00164281 -1.16153e-18)
(0.00173322 0.0015355 -7.28171e-18)
(0.00167849 0.00142537 -5.87464e-18)
(0.001623 0.00131267 1.11729e-18)
(0.00156473 0.00119969 1.04654e-17)
(0.0015033 0.00108856 1.67286e-17)
(0.00143911 0.000980854 2.00207e-17)
(0.0013728 0.000877604 1.82411e-17)
(0.00130509 0.000779468 5.0709e-18)
(0.0012367 0.000686887 -1.15089e-17)
(0.00116839 0.000600188 -1.38819e-17)
(0.00110097 0.000519642 -5.89758e-18)
(0.00103536 0.000445477 -2.24828e-17)
(0.000972562 0.000377855 -6.21892e-17)
(0.000913592 0.000316815 -5.49033e-17)
(0.000859417 0.000262223 -2.5538e-17)
(0.00081086 0.000213746 -6.10053e-17)
(0.000768569 0.00017087 -1.01656e-16)
(0.00073299 0.000132916 -8.35142e-17)
(0.000704386 9.90671e-05 -5.29645e-17)
(0.000682884 6.84392e-05 -3.11511e-17)
(0.00066854 4.01299e-05 4.35594e-18)
(0.000661368 1.32206e-05 1.55299e-17)
(0.000661368 -1.32207e-05 2.11252e-17)
(0.00066854 -4.01301e-05 9.04213e-18)
(0.000682884 -6.84394e-05 3.07449e-18)
(0.000704387 -9.90673e-05 3.31241e-17)
(0.000732991 -0.000132916 4.4219e-17)
(0.000768569 -0.000170871 6.53239e-17)
(0.00081086 -0.000213746 1.02851e-16)
(0.000859417 -0.000262223 1.14376e-16)
(0.000913592 -0.000316816 1.06325e-16)
(0.000972563 -0.000377855 7.49974e-17)
(0.00103536 -0.000445478 4.87284e-17)
(0.00110097 -0.000519642 3.11934e-17)
(0.00116839 -0.000600189 6.34134e-18)
(0.0012367 -0.000686888 -1.26446e-17)
(0.00130509 -0.000779468 -1.77905e-17)
(0.0013728 -0.000877604 -1.54165e-17)
(0.00143911 -0.000980855 -1.20443e-17)
(0.0015033 -0.00108856 -1.37807e-17)
(0.00156473 -0.00119969 -1.51332e-17)
(0.001623 -0.00131267 -1.28391e-17)
(0.00167849 -0.00142537 -1.53988e-17)
(0.00173322 -0.0015355 -2.80477e-17)
(0.00179187 -0.00164281 -4.16935e-17)
(0.00185542 -0.00176112 -4.66638e-17)
(0.00275027 -0.00109064 -4.73365e-17)
(0.00300046 0.00127123 1.27007e-17)
(0.00208921 0.00195757 -6.0333e-18)
(0.00202388 0.00181648 -7.20358e-18)
(0.00196016 0.00169319 -5.53414e-18)
(0.00190203 0.00157553 -9.12203e-19)
(0.00184661 0.0014599 5.76053e-18)
(0.0017915 0.00134549 1.10802e-17)
(0.00173534 0.00123284 1.48658e-17)
(0.00167767 0.00112289 1.80093e-17)
(0.00161854 0.00101655 1.55499e-17)
(0.0015583 0.00091452 5.68668e-18)
(0.00149745 0.000817303 -4.02474e-18)
(0.00143655 0.000725249 -1.68792e-18)
(0.00137622 0.000638596 -3.06608e-19)
(0.00131712 0.000557501 -1.29401e-17)
(0.00126 0.000482054 -3.95577e-17)
(0.00120566 0.000412265 -4.59589e-17)
(0.00115494 0.000348046 -3.68145e-17)
(0.00110864 0.000289179 -6.6341e-17)
(0.00106755 0.000235311 -1.00855e-16)
(0.00103233 0.00018594 -8.52795e-17)
(0.00100354 0.000140428 -4.41252e-17)
(0.000981599 9.80215e-05 -8.65798e-18)
(0.000966812 5.78876e-05 1.79258e-17)
(0.000959371 1.91404e-05 2.31114e-17)
(0.000959371 -1.91406e-05 8.84297e-18)
(0.000966812 -5.78878e-05 -1.61142e-17)
(0.000981599 -9.80218e-05 -1.79991e-17)
(0.00100354 -0.000140429 4.63004e-18)
(0.00103233 -0.000185941 2.91599e-17)
(0.00106755 -0.000235311 5.00625e-17)
(0.00110864 -0.00028918 6.0598e-17)
(0.00115494 -0.000348046 6.87347e-17)
(0.00120566 -0.000412266 6.58751e-17)
(0.00126 -0.000482054 4.88937e-17)
(0.00131712 -0.000557502 4.27824e-17)
(0.00137622 -0.000638597 3.68126e-17)
(0.00143655 -0.00072525 1.6592e-17)
(0.00149745 -0.000817303 1.52792e-19)
(0.0015583 -0.00091452 -6.42406e-18)
(0.00161854 -0.00101655 -1.08983e-17)
(0.00167767 -0.00112289 -1.38611e-17)
(0.00173534 -0.00123284 -1.41062e-17)
(0.0017915 -0.00134549 -1.54272e-17)
(0.00184661 -0.0014599 -1.9376e-17)
(0.00190203 -0.00157553 -2.47651e-17)
(0.00196017 -0.00169319 -3.47128e-17)
(0.00202388 -0.00181648 -4.64778e-17)
(0.00208921 -0.00195757 -5.10467e-17)
(0.00300046 -0.00127124 -4.8545e-17)
(0.00322476 0.00144891 9.48168e-18)
(0.00230684 0.00215146 -4.97053e-18)
(0.00224888 0.00199957 -6.08562e-18)
(0.00218751 0.00186286 -6.38243e-18)
(0.00212949 0.00173413 1.5619e-18)
(0.00207443 0.00161077 1.29971e-17)
(0.0020211 0.00149103 1.43311e-17)
(0.00196835 0.00137423 1.50708e-17)
(0.0019154 0.00126045 1.51205e-17)
(0.00186195 0.00115007 6.24747e-18)
(0.00180801 0.00104359 -4.85819e-18)
(0.00175385 0.000941402 -2.47612e-18)
(0.00169985 0.000843845 2.80865e-18)
(0.00164648 0.000751131 -5.60165e-18)
(0.00159427 0.000663387 -1.77487e-17)
(0.00154381 0.000580656 -3.42292e-17)
(0.00149572 0.000502904 -4.18512e-17)
(0.00145067 0.000430015 -4.12748e-17)
(0.00140935 0.00036178 -5.80793e-17)
(0.00137244 0.000297886 -7.56467e-17)
(0.00134058 0.000237911 -5.55683e-17)
(0.00131435 0.000181321 -1.83582e-17)
(0.00129424 0.000127478 -2.91736e-18)
(0.00128062 7.56586e-05 2.47838e-18)
(0.00127375 2.50802e-05 2.07756e-17)
(0.00127375 -2.50805e-05 2.44622e-17)
(0.00128062 -7.56589e-05 -3.12547e-18)
(0.00129424 -0.000127478 -2.21194e-17)
(0.00131435 -0.000181321 -1.07795e-17)
(0.00134058 -0.000237912 1.37195e-17)
(0.00137244 -0.000297887 3.13873e-17)
(0.00140935 -0.00036178 3.68841e-17)
(0.00145067 -0.000430015 4.19713e-17)
(0.00149572 -0.000502904 3.89053e-17)
(0.00154381 -0.000580656 2.95989e-17)
(0.00159427 -0.000663388 3.05606e-17)
(0.00164648 -0.000751132 3.49525e-17)
(0.00169985 -0.000843846 2.83702e-17)
(0.00175385 -0.000941403 1.64581e-17)
(0.00180801 -0.00104359 4.66566e-18)
(0.00186195 -0.00115008 -7.50827e-18)
(0.0019154 -0.00126045 -1.09033e-17)
(0.00196835 -0.00137423 -1.27521e-17)
(0.00202111 -0.00149103 -1.75843e-17)
(0.00207443 -0.00161077 -2.27508e-17)
(0.00212949 -0.00173413 -2.58281e-17)
(0.00218752 -0.00186287 -3.36786e-17)
(0.00224888 -0.00199957 -4.09734e-17)
(0.00230684 -0.00215146 -4.05077e-17)
(0.00322476 -0.00144891 -3.48573e-17)
(0.00343775 0.00162507 2.15389e-17)
(0.00251464 0.00233959 -7.37558e-19)
(0.00246553 0.00218204 -4.53978e-19)
(0.00241055 0.00203651 1.14925e-18)
(0.00235637 0.00189809 6.33501e-18)
(0.00230382 0.00176591 1.72916e-17)
(0.00225286 0.00163874 1.98053e-17)
(0.00220301 0.00151571 1.65455e-17)
(0.00215375 0.00139639 1.24721e-17)
(0.00210472 0.00128073 2.27586e-18)
(0.00205581 0.00116889 -3.74824e-18)
(0.00200712 0.0010611 3.58154e-18)
(0.00195887 0.000957581 4.82588e-18)
(0.00191144 0.000858496 -1.87223e-17)
(0.00186524 0.000763932 -3.64481e-17)
(0.00182075 0.000673903 -3.73653e-17)
(0.00177848 0.000588346 -3.60827e-17)
(0.00173898 0.000507119 -3.47372e-17)
(0.00170281 0.000430001 -4.34124e-17)
(0.00167052 0.00035669 -5.28442e-17)
(0.00164264 0.000286793 -3.45903e-17)
(0.00161969 0.000219836 -5.69389e-19)
(0.00160207 0.00015526 3.00572e-18)
(0.00159013 9.24384e-05 -4.55049e-18)
(0.00158409 3.0692e-05 1.10772e-17)
(0.00158409 -3.06924e-05 1.94606e-17)
(0.00159013 -9.24388e-05 4.03059e-19)
(0.00160207 -0.00015526 -1.89357e-17)
(0.00161969 -0.000219836 -1.50427e-17)
(0.00164265 -0.000286794 5.37815e-18)
(0.00167052 -0.00035669 2.11917e-17)
(0.00170281 -0.000430002 2.66453e-17)
(0.00173898 -0.000507119 2.97532e-17)
(0.00177848 -0.000588346 2.37257e-17)
(0.00182075 -0.000673904 1.67495e-17)
(0.00186524 -0.000763933 1.9704e-17)
(0.00191144 -0.000858496 2.46877e-17)
(0.00195888 -0.000957582 2.31229e-17)
(0.00200712 -0.0010611 1.6528e-17)
(0.00205581 -0.00116889 2.13382e-19)
(0.00210472 -0.00128073 -1.27725e-17)
(0.00215375 -0.00139639 -1.42116e-17)
(0.00220301 -0.00151571 -1.4714e-17)
(0.00225286 -0.00163874 -1.9827e-17)
(0.00230382 -0.00176591 -2.51641e-17)
(0.00235637 -0.0018981 -2.8396e-17)
(0.00241055 -0.00203652 -3.11976e-17)
(0.00246553 -0.00218204 -3.02323e-17)
(0.00251464 -0.0023396 -2.50573e-17)
(0.00343775 -0.00162507 -1.62251e-17)
(0.00364286 0.00180064 3.88855e-17)
(0.00271642 0.00252298 6.93056e-18)
(0.00267537 0.0023611 6.02938e-18)
(0.00262779 0.00220935 7.75005e-18)
(0.00257951 0.00206334 1.08854e-17)
(0.00253147 0.00192313 1.83867e-17)
(0.00248421 0.00178823 2.09975e-17)
(0.0024378 0.00165804 1.73802e-17)
(0.00239213 0.0015321 1.22347e-17)
(0.00234702 0.00141015 3.13532e-18)
(0.00230239 0.00129213 -7.64055e-19)
(0.00225827 0.00117809 6.62614e-18)
(0.00221484 0.00106812 5.92111e-18)
(0.00217237 0.000962289 -1.85077e-17)
(0.00213118 0.000860645 -3.59759e-17)
(0.00209168 0.000763165 -2.79778e-17)
(0.00205431 0.000669763 -2.34755e-17)
(0.00201951 0.000580282 -2.77493e-17)
(0.00198774 0.000494496 -3.18301e-17)
(0.00195947 0.000412108 -3.34223e-17)
(0.00193513 0.000332748 -2.26236e-17)
(0.00191512 0.000255978 -1.26352e-18)
(0.00189978 0.000181298 -1.19314e-18)
(0.0018894 0.000108153 -9.23264e-18)
(0.00188415 3.59456e-05 1.312e-19)
(0.00188415 -3.59461e-05 2.11872e-18)
(0.0018894 -0.000108153 -1.24044e-17)
(0.00189978 -0.000181299 -2.31186e-17)
(0.00191512 -0.000255979 -1.93467e-17)
(0.00193513 -0.000332749 -5.16384e-18)
(0.00195947 -0.000412109 1.19925e-17)
(0.00198774 -0.000494497 2.6466e-17)
(0.00201951 -0.000580282 2.83016e-17)
(0.00205431 -0.000669763 1.56762e-17)
(0.00209168 -0.000763166 4.70972e-18)
(0.00213118 -0.000860646 4.78802e-18)
(0.00217237 -0.00096229 9.37313e-18)
(0.00221485 -0.00106812 1.1682e-17)
(0.00225827 -0.00117809 8.1425e-18)
(0.00230239 -0.00129213 -6.23686e-18)
(0.00234702 -0.00141015 -1.02974e-17)
(0.00239213 -0.0015321 -1.17997e-17)
(0.0024378 -0.00165805 -1.62795e-17)
(0.00248421 -0.00178823 -2.20543e-17)
(0.00253148 -0.00192313 -2.71055e-17)
(0.00257951 -0.00206334 -3.30115e-17)
(0.0026278 -0.00220935 -3.42507e-17)
(0.00267537 -0.00236111 -2.42499e-17)
(0.00271642 -0.00252298 -1.2172e-17)
(0.00364286 -0.00180064 -5.1041e-18)
(0.00384167 0.00197588 2.72175e-17)
(0.00291402 0.00270275 1.66018e-17)
(0.00288019 0.0025367 1.58869e-17)
(0.00283984 0.00237969 1.42059e-17)
(0.0027981 0.00222744 1.22115e-17)
(0.00275568 0.00208026 1.70256e-17)
(0.00271321 0.0019381 2.0365e-17)
(0.00267104 0.0018007 1.62022e-17)
(0.00262935 0.00166773 1.23437e-17)
(0.0025882 0.00153895 6.42007e-18)
(0.00254759 0.0014142 -9.42177e-19)
(0.00250763 0.00129342 6.18392e-19)
(0.00246844 0.00117659 2.22913e-18)
(0.00243027 0.0010637 -1.05855e-17)
(0.00239338 0.000954751 -2.38815e-17)
(0.00235812 0.000849673 -1.37571e-17)
(0.00232485 0.000748361 -3.89976e-18)
(0.00229397 0.000650649 -6.23841e-18)
(0.00226586 0.00055631 -9.36728e-18)
(0.00224091 0.000465053 -1.5493e-17)
(0.00221948 0.00037653 -1.72818e-17)
(0.00220189 0.000290333 -7.48137e-18)
(0.00218844 0.000206006 -7.89164e-18)
(0.00217934 0.000123046 -1.15627e-17)
(0.00217475 4.09217e-05 -3.77023e-18)
(0.00217475 -4.09223e-05 -7.59084e-18)
(0.00217934 -0.000123047 -1.93599e-17)
(0.00218844 -0.000206006 -2.14265e-17)
(0.0022019 -0.000290334 -2.16222e-17)
(0.00221948 -0.00037653 -1.39944e-17)
(0.00224091 -0.000465054 8.12407e-18)
(0.00226586 -0.000556311 2.54603e-17)
(0.00229397 -0.00065065 2.27694e-17)
(0.00232485 -0.000748362 9.89132e-18)
(0.00235812 -0.000849674 7.16924e-20)
(0.00239338 -0.000954752 -1.35993e-18)
(0.00243027 -0.0010637 1.35676e-18)
(0.00246845 -0.00117659 5.41399e-18)
(0.00250763 -0.00129342 5.42792e-18)
(0.0025476 -0.0014142 9.73997e-19)
(0.0025882 -0.00153895 -3.55957e-18)
(0.00262936 -0.00166773 -1.13037e-17)
(0.00267104 -0.0018007 -1.52889e-17)
(0.00271321 -0.0019381 -1.84745e-17)
(0.00275569 -0.00208026 -2.53113e-17)
(0.0027981 -0.00222744 -3.41317e-17)
(0.00283985 -0.00237969 -3.42348e-17)
(0.00288019 -0.0025367 -2.02741e-17)
(0.00291402 -0.00270276 -6.64119e-18)
(0.00384167 -0.00197589 -6.8801e-18)
(0.00403532 0.00215086 -1.81347e-18)
(0.00310839 0.00287967 2.11065e-17)
(0.00308122 0.00270933 2.33908e-17)
(0.00304771 0.00254733 1.99525e-17)
(0.00301249 0.00238946 1.67914e-17)
(0.00297608 0.00223603 1.86028e-17)
(0.00293899 0.00208718 2.06277e-17)
(0.00290167 0.00194284 1.78984e-17)
(0.00286443 0.00180287 1.59169e-17)
(0.00282748 0.00166709 1.06846e-17)
(0.00279096 0.00153535 1.06286e-19)
(0.00275501 0.00140754 -4.31007e-18)
(0.00271982 0.00128359 -3.0905e-18)
(0.00268558 0.00116343 -8.43503e-18)
(0.00265257 0.00104701 -1.59846e-17)
(0.00262106 0.000934237 -6.91019e-18)
(0.0025914 0.000824975 6.55375e-18)
(0.0025639 0.000719053 7.96791e-18)
(0.00253892 0.000616242 4.77269e-18)
(0.00251678 0.000516264 -2.03369e-18)
(0.00249779 0.000418788 -1.14385e-17)
(0.00248223 0.000323433 -1.38913e-17)
(0.00247034 0.000229777 -1.52074e-17)
(0.0024623 0.000137362 -9.55098e-18)
(0.00245825 4.57024e-05 3.05632e-18)
(0.00245825 -4.57031e-05 -5.5919e-18)
(0.0024623 -0.000137362 -1.97135e-17)
(0.00247034 -0.000229777 -1.98093e-17)
(0.00248223 -0.000323433 -1.87189e-17)
(0.00249779 -0.000418788 -1.22401e-17)
(0.00251678 -0.000516265 5.56838e-18)
(0.00253892 -0.000616243 1.98138e-17)
(0.0025639 -0.000719053 1.81809e-17)
(0.0025914 -0.000824976 9.60099e-18)
(0.00262106 -0.000934238 3.1307e-18)
(0.00265257 -0.00104702 4.61954e-18)
(0.00268558 -0.00116344 4.71453e-18)
(0.00271982 -0.00128359 3.49944e-18)
(0.00275502 -0.00140754 2.89733e-18)
(0.00279096 -0.00153535 2.33874e-18)
(0.00282748 -0.00166709 -1.45805e-18)
(0.00286443 -0.00180287 -9.6199e-18)
(0.00290167 -0.00194284 -1.16704e-17)
(0.00293899 -0.00208718 -1.42613e-17)
(0.00297608 -0.00223603 -2.28963e-17)
(0.0030125 -0.00238946 -3.20462e-17)
(0.00304771 -0.00254733 -3.13918e-17)
(0.00308123 -0.00270933 -2.03734e-17)
(0.00310839 -0.00287968 -1.36575e-17)
(0.00403532 -0.00215086 -2.29014e-17)
(0.00422466 0.00232555 -5.1422e-18)
(0.00330009 0.00305423 1.59874e-17)
(0.00327927 0.00287947 2.41927e-17)
(0.00325224 0.0027125 2.26186e-17)
(0.00322334 0.00254924 2.01785e-17)
(0.00319293 0.00238995 2.1899e-17)
(0.00316145 0.0022348 2.34422e-17)
(0.0031293 0.00208384 2.02372e-17)
(0.00309683 0.00193704 1.80167e-17)
(0.00306433 0.0017943 1.32818e-17)
(0.00303203 0.00165551 3.38182e-19)
(0.00300014 0.00152057 -1.02331e-17)
(0.00296885 0.00138937 -7.03211e-18)
(0.0029384 0.00126183 -2.56424e-18)
(0.00290903 0.00113785 -9.84767e-18)
(0.00288101 0.00101732 -1.03942e-17)
(0.00285463 0.000900098 3.8539e-18)
(0.0028302 0.000785996 8.2955e-18)
(0.00280802 0.00067479 4.25461e-18)
(0.00278837 0.00056621 -9.77217e-19)
(0.00277152 0.000459941 -1.3495e-17)
(0.00275773 0.000355627 -1.97666e-17)
(0.0027472 0.000252876 -1.75837e-17)
(0.00274008 0.000151263 -9.0751e-18)
(0.0027365 5.03432e-05 3.32913e-18)
(0.0027365 -5.0344e-05 -5.28655e-18)
(0.00274008 -0.000151264 -1.92567e-17)
(0.0027472 -0.000252876 -1.8311e-17)
(0.00275773 -0.000355628 -1.46044e-17)
(0.00277152 -0.000459942 -8.10117e-18)
(0.00278837 -0.000566211 4.45339e-18)
(0.00280802 -0.000674791 1.36546e-17)
(0.0028302 -0.000785997 1.25431e-17)
(0.00285464 -0.000900099 8.84033e-18)
(0.00288101 -0.00101732 7.71895e-18)
(0.00290903 -0.00113785 9.68672e-18)
(0.0029384 -0.00126183 7.16364e-18)
(0.00296885 -0.00138937 2.72052e-18)
(0.00300014 -0.00152057 2.49048e-18)
(0.00303203 -0.00165551 4.09602e-18)
(0.00306433 -0.0017943 -3.59824e-18)
(0.00309683 -0.00193704 -1.23707e-17)
(0.0031293 -0.00208385 -1.08829e-17)
(0.00316145 -0.0022348 -1.22888e-17)
(0.00319294 -0.00238995 -2.09341e-17)
(0.00322334 -0.00254924 -2.9038e-17)
(0.00325224 -0.00271251 -2.92924e-17)
(0.00327927 -0.00287947 -2.23778e-17)
(0.00330009 -0.00305423 -2.19461e-17)
(0.00422466 -0.00232555 -3.22413e-17)
(0.00441037 0.00249993 1.18462e-17)
(0.00348955 0.00322677 1.19325e-17)
(0.00347484 0.00304749 2.06363e-17)
(0.00345403 0.00287552 1.92916e-17)
(0.00343123 0.00270693 1.94381e-17)
(0.00340671 0.00254195 2.36528e-17)
(0.00338083 0.00238073 2.44642e-17)
(0.00335395 0.00222339 1.82832e-17)
(0.00332642 0.00206994 1.49994e-17)
(0.00329853 0.00192036 1.10263e-17)
(0.00327058 0.00177456 -1.65227e-18)
(0.00324279 0.00163247 -1.28956e-17)
(0.00321541 0.00149399 -7.90723e-18)
(0.00318868 0.00135903 1.27563e-18)
(0.00316284 0.00122746 -3.90984e-18)
(0.00313816 0.00109917 -9.33637e-18)
(0.0031149 0.000974003 4.02467e-18)
(0.00309334 0.000851767 9.83165e-18)
(0.00307375 0.000732241 1.78674e-18)
(0.0030564 0.000615164 -3.01297e-18)
(0.00304152 0.000500237 -1.30301e-17)
(0.00302934 0.000387125 -2.08776e-17)
(0.00302003 0.00027546 -1.73795e-17)
(0.00301374 0.000164848 -8.03548e-18)
(0.00301058 5.48775e-05 5.52562e-19)
(0.00301058 -5.48785e-05 -9.17899e-18)
(0.00301374 -0.000164849 -2.10176e-17)
(0.00302003 -0.000275461 -1.69989e-17)
(0.00302934 -0.000387126 -7.84085e-18)
(0.00304152 -0.000500238 -1.6476e-18)
(0.0030564 -0.000615165 2.47923e-18)
(0.00307375 -0.000732242 5.74415e-18)
(0.00309334 -0.000851768 5.58864e-18)
(0.0031149 -0.000974004 6.5147e-18)
(0.00313816 -0.00109917 9.45682e-18)
(0.00316285 -0.00122746 1.00342e-17)
(0.00318868 -0.00135903 5.82148e-18)
(0.00321542 -0.00149399 3.62837e-18)
(0.00324279 -0.00163247 5.35321e-18)
(0.00327058 -0.00177456 5.03849e-18)
(0.00329853 -0.00192036 -5.36999e-18)
(0.00332642 -0.00206995 -1.23057e-17)
(0.00335395 -0.0022234 -1.01083e-17)
(0.00338083 -0.00238074 -1.13465e-17)
(0.00340671 -0.00254195 -1.85722e-17)
(0.00343123 -0.00270693 -2.5699e-17)
(0.00345404 -0.00287552 -2.75437e-17)
(0.00347485 -0.00304749 -2.41564e-17)
(0.00348955 -0.00322678 -2.58098e-17)
(0.00441038 -0.00249994 -2.8768e-17)
(0.00459299 0.002674 1.64833e-17)
(0.00367708 0.00339758 1.18653e-17)
(0.00366832 0.00321368 1.79274e-17)
(0.00365353 0.00303665 1.70359e-17)
(0.00363663 0.00286273 1.92023e-17)
(0.00361785 0.00269212 2.51336e-17)
(0.00359748 0.00252497 2.6085e-17)
(0.00357586 0.00236139 1.92434e-17)
(0.00355329 0.00220144 1.31622e-17)
(0.00353009 0.00204512 8.429e-18)
(0.00350654 0.00189239 -1.85492e-18)
(0.00348291 0.00174321 -9.97446e-18)
(0.00345945 0.00159747 -3.59459e-18)
(0.00343641 0.00145509 5.89667e-18)
(0.00341405 0.00131595 1.0216e-18)
(0.00339261 0.00117992 -5.71399e-18)
(0.00337236 0.00104684 5.94982e-18)
(0.00335355 0.00091653 1.02655e-17)
(0.00333644 0.000788761 1.51451e-18)
(0.00332125 0.000663287 -2.9727e-18)
(0.00330823 0.000539821 -1.27665e-17)
(0.00329755 0.000418047 -2.08325e-17)
(0.00328939 0.000297621 -1.55835e-17)
(0.00328388 0.000178175 -4.66249e-18)
(0.0032811 5.93249e-05 1.97e-19)
(0.0032811 -5.9326e-05 -1.12854e-17)
(0.00328388 -0.000178176 -1.99856e-17)
(0.00328939 -0.000297622 -1.25327e-17)
(0.00329755 -0.000418048 -1.20304e-18)
(0.00330823 -0.000539822 4.98148e-18)
(0.00332126 -0.000663288 3.47929e-18)
(0.00333644 -0.000788762 1.05936e-18)
(0.00335355 -0.000916531 1.10091e-19)
(0.00337236 -0.00104685 2.58533e-18)
(0.00339261 -0.00117992 7.11986e-18)
(0.00341405 -0.00131595 5.76006e-18)
(0.00343641 -0.00145509 1.29469e-18)
(0.00345945 -0.00159747 3.33321e-18)
(0.00348291 -0.00174321 6.64571e-18)
(0.00350654 -0.0018924 4.0948e-18)
(0.00353009 -0.00204512 -6.99161e-18)
(0.00355329 -0.00220144 -1.40845e-17)
(0.00357586 -0.00236139 -1.05953e-17)
(0.00359749 -0.00252497 -8.62083e-18)
(0.00361785 -0.00269212 -1.52745e-17)
(0.00363663 -0.00286273 -2.31014e-17)
(0.00365353 -0.00303665 -2.60591e-17)
(0.00366832 -0.00321368 -2.43001e-17)
(0.00367708 -0.00339758 -2.55937e-17)
(0.00459299 -0.002674 -2.84315e-17)
(0.00477297 0.00284775 1.13826e-17)
(0.00386294 0.00356687 1.26608e-17)
(0.00385999 0.00337826 1.6845e-17)
(0.00385107 0.00319613 1.74063e-17)
(0.00383991 0.00301685 2.08475e-17)
(0.00382671 0.00284063 2.59879e-17)
(0.00381175 0.00266759 2.64649e-17)
(0.00379531 0.00249786 1.97022e-17)
(0.00377767 0.0023315 1.16199e-17)
(0.00375915 0.00216854 7.08342e-18)
(0.00374001 0.00200897 2.7661e-19)
(0.00372054 0.00185275 -4.08257e-18)
(0.003701 0.00169981 1.78962e-18)
(0.00368163 0.00155006 8.62549e-18)
(0.0036627 0.00140338 4.16241e-18)
(0.00364446 0.00125965 -1.9685e-18)
(0.00362714 0.00111872 6.45224e-18)
(0.003611 0.000980389 8.51686e-18)
(0.00359627 0.000844457 5.95008e-19)
(0.00358318 0.000710679 -2.56801e-18)
(0.00357192 0.000578783 -1.06781e-17)
(0.00356269 0.000448471 -1.75155e-17)
(0.00355562 0.000319418 -1.21016e-17)
(0.00355084 0.00019128 -2.00192e-18)
(0.00354843 6.36975e-05 -1.83796e-19)
(0.00354843 -6.36987e-05 -1.22527e-17)
(0.00355084 -0.000191281 -1.78291e-17)
(0.00355562 -0.000319419 -6.66698e-18)
(0.00356269 -0.000448472 4.59421e-18)
(0.00357192 -0.000578784 9.77178e-18)
(0.00358318 -0.00071068 8.11432e-18)
(0.00359627 -0.000844458 2.97116e-18)
(0.003611 -0.000980391 -1.06112e-18)
(0.00362714 -0.00111872 5.04004e-19)
(0.00364446 -0.00125966 5.40345e-18)
(0.00366271 -0.00140338 1.42986e-18)
(0.00368164 -0.00155006 -2.22349e-18)
(0.003701 -0.00169981 4.73008e-18)
(0.00372054 -0.00185275 7.23749e-18)
(0.00374002 -0.00200898 1.27163e-18)
(0.00375915 -0.00216855 -8.43761e-18)
(0.00377768 -0.0023315 -1.60101e-17)
(0.00379531 -0.00249786 -1.33216e-17)
(0.00381175 -0.00266759 -7.83006e-18)
(0.00382671 -0.00284063 -1.32656e-17)
(0.00383991 -0.00301686 -2.1802e-17)
(0.00385107 -0.00319613 -2.54585e-17)
(0.00385999 -0.00337827 -2.4681e-17)
(0.00386295 -0.00356687 -2.55739e-17)
(0.00477297 -0.00284776 -3.27561e-17)
(0.0049507 0.00302121 1.05596e-17)
(0.00404737 0.00373484 1.19003e-17)
(0.00405011 0.00354146 1.62964e-17)
(0.00404692 0.00335416 1.85677e-17)
(0.00404136 0.00316949 2.25756e-17)
(0.00403362 0.00298764 2.58015e-17)
(0.00402394 0.00280874 2.39029e-17)
(0.00401258 0.0026329 1.71974e-17)
(0.00399981 0.0024602 1.01848e-17)
(0.00398592 0.00229067 6.69494e-18)
(0.00397116 0.00212432 2.98722e-18)
(0.00395583 0.00196113 2.04569e-18)
(0.00394017 0.00180103 5.45505e-18)
(0.00392445 0.00164396 6.65674e-18)
(0.00390891 0.0014898 3.02987e-18)
(0.0038938 0.00133842 1.59433e-18)
(0.00387937 0.00118969 7.73165e-18)
(0.00386583 0.00104342 5.88625e-18)
(0.00385343 0.000899402 8.63857e-20)
(0.00384236 0.000757412 -1.2582e-18)
(0.00383281 0.000617188 -7.48688e-18)
(0.00382496 0.000478449 -1.26579e-17)
(0.00381895 0.00034089 -8.38635e-18)
(0.00381488 0.000204187 -2.0904e-19)
(0.00381282 6.8004e-05 -7.63891e-19)
(0.00381282 -6.80053e-05 -1.19165e-17)
(0.00381488 -0.000204189 -1.38781e-17)
(0.00381895 -0.000340892 -1.40191e-18)
(0.00382496 -0.000478451 6.78159e-18)
(0.00383281 -0.00061719 1.2172e-17)
(0.00384236 -0.000757413 1.33184e-17)
(0.00385343 -0.000899404 6.42977e-18)
(0.00386583 -0.00104342 9.06873e-19)
(0.00387937 -0.00118969 7.67354e-19)
(0.00389381 -0.00133843 4.4201e-18)
(0.00390891 -0.0014898 -5.39386e-19)
(0.00392445 -0.00164396 -3.24649e-18)
(0.00394018 -0.00180103 6.17774e-18)
(0.00395583 -0.00196113 6.42514e-18)
(0.00397117 -0.00212432 -1.30491e-18)
(0.00398592 -0.00229067 -7.31606e-18)
(0.00399981 -0.0024602 -1.5331e-17)
(0.00401258 -0.00263291 -1.55544e-17)
(0.00402394 -0.00280875 -8.51118e-18)
(0.00403362 -0.00298765 -1.28302e-17)
(0.00404136 -0.0031695 -2.15852e-17)
(0.00404693 -0.00335416 -2.49354e-17)
(0.00405012 -0.00354146 -2.37331e-17)
(0.00404738 -0.00373485 -2.48894e-17)
(0.0049507 -0.00302121 -3.05669e-17)
(0.0051265 0.0031944 1.59107e-17)
(0.00423057 0.00390168 1.28704e-17)
(0.0042389 0.00370344 1.56935e-17)
(0.00424132 0.00351092 1.95854e-17)
(0.00424124 0.00332083 2.40281e-17)
(0.00423883 0.00313333 2.44692e-17)
(0.00423432 0.00294857 2.01033e-17)
(0.00422794 0.00276664 1.43193e-17)
(0.00421995 0.00258762 9.09898e-18)
(0.00421062 0.00241157 6.82078e-18)
(0.00420019 0.0022385 6.56455e-18)
(0.00418895 0.00206838 7.42874e-18)
(0.00417714 0.00190119 6.12147e-18)
(0.00416501 0.00173684 1.82057e-18)
(0.00415282 0.00157525 2.55107e-19)
(0.0041408 0.00141629 3.86782e-18)
(0.00412919 0.00125983 8.84419e-18)
(0.0041182 0.00110568 4.60894e-18)
(0.00410806 0.000953657 6.70832e-19)
(0.00409897 0.000803541 1.18337e-19)
(0.00409109 0.000655086 -5.35886e-18)
(0.00408458 0.000508024 -8.28282e-18)
(0.00407958 0.000362069 -4.06582e-18)
(0.0040762 0.000216916 9.62751e-19)
(0.00407448 7.22506e-05 -1.9312e-18)
(0.00407448 -7.22521e-05 -1.02748e-17)
(0.0040762 -0.000216918 -8.2805e-18)
(0.00407959 -0.00036207 2.53265e-18)
(0.00408458 -0.000508026 7.02007e-18)
(0.00409109 -0.000655087 1.27183e-17)
(0.00409897 -0.000803543 1.50989e-17)
(0.00410807 -0.000953659 8.58764e-18)
(0.00411821 -0.00110568 4.02639e-18)
(0.00412919 -0.00125983 2.01357e-18)
(0.0041408 -0.0014163 2.81327e-18)
(0.00415282 -0.00157525 -1.32278e-18)
(0.00416501 -0.00173685 -2.62603e-18)
(0.00417714 -0.00190119 5.16204e-18)
(0.00418895 -0.00206839 2.76505e-18)
(0.0042002 -0.0022385 -4.75136e-18)
(0.00421062 -0.00241157 -6.50643e-18)
(0.00421996 -0.00258763 -1.32611e-17)
(0.00422794 -0.00276664 -1.62431e-17)
(0.00423432 -0.00294857 -1.09414e-17)
(0.00423883 -0.00313334 -1.43551e-17)
(0.00424124 -0.00332083 -2.15535e-17)
(0.00424133 -0.00351092 -2.37309e-17)
(0.0042389 -0.00370344 -2.20766e-17)
(0.00423057 -0.00390169 -2.3206e-17)
(0.00512651 -0.0031944 -2.66439e-17)
(0.00530069 0.00336736 2.01882e-17)
(0.00441272 0.00406755 1.30303e-17)
(0.00442654 0.00386438 1.53335e-17)
(0.00443448 0.00366658 1.97741e-17)
(0.00443977 0.00347102 2.35941e-17)
(0.00444258 0.00327785 2.2346e-17)
(0.00444313 0.00308721 1.7699e-17)
(0.00444163 0.0028992 1.28131e-17)
(0.00443833 0.00271389 7.75435e-18)
(0.00443348 0.00253134 6.43184e-18)
(0.00442731 0.00235158 8.7451e-18)
(0.00442009 0.00217459 1.07363e-17)
(0.00441207 0.00200034 5.28014e-18)
(0.00440349 0.00182878 -2.97771e-18)
(0.00439459 0.00165981 -1.2683e-18)
(0.00438561 0.00149332 6.29799e-18)
(0.00437677 0.00132918 9.2557e-18)
(0.00436829 0.00116723 3.82809e-18)
(0.00436036 0.00100728 2.1407e-18)
(0.00435319 0.000849116 1.94936e-18)
(0.00434693 0.000692518 -3.80656e-18)
(0.00434174 0.00053723 -5.34079e-18)
(0.00433773 0.00038298 -2.41793e-20)
(0.004335 0.000229483 2.89769e-18)
(0.00433362 7.64428e-05 -2.66518e-18)
(0.00433362 -7.64445e-05 -8.28455e-18)
(0.004335 -0.000229485 -2.90271e-18)
(0.00433773 -0.000382981 5.6427e-18)
(0.00434174 -0.000537231 7.8347e-18)
(0.00434693 -0.00069252 1.3785e-17)
(0.00435319 -0.000849118 1.55104e-17)
(0.00436037 -0.00100728 9.90064e-18)
(0.00436829 -0.00116723 7.15126e-18)
(0.00437677 -0.00132918 3.22234e-18)
(0.00438562 -0.00149332 1.85825e-18)
(0.0043946 -0.00165981 -8.63055e-20)
(0.00440349 -0.00182878 -9.49108e-19)