/*--------------------------------*- C++ -*----------------------------------*\
  =========                 |
  \\      /  F ield         | OpenFOAM: The Open Source CFD Toolbox
   \\    /   O peration     | Website:  https://openfoam.org
    \\  /    A nd           | Version:  7
     \\/     M anipulation  |
\*---------------------------------------------------------------------------*/
FoamFile
{
    version     2.0;
    format      ascii;
    class       volScalarField;
    location    "32000";
    object      p;
}
// * * * * * * * * * * * * * * * * * * * * * * * * * * * * * * * * * * * * * //

dimensions      [0 2 -2 0 0 0 0];

internalField   nonuniform List<scalar> 
4838
(
-1.68007e-17
-1.6877e-17
-1.68996e-17
-1.69962e-17
-1.69389e-17
-1.70359e-17
-1.69224e-17
-1.68667e-17
-1.68211e-17
-1.70251e-17
-1.69116e-17
-1.69135e-17
-1.6929e-17
-1.68839e-17
-1.67602e-17
-1.68278e-17
-1.70697e-17
-1.70758e-17
-1.70101e-17
-1.70943e-17
-1.70828e-17
-1.68912e-17
-1.69733e-17
-1.7023e-17
-1.70504e-17
-1.71518e-17
-1.70523e-17
-1.70518e-17
-1.70216e-17
-1.69495e-17
-1.71409e-17
-1.70874e-17
-1.69994e-17
-1.72378e-17
-1.71515e-17
-1.71628e-17
-1.70258e-17
-1.72006e-17
-1.71621e-17
-1.71833e-17
-1.7058e-17
-1.72029e-17
-1.69919e-17
-1.70977e-17
-1.72308e-17
-1.71002e-17
-1.70367e-17
-1.7066e-17
-1.70415e-17
-1.70464e-17
-1.68458e-17
-1.69403e-17
-1.67784e-17
-1.68831e-17
-1.68939e-17
-1.70277e-17
-1.69258e-17
-1.69061e-17
-1.6912e-17
-1.69496e-17
-1.69084e-17
-1.69119e-17
-1.6945e-17
-1.69237e-17
-1.68969e-17
-1.69141e-17
-1.70382e-17
-1.68461e-17
-1.68005e-17
-1.68538e-17
-1.69632e-17
-1.69846e-17
-1.70311e-17
-1.7075e-17
-1.69286e-17
-1.70553e-17
-1.6895e-17
-1.71207e-17
-1.70774e-17
-1.70499e-17
-1.70993e-17
-1.71809e-17
-1.70668e-17
-1.69584e-17
-1.69536e-17
-1.70805e-17
-1.70941e-17
-1.71095e-17
-1.71136e-17
-1.71357e-17
-1.72588e-17
-1.72658e-17
-1.71414e-17
-1.71263e-17
-1.7106e-17
-1.70458e-17
-1.69472e-17
-1.70105e-17
-1.68965e-17
-1.70389e-17
-1.67211e-17
-1.67043e-17
-1.68028e-17
-1.68328e-17
-1.67725e-17
-1.68639e-17
-1.6872e-17
-1.69407e-17
-1.70431e-17
-1.70115e-17
-1.68856e-17
-1.68568e-17
-1.70196e-17
-1.69602e-17
-1.69126e-17
-1.68287e-17
-1.69353e-17
-1.69104e-17
-1.68263e-17
-1.69297e-17
-1.69772e-17
-1.7015e-17
-1.70974e-17
-1.69309e-17
-1.68758e-17
-1.69313e-17
-1.71138e-17
-1.71878e-17
-1.71077e-17
-1.71624e-17
-1.71124e-17
-1.7097e-17
-1.70931e-17
-1.70698e-17
-1.70722e-17
-1.71055e-17
-1.70672e-17
-1.69823e-17
-1.70839e-17
-1.70879e-17
-1.70716e-17
-1.69868e-17
-1.71214e-17
-1.72055e-17
-1.71318e-17
-1.70914e-17
-1.70686e-17
-1.70798e-17
-1.71054e-17
-1.71693e-17
-1.68336e-17
-1.67997e-17
-1.67158e-17
-1.67435e-17
-1.69483e-17
-1.67871e-17
-1.68562e-17
-1.68843e-17
-1.68489e-17
-1.67693e-17
-1.67927e-17
-1.6988e-17
-1.69699e-17
-1.70402e-17
-1.69529e-17
-1.69123e-17
-1.69566e-17
-1.69465e-17
-1.68569e-17
-1.69719e-17
-1.70281e-17
-1.70106e-17
-1.70419e-17
-1.71486e-17
-1.71684e-17
-1.70359e-17
-1.69564e-17
-1.70354e-17
-1.70671e-17
-1.71109e-17
-1.71564e-17
-1.71067e-17
-1.72058e-17
-1.71202e-17
-1.71021e-17
-1.71089e-17
-1.70726e-17
-1.69315e-17
-1.69437e-17
-1.69553e-17
-1.69516e-17
-1.69821e-17
-1.70749e-17
-1.70011e-17
-1.70667e-17
-1.71018e-17
-1.7077e-17
-1.7068e-17
-1.72054e-17
-1.70843e-17
-1.68345e-17
-1.67621e-17
-1.69333e-17
-1.68741e-17
-1.69037e-17
-1.68842e-17
-1.6872e-17
-1.68333e-17
-1.6686e-17
-1.67995e-17
-1.68798e-17
-1.6928e-17
-1.68922e-17
-1.67989e-17
-1.69002e-17
-1.68626e-17
-1.70297e-17
-1.69942e-17
-1.69792e-17
-1.70266e-17
-1.72235e-17
-1.71033e-17
-1.70306e-17
-1.7127e-17
-1.7154e-17
-1.70585e-17
-1.69952e-17
-1.69595e-17
-1.70619e-17
-1.70705e-17
-1.69977e-17
-1.69818e-17
-1.70966e-17
-1.7095e-17
-1.71238e-17
-1.71068e-17
-1.70007e-17
-1.69847e-17
-1.70799e-17
-1.70872e-17
-1.71379e-17
-1.72416e-17
-1.71336e-17
-1.70684e-17
-1.7024e-17
-1.70584e-17
-1.69361e-17
-1.68417e-17
-1.6955e-17
-1.70531e-17
-1.681e-17
-1.68261e-17
-1.68683e-17
-1.68613e-17
-1.69757e-17
-1.69251e-17
-1.68597e-17
-1.68715e-17
-1.6852e-17
-1.67895e-17
-1.6883e-17
-1.69191e-17
-1.68618e-17
-1.6684e-17
-1.68988e-17
-1.69368e-17
-1.6967e-17
-1.69955e-17
-1.70734e-17
-1.70148e-17
-1.70601e-17
-1.70275e-17
-1.69235e-17
-1.69451e-17
-1.70454e-17
-1.704e-17
-1.69695e-17
-1.7047e-17
-1.71462e-17
-1.7097e-17
-1.70802e-17
-1.70815e-17
-1.70201e-17
-1.70256e-17
-1.71172e-17
-1.7146e-17
-1.72243e-17
-1.71685e-17
-1.71318e-17
-1.70431e-17
-1.72263e-17
-1.71766e-17
-1.71256e-17
-1.71484e-17
-1.72406e-17
-1.71277e-17
-1.70985e-17
-1.71705e-17
-1.70807e-17
-1.70517e-17
-1.66705e-17
-1.68e-17
-1.68111e-17
-1.67417e-17
-1.68701e-17
-1.69379e-17
-1.67605e-17
-1.68474e-17
-1.6974e-17
-1.688e-17
-1.69096e-17
-1.69133e-17
-1.67789e-17
-1.66931e-17
-1.69329e-17
-1.70016e-17
-1.69528e-17
-1.69592e-17
-1.69788e-17
-1.6997e-17
-1.70979e-17
-1.70878e-17
-1.69394e-17
-1.69395e-17
-1.70369e-17
-1.70468e-17
-1.70601e-17
-1.70762e-17
-1.70309e-17
-1.7092e-17
-1.71198e-17
-1.71361e-17
-1.71229e-17
-1.71247e-17
-1.71325e-17
-1.71588e-17
-1.72583e-17
-1.72942e-17
-1.71516e-17
-1.71041e-17
-1.70485e-17
-1.7097e-17
-1.71047e-17
-1.71208e-17
-1.71336e-17
-1.71235e-17
-1.71455e-17
-1.716e-17
-1.70869e-17
-1.69596e-17
-1.6799e-17
-1.68549e-17
-1.68728e-17
-1.6927e-17
-1.68273e-17
-1.67795e-17
-1.68381e-17
-1.67534e-17
-1.6773e-17
-1.67948e-17
-1.69355e-17
-1.70087e-17
-1.68414e-17
-1.68891e-17
-1.70398e-17
-1.71564e-17
-1.69066e-17
-1.6944e-17
-1.68954e-17
-1.68908e-17
-1.69062e-17
-1.69419e-17
-1.70103e-17
-1.70995e-17
-1.70501e-17
-1.69774e-17
-1.70719e-17
-1.70909e-17
-1.70761e-17
-1.71297e-17
-1.71737e-17
-1.7195e-17
-1.71303e-17
-1.71248e-17
-1.70732e-17
-1.7188e-17
-1.70952e-17
-1.7233e-17
-1.70654e-17
-1.71587e-17
-1.7098e-17
-1.70126e-17
-1.70134e-17
-1.70154e-17
-1.69939e-17
-1.71049e-17
-1.72617e-17
-1.73038e-17
-1.72153e-17
-1.69943e-17
-1.69769e-17
-1.7046e-17
-1.69641e-17
-1.68601e-17
-1.67607e-17
-1.69602e-17
-1.7013e-17
-1.69688e-17
-1.69062e-17
-1.69434e-17
-1.68816e-17
-1.69201e-17
-1.69842e-17
-1.69324e-17
-1.689e-17
-1.69905e-17
-1.6961e-17
-1.6967e-17
-1.69659e-17
-1.68957e-17
-1.68879e-17
-1.69702e-17
-1.69378e-17
-1.70433e-17
-1.70405e-17
-1.69547e-17
-1.70659e-17
-1.70921e-17
-1.70557e-17
-1.72066e-17
-1.73333e-17
-1.71307e-17
-1.7057e-17
-1.71285e-17
-1.71414e-17
-1.71637e-17
-1.71363e-17
-1.71624e-17
-1.71351e-17
-1.72344e-17
-1.70524e-17
-1.71343e-17
-1.723e-17
-1.71544e-17
-1.70332e-17
-1.70442e-17
-1.71591e-17
-1.7303e-17
-1.71413e-17
-1.71042e-17
-1.69006e-17
-1.70725e-17
-1.6784e-17
-1.68138e-17
-1.68385e-17
-1.69197e-17
-1.67654e-17
-1.68716e-17
-1.68961e-17
-1.67788e-17
-1.66518e-17
-1.67922e-17
-1.69209e-17
-1.69203e-17
-1.69103e-17
-1.6971e-17
-1.70096e-17
-1.69737e-17
-1.7e-17
-1.70434e-17
-1.69901e-17
-1.70178e-17
-1.69437e-17
-1.7042e-17
-1.70407e-17
-1.68644e-17
-1.7051e-17
-1.71072e-17
-1.71304e-17
-1.71465e-17
-1.71594e-17
-1.7086e-17
-1.71327e-17
-1.71695e-17
-1.71716e-17
-1.71758e-17
-1.70977e-17
-1.71447e-17
-1.71034e-17
-1.71738e-17
-1.71158e-17
-1.71669e-17
-1.71881e-17
-1.71862e-17
-1.72216e-17
-1.72313e-17
-1.71661e-17
-1.71451e-17
-1.70212e-17
-1.71635e-17
-1.68253e-17
-1.68464e-17
-1.68178e-17
-1.68406e-17
-1.68474e-17
-1.67757e-17
-1.66415e-17
-1.68387e-17
-1.68795e-17
-1.68643e-17
-1.67902e-17
-1.68722e-17
-1.69163e-17
-1.69336e-17
-1.68682e-17
-1.70342e-17
-1.72035e-17
-1.69863e-17
-1.6973e-17
-1.69913e-17
-1.69376e-17
-1.70838e-17
-1.70562e-17
-1.71239e-17
-1.7145e-17
-1.70351e-17
-1.70825e-17
-1.71314e-17
-1.72058e-17
-1.71627e-17
-1.71574e-17
-1.73191e-17
-1.7251e-17
-1.72489e-17
-1.71969e-17
-1.72511e-17
-1.71483e-17
-1.71914e-17
-1.72806e-17
-1.71824e-17
-1.70824e-17
-1.72108e-17
-1.71745e-17
-1.70484e-17
-1.70555e-17
-1.70701e-17
-1.71654e-17
-1.71487e-17
-1.7086e-17
-1.70384e-17
-1.69116e-17
-1.67401e-17
-1.67884e-17
-1.68225e-17
-1.69618e-17
-1.70595e-17
-1.6944e-17
-1.6849e-17
-1.6875e-17
-1.69182e-17
-1.68932e-17
-1.69322e-17
-1.69982e-17
-1.70144e-17
-1.6911e-17
-1.68979e-17
-1.71576e-17
-1.68973e-17
-1.69223e-17
-1.69757e-17
-1.69104e-17
-1.70163e-17
-1.7111e-17
-1.70631e-17
-1.70495e-17
-1.70395e-17
-1.7111e-17
-1.71934e-17
-1.71263e-17
-1.70487e-17
-1.71164e-17
-1.7202e-17
-1.71705e-17
-1.72402e-17
-1.71987e-17
-1.72165e-17
-1.73855e-17
-1.73002e-17
-1.73051e-17
-1.71986e-17
-1.71994e-17
-1.73558e-17
-1.72016e-17
-1.7104e-17
-1.71339e-17
-1.71076e-17
-1.71398e-17
-1.71539e-17
-1.70864e-17
-1.70987e-17
-1.67372e-17
-1.68856e-17
-1.68352e-17
-1.66699e-17
-1.68525e-17
-1.68758e-17
-1.68837e-17
-1.67578e-17
-1.68461e-17
-1.68976e-17
-1.69203e-17
-1.69951e-17
-1.70209e-17
-1.6945e-17
-1.68983e-17
-1.692e-17
-1.69953e-17
-1.68846e-17
-1.70392e-17
-1.70076e-17
-1.69758e-17
-1.69585e-17
-1.71125e-17
-1.70583e-17
-1.69546e-17
-1.69677e-17
-1.71694e-17
-1.71487e-17
-1.71311e-17
-1.71196e-17
-1.70522e-17
-1.69596e-17
-1.71121e-17
-1.71844e-17
-1.72506e-17
-1.71394e-17
-1.72533e-17
-1.72463e-17
-1.72017e-17
-1.71921e-17
-1.71141e-17
-1.7123e-17
-1.73209e-17
-1.7276e-17
-1.71471e-17
-1.70301e-17
-1.70525e-17
-1.71237e-17
-1.70454e-17
-1.71496e-17
-1.68433e-17
-1.68386e-17
-1.69341e-17
-1.69062e-17
-1.69093e-17
-1.67582e-17
-1.68371e-17
-1.67316e-17
-1.67791e-17
-1.68295e-17
-1.68844e-17
-1.69327e-17
-1.69841e-17
-1.69024e-17
-1.68316e-17
-1.69296e-17
-1.69985e-17
-1.69266e-17
-1.69982e-17
-1.70014e-17
-1.70107e-17
-1.7066e-17
-1.70695e-17
-1.71222e-17
-1.70584e-17
-1.69738e-17
-1.71739e-17
-1.72128e-17
-1.71902e-17
-1.72418e-17
-1.71431e-17
-1.71122e-17
-1.71107e-17
-1.71947e-17
-1.72298e-17
-1.71925e-17
-1.7319e-17
-1.73054e-17
-1.71553e-17
-1.7186e-17
-1.71873e-17
-1.71006e-17
-1.74074e-17
-1.71718e-17
-1.70146e-17
-1.7147e-17
-1.71604e-17
-1.7185e-17
-1.71587e-17
-1.72109e-17
-1.69244e-17
-1.68149e-17
-1.67674e-17
-1.68462e-17
-1.68191e-17
-1.67796e-17
-1.6744e-17
-1.6846e-17
-1.68933e-17
-1.68855e-17
-1.68412e-17
-1.68998e-17
-1.67913e-17
-1.68388e-17
-1.69095e-17
-1.69444e-17
-1.68937e-17
-1.68599e-17
-1.69829e-17
-1.69716e-17
-1.69962e-17
-1.70111e-17
-1.70334e-17
-1.70613e-17
-1.71194e-17
-1.70665e-17
-1.71373e-17
-1.71896e-17
-1.70803e-17
-1.72279e-17
-1.71751e-17
-1.71713e-17
-1.72452e-17
-1.72127e-17
-1.72892e-17
-1.71695e-17
-1.74166e-17
-1.73424e-17
-1.72323e-17
-1.717e-17
-1.72386e-17
-1.71352e-17
-1.7273e-17
-1.72631e-17
-1.71492e-17
-1.71693e-17
-1.72123e-17
-1.73067e-17
-1.72161e-17
-1.70708e-17
-1.68342e-17
-1.68172e-17
-1.69497e-17
-1.68553e-17
-1.6688e-17
-1.65701e-17
-1.66058e-17
-1.68158e-17
-1.67786e-17
-1.69003e-17
-1.69496e-17
-1.68815e-17
-1.66781e-17
-1.68241e-17
-1.69612e-17
-1.70152e-17
-1.69953e-17
-1.68921e-17
-1.70454e-17
-1.69242e-17
-1.69878e-17
-1.697e-17
-1.70629e-17
-1.69849e-17
-1.70054e-17
-1.71027e-17
-1.72122e-17
-1.71228e-17
-1.71322e-17
-1.72121e-17
-1.7163e-17
-1.71532e-17
-1.72097e-17
-1.71468e-17
-1.72338e-17
-1.71815e-17
-1.72857e-17
-1.7247e-17
-1.72408e-17
-1.73197e-17
-1.73199e-17
-1.71121e-17
-1.71714e-17
-1.71885e-17
-1.71996e-17
-1.71216e-17
-1.71889e-17
-1.72699e-17
-1.69908e-17
-1.71013e-17
-1.68006e-17
-1.67891e-17
-1.67384e-17
-1.69184e-17
-1.67256e-17
-1.6749e-17
-1.68258e-17
-1.67179e-17
-1.67693e-17
-1.68883e-17
-1.68592e-17
-1.68509e-17
-1.67718e-17
-1.68908e-17
-1.70408e-17
-1.69604e-17
-1.69518e-17
-1.69529e-17
-1.70238e-17
-1.69774e-17
-1.70213e-17
-1.70973e-17
-1.7217e-17
-1.70397e-17
-1.70328e-17
-1.71484e-17
-1.72919e-17
-1.707e-17
-1.71976e-17
-1.73115e-17
-1.71304e-17
-1.72497e-17
-1.72166e-17
-1.71529e-17
-1.72639e-17
-1.73215e-17
-1.72483e-17
-1.71767e-17
-1.71552e-17
-1.72715e-17
-1.72729e-17
-1.71609e-17
-1.70581e-17
-1.70892e-17
-1.71926e-17
-1.72624e-17
-1.70947e-17
-1.70785e-17
-1.7092e-17
-1.7145e-17
-1.68524e-17
-1.6793e-17
-1.66994e-17
-1.68515e-17
-1.68131e-17
-1.68359e-17
-1.70072e-17
-1.66751e-17
-1.68865e-17
-1.69036e-17
-1.69752e-17
-1.69678e-17
-1.6802e-17
-1.68609e-17
-1.70421e-17
-1.69456e-17
-1.68815e-17
-1.69879e-17
-1.70622e-17
-1.69831e-17
-1.70529e-17
-1.70732e-17
-1.70888e-17
-1.70083e-17
-1.69983e-17
-1.70208e-17
-1.71414e-17
-1.71137e-17
-1.71243e-17
-1.71268e-17
-1.71764e-17
-1.72266e-17
-1.7191e-17
-1.72538e-17
-1.73195e-17
-1.72684e-17
-1.71897e-17
-1.72523e-17
-1.72166e-17
-1.7244e-17
-1.72405e-17
-1.71562e-17
-1.73585e-17
-1.71154e-17
-1.71749e-17
-1.71187e-17
-1.71985e-17
-1.70468e-17
-1.70055e-17
-1.7151e-17
-1.692e-17
-1.68066e-17
-1.67447e-17
-1.66379e-17
-1.67696e-17
-1.68017e-17
-1.68658e-17
-1.67807e-17
-1.67413e-17
-1.6899e-17
-1.69728e-17
-1.69335e-17
-1.68279e-17
-1.69391e-17
-1.70162e-17
-1.69476e-17
-1.69176e-17
-1.70491e-17
-1.7082e-17
-1.69218e-17
-1.69514e-17
-1.70685e-17
-1.70385e-17
-1.71271e-17
-1.71339e-17
-1.71262e-17
-1.71111e-17
-1.7157e-17
-1.73156e-17
-1.72022e-17
-1.72062e-17
-1.71913e-17
-1.70815e-17
-1.7341e-17
-1.72894e-17
-1.72128e-17
-1.72553e-17
-1.73013e-17
-1.73489e-17
-1.72024e-17
-1.7263e-17
-1.73409e-17
-1.73069e-17
-1.71871e-17
-1.71792e-17
-1.721e-17
-1.73954e-17
-1.71394e-17
-1.70696e-17
-1.72216e-17
-1.67917e-17
-1.67562e-17
-1.6766e-17
-1.67616e-17
-1.66654e-17
-1.67315e-17
-1.65665e-17
-1.6929e-17
-1.69085e-17
-1.69828e-17
-1.69067e-17
-1.70855e-17
-1.69713e-17
-1.69447e-17
-1.68824e-17
-1.69846e-17
-1.70804e-17
-1.69467e-17
-1.6965e-17
-1.6964e-17
-1.69503e-17
-1.71132e-17
-1.71236e-17
-1.73069e-17
-1.71435e-17
-1.71964e-17
-1.72634e-17
-1.72682e-17
-1.72386e-17
-1.71515e-17
-1.72129e-17
-1.73461e-17
-1.72825e-17
-1.72636e-17
-1.72112e-17
-1.72861e-17
-1.72307e-17
-1.72849e-17
-1.73453e-17
-1.74861e-17
-1.74421e-17
-1.72411e-17
-1.7235e-17
-1.72684e-17
-1.7254e-17
-1.71677e-17
-1.72225e-17
-1.71504e-17
-1.68058e-17
-1.67821e-17
-1.67995e-17
-1.65639e-17
-1.65904e-17
-1.65704e-17
-1.68412e-17
-1.68837e-17
-1.69002e-17
-1.68759e-17
-1.70201e-17
-1.69563e-17
-1.69242e-17
-1.69313e-17
-1.69538e-17
-1.70819e-17
-1.69078e-17
-1.69745e-17
-1.68677e-17
-1.70074e-17
-1.72059e-17
-1.71442e-17
-1.73212e-17
-1.71439e-17
-1.72143e-17
-1.72961e-17
-1.7232e-17
-1.73075e-17
-1.71712e-17
-1.72502e-17
-1.72326e-17
-1.72801e-17
-1.73103e-17
-1.72041e-17
-1.73227e-17
-1.72786e-17
-1.73845e-17
-1.73062e-17
-1.73545e-17
-1.73254e-17
-1.73043e-17
-1.72976e-17
-1.72155e-17
-1.71465e-17
-1.71607e-17
-1.72282e-17
-1.72942e-17
-1.68413e-17
-1.6778e-17
-1.67767e-17
-1.67344e-17
-1.68342e-17
-1.69153e-17
-1.68703e-17
-1.68073e-17
-1.7076e-17
-1.69611e-17
-1.68719e-17
-1.69593e-17
-1.68848e-17
-1.70672e-17
-1.69761e-17
-1.70197e-17
-1.71627e-17
-1.70421e-17
-1.71417e-17
-1.72286e-17
-1.71594e-17
-1.70779e-17
-1.7254e-17
-1.69981e-17
-1.719e-17
-1.72732e-17
-1.72238e-17
-1.7291e-17
-1.72668e-17
-1.72471e-17
-1.73839e-17
-1.73168e-17
-1.73707e-17
-1.72225e-17
-1.73516e-17
-1.72899e-17
-1.71846e-17
-1.72289e-17
-1.72416e-17
-1.73332e-17
-1.71879e-17
-1.70989e-17
-1.71638e-17
-1.72127e-17
-1.70805e-17
-1.6884e-17
-1.68921e-17
-1.67417e-17
-1.68473e-17
-1.68018e-17
-1.68593e-17
-1.68558e-17
-1.69217e-17
-1.69557e-17
-1.68685e-17
-1.70322e-17
-1.68553e-17
-1.69934e-17
-1.69775e-17
-1.70246e-17
-1.71584e-17
-1.6999e-17
-1.71529e-17
-1.71183e-17
-1.71299e-17
-1.6919e-17
-1.69897e-17
-1.69631e-17
-1.72199e-17
-1.72472e-17
-1.72365e-17
-1.73637e-17
-1.72684e-17
-1.73153e-17
-1.73615e-17
-1.73647e-17
-1.72599e-17
-1.71456e-17
-1.74083e-17
-1.73261e-17
-1.72439e-17
-1.72233e-17
-1.72179e-17
-1.72416e-17
-1.72379e-17
-1.71234e-17
-1.71361e-17
-1.71459e-17
-1.70906e-17
-1.68085e-17
-1.6912e-17
-1.6896e-17
-1.68036e-17
-1.68612e-17
-1.68743e-17
-1.68374e-17
-1.70375e-17
-1.69616e-17
-1.70434e-17
-1.68062e-17
-1.69582e-17
-1.69412e-17
-1.70447e-17
-1.68202e-17
-1.68346e-17
-1.68876e-17
-1.71024e-17
-1.72455e-17
-1.70602e-17
-1.71205e-17
-1.72976e-17
-1.72278e-17
-1.72336e-17
-1.72039e-17
-1.73431e-17
-1.7169e-17
-1.73981e-17
-1.73497e-17
-1.73477e-17
-1.73118e-17
-1.72919e-17
-1.74102e-17
-1.71446e-17
-1.72613e-17
-1.72533e-17
-1.72506e-17
-1.72051e-17
-1.74091e-17
-1.71069e-17
-1.71665e-17
-1.71295e-17
-1.70356e-17
-1.68102e-17
-1.67575e-17
-1.68462e-17
-1.68788e-17
-1.69547e-17
-1.70107e-17
-1.70068e-17
-1.69288e-17
-1.68618e-17
-1.69529e-17
-1.6877e-17
-1.71872e-17
-1.67476e-17
-1.68986e-17
-1.69873e-17
-1.72562e-17
-1.72259e-17
-1.71204e-17
-1.72123e-17
-1.72493e-17
-1.72205e-17
-1.72019e-17
-1.70523e-17
-1.74294e-17
-1.73785e-17
-1.74289e-17
-1.7375e-17
-1.73854e-17
-1.73374e-17
-1.73695e-17
-1.72794e-17
-1.72399e-17
-1.73077e-17
-1.72407e-17
-1.73339e-17
-1.71601e-17
-1.72454e-17
-1.71675e-17
-1.72109e-17
-1.7185e-17
-1.70546e-17
-1.68743e-17
-1.68356e-17
-1.69201e-17
-1.69582e-17
-1.69514e-17
-1.69665e-17
-1.69346e-17
-1.67337e-17
-1.6954e-17
-1.71295e-17
-1.72164e-17
-1.67868e-17
-1.68352e-17
-1.70295e-17
-1.73552e-17
-1.73866e-17
-1.71332e-17
-1.73186e-17
-1.722e-17
-1.72108e-17
-1.72216e-17
-1.70595e-17
-1.72525e-17
-1.73815e-17
-1.73521e-17
-1.7384e-17
-1.74382e-17
-1.73011e-17
-1.74618e-17
-1.72158e-17
-1.72308e-17
-1.7384e-17
-1.71608e-17
-1.72386e-17
-1.71913e-17
-1.72428e-17
-1.72197e-17
-1.71927e-17
-1.73536e-17
-1.71541e-17
-1.69031e-17
-1.69367e-17
-1.69498e-17
-1.67487e-17
-1.69511e-17
-1.69908e-17
-1.70178e-17
-1.6944e-17
-1.69637e-17
-1.70461e-17
-1.73962e-17
-1.71768e-17
-1.7071e-17
-1.7183e-17
-1.71912e-17
-1.71967e-17
-1.72414e-17
-1.72241e-17
-1.74205e-17
-1.74131e-17
-1.72723e-17
-1.7417e-17
-1.73846e-17
-1.73749e-17
-1.75286e-17
-1.7211e-17
-1.72709e-17
-1.73902e-17
-1.71249e-17
-1.71313e-17
-1.72225e-17
-1.73079e-17
-1.72997e-17
-1.72328e-17
-1.71384e-17
-1.70848e-17
-1.69731e-17
-1.68879e-17
-1.68451e-17
-1.69419e-17
-1.70108e-17
-1.70288e-17
-1.7187e-17
-1.71417e-17
-1.70769e-17
-1.70776e-17
-1.71647e-17
-1.7147e-17
-1.71903e-17
-1.71615e-17
-1.71781e-17
-1.7443e-17
-1.73766e-17
-1.74682e-17
-1.73402e-17
-1.74168e-17
-1.7344e-17
-1.72168e-17
-1.72231e-17
-1.72918e-17
-1.71435e-17
-1.72006e-17
-1.72337e-17
-1.73385e-17
-1.72444e-17
-1.71742e-17
-1.70569e-17
-1.70264e-17
-1.69662e-17
-1.68958e-17
-1.70579e-17
-1.7014e-17
-1.72323e-17
-1.72991e-17
-1.70396e-17
-1.69138e-17
-1.71536e-17
-1.70308e-17
-1.70859e-17
-1.7301e-17
-1.72048e-17
-1.75265e-17
-1.74897e-17
-1.74923e-17
-1.73623e-17
-1.74784e-17
-1.73561e-17
-1.72461e-17
-1.72321e-17
-1.72128e-17
-1.72318e-17
-1.72867e-17
-1.72731e-17
-1.72409e-17
-1.71698e-17
-1.71619e-17
-1.71047e-17
-1.70847e-17
-1.71048e-17
-1.72884e-17
-1.69322e-17
-1.6873e-17
-1.7183e-17
-1.71696e-17
-1.72317e-17
-1.74312e-17
-1.75156e-17
-1.76633e-17
-1.7323e-17
-1.74468e-17
-1.72732e-17
-1.73286e-17
-1.73135e-17
-1.71416e-17
-1.73871e-17
-1.72664e-17
-1.72094e-17
-1.73416e-17
-1.71576e-17
-1.7249e-17
-1.71412e-17
-1.71535e-17
-1.7093e-17
-1.71182e-17
-1.72298e-17
-1.7247e-17
-1.75145e-17
-1.74897e-17
-1.78375e-17
-1.71613e-17
-1.76517e-17
-1.7403e-17
-1.73309e-17
-1.72073e-17
-1.71976e-17
-1.74059e-17
-1.72608e-17
-1.72751e-17
-1.73145e-17
-1.7194e-17
-1.71675e-17
-1.71306e-17
-1.7146e-17
-1.70548e-17
-1.71713e-17
-1.75197e-17
-1.77864e-17
-1.70229e-17
-1.78016e-17
-1.74267e-17
-1.74166e-17
-1.73562e-17
-1.73066e-17
-1.73787e-17
-1.72252e-17
-1.73212e-17
-1.73061e-17
-1.72233e-17
-1.71943e-17
-1.71521e-17
-1.71473e-17
-1.71158e-17
-1.71558e-17
-1.69578e-17
-1.79008e-17
-1.75443e-17
-1.73889e-17
-1.73547e-17
-1.73222e-17
-1.73428e-17
-1.72541e-17
-1.72056e-17
-1.71954e-17
-1.71546e-17
-1.71603e-17
-1.7163e-17
-1.70624e-17
-1.71493e-17
-1.70952e-17
-1.66636e-17
-1.8236e-17
-1.75431e-17
-1.74574e-17
-1.7327e-17
-1.72769e-17
-1.73047e-17
-1.72751e-17
-1.72448e-17
-1.72334e-17
-1.72028e-17
-1.70094e-17
-1.71127e-17
-1.69369e-17
-1.72145e-17
-1.70874e-17
-1.29938e-17
-1.82245e-17
-1.74873e-17
-1.74758e-17
-1.74023e-17
-1.72161e-17
-1.73054e-17
-1.73105e-17
-1.72537e-17
-1.71862e-17
-1.72154e-17
-1.71654e-17
-1.71256e-17
-1.70936e-17
-1.72006e-17
-1.70791e-17
-1.74359e-17
-1.73148e-17
-1.71934e-17
-1.73124e-17
-1.73671e-17
-1.7207e-17
-1.70397e-17
-1.73185e-17
-1.72872e-17
-1.70614e-17
-1.72477e-17
-1.70404e-17
-1.70686e-17
-1.72188e-17
-1.70114e-17
-1.7263e-17
-1.71848e-17
-1.71438e-17
-1.73142e-17
-1.70466e-17
-1.70771e-17
-1.71577e-17
-1.71046e-17
-1.71147e-17
-1.71549e-17
-1.70366e-17
-1.6878e-17
-1.69131e-17
-1.69317e-17
-1.7023e-17
-1.69284e-17
-1.69195e-17
-1.68883e-17
-1.68167e-17
-1.69913e-17
-1.69241e-17
-1.68197e-17
-1.70571e-17
-1.69548e-17
-1.6977e-17
-1.68105e-17
-1.69871e-17
-1.69212e-17
-1.69428e-17
-1.67871e-17
-1.69555e-17
-1.67814e-17
-1.68472e-17
-1.69829e-17
-1.68879e-17
-1.68605e-17
-1.68436e-17
-1.68185e-17
-1.68209e-17
-1.69237e-17
-1.69718e-17
-1.68261e-17
-1.6945e-17
-1.6783e-17
-1.69835e-17
-1.69378e-17
-1.69083e-17
-1.69431e-17
-1.701e-17
-1.68822e-17
-1.67698e-17
-1.67433e-17
-1.68618e-17
-1.6869e-17
-1.68798e-17
-1.68773e-17
-1.68924e-17
-1.69971e-17
-1.69952e-17
-1.68682e-17
-1.68672e-17
-1.68581e-17
-1.68135e-17
-1.67192e-17
-1.67805e-17
-1.66773e-17
-1.68328e-17
-1.69748e-17
-1.68215e-17
-1.6768e-17
-1.68104e-17
-1.69824e-17
-1.70417e-17
-1.69617e-17
-1.70156e-17
-1.69497e-17
-1.69175e-17
-1.69049e-17
-1.68669e-17
-1.68612e-17
-1.68902e-17
-1.68532e-17
-1.67622e-17
-1.68546e-17
-1.68424e-17
-1.68191e-17
-1.67248e-17
-1.68616e-17
-1.69377e-17
-1.6872e-17
-1.68401e-17
-1.68296e-17
-1.68445e-17
-1.68815e-17
-1.6979e-17
-1.69337e-17
-1.70196e-17
-1.70299e-17
-1.69009e-17
-1.68133e-17
-1.68909e-17
-1.69158e-17
-1.69496e-17
-1.69894e-17
-1.69223e-17
-1.7007e-17
-1.69125e-17
-1.68869e-17
-1.68891e-17
-1.68484e-17
-1.67125e-17
-1.6729e-17
-1.67082e-17
-1.66946e-17
-1.67134e-17
-1.68066e-17
-1.67364e-17
-1.68081e-17
-1.68434e-17
-1.68211e-17
-1.68141e-17
-1.69543e-17
-1.68681e-17
-1.69164e-17
-1.70084e-17
-1.70274e-17
-1.69267e-17
-1.68617e-17
-1.68237e-17
-1.69089e-17
-1.69027e-17
-1.68135e-17
-1.67902e-17
-1.68961e-17
-1.68813e-17
-1.69007e-17
-1.6881e-17
-1.67662e-17
-1.67376e-17
-1.68383e-17
-1.68418e-17
-1.68808e-17
-1.69854e-17
-1.6871e-17
-1.68027e-17
-1.67527e-17
-1.67857e-17
-1.66597e-17
-1.65694e-17
-1.66974e-17
-1.68239e-17
-1.67857e-17
-1.67855e-17
-1.68985e-17
-1.69068e-17
-1.68461e-17
-1.69098e-17
-1.69879e-17
-1.69251e-17
-1.68962e-17
-1.68858e-17
-1.68073e-17
-1.67869e-17
-1.68796e-17
-1.69071e-17
-1.69814e-17
-1.69127e-17
-1.68807e-17
-1.67996e-17
-1.69712e-17
-1.69139e-17
-1.68642e-17
-1.68811e-17
-1.69653e-17
-1.68427e-17
-1.68163e-17
-1.69099e-17
-1.68291e-17
-1.68005e-17
-1.68172e-17
-1.68045e-17
-1.68956e-17
-1.69166e-17
-1.6922e-17
-1.69203e-17
-1.68599e-17
-1.69165e-17
-1.69365e-17
-1.69406e-17
-1.69062e-17
-1.6883e-17
-1.68839e-17
-1.69106e-17
-1.70049e-17
-1.70367e-17
-1.68875e-17
-1.68449e-17
-1.67925e-17
-1.68331e-17
-1.68374e-17
-1.68385e-17
-1.68425e-17
-1.68318e-17
-1.68615e-17
-1.68945e-17
-1.68241e-17
-1.66436e-17
-1.68988e-17
-1.69816e-17
-1.692e-17
-1.6846e-17
-1.69303e-17
-1.69395e-17
-1.69071e-17
-1.69559e-17
-1.69974e-17
-1.70094e-17
-1.6913e-17
-1.68858e-17
-1.68294e-17
-1.69341e-17
-1.68426e-17
-1.69631e-17
-1.67907e-17
-1.68887e-17
-1.6827e-17
-1.6741e-17
-1.67347e-17
-1.67123e-17
-1.66859e-17
-1.68048e-17
-1.69777e-17
-1.70163e-17
-1.69405e-17
-1.66779e-17
-1.68346e-17
-1.69245e-17
-1.69104e-17
-1.68079e-17
-1.69211e-17
-1.69298e-17
-1.68774e-17
-1.70326e-17
-1.71469e-17
-1.69285e-17
-1.68065e-17
-1.68775e-17
-1.68819e-17
-1.68915e-17
-1.68543e-17
-1.68827e-17
-1.68533e-17
-1.69455e-17
-1.67545e-17
-1.68373e-17
-1.69315e-17
-1.68402e-17
-1.67127e-17
-1.67282e-17
-1.68446e-17
-1.69798e-17
-1.68424e-17
-1.68334e-17
-1.67661e-17
-1.69172e-17
-1.6915e-17
-1.67298e-17
-1.68984e-17
-1.69333e-17
-1.69474e-17
-1.69655e-17
-1.69648e-17
-1.68752e-17
-1.68982e-17
-1.69137e-17
-1.68991e-17
-1.68794e-17
-1.6756e-17
-1.68449e-17
-1.68194e-17
-1.68786e-17
-1.6819e-17
-1.68594e-17
-1.68718e-17
-1.68566e-17
-1.69035e-17
-1.68981e-17
-1.6844e-17
-1.68277e-17
-1.67133e-17
-1.68902e-17
-1.69475e-17
-1.70167e-17
-1.703e-17
-1.68991e-17
-1.69249e-17
-1.69567e-17
-1.70096e-17
-1.69884e-17
-1.69563e-17
-1.71089e-17
-1.70309e-17
-1.69826e-17
-1.69168e-17
-1.69472e-17
-1.68304e-17
-1.68944e-17
-1.69724e-17
-1.68786e-17
-1.67943e-17
-1.68973e-17
-1.6842e-17
-1.66998e-17
-1.67287e-17
-1.67477e-17
-1.68442e-17
-1.68326e-17
-1.67782e-17
-1.67223e-17
-1.70326e-17
-1.69607e-17
-1.69353e-17
-1.69026e-17
-1.6945e-17
-1.70017e-17
-1.69231e-17
-1.68381e-17
-1.68968e-17
-1.6994e-17
-1.69317e-17
-1.69802e-17
-1.69196e-17
-1.69011e-17
-1.7064e-17
-1.69826e-17
-1.69827e-17
-1.68802e-17
-1.68863e-17
-1.70315e-17
-1.68623e-17
-1.67523e-17
-1.67899e-17
-1.67678e-17
-1.68179e-17
-1.6834e-17
-1.67738e-17
-1.6802e-17
-1.70279e-17
-1.69517e-17
-1.68489e-17
-1.68343e-17
-1.69925e-17
-1.69494e-17
-1.69178e-17
-1.68927e-17
-1.68009e-17
-1.67264e-17
-1.68496e-17
-1.69123e-17
-1.69654e-17
-1.68123e-17
-1.69204e-17
-1.69133e-17
-1.68589e-17
-1.68563e-17
-1.67889e-17
-1.6794e-17
-1.69626e-17
-1.68949e-17
-1.67873e-17
-1.66791e-17
-1.67206e-17
-1.67941e-17
-1.67222e-17
-1.6829e-17
-1.69594e-17
-1.69962e-17
-1.69252e-17
-1.6836e-17
-1.70084e-17
-1.70002e-17
-1.69485e-17
-1.69885e-17
-1.68881e-17
-1.68489e-17
-1.68308e-17
-1.68949e-17
-1.6903e-17
-1.68525e-17
-1.69912e-17
-1.69602e-17
-1.67806e-17
-1.68317e-17
-1.68389e-17
-1.67452e-17
-1.70486e-17
-1.67919e-17
-1.66253e-17
-1.67805e-17
-1.6809e-17
-1.68449e-17
-1.68299e-17
-1.69202e-17
-1.69025e-17
-1.68831e-17
-1.69325e-17
-1.6889e-17
-1.69319e-17
-1.67866e-17
-1.70589e-17
-1.69737e-17
-1.68515e-17
-1.67875e-17
-1.6872e-17
-1.67317e-17
-1.68904e-17
-1.68779e-17
-1.67696e-17
-1.67901e-17
-1.68462e-17
-1.69589e-17
-1.68798e-17
-1.67584e-17
-1.69832e-17
-1.67523e-17
-1.67758e-17
-1.6798e-17
-1.68134e-17
-1.67298e-17
-1.6806e-17
-1.68997e-17
-1.66395e-17
-1.67722e-17
-1.68057e-17
-1.6877e-17
-1.66983e-17
-1.66844e-17
-1.67277e-17
-1.68e-17
-1.66636e-17
-1.66418e-17
-1.67921e-17
-1.67629e-17
-1.67665e-17
-1.68354e-17
-1.68913e-17
-1.67604e-17
-1.6774e-17
-1.66645e-17
-1.6651e-17
-1.68169e-17
-1.68724e-17
-1.68889e-17
-1.69215e-17
-1.70469e-17
-1.69154e-17
-1.68667e-17
-1.69542e-17
-1.69826e-17
-1.69409e-17
-1.69402e-17
-1.68382e-17
-1.67971e-17
-1.67546e-17
-1.68487e-17
-1.68228e-17
-1.68502e-17
-1.68524e-17
-1.68493e-17
-1.68445e-17
-1.68775e-17
-1.6975e-17
-1.6707e-17
-1.67316e-17
-1.66692e-17
-1.677e-17
-1.68381e-17
-1.68425e-17
-1.68354e-17
-1.67976e-17
-1.67044e-17
-1.69137e-17
-1.68053e-17
-1.68316e-17
-1.68897e-17
-1.68552e-17
-1.67891e-17
-1.68403e-17
-1.68534e-17
-1.68576e-17
-1.68376e-17
-1.68117e-17
-1.67636e-17
-1.66698e-17
-1.67957e-17
-1.68211e-17
-1.68133e-17
-1.68144e-17
-1.68421e-17
-1.68666e-17
-1.69286e-17
-1.7035e-17
-1.69026e-17
-1.68338e-17
-1.67878e-17
-1.66654e-17
-1.68053e-17
-1.69591e-17
-1.69152e-17
-1.67465e-17
-1.67512e-17
-1.70349e-17
-1.70612e-17
-1.69109e-17
-1.68691e-17
-1.68838e-17
-1.69169e-17
-1.70283e-17
-1.69174e-17
-1.67972e-17
-1.66747e-17
-1.68513e-17
-1.70186e-17
-1.69457e-17
-1.69978e-17
-1.68805e-17
-1.68073e-17
-1.67542e-17
-1.66571e-17
-1.67469e-17
-1.68146e-17
-1.68165e-17
-1.68125e-17
-1.68099e-17
-1.68365e-17
-1.68684e-17
-1.6863e-17
-1.68425e-17
-1.68999e-17
-1.70701e-17
-1.7119e-17
-1.7081e-17
-1.68807e-17
-1.6754e-17
-1.70286e-17
-1.70959e-17
-1.69805e-17
-1.7039e-17
-1.68745e-17
-1.67094e-17
-1.68684e-17
-1.70321e-17
-1.69038e-17
-1.68757e-17
-1.68673e-17
-1.68583e-17
-1.68116e-17
-1.69133e-17
-1.69306e-17
-1.70509e-17
-1.70126e-17
-1.68188e-17
-1.6892e-17
-1.69111e-17
-1.68674e-17
-1.68588e-17
-1.68725e-17
-1.69133e-17
-1.68735e-17
-1.6866e-17
-1.69306e-17
-1.68847e-17
-1.69186e-17
-1.6861e-17
-1.6855e-17
-1.68943e-17
-1.69495e-17
-1.66939e-17
-1.68376e-17
-1.69684e-17
-1.67073e-17
-1.68392e-17
-1.69524e-17
-1.67099e-17
-1.67872e-17
-1.68149e-17
-1.68071e-17
-1.68034e-17
-1.67547e-17
-1.66246e-17
-1.67401e-17
-1.67859e-17
-1.67752e-17
-1.67601e-17
-1.67144e-17
-1.65868e-17
-1.66604e-17
-1.66121e-17
-1.67382e-17
-1.68107e-17
-1.68904e-17
-1.68432e-17
-1.70264e-17
-1.7025e-17
-1.691e-17
-1.69763e-17
-1.69883e-17
-1.69212e-17
-1.68756e-17
-1.68768e-17
-1.68792e-17
-1.68453e-17
-1.68132e-17
-1.6917e-17
-1.68834e-17
-1.68724e-17
-1.68203e-17
-1.68105e-17
-1.68115e-17
-1.66448e-17
-1.66128e-17
-1.68295e-17
-1.7023e-17
-1.69139e-17
-1.68666e-17
-1.6866e-17
-1.68449e-17
-1.68507e-17
-1.68603e-17
-1.68444e-17
-1.68581e-17
-1.69125e-17
-1.70326e-17
-1.69176e-17
-1.68521e-17
-1.67939e-17
-1.6726e-17
-1.69782e-17
-1.69069e-17
-1.68544e-17
-1.68597e-17
-1.69196e-17
-1.70028e-17
-1.69229e-17
-1.68666e-17
-1.70174e-17
-1.69629e-17
-1.69122e-17
-1.68473e-17
-1.69033e-17
-1.69469e-17
-1.68217e-17
-1.68778e-17
-1.69169e-17
-1.6786e-17
-1.68042e-17
-1.67975e-17
-1.68929e-17
-1.69778e-17
-1.66745e-17
-1.66833e-17
-1.70285e-17
-1.71082e-17
-1.70655e-17
-1.69121e-17
-1.6921e-17
-1.69747e-17
-1.67076e-17
-1.6858e-17
-1.70173e-17
-1.68495e-17
-1.66733e-17
-1.67153e-17
-1.66678e-17
-1.67864e-17
-1.68997e-17
-1.69967e-17
-1.68738e-17
-1.68804e-17
-1.70353e-17
-1.70866e-17
-1.69815e-17
-1.66379e-17
-1.65882e-17
-1.67559e-17
-1.68343e-17
-1.69859e-17
-1.6931e-17
-1.68784e-17
-1.69092e-17
-1.69234e-17
-1.70335e-17
-1.70261e-17
-1.69595e-17
-1.7015e-17
-1.70111e-17
-1.68831e-17
-1.68075e-17
-1.68069e-17
-1.68466e-17
-1.6876e-17
-1.68463e-17
-1.66883e-17
-1.68118e-17
-1.68552e-17
-1.69213e-17
-1.6867e-17
-1.68337e-17
-1.68823e-17
-1.70473e-17
-1.69722e-17
-1.70155e-17
-1.689e-17
-1.68444e-17
-1.67804e-17
-1.6649e-17
-1.67953e-17
-1.68659e-17
-1.68976e-17
-1.69482e-17
-1.67633e-17
-1.69199e-17
-1.67625e-17
-1.69401e-17
-1.6888e-17
-1.68463e-17
-1.68478e-17
-1.68578e-17
-1.68597e-17
-1.68498e-17
-1.68244e-17
-1.68167e-17
-1.68313e-17
-1.68437e-17
-1.6985e-17
-1.68648e-17
-1.70086e-17
-1.68356e-17
-1.68514e-17
-1.70357e-17
-1.70413e-17
-1.6855e-17
-1.69317e-17
-1.69336e-17
-1.68323e-17
-1.68778e-17
-1.68805e-17
-1.68271e-17
-1.69167e-17
-1.69547e-17
-1.68889e-17
-1.69196e-17
-1.68291e-17
-1.68217e-17
-1.67006e-17
-1.67623e-17
-1.67423e-17
-1.70215e-17
-1.69285e-17
-1.68749e-17
-1.68576e-17
-1.68425e-17
-1.68603e-17
-1.69122e-17
-1.70758e-17
-1.70723e-17
-1.69042e-17
-1.68615e-17
-1.69031e-17
-1.70636e-17
-1.69968e-17
-1.67192e-17
-1.67846e-17
-1.68255e-17
-1.68373e-17
-1.68346e-17
-1.68186e-17
-1.6843e-17
-1.68439e-17
-1.68355e-17
-1.68259e-17
-1.68383e-17
-1.71019e-17
-1.69656e-17
-1.69741e-17
-1.69439e-17
-1.69305e-17
-1.70073e-17
-1.69402e-17
-1.68422e-17