/*--------------------------------*- C++ -*----------------------------------*\
  =========                 |
  \\      /  F ield         | OpenFOAM: The Open Source CFD Toolbox
   \\    /   O peration     | Website:  https://openfoam.org
    \\  /    A nd           | Version:  7
     \\/     M anipulation  |
\*---------------------------------------------------------------------------*/
FoamFile
{
    version     2.0;
    format      ascii;
    class       volScalarField;
    location    "4000";
    object      omega;
}
// * * * * * * * * * * * * * * * * * * * * * * * * * * * * * * * * * * * * * //

dimensions      [0 0 -1 0 0 0 0];

internalField   nonuniform List<scalar> 
4764
(
0.105348
0.104908
0.104511
0.104158
0.103848
0.103583
0.1136
0.112762
0.111966
0.111211
0.110499
0.109829
0.109203
0.10862
0.108082
0.107587
0.107137
0.106732
0.106371
0.106055
0.105784
0.105557
0.105377
0.105241
0.10515
0.105105
0.105105
0.10515
0.105241
0.105376
0.105557
0.105782
0.106053
0.106369
0.10673
0.116034
0.115178
0.114364
0.113593
0.112865
0.11218
0.111541
0.110945
0.110395
0.10989
0.10943
0.109015
0.108647
0.108324
0.108047
0.107816
0.107631
0.107492
0.107399
0.107353
0.107353
0.107399
0.107492
0.10763
0.107815
0.108045
0.108322
0.108645
0.109013
0.109428
0.109888
0.110393
0.110944
0.118539
0.117664
0.116832
0.116043
0.115299
0.114599
0.113945
0.113336
0.112774
0.112257
0.111787
0.111364
0.110987
0.110657
0.110374
0.110138
0.109949
0.109807
0.109713
0.109666
0.109665
0.109712
0.109807
0.109948
0.110137
0.110372
0.110655
0.110985
0.111362
0.111785
0.112256
0.112772
0.113335
0.113944
0.114599
0.115298
0.116042
0.116831
0.117664
0.118539
0.119457
0.120416
0.121416
0.122456
0.123538
0.121117
0.120222
0.119371
0.118564
0.117803
0.117088
0.116419
0.115797
0.115222
0.114694
0.114213
0.11378
0.113395
0.113058
0.112769
0.112527
0.112334
0.112189
0.112092
0.112044
0.112044
0.112092
0.112189
0.112333
0.112526
0.112767
0.113056
0.113393
0.113778
0.114211
0.114692
0.11522
0.115796
0.116418
0.117088
0.117803
0.118564
0.11937
0.120222
0.121117
0.122056
0.123036
0.124059
0.125123
0.12623
0.12377
0.122855
0.121984
0.12116
0.120381
0.11965
0.118966
0.11833
0.117741
0.117202
0.11671
0.116267
0.115874
0.115529
0.115233
0.114986
0.114789
0.11464
0.114542
0.114492
0.114492
0.114541
0.11464
0.114788
0.114985
0.115231
0.115527
0.115872
0.116265
0.116708
0.1172
0.11774
0.118328
0.118965
0.119649
0.120381
0.121159
0.121984
0.122855
0.123771
0.124731
0.125734
0.12678
0.127869
0.129002
0.126503
0.125567
0.124676
0.123832
0.123036
0.122288
0.121588
0.120937
0.120336
0.119784
0.119281
0.118828
0.118425
0.118073
0.11777
0.117518
0.117316
0.117164
0.117063
0.117013
0.117013
0.117063
0.117164
0.117315
0.117517
0.117769
0.118071
0.118423
0.118826
0.119279
0.119782
0.120334
0.120936
0.121587
0.122287
0.123036
0.123832
0.124676
0.125567
0.126504
0.127486
0.128513
0.129583
0.130698
0.131857
0.129319
0.12836
0.127449
0.126586
0.125771
0.125005
0.124289
0.123624
0.123008
0.122443
0.121929
0.121466
0.121054
0.120693
0.120384
0.120125
0.119919
0.119764
0.11966
0.119609
0.119609
0.11966
0.119763
0.119918
0.120124
0.120382
0.120691
0.121052
0.121464
0.121927
0.122441
0.123006
0.123622
0.124289
0.125005
0.125771
0.126585
0.127449
0.128361
0.129319
0.130325
0.131375
0.132471
0.133612
0.134799
0.13222
0.131239
0.130307
0.129423
0.128589
0.127806
0.127073
0.126392
0.125762
0.125183
0.124657
0.124183
0.123762
0.123393
0.123076
0.122812
0.122601
0.122442
0.122336
0.122284
0.122283
0.122336
0.122442
0.1226
0.122811
0.123074
0.123391
0.12376
0.124181
0.124655
0.125182
0.12576
0.12639
0.127072
0.127805
0.128589
0.129423
0.130307
0.13124
0.132221
0.13325
0.134326
0.135448
0.136615
0.137831
0.135212
0.134207
0.133253
0.132348
0.131494
0.130692
0.129942
0.129245
0.1286
0.128008
0.12747
0.126985
0.126553
0.126176
0.125851
0.125581
0.125365
0.125202
0.125094
0.12504
0.12504
0.125094
0.125202
0.125364
0.12558
0.12585
0.126174
0.126551
0.126983
0.127468
0.128007
0.128598
0.129244
0.129942
0.130692
0.131494
0.132348
0.133253
0.134208
0.135213
0.136266
0.137368
0.138517
0.139712
0.140957
0.138297
0.137269
0.136291
0.135365
0.134491
0.133669
0.132902
0.132187
0.131527
0.130921
0.13037
0.129873
0.129432
0.129045
0.128713
0.128437
0.128215
0.128049
0.127938
0.127883
0.127883
0.127938
0.128048
0.128214
0.128435
0.128711
0.129043
0.129429
0.129871
0.130368
0.13092
0.131525
0.132186
0.132901
0.133669
0.13449
0.135364
0.136291
0.137269
0.138298
0.139377
0.140506
0.141682
0.142907
0.144182
0.141481
0.140427
0.139426
0.138477
0.137582
0.136741
0.135954
0.135223
0.134547
0.133926
0.133362
0.132853
0.132401
0.132005
0.131665
0.131382
0.131155
0.130985
0.130872
0.130815
0.130815
0.130871
0.130985
0.131154
0.131381
0.131663
0.132003
0.132399
0.132851
0.13336
0.133925
0.134545
0.135222
0.135953
0.13674
0.137582
0.138477
0.139426
0.140428
0.141482
0.142587
0.143743
0.144949
0.146204
0.14751
0.144767
0.143688
0.142661
0.141689
0.140772
0.139911
0.139105
0.138356
0.137663
0.137028
0.136449
0.135928
0.135465
0.135059
0.134711
0.134421
0.134189
0.134015
0.133899
0.133841
0.13384
0.133899
0.134014
0.134188
0.13442
0.13471
0.135057
0.135463
0.135926
0.136447
0.137026
0.137661
0.138354
0.139104
0.13991
0.140772
0.141689
0.142662
0.143688
0.144768
0.145901
0.147085
0.14832
0.149607
0.150946
0.149321
0.14816
0.147054
0.146002
0.145006
0.144067
0.143184
0.142358
0.14159
0.140881
0.140229
0.139637
0.139103
0.138628
0.138213
0.137856
0.137559
0.137321
0.137143
0.137024
0.136964
0.136964
0.137024
0.137142
0.13732
0.137558
0.137855
0.138211
0.138626
0.139101
0.139635
0.140228
0.140879
0.141589
0.142357
0.143183
0.144066
0.145006
0.146003
0.147055
0.148162
0.149322
0.150536
0.151802
0.153121
0.154494
0.152855
0.151666
0.150532
0.149454
0.148433
0.147469
0.146565
0.145718
0.144932
0.144204
0.143537
0.142929
0.142382
0.141896
0.14147
0.141105
0.1408
0.140556
0.140373
0.140252
0.140191
0.14019
0.140251
0.140373
0.140555
0.140799
0.141103
0.141468
0.141894
0.14238
0.142927
0.143535
0.144202
0.14493
0.145717
0.146564
0.147469
0.148433
0.149454
0.150533
0.151667
0.152857
0.154102
0.1554
0.156752
0.15816
0.156509
0.155289
0.154126
0.153021
0.151974
0.150986
0.150058
0.149191
0.148384
0.147638
0.146954
0.146331
0.145771
0.145272
0.144835
0.144461
0.144149
0.143899
0.143712
0.143586
0.143524
0.143524
0.143586
0.143711
0.143898
0.144147
0.144459
0.144833
0.14527
0.145768
0.146329
0.146952
0.147636
0.148382
0.14919
0.150058
0.150986
0.151974
0.153021
0.154127
0.15529
0.156511
0.157787
0.159118
0.160504
0.161949
0.161595
0.160286
0.159035
0.157842
0.156708
0.155635
0.154622
0.15367
0.152781
0.151953
0.151189
0.150487
0.149848
0.149273
0.148762
0.148314
0.14793
0.14761
0.147354
0.147162
0.147034
0.14697
0.14697
0.147033
0.147161
0.147353
0.147609
0.147929
0.148312
0.14876
0.149271
0.149846
0.150485
0.151187
0.151952
0.15278
0.15367
0.154622
0.155635
0.156709
0.157843
0.159037
0.160288
0.161597
0.162963
0.164385
0.165867
0.165536
0.164194
0.16291
0.161686
0.160523
0.159422
0.158382
0.157406
0.156494
0.155645
0.154861
0.154141
0.153486
0.152896
0.152371
0.151912
0.151519
0.15119
0.150928
0.15073
0.150599
0.150533
0.150533
0.150599
0.15073
0.150926
0.151189
0.151517
0.15191
0.152369
0.152894
0.153484
0.154139
0.154859
0.155643
0.156492
0.157406
0.158382
0.159422
0.160524
0.161687
0.162912
0.164196
0.165539
0.16694
0.168399
0.169921
0.171054
0.169616
0.168237
0.16692
0.165664
0.164471
0.16334
0.162274
0.161272
0.160336
0.159465
0.15866
0.157921
0.15725
0.156644
0.156106
0.155635
0.155231
0.154894
0.154625
0.154423
0.154288
0.15422
0.15422
0.154287
0.154422
0.154624
0.154893
0.155229
0.155633
0.156104
0.156642
0.157247
0.15792
0.158658
0.159463
0.160335
0.161271
0.162274
0.16334
0.164471
0.165665
0.166922
0.16824
0.169618
0.171056
0.172554
0.174116
0.175316
0.173839
0.172424
0.171072
0.169783
0.168558
0.167397
0.166303
0.165275
0.164313
0.16342
0.162593
0.161835
0.161146
0.160525
0.159972
0.159489
0.159074
0.158729
0.158452
0.158245
0.158106
0.158037
0.158037
0.158106
0.158244
0.158451
0.158727
0.159072
0.159487
0.15997
0.160522
0.161144
0.161833
0.162591
0.163418
0.164312
0.165274
0.166303
0.167398
0.168558
0.169784
0.171074
0.172427
0.173842
0.175318
0.176856
0.17846
0.179731
0.178215
0.176762
0.175373
0.174049
0.172791
0.1716
0.170476
0.16942
0.168433
0.167516
0.166667
0.165889
0.165181
0.164543
0.163976
0.16348
0.163054
0.1627
0.162416
0.162203
0.16206
0.161989
0.161989
0.16206
0.162202
0.162414
0.162698
0.163052
0.163478
0.163974
0.164541
0.165179
0.165887
0.166665
0.167514
0.168432
0.169419
0.170476
0.1716
0.172792
0.17405
0.175375
0.176764
0.178217
0.179733
0.181313
0.18296
0.184307
0.182749
0.181257
0.17983
0.178471
0.177178
0.175955
0.1748
0.173716
0.172702
0.17176
0.170889
0.170089
0.169362
0.168707
0.168125
0.167615
0.167178
0.166814
0.166523
0.166304
0.166158
0.166085
0.166085
0.166157
0.166303
0.166521
0.166812
0.167177
0.167613
0.168123
0.168705
0.16936
0.170087
0.170887
0.171758
0.172701
0.173715
0.1748
0.175955
0.177179
0.178472
0.179832
0.181259
0.182752
0.184309
0.185932
0.187625
0.189052
0.187452
0.185918
0.184452
0.183055
0.181727
0.18047
0.179284
0.17817
0.177129
0.176161
0.175266
0.174444
0.173697
0.173025
0.172426
0.171903
0.171454
0.17108
0.17078
0.170556
0.170406
0.170331
0.17033
0.170405
0.170555
0.170779
0.171078
0.171452
0.171901
0.172424
0.173022
0.173695
0.174442
0.175264
0.176159
0.177127
0.178169
0.179284
0.18047
0.181728
0.183056
0.184454
0.18592
0.187454
0.189054
0.190722
0.192462
0.19569
0.193975
0.19233
0.190754
0.189247
0.187811
0.186446
0.185154
0.183935
0.182791
0.18172
0.180725
0.179806
0.178962
0.178194
0.177503
0.176888
0.17635
0.175889
0.175504
0.175196
0.174966
0.174811
0.174734
0.174734
0.174811
0.174965
0.175195
0.175502
0.175887
0.176348
0.176886
0.1775
0.178192
0.17896
0.179804
0.180723
0.181719
0.18279
0.183935
0.185155
0.186447
0.187812
0.189249
0.190756
0.192332
0.193978
0.195692
0.197481
0.202689
0.200849
0.199085
0.197394
0.195773
0.194224
0.192748
0.191345
0.190016
0.188763
0.187586
0.186486
0.185463
0.184518
0.18365
0.182861
0.18215
0.181518
0.180965
0.180491
0.180096
0.179779
0.179542
0.179384
0.179305
0.179304
0.179383
0.179541
0.179778
0.180094
0.180489
0.180963
0.181516
0.182148
0.182858
0.183648
0.184515
0.185461
0.186484
0.187585
0.188763
0.190017
0.191346
0.192749
0.194226
0.195775
0.197396
0.199088
0.200851
0.202691
0.2081
0.206207
0.204393
0.202653
0.200986
0.199393
0.197874
0.196432
0.195065
0.193776
0.192566
0.191435
0.190383
0.189411
0.188518
0.187707
0.186976
0.186326
0.185758
0.18527
0.184864
0.184538
0.184294
0.184131
0.18405
0.18405
0.184131
0.184293
0.184537
0.184862
0.185268
0.185755
0.186324
0.186974
0.187704
0.188516
0.189408
0.190381
0.191433
0.192565
0.193776
0.195066
0.196433
0.197876
0.199395
0.200988
0.202655
0.204395
0.206209
0.208101
0.213723
0.211775
0.209908
0.208118
0.206403
0.204764
0.203202
0.201717
0.200312
0.198986
0.197741
0.196577
0.195495
0.194494
0.193577
0.192742
0.19199
0.191322
0.190737
0.190235
0.189817
0.189482
0.189232
0.189064
0.18898
0.18898
0.189064
0.189231
0.189481
0.189815
0.190233
0.190734
0.191319
0.191988
0.192739
0.193574
0.194492
0.195493
0.196575
0.19774
0.198986
0.200312
0.201718
0.203203
0.204766
0.206406
0.208121
0.209911
0.211776
0.213724
0.21957
0.217564
0.215643
0.2138
0.212035
0.210348
0.208741
0.207213
0.205766
0.204402
0.20312
0.201923
0.200809
0.19978
0.198835
0.197976
0.197202
0.196515
0.195913
0.195397
0.194967
0.194622
0.194364
0.194192
0.194105
0.194105
0.194191
0.194363
0.194621
0.194965
0.195395
0.19591
0.196512
0.1972
0.197974
0.198833
0.199777
0.200807
0.201921
0.20312
0.204402
0.205767
0.207214
0.208742
0.21035
0.212038
0.213803
0.215645
0.217566
0.219571
0.225653
0.223587
0.221609
0.219712
0.217895
0.216158
0.214503
0.21293
0.211441
0.210036
0.208717
0.207484
0.206337
0.205277
0.204305
0.203421
0.202624
0.201916
0.201297
0.200766
0.200323
0.199968
0.199703
0.199525
0.199437
0.199436
0.199525
0.199702
0.199967
0.200321
0.200763
0.201294
0.201914
0.202622
0.203418
0.204303
0.205275
0.206335
0.207482
0.208716
0.210036
0.211441
0.212931
0.214504
0.21616
0.217897
0.219715
0.221612
0.223589
0.225654
0.231985
0.229857
0.22782
0.225866
0.223994
0.222206
0.220501
0.218881
0.217347
0.2159
0.214542
0.213272
0.212091
0.211
0.209999
0.209088
0.208268
0.207539
0.206901
0.206354
0.205898
0.205533
0.205259
0.205076
0.204985
0.204985
0.205076
0.205258
0.205532
0.205896
0.206351
0.206898
0.207536
0.208265
0.209086
0.209996
0.210998
0.212089
0.21327
0.214541
0.2159
0.217348
0.218882
0.220502
0.222208
0.223997
0.225869
0.227822
0.229859
0.231987
0.238582
0.236388
0.234289
0.232276
0.230348
0.228505
0.226748
0.22508
0.223499
0.222009
0.220609
0.219301
0.218084
0.21696
0.215929
0.21499
0.214145
0.213394
0.212737
0.212174
0.211704
0.211328
0.211046
0.210858
0.210764
0.210764
0.210858
0.211045
0.211327
0.211702
0.212171
0.212735
0.213392
0.214143
0.214988
0.215926
0.216958
0.218082
0.219299
0.220608
0.222009
0.2235
0.225081
0.22675
0.228507
0.23035
0.232279
0.234292
0.23639
0.238583
0.245457
0.243196
0.241032
0.238958
0.23697
0.23507
0.23326
0.23154
0.229911
0.228375
0.226932
0.225584
0.22433
0.223172
0.222109
0.221141
0.220271
0.219496
0.218819
0.218239
0.217755
0.217367
0.217077
0.216883
0.216786
0.216786
0.216883
0.217076
0.217366
0.217753
0.218236
0.218817
0.219494
0.220268
0.221139
0.222106
0.223169
0.224328
0.225582
0.226932
0.228375
0.229912
0.231541
0.233262
0.235072
0.236972
0.23896
0.241035
0.243198
0.245458
0.252628
0.250296
0.248065
0.245926
0.243876
0.241918
0.240051
0.238278
0.236598
0.235014
0.233527
0.232137
0.230844
0.229649
0.228553
0.227556
0.226658
0.22586
0.225162
0.224564
0.224065
0.223665
0.223366
0.223166
0.223066
0.223066
0.223165
0.223365
0.223664
0.224063
0.224561
0.22516
0.225858
0.226656
0.227554
0.228551
0.229647
0.230842
0.232135
0.233526
0.235014
0.236599
0.238279
0.240053
0.24192
0.243879
0.245928
0.248068
0.250298
0.252629
0.260112
0.257706
0.255405
0.253199
0.251085
0.249064
0.247139
0.245309
0.243577
0.241943
0.240409
0.238975
0.237642
0.23641
0.235279
0.234251
0.233324
0.232501
0.231781
0.231164
0.230649
0.230237
0.229928
0.229722
0.229619
0.229619
0.229722
0.229928
0.230236
0.230648
0.231162
0.231779
0.232499
0.233322
0.234248
0.235276
0.236407
0.23764
0.238974
0.240408
0.241943
0.243578
0.245311
0.247141
0.249067
0.251087
0.253201
0.255408
0.257708
0.260113
0.267929
0.265445
0.263071
0.260794
0.258613
0.256528
0.254541
0.252653
0.250866
0.24918
0.247596
0.246117
0.244741
0.243469
0.242303
0.241242
0.240286
0.239437
0.238694
0.238057
0.237526
0.237101
0.236782
0.236569
0.236463
0.236463
0.236569
0.236781
0.237099
0.237524
0.238054
0.238691
0.239435
0.240284
0.241239
0.2423
0.243467
0.244739
0.246115
0.247596
0.24918
0.250867
0.252655
0.254543
0.25653
0.258615
0.260797
0.263074
0.265448
0.26793
0.276098
0.273534
0.271083
0.268733
0.266481
0.264328
0.262277
0.260328
0.258483
0.256743
0.255108
0.253581
0.25216
0.250848
0.249643
0.248548
0.247561
0.246684
0.245918
0.24526
0.244712
0.244273
0.243944
0.243725
0.243615
0.243615
0.243724
0.243943
0.244272
0.24471
0.245258
0.245915
0.246682
0.247559
0.248545
0.24964
0.250845
0.252158
0.253579
0.255107
0.256743
0.258484
0.26033
0.262279
0.264331
0.266483
0.268735
0.271086
0.273537
0.2761
0.284643
0.281994
0.279463
0.277035
0.27471
0.272487
0.270368
0.268356
0.26645
0.264652
0.262964
0.261387
0.25992
0.258564
0.25732
0.256189
0.25517
0.254265
0.253472
0.252794
0.252227
0.251774
0.251434
0.251208
0.251094
0.251094
0.251207
0.251434
0.251773
0.252226
0.252791
0.25347
0.254263
0.255168
0.256186
0.257317
0.258561
0.259918
0.261385
0.262964
0.264653
0.266451
0.268358
0.270371
0.272489
0.274712
0.277038
0.279466
0.281997
0.284644
0.293586
0.29085
0.288234
0.285726
0.283323
0.281026
0.278838
0.276758
0.274789
0.272931
0.271187
0.269557
0.268042
0.266641
0.265356
0.264186
0.263134
0.262198
0.26138
0.260678
0.260093
0.259625
0.259274
0.25904
0.258923
0.258923
0.25904
0.259274
0.259624
0.260092
0.260676
0.261378
0.262196
0.263132
0.264184
0.265352
0.266638
0.268039
0.269556
0.271187
0.272932
0.27479
0.27676
0.27884
0.281029
0.283326
0.285728
0.288237
0.290852
0.293588
0.302955
0.300126
0.297422
0.29483
0.292346
0.289972
0.287709
0.285559
0.283524
0.281604
0.279801
0.278116
0.276549
0.275101
0.273772
0.272564
0.271476
0.270509
0.269663
0.268938
0.268333
0.267849
0.267486
0.267244
0.267123
0.267123
0.267244
0.267486
0.267848
0.268331
0.268936
0.269661
0.270507
0.271474
0.272561
0.273769
0.275098
0.276547
0.278114
0.2798
0.281604
0.283525
0.285561
0.287712
0.289974
0.292348
0.294832
0.297425
0.300128
0.302956
0.312776
0.30985
0.307055
0.304374
0.301805
0.29935
0.29701
0.294786
0.292681
0.290696
0.288831
0.287088
0.285468
0.28397
0.282596
0.281346
0.280221
0.279221
0.278346
0.277596
0.276971
0.276471
0.276095
0.275845
0.27572
0.275719
0.275844
0.276095
0.276469
0.276969
0.277594
0.278344
0.279219
0.280219
0.281344
0.282593
0.283967
0.285465
0.287087
0.28883
0.290696
0.292683
0.294789
0.297012
0.299352
0.301807
0.304376
0.307057
0.309853
0.312778
0.323081
0.320053
0.317161
0.314387
0.31173
0.309189
0.306768
0.304468
0.302289
0.300235
0.298306
0.296503
0.294826
0.293276
0.291855
0.290561
0.289397
0.288362
0.287457
0.286681
0.286034
0.285516
0.285128
0.284869
0.284739
0.284739
0.284869
0.285127
0.285515
0.286033
0.286679
0.287455
0.28836
0.289395
0.290559
0.291851
0.293273
0.294823
0.296501
0.298305
0.300236
0.302291
0.30447
0.306771
0.309192
0.311732
0.314389
0.317163
0.320056
0.323082
0.333901
0.330768
0.327774
0.324903
0.322152
0.319522
0.317016
0.314634
0.312379
0.310253
0.308256
0.306389
0.304653
0.303049
0.301577
0.300238
0.299033
0.297962
0.297025
0.296222
0.295552
0.295016
0.294614
0.294346
0.294212
0.294211
0.294345
0.294613
0.295015
0.295551
0.29622
0.297023
0.29796
0.299031
0.300236
0.301574
0.303046
0.304651
0.306387
0.308255
0.310254
0.312381
0.314637
0.317019
0.319525
0.322154
0.324905
0.327776
0.33077
0.333903
0.345274
0.342029
0.338929
0.335955
0.333106
0.330383
0.327787
0.325321
0.322985
0.320783
0.318714
0.316781
0.314983
0.313321
0.311797
0.31041
0.309162
0.308052
0.307082
0.30625
0.305556
0.305001
0.304584
0.304307
0.304168
0.304168
0.304306
0.304584
0.305
0.305555
0.306248
0.30708
0.308051
0.30916
0.310407
0.311793
0.313318
0.31498
0.316779
0.318714
0.320783
0.322987
0.325323
0.32779
0.330386
0.333109
0.335957
0.338931
0.342031
0.345276
0.357238
0.353875
0.350663
0.347582
0.34463
0.341808
0.339119
0.336563
0.334143
0.331861
0.329717
0.327713
0.32585
0.324128
0.322548
0.321111
0.319818
0.318668
0.317662
0.3168
0.316082
0.315506
0.315075
0.314787
0.314643
0.314643
0.314786
0.315074
0.315505
0.31608
0.316799
0.317661
0.318667
0.319816
0.321109
0.322545
0.324125
0.325847
0.327712
0.329716
0.331861
0.334145
0.336566
0.339122
0.341811
0.344633
0.347585
0.350665
0.353877
0.357239
0.369834
0.366348
0.363019
0.359826
0.356766
0.35384
0.351051
0.348401
0.345892
0.343526
0.341304
0.339226
0.337294
0.335509
0.333871
0.332381
0.33104
0.329848
0.328805
0.327911
0.327166
0.32657
0.326122
0.325824
0.325674
0.325674
0.325823
0.326121
0.326568
0.327165
0.32791
0.328804
0.329846
0.331038
0.332379
0.333868
0.335506
0.337292
0.339225
0.341303
0.343527
0.345895
0.348405
0.351055
0.353843
0.356768
0.359828
0.363021
0.366351
0.369836
0.383111
0.379495
0.376043
0.37273
0.369557
0.366522
0.363629
0.36088
0.358278
0.355823
0.353518
0.351363
0.349358
0.347507
0.345807
0.344261
0.34287
0.341633
0.340551
0.339624
0.338851
0.338232
0.337768
0.337458
0.337303
0.337303
0.337458
0.337767
0.338231
0.33885
0.339623
0.34055
0.341632
0.342868
0.344259
0.345804
0.347503
0.349356
0.351361
0.353517
0.355824
0.35828
0.360884
0.363633
0.366525
0.369559
0.372733
0.376044
0.379498
0.383112
0.397117
0.393366
0.389783
0.386346
0.383052
0.379902
0.3769
0.374047
0.371346
0.368799
0.366406
0.364169
0.362088
0.360166
0.358402
0.356797
0.355353
0.35407
0.352946
0.351984
0.351182
0.350539
0.350057
0.349736
0.349575
0.349575
0.349735
0.350057
0.350538
0.351181
0.351983
0.352946
0.354068
0.355351
0.356795
0.358399
0.360162
0.362086
0.364167
0.366405
0.3688
0.371349
0.374051
0.376904
0.379906
0.383054
0.386348
0.389785
0.393368
0.397119
0.411909
0.408015
0.404295
0.400726
0.397306
0.394036
0.390918
0.387955
0.38515
0.382505
0.38002
0.377696
0.375535
0.373539
0.371707
0.37004
0.368541
0.367207
0.366041
0.365041
0.364208
0.363541
0.36304
0.362706
0.362539
0.362539
0.362706
0.363039
0.363539
0.364207
0.36504
0.36604
0.367206
0.368539
0.370038
0.371703
0.373535
0.375533
0.377694
0.380019
0.382506
0.385153
0.387959
0.390922
0.394039
0.397308
0.400728
0.404297
0.408017
0.411911
0.427548
0.423502
0.419638
0.415931
0.412377
0.408979
0.40574
0.402662
0.399747
0.396998
0.394416
0.392001
0.389756
0.387681
0.385777
0.384045
0.382487
0.381101
0.379889
0.378849
0.377984
0.37729
0.37677
0.376423
0.37625
0.376249
0.376423
0.376769
0.377289
0.377983
0.378849
0.379888
0.3811
0.382485
0.384043
0.385774
0.387677
0.389753
0.391999
0.394415
0.396999
0.39975
0.402666
0.405744
0.408983
0.41238
0.415933
0.41964
0.423504
0.427549
0.444098
0.439894
0.435878
0.432024
0.428331
0.424798
0.42143
0.41823
0.415199
0.412341
0.409657
0.407146
0.404811
0.402654
0.400674
0.398873
0.397252
0.395811
0.39455
0.39347
0.39257
0.391849
0.391308
0.390947
0.390767
0.390766
0.390946
0.391307
0.391847
0.392569
0.39347
0.39455
0.395811
0.39725
0.39887
0.40067
0.40265
0.404808
0.407144
0.409656
0.412342
0.415202
0.418234
0.421434
0.424801
0.428333
0.432026
0.435879
0.439896
0.4441
0.461635
0.457263
0.453087
0.449078
0.445237
0.441562
0.438059
0.434729
0.431577
0.428604
0.42581
0.423198
0.420768
0.418524
0.416464
0.41459
0.412904
0.411405
0.410093
0.408968
0.408032
0.407282
0.406719
0.406344
0.406156
0.406155
0.406343
0.406718
0.40728
0.408031
0.408969
0.410093
0.411404
0.412902
0.414588
0.416461
0.41852
0.420766
0.423196
0.425809
0.428604
0.43158
0.434734
0.438063
0.441566
0.445239
0.449081
0.453088
0.457265
0.461637
0.480239
0.47569
0.471344
0.467173
0.463174
0.45935
0.455703
0.452238
0.448956
0.445861
0.442953
0.440233
0.437704
0.435367
0.433223
0.431272
0.429516
0.427954
0.426588
0.425418
0.424443
0.423662
0.423076
0.422685
0.422489
0.422489
0.422684
0.423074
0.42366
0.424442
0.425418
0.426589
0.427954
0.429514
0.431269
0.433219
0.435363
0.437701
0.440231
0.442952
0.445861
0.448959
0.452242
0.455708
0.459354
0.463177
0.467175
0.471345
0.475691
0.48024
0.499998
0.495262
0.490738
0.486394
0.48223
0.478247
0.474449
0.470839
0.467421
0.464197
0.461167
0.458334
0.455699
0.453265
0.451031
0.448998
0.447169
0.445542
0.444119
0.442899
0.441883
0.44107
0.440459
0.440052
0.439848
0.439848
0.440051
0.440458
0.441068
0.441883
0.4429
0.44412
0.445542
0.447167
0.448996
0.451027
0.453261
0.455697
0.458333
0.461167
0.464197
0.467424
0.470844
0.474453
0.478251
0.482233
0.486396
0.490739
0.495264
0.5
0.521012
0.516078
0.511365
0.506839
0.5025
0.498349
0.494391
0.490628
0.487065
0.483705
0.480547
0.477594
0.474847
0.472309
0.46998
0.467861
0.465954
0.464258
0.462774
0.461502
0.460443
0.459595
0.458958
0.458534
0.458321
0.458321
0.458532
0.458957
0.459594
0.460442
0.461503
0.462775
0.464258
0.465952
0.467859
0.469977
0.472305
0.474844
0.477592
0.480546
0.483705
0.487069
0.490633
0.494395
0.498353
0.502502
0.506841
0.511366
0.51608
0.521013
0.543389
0.538247
0.533333
0.528614
0.52409
0.519761
0.515633
0.511709
0.507993
0.504488
0.501194
0.498114
0.495248
0.492601
0.490172
0.48796
0.485971
0.484201
0.482653
0.481326
0.480221
0.479337
0.478672
0.478229
0.478007
0.478007
0.478228
0.478671
0.479335
0.480221
0.481328
0.482655
0.484202
0.485969
0.487958
0.490168
0.492597
0.495246
0.498112
0.501194
0.504489
0.507997
0.511714
0.515638
0.519765
0.524093
0.528617
0.533334
0.538249
0.543391
0.567252
0.561889
0.556763
0.551839
0.547119
0.542602
0.538294
0.534199
0.53032
0.526662
0.523224
0.520008
0.517016
0.514253
0.511717
0.509409
0.507331
0.505484
0.503868
0.502482
0.501328
0.500405
0.499711
0.499249
0.499017
0.499017
0.499247
0.49971
0.500403
0.501328
0.502484
0.503869
0.505485
0.50733
0.509406
0.511713
0.514249
0.517014
0.520006
0.523223
0.526662
0.530324
0.534204
0.538298
0.542606
0.547122
0.551842
0.556764
0.561891
0.567254
0.592737
0.587139
0.581788
0.576647
0.571718
0.567002
0.562503
0.558226
0.554175
0.550354
0.546763
0.543403
0.540278
0.537391
0.534742
0.53233
0.53016
0.52823
0.526541
0.525093
0.523888
0.522923
0.522198
0.521715
0.521473
0.521473
0.521714
0.522197
0.522922
0.523888
0.525096
0.526543
0.528231
0.530159
0.532329
0.534739
0.537388
0.540276
0.543402
0.546762
0.550354
0.554179
0.558231
0.562507
0.567006
0.571721
0.57665
0.581789
0.58714
0.592738
0.619994
0.614148
0.608558
0.603187
0.598037
0.593108
0.588406
0.583936
0.579703
0.575709
0.571954
0.568442
0.565175
0.562157
0.559388
0.556866
0.554597
0.552579
0.550813
0.549299
0.548039
0.54703
0.546272
0.545767
0.545513
0.545513
0.545765
0.54627
0.547029
0.548038
0.549301
0.550815
0.552581
0.554596
0.556864
0.559384
0.562154
0.565173
0.568441
0.571953
0.575708
0.579706
0.583941
0.588411
0.593112
0.59804
0.60319
0.608559
0.614149
0.619995
0.649195
0.643085
0.637241
0.631625
0.626239
0.621085
0.616168
0.611493
0.607064
0.602886
0.598958
0.595284
0.591866
0.588709
0.585811
0.583173
0.580798
0.578686
0.576838
0.575254
0.573935
0.57288
0.572087
0.571558
0.571292
0.571292
0.571556
0.572085
0.572878
0.573935
0.575257
0.576841
0.578688
0.580798
0.583171
0.585808
0.588705
0.591864
0.595283
0.598958
0.602886
0.607068
0.611498
0.616172
0.621089
0.626243
0.631629
0.637243
0.643086
0.649196
0.680532
0.674142
0.668027
0.662151
0.656514
0.65112
0.645973
0.641079
0.636443
0.632069
0.627956
0.624109
0.620531
0.617224
0.61419
0.611427
0.60894
0.606729
0.604793
0.603134
0.601753
0.600647
0.599817
0.599263
0.598985
0.598984
0.599261
0.599815
0.600646
0.601753
0.603137
0.604796
0.606731
0.60894
0.611426
0.614187
0.617221
0.620529
0.624109
0.627956
0.632068
0.636446
0.641084
0.645977
0.651124
0.656518
0.662155
0.668029
0.674143
0.680534
0.714224
0.707535
0.701132
0.694977
0.689073
0.683423
0.678031
0.672903
0.668046
0.663462
0.659153
0.655122
0.651371
0.647906
0.644726
0.64183
0.639224
0.636906
0.634877
0.633138
0.631689
0.630531
0.62966
0.629079
0.628788
0.628788
0.629077
0.629658
0.630529
0.631689
0.633141
0.63488
0.636908
0.639224
0.641829
0.644723
0.647903
0.651369
0.655121
0.659152
0.663462
0.668049
0.672908
0.678035
0.683427
0.689077
0.694981
0.701134
0.707536
0.714226
0.750521
0.743512
0.736801
0.730349
0.724158
0.718234
0.71258
0.707202
0.702108
0.697301
0.692781
0.688553
0.684619
0.680983
0.677648
0.67461
0.671875
0.669444
0.667315
0.66549
0.66397
0.662754
0.661841
0.661232
0.660926
0.660926
0.661229
0.66184
0.662753
0.66397
0.665493
0.667318
0.669446
0.671876
0.67461
0.677645
0.680981
0.684617
0.688552
0.692781
0.6973
0.702112
0.707207
0.712584
0.718237
0.724163
0.730353
0.736803
0.743513
0.750523
0.789711
0.782359
0.775316
0.768545
0.762047
0.755829
0.749893
0.744249
0.738901
0.733854
0.729108
0.724668
0.720538
0.71672
0.713217
0.710028
0.707155
0.704602
0.702366
0.700449
0.698853
0.697576
0.696617
0.695977
0.695656
0.695655
0.695975
0.696615
0.697575
0.698853
0.700453
0.702369
0.704605
0.707157
0.710027
0.713215
0.716718
0.720536
0.724668
0.729108
0.733853
0.738904
0.744254
0.749898
0.755833
0.762052
0.768549
0.775319
0.78236
0.789713
0.832126
0.824405
0.817005
0.809891
0.803063
0.796527
0.790289
0.784357
0.778736
0.773431
0.768442
0.763775
0.759433
0.755419
0.751737
0.748384
0.745364
0.742679
0.740329
0.738313
0.736635
0.735292
0.734284
0.73361
0.733273
0.733272
0.733608
0.734282
0.735291
0.736635
0.738317
0.740332
0.742683
0.745366
0.748384
0.751735
0.755417
0.759431
0.763775
0.768441
0.77343
0.778739
0.784361
0.790294
0.796531
0.803068
0.809895
0.817008
0.824406
0.832128
0.87816
0.870038
0.862253
0.854766
0.84758
0.840702
0.834137
0.827893
0.821977
0.816393
0.811142
0.80623
0.801659
0.797434
0.793558
0.790028
0.786849
0.784023
0.781548
0.779426
0.777659
0.776245
0.775184
0.774475
0.77412
0.77412
0.774473
0.775182
0.776245
0.777659
0.77943
0.781552
0.784027
0.786851
0.790029
0.793556
0.797433
0.801657
0.806229
0.811142
0.816392
0.82198
0.827898
0.834141
0.840705
0.847586
0.854771
0.862256
0.870039
0.878162
0.928278
0.91972
0.911513
0.90362
0.896045
0.888794
0.881873
0.87529
0.869053
0.863167
0.857631
0.852452
0.847634
0.843179
0.839093
0.835372
0.83202
0.82904
0.826431
0.824193
0.822331
0.82084
0.819721
0.818974
0.818599
0.818599
0.818971
0.819719
0.82084
0.822331
0.824198
0.826435
0.829044
0.832023
0.835373
0.839091
0.843178
0.847632
0.852452
0.85763
0.863166
0.869057
0.875295
0.881877
0.888798
0.896051
0.903626
0.911517
0.919722
0.92828
0.983044
0.974005
0.965335
0.956997
0.948993
0.941333
0.934021
0.927068
0.920479
0.914261
0.908413
0.902943
0.897854
0.893149
0.888834
0.884903
0.881363
0.878215
0.87546
0.873096
0.871128
0.869554
0.868372
0.867583
0.867187
0.867187
0.86758
0.86837
0.869554
0.871129
0.8731
0.875464
0.87822
0.881366
0.884905
0.888832
0.893149
0.897853
0.902944
0.908413
0.91426
0.920482
0.927072
0.934025
0.941336
0.948999
0.957002
0.965339
0.974007
0.983046
1.04315
1.03358
1.02439
1.01556
1.00708
0.998963
0.991219
0.983855
0.976877
0.970292
0.9641
0.95831
0.952921
0.94794
0.943372
0.939211
0.935464
0.932132
0.929215
0.926713
0.92463
0.922963
0.921712
0.920877
0.920458
0.920458
0.920874
0.92171
0.922963
0.924631
0.926717
0.929219
0.932137
0.935468
0.939214
0.943371
0.947941
0.952921
0.95831
0.964101
0.970292
0.976881
0.983859
0.991223
0.998966
1.00708
1.01556
1.02439
1.03358
1.04315
1.10946
1.09928
1.08952
1.08012
1.07111
1.06249
1.05426
1.04643
1.03902
1.03202
1.02545
1.0193
1.01358
1.00829
1.00344
0.999021
0.995043
0.991506
0.988409
0.985753
0.983542
0.981773
0.980445
0.979559
0.979114
0.979114
0.979557
0.980444
0.981774
0.983543
0.985758
0.988414
0.991511
0.995047
0.999024
1.00344
1.00829
1.01358
1.0193
1.02545
1.03202
1.03902
1.04644
1.05426
1.06249
1.07112
1.08013
1.08952
1.09928
1.10946
1.18308
1.17221
1.16178
1.15174
1.14212
1.13292
1.12413
1.11578
1.10788
1.10042
1.09341
1.08685
1.08075
1.07511