/*--------------------------------*- C++ -*----------------------------------*\
  =========                 |
  \\      /  F ield         | OpenFOAM: The Open Source CFD Toolbox
   \\    /   O peration     | Website:  https://openfoam.org
    \\  /    A nd           | Version:  7
     \\/     M anipulation  |
\*---------------------------------------------------------------------------*/
FoamFile
{
    version     2.0;
    format      ascii;
    class       volScalarField;
    location    "72000";
    object      omega;
}
// * * * * * * * * * * * * * * * * * * * * * * * * * * * * * * * * * * * * * //

dimensions      [0 0 -1 0 0 0 0];

internalField   nonuniform List<scalar> 
4838
(
0.0241001
0.0240955
0.024091
0.0240868
0.0240827
0.0240788
0.0240751
0.0240715
0.0240682
0.024065
0.024062
0.0240592
0.0240566
0.0240542
0.0240519
0.0240499
0.0240481
0.0240464
0.024045
0.0240437
0.0240427
0.0240418
0.0240411
0.0240407
0.0240404
0.0240403
0.0240405
0.0240408
0.0240413
0.0240421
0.024043
0.0240441
0.0240454
0.0240469
0.0240486
0.0240505
0.0240526
0.0240549
0.0240574
0.0240601
0.0240629
0.0240659
0.0240691
0.0240725
0.0240761
0.0240799
0.0240838
0.0240879
0.0240921
0.0240966
0.0241076
0.0241032
0.0240987
0.0240943
0.0240901
0.0240861
0.0240822
0.0240785
0.0240749
0.0240716
0.0240685
0.0240655
0.0240628
0.0240602
0.0240579
0.0240557
0.0240538
0.024052
0.0240505
0.0240492
0.0240481
0.0240472
0.0240465
0.024046
0.0240457
0.0240456
0.0240458
0.0240461
0.0240467
0.0240475
0.0240485
0.0240496
0.024051
0.0240526
0.0240545
0.0240565
0.0240587
0.0240611
0.0240637
0.0240665
0.0240695
0.0240727
0.024076
0.0240796
0.0240833
0.0240872
0.0240912
0.0240954
0.0240997
0.024104
0.0241154
0.0241109
0.0241064
0.0241019
0.0240976
0.0240934
0.0240894
0.0240856
0.0240819
0.0240785
0.0240752
0.0240721
0.0240692
0.0240665
0.0240641
0.0240618
0.0240598
0.024058
0.0240563
0.0240549
0.0240538
0.0240528
0.0240521
0.0240516
0.0240513
0.0240512
0.0240514
0.0240518
0.0240523
0.0240532
0.0240542
0.0240555
0.0240569
0.0240586
0.0240605
0.0240626
0.024065
0.0240675
0.0240702
0.0240731
0.0240763
0.0240796
0.0240831
0.0240868
0.0240906
0.0240946
0.0240987
0.024103
0.0241073
0.0241117
0.0241235
0.0241189
0.0241143
0.0241097
0.0241053
0.024101
0.0240969
0.0240929
0.0240891
0.0240855
0.0240821
0.0240789
0.0240759
0.0240732
0.0240706
0.0240682
0.0240661
0.0240642
0.0240625
0.024061
0.0240598
0.0240588
0.024058
0.0240575
0.0240572
0.0240571
0.0240573
0.0240577
0.0240583
0.0240592
0.0240603
0.0240616
0.0240631
0.0240649
0.0240669
0.0240691
0.0240715
0.0240742
0.024077
0.0240801
0.0240833
0.0240867
0.0240904
0.0240942
0.0240981
0.0241022
0.0241065
0.0241108
0.0241152
0.0241197
0.0241318
0.0241271
0.0241223
0.0241177
0.0241132
0.0241088
0.0241046
0.0241005
0.0240966
0.0240929
0.0240893
0.024086
0.0240829
0.02408
0.0240774
0.0240749
0.0240727
0.0240707
0.024069
0.0240674
0.0240662
0.0240651
0.0240643
0.0240638
0.0240635
0.0240634
0.0240636
0.024064
0.0240647
0.0240656
0.0240667
0.0240681
0.0240697
0.0240715
0.0240736
0.0240759
0.0240784
0.0240811
0.0240841
0.0240872
0.0240906
0.0240942
0.0240979
0.0241018
0.0241059
0.0241101
0.0241144
0.0241188
0.0241233
0.0241279
0.0241404
0.0241355
0.0241306
0.0241259
0.0241213
0.0241168
0.0241125
0.0241083
0.0241043
0.0241004
0.0240968
0.0240934
0.0240902
0.0240872
0.0240844
0.0240819
0.0240796
0.0240776
0.0240757
0.0240742
0.0240728
0.0240718
0.0240709
0.0240704
0.0240701
0.02407
0.0240702
0.0240706
0.0240713
0.0240722
0.0240734
0.0240748
0.0240765
0.0240784
0.0240806
0.0240829
0.0240856
0.0240884
0.0240914
0.0240947
0.0240981
0.0241018
0.0241056
0.0241096
0.0241138
0.0241181
0.0241225
0.0241271
0.0241317
0.0241364
0.0241491
0.0241441
0.0241392
0.0241343
0.0241296
0.024125
0.0241206
0.0241163
0.0241122
0.0241083
0.0241045
0.024101
0.0240977
0.0240946
0.0240918
0.0240892
0.0240868
0.0240847
0.0240828
0.0240812
0.0240798
0.0240787
0.0240779
0.0240773
0.024077
0.0240769
0.0240771
0.0240775
0.0240782
0.0240792
0.0240804
0.0240819
0.0240836
0.0240856
0.0240878
0.0240903
0.024093
0.0240959
0.024099
0.0241024
0.0241059
0.0241097
0.0241136
0.0241177
0.024122
0.0241264
0.0241309
0.0241356
0.0241403
0.0241451
0.0241581
0.024153
0.0241479
0.024143
0.0241382
0.0241335
0.0241289
0.0241245
0.0241203
0.0241163
0.0241125
0.0241089
0.0241055
0.0241024
0.0240994
0.0240967
0.0240943
0.0240921
0.0240902
0.0240885
0.0240871
0.024086
0.0240851
0.0240845
0.0240842
0.0240841
0.0240843
0.0240848
0.0240855
0.0240865
0.0240878
0.0240893
0.0240911
0.0240931
0.0240954
0.0240979
0.0241007
0.0241037
0.0241069
0.0241103
0.024114
0.0241178
0.0241219
0.0241261
0.0241304
0.0241349
0.0241395
0.0241443
0.0241491
0.0241541
0.0241673
0.0241621
0.0241569
0.0241518
0.0241469
0.0241421
0.0241375
0.024133
0.0241287
0.0241246
0.0241207
0.024117
0.0241136
0.0241103
0.0241073
0.0241046
0.0241021
0.0240998
0.0240979
0.0240961
0.0240947
0.0240935
0.0240926
0.024092
0.0240917
0.0240916
0.0240918
0.0240923
0.024093
0.0240941
0.0240954
0.0240969
0.0240988
0.0241009
0.0241032
0.0241058
0.0241087
0.0241117
0.024115
0.0241186
0.0241223
0.0241262
0.0241303
0.0241346
0.0241391
0.0241437
0.0241484
0.0241532
0.0241582
0.0241633
0.0241767
0.0241714
0.0241661
0.0241609
0.0241559
0.024151
0.0241463
0.0241417
0.0241373
0.0241331
0.0241291
0.0241254
0.0241218
0.0241185
0.0241155
0.0241127
0.0241101
0.0241078
0.0241058
0.024104
0.0241026
0.0241014
0.0241005
0.0240998
0.0240995
0.0240994
0.0240996
0.0241001
0.0241009
0.0241019
0.0241033
0.0241049
0.0241068
0.0241089
0.0241113
0.024114
0.0241169
0.02412
0.0241234
0.024127
0.0241308
0.0241348
0.024139
0.0241434
0.0241479
0.0241526
0.0241575
0.0241624
0.0241675
0.0241727
0.0241863
0.0241808
0.0241754
0.0241702
0.024165
0.0241601
0.0241552
0.0241506
0.0241461
0.0241419
0.0241378
0.024134
0.0241304
0.024127
0.0241239
0.024121
0.0241184
0.0241161
0.024114
0.0241122
0.0241107
0.0241095
0.0241085
0.0241079
0.0241075
0.0241075
0.0241077
0.0241082
0.024109
0.0241101
0.0241114
0.0241131
0.024115
0.0241172
0.0241197
0.0241224
0.0241254
0.0241286
0.024132
0.0241357
0.0241396
0.0241437
0.024148
0.0241524
0.024157
0.0241618
0.0241667
0.0241718
0.024177
0.0241823
0.0241962
0.0241905
0.024185
0.0241796
0.0241744
0.0241693
0.0241644
0.0241597
0.0241552
0.0241508
0.0241467
0.0241428
0.0241391
0.0241357
0.0241325
0.0241296
0.0241269
0.0241246
0.0241225
0.0241206
0.0241191
0.0241179
0.0241169
0.0241162
0.0241159
0.0241158
0.024116
0.0241166
0.0241174
0.0241185
0.0241199
0.0241216
0.0241235
0.0241258
0.0241283
0.024131
0.0241341
0.0241373
0.0241409
0.0241446
0.0241486
0.0241527
0.0241571
0.0241616
0.0241663
0.0241712
0.0241762
0.0241814
0.0241867
0.0241921
0.0242062
0.0242004
0.0241947
0.0241892
0.0241839
0.0241788
0.0241738
0.024169
0.0241644
0.02416
0.0241558
0.0241518
0.0241481
0.0241446
0.0241414
0.0241384
0.0241357
0.0241333
0.0241312
0.0241293
0.0241277
0.0241265
0.0241255
0.0241248
0.0241245
0.0241244
0.0241246
0.0241252
0.024126
0.0241271
0.0241286
0.0241303
0.0241323
0.0241346
0.0241371
0.0241399
0.024143
0.0241463
0.0241499
0.0241537
0.0241578
0.024162
0.0241664
0.024171
0.0241758
0.0241808
0.0241859
0.0241911
0.0241966
0.0242022
0.0242178
0.0242106
0.0242046
0.024199
0.0241936
0.0241884
0.0241834
0.0241785
0.0241738
0.0241694
0.0241651
0.0241611
0.0241573
0.0241538
0.0241505
0.0241475
0.0241447
0.0241423
0.0241401
0.0241382
0.0241366
0.0241353
0.0241344
0.0241337
0.0241333
0.0241333
0.0241335
0.024134
0.0241349
0.024136
0.0241375
0.0241392
0.0241413
0.0241436
0.0241462
0.024149
0.0241522
0.0241556
0.0241592
0.0241631
0.0241672
0.0241715
0.0241759
0.0241806
0.0241855
0.0241905
0.0241957
0.0242011
0.0242068
0.0242138
0.0242356
0.0242236
0.0242155
0.0242091
0.0242035
0.0241982
0.0241931
0.0241882
0.0241834
0.0241789
0.0241746
0.0241705
0.0241667
0.0241631
0.0241598
0.0241567
0.0241539
0.0241514
0.0241492
0.0241473
0.0241457
0.0241444
0.0241434
0.0241428
0.0241424
0.0241423
0.0241426
0.0241431
0.024144
0.0241452
0.0241466
0.0241484
0.0241505
0.0241528
0.0241555
0.0241584
0.0241616
0.024165
0.0241687
0.0241726
0.0241767
0.0241811
0.0241857
0.0241904
0.0241953
0.0242004
0.0242058
0.024212
0.0242199
0.0242316
0.0242721
0.0242475
0.0242319
0.0242216
0.0242143
0.0242082
0.0242029
0.024198
0.0241932
0.0241886
0.0241843
0.0241802
0.0241763
0.0241726
0.0241693
0.0241662
0.0241634
0.0241608
0.0241586
0.0241567
0.0241551
0.0241537
0.0241528
0.0241521
0.0241517
0.0241516
0.0241519
0.0241524
0.0241533
0.0241545
0.024156
0.0241578
0.0241599
0.0241623
0.0241649
0.0241679
0.0241711
0.0241746
0.0241783
0.0241823
0.0241865
0.0241909
0.0241956
0.0242003
0.0242054
0.0242113
0.0242184
0.0242284
0.0242438
0.0242681
0.0243504
0.0242998
0.024266
0.0242443
0.0242302
0.0242208
0.0242139
0.0242081
0.0242031
0.0241985
0.0241941
0.02419
0.0241861
0.0241824
0.024179
0.0241758
0.024173
0.0241704
0.0241682
0.0241662
0.0241646
0.0241633
0.0241623
0.0241616
0.0241612
0.0241611
0.0241614
0.024162
0.0241628
0.024164
0.0241655
0.0241674
0.0241695
0.0241719
0.0241746
0.0241776
0.0241809
0.0241844
0.0241882
0.0241922
0.0241965
0.0242009
0.0242057
0.0242113
0.0242181
0.0242273
0.0242411
0.0242626
0.0242962
0.0243466
0.0244983
0.0244081
0.0243417
0.0242951
0.0242639
0.0242436
0.0242303
0.0242211
0.0242144
0.0242089
0.0242042
0.0241999
0.024196
0.0241923
0.0241888
0.0241857
0.0241828
0.0241802
0.0241779
0.0241759
0.0241743
0.024173
0.024172
0.0241713
0.0241709
0.0241708
0.0241711
0.0241717
0.0241726
0.0241738
0.0241753
0.0241771
0.0241793
0.0241818
0.0241845
0.0241875
0.0241908
0.0241944
0.0241982
0.0242023
0.0242069
0.0242122
0.0242188
0.0242278
0.0242409
0.024261
0.024292
0.0243385
0.0244049
0.0244952
0.024733
0.0245969
0.0244875
0.0244025
0.0243398
0.0242956
0.0242656
0.0242457
0.0242323
0.024223
0.0242162
0.0242108
0.0242063
0.0242023
0.0241988
0.0241957
0.0241928
0.0241901
0.0241878
0.0241858
0.0241842
0.0241829
0.0241819
0.0241812
0.0241808
0.0241807
0.024181
0.0241816
0.0241825
0.0241837
0.0241852
0.0241871
0.0241893
0.0241918
0.0241945
0.0241975
0.0242009
0.0242047
0.0242091
0.0242144
0.024221
0.0242302
0.0242433
0.0242631
0.0242929
0.0243371
0.0243998
0.0244849
0.0245946
0.024731
0.0247205
0.0245918
0.0244876
0.0244064
0.0243458
0.0243023
0.024272
0.0242513
0.0242372
0.0242272
0.0242198
0.0242144
0.02421
0.0242062
0.024203
0.0242002
0.0241979
0.0241959
0.0241943
0.024193
0.024192
0.0241912
0.0241908
0.0241908
0.0241911
0.0241917
0.0241926
0.0241938
0.0241953
0.0241971
0.0241994
0.024202
0.0242051
0.0242087
0.024213
0.0242183
0.0242255
0.0242354
0.0242493
0.0242699
0.0243001
0.0243435
0.0244042
0.0244855
0.0245899
0.024719
0.0248726
0.0250499
0.0248697
0.0247243
0.0246014
0.0245013
0.0244222
0.0243618
0.0243173
0.0242853
0.0242626
0.0242466
0.0242354
0.0242271
0.0242208
0.024216
0.0242124
0.0242094
0.0242069
0.024205
0.0242034
0.0242023
0.0242015
0.0242011
0.024201
0.0242013
0.024202
0.024203
0.0242045
0.0242063
0.0242087
0.0242115
0.0242151
0.0242197
0.0242259
0.024234
0.0242451
0.024261
0.0242835
0.0243154
0.0243599
0.0244203
0.0244996
0.0246
0.0247232
0.0248692
0.0250369
0.0252245
0.02543
0.0248859
0.0247474
0.0246294
0.0245318
0.0244532
0.0243917
0.0243447
0.0243095
0.0242837
0.0242648
0.024251
0.0242408
0.0242334
0.0242278
0.0242234
0.02422
0.0242175
0.0242157
0.0242147
0.0242141
0.0242141
0.0242145
0.0242155
0.0242172
0.0242196
0.0242228
0.0242271
0.0242326
0.0242399
0.0242499
0.0242636
0.0242824
0.0243081
0.0243432
0.0243902
0.0244518
0.0245305
0.0246283
0.0247467
0.0248857
0.0250449
0.0252226
0.025417
0.0256274
0.0258539
0.0250762
0.024926
0.0247939
0.02468
0.0245841
0.0245053
0.0244417
0.0243913
0.0243522
0.0243221
0.0242993
0.0242821
0.0242691
0.0242593
0.024252
0.0242466
0.0242429
0.0242406
0.0242395
0.0242395
0.0242405
0.0242426
0.0242463
0.0242515
0.0242588
0.0242685
0.0242813
0.0242984
0.0243212
0.0243512
0.0243903
0.0244406
0.0245043
0.0245832
0.0246793
0.0247935
0.0249261
0.0250768
0.0252444
0.0254279
0.0256268
0.025841
0.0260702
0.0263144
0.0252926
0.0251358
0.0249942
0.0248687
0.0247594
0.0246655
0.0245865
0.0245212
0.024468
0.0244252
0.0243911
0.0243643
0.0243436
0.0243277
0.024316
0.0243077
0.0243025
0.0243
0.0243
0.0243024
0.0243076
0.0243158
0.0243274
0.0243432
0.0243639
0.0243906
0.0244246
0.0244675
0.0245207
0.024586
0.0246651
0.0247591
0.0248687
0.0249946
0.0251366
0.0252938
0.0254658
0.0256526
0.0258544
0.0260708
0.0263016
0.0265464
0.0268052
0.0253731
0.0252277
0.0250961
0.0249784
0.0248748
0.0247849
0.024708
0.0246431
0.0245891
0.024545
0.0245095
0.0244816
0.0244604
0.0244451
0.0244353
0.0244304
0.0244304
0.0244352
0.0244451
0.0244604
0.0244816
0.0245095
0.0245449
0.024589
0.0246431
0.0247081
0.0247851
0.0248751
0.0249788
0.0250967
0.0252287
0.0253745
0.0255345
0.0257088
0.0258974
0.0261003
0.0263173
0.0265481
0.0267925
0.0270501
0.0273211
0.0256365
0.0254903
0.0253573
0.0252373
0.0251298
0.0250349
0.0249522
0.0248811
0.024821
0.0247713
0.0247312
0.0247
0.0246771
0.0246621
0.0246547
0.0246548
0.0246623
0.0246773
0.0247003
0.0247316
0.0247718
0.0248215
0.0248816
0.0249528
0.0250357
0.0251309
0.0252384
0.0253585
0.0254918
0.0256386
0.0257992
0.0259737
0.0261624
0.0263646
0.0265807
0.0268102
0.0270529
0.0273086
0.0275767
0.0278577
0.0255298
0.0254234
0.0253294
0.0252469
0.0251758
0.0251156
0.0250663
0.0250275
0.0249986
0.0249796
0.0249701
0.0249702
0.0249799
0.0249991
0.0250281
0.0250672
0.0251167
0.0251768
0.025248
0.0253307
0.025425
0.0255317
0.025651
0.0257834
0.0259289
0.0260881
0.0262611
0.0264476
0.026648
0.0268616
0.0270883
0.027328
0.0275804
0.0278454
0.0281222
0.0284114
0.0255828
0.025516
0.0254609
0.0254172
0.0253846
0.0253629
0.0253522
0.0253524
0.0253635
0.0253853
0.0254181
0.0254621
0.0255176
0.0255845
0.0256633
0.0257544
0.0258578
0.025974
0.0261032
0.0262456
0.0264014
0.0265707
0.0267537
0.0269501
0.02716
0.0273829
0.0276185
0.0278666
0.0281269
0.0283995
0.0286837
0.0289799
0.0258981
0.0258506
0.0258149
0.0257912
0.0257794
0.0257797
0.0257919
0.0258158
0.0258517
0.0258998
0.0259601
0.0260328
0.0261179
0.0262161
0.0263269
0.0264509
0.0265882
0.0267388
0.026903
0.0270806
0.0272717
0.0274762
0.0276939
0.0279243
0.0281673
0.0284224
0.0286894
0.0289684
0.029259
0.0295612
0.0262442
0.0262445
0.0262576
0.0262831
0.0263218
0.0263733
0.0264375
0.0265148
0.0266053
0.0267091
0.0268261
0.0269565
0.0271003
0.0272576
0.0274286
0.0276129
0.0278108
0.0280219
0.0282459
0.0284827
0.0287318
0.0289929
0.0292657
0.0295504
0.0298465
0.0301543
0.0268761
0.0269436
0.0270247
0.0271196
0.0272281
0.0273501
0.0274857
0.0276349
0.0277976
0.027974
0.0281639
0.0283674
0.028584
0.0288134
0.0290555
0.0293099
0.0295762
0.0298543
0.0301442
0.0304454
0.0307585
0.0276561
0.0277683
0.0278944
0.0280344
0.0281879
0.0283553
0.0285362
0.0287308
0.028939
0.0291602
0.0293945
0.0296412
0.0299003
0.0301714
0.0304544
0.0307492
0.0310555
0.0313738
0.028456
0.0285995
0.0287568
0.0289279
0.0291127
0.0293112
0.0295236
0.0297491
0.0299875
0.0302387
0.0305023
0.0307779
0.0310657
0.0313653
0.0316767
0.0320004
0.0290323
0.0291788
0.0293392
0.0295136
0.0297018
0.0299041
0.0301201
0.0303496
0.0305921
0.0308475
0.0311154
0.0313956
0.0316882
0.0319928
0.0323095
0.0326388
0.0296216
0.0297708
0.0299341
0.0301114
0.0303028
0.0305084
0.0307281
0.0309614
0.0312078
0.0314676
0.0317399
0.0320248
0.0323223
0.0326324
0.0329546
0.0332899
0.0307206
0.0309152
0.0311242
0.0313474
0.0315846
0.0318351
0.0320993
0.0323763
0.0326662
0.0329691
0.0332848
0.0336131
0.0339547
0.0324744
0.0327436
0.0330254
0.0333205
0.0336292
0.033951
0.0342858
0.0346342
0.033989
0.0343041
0.0346326
0.0349741
0.0353298
0.0240469
0.0240464
0.024046
0.0240459
0.0240459
0.0240462
0.0240466
0.0240473
0.0240481
0.0240491
0.0240504
0.0240518
0.0240534
0.0240553
0.0240573
0.0240595
0.0240619
0.0240645
0.0240672
0.0240702
0.0240733
0.0240766
0.0240801
0.0240838
0.0240876
0.0240917
0.0240959
0.0241003
0.0240526
0.024052
0.0240516
0.0240515
0.0240516
0.0240518
0.0240523
0.024053
0.0240539
0.024055
0.0240563
0.0240578
0.0240596
0.0240615
0.0240636
0.0240659
0.0240685
0.0240712
0.0240741
0.0240772
0.0240804
0.0240839
0.0240875
0.0240913
0.0240953
0.0240994
0.0241036
0.0241079
0.0240585
0.0240579
0.0240576
0.0240574
0.0240575
0.0240578
0.0240583
0.024059
0.02406
0.0240612
0.0240625
0.0240641
0.024066
0.024068
0.0240702
0.0240726
0.0240753
0.0240781
0.0240811
0.0240844
0.0240877
0.0240913
0.0240951
0.024099
0.024103
0.0241072
0.0241114
0.0241157
0.0240648
0.0240642
0.0240638
0.0240637
0.0240638
0.0240641
0.0240646
0.0240654
0.0240664
0.0240676
0.0240691
0.0240708
0.0240727
0.0240748
0.0240771
0.0240796
0.0240824
0.0240853
0.0240884
0.0240918
0.0240953
0.024099
0.0241028
0.0241068
0.0241109
0.0241151
0.0241194
0.0241237
0.0240714
0.0240708
0.0240704
0.0240703
0.0240704
0.0240707
0.0240713
0.0240721
0.0240731
0.0240744
0.0240759
0.0240777
0.0240796
0.0240818
0.0240843
0.0240869
0.0240897
0.0240928
0.024096
0.0240994
0.024103
0.0241068
0.0241107
0.0241148
0.024119
0.0241233
0.0241276
0.0241321
0.0240784
0.0240777
0.0240773
0.0240772
0.0240773
0.0240776
0.0240782
0.0240791
0.0240802
0.0240815
0.0240831
0.0240849
0.0240869
0.0240892
0.0240917
0.0240944
0.0240973
0.0241005
0.0241038
0.0241073
0.024111
0.0241149
0.0241189
0.024123
0.0241273
0.0241316
0.0241361
0.0241406
0.0240856
0.0240849
0.0240845
0.0240844
0.0240845
0.0240849
0.0240855
0.0240864
0.0240875
0.0240889
0.0240905
0.0240924
0.0240945
0.0240969
0.0240994
0.0241022
0.0241052
0.0241084
0.0241118
0.0241154
0.0241192
0.0241232
0.0241272
0.0241315
0.0241358
0.0241402
0.0241448
0.0241494
0.0240931
0.0240925
0.0240921
0.0240919
0.0240921
0.0240924
0.0240931
0.024094
0.0240952
0.0240966
0.0240983
0.0241002
0.0241024
0.0241048
0.0241074
0.0241103
0.0241134
0.0241167
0.0241201
0.0241238
0.0241277
0.0241317
0.0241358
0.0241401
0.0241446
0.0241491
0.0241537
0.0241584
0.024101
0.0241003
0.0240999
0.0240998
0.0240999
0.0241003
0.024101
0.0241019
0.0241031
0.0241046
0.0241063
0.0241083
0.0241105
0.024113
0.0241157
0.0241186
0.0241218
0.0241251
0.0241287
0.0241324
0.0241364
0.0241404
0.0241447
0.024149
0.0241535
0.0241581
0.0241628
0.0241676
0.0241091
0.0241084
0.024108
0.0241079
0.024108
0.0241084
0.0241091
0.0241101
0.0241113
0.0241128
0.0241146
0.0241166
0.0241189
0.0241214
0.0241242
0.0241272
0.0241304
0.0241338
0.0241375
0.0241413
0.0241453
0.0241494
0.0241537
0.0241581
0.0241627
0.0241674
0.0241721
0.0241771
0.0241175
0.0241168
0.0241164
0.0241163
0.0241164
0.0241168
0.0241176
0.0241186
0.0241198
0.0241214
0.0241232
0.0241252
0.0241276
0.0241301
0.024133
0.024136
0.0241393
0.0241428
0.0241465
0.0241504
0.0241544
0.0241586
0.024163
0.0241674
0.0241721
0.0241768
0.0241817
0.0241867
0.0241262
0.0241254
0.024125
0.0241249
0.0241251
0.0241255
0.0241263
0.0241273
0.0241286
0.0241301
0.024132
0.0241341
0.0241365
0.0241391
0.024142
0.0241451
0.0241484
0.024152
0.0241557
0.0241596
0.0241637
0.024168
0.0241724
0.0241769
0.0241816
0.0241864
0.0241914
0.0241965
0.0241351
0.0241343
0.0241339
0.0241338
0.024134
0.0241345
0.0241352
0.0241363
0.0241376
0.0241392
0.024141
0.0241432
0.0241456
0.0241483
0.0241512
0.0241544
0.0241578
0.0241614
0.0241652
0.0241692
0.0241733
0.0241776
0.024182
0.0241866
0.0241914
0.0241962
0.0242013
0.0242065
0.0241442
0.0241435
0.0241431
0.024143
0.0241432
0.0241437
0.0241444
0.0241455
0.0241468
0.0241484
0.0241503
0.0241525
0.024155
0.0241577
0.0241607
0.0241639
0.0241674
0.024171
0.0241748
0.0241789
0.0241831
0.0241874
0.0241919
0.0241965
0.0242012
0.0242062
0.0242115
0.0242181
0.0241562
0.0241579
0.0241598
0.0241621
0.0241646
0.0241673
0.0241704
0.0241736
0.0241771
0.0241809
0.0241847
0.0241888
0.024193
0.0241974
0.0242019
0.0242065
0.0242114
0.0242172
0.0242246
0.0242359
0.0241947
0.0241988
0.0242032
0.0242075
0.0242121
0.0242174
0.0242241
0.0242336
0.0242485
0.0242724
0.0242249
0.0242336
0.024247
0.0242679
0.0243009
0.0243507
0.0243436
0.0244092
0.0244986
0.0373701
0.0381468
0.0389458
0.0264554
0.0269615
0.0274914
0.0280408
0.0286068
0.0291869
0.0297798
0.0303845
0.0310006
0.0316283
0.0322681
0.0329207
0.0335871
0.0342684
0.0349658
0.0356805
0.0364135
0.037166
0.0379391
0.0387337
0.0250388
0.0254285
0.0258618
0.0263317
0.0268316
0.0273563
0.0279015
0.0284641
0.0290413
0.0296314
0.0302336
0.0308473
0.0314724
0.0321096
0.0327592
0.0334225
0.0341004
0.0347941
0.0355049
0.0362339
0.0369822
0.0377509
0.038541
0.0249561
0.0253345
0.0257588
0.0262212
0.0267152
0.027235
0.0277763
0.0283356
0.02891
0.0294977
0.0300976
0.030709
0.0313319
0.0319666
0.0326137
0.0332744
0.0339493
0.0346399
0.0353472
0.0360725
0.0368171
0.0375817
0.0383676
0.0248852
0.0252523
0.0256683
0.0261238
0.0266122
0.0271275
0.027665
0.0282212
0.028793
0.0293783
0.0299762
0.0305856
0.0312065
0.0318391
0.0324842
0.0331424
0.0338148
0.0345026
0.0352069
0.0359291
0.0366703
0.0374313
0.0382135
0.0248253
0.0251813
0.0255897
0.026039
0.0265222
0.0270334
0.0275676
0.0281209
0.0286903
0.0292737
0.0298697
0.0304774
0.0310966
0.0317274
0.0323705
0.0330266
0.0336968
0.0343822
0.035084
0.0358035
0.0365417
0.0372997
0.0380787
0.0240767
0.0240838
0.0240911
0.0240987
0.0241066
0.0241148
0.0241233
0.024132
0.0241409
0.0241501
0.0241595
0.0241691
0.0241789
0.0241888
0.0241989
0.02421
0.0242265
0.0242624
0.0243468
0.0245131
0.0247757
0.0251212
0.0255229
0.0259665
0.0264451
0.0269525
0.0274838
0.0280346
0.028602
0.0291837
0.0297781
0.0303843
0.0310019
0.0316313
0.0322728
0.0329272
0.0335956
0.034279
0.0349786
0.0356956
0.0364313
0.0371867
0.0379631
0.0240755
0.0240824
0.0240897
0.0240973
0.0241051
0.0241133
0.0241217
0.0241304
0.0241393
0.0241485
0.0241579
0.0241674
0.0241772
0.0241872
0.0241973
0.024208
0.0242231
0.0242551
0.0243309
0.0244852
0.0247354
0.0250717
0.0254676
0.0259064
0.0263809
0.0268852
0.0274139
0.0279627
0.0285283
0.0291085
0.0297015
0.0303065
0.030923
0.0315512
0.0321914
0.0328443
0.0335111
0.0341928
0.0348906
0.0356056
0.0363393
0.0370925
0.0378665
0.0240744
0.0240813
0.0240885
0.0240961
0.0241039
0.024112
0.0241204
0.0241291
0.024138
0.0241471
0.0241565
0.0241661
0.0241758
0.0241858
0.0241959
0.0242064
0.0242206
0.0242497
0.0243191
0.0244638
0.024704
0.0250326
0.0254236
0.0258584
0.0263298
0.0268315
0.027358
0.0279049
0.028469
0.0290479
0.0296399
0.0302439
0.0308596
0.0314868
0.032126
0.0327779
0.0334435
0.0341238
0.0348202
0.0355337
0.0362657
0.0370172
0.0377894
0.0240435
0.0240489
0.0240546
0.0240607
0.024067
0.0240735
0.0240804
0.0240876
0.0240951
0.024103
0.0241111
0.0241194
0.0241281
0.024137
0.0241461
0.0241555
0.024165
0.0241748
0.0241847
0.0241949
0.0242052
0.0242188
0.0242459
0.0243108
0.0244484
0.024681
0.0250036
0.0253909
0.0258227
0.0262916
0.0267913
0.0273161
0.0278618
0.0284248
0.0290027
0.0295939
0.0301971
0.0308119
0.0314382
0.0320767
0.0327277
0.0333925
0.0340719
0.0347672
0.0354796
0.0362103
0.0369604
0.0377312
0.0240429
0.0240483
0.024054
0.02406
0.0240663
0.0240728
0.0240797
0.0240869
0.0240944
0.0241023
0.0241104
0.0241187
0.0241274
0.0241363
0.0241454
0.0241547
0.0241643
0.024174
0.024184
0.0241941
0.0242044
0.0242176
0.0242436
0.0243055
0.0244385
0.0246659
0.0249843
0.025369
0.0257988
0.0262661
0.0267643
0.027288
0.0278328
0.0283951
0.0289724
0.0295629
0.0301656
0.0307799
0.0314059
0.0320438
0.0326945
0.0333586
0.0340374
0.0347321
0.0354437
0.0361736
0.0369228
0.0376927
0.0240425
0.0240479
0.0240536
0.0240595
0.0240658
0.0240724
0.0240793
0.0240865
0.024094
0.0241018
0.0241099
0.0241183
0.0241269
0.0241358
0.0241449
0.0241543
0.0241638
0.0241736
0.0241835
0.0241936
0.0242039
0.0242171
0.0242424
0.0243029
0.0244335
0.0246583
0.0249746
0.0253579
0.0257866
0.026253
0.0267505
0.0272737
0.0278181
0.0283802
0.0289572
0.0295475
0.0301499
0.030764
0.0313897
0.0320274
0.0326778
0.0333416
0.0340201
0.0347144
0.0354256
0.0361551
0.0369039
0.0376733
0.0240424
0.0240477
0.0240534
0.0240593
0.0240656
0.0240722
0.0240791
0.0240863
0.0240939
0.0241017
0.0241098
0.0241182
0.0241268
0.0241357
0.0241448
0.0241541
0.0241637
0.0241735
0.0241834
0.0241935
0.0242038
0.0242169
0.0242423
0.0243028
0.0244333
0.0246581
0.0249744
0.0253577
0.0257864
0.0262528
0.0267504
0.0272737
0.027818
0.02838
0.0289571
0.0295473
0.0301498
0.0307639
0.0313896
0.0320273
0.0326776
0.0333415
0.0340199
0.0347142
0.0354255
0.0361549
0.0369036
0.037673
0.0240424
0.0240477
0.0240534
0.0240594
0.0240657
0.0240723
0.0240792
0.0240865
0.024094
0.0241018
0.0241099
0.0241183
0.024127
0.0241359
0.024145
0.0241543
0.0241639
0.0241737
0.0241836
0.0241937
0.024204
0.0242173
0.0242432
0.0243051
0.024438
0.0246654
0.0249838
0.0253684
0.0257982
0.0262654
0.0267637
0.0272875
0.0278323
0.0283948
0.0289721
0.0295627
0.0301654
0.0307797
0.0314056
0.0320436
0.032694
0.0333582
0.034037
0.0347316
0.0354433
0.0361731
0.0369223
0.0376923
0.0240426
0.024048
0.0240537
0.0240597
0.024066
0.0240726
0.0240796
0.0240868
0.0240944
0.0241022
0.0241104
0.0241188
0.0241274
0.0241363
0.0241455
0.0241548
0.0241644
0.0241742
0.0241841
0.0241943
0.0242046
0.0242181
0.0242453
0.0243101
0.0244477
0.0246802
0.0250027
0.02539
0.0258218
0.0262909
0.0267906
0.0273154
0.0278611
0.0284242
0.0290021
0.0295933
0.0301966
0.0308115
0.0314379
0.0320763
0.0327275
0.0333922
0.0340716
0.034767
0.0354794
0.0362101
0.0369603
0.0377311
0.024043
0.0240484
0.0240541
0.0240602
0.0240665
0.0240732
0.0240802
0.0240875
0.0240951
0.0241029
0.0241111
0.0241195
0.0241282
0.0241371
0.0241462
0.0241556
0.0241652
0.024175
0.0241849
0.0241951
0.0242056
0.0242197
0.0242488
0.0243182
0.0244628
0.0247029
0.0250315
0.0254225
0.0258574
0.0263288
0.0268305
0.027357
0.027904
0.0284682
0.0290471
0.029639
0.0302431
0.0308588
0.031486
0.0321252
0.0327773
0.0334429
0.0341233
0.0348197
0.0355332
0.0362651
0.0370165
0.0377887
0.0240437
0.0240491
0.0240549
0.0240609
0.0240673
0.024074
0.0240811
0.0240884
0.024096
0.0241039
0.0241121
0.0241205
0.0241292
0.0241381
0.0241473
0.0241567
0.0241663
0.0241761
0.024186
0.0241961
0.0242069
0.024222
0.0242539
0.0243297
0.0244838
0.024734
0.0250702
0.0254661
0.0259049
0.0263795
0.0268837
0.0274123
0.0279612
0.0285268
0.029107
0.0297001
0.0303053
0.0309219
0.0315502
0.0321906
0.0328437
0.0335105
0.0341922
0.03489
0.0356051
0.0363387
0.0370918
0.0378657
0.0240445
0.02405
0.0240558
0.0240619
0.0240684
0.0240751
0.0240822
0.0240895
0.0240972
0.0241051
0.0241133
0.0241218
0.0241305
0.0241395
0.0241487
0.0241581
0.0241677
0.0241775
0.0241874
0.0241976
0.0242087
0.0242251
0.024261
0.0243453
0.0245115
0.024774
0.0251195
0.0255211
0.0259647
0.0264434
0.0269509
0.0274821
0.028033
0.0286003
0.029182
0.0297766
0.0303829
0.0310008
0.0316304
0.032272
0.0329265
0.0335949
0.0342782
0.0349779
0.035695
0.0364305
0.0371858
0.037962
0.0240455
0.0240511
0.024057
0.0240631
0.0240696
0.0240764
0.0240836
0.024091
0.0240987
0.0241067
0.0241149
0.0241234
0.0241322
0.0241411
0.0241504
0.0241598
0.0241694
0.0241792
0.0241892
0.0241993
0.0242109
0.0242293
0.0242706
0.0243658
0.0245468
0.0248236
0.0251795
0.0255879
0.0260372
0.0265203
0.0270316
0.0275658
0.0281192
0.0286886
0.0292721
0.0298682
0.030476
0.0310953
0.0317263
0.0323694
0.0330256
0.0336959
0.0343812
0.0350831
0.0358024
0.0365406
0.0372985
0.0380774
0.0240467
0.0240524
0.0240583
0.0240646
0.0240712
0.024078
0.0240852
0.0240927
0.0241004
0.0241084
0.0241167
0.0241253
0.0241341
0.0241431
0.0241523
0.0241618
0.0241714
0.0241813
0.0241913
0.0242015
0.0242136
0.0242347
0.0242833
0.0243924
0.0245908
0.0248836
0.0252506
0.0256666
0.0261222
0.0266106
0.0271259
0.0276634
0.0282197
0.0287915
0.029377
0.0299749
0.0305844
0.0312053
0.031838
0.032483
0.0331412
0.0338137
0.0345014
0.0352058
0.0359278
0.0366688
0.0374298
0.038212
0.0240482
0.0240539
0.0240599
0.0240663
0.0240729
0.0240798
0.0240871
0.0240946
0.0241024
0.0241105
0.0241188
0.0241274
0.0241362
0.0241453
0.0241546
0.0241641
0.0241738
0.0241836
0.0241937
0.024204
0.0242171
0.0242419
0.0243002
0.0244262
0.0246446
0.0249546
0.025333
0.0257575
0.0262199
0.0267139
0.0272337
0.027775
0.0283343
0.0289087
0.0294965
0.0300963
0.0307078
0.0313306
0.0319653
0.0326124
0.0332729
0.0339479
0.0346384
0.0353457
0.0360711
0.0368156
0.0375802
0.038366
0.0240498
0.0240556
0.0240617
0.0240682
0.0240749
0.0240819
0.0240892
0.0240968
0.0241047
0.0241128
0.0241212
0.0241298
0.0241387
0.0241478
0.0241571
0.0241667
0.0241764
0.0241863
0.0241964
0.024207
0.0242216
0.0242517
0.0243228
0.024469
0.0247096
0.0250375
0.0254273
0.0258607
0.0263307
0.0268306
0.0273554
0.0279006
0.028463
0.0290401
0.0296304
0.0302326
0.0308462
0.0314712
0.0321081
0.0327578
0.0334208
0.0340987
0.0347923
0.035503
0.036232
0.0369802
0.0377488
0.0385388
0.0240516
0.0240576
0.0240638
0.0240703
0.0240771
0.0240842
0.0240916
0.0240992
0.0241072
0.0241154
0.0241238
0.0241325
0.0241414
0.0241506
0.0241599
0.0241695
0.0241793
0.0241892
0.0241992
0.0242105
0.0242276
0.0242653
0.0243527
0.0245221
0.0247866
0.0251327
0.0255341
0.025977
0.0264546
0.0269608
0.0274905
0.02804
0.0286059
0.0291861
0.029779
0.0303835
0.0309995
0.031627
0.0322666
0.0329189
0.0335851
0.0342662
0.0349633
0.0356778
0.0364106
0.0371632
0.0379362
0.0387308
0.0240536
0.0240597
0.024066
0.0240726
0.0240795
0.0240867
0.0240942
0.0241019
0.0241099
0.0241182
0.0241267
0.0241354
0.0241444
0.0241536
0.024163
0.0241726
0.0241824
0.0241924
0.0242025
0.0242146
0.0242356
0.0242839
0.0243916
0.0245873
0.0248766
0.0252403
0.0256534
0.0261061
0.0265918
0.0271046
0.0276396
0.0281935
0.0287629
0.0293462
0.0299417
0.0305489
0.0311676
0.0317978
0.0324403
0.0330958
0.0337653
0.0344501
0.0351511
0.0358698
0.0366071
0.0373642
0.0381421
0.0389419
0.0240558
0.024062
0.0240685
0.0240752
0.0240822
0.0240895
0.024097
0.0241048
0.0241129
0.0241212
0.0241298
0.0241386
0.0241476
0.0241569
0.0241664
0.024176
0.0241859
0.0241959
0.0242062
0.0242198
0.0242466
0.0243094
0.0244418
0.0246663
0.0249804
0.0253605
0.0257858
0.0262486
0.0267425
0.027262
0.0278025
0.0283606
0.0289339
0.0295205
0.030119
0.0307291
0.0313505
0.0319836
0.0326293
0.0332882
0.0339614
0.0346502
0.0353556
0.0360788
0.036821
0.0375833
0.0383665
0.0391717
0.0240582
0.0240645
0.0240711
0.0240779
0.024085
0.0240924
0.0241001
0.024108
0.0241161
0.0241245
0.0241331
0.024142
0.0241511
0.0241604
0.0241699
0.0241796
0.0241895
0.0241995
0.0242105
0.0242269
0.0242623
0.0243444
0.0245053