/*--------------------------------*- C++ -*----------------------------------*\
  =========                 |
  \\      /  F ield         | OpenFOAM: The Open Source CFD Toolbox
   \\    /   O peration     | Website:  https://openfoam.org
    \\  /    A nd           | Version:  7
     \\/     M anipulation  |
\*---------------------------------------------------------------------------*/
FoamFile
{
    version     2.0;
    format      ascii;
    class       volScalarField;
    location    "72000";
    object      strainRate;
}
// * * * * * * * * * * * * * * * * * * * * * * * * * * * * * * * * * * * * * //

dimensions      [0 0 -1 0 0 0 0];

internalField   nonuniform List<scalar> 
4838
(
2.33155e-05
2.40462e-05
2.37535e-05
2.31858e-05
2.24495e-05
2.16264e-05
2.07473e-05
1.98291e-05
1.88819e-05
1.79128e-05
1.69271e-05
1.59287e-05
1.49213e-05
1.3908e-05
1.28921e-05
1.1877e-05
1.08668e-05
9.86649e-06
8.88283e-06
7.92519e-06
7.00729e-06
6.14976e-06
5.38413e-06
4.75714e-06
4.33343e-06
4.17292e-06
4.3041e-06
4.70334e-06
5.31338e-06
6.06699e-06
6.91597e-06
7.82751e-06
8.78013e-06
9.75956e-06
1.07561e-05
1.17627e-05
1.27742e-05
1.37864e-05
1.47954e-05
1.57979e-05
1.679e-05
1.77677e-05
1.87257e-05
1.9657e-05
2.05514e-05
2.13924e-05
2.21487e-05
2.2753e-05
2.30827e-05
2.30145e-05
2.69875e-05
2.61417e-05
2.60893e-05
2.56896e-05
2.50259e-05
2.41978e-05
2.32628e-05
2.22545e-05
2.11931e-05
2.0091e-05
1.89565e-05
1.77954e-05
1.66121e-05
1.54101e-05
1.41923e-05
1.29613e-05
1.17197e-05
1.04702e-05
9.21593e-06
7.961e-06
6.71129e-06
5.47677e-06
4.27709e-06
3.1623e-06
1.51082e-06
1.28393e-06
1.68008e-06
3.31773e-06
4.44628e-06
5.65024e-06
6.88366e-06
8.12922e-06
9.37785e-06
1.0624e-05
1.18638e-05
1.30941e-05
1.4312e-05
1.55148e-05
1.66995e-05
1.78626e-05
1.89997e-05
2.01052e-05
2.11708e-05
2.21844e-05
2.31264e-05
2.39644e-05
2.46436e-05
2.50775e-05
2.51804e-05
2.6514e-05
2.83456e-05
2.70101e-05
2.69398e-05
2.67389e-05
2.6307e-05
2.56739e-05
2.48813e-05
2.39656e-05
2.29534e-05
2.1864e-05
2.0711e-05
1.95047e-05
1.82529e-05
1.6962e-05
1.56371e-05
1.42827e-05
1.29029e-05
1.15011e-05
1.00809e-05
8.64545e-06
7.19835e-06
5.74364e-06
4.28729e-06
2.84162e-06
1.21406e-06
9.54446e-17
1.85121e-06
3.26463e-06
4.7091e-06
6.15875e-06
7.60291e-06
9.03619e-06
1.04546e-05
1.18547e-05
1.32329e-05
1.45856e-05
1.59087e-05
1.7198e-05
1.8448e-05
1.96526e-05
2.08041e-05
2.18924e-05
2.29043e-05
2.38213e-05
2.46179e-05
2.52603e-05
2.57112e-05
2.59548e-05
2.60916e-05
2.79194e-05
3.02915e-05
2.86416e-05
2.83568e-05
2.81144e-05
2.77443e-05
2.72057e-05
2.65026e-05
2.56556e-05
2.46879e-05
2.36194e-05
2.24665e-05
2.12426e-05
1.99586e-05
1.86236e-05
1.72458e-05
1.58329e-05
1.4392e-05
1.29308e-05
1.14583e-05
9.98519e-06
8.52722e-06
7.10913e-06
5.77555e-06
4.61459e-06
3.79939e-06
3.58091e-06
4.0597e-06
5.03251e-06
6.26931e-06
7.63458e-06
9.06109e-06
1.05137e-05
1.19719e-05
1.34221e-05
1.48542e-05
1.62597e-05
1.76308e-05
1.89595e-05
2.02378e-05
2.14562e-05
2.26041e-05
2.36684e-05
2.46333e-05
2.54799e-05
2.61871e-05
2.67374e-05
2.71317e-05
2.74233e-05
2.77803e-05
2.99197e-05
3.26263e-05
3.07385e-05
3.02305e-05
2.98483e-05
2.94276e-05
2.88952e-05
2.82239e-05
2.74142e-05
2.64785e-05
2.54327e-05
2.42925e-05
2.30722e-05
2.17848e-05
2.0442e-05
1.90549e-05
1.76346e-05
1.61926e-05
1.47417e-05
1.32977e-05
1.18804e-05
1.05174e-05
9.24815e-06
8.13066e-06
7.24711e-06
6.69912e-06
6.57525e-06
6.89884e-06
7.60895e-06
8.60471e-06
9.79107e-06
1.10972e-05
1.24742e-05
1.38888e-05
1.53171e-05
1.67412e-05
1.81468e-05
1.95211e-05
2.08528e-05
2.21303e-05
2.33416e-05
2.44741e-05
2.55136e-05
2.64454e-05
2.72548e-05
2.79317e-05
2.84788e-05
2.89279e-05
2.93618e-05
2.99412e-05
3.2307e-05
3.52225e-05
3.31478e-05
3.24455e-05
3.19021e-05
3.13783e-05
3.07954e-05
3.011e-05
2.93069e-05
2.83871e-05
2.73599e-05
2.62379e-05
2.50348e-05
2.37642e-05
2.24394e-05
2.10739e-05
1.96818e-05
1.82781e-05
1.68802e-05
1.55084e-05
1.4188e-05
1.29509e-05
1.18379e-05
1.08993e-05
1.01934e-05
9.77743e-06
9.69229e-06
9.94657e-06
1.05125e-05
1.13381e-05
1.23634e-05
1.35334e-05
1.48024e-05
1.61343e-05
1.75007e-05
1.88789e-05
2.02498e-05
2.15974e-05
2.29067e-05
2.41639e-05
2.53553e-05
2.64675e-05
2.74873e-05
2.8403e-05
2.92066e-05
2.98992e-05
3.04993e-05
3.10536e-05
3.16479e-05
3.24171e-05
3.49552e-05
3.79973e-05
3.57748e-05
3.49108e-05
3.42153e-05
3.35738e-05
3.29132e-05
3.21855e-05
3.13662e-05
3.04476e-05
2.94327e-05
2.83299e-05
2.71511e-05
2.59094e-05
2.46188e-05
2.32942e-05
2.19515e-05
2.06084e-05
1.92843e-05
1.80022e-05
1.67884e-05
1.56741e-05
1.46954e-05
1.38919e-05
1.3304e-05
1.29669e-05
1.2903e-05
1.31166e-05
1.35918e-05
1.42974e-05
1.51942e-05
1.62411e-05
1.74001e-05
1.86377e-05
1.99251e-05
2.12379e-05
2.25551e-05
2.3858e-05
2.513e-05
2.63559e-05
2.75212e-05
2.86131e-05
2.96202e-05
3.05349e-05
3.13556e-05
3.20919e-05
3.27708e-05
3.3443e-05
3.41867e-05
3.51115e-05
3.77822e-05
4.08944e-05
3.85534e-05
3.75551e-05
3.67259e-05
3.5971e-05
3.52258e-05
3.44433e-05
3.35949e-05
3.26675e-05
3.1659e-05
3.05743e-05
2.94225e-05
2.82158e-05
2.6968e-05
2.56944e-05
2.44118e-05
2.31386e-05
2.18956e-05
2.07054e-05
1.95937e-05
1.85888e-05
1.77206e-05
1.70202e-05
1.65162e-05
1.62321e-05
1.61819e-05
1.63679e-05
1.67798e-05
1.7397e-05
1.8192e-05
1.9134e-05
2.01922e-05
2.13371e-05
2.25419e-05
2.37826e-05
2.50375e-05
2.62875e-05
2.75151e-05
2.87046e-05
2.9842e-05
3.09155e-05
3.19163e-05
3.28403e-05
3.36909e-05
3.44829e-05
3.52466e-05
3.60312e-05
3.69047e-05
3.79577e-05
4.07321e-05
4.38793e-05
4.14361e-05
4.03221e-05
3.9378e-05
3.85218e-05
3.76965e-05
3.68576e-05
3.59757e-05
3.50347e-05
3.40291e-05
3.29606e-05
3.18364e-05
3.0667e-05
2.94653e-05
2.82464e-05
2.70272e-05
2.58259e-05
2.46629e-05
2.356e-05
2.25409e-05
2.16303e-05
2.08531e-05
2.02335e-05
1.97927e-05
1.95472e-05
1.95066e-05
1.96722e-05
2.00368e-05
2.05858e-05
2.1299e-05
2.21527e-05
2.31219e-05
2.41814e-05
2.53069e-05
2.64757e-05
2.7667e-05
2.88617e-05
3.00427e-05
3.11947e-05
3.23046e-05
3.3362e-05
3.43605e-05
3.52988e-05
3.61837e-05
3.70325e-05
3.78761e-05
3.87602e-05
3.97447e-05
4.09079e-05
4.37705e-05
4.69399e-05
4.43887e-05
4.31656e-05
4.21227e-05
4.11797e-05
4.02845e-05
3.93944e-05
3.84807e-05
3.75256e-05
3.65217e-05
3.54687e-05
3.43716e-05
3.32394e-05
3.20841e-05
3.092e-05
2.97631e-05
2.86311e-05
2.75434e-05
2.65203e-05
2.55832e-05
2.47536e-05
2.40522e-05
2.34978e-05
2.31067e-05
2.2891e-05
2.28575e-05
2.30072e-05
2.33346e-05
2.3829e-05
2.44749e-05
2.5254e-05
2.61458e-05
2.71287e-05
2.81811e-05
2.9282e-05
3.04119e-05
3.15527e-05
3.26879e-05
3.38032e-05
3.48866e-05
3.59295e-05
3.69271e-05
3.78804e-05
3.87978e-05
3.96981e-05
4.06111e-05
4.15804e-05
4.26601e-05
4.39273e-05
4.68843e-05
5.00948e-05
4.73866e-05
4.60434e-05
4.49162e-05
4.39013e-05
4.29499e-05
4.2018e-05
4.10785e-05
4.0112e-05
3.91108e-05
3.8073e-05
3.70026e-05
3.59069e-05
3.47966e-05
3.3685e-05
3.25874e-05
3.15202e-05
3.05013e-05
2.95498e-05
2.86849e-05
2.79253e-05
2.72879e-05
2.67877e-05
2.64372e-05
2.62454e-05
2.62175e-05
2.63542e-05
2.66512e-05
2.71003e-05
2.76897e-05
2.8405e-05
2.92295e-05
3.01446e-05
3.1131e-05
3.21696e-05
3.3242e-05
3.43318e-05
3.54235e-05
3.65035e-05
3.75615e-05
3.85903e-05
3.95863e-05
4.05521e-05
4.14962e-05
4.24388e-05
4.34078e-05
4.44476e-05
4.56084e-05
4.69903e-05
5.00886e-05
5.34218e-05
5.04119e-05
4.89072e-05
4.77177e-05
4.66462e-05
4.56567e-05
4.46943e-05
4.37386e-05
4.27649e-05
4.1769e-05
4.07472e-05
3.97032e-05
3.86432e-05
3.75757e-05
3.65136e-05
3.54713e-05
3.44637e-05
3.3507e-05
3.2619e-05
3.18177e-05
3.11192e-05
3.05372e-05
3.00833e-05
2.97668e-05
2.95949e-05
2.95715e-05
2.96972e-05
2.99685e-05
3.03789e-05
3.09195e-05
3.15794e-05
3.23451e-05
3.32006e-05
3.41282e-05
3.511e-05
3.61296e-05
3.7172e-05
3.82228e-05
3.92689e-05
4.0302e-05
4.13163e-05
4.23082e-05
4.32824e-05
4.42439e-05
4.52179e-05
4.62255e-05
4.73208e-05
4.85414e-05
5.00761e-05
5.34503e-05
6.07739e-05
5.3947e-05
5.17557e-05
5.04998e-05
4.93768e-05
4.83747e-05
4.73916e-05
4.64343e-05
4.54571e-05
4.44708e-05
4.34659e-05
4.24483e-05
4.14239e-05
4.03967e-05
3.93805e-05
3.83897e-05
3.74367e-05
3.65355e-05
3.57037e-05
3.49585e-05
3.43142e-05
3.37814e-05
3.33682e-05
3.30811e-05
3.29259e-05
3.29063e-05
3.30225e-05
3.32714e-05
3.36477e-05
3.4145e-05
3.47557e-05
3.54697e-05
3.6273e-05
3.71486e-05
3.80789e-05
3.90496e-05
4.00486e-05
4.10614e-05
4.20738e-05
4.30823e-05
4.40815e-05
4.5065e-05
4.6044e-05
4.70089e-05
4.80049e-05
4.90268e-05
5.01724e-05
5.14585e-05
5.36643e-05
6.07999e-05
8.75361e-05
6.53135e-05
5.70625e-05
5.35682e-05
5.20899e-05
5.10903e-05
5.0079e-05
4.91467e-05
4.81634e-05
4.71937e-05
4.62059e-05
4.52141e-05
4.42275e-05
4.32374e-05
4.22629e-05
4.13208e-05
4.04185e-05
3.95662e-05
3.87831e-05
3.80877e-05
3.74927e-05
3.70051e-05
3.66288e-05
3.63676e-05
3.62268e-05
3.62103e-05
3.63184e-05
3.65475e-05
3.68924e-05
3.73496e-05
3.79155e-05
3.85837e-05
3.93419e-05
4.01721e-05
4.10549e-05
4.19798e-05
4.29396e-05
4.3918e-05
4.48945e-05
4.58789e-05
4.68634e-05
4.78308e-05
4.88175e-05
4.97601e-05
5.07851e-05
5.18082e-05
5.33015e-05
5.68071e-05
6.50068e-05
8.74067e-05
0.000173363
0.000109741
7.8441e-05
6.3391e-05
5.69006e-05
5.40441e-05
5.27367e-05
5.18766e-05
5.0857e-05
4.99206e-05
4.89468e-05
4.79774e-05
4.70375e-05
4.60789e-05
4.51401e-05
4.42459e-05
4.33925e-05
4.25817e-05
4.18394e-05
4.11882e-05
4.06396e-05
4.01955e-05
3.98543e-05
3.96158e-05
3.94868e-05
3.94731e-05
3.95747e-05
3.97862e-05
4.01011e-05
4.05191e-05
4.10426e-05
4.167e-05
4.23907e-05
4.31828e-05
4.402e-05
4.48996e-05
4.58264e-05
4.67765e-05
4.77078e-05
4.86714e-05
4.96457e-05
5.0578e-05
5.16022e-05
5.24767e-05
5.37921e-05
5.66568e-05
6.31189e-05
7.80399e-05
0.000109128
0.000172788
0.000388689
0.000241633
0.00015467
0.00010413
7.69641e-05
6.36725e-05
5.76691e-05
5.48784e-05
5.35138e-05
5.2646e-05
5.16732e-05
5.07098e-05
4.98454e-05
4.89057e-05
4.7991e-05
4.71484e-05
4.63473e-05
4.55679e-05
4.48564e-05
4.42445e-05
4.37415e-05
4.33423e-05
4.30361e-05
4.2817e-05
4.26966e-05
4.26851e-05
4.27827e-05
4.29797e-05
4.3264e-05
4.3641e-05
4.4122e-05
4.4713e-05
4.54057e-05
4.61699e-05
4.69584e-05
4.77884e-05
4.86934e-05
4.96297e-05
5.0485e-05
5.1443e-05
5.24247e-05
5.32787e-05
5.46475e-05
5.74442e-05
6.34189e-05
7.66004e-05
0.000103611
0.000153855
0.000240441
0.000387487
0.000798861
0.000538086
0.000357381
0.000231737
0.000151692
0.000104853
7.89977e-05
6.55223e-05
5.92976e-05
5.61109e-05
5.4428e-05
5.33665e-05
5.26624e-05
5.17057e-05
5.07899e-05
5.00134e-05
4.92796e-05
4.85131e-05
4.78182e-05
4.72412e-05
4.67864e-05
4.64374e-05
4.61691e-05
4.59636e-05
4.58469e-05
4.58372e-05
4.59352e-05
4.6123e-05
4.63734e-05
4.67037e-05
4.71391e-05
4.76971e-05
4.83754e-05
4.91301e-05
4.98562e-05
5.06204e-05
5.15275e-05
5.24907e-05
5.31794e-05
5.42298e-05
5.59062e-05
5.90829e-05
6.52886e-05
7.86706e-05
0.000104399
0.000151
0.000230741
0.000356057
0.00053644
0.000797399
0.00139015
0.00103576
0.000755988
0.00052787
0.000356018
0.000236258
0.00015877
0.000111892
8.50166e-05
6.9894e-05
6.23197e-05
5.81455e-05
5.58347e-05
5.44828e-05
5.3497e-05
5.28249e-05
5.22017e-05
5.14065e-05
5.07071e-05
5.01625e-05
4.97627e-05
4.94746e-05
4.92529e-05
4.90492e-05
4.89277e-05
4.89195e-05
4.90256e-05
4.9216e-05
4.94239e-05
4.96962e-05
5.00782e-05
5.06048e-05
5.12887e-05
5.20758e-05
5.26989e-05
5.33545e-05
5.43267e-05
5.56702e-05
5.79682e-05
6.21203e-05
6.96182e-05
8.47042e-05
0.000111488
0.000158174
0.00023543
0.00035494
0.000526533
0.00075448
0.00103427
0.00138926
0.00206494
0.00167271
0.00133887
0.00103113
0.000762662
0.00054337
0.000376568
0.000257928
0.000178347
0.000127886
9.73889e-05
7.89959e-05
6.79405e-05
6.23412e-05
5.8864e-05
5.65986e-05
5.5194e-05
5.42316e-05
5.34988e-05
5.29897e-05
5.26582e-05
5.24494e-05
5.22959e-05
5.20672e-05
5.19276e-05
5.19204e-05
5.20468e-05
5.22675e-05
5.24112e-05
5.26065e-05
5.29212e-05
5.34117e-05
5.41279e-05
5.50846e-05
5.6484e-05
5.8733e-05
6.21873e-05
6.77172e-05
7.87423e-05
9.70855e-05
0.000127474
0.000177823
0.000257243
0.000375715
0.00054233
0.000761505
0.00102997
0.00133787
0.00167209
0.00206521
0.00200644
0.0016751
0.00135661
0.00106263
0.000804826
0.000591461
0.000425199
0.000302868
0.000216808
0.00015898
0.000121094
9.73032e-05
8.20007e-05
7.18969e-05
6.57091e-05
6.22782e-05
5.98857e-05
5.81265e-05
5.68432e-05
5.59411e-05
5.53569e-05
5.50029e-05
5.48283e-05
5.48213e-05
5.4983e-05
5.53286e-05
5.59056e-05
5.6797e-05
5.80675e-05
5.98133e-05
6.21929e-05
6.56081e-05
7.17453e-05
8.1823e-05
9.70875e-05
0.000120794
0.000158607
0.000216353
0.000302339
0.000424564
0.000590723
0.00080404
0.00106184
0.00135594
0.0016747
0.00200645
0.00234253
0.00273086
0.00234814
0.0020313
0.00171858
0.0014178
0.00113883
0.000891204
0.000681655
0.000512706
0.000382844
0.000286709
0.000217365
0.000168953
0.000135447
0.000112684
9.74945e-05
8.69035e-05
7.92559e-05
7.37058e-05
6.97738e-05
6.72102e-05
6.60504e-05
6.55589e-05
6.55536e-05
6.60335e-05
6.71737e-05
6.97234e-05
7.36433e-05
7.9184e-05
8.68245e-05
9.74063e-05
0.000112563
0.000135261
0.00016872
0.000217081
0.000286388
0.00038247
0.000512292
0.000681241
0.000890793
0.00113846
0.00141752
0.00171849
0.00203152
0.00234873
0.00266538
0.00297916
0.00334806
0.00239534
0.00210027
0.00180983
0.00153004
0.00126856
0.00103259
0.000827637
0.000656103
0.000517396
0.000409059
0.000326446
0.000264411
0.000218507
0.000185018
0.00016056
0.000142795
0.000130171
0.000121691
0.00011679
0.000114542
0.000114541
0.000116784
0.000121667
0.00013013
0.000142743
0.000160503
0.000184958
0.000218437
0.000264311
0.000326327
0.000408916
0.000517239
0.000655972
0.000827537
0.00103254
0.0012686
0.00153018
0.0018101
0.00210075
0.0023961
0.00269199
0.00298609
0.00327763
0.0035665
0.00391579
0.00275889
0.0024875
0.0022182
0.00195432
0.00169998
0.00146057
0.00124114
0.00104558
0.000876455
0.000734091
0.000616927
0.000522805
0.000448833
0.000391679
0.000348347
0.000316446
0.000294142
0.00027995
0.000273134
0.000273144
0.000279979
0.000294188
0.000316503
0.000348421
0.000391772
0.000448943
0.000522922
0.000617049
0.000734246
0.000876637
0.00104581
0.00124144
0.00146097
0.00170049
0.00195494
0.00221896
0.00248845
0.0027601
0.003032
0.0033032
0.00357333
0.00384236
0.00411015
0.00444281
0.00311755
0.00287129
0.00262771
0.00238826
0.00215537
0.00193197
0.00172095
0.00152587
0.00134954
0.00119363
0.00105899
0.000945652
0.000852647
0.00077844
0.000721394
0.000679984
0.000652874
0.000639538
0.000639579
0.000652996
0.000680187
0.000721673
0.000778788
0.000853053
0.000946101
0.00105947
0.00119414
0.00135011
0.00152649
0.00172163
0.00193274
0.00215626
0.00238929
0.0026289
0.00287265
0.00311911
0.00336727
0.00361652
0.00386653
0.00411704
0.00436777
0.00461831
0.00493684
0.00324798
0.00303007
0.0028174
0.0026113
0.00241321
0.00222518
0.00204939
0.00188774
0.00174178
0.00161329
0.00150325
0.00141201
0.0013395
0.00128541
0.00124941
0.00123146
0.00123154
0.00124965
0.0012858
0.00134003
0.00141266
0.00150399
0.00161408
0.00174262
0.00188861
0.00205032
0.00222618
0.00241429
0.00261249
0.00281874
0.00303157
0.00324967
0.003472
0.00369785
0.00392661
0.00415778
0.00439089
0.00462547
0.00486106
0.00509706
0.00540315
0.00361717
0.00342307
0.00323566
0.00305589
0.00288489
0.00272399
0.0025745
0.00243772
0.00231518
0.00220823
0.00211787
0.00204484
0.00198961
0.00195256
0.001934
0.00193411
0.00195289
0.00199013
0.00204554
0.00211873
0.00220919
0.00231621
0.00243881
0.00257564
0.0027252
0.00288619
0.0030573
0.00323723
0.00342481
0.00361912
0.00381928
0.00402454
0.00423424
0.00444768
0.00466429
0.00488346
0.00510462
0.00532721
0.00555063
0.00584547
0.00348675
0.00334054
0.00320505
0.00308125
0.00297024
0.00287309
0.0027907
0.00272384
0.00267315
0.0026391
0.00262204
0.00262217
0.00263947
0.00267372
0.00272463
0.00279165
0.00287417
0.00297144
0.00308253
0.0032064
0.00334199
0.00348831
0.00364439
0.00380928
0.00398208
0.00416202
0.00434827
0.00454008
0.00473676
0.00493757
0.00514191
0.00534911
0.00555862
0.00576984
0.00598221
0.00626676
0.00356662
0.00347829
0.00340354
0.00334295
0.00329707
0.00326629
0.00325091
0.00325104
0.00326668
0.00329768
0.00334378
0.00340456
0.00347948
0.00356796
0.00366924
0.00378254
0.00390707
0.00404205
0.00418659
0.00433991
0.0045012
0.00466972
0.00484469
0.00502534
0.00521099
0.00540097
0.00559462
0.00579133
0.00599057
0.00619179
0.00639437
0.00666949
0.00396502
0.00390927
0.00386711
0.00383888
0.00382478
0.0038249
0.00383927
0.00386775
0.00391013
0.00396611
0.00403521
0.00411698
0.00421081
0.00431607
0.00443209
0.00455821
0.00469361
0.00483758
0.0049894
0.00514835
0.0053137
0.00548473
0.00566079
0.00584124
0.00602545
0.00621291
0.00640309
0.00659545
0.00678935
0.00705577
0.00435634
0.00435644
0.00436982
0.00439639
0.00443593
0.00448818
0.00455276
0.00462925
0.00471717
0.00481599
0.0049251
0.00504386
0.00517161
0.00530767
0.00545135
0.00560199
0.00575892
0.0059215
0.00608911
0.00626111
0.00643699
0.00661625
0.00679838
0.00698287
0.00716911
0.00742751
0.0049787
0.00503955
0.00511164
0.0051946
0.00528795
0.00539116
0.00550357
0.00562469
0.00575384
0.00589038
0.00603369
0.00618317
0.00633829
0.0064984
0.00666293
0.00683143
0.00700342
0.00717842
0.00735591
0.00753537
0.00778645
0.0056472
0.0057358
0.00583381
0.00594065
0.00605593
0.00617896
0.0063092
0.00644601
0.00658888
0.00673738
0.00689079
0.00704873
0.00721069
0.00737628
0.00754496
0.00771624
0.00788974
0.00813418
0.00625585
0.00635781
0.00646789
0.0065855
0.00671014
0.0068412
0.00697823
0.0071208
0.00726829
0.00742041
0.00757661
0.00773652
0.00789962
0.00806545
0.00823372
0.00847217
0.00665973
0.00675735
0.00686276
0.00697557
0.00709524
0.00722121
0.00735307
0.00749038
0.00763271
0.00777969
0.00793082
0.00808571
0.0082439
0.00840504
0.00856877
0.00880182
0.00704752
0.00714125
0.00724253
0.00735108
0.00746632
0.00758779
0.00771509
0.00784779
0.00798563
0.00812811
0.00827477
0.00842528
0.00857924
0.00873636
0.00889626
0.00912446
0.00771377
0.00782508
0.00794258
0.00806589
0.00819465
0.00832857
0.00846711
0.00860989
0.00875661
0.00890701
0.00906073
0.0092174
0.00944135
0.00866293
0.0087981
0.00893757
0.00908109
0.00922853
0.00937939
0.00953336
0.00975363
0.00939996
0.00954492
0.00969341
0.00984524
0.0100623
3.99626e-06
3.44469e-06
2.92093e-06
2.6802e-06
2.86728e-06
3.43568e-06
4.24158e-06
5.17778e-06
6.18488e-06
7.23157e-06
8.30065e-06
9.38205e-06
1.04695e-05
1.15586e-05
1.26461e-05
1.37296e-05
1.48063e-05
1.58739e-05
1.69293e-05
1.7969e-05
1.89883e-05
1.99806e-05
2.09357e-05
2.18369e-05
2.26521e-05
2.33118e-05
2.36584e-05
2.44062e-05
3.41356e-06
2.40944e-06
1.15916e-06
5.67683e-17
1.44124e-06
2.7279e-06
4.04197e-06
5.36193e-06
6.68181e-06
7.99786e-06
9.30739e-06
1.06083e-05
1.18986e-05
1.31767e-05
1.44407e-05
1.56884e-05
1.69176e-05
1.8125e-05
1.93066e-05
2.04571e-05
2.15682e-05
2.26278e-05
2.36162e-05
2.45e-05
2.52233e-05
2.56974e-05
2.58283e-05
2.78382e-05
4.38621e-06
3.41418e-06
1.98349e-06
1.76179e-06
2.36678e-06
3.89019e-06
5.16881e-06
6.52833e-06
7.92291e-06
9.32931e-06
1.07346e-05
1.21305e-05
1.35108e-05
1.48701e-05
1.62035e-05
1.75059e-05
1.87718e-05
1.99945e-05
2.11664e-05
2.22772e-05
2.33135e-05
2.42567e-05
2.50812e-05
2.5753e-05
2.62348e-05
2.65137e-05
2.66898e-05
2.91789e-05
6.5146e-06
5.77339e-06
5.23749e-06
5.10842e-06
5.45877e-06
6.21688e-06
7.25428e-06
8.4658e-06
9.77918e-06
1.1149e-05
1.25463e-05
1.39515e-05
1.53503e-05
1.67313e-05
1.80849e-05
1.94018e-05
2.06727e-05
2.18879e-05
2.30359e-05
2.41035e-05
2.50748e-05
2.59306e-05
2.66502e-05
2.72164e-05
2.76323e-05
2.79552e-05
2.83523e-05
3.11168e-05
9.16868e-06
8.57848e-06
8.18987e-06
8.11361e-06
8.38603e-06
8.98021e-06
9.83745e-06
1.08905e-05
1.20797e-05
1.33587e-05
1.46922e-05
1.6054e-05
1.74236e-05
1.87843e-05
2.01218e-05
2.1423e-05
2.26754e-05
2.38663e-05
2.49823e-05
2.6009e-05
2.69315e-05
2.77354e-05
2.84109e-05
2.89622e-05
2.94234e-05
2.98803e-05
3.04912e-05
3.34388e-05
1.20906e-05
1.15976e-05
1.12895e-05
1.1239e-05
1.14684e-05
1.19654e-05
1.26967e-05
1.36188e-05
1.46873e-05
1.58623e-05
1.711e-05
1.84023e-05
1.97157e-05
2.10304e-05
2.23288e-05
2.3595e-05
2.48141e-05
2.59717e-05
2.70539e-05
2.80471e-05
2.89398e-05
2.97245e-05
3.04031e-05
3.09954e-05
3.15503e-05
3.21559e-05
3.29436e-05
3.60222e-05
1.51745e-05
1.47484e-05
1.44912e-05
1.44556e-05
1.46571e-05
1.50884e-05
1.5728e-05
1.65458e-05
1.75085e-05
1.85836e-05
1.97415e-05
2.09551e-05
2.22007e-05
2.34567e-05
2.4704e-05
2.59251e-05
2.71038e-05
2.82253e-05
2.9276e-05
3.02447e-05
3.1124e-05
3.19131e-05
3.26226e-05
3.32808e-05
3.39405e-05
3.46816e-05
3.56108e-05
3.87838e-05
1.8362e-05
1.7984e-05
1.77619e-05
1.77359e-05
1.79174e-05
1.83011e-05
1.88713e-05
1.96053e-05
2.04778e-05
2.1463e-05
2.25355e-05
2.3671e-05
2.48462e-05
2.60399e-05
2.72321e-05
2.84048e-05
2.95416e-05
3.06278e-05
3.16511e-05
3.26031e-05
3.34801e-05
3.42866e-05
3.50385e-05
3.57676e-05
3.65251e-05
3.73813e-05
3.84245e-05
4.16662e-05
2.16122e-05
2.12697e-05
2.10728e-05
2.10538e-05
2.12207e-05
2.15686e-05
2.20846e-05
2.27506e-05
2.35463e-05
2.44521e-05
2.54472e-05
2.65098e-05
2.7618e-05
2.8751e-05
2.98893e-05
3.10148e-05
3.21114e-05
3.3165e-05
3.41649e-05
3.51052e-05
3.59856e-05
3.68138e-05
3.76084e-05
3.84022e-05
3.92439e-05
4.01956e-05
4.13351e-05
4.46332e-05
2.48919e-05
2.45754e-05
2.43976e-05
2.43843e-05
2.45407e-05
2.48616e-05
2.53351e-05
2.59449e-05
2.66741e-05
2.75104e-05
2.84371e-05
2.94344e-05
3.04817e-05
3.15588e-05
3.26471e-05
3.37291e-05
3.47889e-05
3.58132e-05
3.67925e-05
3.77235e-05
3.86086e-05
3.94567e-05
4.02876e-05
4.11342e-05
4.20444e-05
4.30757e-05
4.43062e-05
4.76689e-05
2.81704e-05
2.78733e-05
2.77109e-05
2.77034e-05
2.7853e-05
2.81539e-05
2.85946e-05
2.91581e-05
2.98268e-05
3.06023e-05
3.147e-05
3.24106e-05
3.3404e-05
3.44313e-05
3.5475e-05
3.65183e-05
3.75457e-05
3.85439e-05
3.95036e-05
4.04258e-05
4.13144e-05
4.21764e-05
4.3033e-05
4.39168e-05
4.48802e-05
4.59763e-05
4.73096e-05
5.07827e-05
3.14179e-05
3.11359e-05
3.09882e-05
3.09876e-05
3.11335e-05
3.14204e-05
3.18376e-05
3.23652e-05
3.2971e-05
3.36955e-05
3.45141e-05
3.54067e-05
3.63534e-05
3.73369e-05
3.83417e-05
3.93519e-05
4.03516e-05
4.1327e-05
4.22658e-05
4.3179e-05
4.40693e-05
4.49362e-05
4.58046e-05
4.67054e-05
4.77074e-05
4.88456e-05
5.03223e-05
5.40278e-05
3.45194e-05
3.42699e-05
3.41411e-05
3.41495e-05
3.4294e-05
3.45711e-05
3.49746e-05
3.54847e-05
3.60847e-05
3.67603e-05
3.75409e-05
3.83938e-05
3.92999e-05
4.02446e-05
4.1216e-05
4.2199e-05
4.31762e-05
4.41332e-05
4.50439e-05
4.59507e-05
4.68439e-05
4.77014e-05
4.85672e-05
4.94564e-05
5.04978e-05
5.16822e-05
5.38567e-05
6.1393e-05
3.73819e-05
3.7165e-05
3.70683e-05
3.70887e-05
3.72323e-05
3.74999e-05
3.78961e-05
3.84082e-05
3.90272e-05
3.97066e-05
4.04603e-05
4.12813e-05
4.21511e-05
4.30601e-05
4.40031e-05
4.4965e-05
4.5924e-05
4.68761e-05
4.78165e-05
4.871e-05
4.96172e-05
5.0438e-05
5.12983e-05
5.21579e-05
5.35731e-05
5.70735e-05
6.53096e-05
8.83622e-05
4.17557e-05
4.24394e-05
4.31757e-05
4.3973e-05
4.4808e-05
4.56813e-05
4.66015e-05
4.75491e-05
4.84872e-05
4.94611e-05
5.04504e-05
5.13532e-05
5.23148e-05
5.30605e-05
5.42579e-05
5.70615e-05
6.35437e-05
7.86254e-05
0.000109889
0.000174348
5.29169e-05
5.3777e-05
5.51231e-05
5.79264e-05
6.39615e-05
7.73786e-05
0.000104582
0.000155045
0.000241867
0.000389605
0.000105246
0.000152229
0.000232241
0.000357709
0.000538197
0.000799551
0.000755695
0.00103542
0.00139054
0.0108631
0.0111724
0.0114824
0.0045566
0.00504262
0.00550275
0.0059403
0.00635789
0.00675774
0.00714188
0.00751227
0.00787064
0.00821856
0.00855739
0.00888848
0.00921314
0.00953268
0.00984826
0.0101609
0.0104716
0.0107813
0.0110909
0.011401
0.00272238
0.00333936
0.00390478
0.0044302
0.00492363
0.00539012
0.00583324
0.00625577
0.00666003
0.0070481
0.00742192
0.0077833
0.00813382
0.00847492
0.00880798
0.00913432
0.00945518
0.00977174
0.0100851
0.0103964
0.0107064
0.0110162
0.0113264
0.00257245
0.00320339
0.00377989
0.00431389
0.00481432
0.0052868
0.00573513
0.00616223
0.00657059
0.00696234
0.00733937
0.00770353
0.00805647
0.00839969
0.00873459
0.0090625
0.00938469
0.00970231
0.0100165
0.0103284
0.0106388
0.0109486
0.0112587
0.00243525
0.00307918
0.00366629
0.00420838
0.0047153
0.0051933
0.00564645
0.0060778
0.00648989
0.00688493
0.0072649
0.00763166
0.00798689
0.0083321
0.00866871
0.00899806
0.0093214
0.00963996
0.00995495
0.0102674
0.0105783
0.0108883
0.0111984
0.00231231
0.00296782
0.00356481
0.00411438
0.00462721
0.00511015
0.00556762
0.00600281
0.00641833
0.00681643
0.00719908
0.00756815
0.00792535
0.00827227
0.00861037
0.00894104
0.00926554
0.00958508
0.00990081
0.0102138
0.0105249
0.0108352
0.0111453
1.36374e-05
1.62872e-05
1.9163e-05
2.21788e-05
2.52763e-05
2.84241e-05
3.15964e-05
3.47712e-05
3.79302e-05
4.1057e-05
4.41365e-05
4.71538e-05
5.00933e-05
5.29355e-05
5.80414e-05
7.89962e-05
0.000159804
0.000389934
0.000849789
0.00149987
0.00220501
0.00287039
0.00347622
0.00403249
0.00455058
0.00503791
0.00549918
0.00593773
0.00635625
0.00675703
0.00714209
0.00751325
0.00787223
0.00822067
0.00856008
0.00889187
0.00921735
0.00953769
0.00985402
0.0101674
0.0104788
0.0107893
0.0110996
1.25243e-05
1.52741e-05
1.82516e-05
2.13531e-05
2.45219e-05
2.77304e-05
3.09552e-05
3.41767e-05
3.73783e-05
4.05455e-05
4.36656e-05
4.67267e-05
4.97177e-05
5.26263e-05
5.67792e-05
7.34799e-05
0.000142106
0.000346658
0.000775501
0.00140839
0.00211438
0.00278774
0.00340118
0.00396328
0.00448593
0.00497702
0.00544153
0.00588293
0.00630399
0.00670703
0.00709411
0.00746707
0.00782765
0.00817743
0.00851796
0.0088507
0.00917696
0.0094979
0.00981475
0.0101286
0.0104403
0.010751
0.0110614
1.15062e-05
1.43536e-05
1.74276e-05
2.06117e-05
2.38501e-05
2.71178e-05
3.03939e-05
3.36609e-05
3.69044e-05
4.01122e-05
4.32745e-05
4.63834e-05
4.94337e-05
5.24212e-05
5.58855e-05
6.95751e-05
0.000129542
0.00031481
0.000718394
0.00133566
0.00204107
0.00272061
0.00334034
0.00390727
0.00443365
0.00492782
0.00539497
0.00583871
0.00626184
0.00666669
0.00705537
0.00742976
0.00779161
0.00814256
0.00848414
0.00881771
0.00914459
0.00946607
0.00978338
0.0100976
0.0104096
0.0107203
0.0110307
5.13719e-06
4.07244e-06
4.17934e-06
5.72512e-06
8.00551e-06
1.06558e-05
1.36151e-05
1.67723e-05
2.00189e-05
2.33138e-05
2.66307e-05
2.99495e-05
3.32545e-05
3.65327e-05
3.97733e-05
4.29685e-05
4.61134e-05
4.92082e-05
5.22625e-05
5.53069e-05
6.70462e-05
0.00012112
0.000292542
0.00067691
0.00128136
0.00198556
0.00266964
0.00329421
0.00386489
0.00439413
0.00489063
0.00535979
0.0058053
0.00622998
0.00663621
0.00702608
0.00740153
0.00776439
0.00811625
0.00845859
0.00879286
0.00912035
0.00944231
0.00975992
0.0100743
0.0103864
0.0106973
0.0110077
4.72761e-06
3.23593e-06
3.00651e-06
4.69087e-06
7.18204e-06
1.00139e-05
1.30893e-05
1.6307e-05
1.96027e-05
2.2939e-05
2.62911e-05
2.96405e-05
3.29723e-05
3.62741e-05
3.95356e-05
4.27481e-05
4.59043e-05
4.89976e-05
5.20206e-05
5.49564e-05
6.59333e-05
0.000116266
0.000278351
0.000649713
0.00124515
0.00194824
0.00263533
0.00326318
0.0038364
0.00436758
0.00486567
0.00533621
0.00578292
0.00620865
0.0066158
0.00700649
0.00738271
0.00774625
0.00809871
0.00844156
0.00877625
0.00910411
0.00942637
0.0097442
0.0100587
0.0103709
0.0106819
0.0109923
4.32008e-06
1.61252e-06
1.6966e-06
3.83698e-06
6.61901e-06
9.62319e-06
1.27853e-05
1.60503e-05
1.93775e-05
2.27379e-05
2.61098e-05
2.94759e-05
3.28221e-05
3.61363e-05
3.9408e-05
4.26277e-05
4.57862e-05
4.88736e-05
5.18785e-05
5.47831e-05
6.54493e-05
0.000114026
0.000271517
0.000636282
0.00122701
0.00192943
0.00261801
0.00324755
0.00382208
0.00435426
0.00485319
0.00532441
0.00577168
0.00619791
0.00660553
0.0069967
0.00737336
0.00773724
0.00808996
0.00843301
0.00876786
0.0090959
0.00941834
0.00973629
0.0100509
0.0103632
0.0106742
0.0109847
4.09978e-06
1.26314e-06
4.31917e-17
3.50647e-06
6.45428e-06
9.53918e-06
1.27374e-05
1.60182e-05
1.93528e-05
2.27174e-05
2.6092e-05
2.94602e-05
3.28082e-05
3.6124e-05
3.93971e-05
4.2618e-05
4.57775e-05
4.88657e-05
5.18711e-05
5.47756e-05
6.54414e-05
0.000114009
0.000271472
0.000636203
0.00122691
0.00192934
0.00261793
0.00324749
0.00382205
0.00435426
0.00485318
0.00532438
0.00577164
0.00619789
0.00660555
0.00699675
0.00737342
0.00773731
0.00809001
0.00843305
0.00876789
0.00909592
0.00941835
0.00973627
0.0100508
0.0103631
0.0106741
0.0109846
4.15244e-06
1.3012e-06
1.45159e-06
3.89004e-06
6.7422e-06
9.78771e-06
1.29587e-05
1.62164e-05
1.9531e-05
2.28784e-05
2.62382e-05
2.95937e-05
3.29307e-05
3.62372e-05
3.95029e-05
4.27192e-05
4.58787e-05
4.89746e-05
5.19991e-05
5.49348e-05
6.59092e-05
0.000116211
0.000278211
0.000649474
0.00124486
0.00194797
0.0026351
0.00326302
0.00383631
0.00436754
0.00486566
0.00533618
0.00578285
0.00620855
0.00661573
0.00700654
0.00738289
0.00774647
0.00809888
0.00844166
0.00877629
0.00910411
0.00942638
0.00974422
0.0100587
0.0103709
0.0106818
0.0109922
4.48637e-06
3.04576e-06
2.9811e-06
4.81935e-06
7.43034e-06
1.03491e-05
1.34389e-05
1.66374e-05
1.99059e-05
2.32156e-05
2.6544e-05
2.98726e-05
3.31861e-05
3.64719e-05
3.97196e-05
4.29212e-05
4.60721e-05
4.91722e-05
5.22305e-05
5.52758e-05
6.70026e-05
0.000121011
0.000292292
0.000676507
0.00128089
0.00198513
0.0026693
0.00329395
0.00386469
0.00439397
0.00489051
0.0053597
0.0058052
0.0062299
0.00663618
0.00702615
0.00740173
0.00776464
0.00811652
0.00845886
0.00879308
0.00912058
0.00944254
0.00976008
0.0100743
0.0103864
0.0106972
0.0110076
5.05772e-06
4.15993e-06
4.43522e-06
6.04543e-06
8.41793e-06
1.1174e-05
1.41493e-05
1.72623e-05
2.04635e-05
2.37185e-05
2.70009e-05
3.029e-05
3.35686e-05
3.68223e-05
4.00395e-05
4.32106e-05
4.63282e-05
4.93876e-05
5.23853e-05
5.58454e-05
6.94883e-05
0.000129355
0.000314445
0.000717836
0.00133503
0.0020405
0.00272015
0.00333997
0.00390698
0.00443342
0.00492765
0.00539486
0.00583863
0.00626177
0.00666666
0.00705541
0.0074299
0.00779183
0.00814285
0.0084845
0.00881813
0.00914505
0.00946655
0.00978379
0.0100978
0.0104097
0.0107204
0.0110308
5.79494e-06
5.37011e-06
5.89937e-06
7.41472e-06
9.60538e-06
1.22023e-05
1.50515e-05
1.80643e-05
2.11842e-05
2.43718e-05
2.75972e-05
3.08369e-05
3.40713e-05
3.72843e-05
4.04618e-05
4.35914e-05
4.66618e-05
4.96623e-05
5.25815e-05
5.67267e-05
7.33626e-05
0.000141848
0.000346166
0.000774773
0.00140759
0.00211368
0.00278717
0.00340072
0.0039629
0.00448562