/*--------------------------------*- C++ -*----------------------------------*\
  =========                 |
  \\      /  F ield         | OpenFOAM: The Open Source CFD Toolbox
   \\    /   O peration     | Website:  https://openfoam.org
    \\  /    A nd           | Version:  7
     \\/     M anipulation  |
\*---------------------------------------------------------------------------*/
FoamFile
{
    version     2.0;
    format      ascii;
    class       volScalarField;
    location    "36000";
    object      strainRate;
}
// * * * * * * * * * * * * * * * * * * * * * * * * * * * * * * * * * * * * * //

dimensions      [0 0 -1 0 0 0 0];

internalField   nonuniform List<scalar> 
4825
(
0.0130645
0.0122293
0.015071
0.0142374
0.0134349
0.0126528
0.0118935
0.017084
0.0162515
0.0154515
0.0146722
0.013916
0.0191044
0.0182731
0.017475
0.016698
0.0159441
0.0211312
0.0203017
0.0195059
0.0187312
0.0179794
0.0231629
0.0223359
0.0215433
0.0207713
0.020022
0.0251975
0.0243741
0.0235853
0.0228168
0.0220707
0.0272331
0.0264141
0.02563
0.0248658
0.0241237
0.0292679
0.0284542
0.0276755
0.0269165
0.026179
0.0313002
0.0304925
0.02972
0.0289667
0.0282347
0.0333285
0.0325274
0.0317618
0.0310149
0.0302889
0.0353512
0.0345575
0.0337992
0.0330594
0.0323401
0.0373673
0.0365814
0.0358311
0.0350988
0.0343867
0.0393757
0.0385981
0.0378561
0.0371318
0.0413752
0.0406064
0.0398731
0.0391573
0.0433651
0.0426054
0.0418812
0.0411741
0.0453445
0.0445943
0.0438795
0.0473127
0.0465723
0.0458672
0.0492691
0.0485387
0.0512131
0.050493
0.0531442
0.0524346
0.0550619
0.054363
0.0569658
0.0562777
0.0588555
0.000150866
0.000153621
0.000155469
0.000156278
0.000156223
0.000155502
0.000154312
0.000152836
0.000151223
0.000149574
0.000148039
0.000146574
0.000145049
0.000143502
0.000141976
0.000140505
0.000139091
0.000137698
0.000136259
0.000134728
0.000140711
0.00014439
0.000147787
0.000150417
0.000152212
0.000153218
0.000153541
0.000153321
0.000152694
0.000151776
0.000150776
0.000149721
0.000148468
0.000147087
0.000145643
0.000144191
0.000142761
0.000141363
0.00014003
0.000138947
0.000131934
0.000134403
0.000137798
0.00014123
0.000144328
0.000146899
0.000148863
0.000150226
0.000151038
0.000151371
0.000151416
0.000151226
0.00015068
0.000149852
0.000148829
0.000147688
0.000146495
0.000145321
0.000144313
0.000143875
0.000130685
0.000128872
0.000129742
0.000131943
0.000134782
0.000137809
0.000140713
0.000143311
0.000145494
0.000147222
0.000148586
0.000149596
0.00015014
0.000150263
0.000150048
0.000149583
0.000148964
0.000148318
0.000147899
0.000148294
0.000145945
0.000135156
0.000129857
0.000127841
0.000127939
0.000129374
0.000131585
0.000134172
0.00013684
0.000139391
0.000141758
0.000143853
0.000145522
0.000146744
0.000147558
0.000148034
0.000148267
0.000148417
0.000148807
0.000150113
0.000194867
0.000165868
0.000147969
0.000136996
0.000130661
0.000127506
0.000126533
0.000127028
0.000128463
0.00013045
0.000132741
0.000135114
0.00013733
0.000139271
0.000140899
0.000142223
0.000143304
0.000144292
0.000145504
0.000147566
0.000315494
0.000247812
0.000203254
0.000173623
0.000153994
0.000141213
0.000133204
0.000128528
0.000126194
0.000125491
0.000125918
0.000127076
0.0001286
0.000130256
0.000131899
0.000133456
0.000134919
0.00013638
0.000138084
0.000140457
0.00058709
0.00044021
0.00033867
0.000268661
0.000220436
0.000187264
0.000164587
0.000149167
0.000138859
0.000132185
0.000128099
0.000125847
0.000124834
0.000124636
0.000124965
0.000125633
0.000126537
0.000127678
0.000129179
0.000131191
0.000133521
0.000135498
0.00013656
0.000137015
0.000137141
0.000137074
0.000136857
0.000136498
0.000136
0.000135365
0.000134602
0.000133728
0.000132777
0.000131834
0.000131192
0.0011368
0.000852457
0.000642126
0.000489676
0.000380541
0.000303058
0.000248478
0.000209924
0.000182718
0.000163576
0.000150123
0.00014074
0.000134268
0.000129854
0.000126915
0.000125059
0.00012403
0.00012369
0.000123999
0.000124849
0.000125396
0.000126612
0.00012736
0.000127674
0.000127749
0.000127704
0.00012759
0.00012743
0.000127247
0.000127071
0.00012695
0.000126952
0.000127182
0.000127828
0.000129311
0.000132681
0.000136155
0.00208992
0.00162266
0.00124778
0.000955902
0.000733806
0.00056807
0.000446705
0.000358214
0.000294057
0.000247689
0.000213986
0.000189413
0.000171486
0.000158298
0.00014856
0.0001414
0.000136227
0.000132632
0.000130326
0.000128942
0.000127391
0.00012719
0.00012708
0.000126897
0.000126745
0.00012672
0.000126877
0.000127256
0.000127907
0.000128903
0.000130347
0.000132387
0.000135239
0.000139256
0.00014504
0.000153393
0.000164064
0.00017947
0.00347419
0.00283124
0.00227439
0.00180512
0.00142026
0.00111273
0.000873454
0.000689766
0.000550883
0.000447119
0.000369585
0.000311708
0.000268638
0.000236288
0.000211832
0.000193308
0.000179349
0.000168934
0.00016127
0.000155589
0.000150704
0.000147942
0.000146107
0.000144855
0.000144194
0.000144187
0.000144895
0.000146386
0.000148763
0.000152177
0.00015685
0.000163095
0.000171368
0.000182361
0.000197127
0.00021662
0.000242438
0.000277384
0.00032338
0.000381726
0.00519045
0.00442828
0.00372897
0.00309851
0.0025441
0.00206857
0.00167104
0.00134521
0.0010837
0.00087776
0.000716825
0.00059215
0.000496672
0.000423266
0.000366724
0.000323188
0.000289839
0.000264411
0.00024506
0.000230242
0.000218399
0.000210389
0.000204912
0.00020136
0.000199587
0.000199603
0.000201476
0.000205337
0.000211407
0.000220022
0.000231673
0.000247053
0.000267149
0.000293387
0.000327809
0.000372401
0.000430793
0.000506902
0.000605974
0.000731659
0.000893417
0.00109819
0.00709135
0.00627262
0.00549536
0.00476246
0.00408382
0.00346721
0.00291784
0.00243826
0.00202802
0.00168393
0.00139931
0.00116713
0.000981044
0.000832297
0.000713938
0.00062029
0.000546892
0.000489738
0.00044531
0.000410775
0.000383768
0.000364376
0.000350895
0.000342246
0.000337999
0.000338049
0.000342481
0.000351556
0.00036574
0.000385749
0.000412612
0.000447751
0.000493113
0.000551356
0.000626099
0.00072094
0.000841473
0.000992799
0.00118198
0.00141521
0.00170065
0.00204327
0.00245221
0.00292949
0.00347653
0.00906617
0.00823027
0.00742506
0.00664792
0.00590627
0.00520695
0.00455589
0.00395945
0.00342156
0.00294421
0.00252726
0.00216848
0.00186488
0.00161037
0.001399
0.00122522
0.00108427
0.000971099
0.000880732
0.000809079
0.000752856
0.000711148
0.000681688
0.000662754
0.000653485
0.000653591
0.000663174
0.00068269
0.000712975
0.000755297
0.000811417
0.000883676
0.000975101
0.00108954
0.00123192
0.00140683
0.00162019
0.00187654
0.00218193
0.00254136
0.00295832
0.00343419
0.00397093
0.00456518
0.00521411
0.00591213
0.00665217
0.0110622
0.0102249
0.00941577
0.00862809
0.00786633
0.00713473
0.00643721
0.0057793
0.00516515
0.00459835
0.0040823
0.00361848
0.0032069
0.00284635
0.00253412
0.002267
0.0020417
0.00185413
0.00169968
0.00157416
0.00147412
0.00139797
0.00134323
0.00130777
0.00129037
0.00129055
0.00130841
0.00134458
0.00140016
0.00147683
0.00157677
0.00170277
0.0018582
0.00204695
0.00227341
0.00254131
0.00285482
0.00321608
0.00362796
0.00409201
0.00460767
0.00517352
0.00578672
0.00644316
0.00713924
0.0078701
0.00863082
0.00941791
0.0102262
0.011063
0.013064
0.0122287
0.0114227
0.0106367
0.00987366
0.00913613
0.00842632
0.00774781
0.00710336
0.00649576
0.0059286
0.0054043
0.00492404
0.00448955
0.00410091
0.00375748
0.00345795
0.00320042
0.00298236
0.0028009
0.00265365
0.00253911
0.00245542
0.00240069
0.00237369
0.00237393
0.00240148
0.00245693
0.00254132
0.00265613
0.00280326
0.00298495
0.00320368
0.00346206
0.00376227
0.00410602
0.00449511
0.00492939
0.00540904
0.00593342
0.00650034
0.00710773
0.00775175
0.0084296
0.00913868
0.00987572
0.0106382
0.0114239
0.0122295
0.0130645
0.0150707
0.0142371
0.0134344
0.0126521
0.0118925
0.0111575
0.0104487
0.00976828
0.00911808
0.00849983
0.00791616
0.00736903
0.00685951
0.00638993
0.00596154
0.00557501
0.00523032
0.00492733
0.0046655
0.0044437
0.004261
0.00411664
0.00400976
0.00393927
0.00390433
0.00390458
0.00394006
0.00401113
0.00411843
0.00426282
0.00444534
0.00466712
0.00492927
0.00523271
0.00557763
0.00596416
0.00639243
0.00686135
0.00737005
0.00791731
0.00850107
0.00911968
0.00976995
0.0104502
0.0111588
0.0118936
0.0126529
0.013435
0.0142375
0.0150709
0.0170839
0.0162515
0.0154512
0.0146719
0.0139155
0.0131839
0.0124786
0.0118013
0.0111534
0.0105362
0.00995146
0.00940069
0.00888464
0.00840529
0.00796399
0.0075617
0.00719885
0.00687604
0.00659381
0.00635221
0.00615132
0.00599107
0.00587142
0.00579203
0.00575255
0.00575277
0.0057927
0.00587247
0.00599227
0.00615238
0.00635304
0.00659446
0.00687673
0.00719967
0.0075625
0.00796461
0.00840554
0.00888417
0.00939951
0.0099505
0.0105356
0.0111534
0.0118017
0.0124792
0.0131846
0.0139161
0.0146723
0.0154515
0.0162517
0.0170841
0.0191044
0.0182731
0.017475
0.0166979
0.015944
0.015215
0.0145126
0.0138383
0.0131936
0.0125796
0.0119978
0.0114493
0.0109348
0.010456
0.0100138
0.00960938
0.00924307
0.00891565
0.00862796
0.00838055
0.00817394
0.00800839
0.00788424
0.0078016
0.00776041
0.00776058
0.0078021
0.00788495
0.00800907
0.00817439
0.00838075
0.0086279
0.00891547
0.00924285
0.00960901
0.0100132
0.0104549
0.0109331
0.0114471
0.0119958
0.0125781
0.0131929
0.0138381
0.0145127
0.0152153
0.0159442
0.0166982
0.0174752
0.0182732
0.0191045
0.0211312
0.0203018
0.0195061
0.0187313
0.0179795
0.0172527
0.0165525
0.0158806
0.0152383
0.0146269
0.0140478
0.0135021
0.0129904
0.0125142
0.0120743
0.0116717
0.0113068
0.0109804
0.0106932
0.0104459
0.010239
0.0100731
0.00994846
0.00986537
0.0098239
0.00982403
0.00986573
0.00994891
0.0100734
0.0102391
0.0104457
0.0106927
0.0109797
0.011306
0.0116707
0.0120731
0.0125125
0.0129882
0.0134995
0.0140455
0.0146251
0.0152372
0.01588
0.0165523
0.0172527
0.0179796
0.0187314
0.0195061
0.0203018
0.0211313
0.0231629
0.0223361
0.0215434
0.0207714
0.0200222
0.0192977
0.0185996
0.0179298
0.0172895
0.0166802
0.0161032
0.0155595
0.0150501
0.014576
0.0141384
0.0137378
0.0133749
0.0130503
0.0127648
0.0125189
0.0123132
0.0121482
0.0120242
0.0119415
0.0119002
0.0119003
0.0119418
0.0120245
0.0121483
0.0123131
0.0125185
0.0127641
0.0130494
0.0133739
0.0137365
0.0141368
0.0145741
0.0150477
0.0155569
0.0161008
0.0166783
0.0172883
0.0179291
0.0185993
0.0192976
0.0200222
0.0207715
0.0215434
0.0223361
0.023163
0.0251975
0.0243742
0.0235855
0.022817
0.0220709
0.0213493
0.0206538
0.0199863
0.0193481
0.0187408
0.0181656
0.0176237
0.017116
0.0166437
0.0162076
0.0158087
0.0154473
0.0151242
0.0148401
0.0145954
0.0143909
0.0142268
0.0141034
0.0140212
0.01398
0.0139801
0.0140213
0.0141036
0.0142268
0.0143906
0.0145949
0.0148393
0.0151232
0.0154461
0.0158073
0.016206
0.0166416
0.0171136
0.0176211
0.0181633
0.0187389
0.0193468
0.0199855
0.0206534
0.0213491
0.0220709
0.022817
0.0235854
0.0243742
0.0251976
0.0272332
0.0264143
0.0256302
0.0248661
0.024124
0.0234059
0.0227136
0.022049
0.0214134
0.0208084
0.0202353
0.0196952
0.0191893
0.0187186
0.018284
0.0178864
0.0175263
0.0172044
0.0169213
0.0166777
0.0164739
0.0163105
0.0161877
0.0161058
0.0160648
0.0160648
0.0161059
0.0161878
0.0163104
0.0164736
0.0166771
0.0169205
0.0172034
0.0175251
0.0178849
0.0182823
0.0187166
0.019187
0.0196928
0.020233
0.0208065
0.0214121
0.0220481
0.0227131
0.0234056
0.0241238
0.024866
0.0256302
0.0264142
0.0272332
0.029268
0.0284544
0.0276758
0.0269167
0.0261793
0.0254655
0.0247772
0.0241161
0.0234838
0.0228816
0.0223111
0.0217734
0.0212695
0.0208007
0.0203677
0.0199715
0.0196128
0.019292
0.01901
0.0187672
0.0185642
0.0184014
0.018279
0.0181974
0.0181566
0.0181566
0.0181974
0.0182791
0.0184013
0.0185639
0.0187666
0.0190092
0.019291
0.0196115
0.0199701
0.020366
0.0207987
0.0212673
0.021771
0.0223089
0.0228798
0.0234824
0.0241152
0.0247767
0.0254652
0.0261791
0.0269166
0.0276757
0.0284543
0.029268
0.0313003
0.0304927
0.0297203
0.028967
0.028235
0.0275262
0.0268426
0.0261857
0.0255573
0.0249587
0.0243913
0.0238564
0.0233551
0.0228885
0.0224576
0.0220632
0.021706
0.0213866
0.0211058
0.020864
0.0206618
0.0204997
0.0203778
0.0202964
0.0202557
0.0202558
0.0202965
0.0203777
0.0204995
0.0206615
0.0208634
0.0211049
0.0213855
0.0217047
0.0220617
0.0224559
0.0228866
0.023353
0.0238542
0.0243892
0.0249569
0.0255559
0.0261848
0.026842
0.0275259
0.0282348
0.0289669
0.0297201
0.0304926
0.0313003
0.0333285
0.0325276
0.031762
0.0310152
0.0302893
0.0295862
0.0289078
0.0282559
0.0276319
0.0270374
0.0264738
0.0259424
0.0254442
0.0249804
0.0245519
0.0241596
0.0238043
0.0234866
0.0232072
0.0229667
0.0227655
0.0226041
0.0224828
0.0224018
0.0223613
0.0223613
0.0224018
0.0224827
0.0226039
0.0227651
0.022966
0.0232064
0.0234856
0.023803
0.0241582
0.0245502
0.0249784
0.0254421
0.0259402
0.0264718
0.0270357
0.0276306
0.0282549
0.0289072
0.0295858
0.030289
0.031015
0.0317619
0.0325275
0.0333285
0.0353513
0.0345577
0.0337995
0.0330597
0.0323405
0.0316437
0.0309712
0.0303247
0.0297058
0.0291161
0.0285568
0.0280293
0.0275347
0.0270741
0.0266485
0.0262588
0.0259058
0.0255901
0.0253124
0.0250734
0.0248734
0.0247129
0.0245924
0.0245118
0.0244716
0.0244716
0.0245118
0.0245923
0.0247127
0.024873
0.0250727
0.0253116
0.025589
0.0259045
0.0262574
0.0266468
0.0270722
0.0275326
0.0280272
0.0285548
0.0291144
0.0297045
0.0303237
0.0309705
0.0316433
0.0323402
0.0330595
0.0337993
0.0345576
0.0353513
0.0373674
0.0365817
0.0358314
0.0350992
0.0343871
0.0336971
0.033031
0.0323905
0.0317773
0.0311928
0.0306383
0.0301152
0.0296247
0.0291678
0.0287455
0.0283588
0.0280084
0.0276951
0.0274194
0.027182
0.0269835
0.0268242
0.0267044
0.0266244
0.0265844
0.0265844
0.0266244
0.0267043
0.0268239
0.0269831
0.0271814
0.0274186
0.027694
0.0280072
0.0283574
0.0287439
0.0291659
0.0296227
0.0301132
0.0306364
0.0311911
0.031776
0.0323896
0.0330303
0.0336966
0.0343868
0.0350989
0.0358312
0.0365815
0.0373674
0.0393758
0.0385983
0.0378564
0.0371322
0.0364277
0.035745
0.0350858
0.0344519
0.0338447
0.0332659
0.0327167
0.0321985
0.0317124
0.0312596
0.0308411
0.0304577
0.0301103
0.0297995
0.0295262
0.0292907
0.0290938
0.0289358
0.0288169
0.0287376
0.0286979
0.0286979
0.0287376
0.0288168
0.0289355
0.0290934
0.0292901
0.0295253
0.0297985
0.030109
0.0304563
0.0308395
0.0312578
0.0317105
0.0321965
0.0327148
0.0332642
0.0338434
0.0344509
0.0350852
0.0357446
0.0364274
0.0371319
0.0378562
0.0385982
0.0393757
0.0413753
0.0406066
0.0398735
0.0391577
0.0384613
0.0377863
0.0371344
0.0365073
0.0359067
0.0353339
0.0347905
0.0342775
0.0337963
0.033348
0.0329335
0.0325538
0.0322096
0.0319018
0.0316309
0.0313976
0.0312025
0.0310459
0.0309281
0.0308495
0.0308101
0.0308101
0.0308494
0.0309279
0.0310456
0.031202
0.031397
0.0316301
0.0319007
0.0322084
0.0325524
0.0329319
0.0333462
0.0337944
0.0342756
0.0347886
0.0353323
0.0359054
0.0365064
0.0371337
0.0377858
0.0384609
0.0391574
0.0398732
0.0406065
0.0413752
0.0433652
0.0426057
0.0418816
0.0411746
0.0404866
0.0398197
0.0391755
0.0385557
0.0379619
0.0373956
0.0368582
0.0363509
0.0358749
0.0354313
0.0350212
0.0346454
0.0343048
0.0340001
0.033732
0.0335011
0.0333078
0.0331528
0.0330362
0.0329583
0.0329193
0.0329193
0.0329582
0.033036
0.0331525
0.0333074
0.0335004
0.0337312
0.0339991
0.0343036
0.034644
0.0350196
0.0354296
0.035873
0.036349
0.0368564
0.0373941
0.0379606
0.0385547
0.0391747
0.0398191
0.0404862
0.0411742
0.0418813
0.0426055
0.0433651
0.0453447
0.0445946
0.0438799
0.0431819
0.0425028
0.0418442
0.041208
0.0405959
0.0400093
0.0394498
0.0389187
0.0384174
0.0379469
0.0375084
0.0371029
0.0367313
0.0363945
0.0360931
0.0358279
0.0355995
0.0354084
0.035255
0.0351396
0.0350626
0.035024
0.035024
0.0350625
0.0351394
0.0352546
0.0354079
0.0355989
0.0358271
0.0360921
0.0363933
0.0367299
0.0371013
0.0375067
0.0379451
0.0384155
0.038917
0.0394483
0.040008
0.0405949
0.0412073
0.0418437
0.0425024
0.0431816
0.0438796
0.0445943
0.0453445
0.0473129
0.0465726
0.0458676
0.045179
0.0445089
0.043859
0.0432311
0.0426269
0.0420478
0.0414954
0.040971
0.0404758
0.0400111
0.0395779
0.0391773
0.0388101
0.0384773
0.0381795
0.0379174
0.0376916
0.0375027
0.037351
0.037237
0.0371608
0.0371227
0.0371227
0.0371607
0.0372368
0.0373507
0.0375022
0.037691
0.0379165
0.0381785
0.0384761
0.0388088
0.0391757
0.0395762
0.0400093
0.040474
0.0409692
0.0414939
0.0420465
0.0426259
0.0432304
0.0438584
0.0445084
0.0451787
0.0458673
0.0465723
0.0473127
0.0492693
0.0485391
0.047844
0.047165
0.0465041
0.0458632
0.0452439
0.0446478
0.0440765
0.0435314
0.0430139
0.0425252
0.0420665
0.0416388
0.0412433
0.0408808
0.0405521
0.040258
0.0399992
0.0397762
0.0395896
0.0394398
0.0393271
0.0392519
0.0392142
0.0392142
0.0392518
0.0393269
0.0394394
0.0395891
0.0397755
0.0399983
0.040257
0.0405509
0.0408794
0.0412418
0.0416372
0.0420647
0.0425234
0.0430122
0.0435299
0.0440752
0.0446468
0.0452431
0.0458626
0.0465037
0.0471646
0.0478436
0.0485388
0.0492691
0.0512133
0.0504934
0.0498084
0.0491393
0.0484879
0.0478561
0.0472456
0.0466579
0.0460946
0.045557
0.0450466
0.0445646
0.0441121
0.0436902
0.0433
0.0429423
0.0426179
0.0423277
0.0420722
0.0418521
0.0416679
0.0415201
0.0414089
0.0413346
0.0412974
0.0412974
0.0413345
0.0414087
0.0415197
0.0416674
0.0418514
0.0420713
0.0423266
0.0426167
0.0429409
0.0432985
0.0436886
0.0441103
0.0445628
0.045045
0.0455555
0.0460933
0.0466569
0.0472448
0.0478556
0.0484875
0.0491389
0.049808
0.0504931
0.0512131
0.0531444
0.052435
0.0517603
0.0511012
0.0504595
0.0498371
0.0492356
0.0486565
0.0481013
0.0475715
0.0470684
0.0465932
0.0461471
0.0457312
0.0453464
0.0449936
0.0446737
0.0443875
0.0441355
0.0439184
0.0437368
0.0435909
0.0434812
0.0434079
0.0433713
0.0433712
0.0434078
0.043481
0.0435906
0.0437363
0.0439178
0.0441347
0.0443865
0.0446726
0.0449923
0.0453449
0.0457295
0.0461454
0.0465915
0.0470668
0.04757
0.0481001
0.0486554
0.0492348
0.0498365
0.0504591
0.0511008
0.0517599
0.0524347
0.0531442
0.0550621
0.0543634
0.0536992
0.0530502
0.0524185
0.0518056
0.0512132
0.0506428
0.050096
0.0495742
0.0490785
0.0486104
0.0481708
0.0477609
0.0473817
0.0470341
0.0467188
0.0464367
0.0461883
0.0459743
0.0457952
0.0456514
0.0455433
0.045471
0.0454349
0.0454348
0.0454709
0.045543
0.0456511
0.0457947
0.0459736
0.0461874
0.0464356
0.0467176
0.0470327
0.0473802
0.0477593
0.0481691
0.0486087
0.0490769
0.0495727
0.0500948
0.0506418
0.0512124
0.051805
0.052418
0.0530498
0.0536988
0.054363
0.0550619
0.0569661
0.0562781
0.0556245
0.054986
0.0543642
0.053761
0.0531779
0.0526165
0.0520782
0.0515644
0.0510764
0.0506154
0.0501825
0.0497788
0.0494053
0.0490629
0.0487523
0.0484744
0.0482297
0.0480189
0.0478425
0.0477008
0.0475942
0.0475231
0.0474874
0.0474874
0.0475229
0.047594
0.0477004
0.0478419
0.0480182
0.0482289
0.0484734
0.0487512
0.0490616
0.0494039
0.0497772
0.0501808
0.0506137
0.0510748
0.0515629
0.0520769
0.0526154
0.0531771
0.0537604
0.0543637
0.0549855
0.0556241
0.0562778
0.0569658
0.0588558
0.0581789
0.057536
0.0569079
0.0562963
0.0557029
0.0551292
0.0545768
0.0540472
0.0535416
0.0530613
0.0526076
0.0521816
0.0517842
0.0514166
0.0510794
0.0507737
0.0505001
0.0502591
0.0500516
0.0498778
0.0497383
0.0496334
0.0495633
0.0495282
0.0495282
0.0495632
0.0496332
0.049738
0.0498773
0.0500509
0.0502583
0.050499
0.0507725
0.0510781
0.0514151
0.0517826
0.0521799
0.052606
0.0530597
0.0535401
0.0540459
0.0545758
0.0551284
0.0557023
0.0562958
0.0569074
0.0575356
0.0581785
0.0588555
0.0607311
0.0600653
0.0594333
0.0588157
0.0582143
0.0576308
0.0570667
0.0565235
0.0560026
0.0555053
0.0550329
0.0545866
0.0541675
0.0537766
0.0534148
0.0530831
0.0527823
0.052513
0.0522759
0.0520717
0.0519007
0.0517634
0.0516601
0.0515911
0.0515566
0.0515565
0.051591
0.0516599
0.051763
0.0519002
0.052071
0.0522751
0.052512
0.0527811
0.0530818
0.0534134
0.053775
0.0541658
0.054585
0.0550313
0.0555039
0.0560013
0.0565225
0.0570659
0.0576302
0.0582138
0.0588152
0.0594328
0.0600649
0.0607308
0.0625917
0.0619371
0.0613159
0.060709
0.060118
0.0595445
0.05899
0.0584561
0.057944
0.0574551
0.0569907
0.0565519
0.0561397
0.0557553
0.0553996
0.0550734
0.0547775
0.0545127
0.0542795
0.0540786
0.0539104
0.0537754
0.0536738
0.053606
0.053572
0.0535719
0.0536058
0.0536736
0.053775
0.0539099
0.0540779
0.0542787
0.0545117
0.0547764
0.0550721
0.0553982
0.0557538
0.0561381
0.0565502
0.0569891
0.0574537
0.0579427
0.058455
0.0589892
0.0595439
0.0601175
0.0607085
0.0613154
0.0619366
0.0625913
0.0644372
0.0637938
0.0631837
0.0625875
0.0620069
0.0614435
0.0608988
0.0603741
0.059871
0.0593906
0.0589342
0.058503
0.0580979
0.0577201
0.0573705
0.0570499
0.056759
0.0564987
0.0562695
0.0560719
0.0559066
0.0557738
0.055674
0.0556072
0.0555738
0.0555738
0.0556071
0.0556737
0.0557734
0.0559061
0.0560713
0.0562686
0.0564977
0.0567579
0.0570486
0.0573691
0.0577186
0.0580964
0.0585014
0.0589327
0.0593892
0.0598698
0.0603731
0.060898
0.0614429
0.0620064
0.062587
0.0631832
0.0637934
0.0662674
0.0656355
0.0650363
0.0644509
0.0638808
0.0633276
0.0627926
0.0622774
0.0617833
0.0613115
0.0608632
0.0604396
0.0600417
0.0596705
0.059327
0.059012
0.0587263
0.0584705
0.0582452
0.0580512
0.0578887
0.0577582
0.0576601
0.0575945
0.0575617
0.0575616
0.0575944
0.0576598
0.0577578
0.0578882
0.0580505
0.0582444
0.0584695
0.0587251
0.0590107
0.0593256
0.059669
0.0600401
0.060438
0.0608616
0.06131
0.061782
0.0622764
0.0627918
0.063327
0.0638803
0.0644504
0.0650358
0.0680822
0.0674617
0.0668736
0.066299
0.0657395
0.0651964
0.0646714
0.0641656
0.0636805
0.0632173
0.0627772
0.0623613
0.0619706
0.0616062
0.0612689
0.0609595
0.0606789
0.0604277
0.0602065
0.0600159
0.0598563
0.0597282
0.0596318
0.0595674
0.0595351
0.0595351
0.0595673
0.0596315
0.0597278
0.0598558
0.0600152
0.0602057
0.0604267
0.0606778
0.0609583
0.0612675
0.0616047
0.0619691
0.0623597
0.0627757
0.0632159
0.0636793
0.0641646
0.0646706
0.0651958
0.0657389
0.0662985
0.0698813
0.0692723
0.0686954
0.0681317
0.0675827
0.0670499
0.0665347
0.0660385
0.0655625
0.0651079
0.064676
0.0642679
0.0638845
0.0635268
0.0631957
0.0628921
0.0626166
0.06237
0.0621529
0.0619658
0.0618091
0.0616834
0.0615887
0.0615255
0.0614938
0.0614938
0.0615254
0.0615885
0.061683
0.0618086
0.0619651
0.0621521
0.062369
0.0626155
0.0628908
0.0631943
0.0635253
0.0638829
0.0642663
0.0646745
0.0651065
0.0655612
0.0660374
0.0665339
0.0670493
0.0675821
0.0716647
0.0710672
0.0705014
0.0699486
0.0694102
0.0688877
0.0683824
0.0678958
0.0674289
0.0669831
0.0665594
0.066159
0.0657829
0.065432
0.0651072
0.0648093
0.0645391
0.0642971
0.0640841
0.0639005
0.0637468
0.0636234
0.0635305
0.0634685
0.0634374
0.0634374
0.0634683
0.0635303
0.063623
0.0637463
0.0638998
0.0640833
0.0642962
0.064538
0.0648081
0.0651059
0.0654306
0.0657814
0.0661575
0.0665579
0.0669817
0.0674277
0.0678947
0.0683816
0.0688871
0.0734322
0.0728462
0.0722916
0.0717497
0.0712219
0.0707097
0.0702144
0.0697373
0.0692796
0.0688425
0.0684271
0.0680346
0.0676658
0.0673217
0.0670032
0.0667111
0.0664461
0.0662088
0.0659999
0.0658198
0.065669
0.065548
0.0654569
0.0653961
0.0653656
0.0653655
0.0653959
0.0654567
0.0655476
0.0656685
0.0658191
0.065999
0.0662078
0.0664449
0.0667098
0.0670018
0.0673202
0.0676642
0.068033
0.0684256
0.0688411
0.0692784
0.0697362
0.0702136
0.0707092
0.0751836
0.0746093
0.0740658
0.0735348
0.0730176
0.0725158
0.0720304
0.0715629
0.0711144
0.070686
0.070279
0.0698942
0.0695328
0.0691956
0.0688834
0.068597
0.0683373
0.0681047
0.0678999
0.0677234
0.0675756
0.0674569
0.0673677
0.067308
0.0672781
0.0672781
0.0673078
0.0673674
0.0674565
0.0675751
0.0677227
0.0678991
0.0681037
0.0683362
0.0685958
0.068882
0.0691941
0.0695313
0.0698927
0.0702775
0.0706846
0.0711131
0.0715619
0.0720296
0.0725152
0.0769189
0.0763562
0.0758238
0.0753038
0.0747973
0.0743057
0.0738304
0.0733724
0.0729331
0.0725135
0.0721148
0.0717379
0.0713838
0.0710534
0.0707476
0.070467
0.0702125
0.0699846
0.069784
0.069611
0.0694662
0.06935
0.0692625
0.069204
0.0691747
0.0691747
0.0692039
0.0692622
0.0693496
0.0694657
0.0696104
0.0697832
0.0699837
0.0702114
0.0704658
0.0707462
0.071052
0.0713823
0.0717364
0.0721133
0.0725121
0.0729319
0.0733714
0.0738296
0.0743052
0.0786381
0.0780869
0.0775657
0.0770566
0.0765607
0.0760795
0.0756141
0.0751657
0.0747356
0.0743248
0.0739344
0.0735653
0.0732186
0.0728951
0.0725956
0.0723209
0.0720716
0.0718485
0.071652
0.0714826
0.0713408
0.0712269
0.0711412
0.071084
0.0710553
0.0710552
0.0710838
0.0711409
0.0712265
0.0713402
0.0714819
0.0716511
0.0718475
0.0720705
0.0723197
0.0725943
0.0728937
0.0732171
0.0735638
0.0739329
0.0743234
0.0747344
0.0751647
0.0756133
0.076079
0.080341
0.0798014
0.0792913
0.0787931
0.0783079
0.0778369
0.0773815
0.0769428
0.0765218
0.0761198
0.0757377
0.0753765
0.0750371
0.0747205
0.0744274
0.0741585
0.0739145
0.073696
0.0735037
0.0733379
0.073199
0.0730876
0.0730037
0.0729476
0.0729196
0.0729195
0.0729475
0.0730034
0.0730871
0.0731985
0.0733372
0.0735028
0.0736951
0.0739134
0.0741572
0.074426
0.0747191
0.0750357
0.075375
0.0757362
0.0761184
0.0765206
0.0769417
0.0773807
0.0778364
0.0820276
0.0814996
0.0810006
0.0805132
0.0800386
0.079578
0.0791325
0.0787034
0.0782916
0.0778983
0.0775246
0.0771712
0.0768392
0.0765295
0.0762427
0.0759796
0.0757409
0.0755271
0.0753389
0.0751767
0.0750409
0.0749318
0.0748497
0.0747949
0.0747674
0.0747674
0.0747947
0.0748494
0.0749314
0.0750403
0.075176
0.0753381
0.0755262
0.0757398
0.0759784
0.0762413
0.076528
0.0768378
0.0771697
0.0775231
0.077897
0.0782904
0.0787023
0.0791318
0.0795775
0.0836979
0.0831814
0.0826935
0.082217
0.081753
0.0813027
0.0808671
0.0804475
0.0800449
0.0796604
0.0792949
0.0789494
0.0786248
0.0783219
0.0780414
0.0777842
0.0775507
0.0773417
0.0771576
0.076999
0.0768662
0.0767595
0.0766792
0.0766256
0.0765987
0.0765987
0.0766254
0.0766789
0.0767591
0.0768656
0.0769983
0.0771568
0.0773408
0.0775496
0.077783
0.0780401
0.0783205
0.0786233
0.0789479
0.0792935
0.079659
0.0800437
0.0804465
0.0808663
0.0853518
0.0848469
0.0843701
0.0839044
0.0834509
0.0830108
0.0825852
0.0821751
0.0817817
0.0814059
0.0810487
0.080711
0.0803938
0.0800977
0.0798236
0.0795721
0.0793439
0.0791396
0.0789597
0.0788046
0.0786748
0.0785705
0.078492
0.0784396
0.0784133
0.0784133
0.0784395
0.0784918
0.0785701
0.0786742
0.078804
0.0789589
0.0791387
0.0793429
0.0795709
0.0798223
0.0800963
0.0803923
0.0807096
0.0810473
0.0814045
0.0817805
0.0821741
0.0825844
0.0869894
0.0864959
0.0860302
0.0855753
0.0851323
0.0847024
0.0842867
0.0838862
0.0835018
0.0831348
0.0827858
0.082456
0.082146
0.0818568
0.081589
0.0813433
0.0811204
0.0809208
0.080745
0.0805935
0.0804667
0.0803648
0.0802881
0.0802369
0.0802112
0.0802112
0.0802367
0.0802878
0.0803644
0.0804661
0.0805928
0.0807442
0.0809199
0.0811193
0.0813422
0.0815877
0.0818554
0.0821446
0.0824545
0.0827844
0.0831334
0.0835006
0.0838851
0.084286
0.0886106
0.0881286
0.0876738
0.0872297
0.0867972
0.0863775
0.0859716
0.0855806
0.0852054
0.084847
0.0845063
0.0841842
0.0838816
0.0835992
0.0825136
0.0823656
0.0822417
0.0821422
0.0820674
0.0820173
0.0819923
0.0819922
0.0820172
0.0820671
0.0821418
0.0822412
0.0823649
0.0825127
0.0826843
0.082879
0.0830966
0.0833364
0.0835978
0.0838802
0.0841828
0.0845049
0.0848456
0.0852042
0.0855796
0.0859709
0.0848343
0.0850683
0.0853234
0.085599
0.0858943
0.0862086
0.0865411
0.0868911
0.0872574
0.0876393
0.0885613
0.0889186
0.0892911
0.00015071
0.000140848
0.000132283
0.000131203
0.000146621
0.000195762
0.00031674
0.00058883
0.00113901
0.00209227
0.00347616
0.00519176
0.007092
0.00906635
0.0110621
0.0130638
0.0150704
0.0170837
0.0191041
0.021131
0.0231627
0.0251973
0.027233
0.0292678
0.0313001
0.0333283
0.0353511
0.0373673
0.0393756
0.0413752
0.0433651
0.0453445
0.0473128
0.0492692
0.0512132
0.0531443
0.055062
0.056966
0.0588558
0.0607311
0.0625916
0.0644371
0.0662673
0.0680821
0.0698813
0.0716646
0.0734321
0.0751835
0.0769189
0.078638
0.0803409
0.0820275
0.0836978
0.0853518
0.0869894
0.0886106
0.000145643
0.000136146
0.000130974
0.000137717
0.000168998
0.000251784
0.000445383
0.000858857
0.00162949
0.00283709
0.00443214
0.00627444
0.00823063
0.0102244
0.0122279
0.0142362
0.0162506
0.0182723
0.0203009
0.0223353
0.0243735
0.0264136
0.0284537
0.0304921
0.032527
0.0345572
0.0365812
0.0385978
0.0406062
0.0426052
0.0445942
0.0465722
0.0485387
0.050493
0.0524346
0.054363
0.0562778
0.0581786
0.060065
0.0619368
0.0637936
0.0656352
0.0674615
0.0692721
0.071067
0.072846
0.0746091
0.076356
0.0780867
0.0798012
0.0814994
0.0831812
0.0848467
0.0864958
0.0881284
0.000211207
0.000347172
0.000651398
0.00125736
0.00228274
0.00373463
0.00549804
0.00742549
0.00941492
0.0114212
0.0134328
0.0154497
0.0174735
0.0195047
0.0215422
0.0235843
0.0256291
0.0276748
0.0297193
0.0317611
0.0337987
0.0358306
0.0378556
0.0398727
0.0418809
0.0438792
0.045867
0.0478434
0.0498078
0.0517598
0.0536987
0.0556241
0.0575356
0.0594328
0.0613155
0.0631833
0.065036
0.0668733
0.068695
0.0705011
0.0722913
0.0740655
0.0758235
0.0775654
0.0792911
0.0810004
0.0826933
0.0843698
0.0860299
0.0876736
0.000182781
0.00027851
0.000500891
0.000968451
0.00181734
0.00310807
0.00476807
0.00665001
0.00862789
0.0106353
0.0126503
0.01467
0.0166961
0.0187296
0.0207699
0.0228155
0.0248647
0.0269154
0.0289658
0.0310141
0.0330587
0.0350982
0.0371312
0.0391568
0.0411737
0.0431812
0.0451783
0.0471643
0.0491386
0.0511005
0.0530496
0.0549854
0.0569073
0.0588152
0.0607085
0.062587
0.0644504
0.0662986
0.0681312
0.0699482
0.0717493
0.0735344
0.0753034
0.0770562
0.0787927
0.0805129
0.0822167
0.0839041
0.085575
0.0872294
0.000163117
0.000230219
0.000391979
0.000747511
0.00143508
0.00255729
0.004093
0.00591099
0.00786769
0.00987308
0.011891
0.0139137
0.0159421
0.0179777
0.0200205
0.0220694
0.0241225
0.0261779
0.0282337
0.0302881
0.0323393
0.034386
0.0364267
0.0384603
0.0404857
0.0425019
0.0445081
0.0465034
0.0484872
0.0504588
0.0524178
0.0543636
0.0562957
0.0582138
0.0601174
0.0620064
0.0638803
0.065739
0.0675822
0.0694098
0.0712215
0.0730172
0.0747969
0.0765603
0.0783075
0.0800383
0.0817527
0.0834506
0.085132
0.0867969
0.000197848
0.000314939
0.000581954
0.00112827
0.00208349
0.00347873
0.00521381
0.00713761
0.00913648
0.0111566
0.0131825
0.0152134
0.0172511
0.0192961
0.0213478
0.0234045
0.0254642
0.027525
0.0295851
0.0316426
0.033696
0.0357441
0.0377853
0.0398188
0.0418434
0.0438582
0.0458624
0.0478554
0.0498364
0.0518049
0.0537604
0.0557023
0.0576303
0.0595439
0.061443
0.0633271
0.065196
0.0670494
0.0688873
0.0707093