/*--------------------------------*- C++ -*----------------------------------*\
  =========                 |
  \\      /  F ield         | OpenFOAM: The Open Source CFD Toolbox
   \\    /   O peration     | Website:  https://openfoam.org
    \\  /    A nd           | Version:  7
     \\/     M anipulation  |
\*---------------------------------------------------------------------------*/
FoamFile
{
    version     2.0;
    format      ascii;
    class       volVectorField;
    location    "36000";
    object      U;
}
// * * * * * * * * * * * * * * * * * * * * * * * * * * * * * * * * * * * * * //

dimensions      [0 1 -1 0 0 0 0];

internalField   nonuniform List<vector> 
4825
(
(-6.5863e-19 2.29625e-19 -0.00679911)
(-3.02563e-19 -5.27809e-19 -0.00680765)
(-7.69931e-19 1.67451e-19 -0.00677642)
(-3.98951e-19 -5.06941e-19 -0.00678613)
(-1.04422e-18 -7.8176e-20 -0.00679515)
(-5.63367e-19 -3.17098e-21 -0.00680349)
(-4.0141e-19 -9.19955e-19 -0.00681116)
(-8.80805e-19 1.55647e-19 -0.00675083)
(-5.12802e-19 -4.8471e-19 -0.00676165)
(-1.02697e-18 -2.32407e-19 -0.00677178)
(-6.82907e-19 -3.75953e-20 -0.00678123)
(-3.58753e-19 -1.08584e-18 -0.00678998)
(-9.8985e-19 1.78497e-19 -0.00672239)
(-6.08808e-19 -5.00065e-19 -0.00673429)
(-1.09359e-18 -2.68036e-19 -0.00674549)
(-7.42505e-19 -1.48284e-19 -0.006756)
(-4.33483e-19 -1.06849e-18 -0.0067658)
(-1.01812e-18 1.16736e-19 -0.00669117)
(-6.10924e-19 -6.20517e-19 -0.00670411)
(-1.16189e-18 -3.07379e-19 -0.00671634)
(-8.34121e-19 -2.15391e-19 -0.00672786)
(-5.31057e-19 -1.00486e-18 -0.00673867)
(-8.96968e-19 -1.28947e-19 -0.00665724)
(-5.25433e-19 -8.37269e-19 -0.00667118)
(-1.15646e-18 -3.91486e-19 -0.0066844)
(-8.77483e-19 -3.24388e-19 -0.0066969)
(-5.65838e-19 -1.02534e-18 -0.00670867)
(-8.13705e-19 -3.53475e-19 -0.00662067)
(-5.13687e-19 -9.27352e-19 -0.00663556)
(-1.13368e-18 -4.89291e-19 -0.00664972)
(-8.30868e-19 -5.58609e-19 -0.00666316)
(-5.41658e-19 -1.07344e-18 -0.00667586)
(-9.23822e-19 -3.50079e-19 -0.00658153)
(-5.90768e-19 -9.11951e-19 -0.00659732)
(-1.13732e-18 -5.61673e-19 -0.00661239)
(-8.35583e-19 -7.04355e-19 -0.00662673)
(-4.82028e-19 -1.16706e-18 -0.00664032)
(-1.07939e-18 -2.50082e-19 -0.00653988)
(-7.48387e-19 -8.09017e-19 -0.00655654)
(-1.16131e-18 -6.0677e-19 -0.00657248)
(-9.74211e-19 -6.88644e-19 -0.00658767)
(-4.64166e-19 -1.22225e-18 -0.00660211)
(-1.09872e-18 -2.7089e-19 -0.0064958)
(-1.07275e-18 -5.20908e-19 -0.00651329)
(-1.17524e-18 -6.5895e-19 -0.00653005)
(-1.13522e-18 -6.19339e-19 -0.00654606)
(-5.58249e-19 -1.1244e-18 -0.0065613)
(-9.37444e-19 -4.44608e-19 -0.00644937)
(-1.34488e-18 -2.76851e-19 -0.00646764)
(-1.24519e-18 -6.78065e-19 -0.00648517)
(-1.27561e-18 -5.60803e-19 -0.00650196)
(-6.25746e-19 -1.02354e-18 -0.00651797)
(-7.68559e-19 -6.22683e-19 -0.00640066)
(-1.36367e-18 -3.00039e-19 -0.00641966)
(-1.28286e-18 -7.29191e-19 -0.00643794)
(-1.41763e-18 -4.94297e-19 -0.00645546)
(-6.50706e-19 -9.7868e-19 -0.00647219)
(-7.10815e-19 -6.83861e-19 -0.00634974)
(-1.24632e-18 -4.73221e-19 -0.00636944)
(-1.2335e-18 -8.65045e-19 -0.00638841)
(-1.47204e-18 -5.35936e-19 -0.00640662)
(-6.84055e-19 -9.39019e-19 -0.00642404)
(-6.91657e-19 -7.27917e-19 -0.00629669)
(-1.11398e-18 -6.75878e-19 -0.00631704)
(-1.15178e-18 -1.02486e-18 -0.00633666)
(-1.47441e-18 -6.20606e-19 -0.00635553)
(-6.4855e-19 -8.18061e-19 -0.00624158)
(-1.07504e-18 -7.70012e-19 -0.00626254)
(-1.09675e-18 -1.13291e-18 -0.00628277)
(-1.54282e-18 -5.77599e-19 -0.00630225)
(-6.19258e-19 -8.84528e-19 -0.00618449)
(-1.17249e-18 -6.98854e-19 -0.00620601)
(-1.08361e-18 -1.17193e-18 -0.00622682)
(-1.68444e-18 -4.17001e-19 -0.00624687)
(-6.25193e-19 -9.01945e-19 -0.00612548)
(-1.29724e-18 -5.89555e-19 -0.00614754)
(-1.08584e-18 -1.18667e-18 -0.00616888)
(-6.14612e-19 -9.40646e-19 -0.00606464)
(-1.35389e-18 -5.61322e-19 -0.00608718)
(-1.05959e-18 -1.2374e-18 -0.00610901)
(-6.26691e-19 -9.48313e-19 -0.00600203)
(-1.36436e-18 -5.85428e-19 -0.00602502)
(-6.58656e-19 -9.18266e-19 -0.00593772)
(-1.38158e-18 -6.12598e-19 -0.00596112)
(-6.40591e-19 -9.34478e-19 -0.00587178)
(-1.3988e-18 -6.4228e-19 -0.00589556)
(-6.31017e-19 -9.49414e-19 -0.00580429)
(-1.38045e-18 -7.09253e-19 -0.0058284)
(-7.44057e-19 -8.33577e-19 -0.0057353)
(-1.38121e-18 -7.66253e-19 -0.00575971)
(-8.669e-19 -6.94827e-19 -0.00566489)
(-1.55062e-19 -9.49401e-20 -0.0068779)
(-3.90249e-19 1.76869e-20 -0.00687804)
(-1.56275e-19 -1.02179e-20 -0.00687819)
(-2.75363e-19 -1.09762e-19 -0.00687834)
(-3.79164e-19 1.68152e-20 -0.00687851)
(-5.01961e-20 -8.95221e-20 -0.00687868)
(-1.34352e-19 -4.65611e-20 -0.00687885)
(-4.97427e-20 -6.85214e-20 -0.00687902)
(-3.24931e-19 -3.8887e-20 -0.0068792)
(1.49183e-20 8.33956e-20 -0.00687937)
(-1.4109e-19 1.46712e-20 -0.00687953)
(-2.6657e-19 8.36808e-20 -0.00687969)
(-2.0845e-19 -2.47108e-19 -0.00687985)
(-4.63689e-19 -3.10414e-19 -0.00687999)
(-7.36706e-19 -2.94681e-19 -0.00688012)
(-8.19813e-19 1.34567e-19 -0.00688024)
(-5.62576e-19 9.07037e-20 -0.00688035)
(-3.21593e-19 2.7513e-19 -0.00688045)
(7.23312e-21 1.83074e-19 -0.00688054)
(-6.30075e-20 9.39128e-20 -0.00688062)
(-1.45984e-19 -1.01271e-19 -0.00687762)
(-3.36243e-19 2.70058e-20 -0.00687774)
(-4.89672e-20 9.31631e-20 -0.00687788)
(-3.93054e-19 -1.71937e-19 -0.00687804)
(-8.54825e-20 1.61143e-19 -0.0068782)
(-5.22025e-20 -1.17211e-19 -0.00687836)
(-6.28479e-20 -1.8153e-20 -0.00687854)
(-4.66839e-20 -4.00928e-20 -0.00687871)
(-3.66963e-19 -6.85876e-20 -0.00687888)
(-2.82391e-20 4.56292e-20 -0.00687905)
(-1.51835e-19 3.01406e-20 -0.00687922)
(-1.30872e-19 1.40187e-19 -0.00687938)
(-4.68204e-21 -1.4182e-19 -0.00687954)
(-4.9221e-19 -2.58798e-19 -0.00687968)
(-8.74101e-19 -3.09816e-19 -0.00687982)
(-9.31445e-19 8.37746e-20 -0.00687994)
(-4.76329e-19 8.63128e-20 -0.00688005)
(-4.37342e-19 2.26786e-19 -0.00688015)
(3.07955e-20 1.75213e-19 -0.00688024)
(-2.02495e-19 5.76776e-20 -0.00688033)
(-1.7275e-19 -1.30428e-19 -0.00687735)
(-3.38257e-19 -1.3654e-20 -0.00687747)
(-3.10591e-21 1.63058e-19 -0.0068776)
(-3.10539e-19 -1.16693e-19 -0.00687775)
(9.97342e-20 2.3401e-19 -0.0068779)
(6.03957e-21 -9.59947e-20 -0.00687806)
(7.84934e-20 5.43478e-20 -0.00687823)
(-5.18447e-20 8.40547e-21 -0.0068784)
(-4.55547e-19 -1.14187e-19 -0.00687857)
(-9.28682e-20 -1.94211e-20 -0.00687874)
(-1.27765e-19 4.35723e-20 -0.00687891)
(-9.05889e-20 1.48042e-19 -0.00687907)
(5.74262e-20 -7.40771e-20 -0.00687923)
(-4.42902e-19 -1.57508e-19 -0.00687937)
(-8.78555e-19 -2.8363e-19 -0.00687951)
(-9.0013e-19 5.39698e-20 -0.00687963)
(-3.97656e-19 7.4822e-20 -0.00687974)
(-3.86726e-19 2.12383e-19 -0.00687985)
(3.71464e-20 1.72858e-19 -0.00687994)
(-2.68087e-19 4.31223e-20 -0.00688002)
(-1.42039e-19 -9.36425e-20 -0.00687711)
(-3.23838e-19 -5.17008e-20 -0.00687722)
(1.17698e-19 2.56044e-19 -0.00687734)
(-1.83215e-19 -2.36302e-20 -0.00687748)
(1.32901e-19 2.19838e-19 -0.00687763)
(1.36832e-19 -3.89798e-20 -0.00687778)
(2.08486e-19 1.24717e-19 -0.00687794)
(-1.28571e-19 4.26116e-20 -0.0068781)
(-4.68986e-19 -1.12756e-19 -0.00687827)
(-1.7126e-19 -9.90806e-20 -0.00687843)
(-2.06992e-19 1.13051e-20 -0.0068786)
(-1.07518e-19 1.33135e-19 -0.00687876)
(-1.89191e-20 -8.07839e-20 -0.00687891)
(-3.34198e-19 -4.55954e-20 -0.00687906)
(-7.81612e-19 -2.16134e-19 -0.0068792)
(-7.64366e-19 6.0231e-20 -0.00687932)
(-3.3848e-19 6.03763e-20 -0.00687943)
(-3.164e-19 2.1684e-19 -0.00687954)
(-1.98874e-20 1.70291e-19 -0.00687963)
(-3.0049e-19 8.49439e-21 -0.00687972)
(-4.12599e-20 -1.03323e-20 -0.00687686)
(-2.10996e-19 -1.39842e-20 -0.00687698)
(1.68647e-19 2.97563e-19 -0.0068771)
(-1.34397e-19 4.00574e-20 -0.00687723)
(1.25756e-19 1.77795e-19 -0.00687737)
(2.83635e-19 5.19473e-21 -0.00687752)
(1.29248e-19 1.02372e-19 -0.00687767)
(-1.10319e-19 1.28441e-19 -0.00687783)
(-3.8729e-19 -6.65063e-20 -0.00687799)
(-1.26103e-19 -9.86467e-20 -0.00687815)
(-2.90488e-19 -2.80054e-20 -0.00687831)
(-1.14469e-19 1.20816e-19 -0.00687846)
(-9.13367e-20 -9.69244e-20 -0.00687861)
(-4.0469e-19 -2.41153e-20 -0.00687875)
(-6.16575e-19 -1.36337e-19 -0.00687889)
(-6.46604e-19 7.18089e-20 -0.00687901)
(-2.54688e-19 6.66593e-20 -0.00687912)
(-3.26829e-19 2.12714e-19 -0.00687923)
(-8.53725e-21 1.87688e-19 -0.00687932)
(-2.98788e-19 -2.34218e-20 -0.0068794)
(3.63792e-20 4.40264e-20 -0.00687656)
(-1.82836e-19 -2.87393e-20 -0.00687671)
(1.18949e-19 2.71925e-19 -0.00687685)
(-1.07216e-19 8.53663e-20 -0.00687699)
(1.32606e-19 1.3664e-19 -0.00687713)
(3.27128e-19 1.24416e-21 -0.00687728)
(-8.79344e-20 -1.40462e-20 -0.00687743)
(-5.36918e-20 1.99823e-19 -0.00687758)
(-2.91009e-19 -1.05686e-20 -0.00687773)
(3.69885e-21 -4.64877e-20 -0.00687788)
(-3.72486e-19 -4.31975e-20 -0.00687803)
(-1.54207e-19 9.52133e-20 -0.00687818)
(-1.11115e-19 -8.451e-20 -0.00687833)
(-5.1835e-19 -4.31992e-20 -0.00687847)
(-5.95236e-19 -1.23326e-19 -0.0068786)
(-5.84203e-19 8.87213e-20 -0.00687872)
(-1.51885e-19 9.59859e-20 -0.00687883)
(-4.17565e-19 2.02246e-19 -0.00687893)
(-9.54508e-20 1.78801e-19 -0.00687902)
(-3.03575e-19 -4.83493e-20 -0.0068791)
(2.8368e-21 2.72106e-20 -0.00687614)
(-1.79421e-19 -6.23403e-20 -0.00687636)
(2.67401e-20 1.95983e-19 -0.00687655)
(-8.39535e-20 1.28994e-19 -0.00687672)
(1.3696e-19 9.71481e-20 -0.00687688)
(2.98984e-19 -4.05627e-20 -0.00687703)
(-3.85333e-19 -1.75072e-19 -0.00687719)
(-1.00284e-19 1.90075e-19 -0.00687734)
(-2.3007e-19 1.43113e-20 -0.00687749)
(9.60496e-20 3.38051e-21 -0.00687764)
(-4.71351e-19 -4.91479e-20 -0.00687778)
(-1.6683e-19 7.31307e-20 -0.00687793)
(-1.39677e-19 -8.6399e-20 -0.00687807)
(-5.68916e-19 -3.48748e-20 -0.0068782)
(-5.7639e-19 -1.21247e-19 -0.00687832)
(-5.52071e-19 8.28512e-20 -0.00687844)
(-1.82953e-20 1.52888e-19 -0.00687854)
(-4.74699e-19 2.29886e-19 -0.00687864)
(-4.51693e-20 1.9068e-19 -0.00687873)
(-3.00761e-19 -7.44184e-20 -0.0068788)
(-8.73389e-20 -4.11315e-20 -0.00687542)
(-9.02669e-20 -3.47312e-20 -0.0068758)
(-7.78758e-20 1.10916e-19 -0.0068761)
(-1.10624e-20 1.99471e-19 -0.00687635)
(1.21654e-19 3.4749e-20 -0.00687656)
(1.46296e-19 -1.19035e-19 -0.00687675)
(-6.33257e-19 -3.04899e-19 -0.00687692)
(-1.27365e-19 1.58852e-19 -0.00687709)
(-2.22592e-19 -3.00538e-21 -0.00687724)
(1.45408e-19 3.22682e-20 -0.0068774)
(-5.27192e-19 -2.64452e-20 -0.00687754)
(-9.17278e-20 8.56973e-20 -0.00687769)
(-2.19881e-19 -1.08676e-19 -0.00687782)
(-4.9333e-19 -4.02774e-21 -0.00687795)
(-3.424e-19 -5.85841e-20 -0.00687807)
(-5.41982e-19 8.15836e-20 -0.00687818)
(3.06224e-20 1.9047e-19 -0.00687829)
(-4.69436e-19 2.66169e-19 -0.00687838)
(1.9032e-19 2.36508e-19 -0.00687846)
(-3.26343e-19 -8.86032e-20 -0.00687853)
(-1.78382e-19 2.27137e-19 -0.00687858)
(2.64519e-21 2.18739e-19 -0.00687862)
(1.67739e-19 -3.00518e-22 -0.00687866)
(-8.41962e-20 1.33455e-19 -0.00687869)
(4.32067e-19 8.16207e-20 -0.0068787)
(4.45353e-20 -3.45726e-19 -0.0068787)
(-2.41305e-20 6.78854e-20 -0.00687869)
(1.27044e-19 -1.95904e-19 -0.00687866)
(-2.02702e-19 -2.59455e-19 -0.00687862)
(2.56918e-20 -1.78546e-19 -0.00687857)
(-1.87775e-19 -1.29966e-19 -0.00687851)
(4.0734e-20 -3.28587e-20 -0.00687843)
(-1.55013e-19 -3.83355e-19 -0.00687835)
(-3.74503e-19 -1.09637e-19 -0.00687826)
(-2.48277e-19 4.68562e-20 -0.00687816)
(-1.57786e-19 -7.76835e-20 -0.00687404)
(5.02496e-20 1.21751e-20 -0.00687477)
(-1.73994e-19 -9.6403e-21 -0.00687531)
(9.77702e-20 3.19523e-19 -0.00687573)
(4.87201e-20 -3.16213e-20 -0.00687606)
(-6.79735e-20 -2.22177e-19 -0.00687634)
(-6.16432e-19 -2.95458e-19 -0.00687657)
(-1.22053e-19 1.46339e-19 -0.00687677)
(-1.64382e-19 -1.73302e-21 -0.00687696)
(1.10678e-19 1.31173e-20 -0.00687713)
(-5.78887e-19 -8.62225e-21 -0.00687729)
(5.5487e-20 1.33871e-19 -0.00687744)
(-3.21634e-19 -1.52012e-19 -0.00687758)
(-3.42525e-19 1.87772e-20 -0.00687771)
(-1.68482e-19 -5.13703e-21 -0.00687783)
(-4.94192e-19 1.19606e-19 -0.00687794)
(-8.72143e-20 1.85124e-19 -0.00687805)
(-4.78475e-19 2.84119e-19 -0.00687814)
(2.68195e-19 2.62905e-19 -0.00687822)
(-3.82032e-19 -8.55532e-20 -0.00687828)
(-2.21318e-19 2.0829e-19 -0.00687832)
(-5.80921e-20 2.1474e-19 -0.00687837)
(1.11052e-19 2.61649e-21 -0.0068784)
(-8.09177e-20 1.23517e-19 -0.00687843)
(5.66281e-19 7.18338e-20 -0.00687844)
(8.00466e-20 -3.50522e-19 -0.00687844)
(-1.07918e-19 5.46252e-20 -0.00687842)
(2.76101e-19 -2.08464e-19 -0.0068784)
(-3.38664e-19 -2.55754e-19 -0.00687836)
(4.2405e-20 -1.73616e-19 -0.00687831)
(-3.34653e-19 -8.34676e-20 -0.00687825)
(9.56063e-20 -4.22557e-20 -0.00687818)
(-1.43112e-19 -3.80764e-19 -0.0068781)
(-4.06305e-19 -9.2455e-20 -0.00687801)
(-1.91517e-19 3.56443e-20 -0.00687791)
(-1.22201e-19 -1.20767e-19 -0.0068778)
(5.58851e-20 -3.78406e-19 -0.00687768)
(-3.28264e-19 -1.89143e-19 -0.00687139)
(2.59341e-19 1.16236e-19 -0.00687275)
(-4.46863e-19 -2.86897e-19 -0.00687379)
(5.81074e-20 3.49382e-19 -0.00687457)
(-2.11317e-20 -8.77127e-20 -0.00687517)
(-1.24904e-19 -2.17985e-19 -0.00687563)
(-3.47947e-19 -1.57591e-19 -0.006876)
(-6.98128e-20 1.46671e-19 -0.0068763)
(-2.86045e-20 3.99438e-20 -0.00687656)
(-2.97269e-21 -2.80007e-20 -0.00687678)
(-6.17428e-19 -6.43919e-21 -0.00687697)
(1.45443e-19 1.53652e-19 -0.00687715)
(-3.96007e-19 -1.80441e-19 -0.00687731)
(-2.39404e-19 1.26127e-20 -0.00687745)
(-1.77992e-19 -1.73807e-20 -0.00687758)
(-4.16813e-19 1.83074e-19 -0.0068777)
(-2.23613e-19 1.80939e-19 -0.0068778)
(-4.73242e-19 2.98332e-19 -0.0068779)
(2.44245e-19 2.71844e-19 -0.00687798)
(-3.72435e-19 -8.54863e-20 -0.00687804)
(-1.20184e-19 2.08663e-19 -0.00687808)
(-2.54611e-20 2.26293e-19 -0.00687812)
(1.43815e-19 1.00346e-20 -0.00687816)
(-1.13167e-19 1.15178e-19 -0.00687818)
(5.44573e-19 6.65821e-20 -0.0068782)
(6.2203e-20 -3.54497e-19 -0.00687819)
(-1.68057e-19 4.24641e-20 -0.00687818)
(3.6646e-19 -2.18123e-19 -0.00687816)
(-3.19658e-19 -2.69322e-19 -0.00687812)
(3.05512e-20 -1.66367e-19 -0.00687807)
(-4.25632e-19 -5.33496e-20 -0.00687801)
(1.52261e-19 -4.59572e-20 -0.00687794)
(-2.02959e-19 -3.67166e-19 -0.00687785)
(-5.05481e-19 -6.91989e-20 -0.00687776)
(-1.17686e-19 2.932e-20 -0.00687765)
(2.96487e-20 -1.77721e-19 -0.00687753)
(9.13146e-20 -4.04428e-19 -0.00687741)
(-2.5567e-19 -3.58322e-19 -0.00687728)
(-3.53605e-19 -2.26084e-19 -0.00686672)
(4.35476e-19 2.14601e-19 -0.00686904)
(-6.19374e-19 -5.07911e-19 -0.00687088)
(-5.66823e-20 3.40862e-19 -0.00687231)
(2.39962e-20 -7.94832e-20 -0.00687342)
(3.59239e-20 -1.28587e-19 -0.00687427)
(6.09424e-20 3.73783e-20 -0.00687494)
(-2.88757e-20 1.39463e-19 -0.00687546)
(7.873e-20 7.42504e-20 -0.00687587)
(-1.48246e-19 -7.13171e-20 -0.00687621)
(-5.00613e-19 5.27549e-20 -0.00687649)
(9.69394e-20 1.06284e-19 -0.00687673)
(-4.1606e-19 -1.99512e-19 -0.00687693)
(-1.87841e-19 -1.47215e-20 -0.00687711)
(-2.89966e-19 -7.51992e-20 -0.00687727)
(-4.31762e-19 2.12618e-19 -0.0068774)
(-2.32628e-19 2.06754e-19 -0.00687752)
(-4.79494e-19 3.06574e-19 -0.00687763)
(2.09152e-19 2.81186e-19 -0.00687771)
(-3.31887e-19 -9.67932e-20 -0.00687778)
(-3.20357e-20 2.12316e-19 -0.00687783)
(-3.92336e-20 2.45791e-19 -0.00687787)
(1.9399e-19 1.75709e-20 -0.00687791)
(-1.55877e-19 1.15474e-19 -0.00687793)
(4.83956e-19 6.4253e-20 -0.00687795)
(7.06081e-20 -3.66609e-19 -0.00687794)
(-1.95254e-19 3.03064e-20 -0.00687793)
(4.20772e-19 -2.37796e-19 -0.0068779)
(-2.81801e-19 -2.72888e-19 -0.00687786)
(7.04362e-20 -1.49404e-19 -0.00687781)
(-4.70413e-19 -4.71807e-20 -0.00687775)
(1.19138e-19 -4.2357e-20 -0.00687767)
(-1.76086e-19 -3.60648e-19 -0.00687758)
(-6.31984e-19 -3.80429e-20 -0.00687747)
(2.49053e-21 -8.45742e-21 -0.00687735)
(1.937e-19 -2.25987e-19 -0.00687721)
(6.16994e-20 -3.90128e-19 -0.00687706)
(-1.96022e-19 -3.86447e-19 -0.00687689)
(-2.29866e-19 -3.18962e-19 -0.00687669)
(-3.83419e-19 -1.84426e-19 -0.00687647)
(-2.91924e-19 -2.21533e-19 -0.00685939)
(5.50869e-19 2.72824e-19 -0.00686289)
(-5.83818e-19 -5.68549e-19 -0.0068658)
(-1.84321e-19 2.93053e-19 -0.00686819)
(2.794e-19 5.08466e-21 -0.00687011)
(2.20263e-19 -4.71412e-20 -0.00687164)
(1.93268e-19 5.39896e-20 -0.00687285)
(-9.74835e-20 4.50983e-20 -0.0068738)
(1.24338e-19 6.96291e-20 -0.00687455)
(-2.15244e-19 -9.11778e-20 -0.00687514)
(-2.39736e-19 1.62218e-19 -0.00687561)
(4.20236e-20 5.3251e-20 -0.00687599)
(-3.50273e-19 -1.82998e-19 -0.00687631)
(-1.82869e-19 -5.60063e-20 -0.00687657)
(-4.57872e-19 -1.57107e-19 -0.00687679)
(-5.31746e-19 1.8855e-19 -0.00687697)
(-2.36505e-19 2.20919e-19 -0.00687712)
(-5.09655e-19 3.17065e-19 -0.00687725)
(1.21804e-19 2.75549e-19 -0.00687736)
(-2.8695e-19 -1.1732e-19 -0.00687744)
(-6.63407e-20 2.09535e-19 -0.00687751)
(-7.44779e-20 2.60511e-19 -0.00687756)
(2.42296e-19 1.0607e-20 -0.0068776)
(-1.85152e-19 1.21158e-19 -0.00687763)
(4.26303e-19 6.19736e-20 -0.00687764)
(8.34324e-20 -3.80818e-19 -0.00687764)
(-1.98025e-19 2.93145e-20 -0.00687762)
(4.49897e-19 -2.51016e-19 -0.00687759)
(-3.0072e-19 -2.78966e-19 -0.00687755)
(1.87505e-19 -1.47234e-19 -0.00687749)
(-3.58028e-19 -5.80123e-20 -0.00687741)
(2.17308e-20 -4.06456e-20 -0.00687731)
(-1.91952e-19 -3.55568e-19 -0.0068772)
(-5.82283e-19 -5.18432e-20 -0.00687707)
(6.96997e-20 -2.99727e-20 -0.00687691)
(2.46335e-19 -2.18236e-19 -0.00687672)
(4.46206e-20 -3.77773e-19 -0.0068765)
(-1.3037e-19 -4.18563e-19 -0.00687624)
(-2.73657e-19 -2.77325e-19 -0.00687593)
(-2.49714e-19 -1.7522e-19 -0.00687556)
(-1.41491e-19 -5.01589e-19 -0.0068751)
(-5.79681e-19 -1.92605e-19 -0.00687452)
(-2.41276e-19 -2.36469e-19 -0.00684901)
(5.63447e-19 2.53612e-19 -0.0068538)
(-5.08475e-19 -6.06026e-19 -0.00685795)
(-2.23695e-19 2.56562e-19 -0.00686149)
(4.81099e-19 5.62373e-20 -0.00686447)
(4.62987e-20 -1.38122e-19 -0.00686695)
(2.00457e-19 4.29758e-20 -0.00686898)
(-3.41228e-19 -1.73399e-19 -0.00687064)
(1.66288e-19 1.61517e-20 -0.00687197)
(-2.88576e-19 -1.28159e-19 -0.00687303)
(-3.42177e-20 2.24993e-19 -0.00687388)
(-1.9893e-20 -3.13709e-20 -0.00687456)
(-2.03188e-19 -1.33106e-19 -0.00687511)
(-2.20498e-19 -9.72774e-20 -0.00687555)
(-5.07287e-19 -2.18573e-19 -0.00687591)
(-5.12189e-19 1.60727e-19 -0.0068762)
(-2.91896e-19 1.95194e-19 -0.00687644)
(-4.77921e-19 3.281e-19 -0.00687663)
(4.01501e-20 2.67453e-19 -0.00687679)
(-2.36898e-19 -1.4357e-19 -0.00687691)
(-1.86135e-19 2.03001e-19 -0.006877)
(-1.09396e-20 2.74812e-19 -0.00687708)
(2.55456e-19 -1.4365e-20 -0.00687713)
(-2.27642e-19 1.29508e-19 -0.00687717)
(3.86924e-19 6.18294e-20 -0.00687719)
(6.40453e-20 -3.95044e-19 -0.00687719)
(-2.36851e-19 3.03999e-20 -0.00687717)
(4.77152e-19 -2.62078e-19 -0.00687712)
(-2.71841e-19 -2.81064e-19 -0.00687706)
(2.14559e-19 -1.49881e-19 -0.00687698)
(-1.61723e-19 -8.5757e-20 -0.00687687)
(-2.91357e-20 -3.68612e-20 -0.00687674)
(-2.80539e-19 -3.52669e-19 -0.00687657)
(-4.49488e-19 -8.41296e-20 -0.00687637)
(-6.87542e-20 2.69074e-20 -0.00687613)
(1.92637e-19 -1.72167e-19 -0.00687583)
(4.37564e-20 -3.64783e-19 -0.00687547)
(-1.62229e-19 -4.08516e-19 -0.00687502)
(-3.82793e-19 -2.27567e-19 -0.00687447)
(-8.82971e-21 -2.17216e-19 -0.0068738)
(1.2609e-19 -6.55781e-19 -0.00687296)
(-5.26112e-19 -2.42721e-19 -0.00687191)
(3.45627e-20 -6.09475e-19 -0.00687059)
(-5.46559e-19 -2.49876e-19 -0.00686895)
(-1.93827e-19 -7.11277e-19 -0.00686692)
(-1.46053e-19 -2.13012e-19 -0.00683549)
(5.30439e-19 1.87697e-19 -0.00684157)
(-3.41033e-19 -5.83323e-19 -0.00684699)
(-2.35015e-19 2.16923e-19 -0.00685176)
(4.54517e-19 -4.21779e-20 -0.00685593)
(-1.77306e-19 -2.4341e-19 -0.00685952)
(2.1053e-19 1.05926e-19 -0.00686258)
(-4.52223e-19 -2.66492e-19 -0.00686517)
(9.29638e-20 -1.02258e-19 -0.00686733)
(-5.22248e-19 -2.45436e-19 -0.00686911)
(8.22572e-20 2.45353e-19 -0.00687057)
(-1.37407e-19 -1.56072e-19 -0.00687177)
(-2.22185e-19 -1.23163e-19 -0.00687274)
(-2.76205e-19 -1.64112e-19 -0.00687353)
(-3.31451e-19 -2.72825e-19 -0.00687417)
(-3.7583e-19 1.1516e-19 -0.00687469)
(-2.86967e-19 1.43821e-19 -0.00687511)
(-4.63668e-19 3.1048e-19 -0.00687544)
(-1.31245e-20 2.57142e-19 -0.00687571)
(-1.81295e-19 -1.68447e-19 -0.00687592)
(-3.51301e-19 1.79406e-19 -0.00687607)
(1.30476e-19 2.75372e-19 -0.0068762)
(1.75296e-19 -5.47346e-20 -0.00687629)
(-2.50369e-19 1.27702e-19 -0.00687635)
(3.14124e-19 5.42204e-20 -0.00687638)
(-1.47563e-20 -3.85331e-19 -0.00687637)
(-2.8796e-19 3.61386e-20 -0.00687634)
(4.51406e-19 -2.75744e-19 -0.00687628)
(-2.5153e-19 -2.6407e-19 -0.00687618)
(1.82878e-19 -1.59671e-19 -0.00687605)
(-1.44925e-19 -1.03734e-19 -0.00687587)
(-1.64703e-20 -5.69798e-20 -0.00687565)
(-3.44264e-19 -3.70805e-19 -0.00687538)
(-3.35857e-19 -9.47415e-20 -0.00687503)
(-2.27423e-19 1.14797e-19 -0.00687461)
(1.00881e-19 -1.24405e-19 -0.00687408)
(6.78376e-20 -3.66395e-19 -0.00687343)
(-1.28492e-19 -4.08133e-19 -0.00687263)
(-4.80762e-19 -1.87969e-19 -0.00687166)
(8.59164e-20 -1.73803e-19 -0.00687047)
(2.93969e-19 -7.45715e-19 -0.00686901)
(-4.47575e-19 -3.26114e-19 -0.00686725)
(2.09399e-19 -7.60041e-19 -0.0068651)
(-5.04759e-19 -3.31156e-19 -0.00686253)
(5.88928e-20 -9.22466e-19 -0.00685947)
(-1.15117e-18 -4.19488e-19 -0.00685589)
(-2.09116e-19 -9.71439e-19 -0.00685172)
(-4.32052e-20 -1.87484e-19 -0.00681884)
(5.51292e-19 1.63678e-19 -0.00682617)
(-2.09657e-19 -5.95934e-19 -0.00683284)
(-2.22267e-19 2.05274e-19 -0.00683885)
(3.48208e-19 -1.86573e-19 -0.00684422)
(-3.56699e-19 -3.50525e-19 -0.00684898)
(1.98539e-19 1.68123e-19 -0.00685315)
(-3.72882e-19 -2.14475e-19 -0.00685679)
(-1.26707e-20 -2.21612e-19 -0.00685993)
(-8.68487e-19 -4.33119e-19 -0.00686262)
(9.69769e-20 2.646e-19 -0.00686489)
(-2.76604e-19 -2.13055e-19 -0.00686681)
(-3.11262e-19 -1.45392e-19 -0.00686841)
(-1.81543e-19 -2.1785e-19 -0.00686974)
(-1.84624e-19 -3.65074e-19 -0.00687084)
(-2.7387e-19 9.02836e-21 -0.00687175)
(-2.15112e-19 5.83412e-20 -0.00687249)
(-4.86275e-19 2.3385e-19 -0.00687308)
(8.5276e-20 2.4696e-19 -0.00687356)
(-4.86244e-20 -1.8319e-19 -0.00687394)
(-4.41363e-19 1.58878e-19 -0.00687423)
(1.69765e-19 2.42409e-19 -0.00687445)
(6.84998e-20 -1.25799e-19 -0.00687462)
(-2.27679e-19 1.1668e-19 -0.00687472)
(2.20374e-19 5.82098e-20 -0.00687477)
(-1.57244e-19 -3.76686e-19 -0.00687477)
(-1.88303e-19 1.68636e-20 -0.00687472)
(4.05403e-19 -2.81293e-19 -0.00687461)
(-2.04807e-19 -2.20368e-19 -0.00687444)
(1.53915e-19 -1.76898e-19 -0.0068742)
(-2.02193e-19 -1.41295e-19 -0.00687389)
(-2.92089e-20 -9.77237e-20 -0.0068735)
(-3.77574e-19 -4.15519e-19 -0.00687301)
(-2.63586e-19 -8.85044e-20 -0.0068724)
(-1.66596e-19 1.68258e-19 -0.00687166)
(-3.81267e-20 -7.5467e-20 -0.00687074)
(3.52342e-20 -3.64724e-19 -0.00686963)
(-2.15364e-19 -3.31453e-19 -0.00686828)
(-5.21507e-19 -1.28306e-19 -0.00686668)
(8.90165e-20 -1.02771e-19 -0.00686477)
(5.94086e-19 -9.15216e-19 -0.0068625)
(-4.37975e-19 -3.63034e-19 -0.00685983)
(2.95342e-19 -8.68325e-19 -0.00685671)
(-5.23114e-19 -3.7544e-19 -0.00685308)
(2.049e-19 -1.09602e-18 -0.00684892)
(-8.57829e-19 -7.50321e-19 -0.00684416)
(-1.51407e-19 -1.13993e-18 -0.0068388)
(-1.32906e-18 -3.64666e-19 -0.0068328)
(-8.30159e-19 -1.61322e-19 -0.00682614)
(-1.10391e-18 -2.67351e-19 -0.00681881)
(1.40458e-20 -2.10379e-19 -0.00679913)
(6.0836e-19 1.72584e-19 -0.00680768)
(-1.49813e-19 -6.6062e-19 -0.00681555)
(-2.00514e-19 1.91336e-19 -0.00682275)
(4.11871e-19 -2.06942e-19 -0.00682929)
(-4.44315e-19 -4.22282e-19 -0.0068352)
(1.43046e-19 1.8667e-19 -0.0068405)
(-2.14165e-19 -1.00969e-19 -0.00684522)
(-5.23895e-20 -2.81015e-19 -0.00684939)
(-9.33646e-19 -4.99886e-19 -0.00685305)
(-9.45259e-20 1.86449e-19 -0.00685624)
(-3.62871e-19 -2.14808e-19 -0.00685901)
(-1.24495e-19 -5.72998e-20 -0.00686137)
(-8.33913e-20 -2.81316e-19 -0.0068634)
(-3.14151e-19 -4.64169e-19 -0.00686511)
(-4.76607e-19 -1.24519e-20 -0.00686656)
(-1.18092e-19 9.31399e-20 -0.00686776)
(-5.22521e-19 2.03025e-19 -0.00686875)
(2.83279e-19 2.92036e-19 -0.00686956)
(3.98656e-21 -1.82784e-19 -0.00687021)
(-5.01522e-19 1.43156e-19 -0.00687072)
(1.94537e-19 1.96444e-19 -0.00687111)
(3.33777e-20 -2.04607e-19 -0.00687139)
(-2.14235e-19 8.56325e-20 -0.00687158)
(2.65638e-19 6.66521e-20 -0.00687167)
(-1.87599e-19 -3.54052e-19 -0.00687167)
(-5.26754e-20 -1.20839e-20 -0.00687157)
(3.82611e-19 -2.8294e-19 -0.00687138)
(-2.30972e-19 -1.60527e-19 -0.00687109)
(9.66732e-20 -2.10009e-19 -0.00687068)
(-2.74813e-19 -1.56408e-19 -0.00687015)
(-7.74591e-20 -1.03832e-19 -0.00686949)
(-3.29442e-19 -4.45596e-19 -0.00686867)
(-2.52316e-19 -4.74919e-20 -0.00686767)
(4.7793e-20 1.65739e-19 -0.00686645)
(-2.68021e-20 -8.14891e-20 -0.006865)
(-4.1704e-20 -3.49589e-19 -0.00686327)
(-3.26919e-19 -2.33203e-19 -0.00686123)
(-4.75786e-19 -1.17865e-19 -0.00685886)
(1.74486e-19 -9.1357e-20 -0.0068561)
(7.03224e-19 -9.90218e-19 -0.00685292)
(-4.85577e-19 -3.58893e-19 -0.00684928)
(2.65986e-19 -9.21427e-19 -0.00684512)
(-5.90353e-19 -3.97995e-19 -0.00684042)
(3.44995e-19 -1.28255e-18 -0.00683513)
(-7.07737e-19 -9.74566e-19 -0.00682923)
(-2.28876e-19 -1.18847e-18 -0.0068227)
(-1.26238e-18 -3.80375e-19 -0.00681551)
(-5.67692e-19 -4.0958e-19 -0.00680764)
(-1.10197e-18 -4.85747e-19 -0.00679911)
(-4.11444e-20 -3.27813e-19 -0.00677645)
(6.19664e-19 1.53441e-19 -0.00678616)
(-4.30211e-21 -6.49885e-19 -0.00679518)
(-2.04562e-19 1.30671e-19 -0.00680353)
(5.92051e-19 -1.47154e-19 -0.0068112)
(-4.89278e-19 -4.72416e-19 -0.00681822)
(1.3542e-19 2.04979e-19 -0.0068246)
(-1.23764e-19 -1.79136e-20 -0.00683038)
(-2.67046e-20 -3.11157e-19 -0.00683557)
(-7.68813e-19 -4.5081e-19 -0.00684021)
(-3.22923e-19 1.0869e-19 -0.00684434)
(-3.58453e-19 -2.10817e-19 -0.00684798)
(1.25778e-19 5.34984e-20 -0.00685118)
(2.8137e-20 -2.89539e-19 -0.00685396)
(-5.5361e-19 -5.3745e-19 -0.00685637)
(-8.63868e-19 -7.05575e-20 -0.00685844)
(-1.17528e-19 1.23746e-19 -0.0068602)
(-5.30466e-19 2.12202e-19 -0.00686167)
(3.20291e-19 3.865e-19 -0.0068629)
(-8.66293e-20 -1.60987e-19 -0.00686391)
(-4.56581e-19 1.18311e-19 -0.00686471)
(1.72231e-19 1.85359e-19 -0.00686533)
(4.7004e-20 -1.99325e-19 -0.00686578)
(-2.71375e-19 9.75227e-20 -0.00686608)
(2.82797e-19 1.10005e-19 -0.00686622)
(-2.67244e-19 -3.32064e-19 -0.00686622)
(1.20644e-19 -4.50271e-20 -0.00686607)
(3.00678e-19 -2.68555e-19 -0.00686576)
(-2.43901e-19 -1.20689e-19 -0.0068653)
(-6.39319e-20 -2.30109e-19 -0.00686467)
(-3.96203e-19 -1.28178e-19 -0.00686385)
(-8.91978e-20 -8.53664e-20 -0.00686283)
(-2.88069e-19 -4.40229e-19 -0.00686159)
(-2.40449e-19 -1.44192e-20 -0.0068601)
(2.23959e-19 1.42237e-19 -0.00685833)
(1.13916e-19 -1.19607e-19 -0.00685624)
(3.74653e-20 -3.65562e-19 -0.00685382)
(-3.07235e-19 -1.79482e-19 -0.00685103)
(-3.25203e-19 -1.63818e-19 -0.00684783)
(2.8208e-19 -8.94663e-20 -0.00684419)
(7.57213e-19 -1.02386e-18 -0.00684008)
(-4.38082e-19 -4.00425e-19 -0.00683546)
(1.57795e-19 -9.21549e-19 -0.00683028)
(-6.96951e-19 -4.10455e-19 -0.00682452)
(3.37678e-19 -1.39156e-18 -0.00681815)
(-7.08265e-19 -1.05942e-18 -0.00681114)
(-4.45558e-19 -1.11323e-18 -0.00680348)
(-1.2519e-18 -3.83393e-19 -0.00679514)
(-3.44593e-19 -6.33149e-19 -0.00678612)
(-9.67143e-19 -7.73256e-19 -0.00677642)
(-1.42619e-19 -4.73474e-19 -0.00675086)
(5.48593e-19 3.17735e-20 -0.00676168)
(7.66818e-20 -6.75158e-19 -0.00677182)
(-2.35358e-19 4.61154e-20 -0.00678127)
(7.03002e-19 -1.29773e-19 -0.00679003)
(-5.35409e-19 -5.27042e-19 -0.00679811)
(1.54727e-19 2.24469e-19 -0.00680554)
(-1.48728e-19 5.12167e-21 -0.00681233)
(-1.9065e-20 -3.56341e-19 -0.00681851)
(-7.83806e-19 -4.86016e-19 -0.0068241)
(-4.23068e-19 8.50402e-20 -0.00682914)
(-4.60741e-19 -2.66117e-19 -0.00683365)
(1.9484e-19 8.94021e-20 -0.00683766)
(1.09095e-19 -2.8094e-19 -0.00684121)
(-6.74782e-19 -5.31048e-19 -0.00684433)
(-1.00066e-18 -5.897e-20 -0.00684705)
(-8.82992e-20 1.42551e-19 -0.0068494)
(-4.58788e-19 2.3499e-19 -0.0068514)
(2.37951e-19 4.70483e-19 -0.00685309)
(-2.2327e-20 -1.18447e-19 -0.00685448)
(-3.69836e-19 8.83603e-20 -0.00685561)
(2.87603e-20 1.74398e-19 -0.00685649)
(1.48573e-20 -1.74116e-19 -0.00685714)
(-3.9828e-19 1.11218e-19 -0.00685757)
(2.48731e-19 1.59188e-19 -0.00685778)
(-2.26547e-19 -3.14391e-19 -0.00685777)
(2.08866e-19 -8.20333e-20 -0.00685756)
(2.28746e-19 -2.54842e-19 -0.00685712)
(-1.94547e-19 -9.41733e-20 -0.00685647)
(-4.90542e-20 -2.79514e-19 -0.00685557)
(-4.20563e-19 -1.26676e-19 -0.00685443)
(-7.76423e-20 -8.23011e-20 -0.00685301)
(-2.5785e-19 -4.31847e-19 -0.00685131)
(-2.03034e-19 8.36232e-21 -0.0068493)
(2.96671e-19 1.41083e-19 -0.00684694)
(1.33518e-19 -1.31853e-19 -0.0068442)
(1.18488e-19 -3.78401e-19 -0.00684107)
(-2.651e-19 -1.33161e-19 -0.00683751)
(-1.40048e-19 -2.36004e-19 -0.0068335)
(2.35506e-19 -1.92657e-20 -0.00682899)
(8.64899e-19 -1.08432e-18 -0.00682397)
(-2.37054e-19 -4.95465e-19 -0.00681839)
(4.66922e-20 -8.95368e-19 -0.00681223)
(-7.21151e-19 -4.7544e-19 -0.00680546)
(1.59722e-19 -1.38858e-18 -0.00679804)
(-8.12388e-19 -1.04317e-18 -0.00678996)
(-6.85905e-19 -1.00968e-18 -0.00678121)
(-1.24262e-18 -4.22322e-19 -0.00677178)
(-2.2236e-19 -8.01939e-19 -0.00676165)
(-7.9375e-19 -1.05637e-18 -0.00675083)
(-1.64645e-19 -5.14552e-19 -0.00672242)
(4.75221e-19 -7.53339e-20 -0.00673432)
(9.21178e-21 -8.13837e-19 -0.00674553)
(-2.93258e-19 -7.46701e-20 -0.00675604)
(6.70155e-19 -2.03689e-19 -0.00676584)
(-5.79504e-19 -5.85762e-19 -0.00677495)
(7.29728e-20 1.73084e-19 -0.00678338)
(-1.1119e-19 7.63652e-20 -0.00679115)
(-9.25573e-20 -4.255e-19 -0.00679828)
(-9.0209e-19 -5.80729e-19 -0.00680478)
(-4.38263e-19 1.03436e-19 -0.0068107)
(-6.48051e-19 -3.68785e-19 -0.00681604)
(9.9139e-20 2.74626e-20 -0.00682084)
(6.39983e-20 -3.01866e-19 -0.00682514)
(-7.10205e-19 -4.89055e-19 -0.00682895)
(-9.80482e-19 -2.76306e-20 -0.00683231)
(5.07363e-20 1.66393e-19 -0.00683524)
(-3.88889e-19 2.42774e-19 -0.00683777)
(2.15539e-19 5.46367e-19 -0.00683991)
(1.71074e-19 -5.95475e-20 -0.00684171)
(-3.65814e-19 5.87397e-20 -0.00684317)
(-4.64549e-20 1.7142e-19 -0.00684432)
(-5.11986e-20 -1.58118e-19 -0.00684517)
(-4.60569e-19 1.17772e-19 -0.00684573)
(2.2479e-19 1.90352e-19 -0.00684601)
(4.11592e-20 -3.18856e-19 -0.00684601)
(3.26879e-19 -1.284e-19 -0.00684572)
(2.2732e-19 -2.4618e-19 -0.00684515)
(-1.12534e-19 -7.60135e-20 -0.00684429)
(2.14712e-20 -3.44742e-19 -0.00684313)
(-3.97152e-19 -1.43839e-19 -0.00684165)
(-8.90226e-20 -8.38137e-20 -0.00683984)
(-2.82786e-19 -4.03178e-19 -0.00683768)
(-3.63562e-19 6.36076e-20 -0.00683514)
(3.05306e-19 1.34824e-19 -0.0068322)