/*--------------------------------*- C++ -*----------------------------------*\
  =========                 |
  \\      /  F ield         | OpenFOAM: The Open Source CFD Toolbox
   \\    /   O peration     | Website:  https://openfoam.org
    \\  /    A nd           | Version:  7
     \\/     M anipulation  |
\*---------------------------------------------------------------------------*/
FoamFile
{
    version     2.0;
    format      ascii;
    class       volScalarField;
    location    "8000";
    object      nu;
}
// * * * * * * * * * * * * * * * * * * * * * * * * * * * * * * * * * * * * * //

dimensions      [0 2 -1 0 0 0 0];

internalField   nonuniform List<scalar> 
1762
(
4.5955e-06
4.56809e-06
4.53797e-06
4.50535e-06
4.47053e-06
4.43379e-06
4.39549e-06
4.35204e-06
4.49978e-06
4.47322e-06
4.44403e-06
4.41241e-06
4.37864e-06
4.343e-06
4.30582e-06
4.26383e-06
4.50059e-06
4.49709e-06
4.49014e-06
4.47978e-06
4.46608e-06
4.44915e-06
4.42914e-06
4.40618e-06
4.38045e-06
4.35215e-06
4.32149e-06
4.28874e-06
4.25415e-06
4.21806e-06
4.17746e-06
4.39596e-06
4.40269e-06
4.40607e-06
4.40606e-06
4.40268e-06
4.39594e-06
4.38591e-06
4.37264e-06
4.35625e-06
4.33686e-06
4.31461e-06
4.28967e-06
4.26223e-06
4.23251e-06
4.20073e-06
4.16717e-06
4.13213e-06
4.09284e-06
4.30381e-06
4.31033e-06
4.3136e-06
4.31359e-06
4.31031e-06
4.30379e-06
4.29407e-06
4.28121e-06
4.26534e-06
4.24655e-06
4.22498e-06
4.20081e-06
4.1742e-06
4.14537e-06
4.11454e-06
4.08197e-06
4.04794e-06
4.00993e-06
4.21361e-06
4.21992e-06
4.22309e-06
4.22309e-06
4.21991e-06
4.21359e-06
4.20417e-06
4.19171e-06
4.17633e-06
4.15812e-06
4.13722e-06
4.11378e-06
4.08798e-06
4.06002e-06
4.0301e-06
3.99848e-06
3.96543e-06
3.92864e-06
4.12528e-06
4.1314e-06
4.13447e-06
4.13446e-06
4.13138e-06
4.12526e-06
4.11613e-06
4.10406e-06
4.08915e-06
4.0715e-06
4.05124e-06
4.02851e-06
4.00349e-06
3.97636e-06
3.94734e-06
3.91664e-06
3.88455e-06
3.84892e-06
4.03875e-06
4.04468e-06
4.04766e-06
4.04765e-06
4.04467e-06
4.03873e-06
4.02989e-06
4.01819e-06
4.00374e-06
3.98662e-06
3.96698e-06
3.94494e-06
3.92067e-06
3.89435e-06
3.86619e-06
3.83639e-06
3.80521e-06
3.77071e-06
3.95394e-06
3.9597e-06
3.96258e-06
3.96257e-06
3.95968e-06
3.95393e-06
3.94535e-06
3.93401e-06
3.92001e-06
3.90341e-06
3.88436e-06
3.86299e-06
3.83945e-06
3.81392e-06
3.78659e-06
3.75766e-06
3.72738e-06
3.69397e-06
3.8708e-06
3.87637e-06
3.87916e-06
3.87916e-06
3.87636e-06
3.87078e-06
3.86247e-06
3.85148e-06
3.8379e-06
3.82181e-06
3.80333e-06
3.78261e-06
3.75977e-06
3.735e-06
3.70849e-06
3.6804e-06
3.651e-06
3.61863e-06
3.78924e-06
3.79464e-06
3.79736e-06
3.79735e-06
3.79464e-06
3.78923e-06
3.78117e-06
3.77051e-06
3.75735e-06
3.74175e-06
3.72383e-06
3.70373e-06
3.68158e-06
3.65755e-06
3.63182e-06
3.60456e-06
3.57601e-06
3.54466e-06
3.70141e-06
3.70922e-06
3.71446e-06
3.71709e-06
3.71709e-06
3.71446e-06
3.70921e-06
3.7014e-06
3.69107e-06
3.6783e-06
3.66317e-06
3.6458e-06
3.62631e-06
3.60483e-06
3.58152e-06
3.55655e-06
3.53009e-06
3.50238e-06
3.472e-06
3.62311e-06
3.63068e-06
3.63576e-06
3.63831e-06
3.63831e-06
3.63576e-06
3.63068e-06
3.6231e-06
3.61309e-06
3.6007e-06
3.58604e-06
3.5692e-06
3.55029e-06
3.52946e-06
3.50685e-06
3.48262e-06
3.45694e-06
3.43004e-06
3.40061e-06
3.54623e-06
3.55357e-06
3.55849e-06
3.56097e-06
3.56097e-06
3.5585e-06
3.55357e-06
3.54622e-06
3.53651e-06
3.52451e-06
3.51029e-06
3.49396e-06
3.47563e-06
3.45542e-06
3.43349e-06
3.40999e-06
3.38507e-06
3.35896e-06
3.33044e-06
3.47072e-06
3.47783e-06
3.48261e-06
3.485e-06
3.485e-06
3.48261e-06
3.47783e-06
3.47071e-06
3.46129e-06
3.44966e-06
3.43588e-06
3.42005e-06
3.40227e-06
3.38268e-06
3.36141e-06
3.33861e-06
3.31444e-06
3.28909e-06
3.26147e-06
3.39653e-06
3.40343e-06
3.40805e-06
3.41038e-06
3.41038e-06
3.40805e-06
3.40342e-06
3.39652e-06
3.38739e-06
3.37611e-06
3.36276e-06
3.34741e-06
3.33018e-06
3.31118e-06
3.29057e-06
3.26845e-06
3.24501e-06
3.22041e-06
3.19366e-06
3.32362e-06
3.3303e-06
3.33479e-06
3.33704e-06
3.33704e-06
3.33479e-06
3.3303e-06
3.32361e-06
3.31476e-06
3.30383e-06
3.29089e-06
3.27601e-06
3.25931e-06
3.2409e-06
3.22091e-06
3.19947e-06
3.17673e-06
3.15287e-06
3.12696e-06
3.25194e-06
3.25842e-06
3.26277e-06
3.26495e-06
3.26495e-06
3.26277e-06
3.25841e-06
3.25193e-06
3.24336e-06
3.23277e-06
3.22023e-06
3.20581e-06
3.18962e-06
3.17178e-06
3.15241e-06
3.13162e-06
3.10958e-06
3.08644e-06
3.06135e-06
3.18146e-06
3.18774e-06
3.19195e-06
3.19407e-06
3.19406e-06
3.19195e-06
3.18773e-06
3.18145e-06
3.17315e-06
3.16289e-06
3.15074e-06
3.13677e-06
3.12109e-06
3.1038e-06
3.08503e-06
3.06488e-06
3.04352e-06
3.02108e-06
2.99679e-06
3.11214e-06
3.11822e-06
3.1223e-06
3.12435e-06
3.12434e-06
3.1223e-06
3.11821e-06
3.11213e-06
3.10409e-06
3.09415e-06
3.08238e-06
3.06885e-06
3.05366e-06
3.03691e-06
3.01873e-06
2.99921e-06
2.97851e-06
2.95676e-06
2.93325e-06
3.04394e-06
3.04983e-06
3.05378e-06
3.05576e-06
3.05576e-06
3.05378e-06
3.04982e-06
3.04393e-06
3.03614e-06
3.02652e-06
3.01512e-06
3.00202e-06
2.98731e-06
2.97109e-06
2.95348e-06
2.93457e-06
2.91452e-06
2.89344e-06
2.8707e-06
2.97682e-06
2.98252e-06
2.98635e-06
2.98826e-06
2.98826e-06
2.98634e-06
2.98251e-06
2.97681e-06
2.96927e-06
2.95996e-06
2.94892e-06
2.93624e-06
2.922e-06
2.9063e-06
2.88925e-06
2.87094e-06
2.85153e-06
2.83111e-06
2.80911e-06
2.91076e-06
2.91627e-06
2.91998e-06
2.92183e-06
2.92183e-06
2.91997e-06
2.91626e-06
2.91074e-06
2.90345e-06
2.89444e-06
2.88376e-06
2.87148e-06
2.8577e-06
2.84251e-06
2.82601e-06
2.80829e-06
2.7895e-06
2.76974e-06
2.74846e-06
2.84571e-06
2.85104e-06
2.85463e-06
2.85642e-06
2.85642e-06
2.85462e-06
2.85103e-06
2.8457e-06
2.83865e-06
2.82993e-06
2.81959e-06
2.80772e-06
2.79439e-06
2.77969e-06
2.76373e-06
2.74659e-06
2.7284e-06
2.70928e-06
2.68871e-06
2.78165e-06
2.78681e-06
2.79027e-06
2.792e-06
2.792e-06
2.79027e-06
2.7868e-06
2.78164e-06
2.77482e-06
2.76639e-06
2.75639e-06
2.74491e-06
2.73202e-06
2.71781e-06
2.70237e-06
2.6858e-06
2.66821e-06
2.64972e-06
2.62985e-06
2.71855e-06
2.72353e-06
2.72688e-06
2.72855e-06
2.72855e-06
2.72687e-06
2.72352e-06
2.71854e-06
2.71195e-06
2.7038e-06
2.69414e-06
2.68304e-06
2.67058e-06
2.65685e-06
2.64193e-06
2.62591e-06
2.60891e-06
2.59103e-06
2.57184e-06
2.65637e-06
2.66119e-06
2.66442e-06
2.66604e-06
2.66604e-06
2.66442e-06
2.66118e-06
2.65637e-06
2.65e-06
2.64213e-06
2.63279e-06
2.62207e-06
2.61004e-06
2.59677e-06
2.58235e-06
2.56688e-06
2.55046e-06
2.53318e-06
2.51466e-06
2.5951e-06
2.59975e-06
2.60287e-06
2.60443e-06
2.60443e-06
2.60286e-06
2.59974e-06
2.59509e-06
2.58895e-06
2.58135e-06
2.57233e-06
2.56198e-06
2.55036e-06
2.53755e-06
2.52363e-06
2.5087e-06
2.49284e-06
2.47616e-06
2.4583e-06
2.52876e-06
2.5347e-06
2.53919e-06
2.54219e-06
2.5437e-06
2.5437e-06
2.54219e-06
2.53918e-06
2.53469e-06
2.52876e-06
2.52143e-06
2.51273e-06
2.50274e-06
2.49153e-06
2.47917e-06
2.46574e-06
2.45133e-06
2.43603e-06
2.41993e-06
2.40271e-06
2.46942e-06
2.47515e-06
2.47947e-06
2.48237e-06
2.48382e-06
2.48382e-06
2.48237e-06
2.47946e-06
2.47514e-06
2.46942e-06
2.46235e-06
2.45396e-06
2.44433e-06
2.43352e-06
2.4216e-06
2.40865e-06
2.39475e-06
2.38e-06
2.36448e-06
2.3479e-06
2.41089e-06
2.41641e-06
2.42058e-06
2.42337e-06
2.42477e-06
2.42477e-06
2.42337e-06
2.42057e-06
2.41641e-06
2.4109e-06
2.40408e-06
2.396e-06
2.38672e-06
2.3763e-06
2.36482e-06
2.35234e-06
2.33895e-06
2.32474e-06
2.30978e-06
2.29382e-06
2.35316e-06
2.35848e-06
2.36249e-06
2.36518e-06
2.36652e-06
2.36652e-06
2.36517e-06
2.36248e-06
2.35847e-06
2.35317e-06
2.3466e-06
2.33882e-06
2.32989e-06
2.31986e-06
2.3088e-06
2.29679e-06
2.2839e-06
2.27021e-06
2.25582e-06
2.24047e-06
2.2962e-06
2.30131e-06
2.30517e-06
2.30776e-06
2.30905e-06
2.30905e-06
2.30775e-06
2.30517e-06
2.30131e-06
2.2962e-06
2.28989e-06
2.28241e-06
2.27381e-06
2.26416e-06
2.25353e-06
2.24197e-06
2.22957e-06
2.21641e-06
2.20257e-06
2.18782e-06
2.23999e-06
2.2449e-06
2.24861e-06
2.25109e-06
2.25234e-06
2.25233e-06
2.25109e-06
2.2486e-06
2.2449e-06
2.23999e-06
2.23392e-06
2.22673e-06
2.21847e-06
2.2092e-06
2.19898e-06
2.18787e-06
2.17596e-06
2.16332e-06
2.15002e-06
2.13586e-06
2.1845e-06
2.18922e-06
2.19278e-06
2.19516e-06
2.19636e-06
2.19635e-06
2.19516e-06
2.19277e-06
2.18921e-06
2.18451e-06
2.17868e-06
2.17178e-06
2.16385e-06
2.15494e-06
2.14513e-06
2.13447e-06
2.12303e-06
2.11091e-06
2.09814e-06
2.08457e-06
2.12972e-06
2.13424e-06
2.13766e-06
2.13994e-06
2.14109e-06
2.14109e-06
2.13994e-06
2.13765e-06
2.13424e-06
2.12973e-06
2.12414e-06
2.11752e-06
2.10992e-06
2.10138e-06
2.09198e-06
2.08175e-06
2.07079e-06
2.05917e-06
2.04693e-06
2.03394e-06
2.07564e-06
2.07996e-06
2.08323e-06
2.08542e-06
2.08652e-06
2.08652e-06
2.08542e-06
2.08323e-06
2.07996e-06
2.07564e-06
2.07029e-06
2.06395e-06
2.05668e-06
2.0485e-06
2.03949e-06
2.02971e-06
2.01921e-06
2.00808e-06
1.99637e-06
1.98395e-06
2.02222e-06
2.02636e-06
2.02949e-06
2.03158e-06
2.03263e-06
2.03263e-06
2.03158e-06
2.02949e-06
2.02636e-06
2.02223e-06
2.01711e-06
2.01105e-06
2.0041e-06
1.99628e-06
1.98767e-06
1.97831e-06
1.96828e-06
1.95765e-06
1.94646e-06
1.9346e-06
1.96948e-06
1.97342e-06
1.97641e-06
1.9784e-06
1.97941e-06
1.97941e-06
1.9784e-06
1.97641e-06
1.97342e-06
1.96948e-06
1.9646e-06
1.95882e-06
1.95218e-06
1.94472e-06
1.9365e-06
1.92757e-06
1.918e-06
1.90786e-06
1.89719e-06
1.88589e-06
1.91739e-06
1.92115e-06
1.92399e-06
1.92589e-06
1.92685e-06
1.92685e-06
1.92589e-06
1.92399e-06
1.92115e-06
1.9174e-06
1.91274e-06
1.90724e-06
1.90091e-06
1.89381e-06
1.88598e-06
1.87748e-06
1.86837e-06
1.85871e-06
1.84855e-06
1.83781e-06
1.86596e-06
1.86953e-06
1.87223e-06
1.87404e-06
1.87495e-06
1.87495e-06
1.87404e-06
1.87224e-06
1.86953e-06
1.86597e-06
1.86155e-06
1.85631e-06
1.8503e-06
1.84355e-06
1.83611e-06
1.82804e-06
1.81938e-06
1.81021e-06
1.80057e-06
1.79039e-06
1.8152e-06
1.81858e-06
1.82114e-06
1.82286e-06
1.82372e-06
1.82372e-06
1.82286e-06
1.82115e-06
1.81859e-06
1.8152e-06
1.81102e-06
1.80605e-06
1.80036e-06
1.79396e-06
1.78692e-06
1.77927e-06
1.77107e-06
1.76238e-06
1.75326e-06
1.74363e-06
1.76513e-06
1.76832e-06
1.77074e-06
1.77237e-06
1.77318e-06
1.77318e-06
1.77236e-06
1.77075e-06
1.76833e-06
1.76513e-06
1.76118e-06
1.75649e-06
1.75111e-06
1.74507e-06
1.73842e-06
1.7312e-06
1.72346e-06
1.71527e-06
1.70666e-06
1.6976e-06
1.71579e-06
1.7188e-06
1.72107e-06
1.7226e-06
1.72337e-06
1.72337e-06
1.7226e-06
1.72108e-06
1.7188e-06
1.71579e-06
1.71207e-06
1.70766e-06
1.70261e-06
1.69692e-06
1.69067e-06
1.68388e-06
1.67661e-06
1.66891e-06
1.66084e-06
1.65234e-06
1.66725e-06
1.67007e-06
1.6722e-06
1.67363e-06
1.67435e-06
1.67435e-06
1.67363e-06
1.6722e-06
1.67007e-06
1.66726e-06
1.66377e-06
1.65965e-06
1.65491e-06
1.6496e-06
1.64375e-06
1.6374e-06
1.63061e-06
1.62342e-06
1.61588e-06
1.60796e-06
1.61963e-06
1.62225e-06
1.62423e-06
1.62556e-06
1.62623e-06
1.62623e-06
1.62556e-06
1.62423e-06
1.62225e-06
1.61963e-06
1.61639e-06
1.61256e-06
1.60816e-06
1.60322e-06
1.59778e-06
1.59189e-06
1.58559e-06
1.57892e-06
1.57194e-06
1.56462e-06
1.57309e-06
1.5755e-06
1.57733e-06
1.57856e-06
1.57917e-06
1.57917e-06
1.57856e-06
1.57733e-06
1.5755e-06
1.57309e-06
1.5701e-06
1.56657e-06
1.56251e-06
1.55797e-06
1.55297e-06
1.54755e-06
1.54176e-06
1.53563e-06
1.52923e-06
1.52253e-06
1.52789e-06
1.53009e-06
1.53176e-06
1.53288e-06
1.53344e-06
1.53344e-06
1.53288e-06
1.53176e-06
1.53009e-06
1.52789e-06
1.52517e-06
1.52195e-06
1.51826e-06
1.51412e-06
1.50957e-06
1.50465e-06
1.4994e-06
1.49385e-06
1.48805e-06
1.482e-06
1.48441e-06
1.48639e-06
1.48789e-06
1.48889e-06
1.4894e-06
1.4894e-06
1.48889e-06
1.48789e-06
1.48639e-06
1.48441e-06
1.48197e-06
1.47909e-06
1.47578e-06
1.47208e-06
1.46801e-06
1.46362e-06
1.45894e-06
1.454e-06
1.44885e-06
1.44349e-06
1.44321e-06
1.44494e-06
1.44626e-06
1.44714e-06
1.44758e-06
1.44758e-06
1.44714e-06
1.44626e-06
1.44494e-06
1.44321e-06
1.44107e-06
1.43853e-06
1.43564e-06
1.4324e-06
1.42885e-06
1.42502e-06
1.42095e-06
1.41666e-06
1.41219e-06
1.40757e-06
1.40501e-06
1.40649e-06
1.40761e-06
1.40836e-06
1.40874e-06
1.40874e-06
1.40836e-06
1.40761e-06
1.40649e-06
1.40501e-06
1.40319e-06
1.40104e-06
1.39858e-06
1.39583e-06
1.39283e-06
1.3896e-06
1.38617e-06
1.38256e-06
1.37882e-06
1.37497e-06
1.37074e-06
1.37195e-06
1.37286e-06
1.37348e-06
1.37379e-06
1.37379e-06
1.37348e-06
1.37287e-06
1.37195e-06
1.37074e-06
1.36925e-06
1.3675e-06
1.3655e-06
1.36327e-06
1.36083e-06
1.35822e-06
1.35545e-06
1.35255e-06
1.34955e-06
1.34648e-06
1.34138e-06
1.34232e-06
1.34303e-06
1.34351e-06
1.34375e-06
1.34375e-06
1.34351e-06
1.34303e-06
1.34232e-06
1.34138e-06
1.34023e-06
1.33888e-06
1.33733e-06
1.33561e-06
1.33374e-06
1.33174e-06
1.32962e-06
1.32741e-06
1.32514e-06
1.32282e-06
1.31775e-06
1.31843e-06
1.31895e-06
1.3193e-06
1.31948e-06
1.31948e-06
1.3193e-06
1.31895e-06
1.31843e-06
1.31775e-06
1.31691e-06
1.31593e-06
1.31481e-06
1.31357e-06
1.31221e-06
1.31077e-06
1.30924e-06
1.30766e-06
1.30603e-06
1.30438e-06
1.30015e-06
1.30061e-06
1.30097e-06
1.30121e-06
1.30133e-06
1.30133e-06
1.30121e-06
1.30097e-06
1.30061e-06
1.30015e-06
1.29957e-06
1.2989e-06
1.29814e-06
1.29729e-06
1.29637e-06
1.29538e-06
1.29434e-06
1.29326e-06
1.29216e-06
1.29105e-06
1.28814e-06
1.28844e-06
1.28867e-06
1.28883e-06
1.28891e-06
1.28891e-06
1.28883e-06
1.28867e-06
1.28844e-06
1.28814e-06
1.28776e-06
1.28732e-06
1.28681e-06
1.28626e-06
1.28565e-06
1.285e-06
1.28431e-06
1.28359e-06
1.28286e-06
1.28214e-06
1.2806e-06
1.28081e-06
1.28096e-06
1.28106e-06
1.28112e-06
1.28112e-06
1.28107e-06
1.28096e-06
1.28081e-06
1.2806e-06
1.28035e-06
1.28006e-06
1.27972e-06
1.27935e-06
1.27894e-06
1.2785e-06
1.27803e-06
1.27754e-06
1.27703e-06
1.27655e-06
1.27612e-06
1.27626e-06
1.27637e-06
1.27645e-06
1.27648e-06
1.27648e-06
1.27645e-06
1.27637e-06
1.27626e-06
1.27611e-06
1.27593e-06
1.27572e-06
1.27547e-06
1.2752e-06
1.2749e-06
1.27457e-06
1.27422e-06
1.27386e-06
1.27348e-06
1.27313e-06
1.27337e-06
1.27349e-06
1.27357e-06
1.27363e-06
1.27366e-06
1.27366e-06
1.27364e-06
1.27357e-06
1.27349e-06
1.27337e-06
1.27322e-06
1.27305e-06
1.27284e-06
1.27262e-06
1.27237e-06
1.2721e-06
1.27181e-06
1.2715e-06
1.27119e-06
1.2709e-06
1.27147e-06
1.27157e-06
1.27165e-06
1.27171e-06
1.27173e-06
1.27173e-06
1.27171e-06
1.27165e-06
1.27157e-06
1.27147e-06
1.27134e-06
1.27118e-06
1.271e-06
1.2708e-06
1.27058e-06
1.27034e-06
1.27008e-06
1.26981e-06
1.26952e-06
1.26928e-06
1.26998e-06
1.27008e-06
1.27015e-06
1.2702e-06
1.27023e-06
1.27023e-06
1.2702e-06
1.27015e-06
1.27008e-06
1.26998e-06
1.26986e-06
1.26972e-06
1.26955e-06
1.26937e-06
1.26916e-06
1.26894e-06
1.2687e-06
1.26844e-06
1.26818e-06
1.26796e-06
1.26875e-06
1.26884e-06
1.26891e-06
1.26896e-06
1.26898e-06
1.26898e-06
1.26896e-06
1.26891e-06
1.26884e-06
1.26875e-06
1.26864e-06
1.2685e-06
1.26835e-06
1.26817e-06
1.26798e-06
1.26777e-06
1.26754e-06
1.2673e-06
1.26705e-06
1.26685e-06
2.30516e-06
2.2486e-06
2.19277e-06
2.13765e-06
2.08322e-06
2.02948e-06
1.9764e-06
1.92399e-06
1.87223e-06
1.82114e-06
1.77074e-06
1.72107e-06
1.6722e-06
1.62423e-06
1.57733e-06
1.53176e-06
1.48788e-06
1.44626e-06
1.40761e-06
1.37286e-06
1.34303e-06
1.31895e-06
1.30097e-06
1.28867e-06
1.28096e-06
1.27637e-06
1.27357e-06
1.27165e-06
1.27015e-06
1.26891e-06
2.3013e-06
2.24489e-06
2.18921e-06
2.13424e-06
2.07996e-06
2.02636e-06
1.97342e-06
1.92115e-06
1.86953e-06
1.81858e-06
1.76833e-06
1.7188e-06
1.67007e-06
1.62225e-06
1.5755e-06
1.53009e-06
1.48639e-06
1.44494e-06
1.40649e-06
1.37195e-06
1.34232e-06
1.31843e-06
1.30061e-06
1.28844e-06
1.28081e-06
1.27626e-06
1.27348e-06
1.27157e-06
1.27008e-06
1.26884e-06
2.29621e-06
2.23999e-06
2.1845e-06
2.12972e-06
2.07564e-06
2.02222e-06
1.96948e-06
1.91739e-06
1.86596e-06
1.8152e-06
1.76513e-06
1.71579e-06
1.66725e-06
1.61963e-06
1.57308e-06
1.52789e-06
1.48441e-06
1.44321e-06
1.40501e-06
1.37074e-06
1.34138e-06
1.31775e-06
1.30015e-06
1.28814e-06
1.2806e-06
1.27611e-06
1.27336e-06
1.27147e-06
1.26998e-06
1.26875e-06
2.2899e-06
2.23393e-06
2.17869e-06
2.12415e-06
2.0703e-06
2.01712e-06
1.9646e-06
1.91275e-06
1.86155e-06
1.81102e-06
1.76118e-06
1.71207e-06
1.66377e-06
1.61639e-06
1.5701e-06
1.52517e-06
1.48197e-06
1.44106e-06
1.40318e-06
1.36925e-06
1.34023e-06
1.31691e-06
1.29957e-06
1.28776e-06
1.28035e-06
1.27593e-06
1.27322e-06
1.27134e-06
1.26986e-06
1.26864e-06
2.28242e-06
2.22675e-06
2.17179e-06
2.11753e-06
2.06397e-06
2.01107e-06
1.95883e-06
1.90725e-06
1.85632e-06
1.80606e-06
1.7565e-06
1.70767e-06
1.65965e-06
1.61256e-06
1.56657e-06
1.52195e-06
1.47908e-06
1.43853e-06
1.40103e-06
1.36749e-06
1.33887e-06
1.31593e-06
1.2989e-06
1.28731e-06
1.28006e-06
1.27572e-06
1.27304e-06
1.27118e-06
1.26972e-06
1.2685e-06
2.27382e-06
2.21848e-06
2.16386e-06
2.10993e-06
2.05668e-06
2.0041e-06
1.95218e-06
1.90092e-06
1.85031e-06
1.80036e-06
1.75111e-06
1.70261e-06
1.65491e-06
1.60815e-06
1.56251e-06
1.51826e-06
1.47578e-06
1.43564e-06
1.39858e-06
1.36549e-06
1.33733e-06
1.31481e-06
1.29813e-06
1.28681e-06
1.27972e-06
1.27547e-06
1.27284e-06
1.271e-06
1.26955e-06
1.26835e-06
2.37631e-06
2.31987e-06
2.26417e-06
2.20921e-06
2.15496e-06
2.10139e-06
2.04851e-06
1.99629e-06
1.94473e-06
1.89381e-06
1.84356e-06
1.79397e-06
1.74507e-06
1.69693e-06
1.6496e-06
1.60322e-06
1.55797e-06
1.51412e-06
1.47208e-06
1.4324e-06
1.39583e-06
1.36327e-06
1.33561e-06
1.31356e-06
1.29729e-06
1.28625e-06
1.27935e-06
1.2752e-06
1.27262e-06
1.2708e-06
1.26937e-06
1.26817e-06
4.53797e-06
4.44403e-06
4.35215e-06
4.26224e-06
4.1742e-06
4.08798e-06
4.00349e-06
3.92066e-06
3.83944e-06
3.75976e-06
3.68158e-06
3.60482e-06
3.52945e-06
3.45542e-06
3.38267e-06
3.31118e-06
3.24089e-06
3.17178e-06
3.10379e-06
3.0369e-06
2.97108e-06
2.90629e-06
2.8425e-06
2.77968e-06
2.7178e-06
2.65684e-06
2.59676e-06
2.53755e-06
2.47917e-06
2.4216e-06
2.36481e-06
2.3088e-06
2.25352e-06
2.19897e-06
2.14513e-06
2.09197e-06
2.03949e-06
1.98767e-06
1.9365e-06
1.88598e-06
1.83612e-06
1.78692e-06
1.73842e-06
1.69067e-06
1.64375e-06
1.59779e-06
1.55297e-06
1.50957e-06
1.46802e-06
1.42885e-06
1.39283e-06
1.36083e-06
1.33374e-06
1.31221e-06
1.29637e-06
1.28565e-06
1.27894e-06
1.2749e-06
1.27237e-06
1.27058e-06
1.26916e-06
1.26798e-06
4.50537e-06
4.41243e-06
4.3215e-06
4.23251e-06
4.14538e-06
4.06002e-06
3.97636e-06
3.89435e-06
3.81392e-06
3.735e-06
3.65755e-06
3.58151e-06
3.50684e-06
3.43348e-06
3.3614e-06
3.29055e-06
3.22089e-06
3.15239e-06
3.08501e-06
3.01871e-06
2.95346e-06
2.88923e-06
2.82599e-06
2.76371e-06
2.70236e-06
2.64191e-06
2.58234e-06
2.52362e-06
2.46573e-06
2.40864e-06
2.35233e-06
2.29678e-06
2.24196e-06
2.18787e-06
2.13447e-06
2.08175e-06
2.02971e-06
1.97832e-06
1.92757e-06
1.87748e-06
1.82804e-06
1.77927e-06
1.7312e-06
1.68388e-06
1.6374e-06
1.59189e-06
1.54755e-06
1.50465e-06
1.46362e-06
1.42502e-06
1.3896e-06
1.35822e-06
1.33174e-06
1.31077e-06
1.29538e-06
1.285e-06
1.2785e-06
1.27457e-06
1.2721e-06
1.27034e-06
1.26894e-06
1.26777e-06
4.47054e-06
4.37865e-06
4.28874e-06
4.20073e-06
4.11454e-06
4.0301e-06
3.94733e-06
3.86618e-06
3.78657e-06
3.70847e-06
3.63181e-06
3.55653e-06
3.48261e-06
3.40998e-06
3.3386e-06
3.26844e-06
3.19946e-06
3.13161e-06
3.06487e-06
2.9992e-06
2.93457e-06
2.87094e-06
2.80829e-06
2.74658e-06
2.6858e-06
2.6259e-06
2.56688e-06
2.50869e-06
2.45132e-06
2.39475e-06
2.33894e-06
2.28389e-06
2.22957e-06
2.17596e-06
2.12304e-06
2.07079e-06
2.01921e-06
1.96829e-06
1.918e-06
1.86837e-06
1.81938e-06
1.77107e-06
1.72346e-06
1.67661e-06
1.63061e-06
1.58559e-06
1.54175e-06
1.4994e-06
1.45894e-06
1.42095e-06
1.38616e-06
1.35545e-06
1.32962e-06
1.30924e-06
1.29434e-06
1.28431e-06
1.27803e-06
1.27422e-06
1.27181e-06
1.27008e-06
1.2687e-06
1.26754e-06
4.4338e-06
4.343e-06
4.25415e-06
4.16716e-06
4.08196e-06
3.99847e-06
3.91662e-06
3.83637e-06
3.75764e-06
3.68038e-06
3.60454e-06
3.53007e-06
3.45692e-06
3.38506e-06
3.31443e-06
3.24499e-06
3.17672e-06
3.10957e-06
3.04351e-06
2.9785e-06
2.91452e-06
2.85152e-06
2.7895e-06
2.7284e-06
2.66822e-06
2.60891e-06
2.55046e-06
2.49284e-06
2.43603e-06
2.38e-06
2.32474e-06
2.27021e-06
2.21641e-06
2.16331e-06
2.1109e-06
2.05916e-06
2.00808e-06
1.95764e-06
1.90785e-06
1.8587e-06
1.8102e-06
1.76238e-06
1.71526e-06
1.66891e-06
1.62342e-06
1.57892e-06
1.53563e-06
1.49385e-06
1.454e-06
1.41666e-06
1.38256e-06
1.35255e-06
1.32741e-06
1.30766e-06
1.29327e-06
1.2836e-06
1.27754e-06
1.27386e-06
1.27151e-06
1.26981e-06
1.26844e-06
1.2673e-06
4.39549e-06
4.30583e-06
4.21806e-06
4.13212e-06
4.04793e-06
3.96542e-06
3.88453e-06
3.80519e-06
3.72736e-06
3.65098e-06
3.57598e-06
3.50234e-06
3.43e-06
3.35893e-06
3.28907e-06
3.22039e-06
3.15285e-06
3.08642e-06
3.02107e-06
2.95675e-06
2.89344e-06
2.83112e-06
2.76974e-06
2.70928e-06
2.64972e-06
2.59103e-06
2.53319e-06
2.47617e-06
2.41994e-06
2.36449e-06
2.30979e-06
2.25583e-06
2.20258e-06
2.15003e-06
2.09815e-06
2.04694e-06
1.99638e-06
1.94646e-06
1.89719e-06
1.84855e-06
1.80057e-06
1.75326e-06
1.70666e-06
1.66083e-06
1.61588e-06
1.57194e-06
1.52923e-06
1.48805e-06
1.44885e-06
1.41219e-06
1.37882e-06
1.34955e-06
1.32514e-06
1.30603e-06
1.29216e-06
1.28286e-06
1.27704e-06
1.27348e-06
1.27119e-06
1.26952e-06
1.26818e-06
1.26705e-06
4.35205e-06
4.26383e-06
4.17746e-06
4.09284e-06
4.00992e-06
3.92863e-06
3.84891e-06
3.77071e-06
3.69396e-06
3.61862e-06
3.54464e-06
3.47198e-06
3.40058e-06
3.33043e-06
3.26146e-06
3.19364e-06
3.12695e-06
3.06134e-06
2.99678e-06
2.93324e-06
2.8707e-06
2.80911e-06
2.74846e-06
2.68872e-06
2.62985e-06
2.57184e-06
2.51467e-06
2.4583e-06
2.40272e-06
2.3479e-06
2.29382e-06
2.24047e-06
2.18783e-06
2.13587e-06
2.08458e-06
2.03394e-06
1.98395e-06
1.9346e-06
1.88589e-06
1.83781e-06
1.79039e-06
1.74363e-06
1.6976e-06
1.65234e-06
1.60796e-06
1.56462e-06
1.52253e-06
1.48201e-06
1.44349e-06
1.40757e-06
1.37497e-06
1.34648e-06
1.32282e-06
1.30438e-06
1.29105e-06
1.28214e-06
1.27655e-06
1.27313e-06
1.2709e-06
1.26928e-06
1.26796e-06
1.26685e-06
)
;

boundaryField
{
    inlet
    {
        type            cyclic;
    }
    outlet
    {
        type            cyclic;
    }
    wall
    {
        type            calculated;
        value           nonuniform List<scalar> 
33
(
1.26835e-06
1.26828e-06
1.26819e-06
1.26808e-06
1.26795e-06
1.2678e-06
1.26763e-06
1.26744e-06
1.26723e-06
1.26701e-06
1.26678e-06
1.26654e-06
1.26634e-06
1.26819e-06
1.26828e-06
1.26835e-06
1.26839e-06
1.26841e-06
1.26841e-06
1.26839e-06
1.26835e-06
1.26828e-06
1.26819e-06
1.26808e-06
1.26795e-06
1.2678e-06
1.26763e-06
1.26744e-06
1.26723e-06
1.26701e-06
1.26678e-06
1.26654e-06
1.26634e-06
)
;
    }
    procBoundary2to0
    {
        type            processor;
        value           nonuniform List<scalar> 
30
(
2.30775e-06
2.25108e-06
2.19515e-06
2.13993e-06
2.08541e-06
2.03157e-06
1.9784e-06
1.92589e-06
1.87404e-06
1.82286e-06
1.77236e-06
1.7226e-06
1.67363e-06
1.62556e-06
1.57856e-06
1.53288e-06
1.48889e-06
1.44714e-06
1.40836e-06
1.37348e-06
1.34351e-06
1.3193e-06
1.30121e-06
1.28883e-06
1.28106e-06
1.27645e-06
1.27363e-06
1.27171e-06
1.2702e-06
1.26896e-06
)
;
    }
    procBoundary2to1
    {
        type            processor;
        value           nonuniform List<scalar> 
39
(
2.36248e-06
2.35847e-06
2.35317e-06
2.34661e-06
2.33884e-06
2.38673e-06
2.3299e-06
2.3299e-06
4.56811e-06
4.47323e-06
4.38045e-06
4.28967e-06
4.2008e-06
4.11377e-06
4.0285e-06
3.94492e-06
3.86298e-06
3.78259e-06
3.70372e-06
3.6263e-06
3.55028e-06
3.47562e-06
3.40226e-06
3.33017e-06
3.2593e-06
3.18962e-06
3.12108e-06
3.05366e-06
2.98731e-06
2.922e-06
2.8577e-06
2.79439e-06
2.73203e-06
2.67059e-06
2.61005e-06
2.55037e-06
2.49154e-06
2.43353e-06
2.43353e-06
)
;
    }
    procBoundary2to3
    {
        type            processor;
        value           nonuniform List<scalar> 
60
(
4.29408e-06
4.20419e-06
4.11615e-06
4.02991e-06
3.94537e-06
3.86249e-06
3.78119e-06
3.78119e-06
3.69108e-06
3.61309e-06
3.53652e-06
3.4613e-06
3.3874e-06
3.31477e-06
3.24337e-06
3.17316e-06
3.1041e-06
3.03615e-06
2.96928e-06
2.90346e-06
2.83865e-06
2.77482e-06
2.71195e-06
2.65e-06
2.58895e-06
2.58895e-06
2.52142e-06
2.46234e-06
2.40408e-06
2.3466e-06
2.28989e-06
2.23392e-06
2.17868e-06
2.12414e-06
2.07029e-06
2.01711e-06
1.9646e-06
1.91274e-06
1.86154e-06
1.81101e-06
1.76117e-06
1.71207e-06
1.66377e-06
1.61639e-06
1.5701e-06
1.52517e-06
1.48197e-06
1.44106e-06
1.40319e-06
1.36925e-06
1.34023e-06
1.31691e-06
1.29957e-06
1.28776e-06
1.28035e-06
1.27593e-06
1.27322e-06
1.27134e-06
1.26986e-06
1.26864e-06
)
;
    }
    procBoundary2to5
    {
        type            processor;
        value           nonuniform List<scalar> 
28
(
4.69345e-06
4.66515e-06
4.63406e-06
4.6004e-06
4.56448e-06
4.52661e-06
4.48714e-06
4.44217e-06
4.61998e-06
4.59726e-06
4.59366e-06
4.58647e-06
4.57577e-06
4.56162e-06
4.54414e-06
4.52348e-06
4.52348e-06
4.49015e-06
4.4971e-06
4.5006e-06
4.5006e-06
4.38592e-06
4.63406e-06
4.60042e-06
4.56449e-06
4.52661e-06
4.48714e-06
4.44218e-06
)
;
    }
}


// ************************************************************************* //
