/*--------------------------------*- C++ -*----------------------------------*\
  =========                 |
  \\      /  F ield         | OpenFOAM: The Open Source CFD Toolbox
   \\    /   O peration     | Website:  https://openfoam.org
    \\  /    A nd           | Version:  7
     \\/     M anipulation  |
\*---------------------------------------------------------------------------*/
FoamFile
{
    version     2.0;
    format      ascii;
    class       volScalarField;
    location    "20000";
    object      nu;
}
// * * * * * * * * * * * * * * * * * * * * * * * * * * * * * * * * * * * * * //

dimensions      [0 2 -1 0 0 0 0];

internalField   nonuniform List<scalar> 
4850
(
0.001
0.001
0.001
0.001
0.001
0.001
0.001
0.001
0.001
0.001
0.001
0.001
0.001
0.001
0.001
0.001
0.001
0.001
0.001
0.001
0.001
0.001
0.001
0.001
0.001
0.001
0.001
0.001
0.001
0.001
0.001
0.001
0.001
0.001
0.001
0.001
0.001
0.001
0.001
0.001
0.001
0.001
0.001
0.001
0.001
0.001
0.001
0.001
0.001
0.001
0.001
0.001
0.001
0.001
0.001
0.001
0.001
0.001
0.001
0.001
0.001
0.001
0.001
0.001
0.001
0.001
0.001
0.001
0.001
0.001
0.001
0.001
0.001
0.001
0.001
0.001
0.001
0.001
0.001
0.001
0.001
0.001
0.001
0.001
0.001
0.001
0.001
0.001
0.001
0.001
0.001
0.001
0.001
0.001
0.001
0.001
0.001
0.001
0.001
0.001
0.001
0.001
0.001
0.001
0.001
0.001
0.001
0.001
0.001
0.001
0.001
0.001
0.001
0.001
0.001
0.001
0.001
0.001
0.001
0.001
0.001
0.001
0.001
0.001
0.001
0.001
0.001
0.001
0.001
0.001
0.001
0.001
0.001
0.001
0.001
0.001
0.001
0.001
0.001
0.001
0.001
0.001
0.001
0.001
0.001
0.001
0.001
0.001
0.001
0.001
0.001
0.001
0.001
0.001
0.001
0.001
0.001
0.001
0.001
0.001
0.001
0.001
0.001
0.001
0.001
0.001
0.001
0.001
0.001
0.001
0.001
0.001
0.001
0.001
0.001
0.001
0.001
0.001
0.001
0.001
0.001
0.001
0.001
0.001
0.001
0.001
0.001
0.001
0.001
0.001
0.001
0.001
0.001
0.001
0.001
0.001
0.001
0.001
0.001
0.001
0.001
0.001
0.001
0.001
0.001
0.001
0.001
0.001
0.001
0.001
0.001
0.001
0.001
0.001
0.001
0.001
0.001
0.001
0.001
0.001
0.001
0.001
0.001
0.001
0.001
0.001
0.001
0.001
0.001
0.001
0.001
0.001
0.001
0.001
0.001
0.001
0.001
0.001
0.001
0.001
0.001
0.001
0.001
0.001
0.001
0.001
0.001
0.000999972
0.001
0.001
0.001
0.001
0.001
0.001
0.001
0.001
0.001
0.001
0.001
0.001
0.001
0.001
0.001
0.001
0.001
0.001
0.001
0.001
0.001
0.001
0.001
0.001
0.001
0.001
0.001
0.001
0.001
0.001
0.001
0.001
0.001
0.000991698
0.001
0.001
0.001
0.001
0.001
0.001
0.001
0.001
0.001
0.001
0.001
0.001
0.001
0.001
0.001
0.001
0.001
0.001
0.001
0.001
0.001
0.001
0.001
0.001
0.001
0.001
0.001
0.001
0.001
0.001
0.001
0.001
0.001
0.000979857
0.00099354
0.000997744
0.001
0.001
0.001
0.001
0.001
0.001
0.001
0.001
0.001
0.001
0.001
0.001
0.001
0.001
0.001
0.001
0.001
0.001
0.001
0.001
0.001
0.001
0.001
0.001
0.001
0.001
0.001
0.001
0.001
0.001
0.001
0.000965807
0.000980257
0.000986562
0.000991176
0.000994722
0.000997794
0.001
0.001
0.001
0.001
0.001
0.001
0.001
0.001
0.001
0.001
0.001
0.001
0.001
0.001
0.001
0.001
0.001
0.001
0.001
0.001
0.001
0.001
0.001
0.001
0.001
0.001
0.001
0.001
0.000950314
0.0009644
0.000971675
0.000977582
0.000982675
0.000987162
0.000991181
0.000994579
0.00099761
0.001
0.001
0.001
0.001
0.001
0.001
0.001
0.001
0.001
0.001
0.001
0.001
0.001
0.001
0.001
0.001
0.001
0.001
0.001
0.001
0.001
0.001
0.001
0.001
0.001
0.000934011
0.000947625
0.00095529
0.000961898
0.000967748
0.000973003
0.000977925
0.000982653
0.000987002
0.000990943
0.00099419
0.000997023
0.000999506
0.001
0.001
0.001
0.001
0.001
0.001
0.001
0.001
0.001
0.001
0.001
0.001
0.001
0.001
0.001
0.001
0.001
0.001
0.001
0.001
0.001
0.000917325
0.00093054
0.000938342
0.000945323
0.0009516
0.000957325
0.000962734
0.000968001
0.000972981
0.000977699
0.000982207
0.000986276
0.000989944
0.000992964
0.000995517
0.000997777
0.000999714
0.001
0.001
0.001
0.001
0.001
0.001
0.001
0.001
0.001
0.001
0.001
0.001
0.001
0.001
0.000999849
0.000996433
0.000991088
0.000900502
0.000913373
0.000921219
0.000928397
0.000934944
0.000940978
0.000946683
0.000952209
0.000957518
0.000962632
0.00096762
0.000972262
0.000976559
0.000980599
0.000984235
0.000987484
0.000990335
0.000992573
0.000994383
0.000995903
0.00099716
0.000998151
0.000998877
0.000999336
0.000999516
0.000999397
0.000998974
0.000998249
0.000997194
0.000995722
0.000993627
0.000990472
0.000985444
0.000978476
0.000970484
0.000883672
0.000896224
0.000904083
0.000911368
0.000918093
0.000924343
0.00093025
0.000935938
0.000941434
0.000946757
0.000951943
0.000956865
0.000961499
0.000965937
0.000970035
0.000973744
0.000977074
0.000980094
0.00098268
0.000984866
0.000986674
0.000988105
0.000989155
0.000989819
0.00099008
0.000989917
0.000989318
0.000988272
0.000986727
0.000984545
0.000981454
0.000977044
0.000971182
0.000963747
0.000959055
0.000866903
0.000879147
0.000887005
0.000894349
0.000901196
0.0009076
0.000913659
0.000919469
0.000925085
0.000930528
0.000935812
0.000940875
0.000945687
0.000950285
0.000954582
0.000958518
0.000962102
0.000965413
0.000968321
0.000970799
0.000972852
0.000974478
0.000975673
0.000976427
0.000976724
0.000976542
0.000975863
0.000974656
0.000972842
0.000970248
0.000966586
0.000961531
0.000955089
0.000947756
0.000946832
0.000850233
0.000862174
0.00087002
0.000877399
0.000884328
0.000890845
0.00089702
0.00090293
0.000908633
0.000914153
0.000919496
0.000924636
0.00092954
0.000934209
0.000938594
0.000942644
0.000946357
0.00094977
0.000952803
0.000955406
0.000957567
0.000959281
0.00096054
0.000961332
0.000961641
0.000961444
0.000960712
0.000959392
0.000957371
0.000954436
0.000950266
0.000944545
0.000937311
0.000930204
0.000833685
0.000845329
0.000853154
0.000860549
0.000867532
0.000874131
0.000880397
0.000886389
0.00089216
0.000897735
0.00090312
0.000908302
0.000913254
0.000917958
0.000922382
0.000926488
0.000930262
0.000933709
0.000936782
0.000939433
0.00094164
0.000943392
0.000944677
0.000945482
0.000945789
0.00094557
0.000944782
0.000943345
0.000941105
0.000937789
0.000932994
0.000926292
0.000917699
0.000911066
0.000817276
0.000828629
0.000836421
0.00084382
0.000850837
0.000857494
0.000863829
0.000869887
0.000875712
0.000881329
0.000886745
0.000891952
0.000896928
0.000901649
0.00090609
0.00091022
0.000914018
0.000917472
0.000920551
0.000923215
0.000925438
0.000927202
0.000928494
0.000929298
0.000929592
0.000929339
0.000928481
0.000926906
0.000924413
0.000920658
0.000915127
0.000907214
0.000896962
0.000894034
0.000801018
0.000812088
0.000819838
0.000827227
0.000834262
0.000840959
0.000847344
0.000853453
0.000859321
0.00086497
0.000870408
0.00087563
0.000880617
0.000885344
0.000889789
0.000893925
0.000897727
0.000901176
0.000904247
0.000906908
0.00090913
0.000910894
0.000912182
0.000912975
0.000913245
0.000912948
0.000912004
0.000910274
0.000907515
0.000903332
0.000897149
0.000888302
0.000877531
0.000880552
0.000784924
0.000795717
0.000803417
0.000810785
0.000817825
0.000824544
0.000830964
0.00083711
0.00084301
0.000848683
0.000854136
0.000859365
0.000864354
0.00086908
0.000873521
0.000877651
0.000881447
0.000884885
0.000887942
0.00089059
0.000892802
0.000894557
0.000895834
0.00089661
0.000896849
0.000896497
0.000895461
0.000893578
0.00089059
0.000886111
0.000879665
0.000870933
0.000863097
0.000769003
0.000779527
0.000787167
0.000794506
0.000801537
0.000808267
0.000814707
0.000820878
0.0008268
0.000832488
0.000837949
0.000843178
0.000848163
0.000852881
0.000857312
0.000861431
0.000865213
0.000868635
0.000871674
0.000874305
0.000876502
0.000878243
0.000879503
0.000880255
0.000880459
0.000880051
0.000878925
0.000876919
0.000873793
0.000869263
0.000863173
0.000856221
0.000853324
0.000753265
0.000763526
0.0007711
0.000778399
0.000785412
0.000792139
0.000798588
0.000804772
0.000810706
0.000816402
0.000821864
0.000827089
0.000832063
0.000836769
0.000841184
0.000845286
0.00084905
0.000852453
0.000855471
0.000858082
0.00086026
0.000861983
0.000863222
0.000863948
0.000864114
0.000863652
0.000862456
0.000860377
0.000857241
0.000852948
0.000847818
0.000843638
0.000737717
0.000747722
0.000755223
0.000762475
0.00076946
0.000776174
0.000782621
0.000788807
0.000794744
0.00080044
0.000805897
0.000811112
0.000816072
0.00082076
0.000825155
0.000829236
0.000832977
0.000836358
0.000839354
0.000841942
0.000844099
0.0008458
0.000847016
0.000847714
0.000847845
0.000847339
0.000846099
0.000844012
0.000840997
0.000837177
0.000833318
0.000831747
0.000722366
0.000732121
0.000739544
0.000746741
0.00075369
0.000760382
0.000766816
0.000772996
0.000778927
0.000784615
0.000790062
0.000795261
0.000800202
0.000804868
0.00080924
0.000813296
0.000817012
0.000820367
0.000823338
0.000825902
0.000828036
0.000829714
0.000830906
0.000831577
0.000831677
0.000831141
0.000829891
0.000827859
0.000825071
0.000821848
0.000819207
0.000819359
0.000707219
0.000716731
0.00072407
0.000731205
0.00073811
0.000744772
0.000751184
0.000757349
0.000763267
0.000768941
0.00077437
0.000779549
0.000784467
0.000789108
0.000793452
0.00079748
0.000801169
0.000804496
0.00080744
0.000809979
0.000812087
0.000813741
0.000814909
0.000815555
0.000815633
0.000815085
0.000813858
0.000811936
0.00080944
0.000806819
0.000805114
0.000805898
0.000692281
0.000701555
0.000708807
0.000715874
0.000722728
0.000729352
0.000735735
0.000741876
0.000747773
0.000753426
0.000758834
0.000763988
0.000768878
0.00077349
0.000777804
0.000781801
0.000785459
0.000788757
0.000791673
0.000794184
0.000796267
0.000797896
0.000799041
0.000799667
0.000799732
0.000799192
0.00079802
0.000796249
0.000794072
0.000791982
0.000790874
0.000791603
0.000677557
0.000686599
0.000693759
0.000700754
0.00070755
0.000714129
0.000720476
0.000726586
0.000732456
0.000738083
0.000743462
0.000748587
0.000753446
0.000758026
0.000762307
0.000766271
0.000769896
0.000773163
0.000776048
0.000778531
0.000780588
0.000782193
0.000783317
0.000783929
0.000783992
0.000783479
0.000782389
0.0007808
0.000778942
0.000777287
0.000776505
0.000776898
0.00066305
0.000671867
0.000678931
0.000685848
0.000692583
0.000699109
0.000705414
0.000711487
0.000717323
0.000722918
0.000728265
0.000733356
0.000738181
0.000742725
0.00074697
0.000750899
0.00075449
0.000757723
0.000760577
0.000763031
0.000765061
0.000766643
0.00076775
0.000768354
0.000768427
0.000767958
0.000766973
0.000765581
0.000764026
0.000762717
0.00076209
0.000762099
0.000648763
0.00065736
0.000664326
0.000671162
0.000677829
0.000684299
0.000690555
0.000696585
0.000702382
0.000707939
0.000713249
0.000718304
0.000723091
0.000727596
0.000731803
0.000735694
0.000739249
0.000742447
0.000745269
0.000747694
0.000749698
0.000751259
0.000752352
0.000752953
0.000753047
0.000752636
0.000751769
0.000750575
0.000749291
0.000748239
0.00074765
0.000747259
0.000634698
0.00064308
0.000649946
0.000656698
0.000663293
0.000669702
0.000675904
0.000681887
0.000687639
0.000693154
0.000698423
0.000703436
0.000708182
0.000712647
0.000716814
0.000720665
0.000724182
0.000727345
0.000730134
0.000732528
0.000734507
0.000736048
0.00073713
0.000737736
0.000737857
0.000737512
0.000736764
0.000735747
0.000734669
0.000733749
0.000733034
0.00073209
0.000620855
0.000629028
0.000635793
0.000642458
0.000648977
0.00065532
0.000661465
0.000667395
0.000673099
0.000678568
0.000683792
0.000688761
0.000693463
0.000697884
0.000702008
0.000705819
0.000709296
0.000712423
0.000715178
0.000717542
0.000719496
0.000721019
0.000722093
0.000722706
0.000722859
0.000722578
0.000721933
0.000721043
0.000720054
0.00071905
0.000717896
0.000716001
0.000607236
0.000615205
0.000621867
0.000628442
0.000634883
0.000641157
0.00064724
0.000653113
0.000658765
0.000664184
0.000669359
0.000674281
0.000678937
0.000683312
0.000687392
0.00069116
0.000694597
0.000697686
0.000700407
0.000702742
0.000704671
0.000706178
0.000707246
0.000707868
0.000708051
0.000707824
0.000707246
0.000706398
0.000705318
0.000703898
0.000701783
0.000698356
0.000593844
0.000601613
0.000608169
0.000614652
0.000621013
0.000627214
0.000633231
0.000639045
0.00064464
0.000650006
0.00065513
0.000660002
0.000664609
0.000668937
0.000672971
0.000676695
0.00068009
0.000683141
0.000685828
0.000688133
0.000690038
0.000691529
0.000692592
0.000693222
0.000693428
0.000693234
0.000692675
0.000691759
0.000690367
0.000688112
0.000684352
0.000679056
0.000580682
0.000588253
0.000594701
0.00060109
0.000607366
0.000613493
0.000619441
0.000625191
0.000630728
0.000636037
0.000641107
0.000645927
0.000650483
0.000654762
0.000658748
0.000662426
0.000665779
0.000668791
0.000671443
0.000673718
0.0006756
0.000677075
0.000678132
0.000678767
0.000678986
0.0006788
0.000678203
0.000677107
0.000675195
0.000671728
0.000665692
0.000659381
0.000567755
0.000575131
0.000581468
0.000587759
0.000593948
0.000599995
0.000605872
0.000611555
0.000617029
0.00062228
0.000627294
0.000632059
0.000636563
0.00064079
0.000644728
0.000648359
0.000651669
0.000654641
0.000657257
0.000659502
0.000661361
0.00066282
0.000663869
0.000664503
0.000664722
0.000664516
0.00066383
0.000662472
0.000659927
0.000655117
0.000646643
0.000642675
0.000555068
0.000562251
0.000568474
0.000574664
0.000580762
0.000586727
0.000592528
0.000598142
0.00060355
0.000608739
0.000613694
0.000618403
0.000622852
0.000627027
0.000630915
0.000634499
0.000637764
0.000640695
0.000643276
0.00064549
0.000647325
0.000648766
0.000649804
0.000650432
0.000650638
0.00065039
0.000649582
0.000647936
0.000644808
0.000638955
0.000629047
0.000629853
0.000542623
0.000549617
0.000555725
0.00056181
0.000567814
0.000573693
0.000579415
0.000584955
0.000590295
0.000595419
0.000600313
0.000604963
0.000609356
0.000613478
0.000617315
0.000620851
0.000624071
0.000626961
0.000629504
0.000631687
0.000633496
0.000634918
0.000635943
0.000636557
0.00063674
0.000636435
0.0006355
0.000633609
0.000630124
0.000624014
0.000615633
0.000530417
0.00053723
0.000543222
0.000549201
0.000555108
0.000560899
0.000566538
0.000572002
0.00057727
0.000582326
0.000587156
0.000591746
0.000596081
0.000600149
0.000603934
0.000607421
0.000610596
0.000613444
0.00061595
0.0006181
0.000619882
0.000621283
0.00062229
0.000622886
0.000623039
0.000622674
0.000621632
0.0006196
0.0006161
0.000610808
0.000606158
0.000518438
0.000525082
0.000530963
0.000536838
0.000542647
0.000548347
0.000553902
0.000559287
0.000564481
0.000569467
0.00057423
0.000578756
0.000583032
0.000587044
0.000590777
0.000594215
0.000597345
0.00060015
0.000602618
0.000604735
0.000606489
0.000607866
0.000608853
0.000609427
0.000609548
0.000609133
0.000608024
0.000605982
0.000602812
0.00059909
0.000506665
0.000513155
0.000518934
0.000524709
0.000530424
0.000536034
0.000541505
0.00054681
0.000551928
0.000556842
0.000561536
0.000565997
0.000570212
0.000574166
0.000577846
0.000581235
0.000584318
0.000587082
0.000589512
0.000591596
0.000593321
0.000594674
0.000595639
0.00059619
0.000596282
0.000595831
0.000594709
0.000592783
0.000590176
0.000588162
0.000495069
0.000501423
0.000507112
0.000512797
0.000518423
0.000523947
0.000529336
0.000534562
0.000539605
0.000544446
0.000549071
0.000553465
0.000557616
0.000561511
0.000565135
0.000568474
0.000571512
0.000574234
0.000576628
0.00057868
0.000580377
0.000581705
0.000582649
0.000583178
0.000583247
0.000582783
0.000581698
0.000579982
0.000578018
0.00057737
0.000483625
0.000489857
0.000495468
0.000501073
0.000506618
0.000512062
0.000517373
0.000522524
0.000527494
0.000532265
0.000536822
0.000541149
0.000545235
0.000549068
0.000552634
0.00055592
0.000558912
0.000561594
0.000563953
0.000565976
0.000567648
0.000568955
0.000569878
0.000570389
0.000570445
0.000569988
0.000568981
0.000567523
0.000566152
0.000566302
0.000472327
0.000478437
0.000483975
0.000489508
0.00049498
0.00050035
0.000505589
0.000510669
0.000515571
0.000520275
0.000524766
0.000529029
0.00053305
0.000536818
0.000540323
0.000543555
0.000546499
0.000549141
0.000551468
0.000553464
0.000555116
0.000556405
0.000557311
0.000557809
0.000557861
0.000557431
0.00055653
0.000555337
0.000554432
0.000554901
0.000461196
0.000467166
0.000472625
0.000478084
0.000483485
0.000488785
0.000493955
0.000498969
0.000503806
0.000508447
0.000512876
0.000517077
0.000521036
0.000524739
0.000528181
0.000531356
0.000534251
0.000536853
0.000539148
0.000541122
0.000542758
0.000544033
0.000544927
0.000545416
0.000545474
0.000545086
0.000544303
0.000543349
0.000542765
0.000543242
0.000450302
0.00045609
0.000461443
0.000466814
0.000472134
0.000477361
0.00048246
0.000487407
0.00049218
0.00049676
0.00050113
0.000505274
0.000509175
0.000512817
0.000516195
0.000519312
0.000522157
0.000524717
0.000526978
0.00052893
0.000530554
0.000531817
0.000532701
0.000533187
0.000533258
0.000532921
0.000532256
0.000531501
0.000531106
0.00053143
0.000439752
0.0004453
0.000450501
0.000455751
0.00046097
0.000466107
0.000471125
0.000475998
0.000480701
0.000485218
0.000489529
0.000493618
0.000497466
0.000501054
0.000504371
0.000507432
0.000510228
0.000512743
0.000514966
0.000516891
0.000518499
0.00051975
0.000520624
0.000521108
0.000521198
0.000520916
0.000520359
0.000519757
0.000519451
0.000519566
0.00042967
0.000434921
0.000439913
0.000444998
0.000450081
0.000455101
0.000460017
0.000464799
0.00046942
0.000473862
0.000478107
0.000482139
0.000485938
0.000489481
0.000492748
0.00049576
0.000498507
0.000500975
0.000503154
0.000505038
0.000506619
0.000507848
0.000508709
0.000509193
0.000509304
0.000509075
0.000508612
0.000508119
0.000507836
0.000507743
0.000420145
0.000425073
0.00042981
0.000434684
0.000439592
0.000444463
0.00044925
0.000453915
0.000458433
0.000462783
0.000466948
0.000470913
0.000474661
0.000478167
0.000481398
0.000484371
0.000487073
0.000489492
0.000491617
0.000493444
0.000494976
0.000496169
0.000497009
0.000497491
0.000497622
0.000497444
0.000497059
0.000496638
0.000496338
0.000496064
0.00041116
0.000415809
0.000420281
0.000424923
0.00042963
0.000434325
0.000438954
0.000443478
0.000447869
0.000452105
0.000456169
0.000460049
0.000463734
0.000467204
0.000470415
0.000473357
0.000476018
0.000478387
0.000480453
0.000482208
0.000483664
0.000484801
0.000485613
0.00048609
0.000486239
0.000486105
0.000485781
0.000485406
0.000485071
0.000484649
0.000402511
0.000407033
0.000411305
0.000415741
0.000420255
0.00042477
0.000429231
0.000433599
0.000437844
0.000441947
0.00044589
0.000449663
0.000453261
0.000456678
0.000459874
0.000462787
0.000465406
0.000467727
0.000469736
0.000471414
0.000472773
0.000473846
0.000474625
0.000475093
0.000475259
0.000475161
0.000474885
0.000474536
0.000474161
0.000473626
0.000393763
0.000398425
0.000402665
0.000406999
0.000411381
0.000415753
0.000420067
0.000424288
0.00042839
0.000432355
0.000436166
0.000439814
0.000443294
0.000446618
0.000449775
0.000452642
0.000455213
0.000457488
0.000459453
0.000461077
0.000462348
0.000463367
0.000464116
0.000464578
0.000464756
0.000464689
0.000464449
0.000464114
0.000463699
0.00046308
0.000384275
0.000389424
0.000393905
0.000398321
0.000402697
0.000407016
0.000411249
0.000415372
0.000419366
0.000423216
0.000426907
0.000430425
0.000433762
0.00043693
0.000439977
0.000442757
0.000445266
0.000447497
0.000449441
0.000451068
0.000452317
0.000453324
0.000454062
0.00045452
0.00045471
0.000454668
0.000454454
0.000454125
0.000453678
0.000452998
0.000373353
0.000379303
0.000384363
0.000389095
0.00039364
0.000398044
0.000402309
0.000406429
0.000410391
0.000414186
0.000417799
0.000421213
0.000424398
0.000427342
0.000430144
0.000432774
0.000435201
0.000437392
0.000439346
0.00044106
0.000442438
0.000443512
0.000444268
0.000444733
0.000444935
0.000444913
0.000444718
0.000444391
0.000443915
0.000443191
0.000360532
0.000367398
0.000373331
0.00037859
0.000383473
0.000388115
0.000392553
0.000396794
0.000400834
0.000404666
0.00040828
0.000411647
0.00041471
0.000417389
0.000419757
0.000422173
0.000424503
0.00042666
0.000428652
0.000430545
0.000432287
0.000433525
0.000434337
0.000434822
0.00043504
0.000435035
0.000434852
0.000434521
0.000434018
0.000433256
0.000345941
0.000353475
0.000360364
0.000366209
0.000371513
0.000376498
0.000381223
0.0003857
0.000389931
0.000393908
0.000397618
0.000401025
0.00040404
0.000406479
0.000408235
0.000410409
0.000412646
0.000414781
0.000416826
0.000418951
0.000421318
0.000422803
0.000423702
0.000424222
0.000424458
0.000424468
0.000424292
0.000423951
0.000423418
0.000422614
0.000330593
0.000338116
0.000345649
0.000351878
0.000357497
0.000362795
0.000367826
0.000372585
0.000377068
0.000381264
0.000385153
0.000388688
0.000391757
0.000394082
0.00039518
0.000397165
0.000399345
0.000401478
0.000403577
0.000405901
0.000409036
0.000410782
0.000411782
0.000412346
0.000412606
0.000412629
0.000412454
0.000412095
0.000411522
0.000410665
0.000316432
0.000322945
0.000330291
0.000336392
0.000341984
0.000347368
0.000352557
0.000357501
0.000362185
0.000366584
0.000370666
0.000374375
0.000377592
0.00038001
0.000380728
0.00038268
0.000384865
0.000387027
0.000389165
0.000391552
0.000395253
0.000397167
0.000398255
0.000398868
0.000399155
0.000399189
0.000399008
0.000398621
0.000398
0.000397075
0.000306103
0.000310543
0.000316344
0.00032157
0.000326583
0.000331621
0.00033663
0.000341487
0.000346164
0.000350616
0.000354792
0.000358626
0.000362017
0.000364736
0.000365853
0.000367988
0.000370253
0.000372472
0.000374627
0.000376881
0.000380364
0.000382257
0.000383394
0.000384052
0.000384366
0.000384409
0.000384217
0.000383796
0.000383117
0.000382121
0.000302563
0.000304078
0.000306539
0.000310084
0.000313866
0.000317992
0.000322331
0.000326675
0.000330984
0.000335193
0.000339232
0.000343024
0.0003465
0.000349603
0.000352452
0.000354942
0.000357335
0.000359622
0.00036177
0.000363729
0.000365519
0.000367179
0.00036831
0.000369001
0.00036934
0.00036939
0.000369183
0.000368726
0.000367993
0.000366942
0.000307054
0.000305282
0.000303875
0.000305062
0.000307008
0.000309627
0.000312731
0.00031605
0.000319531
0.000323095
0.000326651
0.000330118
0.00033346
0.000336824
0.000341283
0.000344133
0.000346612
0.000348919
0.000351005
0.000352595
0.000352619
0.000353884
0.000354956
0.000355658
0.000356015
0.00035607
0.000355852
0.000355367
0.000354601
0.000353543
0.000309519
0.000308053
0.000307754
0.000308363
0.000309697
0.000311466
0.000313613
0.000316054
0.000318691
0.000321442
0.000324298
0.000327537
0.000342226
0.000343075
0.000344029
0.000344705
0.000345062
0.000345121
0.000344904
0.00034442
0.00034367
0.000342677
0.001
0.001
0.001
0.001
0.001
0.001
0.001
0.001
0.001
0.001
0.001
0.001
0.001
0.001
0.001
0.001
0.001
0.001
0.001
0.001
0.001
0.001
0.001
0.001
0.001
0.001
0.001
0.001
0.001
0.001
0.001
0.001
0.001
0.001
0.001
0.001
0.001
0.001
0.001
0.001
0.001
0.001
0.001
0.001
0.001
0.001
0.001
0.001
0.001
0.001
0.001
0.001
0.001
0.001
0.001
0.001
0.001
0.001
0.001
0.001
0.001
0.001
0.001
0.001
0.001
0.001
0.001
0.001
0.001
0.001
0.001
0.001
0.001
0.001
0.001
0.001
0.001
0.001
0.001
0.001
0.001
0.001
0.001
0.001
0.001
0.001
0.001
0.001
0.001
0.001
0.001
0.001
0.001
0.001
0.001
0.001
0.001
0.001
0.001
0.001
0.001
0.001
0.001
0.001
0.001
0.001
0.001
0.001
0.001
0.001
0.001
0.001
0.001
0.001
0.001
0.001
0.001
0.001
0.001
0.001
0.001
0.001
0.001
0.001
0.001
0.001
0.001
0.001
0.001
0.001
0.001
0.001
0.001
0.001
0.001
0.001
0.001
0.001
0.001
0.001
0.001
0.001
0.001
0.001
0.001
0.001
0.001
0.001
0.001
0.001
0.001
0.001
0.001
0.001
0.001
0.001
0.001
0.001
0.001
0.001
0.001
0.001
0.001
0.001
0.001
0.001
0.001
0.001
0.001
0.001
0.001
0.001
0.001
0.001
0.001
0.001
0.001
0.001
0.001
0.001
0.001
0.001
0.001
0.001
0.001
0.001
0.001
0.001
0.001
0.001
0.001
0.001
0.001
0.001
0.001
0.001
0.001
0.001
0.001
0.001
0.001
0.001
0.001
0.001
0.001
0.001
0.001
0.001
0.001
0.001
0.001
0.001
0.001
0.001
0.001
0.001
0.001
0.001
0.001
0.001
0.001
0.001
0.001
0.001
0.001
0.001
0.001
0.001
0.001
0.001
0.001
0.001
0.001
0.001
0.001
0.001
0.001
0.001
0.001
0.001
0.001
0.001
0.001
0.001
0.001
0.001
0.001
0.001
0.001
0.001
0.001
0.001
0.001
0.001
0.001
0.001
0.001
0.001
0.001
0.001
0.001
0.001
0.001
0.001
0.001
0.001
0.001
0.001
0.001
0.001
0.001
0.001
0.001
0.001
0.001
0.001
0.001
0.001
0.001
0.001
0.001
0.001
0.001
0.001
0.001
0.001
0.001
0.001
0.001
0.001
0.001
0.001
0.001
0.001
0.001
0.001
0.001
0.001
0.001
0.001
0.001
0.001
0.001
0.001
0.001
0.001
0.001
0.001
0.001
0.001
0.001
0.001
0.001
0.001
0.001
0.001
0.001
0.001
0.001
0.001
0.001
0.001
0.001
0.001
0.001
0.001
0.001
0.001
0.001
0.001
0.001
0.001
0.001
0.001
0.001
0.001
0.001
0.001
0.001
0.001
0.001
0.001
0.001
0.001
0.001
0.001
0.001
0.001
0.001
0.001
0.001
0.001
0.001
0.001
0.001
0.001
0.001
0.001
0.001
0.001
0.001
0.001
0.001
0.001
0.001
0.001
0.001
0.001
0.001
0.001
0.001
0.001
0.001
0.001
0.001
0.001
0.001
0.001
0.001
0.001
0.001
0.001
0.001
0.001
0.001
0.001
0.001
0.001
0.001
0.001
0.001
0.001
0.001
0.001
0.001
0.001
0.001
0.001
0.001
0.001
0.001
0.001
0.001
0.001
0.001
0.001
0.001
0.001
0.001
0.001
0.001
0.001
0.001
0.001
0.001
0.001
0.001
0.001
0.001
0.001
0.001
0.001
0.001
0.001
0.001
0.001
0.001
0.001
0.001
0.001
0.001
0.001
0.001
0.001
0.001
0.001
0.001
0.001
0.001
0.001
0.001
0.001
0.001
0.001
0.001
0.001
0.001
0.001
0.001
0.001
0.001
0.001
0.001
0.001
0.001
0.001
0.001
0.001
0.001
0.001
0.001
0.001
0.001
0.001
0.001
0.001
0.001
0.001
0.001
0.001
0.001
0.001
0.001
0.001
0.001
0.001
0.001
0.001
0.001
0.001
0.001
0.001
0.001
0.001
0.001
0.001
0.001
0.001
0.001
0.001
0.001
0.001
0.001
0.001
0.001
0.001
0.001
0.001
0.001
0.001
0.001
0.001
0.001
0.001
0.001
0.001
0.001
0.001
0.001
0.001
0.001
0.001
0.001
0.001
0.001
0.001
0.001
0.001
0.001
0.001
0.001
0.001
0.001
0.001
0.001
0.001
0.001
0.001
0.001
0.001
0.001
0.001
0.001
0.001
0.001
0.001
0.001
0.001
0.001
0.001
0.001
0.001
0.001
0.001
0.001
0.001
0.001
0.001
0.001
0.001
0.001
0.001
0.001
0.001
0.001
0.001
0.001
0.001
0.001
0.001
0.001
0.001
0.001
0.001
0.001
0.001
0.001
0.001
0.001
0.001
0.001
0.001
0.001
0.001
0.001
0.001
0.001
0.001
0.001
0.001
0.001
0.001
0.001
0.001
0.001
0.001
0.001
0.001
0.001
0.001
0.001
0.001
0.001
0.001
0.001
0.001
0.001
0.001
0.001
0.001
0.001
0.001
0.001
0.001
0.001
0.001
0.001
0.001
0.001
0.001
0.001
0.001
0.001
0.001
0.001
0.001
0.001
0.001
0.001
0.001
0.001
0.001
0.001
0.001
0.001
0.001
0.001
0.001
0.001
0.001
0.001
0.001
0.001
0.001
0.001
0.001
0.001
0.001
0.001
0.001
0.001
0.001
0.001
0.001
0.001
0.001
0.001
0.001
0.001
0.001
0.001
0.001
0.001
0.001
0.001
0.001
0.001
0.001
0.001
0.001
0.001
0.001
0.001
0.001
0.001
0.001
0.001
0.001
0.001
0.001
0.001
0.001
0.001
0.001
0.001
0.001
0.001
0.001
0.001
0.001
0.001
0.001
0.001
0.001
0.001
0.001
0.001
0.001
0.001
0.001
0.001
0.001
0.001
0.001
0.001
0.001
0.001
0.001
0.001
0.001
0.001
0.001
0.001
0.001
0.001
0.001
0.001
0.001
0.001
0.001
0.001
0.001
0.001
0.001
0.001
0.001
0.001
0.001
0.001
0.001
0.001
0.001
0.001
0.001
0.001
0.001
0.001
0.001
0.001
0.001
0.001
0.001
0.001
0.001
0.001
0.001
0.001
0.001
0.001
0.001
0.001
0.001
0.001
0.001
0.001
0.001
0.001
0.001
0.001
0.001
0.001
0.001
0.001
0.001
0.001
0.001
0.001
0.001
0.001
0.001
0.001
0.001
0.001
0.001
0.001
0.001
0.001
0.001
0.001
0.001
0.001
0.001
0.001
0.001
0.001
0.001
0.001
0.001
0.001
0.001
0.001
0.001
0.001
0.001
0.001
0.001
0.001
0.001
0.001
0.001
0.001
0.001
0.001
0.001
0.001
0.001
0.001
0.001
0.001
0.001
0.001
0.001
0.001
0.001
0.001
0.001
0.001
0.001
0.001
0.001
0.001
0.001
0.001
0.001
0.001
0.001
0.001
0.001
0.001
0.001
0.001
0.001
0.001
0.001
0.001
0.001
0.001
0.001
0.001
0.001
0.001
0.001
0.001
0.001
0.001
0.001
0.001
0.001
0.001
0.001
0.001
0.001
0.001
0.001
0.001
0.001
0.001
0.001
0.001
0.001
0.001
0.001
0.001
0.001
0.001
0.001
0.001
0.001
0.001
0.001
0.001
0.001
0.001
0.001
0.001
0.001
0.001
0.001
0.001
0.001
0.001
0.001
0.001
0.001
0.001
0.001
0.001
0.001
0.001
0.001
0.001
0.001
0.001
0.001
0.001
0.001
0.001
0.001
0.001
0.001
0.001
0.001
0.001
0.001
0.001
0.000993527
0.001
0.001
0.001
0.001
0.001
0.001
0.001
0.001
0.001
0.001
0.001
0.001
0.001
0.001
0.001
0.001
0.001
0.001
0.001
0.001
0.001
0.001
0.001
0.001
0.001
0.001
0.001
0.001
0.001
0.001
0.001
0.001
0.001
0.001
0.001
0.001
0.001
0.001
0.001
0.001
0.001
0.001
0.001
0.000999467
0.000996675
0.000992878
0.000981721
0.000990439
0.000995217
0.000998425
0.001
0.001
0.001
0.001
0.001
0.001
0.001
0.001
0.001
0.001
0.001
0.001
0.001
0.001
0.001
0.001
0.001
0.001
0.001
0.001
0.001
0.001
0.001
0.001
0.001
0.001
0.001
0.001
0.001
0.001
0.001
0.001
0.001
0.001
0.001
0.001
0.001
0.000998891
0.000996065
0.00099299
0.00098949
0.000985113
0.0009794
0.000967317
0.000973377
0.000982137
0.0009877
0.000991662
0.000994783
0.000997585
0.001
0.001
0.001
0.001
0.001
0.001
0.001
0.001
0.001
0.001
0.001
0.001
0.001
0.001
0.001
0.001
0.001
0.001
0.001
0.001
0.001
0.001
0.001
0.001
0.001
0.001
0.001
0.001
0.001
0.001
0.001
0.000998718
0.000995822
0.000992591
0.000988909
0.000984776
0.000980368
0.00097555
0.000970141
0.000963506
0.000951544
0.000952091
0.000964859
0.000972781
0.000978378
0.000982964
0.000987034
0.000990787
0.000993943
0.000996759
0.000999276
0.001
0.001
0.001
0.001
0.001
0.001
0.001
0.001
0.001
0.001
0.001
0.001
0.001
0.001
0.001
0.001
0.001
0.001
0.001
0.001
0.001
0.001
0.001
0.001
0.000998312
0.000995569
0.000992445
0.000988762
0.000984548
0.00098001
0.000975264
0.000970426
0.000965344
0.000959863
0.000953803
0.000946752
0.000935075
0.000929245
0.000945421
0.000955693
0.000962755
0.000968291
0.000973088
0.000977565
0.000981928
0.000985946
0.000989631
0.000992727
0.00099533
0.00099762
0.000999579
0.001
0.001
0.001
0.001
0.001
0.001
0.001
0.001
0.001
0.001
0.001
0.001
0.001
0.001
0.001
0.001
0.000998985
0.000996898
0.000994487
0.000991688
0.000988242
0.000984275
0.00097989
0.000975202
0.00097033
0.000965236
0.000960029
0.000954773
0.000949287
0.000943406
0.000936951
0.000929715
0.000918288
0.00090679
0.000924995
0.000937366
0.000945883
0.000952294
0.000957658
0.00096258
0.000967398
0.000971953
0.000976232
0.000980288
0.000983972
0.000987257
0.000990129
0.000992387
0.000994185
0.000995683
0.000996925
0.000997919
0.000998661
0.000999146
0.000999371
0.000999335
0.000999037
0.000998479
0.000997665
0.000996598
0.00099528
0.000993696
0.000991767
0.000989285
0.000986253
0.0009828
0.000978889
0.000974648
0.000970091
0.000965192
0.000960087
0.000954876
0.00094952
0.000944078
0.000938551
0.000932786
0.000926632
0.000919938
0.000912609
0.00090139
0.000865297
0.000885075
0.000904148