/*--------------------------------*- C++ -*----------------------------------*\
  =========                 |
  \\      /  F ield         | OpenFOAM: The Open Source CFD Toolbox
   \\    /   O peration     | Website:  https://openfoam.org
    \\  /    A nd           | Version:  7
     \\/     M anipulation  |
\*---------------------------------------------------------------------------*/
FoamFile
{
    version     2.0;
    format      ascii;
    class       volScalarField;
    location    "20000";
    object      strainRate;
}
// * * * * * * * * * * * * * * * * * * * * * * * * * * * * * * * * * * * * * //

dimensions      [0 0 -1 0 0 0 0];

internalField   nonuniform List<scalar> 
4850
(
5.0787e-05
4.93374e-05
5.24258e-05
5.09096e-05
5.04399e-05
5.41539e-05
5.2578e-05
5.19762e-05
5.1561e-05
5.12207e-05
5.58336e-05
5.43011e-05
5.36217e-05
5.30922e-05
5.26741e-05
5.24048e-05
5.74109e-05
5.59368e-05
5.52935e-05
5.47186e-05
5.4221e-05
5.38107e-05
5.35663e-05
5.88821e-05
5.74777e-05
5.68683e-05
5.63171e-05
5.58204e-05
5.53181e-05
5.49256e-05
5.46593e-05
5.43993e-05
6.02423e-05
5.89147e-05
5.83447e-05
5.78225e-05
5.73382e-05
5.68633e-05
5.63885e-05
5.60045e-05
5.56771e-05
5.54478e-05
6.14871e-05
6.02413e-05
5.97156e-05
5.92279e-05
5.87672e-05
5.83163e-05
5.78717e-05
5.74407e-05
5.70462e-05
5.6692e-05
5.64351e-05
5.61141e-05
5.57603e-05
5.54351e-05
6.26127e-05
6.14525e-05
6.09753e-05
6.05269e-05
6.00972e-05
5.96749e-05
5.92568e-05
5.88477e-05
5.84589e-05
5.8036e-05
5.76865e-05
5.73635e-05
5.70153e-05
5.66692e-05
5.64028e-05
5.61065e-05
5.58153e-05
5.5587e-05
6.36158e-05
6.25443e-05
6.21191e-05
6.17141e-05
6.13205e-05
6.0931e-05
6.05429e-05
6.01592e-05
5.9784e-05
5.93968e-05
5.90124e-05
5.86819e-05
5.83456e-05
5.79847e-05
5.76511e-05
5.73597e-05
5.70733e-05
5.6819e-05
5.66776e-05
5.65667e-05
6.44937e-05
6.35141e-05
6.31438e-05
6.2785e-05
6.24311e-05
6.20777e-05
6.17228e-05
6.13683e-05
6.10161e-05
6.06577e-05
6.03037e-05
5.99799e-05
5.96574e-05
5.93239e-05
5.89701e-05
5.86783e-05
5.84021e-05
5.81266e-05
5.78972e-05
5.77424e-05
5.76897e-05
5.76181e-05
5.75709e-05
5.75972e-05
6.52434e-05
6.43598e-05
6.40469e-05
6.37365e-05
6.34247e-05
6.31098e-05
6.27907e-05
6.24685e-05
6.2145e-05
6.18174e-05
6.14931e-05
6.11861e-05
6.08822e-05
6.05719e-05
6.02552e-05
5.99742e-05
5.971e-05
5.94541e-05
5.91925e-05
5.89959e-05
5.88531e-05
5.87708e-05
5.87152e-05
5.87054e-05
5.88096e-05
5.89011e-05
5.90205e-05
5.91856e-05
5.94377e-05
6.58617e-05
6.50804e-05
6.48266e-05
6.45658e-05
6.42976e-05
6.40231e-05
6.37419e-05
6.34546e-05
6.31635e-05
6.28684e-05
6.25747e-05
6.22908e-05
6.20096e-05
6.17251e-05
6.14398e-05
6.11767e-05
6.09285e-05
6.06888e-05
6.04552e-05
6.02662e-05
6.00841e-05
5.99878e-05
5.99266e-05
5.98827e-05
5.98887e-05
5.99593e-05
6.00653e-05
6.02115e-05
6.04158e-05
6.07418e-05
6.10654e-05
6.14638e-05
6.63447e-05
6.56757e-05
6.54818e-05
6.52713e-05
6.50472e-05
6.48143e-05
6.45727e-05
6.43221e-05
6.4066e-05
6.38053e-05
6.35435e-05
6.32867e-05
6.30316e-05
6.27746e-05
6.25188e-05
6.22775e-05
6.20487e-05
6.18285e-05
6.16183e-05
6.14391e-05
6.12801e-05
6.11801e-05
6.1115e-05
6.10729e-05
6.10313e-05
6.10795e-05
6.11698e-05
6.12975e-05
6.1453e-05
6.16618e-05
6.19443e-05
6.22908e-05
6.2772e-05
6.32869e-05
6.66869e-05
6.61471e-05
6.60119e-05
6.58514e-05
6.56712e-05
6.54808e-05
6.52802e-05
6.50676e-05
6.48483e-05
6.46236e-05
6.43951e-05
6.41682e-05
6.39419e-05
6.37137e-05
6.34869e-05
6.32702e-05
6.30633e-05
6.28644e-05
6.26765e-05
6.25123e-05
6.23715e-05
6.22744e-05
6.22091e-05
6.2166e-05
6.21384e-05
6.21728e-05
6.22481e-05
6.23573e-05
6.24953e-05
6.2637e-05
6.28783e-05
6.31667e-05
6.35274e-05
6.40275e-05
6.7024e-05
6.65041e-05
6.64167e-05
6.63053e-05
6.61678e-05
6.60203e-05
6.58622e-05
6.56883e-05
6.55072e-05
6.53202e-05
6.51259e-05
6.4931e-05
6.47357e-05
6.45375e-05
6.434e-05
6.41494e-05
6.39666e-05
6.37904e-05
6.36243e-05
6.34775e-05
6.33533e-05
6.3263e-05
6.32007e-05
6.31598e-05
6.31395e-05
6.31651e-05
6.32272e-05
6.33195e-05
6.34369e-05
6.35732e-05
6.37798e-05
6.40355e-05
6.43133e-05
6.47283e-05
6.75863e-05
6.68643e-05
6.6737e-05
6.66335e-05
6.65351e-05
6.64309e-05
6.63172e-05
6.61819e-05
6.604e-05
6.58925e-05
6.57332e-05
6.55718e-05
6.54095e-05
6.52422e-05
6.50742e-05
6.49112e-05
6.47541e-05
6.46014e-05
6.44574e-05
6.43292e-05
6.42211e-05
6.41401e-05
6.40831e-05
6.40461e-05
6.40301e-05
6.40495e-05
6.41001e-05
6.41771e-05
6.42768e-05
6.44e-05
6.45756e-05
6.47934e-05
6.50406e-05
6.53523e-05
6.84076e-05
6.74603e-05
6.71745e-05
6.69865e-05
6.68628e-05
6.67498e-05
6.66451e-05
6.65465e-05
6.64447e-05
6.6339e-05
6.62147e-05
6.60879e-05
6.59605e-05
6.58248e-05
6.56868e-05
6.55524e-05
6.54223e-05
6.52939e-05
6.5172e-05
6.50631e-05
6.49713e-05
6.49011e-05
6.48511e-05
6.48189e-05
6.48059e-05
6.48206e-05
6.48612e-05
6.49241e-05
6.50073e-05
6.51136e-05
6.52601e-05
6.54418e-05
6.56482e-05
6.5879e-05
6.94084e-05
6.83795e-05
6.794e-05
6.76221e-05
6.73797e-05
6.71711e-05
6.69957e-05
6.6873e-05
6.67608e-05
6.66595e-05
6.65684e-05
6.64771e-05
6.63868e-05
6.6283e-05
6.61752e-05
6.60703e-05
6.59687e-05
6.58648e-05
6.57652e-05
6.56759e-05
6.56007e-05
6.55425e-05
6.55007e-05
6.54739e-05
6.54634e-05
6.54744e-05
6.55059e-05
6.55558e-05
6.56228e-05
6.57103e-05
6.58288e-05
6.59757e-05
6.61385e-05
6.63176e-05
7.05464e-05
6.95102e-05
6.89869e-05
6.85677e-05
6.82103e-05
6.78986e-05
6.76217e-05
6.73894e-05
6.71835e-05
6.70079e-05
6.6892e-05
6.67888e-05
6.66962e-05
6.66153e-05
6.65375e-05
6.64628e-05
6.63915e-05
6.63119e-05
6.62345e-05
6.61653e-05
6.6107e-05
6.60616e-05
6.60288e-05
6.60078e-05
6.59997e-05
6.60075e-05
6.60309e-05
6.60684e-05
6.61194e-05
6.6187e-05
6.62782e-05
6.63915e-05
6.65083e-05
6.66518e-05
7.17849e-05
7.07477e-05
7.01768e-05
6.9692e-05
6.92684e-05
6.88921e-05
6.85435e-05
6.82118e-05
6.79096e-05
6.7638e-05
6.74159e-05
6.72233e-05
6.70554e-05
6.69412e-05
6.68497e-05
6.6767e-05
6.66945e-05
6.66336e-05
6.65782e-05
6.65293e-05
6.64882e-05
6.64562e-05
6.6433e-05
6.64183e-05
6.64126e-05
6.64177e-05
6.64334e-05
6.6459e-05
6.64942e-05
6.65412e-05
6.66053e-05
6.66899e-05
6.68149e-05
6.70131e-05
7.30984e-05
7.20543e-05
7.14517e-05
7.0921e-05
7.04505e-05
7.00268e-05
6.96312e-05
6.92502e-05
6.88937e-05
6.85594e-05
6.8243e-05
6.79599e-05
6.77067e-05
6.74996e-05
6.73255e-05
6.71722e-05
6.70414e-05
6.69578e-05
6.68932e-05
6.68383e-05
6.67929e-05
6.67573e-05
6.67314e-05
6.6715e-05
6.67086e-05
6.67135e-05
6.67295e-05
6.67562e-05
6.67942e-05
6.68463e-05
6.69196e-05
6.70323e-05
6.72634e-05
6.76281e-05
7.44722e-05
7.34166e-05
7.27876e-05
7.22216e-05
7.17129e-05
7.12504e-05
7.08186e-05
7.04052e-05
7.00126e-05
6.96386e-05
6.92776e-05
6.89449e-05
6.86399e-05
6.83555e-05
6.81016e-05
6.78763e-05
6.76798e-05
6.75264e-05
6.74027e-05
6.72993e-05
6.7214e-05
6.71469e-05
6.70978e-05
6.70668e-05
6.70547e-05
6.70627e-05
6.70913e-05
6.71403e-05
6.72117e-05
6.73116e-05
6.74543e-05
6.76704e-05
6.80176e-05
6.85047e-05
6.9072e-05
7.58993e-05
7.48298e-05
7.41755e-05
7.35791e-05
7.30369e-05
7.25402e-05
7.20769e-05
7.16363e-05
7.12157e-05
7.0813e-05
7.0425e-05
7.00607e-05
6.97211e-05
6.9399e-05
6.91042e-05
6.88395e-05
6.86035e-05
6.8391e-05
6.82099e-05
6.80577e-05
6.79323e-05
6.78334e-05
6.7761e-05
6.77153e-05
6.76973e-05
6.77086e-05
6.77497e-05
6.78219e-05
6.79286e-05
6.808e-05
6.82956e-05
6.86056e-05
6.90221e-05
6.95575e-05
6.98998e-05
7.73765e-05
7.62922e-05
7.56123e-05
7.49876e-05
7.44146e-05
7.38863e-05
7.33935e-05
7.2927e-05
7.24817e-05
7.20552e-05
7.1646e-05
7.12582e-05
7.08936e-05
7.05486e-05
7.02292e-05
6.99391e-05
6.96772e-05
6.94368e-05
6.92271e-05
6.90495e-05
6.89029e-05
6.87873e-05
6.87026e-05
6.86492e-05
6.86283e-05
6.86411e-05
6.86891e-05
6.87747e-05
6.89036e-05
6.90888e-05
6.93521e-05
6.97187e-05
7.01917e-05
7.07379e-05
7.08074e-05
7.8903e-05
7.78035e-05
7.70975e-05
7.64451e-05
7.58426e-05
7.52844e-05
7.4763e-05
7.42707e-05
7.38019e-05
7.33536e-05
7.29248e-05
7.25171e-05
7.21323e-05
7.17697e-05
7.14324e-05
7.11237e-05
7.08431e-05
7.0587e-05
7.03611e-05
7.01683e-05
7.0009e-05
6.98832e-05
6.97911e-05
6.97333e-05
6.97107e-05
6.97251e-05
6.97785e-05
6.98751e-05
7.00235e-05
7.024e-05
7.055e-05
7.09798e-05
7.15307e-05
7.20804e-05
8.04792e-05
7.93636e-05
7.86312e-05
7.79513e-05
7.732e-05
7.67327e-05
7.61833e-05
7.56651e-05
7.51728e-05
7.47032e-05
7.42551e-05
7.38289e-05
7.34262e-05
7.30477e-05
7.26953e-05
7.23712e-05
7.2076e-05
7.18084e-05
7.15714e-05
7.13682e-05
7.12e-05
7.1067e-05
7.09698e-05
7.0909e-05
7.08859e-05
7.09024e-05
7.09619e-05
7.10706e-05
7.12408e-05
7.14941e-05
7.18637e-05
7.23866e-05
7.30685e-05
7.36036e-05
8.21055e-05
8.09734e-05
8.02142e-05
7.95065e-05
7.88467e-05
7.82307e-05
7.76535e-05
7.71094e-05
7.65934e-05
7.61022e-05
7.56346e-05
7.51904e-05
7.47707e-05
7.43769e-05
7.40102e-05
7.36724e-05
7.33645e-05
7.30867e-05
7.28408e-05
7.26293e-05
7.24539e-05
7.23152e-05
7.2214e-05
7.21511e-05
7.21282e-05
7.21479e-05
7.2215e-05
7.23385e-05
7.25347e-05
7.28322e-05
7.32751e-05
7.3918e-05
7.47679e-05
7.50143e-05
8.37829e-05
8.26334e-05
8.18472e-05
8.11115e-05
8.04232e-05
7.97787e-05
7.91737e-05
7.86035e-05
7.80634e-05
7.75504e-05
7.70629e-05
7.66006e-05
7.61642e-05
7.5755e-05
7.53743e-05
7.50234e-05
7.47038e-05
7.44162e-05
7.41619e-05
7.39431e-05
7.37613e-05
7.36176e-05
7.3513e-05
7.34488e-05
7.34269e-05
7.3451e-05
7.35275e-05
7.3668e-05
7.38933e-05
7.42375e-05
7.47522e-05
7.55013e-05
7.64336e-05
7.61698e-05
8.55123e-05
8.43448e-05
8.35312e-05
8.27671e-05
8.20501e-05
8.13771e-05
8.07444e-05
8.01478e-05
7.95833e-05
7.90481e-05
7.85402e-05
7.80594e-05
7.76061e-05
7.71814e-05
7.67867e-05
7.64231e-05
7.60919e-05
7.57945e-05
7.5532e-05
7.53061e-05
7.51184e-05
7.49701e-05
7.48626e-05
7.47975e-05
7.47774e-05
7.48069e-05
7.4894e-05
7.50527e-05
7.53061e-05
7.5689e-05
7.62471e-05
7.70162e-05
7.77197e-05
8.72947e-05
8.61083e-05
8.5267e-05
8.44742e-05
8.37283e-05
8.30267e-05
8.23661e-05
8.17429e-05
8.11537e-05
8.05957e-05
8.00671e-05
7.95674e-05
7.90968e-05
7.86565e-05
7.82475e-05
7.7871e-05
7.75285e-05
7.72212e-05
7.69503e-05
7.67174e-05
7.65239e-05
7.63713e-05
7.62612e-05
7.61956e-05
7.61779e-05
7.62134e-05
7.63116e-05
7.64872e-05
7.67626e-05
7.71651e-05
7.77129e-05
7.83478e-05
7.86155e-05
8.91313e-05
8.79253e-05
8.70558e-05
8.62339e-05
8.54588e-05
8.47283e-05
8.40395e-05
8.33895e-05
8.27752e-05
8.2194e-05
8.16442e-05
8.11251e-05
8.0637e-05
8.01807e-05
7.97572e-05
7.93677e-05
7.90137e-05
7.86963e-05
7.84169e-05
7.81768e-05
7.79776e-05
7.78209e-05
7.77084e-05
7.76427e-05
7.76277e-05
7.76695e-05
7.77779e-05
7.79669e-05
7.8254e-05
7.86503e-05
7.91292e-05
7.95238e-05
9.1023e-05
8.97966e-05
8.88985e-05
8.80473e-05
8.72426e-05
8.64828e-05
8.57657e-05
8.50885e-05
8.44487e-05
8.38439e-05
8.32724e-05
8.27335e-05
8.22274e-05
8.17547e-05
8.13165e-05
8.09138e-05
8.0548e-05
8.02204e-05
7.99322e-05
7.9685e-05
7.948e-05
7.93192e-05
7.92046e-05
7.91389e-05
7.91267e-05
7.91742e-05
7.9291e-05
7.94883e-05
7.97751e-05
8.01413e-05
8.05149e-05
8.06679e-05
9.29711e-05
9.17236e-05
9.07965e-05
8.99154e-05
8.90806e-05
8.82913e-05
8.75454e-05
8.68408e-05
8.61751e-05
8.55462e-05
8.49525e-05
8.43935e-05
8.38689e-05
8.33795e-05
8.29261e-05
8.25099e-05
8.21322e-05
8.17941e-05
8.14971e-05
8.12424e-05
8.10317e-05
8.08669e-05
8.07501e-05
8.06845e-05
8.06748e-05
8.07271e-05
8.08495e-05
8.10492e-05
8.13248e-05
8.16458e-05
8.19108e-05
8.18954e-05
9.49769e-05
9.37074e-05
9.27508e-05
9.18393e-05
9.09741e-05
9.01548e-05
8.93798e-05
8.86473e-05
8.79553e-05
8.73019e-05
8.66856e-05
8.61059e-05
8.55625e-05
8.50559e-05
8.45871e-05
8.41571e-05
8.37671e-05
8.34183e-05
8.31122e-05
8.285e-05
8.26335e-05
8.24645e-05
8.23455e-05
8.22799e-05
8.2272e-05
8.23276e-05
8.24526e-05
8.2649e-05
8.29055e-05
8.31766e-05
8.33539e-05
8.32723e-05
9.70414e-05
9.57492e-05
9.47626e-05
9.38203e-05
9.29242e-05
9.20744e-05
9.12699e-05
9.05091e-05
8.97904e-05
8.9112e-05
8.84727e-05
8.78717e-05
8.7309e-05
8.6785e-05
8.63003e-05
8.58562e-05
8.54536e-05
8.5094e-05
8.47785e-05
8.45087e-05
8.42861e-05
8.41129e-05
8.39916e-05
8.39254e-05
8.39185e-05
8.39756e-05
8.40998e-05
8.4288e-05
8.45206e-05
8.47451e-05
8.48647e-05
8.4786e-05
9.91661e-05
9.78504e-05
9.68332e-05
9.58596e-05
9.4932e-05
9.40513e-05
9.32168e-05
9.24273e-05
9.16814e-05
9.09776e-05
9.03147e-05
8.96921e-05
8.91096e-05
8.85676e-05
8.80668e-05
8.76081e-05
8.71928e-05
8.68219e-05
8.64969e-05
8.62192e-05
8.59905e-05
8.58129e-05
8.56889e-05
8.56216e-05
8.56146e-05
8.56711e-05
8.57912e-05
8.5967e-05
8.61735e-05
8.63582e-05
8.64457e-05
8.64017e-05
0.000101352
0.000100012
9.8964e-05
9.79584e-05
9.69989e-05
9.60867e-05
9.52217e-05
9.4403e-05
9.36294e-05
9.28997e-05
9.22128e-05
9.1568e-05
9.09653e-05
9.0405e-05
8.98876e-05
8.94141e-05
8.89856e-05
8.86032e-05
8.82685e-05
8.79827e-05
8.77476e-05
8.75653e-05
8.74381e-05
8.7369e-05
8.73606e-05
8.74143e-05
8.75273e-05
8.76876e-05
8.78673e-05
8.80192e-05
8.8092e-05
8.8091e-05
0.000103602
0.000102237
0.000101156
0.000100118
9.91261e-05
9.81818e-05
9.72858e-05
9.64374e-05
9.56356e-05
9.48795e-05
9.41681e-05
9.35007e-05
9.28773e-05
9.22981e-05
9.17637e-05
9.1275e-05
9.0833e-05
9.0439e-05
9.00941e-05
8.98e-05
8.95583e-05
8.93709e-05
8.92402e-05
8.91684e-05
8.91572e-05
8.92062e-05
8.93098e-05
8.94529e-05
8.96072e-05
8.97341e-05
8.98053e-05
8.98526e-05
0.000105916
0.000104525
0.000103412
0.00010234
0.000101315
0.000100338
9.94105e-05
9.85318e-05
9.77014e-05
9.69183e-05
9.61818e-05
9.54913e-05
9.48467e-05
9.42482e-05
9.36964e-05
9.31921e-05
9.27363e-05
9.23302e-05
9.1975e-05
9.16723e-05
9.14236e-05
9.12308e-05
9.10959e-05
9.10206e-05
9.10056e-05
9.10485e-05
9.11416e-05
9.12684e-05
9.14032e-05
9.15187e-05
9.16086e-05
9.17276e-05
0.000108297
0.000106878
0.000105732
0.000104627
0.000103567
0.000102557
0.000101597
0.000100688
9.98279e-05
9.90173e-05
9.82552e-05
9.75411e-05
9.68749e-05
9.62566e-05
9.5687e-05
9.51667e-05
9.46967e-05
9.42781e-05
9.39123e-05
9.36006e-05
9.33447e-05
9.31461e-05
9.30065e-05
9.2927e-05
9.29073e-05
9.29436e-05
9.30273e-05
9.3143e-05
9.32718e-05
9.34029e-05
9.35542e-05
9.38036e-05
0.000110745
0.000109299
0.000108119
0.000106979
0.000105885
0.00010484
0.000103848
0.000102906
0.000102017
0.000101178
0.00010039
9.96515e-05
9.89631e-05
9.83247e-05
9.77367e-05
9.72e-05
9.67154e-05
9.62841e-05
9.59073e-05
9.55863e-05
9.53227e-05
9.51179e-05
9.49732e-05
9.48891e-05
9.48644e-05
9.48951e-05
9.49731e-05
9.5088e-05
9.52346e-05
9.54282e-05
9.5718e-05
9.6191e-05
0.000113264
0.000111789
0.000110574
0.000109398
0.000108269
0.00010719
0.000106163
0.00010519
0.00010427
0.000103402
0.000102587
0.000101824
0.000101113
0.000100454
9.9847e-05
9.92935e-05
9.8794e-05
9.83495e-05
9.79614e-05
9.76308e-05
9.73592e-05
9.71478e-05
9.69976e-05
9.69087e-05
9.68797e-05
9.6907e-05
9.69858e-05
9.71152e-05
9.73124e-05
9.76338e-05
9.81742e-05
9.89456e-05
0.000115853
0.000114349
0.000113099
0.000111887
0.000110721
0.000109607
0.000108546
0.000107539
0.000106588
0.000105691
0.000104849
0.00010406
0.000103326
0.000102645
0.000102019
0.000101449
0.000100934
0.000100476
0.000100076
9.97355e-05
9.94555e-05
9.92373e-05
9.90814e-05
9.8988e-05
9.89558e-05
9.89832e-05
9.9071e-05
9.92326e-05
9.95157e-05
0.000100033
0.000100947
0.000101921
0.000118514
0.000116981
0.000115695
0.000114446
0.000113244
0.000112093
0.000110997
0.000109957
0.000108973
0.000108047
0.000107176
0.000106362
0.000105603
0.000104901
0.000104255
0.000103667
0.000103136
0.000102664
0.000102253
0.000101902
0.000101613
0.000101388
0.000101226
0.000101129
0.000101096
0.000101127
0.000101232
0.000101442
0.000101836
0.000102589
0.000103944
0.000104591
0.000121246
0.000119684
0.000118362
0.000117077
0.000115837
0.000114649
0.000113517
0.000112443
0.000111427
0.00011047
0.000109571
0.000108729
0.000107947
0.000107222
0.000106556
0.000105949
0.000105403
0.000104917
0.000104493
0.000104131
0.000103834
0.000103601
0.000103435
0.000103334
0.000103301
0.000103341
0.00010347
0.000103735
0.000104242
0.000105205
0.000106875
0.000106737
0.000124052
0.00012246
0.000121102
0.000119779
0.000118501
0.000117277
0.000116109
0.000115
0.00011395
0.000112962
0.000112033
0.000111165
0.000110357
0.000109609
0.000108923
0.000108297
0.000107734
0.000107233
0.000106797
0.000106425
0.000106118
0.000105879
0.000105707
0.000105604
0.000105574
0.000105625
0.000105781
0.000106099
0.000106691
0.000107744
0.000109223
0.000126933
0.000125309
0.000123914
0.000122553
0.000121238
0.000119975
0.00011877
0.000117626
0.000116544
0.000115523
0.000114565
0.000113669
0.000112835
0.000112064
0.000111356
0.000110711
0.000110131
0.000109616
0.000109166
0.000108783
0.000108468
0.000108221
0.000108045
0.000107941
0.000107914
0.000107978
0.00010816
0.000108518
0.000109139
0.000110092
0.000110944
0.000129894
0.000128235
0.000126802
0.000125401
0.000124047
0.000122746
0.000121504
0.000120324
0.000119207
0.000118154
0.000117166
0.000116242
0.000115382
0.000114587
0.000113857
0.000113192
0.000112594
0.000112064
0.000111601
0.000111207
0.000110883
0.00011063
0.000110449
0.000110344
0.000110322
0.000110398
0.000110601
0.000110976
0.000111565
0.000112264
0.000132941
0.000131243
0.000129768
0.000128327
0.000126932
0.000125591
0.000124311
0.000123094
0.000121942
0.000120857
0.000119838
0.000118885
0.000117999
0.000117179
0.000116427
0.000115742
0.000115126
0.000114579
0.000114103
0.000113698
0.000113365
0.000113104
0.00011292
0.000112814
0.000112797
0.000112883
0.000113098
0.000113468
0.000113974
0.000114367
0.000136085
0.000134344
0.000132822
0.000131336
0.000129897
0.000128515
0.000127195
0.00012594
0.000124753
0.000123633
0.000122583
0.000121601
0.000120688
0.000119843
0.000119068
0.000118363
0.000117728
0.000117165
0.000116674
0.000116257
0.000115914
0.000115647
0.000115459
0.000115353
0.000115339
0.000115432
0.000115649
0.000115994
0.000116392
0.000116523
0.000139337
0.000137547
0.000135974
0.000134438
0.000132953
0.000131526
0.000130163
0.000128868
0.000127643
0.000126488
0.000125405
0.000124393
0.000123453
0.000122583
0.000121785
0.000121059
0.000120405
0.000119825
0.00011932
0.00011889
0.000118536
0.000118262
0.000118068
0.000117962
0.00011795
0.000118045
0.000118256
0.000118563
0.000118852
0.00011882
0.000142703
0.000140863
0.000139235
0.000137646
0.000136109
0.000134634
0.000133226
0.000131888
0.000130623
0.000129431
0.000128313
0.000127269
0.000126301
0.000125406
0.000124585
0.000123838
0.000123165
0.000122567
0.000122045
0.000121601
0.000121236
0.000120953
0.000120754
0.000120646
0.000120634
0.000120728
0.000120925
0.000121187
0.000121387
0.000121283
0.000146183
0.000144296
0.000142612
0.000140968
0.000139377
0.000137851
0.000136394
0.000135011
0.000133702
0.00013247
0.000131316
0.000130239
0.00012924
0.000128319
0.000127476
0.000126707
0.000126014
0.000125398
0.000124859
0.0001244
0.000124021
0.000123728
0.000123523
0.000123411
0.000123398
0.000123487
0.000123666
0.000123885
0.00012402
0.00012391
0.000149756
0.000147836
0.000146104
0.000144406
0.000142762
0.000141183
0.000139676
0.000138245
0.000136891
0.000135617
0.000134423
0.00013331
0.000132279
0.000131331
0.000130463
0.000129673
0.00012896
0.000128325
0.000127769
0.000127293
0.0001269
0.000126596
0.000126384
0.000126268
0.000126251
0.000126331
0.000126491
0.000126672
0.000126767
0.000126689
0.000153388
0.000151456
0.000149689
0.000147947
0.000146255
0.000144627
0.000143071
0.000141592
0.000140192
0.000138875
0.00013764
0.000136489
0.000135423
0.000134444
0.000133551
0.000132738
0.000132004
0.00013135
0.000130777
0.000130286
0.000129878
0.000129563
0.000129343
0.000129222
0.000129199
0.00012927
0.00012941
0.000129561
0.000129638
0.000129609
0.000157026
0.00015511
0.000153331
0.00015156
0.000149831
0.000148161
0.000146561
0.000145038
0.000143596
0.000142236
0.000140961
0.00013977
0.000138667
0.000137653
0.000136732
0.000135893
0.000135137
0.000134465
0.000133877
0.000133373
0.000132953
0.000132628
0.000132401
0.000132274
0.000132245
0.000132305
0.000132427
0.000132556
0.000132631
0.000132656
0.000160625
0.000158743
0.000156974
0.000155195
0.000153444
0.000151744
0.000150111
0.000148552
0.000147073
0.000145676
0.000144364
0.000143136
0.000141995
0.000140943
0.000139987
0.00013912
0.000138341
0.00013765
0.000137049
0.000136537
0.00013611
0.00013578
0.000135548
0.000135416
0.00013538
0.000135429
0.000135535
0.000135651
0.000135733
0.000135809
0.000164175
0.000162319
0.000160572
0.000158799
0.000157041
0.000155325
0.000153669
0.000152085
0.000150578
0.000149153
0.00014781
0.000146551
0.000145375
0.000144284
0.000143289
0.000142389
0.000141586
0.000140877
0.000140266
0.00013975
0.000139325
0.000138995
0.000138761
0.000138623
0.00013858
0.000138619
0.000138712
0.00013882
0.000138917
0.000139039
0.000167743
0.000165858
0.000164116
0.000162345
0.000160582
0.000158857
0.000157188
0.000155588
0.000154063
0.000152618
0.000151254
0.000149971
0.000148769
0.000147644
0.000146607
0.000145675
0.000144847
0.000144121
0.000143498
0.000142982
0.000142567
0.000142241
0.000142005
0.000141864
0.000141814
0.000141843
0.000141927
0.000142032
0.000142146
0.000142308
0.000171513
0.000169483
0.000167678
0.000165872
0.000164085
0.000162341
0.000160655
0.00015904
0.0001575
0.00015604
0.000154662
0.000153366
0.000152149
0.000151005
0.000149933
0.000148974
0.000148124
0.00014738
0.000146743
0.000146221
0.000145815
0.000145491
0.000145254
0.000145108
0.000145052
0.000145073
0.000145149
0.000145254
0.000145385
0.000145582
0.000175798
0.000173446
0.00017145
0.000169528
0.000167664
0.000165865
0.000164139
0.000162491
0.000160927
0.000159447
0.000158053
0.000156747
0.000155528
0.000154389
0.000153308
0.000152335
0.000151468
0.000150705
0.000150046
0.000149499
0.000149082
0.000148748
0.000148503
0.000148352
0.00014829
0.000148303
0.000148374
0.000148482
0.00014863
0.000148856
0.000181004
0.00017813
0.000175758
0.000173595
0.000171567
0.000169647
0.000167828
0.000166108
0.000164486
0.000162962
0.000161537
0.000160213
0.000158998
0.00015789
0.000156851
0.000155887
0.000155009
0.000154224
0.000153531
0.000152928
0.000152446
0.000152073
0.000151812
0.000151651
0.000151582
0.000151589
0.000151656
0.000151769
0.000151934
0.000152185
0.000187521
0.000183973
0.000181014
0.00017847
0.00017617
0.000174038
0.000172048
0.000170188
0.000168453
0.000166839
0.000165346
0.000163978
0.000162753
0.000161698
0.000160775
0.000159845
0.000158958
0.000158145
0.000157403
0.000156703
0.000156065
0.000155614
0.00015532
0.000155145
0.000155067
0.000155069
0.000155134
0.000155254
0.000155436
0.000155712
0.000195533
0.000191312
0.000187609
0.000184578
0.000181911
0.000179474
0.000177223
0.000175141
0.000173218
0.000171449
0.000169831
0.000168371
0.000167101
0.000166087
0.000165364
0.000164479
0.000163577
0.000162725
0.000161918
0.000161088
0.000160173
0.000159604
0.000159262
0.000159064
0.000158975
0.000158971
0.000159038
0.000159167
0.00015937
0.000159676
0.000204733
0.000200118
0.0001957
0.000192192
0.000189133
0.000186337
0.000183757
0.000181381
0.000179199
0.000177203
0.000175393
0.000173779
0.000172401
0.000171372
0.000170891
0.000170027
0.000169088
0.000168179
0.000167295
0.000166326
0.000165037
0.000164327
0.000163924
0.000163697
0.000163593
0.000163584
0.000163654
0.000163798
0.000164028
0.000164375
0.000214023
0.000209648
0.000204923
0.000201157
0.000197825
0.000194719
0.000191817
0.000189131
0.000186655
0.000184387
0.000182332
0.000180504
0.000178947
0.000177795
0.000177456
0.00017654
0.000175525
0.000174533
0.000173563
0.000172493
0.000170859
0.000170026
0.000169556
0.000169292
0.000169169
0.000169155
0.000169233
0.000169398
0.000169666
0.000170066
0.000221348
0.000218139
0.000214084
0.000210556
0.000207281
0.00020409
0.000201013
0.000198116
0.000195406
0.000192893
0.000190594
0.00018853
0.000186742
0.000185333
0.00018476
0.000183675
0.000182538
0.000181437
0.000180381
0.000179289
0.000177628
0.000176737
0.000176207
0.000175901
0.000175756
0.000175736
0.000175825
0.00017602
0.000176336
0.000176801
0.000223975
0.000222843
0.000221029
0.000218466
0.000215797
0.000212958
0.000210053
0.000207222
0.000204488
0.000201886
0.000199451
0.000197217
0.000195213
0.000193459
0.000191875
0.000190512
0.00018922
0.000188001
0.000186871
0.000185853
0.000184931
0.000184085
0.000183512
0.000183165
0.000182994
0.000182969
0.000183073
0.000183303
0.000183672
0.000184205
0.000220653
0.000221952
0.000222994
0.000222115
0.000220687
0.000218793
0.000216592
0.000214286
0.000211919
0.000209549
0.000207237
0.000205031
0.000202949
0.000200895
0.000198237
0.000196574
0.000195149
0.000193842
0.000192676
0.000191796
0.000191783
0.000191089
0.000190504
0.000190123
0.000189931
0.000189901
0.000190019
0.000190281
0.000190697
0.000191275
0.000218871
0.000219927
0.000220144
0.000219703
0.000218743
0.000217484
0.000215974
0.000214282
0.000212485
0.000210641
0.000208762
0.000206669
0.000197683
0.000197188
0.000196634
0.000196243
0.000196037
0.000196004
0.000196129
0.000196408
0.000196842
0.00019742
2.32378e-05
2.25793e-05
2.2146e-05
2.19043e-05
2.18146e-05
2.18697e-05
2.20767e-05
2.24341e-05
2.29341e-05
2.35781e-05
2.64777e-05
2.57414e-05
2.51707e-05
2.47785e-05
2.45639e-05
2.44836e-05
2.45376e-05
2.47274e-05
2.50491e-05
2.54925e-05
2.60525e-05
2.67298e-05
2.74694e-05
2.82707e-05
2.91095e-05
2.99747e-05
3.08541e-05
3.17363e-05
3.2613e-05
3.34741e-05
3.43252e-05
3.04977e-05
2.96779e-05
2.89396e-05
2.8351e-05
2.78797e-05
2.75322e-05
2.73274e-05
2.72511e-05
2.72996e-05
2.74712e-05
2.77611e-05
2.81598e-05
2.8643e-05
2.92282e-05
2.99007e-05
3.06408e-05
3.14258e-05
3.22415e-05
3.30753e-05
3.39157e-05
3.47527e-05
3.55774e-05
3.63813e-05
3.71758e-05
3.7934e-05
3.86798e-05
3.9428e-05
3.53478e-05
3.44656e-05
3.3634e-05
3.283e-05
3.21162e-05
3.15059e-05
3.1014e-05
3.05972e-05
3.02861e-05
3.00951e-05
3.00219e-05
3.00641e-05
3.02189e-05
3.04814e-05
3.08434e-05
3.12932e-05
3.18126e-05
3.24295e-05
3.31145e-05
3.38475e-05
3.46142e-05
3.54019e-05
3.61992e-05
3.69953e-05
3.77792e-05
3.85306e-05
3.92656e-05
3.99903e-05
4.07091e-05
4.14187e-05
4.21509e-05
4.28824e-05
4.36751e-05
3.92082e-05
3.83485e-05
3.75038e-05
3.67084e-05
3.59492e-05
3.526e-05
3.46375e-05
3.4103e-05
3.36457e-05
3.32681e-05
3.29858e-05
3.28091e-05
3.27396e-05
3.27762e-05
3.29166e-05
3.31561e-05
3.34881e-05
3.39038e-05
3.43952e-05
3.49672e-05
3.56036e-05
3.62887e-05
3.70089e-05
3.7752e-05
3.85069e-05
3.92627e-05
4.00085e-05
4.07342e-05
4.14252e-05
4.21227e-05
4.28122e-05
4.34767e-05
4.41448e-05
4.48352e-05
4.55649e-05
4.63711e-05
4.72227e-05
4.87886e-05
4.29289e-05
4.20878e-05
4.12574e-05
4.04792e-05
3.97424e-05
3.90285e-05
3.83389e-05
3.77208e-05
3.71501e-05
3.66511e-05
3.62261e-05
3.58793e-05
3.56202e-05
3.54565e-05
3.53907e-05
3.54228e-05
3.55507e-05
3.57708e-05
3.60774e-05
3.64641e-05
3.69252e-05
3.74582e-05
3.80518e-05
3.86931e-05
3.93699e-05
4.00708e-05
4.07849e-05
4.1502e-05
4.22122e-05
4.29073e-05
4.35833e-05
4.42552e-05
4.49166e-05
4.55628e-05
4.61862e-05
4.6842e-05
4.75095e-05
4.82217e-05
4.89997e-05
5.04298e-05
4.57006e-05
4.48631e-05
4.40985e-05
4.33758e-05
4.26746e-05
4.20074e-05
4.13462e-05
4.07119e-05
4.01305e-05
3.96011e-05
3.91358e-05
3.874e-05
3.84188e-05
3.81792e-05
3.80269e-05
3.79648e-05
3.7993e-05
3.81103e-05
3.83134e-05
3.85979e-05
3.89586e-05
3.93903e-05
3.98883e-05
4.04432e-05
4.10443e-05
4.16805e-05
4.23414e-05
4.30166e-05
4.36967e-05
4.43729e-05
4.50387e-05
4.56918e-05
4.63372e-05
4.69714e-05
4.75921e-05
4.82027e-05
4.88279e-05
4.94675e-05
5.01156e-05
5.08381e-05
5.21796e-05
4.83585e-05
4.75508e-05
4.68452e-05
4.61598e-05
4.55067e-05
4.48538e-05
4.42217e-05
4.36055e-05
4.30171e-05
4.24732e-05
4.19797e-05
4.15453e-05
4.1176e-05
4.08771e-05
4.06542e-05
4.05121e-05
4.04532e-05
4.04783e-05
4.05862e-05
4.07743e-05
4.1039e-05
4.13758e-05
4.17799e-05
4.22457e-05
4.27653e-05
4.3329e-05
4.39272e-05
4.455e-05
4.51881e-05
4.58325e-05
4.64757e-05
4.71117e-05
4.77384e-05
4.83564e-05
4.89634e-05
4.95589e-05
5.0148e-05
5.07437e-05
5.13496e-05
5.19746e-05
5.26549e-05
5.39508e-05
5.08945e-05
5.01081e-05
4.94411e-05
4.88257e-05
4.81939e-05
4.75757e-05
4.69646e-05
4.63698e-05
4.57938e-05
4.52456e-05
4.47372e-05
4.42763e-05
4.38703e-05
4.35252e-05
4.32461e-05
4.30381e-05
4.2905e-05
4.28493e-05
4.28716e-05
4.29711e-05
4.31458e-05
4.33925e-05
4.37072e-05
4.40853e-05
4.45212e-05
4.50078e-05
4.55367e-05
4.60988e-05
4.66854e-05
4.72877e-05
4.78976e-05
4.85081e-05
4.91139e-05
4.97122e-05
5.03018e-05
5.08811e-05
5.14502e-05
5.20137e-05
5.25796e-05
5.31542e-05
5.37495e-05
5.43909e-05
5.56362e-05
5.33265e-05
5.25377e-05
5.18928e-05
5.13167e-05
5.07372e-05
5.01507e-05
4.95703e-05
4.89978e-05
4.84397e-05
4.79008e-05
4.7389e-05
4.69138e-05
4.64829e-05
4.61032e-05
4.57804e-05
4.55196e-05
4.5325e-05
4.52002e-05
4.51474e-05
4.51673e-05
4.52593e-05
4.54217e-05
4.56517e-05
4.59457e-05
4.62993e-05
4.67073e-05
4.71629e-05
4.76587e-05
4.81866e-05
4.87383e-05
4.9306e-05
4.98821e-05
5.04601e-05
5.10351e-05
5.16037e-05
5.21641e-05
5.27148e-05
5.32561e-05
5.37915e-05
5.43271e-05
5.48699e-05
5.54322e-05
5.60347e-05
5.72244e-05
5.48573e-05
5.42063e-05
5.36543e-05
5.31119e-05
5.25697e-05
5.20236e-05
5.14806e-05
5.09448e-05
5.04221e-05
4.99182e-05
4.94401e-05
4.8996e-05
4.85933e-05
4.82382e-05
4.79363e-05
4.76923e-05
4.75102e-05
4.73932e-05
4.73431e-05
4.73609e-05
4.74461e-05
4.7597e-05
4.78114e-05
4.80858e-05
4.84163e-05
4.87977e-05
4.92239e-05
4.96883e-05
5.01832e-05
5.07013e-05
5.12352e-05
5.17779e-05
5.23235e-05
5.28671e-05
5.34052e-05
5.39355e-05
5.44566e-05
5.49686e-05
5.54742e-05
5.59785e-05
5.64883e-05
5.70152e-05
5.75772e-05
5.87066e-05
5.70252e-05
5.63641e-05
5.58352e-05
5.53241e-05
5.48193e-05
5.43137e-05
5.38054e-05
5.32986e-05
5.27983e-05
5.23098e-05
5.18391e-05
5.13928e-05
5.09783e-05
5.06021e-05
5.02703e-05
4.99882e-05
4.97601e-05
4.95898e-05
4.94801e-05
4.94328e-05
4.94487e-05
4.95274e-05
4.96677e-05
4.98673e-05
5.01231e-05
5.04314e-05
5.07875e-05
5.11856e-05
5.16197e-05
5.20828e-05
5.25681e-05
5.30688e-05
5.35785e-05
5.40916e-05
5.46033e-05
5.51101e-05
5.56095e-05
5.60998e-05
5.65812e-05
5.70557e-05
5.75273e-05
5.80027e-05
5.84922e-05
5.90116e-05
6.00767e-05
5.89794e-05
5.83127e-05
5.78261e-05
5.7364e-05
5.68976e-05
5.64311e-05
5.59618e-05
5.54897e-05
5.50182e-05
5.45521e-05
5.40968e-05
5.36581e-05
5.32423e-05
5.28559e-05
5.25052e-05
5.21958e-05
5.19326e-05
5.17197e-05