/*--------------------------------*- C++ -*----------------------------------*\
  =========                 |
  \\      /  F ield         | OpenFOAM: The Open Source CFD Toolbox
   \\    /   O peration     | Website:  https://openfoam.org
    \\  /    A nd           | Version:  7
     \\/     M anipulation  |
\*---------------------------------------------------------------------------*/
FoamFile
{
    version     2.0;
    format      ascii;
    class       volVectorField;
    location    "136000";
    object      vorticity;
}
// * * * * * * * * * * * * * * * * * * * * * * * * * * * * * * * * * * * * * //

dimensions      [0 0 -1 0 0 0 0];

internalField   nonuniform List<vector> 
4838
(
(0.00303075 0.00137823 5.01491e-17)
(0.00192785 0.00255325 1.83806e-18)
(0.00204044 0.00240907 -1.12882e-17)
(0.00210706 0.0022692 -1.1933e-17)
(0.00215114 0.00213234 1.50356e-18)
(0.00218067 0.00199981 6.32149e-18)
(0.00220017 0.00187124 5.3767e-18)
(0.00221221 0.00174624 4.37426e-18)
(0.00221839 0.00162453 7.71557e-18)
(0.00221983 0.00150596 6.80113e-19)
(0.0022174 0.00139045 -8.81773e-18)
(0.00221181 0.00127795 -9.26889e-18)
(0.00220371 0.00116841 -7.78053e-18)
(0.00219368 0.00106179 -1.27202e-17)
(0.00218226 0.000958023 -2.03504e-17)
(0.00216996 0.000857022 -2.1097e-17)
(0.00215726 0.000758673 -1.29314e-17)
(0.00214464 0.00066283 -7.23747e-18)
(0.00213252 0.000569311 -8.53969e-18)
(0.00212131 0.000477899 -9.76646e-18)
(0.00211136 0.000388341 -8.01043e-18)
(0.002103 0.000300353 -3.08877e-18)
(0.00209648 0.000213619 4.56118e-18)
(0.00209202 0.0001278 1.21172e-17)
(0.00208975 4.25379e-05 1.47432e-17)
(0.00208975 -4.25376e-05 1.41574e-17)
(0.00209202 -0.0001278 1.44003e-17)
(0.00209648 -0.000213619 1.77794e-17)
(0.002103 -0.000300353 2.44216e-17)
(0.00211136 -0.000388341 2.96955e-17)
(0.00212131 -0.000477898 3.44328e-17)
(0.00213252 -0.000569311 4.37277e-17)
(0.00214464 -0.00066283 5.22701e-17)
(0.00215726 -0.000758673 4.68106e-17)
(0.00216996 -0.000857022 3.39517e-17)
(0.00218226 -0.000958023 2.79001e-17)
(0.00219368 -0.00106179 2.63381e-17)
(0.00220371 -0.00116841 1.76928e-17)
(0.00221181 -0.00127795 3.18635e-18)
(0.0022174 -0.00139045 -5.98186e-18)
(0.00221983 -0.00150596 -7.55587e-19)
(0.00221839 -0.00162453 6.44154e-18)
(0.00221221 -0.00174624 1.36934e-17)
(0.00220017 -0.00187124 1.29676e-17)
(0.00218067 -0.00199981 -1.42864e-19)
(0.00215114 -0.00213234 1.16782e-18)
(0.00210706 -0.0022692 8.79218e-18)
(0.00204044 -0.00240907 5.16182e-18)
(0.00192785 -0.00255325 -7.73599e-18)
(0.00303075 -0.00137823 -3.02127e-17)
(0.00379099 0.00146752 3.57565e-17)
(0.00261499 0.00257619 3.916e-18)
(0.00262238 0.00248364 -1.90549e-18)
(0.00262541 0.00236998 -5.56293e-18)
(0.00262277 0.00224371 -7.90981e-18)
(0.00261384 0.00211371 -5.31514e-18)
(0.00260011 0.00198384 8.12923e-19)
(0.00258315 0.00185568 4.12154e-18)
(0.00256407 0.00172986 5.77493e-18)
(0.00254366 0.00160663 6.36282e-18)
(0.0025225 0.00148609 1.29781e-18)
(0.00250098 0.00136827 -6.89414e-18)
(0.00247947 0.00125317 -6.2928e-18)
(0.00245827 0.00114077 -1.36808e-18)
(0.00243764 0.00103101 -4.67415e-18)
(0.00241786 0.000923814 -1.36919e-17)
(0.00239919 0.000819077 -1.33253e-17)
(0.00238186 0.000716657 -7.22285e-18)
(0.00236611 0.000616382 -9.59938e-18)
(0.00235215 0.000518047 -1.29106e-17)
(0.00234019 0.000421416 -8.55118e-18)
(0.0023304 0.000326223 -3.78218e-18)
(0.00232292 0.000232178 1.72795e-18)
(0.00231787 0.000138968 8.53936e-18)
(0.00231533 4.6266e-05 1.08158e-17)
(0.00231533 -4.62657e-05 1.05474e-17)
(0.00231787 -0.000138968 1.23459e-17)
(0.00232292 -0.000232178 1.68756e-17)
(0.0023304 -0.000326223 2.1531e-17)
(0.00234019 -0.000421416 2.42121e-17)
(0.00235215 -0.000518047 3.05674e-17)
(0.00236611 -0.000616382 3.85709e-17)
(0.00238186 -0.000716657 3.84191e-17)
(0.00239919 -0.000819077 3.27412e-17)
(0.00241786 -0.000923814 2.63335e-17)
(0.00243764 -0.00103101 2.11966e-17)
(0.00245827 -0.00114077 1.48516e-17)
(0.00247947 -0.00125317 5.6539e-18)
(0.00250098 -0.00136827 8.77423e-19)
(0.0025225 -0.00148609 1.45097e-18)
(0.00254366 -0.00160663 2.75967e-18)
(0.00256407 -0.00172986 2.47323e-18)
(0.00258315 -0.00185568 1.20639e-19)
(0.00260012 -0.00198384 -1.42064e-18)
(0.00261384 -0.00211371 1.48092e-18)
(0.00262277 -0.00224371 3.04303e-18)
(0.00262541 -0.00236998 -5.6369e-18)
(0.00262238 -0.00248364 -1.74864e-17)
(0.00261499 -0.00257619 -2.57169e-17)
(0.00379099 -0.00146752 -2.78228e-17)
(0.0040546 0.00163677 1.51723e-17)
(0.00283288 0.00269545 2.42805e-18)
(0.00282083 0.00258067 4.98756e-19)
(0.00281168 0.00246923 -2.18134e-18)
(0.00280551 0.00234875 -3.33791e-18)
(0.00279791 0.00222222 -1.65349e-18)
(0.00278752 0.00209295 3.75553e-19)
(0.0027744 0.00196324 2.66955e-18)
(0.00275909 0.00183441 4.24184e-18)
(0.0027422 0.00170723 3.60981e-18)
(0.00272424 0.00158208 2.4642e-19)
(0.00270568 0.00145919 -2.77178e-18)
(0.00268687 0.00133865 -1.91541e-18)
(0.00266817 0.0012205 -4.893e-19)
(0.00264985 0.00110473 -2.92605e-18)
(0.00263221 0.00099128 -9.67467e-18)
(0.00261548 0.000880073 -9.31183e-18)
(0.00259993 0.000770985 -4.90816e-18)
(0.00258577 0.00066386 -9.15398e-18)
(0.00257321 0.000558512 -1.40896e-17)
(0.00256243 0.000454727 -1.02306e-17)
(0.00255361 0.00035226 -4.22433e-18)
(0.00254687 0.000250845 1.18805e-19)
(0.00254232 0.000150197 5.64649e-18)
(0.00254002 5.00136e-05 9.03564e-18)
(0.00254002 -5.00133e-05 8.98467e-18)
(0.00254232 -0.000150196 7.90648e-18)
(0.00254687 -0.000250845 9.74649e-18)
(0.00255361 -0.00035226 1.5035e-17)
(0.00256243 -0.000454726 1.90621e-17)
(0.00257321 -0.000558512 2.32705e-17)
(0.00258577 -0.000663859 2.76351e-17)
(0.00259993 -0.000770984 2.91993e-17)
(0.00261548 -0.000880073 2.64569e-17)
(0.00263221 -0.000991279 1.9609e-17)
(0.00264985 -0.00110472 1.57357e-17)
(0.00266817 -0.0012205 1.38657e-17)
(0.00268687 -0.00133865 8.36312e-18)
(0.00270568 -0.00145919 3.12797e-18)
(0.00272424 -0.00158208 1.24803e-18)
(0.0027422 -0.00170723 7.193e-20)
(0.00275909 -0.00183441 -4.00079e-19)
(0.0027744 -0.00196324 -8.12399e-19)
(0.00278752 -0.00209295 -1.83193e-18)
(0.00279791 -0.00222222 -2.68831e-18)
(0.00280551 -0.00234875 -3.48227e-18)
(0.00281168 -0.00246923 -8.268e-18)
(0.00282083 -0.00258067 -1.68897e-17)
(0.00283288 -0.00269545 -2.61271e-17)
(0.0040546 -0.00163677 -3.22347e-17)
(0.00423046 0.00181183 9.89176e-18)
(0.0030274 0.00284095 -4.06055e-19)
(0.0030088 0.00270494 2.76836e-19)
(0.00299235 0.0025816 1.14848e-18)
(0.00298177 0.00245697 9.78198e-19)
(0.00297335 0.00232922 1.75549e-18)
(0.00296473 0.00219895 2.05785e-18)
(0.00295484 0.00206744 2.24853e-18)
(0.00294342 0.00193586 2.83246e-18)
(0.00293059 0.00180509 1.48727e-18)
(0.00291666 0.00167569 -8.81548e-19)
(0.00290195 0.00154802 -2.35647e-18)
(0.0028868 0.00142229 -9.55529e-19)
(0.00287152 0.00129859 -1.3776e-18)
(0.00285638 0.00117699 -3.72587e-18)
(0.00284167 0.00105745 -7.4154e-18)
(0.00282762 0.000939915 -7.91746e-18)
(0.00281447 0.000824295 -5.20009e-18)
(0.00280244 0.000710453 -8.90982e-18)
(0.00279173 0.000598226 -1.36073e-17)
(0.00278251 0.000487419 -1.04072e-17)
(0.00277495 0.000377813 -3.71933e-18)
(0.00276916 0.000269165 6.67267e-19)
(0.00276524 0.000161216 4.45988e-18)
(0.00276327 5.36913e-05 8.08817e-18)
(0.00276327 -5.36911e-05 8.82742e-18)
(0.00276524 -0.000161216 6.80123e-18)
(0.00276916 -0.000269165 6.51e-18)
(0.00277495 -0.000377812 9.42602e-18)
(0.00278251 -0.000487419 1.43743e-17)
(0.00279173 -0.000598225 1.82907e-17)
(0.00280244 -0.000710453 1.9676e-17)
(0.00281447 -0.000824295 2.07239e-17)
(0.00282762 -0.000939915 1.93425e-17)
(0.00284167 -0.00105745 1.53837e-17)
(0.00285638 -0.00117699 1.47998e-17)
(0.00287152 -0.00129859 1.45806e-17)
(0.0028868 -0.00142229 9.45278e-18)
(0.00290195 -0.00154802 4.31976e-18)
(0.00291666 -0.00167569 1.24828e-18)
(0.00293059 -0.00180509 -1.81733e-18)
(0.00294342 -0.00193586 -3.14448e-18)
(0.00295484 -0.00206743 -3.40287e-18)
(0.00296474 -0.00219895 -3.8414e-18)
(0.00297335 -0.00232922 -5.7409e-18)
(0.00298177 -0.00245697 -7.85999e-18)
(0.00299235 -0.0025816 -1.13311e-17)
(0.0030088 -0.00270494 -1.72241e-17)
(0.0030274 -0.00284095 -2.35492e-17)
(0.00423046 -0.00181183 -2.37303e-17)
(0.00438682 0.00198435 9.05102e-18)
(0.00320768 0.00299111 -1.77959e-19)
(0.00319247 0.00284217 4.58608e-19)
(0.0031753 0.00270636 4.75071e-19)
(0.00316288 0.00257311 2.3073e-18)
(0.00315355 0.00243993 4.54172e-18)
(0.00314554 0.00230588 3.90039e-18)
(0.00313756 0.00217106 3.21402e-18)
(0.0031289 0.00203603 3.62459e-18)
(0.00311933 0.0019014 9.49365e-19)
(0.00310885 0.00176769 -2.27863e-18)
(0.00309762 0.00163528 -7.50897e-19)
(0.00308586 0.00150442 7.61891e-19)
(0.00307382 0.00137528 -3.14512e-18)
(0.00306174 0.00124793 -7.00103e-18)
(0.00304987 0.0011224 -8.12256e-18)
(0.00303843 0.000998649 -7.95648e-18)
(0.00302764 0.000876607 -6.43169e-18)
(0.00301772 0.000756165 -8.20255e-18)
(0.00300884 0.000637179 -1.08826e-17)
(0.00300116 0.000519479 -7.13507e-18)
(0.00299484 0.000402868 -1.37953e-19)
(0.00299 0.000287126 1.84337e-18)
(0.00298671 0.000172018 2.0818e-18)
(0.00298506 5.72964e-05 6.78379e-18)
(0.00298506 -5.72962e-05 1.02873e-17)
(0.00298671 -0.000172018 7.48985e-18)
(0.00299 -0.000287126 4.7684e-18)
(0.00299484 -0.000402868 6.99753e-18)
(0.00300116 -0.000519479 1.1421e-17)
(0.00300884 -0.000637179 1.44477e-17)
(0.00301772 -0.000756164 1.55856e-17)
(0.00302764 -0.000876607 1.5444e-17)
(0.00303843 -0.000998649 1.35499e-17)
(0.00304987 -0.0011224 1.14449e-17)
(0.00306174 -0.00124793 1.12767e-17)
(0.00307382 -0.00137528 1.20955e-17)
(0.00308586 -0.00150442 9.69778e-18)
(0.00309762 -0.00163528 5.44832e-18)
(0.00310885 -0.00176769 9.16666e-19)
(0.00311933 -0.0019014 -1.646e-18)
(0.0031289 -0.00203603 -1.89088e-18)
(0.00313756 -0.00217106 -2.26879e-18)
(0.00314554 -0.00230588 -4.31858e-18)
(0.00315355 -0.00243993 -6.63056e-18)
(0.00316288 -0.00257311 -8.99655e-18)
(0.0031753 -0.00270636 -1.31892e-17)
(0.00319247 -0.00284217 -1.63777e-17)
(0.00320769 -0.00299111 -1.80911e-17)
(0.00438682 -0.00198435 -1.33842e-17)
(0.00453558 0.00215412 2.04463e-17)
(0.00337918 0.00314054 3.54209e-18)
(0.00336988 0.00298339 3.02839e-18)
(0.00335604 0.00283777 2.48873e-18)
(0.0033449 0.00269561 2.68862e-18)
(0.00333622 0.00255524 5.62264e-18)
(0.00332914 0.00241549 6.01494e-18)
(0.00332272 0.00227586 4.50602e-18)
(0.00331626 0.00213637 3.27366e-18)
(0.00330934 0.00199727 -1.60838e-19)
(0.00330178 0.00185891 -2.63871e-18)
(0.0032936 0.00172159 6.96542e-19)
(0.00328489 0.00158554 2.14684e-18)
(0.00327582 0.00145093 -5.12752e-18)
(0.00326658 0.00131787 -9.92527e-18)
(0.00325737 0.00118638 -7.90636e-18)
(0.0032484 0.00105648 -6.3244e-18)
(0.00323986 0.000928087 -5.25459e-18)
(0.00323193 0.000801131 -5.4854e-18)
(0.00322479 0.000675484 -6.83852e-18)
(0.00321859 0.000550997 -3.70562e-18)
(0.00321346 0.000427492 2.47536e-18)
(0.00320952 0.000304775 2.10812e-18)
(0.00320684 0.000182632 1.30219e-19)
(0.00320549 6.08383e-05 4.37536e-18)
(0.00320549 -6.08381e-05 7.75817e-18)
(0.00320684 -0.000182632 5.60164e-18)
(0.00320952 -0.000304775 3.16098e-18)
(0.00321346 -0.000427492 4.35903e-18)
(0.00321859 -0.000550997 8.6039e-18)
(0.00322479 -0.000675484 1.20478e-17)
(0.00323193 -0.000801131 1.3551e-17)
(0.00323986 -0.000928087 1.33569e-17)
(0.0032484 -0.00105647 1.07619e-17)
(0.00325737 -0.00118638 8.41604e-18)
(0.00326658 -0.00131787 8.21131e-18)
(0.00327582 -0.00145093 9.27335e-18)
(0.00328489 -0.00158554 8.87074e-18)
(0.0032936 -0.00172159 6.87424e-18)
(0.00330178 -0.00185891 2.58018e-18)
(0.00330934 -0.00199727 -6.48322e-19)
(0.00331626 -0.00213637 -1.60321e-18)
(0.00332272 -0.00227586 -2.57918e-18)
(0.00332914 -0.00241549 -6.12951e-18)
(0.00333622 -0.00255524 -9.12093e-18)
(0.0033449 -0.00269561 -1.12035e-17)
(0.00335604 -0.00283777 -1.28761e-17)
(0.00336988 -0.00298339 -1.19137e-17)
(0.00337918 -0.00314054 -8.46767e-18)
(0.00453558 -0.00215412 -1.86728e-18)
(0.00468041 0.00232165 3.69239e-17)
(0.00354555 0.00328839 1.14821e-17)
(0.00354222 0.0031251 8.3214e-18)
(0.00353323 0.00297179 6.43468e-18)
(0.00352536 0.00282171 4.99385e-18)
(0.00351891 0.00267401 6.08367e-18)
(0.00351367 0.00252777 5.67605e-18)
(0.00350915 0.00238238 4.25377e-18)
(0.00350483 0.0022376 2.58914e-18)
(0.00350032 0.00209342 -4.576e-19)
(0.00349538 0.00194998 -1.92332e-18)
(0.00348994 0.00180746 1.54102e-18)
(0.003484 0.00166605 1.93013e-18)
(0.00347766 0.00152589 -6.18522e-18)
(0.00347105 0.00138707 -1.0847e-17)
(0.00346433 0.00124964 -6.32769e-18)
(0.00345767 0.0011136 -3.92141e-18)
(0.00345124 0.000978905 -4.8849e-18)
(0.00344521 0.000845494 -3.68002e-18)
(0.00343972 0.000713258 -3.51581e-18)
(0.00343492 0.000582065 -2.46035e-18)
(0.00343092 0.000451759 1.77668e-18)
(0.00342784 0.000322163 1.32627e-18)
(0.00342573 0.000193087 2.48588e-19)
(0.00342467 6.43271e-05 4.0152e-18)
(0.00342467 -6.43269e-05 5.68093e-18)
(0.00342573 -0.000193087 3.50126e-18)
(0.00342784 -0.000322163 2.36596e-18)
(0.00343092 -0.000451759 3.04169e-18)
(0.00343492 -0.000582065 5.34329e-18)
(0.00343972 -0.000713258 9.08463e-18)
(0.00344521 -0.000845494 1.27021e-17)
(0.00345124 -0.000978905 1.21207e-17)
(0.00345767 -0.0011136 8.25044e-18)
(0.00346433 -0.00124964 6.03631e-18)
(0.00347105 -0.00138707 6.45868e-18)
(0.00347766 -0.00152589 7.73912e-18)
(0.003484 -0.00166605 8.76105e-18)
(0.00348994 -0.00180746 7.64332e-18)
(0.00349538 -0.00194998 3.36832e-18)
(0.00350032 -0.00209342 3.49505e-19)
(0.00350483 -0.0022376 -1.46369e-18)
(0.00350915 -0.00238239 -3.72141e-18)
(0.00351367 -0.00252777 -6.33112e-18)
(0.00351891 -0.00267401 -8.93106e-18)
(0.00352536 -0.00282172 -1.19581e-17)
(0.00353323 -0.00297179 -1.28857e-17)
(0.00354222 -0.0031251 -7.39432e-18)
(0.00354555 -0.00328839 7.97296e-19)
(0.00468041 -0.00232165 6.95967e-18)
(0.00482299 0.0024874 3.01954e-17)
(0.00370878 0.00343481 2.03492e-17)
(0.00371103 0.00326625 1.50794e-17)
(0.00370725 0.00310645 1.0731e-17)
(0.00370357 0.00294944 7.49135e-18)
(0.00370041 0.00279481 7.17406e-18)
(0.00369786 0.00264197 6.77568e-18)
(0.00369575 0.00249044 4.81975e-18)
(0.00369381 0.00233987 2.59897e-18)
(0.00369173 0.00219013 -4.5017e-19)
(0.00368932 0.00204123 -3.05064e-18)
(0.00368646 0.00189325 -1.6589e-18)
(0.00368311 0.00174629 -9.1693e-19)
(0.00367932 0.00160044 -5.78108e-18)
(0.00367518 0.00145579 -9.05062e-18)
(0.0036708 0.00131237 -4.26838e-18)
(0.00366633 0.00117019 -3.96051e-19)
(0.00366189 0.00102921 -1.42129e-18)
(0.00365765 0.000889381 -1.18219e-18)
(0.00365373 0.000750606 -1.70887e-18)
(0.00365025 0.00061277 -2.73059e-18)
(0.00364734 0.000475733 -5.65893e-19)
(0.00364506 0.000339338 -1.22992e-18)
(0.00364351 0.000203412 -7.68268e-19)
(0.00364272 6.77721e-05 4.04035e-18)
(0.00364272 -6.77719e-05 3.78947e-18)
(0.00364351 -0.000203412 1.00229e-18)
(0.00364506 -0.000339338 1.802e-18)
(0.00364734 -0.000475733 1.65959e-18)
(0.00365025 -0.00061277 2.51349e-18)
(0.00365373 -0.000750606 8.10882e-18)
(0.00365765 -0.000889381 1.25094e-17)
(0.00366189 -0.00102921 1.13919e-17)
(0.00366633 -0.00117019 8.16984e-18)
(0.0036708 -0.00131237 6.63011e-18)
(0.00367518 -0.00145579 6.63315e-18)
(0.00367932 -0.00160044 7.12199e-18)
(0.00368311 -0.00174629 7.58635e-18)
(0.00368646 -0.00189325 6.6366e-18)
(0.00368932 -0.00204123 4.36266e-18)
(0.00369173 -0.00219013 1.82864e-18)
(0.00369381 -0.00233987 -2.00656e-18)
(0.00369575 -0.00249044 -4.111e-18)
(0.00369786 -0.00264197 -5.96792e-18)
(0.00370041 -0.00279481 -9.42636e-18)
(0.00370357 -0.00294944 -1.28749e-17)
(0.00370725 -0.00310645 -1.20837e-17)
(0.00371103 -0.00326625 -3.81021e-18)
(0.00370878 -0.00343482 4.3361e-18)
(0.00482299 -0.00248741 6.65645e-18)
(0.00496425 0.00265174 2.77326e-18)
(0.00386998 0.00358014 2.06343e-17)
(0.00387746 0.00340664 1.79611e-17)
(0.00387883 0.00324098 1.26573e-17)
(0.00387967 0.0030777 8.72517e-18)
(0.00388036 0.0029166 7.05537e-18)
(0.00388109 0.00275734 7.09938e-18)
(0.00388188 0.00259957 5.99909e-18)
(0.00388261 0.002443 4.96131e-18)
(0.00388313 0.00228743 2.44059e-18)
(0.00388327 0.00213281 -2.0439e-18)
(0.00388294 0.00197912 -3.1725e-18)
(0.00388209 0.00182643 -2.16059e-18)
(0.00388075 0.00167477 -3.65507e-18)
(0.00387895 0.0015242 -6.48134e-18)
(0.0038768 0.00137474 -4.27531e-18)
(0.0038744 0.00122639 -8.74941e-19)
(0.00387186 0.00107913 -1.17413e-18)
(0.00386932 0.000932899 -8.51756e-19)
(0.0038669 0.000787618 -4.28263e-19)
(0.00386469 0.000643184 -1.75686e-18)
(0.00386279 0.000499472 -1.98062e-18)
(0.0038613 0.000356339 -2.77847e-18)
(0.00386027 0.000213631 -6.13531e-19)
(0.00385974 7.11815e-05 5.29744e-18)
(0.00385974 -7.11813e-05 3.1116e-18)
(0.00386027 -0.000213631 -1.20197e-18)
(0.0038613 -0.000356339 5.30817e-19)
(0.00386279 -0.000499472 9.65438e-19)
(0.00386469 -0.000643184 2.31668e-18)
(0.0038669 -0.000787618 7.88631e-18)
(0.00386933 -0.000932899 1.158e-17)
(0.00387186 -0.00107913 1.00722e-17)
(0.0038744 -0.00122639 7.62426e-18)
(0.0038768 -0.00137474 6.65186e-18)
(0.00387895 -0.0015242 7.42687e-18)
(0.00388075 -0.00167477 7.37684e-18)
(0.00388209 -0.00182643 6.22858e-18)
(0.00388294 -0.00197912 5.6983e-18)
(0.00388327 -0.00213281 4.74373e-18)
(0.00388313 -0.00228743 2.07742e-18)
(0.00388261 -0.002443 -2.07931e-18)
(0.00388188 -0.00259957 -3.31585e-18)
(0.00388109 -0.00275734 -4.37316e-18)
(0.00388036 -0.0029166 -8.18451e-18)
(0.00387967 -0.0030777 -1.19166e-17)
(0.00387883 -0.00324098 -1.03082e-17)
(0.00387746 -0.00340664 -3.41972e-18)
(0.00386998 -0.00358014 -2.5197e-19)
(0.00496425 -0.00265174 -6.93223e-18)
(0.00510475 0.00281492 -3.45545e-18)
(0.0040298 0.00372465 1.2957e-17)
(0.00404226 0.00354634 1.62473e-17)
(0.00404864 0.00337515 1.36099e-17)
(0.00405407 0.00320598 1.07742e-17)
(0.00405885 0.00303877 9.20815e-18)
(0.0040632 0.00287332 8.19069e-18)
(0.00406722 0.00270938 6.23967e-18)
(0.00407091 0.00254673 5.65383e-18)
(0.00407419 0.0023852 3.90133e-18)
(0.00407697 0.00222469 -1.79137e-18)
(0.00407919 0.00206514 -6.10347e-18)
(0.00408082 0.00190657 -4.6801e-18)
(0.00408185 0.00174899 -2.6667e-18)
(0.00408233 0.00159241 -4.88803e-18)
(0.00408232 0.00143686 -5.45706e-18)
(0.00408191 0.00128232 -1.03319e-18)
(0.0040812 0.00112876 -1.10421e-19)
(0.0040803 0.000976134 -1.14106e-18)
(0.0040793 0.000824369 -6.69498e-19)
(0.0040783 0.00067337 -1.9804e-18)
(0.00407739 0.000523023 -2.80558e-18)
(0.00407664 0.000373202 -2.44961e-18)
(0.00407611 0.000223765 -4.70486e-20)
(0.00407583 7.45621e-05 5.24239e-18)
(0.00407583 -7.4562e-05 2.7801e-18)
(0.00407611 -0.000223765 -1.63042e-18)
(0.00407664 -0.000373202 9.94512e-19)
(0.00407739 -0.000523023 2.56679e-18)
(0.0040783 -0.000673369 3.82189e-18)
(0.0040793 -0.000824369 7.53482e-18)
(0.0040803 -0.000976134 9.57805e-18)
(0.0040812 -0.00112876 7.98941e-18)
(0.00408191 -0.00128232 7.18665e-18)
(0.00408232 -0.00143686 7.7881e-18)
(0.00408233 -0.00159241 8.37559e-18)
(0.00408185 -0.00174899 7.4814e-18)
(0.00408082 -0.00190657 5.73717e-18)
(0.0040792 -0.00206514 5.06082e-18)
(0.00407697 -0.00222469 4.6149e-18)
(0.00407419 -0.0023852 6.71492e-19)
(0.00407091 -0.00254673 -3.05882e-18)
(0.00406723 -0.00270938 -2.72928e-18)
(0.0040632 -0.00287332 -3.71183e-18)
(0.00405885 -0.00303877 -7.36797e-18)
(0.00405407 -0.00320598 -1.03637e-17)
(0.00404864 -0.00337515 -9.31311e-18)
(0.00404226 -0.00354634 -5.42797e-18)
(0.00402981 -0.00372465 -6.01093e-18)
(0.00510475 -0.00281492 -1.50366e-17)
(0.00524487 0.00297717 1.12891e-17)
(0.00418869 0.00386855 7.4242e-18)
(0.00420594 0.00368548 1.1761e-17)
(0.00421718 0.00350892 1.08246e-17)
(0.00422716 0.0033341 1.00662e-17)
(0.00423612 0.00316101 1.04404e-17)
(0.00424427 0.00298955 8.84064e-18)
(0.00425173 0.00281955 4.82318e-18)
(0.00425856 0.00265085 3.62224e-18)
(0.00426475 0.00248331 2.50129e-18)
(0.00427028 0.00231681 -2.56846e-18)
(0.0042751 0.0021513 -6.83475e-18)
(0.00427921 0.00198675 -4.49885e-18)
(0.0042826 0.00182315 -1.23883e-18)
(0.0042853 0.00166051 -3.842e-18)
(0.00428738 0.00149881 -6.27076e-18)
(0.00428891 0.00133804 -8.59011e-19)
(0.00428996 0.00117817 1.729e-18)
(0.00429064 0.00101915 -5.90647e-19)
(0.00429101 0.000860917 -1.08271e-18)
(0.00429118 0.000703375 -2.99503e-18)
(0.00429122 0.000546426 -4.50671e-18)
(0.00429118 0.000389954 -2.86016e-18)
(0.00429113 0.000233831 9.03235e-19)
(0.0042911 7.79197e-05 5.09429e-18)
(0.0042911 -7.79197e-05 2.10786e-18)
(0.00429113 -0.000233831 -2.12404e-18)
(0.00429118 -0.000389954 9.92776e-19)
(0.00429122 -0.000546426 4.3489e-18)
(0.00429118 -0.000703375 5.75325e-18)
(0.00429101 -0.000860917 6.9572e-18)
(0.00429064 -0.00101915 7.34214e-18)
(0.00428996 -0.00117817 6.14381e-18)
(0.00428891 -0.00133804 6.93762e-18)
(0.00428738 -0.00149881 9.09689e-18)
(0.0042853 -0.00166051 8.28083e-18)
(0.0042826 -0.00182315 6.5106e-18)
(0.00427921 -0.00198675 5.70843e-18)
(0.0042751 -0.0021513 6.03184e-18)
(0.00427028 -0.00231681 5.52556e-18)
(0.00426476 -0.00248331 1.87493e-19)
(0.00425856 -0.00265085 -2.89797e-18)
(0.00425173 -0.00281955 -1.66215e-18)
(0.00424427 -0.00298955 -2.57295e-18)
(0.00423613 -0.00316101 -6.37107e-18)
(0.00422716 -0.0033341 -9.67279e-18)
(0.00421718 -0.00350892 -1.00307e-17)
(0.00420594 -0.00368548 -7.84685e-18)
(0.00418869 -0.00386855 -9.36164e-18)
(0.00524487 -0.00297717 -1.12388e-17)
(0.00538487 0.00313866 1.51778e-17)
(0.00434694 0.00401204 6.10794e-18)
(0.00436886 0.0038242 8.91111e-18)
(0.00438484 0.00364235 8.10831e-18)
(0.0043993 0.00346201 8.36881e-18)
(0.00441245 0.0032832 1.09527e-17)
(0.00442446 0.00310586 1.00955e-17)
(0.00443548 0.00292989 6.15163e-18)
(0.00444557 0.00275519 3.11217e-18)
(0.00445479 0.00258162 1.32714e-18)
(0.00446314 0.0024091 -3.08001e-18)
(0.00447062 0.00223757 -6.24565e-18)
(0.00447722 0.00206698 -3.22832e-18)
(0.00448296 0.0018973 6.43385e-19)
(0.00448787 0.00172853 -2.26058e-18)
(0.00449201 0.00156065 -5.29765e-18)
(0.00449543 0.00139362 -1.78748e-19)
(0.0044982 0.00122743 1.98425e-18)
(0.0045004 0.00106201 -5.88409e-19)
(0.00450212 0.00089731 -1.12049e-18)
(0.00450342 0.000733242 -3.45208e-18)
(0.00450437 0.000569714 -5.3853e-18)
(0.00450503 0.000406619 -2.64575e-18)
(0.00450544 0.000243842 2.12481e-18)
(0.00450564 8.12591e-05 4.39141e-18)
(0.00450564 -8.12592e-05 6.78433e-19)
(0.00450544 -0.000243842 -1.51953e-18)
(0.00450503 -0.000406619 2.93298e-18)
(0.00450437 -0.000569714 6.72498e-18)
(0.00450342 -0.000733242 7.62584e-18)
(0.00450212 -0.00089731 6.85148e-18)
(0.0045004 -0.00106201 5.6749e-18)
(0.0044982 -0.00122743 4.22694e-18)
(0.00449543 -0.00139362 4.55484e-18)
(0.00449201 -0.00156065 6.8828e-18)
(0.00448787 -0.00172853 5.25653e-18)
(0.00448296 -0.0018973 4.121e-18)
(0.00447722 -0.00206698 6.27313e-18)
(0.00447062 -0.00223757 7.00159e-18)
(0.00446314 -0.0024091 5.32436e-18)
(0.00445479 -0.00258162 -5.85296e-19)
(0.00444558 -0.00275519 -4.00311e-18)
(0.00443548 -0.00292989 -2.06271e-18)
(0.00442446 -0.00310586 -1.78619e-18)
(0.00441245 -0.0032832 -5.57706e-18)
(0.0043993 -0.00346201 -9.05457e-18)
(0.00438484 -0.00364235 -1.01265e-17)
(0.00436886 -0.0038242 -8.7303e-18)
(0.00434694 -0.00401204 -1.06445e-17)
(0.00538487 -0.00313867 -1.15217e-17)
(0.00552496 0.00329957 5.07454e-18)
(0.00450479 0.00415528 5.39886e-18)
(0.00453128 0.00396264 8.32941e-18)
(0.00455189 0.00377554 8.89946e-18)
(0.00457077 0.00358974 9.33125e-18)
(0.00458807 0.00340529 1.08166e-17)
(0.00460397 0.00322217 9.37532e-18)
(0.00461859 0.00304031 5.22004e-18)
(0.00463203 0.00285964 1.50233e-18)
(0.00464434 0.00268006 -1.46626e-19)
(0.00465558 0.00250151 -3.06613e-18)
(0.00466574 0.00232392 -4.62786e-18)
(0.00467486 0.00214725 -1.60108e-18)
(0.00468296 0.00197145 9.65248e-19)
(0.00469007 0.00179652 -1.94596e-18)
(0.00469624 0.00162241 -4.45319e-18)
(0.00470152 0.00144911 -2.6625e-19)
(0.00470598 0.00127657 7.51999e-19)
(0.00470968 0.00110475 -1.67773e-18)
(0.0047127 0.000933586 -1.45373e-18)
(0.0047151 0.000763001 -3.11403e-18)
(0.00471694 0.000592911 -4.39053e-18)
(0.00471827 0.000423217 -1.14709e-18)
(0.00471913 0.000253812 3.12166e-18)
(0.00471956 8.45843e-05 3.95548e-18)
(0.00471956 -8.45843e-05 -4.76675e-19)
(0.00471913 -0.000253812 -1.49019e-18)
(0.00471827 -0.000423217 4.14268e-18)
(0.00471694 -0.000592911 8.41569e-18)
(0.0047151 -0.000763002 9.86215e-18)
(0.0047127 -0.000933586 8.96927e-18)
(0.00470968 -0.00110475 6.11826e-18)
(0.00470598 -0.00127657 3.15488e-18)
(0.00470152 -0.00144911 3.24574e-18)
(0.00469624 -0.00162241 6.38353e-18)
(0.00469007 -0.00179652 3.66538e-18)
(0.00468296 -0.00197145 2.01937e-18)
(0.00467486 -0.00214725 6.68376e-18)
(0.00466574 -0.00232392 6.98103e-18)
(0.00465558 -0.00250151 3.95456e-18)
(0.00464434 -0.00268006 -1.30538e-18)
(0.00463203 -0.00285964 -6.04121e-18)
(0.00461859 -0.00304031 -4.50313e-18)
(0.00460397 -0.00322217 -1.56279e-18)
(0.00458807 -0.00340529 -4.42202e-18)
(0.00457077 -0.00358974 -8.84795e-18)
(0.00455189 -0.00377554 -1.10975e-17)
(0.00453129 -0.00396264 -1.06419e-17)
(0.00450479 -0.00415528 -1.29317e-17)
(0.00552496 -0.00329957 -1.88431e-17)
(0.00566529 0.00346002 1.61751e-18)
(0.00466243 0.00429839 5.10608e-18)
(0.00469342 0.00410091 7.52158e-18)
(0.00471857 0.00390856 9.23866e-18)
(0.00474179 0.00371734 1.11355e-17)
(0.00476321 0.00352731 1.10117e-17)
(0.00478298 0.00333846 8.35296e-18)
(0.00480122 0.00315076 3.75265e-18)
(0.00481803 0.00296416 4.64577e-19)
(0.00483349 0.00277859 -1.01553e-18)
(0.00484764 0.00259401 -2.63638e-18)
(0.00486053 0.00241034 -2.78641e-18)
(0.00487219 0.00222755 -5.4991e-19)
(0.00488265 0.00204561 -5.19168e-19)
(0.00489195 0.00186448 -3.27699e-18)
(0.00490013 0.00168412 -3.95542e-18)
(0.00490725 0.00150452 -2.511e-19)
(0.00491337 0.00132563 -2.03068e-19)
(0.00491854 0.0011474 -1.89668e-18)
(0.00492284 0.000969775 -1.22619e-18)
(0.00492632 0.000792681 -2.80562e-18)
(0.00492903 0.000616041 -3.7291e-18)
(0.00493101 0.000439763 -8.02161e-19)
(0.00493232 0.00026375 2.81501e-18)
(0.00493297 8.78985e-05 3.24626e-18)
(0.00493297 -8.78987e-05 -6.8067e-19)
(0.00493232 -0.00026375 -5.49203e-19)
(0.00493101 -0.000439763 5.32496e-18)
(0.00492903 -0.000616041 8.42719e-18)
(0.00492632 -0.000792682 1.04102e-17)
(0.00492284 -0.000969775 1.10287e-17)
(0.00491855 -0.0011474 7.62872e-18)
(0.00491337 -0.00132563 4.0085e-18)
(0.00490725 -0.00150452 2.51209e-18)
(0.00490013 -0.00168412 5.19545e-18)
(0.00489195 -0.00186448 2.86929e-18)
(0.00488265 -0.00204561 1.42281e-18)
(0.00487219 -0.00222755 6.89899e-18)
(0.00486054 -0.00241034 6.18445e-18)
(0.00484765 -0.00259401 2.03378e-18)
(0.00483349 -0.00277859 -9.37191e-19)
(0.00481803 -0.00296416 -5.52983e-18)
(0.00480122 -0.00315076 -5.70783e-18)
(0.00478298 -0.00333846 -1.59091e-18)
(0.00476321 -0.00352731 -4.61217e-18)
(0.00474179 -0.00371735 -1.00936e-17)
(0.00471857 -0.00390856 -1.2327e-17)
(0.00469342 -0.00410091 -1.1292e-17)
(0.00466243 -0.00429839 -1.30522e-17)
(0.00566529 -0.00346002 -1.74638e-17)
(0.005806 0.00362016 1.15261e-17)
(0.00482001 0.00444149 6.16116e-18)
(0.00485544 0.00423914 7.17173e-18)
(0.00488506 0.00404153 9.91094e-18)
(0.00491256 0.0038449 1.15925e-17)
(0.00493805 0.0036493 9.49047e-18)
(0.00496167 0.00345475 5.75328e-18)
(0.00498353 0.00326123 1.64232e-18)
(0.00500373 0.00306873 -5.59642e-19)
(0.00502234 0.00287719 -1.3378e-18)
(0.00503944 0.00268657 -9.81286e-19)
(0.00505507 0.00249682 3.11839e-21)
(0.00506927 0.0023079 -3.72155e-19)
(0.00508209 0.00211979 -3.43353e-18)
(0.00509357 0.00193243 -4.97738e-18)
(0.00510376 0.00174581 -2.63352e-18)
(0.00511271 0.0015599 3.15655e-19)
(0.00512046 0.00137464 -9.62006e-19)
(0.00512709 0.00118999 -1.89127e-18)
(0.00513264 0.0010059 -8.85027e-19)
(0.00513717 0.000822304 -2.5102e-18)
(0.00514073 0.000639121 -2.78818e-18)
(0.00514337 0.000456271 -1.73395e-19)
(0.0051451 0.000273664 2.27794e-18)
(0.00514596 9.12047e-05 1.97759e-18)
(0.00514596 -9.12049e-05 -2.84602e-19)
(0.0051451 -0.000273664 1.83122e-18)
(0.00514337 -0.000456271 6.95092e-18)
(0.00514074 -0.000639121 8.04991e-18)
(0.00513717 -0.000822304 1.00312e-17)
(0.00513264 -0.0010059 1.1236e-17)
(0.00512709 -0.00118999 7.85549e-18)
(0.00512046 -0.00137464 5.10757e-18)
(0.00511271 -0.0015599 3.15845e-18)
(0.00510376 -0.00174582 4.08911e-18)
(0.00509358 -0.00193243 1.80221e-18)
(0.0050821 -0.00211979 1.0223e-18)
(0.00506927 -0.0023079 6.16901e-18)
(0.00505507 -0.00249682 4.49756e-18)
(0.00503944 -0.00268657 8.92445e-20)
(0.00502234 -0.00287719 -9.00312e-19)
(0.00500373 -0.00306873 -4.72961e-18)
(0.00498353 -0.00326123 -6.9131e-18)
(0.00496167 -0.00345475 -3.5601e-18)
(0.00493806 -0.0036493 -5.77944e-18)
(0.00491256 -0.0038449 -1.07647e-17)
(0.00488506 -0.00404153 -1.22187e-17)
(0.00485544 -0.00423914 -1.03397e-17)
(0.00482001 -0.00444149 -1.10527e-17)
(0.005806 -0.00362016 -8.34696e-18)
(0.00594719 0.00378011 1.78975e-17)
(0.00497767 0.00458471 5.21598e-18)
(0.00501749 0.00437741 6.75468e-18)
(0.00505152 0.00417452 1.07597e-17)
(0.00508325 0.00397247 1.20258e-17)
(0.00511277 0.00377131 8.07727e-18)
(0.0051402 0.00357107 3.82455e-18)
(0.00516566 0.00337176 5.58169e-19)
(0.00518924 0.00317337 -2.71924e-18)
(0.00521101 0.00297586 -3.19421e-18)
(0.00523106 0.0027792 -5.75821e-19)
(0.00524944 0.00258336 2.11748e-18)
(0.0052662 0.0023883 -5.5624e-19)
(0.00528138 0.002194 -6.16935e-18)
(0.00529504 0.00200041 -6.33121e-18)
(0.00530722 0.0018075 -1.67068e-18)
(0.00531797 0.00161526 4.77167e-19)
(0.00532735 0.00142362 -1.15003e-18)
(0.00533541 0.00123255 -6.92585e-19)
(0.0053422 0.00104199 2.66934e-19)
(0.00534777 0.00085189 -1.76706e-18)
(0.00535217 0.000662169 -2.18227e-18)
(0.00535543 0.000472754 5.15629e-19)
(0.00535759 0.000283562 2.30946e-18)
(0.00535866 9.45053e-05 8.09212e-19)
(0.00535866 -9.45055e-05 -1.88051e-19)
(0.00535759 -0.000283562 3.70923e-18)
(0.00535543 -0.000472754 8.00326e-18)
(0.00535217 -0.000662169 8.19615e-18)
(0.00534777 -0.00085189 1.07964e-17)
(0.0053422 -0.00104199 1.19574e-17)
(0.00533541 -0.00123255 8.78336e-18)
(0.00532735 -0.00142362 6.1783e-18)
(0.00531797 -0.00161526 3.21443e-18)
(0.00530722 -0.00180751 3.33864e-18)
(0.00529504 -0.00200041 2.77084e-18)
(0.00528138 -0.002194 1.40527e-18)
(0.0052662 -0.0023883 3.62092e-18)
(0.00524944 -0.00258336 9.97586e-19)
(0.00523106 -0.0027792 -2.28781e-18)
(0.00521101 -0.00297586 -1.33662e-18)
(0.00518924 -0.00317337 -3.2721e-18)
(0.00516566 -0.00337176 -5.88046e-18)
(0.00514021 -0.00357107 -5.30238e-18)