/*--------------------------------*- C++ -*----------------------------------*\
  =========                 |
  \\      /  F ield         | OpenFOAM: The Open Source CFD Toolbox
   \\    /   O peration     | Website:  https://openfoam.org
    \\  /    A nd           | Version:  7
     \\/     M anipulation  |
\*---------------------------------------------------------------------------*/
FoamFile
{
    version     2.0;
    format      ascii;
    class       volScalarField;
    location    "32000";
    object      strainRate;
}
// * * * * * * * * * * * * * * * * * * * * * * * * * * * * * * * * * * * * * //

dimensions      [0 0 -1 0 0 0 0];

internalField   nonuniform List<scalar> 
4782
(
0.0798531
0.0814693
0.0830697
0.0846543
0.086223
0.0877759
0.0893131
0.0908344
0.0923399
0.0938297
0.000481656
0.000899078
0.00165623
0.0028234
0.00435385
0.00611926
0.00799672
0.00991411
0.0118435
0.0137789
0.0157209
0.0176701
0.0196262
0.0215879
0.0235534
0.0255208
0.0274882
0.029454
0.0314166
0.0333745
0.0353266
0.0372717
0.0392087
0.0411368
0.0430551
0.044963
0.0468597
0.0487447
0.0506174
0.0524774
0.0543242
0.0561575
0.057977
0.0597823
0.0615731
0.0633493
0.0651106
0.0668569
0.068588
0.0703037
0.072004
0.0736887
0.0753578
0.0770113
0.0786489
0.0802708
0.0818769
0.0834672
0.0850417
0.0866004
0.0881433
0.0896704
0.0911818
0.0926775
0.0941575
0.000618474
0.00115744
0.00207334
0.00339231
0.0050266
0.00684205
0.00873481
0.0106529
0.0125794
0.0145121
0.0164517
0.0183986
0.020352
0.0223102
0.0242715
0.0262339
0.0281957
0.0301553
0.032111
0.0340617
0.036006
0.0379429
0.0398715
0.0417908
0.0437
0.0455986
0.0474857
0.049361
0.0512239
0.0530738
0.0549105
0.0567336
0.0585427
0.0603376
0.0621181
0.0638838
0.0656345
0.0673703
0.0690908
0.0707959
0.0724857
0.0741598
0.0758184
0.0774613
0.0790884
0.0806999
0.0822955
0.0838754
0.0854396
0.0869879
0.0885206
0.0900375
0.0915387
0.0930243
0.0944942
0.000802513
0.00148516
0.00256749
0.00402626
0.00574425
0.00759438
0.00949512
0.0114118
0.0133353
0.0152653
0.0172027
0.0191471
0.0210974
0.0230518
0.0250085
0.0269656
0.0289214
0.0308743
0.0328229
0.0347659
0.0367022
0.0386306
0.0405503
0.0424605
0.0443604
0.0462493
0.0481267
0.049992
0.0518447
0.0536844
0.0555107
0.0573233
0.0591219
0.0609061
0.0626758
0.0644308
0.0661708
0.0678958
0.0696055
0.0712998
0.0729788
0.0746421
0.0762899
0.0779221
0.0795385
0.0811392
0.0827242
0.0842935
0.0858471
0.0873849
0.0889071
0.0904136
0.0919045
0.0933797
0.0948394
0.00104971
0.00189452
0.00314111
0.00472032
0.006502
0.00837552
0.0102809
0.0121966
0.0141186
0.0160474
0.0179834
0.0199259
0.0218735
0.0238245
0.0257768
0.0277288
0.0296787
0.0316251
0.0335666
0.035502
0.0374301
0.03935
0.0412609
0.0431619
0.0450523
0.0469314
0.0487988
0.050654
0.0524963
0.0543255
0.0561412
0.057943
0.0597308
0.0615041
0.0632628
0.0650067
0.0667356
0.0684494
0.070148
0.0718312
0.0734989
0.0751511
0.0767877
0.0784087
0.080014
0.0816036
0.0831775
0.0847357
0.0862783
0.0878052
0.0893164
0.090812
0.0922921
0.0937566
0.0952056
0.00104973
0.00189468
0.00314141
0.00472071
0.0065024
0.00837588
0.0102812
0.0121969
0.0141188
0.0160475
0.0179835
0.019926
0.0218736
0.0238245
0.0257768
0.0277288
0.0296787
0.0316251
0.0335666
0.0355019
0.03743
0.03935
0.0412608
0.0431618
0.0450522
0.0469314
0.0487988
0.0506539
0.0524962
0.0543254
0.0561411
0.0579429
0.0597306
0.061504
0.0632627
0.0650066
0.0667355
0.0684493
0.0701479
0.0718311
0.0734988
0.075151
0.0767876
0.0784086
0.0800139
0.0816035
0.0831774
0.0847356
0.0862782
0.0878051
0.0893163
0.090812
0.0922921
0.0937566
0.0952056
0.000802594
0.00148567
0.00256847
0.00402752
0.00574554
0.00759553
0.00949605
0.0114125
0.0133358
0.0152657
0.0172029
0.0191473
0.0210975
0.0230518
0.0250085
0.0269655
0.0289213
0.0308742
0.0328227
0.0347657
0.0367019
0.0386303
0.04055
0.0424602
0.0443601
0.046249
0.0481264
0.0499916
0.0518443
0.053684
0.0555103
0.0573229
0.0591215
0.0609058
0.0626755
0.0644304
0.0661705
0.0678954
0.0696051
0.0712995
0.0729784
0.0746418
0.0762896
0.0779217
0.0795381
0.0811389
0.0827239
0.0842932
0.0858468
0.0873846
0.0889068
0.0904133
0.0919043
0.0933796
0.0948395
0.0962839
0.0977129
0.0991266
0.100525
0.000619181
0.00115901
0.00207574
0.00339512
0.00502926
0.00684421
0.0087364
0.010654
0.0125801
0.0145125
0.0164519
0.0183987
0.0203519
0.0223101
0.0242713
0.0262337
0.0281954
0.0301549
0.0321106
0.0340612
0.0360055
0.0379424
0.0398709
0.0417902
0.0436995
0.045598
0.0474851
0.0493604
0.0512232
0.0530732
0.0549099
0.056733
0.0585421
0.060337
0.0621174
0.0638831
0.0656339
0.0673696
0.0690901
0.0707953
0.072485
0.0741592
0.0758177
0.0774606
0.0790878
0.0806992
0.0822949
0.0838748
0.085439
0.0869874
0.08852
0.090037
0.0915383
0.093024
0.0944941
0.0959487
0.0973879
0.0988116
0.10022
0.101613
0.000484449
0.000903321
0.00166156
0.00282881
0.00435831
0.00612231
0.00799851
0.00991499
0.0118438
0.0137789
0.0157206
0.0176697
0.0196257
0.0215873
0.0235527
0.0255201
0.0274875
0.0294532
0.0314157
0.0333737
0.0353257
0.0372708
0.0392078
0.0411359
0.0430542
0.0449621
0.0468588
0.0487437
0.0506164
0.0524764
0.0543233
0.0561566
0.057976
0.0597813
0.0615721
0.0633483
0.0651096
0.0668559
0.068587
0.0703027
0.072003
0.0736877
0.0753568
0.0770102
0.0786479
0.0802698
0.0818759
0.0834662
0.0850407
0.0865994
0.0881423
0.0896695
0.0911809
0.0926767
0.0941568
0.0956214
0.0970705
0.0985041
0.0999223
0.101325
0.102713
0.104086
0.105443
0.106786
0.108114
0.109427
0.110725
0.112009
0.113279
0.114534
0.115775
0.117002
0.118215
0.119414
0.120599
0.121771
0.122929
0.124074
0.125206
0.126325
0.12743
0.128523
0.129603
0.13067
0.131725
0.132767
0.133797
0.134816
0.135822
0.136816
0.137799
0.13877
0.139729
0.140677
0.141614
0.000386521
0.000707346
0.00132229
0.00233363
0.00374079
0.0054364
0.00728654
0.00919816
0.0111289
0.0130668
0.015011
0.0169623
0.0189209
0.0208856
0.0228549
0.0248268
0.0267994
0.0287711
0.0307401
0.032705
0.0346645
0.0366174
0.0385626
0.0404992
0.0424263
0.0443431
0.046249
0.0481434
0.0500257
0.0518954
0.0537521
0.0555953
0.0574248
0.0592402
0.0610412
0.0628276
0.0645991
0.0663557
0.068097
0.0698231
0.0715337
0.0732287
0.0749081
0.0765718
0.0782197
0.0798518
0.0814681
0.0830686
0.0846532
0.0862219
0.0877749
0.089312
0.0908333
0.0923389
0.0938289
0.0953032
0.0967619
0.0982051
0.0996329
0.101045
0.102443
0.103824
0.105191
0.106543
0.10788
0.109202
0.11051
0.111802
0.113081
0.114345
0.115594
0.11683
0.118051
0.119259
0.120452
0.121632
0.122798
0.123951
0.125091
0.126217
0.127331
0.128431
0.129519
0.130593
0.131656
0.132706
0.133743
0.134768
0.135782
0.136783
0.137773
0.13875
0.139717
0.140672
0.141615
0.000315936
0.000559956
0.00105131
0.00191085
0.00318263
0.00479226
0.00660429
0.00850585
0.0104373
0.012378
0.0143247
0.0162783
0.0182392
0.0202068
0.0221796
0.0241557
0.0261333
0.0281105
0.0300856
0.0320571
0.0340237
0.035984
0.0379371
0.0398818
0.0418173
0.0437428
0.0456577
0.0475611
0.0494527
0.0513317
0.0531979
0.0550508
0.0568899
0.0587151
0.060526
0.0623223
0.0641038
0.0658703
0.0676216
0.0693577
0.0710783
0.0727833
0.0744727
0.0761463
0.0778042
0.0794462
0.0810724
0.0826827
0.0842772
0.0858557
0.0874183
0.0889651
0.0904961
0.0920113
0.0935108
0.0949945
0.0964626
0.0979152
0.0993522
0.100774
0.10218
0.103571
0.104947
0.106308
0.107653
0.108984
0.1103
0.111602
0.112889
0.114161
0.115419
0.116663
0.117892
0.119108
0.12031
0.121497
0.122672
0.123832
0.12498
0.126114
0.127235
0.128342
0.129437
0.13052
0.131589
0.132646
0.133691
0.134723
0.135743
0.136751
0.137748
0.138732
0.139705
0.140667
0.141617
0.000265029
0.000449944
0.000838173
0.00155689
0.00268761
0.00419608
0.0059568
0.00784135
0.00977106
0.0117143
0.0136636
0.0156194
0.0175825
0.0195527
0.0215286
0.0235086
0.0254907
0.0274731
0.0294539
0.0314317
0.0334049
0.0353724
0.0373329
0.0392854
0.041229
0.0431628
0.0450862
0.0469984
0.0488988
0.0507869
0.0526622
0.0545244
0.0563729
0.0582075
0.0600279
0.0618337
0.0636248
0.0654009
0.0671619
0.0689076
0.0706379
0.0723526
0.0740516
0.0757349
0.0774024
0.0790541
0.0806898
0.0823096
0.0839136
0.0855015
0.0870736
0.0886298
0.0901701
0.0916945
0.0932032
0.094696
0.0961732
0.0976348
0.0990808
0.100511
0.101926
0.103326
0.104711
0.10608
0.107434
0.108774
0.110098
0.111408
0.112703
0.113983
0.11525
0.116501
0.117739
0.118962
0.120172
0.121367
0.122549
0.123718
0.124872
0.126014
0.127142
0.128257
0.129359
0.130448
0.131525
0.132589
0.13364
0.134679
0.135706
0.136721
0.137724
0.138715
0.139694
0.140662
0.141618
0.000228365
0.000368512
0.000673383
0.00126687
0.00225711
0.00365214
0.00534787
0.00720709
0.00913188
0.0110769
0.0130289
0.014987
0.0169523
0.0189248
0.0209036
0.0228871
0.0248734
0.0268605
0.0288467
0.0308303
0.0328099
0.0347841
0.0367517
0.0387116
0.0406629
0.0426046
0.0445361
0.0464567
0.0483656
0.0502623
0.0521465
0.0540175
0.055875
0.0577187
0.0595481
0.0613632
0.0631635
0.0649489
0.0667191
0.0684741
0.0702137
0.0719377
0.073646
0.0753386
0.0770153
0.0786762
0.0803212
0.0819502
0.0835633
0.0851604
0.0867415
0.0883067
0.0898559
0.0913893
0.0929068
0.0944085
0.0958945
0.0973647
0.0988194
0.100258
0.101682
0.10309
0.104483
0.105861
0.107223
0.108571
0.109903
0.111221
0.112524
0.113813
0.115086
0.116346
0.117591
0.118822
0.120039
0.121242
0.122431
0.123607
0.124769
0.125918
0.127053
0.128175
0.129284
0.13038
0.131463
0.132534
0.133592
0.134638
0.135671
0.136692
0.137701
0.138699
0.139684
0.140658
0.14162
0.000201966
0.000308459
0.000547494
0.00103341
0.00188949
0.00316332
0.00478134
0.00660593
0.00852162
0.0104673
0.012422
0.0143826
0.0163499
0.0183246
0.020306
0.0222927
0.0242827
0.0262742
0.0282654
0.0302545
0.03224
0.0342206
0.0361948
0.0381618
0.0401203
0.0420696
0.0440089
0.0459373
0.0478544
0.0497594
0.0516519
0.0535314
0.0553975
0.0572498
0.059088
0.0609118
0.062721
0.0645152
0.0662944
0.0680583
0.0698067
0.0715396
0.0732569
0.0749583
0.076644
0.0783137
0.0799675
0.0816054
0.0832272
0.084833
0.0864228
0.0879967
0.0895545
0.0910965
0.0926225
0.0941326
0.095627
0.0971056
0.0985685
0.100016
0.101448
0.102864
0.104265
0.10565
0.107021
0.108376
0.109717
0.111042
0.112353
0.113649
0.11493
0.116197
0.117449
0.118688
0.119912
0.121122
0.122318
0.123501
0.12467
0.125825
0.126967
0.128096
0.129212
0.130314
0.131404
0.132481
0.133546
0.134598
0.135637
0.136664
0.13768
0.138683
0.139674
0.140654
0.141622
0.000182936
0.000264065
0.000451724
0.000847509
0.00158026
0.00273071
0.00426072
0.00604116
0.00794262
0.00988722
0.0118443
0.0138073
0.0157767
0.0177534
0.0197371
0.0217267
0.0237202
0.0257157
0.0277115
0.0297057
0.0316967
0.0336832
0.0356638
0.0376373
0.0396028
0.0415592
0.0435058
0.0454418
0.0473665
0.0492794
0.0511798
0.0530674
0.0549417
0.0568022
0.0586487
0.0604809
0.0622985
0.0641011
0.0658888
0.0676611
0.0694181
0.0711595
0.0728852
0.0745952
0.0762893
0.0779675
0.0796297
0.081276
0.0829062
0.0845203
0.0861185
0.0877006
0.0892666
0.0908167
0.0923509
0.0938691
0.0953715
0.0968581
0.0983289
0.0997841
0.101224
0.102648
0.104056
0.10545
0.106828
0.10819
0.109538
0.110871
0.112189
0.113492
0.114781
0.116055
0.117314
0.118559
0.11979
0.121007
0.122211
0.1234
0.124575
0.125737
0.126886
0.128021
0.129143
0.130252
0.131348
0.132431
0.133501
0.134559
0.135605
0.136638
0.137659
0.138668
0.139665
0.140651
0.141624
0.000169268
0.000231228
0.000379225
0.000701257
0.00132428
0.0023537
0.00378805
0.00551509
0.00739656
0.00933783
0.0112969
0.0132623
0.0152337
0.0172123
0.0191982
0.0211903
0.0231869
0.0251862
0.0271862
0.0291851
0.0311813
0.0331733
0.0351598
0.0371395
0.0391114
0.0410746
0.0430281
0.0449712
0.0469031
0.0488234
0.0507314
0.0526266
0.0545086
0.056377
0.0582314
0.0600715
0.061897
0.0637077
0.0655033
0.0672837
0.0690487
0.0707982
0.072532
0.07425
0.0759522
0.0776384
0.0793087
0.0809629
0.082601
0.0842231
0.0858291
0.0874191
0.088993
0.0905508
0.0920927
0.0936186
0.0951286
0.0966228
0.0981011
0.0995638
0.101011
0.102442
0.103858
0.105259
0.106644
0.108014
0.109368
0.110708
0.112033
0.113343
0.114638
0.115919
0.117185
0.118437
0.119675
0.120899
0.122108
0.123304
0.124485
0.125654
0.126808
0.12795
0.129078
0.130192
0.131294
0.132383
0.13346
0.134523
0.135574
0.136613
0.13764
0.138654
0.139657
0.140647
0.141626
0.000159527
0.000206931
0.000324519
0.000587384
0.00111559
0.00203011
0.00336419
0.00502951
0.00688496
0.00882026
0.0107805
0.0127484
0.014722
0.0167025
0.0186903
0.0206848
0.0226842
0.0246869
0.0266907
0.028694
0.0306949
0.0326921
0.034684
0.0366695
0.0386475
0.0406169
0.0425769
0.0445267
0.0464655
0.0483927
0.0503078
0.0522102
0.0540994
0.0559752
0.057837
0.0596845
0.0615176
0.0633358
0.065139
0.066927
0.0686996
0.0704567
0.0721981
0.0739238
0.0756335
0.0773273
0.0790051
0.0806669
0.0823126
0.0839421
0.0855556
0.087153
0.0887342
0.0902994
0.0918486
0.0933818
0.094899
0.0964003
0.0978858
0.0993555
0.100809
0.102248
0.103671
0.105078
0.10647
0.107847
0.109208
0.110554
0.111886
0.113202
0.114504
0.115791
0.117064
0.118322
0.119566
0.120796
0.122011
0.123213
0.1244
0.125575
0.126735
0.127882
0.129016
0.130136
0.131244
0.132338
0.13342
0.134489
0.135546
0.13659
0.137621
0.138641
0.139649
0.140644
0.141628
0.000152646
0.000188862
0.000283037
0.000498752
0.000946459
0.00175532
0.00298884
0.00458637
0.00641006
0.00833633
0.0102968
0.012267
0.0142427
0.0162249
0.0182146
0.0202111
0.0222131
0.0242188
0.0262262
0.0282334
0.0302387
0.0322406
0.0342376
0.0362285
0.0382121
0.0401874
0.0421534
0.0441094
0.0460545
0.0479883
0.04991
0.0518191
0.0537152
0.0555978
0.0574665
0.0593211
0.0611611
0.0629865
0.0647968
0.0665919
0.0683717
0.0701359
0.0718844
0.0736172
0.0753341
0.077035
0.0787199
0.0803888
0.0820415
0.0836781
0.0852986
0.0869029
0.0884911
0.0900632
0.0916192
0.0931592
0.0946832
0.0961912
0.0976834
0.0991597
0.10062
0.102065
0.103494
0.104908
0.106307
0.10769
0.109057
0.11041
0.111748
0.11307
0.114378
0.115671
0.11695
0.118214
0.119463
0.120699
0.12192
0.123127
0.124321
0.1255
0.126666
0.127819
0.128958
0.130084
0.131196
0.132296
0.133383
0.134457
0.135519
0.136568
0.137604
0.138629
0.139641
0.140641
0.14163
0.000147867
0.0001754
0.000251478
0.000429869
0.000810377
0.00152447
0.00266032
0.00418626
0.00597319
0.00788732
0.00984677
0.011819
0.0137967
0.0157807
0.0177719
0.0197703
0.0217746
0.023783
0.0257936
0.0278044
0.0298138
0.03182
0.0338217
0.0358175
0.0378063
0.0397869
0.0417585
0.0437203
0.0456714
0.0476111
0.049539
0.0514543
0.0533567
0.0552457
0.057121
0.058982
0.0608287
0.0626606
0.0644775
0.0662793
0.0680657
0.0698365
0.0715918
0.0733312
0.0750547
0.0767623
0.0784538
0.0801292
0.0817885
0.0834317
0.0850587
0.0866695
0.0882642
0.0898427
0.0914051
0.0929515
0.0944818
0.0959961
0.0974945
0.098977
0.100444
0.101895
0.10333
0.10475
0.106154
0.107543
0.108917
0.110275
0.111618
0.112947
0.11426
0.115559
0.116843
0.118113
0.119368
0.120608
0.121835
0.123048
0.124246
0.125431
0.126602
0.12776
0.128904
0.130034
0.131152
0.132257
0.133348
0.134427
0.135493
0.136547
0.137588
0.138617
0.139634
0.140639
0.141632
0.000144632
0.000165386
0.000227439
0.000376468
0.00070176
0.00133284
0.00237639
0.00382907
0.0055751
0.00747409
0.00943119
0.011405
0.0133848
0.0153704
0.0173632
0.0193633
0.0213696
0.0233804
0.0253938
0.0274079
0.0294209
0.0314311
0.0334371
0.0354374
0.0374309
0.0394165
0.0413933
0.0433603
0.0453169
0.0472622
0.0491957
0.0511168
0.0530251
0.05492
0.0568011
0.0586682
0.0605209
0.0623589
0.064182
0.0659899
0.0677824
0.0695594
0.0713208
0.0730664
0.074796
0.0765097
0.0782074
0.0798889
0.0815543
0.0832036
0.0848366
0.0864534
0.0880541
0.0896386
0.0912069
0.0927591
0.0942953
0.0958154
0.0973196
0.0988078
0.10028
0.101737
0.103178
0.104603
0.106013
0.107407
0.108786
0.11015
0.111499
0.112832
0.114151
0.115455
0.116744
0.118019
0.119279
0.120525
0.121756
0.122974
0.124177
0.125367
0.126543
0.127705
0.128854
0.129989
0.131111
0.13222
0.133316
0.134399
0.13547
0.136528
0.137573
0.138607
0.139628
0.140637
0.141634
0.000142521
0.000157959
0.000209113
0.000335155
0.000615705
0.00117562
0.00213411
0.00351391
0.00521614
0.00709732
0.00905076
0.0110258
0.0130075
0.0149948
0.016989
0.0189906
0.0209988
0.0230118
0.0250278
0.0270448
0.0290611
0.0310748
0.0330846
0.0350891
0.0370869
0.0390771
0.0410585
0.0430304
0.0449919
0.0469423
0.048881
0.0508073
0.0527209
0.0546212
0.0565079
0.0583805
0.0602387
0.0620822
0.0639109
0.0657244
0.0675226
0.0693052
0.0710722
0.0728234
0.0745588
0.0762781
0.0779813
0.0796685
0.0813395
0.0829943
0.0846328
0.0862552
0.0878613
0.0894513
0.091025
0.0925827
0.0941242
0.0956496
0.0971591
0.0986526
0.10013
0.101592
0.103038
0.104469
0.105883
0.107283
0.108667
0.110036
0.111389
0.112728
0.114051
0.11536
0.116654
0.117933
0.119198
0.120448
0.121684
0.122906
0.124114
0.125308
0.126488
0.127655
0.128808
0.129947
0.131073
0.132187
0.133287
0.134374
0.135449
0.13651
0.13756
0.138597
0.139622
0.140634
0.141635
0.000141213
0.000152456
0.000195072
0.000303051
0.000547478
0.00104714
0.00192925
0.0032393
0.00489671
0.00675813
0.00870666
0.0106824
0.0126659
0.0146547
0.0166503
0.0186533
0.020663
0.0226779
0.0246962
0.0267158
0.028735
0.030752
0.0327653
0.0347734
0.0367751
0.0387693
0.040755
0.0427312
0.0446972
0.0466522
0.0485955
0.0505267
0.0524451
0.0543503
0.0562418
0.0581194
0.0599827
0.0618313
0.063665
0.0654836
0.0672869
0.0690746
0.0708467
0.0726031
0.0743435
0.0760679
0.0777763
0.0794685
0.0811445
0.0828043
0.0844479
0.0860753
0.0876864
0.0892813
0.09086
0.0924225
0.0939689
0.0954992
0.0970135
0.0985117
0.0999941
0.101461
0.102911
0.104346
0.105766
0.10717
0.108558
0.109932
0.11129
0.112632
0.11396
0.115273
0.116571
0.117855
0.119124
0.120378
0.121619
0.122845
0.124056
0.125254
0.126439
0.127609
0.128766
0.129909
0.131039
0.132156
0.13326
0.134351
0.135429
0.136495
0.137547
0.138588
0.139616
0.140632
0.141637
0.000140471
0.000148394
0.000184294
0.00027807
0.00049352
0.000942895
0.00175788
0.00300313
0.00461637
0.00645697
0.00839961
0.0103756
0.0123606
0.0143509
0.0163477
0.0183519
0.020363
0.0223795
0.0243998
0.0264217
0.0284434
0.0304633
0.0324796
0.034491
0.0364962
0.038494
0.0404834
0.0424635
0.0444335
0.0463925
0.0483401
0.0502755
0.0521982
0.0541077
0.0560037
0.0578857
0.0597535
0.0616066
0.0634448
0.065268
0.0670758
0.0688682
0.0706448
0.0724057
0.0741507
0.0758797
0.0775926
0.0792894
0.0809699
0.0826343
0.0842824
0.0859142
0.0875298
0.0891291
0.0907122
0.0922791
0.0938299
0.0953645
0.096883
0.0983856
0.0998722
0.101343
0.102798
0.104237
0.105661
0.107069
0.108461
0.109838
0.1112
0.112547
0.113879
0.115196
0.116498
0.117785
0.119058
0.120316
0.12156
0.12279
0.124005
0.125207
0.126394
0.127568
0.128728
0.129875
0.131009
0.132129
0.133236
0.13433
0.135412
0.13648
0.137536
0.13858
0.139611
0.140631
0.141638
0.000140115
0.000145418
0.000176034
0.000258671
0.000451061
0.000859079
0.00161636
0.00280311
0.00437437
0.00619404
0.00813016
0.0101059
0.0120923
0.0140839
0.0160818
0.018087
0.0200992
0.0221172
0.0241392
0.0261631
0.028187
0.0302093
0.0322283
0.0342425
0.0362507
0.0382517
0.0402444
0.0422279
0.0442014
0.046164
0.0481152
0.0500543
0.0519808
0.0538942
0.0557941
0.05768
0.0595517
0.0614088
0.063251
0.0650782
0.06689
0.0686864
0.0704671
0.072232
0.073981
0.075714
0.0774309
0.0791317
0.0808162
0.0824845
0.0841366
0.0857724
0.0873919
0.0889951
0.0905821
0.0921528
0.0937074
0.0952458
0.0967682
0.0982745
0.0997648
0.101239
0.102698
0.104141
0.105568
0.10698
0.108376
0.109756
0.111122
0.112472
0.113807
0.115128
0.116433
0.117724
0.119
0.120261
0.121508
0.122741
0.12396
0.125164
0.126355
0.127532
0.128695
0.129845
0.130982
0.132105
0.133215
0.134312
0.135396
0.136468
0.137527
0.138573
0.139607
0.140629
0.141639
0.000140008
0.000143261
0.000169745
0.000243708
0.000417954
0.000792552
0.00150143
0.00263695
0.00416978
0.00596934
0.00789871
0.00987384
0.0118614
0.0138541
0.015853
0.0178591
0.0198723
0.0218915
0.0239148
0.0259404
0.0279663
0.0299906
0.0320119
0.0340286
0.0360393
0.038043
0.0400385
0.0420249
0.0440014
0.0459672
0.0479215
0.0498638
0.0517936
0.0537103
0.0556135
0.0575028
0.0593778
0.0612383
0.063084
0.0649146
0.0667299
0.0685297
0.0703139
0.0720822
0.0738347
0.0755712
0.0772915
0.0789957
0.0806837
0.0823555
0.0840109
0.0856501
0.087273
0.0888796
0.0904699
0.092044
0.0936018
0.0951436
0.0966692
0.0981787
0.0996723
0.10115
0.102612
0.104058
0.105488
0.106903
0.108302
0.109686
0.111054
0.112407
0.113746
0.115069
0.116377
0.117671
0.118949
0.120214
0.121464
0.122699
0.123921
0.125128
0.126321
0.127501
0.128667
0.12982
0.130959
0.132084
0.133197
0.134296
0.135383
0.136457
0.137518
0.138567
0.139604
0.140628
0.14164
0.000140048
0.000141723
0.000165024
0.000232331
0.000392559
0.00074078
0.00141022
0.00250248
0.00400158
0.00578273
0.00770555
0.00967986
0.0116683
0.013662
0.0156616
0.0176685
0.0196825
0.0217027
0.0237272
0.0257542
0.0277816
0.0298077
0.0318308
0.0338495
0.0358625
0.0378684
0.0398663
0.0418551
0.0438341
0.0458024
0.0477594
0.0497044
0.0516368
0.0535563
0.0554623
0.0573544
0.0592323
0.0610956
0.0629442
0.0647776
0.0665958
0.0683985
0.0701856
0.0719569
0.0737122
0.0754516
0.0771748
0.0788819
0.0805728
0.0822474
0.0839057
0.0855477
0.0871734
0.0887828
0.0903759
0.0919528
0.0935135
0.0950579
0.0965863
0.0980985
0.0995948
0.101075
0.102539
0.103988
0.105421
0.106838
0.10824
0.109626
0.110997
0.112353
0.113694
0.115019
0.11633
0.117626
0.118907
0.120174
0.121426
0.122664
0.123888
0.125098
0.126293
0.127475
0.128643
0.129798
0.130939
0.132067
0.133182
0.134283
0.135372
0.136448
0.137511
0.138562
0.1396
0.140627
0.141641
0.000140156
0.000140654
0.000161573
0.000223924
0.00037367
0.000701845
0.00134053
0.00239785
0.0038687
0.00563387
0.00755074
0.00952415
0.0115132
0.0135078
0.0155081
0.0175156
0.0195303
0.0215512
0.0235767
0.0256047
0.0276334
0.0296609
0.0316855
0.0337058
0.0357205
0.0377282
0.039728
0.0417188
0.0436997
0.0456701
0.0476292
0.0495763
0.051511
0.0534326
0.0553409
0.0572352
0.0591154
0.060981
0.0628319
0.0646677
0.0664882
0.0682932
0.0700826
0.0718562
0.0736139
0.0753555
0.0770811
0.0787905
0.0804837
0.0821606
0.0838212
0.0854655
0.0870935
0.0887051
0.0903005
0.0918796
0.0934425
0.0949891
0.0965197
0.0980341
0.0995325
0.101015
0.102482
0.103932
0.105367
0.106787
0.108191
0.109579
0.110952
0.11231
0.113652
0.11498
0.116293
0.11759
0.118874
0.120142
0.121396
0.122636
0.123862
0.125073
0.126271
0.127454
0.128624
0.129781
0.130923
0.132053
0.133169
0.134273
0.135363
0.136441
0.137506
0.138558
0.139598
0.140626
0.141642
0.000140279
0.000139942
0.000159169
0.00021801
0.000360314
0.000674083
0.00129022
0.0023212
0.00377011
0.00552255
0.00743449
0.00940705
0.0113966
0.0133918
0.0153927
0.0174006
0.0194158
0.0214373
0.0234635
0.0254923
0.0275219
0.0295505
0.0315762
0.0335978
0.0356137
0.0376228
0.0396239
0.0416162
0.0435987
0.0455706
0.0475313
0.04948
0.0514163
0.0533396
0.0552495
0.0571456
0.0590275
0.0608948
0.0627474
0.0645849
0.0664072
0.0682139
0.0700051
0.0717804
0.0735399
0.0752833
0.0770106
0.0787218
0.0804167
0.0820953
0.0837576
0.0854036
0.0870333
0.0886467
0.0902437
0.0918245
0.0933891
0.0949374
0.0964696
0.0979856
0.0994857
0.10097
0.102438
0.10389
0.105327
0.106748
0.108153
0.109543
0.110918
0.112277
0.113621
0.11495
0.116264
0.117564
0.118848
0.120118
0.121374
0.122615
0.123842
0.125055
0.126254
0.127439
0.12861
0.129767
0.130912
0.132043
0.13316
0.134265
0.135356
0.136435
0.137501
0.138555
0.139596
0.140625
0.141642
0.000140383
0.000139512
0.000157652
0.000214243
0.00035177
0.000656212
0.00125754
0.00227093
0.00370494
0.00544854
0.00735698
0.00932887
0.0113187
0.0133144
0.0153156
0.0173238
0.0193393
0.0213613
0.0233879
0.0254173
0.0274475
0.0294767
0.0315032
0.0335256
0.0355424
0.0375523
0.0395545
0.0415477
0.0435312
0.0455041
0.0474658
0.0494157
0.0513531
0.0532775
0.0551885
0.0570857
0.0589687
0.0608372
0.062691
0.0645297
0.0663531
0.068161
0.0699533
0.0717298
0.0734904
0.075235
0.0769635
0.0786758
0.0803719
0.0820517
0.0837151
0.0853623
0.0869931
0.0886076
0.0902058
0.0917877
0.0933534
0.0949028
0.0964361
0.0979533
0.0994544
0.10094
0.102409
0.103862
0.1053
0.106722
0.108128
0.109519
0.110895
0.112255
0.1136
0.11493
0.116245
0.117546
0.118831
0.120102
0.121359
0.122601
0.123829
0.125042
0.126242
0.127428
0.1286
0.129759
0.130904
0.132036
0.133154
0.134259
0.135352
0.136432
0.137499
0.138553
0.139595
0.140625
0.141642
0.000140444
0.000139313
0.000156922
0.000212415
0.000347607
0.000647469
0.00124147
0.00224606
0.00367252
0.00541161
0.00731822
0.00928975
0.0112797
0.0132756
0.015277
0.0172853
0.0193011
0.0213232
0.02335
0.0253797
0.0274102
0.0294398
0.0314667
0.0334894
0.0355066
0.0375171
0.0395197
0.0415134
0.0434974
0.0454708
0.0474331
0.0493835
0.0513214
0.0532464
0.055158
0.0570557
0.0589393
0.0608084
0.0626627
0.064502
0.066326
0.0681345
0.0699274
0.0717045
0.0734657
0.0752108
0.0769399
0.0786528
0.0803494
0.0820298
0.0836939
0.0853416
0.086973
0.088588
0.0901868
0.0917693
0.0933355
0.0948855
0.0964193
0.097937
0.0994387
0.100924
0.102394
0.103848
0.105286
0.106709
0.108116
0.109507
0.110883
0.112244
0.11359
0.11492
0.116236
0.117537
0.118823
0.120094
0.121351
0.122594
0.123822
0.125036
0.126236
0.127423
0.128595
0.129754
0.1309
0.132032
0.133151
0.134257
0.13535
0.13643
0.137497
0.138552
0.139594
0.140624
0.141643
0.000140452
0.000139321
0.000156932
0.000212426
0.000347622
0.000647487
0.00124149
0.00224608
0.00367254
0.00541162
0.00731822
0.00928975
0.0112797
0.0132756
0.0152769
0.0172853
0.0193011
0.0213232
0.02335
0.0253797
0.0274102
0.0294398
0.0314667
0.0334894
0.0355066
0.0375171
0.0395196
0.0415134
0.0434974
0.0454708
0.0474331
0.0493834
0.0513214
0.0532464
0.0551579
0.0570557
0.0589393
0.0608084
0.0626627
0.0645019
0.0663259
0.0681345
0.0699273
0.0717045
0.0734656
0.0752108
0.0769399
0.0786528
0.0803494
0.0820298
0.0836938
0.0853416
0.086973
0.088588
0.0901868
0.0917692
0.0933355
0.0948855
0.0964193
0.097937
0.0994387
0.100924
0.102394
0.103848
0.105286
0.106709
0.108116
0.109507
0.110883
0.112244
0.11359
0.11492
0.116236
0.117537
0.118823
0.120094
0.121351
0.122594
0.123822
0.125036
0.126236
0.127423
0.128595
0.129754
0.1309
0.132032
0.133151
0.134257
0.13535
0.13643
0.137497
0.138552
0.139594
0.140624
0.141642
0.000140407
0.000139538
0.000157681
0.000214278
0.000351814
0.000656268
0.00125761
0.002271
0.00370498
0.00544857
0.00735698
0.00932886
0.0113187
0.0133143
0.0153155
0.0173237
0.0193393
0.0213612
0.0233878
0.0254172
0.0274474
0.0294767
0.0315032
0.0335255
0.0355423
0.0375523
0.0395544
0.0415476
0.0435311
0.0455041
0.0474658
0.0494156
0.051353
0.0532774
0.0551884
0.0570856
0.0589687
0.0608372
0.0626909
0.0645296
0.066353
0.0681609
0.0699532
0.0717297
0.0734904
0.0752349
0.0769634
0.0786757
0.0803718
0.0820516
0.0837151
0.0853622
0.086993
0.0886075
0.0902057
0.0917876
0.0933533
0.0949027
0.096436
0.0979532
0.0994543
0.100939
0.102409
0.103862
0.1053
0.106722
0.108128
0.109519
0.110895
0.112255
0.1136
0.11493
0.116245
0.117546
0.118831
0.120102
0.121359
0.122601
0.123829
0.125042
0.126242
0.127428
0.1286
0.129759
0.130904
0.132035
0.133154
0.134259
0.135352
0.136432
0.137498
0.138553
0.139595
0.140624
0.141642
0.000140319
0.000139986
0.000159218
0.000218068
0.000360387
0.000674175
0.00129032
0.0023213
0.00377018
0.00552259
0.0074345
0.00940703
0.0113966
0.0133918
0.0153926
0.0174005
0.0194157
0.0214373
0.0234634
0.0254923
0.0275218
0.0295504
0.0315761
0.0335977
0.0356136
0.0376227
0.0396238
0.0416161
0.0435986
0.0455705
0.0475311
0.0494799
0.0514162
0.0533395
0.0552494
0.0571455
0.0590273
0.0608947
0.0627473
0.0645848
0.066407
0.0682138
0.070005
0.0717803
0.0735397
0.0752832
0.0770105
0.0787216
0.0804165
0.0820952
0.0837575
0.0854035
0.0870332
0.0886465
0.0902436
0.0918244
0.0933889
0.0949373
0.0964694
0.0979855
0.0994855
0.10097
0.102438
0.10389
0.105327
0.106748
0.108153
0.109543
0.110918
0.112277
0.113621
0.11495
0.116264
0.117563
0.118848
0.120118
0.121374
0.122615
0.123842
0.125055
0.126253
0.127438
0.12861
0.129767
0.130912
0.132042
0.13316
0.134265
0.135356
0.136435
0.137501
0.138555
0.139596
0.140625
0.141642
0.000140212
0.000140715
0.000161642
0.000224006
0.000373773
0.000701974
0.00134068
0.00239798
0.00386879
0.00563392
0.00755074
0.00952411
0.0115132
0.0135077
0.015508
0.0175155
0.0195302
0.0215511
0.0235766
0.0256046
0.0276333
0.0296607
0.0316854
0.0337057
0.0357203
0.037728
0.0397278
0.0417186
0.0436996
0.0456699
0.047629
0.0495762
0.0515108
0.0534325
0.0553407
0.057235
0.0591152
0.0609809
0.0628317
0.0646675
0.066488
0.068293
0.0700824
0.071856
0.0736137
0.0753554
0.0770809
0.0787903
0.0804835
0.0821604
0.083821
0.0854653
0.0870933
0.0887049
0.0903003
0.0918794
0.0934423
0.0949889
0.0965195
0.0980339
0.0995323
0.101015
0.102481
0.103932
0.105367
0.106786
0.10819
0.109579
0.110952
0.112309
0.113652
0.11498
0.116292
0.11759
0.118873
0.120142
0.121396
0.122636
0.123861
0.125073
0.12627
0.127454
0.128624
0.12978
0.130923
0.132053
0.133169
0.134273
0.135363
0.136441
0.137505
0.138558
0.139598
0.140626
0.141641
0.00014012
0.000141803
0.000165113
0.000232438
0.000392692
0.000740944
0.0014104
0.00250264
0.00400168
0.00578276
0.00770553
0.0096798
0.0116682
0.0136619
0.0156615
0.0176683
0.0196824
0.0217026
0.0237271
0.025754
0.0277814
0.0298075
0.0318307
0.0338494
0.0358623
0.0378682
0.039866
0.0418549
0.0438339
0.0458022
0.0477591
0.0497041
0.0516366
0.0535561
0.055462
0.0573541
0.059232
0.0610954
0.0629439
0.0647774
0.0665956
0.0683983
0.0701853
0.0719566
0.073712
0.0754513
0.0771746
0.0788817
0.0805725
0.0822471
0.0839054
0.0855475
0.0871732
0.0887826
0.0903757
0.0919526
0.0935132
0.0950577
0.096586
0.0980983
0.0995945
0.101075
0.102539
0.103988
0.105421
0.106838
0.10824
0.109626
0.110997
0.112353
0.113694
0.115019
0.11633
0.117626
0.118907
0.120174
0.121426
0.122664
0.123888
0.125097
0.126293
0.127475
0.128643
0.129798
0.130939
0.132067
0.133181
0.134283
0.135372
0.136448
0.137511
0.138562
0.1396
0.140626
0.141641
0.000140096
0.000143359
0.000169855
0.000243839
0.000418117
0.000792748
0.00150163
0.00263712
0.00416988
0.00596935
0.00789866
0.00987374
0.0118613
0.013854
0.0158528
0.0178589
0.0198721
0.0218913
0.0239146
0.0259402
0.027966
0.0299904
0.0320117
0.0340283
0.0360391
0.0380428
0.0400383
0.0420247
0.0440011
0.0459669
0.0479212
0.0498635
0.0517933
0.05371
0.0556132
0.0575025
0.0593775
0.061238
0.0630837
0.0649143