/*--------------------------------*- C++ -*----------------------------------*\
  =========                 |
  \\      /  F ield         | OpenFOAM: The Open Source CFD Toolbox
   \\    /   O peration     | Website:  https://openfoam.org
    \\  /    A nd           | Version:  7
     \\/     M anipulation  |
\*---------------------------------------------------------------------------*/
FoamFile
{
    version     2.0;
    format      ascii;
    class       volScalarField;
    location    "60000";
    object      strainRate;
}
// * * * * * * * * * * * * * * * * * * * * * * * * * * * * * * * * * * * * * //

dimensions      [0 0 -1 0 0 0 0];

internalField   nonuniform List<scalar> 
1777
(
0.0364423
0.0358839
0.0353929
0.034935
0.0345122
0.0341258
0.0337765
0.0334651
0.0331918
0.0329571
0.0377442
0.037167
0.0366579
0.0361833
0.0357453
0.035345
0.0349834
0.0346608
0.0343779
0.034135
0.0391089
0.0385116
0.0379835
0.0374913
0.0370373
0.0366225
0.0362477
0.0359135
0.0356204
0.0353687
0.0405407
0.0399222
0.039374
0.0388634
0.0383924
0.0379621
0.0375735
0.037227
0.0369231
0.0366622
0.0420444
0.0414035
0.0408341
0.0403039
0.039815
0.0393686
0.0389653
0.0386058
0.0382905
0.0380198
0.0436254
0.0429607
0.0423688
0.041818
0.0413102
0.0408466
0.0404278
0.0400546
0.0397273
0.0394463
0.0452892
0.0445993
0.0439838
0.0434111
0.0428834
0.0424015
0.0419664
0.0415786
0.0412385
0.0409466
0.0470423
0.0463256
0.045685
0.0450893
0.0445403
0.0440392
0.0435868
0.0431835
0.04283
0.0425265
0.0488914
0.0481464
0.0474792
0.046859
0.0462876
0.0457661
0.0452952
0.0448756
0.0445078
0.044192
0.0508442
0.050069
0.0493736
0.0487275
0.0481323
0.0475891
0.0470988
0.0466618
0.0462787
0.0459499
0.0529088
0.0521016
0.0513764
0.0507027
0.0500823
0.0495161
0.049005
0.0485496
0.0481503
0.0478077
0.0550946
0.0542533
0.0534964
0.0527935
0.0521462
0.0515555
0.0510223
0.0505473
0.0501309
0.0497734
0.0574116
0.056534
0.0557434
0.0550094
0.0543335
0.0537168
0.0531602
0.0526642
0.0522295
0.0518564
0.0598712
0.0589549
0.0581283
0.0573612
0.0566548
0.0560104
0.0554287
0.0549105
0.0544563
0.0540664
0.0624856
0.0615281
0.0606633
0.0598608
0.059122
0.058448
0.0578396
0.0572976
0.0568225
0.0564148
0.0652689
0.0642673
0.0633617
0.0625215
0.061748
0.0610424
0.0604055
0.0598381
0.0593407
0.0589139
0.0682364
0.0671878
0.0662386
0.065358
0.0645475
0.063808
0.0631406
0.062546
0.0620249
0.0615777
0.0714055
0.0703065
0.0693107
0.068387
0.0675367
0.0667611
0.0660609
0.0654372
0.0648906
0.0644215
0.0747955
0.0736426
0.0725968
0.0716268
0.0707341
0.0699195
0.0691843
0.0685294
0.0679554
0.0674629
0.0784281
0.0772174
0.076118
0.0750985
0.07416
0.0733037
0.0725309
0.0718424
0.0712391
0.0707213
0.0823279
0.0810551
0.0798981
0.0788253
0.0778377
0.0769366
0.0761233
0.0753987
0.0747637
0.0742188
0.0865225
0.0851829
0.0839641
0.0828338
0.0817933
0.080844
0.079987
0.0792236
0.0785546
0.0779805
0.0910431
0.0896317
0.0883462
0.0871542
0.0860566
0.0850552
0.0841512
0.0833459
0.0826401
0.0820345
0.0959253
0.0364423
0.0377442
0.0391089
0.0405407
0.0420444
0.0436254
0.0452892
0.0470423
0.0488914
0.0508442
0.0529088
0.0550946
0.0574116
0.0598712
0.0624856
0.0652689
0.0682364
0.0714055
0.0747955
0.0784281
0.0823279
0.0865225
0.0910431
0.0959253
0.0358839
0.037167
0.0385116
0.0399222
0.0414035
0.0429607
0.0445993
0.0463256
0.0481464
0.050069
0.0521016
0.0542533
0.056534
0.0589549
0.0615281
0.0642673
0.0671878
0.0703065
0.0736426
0.0772174
0.0810551
0.0851829
0.0896317
0.0944365
0.0353929
0.0366579
0.0379835
0.039374
0.0408341
0.0423688
0.0439838
0.045685
0.0474792
0.0493736
0.0513764
0.0534964
0.0557434
0.0581283
0.0606633
0.0633617
0.0662386
0.0693107
0.0725968
0.076118
0.0798981
0.0839641
0.0883462
0.0930792
0.034935
0.0361833
0.0374913
0.0388634
0.0403039
0.041818
0.0434111
0.0450893
0.046859
0.0487275
0.0507027
0.0527935
0.0550094
0.0573612
0.0598608
0.0625215
0.065358
0.068387
0.0716268
0.0750985
0.0788253
0.0828338
0.0871541
0.0918203
0.0345122
0.0357453
0.0370373
0.0383924
0.039815
0.0413102
0.0428834
0.0445403
0.0462876
0.0481323
0.0500823
0.0521462
0.0543335
0.0566548
0.059122
0.061748
0.0645475
0.0675367
0.070734
0.07416
0.0778377
0.0817933
0.0860566
0.0906613
0.0341258
0.035345
0.0366225
0.0379621
0.0393685
0.0408466
0.0424015
0.0440392
0.0457661
0.0475891
0.0495161
0.0515555
0.0537168
0.0560104
0.058448
0.0610424
0.063808
0.0667611
0.0699195
0.0733037
0.0769366
0.080844
0.0850552
0.0896036
0.0337765
0.0349834
0.0362477
0.0375735
0.0389653
0.0404278
0.0419664
0.0435868
0.0452952
0.0470988
0.049005
0.0510223
0.0531602
0.0554287
0.0578396
0.0604055
0.0631406
0.0660609
0.0691844
0.0725309
0.0761233
0.079987
0.0841512
0.0886488
0.0334651
0.0346608
0.0359135
0.037227
0.0386058
0.0400546
0.0415786
0.0431835
0.0448756
0.0466618
0.0485496
0.0505473
0.0526642
0.0549105
0.0572976
0.0598381
0.062546
0.0654372
0.0685294
0.0718424
0.0753987
0.0792236
0.0833459
0.0877982
0.0331918
0.0343779
0.0356204
0.0369231
0.0382905
0.0397273
0.0412385
0.04283
0.0445078
0.0462787
0.0481503
0.0501309
0.0522295
0.0544563
0.0568225
0.0593407
0.0620249
0.0648906
0.0679554
0.0712391
0.0747637
0.0785546
0.0826401
0.0870527
0.0329571
0.034135
0.0353687
0.0366622
0.0380198
0.0394463
0.0409466
0.0425265
0.044192
0.0459499
0.0478076
0.0497734
0.0518564
0.0540664
0.0564148
0.0589139
0.0615777
0.0644215
0.0674628
0.0707213
0.0742188
0.0779804
0.0820345
0.086413
0.0327612
0.0339322
0.0351586
0.0364445
0.037794
0.0392118
0.0407031
0.0422733
0.0439285
0.0456756
0.0475218
0.0494753
0.0515451
0.0537412
0.0560747
0.058558
0.0612047
0.0640303
0.067052
0.0702894
0.0737644
0.0775016
0.0815294
0.0858795
0.0326043
0.0337698
0.0349904
0.0362701
0.0376131
0.0390241
0.040508
0.0420705
0.0437176
0.045456
0.0472929
0.0492366
0.051296
0.0534809
0.0558025
0.058273
0.0609061
0.0637171
0.0667232
0.0699438
0.0734006
0.0771184
0.0811251
0.0854525
0.0324865
0.0336478
0.0348641
0.0361392
0.0374774
0.0388832
0.0403617
0.0419184
0.0435593
0.0452912
0.0471212
0.0490575
0.051109
0.0532856
0.0555983
0.0580592
0.0606821
0.0634821
0.0664765
0.0696845
0.0731278
0.0768309
0.0808218
0.0851322
0.0324079
0.0335665
0.0347799
0.0360519
0.0373868
0.0387892
0.0402641
0.0418169
0.0434538
0.0451813
0.0470067
0.0489381
0.0509844
0.0531554
0.0554621
0.0579167
0.0605327
0.0633255
0.066312
0.0695116
0.0729458
0.0766392
0.0806196
0.0849186
0.0323686
0.0335259
0.0347378
0.0360083
0.0373415
0.0387422
0.0402152
0.0417662
0.043401
0.0451263
0.0469494
0.0488784
0.050922
0.0530903
0.055394
0.0578454
0.060458
0.0632471
0.0662298
0.0694251
0.0728548
0.0765433
0.0805184
0.0848117
0.0323686
0.0335259
0.0347378
0.0360083
0.0373415
0.0387422
0.0402152
0.0417662
0.043401
0.0451263
0.0469494
0.0488784
0.050922
0.0530903
0.055394
0.0578454
0.060458
0.0632471
0.0662298
0.0694251
0.0728548
0.0765433
0.0805184
0.0848117
0.0324079
0.0335665
0.0347799
0.0360519
0.0373868
0.0387892
0.0402641
0.0418169
0.0434538
0.0451813
0.0470067
0.0489381
0.0509844
0.0531554
0.0554621
0.0579167
0.0605327
0.0633255
0.066312
0.0695116
0.0729458
0.0766392
0.0806196
0.0849186
0.0324865
0.0336478
0.0348641
0.0361392
0.0374774
0.0388832
0.0403617
0.0419184
0.0435593
0.0452912
0.0471212
0.0490575
0.051109
0.0532856
0.0555983
0.0580592
0.0606821
0.0634821
0.0664765
0.0696845
0.0731278
0.0768309
0.0808218
0.0851322
0.0326043
0.0337698
0.0349904
0.0362701
0.0376131
0.0390241
0.040508
0.0420705
0.0437176
0.045456
0.0472929
0.0492366
0.051296
0.0534809
0.0558025
0.058273
0.0609061
0.0637171
0.0667232
0.0699438
0.0734006
0.0771184
0.0811251
0.0854525
0.0258476
0.0267171
0.0276218
0.0285642
0.0295466
0.0305716
0.0316421
0.0327612
0.0339322
0.0351586
0.0364445
0.037794
0.0392118
0.0407031
0.0422733
0.0439285
0.0456756
0.0475218
0.0494753
0.0515451
0.0537412
0.0560747
0.058558
0.0612047
0.0640303
0.067052
0.0702894
0.0737644
0.0775016
0.0815294
0.0858795
0.0260043
0.0268785
0.0277883
0.0287359
0.0297239
0.0307548
0.0318315
0.0329571
0.034135
0.0353687
0.0366622
0.0380199
0.0394463
0.0409466
0.0425265
0.044192
0.0459499
0.0478076
0.0497734
0.0518564
0.0540664
0.0564148
0.0589139
0.0615777
0.0644215
0.0674629
0.0707213
0.0742188
0.0779805
0.0820345
0.086413
0.0261918
0.0270717
0.0279876
0.0289416
0.0299362
0.0309742
0.0320584
0.0331918
0.0343779
0.0356204
0.0369231
0.0382905
0.0397273
0.0412385
0.04283
0.0445078
0.0462787
0.0481503
0.0501309
0.0522295
0.0544563
0.0568225
0.0593407
0.0620249
0.0648906
0.0679554
0.0712391
0.0747637
0.0785546
0.0826401
0.0870527
0.0264099
0.0272966
0.0282195
0.0291809
0.0301834
0.0312296
0.0323225
0.0334651
0.0346608
0.0359135
0.037227
0.0386058
0.0400546
0.0415786
0.0431835
0.0448756
0.0466618
0.0485496
0.0505473
0.0526642
0.0549105
0.0572976
0.0598381
0.062546
0.0654372
0.0685294
0.0718424
0.0753987
0.0792236
0.0833459
0.0877982
0.0266582
0.0275526
0.0284836
0.0294536
0.030465
0.0315207
0.0326235
0.0337765
0.0349834
0.0362477
0.0375735
0.0389653
0.0404278
0.0419664
0.0435868
0.0452952
0.0470988
0.049005
0.0510223
0.0531602
0.0554287
0.0578396
0.0604055
0.0631406
0.0660609
0.0691844
0.0725309
0.0761233
0.079987
0.0841512
0.0886488
0.0269364
0.0278394
0.0287796
0.0297591
0.0307807
0.0318469
0.0329609
0.0341258
0.035345
0.0366225
0.0379621
0.0393685
0.0408466
0.0424015
0.0440392
0.0457661
0.0475891
0.0495161
0.0515555
0.0537168
0.0560104
0.058448
0.0610424
0.063808
0.0667611
0.0699195
0.0733037
0.0769366
0.080844
0.0850552
0.0896036
0.0272436
0.0281563
0.0291066
0.0300969
0.0311297
0.0322078
0.0333342
0.0345122
0.0357453
0.0370373
0.0383924
0.039815
0.0413102
0.0428834
0.0445403
0.0462876
0.0481323
0.0500823
0.0521462
0.0543335
0.0566548
0.059122
0.061748
0.0645475
0.0675367
0.0707341
0.07416
0.0778377
0.0817933
0.0860566
0.0906613
0.027579
0.0285025
0.029464
0.0304661
0.0315113
0.0326024
0.0337425
0.034935
0.0361833
0.0374913
0.0388634
0.0403039
0.041818
0.0434111
0.0450893
0.046859
0.0487275
0.0507027
0.0527935
0.0550094
0.0573612
0.0598608
0.0625215
0.065358
0.068387
0.0716268
0.0750985
0.0788253
0.0828338
0.0871541
0.0918203
0.0279415
0.0288766
0.0298504
0.0308654
0.0319241
0.0330295
0.0341847
0.0353929
0.0366579
0.0379835
0.039374
0.0408341
0.0423688
0.0439838
0.045685
0.0474792
0.0493736
0.0513764
0.0534964
0.0557434
0.0581283
0.0606633
0.0633617
0.0662386
0.0693107
0.0725968
0.076118
0.0798981
0.0839641
0.0883462
0.0930792
0.028329
0.0292767
0.0302639
0.0312928
0.0323662
0.0334871
0.0346585
0.0358839
0.037167
0.0385116
0.0399222
0.0414035
0.0429607
0.0445993
0.0463256
0.0481464
0.050069
0.0521016
0.0542533
0.056534
0.0589549
0.0615281
0.0642673
0.0671878
0.0703065
0.0736426
0.0772174
0.0810551
0.0851829
0.0896317
0.0944365
0.0287809
0.0297414
0.0307421
0.0317853
0.0328738
0.0340107
0.035199
0.0364423
0.0377442
0.0391089
0.0405407
0.0420444
0.0436254
0.0452892
0.0470423
0.0488914
0.0508442
0.0529088
0.0550946
0.0574116
0.0598712
0.0624856
0.0652689
0.0682364
0.0714055
0.0747955
0.0784281
0.0823279
0.0865225
0.0910431
0.0959253
0.0287809
0.0297415
0.0307421
0.0317853
0.0328738
0.0340107
0.035199
0.0364423
0.0377442
0.0391089
0.0405407
0.0420444
0.0436254
0.0452892
0.0470423
0.0488914
0.0508442
0.0529088
0.0550946
0.0574116
0.0598712
0.0624856
0.0652689
0.0682364
0.0714055
0.0747955
0.0784281
0.0823279
0.0865225
0.0910431
0.0959253
0.028329
0.0292767
0.0302639
0.0312928
0.0323662
0.0334871
0.0346585
0.0358839
0.037167
0.0385116
0.0399222
0.0414035
0.0429607
0.0445993
0.0463256
0.0481464
0.050069
0.0521016
0.0542533
0.056534
0.0589549
0.0615281
0.0642673
0.0671878
0.0703065
0.0736426
0.0772174
0.0810551
0.0851829
0.0896317
0.0944365
0.0279415
0.0288766
0.0298504
0.0308654
0.0319241
0.0330295
0.0341847
0.0353929
0.0366579
0.0379835
0.039374
0.0408341
0.0423688
0.0439838
0.045685
0.0474792
0.0493736
0.0513764
0.0534964
0.0557434
0.0581283
0.0606633
0.0633617
0.0662386
0.0693107
0.0725968
0.076118
0.0798981
0.0839641
0.0883462
0.0930792
0.027579
0.0285025
0.029464
0.0304661
0.0315113
0.0326024
0.0337425
0.034935
0.0361833
0.0374913
0.0388634
0.0403039
0.041818
0.0434111
0.0450893
0.046859
0.0487275
0.0507027
0.0527935
0.0550094
0.0573612
0.0598608
0.0625215
0.065358
0.068387
0.0716268
0.0750985
0.0788253
0.0828338
0.0871541
0.0918203
0.0272436
0.0281563
0.0291066
0.0300969
0.0311297
0.0322078
0.0333342
0.0345122
0.0357453
0.0370373
0.0383924
0.039815
0.0413102
0.0428834
0.0445403
0.0462876
0.0481323
0.0500823
0.0521462
0.0543335
0.0566548
0.059122
0.061748
0.0645475
0.0675367
0.0707341
0.07416
0.0778377
0.0817933
0.0860566
0.0906613
0.0269364
0.0278394
0.0287796
0.0297591
0.0307807
0.031847
0.0329609
0.0341258
0.035345
0.0366225
0.0379621
0.0393686
0.0408466
0.0424015
0.0440392
0.0457661
0.0475891
0.0495161
0.0515555
0.0537168
0.0560104
0.058448
0.0610424
0.063808
0.0667611
0.0699195
0.0733037
0.0769366
0.080844
0.0850552
0.0896036
0.0266582
0.0275526
0.0284836
0.0294536
0.030465
0.0315207
0.0326235
0.0337765
0.0349834
0.0362477
0.0375735
0.0389653
0.0404278
0.0419664
0.0435868
0.0452952
0.0470988
0.049005
0.0510223
0.0531602
0.0554287
0.0578396
0.0604055
0.0631406
0.0660609
0.0691844
0.0725309
0.0761233
0.079987
0.0841512
0.0886488
0.0264099
0.0272966
0.0282195
0.0291809
0.0301834
0.0312296
0.0323225
0.0334651
0.0346608
0.0359135
0.037227
0.0386058
0.0400546
0.0415786
0.0431835
0.0448756
0.0466618
0.0485496
0.0505473
0.0526642
0.0549105
0.0572976
0.0598381
0.062546
0.0654372
0.0685294
0.0718424
0.0753987
0.0792236
0.0833459
0.0877982
0.0261918
0.0270717
0.0279876
0.0289416
0.0299362
0.0309742
0.0320584
0.0331918
0.0343779
0.0356204
0.0369231
0.0382905
0.0397273
0.0412385
0.04283
0.0445078
0.0462787
0.0481503
0.0501309
0.0522295
0.0544563
0.0568225
0.0593407
0.0620249
0.0648906
0.0679554
0.0712391
0.0747637
0.0785546
0.0826401
0.0870527
0.0260043
0.0268785
0.0277883
0.0287359
0.0297239
0.0307548
0.0318315
0.0329571
0.034135
0.0353687
0.0366622
0.0380199
0.0394463
0.0409466
0.0425265
0.044192
0.0459499
0.0478076
0.0497734
0.0518564
0.0540664
0.0564148
0.0589139
0.0615777
0.0644215
0.0674628
0.0707213
0.0742188
0.0779804
0.0820345
0.086413
0.0258476
0.0267171
0.0276218
0.0285642
0.0295466
0.0305716
0.0316421
0.0327612
0.0339322
0.0351586
0.0364445
0.037794
0.0392118
0.0407031
0.0422733
0.0439285
0.0456756
0.0475218
0.0494753
0.0515451
0.0537412
0.0560747
0.058558
0.0612047
0.0640303
0.067052
0.0702894
0.0737644
0.0775016
0.0815294
0.0858795
0.0257221
0.0265877
0.0274885
0.0284266
0.0294045
0.0304249
0.0314904
0.0326043
0.0337698
0.0349904
0.0362701
0.0376131
0.0390241
0.040508
0.0420705
0.0437176
0.045456
0.0472929
0.0492366
0.051296
0.0534809
0.0558025
0.058273
0.0609061
0.0637171
0.0667232
0.0699438
0.0734006
0.0771184
0.0811251
0.0854525
0.0256278
0.0264906
0.0273883
0.0283233
0.0292979
0.0303147
0.0313766
0.0324865
0.0336478
0.0348641
0.0361392
0.0374774
0.0388832
0.0403617
0.0419184
0.0435593
0.0452912
0.0471212
0.0490575
0.051109
0.0532856
0.0555983
0.0580592
0.0606821
0.0634821
0.0664765
0.0696845
0.0731278
0.0768309
0.0808218
0.0851322
0.0255649
0.0264258
0.0273215
0.0282543
0.0292267
0.0302412
0.0313006
0.0324079
0.0335665
0.0347799
0.0360519
0.0373868
0.0387892
0.0402641
0.0418169
0.0434538
0.0451813
0.0470067
0.0489381
0.0509844
0.0531554
0.0554621
0.0579167
0.0605327
0.0633255
0.066312
0.0695116
0.0729458
0.0766392
0.0806196
0.0849186
0.0255335
0.0263934
0.0272881
0.0282199
0.0291911
0.0302044
0.0312626
0.0323686
0.0335259
0.0347378
0.0360083
0.0373415
0.0387422
0.0402152
0.0417662
0.043401
0.0451263
0.0469494
0.0488784
0.050922
0.0530903
0.055394
0.0578454
0.060458
0.0632471
0.0662298
0.0694251
0.0728548
0.0765433
0.0805184
0.0848117
0.0255335
0.0263934
0.0272881
0.0282199
0.0291911
0.0302044
0.0312626
0.0323686
0.0335259
0.0347378
0.0360083
0.0373415
0.0387422
0.0402152
0.0417662
0.043401
0.0451263
0.0469494
0.0488784
0.050922
0.0530903
0.055394
0.0578454
0.060458
0.0632471
0.0662298
0.0694251
0.0728548
0.0765433
0.0805184
0.0848117
0.0255649
0.0264258
0.0273215
0.0282543
0.0292267
0.0302412
0.0313006
0.0324079
0.0335665
0.0347799
0.0360519
0.0373868
0.0387892
0.0402641
0.0418169
0.0434538
0.0451813
0.0470067
0.0489381
0.0509844
0.0531554
0.0554621
0.0579167
0.0605327
0.0633255
0.066312
0.0695116
0.0729458
0.0766392
0.0806196
0.0849186
0.0256278
0.0264906
0.0273883
0.0283233
0.0292979
0.0303147
0.0313766
0.0324865
0.0336478
0.0348641
0.0361392
0.0374774
0.0388832
0.0403617
0.0419184
0.0435593
0.0452912
0.0471212
0.0490575
0.051109
0.0532856
0.0555983
0.0580592
0.0606821
0.0634821
0.0664765
0.0696845
0.0731278
0.0768309
0.0808218
0.0851322
0.0897982
0.0257221
0.0265877
0.0274885
0.0284266
0.0294045
0.0304249
0.0314904
0.0326043
0.0337698
0.0349904
0.0362701
0.0376131
0.0390241
0.040508
0.0420705
0.0437176
0.045456
0.0472929
0.0492366
0.051296
0.0534809
0.0558025
0.058273
0.0609061
0.0637171
0.0667232
0.0699438
0.0734006
0.0771184
0.0811251
0.0854525
0.090137
0.0258476
0.0267171
0.0276218
0.0285642
0.0295466
0.0305716
0.0316421
0.0327612
0.0339322
0.0351586
0.0364445
0.037794
0.0392118
0.0407031
0.0422733
0.0439285
0.0456756
0.0475218
0.0494753
0.0515451
0.0537412
0.0560747
0.058558
0.0612047
0.0640303
0.067052
0.0702894
0.0737644
0.0775016
0.0815294
0.0858795
0.0905887
0.0260043
0.0268785
0.0277883
0.0287359
0.0297239
0.0307548
0.0318315
0.0329571
0.034135
0.0353687
0.0366622
0.0380199
0.0394463
0.0409466
0.0425265
0.044192
0.0459499
0.0478077
0.0497734
0.0518564
0.0540664
0.0564148
0.0589139
0.0615777
0.0644215
0.0674629
0.0707213
0.0742188
0.0779805
0.0820345
0.086413
0.0911529
0.0261918
0.0270717
0.0279876
0.0289416
0.0299362
0.0309742
0.0320584
0.0331918
0.0343779
0.0356204
0.0369231
0.0382905
0.0397273
0.0412386
0.04283
0.0445078
0.0462787
0.0481503
0.0501309
0.0522295
0.0544563
0.0568225
0.0593407
0.0620249
0.0648906
0.0679554
0.0712391
0.0747637
0.0785546
0.0826401
0.0870527
0.0918295
0.0264099
0.0272966
0.0282195
0.0291809
0.0301834
0.0312296
0.0323225
0.0334651
0.0346609
0.0359135
0.037227
0.0386058
0.0400546
0.0415786
0.0431835
0.0448756
0.0466618
0.0485496
0.0505473
0.0526642
0.0549105
0.0572976
0.0598381
0.062546
0.0654372
0.0685294
0.0718424
0.0753987
0.0792236
0.0833459
0.0877982
0.0926179
0.0266582
0.0275526
0.0284836
0.0294536
0.030465
0.0315207
0.0326235
0.0337765
0.0349834
0.0362477
0.0375735
0.0389653
0.0404278
0.0419664
0.0435868
0.0452952
0.0470988
0.049005
0.0510223
0.0531602
0.0554288
0.0578396
0.0604055
0.0631406
0.0660609
0.0691844
0.0725309
0.0761233
0.079987
0.0841512
)
;

boundaryField
{
    inlet
    {
        type            cyclic;
    }
    outlet
    {
        type            cyclic;
    }
    wall
    {
        type            calculated;
        value           nonuniform 0();
    }
    procBoundary1to0
    {
        type            processor;
        value           nonuniform List<scalar> 
59
(
0.0944365
0.0930792
0.0918203
0.0906613
0.0896036
0.0886488
0.0877982
0.0870527
0.086413
0.0944365
0.10121
0.10121
0.0996372
0.0982022
0.0968713
0.0956457
0.0945272
0.0935175
0.0926179
0.0918295
0.0911529
0.0905887
0.090137
0.0897982
0.0895723
0.0894593
0.0894593
0.0895723
0.0897982
0.090137
0.0905887
0.0911529
0.0918295
0.0926179
0.0935175
0.0945272
0.0956457
0.0968713
0.0982022
0.0996372
0.10121
0.10121
0.0996372
0.0982022
0.0968713
0.0956457
0.0945272
0.0935175
0.0926179
0.0918295
0.0911529
0.0905887
0.090137
0.0897982
0.0895723
0.0894593
0.0894593
0.0895723
0.0895723
)
;
    }
    procBoundary1to2
    {
        type            processor;
        value           nonuniform List<scalar> 
39
(
0.0948614
0.0952202
0.0956985
0.0962961
0.0970126
0.0886488
0.0978476
0.0935175
0.0269364
0.0278394
0.0287796
0.0297591
0.0307807
0.031847
0.0329609
0.0341258
0.035345
0.0366225
0.0379621
0.0393685
0.0408466
0.0424015
0.0440392
0.0457661
0.0475892
0.0495161
0.0515555
0.0537168
0.0560104
0.058448
0.0610424
0.063808
0.0667611
0.0699195
0.0733037
0.0769366
0.080844
0.0886488
0.0850552
)
;
    }
    procBoundary1to3
    {
        type            processor;
        value           nonuniform List<scalar> 
23
(
0.0327612
0.0339322
0.0351586
0.0364445
0.037794
0.0392118
0.0407031
0.0422733
0.0439285
0.0456756
0.0475218
0.0494753
0.0515451
0.0537412
0.0560747
0.058558
0.0612047
0.0640303
0.067052
0.0702894
0.0737644
0.0775016
0.0815294
)
;
    }
    procBoundary1to4
    {
        type            processor;
        value           nonuniform List<scalar> 
61
(
0.035199
0.0346585
0.0341847
0.0337425
0.0333342
0.0329609
0.0326235
0.0323225
0.0320584
0.0318315
0.035199
0.0346585
0.0341847
0.0337425
0.0333342
0.0329609
0.0326235
0.0323225
0.0320584
0.0318315
0.0316421
0.0314904
0.0313766
0.0313006
0.0312626
0.0312626
0.0313006
0.0313766
0.0257221
0.0265877
0.0274885
0.0284266
0.0294045
0.0304249
0.0314904
0.0314904
0.0250114
0.0251635
0.0253456
0.0255573
0.0257983
0.0260681
0.0263661
0.0266914
0.0270427
0.0274182
0.0278581
0.0278581
0.0274182
0.0270427
0.0266914
0.0263661
0.0260681
0.0257983
0.0255573
0.0253456
0.0251635
0.0250114
0.0248895
0.024798
0.0247369
)
;
    }
    procBoundary1to5
    {
        type            processor;
        value           nonuniform List<scalar> 10(0.0247063 0.0247063 0.0247369 0.024798 0.0248895 0.0250114 0.0251635 0.0253456 0.0255573 0.0257983);
    }
}


// ************************************************************************* //
