/*--------------------------------*- C++ -*----------------------------------*\
  =========                 |
  \\      /  F ield         | OpenFOAM: The Open Source CFD Toolbox
   \\    /   O peration     | Website:  https://openfoam.org
    \\  /    A nd           | Version:  7
     \\/     M anipulation  |
\*---------------------------------------------------------------------------*/
FoamFile
{
    version     2.0;
    format      ascii;
    class       volScalarField;
    location    "40000";
    object      nu;
}
// * * * * * * * * * * * * * * * * * * * * * * * * * * * * * * * * * * * * * //

dimensions      [0 2 -1 0 0 0 0];

internalField   nonuniform List<scalar> 
4825
(
5.58468e-06
5.76382e-06
5.21244e-06
5.3591e-06
5.51099e-06
5.671e-06
5.83919e-06
4.90225e-06
5.02449e-06
5.15002e-06
5.28124e-06
5.41804e-06
4.63968e-06
4.74306e-06
4.84849e-06
4.95799e-06
5.07138e-06
4.41446e-06
4.50299e-06
4.59271e-06
4.6854e-06
4.78086e-06
4.21911e-06
4.29572e-06
4.37294e-06
4.45236e-06
4.53377e-06
4.04804e-06
4.11493e-06
4.18205e-06
4.2508e-06
4.32099e-06
3.89695e-06
3.95583e-06
4.01465e-06
4.0747e-06
4.13579e-06
3.76252e-06
3.81471e-06
3.86664e-06
3.91951e-06
3.97312e-06
3.64211e-06
3.68866e-06
3.73482e-06
3.78168e-06
3.82907e-06
3.53364e-06
3.57539e-06
3.61665e-06
3.65844e-06
3.70061e-06
3.4354e-06
3.47302e-06
3.51011e-06
3.54758e-06
3.58531e-06
3.34599e-06
3.38005e-06
3.41354e-06
3.44731e-06
3.48124e-06
3.26426e-06
3.29523e-06
3.32559e-06
3.35616e-06
3.18927e-06
3.21752e-06
3.24517e-06
3.27294e-06
3.1202e-06
3.14607e-06
3.17132e-06
3.19666e-06
3.05638e-06
3.08013e-06
3.10327e-06
2.99722e-06
3.01909e-06
3.04036e-06
2.94222e-06
2.96241e-06
2.89096e-06
2.90965e-06
2.84307e-06
2.86041e-06
2.79823e-06
2.81434e-06
2.75614e-06
2.77114e-06
2.71657e-06
0.000539553
0.000542703
0.000536406
0.000525731
0.000513645
0.000501953
0.000491647
0.000483084
0.000476326
0.000471296
0.000467514
0.000465032
0.000464143
0.000464559
0.000465983
0.000468148
0.000470887
0.000474177
0.000478119
0.000482784
0.000499471
0.000533875
0.000551044
0.000555687
0.000551866
0.000543094
0.000532086
0.000520593
0.000509721
0.00050013
0.000491674
0.000484579
0.000479464
0.000476086
0.000474159
0.000473416
0.000473647
0.00047469
0.00047629
0.000477696
0.000384782
0.000448885
0.000499209
0.000534595
0.000555607
0.00056461
0.000564764
0.000559089
0.000550118
0.000539798
0.000528972
0.000518557
0.000509711
0.000502553
0.000496981
0.00049284
0.000489948
0.000488038
0.000486503
0.000483836
0.000241045
0.000306847
0.00037302
0.000434368
0.000486038
0.000525333
0.000551725
0.000566612
0.000572307
0.000571409
0.000565911
0.000557786
0.000549077
0.000540713
0.000533138
0.000526565
0.000521031
0.0005163
0.000511514
0.000504526
0.000129646
0.000173843
0.000226759
0.000286223
0.000348126
0.0004078
0.000460634
0.000503835
0.000536208
0.000558069
0.000570714
0.000576129
0.000576787
0.00057449
0.00057049
0.000565658
0.000560524
0.000555137
0.000548633
0.000538508
6.68524e-05
8.95578e-05
0.000119572
0.000157764
0.000203863
0.000256472
0.000312429
0.000368342
0.00042063
0.000466224
0.000503563
0.000532268
0.00055316
0.000567548
0.000576775
0.000582026
0.000584228
0.000583812
0.000580202
0.000571077
3.67033e-05
4.71763e-05
6.14352e-05
8.05623e-05
0.000105538
0.000137152
0.000175208
0.000219035
0.000266927
0.000316162
0.000364313
0.00040909
0.000448799
0.000482726
0.000510773
0.00053314
0.00055015
0.000561997
0.000568265
0.000567251
2.26351e-05
2.75161e-05
3.40504e-05
4.28091e-05
5.44591e-05
6.97705e-05
8.93211e-05
0.000113708
0.000143109
0.000176915
0.00021436
0.000254103
0.000294352
0.000333613
0.000370652
0.000404379
0.000433849
0.000458236
0.000476732
0.000488096
0.000491486
0.000495131
0.000499608
0.000503439
0.000505653
0.000505843
0.000503853
0.000499567
0.000492821
0.000483382
0.000470971
0.000455299
0.000436128
0.000413282
0.000386463
1.57119e-05
1.81579e-05
2.1309e-05
2.54117e-05
3.07626e-05
3.77261e-05
4.6693e-05
5.81263e-05
7.24501e-05
8.98486e-05
0.000110513
0.000134319
0.000160671
0.0001889
0.000218209
0.000247586
0.000275833
0.000301678
0.00032405
0.000341881
0.000355573
0.000365832
0.000374302
0.000380483
0.000383772
0.000383838
0.000380547
0.000373859
0.000363776
0.000350339
0.000333649
0.000313901
0.00029141
0.00026658
0.000239745
0.000211103
0.000183788
1.19876e-05
1.33364e-05
1.49979e-05
1.7076e-05
1.9689e-05
2.29819e-05
2.71315e-05
3.23396e-05
3.88265e-05
4.67833e-05
5.64151e-05
6.78555e-05
8.10489e-05
9.58992e-05
0.0001122
0.000129551
0.000147325
0.000164707
0.000180981
0.000195427
0.000208155
0.000218143
0.000226046
0.000231634
0.000234543
0.000234542
0.000231558
0.000225649
0.000216977
0.000205803
0.000192479
0.000177439
0.000161182
0.000144218
0.000126965
0.000109948
9.42924e-05
7.99343e-05
9.78062e-06
1.06e-05
1.15664e-05
1.27261e-05
1.41263e-05
1.58232e-05
1.78881e-05
2.03975e-05
2.34387e-05
2.71035e-05
3.14788e-05
3.66407e-05
4.26191e-05
4.94216e-05
5.7011e-05
6.52711e-05
7.39712e-05
8.27708e-05
9.13572e-05
9.93899e-05
0.000106751
0.000112819
0.000117621
0.000120993
0.000122737
0.000122723
0.000120926
0.000117414
0.000112345
0.000105949
9.85083e-05
9.03397e-05
8.17672e-05
7.30904e-05
6.45368e-05
5.64072e-05
4.89837e-05
4.2301e-05
3.64275e-05
3.13516e-05
8.34999e-06
8.89251e-06
9.50872e-06
1.02211e-05
1.10489e-05
1.20144e-05
1.31457e-05
1.44713e-05
1.60236e-05
1.78383e-05
1.99451e-05
2.23709e-05
2.51337e-05
2.82358e-05
3.16621e-05
3.53705e-05
3.92794e-05
4.32682e-05
4.72091e-05
5.09647e-05
5.44356e-05
5.73703e-05
5.96961e-05
6.13229e-05
6.21605e-05
6.2152e-05
6.12888e-05
5.96125e-05
5.72088e-05
5.41986e-05
5.0726e-05
4.69453e-05
4.30075e-05
3.90478e-05
3.5175e-05
3.1507e-05
2.81195e-05
2.5047e-05
2.23074e-05
1.99044e-05
1.78114e-05
1.60072e-05
7.35074e-06
7.73571e-06
8.16014e-06
8.63614e-06
9.17167e-06
9.77566e-06
1.04592e-05
1.12327e-05
1.21079e-05
1.30978e-05
1.42114e-05
1.54562e-05
1.68374e-05
1.8352e-05
1.99891e-05
2.17286e-05
2.35375e-05
2.53706e-05
2.71731e-05
2.88887e-05
3.04642e-05
3.18059e-05
3.28659e-05
3.36029e-05
3.39805e-05
3.39765e-05
3.35884e-05
3.28349e-05
3.17536e-05
3.03967e-05
2.88261e-05
2.71077e-05
2.53058e-05
2.34788e-05
2.16784e-05
1.99508e-05
1.8322e-05
1.68141e-05
1.54378e-05
1.41985e-05
1.30883e-05
1.21016e-05
1.12281e-05
1.04561e-05
9.77364e-06
6.61137e-06
6.89926e-06
7.2096e-06
7.54972e-06
7.92288e-06
8.33262e-06
8.78314e-06
9.27812e-06
9.82149e-06
1.04174e-05
1.10679e-05
1.17742e-05
1.25365e-05
1.33508e-05
1.42098e-05
1.51022e-05
1.60129e-05
1.69221e-05
1.78052e-05
1.86374e-05
1.93925e-05
2.00341e-05
2.05381e-05
2.08862e-05
2.10636e-05
2.10618e-05
2.08801e-05
2.05266e-05
2.00169e-05
1.93732e-05
1.86216e-05
1.77905e-05
1.69077e-05
1.59995e-05
1.50908e-05
1.42017e-05
1.33441e-05
1.25308e-05
1.17692e-05
1.10638e-05
1.04141e-05
9.819e-06
9.27608e-06
8.78165e-06
8.33155e-06
7.92198e-06
7.54902e-06
6.04028e-06
6.2641e-06
6.50135e-06
6.75696e-06
7.03222e-06
7.32843e-06
7.64701e-06
7.98902e-06
8.35544e-06
8.74717e-06
9.16399e-06
9.60512e-06
1.00693e-05
1.05531e-05
1.10517e-05
1.15585e-05
1.20656e-05
1.25634e-05
1.30398e-05
1.34829e-05
1.38797e-05
1.42149e-05
1.44765e-05
1.4656e-05
1.4747e-05
1.47462e-05
1.46534e-05
1.4472e-05
1.42091e-05
1.38744e-05
1.34796e-05
1.30377e-05
1.25616e-05
1.2064e-05
1.15572e-05
1.10512e-05
1.05525e-05
1.00684e-05
9.60395e-06
9.16268e-06
8.74593e-06
8.35435e-06
7.98807e-06
7.64625e-06
7.32783e-06
7.03168e-06
6.75652e-06
6.50098e-06
6.26382e-06
6.04008e-06
5.5848e-06
5.76396e-06
5.95143e-06
6.15085e-06
6.36265e-06
6.5872e-06
6.8248e-06
7.0755e-06
7.33921e-06
7.61568e-06
7.90403e-06
8.20304e-06
8.51114e-06
8.8258e-06
9.14363e-06
9.46061e-06
9.77215e-06
1.0073e-05
1.03569e-05
1.06175e-05
1.08481e-05
1.10413e-05
1.11912e-05
1.12935e-05
1.13453e-05
1.13449e-05
1.12924e-05
1.11894e-05
1.10393e-05
1.08467e-05
1.06174e-05
1.03576e-05
1.0074e-05
9.77314e-06
9.46158e-06
9.14472e-06
8.82654e-06
8.51148e-06
8.20296e-06
7.90365e-06
7.61518e-06
7.33868e-06
7.075e-06
6.82435e-06
6.58682e-06
6.36231e-06
6.15056e-06
5.95118e-06
5.76377e-06
5.58466e-06
5.21253e-06
5.3592e-06
5.5111e-06
5.67112e-06
5.8393e-06
6.01561e-06
6.19993e-06
6.39194e-06
6.5912e-06
6.7971e-06
7.00867e-06
7.22473e-06
7.44384e-06
7.66409e-06
7.88311e-06
8.09826e-06
8.30666e-06
8.50515e-06
8.69016e-06
8.85808e-06
9.00509e-06
9.12743e-06
9.22183e-06
9.28596e-06
9.31833e-06
9.31813e-06
9.2854e-06
9.22103e-06
9.12673e-06
9.00493e-06
8.85866e-06
8.69131e-06
8.5065e-06
8.30797e-06
8.0995e-06
7.88429e-06
7.66496e-06
7.44437e-06
7.22492e-06
7.00859e-06
6.79687e-06
6.59091e-06
6.39164e-06
6.19964e-06
6.01535e-06
5.83906e-06
5.67091e-06
5.51092e-06
5.35906e-06
5.21243e-06
4.90233e-06
5.02457e-06
5.1501e-06
5.28132e-06
5.41811e-06
5.56028e-06
5.70753e-06
5.85946e-06
6.01554e-06
6.17509e-06
6.33726e-06
6.50099e-06
6.6651e-06
6.82813e-06
6.98839e-06
7.14403e-06
7.29313e-06
7.43363e-06
7.56332e-06
7.67996e-06
7.78126e-06
7.86505e-06
7.92941e-06
7.97301e-06
7.99498e-06
7.99487e-06
7.97273e-06
7.92905e-06
7.86482e-06
7.78141e-06
7.68057e-06
7.5643e-06
7.43476e-06
7.29424e-06
7.14508e-06
6.98934e-06
6.82887e-06
6.66558e-06
6.50121e-06
6.33727e-06
6.17498e-06
6.01536e-06
5.85926e-06
5.70733e-06
5.56009e-06
5.41794e-06
5.28117e-06
5.14997e-06
5.02446e-06
4.90224e-06
4.63973e-06
4.74312e-06
4.84855e-06
4.95804e-06
5.07143e-06
5.18846e-06
5.3088e-06
5.43203e-06
5.55764e-06
5.68501e-06
5.81338e-06
5.94191e-06
6.06962e-06
6.19539e-06
6.31796e-06
6.43602e-06
6.54819e-06
6.65306e-06
6.74915e-06
6.83498e-06
6.90908e-06
6.97007e-06
7.01678e-06
7.04835e-06
7.06423e-06
7.06418e-06
7.0482e-06
7.01661e-06
6.97002e-06
6.90928e-06
6.83549e-06
6.7499e-06
6.65392e-06
6.54905e-06
6.43683e-06
6.3187e-06
6.19596e-06
6.07001e-06
5.94211e-06
5.81343e-06
5.68495e-06
5.55752e-06
5.43189e-06
5.30866e-06
5.18832e-06
5.0713e-06
4.95792e-06
4.84844e-06
4.74304e-06
4.63967e-06
4.41451e-06
4.50303e-06
4.59275e-06
4.68544e-06
4.7809e-06
4.87886e-06
4.979e-06
5.08092e-06
5.18415e-06
5.28817e-06
5.39234e-06
5.49594e-06
5.59821e-06
5.69826e-06
5.79515e-06
5.88788e-06
5.97545e-06
6.05685e-06
6.13101e-06
6.19693e-06
6.25359e-06
6.30006e-06
6.33555e-06
6.35951e-06
6.37155e-06
6.37152e-06
6.35943e-06
6.33548e-06
6.30007e-06
6.25378e-06
6.19733e-06
6.13158e-06
6.05749e-06
5.97611e-06
5.8885e-06
5.79571e-06
5.69871e-06
5.59852e-06
5.49611e-06
5.39239e-06
5.28814e-06
5.18408e-06
5.08082e-06
4.97889e-06
4.87875e-06
4.7808e-06
4.68535e-06
4.59267e-06
4.50297e-06
4.41445e-06
4.21915e-06
4.29576e-06
4.37298e-06
4.4524e-06
4.5338e-06
4.61694e-06
4.7015e-06
4.78714e-06
4.87344e-06
4.95995e-06
5.04612e-06
5.13138e-06
5.21511e-06
5.29659e-06
5.37511e-06
5.4499e-06
5.5202e-06
5.58524e-06
5.64426e-06
5.69652e-06
5.74128e-06
5.7779e-06
5.80582e-06
5.82464e-06
5.8341e-06
5.83408e-06
5.8246e-06
5.80579e-06
5.77794e-06
5.74145e-06
5.69683e-06
5.6447e-06
5.58574e-06
5.5207e-06
5.45038e-06
5.37555e-06
5.29695e-06
5.21535e-06
5.13153e-06
5.04617e-06
4.95994e-06
4.87339e-06
4.78707e-06
4.70142e-06
4.61685e-06
4.53372e-06
4.45232e-06
4.37291e-06
4.2957e-06
4.21911e-06
4.04807e-06
4.11496e-06
4.18208e-06
4.25082e-06
4.32101e-06
4.39239e-06
4.4647e-06
4.53762e-06
4.61078e-06
4.68379e-06
4.75621e-06
4.82756e-06
4.89732e-06
4.96494e-06
5.02983e-06
5.0914e-06
5.14906e-06
5.20222e-06
5.2503e-06
5.29274e-06
5.32901e-06
5.35861e-06
5.38115e-06
5.39632e-06
5.40395e-06
5.40394e-06
5.3963e-06
5.38114e-06
5.35866e-06
5.32915e-06
5.29299e-06
5.25064e-06
5.20261e-06
5.14946e-06
5.09178e-06
5.03017e-06
4.96522e-06
4.89753e-06
4.82769e-06
4.75627e-06
4.68379e-06
4.61074e-06
4.53756e-06
4.46463e-06
4.39232e-06
4.32094e-06
4.25076e-06
4.18202e-06
4.11492e-06
4.04803e-06
3.89698e-06
3.95585e-06
4.01467e-06
4.07472e-06
4.13581e-06
4.19772e-06
4.2602e-06
4.32298e-06
4.38574e-06
4.44814e-06
4.50981e-06
4.57034e-06
4.62932e-06
4.68629e-06
4.74077e-06
4.79231e-06
4.84043e-06
4.88466e-06
4.92456e-06
4.9597e-06
4.98966e-06
5.01407e-06
5.03264e-06
5.04513e-06
5.05141e-06
5.05141e-06
5.04512e-06
5.03264e-06
5.01412e-06
4.98978e-06
4.9599e-06
4.92483e-06
4.88497e-06
4.84074e-06
4.79262e-06
4.74105e-06
4.68651e-06
4.62949e-06
4.57045e-06
4.50986e-06
4.44814e-06
4.38571e-06
4.32294e-06
4.26015e-06
4.19766e-06
4.13575e-06
4.07467e-06
4.01463e-06
3.95582e-06
3.89694e-06
3.76254e-06
3.81473e-06
3.86666e-06
3.91952e-06
3.97313e-06
4.02729e-06
4.08178e-06
4.13635e-06
4.19074e-06
4.24463e-06
4.29773e-06
4.3497e-06
4.40017e-06
4.44878e-06
4.49514e-06
4.53887e-06
4.5796e-06
4.61695e-06
4.65057e-06
4.68011e-06
4.70526e-06
4.72573e-06
4.74128e-06
4.75174e-06
4.75699e-06
4.75699e-06
4.75173e-06
4.74129e-06
4.72578e-06
4.70537e-06
4.68028e-06
4.65079e-06
4.6172e-06
4.57986e-06
4.53912e-06
4.49537e-06
4.44896e-06
4.40031e-06
4.34979e-06
4.29778e-06
4.24464e-06
4.19072e-06
4.13632e-06
4.08174e-06
4.02725e-06
3.97309e-06
3.91948e-06
3.86662e-06
3.81469e-06
3.76251e-06
3.64213e-06
3.68868e-06
3.73484e-06
3.78169e-06
3.82908e-06
3.87683e-06
3.92472e-06
3.97256e-06
4.0201e-06
4.06708e-06
4.11324e-06
4.1583e-06
4.20194e-06
4.24387e-06
4.28376e-06
4.3213e-06
4.35619e-06
4.38813e-06
4.41681e-06
4.44198e-06
4.46337e-06
4.48076e-06
4.49396e-06
4.50283e-06
4.50729e-06
4.50729e-06
4.50284e-06
4.49398e-06
4.48081e-06
4.46346e-06
4.44212e-06
4.41699e-06
4.38833e-06
4.35641e-06
4.32151e-06
4.28395e-06
4.24403e-06
4.20206e-06
4.15838e-06
4.11329e-06
4.06709e-06
4.02009e-06
3.97253e-06
3.92469e-06
3.87679e-06
3.82904e-06
3.78166e-06
3.73481e-06
3.68865e-06
3.64211e-06
3.53366e-06
3.5754e-06
3.61667e-06
3.65846e-06
3.70062e-06
3.74298e-06
3.78539e-06
3.82763e-06
3.8695e-06
3.91079e-06
3.95126e-06
3.99066e-06
4.02874e-06
4.06524e-06
4.0999e-06
4.13245e-06
4.16265e-06
4.19024e-06
4.21498e-06
4.23666e-06
4.25506e-06
4.27e-06
4.28134e-06
4.28896e-06
4.29278e-06
4.29278e-06
4.28896e-06
4.28136e-06
4.27004e-06
4.25514e-06
4.23678e-06
4.21513e-06
4.19041e-06
4.16283e-06
4.13263e-06
4.10006e-06
4.06538e-06
4.02884e-06
3.99073e-06
3.95129e-06
3.9108e-06
3.86949e-06
3.82761e-06
3.78536e-06
3.74295e-06
3.70058e-06
3.65842e-06
3.61664e-06
3.57538e-06
3.53364e-06
3.43541e-06
3.47303e-06
3.51012e-06
3.54759e-06
3.58531e-06
3.62314e-06
3.66091e-06
3.69846e-06
3.73559e-06
3.77213e-06
3.80786e-06
3.84258e-06
3.87608e-06
3.90812e-06
3.93848e-06
3.96695e-06
3.99332e-06
4.01737e-06
4.03891e-06
4.05776e-06
4.07374e-06
4.08671e-06
4.09654e-06
4.10315e-06
4.10647e-06
4.10647e-06
4.10316e-06
4.09656e-06
4.08675e-06
4.07381e-06
4.05786e-06
4.03904e-06
4.01752e-06
3.99347e-06
3.9671e-06
3.93862e-06
3.90823e-06
3.87617e-06
3.84265e-06
3.8079e-06
3.77214e-06
3.73559e-06
3.69844e-06
3.66089e-06
3.62311e-06
3.58529e-06
3.54756e-06
3.51009e-06
3.47301e-06
3.43539e-06
3.346e-06
3.38006e-06
3.41355e-06
3.44732e-06
3.48124e-06
3.51519e-06
3.54903e-06
3.58259e-06
3.61573e-06
3.64826e-06
3.68002e-06
3.71082e-06
3.74048e-06
3.76881e-06
3.79561e-06
3.8207e-06
3.8439e-06
3.86504e-06
3.88395e-06
3.90047e-06
3.91447e-06
3.92582e-06
3.93442e-06
3.9402e-06
3.9431e-06
3.9431e-06
3.9402e-06
3.93444e-06
3.92586e-06
3.91453e-06
3.90056e-06
3.88406e-06
3.86516e-06
3.84403e-06
3.82083e-06
3.79573e-06
3.76891e-06
3.74056e-06
3.71088e-06
3.68005e-06
3.64827e-06
3.61572e-06
3.58258e-06
3.54901e-06
3.51517e-06
3.48122e-06
3.44729e-06
3.41353e-06
3.38004e-06
3.34598e-06
3.26428e-06
3.29524e-06
3.3256e-06
3.35617e-06
3.38682e-06
3.41744e-06
3.4479e-06
3.47806e-06
3.50778e-06
3.53692e-06
3.56531e-06
3.5928e-06
3.61923e-06
3.64443e-06
3.66824e-06
3.6905e-06
3.71106e-06
3.72976e-06
3.74648e-06
3.76107e-06
3.77342e-06
3.78343e-06
3.79101e-06
3.7961e-06
3.79865e-06
3.79866e-06
3.79611e-06
3.79103e-06
3.78346e-06
3.77348e-06
3.76114e-06
3.74657e-06
3.72987e-06
3.71117e-06
3.69061e-06
3.66834e-06
3.64452e-06
3.6193e-06
3.59285e-06
3.56534e-06
3.53693e-06
3.50778e-06
3.47805e-06
3.44788e-06
3.41742e-06
3.3868e-06
3.35615e-06
3.32558e-06
3.29522e-06
3.26426e-06
3.18928e-06
3.21753e-06
3.24517e-06
3.27295e-06
3.30076e-06
3.3285e-06
3.35604e-06
3.38327e-06
3.41006e-06
3.43628e-06
3.4618e-06
3.48646e-06
3.51014e-06
3.53269e-06
3.55396e-06
3.57383e-06
3.59215e-06
3.60881e-06
3.62368e-06
3.63665e-06
3.64762e-06
3.6565e-06
3.66323e-06
3.66774e-06
3.67001e-06
3.67001e-06
3.66775e-06
3.66325e-06
3.65653e-06
3.64767e-06
3.63672e-06
3.62376e-06
3.6089e-06
3.59225e-06
3.57392e-06
3.55405e-06
3.53276e-06
3.5102e-06
3.48651e-06
3.46182e-06
3.4363e-06
3.41007e-06
3.38326e-06
3.35603e-06
3.32848e-06
3.30074e-06
3.27293e-06
3.24516e-06
3.21752e-06
3.18927e-06
3.12021e-06
3.14607e-06
3.17132e-06
3.19666e-06
3.22199e-06
3.24721e-06
3.27222e-06
3.29691e-06
3.32117e-06
3.34487e-06
3.3679e-06
3.39014e-06
3.41146e-06
3.43173e-06
3.45084e-06
3.46867e-06
3.48509e-06
3.5e-06
3.51331e-06
3.5249e-06
3.5347e-06
3.54264e-06
3.54864e-06
3.55267e-06
3.55469e-06
3.55469e-06
3.55267e-06
3.54865e-06
3.54266e-06
3.53475e-06
3.52496e-06
3.51338e-06
3.50009e-06
3.48518e-06
3.46875e-06
3.45092e-06
3.4318e-06
3.41151e-06
3.39018e-06
3.36793e-06
3.34488e-06
3.32117e-06
3.2969e-06
3.27221e-06
3.2472e-06
3.22197e-06
3.19665e-06
3.17131e-06
3.14606e-06
3.1202e-06
3.05638e-06
3.08013e-06
3.10328e-06
3.12646e-06
3.14961e-06
3.17263e-06
3.19542e-06
3.21789e-06
3.23994e-06
3.26146e-06
3.28234e-06
3.30247e-06
3.32175e-06
3.34007e-06
3.35731e-06
3.37338e-06
3.38817e-06
3.40159e-06
3.41355e-06
3.42397e-06
3.43277e-06
3.43989e-06
3.44528e-06
3.44889e-06
3.45071e-06
3.45071e-06
3.4489e-06
3.4453e-06
3.43992e-06
3.43281e-06
3.42403e-06
3.41362e-06
3.40167e-06
3.38825e-06
3.37346e-06
3.35738e-06
3.34013e-06
3.3218e-06
3.30251e-06
3.28236e-06
3.26147e-06
3.23994e-06
3.21789e-06
3.19541e-06
3.17262e-06
3.1496e-06
3.12645e-06
3.10326e-06
3.08012e-06
3.05638e-06
2.99722e-06
3.01909e-06
3.04036e-06
3.06165e-06
3.08287e-06
3.10395e-06
3.12479e-06
3.14531e-06
3.16542e-06
3.18503e-06
3.20403e-06
3.22233e-06
3.23984e-06
3.25645e-06
3.27208e-06
3.28663e-06
3.30001e-06
3.31214e-06
3.32295e-06
3.33235e-06
3.34029e-06
3.34671e-06
3.35157e-06
3.35482e-06
3.35646e-06
3.35646e-06
3.35483e-06
3.35158e-06
3.34674e-06
3.34033e-06
3.3324e-06
3.323e-06
3.31221e-06
3.30008e-06
3.2867e-06
3.27214e-06
3.25651e-06
3.23988e-06
3.22237e-06
3.20405e-06
3.18504e-06
3.16543e-06
3.14531e-06
3.12478e-06
3.10393e-06
3.08286e-06
3.06164e-06
3.04035e-06
3.01908e-06
2.99721e-06
2.94223e-06
2.96242e-06
2.98202e-06
3.00162e-06
3.02113e-06
3.04048e-06
3.0596e-06
3.07841e-06
3.09681e-06
3.11473e-06
3.13209e-06
3.14878e-06
3.16474e-06
3.17987e-06
3.19408e-06
3.20731e-06
3.21946e-06
3.23047e-06
3.24027e-06
3.24879e-06
3.25599e-06
3.2618e-06
3.2662e-06
3.26915e-06
3.27063e-06
3.27063e-06
3.26916e-06
3.26621e-06
3.26183e-06
3.25602e-06
3.24884e-06
3.24032e-06
3.23053e-06
3.21952e-06
3.20737e-06
3.19414e-06
3.17992e-06
3.16478e-06
3.14882e-06
3.13211e-06
3.11475e-06
3.09682e-06
3.07841e-06
3.0596e-06
3.04047e-06
3.02112e-06
3.00161e-06
2.98201e-06
2.96241e-06
2.94222e-06
2.89097e-06
2.90966e-06
2.92777e-06
2.94585e-06
2.96384e-06
2.98167e-06
2.99925e-06
3.01653e-06
3.03343e-06
3.04986e-06
3.06576e-06
3.08104e-06
3.09563e-06
3.10945e-06
3.12243e-06
3.13449e-06
3.14557e-06
3.1556e-06
3.16452e-06
3.17228e-06
3.17882e-06
3.18411e-06
3.1881e-06
3.19078e-06
3.19213e-06
3.19213e-06
3.19079e-06
3.18812e-06
3.18413e-06
3.17885e-06
3.17232e-06
3.16457e-06
3.15565e-06
3.14562e-06
3.13455e-06
3.12248e-06
3.1095e-06
3.09567e-06
3.08107e-06
3.06578e-06
3.04987e-06
3.03343e-06
3.01653e-06
2.99925e-06
2.98166e-06
2.96383e-06
2.94584e-06
2.92776e-06
2.90965e-06
2.89096e-06
2.84308e-06
2.86041e-06
2.87719e-06
2.89392e-06
2.91054e-06
2.92699e-06
2.94322e-06
2.95913e-06
2.97469e-06
2.9898e-06
3.00441e-06
3.01843e-06
3.03182e-06
3.04448e-06
3.05637e-06
3.0674e-06
3.07754e-06
3.0867e-06
3.09485e-06
3.10193e-06
3.10791e-06
3.11273e-06
3.11637e-06
3.11882e-06
3.12004e-06
3.12005e-06
3.11882e-06
3.11639e-06
3.11275e-06
3.10793e-06
3.10197e-06
3.0949e-06
3.08675e-06
3.07759e-06
3.06746e-06
3.05641e-06
3.04452e-06
3.03185e-06
3.01846e-06
3.00442e-06
2.98981e-06
2.97469e-06
2.95913e-06
2.94321e-06
2.92699e-06
2.91053e-06
2.89391e-06
2.87718e-06
2.86041e-06
2.84307e-06
2.79823e-06
2.81434e-06
2.82991e-06
2.84542e-06
2.86082e-06
2.87604e-06
2.89104e-06
2.90574e-06
2.92009e-06
2.93403e-06
2.94748e-06
2.9604e-06
2.9727e-06
2.98435e-06
2.99526e-06
3.00539e-06
3.01469e-06
3.02309e-06
3.03056e-06
3.03704e-06
3.04251e-06
3.04693e-06
3.05026e-06
3.0525e-06
3.05362e-06
3.05362e-06
3.0525e-06
3.05027e-06
3.04695e-06
3.04254e-06
3.03708e-06
3.0306e-06
3.02313e-06
3.01473e-06
3.00544e-06
2.9953e-06
2.98438e-06
2.97274e-06
2.96042e-06
2.9475e-06
2.93404e-06
2.9201e-06
2.90574e-06
2.89103e-06
2.87604e-06
2.86081e-06
2.84541e-06
2.8299e-06
2.81434e-06
2.79823e-06
2.75615e-06
2.77115e-06
2.78562e-06
2.80003e-06
2.81432e-06
2.82844e-06
2.84234e-06
2.85595e-06
2.86922e-06
2.8821e-06
2.89453e-06
2.90644e-06
2.91779e-06
2.92852e-06
2.93857e-06
2.9479e-06
2.95644e-06
2.96417e-06
2.97103e-06
2.97699e-06
2.98201e-06
2.98606e-06
2.98913e-06
2.99118e-06
2.99221e-06
2.99221e-06
2.99118e-06
2.98914e-06
2.98608e-06
2.98203e-06
2.97702e-06
2.97107e-06
2.96421e-06
2.95649e-06
2.94794e-06
2.93861e-06
2.92855e-06
2.91782e-06
2.90647e-06
2.89454e-06
2.88211e-06
2.86923e-06
2.85595e-06
2.84233e-06
2.82844e-06
2.81432e-06
2.80002e-06
2.78562e-06
2.77114e-06
2.75614e-06
2.71657e-06
2.73056e-06
2.74405e-06
2.75746e-06
2.77075e-06
2.78387e-06
2.79677e-06
2.8094e-06
2.8217e-06
2.83363e-06
2.84513e-06
2.85615e-06
2.86664e-06
2.87655e-06
2.88583e-06
2.89443e-06
2.90232e-06
2.90944e-06
2.91576e-06
2.92125e-06
2.92587e-06
2.9296e-06
2.93242e-06
2.9343e-06
2.93525e-06
2.93525e-06
2.93431e-06
2.93243e-06
2.92962e-06
2.92589e-06
2.92128e-06
2.91579e-06
2.90947e-06
2.90235e-06
2.89447e-06
2.88587e-06
2.87658e-06
2.86667e-06
2.85617e-06
2.84515e-06
2.83364e-06
2.8217e-06
2.8094e-06
2.79676e-06
2.78386e-06
2.77074e-06
2.75745e-06
2.74404e-06
2.73056e-06
2.71657e-06
2.67929e-06
2.69236e-06
2.70494e-06
2.71745e-06
2.72983e-06
2.74204e-06
2.75404e-06
2.76578e-06
2.7772e-06
2.78828e-06
2.79894e-06
2.80916e-06
2.81887e-06
2.82805e-06
2.83663e-06
2.84459e-06
2.85188e-06
2.85846e-06
2.8643e-06
2.86936e-06
2.87363e-06
2.87707e-06
2.87967e-06
2.88141e-06
2.88228e-06
2.88229e-06
2.88142e-06
2.87968e-06
2.87709e-06
2.87365e-06
2.86939e-06
2.86433e-06
2.85849e-06
2.85191e-06
2.84463e-06
2.83667e-06
2.82808e-06
2.8189e-06
2.80918e-06
2.79896e-06
2.78829e-06
2.77721e-06
2.76578e-06
2.75404e-06
2.74204e-06
2.72982e-06
2.71744e-06
2.70494e-06
2.69236e-06
2.67929e-06
2.6441e-06
2.65634e-06
2.66809e-06
2.67977e-06
2.69132e-06
2.70271e-06
2.71389e-06
2.72482e-06
2.73545e-06
2.74575e-06
2.75566e-06
2.76515e-06
2.77417e-06
2.78268e-06
2.79064e-06
2.79801e-06
2.80476e-06
2.81085e-06
2.81626e-06
2.82095e-06
2.82489e-06
2.82808e-06
2.83048e-06
2.83209e-06
2.8329e-06
2.8329e-06
2.83209e-06
2.83049e-06
2.82809e-06
2.82491e-06
2.82097e-06
2.81629e-06
2.81088e-06
2.80479e-06
2.79804e-06
2.79067e-06
2.78271e-06
2.77419e-06
2.76517e-06
2.75568e-06
2.74576e-06
2.73546e-06
2.72482e-06
2.71389e-06
2.70271e-06
2.69132e-06
2.67977e-06
2.66809e-06
2.65633e-06
2.6441e-06
2.61084e-06
2.6223e-06
2.63331e-06
2.64423e-06
2.65503e-06
2.66566e-06
2.6761e-06
2.68629e-06
2.6962e-06
2.70579e-06
2.71502e-06
2.72384e-06
2.73223e-06
2.74014e-06
2.74753e-06
2.75438e-06
2.76065e-06
2.7663e-06
2.77131e-06
2.77566e-06
2.77932e-06
2.78227e-06
2.78449e-06
2.78598e-06
2.78673e-06
2.78673e-06
2.78599e-06
2.7845e-06
2.78228e-06
2.77933e-06
2.77568e-06
2.77134e-06
2.76633e-06
2.76068e-06
2.75441e-06
2.74756e-06
2.74017e-06
2.73225e-06
2.72386e-06
2.71503e-06
2.7058e-06
2.6962e-06
2.68629e-06
2.67609e-06
2.66566e-06
2.65502e-06
2.64423e-06
2.63331e-06
2.6223e-06
2.57935e-06
2.59011e-06
2.60042e-06
2.61065e-06
2.62075e-06
2.6307e-06
2.64045e-06
2.64997e-06
2.65922e-06
2.66817e-06
2.67677e-06
2.685e-06
2.69281e-06
2.70018e-06
2.70706e-06
2.71343e-06
2.71925e-06
2.72451e-06
2.72916e-06
2.7332e-06
2.7366e-06
2.73934e-06
2.74141e-06
2.74279e-06
2.74349e-06
2.74349e-06
2.7428e-06
2.74141e-06
2.73935e-06
2.73662e-06
2.73322e-06
2.72919e-06
2.72453e-06
2.71928e-06
2.71346e-06
2.70709e-06
2.7002e-06
2.69283e-06
2.68502e-06
2.67679e-06
2.66818e-06
2.65923e-06
2.64997e-06
2.64045e-06
2.63069e-06
2.62075e-06
2.61064e-06
2.60042e-06
2.54949e-06
2.55959e-06
2.56927e-06
2.57886e-06
2.58833e-06
2.59765e-06
2.60678e-06
2.61568e-06
2.62433e-06
2.63269e-06
2.64073e-06
2.6484e-06
2.65569e-06
2.66256e-06
2.66898e-06
2.67491e-06
2.68034e-06
2.68523e-06
2.68956e-06
2.69332e-06
2.69648e-06
2.69903e-06
2.70095e-06
2.70224e-06
2.70289e-06
2.70289e-06
2.70224e-06
2.70096e-06
2.69904e-06
2.6965e-06
2.69334e-06
2.68959e-06
2.68525e-06
2.68036e-06
2.67494e-06
2.669e-06
2.66258e-06
2.65571e-06
2.64842e-06
2.64074e-06
2.6327e-06
2.62434e-06
2.61568e-06
2.60677e-06
2.59764e-06
2.58833e-06
2.57886e-06
2.52114e-06
2.53064e-06
2.53973e-06
2.54874e-06
2.55762e-06
2.56636e-06
2.57491e-06
2.58325e-06
2.59135e-06
2.59917e-06
2.60669e-06
2.61387e-06
2.62067e-06
2.62709e-06
2.63308e-06
2.63861e-06
2.64368e-06
2.64824e-06
2.65228e-06
2.65578e-06
2.65873e-06
2.6611e-06
2.66289e-06
2.66409e-06
2.6647e-06
2.6647e-06
2.6641e-06
2.6629e-06
2.66111e-06
2.65874e-06
2.6558e-06
2.6523e-06
2.64826e-06
2.6437e-06
2.63864e-06
2.6331e-06
2.62711e-06
2.62069e-06
2.61388e-06
2.6067e-06
2.59918e-06
2.59136e-06
2.58326e-06
2.57491e-06
2.56635e-06
2.55762e-06
2.49419e-06
2.50313e-06
2.51168e-06
2.52015e-06
2.52849e-06
2.53669e-06
2.54472e-06
2.55254e-06
2.56013e-06
2.56746e-06
2.57449e-06
2.58121e-06
2.58758e-06
2.59358e-06
2.59918e-06
2.60435e-06
2.60908e-06
2.61334e-06
2.61712e-06
2.62039e-06
2.62314e-06
2.62535e-06
2.62702e-06
2.62814e-06
2.6287e-06
2.62871e-06
2.62815e-06
2.62703e-06
2.62536e-06
2.62315e-06
2.62041e-06
2.61714e-06
2.61337e-06
2.60911e-06
2.60438e-06
2.5992e-06
2.5936e-06
2.5876e-06
2.58123e-06
2.57451e-06
2.56747e-06
2.56013e-06
2.55254e-06
2.54472e-06
2.53669e-06
2.46853e-06
2.47696e-06
2.48501e-06
2.49297e-06
2.50082e-06
2.50852e-06
2.51606e-06
2.52341e-06
2.53053e-06
2.5374e-06
2.544e-06
2.55029e-06
2.55626e-06
2.56188e-06
2.56712e-06
2.57196e-06
2.57639e-06
2.58037e-06
2.5839e-06
2.58696e-06
2.58953e-06
2.5916e-06
2.59316e-06
2.5942e-06
2.59473e-06
2.59473e-06
2.59421e-06
2.59316e-06
2.59161e-06
2.58954e-06
2.58697e-06
2.58392e-06
2.58039e-06
2.57641e-06
2.57198e-06
2.56714e-06
2.5619e-06
2.55628e-06
2.55031e-06
2.54401e-06
2.53741e-06
2.53053e-06
2.52341e-06
2.51606e-06
2.50852e-06
2.44408e-06
2.45203e-06
2.45961e-06
2.46711e-06
2.47449e-06
2.48174e-06
2.48883e-06
2.49573e-06
2.50243e-06
2.50888e-06
2.51507e-06
2.52098e-06
2.52657e-06
2.53184e-06
2.53675e-06
2.54129e-06
2.54543e-06
2.54916e-06
2.55247e-06
2.55533e-06
2.55773e-06
2.55967e-06
2.56113e-06
2.56211e-06
2.5626e-06
2.5626e-06
2.56211e-06
2.56114e-06
2.55968e-06
2.55774e-06
2.55534e-06
2.55249e-06
2.54918e-06
2.54545e-06
2.54131e-06
2.53677e-06
2.53186e-06
2.52659e-06
2.52099e-06
2.51508e-06
2.50889e-06
2.50243e-06
2.49574e-06
2.48883e-06
2.48174e-06
2.42075e-06
2.42825e-06
2.4354e-06
2.44247e-06
2.44943e-06
2.45625e-06
2.46292e-06
2.46942e-06
2.47571e-06
2.48177e-06
2.48759e-06
2.49314e-06
2.49839e-06
2.50334e-06
2.50794e-06
2.5122e-06
2.51609e-06
2.51958e-06
2.52268e-06
2.52536e-06
2.52761e-06
2.52943e-06
2.5308e-06
2.53171e-06
2.53217e-06
2.53217e-06
2.53172e-06
2.5308e-06
2.52944e-06
2.52762e-06
2.52537e-06
2.5227e-06
2.5196e-06
2.51611e-06
2.51222e-06
2.50796e-06
2.50335e-06
2.49841e-06
2.49315e-06
2.4876e-06
2.48178e-06
2.47571e-06
2.46942e-06
2.46292e-06
2.45625e-06
2.39846e-06
2.40555e-06
2.4123e-06
2.41897e-06
2.42553e-06
2.43196e-06
2.43824e-06
2.44436e-06
2.45028e-06
2.45598e-06
2.46146e-06
2.46667e-06
2.47161e-06
2.47625e-06
2.48058e-06
2.48458e-06
2.48822e-06
2.49151e-06
2.49441e-06
2.49693e-06
2.49904e-06
2.50074e-06
2.50202e-06
2.50288e-06
2.50331e-06
2.50331e-06
2.50289e-06
2.50203e-06
2.50075e-06
2.49905e-06
2.49694e-06
2.49443e-06
2.49152e-06
2.48824e-06
2.4846e-06
2.4806e-06
2.47627e-06
2.47163e-06
2.46668e-06
2.46147e-06
2.45599e-06
2.45028e-06
2.44436e-06
2.43824e-06
2.43196e-06
2.37716e-06
2.38386e-06
2.39023e-06
2.39652e-06
2.40271e-06
2.40878e-06
2.41471e-06
2.42047e-06
2.42604e-06
2.43142e-06
2.43657e-06
2.44147e-06
2.44612e-06
2.45048e-06
2.45455e-06
2.45831e-06
2.46174e-06
2.46482e-06
2.46755e-06
2.46991e-06
2.47189e-06
2.47349e-06
2.4747e-06
2.4755e-06
2.47591e-06
2.47591e-06
2.4755e-06
2.4747e-06
2.4735e-06
2.4719e-06
2.46992e-06
2.46756e-06
2.46484e-06
2.46175e-06
2.45833e-06
2.45457e-06
2.4505e-06
2.44613e-06
2.44149e-06
2.43658e-06
2.43142e-06
2.42605e-06
2.42047e-06
2.4147e-06
2.40878e-06
2.35677e-06
2.3631e-06
2.36913e-06
2.37507e-06
2.38092e-06
2.38664e-06
2.39223e-06
2.39766e-06
2.40292e-06
2.40799e-06
2.41284e-06
2.41746e-06
2.42183e-06
2.42594e-06
2.42977e-06
2.4333e-06
2.43652e-06
2.43942e-06
2.44199e-06
2.44421e-06
2.44607e-06
2.44757e-06
2.4487e-06
2.44946e-06
2.44984e-06
2.44984e-06
2.44947e-06
2.44871e-06
2.44758e-06
2.44608e-06
2.44422e-06
2.442e-06
2.43944e-06
2.43654e-06
2.43332e-06
2.42978e-06
2.42596e-06
2.42185e-06
2.41747e-06
2.41285e-06
2.40799e-06
2.40293e-06
2.39767e-06
2.39223e-06
2.38664e-06
2.33724e-06
2.34323e-06
2.34893e-06
2.35455e-06
2.36007e-06
2.36548e-06
2.37075e-06
2.37588e-06
2.38084e-06
2.38561e-06
2.39019e-06
2.39454e-06
2.39866e-06
2.40253e-06
2.40614e-06
2.40946e-06
2.4125e-06
2.41522e-06
2.41764e-06
2.41973e-06
2.42148e-06
2.42289e-06
2.42396e-06
2.42467e-06
2.42503e-06
2.42503e-06
2.42467e-06
2.42396e-06
2.4229e-06
2.42149e-06
2.41974e-06
2.41765e-06
2.41524e-06
2.41251e-06
2.40948e-06
2.40615e-06
2.40255e-06
2.39868e-06
2.39455e-06
2.3902e-06
2.38562e-06
2.38084e-06
2.37588e-06
2.37075e-06
2.31851e-06
2.32419e-06
2.32958e-06
2.33489e-06
2.34011e-06
2.34522e-06
2.3502e-06
2.35505e-06
2.35973e-06
2.36423e-06
2.36855e-06
2.37265e-06
2.37654e-06
2.38019e-06
2.38358e-06
2.38672e-06
2.38957e-06
2.39214e-06
2.39441e-06
2.39638e-06
2.39803e-06
2.39936e-06
2.40036e-06
2.40103e-06
2.40137e-06
2.40137e-06
2.40103e-06
2.40037e-06
2.39937e-06
2.39804e-06
2.39639e-06
2.39443e-06
2.39216e-06
2.38959e-06
2.38673e-06
2.3836e-06
2.3802e-06
2.37655e-06
2.37267e-06
2.36856e-06
2.36424e-06
2.35973e-06
2.35505e-06
2.3502e-06
2.30054e-06
2.30592e-06
2.31102e-06
2.31605e-06
2.32099e-06
2.32582e-06