/*--------------------------------*- C++ -*----------------------------------*\
  =========                 |
  \\      /  F ield         | OpenFOAM: The Open Source CFD Toolbox
   \\    /   O peration     | Website:  https://openfoam.org
    \\  /    A nd           | Version:  7
     \\/     M anipulation  |
\*---------------------------------------------------------------------------*/
FoamFile
{
    version     2.0;
    format      ascii;
    class       volScalarField;
    location    "40000";
    object      strainRate;
}
// * * * * * * * * * * * * * * * * * * * * * * * * * * * * * * * * * * * * * //

dimensions      [0 0 -1 0 0 0 0];

internalField   nonuniform List<scalar> 
4825
(
0.019636
0.0187565
0.0217395
0.0208616
0.0200209
0.0192026
0.0184087
0.0238482
0.0229726
0.0221348
0.0213191
0.0205275
0.02596
0.0250877
0.0242537
0.0234413
0.0226527
0.0280729
0.0272049
0.0263755
0.0255673
0.0247825
0.030185
0.0293222
0.0284982
0.027695
0.0269148
0.0322946
0.0314377
0.0306199
0.0298225
0.0290477
0.0344
0.0335498
0.0327388
0.0319479
0.0311792
0.0364999
0.035657
0.0348535
0.0340696
0.0333076
0.0385928
0.0377579
0.0369623
0.0361861
0.0354313
0.0406777
0.0398512
0.0390642
0.038296
0.037549
0.0427536
0.041936
0.0411578
0.0403982
0.0396593
0.0448195
0.0440111
0.0432423
0.0424916
0.0417612
0.0468746
0.0460759
0.0453166
0.0445752
0.0489181
0.0481294
0.0473799
0.0466481
0.0509493
0.0501709
0.0494316
0.0487096
0.0529678
0.0521999
0.051471
0.0549729
0.0542158
0.0534974
0.0569642
0.056218
0.0589412
0.0582061
0.0609036
0.0601798
0.062851
0.0621386
0.0647831
0.0640822
0.0666996
0.000124765
0.000124034
0.000125503
0.000128075
0.000131117
0.000134201
0.000137041
0.000139494
0.000141493
0.000143019
0.000144187
0.000144965
0.000145245
0.000145114
0.000144666
0.00014399
0.000143144
0.000142141
0.000140957
0.000139582
0.000134874
0.000126104
0.00012214
0.00012111
0.000121956
0.000123944
0.000126532
0.000129351
0.000132136
0.000134694
0.000137034
0.00013906
0.000140558
0.000141565
0.000142146
0.000142372
0.000142301
0.000141986
0.000141504
0.000141083
0.000175564
0.000150234
0.000134945
0.000125932
0.000121128
0.00011918
0.000119147
0.000120367
0.000122347
0.000124707
0.000127283
0.000129864
0.000132139
0.000134039
0.000135556
0.000136706
0.000137521
0.000138064
0.000138504
0.000139275
0.000282149
0.000220804
0.000181167
0.000155309
0.000138638
0.000128173
0.000121988
0.000118755
0.000117563
0.000117749
0.000118903
0.000120651
0.000122581
0.000124495
0.000126279
0.00012787
0.000129241
0.000130436
0.000131668
0.00013351
0.00053196
0.000393762
0.00030025
0.000236956
0.00019429
0.000165543
0.000146363
0.000133694
0.00012555
0.000120589
0.000117894
0.000116776
0.000116642
0.000117113
0.000117941
0.000118957
0.000120056
0.000121231
0.000122681
0.000125009
0.00105798
0.000779679
0.000578162
0.000434885
0.000334647
0.0002649
0.000216803
0.000183496
0.000160438
0.00014459
0.000133767
0.000126488
0.000121668
0.000118557
0.000116644
0.000115583
0.000115144
0.000115227
0.00011595
0.000117818
0.00200262
0.00152952
0.00115627
0.000870467
0.000657688
0.000502056
0.000390626
0.000311036
0.000254359
0.000214208
0.000185551
0.000165015
0.000150263
0.000139599
0.000131861
0.000126279
0.00012234
0.000119739
0.000118406
0.00011862
0.00341002
0.00274347
0.00217235
0.00169687
0.00131318
0.00101163
0.000781825
0.000608936
0.000480608
0.000386773
0.00031795
0.00026741
0.000230315
0.000202855
0.000182339
0.000166959
0.000155497
0.000147137
0.000141371
0.000138048
0.000137086
0.000136068
0.000134837
0.000133801
0.000133209
0.000133159
0.00013369
0.000134848
0.000136711
0.000139407
0.000143118
0.000148096
0.000154676
0.000163322
0.000174791
0.00518131
0.00438061
0.0036501
0.00299633
0.00242683
0.001944
0.0015464
0.00122576
0.000972492
0.000777057
0.000627118
0.00051294
0.000426827
0.000361719
0.000312237
0.000274569
0.00024602
0.000224642
0.000208923
0.000197885
0.00019017
0.000184771
0.000180539
0.000177571
0.000176031
0.000176001
0.000177541
0.000180756
0.000185828
0.000193047
0.000202833
0.000215773
0.000232676
0.000254696
0.000283706
0.00032295
0.000371998
0.00715598
0.00629116
0.00547218
0.00470253
0.00399284
0.00335229
0.00278648
0.00229778
0.00188463
0.00154322
0.00126507
0.00104158
0.000865021
0.000726244
0.000617387
0.000532361
0.000466501
0.000416122
0.000377894
0.000349391
0.000327613
0.000312333
0.000301214
0.000293819
0.00029011
0.000290111
0.000293917
0.000301755
0.000314043
0.00033143
0.000354854
0.000385605
0.000425441
0.000476814
0.000543523
0.000630448
0.000739081
0.000877598
0.00921037
0.00832631
0.00747571
0.00665564
0.00587381
0.00513866
0.00445674
0.00383544
0.00327912
0.00278967
0.00236649
0.00200632
0.00170498
0.00145563
0.0012511
0.00108491
0.000951588
0.000846281
0.000763737
0.000699832
0.000649965
0.000613887
0.000588052
0.000571167
0.00056281
0.000562873
0.000571497
0.000589123
0.000616563
0.000655051
0.000706319
0.00077267
0.000857105
0.000963582
0.00109788
0.00126526
0.00146948
0.00171873
0.00201903
0.00237699
0.0112856
0.0104002
0.00954547
0.00871359
0.00790888
0.00713655
0.00640076
0.00570808
0.00506363
0.00447109
0.0039345
0.00345532
0.00303323
0.00266642
0.00235152
0.00208447
0.00186123
0.00167759
0.00152838
0.00140884
0.00131378
0.00124283
0.00119179
0.00115849
0.00114207
0.00114223
0.00115917
0.00119355
0.00124653
0.00131986
0.00141588
0.00153754
0.00168848
0.00187312
0.00209703
0.00236417
0.00267858
0.00304492
0.00346639
0.00394366
0.00447888
0.00506969
0.0133651
0.0124821
0.0116309
0.0108011
0.00999527
0.00921627
0.00846631
0.00774956
0.0070695
0.00642887
0.00583207
0.00528192
0.00477987
0.0043274
0.00392463
0.00357061
0.00326372
0.00300173
0.00278177
0.00260014
0.00245288
0.00233991
0.00225769
0.00220383
0.0021772
0.00217749
0.00220486
0.00226001
0.00234412
0.00245885
0.00260635
0.00278919
0.00301028
0.00327286
0.00357993
0.00393322
0.00433553
0.00478757
0.00528928
0.00583834
0.00643449
0.007074
0.00775345
0.00846938
0.00921868
0.0154486
0.0145672
0.0137198
0.0128942
0.0120923
0.0113164
0.0105677
0.00984883
0.00916197
0.00850867
0.00789209
0.00731455
0.00677745
0.00628302
0.00583285
0.00542768
0.00506758
0.00475211
0.00448065
0.00425141
0.00406256
0.00391461
0.00380565
0.00373383
0.00369825
0.00369861
0.00373506
0.00380808
0.00391843
0.00406717
0.00425555
0.00448495
0.00475682
0.00507253
0.00543252
0.00583678
0.00628681
0.00678117
0.0073184
0.00789572
0.00851208
0.0091649
0.00985159
0.01057
0.0113183
0.0120941
0.0128957
0.0175383
0.0166579
0.015813
0.0149904
0.0141921
0.01342
0.0126754
0.0119602
0.011276
0.0106239
0.010006
0.00942398
0.00887883
0.00837241
0.00790641
0.00748195
0.00709967
0.00675993
0.0064633
0.00620941
0.00599811
0.00583034
0.00570567
0.00562312
0.00558211
0.00558249
0.0056243
0.00570778
0.00583319
0.00600089
0.00621123
0.00646455
0.0067611
0.00710088
0.00748301
0.00790684
0.00837303
0.00887978
0.00942544
0.0100078
0.0106258
0.0112779
0.0119621
0.012677
0.0134215
0.0141936
0.0149918
0.0158143
0.016659
0.0175391
0.0196353
0.0187559
0.0179129
0.0170925
0.0162967
0.0155272
0.0147858
0.014074
0.0133934
0.012745
0.0121305
0.0115511
0.0110077
0.0105017
0.0100346
0.00960725
0.00922046
0.00887471
0.00857087
0.00830925
0.0080905
0.0079156
0.00778494
0.00769817
0.007655
0.00765533
0.00769916
0.00778652
0.0079174
0.00809172
0.00830935
0.00857008
0.00887358
0.00921928
0.00960599
0.010033
0.0105006
0.0110071
0.0115513
0.0121313
0.0127462
0.0133947
0.0140754
0.0147871
0.0155285
0.0162979
0.0170937
0.017914
0.0187568
0.019636
0.021739
0.020861
0.0200203
0.019202
0.0184082
0.0176408
0.0169016
0.0161922
0.0155142
0.0148687
0.0142572
0.0136809
0.0131407
0.0126377
0.0121732
0.0117479
0.0113627
0.0110178
0.0107142
0.0104524
0.0102331
0.0100574
0.00992575
0.0098382
0.00979459
0.00979485
0.00983896
0.00992684
0.0100584
0.0102334
0.0104515
0.0107124
0.0110155
0.0113603
0.0117456
0.0121707
0.0126358
0.0131394
0.0136804
0.0142574
0.0148694
0.0155151
0.0161933
0.0169027
0.0176419
0.0184093
0.019203
0.0200213
0.0208618
0.0217396
0.0238477
0.0229721
0.0221343
0.0213186
0.0205271
0.0197619
0.0190246
0.0183172
0.0176411
0.0169977
0.0163883
0.0158142
0.0152764
0.0147759
0.0143137
0.0138908
0.0135077
0.0131649
0.0128631
0.0126029
0.012385
0.0122102
0.0120791
0.0119919
0.0119484
0.0119486
0.0119925
0.0120799
0.0122107
0.0123847
0.0126015
0.0128609
0.0131623
0.0135049
0.0138881
0.014311
0.0147737
0.0152749
0.0158135
0.0163883
0.0169981
0.0176418
0.0183181
0.0190256
0.0197628
0.0205281
0.0213195
0.0221352
0.0229728
0.0238483
0.0259595
0.0250872
0.0242532
0.0234409
0.0226524
0.0218898
0.021155
0.0204497
0.0197755
0.019134
0.0185264
0.017954
0.0174179
0.0169191
0.0164586
0.0160373
0.0156559
0.0153146
0.0150143
0.0147555
0.0145389
0.0143651
0.0142347
0.0141479
0.0141046
0.0141047
0.0141483
0.0142352
0.0143653
0.0145383
0.014754
0.015012
0.0153119
0.015653
0.0160345
0.0164559
0.0169168
0.0174163
0.0179531
0.0185262
0.0191342
0.0197761
0.0204505
0.0211558
0.0218907
0.0226533
0.0234417
0.024254
0.0250879
0.0259601
0.0280724
0.0272045
0.026375
0.0255669
0.0247822
0.024023
0.0232913
0.0225887
0.021917
0.0212776
0.0206719
0.0201013
0.0195668
0.0190695
0.0186104
0.0181904
0.0178101
0.0174701
0.0171709
0.0169131
0.0166974
0.0165244
0.0163945
0.016308
0.0162648
0.0162649
0.0163083
0.0163948
0.0165243
0.0166967
0.0169116
0.0171686
0.0174674
0.0178073
0.0181877
0.0186078
0.0190673
0.0195652
0.0201004
0.0206716
0.0212777
0.0219175
0.0225894
0.023292
0.0240239
0.024783
0.0255677
0.0263758
0.0272051
0.028073
0.0301846
0.0293218
0.0284978
0.0276946
0.0269146
0.0261596
0.0254316
0.0247325
0.0240638
0.0234272
0.022824
0.0222555
0.0217229
0.0212274
0.0207698
0.0203511
0.019972
0.0196331
0.0193348
0.0190779
0.018863
0.0186906
0.0185612
0.0184749
0.0184318
0.0184319
0.0184751
0.0185613
0.0186904
0.0188622
0.0190764
0.0193327
0.0196305
0.0199693
0.0203485
0.0207673
0.0212253
0.0217214
0.0222546
0.0228236
0.0234273
0.0240642
0.0247331
0.0254323
0.0261604
0.0269153
0.0276954
0.0284985
0.0293224
0.0301851
0.0322942
0.0314373
0.0306195
0.0298222
0.0290474
0.0282974
0.027574
0.026879
0.0262141
0.0255809
0.0249807
0.024415
0.0238848
0.0233914
0.0229357
0.0225187
0.022141
0.0218033
0.0215062
0.0212503
0.0210362
0.0208644
0.0207354
0.0206494
0.0206064
0.0206065
0.0206495
0.0207355
0.0208641
0.0210354
0.0212488
0.0215041
0.0218009
0.0221385
0.0225162
0.0229334
0.0233894
0.0238833
0.024414
0.0249803
0.0255809
0.0262145
0.0268796
0.0275747
0.0282981
0.0290482
0.0298229
0.0306202
0.0314379
0.0322947
0.0343996
0.0335495
0.0327385
0.0319476
0.0311789
0.0304346
0.0297164
0.0290263
0.0283658
0.0277366
0.0271401
0.0265777
0.0260505
0.0255598
0.0251064
0.0246915
0.0243156
0.0239794
0.0236837
0.023429
0.0232158
0.0230448
0.0229164
0.0228307
0.0227879
0.0227879
0.0228308
0.0229164
0.0230445
0.023215
0.0234275
0.0236817
0.0239771
0.0243131
0.024689
0.0251042
0.0255578
0.0260491
0.0265767
0.0271397
0.0277366
0.0283661
0.0290267
0.029717
0.0304352
0.0311796
0.0319483
0.0327392
0.03355
0.0344001
0.0364995
0.0356566
0.0348532
0.0340693
0.0333074
0.0325693
0.031857
0.0311723
0.0305169
0.0298924
0.0293001
0.0287416
0.0282179
0.0277303
0.0272798
0.0268673
0.0264936
0.0261594
0.0258654
0.0256121
0.0254001
0.0252301
0.0251023
0.0250171
0.0249745
0.0249745
0.0250171
0.0251022
0.0252297
0.0253993
0.0256107
0.0258635
0.0261572
0.0264913
0.026865
0.0272776
0.0277285
0.0282165
0.0287406
0.0292997
0.0298923
0.0305171
0.0311727
0.0318575
0.0325699
0.033308
0.03407
0.0348538
0.0356572
0.0364999
0.0385924
0.0377575
0.036962
0.0361859
0.0354311
0.0346999
0.033994
0.0333154
0.0326656
0.0320462
0.0314588
0.0309047
0.0303851
0.0299011
0.0294539
0.0290443
0.0286732
0.0283412
0.0280491
0.0277975
0.027587
0.027418
0.0272911
0.0272064
0.027164
0.027164
0.0272063
0.0272909
0.0274176
0.0275861
0.0277962
0.0280473
0.0283391
0.0286709
0.029042
0.0294518
0.0298993
0.0303836
0.0309037
0.0314583
0.0320461
0.0326657
0.0333157
0.0339945
0.0347005
0.0354317
0.0361865
0.0369626
0.037758
0.0385929
0.0406774
0.0398509
0.0390639
0.0382958
0.0375488
0.0368249
0.036126
0.0354539
0.0348102
0.0341966
0.0336145
0.0330652
0.03255
0.0320701
0.0316266
0.0312203
0.0308521
0.0305228
0.0302329
0.0299833
0.0297743
0.0296067
0.0294806
0.0293965
0.0293544
0.0293544
0.0293965
0.0294804
0.0296062
0.0297735
0.0299819
0.0302312
0.0305207
0.0308499
0.0312181
0.0316245
0.0320684
0.0325486
0.0330642
0.0336139
0.0341964
0.0348103
0.0354542
0.0361265
0.0368255
0.0375494
0.0382964
0.0390644
0.0398514
0.0406778
0.0427533
0.0419357
0.0411576
0.040398
0.0396592
0.0389431
0.0382515
0.0375864
0.0369493
0.0363418
0.0357654
0.0352214
0.0347111
0.0342357
0.0337962
0.0333936
0.0330287
0.0327022
0.0324149
0.0321674
0.0319602
0.031794
0.031669
0.0315856
0.0315438
0.0315438
0.0315855
0.0316688
0.0317935
0.0319593
0.032166
0.0324132
0.0327002
0.0330266
0.0333915
0.0337942
0.034234
0.0347098
0.0352205
0.0357649
0.0363416
0.0369494
0.0375867
0.038252
0.0389436
0.0396597
0.0403986
0.0411581
0.0419361
0.0427537
0.0448192
0.0440109
0.043242
0.0424914
0.0417611
0.0410532
0.0403695
0.0397117
0.0390816
0.0384806
0.0379103
0.037372
0.0368669
0.0363963
0.0359612
0.0355625
0.0352011
0.0348778
0.0345932
0.034348
0.0341429
0.0339782
0.0338544
0.0337717
0.0337303
0.0337303
0.0337716
0.0338541
0.0339776
0.034142
0.0343468
0.0345916
0.0348759
0.0351991
0.0355605
0.0359593
0.0363946
0.0368656
0.037371
0.0379097
0.0384804
0.0390816
0.0397119
0.0403699
0.0410537
0.0417617
0.0424919
0.0432425
0.0440113
0.0448195
0.0468743
0.0460756
0.0453164
0.044575
0.0438536
0.0431542
0.0424786
0.0418286
0.0412058
0.0406117
0.0400478
0.0395155
0.039016
0.0385505
0.03812
0.0377256
0.037368
0.037048
0.0367664
0.0365238
0.0363207
0.0361577
0.0360351
0.0359533
0.0359123
0.0359123
0.0359532
0.0360348
0.0361571
0.0363198
0.0365225
0.0367648
0.0370462
0.037366
0.0377236
0.0381182
0.0385489
0.0390147
0.0395146
0.0400472
0.0406114
0.0412058
0.0418288
0.042479
0.0431547
0.0438541
0.0445755
0.0453168
0.046076
0.0468746
0.0489178
0.0481291
0.0473797
0.0466479
0.0459358
0.0452452
0.0445781
0.0439361
0.0433208
0.042734
0.0421768
0.0416508
0.0411572
0.040697
0.0402715
0.0398815
0.0395279
0.0392116
0.0389331
0.0386931
0.0384923
0.0383311
0.0382098
0.0381289
0.0380884
0.0380883
0.0381287
0.0382095
0.0383305
0.0384914
0.0386919
0.0389315
0.0392098
0.039526
0.0398796
0.0402697
0.0406954
0.0411559
0.0416499
0.0421762
0.0427337
0.0433208
0.0439362
0.0445784
0.0452457
0.0459363
0.0466484
0.0473802
0.0481295
0.0489181
0.0509491
0.0501707
0.0494315
0.0487095
0.0480068
0.0473253
0.0466669
0.0460332
0.0454259
0.0448464
0.0442963
0.0437768
0.0432893
0.0428348
0.0424144
0.0420291
0.0416798
0.0413671
0.0410919
0.0408548
0.0406563
0.040497
0.0403772
0.0402972
0.0402571
0.040257
0.040297
0.0403768
0.0404964
0.0406554
0.0408536
0.0410904
0.0413654
0.0416779
0.0420273
0.0424127
0.0428332
0.043288
0.0437759
0.0442957
0.0448461
0.0454258
0.0460334
0.0466672
0.0473257
0.0480072
0.0487099
0.0494319
0.0501711
0.0509494
0.0529675
0.0521997
0.0514708
0.0507589
0.0500659
0.0493938
0.0487443
0.0481192
0.04752
0.0469482
0.0464054
0.0458927
0.0454114
0.0449628
0.0445477
0.0441673
0.0438224
0.0435136
0.0432419
0.0430077
0.0428117
0.0426543
0.042536
0.0424569
0.0424174
0.0424173
0.0424568
0.0425356
0.0426537
0.0428108
0.0430065
0.0432404
0.043512
0.0438206
0.0441655
0.044546
0.0449612
0.0454102
0.0458917
0.0464047
0.0469479
0.0475199
0.0481193
0.0487446
0.0493942
0.0500664
0.0507593
0.0514712
0.0522
0.0529678
0.0549727
0.0542156
0.0534973
0.0527956
0.0521125
0.05145
0.0508097
0.0501933
0.0496024
0.0490386
0.0485031
0.0479974
0.0475227
0.04708
0.0466706
0.0462952
0.0459548
0.0456501
0.0453819
0.0451508
0.0449573
0.044802
0.0446852
0.0446072
0.0445681
0.044568
0.044607
0.0446848
0.0448014
0.0449564
0.0451496
0.0453805
0.0456485
0.045953
0.0462934
0.0466689
0.0470786
0.0475215
0.0479965
0.0485025
0.0490382
0.0496023
0.0501934
0.0508099
0.0514503
0.0521129
0.052796
0.0534976
0.0542159
0.054973
0.056964
0.0562178
0.0555102
0.054819
0.054146
0.0534932
0.0528623
0.0522548
0.0516725
0.0511167
0.0505889
0.0500904
0.0496223
0.0491858
0.0487821
0.0484119
0.0480761
0.0477757
0.0475111
0.0472831
0.0470923
0.0469391
0.0468239
0.0467469
0.0467083
0.0467083
0.0467467
0.0468235
0.0469385
0.0470914
0.047282
0.0475097
0.0477741
0.0480744
0.0484102
0.0487804
0.0491844
0.0496211
0.0500894
0.0505883
0.0511164
0.0516724
0.0522549
0.0528625
0.0534935
0.0541464
0.0548194
0.0555106
0.0562181
0.0569642
0.058941
0.058206
0.0575093
0.0568286
0.0561659
0.055523
0.0549016
0.0543032
0.0537296
0.0531821
0.052662
0.0521708
0.0517096
0.0512794
0.0508815
0.0505166
0.0501857
0.0498895
0.0496287
0.049404
0.0492159
0.0490648
0.0489512
0.0488753
0.0488373
0.0488372
0.0488751
0.0489508
0.0490642
0.049215
0.0494028
0.0496273
0.0498879
0.050184
0.0505149
0.0508799
0.051278
0.0517084
0.0521699
0.0526614
0.0531817
0.0537294
0.0543033
0.0549018
0.0555233
0.0561663
0.056829
0.0575096
0.0582063
0.0589412
0.0609034
0.0601796
0.0594939
0.058824
0.0581717
0.0575388
0.056927
0.056338
0.0557732
0.055234
0.0547219
0.0542381
0.0537838
0.0533602
0.0529682
0.0526087
0.0522827
0.0519909
0.051734
0.0515125
0.0513272
0.0511783
0.0510664
0.0509916
0.0509542
0.0509541
0.0509914
0.051066
0.0511777
0.0513263
0.0515114
0.0517326
0.0519894
0.0522811
0.0526071
0.0529666
0.0533588
0.0537826
0.0542372
0.0547212
0.0552336
0.055773
0.056338
0.0569272
0.0575391
0.058172
0.0588243
0.0594942
0.0601799
0.0609036
0.0628508
0.0621385
0.0614639
0.0608047
0.0601629
0.0595402
0.0589382
0.0583586
0.0578027
0.0572721
0.056768
0.0562918
0.0558446
0.0554275
0.0550415
0.0546876
0.0543666
0.0540792
0.0538262
0.0536082
0.0534256
0.0532791
0.0531688
0.0530952
0.0530583
0.0530582
0.053095
0.0531684
0.0532785
0.0534248
0.0536071
0.0538249
0.0540777
0.054365
0.054686
0.05504
0.0554261
0.0558434
0.0562908
0.0567673
0.0572716
0.0578025
0.0583586
0.0589384
0.0595405
0.0601633
0.0608051
0.0614642
0.0621387
0.062851
0.0647829
0.0640821
0.0634187
0.0627705
0.0621393
0.0615269
0.0609348
0.0603646
0.0598178
0.0592957
0.0587998
0.0583313
0.0578912
0.0574808
0.057101
0.0567527
0.0564368
0.056154
0.0559049
0.0556903
0.0555107
0.0553664
0.0552579
0.0551854
0.055149
0.055149
0.0551851
0.0552575
0.0553658
0.0555098
0.0556892
0.0559036
0.0561525
0.0564352
0.0567511
0.0570995
0.0574794
0.0578901
0.0583303
0.0587992
0.0592953
0.0598176
0.0603646
0.0609349
0.0615272
0.0621397
0.0627708
0.063419
0.0640824
0.0647831
0.0666995
0.0660103
0.0653582
0.064721
0.0641005
0.0634984
0.0629163
0.0623557
0.061818
0.0613047
0.060817
0.0603562
0.0599234
0.0595197
0.0591461
0.0588035
0.0584928
0.0582145
0.0579696
0.0577584
0.0575817
0.0574397
0.057333
0.0572616
0.0572259
0.0572258
0.0572614
0.0573326
0.0574391
0.0575808
0.0577574
0.0579683
0.0582131
0.0584912
0.058802
0.0591447
0.0595184
0.0599223
0.0603553
0.0608163
0.0613042
0.0618178
0.0623556
0.0629164
0.0634987
0.0641008
0.0647213
0.0653585
0.0660105
0.0666997
0.0686002
0.0679228
0.067282
0.0666559
0.0660462
0.0654545
0.0648824
0.0643314
0.063803
0.0632985
0.0628191
0.0623661
0.0619407
0.0615438
0.0611765
0.0608397
0.0605341
0.0602605
0.0600196
0.059812
0.0596382
0.0594986
0.0593936
0.0593235
0.0592883
0.0592882
0.0593232
0.0593932
0.059498
0.0596374
0.059811
0.0600184
0.0602591
0.0605326
0.0608381
0.0611751
0.0615425
0.0619395
0.0623652
0.0628184
0.063298
0.0638028
0.0643314
0.0648825
0.0654548
0.0660465
0.0666562
0.0672823
0.067923
0.0686004
0.070485
0.0698194
0.06919
0.068575
0.0679761
0.0673949
0.0668329
0.0662916
0.0657725
0.0652768
0.0648058
0.0643607
0.0639427
0.0635527
0.0631917
0.0628607
0.0625604
0.0622915
0.0620547
0.0618507
0.0616798
0.0615427
0.0614394
0.0613705
0.0613359
0.0613359
0.0613703
0.061439
0.061542
0.061679
0.0618496
0.0620535
0.0622901
0.0625589
0.0628592
0.0631903
0.0635514
0.0639415
0.0643598
0.0648051
0.0652763
0.0657722
0.0662916
0.066833
0.0673951
0.0679764
0.0685752
0.0691902
0.0698196
0.0704852
0.0723536
0.0716998
0.0710819
0.070478
0.06989
0.0693193
0.0687675
0.068236
0.0677262
0.0672394
0.0667768
0.0663397
0.0659291
0.065546
0.0651915
0.0648663
0.0645712
0.0643071
0.0640745
0.0638741
0.0637062
0.0635714
0.06347
0.0634023
0.0633683
0.0633683
0.063402
0.0634696
0.0635708
0.0637054
0.063873
0.0640733
0.0643057
0.0645698
0.0648648
0.06519
0.0655447
0.0659279
0.0663388
0.0667761
0.0672389
0.0677259
0.0682359
0.0687676
0.0693196
0.0698903
0.0704783
0.0710821
0.0717
0.0742059
0.073564
0.0729575
0.0723648
0.0717877
0.0712276
0.070686
0.0701643
0.0696639
0.069186
0.0687319
0.0683027
0.0678996
0.0675235
0.0671754
0.0668561
0.0665664
0.066307
0.0660787
0.0658818
0.065717
0.0655846
0.065485
0.0654185
0.0653851
0.0653851
0.0654183
0.0654846
0.065584
0.0657162
0.0658808
0.0660774
0.0663057
0.066565
0.0668546
0.067174
0.0675222
0.0678985
0.0683018
0.0687312
0.0691855
0.0696636
0.0701642
0.0706861
0.0712278
0.071788
0.0723651
0.0729576
0.0760417
0.0754117
0.0748167
0.0742353
0.073669
0.0731195
0.0725881
0.0720763
0.0715853
0.0711164
0.0706708
0.0702496
0.069854
0.0694849
0.0691433
0.0688299
0.0685456
0.068291
0.0680668
0.0678736
0.0677118
0.0675819
0.0674841
0.0674188
0.0673861
0.067386
0.0674186
0.0674837
0.0675813
0.067711
0.0678726
0.0680656
0.0682897
0.0685442
0.0688285
0.0691419
0.0694837
0.0698529
0.0702487
0.07067
0.0711158
0.0715849
0.0720762
0.0725882
0.0731198
0.0736693
0.0742354
0.0778609
0.0772428
0.0766593
0.0760891
0.0755339
0.074995
0.0744738
0.0739718
0.0734902
0.0730303
0.0725932
0.0721802
0.0717921
0.07143
0.0710948
0.0707874
0.0705085
0.0702587
0.0700388
0.0698492
0.0696905
0.069563
0.0694671
0.069403
0.0693709
0.0693708
0.0694028
0.0694667
0.0695624
0.0696897
0.0698482
0.0700376
0.0702574
0.0705071
0.070786
0.0710935
0.0714288
0.071791
0.0721792
0.0725925
0.0730298
0.0734899
0.0739717
0.0744739
0.0749952
0.0755341
0.0796635
0.0790573
0.0784853
0.0779263
0.077382
0.0768537
0.0763428
0.0758507
0.0753786
0.0749277
0.0744991
0.0740941
0.0737136
0.0733586
0.0730299
0.0727284
0.0724549
0.07221
0.0719943
0.0718084
0.0716527
0.0715277
0.0714336
0.0713708
0.0713393
0.0713392
0.0713705
0.0714332
0.0715271
0.0716519
0.0718074
0.0719931
0.0722087
0.0724535
0.0727271
0.0730286
0.0733573
0.0737125
0.0740932
0.0744984
0.0749271
0.0753782
0.0758506
0.0763429
0.076854
0.0814492
0.0808551
0.0802945
0.0797468
0.0792134
0.0786957
0.0781951
0.0777128
0.0772502
0.0768083
0.0763883
0.0759914
0.0756184
0.0752705
0.0749483
0.0746528
0.0743847
0.0741446
0.0739332
0.0737509
0.0735983
0.0734758
0.0733836
0.0733219
0.0732911
0.073291
0.0733217
0.0733832
0.0734752
0.0735975
0.0737499
0.073932
0.0741433
0.0743833
0.0746514
0.074947
0.0752692
0.0756173
0.0759904
0.0763876
0.0768077
0.0772498
0.0777127
0.0781952
0.078696
0.0832182
0.082636
0.0820869
0.0815504
0.081028
0.0805209
0.0800305
0.0795581
0.0791049
0.078672
0.0782606
0.0778718
0.0775064
0.0771655
0.0768499
0.0765603
0.0762976
0.0760624
0.0758552
0.0756767
0.0755271
0.0754071
0.0753167
0.0752563
0.0752261
0.075226
0.0752561
0.0753163
0.0754065
0.0755264
0.0756757
0.0758541
0.0760611
0.0762963
0.076559
0.0768485
0.0771642
0.0775053
0.0778708
0.0782599
0.0786715
0.0791045
0.079558
0.0800306
0.0805211
0.0849703
0.0844
0.0838623
0.0833371
0.0828256
0.0823291
0.081849
0.0813864
0.0809427
0.0805188
0.080116
0.0797352
0.0793774
0.0790435
0.0787344
0.0784509
0.0781936
0.0779632
0.0777603
0.0775854
0.077439
0.0773214
0.0772329
0.0771737
0.0771441
0.077144
0.0771735
0.0772325
0.0773208
0.0774382
0.0775845
0.0777592
0.077962
0.0781923
0.0784496
0.0787331
0.0790423
0.0793763
0.0797342
0.0801152
0.0805182
0.0809423
0.0813863
0.081849
0.0823294
0.0867055
0.0861471
0.0856209
0.0851068
0.0846062
0.0841203
0.0836504
0.0831977
0.0827634
0.0823485
0.0819542
0.0815815
0.0812313
0.0809045
0.0806019
0.0803244
0.0800725
0.079847
0.0796483
0.0794771
0.0793338
0.0792186
0.079132
0.0790741
0.079045
0.079045
0.0790738
0.0791316
0.079218
0.079333
0.0794762
0.0796472
0.0798457
0.0800712
0.080323
0.0806006
0.0809033
0.0812302
0.0815806
0.0819535
0.082348
0.082763
0.0831975
0.0836505
0.0841206
0.0884237
0.0878773
0.0873624
0.0868595
0.0863698
0.0858945
0.0854348
0.0849919
0.084567
0.0841611
0.0837753
0.0834107
0.083068
0.0827483
0.0824522
0.0821806
0.0819342
0.0817135
0.0815191
0.0813516
0.0812113
0.0810986
0.0810139
0.0809572
0.0809288
0.0809287
0.0809569
0.0810134
0.081098
0.0812105
0.0813507
0.081518
0.0817123
0.0819329
0.0821793
0.0824509
0.0827471
0.0830669
0.0834097
0.0837746
0.0841605
0.0845666
0.0849917
0.0854348
0.0858947
0.0901251
0.0895905
0.089087
0.0885952
0.0881163
0.0876515
0.087202
0.0867689
0.0863534
0.0859565
0.0855793
0.0852226
0.0848875
0.0845748
0.0842853
0.0840196
0.0837786
0.0835628
0.0833727
0.0832088
0.0830716
0.0829614
0.0828784
0.082823
0.0827952
0.0827951
0.0828228
0.082878
0.0829608
0.0830708
0.0832078
0.0833716
0.0835616
0.0837773
0.0840183
0.084284
0.0845736
0.0848864
0.0852217
0.0855785
0.0859559
0.086353
0.0867687
0.087202
0.0876518
0.0918094
0.0912867
0.0907945
0.0903138
0.0898457
0.0893914
0.0889521
0.0885288
0.0881226
0.0877347
0.0873659
0.0870173
0.0866897
0.086384
0.086101
0.0858413
0.0856057
0.0853947
0.0852088
0.0850486
0.0849144
0.0848067
0.0847256
0.0846714
0.0846443
0.0846442
0.0846712
0.0847252
0.0848061
0.0849137
0.0850477
0.0852077
0.0853935
0.0856044
0.08584
0.0860997
0.0863828
0.0866887
0.0870164
0.0873651
0.0877341
0.0881222
0.0885286
0.0889521
0.0934769
0.092966
0.0924851
0.0920154
0.0915581
0.0911142
0.090685
0.0902714
0.0898746
0.0894956
0.0891353
0.0887947
0.0884746
0.0881759
0.0878993
0.0876456
0.0874153
0.0872091
0.0870275
0.086871
0.0867399
0.0866346
0.0865554
0.0865024
0.0864758
0.0864758
0.0865021
0.0865549
0.086634
0.0867391
0.0868701
0.0870265
0.087208
0.0874141
0.0876443
0.0878981
0.0881747
0.0884735
0.0887937
0.0891345
0.089495
0.0898742
0.0902712
0.090685
0.0951274
0.0946283
0.0941586
0.0936999
0.0932533
0.0928199
0.0924007
0.0919969
0.0916093
0.0912392
0.0908873
0.0905547
0.0902421
0.0899504
0.0896802
0.0894324
0.0892075
0.0890061
0.0888288
0.0886759
0.0885478
0.088445
0.0883676
0.0883159
0.0882899
0.0882898
0.0883156
0.0883672
0.0884444
0.0885471
0.088675
0.0888277
0.089005
0.0892063
0.0894312
0.089679
0.0899492
0.0902411
0.0905538
0.0908866
0.0912386
0.0916089
0.0919967
0.0924008
0.0967611
0.0962736
0.0958151
0.0953674
0.0949315
0.0945084
0.0940993
0.0937051
0.0933268
0.0929655
0.0926221
0.0922974
0.0919922
0.0917075
0.0906125
0.0904633
0.0903382
0.0902378
0.0901623
0.0901118
0.0900865
0.0900864
0.0901115
0.0901619
0.0902373
0.0903375
0.0904623
0.0906115
0.0907845
0.0909811
0.0912006
0.0914426
0.0917063
0.0919912
0.0922964
0.0926213
0.0929649
0.0933264
0.0937049
0.0940993
0.0929526
0.0931887
0.093446
0.0937239
0.0940218
0.0943387
0.094674
0.0950267
0.0953959
0.0957808
0.0967097
0.0970698
0.097445
0.000124568
0.000134848
0.000175661
0.000282435
0.000532571
0.00105906
0.00200413
0.00341166
0.00518276
0.00715705
0.00921108
0.011286
0.0133654
0.0154487
0.0175384
0.0196354
0.021739
0.0238477
0.0259595
0.0280725
0.0301846
0.0322942
0.0343996
0.0364995
0.0385925
0.0406774
0.0427533
0.0448192
0.0468743
0.0489178
0.0509491
0.0529675
0.0549727
0.056964
0.058941
0.0609034
0.0628508
0.0647829
0.0666995
0.0686002
0.070485
0.0723536
0.0742059
0.0760417
0.0778609
0.0796635
0.0814492
0.0832182
0.0849703
0.0867055
0.0884237
0.090125
0.0918094
0.0934769
0.0951274
0.0967611
0.000126997
0.000151347
0.00022225
0.000396106
0.000783381
0.00153449
0.00274882
0.00438521
0.0062944
0.00832828
0.0104013
0.0124826
0.0145676
0.0166581
0.018756
0.0208611
0.0229721
0.0250873
0.0272045
0.0293218
0.0314374
0.0335495
0.0356567
0.0377575
0.0398509
0.0419357
0.0440109
0.0460756
0.0481291
0.0501707
0.0521997
0.0542156
0.0562178
0.058206
0.0601796
0.0621384
0.0640821
0.0660103
0.0679228
0.0698193
0.0716998
0.0735639
0.0754117
0.0772428
0.0790573
0.080855
0.0826359
0.0844
0.0861471
0.0878772
0.0895904
0.0912867
0.0929659
0.0946282
0.0962736
0.00116704
0.00218292
0.00365815
0.00547712
0.00747818
0.00954649
0.0116312
0.0137198
0.015813
0.0179129
0.0200203
0.0221343
0.0242532
0.026375
0.0284978
0.0306195
0.0327385
0.0348532
0.0369621
0.0390639
0.0411576
0.043242
0.0453164
0.0473798
0.0494315
0.0514708
0.0534972
0.0555102
0.0575092
0.0594939
0.0614638
0.0634187
0.0653582
0.067282
0.06919
0.0710818
0.0729574
0.0748166
0.0766593
0.0784852
0.0802945
0.0820868
0.0838623
0.0856208
0.0873624
0.0890869
0.0907945
0.092485
0.0941585
0.0958151
0.000882888
0.00171066
0.00300848
0.00471116
0.00666068
0.00871609
0.0108022
0.0128946
0.0149906
0.0170926
0.019202
0.0213186
0.0234409
0.0255669
0.0276947
0.0298222
0.0319477
0.0340694
0.0361859
0.0382959
0.0403981
0.0424914
0.044575
0.046648
0.0487095
0.0507589
0.0527956
0.054819
0.0568286
0.058824
0.0608047
0.0627705
0.064721
0.0666559
0.068575
0.070478
0.0723648
0.0742352
0.0760891
0.0779263
0.0797468
0.0815504
0.083337
0.0851068
0.0868595
0.0885951
0.0903138
0.0920153
0.0936999
0.0953673
0.000669589
0.00132777
0.00244137
0.00400465
0.00588174
0.00791346
0.00999769
0.0120936
0.0141928
0.0162971
0.0184085
0.0205273
0.0226526
0.0247824
0.0269147
0.0290476
0.0311791
0.0333075
0.0354312
0.0375489
0.0396593
0.0417612
0.0438537
0.0459358
0.0480068
0.050066
0.0521126
0.054146
0.0561659
0.0581717
0.0601629
0.0621393
0.0641005
0.0660462
0.0679761
0.06989
0.0717877
0.073669
0.0755338
0.077382
0.0792134
0.0810279
0.0828255
0.0846061
0.0863697
0.0881162
0.0898457
0.091558
0.0932533
0.0949314
0.00102675
0.00196076
0.00336703
0.0051493
0.0071431
0.00921993
0.0113183
0.0134211
0.015528
0.0176413
0.0197623
0.0218901
0.0240233
0.0261598
0.0282976
0.0304348
0.0325694
0.0347
0.036825
0.0389432
0.0410533
0.0431543
0.0452453
0.0473254
0.0493939
0.05145
0.0534932
0.055523
0.0575388
0.0595402
0.0615269
0.0634984
0.0654545
0.0673949
0.0693193
0.0712276
0.0731195
0.0749949
0.0768537
0.0786957
0.0805208
0.0823291
0.0841203
0.0858944
0.0876514
0.0893914
0.0911142
0.0928198
0.0945083
0.000796177
0.00156349
0.00280287
0.00446958
0.00640921
0.00847125
0.0105704
0.0126769
0.0147867
0.0169022
0.0190252
0.0211554
0.0232916
0.0254319
0.0275743
0.0297167
0.0318572
0.0339942
0.0361262
0.0382517
0.0403696
0.0424787
0.0445782
0.046667
0.0487444
0.0508097