/*--------------------------------*- C++ -*----------------------------------*\
  =========                 |
  \\      /  F ield         | OpenFOAM: The Open Source CFD Toolbox
   \\    /   O peration     | Website:  https://openfoam.org
    \\  /    A nd           | Version:  7
     \\/     M anipulation  |
\*---------------------------------------------------------------------------*/
FoamFile
{
    version     2.0;
    format      ascii;
    class       volScalarField;
    location    "64000";
    object      nu;
}
// * * * * * * * * * * * * * * * * * * * * * * * * * * * * * * * * * * * * * //

dimensions      [0 2 -1 0 0 0 0];

internalField   nonuniform List<scalar> 
4825
(
4.01949e-06
4.0435e-06
3.96694e-06
3.99035e-06
4.01169e-06
4.03258e-06
4.05308e-06
3.91518e-06
3.93804e-06
3.95893e-06
3.9794e-06
3.99945e-06
3.8642e-06
3.88653e-06
3.90697e-06
3.92705e-06
3.94666e-06
3.81397e-06
3.83578e-06
3.85579e-06
3.87547e-06
3.89466e-06
3.76444e-06
3.78576e-06
3.80536e-06
3.82464e-06
3.84341e-06
3.71561e-06
3.73646e-06
3.75567e-06
3.77453e-06
3.7929e-06
3.66743e-06
3.68783e-06
3.70668e-06
3.72511e-06
3.74311e-06
3.61988e-06
3.63987e-06
3.65834e-06
3.67637e-06
3.69403e-06
3.57294e-06
3.59251e-06
3.61062e-06
3.62827e-06
3.64562e-06
3.52661e-06
3.54575e-06
3.5635e-06
3.58081e-06
3.59785e-06
3.48086e-06
3.49956e-06
3.51697e-06
3.53397e-06
3.55069e-06
3.43568e-06
3.45395e-06
3.47102e-06
3.48773e-06
3.50411e-06
3.39104e-06
3.4089e-06
3.42563e-06
3.44205e-06
3.34692e-06
3.3644e-06
3.38079e-06
3.39692e-06
3.30332e-06
3.32042e-06
3.33649e-06
3.35231e-06
3.2602e-06
3.27695e-06
3.29271e-06
3.21757e-06
3.23398e-06
3.24943e-06
3.17541e-06
3.19148e-06
3.1337e-06
3.14946e-06
3.09244e-06
3.10788e-06
3.05162e-06
3.06675e-06
3.01122e-06
3.02606e-06
2.97124e-06
4.94107e-06
4.97796e-06
5.01035e-06
5.04245e-06
5.07393e-06
5.10493e-06
5.13528e-06
5.16497e-06
5.19355e-06
5.22133e-06
5.24803e-06
5.27336e-06
5.29719e-06
5.31959e-06
5.34069e-06
5.36026e-06
5.37827e-06
5.39446e-06
5.40879e-06
5.42099e-06
4.86942e-06
4.90502e-06
4.93636e-06
4.96734e-06
4.9977e-06
5.02758e-06
5.0568e-06
5.08535e-06
5.11287e-06
5.13942e-06
5.16509e-06
5.18937e-06
5.21216e-06
5.23354e-06
5.25373e-06
5.27242e-06
5.28947e-06
5.3049e-06
5.31852e-06
5.3301e-06
4.7997e-06
4.8341e-06
4.86448e-06
4.89443e-06
4.92376e-06
4.95264e-06
4.98082e-06
5.00836e-06
5.03492e-06
5.06041e-06
5.08509e-06
5.10839e-06
5.13032e-06
5.15085e-06
5.17022e-06
5.18811e-06
5.20433e-06
5.21911e-06
5.23209e-06
5.24317e-06
4.73175e-06
4.76504e-06
4.79453e-06
4.82354e-06
4.85193e-06
4.87989e-06
4.90714e-06
4.93373e-06
4.95941e-06
4.98397e-06
5.00772e-06
5.03012e-06
5.05131e-06
5.07109e-06
5.08967e-06
5.10684e-06
5.12236e-06
5.13651e-06
5.14895e-06
5.15963e-06
4.66546e-06
4.69771e-06
4.72636e-06
4.75451e-06
4.78205e-06
4.80915e-06
4.83556e-06
4.86127e-06
4.88612e-06
4.90986e-06
4.93271e-06
4.95433e-06
4.97484e-06
4.99393e-06
5.01176e-06
5.02829e-06
5.04321e-06
5.05673e-06
5.06869e-06
5.07901e-06
4.60071e-06
4.63198e-06
4.65983e-06
4.68718e-06
4.71395e-06
4.74026e-06
4.76589e-06
4.79079e-06
4.81485e-06
4.83785e-06
4.85986e-06
4.88081e-06
4.90064e-06
4.91911e-06
4.93626e-06
4.95218e-06
4.96658e-06
4.97951e-06
4.99104e-06
5.00098e-06
4.53739e-06
4.56777e-06
4.5948e-06
4.62142e-06
4.64749e-06
4.67307e-06
4.69797e-06
4.72211e-06
4.74544e-06
4.76772e-06
4.78902e-06
4.80938e-06
4.82853e-06
4.84643e-06
4.86299e-06
4.87829e-06
4.89221e-06
4.90464e-06
4.91576e-06
4.9253e-06
4.4754e-06
4.50497e-06
4.53122e-06
4.55716e-06
4.58254e-06
4.60743e-06
4.63164e-06
4.65509e-06
4.67772e-06
4.69935e-06
4.72001e-06
4.73983e-06
4.75836e-06
4.77571e-06
4.79175e-06
4.80647e-06
4.81992e-06
4.83191e-06
4.84264e-06
4.85181e-06
4.85966e-06
4.86577e-06
4.87045e-06
4.87351e-06
4.87495e-06
4.87491e-06
4.87316e-06
4.86999e-06
4.86524e-06
4.85892e-06
4.85124e-06
4.84211e-06
4.8314e-06
4.81925e-06
4.80586e-06
4.41467e-06
4.44346e-06
4.46901e-06
4.49427e-06
4.51902e-06
4.54322e-06
4.5668e-06
4.58959e-06
4.61157e-06
4.63263e-06
4.6527e-06
4.67199e-06
4.68997e-06
4.7068e-06
4.72234e-06
4.73658e-06
4.74955e-06
4.76115e-06
4.77148e-06
4.78035e-06
4.78796e-06
4.79391e-06
4.79841e-06
4.80143e-06
4.80277e-06
4.80272e-06
4.80104e-06
4.79798e-06
4.79334e-06
4.78723e-06
4.77982e-06
4.77097e-06
4.76065e-06
4.74893e-06
4.73602e-06
4.72165e-06
4.70605e-06
4.35512e-06
4.38316e-06
4.40808e-06
4.43269e-06
4.45684e-06
4.48036e-06
4.50333e-06
4.52551e-06
4.54691e-06
4.56746e-06
4.58696e-06
4.60569e-06
4.62321e-06
4.63953e-06
4.65462e-06
4.66845e-06
4.68097e-06
4.69221e-06
4.70215e-06
4.71077e-06
4.71809e-06
4.7239e-06
4.72827e-06
4.73122e-06
4.73248e-06
4.73242e-06
4.73082e-06
4.72782e-06
4.72333e-06
4.71742e-06
4.71023e-06
4.70166e-06
4.69169e-06
4.6804e-06
4.66788e-06
4.65396e-06
4.63874e-06
4.62245e-06
4.29669e-06
4.32402e-06
4.34835e-06
4.37236e-06
4.39592e-06
4.41881e-06
4.44119e-06
4.46279e-06
4.48365e-06
4.50372e-06
4.52269e-06
4.54084e-06
4.55792e-06
4.57379e-06
4.58847e-06
4.60191e-06
4.61402e-06
4.62493e-06
4.63454e-06
4.64292e-06
4.64994e-06
4.65561e-06
4.65987e-06
4.66274e-06
4.66396e-06
4.66387e-06
4.66237e-06
4.6594e-06
4.6551e-06
4.64937e-06
4.64235e-06
4.63404e-06
4.62439e-06
4.61351e-06
4.60133e-06
4.58782e-06
4.57297e-06
4.55712e-06
4.5401e-06
4.52203e-06
4.23934e-06
4.26598e-06
4.28974e-06
4.3132e-06
4.33618e-06
4.35851e-06
4.3803e-06
4.40137e-06
4.42173e-06
4.44131e-06
4.45979e-06
4.47735e-06
4.49401e-06
4.50947e-06
4.52376e-06
4.53683e-06
4.54859e-06
4.55919e-06
4.56854e-06
4.57666e-06
4.58338e-06
4.58891e-06
4.59308e-06
4.59586e-06
4.59707e-06
4.59698e-06
4.59554e-06
4.59263e-06
4.58852e-06
4.58293e-06
4.57608e-06
4.56799e-06
4.55865e-06
4.54811e-06
4.53627e-06
4.52312e-06
4.50864e-06
4.4932e-06
4.47663e-06
4.45909e-06
4.44056e-06
4.42104e-06
4.18304e-06
4.20899e-06
4.23221e-06
4.25513e-06
4.27758e-06
4.2994e-06
4.32062e-06
4.34119e-06
4.36107e-06
4.38015e-06
4.39817e-06
4.41517e-06
4.4314e-06
4.44648e-06
4.46039e-06
4.47311e-06
4.48458e-06
4.4949e-06
4.50403e-06
4.51189e-06
4.51834e-06
4.5237e-06
4.52777e-06
4.53048e-06
4.53171e-06
4.53163e-06
4.53023e-06
4.5274e-06
4.52348e-06
4.51802e-06
4.51132e-06
4.50342e-06
4.49437e-06
4.4841e-06
4.4726e-06
4.45979e-06
4.4457e-06
4.43061e-06
4.41449e-06
4.39742e-06
4.37938e-06
4.36032e-06
4.34053e-06
4.3201e-06
4.29886e-06
4.12773e-06
4.15301e-06
4.17574e-06
4.19811e-06
4.22005e-06
4.24139e-06
4.26209e-06
4.28219e-06
4.3016e-06
4.32018e-06
4.33775e-06
4.35426e-06
4.37004e-06
4.38476e-06
4.39832e-06
4.4107e-06
4.42191e-06
4.43199e-06
4.4409e-06
4.44848e-06
4.45472e-06
4.4599e-06
4.46387e-06
4.4665e-06
4.46776e-06
4.46771e-06
4.46633e-06
4.46359e-06
4.45983e-06
4.45453e-06
4.44797e-06
4.44023e-06
4.43145e-06
4.42143e-06
4.41024e-06
4.39776e-06
4.38406e-06
4.3693e-06
4.35361e-06
4.33698e-06
4.3194e-06
4.3008e-06
4.28149e-06
4.26158e-06
4.24088e-06
4.21955e-06
4.19765e-06
4.07337e-06
4.09801e-06
4.12027e-06
4.1421e-06
4.16356e-06
4.18443e-06
4.20464e-06
4.22428e-06
4.24322e-06
4.26133e-06
4.27846e-06
4.29454e-06
4.30986e-06
4.32424e-06
4.33747e-06
4.34955e-06
4.3605e-06
4.37036e-06
4.37905e-06
4.38638e-06
4.39244e-06
4.39744e-06
4.40129e-06
4.40384e-06
4.40512e-06
4.40509e-06
4.40376e-06
4.40113e-06
4.39746e-06
4.39235e-06
4.38594e-06
4.37836e-06
4.36981e-06
4.36003e-06
4.34912e-06
4.33694e-06
4.32364e-06
4.30922e-06
4.29392e-06
4.27771e-06
4.26056e-06
4.24242e-06
4.22357e-06
4.20412e-06
4.18395e-06
4.16312e-06
4.14176e-06
4.11987e-06
4.09762e-06
4.07295e-06
4.01992e-06
4.04394e-06
4.06574e-06
4.08706e-06
4.10804e-06
4.12846e-06
4.14822e-06
4.16739e-06
4.18587e-06
4.20353e-06
4.22023e-06
4.23594e-06
4.25084e-06
4.26485e-06
4.27778e-06
4.28958e-06
4.30027e-06
4.30992e-06
4.31839e-06
4.32552e-06
4.3314e-06
4.33627e-06
4.33995e-06
4.34242e-06
4.34372e-06
4.3437e-06
4.34244e-06
4.33993e-06
4.33632e-06
4.3314e-06
4.32514e-06
4.31773e-06
4.30935e-06
4.29982e-06
4.28917e-06
4.27728e-06
4.26435e-06
4.25029e-06
4.23537e-06
4.21953e-06
4.20277e-06
4.18511e-06
4.1667e-06
4.14769e-06
4.12801e-06
4.10767e-06
4.0868e-06
4.06541e-06
4.04363e-06
4.01956e-06
3.96732e-06
3.99075e-06
4.0121e-06
4.03297e-06
4.05347e-06
4.07345e-06
4.09277e-06
4.11147e-06
4.12949e-06
4.14671e-06
4.163e-06
4.1784e-06
4.19292e-06
4.20655e-06
4.21919e-06
4.23072e-06
4.24116e-06
4.2506e-06
4.25884e-06
4.26584e-06
4.27155e-06
4.27629e-06
4.27979e-06
4.28218e-06
4.28348e-06
4.28349e-06
4.28229e-06
4.27991e-06
4.27636e-06
4.2716e-06
4.26549e-06
4.25825e-06
4.25003e-06
4.24073e-06
4.23032e-06
4.21871e-06
4.20613e-06
4.19245e-06
4.17789e-06
4.16239e-06
4.14601e-06
4.12881e-06
4.11083e-06
4.09225e-06
4.07301e-06
4.05315e-06
4.03274e-06
4.01181e-06
3.99049e-06
3.96702e-06
3.91554e-06
3.93841e-06
3.9593e-06
3.97976e-06
3.9998e-06
4.01934e-06
4.03823e-06
4.05647e-06
4.07406e-06
4.09083e-06
4.10674e-06
4.12184e-06
4.13603e-06
4.1493e-06
4.16166e-06
4.1729e-06
4.18312e-06
4.19233e-06
4.20036e-06
4.20725e-06
4.21282e-06
4.21742e-06
4.22075e-06
4.22307e-06
4.22434e-06
4.2244e-06
4.22325e-06
4.221e-06
4.21752e-06
4.21287e-06
4.2069e-06
4.19985e-06
4.19179e-06
4.18272e-06
4.17251e-06
4.16119e-06
4.14894e-06
4.13562e-06
4.1214e-06
4.10625e-06
4.09024e-06
4.07346e-06
4.05592e-06
4.03774e-06
4.01891e-06
3.9995e-06
3.97951e-06
3.95902e-06
3.93816e-06
3.91528e-06
3.86455e-06
3.88688e-06
3.90732e-06
3.92739e-06
3.94699e-06
3.96609e-06
3.98457e-06
4.00236e-06
4.01953e-06
4.03587e-06
4.05143e-06
4.06622e-06
4.08011e-06
4.09304e-06
4.10513e-06
4.11609e-06
4.1261e-06
4.13508e-06
4.1429e-06
4.14967e-06
4.15515e-06
4.15959e-06
4.16279e-06
4.16504e-06
4.16628e-06
4.16636e-06
4.16526e-06
4.16314e-06
4.15972e-06
4.15517e-06
4.14935e-06
4.14248e-06
4.13458e-06
4.12572e-06
4.11572e-06
4.10467e-06
4.09271e-06
4.07972e-06
4.06585e-06
4.05106e-06
4.03543e-06
4.01903e-06
4.0019e-06
3.98411e-06
3.96566e-06
3.94666e-06
3.92707e-06
3.90702e-06
3.88661e-06
3.86429e-06
3.8143e-06
3.83611e-06
3.85612e-06
3.8758e-06
3.89498e-06
3.91366e-06
3.93175e-06
3.9491e-06
3.96586e-06
3.98181e-06
3.99705e-06
4.01152e-06
4.02512e-06
4.03773e-06
4.04955e-06
4.06026e-06
4.07006e-06
4.07879e-06
4.08644e-06
4.09305e-06
4.09846e-06
4.10274e-06
4.10585e-06
4.10804e-06
4.10926e-06
4.10932e-06
4.10827e-06
4.10626e-06
4.10293e-06
4.09844e-06
4.09279e-06
4.0861e-06
4.07837e-06
4.06969e-06
4.0599e-06
4.04909e-06
4.0374e-06
4.02472e-06
4.01119e-06
3.99678e-06
3.98152e-06
3.96548e-06
3.94874e-06
3.93131e-06
3.91324e-06
3.89462e-06
3.87542e-06
3.8558e-06
3.83583e-06
3.81403e-06
3.76477e-06
3.78609e-06
3.80568e-06
3.82495e-06
3.84371e-06
3.862e-06
3.87972e-06
3.89667e-06
3.91303e-06
3.92862e-06
3.94356e-06
3.95771e-06
3.971e-06
3.98331e-06
3.99486e-06
4.00537e-06
4.01494e-06
4.02344e-06
4.03093e-06
4.03736e-06
4.04269e-06
4.04684e-06
4.04987e-06
4.052e-06
4.05322e-06
4.05326e-06
4.05224e-06
4.05031e-06
4.04708e-06
4.04266e-06
4.03718e-06
4.03065e-06
4.02308e-06
4.01459e-06
4.00498e-06
3.99442e-06
3.98299e-06
3.97061e-06
3.95739e-06
3.94335e-06
3.92846e-06
3.91278e-06
3.8964e-06
3.87931e-06
3.86162e-06
3.84335e-06
3.82452e-06
3.80532e-06
3.78576e-06
3.76448e-06
3.71594e-06
3.73677e-06
3.75597e-06
3.77482e-06
3.79318e-06
3.81109e-06
3.82845e-06
3.845e-06
3.86101e-06
3.87626e-06
3.8909e-06
3.90474e-06
3.91773e-06
3.92976e-06
3.94103e-06
3.95135e-06
3.96069e-06
3.96899e-06
3.97632e-06
3.98257e-06
3.98781e-06
3.99185e-06
3.99481e-06
3.99689e-06
3.99808e-06
3.99811e-06
3.99714e-06
3.99524e-06
3.99211e-06
3.9878e-06
3.98248e-06
3.97607e-06
3.96867e-06
3.96035e-06
3.95093e-06
3.94063e-06
3.92944e-06
3.91735e-06
3.90444e-06
3.89075e-06
3.87621e-06
3.86087e-06
3.84484e-06
3.82809e-06
3.81076e-06
3.79283e-06
3.77438e-06
3.75558e-06
3.73641e-06
3.7156e-06
3.66776e-06
3.68814e-06
3.70696e-06
3.72538e-06
3.74337e-06
3.76091e-06
3.7779e-06
3.79409e-06
3.80975e-06
3.82468e-06
3.83901e-06
3.85257e-06
3.86526e-06
3.87705e-06
3.88803e-06
3.89816e-06
3.90727e-06
3.91539e-06
3.92257e-06
3.92866e-06
3.93377e-06
3.93772e-06
3.94064e-06
3.94265e-06
3.9438e-06
3.94384e-06
3.94292e-06
3.94103e-06
3.93797e-06
3.93382e-06
3.92862e-06
3.92235e-06
3.9151e-06
3.90694e-06
3.89771e-06
3.88768e-06
3.87672e-06
3.86492e-06
3.85229e-06
3.83894e-06
3.82472e-06
3.80971e-06
3.79402e-06
3.77758e-06
3.76061e-06
3.74303e-06
3.72496e-06
3.70653e-06
3.68774e-06
3.66739e-06
3.6202e-06
3.64017e-06
3.65861e-06
3.67661e-06
3.69426e-06
3.71144e-06
3.72804e-06
3.74391e-06
3.75921e-06
3.77385e-06
3.78787e-06
3.80116e-06
3.81355e-06
3.82512e-06
3.83582e-06
3.84574e-06
3.85464e-06
3.86259e-06
3.86961e-06
3.87556e-06
3.88055e-06
3.88441e-06
3.88729e-06
3.88925e-06
3.89034e-06
3.8904e-06
3.88954e-06
3.88763e-06
3.88465e-06
3.88065e-06
3.87555e-06
3.86946e-06
3.86235e-06
3.85433e-06
3.84531e-06
3.83553e-06
3.82481e-06
3.81328e-06
3.80092e-06
3.78787e-06
3.77395e-06
3.75926e-06
3.7439e-06
3.72778e-06
3.71115e-06
3.69393e-06
3.67623e-06
3.65817e-06
3.63974e-06
3.61983e-06
3.57325e-06
3.59281e-06
3.61089e-06
3.62851e-06
3.64583e-06
3.66265e-06
3.67885e-06
3.69442e-06
3.70937e-06
3.72373e-06
3.73746e-06
3.75046e-06
3.76259e-06
3.77395e-06
3.78436e-06
3.79406e-06
3.80276e-06
3.81056e-06
3.81741e-06
3.82325e-06
3.82813e-06
3.8319e-06
3.83473e-06
3.83665e-06
3.8377e-06
3.83777e-06
3.83696e-06
3.83505e-06
3.83212e-06
3.82826e-06
3.82325e-06
3.81733e-06
3.81036e-06
3.80249e-06
3.79367e-06
3.78413e-06
3.77366e-06
3.76239e-06
3.75031e-06
3.73751e-06
3.72388e-06
3.70951e-06
3.69445e-06
3.67865e-06
3.66235e-06
3.64549e-06
3.62816e-06
3.61046e-06
3.59239e-06
3.57291e-06
3.52691e-06
3.54603e-06
3.56376e-06
3.58103e-06
3.59803e-06
3.61449e-06
3.63031e-06
3.64559e-06
3.66022e-06
3.6743e-06
3.68775e-06
3.70045e-06
3.71233e-06
3.72347e-06
3.73363e-06
3.74311e-06
3.75162e-06
3.75926e-06
3.76595e-06
3.77168e-06
3.77646e-06
3.78016e-06
3.78294e-06
3.78483e-06
3.78585e-06
3.78592e-06
3.78513e-06
3.78324e-06
3.78036e-06
3.77662e-06
3.77171e-06
3.76594e-06
3.75911e-06
3.75138e-06
3.74278e-06
3.73346e-06
3.72325e-06
3.7122e-06
3.70041e-06
3.68784e-06
3.67448e-06
3.66042e-06
3.64566e-06
3.6302e-06
3.6142e-06
3.5977e-06
3.58071e-06
3.56337e-06
3.54566e-06
3.52659e-06
3.48115e-06
3.49984e-06
3.51722e-06
3.53418e-06
3.55085e-06
3.56695e-06
3.58242e-06
3.59742e-06
3.61174e-06
3.62553e-06
3.6387e-06
3.65111e-06
3.66277e-06
3.67368e-06
3.68362e-06
3.69286e-06
3.7012e-06
3.70867e-06
3.71521e-06
3.72084e-06
3.72552e-06
3.72914e-06
3.73189e-06
3.73374e-06
3.73474e-06
3.73482e-06
3.73403e-06
3.73216e-06
3.72935e-06
3.72568e-06
3.7209e-06
3.71527e-06
3.70859e-06
3.701e-06
3.6926e-06
3.68348e-06
3.67351e-06
3.66269e-06
3.65119e-06
3.63883e-06
3.62575e-06
3.61197e-06
3.59752e-06
3.58238e-06
3.56668e-06
3.55052e-06
3.53386e-06
3.51688e-06
3.49952e-06
3.48086e-06
3.43596e-06
3.45422e-06
3.47126e-06
3.48793e-06
3.50425e-06
3.52001e-06
3.53517e-06
3.54987e-06
3.56391e-06
3.5774e-06
3.59027e-06
3.60242e-06
3.61385e-06
3.62454e-06
3.63429e-06
3.64329e-06
3.65147e-06
3.65877e-06
3.66516e-06
3.67068e-06
3.67529e-06
3.67883e-06
3.68154e-06
3.68336e-06
3.68434e-06
3.68442e-06
3.6836e-06
3.68177e-06
3.67905e-06
3.67543e-06
3.67081e-06
3.66528e-06
3.65874e-06
3.65131e-06
3.64312e-06
3.63417e-06
3.62441e-06
3.61384e-06
3.6026e-06
3.59047e-06
3.57766e-06
3.56415e-06
3.54998e-06
3.53517e-06
3.51977e-06
3.50393e-06
3.4876e-06
3.47096e-06
3.45395e-06
3.43568e-06
3.39131e-06
3.40916e-06
3.42586e-06
3.44225e-06
3.45822e-06
3.47365e-06
3.48852e-06
3.50291e-06
3.51668e-06
3.52989e-06
3.54247e-06
3.55438e-06
3.56558e-06
3.57603e-06
3.58562e-06
3.59438e-06
3.6024e-06
3.60954e-06
3.61579e-06
3.62118e-06
3.62572e-06
3.6292e-06
3.63187e-06
3.63364e-06
3.63461e-06
3.63469e-06
3.63385e-06
3.63208e-06
3.62941e-06
3.62585e-06
3.62137e-06
3.61595e-06
3.60955e-06
3.60229e-06
3.59429e-06
3.58551e-06
3.57595e-06
3.56563e-06
3.55462e-06
3.54272e-06
3.53018e-06
3.51694e-06
3.50304e-06
3.48853e-06
3.47345e-06
3.45791e-06
3.4419e-06
3.4256e-06
3.40892e-06
3.39104e-06
3.34719e-06
3.36466e-06
3.38102e-06
3.3971e-06
3.41274e-06
3.42784e-06
3.44245e-06
3.45654e-06
3.47005e-06
3.48298e-06
3.49527e-06
3.50696e-06
3.51792e-06
3.52814e-06
3.53758e-06
3.54611e-06
3.55396e-06
3.56094e-06
3.56705e-06
3.57233e-06
3.5768e-06
3.58023e-06
3.58283e-06
3.58458e-06
3.58553e-06
3.5856e-06
3.58476e-06
3.58305e-06
3.58042e-06
3.57692e-06
3.57257e-06
3.56726e-06
3.561e-06
3.55392e-06
3.5461e-06
3.53747e-06
3.52811e-06
3.51801e-06
3.50723e-06
3.49557e-06
3.48329e-06
3.4703e-06
3.45668e-06
3.44246e-06
3.4277e-06
3.41244e-06
3.39676e-06
3.38077e-06
3.36443e-06
3.34693e-06
3.30358e-06
3.32068e-06
3.33672e-06
3.35249e-06
3.3678e-06
3.38258e-06
3.39694e-06
3.41074e-06
3.42398e-06
3.43665e-06
3.44867e-06
3.46013e-06
3.47086e-06
3.48085e-06
3.49013e-06
3.49847e-06
3.50613e-06
3.51297e-06
3.51895e-06
3.52412e-06
3.5285e-06
3.53188e-06
3.53442e-06
3.53615e-06
3.53708e-06
3.53713e-06
3.53631e-06
3.53465e-06
3.53206e-06
3.52862e-06
3.52437e-06
3.51917e-06
3.51307e-06
3.50617e-06
3.49851e-06
3.49003e-06
3.48086e-06
3.47099e-06
3.46042e-06
3.449e-06
3.43695e-06
3.42424e-06
3.41088e-06
3.39695e-06
3.3825e-06
3.36752e-06
3.35216e-06
3.33647e-06
3.32045e-06
3.30333e-06
3.26046e-06
3.2772e-06
3.29293e-06
3.30838e-06
3.32337e-06
3.33787e-06
3.35197e-06
3.36549e-06
3.37845e-06
3.39089e-06
3.40266e-06
3.41386e-06
3.42437e-06
3.43414e-06
3.44325e-06
3.45142e-06
3.45889e-06
3.4656e-06
3.47144e-06
3.47653e-06
3.48081e-06
3.48414e-06
3.48661e-06
3.48833e-06
3.48922e-06
3.48928e-06
3.48847e-06
3.48685e-06
3.48431e-06
3.48093e-06
3.47677e-06
3.47169e-06
3.46575e-06
3.459e-06
3.45151e-06
3.44318e-06
3.43418e-06
3.42452e-06
3.41416e-06
3.40298e-06
3.39117e-06
3.37873e-06
3.36563e-06
3.352e-06
3.33783e-06
3.32314e-06
3.30808e-06
3.29268e-06
3.27697e-06
3.26022e-06
3.21782e-06
3.23422e-06
3.24964e-06
3.26477e-06
3.27945e-06
3.29369e-06
3.30752e-06
3.32077e-06
3.33346e-06
3.34566e-06
3.35719e-06
3.36814e-06
3.37843e-06
3.38801e-06
3.39693e-06
3.40493e-06
3.41224e-06
3.4188e-06
3.42452e-06
3.42952e-06
3.4337e-06
3.43698e-06
3.43942e-06
3.4411e-06
3.44195e-06
3.44201e-06
3.44123e-06
3.43964e-06
3.43716e-06
3.43383e-06
3.42976e-06
3.42478e-06
3.41902e-06
3.4124e-06
3.40507e-06
3.3969e-06
3.38806e-06
3.3786e-06
3.36845e-06
3.35751e-06
3.34593e-06
3.33376e-06
3.32091e-06
3.30757e-06
3.29368e-06
3.27927e-06
3.2645e-06
3.24939e-06
3.234e-06
3.21758e-06
3.17566e-06
3.19172e-06
3.20684e-06
3.22166e-06
3.23602e-06
3.25001e-06
3.26357e-06
3.27656e-06
3.289e-06
3.30096e-06
3.31225e-06
3.32295e-06
3.33304e-06
3.34243e-06
3.35114e-06
3.35899e-06
3.36614e-06
3.37256e-06
3.37817e-06
3.38309e-06
3.38716e-06
3.39038e-06
3.3928e-06
3.39444e-06
3.39526e-06
3.3953e-06
3.39456e-06
3.39299e-06
3.39058e-06
3.38731e-06
3.38332e-06
3.37845e-06
3.37284e-06
3.36634e-06
3.35918e-06
3.35116e-06
3.34249e-06
3.33323e-06
3.32328e-06
3.31256e-06
3.3012e-06
3.28929e-06
3.2767e-06
3.26364e-06
3.25002e-06
3.23589e-06
3.22141e-06
3.20658e-06
3.1915e-06
3.1754e-06
3.13395e-06
3.14969e-06
3.16452e-06
3.17903e-06
3.1931e-06
3.20683e-06
3.22011e-06
3.23284e-06
3.24504e-06
3.25676e-06
3.26782e-06
3.27828e-06
3.28817e-06
3.29738e-06
3.30588e-06
3.31358e-06
3.32059e-06
3.32687e-06
3.33237e-06
3.3372e-06
3.34117e-06
3.34434e-06
3.34674e-06
3.34833e-06
3.34912e-06
3.34914e-06
3.34844e-06
3.34688e-06
3.34455e-06
3.34134e-06
3.33743e-06
3.33268e-06
3.32719e-06
3.32082e-06
3.31381e-06
3.30595e-06
3.29745e-06
3.28837e-06
3.27862e-06
3.26812e-06
3.25699e-06
3.24532e-06
3.23298e-06
3.22019e-06
3.20685e-06
3.19299e-06
3.17879e-06
3.16425e-06
3.14946e-06
3.13369e-06
3.09269e-06
3.10811e-06
3.12265e-06
3.13687e-06
3.15065e-06
3.16412e-06
3.17712e-06
3.18961e-06
3.20156e-06
3.21305e-06
3.22389e-06
3.23411e-06
3.24381e-06
3.25284e-06
3.26113e-06
3.26868e-06
3.27556e-06
3.28171e-06
3.28712e-06
3.29183e-06
3.2957e-06
3.29883e-06
3.30121e-06
3.30276e-06
3.30353e-06
3.30353e-06
3.30285e-06
3.30131e-06
3.29904e-06
3.2959e-06
3.29208e-06
3.28744e-06
3.28204e-06
3.27581e-06
3.26895e-06
3.26125e-06
3.25293e-06
3.24402e-06
3.23447e-06
3.22417e-06
3.21326e-06
3.20182e-06
3.18974e-06
3.1772e-06
3.16413e-06
3.15056e-06
3.13663e-06
3.12237e-06
3.10787e-06
3.09243e-06
3.05185e-06
3.06697e-06
3.08122e-06
3.09516e-06
3.10867e-06
3.12186e-06
3.13459e-06
3.14685e-06
3.15855e-06
3.16981e-06
3.18044e-06
3.19044e-06
3.19995e-06
3.20879e-06
3.21689e-06
3.2243e-06
3.23105e-06
3.23706e-06
3.24239e-06
3.24696e-06
3.25075e-06
3.25385e-06
3.25619e-06
3.25771e-06
3.25847e-06
3.25846e-06
3.25778e-06
3.25627e-06
3.25403e-06
3.25098e-06
3.24726e-06
3.24271e-06
3.23741e-06
3.23131e-06
3.22458e-06
3.21705e-06
3.2089e-06
3.20016e-06
3.19079e-06
3.18071e-06
3.17001e-06
3.15879e-06
3.14697e-06
3.13468e-06
3.12187e-06
3.10857e-06
3.09492e-06
3.08095e-06
3.06672e-06
3.05161e-06
3.01145e-06
3.02626e-06
3.04024e-06
3.05389e-06
3.06714e-06
3.08006e-06
3.09252e-06
3.10455e-06
3.11601e-06
3.12703e-06
3.13746e-06
3.14726e-06
3.15657e-06
3.16521e-06
3.17315e-06
3.18041e-06
3.18704e-06
3.19292e-06
3.19817e-06
3.2026e-06
3.20631e-06
3.20937e-06
3.21168e-06
3.21317e-06
3.21389e-06
3.21389e-06
3.21321e-06
3.21175e-06
3.20954e-06
3.20657e-06
3.20293e-06
3.19847e-06
3.19326e-06
3.1873e-06
3.18069e-06
3.17333e-06
3.16535e-06
3.15677e-06
3.14757e-06
3.13772e-06
3.12724e-06
3.11623e-06
3.10466e-06
3.09261e-06
3.08007e-06
3.06704e-06
3.05366e-06
3.03996e-06
3.02601e-06
3.01122e-06
2.97146e-06
2.98597e-06
2.99967e-06
3.01304e-06
3.02606e-06
3.03869e-06
3.0509e-06
3.0627e-06
3.07392e-06
3.0847e-06
3.09493e-06
3.10453e-06
3.11364e-06
3.12211e-06
3.1299e-06
3.13703e-06
3.14351e-06
3.14927e-06
3.15442e-06
3.15873e-06
3.16237e-06
3.16538e-06
3.16764e-06
3.16912e-06
3.16981e-06
3.16982e-06
3.16914e-06
3.16771e-06
3.16554e-06
3.16265e-06
3.15909e-06
3.15472e-06
3.14961e-06
3.14377e-06
3.13727e-06
3.13008e-06
3.12227e-06
3.11386e-06
3.10482e-06
3.09519e-06
3.08492e-06
3.07412e-06
3.0628e-06
3.05099e-06
3.0387e-06
3.02594e-06
3.01284e-06
2.99941e-06
2.98572e-06
2.97125e-06
2.93188e-06
2.9461e-06
2.95952e-06
2.97263e-06
2.98539e-06
2.99775e-06
3.00971e-06
3.02128e-06
3.03228e-06
3.04283e-06
3.05286e-06
3.06226e-06
3.07118e-06
3.07948e-06
3.08712e-06
3.09411e-06
3.10046e-06
3.1061e-06
3.11114e-06
3.11535e-06
3.11891e-06
3.12187e-06
3.12408e-06
3.12553e-06
3.1262e-06
3.12623e-06
3.12554e-06
3.12415e-06
3.12202e-06
3.11923e-06
3.11573e-06
3.11143e-06
3.10642e-06
3.10071e-06
3.09432e-06
3.08731e-06
3.07965e-06
3.07141e-06
3.06252e-06
3.05311e-06
3.04306e-06
3.03247e-06
3.02139e-06
3.00981e-06
2.99777e-06
2.98527e-06
2.97243e-06
2.95927e-06
2.94585e-06
2.93169e-06
2.89271e-06
2.90663e-06
2.91978e-06
2.93263e-06
2.94513e-06
2.95724e-06
2.96896e-06
2.98029e-06
2.99108e-06
3.0014e-06
3.01124e-06
3.02043e-06
3.02917e-06
3.03729e-06
3.04479e-06
3.05166e-06
3.05787e-06
3.06339e-06
3.0683e-06
3.07244e-06
3.07593e-06
3.07882e-06
3.08099e-06
3.08241e-06
3.08306e-06
3.0831e-06
3.08242e-06
3.08105e-06
3.07897e-06
3.07627e-06
3.07283e-06
3.06861e-06
3.0637e-06
3.05812e-06
3.05184e-06
3.04499e-06
3.03749e-06
3.02939e-06
3.02068e-06
3.01147e-06
3.00163e-06
2.99125e-06
2.9804e-06
2.96905e-06
2.95725e-06
2.94503e-06
2.93244e-06
2.91954e-06
2.90639e-06
2.89253e-06
2.85394e-06
2.86758e-06
2.88045e-06
2.89304e-06
2.90529e-06
2.91714e-06
2.92862e-06
2.93971e-06
2.95029e-06
2.9604e-06
2.97004e-06
2.97905e-06
2.98759e-06
2.99555e-06
3.0029e-06
3.00965e-06
3.01572e-06
3.02113e-06
3.02592e-06
3.02998e-06
3.0334e-06
3.03622e-06
3.03836e-06
3.03974e-06
3.04038e-06
3.04043e-06
3.03975e-06
3.03841e-06
3.03638e-06
3.03376e-06
3.03038e-06
3.02623e-06
3.02143e-06
3.01598e-06
3.00981e-06
3.00313e-06
2.99577e-06
2.98782e-06
2.97928e-06
2.97025e-06
2.96062e-06
2.95045e-06
2.93982e-06
2.92871e-06
2.91715e-06
2.9052e-06
2.89286e-06
2.8802e-06
2.86734e-06
2.81556e-06
2.82891e-06
2.84153e-06
2.85385e-06
2.86585e-06
2.87745e-06
2.88868e-06
2.89954e-06
2.90993e-06
2.91983e-06
2.92926e-06
2.93809e-06
2.94644e-06
2.95424e-06
2.96144e-06
2.96806e-06
2.97402e-06
2.97931e-06
2.98398e-06
2.98797e-06
2.99132e-06
2.99408e-06
2.99617e-06
2.99751e-06
2.99815e-06
2.9982e-06
2.99753e-06
2.99622e-06
2.99424e-06
2.99169e-06
2.98837e-06
2.9843e-06
2.9796e-06
2.97427e-06
2.96823e-06
2.96168e-06
2.95448e-06
2.94669e-06
2.93831e-06
2.92946e-06
2.92003e-06
2.91006e-06
2.89966e-06
2.88877e-06
2.87746e-06
2.86576e-06
2.85368e-06
2.84127e-06
2.77757e-06
2.79063e-06
2.80299e-06
2.81504e-06
2.8268e-06
2.83816e-06
2.84915e-06
2.85978e-06
2.86997e-06
2.87967e-06
2.8889e-06
2.89755e-06
2.9057e-06
2.91335e-06
2.9204e-06
2.92689e-06
2.93275e-06
2.93792e-06
2.94247e-06
2.94639e-06
2.94967e-06
2.95238e-06
2.95442e-06
2.95573e-06
2.95637e-06
2.95641e-06
2.95574e-06
2.95446e-06
2.95253e-06
2.95004e-06
2.94679e-06
2.94281e-06
2.93821e-06
2.93298e-06
2.92707e-06
2.92066e-06
2.9136e-06
2.90597e-06
2.89776e-06
2.88907e-06
2.87984e-06
2.87008e-06
2.8599e-06
2.84924e-06
2.83816e-06
2.82671e-06
2.8149e-06
2.73995e-06
2.75273e-06
2.76483e-06
2.77662e-06
2.78814e-06
2.79926e-06
2.81002e-06
2.82042e-06
2.83041e-06
2.83991e-06
2.84895e-06
2.85743e-06
2.86538e-06
2.87287e-06
2.87978e-06
2.88614e-06
2.89189e-06
2.89696e-06
2.90139e-06
2.90524e-06
2.90846e-06
2.91111e-06
2.9131e-06
2.91437e-06
2.91501e-06
2.91504e-06
2.91438e-06
2.91313e-06
2.91125e-06
2.9088e-06
2.90562e-06
2.90175e-06
2.89723e-06
2.8921e-06
2.88633e-06
2.88006e-06
2.87314e-06
2.86566e-06
2.85763e-06
2.8491e-06
2.84005e-06
2.8305e-06
2.82053e-06
2.81011e-06
2.79925e-06
2.78806e-06
2.7027e-06
2.71519e-06
2.72704e-06
2.73858e-06
2.74987e-06
2.76075e-06
2.77127e-06
2.78146e-06
2.79124e-06
2.80054e-06
2.80939e-06
2.8177e-06
2.82546e-06
2.83281e-06
2.83958e-06
2.84581e-06
2.85144e-06
2.85642e-06
2.86073e-06
2.86451e-06
2.86766e-06
2.87026e-06
2.8722e-06
2.87344e-06
2.87406e-06
2.87409e-06
2.87345e-06
2.87222e-06
2.87037e-06
2.86797e-06
2.86486e-06
2.8611e-06
2.85667e-06
2.85163e-06
2.846e-06
2.83985e-06
2.83308e-06
2.82575e-06
2.81789e-06
2.80953e-06
2.80067e-06
2.79131e-06
2.78156e-06
2.77136e-06
2.76072e-06
2.66582e-06
2.67803e-06
2.68962e-06
2.70092e-06
2.71197e-06
2.72263e-06
2.73291e-06
2.74288e-06
2.75245e-06
2.76156e-06
2.77022e-06
2.77836e-06
2.78595e-06
2.79314e-06
2.79978e-06
2.80588e-06
2.81139e-06
2.81627e-06
2.82048e-06
2.82418e-06
2.82727e-06
2.82982e-06
2.8317e-06
2.83292e-06
2.83353e-06
2.83354e-06
2.83292e-06
2.83171e-06
2.8299e-06
2.82754e-06
2.82451e-06
2.82085e-06
2.8165e-06
2.81156e-06
2.80606e-06
2.80005e-06
2.79341e-06
2.78623e-06
2.77855e-06
2.77036e-06
2.76168e-06
2.75252e-06
2.74297e-06
2.733e-06
2.72257e-06
2.62931e-06
2.64123e-06
2.65257e-06
2.66362e-06
2.67443e-06
2.68487e-06
2.69493e-06
2.70468e-06
2.71405e-06
2.72295e-06
2.73144e-06
2.7394e-06
2.74683e-06
2.75387e-06
2.76037e-06
2.76635e-06
2.77173e-06
2.77651e-06
2.78064e-06
2.78424e-06
2.78729e-06
2.78977e-06
2.7916e-06
2.79279e-06
2.79339e-06
2.7934e-06
2.7928e-06
2.79161e-06
2.78984e-06
2.78751e-06
2.78456e-06
2.78099e-06
2.77673e-06
2.77188e-06
2.76652e-06
2.76063e-06
2.75413e-06
2.7471e-06
2.73959e-06
2.73157e-06
2.72308e-06
2.7141e-06
2.70476e-06
2.695e-06
2.6848e-06
2.59314e-06
2.60479e-06
2.61588e-06
2.6267e-06
2.63726e-06
2.64749e-06
2.65733e-06
2.66686e-06
2.67601e-06
2.68473e-06
2.69303e-06
2.70083e-06
2.7081e-06
2.71499e-06
2.72135e-06
2.72721e-06
2.73247e-06
2.73714e-06
2.74119e-06
2.7447e-06
2.7477e-06
2.7501e-06
2.75189e-06
2.75307e-06
2.75366e-06
2.75366e-06
2.75308e-06
2.7519e-06
2.75017e-06
2.74788e-06
2.745e-06
2.74151e-06
2.73736e-06
2.73261e-06
2.72737e-06
2.7216e-06
2.71523e-06
2.70835e-06
2.701e-06
2.69317e-06
2.68485e-06
2.67607e-06
2.66692e-06
2.65737e-06
2.64741e-06
2.55733e-06
2.56872e-06
2.57955e-06
2.59014e-06
2.60045e-06
2.61046e-06
2.6201e-06
2.62941e-06
2.63836e-06
2.64689e-06
2.655e-06
2.66264e-06
2.66975e-06
2.6765e-06
2.68272e-06
2.68845e-06
2.69358e-06
2.69816e-06
2.70213e-06
2.70555e-06
2.70849e-06
2.71082e-06
2.71257e-06
2.71373e-06
2.71431e-06
2.7143e-06
2.71375e-06
2.71258e-06
2.71089e-06
2.70865e-06
2.70582e-06
2.70241e-06
2.69835e-06
2.69372e-06
2.6886e-06
2.68296e-06
2.67672e-06
2.66998e-06
2.66279e-06
2.65514e-06
2.647e-06
2.63841e-06
2.62946e-06
2.62011e-06
2.61038e-06
2.52188e-06
2.533e-06
2.54359e-06
2.55394e-06
2.56401e-06
2.5738e-06
2.58323e-06
2.59233e-06
2.60109e-06
2.60942e-06
2.61735e-06
2.62483e-06
2.63178e-06
2.63838e-06
2.64446e-06
2.65007e-06
2.65508e-06
2.65956e-06
2.66345e-06
2.66677e-06
2.66966e-06
2.67192e-06
2.67364e-06
2.67479e-06
2.67535e-06
2.67534e-06
2.67479e-06
2.67365e-06
2.67199e-06
2.66979e-06
2.66703e-06
2.66368e-06
2.65973e-06
2.65522e-06
2.65021e-06
2.64469e-06
2.63859e-06
2.63199e-06
2.62495e-06
2.61748e-06
2.60951e-06
2.60112e-06
2.59238e-06
2.58321e-06
2.57373e-06
2.48678e-06
2.49764e-06
2.50798e-06
2.51809e-06
2.52793e-06
2.5375e-06
2.54673e-06
2.55561e-06
2.56418e-06
2.57233e-06
2.58007e-06
2.58738e-06
2.59419e-06
2.60063e-06
2.60658e-06
2.61205e-06
2.61696e-06
2.62134e-06
2.62514e-06
2.62838e-06
2.6312e-06
2.6334e-06
2.63509e-06
2.63623e-06
2.63677e-06
2.63677e-06
2.63622e-06
2.63511e-06
2.63348e-06
2.63132e-06
2.62861e-06
2.62533e-06
2.62148e-06
2.6171e-06
2.61219e-06
2.6068e-06
2.60083e-06
2.59438e-06
2.58749e-06
2.58019e-06
2.5724e-06
2.56421e-06
2.55566e-06
2.54669e-06
2.53745e-06
2.45203e-06
2.46262e-06
2.47273e-06
2.4826e-06
2.49221e-06
2.50156e-06
2.51059e-06
2.51926e-06
2.52764e-06
2.5356e-06
2.54316e-06
2.55031e-06
2.55696e-06
2.56326e-06
2.56908e-06
2.5744e-06
2.57921e-06
2.58348e-06
2.58721e-06
2.59037e-06
2.59313e-06
2.59526e-06
2.59691e-06
2.59805e-06
2.59857e-06
2.59857e-06
2.59802e-06
2.59695e-06
2.59534e-06
2.59322e-06
2.59056e-06
2.58736e-06
2.58361e-06
2.57934e-06
2.57454e-06
2.56928e-06
2.56345e-06
2.55714e-06
2.5504e-06
2.54327e-06
2.53566e-06
2.52766e-06
2.51931e-06
2.51054e-06
2.41763e-06
2.42797e-06
2.43784e-06
2.44748e-06
2.45686e-06
2.46599e-06
2.47481e-06
2.48328e-06
2.49146e-06
2.49924e-06
2.50661e-06
2.5136e-06
2.5201e-06
2.52625e-06
2.53194e-06
2.53712e-06
2.54183e-06
2.54599e-06
2.54963e-06
2.55273e-06
2.55543e-06
2.5575e-06
2.55912e-06
2.56023e-06
2.56075e-06
2.56075e-06
2.5602e-06
2.55915e-06
2.55759e-06
2.55549e-06
2.55289e-06
2.54977e-06
2.54612e-06
2.54195e-06
2.53727e-06
2.53213e-06
2.52644e-06
2.52027e-06
2.51368e-06
2.50671e-06
2.49929e-06
2.49148e-06
2.48331e-06
2.47476e-06
2.3836e-06
2.39367e-06
2.4033e-06
2.41271e-06
2.42187e-06