/*--------------------------------*- C++ -*----------------------------------*\
  =========                 |
  \\      /  F ield         | OpenFOAM: The Open Source CFD Toolbox
   \\    /   O peration     | Website:  https://openfoam.org
    \\  /    A nd           | Version:  7
     \\/     M anipulation  |
\*---------------------------------------------------------------------------*/
FoamFile
{
    version     2.0;
    format      ascii;
    class       surfaceScalarField;
    location    "64000";
    object      phi;
}
// * * * * * * * * * * * * * * * * * * * * * * * * * * * * * * * * * * * * * //

dimensions      [0 3 -1 0 0 0 0];

internalField   nonuniform List<scalar> 
9490
(
-2.70976e-23
1.27588e-22
2.60069e-23
-3.71854e-23
-2.76603e-23
1.43029e-22
2.60075e-23
-3.04926e-23
-3.40126e-23
-2.77577e-23
1.05213e-22
-2.00436e-23
7.14512e-23
1.1916e-23
-2.81542e-23
1.50205e-22
2.48425e-23
-2.98993e-23
4.59703e-24
-2.76868e-23
6.17324e-23
-1.97915e-23
6.43746e-23
1.21475e-23
-2.84479e-23
1.71576e-22
2.35591e-23
-3.06387e-23
1.19284e-23
-2.721e-23
1.18503e-22
-2.04209e-23
1.00854e-22
8.79583e-24
-2.75003e-23
1.21109e-22
2.29905e-23
-3.04692e-23
-7.41411e-23
-2.67015e-23
1.12958e-22
-2.09435e-23
1.33031e-22
5.64914e-24
-2.89622e-23
5.46591e-23
2.27118e-23
-2.87865e-23
-1.11322e-22
-2.75047e-23
7.51896e-23
-2.11586e-23
7.49353e-23
-5.76705e-23
-2.92803e-23
5.16188e-23
2.42137e-23
-2.80515e-23
-7.70396e-23
-2.65934e-23
6.69576e-23
-2.17842e-23
1.7976e-23
-6.39423e-23
-2.85812e-23
5.59188e-23
2.53667e-23
-2.72102e-23
-8.32256e-23
-2.63525e-23
6.2609e-23
-2.17171e-23
2.48198e-23
-9.47321e-23
-2.93293e-23
5.43511e-23
2.53389e-23
-2.58538e-23
-1.92503e-24
-2.69093e-23
6.0427e-23
-2.17654e-23
3.75799e-23
-9.67122e-23
-2.94321e-23
4.76493e-23
2.42172e-23
-2.51997e-23
1.00211e-22
-2.76075e-23
6.10238e-23
-2.17679e-23
5.14322e-23
-9.89713e-23
-2.82652e-23
2.59724e-24
2.35851e-23
-2.5579e-23
9.31709e-23
-2.73732e-23
6.1228e-23
-2.20994e-23
9.89357e-23
-6.44969e-23
-2.74259e-23
-1.36792e-25
2.33321e-23
-2.53866e-23
9.04226e-23
-2.87209e-23
6.48105e-23
-2.21281e-23
9.58979e-23
-6.69902e-23
-2.56597e-23
-1.58632e-23
2.33329e-23
-2.51873e-23
7.675e-23
-2.94438e-23
7.43631e-24
-2.21607e-23
9.46551e-23
-2.54438e-23
-1.96444e-23
2.2594e-23
-2.5024e-23
7.63936e-23
-2.92506e-23
-4.56049e-23
8.64414e-23
-2.51659e-23
-2.8353e-23
2.29276e-23
-2.52812e-23
8.2086e-23
-2.92913e-23
-3.23882e-23
1.02744e-22
-2.49544e-23
-9.89522e-23
2.23778e-23
-2.47448e-23
9.78375e-23
-2.89977e-23
-2.0369e-23
-2.46018e-23
-1.50958e-23
2.26376e-23
-2.47549e-23
1.04672e-22
-4.62839e-23
-2.41937e-23
-7.83416e-23
2.21506e-23
-2.42261e-23
1.09264e-22
-2.3753e-23
-7.73467e-23
2.28054e-23
1.19312e-22
-2.37687e-23
-4.35048e-23
2.24494e-23
1.27039e-22
-2.31292e-23
-7.68161e-23
2.16137e-23
9.845e-23
-2.3018e-23
-3.98221e-23
2.11847e-23
7.60313e-23
-2.22641e-23
2.36363e-23
2.14415e-23
2.03579e-23
-8.72547e-24
-4.04362e-23
1.18578e-23
-6.46699e-24
-6.26213e-23
-5.79068e-24
-2.07283e-24
5.90716e-24
3.3524e-23
-9.07755e-24
2.3976e-23
-7.13198e-24
-1.44397e-23
-6.01215e-24
3.1529e-23
-3.60242e-24
-2.45945e-23
-1.54671e-24
7.67192e-23
-7.48035e-24
2.81435e-23
-2.66667e-24
8.02208e-23
-1.16564e-23
7.59301e-23
-1.49076e-23
8.70451e-23
-1.49708e-23
1.30776e-22
-1.45673e-24
6.59264e-23
9.94886e-24
1.20321e-22
-3.22015e-25
3.21838e-23
6.51164e-24
-4.60204e-23
-7.20242e-24
-9.42125e-24
-1.92026e-23
-9.31051e-24
3.22699e-23
1.27372e-23
-4.93043e-24
5.31317e-23
-4.31729e-24
-5.67066e-23
3.7538e-24
3.24415e-23
-9.58318e-24
-5.03536e-24
-8.93105e-24
-2.70499e-23
-5.94625e-24
3.24711e-23
-3.08595e-24
-3.42421e-23
-6.85022e-26
2.03683e-22
-8.17843e-24
2.81837e-23
-2.5659e-24
7.54574e-23
-1.06163e-23
4.35032e-23
-1.48473e-23
7.87177e-23
-1.67592e-23
1.72789e-22
2.65602e-25
1.23296e-22
8.85192e-24
1.12831e-22
-2.85993e-24
6.39609e-23
7.05004e-24
-3.08768e-23
-8.71046e-24
-4.2667e-23
4.62362e-23
-7.93981e-24
4.01147e-23
1.04792e-23
-6.6702e-24
-1.53387e-25
-4.24305e-24
-6.11548e-23
3.63662e-24
3.37828e-23
-1.05065e-23
-3.51455e-23
-9.59187e-24
-3.06415e-23
-5.42156e-24
3.43799e-23
-1.08742e-24
-4.19788e-23
-1.88376e-24
2.08699e-22
-7.59516e-24
3.04512e-23
-4.1162e-24
6.47592e-23
-9.79718e-24
4.87605e-23
-1.21415e-23
1.14416e-22
-1.80118e-23
1.36156e-22
-1.45253e-25
1.2308e-22
7.79676e-24
6.50509e-23
-2.54625e-24
4.37179e-24
6.41431e-24
-3.43704e-23
-6.96865e-24
-7.5644e-23
3.6063e-23
-1.10433e-23
3.79249e-23
7.17284e-24
-6.30548e-24
1.9164e-24
-3.58554e-24
-2.86439e-23
2.24294e-24
9.96214e-24
-9.9885e-24
-3.91261e-23
-1.07741e-23
-4.83457e-23
-3.0403e-24
-2.20551e-24
1.96878e-24
-2.38434e-23
-2.73894e-24
1.96214e-22
-8.53659e-24
3.53747e-23
-2.61688e-24
9.52305e-23
-9.04645e-24
5.27226e-23
-1.15423e-23
1.2348e-22
-1.75545e-23
1.8773e-22
-1.70457e-24
4.83856e-23
7.08513e-24
5.04166e-23
-2.84943e-24
-5.86034e-23
4.88743e-24
-3.79974e-23
-4.37776e-24
-7.08644e-23
2.18632e-23
-1.27514e-23
3.7221e-23
5.43782e-24
-7.89143e-24
6.79468e-23
-3.03621e-24
-6.29797e-23
2.00264e-24
1.35622e-23
-9.60554e-24
-2.04037e-23
-1.12837e-23
-4.22887e-23
-1.22482e-24
2.36521e-23
2.7294e-24
6.56825e-25
-3.48908e-24
1.64246e-22
-9.37982e-24
1.99507e-23
-2.93217e-24
1.61805e-22
-7.52323e-24
6.13737e-23
-9.70525e-24
8.84121e-23
-2.02962e-23
1.34347e-22
-2.44291e-24
4.37164e-23
4.81012e-24
7.09691e-24
-1.88186e-24
-4.56109e-23
4.39468e-24
-3.86369e-23
-3.73714e-24
-5.95119e-23
4.24155e-23
-1.20611e-23
-1.36076e-24
5.8132e-24
-1.06043e-23
5.37912e-23
-3.38405e-24
-8.86063e-23
1.80335e-24
1.12351e-25
-9.41212e-24
2.37509e-24
-1.25034e-23
-4.0757e-23
2.23362e-24
2.92388e-23
4.26532e-24
1.67292e-23
-3.89617e-24
1.23224e-22
-6.9665e-24
-6.05792e-23
-3.59017e-24
1.34224e-22
-6.45689e-24
6.71565e-23
-8.98386e-24
1.17467e-22
-2.2288e-23
1.52035e-22
-3.35985e-24
8.54534e-23
3.30265e-24
-6.74483e-24
-1.62848e-24
-4.86242e-23
3.99248e-24
-1.29292e-23
-2.40599e-24
-3.06291e-23
-7.99692e-24
-1.28334e-23
-5.96238e-23
4.98492e-24
-1.17816e-23
9.94971e-23
-2.63577e-24
-2.74568e-23
1.83912e-24
-3.20832e-23
-1.01773e-23
2.04232e-23
-1.23311e-23
-6.10932e-23
4.02314e-24
1.34834e-22
3.40898e-24
3.45071e-23
-4.40036e-24
1.22378e-22
-6.06527e-24
-6.45486e-23
-3.62295e-24
1.64028e-22
-6.40892e-24
1.4848e-22
-9.33195e-24
1.18915e-22
-2.2339e-23
9.43973e-23
-6.86075e-24
4.21679e-23
2.36093e-24
-1.55131e-23
-1.89719e-25
-9.46534e-23
4.36744e-24
-1.94115e-23
-2.94521e-24
5.38837e-23
6.97061e-23
-1.02423e-23
-3.54382e-23
6.17285e-24
-1.41877e-23
5.02515e-23
-4.27938e-24
1.88606e-23
3.31136e-24
-2.18924e-23
-1.06571e-23
-3.76507e-26
-9.30812e-24
-6.87803e-23
5.72123e-24
2.3124e-22
1.13729e-24
-3.77651e-23
-5.57619e-24
7.78489e-23
-4.20765e-24
-7.45074e-23
-1.89442e-24
1.59e-22
-7.92077e-24
1.21822e-22
-8.67501e-24
1.53431e-22
-2.42415e-23
-1.84012e-23
-7.63884e-24
4.63005e-23
2.24295e-24
-3.02092e-23
1.33472e-24
-8.91288e-23
7.10761e-24
-2.18453e-23
-4.08545e-24
1.01436e-24
-4.57966e-24
5.98338e-23
3.57644e-24
-4.60973e-23
-4.73327e-24
-1.29502e-24
-5.47377e-24
-3.71239e-23
1.71082e-24
-3.78611e-24
-1.14157e-23
-7.44475e-23
-5.35368e-24
-5.58226e-23
-1.105e-23
-3.22514e-23
-1.21987e-23
-1.32527e-22
-1.28894e-23
-3.2025e-23
-1.11774e-23
-6.61202e-23
-2.67919e-24
-2.60378e-23
-4.49318e-24
-5.48416e-23
-8.19074e-24
9.50792e-25
2.97372e-24
-8.44236e-24
-2.13405e-23
-7.91133e-24
1.91414e-23
7.77776e-24
-1.49157e-23
1.2268e-23
-4.22689e-24
3.95914e-23
3.37903e-24
-3.00693e-23
-1.07622e-23
4.0979e-23
-5.66988e-24
-1.98659e-23
3.16762e-24
1.28815e-22
4.61619e-25
8.50413e-24
-6.98925e-24
6.52801e-23
-1.4774e-24
-5.24063e-23
8.14072e-25
1.72443e-22
-9.02758e-24
4.96186e-25
-1.23894e-23
1.54262e-22
-2.35005e-23
-1.21112e-23
-9.36793e-24
3.07123e-23
8.6463e-25
-4.11108e-23
2.3893e-24
3.19218e-23
8.09528e-24
-1.85771e-23
-3.54413e-24
-3.91865e-23
-5.18989e-24
5.41764e-23
3.4193e-24
1.00889e-23
-5.30821e-24
-2.55891e-23
-4.15659e-24
-3.78652e-23
1.49588e-25
-3.09906e-23
-1.10358e-23
-6.68447e-23
-5.49911e-24
-7.29472e-23
-1.1938e-23
-2.57175e-23
-1.12378e-23
-1.71079e-22
-1.25292e-23
-2.84645e-23
-1.01839e-23
-3.24917e-23
-2.78452e-24
-2.48508e-23
-3.1703e-24
-8.21826e-23
-8.3281e-24
-2.3996e-23
3.52041e-24
-2.6584e-23
1.7797e-24
-2.89827e-23
-5.08348e-24
-2.17413e-23
-6.60493e-23
-8.53633e-24
3.90244e-24
6.05436e-24
-1.46244e-23
-3.28508e-23
-5.546e-24
1.03764e-22
2.79744e-24
-4.12898e-23
-9.49236e-24
6.28461e-23
-5.65849e-24
-6.17416e-23
1.88848e-24
6.69614e-23
6.27232e-25
2.24913e-23
-7.11333e-24
3.65558e-23
-2.74789e-25
-5.02466e-23
-1.40978e-26
1.79454e-22
-7.20027e-24
1.57281e-23
-1.52086e-23
1.35728e-22
-2.3075e-23
-7.16121e-24
-1.03061e-23
1.17428e-23
3.70636e-24
-4.08597e-23
5.17649e-25
4.20668e-23
8.2855e-24
2.02705e-23
-2.27677e-24
-1.17537e-23
-4.39244e-24
5.47906e-23
1.62947e-24
-4.65276e-23
-5.39474e-24
-2.405e-23
-3.58358e-24
-4.54597e-23
-5.90037e-25
-3.56118e-23
-1.0888e-23
-4.55666e-23
-5.49585e-24
-5.88812e-23
-1.27632e-23
-1.52219e-23
-1.01724e-23
-1.64613e-22
-1.0809e-23
-4.82655e-24
-1.07609e-23
-2.56977e-23
-3.01425e-24
-2.01697e-23
-1.91157e-24
-9.32748e-23
-9.09818e-24
-6.01952e-23
5.45084e-24
3.68482e-23
7.1424e-25
-2.53038e-23
-6.19429e-24
-5.38987e-23
-9.83732e-24
-6.48153e-23
-2.94148e-23
-8.28087e-24
2.86197e-24
5.60707e-24
-1.45884e-23
-5.91977e-23
-6.18528e-24
1.59046e-22
3.77245e-24
8.90713e-24
-1.16733e-23
1.14065e-23
-4.15713e-24
-4.86293e-23
1.75728e-24
1.03556e-23
-1.93867e-26
1.97202e-23
-7.67035e-24
2.44332e-23
2.3415e-24
-5.67241e-23
-1.247e-24
1.17811e-22
-6.45509e-24
1.18106e-23
-1.69086e-23
1.55835e-22
-2.44402e-23
-7.19408e-24
-1.00123e-23
1.9535e-23
5.8807e-24
5.58125e-24
5.76156e-27
-2.87774e-23
8.41007e-24
2.17748e-23
-1.51012e-24
-1.66842e-23
-5.01081e-24
2.28707e-23
8.8253e-25
-5.12429e-23
-5.62059e-24
-1.59177e-23
-2.71019e-24
-3.99582e-23
-7.26536e-25
-3.68651e-23
-1.06827e-23
-3.2478e-23
-5.98063e-24
-4.84751e-23
-1.36153e-23
5.57117e-24
-9.00815e-24
-1.80006e-22
-9.21612e-24
-9.7042e-25
-1.14151e-23
-9.72033e-23
-3.75773e-24
5.36906e-24
-1.13649e-24
-2.15532e-23
-7.73497e-24
-6.55326e-23
4.22678e-24
2.47785e-23
-5.15719e-25
-2.53192e-23
-4.88081e-24
-5.53581e-23
-1.01135e-23
-5.90851e-23
-2.93865e-24
-5.70348e-23
2.61906e-24
-6.55485e-23
-3.44882e-23
-8.02723e-24
4.44238e-24
6.40112e-24
-1.29507e-23
-5.06994e-23
-7.59182e-24
1.84405e-22
1.70831e-24
7.40811e-25
-1.12691e-23
2.47601e-23
-4.29582e-24
-5.2183e-23
2.27853e-24
-1.26109e-23
6.32799e-25
7.40754e-23
-7.67164e-24
4.24503e-23
2.77407e-24
5.76804e-24
-6.56991e-25
1.29088e-22
-5.88733e-24
1.42798e-23
-1.82533e-23
4.63245e-23
-2.39938e-23
-1.64337e-23
-1.00185e-23
7.70691e-23
4.87507e-24
6.90377e-23
9.38589e-25
4.87239e-23
7.77761e-24
3.17861e-23
-9.55051e-25
-4.59277e-23
-4.66008e-24
2.51568e-23
1.10307e-24
-6.76574e-23
-5.91018e-24
-5.28192e-24
-2.25697e-24
-6.22464e-23
-6.67948e-25
-4.39318e-23
-1.0692e-23
-1.15073e-23
-6.05448e-24
-3.47082e-23
-1.50711e-23
2.57758e-23
-7.56426e-24
-1.63204e-22
-1.01938e-23
4.5905e-23
-1.02002e-23
-8.77809e-23
-3.27026e-24
-5.91024e-23
-2.64571e-24
-3.3354e-23
-6.11769e-24
-4.10415e-23
3.26947e-24
2.35399e-23
-6.46213e-25
-3.44312e-23
-3.94347e-24
-3.02092e-23
-1.12878e-23
-4.12523e-23
-2.07191e-24
-2.50496e-23
3.32367e-24
-3.01284e-23
-5.0478e-24
-2.05361e-23
-2.16123e-23
-1.90138e-23
-1.62418e-23
-8.81947e-24
1.00757e-23
5.81186e-24
-1.10676e-23
-7.24977e-23
-8.1451e-24
1.15311e-22
2.55219e-25
-7.36468e-24
-1.09923e-23
-7.35763e-24
-3.57099e-24
1.97628e-23
2.87371e-24
-2.15493e-23
6.8845e-26
8.2275e-23
-8.41136e-24
6.24126e-23
3.78094e-24
-7.42078e-24
-4.17117e-26
1.16837e-23
-6.38374e-24
6.56695e-24
-1.93308e-23
9.3806e-23
-2.17242e-23
5.19386e-23
-1.02351e-23
6.58361e-23
4.44106e-24
6.77684e-23
1.46731e-24
4.55766e-23
5.95469e-24
2.37226e-23
2.78001e-26
1.36548e-23
-5.68546e-24
2.92972e-23
1.56771e-24
-3.93549e-23
-6.88744e-24
-7.26362e-23
-1.48767e-24
-3.11264e-24
1.86749e-26
-4.79203e-23
-1.08311e-23
1.50315e-25
-5.99567e-24
1.15148e-23
-1.67391e-23
-3.66814e-23
-5.836e-24
-1.4854e-22
-1.105e-23
-2.48372e-23
-9.8189e-24
-8.50124e-23
-1.67282e-24
-2.29598e-23
-2.43071e-24
-4.74448e-23
-5.52813e-24
-4.53332e-23
2.01402e-24
1.36756e-23
-7.96527e-25
3.60331e-23
-4.23382e-24
-1.90225e-23
-1.05815e-23
-3.22239e-23
-2.22416e-24
-8.44345e-24
3.61724e-24
-5.91443e-23
-4.07633e-24
-4.68977e-23
-2.09009e-23
-2.66237e-23
-1.81569e-23
-1.22933e-23
-2.83999e-23
-5.90839e-24
-2.94321e-23
1.25388e-24
3.7042e-23
-8.27139e-24
1.08446e-23
6.58058e-24
-1.02854e-23
-1.02788e-22
-8.2042e-24
9.66708e-23
-2.03884e-24
3.94414e-23
-1.04104e-23
-3.7755e-24
-2.14468e-24
3.32859e-23
3.45257e-24
-1.75228e-23
-4.70137e-25
8.76666e-23
-9.23577e-24
9.02584e-23
3.95503e-24
1.60805e-23
9.80327e-25
1.7239e-23
-6.84662e-24
-7.91313e-24
-1.82459e-23
3.67688e-23
-2.1531e-23
-1.44467e-23
-9.224e-24
9.2663e-23
2.80815e-24
5.61343e-23
1.76093e-24
6.35252e-23
5.65397e-24
5.05649e-23
2.59166e-25
2.46099e-23
-6.32673e-24
-4.6266e-24
6.1778e-25
-3.57763e-23
-5.47242e-24
-7.40429e-23
-1.72802e-24
5.93258e-23
6.25801e-25
-5.35115e-23
-1.03961e-23
-1.95456e-23
-7.67394e-24
-2.72949e-23
-1.70741e-23
-2.68599e-23
-5.43291e-24
-1.05254e-22
-1.11658e-23
-1.26752e-23
-9.17917e-24
-7.05834e-23
-1.45124e-24
-3.46298e-23
-2.28654e-24
-8.6884e-23
-4.70791e-24
-4.85889e-23
2.90096e-24
-4.24226e-23
-2.04467e-24
1.92166e-23
-3.97439e-24
-9.42116e-24
-1.11401e-23
-3.11009e-23
-2.40568e-24
5.52472e-23
4.30814e-24
1.27321e-23
-3.63295e-24
-2.76614e-23
-2.0987e-23
-5.93046e-23
-1.70455e-23
-2.60249e-24
-2.84744e-23
-5.29484e-23
-2.73504e-23
-5.33664e-24
-2.58016e-23
1.91258e-23
-2.11365e-23
1.24214e-22
4.47298e-24
-8.2026e-24
1.19024e-23
7.24576e-24
-9.7318e-24
-5.87338e-23
-8.25012e-24
8.4817e-23
-3.49555e-24
2.75449e-23
-8.66117e-24
1.62154e-25
-3.12625e-24
2.4043e-23
5.22932e-24
-4.49653e-24
6.09772e-25
9.44244e-23
-1.01323e-23
1.22214e-22
3.19404e-24
7.07117e-23
1.05441e-24
1.20785e-23
-5.80028e-24
-1.90951e-24
-1.82904e-23
5.42586e-23
-2.03724e-23
-9.11882e-24
-8.95216e-24
1.03477e-22
2.7717e-24
3.22663e-23
8.45266e-25
6.81008e-23
5.96476e-24
7.46814e-23
-2.45839e-25
-2.07595e-23
-6.37625e-24
1.11683e-23
-1.03611e-25
8.8092e-23
-3.01339e-24
-8.02556e-23
-3.42482e-24
4.22019e-23
1.20659e-24
-9.4615e-23
-1.04825e-23
-4.04113e-23
-8.03279e-24
-2.50509e-23
-1.73483e-23
-4.93354e-23
-5.49069e-24
-1.00841e-22
-1.12589e-23
4.03092e-24
-8.607e-24
-1.98971e-23
-2.24165e-24
-3.24806e-23
-1.56913e-24
-5.10579e-23
-4.75376e-24
-4.92825e-23
3.96603e-24
-2.40066e-23
-2.18168e-24
3.31972e-23
-4.02567e-24
3.18163e-23
-1.07413e-23
-2.27594e-23
-3.24849e-24
4.66085e-23
4.77689e-24
5.92693e-25
-5.40291e-24
-2.4744e-23
-1.93259e-23
-1.35951e-22
-1.75686e-23
-3.81849e-23
-2.78291e-23
-9.98918e-23
-2.64931e-23
-2.42244e-23
-2.49924e-23
-2.28982e-23
-2.20802e-23
9.07723e-23
-2.66079e-23
1.49056e-23
-1.80296e-23
8.5513e-23
-2.83303e-23
1.07099e-22
5.56623e-23
-8.24001e-24
8.83809e-24
7.9358e-24
-8.43104e-24
-5.70604e-23
-9.23559e-24
7.63627e-23
-3.20875e-24
4.46789e-23
-9.6057e-24
-3.79457e-23
-2.59507e-24
6.18741e-24
4.57708e-24
-1.55427e-23
1.0362e-24
3.23711e-23
-1.03774e-23
4.24419e-23
1.87975e-24
1.5608e-23
1.60708e-24
8.3712e-23
-6.02111e-24
7.60233e-24
-1.93357e-23
4.02139e-23
-1.77365e-23
-1.58366e-23
-1.00088e-23
1.22761e-22
3.4055e-24
8.01404e-23
1.18153e-24
4.1464e-23
4.92356e-24
7.325e-23
8.11517e-25
-5.63513e-23
-5.43746e-24
3.24085e-23
-2.89108e-24
8.6998e-23
-7.07386e-25
-2.51044e-23
-5.35119e-24
3.75932e-23
2.11471e-24
-3.31436e-23
-1.04927e-23
-3.05962e-23
-8.47277e-24
4.40644e-23
-1.73759e-23
-8.8387e-26
-4.7825e-24
-9.30602e-23
-1.08005e-23
-1.30904e-23
-9.6658e-24
-6.87266e-24
-2.12988e-24
-2.18145e-24
-2.19852e-24
-4.3027e-23
-4.27205e-24
-4.74238e-23
4.51772e-24
-2.98635e-23
-1.70358e-24
-4.50238e-23
-5.01196e-24
1.92815e-23
-9.56021e-24
-2.2726e-23
-3.3486e-24
3.51856e-23
4.76146e-24
-1.33715e-23
-6.73605e-24
-9.90936e-23
-1.80653e-23
-1.55915e-22
-1.7491e-23
-2.01182e-23
-2.56088e-23
-7.59188e-23
-2.61642e-23
1.12405e-23
-2.38755e-23
-8.53555e-23
-2.15661e-23
1.46998e-24
-2.58527e-23
1.20631e-23
-1.81049e-23
7.98484e-23
-2.78685e-23
3.72241e-23
6.63754e-23
-8.20043e-24
6.90976e-23
8.75486e-24
-7.77244e-24
-5.85184e-23
-9.95445e-24
-6.28942e-24
-5.09547e-24
3.57425e-23
-9.31131e-24
-3.66506e-23
-2.75092e-24
5.25831e-24
4.65418e-24
-1.14924e-23
2.43586e-24
3.8702e-23
-1.04606e-23
6.09988e-23
3.05411e-24
8.66331e-23
5.81959e-25
5.85006e-23
-5.65436e-24
5.43941e-23
-1.96536e-23
-1.60309e-23
-1.54968e-23
-3.64132e-23
-9.28362e-24
1.34755e-22
2.55187e-24
1.27955e-22
1.95006e-24
8.23644e-23
2.85992e-24
3.52573e-23
2.12537e-24
5.79108e-24
-4.89421e-24
2.99692e-23
-3.62791e-24
8.84549e-23
-2.62527e-25
3.96727e-23
-6.08634e-24
4.13278e-23
2.01394e-24
-1.62612e-23
-9.21657e-24
-2.3531e-23
-9.08097e-24
3.77719e-23
-1.85136e-23
-5.52726e-23
-4.24841e-24
-6.12676e-23
-1.0191e-23
3.69905e-24
-9.84364e-24
1.57025e-24
-2.48339e-24
2.83857e-23
-2.16246e-24
-6.61876e-23
-3.94139e-24
-4.42092e-23
3.99131e-24
-4.18563e-23
-1.21539e-24
-7.40853e-23
-4.98208e-24
-3.63687e-23
-9.61311e-24
-5.79413e-23
-3.37839e-24
2.83702e-23
3.21844e-24
-9.13252e-23
-6.82556e-24
-8.23488e-23
-1.73825e-23
-2.01574e-22
-1.77603e-23
-4.80631e-23
-2.53036e-23
-6.35435e-23
-2.61568e-23
2.76016e-23
-2.30124e-23
-9.28591e-23
-2.07224e-23
1.233e-24
-2.41475e-23
9.28783e-23
-1.87039e-23
9.19591e-23
-2.63436e-23
3.16339e-23
-1.1103e-23
-9.02451e-24
7.05061e-23
8.25082e-24
-7.93721e-24
-6.85517e-25
-9.90645e-24
-1.7815e-23
-4.98276e-24
2.46154e-23
-9.70193e-24
-3.11871e-23
-2.93613e-24
4.57985e-23
5.70567e-24
-7.4342e-24
1.7247e-24
4.24773e-23
-9.43794e-24
1.13582e-22
2.35997e-24
8.709e-23
7.32566e-25
1.38248e-22
-6.32771e-24
1.32158e-22
-1.91372e-23
-1.81237e-24
-1.33337e-23
-7.97753e-24
-8.95327e-24
1.57371e-22
2.24913e-24
1.77127e-22
2.88767e-25
5.42156e-23
3.04682e-24
3.46251e-23
3.05313e-24
-1.6085e-24
-4.88482e-24
-2.72105e-23
-3.08279e-24
8.97467e-23
-8.90141e-25
1.63344e-23
-6.0199e-24
5.1416e-23
1.61249e-24
3.05626e-23
-8.09204e-24
-1.02061e-23
-1.08465e-23
6.86792e-24
-1.82742e-23
-8.22689e-23
-3.86425e-24
-6.87534e-23
-9.79861e-24
-2.69845e-23
-9.49828e-24
5.975e-24
-4.236e-24
-2.98641e-24
-1.90249e-24
-6.75954e-23
-4.29893e-24
-9.77324e-23
3.85916e-24
-5.07892e-23
-3.96237e-25
-7.21066e-23
-4.99365e-24
-2.98501e-23
-8.81694e-24
-5.86729e-23
-4.91725e-24
2.63373e-23
2.67703e-24
-9.67812e-23
-6.91082e-24
-1.33503e-22
-1.54997e-23
-1.91184e-22
-1.67723e-23
-1.01511e-22
-2.37772e-23
-5.07936e-23
-2.76594e-23
-3.73019e-24
-2.14405e-23
-1.1602e-23
-1.96877e-23
1.55511e-23
-2.58962e-23
1.43683e-22
-1.79808e-23
1.32299e-22
-2.63145e-23
2.33251e-23
-2.56991e-23
-9.14025e-24
1.07201e-22
7.99883e-24
-9.28743e-24
-5.5905e-24
-9.9547e-24
3.39182e-23
-5.73857e-24
7.59876e-23
-7.86923e-24
-2.81948e-23
-2.75671e-24
9.0478e-23
6.66086e-24
-1.01397e-23
2.64225e-24
1.03658e-23
-8.77874e-24
1.21241e-22
2.45855e-24
6.70971e-23
1.40515e-24
1.06871e-22
-9.19549e-24
1.42167e-22
-1.83709e-23
4.56307e-23
-1.12824e-23
6.80097e-23
-8.478e-24
9.10943e-23
5.99356e-25
1.66827e-22
-7.74345e-25
5.93027e-23
2.84945e-24
2.7681e-23
3.18725e-24
6.84067e-24
-3.87533e-24
-3.89014e-23
-2.65454e-24
1.25266e-22
-1.50239e-24
-6.45252e-24
-5.4846e-24
6.86438e-23
5.40734e-25
2.3141e-23
-7.52969e-24
1.04989e-24
-1.24708e-23
-6.53596e-23
-1.7771e-23
-6.72096e-23
-3.70424e-24
-7.34915e-23
-8.70014e-24
-3.45641e-23
-1.01051e-23
-2.8167e-23
-4.59661e-24
4.13921e-23
-2.68871e-24
-6.63466e-23
-3.77843e-24
-5.70185e-23
4.25893e-24
1.78283e-23
-1.60721e-25
-8.73444e-23
-4.48111e-24
-2.58472e-23
-8.21463e-24
-5.93827e-23
-5.78528e-24
-3.26916e-24
1.78729e-24
-9.98344e-23
-6.57744e-24
-8.94329e-23
-1.48163e-23
-1.78987e-22
-1.57247e-23
-1.51608e-22
-2.3216e-23
-9.51609e-23
-2.71198e-23
-1.48097e-24
-2.27519e-23
-1.62225e-23
-1.84001e-23
1.92154e-23
-2.63524e-23
6.4087e-23
-1.79721e-23
1.27725e-22
-2.59118e-23
2.97006e-23
5.19511e-24
-8.62811e-24
7.47951e-23
6.90488e-24
-9.69275e-24
-5.98767e-23
-9.56347e-24
2.88167e-23
-6.48318e-24
1.09019e-22
-7.08932e-24
-2.92715e-23
-4.02321e-24
1.11056e-22
6.82591e-24
-4.94087e-24
3.90023e-24
1.56737e-23
-8.26726e-24
1.29085e-22
2.0216e-24
1.46955e-22
3.00847e-24
1.03695e-22
-1.05192e-23
1.11915e-22
-1.73114e-23
8.89333e-23
-1.1173e-23
4.84161e-23
-6.8691e-24
1.78847e-22
-1.30176e-24
2.20782e-22
-1.45586e-24
4.39824e-23
2.81583e-24
1.90114e-23
3.30107e-24
5.51472e-23
-2.27701e-24
-4.83487e-23
-3.25195e-24
7.03667e-23
-1.24694e-24
2.31959e-23
-5.54511e-24
4.22292e-23
-2.58826e-26
5.28646e-23
-8.36235e-24
5.25715e-24
-1.26205e-23
-6.74002e-23
-1.7877e-23
-5.69302e-23
-2.99984e-24
-1.62892e-23
-8.47141e-24
-1.9072e-23
-9.51063e-24
-2.19503e-23
-5.50956e-24
6.10444e-23
-2.94304e-24
-6.78297e-23
-2.82058e-24
-5.34452e-23
3.04338e-24
-1.02562e-23
8.13659e-25
-6.01054e-23
-4.69514e-24
-1.10415e-22
-8.30529e-24
-2.31769e-23
-6.22029e-24
-3.52351e-23
9.69448e-25
-8.6752e-23
-7.06885e-24
-8.23032e-23
-1.48863e-23
-1.64758e-22
-1.39241e-23
-1.43624e-22
-2.22748e-23
-8.87317e-23
-2.57866e-23
-3.23981e-23
-2.24219e-23
-1.50085e-23
-1.81162e-23
2.31876e-23
-2.53167e-23
4.20072e-23
-2.00195e-23
1.25678e-22
-2.58992e-23
9.98596e-23
5.89998e-23
-1.03363e-23
1.39162e-23
5.17251e-24
-8.98838e-24
-7.65044e-23
-1.04436e-23
1.38166e-23
-6.90212e-24
7.08189e-23
-7.33875e-24
-4.70561e-23
-3.96566e-24
9.98002e-23
6.86225e-24
5.03533e-23
4.54423e-24
1.97034e-23
-6.74219e-24
1.53912e-22
-3.45951e-25
1.35499e-22
2.96192e-24
1.55896e-22
-1.02978e-23
1.14632e-22
-1.75269e-23
9.62227e-23
-1.05245e-23
4.199e-23
-5.78566e-24
1.73111e-22
-2.96803e-24
1.802e-22
-1.33061e-24
7.99723e-23
2.57013e-24
6.79904e-23
3.2803e-24
1.3746e-22
-2.01576e-24
-4.71498e-23
-2.42877e-24
7.69517e-23
-1.73743e-24
-3.846e-23
-4.68717e-24
3.09731e-23
-1.04978e-24
5.17841e-23
-9.05163e-24
1.01272e-23
-1.29041e-23
-6.57725e-23
-1.72597e-23
-4.77123e-23
-2.95613e-24
-2.94195e-23
-8.34303e-24
-8.36576e-23
-8.8184e-24
-1.4865e-23
-6.11097e-24
7.85803e-23
-3.4389e-24
-9.89865e-23
-2.27219e-24
-9.5113e-24
1.89227e-24
-1.52551e-23
-1.20601e-25
-6.63184e-23
-2.711e-24
-1.09922e-22
-9.18101e-24
-8.26616e-23
-5.73411e-24
-3.51328e-23
1.12933e-24
-8.95606e-23
-7.14951e-24
-1.02376e-22
-1.42058e-23
-1.5235e-22
-1.25981e-23
-1.43374e-22
-2.20691e-23
-1.16064e-22
-2.40033e-23
-2.37808e-23
-2.15942e-23
-1.42392e-23
-1.75188e-23
5.96785e-23
-2.46481e-23
2.52219e-23
-1.94686e-23
1.49888e-22
-2.66207e-23
1.0067e-22
4.87735e-23
-1.05736e-23
2.03036e-23
6.15702e-24
-9.156e-24
-4.78442e-23
-9.69042e-24
1.05333e-23
-7.35273e-24
-4.38379e-25
-6.36367e-24
-4.81332e-23
-4.71933e-24
8.80876e-23
7.02469e-24
4.43371e-23
5.31181e-24
2.02257e-23
-5.23782e-24
1.15824e-22
3.0844e-25
9.47535e-23
2.63905e-24
1.07904e-22
-1.08037e-23
1.29632e-22
-1.67016e-23
1.01723e-22
-8.88276e-24
4.0012e-23
-5.79226e-24
1.35539e-22
-3.67124e-24
1.76956e-22
-1.96217e-24
4.25431e-23
3.5505e-24
4.92978e-23
2.09363e-24
1.35626e-22
-1.85668e-24
-4.4347e-23
-2.01819e-24
6.55512e-23
-1.6848e-24
-3.09938e-23
-4.04126e-24
1.99142e-23
-1.87699e-24
5.1651e-23
-9.48176e-24
-2.42881e-23
-1.31537e-23
-6.48843e-23
-1.68862e-23
-2.41691e-23
-3.6155e-24
2.23875e-23
-7.3011e-24
-4.51406e-23
-8.23109e-24
-1.02996e-23
-7.1271e-24
5.49122e-23
-3.6808e-24
-1.05833e-22
-1.91484e-24
-4.57936e-24
1.64323e-24
-2.17547e-23
-1.03454e-24
-7.27531e-23
-2.70225e-24
-7.05077e-23
-8.79105e-24
-8.00534e-23
-6.32566e-24
-3.52271e-23
6.29459e-25
-1.12722e-22
-7.03544e-24
-9.20851e-23
-1.60115e-23
-9.5152e-23
-1.18593e-23
-8.15506e-23
-2.06949e-23
-4.47157e-23
-2.3216e-23
-1.27437e-23
-2.03193e-23
-8.98091e-24
-1.73521e-23
6.20017e-23
-2.38082e-23
4.14053e-23
-2.00331e-23
1.4115e-22
-2.64648e-23
9.63573e-23
9.06399e-24
-1.0042e-23
3.87111e-23
7.31479e-24
-9.18143e-24
-6.14758e-23
-9.73657e-24
8.82551e-24
-6.88433e-24
-5.32498e-24
-6.02296e-24
-7.816e-23
-3.60938e-24
6.98054e-23
7.66255e-24
3.90887e-23
5.37624e-24
1.80901e-23
-4.59438e-24
1.07729e-22
7.29687e-26
1.03323e-22
2.72146e-24
1.41821e-22
-1.17463e-23
1.15169e-22
-1.61417e-23
1.10154e-22
-8.57455e-24
8.14547e-23
-4.9192e-24
1.38606e-22
-5.00647e-24
1.16271e-22
-1.71722e-24
7.74568e-23
4.36063e-24
3.38839e-23
1.0669e-24
1.32105e-22
-2.11211e-24
-4.18399e-24
-1.70858e-24
7.43227e-23
-1.71694e-24
-5.19552e-23
-3.40578e-24
1.80708e-23
-2.96825e-24
-1.38335e-24
-9.35433e-24
-6.5725e-23
-1.31494e-23
-9.57932e-23
-1.64555e-23
2.35857e-23
-4.53214e-24
6.45091e-23
-6.54168e-24
-4.57241e-23
-8.1095e-24
-4.1343e-23
-7.70145e-24
3.36817e-23
-3.7249e-24
-1.10363e-22
-1.12947e-24
3.42476e-23
4.17008e-25
-4.0743e-23
-6.89493e-25
-1.15228e-23
-2.58346e-24
-7.14423e-23
-8.41619e-24
-3.86856e-23
-7.35155e-24
-3.52561e-23
9.99646e-25
-8.36567e-23
-5.95108e-24
-4.41237e-23
-1.57989e-23
-9.80538e-23
-1.12082e-23
-7.52888e-24
-1.99629e-23
-3.13948e-23
-2.39736e-23
-2.24491e-24
-1.95651e-23
5.52281e-23
-1.71324e-23
7.83004e-23
-2.33456e-23
5.96603e-23
-2.01373e-23
1.32888e-22
-2.73162e-23
9.38513e-23
-3.06131e-23
-1.11918e-23
4.15938e-23
6.77096e-24
-8.62996e-24
-7.91522e-24
-1.05308e-23
1.05419e-23
-6.51683e-24
2.30733e-23
-5.78407e-24
-6.83505e-23
-3.8069e-24
1.30007e-22
7.94999e-24
6.2067e-23
5.19364e-24
1.4535e-23
-3.8937e-24
9.81711e-23
8.81318e-25
9.53022e-23
3.07864e-24
1.01622e-22
-1.18043e-23
4.23899e-23
-1.58796e-23
1.52228e-22
-8.3027e-24
1.27391e-22
-5.01416e-24
1.41681e-22
-5.39498e-24
1.57111e-22
-2.15038e-24
7.40186e-23
5.64122e-24
6.26238e-23
6.551e-25
1.03279e-22
-2.66711e-24
3.48778e-24
-2.14297e-24
3.98846e-23
-1.12295e-24
-4.33997e-23
-3.85934e-24
-1.81042e-23
-3.49999e-24
8.27983e-24
-9.31668e-24
-6.78248e-23
-1.20776e-23
-8.82006e-23
-1.57929e-23
-3.75471e-24
-5.68418e-24
5.11613e-23
-6.16974e-24
-6.59375e-25
-8.10379e-24
-3.51364e-23
-8.05467e-24
4.17579e-23
-3.60915e-24
-7.55517e-23
-1.43552e-24
3.29395e-23
7.33155e-25
-6.22723e-23
-1.33962e-24
-2.96161e-23
-1.89186e-24
-7.76619e-23
-8.89728e-24
-9.05175e-23
-7.58303e-24
-6.77176e-23
1.29729e-24
-2.78603e-23
-6.54633e-24
-7.56306e-23
-1.46775e-23
-7.58871e-23
-1.03302e-23
-4.00634e-23
-1.973e-23
-1.81684e-23
-2.23674e-23
1.05167e-23
-1.96427e-23
2.68835e-23
-1.67431e-23
8.38008e-23
-2.29864e-23
8.42801e-23
-1.97775e-23
1.25657e-22
-2.76664e-23
2.3786e-23
-3.3323e-23
-1.20482e-23
4.67557e-23
5.08584e-24
-8.40063e-24
9.8674e-23
-1.11887e-23
1.53768e-23
-6.23493e-24
5.71166e-23
-4.39749e-24
-6.1721e-23
-3.69561e-24
1.46453e-22
8.17329e-24
4.99991e-23
6.00639e-24
1.10424e-23
-3.28049e-24
6.35203e-23
7.05908e-25
7.58283e-23
3.09215e-24
9.29558e-23
-1.05874e-23
3.58234e-23
-1.56854e-23
1.58124e-22
-8.97049e-24
1.44244e-22
-4.78958e-24
1.41604e-22
-5.9331e-24
1.27371e-22
-2.51242e-24
3.9665e-23
6.039e-24
1.25244e-22
6.35564e-25
7.06752e-23
-3.38394e-24
-2.40322e-23
-1.77547e-24
3.8622e-23
-9.5266e-25
-2.16066e-23
-3.9223e-24
-1.28331e-23
-4.22404e-24
1.93728e-23
-9.17971e-24
-7.40045e-23
-1.13464e-23
-7.25187e-23
-1.4985e-23
5.23515e-24
-6.3753e-24
3.65298e-23
-6.42452e-24
8.51332e-28
-8.35536e-24
-4.9283e-23
-7.88443e-24
5.56112e-23
-3.81263e-24
-7.77231e-23
-1.51827e-24
3.53471e-23
9.39129e-25
-3.27815e-23
-1.54319e-24
-4.95856e-23
-1.92517e-24
-7.88822e-23
-8.95734e-24
-1.41961e-22
-6.41356e-24
-9.62998e-23
1.21603e-25
-4.79287e-23
-5.65161e-24
-3.38561e-23
-1.44978e-23
-1.05745e-22
-1.01213e-23
1.70464e-23
-1.90804e-23
-4.02778e-23
-2.16213e-23
1.86178e-23
-1.98967e-23
-1.51774e-24
-1.70251e-23
8.61069e-23
-2.20264e-23
3.40168e-23
-2.00939e-23
8.75198e-23
-2.83196e-23
-6.96181e-23
-4.3034e-23
-1.16828e-23
-3.78768e-23
3.87627e-24
-9.31465e-24
1.08941e-22
-1.06223e-23
2.18813e-23
-6.49471e-24
9.59157e-23
-4.65219e-24
-4.44269e-23
-3.36509e-24
1.5607e-22
8.08189e-24
4.35759e-23
6.22501e-24
7.66437e-23
-3.58138e-24
6.44938e-23
5.02373e-25
6.62921e-23
3.57446e-24
1.1187e-22
-1.0542e-23
-1.21861e-23
-1.48463e-23
1.27947e-22
-9.32611e-24
1.1e-22
-4.83891e-24
1.41618e-22
-6.58238e-24
1.29733e-22
-1.93888e-24
2.41572e-24
5.6694e-24
1.55136e-22
5.81203e-26
4.58743e-23
-3.71449e-24
1.39196e-24
-1.74444e-24
3.68089e-23
-7.04197e-25
-1.39228e-23
-3.77989e-24
-6.24019e-24
-4.9711e-24
4.07389e-23
-9.06363e-24
-7.86103e-23
-1.06147e-23
-7.09982e-23
-1.46624e-23
1.41295e-23
-6.39821e-24
6.70099e-23
-6.6924e-24
8.58178e-24
-8.44724e-24
-4.74658e-23
-8.10231e-24
5.8502e-23
-3.57992e-24
-7.70577e-23
-1.27016e-24
3.8279e-23
9.09133e-25
-3.31656e-23
-2.46172e-24
-1.19099e-22
-2.20128e-24
-8.0633e-23
-8.5119e-24
-1.5772e-22
-6.09489e-24
-5.76082e-23
1.60349e-24
-5.98656e-23
-6.30094e-24
-9.59951e-23
-1.27263e-23
-9.9754e-23
-1.04195e-23
1.53209e-23
-1.84293e-23
-8.74979e-23
-2.08191e-23
-6.60326e-23
-1.91816e-23
-2.99811e-23
-1.60751e-23
9.66668e-23
-2.19775e-23
9.34774e-24
-2.13077e-23
8.58341e-23
-2.78602e-23
-2.854e-23
-1.31494e-23
-1.0838e-23
-3.40236e-23
3.9689e-24
-9.84411e-24
9.72245e-23
-1.17387e-23
2.93762e-23
-6.60162e-24
8.67133e-23
-3.68766e-24
-3.90557e-23
-3.54206e-24
1.71981e-22
8.11706e-24
9.6409e-23
6.21849e-24
7.54572e-23
-3.31174e-24
4.98266e-23
1.17409e-24
5.85943e-23
3.02367e-24
9.87428e-23
-9.91267e-24
2.46446e-24
-1.42771e-23
8.95377e-23
-9.39612e-24
7.64576e-23
-4.96781e-24
1.44934e-22
-7.32324e-24
1.35647e-22
-5.04995e-25
3.35935e-23
4.97169e-24
1.49534e-22
7.98911e-26
5.98921e-23
-4.0564e-24
-1.81975e-23
-1.58396e-24
3.27878e-23
-2.83818e-25
4.42846e-24
-3.71441e-24
-2.94535e-23
-5.90262e-24
-1.06199e-23
-8.90845e-24
-2.017e-23
-9.80126e-24
-3.68774e-23
-1.38287e-23
2.15683e-23
-7.26062e-24
5.69439e-23
-6.74962e-24
1.18837e-23
-8.65919e-24
-8.15497e-23
-8.15786e-24
6.51844e-23
-4.02185e-24
-6.57998e-23
-9.13818e-25
4.88063e-23
-5.70128e-25
-3.40392e-23
-2.1654e-24
-8.92037e-23
-2.5974e-24
-7.80507e-23
-7.38709e-24
-7.93565e-23
-6.50012e-24
-1.81656e-23
1.81016e-24
-4.12381e-23
-5.93242e-24
-1.14726e-22
-1.14534e-23
-9.15948e-23
-1.11849e-23
-2.18978e-23
-1.76387e-23
-7.60989e-23
-2.07882e-23
-3.08061e-23
-1.80081e-23
-6.40439e-23
-1.6214e-23
1.00856e-22
-2.15019e-23
1.6123e-23
-2.15528e-23
8.70569e-23
-2.71636e-23
-2.73003e-23
-2.16002e-23
-9.23204e-24
-7.29001e-23
4.42512e-24
-1.03133e-23
7.34531e-23
-1.22968e-23
-7.80766e-24
-6.53954e-24
7.34514e-23
-3.34761e-24
-3.4603e-23
-3.64471e-24
1.41954e-22
8.1069e-24
1.7699e-22
5.92664e-24
7.402e-23
-2.60553e-24