/*--------------------------------*- C++ -*----------------------------------*\
  =========                 |
  \\      /  F ield         | OpenFOAM: The Open Source CFD Toolbox
   \\    /   O peration     | Website:  https://openfoam.org
    \\  /    A nd           | Version:  7
     \\/     M anipulation  |
\*---------------------------------------------------------------------------*/
FoamFile
{
    version     2.0;
    format      ascii;
    class       volScalarField;
    location    "112000";
    object      strainRate;
}
// * * * * * * * * * * * * * * * * * * * * * * * * * * * * * * * * * * * * * //

dimensions      [0 0 -1 0 0 0 0];

internalField   nonuniform List<scalar> 
4782
(
0.0913054
0.0944844
0.0978352
0.10137
0.105102
0.109046
0.113218
0.117634
0.122312
0.127272
0.0292392
0.0298441
0.0304716
0.0311243
0.0317997
0.0324947
0.0332079
0.0339392
0.0346889
0.0354579
0.0362472
0.0370581
0.0378918
0.0387497
0.0396332
0.0405436
0.0414826
0.0424516
0.0434524
0.0444864
0.0455556
0.0466617
0.0478068
0.0489928
0.050222
0.0514968
0.0528197
0.0541933
0.0556205
0.0571044
0.0586482
0.0602554
0.0619297
0.0636751
0.0654959
0.0673965
0.0693821
0.071458
0.0736299
0.075904
0.078287
0.080786
0.0834089
0.086164
0.0890603
0.0921076
0.0953167
0.0986991
0.102267
0.106034
0.110014
0.114224
0.118679
0.123399
0.128403
0.0294802
0.0300927
0.0307304
0.0313924
0.0320747
0.0327753
0.0334936
0.0342299
0.0349846
0.035759
0.036554
0.037371
0.0382113
0.0390761
0.0399669
0.0408851
0.0418323
0.0428098
0.0438194
0.0448628
0.0459417
0.0470579
0.0482135
0.0494105
0.0506513
0.0519381
0.0532735
0.0546603
0.0561012
0.0575994
0.0591581
0.0607809
0.0624714
0.0642337
0.0660721
0.0679913
0.0699964
0.0720927
0.074286
0.0765825
0.078989
0.0815127
0.0841614
0.0869437
0.0898686
0.092946
0.0961866
0.0996018
0.103204
0.107007
0.111026
0.115275
0.119772
0.124536
0.129585
0.0297324
0.030356
0.031004
0.0316733
0.0323612
0.0330666
0.0337895
0.0345304
0.0352903
0.0360702
0.0368713
0.0376946
0.0385417
0.0394139
0.0403124
0.0412389
0.0421946
0.0431811
0.0442001
0.0452531
0.0463422
0.047469
0.0486357
0.0498444
0.0510972
0.0523967
0.0537453
0.0551457
0.0566009
0.058114
0.0596883
0.0613273
0.0630349
0.0648151
0.0666722
0.068611
0.0706366
0.0727542
0.0749699
0.0772898
0.0797207
0.08227
0.0849457
0.0877561
0.0907105
0.093819
0.0970921
0.100541
0.10418
0.108021
0.112079
0.116369
0.12091
0.125719
0.130815
0.0300336
0.030669
0.0313227
0.0319945
0.0326842
0.0333921
0.0341184
0.0348636
0.0356285
0.036414
0.0372211
0.0380512
0.0389054
0.039785
0.0406915
0.0416262
0.0425906
0.0435862
0.0446147
0.0456778
0.0467773
0.047915
0.049093
0.0503135
0.0515788
0.0528912
0.0542533
0.055668
0.057138
0.0586666
0.060257
0.0619128
0.063638
0.0654366
0.0673131
0.0692722
0.071319
0.073459
0.0756979
0.0780422
0.0804988
0.0830749
0.0857788
0.0886189
0.0916046
0.0947457
0.0980531
0.101538
0.105214
0.109095
0.113194
0.117528
0.122113
0.126969
0.132116
0.0300335
0.030669
0.0313228
0.0319947
0.0326845
0.0333924
0.0341186
0.0348637
0.0356286
0.0364141
0.0372213
0.0380515
0.0389057
0.0397853
0.0406917
0.0416263
0.0425906
0.0435863
0.0446147
0.0456778
0.0467773
0.047915
0.0490931
0.0503136
0.0515788
0.0528912
0.0542533
0.0556679
0.0571379
0.0586665
0.060257
0.0619131
0.0636384
0.0654371
0.0673137
0.0692728
0.0713196
0.0734595
0.0756984
0.0780428
0.0804993
0.0830755
0.0857794
0.0886194
0.091605
0.094746
0.0980533
0.101539
0.105215
0.109095
0.113194
0.117528
0.122114
0.12697
0.132115
0.0297324
0.030356
0.0310041
0.0316736
0.0323616
0.033067
0.0337899
0.0345308
0.0352906
0.0360705
0.0368716
0.0376951
0.0385423
0.0394144
0.0403129
0.0412392
0.0421948
0.0431813
0.0442002
0.0452533
0.0463423
0.0474692
0.0486359
0.0498445
0.0510973
0.0523968
0.0537454
0.0551459
0.0566013
0.0581145
0.0596889
0.0613281
0.0630358
0.0648161
0.0666733
0.0686121
0.0706376
0.0727553
0.074971
0.0772909
0.0797219
0.0822711
0.0849466
0.087757
0.0907113
0.0938196
0.0970926
0.100542
0.10418
0.108021
0.112078
0.116369
0.120909
0.125718
0.130815
0.13622
0.141958
0.148051
0.154527
0.0294802
0.0300928
0.0307305
0.0313926
0.0320749
0.0327756
0.033494
0.0342303
0.0349852
0.0357596
0.0365547
0.0373717
0.0382119
0.0390767
0.0399675
0.0408856
0.0418327
0.0428102
0.0438198
0.0448631
0.0459419
0.0470582
0.0482138
0.049411
0.0506518
0.0519387
0.0532743
0.0546612
0.0561021
0.0576003
0.0591591
0.0607818
0.0624724
0.0642348
0.0660734
0.0679927
0.0699977
0.072094
0.0742873
0.0765837
0.0789901
0.0815137
0.0841622
0.0869442
0.0898688
0.0929459
0.0961862
0.0996011
0.103203
0.107006
0.111024
0.115273
0.119771
0.124534
0.129583
0.13494
0.140627
0.146667
0.153087
0.159914
0.0292394
0.0298443
0.0304719
0.0311247
0.0318
0.032495
0.0332084
0.0339397
0.0346895
0.0354586
0.0362479
0.0370589
0.0378926
0.0387504
0.0396338
0.0405443
0.0414833
0.0424523
0.0434529
0.0444869
0.045556
0.0466621
0.0478071
0.0489932
0.0502225
0.0514974
0.0528204
0.0541942
0.0556215
0.0571055
0.0586494
0.0602565
0.0619307
0.063676
0.0654967
0.0673973
0.0693829
0.0714588
0.0736307
0.0759047
0.0782875
0.0807864
0.0834091
0.0861641
0.0890602
0.0921074
0.0953163
0.0986983
0.102266
0.106033
0.110013
0.114222
0.118678
0.123398
0.128402
0.133711
0.139348
0.145338
0.151705
0.158477
0.165683
0.173353
0.181518
0.190209
0.199459
0.209298
0.219754
0.230856
0.242626
0.255092
0.268316
0.282615
0.298335
0.315325
0.333225
0.351797
0.370763
0.389747
0.408285
0.425851
0.441916
0.456031
0.467895
0.477412
0.484695
0.490024
0.493779
0.496363
0.498143
0.499414
0.50039
0.501213
0.501964
0.502684
0.503388
0.0290082
0.0296066
0.030225
0.0308688
0.0315371
0.0322261
0.032934
0.0336603
0.034405
0.0351688
0.0359526
0.0367577
0.0375852
0.0384365
0.039313
0.0402161
0.0411473
0.0421082
0.0431004
0.0441255
0.0451853
0.0462816
0.0474165
0.048592
0.0498103
0.0510738
0.0523849
0.0537462
0.0551606
0.056631
0.0581606
0.059753
0.0614118
0.0631409
0.0649447
0.0668277
0.0687947
0.070851
0.0730024
0.0752549
0.0776152
0.0800906
0.0826886
0.0854177
0.0882868
0.0913056
0.0944846
0.0978352
0.10137
0.105102
0.109046
0.113217
0.117633
0.122311
0.127271
0.132535
0.138124
0.144064
0.150379
0.157098
0.16425
0.171864
0.179972
0.188607
0.197799
0.207581
0.217983
0.229033
0.240755
0.253176
0.266356
0.280568
0.296166
0.313082
0.330973
0.349574
0.368611
0.387714
0.406419
0.424194
0.440501
0.454871
0.466984
0.476723
0.48419
0.489659
0.493512
0.496161
0.497979
0.499273
0.500263
0.501094
0.501851
0.502576
0.503285
0.0287866
0.0293801
0.0299914
0.030626
0.0312859
0.0319685
0.032671
0.0333923
0.0341321
0.0348908
0.0356694
0.0364689
0.0372905
0.0381356
0.0390055
0.0399016
0.0408255
0.0417787
0.0427627
0.0437794
0.0448304
0.0459176
0.0470429
0.0482084
0.0494163
0.0506688
0.0519684
0.0533178
0.0547198
0.0561772
0.0576934
0.0592716
0.0609156
0.0626293
0.064417
0.0662831
0.0682325
0.0702705
0.0724026
0.0746349
0.076974
0.0794271
0.0820017
0.0847061
0.0875493
0.0905408
0.0936912
0.0970119
0.100515
0.104214
0.108123
0.112258
0.116636
0.121274
0.126192
0.131412
0.136955
0.142847
0.149113
0.155781
0.162879
0.170439
0.178493
0.187071
0.196208
0.205935
0.216284
0.227283
0.238957
0.251334
0.264468
0.278596
0.294075
0.310917
0.328797
0.347422
0.366523
0.385737
0.404599
0.422575
0.439115
0.453732
0.466087
0.476045
0.483692
0.489299
0.49325
0.495962
0.49782
0.499136
0.500139
0.500978
0.501741
0.502471
0.503186
0.0285751
0.0291641
0.0297693
0.0303953
0.0310468
0.0317229
0.0324199
0.0331362
0.0338713
0.0346252
0.0353988
0.0361931
0.0370091
0.0378482
0.0387117
0.0396013
0.0405183
0.0414642
0.0424408
0.0434496
0.0444923
0.0455707
0.0466869
0.0478429
0.0490409
0.050283
0.0515719
0.05291
0.0543002
0.0557453
0.0572487
0.0588135
0.0604435
0.0621425
0.0639147
0.0657647
0.0676973
0.0697176
0.0718312
0.0740443
0.0763632
0.078795
0.0813473
0.0840284
0.0868469
0.0898127
0.0929361
0.0962283
0.0997016
0.103369
0.107245
0.111345
0.115686
0.120286
0.125164
0.130341
0.135841
0.141687
0.147905
0.154524
0.161572
0.169079
0.177079
0.185604
0.194687
0.204361
0.214658
0.225607
0.237235
0.249569
0.262658
0.276705
0.292069
0.30884
0.326706
0.34535
0.364509
0.383824
0.402834
0.421
0.437762
0.452619
0.465209
0.47538
0.483204
0.488947
0.492994
0.495769
0.497665
0.499003
0.500019
0.500866
0.501635
0.50237
0.50309
0.0283736
0.0289586
0.0295589
0.0301779
0.0308211
0.0314897
0.0321809
0.0328922
0.0336226
0.0343719
0.0351408
0.03593
0.0367409
0.0375746
0.0384324
0.0393158
0.0402263
0.0411654
0.0421347
0.0431359
0.0441708
0.0452411
0.0463488
0.0474959
0.0486846
0.0499171
0.0511958
0.0525233
0.0539024
0.0553359
0.056827
0.058379
0.0599957
0.0616808
0.0634385
0.0652732
0.0671898
0.0691933
0.0712894
0.073484
0.0757835
0.078195
0.0807261
0.0833849
0.0861801
0.0891214
0.092219
0.0954841
0.0989289
0.102566
0.106411
0.110478
0.114784
0.119347
0.124187
0.129324
0.134782
0.140585
0.146758
0.153329
0.160328
0.167786
0.175735
0.184208
0.193239
0.202861
0.213108
0.224008
0.235591
0.247882
0.260927
0.274896
0.29015
0.30685
0.3247
0.343359
0.362571
0.38198
0.401128
0.419474
0.43645
0.451536
0.464354
0.474732
0.48273
0.488606
0.492747
0.495584
0.497517
0.498878
0.499906
0.500761
0.501535
0.502276
0.503
0.0281825
0.0287637
0.02936
0.0299733
0.0306084
0.0312694
0.0319547
0.032661
0.0333867
0.0341317
0.034896
0.0356807
0.0364866
0.037315
0.0381674
0.039045
0.0399495
0.0408823
0.0418449
0.0428391
0.0438666
0.0449292
0.0460289
0.0471676
0.0483474
0.0495707
0.0508397
0.0521571
0.0535257
0.0549482
0.0564279
0.057968
0.0595722
0.0612443
0.0629884
0.0648088
0.0667102
0.0686979
0.0707774
0.0729546
0.075236
0.0776285
0.0801394
0.082777
0.08555
0.0884678
0.0915409
0.0947802
0.0981978
0.101807
0.105621
0.109657
0.11393
0.118458
0.123262
0.128361
0.133779
0.13954
0.14567
0.152196
0.159149
0.16656
0.17446
0.182883
0.191864
0.201437
0.211635
0.222489
0.234027
0.246278
0.259279
0.273172
0.288321
0.304953
0.322785
0.341457
0.360714
0.38021
0.399488
0.418004
0.435182
0.450488
0.463525
0.474104
0.48227
0.488276
0.492509
0.495406
0.497377
0.498758
0.499799
0.500661
0.501441
0.502186
0.502915
0.028002
0.0285797
0.0291722
0.0297805
0.0304086
0.0310621
0.0317412
0.0324425
0.0331638
0.0339045
0.0346647
0.035445
0.0362464
0.0370701
0.0379174
0.0387897
0.0396885
0.0406153
0.0415716
0.0425592
0.0435799
0.0446353
0.0457275
0.0468582
0.0480298
0.0492444
0.0505045
0.0518126
0.0531713
0.0545836
0.0560525
0.0575813
0.0591737
0.0608334
0.0625644
0.0643712
0.0662584
0.0682312
0.0702951
0.072456
0.0747201
0.0770945
0.0795864
0.082204
0.084956
0.0878517
0.0909014
0.0941161
0.097508
0.10109
0.104876
0.108882
0.113123
0.117619
0.122387
0.127451
0.132831
0.138553
0.144642
0.151127
0.158036
0.165401
0.173255
0.181631
0.190565
0.20009
0.210242
0.221051
0.232547
0.244757
0.257717
0.271538
0.286587
0.303153
0.320966
0.339646
0.358945
0.37852
0.397918
0.416594
0.433963
0.449479
0.462726
0.473498
0.481826
0.487958
0.492281
0.495237
0.497244
0.498646
0.499698
0.500568
0.501353
0.502102
0.502836
0.027832
0.0284063
0.0289954
0.0296
0.0302228
0.0308688
0.0315409
0.032237
0.032954
0.0336908
0.0344471
0.0352234
0.0360206
0.0368398
0.0376824
0.0385497
0.0394432
0.0403644
0.0413149
0.0422963
0.0433105
0.0443592
0.0454442
0.0465676
0.0477314
0.048938
0.0501896
0.0514887
0.0528382
0.0542408
0.0556996
0.0572179
0.0587992
0.0604474
0.0621664
0.0639605
0.0658345
0.0677934
0.0698427
0.0719881
0.0742361
0.0765934
0.0790675
0.0816663
0.0843985
0.0872733
0.0903011
0.0934929
0.0968606
0.100417
0.104177
0.108154
0.112366
0.116831
0.121568
0.126598
0.131943
0.137627
0.143678
0.150122
0.15699
0.164312
0.172123
0.180455
0.189344
0.198825
0.208932
0.219698
0.231154
0.243325
0.256245
0.269997
0.284952
0.301454
0.319247
0.337933
0.357268
0.376915
0.396424
0.415249
0.432797
0.448511
0.461958
0.472914
0.481398
0.487651
0.492061
0.495074
0.497115
0.498537
0.4996
0.500477
0.501267
0.502021
0.502758
0.027673
0.0282442
0.0288301
0.0294313
0.0300492
0.0306886
0.0313542
0.0320452
0.0327579
0.0334908
0.0342434
0.0350159
0.0358092
0.0366243
0.0374624
0.0383251
0.0392137
0.0401297
0.0410749
0.0420507
0.0430588
0.0441011
0.0451794
0.0462957
0.0474523
0.0486513
0.049895
0.051186
0.0525269
0.0539206
0.05537
0.0568785
0.0584495
0.0600868
0.0617944
0.0635766
0.0654381
0.0673839
0.0694195
0.0715506
0.0737835
0.076125
0.0785823
0.0811636
0.0838774
0.086733
0.0897405
0.0929109
0.096256
0.0997887
0.103523
0.107475
0.111659
0.116095
0.120802
0.125799
0.131111
0.136761
0.142775
0.149182
0.156011
0.163294
0.171063
0.179353
0.1882
0.197638
0.207704
0.21843
0.229847
0.241982
0.254867
0.268574
0.283457
0.29988
0.317634
0.336321
0.355686
0.375397
0.395008
0.41397
0.431686
0.447585
0.46122
0.472351
0.480984
0.487353
0.491845
0.494912
0.496986
0.498428
0.499502
0.500386
0.501181
0.501938
0.502679
0.0275249
0.0280932
0.0286761
0.0292742
0.0298883
0.0305221
0.0311815
0.031867
0.0325755
0.0333047
0.0340537
0.0348228
0.0356124
0.0364237
0.0372579
0.0381162
0.0390003
0.0399115
0.0408515
0.0418219
0.0428245
0.043861
0.0449333
0.0460433
0.0471932
0.0483852
0.0496216
0.0509049
0.0522377
0.053623
0.0550636
0.0565628
0.0581241
0.0597512
0.0614482
0.0632194
0.0650693
0.067003
0.0690258
0.0711435
0.0733623
0.075689
0.0781309
0.0806959
0.0833926
0.0862303
0.089219
0.0923697
0.0956942
0.0992052
0.102917
0.106844
0.111003
0.115412
0.12009
0.125058
0.130339
0.135956
0.141937
0.148308
0.155101
0.162345
0.170076
0.178327
0.187133
0.196532
0.206558
0.217246
0.228627
0.240729
0.253583
0.267259
0.282083
0.298424
0.316128
0.334813
0.354205
0.373973
0.393676
0.412764
0.430636
0.446708
0.460519
0.471814
0.480588
0.487066
0.491637
0.494756
0.496862
0.498321
0.499406
0.500296
0.501095
0.501857
0.502602
0.0273879
0.0279536
0.0285337
0.0291289
0.0297399
0.0303695
0.0310228
0.0317026
0.0324067
0.0331323
0.033878
0.0346438
0.0354302
0.0362381
0.0370686
0.037923
0.0388029
0.0397097
0.0406451
0.0416107
0.0426081
0.0436393
0.0447059
0.0458101
0.0469538
0.0481393
0.0493688
0.050645
0.0519703
0.0533478
0.0547802
0.056271
0.0578235
0.0594414
0.0611288
0.0628898
0.0647291
0.0666517
0.0686628
0.0707683
0.0729743
0.0752875
0.0777152
0.0802653
0.0829462
0.0857672
0.0887384
0.0918705
0.0951753
0.0986656
0.102355
0.106259
0.110395
0.114778
0.11943
0.124371
0.129623
0.135211
0.14116
0.1475
0.154258
0.161469
0.169164
0.177378
0.186148
0.19551
0.205499
0.216151
0.227498
0.239568
0.252394
0.26604
0.28081
0.297072
0.314731
0.333412
0.352826
0.372646
0.392432
0.411636
0.429651
0.445884
0.45986
0.471309
0.480214
0.486796
0.491441
0.494609
0.496745
0.498222
0.499317
0.500212
0.501016
0.501781
0.502529
0.027262
0.0278253
0.0284029
0.0289955
0.0296038
0.0302295
0.0308774
0.0315521
0.0322522
0.0329744
0.033717
0.0344798
0.035263
0.0360676
0.0368947
0.0377455
0.0386216
0.0395245
0.0404557
0.0414168
0.0424096
0.0434358
0.0444973
0.0455959
0.0467339
0.0479134
0.0491368
0.0504065
0.0517251
0.0530954
0.0545205
0.0560035
0.057548
0.0591575
0.060836
0.0625878
0.0644174
0.0663297
0.0683301
0.0704242
0.0726183
0.074919
0.0773336
0.07987
0.0825365
0.0853424
0.0882975
0.0914128
0.0946999
0.0981715
0.101842
0.105725
0.109839
0.1142
0.118827
0.123743
0.128968
0.134528
0.140449
0.146758
0.153485
0.160663
0.168325
0.176506
0.185242
0.194569
0.204524
0.215143
0.226458
0.238499
0.251297
0.264915
0.279634
0.295825
0.31344
0.332118
0.351551
0.371417
0.391279
0.410589
0.428736
0.445117
0.459246
0.470839
0.479867
0.486546
0.491261
0.494475
0.496639
0.498132
0.499235
0.500137
0.500944
0.501713
0.502464
0.0271475
0.0277085
0.0282839
0.0288741
0.0294799
0.0301022
0.0307453
0.0314153
0.0321117
0.0328307
0.0335705
0.0343305
0.0351109
0.0359126
0.0367367
0.0375843
0.038457
0.0393561
0.0402834
0.0412403
0.0422288
0.0432504
0.0443071
0.0454009
0.0465338
0.0477079
0.0489256
0.0501894
0.051502
0.052866
0.0542844
0.0557604
0.0572975
0.0588993
0.0605697
0.062313
0.0641337
0.0660368
0.0680273
0.0701112
0.0722944
0.0745837
0.0769863
0.0795101
0.0821634
0.0849554
0.0878961
0.090996
0.0942671
0.0977219
0.101374
0.105239
0.109333
0.113673
0.118279
0.123172
0.128374
0.133908
0.139803
0.146084
0.152784
0.159932
0.167564
0.175713
0.184418
0.193713
0.203637
0.214226
0.225511
0.237525
0.250298
0.263891
0.278563
0.294689
0.312264
0.330936
0.350385
0.370292
0.390221
0.409627
0.427893
0.444409
0.458678
0.470402
0.479544
0.486312
0.491091
0.494348
0.496538
0.498046
0.499158
0.500064
0.500876
0.501647
0.502401
0.0270441
0.0276032
0.0281765
0.0287646
0.0293682
0.029988
0.0306278
0.0312932
0.0319852
0.032701
0.0334381
0.0341957
0.0349737
0.0357728
0.0365941
0.0374389
0.0383085
0.0392044
0.0401282
0.0410815
0.0420661
0.0430837
0.0441362
0.0452255
0.0463537
0.047523
0.0487357
0.0499943
0.0513013
0.0526596
0.054072
0.0555419
0.0570725
0.0586674
0.0603306
0.0620662
0.0638788
0.0657733
0.067755
0.0698295
0.072003
0.0742821
0.0766739
0.0791863
0.0818277
0.0846072
0.0875345
0.0906206
0.0938769
0.0973164
0.100953
0.1048
0.108876
0.113198
0.117784
0.122656
0.127836
0.133349
0.13922
0.145477
0.15215
0.159272
0.166877
0.174999
0.183675
0.192942
0.202838
0.213398
0.224658
0.236646
0.249396
0.262965
0.277595
0.293661
0.311199
0.329866
0.349329
0.369271
0.389261
0.408753
0.427126
0.443765
0.45816
0.470005
0.479251
0.486101
0.490939
0.494235
0.496449
0.497971
0.499091
0.500002
0.500816
0.50159
0.502347
0.0269521
0.0275094
0.0280809
0.0286672
0.0292688
0.0298866
0.0305235
0.0311848
0.031873
0.0325859
0.0333205
0.0340758
0.0348516
0.0356485
0.0364675
0.0373097
0.0381765
0.0390695
0.0399902
0.0409403
0.0419215
0.0429355
0.0439842
0.0450696
0.0461937
0.0473587
0.0485669
0.0498208
0.0511229
0.052476
0.0538831
0.0553473
0.056872
0.0584607
0.0601174
0.0618462
0.0636517
0.0655388
0.0675126
0.069579
0.0717439
0.0740139
0.0763962
0.0788986
0.0815294
0.0842977
0.0872134
0.0902872
0.0935308
0.0969568
0.100579
0.104412
0.108472
0.112777
0.117346
0.122199
0.12736
0.132852
0.138701
0.144936
0.151587
0.158685
0.166265
0.174362
0.183012
0.192254
0.202124
0.21266
0.223895
0.235861
0.24859
0.262137
0.276729
0.292742
0.310247
0.328909
0.348384
0.368357
0.388401
0.407968
0.426437
0.443186
0.457696
0.469649
0.478988
0.485912
0.490804
0.494135
0.496371
0.497905
0.499032
0.499947
0.500764
0.501541
0.5023
0.0268716
0.0274273
0.0279973
0.0285819
0.0291818
0.0297978
0.0304321
0.0310899
0.0317748
0.0324851
0.0332176
0.0339708
0.0347446
0.0355395
0.0363563
0.0371963
0.0380608
0.0389512
0.0398693
0.0408166
0.0417949
0.0428059
0.0438514
0.0449335
0.0460542
0.0472155
0.0484199
0.0496697
0.0509674
0.0523159
0.053718
0.055177
0.0566963
0.0582795
0.0599304
0.0616533
0.0634527
0.0653333
0.0673005
0.0693598
0.0715172
0.0737794
0.0761535
0.0786471
0.0812686
0.0840272
0.0869326
0.0899956
0.0932277
0.0966415
0.100251
0.10407
0.108117
0.112407
0.11696
0.121798
0.126941
0.132416
0.138247
0.144463
0.151093
0.158171
0.16573
0.173804
0.182432
0.191652
0.2015
0.212014
0.223228
0.235174
0.247885
0.261413
0.275971
0.291938
0.309413
0.32807
0.347554
0.367554
0.387643
0.407277
0.425829
0.442674
0.457284
0.469332
0.478755
0.485744
0.490683
0.494046
0.496301
0.497846
0.498979
0.499898
0.500718
0.501497
0.502258
0.0268025
0.027357
0.0279255
0.0285087
0.0291072
0.0297216
0.0303538
0.0310086
0.0316906
0.0323986
0.0331291
0.0338806
0.0346526
0.0354457
0.0362608
0.0370989
0.0379614
0.0388499
0.0397658
0.0407108
0.0416867
0.0426952
0.043738
0.0448172
0.0459348
0.0470928
0.0482936
0.0495398
0.0508338
0.0521784
0.0535765
0.0550314
0.0565463
0.0581248
0.0597709
0.0614888
0.0632828
0.0651578
0.0671189
0.0691719
0.0713227
0.073578
0.0759449
0.0784311
0.0810449
0.0837953
0.0866921
0.0897458
0.0929682
0.0963718
0.0999704
0.103779
0.107813
0.112091
0.116631
0.121455
0.126584
0.132043
0.137858
0.144057
0.15067
0.15773
0.16527
0.173326
0.181935
0.191135
0.200963
0.211458
0.222654
0.234584
0.247278
0.26079
0.27532
0.291246
0.308696
0.327347
0.346839
0.366861
0.38699
0.40668
0.425304
0.442232
0.456928
0.469059
0.478553
0.485599
0.490579
0.493969
0.496241
0.497796
0.498934
0.499856
0.500678
0.501459
0.502222
0.0267449
0.0272982
0.0278656
0.0284477
0.0290449
0.0296581
0.0302884
0.0309407
0.0316203
0.0323264
0.0330553
0.0338053
0.034576
0.0353677
0.0361813
0.0370179
0.0378788
0.0387655
0.0396795
0.0406226
0.0415964
0.0426027
0.0436432
0.04472
0.0458349
0.0469903
0.0481884
0.0494316
0.0507225
0.0520639
0.0534587
0.05491
0.0564213
0.0579961
0.0596383
0.0613521
0.0631417
0.0650121
0.0669684
0.0690163
0.0711617
0.0734113
0.0757722
0.078252
0.080859
0.0836022
0.0864915
0.0895375
0.0927517
0.0961467
0.0997362
0.103535
0.107559
0.111826
0.116356
0.121168
0.126285
0.131731
0.137533
0.143718
0.150317
0.157362
0.164887
0.172927
0.18152
0.190704
0.200517
0.210995
0.222176
0.234091
0.246771
0.26027
0.274775
0.290667
0.308096
0.326743
0.346241
0.366281
0.386442
0.406179
0.424864
0.44186
0.456629
0.468829
0.478383
0.485477
0.490491
0.493904
0.49619
0.497753
0.498896
0.499821
0.500645
0.501427
0.502192
0.0266988
0.0272513
0.0278178
0.0283989
0.0289952
0.0296073
0.0302362
0.0308865
0.0315641
0.0322686
0.0329962
0.0337451
0.0345147
0.0353053
0.0361177
0.036953
0.0378126
0.0386979
0.0396106
0.0405521
0.0415241
0.0425285
0.0435671
0.0446419
0.0457549
0.0469082
0.0481041
0.0493451
0.0506336
0.0519726
0.0533648
0.0548134
0.0563218
0.0578934
0.0595322
0.0612424
0.0630284
0.064895
0.0668473
0.0688911
0.0710324
0.0732776
0.0756338
0.0781086
0.0807104
0.0834481
0.0863315
0.0893713
0.092579
0.0959672
0.0995495
0.103341
0.107357
0.111616
0.116136
0.120939
0.126046
0.131482
0.137273
0.143447
0.150034
0.157067
0.16458
0.172607
0.181188
0.190359
0.200158
0.210625
0.221793
0.233696
0.246366
0.259853
0.274339
0.290204
0.307616
0.32626
0.345762
0.365817
0.386003
0.405777
0.424509
0.441561
0.456387
0.468643
0.478245
0.485377
0.49042
0.493852
0.496149
0.497719
0.498865
0.499792
0.500617
0.501401
0.502167
0.0266642
0.027216
0.0277819
0.0283623
0.0289578
0.0295692
0.0301973
0.0308464
0.0315223
0.0322254
0.0329519
0.0336999
0.0344687
0.0352584
0.03607
0.0369044
0.037763
0.0386473
0.0395587
0.040499
0.0414697
0.0424728
0.0435101
0.0445836
0.0456951
0.0468469
0.0480412
0.0492804
0.0505672
0.0519041
0.0532943
0.0547408
0.0562469
0.0578162
0.0594526
0.0611603
0.0629436
0.0648073
0.0667567
0.0687973
0.0709352
0.0731769
0.0755295
0.0780006
0.0805984
0.083332
0.0862112
0.0892465
0.0924495
0.0958326
0.0994096
0.103195
0.107206
0.111458
0.115972
0.120767
0.125867
0.131296
0.137079
0.143244
0.149823
0.156847
0.16435
0.172368
0.180938
0.190099
0.199889
0.210345
0.221504
0.233399
0.24606
0.259539
0.27401
0.289855
0.307254
0.325895
0.3454
0.365466
0.385672
0.405474
0.424242
0.441336
0.456206
0.468504
0.478143
0.485304
0.490368
0.493814
0.49612
0.497694
0.498843
0.499772
0.500598
0.501383
0.50215
0.0266411
0.0271925
0.0277579
0.0283378
0.0289329
0.0295438
0.0301713
0.0308197
0.0314948
0.0321969
0.0329227
0.03367
0.0344382
0.0352274
0.0360383
0.0368721
0.03773
0.0386136
0.0395243
0.0404637
0.0414337
0.0424359
0.0434722
0.0445446
0.045655
0.0468057
0.0479989
0.049237
0.0505226
0.0518584
0.0532473
0.0546924
0.056197
0.0577648
0.0593996
0.0611056
0.0628871
0.064749
0.0666965
0.0687352
0.070871
0.0731105
0.0754606
0.0779291
0.0805241
0.0832548
0.086131
0.0891632
0.092363
0.0957428
0.0993161
0.103098
0.107104
0.111352
0.115862
0.120653
0.125748
0.131171
0.136949
0.143109
0.149682
0.156699
0.164196
0.172208
0.180772
0.189926
0.199709
0.210159
0.221312
0.233201
0.245857
0.25933
0.273792
0.289624
0.307013
0.325652
0.34516
0.365233
0.385451
0.405272
0.424064
0.441185
0.456084
0.46841
0.478073
0.485254
0.490332
0.493787
0.496099
0.497676
0.498828
0.499757
0.500584
0.50137
0.502137
0.0266295
0.0271807
0.0277459
0.0283255
0.0289204
0.029531
0.0301584
0.0308064
0.031481
0.0321828
0.0329082
0.0336552
0.0344231
0.035212
0.0360227
0.0368561
0.0377137
0.0385968
0.0395071
0.0404461
0.0414156
0.0424173
0.0434531
0.044525
0.045635
0.0467852
0.0479779
0.0492155
0.0505004
0.0518356
0.0532238
0.0546683
0.0561722
0.0577393
0.0593734
0.0610786
0.0628593
0.0647203
0.0666668
0.0687043
0.070839
0.0730773
0.0754263
0.0778936
0.0804874
0.0832167
0.0860914
0.0891219
0.0923199
0.0956977
0.0992692
0.103049
0.107053
0.111299
0.115806
0.120595
0.125688
0.131108
0.136883
0.143041
0.14961
0.156625
0.164118
0.172127
0.180687
0.189838
0.199619
0.210066
0.221215
0.233101
0.245755
0.259225
0.273681
0.289506
0.306892
0.32553
0.345039
0.365115
0.38534
0.40517
0.423974
0.44111
0.456024
0.468364
0.47804
0.48523
0.490315
0.493775
0.496089
0.497669
0.498821
0.499751
0.500579
0.501364
0.502132
0.0266295
0.0271807
0.0277459
0.0283256
0.0289205
0.0295311
0.0301584
0.0308065
0.0314812
0.0321829
0.0329084
0.0336554
0.0344233
0.0352122
0.0360228
0.0368562
0.0377138
0.0385968
0.0395071
0.040446
0.0414155
0.0424172
0.0434532
0.0445252
0.0456352
0.0467855
0.0479782
0.0492159
0.0505009
0.0518361
0.0532244
0.0546688
0.0561727
0.0577397
0.0593736
0.0610786
0.0628591
0.06472
0.0666664
0.0687038
0.0708385
0.0730768
0.0754259
0.0778933
0.0804872
0.0832167
0.0860915
0.0891221
0.0923203
0.0956983
0.0992698
0.10305
0.107054
0.1113
0.115807
0.120595
0.125687
0.131108
0.136883
0.14304
0.14961
0.156625
0.164119
0.172127
0.180688
0.189839
0.19962
0.210066
0.221216
0.233102
0.245756
0.259226
0.273682
0.289507
0.306893
0.325531
0.345039
0.365116
0.38534
0.40517
0.423974
0.441109
0.456023
0.468362
0.478038
0.485228
0.490313
0.493773
0.496088
0.497667
0.498819
0.499749
0.500577
0.501363
0.50213
0.0266411
0.0271925
0.0277578
0.0283378
0.0289329
0.0295438
0.0301714
0.0308199
0.0314951
0.0321973
0.0329232
0.0336706
0.0344388
0.035228
0.0360389
0.0368727
0.0377305
0.0386139
0.0395244
0.0404638
0.0414337
0.042436
0.0434724
0.0445449
0.0456555
0.0468063
0.0479996
0.0492378
0.0505235
0.0518593
0.0532483
0.0546934
0.056198
0.0577657
0.0594004
0.0611061
0.0628875
0.0647492
0.0666966
0.068735
0.0708706
0.07311
0.0754602
0.0779287
0.080524
0.0832549
0.0861311
0.0891634
0.0923631
0.0957429
0.0993162
0.103098
0.107104
0.111353
0.115862
0.120653
0.125748
0.131171
0.136948
0.143109
0.149682
0.156699
0.164196
0.172208
0.180772
0.189926
0.19971
0.21016
0.221313
0.233201
0.245857
0.25933
0.273791
0.289623
0.307013
0.325651
0.345159
0.365232
0.38545
0.40527
0.424063
0.441184
0.456083
0.468408
0.478072
0.485253
0.490331
0.493786
0.496097
0.497675
0.498826
0.499756
0.500583
0.501368
0.502136
0.0266641
0.0272159
0.0277818
0.0283622
0.0289578
0.0295692
0.0301974
0.0308466
0.0315229
0.0322262
0.0329528
0.0337009
0.0344696
0.0352594
0.0360709
0.0369052
0.0377637
0.038648
0.0395594
0.0404998
0.0414706
0.0424737
0.0435108
0.0445841
0.0456955
0.0468473
0.0480417
0.049281
0.0505679
0.051905
0.0532954
0.054742
0.0562482
0.0578175
0.0594539
0.0611613
0.0629444
0.064808
0.0667572
0.0687977
0.0709355
0.0731771
0.0755296
0.0780006
0.0805984
0.083332
0.0862111
0.0892464
0.0924493
0.0958323
0.0994092
0.103195
0.107205
0.111458
0.115971
0.120767
0.125867
0.131295
0.137078
0.143244
0.149822
0.156846
0.164348
0.172366
0.180937
0.190098
0.199888
0.210344
0.221503
0.233398
0.24606
0.259539
0.27401
0.289855
0.307254
0.325895
0.3454
0.365466
0.385671
0.405473
0.424241
0.441335
0.456205
0.468502
0.478142
0.485303
0.490367
0.493812
0.496118
0.497693
0.498842
0.49977
0.500597
0.501382
0.502148
0.0266987
0.0272512
0.0278178
0.0283989
0.0289952
0.0296074
0.0302363
0.0308867
0.0315645
0.0322692
0.0329969
0.0337458
0.0345154
0.0353061
0.0361186
0.036954
0.0378137
0.038699
0.0396116
0.0405531
0.0415252
0.0425296
0.0435683
0.044643
0.045756
0.0469092
0.0481051
0.0493461
0.0506347
0.0519737
0.053366
0.0548147
0.056323
0.0578947
0.0595334
0.0612435
0.0630293
0.0648958
0.066848
0.0688917
0.0710328
0.0732778
0.0756339
0.0781086
0.0807104
0.0834482
0.0863317
0.0893716
0.0925793
0.0959675
0.0995496
0.103341
0.107357
0.111615
0.116135
0.120938
0.126045
0.131481
0.137272
0.143446
0.150033
0.157066
0.164578
0.172606
0.181186
0.190357
0.200156
0.210623
0.221791
0.233694
0.246364
0.259851
0.274337
0.290202
0.307614
0.326258
0.34576
0.365815
0.386002
0.405776
0.424508
0.44156
0.456387
0.468643
0.478245
0.485378
0.49042
0.493852
0.496149
0.497719
0.498865
0.499792
0.500617
0.501401
0.502167
0.0267448
0.0272982
0.0278656
0.0284477
0.029045
0.0296582
0.0302885
0.0309408
0.0316204
0.0323265
0.0330555
0.0338056
0.0345765
0.0353684
0.0361821
0.0370188
0.0378799
0.0387667
0.0396808
0.0406238
0.0415976
0.0426037
0.0436442
0.0447209
0.0458359
0.0469914
0.0481896
0.0494329
0.050724
0.0520656
0.0534606
0.0549121
0.0564234
0.0579982
0.0596402
0.0613536
0.063143
0.0650133
0.0669694
0.0690172
0.0711625
0.0734119
0.0757727
0.0782523
0.0808592
0.0836024
0.0864916
0.0895374
0.0927514
0.0961462
0.0997355
0.103534
0.107558
0.111825
0.116354
0.121166
0.126283
0.131729
0.137531
0.143716
0.150315
0.15736
0.164885
0.172925
0.181518
0.190702
0.200515
0.210994
0.222175
0.23409
0.246771
0.260269
0.274774
0.290666
0.308095
0.326743
0.34624
0.366281
0.386442
0.406178
0.424863
0.441859
0.456628
0.468828
0.478382
0.485475
0.49049
0.493903
0.496189
0.497752
0.498895
0.49982
0.500644
0.501426
0.502191
0.0268023
0.0273568
0.0279254
0.0285086
0.0291071
0.0297216
0.0303536
0.0310083
0.0316901
0.0323981
0.0331288
0.0338805
0.0346528
0.0354461
0.0362614
0.0370996
0.0379623
0.0388509
0.039767
0.0407121
0.041688
0.0426965
0.0437393
0.0448185
0.045936
0.0470941
0.0482951
0.0495413
0.0508354
0.0521801
0.0535784
0.0550334
0.0565484
0.058127
0.0597732
0.0614911
0.0632851
0.0651601
0.0671213
0.0691742
0.0713249
0.0735799
0.0759465
0.0784322
0.0810455
0.0837954
0.0866917
0.0897451
0.0929672
0.0963706
0.099969
0.103777
0.107811
0.112089
0.116629
0.121452
0.126581
0.13204
0.137855
0.144054
0.150667
0.157727
0.165267
0.173323
0.181932
0.191132
0.200961
0.211456
0.222652
0.234581
0.247276
0.260788
0.275317
0.291244
0.308694
0.327346
0.346838
0.36686
0.386989
0.406679
0.425304
0.442232
0.456928
0.469059
0.478553
0.485599
0.490579
0.493969
0.496241
0.497796
0.498935
0.499856
0.500679
0.501459
0.502222
0.0268714
0.0274271
0.0279971
0.0285817
0.0291816
0.0297977
0.0304319
0.0310894
0.0317741
0.0324842
0.0332167
0.0339701
0.0347441
0.0355392
0.0363563
0.0371966
0.0380614
0.0389522
0.0398705
0.040818
0.0417965
0.0428076
0.0438533
0.0449354
0.046056
0.0472173
0.0484215
0.0496712
0.0509689
0.0523174
0.0537197
0.0551789
0.0566983