/*--------------------------------*- C++ -*----------------------------------*\
  =========                 |
  \\      /  F ield         | OpenFOAM: The Open Source CFD Toolbox
   \\    /   O peration     | Website:  https://openfoam.org
    \\  /    A nd           | Version:  7
     \\/     M anipulation  |
\*---------------------------------------------------------------------------*/
FoamFile
{
    version     2.0;
    format      ascii;
    class       volScalarField;
    location    "132000";
    object      p;
}
// * * * * * * * * * * * * * * * * * * * * * * * * * * * * * * * * * * * * * //

dimensions      [0 2 -2 0 0 0 0];

internalField   nonuniform List<scalar> 
4825
(
-1.66957e-18
-1.66254e-18
-1.66686e-18
-1.65924e-18
-1.66637e-18
-1.65269e-18
-1.65938e-18
-1.66743e-18
-1.65351e-18
-1.66791e-18
-1.64733e-18
-1.65614e-18
-1.66481e-18
-1.65727e-18
-1.66012e-18
-1.64709e-18
-1.64914e-18
-1.67195e-18
-1.67165e-18
-1.66246e-18
-1.65313e-18
-1.65251e-18
-1.68224e-18
-1.66469e-18
-1.67437e-18
-1.65792e-18
-1.65626e-18
-1.67309e-18
-1.65429e-18
-1.66224e-18
-1.65714e-18
-1.65397e-18
-1.66597e-18
-1.6509e-18
-1.66082e-18
-1.65009e-18
-1.65407e-18
-1.66572e-18
-1.64059e-18
-1.66276e-18
-1.64294e-18
-1.65039e-18
-1.67528e-18
-1.63587e-18
-1.66268e-18
-1.64668e-18
-1.64614e-18
-1.67991e-18
-1.64381e-18
-1.65418e-18
-1.64519e-18
-1.64919e-18
-1.67348e-18
-1.65304e-18
-1.66222e-18
-1.64895e-18
-1.64906e-18
-1.66707e-18
-1.65983e-18
-1.66511e-18
-1.64914e-18
-1.64574e-18
-1.67226e-18
-1.65454e-18
-1.66298e-18
-1.64632e-18
-1.66661e-18
-1.65139e-18
-1.6588e-18
-1.6465e-18
-1.66952e-18
-1.64299e-18
-1.65811e-18
-1.64038e-18
-1.6615e-18
-1.64788e-18
-1.65322e-18
-1.6667e-18
-1.65029e-18
-1.65824e-18
-1.65765e-18
-1.64978e-18
-1.65996e-18
-1.64958e-18
-1.66273e-18
-1.65139e-18
-1.65975e-18
-1.65472e-18
-1.64748e-18
-1.64884e-18
-1.65792e-18
-1.67352e-18
-1.66843e-18
-1.67562e-18
-1.6645e-18
-1.71139e-18
-1.69297e-18
-1.70154e-18
-1.70131e-18
-1.69795e-18
-1.70002e-18
-1.71038e-18
-1.70723e-18
-1.71229e-18
-1.68954e-18
-1.68997e-18
-1.66983e-18
-1.7025e-18
-1.68744e-18
-1.69592e-18
-1.67434e-18
-1.66362e-18
-1.6576e-18
-1.67232e-18
-1.67829e-18
-1.70161e-18
-1.6905e-18
-1.70644e-18
-1.70158e-18
-1.69546e-18
-1.70058e-18
-1.70625e-18
-1.70645e-18
-1.70918e-18
-1.68648e-18
-1.695e-18
-1.68156e-18
-1.70206e-18
-1.692e-18
-1.70527e-18
-1.67297e-18
-1.6674e-18
-1.66684e-18
-1.6761e-18
-1.67908e-18
-1.70263e-18
-1.6969e-18
-1.71188e-18
-1.70189e-18
-1.70239e-18
-1.69976e-18
-1.70236e-18
-1.69586e-18
-1.69849e-18
-1.68946e-18
-1.6936e-18
-1.68928e-18
-1.69979e-18
-1.69014e-18
-1.70749e-18
-1.67878e-18
-1.67504e-18
-1.66766e-18
-1.67327e-18
-1.68207e-18
-1.69222e-18
-1.69445e-18
-1.70841e-18
-1.70734e-18
-1.71208e-18
-1.69748e-18
-1.69605e-18
-1.69891e-18
-1.69792e-18
-1.6906e-18
-1.698e-18
-1.68677e-18
-1.70094e-18
-1.68888e-18
-1.70275e-18
-1.67929e-18
-1.67387e-18
-1.65889e-18
-1.67037e-18
-1.67832e-18
-1.69155e-18
-1.69439e-18
-1.70538e-18
-1.70036e-18
-1.71272e-18
-1.69626e-18
-1.69919e-18
-1.69794e-18
-1.70297e-18
-1.69268e-18
-1.6947e-18
-1.68766e-18
-1.70147e-18
-1.68552e-18
-1.70055e-18
-1.67759e-18
-1.66829e-18
-1.66144e-18
-1.65841e-18
-1.66785e-18
-1.69111e-18
-1.69418e-18
-1.69221e-18
-1.70095e-18
-1.71541e-18
-1.70655e-18
-1.69974e-18
-1.69549e-18
-1.69898e-18
-1.68903e-18
-1.68767e-18
-1.68391e-18
-1.70014e-18
-1.67999e-18
-1.70079e-18
-1.68326e-18
-1.66957e-18
-1.6574e-18
-1.66317e-18
-1.68058e-18
-1.68862e-18
-1.68235e-18
-1.69724e-18
-1.70138e-18
-1.70945e-18
-1.7061e-18
-1.70288e-18
-1.69419e-18
-1.69937e-18
-1.69446e-18
-1.69937e-18
-1.68234e-18
-1.7038e-18
-1.68674e-18
-1.70074e-18
-1.679e-18
-1.6624e-18
-1.67214e-18
-1.65865e-18
-1.67669e-18
-1.69428e-18
-1.68305e-18
-1.70114e-18
-1.70045e-18
-1.70646e-18
-1.70303e-18
-1.70999e-18
-1.70562e-18
-1.69349e-18
-1.69695e-18
-1.69579e-18
-1.68242e-18
-1.69003e-18
-1.68732e-18
-1.70953e-18
-1.68077e-18
-1.68003e-18
-1.67888e-18
-1.6793e-18
-1.68788e-18
-1.69944e-18
-1.68324e-18
-1.67969e-18
-1.69936e-18
-1.69074e-18
-1.69526e-18
-1.68791e-18
-1.71213e-18
-1.70435e-18
-1.69255e-18
-1.7019e-18
-1.65004e-18
-1.66448e-18
-1.65353e-18
-1.67536e-18
-1.68656e-18
-1.68045e-18
-1.71944e-18
-1.7007e-18
-1.71015e-18
-1.69847e-18
-1.70954e-18
-1.71453e-18
-1.69634e-18
-1.69179e-18
-1.69126e-18
-1.68458e-18
-1.68449e-18
-1.68596e-18
-1.71302e-18
-1.6844e-18
-1.68306e-18
-1.68546e-18
-1.68448e-18
-1.67987e-18
-1.69207e-18
-1.67993e-18
-1.68596e-18
-1.69901e-18
-1.69353e-18
-1.69334e-18
-1.69201e-18
-1.71048e-18
-1.70759e-18
-1.69405e-18
-1.69747e-18
-1.69899e-18
-1.70085e-18
-1.66297e-18
-1.66616e-18
-1.65895e-18
-1.67429e-18
-1.69053e-18
-1.70063e-18
-1.72375e-18
-1.6978e-18
-1.72564e-18
-1.69727e-18
-1.71177e-18
-1.69976e-18
-1.69502e-18
-1.69042e-18
-1.68567e-18
-1.68143e-18
-1.69303e-18
-1.684e-18
-1.70118e-18
-1.68731e-18
-1.68853e-18
-1.68562e-18
-1.68839e-18
-1.6818e-18
-1.69054e-18
-1.68647e-18
-1.68813e-18
-1.69656e-18
-1.6936e-18
-1.69787e-18
-1.69172e-18
-1.70554e-18
-1.70721e-18
-1.68616e-18
-1.70209e-18
-1.70222e-18
-1.69543e-18
-1.70467e-18
-1.66218e-18
-1.66804e-18
-1.66508e-18
-1.67195e-18
-1.7081e-18
-1.68941e-18
-1.71426e-18
-1.68877e-18
-1.71851e-18
-1.69761e-18
-1.72708e-18
-1.6963e-18
-1.70248e-18
-1.68534e-18
-1.67889e-18
-1.67291e-18
-1.69186e-18
-1.68524e-18
-1.69782e-18
-1.69109e-18
-1.68264e-18
-1.68438e-18
-1.69248e-18
-1.68335e-18
-1.6906e-18
-1.6852e-18
-1.68884e-18
-1.69822e-18
-1.69477e-18
-1.7026e-18
-1.69095e-18
-1.69968e-18
-1.70486e-18
-1.69643e-18
-1.69821e-18
-1.70306e-18
-1.69598e-18
-1.70567e-18
-1.70289e-18
-1.7111e-18
-1.65889e-18
-1.66518e-18
-1.67092e-18
-1.67268e-18
-1.70103e-18
-1.68603e-18
-1.70595e-18
-1.6799e-18
-1.71868e-18
-1.70299e-18
-1.7201e-18
-1.69577e-18
-1.71036e-18
-1.67762e-18
-1.68211e-18
-1.67761e-18
-1.69128e-18
-1.69101e-18
-1.69868e-18
-1.68863e-18
-1.6766e-18
-1.68676e-18
-1.68942e-18
-1.68325e-18
-1.69096e-18
-1.68373e-18
-1.69067e-18
-1.6939e-18
-1.69316e-18
-1.70024e-18
-1.69846e-18
-1.7052e-18
-1.69912e-18
-1.70136e-18
-1.69058e-18
-1.6992e-18
-1.69616e-18
-1.69951e-18
-1.70107e-18
-1.71307e-18
-1.72911e-18
-1.70265e-18
-1.66613e-18
-1.65642e-18
-1.67315e-18
-1.66935e-18
-1.69012e-18
-1.68075e-18
-1.70709e-18
-1.694e-18
-1.71271e-18
-1.69792e-18
-1.72381e-18
-1.69198e-18
-1.70085e-18
-1.67653e-18
-1.69281e-18
-1.68553e-18
-1.69348e-18
-1.68793e-18
-1.69009e-18
-1.68871e-18
-1.67753e-18
-1.69051e-18
-1.68536e-18
-1.68408e-18
-1.69288e-18
-1.68197e-18
-1.69379e-18
-1.69097e-18
-1.69757e-18
-1.69933e-18
-1.69215e-18
-1.70846e-18
-1.7031e-18
-1.7016e-18
-1.6863e-18
-1.69321e-18
-1.69621e-18
-1.70201e-18
-1.69906e-18
-1.71008e-18
-1.73132e-18
-1.7032e-18
-1.72168e-18
-1.6955e-18
-1.70306e-18
-1.66425e-18
-1.66255e-18
-1.67689e-18
-1.6739e-18
-1.68706e-18
-1.676e-18
-1.71013e-18
-1.70254e-18
-1.70516e-18
-1.6849e-18
-1.71664e-18
-1.69222e-18
-1.70418e-18
-1.6927e-18
-1.68696e-18
-1.68578e-18
-1.69593e-18
-1.68352e-18
-1.6914e-18
-1.69264e-18
-1.68158e-18
-1.6873e-18
-1.68493e-18
-1.6859e-18
-1.69643e-18
-1.68826e-18
-1.69353e-18
-1.68788e-18
-1.69595e-18
-1.69863e-18
-1.6927e-18
-1.71094e-18
-1.7021e-18
-1.70455e-18
-1.69854e-18
-1.69221e-18
-1.6962e-18
-1.69504e-18
-1.69919e-18
-1.70452e-18
-1.72852e-18
-1.69683e-18
-1.7133e-18
-1.68237e-18
-1.70555e-18
-1.68663e-18
-1.69813e-18
-1.66252e-18
-1.66251e-18
-1.67507e-18
-1.67809e-18
-1.68916e-18
-1.68219e-18
-1.69513e-18
-1.70254e-18
-1.70879e-18
-1.6935e-18
-1.70947e-18
-1.69765e-18
-1.70794e-18
-1.6907e-18
-1.69184e-18
-1.68101e-18
-1.69523e-18
-1.68115e-18
-1.70359e-18
-1.68959e-18
-1.67924e-18
-1.68431e-18
-1.68923e-18
-1.68749e-18
-1.69671e-18
-1.68579e-18
-1.69591e-18
-1.69054e-18
-1.69326e-18
-1.69572e-18
-1.69275e-18
-1.70556e-18
-1.70447e-18
-1.69809e-18
-1.69869e-18
-1.69221e-18
-1.69274e-18
-1.69757e-18
-1.70286e-18
-1.70458e-18
-1.72095e-18
-1.69904e-18
-1.71298e-18
-1.69071e-18
-1.70414e-18
-1.68671e-18
-1.68788e-18
-1.67307e-18
-1.69864e-18
-1.67328e-18
-1.6609e-18
-1.65996e-18
-1.67572e-18
-1.67055e-18
-1.70304e-18
-1.68336e-18
-1.70127e-18
-1.70833e-18
-1.71973e-18
-1.70259e-18
-1.7041e-18
-1.69907e-18
-1.71218e-18
-1.68955e-18
-1.68631e-18
-1.66994e-18
-1.6951e-18
-1.68752e-18
-1.69864e-18
-1.68414e-18
-1.68491e-18
-1.67781e-18
-1.69125e-18
-1.68056e-18
-1.69266e-18
-1.68174e-18
-1.69266e-18
-1.69064e-18
-1.6918e-18
-1.70005e-18
-1.68776e-18
-1.70881e-18
-1.70338e-18
-1.69983e-18
-1.70606e-18
-1.70148e-18
-1.69511e-18
-1.70123e-18
-1.70655e-18
-1.71369e-18
-1.71652e-18
-1.69707e-18
-1.69943e-18
-1.68095e-18
-1.7033e-18
-1.67953e-18
-1.6861e-18
-1.67327e-18
-1.69597e-18
-1.67448e-18
-1.65823e-18
-1.65715e-18
-1.67897e-18
-1.67604e-18
-1.69604e-18
-1.68271e-18
-1.70411e-18
-1.69453e-18
-1.71268e-18
-1.69628e-18
-1.71045e-18
-1.69436e-18
-1.71587e-18
-1.69154e-18
-1.68574e-18
-1.67332e-18
-1.68745e-18
-1.69228e-18
-1.69193e-18
-1.68664e-18
-1.68715e-18
-1.68035e-18
-1.69137e-18
-1.67795e-18
-1.69146e-18
-1.68667e-18
-1.69788e-18
-1.68834e-18
-1.69489e-18
-1.70123e-18
-1.69036e-18
-1.70903e-18
-1.70344e-18
-1.70601e-18
-1.70192e-18
-1.70022e-18
-1.69837e-18
-1.7014e-18
-1.71364e-18
-1.70778e-18
-1.72176e-18
-1.7039e-18
-1.70242e-18
-1.67744e-18
-1.68961e-18
-1.66964e-18
-1.67339e-18
-1.67289e-18
-1.69071e-18
-1.68102e-18
-1.66e-18
-1.65289e-18
-1.68032e-18
-1.66993e-18
-1.69193e-18
-1.67811e-18
-1.6962e-18
-1.69626e-18
-1.70633e-18
-1.69291e-18
-1.70704e-18
-1.68677e-18
-1.70665e-18
-1.69089e-18
-1.6876e-18
-1.67846e-18
-1.69499e-18
-1.69019e-18
-1.68999e-18
-1.6913e-18
-1.68604e-18
-1.68713e-18
-1.68965e-18
-1.67948e-18
-1.69177e-18
-1.69355e-18
-1.69996e-18
-1.69154e-18
-1.69796e-18
-1.70157e-18
-1.69928e-18
-1.70625e-18
-1.70334e-18
-1.69847e-18
-1.6978e-18
-1.69785e-18
-1.69237e-18
-1.70256e-18
-1.70956e-18
-1.7016e-18
-1.71503e-18
-1.70696e-18
-1.70352e-18
-1.69131e-18
-1.67661e-18
-1.66289e-18
-1.68105e-18
-1.66887e-18
-1.68931e-18
-1.67426e-18
-1.65855e-18
-1.65802e-18
-1.67349e-18
-1.67e-18
-1.68403e-18
-1.67747e-18
-1.69423e-18
-1.70336e-18
-1.7105e-18
-1.69358e-18
-1.71882e-18
-1.70219e-18
-1.70044e-18
-1.68326e-18
-1.69517e-18
-1.68082e-18
-1.69488e-18
-1.68918e-18
-1.69146e-18
-1.69148e-18
-1.68371e-18
-1.68583e-18
-1.68819e-18
-1.68172e-18
-1.69228e-18
-1.69798e-18
-1.69661e-18
-1.69101e-18
-1.69648e-18
-1.70656e-18
-1.69202e-18
-1.70368e-18
-1.69535e-18
-1.69323e-18
-1.69825e-18
-1.69674e-18
-1.6907e-18
-1.70713e-18
-1.69793e-18
-1.69178e-18
-1.71101e-18
-1.70544e-18
-1.70255e-18
-1.69171e-18
-1.68813e-18
-1.67124e-18
-1.69349e-18
-1.66761e-18
-1.68297e-18
-1.66424e-18
-1.66662e-18
-1.67474e-18
-1.67681e-18
-1.67632e-18
-1.68637e-18
-1.67867e-18
-1.68583e-18
-1.69392e-18
-1.71172e-18
-1.68803e-18
-1.71122e-18
-1.70387e-18
-1.70012e-18
-1.68968e-18
-1.6875e-18
-1.68043e-18
-1.69289e-18
-1.68469e-18
-1.68736e-18
-1.69179e-18
-1.6902e-18
-1.68119e-18
-1.69588e-18
-1.67915e-18
-1.69287e-18
-1.69125e-18
-1.69562e-18
-1.68582e-18
-1.69832e-18
-1.70294e-18
-1.69e-18
-1.70262e-18
-1.69742e-18
-1.70803e-18
-1.69323e-18
-1.70353e-18
-1.69312e-18
-1.70762e-18
-1.69749e-18
-1.70047e-18
-1.70966e-18
-1.70062e-18
-1.70722e-18
-1.69529e-18
-1.68879e-18
-1.66797e-18
-1.68803e-18
-1.6711e-18
-1.66856e-18
-1.66384e-18
-1.67875e-18
-1.66791e-18
-1.68972e-18
-1.68241e-18
-1.69004e-18
-1.6764e-18
-1.68727e-18
-1.68553e-18
-1.70595e-18
-1.69597e-18
-1.70423e-18
-1.69564e-18
-1.70868e-18
-1.69261e-18
-1.6943e-18
-1.68853e-18
-1.68797e-18
-1.68339e-18
-1.68218e-18
-1.68888e-18
-1.68899e-18
-1.68506e-18
-1.69737e-18
-1.68163e-18
-1.69482e-18
-1.68894e-18
-1.69378e-18
-1.69249e-18
-1.70579e-18
-1.70189e-18
-1.69421e-18
-1.7063e-18
-1.697e-18
-1.70654e-18
-1.69446e-18
-1.69629e-18
-1.69619e-18
-1.69867e-18
-1.70232e-18
-1.70895e-18
-1.70643e-18
-1.70322e-18
-1.7132e-18
-1.68686e-18
-1.69505e-18
-1.67055e-18
-1.68961e-18
-1.66151e-18
-1.67567e-18
-1.66223e-18
-1.66833e-18
-1.65653e-18
-1.67756e-18
-1.68293e-18
-1.68973e-18
-1.68973e-18
-1.69954e-18
-1.69508e-18
-1.72533e-18
-1.70031e-18
-1.71265e-18
-1.69903e-18
-1.7057e-18
-1.69196e-18
-1.70004e-18
-1.68667e-18
-1.69296e-18
-1.68749e-18
-1.69328e-18
-1.68722e-18
-1.68568e-18
-1.68534e-18
-1.69493e-18
-1.6836e-18
-1.69924e-18
-1.69085e-18
-1.68988e-18
-1.69119e-18
-1.69599e-18
-1.70309e-18
-1.70459e-18
-1.70483e-18
-1.69955e-18
-1.70216e-18
-1.69654e-18
-1.69027e-18
-1.69162e-18
-1.7017e-18
-1.70059e-18
-1.70348e-18
-1.70003e-18
-1.68526e-18
-1.69722e-18
-1.68016e-18
-1.68261e-18
-1.66931e-18
-1.68974e-18
-1.67148e-18
-1.67889e-18
-1.66955e-18
-1.65996e-18
-1.65518e-18
-1.67615e-18
-1.67506e-18
-1.69158e-18
-1.69225e-18
-1.69716e-18
-1.69347e-18
-1.71466e-18
-1.68712e-18
-1.70544e-18
-1.70632e-18
-1.70308e-18
-1.68673e-18
-1.69855e-18
-1.68882e-18
-1.6895e-18
-1.68815e-18
-1.69689e-18
-1.68658e-18
-1.69101e-18
-1.68869e-18
-1.69177e-18
-1.68512e-18
-1.69861e-18
-1.69479e-18
-1.69247e-18
-1.69201e-18
-1.69382e-18
-1.70437e-18
-1.70517e-18
-1.70132e-18
-1.69873e-18
-1.70654e-18
-1.69112e-18
-1.69276e-18
-1.68698e-18
-1.7038e-18
-1.69351e-18
-1.70136e-18
-1.70658e-18
-1.69247e-18
-1.69874e-18
-1.68272e-18
-1.67687e-18
-1.66659e-18
-1.68523e-18
-1.67165e-18
-1.68126e-18
-1.67139e-18
-1.65984e-18
-1.64637e-18
-1.67812e-18
-1.66708e-18
-1.68641e-18
-1.67713e-18
-1.69078e-18
-1.68843e-18
-1.71107e-18
-1.69119e-18
-1.71112e-18
-1.70938e-18
-1.70384e-18
-1.68221e-18
-1.69846e-18
-1.68656e-18
-1.69245e-18
-1.68335e-18
-1.70075e-18
-1.68998e-18
-1.69425e-18
-1.68448e-18
-1.69201e-18
-1.681e-18
-1.69506e-18
-1.6912e-18
-1.70031e-18
-1.69704e-18
-1.69155e-18
-1.70472e-18
-1.70157e-18
-1.6989e-18
-1.70093e-18
-1.70382e-18
-1.70135e-18
-1.69323e-18
-1.69259e-18
-1.70417e-18
-1.69569e-18
-1.70245e-18
-1.70289e-18
-1.69826e-18
-1.7047e-18
-1.68614e-18
-1.6888e-18
-1.66968e-18
-1.68326e-18
-1.6695e-18
-1.69047e-18
-1.66802e-18
-1.67033e-18
-1.64215e-18
-1.67808e-18
-1.66995e-18
-1.68172e-18
-1.67413e-18
-1.6908e-18
-1.69028e-18
-1.71016e-18
-1.69669e-18
-1.70879e-18
-1.70109e-18
-1.71207e-18
-1.69173e-18
-1.6967e-18
-1.6924e-18
-1.69768e-18
-1.68032e-18
-1.69871e-18
-1.6931e-18
-1.69346e-18
-1.68112e-18
-1.68937e-18
-1.67971e-18
-1.69392e-18
-1.68748e-18
-1.6988e-18
-1.69785e-18
-1.69847e-18
-1.70741e-18
-1.7001e-18
-1.70376e-18
-1.70205e-18
-1.69497e-18
-1.70631e-18
-1.69566e-18
-1.69485e-18
-1.69861e-18
-1.7059e-18
-1.69228e-18
-1.70345e-18
-1.69356e-18
-1.70274e-18
-1.69025e-18
-1.69474e-18
-1.67025e-18
-1.68369e-18
-1.66999e-18
-1.69255e-18
-1.65844e-18
-1.67573e-18
-1.65062e-18
-1.66965e-18
-1.66805e-18
-1.68433e-18
-1.68088e-18
-1.69709e-18
-1.68982e-18
-1.70668e-18
-1.6876e-18
-1.6966e-18
-1.70183e-18
-1.71347e-18
-1.69974e-18
-1.69817e-18
-1.68879e-18
-1.69698e-18
-1.68609e-18
-1.70219e-18
-1.69197e-18
-1.69391e-18
-1.68164e-18
-1.69014e-18
-1.67809e-18
-1.69311e-18
-1.68975e-18
-1.69852e-18
-1.69552e-18
-1.7031e-18
-1.70514e-18
-1.7016e-18
-1.70142e-18
-1.70015e-18
-1.69523e-18
-1.7105e-18
-1.69486e-18
-1.69394e-18
-1.69514e-18
-1.69894e-18
-1.70834e-18
-1.70631e-18
-1.69474e-18
-1.69606e-18
-1.68807e-18
-1.69495e-18
-1.66083e-18
-1.68598e-18
-1.67596e-18
-1.68041e-18
-1.65532e-18
-1.66948e-18
-1.6604e-18
-1.67776e-18
-1.67135e-18
-1.6837e-18
-1.68926e-18
-1.69269e-18
-1.69304e-18
-1.7087e-18
-1.68726e-18
-1.70466e-18
-1.70247e-18
-1.71217e-18
-1.70144e-18
-1.69872e-18
-1.68904e-18
-1.68845e-18
-1.69243e-18
-1.69988e-18
-1.69782e-18
-1.69251e-18
-1.67984e-18
-1.69321e-18
-1.68223e-18
-1.69154e-18
-1.68877e-18
-1.69842e-18
-1.69919e-18
-1.70266e-18
-1.70501e-18
-1.70202e-18
-1.69811e-18
-1.69528e-18
-1.69825e-18
-1.69987e-18
-1.69488e-18
-1.68294e-18
-1.69469e-18
-1.689e-18
-1.70029e-18
-1.70226e-18
-1.69573e-18
-1.69158e-18
-1.68078e-18
-1.68431e-18
-1.6661e-18
-1.68229e-18
-1.66599e-18
-1.67417e-18
-1.65608e-18
-1.66312e-18
-1.66777e-18
-1.68075e-18
-1.67102e-18
-1.68218e-18
-1.69074e-18
-1.69133e-18
-1.68867e-18
-1.70624e-18
-1.68644e-18
-1.69903e-18
-1.7089e-18
-1.70817e-18
-1.69605e-18
-1.70333e-18
-1.68917e-18
-1.68797e-18
-1.69463e-18
-1.70075e-18
-1.6966e-18
-1.69223e-18
-1.68373e-18
-1.68854e-18
-1.68103e-18
-1.69319e-18
-1.69166e-18
-1.70245e-18
-1.70378e-18
-1.70124e-18
-1.70094e-18
-1.70244e-18
-1.69785e-18
-1.69541e-18
-1.69426e-18
-1.69946e-18
-1.692e-18
-1.68669e-18
-1.70044e-18
-1.68196e-18
-1.70038e-18
-1.70034e-18
-1.68981e-18
-1.69655e-18
-1.68318e-18
-1.68675e-18
-1.66895e-18
-1.68142e-18
-1.66165e-18
-1.67027e-18
-1.65739e-18
-1.66909e-18
-1.66262e-18
-1.6792e-18
-1.66759e-18
-1.68838e-18
-1.68173e-18
-1.69485e-18
-1.68364e-18
-1.69942e-18
-1.6833e-18
-1.69546e-18
-1.70658e-18
-1.71612e-18
-1.69539e-18
-1.70521e-18
-1.69209e-18
-1.69036e-18
-1.6899e-18
-1.7047e-18
-1.69047e-18
-1.69499e-18
-1.68542e-18
-1.68707e-18
-1.68057e-18
-1.693e-18
-1.69832e-18
-1.70755e-18
-1.70242e-18
-1.7008e-18
-1.70383e-18
-1.70788e-18
-1.7025e-18
-1.7044e-18
-1.69124e-18
-1.69529e-18
-1.69307e-18
-1.69016e-18
-1.69477e-18
-1.68529e-18
-1.69875e-18
-1.70053e-18
-1.69201e-18
-1.70314e-18
-1.67957e-18
-1.69229e-18
-1.66422e-18
-1.68332e-18
-1.66277e-18
-1.67188e-18
-1.65417e-18
-1.66405e-18
-1.65964e-18
-1.67515e-18
-1.66762e-18
-1.67923e-18
-1.6873e-18
-1.68767e-18
-1.69265e-18
-1.70691e-18
-1.68705e-18
-1.70347e-18
-1.69422e-18
-1.70985e-18
-1.69727e-18
-1.69864e-18
-1.69192e-18
-1.69172e-18
-1.69284e-18
-1.70409e-18
-1.69296e-18
-1.70179e-18
-1.68499e-18
-1.6955e-18
-1.67988e-18
-1.69194e-18
-1.69701e-18
-1.70104e-18
-1.69615e-18
-1.70032e-18
-1.7018e-18
-1.70557e-18
-1.70602e-18
-1.69984e-18
-1.69872e-18
-1.68932e-18
-1.69704e-18
-1.6877e-18
-1.69803e-18
-1.69697e-18
-1.69248e-18
-1.69175e-18
-1.68822e-18
-1.69815e-18
-1.68319e-18
-1.68307e-18
-1.66895e-18
-1.68235e-18
-1.66964e-18
-1.67236e-18
-1.66131e-18
-1.66745e-18
-1.65098e-18
-1.67463e-18
-1.66004e-18
-1.6735e-18
-1.68867e-18
-1.6913e-18
-1.68595e-18
-1.70245e-18
-1.68939e-18
-1.70363e-18
-1.6936e-18
-1.71684e-18
-1.69087e-18
-1.69893e-18
-1.69263e-18
-1.69784e-18
-1.69177e-18
-1.70376e-18
-1.69517e-18
-1.70207e-18
-1.68617e-18
-1.69064e-18
-1.68272e-18
-1.69772e-18
-1.70152e-18
-1.70437e-18
-1.69757e-18
-1.70179e-18
-1.70169e-18
-1.70622e-18
-1.70382e-18
-1.70104e-18
-1.69472e-18
-1.69279e-18
-1.69353e-18
-1.68838e-18
-1.69141e-18
-1.69477e-18
-1.6943e-18
-1.68832e-18
-1.69187e-18
-1.69726e-18
-1.68192e-18
-1.68254e-18
-1.6789e-18
-1.68723e-18
-1.66611e-18
-1.67988e-18
-1.65624e-18
-1.65982e-18
-1.65564e-18
-1.6695e-18
-1.66279e-18
-1.6747e-18
-1.6883e-18
-1.69267e-18
-1.68512e-18
-1.70115e-18
-1.68071e-18
-1.71104e-18
-1.69542e-18
-1.71492e-18
-1.69402e-18
-1.69986e-18
-1.69179e-18
-1.69835e-18
-1.6924e-18
-1.70746e-18
-1.69433e-18
-1.69978e-18
-1.68803e-18
-1.68791e-18
-1.6824e-18
-1.6988e-18
-1.70218e-18
-1.70491e-18
-1.69694e-18
-1.70141e-18
-1.70816e-18
-1.71073e-18
-1.69692e-18
-1.70132e-18
-1.69167e-18
-1.69853e-18
-1.69578e-18
-1.68848e-18
-1.69003e-18
-1.68845e-18
-1.6887e-18
-1.69832e-18
-1.68942e-18
-1.69199e-18
-1.68188e-18
-1.68345e-18
-1.67714e-18
-1.68229e-18
-1.66638e-18
-1.67632e-18
-1.65223e-18
-1.6652e-18
-1.65826e-18
-1.67226e-18
-1.67429e-18
-1.67633e-18
-1.68849e-18
-1.69731e-18
-1.68224e-18
-1.70346e-18
-1.67573e-18
-1.70139e-18
-1.69591e-18
-1.70839e-18
-1.69546e-18
-1.69815e-18
-1.69683e-18
-1.70084e-18
-1.69698e-18
-1.7077e-18
-1.69236e-18
-1.69866e-18
-1.6902e-18
-1.69369e-18
-1.6837e-18
-1.70096e-18
-1.69723e-18
-1.70651e-18
-1.69524e-18
-1.70147e-18
-1.70525e-18
-1.7149e-18
-1.69552e-18
-1.69943e-18
-1.69174e-18
-1.69873e-18
-1.69897e-18
-1.69265e-18
-1.69516e-18
-1.68865e-18
-1.69365e-18
-1.70104e-18
-1.68597e-18
-1.68784e-18
-1.67583e-18
-1.68351e-18
-1.66355e-18
-1.66957e-18
-1.66238e-18
-1.67628e-18
-1.65329e-18
-1.65621e-18
-1.658e-18
-1.66846e-18
-1.68031e-18
-1.68007e-18
-1.6896e-18
-1.69499e-18
-1.67635e-18
-1.70084e-18
-1.68065e-18
-1.70352e-18
-1.68986e-18
-1.70678e-18
-1.69397e-18
-1.69833e-18
-1.69809e-18
-1.69561e-18
-1.6995e-18
-1.70456e-18
-1.69432e-18
-1.69587e-18
-1.69636e-18
-1.69862e-18
-1.68699e-18
-1.69918e-18
-1.69451e-18
-1.70325e-18
-1.69798e-18
-1.6988e-18
-1.70508e-18
-1.71013e-18
-1.70123e-18
-1.70137e-18
-1.69668e-18
-1.69581e-18
-1.69763e-18
-1.69621e-18
-1.6976e-18
-1.69372e-18
-1.68494e-18
-1.6981e-18
-1.68196e-18
-1.69017e-18
-1.67415e-18
-1.68206e-18
-1.66632e-18
-1.66248e-18
-1.66575e-18
-1.67222e-18
-1.66536e-18
-1.65935e-18
-1.6581e-18
-1.66384e-18
-1.66759e-18
-1.68147e-18
-1.69206e-18
-1.69821e-18
-1.68603e-18
-1.70091e-18
-1.68107e-18
-1.70376e-18
-1.69297e-18
-1.71579e-18
-1.69367e-18
-1.70216e-18
-1.69619e-18
-1.69851e-18
-1.70061e-18
-1.70524e-18
-1.69522e-18
-1.69632e-18
-1.69152e-18
-1.695e-18
-1.69043e-18
-1.69987e-18
-1.69623e-18
-1.70064e-18
-1.70108e-18
-1.7011e-18
-1.70856e-18
-1.70649e-18
-1.70224e-18
-1.69881e-18
-1.697e-18
-1.69741e-18
-1.6977e-18
-1.69655e-18
-1.69155e-18
-1.68849e-18
-1.68504e-18
-1.69061e-18
-1.68352e-18
-1.68653e-18
-1.66874e-18
-1.67824e-18
-1.66896e-18
-1.67766e-18
-1.67077e-18
-1.6679e-18
-1.66002e-18
-1.66284e-18
-1.66028e-18
-1.66617e-18
-1.66357e-18
-1.68071e-18
-1.68976e-18
-1.69678e-18
-1.67921e-18
-1.70437e-18
-1.68414e-18
-1.70082e-18
-1.69966e-18
-1.71321e-18
-1.69484e-18
-1.70785e-18
-1.69513e-18
-1.70048e-18
-1.70079e-18
-1.70829e-18
-1.69243e-18
-1.70084e-18
-1.6889e-18
-1.69332e-18
-1.6892e-18
-1.70249e-18
-1.69651e-18
-1.69767e-18
-1.69966e-18
-1.70196e-18
-1.70628e-18
-1.70516e-18
-1.69965e-18
-1.69895e-18
-1.6973e-18
-1.69943e-18
-1.69601e-18
-1.69428e-18
-1.69306e-18
-1.68423e-18
-1.68769e-18
-1.68554e-18
-1.68411e-18
-1.69793e-18
-1.67182e-18
-1.67811e-18
-1.66924e-18
-1.67646e-18
-1.67095e-18
-1.66709e-18
-1.65471e-18
-1.66091e-18
-1.66403e-18
-1.66856e-18
-1.65605e-18
-1.68003e-18
-1.69092e-18
-1.69134e-18
-1.68409e-18
-1.7052e-18
-1.6782e-18
-1.70327e-18
-1.69744e-18
-1.70403e-18
-1.69396e-18
-1.70935e-18
-1.69741e-18
-1.7051e-18
-1.69915e-18
-1.70539e-18
-1.69427e-18
-1.7011e-18
-1.69012e-18
-1.69483e-18
-1.68826e-18
-1.69997e-18
-1.69627e-18
-1.70047e-18
-1.69958e-18
-1.70278e-18
-1.70586e-18
-1.70917e-18
-1.69882e-18
-1.70173e-18
-1.6958e-18
-1.69799e-18
-1.69259e-18
-1.6916e-18
-1.69941e-18
-1.68295e-18
-1.68258e-18
-1.6952e-18
-1.68368e-18
-1.69368e-18
-1.67628e-18
-1.67897e-18
-1.66939e-18
-1.68256e-18
-1.66606e-18
-1.66426e-18
-1.65266e-18
-1.64914e-18
-1.6582e-18
-1.65863e-18
-1.65375e-18
-1.67738e-18
-1.69593e-18
-1.69823e-18
-1.68949e-18
-1.70348e-18
-1.67739e-18
-1.71022e-18
-1.69174e-18
-1.70157e-18
-1.69542e-18
-1.71452e-18
-1.69904e-18
-1.70762e-18
-1.7e-18
-1.7027e-18
-1.70024e-18
-1.7011e-18
-1.69117e-18
-1.69599e-18
-1.68715e-18
-1.70199e-18
-1.69595e-18
-1.70154e-18
-1.70207e-18
-1.70359e-18
-1.70804e-18
-1.7059e-18
-1.70349e-18
-1.70067e-18
-1.69598e-18
-1.69793e-18
-1.6879e-18
-1.68888e-18
-1.70247e-18
-1.68495e-18
-1.67871e-18
-1.69476e-18
-1.68307e-18
-1.69438e-18
-1.66998e-18
-1.67531e-18
-1.67185e-18
-1.683e-18
-1.66859e-18
-1.67065e-18
-1.66321e-18
-1.65997e-18
-1.66148e-18
-1.64889e-18
-1.66353e-18
-1.67111e-18
-1.69316e-18
-1.69601e-18
-1.68257e-18
-1.69839e-18
-1.68067e-18
-1.69952e-18
-1.68209e-18
-1.71149e-18
-1.68819e-18
-1.70724e-18
-1.69787e-18
-1.70517e-18
-1.69989e-18
-1.70351e-18
-1.69926e-18
-1.70206e-18
-1.69377e-18
-1.69556e-18
-1.68584e-18
-1.70075e-18
-1.69596e-18
-1.70093e-18
-1.7011e-18
-1.70266e-18
-1.71196e-18
-1.70865e-18
-1.70384e-18
-1.70305e-18
-1.69694e-18
-1.70265e-18
-1.69628e-18
-1.69916e-18
-1.68934e-18
-1.69187e-18
-1.68978e-18
-1.69081e-18
-1.68311e-18
-1.68874e-18
-1.67346e-18
-1.67963e-18
-1.67784e-18
-1.67505e-18
-1.67829e-18
-1.67051e-18
-1.65706e-18
-1.66623e-18
-1.65724e-18
-1.65914e-18
-1.66877e-18
-1.67333e-18
-1.69383e-18
-1.69315e-18
-1.68165e-18
-1.69653e-18
-1.68195e-18
-1.70619e-18
-1.68583e-18
-1.71468e-18
-1.6969e-18
-1.70325e-18
-1.69784e-18
-1.70203e-18
-1.70222e-18
-1.70397e-18
-1.69825e-18
-1.70394e-18
-1.6891e-18
-1.69567e-18
-1.6898e-18
-1.70141e-18
-1.69589e-18
-1.70123e-18
-1.70224e-18
-1.7084e-18
-1.70921e-18
-1.71263e-18
-1.7029e-18
-1.70125e-18
-1.69904e-18
-1.70491e-18
-1.69614e-18
-1.69861e-18
-1.68336e-18
-1.69334e-18
-1.68458e-18
-1.6907e-18
-1.68263e-18
-1.68419e-18
-1.67632e-18
-1.68314e-18
-1.67484e-18
-1.6712e-18
-1.66908e-18
-1.67121e-18
-1.65488e-18
-1.66589e-18
-1.66477e-18
-1.66562e-18
-1.66685e-18
-1.67857e-18
-1.68629e-18
-1.68401e-18
-1.67811e-18
-1.70302e-18
-1.68208e-18
-1.69731e-18
-1.68828e-18
-1.70761e-18
-1.69954e-18
-1.70843e-18
-1.69607e-18
-1.69898e-18
-1.70162e-18
-1.70695e-18
-1.69756e-18
-1.70598e-18
-1.69093e-18
-1.70127e-18
-1.69105e-18
-1.70386e-18
-1.69572e-18
-1.70114e-18
-1.7e-18
-1.70955e-18
-1.70897e-18
-1.71088e-18
-1.69859e-18
-1.70526e-18
-1.70021e-18
-1.70726e-18
-1.69303e-18
-1.69945e-18
-1.68868e-18
-1.6917e-18
-1.68136e-18
-1.68707e-18
-1.67483e-18
-1.68019e-18
-1.67741e-18
-1.6919e-18
-1.66786e-18
-1.67652e-18
-1.66274e-18
-1.66811e-18
-1.65016e-18
-1.66294e-18
-1.66598e-18
-1.66424e-18
-1.65669e-18
-1.68102e-18
-1.68719e-18
-1.69082e-18
-1.67598e-18
-1.69984e-18
-1.6835e-18
-1.69516e-18
-1.68846e-18
-1.70851e-18
-1.7024e-18
-1.70847e-18
-1.69421e-18
-1.70893e-18
-1.69452e-18
-1.70515e-18
-1.69713e-18
-1.70493e-18
-1.69211e-18
-1.70207e-18
-1.69127e-18
-1.70116e-18
-1.69543e-18
-1.70071e-18
-1.69893e-18
-1.70629e-18
-1.70871e-18
-1.71051e-18
-1.70192e-18
-1.70688e-18
-1.69114e-18
-1.70854e-18
-1.69022e-18
-1.69277e-18
-1.69179e-18
-1.6886e-18
-1.67967e-18
-1.68325e-18
-1.67812e-18
-1.68661e-18
-1.67205e-18
-1.68509e-18
-1.6678e-18
-1.67842e-18
-1.66762e-18
-1.66136e-18
-1.66196e-18
-1.65959e-18
-1.6591e-18
-1.6572e-18
-1.67586e-18
-1.69003e-18
-1.69726e-18
-1.68137e-18
-1.69858e-18
-1.68704e-18
-1.70301e-18
-1.68843e-18
-1.70605e-18
-1.69602e-18
-1.71065e-18
-1.69573e-18
-1.70742e-18
-1.6985e-18
-1.70833e-18
-1.70099e-18
-1.70768e-18
-1.69348e-18
-1.70464e-18
-1.69332e-18
-1.69984e-18
-1.69547e-18
-1.70075e-18
-1.6978e-18
-1.70433e-18
-1.70606e-18
-1.70702e-18
-1.70267e-18
-1.70625e-18
-1.69709e-18
-1.70493e-18
-1.69125e-18
-1.69572e-18
-1.69212e-18
-1.68914e-18
-1.68105e-18
-1.67878e-18
-1.68087e-18
-1.68609e-18
-1.67006e-18
-1.68173e-18
-1.67332e-18
-1.68006e-18
-1.66971e-18
-1.65957e-18
-1.65666e-18
-1.66268e-18
-1.66774e-18
-1.67497e-18
-1.68869e-18
-1.6969e-18
-1.68336e-18
-1.69679e-18
-1.68416e-18
-1.70593e-18
-1.68854e-18
-1.71083e-18
-1.69617e-18
-1.71186e-18
-1.70131e-18
-1.70452e-18
-1.70188e-18
-1.70845e-18
-1.7031e-18
-1.70859e-18
-1.69344e-18
-1.7034e-18
-1.69519e-18
-1.7006e-18
-1.69543e-18
-1.70046e-18
-1.69504e-18
-1.70244e-18
-1.70465e-18
-1.70482e-18
-1.70414e-18
-1.70024e-18
-1.70281e-18
-1.70194e-18
-1.69641e-18
-1.69519e-18
-1.68699e-18
-1.687e-18
-1.68894e-18
-1.68129e-18
-1.6801e-18
-1.68498e-18
-1.66752e-18
-1.68008e-18
-1.67182e-18
-1.67123e-18
-1.67079e-18
-1.65446e-18
-1.65956e-18
-1.66623e-18
-1.67258e-18
-1.68965e-18
-1.68733e-18
-1.68288e-18
-1.70314e-18
-1.68978e-18
-1.6996e-18
-1.68798e-18
-1.71237e-18
-1.69188e-18
-1.71326e-18
-1.70247e-18
-1.7048e-18
-1.69973e-18
-1.70866e-18
-1.70121e-18
-1.70654e-18
-1.69437e-18
-1.70194e-18
-1.6946e-18
-1.70299e-18
-1.69647e-18
-1.70026e-18
-1.69728e-18
-1.7049e-18
-1.70638e-18
-1.70654e-18
-1.70021e-18
-1.70007e-18
-1.69767e-18
-1.70134e-18
-1.69225e-18
-1.70009e-18
-1.68877e-18
-1.68755e-18
-1.69258e-18
-1.67501e-18
-1.67138e-18
-1.68368e-18
-1.67981e-18
-1.68347e-18
-1.67588e-18
-1.66228e-18
-1.65362e-18
-1.65067e-18
-1.66438e-18
-1.67454e-18
-1.68412e-18
-1.69158e-18
-1.68038e-18
-1.6933e-18
-1.68249e-18
-1.70025e-18
-1.68642e-18
-1.70858e-18
-1.69828e-18
-1.70884e-18
-1.6967e-18
-1.70627e-18
-1.69599e-18
-1.71052e-18
-1.70193e-18
-1.7039e-18
-1.69781e-18
-1.70138e-18
-1.69429e-18
-1.70202e-18
-1.69857e-18
-1.70088e-18
-1.6971e-18
-1.70469e-18
-1.70809e-18
-1.70904e-18
-1.69667e-18
-1.70182e-18
-1.69598e-18
-1.70501e-18
-1.68992e-18
-1.69374e-18
-1.69683e-18
-1.68917e-18
-1.68438e-18
-1.68288e-18
-1.67977e-18
-1.68288e-18
-1.67379e-18
-1.68466e-18
-1.65474e-18
-1.65027e-18
-1.64932e-18
-1.65971e-18
-1.67144e-18
-1.6704e-18
-1.69406e-18
-1.68031e-18
-1.68706e-18
-1.68465e-18
-1.69597e-18
-1.68685e-18
-1.70989e-18
-1.6985e-18
-1.70798e-18
-1.6972e-18
-1.70563e-18
-1.69885e-18
-1.71102e-18
-1.70293e-18
-1.70324e-18
-1.69512e-18
-1.70655e-18
-1.69537e-18
-1.7034e-18
-1.69608e-18
-1.70042e-18
-1.6946e-18
-1.70601e-18
-1.71354e-18
-1.7116e-18
-1.69942e-18
-1.70138e-18
-1.70055e-18
-1.7062e-18
-1.69233e-18
-1.69343e-18
-1.68821e-18
-1.68118e-18
-1.68657e-18
-1.68368e-18
-1.68543e-18
-1.68291e-18
-1.66521e-18
-1.69545e-18
-1.6598e-18
-1.66055e-18
-1.66054e-18
-1.66567e-18
-1.66813e-18
-1.67839e-18
-1.69389e-18
-1.68083e-18
-1.69139e-18
-1.69207e-18
-1.69876e-18
-1.68308e-18
-1.7096e-18
-1.69347e-18
-1.7051e-18
-1.69902e-18
-1.704e-18
-1.70007e-18
-1.71056e-18
-1.7057e-18
-1.70338e-18
-1.69197e-18
-1.70625e-18
-1.6974e-18
-1.70155e-18
-1.69467e-18
-1.70003e-18
-1.69718e-18
-1.71067e-18
-1.71198e-18
-1.7072e-18
-1.70019e-18
-1.70098e-18
-1.70207e-18
-1.70275e-18
-1.69423e-18
-1.699e-18
-1.6852e-18
-1.68591e-18
-1.68337e-18
-1.67509e-18
-1.67954e-18
-1.68304e-18
-1.66572e-18
-1.6869e-18
-1.66134e-18
-1.66004e-18
-1.66362e-18
-1.67051e-18
-1.67037e-18
-1.68098e-18
-1.68971e-18
-1.68434e-18
-1.69959e-18
-1.68942e-18
-1.69349e-18
-1.69261e-18
-1.70781e-18
-1.70087e-18
-1.70812e-18
-1.69391e-18
-1.70823e-18
-1.70297e-18
-1.70984e-18
-1.70117e-18
-1.70034e-18
-1.69703e-18
-1.70431e-18
-1.70004e-18
-1.70089e-18
-1.69465e-18
-1.70008e-18
-1.70106e-18
-1.7088e-18
-1.71229e-18
-1.70941e-18
-1.6962e-18
-1.69697e-18
-1.70069e-18
-1.70517e-18
-1.69027e-18
-1.69386e-18
-1.68786e-18
-1.68631e-18
-1.68665e-18
-1.67151e-18
-1.67131e-18
-1.67839e-18
-1.66949e-18
-1.68574e-18
-1.66055e-18
-1.65716e-18
-1.65683e-18
-1.66208e-18
-1.6749e-18
-1.68217e-18
-1.68226e-18
-1.68044e-18
-1.69776e-18
-1.68674e-18
-1.69949e-18
-1.69034e-18
-1.71109e-18
-1.70032e-18
-1.70876e-18
-1.69188e-18
-1.70792e-18
-1.7029e-18
-1.70854e-18
-1.69881e-18
-1.70056e-18
-1.69694e-18
-1.70178e-18
-1.69796e-18
-1.70101e-18
-1.69847e-18
-1.70015e-18
-1.69983e-18
-1.70522e-18
-1.70838e-18
-1.71023e-18
-1.69468e-18
-1.69479e-18
-1.69933e-18
-1.70169e-18
-1.68979e-18
-1.69485e-18
-1.68798e-18
-1.68286e-18