/*--------------------------------*- C++ -*----------------------------------*\
  =========                 |
  \\      /  F ield         | OpenFOAM: The Open Source CFD Toolbox
   \\    /   O peration     | Website:  https://openfoam.org
    \\  /    A nd           | Version:  7
     \\/     M anipulation  |
\*---------------------------------------------------------------------------*/
FoamFile
{
    version     2.0;
    format      ascii;
    class       surfaceScalarField;
    location    "132000";
    object      phi;
}
// * * * * * * * * * * * * * * * * * * * * * * * * * * * * * * * * * * * * * //

dimensions      [0 3 -1 0 0 0 0];

internalField   nonuniform List<scalar> 
9490
(
-2.20205e-23
1.16016e-22
2.68444e-23
-1.95742e-23
-2.18297e-23
1.48953e-22
2.71845e-23
-2.39865e-23
-1.33418e-23
-2.44905e-23
9.49145e-23
-1.94454e-23
1.16998e-22
1.78163e-23
-2.19656e-23
1.43189e-22
2.59106e-23
-2.44528e-23
-1.61107e-23
-2.34283e-23
5.50514e-23
-1.97374e-23
1.17154e-22
2.18449e-23
-2.23961e-23
1.76978e-22
2.45015e-23
-2.57162e-23
-2.06074e-23
-2.18935e-23
1.31376e-22
-2.13117e-23
1.02876e-22
1.65833e-23
-2.15731e-23
1.30357e-22
2.39535e-23
-2.57222e-23
-9.90961e-23
-2.13115e-23
1.21076e-22
-2.19363e-23
1.43028e-22
7.06756e-24
-2.36178e-23
1.0369e-22
2.30322e-23
-2.43239e-23
-1.31241e-22
-2.22585e-23
7.54807e-23
-2.20628e-23
6.67732e-23
-3.49973e-23
-2.46637e-23
9.95301e-23
2.38518e-23
-2.41309e-23
-9.55583e-23
-2.12689e-23
7.05174e-23
-2.23186e-23
-1.28068e-23
-4.17032e-23
-2.45598e-23
9.52869e-23
2.42555e-23
-2.37522e-23
-9.29989e-23
-2.12782e-23
6.33656e-23
-2.17311e-23
-1.01394e-23
-2.52272e-23
-2.59613e-23
9.16297e-23
2.36723e-23
-2.27507e-23
1.49468e-23
-2.21736e-23
6.31585e-23
-2.06305e-23
3.05899e-23
-3.53382e-23
-2.64807e-23
9.15038e-23
2.19551e-23
-2.26014e-23
1.07568e-22
-2.29005e-23
6.61945e-23
-1.99419e-23
6.87313e-23
-4.34242e-23
-2.58159e-23
1.43863e-23
2.08737e-23
-2.33588e-23
1.08828e-22
-2.2267e-23
7.10879e-23
-2.00994e-23
1.12242e-22
-9.72303e-24
-2.51595e-23
1.92333e-23
2.04281e-23
-2.3537e-23
1.13682e-22
-2.36905e-23
7.72883e-23
-1.98372e-23
1.04931e-22
-1.17218e-23
-2.33182e-23
-4.33197e-23
2.03651e-23
-2.37118e-23
8.0817e-23
-2.43785e-23
1.71588e-23
-1.96606e-23
9.97149e-23
-2.31513e-23
-3.95226e-23
1.95637e-23
-2.3587e-23
8.56754e-23
-2.40518e-23
-1.94395e-23
9.05709e-23
-2.29436e-23
-3.8162e-23
2.01203e-23
-2.37824e-23
8.91423e-23
-2.43701e-23
-1.01785e-23
1.45273e-22
-2.28909e-23
-1.16538e-22
1.96049e-23
-2.30752e-23
1.27934e-22
-2.38839e-23
3.6397e-24
-2.24109e-23
-3.88481e-23
1.97587e-23
-2.33908e-23
1.25883e-22
-2.92326e-23
-2.14999e-23
-8.15018e-23
1.92785e-23
-2.30654e-23
1.2754e-22
-2.09156e-23
-8.89556e-23
2.00925e-23
1.34898e-22
-2.08733e-23
-2.42057e-23
1.97933e-23
1.42381e-22
-2.02037e-23
-6.05645e-23
1.91241e-23
1.11707e-22
-2.01148e-23
-4.00802e-23
1.88672e-23
6.20939e-23
-1.91444e-23
3.3878e-23
1.97093e-23
1.90165e-23
-5.06503e-25
-1.91402e-23
-8.86142e-24
8.64073e-24
-3.91081e-23
1.25582e-23
-6.05871e-23
2.2786e-23
4.01343e-23
1.26233e-23
-6.68252e-24
2.11191e-23
-1.77434e-23
1.67826e-23
5.62332e-23
1.23565e-23
-5.92591e-24
1.44358e-23
1.42331e-22
1.42839e-23
-2.18967e-23
8.67435e-24
2.60706e-23
-1.71057e-24
2.91262e-23
-7.62741e-24
1.10638e-22
7.84937e-25
1.07481e-22
8.85124e-24
1.40537e-22
2.93785e-23
1.66084e-22
2.43237e-23
6.04453e-23
1.34842e-23
3.56216e-23
-4.41153e-24
3.74661e-23
3.69796e-23
-7.70125e-25
2.26497e-23
-7.39068e-24
7.35313e-24
7.06184e-23
1.6117e-23
-6.23773e-23
1.89956e-23
4.04662e-23
1.2769e-23
-4.09322e-23
1.98618e-23
-3.09671e-23
1.60337e-23
6.04125e-23
1.44019e-23
-1.81883e-23
1.31515e-23
1.73136e-22
1.25014e-23
-2.70384e-23
9.36272e-24
2.5343e-23
1.82347e-24
-5.66302e-24
-9.18732e-24
4.78647e-23
9.43843e-25
1.28441e-22
1.08877e-23
1.35115e-22
2.69363e-23
1.63548e-22
2.25526e-23
6.89827e-23
1.30897e-23
-2.97026e-23
-5.13692e-24
2.57626e-23
6.13162e-23
2.07351e-24
-1.84853e-23
-7.68723e-24
4.8073e-24
2.02223e-23
1.62096e-23
-7.95325e-23
1.7495e-23
4.9607e-23
1.23316e-23
-7.57245e-23
2.00817e-23
-4.3312e-23
1.55281e-23
6.43956e-23
1.49279e-23
-2.15405e-23
1.10744e-23
1.79026e-22
1.25258e-23
-2.42833e-23
8.1955e-24
2.39026e-23
3.36898e-24
-9.97458e-24
-6.75747e-24
3.36311e-23
1.28746e-25
1.13101e-22
1.27365e-23
1.28073e-22
2.38499e-23
1.23172e-22
2.22517e-23
4.18729e-23
1.45534e-23
-1.30707e-23
-4.44683e-24
7.33197e-24
5.41974e-23
8.5227e-25
-2.78434e-23
-9.20386e-24
4.03988e-24
-3.69853e-23
1.73044e-23
-1.51257e-23
1.42325e-23
-2.5014e-23
1.33206e-23
4.72511e-25
1.99965e-23
-5.29929e-23
1.71458e-23
3.755e-23
1.68486e-23
-5.43502e-23
1.00914e-23
1.48098e-22
1.13588e-23
-1.99984e-23
9.75567e-24
6.48057e-23
3.3445e-24
-6.83955e-24
-4.24298e-24
4.89944e-23
4.36886e-25
1.40274e-22
1.3113e-23
8.44827e-23
2.26103e-23
1.21113e-22
2.03956e-23
4.22749e-23
1.50141e-23
-9.49466e-25
-3.13971e-24
3.47405e-23
5.44741e-23
-3.47541e-25
6.44524e-24
-8.53183e-24
3.24846e-24
3.42288e-23
1.63914e-23
-8.07835e-23
1.5798e-23
-2.00943e-23
1.21553e-23
-1.72324e-24
2.05687e-23
-6.35044e-23
1.63553e-23
1.77059e-23
1.72392e-23
-2.21896e-23
9.44106e-24
1.2754e-22
1.05001e-23
2.02332e-23
8.97263e-24
9.65562e-23
4.38704e-24
6.0455e-24
-1.67965e-24
2.82407e-23
-7.38648e-25
9.36041e-23
1.33863e-23
8.83847e-23
2.16793e-23
8.26258e-23
1.83767e-23
7.74686e-24
1.63459e-23
6.76831e-25
-4.13154e-24
6.30458e-23
9.81352e-23
1.40407e-25
-5.33006e-23
-6.59031e-24
8.22191e-25
1.75767e-23
1.46438e-23
-1.0854e-22
1.68718e-23
2.08457e-23
1.10977e-23
-5.97545e-24
1.94843e-23
-6.49869e-23
1.88184e-23
4.99273e-23
1.89191e-23
-2.39455e-23
1.02652e-23
1.0836e-22
1.08092e-23
-1.93752e-23
8.88291e-24
1.26927e-22
5.4475e-24
1.8845e-23
-1.91432e-25
2.06016e-23
-1.07126e-24
8.07955e-23
1.29073e-23
1.11268e-22
1.96942e-23
7.71191e-23
1.75194e-23
9.23579e-24
1.81216e-23
4.258e-23
-4.48462e-24
5.56152e-23
7.21955e-23
-1.06563e-24
-1.07454e-22
-7.21538e-24
2.95663e-25
8.04023e-23
1.57485e-23
-4.5922e-23
1.64053e-23
3.39243e-23
9.06179e-24
1.95067e-24
2.10927e-23
-3.72271e-23
1.80746e-23
8.55361e-23
1.86147e-23
-2.39018e-23
1.20071e-23
1.23646e-22
9.41112e-24
-2.72869e-23
8.49598e-24
2.05073e-22
3.74142e-24
7.7512e-23
-7.60652e-27
3.86774e-23
1.13083e-24
3.82195e-23
1.02379e-23
5.70173e-23
1.82738e-23
6.5357e-23
1.84365e-23
-3.15717e-23
1.95992e-23
4.52819e-23
-5.4879e-24
6.32944e-23
1.25926e-22
1.64105e-24
-5.01867e-23
-4.31426e-24
-1.87183e-24
3.62765e-23
1.52661e-23
1.30667e-23
1.62112e-23
-2.05052e-24
8.96647e-24
-3.37472e-23
2.26801e-23
-4.3729e-23
1.93303e-23
1.82264e-22
1.7303e-23
-1.00906e-22
1.29525e-23
8.69377e-23
9.9585e-24
-2.60796e-23
8.24826e-24
1.96596e-22
1.1513e-24
-1.31502e-26
2.10325e-24
9.22564e-23
4.318e-25
-5.99208e-24
1.06021e-23
4.93649e-23
1.80786e-23
5.47912e-23
1.9373e-23
-2.06904e-24
2.13957e-23
4.73463e-23
-6.4042e-24
1.47567e-23
9.32153e-25
1.35981e-22
7.40303e-24
-3.43867e-23
5.36542e-24
4.53504e-23
1.16725e-23
5.14096e-23
9.24666e-24
-5.74893e-23
-6.25135e-24
-5.90119e-23
-6.05552e-24
-2.22724e-23
2.04441e-24
4.84221e-23
-5.88645e-24
-3.39057e-23
-3.60952e-24
1.99208e-23
-3.17438e-25
-4.1406e-24
1.09253e-23
-5.76339e-25
-7.03295e-24
-4.71052e-23
-1.23945e-23
4.46749e-23
5.63636e-24
9.11104e-23
2.31629e-23
3.67957e-24
5.47037e-23
-2.43339e-24
-2.5929e-24
-2.04083e-23
1.5473e-23
6.19629e-23
1.53805e-23
-1.73197e-23
9.49435e-24
6.13512e-23
2.45865e-23
3.62853e-23
1.65073e-23
7.93936e-23
1.7477e-23
-5.38133e-23
1.3267e-23
1.25193e-22
1.16065e-23
-4.75357e-23
8.41431e-24
1.81857e-22
2.13945e-25
-7.38206e-23
7.82836e-25
1.02644e-22
3.49025e-25
-1.01373e-23
1.02707e-23
3.49098e-23
1.66429e-23
4.07356e-23
1.96214e-23
5.97766e-23
2.16263e-23
4.78563e-23
-5.36906e-24
-8.70383e-23
-3.14091e-25
1.42726e-22
7.75792e-24
-6.78046e-24
5.33543e-24
1.89044e-23
9.7403e-24
5.52428e-23
9.38317e-24
-1.54746e-23
-5.94948e-24
-5.01085e-23
-4.84064e-24
1.78401e-23
4.84698e-25
4.96887e-23
-5.18638e-24
-6.61808e-23
-4.22548e-24
1.78147e-23
-1.80437e-27
2.07213e-23
1.02021e-23
-1.68769e-24
-4.67556e-24
-6.39018e-23
-1.14807e-23
6.34781e-24
5.51474e-24
8.16716e-23
3.39615e-24
2.90456e-23
-2.00101e-24
4.89364e-23
-1.75106e-23
9.22687e-25
-3.13804e-24
-5.04848e-24
-1.18986e-24
-3.35057e-23
1.31691e-23
1.15241e-22
1.52409e-23
-2.5305e-23
1.09514e-23
6.55319e-23
2.2103e-23
-9.69166e-23
1.50597e-23
1.07974e-23
1.9987e-23
-4.46913e-23
1.27038e-23
5.24357e-23
1.18416e-23
-5.16133e-23
6.47313e-24
1.66785e-22
1.51152e-24
-5.71191e-23
-9.06757e-26
1.55614e-22
4.49957e-25
-1.57561e-23
1.05931e-23
1.46777e-23
1.8169e-23
-1.26371e-23
1.83039e-23
4.74075e-23
1.98881e-23
8.30959e-23
-2.19931e-24
-5.45712e-23
-9.7187e-25
1.51296e-22
7.42308e-24
-4.18541e-23
5.69841e-24
2.49279e-23
8.39222e-24
5.81554e-23
8.65443e-24
-1.5204e-23
-4.62899e-24
-4.56241e-23
-4.87956e-24
-1.06653e-23
-6.67834e-25
4.99416e-23
-4.79586e-24
-7.16997e-23
-3.58288e-24
1.76553e-23
-1.17484e-24
2.50753e-23
9.43691e-24
6.88946e-24
-2.77907e-24
-5.33565e-23
-1.10338e-23
-3.16869e-23
7.05135e-24
1.14451e-22
2.36112e-24
-4.12545e-23
-3.43609e-24
1.78944e-23
-7.28743e-25
-1.59074e-23
4.89937e-23
1.28171e-24
-1.38873e-23
-5.67952e-24
-1.54471e-24
-8.35911e-23
1.20344e-23
1.68266e-22
1.67385e-23
-6.61474e-27
6.75152e-24
1.88123e-24
2.32536e-23
-6.04359e-23
1.4984e-23
-4.96164e-23
2.01703e-23
-1.17847e-23
1.25983e-23
1.60671e-23
1.37006e-23
-5.93188e-23
4.40723e-24
7.65497e-23
3.32439e-24
-4.76188e-23
-1.89384e-24
1.69033e-22
-1.02829e-24
-1.72337e-23
1.09636e-23
7.71358e-23
1.97432e-23
5.5956e-23
1.8624e-23
3.38069e-23
1.86398e-23
8.50737e-23
2.28855e-25
-2.49604e-24
-2.52704e-24
7.77103e-23
7.6879e-24
-2.82344e-23
6.01236e-24
2.17381e-23
7.47806e-24
6.99515e-23
8.38586e-24
-1.53012e-23
-4.24045e-24
-3.79704e-23
-4.78505e-24
-3.25838e-24
-1.80539e-24
4.7761e-23
-4.5457e-24
-1.11895e-22
-2.36878e-24
7.96082e-24
-2.23738e-24
9.0796e-24
8.66949e-24
3.98939e-23
-1.77093e-24
4.78135e-25
-9.37371e-24
-3.05682e-23
4.30276e-24
1.10742e-22
2.98011e-24
-2.91855e-23
-2.13516e-24
1.48771e-23
-1.17249e-24
-2.27974e-23
-1.64493e-24
-1.59092e-24
5.91725e-24
-4.6808e-23
8.54924e-24
1.43205e-24
-2.19671e-23
-4.91198e-24
2.29278e-25
-9.81246e-23
9.62824e-24
1.83913e-22
1.51785e-23
-1.07105e-23
6.20941e-24
2.70348e-23
2.19169e-23
-6.78247e-23
1.68398e-23
-1.09607e-22
2.03744e-23
7.37515e-23
1.35228e-23
1.9577e-24
1.2628e-23
-2.89903e-23
5.0767e-24
7.34465e-23
4.55194e-24
-4.41049e-23
-3.30397e-24
9.5059e-23
7.79874e-25
5.75293e-23
1.00948e-23
1.38052e-22
1.88178e-23
1.15561e-22
1.91141e-23
1.04782e-22
1.80668e-23
4.86176e-23
2.93355e-25
-6.24738e-23
-2.0368e-24
7.77445e-23
8.74334e-24
2.82057e-23
6.22181e-24
2.52475e-23
6.19045e-24
7.4079e-23
8.15647e-24
-1.38616e-23
-4.07444e-24
-2.80211e-23
-4.59906e-24
-6.64108e-24
-3.46734e-24
4.64136e-23
-3.79524e-24
-1.18914e-22
-2.3349e-24
3.84448e-23
-2.3954e-24
1.61458e-23
8.38612e-24
-3.36833e-23
-2.43045e-24
1.19057e-23
-7.20063e-24
-4.5789e-23
2.05894e-24
6.74248e-23
4.50519e-24
-3.60692e-23
-1.48672e-24
-1.4836e-23
-2.6833e-24
-2.81686e-23
-8.84486e-25
3.0899e-23
7.22898e-24
-1.1731e-23
2.61775e-24
-1.73137e-23
-1.62085e-23
-1.06079e-23
-1.486e-23
1.84376e-26
-2.39047e-23
-5.89374e-24
2.52434e-24
-9.24173e-23
8.75888e-24
1.34011e-22
1.42759e-23
-1.77674e-23
5.36913e-24
-3.30443e-23
2.08768e-23
-2.51813e-25
1.9872e-23
-8.27725e-23
1.8106e-23
6.87552e-23
1.31815e-23
-1.8984e-23
1.31689e-23
-2.87329e-23
5.82378e-24
-5.07429e-23
5.77853e-24
-3.39077e-24
-3.71855e-24
1.47655e-22
2.71724e-24
1.82079e-22
8.91606e-24
6.56006e-23
1.83176e-23
5.82712e-23
1.87216e-23
9.34599e-23
1.61564e-23
4.86626e-23
1.6528e-24
4.14101e-24
-1.98295e-24
7.78664e-23
8.60525e-24
8.25966e-23
6.14629e-24
-5.16e-23
5.09496e-24
5.96457e-23
8.10306e-24
-1.7933e-23
-4.14325e-24
-2.10932e-23
-4.6311e-24
3.09119e-23
-5.26329e-24
6.45058e-23
-2.65211e-24
-1.28229e-22
-1.85757e-24
2.39178e-24
-3.02302e-24
2.56315e-23
9.91504e-24
3.4444e-24
-2.28534e-24
2.4636e-23
-6.40233e-24
-3.97216e-23
5.38481e-25
6.11295e-23
4.61426e-24
8.64134e-23
-1.79276e-24
-1.2496e-23
-1.25556e-24
-3.40052e-23
-1.47023e-24
-1.49093e-23
7.32423e-24
1.69683e-23
4.31022e-24
-3.2702e-23
-1.6492e-23
-3.19332e-23
-9.61729e-24
-9.64884e-24
-1.82247e-23
-1.99417e-23
-1.96423e-23
-1.07405e-24
-1.32183e-23
1.13926e-24
-2.19065e-23
-5.08293e-24
3.26878e-24
-1.30794e-22
8.13576e-24
9.99183e-23
1.16974e-23
3.20462e-23
5.14561e-24
-8.22661e-24
2.17565e-23
2.11068e-23
2.18015e-23
-6.48113e-23
1.55667e-23
6.40114e-23
1.33553e-23
6.07505e-23
1.29336e-23
8.04225e-24
7.5865e-24
-4.69683e-23
5.79332e-24
4.83863e-23
-5.60749e-25
1.09209e-22
8.59758e-26
9.70365e-23
9.3841e-24
1.39112e-22
1.74608e-23
4.41115e-23
1.85075e-23
4.16179e-23
1.54266e-23
4.16328e-23
2.51598e-24
5.60896e-23
-1.17727e-24
3.03203e-23
6.65251e-24
8.85657e-23
6.82199e-24
-4.27878e-23
4.68244e-24
5.62739e-23
7.82924e-24
-1.80389e-23
-3.48053e-24
-3.71073e-23
-4.55655e-24
-1.02356e-24
-7.53943e-24
6.53324e-23
-1.89477e-24
-5.79987e-23
-1.08306e-24
9.83087e-24
-3.72289e-24
3.27877e-23
1.05057e-23
1.40129e-23
-2.61151e-24
-3.51238e-23
-5.51735e-24
-3.96964e-23
2.42562e-24
1.08611e-23
2.35176e-24
4.04913e-23
-1.51576e-24
-7.51629e-24
-2.30758e-24
-3.52953e-23
4.97082e-25
1.01398e-22
6.87094e-24
4.17952e-23
4.82242e-24
-1.03141e-23
-1.74555e-23
-4.80839e-23
-8.01769e-24
2.45117e-23
-1.86668e-23
-8.71321e-23
-1.79067e-23
3.88716e-24
-1.9132e-23
-4.416e-23
-2.17421e-23
7.41466e-23
-3.8324e-23
1.76558e-24
-1.74044e-23
-4.36477e-24
3.4024e-24
-9.92043e-23
8.06071e-24
1.03395e-22
1.02634e-23
2.64115e-23
6.12739e-24
6.29557e-24
1.97515e-23
9.54624e-24
2.46609e-23
-1.25958e-23
1.63451e-23
6.4306e-23
1.2394e-23
9.19827e-23
1.14788e-23
4.46045e-23
9.74958e-24
-3.27659e-23
7.10921e-24
5.63151e-23
1.46359e-25
1.02615e-22
-3.06782e-25
8.4255e-23
7.86841e-24
1.2781e-22
1.71024e-23
3.05549e-23
1.73447e-23
3.38443e-23
1.71058e-23
7.54293e-23
1.88905e-24
-2.5703e-23
1.76177e-25
3.68192e-23
5.03697e-24
1.22406e-22
7.06186e-24
-3.77444e-23
4.50071e-24
7.07156e-23
7.50626e-24
-5.43726e-23
-3.31591e-24
-5.51118e-23
-3.80159e-24
-2.17183e-24
-8.62324e-24
3.37973e-23
-2.67835e-24
-6.26457e-23
3.1847e-26
1.13172e-23
-4.22755e-24
1.98132e-23
9.38272e-24
2.00328e-23
-1.91157e-24
-4.32828e-23
-5.29764e-24
-3.66007e-23
3.81145e-24
3.01405e-23
1.78523e-24
4.05685e-23
-1.62832e-24
2.89382e-23
-1.44913e-24
-3.93544e-23
-2.8141e-25
8.31265e-23
7.24353e-24
2.60901e-23
3.22759e-24
-1.23516e-23
-1.6299e-23
-1.554e-22
-9.04797e-24
3.70346e-23
-1.78477e-23
-1.02541e-22
-1.7788e-23
-2.10774e-23
-1.91117e-23
-8.97193e-23
-2.16994e-23
5.32984e-24
-2.13741e-23
-3.82635e-23
-9.32946e-24
8.17183e-23
-2.50765e-23
6.45969e-23
7.08927e-23
1.90479e-24
-7.71401e-24
-3.8623e-24
4.84801e-24
-9.2075e-23
6.91305e-24
9.51712e-23
1.07165e-23
5.67811e-23
3.79588e-24
-6.42714e-23
2.02004e-23
1.49399e-23
2.35938e-23
-3.18413e-23
1.67146e-23
3.05739e-23
1.17315e-23
5.84684e-23
1.03652e-23
1.86573e-23
1.15125e-23
4.06002e-23
6.64526e-24
6.26164e-23
-5.06921e-25
6.41147e-23
1.19533e-24
6.6577e-23
5.50411e-24
1.00645e-22
1.74703e-23
9.54103e-23
1.79197e-23
-1.83515e-23
1.6174e-23
7.50748e-23
3.43279e-24
-5.7059e-23
8.24419e-25
6.76645e-23
3.55468e-24
1.21278e-22
7.7029e-24
5.94716e-24
3.53006e-24
8.08474e-23
7.36672e-24
-2.48741e-23
-2.97791e-24
-4.16271e-23
-3.29475e-24
2.89609e-23
-9.42598e-24
1.87147e-23
-3.05091e-24
-6.56506e-23
1.08207e-24
4.91776e-23
-5.24898e-24
2.67691e-23
8.4194e-24
5.3743e-23
-1.86185e-24
-4.20369e-23
-4.68583e-24
-3.07071e-23
4.32097e-24
1.88896e-23
2.01358e-24
-3.29945e-23
-2.92548e-24
-9.1659e-24
6.52873e-25
-4.46108e-23
1.26024e-25
6.33291e-23
6.81968e-24
1.60631e-23
1.97143e-24
-1.3022e-22
-1.43163e-23
-2.16715e-22
-9.45625e-24
6.84926e-23
-1.60259e-23
-5.14613e-23
-1.80724e-23
2.65099e-23
-1.95052e-23
-1.69965e-22
-1.9475e-23
-5.73297e-23
-2.0995e-23
-6.2296e-23
-9.32889e-24
7.47484e-23
-2.429e-23
1.61043e-23
6.97357e-23
2.08943e-24
3.87839e-23
-3.5023e-24
5.40498e-24
-7.86288e-23
6.13621e-24
2.99977e-23
7.92308e-24
6.37948e-23
3.87169e-24
-6.2642e-23
1.94106e-23
-3.77766e-24
2.41615e-23
-3.12511e-23
1.87762e-23
2.28069e-23
1.04198e-23
5.43343e-23
1.16832e-23
5.17358e-23
1.12322e-23
8.54983e-25
6.94652e-24
9.19504e-23
-2.41952e-25
2.1139e-23
1.73333e-24
2.0699e-23
6.37132e-24
1.40006e-22
1.54317e-23
1.27412e-22
1.93695e-23
1.91878e-23
1.42051e-23
3.63538e-23
5.29967e-24
-2.22054e-23
7.89328e-25
6.21478e-23
3.60029e-24
1.24409e-22
7.06483e-24
4.83331e-23
2.91725e-24
8.53522e-23
6.83803e-24
5.42719e-24
-2.22966e-24
-2.71153e-23
-3.47362e-24
2.10008e-23
-1.01063e-23
-1.30997e-23
-2.47526e-24
-3.62216e-23
1.25934e-24
5.53162e-23
-5.48611e-24
3.96935e-23
7.04361e-24
8.60121e-23
-9.15506e-25
-8.51355e-23
-4.15922e-24
-1.99544e-23
3.94797e-24
-4.03769e-24
1.35266e-24
-4.38496e-23
-2.74281e-24
-4.22035e-23
1.38864e-24
-2.66588e-23
6.10473e-25
4.96587e-23
3.93713e-24
-7.89461e-23
2.09696e-24
-1.19243e-22
-1.21485e-23
-2.30781e-22
-1.00486e-23
3.92302e-23
-1.67978e-23
-3.58098e-23
-1.86439e-23
6.73619e-23
-1.9417e-23
-1.7997e-22
-1.80699e-23
-4.20591e-23
-1.90973e-23
-1.5232e-23
-9.59318e-24
1.02095e-22
-2.29085e-23
-8.14785e-25
-1.72005e-23
1.71678e-24
4.91049e-23
-3.48346e-24
5.32076e-24
-3.19253e-23
5.98771e-24
-2.8527e-24
7.41342e-24
7.66415e-23
2.87631e-24
-5.38122e-23
1.87112e-23
5.78591e-23
2.55826e-23
-3.69561e-23
1.82409e-23
1.95855e-23
9.65464e-24
9.45333e-23
1.18678e-23
5.11457e-23
1.17495e-23
9.18902e-23
7.1812e-24
1.26972e-22
-1.12639e-25
2.19709e-23
2.96735e-24
-9.27747e-24
5.89891e-24
1.73972e-22
1.45423e-23
1.61004e-22
1.8188e-23
3.05081e-23
1.38099e-23
2.97899e-23
7.46406e-24
4.25019e-23
5.09537e-25
2.3198e-23
4.25589e-24
1.1856e-22
6.12702e-24
1.5424e-23
3.18212e-24
8.72073e-23
5.99043e-24
-1.41528e-23
-1.75024e-24
-1.72001e-23
-4.28786e-24
3.57298e-23
-1.01127e-23
-4.97419e-23
-2.30359e-24
-4.12248e-23
1.66772e-24
3.33875e-23
-5.38636e-24
7.59186e-23
4.15375e-24
3.48397e-23
2.44139e-25
-8.99656e-23
-4.35738e-24
-8.58875e-23
4.35185e-24
-2.31788e-23
1.60472e-24
-2.78764e-23
-2.42575e-24
-3.85144e-23
2.16391e-24
-2.95497e-23
-7.58334e-25
3.94719e-23
2.3866e-24
-8.9645e-23
2.86049e-24
-1.27463e-22
-9.24429e-24
-2.12343e-22
-9.24401e-24
-3.80971e-23
-1.56749e-23
-1.56469e-23
-2.14076e-23
4.3347e-23
-1.8173e-23
-5.92643e-23
-1.74673e-23
7.34978e-24
-2.01816e-23
7.58859e-23
-8.71723e-24
1.04259e-22
-2.3007e-23
-6.39989e-23
-4.80024e-23
1.75402e-24
1.02338e-22
-3.44743e-24
3.85905e-24
-2.69426e-23
6.4741e-24
3.82768e-23
5.38273e-24
7.15922e-23
4.95548e-24
-5.43538e-23
1.78629e-23
1.23047e-22
2.6879e-23
-5.57843e-23
1.96553e-23
-1.02532e-23
8.63619e-24
1.02016e-22
1.30551e-23
5.04111e-23
1.19626e-23
5.4907e-23
5.38612e-24
1.26244e-22
-4.79935e-25
4.69815e-23
5.37957e-24
1.16906e-22
5.09483e-24
1.47845e-22
1.32525e-23
1.57606e-22
1.68327e-23
3.4666e-23
1.43713e-23
3.01625e-23
7.81135e-24
3.56164e-23
9.29003e-25
5.21548e-23
4.43795e-24
1.49281e-22
5.56328e-24
-3.36933e-24
2.54145e-24
1.224e-22
5.70633e-24
-1.79471e-23
-9.56882e-25
-5.93772e-24
-5.90113e-24
-4.8143e-23
-9.82631e-24
-4.6404e-23
-2.08924e-24
-4.75814e-23
3.2801e-24
3.17827e-23
-7.19162e-24
9.68616e-24
3.20221e-24
7.08192e-23
-3.03108e-25
-8.7668e-23
-3.17432e-24
-2.97298e-23
5.37991e-24
9.60715e-23
1.06725e-24
-9.69172e-23
-1.63421e-24
-3.5482e-23
2.88888e-24
-3.57328e-23
-1.3124e-24
9.80011e-25
1.48605e-24
-9.6208e-23
3.13788e-24
-6.90867e-23
-7.90917e-24
-1.95143e-22
-8.07415e-24
-8.50631e-23
-1.56709e-23
-7.84838e-23
-2.16091e-23
5.90268e-23
-2.03817e-23
-6.34442e-23
-1.64996e-23
1.16359e-23
-2.07901e-23
4.49669e-23
-9.11835e-24
8.83099e-23
-2.17915e-23
-2.82193e-23
-8.77121e-24
2.7085e-24
2.99644e-23
-4.24459e-24
2.92758e-24
-1.07742e-22
6.81358e-24
3.74112e-23
4.18549e-24
1.17291e-22
6.11351e-24
-5.4598e-23
1.49973e-23
1.54159e-22
2.73749e-23
8.61659e-24
2.15355e-23
-8.59797e-24
7.7627e-24
1.16862e-22
1.32397e-23
8.78408e-23
1.31575e-23
5.58794e-23
5.11789e-24
1.00105e-22
4.25923e-25
8.4752e-23
5.72948e-24
7.62308e-23
5.18991e-24
1.87493e-22
1.13068e-23
2.01998e-22
1.59941e-23
5.53061e-23
1.47458e-23
3.5584e-23
9.03049e-24
7.03537e-23
1.27977e-24
1.50972e-23
3.47355e-24
1.14532e-22
6.45953e-24
3.87116e-23
9.73322e-25
8.43589e-23
5.84748e-24
1.29665e-23
-1.75018e-24
8.03785e-25
-6.00269e-24
-5.30938e-23
-9.97281e-24
-4.32837e-23
-1.12832e-24
7.31521e-23
3.08709e-24
2.86504e-23
-7.19503e-24
3.13961e-23
1.93997e-24
1.40182e-22
-1.33789e-25
-8.65321e-23
-8.91487e-25
1.76925e-24
2.71687e-24
-3.30893e-23
2.52288e-24
-4.96653e-23
-1.94983e-24
-1.55124e-22
2.83316e-24
-5.54191e-23
-1.35707e-24
-4.92064e-23
6.26293e-25
-1.21767e-22
2.37809e-24
-5.21076e-23
-7.21949e-24
-1.76048e-22
-6.44085e-24
-9.94907e-23
-1.48288e-23
-6.4995e-23
-2.06588e-23
-6.2272e-24
-2.06894e-23
-5.82137e-23
-1.59367e-23
1.10858e-23
-2.04899e-23
7.59903e-23
-1.17957e-23
7.2324e-23
-2.13174e-23
2.63855e-23
2.9702e-23
1.17918e-24
-4.74371e-23
-5.33925e-24
3.6005e-24
-1.85566e-22
5.66482e-24
-8.3193e-24
3.37065e-24
8.60571e-23
6.25796e-24
-3.73843e-23
1.44439e-23
1.40784e-22
2.65692e-23
7.44121e-23
2.29574e-23
-1.06849e-23
7.01612e-24
1.15738e-22
1.21527e-23
8.67095e-23
1.23497e-23
8.08662e-23
6.48978e-24
1.78571e-22
-3.79349e-25
9.31555e-23
5.90002e-24
5.64645e-23
5.43601e-24
1.84276e-22
1.06513e-23
1.65316e-22
1.57757e-23
8.67045e-23
1.42227e-23
7.62275e-23
9.89028e-24
1.96716e-22
1.25463e-24
4.46482e-24
3.58127e-24
1.05412e-22
6.32592e-24
1.87803e-24
4.87701e-25
4.93234e-23
5.43679e-24
8.59086e-24
-2.3656e-24
6.84502e-24
-6.37609e-24
-5.01442e-23
-8.24891e-24
-3.74165e-23
-2.11849e-24
7.11337e-23
3.19921e-24
-1.95545e-23
-6.20859e-24
4.48004e-23
-3.70828e-26
1.65164e-22
2.53701e-25
-6.81848e-23
-9.85331e-25
4.73259e-23
1.69324e-24
-4.69565e-23
1.17645e-24
-3.16811e-23
-4.62564e-25
-1.46984e-22
2.87336e-24
-8.78925e-23
-6.34938e-25
-6.06748e-23
1.52884e-24
-1.16903e-22
1.9152e-24
-5.9306e-23
-5.74683e-24
-1.64432e-22
-4.99096e-24
-1.12286e-22
-1.55129e-23
-7.81346e-23
-1.87522e-23
4.11099e-24
-2.04813e-23
-4.97443e-23
-1.41098e-23
3.39503e-23
-2.15001e-23
1.07267e-23
-1.17256e-23
1.37073e-22
-2.15747e-23
4.76019e-23
3.58853e-23
7.37491e-25
-4.09056e-23
-3.30727e-24
3.57385e-24
-1.311e-22
7.11988e-24
-9.4283e-24
2.64658e-24
-3.67014e-23
7.65577e-24
-4.77693e-23
1.27096e-23
1.2969e-22
2.59407e-23
5.45233e-23
2.40731e-23
-1.23063e-23
7.01614e-24
3.58946e-24
1.3937e-23
4.83291e-23
1.29293e-23
1.37186e-24
5.75714e-24
1.91806e-22
1.13806e-26
1.03578e-22
7.49876e-24
3.67972e-23
4.68342e-24
1.47848e-22
1.06252e-23
1.57621e-22
1.4476e-23
1.09355e-23
1.59493e-23
8.19141e-23
8.66775e-24
1.77298e-22
9.82315e-25
-1.10177e-23
4.08804e-24
1.7895e-22
5.89701e-24
-1.33189e-24
2.1902e-25
2.84104e-23
5.1747e-24
7.95486e-24
-2.68108e-24
-2.39728e-23
-6.76058e-24
-4.01546e-23
-6.89275e-24
3.38072e-24
-3.39697e-24
5.92252e-23
3.75004e-24
4.86732e-23
-4.84925e-24
5.61012e-23
-1.97998e-24
1.21806e-22
-4.74466e-26
-6.16739e-23
-1.22346e-24
5.28501e-23
2.08038e-24
-5.52765e-23
-3.94745e-26
-2.3578e-23
-1.15145e-24
-9.91017e-23
3.73868e-24
-9.80438e-23
-9.29476e-25
-7.23599e-23
1.65413e-24
-1.22616e-22
1.48364e-24
-4.76061e-23
-7.44246e-24
-6.26301e-23
-4.08415e-24
-5.3725e-23
-1.47904e-23
-7.04081e-23
-1.77935e-23
7.58189e-24
-1.99163e-23
-4.5777e-23
-1.35122e-23
2.15267e-23
-2.09854e-23
2.49363e-23
-1.33626e-23
1.26687e-22
-2.08665e-23
6.90033e-23
-2.59232e-23
1.47855e-24
-5.58333e-24
-1.02738e-24
3.64136e-24
-1.23676e-22
7.03972e-24
-1.23316e-23
3.42997e-24
-2.32491e-23
8.50141e-24
-1.01327e-22
1.29721e-23
5.09034e-23
2.60897e-23
2.98305e-23
2.33159e-23
-1.87948e-23
7.22519e-24
3.79778e-23
1.40653e-23
7.64351e-23
1.42393e-23
2.94557e-23
4.43095e-24
1.28987e-22
-6.22287e-26
1.14549e-22
7.71499e-24
1.07395e-22
4.88797e-24
1.46528e-22
9.33496e-24
1.15285e-22
1.5108e-23
5.89192e-23
1.67536e-23
8.53729e-23
7.76587e-24
1.86798e-22
1.78507e-24
6.05399e-23
3.04113e-24
1.66851e-22
5.29823e-24
3.43349e-24
2.71164e-25
2.93838e-23
4.56817e-24
-2.68153e-23
-2.33505e-24
-4.48174e-23
-6.55051e-24
-6.52945e-23
-6.98884e-24
5.02047e-23
-3.17019e-24
9.22627e-23
3.43332e-24
3.20988e-23
-4.36922e-24
2.99473e-23
-3.18104e-24
8.68395e-23
-1.01749e-25
-6.61073e-23
-8.35115e-25
3.19092e-23
1.2436e-24
-7.77833e-23
1.05437e-25
6.83314e-23
-1.9576e-24
-9.48007e-23
4.8103e-24
-6.65011e-23
-1.51512e-24
-7.09217e-23
2.37037e-24
-6.67365e-23
2.80483e-24
-6.96295e-23
-7.23389e-24
-1.18542e-22
-4.32398e-24
3.8796e-25
-1.36868e-23
-4.25678e-23
-1.8918e-23
1.38885e-23
-1.99257e-23
4.5778e-23
-1.27825e-23
8.03781e-23
-2.05937e-23
2.75302e-23
-1.42072e-23
1.13302e-22
-2.17242e-23
8.42183e-23
-5.66938e-23
1.70083e-25
1.59893e-24
-7.83215e-25
4.29771e-24
-3.69633e-23
6.01506e-24
-8.14023e-24
3.70156e-24
-2.92461e-23
8.63657e-24
-1.12718e-22
1.21451e-23
1.26966e-22
2.59899e-23
8.51386e-23
2.28518e-23
-2.91821e-23
7.3201e-24
-2.00635e-23
1.48786e-23
7.05886e-23
1.54755e-23
6.51491e-24
4.86884e-24
5.69089e-23
-9.78157e-26
1.62128e-22
7.41309e-24
1.34762e-22
4.47326e-24
1.50979e-22
8.81401e-24
1.90397e-22
1.51694e-23
6.01502e-23
1.80156e-23
7.70864e-23
7.81049e-24
1.5773e-22
1.2959e-24
5.46978e-23
2.05788e-24
1.28121e-22
4.93875e-24
-2.4753e-24
-4.38312e-25
1.53806e-24
4.41868e-24
-2.79205e-23
-2.36085e-24
-4.06513e-23
-5.41534e-24
-5.39161e-23
-7.1027e-24
2.05715e-23
-3.24963e-24
7.84182e-23
3.15733e-24
8.61204e-23
-4.17279e-24
2.95315e-23
-3.91436e-24
9.21115e-23
-9.73792e-25
-3.28962e-23
-1.09834e-24
2.78721e-23
2.66158e-24
-1.51636e-22
-1.1299e-24
3.82562e-23
-2.37504e-24
-9.07211e-23
5.23194e-24
-5.48264e-23
-9.46986e-25
-1.00038e-22
1.67961e-24
-6.26757e-23
2.42082e-24
-8.81071e-23
-5.65946e-24
-1.17299e-22
-3.8196e-24
-3.01975e-23
-1.32511e-23
-2.88019e-23
-1.7059e-23
1.24256e-23
-2.03536e-23
2.20876e-23
-1.28065e-23
6.06241e-23
-2.01141e-23
1.74055e-23
-1.42406e-23
9.90495e-23
-2.19323e-23
1.39966e-23
-4.64516e-23
-7.24957e-25
3.29271e-24
-2.204e-24
4.35667e-24
7.82367e-23
4.52529e-24
-2.77521e-25
4.22277e-24
-1.83496e-24
1.04523e-23
-1.23012e-22
1.20975e-23
1.59431e-22
2.54297e-23
6.73033e-23
2.29069e-23
-4.34e-23
8.30694e-24
-3.60619e-23
1.46001e-23
3.33761e-23
1.61945e-23
8.76883e-24
6.48813e-24
-2.05276e-24
-6.45318e-25
1.75787e-22
6.48583e-24
1.48637e-22
4.92554e-24
1.4792e-22
7.69042e-24
1.44576e-22
1.45533e-23
1.93437e-23
1.87586e-23
1.57321e-22
8.16534e-24
1.31597e-22
7.78968e-25
1.358e-23
1.8425e-24
1.184e-22
4.45849e-24
2.76322e-23
-8.57758e-25
7.39495e-24
4.2096e-24
-3.30977e-23
-2.21781e-24
-4.12207e-23
-4.65196e-24
-2.24901e-24
-6.93465e-24
3.62528e-23
-2.82434e-24
7.20897e-23
1.9168e-24
6.58331e-23
-4.33851e-24
-1.20616e-23
-4.1474e-24
7.70381e-23
-1.83363e-24
-4.43027e-23
-1.83849e-24
1.69224e-23
4.58852e-24
-1.09287e-22
-1.62764e-24
-3.42405e-23
-2.7506e-24
-8.69836e-23
5.13951e-24
-5.17124e-23
2.93329e-25
-1.20725e-22
3.22312e-25
-1.38973e-22
3.21724e-24
-3.57775e-23
-4.72617e-24
-1.4152e-22
-4.39298e-24
-4.62298e-23
-1.22668e-23
-4.96458e-23
-1.61973e-23
1.22798e-23
-2.1295e-23
-4.76586e-23
-1.38364e-23
6.57153e-23
-1.85297e-23
-3.15058e-24
-1.47376e-23
9.42087e-23
-2.26068e-23
-7.23076e-23
-4.30089e-23
-2.36671e-25
-7.87783e-23
-2.9316e-24
3.25312e-24
7.22952e-23
4.29638e-24
9.02662e-24
4.09337e-24
3.20768e-23
1.05458e-23
-8.92139e-23
1.21825e-23
1.62135e-22
2.44014e-23
5.96554e-23
2.26095e-23
2.56852e-23
7.88216e-24
-6.80656e-24
1.4409e-23
2.85657e-23
1.67195e-23
4.12219e-23
7.30564e-24
-1.91352e-23
-3.35275e-25
1.56286e-22
5.87661e-24
9.70869e-23
4.845e-24
1.40863e-22
6.52894e-24
1.35139e-22
1.52e-23
2.47114e-23
1.87669e-23
1.90592e-22
7.68584e-24
1.10045e-22
4.77083e-25
4.87408e-23
1.60531e-24
1.11163e-22
3.86241e-24
3.07832e-23
-1.234e-24
2.67595e-23
4.12709e-24
3.60541e-23
-1.65551e-24
-3.37581e-23
-4.33702e-24
1.49821e-23
-7.26764e-24
5.3613e-23
-2.06789e-24
9.35346e-23
6.46703e-25
3.79202e-23
-4.29264e-24
-1.86266e-23
-4.55123e-24
7.52204e-23
-2.17804e-24
-5.42826e-23
-1.99774e-24
1.15538e-23
5.33713e-24
-9.7422e-23
-2.09957e-24
-1.54815e-22
-2.50199e-24
-8.26027e-23
4.92066e-24
-4.96286e-23
-5.49453e-25
-1.29002e-22
2.79612e-24
-1.22071e-22
2.39095e-24
-8.68963e-23
-3.11011e-24
-1.25617e-22
-4.40295e-24
-3.9675e-23
-1.13794e-23
-7.76829e-23
-1.57582e-23
-6.70082e-23
-2.02748e-23
-7.6905e-23
-1.296e-23
1.1496e-22
-1.82377e-23
-2.68683e-23
-1.64548e-23
8.83272e-23
-2.2071e-23
-4.83917e-23
-2.75142e-23
2.38205e-25
-7.98425e-23
-2.28804e-24
2.78699e-24
6.99727e-23
1.86873e-24
1.82037e-23
4.5911e-24
3.07951e-23
1.1793e-23
-9.46274e-23
1.17754e-23
1.99844e-22
2.3504e-23
1.04612e-22
2.23751e-23
3.6706e-23
7.96626e-24
-2.41027e-23
1.51891e-23
2.32986e-23
1.66205e-23
4.01347e-23
8.33079e-24
-3.4017e-24
-5.73191e-25
1.38309e-22
5.44636e-24
4.84215e-23
4.85399e-24
1.34095e-22
6.07423e-24
1.24292e-22
1.6084e-23
5.6435e-23
1.84725e-23
1.82883e-22
7.88186e-24
1.23127e-22
-6.38696e-26
1.69986e-23
1.61033e-24
9.9658e-23
3.71152e-24
7.32132e-23
-1.07252e-24
-4.87753e-24
3.26101e-24
5.18505e-23
-1.05674e-24
1.14731e-24
-3.99612e-24
6.28422e-23
-7.17585e-24
7.58111e-23
-2.60979e-24
8.52235e-23
-4.13067e-26
2.82625e-23
-4.40893e-24
-5.0938e-23
-4.8049e-24
6.55217e-23
-3.38018e-24
-7.99574e-23
-1.72021e-24
4.43062e-23
3.53712e-24
-1.00666e-22
-4.67262e-25
-1.09315e-22
-2.34817e-24
-7.46028e-23
4.62992e-24
1.0129e-23
-1.05964e-24
-7.93957e-23
3.79406e-24
-6.56092e-23
2.56416e-24
-9.64235e-23
-2.16486e-24
-1.12532e-22
-4.71242e-24
-6.73451e-23
-1.04219e-23
-7.1106e-23
-1.66028e-23
-4.4544e-23
-1.81696e-23
-9.02183e-23
-1.38395e-23
1.0783e-22
-1.75273e-23
-1.39368e-23
-1.73021e-23
8.37434e-23
-2.11266e-23
-3.96673e-23
-2.88799e-23
1.88768e-24
-9.73727e-23
-1.37785e-24
2.38706e-24
5.2629e-23
2.19696e-25
-3.46254e-23
5.02192e-24
2.17804e-23
1.26288e-23
-9.90124e-23
1.09083e-23
1.36932e-22
2.30308e-23
1.78849e-22
2.14557e-23
2.56726e-23
8.92443e-24
-9.84419e-24
1.5079e-23
1.76149e-23
1.74234e-23
4.85676e-23
8.83436e-24
-2.36972e-23
-1.18724e-24
1.3938e-22
6.13141e-24
4.10627e-23
4.54526e-24
1.26067e-22
5.94039e-24
1.18425e-22
1.6081e-23
1.18269e-22
1.8146e-23
1.36994e-22
7.18324e-24
1.43452e-22
-2.93739e-25
-1.6316e-23
2.03276e-24
1.26528e-22
2.58122e-24
8.35361e-23
-2.0514e-25
7.18274e-24
2.47986e-24
5.25843e-23
-4.21988e-25
6.23709e-24
-3.77611e-24
9.37648e-23
-7.59059e-24
9.3856e-23
-3.2947e-24
4.62457e-23