/*--------------------------------*- C++ -*----------------------------------*\
  =========                 |
  \\      /  F ield         | OpenFOAM: The Open Source CFD Toolbox
   \\    /   O peration     | Website:  https://openfoam.org
    \\  /    A nd           | Version:  7
     \\/     M anipulation  |
\*---------------------------------------------------------------------------*/
FoamFile
{
    version     2.0;
    format      ascii;
    class       volScalarField;
    location    "132000";
    object      strainRate;
}
// * * * * * * * * * * * * * * * * * * * * * * * * * * * * * * * * * * * * * //

dimensions      [0 0 -1 0 0 0 0];

internalField   nonuniform List<scalar> 
4825
(
0.0330129
0.0326856
0.0337274
0.0333881
0.0330993
0.0328248
0.0325632
0.0344628
0.0341177
0.0338182
0.0335336
0.0332622
0.0352194
0.034871
0.0345636
0.0342701
0.0339893
0.0359974
0.035646
0.0353319
0.0350311
0.0347428
0.0367973
0.0364421
0.036122
0.0358147
0.0355198
0.0376198
0.0372599
0.0369339
0.0366203
0.0363192
0.0384658
0.0381002
0.0377682
0.0374482
0.0371409
0.0393362
0.0389643
0.0386258
0.0382993
0.0379856
0.0402322
0.0398534
0.039508
0.0391747
0.0388544
0.0411551
0.0407687
0.040416
0.0400755
0.0397483
0.0421061
0.0417117
0.0413512
0.0410032
0.0406688
0.0430867
0.0426839
0.0423151
0.0419593
0.0416173
0.0440983
0.0436867
0.0433092
0.0429451
0.0451427
0.0447217
0.0443352
0.0439623
0.0462213
0.0457905
0.0453945
0.0450126
0.0473359
0.046895
0.0464891
0.0484885
0.048037
0.0476206
0.049681
0.0492184
0.0509154
0.0504412
0.052194
0.0517077
0.0535191
0.0530201
0.0548931
0.054381
0.0563187
0.0244338
0.0241921
0.023989
0.0237925
0.0236032
0.0234215
0.0232476
0.0230819
0.0229246
0.0227758
0.0226357
0.0225046
0.0223824
0.0222692
0.0221653
0.0220706
0.0219852
0.0219091
0.0218425
0.0217853
0.0249123
0.0246675
0.0244607
0.0242606
0.0240678
0.0238828
0.0237058
0.0235371
0.0233769
0.0232255
0.023083
0.0229495
0.0228252
0.0227101
0.0226043
0.0225079
0.0224211
0.0223437
0.0222759
0.0222178
0.0254018
0.0251537
0.0249432
0.0247394
0.0245431
0.0243546
0.0241744
0.0240026
0.0238396
0.0236854
0.0235404
0.0234045
0.0232779
0.0231608
0.0230532
0.0229551
0.0228667
0.022788
0.0227191
0.0226599
0.0259027
0.0256514
0.0254369
0.0252294
0.0250294
0.0248374
0.0246538
0.0244789
0.0243129
0.0241559
0.0240082
0.0238699
0.023741
0.0236218
0.0235122
0.0234125
0.0233225
0.0232424
0.0231722
0.023112
0.0264155
0.0261608
0.0259423
0.0257308
0.025527
0.0253315
0.0251444
0.0249663
0.0247972
0.0246373
0.0244869
0.024346
0.0242149
0.0240935
0.0239819
0.0238803
0.0237888
0.0237072
0.0236358
0.0235745
0.0269406
0.0266824
0.0264598
0.0262442
0.0260365
0.0258372
0.0256467
0.0254652
0.0252929
0.0251301
0.0249769
0.0248334
0.0246998
0.0245762
0.0244626
0.0243592
0.0242659
0.0241829
0.0241102
0.0240478
0.0274784
0.0272167
0.0269898
0.02677
0.0265583
0.0263552
0.026161
0.025976
0.0258004
0.0256346
0.0254785
0.0253323
0.0251963
0.0250704
0.0249547
0.0248493
0.0247544
0.0246698
0.0245958
0.0245322
0.0280294
0.0277641
0.0275328
0.0273087
0.0270928
0.0268857
0.0266877
0.0264992
0.0263203
0.0261513
0.0259922
0.0258433
0.0257047
0.0255764
0.0254586
0.0253512
0.0252545
0.0251684
0.025093
0.0250283
0.0249743
0.0249311
0.0248987
0.0248771
0.0248663
0.0248663
0.0248771
0.0248987
0.0249311
0.0249743
0.0250283
0.025093
0.0251684
0.0252545
0.0253512
0.028594
0.0283251
0.0280892
0.0278606
0.0276405
0.0274293
0.0272275
0.0270353
0.0268529
0.0266806
0.0265185
0.0263668
0.0262255
0.0260948
0.0259747
0.0258654
0.0257668
0.0256791
0.0256023
0.0255363
0.0254814
0.0254373
0.0254043
0.0253823
0.0253713
0.0253713
0.0253823
0.0254043
0.0254373
0.0254814
0.0255363
0.0256023
0.0256791
0.0257668
0.0258654
0.0259747
0.0260948
0.0291727
0.0289004
0.0286596
0.0284264
0.0282019
0.0279865
0.0277807
0.0275847
0.0273988
0.0272231
0.0270579
0.0269032
0.0267592
0.026626
0.0265036
0.0263922
0.0262917
0.0262024
0.0261241
0.0260569
0.0260009
0.025956
0.0259224
0.0258999
0.0258887
0.0258887
0.0258999
0.0259224
0.025956
0.0260009
0.0260569
0.0261241
0.0262023
0.0262917
0.0263922
0.0265036
0.026626
0.0267592
0.0297662
0.0294903
0.0292446
0.0290066
0.0287774
0.0285578
0.0283478
0.0281479
0.0279583
0.0277792
0.0276108
0.0274531
0.0273063
0.0271705
0.0270457
0.0269321
0.0268297
0.0267386
0.0266588
0.0265904
0.0265333
0.0264876
0.0264533
0.0264304
0.026419
0.026419
0.0264304
0.0264533
0.0264876
0.0265333
0.0265904
0.0266588
0.0267386
0.0268297
0.0269321
0.0270457
0.0271705
0.0273063
0.0274531
0.0276108
0.0303749
0.0300956
0.0298446
0.0296016
0.0293678
0.0291436
0.0289294
0.0287256
0.0285322
0.0283495
0.0281777
0.0280169
0.0278672
0.0277287
0.0276015
0.0274857
0.0273813
0.0272885
0.0272071
0.0271373
0.0270791
0.0270325
0.0269976
0.0269743
0.0269626
0.0269626
0.0269743
0.0269976
0.0270325
0.0270791
0.0271373
0.0272071
0.0272885
0.0273813
0.0274857
0.0276015
0.0277287
0.0278672
0.0280169
0.0281777
0.0283495
0.0285322
0.0310011
0.0307168
0.0304603
0.0302121
0.0299734
0.0297447
0.0295261
0.0293182
0.0291209
0.0289345
0.0287593
0.0285952
0.0284426
0.0283013
0.0281716
0.0280535
0.0279471
0.0278524
0.0277694
0.0276982
0.0276389
0.0275914
0.0275558
0.027532
0.0275201
0.0275201
0.027532
0.0275558
0.0275914
0.0276389
0.0276982
0.0277694
0.0278524
0.0279471
0.0280535
0.0281716
0.0283013
0.0284425
0.0285952
0.0287593
0.0289345
0.0291209
0.0293182
0.0295261
0.0297447
0.0316487
0.0313546
0.0310921
0.0308387
0.030595
0.0303616
0.0301385
0.0299263
0.0297249
0.0295348
0.029356
0.0291886
0.0290329
0.0288888
0.0287565
0.028636
0.0285275
0.0284309
0.0283463
0.0282737
0.0282132
0.0281647
0.0281284
0.0281041
0.028092
0.028092
0.0281041
0.0281284
0.0281647
0.0282132
0.0282737
0.0283463
0.0284309
0.0285275
0.028636
0.0287565
0.0288888
0.0290329
0.0291886
0.029356
0.0295348
0.0297249
0.0299263
0.0301385
0.0303616
0.030595
0.0308387
0.0323197
0.0320097
0.031741
0.0314821
0.0312332
0.0309948
0.0307671
0.0305505
0.030345
0.0301509
0.0299685
0.0297977
0.0296388
0.0294918
0.0293568
0.0292339
0.0291231
0.0290246
0.0289383
0.0288642
0.0288025
0.0287531
0.028716
0.0286913
0.0286789
0.0286789
0.0286913
0.028716
0.0287531
0.0288025
0.0288642
0.0289383
0.0290246
0.0291231
0.0292339
0.0293568
0.0294918
0.0296388
0.0297977
0.0299685
0.0301509
0.030345
0.0305505
0.0307671
0.0309948
0.0312332
0.031482
0.031741
0.0320097
0.0323197
0.0330129
0.0326856
0.0324084
0.0321428
0.0318886
0.0316452
0.0314126
0.0311915
0.0309817
0.0307836
0.0305974
0.0304231
0.0302609
0.0301109
0.0299731
0.0298477
0.0297346
0.0296341
0.0295461
0.0294705
0.0294075
0.0293571
0.0293192
0.029294
0.0292814
0.0292814
0.029294
0.0293192
0.0293571
0.0294075
0.0294705
0.0295461
0.0296341
0.0297346
0.0298477
0.0299731
0.0301109
0.0302609
0.0304231
0.0305974
0.0307836
0.0309817
0.0311915
0.0314126
0.0316452
0.0318886
0.0321428
0.0324084
0.0326856
0.0330129
0.0337274
0.0333881
0.0330993
0.0328248
0.0325632
0.0323134
0.0320758
0.0318499
0.0316357
0.0314334
0.0312434
0.0310654
0.0308998
0.0307467
0.0306061
0.030478
0.0303627
0.03026
0.0301702
0.0300931
0.0300288
0.0299773
0.0299387
0.029913
0.0299001
0.0299001
0.029913
0.0299387
0.0299773
0.0300288
0.0300931
0.0301702
0.03026
0.0303627
0.030478
0.0306061
0.0307467
0.0308998
0.0310654
0.0312434
0.0314334
0.0316357
0.0318499
0.0320758
0.0323134
0.0325632
0.0328248
0.0330993
0.0333881
0.0337274
0.0344628
0.0341177
0.0338182
0.0335336
0.0332622
0.0330035
0.0327591
0.0325269
0.0323078
0.0321012
0.0319071
0.0317253
0.0315562
0.0314
0.0312563
0.0311256
0.0310078
0.0309031
0.0308114
0.0307326
0.030667
0.0306145
0.030575
0.0305488
0.0305356
0.0305356
0.0305488
0.0305751
0.0306145
0.030667
0.0307326
0.0308114
0.0309031
0.0310078
0.0311256
0.0312563
0.0314
0.0315562
0.0317253
0.0319071
0.0321012
0.0323078
0.0325269
0.032759
0.0330035
0.0332622
0.0335336
0.0338182
0.0341177
0.0344628
0.0352194
0.034871
0.0345636
0.0342701
0.0339893
0.0337215
0.0334677
0.0332269
0.0330012
0.0327887
0.0325894
0.0324037
0.032231
0.0320713
0.0319247
0.0317912
0.0316709
0.0315639
0.0314703
0.0313899
0.0313228
0.0312692
0.031229
0.0312022
0.0311887
0.0311887
0.0312022
0.031229
0.0312692
0.0313228
0.0313899
0.0314703
0.0315639
0.0316709
0.0317912
0.0319247
0.0320713
0.032231
0.0324037
0.0325894
0.0327887
0.0330012
0.0332269
0.0334677
0.0337215
0.0339893
0.0342701
0.0345636
0.034871
0.0352194
0.0359974
0.035646
0.0353319
0.0350312
0.0347428
0.0344673
0.0342048
0.0339557
0.0337215
0.033501
0.0332947
0.0331036
0.032926
0.0327619
0.0326119
0.0324755
0.0323526
0.0322433
0.0321477
0.0320655
0.0319971
0.0319423
0.0319012
0.0318738
0.0318601
0.0318601
0.0318738
0.0319012
0.0319423
0.0319971
0.0320655
0.0321477
0.0322433
0.0323526
0.0324755
0.0326119
0.0327619
0.032926
0.0331036
0.0332947
0.033501
0.0337214
0.0339557
0.0342048
0.0344673
0.0347428
0.0350311
0.0353319
0.035646
0.0359974
0.0367973
0.0364421
0.0361221
0.0358147
0.0355198
0.0352377
0.0349683
0.0347125
0.0344704
0.0342424
0.0340289
0.0338305
0.0336463
0.0334763
0.0333218
0.0331815
0.0330551
0.0329428
0.0328445
0.0327605
0.0326906
0.0326346
0.0325926
0.0325646
0.0325506
0.0325506
0.0325646
0.0325926
0.0326346
0.0326906
0.0327605
0.0328445
0.0329428
0.0330551
0.0331815
0.0333217
0.0334763
0.0336463
0.0338305
0.0340288
0.0342424
0.0344704
0.0347125
0.0349683
0.0352377
0.0355198
0.0358147
0.036122
0.0364421
0.0367973
0.0376198
0.0372599
0.0369339
0.0366203
0.0363192
0.0360309
0.0357554
0.0354937
0.0352455
0.0350114
0.0347918
0.0345867
0.0343962
0.0342204
0.0340601
0.0339146
0.0337836
0.0336672
0.0335654
0.033479
0.033407
0.0333495
0.0333063
0.0332776
0.0332632
0.0332632
0.0332776
0.0333063
0.0333495
0.033407
0.033479
0.0335653
0.0336672
0.0337836
0.0339146
0.0340601
0.0342204
0.0343962
0.0345867
0.0347918
0.0350114
0.0352454
0.0354937
0.0357554
0.0360309
0.0363192
0.0366203
0.0369339
0.0372599
0.0376198
0.0384658
0.0381002
0.0377682
0.0374482
0.0371409
0.0368466
0.0365654
0.036298
0.0360443
0.0358049
0.0355801
0.0353697
0.0351742
0.0349937
0.0348281
0.0346776
0.0345422
0.0344218
0.0343166
0.034227
0.0341524
0.0340927
0.034048
0.0340182
0.0340032
0.0340032
0.0340182
0.034048
0.0340927
0.0341524
0.034227
0.0343166
0.0344218
0.0345422
0.0346776
0.0348281
0.0349937
0.0351742
0.0353697
0.0355801
0.0358049
0.0360443
0.036298
0.0365654
0.0368466
0.0371409
0.0374482
0.0377682
0.0381002
0.0384658
0.0393362
0.0389643
0.0386258
0.0382993
0.0379856
0.0376852
0.0373982
0.0371253
0.0368663
0.0366219
0.0363922
0.0361771
0.0359771
0.0357924
0.0356226
0.0354682
0.0353292
0.0352056
0.0350976
0.035005
0.0349278
0.0348662
0.0348199
0.0347891
0.0347737
0.0347737
0.0347891
0.0348199
0.0348662
0.0349278
0.0350049
0.0350976
0.0352056
0.0353292
0.0354682
0.0356226
0.0357924
0.0359771
0.0361771
0.0363922
0.0366219
0.0368663
0.0371253
0.0373982
0.0376852
0.0379856
0.0382993
0.0386258
0.0389643
0.0393362
0.0402322
0.0398534
0.039508
0.0391746
0.0388544
0.0385476
0.0382547
0.037976
0.0377117
0.0374623
0.0372278
0.0370082
0.036804
0.0366152
0.0364417
0.0362838
0.0361416
0.0360152
0.0359046
0.0358096
0.0357305
0.0356672
0.0356198
0.0355881
0.0355723
0.0355723
0.0355881
0.0356197
0.0356672
0.0357305
0.0358096
0.0359046
0.0360152
0.0361416
0.0362838
0.0364417
0.0366152
0.036804
0.0370082
0.0372278
0.0374623
0.0377117
0.037976
0.0382547
0.0385476
0.0388544
0.0391746
0.039508
0.0398534
0.0402322
0.0411551
0.0407687
0.040416
0.0400755
0.0397483
0.039435
0.0391358
0.0388513
0.0385815
0.0383268
0.0380875
0.0378633
0.0376549
0.0374622
0.037285
0.0371237
0.0369785
0.0368494
0.0367364
0.0366393
0.0365583
0.0364936
0.036445
0.0364127
0.0363965
0.0363965
0.0364127
0.036445
0.0364936
0.0365583
0.0366393
0.0367364
0.0368494
0.0369785
0.0371237
0.037285
0.0374622
0.0376549
0.0378633
0.0380875
0.0383268
0.0385815
0.0388513
0.0391358
0.039435
0.0397483
0.0400755
0.040416
0.0407687
0.0411551
0.0421061
0.0417117
0.0413512
0.0410032
0.0406688
0.0403486
0.0400429
0.0397523
0.0394767
0.0392167
0.0389722
0.0387434
0.0385306
0.0383338
0.0381529
0.0379883
0.03784
0.0377082
0.0375927
0.0374936
0.0374109
0.0373448
0.0372952
0.0372621
0.0372456
0.0372456
0.0372621
0.0372952
0.0373448
0.0374109
0.0374936
0.0375927
0.0377082
0.03784
0.0379883
0.0381529
0.0383338
0.0385306
0.0387434
0.0389722
0.0392167
0.0394767
0.0397523
0.0400429
0.0403486
0.0406688
0.0410032
0.0413512
0.0417117
0.0421061
0.0430867
0.0426839
0.0423151
0.0419592
0.0416173
0.0412898
0.0409774
0.0406803
0.0403987
0.040133
0.0398832
0.0396496
0.0394322
0.0392311
0.0390465
0.0388783
0.0387269
0.0385923
0.0384744
0.0383731
0.0382887
0.0382212
0.0381705
0.0381367
0.0381198
0.0381198
0.0381367
0.0381705
0.0382212
0.0382887
0.0383731
0.0384744
0.0385923
0.0387269
0.0388783
0.0390465
0.0392311
0.0394321
0.0396496
0.0398832
0.040133
0.0403987
0.0406803
0.0409774
0.0412898
0.0416173
0.0419592
0.0423151
0.0426839
0.0430867
0.0440983
0.0436867
0.0433092
0.0429451
0.0425952
0.0422602
0.0419406
0.0416368
0.0413489
0.0410772
0.0408219
0.0405831
0.040361
0.0401555
0.0399669
0.0397951
0.0396404
0.0395028
0.0393824
0.039279
0.0391927
0.0391237
0.039072
0.0390375
0.0390202
0.0390202
0.0390375
0.039072
0.0391237
0.0391927
0.0392789
0.0393824
0.0395028
0.0396404
0.0397951
0.0399668
0.0401555
0.040361
0.0405831
0.0408219
0.0410772
0.0413489
0.0416368
0.0419406
0.0422602
0.0425952
0.0429451
0.0433092
0.0436867
0.0440983
0.0451426
0.0447217
0.0443351
0.0439623
0.0436041
0.0432613
0.0429342
0.0426233
0.0423288
0.0420509
0.0417898
0.0415456
0.0413184
0.0411084
0.0409155
0.04074
0.0405818
0.0404412
0.040318
0.0402124
0.0401243
0.0400538
0.0400009
0.0399656
0.039948
0.039948
0.0399656
0.0400009
0.0400538
0.0401243
0.0402124
0.040318
0.0404412
0.0405818
0.04074
0.0409155
0.0411084
0.0413184
0.0415456
0.0417898
0.0420509
0.0423288
0.0426233
0.0429342
0.0432613
0.0436041
0.0439623
0.0443351
0.0447217
0.0451426
0.0462213
0.0457905
0.0453945
0.0450126
0.0446457
0.0442946
0.0439598
0.0436415
0.0433401
0.0430557
0.0427885
0.0425386
0.0423062
0.0420913
0.041894
0.0417144
0.0415527
0.0414089
0.0412829
0.0411749
0.0410848
0.0410127
0.0409586
0.0409226
0.0409045
0.0409045
0.0409226
0.0409586
0.0410127
0.0410848
0.0411749
0.0412829
0.0414089
0.0415527
0.0417144
0.041894
0.0420913
0.0423062
0.0425386
0.0427885
0.0430557
0.04334
0.0436415
0.0439598
0.0442946
0.0446457
0.0450126
0.0453945
0.0457905
0.0462213
0.0473359
0.046895
0.0464891
0.0460977
0.0457218
0.045362
0.045019
0.044693
0.0443843
0.0440931
0.0438196
0.0435638
0.0433258
0.0431059
0.0429039
0.0427202
0.0425547
0.0424074
0.0422786
0.042168
0.0420758
0.0420021
0.0419468
0.0419099
0.0418914
0.0418914
0.0419099
0.0419468
0.0420021
0.0420758
0.042168
0.0422786
0.0424074
0.0425547
0.0427202
0.0429039
0.0431059
0.0433258
0.0435638
0.0438196
0.0440931
0.0443843
0.044693
0.045019
0.045362
0.0457218
0.0460977
0.0464891
0.046895
0.0473359
0.0484885
0.048037
0.0476206
0.0472193
0.046834
0.0464653
0.0461137
0.0457797
0.0454634
0.0451651
0.0448848
0.0446228
0.0443791
0.0441539
0.0439471
0.0437589
0.0435894
0.0434387
0.0433067
0.0431935
0.0430992
0.0430237
0.0429671
0.0429293
0.0429104
0.0429104
0.0429293
0.0429671
0.0430237
0.0430992
0.0431935
0.0433067
0.0434387
0.0435894
0.0437589
0.0439471
0.0441538
0.0443791
0.0446228
0.0448848
0.0451651
0.0454634
0.0457797
0.0461137
0.0464653
0.046834
0.0472193
0.0476207
0.048037
0.0484885
0.049681
0.0492184
0.0487912
0.0483795
0.0479843
0.0476062
0.0472458
0.0469033
0.0465791
0.0462733
0.0459861
0.0457176
0.0454679
0.0452371
0.0450252
0.0448324
0.0446588
0.0445043
0.0443692
0.0442532
0.0441566
0.0440793
0.0440213
0.0439826
0.0439633
0.0439633
0.0439826
0.0440213
0.0440793
0.0441566
0.0442532
0.0443692
0.0445043
0.0446588
0.0448324
0.0450252
0.0452371
0.0454679
0.0457176
0.0459861
0.0462733
0.0465791
0.0469033
0.0472458
0.0476062
0.0479843
0.0483795
0.0487912
0.0492184
0.049681
0.0509154
0.0504412
0.0500027
0.0495803
0.0491747
0.0487869
0.0484171
0.0480659
0.0477334
0.0474199
0.0471254
0.0468501
0.0465941
0.0463574
0.0461403
0.0459426
0.0457646
0.0456064
0.0454678
0.045349
0.0452499
0.0451707
0.0451113
0.0450716
0.0450518
0.0450518
0.0450716
0.0451113
0.0451707
0.0452499
0.045349
0.0454678
0.0456064
0.0457646
0.0459426
0.0461403
0.0463574
0.0465941
0.0468501
0.0471254
0.0474199
0.0477334
0.0480659
0.0484171
0.0487869
0.0491748
0.0495803
0.0500027
0.0504412
0.0509154
0.052194
0.0517077
0.0512574
0.0508237
0.0504075
0.0500094
0.04963
0.0492696
0.0489285
0.0486068
0.0483047
0.0480223
0.0477597
0.047517
0.0472942
0.0470916
0.046909
0.0467467
0.0466046
0.0464828
0.0463812
0.0463
0.046239
0.0461984
0.0461781
0.0461781
0.0461984
0.046239
0.0463
0.0463812
0.0464828
0.0466046
0.0467467
0.046909
0.0470916
0.0472942
0.047517
0.0477597
0.0480223
0.0483047
0.0486068
0.0489285
0.0492696
0.04963
0.0500094
0.0504075
0.0508237
0.0512574
0.0517077
0.052194
0.053519
0.0530201
0.0525576
0.0521121
0.0516847
0.051276
0.0508865
0.0505166
0.0501664
0.0498363
0.0495263
0.0492365
0.048967
0.0487179
0.0484893
0.0482813
0.048094
0.0479275
0.0477817
0.0476567
0.0475525
0.0474692
0.0474067
0.047365
0.0473441
0.0473441
0.047365
0.0474067
0.0474692
0.0475525
0.0476567
0.0477817
0.0479275
0.048094
0.0482813
0.0484893
0.0487179
0.048967
0.0492364
0.0495262
0.0498363
0.0501664
0.0505165
0.0508865
0.051276
0.0516847
0.0521122
0.0525576
0.0530201
0.0535191
0.0548931
0.054381
0.0539057
0.053448
0.0530089
0.0525891
0.052189
0.0518091
0.0514496
0.0511106
0.0507923
0.0504947
0.0502181
0.0499623
0.0497277
0.0495142
0.0493219
0.049151
0.0490013
0.048873
0.0487661
0.0486805
0.0486164
0.0485736
0.0485522
0.0485522
0.0485736
0.0486164
0.0486805
0.0487661
0.048873
0.0490013
0.049151
0.0493219
0.0495142
0.0497277
0.0499623
0.0502181
0.0504947
0.0507923
0.0511106
0.0514496
0.0518091
0.052189
0.0525891
0.0530089
0.053448
0.0539057
0.054381
0.0548931
0.0563187
0.0557928
0.0553042
0.0548338
0.0543825
0.0539511
0.0535401
0.0531498
0.0527805
0.0524322
0.0521053
0.0517997
0.0515155
0.0512528
0.0510118
0.0507925
0.0505951
0.0504195
0.0502658
0.0501341
0.0500243
0.0499364
0.0498705
0.0498266
0.0498046
0.0498046
0.0498266
0.0498705
0.0499364
0.0500243
0.0501341
0.0502658
0.0504195
0.0505951
0.0507925
0.0510118
0.0512528
0.0515155
0.0517996
0.0521053
0.0524322
0.0527805
0.0531498
0.0535401
0.0539511
0.0543825
0.0548338
0.0553042
0.0557929
0.0563187
0.0577987
0.0572585
0.056756
0.0562722
0.0558083
0.0553649
0.0549424
0.0545413
0.0541617
0.0538038
0.0534678
0.0531537
0.0528617
0.0525918
0.0523442
0.0521189
0.051916
0.0517356
0.0515777
0.0514424
0.0513295
0.0512393
0.0511716
0.0511265
0.0511039
0.0511039
0.0511265
0.0511716
0.0512393
0.0513295
0.0514424
0.0515777
0.0517356
0.051916
0.0521189
0.0523442
0.0525918
0.0528617
0.0531537
0.0534678
0.0538038
0.0541617
0.0545413
0.0549424
0.0553649
0.0558083
0.0562723
0.056756
0.0572585
0.0577987
0.0593361
0.058781
0.0582639
0.0577663
0.0572892
0.0568332
0.0563988
0.0559863
0.055596
0.0552281
0.0548826
0.0545598
0.0542596
0.0539821
0.0537275
0.0534959
0.0532874
0.0531019
0.0529397
0.0528005
0.0526846
0.0525918
0.0525222
0.0524758
0.0524526
0.0524526
0.0524758
0.0525222
0.0525918
0.0526846
0.0528005
0.0529396
0.0531019
0.0532874
0.0534959
0.0537275
0.0539821
0.0542595
0.0545598
0.0548826
0.0552281
0.055596
0.0559863
0.0563988
0.0568332
0.0572892
0.0577663
0.0582639
0.058781
0.0593361
0.0609342
0.0603634
0.0598312
0.0593191
0.0588282
0.0583591
0.0579122
0.0574879
0.0570865
0.056708
0.0563527
0.0560207
0.0557119
0.0554265
0.0551647
0.0549265
0.0547121
0.0545214
0.0543545
0.0542114
0.0540922
0.0539968
0.0539252
0.0538775
0.0538537
0.0538537
0.0538775
0.0539252
0.0539968
0.0540922
0.0542114
0.0543545
0.0545214
0.0547121
0.0549265
0.0551647
0.0554265
0.0557119
0.0560207
0.0563527
0.056708
0.0570865
0.0574879
0.0579122
0.0583591
0.0588282
0.0593192
0.0598312
0.0603634
0.0625963
0.0620091
0.0614611
0.060934
0.0604287
0.0599459
0.059486
0.0590493
0.0586362
0.0582468
0.0578812
0.0575395
0.0572218
0.0569282
0.0566588
0.0564138
0.0561931
0.0559969
0.0558252
0.055678
0.0555554
0.0554572
0.0553836
0.0553345
0.05531
0.05531
0.0553345
0.0553836
0.0554572
0.0555554
0.055678
0.0558252
0.0559969
0.0561931
0.0564138
0.0566588
0.0569282
0.0572218
0.0575395
0.0578812
0.0582468
0.0586362
0.0590493
0.059486
0.0599459
0.0604287
0.060934
0.0614611
0.0643261
0.0637219
0.0631574
0.0626145
0.0620942
0.061597
0.0611235
0.060674
0.0602488
0.0598479
0.0594715
0.0591198
0.0587927
0.0584905
0.0582132
0.0579609
0.0577338
0.0575319
0.0573551
0.0572036
0.0570774
0.0569764
0.0569006
0.0568501
0.0568249
0.0568249
0.0568501
0.0569006
0.0569764
0.0570774
0.0572036
0.0573551
0.0575319
0.0577338
0.0579609
0.0582132
0.0584905
0.0587927
0.0591198
0.0594715
0.0598479
0.0602487
0.060674
0.0611235
0.061597
0.0620942
0.0626145
0.0661275
0.0655055
0.0649238
0.0643645
0.0638284
0.0633163
0.0628287
0.0623657
0.0619277
0.0615148
0.0611272
0.060765
0.0604281
0.0601169
0.0598313
0.0595715
0.0593376
0.0591297
0.0589477
0.0587917
0.0586617
0.0585577
0.0584797
0.0584277
0.0584016
0.0584016
0.0584277
0.0584797
0.0585577
0.0586617
0.0587917
0.0589477
0.0591297
0.0593376
0.0595715
0.0598313
0.0601169
0.0604281
0.060765
0.0611272
0.0615148
0.0619277
0.0623657
0.0628287
0.0633163
0.0638284
0.0680048
0.0673641
0.0667644
0.0661879
0.0656355
0.0651078
0.0646053
0.0641282
0.0636769
0.0632515
0.0628522
0.0624789
0.0621319
0.0618112
0.0615169
0.0612493
0.0610083
0.0607941
0.0606066
0.0604459
0.060312
0.0602048
0.0601244
0.0600709
0.0600441
0.0600441
0.0600709
0.0601244
0.0602048
0.060312
0.0604459
0.0606066
0.0607941
0.0610083
0.0612493
0.0615169
0.0618112
0.0621319
0.0624789
0.0628522
0.0632515
0.0636769
0.0641282
0.0646053
0.0651078
0.0699624
0.0693022
0.0686838
0.0680893
0.0675198
0.0669758
0.0664577
0.065966
0.0655007
0.0650622
0.0646505
0.0642658
0.0639081
0.0635775
0.0632742
0.0629983
0.06275
0.0625292
0.0623359
0.0621703
0.0620322
0.0619218
0.0618389
0.0617837
0.0617561
0.0617561
0.0617837
0.0618389
0.0619218
0.0620322
0.0621703
0.0623359
0.0625291
0.06275
0.0629983
0.0632742
0.0635775
0.0639081
0.0642658
0.0646505
0.0650622
0.0655007
0.065966
0.0664577
0.0669758
0.0720053
0.0713247
0.0706866
0.0700734
0.069486
0.0689249
0.0683906
0.0678834
0.0674036
0.0669514
0.0665268
0.0661301
0.0657612
0.0654202
0.0651075
0.064823
0.0645668
0.0643391
0.0641399
0.0639691
0.0638267
0.0637128
0.0636274
0.0635705
0.063542
0.063542
0.0635705
0.0636274
0.0637128
0.0638267
0.0639691
0.0641399
0.0643391
0.0645668
0.064823
0.0651075
0.0654202
0.0657612
0.0661301
0.0665268
0.0669514
0.0674036
0.0678834
0.0683906
0.0689249
0.0741386
0.0734366
0.072778
0.0721452
0.071539
0.0709601
0.0704088
0.0698855
0.0693905
0.0689239
0.0684858
0.0680765
0.0676958
0.0673441
0.0670214
0.0667279
0.0664636
0.0662287
0.0660231
0.0658469
0.0657
0.0655825
0.0654944
0.0654357
0.0654063
0.0654063
0.0654357
0.0654944
0.0655825
0.0657
0.0658469
0.0660231
0.0662287
0.0664636
0.0667279
0.0670214
0.0673441
0.0676958
0.0680765
0.0684858
0.0689239
0.0693905
0.0698855
0.0704088
0.0709601
0.076368
0.0756436
0.0749635
0.0743102
0.0736844
0.0730868
0.0725177
0.0719775
0.0714665
0.0709849
0.0705327
0.0701102
0.0697173
0.0693542
0.0690211
0.0687181
0.0684453
0.0682028
0.0679906
0.0678088
0.0676572
0.0675359
0.0674449
0.0673843
0.067354
0.067354
0.0673843
0.0674449
0.0675359
0.0676572
0.0678087
0.0679906
0.0682028
0.0684453
0.0687181
0.069021
0.0693542
0.0697173
0.0701102
0.0705327
0.0709849
0.0714665
0.0719775
0.0725177
0.0730868
0.0786995
0.0779516
0.077249
0.0765743
0.075928
0.0753108
0.0747231
0.0741652
0.0736375
0.07314
0.0726731
0.0722367
0.0718309
0.0714559
0.0711119
0.070799
0.0705174
0.070267
0.0700478
0.06986
0.0697034
0.0695782
0.0694843
0.0694217
0.0693904
0.0693904
0.0694217
0.0694843
0.0695782
0.0697034
0.06986
0.0700478
0.070267
0.0705174
0.070799
0.0711119
0.0714559
0.0718309
0.0722367
0.0726731
0.07314
0.0736375
0.0741652
0.0747231
0.0753107
0.0811395
0.0803672
0.079641
0.0789437
0.078276
0.0776382
0.077031
0.0764547
0.0759094
0.0753954
0.0749129
0.074462
0.0740428
0.0736553
0.0732999
0.0729766
0.0726856
0.0724269
0.0722005
0.0720064
0.0718446
0.0717153
0.0716182
0.0715535
0.0715212
0.0715212
0.0715535
0.0716182
0.0717153
0.0718446
0.0720064
0.0722005
0.0724269
0.0726856
0.0729766
0.0732999
0.0736553
0.0740428
0.074462
0.0749129
0.0753954
0.0759094
0.0764547
0.077031
0.0776382
0.0836953
0.0828971
0.0821463
0.0814255
0.0807352
0.080076
0.0794483
0.0788525
0.0782889
0.0777576
0.0772588
0.0767927
0.0763593
0.0759587
0.0755913
0.0752571
0.0749563
0.0746888
0.0744548
0.0742542
0.074087
0.0739533
0.0738529
0.0737861
0.0737526
0.0737526
0.0737861
0.0738529
0.0739533
0.074087
0.0742542
0.0744548
0.0746888
0.0749563
0.0752571
0.0755913
0.0759587
0.0763593
0.0767927
0.0772588
0.0777575
0.0782889
0.0788525
0.0794483
0.0863742
0.0855491
0.0847724
0.084027
0.0833131
0.0826313
0.0819822
0.081366
0.080783
0.0802335
0.0797177
0.0792356
0.0787874
0.0783731
0.0779931
0.0776474
0.0773363
0.0770597
0.0768176
0.0766102
0.0764373
0.0762989
0.0761952
0.076126
0.0760914
0.0760914
0.076126
0.0761952
0.0762989
0.0764373
0.0766102
0.0768176
0.0770597
0.0773363
0.0776474
0.0779931
0.0783731
0.0787874
0.0792356
0.0797177
0.0802335
0.080783
0.081366
0.0819822
0.0891845
0.0883311
0.0875274
0.0867561
0.0860174
0.085312
0.0846404
0.0840028
0.0833996
0.082831
0.0822972
0.0817984
0.0813345
0.0809059
0.0805126
0.080155
0.079833
0.0795468
0.0792963
0.0790816
0.0789027
0.0787596
0.0786522
0.0785807
0.0785449
0.0785449
0.0785807
0.0786522
0.0787596
0.0789027
0.0790816
0.0792963
0.0795468
0.079833
0.080155
0.0805126
0.0809059
0.0813345
0.0817984
0.0822972
0.082831
0.0833996
0.0840028
0.0846404
0.0921352
0.091252
0.0904199
0.0896215
0.0888569
0.0881267
0.0874314
0.0867714
0.0861469
0.0855583
0.0850057
0.0844892
0.084009
0.0835652
0.0818988
0.0816765
0.0814913
0.0813431
0.081232
0.0811579
0.0811208
0.0811208
0.0811579
0.081232
0.0813431
0.0814913
0.0816765
0.0818988
0.0821581
0.0824544
0.0827878
0.083158
0.0835652
0.084009
0.0844892
0.0850057
0.0855583
0.0861469
0.0867714
0.0874315
0.0855546
0.0859381
0.0863598
0.0868196
0.087317
0.0878519
0.0884243
0.0890341
0.0896809
0.0903645
0.0920708
0.0927411
0.0934495
0.0244338
0.0249123
0.0254018
0.0259027
0.0264155
0.0269406
0.0274784
0.0280294
0.028594
0.0291727
0.0297662
0.0303749
0.0310011
0.0316487
0.0323197
0.0330129
0.0337274
0.0344628
0.0352194
0.0359974
0.0367973
0.0376198
0.0384658
0.0393362
0.0402322
0.0411551
0.0421061
0.0430867
0.0440983
0.0451426
0.0462213
0.0473359
0.0484885
0.049681
0.0509154
0.052194
0.053519
0.0548931
0.0563187
0.0577987
0.0593361
0.0609342
0.0625963
0.0643261
0.0661275
0.0680048
0.0699624
0.0720053
0.0741386
0.076368
0.0786995
0.0811395
0.0836953
0.0863742
0.0891845
0.0921352
0.0246675
0.0251537
0.0256514
0.0261608
0.0266824
0.0272167
0.0277641
0.0283251
0.0289004
0.0294903
0.0300956
0.0307168
0.0313546
0.0320097
0.0326856
0.0333881
0.0341177
0.034871
0.035646
0.0364421
0.0372599
0.0381002
0.0389643
0.0398534
0.0407687
0.0417117
0.0426839
0.0436867
0.0447217
0.0457905
0.046895
0.048037
0.0492184
0.0504412
0.0517077
0.0530201
0.054381
0.0557928
0.0572585
0.058781
0.0603634
0.0620091
0.0637219
0.0655055
0.0673641
0.0693022
0.0713247
0.0734366
0.0756436
0.0779516
0.0803672
0.0828971
0.0855491
0.0883311
0.091252
0.0269898
0.0275328
0.0280892
0.0286596
0.0292446
0.0298446
0.0304602
0.0310921
0.031741
0.0324084
0.0330993
0.0338182
0.0345636
0.0353319
0.036122
0.0369339
0.0377682
0.0386258
0.039508
0.040416
0.0413512
0.0423151
0.0433092
0.0443351
0.0453945
0.0464891
0.0476206
0.0487912
0.0500027
0.0512574
0.0525576
0.0539057
0.0553042
0.056756
0.0582639
0.0598312
0.0614611
0.0631574
0.0649238
0.0667644
0.0686838
0.0706866
0.072778
0.0749635
0.077249
0.079641
0.0821463
0.0847724
0.0875274
0.0904199
0.02677
0.0273087
0.0278606
0.0284264
0.0290066
0.0296016
0.0302121
0.0308387
0.031482
0.0321428
0.0328248
0.0335336
0.0342701
0.0350311
0.0358147
0.0366203
0.0374482
0.0382993
0.0391746
0.0400755
0.0410032
0.0419592
0.0429451
0.0439623
0.0450126
0.0460977
0.0472193
0.0483795
0.0495803
0.0508237
0.0521121
0.053448
0.0548338
0.0562722
0.0577663
0.0593191
0.060934
0.0626145
0.0643645
0.0661879
0.0680893
0.0700734
0.0721452
0.0743102
0.0765742
0.0789437
0.0814255
0.084027
0.0867561
0.0896215
0.0265583
0.0270928
0.0276405
0.0282019
0.0287774
0.0293678
0.0299734
0.030595
0.0312332
0.0318886
0.0325632
0.0332622
0.0339893
0.0347428
0.0355198
0.0363192
0.0371409
0.0379856
0.0388544
0.0397483
0.0406688
0.0416173
0.0425952
0.0436041
0.0446457
0.0457218
0.046834
0.0479843
0.0491747
0.0504075
0.0516847
0.0530089
0.0543825
0.0558083
0.0572892
0.0588282
0.0604287
0.0620942
0.0638284
0.0656355
0.0675198
0.069486
0.071539
0.0736844
0.075928
0.078276
0.0807352
0.0833131
0.0860174
0.0888569
0.0268857
0.0274293
0.0279865
0.0285577
0.0291436
0.0297447
0.0303616
0.0309948
0.0316452
0.0323134
0.0330035
0.0337215
0.0344673
0.0352377
0.0360309
0.0368466
0.0376852
0.0385476
0.039435
0.0403486
0.0412898
0.0422602
0.0432613
0.0442946
0.045362
0.0464653
0.0476062
0.0487869
0.0500094
0.051276
0.0525891
0.0539511
0.0553649
0.0568332
0.0583591
0.0599459
0.061597
0.0633163
0.0651078
0.0669758
0.0689249
0.0709601
0.0730868
0.0753107
0.0776382
0.080076
0.0826313
0.085312
0.0881267
0.0266877
0.0272275
0.0277807
0.0283478
0.0289294
0.0295261
0.0301385
0.0307671
0.0314126
0.0320758
0.032759
0.0334677
0.0342048
0.0349683
0.0357554
0.0365654
0.0373982
0.0382547
0.0391358
0.0400429
0.0409774
0.0419406
0.0429342
0.0439598
0.045019
0.0461137
0.0472457
0.0484171
0.04963
0.0508865
0.052189
0.0535401
0.0549424
0.0563988
0.0579122
0.059486
0.0611235
0.0628286
0.0646053
0.0664577
0.0683906
0.0704088
0.0725177
0.0747231
0.077031
0.0794483
0.0819822
0.0846404
0.0874314
0.0264992
0.0270353
0.0275847
0.0281479
0.0287256
0.0293182
0.0299263
0.0305505
0.0311915
0.0318499
0.0325269
0.0332269
0.0339557
0.0347125
0.0354937
0.036298
0.0371252
0.037976
0.0388513
0.0397522
0.0406803
0.0416368
0.0426233
0.0436415
0.044693
0.0457796
0.0469033
0.0480659
0.0492696
0.0505165
0.0518091
0.0531498
0.0545413
0.0559863
0.0574879
0.0590493
0.060674
0.0623657
0.0641282
0.065966
0.0678834
0.0698855
0.0719775
0.0741652
0.0764547
0.0788525
0.081366
0.0840028
0.0867714