/*--------------------------------*- C++ -*----------------------------------*\
  =========                 |
  \\      /  F ield         | OpenFOAM: The Open Source CFD Toolbox
   \\    /   O peration     | Website:  https://openfoam.org
    \\  /    A nd           | Version:  7
     \\/     M anipulation  |
\*---------------------------------------------------------------------------*/
FoamFile
{
    version     2.0;
    format      ascii;
    class       volScalarField;
    location    "168000";
    object      nut;
}
// * * * * * * * * * * * * * * * * * * * * * * * * * * * * * * * * * * * * * //

dimensions      [0 2 -1 0 0 0 0];

internalField   nonuniform List<scalar> 
4850
(
2.80238e-05
2.80989e-05
2.78766e-05
2.79539e-05
2.80276e-05
2.77252e-05
2.78045e-05
2.78803e-05
2.79529e-05
2.80221e-05
2.75697e-05
2.7651e-05
2.77287e-05
2.78032e-05
2.78744e-05
2.79421e-05
2.74102e-05
2.74933e-05
2.7573e-05
2.76493e-05
2.77223e-05
2.77919e-05
2.7858e-05
2.72467e-05
2.73317e-05
2.74132e-05
2.74914e-05
2.75661e-05
2.76374e-05
2.77052e-05
2.77694e-05
2.78301e-05
2.70795e-05
2.71662e-05
2.72495e-05
2.73294e-05
2.74058e-05
2.74788e-05
2.75482e-05
2.76141e-05
2.76763e-05
2.77349e-05
2.69086e-05
2.6997e-05
2.7082e-05
2.71635e-05
2.72416e-05
2.73162e-05
2.73872e-05
2.74546e-05
2.75183e-05
2.75783e-05
2.76345e-05
2.76871e-05
2.77358e-05
2.77808e-05
2.67342e-05
2.68242e-05
2.69107e-05
2.69939e-05
2.70736e-05
2.71497e-05
2.72222e-05
2.72911e-05
2.73562e-05
2.74176e-05
2.74751e-05
2.75289e-05
2.75789e-05
2.7625e-05
2.76673e-05
2.77057e-05
2.77402e-05
2.77709e-05
2.65563e-05
2.66479e-05
2.6736e-05
2.68206e-05
2.69018e-05
2.69794e-05
2.70534e-05
2.71237e-05
2.71902e-05
2.72529e-05
2.73117e-05
2.73667e-05
2.74178e-05
2.7465e-05
2.75082e-05
2.75476e-05
2.7583e-05
2.76144e-05
2.76419e-05
2.76655e-05
2.6375e-05
2.64681e-05
2.65577e-05
2.66439e-05
2.67265e-05
2.68055e-05
2.68809e-05
2.69525e-05
2.70203e-05
2.70843e-05
2.71444e-05
2.72005e-05
2.72527e-05
2.73009e-05
2.73451e-05
2.73853e-05
2.74215e-05
2.74537e-05
2.74818e-05
2.7506e-05
2.75261e-05
2.75422e-05
2.75542e-05
2.75623e-05
2.61906e-05
2.62851e-05
2.63761e-05
2.64637e-05
2.65477e-05
2.66281e-05
2.67048e-05
2.67777e-05
2.68468e-05
2.6912e-05
2.69732e-05
2.70304e-05
2.70837e-05
2.71329e-05
2.7178e-05
2.7219e-05
2.7256e-05
2.72889e-05
2.73177e-05
2.73423e-05
2.73629e-05
2.73793e-05
2.73916e-05
2.73999e-05
2.7404e-05
2.7404e-05
2.73999e-05
2.73917e-05
2.73793e-05
2.6003e-05
2.60989e-05
2.61912e-05
2.62802e-05
2.63655e-05
2.64472e-05
2.65252e-05
2.65994e-05
2.66697e-05
2.6736e-05
2.67983e-05
2.68566e-05
2.69109e-05
2.6961e-05
2.7007e-05
2.70489e-05
2.70866e-05
2.71201e-05
2.71495e-05
2.71747e-05
2.71956e-05
2.72124e-05
2.7225e-05
2.72334e-05
2.72376e-05
2.72376e-05
2.72334e-05
2.7225e-05
2.72124e-05
2.71956e-05
2.71747e-05
2.71495e-05
2.58125e-05
2.59096e-05
2.60033e-05
2.60935e-05
2.61801e-05
2.62631e-05
2.63423e-05
2.64176e-05
2.6489e-05
2.65565e-05
2.66199e-05
2.66792e-05
2.67344e-05
2.67855e-05
2.68323e-05
2.6875e-05
2.69134e-05
2.69476e-05
2.69775e-05
2.70031e-05
2.70245e-05
2.70416e-05
2.70545e-05
2.7063e-05
2.70673e-05
2.70673e-05
2.7063e-05
2.70545e-05
2.70416e-05
2.70245e-05
2.70031e-05
2.69775e-05
2.69476e-05
2.69134e-05
2.5619e-05
2.57174e-05
2.58123e-05
2.59037e-05
2.59915e-05
2.60757e-05
2.6156e-05
2.62325e-05
2.63051e-05
2.63736e-05
2.6438e-05
2.64983e-05
2.65544e-05
2.66063e-05
2.6654e-05
2.66974e-05
2.67365e-05
2.67713e-05
2.68017e-05
2.68278e-05
2.68496e-05
2.68671e-05
2.68801e-05
2.68889e-05
2.68932e-05
2.68932e-05
2.68889e-05
2.68801e-05
2.68671e-05
2.68496e-05
2.68278e-05
2.68017e-05
2.67713e-05
2.67365e-05
2.54227e-05
2.55223e-05
2.56183e-05
2.57109e-05
2.57999e-05
2.58852e-05
2.59667e-05
2.60442e-05
2.61178e-05
2.61873e-05
2.62528e-05
2.6314e-05
2.6371e-05
2.64237e-05
2.64721e-05
2.65162e-05
2.6556e-05
2.65914e-05
2.66223e-05
2.66489e-05
2.66711e-05
2.66888e-05
2.67021e-05
2.6711e-05
2.67154e-05
2.67154e-05
2.6711e-05
2.67021e-05
2.66888e-05
2.66711e-05
2.66489e-05
2.66223e-05
2.65914e-05
2.6556e-05
2.52238e-05
2.53244e-05
2.54216e-05
2.55153e-05
2.56054e-05
2.56917e-05
2.57742e-05
2.58529e-05
2.59274e-05
2.59979e-05
2.60643e-05
2.61264e-05
2.61842e-05
2.62377e-05
2.62869e-05
2.63317e-05
2.6372e-05
2.6408e-05
2.64394e-05
2.64664e-05
2.6489e-05
2.6507e-05
2.65205e-05
2.65295e-05
2.6534e-05
2.6534e-05
2.65295e-05
2.65205e-05
2.6507e-05
2.6489e-05
2.64664e-05
2.64394e-05
2.6408e-05
2.63721e-05
2.50222e-05
2.51239e-05
2.52221e-05
2.53168e-05
2.5408e-05
2.54954e-05
2.55789e-05
2.56585e-05
2.5734e-05
2.58054e-05
2.58726e-05
2.59356e-05
2.59942e-05
2.60485e-05
2.60984e-05
2.61438e-05
2.61848e-05
2.62212e-05
2.62531e-05
2.62806e-05
2.63034e-05
2.63217e-05
2.63354e-05
2.63446e-05
2.63492e-05
2.63492e-05
2.63446e-05
2.63354e-05
2.63217e-05
2.63034e-05
2.62806e-05
2.62532e-05
2.62212e-05
2.61848e-05
2.48181e-05
2.49208e-05
2.502e-05
2.51157e-05
2.52079e-05
2.52962e-05
2.53807e-05
2.54612e-05
2.55377e-05
2.56099e-05
2.5678e-05
2.57418e-05
2.58011e-05
2.58561e-05
2.59067e-05
2.59527e-05
2.59942e-05
2.60312e-05
2.60636e-05
2.60914e-05
2.61145e-05
2.61331e-05
2.6147e-05
2.61563e-05
2.6161e-05
2.6161e-05
2.61563e-05
2.6147e-05
2.61331e-05
2.61146e-05
2.60914e-05
2.60636e-05
2.60312e-05
2.59942e-05
2.46116e-05
2.47153e-05
2.48154e-05
2.49121e-05
2.50051e-05
2.50944e-05
2.51798e-05
2.52612e-05
2.53385e-05
2.54116e-05
2.54804e-05
2.55449e-05
2.56051e-05
2.56607e-05
2.57119e-05
2.57585e-05
2.58006e-05
2.5838e-05
2.58708e-05
2.5899e-05
2.59225e-05
2.59413e-05
2.59554e-05
2.59648e-05
2.59695e-05
2.59695e-05
2.59648e-05
2.59554e-05
2.59413e-05
2.59225e-05
2.5899e-05
2.58708e-05
2.5838e-05
2.58006e-05
2.44028e-05
2.45073e-05
2.46084e-05
2.47059e-05
2.47998e-05
2.489e-05
2.49762e-05
2.50584e-05
2.51366e-05
2.52104e-05
2.528e-05
2.53453e-05
2.54061e-05
2.54624e-05
2.55142e-05
2.55613e-05
2.56039e-05
2.56418e-05
2.5675e-05
2.57035e-05
2.57273e-05
2.57464e-05
2.57606e-05
2.57702e-05
2.5775e-05
2.5775e-05
2.57702e-05
2.57606e-05
2.57464e-05
2.57273e-05
2.57035e-05
2.5675e-05
2.56418e-05
2.56039e-05
2.41918e-05
2.42971e-05
2.4399e-05
2.44974e-05
2.45921e-05
2.46831e-05
2.47701e-05
2.48531e-05
2.4932e-05
2.50066e-05
2.5077e-05
2.51429e-05
2.52043e-05
2.52612e-05
2.53136e-05
2.53613e-05
2.54043e-05
2.54426e-05
2.54762e-05
2.55051e-05
2.55291e-05
2.55484e-05
2.55629e-05
2.55725e-05
2.55773e-05
2.55773e-05
2.55725e-05
2.55629e-05
2.55484e-05
2.55291e-05
2.55051e-05
2.54762e-05
2.54426e-05
2.54043e-05
2.39787e-05
2.40848e-05
2.41874e-05
2.42866e-05
2.43821e-05
2.44738e-05
2.45616e-05
2.46453e-05
2.47249e-05
2.48003e-05
2.48712e-05
2.49378e-05
2.49998e-05
2.50573e-05
2.51102e-05
2.51584e-05
2.52019e-05
2.52406e-05
2.52746e-05
2.53037e-05
2.53281e-05
2.53476e-05
2.53622e-05
2.53719e-05
2.53768e-05
2.53768e-05
2.53719e-05
2.53622e-05
2.53476e-05
2.53281e-05
2.53038e-05
2.52746e-05
2.52406e-05
2.52019e-05
2.51584e-05
2.37635e-05
2.38703e-05
2.39737e-05
2.40735e-05
2.41698e-05
2.42622e-05
2.43507e-05
2.44351e-05
2.45154e-05
2.45914e-05
2.4663e-05
2.47302e-05
2.47928e-05
2.48508e-05
2.49042e-05
2.49529e-05
2.49968e-05
2.50359e-05
2.50702e-05
2.50997e-05
2.51242e-05
2.51439e-05
2.51587e-05
2.51686e-05
2.51735e-05
2.51735e-05
2.51686e-05
2.51587e-05
2.51439e-05
2.51242e-05
2.50997e-05
2.50702e-05
2.50359e-05
2.49968e-05
2.49529e-05
2.35464e-05
2.36538e-05
2.37579e-05
2.38584e-05
2.39553e-05
2.40484e-05
2.41376e-05
2.42227e-05
2.43036e-05
2.43802e-05
2.44524e-05
2.45201e-05
2.45832e-05
2.46418e-05
2.46956e-05
2.47447e-05
2.4789e-05
2.48285e-05
2.48632e-05
2.48929e-05
2.49177e-05
2.49376e-05
2.49525e-05
2.49624e-05
2.49674e-05
2.49674e-05
2.49625e-05
2.49525e-05
2.49376e-05
2.49177e-05
2.48929e-05
2.48632e-05
2.48285e-05
2.47891e-05
2.47447e-05
2.33274e-05
2.34355e-05
2.35401e-05
2.36413e-05
2.37388e-05
2.38325e-05
2.39223e-05
2.4008e-05
2.40895e-05
2.41666e-05
2.42394e-05
2.43076e-05
2.43713e-05
2.44303e-05
2.44846e-05
2.45341e-05
2.45788e-05
2.46186e-05
2.46536e-05
2.46836e-05
2.47086e-05
2.47286e-05
2.47437e-05
2.47537e-05
2.47588e-05
2.47588e-05
2.47537e-05
2.47437e-05
2.47286e-05
2.47086e-05
2.46836e-05
2.46536e-05
2.46186e-05
2.45788e-05
2.31066e-05
2.32152e-05
2.33205e-05
2.34222e-05
2.35203e-05
2.36146e-05
2.37049e-05
2.37912e-05
2.38732e-05
2.39509e-05
2.40242e-05
2.40929e-05
2.4157e-05
2.42165e-05
2.42712e-05
2.43211e-05
2.43662e-05
2.44063e-05
2.44415e-05
2.44717e-05
2.4497e-05
2.45172e-05
2.45324e-05
2.45425e-05
2.45476e-05
2.45476e-05
2.45425e-05
2.45324e-05
2.45172e-05
2.4497e-05
2.44718e-05
2.44415e-05
2.44063e-05
2.43662e-05
2.28841e-05
2.29933e-05
2.3099e-05
2.32013e-05
2.32999e-05
2.33948e-05
2.34856e-05
2.35724e-05
2.36549e-05
2.37331e-05
2.38068e-05
2.3876e-05
2.39406e-05
2.40004e-05
2.40555e-05
2.41058e-05
2.41512e-05
2.41916e-05
2.42271e-05
2.42576e-05
2.4283e-05
2.43034e-05
2.43187e-05
2.43289e-05
2.4334e-05
2.4334e-05
2.43289e-05
2.43187e-05
2.43034e-05
2.4283e-05
2.42576e-05
2.42271e-05
2.41916e-05
2.41512e-05
2.26601e-05
2.27697e-05
2.28759e-05
2.29786e-05
2.30778e-05
2.31731e-05
2.32644e-05
2.33516e-05
2.34346e-05
2.35133e-05
2.35874e-05
2.3657e-05
2.3722e-05
2.37823e-05
2.38377e-05
2.38883e-05
2.3934e-05
2.39747e-05
2.40104e-05
2.40411e-05
2.40667e-05
2.40872e-05
2.41026e-05
2.41129e-05
2.41181e-05
2.41181e-05
2.41129e-05
2.41026e-05
2.40872e-05
2.40667e-05
2.40411e-05
2.40104e-05
2.39747e-05
2.3934e-05
2.24345e-05
2.25445e-05
2.26511e-05
2.27543e-05
2.28539e-05
2.29496e-05
2.30414e-05
2.3129e-05
2.32124e-05
2.32915e-05
2.33661e-05
2.34361e-05
2.35014e-05
2.3562e-05
2.36178e-05
2.36687e-05
2.37147e-05
2.37556e-05
2.37916e-05
2.38225e-05
2.38482e-05
2.38689e-05
2.38844e-05
2.38947e-05
2.38999e-05
2.38999e-05
2.38947e-05
2.38844e-05
2.38689e-05
2.38482e-05
2.38225e-05
2.37916e-05
2.37556e-05
2.22074e-05
2.23178e-05
2.24248e-05
2.25284e-05
2.26283e-05
2.27245e-05
2.28166e-05
2.29047e-05
2.29885e-05
2.30679e-05
2.31429e-05
2.32132e-05
2.32789e-05
2.33398e-05
2.33959e-05
2.34471e-05
2.34933e-05
2.35345e-05
2.35707e-05
2.36017e-05
2.36276e-05
2.36484e-05
2.3664e-05
2.36744e-05
2.36796e-05
2.36796e-05
2.36744e-05
2.3664e-05
2.36484e-05
2.36277e-05
2.36017e-05
2.35707e-05
2.35345e-05
2.1979e-05
2.20897e-05
2.21971e-05
2.2301e-05
2.24013e-05
2.24977e-05
2.25903e-05
2.26787e-05
2.27628e-05
2.28426e-05
2.29178e-05
2.29885e-05
2.30545e-05
2.31157e-05
2.31721e-05
2.32235e-05
2.327e-05
2.33114e-05
2.33477e-05
2.3379e-05
2.3405e-05
2.34259e-05
2.34416e-05
2.34521e-05
2.34573e-05
2.34573e-05
2.34521e-05
2.34416e-05
2.34259e-05
2.3405e-05
2.3379e-05
2.33478e-05
2.17493e-05
2.18603e-05
2.19679e-05
2.20721e-05
2.21727e-05
2.22695e-05
2.23623e-05
2.24511e-05
2.25355e-05
2.26156e-05
2.26911e-05
2.27621e-05
2.28284e-05
2.28898e-05
2.29464e-05
2.29981e-05
2.30448e-05
2.30864e-05
2.31229e-05
2.31543e-05
2.31805e-05
2.32015e-05
2.32173e-05
2.32278e-05
2.3233e-05
2.3233e-05
2.32278e-05
2.32173e-05
2.32015e-05
2.31805e-05
2.31543e-05
2.31229e-05
2.15184e-05
2.16296e-05
2.17375e-05
2.18419e-05
2.19428e-05
2.20398e-05
2.21329e-05
2.22219e-05
2.23067e-05
2.2387e-05
2.24628e-05
2.2534e-05
2.26006e-05
2.26623e-05
2.27191e-05
2.2771e-05
2.28178e-05
2.28596e-05
2.28963e-05
2.29278e-05
2.29541e-05
2.29752e-05
2.29911e-05
2.30016e-05
2.30069e-05
2.30069e-05
2.30016e-05
2.29911e-05
2.29752e-05
2.29541e-05
2.29278e-05
2.28963e-05
2.12863e-05
2.13977e-05
2.15058e-05
2.16105e-05
2.17115e-05
2.18088e-05
2.19022e-05
2.19914e-05
2.20763e-05
2.21569e-05
2.2233e-05
2.23044e-05
2.23711e-05
2.24331e-05
2.24901e-05
2.25422e-05
2.25892e-05
2.26311e-05
2.2668e-05
2.26996e-05
2.2726e-05
2.27472e-05
2.27631e-05
2.27737e-05
2.2779e-05
2.2779e-05
2.27737e-05
2.27631e-05
2.27472e-05
2.2726e-05
2.26996e-05
2.2668e-05
2.10532e-05
2.11647e-05
2.1273e-05
2.13778e-05
2.14791e-05
2.15765e-05
2.16701e-05
2.17595e-05
2.18446e-05
2.19254e-05
2.20017e-05
2.20733e-05
2.21402e-05
2.22023e-05
2.22595e-05
2.23117e-05
2.23589e-05
2.2401e-05
2.2438e-05
2.24697e-05
2.24962e-05
2.25175e-05
2.25334e-05
2.25441e-05
2.25494e-05
2.25494e-05
2.25441e-05
2.25334e-05
2.25175e-05
2.24962e-05
2.24697e-05
2.2438e-05
2.08191e-05
2.09307e-05
2.1039e-05
2.1144e-05
2.12454e-05
2.13431e-05
2.14367e-05
2.15263e-05
2.16116e-05
2.16926e-05
2.1769e-05
2.18408e-05
2.19079e-05
2.19701e-05
2.20275e-05
2.20798e-05
2.21272e-05
2.21694e-05
2.22064e-05
2.22383e-05
2.22648e-05
2.22862e-05
2.23022e-05
2.23128e-05
2.23182e-05
2.23182e-05
2.23128e-05
2.23022e-05
2.22862e-05
2.22648e-05
2.22383e-05
2.22064e-05
2.0584e-05
2.06957e-05
2.08041e-05
2.09092e-05
2.10107e-05
2.11084e-05
2.12022e-05
2.12919e-05
2.13774e-05
2.14585e-05
2.1535e-05
2.1607e-05
2.16742e-05
2.17365e-05
2.1794e-05
2.18465e-05
2.18939e-05
2.19363e-05
2.19734e-05
2.20053e-05
2.2032e-05
2.20533e-05
2.20694e-05
2.20801e-05
2.20854e-05
2.20854e-05
2.20801e-05
2.20694e-05
2.20533e-05
2.2032e-05
2.20053e-05
2.19734e-05
2.03481e-05
2.04598e-05
2.05683e-05
2.06734e-05
2.0775e-05
2.08728e-05
2.09667e-05
2.10565e-05
2.1142e-05
2.12232e-05
2.12998e-05
2.13719e-05
2.14392e-05
2.15017e-05
2.15593e-05
2.16118e-05
2.16594e-05
2.17018e-05
2.1739e-05
2.1771e-05
2.17977e-05
2.18191e-05
2.18352e-05
2.18459e-05
2.18513e-05
2.18513e-05
2.18459e-05
2.18352e-05
2.18191e-05
2.17977e-05
2.1771e-05
2.1739e-05
2.01114e-05
2.02231e-05
2.03316e-05
2.04367e-05
2.05383e-05
2.06362e-05
2.07301e-05
2.08199e-05
2.09055e-05
2.09868e-05
2.10635e-05
2.11356e-05
2.1203e-05
2.12656e-05
2.13232e-05
2.13759e-05
2.14235e-05
2.1466e-05
2.15032e-05
2.15353e-05
2.1562e-05
2.15835e-05
2.15996e-05
2.16104e-05
2.16157e-05
2.16157e-05
2.16104e-05
2.15996e-05
2.15835e-05
2.1562e-05
2.15353e-05
2.15032e-05
1.9874e-05
1.99857e-05
2.00941e-05
2.01992e-05
2.03008e-05
2.03986e-05
2.04926e-05
2.05824e-05
2.06681e-05
2.07493e-05
2.08261e-05
2.08983e-05
2.09657e-05
2.10284e-05
2.10861e-05
2.11388e-05
2.11864e-05
2.12289e-05
2.12663e-05
2.12983e-05
2.13251e-05
2.13466e-05
2.13628e-05
2.13735e-05
2.13789e-05
2.13789e-05
2.13735e-05
2.13628e-05
2.13466e-05
2.13251e-05
2.12983e-05
2.12663e-05
1.9636e-05
1.97475e-05
1.98559e-05
1.99609e-05
2.00624e-05
2.01603e-05
2.02542e-05
2.0344e-05
2.04297e-05
2.05109e-05
2.05877e-05
2.06599e-05
2.07274e-05
2.079e-05
2.08478e-05
2.09005e-05
2.09482e-05
2.09908e-05
2.10281e-05
2.10602e-05
2.10871e-05
2.11086e-05
2.11247e-05
2.11355e-05
2.11409e-05
2.11409e-05
2.11355e-05
2.11247e-05
2.11086e-05
2.10871e-05
2.10602e-05
2.10281e-05
1.93974e-05
1.95088e-05
1.9617e-05
1.97219e-05
1.98234e-05
1.99211e-05
2.0015e-05
2.01048e-05
2.01904e-05
2.02717e-05
2.03484e-05
2.04206e-05
2.04881e-05
2.05508e-05
2.06085e-05
2.06613e-05
2.0709e-05
2.07515e-05
2.07889e-05
2.0821e-05
2.08479e-05
2.08694e-05
2.08856e-05
2.08963e-05
2.09017e-05
2.09017e-05
2.08963e-05
2.08856e-05
2.08694e-05
2.08479e-05
2.0821e-05
2.07889e-05
1.91583e-05
1.92695e-05
1.93775e-05
1.94823e-05
1.95837e-05
1.96813e-05
1.97751e-05
1.98648e-05
1.99503e-05
2.00315e-05
2.01083e-05
2.01804e-05
2.02479e-05
2.03105e-05
2.03683e-05
2.0421e-05
2.04687e-05
2.05113e-05
2.05487e-05
2.05808e-05
2.06077e-05
2.06292e-05
2.06453e-05
2.06561e-05
2.06615e-05
2.06615e-05
2.06561e-05
2.06453e-05
2.06292e-05
2.06077e-05
2.05808e-05
2.05487e-05
1.89187e-05
1.90297e-05
1.91375e-05
1.92422e-05
1.93433e-05
1.94408e-05
1.95345e-05
1.96241e-05
1.97096e-05
1.97907e-05
1.98674e-05
1.99395e-05
2.00069e-05
2.00695e-05
2.01272e-05
2.01799e-05
2.02276e-05
2.02701e-05
2.03075e-05
2.03396e-05
2.03665e-05
2.0388e-05
2.04042e-05
2.04149e-05
2.04203e-05
2.04203e-05
2.04149e-05
2.04042e-05
2.0388e-05
2.03665e-05
2.03396e-05
2.03075e-05
1.86787e-05
1.87894e-05
1.88971e-05
1.90015e-05
1.91025e-05
1.91998e-05
1.92933e-05
1.93828e-05
1.94681e-05
1.95491e-05
1.96257e-05
1.96977e-05
1.97651e-05
1.98276e-05
1.98853e-05
1.9938e-05
1.99856e-05
2.00281e-05
2.00655e-05
2.00976e-05
2.01244e-05
2.01459e-05
2.01621e-05
2.01729e-05
2.01783e-05
2.01783e-05
2.01729e-05
2.01621e-05
2.01459e-05
2.01244e-05
2.00976e-05
2.00655e-05
1.84384e-05
1.85488e-05
1.86562e-05
1.87604e-05
1.88612e-05
1.89583e-05
1.90516e-05
1.91409e-05
1.92261e-05
1.9307e-05
1.93834e-05
1.94553e-05
1.95226e-05
1.9585e-05
1.96426e-05
1.96953e-05
1.97429e-05
1.97853e-05
1.98226e-05
1.98547e-05
1.98815e-05
1.9903e-05
1.99192e-05
1.99299e-05
1.99353e-05
1.99353e-05
1.99299e-05
1.99192e-05
1.9903e-05
1.98815e-05
1.98547e-05
1.81978e-05
1.83079e-05
1.8415e-05
1.8519e-05
1.86195e-05
1.87164e-05
1.88095e-05
1.88986e-05
1.89836e-05
1.90643e-05
1.91406e-05
1.92124e-05
1.92795e-05
1.93418e-05
1.93993e-05
1.94519e-05
1.94994e-05
1.95418e-05
1.95791e-05
1.96111e-05
1.96379e-05
1.96594e-05
1.96755e-05
1.96863e-05
1.96916e-05
1.96916e-05
1.96863e-05
1.96755e-05
1.96594e-05
1.96379e-05
1.96111e-05
1.7957e-05
1.80668e-05
1.81736e-05
1.82772e-05
1.83774e-05
1.8474e-05
1.85669e-05
1.86558e-05
1.87406e-05
1.88211e-05
1.88972e-05
1.89688e-05
1.90358e-05
1.90981e-05
1.91554e-05
1.92079e-05
1.92553e-05
1.92977e-05
1.93349e-05
1.93669e-05
1.93936e-05
1.9415e-05
1.94311e-05
1.94419e-05
1.94473e-05
1.94473e-05
1.94419e-05
1.94311e-05
1.9415e-05
1.93936e-05
1.7716e-05
1.78254e-05
1.79319e-05
1.80352e-05
1.81351e-05
1.82314e-05
1.8324e-05
1.84126e-05
1.84972e-05
1.85775e-05
1.86534e-05
1.87249e-05
1.87917e-05
1.88538e-05
1.8911e-05
1.89634e-05
1.90107e-05
1.9053e-05
1.90901e-05
1.9122e-05
1.91487e-05
1.91701e-05
1.91861e-05
1.91969e-05
1.92022e-05
1.92022e-05
1.91969e-05
1.91861e-05
1.91701e-05
1.91487e-05
1.7475e-05
1.7584e-05
1.769e-05
1.7793e-05
1.78925e-05
1.79885e-05
1.80808e-05
1.81691e-05
1.82534e-05
1.83335e-05
1.84092e-05
1.84805e-05
1.85471e-05
1.8609e-05
1.86661e-05
1.87183e-05
1.87656e-05
1.88077e-05
1.88448e-05
1.88766e-05
1.89032e-05
1.89246e-05
1.89406e-05
1.89513e-05
1.89567e-05
1.89567e-05
1.89513e-05
1.89406e-05
1.89246e-05
1.89032e-05
1.72339e-05
1.73425e-05
1.74481e-05
1.75506e-05
1.76498e-05
1.77454e-05
1.78374e-05
1.79254e-05
1.80094e-05
1.80892e-05
1.81647e-05
1.82357e-05
1.83022e-05
1.83639e-05
1.84208e-05
1.84729e-05
1.852e-05
1.8562e-05
1.8599e-05
1.86308e-05
1.86573e-05
1.86786e-05
1.86946e-05
1.87053e-05
1.87106e-05
1.87106e-05
1.87053e-05
1.86946e-05
1.86786e-05
1.86573e-05
1.69928e-05
1.71009e-05
1.72061e-05
1.73082e-05
1.7407e-05
1.75022e-05
1.75938e-05
1.76815e-05
1.77652e-05
1.78447e-05
1.79199e-05
1.79907e-05
1.80569e-05
1.81185e-05
1.81752e-05
1.82271e-05
1.82741e-05
1.8316e-05
1.83528e-05
1.83845e-05
1.8411e-05
1.84322e-05
1.84481e-05
1.84588e-05
1.84641e-05
1.84641e-05
1.84588e-05
1.84481e-05
1.84322e-05
1.8411e-05
1.67518e-05
1.68594e-05
1.69641e-05
1.70657e-05
1.71641e-05
1.7259e-05
1.73502e-05
1.74375e-05
1.75209e-05
1.76001e-05
1.7675e-05
1.77455e-05
1.78114e-05
1.78728e-05
1.79293e-05
1.7981e-05
1.80278e-05
1.80696e-05
1.81063e-05
1.81379e-05
1.81643e-05
1.81854e-05
1.82013e-05
1.82119e-05
1.82172e-05
1.82172e-05
1.82119e-05
1.82013e-05
1.81854e-05
1.81643e-05
1.65109e-05
1.6618e-05
1.67222e-05
1.68233e-05
1.69212e-05
1.70157e-05
1.71064e-05
1.71934e-05
1.72764e-05
1.73553e-05
1.74299e-05
1.75001e-05
1.75658e-05
1.76269e-05
1.76832e-05
1.77347e-05
1.77813e-05
1.7823e-05
1.78595e-05
1.7891e-05
1.79173e-05
1.79384e-05
1.79542e-05
1.79648e-05
1.79701e-05
1.79701e-05
1.79648e-05
1.79542e-05
1.79384e-05
1.79173e-05
1.62702e-05
1.63767e-05
1.64804e-05
1.6581e-05
1.66784e-05
1.67724e-05
1.68627e-05
1.69493e-05
1.70319e-05
1.71104e-05
1.71847e-05
1.72546e-05
1.732e-05
1.73808e-05
1.74369e-05
1.74882e-05
1.75347e-05
1.75761e-05
1.76125e-05
1.76439e-05
1.76701e-05
1.76911e-05
1.77069e-05
1.77174e-05
1.77227e-05
1.77227e-05
1.77174e-05
1.77069e-05
1.76911e-05
1.76701e-05
1.60297e-05
1.61356e-05
1.62387e-05
1.63388e-05
1.64357e-05
1.65292e-05
1.66191e-05
1.67052e-05
1.67874e-05
1.68655e-05
1.69395e-05
1.7009e-05
1.70742e-05
1.71347e-05
1.71906e-05
1.72416e-05
1.72879e-05
1.73291e-05
1.73654e-05
1.73966e-05
1.74227e-05
1.74436e-05
1.74593e-05
1.74698e-05
1.74751e-05
1.74751e-05
1.74698e-05
1.74593e-05
1.74436e-05
1.74227e-05
1.57895e-05
1.58948e-05
1.59973e-05
1.60969e-05
1.61932e-05
1.62862e-05
1.63756e-05
1.64612e-05
1.6543e-05
1.66207e-05
1.66943e-05
1.67635e-05
1.68283e-05
1.68885e-05
1.69441e-05
1.6995e-05
1.7041e-05
1.70821e-05
1.71182e-05
1.71493e-05
1.71752e-05
1.7196e-05
1.72117e-05
1.72221e-05
1.72274e-05
1.72274e-05
1.72221e-05
1.72117e-05
1.7196e-05
1.71752e-05
1.55496e-05
1.56543e-05
1.57562e-05
1.58551e-05
1.59509e-05
1.60433e-05
1.61322e-05
1.62174e-05
1.62987e-05
1.6376e-05
1.64492e-05
1.6518e-05
1.65825e-05
1.66424e-05
1.66977e-05
1.67483e-05
1.67941e-05
1.6835e-05
1.68709e-05
1.69018e-05
1.69277e-05
1.69484e-05
1.6964e-05
1.69744e-05
1.69796e-05
1.69796e-05
1.69744e-05
1.6964e-05
1.69484e-05
1.69277e-05
1.53101e-05
1.54141e-05
1.55154e-05
1.56137e-05
1.57089e-05
1.58008e-05
1.58891e-05
1.59738e-05
1.60546e-05
1.61315e-05
1.62042e-05
1.62727e-05
1.63368e-05
1.63964e-05
1.64514e-05
1.65017e-05
1.65473e-05
1.6588e-05
1.66237e-05
1.66545e-05
1.66802e-05
1.67008e-05
1.67163e-05
1.67266e-05
1.67318e-05
1.67318e-05
1.67266e-05
1.67163e-05
1.67008e-05
1.66802e-05
1.5071e-05
1.51743e-05
1.52749e-05
1.53726e-05
1.54672e-05
1.55585e-05
1.56463e-05
1.57304e-05
1.58107e-05
1.58871e-05
1.59594e-05
1.60275e-05
1.60912e-05
1.61505e-05
1.62052e-05
1.62553e-05
1.63005e-05
1.6341e-05
1.63766e-05
1.64071e-05
1.64327e-05
1.64532e-05
1.64686e-05
1.64789e-05
1.64841e-05
1.64841e-05
1.64789e-05
1.64686e-05
1.64532e-05
1.64327e-05
1.48324e-05
1.4935e-05
1.50349e-05
1.51319e-05
1.52259e-05
1.53165e-05
1.54037e-05
1.54873e-05
1.55672e-05
1.56431e-05
1.57149e-05
1.57826e-05
1.58459e-05
1.59048e-05
1.59592e-05
1.60089e-05
1.6054e-05
1.60942e-05
1.61295e-05
1.61599e-05
1.61854e-05
1.62058e-05
1.62211e-05
1.62313e-05
1.62365e-05
1.62364e-05
1.62313e-05
1.62211e-05
1.62058e-05
1.61854e-05
1.45943e-05
1.46961e-05
1.47953e-05
1.48916e-05
1.49849e-05
1.5075e-05
1.51616e-05
1.52446e-05
1.53239e-05
1.53993e-05
1.54707e-05
1.55379e-05
1.56008e-05
1.56594e-05
1.57134e-05
1.57628e-05
1.58076e-05
1.58476e-05
1.58827e-05
1.59129e-05
1.59382e-05
1.59585e-05
1.59737e-05
1.59839e-05
1.5989e-05
1.5989e-05
1.59839e-05
1.59737e-05
1.59585e-05
1.59382e-05
1.43567e-05
1.44578e-05
1.45562e-05
1.46519e-05
1.47445e-05
1.48339e-05
1.49199e-05
1.50023e-05
1.5081e-05
1.51559e-05
1.52268e-05
1.52936e-05
1.53561e-05
1.54142e-05
1.54679e-05
1.5517e-05
1.55615e-05
1.56012e-05
1.56361e-05
1.56662e-05
1.56913e-05
1.57114e-05
1.57266e-05
1.57367e-05
1.57417e-05
1.57417e-05
1.57367e-05
1.57266e-05
1.57114e-05
1.56913e-05
1.41198e-05
1.422e-05
1.43177e-05
1.44126e-05
1.45045e-05
1.45932e-05
1.46786e-05
1.47604e-05
1.48386e-05
1.49129e-05
1.49833e-05
1.50496e-05
1.51117e-05
1.51694e-05
1.52227e-05
1.52715e-05
1.53157e-05
1.53551e-05
1.53898e-05
1.54197e-05
1.54446e-05
1.54646e-05
1.54797e-05
1.54897e-05
1.54947e-05
1.54947e-05
1.54897e-05
1.54797e-05
1.54646e-05
1.54446e-05
1.38835e-05
1.39829e-05
1.40798e-05
1.4174e-05
1.42652e-05
1.43532e-05
1.44379e-05
1.45191e-05
1.45966e-05
1.46704e-05
1.47403e-05
1.48061e-05
1.48677e-05
1.4925e-05
1.4978e-05
1.50264e-05
1.50703e-05
1.51094e-05
1.51439e-05
1.51735e-05
1.51983e-05
1.52182e-05
1.52331e-05
1.52431e-05
1.52481e-05
1.52481e-05
1.52431e-05
1.52331e-05
1.52182e-05
1.51983e-05
1.36478e-05
1.37464e-05
1.38426e-05
1.39359e-05
1.40264e-05
1.41137e-05
1.41977e-05
1.42782e-05
1.43552e-05
1.44284e-05
1.44977e-05
1.4563e-05
1.46242e-05
1.46811e-05
1.47336e-05
1.47817e-05
1.48252e-05
1.48641e-05
1.48983e-05
1.49277e-05
1.49523e-05
1.49721e-05
1.49869e-05
1.49968e-05
1.50018e-05
1.50018e-05
1.49968e-05
1.49869e-05
1.49721e-05
1.49523e-05
1.3413e-05
1.35107e-05
1.3606e-05
1.36986e-05
1.37882e-05
1.38748e-05
1.39581e-05
1.4038e-05
1.41143e-05
1.41869e-05
1.42557e-05
1.43205e-05
1.43812e-05
1.44376e-05
1.44898e-05
1.45375e-05
1.45807e-05
1.46193e-05
1.46532e-05
1.46824e-05
1.47068e-05
1.47264e-05
1.47411e-05
1.4751e-05
1.47559e-05
1.47559e-05
1.4751e-05
1.47411e-05
1.47264e-05
1.47068e-05
1.31758e-05
1.32757e-05
1.33701e-05
1.34619e-05
1.35508e-05
1.36366e-05
1.37192e-05
1.37984e-05
1.38741e-05
1.39461e-05
1.40143e-05
1.40785e-05
1.41387e-05
1.41947e-05
1.42464e-05
1.42938e-05
1.43366e-05
1.43749e-05
1.44086e-05
1.44375e-05
1.44618e-05
1.44812e-05
1.44958e-05
1.45056e-05
1.45105e-05
1.45105e-05
1.45056e-05
1.44958e-05
1.44812e-05
1.44618e-05
1.29363e-05
1.30414e-05
1.31351e-05
1.3226e-05
1.33141e-05
1.33991e-05
1.3481e-05
1.35595e-05
1.36345e-05
1.37059e-05
1.37735e-05
1.38372e-05
1.38968e-05
1.39524e-05
1.40037e-05
1.40506e-05
1.40931e-05
1.41311e-05
1.41645e-05
1.41932e-05
1.42173e-05
1.42365e-05
1.4251e-05
1.42607e-05
1.42656e-05
1.42656e-05
1.42607e-05
1.4251e-05
1.42365e-05
1.42173e-05
1.29008e-05
1.29909e-05
1.30781e-05
1.31624e-05
1.32435e-05
1.33213e-05
1.33956e-05
1.34663e-05
1.35333e-05
1.35965e-05
1.36556e-05
1.37107e-05
1.39733e-05
1.39924e-05
1.40068e-05
1.40164e-05
1.40212e-05
1.40212e-05
1.40164e-05
1.40068e-05
1.39924e-05
1.39733e-05
2.94091e-05
2.94181e-05
2.94248e-05
2.94292e-05
2.94314e-05
2.94314e-05
2.94292e-05
2.94248e-05
2.94181e-05
2.94091e-05
2.93088e-05
2.93207e-05
2.93302e-05
2.93374e-05
2.93421e-05
2.93445e-05
2.93445e-05
2.93421e-05
2.93374e-05
2.93302e-05
2.93207e-05
2.93088e-05
2.92943e-05
2.92774e-05
2.9258e-05
2.9236e-05
2.92114e-05
2.91841e-05
2.91541e-05
2.91214e-05
2.90859e-05
2.91808e-05
2.91986e-05
2.92139e-05
2.92265e-05
2.92366e-05
2.92442e-05
2.92492e-05
2.92517e-05
2.92517e-05
2.92492e-05
2.92442e-05
2.92366e-05
2.92265e-05
2.92139e-05
2.91986e-05
2.91808e-05
2.91602e-05
2.9137e-05
2.91111e-05
2.90823e-05
2.90508e-05
2.90164e-05
2.89791e-05
2.89388e-05
2.88955e-05
2.88493e-05
2.87999e-05
2.90052e-05
2.90325e-05
2.90569e-05
2.90785e-05
2.90973e-05
2.91133e-05
2.91267e-05
2.91373e-05
2.91452e-05
2.91505e-05
2.91532e-05
2.91532e-05
2.91505e-05
2.91452e-05
2.91373e-05
2.91266e-05
2.91133e-05
2.90973e-05
2.90785e-05
2.90569e-05
2.90325e-05
2.90052e-05
2.8975e-05
2.8942e-05
2.89059e-05
2.88668e-05
2.88247e-05
2.87796e-05
2.87313e-05
2.86799e-05
2.86253e-05
2.85676e-05
2.85067e-05
2.88278e-05
2.88624e-05
2.88939e-05
2.89224e-05
2.8948e-05
2.89706e-05
2.89904e-05
2.90072e-05
2.90212e-05
2.90324e-05
2.90407e-05
2.90463e-05
2.90491e-05
2.90491e-05
2.90463e-05
2.90407e-05
2.90324e-05
2.90212e-05
2.90072e-05
2.89904e-05
2.89706e-05
2.8948e-05
2.89224e-05
2.88939e-05
2.88623e-05
2.88278e-05
2.87901e-05
2.87494e-05
2.87055e-05
2.86584e-05
2.86082e-05
2.85548e-05
2.84981e-05
2.84383e-05
2.83752e-05
2.83089e-05
2.82394e-05
2.81665e-05
2.86268e-05
2.86692e-05
2.87084e-05
2.87444e-05
2.87773e-05
2.88071e-05
2.88338e-05
2.88574e-05
2.8878e-05
2.88956e-05
2.89103e-05
2.8922e-05
2.89307e-05
2.89365e-05
2.89395e-05
2.89395e-05
2.89365e-05
2.89307e-05
2.8922e-05
2.89103e-05
2.88956e-05
2.8878e-05
2.88574e-05
2.88337e-05
2.8807e-05
2.87773e-05
2.87444e-05
2.87083e-05
2.86691e-05
2.86267e-05
2.85811e-05
2.85323e-05
2.84802e-05
2.84248e-05
2.83661e-05
2.83042e-05
2.8239e-05
2.81705e-05
2.80989e-05
2.80238e-05
2.84518e-05
2.84991e-05
2.85431e-05
2.85838e-05
2.86213e-05
2.86555e-05
2.86864e-05
2.87142e-05
2.87389e-05
2.87604e-05
2.87787e-05
2.8794e-05
2.88062e-05
2.88153e-05
2.88214e-05
2.88244e-05
2.88244e-05
2.88214e-05
2.88153e-05
2.88062e-05
2.8794e-05
2.87787e-05
2.87603e-05
2.87388e-05
2.87142e-05
2.86864e-05
2.86554e-05
2.86212e-05
2.85838e-05
2.85431e-05
2.84991e-05
2.84518e-05
2.84012e-05
2.83472e-05
2.829e-05
2.82293e-05
2.81654e-05
2.80982e-05
2.80276e-05
2.79539e-05
2.78766e-05
2.82653e-05
2.83176e-05
2.83666e-05
2.84121e-05
2.84543e-05
2.84931e-05
2.85285e-05
2.85607e-05
2.85896e-05
2.86151e-05
2.86375e-05
2.86566e-05
2.86725e-05
2.86852e-05
2.86947e-05
2.8701e-05
2.87041e-05
2.87041e-05
2.8701e-05
2.86946e-05
2.86851e-05
2.86725e-05
2.86566e-05
2.86375e-05
2.86151e-05
2.85895e-05
2.85607e-05
2.85285e-05
2.84931e-05
2.84542e-05
2.84121e-05
2.83665e-05
2.83176e-05
2.82653e-05
2.82096e-05
2.81505e-05
2.8088e-05
2.80221e-05
2.79529e-05
2.78803e-05
2.78045e-05
2.77252e-05
2.80673e-05
2.81248e-05
2.81787e-05
2.82292e-05
2.82763e-05
2.83198e-05
2.836e-05
2.83967e-05
2.843e-05
2.84599e-05
2.84864e-05
2.85095e-05
2.85293e-05
2.85458e-05
2.8559e-05
2.85688e-05
2.85754e-05
2.85787e-05
2.85787e-05
2.85754e-05
2.85688e-05
2.8559e-05
2.85458e-05
2.85293e-05
2.85095e-05
2.84864e-05
2.84598e-05
2.843e-05
2.83967e-05
2.836e-05
2.83198e-05
2.82762e-05
2.82292e-05
2.81787e-05
2.81247e-05
2.80673e-05
2.80064e-05
2.79421e-05
2.78744e-05
2.78032e-05
2.77287e-05
2.7651e-05
2.75697e-05
2.7858e-05
2.79206e-05
2.79797e-05
2.80352e-05
2.80872e-05
2.81357e-05
2.81807e-05
2.82221e-05
2.826e-05
2.82944e-05
2.83252e-05
2.83527e-05
2.83766e-05
2.83971e-05
2.84141e-05
2.84278e-05
2.8438e-05
2.84448e-05
2.84482e-05
2.84482e-05
2.84448e-05
2.8438e-05
2.84278e-05
2.84141e-05
2.83971e-05
2.83766e-05
2.83526e-05
2.83252e-05
2.82943e-05
2.826e-05
2.82221e-05
2.81806e-05
2.81357e-05
2.80872e-05
2.80352e-05
2.79796e-05
2.79205e-05
2.7858e-05
2.77919e-05
2.77223e-05
2.76493e-05
2.7573e-05
2.74933e-05
2.74102e-05
2.77052e-05
2.77694e-05
2.78301e-05
2.78872e-05
2.79407e-05
2.79906e-05
2.80368e-05
2.80795e-05
2.81186e-05
2.8154e-05
2.81859e-05
2.82141e-05
2.82388e-05
2.826e-05
2.82776e-05
2.82917e-05
2.83022e-05
2.83093e-05
2.83128e-05
2.83128e-05
2.83093e-05
2.83022e-05
2.82917e-05
2.82776e-05
2.826e-05
2.82388e-05
2.82141e-05
2.81858e-05
2.8154e-05
2.81185e-05
2.80795e-05
2.80368e-05
2.79906e-05
2.79407e-05
2.78872e-05
2.78301e-05
2.77694e-05
2.77052e-05
2.76374e-05
2.75661e-05
2.74913e-05
2.74132e-05
2.73317e-05
2.72467e-05
2.74788e-05
2.75482e-05
2.76141e-05
2.76763e-05
2.77349e-05
2.77898e-05
2.7841e-05
2.78885e-05
2.79324e-05
2.79725e-05
2.8009e-05
2.80418e-05
2.80709e-05
2.80964e-05
2.81182e-05
2.81363e-05
2.81508e-05
2.81617e-05
2.81689e-05
2.81726e-05
2.81726e-05
2.81689e-05
2.81617e-05
2.81508e-05
2.81363e-05
2.81182e-05
2.80964e-05
2.80709e-05
2.80418e-05
2.8009e-05
2.79725e-05
2.79324e-05
2.78885e-05
2.7841e-05
2.77897e-05
2.77348e-05
2.76763e-05
2.7614e-05
2.75482e-05
2.74788e-05
2.74058e-05
2.73294e-05
2.72495e-05
2.71662e-05
2.70795e-05
2.72416e-05
2.73162e-05
2.73872e-05
2.74546e-05
2.75183e-05
2.75783e-05
2.76345e-05
2.76871e-05
2.77358e-05
2.77808e-05
2.78221e-05
2.78595e-05
2.78932e-05
2.79231e-05
2.79493e-05
2.79717e-05
2.79904e-05
2.80053e-05
2.80165e-05
2.8024e-05
2.80277e-05