/*--------------------------------*- C++ -*----------------------------------*\
  =========                 |
  \\      /  F ield         | OpenFOAM: The Open Source CFD Toolbox
   \\    /   O peration     | Website:  https://openfoam.org
    \\  /    A nd           | Version:  7
     \\/     M anipulation  |
\*---------------------------------------------------------------------------*/
FoamFile
{
    version     2.0;
    format      ascii;
    class       volScalarField;
    location    "168000";
    object      p;
}
// * * * * * * * * * * * * * * * * * * * * * * * * * * * * * * * * * * * * * //

dimensions      [0 2 -2 0 0 0 0];

internalField   nonuniform List<scalar> 
4850
(
-1.20757e-18
-1.18972e-18
-1.20665e-18
-1.18727e-18
-1.19931e-18
-1.21567e-18
-1.20052e-18
-1.19684e-18
-1.19044e-18
-1.19077e-18
-1.20748e-18
-1.19885e-18
-1.19642e-18
-1.19706e-18
-1.18536e-18
-1.19367e-18
-1.20829e-18
-1.19921e-18
-1.18382e-18
-1.19657e-18
-1.18186e-18
-1.19184e-18
-1.18542e-18
-1.21872e-18
-1.203e-18
-1.18731e-18
-1.19992e-18
-1.19249e-18
-1.18218e-18
-1.19664e-18
-1.19673e-18
-1.21203e-18
-1.19673e-18
-1.19829e-18
-1.19657e-18
-1.18901e-18
-1.19017e-18
-1.18524e-18
-1.20382e-18
-1.20998e-18
-1.195e-18
-1.18642e-18
-1.18969e-18
-1.19804e-18
-1.20708e-18
-1.19713e-18
-1.18888e-18
-1.1914e-18
-1.19828e-18
-1.19685e-18
-1.19293e-18
-1.18774e-18
-1.19985e-18
-1.18769e-18
-1.18918e-18
-1.20309e-18
-1.19297e-18
-1.20357e-18
-1.20233e-18
-1.20488e-18
-1.19152e-18
-1.19657e-18
-1.19948e-18
-1.19398e-18
-1.19686e-18
-1.18812e-18
-1.19048e-18
-1.19434e-18
-1.17829e-18
-1.18134e-18
-1.18213e-18
-1.18407e-18
-1.18297e-18
-1.18038e-18
-1.20136e-18
-1.20365e-18
-1.19729e-18
-1.19362e-18
-1.19225e-18
-1.19854e-18
-1.21261e-18
-1.19275e-18
-1.19405e-18
-1.18622e-18
-1.18718e-18
-1.18679e-18
-1.18511e-18
-1.18882e-18
-1.17667e-18
-1.18231e-18
-1.18522e-18
-1.18406e-18
-1.18342e-18
-1.19878e-18
-1.20239e-18
-1.20635e-18
-1.19838e-18
-1.1974e-18
-1.18745e-18
-1.20425e-18
-1.20889e-18
-1.19944e-18
-1.19062e-18
-1.18525e-18
-1.1876e-18
-1.18218e-18
-1.19603e-18
-1.19102e-18
-1.18881e-18
-1.17825e-18
-1.18827e-18
-1.1816e-18
-1.17974e-18
-1.18478e-18
-1.17926e-18
-1.18695e-18
-1.18688e-18
-1.15513e-18
-1.20193e-18
-1.20552e-18
-1.19786e-18
-1.19717e-18
-1.18936e-18
-1.19234e-18
-1.1901e-18
-1.19306e-18
-1.19241e-18
-1.18833e-18
-1.1931e-18
-1.17637e-18
-1.19e-18
-1.18041e-18
-1.1906e-18
-1.17567e-18
-1.19501e-18
-1.1785e-18
-1.16287e-18
-1.17318e-18
-1.17812e-18
-1.17135e-18
-1.17294e-18
-1.13908e-18
-1.16057e-18
-1.17442e-18
-1.15009e-18
-1.12513e-18
-1.1443e-18
-1.19336e-18
-1.20988e-18
-1.1902e-18
-1.19794e-18
-1.18944e-18
-1.19471e-18
-1.1794e-18
-1.18919e-18
-1.19741e-18
-1.18697e-18
-1.17976e-18
-1.17877e-18
-1.19233e-18
-1.17131e-18
-1.20342e-18
-1.16606e-18
-1.1831e-18
-1.16379e-18
-1.15795e-18
-1.19202e-18
-1.17404e-18
-1.15432e-18
-1.16687e-18
-1.14041e-18
-1.16363e-18
-1.19224e-18
-1.15314e-18
-1.12375e-18
-1.14112e-18
-1.1291e-18
-1.09431e-18
-1.08341e-18
-1.18411e-18
-1.22027e-18
-1.19846e-18
-1.19017e-18
-1.19461e-18
-1.20675e-18
-1.19595e-18
-1.19431e-18
-1.19751e-18
-1.18543e-18
-1.18252e-18
-1.17801e-18
-1.18751e-18
-1.17138e-18
-1.20389e-18
-1.19173e-18
-1.182e-18
-1.17508e-18
-1.16188e-18
-1.18689e-18
-1.17625e-18
-1.17104e-18
-1.16318e-18
-1.15425e-18
-1.17123e-18
-1.1722e-18
-1.14838e-18
-1.12413e-18
-1.13828e-18
-1.1257e-18
-1.09998e-18
-1.07518e-18
-1.04814e-18
-1.08622e-18
-1.19627e-18
-1.20413e-18
-1.20086e-18
-1.20244e-18
-1.20642e-18
-1.20639e-18
-1.18258e-18
-1.19589e-18
-1.19231e-18
-1.18489e-18
-1.17736e-18
-1.16632e-18
-1.18453e-18
-1.17624e-18
-1.18742e-18
-1.1882e-18
-1.18038e-18
-1.18707e-18
-1.181e-18
-1.1834e-18
-1.17708e-18
-1.18801e-18
-1.15982e-18
-1.1571e-18
-1.15942e-18
-1.1798e-18
-1.14384e-18
-1.13376e-18
-1.13505e-18
-1.12505e-18
-1.0999e-18
-1.08944e-18
-1.021e-18
-1.10694e-18
-1.20285e-18
-1.20457e-18
-1.20116e-18
-1.20571e-18
-1.20015e-18
-1.20228e-18
-1.19028e-18
-1.19215e-18
-1.19334e-18
-1.18428e-18
-1.18108e-18
-1.18253e-18
-1.18633e-18
-1.18054e-18
-1.1815e-18
-1.19423e-18
-1.18137e-18
-1.19813e-18
-1.19023e-18
-1.18184e-18
-1.17461e-18
-1.17892e-18
-1.17376e-18
-1.15349e-18
-1.1609e-18
-1.18675e-18
-1.12907e-18
-1.15211e-18
-1.13936e-18
-1.13263e-18
-1.0864e-18
-1.10876e-18
-1.02957e-18
-1.12661e-18
-1.20503e-18
-1.2035e-18
-1.19982e-18
-1.21072e-18
-1.20135e-18
-1.19751e-18
-1.19003e-18
-1.18912e-18
-1.17983e-18
-1.18215e-18
-1.18631e-18
-1.1793e-18
-1.18988e-18
-1.18112e-18
-1.17913e-18
-1.18568e-18
-1.17987e-18
-1.1812e-18
-1.16166e-18
-1.17999e-18
-1.17015e-18
-1.1824e-18
-1.15783e-18
-1.1396e-18
-1.16981e-18
-1.15992e-18
-1.12721e-18
-1.14425e-18
-1.1478e-18
-1.12e-18
-1.09352e-18
-1.10552e-18
-1.03153e-18
-1.1106e-18
-1.21224e-18
-1.20337e-18
-1.1932e-18
-1.2161e-18
-1.19409e-18
-1.20109e-18
-1.19144e-18
-1.18769e-18
-1.1859e-18
-1.17444e-18
-1.17468e-18
-1.17849e-18
-1.18329e-18
-1.18061e-18
-1.17562e-18
-1.17928e-18
-1.18001e-18
-1.16576e-18
-1.15334e-18
-1.18266e-18
-1.16734e-18
-1.17614e-18
-1.17278e-18
-1.14416e-18
-1.15892e-18
-1.15325e-18
-1.14337e-18
-1.1387e-18
-1.13487e-18
-1.10216e-18
-1.09671e-18
-1.08769e-18
-1.02938e-18
-1.11536e-18
-1.22379e-18
-1.19384e-18
-1.19667e-18
-1.22061e-18
-1.18781e-18
-1.20679e-18
-1.187e-18
-1.18833e-18
-1.18602e-18
-1.16032e-18
-1.17254e-18
-1.18259e-18
-1.18071e-18
-1.17799e-18
-1.16308e-18
-1.18107e-18
-1.17472e-18
-1.17866e-18
-1.16681e-18
-1.19512e-18
-1.15571e-18
-1.16669e-18
-1.15513e-18
-1.16753e-18
-1.15669e-18
-1.15774e-18
-1.15836e-18
-1.13813e-18
-1.1319e-18
-1.10878e-18
-1.09512e-18
-1.08315e-18
-1.03037e-18
-1.10151e-18
-1.22381e-18
-1.20548e-18
-1.1974e-18
-1.20793e-18
-1.19175e-18
-1.20283e-18
-1.18476e-18
-1.18443e-18
-1.17701e-18
-1.16341e-18
-1.18095e-18
-1.16323e-18
-1.17809e-18
-1.17973e-18
-1.17371e-18
-1.18159e-18
-1.16289e-18
-1.16811e-18
-1.16124e-18
-1.1847e-18
-1.16716e-18
-1.15579e-18
-1.16192e-18
-1.16353e-18
-1.15776e-18
-1.15204e-18
-1.14579e-18
-1.13793e-18
-1.13406e-18
-1.1011e-18
-1.09575e-18
-1.08481e-18
-1.02747e-18
-1.08971e-18
-1.20733e-18
-1.21004e-18
-1.19666e-18
-1.20151e-18
-1.18905e-18
-1.20293e-18
-1.18728e-18
-1.19647e-18
-1.18639e-18
-1.16901e-18
-1.20224e-18
-1.15277e-18
-1.16694e-18
-1.18216e-18
-1.17724e-18
-1.18105e-18
-1.17768e-18
-1.17934e-18
-1.17635e-18
-1.18284e-18
-1.17245e-18
-1.16746e-18
-1.16676e-18
-1.16068e-18
-1.15379e-18
-1.14897e-18
-1.14362e-18
-1.13216e-18
-1.12796e-18
-1.11194e-18
-1.0996e-18
-1.08823e-18
-1.05439e-18
-1.09447e-18
-1.2085e-18
-1.21603e-18
-1.19906e-18
-1.19744e-18
-1.19266e-18
-1.19704e-18
-1.18848e-18
-1.19848e-18
-1.18678e-18
-1.17988e-18
-1.1979e-18
-1.16122e-18
-1.16555e-18
-1.18231e-18
-1.16725e-18
-1.19103e-18
-1.18171e-18
-1.1836e-18
-1.19243e-18
-1.18099e-18
-1.17682e-18
-1.1661e-18
-1.16739e-18
-1.16042e-18
-1.16181e-18
-1.14845e-18
-1.14229e-18
-1.12056e-18
-1.12855e-18
-1.11229e-18
-1.10071e-18
-1.09247e-18
-1.08016e-18
-1.0838e-18
-1.21575e-18
-1.21088e-18
-1.19231e-18
-1.20539e-18
-1.19994e-18
-1.20275e-18
-1.18259e-18
-1.19579e-18
-1.19096e-18
-1.19016e-18
-1.18641e-18
-1.16149e-18
-1.17716e-18
-1.17486e-18
-1.16437e-18
-1.1738e-18
-1.18408e-18
-1.1869e-18
-1.17736e-18
-1.18054e-18
-1.18441e-18
-1.15122e-18
-1.16664e-18
-1.16141e-18
-1.18603e-18
-1.15416e-18
-1.14302e-18
-1.13643e-18
-1.13706e-18
-1.10472e-18
-1.10136e-18
-1.09962e-18
-1.07666e-18
-1.07924e-18
-1.02669e-18
-1.20923e-18
-1.21917e-18
-1.1982e-18
-1.21048e-18
-1.19924e-18
-1.20174e-18
-1.19204e-18
-1.18327e-18
-1.20602e-18
-1.18233e-18
-1.18461e-18
-1.1728e-18
-1.18639e-18
-1.1664e-18
-1.16841e-18
-1.18255e-18
-1.1966e-18
-1.19669e-18
-1.16098e-18
-1.18462e-18
-1.16127e-18
-1.14688e-18
-1.16609e-18
-1.16329e-18
-1.16273e-18
-1.16421e-18
-1.14553e-18
-1.15107e-18
-1.12828e-18
-1.12659e-18
-1.10413e-18
-1.11859e-18
-1.07908e-18
-1.07467e-18
-1.04804e-18
-1.19668e-18
-1.2185e-18
-1.20053e-18
-1.20437e-18
-1.2039e-18
-1.20174e-18
-1.20602e-18
-1.18615e-18
-1.19849e-18
-1.17635e-18
-1.18634e-18
-1.17857e-18
-1.18357e-18
-1.16014e-18
-1.16844e-18
-1.17962e-18
-1.18515e-18
-1.1875e-18
-1.17007e-18
-1.19429e-18
-1.16756e-18
-1.1547e-18
-1.16587e-18
-1.16721e-18
-1.14882e-18
-1.15334e-18
-1.14042e-18
-1.14103e-18
-1.12408e-18
-1.12744e-18
-1.10699e-18
-1.12279e-18
-1.0841e-18
-1.10082e-18
-1.0755e-18
-1.20441e-18
-1.21285e-18
-1.1981e-18
-1.21235e-18
-1.19965e-18
-1.20091e-18
-1.19982e-18
-1.17903e-18
-1.19251e-18
-1.18252e-18
-1.18994e-18
-1.1785e-18
-1.17258e-18
-1.17515e-18
-1.17739e-18
-1.17309e-18
-1.172e-18
-1.18045e-18
-1.17641e-18
-1.18917e-18
-1.17428e-18
-1.18696e-18
-1.16685e-18
-1.16425e-18
-1.13704e-18
-1.1492e-18
-1.13836e-18
-1.13769e-18
-1.1199e-18
-1.13556e-18
-1.10779e-18
-1.11268e-18
-1.09651e-18
-1.10635e-18
-1.20906e-18
-1.22562e-18
-1.19271e-18
-1.21615e-18
-1.20098e-18
-1.19823e-18
-1.19552e-18
-1.19722e-18
-1.20021e-18
-1.18682e-18
-1.1822e-18
-1.18009e-18
-1.17853e-18
-1.17863e-18
-1.18037e-18
-1.17541e-18
-1.17589e-18
-1.18146e-18
-1.18078e-18
-1.1961e-18
-1.1755e-18
-1.19322e-18
-1.16596e-18
-1.16179e-18
-1.14569e-18
-1.15434e-18
-1.13966e-18
-1.14295e-18
-1.10985e-18
-1.13042e-18
-1.10936e-18
-1.11403e-18
-1.11031e-18
-1.10058e-18
-1.21165e-18
-1.23e-18
-1.19769e-18
-1.21046e-18
-1.20129e-18
-1.18687e-18
-1.19915e-18
-1.19309e-18
-1.19426e-18
-1.18806e-18
-1.18528e-18
-1.18369e-18
-1.17764e-18
-1.17965e-18
-1.18396e-18
-1.18142e-18
-1.19021e-18
-1.18097e-18
-1.18342e-18
-1.18474e-18
-1.17266e-18
-1.17771e-18
-1.16483e-18
-1.1584e-18
-1.14058e-18
-1.16404e-18
-1.14123e-18
-1.15411e-18
-1.1206e-18
-1.1319e-18
-1.11256e-18
-1.11399e-18
-1.10684e-18
-1.10122e-18
-1.20678e-18
-1.21968e-18
-1.18779e-18
-1.2089e-18
-1.2021e-18
-1.18826e-18
-1.19357e-18
-1.19505e-18
-1.17832e-18
-1.18868e-18
-1.18596e-18
-1.18985e-18
-1.17608e-18
-1.17397e-18
-1.1752e-18
-1.17312e-18
-1.19096e-18
-1.17938e-18
-1.18402e-18
-1.17926e-18
-1.16167e-18
-1.17069e-18
-1.16516e-18
-1.16268e-18
-1.15082e-18
-1.15446e-18
-1.14563e-18
-1.14382e-18
-1.12667e-18
-1.14286e-18
-1.11788e-18
-1.11473e-18
-1.11187e-18
-1.10838e-18
-1.20729e-18
-1.21312e-18
-1.20663e-18
-1.22043e-18
-1.20552e-18
-1.20296e-18
-1.18418e-18
-1.2111e-18
-1.19631e-18
-1.19045e-18
-1.19022e-18
-1.18694e-18
-1.18411e-18
-1.17456e-18
-1.17119e-18
-1.16517e-18
-1.17531e-18
-1.17625e-18
-1.17062e-18
-1.17928e-18
-1.17803e-18
-1.17155e-18
-1.16516e-18
-1.16352e-18
-1.15514e-18
-1.15047e-18
-1.15988e-18
-1.13937e-18
-1.12517e-18
-1.13209e-18
-1.12527e-18
-1.12596e-18
-1.11254e-18
-1.21307e-18
-1.2096e-18
-1.20246e-18
-1.21783e-18
-1.20365e-18
-1.20007e-18
-1.2001e-18
-1.20538e-18
-1.20291e-18
-1.19401e-18
-1.18851e-18
-1.18597e-18
-1.19047e-18
-1.17467e-18
-1.17792e-18
-1.17269e-18
-1.17332e-18
-1.16747e-18
-1.16651e-18
-1.18216e-18
-1.18207e-18
-1.17452e-18
-1.1647e-18
-1.16286e-18
-1.15695e-18
-1.14941e-18
-1.15993e-18
-1.14062e-18
-1.1217e-18
-1.12692e-18
-1.12149e-18
-1.13411e-18
-1.12298e-18
-1.21502e-18
-1.20456e-18
-1.20472e-18
-1.21158e-18
-1.20062e-18
-1.21501e-18
-1.19936e-18
-1.19439e-18
-1.20148e-18
-1.20139e-18
-1.18667e-18
-1.18639e-18
-1.18615e-18
-1.17521e-18
-1.17088e-18
-1.17139e-18
-1.17196e-18
-1.17069e-18
-1.17327e-18
-1.18433e-18
-1.1764e-18
-1.17968e-18
-1.16561e-18
-1.16255e-18
-1.15885e-18
-1.14674e-18
-1.14202e-18
-1.14182e-18
-1.12847e-18
-1.13918e-18
-1.12436e-18
-1.12983e-18
-1.21193e-18
-1.21667e-18
-1.2068e-18
-1.20096e-18
-1.19534e-18
-1.20589e-18
-1.19794e-18
-1.20074e-18
-1.2005e-18
-1.2038e-18
-1.18378e-18
-1.18282e-18
-1.17668e-18
-1.17513e-18
-1.17164e-18
-1.16799e-18
-1.18084e-18
-1.16747e-18
-1.17114e-18
-1.17796e-18
-1.17794e-18
-1.1781e-18
-1.16555e-18
-1.16228e-18
-1.16345e-18
-1.15156e-18
-1.1422e-18
-1.14614e-18
-1.13309e-18
-1.14122e-18
-1.12944e-18
-1.12807e-18
-1.20509e-18
-1.21371e-18
-1.20471e-18
-1.2121e-18
-1.20293e-18
-1.20041e-18
-1.18953e-18
-1.20325e-18
-1.19347e-18
-1.19598e-18
-1.18942e-18
-1.17181e-18
-1.18272e-18
-1.17716e-18
-1.17239e-18
-1.17721e-18
-1.17975e-18
-1.17293e-18
-1.16482e-18
-1.17619e-18
-1.17147e-18
-1.16959e-18
-1.16671e-18
-1.16163e-18
-1.16105e-18
-1.15609e-18
-1.14526e-18
-1.13782e-18
-1.13392e-18
-1.13682e-18
-1.11965e-18
-1.134e-18
-1.20192e-18
-1.20021e-18
-1.20674e-18
-1.22018e-18
-1.2083e-18
-1.2016e-18
-1.19886e-18
-1.20173e-18
-1.18768e-18
-1.19264e-18
-1.19382e-18
-1.1764e-18
-1.18397e-18
-1.17717e-18
-1.17239e-18
-1.16886e-18
-1.18132e-18
-1.17449e-18
-1.17083e-18
-1.17572e-18
-1.16682e-18
-1.173e-18
-1.168e-18
-1.16259e-18
-1.1649e-18
-1.15314e-18
-1.14602e-18
-1.14108e-18
-1.13415e-18
-1.12615e-18
-1.11935e-18
-1.12875e-18
-1.19979e-18
-1.20535e-18
-1.20035e-18
-1.22412e-18
-1.19807e-18
-1.20615e-18
-1.20001e-18
-1.20923e-18
-1.18449e-18
-1.19906e-18
-1.19553e-18
-1.18687e-18
-1.17867e-18
-1.17127e-18
-1.16653e-18
-1.16907e-18
-1.17653e-18
-1.17768e-18
-1.16839e-18
-1.17818e-18
-1.17463e-18
-1.16948e-18
-1.1577e-18
-1.1668e-18
-1.16393e-18
-1.15374e-18
-1.14659e-18
-1.14441e-18
-1.13443e-18
-1.14062e-18
-1.12553e-18
-1.13138e-18
-1.19194e-18
-1.22967e-18
-1.204e-18
-1.20885e-18
-1.19299e-18
-1.21703e-18
-1.20213e-18
-1.20571e-18
-1.19183e-18
-1.20284e-18
-1.19565e-18
-1.18961e-18
-1.17918e-18
-1.17093e-18
-1.17157e-18
-1.17085e-18
-1.17604e-18
-1.18157e-18
-1.15895e-18
-1.1796e-18
-1.17293e-18
-1.1684e-18
-1.15555e-18
-1.16229e-18
-1.15968e-18
-1.14459e-18
-1.14679e-18
-1.14823e-18
-1.12785e-18
-1.13929e-18
-1.12629e-18
-1.13555e-18
-1.19486e-18
-1.22418e-18
-1.2061e-18
-1.21168e-18
-1.20746e-18
-1.21355e-18
-1.20672e-18
-1.21996e-18
-1.2013e-18
-1.1911e-18
-1.20113e-18
-1.19638e-18
-1.1721e-18
-1.1755e-18
-1.17853e-18
-1.16479e-18
-1.17365e-18
-1.17422e-18
-1.16724e-18
-1.17722e-18
-1.17483e-18
-1.16789e-18
-1.16144e-18
-1.16034e-18
-1.16195e-18
-1.14561e-18
-1.14703e-18
-1.14222e-18
-1.12289e-18
-1.13403e-18
-1.12737e-18
-1.12827e-18
-1.20214e-18
-1.22891e-18
-1.20667e-18
-1.21867e-18
-1.19944e-18
-1.21101e-18
-1.19719e-18
-1.20844e-18
-1.20472e-18
-1.19114e-18
-1.19821e-18
-1.19144e-18
-1.18168e-18
-1.17634e-18
-1.17368e-18
-1.15922e-18
-1.17553e-18
-1.16189e-18
-1.17608e-18
-1.18125e-18
-1.16963e-18
-1.16733e-18
-1.16319e-18
-1.15639e-18
-1.15799e-18
-1.14358e-18
-1.14764e-18
-1.13724e-18
-1.13442e-18
-1.1392e-18
-1.12974e-18
-1.12379e-18
-1.19114e-18
-1.22382e-18
-1.20166e-18
-1.21844e-18
-1.20059e-18
-1.21361e-18
-1.19183e-18
-1.2068e-18
-1.20492e-18
-1.19539e-18
-1.19618e-18
-1.19387e-18
-1.18182e-18
-1.1717e-18
-1.1642e-18
-1.16079e-18
-1.18106e-18
-1.16433e-18
-1.16719e-18
-1.1772e-18
-1.16754e-18
-1.16868e-18
-1.16326e-18
-1.14832e-18
-1.15507e-18
-1.14585e-18
-1.14733e-18
-1.14275e-18
-1.14166e-18
-1.14153e-18
-1.13546e-18
-1.13585e-18
-1.20899e-18
-1.20952e-18
-1.2085e-18
-1.21829e-18
-1.20882e-18
-1.21456e-18
-1.2093e-18
-1.20625e-18
-1.1984e-18
-1.19716e-18
-1.19797e-18
-1.18435e-18
-1.18541e-18
-1.16522e-18
-1.16706e-18
-1.15553e-18
-1.18332e-18
-1.17093e-18
-1.17051e-18
-1.17975e-18
-1.16301e-18
-1.17219e-18
-1.1639e-18
-1.1623e-18
-1.16031e-18
-1.14384e-18
-1.14738e-18
-1.14975e-18
-1.14871e-18
-1.14237e-18
-1.13893e-18
-1.13761e-18
-1.20399e-18
-1.21983e-18
-1.20597e-18
-1.21902e-18
-1.22141e-18
-1.20561e-18
-1.22114e-18
-1.20274e-18
-1.19332e-18
-1.19345e-18
-1.19884e-18
-1.18116e-18
-1.18136e-18
-1.16104e-18
-1.17588e-18
-1.15518e-18
-1.17726e-18
-1.17144e-18
-1.17323e-18
-1.1785e-18
-1.15526e-18
-1.16781e-18
-1.1694e-18
-1.16199e-18
-1.16632e-18
-1.15126e-18
-1.14748e-18
-1.14626e-18
-1.15066e-18
-1.14124e-18
-1.13338e-18
-1.13279e-18
-1.20279e-18
-1.21956e-18
-1.20061e-18
-1.21172e-18
-1.20223e-18
-1.20882e-18
-1.21575e-18
-1.19551e-18
-1.18264e-18
-1.18259e-18
-1.18879e-18
-1.18225e-18
-1.16808e-18
-1.16872e-18
-1.18131e-18
-1.1612e-18
-1.17804e-18
-1.17151e-18
-1.16704e-18
-1.17363e-18
-1.16645e-18
-1.16584e-18
-1.16836e-18
-1.16101e-18
-1.16115e-18
-1.15792e-18
-1.15089e-18
-1.14422e-18
-1.14466e-18
-1.14001e-18
-1.1327e-18
-1.13037e-18
-1.20387e-18
-1.21097e-18
-1.20223e-18
-1.21746e-18
-1.19601e-18
-1.20684e-18
-1.2067e-18
-1.20817e-18
-1.19691e-18
-1.19025e-18
-1.19649e-18
-1.18543e-18
-1.1763e-18
-1.17221e-18
-1.17985e-18
-1.16349e-18
-1.17151e-18
-1.17658e-18
-1.17061e-18
-1.17808e-18
-1.16856e-18
-1.16716e-18
-1.16101e-18
-1.16133e-18
-1.15622e-18
-1.15441e-18
-1.15592e-18
-1.14351e-18
-1.14413e-18
-1.14406e-18
-1.13345e-18
-1.14211e-18
-1.20105e-18
-1.21962e-18
-1.21753e-18
-1.22317e-18
-1.21993e-18
-1.21885e-18
-1.2143e-18
-1.21444e-18
-1.20576e-18
-1.19887e-18
-1.20667e-18
-1.18682e-18
-1.17912e-18
-1.17174e-18
-1.17961e-18
-1.16618e-18
-1.177e-18
-1.17202e-18
-1.17006e-18
-1.17153e-18
-1.16683e-18
-1.17375e-18
-1.15679e-18
-1.16361e-18
-1.15792e-18
-1.15245e-18
-1.14134e-18
-1.13875e-18
-1.15208e-18
-1.14521e-18
-1.13996e-18
-1.15306e-18
-1.20539e-18
-1.20945e-18
-1.20946e-18
-1.2144e-18
-1.21549e-18
-1.21945e-18
-1.21999e-18
-1.21281e-18
-1.2094e-18
-1.2067e-18
-1.20321e-18
-1.19256e-18
-1.18356e-18
-1.16891e-18
-1.17538e-18
-1.17754e-18
-1.18988e-18
-1.16573e-18
-1.18097e-18
-1.17038e-18
-1.16452e-18
-1.17146e-18
-1.15642e-18
-1.15648e-18
-1.15792e-18
-1.15245e-18
-1.15148e-18
-1.14157e-18
-1.13928e-18
-1.1446e-18
-1.14214e-18
-1.15188e-18
-1.20913e-18
-1.21096e-18
-1.20937e-18
-1.21071e-18
-1.21905e-18
-1.20561e-18
-1.22259e-18
-1.21912e-18
-1.21295e-18
-1.20316e-18
-1.20011e-18
-1.19482e-18
-1.18984e-18
-1.17494e-18
-1.17793e-18
-1.16864e-18
-1.17979e-18
-1.16255e-18
-1.1831e-18
-1.16739e-18
-1.17472e-18
-1.16696e-18
-1.15369e-18
-1.15757e-18
-1.15659e-18
-1.1555e-18
-1.15205e-18
-1.1374e-18
-1.14433e-18
-1.15092e-18
-1.14369e-18
-1.2154e-18
-1.21432e-18
-1.19971e-18
-1.21459e-18
-1.22195e-18
-1.20662e-18
-1.21955e-18
-1.21748e-18
-1.20865e-18
-1.20575e-18
-1.20996e-18
-1.19061e-18
-1.19002e-18
-1.17369e-18
-1.16815e-18
-1.1654e-18
-1.17431e-18
-1.17217e-18
-1.18203e-18
-1.16335e-18
-1.17577e-18
-1.16439e-18
-1.15665e-18
-1.15886e-18
-1.15366e-18
-1.16507e-18
-1.15149e-18
-1.13552e-18
-1.14122e-18
-1.14969e-18
-1.14217e-18
-1.21403e-18
-1.2119e-18
-1.21709e-18
-1.21256e-18
-1.21472e-18
-1.21267e-18
-1.22978e-18
-1.21462e-18
-1.21202e-18
-1.20479e-18
-1.2159e-18
-1.20155e-18
-1.1814e-18
-1.17039e-18
-1.17106e-18
-1.16011e-18
-1.16937e-18
-1.16839e-18
-1.18064e-18
-1.16595e-18
-1.17467e-18
-1.16167e-18
-1.16549e-18
-1.15726e-18
-1.15162e-18
-1.15967e-18
-1.15263e-18
-1.14065e-18
-1.14758e-18
-1.15394e-18
-1.22262e-18
-1.19522e-18
-1.23296e-18
-1.2075e-18
-1.21535e-18
-1.2178e-18
-1.22416e-18
-1.21596e-18
-1.21239e-18
-1.21088e-18
-1.2119e-18
-1.19544e-18
-1.18501e-18
-1.176e-18
-1.17443e-18
-1.15875e-18
-1.17119e-18
-1.16409e-18
-1.18667e-18
-1.16751e-18
-1.17607e-18
-1.16139e-18
-1.16528e-18
-1.154e-18
-1.15686e-18
-1.15182e-18
-1.1571e-18
-1.14804e-18
-1.14286e-18
-1.14826e-18
-1.2133e-18
-1.19458e-18
-1.2175e-18
-1.20286e-18
-1.20849e-18
-1.21509e-18
-1.2207e-18
-1.21862e-18
-1.20809e-18
-1.20605e-18
-1.21172e-18
-1.19224e-18
-1.18233e-18
-1.17199e-18
-1.1706e-18
-1.16243e-18
-1.17531e-18
-1.16792e-18
-1.18812e-18
-1.16481e-18
-1.17839e-18
-1.15725e-18
-1.16878e-18
-1.15483e-18
-1.15615e-18
-1.14985e-18
-1.15433e-18
-1.13809e-18
-1.1393e-18
-1.14212e-18
-1.20493e-18
-1.20895e-18
-1.20663e-18
-1.20789e-18
-1.21671e-18
-1.21399e-18
-1.21453e-18
-1.21248e-18
-1.20806e-18
-1.20855e-18
-1.20491e-18
-1.19627e-18
-1.19034e-18
-1.17075e-18
-1.1716e-18
-1.16827e-18
-1.17864e-18
-1.17214e-18
-1.19431e-18
-1.16833e-18
-1.17594e-18
-1.16102e-18
-1.1717e-18
-1.15351e-18
-1.15727e-18
-1.15053e-18
-1.15394e-18
-1.14439e-18
-1.14487e-18
-1.14143e-18
-1.20532e-18
-1.20423e-18
-1.2076e-18
-1.20802e-18
-1.22524e-18
-1.21439e-18
-1.21151e-18
-1.2154e-18
-1.20484e-18
-1.21568e-18
-1.1939e-18
-1.19408e-18
-1.19875e-18
-1.1733e-18
-1.16825e-18
-1.16148e-18
-1.17654e-18
-1.1722e-18
-1.18868e-18
-1.16901e-18
-1.17737e-18
-1.15772e-18
-1.17115e-18
-1.15287e-18
-1.16177e-18
-1.15079e-18
-1.15555e-18
-1.15022e-18
-1.15201e-18
-1.14282e-18
-1.2e-18
-1.20658e-18
-1.21587e-18
-1.21198e-18
-1.2215e-18
-1.20871e-18
-1.21266e-18
-1.21436e-18
-1.21117e-18
-1.21795e-18
-1.20735e-18
-1.1903e-18
-1.18297e-18
-1.18099e-18
-1.16355e-18
-1.16286e-18
-1.18553e-18
-1.17449e-18
-1.19038e-18
-1.17161e-18
-1.17832e-18
-1.16365e-18
-1.1688e-18
-1.15271e-18
-1.16248e-18
-1.15046e-18
-1.15749e-18
-1.14974e-18
-1.14904e-18
-1.15196e-18
-1.21679e-18
-1.20737e-18
-1.21874e-18
-1.20691e-18
-1.22719e-18
-1.20257e-18
-1.21236e-18
-1.21782e-18
-1.20843e-18
-1.21058e-18
-1.20772e-18
-1.20084e-18
-1.19052e-18
-1.18035e-18
-1.17001e-18
-1.16486e-18
-1.1824e-18
-1.17287e-18
-1.1918e-18
-1.17035e-18
-1.18146e-18
-1.16879e-18
-1.17162e-18
-1.15455e-18
-1.15954e-18
-1.14945e-18
-1.14818e-18
-1.15194e-18
-1.14597e-18
-1.15886e-18
-1.2034e-18
-1.21042e-18
-1.20679e-18
-1.20508e-18
-1.23412e-18
-1.21535e-18
-1.21789e-18
-1.21887e-18
-1.20968e-18
-1.21059e-18
-1.21245e-18
-1.20843e-18
-1.20805e-18
-1.18118e-18
-1.17189e-18
-1.16321e-18
-1.18455e-18
-1.17031e-18
-1.18589e-18
-1.16653e-18
-1.18246e-18
-1.16609e-18
-1.16928e-18
-1.15706e-18
-1.16003e-18
-1.14668e-18
-1.14749e-18
-1.15442e-18
-1.14228e-18
-1.1567e-18
-1.2039e-18
-1.20257e-18
-1.21574e-18
-1.21767e-18
-1.23398e-18
-1.2133e-18
-1.22344e-18
-1.21605e-18
-1.20636e-18
-1.21197e-18
-1.21022e-18
-1.20871e-18
-1.20636e-18
-1.18004e-18
-1.18081e-18
-1.17198e-18
-1.1864e-18
-1.17679e-18
-1.19403e-18
-1.1673e-18
-1.1845e-18
-1.1642e-18
-1.16461e-18
-1.15188e-18
-1.16248e-18
-1.14919e-18
-1.15375e-18
-1.15749e-18
-1.14775e-18
-1.16578e-18
-1.21377e-18
-1.21629e-18
-1.22484e-18
-1.21875e-18
-1.23768e-18
-1.22004e-18
-1.22943e-18
-1.21612e-18
-1.21372e-18
-1.21217e-18
-1.20803e-18
-1.19925e-18
-1.19563e-18
-1.18364e-18
-1.18148e-18
-1.17992e-18
-1.18617e-18
-1.1767e-18
-1.1964e-18
-1.1737e-18
-1.18347e-18
-1.16308e-18
-1.16041e-18
-1.15728e-18
-1.16706e-18
-1.14968e-18
-1.15711e-18
-1.15812e-18
-1.15085e-18
-1.16059e-18
-1.22432e-18
-1.22029e-18
-1.22345e-18
-1.22191e-18
-1.22739e-18
-1.21773e-18
-1.22643e-18
-1.22132e-18
-1.22372e-18
-1.21112e-18
-1.20325e-18
-1.20353e-18
-1.19628e-18
-1.18549e-18
-1.18766e-18
-1.17784e-18
-1.18641e-18
-1.17711e-18
-1.19309e-18
-1.17486e-18
-1.18058e-18
-1.16559e-18
-1.16462e-18
-1.15386e-18
-1.16405e-18
-1.15495e-18
-1.16201e-18
-1.16176e-18
-1.15059e-18
-1.16345e-18
-1.22581e-18
-1.21482e-18
-1.22087e-18
-1.21952e-18
-1.22704e-18
-1.21765e-18
-1.22115e-18
-1.21405e-18
-1.22588e-18
-1.21133e-18
-1.20643e-18
-1.20388e-18
-1.20247e-18
-1.18831e-18
-1.18592e-18
-1.17935e-18
-1.18717e-18
-1.17541e-18
-1.19218e-18
-1.17392e-18
-1.17697e-18
-1.16764e-18
-1.16493e-18
-1.1581e-18
-1.16439e-18
-1.15006e-18
-1.16018e-18
-1.16154e-18
-1.15235e-18
-1.16465e-18
-1.22276e-18
-1.21825e-18
-1.20934e-18
-1.21027e-18
-1.22707e-18
-1.21864e-18
-1.20695e-18
-1.21562e-18
-1.23e-18
-1.22195e-18
-1.20552e-18
-1.20152e-18
-1.19819e-18
-1.1854e-18
-1.18028e-18
-1.17639e-18
-1.18711e-18
-1.17158e-18
-1.19361e-18
-1.18049e-18
-1.1751e-18
-1.17081e-18
-1.16129e-18
-1.15512e-18
-1.17207e-18
-1.154e-18
-1.15726e-18
-1.15891e-18
-1.15482e-18
-1.15877e-18
-1.22516e-18
-1.2153e-18
-1.21589e-18
-1.22286e-18
-1.22516e-18
-1.20666e-18
-1.21202e-18
-1.21699e-18
-1.22412e-18
-1.21948e-18
-1.20826e-18
-1.20049e-18
-1.1995e-18
-1.19026e-18
-1.19326e-18
-1.17573e-18
-1.19174e-18
-1.17743e-18
-1.19197e-18
-1.17743e-18
-1.17322e-18
-1.16741e-18
-1.16294e-18
-1.16088e-18
-1.17794e-18
-1.15862e-18
-1.15308e-18
-1.1578e-18
-1.14767e-18
-1.15372e-18
-1.21656e-18
-1.23127e-18
-1.212e-18
-1.21743e-18
-1.23155e-18
-1.20714e-18
-1.21959e-18
-1.21705e-18
-1.21991e-18
-1.21587e-18
-1.21476e-18
-1.20974e-18
-1.19447e-18
-1.19342e-18
-1.1909e-18
-1.17684e-18
-1.17872e-18
-1.17717e-18
-1.19901e-18
-1.17675e-18
-1.17403e-18
-1.16269e-18
-1.16054e-18
-1.16472e-18
-1.17282e-18
-1.15489e-18
-1.15394e-18
-1.16236e-18
-1.15203e-18
-1.15611e-18
-1.2054e-18
-1.22381e-18
-1.2064e-18
-1.21437e-18
-1.22478e-18
-1.20415e-18
-1.24012e-18
-1.2183e-18
-1.22362e-18
-1.20966e-18
-1.21352e-18
-1.21913e-18
-1.19691e-18
-1.19012e-18
-1.18756e-18
-1.18012e-18
-1.17372e-18
-1.17501e-18
-1.20188e-18
-1.17818e-18
-1.17504e-18
-1.16948e-18
-1.1645e-18
-1.1593e-18
-1.16713e-18
-1.15207e-18
-1.15844e-18
-1.16082e-18
-1.15335e-18
-1.15528e-18
-1.21954e-18
-1.2247e-18
-1.20904e-18
-1.21256e-18
-1.22747e-18
-1.22368e-18
-1.24539e-18
-1.21516e-18
-1.24035e-18
-1.20822e-18
-1.21478e-18
-1.20621e-18
-1.1964e-18
-1.19059e-18
-1.1831e-18
-1.17822e-18
-1.18265e-18
-1.17226e-18
-1.19059e-18
-1.17908e-18
-1.18122e-18
-1.16847e-18
-1.16713e-18
-1.16133e-18
-1.16592e-18
-1.159e-18
-1.1604e-18
-1.15825e-18
-1.15313e-18
-1.16023e-18
-1.21997e-18
-1.22604e-18
-1.21372e-18
-1.20926e-18
-1.24528e-18
-1.21279e-18
-1.23689e-18
-1.20461e-18
-1.23197e-18
-1.20717e-18
-1.23012e-18
-1.2035e-18
-1.20331e-18
-1.18734e-18
-1.17613e-18
-1.16982e-18
-1.18172e-18
-1.17391e-18
-1.18646e-18
-1.18089e-18
-1.17502e-18
-1.16592e-18
-1.17108e-18
-1.16306e-18
-1.16626e-18
-1.15804e-18
-1.16114e-18
-1.15957e-18
-1.15387e-18
-1.16458e-18
-1.21677e-18
-1.22285e-18
-1.2194e-18
-1.21003e-18
-1.23875e-18
-1.20947e-18
-1.22847e-18
-1.19659e-18
-1.23093e-18
-1.21124e-18
-1.22417e-18
-1.20271e-18
-1.21047e-18
-1.18155e-18
-1.17906e-18
-1.17354e-18
-1.18123e-18
-1.18005e-18
-1.18778e-18
-1.17894e-18
-1.16897e-18
-1.16806e-18
-1.16654e-18
-1.16325e-18
-1.16685e-18
-1.15682e-18
-1.16322e-18
-1.15597e-18
-1.15296e-18
-1.16092e-18
-1.2242e-18
-1.21393e-18
-1.22032e-18
-1.20652e-18
-1.22866e-18
-1.204e-18
-1.2296e-18
-1.21029e-18
-1.22498e-18
-1.20728e-18
-1.22875e-18
-1.19888e-18
-1.20124e-18
-1.18137e-18
-1.18934e-18
-1.18305e-18
-1.18463e-18
-1.17609e-18
-1.17961e-18
-1.17949e-18
-1.16895e-18
-1.17142e-18
-1.16085e-18
-1.16451e-18
-1.16896e-18
-1.15523e-18
-1.16679e-18
-1.15353e-18
-1.15674e-18
-1.15922e-18
-1.22261e-18
-1.22009e-18
-1.22396e-18
-1.20951e-18
-1.22554e-18
-1.19995e-18
-1.23272e-18
-1.21958e-18
-1.21861e-18
-1.1942e-18
-1.2199e-18
-1.19805e-18
-1.20341e-18
-1.19507e-18
-1.18287e-18
-1.18259e-18
-1.1882e-18
-1.1707e-18
-1.18133e-18
-1.18389e-18
-1.16986e-18
-1.16892e-18
-1.16102e-18
-1.16694e-18
-1.17263e-18
-1.16163e-18
-1.16597e-18
-1.15076e-18
-1.15682e-18
-1.15803e-18
-1.22136e-18
-1.2191e-18
-1.22324e-18
-1.21307e-18
-1.22789e-18
-1.20659e-18
-1.21906e-18
-1.22145e-18
-1.22223e-18
-1.20396e-18
-1.21091e-18
-1.20141e-18
-1.20701e-18
-1.19081e-18
-1.18698e-18
-1.17724e-18
-1.18741e-18
-1.1672e-18
-1.19396e-18
-1.18138e-18
-1.16569e-18
-1.16659e-18
-1.16688e-18
-1.16933e-18
-1.173e-18
-1.158e-18
-1.16797e-18
-1.15357e-18
-1.15459e-18
-1.15491e-18
-1.22393e-18
-1.20461e-18
-1.24234e-18
-1.20794e-18
-1.22659e-18
-1.23026e-18
-1.23428e-18
-1.21663e-18
-1.2047e-18
-1.19975e-18
-1.21214e-18
-1.18873e-18
-1.17308e-18
-1.16075e-18
-1.16907e-18
-1.16217e-18
-1.16898e-18
-1.15273e-18
-1.1633e-18
-1.15247e-18
-1.15358e-18
-1.15696e-18
-1.23586e-18
-1.23593e-18
-1.23679e-18
-1.23792e-18
-1.24611e-18
-1.23353e-18
-1.24214e-18
-1.24732e-18
-1.22524e-18
-1.24483e-18
-1.22699e-18
-1.23489e-18
-1.22485e-18
-1.23963e-18
-1.22197e-18
-1.22339e-18
-1.23922e-18
-1.25576e-18
-1.23354e-18
-1.23193e-18
-1.24076e-18
-1.2309e-18
-1.2279e-18
-1.23777e-18
-1.22001e-18
-1.23524e-18
-1.22207e-18
-1.23605e-18
-1.22938e-18
-1.22529e-18
-1.23883e-18
-1.2406e-18
-1.24606e-18
-1.23637e-18
-1.2432e-18
-1.25137e-18
-1.26425e-18
-1.23474e-18
-1.23168e-18
-1.24873e-18
-1.26404e-18
-1.22178e-18
-1.24194e-18
-1.25459e-18
-1.22298e-18
-1.24536e-18
-1.23627e-18
-1.22072e-18
-1.23997e-18
-1.24741e-18
-1.22897e-18
-1.213e-18
-1.20785e-18
-1.2286e-18
-1.23159e-18
-1.2146e-18
-1.20316e-18
-1.20094e-18
-1.25713e-18
-1.23948e-18
-1.22864e-18
-1.24477e-18
-1.25707e-18
-1.23714e-18
-1.25048e-18
-1.2462e-18
-1.24366e-18
-1.22985e-18
-1.22561e-18
-1.22583e-18
-1.23911e-18
-1.22865e-18
-1.22636e-18
-1.22423e-18
-1.23024e-18
-1.23656e-18
-1.23012e-18
-1.23818e-18
-1.25016e-18
-1.23333e-18
-1.21584e-18
-1.22551e-18
-1.21474e-18
-1.22257e-18
-1.22476e-18
-1.21261e-18
-1.24383e-18
-1.20417e-18
-1.21617e-18
-1.20789e-18
-1.21358e-18
-1.22181e-18
-1.2441e-18
-1.25469e-18
-1.24154e-18
-1.23524e-18
-1.25401e-18
-1.25955e-18
-1.22307e-18
-1.22952e-18
-1.24855e-18
-1.23666e-18
-1.24837e-18
-1.24973e-18
-1.24134e-18
-1.23406e-18
-1.23603e-18
-1.25867e-18
-1.23483e-18
-1.23323e-18
-1.22888e-18
-1.21087e-18
-1.25025e-18
-1.23888e-18
-1.21971e-18
-1.22513e-18
-1.23294e-18
-1.23906e-18
-1.21297e-18
-1.2273e-18
-1.23822e-18
-1.23401e-18
-1.21778e-18
-1.21665e-18
-1.21847e-18
-1.23929e-18
-1.20903e-18
-1.19925e-18
-1.21438e-18
-1.24462e-18
-1.24729e-18
-1.23701e-18
-1.26261e-18
-1.24434e-18
-1.24013e-18
-1.22699e-18
-1.24143e-18
-1.25703e-18
-1.22998e-18
-1.23489e-18
-1.2332e-18
-1.22696e-18
-1.24734e-18
-1.24639e-18
-1.27158e-18
-1.24053e-18
-1.2422e-18
-1.24832e-18
-1.24689e-18
-1.23648e-18
-1.21938e-18
-1.23043e-18
-1.24836e-18
-1.23454e-18
-1.22782e-18
-1.21791e-18
-1.22922e-18
-1.21773e-18
-1.22615e-18
-1.23758e-18
-1.25327e-18
-1.24784e-18
-1.22499e-18
-1.22346e-18
-1.22483e-18
-1.22245e-18
-1.21216e-18
-1.21522e-18
-1.20723e-18
-1.23987e-18
-1.23991e-18
-1.23795e-18
-1.23309e-18
-1.25003e-18
-1.24049e-18
-1.23426e-18
-1.23465e-18
-1.23636e-18
-1.2564e-18
-1.22346e-18
-1.23572e-18
-1.22019e-18
-1.23651e-18
-1.26271e-18
-1.24756e-18
-1.27117e-18
-1.24091e-18
-1.24631e-18
-1.25645e-18
-1.23988e-18
-1.24976e-18
-1.22163e-18
-1.23476e-18
-1.22424e-18
-1.23262e-18
-1.23329e-18
-1.22079e-18
-1.23428e-18
-1.22454e-18
-1.2389e-18
-1.23284e-18
-1.2378e-18
-1.23479e-18
-1.23204e-18
-1.22782e-18
-1.21757e-18
-1.20943e-18
-1.21071e-18
-1.21695e-18
-1.22469e-18
-1.22518e-18
-1.23457e-18
-1.24334e-18
-1.23412e-18
-1.22447e-18
-1.2549e-18
-1.23943e-18
-1.22549e-18
-1.23796e-18
-1.22487e-18
-1.24982e-18
-1.23279e-18
-1.23951e-18
-1.26164e-18
-1.24229e-18
-1.24938e-18
-1.26331e-18
-1.24721e-18
-1.23506e-18
-1.25562e-18
-1.21524e-18
-1.23835e-18
-1.25191e-18
-1.2337e-18
-1.23612e-18
-1.23011e-18
-1.22731e-18
-1.24087e-18
-1.23592e-18
-1.23981e-18
-1.21817e-18
-1.23251e-18
-1.22911e-18
-1.21727e-18
-1.22409e-18
-1.22286e-18
-1.23003e-18
-1.2154e-18
-1.20536e-18
-1.21292e-18
-1.21733e-18
-1.19892e-18
-1.24524e-18
-1.22488e-18
-1.23485e-18
-1.22767e-18
-1.23368e-18
-1.23107e-18