/*--------------------------------*- C++ -*----------------------------------*\
  =========                 |
  \\      /  F ield         | OpenFOAM: The Open Source CFD Toolbox
   \\    /   O peration     | Website:  https://openfoam.org
    \\  /    A nd           | Version:  7
     \\/     M anipulation  |
\*---------------------------------------------------------------------------*/
FoamFile
{
    version     2.0;
    format      ascii;
    class       volScalarField;
    location    "120000";
    object      nut;
}
// * * * * * * * * * * * * * * * * * * * * * * * * * * * * * * * * * * * * * //

dimensions      [0 2 -1 0 0 0 0];

internalField   nonuniform List<scalar> 
4850
(
2.80197e-05
2.80948e-05
2.78727e-05
2.79499e-05
2.80236e-05
2.77213e-05
2.78006e-05
2.78764e-05
2.79489e-05
2.80181e-05
2.75659e-05
2.76471e-05
2.77248e-05
2.77993e-05
2.78704e-05
2.79381e-05
2.74064e-05
2.74895e-05
2.75692e-05
2.76455e-05
2.77184e-05
2.77879e-05
2.7854e-05
2.7243e-05
2.7328e-05
2.74094e-05
2.74875e-05
2.75623e-05
2.76335e-05
2.77013e-05
2.77655e-05
2.78262e-05
2.70758e-05
2.71625e-05
2.72457e-05
2.73256e-05
2.7402e-05
2.7475e-05
2.75444e-05
2.76102e-05
2.76724e-05
2.77309e-05
2.6905e-05
2.69934e-05
2.70783e-05
2.71598e-05
2.72379e-05
2.73124e-05
2.73834e-05
2.74508e-05
2.75144e-05
2.75744e-05
2.76307e-05
2.76832e-05
2.77319e-05
2.77769e-05
2.67306e-05
2.68206e-05
2.69071e-05
2.69902e-05
2.70699e-05
2.7146e-05
2.72185e-05
2.72873e-05
2.73524e-05
2.74138e-05
2.74713e-05
2.75251e-05
2.7575e-05
2.76211e-05
2.76634e-05
2.77018e-05
2.77363e-05
2.7767e-05
2.65527e-05
2.66443e-05
2.67324e-05
2.6817e-05
2.68982e-05
2.69758e-05
2.70497e-05
2.712e-05
2.71865e-05
2.72491e-05
2.7308e-05
2.73629e-05
2.7414e-05
2.74612e-05
2.75044e-05
2.75437e-05
2.75791e-05
2.76105e-05
2.7638e-05
2.76616e-05
2.63716e-05
2.64646e-05
2.65542e-05
2.66403e-05
2.67229e-05
2.68019e-05
2.68773e-05
2.69489e-05
2.70167e-05
2.70806e-05
2.71406e-05
2.71968e-05
2.72489e-05
2.72971e-05
2.73413e-05
2.73815e-05
2.74177e-05
2.74499e-05
2.7478e-05
2.75021e-05
2.75222e-05
2.75383e-05
2.75504e-05
2.75584e-05
2.61872e-05
2.62817e-05
2.63726e-05
2.64602e-05
2.65442e-05
2.66246e-05
2.67012e-05
2.67741e-05
2.68432e-05
2.69083e-05
2.69695e-05
2.70268e-05
2.708e-05
2.71292e-05
2.71743e-05
2.72153e-05
2.72523e-05
2.72851e-05
2.73139e-05
2.73385e-05
2.73591e-05
2.73755e-05
2.73879e-05
2.73961e-05
2.74002e-05
2.74002e-05
2.73961e-05
2.73879e-05
2.73755e-05
2.59997e-05
2.60955e-05
2.61878e-05
2.62767e-05
2.63621e-05
2.64437e-05
2.65217e-05
2.65958e-05
2.66661e-05
2.67324e-05
2.67947e-05
2.6853e-05
2.69072e-05
2.69574e-05
2.70034e-05
2.70452e-05
2.70829e-05
2.71164e-05
2.71458e-05
2.71709e-05
2.71919e-05
2.72087e-05
2.72213e-05
2.72297e-05
2.72339e-05
2.72339e-05
2.72297e-05
2.72213e-05
2.72087e-05
2.71919e-05
2.7171e-05
2.71458e-05
2.58092e-05
2.59063e-05
2.59999e-05
2.60901e-05
2.61767e-05
2.62596e-05
2.63388e-05
2.64141e-05
2.64855e-05
2.6553e-05
2.66164e-05
2.66757e-05
2.67308e-05
2.67819e-05
2.68287e-05
2.68713e-05
2.69097e-05
2.69439e-05
2.69738e-05
2.69995e-05
2.70208e-05
2.7038e-05
2.70508e-05
2.70594e-05
2.70636e-05
2.70636e-05
2.70594e-05
2.70508e-05
2.7038e-05
2.70209e-05
2.69995e-05
2.69738e-05
2.69439e-05
2.69098e-05
2.56157e-05
2.57141e-05
2.58089e-05
2.59003e-05
2.59882e-05
2.60723e-05
2.61526e-05
2.62291e-05
2.63016e-05
2.63701e-05
2.64345e-05
2.64948e-05
2.65509e-05
2.66028e-05
2.66504e-05
2.66938e-05
2.67329e-05
2.67677e-05
2.67981e-05
2.68242e-05
2.6846e-05
2.68634e-05
2.68765e-05
2.68852e-05
2.68896e-05
2.68896e-05
2.68852e-05
2.68765e-05
2.68634e-05
2.6846e-05
2.68242e-05
2.67981e-05
2.67677e-05
2.67329e-05
2.54195e-05
2.5519e-05
2.56151e-05
2.57076e-05
2.57966e-05
2.58818e-05
2.59633e-05
2.60409e-05
2.61144e-05
2.61839e-05
2.62493e-05
2.63105e-05
2.63675e-05
2.64202e-05
2.64686e-05
2.65127e-05
2.65525e-05
2.65878e-05
2.66188e-05
2.66453e-05
2.66675e-05
2.66852e-05
2.66985e-05
2.67074e-05
2.67118e-05
2.67118e-05
2.67074e-05
2.66985e-05
2.66852e-05
2.66675e-05
2.66454e-05
2.66188e-05
2.65878e-05
2.65525e-05
2.52206e-05
2.53212e-05
2.54184e-05
2.5512e-05
2.56021e-05
2.56884e-05
2.57709e-05
2.58495e-05
2.59241e-05
2.59946e-05
2.60609e-05
2.6123e-05
2.61808e-05
2.62343e-05
2.62834e-05
2.63282e-05
2.63686e-05
2.64045e-05
2.64359e-05
2.64629e-05
2.64854e-05
2.65035e-05
2.6517e-05
2.6526e-05
2.65305e-05
2.65305e-05
2.6526e-05
2.6517e-05
2.65035e-05
2.64854e-05
2.64629e-05
2.64359e-05
2.64045e-05
2.63686e-05
2.50191e-05
2.51207e-05
2.52189e-05
2.53136e-05
2.54048e-05
2.54921e-05
2.55756e-05
2.56552e-05
2.57307e-05
2.58021e-05
2.58693e-05
2.59322e-05
2.59909e-05
2.60451e-05
2.6095e-05
2.61404e-05
2.61813e-05
2.62178e-05
2.62497e-05
2.62771e-05
2.62999e-05
2.63182e-05
2.6332e-05
2.63411e-05
2.63457e-05
2.63457e-05
2.63411e-05
2.6332e-05
2.63182e-05
2.63e-05
2.62771e-05
2.62497e-05
2.62178e-05
2.61813e-05
2.4815e-05
2.49177e-05
2.50169e-05
2.51126e-05
2.52047e-05
2.5293e-05
2.53775e-05
2.5458e-05
2.55344e-05
2.56067e-05
2.56747e-05
2.57384e-05
2.57978e-05
2.58528e-05
2.59033e-05
2.59493e-05
2.59908e-05
2.60278e-05
2.60602e-05
2.6088e-05
2.61111e-05
2.61297e-05
2.61436e-05
2.61529e-05
2.61576e-05
2.61576e-05
2.61529e-05
2.61436e-05
2.61297e-05
2.61111e-05
2.6088e-05
2.60602e-05
2.60278e-05
2.59909e-05
2.46086e-05
2.47122e-05
2.48123e-05
2.4909e-05
2.5002e-05
2.50912e-05
2.51766e-05
2.5258e-05
2.53353e-05
2.54084e-05
2.54772e-05
2.55417e-05
2.56018e-05
2.56574e-05
2.57086e-05
2.57552e-05
2.57972e-05
2.58347e-05
2.58675e-05
2.58956e-05
2.59191e-05
2.59379e-05
2.5952e-05
2.59614e-05
2.59662e-05
2.59662e-05
2.59615e-05
2.5952e-05
2.59379e-05
2.59191e-05
2.58956e-05
2.58675e-05
2.58347e-05
2.57973e-05
2.43998e-05
2.45043e-05
2.46053e-05
2.47029e-05
2.47968e-05
2.48869e-05
2.49731e-05
2.50553e-05
2.51334e-05
2.52073e-05
2.52769e-05
2.53421e-05
2.54029e-05
2.54592e-05
2.55109e-05
2.55581e-05
2.56006e-05
2.56385e-05
2.56717e-05
2.57002e-05
2.5724e-05
2.5743e-05
2.57573e-05
2.57669e-05
2.57716e-05
2.57716e-05
2.57669e-05
2.57573e-05
2.5743e-05
2.5724e-05
2.57002e-05
2.56717e-05
2.56385e-05
2.56006e-05
2.41889e-05
2.42942e-05
2.4396e-05
2.44944e-05
2.45891e-05
2.468e-05
2.47671e-05
2.485e-05
2.49289e-05
2.50035e-05
2.50738e-05
2.51397e-05
2.52011e-05
2.5258e-05
2.53104e-05
2.5358e-05
2.54011e-05
2.54394e-05
2.5473e-05
2.55018e-05
2.55259e-05
2.55451e-05
2.55596e-05
2.55693e-05
2.55741e-05
2.55741e-05
2.55693e-05
2.55596e-05
2.55451e-05
2.55259e-05
2.55018e-05
2.5473e-05
2.54394e-05
2.54011e-05
2.39758e-05
2.40819e-05
2.41845e-05
2.42836e-05
2.43791e-05
2.44708e-05
2.45586e-05
2.46423e-05
2.47219e-05
2.47972e-05
2.48681e-05
2.49347e-05
2.49967e-05
2.50542e-05
2.5107e-05
2.51552e-05
2.51987e-05
2.52374e-05
2.52714e-05
2.53005e-05
2.53249e-05
2.53443e-05
2.5359e-05
2.53687e-05
2.53736e-05
2.53736e-05
2.53687e-05
2.5359e-05
2.53444e-05
2.53249e-05
2.53006e-05
2.52714e-05
2.52375e-05
2.51987e-05
2.51553e-05
2.37606e-05
2.38674e-05
2.39708e-05
2.40706e-05
2.41668e-05
2.42593e-05
2.43477e-05
2.44322e-05
2.45124e-05
2.45884e-05
2.466e-05
2.47271e-05
2.47897e-05
2.48477e-05
2.49011e-05
2.49497e-05
2.49936e-05
2.50328e-05
2.50671e-05
2.50965e-05
2.51211e-05
2.51408e-05
2.51555e-05
2.51654e-05
2.51703e-05
2.51703e-05
2.51654e-05
2.51555e-05
2.51408e-05
2.51211e-05
2.50965e-05
2.50671e-05
2.50328e-05
2.49937e-05
2.49498e-05
2.35436e-05
2.3651e-05
2.3755e-05
2.38555e-05
2.39524e-05
2.40455e-05
2.41347e-05
2.42197e-05
2.43006e-05
2.43772e-05
2.44494e-05
2.45171e-05
2.45802e-05
2.46387e-05
2.46926e-05
2.47417e-05
2.4786e-05
2.48254e-05
2.48601e-05
2.48898e-05
2.49146e-05
2.49345e-05
2.49494e-05
2.49593e-05
2.49643e-05
2.49643e-05
2.49593e-05
2.49494e-05
2.49345e-05
2.49146e-05
2.48898e-05
2.48601e-05
2.48255e-05
2.4786e-05
2.47417e-05
2.33246e-05
2.34327e-05
2.35373e-05
2.36384e-05
2.3736e-05
2.38297e-05
2.39194e-05
2.40051e-05
2.40865e-05
2.41637e-05
2.42364e-05
2.43047e-05
2.43683e-05
2.44273e-05
2.44816e-05
2.45311e-05
2.45758e-05
2.46156e-05
2.46505e-05
2.46805e-05
2.47055e-05
2.47256e-05
2.47406e-05
2.47507e-05
2.47557e-05
2.47557e-05
2.47507e-05
2.47406e-05
2.47256e-05
2.47055e-05
2.46805e-05
2.46505e-05
2.46156e-05
2.45758e-05
2.31039e-05
2.32125e-05
2.33177e-05
2.34194e-05
2.35175e-05
2.36118e-05
2.37021e-05
2.37883e-05
2.38703e-05
2.3948e-05
2.40213e-05
2.409e-05
2.41541e-05
2.42135e-05
2.42682e-05
2.43181e-05
2.43632e-05
2.44033e-05
2.44385e-05
2.44687e-05
2.4494e-05
2.45142e-05
2.45294e-05
2.45395e-05
2.45445e-05
2.45445e-05
2.45395e-05
2.45294e-05
2.45142e-05
2.4494e-05
2.44687e-05
2.44385e-05
2.44033e-05
2.43632e-05
2.28815e-05
2.29906e-05
2.30963e-05
2.31986e-05
2.32972e-05
2.3392e-05
2.34828e-05
2.35696e-05
2.36521e-05
2.37302e-05
2.3804e-05
2.38731e-05
2.39377e-05
2.39975e-05
2.40526e-05
2.41029e-05
2.41482e-05
2.41887e-05
2.42241e-05
2.42546e-05
2.428e-05
2.43004e-05
2.43157e-05
2.43259e-05
2.4331e-05
2.4331e-05
2.43259e-05
2.43157e-05
2.43004e-05
2.428e-05
2.42546e-05
2.42242e-05
2.41887e-05
2.41483e-05
2.26574e-05
2.2767e-05
2.28732e-05
2.29759e-05
2.3075e-05
2.31703e-05
2.32616e-05
2.33489e-05
2.34318e-05
2.35104e-05
2.35846e-05
2.36542e-05
2.37192e-05
2.37794e-05
2.38348e-05
2.38854e-05
2.39311e-05
2.39718e-05
2.40075e-05
2.40382e-05
2.40638e-05
2.40843e-05
2.40997e-05
2.411e-05
2.41151e-05
2.41151e-05
2.411e-05
2.40997e-05
2.40843e-05
2.40638e-05
2.40382e-05
2.40075e-05
2.39718e-05
2.39311e-05
2.24319e-05
2.25419e-05
2.26485e-05
2.27517e-05
2.28512e-05
2.29469e-05
2.30387e-05
2.31263e-05
2.32097e-05
2.32887e-05
2.33633e-05
2.34333e-05
2.34986e-05
2.35592e-05
2.3615e-05
2.36659e-05
2.37118e-05
2.37528e-05
2.37887e-05
2.38196e-05
2.38454e-05
2.3866e-05
2.38815e-05
2.38918e-05
2.3897e-05
2.3897e-05
2.38918e-05
2.38815e-05
2.3866e-05
2.38454e-05
2.38196e-05
2.37887e-05
2.37528e-05
2.22049e-05
2.23152e-05
2.24222e-05
2.25258e-05
2.26257e-05
2.27218e-05
2.2814e-05
2.2902e-05
2.29858e-05
2.30652e-05
2.31401e-05
2.32105e-05
2.32761e-05
2.3337e-05
2.33931e-05
2.34443e-05
2.34905e-05
2.35317e-05
2.35678e-05
2.35989e-05
2.36248e-05
2.36456e-05
2.36612e-05
2.36716e-05
2.36768e-05
2.36768e-05
2.36716e-05
2.36612e-05
2.36456e-05
2.36248e-05
2.35989e-05
2.35678e-05
2.35317e-05
2.19765e-05
2.20872e-05
2.21945e-05
2.22984e-05
2.23987e-05
2.24951e-05
2.25876e-05
2.2676e-05
2.27601e-05
2.28399e-05
2.29152e-05
2.29858e-05
2.30518e-05
2.3113e-05
2.31693e-05
2.32208e-05
2.32672e-05
2.33086e-05
2.3345e-05
2.33762e-05
2.34022e-05
2.34231e-05
2.34388e-05
2.34493e-05
2.34545e-05
2.34545e-05
2.34493e-05
2.34388e-05
2.34231e-05
2.34022e-05
2.33762e-05
2.3345e-05
2.17468e-05
2.18578e-05
2.19654e-05
2.20696e-05
2.21702e-05
2.22669e-05
2.23598e-05
2.24484e-05
2.25329e-05
2.26129e-05
2.26885e-05
2.27594e-05
2.28257e-05
2.28872e-05
2.29437e-05
2.29954e-05
2.30421e-05
2.30837e-05
2.31202e-05
2.31516e-05
2.31778e-05
2.31987e-05
2.32145e-05
2.3225e-05
2.32303e-05
2.32303e-05
2.3225e-05
2.32145e-05
2.31987e-05
2.31778e-05
2.31516e-05
2.31202e-05
2.15159e-05
2.16271e-05
2.1735e-05
2.18394e-05
2.19403e-05
2.20373e-05
2.21304e-05
2.22194e-05
2.23041e-05
2.23844e-05
2.24602e-05
2.25314e-05
2.25979e-05
2.26596e-05
2.27164e-05
2.27683e-05
2.28152e-05
2.28569e-05
2.28936e-05
2.29251e-05
2.29514e-05
2.29725e-05
2.29883e-05
2.29989e-05
2.30042e-05
2.30042e-05
2.29989e-05
2.29883e-05
2.29725e-05
2.29514e-05
2.29251e-05
2.28936e-05
2.12839e-05
2.13953e-05
2.15033e-05
2.1608e-05
2.17091e-05
2.18063e-05
2.18997e-05
2.19889e-05
2.20738e-05
2.21544e-05
2.22304e-05
2.23018e-05
2.23685e-05
2.24304e-05
2.24875e-05
2.25395e-05
2.25865e-05
2.26285e-05
2.26653e-05
2.26969e-05
2.27233e-05
2.27445e-05
2.27604e-05
2.2771e-05
2.27763e-05
2.27763e-05
2.2771e-05
2.27604e-05
2.27445e-05
2.27233e-05
2.26969e-05
2.26653e-05
2.10508e-05
2.11623e-05
2.12706e-05
2.13754e-05
2.14766e-05
2.15741e-05
2.16676e-05
2.1757e-05
2.18421e-05
2.19229e-05
2.19991e-05
2.20708e-05
2.21377e-05
2.21997e-05
2.22569e-05
2.23092e-05
2.23563e-05
2.23984e-05
2.24353e-05
2.24671e-05
2.24936e-05
2.25148e-05
2.25308e-05
2.25414e-05
2.25468e-05
2.25468e-05
2.25414e-05
2.25308e-05
2.25148e-05
2.24936e-05
2.24671e-05
2.24354e-05
2.08167e-05
2.09283e-05
2.10367e-05
2.11416e-05
2.1243e-05
2.13406e-05
2.14343e-05
2.15239e-05
2.16092e-05
2.16901e-05
2.17665e-05
2.18383e-05
2.19053e-05
2.19676e-05
2.20249e-05
2.20773e-05
2.21246e-05
2.21668e-05
2.22038e-05
2.22357e-05
2.22623e-05
2.22836e-05
2.22996e-05
2.23102e-05
2.23156e-05
2.23156e-05
2.23102e-05
2.22996e-05
2.22836e-05
2.22623e-05
2.22357e-05
2.22039e-05
2.05817e-05
2.06934e-05
2.08018e-05
2.09069e-05
2.10083e-05
2.11061e-05
2.11998e-05
2.12895e-05
2.1375e-05
2.1456e-05
2.15326e-05
2.16045e-05
2.16717e-05
2.17341e-05
2.17915e-05
2.1844e-05
2.18914e-05
2.19337e-05
2.19709e-05
2.20028e-05
2.20294e-05
2.20508e-05
2.20668e-05
2.20775e-05
2.20829e-05
2.20829e-05
2.20775e-05
2.20668e-05
2.20508e-05
2.20294e-05
2.20028e-05
2.19709e-05
2.03459e-05
2.04576e-05
2.0566e-05
2.06711e-05
2.07727e-05
2.08704e-05
2.09643e-05
2.10541e-05
2.11396e-05
2.12208e-05
2.12974e-05
2.13694e-05
2.14367e-05
2.14992e-05
2.15568e-05
2.16094e-05
2.16569e-05
2.16993e-05
2.17365e-05
2.17685e-05
2.17952e-05
2.18166e-05
2.18327e-05
2.18434e-05
2.18488e-05
2.18488e-05
2.18434e-05
2.18327e-05
2.18166e-05
2.17952e-05
2.17685e-05
2.17365e-05
2.01092e-05
2.02209e-05
2.03293e-05
2.04345e-05
2.0536e-05
2.06339e-05
2.07278e-05
2.08176e-05
2.09032e-05
2.09844e-05
2.10611e-05
2.11332e-05
2.12006e-05
2.12632e-05
2.13208e-05
2.13735e-05
2.14211e-05
2.14635e-05
2.15008e-05
2.15328e-05
2.15596e-05
2.1581e-05
2.15971e-05
2.16079e-05
2.16133e-05
2.16133e-05
2.16079e-05
2.15971e-05
2.1581e-05
2.15596e-05
2.15328e-05
2.15008e-05
1.98719e-05
1.99835e-05
2.00919e-05
2.0197e-05
2.02985e-05
2.03964e-05
2.04903e-05
2.05801e-05
2.06658e-05
2.0747e-05
2.08238e-05
2.08959e-05
2.09634e-05
2.1026e-05
2.10837e-05
2.11364e-05
2.1184e-05
2.12265e-05
2.12638e-05
2.12959e-05
2.13227e-05
2.13442e-05
2.13603e-05
2.13711e-05
2.13765e-05
2.13765e-05
2.13711e-05
2.13603e-05
2.13442e-05
2.13227e-05
2.12959e-05
2.12639e-05
1.96339e-05
1.97454e-05
1.98537e-05
1.99587e-05
2.00602e-05
2.0158e-05
2.02519e-05
2.03418e-05
2.04274e-05
2.05087e-05
2.05854e-05
2.06576e-05
2.07251e-05
2.07877e-05
2.08454e-05
2.08982e-05
2.09459e-05
2.09884e-05
2.10257e-05
2.10579e-05
2.10847e-05
2.11062e-05
2.11223e-05
2.11331e-05
2.11385e-05
2.11385e-05
2.11331e-05
2.11223e-05
2.11062e-05
2.10847e-05
2.10579e-05
2.10258e-05
1.93953e-05
1.95066e-05
1.96149e-05
1.97198e-05
1.98212e-05
1.99189e-05
2.00128e-05
2.01026e-05
2.01882e-05
2.02694e-05
2.03462e-05
2.04183e-05
2.04858e-05
2.05485e-05
2.06062e-05
2.0659e-05
2.07066e-05
2.07492e-05
2.07866e-05
2.08187e-05
2.08455e-05
2.0867e-05
2.08832e-05
2.0894e-05
2.08994e-05
2.08994e-05
2.0894e-05
2.08832e-05
2.0867e-05
2.08455e-05
2.08187e-05
2.07866e-05
1.91562e-05
1.92674e-05
1.93754e-05
1.94802e-05
1.95815e-05
1.96791e-05
1.97729e-05
1.98626e-05
1.99481e-05
2.00293e-05
2.01061e-05
2.01782e-05
2.02456e-05
2.03083e-05
2.0366e-05
2.04188e-05
2.04664e-05
2.0509e-05
2.05464e-05
2.05785e-05
2.06053e-05
2.06269e-05
2.0643e-05
2.06538e-05
2.06592e-05
2.06592e-05
2.06538e-05
2.0643e-05
2.06269e-05
2.06053e-05
2.05785e-05
2.05464e-05
1.89166e-05
1.90276e-05
1.91355e-05
1.92401e-05
1.93412e-05
1.94387e-05
1.95323e-05
1.9622e-05
1.97074e-05
1.97885e-05
1.98652e-05
1.99372e-05
2.00046e-05
2.00672e-05
2.01249e-05
2.01777e-05
2.02253e-05
2.02679e-05
2.03052e-05
2.03374e-05
2.03642e-05
2.03857e-05
2.04019e-05
2.04127e-05
2.04181e-05
2.04181e-05
2.04127e-05
2.04019e-05
2.03857e-05
2.03642e-05
2.03374e-05
2.03053e-05
1.86767e-05
1.87874e-05
1.8895e-05
1.89995e-05
1.91004e-05
1.91977e-05
1.92912e-05
1.93807e-05
1.9466e-05
1.9547e-05
1.96236e-05
1.96956e-05
1.97629e-05
1.98254e-05
1.98831e-05
1.99358e-05
1.99834e-05
2.00259e-05
2.00632e-05
2.00953e-05
2.01222e-05
2.01437e-05
2.01598e-05
2.01706e-05
2.0176e-05
2.0176e-05
2.01706e-05
2.01598e-05
2.01437e-05
2.01222e-05
2.00954e-05
2.00633e-05
1.84364e-05
1.85468e-05
1.86542e-05
1.87584e-05
1.88591e-05
1.89563e-05
1.90495e-05
1.91388e-05
1.9224e-05
1.93049e-05
1.93813e-05
1.94532e-05
1.95204e-05
1.95829e-05
1.96405e-05
1.96931e-05
1.97407e-05
1.97832e-05
1.98205e-05
1.98525e-05
1.98793e-05
1.99008e-05
1.99169e-05
1.99277e-05
1.99331e-05
1.99331e-05
1.99277e-05
1.9917e-05
1.99008e-05
1.98793e-05
1.98525e-05
1.81958e-05
1.8306e-05
1.84131e-05
1.8517e-05
1.86175e-05
1.87143e-05
1.88074e-05
1.88965e-05
1.89815e-05
1.90622e-05
1.91385e-05
1.92103e-05
1.92774e-05
1.93397e-05
1.93972e-05
1.94498e-05
1.94973e-05
1.95397e-05
1.95769e-05
1.9609e-05
1.96357e-05
1.96572e-05
1.96733e-05
1.96841e-05
1.96895e-05
1.96895e-05
1.96841e-05
1.96733e-05
1.96572e-05
1.96357e-05
1.9609e-05
1.7955e-05
1.80648e-05
1.81716e-05
1.82752e-05
1.83754e-05
1.8472e-05
1.85649e-05
1.86538e-05
1.87385e-05
1.8819e-05
1.88952e-05
1.89668e-05
1.90337e-05
1.9096e-05
1.91534e-05
1.92058e-05
1.92532e-05
1.92956e-05
1.93328e-05
1.93647e-05
1.93915e-05
1.94129e-05
1.9429e-05
1.94397e-05
1.94451e-05
1.94451e-05
1.94397e-05
1.9429e-05
1.94129e-05
1.93915e-05
1.77141e-05
1.78235e-05
1.793e-05
1.80332e-05
1.81331e-05
1.82294e-05
1.8322e-05
1.84106e-05
1.84952e-05
1.85755e-05
1.86514e-05
1.87228e-05
1.87896e-05
1.88517e-05
1.8909e-05
1.89613e-05
1.90086e-05
1.90509e-05
1.9088e-05
1.91199e-05
1.91466e-05
1.9168e-05
1.9184e-05
1.91948e-05
1.92001e-05
1.92001e-05
1.91948e-05
1.9184e-05
1.9168e-05
1.91466e-05
1.74731e-05
1.75821e-05
1.76881e-05
1.7791e-05
1.78906e-05
1.79866e-05
1.80788e-05
1.81672e-05
1.82515e-05
1.83315e-05
1.84072e-05
1.84785e-05
1.85451e-05
1.8607e-05
1.86641e-05
1.87163e-05
1.87635e-05
1.88057e-05
1.88427e-05
1.88746e-05
1.89012e-05
1.89225e-05
1.89385e-05
1.89492e-05
1.89546e-05
1.89546e-05
1.89492e-05
1.89385e-05
1.89225e-05
1.89012e-05
1.72321e-05
1.73406e-05
1.74462e-05
1.75487e-05
1.76479e-05
1.77435e-05
1.78355e-05
1.79235e-05
1.80075e-05
1.80873e-05
1.81628e-05
1.82338e-05
1.83002e-05
1.83619e-05
1.84189e-05
1.84709e-05
1.8518e-05
1.856e-05
1.8597e-05
1.86287e-05
1.86553e-05
1.86765e-05
1.86925e-05
1.87032e-05
1.87086e-05
1.87086e-05
1.87032e-05
1.86925e-05
1.86766e-05
1.86553e-05
1.6991e-05
1.70991e-05
1.72043e-05
1.73063e-05
1.74051e-05
1.75004e-05
1.75919e-05
1.76796e-05
1.77633e-05
1.78428e-05
1.7918e-05
1.79888e-05
1.8055e-05
1.81165e-05
1.81733e-05
1.82251e-05
1.82721e-05
1.8314e-05
1.83508e-05
1.83825e-05
1.8409e-05
1.84302e-05
1.84461e-05
1.84568e-05
1.84621e-05
1.84621e-05
1.84568e-05
1.84461e-05
1.84302e-05
1.8409e-05
1.675e-05
1.68576e-05
1.69623e-05
1.70639e-05
1.71623e-05
1.72571e-05
1.73483e-05
1.74356e-05
1.7519e-05
1.75982e-05
1.76731e-05
1.77436e-05
1.78095e-05
1.78708e-05
1.79274e-05
1.79791e-05
1.80259e-05
1.80676e-05
1.81043e-05
1.81359e-05
1.81623e-05
1.81834e-05
1.81993e-05
1.821e-05
1.82153e-05
1.82153e-05
1.821e-05
1.81993e-05
1.81835e-05
1.81623e-05
1.65092e-05
1.66162e-05
1.67204e-05
1.68216e-05
1.69194e-05
1.70139e-05
1.71046e-05
1.71916e-05
1.72746e-05
1.73534e-05
1.7428e-05
1.74982e-05
1.75639e-05
1.7625e-05
1.76813e-05
1.77328e-05
1.77794e-05
1.7821e-05
1.78576e-05
1.78891e-05
1.79153e-05
1.79364e-05
1.79523e-05
1.79628e-05
1.79681e-05
1.79681e-05
1.79628e-05
1.79523e-05
1.79364e-05
1.79153e-05
1.62685e-05
1.6375e-05
1.64786e-05
1.65793e-05
1.66767e-05
1.67706e-05
1.68609e-05
1.69475e-05
1.70301e-05
1.71086e-05
1.71828e-05
1.72527e-05
1.73181e-05
1.7379e-05
1.74351e-05
1.74864e-05
1.75328e-05
1.75742e-05
1.76107e-05
1.7642e-05
1.76682e-05
1.76892e-05
1.77049e-05
1.77155e-05
1.77208e-05
1.77208e-05
1.77155e-05
1.77049e-05
1.76892e-05
1.76682e-05
1.6028e-05
1.61339e-05
1.6237e-05
1.63371e-05
1.6434e-05
1.65275e-05
1.66173e-05
1.67034e-05
1.67856e-05
1.68637e-05
1.69377e-05
1.70072e-05
1.70723e-05
1.71329e-05
1.71887e-05
1.72398e-05
1.7286e-05
1.73273e-05
1.73635e-05
1.73947e-05
1.74208e-05
1.74417e-05
1.74575e-05
1.74679e-05
1.74732e-05
1.74732e-05
1.74679e-05
1.74575e-05
1.74417e-05
1.74208e-05
1.57879e-05
1.58931e-05
1.59956e-05
1.60952e-05
1.61915e-05
1.62845e-05
1.63738e-05
1.64595e-05
1.65412e-05
1.6619e-05
1.66925e-05
1.67617e-05
1.68265e-05
1.68867e-05
1.69423e-05
1.69932e-05
1.70392e-05
1.70803e-05
1.71164e-05
1.71474e-05
1.71734e-05
1.71942e-05
1.72098e-05
1.72203e-05
1.72255e-05
1.72255e-05
1.72203e-05
1.72098e-05
1.71942e-05
1.71734e-05
1.5548e-05
1.56526e-05
1.57545e-05
1.58535e-05
1.59492e-05
1.60417e-05
1.61305e-05
1.62157e-05
1.6297e-05
1.63743e-05
1.64474e-05
1.65163e-05
1.65807e-05
1.66407e-05
1.6696e-05
1.67465e-05
1.67923e-05
1.68332e-05
1.68691e-05
1.69e-05
1.69259e-05
1.69466e-05
1.69622e-05
1.69726e-05
1.69778e-05
1.69778e-05
1.69726e-05
1.69622e-05
1.69466e-05
1.69259e-05
1.53085e-05
1.54125e-05
1.55137e-05
1.56121e-05
1.57072e-05
1.57991e-05
1.58874e-05
1.59721e-05
1.60529e-05
1.61298e-05
1.62025e-05
1.6271e-05
1.63351e-05
1.63947e-05
1.64497e-05
1.65e-05
1.65455e-05
1.65862e-05
1.66219e-05
1.66527e-05
1.66784e-05
1.6699e-05
1.67145e-05
1.67248e-05
1.673e-05
1.673e-05
1.67248e-05
1.67145e-05
1.6699e-05
1.66784e-05
1.50694e-05
1.51727e-05
1.52733e-05
1.5371e-05
1.54656e-05
1.55568e-05
1.56446e-05
1.57287e-05
1.58091e-05
1.58855e-05
1.59578e-05
1.60258e-05
1.60895e-05
1.61488e-05
1.62035e-05
1.62535e-05
1.62988e-05
1.63393e-05
1.63748e-05
1.64054e-05
1.6431e-05
1.64515e-05
1.64669e-05
1.64772e-05
1.64823e-05
1.64823e-05
1.64772e-05
1.64669e-05
1.64515e-05
1.6431e-05
1.48308e-05
1.49334e-05
1.50333e-05
1.51303e-05
1.52243e-05
1.53149e-05
1.54021e-05
1.54857e-05
1.55655e-05
1.56414e-05
1.57133e-05
1.57809e-05
1.58442e-05
1.59031e-05
1.59575e-05
1.60072e-05
1.60523e-05
1.60925e-05
1.61278e-05
1.61582e-05
1.61837e-05
1.6204e-05
1.62194e-05
1.62296e-05
1.62347e-05
1.62347e-05
1.62296e-05
1.62194e-05
1.6204e-05
1.61837e-05
1.45928e-05
1.46946e-05
1.47938e-05
1.48901e-05
1.49834e-05
1.50734e-05
1.516e-05
1.5243e-05
1.53223e-05
1.53977e-05
1.54691e-05
1.55363e-05
1.55992e-05
1.56577e-05
1.57118e-05
1.57612e-05
1.58059e-05
1.58459e-05
1.5881e-05
1.59112e-05
1.59365e-05
1.59568e-05
1.5972e-05
1.59822e-05
1.59873e-05
1.59873e-05
1.59822e-05
1.5972e-05
1.59568e-05
1.59365e-05
1.43552e-05
1.44563e-05
1.45547e-05
1.46503e-05
1.47429e-05
1.48323e-05
1.49183e-05
1.50007e-05
1.50794e-05
1.51543e-05
1.52252e-05
1.5292e-05
1.53545e-05
1.54126e-05
1.54663e-05
1.55154e-05
1.55598e-05
1.55996e-05
1.56345e-05
1.56645e-05
1.56896e-05
1.57098e-05
1.57249e-05
1.5735e-05
1.57401e-05
1.57401e-05
1.5735e-05
1.57249e-05
1.57098e-05
1.56896e-05
1.41183e-05
1.42185e-05
1.43162e-05
1.44111e-05
1.4503e-05
1.45917e-05
1.46771e-05
1.47589e-05
1.4837e-05
1.49114e-05
1.49817e-05
1.5048e-05
1.51101e-05
1.51678e-05
1.52211e-05
1.52699e-05
1.53141e-05
1.53535e-05
1.53882e-05
1.5418e-05
1.5443e-05
1.5463e-05
1.5478e-05
1.54881e-05
1.54931e-05
1.54931e-05
1.54881e-05
1.5478e-05
1.5463e-05
1.5443e-05
1.3882e-05
1.39814e-05
1.40784e-05
1.41725e-05
1.42637e-05
1.43517e-05
1.44363e-05
1.45175e-05
1.45951e-05
1.46689e-05
1.47387e-05
1.48045e-05
1.48661e-05
1.49235e-05
1.49764e-05
1.50248e-05
1.50687e-05
1.51078e-05
1.51423e-05
1.51719e-05
1.51967e-05
1.52166e-05
1.52315e-05
1.52415e-05
1.52465e-05
1.52465e-05
1.52415e-05
1.52315e-05
1.52166e-05
1.51967e-05
1.36464e-05
1.3745e-05
1.38411e-05
1.39345e-05
1.40249e-05
1.41122e-05
1.41962e-05
1.42767e-05
1.43537e-05
1.44269e-05
1.44962e-05
1.45615e-05
1.46226e-05
1.46795e-05
1.47321e-05
1.47801e-05
1.48237e-05
1.48626e-05
1.48967e-05
1.49262e-05
1.49508e-05
1.49705e-05
1.49853e-05
1.49952e-05
1.50002e-05
1.50002e-05
1.49952e-05
1.49853e-05
1.49705e-05
1.49508e-05
1.34116e-05
1.35093e-05
1.36046e-05
1.36971e-05
1.37868e-05
1.38733e-05
1.39566e-05
1.40365e-05
1.41128e-05
1.41854e-05
1.42542e-05
1.4319e-05
1.43797e-05
1.44361e-05
1.44882e-05
1.45359e-05
1.45791e-05
1.46177e-05
1.46517e-05
1.46808e-05
1.47053e-05
1.47249e-05
1.47396e-05
1.47494e-05
1.47543e-05
1.47543e-05
1.47494e-05
1.47396e-05
1.47249e-05
1.47053e-05
1.31743e-05
1.32743e-05
1.33687e-05
1.34605e-05
1.35494e-05
1.36352e-05
1.37177e-05
1.37969e-05
1.38726e-05
1.39446e-05
1.40128e-05
1.4077e-05
1.41372e-05
1.41932e-05
1.42449e-05
1.42923e-05
1.43351e-05
1.43734e-05
1.44071e-05
1.4436e-05
1.44603e-05
1.44797e-05
1.44943e-05
1.4504e-05
1.45089e-05
1.45089e-05
1.4504e-05
1.44943e-05
1.44797e-05
1.44603e-05
1.29348e-05
1.30401e-05
1.31337e-05
1.32246e-05
1.33127e-05
1.33977e-05
1.34795e-05
1.3558e-05
1.3633e-05
1.37044e-05
1.3772e-05
1.38357e-05
1.38954e-05
1.39509e-05
1.40022e-05
1.40491e-05
1.40916e-05
1.41296e-05
1.4163e-05
1.41917e-05
1.42158e-05
1.4235e-05
1.42495e-05
1.42592e-05
1.4264e-05
1.4264e-05
1.42592e-05
1.42495e-05
1.4235e-05
1.42158e-05
1.28994e-05
1.29895e-05
1.30768e-05
1.3161e-05
1.32421e-05
1.33199e-05
1.33942e-05
1.34649e-05
1.35319e-05
1.35951e-05
1.36542e-05
1.37093e-05
1.39718e-05
1.3991e-05
1.40053e-05
1.40149e-05
1.40197e-05
1.40197e-05
1.40149e-05
1.40053e-05
1.3991e-05
1.39718e-05
2.94044e-05
2.94133e-05
2.942e-05
2.94245e-05
2.94267e-05
2.94267e-05
2.94244e-05
2.942e-05
2.94133e-05
2.94044e-05
2.93041e-05
2.9316e-05
2.93255e-05
2.93327e-05
2.93374e-05
2.93398e-05
2.93398e-05
2.93374e-05
2.93327e-05
2.93255e-05
2.9316e-05
2.93041e-05
2.92897e-05
2.92728e-05
2.92534e-05
2.92314e-05
2.92068e-05
2.91795e-05
2.91496e-05
2.91169e-05
2.90813e-05
2.91762e-05
2.9194e-05
2.92093e-05
2.92219e-05
2.9232e-05
2.92395e-05
2.92445e-05
2.9247e-05
2.9247e-05
2.92445e-05
2.92395e-05
2.9232e-05
2.92219e-05
2.92093e-05
2.9194e-05
2.91762e-05
2.91557e-05
2.91325e-05
2.91065e-05
2.90778e-05
2.90463e-05
2.90119e-05
2.89746e-05
2.89343e-05
2.88911e-05
2.88449e-05
2.87955e-05
2.90007e-05
2.9028e-05
2.90524e-05
2.90739e-05
2.90927e-05
2.91088e-05
2.91221e-05
2.91327e-05
2.91407e-05
2.9146e-05
2.91486e-05
2.91486e-05
2.9146e-05
2.91407e-05
2.91327e-05
2.91221e-05
2.91088e-05
2.90927e-05
2.90739e-05
2.90523e-05
2.9028e-05
2.90007e-05
2.89706e-05
2.89375e-05
2.89015e-05
2.88624e-05
2.88204e-05
2.87752e-05
2.8727e-05
2.86756e-05
2.8621e-05
2.85633e-05
2.85024e-05
2.88234e-05
2.8858e-05
2.88895e-05
2.8918e-05
2.89436e-05
2.89662e-05
2.89859e-05
2.90027e-05
2.90167e-05
2.90279e-05
2.90362e-05
2.90418e-05
2.90446e-05
2.90446e-05
2.90418e-05
2.90362e-05
2.90279e-05
2.90167e-05
2.90027e-05
2.89859e-05
2.89662e-05
2.89435e-05
2.8918e-05
2.88895e-05
2.88579e-05
2.88234e-05
2.87858e-05
2.8745e-05
2.87012e-05
2.86541e-05
2.86039e-05
2.85505e-05
2.84939e-05
2.84341e-05
2.8371e-05
2.83047e-05
2.82353e-05
2.81624e-05
2.86225e-05
2.86649e-05
2.8704e-05
2.87401e-05
2.87729e-05
2.88027e-05
2.88294e-05
2.8853e-05
2.88736e-05
2.88912e-05
2.89059e-05
2.89175e-05
2.89263e-05
2.89321e-05
2.8935e-05
2.8935e-05
2.89321e-05
2.89263e-05
2.89175e-05
2.89058e-05
2.88912e-05
2.88736e-05
2.8853e-05
2.88294e-05
2.88027e-05
2.87729e-05
2.874e-05
2.8704e-05
2.86648e-05
2.86225e-05
2.85769e-05
2.8528e-05
2.84759e-05
2.84206e-05
2.83619e-05
2.83e-05
2.82349e-05
2.81664e-05
2.80948e-05
2.80197e-05
2.84476e-05
2.84949e-05
2.85389e-05
2.85796e-05
2.8617e-05
2.86512e-05
2.86821e-05
2.87099e-05
2.87345e-05
2.8756e-05
2.87744e-05
2.87896e-05
2.88018e-05
2.88109e-05
2.8817e-05
2.88201e-05
2.88201e-05
2.8817e-05
2.88109e-05
2.88018e-05
2.87896e-05
2.87744e-05
2.8756e-05
2.87345e-05
2.87099e-05
2.86821e-05
2.86511e-05
2.8617e-05
2.85795e-05
2.85388e-05
2.84949e-05
2.84476e-05
2.8397e-05
2.83431e-05
2.82858e-05
2.82252e-05
2.81613e-05
2.80941e-05
2.80236e-05
2.79499e-05
2.78727e-05
2.82612e-05
2.83135e-05
2.83624e-05
2.84079e-05
2.84501e-05
2.84889e-05
2.85243e-05
2.85565e-05
2.85853e-05
2.86109e-05
2.86332e-05
2.86523e-05
2.86682e-05
2.86808e-05
2.86903e-05
2.86967e-05
2.86998e-05
2.86998e-05
2.86967e-05
2.86903e-05
2.86808e-05
2.86681e-05
2.86523e-05
2.86332e-05
2.86109e-05
2.85853e-05
2.85564e-05
2.85243e-05
2.84888e-05
2.845e-05
2.84079e-05
2.83624e-05
2.83135e-05
2.82612e-05
2.82055e-05
2.81464e-05
2.80839e-05
2.80181e-05
2.79489e-05
2.78764e-05
2.78006e-05
2.77213e-05
2.80633e-05
2.81207e-05
2.81747e-05
2.82251e-05
2.82721e-05
2.83157e-05
2.83558e-05
2.83925e-05
2.84258e-05
2.84557e-05
2.84822e-05
2.85053e-05
2.85251e-05
2.85416e-05
2.85547e-05
2.85646e-05
2.85711e-05
2.85744e-05
2.85744e-05
2.85711e-05
2.85646e-05
2.85547e-05
2.85416e-05
2.85251e-05
2.85053e-05
2.84821e-05
2.84556e-05
2.84258e-05
2.83925e-05
2.83558e-05
2.83157e-05
2.82721e-05
2.82251e-05
2.81746e-05
2.81207e-05
2.80633e-05
2.80024e-05
2.79381e-05
2.78704e-05
2.77993e-05
2.77248e-05
2.76471e-05
2.75659e-05
2.7854e-05
2.79166e-05
2.79757e-05
2.80312e-05
2.80832e-05
2.81317e-05
2.81766e-05
2.8218e-05
2.82559e-05
2.82902e-05
2.83211e-05
2.83485e-05
2.83724e-05
2.83929e-05
2.841e-05
2.84236e-05
2.84338e-05
2.84406e-05
2.8444e-05
2.8444e-05
2.84406e-05
2.84338e-05
2.84236e-05
2.841e-05
2.83929e-05
2.83724e-05
2.83485e-05
2.83211e-05
2.82902e-05
2.82558e-05
2.8218e-05
2.81766e-05
2.81316e-05
2.80832e-05
2.80312e-05
2.79756e-05
2.79166e-05
2.7854e-05
2.77879e-05
2.77184e-05
2.76455e-05
2.75691e-05
2.74895e-05
2.74064e-05
2.77013e-05
2.77655e-05
2.78262e-05
2.78833e-05
2.79367e-05
2.79866e-05
2.80328e-05
2.80755e-05
2.81145e-05
2.81499e-05
2.81818e-05
2.821e-05
2.82347e-05
2.82559e-05
2.82735e-05
2.82876e-05
2.82981e-05
2.83051e-05
2.83086e-05
2.83086e-05
2.83051e-05
2.82981e-05
2.82875e-05
2.82735e-05
2.82559e-05
2.82347e-05
2.821e-05
2.81818e-05
2.81499e-05
2.81145e-05
2.80754e-05
2.80328e-05
2.79866e-05
2.79367e-05
2.78832e-05
2.78262e-05
2.77655e-05
2.77013e-05
2.76335e-05
2.75623e-05
2.74875e-05
2.74094e-05
2.73279e-05
2.7243e-05
2.7475e-05
2.75444e-05
2.76102e-05
2.76724e-05
2.7731e-05
2.77858e-05
2.78371e-05
2.78846e-05
2.79284e-05
2.79686e-05
2.8005e-05
2.80378e-05
2.80669e-05
2.80923e-05
2.81141e-05
2.81322e-05
2.81467e-05
2.81576e-05
2.81649e-05
2.81685e-05
2.81685e-05
2.81649e-05
2.81576e-05
2.81467e-05
2.81322e-05
2.81141e-05
2.80923e-05
2.80669e-05
2.80378e-05
2.8005e-05
2.79685e-05
2.79284e-05
2.78846e-05
2.7837e-05
2.77858e-05
2.77309e-05
2.76724e-05
2.76102e-05
2.75444e-05
2.7475e-05
2.7402e-05
2.73256e-05
2.72457e-05
2.71625e-05
2.70758e-05
2.72379e-05
2.73125e-05
2.73834e-05
2.74508e-05
2.75145e-05
2.75744e-05
2.76307e-05
2.76832e-05
2.77319e-05
2.77769e-05
2.78181e-05
2.78556e-05
2.78893e-05
2.79192e-05
2.79453e-05
2.79677e-05
2.79864e-05
2.80013e-05
2.80125e-05
2.80199e-05
2.80237e-05
2.80237e-05
2.80199e-05
2.80125e-05