/*--------------------------------*- C++ -*----------------------------------*\
  =========                 |
  \\      /  F ield         | OpenFOAM: The Open Source CFD Toolbox
   \\    /   O peration     | Website:  https://openfoam.org
    \\  /    A nd           | Version:  7
     \\/     M anipulation  |
\*---------------------------------------------------------------------------*/
FoamFile
{
    version     2.0;
    format      ascii;
    class       volScalarField;
    location    "120000";
    object      p;
}
// * * * * * * * * * * * * * * * * * * * * * * * * * * * * * * * * * * * * * //

dimensions      [0 2 -2 0 0 0 0];

internalField   nonuniform List<scalar> 
4850
(
-1.19783e-18
-1.1831e-18
-1.19781e-18
-1.18067e-18
-1.19456e-18
-1.2071e-18
-1.19437e-18
-1.19388e-18
-1.19431e-18
-1.19929e-18
-1.19839e-18
-1.19279e-18
-1.19421e-18
-1.20032e-18
-1.19243e-18
-1.20259e-18
-1.19822e-18
-1.19289e-18
-1.18191e-18
-1.20001e-18
-1.18806e-18
-1.20056e-18
-1.19739e-18
-1.20749e-18
-1.19621e-18
-1.1853e-18
-1.20435e-18
-1.19804e-18
-1.19044e-18
-1.2087e-18
-1.21016e-18
-1.23154e-18
-1.18695e-18
-1.19104e-18
-1.19391e-18
-1.19255e-18
-1.19467e-18
-1.19281e-18
-1.21347e-18
-1.22347e-18
-1.21277e-18
-1.20538e-18
-1.17816e-18
-1.18969e-18
-1.20346e-18
-1.19795e-18
-1.19161e-18
-1.19855e-18
-1.20838e-18
-1.21033e-18
-1.20993e-18
-1.20677e-18
-1.22111e-18
-1.20811e-18
-1.20971e-18
-1.2281e-18
-1.17943e-18
-1.19347e-18
-1.19798e-18
-1.20363e-18
-1.19479e-18
-1.20361e-18
-1.20991e-18
-1.20754e-18
-1.21354e-18
-1.20705e-18
-1.21123e-18
-1.21541e-18
-1.20091e-18
-1.20721e-18
-1.21094e-18
-1.21206e-18
-1.21239e-18
-1.21201e-18
-1.18804e-18
-1.19428e-18
-1.19286e-18
-1.19305e-18
-1.19619e-18
-1.2056e-18
-1.22342e-18
-1.20647e-18
-1.21069e-18
-1.20518e-18
-1.20775e-18
-1.20803e-18
-1.20932e-18
-1.21577e-18
-1.20487e-18
-1.21178e-18
-1.21592e-18
-1.21649e-18
-1.21772e-18
-1.23077e-18
-1.19102e-18
-1.19762e-18
-1.19404e-18
-1.19725e-18
-1.19251e-18
-1.21122e-18
-1.22029e-18
-1.2134e-18
-1.20741e-18
-1.20441e-18
-1.20822e-18
-1.20304e-18
-1.21875e-18
-1.21937e-18
-1.21946e-18
-1.20913e-18
-1.22015e-18
-1.21481e-18
-1.21336e-18
-1.21919e-18
-1.22244e-18
-1.23805e-18
-1.25115e-18
-1.22792e-18
-1.19167e-18
-1.19718e-18
-1.1936e-18
-1.19724e-18
-1.19334e-18
-1.19873e-18
-1.19947e-18
-1.2072e-18
-1.20947e-18
-1.20788e-18
-1.21409e-18
-1.19653e-18
-1.21337e-18
-1.20782e-18
-1.22108e-18
-1.20775e-18
-1.22803e-18
-1.21279e-18
-1.19568e-18
-1.2082e-18
-1.21953e-18
-1.22486e-18
-1.23655e-18
-1.21355e-18
-1.23352e-18
-1.25708e-18
-1.23689e-18
-1.21641e-18
-1.24958e-18
-1.18334e-18
-1.2015e-18
-1.18592e-18
-1.19838e-18
-1.19275e-18
-1.20048e-18
-1.18637e-18
-1.20379e-18
-1.21483e-18
-1.20713e-18
-1.20159e-18
-1.20031e-18
-1.21622e-18
-1.19801e-18
-1.23396e-18
-1.1995e-18
-1.2172e-18
-1.1998e-18
-1.18917e-18
-1.22669e-18
-1.21828e-18
-1.21064e-18
-1.22969e-18
-1.21338e-18
-1.23997e-18
-1.27658e-18
-1.24276e-18
-1.22003e-18
-1.25028e-18
-1.2494e-18
-1.23295e-18
-1.24962e-18
-1.17398e-18
-1.21132e-18
-1.1939e-18
-1.19135e-18
-1.19747e-18
-1.21217e-18
-1.20498e-18
-1.2103e-18
-1.21535e-18
-1.20637e-18
-1.20552e-18
-1.2004e-18
-1.21193e-18
-1.19718e-18
-1.23462e-18
-1.227e-18
-1.21693e-18
-1.21127e-18
-1.19558e-18
-1.22563e-18
-1.22273e-18
-1.22558e-18
-1.2245e-18
-1.22715e-18
-1.24995e-18
-1.25876e-18
-1.2405e-18
-1.22406e-18
-1.25161e-18
-1.25285e-18
-1.24684e-18
-1.24895e-18
-1.25656e-18
-1.36214e-18
-1.18597e-18
-1.19403e-18
-1.19566e-18
-1.2023e-18
-1.20862e-18
-1.21401e-18
-1.19298e-18
-1.21427e-18
-1.2104e-18
-1.20674e-18
-1.20202e-18
-1.18906e-18
-1.20964e-18
-1.20335e-18
-1.21848e-18
-1.22342e-18
-1.2158e-18
-1.22407e-18
-1.22127e-18
-1.22566e-18
-1.22574e-18
-1.24109e-18
-1.21873e-18
-1.23106e-18
-1.24007e-18
-1.26901e-18
-1.23796e-18
-1.23619e-18
-1.25242e-18
-1.25777e-18
-1.25345e-18
-1.27476e-18
-1.24177e-18
-1.41885e-18
-1.19239e-18
-1.19814e-18
-1.19537e-18
-1.20466e-18
-1.20384e-18
-1.2098e-18
-1.20117e-18
-1.20892e-18
-1.21094e-18
-1.20713e-18
-1.20819e-18
-1.20489e-18
-1.2122e-18
-1.20866e-18
-1.21292e-18
-1.23015e-18
-1.21699e-18
-1.23555e-18
-1.23166e-18
-1.22677e-18
-1.22577e-18
-1.23583e-18
-1.23408e-18
-1.23004e-18
-1.24312e-18
-1.27925e-18
-1.22454e-18
-1.26128e-18
-1.26061e-18
-1.26978e-18
-1.24453e-18
-1.30203e-18
-1.26053e-18
-1.46494e-18
-1.19388e-18
-1.1959e-18
-1.19288e-18
-1.21132e-18
-1.20668e-18
-1.20511e-18
-1.20108e-18
-1.20518e-18
-1.19881e-18
-1.20611e-18
-1.21471e-18
-1.20259e-18
-1.21673e-18
-1.21009e-18
-1.21076e-18
-1.22045e-18
-1.21532e-18
-1.21863e-18
-1.20432e-18
-1.22705e-18
-1.22383e-18
-1.24348e-18
-1.22269e-18
-1.21523e-18
-1.25277e-18
-1.25158e-18
-1.22212e-18
-1.25497e-18
-1.27219e-18
-1.26064e-18
-1.25904e-18
-1.30345e-18
-1.26816e-18
-1.44715e-18
-1.20016e-18
-1.1951e-18
-1.18671e-18
-1.21609e-18
-1.19878e-18
-1.2086e-18
-1.20244e-18
-1.20336e-18
-1.20584e-18
-1.19962e-18
-1.20329e-18
-1.20388e-18
-1.21134e-18
-1.21038e-18
-1.20742e-18
-1.21334e-18
-1.21506e-18
-1.20264e-18
-1.19734e-18
-1.23144e-18
-1.22337e-18
-1.23667e-18
-1.23567e-18
-1.21946e-18
-1.2424e-18
-1.24501e-18
-1.24093e-18
-1.25135e-18
-1.26193e-18
-1.24481e-18
-1.26559e-18
-1.28909e-18
-1.26658e-18
-1.45774e-18
-1.21056e-18
-1.18509e-18
-1.19259e-18
-1.2204e-18
-1.19212e-18
-1.21409e-18
-1.1978e-18
-1.20368e-18
-1.2067e-18
-1.18697e-18
-1.20243e-18
-1.20915e-18
-1.21009e-18
-1.20854e-18
-1.19505e-18
-1.21468e-18
-1.20926e-18
-1.21416e-18
-1.20991e-18
-1.24517e-18
-1.2145e-18
-1.22705e-18
-1.21966e-18
-1.24322e-18
-1.24066e-18
-1.25002e-18
-1.25706e-18
-1.2528e-18
-1.26142e-18
-1.25431e-18
-1.26631e-18
-1.28483e-18
-1.26232e-18
-1.4266e-18
-1.20916e-18
-1.19608e-18
-1.19329e-18
-1.20754e-18
-1.19586e-18
-1.20983e-18
-1.19524e-18
-1.19938e-18
-1.19834e-18
-1.18938e-18
-1.21052e-18
-1.19253e-18
-1.20904e-18
-1.21105e-18
-1.20585e-18
-1.21487e-18
-1.19693e-18
-1.20635e-18
-1.20358e-18
-1.23573e-18
-1.22471e-18
-1.2156e-18
-1.22954e-18
-1.24007e-18
-1.24222e-18
-1.24514e-18
-1.24417e-18
-1.25226e-18
-1.26586e-18
-1.24802e-18
-1.26594e-18
-1.28422e-18
-1.25225e-18
-1.38635e-18
-1.1934e-18
-1.2e-18
-1.19273e-18
-1.20089e-18
-1.19314e-18
-1.20954e-18
-1.19734e-18
-1.21078e-18
-1.20614e-18
-1.19447e-18
-1.23199e-18
-1.18443e-18
-1.19967e-18
-1.21425e-18
-1.20954e-18
-1.21409e-18
-1.21073e-18
-1.2178e-18
-1.21978e-18
-1.23517e-18
-1.22943e-18
-1.22839e-18
-1.23478e-18
-1.23573e-18
-1.23866e-18
-1.24338e-18
-1.24512e-18
-1.24844e-18
-1.25987e-18
-1.25906e-18
-1.26798e-18
-1.28347e-18
-1.27269e-18
-1.36491e-18
-1.19511e-18
-1.20511e-18
-1.19566e-18
-1.19645e-18
-1.19697e-18
-1.20313e-18
-1.19807e-18
-1.21206e-18
-1.205e-18
-1.20258e-18
-1.22562e-18
-1.1953e-18
-1.19785e-18
-1.21507e-18
-1.19964e-18
-1.22395e-18
-1.21548e-18
-1.22233e-18
-1.23641e-18
-1.23278e-18
-1.23333e-18
-1.22773e-18
-1.23583e-18
-1.23607e-18
-1.24713e-18
-1.24452e-18
-1.2458e-18
-1.23865e-18
-1.26065e-18
-1.2588e-18
-1.26655e-18
-1.28171e-18
-1.29041e-18
-1.3329e-18
-1.20291e-18
-1.20091e-18
-1.18771e-18
-1.20372e-18
-1.2025e-18
-1.2081e-18
-1.19165e-18
-1.20867e-18
-1.20541e-18
-1.21008e-18
-1.21191e-18
-1.19422e-18
-1.20877e-18
-1.20835e-18
-1.19676e-18
-1.20654e-18
-1.21804e-18
-1.22589e-18
-1.22157e-18
-1.23223e-18
-1.24043e-18
-1.2133e-18
-1.23547e-18
-1.23734e-18
-1.27166e-18
-1.2499e-18
-1.24759e-18
-1.25398e-18
-1.26931e-18
-1.25e-18
-1.26418e-18
-1.28328e-18
-1.279e-18
-1.31482e-18
-1.25265e-18
-1.19694e-18
-1.20988e-18
-1.19279e-18
-1.20797e-18
-1.20024e-18
-1.20623e-18
-1.20052e-18
-1.19582e-18
-1.2187e-18
-1.20188e-18
-1.20775e-18
-1.20284e-18
-1.21692e-18
-1.20097e-18
-1.20063e-18
-1.21737e-18
-1.23029e-18
-1.23594e-18
-1.20517e-18
-1.23661e-18
-1.21895e-18
-1.20936e-18
-1.23525e-18
-1.23919e-18
-1.24864e-18
-1.25981e-18
-1.25298e-18
-1.26791e-18
-1.25857e-18
-1.2701e-18
-1.26359e-18
-1.29707e-18
-1.27417e-18
-1.29762e-18
-1.26174e-18
-1.1851e-18
-1.20982e-18
-1.1945e-18
-1.20097e-18
-1.20338e-18
-1.20532e-18
-1.2139e-18
-1.19649e-18
-1.21098e-18
-1.19599e-18
-1.20917e-18
-1.20668e-18
-1.2149e-18
-1.19424e-18
-1.1999e-18
-1.2146e-18
-1.22012e-18
-1.22712e-18
-1.21161e-18
-1.24682e-18
-1.22468e-18
-1.21967e-18
-1.23538e-18
-1.24269e-18
-1.23506e-18
-1.24858e-18
-1.2464e-18
-1.25669e-18
-1.25248e-18
-1.26892e-18
-1.26278e-18
-1.29419e-18
-1.27303e-18
-1.31346e-18
-1.28006e-18
-1.19373e-18
-1.20477e-18
-1.19373e-18
-1.20812e-18
-1.19755e-18
-1.20358e-18
-1.20505e-18
-1.1872e-18
-1.20426e-18
-1.20049e-18
-1.21227e-18
-1.20494e-18
-1.20243e-18
-1.20941e-18
-1.20971e-18
-1.20864e-18
-1.20773e-18
-1.2208e-18
-1.21886e-18
-1.2407e-18
-1.2305e-18
-1.25021e-18
-1.23656e-18
-1.24106e-18
-1.22382e-18
-1.24389e-18
-1.24302e-18
-1.25186e-18
-1.24645e-18
-1.27492e-18
-1.25983e-18
-1.27921e-18
-1.27867e-18
-1.30796e-18
-1.19914e-18
-1.21803e-18
-1.18814e-18
-1.21093e-18
-1.19931e-18
-1.20027e-18
-1.20034e-18
-1.20539e-18
-1.211e-18
-1.2034e-18
-1.20186e-18
-1.20497e-18
-1.20682e-18
-1.21147e-18
-1.213e-18
-1.21186e-18
-1.21191e-18
-1.2228e-18
-1.22337e-18
-1.24717e-18
-1.2306e-18
-1.25487e-18
-1.23579e-18
-1.23962e-18
-1.23102e-18
-1.2483e-18
-1.2431e-18
-1.25535e-18
-1.23454e-18
-1.26774e-18
-1.25752e-18
-1.27565e-18
-1.2854e-18
-1.2912e-18
-1.2023e-18
-1.22283e-18
-1.19326e-18
-1.20601e-18
-1.20005e-18
-1.18842e-18
-1.20355e-18
-1.19917e-18
-1.20377e-18
-1.20357e-18
-1.20433e-18
-1.20723e-18
-1.2043e-18
-1.21159e-18
-1.21644e-18
-1.21919e-18
-1.23031e-18
-1.22373e-18
-1.22762e-18
-1.23584e-18
-1.22643e-18
-1.23983e-18
-1.23481e-18
-1.2373e-18
-1.22438e-18
-1.2572e-18
-1.24355e-18
-1.26444e-18
-1.24346e-18
-1.26523e-18
-1.25668e-18
-1.27084e-18
-1.27693e-18
-1.28258e-18
-1.19987e-18
-1.21295e-18
-1.18372e-18
-1.20489e-18
-1.20137e-18
-1.18936e-18
-1.19769e-18
-1.20111e-18
-1.18633e-18
-1.20333e-18
-1.20432e-18
-1.21228e-18
-1.20096e-18
-1.20548e-18
-1.20921e-18
-1.21248e-18
-1.23292e-18
-1.22369e-18
-1.22928e-18
-1.23085e-18
-1.21788e-18
-1.23334e-18
-1.23521e-18
-1.2409e-18
-1.23484e-18
-1.24686e-18
-1.24698e-18
-1.25384e-18
-1.24792e-18
-1.27222e-18
-1.25786e-18
-1.26685e-18
-1.2751e-18
-1.28175e-18
-1.20064e-18
-1.20674e-18
-1.201e-18
-1.2165e-18
-1.20547e-18
-1.20353e-18
-1.18811e-18
-1.21713e-18
-1.20453e-18
-1.20456e-18
-1.20793e-18
-1.20846e-18
-1.20898e-18
-1.20601e-18
-1.20643e-18
-1.20638e-18
-1.21914e-18
-1.22223e-18
-1.21646e-18
-1.23153e-18
-1.23437e-18
-1.23464e-18
-1.23522e-18
-1.2413e-18
-1.23915e-18
-1.2421e-18
-1.26032e-18
-1.24886e-18
-1.24516e-18
-1.25945e-18
-1.26107e-18
-1.27356e-18
-1.26913e-18
-1.20863e-18
-1.20361e-18
-1.1952e-18
-1.21374e-18
-1.20252e-18
-1.19986e-18
-1.20601e-18
-1.21137e-18
-1.21311e-18
-1.20784e-18
-1.20559e-18
-1.2067e-18
-1.21507e-18
-1.20632e-18
-1.21416e-18
-1.21396e-18
-1.21903e-18
-1.21534e-18
-1.21442e-18
-1.23528e-18
-1.24037e-18
-1.23802e-18
-1.23473e-18
-1.24036e-18
-1.24083e-18
-1.24018e-18
-1.25947e-18
-1.24947e-18
-1.24074e-18
-1.25222e-18
-1.25498e-18
-1.27754e-18
-1.27333e-18
-1.209e-18
-1.19895e-18
-1.19751e-18
-1.20737e-18
-1.19866e-18
-1.2136e-18
-1.20361e-18
-1.19997e-18
-1.21368e-18
-1.21504e-18
-1.20313e-18
-1.20635e-18
-1.21021e-18
-1.20725e-18
-1.20808e-18
-1.21277e-18
-1.21769e-18
-1.21856e-18
-1.22485e-18
-1.24039e-18
-1.23667e-18
-1.2435e-18
-1.23554e-18
-1.23989e-18
-1.24259e-18
-1.23652e-18
-1.24065e-18
-1.24998e-18
-1.24488e-18
-1.26228e-18
-1.25545e-18
-1.26945e-18
-1.20445e-18
-1.20954e-18
-1.19929e-18
-1.19472e-18
-1.19272e-18
-1.20295e-18
-1.20087e-18
-1.20542e-18
-1.21105e-18
-1.21719e-18
-1.19963e-18
-1.20199e-18
-1.20191e-18
-1.20779e-18
-1.20989e-18
-1.20949e-18
-1.22679e-18
-1.21521e-18
-1.22424e-18
-1.23494e-18
-1.24021e-18
-1.24205e-18
-1.23529e-18
-1.23956e-18
-1.24709e-18
-1.24216e-18
-1.24191e-18
-1.25172e-18
-1.24705e-18
-1.26411e-18
-1.25812e-18
-1.26223e-18
-1.19619e-18
-1.20509e-18
-1.1987e-18
-1.2077e-18
-1.19801e-18
-1.19551e-18
-1.1915e-18
-1.20676e-18
-1.20265e-18
-1.20717e-18
-1.20461e-18
-1.19e-18
-1.20902e-18
-1.2106e-18
-1.21186e-18
-1.22074e-18
-1.22616e-18
-1.22226e-18
-1.21956e-18
-1.234e-18
-1.23402e-18
-1.23533e-18
-1.23812e-18
-1.23898e-18
-1.24456e-18
-1.24932e-18
-1.24431e-18
-1.24265e-18
-1.24544e-18
-1.25578e-18
-1.246e-18
-1.26484e-18
-1.19165e-18
-1.18993e-18
-1.2003e-18
-1.21585e-18
-1.20305e-18
-1.19621e-18
-1.19833e-18
-1.20379e-18
-1.1958e-18
-1.20347e-18
-1.20843e-18
-1.19324e-18
-1.2114e-18
-1.21147e-18
-1.21321e-18
-1.21449e-18
-1.22819e-18
-1.22325e-18
-1.22542e-18
-1.23421e-18
-1.22979e-18
-1.23836e-18
-1.24106e-18
-1.24e-18
-1.24801e-18
-1.24734e-18
-1.24444e-18
-1.24512e-18
-1.24519e-18
-1.24518e-18
-1.24363e-18
-1.25839e-18
-1.18817e-18
-1.19697e-18
-1.19361e-18
-1.22007e-18
-1.19243e-18
-1.19999e-18
-1.19721e-18
-1.20963e-18
-1.19181e-18
-1.20949e-18
-1.20778e-18
-1.20561e-18
-1.20749e-18
-1.20646e-18
-1.2088e-18
-1.21705e-18
-1.22384e-18
-1.22561e-18
-1.22299e-18
-1.23733e-18
-1.23818e-18
-1.23602e-18
-1.23071e-18
-1.24418e-18
-1.24819e-18
-1.24747e-18
-1.2443e-18
-1.24759e-18
-1.24493e-18
-1.25607e-18
-1.24777e-18
-1.25999e-18
-1.18242e-18
-1.22329e-18
-1.19691e-18
-1.20535e-18
-1.18691e-18
-1.20986e-18
-1.19712e-18
-1.20422e-18
-1.19675e-18
-1.21111e-18
-1.20524e-18
-1.20997e-18
-1.20774e-18
-1.20695e-18
-1.21537e-18
-1.2197e-18
-1.22371e-18
-1.23018e-18
-1.21372e-18
-1.23942e-18
-1.23717e-18
-1.23587e-18
-1.22868e-18
-1.23947e-18
-1.24302e-18
-1.23828e-18
-1.24371e-18
-1.25043e-18
-1.23608e-18
-1.253e-18
-1.24466e-18
-1.26149e-18
-1.18912e-18
-1.21639e-18
-1.19839e-18
-1.20724e-18
-1.20088e-18
-1.20523e-18
-1.19948e-18
-1.21645e-18
-1.20408e-18
-1.19738e-18
-1.20933e-18
-1.21849e-18
-1.20236e-18
-1.21233e-18
-1.22403e-18
-1.21308e-18
-1.22153e-18
-1.22503e-18
-1.22042e-18
-1.23775e-18
-1.23985e-18
-1.23613e-18
-1.2348e-18
-1.2372e-18
-1.2441e-18
-1.23788e-18
-1.24303e-18
-1.24343e-18
-1.23083e-18
-1.24608e-18
-1.2436e-18
-1.25007e-18
-1.1987e-18
-1.22148e-18
-1.19814e-18
-1.21358e-18
-1.19233e-18
-1.20142e-18
-1.18942e-18
-1.20281e-18
-1.20557e-18
-1.19556e-18
-1.20427e-18
-1.21197e-18
-1.21189e-18
-1.21384e-18
-1.22124e-18
-1.20716e-18
-1.22339e-18
-1.21493e-18
-1.23106e-18
-1.24268e-18
-1.23552e-18
-1.23621e-18
-1.23691e-18
-1.23283e-18
-1.23865e-18
-1.23488e-18
-1.24266e-18
-1.23738e-18
-1.24225e-18
-1.24963e-18
-1.24377e-18
-1.24351e-18
-1.18875e-18
-1.21839e-18
-1.19388e-18
-1.21304e-18
-1.19121e-18
-1.20251e-18
-1.18354e-18
-1.19887e-18
-1.20228e-18
-1.19811e-18
-1.19938e-18
-1.21314e-18
-1.21213e-18
-1.20968e-18
-1.21077e-18
-1.21023e-18
-1.23041e-18
-1.21615e-18
-1.22549e-18
-1.23967e-18
-1.23438e-18
-1.2381e-18
-1.23749e-18
-1.22428e-18
-1.23388e-18
-1.23665e-18
-1.24312e-18
-1.2435e-18
-1.24789e-18
-1.2503e-18
-1.24903e-18
-1.25551e-18
-1.20464e-18
-1.20599e-18
-1.20125e-18
-1.21297e-18
-1.19884e-18
-1.20348e-18
-1.19888e-18
-1.19581e-18
-1.19406e-18
-1.20024e-18
-1.20103e-18
-1.20268e-18
-1.21602e-18
-1.20365e-18
-1.21299e-18
-1.20662e-18
-1.23222e-18
-1.22311e-18
-1.23045e-18
-1.24324e-18
-1.23093e-18
-1.24202e-18
-1.23883e-18
-1.23772e-18
-1.24034e-18
-1.23459e-18
-1.24395e-18
-1.24929e-18
-1.25356e-18
-1.24939e-18
-1.25198e-18
-1.25739e-18
-1.19788e-18
-1.21493e-18
-1.19723e-18
-1.21239e-18
-1.21064e-18
-1.19447e-18
-1.20868e-18
-1.19124e-18
-1.18898e-18
-1.1973e-18
-1.20093e-18
-1.19698e-18
-1.21252e-18
-1.19994e-18
-1.22131e-18
-1.20656e-18
-1.22542e-18
-1.22372e-18
-1.23503e-18
-1.24297e-18
-1.22442e-18
-1.23787e-18
-1.2453e-18
-1.23841e-18
-1.24719e-18
-1.24048e-18
-1.24499e-18
-1.24447e-18
-1.25257e-18
-1.24632e-18
-1.24591e-18
-1.25289e-18
-1.19664e-18
-1.21527e-18
-1.19011e-18
-1.2041e-18
-1.19049e-18
-1.19595e-18
-1.20285e-18
-1.18264e-18
-1.17826e-18
-1.18774e-18
-1.18914e-18
-1.19724e-18
-1.19848e-18
-1.20644e-18
-1.22629e-18
-1.21164e-18
-1.22506e-18
-1.2236e-18
-1.22935e-18
-1.23723e-18
-1.23531e-18
-1.23587e-18
-1.24554e-18
-1.23821e-18
-1.24091e-18
-1.24566e-18
-1.24803e-18
-1.24271e-18
-1.24545e-18
-1.24296e-18
-1.24473e-18
-1.25266e-18
-1.19917e-18
-1.20772e-18
-1.18961e-18
-1.20753e-18
-1.18148e-18
-1.19387e-18
-1.19336e-18
-1.19354e-18
-1.19242e-18
-1.19402e-18
-1.19752e-18
-1.19958e-18
-1.20467e-18
-1.20877e-18
-1.2245e-18
-1.2135e-18
-1.21697e-18
-1.22821e-18
-1.2305e-18
-1.24064e-18
-1.23565e-18
-1.23684e-18
-1.23813e-18
-1.23919e-18
-1.23633e-18
-1.24234e-18
-1.25315e-18
-1.24223e-18
-1.24384e-18
-1.24627e-18
-1.24496e-18
-1.26165e-18
-1.19759e-18
-1.21792e-18
-1.204e-18
-1.21132e-18
-1.20232e-18
-1.20587e-18
-1.19893e-18
-1.19752e-18
-1.19792e-18
-1.20181e-18
-1.20923e-18
-1.2001e-18
-1.2058e-18
-1.20717e-18
-1.22409e-18
-1.21627e-18
-1.22207e-18
-1.22311e-18
-1.22786e-18
-1.23299e-18
-1.23228e-18
-1.24286e-18
-1.23252e-18
-1.24204e-18
-1.23979e-18
-1.24049e-18
-1.23737e-18
-1.23774e-18
-1.24896e-18
-1.24636e-18
-1.25102e-18
-1.26994e-18
-1.20137e-18
-1.20828e-18
-1.19613e-18
-1.20101e-18
-1.19764e-18
-1.20513e-18
-1.2026e-18
-1.1948e-18
-1.19819e-18
-1.20602e-18
-1.20675e-18
-1.20322e-18
-1.2088e-18
-1.20321e-18
-1.21822e-18
-1.22657e-18
-1.23402e-18
-1.21626e-18
-1.23853e-18
-1.23074e-18
-1.23005e-18
-1.23987e-18
-1.23266e-18
-1.23545e-18
-1.24139e-18
-1.24053e-18
-1.2466e-18
-1.23943e-18
-1.23474e-18
-1.24444e-18
-1.25131e-18
-1.26607e-18
-1.20276e-18
-1.20933e-18
-1.19735e-18
-1.19599e-18
-1.19901e-18
-1.19027e-18
-1.20473e-18
-1.19973e-18
-1.19828e-18
-1.19918e-18
-1.20122e-18
-1.20419e-18
-1.21391e-18
-1.20819e-18
-1.21927e-18
-1.21715e-18
-1.22575e-18
-1.21251e-18
-1.23901e-18
-1.2282e-18
-1.24047e-18
-1.23611e-18
-1.23069e-18
-1.237e-18
-1.24166e-18
-1.24351e-18
-1.24649e-18
-1.23439e-18
-1.24135e-18
-1.24924e-18
-1.25122e-18
-1.20797e-18
-1.21125e-18
-1.18869e-18
-1.19872e-18
-1.19935e-18
-1.19061e-18
-1.1996e-18
-1.19805e-18
-1.19353e-18
-1.19876e-18
-1.20852e-18
-1.20003e-18
-1.21159e-18
-1.20434e-18
-1.20806e-18
-1.21382e-18
-1.22017e-18
-1.21988e-18
-1.23637e-18
-1.223e-18
-1.2402e-18
-1.23407e-18
-1.23628e-18
-1.237e-18
-1.24044e-18
-1.25287e-18
-1.24545e-18
-1.23179e-18
-1.23813e-18
-1.24777e-18
-1.24813e-18
-1.20674e-18
-1.20789e-18
-1.20385e-18
-1.19564e-18
-1.19219e-18
-1.19644e-18
-1.20915e-18
-1.19497e-18
-1.19629e-18
-1.19652e-18
-1.21172e-18
-1.20938e-18
-1.20064e-18
-1.19847e-18
-1.20962e-18
-1.20894e-18
-1.21334e-18
-1.21527e-18
-1.2335e-18
-1.2245e-18
-1.23778e-18
-1.23168e-18
-1.24664e-18
-1.23529e-18
-1.23884e-18
-1.24704e-18
-1.2463e-18
-1.2363e-18
-1.24596e-18
-1.25152e-18
-1.21518e-18
-1.18923e-18
-1.21889e-18
-1.18963e-18
-1.18936e-18
-1.20177e-18
-1.20577e-18
-1.19599e-18
-1.19592e-18
-1.19994e-18
-1.20781e-18
-1.20173e-18
-1.20206e-18
-1.20146e-18
-1.21165e-18
-1.20706e-18
-1.21299e-18
-1.20845e-18
-1.23808e-18
-1.22503e-18
-1.23936e-18
-1.23156e-18
-1.24542e-18
-1.23141e-18
-1.24492e-18
-1.2401e-18
-1.24911e-18
-1.24306e-18
-1.24128e-18
-1.24661e-18
-1.20548e-18
-1.187e-18
-1.20094e-18
-1.18423e-18
-1.17996e-18
-1.19817e-18
-1.20141e-18
-1.19814e-18
-1.19083e-18
-1.19242e-18
-1.20913e-18
-1.197e-18
-1.1973e-18
-1.19474e-18
-1.20653e-18
-1.20787e-18
-1.21616e-18
-1.21116e-18
-1.23814e-18
-1.22135e-18
-1.24339e-18
-1.22747e-18
-1.24691e-18
-1.23419e-18
-1.24393e-18
-1.23889e-18
-1.24476e-18
-1.23249e-18
-1.23792e-18
-1.23939e-18
-1.19808e-18
-1.20017e-18
-1.1874e-18
-1.18728e-18
-1.18789e-18
-1.1967e-18
-1.19432e-18
-1.19285e-18
-1.19002e-18
-1.19199e-18
-1.1994e-18
-1.19942e-18
-1.20486e-18
-1.19365e-18
-1.20641e-18
-1.21294e-18
-1.21828e-18
-1.21411e-18
-1.24298e-18
-1.22382e-18
-1.2397e-18
-1.22967e-18
-1.24966e-18
-1.23453e-18
-1.24508e-18
-1.2388e-18
-1.24271e-18
-1.23819e-18
-1.24241e-18
-1.23731e-18
-1.19936e-18
-1.19312e-18
-1.18692e-18
-1.18569e-18
-1.19694e-18
-1.19576e-18
-1.19176e-18
-1.19509e-18
-1.18603e-18
-1.19591e-18
-1.1856e-18
-1.19552e-18
-1.21143e-18
-1.19622e-18
-1.20204e-18
-1.20448e-18
-1.21471e-18
-1.21276e-18
-1.23603e-18
-1.22494e-18
-1.24006e-18
-1.22619e-18
-1.2492e-18
-1.23389e-18
-1.24987e-18
-1.23832e-18
-1.24404e-18
-1.24348e-18
-1.24869e-18
-1.23695e-18
-1.19219e-18
-1.19188e-18
-1.1935e-18
-1.18809e-18
-1.19176e-18
-1.18911e-18
-1.19332e-18
-1.19331e-18
-1.1917e-18
-1.19606e-18
-1.19781e-18
-1.19e-18
-1.1924e-18
-1.20243e-18
-1.19787e-18
-1.20323e-18
-1.22347e-18
-1.2135e-18
-1.23636e-18
-1.22657e-18
-1.24001e-18
-1.23181e-18
-1.24719e-18
-1.23359e-18
-1.24967e-18
-1.23721e-18
-1.24558e-18
-1.24255e-18
-1.24511e-18
-1.24544e-18
-1.20734e-18
-1.1906e-18
-1.19451e-18
-1.18306e-18
-1.19551e-18
-1.18232e-18
-1.19206e-18
-1.19593e-18
-1.18845e-18
-1.18758e-18
-1.19708e-18
-1.19881e-18
-1.19811e-18
-1.20029e-18
-1.20362e-18
-1.20293e-18
-1.22001e-18
-1.21015e-18
-1.23637e-18
-1.22444e-18
-1.24218e-18
-1.23652e-18
-1.25065e-18
-1.23519e-18
-1.24461e-18
-1.23538e-18
-1.23724e-18
-1.24436e-18
-1.24167e-18
-1.25131e-18
-1.19251e-18
-1.19445e-18
-1.18051e-18
-1.1787e-18
-1.19994e-18
-1.19481e-18
-1.19669e-18
-1.19604e-18
-1.1865e-18
-1.18742e-18
-1.20084e-18
-1.20467e-18
-1.21374e-18
-1.19959e-18
-1.20367e-18
-1.19917e-18
-1.22183e-18
-1.20708e-18
-1.229e-18
-1.21987e-18
-1.24223e-18
-1.23327e-18
-1.24928e-18
-1.23737e-18
-1.24317e-18
-1.23176e-18
-1.23608e-18
-1.2465e-18
-1.23786e-18
-1.24768e-18
-1.1903e-18
-1.18615e-18
-1.18716e-18
-1.1904e-18
-1.1995e-18
-1.19151e-18
-1.19999e-18
-1.19226e-18
-1.18e-18
-1.18827e-18
-1.19777e-18
-1.20461e-18
-1.20865e-18
-1.19691e-18
-1.21108e-18
-1.20596e-18
-1.22341e-18
-1.21283e-18
-1.23557e-18
-1.21862e-18
-1.24331e-18
-1.23069e-18
-1.24173e-18
-1.2318e-18
-1.24518e-18
-1.23481e-18
-1.24189e-18
-1.24923e-18
-1.24206e-18
-1.25338e-18
-1.19612e-18
-1.19693e-18
-1.19771e-18
-1.19084e-18
-1.20372e-18
-1.19606e-18
-1.20511e-18
-1.19145e-18
-1.18547e-18
-1.18768e-18
-1.19345e-18
-1.19349e-18
-1.19572e-18
-1.19902e-18
-1.21056e-18
-1.21056e-18
-1.22304e-18
-1.21183e-18
-1.23628e-18
-1.22452e-18
-1.24135e-18
-1.23021e-18
-1.23495e-18
-1.23685e-18
-1.24934e-18
-1.23587e-18
-1.24479e-18
-1.24959e-18
-1.24422e-18
-1.2485e-18
-1.20531e-18
-1.19814e-18
-1.19617e-18
-1.19215e-18
-1.19216e-18
-1.19188e-18
-1.20125e-18
-1.19722e-18
-1.19475e-18
-1.18569e-18
-1.18522e-18
-1.19622e-18
-1.1953e-18
-1.19945e-18
-1.2159e-18
-1.20919e-18
-1.2234e-18
-1.21116e-18
-1.23253e-18
-1.22531e-18
-1.23889e-18
-1.23205e-18
-1.23809e-18
-1.23177e-18
-1.2459e-18
-1.2418e-18
-1.24918e-18
-1.25164e-18
-1.24328e-18
-1.25117e-18
-1.20544e-18
-1.1913e-18
-1.19334e-18
-1.18936e-18
-1.19149e-18
-1.19018e-18
-1.1951e-18
-1.18933e-18
-1.19598e-18
-1.18487e-18
-1.18762e-18
-1.19514e-18
-1.20018e-18
-1.20088e-18
-1.21367e-18
-1.21133e-18
-1.22452e-18
-1.20815e-18
-1.23104e-18
-1.22411e-18
-1.23571e-18
-1.23348e-18
-1.23745e-18
-1.23578e-18
-1.2458e-18
-1.23634e-18
-1.24681e-18
-1.25125e-18
-1.24462e-18
-1.2531e-18
-1.19974e-18
-1.19338e-18
-1.18152e-18
-1.17979e-18
-1.19087e-18
-1.18971e-18
-1.18269e-18
-1.19047e-18
-1.19896e-18
-1.19436e-18
-1.18586e-18
-1.19281e-18
-1.19437e-18
-1.19794e-18
-1.2065e-18
-1.20762e-18
-1.22377e-18
-1.20409e-18
-1.2304e-18
-1.22917e-18
-1.23431e-18
-1.23744e-18
-1.23429e-18
-1.23128e-18
-1.25304e-18
-1.23986e-18
-1.24329e-18
-1.24849e-18
-1.24688e-18
-1.24754e-18
-1.20072e-18
-1.1891e-18
-1.18644e-18
-1.19342e-18
-1.18801e-18
-1.17636e-18
-1.18574e-18
-1.19156e-18
-1.19301e-18
-1.19064e-18
-1.18768e-18
-1.19198e-18
-1.19519e-18
-1.20283e-18
-1.21687e-18
-1.2062e-18
-1.22797e-18
-1.21081e-18
-1.22785e-18
-1.22333e-18
-1.233e-18
-1.23485e-18
-1.23518e-18
-1.23553e-18
-1.25849e-18
-1.24423e-18
-1.23845e-18
-1.24863e-18
-1.2397e-18
-1.24245e-18
-1.19314e-18
-1.20634e-18
-1.18341e-18
-1.18792e-18
-1.1931e-18
-1.17684e-18
-1.1901e-18
-1.19149e-18
-1.18985e-18
-1.18435e-18
-1.19316e-18
-1.20162e-18
-1.18935e-18
-1.20486e-18
-1.21335e-18
-1.20659e-18
-1.21344e-18
-1.21128e-18
-1.23644e-18
-1.22379e-18
-1.23324e-18
-1.22972e-18
-1.23211e-18
-1.23781e-18
-1.25301e-18
-1.24041e-18
-1.23984e-18
-1.25456e-18
-1.24417e-18
-1.24577e-18
-1.18161e-18
-1.19768e-18
-1.17734e-18
-1.18497e-18
-1.18718e-18
-1.17402e-18
-1.21123e-18
-1.19281e-18
-1.19451e-18
-1.17651e-18
-1.19082e-18
-1.21035e-18
-1.19194e-18
-1.20059e-18
-1.20896e-18
-1.20923e-18
-1.20581e-18
-1.20975e-18
-1.23938e-18
-1.22628e-18
-1.23382e-18
-1.23621e-18
-1.23682e-18
-1.23202e-18
-1.24703e-18
-1.23765e-18
-1.24474e-18
-1.25457e-18
-1.24569e-18
-1.24558e-18
-1.19532e-18
-1.19864e-18
-1.1807e-18
-1.18217e-18
-1.19161e-18
-1.19386e-18
-1.21703e-18
-1.19116e-18
-1.21093e-18
-1.17563e-18
-1.1909e-18
-1.19448e-18
-1.19004e-18
-1.19893e-18
-1.20353e-18
-1.20681e-18
-1.21471e-18
-1.20761e-18
-1.22925e-18
-1.22824e-18
-1.2371e-18
-1.23498e-18
-1.23904e-18
-1.23354e-18
-1.24559e-18
-1.24479e-18
-1.24695e-18
-1.2512e-18
-1.2457e-18
-1.25219e-18
-1.19641e-18
-1.20004e-18
-1.18487e-18
-1.17796e-18
-1.20965e-18
-1.1846e-18
-1.21023e-18
-1.18354e-18
-1.20467e-18
-1.17611e-18
-1.20501e-18
-1.18902e-18
-1.1966e-18
-1.19363e-18
-1.1957e-18
-1.198e-18
-1.21375e-18
-1.20861e-18
-1.22611e-18
-1.2312e-18
-1.23175e-18
-1.2311e-18
-1.24148e-18
-1.23463e-18
-1.24577e-18
-1.24292e-18
-1.24909e-18
-1.25191e-18
-1.24669e-18
-1.25802e-18
-1.19379e-18
-1.19693e-18
-1.19124e-18
-1.1791e-18
-1.20431e-18
-1.18178e-18
-1.2034e-18
-1.17499e-18
-1.20566e-18
-1.18146e-18
-1.19772e-18
-1.1868e-18
-1.20455e-18
-1.18582e-18
-1.19787e-18
-1.20143e-18
-1.21327e-18
-1.21407e-18
-1.22827e-18
-1.22677e-18
-1.22651e-18
-1.23203e-18
-1.23806e-18
-1.23406e-18
-1.24628e-18
-1.24088e-18
-1.25129e-18
-1.24782e-18
-1.24606e-18
-1.25451e-18
-1.20175e-18
-1.18806e-18
-1.19523e-18
-1.17597e-18
-1.1952e-18
-1.17689e-18
-1.20487e-18
-1.1883e-18
-1.20172e-18
-1.17738e-18
-1.20083e-18
-1.18156e-18
-1.19486e-18
-1.18478e-18
-1.20631e-18
-1.2083e-18
-1.21672e-18
-1.21055e-18
-1.22092e-18
-1.22607e-18
-1.22492e-18
-1.23541e-18
-1.23368e-18
-1.23438e-18
-1.24842e-18
-1.23975e-18
-1.25502e-18
-1.24499e-18
-1.25137e-18
-1.25289e-18
-1.20069e-18
-1.193e-18
-1.19964e-18
-1.17931e-18
-1.19168e-18
-1.17467e-18
-1.20833e-18
-1.19729e-18
-1.19623e-18
-1.1652e-18
-1.19275e-18
-1.17933e-18
-1.1966e-18
-1.19875e-18
-1.19814e-18
-1.20769e-18
-1.21922e-18
-1.20553e-18
-1.22105e-18
-1.22918e-18
-1.22675e-18
-1.23295e-18
-1.23419e-18
-1.23564e-18
-1.25348e-18
-1.24666e-18
-1.25317e-18
-1.24186e-18
-1.24944e-18
-1.25054e-18
-1.2e-18
-1.19299e-18
-1.19751e-18
-1.18202e-18
-1.19341e-18
-1.18324e-18
-1.19498e-18
-1.19773e-18
-1.19964e-18
-1.17448e-18
-1.18439e-18
-1.18242e-18
-1.19979e-18
-1.19356e-18
-1.20179e-18
-1.20227e-18
-1.21863e-18
-1.20236e-18
-1.23329e-18
-1.22529e-18
-1.22239e-18
-1.23063e-18
-1.2395e-18
-1.23656e-18
-1.2554e-18
-1.24481e-18
-1.25413e-18
-1.24439e-18
-1.24528e-18
-1.24624e-18
-1.19691e-18
-1.17385e-18
-1.20813e-18
-1.18671e-18
-1.20279e-18
-1.20626e-18
-1.21163e-18
-1.18533e-18
-1.17753e-18
-1.18156e-18
-1.20456e-18
-1.19051e-18
-1.22734e-18
-1.2248e-18
-1.24262e-18
-1.22876e-18
-1.2508e-18
-1.24022e-18
-1.24838e-18
-1.24431e-18
-1.24236e-18
-1.25068e-18
-1.17008e-18
-1.17187e-18
-1.17583e-18
-1.1776e-18
-1.18496e-18
-1.17393e-18
-1.18241e-18
-1.19139e-18
-1.17006e-18
-1.19218e-18
-1.15842e-18
-1.16866e-18
-1.16185e-18
-1.17734e-18
-1.16039e-18
-1.16229e-18
-1.17866e-18
-1.19458e-18
-1.17581e-18
-1.17578e-18
-1.18539e-18
-1.17407e-18
-1.17013e-18
-1.18021e-18
-1.16317e-18
-1.18024e-18
-1.16957e-18
-1.18813e-18
-1.18327e-18
-1.18159e-18
-1.19911e-18
-1.168e-18
-1.17514e-18
-1.16794e-18
-1.17606e-18
-1.18659e-18
-1.20071e-18
-1.172e-18
-1.17059e-18
-1.18787e-18
-1.20351e-18
-1.16329e-18
-1.18526e-18
-1.19781e-18
-1.16553e-18
-1.18749e-18
-1.17858e-18
-1.16277e-18
-1.18512e-18
-1.19429e-18
-1.18072e-18
-1.1686e-18
-1.16486e-18
-1.18843e-18
-1.19332e-18
-1.17962e-18
-1.17208e-18
-1.17647e-18
-1.18079e-18
-1.1649e-18
-1.15567e-18
-1.17339e-18
-1.1889e-18
-1.16957e-18
-1.18199e-18
-1.18026e-18
-1.17914e-18
-1.16555e-18
-1.16523e-18
-1.16465e-18
-1.17836e-18
-1.16957e-18
-1.17011e-18
-1.16634e-18
-1.17211e-18
-1.17832e-18
-1.17251e-18
-1.18161e-18
-1.19619e-18
-1.18226e-18
-1.16773e-18
-1.1798e-18
-1.17168e-18
-1.18246e-18
-1.18724e-18
-1.17828e-18
-1.21282e-18
-1.18134e-18
-1.1909e-18
-1.18754e-18
-1.19718e-18
-1.14758e-18
-1.16717e-18
-1.17903e-18
-1.1671e-18
-1.16185e-18
-1.18296e-18
-1.19118e-18
-1.15707e-18
-1.16217e-18
-1.18201e-18
-1.17176e-18
-1.18479e-18
-1.18825e-18
-1.17926e-18
-1.17253e-18
-1.17583e-18
-1.20092e-18
-1.17519e-18
-1.17441e-18
-1.16998e-18
-1.15319e-18
-1.19437e-18
-1.18574e-18
-1.17061e-18
-1.17709e-18
-1.1858e-18
-1.19598e-18
-1.17317e-18
-1.1903e-18
-1.20445e-18
-1.20483e-18
-1.19322e-18
-1.19328e-18
-1.19963e-18
-1.22047e-18
-1.19213e-18
-1.18353e-18
-1.20405e-18
-1.16906e-18
-1.17035e-18
-1.16222e-18
-1.18697e-18
-1.16942e-18
-1.16601e-18
-1.15263e-18
-1.17049e-18
-1.18854e-18
-1.16315e-18
-1.16771e-18
-1.1657e-18
-1.16182e-18
-1.18418e-18
-1.18501e-18
-1.20813e-18
-1.17793e-18
-1.18041e-18
-1.18704e-18
-1.18443e-18
-1.17746e-18
-1.15927e-18
-1.17249e-18
-1.19278e-18
-1.18169e-18
-1.178e-18
-1.16996e-18
-1.18325e-18
-1.17504e-18
-1.1869e-18
-1.20088e-18
-1.21963e-18
-1.22023e-18
-1.20013e-18
-1.20078e-18
-1.20513e-18
-1.2041e-18
-1.19571e-18
-1.20005e-18
-1.1981e-18
-1.16283e-18
-1.16462e-18
-1.16262e-18
-1.15901e-18
-1.17494e-18
-1.16628e-18
-1.1609e-18
-1.16167e-18
-1.16591e-18
-1.18813e-18
-1.1566e-18
-1.16872e-18
-1.15063e-18
-1.17126e-18
-1.20003e-18
-1.18787e-18
-1.20517e-18
-1.17726e-18
-1.18306e-18
-1.19241e-18
-1.17666e-18
-1.18862e-18
-1.15902e-18
-1.17655e-18
-1.16885e-18
-1.17989e-18
-1.18326e-18
-1.17305e-18
-1.18896e-18
-1.18216e-18
-1.2005e-18
-1.19608e-18
-1.20308e-18
-1.2062e-18
-1.20713e-18
-1.20545e-18
-1.19772e-18
-1.1915e-18
-1.19498e-18
-1.20405e-18
-1.21541e-18
-1.14773e-18
-1.15814e-18
-1.16885e-18
-1.15987e-18
-1.15204e-18
-1.17967e-18
-1.16583e-18
-1.153e-18
-1.16551e-18
-1.15507e-18
-1.18206e-18
-1.16646e-18
-1.17358e-18
-1.19485e-18
-1.17758e-18
-1.18702e-18
-1.20148e-18
-1.18277e-18
-1.17113e-18
-1.19136e-18
-1.14793e-18
-1.17392e-18
-1.18634e-18
-1.17019e-18
-1.17833e-18
-1.175e-18
-1.17471e-18
-1.19083e-18
-1.18839e-18
-1.19495e-18
-1.17561e-18
-1.19206e-18
-1.19215e-18
-1.18363e-18
-1.19544e-18
-1.19845e-18
-1.20795e-18
-1.19566e-18
-1.18787e-18
-1.19799e-18
-1.20647e-18
-1.19036e-18
-1.16656e-18
-1.14791e-18
-1.15871e-18
-1.15452e-18
-1.15997e-18
-1.15831e-18
-1.16295e-18