/*--------------------------------*- C++ -*----------------------------------*\
  =========                 |
  \\      /  F ield         | OpenFOAM: The Open Source CFD Toolbox
   \\    /   O peration     | Website:  https://openfoam.org
    \\  /    A nd           | Version:  7
     \\/     M anipulation  |
\*---------------------------------------------------------------------------*/
FoamFile
{
    version     2.0;
    format      ascii;
    class       volVectorField;
    location    "260000";
    object      U;
}
// * * * * * * * * * * * * * * * * * * * * * * * * * * * * * * * * * * * * * //

dimensions      [0 1 -1 0 0 0 0];

internalField   nonuniform List<vector> 
4783
(
(1.81976e-20 -5.74914e-19 -0.0159652)
(8.27666e-20 -1.80842e-19 -0.0159757)
(1.86529e-19 2.18428e-19 -0.0159856)
(3.09737e-19 9.41581e-20 -0.0159949)
(8.45507e-20 -3.57019e-19 -0.0160036)
(-2.20805e-19 -8.33338e-19 -0.0160119)
(-6.78095e-20 -1.14485e-18 -0.0160196)
(-1.19099e-19 -9.48561e-19 -0.0160268)
(-1.74989e-19 -5.11738e-19 -0.0160335)
(8.05229e-20 -4.39111e-19 -0.0160397)
(4.49724e-19 -8.04742e-19 -0.0160455)
(2.12565e-19 -1.06197e-18 -0.0160508)
(5.7365e-20 -1.15522e-18 -0.0160557)
(1.81878e-19 -1.05841e-18 -0.0160601)
(2.48786e-19 -7.59128e-19 -0.0160642)
(-2.25802e-19 -3.66022e-19 -0.0160678)
(-5.92453e-19 -4.38068e-19 -0.016071)
(-5.47396e-19 -7.48226e-19 -0.0160738)
(-6.42388e-19 -5.41879e-19 -0.0160763)
(-8.036e-19 -3.09832e-19 -0.0160784)
(-1.02885e-18 -3.69031e-19 -0.0160801)
(-1.20315e-18 2.42833e-20 -0.0160815)
(4.59127e-19 -8.83352e-19 -0.0159473)
(5.06712e-19 -5.56447e-19 -0.0159576)
(4.8598e-19 -1.42172e-19 -0.0159675)
(5.60848e-19 1.54742e-19 -0.0159771)
(4.84376e-19 2.18172e-19 -0.0159862)
(5.95673e-19 -2.79454e-19 -0.0159948)
(5.30383e-19 -8.59078e-19 -0.0160029)
(6.25562e-20 -8.45691e-19 -0.0160105)
(-1.51671e-19 -7.64831e-19 -0.0160176)
(8.26086e-20 -7.85524e-19 -0.0160242)
(2.05396e-19 -7.86211e-19 -0.0160303)
(-9.85146e-20 -7.74435e-19 -0.016036)
(-2.35976e-19 -9.92098e-19 -0.0160412)
(-2.96768e-19 -1.12341e-18 -0.0160459)
(-3.11385e-19 -9.28678e-19 -0.0160502)
(-2.79084e-19 -5.79419e-19 -0.0160541)
(-1.304e-19 -8.01693e-19 -0.0160576)
(-5.99171e-20 -1.03885e-18 -0.0160606)
(-1.83524e-19 -5.4612e-19 -0.0160633)
(-4.6063e-19 6.13071e-20 -0.0160656)
(-7.69265e-19 3.21419e-19 -0.0160674)
(-1.08344e-18 4.49401e-19 -0.0160689)
(6.34982e-19 -1.13297e-18 -0.0159278)
(3.86815e-19 -7.5357e-19 -0.0159385)
(1.92287e-19 -3.53143e-19 -0.0159487)
(3.40685e-19 -1.47696e-19 -0.0159585)
(4.47034e-19 -6.57902e-20 -0.0159679)
(9.10031e-19 -1.01696e-19 -0.0159769)
(7.2261e-19 -2.02337e-19 -0.0159853)
(5.24511e-19 -2.80654e-19 -0.0159932)
(5.81447e-19 -5.68942e-19 -0.0160007)
(6.91096e-19 -8.55205e-19 -0.0160077)
(3.46118e-19 -6.77814e-19 -0.0160141)
(-6.2802e-20 -5.30619e-19 -0.0160201)
(-1.23581e-19 -8.49722e-19 -0.0160256)
(-2.93356e-19 -1.13439e-18 -0.0160307)
(-3.91344e-19 -1.15625e-18 -0.0160353)
(-4.47132e-19 -7.85833e-19 -0.0160394)
(-4.78003e-19 -7.21191e-19 -0.0160431)
(-6.70284e-19 -9.27556e-19 -0.0160464)
(-8.64001e-19 -3.93451e-19 -0.0160492)
(-1.18257e-18 2.69632e-19 -0.0160516)
(-1.2323e-18 4.15236e-19 -0.0160536)
(-1.14307e-18 3.87283e-19 -0.0160552)
(2.93002e-19 -8.27506e-19 -0.0159073)
(5.52704e-20 -8.11461e-19 -0.0159184)
(-2.53281e-19 -6.08446e-19 -0.015929)
(-2.7959e-19 -3.35151e-19 -0.0159391)
(-1.02617e-19 -4.01385e-19 -0.0159488)
(3.19349e-19 -4.85494e-19 -0.0159581)
(4.65075e-19 -3.63359e-19 -0.0159668)
(7.82987e-19 -4.46723e-19 -0.0159751)
(1.06079e-18 -5.67744e-19 -0.0159829)
(8.0788e-19 -4.74759e-19 -0.0159902)
(2.00232e-19 -1.81787e-19 -0.015997)
(1.22727e-19 -2.19217e-19 -0.0160033)
(2.92292e-19 -5.1628e-19 -0.0160091)
(2.51994e-19 -7.78528e-19 -0.0160144)
(-1.71016e-19 -9.85667e-19 -0.0160193)
(-5.59969e-19 -7.21399e-19 -0.0160237)
(-8.06028e-19 -6.15045e-19 -0.0160276)
(-1.00308e-18 -8.01965e-19 -0.0160311)
(-1.30899e-18 -2.733e-19 -0.0160341)
(-1.38929e-18 3.74205e-19 -0.0160367)
(-1.39572e-18 2.99386e-19 -0.0160388)
(-1.0948e-18 2.26575e-19 -0.0160405)
(1.83103e-19 -6.46858e-19 -0.0158858)
(-1.45561e-19 -4.98771e-19 -0.0158974)
(-4.27763e-19 -4.56535e-19 -0.0159084)
(-4.05573e-19 -4.936e-19 -0.0159189)
(-2.97502e-19 -5.91118e-19 -0.0159289)
(-1.29719e-19 -7.72852e-19 -0.0159385)
(1.65334e-19 -7.51269e-19 -0.0159476)
(2.99925e-19 -8.03489e-19 -0.0159562)
(2.26918e-19 -6.43801e-19 -0.0159643)
(-7.99484e-22 -2.48198e-19 -0.0159719)
(-1.63086e-19 -1.49181e-19 -0.0159789)
(1.90082e-19 -4.82953e-19 -0.0159855)
(5.69551e-19 -7.51011e-19 -0.0159916)
(5.93653e-19 -4.56654e-19 -0.0159972)
(-8.60724e-20 -3.2189e-19 -0.0160023)
(-5.75003e-19 -2.53996e-19 -0.016007)
(-6.84029e-19 -2.65693e-19 -0.0160111)
(-8.62133e-19 -5.08267e-19 -0.0160148)
(-1.19334e-18 -2.29466e-19 -0.016018)
(-9.87255e-19 3.28157e-19 -0.0160207)
(-7.72598e-19 1.79738e-19 -0.016023)
(-4.36524e-19 -2.5835e-19 -0.0160248)
(5.893e-20 -5.84099e-19 -0.0158636)
(-1.55411e-19 -4.7359e-19 -0.0158755)
(-1.16129e-19 -3.48374e-19 -0.0158869)
(-1.05796e-19 -3.06398e-19 -0.0158978)
(-6.06945e-20 -4.57702e-19 -0.0159082)
(8.14787e-20 -8.56644e-19 -0.0159181)
(2.11012e-19 -8.03284e-19 -0.0159275)
(-1.78136e-21 -6.74697e-19 -0.0159364)
(-3.143e-19 -7.33428e-19 -0.0159448)
(-3.76086e-19 -4.60565e-19 -0.0159527)
(-3.463e-19 -3.23113e-19 -0.01596)
(-3.21123e-20 -7.52332e-19 -0.0159669)
(2.24136e-19 -1.00667e-18 -0.0159733)
(-8.28132e-20 -3.12142e-19 -0.0159791)
(-6.38579e-19 1.49388e-19 -0.0159845)
(-8.34572e-19 -1.18873e-19 -0.0159893)
(-4.71703e-19 -2.29515e-19 -0.0159937)
(-4.29103e-19 -2.40486e-19 -0.0159975)
(-4.68768e-19 -2.68022e-19 -0.0160009)
(-3.62834e-19 -8.00557e-20 -0.0160038)
(-1.56651e-19 -1.43927e-19 -0.0160061)
(-5.82984e-20 -6.76647e-19 -0.016008)
(-2.58523e-19 -4.26852e-19 -0.0158406)
(-3.90988e-19 -5.62059e-19 -0.0158529)
(-2.20859e-19 -5.5943e-19 -0.0158646)
(-1.75755e-19 -4.1762e-19 -0.0158759)
(8.93148e-20 -3.47585e-19 -0.0158866)
(2.73776e-19 -7.6833e-19 -0.0158968)
(1.66549e-19 -8.10353e-19 -0.0159065)
(9.49596e-20 -4.09738e-19 -0.0159158)
(5.55879e-20 -4.38957e-19 -0.0159245)
(-1.21933e-19 -4.35441e-19 -0.0159326)
(-3.04643e-19 -3.73048e-19 -0.0159403)
(-3.1013e-19 -8.43968e-19 -0.0159474)
(-4.71938e-19 -1.01946e-18 -0.0159541)
(-1.08374e-18 -1.51324e-19 -0.0159602)
(-1.23991e-18 3.22332e-19 -0.0159657)
(-1.02968e-18 -3.29678e-19 -0.0159708)
(-4.67888e-19 -6.46309e-19 -0.0159753)
(-2.6209e-19 -4.8361e-19 -0.0159794)
(-4.6725e-20 -2.79992e-19 -0.0159829)
(-8.65935e-20 3.6663e-20 -0.0159859)
(1.1792e-19 -1.65297e-20 -0.0159884)
(-8.86348e-20 -4.66373e-19 -0.0159904)
(-7.28429e-19 6.73089e-21 -0.0158168)
(-7.23874e-19 -5.31552e-19 -0.0158295)
(-4.18752e-19 -6.72299e-19 -0.0158416)
(-2.05793e-19 -7.11314e-19 -0.0158532)
(7.10504e-20 -6.03403e-19 -0.0158643)
(-8.2952e-20 -7.04691e-19 -0.0158748)
(-2.67134e-19 -9.44923e-19 -0.0158848)
(-1.77261e-19 -8.21218e-19 -0.0158944)
(2.87657e-22 -4.97578e-19 -0.0159033)
(-1.28631e-19 -1.32477e-19 -0.0159118)
(-1.02667e-19 5.36556e-20 -0.0159197)
(-2.70452e-19 -3.91939e-19 -0.0159271)
(-9.38856e-19 -6.82027e-19 -0.015934)
(-1.32604e-18 -1.32204e-19 -0.0159403)
(-9.02835e-19 1.83567e-19 -0.0159461)
(-6.25694e-19 -5.69275e-19 -0.0159514)
(-5.70646e-19 -9.76895e-19 -0.0159561)
(-5.97639e-19 -7.72741e-19 -0.0159603)
(-5.44813e-19 -5.55697e-19 -0.015964)
(-3.62302e-19 -2.63168e-19 -0.0159671)
(-5.82995e-20 -2.95361e-20 -0.0159697)
(-2.64537e-19 1.23455e-19 -0.0159718)
(-6.93814e-19 4.44825e-19 -0.0157923)
(-3.53432e-19 -3.57427e-19 -0.0158054)
(1.99691e-19 -7.73961e-19 -0.0158178)
(2.06468e-19 -7.84986e-19 -0.0158298)
(-6.3058e-20 -4.99433e-19 -0.0158412)
(-1.14039e-19 -4.07184e-19 -0.015852)
(1.37734e-19 -7.1089e-19 -0.0158624)
(-8.59838e-20 -9.2026e-19 -0.0158722)
(-1.08643e-19 -8.43807e-19 -0.0158814)
(1.19485e-19 -5.40197e-19 -0.0158902)
(3.61281e-19 -1.81153e-20 -0.0158984)
(4.05916e-20 2.61135e-19 -0.015906)
(-6.71374e-19 -1.58535e-19 -0.0159131)
(-7.93131e-19 -4.08683e-19 -0.0159197)
(-4.82627e-19 -8.35521e-20 -0.0159257)
(-5.37978e-19 -2.73984e-19 -0.0159311)
(-9.46307e-19 -6.90604e-19 -0.015936)
(-9.21703e-19 -6.7305e-19 -0.0159404)
(-1.109e-18 -6.84147e-19 -0.0159442)
(-1.14462e-18 -5.62016e-19 -0.0159475)
(-9.70855e-19 -1.61665e-19 -0.0159502)
(-9.05336e-19 8.57402e-20 -0.0159524)
(-2.14915e-19 3.4331e-19 -0.0157672)
(4.31125e-19 -1.68881e-19 -0.0157806)
(5.9194e-19 -6.47499e-19 -0.0157934)
(2.4677e-19 -6.215e-19 -0.0158056)
(3.64043e-20 -6.003e-19 -0.0158173)
(5.53655e-19 -6.39852e-19 -0.0158285)
(8.08195e-19 -5.29369e-19 -0.0158391)
(3.74256e-19 -4.88497e-19 -0.0158492)
(1.82884e-19 -8.45229e-19 -0.0158588)
(1.20731e-19 -8.66243e-19 -0.0158678)
(-1.5895e-19 -1.96579e-19 -0.0158762)
(-6.05981e-19 5.35984e-19 -0.0158841)
(-7.19622e-19 3.2656e-19 -0.0158915)
(-7.38627e-19 -2.41048e-19 -0.0158982)
(-6.9408e-19 -3.5123e-20 -0.0159044)
(-9.54959e-19 5.29498e-21 -0.0159101)
(-1.29426e-18 -5.94007e-19 -0.0159152)
(-8.98567e-19 -6.52987e-19 -0.0159197)
(-9.79893e-19 -3.99643e-19 -0.0159236)
(-1.13672e-18 -4.97858e-19 -0.015927)
(-1.11234e-18 -3.36607e-19 -0.0159298)
(-1.36085e-18 -1.6804e-19 -0.0159321)
(4.89284e-21 -4.94436e-20 -0.0157414)
(5.74384e-19 -1.41594e-19 -0.0157551)
(4.4439e-19 -4.03724e-19 -0.0157682)
(2.54137e-19 -4.66271e-19 -0.0157808)
(8.01321e-20 -7.35614e-19 -0.0157928)
(3.77668e-19 -9.73057e-19 -0.0158043)
(1.58966e-19 -6.99157e-19 -0.0158152)
(2.10986e-19 -2.65423e-19 -0.0158256)
(-1.72849e-20 -5.03534e-19 -0.0158354)
(-5.13978e-19 -6.76467e-19 -0.0158446)
(-1.11949e-18 -1.89001e-19 -0.0158533)
(-1.47399e-18 3.59909e-19 -0.0158615)
(-1.21558e-18 1.77416e-19 -0.015869)
(-9.65426e-19 -3.14726e-19 -0.015876)
(-8.40769e-19 3.02536e-20 -0.0158824)
(-8.38288e-19 4.08376e-19 -0.0158882)
(-9.26803e-19 -5.71152e-19 -0.0158935)
(-5.55895e-19 -9.51784e-19 -0.0158981)
(-6.84263e-19 -4.45765e-19 -0.0159022)
(-7.19937e-19 -3.96948e-19 -0.0159057)
(-8.59148e-19 4.5553e-20 -0.0159086)
(-1.2905e-18 4.83133e-19 -0.0159109)
(9.35897e-20 -1.86291e-19 -0.015715)
(2.32199e-19 -3.86221e-19 -0.015729)
(1.96875e-19 -4.36749e-19 -0.0157424)
(3.3491e-19 -2.26398e-19 -0.0157553)
(3.03958e-19 -4.13757e-19 -0.0157676)
(4.38977e-19 -8.02264e-19 -0.0157793)
(2.13422e-19 -9.25942e-19 -0.0157905)
(4.92228e-19 -4.36613e-19 -0.0158012)
(-4.13828e-20 -1.72293e-19 -0.0158113)
(-5.42131e-19 -2.5498e-19 -0.0158208)
(-1.15369e-18 4.30608e-20 -0.0158297)
(-1.42418e-18 4.1151e-19 -0.0158381)
(-1.18847e-18 9.52258e-20 -0.0158458)
(-7.34678e-19 -4.8399e-19 -0.015853)
(-7.80084e-19 -3.04193e-19 -0.0158596)
(-6.26107e-19 3.22785e-19 -0.0158656)
(-3.7339e-19 -4.1869e-19 -0.015871)
(-5.11232e-19 -8.51229e-19 -0.0158758)
(-1.01496e-18 -3.39996e-19 -0.01588)
(-9.6845e-19 -3.67616e-19 -0.0158836)
(-1.08901e-18 1.27922e-19 -0.0158866)
(-1.04602e-18 8.2024e-19 -0.015889)
(1.2303e-21 -1.57803e-19 -0.015688)
(-8.2285e-20 -3.21917e-19 -0.0157023)
(2.68282e-20 -7.50363e-19 -0.015716)
(1.82823e-19 -6.23907e-19 -0.0157291)
(5.74403e-19 -4.30013e-19 -0.0157417)
(9.93275e-19 -5.67641e-19 -0.0157538)
(8.60324e-19 -7.97915e-19 -0.0157652)
(3.81674e-19 -4.05566e-19 -0.0157761)
(-1.39205e-19 1.45244e-19 -0.0157865)
(-3.81687e-19 1.17368e-19 -0.0157962)
(-7.4285e-19 3.64092e-19 -0.0158054)
(-7.89928e-19 5.51831e-19 -0.015814)
(-4.34994e-19 7.37595e-20 -0.0158219)
(-2.13788e-19 -4.07155e-19 -0.0158293)
(-6.68606e-19 -2.17009e-19 -0.0158361)
(-8.83315e-19 1.44999e-19 -0.0158423)
(-4.90561e-19 -3.45236e-19 -0.0158478)
(-8.33047e-19 -4.49971e-19 -0.0158527)
(-1.19556e-18 -1.56499e-19 -0.0158571)
(-1.1165e-18 -3.79468e-19 -0.0158608)
(-1.34843e-18 2.27659e-20 -0.0158639)
(-1.12608e-18 6.96462e-19 -0.0158664)
(-2.63771e-19 -1.38752e-19 -0.0156604)
(-1.92496e-20 -1.84301e-19 -0.015675)
(1.01754e-19 -5.34868e-19 -0.0156889)
(1.24101e-19 -8.81039e-19 -0.0157024)
(7.91584e-19 -9.08432e-19 -0.0157152)
(1.00145e-18 -7.52222e-19 -0.0157275)
(7.2913e-19 -5.03911e-19 -0.0157393)
(-3.21484e-19 -3.53488e-19 -0.0157504)
(-6.24786e-19 2.93406e-20 -0.015761)
(-6.97386e-19 9.2241e-20 -0.015771)
(-6.61952e-19 3.36609e-19 -0.0157804)
(-3.68101e-19 5.18068e-19 -0.0157892)
(2.25678e-19 2.11469e-19 -0.0157973)
(-1.47725e-19 -1.2183e-19 -0.0158049)
(-9.20293e-19 9.11204e-20 -0.0158119)
(-1.13381e-18 1.96496e-19 -0.0158182)
(-6.56894e-19 -3.33305e-19 -0.0158239)
(-8.46656e-19 -3.21823e-19 -0.015829)
(-9.73559e-19 -7.24052e-20 -0.0158334)
(-9.06245e-19 -2.10803e-19 -0.0158372)
(-1.11808e-18 8.54863e-20 -0.0158404)
(-9.42578e-19 4.69319e-19 -0.0158429)
(-1.46785e-19 -1.03963e-19 -0.0156323)
(9.23938e-20 -2.81936e-19 -0.0156471)
(1.49825e-19 -4.8385e-19 -0.0156613)
(3.59764e-19 -8.90583e-19 -0.015675)
(9.43636e-19 -1.03394e-18 -0.0156882)
(7.19623e-19 -8.71731e-19 -0.0157007)
(2.5502e-19 -2.91986e-19 -0.0157127)
(-5.92655e-19 3.87699e-20 -0.0157241)
(-8.05739e-19 7.48569e-20 -0.0157349)
(-1.0612e-18 -9.83015e-20 -0.0157451)
(-1.0649e-18 -4.69351e-20 -0.0157547)
(-4.97857e-19 3.72005e-20 -0.0157637)
(6.78903e-20 2.11693e-19 -0.0157721)
(-6.76797e-19 4.2999e-19 -0.0157798)
(-1.42651e-18 3.85549e-19 -0.0157869)
(-1.28843e-18 4.24877e-20 -0.0157934)
(-9.05477e-19 -4.7127e-19 -0.0157993)
(-1.07472e-18 -2.37633e-19 -0.0158045)
(-1.06664e-18 -6.23807e-20 -0.015809)
(-7.50017e-19 -1.99057e-19 -0.0158129)
(3.09583e-20 -1.26303e-19 -0.0156036)
(6.59785e-20 -1.64517e-19 -0.0156187)
(1.72823e-19 -4.16485e-19 -0.0156332)
(4.00324e-19 -1.08716e-18 -0.0156471)
(5.90607e-19 -1.29142e-18 -0.0156605)
(-2.41015e-20 -1.01407e-18 -0.0156733)
(-6.5756e-19 -4.54394e-19 -0.0156855)
(-5.09199e-19 1.53124e-19 -0.0156972)
(-8.2752e-19 3.54242e-19 -0.0157082)
(-1.25614e-18 1.9854e-19 -0.0157186)
(-1.26561e-18 -2.12766e-19 -0.0157284)
(-8.3362e-19 -4.3516e-19 -0.0157376)
(-8.16156e-19 6.35562e-20 -0.0157462)
(-1.44676e-18 7.42193e-19 -0.0157541)
(-1.69071e-18 5.76557e-19 -0.0157614)
(-1.22423e-18 3.65337e-20 -0.015768)
(-1.02755e-18 -4.45446e-19 -0.015774)
(-1.33233e-18 -2.76308e-19 -0.0157793)
(-1.13565e-18 -2.78465e-19 -0.015784)
(-1.30935e-20 -2.70015e-19 -0.0155744)
(1.7059e-19 -2.20365e-19 -0.0155897)
(3.52493e-19 -2.0691e-19 -0.0156044)
(3.1828e-19 -8.27217e-19 -0.0156186)
(-1.06706e-19 -1.24468e-18 -0.0156323)
(-8.54254e-19 -1.00541e-18 -0.0156453)
(-1.20295e-18 -9.1175e-19 -0.0156578)
(-6.60081e-19 -1.76006e-19 -0.0156696)
(-1.30796e-18 4.43187e-19 -0.0156809)
(-1.50565e-18 3.10022e-19 -0.0156915)
(-1.54026e-18 -2.21837e-19 -0.0157015)
(-1.4036e-18 -5.33529e-19 -0.0157109)
(-1.57434e-18 3.22721e-20 -0.0157196)
(-1.89271e-18 7.70783e-19 -0.0157277)
(-1.47336e-18 4.68291e-19 -0.0157352)
(-7.82454e-19 -8.43833e-20 -0.0157419)
(-6.6876e-19 -2.58377e-19 -0.015748)
(-4.11239e-20 -2.85178e-19 -0.0155447)
(2.12418e-19 -3.76191e-19 -0.0155602)
(2.25225e-19 -2.44051e-19 -0.0155752)
(2.71345e-19 -4.5642e-19 -0.0155896)
(-2.83687e-19 -8.80373e-19 -0.0156035)
(-7.58325e-19 -7.70975e-19 -0.0156167)
(-7.74419e-19 -9.60349e-19 -0.0156294)
(-9.0307e-19 -4.00953e-19 -0.0156415)
(-1.34507e-18 6.1551e-19 -0.015653)
(-1.69054e-18 4.95621e-19 -0.0156638)
(-1.75988e-18 -1.13634e-19 -0.015674)
(-1.5861e-18 -6.26109e-19 -0.0156836)
(-1.70478e-18 -7.41222e-20 -0.0156925)
(-1.89998e-18 5.73625e-19 -0.0157007)
(9.82403e-20 -2.99799e-19 -0.0155144)
(3.17623e-19 -3.62521e-19 -0.0155302)
(-7.32452e-22 -3.90976e-19 -0.0155454)
(1.01861e-19 -3.88755e-19 -0.0155601)
(-2.4179e-19 -6.10893e-19 -0.0155742)
(-4.66865e-19 -5.92473e-19 -0.0155877)
(-2.26407e-19 -6.86399e-19 -0.0156006)
(-8.83264e-19 -4.64798e-19 -0.0156128)
(-9.74606e-19 7.62122e-19 -0.0156245)
(-1.63461e-18 8.16528e-19 -0.0156355)
(-1.39303e-18 1.12134e-19 -0.0156459)
(-1.23573e-18 -5.15276e-19 -0.0156557)
(1.11971e-19 -4.55529e-19 -0.0154838)
(1.72752e-19 -3.51227e-19 -0.0154998)
(-1.83658e-19 -3.38134e-19 -0.0155152)
(-1.90505e-19 -4.5463e-19 -0.0155301)
(-3.87207e-19 -5.52376e-19 -0.0155443)
(-5.5072e-19 -7.10147e-19 -0.015558)
(-3.20732e-19 -6.49919e-19 -0.0155712)
(-9.19351e-19 -4.73791e-19 -0.0155836)
(-1.17182e-18 7.32485e-19 -0.0155955)
(-1.49838e-18 1.05316e-18 -0.0156067)
(-7.54366e-20 -4.86588e-19 -0.0154526)
(-8.39666e-20 -4.96342e-19 -0.0154688)
(-1.02515e-19 -2.47279e-19 -0.0154845)
(-2.11117e-19 -3.52833e-19 -0.0154995)
(-3.79214e-19 -3.94252e-19 -0.015514)
(-6.66462e-19 -6.9246e-19 -0.0155279)
(-9.35971e-19 -8.34531e-19 -0.0155412)
(-1.3771e-18 -6.05121e-19 -0.0155539)
(-1.87713e-18 3.78714e-19 -0.015566)
(-1.08351e-19 -3.14493e-19 -0.015421)
(2.59126e-20 -5.6482e-19 -0.0154374)
(5.0373e-20 -2.78737e-19 -0.0154533)
(-1.58918e-19 -2.6899e-19 -0.0154685)
(-2.92673e-19 -1.63608e-19 -0.0154832)
(-7.09264e-19 -3.32391e-19 -0.0154973)
(-1.36269e-18 -6.77388e-19 -0.0155108)
(-1.81705e-18 -6.41691e-19 -0.0155237)
(3.70199e-20 -2.31808e-19 -0.015389)
(1.68078e-19 -5.33985e-19 -0.0154056)
(1.36992e-19 -2.23897e-19 -0.0154216)
(-1.97693e-19 -2.49325e-19 -0.0154371)
(-2.81483e-19 -5.78764e-20 -0.015452)
(-6.1655e-19 6.334e-20 -0.0154662)
(-1.21391e-18 -2.39534e-19 -0.0154799)
(4.86476e-20 -1.80682e-19 -0.0153565)
(1.87592e-19 -6.01831e-19 -0.0153733)
(2.60072e-20 -2.80133e-19 -0.0153895)
(-2.15776e-19 -1.77561e-19 -0.0154052)
(-3.35593e-19 -9.02082e-20 -0.0154202)
(-3.82699e-19 3.39542e-19 -0.0154347)
(3.61962e-19 3.82458e-20 -0.0153236)
(2.76935e-19 -4.93922e-19 -0.0153406)
(-1.98831e-19 -4.04005e-19 -0.015357)
(-1.56355e-19 -1.48517e-19 -0.0153728)
(-3.35649e-19 -1.84169e-19 -0.0153881)
(-5.37612e-19 4.41735e-19 -0.0154027)
(7.84645e-19 1.15903e-19 -0.0152903)
(1.53499e-19 -2.52819e-19 -0.0153075)
(-2.99624e-19 -4.06535e-19 -0.015324)
(-2.27015e-19 -2.21635e-19 -0.01534)
(-3.25529e-19 -1.10007e-19 -0.0153555)
(5.12514e-19 -6.60315e-20 -0.0152566)
(-1.18709e-19 -6.49285e-20 -0.0152739)
(-2.40206e-19 -2.91205e-19 -0.0152907)
(-4.56748e-19 -4.01794e-19 -0.0153069)
(6.40246e-20 -2.38428e-19 -0.0152226)
(-1.73491e-19 -3.01267e-20 -0.01524)
(-1.08572e-19 -5.56459e-20 -0.0152569)
(-1.85716e-19 -1.85981e-19 -0.0152733)
(-3.68612e-20 -1.33555e-19 -0.0151881)
(-2.14493e-19 -1.05029e-19 -0.0152057)
(-2.58397e-20 -1.25469e-19 -0.0152228)
(4.7697e-20 7.61593e-20 -0.0151533)
(-2.12096e-19 -5.08199e-20 -0.0151711)
(-5.81122e-20 -1.54581e-19 -0.0151883)
(1.69469e-19 2.27584e-19 -0.0151181)
(-2.07652e-19 3.24584e-20 -0.0151361)
(-3.14512e-21 -8.83782e-20 -0.0151534)
(5.79157e-20 2.13401e-19 -0.0150826)
(-2.02762e-19 1.43931e-19 -0.0151007)
(-1.43703e-19 -1.18536e-19 -0.0151182)
(-2.48507e-19 1.29684e-19 -0.0150467)
(-4.61101e-20 3.33632e-19 -0.0150649)
(-3.10075e-19 -1.13423e-19 -0.0150826)
(-4.46782e-19 6.36802e-20 -0.0150105)
(1.27701e-19 4.62154e-19 -0.0150289)
(-3.6439e-19 9.51807e-20 -0.0150466)
(-5.443e-19 4.24732e-20 -0.014974)
(-1.09433e-19 2.70932e-19 -0.0149925)
(-4.20868e-19 3.02086e-19 -0.0150103)
(-6.66621e-19 1.76922e-19 -0.0149372)
(-3.44715e-19 5.60159e-20 -0.0149557)
(-3.81213e-19 3.98087e-19 -0.0149737)
(-7.05866e-19 3.11494e-19 -0.0149)
(-2.23945e-19 2.09574e-20 -0.0149187)
(-4.09563e-19 4.52162e-19 -0.0149368)
(-5.19388e-19 5.53301e-19 -0.0148625)
(-2.28973e-19 -5.02313e-20 -0.0148813)
(-4.39464e-19 4.3928e-19 -0.0148995)
(-2.104e-19 7.71253e-19 -0.0148247)
(-2.94668e-19 -6.16432e-20 -0.0148436)
(-2.96583e-19 3.18616e-19 -0.0148619)
(-1.7069e-19 7.72616e-19 -0.0147866)
(-2.33887e-19 5.37754e-20 -0.0148056)
(-3.68969e-20 2.68629e-19 -0.014824)
(-2.95144e-19 6.64476e-19 -0.0147482)
(-2.5239e-20 1.58733e-19 -0.0147673)
(1.35312e-19 2.69189e-19 -0.0147858)
(-1.79464e-19 6.82028e-19 -0.0147095)
(8.89038e-20 1.89523e-19 -0.0147287)
(2.49581e-19 3.40718e-19 -0.0147474)
(-2.71724e-20 -8.09899e-19 -0.0159652)
(2.74458e-19 -1.11333e-18 -0.0159473)
(6.27819e-19 -9.95147e-19 -0.0159278)
(4.02723e-19 -4.77251e-19 -0.0159073)
(1.69466e-19 -4.04444e-19 -0.0158858)
(4.57143e-20 -2.8649e-19 -0.0158636)
(5.37937e-22 7.1817e-20 -0.0158406)
(-3.76045e-19 5.96828e-19 -0.0158168)
(-8.02015e-19 5.74058e-19 -0.0157923)
(-7.23593e-19 6.06497e-20 -0.0157672)
(-3.28079e-19 -1.7934e-19 -0.0157414)
(-1.04173e-19 -1.97695e-19 -0.015715)
(-5.69773e-20 -9.1322e-20 -0.015688)
(-9.25904e-20 8.43457e-20 -0.0156604)
(-1.71789e-19 -6.55004e-20 -0.0156323)
(-1.71918e-19 -2.37435e-19 -0.0156036)
(-4.89874e-20 -1.8128e-19 -0.0155744)
(-6.83353e-20 -1.54891e-19 -0.0155447)
(-9.72188e-20 -3.30165e-19 -0.0155144)
(-5.46257e-21 -3.22147e-19 -0.0154838)
(9.90382e-20 -5.98842e-20 -0.0154526)
(4.44569e-21 4.50066e-20 -0.015421)
(-4.44533e-20 -3.64829e-21 -0.015389)
(-4.43607e-20 9.11953e-20 -0.0153565)
(-1.86478e-19 -5.16038e-20 -0.0153236)
(-1.46114e-19 -3.27904e-19 -0.0152903)
(2.66297e-20 -2.07324e-19 -0.0152566)
(1.24633e-19 1.25175e-19 -0.0152226)
(7.14471e-20 3.38241e-19 -0.0151881)
(-4.07855e-20 3.57409e-19 -0.0151533)
(-1.49808e-19 2.71949e-19 -0.0151181)
(-1.39339e-19 3.89377e-19 -0.0150826)
(-9.6477e-20 6.83887e-19 -0.0150467)
(-9.85169e-20 8.71674e-19 -0.0150105)
(-1.55343e-19 1.05427e-18 -0.014974)
(-2.83001e-19 1.20083e-18 -0.0149372)
(-3.43747e-19 1.23009e-18 -0.0149)
(-5.36651e-19 1.00088e-18 -0.0148625)
(-7.77552e-19 6.88604e-19 -0.0148247)
(-7.80782e-19 6.7057e-19 -0.0147866)
(-7.18752e-19 7.42982e-19 -0.0147482)
(-7.5177e-19 6.69483e-19 -0.0147095)
(-2.82597e-19 -7.91297e-19 -0.0159757)
(-1.68989e-20 -1.12505e-18 -0.0159576)
(1.89852e-19 -7.49687e-19 -0.0159385)
(3.31528e-19 -2.00032e-19 -0.0159184)
(8.42989e-20 -4.45108e-20 -0.0158974)
(-1.37965e-20 -1.45611e-19 -0.0158755)
(7.866e-20 1.17209e-19 -0.0158529)
(1.50391e-19 5.61681e-19 -0.0158295)
(2.83505e-20 2.26877e-19 -0.0158054)
(-1.59467e-19 -6.02329e-19 -0.0157806)
(-2.22823e-19 -8.08652e-19 -0.0157551)
(3.97529e-20 -4.25108e-19 -0.015729)
(5.76572e-20 -8.19772e-20 -0.0157023)
(-4.1038e-20 -1.58166e-19 -0.015675)
(6.30598e-20 -2.69934e-19 -0.0156471)
(-6.12006e-20 -2.43015e-19 -0.0156187)
(-1.56968e-20 -3.29884e-19 -0.0155897)
(9.40427e-20 -3.61405e-19 -0.0155602)
(6.56457e-20 -4.13999e-19 -0.0155302)
(-1.83187e-20 -3.26786e-19 -0.0154998)
(7.55668e-20 -9.42847e-20 -0.0154688)
(2.01775e-19 9.35989e-21 -0.0154374)
(1.82981e-19 5.12952e-20 -0.0154056)
(2.65847e-19 9.54612e-20 -0.0153733)
(1.98335e-19 1.09692e-19 -0.0153406)
(1.58228e-20 2.92839e-19 -0.0153075)
(-1.44314e-19 5.19169e-19 -0.0152739)
(-1.8437e-19 5.79443e-19 -0.01524)
(-9.10784e-20 6.31587e-19 -0.0152057)
(-6.52385e-20 6.47235e-19 -0.0151711)
(-5.62157e-20 7.20036e-19 -0.0151361)
(-1.21579e-19 8.06913e-19 -0.0151007)
(-2.8818e-19 7.31065e-19 -0.0150649)
(-3.7536e-19 7.35483e-19 -0.0150289)
(-2.7302e-19 9.46847e-19 -0.0149925)
(-3.00192e-19 8.5331e-19 -0.0149557)
(-3.77326e-19 6.2409e-19 -0.0149187)
(-1.93298e-19 8.08324e-19 -0.0148813)
(-1.0827e-19 1.05503e-18 -0.0148436)
(-2.65504e-19 1.01544e-18 -0.0148056)
(-3.48838e-19 7.77837e-19 -0.0147673)
(-3.88587e-19 6.74178e-19 -0.0147287)
(-6.30133e-19 -8.39805e-19 -0.0159856)
(-3.23195e-19 -1.08723e-18 -0.0159675)
(-1.51009e-19 -5.95724e-19 -0.0159487)
(1.68259e-19 -5.06845e-20 -0.015929)
(1.24871e-19 7.53579e-20 -0.0159084)
(6.18768e-20 -2.5813e-19 -0.0158869)
(1.69441e-19 -9.80814e-20 -0.0158646)
(2.90557e-19 1.39388e-19 -0.0158416)
(4.51862e-19 -4.17576e-19 -0.0158178)
(3.72871e-19 -8.18411e-19 -0.0157934)
(1.13393e-19 -6.68784e-19 -0.0157682)
(1.03081e-19 -3.74174e-19 -0.0157424)
(4.27155e-19 -1.83697e-19 -0.015716)
(2.14252e-19 -2.60497e-19 -0.0156889)
(1.97517e-19 -3.29712e-19 -0.0156613)
(1.61018e-19 -3.44869e-19 -0.0156332)
(-1.9834e-20 -4.68635e-19 -0.0156044)
(4.35665e-21 -3.2721e-19 -0.0155752)
(7.632e-20 -1.18493e-19 -0.0155454)
(-4.73084e-21 6.13304e-20 -0.0155152)
(-1.27352e-19 1.33831e-19 -0.0154845)
(-8.25883e-20 1.91406e-19 -0.0154533)
(-1.40154e-19 2.01044e-19 -0.0154216)
(-1.04834e-19 3.42825e-19 -0.0153895)
(4.5633e-20 6.67761e-19 -0.015357)
(7.75241e-20 8.51208e-19 -0.015324)
(-4.38454e-20 7.36298e-19 -0.0152907)
(-2.43256e-19 4.85466e-19 -0.0152569)
(-2.3482e-19 4.07027e-19 -0.0152228)
(-1.30234e-19 4.65883e-19 -0.0151883)
(-3.56061e-20 5.37763e-19 -0.0151534)
(9.20499e-20 7.85614e-19 -0.0151182)
(1.10587e-19 1.04105e-18 -0.0150826)
(-1.11793e-19 1.17495e-18 -0.0150466)
(-3.24914e-19 1.19478e-18 -0.0150103)
(-4.55546e-19 1.13999e-18 -0.0149737)
(-6.11467e-19 1.17762e-18 -0.0149368)
(-6.65976e-19 1.25836e-18 -0.0148995)
(-5.1484e-19 1.25337e-18 -0.0148619)
(-5.45305e-19 8.57334e-19 -0.014824)
(-6.26581e-19 5.54996e-19 -0.0147858)
(-5.85176e-19 7.3979e-19 -0.0147474)
(-4.80901e-19 -9.31621e-19 -0.0159949)
(-5.34236e-19 -1.16512e-18 -0.0159771)
(-2.62857e-19 -8.09984e-19 -0.0159585)
(-6.22065e-20 -1.12031e-19 -0.0159391)
(1.43975e-19 -1.3702e-20 -0.0159189)
(2.4908e-20 -2.78459e-19 -0.0158978)
(1.44002e-19 -1.22761e-19 -0.0158759)
(4.15773e-19 -8.14381e-20 -0.0158532)
(4.90536e-19 -4.81493e-19 -0.0158298)
(3.30861e-19 -4.83367e-19 -0.0158056)
(1.70554e-19 -4.27166e-19 -0.0157808)
(-1.09089e-19 -4.48043e-19 -0.0157553)
(2.81033e-19 -2.77776e-19 -0.0157291)
(5.11425e-19 -2.40946e-19 -0.0157024)
(5.16745e-19 -5.11413e-19 -0.015675)
(7.46269e-19 -5.25789e-19 -0.0156471)
(5.07958e-19 -3.70054e-19 -0.0156186)
(1.6799e-19 -2.38772e-19 -0.0155896)
(7.30808e-20 6.03215e-21 -0.0155601)
(6.63211e-20 2.99596e-19 -0.0155301)
(-8.27713e-20 4.03213e-19 -0.0154995)
(-1.56159e-19 5.13074e-19 -0.0154685)
(-1.90556e-19 6.70811e-19 -0.0154371)
(-3.08726e-19 7.64942e-19 -0.0154052)
(-3.73211e-19 8.2716e-19 -0.0153728)
(-2.87211e-19 9.04105e-19 -0.01534)
(-2.11499e-19 9.50853e-19 -0.0153069)
(-3.21592e-19 7.87473e-19 -0.0152733)
(-4.53538e-19 6.6789e-19 -0.0152393)
(-4.49359e-19 6.70531e-19 -0.0152049)
(-3.08553e-19 8.3001e-19 -0.0151702)
(-1.4171e-19 1.17304e-18 -0.0151351)
(5.21239e-20 1.57019e-18 -0.0150996)
(8.00225e-20 1.7662e-18 -0.0150638)
(3.09365e-21 1.61361e-18 -0.0150276)
(-6.68325e-20 1.46335e-18 -0.0149911)
(-1.59477e-19 1.27933e-18 -0.0149543)
(-3.52936e-19 8.23682e-19 -0.0149172)
(-4.74447e-19 3.4097e-19 -0.0148797)
(-3.7742e-19 2.64553e-19 -0.0148419)
(-1.89336e-19 6.66611e-19 -0.0148038)
(-4.91914e-20 8.87941e-19 -0.0147654)
(-8.47944e-20 -6.76518e-19 -0.0160036)
(-5.38754e-19 -1.10866e-18 -0.0159862)
(-3.57171e-19 -8.5193e-19 -0.0159679)
(-2.49905e-20 -2.5423e-19 -0.0159488)
(1.81224e-19 -1.01012e-19 -0.0159289)
(5.60953e-20 -2.65633e-19 -0.0159082)
(-2.20342e-20 -3.67078e-19 -0.0158866)
(2.83172e-19 -3.45532e-19 -0.0158643)
(2.16179e-19 -1.54354e-19 -0.0158412)
(2.85671e-19 -1.73925e-19 -0.0158173)
(3.62846e-19 -1.1063e-19 -0.0157928)
(-1.00226e-19 -2.30223e-19 -0.0157676)
(-5.20048e-20 -5.45084e-19 -0.0157417)
(4.37759e-19 -8.01428e-19 -0.0157152)
(5.48285e-19 -1.00449e-18 -0.0156882)
(8.30886e-19 -6.17803e-19 -0.0156605)
(8.29516e-19 1.66094e-19 -0.0156323)
(4.96636e-19 4.16059e-19 -0.0156035)
(2.38321e-19 4.21158e-19 -0.0155742)
(1.86184e-19 5.91356e-19 -0.0155443)
(1.35431e-20 6.99392e-19 -0.015514)
(-2.18195e-19 8.09287e-19 -0.0154832)
(-3.07877e-19 9.33585e-19 -0.015452)
(-2.95662e-19 1.08013e-18 -0.0154202)
(-3.28529e-19 1.10619e-18 -0.0153881)
(-4.50935e-19 1.08379e-18 -0.0153555)
(-4.89099e-19 1.07928e-18 -0.0153224)
(-5.86702e-19 1.03759e-18 -0.015289)
(-7.09383e-19 9.79201e-19 -0.0152552)
(-8.15493e-19 8.73322e-19 -0.015221)
(-7.48679e-19 9.89233e-19 -0.0151864)
(-5.11602e-19 1.32527e-18 -0.0151514)
(-3.11255e-19 1.60771e-18 -0.0151161)
(-1.86977e-19 1.42243e-18 -0.0150804)
(-1.67904e-19 1.03791e-18 -0.0150443)
(-6.43367e-20 8.04034e-19 -0.015008)
(-4.44948e-20 5.80813e-19 -0.0149713)
(-1.40396e-19 3.05599e-19 -0.0149342)
(-2.30678e-19 2.55377e-19 -0.0148969)
(-1.29862e-19 3.48333e-19 -0.0148592)
(-1.083e-19 3.44473e-19 -0.0148212)
(-4.18445e-20 2.66004e-19 -0.0147829)
(2.52931e-19 -4.05441e-19 -0.0160119)
(-2.59906e-19 -1.06146e-18 -0.0159948)
(-3.95671e-19 -1.16414e-18 -0.0159769)
(4.88677e-20 -6.68725e-19 -0.0159581)
(3.61967e-19 -2.39466e-19 -0.0159385)
(4.32782e-19 -3.59398e-19 -0.0159181)
(3.14774e-19 -5.04002e-19 -0.0158968)
(2.44622e-19 -1.53387e-19 -0.0158748)
(1.21993e-20 -3.10194e-20 -0.015852)
(2.99132e-19 -5.49366e-19 -0.0158285)
(6.42913e-19 -1.49774e-19 -0.0158043)
(3.87829e-19 -2.98817e-19 -0.0157793)
(2.28035e-20 -1.02521e-18 -0.0157538)
(2.02644e-19 -1.01186e-18 -0.0157275)
(3.01121e-19 -7.39162e-19 -0.0157007)
(4.38858e-19 3.16987e-20 -0.0156733)
(4.87822e-19 9.22586e-19 -0.0156453)
(3.07995e-19 9.32674e-19 -0.0156167)
(1.83613e-19 6.75591e-19 -0.0155877)
(3.66172e-19 7.66031e-19 -0.015558)
(4.37125e-19 1.01666e-18 -0.0155279)
(9.8629e-20 1.18205e-18 -0.0154973)
(-2.65411e-19 1.14303e-18 -0.0154662)
(-4.54564e-19 1.08937e-18 -0.0154347)
(-4.90722e-19 1.2647e-18 -0.0154027)
(-5.84108e-19 1.45249e-18 -0.0153703)
(-6.19446e-19 1.5151e-18 -0.0153374)
(-7.159e-19 1.47629e-18 -0.0153041)
(-8.5097e-19 1.30313e-18 -0.0152705)
(-9.27952e-19 1.10891e-18 -0.0152364)
(-8.48907e-19 9.96492e-19 -0.0152019)
(-6.18906e-19 1.16535e-18 -0.0151671)
(-4.60872e-19 1.20662e-18 -0.0151319)
(-3.6746e-19 9.57062e-19 -0.0150963)
(-3.02118e-19 6.84378e-19 -0.0150604)
(-1.90854e-19 6.24129e-19 -0.0150242)
(-3.14574e-20 7.55944e-19 -0.0149876)
(2.80464e-21 7.19829e-19 -0.0149506)
(-2.33413e-19 3.14101e-19 -0.0149134)
(-3.12795e-19 1.27776e-19 -0.0148758)
(-1.86017e-19 3.78058e-19 -0.0148379)
(-1.52217e-19 5.39056e-19 -0.0147997)
(4.7013e-19 -4.34105e-19 -0.0160196)
(9.17495e-20 -8.91156e-19 -0.0160029)
(-3.78965e-19 -1.0834e-18 -0.0159853)
(-1.29207e-19 -8.41914e-19 -0.0159668)
(3.09759e-19 -5.12967e-19 -0.0159476)
(3.6613e-19 -4.13781e-19 -0.0159275)
(3.68588e-19 -3.18299e-19 -0.0159065)
(4.28784e-19 9.69552e-20 -0.0158848)
(1.98414e-19 -2.66218e-19 -0.0158624)
(1.18839e-19 -8.31567e-19 -0.0158391)
(3.40656e-19 -3.79561e-20 -0.0158152)
(6.46396e-19 -7.85598e-20 -0.0157905)
(3.16185e-19 -6.92879e-19 -0.0157652)
(2.2907e-20 -6.8366e-19 -0.0157393)
(-1.85141e-19 -2.66587e-19 -0.0157127)
(-5.99128e-20 6.32085e-19 -0.0156855)
(3.91994e-19 1.24778e-18 -0.0156578)
(4.35496e-19 9.1003e-19 -0.0156294)
(2.03673e-19 3.20617e-19 -0.0156006)
(2.13682e-19 4.21198e-19 -0.0155712)
(5.02081e-19 1.22868e-18 -0.0155412)
(4.71809e-19 1.81696e-18 -0.0155108)
(8.55709e-20 1.69926e-18 -0.0154799)
(-2.29899e-19 1.59587e-18 -0.0154486)
(-4.05282e-19 1.72883e-18 -0.0154167)
(-5.74744e-19 1.63418e-18 -0.0153845)
(-5.34263e-19 1.39706e-18 -0.0153518)
(-4.66407e-19 1.24653e-18 -0.0153186)
(-5.40186e-19 9.5651e-19 -0.0152851)