/*--------------------------------*- C++ -*----------------------------------*\
  =========                 |
  \\      /  F ield         | OpenFOAM: The Open Source CFD Toolbox
   \\    /   O peration     | Website:  https://openfoam.org
    \\  /    A nd           | Version:  7
     \\/     M anipulation  |
\*---------------------------------------------------------------------------*/
FoamFile
{
    version     2.0;
    format      ascii;
    class       surfaceScalarField;
    location    "84000";
    object      phi;
}
// * * * * * * * * * * * * * * * * * * * * * * * * * * * * * * * * * * * * * //

dimensions      [0 3 -1 0 0 0 0];

internalField   nonuniform List<scalar> 
9474
(
2.04554e-24
-7.76952e-24
3.06489e-24
-4.52584e-23
5.70395e-24
5.06402e-23
2.74112e-23
-1.26705e-24
-1.94609e-23
2.28094e-24
-1.54775e-24
6.64753e-23
-3.45152e-24
3.46062e-23
-3.86149e-24
6.02501e-24
-1.94883e-24
1.37293e-22
5.38771e-24
1.60133e-22
3.83514e-24
-3.85582e-23
7.44551e-24
7.30061e-23
7.18505e-24
-6.15696e-23
6.44138e-24
9.28116e-23
2.4126e-25
-4.1684e-23
6.61853e-24
7.66991e-23
1.18558e-24
-1.05898e-22
5.1069e-24
5.46916e-23
2.0218e-24
1.65685e-23
3.09232e-24
-4.91116e-23
5.5797e-24
1.73952e-23
8.78014e-24
2.45824e-23
4.29023e-24
-6.50226e-23
4.38588e-24
-2.77077e-23
3.24159e-24
2.71475e-23
2.56185e-24
1.91122e-23
1.41187e-24
-9.04381e-23
-1.95017e-25
-1.86047e-23
-8.70568e-25
-7.40379e-23
-4.50054e-24
-2.99375e-23
-3.03387e-24
-1.90664e-23
-6.38502e-24
-6.55303e-23
-3.79465e-24
-2.77463e-23
-8.28121e-24
-4.19191e-23
-1.08706e-24
8.7999e-23
-3.09752e-24
6.41491e-23
1.88565e-24
6.26009e-23
-6.17872e-24
-1.40865e-24
-5.12491e-23
1.77809e-24
-1.3001e-24
1.03297e-22
-3.49928e-24
5.94694e-24
-3.75359e-24
1.43897e-23
-1.8401e-24
1.19481e-22
4.70252e-24
9.73685e-23
3.8052e-24
-6.08375e-24
7.22916e-24
8.4167e-23
7.31593e-24
-6.00237e-23
6.29942e-24
6.26365e-23
-2.86864e-25
-5.74677e-23
6.62836e-24
1.10242e-22
1.06047e-24
-1.63846e-22
5.0406e-24
1.49316e-23
1.85198e-24
3.01464e-24
2.79473e-24
-5.93381e-23
5.81254e-24
2.45741e-23
8.52443e-24
6.1201e-24
4.42474e-24
-6.1911e-23
4.43773e-24
-1.94648e-23
2.99918e-24
2.51562e-23
2.42896e-24
1.03859e-23
1.3382e-24
-9.73045e-23
-4.93281e-26
-1.56944e-23
-9.11946e-25
-5.55128e-23
-4.18941e-24
-1.89851e-23
-3.14984e-24
-5.77443e-23
-6.12469e-24
-5.5377e-23
-3.70718e-24
-9.05595e-24
-7.6714e-24
-3.093e-23
-1.0886e-24
9.38261e-23
-2.92924e-24
5.50927e-23
1.76327e-24
8.17041e-23
-3.02837e-24
7.38934e-24
-2.71618e-24
6.52051e-23
3.29305e-24
6.86158e-23
6.98187e-25
3.30261e-23
2.3808e-24
1.39685e-23
-1.31776e-24
-1.38162e-23
-8.77456e-25
4.25026e-23
7.27346e-23
-1.4671e-24
-6.81317e-23
1.68557e-24
-1.57258e-24
7.60252e-23
-3.61326e-24
3.63283e-24
-3.68185e-24
3.66772e-23
-2.13216e-24
1.16219e-22
4.29232e-24
6.38728e-23
3.614e-24
1.1249e-24
6.8623e-24
9.4947e-23
7.6701e-24
-1.88882e-23
6.03184e-24
8.484e-23
-4.65708e-25
-5.90393e-23
6.33844e-24
1.33974e-22
9.66271e-25
-1.64808e-22
4.87099e-24
-1.19359e-23
1.84027e-24
-1.10122e-23
2.48158e-24
-5.65502e-23
5.72065e-24
9.0065e-24
8.47946e-24
1.38289e-24
4.48542e-24
-5.41434e-23
4.51327e-24
1.34533e-24
2.80779e-24
1.65177e-23
2.21713e-24
1.72083e-23
1.36148e-24
-1.00852e-22
1.81775e-25
-4.30786e-24
-9.906e-25
-5.98829e-23
-3.96956e-24
-1.03447e-23
-3.13154e-24
-6.28987e-23
-5.71018e-24
-4.69763e-23
-3.6493e-24
-1.60577e-23
-6.9264e-24
1.08575e-23
-1.25543e-24
8.54577e-23
-2.55561e-24
6.02117e-23
1.68878e-24
7.00493e-23
-2.74229e-24
8.37208e-24
-2.66276e-24
6.48448e-23
3.45429e-24
7.24346e-23
6.26905e-25
-1.16924e-24
2.62496e-24
5.2217e-23
-1.30046e-24
-3.71305e-23
-9.33273e-25
3.14291e-23
6.2407e-24
7.02254e-23
4.48907e-24
4.48254e-23
5.09565e-25
-4.18764e-23
-9.30747e-24
-9.81001e-25
-7.24706e-23
1.93619e-24
-1.66986e-24
6.67898e-23
-3.22611e-24
3.69534e-23
-3.89336e-24
2.25955e-23
-2.5209e-24
1.13013e-22
4.3583e-24
4.48223e-23
3.65471e-24
6.00281e-24
6.54626e-24
6.70982e-23
7.94868e-24
-6.73847e-24
5.53071e-24
8.31265e-23
-4.298e-25
-4.84665e-23
5.66438e-24
1.31289e-22
1.15621e-24
-1.66899e-22
4.89972e-24
3.6424e-24
1.69408e-24
-1.39567e-23
2.17228e-24
-2.66812e-23
5.53332e-24
5.26847e-24
8.37518e-24
2.66075e-23
4.74794e-24
-4.72842e-23
4.48123e-24
3.31153e-24
2.58526e-24
1.6025e-23
2.01128e-24
2.9977e-23
1.44424e-24
-6.09508e-23
3.18473e-25
-3.3479e-24
-1.13308e-24
-6.36508e-23
-3.76333e-24
2.48804e-23
-3.18708e-24
-6.87367e-23
-5.3542e-24
-4.30468e-23
-3.45471e-24
-2.19364e-23
-6.52988e-24
-1.1937e-24
-1.36992e-24
6.18003e-23
-2.29855e-24
6.32183e-23
1.56665e-24
7.00687e-23
-2.35759e-24
1.59625e-23
-2.62814e-24
2.41303e-23
3.25031e-24
7.77113e-23
1.24448e-24
-2.75185e-23
2.31144e-24
3.52264e-23
-1.08226e-24
-7.9395e-24
-7.52834e-25
3.20303e-23
6.73388e-24
6.59048e-23
4.46392e-24
2.60539e-23
4.36348e-25
-3.38403e-23
-3.3359e-23
-1.01177e-24
-7.45057e-23
1.68591e-24
-1.63705e-24
3.65374e-23
-3.29692e-24
1.20087e-23
-3.97214e-24
3.13704e-23
-2.89818e-24
4.69698e-23
4.28302e-24
6.11086e-23
3.4756e-24
2.09962e-23
6.62808e-24
6.55995e-23
7.99632e-24
3.21291e-23
5.45253e-24
8.37709e-23
-4.48147e-25
-4.93673e-23
4.92431e-24
1.04905e-22
1.29409e-24
-1.34558e-22
4.92617e-24
3.15795e-23
1.54172e-24
-2.76491e-23
1.96305e-24
-3.98675e-23
5.60321e-24
2.96342e-23
8.26166e-24
1.13027e-23
4.78879e-24
-2.79552e-23
4.44009e-24
-6.69125e-24
2.56068e-24
1.40514e-23
1.88661e-24
3.74372e-24
1.39322e-24
-4.74727e-23
4.33628e-25
1.02331e-23
-1.1443e-24
-6.67498e-23
-3.74563e-24
4.26634e-23
-3.27912e-24
-5.75352e-23
-5.09842e-24
-3.99889e-23
-3.36642e-24
-1.25166e-23
-6.20402e-24
1.87089e-24
-1.42926e-24
3.99695e-23
-2.12029e-24
6.24332e-23
1.40718e-24
7.37161e-23
-2.40453e-24
-3.64937e-24
-2.62373e-24
2.24667e-23
3.16385e-24
5.94746e-23
1.65843e-24
-2.79863e-23
2.46195e-24
7.39945e-24
-1.15954e-24
-1.86417e-23
-6.05809e-25
2.0314e-23
6.73859e-24
5.42994e-23
4.76542e-24
-5.31726e-24
5.69138e-25
-2.64434e-23
-5.78179e-23
-9.16459e-25
-7.5966e-23
1.53798e-24
-1.42023e-24
6.682e-23
-3.35979e-24
1.14812e-23
-4.19264e-24
3.58152e-23
-2.94072e-24
7.82247e-23
3.90215e-24
4.17057e-23
3.49559e-24
1.30784e-23
6.77206e-24
7.36528e-23
7.85368e-24
-2.97614e-23
5.53867e-24
3.45649e-23
-6.6175e-25
-5.21869e-23
4.59907e-24
9.18522e-23
1.27911e-24
-1.04365e-22
5.03823e-24
3.17839e-23
1.55118e-24
-4.00364e-23
1.85257e-24
-1.50602e-23
5.45111e-24
2.68179e-23
8.30695e-24
2.15563e-23
4.63483e-24
-1.15953e-23
4.5169e-24
5.98506e-24
2.37144e-24
1.33364e-23
1.88633e-24
6.08715e-24
1.29572e-24
-7.94917e-23
4.57826e-25
1.20453e-23
-1.09565e-24
-6.9357e-23
-3.7421e-24
4.47632e-23
-3.4373e-24
-5.68193e-23
-4.83025e-24
-2.56254e-23
-3.21087e-24
-1.38895e-23
-6.07457e-24
-2.37264e-23
-1.43928e-24
5.85738e-23
-1.87848e-24
4.56816e-23
1.04654e-24
5.27539e-23
-2.2386e-24
3.18016e-24
-2.61091e-24
7.90401e-24
2.70551e-24
5.72061e-23
1.87337e-24
-2.98094e-23
2.62003e-24
-6.21778e-24
-1.17761e-24
-2.58607e-24
-6.24238e-25
2.22729e-23
6.78126e-24
8.70846e-23
5.16088e-24
3.24082e-23
5.78965e-25
-2.89662e-23
-5.68161e-23
-5.83611e-25
-7.76006e-23
1.5664e-24
-1.45568e-24
2.70067e-23
-3.15422e-24
1.27921e-23
-4.33391e-24
3.63154e-23
-3.23997e-24
7.33985e-23
3.57377e-24
3.22703e-23
3.67359e-24
3.37921e-24
6.56597e-24
8.64659e-23
8.03766e-24
-1.89432e-23
5.39671e-24
6.12802e-23
-8.52767e-25
-6.54791e-23
4.37537e-24
8.82636e-23
1.15561e-24
-1.59897e-22
4.93215e-24
2.95836e-23
1.65911e-24
-4.00379e-23
1.60411e-24
-3.22813e-23
5.27746e-24
4.93078e-23
8.20167e-24
4.20139e-23
4.56803e-24
-1.06562e-23
4.45195e-24
4.29261e-24
2.23437e-24
3.48247e-24
1.78132e-24
7.73006e-24
1.33681e-24
-6.42502e-23
4.35537e-25
1.38034e-23
-1.05221e-24
-5.86584e-23
-3.75259e-24
4.41275e-23
-3.58841e-24
-4.34639e-23
-4.62357e-24
-1.54345e-23
-3.24288e-24
-2.68783e-23
-5.6919e-24
-2.64689e-23
-1.55881e-24
5.22247e-23
-1.70582e-24
2.92324e-23
9.7726e-25
4.81772e-23
-2.23011e-24
-4.72747e-24
-2.58551e-24
1.65437e-23
2.71189e-24
4.31198e-23
1.82139e-24
-3.06934e-23
2.69747e-24
-9.52262e-24
-1.13915e-24
-7.65426e-27
-6.86183e-25
3.65603e-23
7.083e-24
8.22171e-23
5.11563e-24
3.67385e-23
6.53446e-25
-4.2612e-23
-2.23505e-24
-4.03768e-23
-3.13684e-23
-3.42117e-25
-6.75158e-23
1.53728e-24
-1.41732e-24
3.00165e-23
-3.34581e-24
-1.90532e-23
-4.2779e-24
3.81233e-23
-3.68735e-24
5.81166e-23
3.51161e-24
3.305e-23
3.8909e-24
1.26534e-23
6.14503e-24
1.10611e-22
8.18827e-24
3.00579e-24
5.17378e-24
5.59945e-23
-1.13099e-24
-8.052e-23
3.99132e-24
8.78252e-23
1.12269e-24
-1.39867e-22
4.96365e-24
3.6906e-23
1.47096e-24
-6.36971e-23
1.65058e-24
-1.74581e-23
5.23746e-24
3.35363e-23
8.10574e-24
6.43651e-23
4.57394e-24
-1.13285e-23
4.3961e-24
-1.04699e-23
2.04845e-24
-8.25269e-24
1.70429e-24
1.96377e-23
1.35773e-24
-7.22333e-23
4.52585e-25
3.25258e-24
-1.0385e-24
-5.97894e-23
-3.75433e-24
1.90004e-23
-3.71555e-24
-3.00503e-23
-4.53433e-24
-1.3889e-23
-3.18883e-24
-2.72626e-23
-5.42263e-24
-2.96137e-23
-1.73561e-24
5.77505e-23
-1.61132e-24
2.46672e-23
6.04562e-25
3.71989e-23
-2.08409e-24
1.09796e-23
-2.74639e-24
2.95496e-24
2.70583e-24
6.53785e-23
1.91371e-24
-2.04445e-23
2.93508e-24
6.59755e-24
-1.10973e-24
-3.19649e-23
-5.67648e-25
6.45973e-23
7.30842e-24
1.07478e-22
5.18505e-24
1.73989e-23
5.82874e-25
-9.7039e-23
-2.00589e-24
-3.89664e-23
-5.09227e-23
-1.24197e-25
-5.87176e-23
1.53777e-24
-1.41061e-24
1.35728e-23
-3.32339e-24
-6.54047e-23
-4.33877e-24
1.71701e-23
-4.04776e-24
8.91867e-23
3.51007e-24
8.32343e-23
3.91235e-24
1.08717e-23
6.14885e-24
1.11155e-22
8.06737e-24
2.5852e-23
4.99346e-24
6.17359e-23
-9.20192e-25
-1.10807e-22
3.49973e-24
7.39121e-23
1.36788e-24
-1.22752e-22
4.72027e-24
1.00463e-23
1.55771e-24
-6.15532e-23
1.5162e-24
-1.5977e-24
5.10239e-24
3.03467e-23
8.01631e-24
5.91406e-23
4.39751e-24
-3.73999e-23
4.33927e-24
-7.76972e-24
1.97065e-24
-5.10933e-24
1.52667e-24
3.1262e-23
1.35617e-24
-5.54139e-23
5.003e-25
-8.22722e-24
-1.09037e-24
-6.13689e-23
-3.63911e-24
5.72762e-24
-3.89872e-24
-2.5938e-23
-4.41312e-24
-1.2132e-23
-3.13514e-24
-2.87205e-23
-5.21884e-24
-3.30135e-23
-1.86708e-24
4.06771e-23
-1.43119e-24
2.11934e-23
5.02753e-25
4.68787e-23
-2.05021e-24
-2.43379e-25
-2.84908e-24
2.83921e-23
2.61138e-24
8.77673e-23
2.13717e-24
2.1866e-26
2.85175e-24
-7.42478e-24
-9.90601e-25
-3.91779e-23
-7.75734e-25
8.04401e-23
7.40536e-24
1.01629e-22
5.13739e-24
9.26531e-24
6.67126e-25
-8.89762e-23
-2.0363e-24
-3.58149e-23
-5.58924e-23
-9.3235e-26
-1.73263e-23
1.34872e-24
-1.5119e-24
2.16651e-23
-3.05116e-24
-6.35805e-23
-4.56664e-24
2.10565e-23
-4.18975e-24
8.2954e-23
3.28349e-24
1.08863e-22
3.9997e-24
7.8094e-24
5.95639e-24
1.22246e-22
7.98174e-24
2.67583e-23
4.59785e-24
4.24338e-23
-1.18722e-24
-1.04745e-22
3.21562e-24
7.87943e-23
1.33085e-24
-9.7523e-23
4.95351e-24
-2.38185e-24
1.44011e-24
-6.83587e-23
1.49651e-24
2.81351e-23
4.93774e-24
4.67683e-24
7.99314e-24
7.46113e-23
4.21373e-24
-4.88885e-23
4.36658e-24
-1.12486e-23
1.89893e-24
-1.30921e-24
1.44284e-24
3.01746e-23
1.29665e-24
-6.32223e-23
5.53552e-25
-7.80995e-24
-1.14008e-24
-6.30988e-23
-3.50964e-24
6.28193e-24
-4.09083e-24
-1.22442e-23
-4.37745e-24
3.74995e-24
-3.07465e-24
-4.96524e-24
-5.03803e-24
-3.68519e-23
-1.94819e-24
3.47821e-23
-1.29781e-24
3.02584e-23
2.84161e-25
3.30549e-23
-1.94282e-24
1.03861e-23
-2.80238e-24
1.87742e-23
2.29222e-24
9.79138e-23
2.04327e-24
1.0386e-23
2.97685e-24
1.11511e-23
-5.54215e-25
-2.61134e-23
-7.736e-25
8.4233e-23
7.35269e-24
1.2304e-22
5.26198e-24
1.39877e-23
5.99444e-25
-8.86928e-23
-1.93253e-24
-4.48247e-23
4.09424e-26
1.37272e-23
1.33198e-24
-1.57288e-24
1.47292e-23
-2.9988e-24
-6.98749e-23
-4.43974e-24
3.33392e-23
-4.35623e-24
5.77665e-23
3.10293e-24
8.60882e-23
3.9615e-24
3.05528e-24
5.69805e-24
1.33866e-22
8.08707e-24
2.08472e-23
4.31818e-24
5.58991e-23
-1.28544e-24
-9.91019e-23
3.04855e-24
7.32724e-23
1.14499e-24
-8.66106e-23
4.7969e-24
-5.51762e-24
1.57806e-24
-4.26885e-23
1.24058e-24
3.36821e-23
4.89298e-24
-9.10467e-24
7.79598e-24
5.76012e-23
4.05621e-24
-5.91406e-23
4.47528e-24
1.7652e-23
1.76936e-24
3.47773e-24
1.33946e-24
2.93198e-23
1.21165e-24
-5.91207e-23
5.79301e-25
-6.12645e-24
-1.15268e-24
-6.40283e-23
-3.35873e-24
9.87324e-24
-4.25335e-24
-3.07777e-23
-4.30991e-24
7.78689e-24
-3.02858e-24
1.08028e-24
-4.94248e-24
-4.7964e-23
-1.9643e-24
1.50809e-23
-1.13378e-24
2.78029e-23
1.95866e-25
5.43879e-23
-1.79329e-24
1.05776e-23
-2.82457e-24
7.06924e-24
2.17667e-24
9.55214e-23
2.09068e-24
1.35216e-23
2.98147e-24
2.84707e-23
-5.17681e-25
-2.20792e-23
-7.55636e-25
8.65828e-23
7.10363e-24
8.56047e-23
5.19155e-24
1.7148e-23
6.85263e-25
-1.04414e-22
-4.73913e-23
-5.11418e-27
-1.29849e-23
9.53658e-25
-1.78277e-24
-8.2273e-24
-2.79376e-24
-5.56648e-23
-4.38463e-24
1.43656e-24
-4.64382e-24
7.30938e-23
2.94645e-24
1.08558e-22
4.12279e-24
3.23363e-23
5.19192e-24
1.33334e-22
8.011e-24
8.2847e-23
4.0657e-24
1.42956e-23
-1.43827e-24
-7.23026e-23
3.04259e-24
6.96899e-23
8.91445e-25
-6.07078e-23
4.91722e-24
-2.11022e-23
1.47163e-24
-1.80694e-23
1.06238e-24
2.84556e-23
4.83513e-24
-2.2734e-23
7.73076e-24
8.69092e-23
3.91264e-24
-5.87315e-23
4.41199e-24
3.27523e-23
1.58222e-24
-9.52528e-25
1.23311e-24
2.78719e-23
1.16772e-24
-4.44944e-23
5.51787e-25
-2.69221e-24
-1.11523e-24
-7.42463e-23
-3.29975e-24
-3.24827e-24
-4.29483e-24
-2.67858e-23
-4.21039e-24
2.38694e-23
-3.06319e-24
-1.06575e-25
-4.78603e-24
-5.72005e-23
-1.91737e-24
1.17733e-23
-9.15336e-25
2.67334e-23
8.69067e-27
4.58607e-23
-1.80188e-24
1.07565e-23
-2.81335e-24
-2.47907e-23
2.0641e-24
5.63176e-23
2.01353e-24
1.39789e-23
3.01633e-24
-6.22312e-25
-6.08855e-25
-3.84042e-23
-8.8297e-25
5.40403e-23
7.30876e-24
1.23625e-22
5.03267e-24
-2.4815e-23
8.46253e-25
-9.85202e-23
-7.02157e-23
1.55416e-26
-2.71012e-23
7.86137e-25
-1.91875e-24
-4.53294e-24
-2.90144e-24
-5.29917e-23
-4.28084e-24
2.36998e-23
-4.81022e-24
3.68871e-23
2.85726e-24
1.44054e-22
4.12473e-24
4.48679e-24
5.03674e-24
1.3792e-22
7.73718e-24
8.35344e-23
3.92435e-24
2.02393e-23
-1.73402e-24
-9.20233e-23
2.91188e-24
6.75307e-23
8.22211e-25
-5.21725e-23
5.01035e-24
-3.73354e-23
1.34607e-24
-2.57002e-23
8.56869e-25
3.52753e-23
4.71214e-24
1.37453e-24
7.56614e-24
1.0632e-22
3.98288e-24
-7.52069e-23
4.29267e-24
2.67622e-23
1.47257e-24
-8.637e-24
1.11987e-24
2.63483e-23
1.12155e-24
-3.86557e-23
5.19481e-25
-2.11025e-23
-1.07923e-24
-7.54755e-23
-3.24217e-24
5.27857e-24
-4.3062e-24
-2.29343e-23
-4.17526e-24
4.54557e-24
-3.12716e-24
-3.66525e-24
-4.60108e-24
-5.70549e-23
-1.97013e-24
1.49078e-23
-7.39463e-25
2.80849e-23
-1.26152e-25
1.34911e-23
-1.84066e-24
-3.85175e-25
-2.81995e-24
-4.93123e-23
1.9427e-24
5.45648e-23
1.95303e-24
4.68939e-24
3.06548e-24
-7.06448e-24
-4.74217e-25
-4.49999e-23
-8.78325e-25
6.37135e-23
7.15901e-24
1.1656e-22
5.08614e-24
-1.09488e-23
7.73669e-25
-1.26232e-22
-3.99716e-23
2.87812e-26
-5.23471e-23
8.56332e-25
-1.93506e-24
-2.1638e-23
-2.74373e-24
-2.89265e-23
-4.28713e-24
2.45197e-23
-4.7397e-24
3.62001e-23
2.60833e-24
1.35027e-22
4.15577e-24
2.30823e-23
5.08906e-24
1.59797e-22
7.39174e-24
8.35453e-23
3.72978e-24
2.69462e-23
-1.73718e-24
-8.78646e-23
2.53485e-24
5.55762e-23
5.48248e-25
-5.026e-23
5.19965e-24
-5.47301e-23
1.2534e-24
-2.05005e-23
7.5559e-25
2.12952e-23
4.64119e-24
-1.39459e-24
7.26445e-24
9.31255e-23
3.95634e-24
-5.14661e-23
4.21796e-24
1.65434e-23
1.38558e-24
-8.83777e-24
1.02024e-24
2.39314e-23
9.8874e-25
-2.37634e-23
5.13963e-25
-8.05001e-24
-1.00922e-24
-7.5876e-23
-3.15e-24
-2.29837e-23
-4.37907e-24
-1.74449e-23
-4.08388e-24
3.63847e-23
-3.16776e-24
-6.16717e-24
-4.49392e-24
-5.61578e-23
-1.85323e-24
8.1606e-24
-7.12715e-25
2.92074e-23
-1.96031e-25
2.5432e-23
-1.96517e-24
-4.25787e-24
-2.76239e-24
-3.98039e-23
1.77486e-24
3.95007e-23
2.10204e-24
4.09615e-24
3.24051e-24
-1.35292e-23
-4.63602e-25
-5.3253e-23
-8.097e-25
9.69607e-23
6.98164e-24
1.10631e-22
4.79123e-24
-1.73254e-23
8.71269e-25
-1.20386e-22
-6.47645e-23
-1.37656e-25
-7.80173e-23
8.86313e-25
-1.70316e-24
-7.11445e-24
-2.69624e-24
-4.69741e-23
-4.27449e-24
2.56375e-23
-4.98924e-24
1.79056e-23
2.39613e-24
1.27059e-22
4.4062e-24
4.12695e-23
4.69226e-24
1.61369e-22
7.03885e-24
6.94413e-23
3.57051e-24
3.34661e-23
-1.80841e-24
-9.01859e-23
2.34372e-24
6.0839e-23
3.27494e-25
-4.9217e-23
5.40166e-24
-2.74941e-23
1.08178e-24
-3.49961e-23
6.65744e-25
-8.10673e-24
4.56657e-24
-2.96662e-24
7.05323e-24
8.06625e-23
3.82168e-24
-6.16325e-23
4.17932e-24
3.37309e-23
1.27417e-24
-1.04435e-23
1.02575e-24
1.29285e-23
8.32821e-25
-4.30989e-23
4.93984e-25
-3.84954e-24
-1.00068e-24
-6.72749e-23
-2.96812e-24
-1.46563e-23
-4.40005e-24
-1.2161e-23
-4.09585e-24
4.50559e-23
-3.20287e-24
1.14917e-23
-4.31479e-24
-3.32846e-23
-1.81251e-24
2.48709e-23
-6.60901e-25
4.01586e-23
-3.09685e-25
4.82215e-23
-1.88963e-24
1.48144e-23
-2.90973e-24
-5.29492e-23
1.87939e-24
3.30906e-23
2.08899e-24
1.35037e-24
3.06128e-24
4.6398e-24
-1.88464e-25
-5.15789e-23
-9.32665e-25
1.19436e-22
6.89006e-24
1.0319e-22
4.73173e-24
-3.09531e-24
8.96865e-25
-1.17248e-22
-5.68995e-23
9.12062e-26
-8.17265e-23
1.06616e-24
-1.91584e-24
-3.75988e-23
-2.51604e-24
-2.06667e-23
-4.38867e-24
7.52981e-24
-5.08759e-24
4.3327e-24
2.09423e-24
8.83342e-23
4.40657e-24
4.2874e-23
4.36836e-24
1.20423e-22
6.8527e-24
6.46267e-23
3.17149e-24
3.81231e-23
-2.03024e-24
-7.36861e-23
2.3505e-24
5.63857e-23
1.41554e-25
-6.80997e-23
5.45906e-24
1.26521e-23
9.16987e-25
-4.89725e-23
5.59099e-25
7.04587e-24
4.44509e-24
1.955e-24
6.89259e-24
5.10715e-23
3.74948e-24
-5.93584e-23
4.0702e-24
2.90688e-23
1.19153e-24
4.54691e-25
9.10172e-25
1.10306e-23
8.17958e-25
-4.92837e-23
4.25104e-25
-1.16725e-23
-9.67149e-25
-4.63259e-23
-2.8367e-24
-8.79814e-24
-4.32553e-24
-6.78399e-24
-4.12428e-24
3.69043e-23
-3.19465e-24
1.89555e-23
-4.12707e-24
-3.29781e-23
-1.83833e-24
1.73806e-23
-5.00858e-25
4.01822e-23
-4.63754e-25
2.50675e-23
-2.04644e-24
3.06671e-24
-2.79664e-24
-5.39309e-23
1.91332e-24
6.07462e-23
1.94966e-24
-1.15885e-23
3.05975e-24
3.458e-23
3.90792e-26
-2.95099e-23
-9.09831e-25
1.42684e-22
6.62816e-24
8.70742e-23
4.7051e-24
-1.09537e-23
1.13258e-24
-8.22317e-23
-7.14777e-23
8.3984e-26
-8.4622e-23
1.18263e-24
-1.87014e-24
-4.33949e-23
-2.47136e-24
-8.26437e-24
-4.46781e-24
-2.34851e-23
-5.09213e-24
-1.96374e-24
2.22262e-24
5.8396e-23
4.2778e-24
4.57242e-23
4.27053e-24
1.02032e-22
6.55938e-24
3.90954e-23
3.07185e-24
7.25362e-23
-2.15783e-24
-6.6937e-23
2.0439e-24
4.4795e-23
1.26976e-25
-5.58556e-23
5.33705e-24
8.54381e-24
7.94881e-25
-3.91763e-23
5.23497e-25
3.59155e-23
4.21555e-24
-2.1354e-24
6.79914e-24
7.9918e-23
3.70173e-24
-5.71548e-23
3.98673e-24
2.61329e-23
1.06111e-24
-4.95115e-24
7.65978e-25
4.72509e-24
8.4104e-25
-2.64937e-23
4.53598e-25
-1.17142e-23
-9.76125e-25
-4.56809e-23
-2.72389e-24
-6.17773e-24
-4.29509e-24
1.05188e-23
-4.08796e-24
2.50418e-23
-3.2543e-24
1.86023e-23
-3.89763e-24
-3.09951e-23
-1.82015e-24
-1.60586e-25
-4.85168e-25
3.81282e-23
-6.27986e-25
1.45392e-23
-2.03117e-24
7.76927e-25
-2.81679e-24
-7.59144e-23
1.77321e-24
8.75058e-23
2.20736e-24
7.40403e-24
3.12679e-24
4.60201e-23
2.17838e-25
-2.71738e-23
-1.23182e-24
1.00846e-22
6.43248e-24
6.99809e-23
4.72712e-24
1.38591e-23
9.004e-25
-8.03167e-23
-4.04471e-23
3.02198e-26
-1.08726e-22
1.28838e-24
-1.68865e-24
-6.14134e-23
-2.56389e-24
4.51895e-24
-4.44444e-24
-5.34099e-23
-5.11433e-24
-1.49241e-23
2.246e-24
4.80328e-23
4.02587e-24
4.79969e-23
4.10698e-24
1.13026e-22
6.51686e-24
4.43673e-23
2.72545e-24
7.43145e-23
-2.4922e-24
-5.90194e-23
1.95827e-24
4.24809e-23
-3.75941e-26
-5.5038e-23
5.31908e-24
-1.05565e-23
7.56966e-25
-6.36332e-23
3.14641e-25
1.93126e-23
4.17322e-24
-1.23029e-23
6.46014e-24
4.55707e-23
3.69828e-24
-4.55507e-23
3.89629e-24
1.35492e-23
9.98951e-25
1.76844e-23
6.91253e-25
8.28528e-24
7.52657e-25
-4.43625e-23
5.06282e-25
-1.45569e-23
-9.65714e-25
-4.36905e-23
-2.56377e-24
-6.53221e-24
-4.34518e-24
-4.57811e-24
-3.99874e-24
2.49204e-23
-3.30652e-24
2.02839e-23
-3.78672e-24
-3.33741e-23
-1.75318e-24
1.75438e-25
-4.59648e-25
3.72648e-23
-6.85879e-25
4.65959e-23
-2.09511e-24
-1.87408e-24
-2.67974e-24
-7.4772e-23
1.64402e-24
8.20011e-23
2.32908e-24
4.64594e-23
3.21055e-24
3.20038e-23
2.98245e-25
-2.54303e-23
-1.36434e-24
1.04486e-22
6.37527e-24
5.98092e-23
4.51653e-24
-4.06316e-24
1.01137e-24
-8.81909e-23
-3.41103e-23
-1.44426e-25
-1.00368e-22
1.42705e-24
-1.52893e-24
-5.8388e-23
-2.70717e-24
8.09401e-24
-4.48681e-24
-4.94823e-23
-5.28766e-24
-3.274e-23
2.27659e-24
3.87856e-23
3.92548e-24
5.11542e-23
3.92431e-24
1.01333e-22
6.56327e-24
3.6259e-23
2.39775e-24
4.14398e-23
-2.85234e-24
-4.92633e-23
1.86679e-24
4.96372e-23
-3.14304e-25
-5.1528e-23
5.33647e-24
-1.82571e-23
7.09373e-25
-8.71607e-23
2.27838e-25
2.63541e-23
4.09204e-24
-2.26515e-23
6.26141e-24
2.26862e-23
3.53562e-24
-4.50329e-23
3.90995e-24
1.32958e-23
8.61363e-25
1.70897e-23
5.67437e-25
1.0405e-23
7.30849e-25
-4.13842e-23
5.6911e-25
-1.38023e-24
-9.4242e-25
-4.08264e-23
-2.47688e-24
-5.82068e-24
-4.30858e-24
-8.62901e-25
-3.94884e-24
2.34632e-23
-3.3469e-24
2.16262e-23
-3.60913e-24
-1.5721e-23
-1.70263e-24
-1.43946e-23
-3.67929e-25
2.17467e-23
-8.58004e-25
3.29913e-23
-2.19046e-24
5.34362e-24
-2.53988e-24
-7.49437e-23
1.71471e-24
1.00139e-22
2.23591e-24
4.47021e-23
3.23771e-24
3.74235e-23
4.10736e-25
-2.59691e-23
-1.492e-24
9.60871e-23
6.2287e-24
6.01416e-23
4.35218e-24
4.01134e-23
1.14401e-24
-8.59219e-23
-2.69356e-23
-1.80861e-25
-1.03593e-22
1.61961e-24
-1.54588e-24
-5.49947e-23
-2.68689e-24
-2.17592e-23
-4.76839e-24
-2.05576e-23
-5.21835e-24
1.73106e-23
2.2728e-24
2.29654e-23
3.81612e-24
8.90241e-24
3.65665e-24
9.54026e-23
6.27379e-24
1.98662e-23
2.31004e-24
2.24848e-23
-3.00949e-24
-4.10987e-23
1.59143e-24
4.61591e-23
-4.19111e-25
-3.95845e-23
5.23249e-24
-5.58718e-24
7.2799e-25
-7.84618e-23
5.65912e-26
-3.47063e-24
4.0339e-24
-2.43867e-23
6.01678e-24
-2.03651e-24
3.53372e-24
-4.06402e-23
3.89069e-24
5.98946e-24
7.11871e-25
1.78974e-23
4.15825e-25
2.04378e-23
7.19639e-25
-5.0409e-23
6.17026e-25
-1.60351e-23
-9.13578e-25
-3.76437e-23
-2.41421e-24
-6.13899e-24
-4.21725e-24
1.23907e-23
-3.89917e-24
2.44222e-23
-3.2777e-24
2.73758e-23
-3.55124e-24
-2.03816e-23
-1.67961e-24
1.54716e-23
-2.60104e-25
7.04733e-24
-1.01199e-24
5.32732e-23
-2.24711e-24
2.32062e-23
-2.39204e-24
-6.38859e-23
1.70954e-24
1.04407e-22
2.20246e-24
2.15333e-23
3.10672e-24
9.75497e-24
4.32261e-25
-2.61592e-23
-1.69302e-24
6.88656e-23
6.29944e-24
7.88942e-23
4.31718e-24
4.59122e-23
1.23823e-24
-8.14005e-23
1.01706e-23
-1.10494e-25
-8.75754e-23
1.84461e-24
-1.60378e-24
-5.30172e-23
-2.50666e-24
-1.19236e-23
-4.85201e-24
-4.2781e-23
-5.28329e-24
1.87633e-23
2.12225e-24
1.56577e-23
3.78146e-24
2.89152e-23
3.44182e-24
6.58517e-23
6.01764e-24
1.6733e-24
2.13047e-24
4.1276e-24
-3.33298e-24
-6.45008e-23
1.3967e-24
6.9163e-23
-4.60327e-25
-4.23405e-23
5.07079e-24
6.4497e-24
6.31668e-25
-7.18991e-23
-3.40408e-26
5.81558e-24
3.7805e-24
-3.56657e-23
5.95938e-24
3.89339e-24
3.48384e-24
-3.55957e-23
3.82591e-24
7.17721e-24
6.62727e-25
2.80811e-23
2.45844e-25
2.17117e-23
7.02716e-25
-5.16705e-23
7.10355e-25
-1.43021e-23
-9.10143e-25
-3.94686e-23
-2.30132e-24
-6.37938e-24
-4.15989e-24
1.843e-23
-3.85688e-24
2.50359e-23
-3.27987e-24
3.0397e-23
-3.45359e-24
-3.7695e-23
-1.67857e-24
3.44245e-24
-1.37499e-25
2.31078e-23
-1.09331e-24
5.41566e-23
-2.31366e-24
5.64795e-23
-2.20076e-24
-5.28105e-23
1.60163e-24
1.15555e-22
2.1342e-24
3.98442e-23
3.06847e-24
7.64062e-24
4.75868e-25
-4.02525e-23
-1.53396e-24
8.24867e-23
6.17342e-24
1.04029e-22
4.17011e-24
4.8437e-23
1.42421e-24
-5.93284e-23
2.42089e-25
-1.85009e-23
-3.50702e-23
-1.50901e-25
-6.24515e-23
2.01596e-24
-1.64958e-24
-4.34691e-23
-2.51182e-24
8.56351e-25
-4.84826e-24
-3.74307e-23
-5.53083e-24
2.06838e-23
2.00233e-24
2.81673e-23
3.62889e-24
3.12331e-23
3.22365e-24
4.89557e-23
5.8979e-24
5.12699e-24
1.9876e-24
4.03195e-24
-3.47172e-24
-5.1556e-23
1.17651e-24
9.02132e-23
-5.03724e-25
-3.35731e-23
4.92067e-24
-2.48805e-23
5.84422e-25
-7.48597e-23
-1.70638e-25
-2.22607e-23
3.70303e-24
-2.14586e-23
5.83047e-24
1.53375e-23
3.45328e-24
-3.1475e-23
3.85259e-24
7.50063e-24
5.02501e-25
1.0816e-23
1.08182e-25
1.82567e-23
6.56929e-25
-3.47276e-23
8.17898e-25
-8.80443e-24
-8.90242e-25
-6.95463e-23
-2.17347e-24
-4.51771e-24
-4.09635e-24
7.43219e-24
-3.76733e-24
2.46538e-23
-3.34334e-24
4.00376e-23
-3.33136e-24
-2.12205e-23
-1.57489e-24
9.33077e-24
-6.118e-26
7.12002e-24
-1.19453e-24
4.29913e-23
-2.47985e-24
4.56177e-23
-2.11853e-24
-2.64813e-23
1.53088e-24
1.02954e-22
2.05775e-24
6.91273e-23
3.02329e-24
-3.9356e-24
5.36279e-25
-6.15251e-23
-1.57799e-24
5.35338e-23
5.95472e-24
9.35904e-23
4.04532e-24
4.70878e-23
1.5305e-24
-3.31604e-23
4.94042e-25
-1.44265e-23
-3.15629e-23
-1.12036e-25
-4.64358e-23
2.19514e-24
-1.55696e-24
-6.85231e-23
-2.49089e-24
-1.31107e-23
-4.95497e-24
-7.95553e-23
-5.55069e-24
2.19366e-23
2.11695e-24
5.28975e-23
3.3376e-24
3.3779e-23
3.06921e-24
3.87552e-23
5.56924e-24
8.61935e-24
1.64088e-24
1.53919e-24
-3.54696e-24
-6.59752e-23
9.60474e-25
9.09012e-23
-7.14705e-25
-3.39314e-23
4.87569e-24
-1.27202e-23
4.31653e-25
-7.22942e-23
-2.50654e-25
-4.02575e-23
3.53851e-24
-2.26834e-23
5.55896e-24
2.07997e-23
3.41478e-24
-2.79698e-23
3.82992e-24
-1.041e-23
3.98077e-25
2.19434e-23
-2.26874e-26
1.8461e-23
6.1397e-25
-2.89238e-23
8.47242e-25
-1.43993e-23
-7.7509e-25
-7.5328e-23
-2.10417e-24
-7.59251e-24
-3.96364e-24
1.10594e-23
-3.71463e-24
6.25343e-24
-3.33817e-24
2.13056e-23
-3.20678e-24
-2.50166e-23
-1.53193e-24
1.50544e-23
1.55675e-25
-7.95675e-24
-1.22519e-24
1.33744e-23
-2.51292e-24
3.17883e-23
-2.11416e-24
-7.95924e-24
1.58197e-24
9.64097e-23
1.89104e-24
6.12451e-23
2.95071e-24
3.71077e-24
6.60311e-25
-5.29165e-23
-1.51429e-24
6.5382e-23
5.87648e-24
7.13339e-23
4.02378e-24
4.60356e-23
1.63232e-24
-2.86465e-23
6.03623e-25
-4.75597e-24
-4.56572e-23
-3.29461e-25
-2.9491e-23
2.29269e-24
-1.64737e-24
-1.02087e-22
-2.55821e-24
-8.33041e-24
-4.97513e-24
-7.92188e-23
-5.74223e-24
-2.96657e-24
1.9378e-24
4.26968e-23
3.19223e-24
2.33446e-23
2.95874e-24
3.64462e-23
5.30299e-24
5.6361e-24
1.37347e-24
-8.28839e-25
-3.57765e-24
-3.95874e-23
7.30789e-25
1.11265e-22
-8.64564e-25
-3.41298e-23
4.73021e-24
1.24125e-23
3.05178e-25
-7.87801e-23
-3.40712e-25
-4.81501e-23
3.40357e-24
-2.52015e-23
5.42539e-24
2.01593e-23
3.24115e-24
-4.35992e-23
3.90911e-24
-9.16541e-24
2.37419e-25
-4.58513e-24
-5.99781e-26
1.39656e-23
4.99021e-25
-3.08945e-23
8.80124e-25
-1.48158e-23
-6.48719e-25
-7.09794e-23
-1.99578e-24
-4.88669e-24
-3.85584e-24
1.43027e-23
-3.66199e-24
-4.91027e-24
-3.26511e-24
2.27461e-23
-3.05259e-24
-1.22261e-23
-1.54546e-24
7.60912e-24
2.43489e-25
4.14006e-24
-1.25781e-24
1.29347e-23
-2.47739e-24
2.81395e-23
-2.07801e-24
-2.8498e-24
1.58294e-24
9.24272e-23
1.76083e-24
5.86051e-23
2.81912e-24
8.04593e-24
7.33498e-25
-6.28172e-23
-1.50106e-24
2.8234e-23
5.78142e-24
6.68556e-23
3.8875e-24
5.08125e-23
1.62512e-24
-2.39332e-23
9.06382e-25
1.44575e-23
-4.11277e-25
-3.7903e-23
2.34336e-24
-1.53051e-24
-7.66783e-23
-2.45935e-24
-9.04736e-24
-5.02238e-24
-8.78786e-23
-5.63194e-24
1.58892e-23
1.73208e-24
5.5235e-23
3.09987e-24
2.20755e-23
2.66445e-24
2.56314e-23
4.99296e-24
1.71209e-24
1.16798e-24
-5.72442e-24
-3.65435e-24
-3.46666e-23
3.83515e-25
1.08482e-22
-9.23211e-25
-6.15287e-25
4.51659e-24
5.85678e-24
1.47551e-25
-7.71531e-23
-3.43001e-25
-5.53973e-23
3.23701e-24
-4.50246e-23
5.21021e-24
1.37408e-23
3.16689e-24
-3.30232e-23
3.85417e-24
-1.70501e-23
1.76216e-25
-3.16689e-23
-1.23973e-25
1.37876e-23
4.31036e-25
-2.59633e-23
9.29656e-25
-1.75129e-23
-5.28477e-25
-7.19009e-23
-1.87204e-24
-1.31289e-23
-3.77383e-24
-7.83634e-25
-3.5718e-24
-5.6084e-24
-3.17013e-24
2.46178e-23
-2.97687e-24
-1.25811e-23
-1.49167e-24
-8.77726e-26
3.5077e-25
7.44826e-24
-1.27153e-24
2.79078e-24
-2.40204e-24
4.71295e-23
-2.07543e-24
2.26889e-23
1.52389e-24
1.04651e-22
1.67099e-24
6.3457e-23
2.73504e-24
1.18235e-23
7.42465e-25
-4.92889e-23
-1.36457e-24
2.73156e-23
5.71481e-24
7.99241e-23
3.86077e-24
3.61264e-23
1.68352e-24
-3.17612e-23
1.42579e-23
-4.14997e-25
-2.32309e-23
2.51108e-24
-1.63553e-24
-7.47288e-23
-2.47432e-24
-2.69137e-23
-5.01317e-24
-7.3648e-23
-5.67577e-24
2.043e-23
1.5476e-24
4.02329e-23
2.81666e-24
2.02585e-23
2.46802e-24
-3.24242e-24
4.78265e-24
-9.11021e-25
1.01452e-24
-1.18827e-23
-3.73915e-24
-3.84149e-23
1.54692e-25
1.0787e-22
-1.07841e-24
-1.44991e-23
4.24439e-24
-5.69818e-25
8.27792e-27
-5.72749e-23
-4.16872e-25
-4.88732e-23
3.15027e-24
-4.64591e-23
5.07154e-24
2.93987e-23
3.04016e-24
-3.10018e-23
3.78616e-24
4.6839e-25
1.8172e-25
-2.84745e-23
-1.71475e-25
7.16612e-24
3.50191e-25
-8.97886e-24
9.73426e-25
-1.99327e-23
-3.99269e-25
-6.39459e-23
-1.75918e-24
-3.56283e-24
-3.63813e-24
2.3847e-24
-3.47121e-24
1.60326e-24
-3.05432e-24
2.70943e-23
-2.90225e-24
-1.00002e-23
-1.4545e-24
-1.15672e-23
4.57582e-25
2.10193e-23
-1.28926e-24
-5.66146e-25
-2.35843e-24
4.71626e-23
-2.06077e-24
3.04159e-24
1.50052e-24
9.88666e-23
1.58287e-24
6.50334e-23
2.62522e-24
4.08918e-25
7.83864e-25
-4.44741e-23
-1.3446e-24
3.72178e-23
5.62622e-24
6.07217e-23
3.75848e-24
2.74414e-23
1.85524e-24
-1.03501e-23
6.30185e-24
-5.8048e-25
-2.4067e-23
2.62357e-24
-1.66561e-24
-5.85199e-23
-2.4183e-24
-3.02724e-23
-5.04627e-24
-5.18526e-23
-5.62436e-24
5.05205e-23
1.43244e-24
3.29485e-23
2.50783e-24
1.86621e-23
2.24826e-24
-8.18123e-25
4.5537e-24
-1.25819e-23
7.87497e-25
7.52602e-24
-3.70616e-24
-1.64206e-23
-9.90811e-26
7.40632e-23
-1.18539e-24
-1.93505e-23
4.05761e-24
-5.25303e-24
-1.06063e-25
-5.52853e-23
-5.2802e-25
-5.05493e-23
3.08106e-24
-3.12787e-23
4.85868e-24
2.77214e-23
2.91071e-24
-2.76586e-23
3.72206e-24
2.29829e-23
1.28413e-25
-2.5245e-23
-1.53871e-25
7.38157e-24
2.51458e-25
-1.20994e-23
1.03511e-24
-2.03984e-23
-2.50982e-25
-4.59158e-23
-1.6553e-24
-7.0005e-24
-3.45762e-24
2.94455e-24
-3.34744e-24
7.85578e-25
-2.9665e-24
2.80179e-23
-2.78834e-24
4.40541e-24
-1.34649e-24
-2.46043e-23
5.26642e-25
2.54827e-23
-1.23725e-24
7.52466e-25
-2.37246e-24
3.64516e-23
-1.94642e-24
-1.60599e-24
1.37907e-24
9.48579e-23
1.45631e-24
6.63167e-23
2.5643e-24
2.24826e-25
8.2603e-25
-2.42533e-23
-1.37593e-24
3.70485e-23
5.57396e-24
5.67425e-23
3.74513e-24
2.08176e-23
1.89923e-24
-6.48273e-24
6.13355e-24
-6.64147e-25
-9.1693e-24
2.72793e-24
-1.74284e-24