/*--------------------------------*- C++ -*----------------------------------*\
  =========                 |
  \\      /  F ield         | OpenFOAM: The Open Source CFD Toolbox
   \\    /   O peration     | Website:  https://openfoam.org
    \\  /    A nd           | Version:  7
     \\/     M anipulation  |
\*---------------------------------------------------------------------------*/
FoamFile
{
    version     2.0;
    format      ascii;
    class       volScalarField;
    location    "204000";
    object      nu;
}
// * * * * * * * * * * * * * * * * * * * * * * * * * * * * * * * * * * * * * //

dimensions      [0 2 -1 0 0 0 0];

internalField   nonuniform List<scalar> 
4844
(
1.46248e-05
1.45369e-05
1.4442e-05
1.42769e-05
1.41931e-05
1.41026e-05
1.40059e-05
1.39036e-05
1.37959e-05
1.36835e-05
1.35668e-05
1.39444e-05
1.38643e-05
1.37779e-05
1.36856e-05
1.35877e-05
1.34847e-05
1.33772e-05
1.32654e-05
1.315e-05
1.30313e-05
1.29097e-05
1.36261e-05
1.35496e-05
1.34669e-05
1.33785e-05
1.32848e-05
1.31862e-05
1.30831e-05
1.2976e-05
1.28653e-05
1.27514e-05
1.26347e-05
1.25156e-05
1.23945e-05
1.22719e-05
1.21481e-05
1.19586e-05
1.3321e-05
1.32477e-05
1.31685e-05
1.30839e-05
1.2994e-05
1.28995e-05
1.28006e-05
1.26978e-05
1.25915e-05
1.2482e-05
1.23698e-05
1.22553e-05
1.21389e-05
1.20209e-05
1.19016e-05
1.17212e-05
1.30281e-05
1.29579e-05
1.28819e-05
1.28007e-05
1.27145e-05
1.26237e-05
1.25288e-05
1.243e-05
1.23278e-05
1.22225e-05
1.21146e-05
1.20044e-05
1.18922e-05
1.17785e-05
1.16636e-05
1.14916e-05
1.26792e-05
1.26063e-05
1.25283e-05
1.24455e-05
1.23582e-05
1.22669e-05
1.21719e-05
1.20735e-05
1.19722e-05
1.18682e-05
1.17621e-05
1.1654e-05
1.15443e-05
1.14334e-05
1.12693e-05
1.24109e-05
1.23409e-05
1.22659e-05
1.21862e-05
1.21023e-05
1.20144e-05
1.19229e-05
1.18282e-05
1.17305e-05
1.16303e-05
1.15279e-05
1.14236e-05
1.13178e-05
1.12107e-05
1.10538e-05
1.21524e-05
1.2085e-05
1.20128e-05
1.19362e-05
1.18553e-05
1.17707e-05
1.16825e-05
1.15911e-05
1.14969e-05
1.14002e-05
1.13014e-05
1.12007e-05
1.10984e-05
1.0995e-05
1.08449e-05
1.1963e-05
1.19031e-05
1.18381e-05
1.17686e-05
1.16947e-05
1.16168e-05
1.15351e-05
1.14501e-05
1.13619e-05
1.1271e-05
1.11776e-05
1.10821e-05
1.09848e-05
1.08859e-05
1.07858e-05
1.06422e-05
1.172e-05
1.16622e-05
1.15996e-05
1.15326e-05
1.14613e-05
1.13861e-05
1.13073e-05
1.12252e-05
1.114e-05
1.10522e-05
1.09619e-05
1.08696e-05
1.07754e-05
1.06798e-05
1.05829e-05
1.04453e-05
1.14852e-05
1.14294e-05
1.1369e-05
1.13043e-05
1.12355e-05
1.11629e-05
1.10868e-05
1.10074e-05
1.09251e-05
1.08401e-05
1.07528e-05
1.06635e-05
1.05724e-05
1.04798e-05
1.0386e-05
1.02539e-05
1.12579e-05
1.12041e-05
1.11458e-05
1.10833e-05
1.10168e-05
1.09467e-05
1.08731e-05
1.07963e-05
1.07167e-05
1.06345e-05
1.055e-05
1.04635e-05
1.03752e-05
1.02855e-05
1.01946e-05
1.00677e-05
1.10854e-05
1.10379e-05
1.09859e-05
1.09296e-05
1.08692e-05
1.08049e-05
1.0737e-05
1.06658e-05
1.05915e-05
1.05145e-05
1.04349e-05
1.0353e-05
1.02692e-05
1.01836e-05
1.00966e-05
1.00085e-05
9.88656e-06
1.08706e-05
1.08247e-05
1.07745e-05
1.072e-05
1.06615e-05
1.05993e-05
1.05336e-05
1.04647e-05
1.03928e-05
1.03181e-05
1.0241e-05
1.01616e-05
1.00803e-05
9.99735e-06
9.91295e-06
9.82739e-06
9.71013e-06
1.07023e-05
1.06624e-05
1.0618e-05
1.05693e-05
1.05166e-05
1.046e-05
1.03998e-05
1.03361e-05
1.02693e-05
1.01996e-05
1.01273e-05
1.00525e-05
9.9755e-06
9.89663e-06
9.81611e-06
9.73418e-06
9.65109e-06
9.53822e-06
1.04989e-05
1.04602e-05
1.04173e-05
1.03701e-05
1.03191e-05
1.02643e-05
1.02059e-05
1.01442e-05
1.00795e-05
1.00119e-05
9.94167e-06
9.86909e-06
9.7944e-06
9.71784e-06
9.63965e-06
9.56007e-06
9.47935e-06
9.37061e-06
1.03014e-05
1.02639e-05
1.02223e-05
1.01766e-05
1.01271e-05
1.0074e-05
1.00174e-05
9.95762e-06
9.89481e-06
9.82921e-06
9.76106e-06
9.6906e-06
9.61807e-06
9.5437e-06
9.46773e-06
9.3904e-06
9.31193e-06
9.2071e-06
1.01094e-05
1.00731e-05
1.00328e-05
9.9885e-06
9.9405e-06
9.88897e-06
9.83407e-06
9.77604e-06
9.71506e-06
9.65138e-06
9.5852e-06
9.51676e-06
9.44628e-06
9.37401e-06
9.30016e-06
9.22496e-06
9.14865e-06
9.04751e-06
9.92274e-06
9.88754e-06
9.84839e-06
9.80545e-06
9.75888e-06
9.70886e-06
9.65558e-06
9.59923e-06
9.54001e-06
9.47815e-06
9.41384e-06
9.34732e-06
9.27881e-06
9.20854e-06
9.13671e-06
9.06356e-06
8.98931e-06
8.89167e-06
9.74107e-06
9.70691e-06
9.66892e-06
9.62724e-06
9.58203e-06
9.53346e-06
9.48171e-06
9.42697e-06
9.36943e-06
9.30929e-06
9.24678e-06
9.1821e-06
9.11547e-06
9.0471e-06
8.97721e-06
8.90601e-06
8.83373e-06
8.7394e-06
9.56416e-06
9.53101e-06
9.49412e-06
9.45364e-06
9.40972e-06
9.36253e-06
9.31224e-06
9.25903e-06
9.20309e-06
9.14462e-06
9.08382e-06
9.02089e-06
8.95605e-06
8.88951e-06
8.82147e-06
8.75215e-06
8.68175e-06
8.59057e-06
9.39179e-06
9.35959e-06
9.32375e-06
9.28442e-06
9.24174e-06
9.19587e-06
9.14697e-06
9.09522e-06
9.04081e-06
8.98393e-06
8.92476e-06
8.86351e-06
8.80039e-06
8.7356e-06
8.66934e-06
8.60181e-06
8.53322e-06
8.44502e-06
9.22374e-06
9.19244e-06
9.15761e-06
9.11937e-06
9.07787e-06
9.03326e-06
8.9857e-06
8.93536e-06
8.88241e-06
8.82704e-06
8.76944e-06
8.7098e-06
8.64833e-06
8.58521e-06
8.52065e-06
8.45485e-06
8.388e-06
8.30263e-06
9.05981e-06
9.02937e-06
8.9955e-06
8.95831e-06
8.91794e-06
8.87453e-06
8.82825e-06
8.77925e-06
8.72771e-06
8.67379e-06
8.61769e-06
8.5596e-06
8.4997e-06
8.43819e-06
8.37526e-06
8.31111e-06
8.24593e-06
8.16326e-06
8.8998e-06
8.87019e-06
8.83724e-06
8.80105e-06
8.76176e-06
8.71952e-06
8.67446e-06
8.62674e-06
8.57654e-06
8.52402e-06
8.46936e-06
8.41275e-06
8.35437e-06
8.2944e-06
8.23304e-06
8.17048e-06
8.10691e-06
8.02681e-06
8.74354e-06
8.71473e-06
8.68266e-06
8.64743e-06
8.60918e-06
8.56804e-06
8.52416e-06
8.47768e-06
8.42877e-06
8.37759e-06
8.32431e-06
8.26912e-06
8.21219e-06
8.15371e-06
8.09386e-06
8.03283e-06
7.9708e-06
7.89315e-06
8.59088e-06
8.56283e-06
8.5316e-06
8.49729e-06
8.46004e-06
8.41996e-06
8.37721e-06
8.33191e-06
8.28424e-06
8.23435e-06
8.1824e-06
8.12858e-06
8.07305e-06
8.016e-06
7.9576e-06
7.89804e-06
7.8375e-06
7.76219e-06
8.44165e-06
8.41433e-06
8.38391e-06
8.35049e-06
8.31419e-06
8.27514e-06
8.23346e-06
8.18931e-06
8.14283e-06
8.09417e-06
8.04351e-06
7.991e-06
7.93682e-06
7.88114e-06
7.82415e-06
7.76601e-06
7.7069e-06
7.63382e-06
8.29571e-06
8.26909e-06
8.23945e-06
8.20688e-06
8.1715e-06
8.13343e-06
8.0928e-06
8.04974e-06
8.00441e-06
7.95694e-06
7.90751e-06
7.85626e-06
7.80338e-06
7.74903e-06
7.69339e-06
7.63662e-06
7.57889e-06
7.50795e-06
8.17583e-06
8.15293e-06
8.12699e-06
8.09809e-06
8.06634e-06
8.03185e-06
7.99472e-06
7.95509e-06
7.91309e-06
7.86886e-06
7.82254e-06
7.77429e-06
7.72427e-06
7.67264e-06
7.61957e-06
7.56523e-06
7.50978e-06
7.45339e-06
7.38449e-06
8.0355e-06
8.01318e-06
7.98788e-06
7.95971e-06
7.92875e-06
7.8951e-06
7.85889e-06
7.82022e-06
7.77924e-06
7.73607e-06
7.69086e-06
7.64376e-06
7.59492e-06
7.5445e-06
7.49266e-06
7.43958e-06
7.3854e-06
7.33031e-06
7.26336e-06
7.9169e-06
7.8981e-06
7.87633e-06
7.85167e-06
7.82418e-06
7.79398e-06
7.76116e-06
7.72582e-06
7.68809e-06
7.64809e-06
7.60594e-06
7.5618e-06
7.51581e-06
7.4681e-06
7.41885e-06
7.36821e-06
7.31633e-06
7.2634e-06
7.20955e-06
7.14447e-06
7.78186e-06
7.76352e-06
7.74229e-06
7.71822e-06
7.69141e-06
7.66194e-06
7.6299e-06
7.59541e-06
7.55858e-06
7.51953e-06
7.47838e-06
7.43527e-06
7.39034e-06
7.34374e-06
7.29561e-06
7.24612e-06
7.19542e-06
7.14368e-06
7.09104e-06
7.02777e-06
7.64954e-06
7.63165e-06
7.61093e-06
7.58745e-06
7.56128e-06
7.53252e-06
7.50125e-06
7.46757e-06
7.43161e-06
7.39347e-06
7.35328e-06
7.31117e-06
7.26727e-06
7.22173e-06
7.1747e-06
7.12632e-06
7.07676e-06
7.02617e-06
6.97471e-06
6.91316e-06
7.51985e-06
7.50239e-06
7.48217e-06
7.45925e-06
7.4337e-06
7.40562e-06
7.37509e-06
7.34221e-06
7.30708e-06
7.26983e-06
7.23056e-06
7.18941e-06
7.14652e-06
7.10201e-06
7.05603e-06
7.00873e-06
6.96028e-06
6.91081e-06
6.86048e-06
6.80059e-06
7.39269e-06
7.37564e-06
7.3559e-06
7.33352e-06
7.30858e-06
7.28116e-06
7.25134e-06
7.21922e-06
7.18491e-06
7.14851e-06
7.11014e-06
7.06993e-06
7.028e-06
6.98448e-06
6.93953e-06
6.89328e-06
6.84589e-06
6.79751e-06
6.74828e-06
6.68999e-06
7.26796e-06
7.25132e-06
7.23204e-06
7.21019e-06
7.18583e-06
7.15904e-06
7.12991e-06
7.09854e-06
7.06501e-06
7.02944e-06
6.99194e-06
6.95263e-06
6.91164e-06
6.86909e-06
6.82513e-06
6.7799e-06
6.73354e-06
6.68621e-06
6.63806e-06
6.5813e-06
7.14559e-06
7.12934e-06
7.11051e-06
7.08916e-06
7.06537e-06
7.0392e-06
7.01074e-06
6.98008e-06
6.94731e-06
6.91254e-06
6.87589e-06
6.83745e-06
6.79737e-06
6.75576e-06
6.71276e-06
6.66851e-06
6.62316e-06
6.57686e-06
6.52974e-06
6.47447e-06
7.02549e-06
7.00961e-06
6.99122e-06
6.97036e-06
6.94711e-06
6.92154e-06
6.89373e-06
6.86376e-06
6.83174e-06
6.79775e-06
6.76191e-06
6.72433e-06
6.68512e-06
6.64442e-06
6.60236e-06
6.55907e-06
6.51469e-06
6.46938e-06
6.42328e-06
6.36943e-06
6.90758e-06
6.89207e-06
6.8741e-06
6.85372e-06
6.831e-06
6.80601e-06
6.77882e-06
6.74953e-06
6.71822e-06
6.68499e-06
6.64994e-06
6.61318e-06
6.57484e-06
6.53502e-06
6.49387e-06
6.4515e-06
6.40808e-06
6.36373e-06
6.31861e-06
6.26614e-06
6.7918e-06
6.77664e-06
6.75908e-06
6.73916e-06
6.71695e-06
6.69252e-06
6.66595e-06
6.63731e-06
6.60669e-06
6.57419e-06
6.53991e-06
6.50396e-06
6.46645e-06
6.42749e-06
6.38722e-06
6.34576e-06
6.30325e-06
6.25985e-06
6.21568e-06
6.16455e-06
6.67807e-06
6.66325e-06
6.64609e-06
6.62662e-06
6.60491e-06
6.58102e-06
6.55504e-06
6.52703e-06
6.49709e-06
6.46531e-06
6.43178e-06
6.3966e-06
6.3599e-06
6.32178e-06
6.28236e-06
6.24178e-06
6.20017e-06
6.15768e-06
6.11445e-06
6.06461e-06
6.56633e-06
6.55184e-06
6.53506e-06
6.51603e-06
6.4948e-06
6.47145e-06
6.44604e-06
6.41865e-06
6.38936e-06
6.35827e-06
6.32547e-06
6.29106e-06
6.25514e-06
6.21783e-06
6.17925e-06
6.13953e-06
6.09879e-06
6.05719e-06
6.01486e-06
5.96628e-06
6.45651e-06
6.44235e-06
6.42594e-06
6.40733e-06
6.38658e-06
6.36374e-06
6.33889e-06
6.3121e-06
6.28345e-06
6.25303e-06
6.22094e-06
6.18726e-06
6.15211e-06
6.1156e-06
6.07783e-06
6.03894e-06
5.99905e-06
5.95831e-06
5.91688e-06
5.8695e-06
6.34857e-06
6.33472e-06
6.31868e-06
6.30048e-06
6.28018e-06
6.25784e-06
6.23353e-06
6.20733e-06
6.1793e-06
6.14954e-06
6.11813e-06
6.08518e-06
6.05077e-06
6.01503e-06
5.97805e-06
5.93997e-06
5.90091e-06
5.86102e-06
5.82045e-06
5.77425e-06
6.24243e-06
6.2289e-06
6.2132e-06
6.1954e-06
6.17555e-06
6.1537e-06
6.12992e-06
6.10428e-06
6.07686e-06
6.04773e-06
6.017e-06
5.98475e-06
5.95107e-06
5.91608e-06
5.87988e-06
5.84259e-06
5.80434e-06
5.76527e-06
5.72554e-06
5.68048e-06
6.13806e-06
6.12482e-06
6.10947e-06
6.09206e-06
6.07264e-06
6.05126e-06
6.028e-06
6.00291e-06
5.97608e-06
5.94758e-06
5.9175e-06
5.88593e-06
5.85296e-06
5.8187e-06
5.78326e-06
5.74674e-06
5.70928e-06
5.67101e-06
5.6321e-06
5.58816e-06
6.0354e-06
6.02245e-06
6.00743e-06
5.9904e-06
5.9714e-06
5.95049e-06
5.92772e-06
5.90317e-06
5.87692e-06
5.84902e-06
5.81958e-06
5.78868e-06
5.7564e-06
5.72286e-06
5.68815e-06
5.65239e-06
5.61569e-06
5.57821e-06
5.54011e-06
5.49725e-06
5.9344e-06
5.92173e-06
5.90704e-06
5.89037e-06
5.87178e-06
5.85132e-06
5.82905e-06
5.80503e-06
5.77933e-06
5.75203e-06
5.72321e-06
5.69295e-06
5.66136e-06
5.62851e-06
5.59452e-06
5.5595e-06
5.52355e-06
5.48683e-06
5.44951e-06
5.40772e-06
5.83501e-06
5.82262e-06
5.80825e-06
5.79194e-06
5.77375e-06
5.75373e-06
5.73193e-06
5.70842e-06
5.68327e-06
5.65655e-06
5.62834e-06
5.59872e-06
5.56778e-06
5.53562e-06
5.50233e-06
5.46803e-06
5.43282e-06
5.39684e-06
5.36029e-06
5.31954e-06
5.7372e-06
5.72507e-06
5.71101e-06
5.69506e-06
5.67726e-06
5.65766e-06
5.63633e-06
5.61332e-06
5.5887e-06
5.56255e-06
5.53493e-06
5.50593e-06
5.47564e-06
5.44415e-06
5.41155e-06
5.37795e-06
5.34345e-06
5.3082e-06
5.27239e-06
5.23267e-06
5.64092e-06
5.62905e-06
5.61529e-06
5.59968e-06
5.58226e-06
5.56309e-06
5.54221e-06
5.51969e-06
5.49559e-06
5.46999e-06
5.44295e-06
5.41456e-06
5.3849e-06
5.35406e-06
5.32214e-06
5.28922e-06
5.25543e-06
5.22089e-06
5.1858e-06
5.14708e-06
5.54613e-06
5.53452e-06
5.52106e-06
5.50578e-06
5.48873e-06
5.46997e-06
5.44953e-06
5.42749e-06
5.4039e-06
5.37884e-06
5.35237e-06
5.32457e-06
5.29553e-06
5.26533e-06
5.23406e-06
5.20182e-06
5.16871e-06
5.13487e-06
5.10049e-06
5.06276e-06
5.4528e-06
5.44144e-06
5.42826e-06
5.41331e-06
5.39663e-06
5.37826e-06
5.35826e-06
5.33669e-06
5.31359e-06
5.28906e-06
5.26314e-06
5.23593e-06
5.20749e-06
5.17791e-06
5.14729e-06
5.11571e-06
5.08328e-06
5.05011e-06
5.01641e-06
4.97967e-06
5.30591e-06
5.28794e-06
5.26836e-06
5.24724e-06
5.22464e-06
5.20062e-06
5.17525e-06
5.1486e-06
5.12075e-06
5.09179e-06
5.0618e-06
5.03086e-06
4.99909e-06
4.96659e-06
4.93355e-06
4.89778e-06
5.137e-06
5.11349e-06
5.08865e-06
5.06256e-06
5.03529e-06
5.00693e-06
4.97756e-06
4.94725e-06
4.91613e-06
4.88427e-06
4.85188e-06
4.81701e-06
1.10538e-05
1.12107e-05
1.08449e-05
1.0995e-05
1.06422e-05
1.07858e-05
1.04453e-05
1.0583e-05
1.06798e-05
1.02539e-05
1.0386e-05
1.04798e-05
1.00677e-05
1.01946e-05
1.02855e-05
1.03752e-05
9.88656e-06
1.00085e-05
1.00966e-05
1.01836e-05
9.71014e-06
9.82739e-06
9.91296e-06
9.99735e-06
9.53823e-06
9.6511e-06
9.73418e-06
9.81611e-06
9.89663e-06
9.37062e-06
9.47935e-06
9.56007e-06
9.63965e-06
9.71784e-06
9.20711e-06
9.31194e-06
9.3904e-06
9.46774e-06
9.54371e-06
9.04752e-06
9.14865e-06
9.22497e-06
9.30016e-06
9.37401e-06
8.89167e-06
8.98931e-06
9.06357e-06
9.13672e-06
9.20854e-06
8.7394e-06
8.83373e-06
8.90602e-06
8.97721e-06
9.0471e-06
8.59057e-06
8.68176e-06
8.75215e-06
8.82148e-06
8.88951e-06
8.95606e-06
8.44502e-06
8.53323e-06
8.60182e-06
8.66934e-06
8.7356e-06
8.8004e-06
8.30263e-06
8.388e-06
8.45485e-06
8.52065e-06
8.58521e-06
8.64833e-06
8.70981e-06
8.16327e-06
8.24594e-06
8.31112e-06
8.37527e-06
8.43819e-06
8.4997e-06
8.5596e-06
8.6177e-06
8.02681e-06
8.10691e-06
8.17049e-06
8.23305e-06
8.2944e-06
8.35437e-06
8.41275e-06
8.46937e-06
8.52403e-06
7.89315e-06
7.97081e-06
8.03284e-06
8.09387e-06
8.15371e-06
8.2122e-06
8.26912e-06
8.32432e-06
8.37759e-06
8.42877e-06
7.76219e-06
7.8375e-06
7.89805e-06
7.95761e-06
8.016e-06
8.07305e-06
8.12858e-06
8.18241e-06
8.23435e-06
8.28424e-06
7.63382e-06
7.7069e-06
7.76601e-06
7.82415e-06
7.88114e-06
7.93682e-06
7.991e-06
8.04351e-06
8.09418e-06
8.14283e-06
7.50795e-06
7.5789e-06
7.63662e-06
7.69339e-06
7.74904e-06
7.80339e-06
7.85627e-06
7.90751e-06
7.95695e-06
8.00441e-06
7.38449e-06
7.4534e-06
7.50978e-06
7.56523e-06
7.61958e-06
7.67265e-06
7.72428e-06
7.7743e-06
7.82254e-06
7.86886e-06
7.26336e-06
7.33031e-06
7.38541e-06
7.43958e-06
7.49267e-06
7.5445e-06
7.59492e-06
7.64376e-06
7.69087e-06
7.73608e-06
7.14448e-06
7.20955e-06
7.2634e-06
7.31634e-06
7.36821e-06
7.41885e-06
7.46811e-06
7.51581e-06
7.56181e-06
7.60595e-06
7.02777e-06
7.09105e-06
7.14368e-06
7.19543e-06
7.24612e-06
7.29561e-06
7.34374e-06
7.39034e-06
7.43527e-06
7.47838e-06
6.91316e-06
6.97471e-06
7.02618e-06
7.07677e-06
7.12633e-06
7.1747e-06
7.22173e-06
7.26727e-06
7.31117e-06
7.35328e-06
6.80059e-06
6.86048e-06
6.91081e-06
6.96028e-06
7.00874e-06
7.05603e-06
7.10201e-06
7.14652e-06
7.18942e-06
7.23057e-06
6.68999e-06
6.74829e-06
6.79751e-06
6.8459e-06
6.89329e-06
6.93953e-06
6.98449e-06
7.028e-06
7.06993e-06
7.11014e-06
6.58131e-06
6.63806e-06
6.68622e-06
6.73355e-06
6.7799e-06
6.82513e-06
6.8691e-06
6.91164e-06
6.95264e-06
6.99194e-06
6.47447e-06
6.52975e-06
6.57686e-06
6.62317e-06
6.66852e-06
6.71277e-06
6.75576e-06
6.79737e-06
6.83746e-06
6.87589e-06
1.10538e-05
1.08449e-05
1.06422e-05
1.04453e-05
1.02539e-05
1.00677e-05
9.88656e-06
9.71014e-06
9.53823e-06
9.37062e-06
9.20711e-06
9.04752e-06
8.89167e-06
8.7394e-06
8.59057e-06
8.44502e-06
8.30263e-06
8.16327e-06
8.02681e-06
7.89315e-06
7.76219e-06
7.63382e-06
7.50795e-06
7.38449e-06
7.26336e-06
7.14448e-06
7.02777e-06
6.91316e-06
6.80059e-06
6.68999e-06
6.58131e-06
6.47447e-06
1.12107e-05
1.0995e-05
1.07858e-05
1.0583e-05
1.0386e-05
1.01946e-05
1.00085e-05
9.82739e-06
9.6511e-06
9.47935e-06
9.31194e-06
9.14865e-06
8.98931e-06
8.83373e-06
8.68176e-06
8.53323e-06
8.388e-06
8.24594e-06
8.10691e-06
7.97081e-06
7.8375e-06
7.7069e-06
7.5789e-06
7.4534e-06
7.33031e-06
7.20955e-06
7.09104e-06
6.97471e-06
6.86048e-06
6.74829e-06
6.63806e-06
6.52974e-06
6.42328e-06
1.13178e-05
1.10984e-05
1.08859e-05
1.06798e-05
1.04798e-05
1.02855e-05
1.00966e-05
9.91296e-06
9.73418e-06
9.56007e-06
9.3904e-06
9.22497e-06
9.06356e-06
8.90602e-06
8.75215e-06
8.60181e-06
8.45485e-06
8.31112e-06
8.17049e-06
8.03284e-06
7.89805e-06
7.76601e-06
7.63662e-06
7.50978e-06
7.38541e-06
7.2634e-06
7.14368e-06
7.02618e-06
6.91081e-06
6.79751e-06
6.68622e-06
6.57686e-06
6.46938e-06
6.36373e-06
6.25985e-06
6.15768e-06
6.05719e-06
5.95832e-06
1.14236e-05
1.12007e-05
1.09848e-05
1.07754e-05
1.05724e-05
1.03752e-05
1.01836e-05
9.99735e-06
9.81611e-06
9.63965e-06
9.46774e-06
9.30016e-06
9.13671e-06
8.97721e-06
8.82147e-06
8.66934e-06
8.52065e-06
8.37527e-06
8.23305e-06
8.09387e-06
7.95761e-06
7.82415e-06
7.69339e-06
7.56523e-06
7.43958e-06
7.31634e-06
7.19543e-06
7.07677e-06
6.96028e-06
6.84589e-06
6.73355e-06
6.62317e-06
6.5147e-06
6.40808e-06
6.30326e-06
6.20018e-06
6.09879e-06
5.99905e-06
1.15279e-05
1.13014e-05
1.10821e-05
1.08696e-05
1.06635e-05
1.04635e-05
1.02692e-05
1.00803e-05
9.89663e-06
9.71784e-06
9.54371e-06
9.37401e-06
9.20854e-06
9.0471e-06
8.88951e-06
8.7356e-06
8.58521e-06
8.43819e-06
8.2944e-06
8.15371e-06
8.016e-06
7.88114e-06
7.74904e-06
7.61958e-06
7.49266e-06
7.36821e-06
7.24612e-06
7.12632e-06
7.00874e-06
6.89329e-06
6.7799e-06
6.66852e-06
6.55907e-06
6.45151e-06
6.34576e-06
6.24179e-06
6.13953e-06
6.03894e-06
1.16303e-05
1.14002e-05
1.11776e-05
1.09619e-05
1.07528e-05
1.055e-05
1.0353e-05
1.01616e-05
9.9755e-06
9.7944e-06
9.61807e-06
9.44628e-06
9.27882e-06
9.11547e-06
8.95605e-06
8.80039e-06
8.64833e-06
8.4997e-06
8.35437e-06
8.21219e-06
8.07305e-06
7.93682e-06
7.80339e-06
7.67265e-06
7.5445e-06
7.41885e-06
7.29561e-06
7.1747e-06
7.05603e-06
6.93953e-06
6.82513e-06
6.71276e-06
6.60236e-06
6.49387e-06
6.38722e-06
6.28237e-06
6.17925e-06
6.07783e-06
5.97806e-06
1.17305e-05
1.14969e-05
1.1271e-05
1.10522e-05
1.08401e-05
1.06345e-05
1.04349e-05
1.0241e-05
1.00525e-05
9.86909e-06
9.69061e-06
9.51676e-06
9.34733e-06
9.1821e-06
9.02089e-06
8.86352e-06
8.70981e-06
8.5596e-06
8.41275e-06
8.26912e-06
8.12858e-06
7.991e-06
7.85627e-06
7.72428e-06
7.59492e-06
7.4681e-06
7.34374e-06
7.22173e-06
7.10201e-06
6.98449e-06
6.86909e-06
6.75576e-06
6.64443e-06
6.53502e-06
6.42749e-06
6.32178e-06
6.21783e-06
6.1156e-06
6.01503e-06
1.18282e-05
1.15911e-05
1.13619e-05
1.114e-05
1.09251e-05
1.07167e-05
1.05145e-05
1.03181e-05
1.01273e-05
9.94167e-06
9.76107e-06
9.5852e-06
9.41385e-06
9.24678e-06
9.08382e-06
8.92476e-06
8.76944e-06
8.6177e-06
8.46937e-06
8.32431e-06
8.1824e-06
8.04351e-06
7.90751e-06
7.7743e-06
7.64376e-06
7.51581e-06
7.39034e-06
7.26727e-06
7.14652e-06
7.028e-06
6.91164e-06
6.79737e-06
6.68513e-06
6.57484e-06
6.46645e-06
6.3599e-06
6.25514e-06
6.15212e-06
6.05077e-06
1.19229e-05
1.16825e-05
1.14501e-05
1.12252e-05
1.10074e-05
1.07963e-05
1.05915e-05
1.03928e-05
1.01996e-05
1.00119e-05
9.82921e-06
9.65138e-06
9.47815e-06
9.3093e-06
9.14462e-06
8.98393e-06
8.82704e-06
8.67379e-06
8.52402e-06
8.37759e-06
8.23435e-06
8.09417e-06
7.95694e-06
7.82254e-06
7.69086e-06
7.56181e-06
7.43527e-06
7.31117e-06
7.18942e-06
7.06993e-06
6.95263e-06
6.83746e-06
6.72433e-06
6.61318e-06
6.50396e-06
6.39661e-06
6.29106e-06
6.18727e-06
6.08518e-06
1.20144e-05
1.17707e-05
1.15351e-05
1.13073e-05
1.10868e-05
1.08731e-05
1.06658e-05
1.04647e-05
1.02694e-05
1.00795e-05
9.89481e-06
9.71507e-06
9.54002e-06
9.36943e-06
9.20309e-06
9.04082e-06
8.88241e-06
8.72771e-06
8.57654e-06
8.42877e-06
8.28424e-06
8.14283e-06
8.00441e-06
7.86886e-06
7.73607e-06
7.60595e-06
7.47838e-06
7.35328e-06
7.23056e-06
7.11014e-06
6.99194e-06
6.87589e-06
6.76191e-06
6.64994e-06
6.53992e-06
6.43178e-06
6.32547e-06
6.22094e-06
6.11813e-06
1.21023e-05
1.18553e-05
1.16168e-05
1.13861e-05
1.11629e-05
1.09467e-05
1.0737e-05
1.05336e-05
1.03361e-05
1.01442e-05
9.95762e-06
9.77604e-06
9.59923e-06
9.42697e-06
9.25903e-06
9.09523e-06
8.93536e-06
8.77925e-06
8.62675e-06
8.47768e-06
8.33191e-06
8.18931e-06
8.04974e-06
7.91309e-06
7.77924e-06
7.64809e-06
7.51953e-06
7.39347e-06
7.26983e-06
7.14851e-06
7.02944e-06
6.91255e-06
6.79775e-06
6.68499e-06
6.5742e-06
6.46531e-06
6.35828e-06
6.25304e-06
6.14954e-06
1.19362e-05
1.16947e-05
1.14613e-05
1.12355e-05
1.10168e-05
1.08049e-05
1.05993e-05
1.03998e-05
1.02059e-05
1.00174e-05
9.83408e-06
9.65558e-06
9.48171e-06
9.31225e-06
9.14697e-06
8.9857e-06
8.82825e-06
8.67446e-06
8.52416e-06
8.37721e-06
8.23346e-06
8.0928e-06
7.95509e-06
7.82023e-06
7.68809e-06
7.55858e-06
7.43161e-06
7.30708e-06
7.18491e-06
7.06501e-06
6.94731e-06
6.83174e-06
6.71822e-06
6.60669e-06
6.4971e-06
6.38937e-06
6.28345e-06
6.1793e-06
1.17686e-05
1.15326e-05
1.13043e-05
1.10833e-05
1.08692e-05
1.06615e-05
1.046e-05
1.02643e-05
1.0074e-05
9.88897e-06
9.70887e-06
9.53347e-06
9.36254e-06
9.19587e-06
9.03326e-06
8.87454e-06
8.71952e-06
8.56804e-06
8.41997e-06
8.27514e-06
8.13343e-06
7.99472e-06
7.85889e-06
7.72582e-06
7.59542e-06
7.46758e-06
7.34221e-06
7.21922e-06
7.09854e-06
6.98008e-06
6.86377e-06
6.74953e-06
6.63731e-06
6.52704e-06
6.41865e-06
6.3121e-06
6.20733e-06
1.18381e-05
1.15996e-05
1.1369e-05
1.11458e-05
1.09296e-05
1.072e-05
1.05166e-05
1.03191e-05
1.01271e-05
9.94051e-06
9.75889e-06
9.58204e-06
9.40973e-06
9.24174e-06
9.07787e-06
8.91794e-06
8.76176e-06
8.60918e-06
8.46004e-06
8.31419e-06
8.1715e-06
8.03185e-06
7.8951e-06
7.76116e-06
7.62991e-06
7.50125e-06
7.37509e-06
7.25134e-06
7.12992e-06
7.01074e-06
6.89373e-06
6.77883e-06
6.66595e-06
6.55504e-06
6.44604e-06
6.33889e-06
6.23354e-06
1.16622e-05
1.14294e-05
1.12041e-05
1.09859e-05
1.07745e-05
1.05693e-05
1.03701e-05
1.01766e-05
9.9885e-06
9.80545e-06
9.62725e-06
9.45364e-06
9.28442e-06
9.11937e-06
8.95831e-06
8.80105e-06
8.64743e-06
8.4973e-06
8.35049e-06
8.20688e-06
8.06634e-06
7.92875e-06
7.79398e-06
7.66194e-06
7.53252e-06
7.40562e-06
7.28116e-06
7.15905e-06
7.0392e-06
6.92155e-06
6.80601e-06
6.69253e-06
6.58103e-06
6.47145e-06
6.36374e-06
6.25784e-06
1.172e-05
1.14852e-05
1.12579e-05
1.10379e-05
1.08248e-05
1.0618e-05
1.04173e-05
1.02223e-05
1.00328e-05
9.84839e-06
9.66893e-06
9.49412e-06
9.32375e-06
9.15761e-06
8.9955e-06
8.83724e-06
8.68266e-06
8.5316e-06
8.38391e-06
8.23945e-06
8.09809e-06
7.95971e-06
7.82419e-06
7.69141e-06
7.56128e-06
7.43371e-06
7.30858e-06
7.18583e-06
7.06537e-06
6.94712e-06
6.831e-06
6.71696e-06
6.60491e-06
6.49481e-06
6.38658e-06
6.28018e-06
1.15361e-05
1.13071e-05
1.10854e-05
1.08706e-05
1.06624e-05
1.04602e-05
1.02639e-05
1.00731e-05
9.88754e-06
9.70692e-06
9.53101e-06
9.35959e-06
9.19244e-06
9.02937e-06
8.87019e-06
8.71473e-06
8.56283e-06
8.41433e-06
8.2691e-06
8.12699e-06
7.98789e-06
7.85167e-06
7.71823e-06
7.58745e-06
7.45925e-06
7.33352e-06
7.21019e-06
7.08916e-06
6.97037e-06
6.85372e-06
6.73916e-06
6.62662e-06
6.51603e-06
6.40734e-06
6.30048e-06
1.13514e-05
1.11282e-05
1.0912e-05
1.07023e-05
1.04989e-05
1.03014e-05
1.01094e-05
9.92274e-06
9.74107e-06
9.56417e-06
9.3918e-06
9.22374e-06
9.05981e-06
8.8998e-06
8.74355e-06
8.59088e-06
8.44165e-06
8.29571e-06
8.15293e-06
8.01318e-06
7.87634e-06
7.74229e-06
7.61093e-06
7.48217e-06
7.3559e-06
7.23204e-06
7.11051e-06
6.99122e-06
6.8741e-06
6.75908e-06
6.64609e-06
6.53506e-06
6.42595e-06
6.31868e-06
1.13905e-05
1.1166e-05
1.09485e-05
1.07377e-05
1.05331e-05
1.03345e-05
1.01415e-05
9.95385e-06
9.77126e-06
9.59347e-06
9.42026e-06
9.2514e-06
9.08669e-06
8.92595e-06
8.76899e-06
8.61565e-06
8.46577e-06
8.31921e-06
8.17583e-06
8.0355e-06
7.89811e-06
7.76353e-06
7.63165e-06
7.50239e-06
7.37565e-06
7.25132e-06
7.12934e-06
7.00961e-06
6.89207e-06
6.77664e-06
6.66326e-06
6.55185e-06
6.44236e-06
6.33473e-06
1.14244e-05
1.11987e-05
1.09801e-05
1.07682e-05
1.05627e-05
1.03631e-05
1.01693e-05
9.98076e-06
9.79736e-06
9.6188e-06
9.44486e-06
9.2753e-06
9.10993e-06
8.94855e-06
8.79098e-06
8.63705e-06
8.48661e-06
8.33951e-06
8.19561e-06
8.05478e-06
7.91691e-06
7.78186e-06
7.64954e-06
7.51985e-06
7.39269e-06
7.26796e-06
7.14559e-06
7.02549e-06
6.90758e-06
6.7918e-06
6.67807e-06
6.56633e-06
6.45652e-06
6.34857e-06
1.14529e-05
1.12262e-05
1.10067e-05
1.07939e-05
1.05875e-05
1.03872e-05
1.01926e-05
1.00034e-05
9.81927e-06
9.64007e-06
9.46551e-06
9.29536e-06
9.12943e-06
8.96751e-06
8.80942e-06
8.655e-06
8.50409e-06
8.35654e-06
8.2122e-06
8.07095e-06
7.93267e-06
7.79724e-06
7.66455e-06
7.53449e-06
7.40698e-06
7.28191e-06
7.15921e-06
7.0388e-06
6.92058e-06
6.8045e-06
6.69049e-06
6.57847e-06
6.46838e-06
6.36017e-06
1.12484e-05
1.10281e-05
1.08146e-05
1.06076e-05
1.04066e-05
1.02113e-05
1.00215e-05
9.83691e-06
9.65718e-06
9.48212e-06
9.3115e-06
9.14511e-06
8.98276e-06
8.82426e-06
8.66944e-06
8.51815e-06
8.37023e-06
8.22554e-06
8.08396e-06
7.94535e-06
7.8096e-06
7.67661e-06
7.54626e-06
7.41846e-06
7.29313e-06
7.17017e-06
7.04949e-06
6.93103e-06
6.81471e-06
6.70047e-06
6.58822e-06
6.47792e-06
6.36949e-06
1.12651e-05
1.10442e-05
1.08302e-05
1.06226e-05
1.04212e-05
1.02255e-05
1.00352e-05
9.8502e-06
9.67008e-06
9.49464e-06
9.32366e-06
9.15693e-06
8.99425e-06
8.83544e-06
8.68032e-06
8.52874e-06
8.38054e-06
8.23559e-06
8.09375e-06
7.95489e-06
7.81891e-06
7.68569e-06
7.55512e-06
7.42711e-06
7.30157e-06
7.17841e-06
7.05755e-06
6.9389e-06
6.8224e-06
6.70798e-06
6.59556e-06
6.48509e-06
6.37651e-06
1.1055e-05
1.08406e-05
1.06327e-05
1.04309e-05
1.02349e-05
1.00444e-05
9.85908e-06
9.6787e-06
9.50302e-06
9.3318e-06
9.16484e-06
9.00194e-06
8.84291e-06
8.68759e-06
8.53582e-06
8.38744e-06
8.24231e-06
8.10029e-06
7.96128e-06
7.82513e-06
7.69176e-06
7.56104e-06
7.43289e-06
7.30722e-06
7.18392e-06
7.06293e-06
6.94416e-06
6.82754e-06
6.713e-06
6.60047e-06
6.48989e-06
6.3812e-06
1.10604e-05
1.08459e-05
1.06378e-05
1.04358e-05
1.02397e-05
1.0049e-05
9.86354e-06
9.68302e-06
9.50721e-06
9.33587e-06
9.1688e-06
9.00579e-06
8.84666e-06
8.69124e-06
8.53937e-06
8.39089e-06
8.24567e-06
8.10357e-06
7.96447e-06
7.82825e-06
7.6948e-06
7.56401e-06
7.43579e-06
7.31004e-06
7.18668e-06
7.06562e-06
6.94679e-06
6.83011e-06
6.71551e-06
6.60293e-06
6.49229e-06
6.38355e-06
1.08459e-05
1.06378e-05
1.04358e-05
1.02397e-05
1.0049e-05
9.86354e-06
9.68302e-06
9.50721e-06
9.33587e-06
9.1688e-06
9.00579e-06
8.84666e-06
8.69124e-06
8.53937e-06
8.39089e-06
8.24567e-06
8.10357e-06
7.96447e-06
7.82825e-06
7.6948e-06
7.56401e-06
7.43579e-06
7.31004e-06
7.18668e-06
7.06562e-06
6.94679e-06
6.83011e-06
6.71551e-06
6.60293e-06
6.49229e-06
6.38355e-06
1.08406e-05
1.06327e-05
1.04309e-05
1.02349e-05
1.00444e-05
9.85909e-06
9.6787e-06
9.50302e-06
9.3318e-06
9.16484e-06
9.00194e-06
8.84291e-06
8.68759e-06
8.53582e-06
8.38744e-06
8.24231e-06
8.10029e-06
7.96128e-06
7.82513e-06
7.69176e-06
7.56104e-06
7.43289e-06
7.30722e-06
7.18392e-06
7.06293e-06
6.94416e-06
6.82754e-06
6.713e-06
6.60047e-06
6.48989e-06
6.3812e-06
1.08302e-05
1.06226e-05
1.04212e-05
1.02255e-05
1.00352e-05
9.8502e-06
9.67008e-06
9.49464e-06
9.32366e-06
9.15693e-06
8.99425e-06
8.83544e-06
8.68032e-06
8.52874e-06
8.38054e-06
8.23559e-06
8.09375e-06
7.95489e-06
7.81891e-06
7.68569e-06
7.55512e-06
7.42711e-06
7.30157e-06
7.17841e-06
7.05755e-06
6.9389e-06
6.8224e-06
6.70798e-06
6.59556e-06
6.48509e-06
6.37651e-06
1.08146e-05
1.06076e-05
1.04066e-05
1.02113e-05
1.00215e-05
9.83691e-06
9.65718e-06
9.48212e-06
9.3115e-06
9.14512e-06
8.98276e-06
8.82426e-06
8.66944e-06
8.51815e-06
8.37023e-06
8.22554e-06
8.08396e-06
7.94535e-06
7.8096e-06
7.67661e-06
7.54626e-06
7.41847e-06
7.29313e-06
7.17017e-06
7.04949e-06
6.93103e-06
6.81471e-06
6.70047e-06
6.58822e-06
6.47792e-06
6.36949e-06
1.07939e-05
1.05875e-05
1.03872e-05
1.01926e-05
1.00034e-05
9.81927e-06
9.64007e-06
9.46551e-06
9.29536e-06
9.12943e-06
8.96751e-06
8.80942e-06
8.655e-06
8.50409e-06
8.35654e-06
8.2122e-06
8.07095e-06
7.93267e-06
7.79724e-06
7.66455e-06
7.53449e-06
7.40698e-06
7.28191e-06
7.15921e-06
7.0388e-06
6.92058e-06
6.8045e-06
6.69049e-06
6.57847e-06
6.46838e-06
6.36017e-06
1.07682e-05
1.05627e-05
1.03631e-05
1.01693e-05
9.98076e-06
9.79736e-06
9.6188e-06
9.44486e-06
9.2753e-06
9.10993e-06
8.94855e-06
8.79098e-06
8.63705e-06
8.48661e-06
8.33951e-06
8.19561e-06
8.05478e-06
7.91691e-06
7.78186e-06
7.64955e-06
7.51985e-06
7.39269e-06
7.26796e-06
7.14559e-06
7.02549e-06
6.90758e-06
6.7918e-06
6.67807e-06
6.56633e-06
6.45652e-06
6.34857e-06
1.07377e-05
1.05331e-05
1.03345e-05
1.01415e-05
9.95385e-06
9.77126e-06
9.59347e-06
9.42026e-06
9.2514e-06
9.0867e-06
8.92595e-06
8.76899e-06
8.61565e-06
8.46577e-06
8.31921e-06
8.17583e-06
8.0355e-06
7.89811e-06
7.76353e-06
7.63165e-06
7.50239e-06
7.37565e-06
7.25132e-06
7.12934e-06
7.00961e-06
6.89207e-06
6.77664e-06
6.66326e-06
6.55185e-06
6.44236e-06
6.33473e-06
1.07023e-05
1.04989e-05
1.03014e-05
1.01094e-05
9.92274e-06
9.74107e-06
9.56417e-06
9.3918e-06
9.22375e-06
9.05981e-06
8.8998e-06
8.74355e-06
8.59088e-06
8.44165e-06
8.29572e-06
8.15293e-06
8.01318e-06
7.87634e-06
7.74229e-06
7.61093e-06
7.48217e-06
7.3559e-06
7.23204e-06
7.11051e-06
6.99122e-06
6.8741e-06
6.75908e-06
6.64609e-06
6.53506e-06
6.42595e-06
6.31868e-06
1.06624e-05
1.04602e-05
1.02639e-05
1.00731e-05
9.88754e-06
9.70692e-06
9.53101e-06
9.35959e-06
9.19244e-06
9.02937e-06
8.8702e-06
8.71474e-06
8.56283e-06
8.41433e-06
8.2691e-06
8.12699e-06
7.98789e-06
7.85167e-06
7.71823e-06
7.58745e-06
7.45925e-06
7.33352e-06
7.21019e-06
7.08916e-06
6.97037e-06
6.85372e-06
6.73916e-06
6.62662e-06
6.51603e-06
6.40734e-06
6.30048e-06
1.0618e-05
1.04173e-05
1.02223e-05
1.00328e-05
9.8484e-06
9.66893e-06
9.49412e-06
9.32375e-06
9.15761e-06
8.9955e-06
8.83724e-06
8.68266e-06
8.5316e-06
8.38391e-06
8.23945e-06
8.0981e-06
7.95971e-06
7.82419e-06
7.69141e-06
7.56128e-06
7.43371e-06
7.30858e-06
7.18583e-06
7.06537e-06
6.94712e-06
6.831e-06
6.71696e-06
6.60491e-06
6.49481e-06
6.38658e-06
6.28018e-06
1.05693e-05
1.03701e-05
1.01766e-05
9.9885e-06
9.80546e-06
9.62725e-06
9.45364e-06
9.28442e-06
9.11937e-06
8.95831e-06
8.80105e-06
8.64743e-06
8.4973e-06
8.35049e-06
8.20689e-06
8.06635e-06
7.92875e-06
7.79398e-06
7.66194e-06
7.53252e-06
7.40562e-06
7.28116e-06
7.15905e-06
7.0392e-06
6.92155e-06
6.80601e-06
6.69253e-06
6.58103e-06
6.47145e-06
6.36374e-06