/*--------------------------------*- C++ -*----------------------------------*\
  =========                 |
  \\      /  F ield         | OpenFOAM: The Open Source CFD Toolbox
   \\    /   O peration     | Website:  https://openfoam.org
    \\  /    A nd           | Version:  7
     \\/     M anipulation  |
\*---------------------------------------------------------------------------*/
FoamFile
{
    version     2.0;
    format      ascii;
    class       volScalarField;
    location    "68000";
    object      nut;
}
// * * * * * * * * * * * * * * * * * * * * * * * * * * * * * * * * * * * * * //

dimensions      [0 2 -1 0 0 0 0];

internalField   nonuniform List<scalar> 
4814
(
3.0689e-06
3.08503e-06
3.09952e-06
3.11219e-06
2.60161e-06
2.63298e-06
2.66281e-06
2.69202e-06
2.72051e-06
2.74826e-06
2.77517e-06
2.80096e-06
2.82578e-06
2.8491e-06
2.87132e-06
2.89266e-06
2.91251e-06
2.93106e-06
2.94835e-06
2.96413e-06
2.97825e-06
2.99061e-06
3.00123e-06
3.01055e-06
3.01824e-06
3.0245e-06
3.02946e-06
3.03269e-06
3.03446e-06
3.03455e-06
3.03287e-06
3.02974e-06
3.02536e-06
3.01887e-06
3.0111e-06
3.00175e-06
2.99091e-06
2.97844e-06
2.49122e-06
2.52173e-06
2.55075e-06
2.57916e-06
2.60689e-06
2.63393e-06
2.66017e-06
2.68532e-06
2.70949e-06
2.73219e-06
2.75381e-06
2.77464e-06
2.79404e-06
2.8121e-06
2.82898e-06
2.84441e-06
2.85812e-06
2.87018e-06
2.88057e-06
2.88969e-06
2.89713e-06
2.9033e-06
2.90814e-06
2.91127e-06
2.91305e-06
2.91313e-06
2.91147e-06
2.90841e-06
2.90416e-06
2.89776e-06
2.89012e-06
2.88103e-06
2.87047e-06
2.85831e-06
2.84464e-06
2.82953e-06
2.8129e-06
2.79457e-06
2.7748e-06
2.75421e-06
2.73227e-06
2.38223e-06
2.41186e-06
2.44008e-06
2.46766e-06
2.49462e-06
2.52096e-06
2.54651e-06
2.571e-06
2.59451e-06
2.61655e-06
2.63759e-06
2.65787e-06
2.67684e-06
2.69439e-06
2.71083e-06
2.72591e-06
2.7392e-06
2.75098e-06
2.76115e-06
2.77005e-06
2.77723e-06
2.78331e-06
2.78802e-06
2.79106e-06
2.7928e-06
2.7929e-06
2.79127e-06
2.7883e-06
2.78415e-06
2.77786e-06
2.77036e-06
2.76152e-06
2.75123e-06
2.73942e-06
2.72611e-06
2.71137e-06
2.69517e-06
2.67732e-06
2.65806e-06
2.63797e-06
2.6166e-06
2.59389e-06
2.57028e-06
2.54605e-06
2.27469e-06
2.30344e-06
2.33085e-06
2.35761e-06
2.38378e-06
2.4094e-06
2.43424e-06
2.45805e-06
2.4809e-06
2.50228e-06
2.52274e-06
2.54244e-06
2.56099e-06
2.57799e-06
2.59398e-06
2.6087e-06
2.6216e-06
2.6331e-06
2.64302e-06
2.65168e-06
2.65863e-06
2.66461e-06
2.66919e-06
2.67214e-06
2.67381e-06
2.67393e-06
2.67236e-06
2.66946e-06
2.6654e-06
2.65923e-06
2.65191e-06
2.64328e-06
2.6333e-06
2.62183e-06
2.60888e-06
2.59454e-06
2.57876e-06
2.56139e-06
2.54267e-06
2.52309e-06
2.50229e-06
2.48026e-06
2.45731e-06
2.43378e-06
2.16868e-06
2.19653e-06
2.22313e-06
2.24907e-06
2.27445e-06
2.29933e-06
2.32344e-06
2.34657e-06
2.36872e-06
2.38947e-06
2.40933e-06
2.42844e-06
2.44653e-06
2.46298e-06
2.47851e-06
2.49286e-06
2.50539e-06
2.51662e-06
2.52626e-06
2.53469e-06
2.54139e-06
2.54724e-06
2.55169e-06
2.55457e-06
2.55618e-06
2.55628e-06
2.55481e-06
2.55196e-06
2.54798e-06
2.54197e-06
2.53484e-06
2.52642e-06
2.51673e-06
2.5056e-06
2.49306e-06
2.47909e-06
2.46376e-06
2.44688e-06
2.42871e-06
2.40963e-06
2.38944e-06
2.36808e-06
2.3458e-06
2.32296e-06
2.06427e-06
2.09123e-06
2.11699e-06
2.14212e-06
2.16669e-06
2.19081e-06
2.21418e-06
2.2366e-06
2.25805e-06
2.27816e-06
2.29743e-06
2.31595e-06
2.33355e-06
2.34945e-06
2.36453e-06
2.37847e-06
2.39063e-06
2.40159e-06
2.41094e-06
2.41914e-06
2.42561e-06
2.43132e-06
2.43562e-06
2.43843e-06
2.43997e-06
2.44005e-06
2.43867e-06
2.43591e-06
2.43199e-06
2.42617e-06
2.41923e-06
2.41103e-06
2.40161e-06
2.39084e-06
2.37869e-06
2.3651e-06
2.35024e-06
2.33385e-06
2.31626e-06
2.29769e-06
2.27811e-06
2.25744e-06
2.23585e-06
2.2137e-06
1.96156e-06
1.98759e-06
2.01251e-06
2.03683e-06
2.06057e-06
2.08393e-06
2.10655e-06
2.12823e-06
2.14899e-06
2.16844e-06
2.18711e-06
2.20506e-06
2.22212e-06
2.2375e-06
2.25211e-06
2.26563e-06
2.27742e-06
2.28809e-06
2.29713e-06
2.30509e-06
2.31135e-06
2.3169e-06
2.32106e-06
2.3238e-06
2.32527e-06
2.32531e-06
2.32405e-06
2.32137e-06
2.31751e-06
2.31189e-06
2.30516e-06
2.29718e-06
2.28804e-06
2.27761e-06
2.26587e-06
2.25267e-06
2.23829e-06
2.22237e-06
2.20537e-06
2.18735e-06
2.1684e-06
2.14839e-06
2.12751e-06
2.10607e-06
2.08376e-06
1.8606e-06
1.88569e-06
1.90976e-06
1.93327e-06
1.95618e-06
1.97876e-06
2.0006e-06
2.02154e-06
2.04161e-06
2.06039e-06
2.07846e-06
2.09582e-06
2.11234e-06
2.1272e-06
2.14132e-06
2.15442e-06
2.16582e-06
2.17619e-06
2.18495e-06
2.19265e-06
2.1987e-06
2.20408e-06
2.20809e-06
2.21076e-06
2.21216e-06
2.21219e-06
2.21101e-06
2.20842e-06
2.20464e-06
2.19922e-06
2.1927e-06
2.18496e-06
2.17609e-06
2.16602e-06
2.15468e-06
2.14186e-06
2.12797e-06
2.11256e-06
2.09612e-06
2.07868e-06
2.06037e-06
2.04102e-06
2.02086e-06
2.00015e-06
1.97855e-06
1.76146e-06
1.78561e-06
1.80881e-06
1.8315e-06
1.85359e-06
1.87536e-06
1.89642e-06
1.91663e-06
1.93598e-06
1.95408e-06
1.97157e-06
1.98832e-06
2.00427e-06
2.01864e-06
2.03225e-06
2.04492e-06
2.05593e-06
2.06599e-06
2.07445e-06
2.08191e-06
2.08775e-06
2.09294e-06
2.09681e-06
2.09938e-06
2.10075e-06
2.10076e-06
2.09965e-06
2.09716e-06
2.09345e-06
2.08824e-06
2.08193e-06
2.07444e-06
2.06587e-06
2.05613e-06
2.04518e-06
2.03276e-06
2.01937e-06
2.00449e-06
1.98862e-06
1.97176e-06
1.95411e-06
1.93543e-06
1.91599e-06
1.89599e-06
1.87514e-06
1.66423e-06
1.68744e-06
1.70977e-06
1.73162e-06
1.75286e-06
1.77382e-06
1.7941e-06
1.81355e-06
1.83219e-06
1.84961e-06
1.86651e-06
1.88264e-06
1.89802e-06
1.9119e-06
1.92498e-06
1.93721e-06
1.94786e-06
1.95756e-06
1.96573e-06
1.97296e-06
1.97859e-06
1.98356e-06
1.9873e-06
1.98979e-06
1.99109e-06
1.99111e-06
1.99006e-06
1.98768e-06
1.98404e-06
1.97904e-06
1.97294e-06
1.96572e-06
1.95744e-06
1.94804e-06
1.93748e-06
1.92546e-06
1.91257e-06
1.89824e-06
1.88293e-06
1.86667e-06
1.84969e-06
1.83169e-06
1.81296e-06
1.79369e-06
1.7736e-06
1.56897e-06
1.59126e-06
1.61269e-06
1.63371e-06
1.6541e-06
1.67422e-06
1.69372e-06
1.71241e-06
1.73032e-06
1.74708e-06
1.76338e-06
1.77887e-06
1.79368e-06
1.80706e-06
1.81961e-06
1.83141e-06
1.84167e-06
1.851e-06
1.8589e-06
1.86588e-06
1.87129e-06
1.87606e-06
1.87966e-06
1.88207e-06
1.88331e-06
1.88334e-06
1.88232e-06
1.88005e-06
1.8765e-06
1.87171e-06
1.86583e-06
1.85887e-06
1.85088e-06
1.84183e-06
1.83165e-06
1.82006e-06
1.80766e-06
1.7939e-06
1.77914e-06
1.7635e-06
1.74719e-06
1.72987e-06
1.71187e-06
1.69333e-06
1.47577e-06
1.49712e-06
1.51768e-06
1.53783e-06
1.55737e-06
1.57664e-06
1.59536e-06
1.61328e-06
1.63046e-06
1.64656e-06
1.66224e-06
1.6771e-06
1.69134e-06
1.70422e-06
1.71624e-06
1.72758e-06
1.73748e-06
1.74642e-06
1.75403e-06
1.76075e-06
1.76596e-06
1.77052e-06
1.77399e-06
1.77631e-06
1.7775e-06
1.77753e-06
1.77655e-06
1.77436e-06
1.77092e-06
1.76636e-06
1.76068e-06
1.75398e-06
1.74628e-06
1.7376e-06
1.7278e-06
1.71665e-06
1.70474e-06
1.69154e-06
1.67734e-06
1.66234e-06
1.64671e-06
1.63006e-06
1.6128e-06
1.59499e-06
1.38471e-06
1.40514e-06
1.4248e-06
1.44409e-06
1.46277e-06
1.48119e-06
1.49911e-06
1.51625e-06
1.53272e-06
1.54816e-06
1.56319e-06
1.57743e-06
1.59107e-06
1.60345e-06
1.61495e-06
1.62583e-06
1.63534e-06
1.64391e-06
1.65123e-06
1.65767e-06
1.6627e-06
1.66704e-06
1.67038e-06
1.67262e-06
1.67375e-06
1.67378e-06
1.67285e-06
1.67072e-06
1.66741e-06
1.66307e-06
1.65759e-06
1.65115e-06
1.64376e-06
1.63545e-06
1.62602e-06
1.61534e-06
1.60391e-06
1.59127e-06
1.57764e-06
1.56329e-06
1.54832e-06
1.53235e-06
1.51582e-06
1.49876e-06
1.29589e-06
1.31538e-06
1.33414e-06
1.35256e-06
1.37038e-06
1.38795e-06
1.40506e-06
1.42144e-06
1.43718e-06
1.45195e-06
1.46632e-06
1.47995e-06
1.49299e-06
1.50486e-06
1.51584e-06
1.52625e-06
1.53536e-06
1.54356e-06
1.55059e-06
1.55674e-06
1.56159e-06
1.56571e-06
1.56893e-06
1.57108e-06
1.57216e-06
1.57218e-06
1.5713e-06
1.56924e-06
1.56606e-06
1.56193e-06
1.55666e-06
1.55049e-06
1.5434e-06
1.53546e-06
1.52642e-06
1.51621e-06
1.50525e-06
1.49318e-06
1.48014e-06
1.46644e-06
1.45211e-06
1.43686e-06
1.42106e-06
1.40474e-06
1.20938e-06
1.22793e-06
1.24579e-06
1.26334e-06
1.28031e-06
1.29701e-06
1.3133e-06
1.32891e-06
1.34394e-06
1.35804e-06
1.37172e-06
1.38476e-06
1.39719e-06
1.40855e-06
1.419e-06
1.42894e-06
1.43764e-06
1.44547e-06
1.4522e-06
1.45807e-06
1.46273e-06
1.46664e-06
1.46972e-06
1.47179e-06
1.47282e-06
1.47285e-06
1.47201e-06
1.47e-06
1.46696e-06
1.46304e-06
1.458e-06
1.45209e-06
1.44532e-06
1.43773e-06
1.42909e-06
1.41936e-06
1.40887e-06
1.39737e-06
1.38493e-06
1.37186e-06
1.3582e-06
1.34365e-06
1.32859e-06
1.31303e-06
1.12527e-06
1.14286e-06
1.15984e-06
1.17651e-06
1.19262e-06
1.20847e-06
1.22394e-06
1.23878e-06
1.25308e-06
1.2665e-06
1.27952e-06
1.29194e-06
1.30376e-06
1.3146e-06
1.32454e-06
1.334e-06
1.34229e-06
1.34975e-06
1.35616e-06
1.36176e-06
1.36623e-06
1.36993e-06
1.37287e-06
1.37485e-06
1.37585e-06
1.37587e-06
1.37507e-06
1.37311e-06
1.37024e-06
1.36651e-06
1.3617e-06
1.35606e-06
1.34959e-06
1.34236e-06
1.33411e-06
1.32489e-06
1.31487e-06
1.30394e-06
1.2921e-06
1.27966e-06
1.26666e-06
1.25283e-06
1.23851e-06
1.22371e-06
1.04364e-06
1.06029e-06
1.07636e-06
1.09215e-06
1.10743e-06
1.12242e-06
1.13707e-06
1.15115e-06
1.1647e-06
1.17745e-06
1.1898e-06
1.2016e-06
1.21281e-06
1.22313e-06
1.23255e-06
1.24153e-06
1.24941e-06
1.2565e-06
1.2626e-06
1.26791e-06
1.27218e-06
1.27569e-06
1.27849e-06
1.28038e-06
1.28132e-06
1.28134e-06
1.28058e-06
1.27869e-06
1.27597e-06
1.27245e-06
1.26786e-06
1.26251e-06
1.25634e-06
1.24946e-06
1.24161e-06
1.23288e-06
1.22335e-06
1.21299e-06
1.20174e-06
1.18994e-06
1.1776e-06
1.16449e-06
1.15091e-06
1.13688e-06
9.64574e-07
9.80267e-07
9.9546e-07
1.01036e-06
1.02481e-06
1.03895e-06
1.05279e-06
1.0661e-06
1.07891e-06
1.09097e-06
1.10266e-06
1.11384e-06
1.12442e-06
1.13422e-06
1.14314e-06
1.15163e-06
1.15911e-06
1.16581e-06
1.1716e-06
1.17664e-06
1.1807e-06
1.18403e-06
1.18668e-06
1.18846e-06
1.18936e-06
1.18938e-06
1.18865e-06
1.18684e-06
1.18429e-06
1.18096e-06
1.1766e-06
1.17152e-06
1.16567e-06
1.15914e-06
1.1517e-06
1.14345e-06
1.13441e-06
1.12462e-06
1.11396e-06
1.1028e-06
1.09112e-06
1.07872e-06
1.06589e-06
1.05262e-06
8.88132e-07
9.02885e-07
9.17195e-07
9.31224e-07
9.44844e-07
9.58148e-07
9.71183e-07
9.83722e-07
9.95786e-07
1.00717e-06
1.01821e-06
1.02875e-06
1.03873e-06
1.04799e-06
1.05641e-06
1.06441e-06
1.07149e-06
1.07781e-06
1.08327e-06
1.08805e-06
1.09189e-06
1.09504e-06
1.09754e-06
1.09922e-06
1.10008e-06
1.10011e-06
1.09941e-06
1.09768e-06
1.09527e-06
1.09214e-06
1.08803e-06
1.08321e-06
1.07768e-06
1.0715e-06
1.06447e-06
1.05669e-06
1.04815e-06
1.03892e-06
1.02886e-06
1.01834e-06
1.00733e-06
9.95624e-07
9.83538e-07
9.71028e-07
8.1431e-07
8.28155e-07
8.41605e-07
8.54795e-07
8.67593e-07
8.80079e-07
8.92319e-07
9.04099e-07
9.15426e-07
9.26132e-07
9.3653e-07
9.46438e-07
9.55813e-07
9.64535e-07
9.72452e-07
9.79976e-07
9.86646e-07
9.92601e-07
9.97734e-07
1.00225e-06
1.00587e-06
1.00884e-06
1.01119e-06
1.01276e-06
1.01357e-06
1.01361e-06
1.01294e-06
1.01132e-06
1.00904e-06
1.0061e-06
1.00224e-06
9.9769e-07
9.92467e-07
9.86649e-07
9.80029e-07
9.72719e-07
9.64666e-07
9.55991e-07
9.46533e-07
9.36642e-07
9.26301e-07
9.15283e-07
9.03927e-07
8.92174e-07
7.42783e-07
7.55833e-07
7.68546e-07
7.81012e-07
7.93025e-07
8.0472e-07
8.16197e-07
8.27238e-07
8.3786e-07
8.47913e-07
8.57688e-07
8.66969e-07
8.75755e-07
8.83937e-07
8.91356e-07
8.98411e-07
9.04679e-07
9.1026e-07
9.15079e-07
9.19323e-07
9.22732e-07
9.25524e-07
9.27724e-07
9.29189e-07
9.2996e-07
9.29992e-07
9.29359e-07
9.27836e-07
9.25704e-07
9.22942e-07
9.19321e-07
9.15052e-07
9.10136e-07
9.04663e-07
8.98454e-07
8.91605e-07
8.84048e-07
8.75922e-07
8.67051e-07
8.57786e-07
8.48081e-07
8.37734e-07
8.27083e-07
8.16056e-07
8.04671e-07
6.70443e-07
6.83644e-07
6.96555e-07
7.09228e-07
7.2066e-07
7.31667e-07
7.42477e-07
7.52881e-07
7.62895e-07
7.72387e-07
7.81617e-07
7.90314e-07
7.98522e-07
8.06183e-07
8.13117e-07
8.19719e-07
8.25596e-07
8.30816e-07
8.35339e-07
8.39317e-07
8.42516e-07
8.45137e-07
8.47186e-07
8.48553e-07
8.49284e-07
8.49318e-07
8.48713e-07
8.47296e-07
8.45299e-07
8.42703e-07
8.39327e-07
8.35319e-07
8.3071e-07
8.25572e-07
8.19752e-07
8.13349e-07
8.06281e-07
7.98685e-07
7.90383e-07
7.81707e-07
7.72544e-07
7.62784e-07
7.52735e-07
7.42344e-07
7.31629e-07
5.98214e-07
6.10472e-07
6.22484e-07
6.34274e-07
6.45741e-07
6.56917e-07
6.67884e-07
6.78441e-07
6.88616e-07
6.9827e-07
7.07632e-07
7.15948e-07
7.23656e-07
7.30858e-07
7.37371e-07
7.4357e-07
7.49108e-07
7.54012e-07
7.58286e-07
7.62028e-07
7.65046e-07
7.6752e-07
7.69438e-07
7.70727e-07
7.71422e-07
7.71452e-07
7.70876e-07
7.69547e-07
7.67666e-07
7.65219e-07
7.62047e-07
7.58274e-07
7.53924e-07
7.49083e-07
7.436e-07
7.37579e-07
7.30946e-07
7.23808e-07
7.16011e-07
7.07706e-07
6.98392e-07
6.88504e-07
6.783e-07
6.6776e-07
6.56897e-07
5.29194e-07
5.40499e-07
5.51596e-07
5.62487e-07
5.73098e-07
5.83443e-07
5.93603e-07
6.03386e-07
6.12826e-07
6.21787e-07
6.30479e-07
6.38716e-07
6.46509e-07
6.53788e-07
6.60404e-07
6.66666e-07
6.72278e-07
6.77253e-07
6.81603e-07
6.85399e-07
6.88473e-07
6.91002e-07
6.92938e-07
6.94248e-07
6.94948e-07
6.94969e-07
6.94378e-07
6.93044e-07
6.91132e-07
6.88638e-07
6.85422e-07
6.81602e-07
6.77188e-07
6.72258e-07
6.66693e-07
6.60575e-07
6.53873e-07
6.46634e-07
6.3877e-07
6.30548e-07
6.21894e-07
6.12718e-07
6.03257e-07
5.93492e-07
5.83426e-07
4.63658e-07
4.74e-07
4.84165e-07
4.94147e-07
5.03884e-07
5.13383e-07
5.22722e-07
5.31718e-07
5.40409e-07
5.48667e-07
5.56677e-07
5.6427e-07
5.71466e-07
5.78184e-07
5.84296e-07
5.90078e-07
5.95269e-07
5.99868e-07
6.03899e-07
6.07414e-07
6.10257e-07
6.126e-07
6.14388e-07
6.15602e-07
6.16257e-07
6.16269e-07
6.15719e-07
6.14491e-07
6.12715e-07
6.10409e-07
6.07433e-07
6.03897e-07
5.99811e-07
5.95248e-07
5.90098e-07
5.84446e-07
5.78262e-07
5.71579e-07
5.64323e-07
5.56741e-07
5.48761e-07
5.4031e-07
5.316e-07
5.22624e-07
4.01895e-07
4.11264e-07
4.20487e-07
4.2955e-07
4.38401e-07
4.47043e-07
4.55552e-07
4.63749e-07
4.71679e-07
4.79221e-07
4.86537e-07
4.93475e-07
5.00061e-07
5.06209e-07
5.11806e-07
5.17105e-07
5.21862e-07
5.26082e-07
5.29782e-07
5.33011e-07
5.35621e-07
5.3777e-07
5.39411e-07
5.40528e-07
5.41132e-07
5.4114e-07
5.40633e-07
5.3951e-07
5.37874e-07
5.35757e-07
5.33026e-07
5.29783e-07
5.26031e-07
5.21844e-07
5.17118e-07
5.11941e-07
5.06279e-07
5.00162e-07
4.93524e-07
4.86593e-07
4.79299e-07
4.71588e-07
4.63642e-07
4.55463e-07
3.44195e-07
3.52588e-07
3.60863e-07
3.69001e-07
3.76963e-07
3.84739e-07
3.92409e-07
3.99802e-07
4.0696e-07
4.1378e-07
4.20391e-07
4.26666e-07
4.32633e-07
4.38203e-07
4.4328e-07
4.48085e-07
4.52402e-07
4.56236e-07
4.59599e-07
4.62535e-07
4.64908e-07
4.66864e-07
4.68356e-07
4.69373e-07
4.69921e-07
4.69925e-07
4.69462e-07
4.68447e-07
4.66954e-07
4.65032e-07
4.6255e-07
4.59602e-07
4.56193e-07
4.52386e-07
4.48095e-07
4.43397e-07
4.38266e-07
4.32723e-07
4.26713e-07
4.20439e-07
4.13844e-07
4.06878e-07
3.99704e-07
3.92331e-07
2.90836e-07
2.98259e-07
3.05587e-07
3.12803e-07
3.19875e-07
3.26788e-07
3.33614e-07
3.40202e-07
3.46585e-07
3.52676e-07
3.5858e-07
3.6419e-07
3.69531e-07
3.74521e-07
3.7907e-07
3.83379e-07
3.87253e-07
3.90695e-07
3.93717e-07
3.96355e-07
3.9849e-07
4.00249e-07
4.0159e-07
4.02506e-07
4.02996e-07
4.02999e-07
4.02582e-07
4.01673e-07
4.00326e-07
3.98599e-07
3.9637e-07
3.93722e-07
3.9066e-07
3.87236e-07
3.83387e-07
3.79173e-07
3.74575e-07
3.69612e-07
3.64233e-07
3.58623e-07
3.5273e-07
3.46514e-07
3.40115e-07
3.33547e-07
2.42077e-07
2.48543e-07
2.54937e-07
2.61244e-07
2.67432e-07
2.7349e-07
2.79478e-07
2.85266e-07
2.90878e-07
2.96241e-07
3.01442e-07
3.06389e-07
3.11102e-07
3.15513e-07
3.19533e-07
3.23346e-07
3.26775e-07
3.29826e-07
3.32504e-07
3.34842e-07
3.36736e-07
3.383e-07
3.39487e-07
3.40302e-07
3.40736e-07
3.40736e-07
3.40368e-07
3.39563e-07
3.38365e-07
3.36832e-07
3.34855e-07
3.3251e-07
3.29796e-07
3.26759e-07
3.23351e-07
3.19625e-07
3.1556e-07
3.11174e-07
3.06428e-07
3.01479e-07
2.96286e-07
2.90818e-07
2.8519e-07
2.79424e-07
1.98134e-07
2.03672e-07
2.09156e-07
2.14574e-07
2.199e-07
2.2512e-07
2.30286e-07
2.35287e-07
2.40141e-07
2.44785e-07
2.49294e-07
2.53586e-07
2.57679e-07
2.61515e-07
2.65013e-07
2.68331e-07
2.71321e-07
2.73983e-07
2.7632e-07
2.78357e-07
2.80013e-07
2.81383e-07
2.82417e-07
2.8313e-07
2.83508e-07
2.83507e-07
2.83185e-07
2.82483e-07
2.81435e-07
2.80096e-07
2.78371e-07
2.76323e-07
2.73955e-07
2.71306e-07
2.68335e-07
2.65092e-07
2.61555e-07
2.57741e-07
2.5362e-07
2.49325e-07
2.44823e-07
2.4009e-07
2.35222e-07
2.30241e-07
1.59162e-07
1.63813e-07
1.68426e-07
1.72989e-07
1.77485e-07
1.81896e-07
1.86268e-07
1.90506e-07
1.94625e-07
1.98573e-07
2.02408e-07
2.06062e-07
2.0955e-07
2.12823e-07
2.15812e-07
2.18647e-07
2.21206e-07
2.23486e-07
2.25488e-07
2.27231e-07
2.28653e-07
2.2983e-07
2.30715e-07
2.3133e-07
2.31652e-07
2.31649e-07
2.31372e-07
2.30771e-07
2.29873e-07
2.28725e-07
2.27245e-07
2.25491e-07
2.23462e-07
2.21193e-07
2.18651e-07
2.15877e-07
2.12858e-07
2.09602e-07
2.06091e-07
2.02434e-07
1.98602e-07
1.94585e-07
1.90453e-07
1.86231e-07
1.25231e-07
1.2905e-07
1.32842e-07
1.36602e-07
1.40312e-07
1.43959e-07
1.47577e-07
1.51091e-07
1.54509e-07
1.57792e-07
1.60983e-07
1.64029e-07
1.66936e-07
1.6967e-07
1.7217e-07
1.7454e-07
1.76682e-07
1.78594e-07
1.80272e-07
1.81735e-07
1.82929e-07
1.83918e-07
1.84661e-07
1.85178e-07
1.85447e-07
1.85445e-07
1.8521e-07
1.84707e-07
1.83953e-07
1.82989e-07
1.81746e-07
1.80275e-07
1.78575e-07
1.76673e-07
1.74543e-07
1.72223e-07
1.69698e-07
1.66979e-07
1.64051e-07
1.61005e-07
1.57815e-07
1.54477e-07
1.51047e-07
1.47547e-07
9.62993e-08
9.93553e-08
1.02396e-07
1.05416e-07
1.08402e-07
1.11341e-07
1.1426e-07
1.171e-07
1.19868e-07
1.2253e-07
1.25119e-07
1.27595e-07
1.29959e-07
1.32185e-07
1.34225e-07
1.36159e-07
1.37908e-07
1.39471e-07
1.40845e-07
1.42041e-07
1.4302e-07
1.43831e-07
1.44439e-07
1.44863e-07
1.45083e-07
1.45081e-07
1.44888e-07
1.44476e-07
1.43859e-07
1.43069e-07
1.4205e-07
1.40846e-07
1.39456e-07
1.37901e-07
1.36161e-07
1.34267e-07
1.32208e-07
1.29994e-07
1.27612e-07
1.25136e-07
1.22547e-07
1.19843e-07
1.17066e-07
1.14236e-07
1.11338e-07
7.22029e-08
7.45801e-08
7.69495e-08
7.93066e-08
8.16416e-08
8.39438e-08
8.62334e-08
8.84646e-08
9.06422e-08
9.27401e-08
9.47827e-08
9.67376e-08
9.8607e-08
1.00368e-07
1.01986e-07
1.0352e-07
1.04908e-07
1.0615e-07
1.07244e-07
1.08195e-07
1.08976e-07
1.09621e-07
1.10105e-07
1.10443e-07
1.10618e-07
1.10617e-07
1.10462e-07
1.10134e-07
1.09643e-07
1.09013e-07
1.08202e-07
1.07244e-07
1.06139e-07
1.04903e-07
1.03522e-07
1.02019e-07
1.00387e-07
9.86336e-08
9.6751e-08
9.47951e-08
9.27525e-08
9.06225e-08
8.84386e-08
8.62145e-08
8.39411e-08
5.26508e-08
5.44425e-08
5.62311e-08
5.80136e-08
5.97823e-08
6.1529e-08
6.32683e-08
6.49659e-08
6.66252e-08
6.82261e-08
6.97866e-08
7.12818e-08
7.27135e-08
7.40632e-08
7.53056e-08
7.6484e-08
7.75507e-08
7.8507e-08
7.93486e-08
8.00818e-08
8.06841e-08
8.11817e-08
8.15556e-08
8.18156e-08
8.19504e-08
8.19493e-08
8.18298e-08
8.15769e-08
8.11985e-08
8.07119e-08
8.00872e-08
7.93488e-08
7.84988e-08
7.75475e-08
7.64848e-08
7.53298e-08
7.40781e-08
7.27332e-08
7.12919e-08
6.9796e-08
6.82354e-08
6.66104e-08
6.49465e-08
6.32538e-08
6.15264e-08
3.72356e-08
3.85397e-08
3.98435e-08
4.11447e-08
4.2438e-08
4.37172e-08
4.49923e-08
4.62391e-08
4.7459e-08
4.86379e-08
4.97881e-08
5.08915e-08
5.19492e-08
5.29473e-08
5.38675e-08
5.47403e-08
5.55314e-08
5.62412e-08
5.68663e-08
5.74112e-08
5.78594e-08
5.82293e-08
5.85078e-08
5.8701e-08
5.88011e-08
5.88005e-08
5.87113e-08
5.85234e-08
5.82418e-08
5.78797e-08
5.74152e-08
5.68665e-08
5.62352e-08
5.55292e-08
5.4741e-08
5.38849e-08
5.29582e-08
5.19634e-08
5.08988e-08
4.9795e-08
4.86444e-08
4.74483e-08
4.62249e-08
4.49818e-08
4.37149e-08
4.2424e-08
2.54584e-08
2.63717e-08
2.72861e-08
2.81999e-08
2.91094e-08
3.00103e-08
3.09093e-08
3.17895e-08
3.26517e-08
3.34861e-08
3.43009e-08
3.50835e-08
3.58343e-08
3.65435e-08
3.71982e-08
3.78194e-08
3.83829e-08
3.8889e-08
3.93349e-08
3.97238e-08
4.0044e-08
4.03083e-08
4.05073e-08
4.06453e-08
4.07168e-08
4.07164e-08
4.06526e-08
4.05183e-08
4.03172e-08
4.00583e-08
3.97267e-08
3.93351e-08
3.88848e-08
3.83814e-08
3.78199e-08
3.72103e-08
3.65512e-08
3.58442e-08
3.50886e-08
3.43057e-08
3.34906e-08
3.26443e-08
3.17795e-08
3.09019e-08
3.00086e-08
2.90997e-08
1.6764e-08
1.73772e-08
1.79917e-08
1.86066e-08
1.92192e-08
1.98269e-08
2.04338e-08
2.10288e-08
2.16122e-08
2.21774e-08
2.27298e-08
2.32609e-08
2.37708e-08
2.42528e-08
2.46984e-08
2.51212e-08
2.55051e-08
2.58501e-08
2.61543e-08
2.64197e-08
2.66385e-08
2.68189e-08
2.69549e-08
2.70492e-08
2.7098e-08
2.70977e-08
2.70541e-08
2.69623e-08
2.6825e-08
2.66481e-08
2.64217e-08
2.61546e-08
2.58474e-08
2.55042e-08
2.51217e-08
2.47066e-08
2.42581e-08
2.37774e-08
2.32643e-08
2.2733e-08
2.21804e-08
2.16072e-08
2.10221e-08
2.04288e-08
1.98257e-08
1.92128e-08
1.86004e-08
1.05821e-08
1.09748e-08
1.13687e-08
1.17633e-08
1.21568e-08
1.25475e-08
1.2938e-08
1.33211e-08
1.36972e-08
1.40619e-08
1.44185e-08
1.47617e-08
1.50914e-08
1.54033e-08
1.56919e-08
1.59657e-08
1.62146e-08
1.64384e-08
1.66358e-08
1.68081e-08
1.69502e-08
1.70674e-08
1.71557e-08
1.7217e-08
1.72487e-08
1.72485e-08
1.72202e-08
1.71606e-08
1.70714e-08
1.69564e-08
1.68094e-08
1.6636e-08
1.64367e-08
1.6214e-08
1.5966e-08
1.56971e-08
1.54066e-08
1.50956e-08
1.47639e-08
1.44205e-08
1.40637e-08
1.3694e-08
1.33169e-08
1.29348e-08
1.25466e-08
1.21527e-08
1.17593e-08
6.36523e-09
6.60382e-09
6.84324e-09
7.08323e-09
7.32276e-09
7.56076e-09
7.79877e-09
8.0325e-09
8.26205e-09
8.48479e-09
8.70275e-09
8.9126e-09
9.11433e-09
9.30527e-09
9.48209e-09
9.6499e-09
9.80249e-09
9.93974e-09
1.00609e-08
1.01666e-08
1.02539e-08
1.03259e-08
1.03801e-08
1.04177e-08
1.04372e-08
1.04371e-08
1.04197e-08
1.03831e-08
1.03283e-08
1.02577e-08
1.01675e-08
1.0061e-08
9.93871e-09
9.80213e-09
9.65011e-09
9.48525e-09
9.30733e-09
9.11691e-09
8.91396e-09
8.70398e-09
8.48591e-09
8.26011e-09
8.0299e-09
7.79681e-09
7.56022e-09
7.32027e-09
7.08084e-09
3.61958e-09
3.75597e-09
3.89288e-09
4.03019e-09
4.16729e-09
4.3036e-09
4.43996e-09
4.57394e-09
4.70558e-09
4.83339e-09
4.9585e-09
5.07901e-09
5.1949e-09
5.30463e-09
5.4063e-09
5.5028e-09
5.59059e-09
5.66957e-09
5.7393e-09
5.80018e-09
5.85044e-09
5.89189e-09
5.92315e-09
5.94481e-09
5.95602e-09
5.95598e-09
5.94593e-09
5.92484e-09
5.89329e-09
5.8526e-09
5.80066e-09
5.73938e-09
5.66899e-09
5.59038e-09
5.50293e-09
5.40811e-09
5.30581e-09
5.19637e-09
5.07979e-09
4.95921e-09
4.83403e-09
4.70448e-09
4.57245e-09
4.43883e-09
4.30327e-09
4.16587e-09
4.02882e-09
1.92482e-09
1.9974e-09
2.07027e-09
2.14336e-09
2.21637e-09
2.28897e-09
2.36162e-09
2.43303e-09
2.5032e-09
2.57135e-09
2.63807e-09
2.70236e-09
2.76419e-09
2.82276e-09
2.87704e-09
2.92856e-09
2.97544e-09
3.01763e-09
3.05489e-09
3.08741e-09
3.11427e-09
3.13642e-09
3.15313e-09
3.1647e-09
3.17069e-09
3.17067e-09
3.1653e-09
3.15403e-09
3.13717e-09
3.11542e-09
3.08767e-09
3.05493e-09
3.01732e-09
2.97534e-09
2.92863e-09
2.878e-09
2.82339e-09
2.76498e-09
2.70278e-09
2.63845e-09
2.57168e-09
2.50261e-09
2.43223e-09
2.36102e-09
2.2888e-09
2.21561e-09
2.14263e-09
9.4268e-10
9.7809e-10
1.01363e-09
1.04928e-09
1.08489e-09
1.12031e-09
1.15575e-09
1.19059e-09
1.22482e-09
1.25807e-09
1.29063e-09
1.32201e-09
1.35219e-09
1.38077e-09
1.40727e-09
1.43242e-09
1.4553e-09
1.4759e-09
1.49409e-09
1.50997e-09
1.52308e-09
1.53389e-09
1.54205e-09
1.54771e-09
1.55063e-09
1.55062e-09
1.548e-09
1.5425e-09
1.53427e-09
1.52365e-09
1.5101e-09
1.49411e-09
1.47575e-09
1.45525e-09
1.43245e-09
1.40774e-09
1.38108e-09
1.35257e-09
1.32221e-09
1.29082e-09
1.25824e-09
1.22453e-09
1.19019e-09
1.15545e-09
1.12022e-09
1.08452e-09
1.04892e-09
1.01321e-09
4.15807e-10
4.31284e-10
4.46811e-10
4.62383e-10
4.77935e-10
4.93398e-10
5.08871e-10
5.24077e-10
5.39019e-10
5.5353e-10
5.67738e-10
5.81427e-10
5.94594e-10
6.07064e-10
6.18622e-10
6.29592e-10
6.39574e-10
6.48555e-10
6.56486e-10
6.63409e-10
6.69127e-10
6.73842e-10
6.77401e-10
6.79866e-10
6.81142e-10
6.81138e-10
6.79994e-10
6.77595e-10
6.74006e-10
6.69375e-10
6.63467e-10
6.56496e-10
6.4849e-10
6.39551e-10
6.29607e-10
6.18828e-10
6.07201e-10
5.94764e-10
5.81518e-10
5.67819e-10
5.53602e-10
5.38892e-10
5.23905e-10
5.08741e-10
4.93359e-10
4.7777e-10
4.62225e-10
4.46628e-10
1.59672e-10
1.65522e-10
1.71387e-10
1.77267e-10
1.83135e-10
1.88968e-10
1.94803e-10
2.00534e-10
2.06164e-10
2.1163e-10
2.1698e-10
2.22134e-10
2.2709e-10
2.31782e-10
2.36129e-10
2.40255e-10
2.44008e-10
2.47384e-10
2.50365e-10
2.52967e-10
2.55115e-10
2.56886e-10
2.58223e-10
2.59149e-10
2.59629e-10
2.59628e-10
2.59198e-10
2.58297e-10
2.56948e-10
2.55209e-10
2.52989e-10
2.50369e-10
2.4736e-10
2.43999e-10
2.40261e-10
2.36207e-10
2.31834e-10
2.27154e-10
2.22168e-10
2.17011e-10
2.11658e-10
2.06116e-10
2.00469e-10
1.94753e-10
1.88953e-10
1.83072e-10
1.77206e-10
1.71317e-10
5.05445e-11
5.23499e-11
5.41577e-11
5.59683e-11
5.77741e-11
5.95676e-11
6.13607e-11
6.31208e-11
6.48487e-11
6.65248e-11
6.81649e-11
6.97439e-11
7.12617e-11
7.26979e-11
7.40276e-11
7.52897e-11
7.64371e-11
7.74687e-11
7.83791e-11
7.91735e-11
7.98289e-11
8.03697e-11
8.07776e-11
8.10606e-11
8.12071e-11
8.12068e-11
8.10758e-11
8.08007e-11
8.03891e-11
7.98584e-11
7.91804e-11
7.83801e-11
7.74609e-11
7.64343e-11
7.52916e-11
7.40522e-11
7.27143e-11
7.12819e-11
6.97547e-11
6.81746e-11
6.65334e-11
6.48335e-11
6.31002e-11
6.13451e-11
5.95629e-11
5.77544e-11
5.59492e-11
5.41357e-11
1.20003e-11
1.24112e-11
1.28217e-11
1.32324e-11
1.36414e-11
1.40471e-11
1.44523e-11
1.48496e-11
1.52391e-11
1.56166e-11
1.59856e-11
1.63406e-11
1.66816e-11
1.7004e-11
1.73021e-11
1.75851e-11
1.7842e-11
1.80729e-11
1.82765e-11
1.8454e-11
1.86004e-11
1.87212e-11
1.88123e-11
1.88755e-11
1.89083e-11
1.89083e-11
1.88791e-11
1.88176e-11
1.87257e-11
1.86072e-11
1.84556e-11
1.82767e-11
1.80711e-11
1.78414e-11
1.75855e-11
1.73078e-11
1.70079e-11
1.66864e-11
1.63432e-11
1.59879e-11
1.56186e-11
1.52356e-11
1.48447e-11
1.44486e-11
1.4046e-11
1.36368e-11
1.32279e-11
1.28166e-11
1.78304e-12
1.83947e-12
1.8957e-12
1.95178e-12
2.0075e-12
2.06264e-12
2.11764e-12
2.17142e-12
2.22406e-12
2.27495e-12
2.32466e-12
2.37239e-12
2.41819e-12
2.46141e-12
2.50128e-12
2.53913e-12
2.57345e-12
2.60422e-12
2.63132e-12
2.65495e-12
2.67438e-12
2.69043e-12
2.70253e-12
2.71095e-12
2.71533e-12
2.71531e-12
2.71145e-12
2.70329e-12
2.69107e-12
2.67535e-12
2.65518e-12
2.63135e-12
2.60396e-12
2.57335e-12
2.53919e-12
2.5021e-12
2.46196e-12
2.41887e-12
2.37276e-12
2.32499e-12
2.27525e-12
2.22355e-12
2.17072e-12
2.11711e-12
2.06248e-12
2.00683e-12
1.95113e-12
1.89494e-12
1.11474e-13
1.14433e-13
1.17362e-13
1.20268e-13
1.23141e-13
1.25969e-13
1.28784e-13
1.31522e-13
1.34191e-13
1.3676e-13
1.39264e-13
1.4166e-13
1.43954e-13
1.46112e-13
1.4809e-13
1.49972e-13
1.5167e-13
1.53188e-13
1.5452e-13
1.55681e-13
1.56629e-13
1.57416e-13
1.58008e-13
1.58422e-13
1.58639e-13
1.58638e-13
1.58451e-13
1.58051e-13
1.57452e-13
1.56685e-13
1.55693e-13
1.54522e-13
1.53172e-13
1.51664e-13
1.49975e-13
1.48138e-13
1.46144e-13
1.43994e-13
1.41681e-13
1.39283e-13
1.36777e-13
1.34161e-13
1.3148e-13
1.28752e-13
1.25961e-13
1.231e-13
1.20229e-13
1.17316e-13
1.06658e-15
1.08341e-15
1.09978e-15
1.11582e-15
1.13148e-15
1.14671e-15
1.16184e-15
1.17636e-15
1.19041e-15
1.20374e-15
1.21675e-15
1.22909e-15
1.24088e-15
1.25187e-15
1.26175e-15
1.27127e-15
1.27973e-15
1.28722e-15
1.29373e-15
1.29939e-15
1.30392e-15
1.30774e-15
1.3106e-15
1.31266e-15
1.31376e-15
1.31375e-15
1.31289e-15
1.31094e-15
1.30802e-15
1.30437e-15
1.29949e-15
1.29373e-15
1.28709e-15
1.27968e-15
1.27129e-15
1.26215e-15
1.25213e-15
1.24121e-15
1.22927e-15
1.21692e-15
1.2039e-15
1.19015e-15
1.176e-15
1.16157e-15
1.14664e-15
1.13112e-15
1.11547e-15
1.09937e-15
2.60166e-06
2.49128e-06
2.38228e-06
2.27476e-06
2.16877e-06
2.06439e-06
1.96167e-06
1.8607e-06
1.76158e-06
1.66435e-06
1.5691e-06
1.47593e-06
1.38489e-06
1.29607e-06
1.20955e-06
1.12542e-06
1.04378e-06
9.64695e-07
8.88233e-07
8.14385e-07
7.42834e-07
6.70482e-07
5.98245e-07
5.29221e-07
4.63684e-07
4.01919e-07
3.44213e-07
2.90849e-07
2.42086e-07
1.98142e-07
1.59169e-07
1.25237e-07
9.63038e-08
7.22064e-08
5.26536e-08
3.72377e-08
2.54598e-08
1.67649e-08
1.05827e-08
6.36561e-09
3.6198e-09
1.92493e-09
9.42737e-10
4.15832e-10
1.59682e-10
5.05475e-11
1.20011e-11
1.78315e-12
1.1148e-13
1.06664e-15
2.63319e-06
2.52192e-06
2.41204e-06
2.30362e-06
2.19673e-06
2.09142e-06
1.9878e-06
1.88592e-06
1.78586e-06
1.6877e-06
1.5915e-06
1.49736e-06
1.40535e-06
1.31557e-06
1.2281e-06
1.14303e-06
1.06043e-06
9.80408e-07
9.03014e-07
8.28272e-07
7.55944e-07
6.8374e-07
6.10564e-07
5.40583e-07
4.74074e-07
4.11331e-07
3.52645e-07
2.98306e-07
2.48583e-07
2.03704e-07
1.63838e-07
1.29069e-07
9.9371e-08
7.45921e-08
5.44514e-08
3.85462e-08
2.63763e-08
1.73802e-08
1.09768e-08
6.605e-09
3.75665e-09
1.99776e-09
9.78267e-10
4.31362e-10
1.65552e-10
5.23594e-11
1.24134e-11
1.8398e-12
1.14453e-13
1.08359e-15
2.66391e-06
2.55182e-06
2.4411e-06
2.3318e-06
2.22403e-06
2.11784e-06
2.01332e-06
1.91053e-06
1.80955e-06
1.71046e-06
1.61334e-06
1.51826e-06
1.42533e-06
1.33462e-06
1.24622e-06
1.16022e-06
1.0767e-06
9.95747e-07
9.17446e-07
8.41829e-07
7.68741e-07
6.9673e-07
6.22634e-07
5.51718e-07
4.84265e-07
4.20569e-07
3.60929e-07
3.05641e-07
2.54983e-07
2.09193e-07
1.68456e-07
1.32867e-07
1.02415e-07
7.69646e-08
5.62426e-08
3.98518e-08
2.72919e-08
1.79956e-08
1.13713e-08
6.84481e-09
3.89378e-09
2.07075e-09
1.01387e-09
4.46916e-10
1.71427e-10
5.41703e-11
1.28247e-11
1.89613e-12
1.17388e-13
1.10001e-15
2.69354e-06
2.58068e-06
2.46918e-06
2.35909e-06
2.25049e-06
2.14346e-06
2.03806e-06
1.93439e-06
1.83253e-06
1.73255e-06
1.63453e-06
1.53857e-06
1.44473e-06
1.35313e-06
1.26383e-06
1.17693e-06
1.09252e-06
1.01069e-06
9.3151e-07
8.55049e-07
7.81241e-07
7.09435e-07
6.34458e-07
5.62646e-07
4.94282e-07
4.29665e-07
3.691e-07
3.12889e-07
2.61316e-07
2.14634e-07
1.73039e-07
1.36643e-07
1.05449e-07
7.93324e-08
5.80329e-08
4.11588e-08
2.82098e-08
1.86132e-08
1.17676e-08
7.08584e-09
4.03168e-09
2.14416e-09
1.04967e-09
4.62556e-10
1.77333e-10
5.59891e-11
1.32373e-11
1.95249e-12
1.20311e-13
1.11619e-15
2.72207e-06
2.60845e-06
2.49618e-06
2.38533e-06
2.27596e-06
2.16814e-06
2.06195e-06
1.95747e-06
1.85478e-06
1.75398e-06