/*--------------------------------*- C++ -*----------------------------------*\
  =========                 |
  \\      /  F ield         | OpenFOAM: The Open Source CFD Toolbox
   \\    /   O peration     | Website:  https://openfoam.org
    \\  /    A nd           | Version:  7
     \\/     M anipulation  |
\*---------------------------------------------------------------------------*/
FoamFile
{
    version     2.0;
    format      ascii;
    class       volScalarField;
    location    "160000";
    object      k;
}
// * * * * * * * * * * * * * * * * * * * * * * * * * * * * * * * * * * * * * //

dimensions      [0 2 -2 0 0 0 0];

internalField   nonuniform List<scalar> 
4783
(
6.48415e-07
6.44327e-07
6.40456e-07
6.36793e-07
6.33339e-07
6.30087e-07
6.27034e-07
6.24175e-07
6.21505e-07
6.19022e-07
6.16721e-07
6.14599e-07
6.12651e-07
6.10874e-07
6.09263e-07
6.07814e-07
6.06524e-07
6.05389e-07
6.04404e-07
6.03567e-07
6.02875e-07
6.02324e-07
6.55393e-07
6.51392e-07
6.47499e-07
6.43749e-07
6.40177e-07
6.36793e-07
6.33602e-07
6.30603e-07
6.27796e-07
6.25177e-07
6.22745e-07
6.20495e-07
6.18425e-07
6.16532e-07
6.14812e-07
6.13263e-07
6.11879e-07
6.1066e-07
6.096e-07
6.08697e-07
6.0795e-07
6.07355e-07
6.6296e-07
6.58818e-07
6.54847e-07
6.51016e-07
6.47345e-07
6.43848e-07
6.40534e-07
6.37408e-07
6.34472e-07
6.31725e-07
6.29167e-07
6.26795e-07
6.24608e-07
6.22603e-07
6.20778e-07
6.1913e-07
6.17656e-07
6.16354e-07
6.15221e-07
6.14255e-07
6.13453e-07
6.12815e-07
6.70885e-07
6.66588e-07
6.62493e-07
6.58559e-07
6.54787e-07
6.51185e-07
6.47761e-07
6.44521e-07
6.41468e-07
6.38605e-07
6.35931e-07
6.33447e-07
6.31151e-07
6.29042e-07
6.27118e-07
6.25378e-07
6.23819e-07
6.2244e-07
6.21239e-07
6.20213e-07
6.19361e-07
6.18681e-07
6.79102e-07
6.74665e-07
6.70439e-07
6.66388e-07
6.62508e-07
6.58802e-07
6.55273e-07
6.51926e-07
6.48766e-07
6.45795e-07
6.43015e-07
6.40427e-07
6.38031e-07
6.35825e-07
6.33811e-07
6.31985e-07
6.30348e-07
6.28897e-07
6.27632e-07
6.2655e-07
6.25651e-07
6.24933e-07
6.87575e-07
6.83014e-07
6.78664e-07
6.74495e-07
6.70505e-07
6.66693e-07
6.63061e-07
6.59613e-07
6.56353e-07
6.53282e-07
6.50404e-07
6.47719e-07
6.4523e-07
6.42935e-07
6.40836e-07
6.38931e-07
6.37221e-07
6.35703e-07
6.34379e-07
6.33245e-07
6.32302e-07
6.31549e-07
6.96276e-07
6.91603e-07
6.8714e-07
6.8286e-07
6.78763e-07
6.74848e-07
6.71116e-07
6.67571e-07
6.64215e-07
6.6105e-07
6.5808e-07
6.55306e-07
6.5273e-07
6.50353e-07
6.48175e-07
6.46197e-07
6.44419e-07
6.4284e-07
6.41459e-07
6.40278e-07
6.39294e-07
6.38508e-07
7.05182e-07
7.00409e-07
6.95844e-07
6.91462e-07
6.87263e-07
6.83249e-07
6.79423e-07
6.75784e-07
6.72337e-07
6.69084e-07
6.66028e-07
6.63171e-07
6.60514e-07
6.5806e-07
6.5581e-07
6.53764e-07
6.51922e-07
6.50286e-07
6.48854e-07
6.47628e-07
6.46607e-07
6.4579e-07
7.14272e-07
7.09411e-07
7.04753e-07
7.00277e-07
6.95985e-07
6.9188e-07
6.87963e-07
6.84237e-07
6.80705e-07
6.77369e-07
6.74232e-07
6.71296e-07
6.68565e-07
6.6604e-07
6.63722e-07
6.61612e-07
6.59712e-07
6.58023e-07
6.56544e-07
6.55276e-07
6.5422e-07
6.53374e-07
7.23529e-07
7.18588e-07
7.13847e-07
7.09287e-07
7.0491e-07
7.0072e-07
6.96719e-07
6.92912e-07
6.89299e-07
6.85886e-07
6.82674e-07
6.79666e-07
6.76865e-07
6.74273e-07
6.71892e-07
6.69724e-07
6.6777e-07
6.66032e-07
6.64509e-07
6.63203e-07
6.62114e-07
6.61242e-07
7.32934e-07
7.27923e-07
7.23108e-07
7.18472e-07
7.14018e-07
7.09751e-07
7.05674e-07
7.01791e-07
6.98105e-07
6.94619e-07
6.91337e-07
6.88262e-07
6.85396e-07
6.82743e-07
6.80304e-07
6.78082e-07
6.76078e-07
6.74294e-07
6.7273e-07
6.71389e-07
6.7027e-07
6.69374e-07
7.42474e-07
7.374e-07
7.3252e-07
7.27816e-07
7.23293e-07
7.18956e-07
7.14809e-07
7.10857e-07
7.07103e-07
7.03551e-07
7.00204e-07
6.97067e-07
6.94142e-07
6.91432e-07
6.8894e-07
6.86667e-07
6.84617e-07
6.82791e-07
6.8119e-07
6.79816e-07
6.7867e-07
6.77751e-07
7.52132e-07
7.47004e-07
7.42066e-07
7.37302e-07
7.32717e-07
7.28317e-07
7.24108e-07
7.20093e-07
7.16277e-07
7.12665e-07
7.09259e-07
7.06065e-07
7.03085e-07
7.00323e-07
6.97782e-07
6.95463e-07
6.93371e-07
6.91506e-07
6.89871e-07
6.88467e-07
6.87295e-07
6.86356e-07
7.61895e-07
7.56721e-07
7.51732e-07
7.46915e-07
7.42275e-07
7.3782e-07
7.33554e-07
7.29483e-07
7.25612e-07
7.21944e-07
7.18485e-07
7.15239e-07
7.12209e-07
7.094e-07
7.06813e-07
7.04453e-07
7.02322e-07
7.00422e-07
6.98755e-07
6.97323e-07
6.96128e-07
6.9517e-07
7.7175e-07
7.66536e-07
7.61503e-07
7.5664e-07
7.51953e-07
7.47449e-07
7.43133e-07
7.39012e-07
7.35091e-07
7.31374e-07
7.27867e-07
7.24573e-07
7.21498e-07
7.18646e-07
7.16018e-07
7.1362e-07
7.11453e-07
7.09521e-07
7.07826e-07
7.06369e-07
7.81684e-07
7.76437e-07
7.71368e-07
7.66465e-07
7.61737e-07
7.5719e-07
7.52831e-07
7.48665e-07
7.447e-07
7.40939e-07
7.37388e-07
7.34053e-07
7.30937e-07
7.28045e-07
7.25381e-07
7.22948e-07
7.2075e-07
7.18789e-07
7.17067e-07
7.91686e-07
7.86412e-07
7.81312e-07
7.76377e-07
7.71614e-07
7.6703e-07
7.62633e-07
7.58429e-07
7.54424e-07
7.50625e-07
7.47036e-07
7.43663e-07
7.40511e-07
7.37584e-07
7.34887e-07
7.32423e-07
7.30196e-07
8.01746e-07
7.9645e-07
7.91326e-07
7.86363e-07
7.81571e-07
7.76956e-07
7.72527e-07
7.68289e-07
7.64251e-07
7.60418e-07
7.56796e-07
7.5339e-07
7.50206e-07
7.47248e-07
8.11851e-07
8.0654e-07
8.01397e-07
7.96413e-07
7.91596e-07
7.86956e-07
7.825e-07
7.78235e-07
7.74168e-07
7.70305e-07
7.66654e-07
7.6322e-07
8.21993e-07
8.16672e-07
8.11515e-07
8.06514e-07
8.01679e-07
7.97019e-07
7.92541e-07
7.88253e-07
7.84162e-07
7.80275e-07
8.32162e-07
8.26836e-07
8.2167e-07
8.16658e-07
8.1181e-07
8.07134e-07
8.02638e-07
7.98332e-07
7.94222e-07
8.4235e-07
8.37022e-07
8.31852e-07
8.26834e-07
8.21977e-07
8.1729e-07
8.12782e-07
8.08462e-07
8.52547e-07
8.47224e-07
8.42054e-07
8.37034e-07
8.32172e-07
8.27479e-07
8.22963e-07
8.62746e-07
8.57431e-07
8.52266e-07
8.47248e-07
8.42386e-07
8.3769e-07
8.7294e-07
8.67636e-07
8.6248e-07
8.57468e-07
8.5261e-07
8.47916e-07
8.83121e-07
8.77833e-07
8.72689e-07
8.67687e-07
8.62836e-07
8.93283e-07
8.88014e-07
8.82886e-07
8.77897e-07
9.03418e-07
8.98172e-07
8.93063e-07
8.88091e-07
9.13522e-07
9.08301e-07
9.03215e-07
9.23589e-07
9.18396e-07
9.13335e-07
9.33612e-07
9.28451e-07
9.23419e-07
9.43588e-07
9.38461e-07
9.33459e-07
9.53511e-07
9.4842e-07
9.43452e-07
9.63377e-07
9.58324e-07
9.53392e-07
9.73182e-07
9.68169e-07
9.63274e-07
9.8292e-07
9.77951e-07
9.73096e-07
9.9259e-07
9.87665e-07
9.82852e-07
1.00219e-06
9.97308e-07
9.92538e-07
1.01171e-06
1.00688e-06
1.00215e-06
1.02115e-06
1.01637e-06
1.01169e-06
1.03051e-06
1.02578e-06
1.02115e-06
1.03978e-06
1.0351e-06
1.03052e-06
6.48415e-07
6.55393e-07
6.6296e-07
6.70885e-07
6.79102e-07
6.87575e-07
6.96276e-07
7.05182e-07
7.14272e-07
7.23529e-07
7.32934e-07
7.42474e-07
7.52132e-07
7.61895e-07
7.7175e-07
7.81684e-07
7.91686e-07
8.01746e-07
8.11851e-07
8.21993e-07
8.32162e-07
8.4235e-07
8.52547e-07
8.62746e-07
8.7294e-07
8.83121e-07
8.93283e-07
9.03418e-07
9.13522e-07
9.23589e-07
9.33612e-07
9.43588e-07
9.53511e-07
9.63377e-07
9.73182e-07
9.8292e-07
9.9259e-07
1.00219e-06
1.01171e-06
1.02115e-06
1.03051e-06
1.03978e-06
6.44327e-07
6.51392e-07
6.58818e-07
6.66588e-07
6.74665e-07
6.83014e-07
6.91603e-07
7.00409e-07
7.09411e-07
7.18588e-07
7.27923e-07
7.374e-07
7.47004e-07
7.56721e-07
7.66536e-07
7.76437e-07
7.86412e-07
7.9645e-07
8.0654e-07
8.16672e-07
8.26836e-07
8.37022e-07
8.47224e-07
8.57431e-07
8.67636e-07
8.77833e-07
8.88014e-07
8.98172e-07
9.08301e-07
9.18396e-07
9.28451e-07
9.38461e-07
9.4842e-07
9.58324e-07
9.68169e-07
9.77951e-07
9.87665e-07
9.97308e-07
1.00688e-06
1.01637e-06
1.02578e-06
1.0351e-06
6.40456e-07
6.47499e-07
6.54847e-07
6.62493e-07
6.70439e-07
6.78664e-07
6.8714e-07
6.95844e-07
7.04753e-07
7.13847e-07
7.23108e-07
7.3252e-07
7.42066e-07
7.51732e-07
7.61503e-07
7.71368e-07
7.81312e-07
7.91326e-07
8.01397e-07
8.11515e-07
8.2167e-07
8.31852e-07
8.42054e-07
8.52266e-07
8.6248e-07
8.72689e-07
8.82886e-07
8.93063e-07
9.03215e-07
9.13335e-07
9.23419e-07
9.33459e-07
9.43452e-07
9.53392e-07
9.63274e-07
9.73096e-07
9.82852e-07
9.92538e-07
1.00215e-06
1.01169e-06
1.02115e-06
1.03052e-06
6.36793e-07
6.43749e-07
6.51016e-07
6.58559e-07
6.66388e-07
6.74495e-07
6.8286e-07
6.91462e-07
7.00277e-07
7.09287e-07
7.18472e-07
7.27816e-07
7.37302e-07
7.46915e-07
7.5664e-07
7.66465e-07
7.76377e-07
7.86363e-07
7.96413e-07
8.06514e-07
8.16658e-07
8.26834e-07
8.37034e-07
8.47248e-07
8.57468e-07
8.67687e-07
8.77897e-07
8.88091e-07
8.98263e-07
9.08406e-07
9.18515e-07
9.28584e-07
9.38607e-07
9.4858e-07
9.58499e-07
9.68357e-07
9.78153e-07
9.8788e-07
9.97537e-07
1.00712e-06
1.01662e-06
1.02604e-06
6.33339e-07
6.40177e-07
6.47345e-07
6.54787e-07
6.62508e-07
6.70505e-07
6.78763e-07
6.87263e-07
6.95985e-07
7.0491e-07
7.14018e-07
7.23293e-07
7.32717e-07
7.42275e-07
7.51953e-07
7.61737e-07
7.71614e-07
7.81571e-07
7.91596e-07
8.0168e-07
8.1181e-07
8.21977e-07
8.32172e-07
8.42386e-07
8.5261e-07
8.62836e-07
8.73057e-07
8.83266e-07
8.93456e-07
9.03619e-07
9.13751e-07
9.23846e-07
9.33898e-07
9.43902e-07
9.53853e-07
9.63747e-07
9.73579e-07
9.83345e-07
9.93042e-07
1.00267e-06
1.01221e-06
1.02168e-06
6.30087e-07
6.36793e-07
6.43848e-07
6.51185e-07
6.58802e-07
6.66693e-07
6.74848e-07
6.83249e-07
6.9188e-07
7.0072e-07
7.09751e-07
7.18956e-07
7.28317e-07
7.3782e-07
7.47449e-07
7.5719e-07
7.6703e-07
7.76956e-07
7.86956e-07
7.97019e-07
8.07134e-07
8.1729e-07
8.27479e-07
8.3769e-07
8.47916e-07
8.58148e-07
8.68378e-07
8.78599e-07
8.88803e-07
8.98985e-07
9.09138e-07
9.19257e-07
9.29335e-07
9.39367e-07
9.49349e-07
9.59275e-07
9.69141e-07
9.78944e-07
9.88679e-07
9.98342e-07
1.00793e-06
1.01744e-06
6.27034e-07
6.33602e-07
6.40534e-07
6.47761e-07
6.55273e-07
6.63061e-07
6.71116e-07
6.79423e-07
6.87963e-07
6.96719e-07
7.05674e-07
7.14809e-07
7.24108e-07
7.33554e-07
7.43134e-07
7.52831e-07
7.62633e-07
7.72527e-07
7.825e-07
7.92541e-07
8.02638e-07
8.12782e-07
8.22963e-07
8.3317e-07
8.43396e-07
8.53631e-07
8.63868e-07
8.74098e-07
8.84316e-07
8.94515e-07
9.04686e-07
9.14826e-07
9.24928e-07
9.34986e-07
9.44996e-07
9.54953e-07
9.64851e-07
9.74688e-07
9.84458e-07
9.94158e-07
1.00378e-06
1.01333e-06
6.24175e-07
6.30603e-07
6.37408e-07
6.44521e-07
6.51926e-07
6.59613e-07
6.67571e-07
6.75784e-07
6.84237e-07
6.92912e-07
7.01791e-07
7.10857e-07
7.20093e-07
7.29483e-07
7.39012e-07
7.48665e-07
7.58429e-07
7.6829e-07
7.78235e-07
7.88253e-07
7.98332e-07
8.08462e-07
8.18633e-07
8.28834e-07
8.39058e-07
8.49294e-07
8.59536e-07
8.69775e-07
8.80005e-07
8.90217e-07
9.00405e-07
9.10564e-07
9.20688e-07
9.3077e-07
9.40806e-07
9.5079e-07
9.60719e-07
9.70587e-07
9.8039e-07
9.90125e-07
9.99788e-07
1.00938e-06
6.21505e-07
6.27796e-07
6.34472e-07
6.41468e-07
6.48766e-07
6.56353e-07
6.64215e-07
6.72337e-07
6.80705e-07
6.89299e-07
6.98105e-07
7.07103e-07
7.16277e-07
7.25612e-07
7.35091e-07
7.447e-07
7.54424e-07
7.64251e-07
7.74168e-07
7.84162e-07
7.94222e-07
8.04337e-07
8.14496e-07
8.24691e-07
8.34911e-07
8.45148e-07
8.55393e-07
8.65639e-07
8.75877e-07
8.86102e-07
8.96305e-07
9.06481e-07
9.16624e-07
9.26728e-07
9.36788e-07
9.46798e-07
9.56754e-07
9.66652e-07
9.76486e-07
9.86254e-07
9.9595e-07
1.00557e-06
6.19022e-07
6.25177e-07
6.31725e-07
6.38605e-07
6.45795e-07
6.53282e-07
6.6105e-07
6.69084e-07
6.77369e-07
6.85886e-07
6.94619e-07
7.03551e-07
7.12665e-07
7.21944e-07
7.31374e-07
7.40939e-07
7.50625e-07
7.60418e-07
7.70305e-07
7.80275e-07
7.90315e-07
8.00414e-07
8.10562e-07
8.20748e-07
8.30964e-07
8.41199e-07
8.51446e-07
8.61697e-07
8.71943e-07
8.82178e-07
8.92395e-07
9.02586e-07
9.12747e-07
9.22871e-07
9.32952e-07
9.42986e-07
9.52968e-07
9.62893e-07
9.72756e-07
9.82553e-07
9.92281e-07
1.00194e-06
6.16721e-07
6.22745e-07
6.29167e-07
6.35931e-07
6.43015e-07
6.50404e-07
6.5808e-07
6.66028e-07
6.74232e-07
6.82674e-07
6.91337e-07
7.00204e-07
7.09259e-07
7.18485e-07
7.27867e-07
7.37388e-07
7.47036e-07
7.56796e-07
7.66654e-07
7.76599e-07
7.86619e-07
7.96702e-07
8.06837e-07
8.17014e-07
8.27224e-07
8.37457e-07
8.47705e-07
8.57959e-07
8.68212e-07
8.78456e-07
8.88684e-07
8.98889e-07
9.09065e-07
9.19207e-07
9.29308e-07
9.39364e-07
9.49369e-07
9.59319e-07
9.69208e-07
9.79034e-07
9.88791e-07
9.98477e-07
6.14599e-07
6.20495e-07
6.26795e-07
6.33447e-07
6.40427e-07
6.47719e-07
6.55306e-07
6.63171e-07
6.71296e-07
6.79666e-07
6.88262e-07
6.97067e-07
7.06065e-07
7.15239e-07
7.24573e-07
7.34053e-07
7.43663e-07
7.5339e-07
7.6322e-07
7.73141e-07
7.8314e-07
7.93206e-07
8.03328e-07
8.13495e-07
8.23699e-07
8.33929e-07
8.44176e-07
8.54433e-07
8.64691e-07
8.74942e-07
8.8518e-07
8.95397e-07
9.05588e-07
9.15746e-07
9.25865e-07
9.35941e-07
9.45967e-07
9.55939e-07
9.65853e-07
9.75704e-07
9.85489e-07
9.95202e-07
1.00484e-06
6.12651e-07
6.18425e-07
6.24608e-07
6.31151e-07
6.38031e-07
6.4523e-07
6.5273e-07
6.60514e-07
6.68565e-07
6.76865e-07
6.85396e-07
6.94142e-07
7.03085e-07
7.12209e-07
7.21498e-07
7.30937e-07
7.40511e-07
7.50206e-07
7.60008e-07
7.69905e-07
7.79883e-07
7.89933e-07
8.00041e-07
8.10199e-07
8.20396e-07
8.30622e-07
8.40868e-07
8.51126e-07
8.61388e-07
8.71645e-07
8.81892e-07
8.9212e-07
9.02323e-07
9.12495e-07
9.22631e-07
9.32724e-07
9.4277e-07
9.52763e-07
9.627e-07
9.72574e-07
9.82384e-07
9.92123e-07
1.00179e-06
1.01138e-06
6.10874e-07
6.16532e-07
6.22603e-07
6.29042e-07
6.35825e-07
6.42935e-07
6.50353e-07
6.5806e-07
6.6604e-07
6.74273e-07
6.82743e-07
6.91432e-07
7.00323e-07
7.094e-07
7.18646e-07
7.28046e-07
7.37585e-07
7.47248e-07
7.57023e-07
7.66897e-07
7.76856e-07
7.86889e-07
7.96984e-07
8.07132e-07
8.17321e-07
8.27542e-07
8.37787e-07
8.48045e-07
8.5831e-07
8.68573e-07
8.78826e-07
8.89064e-07
8.99278e-07
9.09463e-07
9.19613e-07
9.29723e-07
9.39786e-07
9.49799e-07
9.59755e-07
9.69652e-07
9.79484e-07
9.89247e-07
9.98938e-07
1.00855e-06
6.09263e-07
6.14812e-07
6.20778e-07
6.27118e-07
6.33811e-07
6.40836e-07
6.48175e-07
6.5581e-07
6.63722e-07
6.71892e-07
6.80304e-07
6.8894e-07
6.97782e-07
7.06813e-07
7.16018e-07
7.25381e-07
7.34887e-07
7.44522e-07
7.54271e-07
7.64122e-07
7.74062e-07
7.84079e-07
7.94161e-07
8.04299e-07
8.14481e-07
8.24697e-07
8.34939e-07
8.45198e-07
8.55465e-07
8.65732e-07
8.75991e-07
8.86237e-07
8.96461e-07
9.06658e-07
9.16821e-07
9.26945e-07
9.37024e-07
9.47053e-07
9.57028e-07
9.66944e-07
9.76797e-07
9.86582e-07
9.96296e-07
1.00593e-06
1.0155e-06
6.07814e-07
6.13263e-07
6.1913e-07
6.25378e-07
6.31985e-07
6.38931e-07
6.46197e-07
6.53764e-07
6.61612e-07
6.69724e-07
6.78082e-07
6.86667e-07
6.95463e-07
7.04453e-07
7.1362e-07
7.22948e-07
7.32423e-07
7.4203e-07
7.51755e-07
7.61585e-07
7.71507e-07
7.81508e-07
7.91579e-07
8.01706e-07
8.11881e-07
8.22092e-07
8.32331e-07
8.42589e-07
8.52858e-07
8.63128e-07
8.73393e-07
8.83645e-07
8.93878e-07
9.04085e-07
9.14259e-07
9.24396e-07
9.34489e-07
9.44534e-07
9.54526e-07
9.6446e-07
9.74331e-07
9.84135e-07
9.9387e-07
1.00353e-06
1.01311e-06
6.06524e-07
6.11879e-07
6.17656e-07
6.23819e-07
6.30348e-07
6.37221e-07
6.44419e-07
6.51922e-07
6.59712e-07
6.6777e-07
6.76078e-07
6.84617e-07
6.93371e-07
7.02322e-07
7.11453e-07
7.2075e-07
7.30196e-07
7.39777e-07
7.4948e-07
7.5929e-07
7.69195e-07
7.79182e-07
7.8924e-07
7.99358e-07
8.09526e-07
8.19732e-07
8.29969e-07
8.40226e-07
8.50495e-07
8.60768e-07
8.71037e-07
8.81295e-07
8.91535e-07
9.01751e-07
9.11936e-07
9.22084e-07
9.3219e-07
9.42248e-07
9.52255e-07
9.62204e-07
9.72092e-07
9.81914e-07
9.91666e-07
1.00135e-06
1.01095e-06
1.02047e-06
6.05389e-07
6.1066e-07
6.16354e-07
6.2244e-07
6.28897e-07
6.35703e-07
6.4284e-07
6.50286e-07
6.58023e-07
6.66032e-07
6.74294e-07
6.82791e-07
6.91506e-07
7.00422e-07
7.09521e-07
7.18789e-07
7.28209e-07
7.37767e-07
7.47448e-07
7.5724e-07
7.67129e-07
7.77103e-07
7.87151e-07
7.9726e-07
8.07421e-07
8.17622e-07
8.27856e-07
8.38112e-07
8.48381e-07
8.58656e-07
8.68929e-07
8.79192e-07
8.89439e-07
8.99662e-07
9.09855e-07
9.20013e-07
9.3013e-07
9.40201e-07
9.5022e-07
9.60183e-07
9.70086e-07
9.79923e-07
9.89692e-07
9.99389e-07
1.00901e-06
1.01855e-06
1.02801e-06
6.04404e-07
6.096e-07
6.15221e-07
6.21239e-07
6.27632e-07
6.34379e-07
6.41459e-07
6.48854e-07
6.56544e-07
6.64509e-07
6.7273e-07
6.8119e-07
6.89871e-07
6.98755e-07
7.07826e-07
7.17067e-07
7.26464e-07
7.36001e-07
7.45664e-07
7.5544e-07
7.65315e-07
7.75277e-07
7.85314e-07
7.95415e-07
8.0557e-07
8.15767e-07
8.25997e-07
8.36252e-07
8.46522e-07
8.56798e-07
8.67074e-07
8.77341e-07
8.87593e-07
8.97823e-07
9.08024e-07
9.1819e-07
9.28317e-07
9.38398e-07
9.48428e-07
9.58403e-07
9.68319e-07
9.7817e-07
9.87953e-07
9.97664e-07
1.0073e-06
1.01686e-06
1.02633e-06
6.03567e-07
6.08697e-07
6.14255e-07
6.20213e-07
6.2655e-07
6.33245e-07
6.40278e-07
6.47628e-07
6.55276e-07
6.63203e-07
6.71389e-07
6.79816e-07
6.88467e-07
6.97323e-07
7.06369e-07
7.15588e-07
7.24964e-07
7.34483e-07
7.44129e-07
7.53891e-07
7.63753e-07
7.73705e-07
7.83733e-07
7.93827e-07
8.03976e-07
8.14169e-07
8.24397e-07
8.3465e-07
8.4492e-07
8.55198e-07
8.65476e-07
8.75746e-07
8.86003e-07
8.96238e-07
9.06445e-07
9.16619e-07
9.26754e-07
9.36843e-07
9.46883e-07
9.56869e-07
9.66795e-07
9.76658e-07
9.86453e-07
9.96176e-07
1.00583e-06
1.0154e-06
1.02488e-06
6.02875e-07
6.0795e-07
6.13453e-07
6.19361e-07
6.25651e-07
6.32302e-07
6.39294e-07
6.46607e-07
6.5422e-07
6.62114e-07
6.7027e-07
6.7867e-07
6.87295e-07
6.96128e-07
7.05153e-07
7.14352e-07
7.23711e-07
7.33214e-07
7.42847e-07
7.52596e-07
7.62448e-07
7.72391e-07
7.82412e-07
7.925e-07
8.02644e-07
8.12833e-07
8.23059e-07
8.3331e-07
8.4358e-07
8.53859e-07
8.64138e-07
8.74412e-07
8.84672e-07
8.94911e-07
9.05124e-07
9.15304e-07
9.25445e-07
9.35542e-07
9.4559e-07
9.55584e-07
9.65519e-07
9.75391e-07
9.85196e-07
9.9493e-07
1.00459e-06
1.01417e-06
1.02367e-06
6.02324e-07
6.07355e-07
6.12815e-07
6.18681e-07
6.24933e-07
6.31549e-07
6.38508e-07
6.4579e-07
6.53374e-07
6.61242e-07
6.69374e-07
6.77751e-07
6.86356e-07
6.9517e-07
7.04178e-07
7.13362e-07
7.22706e-07
7.32197e-07
7.41819e-07
7.51558e-07
7.61402e-07
7.71337e-07
7.81352e-07
7.91434e-07
8.01574e-07
8.11761e-07
8.21984e-07
8.32235e-07
8.42504e-07
8.52784e-07
8.63065e-07
8.7334e-07
8.83603e-07
8.93846e-07
9.04063e-07
9.14247e-07
9.24394e-07
9.34497e-07
9.44551e-07
9.54551e-07
9.64494e-07
9.74374e-07
9.84187e-07
9.93929e-07
1.0036e-06
1.01319e-06
1.0227e-06
1.03212e-06
6.01913e-07
6.0691e-07
6.12337e-07
6.18173e-07
6.24396e-07
6.30985e-07
6.37919e-07
6.45177e-07
6.5274e-07
6.60588e-07
6.68702e-07
6.77062e-07
6.85651e-07
6.94451e-07
7.03446e-07
7.12618e-07
7.21952e-07
7.31433e-07
7.41046e-07
7.50778e-07
7.60615e-07
7.70545e-07
7.80555e-07
7.90634e-07
8.00771e-07
8.10955e-07
8.21177e-07
8.31427e-07
8.41696e-07
8.51975e-07
8.62257e-07
8.72534e-07
8.82799e-07
8.93045e-07
9.03265e-07
9.13453e-07
9.23603e-07
9.3371e-07
9.43769e-07
9.53775e-07
9.63723e-07
9.73608e-07
9.83427e-07
9.93176e-07
1.00285e-06
1.01245e-06
1.02197e-06
1.0314e-06
6.0164e-07
6.06614e-07
6.12019e-07
6.17834e-07
6.24038e-07
6.30609e-07
6.37526e-07
6.44769e-07
6.52318e-07
6.60152e-07
6.68254e-07
6.76603e-07
6.85181e-07
6.93972e-07
7.02957e-07
7.12121e-07
7.21448e-07
7.30923e-07
7.40531e-07
7.50257e-07
7.6009e-07
7.70016e-07
7.80023e-07
7.90099e-07
8.00234e-07
8.10417e-07
8.20637e-07
8.30887e-07
8.41155e-07
8.51435e-07
8.61718e-07
8.71996e-07
8.82262e-07
8.9251e-07
9.02731e-07
9.12922e-07
9.23075e-07
9.33185e-07
9.43247e-07
9.53256e-07
9.63207e-07
9.73097e-07
9.8292e-07
9.92673e-07
1.00235e-06
1.01195e-06
1.02148e-06
1.03091e-06
1.04026e-06
6.01504e-07
6.06467e-07
6.11861e-07
6.17665e-07
6.23859e-07
6.30421e-07
6.3733e-07
6.44565e-07
6.52107e-07
6.59934e-07
6.68029e-07
6.76373e-07
6.84946e-07
6.93732e-07
7.02713e-07
7.11873e-07
7.21196e-07
7.30668e-07
7.40273e-07
7.49997e-07
7.59827e-07
7.69751e-07
7.79757e-07
7.89832e-07
7.99965e-07
8.10147e-07
8.20367e-07
8.30616e-07
8.40885e-07
8.51165e-07
8.61448e-07
8.71727e-07
8.81994e-07
8.92242e-07
9.02465e-07
9.12656e-07
9.2281e-07
9.32922e-07
9.42985e-07
9.52996e-07
9.62949e-07
9.72841e-07
9.82666e-07
9.92421e-07
1.0021e-06
1.01171e-06
1.02123e-06
1.03067e-06
1.04002e-06
6.01504e-07
6.06467e-07
6.11861e-07
6.17665e-07
6.23859e-07
6.30421e-07
6.3733e-07
6.44565e-07
6.52107e-07
6.59934e-07
6.68029e-07
6.76373e-07
6.84946e-07
6.93732e-07
7.02713e-07
7.11873e-07
7.21196e-07
7.30668e-07
7.40273e-07
7.49997e-07
7.59827e-07
7.69751e-07
7.79757e-07
7.89832e-07
7.99965e-07
8.10147e-07
8.20367e-07
8.30616e-07
8.40885e-07
8.51165e-07
8.61448e-07
8.71727e-07
8.81994e-07
8.92242e-07
9.02465e-07
9.12656e-07
9.2281e-07
9.32922e-07
9.42985e-07
9.52996e-07
9.62949e-07
9.72841e-07
9.82666e-07
9.92421e-07
1.0021e-06
1.01171e-06
1.02123e-06
1.03067e-06
1.04002e-06
1.04929e-06
6.0164e-07
6.06614e-07
6.12019e-07
6.17834e-07
6.24038e-07
6.30609e-07
6.37526e-07
6.44769e-07
6.52318e-07
6.60152e-07
6.68254e-07
6.76603e-07
6.85181e-07
6.93972e-07
7.02957e-07
7.12121e-07
7.21448e-07
7.30923e-07
7.40531e-07
7.50257e-07
7.6009e-07
7.70016e-07
7.80023e-07
7.90099e-07
8.00234e-07
8.10417e-07
8.20637e-07
8.30887e-07
8.41155e-07
8.51435e-07
8.61718e-07
8.71996e-07
8.82262e-07
8.9251e-07
9.02731e-07
9.12922e-07
9.23075e-07
9.33185e-07
9.43247e-07
9.53256e-07
9.63207e-07
9.73097e-07
9.8292e-07
9.92673e-07
1.00235e-06
1.01195e-06
1.02148e-06
1.03091e-06
1.04026e-06
1.04953e-06
6.01913e-07
6.0691e-07
6.12337e-07
6.18173e-07
6.24396e-07
6.30985e-07
6.37919e-07
6.45177e-07
6.5274e-07
6.60588e-07
6.68702e-07
6.77062e-07
6.85651e-07
6.94451e-07
7.03446e-07
7.12618e-07
7.21952e-07
7.31433e-07
7.41046e-07
7.50778e-07
7.60615e-07
7.70545e-07
7.80555e-07
7.90634e-07
8.00771e-07
8.10955e-07
8.21177e-07
8.31427e-07
8.41696e-07
8.51975e-07
8.62257e-07
8.72534e-07
8.82799e-07
8.93045e-07
9.03265e-07
9.13453e-07
9.23603e-07
9.3371e-07
9.43769e-07
9.53775e-07
9.63723e-07
9.73608e-07
9.83427e-07
9.93176e-07
1.00285e-06
1.01245e-06
1.02197e-06
1.0314e-06
1.04074e-06
1.05e-06
6.02324e-07
6.07355e-07
6.12815e-07
6.18681e-07
6.24933e-07
6.31549e-07
6.38508e-07
6.4579e-07
6.53374e-07
6.61242e-07
6.69374e-07
6.77751e-07
6.86356e-07
6.9517e-07
7.04178e-07
7.13362e-07
7.22706e-07
7.32197e-07
7.41819e-07
7.51558e-07
7.61402e-07
7.71337e-07
7.81352e-07
7.91434e-07
8.01574e-07
8.11761e-07
8.21984e-07
8.32235e-07
8.42504e-07
8.52784e-07
8.63065e-07
8.7334e-07
8.83603e-07
8.93846e-07
9.04063e-07
9.14247e-07
9.24394e-07
9.34497e-07
9.44551e-07
9.54551e-07
9.64494e-07
9.74374e-07
9.84187e-07
9.93929e-07
1.0036e-06
1.01319e-06
1.0227e-06
1.03212e-06
1.04146e-06
1.05071e-06
6.02875e-07
6.0795e-07
6.13453e-07
6.19361e-07
6.25651e-07
6.32302e-07
6.39294e-07
6.46607e-07
6.5422e-07
6.62114e-07
6.7027e-07
6.78669e-07
6.87295e-07
6.96128e-07
7.05152e-07
7.14352e-07
7.23711e-07
7.33214e-07
7.42847e-07
7.52596e-07
7.62448e-07
7.72391e-07
7.82412e-07
7.925e-07
8.02644e-07
8.12833e-07
8.23059e-07
8.3331e-07
8.4358e-07
8.53858e-07
8.64138e-07
8.74412e-07
8.84672e-07
8.94911e-07
9.05124e-07
9.15304e-07
9.25445e-07
9.35542e-07
9.4559e-07
9.55584e-07
9.65519e-07
9.75391e-07
9.85196e-07
9.9493e-07
1.00459e-06
1.01417e-06
1.02367e-06
1.03309e-06
1.04242e-06
1.05166e-06
6.03567e-07
6.08697e-07
6.14255e-07
6.20213e-07
6.2655e-07
6.33245e-07
6.40278e-07
6.47628e-07
6.55276e-07
6.63203e-07
6.71389e-07
6.79816e-07
6.88467e-07
6.97323e-07
7.06369e-07
7.15588e-07
7.24964e-07
7.34482e-07
7.44129e-07
7.53891e-07
7.63753e-07
7.73705e-07
7.83733e-07
7.93827e-07
8.03976e-07
8.14169e-07
8.24397e-07
8.3465e-07
8.4492e-07
8.55198e-07
8.65476e-07
8.75746e-07
8.86003e-07
8.96238e-07
9.06445e-07
9.16619e-07
9.26754e-07
9.36843e-07
9.46883e-07
9.56869e-07
9.66795e-07
9.76658e-07
9.86453e-07
9.96176e-07
1.00583e-06
1.0154e-06
1.02488e-06
1.03429e-06
1.0436e-06
1.05283e-06
6.04404e-07
6.096e-07
6.15221e-07
6.21239e-07
6.27631e-07
6.34379e-07
6.41459e-07
6.48854e-07
6.56544e-07
6.64509e-07
6.7273e-07
6.8119e-07
6.89871e-07
6.98755e-07
7.07826e-07
7.17067e-07
7.26464e-07
7.36001e-07
7.45664e-07
7.55439e-07
7.65315e-07
7.75277e-07
7.85314e-07
7.95415e-07
8.0557e-07
8.15767e-07
8.25997e-07
8.36252e-07
8.46521e-07
8.56798e-07
8.67074e-07
8.77341e-07
8.87593e-07
8.97822e-07
9.08024e-07
9.1819e-07
9.28317e-07
9.38398e-07
9.48428e-07
9.58403e-07
9.68319e-07
9.7817e-07
9.87953e-07
9.97664e-07
1.0073e-06
1.01686e-06
1.02633e-06
1.03572e-06
1.04502e-06
1.05423e-06
6.05389e-07
6.10659e-07
6.16354e-07
6.2244e-07
6.28897e-07
6.35703e-07
6.4284e-07
6.50286e-07
6.58023e-07
6.66032e-07
6.74294e-07
6.82791e-07
6.91506e-07
7.00422e-07
7.09521e-07
7.18789e-07
7.28209e-07
7.37767e-07
7.47448e-07
7.5724e-07
7.67129e-07
7.77103e-07
7.87151e-07
7.9726e-07
8.07421e-07
8.17622e-07
8.27856e-07
8.38112e-07
8.48381e-07
8.58656e-07
8.68929e-07
8.79192e-07
8.89438e-07
8.99662e-07
9.09855e-07
9.20013e-07
9.3013e-07
9.40201e-07
9.5022e-07
9.60183e-07
9.70086e-07
9.79923e-07
9.89692e-07
9.99389e-07
1.00901e-06
1.01855e-06
1.02801e-06
1.03738e-06
1.04666e-06
1.05586e-06
6.06524e-07
6.11879e-07
6.17656e-07
6.23819e-07
6.30348e-07
6.37221e-07
6.44419e-07
6.51922e-07
6.59712e-07
6.6777e-07
6.76078e-07
6.84617e-07
6.93371e-07
7.02322e-07
7.11453e-07
7.2075e-07
7.30196e-07
7.39777e-07
7.4948e-07
7.5929e-07
7.69194e-07
7.79182e-07
7.8924e-07
7.99358e-07
8.09526e-07
8.19732e-07
8.29969e-07
8.40226e-07
8.50495e-07
8.60768e-07
8.71037e-07
8.81295e-07
8.91535e-07
9.01751e-07
9.11935e-07
9.22084e-07
9.3219e-07
9.42248e-07
9.52255e-07
9.62204e-07
9.72092e-07
9.81914e-07
9.91666e-07
1.00135e-06
1.01095e-06
1.02047e-06
1.02991e-06
1.03926e-06
1.04853e-06
1.0577e-06
6.07814e-07
6.13263e-07
6.1913e-07
6.25378e-07
6.31985e-07
6.38931e-07
6.46197e-07
6.53764e-07
6.61612e-07
6.69724e-07
6.78082e-07
6.86667e-07
6.95463e-07
7.04453e-07
7.1362e-07
7.22948e-07
7.32423e-07
7.4203e-07
7.51755e-07
7.61585e-07
7.71507e-07
7.81508e-07
7.91578e-07
8.01706e-07
8.11881e-07
8.22092e-07
8.32331e-07
8.42589e-07
8.52857e-07
8.63128e-07
8.73393e-07
8.83645e-07
8.93878e-07
9.04084e-07
9.14259e-07
9.24396e-07
9.34489e-07
9.44534e-07
9.54526e-07
9.64459e-07
9.74331e-07
9.84135e-07
9.9387e-07
1.00353e-06
1.01311e-06
1.02261e-06
1.03203e-06
1.04136e-06
1.05061e-06
1.05976e-06
6.09263e-07
6.14812e-07
6.20778e-07
6.27118e-07
6.3381e-07
6.40836e-07
6.48175e-07
6.5581e-07
6.63722e-07
6.71892e-07
6.80304e-07
6.8894e-07
6.97781e-07
7.06813e-07
7.16018e-07
7.25381e-07
7.34887e-07
7.44522e-07
7.54271e-07
7.64122e-07
7.74062e-07
7.84079e-07
7.94161e-07
8.04299e-07
8.14481e-07
8.24697e-07
8.34939e-07
8.45198e-07
8.55465e-07
8.65731e-07
8.75991e-07
8.86237e-07
8.96461e-07
9.06657e-07
9.16821e-07
9.26944e-07
9.37024e-07
9.47053e-07
9.57028e-07
9.66944e-07
9.76797e-07
9.86582e-07
9.96296e-07
1.00593e-06
1.0155e-06
1.02497e-06
1.03437e-06
1.04368e-06
1.05289e-06
1.06202e-06
6.10874e-07
6.16532e-07
6.22603e-07
6.29042e-07
6.35825e-07
6.42935e-07
6.50353e-07
6.5806e-07
6.6604e-07
6.74273e-07
6.82743e-07
6.91432e-07
7.00323e-07
7.09399e-07
7.18645e-07
7.28045e-07
7.37584e-07
7.47248e-07
7.57023e-07
7.66897e-07
7.76856e-07
7.86888e-07
7.96984e-07
8.07132e-07
8.17321e-07
8.27542e-07
8.37787e-07
8.48045e-07
8.5831e-07
8.68573e-07
8.78826e-07
8.89064e-07
8.99278e-07
9.09463e-07
9.19613e-07
9.29723e-07
9.39786e-07
9.49799e-07
9.59755e-07
9.69652e-07
9.79484e-07
9.89247e-07
9.98938e-07
1.00855e-06
1.01809e-06
1.02754e-06
1.03691e-06
1.04619e-06
1.05538e-06
1.06448e-06
6.12651e-07
6.18425e-07
6.24608e-07
6.31151e-07
6.38031e-07
6.4523e-07
6.5273e-07
6.60514e-07
6.68565e-07
6.76865e-07
6.85396e-07
6.94142e-07
7.03085e-07
7.12209e-07
7.21498e-07
7.30937e-07
7.40511e-07
7.50206e-07
7.60008e-07
7.69904e-07
7.79883e-07
7.89933e-07
8.00041e-07
8.10199e-07
8.20396e-07
8.30622e-07
8.40868e-07
8.51126e-07
8.61388e-07
8.71645e-07
8.81891e-07
8.92119e-07
9.02323e-07
9.12495e-07
9.22631e-07
9.32724e-07
9.4277e-07
9.52763e-07
9.62699e-07
9.72574e-07
9.82383e-07
9.92123e-07
1.00179e-06
1.01138e-06
1.02089e-06
1.03032e-06
1.03966e-06
1.04891e-06
1.05807e-06
1.06713e-06
6.14599e-07
6.20495e-07
6.26795e-07
6.33447e-07
6.40427e-07
6.47719e-07
6.55306e-07
6.63171e-07
6.71296e-07
6.79666e-07
6.88262e-07
6.97067e-07
7.06065e-07
7.15239e-07
7.24573e-07
7.34053e-07
7.43663e-07
7.5339e-07
7.6322e-07
7.7314e-07
7.83139e-07
7.93205e-07
8.03328e-07
8.13495e-07
8.23699e-07
8.33929e-07
8.44176e-07
8.54433e-07
8.64691e-07
8.74942e-07
8.8518e-07
8.95397e-07
9.05588e-07
9.15746e-07
9.25865e-07
9.3594e-07
9.45967e-07
9.55939e-07
9.65853e-07
9.75704e-07
9.85489e-07
9.95202e-07
1.00484e-06
1.0144e-06
1.02388e-06
1.03328e-06
1.04259e-06
1.05181e-06
1.06094e-06
1.06997e-06
6.16721e-07
6.22744e-07
6.29167e-07
6.35931e-07
6.43015e-07
6.50404e-07
6.5808e-07
6.66028e-07
6.74232e-07
6.82674e-07
6.91337e-07
7.00204e-07
7.09259e-07
7.18485e-07
7.27867e-07
7.37388e-07
7.47036e-07
7.56796e-07
7.66654e-07
7.76599e-07
7.86619e-07
7.96701e-07
8.06837e-07
8.17014e-07
8.27224e-07
8.37457e-07
8.47705e-07
8.57959e-07
8.68212e-07
8.78456e-07
8.88683e-07
8.98889e-07
9.09065e-07
9.19207e-07
9.29308e-07
9.39364e-07
9.49369e-07
9.59319e-07
9.69208e-07
9.79034e-07
9.88791e-07
9.98476e-07
1.00809e-06
1.01762e-06
1.02707e-06
1.03643e-06
1.04571e-06
1.05489e-06
1.06399e-06
1.07299e-06
6.19022e-07
6.25177e-07
6.31725e-07
6.38605e-07
6.45795e-07
6.53282e-07
6.6105e-07
6.69084e-07
6.77368e-07
6.85886e-07
6.94619e-07
7.03551e-07
7.12665e-07
7.21944e-07
7.31374e-07
7.40939e-07
7.50625e-07
7.60418e-07
7.70305e-07
7.80275e-07
7.90315e-07
8.00414e-07
8.10562e-07
8.20748e-07
8.30964e-07
8.41199e-07
8.51446e-07
8.61697e-07
8.71943e-07
8.82178e-07
8.92395e-07
9.02586e-07
9.12747e-07
9.22871e-07
9.32952e-07
9.42986e-07
9.52968e-07
9.62892e-07
9.72756e-07
9.82553e-07
9.92281e-07
1.00194e-06
1.01151e-06
1.02101e-06
1.03043e-06
1.03976e-06
1.049e-06
1.05815e-06
1.06721e-06
1.07617e-06
6.21505e-07
6.27796e-07
6.34472e-07
6.41468e-07
6.48766e-07
6.56353e-07
6.64214e-07
6.72337e-07
6.80704e-07
6.89299e-07
6.98105e-07
7.07103e-07
7.16277e-07
7.25611e-07
7.35091e-07
7.44699e-07
7.54424e-07
7.64251e-07
7.74168e-07
7.84162e-07
7.94221e-07
8.04336e-07
8.14496e-07
8.24691e-07
8.34911e-07
8.45148e-07
8.55393e-07
8.65638e-07
8.75877e-07
8.86101e-07
8.96305e-07
9.06481e-07
9.16624e-07
9.26728e-07
9.36788e-07
9.46798e-07
9.56754e-07
9.66652e-07
9.76486e-07
9.86254e-07
9.9595e-07
1.00557e-06
1.01512e-06
1.02458e-06
1.03396e-06
1.04325e-06
1.05246e-06
1.06157e-06
1.07058e-06
1.0795e-06
6.24175e-07
6.30603e-07
6.37408e-07
6.44521e-07
6.51926e-07
6.59613e-07
6.67571e-07
6.75784e-07
6.84237e-07
6.92912e-07
7.01791e-07
7.10857e-07