/*--------------------------------*- C++ -*----------------------------------*\
  =========                 |
  \\      /  F ield         | OpenFOAM: The Open Source CFD Toolbox
   \\    /   O peration     | Website:  https://openfoam.org
    \\  /    A nd           | Version:  7
     \\/     M anipulation  |
\*---------------------------------------------------------------------------*/
FoamFile
{
    version     2.0;
    format      ascii;
    class       surfaceScalarField;
    location    "208000";
    object      phi;
}
// * * * * * * * * * * * * * * * * * * * * * * * * * * * * * * * * * * * * * //

dimensions      [0 3 -1 0 0 0 0];

internalField   nonuniform List<scalar> 
9444
(
-2.06193e-24
-1.76008e-23
1.50618e-23
1.39311e-23
-6.80324e-24
-1.40926e-23
5.94426e-24
1.41855e-23
-2.92753e-23
5.36001e-24
-2.44586e-23
-3.36782e-23
9.36032e-24
1.6152e-24
-2.28573e-23
-8.41259e-25
-3.74721e-23
-1.79041e-23
-1.65428e-23
-2.06435e-23
-1.21178e-23
-7.0476e-24
-1.82235e-23
-1.86946e-24
1.19422e-25
3.97207e-23
5.6039e-24
6.90174e-24
-1.58006e-23
-2.0307e-23
2.03581e-24
-1.96991e-23
-1.95122e-23
2.87787e-23
-2.1036e-23
-1.08533e-23
1.56572e-23
-1.35512e-23
-6.68006e-24
9.02674e-24
-1.98071e-23
-3.64705e-24
2.06236e-23
5.55231e-26
6.723e-24
4.367e-23
4.85787e-23
1.04442e-23
1.13585e-23
3.61295e-24
3.35384e-25
-2.69866e-23
-9.24027e-24
-1.84873e-23
-3.96909e-23
3.50826e-23
-9.40404e-24
-3.98481e-23
2.43937e-23
-5.75097e-24
-5.21276e-23
-6.34209e-24
1.50612e-23
-5.51551e-23
4.43652e-23
-4.29855e-23
-1.74637e-23
-4.49171e-23
3.65354e-23
-5.23602e-23
-4.7421e-23
-2.91577e-24
-2.00461e-23
-1.53366e-23
-2.6704e-23
1.43742e-24
-4.25994e-23
-4.55897e-23
-4.43064e-23
-2.54986e-23
-3.46821e-23
-1.16322e-23
-1.75161e-23
-7.22454e-24
-7.44351e-24
-1.39891e-23
-1.05122e-23
-5.74159e-24
-1.81079e-23
-3.17002e-24
-1.802e-23
-7.52452e-24
2.27407e-24
-3.98352e-24
-2.44955e-24
7.75389e-24
-1.2073e-24
3.22263e-23
-8.95948e-24
-3.00103e-23
-6.2531e-24
2.59392e-24
1.4826e-23
3.73661e-23
2.06208e-23
6.56534e-23
3.73526e-23
4.71332e-23
3.47536e-23
3.68758e-23
-2.82647e-23
-1.21709e-23
5.5883e-23
-1.51431e-23
-4.52788e-24
-1.59773e-23
-2.61707e-23
-2.84645e-23
-2.41723e-23
-6.32357e-24
-1.29275e-24
-1.84334e-23
-3.78375e-23
-1.56083e-23
-3.40601e-23
-1.1765e-24
-4.23019e-23
-2.09284e-23
-5.60199e-23
-3.40962e-23
-6.11303e-23
-1.35141e-23
-3.23571e-23
3.31048e-23
-1.28372e-24
-1.44381e-23
-2.53921e-23
-1.63105e-23
-2.34215e-24
-1.32289e-23
1.61866e-24
3.17417e-23
1.91306e-23
1.10579e-23
1.92966e-23
4.18961e-24
2.4598e-23
6.21716e-23
3.43004e-23
6.22853e-23
4.18194e-23
6.00542e-23
4.10879e-23
3.18121e-23
-2.70193e-23
-2.33333e-23
2.89932e-23
-2.27667e-23
-1.86855e-23
-1.07218e-23
2.01494e-23
1.59786e-23
1.13695e-23
-4.48132e-23
-1.47106e-23
-8.89705e-24
-2.4217e-24
-2.12901e-23
-1.76412e-23
-2.53892e-23
-3.00702e-23
-2.9544e-23
-5.03689e-23
-6.1783e-24
-1.8192e-23
3.06553e-23
-9.37734e-24
-1.01581e-23
-3.54874e-23
3.42037e-24
-4.3439e-23
-1.3898e-23
-5.70287e-23
4.93414e-24
-1.55639e-23
2.93722e-23
9.91875e-25
2.19895e-23
2.69623e-23
1.74953e-23
2.94223e-23
7.21137e-23
4.43809e-23
6.41329e-23
3.74096e-23
5.08364e-23
5.06624e-23
3.25289e-23
-2.27533e-23
-1.67334e-23
1.74405e-23
2.41484e-23
-2.64616e-24
-1.10265e-23
-1.62748e-23
5.53549e-24
-5.1171e-24
-1.95526e-23
7.75384e-24
-1.56305e-23
-5.23948e-24
-2.18077e-23
-1.01084e-23
-4.76763e-23
-6.079e-24
1.37392e-23
9.32816e-24
5.71126e-24
-1.54198e-23
5.11617e-24
-1.32351e-23
-1.43941e-23
-2.03786e-23
-1.88172e-23
-3.85739e-23
3.33016e-23
-3.6367e-23
1.79241e-23
-8.04524e-24
6.84106e-23
1.90966e-23
2.28735e-23
-5.16895e-25
3.68592e-23
1.10209e-23
5.16568e-23
2.92973e-23
8.1324e-23
1.06307e-23
2.58432e-23
-2.04292e-23
-1.76989e-23
-1.02708e-23
-1.8702e-23
1.72747e-23
1.25933e-24
-9.62103e-24
-1.19598e-23
-8.9844e-24
4.91155e-24
-2.6657e-23
-3.07514e-23
-2.37683e-23
-3.2972e-23
-9.55642e-24
-1.83569e-23
-2.4584e-23
-2.35469e-23
-8.53845e-24
-2.76108e-23
7.37807e-24
1.60319e-23
1.35812e-23
-3.93716e-24
2.96251e-24
-1.56091e-23
-7.73456e-24
-1.66916e-23
-2.94749e-23
7.68074e-23
-3.23156e-24
5.35563e-23
2.30117e-23
5.32537e-23
2.40091e-23
3.59309e-23
1.08823e-23
5.10723e-23
-4.84941e-24
2.78946e-23
-1.88811e-23
5.07313e-23
-7.02708e-24
2.81127e-23
-5.46502e-24
3.1856e-24
1.81971e-23
1.13484e-23
2.07507e-23
-1.23779e-24
9.14127e-24
-1.68439e-23
4.70536e-24
6.68863e-24
2.1222e-23
-6.65169e-24
-1.19769e-23
-4.93112e-23
-3.68236e-23
-7.03469e-24
7.16291e-26
1.06025e-25
-2.02158e-23
-2.34153e-23
-3.90128e-23
5.22888e-24
-2.04483e-23
-1.71539e-24
7.2283e-24
-3.96621e-23
2.67352e-23
1.32864e-23
4.68941e-23
1.07124e-22
8.3442e-23
6.18678e-23
6.23317e-23
3.11982e-23
4.8001e-23
2.83898e-23
1.68117e-23
2.90579e-23
6.52085e-24
3.3617e-23
-1.12981e-23
4.83989e-23
-2.03869e-23
4.27973e-23
-3.02619e-23
-2.37774e-23
1.81872e-23
1.21323e-23
-2.20912e-23
3.56345e-24
1.83278e-23
8.38487e-25
3.62079e-24
-2.25052e-23
-2.93441e-23
-1.52117e-23
-2.00563e-23
-4.24366e-24
1.75454e-23
-2.49899e-23
1.87427e-23
-1.9604e-23
3.09918e-23
-1.09744e-23
2.33463e-23
1.79584e-23
2.26614e-23
2.71317e-23
-4.20969e-24
-1.62842e-23
4.26952e-24
3.77475e-23
6.74671e-23
6.62691e-23
5.1323e-23
5.96482e-23
1.79112e-25
-4.64147e-24
-6.80568e-24
2.02742e-23
2.53797e-23
7.80547e-24
3.08648e-23
2.80157e-23
4.07354e-23
4.48367e-23
2.83273e-23
5.28407e-23
2.21073e-23
2.44878e-23
2.04856e-23
-1.75026e-23
-5.27607e-23
-1.15928e-23
-1.45221e-23
-1.81883e-23
-5.66035e-23
-2.63984e-23
-1.99801e-23
1.7993e-23
3.37046e-24
-8.9336e-24
-2.4162e-23
-1.33412e-23
-5.32473e-23
-2.69636e-23
-2.92596e-23
2.59066e-24
-6.25699e-24
-8.38894e-24
-3.49455e-23
2.28246e-23
-2.80808e-23
3.32166e-23
-2.24762e-24
1.28868e-23
1.86244e-23
2.35399e-23
3.59545e-23
5.27593e-23
4.0129e-23
2.62183e-23
3.33834e-23
2.59043e-23
4.26727e-23
2.55246e-23
3.69486e-23
1.99508e-23
4.79602e-23
4.14191e-23
7.65823e-23
5.82382e-23
6.14644e-23
4.19261e-23
2.53048e-23
-1.87278e-23
-2.10496e-23
-4.71704e-23
-5.82497e-23
-9.18247e-24
-2.39873e-23
-1.3226e-23
-1.44349e-23
-8.64869e-25
-1.2454e-23
-4.82675e-23
-4.69949e-23
2.86518e-24
-3.882e-23
-1.59775e-23
-1.81242e-23
-2.08702e-23
-5.89164e-24
-1.02696e-23
2.15042e-23
4.51885e-23
4.21737e-23
6.0607e-23
5.58712e-23
3.2479e-23
4.0459e-23
3.01555e-23
3.77586e-23
5.62508e-23
2.46026e-23
4.32015e-23
5.58017e-23
2.09783e-23
7.27241e-23
2.92546e-23
4.05357e-23
4.342e-23
3.52912e-23
2.53162e-23
2.69789e-23
4.79574e-23
3.25119e-23
7.13257e-23
-2.45287e-24
-3.81887e-24
-4.78259e-24
-1.61938e-23
-3.74121e-23
-7.5066e-24
-2.68549e-23
3.25316e-24
-2.32975e-23
-1.58746e-23
1.74314e-24
-3.01224e-23
3.52685e-23
4.32748e-24
4.89151e-23
-6.47261e-24
-9.49769e-24
-1.72608e-24
-4.89585e-24
7.97699e-24
2.41359e-23
6.08406e-23
5.61404e-23
5.71934e-23
5.84223e-23
3.58951e-23
6.43053e-23
1.87933e-23
5.51796e-23
7.15024e-23
4.35902e-23
5.99802e-23
6.80124e-24
-9.13113e-24
2.13442e-23
2.71044e-23
1.34239e-23
3.93294e-23
2.63807e-23
2.53541e-23
4.0721e-23
7.45838e-23
4.39795e-23
4.37328e-23
-1.61906e-23
-2.64782e-23
-2.56522e-23
-2.03365e-24
1.93132e-23
-7.04936e-24
-1.70743e-23
1.59306e-23
-4.66718e-23
1.21321e-24
-5.46014e-23
-1.90618e-23
-7.03762e-23
-2.73899e-23
-6.70948e-23
1.71547e-24
-3.68002e-23
7.7038e-24
-7.98862e-24
3.36455e-23
7.32128e-24
5.73563e-23
3.37889e-23
6.25177e-23
4.88512e-23
3.04699e-23
2.71718e-23
1.17656e-23
3.61874e-24
3.82197e-23
2.75832e-23
7.33314e-23
3.73778e-23
-1.80403e-23
-6.04109e-24
3.21389e-23
3.15271e-23
4.62903e-23
7.76579e-23
3.26032e-23
5.34406e-23
7.16273e-23
6.46922e-23
4.08624e-23
1.76362e-23
1.1992e-23
1.32384e-23
-1.11802e-23
-1.46639e-23
-2.93747e-23
4.45386e-24
1.77999e-23
3.49619e-23
-1.88451e-23
-1.48536e-23
-1.70268e-23
-6.82784e-23
-3.46206e-23
-4.85132e-23
1.66633e-23
-1.66125e-23
2.13154e-23
-1.01299e-23
3.56293e-23
7.35772e-26
5.97331e-23
1.56109e-23
4.39898e-23
-5.38712e-24
1.42373e-23
-1.10525e-23
2.06059e-23
-5.3338e-24
4.00385e-23
1.28832e-23
4.88352e-23
3.20933e-23
6.88348e-24
3.88148e-23
6.16667e-23
4.27053e-23
3.28161e-23
3.21125e-23
4.46754e-23
4.36643e-23
5.37658e-23
5.58972e-23
6.78919e-23
4.16717e-24
1.35347e-23
-4.07908e-24
-6.89786e-24
-5.21458e-24
-2.11002e-23
-4.26359e-23
-1.51541e-23
-2.84601e-23
-4.22985e-23
-5.06203e-23
-5.40553e-24
-3.40792e-23
-6.33371e-24
-3.76436e-23
2.5802e-23
2.19198e-23
2.13865e-23
5.8428e-23
4.14955e-23
5.18723e-23
4.56021e-23
2.10181e-23
4.29995e-23
2.20673e-24
1.84025e-23
-5.41614e-23
2.96699e-23
-9.20191e-24
5.59932e-23
4.91756e-23
4.36061e-23
3.7428e-23
1.95624e-23
-4.96706e-24
5.38715e-23
1.62376e-23
4.18517e-23
3.72554e-23
4.2533e-23
2.9493e-23
6.39761e-23
-7.55435e-24
-1.67526e-23
-2.30081e-23
-1.32558e-23
-4.90089e-24
-1.84303e-23
3.49973e-23
-3.37634e-23
-8.31448e-24
-3.00606e-23
-4.01506e-23
-1.49212e-23
-3.53807e-23
2.79066e-23
-9.45874e-24
4.46508e-23
7.41619e-24
3.01264e-23
-1.15109e-24
2.91432e-23
5.3113e-23
3.4058e-23
8.07475e-23
2.00444e-23
2.27409e-23
3.8435e-23
-7.39516e-24
6.44639e-23
3.04466e-23
5.78416e-23
5.42536e-23
3.0359e-23
6.1503e-23
2.73773e-23
6.43202e-23
6.02289e-23
5.30449e-23
3.82852e-23
5.40844e-23
-4.15246e-24
-4.75101e-24
-4.34212e-24
-1.55164e-24
-9.22296e-24
-3.51823e-23
-4.41341e-23
-3.91104e-23
2.79315e-24
-2.24649e-23
2.1298e-23
4.01591e-24
6.67712e-23
3.69929e-23
8.33956e-23
3.04612e-23
2.24638e-23
4.80088e-23
4.57119e-23
4.12717e-23
5.85639e-23
1.70275e-23
3.2621e-23
9.31482e-24
3.85796e-23
5.89748e-23
6.04078e-23
7.63601e-23
7.97013e-23
6.20343e-23
6.80005e-23
3.32976e-23
1.88081e-23
1.40024e-23
1.85443e-23
6.42357e-23
-6.31971e-24
3.27499e-24
5.74524e-24
-1.17362e-23
-8.46035e-24
-1.23027e-24
-7.26359e-24
-3.47281e-23
6.72233e-24
1.14932e-23
4.41192e-23
2.16494e-23
7.01615e-23
1.42078e-23
9.86888e-23
4.70718e-23
5.19354e-23
6.41923e-23
9.36442e-23
4.39173e-23
8.08535e-23
2.86843e-23
1.08841e-22
1.70073e-23
1.1359e-22
6.29762e-23
7.88777e-23
7.36851e-23
6.55708e-23
4.07128e-23
3.45013e-23
-3.52662e-24
1.4166e-23
-1.38554e-24
-1.83017e-23
1.86892e-24
4.11197e-24
8.51995e-24
-1.21136e-23
-1.60126e-23
8.10666e-24
3.98764e-23
3.14147e-23
5.25083e-23
-2.06292e-23
3.15522e-23
6.86718e-23
7.87406e-23
5.23568e-23
3.92802e-23
5.81072e-23
6.93114e-23
3.11811e-23
6.62148e-23
6.8373e-24
6.35129e-23
5.9826e-23
-8.92771e-24
-2.91395e-25
-3.95922e-24
3.18796e-24
-6.55509e-24
-1.23212e-23
2.28848e-23
1.60209e-23
5.04638e-23
1.55861e-23
4.81041e-23
1.61075e-23
6.11614e-23
1.22603e-23
3.65919e-23
3.20124e-23
6.23067e-23
6.81295e-23
4.40078e-23
5.73601e-23
7.0765e-23
2.42109e-23
-7.65746e-24
4.96834e-24
4.15663e-24
8.22582e-24
2.06704e-23
1.72527e-24
3.37417e-23
1.74359e-23
4.47622e-23
1.3469e-23
5.68656e-23
5.04958e-24
6.92781e-23
2.00563e-23
6.11544e-23
2.20245e-23
5.6622e-23
8.13795e-23
6.9623e-23
-5.44378e-24
8.45833e-24
4.87139e-24
1.68675e-23
3.99087e-23
6.00843e-24
1.93347e-23
1.33487e-23
3.75226e-23
2.13333e-23
4.65332e-23
2.9525e-24
8.30251e-23
2.59168e-23
1.20089e-22
2.52383e-23
1.42456e-22
1.9321e-24
3.09224e-23
-4.2725e-24
9.53199e-24
4.08771e-23
6.82876e-24
2.5118e-23
2.41537e-23
5.9291e-23
2.78066e-23
4.14143e-23
1.94603e-23
4.22654e-23
2.75311e-23
1.05138e-22
3.99348e-24
3.52521e-23
-3.4592e-24
6.91326e-24
3.62005e-23
1.33962e-23
1.84581e-23
1.05796e-23
5.71436e-23
3.11039e-23
5.0828e-23
3.39328e-23
3.52056e-23
1.95659e-24
4.59207e-23
-9.29881e-25
3.36278e-24
4.2145e-23
2.1728e-23
2.98485e-23
4.16726e-24
7.33482e-23
3.60219e-23
5.76621e-23
2.41309e-23
-8.18448e-24
-8.70862e-24
-3.79753e-24
3.70067e-24
3.68988e-23
2.16015e-23
4.97917e-23
7.45971e-24
1.11226e-23
1.99954e-23
5.29317e-23
-4.42618e-24
3.80184e-23
1.73175e-23
1.23233e-23
3.31292e-23
6.62138e-24
6.31937e-23
1.59005e-23
5.28052e-23
3.99487e-24
6.31424e-23
2.20093e-23
1.47367e-23
6.94196e-23
6.80764e-24
3.29094e-23
4.13597e-23
4.4263e-24
3.12781e-23
8.19943e-24
5.22279e-24
3.21407e-23
9.64476e-24
3.3167e-23
8.9602e-24
2.75224e-23
-1.99428e-24
7.70257e-24
4.17578e-23
3.4763e-23
9.34654e-24
2.74602e-23
-6.37184e-24
1.08594e-23
4.7731e-23
2.96644e-23
1.07467e-23
2.95735e-23
-7.36519e-24
7.91616e-24
4.9876e-23
2.75624e-23
1.8917e-23
1.17343e-23
-2.61565e-24
7.13321e-24
5.85968e-23
5.87769e-23
2.60831e-23
6.65598e-23
2.7216e-24
9.34376e-24
-1.30096e-23
4.41507e-23
1.39491e-23
5.65603e-23
-1.01805e-23
1.53132e-23
6.07824e-23
3.74376e-23
2.0825e-23
4.30607e-23
-1.46463e-23
1.07555e-23
-6.93067e-24
2.64872e-23
1.28282e-23
4.39055e-23
-2.1637e-23
8.64244e-24
-3.58577e-24
7.31146e-24
1.41455e-23
1.6687e-23
-2.95311e-23
1.06407e-23
-6.39071e-24
2.92013e-23
9.36858e-24
1.10946e-23
-4.01707e-23
1.48438e-23
1.77375e-23
1.35064e-23
1.30214e-23
-1.00186e-24
-3.8074e-23
8.06124e-24
2.04234e-23
9.44631e-24
1.71148e-23
3.18091e-24
-2.78424e-23
7.37934e-24
3.24264e-23
4.36089e-23
1.47037e-23
1.6025e-23
-2.60793e-23
5.74129e-24
5.87935e-24
-6.82333e-24
1.42594e-23
-3.12564e-23
5.50449e-24
2.02472e-23
1.9988e-23
-3.6394e-24
2.59259e-23
2.38516e-23
1.11755e-23
4.22171e-23
7.31477e-24
2.44528e-23
-5.23634e-25
2.0377e-23
-1.27695e-24
1.25796e-23
-3.91158e-23
-1.3592e-23
-4.54387e-23
-1.38429e-23
-1.27198e-23
-1.60377e-23
-7.2643e-24
-2.30025e-23
-1.9007e-23
1.13715e-24
9.5267e-24
1.68236e-23
-2.36126e-23
-1.53919e-23
-1.70368e-23
8.10712e-25
1.51949e-23
1.23258e-23
6.99852e-24
8.56351e-24
5.24067e-24
1.21595e-23
-3.35399e-24
1.1299e-23
1.32537e-23
1.64038e-23
6.40258e-24
1.68063e-23
1.21514e-24
1.71652e-23
2.6882e-23
1.44936e-23
3.11712e-23
3.45491e-24
3.94031e-23
1.57182e-25
8.05863e-23
1.25368e-25
2.80963e-23
-9.34021e-24
-5.11046e-24
-1.91131e-23
-5.44468e-24
-2.00941e-23
1.13389e-23
-2.02366e-23
1.73294e-23
-1.771e-23
1.69197e-23
-1.86031e-23
3.28779e-23
-2.79248e-23
-2.84552e-23
-3.77292e-23
-1.38919e-23
-2.9028e-23
-7.03819e-23
-3.53223e-23
-6.89753e-23
-2.77627e-23
-4.62843e-23
-2.5288e-23
-3.55428e-23
-1.31776e-23
-2.00344e-23
-1.71364e-23
-2.45771e-23
-2.05405e-23
-2.35291e-23
-1.59734e-23
-1.4232e-23
1.42812e-23
1.301e-23
-6.56516e-24
3.23968e-23
4.72824e-23
-1.16598e-23
7.84088e-24
-1.40581e-24
1.14661e-23
-2.06943e-23
-3.17025e-23
-8.51979e-24
6.43555e-25
-3.43319e-23
6.52947e-24
-4.91814e-23
3.5757e-25
-1.94583e-23
1.85236e-23
2.45668e-23
5.36438e-23
1.19869e-23
2.30659e-23
-3.53545e-23
8.91402e-24
7.31234e-24
1.67814e-23
2.18176e-24
1.08138e-23
4.20803e-24
1.72124e-23
1.48654e-23
7.29088e-24
1.96076e-23
1.96155e-23
1.25077e-23
2.81316e-23
2.58024e-23
8.51572e-24
7.33206e-24
7.65779e-24
-1.07804e-23
2.80944e-24
8.42552e-24
6.65849e-24
1.4839e-23
7.81405e-24
1.29153e-23
7.92155e-24
1.0488e-23
1.81091e-24
2.23898e-23
-5.23491e-24
-1.66251e-23
-1.32718e-23
1.11666e-23
-7.79162e-24
6.02873e-24
-1.07269e-23
4.58925e-25
-1.39409e-23
-5.78891e-24
-1.26649e-23
-2.44058e-23
-1.40687e-23
3.73941e-23
-1.73165e-23
-1.31696e-23
-2.58826e-23
-2.37994e-23
-2.65506e-23
-4.239e-24
-2.108e-23
-1.01362e-23
-2.04203e-23
-3.66651e-23
-2.53659e-23
-3.43383e-23
-1.91306e-23
-3.77231e-23
-1.23088e-23
-6.60653e-24
-7.82681e-24
-1.05828e-23
2.9074e-23
-1.42607e-23
-1.02209e-23
7.21657e-24
-7.06307e-24
8.06409e-24
2.50917e-24
-3.88978e-23
-9.19647e-24
-1.02243e-24
5.419e-24
-6.6595e-24
8.30442e-24
-2.35687e-23
2.24826e-23
-3.36816e-23
3.03385e-24
2.05277e-23
2.35642e-23
-1.19073e-23
1.77951e-23
5.25995e-24
2.02667e-23
-4.06048e-24
2.60085e-23
-1.82855e-23
3.93886e-23
3.69941e-23
2.7809e-23
-3.44476e-23
2.57634e-23
5.15633e-23
4.30646e-23
2.18509e-23
9.98363e-24
1.16717e-23
7.00225e-24
1.94136e-24
2.37965e-23
6.05096e-24
1.01133e-23
3.27999e-24
4.41637e-24
1.01958e-23
6.91658e-24
2.06291e-23
2.15632e-24
7.41756e-24
-7.49095e-24
-1.86436e-23
-5.84804e-24
-2.47347e-23
-5.26014e-25
2.07484e-24
-6.3344e-24
6.12157e-24
-1.45977e-23
1.16735e-23
-1.24978e-23
1.10379e-23
-1.61375e-23
7.10607e-24
-1.56006e-23
-2.6754e-23
-1.94523e-23
-2.75894e-23
-2.38685e-23
-2.1319e-23
-3.04117e-23
-1.68375e-23
-3.30618e-23
-2.5358e-24
-4.29353e-23
-2.75769e-23
-4.55537e-23
-1.63814e-23
-4.77275e-23
-7.08953e-24
-3.42176e-23
-3.26114e-23
-3.14057e-23
-2.93141e-23
-3.3049e-23
-2.67561e-23
3.27621e-23
1.61737e-23
-1.56084e-23
1.60842e-23
1.73754e-24
8.21655e-24
1.32934e-23
-2.4976e-23
-4.07472e-23
-7.14895e-24
-1.51668e-23
8.03543e-24
-8.44983e-24
-4.20105e-23
-2.72088e-24
1.42321e-24
2.28358e-23
-1.04587e-23
3.7171e-23
-1.84068e-23
2.69039e-23
-7.9766e-24
1.26491e-23
2.67581e-23
-1.9725e-24
-5.06607e-23
-2.7461e-24
2.10825e-23
3.17436e-23
7.92003e-24
4.76645e-23
4.07967e-24
5.21446e-23
1.08089e-23
4.98091e-23
3.48367e-23
2.42971e-23
-2.51931e-23
-2.49825e-24
-7.67968e-24
-2.23915e-24
-3.13468e-24
8.46098e-25
-2.25791e-23
-1.27729e-23
-2.39485e-23
-2.86566e-24
-3.15585e-23
-3.55765e-24
-1.89905e-23
-1.64491e-23
-3.95054e-23
-2.10835e-23
-2.82967e-23
-1.64715e-23
2.48763e-24
-1.41974e-23
-2.65392e-23
-2.56379e-23
-2.0608e-23
-2.52318e-23
-7.0917e-24
-3.0276e-23
-6.761e-23
-3.26013e-23
-8.67147e-23
-3.85681e-23
-6.92105e-23
-3.61155e-23
-8.68788e-23
-3.29044e-23
-6.01107e-23
-2.34963e-23
-3.95957e-23
-2.31612e-23
5.35053e-23
-1.03909e-23
2.80615e-23
-1.5071e-23
8.42672e-24
-1.64881e-23
-4.30744e-23
-1.9609e-23
-9.39338e-24
2.18184e-23
-1.26943e-23
-2.65824e-24
3.40156e-23
-1.53265e-23
-2.05364e-23
7.63933e-25
1.23202e-23
4.84131e-23
-1.68477e-23
1.8208e-23
1.08938e-23
3.30747e-23
-6.58739e-24
1.32578e-23
-3.52283e-24
2.35693e-23
-3.11732e-23
-6.16168e-24
-1.92732e-23
1.67837e-23
-3.78967e-23
2.91505e-23
2.68062e-23
5.10029e-24
-9.41291e-24
2.90288e-23
3.39147e-23
5.4886e-23
3.37698e-23
4.60634e-23
-1.36078e-23
4.06086e-23
-3.41107e-23
6.15338e-24
-1.89512e-23
1.05449e-23
-2.04727e-23
1.03293e-24
-2.48537e-23
3.61254e-24
-1.762e-23
-5.19344e-24
-1.64931e-23
-1.68024e-23
-3.58246e-23
-2.56345e-23
-5.22679e-23
-3.31322e-23
-5.37549e-23
-1.93169e-23
-3.08793e-23
-2.19785e-23
-5.543e-23
-3.12568e-23
-3.9832e-23
-3.31194e-23
-3.17344e-23
-3.31835e-23
-4.72814e-23
-3.80736e-23
-4.07709e-23
-3.48261e-23
-6.88536e-23
-3.37661e-23
-6.63683e-23
-3.12953e-23
-3.20282e-23
-2.71724e-23
-3.73909e-23
-2.22771e-23
-1.48927e-24
-1.43165e-23
-9.17618e-24
-1.2022e-23
1.34302e-23
-1.19023e-23
2.215e-23
-1.18158e-23
1.99989e-23
-8.82342e-24
3.04342e-23
-7.20217e-24
-1.68251e-23
1.79078e-23
2.46477e-23
1.41656e-23
3.93858e-23
3.29828e-23
3.02283e-23
9.77456e-24
-2.78799e-24
4.98173e-24
-5.17498e-25
1.55216e-23
2.62305e-26
3.56678e-23
1.87977e-23
6.04638e-23
-3.85667e-23
1.01629e-23
-5.34527e-25
1.91215e-23
1.02302e-23
7.10362e-23
-8.35852e-23
4.97733e-23
4.44073e-23
5.40084e-23
4.27453e-23
3.71993e-23
1.83031e-23
2.34909e-23
2.87839e-23
3.24252e-23
-6.28256e-23
1.3525e-23
-5.9576e-23
-2.70904e-24
-3.93622e-23
-1.42364e-23
-3.58858e-23
2.46785e-24
-3.9137e-23
1.63665e-23
-6.60602e-23
2.37361e-23
-3.05402e-23
-6.68378e-24
-2.44968e-23
-2.8942e-23
-2.58607e-23
-3.32666e-23
-4.44161e-23
-4.75814e-23
-6.24352e-23
-4.89056e-23
-5.92639e-23
-4.38635e-23
-6.26864e-23
-4.10972e-23
-5.87972e-23
-4.3644e-23
-2.58132e-23
-3.37685e-23
-6.45552e-23
-3.22995e-23
-7.03679e-23
-2.57946e-23
-4.39267e-23
-1.66186e-23
-1.4874e-23
-1.4382e-23
-1.76491e-23
-6.69418e-24
-1.2179e-23
-1.04922e-23
-8.62031e-24
-8.66735e-24
2.97411e-23
-2.90503e-24
1.1205e-23
-1.7653e-24
5.94981e-23
-6.43667e-24
-1.07746e-23
-1.29185e-23
-7.13082e-24
1.4632e-23
1.46078e-23
4.86523e-24
3.45197e-23
1.593e-23
3.23564e-23
7.96576e-24
1.58431e-23
1.24146e-23
6.27223e-24
1.42164e-23
2.13557e-23
1.00065e-23
-2.58913e-23
-1.31444e-23
-3.7216e-23
1.67804e-23
4.23392e-23
7.61571e-24
-2.81678e-24
-1.25697e-23
-7.71019e-23
-6.84867e-24
1.60853e-23
2.25149e-23
1.4317e-23
4.05995e-23
1.56977e-23
1.84458e-23
-2.80989e-24
-1.24911e-23
-8.71324e-23
-2.12504e-23
-8.70423e-23
6.46673e-25
-1.83391e-23
3.38264e-23
-8.15206e-24
-3.16495e-25
-1.57727e-23
-1.29612e-23
-1.40377e-22
-3.21523e-23
-1.17315e-22
-2.54303e-23
-5.97375e-23
-3.29817e-23
-9.04218e-23
-3.21239e-23
-6.12443e-23
-3.26388e-23
-3.80497e-23
-3.95106e-23
-5.90939e-23
-3.14226e-23
-7.79871e-23
-2.19557e-23
-2.29618e-23
-1.86785e-23
-4.7683e-24
-2.59353e-23
-1.37152e-23
-2.66015e-23
-4.44312e-23
-2.14596e-23
-2.46202e-24
-2.17356e-23
-2.41102e-23
-2.4774e-23
-1.21983e-23
-1.38644e-23
1.19529e-24
-1.4239e-23
1.41567e-23
-1.40918e-23
3.13249e-23
-1.02586e-23
-8.43061e-25
-8.08514e-24
5.88087e-24
-1.20378e-23
1.50538e-23
-1.52602e-23
-2.14813e-23
3.53526e-24
8.59699e-24
-5.1377e-24
1.97629e-23
4.49438e-24
4.28174e-23
-9.6218e-24
2.84624e-23
1.41559e-23
-2.69274e-24
3.37162e-23
-3.51341e-25
3.09421e-24
2.27665e-24
-1.95211e-23
-5.09098e-23
-6.60244e-25
6.41557e-24
1.00943e-23
-1.83243e-23
-1.088e-24
-2.66187e-23
-5.32507e-24
-3.8929e-25
-5.8933e-24
-1.40893e-23
-1.37077e-23
-4.4009e-23
-1.94694e-23
-2.55331e-23
-3.63544e-23
-2.65044e-23
-1.92171e-23
-4.85959e-23
-3.7985e-23
-7.55931e-23
-6.09931e-23
-5.16773e-23
-2.72772e-23
-4.72848e-23
-2.23216e-23
-1.39485e-22
-3.21261e-23
-1.33052e-22
-3.37042e-23
-9.34598e-23
-2.4748e-23
-8.67064e-23
-3.06468e-23
-8.51158e-23
-3.39576e-23
-2.73322e-23
-1.54192e-23
-4.37603e-23
-1.48247e-23
-5.43671e-23
-9.30069e-24
-6.64667e-23
-1.30013e-23
-6.48389e-24
-6.92279e-24
-1.95968e-23
-1.67526e-23
-2.20764e-23
-1.71327e-23
-2.34591e-23
-2.0567e-23
5.70321e-24
-1.37953e-23
7.9628e-24
-1.06742e-23
8.92557e-24
-9.46194e-24
2.24509e-23
-1.22349e-23
2.87636e-23
-8.25024e-24
-4.23403e-23
-9.99287e-24
-4.60039e-23
-1.3953e-23
-4.29264e-23
-8.08421e-24
-1.13134e-23
-1.94109e-24
-4.78464e-23
-1.10067e-23
8.11579e-24
-3.37874e-24
5.55096e-23
8.76152e-24
4.47587e-23
1.74518e-23
-1.80477e-23
-2.8314e-23
-2.71433e-23
5.33815e-24
1.65333e-23
3.08007e-24
-4.40759e-23
-9.76002e-24
-1.66822e-23
-2.32322e-23
-2.71912e-23
9.5355e-25
-2.49249e-23
-1.19281e-23
-2.63409e-23
-1.64762e-23
-2.09093e-23
-2.26854e-23
-8.34051e-23
-2.00076e-23
-1.75671e-23
-2.65785e-23
-5.93655e-23
-4.09175e-23
-1.04314e-22
-5.77505e-23
-4.77772e-23
-4.69833e-23
-4.86189e-23
-6.09112e-23
-8.00483e-23
-7.64553e-23
-1.29908e-22
-6.94505e-23
-1.10622e-22
-5.11171e-23
-1.31505e-22
-4.18912e-23
-1.00429e-22
-2.37936e-23
-3.24813e-23
-1.3936e-23
-3.5124e-23
-1.47806e-23
-3.26989e-23
-2.07598e-23
-4.27079e-23
-1.76234e-23
-4.38682e-23
-1.61325e-23
-3.36462e-23
-1.33484e-23
-4.32442e-23
-7.63131e-24
-1.12905e-23
-7.31552e-24
1.26774e-23
-1.52018e-24
8.90393e-24
-4.62382e-24
4.62484e-23
-3.93115e-24
1.02646e-23
-7.5257e-24
8.32378e-24
-3.57228e-25
1.025e-23
-6.6555e-25
-2.21647e-23
-8.46089e-24
-7.7406e-24
-1.2674e-23
-5.08716e-23
-2.41875e-23
-2.43029e-23
2.03323e-23
6.27092e-24
-5.59179e-24
1.12596e-23
7.5193e-24
5.99047e-23
2.5907e-23
1.4748e-23
-2.23854e-24
1.12179e-24
-2.50038e-23
-3.17775e-23
-3.57767e-23
-4.52481e-24
-2.87305e-23
-4.62268e-23
-3.94088e-23
1.12038e-23
-1.19314e-23
-4.89891e-23
-6.48394e-24
-5.02571e-23
-1.75525e-23
-3.32112e-23
-3.75601e-23
-3.04734e-23
-3.91469e-23
-7.78938e-23
-4.274e-23
-6.94003e-23
-2.6551e-23
-7.60334e-23
-3.86024e-23
-9.60372e-23
-3.97578e-23
-7.54407e-23
-5.5837e-23
-8.25325e-23
-6.17539e-23
-6.53657e-23
-4.61078e-23
-7.80032e-23
-4.71013e-23
-7.50511e-23
-4.81171e-23
-8.86195e-23
-3.21085e-23
-5.36399e-23
-2.08576e-23
-4.92913e-23
-2.40584e-23
-3.81403e-23
-2.76887e-23
-3.59426e-23
-2.89763e-23
-2.81122e-23
-2.58383e-23
-2.8301e-23
-1.83952e-23
-2.04031e-23
-1.89835e-23
-1.56354e-23
-1.67867e-23
-1.99744e-23
-2.8595e-24
-8.15587e-24
-7.0707e-24
-1.05164e-24
-9.86697e-24
1.00661e-23
-9.24561e-24
1.77779e-23
-1.60668e-23
3.13623e-23
-1.3926e-23
-3.46093e-23
-1.85245e-23
-5.56598e-23
-1.91582e-23
-1.00944e-22
-3.53106e-23
-9.35153e-23
-2.29511e-23
-1.4318e-23
2.30541e-23
1.84069e-23
-2.98444e-23
2.06491e-23
6.01078e-24
3.2022e-23
1.26362e-23
-1.78235e-25
-4.32676e-23
-2.36663e-24
-2.58305e-23
-2.51802e-23
-2.04062e-23
-3.12586e-23
-2.32181e-23
-1.98932e-23
-4.75649e-23
7.4483e-24
-3.76217e-23
-6.26664e-23
-5.92281e-23
-7.66022e-23
-6.9918e-23
-6.04617e-23
-6.28208e-23
-4.54495e-23
-6.07396e-23
-4.49649e-23
-4.39038e-23
-1.012e-22
-3.14581e-23
-5.09021e-23
-1.48329e-23
-1.32356e-22
-2.30353e-23
-9.1649e-23
-2.64892e-23
-6.36174e-23
-2.03717e-23
-5.84254e-23
-3.74734e-23
-6.14122e-23
-3.71777e-23
-3.40057e-23
-3.31667e-23
-6.98576e-23
-3.58139e-23
-6.32307e-23
-3.52194e-23
-8.79383e-23
-3.21399e-23
-5.43171e-23
-2.28787e-23
-2.73897e-23
-1.65579e-23
-2.10002e-23
-2.61759e-23
-1.64086e-23
-1.94977e-23
-1.34109e-23
-1.78612e-23
1.78866e-23
-6.61553e-24
-1.58066e-23
-9.99472e-24
-1.9523e-23
-7.89578e-24
-1.02013e-23
-1.53393e-24
-2.29414e-23
-1.13426e-23
6.25248e-24
-7.81717e-24
-2.55471e-23
-1.16019e-23
-7.90443e-23
-1.45417e-23
-1.03807e-22
2.1971e-24
-6.28434e-23
1.46549e-23
-4.58574e-24
1.25074e-23
7.16515e-24
1.51918e-23
2.41104e-23
-1.92821e-23
1.81655e-23
4.07793e-25
-5.96475e-24
-3.75146e-23
2.02629e-23
-4.61034e-25
1.7013e-24
-3.75767e-25
-1.52279e-23
-5.78209e-24
-4.70008e-23
5.39945e-24
-2.30181e-23
2.481e-25
-1.88146e-23
-4.3067e-23
-7.24756e-23
-6.88819e-23
-7.56998e-23
-6.38364e-23
-7.0049e-23
-6.58419e-23
-2.26572e-23
-4.63718e-23
-2.79287e-23
-4.2156e-23
-4.67005e-23
-1.55979e-23
-5.77547e-23
-2.4216e-24
-1.31605e-22
-1.2435e-23
-9.06037e-23
-1.98644e-24
-9.47574e-23
-1.16299e-23
-5.0826e-23
-1.77195e-23
-5.47511e-23
-2.59766e-23
-5.35646e-23
-2.44894e-23
-5.47107e-23
-3.31349e-23
-5.93978e-23
-3.08847e-23
-5.92429e-23
-3.27785e-23
-4.55302e-23
-3.39563e-23
-3.59071e-23
-2.55722e-23
-7.08506e-24
-1.85826e-23
-6.51525e-24
-2.07568e-23
1.28257e-23
-3.16759e-23
-7.1796e-24
-3.1756e-23
4.20622e-24
-2.57073e-23
1.03644e-23
-2.47404e-23
-5.83672e-23
-2.59934e-23
-1.59639e-23
-1.9144e-23
-1.27235e-23
-2.274e-23
1.26413e-23
-1.8698e-23
4.05874e-23
-1.14578e-23
1.35806e-23
-1.32011e-23
-5.05547e-23
-1.71791e-23
-6.31392e-23
-1.10377e-23
-9.09853e-23
-1.29124e-23
-1.39843e-23
6.96693e-24
2.63656e-23
-1.0262e-23
-3.52019e-24
1.05844e-23
1.44603e-23
1.58094e-23
2.55483e-23
-9.70121e-24
1.49717e-23
1.27546e-23
-5.05279e-24
8.70397e-24
-4.99241e-23
-2.01495e-23
-8.01178e-23
-4.49853e-23
-3.96149e-23
-1.92467e-23
-5.85193e-23
-3.95966e-23
-7.94877e-23
-4.20861e-23
-4.82622e-23
-3.40823e-23
-1.3741e-23
-1.36445e-23
3.27143e-23
-1.35415e-23
-1.38145e-23
-3.26976e-23
-7.85773e-23
-5.55144e-23
-1.03047e-22
-5.9985e-23
-1.13905e-22
-5.73712e-23
-1.35508e-22
-5.94828e-23
-9.19033e-23
-5.94226e-23
-6.45946e-23
-4.61513e-23
-8.01206e-23
-5.00485e-23
-7.05017e-23
-3.39087e-23
-7.1221e-23
-2.84227e-23
-6.70872e-23
-2.69329e-23
-3.04956e-23
-2.78289e-23
-2.10445e-23
-3.40674e-23
-4.8643e-23
-3.10805e-23
-3.38941e-23
-3.05699e-23
3.27582e-25
-2.68856e-23
-1.13316e-23
-2.192e-23
1.61997e-23
-1.59456e-23
-4.0557e-25
-1.66914e-23
-1.10919e-23
-1.86794e-23
-2.20445e-23
-1.40973e-23
1.01144e-23
-1.19752e-23
5.79294e-24
-1.13817e-23
3.93365e-24
-1.26825e-23
-7.69408e-25
-1.61279e-23
-4.39134e-23
-1.79844e-23
-7.26529e-23
-1.87315e-23
-7.11611e-23
-1.15937e-23
-4.90649e-23
-6.10087e-24
-5.71843e-24
2.1207e-24
3.51865e-23
-1.63267e-23
-3.24534e-24
1.25325e-23
-7.98919e-24
1.9877e-23
4.02299e-23
1.47115e-23
1.181e-23
-2.94762e-23
-3.01707e-23
-7.33917e-23
-8.71439e-23
-8.95155e-23
-6.35676e-23
-6.59297e-23
-5.98917e-23
-2.76525e-23
-5.77882e-23
-3.51299e-23
-6.87875e-23
-1.86238e-23
-1.94924e-23
-9.65018e-24
-1.409e-23
-1.62204e-23
-1.25791e-23
-2.32496e-23
-5.7751e-23
-6.10183e-23
-1.01634e-22
-7.44053e-23
-9.21288e-23
-7.71842e-23
-1.37693e-22
-7.69817e-23
-1.43003e-22
-5.41103e-23
-5.82113e-23
-2.27282e-23
-8.43807e-23
-1.46088e-23
-3.41385e-23
-1.2596e-23
-4.27525e-23
-2.26098e-23
-8.0656e-23
-2.86447e-23
-4.39113e-23
-1.97363e-23
-5.75076e-23
-1.05742e-23
6.74631e-24
-5.44068e-24
-4.37712e-23
-1.42014e-23
-1.31249e-23
-1.2599e-23
1.58232e-23
-2.64254e-23
1.13713e-23
-2.31762e-23
2.76862e-23
-3.22041e-23
-3.95938e-24
-3.76091e-23
-2.84516e-24
-2.33554e-23
-5.95434e-24
-1.439e-23
-7.99776e-24
-1.1812e-23
-1.60835e-23
-6.58264e-24
-2.15307e-23
-4.26388e-26
-2.41242e-23
-6.14646e-24
-3.13606e-23
-8.10071e-24
-9.79867e-24
-5.15914e-24
-1.63371e-23
-8.67171e-24
-5.47026e-23
-1.4895e-23
-1.72451e-23
-1.22168e-23
1.31109e-23
-3.52471e-23
-7.21809e-24
2.71754e-24
-1.36965e-23
2.31115e-23
1.32137e-24
6.90524e-25
-1.64036e-23
-6.01752e-24
-4.34788e-23
-4.20403e-23
-7.60669e-23
-4.89003e-23
-2.42795e-23
-5.09798e-23
-6.64935e-23
-4.91351e-23
-4.06446e-23
-4.95863e-23
-5.54085e-23
-6.51404e-23
-4.04609e-23
-2.96745e-23
-2.97315e-23
-3.21118e-23
-7.40791e-23
-4.89342e-23
-8.5532e-23
-5.32701e-23
-1.06843e-22
-5.22879e-23
-8.76549e-23
-3.06884e-23
-7.83846e-23
-1.75289e-23
-4.83307e-23
-1.01884e-23
-4.88714e-23
-1.18687e-23
-4.83337e-23
-5.23932e-24
-5.41605e-23
-1.30045e-24
-6.91776e-23
5.44327e-25
-5.77635e-23
3.96194e-24
-2.99077e-23
-4.39881e-24
-3.53805e-23
1.2357e-24
-3.8598e-23
2.44652e-24
-4.46154e-23
4.27586e-24
-9.16544e-23
1.80513e-24
-2.50523e-24
1.24405e-23
-3.86922e-23
8.4256e-24
8.72373e-24
1.31129e-23
6.47236e-23
4.60717e-25
5.16797e-23
-1.15552e-23
5.21529e-23
-1.79137e-23
5.15893e-23
-1.74368e-23
5.65109e-23
-1.60642e-23
-5.05108e-23
-2.44946e-23
-3.95525e-23
-1.84338e-23
-3.58191e-23
-1.94244e-23
-5.55974e-23
-2.48651e-23
-7.61407e-23
-1.9558e-23
-1.02626e-22
-1.74396e-23
-1.36388e-22
-1.78119e-23
-1.28685e-23
-1.78793e-23
-3.48835e-23
-6.63253e-24
-1.83874e-24
-1.72866e-23
-3.451e-23
-1.68322e-23
-1.56019e-23
-1.69524e-23
-3.83466e-23
-5.75454e-23
-4.32692e-23
-4.00285e-23
-6.52014e-23
-1.7161e-23
-2.24248e-23
2.44056e-23
-5.7124e-23
-1.3496e-23
-7.37692e-23
-2.99863e-23
-1.62332e-23
-4.53516e-23
-5.10231e-23
-6.2123e-23
-4.99546e-23
-3.85463e-23
-6.38947e-23
-3.50713e-23
-9.02652e-23
-2.14359e-23
-5.40415e-23
-2.26511e-23
-5.83939e-23
-2.06465e-23
-5.72811e-23
-1.07569e-23
-5.18074e-23
-1.4946e-23
-5.58169e-23
-7.68845e-24
-4.21362e-23
-1.63362e-23
-5.91962e-23
-2.23203e-23
-7.97539e-23
-1.71259e-23
-6.37519e-23
-4.98474e-24
-2.97481e-23
9.1336e-24
-2.86642e-23
-1.07301e-24
-2.84648e-23
2.27499e-24
-2.7545e-23
4.07199e-24
-2.65257e-23
5.10503e-24
-2.17061e-23
1.32325e-24
-1.02945e-23
-3.79034e-24
-9.28663e-23
-2.49215e-24
-2.38488e-23
8.04759e-24
-3.76629e-23
6.16627e-24
3.26891e-23
9.97755e-24
1.55396e-23
1.9436e-24
4.66041e-24
-5.01043e-24
-2.06946e-23
3.7012e-25
-3.91321e-23
8.1699e-25
-5.19962e-23
-8.0998e-24
2.4547e-23
-1.39803e-23
-6.42746e-23
-2.26606e-23
-6.96424e-23
-2.59195e-23
-6.65327e-23
-2.12162e-23
-1.43746e-23
-7.91921e-24
1.42328e-23
3.19703e-23