/*--------------------------------*- C++ -*----------------------------------*\
  =========                 |
  \\      /  F ield         | OpenFOAM: The Open Source CFD Toolbox
   \\    /   O peration     | Website:  https://openfoam.org
    \\  /    A nd           | Version:  7
     \\/     M anipulation  |
\*---------------------------------------------------------------------------*/
FoamFile
{
    version     2.0;
    format      ascii;
    class       volScalarField;
    location    "228000";
    object      nut;
}
// * * * * * * * * * * * * * * * * * * * * * * * * * * * * * * * * * * * * * //

dimensions      [0 2 -1 0 0 0 0];

internalField   nonuniform List<scalar> 
4838
(
2.9848e-05
2.98714e-05
2.98929e-05
2.99123e-05
2.99296e-05
2.99449e-05
2.99584e-05
2.99703e-05
2.99806e-05
2.99895e-05
2.99972e-05
3.00038e-05
3.00094e-05
3.0014e-05
3.00179e-05
3.00211e-05
3.00237e-05
3.00258e-05
3.00275e-05
3.00288e-05
3.00298e-05
3.00306e-05
3.00311e-05
3.00314e-05
3.00316e-05
3.00316e-05
3.00314e-05
3.00311e-05
3.00306e-05
3.00298e-05
3.00288e-05
3.00275e-05
3.00258e-05
3.00237e-05
3.00211e-05
3.00179e-05
3.0014e-05
3.00094e-05
3.00038e-05
2.99972e-05
2.99895e-05
2.99806e-05
2.99703e-05
2.99584e-05
2.99449e-05
2.99296e-05
2.99123e-05
2.98929e-05
2.98714e-05
2.9848e-05
2.98079e-05
2.98322e-05
2.98552e-05
2.98766e-05
2.98962e-05
2.9914e-05
2.99298e-05
2.99439e-05
2.99564e-05
2.99674e-05
2.9977e-05
2.99853e-05
2.99925e-05
2.99987e-05
3.00039e-05
3.00084e-05
3.00121e-05
3.00152e-05
3.00177e-05
3.00197e-05
3.00214e-05
3.00226e-05
3.00235e-05
3.0024e-05
3.00243e-05
3.00243e-05
3.0024e-05
3.00235e-05
3.00226e-05
3.00214e-05
3.00198e-05
3.00177e-05
3.00152e-05
3.00121e-05
3.00084e-05
3.00039e-05
2.99987e-05
2.99925e-05
2.99853e-05
2.9977e-05
2.99674e-05
2.99564e-05
2.99439e-05
2.99298e-05
2.9914e-05
2.98962e-05
2.98766e-05
2.98552e-05
2.98321e-05
2.98079e-05
2.97577e-05
2.97854e-05
2.98109e-05
2.98346e-05
2.98565e-05
2.98766e-05
2.98949e-05
2.99113e-05
2.99261e-05
2.99392e-05
2.99508e-05
2.99611e-05
2.99701e-05
2.99779e-05
2.99847e-05
2.99905e-05
2.99954e-05
2.99996e-05
3.0003e-05
3.00059e-05
3.00081e-05
3.00099e-05
3.00112e-05
3.0012e-05
3.00124e-05
3.00124e-05
3.0012e-05
3.00112e-05
3.00099e-05
3.00082e-05
3.00059e-05
3.0003e-05
2.99996e-05
2.99954e-05
2.99905e-05
2.99847e-05
2.99779e-05
2.99701e-05
2.99611e-05
2.99508e-05
2.99392e-05
2.99261e-05
2.99113e-05
2.98949e-05
2.98766e-05
2.98565e-05
2.98346e-05
2.98109e-05
2.97854e-05
2.97577e-05
2.97009e-05
2.97321e-05
2.97606e-05
2.9787e-05
2.98114e-05
2.98339e-05
2.98545e-05
2.98732e-05
2.98902e-05
2.99055e-05
2.99192e-05
2.99314e-05
2.99422e-05
2.99517e-05
2.99601e-05
2.99673e-05
2.99735e-05
2.99788e-05
2.99833e-05
2.99869e-05
2.99899e-05
2.99922e-05
2.99939e-05
2.99951e-05
2.99956e-05
2.99956e-05
2.99951e-05
2.99939e-05
2.99922e-05
2.99899e-05
2.99869e-05
2.99833e-05
2.99788e-05
2.99735e-05
2.99673e-05
2.99601e-05
2.99517e-05
2.99422e-05
2.99314e-05
2.99192e-05
2.99055e-05
2.98902e-05
2.98732e-05
2.98545e-05
2.98338e-05
2.98114e-05
2.9787e-05
2.97606e-05
2.97321e-05
2.97009e-05
2.96379e-05
2.96725e-05
2.97041e-05
2.97334e-05
2.97604e-05
2.97854e-05
2.98085e-05
2.98296e-05
2.98488e-05
2.98663e-05
2.98821e-05
2.98962e-05
2.99089e-05
2.99201e-05
2.993e-05
2.99386e-05
2.99462e-05
2.99526e-05
2.99581e-05
2.99627e-05
2.99664e-05
2.99693e-05
2.99714e-05
2.99728e-05
2.99735e-05
2.99735e-05
2.99728e-05
2.99714e-05
2.99693e-05
2.99664e-05
2.99627e-05
2.99581e-05
2.99526e-05
2.99462e-05
2.99387e-05
2.993e-05
2.99201e-05
2.99089e-05
2.98962e-05
2.98821e-05
2.98663e-05
2.98488e-05
2.98296e-05
2.98085e-05
2.97854e-05
2.97604e-05
2.97334e-05
2.97041e-05
2.96725e-05
2.96379e-05
2.95689e-05
2.96067e-05
2.96414e-05
2.96737e-05
2.97035e-05
2.97312e-05
2.97567e-05
2.97802e-05
2.98017e-05
2.98214e-05
2.98392e-05
2.98553e-05
2.98698e-05
2.98828e-05
2.98943e-05
2.99044e-05
2.99132e-05
2.99209e-05
2.99274e-05
2.99329e-05
2.99373e-05
2.99408e-05
2.99434e-05
2.99451e-05
2.9946e-05
2.9946e-05
2.99451e-05
2.99434e-05
2.99408e-05
2.99373e-05
2.99329e-05
2.99274e-05
2.99209e-05
2.99133e-05
2.99044e-05
2.98943e-05
2.98828e-05
2.98698e-05
2.98553e-05
2.98392e-05
2.98213e-05
2.98017e-05
2.97802e-05
2.97567e-05
2.97312e-05
2.97035e-05
2.96737e-05
2.96414e-05
2.96067e-05
2.95689e-05
2.9494e-05
2.95348e-05
2.95727e-05
2.96079e-05
2.96406e-05
2.96709e-05
2.9699e-05
2.97249e-05
2.97487e-05
2.97706e-05
2.97905e-05
2.98086e-05
2.9825e-05
2.98397e-05
2.98528e-05
2.98644e-05
2.98746e-05
2.98834e-05
2.9891e-05
2.98974e-05
2.99026e-05
2.99067e-05
2.99097e-05
2.99117e-05
2.99128e-05
2.99128e-05
2.99117e-05
2.99097e-05
2.99067e-05
2.99026e-05
2.98974e-05
2.9891e-05
2.98834e-05
2.98746e-05
2.98644e-05
2.98528e-05
2.98397e-05
2.9825e-05
2.98086e-05
2.97905e-05
2.97706e-05
2.97487e-05
2.97249e-05
2.9699e-05
2.96709e-05
2.96406e-05
2.96079e-05
2.95727e-05
2.95348e-05
2.9494e-05
2.94132e-05
2.94571e-05
2.94979e-05
2.95361e-05
2.95716e-05
2.96046e-05
2.96353e-05
2.96636e-05
2.96898e-05
2.97139e-05
2.97359e-05
2.9756e-05
2.97742e-05
2.97907e-05
2.98054e-05
2.98185e-05
2.983e-05
2.98401e-05
2.98487e-05
2.9856e-05
2.9862e-05
2.98667e-05
2.98702e-05
2.98725e-05
2.98737e-05
2.98737e-05
2.98725e-05
2.98702e-05
2.98667e-05
2.9862e-05
2.9856e-05
2.98487e-05
2.98401e-05
2.983e-05
2.98185e-05
2.98054e-05
2.97907e-05
2.97742e-05
2.9756e-05
2.97359e-05
2.97139e-05
2.96898e-05
2.96636e-05
2.96352e-05
2.96046e-05
2.95716e-05
2.9536e-05
2.94979e-05
2.94571e-05
2.94132e-05
2.93266e-05
2.93735e-05
2.94173e-05
2.94583e-05
2.94966e-05
2.95323e-05
2.95656e-05
2.95964e-05
2.96249e-05
2.96512e-05
2.96754e-05
2.96975e-05
2.97175e-05
2.97357e-05
2.97521e-05
2.97666e-05
2.97795e-05
2.97908e-05
2.98005e-05
2.98087e-05
2.98154e-05
2.98208e-05
2.98247e-05
2.98274e-05
2.98287e-05
2.98287e-05
2.98274e-05
2.98247e-05
2.98208e-05
2.98154e-05
2.98087e-05
2.98005e-05
2.97908e-05
2.97795e-05
2.97666e-05
2.97521e-05
2.97357e-05
2.97175e-05
2.96975e-05
2.96754e-05
2.96512e-05
2.96249e-05
2.95964e-05
2.95655e-05
2.95323e-05
2.94966e-05
2.94583e-05
2.94173e-05
2.93735e-05
2.93266e-05
2.92344e-05
2.92842e-05
2.93308e-05
2.93747e-05
2.94157e-05
2.94541e-05
2.94899e-05
2.95232e-05
2.95541e-05
2.95826e-05
2.96088e-05
2.96329e-05
2.96549e-05
2.96748e-05
2.96928e-05
2.97088e-05
2.9723e-05
2.97355e-05
2.97463e-05
2.97554e-05
2.97629e-05
2.97688e-05
2.97733e-05
2.97762e-05
2.97777e-05
2.97777e-05
2.97762e-05
2.97733e-05
2.97688e-05
2.97629e-05
2.97554e-05
2.97463e-05
2.97355e-05
2.9723e-05
2.97088e-05
2.96928e-05
2.96748e-05
2.96549e-05
2.96329e-05
2.96088e-05
2.95826e-05
2.95541e-05
2.95232e-05
2.94899e-05
2.94541e-05
2.94157e-05
2.93747e-05
2.93308e-05
2.92842e-05
2.92344e-05
2.91366e-05
2.91892e-05
2.92387e-05
2.92853e-05
2.9329e-05
2.937e-05
2.94084e-05
2.94441e-05
2.94773e-05
2.9508e-05
2.95364e-05
2.95624e-05
2.95862e-05
2.96079e-05
2.96274e-05
2.9645e-05
2.96605e-05
2.96742e-05
2.9686e-05
2.9696e-05
2.97043e-05
2.97109e-05
2.97158e-05
2.9719e-05
2.97206e-05
2.97206e-05
2.9719e-05
2.97158e-05
2.97109e-05
2.97043e-05
2.9696e-05
2.9686e-05
2.96742e-05
2.96605e-05
2.9645e-05
2.96274e-05
2.96079e-05
2.95862e-05
2.95624e-05
2.95364e-05
2.9508e-05
2.94773e-05
2.94441e-05
2.94084e-05
2.937e-05
2.9329e-05
2.92853e-05
2.92387e-05
2.91892e-05
2.91366e-05
2.90333e-05
2.90887e-05
2.9141e-05
2.91902e-05
2.92366e-05
2.92802e-05
2.9321e-05
2.93591e-05
2.93946e-05
2.94275e-05
2.9458e-05
2.9486e-05
2.95116e-05
2.9535e-05
2.95561e-05
2.95751e-05
2.9592e-05
2.96069e-05
2.96197e-05
2.96306e-05
2.96397e-05
2.96468e-05
2.96522e-05
2.96558e-05
2.96575e-05
2.96575e-05
2.96558e-05
2.96522e-05
2.96468e-05
2.96397e-05
2.96306e-05
2.96197e-05
2.96069e-05
2.9592e-05
2.95751e-05
2.95561e-05
2.9535e-05
2.95116e-05
2.9486e-05
2.9458e-05
2.94275e-05
2.93946e-05
2.93591e-05
2.9321e-05
2.92802e-05
2.92366e-05
2.91902e-05
2.91409e-05
2.90887e-05
2.90333e-05
2.89247e-05
2.89828e-05
2.90377e-05
2.90896e-05
2.91386e-05
2.91847e-05
2.9228e-05
2.92684e-05
2.93061e-05
2.93412e-05
2.93737e-05
2.94036e-05
2.94311e-05
2.94562e-05
2.94789e-05
2.94993e-05
2.95175e-05
2.95335e-05
2.95474e-05
2.95592e-05
2.9569e-05
2.95768e-05
2.95826e-05
2.95865e-05
2.95884e-05
2.95884e-05
2.95865e-05
2.95826e-05
2.95768e-05
2.9569e-05
2.95592e-05
2.95474e-05
2.95335e-05
2.95175e-05
2.94993e-05
2.94789e-05
2.94562e-05
2.94311e-05
2.94036e-05
2.93737e-05
2.93412e-05
2.93061e-05
2.92684e-05
2.92279e-05
2.91847e-05
2.91386e-05
2.90896e-05
2.90377e-05
2.89828e-05
2.89246e-05
2.88108e-05
2.88716e-05
2.89291e-05
2.89836e-05
2.90351e-05
2.90836e-05
2.91293e-05
2.9172e-05
2.9212e-05
2.92492e-05
2.92837e-05
2.93155e-05
2.93448e-05
2.93715e-05
2.93958e-05
2.94176e-05
2.94371e-05
2.94543e-05
2.94692e-05
2.94819e-05
2.94924e-05
2.95008e-05
2.9507e-05
2.95112e-05
2.95133e-05
2.95133e-05
2.95112e-05
2.9507e-05
2.95008e-05
2.94924e-05
2.94819e-05
2.94692e-05
2.94543e-05
2.94371e-05
2.94176e-05
2.93958e-05
2.93715e-05
2.93448e-05
2.93155e-05
2.92836e-05
2.92492e-05
2.9212e-05
2.9172e-05
2.91293e-05
2.90836e-05
2.90351e-05
2.89836e-05
2.89291e-05
2.88716e-05
2.88108e-05
2.86918e-05
2.87552e-05
2.88152e-05
2.88722e-05
2.89262e-05
2.89771e-05
2.90251e-05
2.90701e-05
2.91122e-05
2.91515e-05
2.91879e-05
2.92216e-05
2.92526e-05
2.9281e-05
2.93068e-05
2.933e-05
2.93508e-05
2.93691e-05
2.9385e-05
2.93986e-05
2.94098e-05
2.94188e-05
2.94255e-05
2.94299e-05
2.94322e-05
2.94322e-05
2.94299e-05
2.94255e-05
2.94188e-05
2.94098e-05
2.93986e-05
2.9385e-05
2.93691e-05
2.93508e-05
2.933e-05
2.93068e-05
2.9281e-05
2.92526e-05
2.92216e-05
2.91879e-05
2.91514e-05
2.91122e-05
2.90701e-05
2.90251e-05
2.89771e-05
2.89262e-05
2.88722e-05
2.88152e-05
2.87552e-05
2.86918e-05
2.85678e-05
2.86337e-05
2.86962e-05
2.87556e-05
2.8812e-05
2.88653e-05
2.89155e-05
2.89627e-05
2.90069e-05
2.90482e-05
2.90866e-05
2.91221e-05
2.91548e-05
2.91848e-05
2.92121e-05
2.92367e-05
2.92587e-05
2.92782e-05
2.92951e-05
2.93095e-05
2.93214e-05
2.93309e-05
2.93381e-05
2.93428e-05
2.93452e-05
2.93452e-05
2.93428e-05
2.93381e-05
2.93309e-05
2.93214e-05
2.93095e-05
2.92951e-05
2.92782e-05
2.92587e-05
2.92367e-05
2.92121e-05
2.91848e-05
2.91548e-05
2.91221e-05
2.90866e-05
2.90482e-05
2.90069e-05
2.89627e-05
2.89155e-05
2.88652e-05
2.8812e-05
2.87556e-05
2.86962e-05
2.86337e-05
2.85678e-05
2.8439e-05
2.85073e-05
2.85722e-05
2.8634e-05
2.86926e-05
2.87482e-05
2.88006e-05
2.88499e-05
2.88962e-05
2.89395e-05
2.89797e-05
2.90171e-05
2.90515e-05
2.9083e-05
2.91118e-05
2.91377e-05
2.91609e-05
2.91815e-05
2.91993e-05
2.92146e-05
2.92272e-05
2.92373e-05
2.92449e-05
2.92499e-05
2.92524e-05
2.92524e-05
2.92499e-05
2.92449e-05
2.92373e-05
2.92272e-05
2.92146e-05
2.91993e-05
2.91815e-05
2.91609e-05
2.91377e-05
2.91118e-05
2.9083e-05
2.90515e-05
2.90171e-05
2.89797e-05
2.89395e-05
2.88962e-05
2.88499e-05
2.88006e-05
2.87482e-05
2.86926e-05
2.8634e-05
2.85722e-05
2.85072e-05
2.8439e-05
2.83054e-05
2.8376e-05
2.84432e-05
2.85073e-05
2.85682e-05
2.8626e-05
2.86805e-05
2.8732e-05
2.87802e-05
2.88254e-05
2.88675e-05
2.89066e-05
2.89426e-05
2.89757e-05
2.90059e-05
2.90332e-05
2.90576e-05
2.90792e-05
2.9098e-05
2.9114e-05
2.91274e-05
2.9138e-05
2.91459e-05
2.91512e-05
2.91539e-05
2.91539e-05
2.91512e-05
2.91459e-05
2.9138e-05
2.91274e-05
2.9114e-05
2.9098e-05
2.90792e-05
2.90576e-05
2.90332e-05
2.90059e-05
2.89757e-05
2.89426e-05
2.89066e-05
2.88675e-05
2.88254e-05
2.87802e-05
2.87319e-05
2.86805e-05
2.8626e-05
2.85682e-05
2.85073e-05
2.84432e-05
2.8376e-05
2.83053e-05
2.81671e-05
2.824e-05
2.83095e-05
2.83758e-05
2.84389e-05
2.84988e-05
2.85554e-05
2.86089e-05
2.86591e-05
2.87062e-05
2.875e-05
2.87908e-05
2.88284e-05
2.8863e-05
2.88946e-05
2.89231e-05
2.89487e-05
2.89713e-05
2.8991e-05
2.90079e-05
2.90219e-05
2.90331e-05
2.90414e-05
2.9047e-05
2.90498e-05
2.90498e-05
2.9047e-05
2.90414e-05
2.90331e-05
2.90219e-05
2.90079e-05
2.8991e-05
2.89713e-05
2.89487e-05
2.89231e-05
2.88946e-05
2.8863e-05
2.88284e-05
2.87908e-05
2.875e-05
2.87062e-05
2.86591e-05
2.86089e-05
2.85554e-05
2.84988e-05
2.84389e-05
2.83758e-05
2.83095e-05
2.824e-05
2.81671e-05
2.81712e-05
2.82396e-05
2.83048e-05
2.83668e-05
2.84254e-05
2.84808e-05
2.85329e-05
2.85818e-05
2.86274e-05
2.86698e-05
2.8709e-05
2.8745e-05
2.87779e-05
2.88077e-05
2.88344e-05
2.88581e-05
2.88787e-05
2.88963e-05
2.8911e-05
2.89227e-05
2.89314e-05
2.89372e-05
2.89401e-05
2.89401e-05
2.89372e-05
2.89314e-05
2.89227e-05
2.8911e-05
2.88963e-05
2.88787e-05
2.88581e-05
2.88344e-05
2.88077e-05
2.87779e-05
2.8745e-05
2.8709e-05
2.86698e-05
2.86274e-05
2.85818e-05
2.85329e-05
2.84808e-05
2.84254e-05
2.83667e-05
2.83048e-05
2.82396e-05
2.81711e-05
2.80995e-05
2.80244e-05
2.80988e-05
2.8166e-05
2.823e-05
2.82906e-05
2.83479e-05
2.84018e-05
2.84525e-05
2.84998e-05
2.85437e-05
2.85845e-05
2.86219e-05
2.86561e-05
2.86871e-05
2.87149e-05
2.87395e-05
2.8761e-05
2.87794e-05
2.87947e-05
2.88069e-05
2.8816e-05
2.88221e-05
2.88251e-05
2.88251e-05
2.88221e-05
2.8816e-05
2.88069e-05
2.87947e-05
2.87794e-05
2.8761e-05
2.87395e-05
2.87149e-05
2.86871e-05
2.86561e-05
2.86219e-05
2.85845e-05
2.85437e-05
2.84997e-05
2.84524e-05
2.84018e-05
2.83479e-05
2.82906e-05
2.823e-05
2.8166e-05
2.80988e-05
2.80282e-05
2.79545e-05
2.78772e-05
2.80886e-05
2.81511e-05
2.82102e-05
2.82659e-05
2.83183e-05
2.83672e-05
2.84127e-05
2.84549e-05
2.84937e-05
2.85292e-05
2.85614e-05
2.85902e-05
2.86158e-05
2.86381e-05
2.86572e-05
2.86731e-05
2.86858e-05
2.86953e-05
2.87017e-05
2.87048e-05
2.87048e-05
2.87017e-05
2.86953e-05
2.86858e-05
2.86731e-05
2.86572e-05
2.86381e-05
2.86158e-05
2.85902e-05
2.85613e-05
2.85292e-05
2.84937e-05
2.84549e-05
2.84127e-05
2.83672e-05
2.83183e-05
2.82659e-05
2.82102e-05
2.81511e-05
2.80886e-05
2.80227e-05
2.79535e-05
2.78809e-05
2.78051e-05
2.77258e-05
2.80071e-05
2.80679e-05
2.81254e-05
2.81793e-05
2.82298e-05
2.82769e-05
2.83205e-05
2.83606e-05
2.83973e-05
2.84306e-05
2.84605e-05
2.8487e-05
2.85102e-05
2.853e-05
2.85465e-05
2.85596e-05
2.85695e-05
2.85761e-05
2.85794e-05
2.85794e-05
2.85761e-05
2.85695e-05
2.85596e-05
2.85465e-05
2.853e-05
2.85102e-05
2.8487e-05
2.84605e-05
2.84306e-05
2.83973e-05
2.83606e-05
2.83205e-05
2.82769e-05
2.82298e-05
2.81793e-05
2.81254e-05
2.80679e-05
2.8007e-05
2.79427e-05
2.7875e-05
2.78038e-05
2.77293e-05
2.76516e-05
2.75703e-05
2.79212e-05
2.79803e-05
2.80358e-05
2.80878e-05
2.81363e-05
2.81813e-05
2.82227e-05
2.82606e-05
2.8295e-05
2.83259e-05
2.83533e-05
2.83772e-05
2.83977e-05
2.84148e-05
2.84284e-05
2.84386e-05
2.84454e-05
2.84488e-05
2.84488e-05
2.84454e-05
2.84386e-05
2.84284e-05
2.84148e-05
2.83977e-05
2.83772e-05
2.83533e-05
2.83259e-05
2.8295e-05
2.82606e-05
2.82227e-05
2.81813e-05
2.81363e-05
2.80878e-05
2.80358e-05
2.79803e-05
2.79212e-05
2.78586e-05
2.77925e-05
2.77229e-05
2.76499e-05
2.75736e-05
2.74939e-05
2.74108e-05
2.78878e-05
2.79413e-05
2.79912e-05
2.80375e-05
2.80801e-05
2.81192e-05
2.81546e-05
2.81865e-05
2.82148e-05
2.82395e-05
2.82606e-05
2.82782e-05
2.82923e-05
2.83029e-05
2.83099e-05
2.83134e-05
2.83134e-05
2.83099e-05
2.83029e-05
2.82923e-05
2.82782e-05
2.82606e-05
2.82395e-05
2.82148e-05
2.81865e-05
2.81546e-05
2.81192e-05
2.80801e-05
2.80375e-05
2.79912e-05
2.79413e-05
2.78878e-05
2.78307e-05
2.777e-05
2.77058e-05
2.7638e-05
2.75667e-05
2.74919e-05
2.74138e-05
2.73323e-05
2.72473e-05
2.77904e-05
2.78416e-05
2.78891e-05
2.7933e-05
2.79732e-05
2.80096e-05
2.80424e-05
2.80715e-05
2.8097e-05
2.81188e-05
2.81369e-05
2.81515e-05
2.81623e-05
2.81696e-05
2.81732e-05
2.81732e-05
2.81696e-05
2.81623e-05
2.81515e-05
2.81369e-05
2.81188e-05
2.8097e-05
2.80715e-05
2.80424e-05
2.80096e-05
2.79732e-05
2.7933e-05
2.78891e-05
2.78416e-05
2.77904e-05
2.77354e-05
2.76769e-05
2.76146e-05
2.75488e-05
2.74794e-05
2.74064e-05
2.73299e-05
2.72501e-05
2.71668e-05
2.70801e-05
2.78227e-05
2.78601e-05
2.78938e-05
2.79238e-05
2.79499e-05
2.79723e-05
2.7991e-05
2.80059e-05
2.80171e-05
2.80246e-05
2.80283e-05
2.80283e-05
2.80246e-05
2.80171e-05
2.80059e-05
2.7991e-05
2.79723e-05
2.79499e-05
2.79238e-05
2.78938e-05
2.78601e-05
2.78227e-05
2.77814e-05
2.77364e-05
2.76877e-05
2.76351e-05
2.75788e-05
2.75188e-05
2.74551e-05
2.73878e-05
2.73168e-05
2.72422e-05
2.71641e-05
2.70825e-05
2.69976e-05
2.69092e-05
2.77984e-05
2.78214e-05
2.78406e-05
2.78559e-05
2.78674e-05
2.78751e-05
2.78789e-05
2.78789e-05
2.7875e-05
2.78674e-05
2.78559e-05
2.78406e-05
2.78214e-05
2.77984e-05
2.77715e-05
2.77408e-05
2.77063e-05
2.76679e-05
2.76256e-05
2.75795e-05
2.75295e-05
2.74757e-05
2.74181e-05
2.73568e-05
2.72916e-05
2.72228e-05
2.71503e-05
2.70741e-05
2.69945e-05
2.69113e-05
2.68248e-05
2.67347e-05
2.76858e-05
2.77015e-05
2.77132e-05
2.77211e-05
2.7725e-05
2.7725e-05
2.77211e-05
2.77132e-05
2.77015e-05
2.76857e-05
2.76661e-05
2.76425e-05
2.7615e-05
2.75835e-05
2.75481e-05
2.75088e-05
2.74656e-05
2.74184e-05
2.73673e-05
2.73123e-05
2.72534e-05
2.71907e-05
2.71242e-05
2.7054e-05
2.698e-05
2.69024e-05
2.68212e-05
2.67365e-05
2.66484e-05
2.65568e-05
2.75669e-05
2.75669e-05
2.75629e-05
2.75548e-05
2.75428e-05
2.75267e-05
2.75066e-05
2.74824e-05
2.74543e-05
2.74221e-05
2.73859e-05
2.73457e-05
2.73015e-05
2.72532e-05
2.72011e-05
2.71449e-05
2.70849e-05
2.70209e-05
2.69531e-05
2.68815e-05
2.68061e-05
2.6727e-05
2.66444e-05
2.65582e-05
2.64687e-05
2.63756e-05
2.73634e-05
2.73429e-05
2.73182e-05
2.72895e-05
2.72566e-05
2.72196e-05
2.71786e-05
2.71334e-05
2.70842e-05
2.7031e-05
2.69737e-05
2.69125e-05
2.68473e-05
2.67783e-05
2.67053e-05
2.66286e-05
2.65482e-05
2.64642e-05
2.63766e-05
2.62856e-05
2.61911e-05
2.71207e-05
2.70872e-05
2.70495e-05
2.70076e-05
2.69616e-05
2.69114e-05
2.68572e-05
2.67989e-05
2.67365e-05
2.66702e-05
2.65999e-05
2.65257e-05
2.64478e-05
2.6366e-05
2.62807e-05
2.61918e-05
2.60994e-05
2.60035e-05
2.68755e-05
2.68329e-05
2.6786e-05
2.6735e-05
2.66798e-05
2.66204e-05
2.6557e-05
2.64896e-05
2.64181e-05
2.63428e-05
2.62636e-05
2.61806e-05
2.6094e-05
2.60038e-05
2.59101e-05
2.5813e-05
2.66979e-05
2.66545e-05
2.66069e-05
2.6555e-05
2.64988e-05
2.64385e-05
2.63741e-05
2.63056e-05
2.6233e-05
2.61565e-05
2.60762e-05
2.5992e-05
2.59042e-05
2.58128e-05
2.57179e-05
2.56195e-05
2.65168e-05
2.64727e-05
2.64242e-05
2.63715e-05
2.63145e-05
2.62533e-05
2.61879e-05
2.61183e-05
2.60447e-05
2.59672e-05
2.58857e-05
2.58004e-05
2.57114e-05
2.56188e-05
2.55228e-05
2.54232e-05
2.61847e-05
2.61269e-05
2.60648e-05
2.59984e-05
2.59279e-05
2.58534e-05
2.57747e-05
2.56922e-05
2.56058e-05
2.55158e-05
2.54221e-05
2.53249e-05
2.52242e-05
2.5659e-05
2.55794e-05
2.54958e-05
2.54085e-05
2.53173e-05
2.52226e-05
2.51244e-05
2.50227e-05
2.52083e-05
2.51162e-05
2.50205e-05
2.49213e-05
2.48186e-05
3.00311e-05
3.00315e-05
3.00316e-05
3.00316e-05
3.00315e-05
3.00311e-05
3.00306e-05
3.00299e-05
3.00288e-05
3.00275e-05
3.00259e-05
3.00238e-05
3.00211e-05
3.00179e-05
3.0014e-05
3.00094e-05
3.00038e-05
2.99972e-05
2.99895e-05
2.99806e-05
2.99703e-05
2.99584e-05
2.99449e-05
2.99296e-05
2.99123e-05
2.98929e-05
2.98714e-05
2.9848e-05
3.00235e-05
3.00241e-05
3.00243e-05
3.00243e-05
3.0024e-05
3.00235e-05
3.00226e-05
3.00214e-05
3.00198e-05
3.00177e-05
3.00152e-05
3.00121e-05
3.00084e-05
3.0004e-05
2.99987e-05
2.99925e-05
2.99853e-05
2.9977e-05
2.99674e-05
2.99564e-05
2.99439e-05
2.99298e-05
2.9914e-05
2.98962e-05
2.98766e-05
2.98552e-05
2.98322e-05
2.98079e-05
3.00112e-05
3.00121e-05
3.00125e-05
3.00125e-05
3.0012e-05
3.00112e-05
3.00099e-05
3.00082e-05
3.00059e-05
3.00031e-05
2.99996e-05
2.99954e-05
2.99905e-05
2.99847e-05
2.99779e-05
2.99701e-05
2.99611e-05
2.99509e-05
2.99392e-05
2.99261e-05
2.99113e-05
2.98949e-05
2.98766e-05
2.98565e-05
2.98346e-05
2.98109e-05
2.97854e-05
2.97577e-05
2.9994e-05
2.99951e-05
2.99956e-05
2.99956e-05
2.99951e-05
2.9994e-05
2.99923e-05
2.99899e-05
2.9987e-05
2.99833e-05
2.99788e-05
2.99735e-05
2.99673e-05
2.99601e-05
2.99518e-05
2.99422e-05
2.99314e-05
2.99192e-05
2.99055e-05
2.98902e-05
2.98732e-05
2.98545e-05
2.98339e-05
2.98114e-05
2.9787e-05
2.97606e-05
2.97321e-05
2.97009e-05
2.99715e-05
2.99729e-05
2.99736e-05
2.99736e-05
2.99729e-05
2.99715e-05
2.99693e-05
2.99664e-05
2.99627e-05
2.99581e-05
2.99527e-05
2.99462e-05
2.99387e-05
2.993e-05
2.99201e-05
2.99089e-05
2.98962e-05
2.98821e-05
2.98663e-05
2.98488e-05
2.98296e-05
2.98085e-05
2.97854e-05
2.97604e-05
2.97334e-05
2.97041e-05
2.96725e-05
2.96379e-05
2.99435e-05
2.99452e-05
2.9946e-05
2.9946e-05
2.99452e-05
2.99435e-05
2.99409e-05
2.99374e-05
2.99329e-05
2.99274e-05
2.99209e-05
2.99133e-05
2.99044e-05
2.98943e-05
2.98828e-05
2.98698e-05
2.98553e-05
2.98392e-05
2.98214e-05
2.98017e-05
2.97802e-05
2.97567e-05
2.97312e-05
2.97035e-05
2.96737e-05
2.96414e-05
2.96067e-05
2.95689e-05
2.99098e-05
2.99118e-05
2.99128e-05
2.99128e-05
2.99118e-05
2.99098e-05
2.99067e-05
2.99026e-05
2.98974e-05
2.9891e-05
2.98834e-05
2.98746e-05
2.98644e-05
2.98528e-05
2.98397e-05
2.9825e-05
2.98086e-05
2.97905e-05
2.97706e-05
2.97487e-05
2.97249e-05
2.9699e-05
2.96709e-05
2.96406e-05
2.96079e-05
2.95727e-05
2.95348e-05
2.9494e-05
2.98702e-05
2.98726e-05
2.98737e-05
2.98737e-05
2.98726e-05
2.98702e-05
2.98667e-05
2.9862e-05
2.9856e-05
2.98487e-05
2.98401e-05
2.983e-05
2.98185e-05
2.98054e-05
2.97907e-05
2.97743e-05
2.9756e-05
2.97359e-05
2.97139e-05
2.96898e-05
2.96636e-05
2.96353e-05
2.96046e-05
2.95716e-05
2.95361e-05
2.94979e-05
2.94571e-05
2.94132e-05
2.98248e-05
2.98274e-05
2.98287e-05
2.98287e-05
2.98274e-05
2.98248e-05
2.98208e-05
2.98154e-05
2.98087e-05
2.98005e-05
2.97908e-05
2.97795e-05
2.97667e-05
2.97521e-05
2.97357e-05
2.97176e-05
2.96975e-05
2.96754e-05
2.96512e-05
2.96249e-05
2.95964e-05
2.95656e-05
2.95323e-05
2.94966e-05
2.94583e-05
2.94173e-05
2.93735e-05
2.93266e-05
2.97733e-05
2.97762e-05
2.97777e-05
2.97777e-05
2.97762e-05
2.97733e-05
2.97689e-05
2.97629e-05
2.97554e-05
2.97463e-05
2.97355e-05
2.97231e-05
2.97088e-05
2.96928e-05
2.96748e-05
2.96549e-05
2.96329e-05
2.96089e-05
2.95826e-05
2.95541e-05
2.95232e-05
2.94899e-05
2.94541e-05
2.94157e-05
2.93747e-05
2.93308e-05
2.92842e-05
2.92344e-05
2.97158e-05
2.9719e-05
2.97207e-05
2.97207e-05
2.9719e-05
2.97158e-05
2.97109e-05
2.97043e-05
2.9696e-05
2.9686e-05
2.96742e-05
2.96605e-05
2.9645e-05
2.96275e-05
2.96079e-05
2.95862e-05
2.95624e-05
2.95364e-05
2.9508e-05
2.94773e-05
2.94441e-05
2.94084e-05
2.93701e-05
2.9329e-05
2.92853e-05
2.92387e-05
2.91892e-05
2.91366e-05
2.96522e-05
2.96558e-05
2.96576e-05
2.96576e-05
2.96558e-05
2.96522e-05
2.96469e-05
2.96397e-05
2.96307e-05
2.96197e-05
2.96069e-05
2.9592e-05
2.95751e-05
2.95562e-05
2.9535e-05
2.95116e-05
2.9486e-05
2.9458e-05
2.94275e-05
2.93946e-05
2.93591e-05
2.9321e-05
2.92802e-05
2.92366e-05
2.91902e-05
2.9141e-05
2.90887e-05
2.90333e-05
2.95826e-05
2.95865e-05
2.95884e-05
2.95884e-05
2.95865e-05
2.95826e-05
2.95768e-05
2.9569e-05
2.95593e-05
2.95475e-05
2.95336e-05
2.95175e-05
2.94993e-05
2.94789e-05
2.94562e-05
2.94311e-05
2.94037e-05
2.93737e-05
2.93412e-05
2.93062e-05
2.92684e-05
2.9228e-05
2.91847e-05
2.91386e-05
2.90896e-05
2.90377e-05
2.89828e-05
2.89247e-05
2.95071e-05
2.95112e-05
2.95133e-05
2.95133e-05
2.95112e-05
2.9507e-05
2.95008e-05
2.94924e-05
2.94819e-05
2.94692e-05
2.94543e-05
2.94371e-05
2.94176e-05
2.93958e-05
2.93715e-05
2.93448e-05
2.93155e-05
2.92837e-05
2.92492e-05
2.9212e-05
2.9172e-05
2.91293e-05
2.90836e-05
2.90351e-05
2.89836e-05
2.89291e-05
2.88716e-05
2.88108e-05
2.93986e-05
2.93851e-05
2.93691e-05
2.93508e-05
2.93301e-05
2.93068e-05
2.9281e-05
2.92527e-05
2.92216e-05
2.91879e-05
2.91515e-05
2.91122e-05
2.90701e-05
2.90251e-05
2.89771e-05
2.89262e-05
2.88722e-05
2.88152e-05
2.87552e-05
2.86918e-05
2.90482e-05
2.90069e-05
2.89627e-05
2.89155e-05
2.88653e-05
2.8812e-05
2.87557e-05
2.86962e-05
2.86337e-05
2.85678e-05
2.87482e-05
2.86926e-05
2.8634e-05
2.85722e-05
2.85073e-05
2.8439e-05
2.84432e-05
2.8376e-05
2.83054e-05
2.42169e-05
2.40009e-05
2.37827e-05
2.75088e-05
2.73457e-05
2.71786e-05
2.70076e-05
2.68329e-05
2.66545e-05
2.64727e-05
2.62874e-05
2.60989e-05
2.59072e-05
2.57124e-05
2.55147e-05
2.5314e-05
2.51107e-05
2.49047e-05
2.46961e-05
2.44851e-05
2.42717e-05
2.4056e-05
2.38382e-05
2.80097e-05
2.78602e-05
2.77063e-05
2.75482e-05
2.73859e-05
2.72196e-05
2.70495e-05
2.68755e-05
2.66979e-05
2.65168e-05
2.63322e-05
2.61443e-05
2.59532e-05
2.5759e-05
2.55618e-05
2.53618e-05
2.51589e-05
2.49533e-05
2.47452e-05
2.45346e-05
2.43216e-05
2.41063e-05
2.38887e-05
2.80424e-05
2.78938e-05
2.77408e-05
2.75835e-05
2.74221e-05
2.72566e-05
2.70872e-05
2.69139e-05
2.6737e-05
2.65565e-05
2.63726e-05
2.61853e-05
2.59947e-05
2.58011e-05
2.56044e-05
2.54048e-05
2.52024e-05
2.49972e-05
2.47895e-05
2.45793e-05
2.43666e-05
2.41516e-05
2.39344e-05
2.80716e-05
2.79238e-05
2.77715e-05
2.7615e-05
2.74543e-05
2.72895e-05
2.71207e-05
2.69481e-05
2.67718e-05
2.65919e-05
2.64085e-05
2.62217e-05
2.60317e-05
2.58385e-05
2.56423e-05
2.54431e-05
2.52411e-05
2.50364e-05
2.4829e-05
2.46191e-05
2.44068e-05
2.41921e-05
2.39751e-05
2.8097e-05
2.79499e-05
2.77984e-05
2.76425e-05
2.74824e-05
2.73182e-05
2.71501e-05
2.6978e-05
2.68023e-05
2.66229e-05
2.644e-05
2.62537e-05
2.60641e-05
2.58713e-05
2.56755e-05
2.54767e-05
2.52751e-05
2.50707e-05
2.48636e-05
2.4654e-05
2.4442e-05
2.42275e-05
2.40109e-05
2.99329e-05
2.98974e-05
2.9856e-05
2.98087e-05
2.97554e-05
2.9696e-05
2.96307e-05
2.95593e-05
2.94819e-05
2.93986e-05
2.93095e-05
2.92146e-05
2.9114e-05
2.90079e-05
2.88963e-05
2.87794e-05
2.86573e-05
2.853e-05
2.83978e-05
2.82606e-05
2.81188e-05
2.79723e-05
2.78214e-05
2.76661e-05
2.75066e-05
2.73429e-05
2.71752e-05
2.70037e-05
2.68284e-05
2.66494e-05
2.6467e-05
2.62811e-05
2.60919e-05
2.58995e-05
2.5704e-05
2.55056e-05
2.53042e-05
2.51001e-05
2.48934e-05
2.4684e-05
2.44722e-05
2.4258e-05
2.40415e-05
2.99374e-05
2.99026e-05
2.9862e-05
2.98155e-05
2.97629e-05
2.97043e-05
2.96397e-05
2.9569e-05
2.94924e-05
2.94099e-05
2.93214e-05
2.92272e-05
2.91274e-05
2.90219e-05
2.8911e-05
2.87947e-05
2.86731e-05
2.85465e-05
2.84148e-05
2.82783e-05
2.81369e-05
2.7991e-05
2.78406e-05
2.76857e-05
2.75267e-05
2.73634e-05
2.71962e-05
2.70251e-05
2.68502e-05
2.66716e-05
2.64895e-05
2.63039e-05
2.61151e-05
2.5923e-05
2.57278e-05
2.55296e-05
2.53286e-05
2.51247e-05
2.49182e-05
2.47091e-05
2.44974e-05
2.42834e-05
2.40672e-05
2.99409e-05
2.99067e-05
2.98667e-05
2.98208e-05
2.97689e-05
2.97109e-05
2.96469e-05
2.95768e-05
2.95008e-05
2.94188e-05
2.9331e-05
2.92373e-05
2.9138e-05
2.90331e-05
2.89227e-05
2.88069e-05
2.86858e-05
2.85596e-05
2.84284e-05
2.82923e-05
2.81515e-05
2.80059e-05
2.78559e-05
2.77015e-05
2.75427e-05
2.73799e-05
2.7213e-05
2.70422e-05
2.68676e-05
2.66893e-05
2.65075e-05
2.63222e-05
2.61336e-05
2.59418e-05
2.57469e-05
2.55489e-05
2.5348e-05
2.51444e-05
2.4938e-05
2.47291e-05
2.45177e-05
2.43038e-05
2.40877e-05
3.00311e-05
3.00235e-05
3.00112e-05
2.9994e-05
2.99715e-05
2.99435e-05
2.99098e-05
2.98702e-05
2.98248e-05
2.97733e-05
2.97158e-05
2.96522e-05
2.95826e-05
2.9507e-05
2.94255e-05
2.93381e-05
2.92449e-05
2.9146e-05
2.90414e-05
2.89314e-05
2.8816e-05
2.86953e-05
2.85695e-05
2.84386e-05
2.83029e-05
2.81623e-05
2.80171e-05
2.78674e-05
2.77132e-05
2.75548e-05
2.73922e-05
2.72256e-05
2.7055e-05
2.68807e-05
2.67026e-05
2.6521e-05
2.6336e-05
2.61476e-05
2.59559e-05
2.57611e-05
2.55634e-05
2.53627e-05
2.51592e-05
2.4953e-05
2.47442e-05
2.45328e-05
2.43191e-05
2.41031e-05
3.00315e-05
3.00241e-05
3.0012e-05
2.99951e-05
2.99729e-05
2.99452e-05
2.99118e-05
2.98725e-05
2.98274e-05
2.97762e-05
2.9719e-05
2.96558e-05
2.95865e-05
2.95112e-05
2.94299e-05
2.93428e-05
2.92499e-05
2.91512e-05
2.9047e-05
2.89372e-05
2.88221e-05
2.87017e-05
2.85761e-05
2.84454e-05
2.83099e-05
2.81696e-05
2.80246e-05
2.7875e-05
2.77211e-05
2.75629e-05
2.74004e-05
2.7234e-05
2.70636e-05
2.68894e-05
2.67115e-05
2.653e-05
2.63451e-05
2.61568e-05
2.59653e-05
2.57707e-05
2.5573e-05
2.53724e-05
2.5169e-05
2.49629e-05
2.47542e-05
2.4543e-05
2.43293e-05
2.41134e-05
3.00316e-05
3.00243e-05
3.00125e-05
2.99956e-05
2.99736e-05
2.9946e-05
2.99128e-05
2.98737e-05
2.98287e-05
2.97777e-05
2.97206e-05
2.96575e-05
2.95884e-05
2.95133e-05
2.94322e-05
2.93452e-05
2.92524e-05
2.91539e-05
2.90498e-05
2.89401e-05
2.88251e-05
2.87048e-05
2.85793e-05
2.84488e-05
2.83134e-05
2.81732e-05
2.80283e-05
2.78789e-05
2.7725e-05
2.75669e-05
2.74046e-05
2.72382e-05
2.70679e-05
2.68938e-05
2.67159e-05
2.65346e-05
2.63497e-05
2.61615e-05
2.597e-05
2.57754e-05
2.55778e-05
2.53773e-05
2.5174e-05
2.49679e-05
2.47592e-05
2.4548e-05
2.43344e-05
2.41185e-05
3.00316e-05
3.00243e-05
3.00125e-05
2.99956e-05
2.99736e-05
2.9946e-05
2.99128e-05
2.98737e-05
2.98287e-05
2.97777e-05
2.97206e-05
2.96575e-05
2.95884e-05
2.95133e-05
2.94322e-05
2.93452e-05
2.92524e-05
2.91539e-05
2.90498e-05
2.89401e-05
2.88251e-05
2.87048e-05
2.85793e-05
2.84488e-05
2.83134e-05
2.81732e-05
2.80283e-05
2.78789e-05
2.7725e-05
2.75669e-05
2.74045e-05
2.72382e-05
2.70679e-05
2.68938e-05
2.67159e-05
2.65346e-05
2.63497e-05
2.61615e-05
2.597e-05
2.57754e-05
2.55778e-05
2.53773e-05
2.5174e-05
2.49679e-05
2.47592e-05
2.4548e-05
2.43344e-05
2.41185e-05
3.00315e-05
3.0024e-05
3.0012e-05
2.99951e-05
2.99729e-05
2.99452e-05
2.99118e-05
2.98725e-05
2.98274e-05
2.97762e-05
2.9719e-05
2.96558e-05
2.95865e-05
2.95112e-05
2.94299e-05
2.93428e-05
2.92499e-05
2.91512e-05
2.9047e-05
2.89372e-05
2.88221e-05
2.87016e-05
2.85761e-05
2.84454e-05
2.83099e-05
2.81696e-05
2.80246e-05
2.7875e-05
2.77211e-05
2.75628e-05
2.74004e-05
2.7234e-05
2.70636e-05
2.68894e-05
2.67115e-05
2.653e-05
2.63451e-05
2.61568e-05
2.59653e-05
2.57707e-05
2.5573e-05
2.53724e-05
2.5169e-05
2.49629e-05
2.47542e-05
2.4543e-05
2.43293e-05
2.41134e-05
3.00311e-05
3.00235e-05
3.00112e-05
2.9994e-05
2.99715e-05
2.99434e-05
2.99097e-05
2.98702e-05
2.98247e-05
2.97733e-05
2.97158e-05
2.96522e-05
2.95826e-05
2.9507e-05
2.94255e-05
2.93381e-05
2.92449e-05
2.91459e-05
2.90414e-05
2.89314e-05
2.8816e-05
2.86953e-05
2.85695e-05
2.84386e-05
2.83029e-05
2.81623e-05
2.80171e-05
2.78674e-05
2.77132e-05
2.75548e-05
2.73922e-05
2.72256e-05
2.7055e-05
2.68807e-05
2.67026e-05
2.6521e-05
2.6336e-05
2.61475e-05
2.59559e-05
2.57611e-05
2.55634e-05
2.53627e-05
2.51592e-05
2.4953e-05
2.47442e-05
2.45328e-05
2.43191e-05
2.41031e-05
3.00306e-05
3.00226e-05
3.00099e-05
2.99923e-05
2.99693e-05
2.99409e-05
2.99067e-05
2.98667e-05
2.98208e-05