/*--------------------------------*- C++ -*----------------------------------*\
  =========                 |
  \\      /  F ield         | OpenFOAM: The Open Source CFD Toolbox
   \\    /   O peration     | Website:  https://openfoam.org
    \\  /    A nd           | Version:  7
     \\/     M anipulation  |
\*---------------------------------------------------------------------------*/
FoamFile
{
    version     2.0;
    format      ascii;
    class       volScalarField;
    location    "60000";
    object      k;
}
// * * * * * * * * * * * * * * * * * * * * * * * * * * * * * * * * * * * * * //

dimensions      [0 2 -2 0 0 0 0];

internalField   nonuniform List<scalar> 
1776
(
1.24835e-06
1.25099e-06
1.25337e-06
1.25551e-06
1.25742e-06
1.2591e-06
1.26056e-06
1.26182e-06
1.26288e-06
1.23029e-06
1.23348e-06
1.23646e-06
1.23916e-06
1.24159e-06
1.24377e-06
1.24569e-06
1.24738e-06
1.24884e-06
1.25007e-06
1.21339e-06
1.21695e-06
1.22027e-06
1.22329e-06
1.22603e-06
1.22849e-06
1.23067e-06
1.23259e-06
1.23425e-06
1.23566e-06
1.19465e-06
1.19859e-06
1.20227e-06
1.20563e-06
1.20869e-06
1.21144e-06
1.21389e-06
1.21605e-06
1.21793e-06
1.21952e-06
1.1739e-06
1.17823e-06
1.18229e-06
1.18601e-06
1.1894e-06
1.19246e-06
1.19519e-06
1.1976e-06
1.1997e-06
1.20148e-06
1.15095e-06
1.1557e-06
1.16015e-06
1.16424e-06
1.16798e-06
1.17135e-06
1.17438e-06
1.17705e-06
1.17938e-06
1.18136e-06
1.1256e-06
1.13078e-06
1.13564e-06
1.14011e-06
1.14421e-06
1.14792e-06
1.15125e-06
1.1542e-06
1.15677e-06
1.15896e-06
1.09759e-06
1.10323e-06
1.10851e-06
1.11339e-06
1.11786e-06
1.12192e-06
1.12557e-06
1.1288e-06
1.13162e-06
1.13404e-06
1.06668e-06
1.07278e-06
1.07851e-06
1.08381e-06
1.08867e-06
1.09309e-06
1.09707e-06
1.1006e-06
1.10369e-06
1.10633e-06
1.03256e-06
1.03915e-06
1.04534e-06
1.05107e-06
1.05634e-06
1.06113e-06
1.06546e-06
1.0693e-06
1.07266e-06
1.07553e-06
9.94929e-07
1.00202e-06
1.00867e-06
1.01485e-06
1.02053e-06
1.02572e-06
1.0304e-06
1.03456e-06
1.0382e-06
1.04132e-06
9.53429e-07
9.61025e-07
9.68158e-07
9.74789e-07
9.80901e-07
9.86483e-07
9.91523e-07
9.96013e-07
9.99948e-07
1.00332e-06
9.07703e-07
9.15806e-07
9.23418e-07
9.30505e-07
9.37048e-07
9.4303e-07
9.48439e-07
9.53262e-07
9.57493e-07
9.61126e-07
8.57385e-07
8.65982e-07
8.74063e-07
8.81599e-07
8.88566e-07
8.94946e-07
9.00721e-07
9.05877e-07
9.10404e-07
9.14294e-07
8.02135e-07
8.11195e-07
8.19718e-07
8.27679e-07
8.35052e-07
8.41814e-07
8.47942e-07
8.5342e-07
8.58236e-07
8.62377e-07
7.41683e-07
7.51147e-07
7.6006e-07
7.68402e-07
7.76143e-07
7.83252e-07
7.89705e-07
7.95482e-07
8.00565e-07
8.04942e-07
6.75904e-07
6.85677e-07
6.94894e-07
7.0354e-07
7.11578e-07
7.18976e-07
7.25702e-07
7.31732e-07
7.37046e-07
7.41626e-07
6.04934e-07
6.14868e-07
6.24255e-07
6.33084e-07
6.41313e-07
6.48902e-07
6.55816e-07
6.62026e-07
6.67506e-07
6.72237e-07
5.29331e-07
5.39214e-07
5.48578e-07
5.57413e-07
5.65671e-07
5.73306e-07
5.80279e-07
5.86555e-07
5.92104e-07
5.96902e-07
4.50281e-07
4.5983e-07
4.68908e-07
4.77504e-07
4.85567e-07
4.93045e-07
4.99893e-07
5.06073e-07
5.11549e-07
5.16294e-07
3.69802e-07
3.78671e-07
3.87136e-07
3.95186e-07
4.02766e-07
4.09822e-07
4.16307e-07
4.22175e-07
4.2739e-07
4.31918e-07
2.90836e-07
2.98652e-07
3.06146e-07
3.13306e-07
3.20079e-07
3.26411e-07
3.32252e-07
3.37556e-07
3.42284e-07
3.46401e-07
2.17052e-07
2.23491e-07
2.29695e-07
2.35653e-07
2.41315e-07
2.46632e-07
2.51557e-07
2.56046e-07
2.60061e-07
2.63567e-07
1.52215e-07
1.571e-07
1.61827e-07
1.66389e-07
1.70745e-07
1.74852e-07
1.78672e-07
1.82166e-07
1.85302e-07
1.88048e-07
9.92328e-08
1.02597e-07
1.05864e-07
1.09028e-07
1.12062e-07
1.14932e-07
1.17611e-07
1.2007e-07
1.22282e-07
1.24225e-07
5.93364e-08
6.14094e-08
6.34271e-08
6.5387e-08
6.72704e-08
6.90575e-08
7.07292e-08
7.22669e-08
7.36536e-08
7.48734e-08
3.18849e-08
3.30071e-08
3.41002e-08
3.51634e-08
3.61864e-08
3.71585e-08
3.8069e-08
3.89075e-08
3.96645e-08
4.0331e-08
1.48559e-08
1.53716e-08
1.58735e-08
1.63618e-08
1.68318e-08
1.72785e-08
1.76969e-08
1.80824e-08
1.84305e-08
1.87371e-08
5.60481e-09
5.79199e-09
5.97384e-09
6.15058e-09
6.32055e-09
6.48196e-09
6.63308e-09
6.77221e-09
6.89777e-09
7.00832e-09
1.48372e-09
1.52932e-09
1.57346e-09
1.61625e-09
1.65732e-09
1.69625e-09
1.73262e-09
1.76606e-09
1.79619e-09
1.82269e-09
1.95793e-10
2.0069e-10
2.05387e-10
2.09918e-10
2.14244e-10
2.18326e-10
2.22126e-10
2.25605e-10
2.2873e-10
2.3147e-10
5.39058e-12
5.45916e-12
5.52314e-12
5.58406e-12
5.64159e-12
5.69534e-12
5.7449e-12
5.78992e-12
5.83005e-12
5.86501e-12
1.23029e-06
1.21339e-06
1.19465e-06
1.1739e-06
1.15095e-06
1.1256e-06
1.09759e-06
1.06668e-06
1.03256e-06
9.94929e-07
9.53429e-07
9.07703e-07
8.57385e-07
8.02135e-07
7.41683e-07
6.75904e-07
6.04934e-07
5.29331e-07
4.50281e-07
3.69802e-07
2.90836e-07
2.17052e-07
1.52215e-07
9.92328e-08
5.93364e-08
3.18849e-08
1.48559e-08
5.60481e-09
1.48372e-09
1.95793e-10
5.39058e-12
1.23348e-06
1.21695e-06
1.19859e-06
1.17823e-06
1.1557e-06
1.13078e-06
1.10323e-06
1.07278e-06
1.03915e-06
1.00202e-06
9.61025e-07
9.15806e-07
8.65982e-07
8.11195e-07
7.51147e-07
6.85677e-07
6.14868e-07
5.39214e-07
4.5983e-07
3.78671e-07
2.98652e-07
2.23491e-07
1.571e-07
1.02597e-07
6.14094e-08
3.30071e-08
1.53716e-08
5.79199e-09
1.52932e-09
2.0069e-10
5.45916e-12
1.23646e-06
1.22027e-06
1.20227e-06
1.18229e-06
1.16015e-06
1.13564e-06
1.10851e-06
1.07851e-06
1.04534e-06
1.00867e-06
9.68159e-07
9.23418e-07
8.74063e-07
8.19718e-07
7.6006e-07
6.94894e-07
6.24255e-07
5.48578e-07
4.68909e-07
3.87136e-07
3.06146e-07
2.29695e-07
1.61827e-07
1.05864e-07
6.34271e-08
3.41002e-08
1.58735e-08
5.97384e-09
1.57346e-09
2.05387e-10
5.52314e-12
1.23916e-06
1.22329e-06
1.20563e-06
1.18601e-06
1.16424e-06
1.14011e-06
1.11339e-06
1.08381e-06
1.05107e-06
1.01485e-06
9.74789e-07
9.30505e-07
8.81599e-07
8.27679e-07
7.68403e-07
7.0354e-07
6.33084e-07
5.57413e-07
4.77505e-07
3.95186e-07
3.13306e-07
2.35653e-07
1.66389e-07
1.09028e-07
6.53871e-08
3.51634e-08
1.63618e-08
6.15058e-09
1.61626e-09
2.09918e-10
5.58406e-12
1.24159e-06
1.22603e-06
1.20869e-06
1.1894e-06
1.16798e-06
1.14421e-06
1.11786e-06
1.08867e-06
1.05634e-06
1.02053e-06
9.80901e-07
9.37048e-07
8.88566e-07
8.35052e-07
7.76143e-07
7.11578e-07
6.41313e-07
5.65671e-07
4.85567e-07
4.02766e-07
3.20079e-07
2.41315e-07
1.70745e-07
1.12062e-07
6.72704e-08
3.61864e-08
1.68318e-08
6.32055e-09
1.65732e-09
2.14244e-10
5.64159e-12
1.24377e-06
1.22849e-06
1.21144e-06
1.19246e-06
1.17135e-06
1.14792e-06
1.12192e-06
1.09309e-06
1.06113e-06
1.02572e-06
9.86483e-07
9.4303e-07
8.94946e-07
8.41814e-07
7.83252e-07
7.18976e-07
6.48902e-07
5.73306e-07
4.93045e-07
4.09822e-07
3.26411e-07
2.46632e-07
1.74852e-07
1.14932e-07
6.90575e-08
3.71585e-08
1.72785e-08
6.48196e-09
1.69625e-09
2.18326e-10
5.69534e-12
1.24569e-06
1.23067e-06
1.21389e-06
1.19519e-06
1.17438e-06
1.15125e-06
1.12557e-06
1.09707e-06
1.06546e-06
1.0304e-06
9.91523e-07
9.48439e-07
9.00721e-07
8.47942e-07
7.89705e-07
7.25702e-07
6.55816e-07
5.80279e-07
4.99893e-07
4.16307e-07
3.32252e-07
2.51557e-07
1.78672e-07
1.17611e-07
7.07292e-08
3.8069e-08
1.76969e-08
6.63308e-09
1.73262e-09
2.22126e-10
5.7449e-12
1.24738e-06
1.23259e-06
1.21605e-06
1.1976e-06
1.17705e-06
1.1542e-06
1.1288e-06
1.1006e-06
1.0693e-06
1.03456e-06
9.96013e-07
9.53262e-07
9.05877e-07
8.53421e-07
7.95482e-07
7.31732e-07
6.62026e-07
5.86555e-07
5.06073e-07
4.22175e-07
3.37556e-07
2.56046e-07
1.82166e-07
1.2007e-07
7.22669e-08
3.89075e-08
1.80824e-08
6.77221e-09
1.76606e-09
2.25605e-10
5.78992e-12
1.24884e-06
1.23425e-06
1.21793e-06
1.1997e-06
1.17938e-06
1.15677e-06
1.13162e-06
1.10369e-06
1.07266e-06
1.0382e-06
9.99948e-07
9.57493e-07
9.10404e-07
8.58236e-07
8.00565e-07
7.37046e-07
6.67506e-07
5.92104e-07
5.11549e-07
4.2739e-07
3.42284e-07
2.60061e-07
1.85302e-07
1.22282e-07
7.36536e-08
3.96645e-08
1.84305e-08
6.89777e-09
1.79619e-09
2.2873e-10
5.83005e-12
1.25007e-06
1.23566e-06
1.21952e-06
1.20148e-06
1.18136e-06
1.15896e-06
1.13404e-06
1.10633e-06
1.07553e-06
1.04132e-06
1.00332e-06
9.61126e-07
9.14294e-07
8.62377e-07
8.04942e-07
7.41626e-07
6.72237e-07
5.96902e-07
5.16294e-07
4.31918e-07
3.464e-07
2.63567e-07
1.88048e-07
1.24225e-07
7.48733e-08
4.0331e-08
1.8737e-08
7.00831e-09
1.82268e-09
2.31469e-10
5.865e-12
1.25108e-06
1.23682e-06
1.22084e-06
1.20296e-06
1.18301e-06
1.16078e-06
1.13604e-06
1.10852e-06
1.07793e-06
1.04393e-06
1.00614e-06
9.64157e-07
9.17542e-07
8.65838e-07
8.08602e-07
7.4546e-07
6.76202e-07
6.00929e-07
5.20282e-07
4.35732e-07
3.49876e-07
2.66535e-07
1.90379e-07
1.25877e-07
7.59122e-08
4.08992e-08
1.89984e-08
7.10253e-09
1.84524e-09
2.33796e-10
5.89453e-12
1.25188e-06
1.23774e-06
1.22188e-06
1.20413e-06
1.18432e-06
1.16223e-06
1.13764e-06
1.11028e-06
1.07984e-06
1.04601e-06
1.00839e-06
9.66583e-07
9.20144e-07
8.68612e-07
8.11538e-07
7.48538e-07
6.79388e-07
6.04168e-07
5.23494e-07
4.3881e-07
3.52685e-07
2.68938e-07
1.9227e-07
1.27221e-07
7.67583e-08
4.13623e-08
1.92115e-08
7.1793e-09
1.8636e-09
2.35686e-10
5.9184e-12
1.25248e-06
1.23843e-06
1.22266e-06
1.20501e-06
1.1853e-06
1.16332e-06
1.13884e-06
1.11159e-06
1.08128e-06
1.04757e-06
1.01008e-06
9.68403e-07
9.22097e-07
8.70696e-07
8.13744e-07
7.50853e-07
6.81785e-07
6.06608e-07
5.25917e-07
4.41133e-07
3.54809e-07
2.70759e-07
1.93705e-07
1.28241e-07
7.74016e-08
4.17146e-08
1.93737e-08
7.23771e-09
1.87757e-09
2.37121e-10
5.93646e-12
1.25288e-06
1.23889e-06
1.22318e-06
1.2056e-06
1.18595e-06
1.16404e-06
1.13964e-06
1.11247e-06
1.08223e-06
1.0486e-06
1.0112e-06
9.69617e-07
9.234e-07
8.72086e-07
8.15217e-07
7.52399e-07
6.83387e-07
6.08239e-07
5.27538e-07
4.42689e-07
3.56233e-07
2.71981e-07
1.94669e-07
1.28928e-07
7.78348e-08
4.19519e-08
1.94829e-08
7.27705e-09
1.88696e-09
2.38086e-10
5.94858e-12
1.25307e-06
1.23911e-06
1.22344e-06
1.20589e-06
1.18628e-06
1.1644e-06
1.14003e-06
1.1129e-06
1.08271e-06
1.04912e-06
1.01177e-06
9.70224e-07
9.24052e-07
8.72781e-07
8.15954e-07
7.53173e-07
6.84189e-07
6.09056e-07
5.2835e-07
4.43469e-07
3.56948e-07
2.72594e-07
1.95154e-07
1.29273e-07
7.80526e-08
4.20713e-08
1.95378e-08
7.29684e-09
1.89169e-09
2.38571e-10
5.95465e-12
1.25307e-06
1.23911e-06
1.22344e-06
1.20589e-06
1.18628e-06
1.1644e-06
1.14003e-06
1.1129e-06
1.08271e-06
1.04912e-06
1.01177e-06
9.70224e-07
9.24052e-07
8.72781e-07
8.15954e-07
7.53173e-07
6.84189e-07
6.09056e-07
5.2835e-07
4.43469e-07
3.56948e-07
2.72594e-07
1.95154e-07
1.29273e-07
7.80526e-08
4.20713e-08
1.95378e-08
7.29684e-09
1.89169e-09
2.38571e-10
5.95465e-12
1.25288e-06
1.23889e-06
1.22318e-06
1.2056e-06
1.18595e-06
1.16404e-06
1.13964e-06
1.11247e-06
1.08223e-06
1.0486e-06
1.0112e-06
9.69617e-07
9.234e-07
8.72086e-07
8.15217e-07
7.52399e-07
6.83387e-07
6.08239e-07
5.27537e-07
4.42689e-07
3.56233e-07
2.71981e-07
1.94669e-07
1.28928e-07
7.78348e-08
4.19519e-08
1.94829e-08
7.27705e-09
1.88696e-09
2.38086e-10
5.94858e-12
1.25248e-06
1.23843e-06
1.22266e-06
1.20501e-06
1.1853e-06
1.16332e-06
1.13884e-06
1.11159e-06
1.08128e-06
1.04757e-06
1.01008e-06
9.68403e-07
9.22097e-07
8.70695e-07
8.13744e-07
7.50853e-07
6.81785e-07
6.06608e-07
5.25917e-07
4.41133e-07
3.54809e-07
2.70759e-07
1.93705e-07
1.28241e-07
7.74016e-08
4.17146e-08
1.93737e-08
7.23771e-09
1.87757e-09
2.37121e-10
5.93646e-12
1.25188e-06
1.23774e-06
1.22188e-06
1.20413e-06
1.18432e-06
1.16224e-06
1.13764e-06
1.11028e-06
1.07984e-06
1.04601e-06
1.00839e-06
9.66583e-07
9.20144e-07
8.68612e-07
8.11538e-07
7.48538e-07
6.79388e-07
6.04168e-07
5.23494e-07
4.3881e-07
3.52685e-07
2.68938e-07
1.9227e-07
1.27221e-07
7.67583e-08
4.13623e-08
1.92115e-08
7.1793e-09
1.8636e-09
2.35686e-10
5.9184e-12
1.25108e-06
1.23682e-06
1.22084e-06
1.20296e-06
1.18301e-06
1.16078e-06
1.13604e-06
1.10852e-06
1.07793e-06
1.04393e-06
1.00614e-06
9.64157e-07
9.17542e-07
8.65838e-07
8.08602e-07
7.4546e-07
6.76202e-07
6.00929e-07
5.20282e-07
4.35732e-07
3.49876e-07
2.66535e-07
1.90379e-07
1.25877e-07
7.59122e-08
4.08992e-08
1.89984e-08
7.10253e-09
1.84524e-09
2.33796e-10
5.89453e-12
1.25007e-06
1.23566e-06
1.21952e-06
1.20148e-06
1.18136e-06
1.15896e-06
1.13404e-06
1.10633e-06
1.07553e-06
1.04132e-06
1.00332e-06
9.61126e-07
9.14294e-07
8.62377e-07
8.04942e-07
7.41626e-07
6.72237e-07
5.96902e-07
5.16293e-07
4.31918e-07
3.464e-07
2.63567e-07
1.88048e-07
1.24225e-07
7.48733e-08
4.0331e-08
1.8737e-08
7.00831e-09
1.82268e-09
2.31469e-10
5.865e-12
1.24884e-06
1.23425e-06
1.21793e-06
1.1997e-06
1.17938e-06
1.15677e-06
1.13162e-06
1.10369e-06
1.07266e-06
1.0382e-06
9.99948e-07
9.57493e-07
9.10404e-07
8.58236e-07
8.00565e-07
7.37046e-07
6.67506e-07
5.92104e-07
5.11549e-07
4.2739e-07
3.42284e-07
2.60061e-07
1.85302e-07
1.22282e-07
7.36536e-08
3.96645e-08
1.84305e-08
6.89777e-09
1.79619e-09
2.2873e-10
5.83005e-12
1.24738e-06
1.23259e-06
1.21605e-06
1.1976e-06
1.17705e-06
1.1542e-06
1.1288e-06
1.1006e-06
1.0693e-06
1.03456e-06
9.96013e-07
9.53262e-07
9.05877e-07
8.5342e-07
7.95482e-07
7.31732e-07
6.62026e-07
5.86555e-07
5.06073e-07
4.22175e-07
3.37556e-07
2.56046e-07
1.82166e-07
1.2007e-07
7.22669e-08
3.89075e-08
1.80824e-08
6.77221e-09
1.76606e-09
2.25605e-10
5.78992e-12
1.24569e-06
1.23067e-06
1.21389e-06
1.19519e-06
1.17438e-06
1.15125e-06
1.12557e-06
1.09707e-06
1.06546e-06
1.0304e-06
9.91523e-07
9.48439e-07
9.00721e-07
8.47942e-07
7.89705e-07
7.25702e-07
6.55816e-07
5.80279e-07
4.99893e-07
4.16307e-07
3.32252e-07
2.51557e-07
1.78672e-07
1.17611e-07
7.07292e-08
3.8069e-08
1.76969e-08
6.63308e-09
1.73262e-09
2.22126e-10
5.7449e-12
1.24377e-06
1.22849e-06
1.21144e-06
1.19246e-06
1.17135e-06
1.14792e-06
1.12192e-06
1.09309e-06
1.06113e-06
1.02572e-06
9.86483e-07
9.4303e-07
8.94946e-07
8.41814e-07
7.83252e-07
7.18976e-07
6.48902e-07
5.73306e-07
4.93045e-07
4.09822e-07
3.26411e-07
2.46632e-07
1.74852e-07
1.14932e-07
6.90575e-08
3.71585e-08
1.72785e-08
6.48196e-09
1.69625e-09
2.18326e-10
5.69534e-12
1.24159e-06
1.22603e-06
1.20869e-06
1.1894e-06
1.16798e-06
1.14421e-06
1.11786e-06
1.08867e-06
1.05634e-06
1.02053e-06
9.80901e-07
9.37048e-07
8.88566e-07
8.35052e-07
7.76143e-07
7.11578e-07
6.41313e-07
5.65671e-07
4.85567e-07
4.02766e-07
3.20079e-07
2.41315e-07
1.70745e-07
1.12062e-07
6.72704e-08
3.61864e-08
1.68318e-08
6.32055e-09
1.65732e-09
2.14244e-10
5.64159e-12
1.23916e-06
1.22329e-06
1.20563e-06
1.18601e-06
1.16424e-06
1.14011e-06
1.11339e-06
1.08381e-06
1.05107e-06
1.01485e-06
9.74789e-07
9.30505e-07
8.81599e-07
8.27679e-07
7.68402e-07
7.0354e-07
6.33084e-07
5.57413e-07
4.77505e-07
3.95186e-07
3.13306e-07
2.35653e-07
1.66389e-07
1.09028e-07
6.5387e-08
3.51634e-08
1.63618e-08
6.15058e-09
1.61626e-09
2.09918e-10
5.58406e-12
1.23646e-06
1.22027e-06
1.20227e-06
1.18229e-06
1.16015e-06
1.13564e-06
1.10851e-06
1.07851e-06
1.04534e-06
1.00867e-06
9.68159e-07
9.23418e-07
8.74063e-07
8.19718e-07
7.60061e-07
6.94894e-07
6.24255e-07
5.48578e-07
4.68909e-07
3.87136e-07
3.06146e-07
2.29695e-07
1.61827e-07
1.05864e-07
6.34271e-08
3.41002e-08
1.58735e-08
5.97384e-09
1.57346e-09
2.05387e-10
5.52314e-12
1.23349e-06
1.21695e-06
1.19859e-06
1.17824e-06
1.1557e-06
1.13078e-06
1.10323e-06
1.07278e-06
1.03915e-06
1.00202e-06
9.61025e-07
9.15806e-07
8.65982e-07
8.11195e-07
7.51147e-07
6.85677e-07
6.14868e-07
5.39214e-07
4.5983e-07
3.78671e-07
2.98652e-07
2.23491e-07
1.571e-07
1.02597e-07
6.14094e-08
3.30071e-08
1.53716e-08
5.79199e-09
1.52933e-09
2.0069e-10
5.45916e-12
1.23029e-06
1.21339e-06
1.19465e-06
1.1739e-06
1.15095e-06
1.1256e-06
1.09759e-06
1.06668e-06
1.03256e-06
9.94929e-07
9.53429e-07
9.07703e-07
8.57385e-07
8.02135e-07
7.41683e-07
6.75905e-07
6.04934e-07
5.29331e-07
4.50281e-07
3.69802e-07
2.90836e-07
2.17052e-07
1.52215e-07
9.92328e-08
5.93364e-08
3.18849e-08
1.48559e-08
5.60482e-09
1.48372e-09
1.95793e-10
5.39058e-12
1.23029e-06
1.21339e-06
1.19465e-06
1.1739e-06
1.15095e-06
1.1256e-06
1.09759e-06
1.06668e-06
1.03256e-06
9.94929e-07
9.53429e-07
9.07703e-07
8.57385e-07
8.02135e-07
7.41683e-07
6.75904e-07
6.04934e-07
5.29331e-07
4.50281e-07
3.69802e-07
2.90836e-07
2.17052e-07
1.52215e-07
9.92328e-08
5.93364e-08
3.18849e-08
1.48559e-08
5.60481e-09
1.48372e-09
1.95793e-10
5.39058e-12
1.23348e-06
1.21695e-06
1.19859e-06
1.17823e-06
1.1557e-06
1.13078e-06
1.10323e-06
1.07278e-06
1.03915e-06
1.00202e-06
9.61025e-07
9.15806e-07
8.65982e-07
8.11195e-07
7.51147e-07
6.85677e-07
6.14868e-07
5.39214e-07
4.5983e-07
3.78671e-07
2.98652e-07
2.23491e-07
1.571e-07
1.02597e-07
6.14094e-08
3.30071e-08
1.53716e-08
5.79199e-09
1.52933e-09
2.0069e-10
5.45916e-12
1.23646e-06
1.22027e-06
1.20227e-06
1.18229e-06
1.16015e-06
1.13564e-06
1.10851e-06
1.07851e-06
1.04534e-06
1.00867e-06
9.68159e-07
9.23418e-07
8.74063e-07
8.19718e-07
7.6006e-07
6.94894e-07
6.24255e-07
5.48578e-07
4.68908e-07
3.87136e-07
3.06146e-07
2.29695e-07
1.61827e-07
1.05864e-07
6.34271e-08
3.41002e-08
1.58735e-08
5.97384e-09
1.57346e-09
2.05387e-10
5.52314e-12
1.23916e-06
1.22329e-06
1.20563e-06
1.18601e-06
1.16424e-06
1.14011e-06
1.11339e-06
1.08381e-06
1.05107e-06
1.01485e-06
9.74789e-07
9.30505e-07
8.81599e-07
8.27679e-07
7.68402e-07
7.0354e-07
6.33084e-07
5.57413e-07
4.77505e-07
3.95186e-07
3.13306e-07
2.35653e-07
1.66389e-07
1.09028e-07
6.5387e-08
3.51634e-08
1.63618e-08
6.15058e-09
1.61626e-09
2.09918e-10
5.58406e-12
1.24159e-06
1.22603e-06
1.20869e-06
1.1894e-06
1.16798e-06
1.14421e-06
1.11786e-06
1.08867e-06
1.05634e-06
1.02053e-06
9.80901e-07
9.37048e-07
8.88566e-07
8.35052e-07
7.76143e-07
7.11578e-07
6.41313e-07
5.65671e-07
4.85567e-07
4.02766e-07
3.20079e-07
2.41315e-07
1.70745e-07
1.12062e-07
6.72704e-08
3.61864e-08
1.68318e-08
6.32055e-09
1.65732e-09
2.14244e-10
5.64159e-12
1.24377e-06
1.22849e-06
1.21144e-06
1.19246e-06
1.17135e-06
1.14792e-06
1.12192e-06
1.09309e-06
1.06113e-06
1.02572e-06
9.86483e-07
9.4303e-07
8.94946e-07
8.41814e-07
7.83252e-07
7.18976e-07
6.48902e-07
5.73306e-07
4.93045e-07
4.09822e-07
3.26411e-07
2.46632e-07
1.74852e-07
1.14932e-07
6.90575e-08
3.71585e-08
1.72785e-08
6.48196e-09
1.69625e-09
2.18326e-10
5.69534e-12
1.24569e-06
1.23067e-06
1.21389e-06
1.19519e-06
1.17438e-06
1.15125e-06
1.12557e-06
1.09707e-06
1.06546e-06
1.0304e-06
9.91523e-07
9.48439e-07
9.00721e-07
8.47942e-07
7.89705e-07
7.25702e-07
6.55816e-07
5.80279e-07
4.99893e-07
4.16307e-07
3.32252e-07
2.51557e-07
1.78672e-07
1.17611e-07
7.07292e-08
3.8069e-08
1.76969e-08
6.63308e-09
1.73262e-09
2.22126e-10
5.7449e-12
1.24738e-06
1.23259e-06
1.21605e-06
1.1976e-06
1.17705e-06
1.1542e-06
1.1288e-06
1.1006e-06
1.0693e-06
1.03456e-06
9.96013e-07
9.53262e-07
9.05877e-07
8.53421e-07
7.95482e-07
7.31732e-07
6.62026e-07
5.86555e-07
5.06073e-07
4.22175e-07
3.37556e-07
2.56046e-07
1.82166e-07
1.2007e-07
7.22669e-08
3.89075e-08
1.80824e-08
6.77221e-09
1.76606e-09
2.25605e-10
5.78992e-12
1.24884e-06
1.23425e-06
1.21793e-06
1.1997e-06
1.17938e-06
1.15677e-06
1.13162e-06
1.10369e-06
1.07266e-06
1.0382e-06
9.99948e-07
9.57493e-07
9.10404e-07
8.58236e-07
8.00565e-07
7.37046e-07
6.67506e-07
5.92104e-07
5.11549e-07
4.2739e-07
3.42284e-07
2.60061e-07
1.85302e-07
1.22282e-07
7.36536e-08
3.96645e-08
1.84305e-08
6.89777e-09
1.79619e-09
2.2873e-10
5.83005e-12
1.25007e-06
1.23566e-06
1.21952e-06
1.20148e-06
1.18136e-06
1.15896e-06
1.13404e-06
1.10633e-06
1.07553e-06
1.04132e-06
1.00332e-06
9.61126e-07
9.14294e-07
8.62377e-07
8.04942e-07
7.41626e-07
6.72237e-07
5.96902e-07
5.16293e-07
4.31918e-07
3.464e-07
2.63567e-07
1.88048e-07
1.24225e-07
7.48733e-08
4.0331e-08
1.8737e-08
7.00831e-09
1.82268e-09
2.31469e-10
5.865e-12
1.25108e-06
1.23682e-06
1.22084e-06
1.20296e-06
1.18301e-06
1.16078e-06
1.13604e-06
1.10852e-06
1.07793e-06
1.04393e-06
1.00614e-06
9.64157e-07
9.17542e-07
8.65838e-07
8.08602e-07
7.4546e-07
6.76202e-07
6.00929e-07
5.20282e-07
4.35732e-07
3.49876e-07
2.66535e-07
1.90379e-07
1.25877e-07
7.59122e-08
4.08992e-08
1.89984e-08
7.10253e-09
1.84524e-09
2.33796e-10
5.89453e-12
1.25188e-06
1.23774e-06
1.22188e-06
1.20413e-06
1.18432e-06
1.16223e-06
1.13764e-06
1.11028e-06
1.07984e-06
1.04601e-06
1.00839e-06
9.66583e-07
9.20144e-07
8.68612e-07
8.11538e-07
7.48538e-07
6.79388e-07
6.04168e-07
5.23494e-07
4.3881e-07
3.52685e-07
2.68938e-07
1.9227e-07
1.27221e-07
7.67583e-08
4.13623e-08
1.92115e-08
7.1793e-09
1.8636e-09
2.35686e-10
5.9184e-12
1.25248e-06
1.23843e-06
1.22266e-06
1.20501e-06
1.1853e-06
1.16332e-06
1.13884e-06
1.11159e-06
1.08128e-06
1.04757e-06
1.01008e-06
9.68403e-07
9.22097e-07
8.70695e-07
8.13744e-07
7.50853e-07
6.81785e-07
6.06608e-07
5.25917e-07
4.41133e-07
3.54809e-07
2.70759e-07
1.93705e-07
1.28241e-07
7.74016e-08
4.17146e-08
1.93737e-08
7.23771e-09
1.87757e-09
2.37121e-10
5.93646e-12
1.25288e-06
1.23889e-06
1.22318e-06
1.2056e-06
1.18595e-06
1.16404e-06
1.13964e-06
1.11247e-06
1.08223e-06
1.0486e-06
1.0112e-06
9.69617e-07
9.234e-07
8.72086e-07
8.15217e-07
7.52399e-07
6.83387e-07
6.08239e-07
5.27537e-07
4.42689e-07
3.56233e-07
2.71981e-07
1.94669e-07
1.28928e-07
7.78348e-08
4.19519e-08
1.94829e-08
7.27705e-09
1.88696e-09
2.38086e-10
5.94858e-12
1.25307e-06
1.23911e-06
1.22344e-06
1.20589e-06
1.18628e-06
1.1644e-06
1.14003e-06
1.1129e-06
1.08271e-06
1.04912e-06
1.01177e-06
9.70224e-07
9.24052e-07
8.72781e-07
8.15954e-07
7.53173e-07
6.84189e-07
6.09056e-07
5.2835e-07
4.43469e-07
3.56948e-07
2.72594e-07
1.95154e-07
1.29273e-07
7.80526e-08
4.20713e-08
1.95378e-08
7.29684e-09
1.89169e-09
2.38571e-10
5.95465e-12
1.25307e-06
1.23911e-06
1.22344e-06
1.20589e-06
1.18628e-06
1.1644e-06
1.14003e-06
1.1129e-06
1.08271e-06
1.04912e-06
1.01177e-06
9.70224e-07
9.24052e-07
8.72781e-07
8.15954e-07
7.53173e-07
6.84189e-07
6.09056e-07
5.2835e-07
4.43469e-07
3.56948e-07
2.72594e-07
1.95154e-07
1.29273e-07
7.80526e-08
4.20713e-08
1.95378e-08
7.29684e-09
1.89169e-09
2.38571e-10
5.95465e-12
1.25288e-06
1.23889e-06
1.22318e-06
1.2056e-06
1.18595e-06
1.16404e-06
1.13964e-06
1.11247e-06
1.08223e-06
1.0486e-06
1.0112e-06
9.69617e-07
9.234e-07
8.72086e-07
8.15217e-07
7.52399e-07
6.83387e-07
6.08239e-07
5.27537e-07
4.42689e-07
3.56233e-07
2.71981e-07
1.94669e-07
1.28928e-07
7.78347e-08
4.19519e-08
1.94829e-08
7.27704e-09
1.88696e-09
2.38086e-10
5.94857e-12
)
;

boundaryField
{
    inlet
    {
        type            cyclic;
    }
    outlet
    {
        type            cyclic;
    }
    wall
    {
        type            fixedValue;
        value           uniform 1e-30;
    }
    procBoundary0to1
    {
        type            processor;
        value           nonuniform List<scalar> 
59
(
1.26166e-06
1.26399e-06
1.26607e-06
1.26793e-06
1.26957e-06
1.27102e-06
1.27227e-06
1.27334e-06
1.27424e-06
1.2455e-06
1.2455e-06
1.2455e-06
1.24835e-06
1.25099e-06
1.25337e-06
1.25551e-06
1.25742e-06
1.2591e-06
1.26056e-06
1.26182e-06
1.26288e-06
1.26376e-06
1.26444e-06
1.26495e-06
1.26529e-06
1.26546e-06
1.26546e-06
1.26529e-06
1.26495e-06
1.26444e-06
1.26376e-06
1.26288e-06
1.26182e-06
1.26056e-06
1.2591e-06
1.25742e-06
1.25551e-06
1.25337e-06
1.25099e-06
1.24835e-06
1.2455e-06
1.2455e-06
1.24835e-06
1.25099e-06
1.25337e-06
1.25551e-06
1.25742e-06
1.2591e-06
1.26056e-06
1.26182e-06
1.26288e-06
1.26376e-06
1.26444e-06
1.26495e-06
1.26529e-06
1.26546e-06
1.26546e-06
1.26529e-06
1.25248e-06
)
;
    }
    procBoundary0to2
    {
        type            processor;
        value           nonuniform List<scalar> 
30
(
1.23843e-06
1.22266e-06
1.20501e-06
1.1853e-06
1.16332e-06
1.13884e-06
1.11159e-06
1.08128e-06
1.04757e-06
1.01008e-06
9.68403e-07
9.22097e-07
8.70695e-07
8.13744e-07
7.50853e-07
6.81785e-07
6.06608e-07
5.25917e-07
4.41133e-07
3.54809e-07
2.70759e-07
1.93705e-07
1.28241e-07
7.74017e-08
4.17146e-08
1.93737e-08
7.23771e-09
1.87757e-09
2.37121e-10
5.93647e-12
)
;
    }
    procBoundary0to3
    {
        type            processor;
        value           nonuniform List<scalar> 
32
(
1.26375e-06
1.25108e-06
1.23682e-06
1.22084e-06
1.20296e-06
1.18301e-06
1.16078e-06
1.13604e-06
1.10852e-06
1.07793e-06
1.04393e-06
1.00614e-06
9.64157e-07
9.17542e-07
8.65838e-07
8.08602e-07
7.4546e-07
6.76202e-07
6.00928e-07
5.20281e-07
4.35732e-07
3.49876e-07
2.66534e-07
1.90378e-07
1.25877e-07
7.59121e-08
4.08991e-08
1.89984e-08
7.10252e-09
1.84524e-09
2.33796e-10
5.89452e-12
)
;
    }
}


// ************************************************************************* //
