/*--------------------------------*- C++ -*----------------------------------*\
  =========                 |
  \\      /  F ield         | OpenFOAM: The Open Source CFD Toolbox
   \\    /   O peration     | Website:  https://openfoam.org
    \\  /    A nd           | Version:  7
     \\/     M anipulation  |
\*---------------------------------------------------------------------------*/
FoamFile
{
    version     2.0;
    format      ascii;
    class       volScalarField;
    location    "196000";
    object      p;
}
// * * * * * * * * * * * * * * * * * * * * * * * * * * * * * * * * * * * * * //

dimensions      [0 2 -2 0 0 0 0];

internalField   nonuniform List<scalar> 
4825
(
-8.78012e-19
-8.79947e-19
-8.75969e-19
-8.77604e-19
-8.97707e-19
-8.9105e-19
-9.14123e-19
-8.78439e-19
-8.72757e-19
-8.98546e-19
-8.8521e-19
-9.0972e-19
-8.77826e-19
-8.77323e-19
-8.91235e-19
-8.84343e-19
-9.01811e-19
-8.85951e-19
-8.93474e-19
-8.93012e-19
-8.89604e-19
-9.04467e-19
-8.98328e-19
-8.87237e-19
-9.04383e-19
-8.94531e-19
-9.07725e-19
-8.88253e-19
-8.77544e-19
-8.93885e-19
-8.93792e-19
-9.05185e-19
-8.80785e-19
-8.75848e-19
-8.93059e-19
-8.86658e-19
-9.05246e-19
-8.81176e-19
-8.66739e-19
-8.9562e-19
-8.79296e-19
-9.00731e-19
-8.92312e-19
-8.62233e-19
-8.9619e-19
-8.8367e-19
-8.95862e-19
-8.98509e-19
-8.70877e-19
-8.87914e-19
-8.8269e-19
-8.98475e-19
-8.93163e-19
-8.80811e-19
-8.96163e-19
-8.86364e-19
-8.98066e-19
-8.87834e-19
-8.8832e-19
-8.99311e-19
-8.86856e-19
-8.94648e-19
-8.94547e-19
-8.83786e-19
-8.97465e-19
-8.8426e-19
-8.90445e-19
-8.81392e-19
-8.94061e-19
-8.84245e-19
-8.94435e-19
-8.73766e-19
-8.93694e-19
-8.78475e-19
-8.87551e-19
-8.79399e-19
-8.88702e-19
-8.93876e-19
-8.82994e-19
-8.94542e-19
-8.86038e-19
-8.83681e-19
-8.8998e-19
-8.84242e-19
-8.93986e-19
-8.868e-19
-8.91892e-19
-8.90854e-19
-8.80585e-19
-8.86114e-19
-8.91972e-19
-7.94551e-19
-7.93446e-19
-7.91843e-19
-7.65601e-19
-8.00339e-19
-7.75206e-19
-7.84087e-19
-7.85089e-19
-7.94839e-19
-8.03366e-19
-8.17313e-19
-8.17838e-19
-8.29673e-19
-8.07426e-19
-8.08158e-19
-7.9014e-19
-8.18341e-19
-8.02822e-19
-8.15439e-19
-8.01147e-19
-7.87185e-19
-7.82781e-19
-7.89228e-19
-7.78467e-19
-7.88705e-19
-7.7117e-19
-7.86149e-19
-7.83554e-19
-7.89093e-19
-8.01699e-19
-8.11874e-19
-8.16348e-19
-8.24071e-19
-8.02866e-19
-8.13227e-19
-8.00887e-19
-8.1906e-19
-8.08169e-19
-8.23038e-19
-7.99597e-19
-7.90596e-19
-7.91044e-19
-7.95266e-19
-7.78288e-19
-7.87697e-19
-7.75829e-19
-7.88694e-19
-7.81816e-19
-7.92919e-19
-7.98762e-19
-8.06699e-19
-8.05054e-19
-8.09651e-19
-8.0435e-19
-8.11914e-19
-8.06356e-19
-8.17895e-19
-8.07025e-19
-8.23321e-19
-8.05111e-19
-7.97704e-19
-7.92383e-19
-7.9372e-19
-7.80182e-19
-7.7509e-19
-7.71543e-19
-7.82214e-19
-7.85003e-19
-7.99595e-19
-7.94495e-19
-7.99134e-19
-8.07474e-19
-8.09462e-19
-8.04034e-19
-8.16529e-19
-8.04348e-19
-8.17433e-19
-8.06465e-19
-8.19106e-19
-8.05292e-19
-7.95848e-19
-7.84283e-19
-7.88555e-19
-7.76516e-19
-7.74661e-19
-7.6961e-19
-7.74686e-19
-7.74308e-19
-7.98631e-19
-7.91404e-19
-7.96965e-19
-8.05955e-19
-8.1492e-19
-8.04579e-19
-8.13631e-19
-8.05734e-19
-8.17683e-19
-8.03869e-19
-8.15727e-19
-8.03181e-19
-7.89378e-19
-7.86415e-19
-7.7471e-19
-7.64685e-19
-7.72948e-19
-7.68828e-19
-7.58151e-19
-7.72329e-19
-7.98473e-19
-7.98681e-19
-7.93416e-19
-8.03115e-19
-8.08789e-19
-7.99235e-19
-8.05873e-19
-8.02514e-19
-8.17316e-19
-7.99245e-19
-8.14429e-19
-8.08374e-19
-7.90784e-19
-7.80988e-19
-7.79124e-19
-7.7461e-19
-7.68996e-19
-7.55205e-19
-7.60776e-19
-7.70054e-19
-7.89785e-19
-7.94163e-19
-7.94803e-19
-8.01742e-19
-8.09746e-19
-8.02786e-19
-8.17033e-19
-8.01507e-19
-8.21828e-19
-8.04421e-19
-8.13731e-19
-8.03606e-19
-7.82241e-19
-7.97055e-19
-7.75901e-19
-7.69074e-19
-7.73038e-19
-7.54133e-19
-7.65823e-19
-7.67599e-19
-7.84191e-19
-7.88466e-19
-7.99883e-19
-8.09483e-19
-8.04558e-19
-8.04432e-19
-8.1445e-19
-8.02221e-19
-8.06311e-19
-8.03578e-19
-8.22748e-19
-8.03508e-19
-8.10468e-19
-8.21337e-19
-8.25498e-19
-8.28177e-19
-8.51114e-19
-8.34316e-19
-8.36218e-19
-8.53584e-19
-8.41723e-19
-8.47881e-19
-8.36397e-19
-8.48638e-19
-8.4388e-19
-8.42566e-19
-8.56311e-19
-7.69513e-19
-7.88512e-19
-7.71204e-19
-7.65875e-19
-7.66141e-19
-7.49762e-19
-7.84997e-19
-7.68706e-19
-7.8409e-19
-7.81382e-19
-7.97215e-19
-8.14918e-19
-8.05766e-19
-8.00661e-19
-8.11167e-19
-8.05114e-19
-7.98935e-19
-8.00886e-19
-8.24854e-19
-8.05341e-19
-8.13017e-19
-8.26387e-19
-8.28587e-19
-8.22366e-19
-8.43914e-19
-8.29577e-19
-8.41027e-19
-8.52048e-19
-8.43464e-19
-8.4241e-19
-8.40388e-19
-8.49071e-19
-8.46292e-19
-8.42165e-19
-8.51348e-19
-8.50559e-19
-8.54956e-19
-7.83018e-19
-7.88292e-19
-7.72505e-19
-7.63842e-19
-7.69618e-19
-7.69241e-19
-7.88818e-19
-7.65323e-19
-7.97003e-19
-7.79032e-19
-7.97064e-19
-7.99396e-19
-8.04323e-19
-8.00388e-19
-8.0578e-19
-8.02876e-19
-8.08041e-19
-7.97702e-19
-8.13948e-19
-8.06479e-19
-8.17955e-19
-8.23975e-19
-8.30571e-19
-8.24919e-19
-8.41552e-19
-8.35799e-19
-8.4195e-19
-8.47186e-19
-8.42446e-19
-8.46e-19
-8.40234e-19
-8.434e-19
-8.44883e-19
-8.33807e-19
-8.55624e-19
-8.53319e-19
-8.49228e-19
-8.54531e-19
-7.82645e-19
-7.8975e-19
-7.74884e-19
-7.60259e-19
-7.8667e-19
-7.58488e-19
-7.7997e-19
-7.54556e-19
-7.87234e-19
-7.7714e-19
-8.0975e-19
-7.94023e-19
-8.09344e-19
-7.96161e-19
-7.98156e-19
-7.94191e-19
-8.07329e-19
-7.98985e-19
-8.10052e-19
-8.08413e-19
-8.14129e-19
-8.2159e-19
-8.32828e-19
-8.26913e-19
-8.4103e-19
-8.3408e-19
-8.41628e-19
-8.46427e-19
-8.42518e-19
-8.49773e-19
-8.39874e-19
-8.36592e-19
-8.41285e-19
-8.4241e-19
-8.51625e-19
-8.53579e-19
-8.48373e-19
-8.54009e-19
-8.47995e-19
-8.43031e-19
-7.79633e-19
-7.8555e-19
-7.79639e-19
-7.60724e-19
-7.80367e-19
-7.54202e-19
-7.73445e-19
-7.46357e-19
-7.87047e-19
-7.80463e-19
-8.01197e-19
-7.9173e-19
-8.14934e-19
-7.89198e-19
-7.99429e-19
-7.9763e-19
-8.07111e-19
-8.04782e-19
-8.13966e-19
-8.06426e-19
-8.09074e-19
-8.2414e-19
-8.29225e-19
-8.27178e-19
-8.41012e-19
-8.32057e-19
-8.42629e-19
-8.42149e-19
-8.39851e-19
-8.45185e-19
-8.48087e-19
-8.40886e-19
-8.34104e-19
-8.4576e-19
-8.42886e-19
-8.503e-19
-8.48532e-19
-8.48821e-19
-8.45473e-19
-8.44779e-19
-8.58924e-19
-8.36857e-19
-7.87017e-19
-7.75678e-19
-7.80971e-19
-7.56906e-19
-7.7028e-19
-7.47831e-19
-7.73929e-19
-7.58577e-19
-7.81806e-19
-7.74692e-19
-8.04311e-19
-7.86345e-19
-8.05673e-19
-7.88865e-19
-8.08264e-19
-8.05676e-19
-8.08388e-19
-8.00449e-19
-8.08387e-19
-8.06701e-19
-8.0873e-19
-8.28115e-19
-8.24606e-19
-8.28323e-19
-8.42742e-19
-8.30864e-19
-8.45103e-19
-8.39207e-19
-8.41976e-19
-8.41949e-19
-8.40462e-19
-8.42668e-19
-8.38878e-19
-8.4449e-19
-8.37712e-19
-8.43619e-19
-8.48662e-19
-8.51089e-19
-8.4051e-19
-8.42569e-19
-8.59066e-19
-8.37378e-19
-8.65341e-19
-8.53689e-19
-8.78584e-19
-7.85226e-19
-7.80851e-19
-7.83992e-19
-7.59539e-19
-7.66929e-19
-7.45297e-19
-7.76347e-19
-7.66327e-19
-7.76101e-19
-7.61084e-19
-7.95173e-19
-7.85066e-19
-8.06875e-19
-8.0462e-19
-8.02992e-19
-8.05061e-19
-8.09881e-19
-7.94634e-19
-8.10353e-19
-8.10531e-19
-8.11661e-19
-8.26474e-19
-8.24754e-19
-8.30442e-19
-8.47453e-19
-8.36415e-19
-8.41918e-19
-8.36127e-19
-8.3929e-19
-8.38795e-19
-8.40139e-19
-8.43354e-19
-8.37351e-19
-8.44718e-19
-8.48028e-19
-8.41871e-19
-8.48856e-19
-8.42793e-19
-8.40153e-19
-8.36515e-19
-8.56405e-19
-8.30932e-19
-8.55754e-19
-8.41169e-19
-8.7988e-19
-8.66718e-19
-8.76672e-19
-7.83546e-19
-7.80024e-19
-7.80512e-19
-7.63876e-19
-7.68821e-19
-7.52329e-19
-7.61948e-19
-7.66547e-19
-7.79195e-19
-7.67915e-19
-7.85832e-19
-7.87886e-19
-8.08535e-19
-7.99984e-19
-8.08423e-19
-7.99639e-19
-8.09385e-19
-7.91842e-19
-8.23363e-19
-8.09517e-19
-8.08294e-19
-8.25204e-19
-8.2954e-19
-8.32303e-19
-8.46705e-19
-8.33169e-19
-8.41414e-19
-8.36501e-19
-8.34331e-19
-8.33261e-19
-8.3979e-19
-8.34676e-19
-8.39157e-19
-8.36696e-19
-8.47698e-19
-8.41072e-19
-8.45758e-19
-8.4403e-19
-8.4219e-19
-8.34795e-19
-8.49961e-19
-8.31833e-19
-8.56433e-19
-8.50056e-19
-8.78643e-19
-8.66074e-19
-8.67475e-19
-8.51736e-19
-8.88156e-19
-8.62563e-19
-7.81942e-19
-7.76856e-19
-7.79654e-19
-7.56272e-19
-7.82524e-19
-7.5308e-19
-7.67453e-19
-7.72368e-19
-7.90794e-19
-7.77614e-19
-7.81585e-19
-7.868e-19
-8.1191e-19
-7.97427e-19
-8.01228e-19
-7.86884e-19
-8.09431e-19
-7.98709e-19
-8.19436e-19
-8.04731e-19
-8.14056e-19
-8.20668e-19
-8.31938e-19
-8.2564e-19
-8.4181e-19
-8.28353e-19
-8.36463e-19
-8.3446e-19
-8.30604e-19
-8.35919e-19
-8.33788e-19
-8.38892e-19
-8.37553e-19
-8.36757e-19
-8.54778e-19
-8.49449e-19
-8.48688e-19
-8.46434e-19
-8.44315e-19
-8.43139e-19
-8.45387e-19
-8.27292e-19
-8.43799e-19
-8.40894e-19
-8.79305e-19
-8.58277e-19
-8.66733e-19
-8.52547e-19
-8.84964e-19
-8.64719e-19
-7.79289e-19
-7.73573e-19
-7.82608e-19
-7.62594e-19
-7.75479e-19
-7.54187e-19
-7.70784e-19
-7.59623e-19
-7.84493e-19
-7.71968e-19
-7.9116e-19
-7.80756e-19
-8.14819e-19
-7.9919e-19
-7.99103e-19
-7.90976e-19
-8.0315e-19
-8.03723e-19
-8.12761e-19
-8.08857e-19
-8.17471e-19
-8.23098e-19
-8.3232e-19
-8.24464e-19
-8.39898e-19
-8.32517e-19
-8.42277e-19
-8.30159e-19
-8.32582e-19
-8.35199e-19
-8.34717e-19
-8.39697e-19
-8.38291e-19
-8.41107e-19
-8.50632e-19
-8.47227e-19
-8.52769e-19
-8.46506e-19
-8.48701e-19
-8.37526e-19
-8.49272e-19
-8.33622e-19
-8.47635e-19
-8.36813e-19
-8.66232e-19
-8.48941e-19
-8.5625e-19
-8.52556e-19
-8.79349e-19
-8.71916e-19
-7.79973e-19
-7.67861e-19
-7.82632e-19
-7.57178e-19
-7.7245e-19
-7.51268e-19
-7.6333e-19
-7.62193e-19
-7.78919e-19
-7.69211e-19
-7.8867e-19
-7.71738e-19
-8.04928e-19
-7.97228e-19
-7.99436e-19
-7.93502e-19
-8.09757e-19
-8.01643e-19
-8.12155e-19
-8.14993e-19
-8.17455e-19
-8.30033e-19
-8.31875e-19
-8.26323e-19
-8.39598e-19
-8.38611e-19
-8.4268e-19
-8.31399e-19
-8.34538e-19
-8.33407e-19
-8.4013e-19
-8.37176e-19
-8.40093e-19
-8.32694e-19
-8.44501e-19
-8.44883e-19
-8.46766e-19
-8.46433e-19
-8.45318e-19
-8.32716e-19
-8.42303e-19
-8.34854e-19
-8.49604e-19
-8.5114e-19
-8.54083e-19
-8.42709e-19
-8.65036e-19
-8.49831e-19
-8.78805e-19
-8.68923e-19
-7.77466e-19
-7.71646e-19
-7.74531e-19
-7.56681e-19
-7.65635e-19
-7.51154e-19
-7.61711e-19
-7.6997e-19
-7.82773e-19
-7.70445e-19
-7.98002e-19
-7.85502e-19
-7.9701e-19
-7.88368e-19
-8.05535e-19
-7.93348e-19
-8.08811e-19
-8.01522e-19
-8.1283e-19
-8.15397e-19
-8.16128e-19
-8.30271e-19
-8.3044e-19
-8.28954e-19
-8.39569e-19
-8.42267e-19
-8.37689e-19
-8.28963e-19
-8.32016e-19
-8.3717e-19
-8.32062e-19
-8.3459e-19
-8.31891e-19
-8.26317e-19
-8.43174e-19
-8.43676e-19
-8.44266e-19
-8.49745e-19
-8.34335e-19
-8.23129e-19
-8.39076e-19
-8.31265e-19
-8.49572e-19
-8.50856e-19
-8.64401e-19
-8.51474e-19
-8.78669e-19
-8.49668e-19
-8.74481e-19
-8.63543e-19
-7.8449e-19
-7.87109e-19
-7.77682e-19
-7.6227e-19
-7.6906e-19
-7.5174e-19
-7.54689e-19
-7.61135e-19
-7.83689e-19
-7.65507e-19
-7.91325e-19
-7.85431e-19
-7.96185e-19
-7.92492e-19
-7.96506e-19
-7.91613e-19
-8.06045e-19
-7.97738e-19
-8.06954e-19
-8.13597e-19
-8.23534e-19
-8.26281e-19
-8.38014e-19
-8.27984e-19
-8.39686e-19
-8.3481e-19
-8.35085e-19
-8.23001e-19
-8.32855e-19
-8.33243e-19
-8.28444e-19
-8.33252e-19
-8.33891e-19
-8.40805e-19
-8.37705e-19
-8.50265e-19
-8.46157e-19
-8.47831e-19
-8.33374e-19
-8.31967e-19
-8.38479e-19
-8.26217e-19
-8.54212e-19
-8.53668e-19
-8.64115e-19
-8.48626e-19
-8.74559e-19
-8.54025e-19
-8.61033e-19
-8.65458e-19
-7.95562e-19
-7.81305e-19
-7.90448e-19
-7.68536e-19
-7.72825e-19
-7.48803e-19
-7.56336e-19
-7.53248e-19
-7.77635e-19
-7.75125e-19
-7.85248e-19
-7.77457e-19
-8.0215e-19
-7.93156e-19
-8.01988e-19
-7.98361e-19
-7.99305e-19
-7.95914e-19
-8.00103e-19
-8.08463e-19
-8.2104e-19
-8.27716e-19
-8.4034e-19
-8.3108e-19
-8.41194e-19
-8.31791e-19
-8.31628e-19
-8.26691e-19
-8.39368e-19
-8.31669e-19
-8.30231e-19
-8.36414e-19
-8.33568e-19
-8.39891e-19
-8.3754e-19
-8.42811e-19
-8.50118e-19
-8.38572e-19
-8.39858e-19
-8.40559e-19
-8.36007e-19
-8.2928e-19
-8.60315e-19
-8.45504e-19
-8.69604e-19
-8.50532e-19
-8.7652e-19
-8.46196e-19
-8.70104e-19
-8.65052e-19
-7.86188e-19
-7.72101e-19
-7.80333e-19
-7.68019e-19
-7.72723e-19
-7.61312e-19
-7.69802e-19
-7.63151e-19
-7.98738e-19
-7.81214e-19
-7.93478e-19
-7.79827e-19
-7.9672e-19
-7.90291e-19
-8.06513e-19
-7.95209e-19
-8.03565e-19
-7.98334e-19
-8.09574e-19
-8.04422e-19
-8.17593e-19
-8.26862e-19
-8.39731e-19
-8.3382e-19
-8.45189e-19
-8.33026e-19
-8.26123e-19
-8.22422e-19
-8.28714e-19
-8.33284e-19
-8.38398e-19
-8.35342e-19
-8.34193e-19
-8.36968e-19
-8.3726e-19
-8.36512e-19
-8.45704e-19
-8.41086e-19
-8.39825e-19
-8.36245e-19
-8.30383e-19
-8.11455e-19
-8.44674e-19
-8.39003e-19
-8.56613e-19
-8.49656e-19
-8.77158e-19
-8.57668e-19
-8.75274e-19
-8.73481e-19
-7.79321e-19
-7.70947e-19
-7.79943e-19
-7.61019e-19
-7.74897e-19
-7.63957e-19
-7.68647e-19
-7.618e-19
-7.9087e-19
-7.6885e-19
-7.85056e-19
-7.85946e-19
-7.91723e-19
-7.82861e-19
-8.02876e-19
-7.96067e-19
-7.9943e-19
-7.98324e-19
-8.11678e-19
-8.02295e-19
-8.21772e-19
-8.29187e-19
-8.37285e-19
-8.36253e-19
-8.45211e-19
-8.36316e-19
-8.27096e-19
-8.22356e-19
-8.23607e-19
-8.34874e-19
-8.36939e-19
-8.31046e-19
-8.31543e-19
-8.43749e-19
-8.29535e-19
-8.38677e-19
-8.42633e-19
-8.43521e-19
-8.32411e-19
-8.35203e-19
-8.36635e-19
-8.21518e-19
-8.47668e-19
-8.41677e-19
-8.50416e-19
-8.47285e-19
-8.72239e-19
-8.59179e-19
-8.79594e-19
-8.76899e-19
-7.80658e-19
-7.62942e-19
-7.82991e-19
-7.54706e-19
-7.70188e-19
-7.49883e-19
-7.6353e-19
-7.56854e-19
-7.91096e-19
-7.7379e-19
-7.90518e-19
-7.87728e-19
-7.90156e-19
-7.77203e-19
-8.00739e-19
-7.92552e-19
-8.01746e-19
-7.92821e-19
-8.14103e-19
-8.0505e-19
-8.25025e-19
-8.2406e-19
-8.39257e-19
-8.33202e-19
-8.41271e-19
-8.32149e-19
-8.33295e-19
-8.24325e-19
-8.17362e-19
-8.32354e-19
-8.31395e-19
-8.27774e-19
-8.35091e-19
-8.41355e-19
-8.3736e-19
-8.38794e-19
-8.48049e-19
-8.44008e-19
-8.34303e-19
-8.3733e-19
-8.34729e-19
-8.31902e-19
-8.55207e-19
-8.4514e-19
-8.61963e-19
-8.50706e-19
-8.70967e-19
-8.5822e-19
-8.90254e-19
-8.75085e-19
-7.92074e-19
-7.59591e-19
-7.8408e-19
-7.60034e-19
-7.66034e-19
-7.47727e-19
-7.64844e-19
-7.58555e-19
-7.90991e-19
-7.8024e-19
-7.87957e-19
-7.79106e-19
-7.96054e-19
-7.8662e-19
-7.97017e-19
-7.97138e-19
-8.06375e-19
-7.89034e-19
-8.0965e-19
-8.06299e-19
-8.22283e-19
-8.19811e-19
-8.36296e-19
-8.32079e-19
-8.39739e-19
-8.27891e-19
-8.31198e-19
-8.23106e-19
-8.24465e-19
-8.33245e-19
-8.27015e-19
-8.30645e-19
-8.37571e-19
-8.32911e-19
-8.40853e-19
-8.40875e-19
-8.49446e-19
-8.38379e-19
-8.43207e-19
-8.27169e-19
-8.37993e-19
-8.28489e-19
-8.54935e-19
-8.49227e-19
-8.67633e-19
-8.51618e-19
-8.71142e-19
-8.5974e-19
-8.93817e-19
-8.67044e-19
-7.97933e-19
-7.68468e-19
-7.76835e-19
-7.5943e-19
-7.69231e-19
-7.5414e-19
-7.72461e-19
-7.58719e-19
-7.87424e-19
-7.71187e-19
-7.75518e-19
-7.79389e-19
-7.95101e-19
-7.92573e-19
-7.96558e-19
-7.92321e-19
-8.05165e-19
-7.92976e-19
-8.10743e-19
-8.03143e-19
-8.20877e-19
-8.19473e-19
-8.36771e-19
-8.30804e-19
-8.38514e-19
-8.29667e-19
-8.30332e-19
-8.1868e-19
-8.30338e-19
-8.31255e-19
-8.27705e-19
-8.27267e-19
-8.37107e-19
-8.31588e-19
-8.44415e-19
-8.39747e-19
-8.4804e-19
-8.34652e-19
-8.38054e-19
-8.44165e-19
-8.42495e-19
-8.31703e-19
-8.49059e-19
-8.46937e-19
-8.68655e-19
-8.42586e-19
-8.73215e-19
-8.66598e-19
-8.83217e-19
-8.65926e-19
-7.92169e-19
-7.78705e-19
-7.86141e-19
-7.64869e-19
-7.69236e-19
-7.6251e-19
-7.68512e-19
-7.62307e-19
-7.88465e-19
-7.70968e-19
-7.83246e-19
-7.79509e-19
-7.92394e-19
-7.92318e-19
-7.95209e-19
-7.91377e-19
-7.95217e-19
-7.97468e-19
-8.06091e-19
-8.06786e-19
-8.17729e-19
-8.16852e-19
-8.37568e-19
-8.35462e-19
-8.36525e-19
-8.29256e-19
-8.28638e-19
-8.22128e-19
-8.29171e-19
-8.31391e-19
-8.27333e-19
-8.238e-19
-8.33827e-19
-8.34082e-19
-8.35047e-19
-8.39472e-19
-8.3387e-19
-8.34774e-19
-8.30942e-19
-8.37043e-19
-8.40075e-19
-8.355e-19
-8.44499e-19
-8.40428e-19
-8.58431e-19
-8.48724e-19
-8.69833e-19
-8.57913e-19
-8.78035e-19
-8.67195e-19
-7.86289e-19
-7.86583e-19
-7.9037e-19
-7.66566e-19
-7.68399e-19
-7.64292e-19
-7.67694e-19
-7.60549e-19
-7.87093e-19
-7.70378e-19
-7.78256e-19
-7.86329e-19
-7.86922e-19
-7.86078e-19
-7.97941e-19
-7.90346e-19
-7.94402e-19
-7.99817e-19
-8.04611e-19
-8.04242e-19
-8.15788e-19
-8.19991e-19
-8.35658e-19
-8.32996e-19
-8.38694e-19
-8.30771e-19
-8.31063e-19
-8.26353e-19
-8.27089e-19
-8.26607e-19
-8.26964e-19
-8.24203e-19
-8.3572e-19
-8.30556e-19
-8.35723e-19
-8.36356e-19
-8.37671e-19
-8.38917e-19
-8.25781e-19
-8.3795e-19
-8.39754e-19
-8.31235e-19
-8.49452e-19
-8.43488e-19
-8.61334e-19
-8.5199e-19
-8.69274e-19
-8.54744e-19
-8.75223e-19
-8.69472e-19
-7.92699e-19
-7.8201e-19
-7.89634e-19
-7.65563e-19
-7.74806e-19
-7.56386e-19
-7.71811e-19
-7.57934e-19
-7.81909e-19
-7.67561e-19
-7.75275e-19
-7.8438e-19
-7.94229e-19
-7.84654e-19
-7.97943e-19
-7.92126e-19
-7.9653e-19
-7.95255e-19
-8.06178e-19
-7.97637e-19
-8.17925e-19
-8.20965e-19
-8.35995e-19
-8.3046e-19
-8.39038e-19
-8.36119e-19
-8.34514e-19
-8.26499e-19
-8.26045e-19
-8.28795e-19
-8.29603e-19
-8.27375e-19
-8.42726e-19
-8.28919e-19
-8.31546e-19
-8.37198e-19
-8.41423e-19
-8.33428e-19
-8.272e-19
-8.37032e-19
-8.41503e-19
-8.34447e-19
-8.5607e-19
-8.40461e-19
-8.66907e-19
-8.47261e-19
-8.71462e-19
-8.56439e-19
-8.7794e-19
-8.68165e-19
-7.881e-19
-7.79639e-19
-7.86903e-19
-7.67954e-19
-7.66378e-19
-7.62837e-19
-7.64833e-19
-7.68206e-19
-7.89148e-19
-7.71683e-19
-7.83806e-19
-7.72375e-19
-7.88201e-19
-7.849e-19
-7.89489e-19
-7.90854e-19
-7.95792e-19
-7.96429e-19
-8.06026e-19
-7.99519e-19
-8.24145e-19
-8.19828e-19
-8.43412e-19
-8.27784e-19
-8.38551e-19
-8.33578e-19
-8.26303e-19
-8.19729e-19
-8.24979e-19
-8.25141e-19
-8.24468e-19
-8.29315e-19
-8.36418e-19
-8.34858e-19
-8.25462e-19
-8.40945e-19
-8.38529e-19
-8.37617e-19
-8.37525e-19
-8.30449e-19
-8.33343e-19
-8.31095e-19
-8.51632e-19
-8.45044e-19
-8.58765e-19
-8.51994e-19
-8.70781e-19
-8.64254e-19
-8.79551e-19
-8.7623e-19
-7.91886e-19
-7.72091e-19
-7.87698e-19
-7.61359e-19
-7.61787e-19
-7.64474e-19
-7.682e-19
-7.62692e-19
-7.84985e-19
-7.73997e-19
-7.83998e-19
-7.71574e-19
-7.948e-19
-7.76975e-19
-7.87857e-19
-7.90512e-19
-7.99891e-19
-7.93654e-19
-8.06074e-19
-8.01001e-19
-8.21997e-19
-8.20289e-19
-8.36798e-19
-8.29632e-19
-8.43075e-19
-8.36873e-19
-8.29737e-19
-8.21562e-19
-8.25916e-19
-8.23473e-19
-8.25093e-19
-8.26417e-19
-8.36047e-19
-8.2935e-19
-8.28705e-19
-8.37243e-19
-8.38512e-19
-8.31789e-19
-8.3502e-19
-8.31863e-19
-8.31007e-19
-8.35514e-19
-8.51305e-19
-8.44208e-19
-8.58878e-19
-8.61494e-19
-8.76377e-19
-8.62528e-19
-8.88203e-19
-8.71645e-19
-7.8508e-19
-7.77845e-19
-7.8437e-19
-7.65959e-19
-7.6317e-19
-7.64235e-19
-7.69318e-19
-7.62951e-19
-7.84017e-19
-7.65382e-19
-7.91404e-19
-7.73178e-19
-7.92429e-19
-7.79133e-19
-7.86811e-19
-7.8869e-19
-7.98937e-19
-7.93531e-19
-8.08217e-19
-7.99322e-19
-8.18261e-19
-8.21477e-19
-8.32457e-19
-8.28371e-19
-8.42087e-19
-8.37294e-19
-8.30297e-19
-8.2133e-19
-8.2503e-19
-8.29348e-19
-8.29497e-19
-8.1875e-19
-8.34934e-19
-8.25267e-19
-8.33677e-19
-8.39308e-19
-8.37653e-19
-8.30605e-19
-8.289e-19
-8.26266e-19
-8.41628e-19
-8.33736e-19
-8.46623e-19
-8.44535e-19
-8.60041e-19
-8.59771e-19
-8.71717e-19
-8.64511e-19
-8.85393e-19
-8.68089e-19
-7.91201e-19
-7.81591e-19
-7.89364e-19
-7.78844e-19
-7.65406e-19
-7.64405e-19
-7.74157e-19
-7.61103e-19
-7.86217e-19
-7.60983e-19
-7.83151e-19
-7.73433e-19
-7.85386e-19
-7.79644e-19
-7.83535e-19
-7.92818e-19
-7.99564e-19
-7.96897e-19
-8.06879e-19
-7.96423e-19
-8.16161e-19
-8.22096e-19
-8.35819e-19
-8.27861e-19
-8.42264e-19
-8.32137e-19
-8.31808e-19
-8.20028e-19
-8.24621e-19
-8.25406e-19
-8.33501e-19
-8.16473e-19
-8.3181e-19
-8.25216e-19
-8.33519e-19
-8.40967e-19
-8.40558e-19
-8.35824e-19
-8.29768e-19
-8.31093e-19
-8.45037e-19
-8.31305e-19
-8.43075e-19
-8.39251e-19
-8.60441e-19
-8.47144e-19
-8.59266e-19
-8.60846e-19
-8.85664e-19
-8.70005e-19
-7.82933e-19
-7.82476e-19
-7.87841e-19
-7.86265e-19
-7.69715e-19
-7.65799e-19
-7.72464e-19
-7.55766e-19
-7.83063e-19
-7.66506e-19
-7.86627e-19
-7.67124e-19
-7.83166e-19
-7.77319e-19
-7.82981e-19
-7.93721e-19
-7.92518e-19
-7.9779e-19
-8.0258e-19
-7.98281e-19
-8.12412e-19
-8.26758e-19
-8.40295e-19
-8.29871e-19
-8.38576e-19
-8.2833e-19
-8.28831e-19
-8.23163e-19
-8.21508e-19
-8.24197e-19
-8.28553e-19
-8.21664e-19
-8.32178e-19
-8.30031e-19
-8.2973e-19
-8.38136e-19
-8.43015e-19
-8.38717e-19
-8.35522e-19
-8.23091e-19
-8.42835e-19
-8.28651e-19
-8.45553e-19
-8.38255e-19
-8.59397e-19
-8.49945e-19
-8.52408e-19
-8.64068e-19
-8.82389e-19
-8.83304e-19
-7.86265e-19
-7.83291e-19
-7.84676e-19
-7.75013e-19
-7.72088e-19
-7.6882e-19
-7.75411e-19
-7.65495e-19
-7.82598e-19
-7.67591e-19
-7.8734e-19
-7.699e-19
-7.91024e-19
-7.75803e-19
-7.8552e-19
-7.90692e-19
-7.9406e-19
-7.96874e-19
-8.02056e-19
-7.98563e-19
-8.11885e-19
-8.205e-19
-8.34098e-19
-8.32101e-19
-8.37869e-19
-8.28999e-19
-8.25968e-19
-8.26665e-19
-8.23378e-19
-8.26159e-19
-8.24705e-19
-8.22534e-19
-8.28623e-19
-8.30259e-19
-8.30852e-19
-8.37179e-19
-8.424e-19
-8.33074e-19
-8.30597e-19
-8.24216e-19
-8.36134e-19
-8.31035e-19
-8.42504e-19
-8.33487e-19
-8.56045e-19
-8.52602e-19
-8.67739e-19
-8.69761e-19
-8.78895e-19
-8.80059e-19
-7.89894e-19
-7.8576e-19
-7.88068e-19
-7.72426e-19
-7.71409e-19
-7.66531e-19
-7.73708e-19
-7.58768e-19
-7.85928e-19
-7.7094e-19
-7.83153e-19
-7.76641e-19
-7.8769e-19
-7.75823e-19
-7.90274e-19
-7.87725e-19
-7.94255e-19
-7.95504e-19
-8.03853e-19
-7.94664e-19
-8.15425e-19
-8.16961e-19
-8.3039e-19
-8.29312e-19
-8.38669e-19
-8.28261e-19
-8.22665e-19
-8.23914e-19
-8.23822e-19
-8.2324e-19
-8.23151e-19
-8.19752e-19
-8.27832e-19
-8.30497e-19
-8.32346e-19
-8.34486e-19
-8.39299e-19
-8.34927e-19
-8.27542e-19
-8.26897e-19
-8.31883e-19
-8.31924e-19
-8.53577e-19
-8.36707e-19
-8.56005e-19
-8.52915e-19
-8.667e-19
-8.70597e-19
-8.7933e-19
-8.75116e-19
-7.87614e-19
-7.89798e-19
-7.91996e-19
-7.66386e-19
-7.7119e-19
-7.67561e-19
-7.68398e-19
-7.63713e-19
-7.86597e-19
-7.65389e-19
-7.8567e-19
-7.74468e-19
-7.77695e-19
-7.73852e-19
-7.90771e-19
-7.88636e-19
-7.97992e-19
-7.93647e-19
-8.00547e-19
-7.9491e-19
-8.1472e-19
-8.1731e-19
-8.29963e-19
-8.26901e-19
-8.34385e-19
-8.2705e-19
-8.25502e-19
-8.22979e-19
-8.22951e-19
-8.21679e-19
-8.26478e-19
-8.18651e-19
-8.29733e-19
-8.28559e-19
-8.29896e-19
-8.30071e-19
-8.35899e-19
-8.41113e-19
-8.26631e-19
-8.22161e-19
-8.41926e-19
-8.31317e-19
-8.49035e-19
-8.41253e-19
-8.57013e-19
-8.53078e-19
-8.73344e-19
-8.65496e-19
-8.76939e-19
-8.734e-19
-7.76281e-19
-7.84705e-19
-7.83293e-19
-7.64739e-19
-7.6937e-19
-7.73127e-19
-7.75788e-19
-7.69597e-19
-7.85122e-19
-7.64199e-19
-7.92677e-19
-7.6964e-19
-7.74315e-19
-7.74711e-19
-7.94867e-19
-7.89424e-19
-7.99223e-19
-7.93862e-19
-7.97416e-19
-8.00954e-19
-8.13763e-19
-8.17125e-19
-8.29267e-19
-8.2486e-19
-8.35944e-19
-8.25804e-19
-8.26577e-19
-8.25067e-19
-8.22542e-19
-8.22246e-19
-8.22109e-19
-8.2256e-19
-8.27852e-19
-8.2706e-19
-8.28786e-19
-8.24388e-19
-8.32984e-19
-8.44404e-19
-8.28624e-19
-8.18975e-19
-8.41938e-19
-8.31308e-19
-8.49417e-19
-8.35046e-19
-8.52334e-19
-8.55536e-19
-8.73071e-19
-8.68163e-19
-8.84602e-19
-8.84626e-19
-7.86989e-19
-7.89097e-19
-7.74855e-19
-7.75569e-19
-7.63902e-19
-7.70796e-19
-7.74061e-19
-7.632e-19
-7.80249e-19
-7.67173e-19
-7.80818e-19
-7.61287e-19
-7.8404e-19
-7.66956e-19
-7.86905e-19
-7.87101e-19
-7.95072e-19
-7.93143e-19
-7.97309e-19
-7.99594e-19
-8.13763e-19
-8.18566e-19
-8.27036e-19
-8.2228e-19
-8.33847e-19
-8.24903e-19
-8.25529e-19
-8.23727e-19
-8.20417e-19
-8.24509e-19
-8.23755e-19
-8.22545e-19
-8.29029e-19
-8.2641e-19
-8.33245e-19
-8.3217e-19
-8.42297e-19
-8.31518e-19
-8.35974e-19
-8.31004e-19
-8.38917e-19
-8.31881e-19
-8.43866e-19
-8.38569e-19
-8.55252e-19
-8.61521e-19
-8.64831e-19
-8.77949e-19
-8.85386e-19
-8.78354e-19
-7.93838e-19
-7.85985e-19
-7.86419e-19
-7.81912e-19
-7.6644e-19
-7.72171e-19
-7.71666e-19
-7.61965e-19
-7.78566e-19
-7.68642e-19
-7.86694e-19
-7.63829e-19
-7.87349e-19
-7.75146e-19
-7.82146e-19
-7.85162e-19
-7.90242e-19
-7.93636e-19
-7.96804e-19
-7.98149e-19
-8.14688e-19
-8.13245e-19
-8.25383e-19
-8.2421e-19
-8.33233e-19
-8.23932e-19
-8.25362e-19
-8.24522e-19
-8.24969e-19
-8.20918e-19
-8.26219e-19
-8.21209e-19
-8.26097e-19
-8.27352e-19
-8.35211e-19
-8.31015e-19
-8.41299e-19
-8.25728e-19
-8.38343e-19
-8.26294e-19
-8.39351e-19
-8.31877e-19
-8.3977e-19
-8.41455e-19
-8.57805e-19
-8.58155e-19
-8.61061e-19
-8.68037e-19
-8.8706e-19
-8.7561e-19
-7.94391e-19
-7.93426e-19
-7.93898e-19
-7.80738e-19
-7.72345e-19
-7.65616e-19
-7.62989e-19
-7.58529e-19
-7.85167e-19
-7.68645e-19
-7.77039e-19
-7.65938e-19
-7.80334e-19
-7.77334e-19
-7.85664e-19
-7.82005e-19
-7.85093e-19
-7.91251e-19
-7.98793e-19
-7.97008e-19
-8.1576e-19
-8.13668e-19
-8.29247e-19
-8.23542e-19
-8.3445e-19
-8.22883e-19
-8.24809e-19
-8.21991e-19
-8.25365e-19
-8.2019e-19
-8.24208e-19
-8.16518e-19
-8.28996e-19
-8.27403e-19
-8.36844e-19
-8.26079e-19
-8.42171e-19
-8.3118e-19
-8.3764e-19
-8.23473e-19
-8.36319e-19
-8.24913e-19
-8.36194e-19
-8.42585e-19
-8.65616e-19
-8.50459e-19
-8.66008e-19
-8.61735e-19
-8.84636e-19
-8.71909e-19
-7.91858e-19
-7.9417e-19
-7.9324e-19
-7.71773e-19
-7.75016e-19
-7.6697e-19
-7.6979e-19
-7.5648e-19
-7.82111e-19
-7.70035e-19
-7.74063e-19
-7.65809e-19
-7.81176e-19
-7.79394e-19
-7.84799e-19
-7.79245e-19
-7.93723e-19
-7.83232e-19
-7.95976e-19
-7.96117e-19
-8.13748e-19
-8.13935e-19
-8.28359e-19
-8.22338e-19
-8.30557e-19
-8.21738e-19
-8.23903e-19
-8.2067e-19
-8.2177e-19
-8.19398e-19
-8.23547e-19
-8.19828e-19
-8.29951e-19
-8.17675e-19
-8.37414e-19
-8.23012e-19
-8.34826e-19
-8.33602e-19
-8.35523e-19
-8.22472e-19
-8.33134e-19
-8.28566e-19
-8.43756e-19
-8.37675e-19
-8.58711e-19
-8.49681e-19
-8.67142e-19
-8.66551e-19
-8.78272e-19
-7.91579e-19
-7.88098e-19
-7.88932e-19
-7.73092e-19
-7.70428e-19
-7.70141e-19
-7.766e-19
-7.62315e-19
-7.8095e-19
-7.73619e-19
-7.79845e-19
-7.651e-19
-7.78201e-19
-7.7268e-19
-7.8641e-19
-7.79935e-19
-7.91297e-19
-7.86687e-19
-7.98093e-19
-7.99086e-19
-8.1551e-19
-8.14481e-19
-8.29259e-19
-8.22636e-19
-8.28073e-19
-8.20922e-19
-8.2346e-19
-8.19336e-19
-8.19065e-19
-8.1617e-19
-8.19771e-19
-8.2058e-19
-8.28691e-19
-8.2254e-19
-8.33497e-19
-8.23345e-19
-8.37178e-19
-8.33597e-19
-8.37095e-19
-8.24828e-19
-8.2934e-19
-8.32008e-19
-8.436e-19
-8.35733e-19
-8.55613e-19
-8.53715e-19
-8.68008e-19
-8.68916e-19
-7.90183e-19
-7.85446e-19
-7.93029e-19
-7.84442e-19
-7.70052e-19
-7.69799e-19
-7.76605e-19
-7.65141e-19
-7.79233e-19
-7.70515e-19
-7.81452e-19
-7.64572e-19
-7.82387e-19
-7.72526e-19
-7.87766e-19
-7.8437e-19
-7.87082e-19
-7.89179e-19
-7.97516e-19
-8.00316e-19
-8.16206e-19
-8.1332e-19
-8.26779e-19
-8.22834e-19
-8.27704e-19
-8.20044e-19
-8.22689e-19
-8.1603e-19
-8.16427e-19
-8.14123e-19
-8.1765e-19
-8.21655e-19
-8.22478e-19
-8.27192e-19
-8.29033e-19
-8.27375e-19
-8.36138e-19
-8.28506e-19
-8.35284e-19
-8.32795e-19
-8.32151e-19
-8.31502e-19
-8.42827e-19
-8.33241e-19
-8.5424e-19
-8.52285e-19
-8.58809e-19
-8.02262e-19
-7.83494e-19
-7.89796e-19
-7.83822e-19
-7.68103e-19
-7.71647e-19
-7.68142e-19
-7.65486e-19
-7.85612e-19
-7.76002e-19
-7.74524e-19
-7.63416e-19
-7.8366e-19
-7.67983e-19
-7.88477e-19
-7.84081e-19
-7.86014e-19
-7.85809e-19
-7.96994e-19
-7.97566e-19
-8.13947e-19
-8.13599e-19
-8.24092e-19
-8.21028e-19
-8.28991e-19
-8.20264e-19
-8.22006e-19
-8.18142e-19
-8.18498e-19
-8.15158e-19
-8.19037e-19
-8.18114e-19
-8.22112e-19
-8.21031e-19
-8.26971e-19
-8.22456e-19
-8.40205e-19
-8.3025e-19
-8.36608e-19
-8.36453e-19
-8.26237e-19
-8.23017e-19
-8.40718e-19
-8.45526e-19
-8.57518e-19
-8.5601e-19
-7.94627e-19
-7.82862e-19
-7.81634e-19
-7.82906e-19
-7.70796e-19
-7.66557e-19
-7.73773e-19
-7.64192e-19
-7.75811e-19
-7.67975e-19
-7.74853e-19
-7.61307e-19
-7.80305e-19
-7.74137e-19
-7.83711e-19
-7.78095e-19
-7.86867e-19
-7.81277e-19
-7.977e-19
-7.974e-19
-8.11475e-19
-8.16457e-19
-8.22317e-19
-8.19551e-19
-8.2696e-19
-8.21547e-19
-8.22143e-19
-8.17906e-19
-8.17903e-19
-8.17643e-19
-8.20821e-19
-8.14975e-19
-8.23305e-19
-8.17946e-19
-8.29171e-19
-8.19716e-19
-8.33142e-19
-8.37837e-19
-8.39083e-19
-8.28579e-19
-8.34848e-19
-8.32287e-19
-8.39841e-19
-8.39557e-19
-8.58634e-19
-7.88251e-19
-7.79692e-19
-7.81055e-19
-7.79233e-19
-7.68738e-19
-7.53209e-19
-7.7725e-19
-7.64225e-19
-7.69581e-19
-7.69835e-19
-7.7056e-19
-7.61574e-19
-7.81968e-19
-7.74169e-19
-7.82459e-19
-7.7804e-19
-7.85581e-19
-7.83359e-19
-7.97401e-19
-7.97879e-19
-8.10606e-19
-8.12907e-19
-8.26251e-19
-8.19149e-19
-8.27308e-19
-8.18648e-19
-8.21194e-19
-8.154e-19
-8.18816e-19
-8.23797e-19
-8.23017e-19
-8.17376e-19
-8.22346e-19
-8.21108e-19
-8.28888e-19
-8.21302e-19
-8.32167e-19
-8.28759e-19
-8.31691e-19
-8.30968e-19
-8.36074e-19
-8.38424e-19
-8.40483e-19
-8.31038e-19
-8.69037e-19
-7.93685e-19
-7.90397e-19
-7.92017e-19
-7.85843e-19
-7.66397e-19
-7.62095e-19
-7.78066e-19
-7.65561e-19
-7.73851e-19
-7.77393e-19
-7.72874e-19
-7.57309e-19
-7.81983e-19
-7.68647e-19
-7.79499e-19
-7.78995e-19
-7.83655e-19
-7.83831e-19
-7.97205e-19
-8.00099e-19
-8.10559e-19
-8.08975e-19
-8.25119e-19
-8.19751e-19
-8.24461e-19
-8.16458e-19
-8.20325e-19
-8.17286e-19
-8.23012e-19
-8.22914e-19
-8.18612e-19
-8.18196e-19
-8.21447e-19
-8.21235e-19
-8.24347e-19
-8.22732e-19
-8.37115e-19
-8.25222e-19
-8.36712e-19
-8.27884e-19
-8.2798e-19
-8.33383e-19
-8.4119e-19
-8.31584e-19
-8.60619e-19
-7.95251e-19
-7.90303e-19
-7.94949e-19
-7.90699e-19
-7.68841e-19
-7.65493e-19
-7.75212e-19
-7.6989e-19
-7.82635e-19
-7.74654e-19
-7.68154e-19
-7.66672e-19
-7.8047e-19
-7.75886e-19
-7.82378e-19
-7.73458e-19
-7.87533e-19
-7.8564e-19
-7.96005e-19
-7.95744e-19
-8.0699e-19
-8.12576e-19
-8.22352e-19
-8.20998e-19
-8.22478e-19
-8.15672e-19
-8.19882e-19
-8.20525e-19
-8.2104e-19
-8.23522e-19
-8.20745e-19
-8.14298e-19
-8.17354e-19
-8.19185e-19
-8.25287e-19
-8.17958e-19
-8.31465e-19
-8.27279e-19
-8.37173e-19
-8.31159e-19
-8.24927e-19
-8.25259e-19
-8.37448e-19
-8.35713e-19
-8.59311e-19
-7.95125e-19
-7.87814e-19
-7.88462e-19
-7.8138e-19
-7.73165e-19
-7.67391e-19
-7.69079e-19
-7.67508e-19
-7.8174e-19
-7.723e-19
-7.74935e-19
-7.64635e-19
-7.84335e-19
-7.75575e-19
-7.82843e-19
-7.71736e-19
-7.87573e-19
-7.84512e-19
-7.94543e-19
-7.93161e-19
-8.06359e-19
-8.11122e-19
-8.19356e-19
-8.17589e-19
-8.21654e-19
-8.18027e-19
-8.19476e-19
-8.19096e-19
-8.17673e-19
-8.19901e-19
-8.21452e-19
-8.12176e-19
-8.14754e-19
-8.17144e-19
-8.21027e-19
-8.16995e-19
-8.31628e-19
-8.26418e-19
-8.33554e-19