/*--------------------------------*- C++ -*----------------------------------*\
  =========                 |
  \\      /  F ield         | OpenFOAM: The Open Source CFD Toolbox
   \\    /   O peration     | Website:  https://openfoam.org
    \\  /    A nd           | Version:  7
     \\/     M anipulation  |
\*---------------------------------------------------------------------------*/
FoamFile
{
    version     2.0;
    format      ascii;
    class       volScalarField;
    location    "256000";
    object      k;
}
// * * * * * * * * * * * * * * * * * * * * * * * * * * * * * * * * * * * * * //

dimensions      [0 2 -2 0 0 0 0];

internalField   nonuniform List<scalar> 
4783
(
5.0704e-07
5.04725e-07
5.02583e-07
5.0063e-07
4.98868e-07
4.97292e-07
4.95894e-07
4.94664e-07
4.93593e-07
4.92671e-07
4.91887e-07
4.9123e-07
4.90687e-07
4.90245e-07
4.8989e-07
4.89608e-07
4.89386e-07
4.89212e-07
4.89076e-07
4.88971e-07
4.88891e-07
4.88832e-07
5.11068e-07
5.08694e-07
5.06431e-07
5.04304e-07
5.02338e-07
5.00543e-07
4.98919e-07
4.97462e-07
4.96164e-07
4.95019e-07
4.94018e-07
4.93151e-07
4.92408e-07
4.91779e-07
4.91252e-07
4.90817e-07
4.90461e-07
4.90173e-07
4.89943e-07
4.89762e-07
4.89623e-07
4.89518e-07
5.15837e-07
5.13205e-07
5.10755e-07
5.08451e-07
5.06298e-07
5.04303e-07
5.0247e-07
5.008e-07
4.9929e-07
4.97932e-07
4.96722e-07
4.95652e-07
4.94713e-07
4.93896e-07
4.93193e-07
4.92595e-07
4.9209e-07
4.9167e-07
4.91326e-07
4.91048e-07
4.90829e-07
4.90661e-07
5.21134e-07
5.18241e-07
5.15562e-07
5.13056e-07
5.10711e-07
5.08525e-07
5.065e-07
5.04634e-07
5.02926e-07
5.01373e-07
4.9997e-07
4.9871e-07
4.97588e-07
4.96595e-07
4.95725e-07
4.94968e-07
4.94317e-07
4.93765e-07
4.93302e-07
4.92921e-07
4.92615e-07
4.92379e-07
5.26883e-07
5.23755e-07
5.20848e-07
5.18128e-07
5.15583e-07
5.13206e-07
5.10993e-07
5.08941e-07
5.07049e-07
5.05314e-07
5.03731e-07
5.02297e-07
5.01005e-07
4.9985e-07
4.98824e-07
4.97921e-07
4.97134e-07
4.96457e-07
4.95882e-07
4.95403e-07
4.95014e-07
4.94709e-07
5.33044e-07
5.29704e-07
5.26583e-07
5.23654e-07
5.20909e-07
5.1834e-07
5.15942e-07
5.1371e-07
5.11642e-07
5.09735e-07
5.07984e-07
5.06386e-07
5.04937e-07
5.0363e-07
5.02461e-07
5.01423e-07
5.00511e-07
4.99719e-07
4.99041e-07
4.98471e-07
4.98005e-07
4.97638e-07
5.39586e-07
5.36051e-07
5.32733e-07
5.29607e-07
5.26669e-07
5.23913e-07
5.21334e-07
5.18928e-07
5.1669e-07
5.14618e-07
5.12707e-07
5.10955e-07
5.09358e-07
5.0791e-07
5.06607e-07
5.05444e-07
5.04416e-07
5.03518e-07
5.02745e-07
5.02092e-07
5.01555e-07
5.0113e-07
5.46481e-07
5.42767e-07
5.39266e-07
5.35957e-07
5.32837e-07
5.29903e-07
5.2715e-07
5.24575e-07
5.22174e-07
5.19944e-07
5.17882e-07
5.15983e-07
5.14245e-07
5.12664e-07
5.11235e-07
5.09955e-07
5.08818e-07
5.07822e-07
5.0696e-07
5.0623e-07
5.05628e-07
5.05151e-07
5.53704e-07
5.49824e-07
5.46155e-07
5.42676e-07
5.39387e-07
5.36285e-07
5.33367e-07
5.30631e-07
5.28075e-07
5.25694e-07
5.23486e-07
5.21448e-07
5.19577e-07
5.1787e-07
5.16322e-07
5.14931e-07
5.13693e-07
5.12604e-07
5.1166e-07
5.10858e-07
5.10195e-07
5.09668e-07
5.6123e-07
5.57198e-07
5.53374e-07
5.49738e-07
5.46291e-07
5.43032e-07
5.3996e-07
5.37072e-07
5.34368e-07
5.31844e-07
5.29499e-07
5.27329e-07
5.25332e-07
5.23505e-07
5.21845e-07
5.2035e-07
5.19015e-07
5.17839e-07
5.16817e-07
5.15948e-07
5.15228e-07
5.14655e-07
5.69037e-07
5.64865e-07
5.60898e-07
5.57117e-07
5.53524e-07
5.50119e-07
5.46903e-07
5.43874e-07
5.41031e-07
5.38372e-07
5.35896e-07
5.33601e-07
5.31485e-07
5.29546e-07
5.2778e-07
5.26186e-07
5.24761e-07
5.23503e-07
5.22408e-07
5.21475e-07
5.20701e-07
5.20085e-07
5.77104e-07
5.72804e-07
5.68704e-07
5.6479e-07
5.61062e-07
5.57523e-07
5.54172e-07
5.51011e-07
5.48038e-07
5.45253e-07
5.42656e-07
5.40243e-07
5.38015e-07
5.35969e-07
5.34104e-07
5.32417e-07
5.30907e-07
5.29571e-07
5.28408e-07
5.27415e-07
5.26591e-07
5.25934e-07
5.85409e-07
5.80992e-07
5.76772e-07
5.72735e-07
5.68883e-07
5.6522e-07
5.61745e-07
5.58461e-07
5.55368e-07
5.52465e-07
5.49753e-07
5.47231e-07
5.44898e-07
5.42752e-07
5.40794e-07
5.3902e-07
5.3743e-07
5.36021e-07
5.34794e-07
5.33745e-07
5.32873e-07
5.32177e-07
5.93934e-07
5.89409e-07
5.85079e-07
5.8093e-07
5.76965e-07
5.73187e-07
5.69598e-07
5.66201e-07
5.62996e-07
5.59984e-07
5.57166e-07
5.54542e-07
5.5211e-07
5.49872e-07
5.47826e-07
5.45971e-07
5.44306e-07
5.42829e-07
5.41541e-07
5.4044e-07
5.39523e-07
5.38792e-07
6.02659e-07
5.98038e-07
5.93608e-07
5.89356e-07
5.85287e-07
5.81405e-07
5.77711e-07
5.74209e-07
5.70901e-07
5.67789e-07
5.64872e-07
5.62153e-07
5.5963e-07
5.57306e-07
5.55178e-07
5.53247e-07
5.51512e-07
5.49972e-07
5.48628e-07
5.47477e-07
6.11567e-07
6.06858e-07
6.02338e-07
5.97993e-07
5.9383e-07
5.89852e-07
5.86062e-07
5.82465e-07
5.79063e-07
5.75857e-07
5.7285e-07
5.70043e-07
5.67436e-07
5.65031e-07
5.62828e-07
5.60826e-07
5.59026e-07
5.57428e-07
5.56031e-07
6.2064e-07
6.15853e-07
6.11252e-07
6.06824e-07
6.02575e-07
5.9851e-07
5.94633e-07
5.90949e-07
5.8746e-07
5.84169e-07
5.81078e-07
5.7819e-07
5.75506e-07
5.73027e-07
5.70754e-07
5.68687e-07
5.66827e-07
6.29863e-07
6.25007e-07
6.20332e-07
6.15829e-07
6.11503e-07
6.0736e-07
6.03404e-07
5.99641e-07
5.96073e-07
5.92704e-07
5.89538e-07
5.86576e-07
5.8382e-07
5.81273e-07
6.3922e-07
6.34303e-07
6.29564e-07
6.24994e-07
6.20599e-07
6.16385e-07
6.12358e-07
6.08523e-07
6.04884e-07
6.01444e-07
5.98209e-07
5.95179e-07
6.48697e-07
6.43726e-07
6.3893e-07
6.34301e-07
6.29845e-07
6.25568e-07
6.21478e-07
6.17578e-07
6.13875e-07
6.10372e-07
6.58279e-07
6.53263e-07
6.48417e-07
6.43736e-07
6.39226e-07
6.34894e-07
6.30747e-07
6.2679e-07
6.23029e-07
6.67954e-07
6.62898e-07
6.58011e-07
6.53285e-07
6.48728e-07
6.44347e-07
6.4015e-07
6.36143e-07
6.77709e-07
6.72621e-07
6.67698e-07
6.62934e-07
6.58336e-07
6.53914e-07
6.49673e-07
6.87532e-07
6.82418e-07
6.77466e-07
6.7267e-07
6.68038e-07
6.6358e-07
6.97413e-07
6.92279e-07
6.87303e-07
6.82481e-07
6.77821e-07
6.73332e-07
7.0734e-07
7.02191e-07
6.97197e-07
6.92355e-07
6.87672e-07
7.17303e-07
7.12146e-07
7.07139e-07
7.02281e-07
7.27294e-07
7.22132e-07
7.17118e-07
7.1225e-07
7.37303e-07
7.32141e-07
7.27124e-07
7.47321e-07
7.42164e-07
7.37149e-07
7.57342e-07
7.52194e-07
7.47184e-07
7.67357e-07
7.62221e-07
7.57222e-07
7.77359e-07
7.7224e-07
7.67253e-07
7.87342e-07
7.82242e-07
7.77273e-07
7.97299e-07
7.92223e-07
7.87273e-07
8.07224e-07
8.02174e-07
7.97248e-07
8.17113e-07
8.12091e-07
8.07191e-07
8.26959e-07
8.21969e-07
8.17097e-07
8.36759e-07
8.31802e-07
8.26961e-07
8.46506e-07
8.41586e-07
8.36778e-07
8.56198e-07
8.51316e-07
8.46544e-07
8.65829e-07
8.60987e-07
8.56253e-07
5.0704e-07
5.11068e-07
5.15837e-07
5.21134e-07
5.26883e-07
5.33044e-07
5.39586e-07
5.46481e-07
5.53704e-07
5.6123e-07
5.69037e-07
5.77104e-07
5.85409e-07
5.93934e-07
6.02659e-07
6.11567e-07
6.2064e-07
6.29863e-07
6.3922e-07
6.48697e-07
6.58279e-07
6.67954e-07
6.77709e-07
6.87532e-07
6.97413e-07
7.0734e-07
7.17303e-07
7.27294e-07
7.37303e-07
7.47321e-07
7.57342e-07
7.67357e-07
7.77359e-07
7.87342e-07
7.97299e-07
8.07224e-07
8.17113e-07
8.26959e-07
8.36759e-07
8.46506e-07
8.56198e-07
8.65829e-07
5.04725e-07
5.08694e-07
5.13205e-07
5.18241e-07
5.23755e-07
5.29704e-07
5.36051e-07
5.42767e-07
5.49824e-07
5.57198e-07
5.64865e-07
5.72804e-07
5.80992e-07
5.89409e-07
5.98038e-07
6.06858e-07
6.15853e-07
6.25007e-07
6.34303e-07
6.43726e-07
6.53263e-07
6.62898e-07
6.72621e-07
6.82418e-07
6.92279e-07
7.02191e-07
7.12146e-07
7.22132e-07
7.32141e-07
7.42164e-07
7.52194e-07
7.62221e-07
7.7224e-07
7.82242e-07
7.92222e-07
8.02174e-07
8.12091e-07
8.21969e-07
8.31802e-07
8.41586e-07
8.51316e-07
8.60987e-07
5.02583e-07
5.06431e-07
5.10755e-07
5.15562e-07
5.20848e-07
5.26583e-07
5.32733e-07
5.39266e-07
5.46155e-07
5.53374e-07
5.60898e-07
5.68704e-07
5.76772e-07
5.85079e-07
5.93608e-07
6.02338e-07
6.11252e-07
6.20332e-07
6.29564e-07
6.3893e-07
6.48417e-07
6.58011e-07
6.67698e-07
6.77466e-07
6.87303e-07
6.97197e-07
7.07139e-07
7.17118e-07
7.27124e-07
7.37149e-07
7.47184e-07
7.57222e-07
7.67253e-07
7.77273e-07
7.87273e-07
7.97248e-07
8.07191e-07
8.17097e-07
8.26961e-07
8.36778e-07
8.46544e-07
8.56253e-07
5.0063e-07
5.04304e-07
5.08451e-07
5.13056e-07
5.18128e-07
5.23654e-07
5.29607e-07
5.35957e-07
5.42677e-07
5.49738e-07
5.57117e-07
5.6479e-07
5.72735e-07
5.8093e-07
5.89356e-07
5.97993e-07
6.06824e-07
6.15829e-07
6.24994e-07
6.34301e-07
6.43736e-07
6.53285e-07
6.62934e-07
6.7267e-07
6.82481e-07
6.92355e-07
7.02281e-07
7.1225e-07
7.22251e-07
7.32275e-07
7.42313e-07
7.52358e-07
7.624e-07
7.72434e-07
7.82452e-07
7.92447e-07
8.02414e-07
8.12346e-07
8.22239e-07
8.32087e-07
8.41885e-07
8.5163e-07
4.98868e-07
5.02338e-07
5.06298e-07
5.10711e-07
5.15583e-07
5.20909e-07
5.26669e-07
5.32837e-07
5.39387e-07
5.46291e-07
5.53524e-07
5.61062e-07
5.68883e-07
5.76965e-07
5.85287e-07
5.9383e-07
6.02575e-07
6.11503e-07
6.20599e-07
6.29845e-07
6.39226e-07
6.48728e-07
6.58336e-07
6.68038e-07
6.77821e-07
6.87672e-07
6.97582e-07
7.07538e-07
7.17531e-07
7.27552e-07
7.37591e-07
7.4764e-07
7.57691e-07
7.67737e-07
7.7777e-07
7.87783e-07
7.97771e-07
8.07727e-07
8.17646e-07
8.27523e-07
8.37352e-07
8.47129e-07
4.97292e-07
5.00543e-07
5.04303e-07
5.08525e-07
5.13206e-07
5.1834e-07
5.23913e-07
5.29903e-07
5.36285e-07
5.43032e-07
5.50119e-07
5.57523e-07
5.6522e-07
5.73187e-07
5.81405e-07
5.89852e-07
5.9851e-07
6.0736e-07
6.16385e-07
6.25568e-07
6.34894e-07
6.44347e-07
6.53914e-07
6.6358e-07
6.73332e-07
6.83159e-07
6.93049e-07
7.02991e-07
7.12974e-07
7.22989e-07
7.33027e-07
7.43079e-07
7.53136e-07
7.63192e-07
7.73237e-07
7.83267e-07
7.93273e-07
8.03251e-07
8.13194e-07
8.23097e-07
8.32955e-07
8.42762e-07
4.95894e-07
4.98919e-07
5.0247e-07
5.065e-07
5.10993e-07
5.15942e-07
5.21334e-07
5.2715e-07
5.33367e-07
5.3996e-07
5.46903e-07
5.54172e-07
5.61745e-07
5.69598e-07
5.77711e-07
5.86063e-07
5.94633e-07
6.03404e-07
6.12358e-07
6.21478e-07
6.30747e-07
6.4015e-07
6.49673e-07
6.59301e-07
6.69022e-07
6.78823e-07
6.88692e-07
6.98617e-07
7.08589e-07
7.18597e-07
7.28632e-07
7.38684e-07
7.48745e-07
7.58808e-07
7.68865e-07
7.78908e-07
7.88931e-07
7.98928e-07
8.08893e-07
8.1882e-07
8.28704e-07
8.3854e-07
4.94664e-07
4.97462e-07
5.008e-07
5.04634e-07
5.08941e-07
5.1371e-07
5.18928e-07
5.24575e-07
5.30631e-07
5.37072e-07
5.43874e-07
5.51011e-07
5.58461e-07
5.66201e-07
5.74209e-07
5.82465e-07
5.90949e-07
5.99641e-07
6.08523e-07
6.17578e-07
6.2679e-07
6.36143e-07
6.45621e-07
6.55211e-07
6.64899e-07
6.74672e-07
6.84518e-07
6.94426e-07
7.04385e-07
7.14383e-07
7.24413e-07
7.34464e-07
7.44528e-07
7.54597e-07
7.64662e-07
7.74717e-07
7.84755e-07
7.94769e-07
8.04753e-07
8.14702e-07
8.2461e-07
8.34472e-07
4.93593e-07
4.96164e-07
4.9929e-07
5.02926e-07
5.07049e-07
5.11642e-07
5.1669e-07
5.22174e-07
5.28075e-07
5.34368e-07
5.41031e-07
5.48038e-07
5.55368e-07
5.62996e-07
5.70901e-07
5.79063e-07
5.8746e-07
5.96073e-07
6.04884e-07
6.13875e-07
6.23029e-07
6.3233e-07
6.41764e-07
6.51314e-07
6.60969e-07
6.70713e-07
6.80536e-07
6.90425e-07
7.00369e-07
7.10358e-07
7.20381e-07
7.30429e-07
7.40494e-07
7.50566e-07
7.60639e-07
7.70704e-07
7.80754e-07
7.90784e-07
8.00785e-07
8.10754e-07
8.20684e-07
8.3057e-07
4.92671e-07
4.95019e-07
4.97932e-07
5.01373e-07
5.05314e-07
5.09735e-07
5.14618e-07
5.19944e-07
5.25694e-07
5.31844e-07
5.38372e-07
5.45254e-07
5.52465e-07
5.59984e-07
5.67789e-07
5.75857e-07
5.84169e-07
5.92704e-07
6.01444e-07
6.10372e-07
6.19469e-07
6.28719e-07
6.38107e-07
6.47618e-07
6.57239e-07
6.66954e-07
6.76752e-07
6.86622e-07
6.9655e-07
7.06527e-07
7.16543e-07
7.26587e-07
7.36651e-07
7.46726e-07
7.56804e-07
7.66877e-07
7.76938e-07
7.86981e-07
7.96999e-07
8.06985e-07
8.16935e-07
8.26842e-07
4.91887e-07
4.94018e-07
4.96722e-07
4.9997e-07
5.03731e-07
5.07984e-07
5.12707e-07
5.17882e-07
5.23486e-07
5.29499e-07
5.35896e-07
5.42656e-07
5.49753e-07
5.57166e-07
5.64872e-07
5.7285e-07
5.81078e-07
5.89538e-07
5.98209e-07
6.07073e-07
6.16114e-07
6.25314e-07
6.34657e-07
6.44129e-07
6.53715e-07
6.63401e-07
6.73174e-07
6.83023e-07
6.92935e-07
7.029e-07
7.12907e-07
7.22946e-07
7.33008e-07
7.43084e-07
7.53166e-07
7.63246e-07
7.73317e-07
7.83371e-07
7.93402e-07
8.03405e-07
8.13373e-07
8.233e-07
4.9123e-07
4.93151e-07
4.95652e-07
4.9871e-07
5.02297e-07
5.06386e-07
5.10955e-07
5.15983e-07
5.21448e-07
5.27329e-07
5.33602e-07
5.40243e-07
5.47231e-07
5.54542e-07
5.62153e-07
5.70043e-07
5.7819e-07
5.86576e-07
5.95179e-07
6.03983e-07
6.12968e-07
6.22118e-07
6.31418e-07
6.4085e-07
6.50402e-07
6.60059e-07
6.69808e-07
6.79636e-07
6.89531e-07
6.99483e-07
7.0948e-07
7.19513e-07
7.29572e-07
7.39648e-07
7.49733e-07
7.59818e-07
7.69897e-07
7.79961e-07
7.90005e-07
8.00022e-07
8.10006e-07
8.19951e-07
8.29853e-07
4.90687e-07
4.92408e-07
4.94713e-07
4.97588e-07
5.01005e-07
5.04937e-07
5.09358e-07
5.14245e-07
5.19577e-07
5.25332e-07
5.31485e-07
5.38015e-07
5.44898e-07
5.5211e-07
5.59631e-07
5.67436e-07
5.75506e-07
5.8382e-07
5.92359e-07
6.01103e-07
6.10035e-07
6.19137e-07
6.28393e-07
6.37788e-07
6.47307e-07
6.56935e-07
6.66659e-07
6.76466e-07
6.86345e-07
6.96283e-07
7.0627e-07
7.16296e-07
7.26352e-07
7.36427e-07
7.46513e-07
7.56603e-07
7.66688e-07
7.76761e-07
7.86815e-07
7.96845e-07
8.06844e-07
8.16805e-07
8.26725e-07
8.36598e-07
4.90245e-07
4.91779e-07
4.93896e-07
4.96595e-07
4.9985e-07
5.0363e-07
5.0791e-07
5.12664e-07
5.1787e-07
5.23505e-07
5.29546e-07
5.35969e-07
5.42753e-07
5.49872e-07
5.57306e-07
5.65031e-07
5.73027e-07
5.81273e-07
5.89749e-07
5.98437e-07
6.07317e-07
6.16373e-07
6.25588e-07
6.34947e-07
6.44433e-07
6.54033e-07
6.63732e-07
6.73519e-07
6.83381e-07
6.93306e-07
7.03283e-07
7.13302e-07
7.23353e-07
7.33426e-07
7.43513e-07
7.53606e-07
7.63696e-07
7.73777e-07
7.83841e-07
7.93882e-07
8.03893e-07
8.1387e-07
8.23805e-07
8.33696e-07
4.8989e-07
4.91252e-07
4.93193e-07
4.95725e-07
4.98824e-07
5.02461e-07
5.06607e-07
5.11235e-07
5.16322e-07
5.21845e-07
5.2778e-07
5.34104e-07
5.40794e-07
5.47826e-07
5.55178e-07
5.62828e-07
5.70754e-07
5.78936e-07
5.87353e-07
5.95987e-07
6.04819e-07
6.13831e-07
6.23006e-07
6.32329e-07
6.41784e-07
6.51357e-07
6.61034e-07
6.70801e-07
6.80646e-07
6.90558e-07
7.00525e-07
7.10536e-07
7.20582e-07
7.30653e-07
7.4074e-07
7.50835e-07
7.6093e-07
7.71017e-07
7.81089e-07
7.91139e-07
8.01162e-07
8.11152e-07
8.21102e-07
8.31008e-07
8.40865e-07
4.89608e-07
4.90817e-07
4.92595e-07
4.94968e-07
4.97921e-07
5.01423e-07
5.05444e-07
5.09955e-07
5.14931e-07
5.2035e-07
5.26186e-07
5.32417e-07
5.3902e-07
5.45971e-07
5.53247e-07
5.60826e-07
5.68687e-07
5.76809e-07
5.85171e-07
5.93755e-07
6.02541e-07
6.11511e-07
6.2065e-07
6.2994e-07
6.39366e-07
6.48913e-07
6.58567e-07
6.68315e-07
6.78145e-07
6.88043e-07
6.98e-07
7.08004e-07
7.18045e-07
7.28113e-07
7.38199e-07
7.48296e-07
7.58394e-07
7.68486e-07
7.78565e-07
7.88625e-07
7.98658e-07
8.08659e-07
8.18622e-07
8.28542e-07
8.38414e-07
4.89386e-07
4.90461e-07
4.9209e-07
4.94317e-07
4.97134e-07
5.00511e-07
5.04416e-07
5.08818e-07
5.13693e-07
5.19015e-07
5.24761e-07
5.30907e-07
5.3743e-07
5.44306e-07
5.51512e-07
5.59026e-07
5.66827e-07
5.74894e-07
5.83205e-07
5.91742e-07
6.00486e-07
6.09418e-07
6.18522e-07
6.27781e-07
6.3718e-07
6.46703e-07
6.56336e-07
6.66067e-07
6.75881e-07
6.85767e-07
6.95714e-07
7.05711e-07
7.15746e-07
7.25812e-07
7.35897e-07
7.45995e-07
7.56095e-07
7.66192e-07
7.76277e-07
7.86344e-07
7.96386e-07
8.06397e-07
8.16372e-07
8.26304e-07
8.3619e-07
8.46024e-07
4.89212e-07
4.90173e-07
4.9167e-07
4.93765e-07
4.96457e-07
4.99719e-07
5.03518e-07
5.07822e-07
5.12604e-07
5.17839e-07
5.23503e-07
5.29572e-07
5.36022e-07
5.4283e-07
5.49973e-07
5.57428e-07
5.65174e-07
5.7319e-07
5.81456e-07
5.8995e-07
5.98655e-07
6.07553e-07
6.16625e-07
6.25856e-07
6.3523e-07
6.44731e-07
6.54345e-07
6.64059e-07
6.73859e-07
6.83734e-07
6.93672e-07
7.03661e-07
7.13692e-07
7.23754e-07
7.33838e-07
7.43936e-07
7.54039e-07
7.64139e-07
7.74229e-07
7.84303e-07
7.94352e-07
8.04372e-07
8.14357e-07
8.243e-07
8.34198e-07
8.44045e-07
8.53836e-07
4.89076e-07
4.89943e-07
4.91326e-07
4.93302e-07
4.95882e-07
4.99041e-07
5.02745e-07
5.0696e-07
5.1166e-07
5.16817e-07
5.22408e-07
5.28408e-07
5.34794e-07
5.41541e-07
5.48628e-07
5.56031e-07
5.63729e-07
5.717e-07
5.79924e-07
5.8838e-07
5.97051e-07
6.05917e-07
6.14961e-07
6.24167e-07
6.33518e-07
6.42999e-07
6.52596e-07
6.62295e-07
6.72083e-07
6.81947e-07
6.91876e-07
7.01859e-07
7.11885e-07
7.21944e-07
7.32027e-07
7.42125e-07
7.52229e-07
7.62333e-07
7.72427e-07
7.82506e-07
7.92562e-07
8.02589e-07
8.12582e-07
8.22536e-07
8.32444e-07
8.42301e-07
8.52105e-07
4.88971e-07
4.89762e-07
4.91048e-07
4.92921e-07
4.95403e-07
4.98471e-07
5.02092e-07
5.06231e-07
5.10858e-07
5.15948e-07
5.21475e-07
5.27415e-07
5.33745e-07
5.4044e-07
5.47477e-07
5.54835e-07
5.6249e-07
5.70422e-07
5.7861e-07
5.87033e-07
5.95674e-07
6.04513e-07
6.13532e-07
6.22716e-07
6.32047e-07
6.4151e-07
6.51092e-07
6.60778e-07
6.70554e-07
6.80409e-07
6.90331e-07
7.00308e-07
7.10329e-07
7.20386e-07
7.30467e-07
7.40565e-07
7.50671e-07
7.60776e-07
7.70874e-07
7.80957e-07
7.91019e-07
8.01053e-07
8.11053e-07
8.21014e-07
8.30931e-07
8.40799e-07
8.50612e-07
4.88891e-07
4.89623e-07
4.90829e-07
4.92615e-07
4.95014e-07
4.98005e-07
5.01555e-07
5.05628e-07
5.10195e-07
5.15228e-07
5.20701e-07
5.26591e-07
5.32873e-07
5.39524e-07
5.4652e-07
5.53839e-07
5.61458e-07
5.69357e-07
5.77514e-07
5.8591e-07
5.94525e-07
6.03341e-07
6.12339e-07
6.21504e-07
6.30818e-07
6.40267e-07
6.49836e-07
6.5951e-07
6.69277e-07
6.79124e-07
6.89039e-07
6.99011e-07
7.09028e-07
7.19082e-07
7.29163e-07
7.3926e-07
7.49367e-07
7.59474e-07
7.69574e-07
7.79661e-07
7.89727e-07
7.99766e-07
8.09773e-07
8.19741e-07
8.29665e-07
8.3954e-07
8.49362e-07
4.88832e-07
4.89518e-07
4.90661e-07
4.92379e-07
4.94709e-07
4.97638e-07
5.0113e-07
5.05151e-07
5.09668e-07
5.14655e-07
5.20085e-07
5.25934e-07
5.32177e-07
5.38792e-07
5.45755e-07
5.53042e-07
5.60633e-07
5.68505e-07
5.76638e-07
5.85011e-07
5.93605e-07
6.02402e-07
6.11383e-07
6.20533e-07
6.29833e-07
6.3927e-07
6.48828e-07
6.58493e-07
6.68252e-07
6.78093e-07
6.88002e-07
6.9797e-07
7.07985e-07
7.18036e-07
7.28115e-07
7.38213e-07
7.4832e-07
7.58428e-07
7.68531e-07
7.78621e-07
7.8869e-07
7.98734e-07
8.08745e-07
8.18718e-07
8.28648e-07
8.38529e-07
8.48358e-07
8.5813e-07
4.8879e-07
4.89443e-07
4.90541e-07
4.92206e-07
4.94485e-07
4.97366e-07
5.00815e-07
5.04795e-07
5.09275e-07
5.14227e-07
5.19624e-07
5.25442e-07
5.31657e-07
5.38244e-07
5.45181e-07
5.52446e-07
5.60014e-07
5.67866e-07
5.7598e-07
5.84336e-07
5.92915e-07
6.01697e-07
6.10666e-07
6.19803e-07
6.29094e-07
6.38521e-07
6.48071e-07
6.5773e-07
6.67483e-07
6.77318e-07
6.87224e-07
6.97188e-07
7.072e-07
7.1725e-07
7.27328e-07
7.37425e-07
7.47533e-07
7.57642e-07
7.67746e-07
7.77838e-07
7.8791e-07
7.97957e-07
8.07971e-07
8.17948e-07
8.27882e-07
8.37769e-07
8.47603e-07
8.5738e-07
4.88763e-07
4.89396e-07
4.90463e-07
4.92093e-07
4.94337e-07
4.97187e-07
5.00606e-07
5.04559e-07
5.09014e-07
5.13942e-07
5.19317e-07
5.25115e-07
5.3131e-07
5.37879e-07
5.448e-07
5.52048e-07
5.59602e-07
5.6744e-07
5.75542e-07
5.83886e-07
5.92454e-07
6.01227e-07
6.10187e-07
6.19317e-07
6.286e-07
6.38022e-07
6.47566e-07
6.5722e-07
6.66969e-07
6.76801e-07
6.86703e-07
6.96666e-07
7.06676e-07
7.16725e-07
7.26802e-07
7.36899e-07
7.47007e-07
7.57117e-07
7.67222e-07
7.77315e-07
7.87389e-07
7.97438e-07
8.07455e-07
8.17434e-07
8.27371e-07
8.37261e-07
8.47098e-07
8.56878e-07
8.66598e-07
4.8875e-07
4.89372e-07
4.90424e-07
4.92037e-07
4.94264e-07
4.97097e-07
5.00502e-07
5.04442e-07
5.08884e-07
5.138e-07
5.19164e-07
5.24951e-07
5.31137e-07
5.37697e-07
5.44609e-07
5.51849e-07
5.59396e-07
5.67227e-07
5.75322e-07
5.83661e-07
5.92224e-07
6.00992e-07
6.09947e-07
6.19073e-07
6.28353e-07
6.37772e-07
6.47313e-07
6.56965e-07
6.66712e-07
6.76542e-07
6.86443e-07
6.96404e-07
7.06414e-07
7.16462e-07
7.26539e-07
7.36636e-07
7.46744e-07
7.56854e-07
7.6696e-07
7.77054e-07
7.87128e-07
7.97178e-07
8.07196e-07
8.17177e-07
8.27115e-07
8.37006e-07
8.46845e-07
8.56627e-07
8.66349e-07
4.8875e-07
4.89372e-07
4.90424e-07
4.92037e-07
4.94264e-07
4.97097e-07
5.00502e-07
5.04442e-07
5.08884e-07
5.138e-07
5.19164e-07
5.24951e-07
5.31137e-07
5.37697e-07
5.44609e-07
5.51849e-07
5.59396e-07
5.67227e-07
5.75322e-07
5.83661e-07
5.92224e-07
6.00992e-07
6.09947e-07
6.19073e-07
6.28353e-07
6.37772e-07
6.47313e-07
6.56965e-07
6.66712e-07
6.76542e-07
6.86443e-07
6.96404e-07
7.06414e-07
7.16462e-07
7.26539e-07
7.36636e-07
7.46744e-07
7.56854e-07
7.6696e-07
7.77054e-07
7.87128e-07
7.97178e-07
8.07196e-07
8.17177e-07
8.27115e-07
8.37006e-07
8.46845e-07
8.56627e-07
8.66349e-07
8.76006e-07
4.88763e-07
4.89396e-07
4.90463e-07
4.92093e-07
4.94337e-07
4.97187e-07
5.00606e-07
5.04559e-07
5.09014e-07
5.13942e-07
5.19317e-07
5.25115e-07
5.3131e-07
5.37879e-07
5.448e-07
5.52048e-07
5.59602e-07
5.6744e-07
5.75541e-07
5.83886e-07
5.92454e-07
6.01227e-07
6.10187e-07
6.19317e-07
6.286e-07
6.38022e-07
6.47566e-07
6.5722e-07
6.66969e-07
6.76801e-07
6.86703e-07
6.96665e-07
7.06676e-07
7.16725e-07
7.26802e-07
7.36899e-07
7.47007e-07
7.57117e-07
7.67222e-07
7.77315e-07
7.87389e-07
7.97438e-07
8.07455e-07
8.17434e-07
8.27371e-07
8.37261e-07
8.47098e-07
8.56878e-07
8.66598e-07
8.76253e-07
4.8879e-07
4.89443e-07
4.90541e-07
4.92206e-07
4.94485e-07
4.97366e-07
5.00815e-07
5.04795e-07
5.09275e-07
5.14227e-07
5.19624e-07
5.25442e-07
5.31657e-07
5.38244e-07
5.45181e-07
5.52445e-07
5.60014e-07
5.67866e-07
5.7598e-07
5.84336e-07
5.92914e-07
6.01697e-07
6.10666e-07
6.19803e-07
6.29094e-07
6.38521e-07
6.48071e-07
6.5773e-07
6.67483e-07
6.77318e-07
6.87223e-07
6.97188e-07
7.072e-07
7.1725e-07
7.27328e-07
7.37425e-07
7.47533e-07
7.57642e-07
7.67746e-07
7.77838e-07
7.8791e-07
7.97957e-07
8.07971e-07
8.17948e-07
8.27882e-07
8.37769e-07
8.47603e-07
8.5738e-07
8.67095e-07
8.76746e-07
4.88832e-07
4.89518e-07
4.90661e-07
4.92379e-07
4.94709e-07
4.97638e-07
5.0113e-07
5.05151e-07
5.09668e-07
5.14655e-07
5.20085e-07
5.25934e-07
5.32177e-07
5.38792e-07
5.45755e-07
5.53042e-07
5.60633e-07
5.68505e-07
5.76638e-07
5.85011e-07
5.93605e-07
6.02402e-07
6.11383e-07
6.20533e-07
6.29833e-07
6.3927e-07
6.48828e-07
6.58493e-07
6.68252e-07
6.78093e-07
6.88002e-07
6.9797e-07
7.07985e-07
7.18036e-07
7.28115e-07
7.38213e-07
7.4832e-07
7.58428e-07
7.68531e-07
7.78621e-07
7.8869e-07
7.98734e-07
8.08745e-07
8.18718e-07
8.28648e-07
8.38529e-07
8.48358e-07
8.5813e-07
8.6784e-07
8.77485e-07
4.88891e-07
4.89623e-07
4.90829e-07
4.92615e-07
4.95014e-07
4.98005e-07
5.01555e-07
5.05628e-07
5.10195e-07
5.15228e-07
5.20701e-07
5.26591e-07
5.32873e-07
5.39524e-07
5.4652e-07
5.53838e-07
5.61458e-07
5.69357e-07
5.77514e-07
5.8591e-07
5.94525e-07
6.0334e-07
6.12339e-07
6.21504e-07
6.30818e-07
6.40267e-07
6.49835e-07
6.5951e-07
6.69277e-07
6.79124e-07
6.89039e-07
6.99011e-07
7.09028e-07
7.19082e-07
7.29162e-07
7.3926e-07
7.49367e-07
7.59474e-07
7.69574e-07
7.79661e-07
7.89727e-07
7.99766e-07
8.09773e-07
8.19741e-07
8.29665e-07
8.3954e-07
8.49362e-07
8.59126e-07
8.68829e-07
8.78466e-07
4.88971e-07
4.89762e-07
4.91048e-07
4.92921e-07
4.95403e-07
4.98471e-07
5.02092e-07
5.0623e-07
5.10858e-07
5.15948e-07
5.21475e-07
5.27415e-07
5.33745e-07
5.4044e-07
5.47477e-07
5.54835e-07
5.6249e-07
5.70422e-07
5.7861e-07
5.87033e-07
5.95674e-07
6.04513e-07
6.13532e-07
6.22715e-07
6.32047e-07
6.4151e-07
6.51092e-07
6.60778e-07
6.70554e-07
6.80409e-07
6.90331e-07
7.00308e-07
7.10329e-07
7.20386e-07
7.30467e-07
7.40565e-07
7.50671e-07
7.60776e-07
7.70874e-07
7.80957e-07
7.91019e-07
8.01053e-07
8.11053e-07
8.21014e-07
8.30931e-07
8.40799e-07
8.50612e-07
8.60368e-07
8.70061e-07
8.79688e-07
4.89076e-07
4.89943e-07
4.91326e-07
4.93302e-07
4.95882e-07
4.99041e-07
5.02745e-07
5.0696e-07
5.1166e-07
5.16817e-07
5.22408e-07
5.28408e-07
5.34794e-07
5.41541e-07
5.48628e-07
5.56031e-07
5.63729e-07
5.717e-07
5.79924e-07
5.8838e-07
5.97051e-07
6.05917e-07
6.14961e-07
6.24167e-07
6.33518e-07
6.42999e-07
6.52596e-07
6.62295e-07
6.72082e-07
6.81947e-07
6.91876e-07
7.01859e-07
7.11885e-07
7.21944e-07
7.32027e-07
7.42125e-07
7.52229e-07
7.62333e-07
7.72427e-07
7.82506e-07
7.92562e-07
8.02589e-07
8.12582e-07
8.22535e-07
8.32443e-07
8.42301e-07
8.52105e-07
8.61849e-07
8.71531e-07
8.81146e-07
4.89212e-07
4.90173e-07
4.9167e-07
4.93765e-07
4.96457e-07
4.99719e-07
5.03518e-07
5.07822e-07
5.12604e-07
5.17839e-07
5.23503e-07
5.29571e-07
5.36021e-07
5.42829e-07
5.49972e-07
5.57428e-07
5.65174e-07
5.7319e-07
5.81455e-07
5.8995e-07
5.98655e-07
6.07553e-07
6.16625e-07
6.25856e-07
6.35229e-07
6.44731e-07
6.54345e-07
6.64059e-07
6.73859e-07
6.83734e-07
6.93671e-07
7.03661e-07
7.13692e-07
7.23754e-07
7.33838e-07
7.43936e-07
7.54039e-07
7.64139e-07
7.74229e-07
7.84303e-07
7.94352e-07
8.04372e-07
8.14357e-07
8.243e-07
8.34198e-07
8.44045e-07
8.53836e-07
8.63568e-07
8.73236e-07
8.82837e-07
4.89386e-07
4.90461e-07
4.9209e-07
4.94317e-07
4.97134e-07
5.00511e-07
5.04416e-07
5.08818e-07
5.13693e-07
5.19015e-07
5.24761e-07
5.30907e-07
5.3743e-07
5.44305e-07
5.51512e-07
5.59026e-07
5.66827e-07
5.74893e-07
5.83205e-07
5.91742e-07
6.00485e-07
6.09418e-07
6.18522e-07
6.27781e-07
6.3718e-07
6.46703e-07
6.56336e-07
6.66066e-07
6.75881e-07
6.85767e-07
6.95714e-07
7.0571e-07
7.15746e-07
7.25811e-07
7.35897e-07
7.45994e-07
7.56095e-07
7.66192e-07
7.76277e-07
7.86344e-07
7.96386e-07
8.06397e-07
8.16372e-07
8.26304e-07
8.3619e-07
8.46024e-07
8.55801e-07
8.65519e-07
8.75172e-07
8.84757e-07
4.89608e-07
4.90817e-07
4.92595e-07
4.94968e-07
4.97921e-07
5.01423e-07
5.05444e-07
5.09955e-07
5.14931e-07
5.2035e-07
5.26186e-07
5.32417e-07
5.3902e-07
5.45971e-07
5.53247e-07
5.60826e-07
5.68687e-07
5.76809e-07
5.85171e-07
5.93754e-07
6.0254e-07
6.11511e-07
6.2065e-07
6.2994e-07
6.39365e-07
6.48913e-07
6.58567e-07
6.68315e-07
6.78144e-07
6.88043e-07
6.98e-07
7.08004e-07
7.18044e-07
7.28113e-07
7.38199e-07
7.48296e-07
7.58394e-07
7.68486e-07
7.78565e-07
7.88625e-07
7.98658e-07
8.08659e-07
8.18622e-07
8.28542e-07
8.38414e-07
8.48233e-07
8.57995e-07
8.67696e-07
8.77332e-07
8.86899e-07
4.8989e-07
4.91252e-07
4.93193e-07
4.95725e-07
4.98824e-07
5.02461e-07
5.06607e-07
5.11235e-07
5.16322e-07
5.21845e-07
5.2778e-07
5.34104e-07
5.40794e-07
5.47826e-07
5.55178e-07
5.62828e-07
5.70754e-07
5.78935e-07
5.87353e-07
5.95987e-07
6.04818e-07
6.1383e-07
6.23006e-07
6.32329e-07
6.41784e-07
6.51357e-07
6.61034e-07
6.70801e-07
6.80646e-07
6.90558e-07
7.00524e-07
7.10536e-07
7.20582e-07
7.30653e-07
7.4074e-07
7.50835e-07
7.60929e-07
7.71016e-07
7.81089e-07
7.91139e-07
8.01162e-07
8.11152e-07
8.21102e-07
8.31008e-07
8.40865e-07
8.50667e-07
8.60412e-07
8.70095e-07
8.79711e-07
8.89258e-07
4.90245e-07
4.91779e-07
4.93896e-07
4.96595e-07
4.9985e-07
5.0363e-07
5.0791e-07
5.12664e-07
5.1787e-07
5.23505e-07
5.29546e-07
5.35969e-07
5.42752e-07
5.49872e-07
5.57305e-07
5.65031e-07
5.73027e-07
5.81273e-07
5.89749e-07
5.98437e-07
6.07317e-07
6.16373e-07
6.25588e-07
6.34946e-07
6.44433e-07
6.54032e-07
6.63732e-07
6.73519e-07
6.83381e-07
6.93306e-07
7.03283e-07
7.13302e-07
7.23353e-07
7.33426e-07
7.43513e-07
7.53606e-07
7.63696e-07
7.73777e-07
7.83841e-07
7.93882e-07
8.03893e-07
8.13869e-07
8.23805e-07
8.33695e-07
8.43535e-07
8.5332e-07
8.63045e-07
8.72707e-07
8.82302e-07
8.91827e-07
4.90687e-07
4.92408e-07
4.94713e-07
4.97588e-07
5.01005e-07
5.04937e-07
5.09358e-07
5.14245e-07
5.19577e-07
5.25332e-07
5.31485e-07
5.38015e-07
5.44898e-07
5.5211e-07
5.5963e-07
5.67436e-07
5.75506e-07
5.8382e-07
5.92359e-07
6.01103e-07
6.10034e-07
6.19137e-07
6.28393e-07
6.37788e-07
6.47306e-07
6.56934e-07
6.66658e-07
6.76466e-07
6.86344e-07
6.96283e-07
7.0627e-07
7.16296e-07
7.26351e-07
7.36427e-07
7.46513e-07
7.56602e-07
7.66687e-07
7.76761e-07
7.86815e-07
7.96845e-07
8.06843e-07
8.16805e-07
8.26725e-07
8.36597e-07
8.46418e-07
8.56183e-07
8.65887e-07
8.75526e-07
8.85098e-07
8.94598e-07
4.9123e-07
4.93151e-07
4.95652e-07
4.9871e-07
5.02297e-07
5.06386e-07
5.10955e-07
5.15983e-07
5.21448e-07
5.27329e-07
5.33601e-07
5.40243e-07
5.47231e-07
5.54542e-07
5.62153e-07
5.70042e-07
5.7819e-07
5.86575e-07
5.95179e-07
6.03982e-07
6.12968e-07
6.22118e-07
6.31417e-07
6.4085e-07
6.50402e-07
6.60059e-07
6.69807e-07
6.79636e-07
6.89531e-07
6.99483e-07
7.0948e-07
7.19513e-07
7.29572e-07
7.39648e-07
7.49733e-07
7.59818e-07
7.69897e-07
7.79961e-07
7.90005e-07
8.00022e-07
8.10006e-07
8.19951e-07
8.29853e-07
8.39706e-07
8.49506e-07
8.59249e-07
8.68929e-07
8.78545e-07
8.88091e-07
8.97565e-07
4.91887e-07
4.94018e-07
4.96722e-07
4.9997e-07
5.03731e-07
5.07984e-07
5.12707e-07
5.17882e-07
5.23486e-07
5.29499e-07
5.35896e-07
5.42656e-07
5.49753e-07
5.57166e-07
5.64872e-07
5.7285e-07
5.81078e-07
5.89537e-07
5.98208e-07
6.07073e-07
6.16113e-07
6.25313e-07
6.34657e-07
6.44128e-07
6.53714e-07
6.634e-07
6.73174e-07
6.83023e-07
6.92935e-07
7.029e-07
7.12907e-07
7.22946e-07
7.33008e-07
7.43084e-07
7.53166e-07
7.63246e-07
7.73316e-07
7.83371e-07
7.93402e-07
8.03405e-07
8.13372e-07
8.233e-07
8.33182e-07
8.43014e-07
8.52791e-07
8.62509e-07
8.72165e-07
8.81754e-07
8.91272e-07
9.00717e-07
4.92671e-07
4.95019e-07
4.97932e-07
5.01373e-07
5.05314e-07
5.09735e-07
5.14618e-07
5.19944e-07
5.25694e-07
5.31844e-07
5.38372e-07
5.45253e-07
5.52465e-07
5.59984e-07
5.67789e-07
5.75857e-07
5.84169e-07
5.92704e-07
6.01444e-07
6.10372e-07
6.19469e-07
6.28719e-07
6.38107e-07
6.47618e-07
6.57238e-07
6.66954e-07
6.76752e-07
6.86621e-07
6.9655e-07
7.06527e-07
7.16542e-07
7.26587e-07
7.36651e-07
7.46726e-07
7.56804e-07
7.66877e-07
7.76938e-07
7.86981e-07
7.96998e-07
8.06985e-07
8.16935e-07
8.26842e-07
8.36703e-07
8.46511e-07
8.56264e-07
8.65956e-07
8.75584e-07
8.85144e-07
8.94633e-07
9.04047e-07
4.93593e-07
4.96164e-07
4.99289e-07
5.02926e-07
5.07049e-07
5.11642e-07
5.1669e-07
5.22174e-07
5.28075e-07
5.34368e-07
5.4103e-07
5.48038e-07
5.55368e-07
5.62996e-07
5.70901e-07
5.79063e-07
5.87459e-07
5.96073e-07
6.04883e-07
6.13875e-07
6.23029e-07
6.3233e-07
6.41763e-07
6.51314e-07
6.60968e-07
6.70713e-07
6.80536e-07
6.90425e-07
7.00369e-07
7.10357e-07
7.2038e-07
7.30429e-07
7.40494e-07
7.50566e-07
7.60639e-07
7.70704e-07
7.80754e-07
7.90783e-07
8.00785e-07
8.10754e-07
8.20684e-07
8.30569e-07
8.40406e-07
8.5019e-07
8.59915e-07
8.69579e-07
8.79178e-07
8.88707e-07
8.98163e-07
9.07545e-07
4.94664e-07
4.97462e-07
5.008e-07
5.04634e-07
5.08941e-07
5.1371e-07
5.18927e-07
5.24575e-07
5.30631e-07
5.37072e-07
5.43873e-07
5.51011e-07
5.58461e-07