/*--------------------------------*- C++ -*----------------------------------*\
  =========                 |
  \\      /  F ield         | OpenFOAM: The Open Source CFD Toolbox
   \\    /   O peration     | Website:  https://openfoam.org
    \\  /    A nd           | Version:  7
     \\/     M anipulation  |
\*---------------------------------------------------------------------------*/
FoamFile
{
    version     2.0;
    format      ascii;
    class       volScalarField;
    location    "160000";
    object      k;
}
// * * * * * * * * * * * * * * * * * * * * * * * * * * * * * * * * * * * * * //

dimensions      [0 2 -2 0 0 0 0];

internalField   nonuniform List<scalar> 
4782
(
1.30201e-06
1.29322e-06
1.28379e-06
1.27367e-06
1.26283e-06
1.25122e-06
1.23879e-06
1.2255e-06
1.21129e-06
1.1961e-06
1.33212e-06
1.33616e-06
1.34006e-06
1.3438e-06
1.34739e-06
1.35083e-06
1.35411e-06
1.35723e-06
1.36019e-06
1.36298e-06
1.3656e-06
1.36805e-06
1.37032e-06
1.37241e-06
1.3743e-06
1.37601e-06
1.37752e-06
1.37882e-06
1.37992e-06
1.3808e-06
1.38147e-06
1.38191e-06
1.38212e-06
1.38209e-06
1.38182e-06
1.38129e-06
1.38051e-06
1.37945e-06
1.37812e-06
1.3765e-06
1.37458e-06
1.37235e-06
1.36981e-06
1.36692e-06
1.36369e-06
1.3601e-06
1.35613e-06
1.35177e-06
1.34699e-06
1.34178e-06
1.33612e-06
1.32999e-06
1.32335e-06
1.31619e-06
1.30848e-06
1.30018e-06
1.29127e-06
1.2817e-06
1.27145e-06
1.26047e-06
1.24872e-06
1.23615e-06
1.22271e-06
1.20835e-06
1.193e-06
1.33396e-06
1.33794e-06
1.34177e-06
1.34545e-06
1.34898e-06
1.35235e-06
1.35556e-06
1.35862e-06
1.36151e-06
1.36424e-06
1.36679e-06
1.36917e-06
1.37137e-06
1.37338e-06
1.37521e-06
1.37684e-06
1.37828e-06
1.37951e-06
1.38053e-06
1.38134e-06
1.38193e-06
1.38229e-06
1.38242e-06
1.38231e-06
1.38196e-06
1.38135e-06
1.38048e-06
1.37935e-06
1.37793e-06
1.37622e-06
1.37421e-06
1.3719e-06
1.36926e-06
1.36628e-06
1.36296e-06
1.35927e-06
1.3552e-06
1.35073e-06
1.34585e-06
1.34054e-06
1.33476e-06
1.32852e-06
1.32176e-06
1.31448e-06
1.30665e-06
1.29823e-06
1.28918e-06
1.27949e-06
1.2691e-06
1.25798e-06
1.24608e-06
1.23336e-06
1.21976e-06
1.20524e-06
1.18972e-06
1.33579e-06
1.3397e-06
1.34347e-06
1.34708e-06
1.35054e-06
1.35385e-06
1.357e-06
1.35998e-06
1.36281e-06
1.36547e-06
1.36795e-06
1.37026e-06
1.37238e-06
1.37432e-06
1.37607e-06
1.37763e-06
1.37899e-06
1.38014e-06
1.38109e-06
1.38182e-06
1.38233e-06
1.38261e-06
1.38266e-06
1.38247e-06
1.38203e-06
1.38134e-06
1.38039e-06
1.37916e-06
1.37765e-06
1.37586e-06
1.37376e-06
1.37135e-06
1.36861e-06
1.36554e-06
1.36212e-06
1.35833e-06
1.35416e-06
1.34959e-06
1.3446e-06
1.33917e-06
1.33329e-06
1.32692e-06
1.32005e-06
1.31265e-06
1.30469e-06
1.29613e-06
1.28696e-06
1.27712e-06
1.26659e-06
1.25533e-06
1.24328e-06
1.2304e-06
1.21665e-06
1.20196e-06
1.18627e-06
1.33761e-06
1.34146e-06
1.34515e-06
1.3487e-06
1.35209e-06
1.35533e-06
1.3584e-06
1.36132e-06
1.36407e-06
1.36665e-06
1.36906e-06
1.37129e-06
1.37334e-06
1.37521e-06
1.37688e-06
1.37836e-06
1.37964e-06
1.38071e-06
1.38157e-06
1.38222e-06
1.38265e-06
1.38285e-06
1.38281e-06
1.38254e-06
1.38202e-06
1.38124e-06
1.3802e-06
1.37888e-06
1.37728e-06
1.37539e-06
1.3732e-06
1.3707e-06
1.36786e-06
1.36469e-06
1.36117e-06
1.35727e-06
1.353e-06
1.34832e-06
1.34322e-06
1.33768e-06
1.33168e-06
1.32519e-06
1.3182e-06
1.31067e-06
1.30258e-06
1.29389e-06
1.28458e-06
1.2746e-06
1.26393e-06
1.25251e-06
1.24031e-06
1.22727e-06
1.21335e-06
1.19849e-06
1.18264e-06
1.33761e-06
1.34146e-06
1.34515e-06
1.3487e-06
1.35209e-06
1.35533e-06
1.3584e-06
1.36132e-06
1.36407e-06
1.36665e-06
1.36906e-06
1.37129e-06
1.37334e-06
1.37521e-06
1.37688e-06
1.37836e-06
1.37964e-06
1.38071e-06
1.38157e-06
1.38222e-06
1.38265e-06
1.38285e-06
1.38281e-06
1.38254e-06
1.38202e-06
1.38124e-06
1.3802e-06
1.37888e-06
1.37728e-06
1.37539e-06
1.3732e-06
1.3707e-06
1.36786e-06
1.36469e-06
1.36117e-06
1.35727e-06
1.353e-06
1.34832e-06
1.34322e-06
1.33768e-06
1.33168e-06
1.32519e-06
1.3182e-06
1.31067e-06
1.30258e-06
1.29389e-06
1.28458e-06
1.2746e-06
1.26393e-06
1.25251e-06
1.24031e-06
1.22727e-06
1.21335e-06
1.19849e-06
1.18264e-06
1.33579e-06
1.3397e-06
1.34347e-06
1.34708e-06
1.35054e-06
1.35385e-06
1.357e-06
1.35998e-06
1.36281e-06
1.36546e-06
1.36795e-06
1.37026e-06
1.37238e-06
1.37432e-06
1.37607e-06
1.37763e-06
1.37899e-06
1.38014e-06
1.38109e-06
1.38182e-06
1.38233e-06
1.38261e-06
1.38266e-06
1.38247e-06
1.38203e-06
1.38134e-06
1.38039e-06
1.37916e-06
1.37765e-06
1.37586e-06
1.37376e-06
1.37135e-06
1.36861e-06
1.36554e-06
1.36212e-06
1.35833e-06
1.35416e-06
1.34959e-06
1.3446e-06
1.33917e-06
1.33329e-06
1.32692e-06
1.32005e-06
1.31265e-06
1.30469e-06
1.29613e-06
1.28696e-06
1.27712e-06
1.26659e-06
1.25533e-06
1.24328e-06
1.2304e-06
1.21665e-06
1.20196e-06
1.18627e-06
1.16954e-06
1.15168e-06
1.13263e-06
1.11231e-06
1.33396e-06
1.33794e-06
1.34177e-06
1.34545e-06
1.34898e-06
1.35235e-06
1.35556e-06
1.35862e-06
1.36151e-06
1.36424e-06
1.36679e-06
1.36917e-06
1.37137e-06
1.37338e-06
1.37521e-06
1.37684e-06
1.37828e-06
1.37951e-06
1.38053e-06
1.38134e-06
1.38193e-06
1.38229e-06
1.38242e-06
1.38231e-06
1.38196e-06
1.38135e-06
1.38048e-06
1.37935e-06
1.37793e-06
1.37622e-06
1.37421e-06
1.3719e-06
1.36926e-06
1.36628e-06
1.36296e-06
1.35927e-06
1.3552e-06
1.35073e-06
1.34585e-06
1.34053e-06
1.33476e-06
1.32852e-06
1.32176e-06
1.31448e-06
1.30665e-06
1.29823e-06
1.28918e-06
1.27949e-06
1.2691e-06
1.25798e-06
1.24608e-06
1.23336e-06
1.21976e-06
1.20524e-06
1.18972e-06
1.17316e-06
1.15548e-06
1.13661e-06
1.11648e-06
1.095e-06
1.33212e-06
1.33616e-06
1.34006e-06
1.3438e-06
1.34739e-06
1.35083e-06
1.35411e-06
1.35723e-06
1.36019e-06
1.36298e-06
1.3656e-06
1.36805e-06
1.37032e-06
1.37241e-06
1.3743e-06
1.37601e-06
1.37752e-06
1.37882e-06
1.37992e-06
1.3808e-06
1.38147e-06
1.38191e-06
1.38212e-06
1.38209e-06
1.38182e-06
1.38129e-06
1.38051e-06
1.37945e-06
1.37812e-06
1.3765e-06
1.37458e-06
1.37235e-06
1.36981e-06
1.36692e-06
1.36369e-06
1.3601e-06
1.35613e-06
1.35177e-06
1.34699e-06
1.34178e-06
1.33612e-06
1.32999e-06
1.32335e-06
1.31619e-06
1.30848e-06
1.30018e-06
1.29127e-06
1.2817e-06
1.27145e-06
1.26047e-06
1.24872e-06
1.23615e-06
1.22271e-06
1.20835e-06
1.193e-06
1.1766e-06
1.1591e-06
1.14041e-06
1.12046e-06
1.09917e-06
1.07645e-06
1.05222e-06
1.02638e-06
9.98833e-07
9.69491e-07
9.38255e-07
9.05035e-07
8.69746e-07
8.32315e-07
7.92682e-07
7.50796e-07
7.06552e-07
6.59938e-07
6.11051e-07
5.60097e-07
5.07417e-07
4.53514e-07
3.99078e-07
3.44985e-07
2.92273e-07
2.42077e-07
1.95524e-07
1.53598e-07
1.17024e-07
8.61781e-08
6.10724e-08
4.13951e-08
2.65948e-08
1.59761e-08
8.78402e-09
4.26777e-09
1.72169e-09
5.10065e-10
8.38126e-11
3.62284e-12
1.33029e-06
1.33439e-06
1.33835e-06
1.34216e-06
1.34581e-06
1.34931e-06
1.35265e-06
1.35583e-06
1.35885e-06
1.36171e-06
1.3644e-06
1.36691e-06
1.36925e-06
1.3714e-06
1.37337e-06
1.37514e-06
1.37672e-06
1.3781e-06
1.37927e-06
1.38022e-06
1.38096e-06
1.38148e-06
1.38176e-06
1.38181e-06
1.38162e-06
1.38117e-06
1.38047e-06
1.37949e-06
1.37824e-06
1.37671e-06
1.37488e-06
1.37274e-06
1.37028e-06
1.36748e-06
1.36435e-06
1.36085e-06
1.35698e-06
1.35271e-06
1.34804e-06
1.34293e-06
1.33738e-06
1.33135e-06
1.32483e-06
1.31778e-06
1.31018e-06
1.30201e-06
1.29322e-06
1.28379e-06
1.27367e-06
1.26283e-06
1.25122e-06
1.23879e-06
1.2255e-06
1.21129e-06
1.1961e-06
1.17987e-06
1.16253e-06
1.14402e-06
1.12424e-06
1.10313e-06
1.0806e-06
1.05655e-06
1.0309e-06
1.00354e-06
9.74384e-07
9.43332e-07
9.10289e-07
8.75168e-07
8.37894e-07
7.98401e-07
7.56636e-07
7.12501e-07
6.65966e-07
6.17114e-07
5.66138e-07
5.13364e-07
4.59285e-07
4.04577e-07
3.50113e-07
2.96936e-07
2.46192e-07
1.99035e-07
1.56484e-07
1.19302e-07
8.78986e-08
6.23113e-08
4.22412e-08
2.71384e-08
1.63002e-08
8.95951e-09
4.35082e-09
1.75372e-09
5.18782e-10
8.49845e-11
3.64939e-12
1.32847e-06
1.33264e-06
1.33665e-06
1.34052e-06
1.34423e-06
1.34779e-06
1.35119e-06
1.35444e-06
1.35752e-06
1.36044e-06
1.36319e-06
1.36577e-06
1.36817e-06
1.37039e-06
1.37242e-06
1.37426e-06
1.37591e-06
1.37735e-06
1.37859e-06
1.37962e-06
1.38043e-06
1.38102e-06
1.38138e-06
1.3815e-06
1.38138e-06
1.38101e-06
1.38038e-06
1.37949e-06
1.37832e-06
1.37686e-06
1.37511e-06
1.37306e-06
1.37068e-06
1.36798e-06
1.36493e-06
1.36152e-06
1.35774e-06
1.35357e-06
1.349e-06
1.34399e-06
1.33854e-06
1.33262e-06
1.3262e-06
1.31927e-06
1.31179e-06
1.30373e-06
1.29506e-06
1.28575e-06
1.27576e-06
1.26505e-06
1.25358e-06
1.24129e-06
1.22814e-06
1.21408e-06
1.19905e-06
1.18297e-06
1.1658e-06
1.14745e-06
1.12784e-06
1.10691e-06
1.08455e-06
1.06068e-06
1.03521e-06
1.00804e-06
9.79065e-07
9.48191e-07
9.15321e-07
8.80366e-07
8.43246e-07
8.03892e-07
7.62248e-07
7.18221e-07
6.71769e-07
6.22957e-07
5.71967e-07
5.19111e-07
4.64869e-07
4.09909e-07
3.55096e-07
3.01474e-07
2.50206e-07
2.02467e-07
1.5931e-07
1.21535e-07
8.95878e-08
6.35288e-08
4.30731e-08
2.7673e-08
1.6619e-08
9.13208e-09
4.43245e-09
1.78519e-09
5.27332e-10
8.61301e-11
3.67516e-12
1.32669e-06
1.33091e-06
1.33498e-06
1.33891e-06
1.34268e-06
1.34629e-06
1.34975e-06
1.35305e-06
1.35619e-06
1.35917e-06
1.36198e-06
1.36462e-06
1.36708e-06
1.36937e-06
1.37146e-06
1.37337e-06
1.37508e-06
1.37659e-06
1.3779e-06
1.37899e-06
1.37987e-06
1.38053e-06
1.38096e-06
1.38116e-06
1.38111e-06
1.38081e-06
1.38026e-06
1.37944e-06
1.37835e-06
1.37697e-06
1.3753e-06
1.37333e-06
1.37104e-06
1.36842e-06
1.36545e-06
1.36214e-06
1.35845e-06
1.35437e-06
1.34988e-06
1.34498e-06
1.33962e-06
1.3338e-06
1.32749e-06
1.32066e-06
1.31329e-06
1.30534e-06
1.29679e-06
1.2876e-06
1.27774e-06
1.26715e-06
1.25581e-06
1.24366e-06
1.23065e-06
1.21673e-06
1.20184e-06
1.18592e-06
1.1689e-06
1.15071e-06
1.13127e-06
1.1105e-06
1.08832e-06
1.06462e-06
1.03933e-06
1.01233e-06
9.83534e-07
9.52833e-07
9.20133e-07
8.85339e-07
8.48369e-07
8.09152e-07
7.67628e-07
7.2371e-07
6.77341e-07
6.28574e-07
5.77576e-07
5.24649e-07
4.70259e-07
4.15064e-07
3.59921e-07
3.05878e-07
2.54108e-07
2.05809e-07
1.62068e-07
1.23718e-07
9.12406e-08
6.47211e-08
4.38884e-08
2.8197e-08
1.69315e-08
9.30122e-09
4.51244e-09
1.81599e-09
5.3569e-10
8.7247e-11
3.70012e-12
1.32494e-06
1.32921e-06
1.33334e-06
1.33732e-06
1.34115e-06
1.34482e-06
1.34834e-06
1.35169e-06
1.35489e-06
1.35793e-06
1.36079e-06
1.36349e-06
1.36601e-06
1.36835e-06
1.37051e-06
1.37248e-06
1.37426e-06
1.37583e-06
1.3772e-06
1.37836e-06
1.37931e-06
1.38003e-06
1.38053e-06
1.38079e-06
1.38082e-06
1.38059e-06
1.38011e-06
1.37937e-06
1.37835e-06
1.37705e-06
1.37545e-06
1.37356e-06
1.37134e-06
1.3688e-06
1.36593e-06
1.36269e-06
1.35909e-06
1.3551e-06
1.3507e-06
1.34589e-06
1.34063e-06
1.3349e-06
1.32869e-06
1.32197e-06
1.3147e-06
1.30686e-06
1.29842e-06
1.28935e-06
1.2796e-06
1.26913e-06
1.25792e-06
1.24589e-06
1.23302e-06
1.21924e-06
1.20449e-06
1.18871e-06
1.17184e-06
1.15381e-06
1.13453e-06
1.11392e-06
1.0919e-06
1.06837e-06
1.04324e-06
1.01642e-06
9.87788e-07
9.57255e-07
9.24718e-07
8.90081e-07
8.53258e-07
8.14174e-07
7.72768e-07
7.28958e-07
6.82675e-07
6.33955e-07
5.82956e-07
5.29967e-07
4.75443e-07
4.20028e-07
3.64577e-07
3.10136e-07
2.57888e-07
2.09053e-07
1.64748e-07
1.25843e-07
9.28513e-08
6.5884e-08
4.46839e-08
2.87085e-08
1.72366e-08
9.46631e-09
4.59048e-09
1.84603e-09
5.43831e-10
8.83319e-11
3.72424e-12
1.32323e-06
1.32757e-06
1.33175e-06
1.33578e-06
1.33966e-06
1.34338e-06
1.34695e-06
1.35037e-06
1.35362e-06
1.35671e-06
1.35963e-06
1.36238e-06
1.36496e-06
1.36736e-06
1.36958e-06
1.3716e-06
1.37344e-06
1.37508e-06
1.37651e-06
1.37773e-06
1.37874e-06
1.37953e-06
1.38009e-06
1.38042e-06
1.38051e-06
1.38036e-06
1.37994e-06
1.37927e-06
1.37832e-06
1.37709e-06
1.37557e-06
1.37375e-06
1.37161e-06
1.36915e-06
1.36635e-06
1.3632e-06
1.35968e-06
1.35577e-06
1.35146e-06
1.34673e-06
1.34157e-06
1.33593e-06
1.32982e-06
1.32319e-06
1.31602e-06
1.30829e-06
1.29995e-06
1.29099e-06
1.28135e-06
1.271e-06
1.2599e-06
1.248e-06
1.23525e-06
1.2216e-06
1.20699e-06
1.19135e-06
1.17463e-06
1.15674e-06
1.1376e-06
1.11715e-06
1.09529e-06
1.07192e-06
1.04696e-06
1.02029e-06
9.91825e-07
9.61453e-07
9.29073e-07
8.94587e-07
8.57906e-07
8.18953e-07
7.77662e-07
7.33959e-07
6.87759e-07
6.3909e-07
5.88095e-07
5.35054e-07
4.80407e-07
4.2479e-07
3.6905e-07
3.14233e-07
2.61531e-07
2.12185e-07
1.67341e-07
1.27902e-07
9.44135e-08
6.70129e-08
4.54567e-08
2.92055e-08
1.7533e-08
9.6267e-09
4.66627e-09
1.87518e-09
5.51722e-10
8.93809e-11
3.74743e-12
1.32159e-06
1.32597e-06
1.3302e-06
1.33429e-06
1.33822e-06
1.34199e-06
1.34561e-06
1.34908e-06
1.35238e-06
1.35552e-06
1.3585e-06
1.3613e-06
1.36393e-06
1.36639e-06
1.36866e-06
1.37075e-06
1.37264e-06
1.37433e-06
1.37583e-06
1.37711e-06
1.37818e-06
1.37903e-06
1.37965e-06
1.38005e-06
1.3802e-06
1.38011e-06
1.37976e-06
1.37915e-06
1.37827e-06
1.37711e-06
1.37566e-06
1.37391e-06
1.37185e-06
1.36946e-06
1.36673e-06
1.36366e-06
1.36021e-06
1.35639e-06
1.35216e-06
1.34752e-06
1.34243e-06
1.33689e-06
1.33086e-06
1.32433e-06
1.31725e-06
1.30962e-06
1.30138e-06
1.29252e-06
1.28299e-06
1.27275e-06
1.26177e-06
1.24998e-06
1.23736e-06
1.22383e-06
1.20934e-06
1.19384e-06
1.17725e-06
1.15949e-06
1.14051e-06
1.1202e-06
1.09848e-06
1.07527e-06
1.05046e-06
1.02395e-06
9.9564e-07
9.65422e-07
9.33192e-07
8.98851e-07
8.62307e-07
8.2348e-07
7.82302e-07
7.38702e-07
6.92587e-07
6.43968e-07
5.92983e-07
5.39896e-07
4.85139e-07
4.29336e-07
3.73327e-07
3.18157e-07
2.65027e-07
2.15196e-07
1.69837e-07
1.29886e-07
9.59211e-08
6.81033e-08
4.62034e-08
2.96859e-08
1.78196e-08
9.78173e-09
4.7395e-09
1.90334e-09
5.59334e-10
9.03903e-11
3.76964e-12
1.32001e-06
1.32444e-06
1.32872e-06
1.33285e-06
1.33683e-06
1.34065e-06
1.34432e-06
1.34784e-06
1.35119e-06
1.35438e-06
1.3574e-06
1.36026e-06
1.36294e-06
1.36545e-06
1.36778e-06
1.36991e-06
1.37186e-06
1.37361e-06
1.37516e-06
1.3765e-06
1.37763e-06
1.37853e-06
1.37922e-06
1.37967e-06
1.37988e-06
1.37985e-06
1.37957e-06
1.37902e-06
1.3782e-06
1.37711e-06
1.37573e-06
1.37404e-06
1.37205e-06
1.36973e-06
1.36707e-06
1.36407e-06
1.3607e-06
1.35695e-06
1.3528e-06
1.34824e-06
1.34323e-06
1.33777e-06
1.33183e-06
1.32538e-06
1.3184e-06
1.31086e-06
1.30272e-06
1.29395e-06
1.28452e-06
1.27439e-06
1.26351e-06
1.25184e-06
1.23932e-06
1.22591e-06
1.21155e-06
1.19617e-06
1.1797e-06
1.16208e-06
1.14323e-06
1.12306e-06
1.10149e-06
1.07842e-06
1.05375e-06
1.02739e-06
9.99228e-07
9.69156e-07
9.37071e-07
9.02868e-07
8.66455e-07
8.27749e-07
7.8668e-07
7.43181e-07
6.97147e-07
6.48581e-07
5.97608e-07
5.44484e-07
4.89628e-07
4.33654e-07
3.77396e-07
3.21896e-07
2.68364e-07
2.18074e-07
1.72226e-07
1.31788e-07
9.73679e-08
6.91504e-08
4.69209e-08
3.01477e-08
1.8095e-08
9.93074e-09
4.80987e-09
1.93037e-09
5.66635e-10
9.13564e-11
3.79079e-12
1.3185e-06
1.32298e-06
1.3273e-06
1.33148e-06
1.3355e-06
1.33937e-06
1.34309e-06
1.34665e-06
1.35005e-06
1.35328e-06
1.35635e-06
1.35926e-06
1.36199e-06
1.36455e-06
1.36692e-06
1.36911e-06
1.37111e-06
1.37291e-06
1.37451e-06
1.3759e-06
1.37709e-06
1.37805e-06
1.37879e-06
1.3793e-06
1.37957e-06
1.37959e-06
1.37937e-06
1.37888e-06
1.37812e-06
1.37709e-06
1.37577e-06
1.37415e-06
1.37222e-06
1.36996e-06
1.36738e-06
1.36444e-06
1.36114e-06
1.35746e-06
1.35339e-06
1.34889e-06
1.34397e-06
1.33859e-06
1.33272e-06
1.32636e-06
1.31946e-06
1.312e-06
1.30395e-06
1.29528e-06
1.28594e-06
1.27591e-06
1.26513e-06
1.25356e-06
1.24115e-06
1.22785e-06
1.2136e-06
1.19834e-06
1.18199e-06
1.1645e-06
1.14577e-06
1.12573e-06
1.10429e-06
1.08136e-06
1.05683e-06
1.03061e-06
1.00258e-06
9.72651e-07
9.40702e-07
9.06631e-07
8.70343e-07
8.31752e-07
7.90787e-07
7.47385e-07
7.01432e-07
6.52918e-07
6.01961e-07
5.48805e-07
4.9386e-07
4.37731e-07
3.81242e-07
3.25437e-07
2.71528e-07
2.20807e-07
1.74499e-07
1.336e-07
9.87472e-08
7.01496e-08
4.76059e-08
3.05886e-08
1.83581e-08
1.0073e-08
4.87704e-09
1.95616e-09
5.73594e-10
9.2275e-11
3.81079e-12
1.31707e-06
1.32159e-06
1.32596e-06
1.33018e-06
1.33424e-06
1.33816e-06
1.34192e-06
1.34552e-06
1.34896e-06
1.35224e-06
1.35536e-06
1.35831e-06
1.36108e-06
1.36368e-06
1.36611e-06
1.36834e-06
1.37039e-06
1.37224e-06
1.37389e-06
1.37533e-06
1.37656e-06
1.37758e-06
1.37837e-06
1.37893e-06
1.37925e-06
1.37933e-06
1.37916e-06
1.37873e-06
1.37803e-06
1.37705e-06
1.37579e-06
1.37423e-06
1.37236e-06
1.37017e-06
1.36764e-06
1.36477e-06
1.36153e-06
1.35792e-06
1.35391e-06
1.34949e-06
1.34464e-06
1.33933e-06
1.33354e-06
1.32725e-06
1.32043e-06
1.31305e-06
1.30509e-06
1.2965e-06
1.28725e-06
1.2773e-06
1.26662e-06
1.25515e-06
1.24284e-06
1.22964e-06
1.21549e-06
1.20034e-06
1.18411e-06
1.16673e-06
1.14812e-06
1.1282e-06
1.10689e-06
1.08408e-06
1.05968e-06
1.03359e-06
1.0057e-06
9.75894e-07
9.44072e-07
9.10126e-07
8.73955e-07
8.35473e-07
7.94607e-07
7.51292e-07
7.05414e-07
6.56953e-07
6.06014e-07
5.52835e-07
4.97812e-07
4.41542e-07
3.84844e-07
3.28757e-07
2.745e-07
2.23379e-07
1.7664e-07
1.35309e-07
1.0005e-07
7.1094e-08
4.82537e-08
3.10057e-08
1.86069e-08
1.02076e-08
4.94054e-09
1.98053e-09
5.8016e-10
9.31394e-11
3.82947e-12
1.31573e-06
1.32028e-06
1.32469e-06
1.32895e-06
1.33306e-06
1.33701e-06
1.34081e-06
1.34446e-06
1.34794e-06
1.35126e-06
1.35442e-06
1.35741e-06
1.36022e-06
1.36287e-06
1.36533e-06
1.36761e-06
1.36971e-06
1.3716e-06
1.3733e-06
1.37479e-06
1.37607e-06
1.37713e-06
1.37797e-06
1.37858e-06
1.37895e-06
1.37908e-06
1.37896e-06
1.37858e-06
1.37793e-06
1.37701e-06
1.3758e-06
1.37429e-06
1.37247e-06
1.37034e-06
1.36787e-06
1.36506e-06
1.36188e-06
1.35833e-06
1.35439e-06
1.35003e-06
1.34524e-06
1.34e-06
1.33428e-06
1.32806e-06
1.32131e-06
1.31401e-06
1.30612e-06
1.29761e-06
1.28845e-06
1.27858e-06
1.26798e-06
1.2566e-06
1.24438e-06
1.23128e-06
1.21723e-06
1.20218e-06
1.18605e-06
1.16878e-06
1.15028e-06
1.13048e-06
1.10928e-06
1.08659e-06
1.06231e-06
1.03634e-06
1.00857e-06
9.78886e-07
9.47183e-07
9.13353e-07
8.77293e-07
8.38914e-07
7.98139e-07
7.54904e-07
7.09097e-07
6.60687e-07
6.09769e-07
5.5657e-07
5.0148e-07
4.45085e-07
3.88196e-07
3.31851e-07
2.77275e-07
2.25783e-07
1.78645e-07
1.36911e-07
1.01272e-07
7.19805e-08
4.88621e-08
3.13976e-08
1.88407e-08
1.0334e-08
5.00018e-09
2.00341e-09
5.86317e-10
9.39479e-11
3.84682e-12
1.31448e-06
1.31907e-06
1.32351e-06
1.32781e-06
1.33195e-06
1.33595e-06
1.33978e-06
1.34346e-06
1.34698e-06
1.35034e-06
1.35354e-06
1.35656e-06
1.35942e-06
1.36211e-06
1.36461e-06
1.36693e-06
1.36906e-06
1.371e-06
1.37274e-06
1.37427e-06
1.37559e-06
1.3767e-06
1.37758e-06
1.37824e-06
1.37865e-06
1.37883e-06
1.37876e-06
1.37842e-06
1.37783e-06
1.37695e-06
1.37579e-06
1.37433e-06
1.37257e-06
1.37049e-06
1.36807e-06
1.36531e-06
1.36219e-06
1.3587e-06
1.35481e-06
1.35051e-06
1.34578e-06
1.3406e-06
1.33495e-06
1.32879e-06
1.32211e-06
1.31488e-06
1.30706e-06
1.29863e-06
1.28953e-06
1.27975e-06
1.26923e-06
1.25793e-06
1.2458e-06
1.23278e-06
1.21882e-06
1.20386e-06
1.18783e-06
1.17066e-06
1.15226e-06
1.13256e-06
1.11147e-06
1.08889e-06
1.06472e-06
1.03886e-06
1.0112e-06
9.81632e-07
9.50041e-07
9.16318e-07
8.80361e-07
8.42077e-07
8.01389e-07
7.58229e-07
7.12488e-07
6.64127e-07
6.13231e-07
5.60018e-07
5.04868e-07
4.4836e-07
3.91299e-07
3.3472e-07
2.79849e-07
2.28017e-07
1.8051e-07
1.38403e-07
1.02411e-07
7.28074e-08
4.94298e-08
3.17633e-08
1.90589e-08
1.0452e-08
5.05583e-09
2.02474e-09
5.92054e-10
9.46999e-11
3.86289e-12
1.31332e-06
1.31795e-06
1.32243e-06
1.32676e-06
1.33093e-06
1.33496e-06
1.33883e-06
1.34254e-06
1.3461e-06
1.34949e-06
1.35272e-06
1.35578e-06
1.35868e-06
1.3614e-06
1.36394e-06
1.3663e-06
1.36847e-06
1.37044e-06
1.37222e-06
1.37379e-06
1.37515e-06
1.3763e-06
1.37722e-06
1.37792e-06
1.37838e-06
1.37859e-06
1.37856e-06
1.37827e-06
1.37772e-06
1.37689e-06
1.37577e-06
1.37436e-06
1.37265e-06
1.37061e-06
1.36825e-06
1.36554e-06
1.36247e-06
1.35902e-06
1.35519e-06
1.35094e-06
1.34627e-06
1.34115e-06
1.33555e-06
1.32945e-06
1.32284e-06
1.31567e-06
1.30791e-06
1.29954e-06
1.29052e-06
1.28081e-06
1.27036e-06
1.25913e-06
1.24708e-06
1.23414e-06
1.22027e-06
1.20539e-06
1.18945e-06
1.17236e-06
1.15406e-06
1.13445e-06
1.11346e-06
1.09098e-06
1.06691e-06
1.04116e-06
1.0136e-06
9.84134e-07
9.52644e-07
9.1902e-07
8.83158e-07
8.44962e-07
8.04354e-07
7.61263e-07
7.15585e-07
6.67271e-07
6.16397e-07
5.63172e-07
5.07971e-07
4.51362e-07
3.94146e-07
3.37354e-07
2.82217e-07
2.30074e-07
1.82229e-07
1.39779e-07
1.03463e-07
7.35713e-08
4.99545e-08
3.21014e-08
1.92606e-08
1.05611e-08
5.10727e-09
2.04445e-09
5.9735e-10
9.5393e-11
3.87765e-12
1.31227e-06
1.31692e-06
1.32143e-06
1.32579e-06
1.33e-06
1.33406e-06
1.33796e-06
1.34171e-06
1.34529e-06
1.34872e-06
1.35198e-06
1.35507e-06
1.358e-06
1.36075e-06
1.36332e-06
1.36571e-06
1.36792e-06
1.36993e-06
1.37174e-06
1.37335e-06
1.37474e-06
1.37593e-06
1.37689e-06
1.37762e-06
1.37812e-06
1.37837e-06
1.37838e-06
1.37813e-06
1.37762e-06
1.37683e-06
1.37575e-06
1.37438e-06
1.37271e-06
1.37072e-06
1.3684e-06
1.36573e-06
1.36271e-06
1.35931e-06
1.35552e-06
1.35133e-06
1.3467e-06
1.34163e-06
1.33609e-06
1.33005e-06
1.32348e-06
1.31637e-06
1.30867e-06
1.30036e-06
1.2914e-06
1.28175e-06
1.27137e-06
1.26021e-06
1.24823e-06
1.23537e-06
1.22157e-06
1.20677e-06
1.1909e-06
1.1739e-06
1.15568e-06
1.13616e-06
1.11525e-06
1.09286e-06
1.06889e-06
1.04322e-06
1.01576e-06
9.86389e-07
9.54991e-07
9.21457e-07
8.85681e-07
8.47567e-07
8.07031e-07
7.64005e-07
7.18384e-07
6.70114e-07
6.1926e-07
5.66028e-07
5.10781e-07
4.54084e-07
3.9673e-07
3.39747e-07
2.8437e-07
2.31946e-07
1.83795e-07
1.41035e-07
1.04423e-07
7.42691e-08
5.04339e-08
3.24103e-08
1.9445e-08
1.06607e-08
5.15427e-09
2.06245e-09
6.02185e-10
9.60248e-11
3.89107e-12
1.31132e-06
1.316e-06
1.32054e-06
1.32493e-06
1.32916e-06
1.33325e-06
1.33718e-06
1.34095e-06
1.34456e-06
1.34802e-06
1.35131e-06
1.35443e-06
1.35738e-06
1.36016e-06
1.36277e-06
1.36519e-06
1.36742e-06
1.36946e-06
1.37131e-06
1.37294e-06
1.37437e-06
1.37559e-06
1.37658e-06
1.37735e-06
1.37788e-06
1.37817e-06
1.37821e-06
1.378e-06
1.37752e-06
1.37676e-06
1.37573e-06
1.3744e-06
1.37276e-06
1.37081e-06
1.36852e-06
1.3659e-06
1.36292e-06
1.35956e-06
1.35582e-06
1.35166e-06
1.34708e-06
1.34206e-06
1.33656e-06
1.33057e-06
1.32405e-06
1.31699e-06
1.30935e-06
1.30109e-06
1.29219e-06
1.28259e-06
1.27227e-06
1.26117e-06
1.24925e-06
1.23645e-06
1.22272e-06
1.20799e-06
1.19219e-06
1.17526e-06
1.15712e-06
1.13768e-06
1.11685e-06
1.09454e-06
1.07064e-06
1.04506e-06
1.01769e-06
9.88396e-07
9.57082e-07
9.23629e-07
8.8793e-07
8.49888e-07
8.09418e-07
7.6645e-07
7.20882e-07
6.72651e-07
6.21817e-07
5.68579e-07
5.13294e-07
4.56519e-07
3.99043e-07
3.41892e-07
2.86301e-07
2.33627e-07
1.85203e-07
1.42164e-07
1.05287e-07
7.48974e-08
5.08658e-08
3.26887e-08
1.96112e-08
1.07506e-08
5.19661e-09
2.07866e-09
6.06536e-10
9.65927e-11
3.9031e-12
1.31048e-06
1.31519e-06
1.31975e-06
1.32416e-06
1.32842e-06
1.33253e-06
1.33649e-06
1.34028e-06
1.34392e-06
1.3474e-06
1.35071e-06
1.35386e-06
1.35684e-06
1.35965e-06
1.36228e-06
1.36472e-06
1.36698e-06
1.36905e-06
1.37092e-06
1.37259e-06
1.37405e-06
1.37529e-06
1.37631e-06
1.37711e-06
1.37767e-06
1.37799e-06
1.37806e-06
1.37788e-06
1.37743e-06
1.37671e-06
1.3757e-06
1.3744e-06
1.3728e-06
1.37088e-06
1.36863e-06
1.36604e-06
1.3631e-06
1.35978e-06
1.35607e-06
1.35196e-06
1.34741e-06
1.34243e-06
1.33697e-06
1.33102e-06
1.32455e-06
1.31753e-06
1.30993e-06
1.30173e-06
1.29287e-06
1.28333e-06
1.27305e-06
1.26201e-06
1.25014e-06
1.2374e-06
1.22372e-06
1.20905e-06
1.19332e-06
1.17645e-06
1.15838e-06
1.139e-06
1.11824e-06
1.096e-06
1.07218e-06
1.04668e-06
1.01937e-06
9.90155e-07
9.58913e-07
9.25532e-07
8.89901e-07
8.51924e-07
8.11512e-07
7.68595e-07
7.23074e-07
6.74879e-07
6.24064e-07
5.70822e-07
5.15504e-07
4.58663e-07
4.01081e-07
3.43783e-07
2.88005e-07
2.35112e-07
1.86447e-07
1.43162e-07
1.06052e-07
7.54537e-08
5.12482e-08
3.29353e-08
1.97583e-08
1.08301e-08
5.2341e-09
2.09302e-09
6.10386e-10
9.70946e-11
3.91371e-12
1.30976e-06
1.31448e-06
1.31907e-06
1.3235e-06
1.32778e-06
1.33191e-06
1.33589e-06
1.3397e-06
1.34336e-06
1.34686e-06
1.3502e-06
1.35337e-06
1.35637e-06
1.3592e-06
1.36185e-06
1.36432e-06
1.3666e-06
1.36869e-06
1.37059e-06
1.37228e-06
1.37376e-06
1.37503e-06
1.37607e-06
1.37689e-06
1.37748e-06
1.37783e-06
1.37793e-06
1.37777e-06
1.37735e-06
1.37665e-06
1.37567e-06
1.3744e-06
1.37283e-06
1.37094e-06
1.36872e-06
1.36616e-06
1.36325e-06
1.35996e-06
1.35628e-06
1.3522e-06
1.3477e-06
1.34274e-06
1.33732e-06
1.33141e-06
1.32497e-06
1.31799e-06
1.31044e-06
1.30227e-06
1.29345e-06
1.28395e-06
1.27373e-06
1.26273e-06
1.25091e-06
1.23821e-06
1.22459e-06
1.20997e-06
1.19429e-06
1.17748e-06
1.15945e-06
1.14014e-06
1.11944e-06
1.09726e-06
1.0735e-06
1.04806e-06
1.02082e-06
9.91665e-07
9.60486e-07
9.27165e-07
8.91594e-07
8.53672e-07
8.13311e-07
7.70438e-07
7.24958e-07
6.76794e-07
6.25996e-07
5.72751e-07
5.17406e-07
4.60509e-07
4.02837e-07
3.45413e-07
2.89476e-07
2.36394e-07
1.87522e-07
1.44026e-07
1.06713e-07
7.59352e-08
5.15794e-08
3.31488e-08
1.98858e-08
1.0899e-08
5.26657e-09
2.10544e-09
6.13718e-10
9.75285e-11
3.92286e-12
1.30915e-06
1.31389e-06
1.31849e-06
1.32294e-06
1.32724e-06
1.33139e-06
1.33538e-06
1.33922e-06
1.3429e-06
1.34641e-06
1.34977e-06
1.35295e-06
1.35597e-06
1.35882e-06
1.36149e-06
1.36398e-06
1.36628e-06
1.36839e-06
1.3703e-06
1.37202e-06
1.37352e-06
1.37481e-06
1.37587e-06
1.37672e-06
1.37732e-06
1.37769e-06
1.37781e-06
1.37768e-06
1.37728e-06
1.37661e-06
1.37565e-06
1.3744e-06
1.37285e-06
1.37099e-06
1.36879e-06
1.36626e-06
1.36337e-06
1.36011e-06
1.35646e-06
1.35241e-06
1.34793e-06
1.343e-06
1.33761e-06
1.33173e-06
1.32533e-06
1.31838e-06
1.31085e-06
1.30272e-06
1.29394e-06
1.28447e-06
1.27428e-06
1.26332e-06
1.25154e-06
1.23889e-06
1.22531e-06
1.21073e-06
1.19509e-06
1.17833e-06
1.16035e-06
1.14109e-06
1.12044e-06
1.09831e-06
1.0746e-06
1.04921e-06
1.02202e-06
9.92924e-07
9.61797e-07
9.28528e-07
8.93007e-07
8.55131e-07
8.14813e-07
7.71978e-07
7.26531e-07
6.78394e-07
6.27611e-07
5.74364e-07
5.18998e-07
4.62053e-07
4.04307e-07
3.46779e-07
2.90709e-07
2.37469e-07
1.88425e-07
1.44751e-07
1.07269e-07
7.63399e-08
5.18578e-08
3.33284e-08
1.99929e-08
1.09569e-08
5.29386e-09
2.11589e-09
6.16517e-10
9.78928e-11
3.93053e-12
1.30866e-06
1.31342e-06
1.31803e-06
1.3225e-06
1.32681e-06
1.33097e-06
1.33498e-06
1.33883e-06
1.34252e-06
1.34605e-06
1.34942e-06
1.35262e-06
1.35565e-06
1.35851e-06
1.3612e-06
1.3637e-06
1.36602e-06
1.36815e-06
1.37008e-06
1.3718e-06
1.37332e-06
1.37463e-06
1.37571e-06
1.37657e-06
1.3772e-06
1.37758e-06
1.37772e-06
1.3776e-06
1.37722e-06
1.37657e-06
1.37563e-06
1.3744e-06
1.37287e-06
1.37102e-06
1.36885e-06
1.36634e-06
1.36347e-06
1.36023e-06
1.3566e-06
1.35257e-06
1.34811e-06
1.34321e-06
1.33784e-06
1.33198e-06
1.32561e-06
1.31868e-06
1.31119e-06
1.30308e-06
1.29433e-06
1.28489e-06
1.27473e-06
1.2638e-06
1.25205e-06
1.23943e-06
1.22588e-06
1.21134e-06
1.19574e-06
1.17901e-06
1.16107e-06
1.14184e-06
1.12123e-06
1.09915e-06
1.07548e-06
1.05013e-06
1.02299e-06
9.93931e-07
9.62847e-07
9.2962e-07
8.94138e-07
8.563e-07
8.16016e-07
7.73211e-07
7.27793e-07
6.79677e-07
6.28906e-07
5.75658e-07
5.20274e-07
4.63293e-07
4.05488e-07
3.47877e-07
2.917e-07
2.38334e-07
1.89151e-07
1.45335e-07
1.07717e-07
7.6666e-08
5.20821e-08
3.3473e-08
2.00793e-08
1.10036e-08
5.31586e-09
2.1243e-09
6.18771e-10
9.81859e-11
3.9367e-12
1.30829e-06
1.31306e-06
1.31768e-06
1.32216e-06
1.32648e-06
1.33065e-06
1.33467e-06
1.33853e-06
1.34224e-06
1.34578e-06
1.34916e-06
1.35237e-06
1.35541e-06
1.35828e-06
1.36098e-06
1.3635e-06
1.36583e-06
1.36796e-06
1.36991e-06
1.37164e-06
1.37318e-06
1.37449e-06
1.37559e-06
1.37646e-06
1.3771e-06
1.3775e-06
1.37765e-06
1.37754e-06
1.37718e-06
1.37654e-06
1.37561e-06
1.3744e-06
1.37288e-06
1.37105e-06
1.36889e-06
1.36639e-06
1.36354e-06
1.36032e-06
1.35671e-06
1.35269e-06
1.34825e-06
1.34337e-06
1.33802e-06
1.33218e-06
1.32582e-06
1.31891e-06
1.31144e-06
1.30335e-06
1.29462e-06
1.2852e-06
1.27506e-06
1.26416e-06
1.25243e-06
1.23983e-06
1.22631e-06
1.21179e-06
1.19622e-06
1.17952e-06
1.16161e-06
1.14241e-06
1.12183e-06
1.09978e-06
1.07614e-06
1.05083e-06
1.02371e-06
9.94688e-07
9.63635e-07
9.30439e-07
8.94988e-07
8.57177e-07
8.1692e-07
7.74138e-07
7.2874e-07
6.80641e-07
6.29879e-07
5.76631e-07
5.21234e-07
4.64226e-07
4.06376e-07
3.48703e-07
2.92446e-07
2.38986e-07
1.89698e-07
1.45775e-07
1.08054e-07
7.69118e-08
5.22513e-08
3.35822e-08
2.01444e-08
1.10388e-08
5.33244e-09
2.13065e-09
6.20471e-10
9.84068e-11
3.94134e-12
1.30804e-06
1.31282e-06
1.31745e-06
1.32193e-06
1.32626e-06
1.33044e-06
1.33447e-06
1.33834e-06
1.34205e-06
1.34559e-06
1.34898e-06
1.3522e-06
1.35525e-06
1.35813e-06
1.36084e-06
1.36336e-06
1.3657e-06
1.36784e-06
1.36979e-06
1.37154e-06
1.37308e-06
1.3744e-06
1.37551e-06
1.37639e-06
1.37703e-06
1.37744e-06
1.3776e-06
1.3775e-06
1.37715e-06
1.37652e-06
1.3756e-06
1.3744e-06
1.37289e-06
1.37107e-06
1.36892e-06
1.36643e-06
1.36359e-06
1.36038e-06
1.35678e-06
1.35277e-06
1.34834e-06
1.34347e-06
1.33813e-06
1.3323e-06
1.32596e-06
1.31907e-06
1.3116e-06
1.30353e-06
1.29481e-06
1.28541e-06
1.27529e-06
1.26439e-06
1.25268e-06
1.2401e-06
1.2266e-06
1.2121e-06
1.19654e-06
1.17986e-06
1.16197e-06
1.14279e-06
1.12223e-06
1.1002e-06
1.07658e-06
1.05129e-06
1.0242e-06
9.95192e-07
9.64161e-07
9.30986e-07
8.95554e-07
8.57763e-07
8.17522e-07
7.74756e-07
7.29372e-07
6.81284e-07
6.30528e-07
5.7728e-07
5.21875e-07
4.64849e-07
4.06969e-07
3.49254e-07
2.92945e-07
2.39421e-07
1.90064e-07
1.4607e-07
1.0828e-07
7.70763e-08
5.23645e-08
3.36552e-08
2.0188e-08
1.10624e-08
5.34355e-09
2.13489e-09
6.21608e-10
9.85545e-11
3.94444e-12
1.30792e-06
1.3127e-06
1.31733e-06
1.32182e-06
1.32615e-06
1.33034e-06
1.33437e-06
1.33824e-06
1.34195e-06
1.3455e-06
1.34889e-06
1.35212e-06
1.35517e-06
1.35805e-06
1.36076e-06
1.36329e-06
1.36563e-06
1.36778e-06
1.36973e-06
1.37148e-06
1.37303e-06
1.37436e-06
1.37547e-06
1.37635e-06
1.377e-06
1.37741e-06
1.37758e-06
1.37749e-06
1.37713e-06
1.37651e-06
1.3756e-06
1.3744e-06
1.37289e-06
1.37108e-06
1.36893e-06
1.36645e-06
1.36361e-06
1.3604e-06
1.35681e-06
1.35281e-06
1.34839e-06
1.34352e-06
1.33819e-06
1.33237e-06
1.32603e-06
1.31914e-06
1.31168e-06
1.30362e-06
1.29491e-06
1.28551e-06
1.2754e-06
1.26451e-06
1.25281e-06
1.24024e-06
1.22674e-06
1.21225e-06
1.19671e-06
1.18003e-06
1.16215e-06
1.14298e-06
1.12243e-06
1.10041e-06
1.0768e-06
1.05152e-06
1.02444e-06
9.95444e-07