/*--------------------------------*- C++ -*----------------------------------*\
  =========                 |
  \\      /  F ield         | OpenFOAM: The Open Source CFD Toolbox
   \\    /   O peration     | Website:  https://openfoam.org
    \\  /    A nd           | Version:  7
     \\/     M anipulation  |
\*---------------------------------------------------------------------------*/
FoamFile
{
    version     2.0;
    format      ascii;
    class       surfaceScalarField;
    location    "160000";
    object      phi;
}
// * * * * * * * * * * * * * * * * * * * * * * * * * * * * * * * * * * * * * //

dimensions      [0 3 -1 0 0 0 0];

internalField   nonuniform List<scalar> 
9414
(
3.96811e-23
9.57325e-24
5.3609e-23
9.46281e-24
4.41605e-23
9.4349e-24
3.63113e-23
9.78607e-24
-4.76754e-23
9.77422e-24
-1.04801e-23
9.97634e-24
-7.19569e-24
1.00037e-23
-4.21436e-24
9.74449e-24
1.39955e-23
9.58338e-24
9.80589e-24
-4.77195e-23
1.68285e-23
-5.49514e-23
1.58489e-23
-4.62311e-23
1.3257e-23
-3.4342e-23
1.22526e-23
-5.34371e-23
1.20531e-23
-1.38244e-22
1.07313e-23
-2.01416e-22
1.30044e-23
-1.00337e-22
1.50047e-23
-4.02999e-23
1.50291e-23
-2.38307e-24
1.53555e-23
1.68127e-23
1.54893e-23
1.74712e-23
1.57346e-23
-2.75846e-23
1.58023e-23
2.6199e-23
1.53169e-23
7.16246e-23
1.59505e-23
6.59976e-23
1.58446e-23
5.66252e-23
1.63575e-23
4.4692e-23
1.72842e-23
7.28124e-23
1.60204e-23
1.43146e-22
1.61899e-23
1.13259e-22
1.51753e-23
1.04959e-22
1.39358e-23
-1.47993e-24
1.30274e-23
-8.27893e-24
1.31049e-23
-1.70951e-23
1.34482e-23
2.42032e-23
1.38848e-23
7.44094e-23
1.3331e-23
7.90033e-23
1.28059e-23
8.37387e-23
1.27069e-23
1.22345e-22
1.30161e-23
1.68399e-22
1.28243e-23
1.73892e-22
1.22948e-23
1.3855e-22
1.19087e-23
1.04978e-22
1.11975e-23
1.10608e-22
1.07512e-23
1.23813e-22
1.09273e-23
1.2313e-22
1.06663e-23
1.17829e-22
1.05622e-23
1.11212e-22
1.05963e-23
1.06812e-22
1.03527e-23
1.18958e-22
9.40324e-24
1.31553e-22
9.56986e-24
1.35038e-22
8.87862e-24
1.15018e-22
8.13968e-24
3.33504e-23
7.62264e-24
2.43097e-23
7.57723e-24
2.75169e-23
7.70109e-24
1.04022e-22
7.22745e-24
8.28734e-23
6.73908e-24
3.33121e-23
6.48872e-24
-6.3251e-24
6.29059e-24
-1.48775e-23
6.66276e-24
-1.9953e-23
6.58241e-24
3.84519e-23
6.31348e-24
6.1073e-24
-8.19838e-23
1.12069e-23
-1.46401e-22
8.99233e-24
-1.04605e-22
1.02453e-23
-8.24828e-23
9.71393e-24
-7.25538e-23
9.33964e-24
-1.00285e-22
9.90464e-24
-7.81561e-23
9.48813e-24
-7.15135e-23
9.34671e-24
-6.51808e-23
1.20509e-23
-9.09176e-23
1.13702e-23
-8.36152e-23
1.19175e-23
-8.7442e-23
1.17562e-23
-8.45336e-23
1.09556e-23
-4.35753e-23
1.08804e-23
-4.06579e-23
1.19986e-23
-4.31013e-23
1.19896e-23
-8.58034e-23
1.2064e-23
-1.6189e-22
1.20424e-23
-1.4198e-22
1.25459e-23
-1.38475e-22
1.18638e-23
-1.73361e-22
1.22177e-23
-1.54835e-22
1.20239e-23
-1.56841e-22
1.27853e-23
-1.56409e-22
1.33032e-23
-1.14102e-22
1.39618e-23
-1.1003e-22
1.38873e-23
-1.03611e-22
1.43543e-23
-1.23123e-23
1.49794e-23
-8.78204e-24
1.47409e-23
-5.79518e-24
1.48692e-23
-1.3493e-23
1.57852e-23
-1.01445e-23
1.56306e-23
-4.04888e-23
1.57892e-23
3.33632e-23
1.57572e-23
3.24845e-23
1.56073e-23
9.09231e-23
1.57336e-23
8.58616e-23
1.53312e-23
3.98842e-23
1.5034e-23
2.75487e-23
1.44837e-23
1.35346e-23
1.37862e-23
7.62097e-26
1.36029e-23
-1.29854e-23
1.33177e-23
-1.00775e-23
1.2642e-23
1.70358e-23
1.25878e-23
7.50985e-23
1.26714e-23
5.55928e-23
1.28106e-23
3.66605e-23
1.27497e-23
4.43555e-23
1.24773e-23
6.36647e-23
1.25295e-23
5.60347e-23
1.18056e-23
6.00884e-23
1.15258e-23
1.96034e-23
1.13223e-23
8.2468e-24
1.12889e-23
9.32562e-24
1.13718e-23
1.10683e-23
-2.75454e-22
1.2844e-23
-2.3469e-22
1.54231e-23
-2.29315e-22
1.5023e-23
-1.44804e-22
1.40865e-23
-5.70925e-23
1.34162e-23
-2.34309e-23
1.24439e-23
1.2733e-23
1.30892e-23
2.06206e-23
1.32341e-23
-6.21604e-23
1.29575e-23
-6.43225e-23
1.43142e-23
-7.48112e-23
1.45545e-23
-8.27087e-23
1.60355e-23
-1.35771e-23
1.66056e-23
9.90433e-23
1.75895e-23
4.8998e-23
1.70768e-23
4.30689e-23
1.59312e-23
3.45674e-23
1.63879e-23
2.68894e-23
1.74391e-23
1.6003e-23
1.71584e-23
7.01046e-23
1.88144e-23
5.64538e-23
1.8423e-23
8.14912e-23
1.91525e-23
6.3412e-23
1.80177e-23
2.78979e-23
1.79102e-23
2.20526e-24
1.92059e-23
8.22934e-24
1.92413e-23
4.24523e-23
1.90571e-23
2.68962e-23
1.87974e-23
7.17546e-23
1.8818e-23
8.81735e-23
1.82165e-23
5.96833e-24
1.79239e-23
7.2834e-23
1.75321e-23
3.59247e-23
1.72667e-23
7.71095e-23
1.73608e-23
8.01597e-23
1.6803e-23
8.15443e-23
1.61237e-23
3.21571e-23
1.60138e-23
1.97869e-23
1.61355e-23
3.12048e-23
1.56978e-23
3.58245e-23
1.55405e-23
3.67693e-23
1.58222e-23
4.51015e-23
1.55126e-23
3.59608e-23
1.56031e-23
6.49853e-23
1.58424e-23
1.02187e-22
1.58822e-23
1.10811e-22
1.56913e-23
1.08637e-22
1.59692e-23
7.84611e-23
1.55281e-23
7.04602e-23
1.51806e-23
5.35496e-23
1.53855e-23
1.00513e-22
1.54759e-23
8.71105e-23
1.52615e-23
9.11452e-23
1.50838e-23
9.57178e-23
1.49507e-23
1.49933e-23
-1.41291e-22
1.72944e-23
-1.42878e-22
1.68488e-23
-1.81543e-22
1.8274e-23
-1.44944e-22
2.01319e-23
-8.72011e-23
2.11362e-23
3.5512e-23
2.12971e-23
1.07951e-22
1.92727e-23
2.91571e-23
1.6612e-23
1.05453e-23
1.56168e-23
1.95328e-23
1.39526e-23
6.10945e-23
1.48984e-23
7.53671e-23
1.55127e-23
6.68413e-23
1.48526e-23
7.60229e-23
1.3055e-23
1.83922e-23
1.20869e-23
3.65237e-23
1.23268e-23
-4.28184e-23
1.25546e-23
-3.98551e-23
1.17635e-23
-3.23956e-23
1.23348e-23
-6.35217e-23
1.18141e-23
-1.21116e-22
1.20106e-23
-1.51338e-22
1.19282e-23
-1.38758e-22
1.29204e-23
-6.92149e-23
1.27132e-23
-9.56393e-23
1.18942e-23
-8.74171e-23
1.16896e-23
-4.34108e-23
1.25296e-23
-3.85899e-23
1.16082e-23
1.86294e-23
1.08349e-23
-5.20174e-23
1.07371e-23
-1.10402e-22
1.08079e-23
-8.9458e-23
1.10683e-23
-4.63637e-23
1.13192e-23
-1.15326e-22
1.04682e-23
-1.12043e-22
1.12254e-23
-4.20259e-23
1.20346e-23
-4.95162e-23
1.17945e-23
-1.61021e-22
1.15405e-23
-1.91094e-22
1.18315e-23
-1.78065e-22
1.211e-23
-1.41401e-22
1.24942e-23
-7.36884e-23
1.26923e-23
-4.4721e-23
1.27124e-23
-2.58616e-23
1.26342e-23
-1.0707e-23
1.22048e-23
-3.47467e-23
1.20481e-23
-8.65915e-23
1.15473e-23
-1.18401e-22
1.16446e-23
-7.78492e-23
1.20914e-23
-6.20112e-23
1.16838e-23
-5.6082e-23
1.13317e-23
-4.69847e-23
1.11425e-23
-3.55727e-23
1.084e-23
-4.09427e-23
1.05039e-23
9.93957e-24
-1.44565e-22
1.32504e-23
-1.43232e-22
1.50258e-23
-1.43996e-22
1.49735e-23
-1.45486e-22
1.58305e-23
-1.42963e-22
1.69191e-23
-1.83075e-22
1.74566e-23
-1.75457e-22
1.83888e-23
-1.99472e-22
1.8952e-23
-1.54039e-22
1.82194e-23
-5.59223e-23
2.01903e-23
-7.44729e-23
2.04377e-23
-1.03601e-22
1.93502e-23
-9.87516e-23
2.04179e-23
-8.1574e-23
2.1036e-23
-5.38653e-24
1.97037e-23
-2.41612e-23
1.84346e-23
1.30779e-23
1.62335e-23
1.25161e-23
1.6302e-23
1.11003e-23
1.63024e-23
8.82734e-23
1.65108e-23
1.24238e-23
1.60679e-23
5.36533e-23
1.52242e-23
6.35402e-23
1.4767e-23
1.39994e-23
1.49905e-23
6.80206e-23
1.44172e-23
3.7938e-23
1.42063e-23
-5.03652e-23
1.29912e-23
-4.12122e-23
1.34145e-23
-1.71271e-23
1.36832e-23
2.55431e-23
1.34211e-23
2.98357e-23
1.29624e-23
4.5178e-23
1.32188e-23
2.89606e-23
1.32977e-23
9.62354e-23
1.42991e-23
9.36604e-23
1.38304e-23
7.84773e-23
1.32863e-23
5.17224e-23
1.30408e-23
7.83106e-23
1.28781e-23
1.13543e-22
1.30807e-23
9.46677e-23
1.3095e-23
8.90228e-23
1.23296e-23
9.57727e-23
1.2427e-23
9.64099e-23
1.19084e-23
5.63997e-23
1.14357e-23
5.25132e-23
1.0925e-23
3.19976e-23
1.01906e-23
6.93566e-23
1.01307e-23
6.1627e-23
9.93384e-24
6.21638e-23
9.19069e-24
6.36463e-23
9.25513e-24
6.49701e-23
9.1247e-24
6.8899e-23
8.72191e-24
4.34057e-23
8.4071e-24
2.62178e-23
8.13469e-24
8.09452e-24
-1.60917e-23
2.33214e-23
1.17215e-23
2.17028e-23
7.82995e-23
2.09149e-23
3.04512e-23
2.0089e-23
2.02329e-23
1.82677e-23
1.68084e-23
1.75131e-23
-2.00635e-23
1.69498e-23
-1.20195e-23
1.77935e-23
5.94864e-23
1.80693e-23
1.00842e-22
1.693e-23
3.61363e-23
1.68781e-23
5.0412e-23
1.70146e-23
-1.79129e-23
1.62968e-23
-1.56574e-22
1.60528e-23
-1.56645e-22
1.73197e-23
-1.57867e-22
1.79857e-23
-9.80879e-23
1.87475e-23
-1.0312e-22
1.81728e-23
-1.07381e-22
1.80376e-23
-1.73298e-22
1.7186e-23
-1.73355e-22
1.77392e-23
-1.70992e-22
1.782e-23
-1.65844e-22
1.80938e-23
-1.60828e-22
1.81668e-23
-1.41597e-22
1.79613e-23
-1.17094e-22
1.86227e-23
-1.45202e-22
1.93136e-23
-6.40627e-23
1.97671e-23
-9.3877e-23
1.89055e-23
-1.6792e-23
1.85551e-23
5.90876e-23
1.79312e-23
6.10889e-23
1.75789e-23
5.86539e-23
1.6785e-23
-1.62701e-23
1.59306e-23
-2.64788e-23
1.61985e-23
-4.66215e-23
1.54294e-23
-1.97829e-23
1.45062e-23
4.0206e-24
1.35897e-23
-7.16257e-24
1.31146e-23
-1.9611e-23
1.27368e-23
-2.66145e-23
1.23563e-23
-6.46781e-23
1.15498e-23
-4.22318e-23
1.19385e-23
-6.08046e-23
1.12032e-23
-8.29298e-23
1.11409e-23
-3.02776e-23
1.12465e-23
-8.63031e-23
1.05458e-23
-5.85414e-23
1.05711e-23
-2.72686e-23
1.047e-23
-5.84354e-24
1.00641e-23
-4.61228e-23
9.60522e-24
-3.31058e-23
9.4246e-24
-2.75459e-23
9.15019e-24
-1.61263e-23
8.99403e-24
-3.63051e-23
8.99195e-24
-1.90039e-23
8.92073e-24
1.88858e-24
9.02912e-24
2.44885e-25
9.03721e-24
9.03104e-24
-2.71507e-22
1.39956e-23
-2.29917e-22
1.40954e-23
-1.96725e-22
1.4494e-23
-1.90075e-22
1.42428e-23
-1.83134e-22
1.50226e-23
-1.42618e-22
1.53686e-23
-1.09464e-22
1.54965e-23
-1.34801e-22
1.52754e-23
-1.22245e-22
1.44269e-23
-8.95128e-23
1.49683e-23
-8.52886e-23
1.40148e-23
-8.70639e-23
1.37508e-23
-8.93254e-23
1.45195e-23
-9.25093e-23
1.42075e-23
-8.65958e-23
1.29243e-23
-7.98731e-23
1.39716e-23
-8.23913e-23
1.42051e-23
-3.39438e-23
1.42534e-23
-2.28678e-23
1.4782e-23
-1.39183e-23
1.46918e-23
3.65696e-23
1.39305e-23
-1.78114e-23
1.37674e-23
-5.46376e-24
1.34301e-23
4.07322e-24
1.38602e-23
1.41489e-23
1.36288e-23
6.43085e-23
1.36317e-23
1.62097e-23
1.35843e-23
-7.83043e-23
1.22109e-23
-7.05261e-23
1.26986e-23
-7.40351e-23
1.29429e-23
-2.81997e-23
1.28866e-23
-1.93687e-23
1.24107e-23
6.83467e-24
1.14833e-23
-7.03155e-24
1.14037e-23
-3.99252e-23
1.04287e-23
-1.26268e-22
9.59904e-24
-1.22106e-22
9.63352e-24
-4.81419e-23
9.28571e-24
-1.0047e-22
9.01442e-24
-8.26154e-23
8.76031e-24
-4.40482e-23
8.386e-24
-6.04604e-23
8.14814e-24
-6.78809e-23
7.85164e-24
-8.25784e-23
7.66764e-24
-9.50822e-23
7.5334e-24
-9.76434e-23
7.79379e-24
-3.99872e-23
7.99054e-24
-4.00473e-23
8.12244e-24
-9.87468e-23
7.68475e-24
-3.61585e-23
7.79487e-24
-3.5548e-23
7.76204e-24
-3.73841e-23
7.45287e-24
2.07478e-23
7.6719e-24
7.80041e-23
7.53066e-24
7.48474e-23
7.10229e-24
8.69053e-23
6.95105e-24
6.97246e-23
6.59207e-24
6.98923e-23
6.67517e-24
4.44415e-23
6.33912e-24
6.18765e-24
-3.94668e-23
1.12529e-25
-2.35444e-23
5.58797e-25
-8.63045e-23
2.02709e-24
-7.87107e-23
2.50117e-24
-1.05399e-22
1.01867e-24
-1.05512e-22
2.81787e-24
-1.05243e-22
2.10792e-24
-1.37845e-22
3.35688e-24
-1.74369e-22
4.20025e-24
-8.53844e-23
4.72951e-24
-1.68804e-23
4.88377e-24
-1.42189e-23
3.86906e-24
-1.18963e-22
3.52335e-24
-1.29205e-22
4.17372e-24
-1.45019e-22
5.433e-24
-1.42378e-22
5.96032e-24
-1.379e-22
6.30555e-24
-1.311e-22
5.35122e-24
-1.64854e-22
7.02394e-24
-2.34643e-22
6.70064e-24
-2.26803e-22
7.26104e-24
-2.18845e-22
7.14347e-24
-1.40816e-22
6.97951e-24
-1.35741e-22
6.04266e-24
-1.23863e-22
5.73944e-24
-1.58098e-22
5.11534e-24
-2.63175e-22
4.5366e-24
-2.55073e-22
5.80089e-24
-2.31848e-22
6.49787e-24
-2.2477e-22
6.39912e-24
-2.69285e-22
7.03768e-24
-2.66694e-22
7.61592e-24
-2.29515e-22
8.25005e-24
-2.12511e-22
8.89144e-24
-2.13687e-22
8.48329e-24
-2.1758e-22
8.77409e-24
-1.86613e-22
9.92768e-24
-1.53527e-22
9.87858e-24
-1.53382e-22
9.46158e-24
-1.51479e-22
8.9637e-24
-1.16823e-22
9.85893e-24
-1.14034e-22
9.12912e-24
-1.11903e-22
9.04248e-24
-1.14025e-22
9.49938e-24
-2.38342e-23
9.37898e-24
-4.28895e-23
8.92408e-24
-5.36084e-23
8.56909e-24
-8.32558e-23
8.23348e-24
-9.17167e-23
8.27804e-24
-1.07892e-22
8.30214e-24
-9.46476e-23
8.56178e-24
-9.52967e-23
8.70514e-24
-9.55023e-23
8.6215e-24
-6.40622e-23
8.59267e-24
-6.18099e-23
8.83568e-24
-7.29246e-23
8.61232e-24
-1.16838e-23
8.48763e-24
-5.74029e-23
8.22535e-24
-5.62401e-23
8.14409e-24
-5.53216e-23
8.02026e-24
-2.65286e-23
8.08361e-24
1.1521e-23
8.10118e-24
4.9088e-23
7.98203e-24
4.02961e-23
7.94856e-24
1.55172e-23
8.20412e-24
4.80673e-23
8.16494e-24
4.35009e-23
8.0149e-24
9.08141e-23
7.99826e-24
8.63436e-23
7.90826e-24
1.04068e-22
7.86462e-24
9.05279e-23
7.77841e-24
6.89855e-23
7.7471e-24
1.11469e-22
7.50718e-24
7.72262e-23
7.36464e-24
9.7201e-23
7.24146e-24
9.38948e-23
7.15685e-24
7.20538e-23
7.00362e-24
5.21546e-23
6.8492e-24
5.24182e-23
6.68864e-24
4.34044e-23
6.52303e-24
4.07908e-23
6.31973e-24
4.52216e-23
6.11692e-24
3.71955e-23
5.87961e-24
3.44595e-23
5.58793e-24
3.25411e-23
5.30619e-24
3.09667e-23
4.91252e-24
1.8729e-23
4.52789e-24
2.50438e-23
4.14657e-24
1.78621e-23
3.71081e-24
9.50585e-24
3.24671e-24
1.69577e-24
2.73182e-24
1.61951e-24
2.14667e-24
-1.51364e-24
1.5195e-24
-3.05644e-25
8.24353e-25
3.47929e-25
-1.17379e-22
3.87186e-24
-8.44351e-23
4.61304e-24
-9.68915e-23
5.30453e-24
-1.07116e-22
4.37251e-24
-3.81634e-23
6.63344e-24
-5.65562e-23
6.7686e-24
-1.28104e-23
8.08349e-24
-4.14988e-23
6.68167e-24
-6.8728e-23
6.3499e-24
-1.52558e-23
7.18536e-24
-3.8679e-23
5.99067e-24
2.42515e-23
5.47949e-24
9.72447e-24
5.99123e-24
1.96971e-23
5.47369e-24
-3.43409e-24
5.74078e-24
-6.52076e-24
5.30558e-24
-4.45005e-24
4.55407e-24
5.93664e-23
4.73011e-24
-1.23658e-24
2.65672e-24
-7.99089e-23
1.83979e-24
-6.97342e-23
8.14219e-25
-1.30129e-22
8.14207e-25
-1.17076e-22
4.905e-25
-1.06931e-22
2.76659e-25
-9.81578e-23
3.003e-25
-8.57241e-23
-8.00704e-26
-3.68416e-23
-1.10156e-25
-7.23946e-23
-8.0937e-25
-1.07594e-22
-8.88841e-25
-9.86287e-23
-5.36661e-25
-7.68124e-23
-1.75656e-25
-1.27106e-22
-7.43533e-25
-1.20428e-22
-4.86935e-25
-2.25823e-22
-1.41924e-25
-1.56594e-22
4.56464e-25
-2.11885e-22
1.31385e-24
-2.49751e-22
9.76946e-25
-2.77176e-22
1.49777e-24
-2.66506e-22
1.70211e-24
-2.5721e-22
2.51209e-24
-2.25597e-22
2.76821e-24
-1.94416e-22
2.44533e-24
-1.62574e-22
3.40035e-24
-1.39628e-22
3.03529e-24
-1.22494e-22
3.5306e-24
-1.4803e-22
3.69521e-24
-1.2555e-22
3.59305e-24
-1.18091e-22
3.92354e-24
-1.09309e-22
4.36941e-24
-1.98929e-23
4.90268e-24
-5.29666e-23
4.95794e-24
-4.86117e-23
5.30338e-24
-5.82293e-23
5.80393e-24
-8.64331e-23
6.29354e-24
-8.41477e-23
6.37506e-24
-5.31623e-23
6.51787e-24
-8.31973e-23
6.75029e-24
-4.45464e-23
6.97881e-24
-4.94476e-23
6.74398e-24
-2.38045e-23
7.00816e-24
-1.64253e-25
7.05663e-24
9.31797e-24
6.96661e-24
3.54332e-23
6.99365e-24
4.80556e-23
7.16937e-24
-1.59986e-23
7.13018e-24
-1.68161e-23
7.23919e-24
-1.83166e-23
7.58751e-24
-2.04095e-23
7.62972e-24
7.06e-24
7.91405e-24
-1.09921e-23
7.78214e-24
-2.82335e-23
7.83742e-24
-6.63142e-23
7.77825e-24
-6.75e-23
7.87291e-24
-3.57198e-23
8.00195e-24
-3.12501e-23
8.02421e-24
-3.20348e-23
7.89701e-24
-3.33184e-23
7.84459e-24
-1.31379e-23
7.73265e-24
-2.7704e-23
7.66733e-24
-1.62317e-23
7.57925e-24
-3.06576e-23
7.3555e-24
-1.69076e-23
7.18192e-24
-1.65903e-23
6.92643e-24
-1.65234e-23
6.67076e-24
-2.76839e-23
6.30964e-24
-2.00892e-23
5.96714e-24
-1.30924e-23
5.52932e-24
-1.01822e-23
5.06068e-24
-3.83408e-24
4.56573e-24
-4.73542e-24
3.98792e-24
-1.40771e-24
3.36779e-24
4.36716e-24
2.67779e-24
1.18069e-24
1.92618e-24
6.11708e-25
1.11107e-24
5.40844e-25
8.23698e-24
-4.24343e-25
-7.9676e-23
-8.26951e-26
-1.22466e-22
-1.68921e-24
-1.28757e-22
-2.90909e-25
-1.14603e-22
-7.33027e-25
-1.18456e-22
-4.26903e-26
-1.53301e-22
6.83427e-25
-1.84526e-22
4.10825e-25
-1.72687e-22
1.99117e-24
-1.77526e-22
2.33946e-24
-1.89538e-22
2.61876e-24
-6.40952e-23
1.83447e-24
-9.98337e-23
1.24333e-24
-1.85694e-22
-9.41605e-27
-1.88059e-22
-1.26726e-24
-2.31363e-22
-6.34099e-26
-2.11704e-22
-9.60119e-25
-2.87058e-22
-2.28979e-24
-2.68902e-22
-1.58257e-24
-2.60679e-22
-1.89003e-24
-2.52443e-22
-2.17841e-24
-2.40294e-22
-2.64498e-24
-2.30041e-22
-2.88912e-24
-1.7924e-22
-3.3371e-24
-1.71896e-22
-3.30184e-24
-1.49202e-22
-3.32425e-24
-1.42949e-22
-3.81422e-24
-1.00155e-22
-3.73736e-24
-8.20499e-23
-3.68898e-24
-8.08766e-23
-3.81607e-24
-7.68351e-23
-4.18833e-24
-3.34316e-23
-4.07162e-24
-9.32324e-23
-4.17071e-24
-1.05244e-24
-3.74985e-24
-6.74891e-25
-4.68524e-24
-1.10139e-22
-5.13326e-24
-1.7775e-22
-4.48813e-24
-1.71481e-22
-3.75849e-24
-1.65217e-22
-3.50673e-24
-2.32428e-22
-3.50177e-24
-1.69132e-22
-2.89989e-24
-1.78367e-22
-2.58892e-24
-1.75638e-22
-2.22596e-24
-1.88051e-22
-2.0049e-24
-1.92078e-22
-2.04037e-24
-1.75529e-22
-1.64468e-24
-1.16176e-22
-1.24551e-24
-8.05927e-23
-1.05435e-24
-3.59685e-23
-1.43168e-24
-6.32402e-23
-1.63665e-24
-3.69909e-23
-1.45275e-24
-2.23566e-23
-1.21107e-24
-1.9903e-23
-1.33144e-24
-1.03725e-22
-1.53942e-24
-1.26956e-22
-1.43146e-24
-1.06462e-22
-1.41306e-24
-1.43149e-22
-1.31389e-24
-1.70076e-22
-1.45759e-24
-1.67288e-22
-1.20521e-24
-1.65031e-22
-1.13791e-24
-1.19215e-22
-9.11806e-25
-6.06436e-23
-1.19942e-24
-5.8418e-23
-1.35042e-24
-4.43485e-23
-1.42926e-24
-2.83415e-23
-1.60306e-24
-2.49972e-23
-1.57364e-24
-4.23553e-23
-1.54384e-24
-7.20985e-23
-1.87762e-24
-6.31622e-23
-1.82645e-24
-7.51947e-23
-1.72512e-24
-5.41194e-23
-1.65281e-24
-4.31298e-23
-1.61853e-24
-3.06471e-23
-1.6137e-24
-5.17627e-23
-1.53236e-24
-4.05096e-23
-1.44568e-24
-4.92878e-23
-1.25518e-24
-2.13312e-23
-1.18036e-24
-2.03419e-23
-1.01884e-24
-2.63515e-23
-9.34083e-25
-5.35766e-23
-7.91966e-25
-6.05991e-23
-5.77496e-25
-5.37738e-23
-3.91199e-25
-4.63036e-23
-1.85425e-25
-5.55162e-23
-9.2943e-26
-4.91849e-23
6.01236e-26
-3.40078e-23
2.32025e-25
-1.83528e-23
3.06667e-25
-1.44332e-23
3.74827e-25
-1.05117e-23
4.09109e-25
-1.201e-23
4.12639e-25
-8.81609e-24
3.81023e-25
-6.51292e-24
2.93928e-25
1.85013e-25
1.77495e-25
-4.40497e-25
1.41365e-26
1.47237e-26
-3.99388e-23
-1.11158e-24
-2.26443e-23
-2.76644e-24
-1.65274e-23
-4.12637e-24
-4.74258e-23
-6.69514e-24
-7.77541e-24
-6.93945e-24
-1.07983e-23
-7.13832e-24
-6.0733e-24
-8.24341e-24
-5.51358e-24
-9.23112e-24
-2.72343e-23
-9.45505e-24
-9.63701e-23
-9.62219e-24
-8.40272e-23
-8.65122e-24
-8.21673e-23
-8.93983e-24
-1.00129e-22
-8.70931e-24
-9.10729e-23
-8.73655e-24
-7.98587e-23
-8.38257e-24
-1.3544e-22
-8.19948e-24
-2.17809e-22
-8.03035e-24
-1.13931e-22
-6.84951e-24
-1.94379e-22
-7.37085e-24
-1.91069e-22
-6.48176e-24
-1.90968e-22
-5.81457e-24
-1.9158e-22
-4.73936e-24
-1.95696e-22
-4.18388e-24
-1.20518e-22
-4.49662e-24
-1.37018e-22
-4.20155e-24
-1.3896e-22
-4.94336e-24
-6.75469e-23
-4.69151e-24
-6.7069e-23
-4.02639e-24
-6.7233e-23
-4.22302e-24
-1.16529e-22
-3.88466e-24
-5.42189e-23
-3.50555e-24
-5.45293e-23
-4.51849e-24
-3.97427e-23
-4.46103e-24
-4.0876e-23
-4.82533e-24
-6.24258e-24
-4.66798e-24
-8.10672e-24
-4.59717e-24
7.8637e-24
-4.81185e-24
6.96328e-23
-5.27031e-24
2.53838e-23
-5.30617e-24
5.84159e-23
-5.13798e-24
6.71109e-23
-5.421e-24
3.15662e-23
-5.60742e-24
1.42797e-23
-5.0924e-24
6.76155e-24
-5.14572e-24
-2.52846e-23
-5.1681e-24
-1.40311e-23
-4.86939e-24
-3.93847e-23
-4.45891e-24
-6.82828e-23
-4.01881e-24
-6.06857e-23
-3.8795e-24
-8.56808e-23
-3.57152e-24
-5.1456e-23
-3.50016e-24
-4.86472e-23
-3.76552e-24
-7.57315e-23
-4.0536e-24
-8.08532e-23
-4.07834e-24
-8.44092e-23
-4.17749e-24
-8.62923e-23
-4.11396e-24
-1.12536e-22
-4.3756e-24
-7.81944e-23
-4.2982e-24
-1.06118e-22
-4.33132e-24
-1.30301e-22
-4.59468e-24
-1.08437e-22
-4.57637e-24
-8.73086e-23
-4.52821e-24
-8.23419e-23
-4.38519e-24
-7.80016e-23
-4.48961e-24
-3.69565e-23
-4.45611e-24
-5.72888e-23
-4.5582e-24
-7.29145e-23
-4.71005e-24
-7.06616e-23
-4.40037e-24
-5.94667e-23
-4.38497e-24
-5.74118e-23
-4.32996e-24
-5.5881e-23
-4.2e-24
-5.53798e-23
-4.04472e-24
-3.4955e-23
-3.83315e-24
-3.42089e-23
-3.65653e-24
-3.26565e-23
-3.47482e-24
-4.82526e-23
-3.29689e-24
-2.69958e-23
-2.99827e-24
-2.25254e-23
-2.79854e-24
-1.5483e-23
-2.49503e-24
5.14521e-24
-2.32585e-24
1.04047e-23
-2.06864e-24
-4.7659e-25
-1.85355e-24
2.50966e-24
-1.61911e-24
5.15292e-24
-1.35657e-24
-2.79892e-24
-1.06966e-24
1.15271e-24
-8.33345e-25
-5.07095e-24
-6.62543e-25
-3.74852e-24
-4.5968e-25
8.01957e-25
-3.1951e-25
6.13131e-24
-2.17153e-25
5.89659e-24
-1.48151e-25
2.21345e-24
-1.14589e-25
-6.83334e-25
-1.05499e-25
1.37562e-25
-9.99232e-26
1.04797e-25
-1.04391e-22
-5.44372e-24
-1.19148e-22
-2.43084e-24
-1.24954e-22
-3.0904e-25
-1.28424e-22
-5.30388e-25
-5.64466e-23
5.18734e-25
-6.08421e-23
-9.26961e-25
-6.37825e-23
7.83857e-26
-2.91522e-23
-7.51313e-25
-2.55038e-23
-3.60646e-24
-2.10468e-23
-4.308e-24
-2.01597e-23
-6.77237e-24
-1.8719e-23
-7.87974e-24
-2.09099e-23
-8.36709e-24
-2.19576e-23
-9.39194e-24
-1.10419e-22
-9.81355e-24
-1.15121e-22
-9.86694e-24
-1.1884e-22
-9.31032e-24
-1.18684e-22
-9.5174e-24
-1.19336e-22
-9.1091e-24
-1.19331e-22
-8.93651e-24
-1.03627e-22
-8.7967e-24
-1.62366e-22
-8.75335e-24
-2.38975e-22
-8.81566e-24
-1.72778e-22
-8.33506e-24
-1.71189e-22
-8.26115e-24
-1.81909e-22
-8.00617e-24
-1.11429e-22
-6.84689e-24
-1.21712e-22
-7.28108e-24
-1.17875e-22
-7.6552e-24
-1.79081e-22
-7.93593e-24
-2.09159e-22
-8.00821e-24
-2.17746e-22
-7.29653e-24
-1.37725e-22
-7.71132e-24
-1.28659e-22
-7.95835e-24
-1.95017e-22
-7.70032e-24
-1.95788e-22
-7.33975e-24
-2.14079e-22
-7.11459e-24
-1.54086e-22
-7.58195e-24
-1.51374e-22
-7.60621e-24
-2.21477e-22
-7.15427e-24
-1.77048e-22
-6.58377e-24
-1.41224e-22
-6.28428e-24
-1.09652e-22
-6.63479e-24
-9.93044e-23
-6.58957e-24
-9.10042e-23
-6.44351e-24
-2.68729e-23
-6.62015e-24
-5.79951e-23
-6.9643e-24
-9.27654e-23
-7.07661e-24
-7.35937e-23
-7.11331e-24
-7.96867e-23
-7.55871e-24
-1.01909e-22
-8.05285e-24
-1.12501e-22
-8.08223e-24
-1.44363e-22
-7.90751e-24
-1.38312e-22
-8.18083e-24
-1.50462e-22
-8.13363e-24
-1.59829e-22
-7.98942e-24
-1.54179e-22
-7.5469e-24
-1.62969e-22
-7.64463e-24
-1.94733e-22
-7.7652e-24
-1.86836e-22
-7.57829e-24
-1.5064e-22
-7.28846e-24
-1.30612e-22
-7.20858e-24
-1.37256e-22
-7.09221e-24
-1.18074e-22
-6.9904e-24
-1.19717e-22
-6.8083e-24
-1.05309e-22
-6.6124e-24
-7.40552e-23
-6.35976e-24
-5.77976e-23
-6.15984e-24
-5.20694e-23
-6.00946e-24
-3.93575e-23
-5.57475e-24
-1.15452e-23
-5.37215e-24
-4.54903e-24
-5.04149e-24
-2.0665e-23
-4.72197e-24
1.63921e-23
-4.35705e-24
1.86863e-23
-4.06444e-24
4.24624e-23
-3.7519e-24
3.3433e-23
-3.46561e-24
3.2832e-23
-3.08381e-24
2.52925e-23
-2.78883e-24
2.47621e-23
-2.41202e-24
-4.88929e-24
-2.14118e-24
-5.98003e-24
-1.79137e-24
4.18031e-24
-1.41309e-24
3.34487e-24
-1.13243e-24
-6.34954e-24
-8.44523e-25
-7.45637e-24
-5.52665e-25
2.78482e-24
-2.43098e-25
1.05477e-24
2.47692e-27
8.50174e-24
2.22113e-25
1.17236e-23
3.74674e-25
1.07763e-23
4.75403e-25
3.25604e-24
5.45303e-25
3.52258e-25
5.95883e-25
-5.56451e-25
6.38039e-25
-6.41879e-26
-4.42508e-23
2.42071e-24
-5.26313e-23
2.09587e-24
-8.62102e-23
2.62532e-24
-1.25991e-22
3.25886e-24
-8.52407e-23
3.79054e-24
-7.833e-23
5.02462e-24
-1.39124e-22
3.81357e-24
-1.68716e-22
4.11832e-24
-1.53983e-22
5.15547e-24
-1.88565e-22
4.27454e-24
-1.69497e-22
4.12803e-24
-1.3252e-22
4.92189e-24
-9.3442e-23
3.66133e-24
-6.14061e-23
2.86829e-24
-5.85236e-23
2.61547e-24
-1.90862e-23
2.2517e-24
-2.23703e-23
1.07868e-24
-1.80031e-23
4.35529e-25
-2.77609e-23
-5.23653e-26
-1.95441e-23
-1.02743e-24
-2.71741e-23
-1.03268e-24
5.41289e-24
-1.19434e-24
1.34937e-24
-1.97671e-24
1.08321e-24
-2.69248e-24
7.58857e-23
-3.09007e-24
6.45366e-23
-3.28988e-24
1.00165e-22
-3.79464e-24
1.03739e-22
-5.17296e-24
1.05029e-22
-5.87952e-24
1.05819e-22
-5.93886e-24
1.19532e-22
-7.1327e-24
1.24972e-22
-7.6048e-24
8.91326e-23
-7.78394e-24
1.63221e-22
-8.36018e-24
1.5953e-22
-8.69693e-24
7.96973e-23
-8.67871e-24
6.2142e-23
-9.25233e-24
9.6876e-23
-8.92207e-24
1.35126e-22
-8.95494e-24
1.27494e-22
-9.46399e-24
1.24333e-22
-9.82749e-24
6.71057e-23
-1.00458e-23
7.25847e-23
-1.02385e-23
1.34111e-22
-1.02187e-23
7.27839e-23
-1.06949e-23
3.81385e-23
-1.09101e-23
4.61626e-23
-1.07861e-23
9.61925e-24
-1.07695e-23
-9.40397e-24
-1.09119e-23
-5.88252e-23
-1.07973e-23
1.70689e-23
-1.04825e-23
-1.78849e-23
-1.05981e-23
-3.18901e-23
-1.04394e-23
-5.25993e-23
-1.02692e-23
-5.57041e-23
-1.02135e-23
-5.76807e-23
-1.04086e-23
-1.29093e-22
-1.04034e-23
-1.24957e-22
-1.01331e-23
-1.21595e-22
-9.80454e-24
-8.80554e-23
-9.42584e-24
-8.33882e-23
-9.34842e-24
-6.10162e-23
-9.11012e-24
-8.37799e-23
-9.14887e-24
-8.12768e-23
-9.26361e-24
-5.32736e-23
-9.02282e-24
-3.83773e-23
-8.79877e-24
-2.26139e-23
-8.70366e-24
-1.67251e-23
-8.41063e-24
-9.10376e-24
-8.21804e-24
-2.17646e-24
-7.94279e-24
4.28482e-24
-7.77993e-24
2.09768e-23
-7.68205e-24
9.01024e-24
-7.55785e-24
-4.7676e-25
-7.39864e-24
1.2393e-23
-7.23328e-24
-1.59782e-23
-6.96521e-24
1.95439e-23
-6.6356e-24
2.56898e-23
-6.32213e-24
1.27584e-24
-5.97259e-24
1.45328e-24
-5.62924e-24
2.24846e-24
-5.17259e-24
1.92193e-24
-4.80725e-24
7.00947e-24
-4.39726e-24
1.11924e-23
-3.93872e-24
-2.75041e-24
-3.52126e-24
7.23979e-24
-3.04979e-24
8.62194e-24
-2.63434e-24
5.35518e-24
-2.23614e-24
4.15721e-25
-1.9058e-24
-3.50232e-24
-1.59476e-24
7.54261e-25
-1.36032e-24
-1.49881e-25
-1.16704e-24
-1.0483e-24
-1.03452e-24
7.57517e-26
-9.2933e-25
5.3802e-26
-1.46121e-23
-6.77924e-24
4.83027e-24
-7.21449e-24
-1.54475e-23
-7.21091e-24
-8.13515e-23
-7.09074e-24
-6.42134e-23
-6.99799e-24
-1.11457e-22
-8.28033e-24
-8.55529e-23
-7.43031e-24
-6.69948e-23
-8.11591e-24
-1.84944e-22
-7.85821e-24
-1.61679e-22
-5.09444e-24
-9.6234e-23
-4.89489e-24
-1.49935e-22
-2.82584e-24
-1.3304e-22
-2.977e-24
-9.55151e-23
-3.30321e-24
-9.51566e-23
-2.9749e-24
-8.8125e-23
-4.25289e-24
-7.83154e-23
-4.76107e-24
-1.0749e-22
-5.03042e-24
-9.89184e-23
-6.59515e-24
-9.46684e-23
-6.74948e-24
-8.58527e-23
-8.41103e-24
-1.59236e-22
-8.347e-24
-1.53856e-22
-8.17428e-24
-1.53269e-22
-7.65589e-24
-1.48665e-22
-7.05617e-24
-1.85942e-22
-7.21956e-24
-1.85527e-22
-7.25845e-24
-2.27237e-22
-6.23157e-24
-2.2968e-22
-5.61122e-24
-2.28929e-22
-5.07699e-24
-2.31464e-22
-4.40851e-24
-1.66023e-22
-4.91562e-24
-1.6774e-22
-4.59504e-24
-1.31116e-22
-4.24144e-24
-7.48825e-23
-3.74668e-24
-1.19949e-22
-3.94644e-24
-6.57463e-23
-3.97438e-24
-1.32152e-23
-3.86338e-24
-2.4308e-23
-4.35145e-24
-1.3878e-24
-4.83023e-24
-8.26011e-23
-5.07402e-24
-7.55067e-23
-5.0065e-24
-2.58276e-23
-4.99841e-24
-9.43975e-24
-5.17228e-24
-3.67713e-23
-5.86083e-24
-4.04959e-23
-6.20885e-24
-1.79795e-23
-6.69104e-24
-6.73915e-23
-6.96132e-24
-8.06266e-23
-6.8317e-24
-9.56824e-23
-7.0239e-24
-1.49862e-23
-7.25207e-24
-7.5299e-23
-7.20342e-24
-8.80879e-23
-7.15294e-24
-8.61819e-23
-6.81617e-24
-5.79677e-23
-6.47034e-24
-7.56727e-23
-6.12931e-24
-1.89453e-23
-5.83745e-24
-2.40859e-23
-5.66244e-24
-2.73399e-23
-5.37634e-24
-2.97389e-23
-5.39305e-24
-3.30165e-23
-4.90867e-24
-7.82413e-23
-4.58148e-24
-8.06632e-23
-4.26776e-24
-4.28153e-23
-3.74414e-24
-2.0681e-23
-3.55167e-24
1.16996e-23
-3.29892e-24
7.22156e-24
-3.14299e-24
4.20934e-24
-2.74728e-24
1.40511e-23
-2.54802e-24
2.40836e-23
-2.39858e-24
4.19976e-23
-2.26588e-24
5.67515e-24
-2.00581e-24
1.44969e-23
-1.73445e-24
1.31278e-23
-1.56297e-24
2.26188e-23
-1.27474e-24
5.07248e-23
-1.00523e-24
4.7909e-23
-8.23829e-25
4.82752e-23
-5.92569e-25
4.3307e-23
-3.68216e-25
2.29922e-23
-6.33017e-26
1.78394e-23
1.16409e-25
1.31582e-23
3.39733e-25
8.03296e-24
5.9425e-25
2.58733e-24
7.73352e-25
2.12086e-23
9.52681e-25
2.54592e-23
1.08141e-24
2.94595e-23
1.11289e-24
2.51979e-23
1.14871e-24
1.13377e-23
1.08403e-24
3.4998e-24
9.97128e-25
6.05485e-24
8.13385e-25
1.49279e-24
5.60126e-25
5.01004e-25
2.49713e-25
1.27506e-25
-8.71855e-26
5.27595e-26
-6.11573e-23
-4.8273e-24
1.98207e-23
-4.79903e-24
1.07391e-23
-4.98615e-24
-2.11361e-25
-5.10188e-24
-5.12239e-23
-5.36053e-24
5.23815e-24
-4.35743e-24
-1.09964e-22
-5.29973e-24
-4.19244e-23
-5.65876e-24
-6.1253e-23
-7.11876e-24
-5.63569e-23
-8.31711e-24
1.92731e-23
-1.04815e-23
-1.01281e-22
-1.24774e-23
-1.02687e-22
-1.28671e-23
-8.49072e-23
-1.21003e-23
-1.52575e-22
-1.30489e-23
-1.36431e-22
-1.19373e-23
-1.18377e-22
-1.24379e-23
-1.84151e-22
-1.22946e-23
-1.74526e-22
-9.87543e-24
-1.31352e-22
-9.19709e-24
-9.95423e-23
-8.59495e-24
-9.99196e-23
-9.10122e-24
-6.38549e-23
-8.13275e-24
-2.24847e-23
-7.7645e-24
-2.68664e-23
-8.05927e-24
5.33091e-24
-7.27854e-24
8.08107e-23
-6.38833e-24
8.00673e-23
-5.65877e-24
9.4551e-23
-5.32918e-24
8.51115e-23
-5.45592e-24
2.57027e-23
-4.98514e-24
6.42644e-23
-4.56218e-24
9.53226e-23
-4.28389e-24
1.29603e-22
-4.18608e-24
8.6997e-23
-4.04646e-24
7.36166e-23
-4.90995e-24
7.22583e-23
-4.27999e-24
-7.77378e-24
-4.71594e-24
-1.34775e-23
-4.77014e-24
2.04748e-23
-4.24411e-24
4.88773e-23
-3.88573e-24
1.14736e-23
-3.3953e-24
5.97869e-25
-2.84834e-24
-2.83233e-23
-2.50845e-24
-4.00618e-23
-2.17641e-24
1.21485e-23
-1.88698e-24
3.83049e-23
-1.18247e-24
4.94344e-23
-8.96855e-25
3.27411e-23
-8.69468e-25
5.77411e-23
-7.71718e-25
9.03727e-23
-4.70383e-25
9.3374e-23
-2.16867e-25
1.06727e-22
2.15443e-25
1.34882e-22
1.61724e-25
1.22035e-22
3.45886e-25
1.1328e-22
6.43985e-25
8.55548e-23
8.36743e-25
1.0451e-22
1.16674e-24
9.24244e-23
1.17345e-24
1.23478e-22
1.28482e-24
9.89823e-23
1.37418e-24
9.20247e-23
1.33681e-24
8.45905e-23
1.75471e-24
7.64204e-23
2.1396e-24
7.01265e-23
2.22669e-24
9.12436e-23
2.53293e-24
6.18037e-23
2.5889e-24
6.57812e-23
2.63883e-24
3.65485e-23
2.75669e-24
2.93816e-23
2.90506e-24
5.33855e-23
3.05793e-24
1.21954e-23
2.99335e-24
3.87374e-24
3.14924e-24
3.10534e-23
3.25556e-24
2.53483e-23
3.43529e-24
1.99486e-23
3.57235e-24
1.6019e-23
3.69606e-24
1.19111e-23
3.80059e-24
7.3192e-24
3.87984e-24
-4.87091e-24
3.9202e-24
6.90821e-24
4.00129e-24
1.8769e-23
3.99234e-24
1.66745e-23
3.89911e-24
1.51037e-23
3.85003e-24
1.88904e-23
3.69283e-24
1.50303e-23
3.50357e-24
1.16873e-23
3.2511e-24
8.06848e-24
2.96794e-24
1.41506e-23
2.63306e-24
5.7386e-24
2.22277e-24
4.25615e-24
1.76384e-24
3.14736e-24
1.27898e-24
2.23696e-24
7.89825e-25
4.07565e-25
3.33558e-25
3.5465e-25
9.29863e-23
-2.63712e-24
5.42513e-23
-5.31002e-24
1.03048e-23
-6.85872e-24
-4.39069e-24
-9.98947e-24
-2.30165e-23
-1.02236e-23
-7.27129e-23
-1.13725e-23
-1.22736e-22
-1.07412e-23
-1.38406e-22
-8.59176e-24
-1.54447e-22
-7.12757e-24
-1.63723e-22
-6.9571e-24
-1.7738e-22
-5.82693e-24
-1.18802e-22
-4.12371e-24
-4.42237e-23
-4.07466e-24
-8.23142e-23
-5.5918e-24
-2.22813e-23
-4.3741e-24
-5.07396e-23
-3.88645e-24
-1.62481e-23
-3.52698e-24
1.91835e-24
-3.84854e-24
-6.95371e-25
-4.64418e-24
-4.33531e-25
-4.7407e-24
-1.64827e-24
-4.43299e-24
-5.34704e-24
-3.69317e-24
-7.11675e-24