/*--------------------------------*- C++ -*----------------------------------*\
  =========                 |
  \\      /  F ield         | OpenFOAM: The Open Source CFD Toolbox
   \\    /   O peration     | Website:  https://openfoam.org
    \\  /    A nd           | Version:  7
     \\/     M anipulation  |
\*---------------------------------------------------------------------------*/
FoamFile
{
    version     2.0;
    format      ascii;
    class       volVectorField;
    location    "160000";
    object      vorticity;
}
// * * * * * * * * * * * * * * * * * * * * * * * * * * * * * * * * * * * * * //

dimensions      [0 0 -1 0 0 0 0];

internalField   nonuniform List<vector> 
4782
(
(-0.0733705 -0.0552407 3.74536e-17)
(-0.0758802 -0.0571251 3.87328e-17)
(-0.0785221 -0.0591088 3.95562e-17)
(-0.0813057 -0.061199 4.03664e-17)
(-0.0842414 -0.0634032 4.13391e-17)
(-0.0873403 -0.0657299 4.15041e-17)
(-0.0906145 -0.0681883 4.08081e-17)
(-0.0940772 -0.070788 4.05481e-17)
(-0.0977425 -0.07354 4.28002e-17)
(-0.101626 -0.0764557 4.77417e-17)
(-0.0230471 -0.0185767 1.16307e-17)
(-0.0235235 -0.0189585 1.30346e-17)
(-0.0240125 -0.0193504 1.43284e-17)
(-0.0245144 -0.0197527 1.52572e-17)
(-0.0250301 -0.020166 1.54086e-17)
(-0.0255622 -0.0205925 1.51395e-17)
(-0.0261152 -0.0210358 1.48547e-17)
(-0.0266896 -0.0214967 1.42515e-17)
(-0.0272832 -0.021973 1.32315e-17)
(-0.0278944 -0.0224633 1.19852e-17)
(-0.0285227 -0.0229675 1.04585e-17)
(-0.0291685 -0.0234855 9.3172e-18)
(-0.0298324 -0.0240181 8.43181e-18)
(-0.0305153 -0.0245658 8.00761e-18)
(-0.031218 -0.0251294 8.25281e-18)
(-0.0319418 -0.0257098 9.05202e-18)
(-0.0326876 -0.0263079 9.86903e-18)
(-0.0334567 -0.0269246 1.01776e-17)
(-0.0342504 -0.027561 1.0128e-17)
(-0.0350698 -0.0282179 9.72615e-18)
(-0.0359164 -0.0288967 8.4338e-18)
(-0.0367915 -0.0295983 7.3183e-18)
(-0.0376968 -0.030324 6.63835e-18)
(-0.0386336 -0.031075 5.94598e-18)
(-0.0396038 -0.0318528 5.11957e-18)
(-0.0406091 -0.0326586 4.1066e-18)
(-0.0416514 -0.0334941 3.31988e-18)
(-0.0427327 -0.0343609 3.15531e-18)
(-0.0438551 -0.0352605 3.52568e-18)
(-0.045021 -0.036195 4.1645e-18)
(-0.0462326 -0.0371662 4.67436e-18)
(-0.0474927 -0.0381761 4.96754e-18)
(-0.048804 -0.0392271 5.55234e-18)
(-0.0501695 -0.0403215 6.22345e-18)
(-0.0515924 -0.0414619 6.47796e-18)
(-0.0530761 -0.042651 6.70182e-18)
(-0.0546244 -0.0438917 7.21057e-18)
(-0.0562411 -0.0451873 7.6121e-18)
(-0.0579305 -0.0465412 6.9836e-18)
(-0.0596973 -0.047957 5.72525e-18)
(-0.0615464 -0.0494387 4.44979e-18)
(-0.0634831 -0.0509906 3.17119e-18)
(-0.0655132 -0.0526174 1.42057e-18)
(-0.0676429 -0.0543239 9.40626e-20)
(-0.0698791 -0.0561156 -1.17141e-18)
(-0.072229 -0.0579985 -2.28251e-18)
(-0.0747005 -0.0599787 -3.26033e-18)
(-0.0773022 -0.0620632 -4.70318e-18)
(-0.0800434 -0.0642595 -6.22951e-18)
(-0.0829343 -0.0665756 -7.2656e-18)
(-0.0859857 -0.0690202 -8.80753e-18)
(-0.0892095 -0.071603 -1.06832e-17)
(-0.0926187 -0.0743342 -1.2791e-17)
(-0.0962273 -0.0772251 -1.39649e-17)
(-0.10005 -0.0802877 -1.3563e-17)
(-0.0226533 -0.0194302 1.48959e-17)
(-0.0231215 -0.0198301 1.41032e-17)
(-0.0236019 -0.0202405 1.20931e-17)
(-0.0240952 -0.020662 9.77128e-18)
(-0.0246026 -0.0210956 8.21381e-18)
(-0.0251278 -0.0215445 7.64146e-18)
(-0.025674 -0.0220119 8.26226e-18)
(-0.0262403 -0.0224965 1.00284e-17)
(-0.0268241 -0.022996 1.17073e-17)
(-0.0274244 -0.0235098 1.25262e-17)
(-0.0280414 -0.0240376 1.22212e-17)
(-0.0286753 -0.0245798 1.10708e-17)
(-0.0293271 -0.0251372 9.9948e-18)
(-0.0299976 -0.0257106 9.74288e-18)
(-0.0306877 -0.0263006 1.03813e-17)
(-0.0313986 -0.0269083 1.12588e-17)
(-0.0321313 -0.0275347 1.26002e-17)
(-0.0328869 -0.0281806 1.39538e-17)
(-0.0336668 -0.0288472 1.43905e-17)
(-0.0344721 -0.0295355 1.3935e-17)
(-0.0353042 -0.0302467 1.3311e-17)
(-0.0361644 -0.0309818 1.30363e-17)
(-0.0370542 -0.0317423 1.37677e-17)
(-0.0379753 -0.0325294 1.53869e-17)
(-0.0389291 -0.0333446 1.67812e-17)
(-0.0399175 -0.0341893 1.74369e-17)
(-0.0409424 -0.035065 1.68513e-17)
(-0.0420056 -0.0359736 1.50604e-17)
(-0.0431093 -0.0369167 1.31338e-17)
(-0.0442557 -0.0378963 1.19091e-17)
(-0.0454472 -0.0389145 1.06351e-17)
(-0.0466864 -0.0399733 8.48864e-18)
(-0.0479761 -0.0410752 6.31869e-18)
(-0.049319 -0.0422227 4.40604e-18)
(-0.0507184 -0.0434183 2.7289e-18)
(-0.0521777 -0.0446651 1.00222e-18)
(-0.0537004 -0.0459661 -2.78708e-19)
(-0.0552905 -0.0473246 -1.28336e-18)
(-0.0569522 -0.0487442 -2.43855e-18)
(-0.0586899 -0.0502288 -3.98995e-18)
(-0.0605086 -0.0517825 -6.10275e-18)
(-0.0624134 -0.0534098 -7.96422e-18)
(-0.0644102 -0.0551156 -9.72704e-18)
(-0.0665049 -0.056905 -1.12179e-17)
(-0.0687042 -0.0587837 -1.17954e-17)
(-0.0710154 -0.060758 -1.15419e-17)
(-0.0734461 -0.0628343 -1.17423e-17)
(-0.0760049 -0.0650199 -1.28119e-17)
(-0.0787007 -0.0673225 -1.4617e-17)
(-0.0815436 -0.0697507 -1.66872e-17)
(-0.0845442 -0.0723135 -1.82314e-17)
(-0.0877142 -0.075021 -1.88865e-17)
(-0.0910662 -0.0778839 -1.95814e-17)
(-0.0946139 -0.0809138 -1.82642e-17)
(-0.0983721 -0.0841235 -1.56907e-17)
(-0.0222377 -0.0202789 5.77023e-18)
(-0.0226976 -0.0206966 7.45587e-18)
(-0.0231696 -0.0211255 7.05978e-18)
(-0.023654 -0.0215665 5.42239e-18)
(-0.0241534 -0.022022 3.97099e-18)
(-0.024672 -0.0224958 2.55399e-18)
(-0.0252106 -0.022988 1.60872e-18)
(-0.0257669 -0.023496 1.93267e-18)
(-0.0263393 -0.0240183 3.60107e-18)
(-0.0269275 -0.0245548 5.53157e-18)
(-0.0275319 -0.0251058 7.34816e-18)
(-0.028153 -0.0256718 9.09453e-18)
(-0.0287918 -0.0262537 1.09592e-17)
(-0.0294491 -0.0268524 1.29672e-17)
(-0.0301258 -0.0274687 1.48963e-17)
(-0.0308231 -0.0281037 1.64147e-17)
(-0.0315419 -0.0287582 1.7956e-17)
(-0.0322833 -0.0294333 1.98506e-17)
(-0.0330487 -0.0301301 2.18206e-17)
(-0.033839 -0.0308497 2.34879e-17)
(-0.0346557 -0.0315933 2.50875e-17)
(-0.0355002 -0.0323621 2.64109e-17)
(-0.0363737 -0.0331574 2.76177e-17)
(-0.037278 -0.0339806 2.9402e-17)
(-0.0382145 -0.0348332 3.13207e-17)
(-0.039185 -0.0357167 3.32691e-17)
(-0.0401914 -0.0366328 3.46364e-17)
(-0.0412354 -0.0375832 3.55641e-17)
(-0.0423193 -0.0385699 3.57752e-17)
(-0.0434451 -0.0395947 3.5503e-17)
(-0.0446153 -0.04066 3.51652e-17)
(-0.0458323 -0.0417678 3.46986e-17)
(-0.0470989 -0.0429208 3.4342e-17)
(-0.0484179 -0.0441214 3.39241e-17)
(-0.0497923 -0.0453725 3.29569e-17)
(-0.0512256 -0.0466772 3.16103e-17)
(-0.0527213 -0.0480385 3.05441e-17)
(-0.0542831 -0.0494602 2.99086e-17)
(-0.0559152 -0.0509457 2.94119e-17)
(-0.0576221 -0.0524993 2.88329e-17)
(-0.0594085 -0.0541252 2.79609e-17)
(-0.0612795 -0.0558282 2.70049e-17)
(-0.0632408 -0.0576132 2.67139e-17)
(-0.0652982 -0.0594858 2.67308e-17)
(-0.0674585 -0.0614519 2.71369e-17)
(-0.0697284 -0.0635178 2.7563e-17)
(-0.0721158 -0.0656905 2.78797e-17)
(-0.0746288 -0.0679775 2.74618e-17)
(-0.0772763 -0.0703869 2.65957e-17)
(-0.0800681 -0.0729275 2.56995e-17)
(-0.0830145 -0.0756089 2.45205e-17)
(-0.0861272 -0.0784414 2.35315e-17)
(-0.0894182 -0.0814362 2.29098e-17)
(-0.0929011 -0.0846055 2.44641e-17)
(-0.0965903 -0.0879625 2.71262e-17)
(-0.0224264 -0.0204865 1.70816e-17)
(-0.0228749 -0.0209239 2.05089e-17)
(-0.0233391 -0.0213761 2.27448e-17)
(-0.0238199 -0.0218445 2.41694e-17)
(-0.0243163 -0.0223289 2.48638e-17)
(-0.0248276 -0.0228283 2.43824e-17)
(-0.0253541 -0.0233423 2.32756e-17)
(-0.0258959 -0.0238708 2.17137e-17)
(-0.0264533 -0.0244139 2.06269e-17)
(-0.0270266 -0.0249721 2.09249e-17)
(-0.0276164 -0.0255459 2.19494e-17)
(-0.028223 -0.0261359 2.2636e-17)
(-0.0288473 -0.0267427 2.27807e-17)
(-0.0294901 -0.0273673 2.23578e-17)
(-0.0301522 -0.0280105 2.15905e-17)
(-0.0308346 -0.0286733 2.06283e-17)
(-0.0315383 -0.0293565 1.98128e-17)
(-0.0322644 -0.0300613 1.98089e-17)
(-0.033014 -0.0307887 2.03854e-17)
(-0.0337883 -0.0315399 2.09765e-17)
(-0.0345885 -0.0323162 2.15517e-17)
(-0.0354161 -0.0331187 2.20295e-17)
(-0.0362723 -0.033949 2.19115e-17)
(-0.0371588 -0.0348083 2.09884e-17)
(-0.038077 -0.0356983 2.0707e-17)
(-0.0390287 -0.0366205 2.14922e-17)
(-0.0400156 -0.0375768 2.2021e-17)
(-0.0410397 -0.0385688 2.19591e-17)
(-0.0421029 -0.0395986 2.19886e-17)
(-0.0432075 -0.0406683 2.22897e-17)
(-0.0443556 -0.04178 2.29139e-17)
(-0.0455498 -0.0429363 2.34241e-17)
(-0.0467928 -0.0441395 2.39392e-17)
(-0.0480873 -0.0453925 2.51317e-17)
(-0.0494364 -0.0466982 2.67269e-17)
(-0.0508432 -0.0480597 2.78531e-17)
(-0.0523114 -0.0494803 2.83542e-17)
(-0.0538447 -0.0509638 2.86956e-17)
(-0.055447 -0.0525141 2.94773e-17)
(-0.0571228 -0.0541352 3.07104e-17)
(-0.0588767 -0.0558318 3.1935e-17)
(-0.0607137 -0.0576088 3.32098e-17)
(-0.0626394 -0.0594714 3.38289e-17)
(-0.0646596 -0.0614252 3.37345e-17)
(-0.0667806 -0.0634766 3.27955e-17)
(-0.0690094 -0.0656321 3.16264e-17)
(-0.0713534 -0.067899 3.08992e-17)
(-0.0738206 -0.070285 3.0729e-17)
(-0.0764198 -0.0727986 3.08725e-17)
(-0.0791605 -0.075449 3.0988e-17)
(-0.0820529 -0.0782461 3.06591e-17)
(-0.0851081 -0.0812007 2.94564e-17)
(-0.0883382 -0.0843244 2.78979e-17)
(-0.0917561 -0.0876298 2.75537e-17)
(-0.095376 -0.0911307 2.75887e-17)
(-0.0204866 -0.0224264 1.0973e-17)
(-0.0209239 -0.0228749 1.37061e-17)
(-0.0213761 -0.0233391 1.52365e-17)
(-0.0218445 -0.0238199 1.63363e-17)
(-0.0223289 -0.0243163 1.70582e-17)
(-0.0228283 -0.0248276 1.725e-17)
(-0.0233423 -0.0253541 1.71026e-17)
(-0.0238708 -0.0258959 1.65966e-17)
(-0.0244139 -0.0264533 1.63054e-17)
(-0.0249721 -0.0270266 1.70035e-17)
(-0.0255459 -0.0276163 1.83766e-17)
(-0.0261359 -0.028223 1.92984e-17)
(-0.0267427 -0.0288473 1.94186e-17)
(-0.0273673 -0.0294901 1.87751e-17)
(-0.0280105 -0.0301522 1.75246e-17)
(-0.0286733 -0.0308346 1.55625e-17)
(-0.0293565 -0.0315383 1.34218e-17)
(-0.0300613 -0.0322644 1.19474e-17)
(-0.0307887 -0.033014 1.09446e-17)
(-0.0315399 -0.0337883 9.95133e-18)
(-0.0323162 -0.0345885 8.88601e-18)
(-0.0331187 -0.0354161 7.84677e-18)
(-0.033949 -0.0362723 6.40554e-18)
(-0.0348083 -0.0371588 4.51186e-18)
(-0.0356983 -0.038077 2.77115e-18)
(-0.0366205 -0.0390287 1.31934e-18)
(-0.0375768 -0.0400156 -2.27929e-19)
(-0.0385688 -0.0410397 -2.03989e-18)
(-0.0395986 -0.0421029 -3.232e-18)
(-0.0406683 -0.0432075 -4.04701e-18)
(-0.04178 -0.0443556 -4.01829e-18)
(-0.0429363 -0.0455498 -3.28596e-18)
(-0.0441395 -0.0467928 -2.63447e-18)
(-0.0453925 -0.0480873 -2.01034e-18)
(-0.0466982 -0.0494364 -1.33541e-18)
(-0.0480597 -0.0508432 -1.62432e-18)
(-0.0494803 -0.0523114 -2.88931e-18)
(-0.0509638 -0.0538447 -3.83363e-18)
(-0.0525141 -0.055447 -4.42038e-18)
(-0.0541352 -0.0571228 -4.97733e-18)
(-0.0558318 -0.0588767 -5.3042e-18)
(-0.0576088 -0.0607137 -5.92718e-18)
(-0.0594714 -0.0626394 -7.45974e-18)
(-0.0614252 -0.0646596 -9.94211e-18)
(-0.0634766 -0.0667806 -1.32653e-17)
(-0.0656321 -0.0690094 -1.65611e-17)
(-0.067899 -0.0713534 -1.94489e-17)
(-0.070285 -0.0738206 -2.18088e-17)
(-0.0727986 -0.0764198 -2.37705e-17)
(-0.075449 -0.0791605 -2.60903e-17)
(-0.0782461 -0.0820529 -2.86486e-17)
(-0.0812007 -0.0851081 -3.17196e-17)
(-0.0843244 -0.0883382 -3.50849e-17)
(-0.0876298 -0.0917561 -3.79186e-17)
(-0.0911307 -0.095376 -3.97262e-17)
(-0.0202789 -0.0222377 1.5702e-17)
(-0.0206966 -0.0226976 1.63753e-17)
(-0.0211255 -0.0231696 1.60622e-17)
(-0.0215665 -0.023654 1.56281e-17)
(-0.022022 -0.0241534 1.53494e-17)
(-0.0224958 -0.024672 1.52192e-17)
(-0.022988 -0.0252106 1.5473e-17)
(-0.023496 -0.0257669 1.65073e-17)
(-0.0240184 -0.0263393 1.79995e-17)
(-0.0245548 -0.0269275 1.92771e-17)
(-0.0251058 -0.0275319 1.9999e-17)
(-0.0256718 -0.028153 2.04527e-17)
(-0.0262537 -0.0287918 2.11036e-17)
(-0.0268524 -0.0294491 2.18558e-17)
(-0.0274687 -0.0301258 2.23787e-17)
(-0.0281037 -0.0308231 2.22603e-17)
(-0.0287582 -0.0315419 2.21728e-17)
(-0.0294333 -0.0322833 2.22166e-17)
(-0.0301301 -0.0330487 2.23458e-17)
(-0.0308497 -0.033839 2.23447e-17)
(-0.0315933 -0.0346557 2.21554e-17)
(-0.0323621 -0.0355002 2.22494e-17)
(-0.0331574 -0.0363737 2.27561e-17)
(-0.0339806 -0.037278 2.33694e-17)
(-0.0348332 -0.0382145 2.39213e-17)
(-0.0357167 -0.039185 2.49387e-17)
(-0.0366328 -0.0401914 2.61332e-17)
(-0.0375832 -0.0412354 2.7263e-17)
(-0.0385699 -0.0423193 2.77796e-17)
(-0.0395948 -0.0434451 2.75735e-17)
(-0.04066 -0.0446153 2.73913e-17)
(-0.0417678 -0.0458323 2.74947e-17)
(-0.0429208 -0.0470989 2.72881e-17)
(-0.0441214 -0.0484179 2.72039e-17)
(-0.0453725 -0.0497923 2.61895e-17)
(-0.0466772 -0.0512256 2.42029e-17)
(-0.0480386 -0.0527213 2.18912e-17)
(-0.0494602 -0.0542831 1.98134e-17)
(-0.0509457 -0.0559152 1.81678e-17)
(-0.0524993 -0.0576221 1.66435e-17)
(-0.0541252 -0.0594085 1.53467e-17)
(-0.0558282 -0.0612795 1.39491e-17)
(-0.0576132 -0.0632408 1.28893e-17)
(-0.0594858 -0.0652982 1.2041e-17)
(-0.0614519 -0.0674585 1.16096e-17)
(-0.0635178 -0.0697284 1.14963e-17)
(-0.0656905 -0.0721158 1.12654e-17)
(-0.0679775 -0.0746288 1.01024e-17)
(-0.0703869 -0.0772763 8.59249e-18)
(-0.0729275 -0.0800681 7.12664e-18)
(-0.0756089 -0.0830146 5.26675e-18)
(-0.0784414 -0.0861272 3.11549e-18)
(-0.0814362 -0.0894182 1.42956e-18)
(-0.0846055 -0.0929011 9.02379e-19)
(-0.0879625 -0.0965903 1.64942e-18)
(-0.0915214 -0.100501 2.84765e-18)
(-0.0952975 -0.104651 4.61626e-18)
(-0.0993075 -0.109058 6.424e-18)
(-0.103569 -0.113742 7.33694e-18)
(-0.0194302 -0.0226533 1.76815e-17)
(-0.0198301 -0.0231215 1.78047e-17)
(-0.0202405 -0.0236019 1.82172e-17)
(-0.020662 -0.0240952 1.85861e-17)
(-0.0210956 -0.0246026 1.89407e-17)
(-0.0215445 -0.0251278 1.96049e-17)
(-0.0220119 -0.025674 2.07133e-17)
(-0.0224965 -0.0262403 2.1569e-17)
(-0.0229961 -0.0268241 2.1736e-17)
(-0.0235098 -0.0274244 2.15618e-17)
(-0.0240376 -0.0280414 2.13516e-17)
(-0.0245798 -0.0286753 2.10625e-17)
(-0.0251372 -0.0293271 2.10403e-17)
(-0.0257106 -0.0299976 2.12783e-17)
(-0.0263006 -0.0306877 2.20972e-17)
(-0.0269084 -0.0313986 2.31422e-17)
(-0.0275347 -0.0321312 2.46631e-17)
(-0.0281806 -0.0328869 2.58922e-17)
(-0.0288472 -0.0336668 2.66558e-17)
(-0.0295355 -0.0344721 2.71062e-17)
(-0.0302467 -0.0353042 2.73461e-17)
(-0.0309818 -0.0361644 2.77018e-17)
(-0.0317423 -0.0370542 2.87523e-17)
(-0.0325294 -0.0379753 3.05599e-17)
(-0.0333446 -0.0389291 3.23511e-17)
(-0.0341893 -0.0399175 3.36885e-17)
(-0.035065 -0.0409424 3.38519e-17)
(-0.0359736 -0.0420056 3.27533e-17)
(-0.0369167 -0.0431093 3.1281e-17)
(-0.0378963 -0.0442557 3.06025e-17)
(-0.0389145 -0.0454472 2.97034e-17)
(-0.0399733 -0.0466865 2.7557e-17)
(-0.0410752 -0.0479761 2.4576e-17)
(-0.0422227 -0.049319 2.18938e-17)
(-0.0434183 -0.0507184 1.93408e-17)
(-0.0446651 -0.0521777 1.72393e-17)
(-0.0459661 -0.0537004 1.58305e-17)
(-0.0473246 -0.0552905 1.50502e-17)
(-0.0487442 -0.0569522 1.4864e-17)
(-0.0502288 -0.0586899 1.4651e-17)
(-0.0517825 -0.0605086 1.44595e-17)
(-0.0534098 -0.0624134 1.42663e-17)
(-0.0551156 -0.0644102 1.40545e-17)
(-0.056905 -0.0665049 1.40539e-17)
(-0.0587837 -0.0687043 1.47029e-17)
(-0.060758 -0.0710154 1.57725e-17)
(-0.0628343 -0.0734462 1.62019e-17)
(-0.0650199 -0.0760049 1.6301e-17)
(-0.0673225 -0.0787007 1.57094e-17)
(-0.0697507 -0.0815436 1.51037e-17)
(-0.0723136 -0.0845442 1.49047e-17)
(-0.075021 -0.0877142 1.51346e-17)
(-0.0778839 -0.0910662 1.52876e-17)
(-0.0809138 -0.0946139 1.53225e-17)
(-0.0841235 -0.0983721 1.51634e-17)
(-0.0875266 -0.102357 1.51083e-17)
(-0.091138 -0.106586 1.51945e-17)
(-0.0949736 -0.111077 1.52102e-17)
(-0.0990506 -0.115851 1.47159e-17)
(-0.103387 -0.12093 1.40775e-17)
(-0.0185767 -0.0230471 -5.50384e-18)
(-0.0189585 -0.0235235 -3.54536e-18)
(-0.0193504 -0.0240125 -1.76216e-18)
(-0.0197527 -0.0245144 -7.35431e-19)
(-0.020166 -0.0250301 1.46714e-19)
(-0.0205925 -0.0255622 1.29686e-18)
(-0.0210358 -0.0261152 2.45555e-18)
(-0.0214967 -0.0266896 3.77474e-18)
(-0.021973 -0.0272832 5.22963e-18)
(-0.0224633 -0.0278944 7.14027e-18)
(-0.0229675 -0.0285227 8.6336e-18)
(-0.0234855 -0.0291685 9.89829e-18)
(-0.0240181 -0.0298324 1.14074e-17)
(-0.0245658 -0.0305153 1.28427e-17)
(-0.0251294 -0.031218 1.42192e-17)
(-0.0257098 -0.0319418 1.56476e-17)
(-0.0263079 -0.0326876 1.70579e-17)
(-0.0269246 -0.0334567 1.8297e-17)
(-0.027561 -0.0342504 1.96894e-17)
(-0.0282179 -0.0350698 2.06211e-17)
(-0.0288967 -0.0359164 2.06466e-17)
(-0.0295983 -0.0367915 2.03764e-17)
(-0.030324 -0.0376968 1.99455e-17)
(-0.031075 -0.0386336 1.95073e-17)
(-0.0318528 -0.0396038 1.90754e-17)
(-0.0326586 -0.0406091 1.84936e-17)
(-0.0334941 -0.0416514 1.77836e-17)
(-0.0343609 -0.0427327 1.76452e-17)
(-0.0352606 -0.0438551 1.83575e-17)
(-0.036195 -0.045021 1.93612e-17)
(-0.0371662 -0.0462326 2.00125e-17)
(-0.0381761 -0.0474927 2.01079e-17)
(-0.0392271 -0.048804 2.01687e-17)
(-0.0403215 -0.0501695 1.99429e-17)
(-0.0414619 -0.0515924 1.94684e-17)
(-0.042651 -0.0530761 1.94506e-17)
(-0.0438917 -0.0546244 1.96969e-17)
(-0.0451873 -0.0562411 1.93977e-17)
(-0.0465412 -0.0579305 1.80692e-17)
(-0.047957 -0.0596973 1.65294e-17)
(-0.0494387 -0.0615464 1.48096e-17)
(-0.0509906 -0.0634831 1.3131e-17)
(-0.0526174 -0.0655132 1.14172e-17)
(-0.0543239 -0.0676429 9.95673e-18)
(-0.0561156 -0.0698791 8.80166e-18)
(-0.0579985 -0.072229 7.95142e-18)
(-0.0599787 -0.0747005 6.96614e-18)
(-0.0620632 -0.0773022 5.9535e-18)
(-0.0642595 -0.0800434 5.29735e-18)
(-0.0665756 -0.0829343 5.14125e-18)
(-0.0690202 -0.0859857 5.17041e-18)
(-0.071603 -0.0892095 5.38756e-18)
(-0.0743342 -0.0926187 5.01024e-18)
(-0.0772251 -0.0962273 3.71727e-18)
(-0.0802877 -0.10005 1.85154e-18)
(-0.0835353 -0.104104 -6.9819e-20)
(-0.086982 -0.108407 -2.28269e-18)
(-0.0906433 -0.112978 -4.9946e-18)
(-0.0945357 -0.117837 -7.69897e-18)
(-0.098677 -0.123007 -9.80749e-18)
(-0.103086 -0.128511 -1.08805e-17)
(-0.107784 -0.134376 -1.12079e-17)
(-0.112791 -0.140627 -1.10011e-17)
(-0.11813 -0.147293 -1.01299e-17)
(-0.123824 -0.154402 -9.95639e-18)
(-0.129898 -0.161985 -1.00156e-17)
(-0.136375 -0.170072 -9.96794e-18)
(-0.14328 -0.178693 -9.62625e-18)
(-0.150642 -0.187885 -9.4468e-18)
(-0.158514 -0.197714 -9.69283e-18)
(-0.167082 -0.208411 -9.78503e-18)
(-0.176534 -0.220213 -1.06372e-17)
(-0.186807 -0.23304 -1.13433e-17)
(-0.19778 -0.246741 -1.21842e-17)
(-0.209409 -0.261262 -1.20951e-17)
(-0.221612 -0.276498 -1.06497e-17)
(-0.234245 -0.292273 -1.13124e-17)
(-0.247093 -0.308316 -1.28589e-17)
(-0.259865 -0.324265 -1.32322e-17)
(-0.272205 -0.339674 -1.13321e-17)
(-0.283721 -0.354056 -8.50327e-18)
(-0.294044 -0.366949 -6.26567e-18)
(-0.302885 -0.377992 -4.40138e-18)
(-0.310094 -0.386996 -2.60058e-18)
(-0.315679 -0.393975 -9.24462e-19)
(-0.319798 -0.399123 2.1044e-19)
(-0.322704 -0.402756 3.71886e-18)
(-0.32469 -0.405241 6.02212e-18)
(-0.326036 -0.406927 3.43241e-18)
(-0.326972 -0.408101 -1.58101e-18)
(-0.327671 -0.408978 -9.53127e-18)
(-0.328244 -0.409699 -1.97239e-17)
(-0.32876 -0.410347 -3.17845e-17)
(-0.32925 -0.410964 -4.91388e-17)
(-0.329729 -0.411566 -6.54509e-17)
(-0.0177198 -0.0234197 7.95542e-18)
(-0.0180835 -0.023904 9.52888e-18)
(-0.0184568 -0.024401 1.04174e-17)
(-0.01884 -0.0249113 1.05906e-17)
(-0.0192336 -0.0254354 1.07539e-17)
(-0.0196387 -0.0259748 1.09771e-17)
(-0.0200585 -0.0265336 1.12017e-17)
(-0.0204954 -0.0271148 1.14432e-17)
(-0.0209482 -0.0277172 1.11686e-17)
(-0.0214151 -0.0283382 1.07282e-17)
(-0.0218955 -0.0289772 9.59836e-18)
(-0.0223892 -0.029634 8.50379e-18)
(-0.0228968 -0.0303092 7.73818e-18)
(-0.0234188 -0.0310037 7.02885e-18)
(-0.0239559 -0.0317183 6.19126e-18)
(-0.0245089 -0.0324542 5.07968e-18)
(-0.0250787 -0.0332124 3.88401e-18)
(-0.0256662 -0.0339942 2.72282e-18)
(-0.0262723 -0.0348008 1.59547e-18)
(-0.026898 -0.0356336 4.73282e-19)
(-0.0275443 -0.0364938 -4.38828e-19)
(-0.0282124 -0.037383 -9.57332e-19)
(-0.0289034 -0.0383027 -1.67521e-18)
(-0.0296184 -0.0392545 -2.90613e-18)
(-0.0303588 -0.0402401 -3.92185e-18)
(-0.031126 -0.0412613 -4.70467e-18)
(-0.0319213 -0.04232 -4.26714e-18)
(-0.0327463 -0.0434183 -2.60654e-18)
(-0.0336027 -0.0445583 -5.56941e-19)
(-0.0344921 -0.0457424 2.17477e-18)
(-0.0354164 -0.0469729 5.11475e-18)
(-0.0363776 -0.0482527 8.44624e-18)
(-0.0373778 -0.0495843 1.27223e-17)
(-0.0384193 -0.050971 1.70734e-17)
(-0.0395046 -0.052416 2.122e-17)
(-0.0406361 -0.0539226 2.50417e-17)
(-0.0418169 -0.0554948 2.79905e-17)
(-0.0430498 -0.0571364 2.98712e-17)
(-0.0443381 -0.0588519 3.08245e-17)
(-0.0456854 -0.0606459 3.21394e-17)
(-0.0470954 -0.0625235 3.35931e-17)
(-0.0485721 -0.06449 3.49069e-17)
(-0.0501201 -0.0665513 3.59974e-17)
(-0.051744 -0.0687139 3.6476e-17)
(-0.053449 -0.0709845 3.65618e-17)
(-0.0552407 -0.0733705 3.62795e-17)
(-0.0571251 -0.0758802 3.66028e-17)
(-0.0591088 -0.0785221 3.81977e-17)
(-0.061199 -0.0813058 4.09728e-17)
(-0.0634032 -0.0842414 4.4106e-17)
(-0.06573 -0.0873403 4.68859e-17)
(-0.0681883 -0.0906145 5.00367e-17)
(-0.070788 -0.0940772 5.34624e-17)
(-0.07354 -0.0977426 5.69124e-17)
(-0.0764557 -0.101626 5.98451e-17)
(-0.0795478 -0.105745 6.15529e-17)
(-0.08283 -0.110117 6.30765e-17)
(-0.0863169 -0.114761 6.36678e-17)
(-0.0900245 -0.1197 6.3864e-17)
(-0.0939699 -0.124955 6.54432e-17)
(-0.0981714 -0.130552 6.74451e-17)
(-0.102649 -0.136516 6.88078e-17)
(-0.107422 -0.142875 6.96842e-17)
(-0.112514 -0.149657 7.07992e-17)
(-0.117946 -0.156894 7.26601e-17)
(-0.123742 -0.164615 7.46167e-17)
(-0.129925 -0.172852 7.53774e-17)
(-0.13652 -0.181638 7.56354e-17)
(-0.143555 -0.19101 7.38124e-17)
(-0.151076 -0.201031 7.10878e-17)
(-0.159244 -0.211915 6.84637e-17)
(-0.168242 -0.223905 6.45979e-17)
(-0.178048 -0.236968 6.01353e-17)
(-0.188553 -0.250964 5.40136e-17)
(-0.199703 -0.26582 4.68762e-17)
(-0.211422 -0.281434 3.85728e-17)
(-0.223579 -0.297631 2.80728e-17)
(-0.235971 -0.314142 1.61872e-17)
(-0.248322 -0.3306 4.09836e-18)
(-0.26029 -0.346547 -1.22648e-17)
(-0.271494 -0.361477 -3.18169e-17)
(-0.281568 -0.374904 -5.14977e-17)
(-0.290222 -0.386439 -7.30118e-17)
(-0.297296 -0.395871 -9.69328e-17)
(-0.30279 -0.403196 -1.22971e-16)
(-0.306846 -0.408607 -1.51216e-16)
(-0.309708 -0.412428 -1.80418e-16)
(-0.311663 -0.41504 -2.10975e-16)
(-0.312983 -0.416807 -2.45041e-16)
(-0.313898 -0.418033 -2.81927e-16)
(-0.314578 -0.418945 -3.22031e-16)
(-0.315133 -0.419693 -3.65245e-16)
(-0.315631 -0.420363 -4.1183e-16)
(-0.316104 -0.421 -4.05626e-16)
(-0.316566 -0.421623 -4.49021e-16)
(-0.0168604 -0.0237715 3.777e-18)
(-0.017206 -0.0242633 3.36988e-18)
(-0.0175608 -0.024768 3.85069e-18)
(-0.0179249 -0.025286 5.20038e-18)
(-0.0182989 -0.0258181 6.52865e-18)
(-0.0186832 -0.0263647 7.38345e-18)
(-0.0190801 -0.0269293 8.02341e-18)
(-0.0194931 -0.0275166 8.21678e-18)
(-0.0199223 -0.0281266 8.02014e-18)
(-0.0203656 -0.0287566 7.32486e-18)
(-0.0208221 -0.0294053 6.21145e-18)
(-0.0212914 -0.0300724 5.38172e-18)
(-0.021774 -0.0307583 4.26585e-18)
(-0.0222702 -0.0314636 2.41213e-18)
(-0.0227808 -0.0321894 6.1668e-19)
(-0.0233064 -0.0329367 -5.54675e-19)
(-0.0238479 -0.0337066 -2.02092e-18)
(-0.0244062 -0.0345003 -3.98746e-18)
(-0.0249821 -0.0353191 -6.40922e-18)
(-0.0255766 -0.0361644 -9.00486e-18)
(-0.0261906 -0.0370375 -1.11128e-17)
(-0.0268252 -0.03794 -1.31151e-17)
(-0.0274815 -0.0388732 -1.4785e-17)
(-0.0281606 -0.0398391 -1.59732e-17)
(-0.0288638 -0.0408391 -1.66031e-17)
(-0.0295924 -0.0418752 -1.76217e-17)
(-0.0303476 -0.0429494 -1.8772e-17)
(-0.031131 -0.0440636 -1.93167e-17)
(-0.0319442 -0.0452201 -1.95386e-17)
(-0.0327887 -0.0464212 -1.94221e-17)
(-0.0336663 -0.0476695 -1.97608e-17)
(-0.0345789 -0.0489676 -2.03934e-17)
(-0.0355285 -0.0503184 -2.09357e-17)
(-0.0365173 -0.0517249 -2.08221e-17)
(-0.0375476 -0.0531904 -2.02399e-17)
(-0.0386219 -0.0547186 -1.97702e-17)
(-0.0397428 -0.0563131 -1.8636e-17)
(-0.0409133 -0.0579781 -1.62907e-17)
(-0.0421363 -0.059718 -1.28105e-17)
(-0.0434153 -0.0615374 -9.77434e-18)
(-0.0447537 -0.0634415 -6.87314e-18)
(-0.0461556 -0.0654359 -3.86305e-18)
(-0.0476251 -0.0675264 -1.42257e-18)
(-0.0491666 -0.0697196 1.00555e-18)
(-0.0507852 -0.0720224 3.58731e-18)
(-0.0524861 -0.0744423 5.54256e-18)
(-0.054275 -0.0769875 7.42329e-18)
(-0.0561583 -0.0796669 9.45241e-18)
(-0.0581426 -0.0824902 1.09076e-17)
(-0.0602353 -0.0854678 1.19881e-17)
(-0.0624444 -0.088611 1.33131e-17)
(-0.0647786 -0.0919322 1.49434e-17)
(-0.0672472 -0.0954447 1.63704e-17)
(-0.0698605 -0.0991632 1.73087e-17)
(-0.0726296 -0.103103 1.78779e-17)
(-0.0755665 -0.107282 1.81622e-17)
(-0.0786842 -0.111719 1.93046e-17)
(-0.0819968 -0.116433 2.07931e-17)
(-0.0855197 -0.121446 2.15366e-17)
(-0.0892691 -0.126781 2.16019e-17)
(-0.0932626 -0.132464 2.13461e-17)
(-0.0975191 -0.138521 2.09299e-17)
(-0.102058 -0.144981 2.01843e-17)
(-0.106901 -0.151873 1.91443e-17)
(-0.11207 -0.159229 1.80832e-17)
(-0.117587 -0.16708 1.80324e-17)
(-0.123475 -0.17546 1.79619e-17)
(-0.129758 -0.184402 1.74613e-17)
(-0.136461 -0.193942 1.68465e-17)
(-0.143629 -0.204144 1.67524e-17)
(-0.151397 -0.215202 1.66199e-17)
(-0.159942 -0.227365 1.64904e-17)
(-0.169278 -0.240651 1.74494e-17)
(-0.179307 -0.254926 1.74328e-17)
(-0.189967 -0.270098 1.71628e-17)
(-0.201188 -0.286071 1.69966e-17)
(-0.212851 -0.302671 1.53174e-17)
(-0.224766 -0.319631 1.26895e-17)
(-0.236671 -0.336579 9.49744e-18)
(-0.248239 -0.353046 7.28682e-18)
(-0.259101 -0.36851 6.48083e-18)
(-0.268897 -0.382459 3.97069e-18)
(-0.277337 -0.394479 -6.88695e-19)
(-0.284254 -0.404333 -4.99122e-18)
(-0.289637 -0.412003 -8.75257e-18)
(-0.293616 -0.417676 -1.32478e-17)
(-0.296425 -0.421685 -2.10536e-17)
(-0.298342 -0.424422 -3.04133e-17)
(-0.299633 -0.42627 -4.00837e-17)
(-0.300524 -0.427549 -5.13309e-17)
(-0.301183 -0.428496 -6.54955e-17)
(-0.301719 -0.429269 -8.24259e-17)
(-0.302198 -0.42996 -1.01245e-16)
(-0.302653 -0.430618 -7.71983e-17)
(-0.303098 -0.43126 -9.06779e-17)
(-0.015999 -0.024103 -7.4347e-18)
(-0.0163265 -0.0246017 -9.82736e-18)
(-0.0166627 -0.0251135 -1.21319e-17)
(-0.0170078 -0.0256389 -1.38807e-17)
(-0.0173623 -0.0261784 -1.50207e-17)
(-0.0177264 -0.0267327 -1.55925e-17)
(-0.0181015 -0.0273038 -1.60099e-17)
(-0.0184906 -0.027896 -1.6421e-17)
(-0.0188956 -0.0285119 -1.62478e-17)
(-0.0193151 -0.0291498 -1.58616e-17)
(-0.0197476 -0.0298075 -1.54326e-17)
(-0.0201926 -0.0304843 -1.51325e-17)
(-0.0206501 -0.0311801 -1.51653e-17)
(-0.0211207 -0.0318958 -1.50366e-17)
(-0.0216047 -0.0326321 -1.41584e-17)
(-0.022103 -0.0333901 -1.31237e-17)
(-0.0226163 -0.034171 -1.22651e-17)
(-0.0231454 -0.0349759 -1.13435e-17)
(-0.0236912 -0.0358062 -1.03073e-17)
(-0.0242545 -0.0366632 -8.93788e-18)
(-0.0248362 -0.0375484 -7.55802e-18)
(-0.0254375 -0.0384632 -6.13037e-18)
(-0.0260592 -0.0394093 -4.51631e-18)
(-0.0267025 -0.0403882 -3.29652e-18)
(-0.0273686 -0.0414018 -2.44689e-18)
(-0.0280586 -0.0424519 -1.80651e-18)
(-0.028774 -0.0435404 -1.19485e-18)
(-0.0295159 -0.0446696 -7.29983e-19)
(-0.030286 -0.0458415 -7.48419e-19)
(-0.0310857 -0.0470586 -1.56017e-18)
(-0.0319168 -0.0483234 -2.94063e-18)
(-0.032781 -0.0496387 -4.5725e-18)
(-0.0336803 -0.0510073 -6.26827e-18)
(-0.0346166 -0.0524324 -8.40393e-18)
(-0.0355921 -0.0539172 -1.04854e-17)
(-0.0366093 -0.0554654 -1.23908e-17)
(-0.0376707 -0.0570808 -1.39178e-17)
(-0.0387789 -0.0587675 -1.49062e-17)
(-0.0399368 -0.0605301 -1.56461e-17)
(-0.0411478 -0.0623733 -1.6634e-17)
(-0.042415 -0.0643022 -1.71682e-17)
(-0.0437423 -0.0663225 -1.74349e-17)
(-0.0451336 -0.0684403 -1.71859e-17)
(-0.0465931 -0.070662 -1.60001e-17)
(-0.0481255 -0.0729947 -1.46897e-17)
(-0.049736 -0.0754461 -1.32237e-17)
(-0.0514298 -0.0780245 -1.13644e-17)
(-0.0532129 -0.0807389 -1.05282e-17)
(-0.0550918 -0.0835991 -1.0594e-17)
(-0.0570733 -0.0866156 -1.02114e-17)
(-0.0591652 -0.0898002 -9.47025e-18)
(-0.0613756 -0.0931651 -9.7241e-18)
(-0.0637134 -0.0967242 -1.05448e-17)
(-0.0661885 -0.100492 -1.11175e-17)
(-0.0688112 -0.104485 -1.15447e-17)
(-0.0715932 -0.10872 -1.17856e-17)
(-0.0745467 -0.113217 -1.21185e-17)
(-0.0776853 -0.117995 -1.17175e-17)
(-0.0810235 -0.123078 -1.0977e-17)
(-0.084577 -0.128488 -1.0466e-17)
(-0.0883625 -0.134251 -1.04112e-17)
(-0.092398 -0.140395 -1.03781e-17)
(-0.0967028 -0.14695 -9.74501e-18)
(-0.101297 -0.153944 -1.00619e-17)
(-0.106201 -0.161412 -1.02738e-17)
(-0.111438 -0.169385 -1.1168e-17)
(-0.117029 -0.177898 -1.28898e-17)
(-0.122997 -0.186986 -1.31345e-17)
(-0.129367 -0.196685 -1.10765e-17)
(-0.136178 -0.207058 -8.12814e-18)
(-0.143545 -0.218278 -4.57971e-18)
(-0.151638 -0.230602 -8.99409e-20)
(-0.1605 -0.244096 3.49237e-18)
(-0.170046 -0.258633 6.63621e-18)
(-0.180206 -0.274105 1.17132e-17)
(-0.190918 -0.290417 1.83617e-17)
(-0.20207 -0.307402 2.58421e-17)
(-0.213488 -0.32479 3.19425e-17)
(-0.224923 -0.342208 3.68594e-17)
(-0.236064 -0.359177 4.30575e-17)
(-0.246556 -0.375159 5.09636e-17)
(-0.256045 -0.389618 5.72398e-17)
(-0.264245 -0.402113 6.16264e-17)
(-0.270982 -0.412383 6.43397e-17)
(-0.276235 -0.420393 6.52915e-17)
(-0.280124 -0.426327 6.47435e-17)
(-0.28287 -0.430521 6.16571e-17)
(-0.284741 -0.433383 5.46274e-17)
(-0.285999 -0.435312 4.53746e-17)
(-0.286864 -0.436642 3.46476e-17)
(-0.2875 -0.437622 2.15592e-17)
(-0.288016 -0.43842 9.26081e-18)
(-0.288476 -0.439133 1.44666e-18)
(-0.288913 -0.439809 3.02289e-17)
(-0.289339 -0.44047 2.14785e-17)
(-0.015136 -0.0244145 -8.66766e-18)
(-0.0154456 -0.0249198 -9.9987e-18)
(-0.0157633 -0.0254383 -1.12316e-17)
(-0.0160894 -0.0259706 -1.3021e-17)
(-0.0164243 -0.0265171 -1.50783e-17)
(-0.0167683 -0.0270786 -1.70952e-17)
(-0.017122 -0.0276558 -1.90207e-17)
(-0.0174878 -0.0282526 -2.12062e-17)
(-0.0178687 -0.0288739 -2.32587e-17)
(-0.0182644 -0.029519 -2.50235e-17)
(-0.0186729 -0.030185 -2.69123e-17)
(-0.0190934 -0.0308706 -2.84884e-17)
(-0.019526 -0.0315757 -2.99543e-17)
(-0.0199708 -0.032301 -3.11953e-17)
(-0.0204283 -0.0330471 -3.22962e-17)
(-0.0208993 -0.0338152 -3.32789e-17)
(-0.0213844 -0.0346063 -3.39167e-17)
(-0.0218844 -0.0354217 -3.4268e-17)
(-0.0224001 -0.0362628 -3.43556e-17)
(-0.0229323 -0.0371308 -3.38218e-17)
(-0.0234819 -0.0380273 -3.31065e-17)
(-0.0240498 -0.0389537 -3.23824e-17)
(-0.0246371 -0.0399117 -3.21365e-17)
(-0.0252447 -0.0409029 -3.18434e-17)
(-0.0258738 -0.0419291 -3.15158e-17)
(-0.0265255 -0.0429922 -3.10648e-17)
(-0.027201 -0.0440943 -3.01345e-17)
(-0.0279017 -0.0452373 -2.97101e-17)
(-0.0286289 -0.0464236 -2.99385e-17)
(-0.029384 -0.0476556 -3.01961e-17)
(-0.0301688 -0.0489359 -2.95169e-17)
(-0.0309847 -0.0502672 -2.82689e-17)
(-0.0318338 -0.0516524 -2.72441e-17)
(-0.0327178 -0.0530947 -2.65057e-17)
(-0.0336389 -0.0545974 -2.4813e-17)
(-0.0345992 -0.0561643 -2.36098e-17)
(-0.0356012 -0.0577991 -2.35942e-17)
(-0.0366474 -0.0595061 -2.39446e-17)