/*--------------------------------*- C++ -*----------------------------------*\
  =========                 |
  \\      /  F ield         | OpenFOAM: The Open Source CFD Toolbox
   \\    /   O peration     | Website:  https://openfoam.org
    \\  /    A nd           | Version:  7
     \\/     M anipulation  |
\*---------------------------------------------------------------------------*/
FoamFile
{
    version     2.0;
    format      ascii;
    class       volScalarField;
    location    "120000";
    object      p;
}
// * * * * * * * * * * * * * * * * * * * * * * * * * * * * * * * * * * * * * //

dimensions      [0 2 -2 0 0 0 0];

internalField   nonuniform List<scalar> 
4783
(
-1.1447e-18
-1.156e-18
-1.15985e-18
-1.18858e-18
-1.17098e-18
-1.18648e-18
-1.16156e-18
-1.14837e-18
-1.13445e-18
-1.17984e-18
-1.16463e-18
-1.15959e-18
-1.1576e-18
-1.14857e-18
-1.12964e-18
-1.13949e-18
-1.19593e-18
-1.1994e-18
-1.18061e-18
-1.19991e-18
-1.19947e-18
-1.15593e-18
-1.15264e-18
-1.16978e-18
-1.13974e-18
-1.15674e-18
-1.15807e-18
-1.18467e-18
-1.16503e-18
-1.16197e-18
-1.15997e-18
-1.16333e-18
-1.15567e-18
-1.15919e-18
-1.16441e-18
-1.15907e-18
-1.15461e-18
-1.15956e-18
-1.18858e-18
-1.14632e-18
-1.13209e-18
-1.1421e-18
-1.16658e-18
-1.16956e-18
-1.12943e-18
-1.12591e-18
-1.14419e-18
-1.14886e-18
-1.13447e-18
-1.15446e-18
-1.15616e-18
-1.17084e-18
-1.18885e-18
-1.18194e-18
-1.15419e-18
-1.1482e-18
-1.18178e-18
-1.16693e-18
-1.15873e-18
-1.1413e-18
-1.16383e-18
-1.15698e-18
-1.13635e-18
-1.15964e-18
-1.16681e-18
-1.17306e-18
-1.15315e-18
-1.14868e-18
-1.13169e-18
-1.13356e-18
-1.1698e-18
-1.13718e-18
-1.15209e-18
-1.15853e-18
-1.15341e-18
-1.13496e-18
-1.13889e-18
-1.17819e-18
-1.17206e-18
-1.18453e-18
-1.16746e-18
-1.15744e-18
-1.16794e-18
-1.16446e-18
-1.14068e-18
-1.16739e-18
-1.1769e-18
-1.17353e-18
-1.15288e-18
-1.14276e-18
-1.17794e-18
-1.16283e-18
-1.16595e-18
-1.16144e-18
-1.15864e-18
-1.15179e-18
-1.12124e-18
-1.14457e-18
-1.15824e-18
-1.16708e-18
-1.15899e-18
-1.13866e-18
-1.16101e-18
-1.14915e-18
-1.18368e-18
-1.17298e-18
-1.16613e-18
-1.17208e-18
-1.21084e-18
-1.19375e-18
-1.1541e-18
-1.15301e-18
-1.16412e-18
-1.16254e-18
-1.18273e-18
-1.17156e-18
-1.15789e-18
-1.16144e-18
-1.15791e-18
-1.1428e-18
-1.16131e-18
-1.16562e-18
-1.1513e-18
-1.11547e-18
-1.15583e-18
-1.16305e-18
-1.16797e-18
-1.17215e-18
-1.18764e-18
-1.16932e-18
-1.17846e-18
-1.1734e-18
-1.14358e-18
-1.15359e-18
-1.15489e-18
-1.14014e-18
-1.1627e-18
-1.17516e-18
-1.14021e-18
-1.15692e-18
-1.17949e-18
-1.16182e-18
-1.16505e-18
-1.16565e-18
-1.13477e-18
-1.11742e-18
-1.16467e-18
-1.17583e-18
-1.16334e-18
-1.16257e-18
-1.16358e-18
-1.16594e-18
-1.18748e-18
-1.18402e-18
-1.16362e-18
-1.16426e-18
-1.16736e-18
-1.17659e-18
-1.15587e-18
-1.14537e-18
-1.15283e-18
-1.13741e-18
-1.13779e-18
-1.14277e-18
-1.16887e-18
-1.18228e-18
-1.14805e-18
-1.15776e-18
-1.18853e-18
-1.20083e-18
-1.1511e-18
-1.15901e-18
-1.14545e-18
-1.14136e-18
-1.14772e-18
-1.15529e-18
-1.18158e-18
-1.19236e-18
-1.18275e-18
-1.16352e-18
-1.14409e-18
-1.17857e-18
-1.18332e-18
-1.17613e-18
-1.16252e-18
-1.17026e-18
-1.15788e-18
-1.16429e-18
-1.17997e-18
-1.16634e-18
-1.15176e-18
-1.16745e-18
-1.16017e-18
-1.16502e-18
-1.16413e-18
-1.14806e-18
-1.14661e-18
-1.16201e-18
-1.16802e-18
-1.19727e-18
-1.15079e-18
-1.15819e-18
-1.15992e-18
-1.17305e-18
-1.14272e-18
-1.15974e-18
-1.16107e-18
-1.13789e-18
-1.11949e-18
-1.14124e-18
-1.16658e-18
-1.1645e-18
-1.15733e-18
-1.1672e-18
-1.17117e-18
-1.16493e-18
-1.17256e-18
-1.18451e-18
-1.16885e-18
-1.17059e-18
-1.16068e-18
-1.16147e-18
-1.15678e-18
-1.1605e-18
-1.1606e-18
-1.14671e-18
-1.12203e-18
-1.15328e-18
-1.1578e-18
-1.15161e-18
-1.13692e-18
-1.15685e-18
-1.16488e-18
-1.16588e-18
-1.14742e-18
-1.18349e-18
-1.20686e-18
-1.16654e-18
-1.16581e-18
-1.17051e-18
-1.1555e-18
-1.18547e-18
-1.17326e-18
-1.14665e-18
-1.1526e-18
-1.15761e-18
-1.17856e-18
-1.193e-18
-1.17514e-18
-1.15619e-18
-1.15922e-18
-1.16154e-18
-1.15762e-18
-1.16811e-18
-1.18465e-18
-1.18351e-18
-1.15876e-18
-1.15709e-18
-1.20064e-18
-1.15045e-18
-1.15516e-18
-1.16698e-18
-1.15195e-18
-1.17452e-18
-1.14785e-18
-1.1715e-18
-1.16047e-18
-1.13023e-18
-1.15957e-18
-1.16128e-18
-1.16272e-18
-1.13972e-18
-1.15386e-18
-1.15785e-18
-1.16124e-18
-1.17986e-18
-1.18889e-18
-1.1698e-18
-1.16037e-18
-1.16046e-18
-1.17353e-18
-1.15118e-18
-1.18225e-18
-1.17334e-18
-1.16568e-18
-1.1654e-18
-1.15953e-18
-1.16363e-18
-1.17624e-18
-1.17014e-18
-1.17178e-18
-1.14214e-18
-1.15278e-18
-1.13725e-18
-1.14083e-18
-1.14383e-18
-1.15359e-18
-1.16468e-18
-1.18007e-18
-1.1599e-18
-1.1489e-18
-1.16523e-18
-1.17968e-18
-1.16146e-18
-1.1746e-18
-1.17403e-18
-1.17413e-18
-1.18456e-18
-1.17296e-18
-1.16079e-18
-1.15066e-18
-1.16196e-18
-1.15723e-18
-1.14822e-18
-1.13699e-18
-1.15597e-18
-1.16682e-18
-1.15604e-18
-1.14703e-18
-1.15887e-18
-1.14313e-18
-1.14613e-18
-1.16002e-18
-1.16741e-18
-1.15638e-18
-1.14751e-18
-1.17108e-18
-1.16924e-18
-1.1598e-18
-1.16083e-18
-1.18145e-18
-1.16305e-18
-1.13781e-18
-1.12365e-18
-1.12361e-18
-1.15306e-18
-1.14654e-18
-1.16161e-18
-1.17081e-18
-1.15615e-18
-1.12794e-18
-1.14401e-18
-1.16836e-18
-1.18119e-18
-1.17743e-18
-1.15467e-18
-1.17809e-18
-1.1555e-18
-1.15712e-18
-1.15208e-18
-1.16922e-18
-1.14403e-18
-1.14936e-18
-1.15738e-18
-1.13844e-18
-1.14395e-18
-1.15928e-18
-1.15178e-18
-1.14835e-18
-1.13976e-18
-1.15745e-18
-1.1831e-18
-1.16986e-18
-1.16896e-18
-1.16148e-18
-1.15681e-18
-1.14596e-18
-1.16435e-18
-1.15701e-18
-1.16095e-18
-1.18342e-18
-1.13248e-18
-1.16805e-18
-1.16521e-18
-1.17622e-18
-1.17149e-18
-1.147e-18
-1.15461e-18
-1.16425e-18
-1.15636e-18
-1.1501e-18
-1.14151e-18
-1.15327e-18
-1.15601e-18
-1.16459e-18
-1.14857e-18
-1.14843e-18
-1.16732e-18
-1.17849e-18
-1.16389e-18
-1.15522e-18
-1.14573e-18
-1.15521e-18
-1.15153e-18
-1.15307e-18
-1.15174e-18
-1.14306e-18
-1.14551e-18
-1.12943e-18
-1.17453e-18
-1.15565e-18
-1.14174e-18
-1.15878e-18
-1.15598e-18
-1.15513e-18
-1.15708e-18
-1.13057e-18
-1.1298e-18
-1.1277e-18
-1.16651e-18
-1.15408e-18
-1.15205e-18
-1.1445e-18
-1.15114e-18
-1.16077e-18
-1.15382e-18
-1.15178e-18
-1.15843e-18
-1.1524e-18
-1.15201e-18
-1.15393e-18
-1.14614e-18
-1.15644e-18
-1.16522e-18
-1.15926e-18
-1.15285e-18
-1.13961e-18
-1.15548e-18
-1.14051e-18
-1.14885e-18
-1.16782e-18
-1.15668e-18
-1.14281e-18
-1.15869e-18
-1.15026e-18
-1.13583e-18
-1.14554e-18
-1.1493e-18
-1.15122e-18
-1.1455e-18
-1.14834e-18
-1.13865e-18
-1.14931e-18
-1.16148e-18
-1.15153e-18
-1.13864e-18
-1.15155e-18
-1.15406e-18
-1.15916e-18
-1.1473e-18
-1.15127e-18
-1.14665e-18
-1.14902e-18
-1.1538e-18
-1.14828e-18
-1.14844e-18
-1.15254e-18
-1.14567e-18
-1.14024e-18
-1.15657e-18
-1.13594e-18
-1.13346e-18
-1.16682e-18
-1.14609e-18
-1.14526e-18
-1.14989e-18
-1.14663e-18
-1.15085e-18
-1.1519e-18
-1.146e-18
-1.1521e-18
-1.14999e-18
-1.14423e-18
-1.15861e-18
-1.1493e-18
-1.13787e-18
-1.16851e-18
-1.1367e-18
-1.14143e-18
-1.16482e-18
-1.14717e-18
-1.14253e-18
-1.14802e-18
-1.15012e-18
-1.14107e-18
-1.14844e-18
-1.15388e-18
-1.14362e-18
-1.15538e-18
-1.14311e-18
-1.13489e-18
-1.16223e-18
-1.1533e-18
-1.18009e-18
-1.16025e-18
-1.1615e-18
-1.16675e-18
-1.17643e-18
-1.15683e-18
-1.13856e-18
-1.15134e-18
-1.15812e-18
-1.1459e-18
-1.17156e-18
-1.15507e-18
-1.14295e-18
-1.15568e-18
-1.15896e-18
-1.1515e-18
-1.1467e-18
-1.15645e-18
-1.15571e-18
-1.14356e-18
-1.14972e-18
-1.14688e-18
-1.13554e-18
-1.15726e-18
-1.16642e-18
-1.16545e-18
-1.15607e-18
-1.15408e-18
-1.15455e-18
-1.16285e-18
-1.17002e-18
-1.15896e-18
-1.15677e-18
-1.15128e-18
-1.14187e-18
-1.13111e-18
-1.13349e-18
-1.14919e-18
-1.14788e-18
-1.1402e-18
-1.15502e-18
-1.13878e-18
-1.18189e-18
-1.16498e-18
-1.17231e-18
-1.16074e-18
-1.16903e-18
-1.15734e-18
-1.12851e-18
-1.12221e-18
-1.15578e-18
-1.17158e-18
-1.14747e-18
-1.15592e-18
-1.1583e-18
-1.15614e-18
-1.15844e-18
-1.15741e-18
-1.1572e-18
-1.16786e-18
-1.17193e-18
-1.15845e-18
-1.15649e-18
-1.15549e-18
-1.15122e-18
-1.15536e-18
-1.15513e-18
-1.15181e-18
-1.15039e-18
-1.1484e-18
-1.14949e-18
-1.14508e-18
-1.13441e-18
-1.15327e-18
-1.15381e-18
-1.14552e-18
-1.15265e-18
-1.16694e-18
-1.15165e-18
-1.14633e-18
-1.14219e-18
-1.14974e-18
-1.15115e-18
-1.17148e-18
-1.16429e-18
-1.17898e-18
-1.14061e-18
-1.15269e-18
-1.16091e-18
-1.154e-18
-1.13957e-18
-1.17002e-18
-1.16218e-18
-1.16548e-18
-1.15726e-18
-1.14128e-18
-1.1669e-18
-1.1356e-18
-1.16476e-18
-1.16793e-18
-1.16408e-18
-1.15914e-18
-1.16049e-18
-1.16092e-18
-1.15916e-18
-1.16972e-18
-1.16696e-18
-1.15742e-18
-1.14678e-18
-1.15182e-18
-1.1571e-18
-1.15617e-18
-1.15701e-18
-1.1646e-18
-1.15571e-18
-1.15323e-18
-1.15328e-18
-1.1551e-18
-1.16116e-18
-1.1577e-18
-1.15716e-18
-1.15795e-18
-1.15547e-18
-1.16438e-18
-1.12374e-18
-1.15364e-18
-1.16219e-18
-1.18044e-18
-1.15443e-18
-1.15865e-18
-1.17673e-18
-1.14222e-18
-1.15552e-18
-1.16341e-18
-1.15942e-18
-1.16063e-18
-1.1871e-18
-1.14531e-18
-1.15433e-18
-1.15308e-18
-1.14559e-18
-1.15069e-18
-1.17391e-18
-1.16152e-18
-1.15852e-18
-1.16631e-18
-1.15831e-18
-1.15775e-18
-1.15787e-18
-1.16571e-18
-1.15702e-18
-1.14835e-18
-1.16077e-18
-1.15583e-18
-1.15822e-18
-1.15992e-18
-1.16248e-18
-1.14725e-18
-1.14199e-18
-1.13846e-18
-1.13591e-18
-1.12653e-18
-1.14274e-18
-1.15194e-18
-1.15625e-18
-1.14374e-18
-1.14041e-18
-1.15419e-18
-1.17703e-18
-1.14332e-18
-1.14913e-18
-1.13736e-18
-1.15613e-18
-1.16325e-18
-1.17505e-18
-1.1603e-18
-1.16049e-18
-1.13914e-18
-1.15904e-18
-1.14527e-18
-1.15952e-18
-1.17929e-18
-1.17392e-18
-1.15905e-18
-1.16122e-18
-1.16035e-18
-1.15806e-18
-1.16177e-18
-1.16824e-18
-1.17053e-18
-1.15809e-18
-1.1558e-18
-1.16453e-18
-1.16533e-18
-1.16012e-18
-1.16285e-18
-1.16366e-18
-1.16583e-18
-1.15961e-18
-1.14955e-18
-1.15334e-18
-1.15088e-18
-1.1547e-18
-1.16419e-18
-1.1598e-18
-1.16316e-18
-1.16011e-18
-1.15318e-18
-1.12286e-18
-1.1251e-18
-1.15609e-18
-1.17493e-18
-1.15441e-18
-1.14675e-18
-1.14314e-18
-1.17457e-18
-1.14025e-18
-1.14597e-18
-1.1739e-18
-1.12563e-18
-1.1549e-18
-1.17426e-18
-1.168e-18
-1.19283e-18
-1.16825e-18
-1.15663e-18
-1.15726e-18
-1.1601e-18
-1.15497e-18
-1.14925e-18
-1.15394e-18
-1.15999e-18
-1.17114e-18
-1.16762e-18
-1.1632e-18
-1.15774e-18
-1.15536e-18
-1.14917e-18
-1.16121e-18
-1.15923e-18
-1.1475e-18
-1.148e-18
-1.14994e-18
-1.1551e-18
-1.15232e-18
-1.14108e-18
-1.14202e-18
-1.14795e-18
-1.1552e-18
-1.14903e-18
-1.1481e-18
-1.14617e-18
-1.15742e-18
-1.16227e-18
-1.15924e-18
-1.16183e-18
-1.17614e-18
-1.16456e-18
-1.13409e-18
-1.17393e-18
-1.19493e-18
-1.14462e-18
-1.15497e-18
-1.16372e-18
-1.17851e-18
-1.19026e-18
-1.16096e-18
-1.1361e-18
-1.15057e-18
-1.1723e-18
-1.18699e-18
-1.15871e-18
-1.14685e-18
-1.16296e-18
-1.15231e-18
-1.14779e-18
-1.15525e-18
-1.15305e-18
-1.14191e-18
-1.14522e-18
-1.16427e-18
-1.17355e-18
-1.15934e-18
-1.16781e-18
-1.16079e-18
-1.15967e-18
-1.1574e-18
-1.15859e-18
-1.16004e-18
-1.15961e-18
-1.15822e-18
-1.16633e-18
-1.16758e-18
-1.15089e-18
-1.14195e-18
-1.15616e-18
-1.16508e-18
-1.15382e-18
-1.1592e-18
-1.17859e-18
-1.13992e-18
-1.16003e-18
-1.16349e-18
-1.16349e-18
-1.1783e-18
-1.17948e-18
-1.16011e-18
-1.16319e-18
-1.17892e-18
-1.18286e-18
-1.16644e-18
-1.16856e-18
-1.18244e-18
-1.16075e-18
-1.145e-18
-1.15277e-18
-1.15117e-18
-1.14243e-18
-1.1549e-18
-1.1574e-18
-1.15906e-18
-1.15265e-18
-1.15702e-18
-1.15852e-18
-1.15593e-18
-1.15086e-18
-1.15354e-18
-1.15502e-18
-1.15464e-18
-1.15407e-18
-1.15787e-18
-1.1458e-18
-1.1434e-18
-1.14247e-18
-1.17898e-18
-1.14931e-18
-1.12137e-18
-1.16141e-18
-1.19267e-18
-1.16093e-18
-1.13761e-18
-1.17705e-18
-1.15347e-18
-1.15699e-18
-1.15816e-18
-1.1596e-18
-1.16392e-18
-1.17529e-18
-1.14776e-18
-1.17061e-18
-1.17146e-18
-1.14786e-18
-1.1671e-18
-1.1868e-18
-1.1837e-18
-1.16456e-18
-1.16272e-18
-1.14419e-18
-1.13593e-18
-1.15322e-18
-1.15615e-18
-1.14979e-18
-1.15566e-18
-1.15656e-18
-1.15473e-18
-1.14959e-18
-1.14989e-18
-1.15298e-18
-1.15061e-18
-1.16078e-18
-1.15405e-18
-1.15352e-18
-1.16235e-18
-1.15336e-18
-1.15653e-18
-1.15251e-18
-1.1352e-18
-1.14441e-18
-1.1273e-18
-1.17843e-18
-1.17164e-18
-1.17393e-18
-1.15701e-18
-1.17388e-18
-1.14548e-18
-1.17729e-18
-1.16352e-18
-1.15461e-18
-1.16026e-18
-1.17199e-18
-1.15735e-18
-1.15595e-18
-1.15813e-18
-1.1521e-18
-1.15445e-18
-1.14809e-18
-1.15575e-18
-1.15545e-18
-1.15561e-18
-1.14887e-18
-1.15777e-18
-1.15585e-18
-1.158e-18
-1.15713e-18
-1.15888e-18
-1.1593e-18
-1.15569e-18
-1.15657e-18
-1.15776e-18
-1.15479e-18
-1.15418e-18
-1.15483e-18
-1.16142e-18
-1.17501e-18
-1.16904e-18
-1.16246e-18
-1.15252e-18
-1.14262e-18
-1.14778e-18
-1.15851e-18
-1.15797e-18
-1.17413e-18
-1.15666e-18
-1.1573e-18
-1.15349e-18
-1.14864e-18
-1.15783e-18
-1.198e-18
-1.18245e-18
-1.16192e-18
-1.15659e-18
-1.16202e-18
-1.16915e-18
-1.14674e-18
-1.16726e-18
-1.14169e-18
-1.13892e-18
-1.1513e-18
-1.15506e-18
-1.15078e-18
-1.16414e-18
-1.16483e-18
-1.17329e-18
-1.15081e-18
-1.14599e-18
-1.15248e-18
-1.15528e-18
-1.15411e-18
-1.14779e-18
-1.15987e-18
-1.15844e-18
-1.15997e-18
-1.15331e-18
-1.14505e-18
-1.15355e-18
-1.15692e-18
-1.14924e-18
-1.12611e-18
-1.12826e-18
-1.14396e-18
-1.15461e-18
-1.15808e-18
-1.1664e-18
-1.13514e-18
-1.14488e-18
-1.15204e-18
-1.15336e-18
-1.13672e-18
-1.1535e-18
-1.17811e-18
-1.16216e-18
-1.15096e-18
-1.1387e-18
-1.15317e-18
-1.15889e-18
-1.16178e-18
-1.16903e-18
-1.14659e-18
-1.15185e-18
-1.14637e-18
-1.15524e-18
-1.15783e-18
-1.15634e-18
-1.15607e-18
-1.15733e-18
-1.15509e-18
-1.15309e-18
-1.14931e-18
-1.15456e-18
-1.15714e-18
-1.16352e-18
-1.15898e-18
-1.15746e-18
-1.16535e-18
-1.14891e-18
-1.14778e-18
-1.14756e-18
-1.14364e-18
-1.16448e-18
-1.17557e-18
-1.16543e-18
-1.16346e-18
-1.15872e-18
-1.15761e-18
-1.15023e-18
-1.1342e-18
-1.14233e-18
-1.1552e-18
-1.16407e-18
-1.18021e-18
-1.1672e-18
-1.13649e-18
-1.15083e-18
-1.15331e-18
-1.13448e-18
-1.13019e-18
-1.13886e-18
-1.17591e-18
-1.19182e-18
-1.18145e-18
-1.17739e-18
-1.17497e-18
-1.15756e-18
-1.16031e-18
-1.16737e-18
-1.15887e-18
-1.15526e-18
-1.15263e-18
-1.14344e-18
-1.15285e-18
-1.16134e-18
-1.15405e-18
-1.14261e-18
-1.14786e-18
-1.14434e-18
-1.15034e-18
-1.15202e-18
-1.15031e-18
-1.14531e-18
-1.14958e-18
-1.15109e-18
-1.15358e-18
-1.16032e-18
-1.1617e-18
-1.15219e-18
-1.14322e-18
-1.1462e-18
-1.16528e-18
-1.15623e-18
-1.14734e-18
-1.12934e-18
-1.17699e-18
-1.19981e-18
-1.19858e-18
-1.15773e-18
-1.15485e-18
-1.15186e-18
-1.15101e-18
-1.13671e-18
-1.14994e-18
-1.15967e-18
-1.17313e-18
-1.17588e-18
-1.16366e-18
-1.16855e-18
-1.15536e-18
-1.13096e-18
-1.14458e-18
-1.13781e-18
-1.1548e-18
-1.16316e-18
-1.14907e-18
-1.1482e-18
-1.14122e-18
-1.16005e-18
-1.14794e-18
-1.14787e-18
-1.15745e-18
-1.16634e-18
-1.16673e-18
-1.15761e-18
-1.15409e-18
-1.15135e-18
-1.15157e-18
-1.15367e-18
-1.15136e-18
-1.14819e-18
-1.14761e-18
-1.15492e-18
-1.16319e-18
-1.16904e-18
-1.18932e-18
-1.1631e-18
-1.15814e-18
-1.1486e-18
-1.158e-18
-1.15865e-18
-1.15275e-18
-1.13219e-18
-1.16837e-18
-1.15839e-18
-1.17086e-18
-1.16099e-18
-1.15949e-18
-1.17176e-18
-1.15808e-18
-1.15057e-18
-1.13684e-18
-1.13633e-18
-1.14059e-18
-1.15016e-18
-1.15307e-18
-1.15324e-18
-1.15393e-18
-1.14384e-18
-1.14521e-18
-1.15051e-18
-1.15473e-18
-1.15596e-18
-1.15643e-18
-1.13749e-18
-1.14245e-18
-1.13181e-18
-1.12981e-18
-1.14626e-18
-1.15227e-18
-1.15521e-18
-1.1574e-18
-1.16893e-18
-1.15768e-18
-1.1537e-18
-1.16347e-18
-1.16641e-18
-1.1629e-18
-1.16396e-18
-1.15443e-18
-1.1793e-18
-1.16016e-18
-1.17828e-18
-1.15832e-18
-1.16893e-18
-1.15479e-18
-1.14244e-18
-1.11808e-18
-1.15008e-18
-1.15133e-18
-1.13768e-18
-1.16457e-18
-1.15865e-18
-1.15449e-18
-1.15168e-18
-1.13668e-18
-1.14857e-18
-1.15338e-18
-1.15447e-18
-1.15561e-18
-1.15842e-18
-1.16727e-18
-1.16765e-18
-1.15519e-18
-1.1491e-18
-1.15482e-18
-1.15623e-18
-1.15557e-18
-1.15555e-18
-1.15576e-18
-1.15901e-18
-1.1703e-18
-1.14408e-18
-1.14482e-18
-1.13589e-18
-1.14572e-18
-1.15275e-18
-1.14903e-18
-1.14871e-18
-1.14892e-18
-1.13819e-18
-1.15411e-18
-1.14551e-18
-1.14992e-18
-1.15708e-18
-1.12665e-18
-1.13354e-18
-1.15653e-18
-1.14824e-18
-1.13486e-18
-1.15239e-18
-1.15627e-18
-1.16853e-18
-1.15772e-18
-1.14774e-18
-1.11356e-18
-1.12053e-18
-1.14739e-18
-1.14094e-18
-1.16456e-18
-1.14413e-18
-1.15375e-18
-1.16922e-18
-1.16057e-18
-1.16749e-18
-1.15883e-18
-1.15516e-18
-1.14634e-18
-1.14553e-18
-1.15862e-18
-1.15205e-18
-1.15398e-18
-1.15291e-18
-1.15258e-18
-1.14743e-18
-1.13723e-18
-1.15078e-18
-1.15296e-18
-1.15282e-18
-1.15245e-18
-1.15242e-18
-1.15069e-18
-1.15608e-18
-1.16965e-18
-1.15452e-18
-1.15046e-18
-1.14832e-18
-1.13636e-18
-1.14859e-18
-1.16294e-18
-1.16082e-18
-1.1253e-18
-1.17907e-18
-1.16576e-18
-1.15707e-18
-1.14673e-18
-1.1477e-18
-1.15755e-18
-1.16298e-18
-1.15641e-18
-1.15416e-18
-1.15415e-18
-1.17129e-18
-1.17163e-18
-1.15914e-18
-1.17437e-18
-1.16914e-18
-1.15777e-18
-1.15139e-18
-1.14052e-18
-1.15095e-18
-1.15613e-18
-1.16702e-18
-1.17299e-18
-1.17745e-18
-1.16578e-18
-1.17723e-18
-1.1759e-18
-1.16103e-18
-1.157e-18
-1.16138e-18
-1.16933e-18
-1.17113e-18
-1.15876e-18
-1.14806e-18
-1.13597e-18
-1.15248e-18
-1.16881e-18
-1.15856e-18
-1.16387e-18
-1.15286e-18
-1.1493e-18
-1.14715e-18
-1.13906e-18
-1.14667e-18
-1.1535e-18
-1.1526e-18
-1.15488e-18
-1.14323e-18
-1.19426e-18
-1.18785e-18
-1.18219e-18
-1.15385e-18
-1.13176e-18
-1.1554e-18
-1.17538e-18
-1.15682e-18
-1.14843e-18
-1.15589e-18
-1.16708e-18
-1.14025e-18
-1.14785e-18
-1.15083e-18
-1.14147e-18
-1.14612e-18
-1.13613e-18
-1.13474e-18
-1.13703e-18
-1.13714e-18
-1.14005e-18
-1.15037e-18
-1.15289e-18
-1.15321e-18
-1.15415e-18
-1.1533e-18
-1.15229e-18
-1.15147e-18
-1.15691e-18
-1.17402e-18
-1.17773e-18
-1.17317e-18
-1.15369e-18
-1.14101e-18
-1.16551e-18
-1.17371e-18
-1.1615e-18
-1.1673e-18
-1.15203e-18
-1.13735e-18
-1.15362e-18
-1.16645e-18
-1.15258e-18
-1.15309e-18
-1.15489e-18
-1.15675e-18
-1.12561e-18
-1.18377e-18
-1.16543e-18
-1.15821e-18
-1.14678e-18
-1.1494e-18
-1.15521e-18
-1.18015e-18
-1.1723e-18
-1.1374e-18
-1.15249e-18
-1.15636e-18
-1.14917e-18
-1.15091e-18
-1.15609e-18
-1.16675e-18
-1.155e-18
-1.1529e-18
-1.16504e-18
-1.15734e-18
-1.16068e-18
-1.14388e-18
-1.14995e-18
-1.15538e-18
-1.16163e-18
-1.13836e-18
-1.15255e-18
-1.16653e-18
-1.14608e-18
-1.153e-18
-1.15932e-18
-1.14083e-18
-1.14764e-18
-1.15287e-18
-1.15057e-18
-1.14922e-18
-1.14459e-18
-1.13076e-18
-1.14227e-18
-1.14782e-18
-1.14698e-18
-1.14718e-18
-1.14473e-18
-1.13492e-18
-1.1409e-18
-1.13511e-18
-1.14507e-18
-1.12854e-18
-1.15977e-18
-1.15823e-18
-1.14727e-18
-1.11167e-18
-1.1426e-18
-1.1323e-18
-1.17596e-18
-1.17617e-18
-1.15441e-18
-1.16969e-18
-1.17421e-18
-1.15913e-18
-1.14923e-18
-1.15098e-18
-1.15383e-18
-1.14556e-18
-1.13799e-18
-1.15904e-18
-1.15171e-18
-1.15021e-18
-1.14593e-18
-1.15101e-18
-1.15579e-18
-1.13575e-18
-1.12994e-18
-1.1497e-18
-1.16734e-18
-1.1563e-18
-1.1524e-18
-1.15167e-18
-1.14934e-18
-1.15651e-18
-1.16108e-18
-1.15576e-18
-1.15409e-18
-1.15661e-18
-1.16828e-18
-1.15724e-18
-1.15277e-18
-1.14935e-18
-1.14342e-18
-1.16468e-18
-1.15916e-18
-1.15372e-18
-1.15424e-18
-1.16151e-18
-1.17748e-18
-1.15748e-18
-1.1519e-18
-1.14973e-18
-1.12708e-18
-1.1501e-18
-1.13507e-18
-1.16947e-18
-1.16178e-18
-1.15243e-18
-1.13668e-18
-1.1507e-18
-1.16213e-18
-1.13713e-18
-1.15119e-18
-1.16216e-18
-1.13532e-18
-1.13984e-18
-1.13633e-18
-1.1494e-18
-1.16665e-18
-1.12338e-18
-1.13085e-18
-1.16791e-18
-1.17392e-18
-1.16994e-18
-1.15474e-18
-1.15622e-18
-1.16321e-18
-1.13924e-18
-1.14994e-18
-1.167e-18
-1.15095e-18
-1.13381e-18
-1.14062e-18
-1.13402e-18
-1.14202e-18
-1.15291e-18
-1.16312e-18
-1.15119e-18
-1.15238e-18
-1.16699e-18
-1.17298e-18
-1.16464e-18
-1.13413e-18
-1.12963e-18
-1.14486e-18
-1.15121e-18
-1.1613e-18
-1.14508e-18
-1.13426e-18
-1.14614e-18
-1.14961e-18
-1.17947e-18
-1.17442e-18
-1.15602e-18
-1.17178e-18
-1.17137e-18
-1.145e-18
-1.13031e-18
-1.13406e-18
-1.14245e-18
-1.14858e-18
-1.14601e-18
-1.12102e-18
-1.14109e-18
-1.14718e-18
-1.15434e-18
-1.14745e-18
-1.14256e-18
-1.14677e-18
-1.16675e-18
-1.1556e-18
-1.15873e-18
-1.14792e-18
-1.14808e-18
-1.14604e-18
-1.13303e-18
-1.14431e-18
-1.14933e-18
-1.15266e-18
-1.15676e-18
-1.13963e-18
-1.15314e-18
-1.14109e-18
-1.15705e-18
-1.14858e-18
-1.14433e-18
-1.14413e-18
-1.14516e-18
-1.14592e-18
-1.14619e-18
-1.14652e-18
-1.14813e-18
-1.14979e-18
-1.15058e-18
-1.15726e-18
-1.129e-18
-1.16713e-18
-1.1301e-18
-1.1309e-18
-1.18123e-18
-1.1744e-18
-1.13204e-18
-1.15116e-18
-1.1534e-18
-1.13272e-18
-1.14551e-18
-1.14785e-18
-1.13606e-18
-1.15329e-18
-1.16358e-18
-1.1494e-18
-1.15432e-18
-1.13806e-18
-1.13868e-18
-1.12286e-18
-1.13584e-18
-1.13711e-18
-1.17631e-18
-1.15765e-18
-1.14999e-18
-1.14818e-18
-1.14863e-18
-1.14857e-18
-1.15148e-18
-1.1667e-18
-1.16727e-18
-1.14979e-18
-1.1457e-18
-1.1493e-18
-1.16569e-18
-1.16129e-18
-1.13713e-18
-1.14e-18
-1.1437e-18
-1.14498e-18
-1.14441e-18
-1.14182e-18
-1.14595e-18
-1.1466e-18
-1.14507e-18
-1.14195e-18
-1.14694e-18
-1.15049e-18
-1.18808e-18
-1.15262e-18
-1.15667e-18
-1.15245e-18
-1.15117e-18
-1.17516e-18
-1.15445e-18
-1.13084e-18
-1.14854e-18
-1.16253e-18
-1.13511e-18
-1.15414e-18
-1.16899e-18
-1.15633e-18
-1.17684e-18
-1.17076e-18
-1.14888e-18
-1.13597e-18
-1.1448e-18
-1.14454e-18
-1.13946e-18
-1.12082e-18
-1.13978e-18
-1.15001e-18
-1.14673e-18
-1.14413e-18
-1.14023e-18
-1.12669e-18
-1.13846e-18
-1.14198e-18
-1.14769e-18
-1.16192e-18
-1.13761e-18
-1.15229e-18
-1.14719e-18
-1.14332e-18
-1.14386e-18
-1.14254e-18
-1.1422e-18
-1.14222e-18
-1.14155e-18
-1.14096e-18
-1.13997e-18
-1.13578e-18
-1.12569e-18
-1.13618e-18
-1.13995e-18
-1.13527e-18
-1.12452e-18
-1.18927e-18
-1.16638e-18
-1.15151e-18
-1.17707e-18
-1.15699e-18
-1.15627e-18
-1.15336e-18
-1.16664e-18
-1.14973e-18
-1.13456e-18
-1.14884e-18
-1.16803e-18
-1.15388e-18
-1.14534e-18
-1.13943e-18
-1.16009e-18
-1.14795e-18
-1.14878e-18
-1.15395e-18
-1.12516e-18
-1.13403e-18
-1.12249e-18
-1.14632e-18
-1.16497e-18
-1.15563e-18
-1.16561e-18
-1.16803e-18
-1.15311e-18
-1.16133e-18
-1.14865e-18
-1.14276e-18
-1.14776e-18
-1.15729e-18
-1.14575e-18
-1.13869e-18
-1.12653e-18
-1.1377e-18
-1.14151e-18
-1.14193e-18
-1.14567e-18
-1.15567e-18
-1.14065e-18
-1.1263e-18
-1.13776e-18
-1.14265e-18
-1.14753e-18
-1.15664e-18
-1.14321e-18
-1.1422e-18
-1.147e-18
-1.1636e-18
-1.18807e-18
-1.12908e-18
-1.17436e-18
-1.16252e-18
-1.16972e-18
-1.15326e-18
-1.15423e-18
-1.14933e-18
-1.14566e-18
-1.14933e-18
-1.14701e-18
-1.13073e-18
-1.13047e-18
-1.1397e-18
-1.13042e-18
-1.12186e-18
-1.14392e-18
-1.15128e-18
-1.14492e-18
-1.14267e-18
-1.14665e-18
-1.16647e-18
-1.15899e-18
-1.14557e-18
-1.1444e-18
-1.14186e-18
-1.13918e-18
-1.14395e-18
-1.15279e-18
-1.14186e-18
-1.13885e-18
-1.14063e-18
-1.14582e-18
-1.15976e-18
-1.16025e-18
-1.14374e-18
-1.12882e-18
-1.13588e-18
-1.13876e-18
-1.13985e-18
-1.13684e-18
-1.13085e-18
-1.13586e-18
-1.13861e-18
-1.13859e-18
-1.13798e-18
-1.1345e-18
-1.11962e-18
-1.12e-18
-1.14958e-18
-1.13069e-18
-1.11883e-18
-1.15725e-18
-1.17296e-18
-1.15202e-18
-1.15322e-18
-1.15341e-18
-1.15387e-18
-1.14791e-18
-1.14391e-18
-1.13201e-18
-1.14039e-18
-1.12948e-18
-1.13385e-18
-1.14763e-18
-1.15875e-18
-1.15183e-18
-1.14386e-18
-1.1367e-18
-1.13522e-18
-1.12731e-18
-1.16232e-18
-1.15023e-18
-1.1398e-18
-1.12793e-18
-1.14027e-18
-1.14545e-18
-1.16e-18
-1.16445e-18
-1.15915e-18
-1.16218e-18
-1.16341e-18
-1.15699e-18
-1.13374e-18
-1.13833e-18
-1.1415e-18
-1.14001e-18
-1.14049e-18
-1.14436e-18
-1.15463e-18
-1.13818e-18
-1.12171e-18
-1.1331e-18
-1.13875e-18
-1.13482e-18
-1.12635e-18
-1.13451e-18
-1.13788e-18
-1.13623e-18
-1.15597e-18
-1.14387e-18
-1.13781e-18
-1.15065e-18
-1.15317e-18
-1.13165e-18
-1.16589e-18
-1.158e-18
-1.16539e-18
-1.14705e-18
-1.12939e-18
-1.14363e-18
-1.14381e-18
-1.13356e-18
-1.15742e-18
-1.14515e-18
-1.13212e-18
-1.15289e-18
-1.12556e-18
-1.13367e-18
-1.12618e-18
-1.16945e-18
-1.16925e-18
-1.1368e-18
-1.13986e-18
-1.14196e-18
-1.14062e-18
-1.13909e-18
-1.14074e-18
-1.14015e-18
-1.13889e-18
-1.1386e-18
-1.13918e-18
-1.14075e-18
-1.13457e-18
-1.12457e-18
-1.13638e-18
-1.13857e-18
-1.13866e-18
-1.13835e-18
-1.1339e-18
-1.12329e-18
-1.13365e-18
-1.13904e-18
-1.1439e-18
-1.15383e-18
-1.14372e-18
-1.13882e-18
-1.14223e-18
-1.14872e-18
-1.17627e-18
-1.15298e-18
-1.12586e-18
-1.14119e-18
-1.15251e-18
-1.14634e-18
-1.15264e-18
-1.14631e-18
-1.12846e-18
-1.14024e-18
-1.13334e-18
-1.16159e-18
-1.1477e-18
-1.12611e-18
-1.12829e-18
-1.13569e-18
-1.1215e-18
-1.15404e-18
-1.14328e-18
-1.13129e-18
-1.14018e-18
-1.14932e-18
-1.14619e-18
-1.1436e-18
-1.14355e-18
-1.14487e-18
-1.14126e-18
-1.14465e-18
-1.1552e-18
-1.14433e-18
-1.14098e-18
-1.13837e-18
-1.13848e-18
-1.13683e-18
-1.1277e-18
-1.13959e-18
-1.15785e-18
-1.1505e-18
-1.15629e-18
-1.14383e-18
-1.14239e-18
-1.14936e-18
-1.1273e-18
-1.12849e-18
-1.12248e-18
-1.13229e-18
-1.13208e-18
-1.12347e-18
-1.13559e-18
-1.14299e-18
-1.1289e-18
-1.14121e-18
-1.13877e-18
-1.13064e-18
-1.17216e-18
-1.15392e-18
-1.1492e-18
-1.13923e-18
-1.11309e-18
-1.14602e-18
-1.14389e-18
-1.15021e-18
-1.16391e-18
-1.14539e-18
-1.14318e-18
-1.15197e-18
-1.15818e-18
-1.15154e-18
-1.14694e-18
-1.14279e-18
-1.13232e-18
-1.14135e-18
-1.14359e-18
-1.14371e-18
-1.14237e-18
-1.14193e-18
-1.14018e-18
-1.14697e-18
-1.15616e-18
-1.14218e-18
-1.14059e-18
-1.15318e-18
-1.14613e-18
-1.14417e-18
-1.15558e-18
-1.14616e-18
-1.14263e-18
-1.1436e-18
-1.14441e-18
-1.14189e-18
-1.14223e-18
-1.14306e-18
-1.14174e-18
-1.14035e-18
-1.14071e-18
-1.14182e-18
-1.13984e-18
-1.13671e-18
-1.13258e-18
-1.13885e-18
-1.14315e-18
-1.1238e-18
-1.14421e-18
-1.14552e-18
-1.17456e-18
-1.15361e-18
-1.1439e-18
-1.12772e-18
-1.14761e-18
-1.15986e-18
-1.11487e-18
-1.13075e-18
-1.1749e-18
-1.15295e-18
-1.14627e-18
-1.15646e-18
-1.13602e-18
-1.14474e-18
-1.15174e-18
-1.1612e-18
-1.15942e-18
-1.15055e-18
-1.14722e-18
-1.14907e-18
-1.16114e-18
-1.16621e-18
-1.15478e-18
-1.16293e-18
-1.15002e-18
-1.139e-18
-1.12974e-18
-1.15241e-18
-1.15646e-18
-1.13747e-18
-1.11619e-18
-1.1181e-18
-1.13243e-18
-1.1379e-18
-1.13838e-18
-1.13761e-18
-1.13799e-18
-1.13465e-18
-1.11838e-18
-1.11783e-18
-1.13233e-18
-1.13833e-18
-1.13821e-18
-1.13806e-18
-1.12959e-18
-1.12431e-18
-1.16628e-18
-1.15291e-18
-1.14713e-18
-1.12466e-18
-1.15359e-18
-1.17124e-18
-1.14944e-18
-1.14545e-18
-1.16619e-18
-1.15058e-18
-1.12391e-18
-1.1393e-18
-1.15152e-18
-1.15873e-18
-1.13418e-18
-1.14607e-18
-1.14791e-18
-1.15171e-18
-1.16881e-18
-1.15022e-18
-1.14694e-18
-1.14359e-18
-1.13554e-18
-1.14376e-18
-1.13642e-18
-1.15679e-18
-1.14511e-18
-1.16307e-18
-1.16076e-18
-1.12841e-18
-1.1336e-18
-1.12888e-18
-1.1431e-18
-1.15948e-18
-1.1449e-18
-1.14225e-18
-1.14414e-18
-1.14822e-18
-1.15783e-18
-1.14122e-18
-1.12507e-18
-1.13662e-18
-1.14024e-18
-1.14255e-18
-1.13742e-18
-1.12938e-18
-1.13726e-18
-1.13796e-18
-1.13846e-18
-1.12916e-18
-1.10891e-18
-1.17717e-18
-1.15207e-18
-1.14023e-18
-1.1527e-18
-1.17282e-18
-1.14968e-18
-1.14905e-18
-1.15027e-18
-1.1431e-18
-1.12546e-18
-1.12836e-18
-1.14195e-18
-1.14441e-18
-1.14507e-18
-1.16397e-18
-1.16343e-18
-1.14369e-18
-1.13039e-18
-1.13201e-18
-1.1561e-18
-1.15014e-18
-1.15e-18
-1.16342e-18
-1.14008e-18
-1.14423e-18
-1.14503e-18
-1.14351e-18
-1.1454e-18
-1.13948e-18
-1.12865e-18
-1.1525e-18
-1.14607e-18
-1.1411e-18
-1.13886e-18
-1.13872e-18
-1.14061e-18
-1.13737e-18
-1.13279e-18
-1.12621e-18
-1.14202e-18
-1.14556e-18
-1.15322e-18
-1.13026e-18
-1.12843e-18
-1.13808e-18
-1.14223e-18
-1.14025e-18
-1.1408e-18
-1.13981e-18
-1.13525e-18
-1.18182e-18
-1.15256e-18
-1.14687e-18
-1.14655e-18
-1.14894e-18
-1.14356e-18
-1.1613e-18
-1.14783e-18
-1.14508e-18
-1.14047e-18
-1.14023e-18
-1.13307e-18
-1.14163e-18
-1.13284e-18
-1.14499e-18
-1.14094e-18
-1.12984e-18
-1.14061e-18
-1.14475e-18
-1.14656e-18
-1.15159e-18
-1.14398e-18
-1.1351e-18
-1.13189e-18
-1.14416e-18
-1.15303e-18
-1.14405e-18
-1.12592e-18
-1.13593e-18
-1.14015e-18
-1.13921e-18
-1.13998e-18
-1.13788e-18
-1.13761e-18
-1.13869e-18
-1.13579e-18
-1.13401e-18
-1.12242e-18
-1.13032e-18
-1.1429e-18
-1.15816e-18
-1.14825e-18
-1.13495e-18
-1.13823e-18
-1.13518e-18
-1.14288e-18
-1.13824e-18
-1.13778e-18
-1.14078e-18
-1.12975e-18
-1.15462e-18
-1.14518e-18
-1.1453e-18
-1.1498e-18
-1.14149e-18
-1.13889e-18
-1.13071e-18
-1.14174e-18
-1.14441e-18
-1.13132e-18
-1.14295e-18
-1.16407e-18
-1.15145e-18
-1.16053e-18
-1.15986e-18
-1.13315e-18
-1.144e-18
-1.15803e-18
-1.15027e-18
-1.14522e-18
-1.13785e-18
-1.14172e-18
-1.1443e-18
-1.14087e-18
-1.14341e-18
-1.1435e-18
-1.1445e-18
-1.145e-18
-1.15831e-18
-1.14576e-18
-1.14586e-18
-1.16466e-18
-1.15462e-18
-1.15874e-18
-1.14487e-18
-1.13948e-18
-1.13022e-18
-1.15356e-18
-1.15236e-18
-1.15612e-18
-1.14147e-18
-1.13521e-18
-1.13776e-18
-1.14328e-18
-1.13365e-18
-1.13654e-18
-1.13828e-18
-1.14362e-18
-1.15057e-18
-1.16666e-18
-1.15286e-18
-1.15364e-18
-1.15247e-18
-1.17005e-18
-1.12409e-18
-1.11936e-18
-1.15247e-18
-1.14772e-18
-1.16487e-18
-1.15792e-18
-1.11649e-18
-1.139e-18
-1.12342e-18
-1.11303e-18
-1.13793e-18
-1.14659e-18
-1.15991e-18
-1.15109e-18
-1.15902e-18
-1.15764e-18
-1.14154e-18
-1.13409e-18
-1.14149e-18
-1.14019e-18
-1.13784e-18
-1.14365e-18
-1.14977e-18
-1.15042e-18
-1.15997e-18
-1.14611e-18
-1.14369e-18
-1.13185e-18
-1.12497e-18
-1.12893e-18
-1.13381e-18
-1.13568e-18
-1.13023e-18
-1.12796e-18
-1.13744e-18
-1.1418e-18
-1.13374e-18
-1.12889e-18
-1.13585e-18
-1.1435e-18
-1.13953e-18
-1.14189e-18
-1.14598e-18
-1.15316e-18
-1.13985e-18
-1.12501e-18
-1.14659e-18
-1.17317e-18
-1.1789e-18
-1.1703e-18
-1.13551e-18
-1.11403e-18
-1.12831e-18
-1.14245e-18
-1.15169e-18
-1.14088e-18
-1.12041e-18
-1.1349e-18
-1.12387e-18
-1.12182e-18
-1.14485e-18
-1.16064e-18
-1.14836e-18
-1.14101e-18
-1.1445e-18
-1.14057e-18
-1.13311e-18
-1.14611e-18
-1.14371e-18
-1.14375e-18
-1.14933e-18
-1.1407e-18
-1.13762e-18
-1.13055e-18
-1.14705e-18
-1.14984e-18
-1.14358e-18
-1.1464e-18
-1.14216e-18
-1.14095e-18
-1.14292e-18
-1.14663e-18
-1.14186e-18
-1.14047e-18
-1.14022e-18
-1.13158e-18
-1.14196e-18
-1.14149e-18
-1.14691e-18
-1.14736e-18
-1.14925e-18
-1.14992e-18
-1.14018e-18
-1.13246e-18
-1.13088e-18
-1.13687e-18
-1.14446e-18
-1.14926e-18
-1.17476e-18
-1.15007e-18
-1.14135e-18
-1.14087e-18
-1.15948e-18
-1.14667e-18
-1.15856e-18
-1.12492e-18
-1.12172e-18
-1.14441e-18
-1.15836e-18
-1.14556e-18
-1.14628e-18
-1.16227e-18
-1.1577e-18
-1.1325e-18
-1.14902e-18
-1.14536e-18
-1.15343e-18
-1.16024e-18