/*--------------------------------*- C++ -*----------------------------------*\
  =========                 |
  \\      /  F ield         | OpenFOAM: The Open Source CFD Toolbox
   \\    /   O peration     | Website:  https://openfoam.org
    \\  /    A nd           | Version:  7
     \\/     M anipulation  |
\*---------------------------------------------------------------------------*/
FoamFile
{
    version     2.0;
    format      ascii;
    class       volVectorField;
    location    "120000";
    object      vorticity;
}
// * * * * * * * * * * * * * * * * * * * * * * * * * * * * * * * * * * * * * //

dimensions      [0 0 -1 0 0 0 0];

internalField   nonuniform List<vector> 
4783
(
(-0.00137786 0.00302995 -2.75634e-17)
(-0.00255255 0.00192731 -2.52978e-17)
(-0.00240838 0.00203984 1.10308e-17)
(-0.00226851 0.00210641 1.88112e-17)
(-0.00213166 0.00215044 8.5889e-18)
(-0.00199913 0.00217992 1.33915e-18)
(-0.00187058 0.00219937 -7.42112e-18)
(-0.00174558 0.00221136 -1.20527e-17)
(-0.00162388 0.00221749 -3.97529e-18)
(-0.00150533 0.00221888 1.05624e-17)
(-0.00138984 0.0022164 1.3203e-17)
(-0.00127736 0.00221076 7.26795e-18)
(-0.00116785 0.00220261 2.01723e-18)
(-0.00106125 0.00219253 3.16537e-18)
(-0.000957515 0.00218106 9.16646e-18)
(-0.000856549 0.00216872 1.32418e-17)
(-0.000758238 0.00215599 1.32025e-17)
(-0.000662436 0.00214333 8.54014e-18)
(-0.000568962 0.00213117 -3.73982e-19)
(-0.000477597 0.00211993 -7.96754e-18)
(-0.000388091 0.00210995 -1.24464e-17)
(-0.000300158 0.00210157 -1.53122e-17)
(-0.00146717 0.00379009 2.91293e-18)
(-0.00257555 0.00261432 -9.22332e-18)
(-0.00248299 0.00262167 -9.57296e-18)
(-0.00236933 0.00262466 -4.99127e-18)
(-0.00224307 0.00262199 -8.01409e-19)
(-0.00211308 0.00261301 1.36048e-18)
(-0.00198321 0.00259925 2.61826e-18)
(-0.00185506 0.00258225 1.20536e-18)
(-0.00172925 0.00256313 -2.43056e-19)
(-0.00160604 0.00254269 1.63375e-18)
(-0.00148551 0.00252148 3.62877e-18)
(-0.00136771 0.00249993 4.37061e-18)
(-0.00125264 0.00247838 6.64446e-18)
(-0.00114026 0.00245714 9.79095e-18)
(-0.00103053 0.00243648 1.01315e-17)
(-0.000923373 0.00241667 7.57793e-18)
(-0.000818672 0.00239796 8.54626e-18)
(-0.000716292 0.0023806 1.07487e-17)
(-0.000616058 0.00236482 3.10841e-18)
(-0.000517768 0.00235084 -6.11626e-18)
(-0.000421184 0.00233886 -8.36984e-18)
(-0.000326043 0.00232905 -1.05257e-17)
(-0.00163641 0.00405373 2.97196e-18)
(-0.00269485 0.00283223 -1.36716e-18)
(-0.00258006 0.00282014 -3.07726e-18)
(-0.00246862 0.00281096 -3.83029e-18)
(-0.00234814 0.00280476 -1.96181e-18)
(-0.00222162 0.00279713 7.43664e-19)
(-0.00209236 0.0027867 1.23904e-18)
(-0.00196265 0.00277354 1.72224e-18)
(-0.00183384 0.0027582 2.78532e-18)
(-0.00170667 0.00274127 3.10846e-18)
(-0.00158154 0.00272328 2.21378e-18)
(-0.00145867 0.00270467 3.15225e-18)
(-0.00133815 0.00268584 6.26263e-18)
(-0.00122003 0.00266709 8.19781e-18)
(-0.00110428 0.00264875 6.84635e-18)
(-0.000990868 0.00263107 2.67217e-18)
(-0.000879696 0.00261432 4.37655e-18)
(-0.000770644 0.00259874 7.62955e-18)
(-0.000663558 0.00258455 3.79999e-19)
(-0.000558252 0.00257197 -8.4893e-18)
(-0.000454511 0.00256117 -9.11611e-18)
(-0.000352093 0.00255233 -9.19319e-18)
(-0.00181147 0.00422964 6.28372e-18)
(-0.00284037 0.00302677 4.68535e-19)
(-0.00270437 0.00300814 -1.15374e-18)
(-0.00258102 0.00299166 1.70217e-19)
(-0.00245639 0.00298105 1.17877e-18)
(-0.00232865 0.0029726 2.56374e-18)
(-0.00219839 0.00296395 2.73451e-18)
(-0.00206688 0.00295402 2.77493e-18)
(-0.00193532 0.00294256 3.28646e-18)
(-0.00180457 0.0029297 2.01138e-18)
(-0.00167518 0.00291574 6.89945e-19)
(-0.00154753 0.002901 1.23704e-18)
(-0.00142182 0.00288582 4.27843e-18)
(-0.00129815 0.0028705 4.92233e-18)
(-0.00117657 0.00285534 3.42048e-18)
(-0.00105706 0.00284059 1.02367e-18)
(-0.000939562 0.00282651 1.59096e-18)
(-0.000823976 0.00281334 3.88849e-18)
(-0.000710171 0.00280129 -1.82351e-18)
(-0.000597983 0.00279056 -9.94504e-18)
(-0.000487218 0.00278132 -1.0647e-17)
(-0.000377657 0.00277374 -8.38758e-18)
(-0.00198399 0.00438604 4.08746e-18)
(-0.00299056 0.00320708 2.01359e-18)
(-0.00284162 0.00319184 3.22516e-19)
(-0.00270581 0.00317464 -6.95304e-20)
(-0.00257256 0.00316218 2.31036e-18)
(-0.00243939 0.00315283 4.99851e-18)
(-0.00230535 0.00314479 4.5089e-18)
(-0.00217054 0.00313677 3.94525e-18)
(-0.00203552 0.00312809 4.13993e-18)
(-0.00190091 0.00311848 1.33116e-18)
(-0.00176721 0.00310797 -8.63445e-19)
(-0.00163482 0.00309671 2.07343e-18)
(-0.00150398 0.00308492 4.6335e-18)
(-0.00137486 0.00307285 1.5217e-18)
(-0.00124754 0.00306074 -1.70388e-18)
(-0.00112204 0.00304884 -1.93804e-18)
(-0.000998317 0.00303738 -8.6979e-19)
(-0.000876308 0.00302657 4.497e-19)
(-0.000755901 0.00301662 -3.21538e-18)
(-0.000636952 0.00300772 -8.94624e-18)
(-0.000519291 0.00300003 -8.34646e-18)
(-0.000402722 0.0029937 -5.34946e-18)
(-0.00215376 0.00453484 -3.71676e-18)
(-0.00314001 0.0033786 9.04616e-19)
(-0.00298286 0.00336927 9.53657e-19)
(-0.00283725 0.0033554 1.28431e-18)
(-0.00269509 0.00334423 2.19171e-18)
(-0.00255473 0.00333552 5.50555e-18)
(-0.00241499 0.00332841 6.07952e-18)
(-0.00227537 0.00332197 4.75091e-18)
(-0.00213588 0.00331548 3.48945e-18)
(-0.0019968 0.00330853 6.84736e-19)
(-0.00185846 0.00330094 -8.67055e-19)
(-0.00172115 0.00329273 2.94506e-18)
(-0.00158512 0.00328399 4.83122e-18)
(-0.00145054 0.00327489 -1.94949e-18)
(-0.0013175 0.00326563 -6.16011e-18)
(-0.00118604 0.00325639 -3.39449e-18)
(-0.00105616 0.0032474 -1.08062e-18)
(-0.000927806 0.00323883 -1.70364e-19)
(-0.000800883 0.00323089 -2.17848e-18)
(-0.000675271 0.00322373 -6.60825e-18)
(-0.00055082 0.00321752 -6.0762e-18)
(-0.000427356 0.00321238 -3.12807e-18)
(-0.00232129 0.0046797 -4.275e-18)
(-0.00328787 0.00354499 2.61949e-18)
(-0.00312459 0.00354163 3.82669e-18)
(-0.00297128 0.00353262 3.76096e-18)
(-0.00282122 0.00352472 3.7361e-18)
(-0.00267352 0.00351824 5.31134e-18)
(-0.00252729 0.00351297 5.36633e-18)
(-0.00238191 0.00350842 4.09034e-18)
(-0.00223714 0.00350408 2.72041e-18)
(-0.00209297 0.00349954 3.69912e-19)
(-0.00194955 0.00349458 -7.4967e-19)
(-0.00180705 0.00348911 2.77807e-18)
(-0.00166566 0.00348314 3.44546e-18)
(-0.00152552 0.00347678 -4.34537e-18)
(-0.00138672 0.00347014 -8.48161e-18)
(-0.00124932 0.0034634 -3.30151e-18)
(-0.0011133 0.00345672 -2.57404e-19)
(-0.00097864 0.00345027 -9.40657e-19)
(-0.000845261 0.00344422 -1.81599e-18)
(-0.000713058 0.00343871 -4.88387e-18)
(-0.000581899 0.0034339 -6.03172e-18)
(-0.000451631 0.00342989 -4.49103e-18)
(-0.00248706 0.00482232 4.7868e-18)
(-0.00343432 0.00370824 6.15835e-18)
(-0.00326576 0.00371046 7.51719e-18)
(-0.00310597 0.00370665 6.18818e-18)
(-0.00294896 0.00370295 5.16122e-18)
(-0.00279434 0.00369976 6.35153e-18)
(-0.00264151 0.00369719 6.63775e-18)
(-0.00248998 0.00369506 4.16145e-18)
(-0.00233943 0.00369309 2.23931e-18)
(-0.00218971 0.00369099 -1.50168e-19)
(-0.00204082 0.00368855 -2.70459e-18)
(-0.00189286 0.00368566 -1.31511e-18)
(-0.00174591 0.00368229 -5.94141e-19)
(-0.00160009 0.00367848 -5.1102e-18)
(-0.00145546 0.00367431 -7.94554e-18)
(-0.00131207 0.00366991 -2.70136e-18)
(-0.00116991 0.00366542 1.29607e-18)
(-0.00102896 0.00366097 6.41109e-19)
(-0.000889161 0.00365671 -5.78822e-19)
(-0.000750417 0.00365277 -3.73009e-18)
(-0.000612614 0.00364928 -6.62407e-18)
(-0.000475612 0.00364635 -7.0953e-18)
(-0.0026514 0.0049636 1.249e-17)
(-0.00357967 0.00386945 1.0467e-17)
(-0.00340617 0.00387691 1.08266e-17)
(-0.00324052 0.00387826 8.29217e-18)
(-0.00307724 0.00387908 6.40908e-18)
(-0.00291615 0.00387974 5.81178e-18)
(-0.0027569 0.00388045 6.12486e-18)
(-0.00259914 0.00388121 4.33968e-18)
(-0.00244258 0.00388192 3.72291e-18)
(-0.00228703 0.00388241 1.684e-18)
(-0.00213242 0.00388253 -2.40254e-18)
(-0.00197875 0.00388218 -3.82653e-18)
(-0.00182607 0.00388131 -3.08203e-18)
(-0.00167443 0.00387994 -3.94284e-18)
(-0.00152389 0.00387812 -6.46819e-18)
(-0.00137445 0.00387595 -4.00499e-18)
(-0.00122613 0.00387353 -1.32074e-19)
(-0.00107889 0.00387098 6.61897e-20)
(-0.00093269 0.00386842 -1.02254e-18)
(-0.00078744 0.00386598 -3.08462e-18)
(-0.000643037 0.00386376 -6.20685e-18)
(-0.000499358 0.00386186 -8.33721e-18)
(-0.00281458 0.00510414 1.0205e-17)
(-0.00372419 0.0040293 1.27829e-17)
(-0.00354588 0.00404173 1.25787e-17)
(-0.0033747 0.00404809 9.64801e-18)
(-0.00320554 0.00405349 7.62822e-18)
(-0.00303834 0.00405825 7.64502e-18)
(-0.00287289 0.00406258 7.0064e-18)
(-0.00270897 0.00406658 4.18462e-18)
(-0.00254633 0.00407025 3.89773e-18)
(-0.00238482 0.0040735 2.09509e-18)
(-0.00222431 0.00407626 -2.90834e-18)
(-0.00206479 0.00407846 -7.22503e-18)
(-0.00190623 0.00408007 -6.12586e-18)
(-0.00174867 0.00408108 -3.41422e-18)
(-0.00159212 0.00408154 -5.76656e-18)
(-0.00143658 0.00408151 -6.39034e-18)
(-0.00128207 0.00408108 -1.6195e-18)
(-0.00112853 0.00408036 -3.70152e-19)
(-0.000975937 0.00407944 -2.24913e-18)
(-0.0008242 0.00407842 -3.13398e-18)
(-0.00067323 0.00407741 -5.42868e-18)
(-0.000522916 0.00407649 -8.11512e-18)
(-0.00297684 0.00524428 6.63637e-18)
(-0.00386811 0.0041882 1.1707e-17)
(-0.00368504 0.00420543 1.15482e-17)
(-0.00350849 0.00421665 8.87919e-18)
(-0.00333368 0.00422661 7.90316e-18)
(-0.0031606 0.00423555 8.89764e-18)
(-0.00298914 0.00424368 7.21948e-18)
(-0.00281916 0.00425112 3.15737e-18)
(-0.00265047 0.00425792 2.01434e-18)
(-0.00248294 0.00426409 6.36577e-19)
(-0.00231645 0.0042696 -4.08681e-18)
(-0.00215096 0.0042744 -9.01253e-18)
(-0.00198643 0.00427848 -7.1095e-18)
(-0.00182285 0.00428185 -3.14129e-18)
(-0.00166023 0.00428454 -5.68732e-18)
(-0.00149855 0.0042866 -8.23701e-18)
(-0.0013378 0.00428811 -2.36129e-18)
(-0.00117796 0.00428915 4.13027e-19)
(-0.00101897 0.00428981 -2.57738e-18)
(-0.000860757 0.00429018 -3.62946e-18)
(-0.000703243 0.00429033 -6.76123e-18)
(-0.000546325 0.00429036 -1.00855e-17)
(-0.00313834 0.00538431 5.63778e-18)
(-0.00401161 0.00434647 9.22588e-18)
(-0.00382378 0.00436837 1.01679e-17)
(-0.00364194 0.00438432 7.5288e-18)
(-0.00346161 0.00439877 6.801e-18)
(-0.0032828 0.0044119 9.176e-18)
(-0.00310547 0.00442389 8.33959e-18)
(-0.00292952 0.00443488 4.44665e-18)
(-0.00275482 0.00444496 1.14735e-18)
(-0.00258127 0.00445416 -1.12938e-18)
(-0.00240876 0.00446249 -5.49503e-18)
(-0.00223725 0.00446994 -9.08881e-18)
(-0.00206667 0.00447652 -6.17655e-18)
(-0.00189702 0.00448225 -1.94101e-18)
(-0.00172826 0.00448714 -4.60934e-18)
(-0.0015604 0.00449126 -7.8852e-18)
(-0.0013934 0.00449466 -2.54668e-18)
(-0.00122723 0.00449742 -3.41441e-19)
(-0.00106183 0.00449961 -3.70726e-18)
(-0.000897158 0.00450132 -4.1887e-18)
(-0.000733116 0.00450261 -6.93811e-18)
(-0.000569617 0.00450355 -1.01312e-17)
(-0.00329925 0.00552442 5.63011e-19)
(-0.00415486 0.00450434 6.80415e-18)
(-0.00396223 0.00453081 9.71425e-18)
(-0.00377514 0.00455139 8.88783e-18)
(-0.00358935 0.00457025 7.99095e-18)
(-0.00340491 0.00458754 8.95282e-18)
(-0.00322179 0.00460342 7.5553e-18)
(-0.00303995 0.00461802 3.40739e-18)
(-0.00285928 0.00463143 -5.88841e-19)
(-0.00267972 0.00464373 -2.62526e-18)
(-0.00250119 0.00465494 -5.74401e-18)
(-0.00232361 0.00466509 -7.67731e-18)
(-0.00214695 0.00467419 -4.79606e-18)
(-0.00197118 0.00468227 -1.97182e-18)
(-0.00179626 0.00468937 -4.80348e-18)
(-0.00162217 0.00469552 -7.54134e-18)
(-0.00144889 0.00470078 -3.27658e-18)
(-0.00127638 0.00470523 -2.22057e-18)
(-0.00110458 0.00470892 -4.8193e-18)
(-0.000933441 0.00471193 -4.12418e-18)
(-0.000762882 0.00471432 -6.24908e-18)
(-0.000592819 0.00471615 -9.29116e-18)
(-0.00345971 0.00566478 3.36507e-18)
(-0.00429799 0.00466199 4.68884e-18)
(-0.00410052 0.00469296 8.14266e-18)
(-0.00390818 0.00471809 9.10632e-18)
(-0.00371697 0.00474129 9.84176e-18)
(-0.00352694 0.00476269 9.23414e-18)
(-0.0033381 0.00478245 6.60295e-18)
(-0.00315041 0.00480067 1.90095e-18)
(-0.00296382 0.00481746 -1.50674e-18)
(-0.00277827 0.0048329 -3.41583e-18)
(-0.00259369 0.00484704 -5.52249e-18)
(-0.00241004 0.00485991 -6.02904e-18)
(-0.00222727 0.00487155 -4.05494e-18)
(-0.00204535 0.00488199 -3.90747e-18)
(-0.00186423 0.00489127 -6.46963e-18)
(-0.0016839 0.00489944 -7.20026e-18)
(-0.00150432 0.00490655 -3.48221e-18)
(-0.00132545 0.00491265 -3.33183e-18)
(-0.00114724 0.00491781 -5.00783e-18)
(-0.000969637 0.0049221 -4.68136e-18)
(-0.000792569 0.00492557 -6.71989e-18)
(-0.000615954 0.00492827 -8.7228e-18)
(-0.00361985 0.0058055 1.08413e-17)
(-0.0044411 0.00481958 6.44045e-18)
(-0.00423876 0.00485499 7.82424e-18)
(-0.00404115 0.00488459 9.43995e-18)
(-0.00384453 0.00491208 1.01879e-17)
(-0.00364894 0.00493755 7.96216e-18)
(-0.0034544 0.00496116 4.14431e-18)
(-0.0032609 0.00498299 -6.99104e-20)
(-0.0030684 0.00500317 -2.43076e-18)
(-0.00287688 0.00502177 -3.62777e-18)
(-0.00268627 0.00503885 -3.91414e-18)
(-0.00249653 0.00505446 -3.44989e-18)
(-0.00230763 0.00506865 -3.99332e-18)
(-0.00211953 0.00508146 -6.84379e-18)
(-0.0019322 0.00509292 -8.20518e-18)
(-0.0017456 0.0051031 -6.17514e-18)
(-0.0015597 0.00511203 -3.35882e-18)
(-0.00137446 0.00511977 -4.53154e-18)
(-0.00118984 0.00512638 -5.38365e-18)
(-0.00100577 0.00513193 -5.11078e-18)
(-0.0037798 0.00594671 8.1052e-18)
(-0.00458433 0.00497726 6.34952e-18)
(-0.00437705 0.00501706 7.56933e-18)
(-0.00417416 0.00505107 9.86865e-18)
(-0.00397211 0.00508278 1.04805e-17)
(-0.00377096 0.00511228 6.98069e-18)
(-0.00357074 0.0051397 2.44158e-18)
(-0.00337144 0.00516514 -1.14231e-18)
(-0.00317305 0.0051887 -4.60142e-18)
(-0.00297556 0.00521046 -5.28727e-18)
(-0.00277891 0.00523049 -3.28492e-18)
(-0.00258309 0.00524885 -1.33008e-18)
(-0.00238804 0.0052656 -4.29088e-18)
(-0.00219375 0.00528076 -9.53167e-18)
(-0.00200018 0.00529441 -9.6582e-18)
(-0.0018073 0.00530657 -5.73614e-18)
(-0.00161507 0.00531731 -3.99945e-18)
(-0.00142345 0.00532668 -5.35693e-18)
(-0.0012324 0.00533473 -4.74737e-18)
(-0.00393967 0.00608851 5.98519e-18)
(-0.00472776 0.00513513 6.07763e-18)
(-0.00451549 0.00517929 7.01422e-18)
(-0.00430729 0.00521766 7.84065e-18)
(-0.0040998 0.00525354 8.01294e-18)
(-0.00389308 0.00528703 4.97066e-18)
(-0.00368717 0.00531824 2.58618e-18)
(-0.00348207 0.00534725 -2.25622e-19)
(-0.0032778 0.00537418 -5.80313e-18)
(-0.00307433 0.0053991 -6.24548e-18)
(-0.00287165 0.00542208 -3.34332e-18)
(-0.00266972 0.00544318 -1.28544e-18)
(-0.00246852 0.00546248 -5.44269e-18)
(-0.00226803 0.00548 -1.07401e-17)
(-0.0020682 0.00549582 -8.82654e-18)
(-0.00186902 0.00550997 -4.17245e-18)
(-0.00167044 0.0055225 -4.55215e-18)
(-0.00409957 0.00623098 7.77647e-18)
(-0.00487149 0.00529332 7.2924e-18)
(-0.00465417 0.0053418 6.60358e-18)
(-0.00444063 0.00538448 6.4128e-18)
(-0.00422767 0.0054245 5.65584e-18)
(-0.00401536 0.00546193 3.13284e-18)
(-0.00380374 0.00549689 3.12158e-18)
(-0.00359285 0.00552946 -1.12185e-19)
(-0.00338268 0.00555973 -6.86e-18)
(-0.00317323 0.00558779 -7.43897e-18)
(-0.0029645 0.00561372 -3.44273e-18)
(-0.00275646 0.00563756 -7.51256e-19)
(-0.0025491 0.0056594 -4.96036e-18)
(-0.00234238 0.00567928 -9.69986e-18)
(-0.00425959 0.00637422 7.97985e-18)
(-0.00501561 0.00545192 8.73178e-18)
(-0.00479318 0.00550469 6.29572e-18)
(-0.00457425 0.00555165 5.3866e-18)
(-0.00435579 0.00559576 3.60793e-18)
(-0.00413786 0.00563711 2.08505e-18)
(-0.00392053 0.00567579 3.29542e-18)
(-0.00370381 0.00571189 -6.75119e-20)
(-0.00348773 0.00574549 -6.90108e-18)
(-0.0032723 0.00577667 -8.23059e-18)
(-0.0030575 0.00580552 -3.27627e-18)
(-0.00284334 0.0058321 -7.79592e-19)
(-0.00441985 0.00651831 6.66608e-18)
(-0.0051602 0.00561103 8.21245e-18)
(-0.00493261 0.00566808 5.41758e-18)
(-0.00470825 0.00571928 4.48507e-18)
(-0.00448424 0.00576745 2.53897e-18)
(-0.00426067 0.00581268 2.13084e-18)
(-0.00403758 0.00585505 2.97906e-18)
(-0.00381503 0.00589465 -3.07777e-19)
(-0.00359302 0.00593156 -7.14701e-18)
(-0.00337157 0.00596585 -8.48899e-18)
(-0.00458044 0.00666331 7.72596e-18)
(-0.00530536 0.00577076 7.68398e-18)
(-0.00507253 0.00583206 5.2362e-18)
(-0.00484269 0.00588747 3.90851e-18)
(-0.0046131 0.00593967 1.63208e-18)
(-0.00438384 0.00598876 2.19874e-18)
(-0.00415498 0.00603479 2.04009e-18)
(-0.00392654 0.00607786 -6.21968e-19)
(-0.00369858 0.00611805 -6.53046e-18)
(-0.00474144 0.00680931 9.69e-18)
(-0.00545115 0.00593118 8.85496e-18)
(-0.00521302 0.00599672 6.03238e-18)
(-0.00497765 0.00605631 3.22503e-18)
(-0.00474243 0.00611253 9.15824e-19)
(-0.00450745 0.00616544 7.87449e-19)
(-0.00427277 0.00621511 -2.39477e-19)
(-0.00403843 0.00626164 -1.32413e-18)
(-0.00490295 0.00695639 1.13456e-17)
(-0.00559766 0.00609238 9.57066e-18)
(-0.00535417 0.00616215 5.98904e-18)
(-0.00511322 0.00622591 2.5632e-18)
(-0.00487232 0.00628611 1.04981e-18)
(-0.00463156 0.00634282 -9.87716e-19)
(-0.00439102 0.00639612 -2.0836e-18)
(-0.00506506 0.0071046 1.24325e-17)
(-0.00574496 0.00625446 9.22965e-18)
(-0.00549605 0.00632844 5.18379e-18)
(-0.00524945 0.00639635 1.95899e-18)
(-0.00500282 0.00646052 1.54358e-18)
(-0.00475624 0.00652101 -1.51337e-18)
(-0.00522786 0.00725403 1.144e-17)
(-0.00589314 0.00641748 7.96618e-18)
(-0.00563872 0.00649568 4.16931e-18)
(-0.00538643 0.00656772 2.76251e-18)
(-0.00513401 0.00663584 2.44511e-18)
(-0.00488156 0.0067001 -2.20008e-18)
(-0.00539143 0.00740474 5.96959e-18)
(-0.00604226 0.00658155 5.65109e-18)
(-0.00578228 0.00666396 2.92443e-18)
(-0.00552422 0.00674012 2.95316e-18)
(-0.00526596 0.00681217 2.02391e-18)
(-0.00555586 0.0075568 -2.41987e-18)
(-0.0061924 0.00674673 1.82283e-18)
(-0.00592678 0.00683335 1.76663e-18)
(-0.0056629 0.00691362 2.88358e-18)
(-0.00572123 0.00771029 -5.73923e-18)
(-0.00634363 0.00691312 -7.2374e-19)
(-0.0060723 0.00700394 1.25206e-18)
(-0.00580253 0.00708832 2.45312e-18)
(-0.00588763 0.00786528 -4.37982e-18)
(-0.00649603 0.00708078 -1.31581e-18)
(-0.00621891 0.00717582 8.33519e-19)
(-0.00605513 0.00802183 -2.83917e-18)
(-0.00664968 0.00724981 -1.48283e-18)
(-0.00636669 0.00734906 2.22693e-19)
(-0.00622383 0.00818002 -3.48039e-18)
(-0.00680464 0.00742028 -1.96181e-18)
(-0.0065157 0.00752376 -1.82521e-19)
(-0.0063938 0.00833993 -6.82962e-18)
(-0.00696099 0.00759228 -2.67963e-18)
(-0.00666602 0.00769999 -1.2443e-18)
(-0.00656513 0.00850162 -8.99323e-18)
(-0.0071188 0.00776589 -2.7931e-18)
(-0.00681773 0.00787785 -1.97353e-18)
(-0.00673791 0.00866517 -7.20987e-18)
(-0.00727816 0.00794119 -2.01005e-18)
(-0.00697088 0.0080574 -2.87726e-18)
(-0.00691221 0.00883065 -3.37225e-18)
(-0.00743914 0.00811826 -6.1363e-19)
(-0.00712557 0.00823875 -2.99151e-18)
(-0.00708813 0.00899815 -1.71808e-19)
(-0.00760181 0.00829719 9.49503e-19)
(-0.00728186 0.00842198 -2.72268e-18)
(-0.00726574 0.00916774 3.50934e-18)
(-0.00776625 0.00847807 3.28233e-18)
(-0.00743983 0.00860717 -1.96208e-18)
(-0.00744515 0.0093395 6.60844e-18)
(-0.00793255 0.00866098 4.70173e-18)
(-0.00759956 0.00879441 -1.4143e-18)
(-0.00762642 0.00951352 6.04317e-18)
(-0.00810077 0.00884601 4.80309e-18)
(-0.00776111 0.0089838 -3.67709e-19)
(-0.00780967 0.00968987 3.38628e-18)
(-0.00827102 0.00903325 4.30422e-18)
(-0.00792458 0.00917542 7.12673e-19)
(-0.00799496 0.00986864 1.75472e-18)
(-0.00844335 0.00922279 4.303e-18)
(-0.00809004 0.00936938 1.48127e-18)
(-0.0081824 0.0100499 2.11122e-18)
(-0.00861787 0.00941473 4.35606e-18)
(-0.00825757 0.00956575 1.62687e-18)
(-0.00302995 0.00137786 -2.08449e-17)
(-0.00379009 0.00146717 -6.13513e-18)
(-0.00405373 0.00163642 -6.79683e-18)
(-0.00422964 0.00181147 1.6969e-18)
(-0.00438603 0.00198399 5.4772e-18)
(-0.00453484 0.00215376 5.52168e-18)
(-0.0046797 0.00232129 5.47803e-18)
(-0.00482232 0.00248706 1.1385e-17)
(-0.0049636 0.0026514 1.62917e-17)
(-0.00510413 0.00281459 1.13872e-17)
(-0.00524428 0.00297684 7.85718e-18)
(-0.00538431 0.00313834 8.35134e-18)
(-0.00552442 0.00329925 2.06354e-18)
(-0.00566478 0.00345971 1.23987e-18)
(-0.0058055 0.00361985 8.21221e-18)
(-0.00594671 0.0037798 6.84783e-18)
(-0.00608851 0.00393967 4.14e-18)
(-0.00623098 0.00409957 5.39009e-18)
(-0.00637422 0.0042596 7.9855e-18)
(-0.00651831 0.00441985 8.73891e-18)
(-0.00666331 0.00458044 1.0219e-17)
(-0.00680931 0.00474144 1.2083e-17)
(-0.00695638 0.00490295 1.36729e-17)
(-0.0071046 0.00506506 1.47287e-17)
(-0.00725403 0.00522786 1.22673e-17)
(-0.00740474 0.00539143 4.8735e-18)
(-0.0075568 0.00555586 -2.59897e-18)
(-0.00771029 0.00572123 -3.84783e-18)
(-0.00786528 0.00588762 -1.84736e-18)
(-0.00802183 0.00605513 -9.80627e-19)
(-0.00818002 0.00622383 -2.1324e-18)
(-0.00833993 0.0063938 -5.72585e-18)
(-0.00850162 0.00656513 -7.51424e-18)
(-0.00866517 0.00673791 -4.80945e-18)
(-0.00883065 0.00691221 -2.32652e-19)
(-0.00899815 0.00708813 3.47792e-18)
(-0.00916774 0.00726574 6.68226e-18)
(-0.0093395 0.00744515 8.88255e-18)
(-0.00951352 0.00762642 7.65946e-18)
(-0.00968987 0.00780966 4.15313e-18)
(-0.00986864 0.00799496 2.08961e-18)
(-0.0100499 0.0081824 2.15254e-18)
(-0.0019273 0.00255256 2.91267e-18)
(-0.00261432 0.00257555 -1.32375e-18)
(-0.00283223 0.00269485 -2.02868e-18)
(-0.00302676 0.00284038 -2.53461e-18)
(-0.00320707 0.00299056 -8.55239e-19)
(-0.0033786 0.00314001 -7.07482e-19)
(-0.00354498 0.00328787 1.46747e-18)
(-0.00370824 0.00343432 5.92969e-18)
(-0.00386945 0.00357967 1.15143e-17)
(-0.0040293 0.00372419 1.39026e-17)
(-0.0041882 0.00386811 1.29447e-17)
(-0.00434647 0.00401162 1.02448e-17)
(-0.00450434 0.00415486 8.13012e-18)
(-0.00466199 0.00429799 6.37171e-18)
(-0.00481958 0.00444111 7.99999e-18)
(-0.00497726 0.00458433 8.10302e-18)
(-0.00513513 0.00472776 8.00234e-18)
(-0.00529332 0.00487149 8.12909e-18)
(-0.00545192 0.00501561 8.63252e-18)
(-0.00561103 0.0051602 8.64289e-18)
(-0.00577076 0.00530536 8.67667e-18)
(-0.00593118 0.00545115 9.41724e-18)
(-0.00609238 0.00559766 1.04818e-17)
(-0.00625446 0.00574496 1.1366e-17)
(-0.00641748 0.00589314 1.01328e-17)
(-0.00658155 0.00604226 6.21075e-18)
(-0.00674673 0.0061924 1.51248e-18)
(-0.00691312 0.00634363 -9.01532e-19)
(-0.00708078 0.00649603 -1.81311e-18)
(-0.00724981 0.00664968 -2.40809e-18)
(-0.00742029 0.00680464 -2.79276e-18)
(-0.00759229 0.00696099 -3.50944e-18)
(-0.00776589 0.0071188 -3.92605e-18)
(-0.00794119 0.00727816 -3.58866e-18)
(-0.00811826 0.00743914 -2.47623e-18)
(-0.0082972 0.00760181 -1.07041e-19)
(-0.00847807 0.00776625 2.52836e-18)
(-0.00866098 0.00793254 3.80641e-18)
(-0.00884601 0.00810077 4.33185e-18)
(-0.00903325 0.00827101 4.5343e-18)
(-0.00922279 0.00844335 5.00533e-18)
(-0.00941473 0.00861787 5.27718e-18)
(-0.00203984 0.00240839 1.79383e-17)
(-0.00262167 0.002483 -1.23775e-18)
(-0.00282014 0.00258006 -1.42035e-18)
(-0.00300814 0.00270437 -2.40646e-18)
(-0.00319183 0.00284162 -1.51993e-18)
(-0.00336927 0.00298286 -1.14523e-18)
(-0.00354163 0.00312459 1.88684e-18)
(-0.00371046 0.00326576 6.32587e-18)
(-0.00387691 0.00340617 1.04882e-17)
(-0.00404173 0.00354588 1.34167e-17)
(-0.00420543 0.00368504 1.3247e-17)
(-0.00436837 0.00382378 1.15039e-17)
(-0.00453081 0.00396223 1.08693e-17)
(-0.00469296 0.00410052 9.20519e-18)
(-0.00485499 0.00423876 8.66745e-18)
(-0.00501706 0.00437705 8.40407e-18)
(-0.00517929 0.00451549 7.89013e-18)
(-0.00534179 0.00465417 7.69872e-18)
(-0.00550469 0.00479318 7.65872e-18)
(-0.00566808 0.00493261 6.906e-18)
(-0.00583206 0.00507253 6.35817e-18)
(-0.00599672 0.00521303 6.60156e-18)
(-0.00616215 0.00535417 6.5508e-18)
(-0.00632844 0.00549605 6.35239e-18)
(-0.00649568 0.00563873 5.16807e-18)
(-0.00666396 0.00578228 3.74626e-18)
(-0.00683335 0.00592678 2.06163e-18)
(-0.00700394 0.0060723 1.22606e-18)
(-0.00717582 0.00621891 6.80857e-19)
(-0.00734907 0.00636669 3.73876e-19)
(-0.00752376 0.0065157 4.57968e-19)
(-0.0077 0.00666602 -9.52593e-21)
(-0.00787785 0.00681773 -6.82458e-19)
(-0.00805741 0.00697088 -1.61618e-18)
(-0.00823875 0.00712557 -1.83205e-18)
(-0.00842198 0.00728186 -1.60902e-18)
(-0.00860717 0.00743983 -2.01303e-18)
(-0.00879441 0.00759955 -1.89061e-18)
(-0.0089838 0.00776111 -4.85087e-19)
(-0.00917542 0.00792458 9.49301e-19)
(-0.00936938 0.00809004 1.85327e-18)
(-0.00956575 0.00825757 1.82265e-18)
(-0.00210641 0.00226852 1.83547e-17)
(-0.00262466 0.00236934 -3.22878e-19)
(-0.00281096 0.00246862 -2.21132e-18)
(-0.00299166 0.00258102 -1.02265e-18)
(-0.00317463 0.00270582 -1.96015e-18)
(-0.0033554 0.00283725 -4.57403e-19)
(-0.00353261 0.00297129 2.25733e-18)
(-0.00370665 0.00310597 5.71226e-18)
(-0.00387826 0.00324052 8.0572e-18)
(-0.00404808 0.0033747 1.03346e-17)
(-0.00421665 0.00350849 1.00965e-17)
(-0.00438432 0.00364194 8.889e-18)
(-0.00455139 0.00377514 1.01927e-17)
(-0.00471809 0.00390818 1.04485e-17)
(-0.00488459 0.00404115 1.08014e-17)
(-0.00505107 0.00417416 1.14714e-17)
(-0.00521766 0.00430729 9.83541e-18)
(-0.00538448 0.00444063 8.26445e-18)
(-0.00555165 0.00457425 6.81229e-18)
(-0.00571928 0.00470825 5.56679e-18)
(-0.00588746 0.00484269 4.35393e-18)
(-0.00605631 0.00497765 3.71531e-18)
(-0.00622591 0.00511322 3.09933e-18)
(-0.00639635 0.00524945 2.50771e-18)
(-0.00656772 0.00538643 1.85251e-18)
(-0.00674012 0.00552422 1.48734e-18)
(-0.00691362 0.0056629 1.23484e-18)
(-0.00708832 0.00580253 1.32906e-18)
(-0.0072643 0.00594318 6.2912e-19)
(-0.00744165 0.00608493 5.501e-20)
(-0.00762045 0.00622784 -1.19455e-19)
(-0.00780079 0.00637199 -7.87419e-19)
(-0.00798275 0.00651743 -1.27043e-18)
(-0.00816643 0.00666425 -1.76711e-18)
(-0.00835191 0.00681252 -1.69927e-18)
(-0.00853927 0.0069623 -1.27668e-18)
(-0.00872862 0.00711367 -9.22672e-19)
(-0.00892004 0.0072667 1.57572e-19)
(-0.00911362 0.00742147 1.0843e-18)
(-0.00930946 0.00757805 1.29516e-18)
(-0.00950765 0.00773652 7.03159e-19)
(-0.00970828 0.00789695 6.04819e-19)
(-0.00215044 0.00213166 5.93078e-18)
(-0.00262199 0.00224307 5.82404e-19)
(-0.00280476 0.00234814 -1.38337e-18)
(-0.00298105 0.00245639 1.81086e-19)
(-0.00316218 0.00257256 3.12428e-19)
(-0.00334423 0.00269509 6.45016e-19)
(-0.00352472 0.00282122 2.53505e-18)
(-0.00370295 0.00294896 4.30428e-18)
(-0.00387908 0.00307724 5.65576e-18)
(-0.00405349 0.00320554 7.63126e-18)
(-0.00422661 0.00333368 8.37237e-18)
(-0.00439877 0.00346161 7.70194e-18)
(-0.00457025 0.00358935 9.14172e-18)
(-0.00474129 0.00371697 1.13589e-17)
(-0.00491208 0.00384453 1.19479e-17)
(-0.00508278 0.00397212 1.25296e-17)
(-0.00525354 0.0040998 1.0035e-17)
(-0.00542449 0.00422767 7.45498e-18)
(-0.00559576 0.00435579 5.43623e-18)
(-0.00576745 0.00448424 4.35999e-18)
(-0.00593967 0.0046131 3.13198e-18)
(-0.00611253 0.00474244 1.69523e-18)
(-0.00628611 0.00487232 1.02872e-18)
(-0.00646052 0.00500282 2.64146e-19)
(-0.00663584 0.00513401 2.07041e-19)
(-0.00681218 0.00526596 -2.50177e-20)
(-0.00698961 0.00539873 -1.98941e-19)
(-0.00716823 0.00553239 -9.19875e-19)
(-0.00734812 0.005667 -2.05919e-18)
(-0.00752938 0.00580265 -2.57132e-18)
(-0.00771209 0.00593938 -2.56287e-18)
(-0.00789634 0.00607727 -2.69146e-18)
(-0.00808222 0.00621639 -2.85165e-18)
(-0.00826982 0.0063568 -1.87933e-18)
(-0.00845923 0.00649858 -5.36344e-19)
(-0.00865054 0.00664178 8.0791e-19)
(-0.00884384 0.00678649 1.71419e-18)
(-0.00903922 0.00693276 2.1404e-18)
(-0.00923679 0.00708068 1.86013e-18)
(-0.00943663 0.00723031 1.90831e-18)
(-0.00963884 0.00738173 2.19928e-18)
(-0.00984352 0.00753501 2.56779e-18)
(-0.00217992 0.00199914 -8.31359e-19)
(-0.00261301 0.00211308 1.77751e-18)
(-0.00279712 0.00222162 1.28581e-18)
(-0.0029726 0.00232865 2.41035e-18)
(-0.00315283 0.00243939 3.84859e-18)
(-0.00333552 0.00255473 4.24102e-18)
(-0.00351824 0.00267352 4.21645e-18)
(-0.00369976 0.00279434 5.27488e-18)
(-0.00387974 0.00291615 5.08252e-18)
(-0.00405825 0.00303834 7.37471e-18)
(-0.00423555 0.0031606 8.92123e-18)
(-0.0044119 0.0032828 9.74455e-18)
(-0.00458754 0.00340491 9.77261e-18)
(-0.00476269 0.00352694 1.04824e-17)
(-0.00493755 0.00364894 9.41188e-18)
(-0.00511228 0.00377096 8.4956e-18)
(-0.00528703 0.00389308 6.67284e-18)
(-0.00546193 0.00401536 5.31178e-18)
(-0.00563711 0.00413787 4.64902e-18)
(-0.00581268 0.00426067 4.51716e-18)
(-0.00598876 0.00438384 3.91662e-18)
(-0.00616544 0.00450745 1.79519e-18)
(-0.00634282 0.00463156 9.29121e-20)
(-0.00652101 0.00475624 -7.07354e-19)
(-0.00670011 0.00488156 -1.30223e-18)
(-0.00688019 0.00500758 -2.63028e-18)
(-0.00706137 0.00513436 -3.24084e-18)
(-0.00724372 0.00526197 -3.87503e-18)
(-0.00742734 0.00539048 -3.85133e-18)
(-0.00761232 0.00551994 -3.54379e-18)
(-0.00779875 0.00565043 -2.47005e-18)
(-0.00798673 0.005782 -1.41457e-18)
(-0.00817633 0.00591472 -7.95189e-19)
(-0.00836766 0.00604866 8.85287e-19)
(-0.0085608 0.00618388 1.56441e-18)
(-0.00875585 0.00632045 1.64885e-18)
(-0.0089529 0.00645843 1.46819e-18)
(-0.00915205 0.00659789 1.58407e-18)
(-0.00935339 0.0067389 1.99409e-18)
(-0.00955702 0.00688153 2.23853e-18)
(-0.00976305 0.00702585 2.1091e-18)
(-0.00997156 0.00717192 2.16124e-18)
(-0.00219937 0.00187058 -8.22227e-18)
(-0.00259925 0.00198321 3.56874e-18)
(-0.00278669 0.00209236 2.34575e-18)
(-0.00296395 0.00219839 2.84565e-18)
(-0.00314479 0.00230535 3.6216e-18)
(-0.00332841 0.00241499 5.05452e-18)
(-0.00351297 0.00252729 4.2508e-18)
(-0.00369719 0.00264152 5.76398e-18)
(-0.00388045 0.0027569 5.62603e-18)
(-0.00406258 0.0028729 7.12946e-18)
(-0.00424368 0.00298915 7.48039e-18)
(-0.00442389 0.00310547 9.02383e-18)
(-0.00460342 0.00322179 8.38791e-18)
(-0.00478245 0.0033381 7.72636e-18)
(-0.00496115 0.0034544 5.49747e-18)
(-0.0051397 0.00357074 4.00929e-18)
(-0.00531824 0.00368717 4.28292e-18)
(-0.00549689 0.00380374 5.03222e-18)
(-0.00567579 0.00392053 5.50184e-18)
(-0.00585505 0.00403759 5.13898e-18)
(-0.00603479 0.00415498 3.89155e-18)
(-0.00621511 0.00427277 1.81052e-18)
(-0.00639612 0.00439102 8.20477e-20)
(-0.00657791 0.00450979 -1.63891e-18)
(-0.00676059 0.00462915 -2.98471e-18)
(-0.00694425 0.00474916 -3.36634e-18)
(-0.00712898 0.00486988 -2.99953e-18)
(-0.00731488 0.00499137 -2.17437e-18)
(-0.00750204 0.00511369 -1.35726e-18)
(-0.00769055 0.00523691 -6.22003e-19)
(-0.00788051 0.00536108 -1.5309e-19)
(-0.00807201 0.00548627 -3.02915e-19)
(-0.00826515 0.00561253 -1.18385e-19)
(-0.00846001 0.00573994 4.19275e-19)
(-0.00865668 0.00586855 6.52491e-19)
(-0.00885528 0.00599842 1.21058e-18)
(-0.00905588 0.00612962 1.86752e-18)
(-0.00925859 0.00626221 2.20132e-18)
(-0.00946351 0.00639626 2.08677e-18)
(-0.00967073 0.00653184 1.44607e-18)
(-0.00988036 0.006669 7.75785e-19)
(-0.0100925 0.00680783 4.76757e-19)
(-0.00221136 0.00174558 -1.10436e-17)
(-0.00258225 0.00185506 2.31158e-18)
(-0.00277354 0.00196266 2.79009e-18)