/*--------------------------------*- C++ -*----------------------------------*\
  =========                 |
  \\      /  F ield         | OpenFOAM: The Open Source CFD Toolbox
   \\    /   O peration     | Website:  https://openfoam.org
    \\  /    A nd           | Version:  7
     \\/     M anipulation  |
\*---------------------------------------------------------------------------*/
FoamFile
{
    version     2.0;
    format      ascii;
    class       volVectorField;
    location    "168000";
    object      U;
}
// * * * * * * * * * * * * * * * * * * * * * * * * * * * * * * * * * * * * * //

dimensions      [0 1 -1 0 0 0 0];

internalField   nonuniform List<vector> 
4838
(
(1.26125e-18 -1.5403e-18 -0.0158259)
(1.35783e-18 -1.5889e-18 -0.0158321)
(1.43616e-18 -1.44462e-18 -0.0158378)
(1.54984e-18 -1.25866e-18 -0.0158431)
(1.58701e-18 -1.45775e-18 -0.0158478)
(1.1952e-18 -1.7185e-18 -0.015852)
(6.80587e-19 -1.87707e-18 -0.0158558)
(5.28263e-19 -1.67219e-18 -0.0158591)
(6.21252e-19 -1.24325e-18 -0.015862)
(4.91099e-19 -8.45719e-19 -0.0158645)
(5.98148e-19 -5.23029e-19 -0.0158666)
(1.00099e-18 -6.73808e-19 -0.0158684)
(1.0224e-18 -9.27242e-19 -0.0158699)
(1.11047e-18 -9.86307e-19 -0.0158711)
(2.06529e-18 -9.429e-19 -0.0158721)
(3.01592e-18 -1.709e-18 -0.0158728)
(2.87055e-18 -2.77996e-18 -0.0158734)
(2.32881e-18 -3.71487e-18 -0.0158739)
(2.00614e-18 -4.24738e-18 -0.0158743)
(1.52603e-18 -4.54195e-18 -0.0158746)
(7.17366e-19 -4.67448e-18 -0.0158748)
(4.05878e-19 -4.68428e-18 -0.015875)
(3.74822e-19 -4.72731e-18 -0.0158751)
(-3.59885e-20 -4.82404e-18 -0.0158752)
(-5.21717e-19 -4.90796e-18 -0.0158752)
(-1.18457e-18 -4.81475e-18 -0.0158752)
(-1.80254e-18 -4.63825e-18 -0.0158752)
(-2.24278e-18 -4.2553e-18 -0.0158751)
(-2.6836e-18 -3.86702e-18 -0.015875)
(-2.76529e-18 -3.45929e-18 -0.0158748)
(-3.09821e-18 -2.93701e-18 -0.0158746)
(-3.81664e-18 -2.09234e-18 -0.0158743)
(-3.84424e-18 -1.10322e-18 -0.0158739)
(-3.54979e-18 -1.32301e-19 -0.0158734)
(-3.44427e-18 3.70289e-19 -0.0158728)
(-3.12916e-18 9.31541e-19 -0.0158721)
(-2.53958e-18 1.08867e-18 -0.0158711)
(-1.80761e-18 1.01713e-18 -0.0158699)
(-1.60146e-18 5.91696e-19 -0.0158684)
(-1.94725e-18 3.7721e-19 -0.0158666)
(-2.08871e-18 4.31937e-19 -0.0158645)
(-2.21931e-18 7.48354e-19 -0.015862)
(-1.69999e-18 8.75751e-19 -0.0158591)
(-8.9789e-19 3.89942e-19 -0.0158558)
(-1.16104e-18 2.89265e-19 -0.015852)
(-1.39716e-18 3.75773e-19 -0.0158478)
(-8.6438e-19 1.88892e-19 -0.0158431)
(-2.90177e-19 -3.42092e-19 -0.0158378)
(-4.72539e-20 -8.10048e-19 -0.0158321)
(1.22354e-19 -1.06628e-18 -0.0158259)
(8.05673e-19 -1.50496e-18 -0.015815)
(1.04579e-18 -1.66866e-18 -0.0158214)
(1.25928e-18 -1.68783e-18 -0.0158275)
(1.46762e-18 -1.6942e-18 -0.0158332)
(1.60971e-18 -1.81571e-18 -0.0158385)
(1.36007e-18 -2.08039e-18 -0.0158433)
(8.74393e-19 -2.10088e-18 -0.0158477)
(6.33409e-19 -1.7524e-18 -0.0158516)
(5.51081e-19 -1.4097e-18 -0.0158551)
(4.45161e-19 -1.31537e-18 -0.0158582)
(5.41162e-19 -9.9686e-19 -0.0158609)
(8.38163e-19 -8.02714e-19 -0.0158632)
(8.46419e-19 -7.66658e-19 -0.0158652)
(8.5765e-19 -7.43299e-19 -0.0158669)
(1.34665e-18 -7.69112e-19 -0.0158684)
(2.0385e-18 -1.57767e-18 -0.0158695)
(1.88943e-18 -2.7012e-18 -0.0158705)
(1.46164e-18 -3.51513e-18 -0.0158713)
(1.65966e-18 -3.91646e-18 -0.0158719)
(1.78111e-18 -4.18526e-18 -0.0158724)
(1.28768e-18 -4.24348e-18 -0.0158728)
(7.29096e-19 -3.9931e-18 -0.0158731)
(2.33632e-19 -4.15372e-18 -0.0158733)
(-4.76326e-19 -4.49892e-18 -0.0158734)
(-8.27112e-19 -4.68653e-18 -0.0158735)
(-1.15694e-18 -4.68913e-18 -0.0158735)
(-1.42403e-18 -4.26871e-18 -0.0158734)
(-1.7782e-18 -3.82479e-18 -0.0158733)
(-2.47973e-18 -3.31027e-18 -0.0158731)
(-2.77592e-18 -2.78281e-18 -0.0158728)
(-3.17548e-18 -2.59074e-18 -0.0158724)
(-3.91878e-18 -1.90871e-18 -0.0158719)
(-4.22754e-18 -1.01091e-18 -0.0158713)
(-3.9022e-18 -6.25985e-19 -0.0158705)
(-3.23573e-18 -2.69726e-19 -0.0158695)
(-2.68247e-18 1.23269e-19 -0.0158684)
(-2.36549e-18 3.24825e-19 -0.0158669)
(-2.00049e-18 9.7622e-20 -0.0158652)
(-1.7925e-18 -2.93025e-19 -0.0158632)
(-1.7204e-18 -4.19657e-19 -0.0158609)
(-1.80595e-18 -2.12226e-19 -0.0158582)
(-1.93337e-18 5.36339e-20 -0.0158551)
(-1.58882e-18 5.33928e-19 -0.0158516)
(-1.23905e-18 2.31445e-19 -0.0158477)
(-1.35541e-18 4.64213e-20 -0.0158433)
(-1.2288e-18 1.24925e-19 -0.0158385)
(-6.30835e-19 -3.93144e-20 -0.0158332)
(-1.52425e-19 -4.36099e-19 -0.0158275)
(1.5845e-19 -7.75671e-19 -0.0158214)
(2.49243e-19 -1.11251e-18 -0.015815)
(2.1118e-19 -1.30724e-18 -0.0158022)
(6.35656e-19 -1.19621e-18 -0.0158093)
(9.4405e-19 -1.14834e-18 -0.0158159)
(1.06647e-18 -1.32777e-18 -0.0158221)
(1.16265e-18 -1.5151e-18 -0.0158278)
(1.18103e-18 -1.94824e-18 -0.0158332)
(1.08384e-18 -2.12209e-18 -0.0158381)
(9.40438e-19 -2.05498e-18 -0.0158426)
(6.33196e-19 -2.06064e-18 -0.0158467)
(3.29662e-19 -2.03052e-18 -0.0158503)
(4.26232e-19 -1.59692e-18 -0.0158536)
(8.18229e-19 -1.12678e-18 -0.0158564)
(7.76596e-19 -1.06543e-18 -0.015859)
(5.11355e-19 -1.01839e-18 -0.0158612)
(6.78423e-19 -1.00658e-18 -0.0158631)
(1.2662e-18 -1.29479e-18 -0.0158647)
(1.38801e-18 -1.88297e-18 -0.0158661)
(1.11981e-18 -2.12275e-18 -0.0158672)
(1.42927e-18 -2.29399e-18 -0.0158681)
(1.70337e-18 -2.63013e-18 -0.0158689)
(1.34461e-18 -3.11656e-18 -0.0158695)
(7.35771e-19 -3.38415e-18 -0.01587)
(-1.23222e-19 -3.65789e-18 -0.0158703)
(-8.86079e-19 -3.69346e-18 -0.0158705)
(-9.59614e-19 -3.54936e-18 -0.0158706)
(-8.1043e-19 -3.76476e-18 -0.0158706)
(-9.71842e-19 -3.67445e-18 -0.0158705)
(-1.65585e-18 -3.72778e-18 -0.0158703)
(-2.35006e-18 -3.38128e-18 -0.01587)
(-2.79958e-18 -2.90569e-18 -0.0158695)
(-3.36131e-18 -2.60624e-18 -0.0158689)
(-3.78666e-18 -2.03863e-18 -0.0158681)
(-3.90993e-18 -1.04085e-18 -0.0158672)
(-3.67418e-18 -3.4895e-19 -0.0158661)
(-3.16422e-18 6.03964e-20 -0.0158647)
(-2.85736e-18 1.09377e-19 -0.0158631)
(-2.68111e-18 6.1479e-20 -0.0158612)
(-2.19319e-18 -3.08157e-19 -0.015859)
(-1.79241e-18 -5.7555e-19 -0.0158564)
(-1.71294e-18 -6.81474e-19 -0.0158536)
(-1.64733e-18 -7.02731e-19 -0.0158503)
(-1.31024e-18 -5.69214e-19 -0.0158467)
(-9.67962e-19 -3.16881e-19 -0.0158426)
(-1.04632e-18 -2.98736e-19 -0.0158381)
(-1.10396e-18 -1.85482e-19 -0.0158332)
(-7.92011e-19 -2.96363e-20 -0.0158278)
(-2.8834e-19 -2.02892e-19 -0.0158221)
(8.4911e-20 -5.72174e-19 -0.0158159)
(1.74254e-19 -6.95562e-19 -0.0158093)
(-9.35148e-20 -9.55123e-19 -0.0158022)
(1.87836e-19 -7.858e-19 -0.015788)
(3.24511e-19 -6.43603e-19 -0.0157958)
(5.37634e-19 -5.03178e-19 -0.015803)
(7.2889e-19 -5.85387e-19 -0.0158097)
(6.78965e-19 -8.20008e-19 -0.015816)
(4.94437e-19 -1.39906e-18 -0.0158219)
(4.78768e-19 -1.79711e-18 -0.0158273)
(4.66906e-19 -2.14664e-18 -0.0158323)
(3.79586e-19 -2.39456e-18 -0.0158369)
(4.73656e-19 -2.15981e-18 -0.015841)
(7.69905e-19 -1.57865e-18 -0.0158448)
(8.68631e-19 -1.38227e-18 -0.0158482)
(7.10319e-19 -1.63725e-18 -0.0158512)
(5.29676e-19 -1.61334e-18 -0.0158539)
(5.11747e-19 -1.26344e-18 -0.0158562)
(9.27248e-19 -1.06541e-18 -0.0158583)
(1.06875e-18 -1.19327e-18 -0.01586)
(8.42115e-19 -1.31238e-18 -0.0158615)
(1.21567e-18 -1.37208e-18 -0.0158628)
(1.57654e-18 -1.81788e-18 -0.0158638)
(1.14394e-18 -2.38878e-18 -0.0158646)
(5.37842e-19 -2.96634e-18 -0.0158653)
(2.30544e-20 -3.35732e-18 -0.0158657)
(-6.66309e-19 -3.06884e-18 -0.0158661)
(-1.42095e-18 -2.80266e-18 -0.0158662)
(-1.70004e-18 -3.08911e-18 -0.0158662)
(-1.5104e-18 -3.56888e-18 -0.0158661)
(-1.56684e-18 -3.84379e-18 -0.0158657)
(-1.95936e-18 -3.52651e-18 -0.0158653)
(-2.49445e-18 -3.24217e-18 -0.0158646)
(-3.06715e-18 -2.8647e-18 -0.0158638)
(-3.30192e-18 -2.23591e-18 -0.0158628)
(-3.47811e-18 -1.37153e-18 -0.0158615)
(-3.50101e-18 -6.4481e-19 -0.01586)
(-3.13197e-18 -1.52769e-19 -0.0158583)
(-2.92327e-18 2.94604e-20 -0.0158562)
(-2.77468e-18 2.14948e-19 -0.0158539)
(-2.23039e-18 2.42347e-19 -0.0158512)
(-1.66881e-18 9.17748e-20 -0.0158482)
(-1.42334e-18 4.27405e-20 -0.0158448)
(-1.13004e-18 1.22317e-19 -0.015841)
(-8.44271e-19 2.35513e-19 -0.0158369)
(-8.97712e-19 -1.30459e-20 -0.0158323)
(-9.53298e-19 -2.66392e-19 -0.0158273)
(-7.06621e-19 -3.21294e-19 -0.0158219)
(-4.47373e-19 -3.75215e-19 -0.015816)
(-1.74159e-19 -6.86073e-19 -0.0158097)
(1.75188e-19 -1.16335e-18 -0.015803)
(1.60821e-19 -1.30377e-18 -0.0157958)
(-5.95987e-21 -1.33913e-18 -0.015788)
(2.06746e-19 -5.78481e-19 -0.0157726)
(3.86496e-19 -3.69279e-19 -0.015781)
(4.62018e-19 -2.89737e-19 -0.0157888)
(4.05672e-19 -4.52874e-19 -0.0157961)
(2.33703e-19 -6.88748e-19 -0.0158029)
(-2.68107e-20 -1.02195e-18 -0.0158093)
(-9.45347e-20 -1.29975e-18 -0.0158152)
(-1.12767e-19 -1.4386e-18 -0.0158207)
(3.44587e-20 -1.40634e-18 -0.0158258)
(3.67685e-19 -1.24151e-18 -0.0158305)
(5.29601e-19 -1.12643e-18 -0.0158347)
(3.6599e-19 -1.46157e-18 -0.0158386)
(2.27838e-19 -1.8351e-18 -0.015842)
(5.46897e-19 -1.8713e-18 -0.0158451)
(8.14317e-19 -1.33319e-18 -0.0158479)
(1.08349e-18 -1.03098e-18 -0.0158503)
(1.12279e-18 -1.18031e-18 -0.0158524)
(8.26149e-19 -1.27656e-18 -0.0158543)
(9.69352e-19 -1.2815e-18 -0.0158558)
(1.22542e-18 -1.90708e-18 -0.0158571)
(7.29374e-19 -2.59826e-18 -0.0158581)
(-1.20908e-19 -3.20441e-18 -0.015859)
(-3.71451e-19 -3.72153e-18 -0.0158596)
(-6.63104e-19 -3.75151e-18 -0.01586)
(-1.5074e-18 -3.5032e-18 -0.0158602)
(-2.01596e-18 -3.1413e-18 -0.0158602)
(-1.81196e-18 -3.01093e-18 -0.01586)
(-1.51684e-18 -3.00977e-18 -0.0158596)
(-1.80642e-18 -2.85008e-18 -0.015859)
(-2.52528e-18 -2.72151e-18 -0.0158581)
(-2.90184e-18 -2.41561e-18 -0.0158571)
(-2.81985e-18 -1.97681e-18 -0.0158558)
(-2.90048e-18 -1.60264e-18 -0.0158543)
(-2.88591e-18 -9.55309e-19 -0.0158524)
(-2.68856e-18 -3.05839e-19 -0.0158503)
(-2.66106e-18 2.60523e-19 -0.0158479)
(-2.37743e-18 7.75882e-19 -0.0158451)
(-1.79017e-18 9.9781e-19 -0.015842)
(-1.38546e-18 8.05604e-19 -0.0158386)
(-1.10318e-18 5.96333e-19 -0.0158347)
(-7.99839e-19 5.86308e-19 -0.0158305)
(-9.8551e-19 5.05303e-19 -0.0158258)
(-1.2345e-18 2.86235e-19 -0.0158207)
(-9.27894e-19 1.18012e-19 -0.0158152)
(-5.53187e-19 1.9998e-21 -0.0158093)
(-4.17659e-19 -2.22487e-19 -0.0158029)
(-1.2768e-19 -4.38482e-19 -0.0157961)
(3.02652e-19 -7.90422e-19 -0.0157888)
(3.81068e-19 -1.28579e-18 -0.015781)
(2.88755e-19 -1.49966e-18 -0.0157726)
(7.09194e-20 -5.26038e-19 -0.015756)
(2.25818e-19 -3.57181e-19 -0.015765)
(3.46428e-19 -5.5376e-19 -0.0157734)
(4.06167e-19 -6.92888e-19 -0.0157813)
(2.00778e-19 -8.38798e-19 -0.0157886)
(-2.84492e-19 -1.0253e-18 -0.0157955)
(-3.44259e-19 -1.1561e-18 -0.015802)
(-2.81208e-19 -9.38125e-19 -0.0158079)
(-3.19955e-19 -6.49542e-19 -0.0158135)
(-4.43643e-20 -5.85561e-19 -0.0158186)
(1.39869e-19 -6.11559e-19 -0.0158233)
(-1.48635e-19 -9.60677e-19 -0.0158276)
(-2.9549e-19 -1.26055e-18 -0.0158315)
(4.00429e-19 -1.05953e-18 -0.015835)
(9.39941e-19 -7.1303e-19 -0.0158381)
(8.79546e-19 -7.50631e-19 -0.0158409)
(8.62864e-19 -1.36534e-18 -0.0158433)
(7.81178e-19 -1.68719e-18 -0.0158455)
(6.36698e-19 -1.9564e-18 -0.0158473)
(5.5645e-19 -2.4761e-18 -0.0158488)
(1.13386e-19 -3.02653e-18 -0.0158501)
(-7.55455e-19 -3.29794e-18 -0.0158511)
(-8.63024e-19 -3.45499e-18 -0.0158518)
(-7.18006e-19 -3.48236e-18 -0.0158523)
(-1.21856e-18 -3.38895e-18 -0.0158525)
(-1.63063e-18 -2.89394e-18 -0.0158525)
(-1.46485e-18 -2.41323e-18 -0.0158523)
(-1.24439e-18 -2.2642e-18 -0.0158518)
(-1.67793e-18 -2.29869e-18 -0.0158511)
(-2.32141e-18 -1.92446e-18 -0.0158501)
(-2.59358e-18 -1.33222e-18 -0.0158488)
(-2.74025e-18 -9.1591e-19 -0.0158473)
(-2.76593e-18 -8.1657e-19 -0.0158455)
(-2.38319e-18 -5.09743e-19 -0.0158433)
(-1.99945e-18 -2.19309e-19 -0.0158409)
(-1.86564e-18 3.54453e-19 -0.0158381)
(-1.85247e-18 9.36328e-19 -0.015835)
(-1.86253e-18 1.22353e-18 -0.0158315)
(-1.7293e-18 8.37593e-19 -0.0158276)
(-1.23989e-18 3.74378e-19 -0.0158233)
(-9.99573e-19 -7.81458e-20 -0.0158186)
(-1.21358e-18 -2.99992e-19 -0.0158135)
(-1.01591e-18 -3.09825e-19 -0.0158079)
(-5.23632e-19 -3.42895e-19 -0.015802)
(-3.70705e-19 -3.42776e-19 -0.0157955)
(-2.10697e-19 -3.36027e-19 -0.0157886)
(2.73966e-19 -3.39718e-19 -0.0157813)
(3.9168e-19 -3.63836e-19 -0.0157734)
(1.07635e-19 -7.30001e-19 -0.015765)
(4.64197e-21 -1.28503e-18 -0.015756)
(-2.17324e-20 -9.00146e-20 -0.0157383)
(-1.05902e-20 -6.98295e-20 -0.0157479)
(-4.92088e-20 -3.89848e-19 -0.0157568)
(1.12935e-19 -5.55833e-19 -0.0157652)
(1.76596e-19 -9.15648e-19 -0.0157731)
(-3.1445e-19 -1.15002e-18 -0.0157805)
(-4.65847e-19 -1.01734e-18 -0.0157875)
(-1.60892e-19 -8.36836e-19 -0.0157939)
(-2.472e-19 -7.60135e-19 -0.0157999)
(-2.42618e-19 -5.93999e-19 -0.0158055)
(-1.82863e-19 -4.25023e-19 -0.0158106)
(-5.91749e-19 -4.71778e-19 -0.0158153)
(-6.40239e-19 -4.18893e-19 -0.0158196)
(2.80437e-19 5.01327e-20 -0.0158235)
(8.21992e-19 6.00285e-20 -0.015827)
(3.50728e-19 -3.654e-19 -0.0158301)
(1.18531e-19 -1.22871e-18 -0.0158328)
(2.12413e-19 -1.79721e-18 -0.0158353)
(2.41676e-19 -2.34381e-18 -0.0158373)
(3.25719e-19 -2.75315e-18 -0.0158391)
(1.64726e-20 -3.07791e-18 -0.0158405)
(-8.18954e-19 -2.96731e-18 -0.0158417)
(-9.47547e-19 -2.47172e-18 -0.0158425)
(-8.56066e-19 -2.2774e-18 -0.0158431)
(-1.2503e-18 -2.40779e-18 -0.0158433)
(-1.3742e-18 -2.29625e-18 -0.0158433)
(-1.2708e-18 -1.88023e-18 -0.0158431)
(-1.3206e-18 -1.80993e-18 -0.0158425)
(-1.46622e-18 -1.86671e-18 -0.0158417)
(-1.68143e-18 -1.3418e-18 -0.0158405)
(-2.07981e-18 -7.33548e-19 -0.0158391)
(-2.51575e-18 -3.77549e-19 -0.0158373)
(-2.59929e-18 -2.16777e-19 -0.0158353)
(-2.20327e-18 -6.88368e-20 -0.0158328)
(-1.73769e-18 -1.05227e-19 -0.0158301)
(-1.56287e-18 9.65616e-20 -0.015827)
(-1.71276e-18 8.61872e-20 -0.0158235)
(-2.02128e-18 3.67046e-19 -0.0158196)
(-2.05471e-18 2.57732e-19 -0.0158153)
(-1.56577e-18 1.61873e-19 -0.0158106)
(-1.26892e-18 -4.41897e-19 -0.0158055)
(-1.05832e-18 -6.66738e-19 -0.0157999)
(-7.32655e-19 -6.45881e-19 -0.0157939)
(-4.12804e-19 -8.40768e-19 -0.0157875)
(-1.86806e-19 -1.08684e-18 -0.0157805)
(2.12581e-19 -9.81357e-19 -0.0157731)
(5.30844e-19 -8.08251e-19 -0.0157652)
(2.24709e-19 -6.80654e-19 -0.0157568)
(-2.42522e-19 -7.86365e-19 -0.0157479)
(-1.25945e-19 -1.34321e-18 -0.0157383)
(-1.66374e-19 3.02085e-19 -0.0157196)
(-2.62798e-19 2.13646e-19 -0.0157297)
(-3.39747e-19 -1.88627e-19 -0.0157392)
(-3.78345e-19 -5.00272e-19 -0.0157481)
(-2.55008e-19 -8.84203e-19 -0.0157565)
(-3.45258e-19 -7.84838e-19 -0.0157644)
(-6.02518e-19 -5.30306e-19 -0.0157718)
(-5.96837e-19 -4.27194e-19 -0.0157788)
(-3.93341e-19 -7.02488e-19 -0.0157852)
(-8.26177e-20 -5.60398e-19 -0.0157912)
(7.06672e-20 -5.80589e-19 -0.0157967)
(-4.32167e-19 -4.13634e-19 -0.0158018)
(-6.83207e-19 1.04951e-19 -0.0158065)
(2.06119e-20 3.91404e-19 -0.0158107)
(4.34729e-19 -1.13066e-19 -0.0158145)
(-3.081e-19 -5.6057e-19 -0.015818)
(-7.18084e-19 -9.20588e-19 -0.015821)
(-5.22824e-19 -1.26206e-18 -0.0158237)
(-4.70337e-19 -1.66939e-18 -0.015826)
(-2.33339e-19 -2.15451e-18 -0.015828)
(-9.20111e-20 -2.44946e-18 -0.0158296)
(-3.34454e-19 -2.32225e-18 -0.0158309)
(-4.38286e-19 -1.88557e-18 -0.0158318)
(-8.39176e-19 -1.7231e-18 -0.0158324)
(-1.48189e-18 -1.75001e-18 -0.0158328)
(-1.2983e-18 -1.77924e-18 -0.0158328)
(-9.81795e-19 -1.46746e-18 -0.0158324)
(-1.11826e-18 -1.32359e-18 -0.0158318)
(-1.09466e-18 -1.19431e-18 -0.0158309)
(-1.20284e-18 -8.48403e-19 -0.0158296)
(-1.85961e-18 -5.38584e-19 -0.015828)
(-2.56429e-18 -5.04672e-19 -0.015826)
(-2.61794e-18 -2.99325e-19 -0.0158237)
(-2.1462e-18 -8.57247e-20 -0.015821)
(-1.64609e-18 -1.31709e-19 -0.015818)
(-1.69751e-18 -2.32574e-19 -0.0158145)
(-1.86664e-18 -4.8073e-19 -0.0158107)
(-1.97212e-18 -4.12446e-19 -0.0158065)
(-1.79843e-18 -1.97205e-19 -0.0158018)
(-1.40835e-18 4.40571e-20 -0.0157967)
(-1.3129e-18 -1.95149e-19 -0.0157912)
(-8.75663e-19 -2.20241e-19 -0.0157852)
(-5.37036e-19 -1.8916e-19 -0.0157788)
(-3.2007e-19 -5.16899e-19 -0.0157718)
(8.34863e-20 -1.0671e-18 -0.0157644)
(6.1559e-19 -1.43813e-18 -0.0157565)
(6.58487e-19 -1.50197e-18 -0.0157481)
(7.92191e-21 -1.18885e-18 -0.0157392)
(-5.30274e-19 -1.05265e-18 -0.0157297)
(-2.39242e-19 -1.20677e-18 -0.0157196)
(6.95423e-21 -4.33562e-20 -0.0157)
(-4.12435e-19 -3.11081e-19 -0.0157105)
(-6.15768e-19 -8.5861e-19 -0.0157205)
(-6.03378e-19 -9.40534e-19 -0.0157299)
(-3.06776e-19 -7.28591e-19 -0.0157388)
(-1.65931e-19 -6.67048e-19 -0.0157472)
(-3.42613e-19 -8.58295e-19 -0.0157551)
(-6.95962e-19 -7.03133e-19 -0.0157624)
(-8.56089e-19 -7.54459e-19 -0.0157693)
(-5.39673e-19 -8.96905e-19 -0.0157757)
(-3.33883e-20 -1.10162e-18 -0.0157817)
(9.13821e-20 -7.80026e-19 -0.0157871)
(-4.0885e-19 -1.92743e-19 -0.0157922)
(-5.1235e-19 -1.38291e-19 -0.0157967)
(-4.98345e-20 -5.70008e-19 -0.0158009)
(-3.09018e-19 -6.64513e-19 -0.0158046)
(-8.99952e-19 -4.40408e-19 -0.0158079)
(-9.57429e-19 -6.44506e-19 -0.0158109)
(-1.03505e-18 -6.9473e-19 -0.0158134)
(-8.15306e-19 -6.72612e-19 -0.0158155)
(-4.16685e-19 -9.83558e-19 -0.0158173)
(-5.24422e-19 -1.0728e-18 -0.0158187)
(-5.4206e-19 -1.19941e-18 -0.0158198)
(-8.39021e-19 -1.2453e-18 -0.0158205)
(-1.50504e-18 -1.15344e-18 -0.0158208)
(-1.20136e-18 -1.10922e-18 -0.0158208)
(-7.69875e-19 -9.68846e-19 -0.0158205)
(-9.51669e-19 -8.29143e-19 -0.0158198)
(-8.60041e-19 -7.44982e-19 -0.0158187)
(-1.06305e-18 -9.31658e-19 -0.0158173)
(-2.10073e-18 -9.20325e-19 -0.0158155)
(-2.70982e-18 -7.18708e-19 -0.0158134)
(-2.30094e-18 -2.72548e-19 -0.0158109)
(-1.83135e-18 3.23045e-21 -0.0158079)
(-1.66548e-18 -1.43673e-20 -0.0158046)
(-1.88014e-18 -2.69768e-19 -0.0158009)
(-1.92571e-18 -4.10783e-19 -0.0157967)
(-1.7696e-18 -4.65517e-19 -0.0157922)
(-1.4359e-18 -2.93194e-19 -0.0157871)
(-1.3076e-18 -1.13172e-19 -0.0157817)
(-1.0863e-18 -1.25744e-19 -0.0157757)
(-4.0814e-19 -9.65699e-20 -0.0157693)
(-3.85268e-19 -2.99843e-20 -0.0157624)
(-4.49052e-19 -1.46063e-19 -0.0157551)
(-3.54017e-20 -6.14617e-19 -0.0157472)
(4.70251e-19 -1.38607e-18 -0.0157388)
(4.42784e-19 -1.98781e-18 -0.0157299)
(-2.38791e-19 -1.89772e-18 -0.0157205)
(-5.04915e-19 -1.62647e-18 -0.0157105)
(-1.10211e-20 -1.44079e-18 -0.0157)
(2.06051e-19 -6.28044e-19 -0.0156794)
(-3.30103e-19 -1.17008e-18 -0.0156904)
(-6.66754e-19 -1.29031e-18 -0.0157008)
(-5.85426e-19 -9.68831e-19 -0.0157107)
(-5.18196e-19 -7.6053e-19 -0.0157201)
(-5.35071e-19 -1.25141e-18 -0.0157289)
(-3.80758e-19 -1.58654e-18 -0.0157372)
(-3.11475e-19 -1.36625e-18 -0.015745)
(-7.797e-19 -1.12524e-18 -0.0157523)
(-8.8012e-19 -1.00801e-18 -0.0157591)
(-2.18501e-19 -7.33235e-19 -0.0157655)
(3.49195e-19 -4.00574e-19 -0.0157713)
(-4.43345e-20 -3.14885e-19 -0.0157767)
(-5.21334e-19 -3.34903e-19 -0.0157816)
(-2.03856e-19 -4.23544e-19 -0.015786)
(-2.19814e-19 -3.19421e-19 -0.0157901)
(-9.85928e-19 -5.92731e-20 -0.0157936)
(-1.18211e-18 -4.72256e-19 -0.0157968)
(-9.51397e-19 -4.71508e-19 -0.0157995)
(-1.02059e-18 -2.97719e-19 -0.0158019)
(-8.71705e-19 -4.84295e-19 -0.0158038)
(-8.44024e-19 -3.05544e-19 -0.0158053)
(-8.32899e-19 -2.57487e-19 -0.0158065)
(-1.00238e-18 -4.39425e-19 -0.0158072)
(-1.64631e-18 -4.12873e-19 -0.0158076)
(-1.27528e-18 -3.39322e-19 -0.0158076)
(-6.89287e-19 -4.39277e-19 -0.0158072)
(-8.45364e-19 -4.20685e-19 -0.0158065)
(-1.11582e-18 -4.63252e-19 -0.0158053)
(-1.50862e-18 -1.02941e-18 -0.0158038)
(-2.05483e-18 -1.15203e-18 -0.0158019)
(-2.18962e-18 -4.21844e-19 -0.0157995)
(-1.88679e-18 2.72759e-20 -0.0157968)
(-1.77919e-18 1.13931e-19 -0.0157936)
(-1.85861e-18 -1.05443e-21 -0.0157901)
(-2.08039e-18 -8.31514e-20 -0.015786)
(-1.91859e-18 -7.25362e-20 -0.0157816)
(-1.5908e-18 -3.37148e-20 -0.0157767)
(-1.22402e-18 1.04533e-19 -0.0157713)
(-1.12668e-18 -2.68875e-19 -0.0157655)
(-8.3578e-19 -2.59447e-19 -0.0157591)
(-3.55931e-19 -3.55251e-19 -0.0157523)
(-5.1139e-19 -5.57899e-19 -0.015745)
(-5.08698e-19 -8.41054e-19 -0.0157372)
(-1.74751e-19 -1.09051e-18 -0.0157289)
(6.87788e-20 -1.6897e-18 -0.0157201)
(4.88788e-20 -1.93214e-18 -0.0157107)
(-2.88911e-19 -1.96386e-18 -0.0157008)
(-9.19207e-20 -1.77118e-18 -0.0156904)
(3.76834e-19 -1.77618e-18 -0.0156794)
(1.08598e-20 -5.8461e-19 -0.0156579)
(-2.45583e-19 -1.28218e-18 -0.0156694)
(-4.96231e-19 -1.11093e-18 -0.0156802)
(-5.51752e-19 -8.69749e-19 -0.0156906)
(-7.71758e-19 -6.68575e-19 -0.0157004)
(-1.03112e-18 -9.13894e-19 -0.0157096)
(-7.66706e-19 -9.06704e-19 -0.0157184)
(-2.82767e-19 -1.05899e-18 -0.0157266)
(-4.80041e-19 -9.32313e-19 -0.0157343)
(-7.17169e-19 -4.34113e-19 -0.0157415)
(-3.00388e-19 1.18272e-19 -0.0157482)
(1.86746e-19 3.23825e-19 -0.0157544)
(-1.61183e-19 2.60707e-20 -0.0157601)
(-6.58492e-19 -3.31934e-19 -0.0157653)
(-2.39334e-19 -3.43811e-19 -0.0157701)
(8.44483e-20 -4.39924e-19 -0.0157743)
(-1.05807e-18 -3.75233e-19 -0.0157782)
(-1.60338e-18 -7.99941e-19 -0.0157816)
(-1.15277e-18 -6.90083e-19 -0.0157845)
(-1.07886e-18 -6.96783e-19 -0.015787)
(-6.77387e-19 -5.77174e-19 -0.0157891)
(-5.18515e-19 -3.25129e-19 -0.0157907)
(-8.59195e-19 1.37463e-20 -0.015792)
(-1.18634e-18 -3.62023e-19 -0.0157928)
(-1.70096e-18 -4.5733e-19 -0.0157932)
(-1.37494e-18 -1.67082e-19 -0.0157932)
(-8.17738e-19 -2.23376e-19 -0.0157928)
(-9.65912e-19 -4.07918e-19 -0.015792)
(-1.46604e-18 -7.94598e-19 -0.0157907)
(-1.84121e-18 -1.28639e-18 -0.0157891)
(-1.77795e-18 -1.37646e-18 -0.015787)
(-1.77221e-18 -8.9118e-19 -0.0157845)
(-1.87354e-18 -6.55033e-19 -0.0157816)
(-1.943e-18 -4.70803e-19 -0.0157782)
(-1.98477e-18 -4.31266e-19 -0.0157743)
(-2.00662e-18 -3.71577e-19 -0.0157701)
(-1.67271e-18 1.59846e-19 -0.0157653)
(-1.26747e-18 1.69294e-19 -0.0157601)
(-1.35494e-18 2.38691e-19 -0.0157544)
(-1.46618e-18 -2.48298e-19 -0.0157482)
(-8.01017e-19 -4.01323e-19 -0.0157415)
(-4.63263e-19 -6.01308e-19 -0.0157343)
(-8.24505e-19 -5.79557e-19 -0.0157266)
(-7.09155e-19 -8.66815e-19 -0.0157184)
(-3.21303e-19 -1.28554e-18 -0.0157096)
(1.07386e-19 -1.87049e-18 -0.0157004)
(2.76804e-19 -2.01777e-18 -0.0156906)
(3.94782e-20 -1.71178e-18 -0.0156802)
(2.50071e-19 -1.57028e-18 -0.0156694)
(6.24094e-19 -1.81965e-18 -0.0156579)
(-3.63581e-19 -5.03766e-19 -0.0156355)
(-5.7354e-19 -9.04829e-19 -0.0156474)
(-5.41766e-19 -7.72239e-19 -0.0156587)
(-3.33007e-19 -8.69925e-19 -0.0156695)
(-4.83222e-19 -7.6597e-19 -0.0156797)
(-9.66691e-19 -1.03418e-18 -0.0156894)
(-1.19805e-18 -9.07394e-19 -0.0156986)
(-6.62966e-19 -1.09659e-18 -0.0157072)
(-2.99745e-19 -8.11414e-19 -0.0157152)
(-3.42892e-19 -3.96493e-19 -0.0157228)
(-1.18055e-19 1.46831e-19 -0.0157298)
(1.75358e-19 2.95237e-19 -0.0157364)
(-3.3402e-19 -5.65573e-20 -0.0157424)
(-8.70921e-19 -4.56821e-19 -0.0157479)
(-5.613e-19 -4.05668e-19 -0.015753)
(-3.30882e-20 -7.30201e-19 -0.0157575)
(-9.68378e-19 -1.09219e-18 -0.0157616)
(-1.60699e-18 -9.22925e-19 -0.0157652)
(-1.12757e-18 -3.72197e-19 -0.0157683)
(-1.12083e-18 -4.1162e-19 -0.015771)
(-7.01339e-19 -3.13858e-19 -0.0157732)
(-3.21828e-19 -5.34133e-19 -0.015775)
(-8.73081e-19 -3.73043e-19 -0.0157763)
(-1.51548e-18 -7.3271e-19 -0.0157772)
(-1.65482e-18 -9.40438e-19 -0.0157776)
(-1.12849e-18 -5.40096e-19 -0.0157776)
(-8.23752e-19 -3.88237e-19 -0.0157772)
(-1.35096e-18 -6.58221e-19 -0.0157763)
(-2.00841e-18 -1.0787e-18 -0.015775)
(-2.12138e-18 -1.34556e-18 -0.0157732)
(-1.80378e-18 -1.74878e-18 -0.015771)
(-1.76522e-18 -2.00227e-18 -0.0157683)
(-1.76513e-18 -1.82246e-18 -0.0157652)
(-1.8073e-18 -1.44061e-18 -0.0157616)
(-1.96368e-18 -1.0893e-18 -0.0157575)
(-1.69515e-18 -1.22429e-18 -0.015753)
(-1.33447e-18 -5.69878e-19 -0.0157479)
(-1.48027e-18 -4.3763e-19 -0.0157424)
(-1.78578e-18 -7.05891e-19 -0.0157364)
(-1.54153e-18 -7.41574e-19 -0.0157298)
(-7.68115e-19 -8.74407e-19 -0.0157228)
(-5.58076e-19 -1.12577e-18 -0.0157152)
(-7.15454e-19 -4.31187e-19 -0.0157072)
(-5.83747e-19 -3.11505e-19 -0.0156986)
(-2.82244e-19 -8.79879e-19 -0.0156894)
(1.63926e-19 -1.36463e-18 -0.0156797)
(4.02604e-19 -1.74536e-18 -0.0156695)
(3.41256e-19 -1.49732e-18 -0.0156587)
(5.1324e-19 -1.40314e-18 -0.0156474)
(6.87379e-19 -1.60792e-18 -0.0156355)
(-5.07476e-19 -4.69449e-19 -0.0156124)
(-6.85535e-19 -4.39134e-19 -0.0156247)
(-9.32156e-19 -5.08601e-19 -0.0156364)
(-7.52298e-19 -7.47255e-19 -0.0156475)
(-6.153e-19 -1.06283e-18 -0.0156582)
(-7.85677e-19 -1.66833e-18 -0.0156682)
(-1.01939e-18 -1.43565e-18 -0.0156778)
(-7.32214e-19 -1.09398e-18 -0.0156868)
(-2.17602e-19 -7.39975e-19 -0.0156952)
(-7.47459e-20 -5.86962e-19 -0.0157031)
(1.57335e-19 -3.04882e-19 -0.0157105)
(3.01404e-19 -3.48417e-19 -0.0157174)
(-2.77103e-19 -7.65055e-19 -0.0157237)
(-8.60897e-19 -8.76082e-19 -0.0157295)
(-6.89142e-19 -5.9731e-19 -0.0157348)
(-3.5942e-19 -5.88421e-19 -0.0157396)
(-8.91218e-19 -1.1992e-18 -0.0157439)
(-1.13929e-18 -6.42484e-19 -0.0157477)
(-9.3808e-19 -1.91621e-19 -0.015751)
(-1.1724e-18 -2.54468e-19 -0.0157539)
(-8.86827e-19 -5.58271e-20 -0.0157562)
(-4.83809e-19 -3.39431e-19 -0.0157581)
(-9.19365e-19 -6.47684e-19 -0.0157595)
(-1.71844e-18 -7.0153e-19 -0.0157604)
(-1.65827e-18 -6.83455e-19 -0.0157609)
(-8.88114e-19 -7.30827e-19 -0.0157609)
(-8.28754e-19 -6.55024e-19 -0.0157604)
(-1.60097e-18 -8.6009e-19 -0.0157595)
(-2.1747e-18 -1.0147e-18 -0.0157581)
(-2.44104e-18 -8.29346e-19 -0.0157562)
(-2.32851e-18 -1.32229e-18 -0.0157539)
(-1.91454e-18 -1.86736e-18 -0.015751)
(-1.52533e-18 -1.9768e-18 -0.0157477)
(-1.5336e-18 -1.89286e-18 -0.0157439)
(-1.9361e-18 -1.51079e-18 -0.0157396)
(-1.59751e-18 -1.57874e-18 -0.0157348)
(-1.17209e-18 -1.25214e-18 -0.0157295)
(-1.72148e-18 -1.06211e-18 -0.0157237)
(-1.93174e-18 -1.34205e-18 -0.0157174)
(-1.41957e-18 -1.12857e-18 -0.0157105)
(-7.98137e-19 -1.11233e-18 -0.0157031)
(-2.32179e-19 -1.61937e-18 -0.0156952)
(-2.14969e-19 -7.65658e-19 -0.0156868)
(-6.65863e-19 -3.69259e-19 -0.0156778)
(-4.53836e-19 -7.56496e-19 -0.0156682)
(2.67519e-19 -1.01036e-18 -0.0156582)
(6.73277e-19 -1.33068e-18 -0.0156475)
(6.50641e-19 -1.28483e-18 -0.0156364)
(6.73332e-19 -1.29789e-18 -0.0156247)
(4.9079e-19 -1.50546e-18 -0.0156124)
(-5.89502e-19 -3.00185e-19 -0.0155884)
(-6.43688e-19 -3.68176e-19 -0.0156011)
(-9.21301e-19 -4.86623e-19 -0.0156132)
(-1.11299e-18 -4.86475e-19 -0.0156247)
(-1.15385e-18 -1.10081e-18 -0.0156358)
(-1.10385e-18 -1.49626e-18 -0.0156462)
(-9.02e-19 -1.32615e-18 -0.0156561)
(-7.52833e-19 -5.97521e-19 -0.0156655)
(-3.74209e-19 -2.9249e-19 -0.0156743)
(-1.99848e-19 -3.07836e-19 -0.0156825)
(8.13831e-20 -4.32556e-19 -0.0156902)
(2.44388e-19 -8.3574e-19 -0.0156974)
(-1.21457e-19 -1.50087e-18 -0.015704)
(-5.72842e-19 -1.14165e-18 -0.0157101)
(-4.89254e-19 -4.37117e-19 -0.0157157)
(-4.93432e-19 -3.31135e-19 -0.0157207)
(-9.27212e-19 -8.51306e-19 -0.0157252)
(-8.98774e-19 -5.87964e-19 -0.0157292)
(-8.26189e-19 -3.9606e-19 -0.0157327)
(-1.00749e-18 -4.53081e-19 -0.0157357)
(-7.86315e-19 -2.55446e-19 -0.0157382)
(-6.96834e-19 -4.73546e-19 -0.0157402)
(-1.03054e-18 -8.84228e-19 -0.0157417)
(-1.55914e-18 -8.75532e-19 -0.0157426)
(-1.74505e-18 -4.98372e-19 -0.0157431)
(-1.02963e-18 -6.1528e-19 -0.0157431)
(-8.43215e-19 -9.29498e-19 -0.0157426)
(-1.72177e-18 -1.20098e-18 -0.0157417)
(-2.14425e-18 -1.36585e-18 -0.0157402)
(-2.47991e-18 -9.76518e-19 -0.0157382)
(-2.60794e-18 -1.01281e-18 -0.0157357)
(-2.12276e-18 -1.22707e-18 -0.0157327)
(-1.6529e-18 -1.46525e-18 -0.0157292)
(-1.55708e-18 -1.91511e-18 -0.0157252)
(-1.82757e-18 -1.74448e-18 -0.0157207)
(-1.36044e-18 -1.75029e-18 -0.0157157)
(-1.08672e-18 -1.55682e-18 -0.0157101)
(-1.95275e-18 -1.32681e-18 -0.015704)
(-1.89568e-18 -1.25505e-18 -0.0156974)
(-1.07129e-18 -1.15195e-18 -0.0156902)
(-6.20332e-19 -8.64353e-19 -0.0156825)
(-3.47102e-20 -1.41833e-18 -0.0156743)
(-1.22076e-19 -1.23791e-18 -0.0156655)
(-7.05437e-19 -5.40511e-19 -0.0156561)
(-1.39952e-19 -6.34191e-19 -0.0156462)
(6.52256e-19 -7.86531e-19 -0.0156358)
(8.42221e-19 -9.60259e-19 -0.0156247)
(6.86096e-19 -1.08109e-18 -0.0156132)
(5.02155e-19 -1.36101e-18 -0.0156011)
(3.38065e-19 -1.63157e-18 -0.0155884)
(-6.33918e-19 -3.05787e-19 -0.0155637)
(-6.91126e-19 -4.88857e-19 -0.0155767)
(-8.46648e-19 -5.81584e-19 -0.0155892)
(-1.19797e-18 -6.32055e-19 -0.0156011)
(-1.40374e-18 -1.19351e-18 -0.0156125)
(-1.38309e-18 -1.1493e-18 -0.0156233)
(-8.77724e-19 -8.54629e-19 -0.0156336)
(-5.52766e-19 -2.23729e-19 -0.0156433)
(-4.22916e-19 -7.86336e-20 -0.0156524)
(-4.88941e-19 6.96216e-20 -0.015661)
(-3.91409e-19 -8.32599e-20 -0.015669)
(-2.96602e-19 -7.78627e-19 -0.0156765)
(-1.45302e-19 -1.3936e-18 -0.0156834)
(-5.15933e-21 -7.18079e-19 -0.0156898)
(-1.81566e-19 6.56551e-20 -0.0156956)
(-6.20173e-19 -5.61086e-20 -0.0157008)
(-1.12507e-18 -4.07981e-19 -0.0157056)
(-8.54698e-19 -3.59437e-19 -0.0157098)
(-7.82619e-19 -2.61421e-19 -0.0157134)
(-1.00111e-18 -5.52791e-19 -0.0157165)
(-8.21078e-19 -4.9094e-19 -0.0157191)
(-8.22796e-19 -7.41415e-19 -0.0157212)
(-1.11549e-18 -8.49904e-19 -0.0157228)
(-1.3888e-18 -1.21369e-18 -0.0157238)
(-1.46561e-18 -9.62473e-19 -0.0157243)
(-1.12225e-18 -5.37944e-19 -0.0157243)
(-1.20084e-18 -9.98887e-19 -0.0157238)
(-2.03363e-18 -1.59225e-18 -0.0157228)
(-2.16068e-18 -1.62064e-18 -0.0157212)
(-2.37226e-18 -1.48062e-18 -0.0157191)
(-2.60938e-18 -1.40189e-18 -0.0157165)
(-2.14395e-18 -1.40026e-18 -0.0157134)
(-1.91465e-18 -1.53326e-18 -0.0157098)
(-1.80515e-18 -2.11171e-18 -0.0157056)
(-1.83816e-18 -1.94823e-18 -0.0157008)
(-1.30865e-18 -1.96431e-18 -0.0156956)
(-1.14887e-18 -2.27227e-18 -0.0156898)
(-1.95207e-18 -2.01944e-18 -0.0156834)
(-1.59985e-18 -1.38615e-18 -0.0156765)
(-6.88142e-19 -9.89777e-19 -0.015669)
(-4.75763e-19 -6.96443e-19 -0.015661)
(-8.86456e-20 -1.10053e-18 -0.0156524)
(-1.65132e-21 -1.5619e-18 -0.0156433)
(-3.28804e-19 -7.39624e-19 -0.0156336)
(1.7452e-19 -3.68845e-19 -0.0156233)
(7.39148e-19 -7.6713e-19 -0.0156125)
(7.78609e-19 -1.01347e-18 -0.0156011)
(4.33118e-19 -1.18351e-18 -0.0155892)
(2.52095e-19 -1.55301e-18 -0.0155767)
(3.50634e-19 -1.71953e-18 -0.0155637)
(-7.1547e-19 -3.04258e-19 -0.0155382)
(-7.31524e-19 -5.12426e-19 -0.0155517)
(-7.9345e-19 -6.56418e-19 -0.0155645)
(-1.26275e-18 -7.6477e-19 -0.0155768)
(-1.59132e-18 -1.00824e-18 -0.0155885)
(-1.55302e-18 -5.97178e-19 -0.0155996)
(-1.10381e-18 -1.19077e-19 -0.0156102)
(-5.83821e-19 -2.00101e-19 -0.0156203)
(-2.85979e-19 -2.6973e-20 -0.0156297)
(-3.39438e-19 2.26196e-19 -0.0156386)
(-6.85928e-19 1.01314e-19 -0.0156469)
(-8.395e-19 -4.13232e-19 -0.0156547)
(-3.41364e-19 -4.41558e-19 -0.0156619)
(3.33787e-19 5.85632e-20 -0.0156685)
(7.52164e-20 3.81272e-19 -0.0156745)