/*--------------------------------*- C++ -*----------------------------------*\
  =========                 |
  \\      /  F ield         | OpenFOAM: The Open Source CFD Toolbox
   \\    /   O peration     | Website:  https://openfoam.org
    \\  /    A nd           | Version:  7
     \\/     M anipulation  |
\*---------------------------------------------------------------------------*/
FoamFile
{
    version     2.0;
    format      ascii;
    class       volVectorField;
    location    "272000";
    object      U;
}
// * * * * * * * * * * * * * * * * * * * * * * * * * * * * * * * * * * * * * //

dimensions      [0 1 -1 0 0 0 0];

internalField   nonuniform List<vector> 
4850
(
(-1.48214e-18 -7.43423e-19 -0.0154838)
(-1.39861e-18 -7.56735e-19 -0.0154998)
(-1.59682e-18 -5.97599e-19 -0.0154526)
(-1.52653e-18 -5.48988e-19 -0.0154688)
(-1.26781e-18 -4.05436e-19 -0.0154845)
(-1.45192e-18 -5.16679e-19 -0.015421)
(-1.63038e-18 -4.54352e-19 -0.0154374)
(-1.32591e-18 -3.71648e-19 -0.0154533)
(-1.34393e-18 -1.52459e-19 -0.0154685)
(-1.0843e-18 -1.43844e-19 -0.0154832)
(-1.35394e-18 -5.10225e-19 -0.015389)
(-1.6148e-18 -4.40608e-19 -0.0154056)
(-1.30558e-18 -3.37954e-19 -0.0154216)
(-1.38788e-18 -1.04608e-19 -0.0154371)
(-1.19083e-18 6.15984e-20 -0.015452)
(-9.62753e-19 2.14229e-19 -0.0154663)
(-1.32409e-18 -4.92221e-19 -0.0153565)
(-1.69407e-18 -3.26382e-19 -0.0153733)
(-1.3934e-18 -1.65063e-19 -0.0153895)
(-1.25646e-18 -6.68366e-20 -0.0154052)
(-1.31893e-18 3.54833e-19 -0.0154202)
(-9.90649e-19 2.49324e-19 -0.0154347)
(-1.0923e-18 6.23371e-19 -0.0154486)
(-1.30496e-18 -5.01849e-19 -0.0153236)
(-1.61992e-18 -2.27665e-19 -0.0153406)
(-1.60343e-18 1.06043e-19 -0.015357)
(-1.30457e-18 1.46987e-19 -0.0153728)
(-1.31324e-18 4.09036e-19 -0.0153881)
(-1.06355e-18 5.61141e-19 -0.0154027)
(-9.97783e-19 9.20897e-19 -0.0154167)
(-1.14127e-18 8.96093e-19 -0.0154301)
(-1.56912e-18 5.36945e-19 -0.0154429)
(-1.35727e-18 -4.45197e-19 -0.0152903)
(-1.52372e-18 -4.95471e-20 -0.0153075)
(-1.61708e-18 3.31172e-19 -0.015324)
(-1.47571e-18 4.3052e-19 -0.0153401)
(-1.29943e-18 5.06888e-19 -0.0153555)
(-1.11567e-18 8.9116e-19 -0.0153703)
(-1.02192e-18 9.31004e-19 -0.0153845)
(-1.14951e-18 5.81425e-19 -0.015398)
(-1.48296e-18 9.60597e-20 -0.0154109)
(-1.62586e-18 1.41591e-19 -0.0154231)
(-1.47512e-18 -7.11392e-20 -0.0152566)
(-1.44528e-18 1.70468e-19 -0.015274)
(-1.53209e-18 3.0326e-19 -0.0152907)
(-1.51871e-18 4.83323e-19 -0.0153069)
(-1.30327e-18 5.5551e-19 -0.0153225)
(-1.10913e-18 9.51424e-19 -0.0153374)
(-1.09421e-18 8.19536e-19 -0.0153518)
(-1.20567e-18 2.83325e-19 -0.0153655)
(-1.49221e-18 -3.84104e-20 -0.0153785)
(-1.52101e-18 -3.50531e-20 -0.0153909)
(-1.51255e-18 -2.57514e-20 -0.0154025)
(-1.55064e-18 3.13322e-20 -0.0154135)
(-1.43758e-18 -4.00409e-19 -0.0154237)
(-1.85522e-18 -5.49706e-19 -0.0154331)
(-1.56412e-18 1.37266e-19 -0.0152226)
(-1.49064e-18 1.81037e-19 -0.01524)
(-1.37459e-18 1.18067e-19 -0.0152569)
(-1.43447e-18 3.58997e-19 -0.0152733)
(-1.24135e-18 5.17433e-19 -0.015289)
(-1.04968e-18 8.88428e-19 -0.0153042)
(-1.1676e-18 6.03212e-19 -0.0153187)
(-1.29348e-18 1.24918e-19 -0.0153325)
(-1.52206e-18 -9.69647e-20 -0.0153457)
(-1.53823e-18 -1.94077e-19 -0.0153582)
(-1.42425e-18 -3.26382e-19 -0.01537)
(-1.53453e-18 -2.58834e-19 -0.015381)
(-1.59567e-18 -3.43918e-19 -0.0153914)
(-1.81874e-18 -5.86949e-19 -0.0154009)
(-2.18219e-18 -4.78619e-19 -0.0154098)
(-2.42256e-18 -4.58227e-19 -0.0154178)
(-2.76429e-18 -1.9218e-19 -0.0154251)
(-2.40998e-18 -2.36692e-20 -0.0154316)
(-1.5412e-18 1.10394e-19 -0.0151881)
(-1.60119e-18 2.81243e-19 -0.0152058)
(-1.3856e-18 7.13594e-20 -0.0152228)
(-1.31126e-18 2.68176e-19 -0.0152393)
(-1.16801e-18 4.8103e-19 -0.0152552)
(-9.58214e-19 6.63903e-19 -0.0152705)
(-1.13188e-18 2.44912e-19 -0.0152851)
(-1.35769e-18 3.39178e-20 -0.0152991)
(-1.54903e-18 -2.09265e-19 -0.0153124)
(-1.5972e-18 -3.03992e-19 -0.0153251)
(-1.46031e-18 -3.8514e-19 -0.015337)
(-1.40129e-18 -4.8182e-19 -0.0153482)
(-1.65114e-18 -8.46972e-20 -0.0153586)
(-1.88211e-18 -4.06735e-19 -0.0153683)
(-2.23865e-18 -1.57233e-19 -0.0153772)
(-2.35137e-18 -4.63229e-19 -0.0153854)
(-2.67601e-18 -9.31867e-20 -0.0153928)
(-2.55654e-18 -1.45608e-19 -0.0153993)
(-1.74725e-18 -7.03191e-19 -0.0154051)
(-1.64708e-18 -3.6151e-19 -0.0154101)
(-1.52558e-18 1.14031e-19 -0.0151533)
(-1.65627e-18 3.18763e-19 -0.0151711)
(-1.4902e-18 9.17818e-20 -0.0151883)
(-1.29638e-18 2.39811e-19 -0.0152049)
(-1.10827e-18 3.57942e-19 -0.015221)
(-9.27981e-19 3.75957e-19 -0.0152364)
(-9.44017e-19 -3.33891e-19 -0.0152512)
(-1.31789e-18 -1.04343e-19 -0.0152653)
(-1.57892e-18 -2.7651e-19 -0.0152788)
(-1.63821e-18 -2.90546e-19 -0.0152915)
(-1.54896e-18 -4.09344e-19 -0.0153036)
(-1.29357e-18 -5.41027e-19 -0.0153149)
(-1.53133e-18 -1.92594e-19 -0.0153254)
(-1.79527e-18 -5.33291e-19 -0.0153352)
(-2.29108e-18 2.38874e-20 -0.0153443)
(-2.38279e-18 -4.28142e-19 -0.0153525)
(-2.64706e-18 -1.3758e-19 -0.01536)
(-2.79227e-18 -4.13472e-19 -0.0153666)
(-1.81726e-18 -9.11301e-19 -0.0153724)
(-1.43584e-18 -4.10479e-19 -0.0153775)
(-1.66705e-18 -1.8745e-19 -0.0153816)
(-1.42243e-18 -1.1793e-19 -0.015385)
(-1.72825e-18 -6.6573e-19 -0.0153875)
(-1.79015e-18 -1.29818e-18 -0.0153892)
(-1.42863e-18 -2.32117e-20 -0.0151181)
(-1.65795e-18 3.11624e-19 -0.0151361)
(-1.55603e-18 5.90151e-20 -0.0151534)
(-1.37258e-18 3.20514e-19 -0.0151702)
(-1.1641e-18 3.59321e-19 -0.0151864)
(-1.08289e-18 1.94246e-19 -0.0152019)
(-8.95199e-19 -5.64555e-19 -0.0152169)
(-1.11719e-18 -1.51192e-19 -0.0152311)
(-1.55449e-18 -2.75523e-19 -0.0152447)
(-1.6657e-18 -3.78142e-19 -0.0152576)
(-1.61139e-18 -5.59741e-19 -0.0152698)
(-1.30617e-18 -5.16911e-19 -0.0152812)
(-1.4645e-18 -4.56991e-19 -0.0152918)
(-1.59774e-18 -7.18103e-19 -0.0153017)
(-2.15984e-18 -6.54114e-20 -0.0153109)
(-2.45114e-18 -3.40148e-19 -0.0153192)
(-2.61473e-18 -4.21857e-19 -0.0153267)
(-3.0157e-18 -4.75863e-19 -0.0153334)
(-1.91554e-18 -6.08594e-19 -0.0153393)
(-1.36307e-18 -8.17497e-20 -0.0153444)
(-1.69821e-18 -3.28228e-19 -0.0153486)
(-1.54789e-18 -5.88063e-19 -0.015352)
(-1.8856e-18 -1.04888e-18 -0.0153546)
(-1.82888e-18 -1.04859e-18 -0.0153563)
(-1.9126e-18 -9.21072e-19 -0.0153571)
(-4.44944e-18 -4.13347e-19 -0.0153571)
(-5.98129e-18 -1.48667e-19 -0.0153563)
(-4.95232e-18 -4.91415e-19 -0.0153546)
(-4.97419e-18 -7.4645e-19 -0.015352)
(-1.4126e-18 9.11496e-21 -0.0150826)
(-1.54903e-18 2.38565e-19 -0.0151007)
(-1.65345e-18 1.76951e-19 -0.0151182)
(-1.46084e-18 5.17282e-19 -0.0151351)
(-1.31903e-18 5.13271e-19 -0.0151514)
(-1.36001e-18 3.17848e-19 -0.0151671)
(-1.20239e-18 -5.90058e-20 -0.0151822)
(-1.09087e-18 1.37114e-20 -0.0151966)
(-1.52675e-18 -3.79543e-19 -0.0152103)
(-1.68364e-18 -5.57197e-19 -0.0152233)
(-1.63003e-18 -6.44196e-19 -0.0152355)
(-1.30952e-18 -4.56228e-19 -0.0152471)
(-1.48392e-18 -5.21104e-19 -0.0152578)
(-1.49031e-18 -6.38104e-19 -0.0152678)
(-1.93896e-18 -3.24528e-19 -0.0152771)
(-2.58334e-18 -1.56074e-19 -0.0152855)
(-2.61629e-18 -5.73598e-19 -0.0152931)
(-3.04572e-18 -1.97288e-19 -0.0152999)
(-1.96241e-18 1.22755e-19 -0.0153058)
(-1.42397e-18 3.04664e-19 -0.0153109)
(-1.91555e-18 -1.5087e-19 -0.0153152)
(-1.76979e-18 -1.66141e-19 -0.0153186)
(-1.945e-18 -9.20177e-19 -0.0153212)
(-1.77216e-18 -6.23469e-19 -0.0153229)
(-1.83889e-18 -6.30293e-19 -0.0153238)
(-4.39364e-18 -3.95763e-19 -0.0153238)
(-6.03482e-18 -1.65431e-19 -0.0153229)
(-5.04673e-18 4.58844e-20 -0.0153212)
(-5.01521e-18 -1.89839e-19 -0.0153186)
(-6.09726e-18 2.72034e-20 -0.0153152)
(-6.30341e-18 -6.43927e-19 -0.0153109)
(-7.34358e-18 -1.79112e-18 -0.0153058)
(-1.53733e-18 2.3934e-19 -0.0150468)
(-1.28659e-18 -9.00775e-20 -0.0150649)
(-1.62197e-18 2.75686e-19 -0.0150826)
(-1.4742e-18 5.44225e-19 -0.0150996)
(-1.38474e-18 5.93478e-19 -0.0151161)
(-1.42615e-18 3.56943e-19 -0.0151319)
(-1.47115e-18 3.07064e-19 -0.0151471)
(-1.22097e-18 -4.17811e-20 -0.0151616)
(-1.55787e-18 -5.81429e-19 -0.0151754)
(-1.68513e-18 -6.60894e-19 -0.0151886)
(-1.65235e-18 -5.94688e-19 -0.0152009)
(-1.30114e-18 -4.56054e-19 -0.0152126)
(-1.4952e-18 -5.23668e-19 -0.0152235)
(-1.50741e-18 -4.67768e-19 -0.0152335)
(-1.64953e-18 -7.413e-19 -0.0152428)
(-2.55828e-18 -1.31499e-19 -0.0152513)
(-2.61069e-18 -5.33635e-19 -0.015259)
(-2.93478e-18 2.14379e-19 -0.0152659)
(-2.03355e-18 6.47216e-19 -0.0152719)
(-1.54713e-18 2.94044e-19 -0.0152771)
(-1.94628e-18 -2.10567e-20 -0.0152814)
(-1.99476e-18 3.23477e-19 -0.0152848)
(-2.14582e-18 -5.49795e-19 -0.0152874)
(-1.74062e-18 -3.56639e-19 -0.0152892)
(-1.83734e-18 -5.25539e-19 -0.01529)
(-4.38271e-18 -2.70313e-19 -0.01529)
(-5.95825e-18 -1.26597e-19 -0.0152892)
(-4.99388e-18 7.4427e-19 -0.0152874)
(-5.05223e-18 3.47905e-19 -0.0152848)
(-6.24669e-18 6.14847e-19 -0.0152814)
(-6.74697e-18 9.24187e-20 -0.0152771)
(-8.16214e-18 -6.03812e-19 -0.0152719)
(-1.01966e-17 -3.51709e-18 -0.0152659)
(-1.45823e-17 -6.19053e-18 -0.015259)
(-1.77177e-18 3.23796e-19 -0.0150105)
(-1.29945e-18 -1.26049e-19 -0.0150289)
(-1.42291e-18 2.46617e-19 -0.0150466)
(-1.39436e-18 4.6744e-19 -0.0150638)
(-1.33703e-18 3.82973e-19 -0.0150804)
(-1.35619e-18 9.95258e-20 -0.0150963)
(-1.41984e-18 -5.86361e-20 -0.0151117)
(-1.27566e-18 -3.77228e-19 -0.0151263)
(-1.52687e-18 -8.24031e-19 -0.0151402)
(-1.63001e-18 -7.50014e-19 -0.0151535)
(-1.6698e-18 -5.48332e-19 -0.015166)
(-1.35711e-18 -3.01324e-19 -0.0151777)
(-1.47522e-18 -4.43481e-19 -0.0151887)
(-1.63492e-18 -3.41475e-19 -0.0151989)
(-1.48271e-18 -1.05979e-18 -0.0152082)
(-2.34867e-18 -4.24816e-19 -0.0152168)
(-2.46873e-18 -5.78129e-19 -0.0152246)
(-2.67296e-18 8.10354e-20 -0.0152315)
(-2.09991e-18 3.84301e-19 -0.0152376)
(-1.70546e-18 8.25547e-20 -0.0152428)
(-1.89094e-18 -1.80906e-19 -0.0152471)
(-2.04964e-18 1.61389e-19 -0.0152506)
(-2.31775e-18 -2.96834e-19 -0.0152532)
(-1.79133e-18 -3.70753e-19 -0.015255)
(-1.82371e-18 -4.98659e-19 -0.0152559)
(-4.35781e-18 -3.00755e-19 -0.0152559)
(-5.75088e-18 -8.72138e-20 -0.015255)
(-4.86926e-18 1.15415e-18 -0.0152532)
(-5.15905e-18 8.61795e-19 -0.0152506)
(-6.35629e-18 9.22924e-19 -0.0152471)
(-6.94906e-18 7.45126e-19 -0.0152428)
(-8.94962e-18 8.55249e-19 -0.0152376)
(-1.17265e-17 -1.87549e-18 -0.0152315)
(-1.97671e-17 -4.75269e-18 -0.0152246)
(-1.80044e-18 3.47586e-19 -0.014974)
(-1.49144e-18 -6.87559e-21 -0.0149925)
(-1.30083e-18 1.07441e-19 -0.0150103)
(-1.32048e-18 2.99679e-19 -0.0150276)
(-1.25259e-18 2.43619e-20 -0.0150444)
(-1.32222e-18 -2.16804e-19 -0.0150604)
(-1.34072e-18 -4.77342e-19 -0.0150759)
(-1.26167e-18 -6.36508e-19 -0.0150906)
(-1.50145e-18 -9.72304e-19 -0.0151047)
(-1.49959e-18 -8.65544e-19 -0.015118)
(-1.57629e-18 -4.87596e-19 -0.0151306)
(-1.36757e-18 -2.14027e-19 -0.0151424)
(-1.4859e-18 -4.38814e-19 -0.0151535)
(-1.7794e-18 -3.98503e-19 -0.0151638)
(-1.49933e-18 -1.13301e-18 -0.0151732)
(-2.12767e-18 -7.41034e-19 -0.0151819)
(-2.35334e-18 -7.51885e-19 -0.0151897)
(-2.44292e-18 -6.47504e-19 -0.0151967)
(-1.97544e-18 -4.03897e-19 -0.0152028)
(-1.7702e-18 -6.42016e-20 -0.0152081)
(-1.86426e-18 -4.397e-19 -0.0152125)
(-2.01165e-18 -1.91104e-19 -0.015216)
(-2.42864e-18 -2.43656e-19 -0.0152187)
(-1.85087e-18 -3.8004e-19 -0.0152204)
(-1.8235e-18 -4.96475e-19 -0.0152213)
(-4.33821e-18 -7.0932e-19 -0.0152213)
(-5.47373e-18 -2.06227e-20 -0.0152204)
(-4.65874e-18 1.06092e-18 -0.0152187)
(-5.26212e-18 1.17771e-18 -0.015216)
(-6.49834e-18 9.68245e-19 -0.0152125)
(-6.94707e-18 1.30267e-18 -0.0152081)
(-9.46435e-18 1.7599e-18 -0.0152028)
(-1.31951e-17 5.79108e-19 -0.0151967)
(-2.78316e-17 -8.34474e-19 -0.0151897)
(-1.72184e-18 2.56411e-19 -0.0149372)
(-1.56453e-18 -1.29487e-19 -0.0149557)
(-1.21223e-18 -4.84566e-20 -0.0149737)
(-1.37779e-18 3.43648e-19 -0.0149912)
(-1.22582e-18 -2.42019e-19 -0.015008)
(-1.33437e-18 -3.46513e-19 -0.0150242)
(-1.37266e-18 -5.88289e-19 -0.0150397)
(-1.29398e-18 -7.35935e-19 -0.0150546)
(-1.56634e-18 -8.86595e-19 -0.0150687)
(-1.35264e-18 -1.01389e-18 -0.0150822)
(-1.4522e-18 -5.35398e-19 -0.0150949)
(-1.30128e-18 -4.5396e-19 -0.0151068)
(-1.4361e-18 -5.97637e-19 -0.015118)
(-1.85251e-18 -5.87674e-19 -0.0151283)
(-1.56275e-18 -1.14345e-18 -0.0151379)
(-1.98663e-18 -9.89743e-19 -0.0151466)
(-2.35546e-18 -9.37632e-19 -0.0151545)
(-2.37263e-18 -1.18187e-18 -0.0151615)
(-1.75606e-18 -7.6484e-19 -0.0151677)
(-1.72068e-18 -4.94219e-20 -0.015173)
(-1.90318e-18 -5.72472e-19 -0.0151774)
(-1.91328e-18 -4.945e-19 -0.015181)
(-2.42818e-18 -2.95156e-19 -0.0151837)
(-1.93245e-18 -4.43331e-20 -0.0151855)
(-1.97526e-18 -4.35896e-19 -0.0151864)
(-4.27799e-18 -8.42689e-19 -0.0151864)
(-5.10884e-18 5.01754e-19 -0.0151855)
(-4.47449e-18 8.08396e-19 -0.0151837)
(-5.37033e-18 1.02561e-18 -0.015181)
(-6.52088e-18 9.55719e-19 -0.0151774)
(-6.79508e-18 1.94809e-18 -0.015173)
(-9.6446e-18 2.41298e-18 -0.0151677)
(-1.39299e-17 3.53505e-18 -0.0151615)
(-3.7972e-17 1.00511e-17 -0.0151545)
(-1.63071e-18 1.7683e-19 -0.0149)
(-1.6353e-18 -2.597e-19 -0.0149187)
(-1.09875e-18 -7.53857e-20 -0.0149368)
(-1.39252e-18 2.94581e-19 -0.0149543)
(-1.3077e-18 -4.21029e-19 -0.0149713)
(-1.3568e-18 -3.83093e-19 -0.0149876)
(-1.40061e-18 -7.23134e-19 -0.0150032)
(-1.34723e-18 -6.42753e-19 -0.0150182)
(-1.70127e-18 -7.69375e-19 -0.0150325)
(-1.34494e-18 -1.03623e-18 -0.015046)
(-1.38959e-18 -4.5877e-19 -0.0150588)
(-1.24358e-18 -6.79966e-19 -0.0150708)
(-1.36173e-18 -7.43189e-19 -0.0150821)
(-1.89371e-18 -7.35275e-19 -0.0150925)
(-1.65657e-18 -1.10492e-18 -0.0151021)
(-1.92781e-18 -9.42468e-19 -0.0151109)
(-2.37119e-18 -9.9962e-19 -0.0151189)
(-2.39296e-18 -9.96277e-19 -0.015126)
(-1.58172e-18 -3.68645e-19 -0.0151322)
(-1.70203e-18 6.40845e-20 -0.0151376)
(-2.0364e-18 -5.40757e-19 -0.015142)
(-1.84458e-18 -8.03162e-19 -0.0151456)
(-2.2627e-18 -2.94644e-19 -0.0151483)
(-1.95418e-18 3.78592e-19 -0.0151501)
(-2.17104e-18 -3.00891e-19 -0.015151)
(-4.04961e-18 -3.22547e-19 -0.015151)
(-4.86377e-18 8.69804e-19 -0.0151501)
(-4.54885e-18 8.06035e-19 -0.0151483)
(-5.40093e-18 1.02925e-18 -0.0151456)
(-6.27372e-18 1.36773e-18 -0.015142)
(-6.52578e-18 2.47534e-18 -0.0151376)
(-9.28367e-18 3.2166e-18 -0.0151322)
(-1.22657e-17 5.91153e-18 -0.015126)
(-2.44425e-17 1.51407e-17 -0.0151189)
(-1.41302e-18 -6.06223e-20 -0.0148625)
(-1.73461e-18 -3.20333e-19 -0.0148813)
(-1.08322e-18 -8.16617e-20 -0.0148995)
(-1.21094e-18 -1.01683e-19 -0.0149172)
(-1.39504e-18 -4.47768e-19 -0.0149342)
(-1.34713e-18 -5.44117e-19 -0.0149506)
(-1.42273e-18 -7.3326e-19 -0.0149664)
(-1.37351e-18 -4.84602e-19 -0.0149815)
(-1.79876e-18 -7.40332e-19 -0.0149958)
(-1.43253e-18 -7.08304e-19 -0.0150095)
(-1.49084e-18 -1.17254e-19 -0.0150224)
(-1.24662e-18 -9.65309e-19 -0.0150345)
(-1.28958e-18 -8.23755e-19 -0.0150458)
(-1.92125e-18 -7.33941e-19 -0.0150563)
(-1.72268e-18 -8.46386e-19 -0.015066)
(-1.94668e-18 -6.93816e-19 -0.0150749)
(-2.37958e-18 -8.20861e-19 -0.0150829)
(-2.35575e-18 -3.80304e-19 -0.0150901)
(-1.52379e-18 1.22673e-19 -0.0150963)
(-1.76659e-18 6.67451e-21 -0.0151017)
(-2.28626e-18 -2.7662e-19 -0.0151062)
(-1.79325e-18 -8.34124e-19 -0.0151099)
(-1.97607e-18 -1.26733e-19 -0.0151126)
(-1.95913e-18 3.67087e-19 -0.0151144)
(-2.28025e-18 -2.20921e-19 -0.0151153)
(-3.88694e-18 -3.94315e-19 -0.0151153)
(-4.74741e-18 4.97689e-19 -0.0151144)
(-4.50407e-18 9.65987e-19 -0.0151126)
(-5.28237e-18 1.43826e-18 -0.0151099)
(-5.99248e-18 2.03229e-18 -0.0151062)
(-6.21897e-18 2.95523e-18 -0.0151017)
(-8.55485e-18 4.12488e-18 -0.0150963)
(-1.01677e-17 7.35035e-18 -0.0150901)
(-1.58814e-17 1.52927e-17 -0.0150829)
(-1.07982e-18 -4.07446e-19 -0.0148247)
(-1.77726e-18 -2.78158e-19 -0.0148436)
(-1.17521e-18 -9.51345e-20 -0.0148619)
(-1.09013e-18 -3.61855e-19 -0.0148797)
(-1.46932e-18 -3.89429e-19 -0.0148969)
(-1.32629e-18 -6.86276e-19 -0.0149134)
(-1.42086e-18 -6.65062e-19 -0.0149292)
(-1.42682e-18 -3.19931e-19 -0.0149444)
(-1.90223e-18 -5.15128e-19 -0.0149589)
(-1.52942e-18 -1.50149e-19 -0.0149726)
(-1.77798e-18 2.58085e-19 -0.0149856)
(-1.43036e-18 -1.01998e-18 -0.0149978)
(-1.14015e-18 -8.56444e-19 -0.0150092)
(-1.86954e-18 -6.76772e-19 -0.0150198)
(-1.77544e-18 -5.89371e-19 -0.0150296)
(-1.95492e-18 -5.06887e-19 -0.0150385)
(-2.37774e-18 -2.72935e-19 -0.0150466)
(-2.31979e-18 1.52105e-19 -0.0150538)
(-1.60601e-18 5.05116e-19 -0.0150601)
(-1.79554e-18 -6.58918e-20 -0.0150655)
(-2.44849e-18 8.21901e-20 -0.0150701)
(-1.84042e-18 -4.43485e-19 -0.0150737)
(-1.81379e-18 9.0282e-20 -0.0150765)
(-1.97724e-18 5.21574e-20 -0.0150783)
(-2.49271e-18 -1.31102e-19 -0.0150792)
(-3.84366e-18 -5.35555e-19 -0.0150792)
(-4.42646e-18 6.15206e-19 -0.0150783)
(-4.26741e-18 1.07055e-18 -0.0150765)
(-5.08328e-18 1.71114e-18 -0.0150737)
(-5.68197e-18 2.71652e-18 -0.0150701)
(-5.82499e-18 3.47015e-18 -0.0150655)
(-7.69194e-18 4.9007e-18 -0.0150601)
(-8.33977e-18 8.31133e-18 -0.0150538)
(-1.07948e-17 1.38952e-17 -0.0150466)
(-9.59145e-19 -5.21862e-19 -0.0147866)
(-1.68334e-18 -2.7607e-19 -0.0148056)
(-1.25828e-18 -1.86607e-19 -0.0148241)
(-1.10259e-18 -3.71793e-19 -0.0148419)
(-1.51535e-18 -3.61623e-19 -0.0148592)
(-1.43454e-18 -6.33706e-19 -0.0148758)
(-1.3856e-18 -5.35651e-19 -0.0148918)
(-1.36644e-18 -1.89793e-19 -0.014907)
(-1.9413e-18 -2.59323e-19 -0.0149216)
(-1.55799e-18 2.43566e-19 -0.0149354)
(-1.96028e-18 2.34808e-19 -0.0149485)
(-1.88016e-18 -6.02241e-19 -0.0149608)
(-1.13465e-18 -6.97629e-19 -0.0149723)
(-1.72912e-18 -7.88415e-19 -0.0149829)
(-1.71212e-18 -6.23066e-19 -0.0149928)
(-1.82515e-18 -4.58557e-19 -0.0150018)
(-2.31284e-18 1.64142e-19 -0.0150099)
(-2.28997e-18 4.80721e-19 -0.0150171)
(-1.72686e-18 6.88986e-19 -0.0150235)
(-1.87788e-18 1.79694e-21 -0.015029)
(-2.50336e-18 2.30731e-19 -0.0150336)
(-1.87767e-18 -2.2796e-19 -0.0150372)
(-1.7969e-18 1.39121e-19 -0.01504)
(-2.01924e-18 -9.41741e-20 -0.0150418)
(-2.53427e-18 6.59445e-20 -0.0150428)
(-3.66378e-18 2.96034e-20 -0.0150428)
(-4.1848e-18 1.08533e-18 -0.0150418)
(-4.15928e-18 1.32194e-18 -0.01504)
(-4.75736e-18 1.93737e-18 -0.0150372)
(-5.31947e-18 3.21925e-18 -0.0150336)
(-5.47061e-18 3.7949e-18 -0.015029)
(-6.7801e-18 5.34543e-18 -0.0150235)
(-6.9164e-18 8.67993e-18 -0.0150171)
(-7.83582e-18 1.23578e-17 -0.0150099)
(-9.3117e-19 -4.03759e-19 -0.0147482)
(-1.58215e-18 -3.57326e-19 -0.0147673)
(-1.28733e-18 -2.6385e-19 -0.0147859)
(-1.23699e-18 -1.26691e-19 -0.0148038)
(-1.52959e-18 -3.34341e-19 -0.0148212)
(-1.55929e-18 -4.50408e-19 -0.0148379)
(-1.42575e-18 -3.9727e-19 -0.014854)
(-1.19511e-18 -3.9405e-19 -0.0148693)
(-1.91178e-18 -8.52872e-20 -0.014884)
(-1.53053e-18 2.78629e-19 -0.0148979)
(-1.77972e-18 -4.72219e-19 -0.0149111)
(-2.16442e-18 -2.34887e-19 -0.0149234)
(-1.39638e-18 -2.94514e-19 -0.014935)
(-1.70189e-18 -9.17614e-19 -0.0149457)
(-1.64631e-18 -5.95644e-19 -0.0149556)
(-1.61079e-18 -4.81993e-19 -0.0149647)
(-2.10801e-18 2.55675e-19 -0.0149729)
(-2.25178e-18 5.51157e-19 -0.0149802)
(-1.77517e-18 2.94044e-19 -0.0149866)
(-1.94958e-18 1.2868e-19 -0.0149921)
(-2.56479e-18 1.66896e-19 -0.0149967)
(-1.92858e-18 -2.71335e-19 -0.0150004)
(-1.7552e-18 3.20864e-20 -0.0150032)
(-1.99213e-18 -6.07963e-20 -0.015005)
(-2.47009e-18 6.70339e-20 -0.015006)
(-3.51106e-18 4.97268e-19 -0.015006)
(-3.99474e-18 1.21883e-18 -0.015005)
(-3.99215e-18 1.84419e-18 -0.0150032)
(-4.46569e-18 2.14235e-18 -0.0150004)
(-5.01923e-18 3.48622e-18 -0.0149967)
(-5.12226e-18 3.91809e-18 -0.0149921)
(-5.93419e-18 5.58884e-18 -0.0149866)
(-5.93733e-18 8.23187e-18 -0.0149802)
(-5.94906e-18 1.1085e-17 -0.0149729)
(-8.35427e-19 -4.2709e-19 -0.0147095)
(-1.53214e-18 -3.58267e-19 -0.0147287)
(-1.27729e-18 -2.35252e-19 -0.0147474)
(-1.30325e-18 1.39749e-20 -0.0147654)
(-1.58296e-18 -3.29693e-19 -0.0147829)
(-1.59617e-18 -4.45285e-19 -0.0147997)
(-1.59207e-18 -2.46587e-19 -0.0148159)
(-9.98773e-19 -5.79839e-19 -0.0148313)
(-1.77511e-18 6.217e-21 -0.0148461)
(-1.61748e-18 -2.99953e-20 -0.0148601)
(-1.65286e-18 -8.77275e-19 -0.0148733)
(-2.10982e-18 4.16027e-20 -0.0148857)
(-1.63596e-18 -5.96863e-20 -0.0148974)
(-1.77911e-18 -8.94642e-19 -0.0149082)
(-1.66403e-18 -2.52559e-19 -0.0149181)
(-1.48345e-18 -3.82159e-19 -0.0149273)
(-1.89394e-18 2.04618e-19 -0.0149355)
(-2.28212e-18 3.55482e-19 -0.0149428)
(-1.7672e-18 -1.50965e-19 -0.0149493)
(-1.92967e-18 3.41133e-19 -0.0149549)
(-2.64288e-18 -5.56472e-20 -0.0149595)
(-1.98555e-18 -6.3367e-20 -0.0149632)
(-1.70966e-18 4.314e-20 -0.014966)
(-1.99563e-18 -5.22515e-20 -0.0149679)
(-2.34411e-18 -2.38762e-19 -0.0149688)
(-3.29645e-18 6.17012e-19 -0.0149688)
(-3.75774e-18 1.27272e-18 -0.0149679)
(-3.85142e-18 2.164e-18 -0.014966)
(-4.26629e-18 2.03689e-18 -0.0149632)
(-4.73748e-18 3.5676e-18 -0.0149595)
(-4.78441e-18 3.98817e-18 -0.0149549)
(-5.27531e-18 5.65594e-18 -0.0149493)
(-5.19385e-18 7.60953e-18 -0.0149428)
(-4.49736e-18 1.03154e-17 -0.0149355)
(2.40497e-18 1.39104e-17 -0.0149273)
(-7.27591e-19 -4.98894e-19 -0.0146705)
(-1.4601e-18 -3.30298e-19 -0.0146898)
(-1.26643e-18 -2.50689e-19 -0.0147086)
(-1.2585e-18 -3.70637e-20 -0.0147267)
(-1.63856e-18 -3.18392e-19 -0.0147443)
(-1.54596e-18 -4.69149e-19 -0.0147612)
(-1.77633e-18 -3.70828e-20 -0.0147774)
(-1.03043e-18 -5.04135e-19 -0.014793)
(-1.58658e-18 -1.74981e-19 -0.0148078)
(-1.65883e-18 -2.50232e-19 -0.0148219)
(-1.65639e-18 -5.93028e-19 -0.0148352)
(-2.04513e-18 1.88367e-19 -0.0148477)
(-1.78068e-18 -2.41749e-19 -0.0148594)
(-1.8329e-18 -7.15418e-19 -0.0148703)
(-1.67973e-18 9.37114e-20 -0.0148803)
(-1.44411e-18 -3.4915e-19 -0.0148895)
(-1.70222e-18 -8.60629e-20 -0.0148978)
(-2.29386e-18 2.19007e-20 -0.0149052)
(-1.75578e-18 -1.54629e-20 -0.0149117)
(-1.91903e-18 4.93457e-19 -0.0149173)
(-2.71267e-18 -1.24445e-20 -0.014922)
(-2.01754e-18 6.00126e-19 -0.0149257)
(-1.7539e-18 1.59411e-19 -0.0149285)
(-2.07848e-18 -8.66944e-20 -0.0149304)
(-2.23703e-18 -6.48994e-19 -0.0149313)
(-3.02794e-18 4.20968e-19 -0.0149313)
(-3.51461e-18 1.10195e-18 -0.0149304)
(-3.79021e-18 1.93824e-18 -0.0149285)
(-4.10615e-18 1.74724e-18 -0.0149257)
(-4.41556e-18 3.49212e-18 -0.014922)
(-4.44954e-18 3.9586e-18 -0.0149173)
(-4.74143e-18 5.50325e-18 -0.0149117)
(-4.46667e-18 7.26415e-18 -0.0149052)
(-3.36977e-18 9.59664e-18 -0.0148978)
(1.99011e-18 1.23134e-17 -0.0148895)
(-8.03644e-19 -3.89522e-19 -0.0146313)
(-1.37513e-18 -3.12863e-19 -0.0146507)
(-1.20623e-18 -3.31092e-19 -0.0146695)
(-1.21782e-18 -4.42089e-20 -0.0146877)
(-1.67673e-18 -3.28979e-19 -0.0147054)
(-1.47482e-18 -4.96162e-19 -0.0147224)
(-1.75023e-18 -1.73286e-19 -0.0147387)
(-1.2054e-18 -3.06306e-19 -0.0147543)
(-1.40598e-18 -4.21549e-19 -0.0147692)
(-1.69604e-18 -2.00911e-19 -0.0147834)
(-1.63572e-18 -4.112e-19 -0.0147968)
(-1.98949e-18 5.0581e-20 -0.0148094)
(-1.85288e-18 -4.45028e-19 -0.0148212)
(-1.83714e-18 -3.81592e-19 -0.0148321)
(-1.69219e-18 1.79693e-19 -0.0148422)
(-1.51879e-18 -3.99937e-19 -0.0148514)
(-1.5521e-18 -4.38926e-19 -0.0148598)
(-2.14223e-18 -2.83823e-19 -0.0148672)
(-1.7162e-18 3.9864e-19 -0.0148737)
(-1.89755e-18 4.76949e-19 -0.0148794)
(-2.6739e-18 3.66193e-19 -0.0148841)
(-2.1003e-18 1.40946e-18 -0.0148878)
(-1.95913e-18 3.05626e-19 -0.0148907)
(-2.27608e-18 1.02547e-19 -0.0148926)
(-2.17632e-18 -6.56903e-19 -0.0148935)
(-2.73503e-18 2.90752e-19 -0.0148935)
(-3.30598e-18 9.54941e-19 -0.0148926)
(-3.73548e-18 1.64612e-18 -0.0148907)
(-3.85996e-18 1.54406e-18 -0.0148878)
(-4.07699e-18 3.27754e-18 -0.0148841)
(-4.17066e-18 3.78818e-18 -0.0148794)
(-4.27503e-18 5.04492e-18 -0.0148737)
(-3.8239e-18 7.09225e-18 -0.0148672)
(-2.55214e-18 8.6495e-18 -0.0148598)
(1.60093e-18 1.07934e-17 -0.0148514)
(-9.05794e-19 -1.5571e-20 -0.0145917)
(-1.45081e-18 -1.91869e-19 -0.0146112)
(-1.17843e-18 -3.68909e-19 -0.0146301)
(-1.14678e-18 -6.77925e-20 -0.0146484)
(-1.72458e-18 -3.54502e-19 -0.0146662)
(-1.44611e-18 -5.73989e-19 -0.0146833)
(-1.60826e-18 -3.84099e-19 -0.0146997)
(-1.42969e-18 4.97489e-20 -0.0147154)
(-1.36235e-18 -4.37989e-19 -0.0147304)
(-1.71334e-18 -5.98599e-20 -0.0147446)
(-1.62155e-18 -3.8045e-19 -0.0147581)
(-1.95898e-18 -4.60081e-20 -0.0147707)
(-1.91316e-18 -3.6416e-19 -0.0147826)
(-1.88945e-18 8.94817e-20 -0.0147936)
(-1.72698e-18 1.28453e-19 -0.0148037)
(-1.65127e-18 -3.29281e-19 -0.014813)
(-1.58882e-18 -1.63583e-19 -0.0148214)
(-1.94861e-18 -2.69323e-19 -0.0148289)
(-1.60628e-18 5.93175e-19 -0.0148355)
(-1.85226e-18 2.97513e-19 -0.0148411)
(-2.45864e-18 4.34138e-19 -0.0148459)
(-2.15495e-18 1.48653e-18 -0.0148497)
(-2.2094e-18 3.53268e-19 -0.0148525)
(-2.42586e-18 2.56455e-19 -0.0148544)
(-2.1957e-18 -1.79995e-19 -0.0148554)
(-2.51252e-18 4.96625e-19 -0.0148554)
(-3.118e-18 1.08939e-18 -0.0148544)
(-3.67731e-18 1.71626e-18 -0.0148525)
(-3.63976e-18 1.57041e-18 -0.0148497)
(-3.77772e-18 2.96261e-18 -0.0148459)
(-3.94484e-18 3.60865e-18 -0.0148411)
(-3.80279e-18 4.5073e-18 -0.0148355)
(-3.26307e-18 6.74266e-18 -0.0148289)
(-2.10023e-18 7.55745e-18 -0.0148214)
(-9.05233e-19 2.46312e-19 -0.0145519)
(-1.45137e-18 -2.65199e-19 -0.0145714)
(-1.28608e-18 -3.06289e-19 -0.0145904)
(-1.05395e-18 -1.29002e-19 -0.0146089)
(-1.78416e-18 -3.39948e-19 -0.0146267)
(-1.47712e-18 -5.86418e-19 -0.0146438)
(-1.52485e-18 -2.69514e-19 -0.0146603)
(-1.5561e-18 3.14511e-19 -0.0146761)
(-1.40354e-18 -4.05959e-19 -0.0146912)
(-1.72636e-18 -1.59644e-20 -0.0147055)
(-1.62501e-18 -3.60471e-19 -0.0147191)
(-1.94157e-18 -4.03342e-21 -0.0147318)
(-1.9028e-18 -2.08378e-19 -0.0147437)
(-1.87365e-18 1.87574e-19 -0.0147548)
(-1.80426e-18 -3.79466e-21 -0.014765)
(-1.68028e-18 -1.28559e-19 -0.0147743)
(-1.66982e-18 3.506e-19 -0.0147827)
(-1.91094e-18 -1.5481e-19 -0.0147903)
(-1.53699e-18 4.89664e-19 -0.0147969)
(-1.83249e-18 -2.40707e-20 -0.0148026)
(-2.25162e-18 1.02523e-19 -0.0148073)
(-2.10185e-18 8.1092e-19 -0.0148111)
(-2.37602e-18 3.31294e-19 -0.014814)
(-2.47682e-18 2.20903e-19 -0.0148159)
(-2.12872e-18 3.15105e-19 -0.0148169)
(-2.33585e-18 6.82216e-19 -0.0148169)
(-2.95124e-18 1.31188e-18 -0.0148159)
(-3.63614e-18 1.839e-18 -0.014814)
(-3.48149e-18 1.80914e-18 -0.0148111)
(-3.53382e-18 2.60507e-18 -0.0148073)
(-3.73241e-18 3.50929e-18 -0.0148026)
(-3.35285e-18 4.28394e-18 -0.0147969)
(-2.89999e-18 6.17536e-18 -0.0147903)
(-1.78919e-18 6.59243e-18 -0.0147827)
(-6.92421e-19 2.85478e-21 -0.0145118)
(-1.21515e-18 -6.51577e-19 -0.0145314)
(-1.37176e-18 -1.99301e-19 -0.0145505)
(-1.01972e-18 -1.33031e-19 -0.014569)
(-1.83064e-18 -2.93293e-19 -0.0145869)
(-1.52911e-18 -5.05759e-19 -0.0146041)
(-1.42014e-18 -1.97415e-19 -0.0146207)
(-1.60571e-18 2.95331e-19 -0.0146366)
(-1.42127e-18 -4.80984e-19 -0.0146517)
(-1.69467e-18 -2.41296e-20 -0.0146661)
(-1.62337e-18 -3.11205e-19 -0.0146797)
(-1.90146e-18 -7.66952e-21 -0.0146925)
(-1.95827e-18 -8.46813e-20 -0.0147045)
(-1.81247e-18 -1.3541e-20 -0.0147156)
(-1.75658e-18 -2.16221e-19 -0.0147259)
(-1.59448e-18 -9.6912e-20 -0.0147353)
(-1.65209e-18 2.25171e-19 -0.0147437)
(-1.91563e-18 -2.23919e-19 -0.0147513)
(-1.49e-18 1.92126e-19 -0.014758)
(-1.86051e-18 -2.42622e-19 -0.0147637)
(-2.16257e-18 2.0066e-19 -0.0147685)
(-1.99763e-18 3.44856e-19 -0.0147723)
(-2.41255e-18 3.84955e-19 -0.0147752)
(-2.46769e-18 5.43141e-19 -0.0147771)
(-2.07578e-18 7.70232e-19 -0.0147781)
(-2.21045e-18 5.71032e-19 -0.0147781)
(-2.79192e-18 1.48753e-18 -0.0147771)
(-3.60547e-18 1.46107e-18 -0.0147752)
(-3.39944e-18 2.03991e-18 -0.0147723)
(-3.35512e-18 2.26888e-18 -0.0147685)
(-3.45e-18 3.41754e-18 -0.0147637)
(-2.97486e-18 4.16224e-18 -0.014758)
(-2.64809e-18 5.62047e-18 -0.0147513)
(-1.55899e-18 6.06201e-18 -0.0147437)
(-5.90262e-19 -3.14794e-19 -0.0144714)
(-8.79648e-19 -9.79324e-19 -0.0144911)
(-1.30613e-18 -1.68115e-19 -0.0145103)
(-1.07024e-18 5.65763e-22 -0.0145288)
(-1.74657e-18 -4.52937e-19 -0.0145468)
(-1.66116e-18 -3.5822e-19 -0.0145641)
(-1.34592e-18 -1.28846e-19 -0.0145808)
(-1.6663e-18 3.68626e-19 -0.0145968)
(-1.57792e-18 -2.11205e-19 -0.014612)
(-1.68182e-18 3.98227e-20 -0.0146264)
(-1.64657e-18 -2.38613e-19 -0.0146401)
(-1.8032e-18 -1.12987e-19 -0.014653)
(-2.02906e-18 1.12519e-19 -0.014665)
(-1.85187e-18 -1.19934e-19 -0.0146762)
(-1.7786e-18 -2.76162e-19 -0.0146865)
(-1.53083e-18 -1.57162e-19 -0.0146959)
(-1.55896e-18 -1.84859e-19 -0.0147044)
(-1.89515e-18 -3.30744e-19 -0.0147121)
(-1.43554e-18 -1.1381e-19 -0.0147187)
(-1.77494e-18 -1.46033e-19 -0.0147245)
(-2.12419e-18 5.76551e-19 -0.0147293)
(-2.01311e-18 3.38659e-19 -0.0147332)
(-2.32919e-18 4.62425e-19 -0.0147361)
(-2.40449e-18 8.2746e-19 -0.014738)
(-2.14641e-18 1.11454e-18 -0.014739)
(-2.13114e-18 4.14654e-19 -0.014739)
(-2.72173e-18 1.58999e-18 -0.014738)
(-3.58564e-18 1.04152e-18 -0.0147361)
(-3.25411e-18 1.9856e-18 -0.0147332)
(-3.2032e-18 2.0179e-18 -0.0147293)
(-3.18078e-18 3.23068e-18 -0.0147245)
(-2.66138e-18 4.10882e-18 -0.0147187)
(-2.39993e-18 5.27248e-18 -0.0147121)
(-1.3781e-18 5.57553e-18 -0.0147044)
(-7.28862e-19 -4.29277e-19 -0.0144307)
(-7.23856e-19 -1.10345e-18 -0.0144505)
(-1.10621e-18 -1.67616e-19 -0.0144697)
(-1.08302e-18 -1.72105e-20 -0.0144884)
(-1.63622e-18 -6.36646e-19 -0.0145065)
(-1.78059e-18 -2.63658e-20 -0.0145239)
(-1.39122e-18 1.60374e-19 -0.0145406)
(-1.49764e-18 9.84785e-20 -0.0145566)
(-1.7363e-18 6.41819e-21 -0.0145719)
(-1.75045e-18 8.77861e-20 -0.0145864)
(-1.65136e-18 -3.33319e-19 -0.0146002)
(-1.6628e-18 -2.81104e-19 -0.0146131)
(-2.0422e-18 1.49491e-19 -0.0146252)
(-1.92155e-18 -1.64261e-19 -0.0146364)
(-1.81272e-18 -1.72348e-19 -0.0146468)
(-1.59404e-18 -1.87005e-22 -0.0146563)
(-1.58493e-18 -1.58215e-19 -0.0146648)
(-1.87488e-18 -3.50676e-19 -0.0146725)
(-1.37539e-18 -1.27971e-19 -0.0146792)
(-1.65254e-18 9.27701e-20 -0.014685)
(-2.05967e-18 6.28377e-19 -0.0146898)
(-2.05773e-18 4.84949e-19 -0.0146937)
(-2.276e-18 4.93679e-19 -0.0146966)
(-2.29752e-18 7.88904e-19 -0.0146986)
(-2.22875e-18 1.24979e-18 -0.0146995)
(-2.08623e-18 4.07347e-19 -0.0146995)
(-2.67258e-18 1.17955e-18 -0.0146986)
(-3.58091e-18 1.04652e-18 -0.0146966)
(-3.14733e-18 1.87977e-18 -0.0146937)
(-3.04944e-18 1.84271e-18 -0.0146898)
(-2.87423e-18 2.90257e-18 -0.014685)
(-2.34188e-18 4.01579e-18 -0.0146792)
(-2.22507e-18 5.13017e-18 -0.0146725)
(-7.10595e-19 -5.82748e-19 -0.0143898)
(-7.57596e-19 -9.70016e-19 -0.0144096)
(-9.52568e-19 -1.6653e-19 -0.014429)
(-9.64712e-19 -2.12323e-19 -0.0144477)
(-1.51343e-18 -6.49331e-19 -0.0144658)
(-1.76447e-18 1.43746e-19 -0.0144833)
(-1.48955e-18 1.38855e-19 -0.0145001)