/*--------------------------------*- C++ -*----------------------------------*\
  =========                 |
  \\      /  F ield         | OpenFOAM: The Open Source CFD Toolbox
   \\    /   O peration     | Website:  https://openfoam.org
    \\  /    A nd           | Version:  7
     \\/     M anipulation  |
\*---------------------------------------------------------------------------*/
FoamFile
{
    version     2.0;
    format      ascii;
    class       surfaceScalarField;
    location    "12000";
    object      phi;
}
// * * * * * * * * * * * * * * * * * * * * * * * * * * * * * * * * * * * * * //

dimensions      [0 3 -1 0 0 0 0];

internalField   nonuniform List<scalar> 
9492
(
7.09216e-22
3.08144e-21
3.18514e-22
4.72252e-22
2.63585e-22
3.1266e-22
2.34409e-21
2.73418e-22
5.30283e-22
1.46382e-22
3.71371e-22
1.16929e-22
2.60176e-22
8.93401e-23
1.78474e-22
9.82362e-23
1.44451e-22
7.94965e-23
1.46443e-22
1.00697e-22
1.72432e-22
1.92076e-21
1.96131e-22
4.09336e-22
1.189e-22
4.22292e-22
1.04968e-22
2.78363e-22
8.44129e-23
2.1166e-22
1.01468e-22
1.80288e-22
7.05214e-23
1.35771e-22
5.33787e-23
1.18496e-22
3.30989e-23
1.71227e-22
4.71402e-23
2.09681e-22
6.86925e-23
1.20431e-22
1.51223e-21
1.53053e-22
4.66486e-22
9.38948e-23
4.11562e-22
9.9922e-23
2.71076e-22
8.34584e-23
1.88591e-22
9.71883e-23
1.66874e-22
7.1526e-23
1.64343e-22
5.39279e-23
9.03517e-23
3.84756e-23
1.40365e-22
3.63001e-23
1.28835e-22
4.06673e-23
1.0405e-22
3.87704e-23
9.8477e-23
4.54532e-23
1.66023e-23
4.78756e-23
8.53263e-23
9.0407e-24
1.54769e-23
1.47541e-23
1.12992e-24
8.82158e-23
1.26923e-21
1.13366e-22
4.56866e-22
8.35376e-23
4.19493e-22
8.60697e-23
3.17522e-22
7.44544e-23
2.00521e-22
9.4745e-23
1.82252e-22
6.12472e-23
1.16432e-22
5.76879e-23
1.0031e-22
3.805e-23
1.6051e-22
3.1808e-23
1.4955e-22
4.10909e-23
1.33488e-22
2.87552e-23
1.12737e-22
5.1107e-23
7.14835e-23
3.67876e-23
5.48778e-23
1.70791e-23
-5.51404e-24
-8.79359e-24
-2.19289e-24
6.48181e-23
8.24994e-23
5.60672e-22
7.27833e-23
4.75237e-22
6.66968e-23
2.73931e-22
7.61202e-23
2.35496e-22
8.91871e-23
2.16378e-22
5.65756e-23
1.49482e-22
6.2001e-23
1.30907e-22
3.57436e-23
1.37578e-22
3.29046e-23
1.10626e-22
3.88608e-23
1.29469e-22
2.75794e-23
8.58119e-23
4.85514e-23
8.40069e-23
2.9914e-23
8.33197e-23
1.85049e-23
-2.87539e-23
4.03916e-23
1.04244e-23
5.66207e-23
5.31119e-22
5.33208e-23
4.77763e-22
6.27965e-23
3.18605e-22
7.08808e-23
2.77864e-22
7.82359e-23
2.56388e-22
5.5549e-23
1.75716e-22
6.58232e-23
1.99188e-22
2.55468e-23
1.31549e-22
3.37697e-23
1.4741e-22
3.48527e-23
1.30246e-22
2.79124e-23
9.9868e-23
5.42543e-23
1.0253e-22
2.1615e-23
-1.91652e-24
2.14676e-23
-1.80193e-23
1.1683e-23
1.16347e-23
3.60923e-23
4.6089e-22
4.19622e-23
4.12637e-22
5.63537e-23
3.02468e-22
6.86166e-23
3.15629e-22
7.57723e-23
2.50894e-22
5.77827e-23
1.96633e-22
6.05801e-23
2.30326e-22
2.85284e-23
1.59918e-22
3.24061e-23
1.43202e-22
3.08163e-23
1.03634e-22
3.49059e-23
6.51841e-23
3.85669e-23
6.32135e-23
2.15983e-23
-2.20446e-23
2.67567e-23
-2.24006e-23
2.36098e-23
1.7228e-23
2.07551e-23
4.42284e-22
3.37026e-23
4.00982e-22
5.60538e-23
3.34762e-22
6.35831e-23
3.09619e-22
7.32006e-23
2.46456e-22
5.42985e-23
2.1731e-22
5.32274e-23
2.2739e-22
2.40133e-23
1.36695e-22
2.74695e-23
1.39916e-22
2.7822e-23
1.04206e-22
3.73708e-23
6.0494e-23
3.33427e-23
3.19707e-23
2.03129e-23
-4.87105e-23
3.99814e-23
6.4797e-24
1.62664e-23
1.58635e-23
5.1976e-24
6.91185e-22
1.00211e-23
4.35916e-22
2.81991e-23
4.23792e-22
5.29886e-23
3.67044e-22
5.72696e-23
3.71425e-22
7.10432e-23
2.86432e-22
5.22016e-23
2.09812e-22
4.51207e-23
2.31764e-22
2.26801e-23
1.04288e-22
2.45495e-23
1.4145e-22
2.74673e-23
1.16949e-22
2.62456e-23
6.4481e-23
2.99786e-23
7.18444e-23
2.72846e-23
6.51181e-24
3.57107e-23
4.98026e-23
2.54542e-24
2.13698e-23
-3.25765e-24
5.93234e-22
-9.63389e-25
3.84475e-22
2.26503e-23
4.07157e-22
5.44748e-23
3.88844e-22
5.05238e-23
3.00366e-22
6.39228e-23
2.89938e-22
5.87519e-23
2.68942e-22
3.67271e-23
1.46944e-22
2.43754e-23
9.41538e-23
1.94669e-23
1.46454e-22
2.23714e-23
1.21372e-22
2.54658e-23
9.87223e-23
2.10562e-23
1.18801e-22
2.81076e-23
3.55061e-23
3.44664e-23
4.58825e-23
5.51908e-23
2.84723e-23
-5.0954e-24
5.42951e-22
-3.23382e-24
3.81897e-22
2.22278e-23
4.37201e-22
4.61712e-23
4.21152e-22
5.04884e-23
3.15371e-22
6.27588e-23
2.89126e-22
4.18816e-23
2.21713e-22
3.43707e-23
1.49379e-22
2.74841e-23
9.94738e-23
2.34917e-23
1.5244e-22
1.98934e-23
1.22085e-22
2.99036e-23
9.00345e-23
1.86378e-23
6.15576e-23
2.58529e-23
7.39648e-23
3.43469e-23
7.69282e-23
3.89907e-23
2.50084e-23
-1.0602e-23
5.04007e-22
-5.69286e-24
3.79672e-22
2.20255e-23
4.20602e-22
3.78151e-23
4.1564e-22
4.71331e-23
3.20468e-22
5.77702e-23
2.67452e-22
3.98414e-23
1.60226e-22
3.3279e-23
1.5392e-22
2.85596e-23
1.5038e-22
2.42159e-23
1.54173e-22
1.69812e-23
1.34547e-22
2.08697e-23
5.17361e-23
2.41472e-23
1.0009e-22
2.1689e-23
6.89726e-23
3.72627e-23
9.89343e-23
3.46178e-23
2.23691e-23
-4.32e-23
3.70969e-22
-1.25253e-23
4.70702e-22
-6.2477e-24
3.79446e-22
2.40676e-23
4.90831e-22
3.05172e-23
3.76181e-22
4.23586e-23
3.22239e-22
5.29384e-23
2.57541e-22
3.64642e-23
1.85326e-22
3.40644e-23
1.85895e-22
3.20291e-23
1.13548e-22
1.78702e-23
8.34812e-23
1.50062e-23
1.78383e-22
1.94352e-23
4.06382e-23
2.22702e-23
9.77952e-23
2.50546e-23
7.07791e-23
3.43381e-23
7.51268e-23
-2.82685e-23
1.8902e-23
-4.00978e-23
3.48515e-22
-1.07472e-23
4.37765e-22
-7.89762e-25
4.02638e-22
1.82131e-23
4.77933e-22
2.87751e-23
3.3683e-22
3.5952e-23
3.21424e-22
4.74553e-23
2.95627e-22
3.60482e-23
1.58172e-22
2.89372e-23
1.81088e-22
3.33324e-23
1.4593e-22
2.14934e-23
1.87317e-23
1.00576e-23
1.53091e-22
2.3155e-23
2.57781e-23
2.08092e-23
9.69397e-23
2.46568e-23
3.82012e-23
2.65295e-23
2.8902e-23
-1.49598e-23
2.11711e-23
-5.89753e-23
2.76214e-22
-3.67023e-23
3.46456e-22
-1.0035e-23
4.15234e-22
2.92579e-24
4.01412e-22
8.14197e-24
4.32736e-22
2.57597e-23
3.25565e-22
3.48678e-23
2.80856e-22
4.0269e-23
2.57215e-22
3.72561e-23
1.32635e-22
2.44284e-23
1.38777e-22
2.51496e-23
1.47776e-22
2.90305e-23
8.20006e-24
4.46902e-24
8.18283e-23
2.85417e-23
7.57783e-23
2.09393e-23
1.46804e-22
2.37152e-23
4.11901e-23
2.28456e-23
3.29501e-23
-1.34529e-23
2.31997e-23
-5.13218e-23
3.38144e-22
-3.45193e-23
3.36269e-22
-6.51311e-24
3.93967e-22
2.25746e-24
3.89334e-22
4.38574e-24
3.61743e-22
2.01839e-23
3.53683e-22
3.18312e-23
3.04776e-22
3.25114e-23
2.53875e-22
3.53659e-23
2.18251e-22
2.21906e-23
1.45224e-22
1.81467e-23
1.53188e-22
2.82119e-23
3.90247e-23
1.15835e-23
8.76739e-23
3.06236e-23
7.66449e-23
1.60371e-23
8.58995e-23
1.89642e-23
4.32402e-23
2.3921e-23
2.2949e-23
1.96518e-23
2.58592e-23
-4.80733e-23
2.64396e-22
-3.094e-23
3.20473e-22
-8.57553e-24
4.18807e-22
9.06773e-25
4.18691e-22
3.86452e-24
3.21326e-22
1.948e-23
3.429e-22
2.63043e-23
2.9391e-22
3.32598e-23
2.87138e-22
2.92582e-23
2.19409e-22
2.56205e-23
1.10204e-22
1.53486e-23
8.45628e-23
2.96364e-23
5.46828e-23
1.25886e-23
1.01895e-22
2.86161e-23
1.47407e-22
1.81592e-23
9.65884e-23
1.61006e-23
5.28873e-23
2.50313e-23
8.77973e-23
5.50163e-23
2.19247e-23
-4.54479e-23
2.80228e-22
-2.54184e-23
3.47506e-22
-7.27128e-24
4.08668e-22
-4.0472e-24
4.16261e-22
5.13834e-24
3.52566e-22
2.04129e-23
3.34346e-22
2.64322e-23
2.82367e-22
3.22144e-23
2.85059e-22
2.08331e-23
1.89989e-22
1.95139e-23
1.2578e-22
1.10458e-23
1.0276e-22
3.19008e-23
7.81387e-23
1.32208e-23
1.16444e-22
2.24599e-23
1.37376e-22
1.71677e-23
1.03918e-22
1.98172e-23
8.85724e-23
2.36868e-23
1.59006e-22
1.73148e-23
1.49683e-23
-3.78452e-23
2.95389e-22
-2.2134e-23
3.74393e-22
-5.87017e-24
4.02054e-22
-5.06773e-24
3.32947e-22
3.19779e-24
3.00751e-22
1.48797e-23
3.37324e-22
2.65902e-23
2.65512e-22
2.8407e-23
2.42791e-22
1.8153e-23
1.99685e-22
1.44646e-23
1.28661e-22
1.50936e-23
1.12338e-22
3.3295e-23
1.12595e-22
1.82938e-23
1.31945e-22
1.91516e-23
1.27576e-22
1.46986e-23
1.09198e-22
2.10379e-23
7.8832e-23
1.63028e-23
6.24731e-23
1.33967e-23
1.37165e-23
-3.05207e-23
3.0009e-22
-2.07998e-23
3.2871e-22
-9.7667e-24
3.92406e-22
-4.13914e-24
3.55807e-22
5.36069e-24
3.26367e-22
1.00664e-23
3.31006e-22
2.25784e-23
2.42e-22
2.48555e-23
2.31755e-22
1.83466e-23
1.62003e-22
1.05271e-23
1.32933e-22
1.64062e-23
1.51032e-22
3.07424e-23
1.09138e-22
1.96724e-23
1.06827e-22
1.69756e-23
1.21351e-22
1.546e-23
9.7317e-23
1.91615e-23
5.27261e-23
1.4395e-23
4.49684e-23
8.89886e-24
1.27583e-23
-2.81637e-23
2.60725e-22
-1.73925e-23
3.25521e-22
-1.22664e-23
3.54263e-22
-6.14468e-24
3.77368e-22
6.58282e-24
3.44516e-22
7.21346e-24
3.11216e-22
2.22461e-23
3.08426e-22
2.06096e-23
2.27818e-22
1.69787e-23
1.9921e-22
9.74171e-24
1.84055e-22
1.52677e-23
1.49486e-22
3.28512e-23
1.06981e-22
1.87114e-23
8.16619e-23
1.78434e-23
1.23577e-22
1.23361e-23
1.37123e-22
1.87487e-23
1.23556e-22
1.33065e-23
8.65842e-23
4.75398e-24
1.19413e-23
-2.54626e-23
2.30928e-22
-1.51424e-23
3.23656e-22
-1.06502e-23
3.50902e-22
-8.12329e-24
3.12212e-22
3.11409e-24
3.23893e-22
6.46211e-24
3.02797e-22
1.87578e-23
2.97127e-22
1.93196e-23
2.28026e-22
1.69567e-23
2.42752e-22
6.99171e-24
2.035e-22
1.49496e-23
1.87967e-22
2.92248e-23
1.0572e-22
2.10011e-23
5.29428e-23
1.91425e-23
1.23166e-22
1.23454e-23
9.58152e-23
1.43752e-23
1.20859e-22
1.03859e-23
1.30066e-22
3.57138e-23
8.2087e-24
-2.00269e-23
2.39038e-22
-1.27031e-23
3.26827e-22
-1.01972e-23
3.14391e-22
-7.48533e-24
3.18639e-22
3.92299e-24
3.48505e-22
6.87622e-24
3.02167e-22
1.17219e-23
2.58048e-22
2.18446e-23
2.65727e-22
1.81313e-23
2.45743e-22
2.5948e-24
2.2865e-22
1.22009e-23
2.2036e-22
2.79623e-23
1.03115e-22
2.29855e-23
5.68463e-23
1.84e-23
1.22344e-22
1.27754e-23
9.70521e-23
1.37044e-23
8.21106e-23
6.01996e-24
1.31675e-22
2.68575e-23
4.5593e-24
-1.5989e-23
1.92948e-22
-1.1681e-23
2.88934e-22
-1.0965e-23
2.75013e-22
-5.24312e-24
2.99495e-22
8.22923e-26
3.35541e-22
2.79198e-24
2.61479e-22
1.29933e-23
2.57129e-22
1.86899e-23
2.58546e-22
1.7444e-23
2.4738e-22
2.1568e-24
1.64539e-22
8.2418e-24
1.80451e-22
2.43993e-23
6.29425e-23
2.54865e-23
8.77843e-23
1.95797e-23
1.3889e-22
1.23328e-23
1.44681e-22
1.78362e-23
8.51974e-23
-1.12993e-24
6.63209e-23
2.25512e-23
4.49082e-24
-1.17521e-23
2.46927e-22
-1.18885e-23
2.91362e-22
-1.14592e-23
2.74866e-22
-4.00048e-24
2.91593e-22
1.06004e-27
2.91725e-22
1.91222e-24
2.66313e-22
1.58408e-23
3.38041e-22
1.79187e-23
2.58298e-22
1.38139e-23
2.4522e-22
2.72481e-24
2.15354e-22
1.50823e-24
1.83313e-22
2.54972e-23
1.34723e-22
2.55774e-23
1.73496e-22
1.97194e-23
1.41192e-22
9.5433e-24
1.54197e-22
1.68889e-23
1.18435e-22
-2.37581e-24
-1.50312e-23
1.25381e-23
1.8194e-24
-1.24079e-23
2.92478e-22
-1.14541e-23
2.9776e-22
-1.02783e-23
2.67685e-22
-1.99284e-24
2.59044e-22
-1.19508e-24
2.53232e-22
1.40902e-24
2.25566e-22
1.41007e-23
3.45143e-22
1.80082e-23
2.14931e-22
1.44055e-23
1.99239e-22
-1.56772e-24
1.84757e-22
1.70414e-24
1.8157e-22
2.57616e-23
1.24626e-22
2.92077e-23
1.64328e-22
1.88905e-23
7.1499e-23
9.55839e-24
1.26169e-22
9.17756e-24
3.04057e-23
1.38701e-24
2.82385e-23
8.07774e-24
1.01407e-24
-1.28955e-23
2.53219e-22
-1.15314e-23
2.59149e-22
-1.02752e-23
3.10989e-22
-3.96741e-24
3.03881e-22
7.06502e-25
2.49169e-22
6.88062e-24
1.94051e-22
1.04047e-23
3.96429e-22
1.5682e-23
2.03526e-22
1.24347e-23
1.0961e-22
-3.07021e-24
1.58118e-22
2.34871e-24
1.79492e-22
2.50739e-23
1.14283e-22
2.93081e-23
1.4721e-22
2.00711e-23
-6.69142e-24
9.15414e-24
6.97099e-23
9.85803e-24
-2.64517e-23
1.52059e-24
2.62434e-23
-1.41497e-24
7.54723e-25
-1.32177e-23
2.51541e-22
-9.25339e-24
3.07365e-22
-1.06785e-23
2.36129e-22
-7.22672e-24
3.13644e-22
2.68231e-24
2.84171e-22
1.30271e-23
1.90572e-22
4.43669e-24
3.32264e-22
1.40475e-23
1.94832e-22
1.49038e-23
1.95167e-22
-5.12561e-24
6.03523e-23
2.29445e-24
1.78387e-22
2.60241e-23
9.23628e-23
2.42054e-23
1.87088e-22
1.98093e-23
3.30489e-23
7.02729e-24
7.91409e-23
1.1212e-23
7.11435e-24
-6.06676e-25
3.65768e-23
1.5975e-23
1.05979e-24
-1.19316e-23
1.99293e-22
-1.12032e-23
2.75526e-22
-7.07686e-24
2.40008e-22
-8.58261e-24
3.28243e-22
9.85072e-25
3.11526e-22
1.68062e-23
1.8229e-22
2.06624e-24
2.91621e-22
9.35207e-24
1.4888e-22
1.18471e-23
1.87872e-22
-3.29515e-25
7.96372e-23
7.72889e-25
1.84016e-22
2.55131e-23
1.53319e-22
2.16408e-23
1.47935e-22
1.99121e-23
6.21661e-23
4.87387e-24
1.29139e-22
1.29407e-23
-4.7362e-23
1.41881e-25
-7.8474e-23
-2.61534e-23
-6.85809e-25
-1.56081e-23
1.87544e-22
-8.41939e-24
2.46164e-22
-1.02654e-23
2.44383e-22
-4.70524e-24
2.01742e-22
-9.82658e-24
2.11354e-22
-2.51169e-24
2.97516e-22
1.84627e-23
2.02046e-22
8.2461e-25
2.73412e-22
7.61308e-24
1.43805e-22
8.76346e-24
1.89488e-22
2.30351e-24
1.32549e-22
2.05514e-24
1.83192e-22
2.41419e-23
1.34208e-22
1.81546e-23
1.56735e-22
1.85255e-23
5.33026e-23
3.212e-24
1.41848e-22
8.25237e-24
-2.23599e-23
2.50309e-24
-3.99338e-23
-2.55174e-23
-1.20143e-24
-1.32857e-23
1.85334e-22
-7.53661e-24
2.42638e-22
-1.10793e-23
2.16108e-22
-5.37702e-24
1.41445e-22
-7.19096e-24
2.19496e-22
-5.09152e-24
2.48256e-22
1.64025e-23
1.81434e-22
4.82361e-25
2.13769e-22
6.60994e-24
1.34239e-22
1.02797e-23
1.94891e-22
1.05661e-24
1.41883e-22
1.63484e-24
2.08513e-22
1.92487e-23
1.25528e-22
1.79986e-23
1.53668e-22
1.71279e-23
5.04467e-23
4.31886e-25
1.19339e-22
4.8453e-24
-3.00104e-23
5.6858e-24
-1.28791e-23
-2.50645e-23
2.7791e-24
-1.63623e-23
2.38181e-22
-1.16814e-23
1.86753e-22
-8.20225e-24
2.07522e-22
-1.26705e-23
1.47829e-22
-2.76231e-24
1.43602e-22
-4.92338e-24
2.2236e-22
-3.83137e-24
2.44799e-22
1.42794e-23
1.74739e-22
1.88466e-24
2.50229e-22
5.78746e-24
1.3919e-22
1.153e-23
2.41661e-22
2.81533e-24
1.51791e-22
1.36713e-24
1.74592e-22
2.14261e-23
1.51678e-22
1.70465e-23
1.58045e-22
1.70508e-23
9.10819e-23
-1.19064e-24
1.38905e-22
3.4561e-24
-3.22547e-23
4.24005e-24
-1.64424e-23
5.22513e-23
6.42897e-24
-1.79925e-23
2.35502e-22
-1.06522e-23
2.24461e-22
-1.02872e-23
2.05691e-22
-1.24548e-23
1.27882e-22
-1.6652e-24
1.46174e-22
-4.63505e-24
1.86261e-22
-3.08144e-24
2.40107e-22
1.4173e-23
1.73022e-22
2.97938e-24
2.7234e-22
4.26116e-24
1.46054e-22
9.74497e-24
2.49062e-22
2.20299e-24
1.60772e-22
1.34321e-24
1.74446e-22
2.19422e-23
1.33624e-22
1.54113e-23
1.59014e-22
1.52844e-23
9.64173e-23
-5.70567e-24
1.68431e-22
2.89839e-24
2.78155e-24
3.2911e-24
2.64717e-24
1.75582e-24
5.80544e-24
-1.86626e-23
2.13214e-22
-1.17754e-23
2.65069e-22
-1.12749e-23
1.55367e-22
-1.19958e-23
1.38799e-22
-1.19553e-24
1.44756e-22
-3.22805e-24
1.44696e-22
-4.21479e-24
2.40542e-22
1.48475e-23
1.68494e-22
2.86258e-24
2.55435e-22
6.03674e-24
1.89977e-22
1.00902e-23
2.52422e-22
-4.75277e-25
2.04476e-22
7.06253e-25
2.16233e-22
1.96979e-23
1.93337e-22
1.32638e-23
1.53205e-22
1.68419e-23
5.05528e-23
-6.04585e-24
7.10966e-23
5.03536e-25
1.29909e-23
1.33547e-24
-2.93067e-23
-7.77389e-24
5.37956e-24
-1.66923e-23
2.50198e-22
-1.52573e-23
2.74598e-22
-1.25656e-23
1.92073e-22
-1.29115e-23
1.78944e-22
-4.14439e-25
1.33558e-22
-1.44817e-24
1.28312e-22
-3.97809e-24
2.51967e-22
1.6345e-23
2.47822e-22
2.31602e-24
2.80691e-22
6.51835e-24
1.76442e-22
8.61412e-24
2.42849e-22
2.13746e-25
2.04891e-22
5.94064e-25
2.14906e-22
1.95763e-23
1.75226e-22
1.26646e-23
1.13406e-22
1.85203e-23
5.52043e-23
-6.20048e-24
1.71568e-23
-2.82077e-24
-6.8738e-23
6.7226e-24
2.06341e-23
-1.4634e-23
5.43927e-24
-1.65069e-23
2.37328e-22
-1.75645e-23
2.87923e-22
-1.12793e-23
1.77569e-22
-1.38321e-23
1.36642e-22
-8.25914e-25
1.63978e-22
3.2822e-24
2.00793e-22
-3.87006e-24
2.67084e-22
1.59136e-23
2.68587e-22
2.84538e-25
1.72434e-22
7.14124e-24
2.22105e-22
9.44561e-24
2.00053e-22
-2.4306e-25
2.44181e-22
-1.20707e-24
2.11103e-22
1.5863e-23
1.53215e-22
1.17986e-23
7.05537e-23
1.48167e-23
4.37135e-23
-6.37461e-24
-3.25377e-23
-8.58546e-25
-8.03146e-23
2.71949e-24
3.11171e-23
-2.52835e-23
7.22711e-24
-1.63803e-23
2.21692e-22
-2.08134e-23
2.5426e-22
-1.35449e-23
2.41691e-22
-1.31162e-23
1.34713e-22
1.63554e-24
1.95744e-22
4.52406e-24
2.27447e-22
-2.64053e-24
1.9924e-22
1.22964e-23
2.62669e-22
1.26725e-24
1.85345e-22
5.69596e-24
2.27899e-22
1.16949e-23
2.68831e-22
-4.68417e-25
2.30886e-22
-5.94585e-24
2.18091e-22
1.5317e-23
2.18168e-22
1.41739e-23
1.43039e-22
7.76878e-24
-1.84435e-23
-7.9564e-24
8.17336e-23
3.94932e-24
1.08453e-23
4.84373e-24
4.00637e-23
-7.47891e-23
5.51203e-24
-1.7152e-23
1.74351e-22
-1.90334e-23
2.5896e-22
-1.49577e-23
2.34703e-22
-1.18485e-23
1.02976e-22
2.31934e-24
1.95239e-22
5.42062e-24
2.15416e-22
-6.65243e-25
1.61395e-22
1.06455e-23
2.18861e-22
3.41165e-24
1.40408e-22
7.24344e-24
2.33786e-22
1.08509e-23
2.50134e-22
-1.60109e-24
1.32555e-22
-4.42792e-24
1.89373e-22
1.12425e-23
2.21223e-22
1.07222e-23
9.69691e-23
9.36608e-24
2.58787e-23
-1.04056e-23
1.51715e-23
2.87993e-24
4.96788e-23
6.71976e-25
1.22041e-23
4.11834e-23
1.25266e-23
-1.71749e-23
1.69311e-22
-1.86847e-23
2.10514e-22
-1.85403e-23
1.5063e-22
-1.15294e-23
1.13114e-22
6.09505e-24
2.89287e-22
4.54532e-24
2.05098e-22
-1.36353e-24
1.63821e-22
1.19221e-23
2.50232e-22
4.1617e-24
1.31937e-22
9.10111e-24
3.16342e-22
7.73112e-24
1.91281e-22
-1.05494e-24
1.7308e-22
-2.52334e-24
2.2657e-22
6.47145e-24
2.11315e-22
9.22051e-24
1.63665e-22
7.55121e-24
5.27401e-23
-7.49071e-24
4.09131e-23
1.03936e-25
5.64303e-23
2.15792e-24
9.34233e-23
2.16229e-23
9.35317e-24
-1.75487e-23
1.15993e-22
-1.88048e-23
2.39949e-22
-1.76072e-23
1.81776e-22
-8.91477e-24
1.17321e-22
4.06591e-24
2.90619e-22
4.607e-24
1.82492e-22
-3.34446e-25
1.62613e-22
1.01784e-23
2.8585e-22
7.58456e-24
2.01536e-22
7.87232e-24
3.08896e-22
7.15444e-24
1.85845e-22
-9.52609e-25
1.77547e-22
-3.20935e-24
2.19649e-22
9.16883e-24
1.92575e-22
5.17119e-24
1.43114e-22
6.11803e-24
4.50949e-23
-5.67313e-24
5.75887e-23
1.79504e-24
5.25612e-23
7.74849e-25
1.42553e-23
8.75063e-23
8.93925e-24
-1.60102e-23
1.18289e-22
-2.05448e-23
1.96983e-22
-1.84206e-23
1.79248e-22
-6.7073e-24
1.01061e-22
3.86578e-24
2.88578e-22
4.086e-24
2.58018e-22
8.60985e-25
1.71132e-22
1.1656e-23
2.76918e-22
7.67568e-24
1.88898e-22
5.89076e-24
3.03686e-22
7.83503e-24
1.80412e-22
7.43566e-25
1.82222e-22
-4.52337e-24
1.856e-22
8.04899e-24
2.13527e-22
2.85221e-24
1.39027e-22
5.66053e-24
3.50152e-23
-6.82753e-24
6.76279e-23
3.13832e-24
8.34236e-23
1.3612e-24
5.2651e-24
3.92449e-23
5.44638e-24
-1.57321e-23
9.72799e-23
-2.096e-23
1.58494e-22
-1.89085e-23
2.22588e-22
-4.55674e-24
1.10545e-22
5.30219e-24
3.25785e-22
1.64727e-24
1.69821e-22
2.69371e-24
1.54361e-22
1.1858e-23
3.11561e-22
7.2718e-24
1.41852e-22
4.97186e-24
2.57138e-22
7.01022e-24
2.00629e-22
-3.05348e-25
2.19479e-22
-3.83764e-24
1.79745e-22
5.40239e-24
2.02501e-22
7.71768e-25
1.45262e-22
4.82664e-24
6.83315e-23
-6.59489e-24
7.97646e-23
-1.15081e-25
3.66745e-23
2.39423e-24
3.32096e-23
1.89952e-23
7.98195e-24
-1.41709e-23
1.03893e-22
-1.90419e-23
1.63803e-22
-1.94467e-23
2.30992e-22
-2.6172e-24
2.03169e-22
4.90628e-24
3.20449e-22
2.0945e-24
1.65076e-22
1.95693e-24
1.62496e-22
1.14286e-23
2.66719e-22
7.12839e-24
1.33698e-22
6.08459e-24
2.43392e-22
7.27136e-24
1.98428e-22
1.04967e-24
1.73615e-22
-2.87622e-24
1.36322e-22
4.95428e-24
1.8982e-22
-1.22818e-24
1.83e-22
2.73698e-24
6.09973e-23
-6.80737e-24
8.37228e-23
-1.33061e-24
6.73602e-23
2.39243e-24
1.66529e-23
-1.33479e-24
8.92283e-24
-1.26809e-23
1.12989e-22
-1.78213e-23
1.69725e-22
-1.86461e-23
2.40983e-22
-1.60798e-24
2.0429e-22
3.61708e-24
3.1618e-22
2.48329e-24
1.58233e-22
2.00099e-24
1.31799e-22
1.10547e-23
2.292e-22
7.5271e-24
1.25886e-22
4.53599e-24
2.45303e-22
6.86593e-24
3.20746e-22
-1.08516e-25
1.64102e-22
-2.08257e-24
1.23296e-22
5.07242e-24
2.23128e-22
-3.77783e-24
1.63232e-22
2.72843e-24
5.15951e-23
-5.06446e-24
8.80777e-23
-3.91942e-24
1.04156e-22
3.97293e-24
8.51708e-23
-9.5097e-24
6.17587e-24
-1.15485e-23
1.14848e-22
-1.60128e-23
1.42769e-22
-1.81718e-23
1.6784e-22
-9.68452e-26
2.27328e-22
2.23357e-24
3.16662e-22
2.39771e-24
2.02668e-22
2.58368e-24
1.87304e-22
1.22761e-23
2.9574e-22
8.24135e-24
1.19443e-22
6.50765e-24
2.31978e-22
4.51573e-24
3.11709e-22
-4.38206e-25
1.49984e-22
-1.03867e-24
7.98844e-23
6.69593e-24
1.8159e-22
-5.40959e-24
5.20128e-23
2.64973e-24
4.19903e-23
-5.62724e-24
9.06076e-23
-3.50738e-24
1.07601e-22
1.40521e-24
7.5759e-23
2.10344e-23
6.18042e-24
-1.00333e-23
1.51224e-22
-1.68082e-23
1.14306e-22
-1.62194e-23
1.74002e-22
-1.33009e-24
2.22296e-22
2.91466e-24
2.65343e-22
7.15053e-25
2.13869e-22
3.93366e-24
1.87671e-22
1.10412e-23
2.45494e-22
9.5657e-24
1.55088e-22
8.22029e-24
2.10972e-22
2.50285e-24
3.01638e-22
-1.52981e-24
1.33591e-22
9.49954e-26
1.56132e-22
4.2119e-24
1.73808e-22
-7.63701e-24
1.20249e-22
4.07252e-24
1.16849e-22
-4.12317e-24
8.99309e-23
-5.32816e-24
6.95958e-23
1.33774e-24
1.59728e-22
1.38396e-23
3.92202e-24
-1.00653e-23
1.48378e-22
-1.55457e-23
7.80922e-23
-1.49784e-23
1.46319e-22
1.62139e-25
2.17039e-22
3.37052e-24
2.53452e-22
7.35812e-26
1.8943e-22
5.25738e-24
1.92017e-22
1.06573e-23
1.859e-22
1.09809e-23
8.24539e-23
8.03152e-24
1.91467e-22
-7.68348e-25
2.15443e-22
5.58516e-25
3.81556e-23
-3.3372e-25
1.44496e-22
3.24424e-24
1.16206e-22
-8.52979e-24
5.14081e-23
3.76773e-24
1.13134e-22
-4.24026e-24
9.01313e-23
-4.63371e-24
7.25709e-23
-3.10295e-25
1.57936e-22
-5.64322e-23
3.53331e-25
-1.05415e-23
1.41229e-22
-1.4225e-23
8.15701e-23
-1.41238e-23
1.11914e-22
2.69644e-24
2.36642e-22
2.32634e-24
2.10529e-22
-1.5982e-24
1.55526e-22
4.76801e-24
1.93624e-22
1.01254e-23
1.69181e-22
1.30237e-23
8.81517e-23
9.6028e-24
1.37715e-22
-4.01812e-24
1.68693e-22
2.80581e-24
1.13297e-22
-1.08532e-24
1.01408e-22
1.16364e-24
1.49041e-22
-6.89093e-24
1.00267e-22
2.76519e-24
1.0628e-22
-3.55524e-24
8.95591e-23
-3.6649e-24
5.53309e-23
-2.34017e-24
1.58781e-22
-2.11279e-23
-5.34279e-25
-1.08235e-23
1.66745e-22
-1.35964e-23
1.36321e-22
-1.21904e-23
1.06536e-22
1.63486e-24
2.33983e-22
2.26085e-24
2.03668e-22
-4.77778e-25
1.69167e-22
4.21666e-24
1.87677e-22
9.24793e-24
1.19146e-22
1.39238e-23
9.36099e-23
9.09501e-24
1.31858e-22
-3.18396e-24
1.55081e-22
2.64278e-24
1.04647e-22
-9.92306e-26
1.08403e-22
-5.88749e-25
1.44364e-22
-7.97959e-24
3.30001e-23
3.57451e-24
1.82203e-22
-4.6766e-24
5.33622e-23
-3.1577e-24
-1.33666e-23
-3.16783e-24
1.99443e-22
-1.60471e-23
-2.77933e-24
-1.02148e-23
1.18107e-22
-1.487e-23
1.5128e-22
-9.58843e-24
1.34562e-22
6.52037e-25
1.93311e-22
3.66751e-24
1.88871e-22
-3.27161e-25
1.10246e-22
2.67297e-24
1.84294e-22
8.76639e-24
1.50182e-22
1.5333e-23
1.27919e-22
8.31693e-24
9.58817e-23
-3.62464e-24
6.44688e-23
3.70269e-24
9.03937e-23
-1.74194e-25
7.54609e-23
-1.03424e-24
6.8699e-23
-7.87694e-24
4.50597e-23
1.48476e-24
2.03986e-22
-4.43437e-24
5.3548e-23
-1.41127e-24
-1.38461e-23
-5.01299e-24
2.08605e-22
-2.07929e-23
-5.75081e-24
-8.37256e-24
1.49955e-22
-1.4286e-23
1.79948e-22
-9.45768e-24
1.29444e-22
4.72628e-25
1.85629e-22
2.88934e-24
2.55755e-22
4.21328e-26
1.29785e-22
3.7913e-24
1.80362e-22
7.19224e-24
9.98277e-23
1.49126e-23
1.50083e-22
9.34026e-24
6.54889e-23
-3.66736e-24
2.06878e-23
3.13862e-24
7.87328e-23
1.94821e-25
8.9425e-23
-3.04815e-25
7.13825e-23
-5.55493e-24
-2.76963e-23
-1.77143e-24
1.57127e-22
-5.98783e-24
2.18522e-23
1.66424e-24
1.04715e-22
-8.8476e-24
1.87509e-22
-2.92169e-23
-6.34161e-24
-7.16752e-24
1.46742e-22
-1.43062e-23
1.12071e-22
-9.13904e-24
1.25997e-22
2.66026e-24
1.39438e-22
9.69813e-25
2.01111e-22
9.01135e-25
1.4289e-22
2.03751e-24
1.79422e-22
8.25881e-24
1.69256e-22
1.40605e-23
1.75979e-22
9.41648e-24
6.50794e-23
-4.41301e-24
-1.47798e-23
4.91963e-24
1.00108e-22
-1.3564e-24
2.81175e-23
-9.86454e-26
7.01551e-23
-4.34778e-24
-6.39507e-23
-2.63221e-24
8.2814e-23
-4.28118e-24
1.15034e-23
4.54173e-25
9.45212e-23
-1.01394e-23
2.05252e-22
-2.02803e-24
-8.71558e-24
-7.66704e-24
1.46625e-22
-1.31319e-23
1.64329e-22
-9.51188e-24
1.18013e-22
4.13833e-24
1.61244e-22
1.00178e-24
1.93899e-22
1.29076e-24
1.91347e-22
1.22978e-24
1.76714e-22
7.36391e-24
1.57901e-22
1.41703e-23
1.6224e-22
7.00112e-24
7.00127e-23
-2.53388e-24
-3.25781e-23
4.36947e-24
5.48005e-23
-1.55844e-24
4.93224e-24
-1.47736e-24
2.96408e-23
-4.11915e-24
-9.78972e-23
-2.18099e-24
4.2473e-23
-3.3737e-24
-1.87289e-24
7.18738e-25
8.90773e-23
-1.11507e-23
1.3687e-22
5.26489e-24
-6.7844e-24
-1.40252e-23
-9.28406e-24
4.83374e-24
2.00361e-24
1.15521e-22
5.86615e-25
1.64325e-22
1.70944e-24
1.72397e-22
7.3234e-24
1.56732e-22
1.38222e-23
1.5684e-22
6.13006e-24
-1.7813e-23
-2.30148e-24
-6.44303e-23
5.15843e-24
9.63448e-23
-4.96397e-25
6.33247e-23
-2.88487e-24
6.7705e-23
-3.64498e-24
-1.2974e-22
-2.33252e-25
-4.93466e-23
-3.1122e-24
9.21573e-24
8.27198e-25
8.77316e-23
-1.20382e-23
2.08817e-23
5.58744e-24
1.89079e-24
1.55841e-24
8.55026e-25
7.22877e-24
1.18406e-23
7.68894e-23
6.42039e-24
-1.7751e-23
-2.20271e-24
-9.0554e-23
5.33522e-24
5.22394e-23
-2.06051e-24
8.0904e-23
-3.79005e-24
9.74652e-23
-3.59183e-24
-1.29105e-22
1.78861e-24
-6.04728e-23
-1.37496e-24
3.94935e-23
-5.88994e-25
7.83591e-23
-1.09795e-23
-3.20862e-26
-1.17551e-22
1.07371e-23
7.11749e-24
-1.14797e-24
7.14783e-24
-1.74443e-24
-6.92376e-24
-2.91564e-24
2.90935e-24
-2.6309e-24
-4.95783e-25
-1.17637e-23
1.67298e-23
-1.96557e-23
-2.6438e-23
2.94351e-23
2.18669e-23
1.17863e-23
-1.53455e-23
3.75973e-23
2.47906e-23
1.5535e-23
-2.00914e-23
4.81238e-23
2.82036e-23
1.28977e-23
-2.43486e-23
1.03408e-24
2.74239e-23
2.22415e-23
3.08439e-23
-8.79185e-24
-2.46674e-23
2.0733e-24
-3.98089e-23
-7.79436e-24
2.53866e-23
-1.29961e-23
-2.25255e-23
3.98576e-24
-2.22535e-23
2.2431e-23
5.81947e-23
6.21999e-23
2.04571e-23
-1.24853e-23
-1.93383e-23
1.18825e-23
-1.5048e-23
2.37119e-23
-1.75419e-24
1.60669e-23
2.01741e-23
-5.2506e-23
-1.74681e-23
1.33265e-23
-9.40922e-24
2.71211e-23
2.41054e-23
1.44003e-23
2.16948e-23
-4.38165e-23
-1.30651e-23
1.55142e-23
-2.30534e-23
2.12182e-23
1.37518e-23
1.50072e-23
-3.03695e-23
5.00139e-23
1.84912e-23
-5.47937e-23
-7.02808e-24
1.82002e-23
-2.3502e-23
2.21637e-23
7.99572e-24
2.23128e-23
9.83928e-23
6.37992e-23
1.61379e-23
-6.9419e-23
-8.57235e-25
2.09568e-23
-3.20672e-23
2.68151e-23
1.19848e-23
2.11371e-23
5.65337e-23
5.44061e-23
1.08986e-23
-3.96277e-23
1.97503e-24
3.00828e-23
8.05233e-23
2.93524e-23
2.35838e-23
1.88304e-23
6.5173e-23
-1.18653e-23
1.77016e-23
-1.82408e-23
2.7513e-24
3.02072e-23
1.52586e-22
3.24179e-23
6.65916e-23
1.38391e-23
-9.13291e-24
6.3265e-23
2.55562e-23
-1.59283e-23
3.29845e-24
2.65557e-23
1.12668e-22
2.65217e-23
7.78911e-23
1.7391e-23
4.15771e-23
3.55662e-23
2.79195e-23
7.36758e-23
-1.22684e-25
2.61014e-23
7.59073e-23
2.30294e-23
8.83787e-23
1.90127e-23
5.12801e-23
2.11601e-23
3.71988e-23
-4.97576e-25
3.08383e-23
-7.76293e-24
-6.55866e-24
2.5232e-23
6.29347e-24
2.22864e-23
1.87243e-23
1.77528e-23
2.81276e-23
2.04521e-23
6.19703e-23
8.18779e-23
3.31583e-23
7.46019e-23
-5.79472e-24
2.43635e-23
-2.19651e-23
2.49484e-23
7.3511e-23
1.79392e-23
3.921e-23
2.19855e-23
5.49452e-23
1.07426e-23
5.06197e-23
1.67896e-22
2.73096e-23
5.38647e-24
-1.29333e-23
2.89057e-23
1.63169e-23
2.12075e-23
6.04597e-24
2.1124e-23
8.5958e-24
2.14188e-23
1.03879e-22
1.35278e-23
-2.02476e-23
1.03524e-23
1.28428e-22
-3.11489e-24
3.23105e-23
6.12407e-23
-9.67458e-24
2.53031e-23
-1.12345e-23
2.28546e-23
2.5228e-23
2.43454e-23
-2.71814e-23
1.82984e-23
-1.90932e-23
1.89349e-23
3.27949e-23
3.69673e-24
1.04924e-22
1.50646e-23
-1.61367e-23
4.64997e-23
2.98917e-23
7.32875e-23
-9.75183e-24
2.52584e-23
-4.26605e-23
2.33811e-23
6.64944e-23
2.11599e-23
-3.08957e-23
2.04725e-23
2.10078e-23
1.84773e-23
3.03948e-24
2.0266e-24
7.36644e-23
1.58119e-23
1.01812e-22
2.79054e-23
1.1671e-22
1.30908e-22
2.8262e-23
6.0204e-23
-1.1292e-23
2.27961e-23
5.5908e-24
2.36856e-23
9.68096e-23
1.77637e-23
-3.66282e-23
2.45057e-23
9.45066e-23
1.73782e-23
4.76486e-23
6.32261e-24
1.17637e-22
1.50314e-23
9.07734e-23
3.02453e-23
1.40637e-22
1.27078e-22
2.93282e-23
8.46164e-23
-9.20045e-24
2.39884e-23
-7.54544e-23
2.05561e-23
5.37201e-24
2.22547e-23
-6.62359e-23
2.62746e-23
-5.56822e-24
1.64176e-23
-2.1943e-23
7.72243e-24
1.14699e-22
1.52547e-23
7.13307e-23
2.94792e-23
1.2099e-22
1.04629e-22
2.71832e-23
7.20476e-23
-1.10361e-23
2.16233e-23
-3.00128e-23
2.19159e-23
3.70847e-23
1.93983e-23
-7.62229e-23
2.45246e-23
-1.3656e-23
2.09268e-23
-4.9178e-23
7.35566e-24
7.01156e-23
1.58244e-23
1.39791e-22
2.79643e-23
1.00854e-22
7.26932e-23
2.84514e-23
7.6455e-23
-1.09153e-23
2.07577e-23
-4.97485e-23
2.01532e-23
6.01944e-23
2.11954e-23
-8.78354e-23
2.36346e-23
-1.3008e-23
2.51536e-23
-4.63205e-23
7.96421e-24
3.83147e-23
1.36409e-23
3.78194e-23
2.78449e-23
9.48227e-23
7.51566e-23
2.58332e-23
1.99701e-23
-1.23288e-23
1.67493e-23
-3.73995e-23
2.17397e-23
8.53242e-23
1.88941e-23
-8.95813e-23
2.45032e-23
-5.0695e-23
2.73817e-23
-8.42648e-24
1.35682e-23
4.75304e-23
1.33089e-23
3.39808e-23
2.79168e-23
8.02392e-23
7.09072e-23
2.44307e-23
4.37775e-24
-1.04309e-23
1.80342e-23
-2.76711e-23
1.61918e-23
7.60831e-23
1.70301e-23
-9.38343e-23
2.53475e-23
-2.28932e-23
2.67069e-23
-8.37258e-24
1.16763e-23
-3.11235e-23
1.52383e-23
2.55768e-23
2.51216e-23
6.71526e-23
5.98386e-23
2.01826e-23
5.6769e-24
-1.12665e-23
2.22749e-23
-4.91822e-23
1.13982e-23
-2.01592e-24
1.82059e-23
-1.10537e-22
2.8826e-23
-3.10182e-23
2.37535e-23
-4.81018e-23
1.36514e-23
-6.70456e-23
1.51556e-23
1.82969e-23
2.70357e-23
5.18656e-23
5.289e-23
2.03632e-23
-8.00021e-24
-8.47866e-24
2.14679e-23
-1.23146e-23
1.09221e-23
1.7136e-23
1.55281e-23
-3.45593e-23
3.08456e-23
4.09201e-23
2.41027e-23
-4.49314e-23
1.54341e-23
-7.86875e-23
1.62587e-23
-3.10406e-23
2.51429e-23
3.89851e-23
3.90829e-23
1.86055e-23
2.64126e-23
-4.84673e-24
1.59079e-23
-1.08419e-23
1.47351e-23
2.48603e-23
1.41413e-23
-3.14224e-23
2.77633e-23
1.1718e-22
2.10132e-23
-4.1408e-23
1.66837e-23
-7.94146e-23
1.6051e-23
-3.72935e-24
2.63797e-23
2.87481e-23
3.75145e-23
1.98797e-23
6.20645e-23
-5.63013e-24
1.79794e-23
-3.09486e-25
1.30426e-23
7.40125e-23
1.42354e-23
-2.58005e-23
2.73008e-23
1.24742e-22
2.09273e-23
-3.04753e-23
1.84814e-23
-4.61028e-23
1.56082e-23
-1.18767e-23
2.76447e-23
5.80513e-23
1.55139e-24
1.87685e-23
9.8637e-23
-4.942e-24
1.5159e-23
7.29475e-24
1.44218e-23
8.48303e-23
1.52041e-23
-3.45837e-23
2.35928e-23
1.68459e-22
1.8052e-23
-2.16405e-23
2.02419e-23
-1.63675e-23
1.6986e-23
-1.88222e-23
2.61556e-23
6.35232e-23
-3.18736e-23
1.55034e-23
-1.14516e-23
1.73617e-23
1.14953e-23
1.85296e-23
2.11382e-23
1.73317e-23
1.98834e-23
1.64674e-23
2.47943e-23
2.53394e-23
-1.22462e-23
-2.01448e-23