/*--------------------------------*- C++ -*----------------------------------*\
  =========                 |
  \\      /  F ield         | OpenFOAM: The Open Source CFD Toolbox
   \\    /   O peration     | Website:  https://openfoam.org
    \\  /    A nd           | Version:  7
     \\/     M anipulation  |
\*---------------------------------------------------------------------------*/
FoamFile
{
    version     2.0;
    format      ascii;
    class       volVectorField;
    location    "236000";
    object      vorticity;
}
// * * * * * * * * * * * * * * * * * * * * * * * * * * * * * * * * * * * * * //

dimensions      [0 0 -1 0 0 0 0];

internalField   nonuniform List<vector> 
4844
(
(0.00949906 -0.00308381 6.68838e-18)
(0.00944908 -0.00340839 -1.47066e-16)
(0.00939388 -0.0037329 -4.75055e-17)
(0.00972294 -0.00315212 2.14467e-17)
(0.00967113 -0.00348382 -1.15027e-16)
(0.00961391 -0.00381542 -4.09778e-17)
(0.00955123 -0.00414689 -2.58248e-17)
(0.00948301 -0.00447819 -2.38895e-17)
(0.00940918 -0.00480927 -2.19966e-17)
(0.00932968 -0.00514005 -2.12603e-17)
(0.00924443 -0.00547048 -1.48529e-17)
(0.00994896 -0.00322111 1.91928e-17)
(0.00989532 -0.00355999 -7.93213e-17)
(0.00983608 -0.00389875 -3.85486e-17)
(0.00977119 -0.00423737 -2.69827e-17)
(0.00970057 -0.00457578 -2.44097e-17)
(0.00962416 -0.00491393 -2.35679e-17)
(0.00954189 -0.00525176 -2.23507e-17)
(0.00945366 -0.00558919 -1.576e-17)
(0.00935941 -0.00592614 -1.22677e-17)
(0.00925905 -0.00626251 -1.28772e-17)
(0.00915249 -0.0065982 -1.50757e-17)
(0.0101772 -0.00329079 1.3086e-17)
(0.0101218 -0.00363694 -4.75385e-17)
(0.0100605 -0.00398295 -3.1948e-17)
(0.0099934 -0.00432878 -2.54396e-17)
(0.00992039 -0.00467438 -2.32272e-17)
(0.00984139 -0.0050197 -2.34848e-17)
(0.00975633 -0.00536465 -2.18786e-17)
(0.00966512 -0.00570918 -1.59319e-17)
(0.0095677 -0.00605318 -1.44232e-17)
(0.00946396 -0.00639656 -1.35939e-17)
(0.00935383 -0.00673921 -1.45895e-17)
(0.00923722 -0.007081 -1.25295e-17)
(0.00911404 -0.0074218 -1.34846e-17)
(0.00898421 -0.00776145 -1.47082e-17)
(0.00884641 -0.00810113 -9.80607e-18)
(0.00951394 -0.00762676 -6.71065e-18)
(0.0104079 -0.00336122 8.7847e-18)
(0.0103506 -0.00371471 -2.83018e-17)
(0.0102873 -0.00406805 -2.49063e-17)
(0.010218 -0.00442118 -2.17695e-17)
(0.0101426 -0.00477406 -2.10785e-17)
(0.010061 -0.00512662 -2.29764e-17)
(0.0099731 -0.0054788 -2.07784e-17)
(0.00987891 -0.00583051 -1.53235e-17)
(0.0097783 -0.00618165 -1.52502e-17)
(0.00967118 -0.00653213 -1.39255e-17)
(0.00955746 -0.00688184 -1.36819e-17)
(0.00943706 -0.00723063 -1.25939e-17)
(0.00930987 -0.00757838 -1.43921e-17)
(0.00917583 -0.00792492 -1.50429e-17)
(0.00903365 -0.00827137 -1.08736e-17)
(0.00969028 -0.00781 -8.13118e-18)
(0.010641 -0.00343241 6.74516e-18)
(0.0105819 -0.00379334 -1.75259e-17)
(0.0105166 -0.00415409 -1.87565e-17)
(0.010445 -0.00451461 -1.82012e-17)
(0.0103672 -0.00487486 -1.89715e-17)
(0.010283 -0.00523476 -2.20961e-17)
(0.0101923 -0.00559425 -1.9741e-17)
(0.0100951 -0.00595323 -1.55208e-17)
(0.00999133 -0.00631162 -1.49014e-17)
(0.00988081 -0.0066693 -1.30527e-17)
(0.00976349 -0.00702615 -1.27277e-17)
(0.00963927 -0.00738205 -1.20314e-17)
(0.00950806 -0.00773685 -1.43023e-17)
(0.00936978 -0.00809038 -1.42937e-17)
(0.00922319 -0.00844371 -1.01894e-17)
(0.00986905 -0.00799529 -8.79191e-18)
(0.0108158 -0.00387286 -1.10463e-17)
(0.0107484 -0.00424112 -1.35009e-17)
(0.0106746 -0.00460913 -1.53161e-17)
(0.0105944 -0.00497683 -1.72467e-17)
(0.0105076 -0.00534417 -2.08069e-17)
(0.0104141 -0.00571106 -1.83221e-17)
(0.0103139 -0.00607742 -1.54397e-17)
(0.0102069 -0.00644314 -1.44607e-17)
(0.0100929 -0.00680812 -1.25184e-17)
(0.009972 -0.00717223 -1.24314e-17)
(0.00984395 -0.00753533 -1.13218e-17)
(0.0097087 -0.00789728 -1.34042e-17)
(0.00956616 -0.00825791 -1.33752e-17)
(0.00941512 -0.00861823 -9.78605e-18)
(0.0100503 -0.00818274 -9.52597e-18)
(0.0110523 -0.00395332 -6.45532e-18)
(0.010983 -0.00432918 -9.76803e-18)
(0.010907 -0.00470477 -1.32159e-17)
(0.0108243 -0.00508003 -1.64171e-17)
(0.0107348 -0.0054549 -1.96261e-17)
(0.0106385 -0.0058293 -1.68195e-17)
(0.0105353 -0.00620313 -1.46095e-17)
(0.0104251 -0.00657629 -1.39438e-17)
(0.0103077 -0.00694867 -1.1718e-17)
(0.0101831 -0.00732014 -1.1559e-17)
(0.0100512 -0.00769056 -1.07763e-17)
(0.00991189 -0.00805977 -1.27216e-17)
(0.00976506 -0.0084276 -1.16512e-17)
(0.00960955 -0.00879502 -9.60564e-18)
(0.0102342 -0.00837242 -1.23547e-17)
(0.0112918 -0.00403476 -2.98679e-18)
(0.0112203 -0.00441831 -7.1904e-18)
(0.0111421 -0.00480158 -1.19555e-17)
(0.011057 -0.0051845 -1.5601e-17)
(0.0109649 -0.00556701 -1.84562e-17)
(0.0108658 -0.00594901 -1.6311e-17)
(0.0107595 -0.00633042 -1.37374e-17)
(0.010646 -0.00671113 -1.34512e-17)
(0.0105252 -0.00709102 -1.12426e-17)
(0.0103969 -0.00746996 -1.0587e-17)
(0.0102612 -0.0078478 -9.42898e-18)
(0.0101177 -0.00822439 -1.20588e-17)
(0.00996658 -0.00859954 -1.03793e-17)
(0.00980656 -0.00897417 -9.73983e-18)
(0.0104208 -0.00856444 -1.51919e-17)
(0.0116007 -0.00372563 6.40299e-18)
(0.0115341 -0.00411722 -4.97841e-19)
(0.0114606 -0.00450857 -5.66343e-18)
(0.0113801 -0.00489962 -1.13063e-17)
(0.0112926 -0.0052903 -1.45654e-17)
(0.0111978 -0.00568055 -1.7347e-17)
(0.0110959 -0.00607027 -1.61858e-17)
(0.0109865 -0.00645937 -1.2722e-17)
(0.0108698 -0.00684773 -1.23465e-17)
(0.0107455 -0.00723524 -1.12748e-17)
(0.0106136 -0.00762176 -9.60673e-18)
(0.0104739 -0.00800714 -7.99098e-18)
(0.0103263 -0.00839121 -1.08516e-17)
(0.0101708 -0.0087738 -9.47258e-18)
(0.0100063 -0.00915576 -9.81739e-18)
(0.0106101 -0.00875889 -1.57105e-17)
(0.0118481 -0.00380123 6.73791e-18)
(0.0117796 -0.00420074 8.05305e-19)
(0.011704 -0.00459999 -4.69226e-18)
(0.0116213 -0.00499893 -1.0571e-17)
(0.0115312 -0.00539749 -1.3444e-17)
(0.0114338 -0.00579558 -1.61795e-17)
(0.011329 -0.00619313 -1.54354e-17)
(0.0112166 -0.00659003 -1.21461e-17)
(0.0110965 -0.00698616 -1.14402e-17)
(0.0109688 -0.00738141 -1.1332e-17)
(0.0108331 -0.00777563 -8.84398e-18)
(0.0106895 -0.00816866 -7.41698e-18)
(0.0105378 -0.00856034 -9.7003e-18)
(0.0103779 -0.00895047 -7.89886e-18)
(0.0102088 -0.0093399 -9.6184e-18)
(0.0108023 -0.00895587 -1.41299e-17)
(0.0120986 -0.00387782 7.38915e-18)
(0.0120282 -0.00428536 1.07592e-18)
(0.0119506 -0.00469263 -4.64201e-18)
(0.0118655 -0.00509957 -9.84076e-18)
(0.011773 -0.00550611 -1.2173e-17)
(0.0116729 -0.00591217 -1.536e-17)
(0.0115652 -0.00631766 -1.42782e-17)
(0.0114497 -0.00672247 -1.11738e-17)
(0.0113264 -0.00712649 -1.04928e-17)
(0.0111951 -0.0075296 -1.11741e-17)
(0.0110557 -0.00793163 -8.56622e-18)
(0.0109081 -0.00833244 -6.61815e-18)
(0.0107522 -0.00873185 -8.93934e-18)
(0.0105879 -0.00912966 -6.67254e-18)
(0.0104141 -0.00952667 -9.13259e-18)
(0.0109975 -0.00915549 -1.20298e-17)
(0.0123525 -0.00395546 7.79299e-18)
(0.0122802 -0.00437113 1.38979e-18)
(0.0122005 -0.00478653 -4.58852e-18)
(0.0121131 -0.00520158 -9.31957e-18)
(0.0120181 -0.00561622 -1.07687e-17)
(0.0119153 -0.00603036 -1.4426e-17)
(0.0118047 -0.00644391 -1.38217e-17)
(0.0116861 -0.00685677 -1.07222e-17)
(0.0115594 -0.0072688 -1.00269e-17)
(0.0114246 -0.00767988 -1.05906e-17)
(0.0112814 -0.00808986 -8.28311e-18)
(0.0111298 -0.00849857 -5.67004e-18)
(0.0109697 -0.00890583 -8.24166e-18)
(0.0108009 -0.00931145 -5.95039e-18)
(0.0106225 -0.00971617 -8.12411e-18)
(0.0111958 -0.00935784 -1.00157e-17)
(0.0126763 -0.00360999 1.52267e-17)
(0.0126098 -0.00403416 7.91023e-18)
(0.0125357 -0.0044581 8.76484e-19)
(0.0124538 -0.00488174 -4.45831e-18)
(0.0123641 -0.00530503 -8.44922e-18)
(0.0122666 -0.00572789 -9.38507e-18)
(0.0121611 -0.00615023 -1.30564e-17)
(0.0120475 -0.00657197 -1.32706e-17)
(0.0119258 -0.00699298 -1.02841e-17)
(0.0117958 -0.00741315 -9.97922e-18)
(0.0116573 -0.00783234 -1.04394e-17)
(0.0115104 -0.00825039 -8.28582e-18)
(0.0113548 -0.00866713 -5.54576e-18)
(0.0111904 -0.00908238 -7.60945e-18)
(0.0110171 -0.00949593 -6.04563e-18)
(0.010834 -0.0099085 -7.19217e-18)
(0.0113972 -0.00956304 -7.62297e-18)
(0.012939 -0.00368143 1.5069e-17)
(0.0128708 -0.00411399 7.79909e-18)
(0.0127947 -0.0045463 1.47994e-20)
(0.0127107 -0.00497831 -4.30175e-18)
(0.0126187 -0.00540996 -7.11576e-18)
(0.0125187 -0.00584117 -8.70066e-18)
(0.0124104 -0.00627184 -1.18243e-17)
(0.0122939 -0.00670189 -1.27072e-17)
(0.012169 -0.0071312 -9.72574e-18)
(0.0120356 -0.00755963 -8.88912e-18)
(0.0118935 -0.00798705 -1.05568e-17)
(0.0117428 -0.0084133 -8.43547e-18)
(0.0115831 -0.00883821 -5.49643e-18)
(0.0114144 -0.00926158 -7.00378e-18)
(0.0112366 -0.00968321 -6.17242e-18)
(0.0110487 -0.0101038 -6.65022e-18)
(0.0116019 -0.00977118 -5.28751e-18)
(0.0132675 -0.00331264 1.37493e-17)
(0.0132055 -0.00375391 1.37595e-17)
(0.0131355 -0.00419497 7.05224e-18)
(0.0130574 -0.00463579 -8.48984e-19)
(0.0129713 -0.0050763 -3.99491e-18)
(0.012877 -0.00551643 -5.32272e-18)
(0.0127744 -0.00595612 -8.46408e-18)
(0.0126634 -0.00639525 -1.07914e-17)
(0.0125439 -0.00683375 -1.22912e-17)
(0.0124158 -0.00727148 -9.88007e-18)
(0.012279 -0.00770831 -7.38348e-18)
(0.0121333 -0.00814411 -1.03684e-17)
(0.0119786 -0.0085787 -9.25245e-18)
(0.0118149 -0.00901191 -5.93917e-18)
(0.0116419 -0.00944354 -6.77516e-18)
(0.0114595 -0.00987338 -5.59548e-18)
(0.0112667 -0.0103021 -6.16773e-18)
(0.0118101 -0.00998239 -3.68991e-18)
(0.0135394 -0.00337754 1.34138e-17)
(0.0134758 -0.00382746 1.20149e-17)
(0.0134041 -0.00427716 6.24469e-18)
(0.0133241 -0.00472662 -9.06535e-19)
(0.0132358 -0.00517575 -3.84861e-18)
(0.0131391 -0.00562451 -4.00782e-18)
(0.0130339 -0.0060728 -7.87878e-18)
(0.0129201 -0.00652054 -9.61079e-18)
(0.0127977 -0.00696761 -1.14648e-17)
(0.0126663 -0.0074139 -1.03335e-17)
(0.0125261 -0.00785928 -6.16818e-18)
(0.0123767 -0.00830359 -9.32813e-18)
(0.0122182 -0.00874666 -9.6366e-18)
(0.0120502 -0.00918831 -6.69495e-18)
(0.0118728 -0.00962835 -7.5759e-18)
(0.0116858 -0.0100665 -4.97592e-18)
(0.0114882 -0.0105035 -5.18038e-18)
(0.0120217 -0.0101968 -3.12361e-18)
(0.0138153 -0.00344343 1.23036e-17)
(0.0137502 -0.00390212 1.03912e-17)
(0.0136767 -0.0043606 5.29439e-18)
(0.0135947 -0.00481882 -5.23038e-19)
(0.0135043 -0.00527673 -3.55111e-18)
(0.0134052 -0.00573424 -3.43032e-18)
(0.0132974 -0.00619128 -7.46344e-18)
(0.0131808 -0.00664775 -9.43731e-18)
(0.0130553 -0.00710355 -1.05484e-17)
(0.0129207 -0.00755855 -9.60485e-18)
(0.012777 -0.00801261 -4.92627e-18)
(0.0126239 -0.00846557 -8.76937e-18)
(0.0124614 -0.00891728 -9.4006e-18)
(0.0122893 -0.00936753 -6.51094e-18)
(0.0121075 -0.00981611 -7.89887e-18)
(0.0119158 -0.0102628 -5.07116e-18)
(0.0117133 -0.0107082 -4.6432e-18)
(0.0122369 -0.0104145 -3.00028e-18)
(0.0140955 -0.00351033 1.05391e-17)
(0.0140288 -0.00397794 8.44406e-18)
(0.0139535 -0.00444534 4.26205e-18)
(0.0138696 -0.00491247 5.2597e-19)
(0.0137769 -0.00537928 -2.98e-18)
(0.0136754 -0.00584569 -3.44509e-18)
(0.013565 -0.00631162 -7.19763e-18)
(0.0134456 -0.00677698 -9.49279e-18)
(0.013317 -0.00724165 -9.84802e-18)
(0.0131792 -0.0077055 -8.50731e-18)
(0.0130319 -0.00816839 -4.22461e-18)
(0.0128751 -0.00863016 -8.88499e-18)
(0.0127086 -0.00909065 -9.56668e-18)
(0.0125323 -0.00954964 -5.7466e-18)
(0.012346 -0.0100069 -7.45896e-18)
(0.0121495 -0.0104623 -5.66209e-18)
(0.011942 -0.0109163 -4.36727e-18)
(0.0124559 -0.0106356 -2.69784e-18)
(0.01438 -0.00357829 8.75424e-18)
(0.0143117 -0.00405496 7.07548e-18)
(0.0142346 -0.00453141 3.56777e-18)
(0.0141487 -0.0050076 9.56263e-19)
(0.0140538 -0.00548346 -2.47483e-18)
(0.0139499 -0.00595893 -3.27475e-18)
(0.0138369 -0.0064339 -6.45752e-18)
(0.0137146 -0.00690829 -8.91817e-18)
(0.0135829 -0.00738197 -9.50129e-18)
(0.0134418 -0.00785483 -7.83627e-18)
(0.0132909 -0.00832671 -4.04485e-18)
(0.0131304 -0.00879745 -9.32333e-18)
(0.0129598 -0.00926687 -9.78642e-18)
(0.0127792 -0.00973476 -5.15618e-18)
(0.0125884 -0.0102009 -6.87867e-18)
(0.0123871 -0.0106651 -5.98932e-18)
(0.0121746 -0.0111278 -4.22648e-18)
(0.0126788 -0.0108602 -1.99799e-18)
(0.0146691 -0.00364734 6.92913e-18)
(0.0145992 -0.00413322 5.67911e-18)
(0.0145203 -0.00461888 3.66404e-18)
(0.0144323 -0.00510428 2.06574e-18)
(0.0143352 -0.00558934 -2.19341e-18)
(0.0142289 -0.006074 -3.72384e-18)
(0.0141131 -0.00655817 -6.03392e-18)
(0.0139879 -0.00704175 -8.18092e-18)
(0.0138532 -0.00752461 -8.77475e-18)
(0.0137086 -0.00800663 -7.33966e-18)
(0.0135542 -0.00848765 -3.80148e-18)
(0.0133898 -0.00896752 -9.54294e-18)
(0.0132152 -0.00944603 -9.85362e-18)
(0.0130303 -0.00992299 -5.06215e-18)
(0.0128349 -0.0103982 -6.38985e-18)
(0.0126288 -0.0108713 -5.6569e-18)
(0.0124111 -0.0113429 -3.98781e-18)
(0.0129057 -0.0110885 -1.41483e-18)
(0.0149628 -0.00371752 4.82565e-18)
(0.0148913 -0.00421276 4.39489e-18)
(0.0148106 -0.00470779 3.82356e-18)
(0.0147206 -0.00520255 3.15908e-18)
(0.0146212 -0.00569698 -1.88706e-18)
(0.0145124 -0.006191 -3.86881e-18)
(0.014394 -0.00668452 -5.27995e-18)
(0.0142658 -0.00717744 -7.39718e-18)
(0.0141279 -0.00766964 -8.12038e-18)
(0.01398 -0.00816099 -6.94364e-18)
(0.013822 -0.00865132 -3.30787e-18)
(0.0136537 -0.00914048 -9.49147e-18)
(0.013475 -0.00962825 -1.01347e-17)
(0.0132857 -0.0101144 -5.18045e-18)
(0.0130856 -0.0105988 -6.78626e-18)
(0.0128746 -0.0110811 -5.38651e-18)
(0.0126517 -0.0115618 -2.76716e-18)
(0.0131366 -0.0113206 -5.07237e-19)
(0.0152615 -0.00378888 3.03475e-18)
(0.0151883 -0.00429364 3.31082e-18)
(0.0151057 -0.00479819 3.60964e-18)
(0.0150136 -0.00530247 3.36766e-18)
(0.014912 -0.00580642 -1.6389e-18)
(0.0148006 -0.00630996 -4.01246e-18)
(0.0146795 -0.00681301 -4.67674e-18)
(0.0145484 -0.00731544 -6.31453e-18)
(0.0144073 -0.00781715 -7.58393e-18)
(0.014256 -0.00831799 -6.49012e-18)
(0.0140943 -0.0088178 -2.53e-18)
(0.0139221 -0.00931642 -8.62721e-18)
(0.0137392 -0.00981363 -1.06042e-17)
(0.0135454 -0.0103092 -5.6772e-18)
(0.0133407 -0.010803 -7.08046e-18)
(0.0131247 -0.0112946 -5.28781e-18)
(0.0128966 -0.0117846 -1.07523e-18)
(0.0133719 -0.0115566 4.12083e-19)
(0.0155651 -0.00386145 1.46909e-18)
(0.0154903 -0.0043759 2.10727e-18)
(0.0154058 -0.00489014 3.61501e-18)
(0.0153117 -0.00540411 3.03427e-18)
(0.0152077 -0.00591775 -1.71306e-18)
(0.0150938 -0.00643098 -3.7138e-18)
(0.0149699 -0.00694371 -4.4219e-18)
(0.0148359 -0.00745583 -5.52357e-18)
(0.0146915 -0.00796722 -7.49015e-18)
(0.0145367 -0.00847773 -6.28802e-18)
(0.0143713 -0.0089872 -1.15962e-18)
(0.0141951 -0.00949545 -7.51128e-18)
(0.014008 -0.0100023 -1.14102e-17)
(0.0138098 -0.0105075 -6.3129e-18)
(0.0136003 -0.0110108 -7.02539e-18)
(0.0133792 -0.0115119 -5.95265e-18)
(0.0131458 -0.0120113 8.134e-19)
(0.0136115 -0.0117967 2.10747e-18)
(0.015874 -0.00393529 2.07676e-19)
(0.0157975 -0.00445959 1.08614e-18)
(0.0157111 -0.00498368 3.76324e-18)
(0.0156149 -0.00550752 2.21894e-18)
(0.0155086 -0.00603103 -2.0505e-18)
(0.0153921 -0.00655412 -2.80919e-18)
(0.0152654 -0.00707672 -4.47117e-18)
(0.0151283 -0.0075987 -5.43165e-18)
(0.0149807 -0.00811995 -6.94047e-18)
(0.0148224 -0.0086403 -6.01617e-18)
(0.0146532 -0.00915961 7.77916e-20)
(0.014473 -0.00967768 -5.77704e-18)
(0.0142817 -0.0101943 -1.21497e-17)
(0.0140789 -0.0107093 -7.09954e-18)
(0.0138645 -0.0112223 -6.75685e-18)
(0.0136384 -0.0117331 -6.50631e-18)
(0.0133996 -0.0122421 1.42527e-18)
(0.0138557 -0.012041 4.16764e-18)
(0.0161883 -0.00401042 -9.14548e-19)
(0.0161101 -0.00454476 3.10163e-19)
(0.0160218 -0.00507889 4.06953e-18)
(0.0159234 -0.00561277 1.59038e-18)
(0.0158147 -0.00614632 -2.66885e-18)
(0.0156957 -0.00667946 -2.4424e-18)
(0.0155662 -0.0072121 -4.49414e-18)
(0.015426 -0.00774413 -5.2659e-18)
(0.0152751 -0.00827542 -6.27004e-18)
(0.0151132 -0.00880581 -5.42297e-18)
(0.0149402 -0.00933514 8.13899e-19)
(0.014756 -0.00986322 -4.42986e-18)
(0.0145603 -0.0103898 -1.28546e-17)
(0.0143529 -0.0109147 -7.52856e-18)
(0.0141336 -0.0114377 -5.68349e-18)
(0.0139023 -0.0119584 -5.69617e-18)
(0.0136581 -0.0124772 1.05971e-18)
(0.0141045 -0.0122897 5.36717e-18)
(0.0165082 -0.00408691 -1.3353e-18)
(0.0164282 -0.00463146 6.95971e-20)
(0.016338 -0.00517581 4.18256e-18)
(0.0162375 -0.00571991 1.16094e-18)
(0.0161264 -0.00626369 -3.07567e-18)
(0.0160048 -0.00680707 -2.60263e-18)
(0.0158724 -0.00734995 -4.57019e-18)
(0.0157291 -0.00789221 -5.18591e-18)
(0.0155748 -0.00843373 -6.02558e-18)
(0.0154093 -0.00897435 -4.80455e-18)
(0.0152325 -0.0095139 1.10768e-18)
(0.0150441 -0.0100522 -3.88487e-18)
(0.014844 -0.010589 -1.29316e-17)
(0.0146319 -0.011124 -7.80512e-18)
(0.0144077 -0.0116571 -4.89896e-18)
(0.0141711 -0.0121879 -4.08366e-18)
(0.0139214 -0.0127167 1.31202e-18)
(0.0143583 -0.0125429 5.03068e-18)
(0.0168338 -0.00416479 -1.02377e-18)
(0.0167522 -0.00471974 1.13959e-19)
(0.01666 -0.00527451 4.13756e-18)
(0.0165573 -0.00582903 9.2066e-19)
(0.0164438 -0.00638323 -2.99376e-18)
(0.0163195 -0.00693703 -3.54049e-18)
(0.0161842 -0.00749034 -4.62779e-18)
(0.0160377 -0.00804304 -4.32924e-18)
(0.0158801 -0.00859498 -5.70607e-18)
(0.0157109 -0.00914603 -4.65492e-18)
(0.0155302 -0.009696 1.28014e-18)
(0.0153376 -0.0102447 -3.96039e-18)
(0.015133 -0.0107919 -1.28366e-17)
(0.0149162 -0.0113373 -7.96899e-18)
(0.014687 -0.0118807 -3.94717e-18)
(0.0144451 -0.0124218 -2.93804e-18)
(0.0141897 -0.0129608 9.6918e-19)
(0.014617 -0.0128008 4.56767e-18)
(0.0171655 -0.00424412 -5.72272e-19)
(0.0170821 -0.00480967 2.66299e-19)
(0.0169879 -0.00537504 3.87647e-18)
(0.016883 -0.00594018 6.78296e-19)
(0.016767 -0.006505 -2.48432e-18)
(0.01664 -0.00706943 -4.75364e-18)
(0.0165018 -0.00763337 -4.73604e-18)
(0.0163522 -0.0081967 -3.11582e-18)
(0.016191 -0.00875928 -5.22949e-18)
(0.0160182 -0.00932096 -4.80726e-18)
(0.0158335 -0.00988155 1.65656e-18)
(0.0156367 -0.0104408 -4.23817e-18)
(0.0154276 -0.0109986 -1.19412e-17)
(0.015206 -0.0115546 -7.7649e-18)
(0.0149716 -0.0121085 -3.48981e-18)
(0.0147243 -0.0126601 -2.09574e-18)
(0.0144632 -0.0132096 3.13186e-19)
(0.0148809 -0.0130635 3.80122e-18)
(0.0175034 -0.00432494 -2.95999e-19)
(0.0174182 -0.0049013 2.7894e-19)
(0.017322 -0.00547748 3.3706e-18)
(0.0172148 -0.00605343 3.1919e-19)
(0.0170964 -0.00662908 -1.26935e-18)
(0.0169666 -0.00720435 -5.83164e-18)
(0.0168254 -0.00777913 -5.65403e-18)
(0.0166726 -0.0083533 -2.106e-18)
(0.0165079 -0.00892673 -4.2234e-18)
(0.0163313 -0.00949925 -5.03342e-18)
(0.0161426 -0.0100707 1.29298e-18)
(0.0159415 -0.0106408 -4.41899e-18)
(0.0157278 -0.0112094 -1.10926e-17)
(0.0155013 -0.0117762 -6.73194e-18)
(0.0152618 -0.0123408 -2.64454e-18)
(0.0150089 -0.0129031 -1.24963e-18)
(0.014742 -0.0134633 -4.86846e-19)
(0.0151501 -0.0133312 2.44086e-18)
(0.0179236 -0.00381983 1.97519e-18)
(0.0178477 -0.00440732 -3.64856e-19)
(0.0177607 -0.00499468 1.74546e-19)
(0.0176625 -0.00558189 2.95963e-18)
(0.017553 -0.00616887 -6.21175e-19)
(0.017432 -0.00675556 -7.7179e-20)
(0.0172995 -0.00734187 -6.0055e-18)
(0.0171553 -0.0079277 -6.27448e-18)
(0.0169991 -0.00851294 -1.72643e-18)
(0.016831 -0.00909743 -3.96727e-18)
(0.0166505 -0.00968101 -4.89097e-18)
(0.0164577 -0.0102635 7.82374e-19)
(0.0162522 -0.0108447 -4.34395e-18)
(0.0160339 -0.0114243 -1.07645e-17)
(0.0158025 -0.0120021 -5.83062e-18)
(0.0155577 -0.0125777 -1.60849e-18)
(0.0152992 -0.013151 4.17698e-19)
(0.0150264 -0.013722 -7.66921e-19)
(0.0154249 -0.0136041 8.86922e-19)
(0.0182762 -0.00389259 2.87293e-18)
(0.0181987 -0.00449129 -5.83639e-19)
(0.0181099 -0.00508989 2.50062e-19)
(0.0180096 -0.00568833 2.55827e-18)
(0.0178977 -0.00628657 -1.86533e-18)
(0.0177742 -0.00688451 4.35083e-19)
(0.0176389 -0.00748209 -5.72877e-18)
(0.0174916 -0.0080792 -6.36216e-18)
(0.0173321 -0.00867572 -1.4675e-18)
(0.0171603 -0.0092715 -4.11522e-18)
(0.016976 -0.00986638 -4.93088e-18)
(0.0167791 -0.0104602 2.112e-19)
(0.0165691 -0.0110526 -4.54679e-18)
(0.0163461 -0.0116435 -1.0453e-17)
(0.0161096 -0.0122325 -5.16104e-18)
(0.0158595 -0.0128194 -6.04031e-19)
(0.0155954 -0.0134038 1.66526e-18)
(0.0153165 -0.0139859 -3.12192e-19)
(0.0157054 -0.0138824 3.81536e-19)
(0.0187034 -0.00335657 5.84708e-18)
(0.0186357 -0.00396678 3.0024e-18)
(0.0185566 -0.00457693 -5.81638e-19)
(0.0184659 -0.00518698 8.95671e-19)
(0.0183635 -0.00579689 2.42161e-18)
(0.0182493 -0.0064066 -3.21177e-18)
(0.0181232 -0.00701603 3.40783e-19)
(0.017985 -0.00762511 -5.67713e-18)
(0.0178346 -0.00823373 -6.60534e-18)
(0.0176717 -0.00884176 -1.48592e-18)
(0.0174963 -0.00944906 -3.78137e-18)
(0.0173081 -0.0100555 -4.70947e-18)
(0.0171069 -0.0106608 -1.91438e-19)
(0.0168924 -0.0112647 -5.16241e-18)
(0.0166646 -0.0118671 -1.027e-17)
(0.016423 -0.0124676 -4.70992e-18)
(0.0161674 -0.013066 6.54041e-19)
(0.0158975 -0.0136617 2.5448e-18)
(0.0156126 -0.0142552 2.68462e-20)
(0.0159918 -0.0141662 9.73878e-19)
(0.0190714 -0.00342059 6.15194e-18)
(0.0190024 -0.00404247 3.13986e-18)
(0.0189216 -0.00466429 -4.34641e-19)
(0.018829 -0.00528603 1.43572e-18)
(0.0187245 -0.00590763 2.35515e-18)
(0.0186079 -0.00652905 -4.32336e-18)
(0.0184792 -0.0071502 3.61257e-19)
(0.0183381 -0.00777102 -5.98351e-18)
(0.0181844 -0.00839138 -7.02723e-18)
(0.0180182 -0.00901117 -1.8069e-18)
(0.017839 -0.00963023 -3.35677e-18)
(0.0176468 -0.0102484 -4.23504e-18)
(0.0174413 -0.0108655 -3.49427e-19)
(0.0172223 -0.0114812 -5.62044e-18)
(0.0169896 -0.0120953 -1.06016e-17)
(0.0167428 -0.0127076 -4.54378e-18)
(0.0164817 -0.0133176 1.71484e-18)
(0.016206 -0.0139251 3.71181e-18)
(0.0159148 -0.0145301 1.29201e-19)
(0.0162843 -0.0144558 2.36441e-18)
(0.0194469 -0.00348592 5.54616e-18)
(0.0193764 -0.0041197 3.4744e-18)
(0.019294 -0.00475343 1.83253e-19)
(0.0191995 -0.00538709 1.84837e-18)
(0.0190928 -0.00602063 2.04502e-18)
(0.0189738 -0.006654 -5.29826e-18)
(0.0188424 -0.00728713 6.30656e-19)
(0.0186983 -0.00791992 -6.37665e-18)
(0.0185415 -0.00855227 -7.52448e-18)
(0.0183717 -0.00918407 -2.33382e-18)
(0.0181888 -0.00981514 -3.37833e-18)
(0.0179925 -0.0104453 -3.73937e-18)
(0.0177827 -0.0110744 -1.23538e-19)
(0.017559 -0.0117022 -5.80044e-18)
(0.0173213 -0.0123283 -1.06586e-17)
(0.0170692 -0.0129526 -4.16024e-18)
(0.0168025 -0.0135745 1.8653e-18)
(0.0165208 -0.0141939 4.45603e-18)
(0.0162233 -0.0148108 -1.66757e-19)
(0.0165831 -0.0147513 3.13869e-18)
(0.0198301 -0.00355259 4.71339e-18)
(0.0197582 -0.00419852 3.74304e-18)
(0.019674 -0.00484441 1.28077e-18)
(0.0195776 -0.00549025 2.28398e-18)
(0.0194687 -0.00613598 2.04713e-18)
(0.0193473 -0.00678155 -6.13877e-18)
(0.0192131 -0.00742689 7.67509e-19)
(0.019066 -0.00807192 -6.53372e-18)
(0.018906 -0.00871652 -8.03597e-18)
(0.0187326 -0.00936057 -2.69771e-18)
(0.0185459 -0.0100039 -3.67828e-18)
(0.0183455 -0.0106464 -3.46834e-18)
(0.0181312 -0.0112878 5.0781e-21)
(0.0179028 -0.0119278 -5.84829e-18)
(0.01766 -0.0125662 -1.00242e-17)
(0.0174026 -0.0132027 -3.21007e-18)
(0.0171301 -0.0138369 1.65125e-18)
(0.0168424 -0.0144684 4.60784e-18)
(0.0165385 -0.0150974 -2.40728e-19)
(0.0168884 -0.015053 2.42489e-18)
(0.0202213 -0.00362066 4.17796e-18)
(0.0201479 -0.00427899 3.72026e-18)
(0.020062 -0.0049373 2.37377e-18)
(0.0199636 -0.00559557 2.61992e-18)
(0.0198525 -0.00625374 1.94763e-18)
(0.0197285 -0.00691178 -7.03891e-18)
(0.0195916 -0.0075696 5.53073e-19)
(0.0194415 -0.00822712 -6.15953e-18)
(0.0192781 -0.00888423 -8.09739e-18)
(0.0191011 -0.00954081 -2.87851e-18)
(0.0189105 -0.0101967 -4.00655e-18)
(0.0187059 -0.0108517 -3.52466e-18)
(0.0184871 -0.0115056 3.58687e-19)
(0.0182539 -0.0121582 -5.43482e-18)
(0.018006 -0.0128092 -9.45184e-18)
(0.017743 -0.0134582 -1.95403e-18)
(0.0174648 -0.0141049 2.15978e-18)
(0.0171709 -0.0147489 3.8728e-18)
(0.0168604 -0.0153902 -6.56794e-19)
(0.0172004 -0.015361 1.77905e-18)
(0.0206207 -0.00369017 4.15699e-18)
(0.0205458 -0.00436117 3.53042e-18)
(0.0204582 -0.00503217 3.3867e-18)
(0.0203578 -0.00570313 3.21383e-18)
(0.0202444 -0.00637402 1.46217e-18)
(0.0201179 -0.00704479 -7.9313e-18)
(0.0199781 -0.00771536 -1.91165e-19)
(0.0198249 -0.00838565 -5.88116e-18)
(0.0196581 -0.00905555 -7.82362e-18)
(0.0194775 -0.00972492 -3.29843e-18)
(0.0192829 -0.0103936 -4.18304e-18)
(0.019074 -0.0110615 -3.90416e-18)
(0.0188506 -0.0117282 5.41717e-19)
(0.0186125 -0.0123936 -4.31566e-18)
(0.0183594 -0.0130574 -8.49029e-18)
(0.0180909 -0.0137193 -8.30675e-19)
(0.0178067 -0.0143787 3.30659e-18)
(0.0175065 -0.0150354 4.15082e-18)
(0.0171893 -0.0156895 -1.3416e-18)
(0.0175194 -0.0156757 1.036e-18)
(0.0210287 -0.00376118 4.6075e-18)
(0.0209523 -0.00444513 3.31243e-18)
(0.0208629 -0.00512908 3.99162e-18)
(0.0207604 -0.00581301 3.7564e-18)
(0.0206447 -0.0064969 6.48137e-19)
(0.0205156 -0.00718068 -8.74674e-18)
(0.020373 -0.00786428 -7.38892e-19)
(0.0202167 -0.00854761 -5.49032e-18)
(0.0200464 -0.00923058 -7.5927e-18)
(0.0198621 -0.00991304 -4.10107e-18)
(0.0196634 -0.0105948 -4.35412e-18)
(0.0194502 -0.0112758 -4.29811e-18)
(0.0192221 -0.0119557 1.4737e-19)
(0.018979 -0.0126342 -3.08895e-18)
(0.0187205 -0.0133111 -6.71817e-18)
(0.0184464 -0.0139861 -2.23491e-19)
(0.0181562 -0.0146586 3.43336e-18)
(0.0178496 -0.0153284 5.56646e-18)
(0.0175256 -0.0159953 -1.27708e-18)
(0.0178457 -0.0159971 7.53416e-19)
(0.0214456 -0.00383375 4.95752e-18)
(0.0213676 -0.00453091 3.17464e-18)
(0.0212764 -0.00522811 4.68204e-18)
(0.0211718 -0.00592531 3.89351e-18)
(0.0210538 -0.00662247 -4.60404e-19)
(0.0209221 -0.00731955 -9.15321e-18)
(0.0207765 -0.00801646 -6.88247e-19)
(0.020617 -0.00871314 -5.40417e-18)
(0.0204432 -0.00940947 -7.66948e-18)
(0.0202551 -0.0101053 -4.71033e-18)
(0.0200523 -0.0108005 -4.29707e-18)
(0.0198346 -0.0114949 -4.76339e-18)
(0.0196018 -0.0121882 -5.23944e-19)
(0.0193536 -0.0128801 -2.61721e-18)
(0.0190897 -0.0135705 -4.95449e-18)
(0.0188098 -0.0142588 8.35919e-19)
(0.0185135 -0.0149447 2.7892e-18)
(0.0182003 -0.0156278 6.07793e-18)
(0.0178694 -0.016308 -1.39114e-18)
(0.0181794 -0.0163257 1.23573e-18)
(0.0218716 -0.00390792 5.41074e-18)
(0.0217921 -0.00461861 3.36014e-18)
(0.021699 -0.00532934 5.63676e-18)
(0.0215924 -0.00604009 3.26302e-18)
(0.0214719 -0.00675083 -1.88622e-18)
(0.0213375 -0.0074615 -9.10531e-18)
(0.021189 -0.00817204 -4.45388e-19)
(0.0210262 -0.00888236 -5.34043e-18)
(0.0208489 -0.00959235 -8.10132e-18)
(0.0206569 -0.0103019 -5.19072e-18)
(0.0204499 -0.0110108 -3.89246e-18)
(0.0202277 -0.0117189 -5.21789e-18)
(0.01999 -0.0124259 -8.21461e-19)
(0.0197366 -0.0131316 -2.22711e-18)
(0.0194672 -0.0138357 -3.0716e-18)
(0.0191814 -0.0145377 2.2329e-18)
(0.0188788 -0.0152374 2.45374e-18)
(0.0185591 -0.0159341 5.63042e-18)
(0.0182211 -0.0166279 -2.14622e-18)
(0.0185209 -0.0166616 7.79661e-19)
(0.0223072 -0.00398375 5.36519e-18)
(0.022226 -0.00470827 3.18334e-18)
(0.0221311 -0.00543284 6.74702e-18)
(0.0220223 -0.00615746 2.41208e-18)
(0.0218994 -0.00688208 -3.42528e-18)
(0.0217623 -0.00760666 -8.87386e-18)
(0.0216107 -0.00833113 -4.06233e-19)
(0.0214446 -0.0090554 -5.23202e-18)
(0.0212637 -0.00977937 -8.4735e-18)
(0.0210677 -0.0105029 -5.60182e-18)
(0.0208564 -0.0112258 -3.55169e-18)
(0.0206296 -0.0119479 -6.03466e-18)
(0.0203871 -0.012669 -1.00719e-18)
(0.0201284 -0.0133888 -1.46196e-18)
(0.0198533 -0.0141069 -1.14862e-18)
(0.0195615 -0.0148231 3.17686e-18)
(0.0192525 -0.0155367 2.66269e-18)
(0.018926 -0.0162474 6.14308e-18)
(0.0185808 -0.016955 -2.73696e-18)
(0.0188703 -0.0170051 1.8783e-20)
(0.0227526 -0.00406131 5.21143e-18)
(0.0226698 -0.00479997 2.91831e-18)
(0.022573 -0.0055387 8.03811e-18)
(0.022462 -0.0062775 1.62125e-18)
(0.0223366 -0.00701633 -5.02851e-18)
(0.0221967 -0.00775514 -8.3645e-18)
(0.0220421 -0.00849386 -7.04624e-19)
(0.0218726 -0.00923241 -5.28026e-18)
(0.0216879 -0.00997068 -8.81496e-18)
(0.0214879 -0.0107085 -6.31537e-18)
(0.0212723 -0.0114458 -3.06819e-18)
(0.0210408 -0.0121823 -6.54789e-18)
(0.0207932 -0.0129178 -1.42453e-18)
(0.0205291 -0.0136519 -1.07244e-18)
(0.0202483 -0.0143845 8.31727e-19)
(0.0199504 -0.015115 4.29998e-18)
(0.0196349 -0.015843 2.89505e-18)
(0.0193015 -0.016568 7.13605e-18)
(0.018949 -0.0172899 -2.51907e-18)
(0.019228 -0.0173564 -1.52928e-19)
(0.0232082 -0.00414066 4.61353e-18)
(0.0231238 -0.00489379 2.31403e-18)
(0.0230251 -0.00564701 9.11406e-18)
(0.0229118 -0.00640032 1.19721e-18)
(0.0227839 -0.00715368 -6.17238e-18)
(0.0226411 -0.00790705 -7.88645e-18)
(0.0224834 -0.00866036 -1.2836e-18)
(0.0223104 -0.00941352 -5.12782e-18)
(0.022122 -0.0101664 -8.79501e-18)
(0.0219179 -0.010919 -7.14178e-18)
(0.0216979 -0.0116709 -2.62647e-18)
(0.0214616 -0.0124221 -6.88852e-18)
(0.0212088 -0.0131723 -1.98564e-18)
(0.0209393 -0.0139212 -1.10408e-18)
(0.0206526 -0.0146685 2.57318e-18)
(0.0203484 -0.0154138 5.36001e-18)
(0.0200263 -0.0161565 3.04103e-18)
(0.0196859 -0.0168962 7.9293e-18)
(0.0193259 -0.0176326 -2.10617e-18)
(0.0195944 -0.0177159 1.81266e-19)
(0.0236745 -0.00422187 3.73349e-18)
(0.0235884 -0.0049898 1.47086e-18)
(0.0234877 -0.00575786 9.68909e-18)
(0.0233721 -0.00652602 8.27371e-19)
(0.0232416 -0.00729426 -6.71655e-18)
(0.023096 -0.00806253 -7.09651e-18)
(0.022935 -0.00883077 -1.87379e-18)
(0.0227586 -0.00959889 -4.98792e-18)
(0.0225663 -0.0103668 -9.00251e-18)
(0.022358 -0.0111343 -8.38351e-18)
(0.0221334 -0.0119013 -1.8628e-18)
(0.0218923 -0.0126676 -6.54456e-18)
(0.0216343 -0.0134329 -2.96932e-18)
(0.0213591 -0.0141969 -1.57652e-18)
(0.0210664 -0.0149593 4.14898e-18)
(0.0207558 -0.0157197 6.14225e-18)
(0.020427 -0.0164775 3.07213e-18)
(0.0200794 -0.0172322 8.78998e-18)
(0.0197118 -0.0179835 -1.70734e-18)
(0.0199696 -0.0180838 1.04783e-18)
(0.0241518 -0.004305 2.81274e-18)
(0.024064 -0.00508809 5.3095e-19)
(0.0239612 -0.00587133 9.52741e-18)
(0.0238433 -0.0066547 3.83481e-19)
(0.0237102 -0.00743817 -6.97558e-18)
(0.0235616 -0.00822171 -6.17401e-18)
(0.0233974 -0.00900524 -2.36502e-18)
(0.0232173 -0.00978868 -4.85785e-18)
(0.0230211 -0.0105719 -9.25324e-18)
(0.0228086 -0.0113549 -1.00635e-17)
(0.0225794 -0.0121373 -9.85031e-19)
(0.0223333 -0.012919 -5.6918e-18)
(0.0220699 -0.0136997 -3.74329e-18)
(0.021789 -0.0144792 -2.26458e-18)
(0.0214902 -0.0152571 5.64689e-18)
(0.0211731 -0.0160329 6.70629e-18)
(0.0208374 -0.0168063 2.81329e-18)
(0.0204825 -0.0175764 9.39697e-18)
(0.0201072 -0.0183429 -1.13202e-18)
(0.020354 -0.0184605 2.19389e-18)
(0.0246405 -0.00439013 2.26087e-18)
(0.0245509 -0.00518875 -1.85544e-20)
(0.024446 -0.00598753 8.87227e-18)
(0.0243258 -0.00678647 -1.148e-19)
(0.02419 -0.00758555 -7.16955e-18)
(0.0240384 -0.00838472 -5.44305e-18)
(0.0238709 -0.00918391 -2.67556e-18)
(0.0236871 -0.00998305 -4.91576e-18)
(0.0234869 -0.010782 -9.68351e-18)