/*--------------------------------*- C++ -*----------------------------------*\
  =========                 |
  \\      /  F ield         | OpenFOAM: The Open Source CFD Toolbox
   \\    /   O peration     | Website:  https://openfoam.org
    \\  /    A nd           | Version:  7
     \\/     M anipulation  |
\*---------------------------------------------------------------------------*/
FoamFile
{
    version     2.0;
    format      ascii;
    class       volVectorField;
    location    "116000";
    object      U;
}
// * * * * * * * * * * * * * * * * * * * * * * * * * * * * * * * * * * * * * //

dimensions      [0 1 -1 0 0 0 0];

internalField   nonuniform List<vector> 
4850
(
(-1.37982e-18 -6.98638e-19 -0.0152756)
(-1.21216e-18 -7.24927e-19 -0.0152898)
(-1.40929e-18 -6.90622e-19 -0.0152478)
(-1.35229e-18 -4.69508e-19 -0.0152623)
(-9.79687e-19 -3.00723e-19 -0.0152762)
(-1.16524e-18 -6.18942e-19 -0.0152194)
(-1.42612e-18 -4.22498e-19 -0.0152342)
(-1.0669e-18 -3.36724e-19 -0.0152484)
(-1.0571e-18 -2.5856e-19 -0.0152621)
(-1.03286e-18 -3.95446e-19 -0.0152752)
(-1.02191e-18 -5.87446e-19 -0.0151904)
(-1.3493e-18 -4.54156e-19 -0.0152055)
(-1.07219e-18 -3.86952e-19 -0.01522)
(-1.12977e-18 -3.54441e-19 -0.0152339)
(-9.90224e-19 -4.21e-19 -0.0152473)
(-1.00395e-18 -1.49903e-19 -0.0152601)
(-9.92575e-19 -4.94076e-19 -0.0151607)
(-1.39528e-18 -4.35812e-19 -0.0151761)
(-1.15586e-18 -3.72612e-19 -0.0151909)
(-1.09635e-18 -3.93242e-19 -0.0152051)
(-1.08849e-18 -2.15002e-19 -0.0152188)
(-8.93099e-19 -1.29129e-19 -0.0152318)
(-1.11394e-18 3.73839e-19 -0.0152443)
(-8.38597e-19 -7.33506e-19 -0.0151306)
(-1.282e-18 -5.43676e-19 -0.0151462)
(-1.31505e-18 -2.27594e-19 -0.0151612)
(-1.10385e-18 -4.08875e-19 -0.0151757)
(-1.07664e-18 -1.70608e-19 -0.0151896)
(-8.07825e-19 9.50451e-20 -0.0152029)
(-9.85447e-19 7.19823e-19 -0.0152156)
(-1.14066e-18 6.05012e-19 -0.0152277)
(-1.46123e-18 7.59516e-20 -0.0152392)
(-7.33183e-19 -8.70793e-19 -0.0150998)
(-1.09952e-18 -3.98797e-19 -0.0151157)
(-1.36535e-18 -9.61667e-20 -0.015131)
(-1.24532e-18 -3.11847e-19 -0.0151457)
(-1.0191e-18 -1.36606e-19 -0.0151599)
(-6.57151e-19 2.86677e-19 -0.0151734)
(-7.674e-19 4.33986e-19 -0.0151864)
(-1.14384e-18 -7.10596e-20 -0.0151987)
(-1.42917e-18 -6.14798e-19 -0.0152104)
(-1.3098e-18 -4.12866e-19 -0.0152214)
(-8.85689e-19 -5.52653e-19 -0.0150686)
(-9.81298e-19 -1.41658e-19 -0.0150847)
(-1.31423e-18 -1.61664e-19 -0.0151002)
(-1.39372e-18 -1.98917e-19 -0.0151152)
(-1.05716e-18 -9.05025e-20 -0.0151296)
(-6.96302e-19 3.09588e-19 -0.0151434)
(-7.22365e-19 2.12503e-20 -0.0151565)
(-1.06158e-18 -4.9943e-19 -0.0151691)
(-1.36584e-18 -6.41847e-19 -0.015181)
(-1.21745e-18 -3.70133e-19 -0.0151922)
(-1.19411e-18 -3.95547e-19 -0.0152028)
(-1.42661e-18 -3.64383e-19 -0.0152127)
(-1.14983e-18 -3.55919e-19 -0.015222)
(-1.47095e-18 -3.94863e-19 -0.0152305)
(-1.11848e-18 -1.56656e-19 -0.0150368)
(-9.66833e-19 -1.0569e-19 -0.0150531)
(-1.15824e-18 -3.67679e-19 -0.0150689)
(-1.35803e-18 -3.05384e-19 -0.0150841)
(-1.06065e-18 -9.1176e-20 -0.0150987)
(-6.80302e-19 2.39249e-19 -0.0151127)
(-8.1981e-19 -8.93811e-20 -0.0151261)
(-1.12306e-18 -5.14305e-19 -0.0151389)
(-1.36496e-18 -5.71679e-19 -0.015151)
(-1.22755e-18 -4.91654e-19 -0.0151624)
(-1.10181e-18 -6.75961e-19 -0.0151732)
(-1.30779e-18 -5.63932e-19 -0.0151833)
(-1.19925e-18 -3.00759e-19 -0.0151927)
(-1.37709e-18 -4.67338e-19 -0.0152014)
(-1.97545e-18 -9.8762e-20 -0.0152095)
(-2.12883e-18 -2.72478e-19 -0.0152168)
(-2.45889e-18 -5.43011e-21 -0.0152233)
(-2.24332e-18 2.54924e-19 -0.0152292)
(-1.2405e-18 -5.0784e-21 -0.0150045)
(-1.12112e-18 -7.14161e-20 -0.0150211)
(-1.1831e-18 -4.09939e-19 -0.0150371)
(-1.24892e-18 -4.21475e-19 -0.0150525)
(-1.04384e-18 -1.04997e-19 -0.0150673)
(-6.39912e-19 4.0685e-20 -0.0150815)
(-7.77982e-19 -3.51124e-19 -0.0150951)
(-1.15523e-18 -4.9472e-19 -0.0151081)
(-1.36575e-18 -6.15455e-19 -0.0151204)
(-1.2841e-18 -5.82521e-19 -0.0151321)
(-1.13759e-18 -6.86165e-19 -0.015143)
(-1.13474e-18 -7.31069e-19 -0.0151533)
(-1.15773e-18 -1.62423e-19 -0.0151629)
(-1.27491e-18 -3.54435e-19 -0.0151718)
(-1.93846e-18 3.18384e-20 -0.0151799)
(-2.12416e-18 -2.80363e-19 -0.0151873)
(-2.36801e-18 7.346e-20 -0.0151941)
(-2.32462e-18 9.41607e-20 -0.0152)
(-1.621e-18 -3.00493e-19 -0.0152053)
(-1.74723e-18 9.62491e-20 -0.0152098)
(-1.2121e-18 -8.73826e-20 -0.0149718)
(-1.20631e-18 -6.10869e-20 -0.0149885)
(-1.29325e-18 -3.86842e-19 -0.0150047)
(-1.26178e-18 -4.19795e-19 -0.0150203)
(-1.02298e-18 -1.78872e-19 -0.0150354)
(-6.7505e-19 -1.73075e-19 -0.0150498)
(-5.9008e-19 -8.58328e-19 -0.0150636)
(-1.08716e-18 -5.66228e-19 -0.0150768)
(-1.37347e-18 -6.54731e-19 -0.0150893)
(-1.32165e-18 -5.57312e-19 -0.0151011)
(-1.22651e-18 -6.72819e-19 -0.0151123)
(-1.01902e-18 -7.5698e-19 -0.0151227)
(-1.01925e-18 -2.65198e-19 -0.0151324)
(-1.16403e-18 -5.14323e-19 -0.0151415)
(-1.86856e-18 -1.49343e-20 -0.0151498)
(-2.09259e-18 -2.91513e-19 -0.0151573)
(-2.29419e-18 -1.17767e-19 -0.0151642)
(-2.4801e-18 -1.59419e-19 -0.0151702)
(-1.64678e-18 -6.39084e-19 -0.0151756)
(-1.54384e-18 -2.74076e-19 -0.0151802)
(-1.90648e-18 1.7578e-20 -0.015184)
(-1.83168e-18 3.67273e-19 -0.015187)
(-2.24393e-18 1.50129e-19 -0.0151893)
(-1.94838e-18 -3.66098e-19 -0.0151909)
(-1.09597e-18 -2.70626e-19 -0.0149386)
(-1.275e-18 -9.26972e-21 -0.0149555)
(-1.36135e-18 -3.8824e-19 -0.0149719)
(-1.34977e-18 -2.99065e-19 -0.0149877)
(-1.1226e-18 -1.21603e-19 -0.015003)
(-8.91756e-19 -3.14183e-19 -0.0150176)
(-5.68098e-19 -9.90123e-19 -0.0150316)
(-8.38204e-19 -6.15248e-19 -0.0150449)
(-1.33032e-18 -6.39232e-19 -0.0150576)
(-1.34402e-18 -6.2416e-19 -0.0150696)
(-1.27948e-18 -8.04717e-19 -0.0150809)
(-1.01323e-18 -7.09129e-19 -0.0150916)
(-9.55361e-19 -4.55452e-19 -0.0151014)
(-9.63918e-19 -6.67101e-19 -0.0151106)
(-1.71716e-18 -3.89065e-20 -0.0151191)
(-2.162e-18 -2.72894e-19 -0.0151267)
(-2.27481e-18 -1.88007e-19 -0.0151337)
(-2.64741e-18 -1.93031e-19 -0.0151399)
(-1.72881e-18 -5.53964e-19 -0.0151453)
(-1.38285e-18 -8.93421e-20 -0.0151499)
(-1.81079e-18 1.55092e-20 -0.0151538)
(-1.80009e-18 2.93361e-20 -0.0151569)
(-2.29817e-18 -1.0098e-19 -0.0151593)
(-2.05961e-18 -3.51907e-20 -0.0151608)
(-1.75938e-18 -8.91684e-20 -0.0151616)
(-3.97334e-18 2.77187e-19 -0.0151616)
(-5.52823e-18 4.5145e-19 -0.0151608)
(-4.44289e-18 3.18204e-19 -0.0151593)
(-3.95866e-18 2.33146e-19 -0.0151569)
(-1.07518e-18 -2.07659e-19 -0.0149049)
(-1.28066e-18 1.10157e-19 -0.014922)
(-1.49331e-18 -2.50175e-19 -0.0149386)
(-1.42524e-18 -1.01463e-19 -0.0149546)
(-1.28267e-18 3.70916e-20 -0.0149701)
(-1.20335e-18 -1.65411e-19 -0.0149849)
(-8.45972e-19 -5.92876e-19 -0.014999)
(-7.75221e-19 -5.24957e-19 -0.0150126)
(-1.27569e-18 -6.90973e-19 -0.0150254)
(-1.37195e-18 -7.5283e-19 -0.0150376)
(-1.31317e-18 -8.26611e-19 -0.0150491)
(-9.75884e-19 -6.58382e-19 -0.0150599)
(-9.62332e-19 -4.96137e-19 -0.0150699)
(-8.47503e-19 -6.07144e-19 -0.0150792)
(-1.49467e-18 -2.3777e-19 -0.0150878)
(-2.22548e-18 1.27395e-19 -0.0150956)
(-2.27585e-18 -9.75205e-20 -0.0151026)
(-2.81043e-18 8.83686e-20 -0.0151089)
(-1.84268e-18 2.48815e-19 -0.0151144)
(-1.34345e-18 4.30567e-19 -0.0151192)
(-1.84442e-18 1.94648e-19 -0.0151231)
(-1.87157e-18 3.39821e-19 -0.0151263)
(-2.27368e-18 -5.13287e-20 -0.0151287)
(-1.975e-18 3.14097e-19 -0.0151302)
(-1.69665e-18 2.92062e-19 -0.015131)
(-3.92595e-18 3.89201e-19 -0.015131)
(-5.5251e-18 6.3259e-19 -0.0151302)
(-4.49127e-18 9.88661e-19 -0.0151287)
(-4.1005e-18 7.15228e-19 -0.0151263)
(-5.21357e-18 4.79802e-19 -0.0151231)
(-5.52036e-18 1.20928e-19 -0.0151192)
(-5.95461e-18 -6.1186e-19 -0.0151144)
(-1.19527e-18 1.21729e-19 -0.0148708)
(-1.11309e-18 -9.21264e-20 -0.0148881)
(-1.55693e-18 -1.45187e-19 -0.0149049)
(-1.53983e-18 1.08048e-19 -0.0149211)
(-1.35502e-18 1.39602e-19 -0.0149367)
(-1.36948e-18 -1.23907e-19 -0.0149517)
(-1.09059e-18 -3.8654e-19 -0.014966)
(-8.02276e-19 -5.64916e-19 -0.0149797)
(-1.28187e-18 -7.40635e-19 -0.0149928)
(-1.38522e-18 -7.57641e-19 -0.0150051)
(-1.39721e-18 -6.59494e-19 -0.0150167)
(-9.76547e-19 -6.33907e-19 -0.0150276)
(-9.56149e-19 -5.12048e-19 -0.0150378)
(-8.53338e-19 -3.86835e-19 -0.0150473)
(-1.09402e-18 -5.81649e-19 -0.015056)
(-2.1693e-18 2.87818e-19 -0.0150639)
(-2.30063e-18 -1.79543e-19 -0.015071)
(-2.71888e-18 5.21122e-19 -0.0150774)
(-1.92206e-18 9.47925e-19 -0.015083)
(-1.47526e-18 5.85359e-19 -0.0150878)
(-1.85635e-18 3.39917e-19 -0.0150918)
(-1.96419e-18 7.78765e-19 -0.015095)
(-2.34233e-18 1.78593e-19 -0.0150975)
(-1.9259e-18 4.60204e-19 -0.0150991)
(-1.71056e-18 2.89048e-19 -0.0150999)
(-3.93557e-18 4.49225e-19 -0.0150999)
(-5.43326e-18 4.63285e-19 -0.0150991)
(-4.41467e-18 1.52536e-18 -0.0150975)
(-4.2559e-18 1.10341e-18 -0.015095)
(-5.38585e-18 8.87528e-19 -0.0150918)
(-5.7158e-18 7.56523e-19 -0.0150878)
(-6.63103e-18 7.32451e-19 -0.015083)
(-7.04759e-18 -2.48311e-18 -0.0150774)
(-1.30784e-17 -1.79468e-18 -0.015071)
(-1.44313e-18 2.72219e-19 -0.0148363)
(-1.06259e-18 -2.43201e-19 -0.0148538)
(-1.41138e-18 -6.50273e-20 -0.0148707)
(-1.53918e-18 1.63739e-19 -0.0148871)
(-1.39892e-18 -3.76026e-20 -0.0149028)
(-1.42737e-18 -3.25357e-19 -0.014918)
(-1.24178e-18 -4.38684e-19 -0.0149325)
(-8.74143e-19 -5.53243e-19 -0.0149464)
(-1.22861e-18 -7.73131e-19 -0.0149596)
(-1.37012e-18 -7.06318e-19 -0.0149721)
(-1.47869e-18 -5.03952e-19 -0.0149839)
(-1.06012e-18 -5.01922e-19 -0.0149949)
(-9.16811e-19 -4.2105e-19 -0.0150052)
(-9.67143e-19 -2.21294e-19 -0.0150148)
(-8.76254e-19 -9.06056e-19 -0.0150236)
(-1.88926e-18 -1.57396e-19 -0.0150317)
(-2.15074e-18 -2.81618e-19 -0.0150389)
(-2.46619e-18 4.31393e-19 -0.0150454)
(-1.98584e-18 6.78288e-19 -0.0150511)
(-1.6062e-18 4.18689e-19 -0.0150559)
(-1.74314e-18 2.55532e-19 -0.01506)
(-1.96674e-18 6.59001e-19 -0.0150633)
(-2.462e-18 3.19834e-19 -0.0150657)
(-1.93626e-18 3.00435e-19 -0.0150673)
(-1.68911e-18 3.02573e-19 -0.0150682)
(-3.96699e-18 4.13811e-19 -0.0150682)
(-5.22562e-18 3.99147e-19 -0.0150673)
(-4.2444e-18 1.77287e-18 -0.0150657)
(-4.46526e-18 1.51409e-18 -0.0150633)
(-5.52616e-18 1.15351e-18 -0.01506)
(-5.71083e-18 1.20332e-18 -0.0150559)
(-7.27558e-18 1.94331e-18 -0.0150511)
(-8.00024e-18 -1.10598e-18 -0.0150454)
(-1.79644e-17 -9.18166e-19 -0.0150389)
(-1.5683e-18 2.85698e-19 -0.0148013)
(-1.20314e-18 -1.8977e-19 -0.014819)
(-1.32186e-18 -6.23226e-20 -0.0148361)
(-1.59342e-18 1.89701e-19 -0.0148526)
(-1.35671e-18 -3.36703e-19 -0.0148686)
(-1.4173e-18 -5.06719e-19 -0.0148839)
(-1.2878e-18 -4.88122e-19 -0.0148986)
(-9.73488e-19 -5.21249e-19 -0.0149126)
(-1.24376e-18 -8.11356e-19 -0.0149259)
(-1.27793e-18 -7.13198e-19 -0.0149386)
(-1.49276e-18 -3.92271e-19 -0.0149505)
(-1.13531e-18 -3.87356e-19 -0.0149617)
(-9.17448e-19 -3.51767e-19 -0.0149722)
(-1.08943e-18 -3.28557e-19 -0.0149819)
(-8.58969e-19 -9.84892e-19 -0.0149908)
(-1.61829e-18 -5.26492e-19 -0.0149989)
(-1.99805e-18 -4.42741e-19 -0.0150063)
(-2.24192e-18 -2.37784e-19 -0.0150128)
(-1.84974e-18 -1.31649e-19 -0.0150186)
(-1.64249e-18 3.63972e-19 -0.0150235)
(-1.70811e-18 6.89137e-20 -0.0150277)
(-1.89071e-18 3.00098e-19 -0.015031)
(-2.53482e-18 3.20782e-19 -0.0150334)
(-1.93417e-18 3.52814e-20 -0.0150351)
(-1.65412e-18 2.8143e-19 -0.0150359)
(-4.01745e-18 -1.00728e-19 -0.0150359)
(-4.99532e-18 6.51233e-19 -0.0150351)
(-4.02001e-18 1.57595e-18 -0.0150334)
(-4.64223e-18 1.69925e-18 -0.015031)
(-5.69918e-18 1.30933e-18 -0.0150277)
(-5.56564e-18 1.68249e-18 -0.0150235)
(-7.73787e-18 2.45212e-18 -0.0150186)
(-9.16158e-18 8.39766e-19 -0.0150128)
(-2.60632e-17 1.39477e-18 -0.0150063)
(-1.56415e-18 2.27937e-19 -0.014766)
(-1.3121e-18 -2.05023e-19 -0.0147838)
(-1.18279e-18 -4.64915e-20 -0.0148011)
(-1.66624e-18 2.00707e-19 -0.0148178)
(-1.45227e-18 -5.94979e-19 -0.0148339)
(-1.43722e-18 -5.39738e-19 -0.0148494)
(-1.33503e-18 -5.31637e-19 -0.0148642)
(-1.00958e-18 -6.09111e-19 -0.0148784)
(-1.30267e-18 -7.05074e-19 -0.0148919)
(-1.14014e-18 -8.37955e-19 -0.0149046)
(-1.44021e-18 -3.89459e-19 -0.0149167)
(-1.18985e-18 -3.98818e-19 -0.014928)
(-9.35353e-19 -3.70942e-19 -0.0149386)
(-1.19099e-18 -4.53381e-19 -0.0149484)
(-8.94338e-19 -9.41076e-19 -0.0149575)
(-1.44599e-18 -7.14054e-19 -0.0149657)
(-1.96631e-18 -5.45272e-19 -0.0149731)
(-2.21189e-18 -6.19832e-19 -0.0149798)
(-1.63626e-18 -3.81162e-19 -0.0149856)
(-1.53226e-18 4.48985e-19 -0.0149906)
(-1.72971e-18 -5.69514e-20 -0.0149948)
(-1.77536e-18 -2.67224e-19 -0.0149981)
(-2.58248e-18 7.85548e-20 -0.0150007)
(-1.97138e-18 3.91972e-19 -0.0150023)
(-1.74195e-18 2.01042e-19 -0.0150032)
(-3.93692e-18 -4.49156e-19 -0.0150032)
(-4.62879e-18 1.22325e-18 -0.0150023)
(-3.92115e-18 1.34641e-18 -0.0150007)
(-4.76014e-18 1.58327e-18 -0.0149981)
(-5.72787e-18 1.32561e-18 -0.0149948)
(-5.42526e-18 2.2966e-18 -0.0149906)
(-7.99431e-18 2.7756e-18 -0.0149856)
(-9.93415e-18 3.30199e-18 -0.0149798)
(-3.43767e-17 9.82034e-18 -0.0149731)
(-1.56897e-18 1.83685e-19 -0.0147302)
(-1.42005e-18 -2.43912e-19 -0.0147482)
(-9.84278e-19 -2.38815e-19 -0.0147656)
(-1.54548e-18 -1.53035e-19 -0.0147825)
(-1.5217e-18 -7.36782e-19 -0.0147988)
(-1.46614e-18 -5.05803e-19 -0.0148144)
(-1.36287e-18 -6.65424e-19 -0.0148294)
(-1.08083e-18 -5.10518e-19 -0.0148437)
(-1.42325e-18 -5.97004e-19 -0.0148573)
(-1.0977e-18 -8.78915e-19 -0.0148702)
(-1.38067e-18 -2.69036e-19 -0.0148824)
(-1.19017e-18 -5.11338e-19 -0.0148939)
(-9.58669e-19 -3.71665e-19 -0.0149046)
(-1.31036e-18 -4.65059e-19 -0.0149145)
(-9.91782e-19 -8.04529e-19 -0.0149236)
(-1.36325e-18 -5.40878e-19 -0.014932)
(-1.9036e-18 -5.81919e-19 -0.0149395)
(-2.22049e-18 -3.97279e-19 -0.0149462)
(-1.50168e-18 7.6131e-20 -0.0149521)
(-1.51782e-18 5.70307e-19 -0.0149572)
(-1.97732e-18 -8.6685e-20 -0.0149614)
(-1.74011e-18 -7.31322e-19 -0.0149648)
(-2.25711e-18 -1.04202e-19 -0.0149674)
(-1.93207e-18 9.86822e-19 -0.0149691)
(-2.00425e-18 2.80005e-19 -0.0149699)
(-3.70448e-18 -1.78094e-19 -0.0149699)
(-4.34391e-18 1.5567e-18 -0.0149691)
(-3.99058e-18 1.2783e-18 -0.0149674)
(-4.8548e-18 1.57737e-18 -0.0149648)
(-5.55283e-18 1.79773e-18 -0.0149614)
(-5.18263e-18 2.77434e-18 -0.0149572)
(-7.77088e-18 3.39476e-18 -0.0149521)
(-8.6385e-18 5.36681e-18 -0.0149462)
(-2.37284e-17 1.39904e-17 -0.0149395)
(-1.44339e-18 -2.19839e-20 -0.0146941)
(-1.6156e-18 -3.07968e-19 -0.0147123)
(-9.0309e-19 -4.29231e-19 -0.0147298)
(-1.29026e-18 -5.78806e-19 -0.0147468)
(-1.5404e-18 -7.97127e-19 -0.0147632)
(-1.47266e-18 -5.80762e-19 -0.014779)
(-1.40953e-18 -6.42731e-19 -0.0147941)
(-1.13143e-18 -3.1685e-19 -0.0148086)
(-1.53415e-18 -5.47646e-19 -0.0148224)
(-1.20503e-18 -4.38652e-19 -0.0148354)
(-1.48554e-18 1.1515e-19 -0.0148477)
(-1.25667e-18 -5.87591e-19 -0.0148593)
(-9.27757e-19 -3.71191e-19 -0.0148701)
(-1.41061e-18 -3.53855e-19 -0.0148801)
(-1.07094e-18 -4.0626e-19 -0.0148894)
(-1.39107e-18 -2.13635e-19 -0.0148978)
(-1.87348e-18 -5.10631e-19 -0.0149054)
(-2.12852e-18 -2.65852e-20 -0.0149122)
(-1.42205e-18 4.35204e-19 -0.0149182)
(-1.55072e-18 4.27546e-19 -0.0149233)
(-2.26931e-18 1.01142e-19 -0.0149276)
(-1.76772e-18 -5.68888e-19 -0.014931)
(-1.89498e-18 2.35021e-20 -0.0149336)
(-1.83806e-18 9.20352e-19 -0.0149353)
(-2.22465e-18 4.19494e-19 -0.0149362)
(-3.51269e-18 1.36887e-19 -0.0149362)
(-4.15021e-18 1.34445e-18 -0.0149353)
(-4.02685e-18 1.31771e-18 -0.0149336)
(-4.72806e-18 1.72794e-18 -0.014931)
(-5.29674e-18 2.50766e-18 -0.0149276)
(-4.99944e-18 3.20318e-18 -0.0149233)
(-7.22658e-18 4.1923e-18 -0.0149182)
(-7.09774e-18 6.6998e-18 -0.0149122)
(-1.57894e-17 1.32864e-17 -0.0149054)
(-1.15874e-18 -4.23386e-19 -0.0146576)
(-1.74334e-18 -2.87972e-19 -0.0146759)
(-1.04862e-18 -4.60604e-19 -0.0146936)
(-1.14401e-18 -8.53148e-19 -0.0147108)
(-1.52894e-18 -7.30364e-19 -0.0147273)
(-1.42277e-18 -6.37824e-19 -0.0147432)
(-1.45472e-18 -5.10496e-19 -0.0147585)
(-1.24545e-18 -7.09479e-20 -0.0147731)
(-1.61602e-18 -2.81592e-19 -0.014787)
(-1.35567e-18 3.4219e-19 -0.0148002)
(-1.74445e-18 5.56651e-19 -0.0148126)
(-1.48807e-18 -5.03285e-19 -0.0148243)
(-8.84966e-19 -3.41871e-19 -0.0148352)
(-1.41411e-18 -1.72801e-19 -0.0148453)
(-1.15302e-18 -3.20076e-20 -0.0148547)
(-1.45268e-18 -1.85662e-21 -0.0148632)
(-1.95072e-18 1.81854e-19 -0.0148709)
(-2.05805e-18 3.66468e-19 -0.0148778)
(-1.44476e-18 6.66704e-19 -0.0148838)
(-1.53904e-18 2.08874e-19 -0.014889)
(-2.42602e-18 3.74113e-19 -0.0148933)
(-1.85332e-18 -1.23775e-19 -0.0148968)
(-1.69371e-18 2.68382e-19 -0.0148994)
(-1.75098e-18 5.48648e-19 -0.0149011)
(-2.33064e-18 4.93156e-19 -0.014902)
(-3.42436e-18 3.01628e-19 -0.014902)
(-4.0082e-18 8.92895e-19 -0.0149011)
(-3.94867e-18 1.28467e-18 -0.0148994)
(-4.53197e-18 1.92792e-18 -0.0148968)
(-5.02343e-18 2.8706e-18 -0.0148933)
(-4.7127e-18 3.60331e-18 -0.014889)
(-6.54574e-18 4.86064e-18 -0.0148838)
(-5.86976e-18 7.77694e-18 -0.0148778)
(-1.1176e-17 1.17459e-17 -0.0148709)
(-1.00783e-18 -5.25302e-19 -0.0146208)
(-1.75337e-18 -2.48497e-19 -0.0146392)
(-1.12542e-18 -6.75288e-19 -0.014657)
(-1.1945e-18 -7.54447e-19 -0.0146743)
(-1.57127e-18 -5.56396e-19 -0.014691)
(-1.45693e-18 -5.82341e-19 -0.014707)
(-1.41488e-18 -3.75146e-19 -0.0147224)
(-1.22086e-18 6.96053e-20 -0.0147372)
(-1.63835e-18 4.08824e-20 -0.0147512)
(-1.38387e-18 8.10096e-19 -0.0147645)
(-1.93777e-18 5.05814e-19 -0.014777)
(-1.86825e-18 -2.29388e-19 -0.0147888)
(-9.30849e-19 -7.86598e-20 -0.0147999)
(-1.35352e-18 -1.14107e-19 -0.0148101)
(-1.11621e-18 -2.51285e-20 -0.0148195)
(-1.3062e-18 8.32179e-20 -0.0148281)
(-1.97352e-18 7.94196e-19 -0.0148359)
(-2.14023e-18 7.1779e-19 -0.0148429)
(-1.54547e-18 7.15594e-19 -0.0148489)
(-1.56378e-18 1.854e-19 -0.0148542)
(-2.44605e-18 4.81793e-19 -0.0148586)
(-1.90996e-18 1.11279e-19 -0.0148621)
(-1.65608e-18 3.88358e-19 -0.0148647)
(-1.71486e-18 3.57088e-19 -0.0148664)
(-2.33936e-18 6.10908e-19 -0.0148673)
(-3.43973e-18 4.9149e-19 -0.0148673)
(-3.88745e-18 8.50341e-19 -0.0148664)
(-3.72853e-18 1.35425e-18 -0.0148647)
(-4.25134e-18 2.08756e-18 -0.0148621)
(-4.73475e-18 3.13834e-18 -0.0148585)
(-4.41069e-18 3.80911e-18 -0.0148542)
(-5.75098e-18 5.25223e-18 -0.0148489)
(-4.93552e-18 8.41543e-18 -0.0148428)
(-8.40921e-18 1.05292e-17 -0.0148359)
(-1.04046e-18 -4.04895e-19 -0.0145836)
(-1.68125e-18 -4.8294e-19 -0.0146021)
(-1.30239e-18 -6.04812e-19 -0.0146201)
(-1.29959e-18 -3.82884e-19 -0.0146375)
(-1.62786e-18 -3.98084e-19 -0.0146543)
(-1.53754e-18 -4.40921e-19 -0.0146705)
(-1.45898e-18 -2.1325e-19 -0.014686)
(-1.06738e-18 -1.0666e-19 -0.0147008)
(-1.58259e-18 2.705e-19 -0.014715)
(-1.3181e-18 7.443e-19 -0.0147284)
(-1.81472e-18 -1.53368e-19 -0.0147411)
(-2.09823e-18 1.25318e-19 -0.014753)
(-1.17337e-18 4.26007e-19 -0.0147641)
(-1.38061e-18 -2.13779e-19 -0.0147744)
(-1.09613e-18 -4.48483e-20 -0.014784)
(-1.06874e-18 4.33981e-21 -0.0147926)
(-1.79719e-18 8.31607e-19 -0.0148005)
(-2.21892e-18 8.24506e-19 -0.0148075)
(-1.6427e-18 4.94489e-19 -0.0148137)
(-1.58472e-18 3.16013e-19 -0.0148189)
(-2.46043e-18 3.6414e-19 -0.0148234)
(-1.95103e-18 7.03378e-20 -0.0148269)
(-1.6052e-18 3.36873e-19 -0.0148296)
(-1.64363e-18 3.47296e-19 -0.0148313)
(-2.29837e-18 5.34412e-19 -0.0148322)
(-3.4126e-18 6.84324e-19 -0.0148322)
(-3.76093e-18 1.16293e-18 -0.0148313)
(-3.53446e-18 1.91298e-18 -0.0148296)
(-3.99557e-18 2.11931e-18 -0.0148269)
(-4.46674e-18 3.29799e-18 -0.0148234)
(-4.0943e-18 3.84331e-18 -0.0148189)
(-4.95277e-18 5.44765e-18 -0.0148137)
(-4.38352e-18 8.03647e-18 -0.0148075)
(-6.61224e-18 9.63503e-18 -0.0148005)
(-1.0395e-18 -4.74002e-19 -0.014546)
(-1.55669e-18 -6.09703e-19 -0.0145647)
(-1.44752e-18 -3.14951e-19 -0.0145828)
(-1.41169e-18 -1.77125e-19 -0.0146003)
(-1.7371e-18 -2.48005e-19 -0.0146172)
(-1.56928e-18 -3.92884e-19 -0.0146335)
(-1.62319e-18 1.67098e-20 -0.0146492)
(-9.42061e-19 -1.88112e-19 -0.0146642)
(-1.47358e-18 3.9561e-19 -0.0146784)
(-1.31785e-18 3.10315e-19 -0.0146919)
(-1.70804e-18 -4.89371e-19 -0.0147047)
(-2.04661e-18 4.93507e-19 -0.0147167)
(-1.42749e-18 7.49214e-19 -0.0147279)
(-1.52775e-18 -2.07484e-19 -0.0147384)
(-1.1615e-18 2.6936e-19 -0.014748)
(-9.45422e-19 1.99111e-19 -0.0147567)
(-1.58666e-18 7.72235e-19 -0.0147647)
(-2.27071e-18 6.42903e-19 -0.0147717)
(-1.69201e-18 2.39129e-19 -0.0147779)
(-1.61715e-18 5.71534e-19 -0.0147833)
(-2.51138e-18 1.80367e-19 -0.0147877)
(-1.9807e-18 2.52846e-19 -0.0147913)
(-1.55246e-18 3.38294e-19 -0.014794)
(-1.62279e-18 3.30203e-19 -0.0147958)
(-2.22267e-18 -7.47988e-20 -0.0147967)
(-3.28684e-18 6.02982e-19 -0.0147967)
(-3.50229e-18 1.26617e-18 -0.0147958)
(-3.40122e-18 2.28019e-18 -0.014794)
(-3.8925e-18 1.92056e-18 -0.0147913)
(-4.1779e-18 3.55415e-18 -0.0147877)
(-3.772e-18 3.86651e-18 -0.0147833)
(-4.35745e-18 5.52654e-18 -0.0147779)
(-4.0035e-18 7.29053e-18 -0.0147717)
(-5.13922e-18 9.1297e-18 -0.0147647)
(2.62846e-18 1.46123e-17 -0.0147567)
(-1.02423e-18 -5.28726e-19 -0.0145081)
(-1.63792e-18 -3.6902e-19 -0.0145269)
(-1.42863e-18 -2.95741e-19 -0.0145451)
(-1.41342e-18 -7.84523e-20 -0.0145628)
(-1.75212e-18 -2.92629e-19 -0.0145798)
(-1.55125e-18 -3.75186e-19 -0.0145962)
(-1.78934e-18 2.71968e-19 -0.014612)
(-1.02802e-18 -2.81266e-20 -0.0146271)
(-1.35953e-18 2.51896e-19 -0.0146415)
(-1.32917e-18 3.63464e-20 -0.0146551)
(-1.65301e-18 -2.36764e-19 -0.014668)
(-1.96541e-18 7.43014e-19 -0.0146801)
(-1.57831e-18 6.51122e-19 -0.0146914)
(-1.69256e-18 8.01166e-20 -0.0147019)
(-1.20016e-18 6.1151e-19 -0.0147116)
(-9.34644e-19 4.01098e-19 -0.0147204)
(-1.46132e-18 4.9473e-19 -0.0147284)
(-2.31112e-18 2.93309e-19 -0.0147356)
(-1.68466e-18 3.26187e-19 -0.0147418)
(-1.62863e-18 8.11215e-19 -0.0147472)
(-2.57586e-18 2.76466e-19 -0.0147517)
(-2.02041e-18 9.40758e-19 -0.0147553)
(-1.58296e-18 4.21216e-19 -0.014758)
(-1.77078e-18 3.23685e-19 -0.0147598)
(-2.19655e-18 -7.17659e-19 -0.0147607)
(-3.0059e-18 4.9535e-19 -0.0147607)
(-3.23419e-18 1.13364e-18 -0.0147598)
(-3.37823e-18 1.91034e-18 -0.014758)
(-3.71034e-18 1.56116e-18 -0.0147553)
(-3.83862e-18 3.59496e-18 -0.0147517)
(-3.51461e-18 3.8143e-18 -0.0147472)
(-3.92051e-18 5.25871e-18 -0.0147418)
(-3.59332e-18 6.86335e-18 -0.0147356)
(-3.84847e-18 8.81132e-18 -0.0147284)
(2.25821e-18 1.29556e-17 -0.0147204)
(-1.13564e-18 -3.44304e-19 -0.0144699)
(-1.71819e-18 -1.49561e-19 -0.0144888)
(-1.40383e-18 -3.83216e-19 -0.0145071)
(-1.42652e-18 -5.89866e-20 -0.0145249)
(-1.72173e-18 -4.50814e-19 -0.0145421)
(-1.43409e-18 -3.73336e-19 -0.0145586)
(-1.70975e-18 1.36999e-19 -0.0145745)
(-1.25642e-18 2.62127e-19 -0.0145896)
(-1.24886e-18 -1.08989e-21 -0.0146041)
(-1.39987e-18 1.40666e-19 -0.0146179)
(-1.58354e-18 -3.25673e-20 -0.0146308)
(-1.85014e-18 6.48072e-19 -0.014643)
(-1.63404e-18 4.88212e-19 -0.0146544)
(-1.82949e-18 5.31176e-19 -0.014665)
(-1.30435e-18 8.91456e-19 -0.0146748)
(-9.78473e-19 3.2296e-19 -0.0146837)
(-1.39112e-18 2.06167e-19 -0.0146918)
(-2.20454e-18 -9.89412e-21 -0.014699)
(-1.65448e-18 8.37096e-19 -0.0147053)
(-1.62007e-18 8.05875e-19 -0.0147107)
(-2.52879e-18 6.3837e-19 -0.0147153)
(-2.09895e-18 1.64763e-18 -0.0147189)
(-1.77836e-18 5.202e-19 -0.0147216)
(-2.00843e-18 3.14819e-19 -0.0147235)
(-2.16666e-18 -7.03945e-19 -0.0147244)
(-2.6975e-18 5.01452e-19 -0.0147244)
(-3.08432e-18 1.00087e-18 -0.0147235)
(-3.37405e-18 1.52028e-18 -0.0147216)
(-3.45495e-18 1.34086e-18 -0.0147189)
(-3.50192e-18 3.31181e-18 -0.0147153)
(-3.3261e-18 3.62342e-18 -0.0147107)
(-3.58116e-18 4.57002e-18 -0.0147053)
(-3.08398e-18 6.56008e-18 -0.014699)
(-2.95696e-18 8.00369e-18 -0.0146918)
(1.752e-18 1.1164e-17 -0.0146837)
(-1.25408e-18 4.45496e-20 -0.0144313)
(-1.8218e-18 -5.0034e-20 -0.0144503)
(-1.40613e-18 -4.49285e-19 -0.0144688)
(-1.37061e-18 -9.8948e-20 -0.0144867)
(-1.79968e-18 -4.4317e-19 -0.0145039)
(-1.3763e-18 -4.38359e-19 -0.0145206)
(-1.4625e-18 -1.31791e-19 -0.0145366)
(-1.38979e-18 4.29127e-19 -0.0145518)
(-1.25917e-18 -5.82951e-20 -0.0145664)
(-1.45434e-18 3.61293e-19 -0.0145803)
(-1.57609e-18 8.89685e-20 -0.0145933)
(-1.74274e-18 5.05084e-19 -0.0146056)
(-1.55779e-18 3.47339e-19 -0.0146171)
(-1.82472e-18 7.64058e-19 -0.0146278)
(-1.47805e-18 1.031e-18 -0.0146376)
(-1.11945e-18 2.75867e-19 -0.0146466)
(-1.41802e-18 2.30537e-19 -0.0146548)
(-2.03313e-18 -1.315e-21 -0.014662)
(-1.5743e-18 1.13857e-18 -0.0146684)
(-1.62289e-18 6.05808e-19 -0.0146739)
(-2.3439e-18 7.20707e-19 -0.0146784)
(-2.1561e-18 1.58261e-18 -0.0146821)
(-2.04849e-18 5.23607e-19 -0.0146848)
(-2.19278e-18 3.60083e-19 -0.0146867)
(-2.15284e-18 -2.27462e-19 -0.0146876)
(-2.46507e-18 6.52971e-19 -0.0146876)
(-2.95225e-18 1.08792e-18 -0.0146867)
(-3.35801e-18 1.5133e-18 -0.0146848)
(-3.19583e-18 1.36461e-18 -0.0146821)
(-3.21756e-18 2.83263e-18 -0.0146784)
(-3.22326e-18 3.44388e-18 -0.0146738)
(-3.22368e-18 3.96906e-18 -0.0146684)
(-2.67756e-18 6.10582e-18 -0.014662)
(-2.45373e-18 6.84859e-18 -0.0146547)
(-1.26055e-18 3.13621e-19 -0.0143924)
(-1.84751e-18 -1.47976e-19 -0.0144115)
(-1.53331e-18 -4.14851e-19 -0.0144301)
(-1.29535e-18 -1.60374e-19 -0.0144481)
(-1.8878e-18 -4.02173e-19 -0.0144655)
(-1.41211e-18 -4.37121e-19 -0.0144822)
(-1.35144e-18 -1.16114e-19 -0.0144983)
(-1.38258e-18 4.5813e-19 -0.0145137)
(-1.25594e-18 -5.35756e-20 -0.0145284)
(-1.46488e-18 4.44536e-19 -0.0145423)
(-1.53107e-18 -2.27878e-20 -0.0145555)
(-1.72833e-18 4.2703e-19 -0.0145679)
(-1.49508e-18 2.44491e-19 -0.0145794)
(-1.6803e-18 6.61738e-19 -0.0145902)
(-1.54687e-18 8.84113e-19 -0.0146001)
(-1.2724e-18 4.25003e-19 -0.0146092)
(-1.48888e-18 5.69385e-19 -0.0146173)
(-1.92152e-18 1.22146e-19 -0.0146247)
(-1.50265e-18 1.02605e-18 -0.0146311)
(-1.64434e-18 2.74761e-19 -0.0146366)
(-2.17566e-18 4.22705e-19 -0.0146412)
(-2.12547e-18 8.87741e-19 -0.0146449)
(-2.19861e-18 4.71121e-19 -0.0146477)
(-2.28503e-18 5.52828e-19 -0.0146495)
(-2.09791e-18 2.78501e-19 -0.0146504)
(-2.2872e-18 8.60701e-19 -0.0146504)
(-2.84859e-18 1.24263e-18 -0.0146495)
(-3.34731e-18 1.55196e-18 -0.0146477)
(-3.05062e-18 1.6332e-18 -0.0146449)
(-2.97167e-18 2.46358e-18 -0.0146412)
(-3.05678e-18 3.36696e-18 -0.0146366)
(-2.88088e-18 3.79514e-18 -0.0146311)
(-2.36692e-18 5.68478e-18 -0.0146246)
(-2.03643e-18 6.14404e-18 -0.0146173)
(-1.09261e-18 1.13429e-19 -0.0143532)
(-1.57271e-18 -6.57908e-19 -0.0143724)
(-1.62914e-18 -3.50751e-19 -0.0143911)
(-1.27463e-18 -1.51682e-19 -0.0144092)
(-1.98118e-18 -2.94113e-19 -0.0144267)
(-1.54759e-18 -2.29182e-19 -0.0144435)
(-1.25664e-18 -7.61554e-20 -0.0144597)
(-1.41142e-18 4.46106e-19 -0.0144752)
(-1.23021e-18 -1.47182e-19 -0.01449)
(-1.4736e-18 4.38627e-19 -0.014504)
(-1.50387e-18 -1.03216e-19 -0.0145173)
(-1.63914e-18 3.32939e-19 -0.0145297)
(-1.50961e-18 3.11439e-19 -0.0145414)
(-1.57299e-18 5.33305e-19 -0.0145522)
(-1.5042e-18 6.31386e-19 -0.0145622)
(-1.26288e-18 4.06656e-19 -0.0145713)
(-1.5672e-18 7.03054e-19 -0.0145796)
(-1.89589e-18 5.47117e-20 -0.0145869)
(-1.43787e-18 5.55503e-19 -0.0145934)
(-1.69621e-18 -1.51255e-20 -0.0145989)
(-2.09223e-18 2.96878e-19 -0.0146036)
(-2.05352e-18 3.8305e-19 -0.0146073)
(-2.17767e-18 4.87215e-19 -0.0146101)
(-2.28793e-18 5.62391e-19 -0.014612)
(-2.08021e-18 6.9441e-19 -0.0146129)
(-2.17706e-18 5.93909e-19 -0.0146129)
(-2.77615e-18 1.29882e-18 -0.014612)
(-3.31057e-18 1.32561e-18 -0.0146101)
(-2.90056e-18 1.90462e-18 -0.0146073)
(-2.7643e-18 2.35514e-18 -0.0146036)
(-2.86576e-18 3.33009e-18 -0.0145989)
(-2.55284e-18 3.70443e-18 -0.0145934)
(-2.12154e-18 5.2901e-18 -0.0145869)
(-1.72276e-18 5.83868e-18 -0.0145795)
(-1.04097e-18 -1.14256e-19 -0.0143137)
(-1.26592e-18 -1.04861e-18 -0.014333)
(-1.68818e-18 -1.05737e-19 -0.0143518)
(-1.31159e-18 -8.20295e-21 -0.01437)
(-1.86854e-18 -4.47977e-19 -0.0143876)
(-1.77729e-18 3.57589e-20 -0.0144045)
(-1.25248e-18 -1.19882e-20 -0.0144208)
(-1.45739e-18 5.30445e-19 -0.0144364)
(-1.38787e-18 2.12149e-19 -0.0144512)
(-1.4818e-18 5.20006e-19 -0.0144653)
(-1.60629e-18 6.50265e-20 -0.0144787)
(-1.63236e-18 4.21421e-19 -0.0144912)
(-1.62474e-18 7.11571e-19 -0.014503)
(-1.54639e-18 4.58916e-19 -0.0145139)
(-1.5288e-18 4.9766e-19 -0.0145239)
(-1.22498e-18 3.23001e-19 -0.0145331)
(-1.48245e-18 2.40039e-19 -0.0145414)
(-1.94014e-18 -8.88868e-20 -0.0145488)
(-1.37961e-18 1.09842e-19 -0.0145553)
(-1.66206e-18 4.87282e-20 -0.0145609)
(-2.05851e-18 5.1182e-19 -0.0145656)
(-2.03407e-18 3.68994e-19 -0.0145694)
(-2.16807e-18 5.54402e-19 -0.0145722)
(-2.24229e-18 4.98881e-19 -0.014574)
(-2.11283e-18 9.57879e-19 -0.014575)
(-2.12266e-18 3.15021e-19 -0.014575)
(-2.67058e-18 1.23317e-18 -0.014574)
(-3.25104e-18 1.07404e-18 -0.0145722)
(-2.74291e-18 1.86345e-18 -0.0145693)
(-2.60476e-18 2.13172e-18 -0.0145656)
(-2.6965e-18 3.19177e-18 -0.0145609)
(-2.30957e-18 3.64329e-18 -0.0145553)
(-1.88645e-18 4.87607e-18 -0.0145488)
(-1.45333e-18 5.41909e-18 -0.0145414)
(-1.22493e-18 -1.37798e-19 -0.0142739)
(-1.19506e-18 -1.03982e-18 -0.0142933)
(-1.553e-18 -5.16314e-20 -0.0143121)
(-1.38225e-18 -8.38519e-20 -0.0143304)
(-1.74155e-18 -5.95097e-19 -0.0143481)
(-1.83753e-18 2.56114e-19 -0.0143652)
(-1.39795e-18 3.31085e-19 -0.0143815)
(-1.35457e-18 4.80567e-19 -0.0143972)
(-1.54997e-18 5.31287e-19 -0.0144122)
(-1.57615e-18 5.72645e-19 -0.0144263)
(-1.61351e-18 6.99348e-20 -0.0144398)
(-1.53551e-18 4.96871e-19 -0.0144524)
(-1.73908e-18 9.1976e-19 -0.0144642)
(-1.64979e-18 4.54386e-19 -0.0144752)
(-1.58603e-18 6.02773e-19 -0.0144853)
(-1.38024e-18 5.29865e-19 -0.0144945)
(-1.49267e-18 8.80416e-21 -0.0145029)
(-1.91119e-18 -1.52354e-19 -0.0145104)
(-1.33369e-18 1.111e-19 -0.0145169)
(-1.5809e-18 3.08308e-19 -0.0145225)
(-2.03295e-18 6.88925e-19 -0.0145273)
(-2.06604e-18 5.18375e-19 -0.014531)
(-2.16458e-18 5.68226e-19 -0.0145339)
(-2.18632e-18 5.65472e-19 -0.0145358)
(-2.16059e-18 1.03115e-18 -0.0145367)
(-2.11145e-18 4.49546e-19 -0.0145367)
(-2.59728e-18 1.14171e-18 -0.0145358)
(-3.19569e-18 1.06403e-18 -0.0145339)
(-2.61959e-18 1.72432e-18 -0.014531)
(-2.44412e-18 1.9135e-18 -0.0145272)
(-2.48937e-18 2.89556e-18 -0.0145225)
(-2.07815e-18 3.51443e-18 -0.0145169)
(-1.71882e-18 4.67554e-18 -0.0145103)
(-1.15554e-18 -3.32935e-19 -0.0142337)
(-1.31666e-18 -8.88147e-19 -0.0142532)
(-1.35674e-18 -1.89091e-19 -0.0142722)
(-1.23512e-18 -3.30429e-19 -0.0142906)
(-1.69963e-18 -4.88823e-19 -0.0143083)
(-1.74976e-18 2.82219e-19 -0.0143255)
(-1.49997e-18 4.07899e-19 -0.0143419)
(-1.20686e-18 1.56322e-19 -0.0143577)
(-1.40913e-18 3.54623e-19 -0.0143727)