/*--------------------------------*- C++ -*----------------------------------*\
  =========                 |
  \\      /  F ield         | OpenFOAM: The Open Source CFD Toolbox
   \\    /   O peration     | Website:  https://openfoam.org
    \\  /    A nd           | Version:  7
     \\/     M anipulation  |
\*---------------------------------------------------------------------------*/
FoamFile
{
    version     2.0;
    format      ascii;
    class       volScalarField;
    location    "12000";
    object      nut;
}
// * * * * * * * * * * * * * * * * * * * * * * * * * * * * * * * * * * * * * //

dimensions      [0 2 -1 0 0 0 0];

internalField   nonuniform List<scalar> 
1745
(
2.47437e-05
2.47587e-05
2.47662e-05
2.47662e-05
2.47587e-05
2.47438e-05
2.47213e-05
2.46911e-05
2.37249e-05
2.38407e-05
2.39479e-05
2.40467e-05
2.41371e-05
2.4219e-05
2.42923e-05
2.43573e-05
2.44138e-05
2.44621e-05
2.45021e-05
2.45339e-05
2.45577e-05
2.45736e-05
2.45815e-05
2.45815e-05
2.45736e-05
2.45579e-05
2.45341e-05
2.45023e-05
2.44623e-05
2.34931e-05
2.3613e-05
2.37242e-05
2.38269e-05
2.3921e-05
2.40064e-05
2.40829e-05
2.41508e-05
2.421e-05
2.42605e-05
2.43024e-05
2.43358e-05
2.43609e-05
2.43775e-05
2.43858e-05
2.43858e-05
2.43775e-05
2.43609e-05
2.4336e-05
2.43026e-05
2.42607e-05
2.32525e-05
2.33764e-05
2.34914e-05
2.35978e-05
2.36954e-05
2.3784e-05
2.38636e-05
2.39343e-05
2.39959e-05
2.40486e-05
2.40923e-05
2.41272e-05
2.41534e-05
2.41708e-05
2.41795e-05
2.41795e-05
2.41708e-05
2.41535e-05
2.41274e-05
2.40925e-05
2.40488e-05
2.30036e-05
2.31311e-05
2.32498e-05
2.33597e-05
2.34606e-05
2.35523e-05
2.36348e-05
2.37081e-05
2.37721e-05
2.38268e-05
2.38722e-05
2.39086e-05
2.39357e-05
2.39539e-05
2.39629e-05
2.39629e-05
2.39539e-05
2.39358e-05
2.39086e-05
2.38724e-05
2.38269e-05
2.27467e-05
2.28777e-05
2.29998e-05
2.3113e-05
2.32169e-05
2.33116e-05
2.33968e-05
2.34725e-05
2.35387e-05
2.35954e-05
2.36425e-05
2.36801e-05
2.37083e-05
2.37271e-05
2.37365e-05
2.37365e-05
2.37271e-05
2.37084e-05
2.36802e-05
2.36426e-05
2.35955e-05
2.24821e-05
2.26164e-05
2.27417e-05
2.28579e-05
2.29648e-05
2.30622e-05
2.315e-05
2.32281e-05
2.32963e-05
2.33548e-05
2.34035e-05
2.34423e-05
2.34715e-05
2.34909e-05
2.35006e-05
2.35006e-05
2.34909e-05
2.34715e-05
2.34424e-05
2.34036e-05
2.33549e-05
2.22103e-05
2.23476e-05
2.24759e-05
2.2595e-05
2.27046e-05
2.28046e-05
2.28948e-05
2.2975e-05
2.30452e-05
2.31054e-05
2.31555e-05
2.31956e-05
2.32256e-05
2.32456e-05
2.32557e-05
2.32557e-05
2.32457e-05
2.32257e-05
2.31957e-05
2.31556e-05
2.31055e-05
2.30454e-05
2.19315e-05
2.20717e-05
2.22027e-05
2.23245e-05
2.24367e-05
2.25391e-05
2.26315e-05
2.27137e-05
2.27858e-05
2.28476e-05
2.2899e-05
2.29403e-05
2.29711e-05
2.29917e-05
2.3002e-05
2.3002e-05
2.29917e-05
2.29711e-05
2.29403e-05
2.28991e-05
2.28477e-05
2.2786e-05
2.16461e-05
2.17889e-05
2.19225e-05
2.20468e-05
2.21614e-05
2.2266e-05
2.23605e-05
2.24446e-05
2.25184e-05
2.25817e-05
2.26344e-05
2.26767e-05
2.27083e-05
2.27294e-05
2.274e-05
2.274e-05
2.27294e-05
2.27083e-05
2.26767e-05
2.26345e-05
2.25818e-05
2.25185e-05
2.24448e-05
2.23606e-05
2.22661e-05
2.21615e-05
2.2047e-05
2.19228e-05
2.17892e-05
2.16464e-05
2.13544e-05
2.14996e-05
2.16356e-05
2.17622e-05
2.1879e-05
2.19857e-05
2.20821e-05
2.2168e-05
2.22434e-05
2.23081e-05
2.2362e-05
2.24052e-05
2.24375e-05
2.24591e-05
2.247e-05
2.247e-05
2.24592e-05
2.24376e-05
2.24052e-05
2.2362e-05
2.23081e-05
2.22435e-05
2.21682e-05
2.20822e-05
2.19858e-05
2.18792e-05
2.17624e-05
2.16359e-05
2.14999e-05
2.13547e-05
2.10567e-05
2.12042e-05
2.13424e-05
2.14711e-05
2.15899e-05
2.16985e-05
2.17967e-05
2.18843e-05
2.19611e-05
2.20271e-05
2.20821e-05
2.21262e-05
2.21592e-05
2.21813e-05
2.21923e-05
2.21923e-05
2.21813e-05
2.21592e-05
2.21262e-05
2.20821e-05
2.20271e-05
2.19612e-05
2.18844e-05
2.17968e-05
2.16987e-05
2.15901e-05
2.14713e-05
2.13426e-05
2.12045e-05
2.1057e-05
2.07535e-05
2.0903e-05
2.10431e-05
2.11738e-05
2.12944e-05
2.14048e-05
2.15046e-05
2.15937e-05
2.16719e-05
2.17391e-05
2.17951e-05
2.184e-05
2.18737e-05
2.18962e-05
2.19074e-05
2.19074e-05
2.18962e-05
2.18737e-05
2.184e-05
2.17951e-05
2.17391e-05
2.1672e-05
2.15938e-05
2.15047e-05
2.1405e-05
2.12947e-05
2.1174e-05
2.10434e-05
2.09033e-05
2.07538e-05
2.0445e-05
2.05963e-05
2.07382e-05
2.08706e-05
2.09929e-05
2.11049e-05
2.12062e-05
2.12967e-05
2.13761e-05
2.14444e-05
2.15014e-05
2.1547e-05
2.15813e-05
2.16042e-05
2.16156e-05
2.16156e-05
2.16042e-05
2.15813e-05
2.1547e-05
2.15014e-05
2.14444e-05
2.13762e-05
2.12968e-05
2.12064e-05
2.11051e-05
2.09932e-05
2.08709e-05
2.07385e-05
2.05966e-05
2.04453e-05
2.01315e-05
2.02844e-05
2.0428e-05
2.05619e-05
2.06858e-05
2.07992e-05
2.09019e-05
2.09936e-05
2.10742e-05
2.11434e-05
2.12012e-05
2.12476e-05
2.12824e-05
2.13056e-05
2.13173e-05
2.13172e-05
2.13056e-05
2.12824e-05
2.12475e-05
2.12012e-05
2.11434e-05
2.10743e-05
2.09937e-05
2.0902e-05
2.07994e-05
2.0686e-05
2.05622e-05
2.04283e-05
2.02847e-05
2.01318e-05
1.98134e-05
1.99678e-05
2.01127e-05
2.0248e-05
2.03732e-05
2.04879e-05
2.05918e-05
2.06847e-05
2.07663e-05
2.08364e-05
2.0895e-05
2.0942e-05
2.09773e-05
2.10009e-05
2.10127e-05
2.10126e-05
2.10009e-05
2.09773e-05
2.0942e-05
2.0895e-05
2.08365e-05
2.07664e-05
2.06848e-05
2.0592e-05
2.04882e-05
2.03735e-05
2.02484e-05
2.0113e-05
1.99681e-05
1.98137e-05
1.9491e-05
1.96466e-05
1.97928e-05
1.99293e-05
2.00557e-05
2.01716e-05
2.02765e-05
2.03704e-05
2.04529e-05
2.05238e-05
2.05831e-05
2.06307e-05
2.06664e-05
2.06903e-05
2.07022e-05
2.07022e-05
2.06902e-05
2.06664e-05
2.06306e-05
2.05831e-05
2.05239e-05
2.0453e-05
2.03705e-05
2.02767e-05
2.01718e-05
2.0056e-05
1.99296e-05
1.97931e-05
1.96468e-05
1.94912e-05
1.91645e-05
1.93212e-05
1.94685e-05
1.96061e-05
1.97335e-05
1.98503e-05
1.99562e-05
2.0051e-05
2.01343e-05
2.02059e-05
2.02658e-05
2.03139e-05
2.03501e-05
2.03742e-05
2.03862e-05
2.03862e-05
2.03741e-05
2.035e-05
2.03139e-05
2.02658e-05
2.02059e-05
2.01343e-05
2.00511e-05
1.99564e-05
1.98505e-05
1.97337e-05
1.96063e-05
1.94688e-05
1.93214e-05
1.91648e-05
1.88344e-05
1.89919e-05
1.91401e-05
1.92786e-05
1.94068e-05
1.95246e-05
1.96313e-05
1.97268e-05
1.98108e-05
1.98831e-05
1.99435e-05
1.9992e-05
2.00285e-05
2.00529e-05
2.00651e-05
2.0065e-05
2.00528e-05
2.00285e-05
1.9992e-05
1.99435e-05
1.98831e-05
1.98108e-05
1.97269e-05
1.96314e-05
1.95247e-05
1.94071e-05
1.92788e-05
1.91404e-05
1.89922e-05
1.88346e-05
1.85009e-05
1.86591e-05
1.8808e-05
1.89472e-05
1.90762e-05
1.91946e-05
1.9302e-05
1.93981e-05
1.94827e-05
1.95556e-05
1.96165e-05
1.96654e-05
1.97022e-05
1.97267e-05
1.9739e-05
1.9739e-05
1.97267e-05
1.97021e-05
1.96653e-05
1.96165e-05
1.95556e-05
1.94828e-05
1.93982e-05
1.93021e-05
1.91948e-05
1.90764e-05
1.89475e-05
1.88082e-05
1.86593e-05
1.85011e-05
1.81643e-05
1.8323e-05
1.84724e-05
1.86122e-05
1.87417e-05
1.88607e-05
1.89687e-05
1.90653e-05
1.91504e-05
1.92238e-05
1.92851e-05
1.93343e-05
1.93713e-05
1.93961e-05
1.94084e-05
1.94084e-05
1.9396e-05
1.93713e-05
1.93343e-05
1.92851e-05
1.92238e-05
1.91505e-05
1.90655e-05
1.89688e-05
1.88609e-05
1.8742e-05
1.86124e-05
1.84727e-05
1.83232e-05
1.81644e-05
1.78248e-05
1.79839e-05
1.81337e-05
1.82739e-05
1.84039e-05
1.85233e-05
1.86317e-05
1.87288e-05
1.88143e-05
1.8888e-05
1.89496e-05
1.89991e-05
1.90363e-05
1.90612e-05
1.90737e-05
1.90736e-05
1.90611e-05
1.90363e-05
1.89991e-05
1.89496e-05
1.8888e-05
1.88144e-05
1.87289e-05
1.86318e-05
1.85235e-05
1.84041e-05
1.82741e-05
1.81339e-05
1.79841e-05
1.7825e-05
1.74829e-05
1.76422e-05
1.77922e-05
1.79326e-05
1.80629e-05
1.81826e-05
1.82913e-05
1.83887e-05
1.84745e-05
1.85485e-05
1.86104e-05
1.86601e-05
1.86975e-05
1.87225e-05
1.8735e-05
1.8735e-05
1.87224e-05
1.86974e-05
1.86601e-05
1.86104e-05
1.85485e-05
1.84746e-05
1.83888e-05
1.82914e-05
1.81827e-05
1.80631e-05
1.79328e-05
1.77924e-05
1.76424e-05
1.74831e-05
1.71387e-05
1.7298e-05
1.74481e-05
1.75886e-05
1.7719e-05
1.78389e-05
1.79478e-05
1.80454e-05
1.81314e-05
1.82056e-05
1.82678e-05
1.83177e-05
1.83552e-05
1.83802e-05
1.83928e-05
1.83927e-05
1.83801e-05
1.83551e-05
1.83176e-05
1.82677e-05
1.82057e-05
1.81315e-05
1.80455e-05
1.79479e-05
1.78391e-05
1.77193e-05
1.75888e-05
1.74483e-05
1.72982e-05
1.71389e-05
1.67926e-05
1.69517e-05
1.71018e-05
1.72422e-05
1.73726e-05
1.74925e-05
1.76015e-05
1.76992e-05
1.77854e-05
1.78597e-05
1.7922e-05
1.7972e-05
1.80096e-05
1.80347e-05
1.80473e-05
1.80473e-05
1.80346e-05
1.80095e-05
1.79719e-05
1.79219e-05
1.78598e-05
1.77855e-05
1.76994e-05
1.76017e-05
1.74927e-05
1.73729e-05
1.72425e-05
1.71019e-05
1.69519e-05
1.67928e-05
1.64448e-05
1.66037e-05
1.67534e-05
1.68937e-05
1.7024e-05
1.71438e-05
1.72528e-05
1.73505e-05
1.74367e-05
1.75111e-05
1.75734e-05
1.76235e-05
1.76611e-05
1.76863e-05
1.76988e-05
1.76988e-05
1.76862e-05
1.7661e-05
1.76233e-05
1.75733e-05
1.75111e-05
1.74368e-05
1.73506e-05
1.72529e-05
1.7144e-05
1.70242e-05
1.68939e-05
1.67536e-05
1.66038e-05
1.6445e-05
1.60956e-05
1.6254e-05
1.64034e-05
1.65434e-05
1.66734e-05
1.6793e-05
1.69018e-05
1.69994e-05
1.70856e-05
1.716e-05
1.72223e-05
1.72724e-05
1.731e-05
1.73352e-05
1.73478e-05
1.73477e-05
1.73351e-05
1.73099e-05
1.72722e-05
1.72222e-05
1.716e-05
1.70857e-05
1.69996e-05
1.6902e-05
1.67932e-05
1.66736e-05
1.65436e-05
1.64036e-05
1.62542e-05
1.60958e-05
1.57453e-05
1.59031e-05
1.60519e-05
1.61915e-05
1.63211e-05
1.64404e-05
1.6549e-05
1.66464e-05
1.67324e-05
1.68067e-05
1.6869e-05
1.6919e-05
1.69566e-05
1.69818e-05
1.69943e-05
1.69943e-05
1.69816e-05
1.69565e-05
1.69188e-05
1.68689e-05
1.68067e-05
1.67325e-05
1.66466e-05
1.65491e-05
1.64405e-05
1.63213e-05
1.61916e-05
1.60521e-05
1.59033e-05
1.57455e-05
1.53941e-05
1.55511e-05
1.56993e-05
1.58382e-05
1.59674e-05
1.60863e-05
1.61945e-05
1.62916e-05
1.63774e-05
1.64515e-05
1.65137e-05
1.65636e-05
1.66012e-05
1.66263e-05
1.66388e-05
1.66388e-05
1.66262e-05
1.6601e-05
1.65635e-05
1.65136e-05
1.64515e-05
1.63775e-05
1.62918e-05
1.61946e-05
1.60864e-05
1.59676e-05
1.58384e-05
1.56995e-05
1.55513e-05
1.53942e-05
1.50422e-05
1.51984e-05
1.53458e-05
1.5484e-05
1.56125e-05
1.57309e-05
1.58386e-05
1.59354e-05
1.60209e-05
1.60948e-05
1.61567e-05
1.62065e-05
1.6244e-05
1.62691e-05
1.62816e-05
1.62815e-05
1.62689e-05
1.62439e-05
1.62064e-05
1.61566e-05
1.60948e-05
1.6021e-05
1.59356e-05
1.58388e-05
1.5731e-05
1.56127e-05
1.54841e-05
1.53459e-05
1.51985e-05
1.50424e-05
1.469e-05
1.48452e-05
1.49916e-05
1.5129e-05
1.52567e-05
1.53745e-05
1.54817e-05
1.5578e-05
1.56631e-05
1.57367e-05
1.57984e-05
1.5848e-05
1.58854e-05
1.59103e-05
1.59228e-05
1.59227e-05
1.59102e-05
1.58852e-05
1.58479e-05
1.57983e-05
1.57367e-05
1.56632e-05
1.55782e-05
1.54818e-05
1.53746e-05
1.52569e-05
1.51291e-05
1.49917e-05
1.48453e-05
1.46901e-05
1.43376e-05
1.44916e-05
1.4637e-05
1.47734e-05
1.49003e-05
1.50173e-05
1.51239e-05
1.52197e-05
1.53044e-05
1.53776e-05
1.5439e-05
1.54884e-05
1.55255e-05
1.55504e-05
1.55628e-05
1.55627e-05
1.55503e-05
1.55254e-05
1.54882e-05
1.54389e-05
1.53776e-05
1.53045e-05
1.52199e-05
1.5124e-05
1.50175e-05
1.49005e-05
1.47735e-05
1.46372e-05
1.44917e-05
1.43377e-05
1.39853e-05
1.41381e-05
1.42823e-05
1.44176e-05
1.45436e-05
1.46597e-05
1.47656e-05
1.48608e-05
1.49449e-05
1.50177e-05
1.50787e-05
1.51278e-05
1.51648e-05
1.51895e-05
1.52019e-05
1.52018e-05
1.51894e-05
1.51647e-05
1.51277e-05
1.50786e-05
1.50176e-05
1.4945e-05
1.48609e-05
1.47657e-05
1.46598e-05
1.45437e-05
1.44177e-05
1.42824e-05
1.41382e-05
1.39854e-05
1.36334e-05
1.37847e-05
1.39276e-05
1.40618e-05
1.41866e-05
1.43019e-05
1.44069e-05
1.45014e-05
1.45849e-05
1.46572e-05
1.47179e-05
1.47666e-05
1.48034e-05
1.48279e-05
1.48402e-05
1.48401e-05
1.48278e-05
1.48032e-05
1.47665e-05
1.47177e-05
1.46572e-05
1.4585e-05
1.45015e-05
1.4407e-05
1.4302e-05
1.41868e-05
1.40619e-05
1.39277e-05
1.37848e-05
1.36335e-05
1.32819e-05
1.34318e-05
1.35733e-05
1.37061e-05
1.38298e-05
1.3944e-05
1.40482e-05
1.41419e-05
1.42247e-05
1.42965e-05
1.43567e-05
1.44051e-05
1.44415e-05
1.44659e-05
1.44782e-05
1.44781e-05
1.44659e-05
1.44414e-05
1.4405e-05
1.43565e-05
1.42964e-05
1.42248e-05
1.29313e-05
1.30794e-05
1.32194e-05
1.33509e-05
1.34734e-05
1.35864e-05
1.36896e-05
1.37824e-05
1.38646e-05
1.39357e-05
1.39954e-05
1.40434e-05
1.40796e-05
1.41038e-05
1.41159e-05
1.41158e-05
1.41037e-05
1.40795e-05
1.40433e-05
1.39953e-05
1.39357e-05
1.38647e-05
1.25815e-05
1.2728e-05
1.28664e-05
1.29963e-05
1.31175e-05
1.32293e-05
1.33314e-05
1.34233e-05
1.35047e-05
1.35751e-05
1.36343e-05
1.36819e-05
1.37177e-05
1.37417e-05
1.37537e-05
1.2233e-05
1.23776e-05
1.25143e-05
1.26426e-05
1.27623e-05
1.28729e-05
1.29739e-05
1.30648e-05
1.31453e-05
1.3215e-05
1.32735e-05
1.33207e-05
2.42923e-05
2.42189e-05
2.4137e-05
2.40467e-05
2.39479e-05
2.38408e-05
2.37249e-05
2.42605e-05
2.421e-05
2.41508e-05
2.40829e-05
2.40063e-05
2.3921e-05
2.38269e-05
2.37242e-05
2.3613e-05
2.34931e-05
2.40486e-05
2.39959e-05
2.39343e-05
2.38636e-05
2.3784e-05
2.36953e-05
2.35978e-05
2.34914e-05
2.33764e-05
2.32525e-05
2.38267e-05
2.3772e-05
2.3708e-05
2.36348e-05
2.35523e-05
2.34605e-05
2.33597e-05
2.32498e-05
2.31312e-05
2.30036e-05
2.35953e-05
2.35387e-05
2.34725e-05
2.33968e-05
2.33115e-05
2.32169e-05
2.31129e-05
2.29998e-05
2.28777e-05
2.27467e-05
2.33548e-05
2.32963e-05
2.3228e-05
2.31499e-05
2.30622e-05
2.29648e-05
2.28579e-05
2.27417e-05
2.26164e-05
2.24821e-05
2.31054e-05
2.30452e-05
2.29749e-05
2.28947e-05
2.28045e-05
2.27046e-05
2.2595e-05
2.24759e-05
2.23477e-05
2.22103e-05
2.28475e-05
2.27858e-05
2.27137e-05
2.26314e-05
2.2539e-05
2.24367e-05
2.23245e-05
2.22027e-05
2.20717e-05
2.19315e-05
2.25816e-05
2.25184e-05
2.24446e-05
2.23604e-05
2.22659e-05
2.21613e-05
2.20468e-05
2.19225e-05
2.17889e-05
2.16461e-05
2.2308e-05
2.22434e-05
2.2168e-05
2.2082e-05
2.19856e-05
2.1879e-05
2.17622e-05
2.16356e-05
2.14997e-05
2.13544e-05
2.2027e-05
2.19611e-05
2.18842e-05
2.17966e-05
2.16985e-05
2.15899e-05
2.14711e-05
2.13424e-05
2.12043e-05
2.10568e-05
2.1739e-05
2.16719e-05
2.15937e-05
2.15046e-05
2.14048e-05
2.12945e-05
2.11738e-05
2.10432e-05
2.0903e-05
2.07535e-05
2.14443e-05
2.13761e-05
2.12967e-05
2.12062e-05
2.11049e-05
2.0993e-05
2.08707e-05
2.07383e-05
2.05964e-05
2.0445e-05
2.11433e-05
2.10741e-05
2.09936e-05
2.09019e-05
2.07992e-05
2.06859e-05
2.05621e-05
2.04281e-05
2.02845e-05
2.01315e-05
2.08364e-05
2.07663e-05
2.06847e-05
2.05919e-05
2.0488e-05
2.03734e-05
2.02482e-05
2.01128e-05
1.99678e-05
1.98134e-05
2.05238e-05
2.04529e-05
2.03704e-05
2.02765e-05
2.01716e-05
2.00559e-05
1.99295e-05
1.97929e-05
1.96466e-05
1.9491e-05
2.02059e-05
2.01342e-05
2.0051e-05
1.99563e-05
1.98504e-05
1.97336e-05
1.96062e-05
1.94686e-05
1.93212e-05
1.91645e-05
1.9883e-05
1.98107e-05
1.97268e-05
1.96313e-05
1.95246e-05
1.9407e-05
1.92787e-05
1.91402e-05
1.8992e-05
1.88344e-05
1.95555e-05
1.94827e-05
1.93981e-05
1.9302e-05
1.91946e-05
1.90763e-05
1.89473e-05
1.88081e-05
1.86591e-05
1.85009e-05
1.92237e-05
1.91505e-05
1.90654e-05
1.89687e-05
1.88608e-05
1.87419e-05
1.86123e-05
1.84725e-05
1.8323e-05
1.81642e-05
1.88879e-05
1.88143e-05
1.87288e-05
1.86317e-05
1.85234e-05
1.8404e-05
1.8274e-05
1.81338e-05
1.7984e-05
1.78248e-05
1.85485e-05
1.84745e-05
1.83887e-05
1.82913e-05
1.81827e-05
1.8063e-05
1.79327e-05
1.77923e-05
1.76422e-05
1.74829e-05
1.82056e-05
1.81315e-05
1.80455e-05
1.79478e-05
1.7839e-05
1.77192e-05
1.75887e-05
1.74482e-05
1.72981e-05
1.71387e-05
1.78597e-05
1.77854e-05
1.76993e-05
1.76016e-05
1.74927e-05
1.73728e-05
1.72423e-05
1.71018e-05
1.69518e-05
1.67926e-05
1.75111e-05
1.74367e-05
1.73506e-05
1.72528e-05
1.71439e-05
1.70241e-05
1.68938e-05
1.67535e-05
1.66037e-05
1.64448e-05
1.716e-05
1.70856e-05
1.69995e-05
1.69019e-05
1.67931e-05
1.66735e-05
1.65435e-05
1.64035e-05
1.62541e-05
1.60957e-05
1.68067e-05
1.67325e-05
1.66465e-05
1.65491e-05
1.64405e-05
1.63212e-05
1.61916e-05
1.6052e-05
1.59032e-05
1.57453e-05
1.64515e-05
1.63775e-05
1.62917e-05
1.61946e-05
1.60863e-05
1.59675e-05
1.58383e-05
1.56994e-05
1.55512e-05
1.53941e-05
1.60947e-05
1.60209e-05
1.59355e-05
1.58387e-05
1.57309e-05
1.56126e-05
1.54841e-05
1.53458e-05
1.51984e-05
1.50423e-05
1.57366e-05
1.56632e-05
1.55781e-05
1.54818e-05
1.53745e-05
1.52568e-05
1.5129e-05
1.49917e-05
1.48452e-05
1.469e-05
1.53775e-05
1.53044e-05
1.52198e-05
1.5124e-05
1.50174e-05
1.49004e-05
1.47735e-05
1.46371e-05
1.44917e-05
1.43376e-05
1.50176e-05
1.49449e-05
1.48608e-05
1.47656e-05
1.46598e-05
1.45437e-05
1.44177e-05
1.42823e-05
1.41381e-05
1.39853e-05
1.46571e-05
1.4585e-05
1.45015e-05
1.4407e-05
1.4302e-05
1.41867e-05
1.40618e-05
1.39277e-05
1.37847e-05
1.36334e-05
1.42964e-05
1.42248e-05
1.41419e-05
1.40482e-05
1.39441e-05
1.38299e-05
1.37062e-05
1.35733e-05
1.34318e-05
1.32819e-05
1.39356e-05
1.38646e-05
1.37825e-05
1.36897e-05
1.35865e-05
1.34735e-05
1.33509e-05
1.32195e-05
1.30794e-05
1.29313e-05
1.3575e-05
1.35047e-05
1.34234e-05
1.33315e-05
1.32294e-05
1.31175e-05
1.29964e-05
1.28664e-05
1.2728e-05
1.25815e-05
1.32149e-05
1.31453e-05
1.30649e-05
1.29739e-05
1.2873e-05
1.27624e-05
1.26427e-05
1.25143e-05
1.23776e-05
1.2233e-05
2.16159e-05
2.13175e-05
2.1013e-05
2.07025e-05
2.03865e-05
2.00653e-05
1.97393e-05
1.94087e-05
1.90739e-05
1.87353e-05
1.83931e-05
1.80476e-05
1.76991e-05
1.7348e-05
1.69946e-05
1.66391e-05
1.62818e-05
1.5923e-05
1.5563e-05
1.5202e-05
1.48403e-05
2.16159e-05
2.13175e-05
2.10129e-05
2.07025e-05
2.03865e-05
2.00653e-05
1.97393e-05
1.94087e-05
1.90739e-05
1.87353e-05
1.83931e-05
1.80476e-05
1.76991e-05
1.7348e-05
1.69946e-05
1.66391e-05
1.62818e-05
1.5923e-05
1.5563e-05
1.5202e-05
1.48403e-05
2.16044e-05
2.13059e-05
2.10011e-05
2.06905e-05
2.03744e-05
2.00531e-05
1.9727e-05
1.93963e-05
1.90615e-05
1.87228e-05
1.83805e-05
1.8035e-05
1.76866e-05
1.73354e-05
1.6982e-05
1.66265e-05
1.62693e-05
1.59105e-05
1.55506e-05
1.51897e-05
1.48281e-05
2.15816e-05
2.12827e-05
2.09776e-05
2.06667e-05
2.03503e-05
2.00288e-05
1.97024e-05
1.93716e-05
1.90366e-05
1.86978e-05
1.83554e-05
1.80099e-05
1.76614e-05
1.73103e-05
1.69569e-05
1.66014e-05
1.62442e-05
1.58856e-05
1.55257e-05
1.5165e-05
1.48035e-05
2.15474e-05
2.12479e-05
2.09423e-05
2.0631e-05
2.03142e-05
1.99923e-05
1.96657e-05
1.93346e-05
1.89994e-05
1.86604e-05
1.83179e-05
1.79723e-05
1.76237e-05
1.72726e-05
1.69192e-05
1.65638e-05
1.62067e-05
1.58482e-05
1.54885e-05
1.51279e-05
1.47667e-05
2.23623e-05
2.20824e-05
2.17954e-05
2.15017e-05
2.12015e-05
2.08953e-05
2.05834e-05
2.02661e-05
1.99438e-05
1.96168e-05
1.92854e-05
1.89499e-05
1.86107e-05
1.8268e-05
1.79222e-05
1.75736e-05
1.72225e-05
1.68692e-05
1.65139e-05
1.6157e-05
1.57986e-05
1.54392e-05
1.50789e-05
1.4718e-05
2.2582e-05
2.23084e-05
2.20274e-05
2.17394e-05
2.14447e-05
2.11437e-05
2.08367e-05
2.05241e-05
2.02062e-05
1.98833e-05
1.95558e-05
1.9224e-05
1.88882e-05
1.85487e-05
1.82059e-05
1.78599e-05
1.75113e-05
1.71602e-05
1.68069e-05
1.64517e-05
1.6095e-05
1.57369e-05
1.53778e-05
1.50178e-05
1.46574e-05
2.25187e-05
2.22437e-05
2.19614e-05
2.16722e-05
2.13764e-05
2.10744e-05
2.07665e-05
2.04531e-05
2.01345e-05
1.9811e-05
1.94829e-05
1.91507e-05
1.88145e-05
1.84747e-05
1.81316e-05
1.77856e-05
1.74369e-05
1.70858e-05
1.67326e-05
1.63776e-05
1.60211e-05
1.56633e-05
1.53046e-05
1.49451e-05
1.45851e-05
2.2445e-05
2.21684e-05
2.18846e-05
2.1594e-05
2.1297e-05
2.09938e-05
2.0685e-05
2.03706e-05
2.00512e-05
1.9727e-05
1.93983e-05
1.90656e-05
1.8729e-05
1.83889e-05
1.80457e-05
1.76995e-05
1.73508e-05
1.69997e-05
1.66467e-05
1.62919e-05
1.59356e-05
1.55782e-05
1.52199e-05
1.4861e-05
1.45016e-05
2.23608e-05
2.20825e-05
2.1797e-05
2.1505e-05
2.12066e-05
2.09022e-05
2.05921e-05
2.02768e-05
1.99565e-05
1.96315e-05
1.93023e-05
1.8969e-05
1.8632e-05
1.82916e-05
1.79481e-05
1.76018e-05
1.72531e-05
1.69021e-05
1.65492e-05
1.61947e-05
1.58388e-05
1.54819e-05
1.51241e-05
1.47658e-05
1.44071e-05
2.22663e-05
2.1986e-05
2.16989e-05
2.14051e-05
2.11052e-05
2.07995e-05
2.04883e-05
2.01719e-05
1.98506e-05
1.95248e-05
1.91949e-05
1.8861e-05
1.85236e-05
1.81829e-05
1.78392e-05
1.74928e-05
1.71441e-05
1.67933e-05
1.64407e-05
1.60865e-05
1.57311e-05
1.53746e-05
1.50175e-05
1.46599e-05
1.4302e-05
2.21617e-05
2.18793e-05
2.15902e-05
2.12947e-05
2.09932e-05
2.06861e-05
2.03736e-05
2.0056e-05
1.97338e-05
1.94071e-05
1.90764e-05
1.8742e-05
1.84041e-05
1.80631e-05
1.77193e-05
1.73729e-05
1.70242e-05
1.66736e-05
1.63213e-05
1.59676e-05
1.56127e-05
1.52569e-05
1.49005e-05
1.45437e-05
1.41868e-05
2.20471e-05
2.17625e-05
2.14714e-05
2.11741e-05
2.08709e-05
2.05622e-05
2.02483e-05
1.99296e-05
1.96064e-05
1.92789e-05
1.89474e-05
1.86124e-05
1.82741e-05
1.79328e-05
1.75889e-05
1.72424e-05
1.68939e-05
1.65435e-05
1.61916e-05
1.58384e-05
1.54841e-05
1.51291e-05
1.47735e-05
1.44177e-05
1.40619e-05
2.19228e-05
2.1636e-05
2.13427e-05
2.10435e-05
2.07385e-05
2.04283e-05
2.0113e-05
1.97931e-05
1.94688e-05
1.91404e-05
1.88082e-05
1.84727e-05
1.8134e-05
1.77924e-05
1.74483e-05
1.71019e-05
1.67536e-05
1.64035e-05
1.60521e-05
1.56994e-05
1.53459e-05
1.49917e-05
1.46371e-05
1.42823e-05
1.39277e-05
2.17892e-05
2.14999e-05
2.12045e-05
2.09033e-05
2.05966e-05
2.02848e-05
1.99681e-05
1.96469e-05
1.93215e-05
1.89922e-05
1.86594e-05
1.83232e-05
1.79841e-05
1.76424e-05
1.72982e-05
1.69519e-05
1.66038e-05
1.62541e-05
1.59032e-05
1.55512e-05
1.51985e-05
1.48452e-05
1.44917e-05
1.41381e-05
1.37847e-05
2.16464e-05
2.13547e-05
2.10571e-05
2.07538e-05
2.04453e-05
2.01318e-05
1.98137e-05
1.94913e-05
1.91648e-05
1.88347e-05
1.85011e-05
1.81645e-05
1.7825e-05
1.74831e-05
1.71389e-05
1.67928e-05
1.6445e-05
1.60958e-05
1.57454e-05
1.53942e-05
1.50424e-05
1.46901e-05
1.43377e-05
1.39854e-05
1.36334e-05
)
;

boundaryField
{
    inlet
    {
        type            cyclic;
    }
    outlet
    {
        type            cyclic;
    }
    wall
    {
        type            fixedValue;
        value           nonuniform 0();
    }
    procBoundary5to1
    {
        type            processor;
        value           nonuniform List<scalar> 10(1.44782e-05 1.44782e-05 1.44661e-05 1.44417e-05 1.44052e-05 1.43568e-05 1.42966e-05 1.42249e-05 1.41421e-05 1.40483e-05);
    }
    procBoundary5to2
    {
        type            processor;
        value           nonuniform List<scalar> 
28
(
1.4142e-05
1.40483e-05
1.39441e-05
1.383e-05
1.37062e-05
1.35734e-05
1.34318e-05
1.3282e-05
1.4142e-05
1.37536e-05
1.37416e-05
1.37176e-05
1.36817e-05
1.36341e-05
1.35751e-05
1.37826e-05
1.35048e-05
1.33562e-05
1.33799e-05
1.37536e-05
1.33918e-05
1.33562e-05
1.39441e-05
1.383e-05
1.37062e-05
1.35733e-05
1.34318e-05
1.3282e-05
)
;
    }
    procBoundary5to3
    {
        type            processor;
        value           nonuniform List<scalar> 
22
(
1.18858e-05
1.20285e-05
1.21633e-05
1.229e-05
1.24082e-05
1.25174e-05
1.26172e-05
1.2707e-05
1.27866e-05
1.28555e-05
1.29134e-05
1.296e-05
1.28555e-05
1.27866e-05
1.27071e-05
1.26172e-05
1.25175e-05
1.24083e-05
1.22901e-05
1.21634e-05
1.20285e-05
1.18858e-05
)
;
    }
    procBoundary5to4
    {
        type            processor;
        value           nonuniform List<scalar> 
55
(
2.43024e-05
2.40923e-05
2.38722e-05
2.36425e-05
2.34034e-05
2.31555e-05
2.2899e-05
2.26344e-05
2.23619e-05
2.2082e-05
2.1795e-05
2.15013e-05
2.12011e-05
2.08949e-05
2.0583e-05
2.02658e-05
1.99435e-05
1.96164e-05
1.9285e-05
1.89496e-05
1.86103e-05
1.82677e-05
1.79219e-05
1.75733e-05
1.72222e-05
1.68688e-05
1.65135e-05
1.61566e-05
1.57982e-05
1.54388e-05
1.50785e-05
1.47177e-05
1.43565e-05
1.39952e-05
1.36341e-05
1.32734e-05
2.10011e-05
2.06905e-05
2.03744e-05
2.00531e-05
1.9727e-05
1.93963e-05
1.90615e-05
1.87227e-05
1.83805e-05
1.80349e-05
1.76865e-05
1.73354e-05
1.69819e-05
1.66264e-05
1.62692e-05
1.59104e-05
1.55505e-05
1.51896e-05
1.4828e-05
)
;
    }
    procBoundary5to6
    {
        type            processor;
        value           nonuniform List<scalar> 
31
(
2.49182e-05
2.49324e-05
2.49394e-05
2.49394e-05
2.49324e-05
2.49184e-05
2.48971e-05
2.39478e-05
2.40591e-05
2.4162e-05
2.42567e-05
2.43432e-05
2.44214e-05
2.44914e-05
2.45533e-05
2.46071e-05
2.46529e-05
2.46909e-05
2.47211e-05
2.47211e-05
2.44914e-05
2.44214e-05
2.43432e-05
2.42567e-05
2.4162e-05
2.40592e-05
2.39478e-05
2.44621e-05
2.44138e-05
2.43573e-05
2.43573e-05
)
;
    }
    procBoundary5to7
    {
        type            processor;
        value           nonuniform List<scalar> 
42
(
2.48687e-05
2.46531e-05
2.46531e-05
2.4414e-05
2.42102e-05
2.39961e-05
2.37722e-05
2.35389e-05
2.32965e-05
2.32965e-05
2.29751e-05
2.27139e-05
2.27139e-05
2.26316e-05
2.25392e-05
2.24369e-05
2.23247e-05
2.2203e-05
2.2072e-05
2.19318e-05
2.16044e-05
2.13059e-05
2.19077e-05
2.19077e-05
2.18964e-05
2.1874e-05
2.24055e-05
2.21265e-05
2.18403e-05
2.18403e-05
2.26348e-05
2.26348e-05
2.2848e-05
2.27861e-05
2.27141e-05
2.26318e-05
2.25394e-05
2.2437e-05
2.23248e-05
2.2203e-05
2.2072e-05
2.19318e-05
)
;
    }
}


// ************************************************************************* //
