/*--------------------------------*- C++ -*----------------------------------*\
  =========                 |
  \\      /  F ield         | OpenFOAM: The Open Source CFD Toolbox
   \\    /   O peration     | Website:  https://openfoam.org
    \\  /    A nd           | Version:  7
     \\/     M anipulation  |
\*---------------------------------------------------------------------------*/
FoamFile
{
    version     2.0;
    format      ascii;
    class       volScalarField;
    location    "16000";
    object      strainRate;
}
// * * * * * * * * * * * * * * * * * * * * * * * * * * * * * * * * * * * * * //

dimensions      [0 0 -1 0 0 0 0];

internalField   nonuniform List<scalar> 
4844
(
0.00732931
0.00737001
0.00741462
0.00749386
0.00753496
0.00758
0.00762892
0.00768168
0.00773817
0.00779832
0.00786202
0.00766041
0.00770193
0.00774745
0.00779689
0.00785021
0.00790729
0.00796807
0.00803243
0.00810032
0.00817169
0.00824636
0.00782903
0.00787099
0.007917
0.00796699
0.00802089
0.00807859
0.00814001
0.00820508
0.00827373
0.00834587
0.00842137
0.00850013
0.00858206
0.00866701
0.00875483
0.00889771
0.00799976
0.00804221
0.00808874
0.00813928
0.00819377
0.00825211
0.00831421
0.00838002
0.00844946
0.00852241
0.00859876
0.00867843
0.00876129
0.00884718
0.00893604
0.00907845
0.00817271
0.00821566
0.00826273
0.00831384
0.00836893
0.00842793
0.00849074
0.00855731
0.00862757
0.00870135
0.00877861
0.0088592
0.00894301
0.0090299
0.00911982
0.00926187
0.00839142
0.00843905
0.00849075
0.00854647
0.00860613
0.00866968
0.00873703
0.00880812
0.00888277
0.00896096
0.0090425
0.0091273
0.00921524
0.00930622
0.00944804
0.00856959
0.00861778
0.00867008
0.00872646
0.00878682
0.00885112
0.00891927
0.0089912
0.00906676
0.00914589
0.0092284
0.00931423
0.00940327
0.00949536
0.00963702
0.00875026
0.00879901
0.00885194
0.008909
0.00897007
0.00903514
0.00910413
0.0091769
0.00925341
0.00933348
0.009417
0.0095039
0.00959406
0.00968731
0.00982888
0.00888853
0.00893352
0.00898283
0.00903641
0.00909414
0.00915595
0.00922184
0.00929168
0.00936535
0.00944278
0.00952385
0.00960841
0.0096964
0.00978771
0.00988215
0.0100237
0.0090739
0.00911943
0.00916934
0.00922358
0.00928198
0.00934458
0.00941129
0.00948201
0.00955661
0.00963501
0.0097171
0.00980274
0.00989185
0.00998432
0.01008
0.0102217
0.009262
0.00930811
0.00935863
0.00941352
0.00947265
0.00953605
0.00960359
0.00967521
0.00975077
0.00983017
0.00991332
0.0100001
0.0100903
0.010184
0.0102809
0.0104229
0.00945293
0.00949963
0.00955078
0.00960634
0.00966624
0.00973044
0.00979886
0.00987139
0.00994792
0.0100284
0.0101126
0.0102005
0.010292
0.0103869
0.0104851
0.0106274
0.00960397
0.00964678
0.00969409
0.00974589
0.00980216
0.00986282
0.00992786
0.00999718
0.0100706
0.0101482
0.0102297
0.010315
0.0104041
0.0104969
0.0105931
0.0106926
0.0108352
0.00980031
0.00984365
0.00989157
0.00994404
0.0100011
0.0100625
0.0101284
0.0101987
0.0102731
0.0103517
0.0104343
0.0105208
0.0106111
0.0107052
0.0108027
0.0109036
0.0110466
0.00996066
0.00999978
0.0100436
0.0100922
0.0101453
0.0102031
0.0102654
0.0103322
0.0104034
0.0104788
0.0105585
0.0106422
0.0107299
0.0108215
0.0109168
0.0110157
0.011118
0.0112616
0.0101628
0.0102025
0.0102469
0.0102961
0.0103499
0.0104085
0.0104716
0.0105393
0.0106114
0.0106879
0.0107687
0.0108536
0.0109425
0.0110354
0.0111321
0.0112324
0.0113362
0.0114803
0.0103683
0.0104084
0.0104534
0.0105033
0.0105579
0.0106172
0.0106813
0.0107499
0.010823
0.0109006
0.0109825
0.0110686
0.0111588
0.011253
0.0113511
0.0114528
0.0115581
0.0117029
0.0105771
0.0106178
0.0106635
0.010714
0.0107693
0.0108295
0.0108945
0.0109641
0.0110382
0.0111169
0.0111999
0.0112873
0.0113788
0.0114744
0.0115739
0.0116771
0.011784
0.0119296
0.0107895
0.0108308
0.010877
0.0109283
0.0109844
0.0110454
0.0111113
0.0111819
0.0112571
0.0113369
0.0114212
0.0115098
0.0116027
0.0116996
0.0118006
0.0119054
0.0120138
0.0121603
0.0110056
0.0110474
0.0110943
0.0111462
0.0112032
0.0112651
0.0113319
0.0114035
0.0114798
0.0115608
0.0116463
0.0117362
0.0118305
0.0119289
0.0120314
0.0121378
0.0122479
0.0123952
0.0112254
0.0112678
0.0113153
0.011368
0.0114258
0.0114887
0.0115565
0.0116291
0.0117066
0.0117887
0.0118754
0.0119667
0.0120624
0.0121624
0.0122665
0.0123744
0.0124862
0.0126345
0.0114491
0.0114921
0.0115403
0.0115938
0.0116524
0.0117162
0.011785
0.0118587
0.0119373
0.0120207
0.0121088
0.0122015
0.0122986
0.0124001
0.0125058
0.0126155
0.0127289
0.0128783
0.0116768
0.0117204
0.0117694
0.0118237
0.0118832
0.0119479
0.0120177
0.0120926
0.0121724
0.012257
0.0123464
0.0124405
0.0125392
0.0126423
0.0127496
0.012861
0.0129762
0.0131268
0.0119087
0.011953
0.0120027
0.0120578
0.0121182
0.0121839
0.0122548
0.0123308
0.0124118
0.0124977
0.0125886
0.0126841
0.0127844
0.0128891
0.0129981
0.0131112
0.0132283
0.01338
0.0121449
0.0121899
0.0122404
0.0122963
0.0123576
0.0124243
0.0124963
0.0125735
0.0126557
0.0127431
0.0128353
0.0129324
0.0130342
0.0131406
0.0132513
0.0133662
0.0134852
0.0136383
0.0123856
0.0124313
0.0124826
0.0125393
0.0126016
0.0126694
0.0127424
0.0128208
0.0129044
0.0129931
0.0130868
0.0131855
0.0132889
0.013397
0.0135095
0.0136263
0.0137472
0.0139017
0.012631
0.0126774
0.0127294
0.0127871
0.0128504
0.0129191
0.0129934
0.013073
0.0131579
0.0132481
0.0133433
0.0134435
0.0135486
0.0136585
0.0137728
0.0138916
0.0140144
0.0141704
0.0128811
0.0129283
0.0129811
0.0130397
0.013104
0.0131738
0.0132492
0.0133301
0.0134164
0.013508
0.0136048
0.0137067
0.0138135
0.0139252
0.0140415
0.0141622
0.0142871
0.0144446
0.0131362
0.0131841
0.0132378
0.0132974
0.0133627
0.0134336
0.0135102
0.0135924
0.0136802
0.0137732
0.0138716
0.0139752
0.0140838
0.0141973
0.0143156
0.0144383
0.0145653
0.0147245
0.0133536
0.0133964
0.0134451
0.0134997
0.0135602
0.0136265
0.0136986
0.0137765
0.01386
0.0139492
0.0140439
0.0141438
0.0142492
0.0143596
0.0144751
0.0145953
0.0147201
0.0148494
0.0150103
0.0136184
0.0136619
0.0137114
0.0137668
0.0138283
0.0138958
0.0139691
0.0140482
0.0141332
0.0142238
0.0143201
0.0144217
0.0145289
0.0146412
0.0147587
0.014881
0.0150079
0.0151394
0.0153021
0.013851
0.0138887
0.0139329
0.0139831
0.0140395
0.0141021
0.0141706
0.0142452
0.0143256
0.014412
0.0145042
0.014602
0.0147055
0.0148145
0.0149288
0.0150482
0.0151727
0.0153018
0.0154356
0.0156002
0.0141263
0.0141647
0.0142095
0.0142606
0.0143179
0.0143815
0.0144512
0.014527
0.0146089
0.0146967
0.0147904
0.01489
0.0149953
0.0151061
0.0152224
0.015344
0.0154706
0.015602
0.0157382
0.0159047
0.0144074
0.0144465
0.014492
0.0145439
0.0146022
0.0146669
0.0147378
0.0148149
0.0148982
0.0149875
0.0150828
0.0151842
0.0152913
0.0154041
0.0155224
0.0156462
0.0157751
0.0159088
0.0160474
0.016216
0.0146946
0.0147343
0.0147806
0.0148333
0.0148926
0.0149584
0.0150306
0.015109
0.0151937
0.0152846
0.0153816
0.0154848
0.0155938
0.0157085
0.015829
0.015955
0.0160862
0.0162224
0.0163634
0.0165342
0.014988
0.0150284
0.0150754
0.0151291
0.0151894
0.0152563
0.0153298
0.0154095
0.0154958
0.0155883
0.015687
0.015792
0.015903
0.0160198
0.0161424
0.0162707
0.0164043
0.016543
0.0166865
0.0168596
0.0152879
0.0153289
0.0153767
0.0154314
0.0154927
0.0155607
0.0156355
0.0157167
0.0158045
0.0158987
0.0159992
0.0161061
0.016219
0.016338
0.0164629
0.0165935
0.0167295
0.0168708
0.017017
0.0171924
0.0155944
0.0156362
0.0156848
0.0157404
0.0158028
0.0158721
0.0159482
0.0160309
0.0161202
0.0162161
0.0163185
0.0164273
0.0165423
0.0166635
0.0167907
0.0169236
0.0170622
0.0172062
0.0173551
0.0175329
0.0159079
0.0159504
0.0159999
0.0160565
0.01612
0.0161905
0.016268
0.0163522
0.0164431
0.0165407
0.016645
0.0167558
0.016873
0.0169964
0.017126
0.0172614
0.0174026
0.0175493
0.0177011
0.0178814
0.0162285
0.0162718
0.0163222
0.0163798
0.0164445
0.0165163
0.0165952
0.0166809
0.0167735
0.0168729
0.0169791
0.017092
0.0172114
0.0173372
0.0174691
0.0176072
0.0177511
0.0179005
0.0180552
0.0182381
0.0165566
0.0166007
0.016652
0.0167107
0.0167765
0.0168497
0.01693
0.0170173
0.0171115
0.0172129
0.0173211
0.0174361
0.0175578
0.0176859
0.0178204
0.0179611
0.0181077
0.0182601
0.0184178
0.0186035
0.0168924
0.0169374
0.0169896
0.0170493
0.0171164
0.0171909
0.0172727
0.0173617
0.0174577
0.0175609
0.0176712
0.0177884
0.0179124
0.018043
0.0181801
0.0183235
0.018473
0.0186283
0.0187891
0.0189776
0.0172362
0.017282
0.0173352
0.017396
0.0174644
0.0175403
0.0176236
0.0177143
0.0178122
0.0179173
0.0180297
0.0181492
0.0182756
0.0184087
0.0185485
0.0186947
0.0188471
0.0190055
0.0191695
0.019361
0.0175883
0.017635
0.0176892
0.0177511
0.0178208
0.0178982
0.0179831
0.0180755
0.0181753
0.0182824
0.018397
0.0185188
0.0186477
0.0187835
0.018926
0.0190751
0.0192305
0.0193921
0.0195594
0.0197538
0.017949
0.0179966
0.0180518
0.018115
0.018186
0.0182649
0.0183514
0.0184456
0.0185474
0.0186566
0.0187734
0.0188976
0.019029
0.0191675
0.0193128
0.0194649
0.0196235
0.0197884
0.019959
0.0201566
0.0183187
0.0183671
0.0184235
0.0184878
0.0185603
0.0186407
0.0187289
0.018825
0.0189287
0.0190401
0.0191592
0.0192859
0.0194198
0.0195611
0.0197094
0.0198646
0.0200264
0.0201946
0.0203688
0.0205697
0.0186977
0.018747
0.0188044
0.0188701
0.018944
0.0190259
0.0191159
0.0192139
0.0193197
0.0194334
0.0195549
0.019684
0.0198206
0.0199648
0.0201162
0.0202746
0.0204397
0.0206113
0.0207891
0.0209934
0.0190862
0.0191365
0.0191951
0.0192622
0.0193375
0.0194211
0.0195128
0.0196128
0.0197207
0.0198367
0.0199606
0.0200924
0.0202318
0.020379
0.0205334
0.0206951
0.0208637
0.0210389
0.0212204
0.0214282
0.0194848
0.0195361
0.0195959
0.0196643
0.0197412
0.0198264
0.01992
0.020022
0.0201321
0.0202505
0.020377
0.0205114
0.0206537
0.0208039
0.0209616
0.0211267
0.0212988
0.0214777
0.021663
0.0218745
0.0198939
0.0199461
0.0200072
0.020077
0.0201555
0.0202424
0.0203378
0.0204419
0.0205543
0.0206752
0.0208043
0.0209415
0.0210868
0.0212402
0.0214012
0.0215697
0.0217455
0.0219282
0.0221175
0.0223327
0.0203137
0.020367
0.0204293
0.0205006
0.0205807
0.0206694
0.0207668
0.0208729
0.0209878
0.0211112
0.021243
0.021383
0.0215314
0.0216881
0.0218526
0.0220248
0.0222043
0.0223909
0.0225843
0.0228034
0.0207449
0.0207992
0.0208628
0.0209355
0.0210173
0.0211079
0.0212073
0.0213156
0.021433
0.021559
0.0216936
0.0218365
0.0219881
0.0221481
0.0223162
0.0224921
0.0226755
0.0228663
0.0230639
0.0232869
0.0211877
0.0212432
0.0213081
0.0213822
0.0214658
0.0215583
0.0216598
0.0217704
0.0218903
0.022019
0.0221565
0.0223025
0.0224573
0.0226208
0.0227926
0.0229724
0.0231598
0.0233547
0.0235567
0.023784
0.0216428
0.0216994
0.0217657
0.0218413
0.0219267
0.0220211
0.0221248
0.0222378
0.0223603
0.0224918
0.0226322
0.0227814
0.0229396
0.0231066
0.0232822
0.023466
0.0236576
0.0238569
0.0240633
0.024295
0.0224005
0.0224969
0.0226028
0.0227184
0.0228436
0.0229778
0.0231213
0.0232738
0.0234355
0.0236062
0.0237857
0.0239736
0.0241694
0.0243732
0.0245843
0.0248205
0.0233405
0.0234778
0.0236243
0.0237803
0.0239456
0.0241202
0.0243036
0.0244958
0.024696
0.0249044
0.0251203
0.0253613
0.00963629
0.00949469
0.00982812
0.00968653
0.010023
0.00988132
0.0102209
0.0100791
0.00998341
0.010422
0.0102801
0.0101831
0.0106265
0.0104842
0.0103859
0.010291
0.0108343
0.0106917
0.0105921
0.0104958
0.0110456
0.0109026
0.0108016
0.010704
0.0112606
0.011117
0.0110146
0.0109156
0.0108202
0.0114793
0.0113351
0.0112313
0.0111309
0.0110341
0.0117019
0.011557
0.0114516
0.0113498
0.0112516
0.0119284
0.0117828
0.0116758
0.0115725
0.0114729
0.012159
0.0120126
0.011904
0.0117992
0.0116981
0.0123939
0.0122465
0.0121364
0.0120299
0.0119273
0.0126332
0.0124848
0.012373
0.0122648
0.0121607
0.0120606
0.012877
0.0127275
0.012614
0.0125042
0.0123984
0.0122968
0.0131254
0.0129748
0.0128595
0.012748
0.0126406
0.0125374
0.0124386
0.0133786
0.0132268
0.0131097
0.0129965
0.0128874
0.0127826
0.0126822
0.0125865
0.0136368
0.0134837
0.0133648
0.0132498
0.0131389
0.0130324
0.0129305
0.0128333
0.012741
0.0139002
0.0137457
0.0136248
0.013508
0.0133953
0.0132871
0.0131836
0.0130848
0.012991
0.0129023
0.0141688
0.0140128
0.01389
0.0137713
0.0136568
0.0135469
0.0134417
0.0133413
0.0132459
0.0131558
0.014443
0.0142855
0.0141606
0.0140399
0.0139236
0.0138118
0.0137048
0.0136028
0.0135059
0.0134143
0.0147228
0.0145637
0.0144367
0.014314
0.0141957
0.0140821
0.0139734
0.0138697
0.0137711
0.013678
0.0150085
0.0148476
0.0147185
0.0145937
0.0144734
0.0143579
0.0142474
0.0141419
0.0140418
0.0139471
0.0153003
0.0151375
0.0150061
0.0148792
0.0147569
0.0146394
0.014527
0.0144198
0.014318
0.0142216
0.0155983
0.0154336
0.0153
0.0151708
0.0150464
0.0149269
0.0148125
0.0147035
0.0146
0.014502
0.0159028
0.0157362
0.0156001
0.0154686
0.0153421
0.0152205
0.0151041
0.0149932
0.0148879
0.0147883
0.0162139
0.0160453
0.0159068
0.015773
0.0156442
0.0155204
0.015402
0.0152891
0.015182
0.0150807
0.016532
0.0163612
0.0162202
0.016084
0.0159528
0.0158269
0.0157064
0.0155915
0.0154825
0.0153795
0.0168573
0.0166842
0.0165406
0.016402
0.0162684
0.0161402
0.0160175
0.0159006
0.0157896
0.0156848
0.01719
0.0170146
0.0168683
0.0167271
0.016591
0.0164605
0.0163356
0.0162166
0.0161036
0.0159969
0.0175304
0.0173526
0.0172036
0.0170598
0.0169211
0.0167882
0.016661
0.0165398
0.0164247
0.0163161
0.00963636
0.00982816
0.010023
0.010221
0.0104221
0.0106266
0.0108344
0.0110457
0.0112607
0.0114794
0.011702
0.0119285
0.0121591
0.012394
0.0126332
0.012877
0.0131254
0.0133787
0.0136369
0.0139003
0.014169
0.0144431
0.0147229
0.0150086
0.0153004
0.0155984
0.0159028
0.0162141
0.0165322
0.0168575
0.0171902
0.0175306
0.00949469
0.00968658
0.00988141
0.0100793
0.0102802
0.0104844
0.0106919
0.0109027
0.0111172
0.0113353
0.0115571
0.0117829
0.0120127
0.0122466
0.0124849
0.0127275
0.0129748
0.0132268
0.0134837
0.0137457
0.014013
0.0142856
0.0145638
0.0148478
0.0151378
0.0154339
0.0157365
0.0160456
0.0163617
0.0166848
0.0170152
0.0173531
0.017699
0.00940263
0.00959336
0.00978701
0.00998364
0.0101833
0.0103862
0.0105923
0.0108019
0.0110149
0.0112315
0.0114519
0.0116761
0.0119043
0.0121367
0.0123732
0.0126142
0.0128596
0.0131098
0.0133648
0.0136248
0.0138901
0.0141606
0.0144368
0.0147186
0.0150064
0.0153002
0.0156004
0.0159072
0.0162207
0.0165413
0.0168691
0.0172044
0.0175475
0.0178987
0.0182583
0.0186266
0.0190038
0.0193905
0.00931361
0.00950324
0.00969575
0.00989119
0.0100897
0.0102913
0.0104962
0.0107044
0.010916
0.0111313
0.0113502
0.0115729
0.0117996
0.0120304
0.0122653
0.0125046
0.0127484
0.0129968
0.01325
0.0135081
0.0137714
0.01404
0.0143141
0.0145938
0.0148795
0.0151711
0.0154691
0.0157735
0.0160846
0.0164027
0.0167279
0.0170606
0.0174009
0.0177493
0.018106
0.0184712
0.0188453
0.0192287
0.00922778
0.00941635
0.00960777
0.0098021
0.00999942
0.0101998
0.0104034
0.0106104
0.0108208
0.0110347
0.0112522
0.0114735
0.0116987
0.0119279
0.0121613
0.012399
0.0126411
0.0128879
0.0131393
0.0133957
0.0136571
0.0139238
0.0141959
0.0144737
0.0147572
0.0150467
0.0153425
0.0156446
0.0159535
0.0162692
0.016592
0.0169221
0.0172599
0.0176056
0.0179594
0.0183217
0.0186928
0.0190731
0.00914533
0.00933289
0.00952324
0.00971647
0.00991267
0.0101119
0.0103144
0.0105201
0.0107292
0.0109418
0.011158
0.0113779
0.0116017
0.0118295
0.0120614
0.0122976
0.0125381
0.0127832
0.0130331
0.0132877
0.0135474
0.0138123
0.0140825
0.0143583
0.0146399
0.0149274
0.015221
0.015521
0.0158276
0.016141
0.0164614
0.0167891
0.0171244
0.0174675
0.0178187
0.0181783
0.0185466
0.018924
0.0193108
0.00906629
0.00925288
0.00944223
0.00963442
0.00982957
0.0100277
0.010229
0.0104336
0.0106415
0.0108528
0.0110678
0.0112864
0.0115089
0.0117353
0.0119658
0.0122005
0.0124395
0.0126831
0.0129313
0.0131843
0.0134423
0.0137055
0.013974
0.0142479
0.0145276
0.0148131
0.0151048
0.0154027
0.0157072
0.0160184
0.0163366
0.016662
0.0169949
0.0173355
0.0176842
0.0180412
0.0184068
0.0187814
0.0191653
0.00899077
0.00917644
0.00936484
0.00955607
0.0097502
0.00994731
0.0101475
0.010351
0.0105577
0.0107679
0.0109817
0.0111991
0.0114203
0.0116454
0.0118745
0.0121078
0.0123455
0.0125876
0.0128343
0.0130858
0.0133422
0.0136037
0.0138704
0.0141426
0.0144205
0.0147042
0.014994
0.01529
0.0155924
0.0159016
0.0162176
0.0165408
0.0168714
0.0172097
0.017556
0.0179105
0.0182736
0.0186455
0.0190267
0.00891889
0.00910369
0.0092912
0.00948151
0.00967468
0.00987081
0.01007
0.0102724
0.0104781
0.0106872
0.0108998
0.011116
0.011336
0.0115599
0.0117877
0.0120197
0.012256
0.0124967
0.0127421
0.0129921
0.013247
0.013507
0.0137721
0.0140427
0.0143188
0.0146008
0.0148887
0.0151829
0.0154834
0.0157906
0.0161046
0.0164257
0.0167542
0.0170903
0.0174343
0.0177864
0.0181471
0.0185165
0.0188952
0.00885076
0.00903471
0.00922136
0.00941079
0.00960309
0.00979831
0.00999657
0.010198
0.0104027
0.0106107
0.0108223
0.0110374
0.0112563
0.011479
0.0117056
0.0119364
0.0121714
0.0124108
0.0126548
0.0129034
0.0131569
0.0134154
0.0136791
0.0139481
0.0142226
0.0145029
0.0147892
0.0150815
0.0153802
0.0156855
0.0159976
0.0163168
0.0166433
0.0169774
0.0173193
0.0176692
0.0180276
0.0183948
0.0187711
0.00878645
0.00896964
0.00915551
0.00934412
0.00953556
0.00972991
0.00992729
0.0101278
0.0103315
0.0105386
0.0107492
0.0109633
0.0111811
0.0114027
0.0116282
0.0118578
0.0120916
0.0123298
0.0125725
0.0128199
0.013072
0.0133291
0.0135914
0.0138589
0.014132
0.0144107
0.0146953
0.0149861
0.0152831
0.0155867
0.015897
0.0162143
0.0165389
0.016871
0.0172109
0.0175588
0.0179152
0.0182802
0.0186543
0.00890853
0.00909364
0.00928148
0.00947214
0.0096657
0.00986226
0.0100619
0.0102648
0.010471
0.0106806
0.0108937
0.0111105
0.0113311
0.0115556
0.0117842
0.0120169
0.0122539
0.0124955
0.0127416
0.0129925
0.0132483
0.0135092
0.0137753
0.014047
0.0143242
0.0146074
0.0148966
0.0151921
0.0154941
0.0158028
0.0161184
0.0164412
0.0167715
0.0171095
0.0174556
0.0178099
0.0181729
0.0185449
0.00903586
0.00922298
0.00941291
0.00960572
0.00980152
0.0100004
0.0102025
0.0104078
0.0106166
0.0108288
0.0110447
0.0112644
0.0114879
0.0117154
0.0119471
0.0121831
0.0124235
0.0126685
0.0129182
0.0131728
0.0134325
0.0136974
0.0139678
0.0142437
0.0145255
0.0148134
0.0151074
0.0154079
0.0157151
0.0160291
0.0163503
0.0166789
0.0170152
0.0173594
0.0177119
0.018073
0.018443
0.00898231
0.00916874
0.00935798
0.0095501
0.00974518
0.00994332
0.0101446
0.0103492
0.0105572
0.0107686
0.0109837
0.0112025
0.0114251
0.0116518
0.0118825
0.0121175
0.0123569
0.0126008
0.0128495
0.013103
0.0133615
0.0136252
0.0138944
0.0141692
0.0144497
0.0147363
0.015029
0.0153281
0.0156338
0.0159464
0.0162661
0.0165932
0.0169279
0.0172705
0.0176213
0.0179806
0.0183488
0.00911881
0.00930741
0.00949889
0.00969331
0.00989079
0.0100914
0.0102953
0.0105025
0.0107132
0.0109275
0.0111455
0.0113673
0.0115931
0.011823
0.0120571
0.0122956
0.0125386
0.0127862
0.0130387
0.0132963
0.013559
0.0138271
0.0141007
0.0143801
0.0146654
0.0149569
0.0152548
0.0155592
0.0158704
0.0161887
0.0165143
0.0168476
0.0171887
0.017538
0.0178957
0.0182623
0.0090733
0.00926132
0.00945219
0.009646
0.00984286
0.0100429
0.0102461
0.0104527
0.0106627
0.0108763
0.0110935
0.0113146
0.0115396
0.0117687
0.012002
0.0122396
0.0124818
0.0127286
0.0129802
0.0132368
0.0134985
0.0137656
0.0140382
0.0143166
0.0146009
0.0148913
0.015188
0.0154912
0.0158012
0.0161182
0.0164425
0.0167744
0.0171142
0.017462
0.0178183
0.0181834
0.00921962
0.00940999
0.00960328
0.00979958
0.00999902
0.0102017
0.0104076
0.010617
0.01083
0.0110466
0.011267
0.0114913
0.0117197
0.0119522
0.0121891
0.0124305
0.0126765
0.0129273
0.0131831
0.013444
0.0137102
0.0139819
0.0142593
0.0145426
0.0148319
0.0151276
0.0154298
0.0157387
0.0160546
0.0163778
0.0167086
0.0170471
0.0173937
0.0177487
0.0181124
0.00937231
0.00956514
0.00976099
0.00995993
0.0101621
0.0103675
0.0105763
0.0107887
0.0110048
0.0112246
0.0114483
0.0116761
0.011908
0.0121442
0.0123849
0.0126302
0.0128803
0.0131353
0.0133954
0.0136609
0.0139317
0.0142083
0.0144907
0.0147791
0.0150739
0.0153751
0.0156831
0.015998
0.0163202
0.0166499
0.0169874
0.0173329
0.0176868
0.0180493
0.00933931
0.00953171
0.00972711
0.00992559
0.0101273
0.0103322
0.0105406
0.0107525
0.0109681
0.0111874
0.0114106
0.0116378
0.0118692
0.0121048
0.0123449
0.0125896
0.0128391
0.0130934
0.0133529
0.0136176
0.0138878
0.0141636
0.0144453
0.014733
0.0150269
0.0153273
0.0156344
0.0159485
0.0162698
0.0165985
0.0169351
0.0172796
0.0176325
0.017994
0.00931099
0.00950301
0.00969801
0.00989608
0.0100974
0.0103019
0.0105099
0.0107214
0.0109365
0.0111554
0.0113781
0.0116049
0.0118358
0.0120709
0.0123106
0.0125547
0.0128037
0.0130575
0.0133164
0.0135805
0.0138501
0.0141253
0.0144063
0.0146933
0.0149866
0.0152863
0.0155927
0.015906
0.0162266
0.0165546
0.0168903
0.017234
0.017586
0.0179467
0.00928728
0.00947899
0.00967371
0.00987149
0.0100724
0.0102767
0.0104843
0.0106954
0.0109102
0.0111287
0.0113511
0.0115774
0.0118079
0.0120427
0.0122818
0.0125256
0.0127741
0.0130274
0.0132858
0.0135495
0.0138186
0.0140933
0.0143738
0.0146603
0.014953
0.0152521
0.0155579
0.0158706
0.0161905
0.0165179
0.0168529
0.017196
0.0175473
0.0179072
0.00945977
0.00965422
0.00985174
0.0100524
0.0102564
0.0104638
0.0106747
0.0108891
0.0111073
0.0113294
0.0115554
0.0117856
0.01202
0.0122588
0.0125022
0.0127504
0.0130034
0.0132614
0.0135247
0.0137934
0.0140677
0.0143477
0.0146338
0.014926
0.0152247
0.0155301
0.0158423
0.0161617
0.0164885
0.016823
0.0171655
0.0175163
0.0178757
0.00944533
0.0096396
0.00983693
0.0100374
0.0102412
0.0104484
0.010659
0.0108733
0.0110913
0.0113131
0.0115389
0.0117688
0.012003
0.0122416
0.0124847
0.0127326
0.0129853
0.0132431
0.0135061
0.0137745
0.0140484
0.0143282
0.0146139
0.0149059
0.0152042
0.0155092
0.0158211
0.0161401
0.0164666
0.0168007
0.0171427
0.017493
0.0178519
0.00962983
0.00982703
0.0100274
0.0102311
0.0104381
0.0106485
0.0108627
0.0110805
0.0113022
0.0115279
0.0117577
0.0119917
0.0122301
0.0124731
0.0127207
0.0129733
0.0132309
0.0134937
0.0137619
0.0140356
0.0143152
0.0146007
0.0148924
0.0151905
0.0154953
0.015807
0.0161258
0.0164519
0.0167857
0.0171275
0.0174775
0.0178361
0.00962493
0.00982207
0.0100224
0.0102259
0.0104329
0.0106433
0.0108574
0.0110751
0.0112967
0.0115224
0.0117521
0.011986
0.0122244
0.0124673
0.0127148
0.0129673
0.0132248
0.0134875
0.0137555
0.0140292
0.0143086
0.0145941
0.0148857
0.0151837
0.0154884
0.0157999
0.0161186
0.0164446
0.0167783
0.0171199
0.0174698
0.0178283
0.00982201
0.0100223
0.0102259
0.0104329
0.0106433
0.0108573
0.0110751
0.0112967
0.0115223
0.011752
0.011986
0.0122243
0.0124672
0.0127148
0.0129673
0.0132248
0.0134874
0.0137555
0.0140292
0.0143086
0.0145941
0.0148857
0.0151837
0.0154884
0.0158
0.0161186
0.0164447
0.0167784
0.0171201
0.01747
0.0178284
0.00982694
0.0100273
0.010231
0.010438
0.0106485
0.0108626
0.0110804
0.0113021
0.0115278
0.0117575
0.0119916
0.01223
0.0124729
0.0127206
0.0129732
0.0132308
0.0134936
0.0137618
0.0140355
0.0143151
0.0146007
0.0148925
0.0151906
0.0154954
0.0158071
0.0161259
0.0164521
0.0167859
0.0171277
0.0174777
0.0178364
0.00983681
0.0100373
0.0102411
0.0104483
0.0106589
0.0108731
0.0110911
0.0113129
0.0115387
0.0117687
0.0120028
0.0122414
0.0124845
0.0127324
0.0129852
0.013243
0.013506
0.0137744
0.0140484
0.0143282
0.014614
0.0149059
0.0152043
0.0155093
0.0158212
0.0161403
0.0164667
0.0168009
0.017143
0.0174933
0.0178522
0.00985153
0.0100522
0.0102563
0.0104636
0.0106745
0.010889
0.0111071
0.0113292
0.0115552
0.0117853
0.0120197
0.0122586
0.012502
0.0127501
0.0130032
0.0132613
0.0135246
0.0137933
0.0140676
0.0143477
0.0146338
0.0149261
0.0152248
0.0155302
0.0158425
0.016162
0.0164888
0.0168233
0.0171658
0.0175165
0.0178759
0.0098712
0.0100722
0.0102764
0.0104841
0.0106952
0.0109099
0.0111284
0.0113508
0.0115771
0.0118076
0.0120423
0.0122815
0.0125253
0.0127738
0.0130271
0.0132856
0.0135493
0.0138184
0.0140931
0.0143737
0.0146602
0.014953
0.0152521
0.015558
0.0158708
0.0161907
0.0165181
0.0168531
0.0171962
0.0175476
0.0179076
0.00989574
0.010097
0.0103016
0.0105096
0.010721
0.0109361
0.011155
0.0113777
0.0116044
0.0118353
0.0120705
0.0123101
0.0125544
0.0128033
0.0130571
0.013316
0.0135802
0.0138498
0.014125
0.0144061
0.0146932
0.0149865
0.0152863
0.0155927
0.0159061
0.0162267
0.0165548
0.0168906
0.0172343
0.0175864
0.0179471
0.00992514
0.0101268
0.0103317
0.01054
0.0107519
0.0109675
0.0111868
0.01141
0.0116372
0.0118686
0.0121043
0.0123444
0.0125891
0.0128386
0.013093
0.0133525
0.0136173
0.0138875
0.0141634
0.0144451
0.0147328
0.0150268
0.0153273
0.0156345
0.0159487
0.01627
0.0165988
0.0169353
0.0172799
0.0176328
0.0179944
0.00995932
0.0101614
0.0103668
0.0105756
0.010788
0.011004
0.0112239
0.0114476
0.0116754
0.0119073
0.0121436
0.0123843
0.0126297
0.0128798
0.0131348
0.013395
0.0136605
0.0139314
0.014208
0.0144905
0.014779
0.0150738
0.0153751
0.0156832
0.0159982
0.0163205
0.0166502
0.0169877
0.0173332
0.0176871
0.0180498
0.0099983
0.0102009
0.0104068
0.0106162
0.0108291
0.0110457
0.0112662
0.0114906
0.011719
0.0119516
0.0121885
0.0124299
0.012676
0.0129268
0.0131826
0.0134435
0.0137098
0.0139815
0.014259
0.0145423
0.0148318
0.0151275
0.0154297
0.0157388
0.0160548
0.016378
0.0167088
0.0170474
0.0173941
0.0177492
0.018113
0.0100421
0.0102452
0.0104518
0.0106617
0.0108753
0.0110926
0.0113137
0.0115388
0.0117679
0.0120013
0.0122389
0.0124811
0.012728
0.0129796
0.0132363
0.0134981
0.0137652
0.0140379
0.0143163
0.0146006
0.014891
0.0151877
0.0154911
0.0158012
0.0161183
0.0164427
0.0167747
0.0171145
0.0174625
0.0178188
0.0181839
0.0100905
0.0102943
0.0105015
0.0107122
0.0109265
0.0111446
0.0113664
0.0115922
0.0118222
0.0120563
0.0122949
0.0125379
0.0127856
0.0130382
0.0132957
0.0135585
0.0138266
0.0141003
0.0143797
0.0146651
0.0149566
0.0152546
0.0155591
0.0158704
0.0161887
0.0165144
0.0168477
0.0171888
0.0175382
0.017896
0.0182626
0.0101437
0.0103483
0.0105562
0.0107677
0.0109827
0.0112015
0.0114242
0.0116509
0.0118817
0.0121168
0.0123562
0.0126002
0.0128488
0.0131024
0.013361
0.0136248
0.013894
0.0141688
0.0144494
0.014736
0.0150287
0.0153278
0.0156336
0.0159462
0.016266
0.0165931
0.0169279
0.0172706
0.0176215
0.0179808
0.0183491
0.0102015
0.0104069
0.0106156
0.0108279
0.0110438
0.0112635
0.011487
0.0117146
0.0119464
0.0121824
0.0124229
0.0126679
0.0129176
0.0131723
0.013432
0.013697
0.0139674
0.0142434
0.0145253
0.0148131
0.0151072
0.0154077
0.0157149
0.0160289
0.0163502
0.0166788
0.0170151
0.0173594
0.017712
0.0180731
0.0184432
0.0102639
0.0104701
0.0106797
0.0108928
0.0111097
0.0113303
0.0115548
0.0117834
0.0120162
0.0122533
0.0124949
0.012741
0.0129919
0.0132478
0.0135088
0.013775
0.0140467
0.0143241
0.0146072
0.0148965
0.015192
0.0154939
0.0158026
0.0161183
0.0164412
0.0167715
0.0171096
0.0174557
0.0178101
0.018173
0.018545
0.0103307
0.0105377
0.0107483
0.0109624
0.0111803
0.0114019
0.0116275
0.0118572
0.0120911
0.0123293
0.0125721
0.0128194
0.0130716
0.0133288
0.013591
0.0138586
0.0141317
0.0144105
0.0146952
0.0149859
0.015283
0.0155866
0.0158969
0.0162143
0.0165389
0.016871
0.0172109
0.017559
0.0179154
0.0182804
0.0186545
0.0104018
0.0106099
0.0108215
0.0110367
0.0112556
0.0114783
0.011705
0.0119359
0.012171
0.0124104
0.0126544
0.0129031
0.0131566
0.0134151
0.0136788
0.0139479
0.0142225
0.0145028
0.0147891
0.0150815
0.0153802
0.0156855
0.0159976
0.0163168
0.0166433
0.0169773
0.0173192
0.0176693
0.0180278
0.018395
0.0187713
0.0104773
0.0106864
0.0108991
0.0111154
0.0113354
0.0115594
0.0117873
0.0120194
0.0122558
0.0124965
0.0127419
0.0129919
0.0132468
0.0135068
0.0137721
0.0140427
0.0143189
0.0146008
0.0148888
0.0151829
0.0154834
0.0157905
0.0161045
0.0164256
0.0167541
0.0170902
0.0174343
0.0177865
0.0181473
0.0185168
0.0188955
0.010557
0.0107672
0.010981
0.0111985
0.0114198
0.011645
0.0118742
0.0121076
0.0123453
0.0125874
0.0128342
0.0130858
0.0133422
0.0136038
0.0138706
0.0141429
0.0144208
0.0147044
0.0149941
0.0152901
0.0155925
0.0159016
0.0162176
0.0165408
0.0168714
0.0172097
0.017556
0.0179105
0.0182737
0.0186457
0.019027
0.0106408
0.0108522
0.0110672
0.011286
0.0115085
0.011735
0.0119655
0.0122003
0.0124395
0.0126831
0.0129314
0.0131845
0.0134425
0.0137058
0.0139743
0.0142483
0.0145279
0.0148134
0.0151051
0.015403
0.0157075
0.0160187
0.0163368
0.0166622
0.016995
0.0173356
0.0176843
0.0180413
0.018407
0.0187816
0.0191656
0.0107286
0.0109412
0.0111575
0.0113775
0.0116014
0.0118292
0.0120612
0.0122975
0.0125381
0.0127833
0.0130332
0.0132879
0.0135477
0.0138126
0.0140829
0.0143587
0.0146403
0.0149278
0.0152215
0.0155215
0.015828
0.0161414
0.0164618
0.0167895
0.0171247
0.0174678
0.017819
0.0181787
0.018547
0.0189244
0.0193113
0.0108202
0.0110341
0.0112517
0.0114731
0.0116984
0.0119277
0.0121611
0.0123989
0.0126411
0.0128879
0.0131395
0.0133959
0.0136575
0.0139243
0.0141964
0.0144742
0.0147577
0.0150473
0.015343
0.0156452
0.015954
0.0162696
0.0165924
0.0169226
0.0172604
0.0176061
0.01796
0.0183224
0.0186936
0.0190739
0.0194637
0.0109154
0.0111307
0.0113497
0.0115725
0.0117993
0.0120301
0.0122651
0.0125044
0.0127483
0.0129968
0.0132502
0.0135084
0.0137718
0.0140405
0.0143146
0.0145944
0.0148801
0.0151717
0.0154697
0.0157741
0.0160852
0.0164033
0.0167286
0.0170613
0.0174017
0.0177501
0.0181068
0.0184721
0.0188463
0.0192298
0.0196228
0.0200258
0.0204391
0.020863
0.0212981
0.0110143
0.011231
0.0114514
0.0116757
0.011904
0.0121364
0.012373
0.012614
0.0128596
0.0131099
0.013365
0.0136252
0.0138905
0.0141611
0.0144374
0.0147193
0.0150071
0.015301
0.0156012
0.015908
0.0162215
0.0165421
0.0168699
0.0172053
0.0175484
0.0178996
0.0182593
0.0186276
0.0190049
0.0193914
0.0197877
0.020194
0.0206107
0.0210382
0.021477
0.0111166
0.0113348
0.0115567
0.0117825
0.0120123
0.0122463
0.0124847
0.0127275
0.0129748
0.0132269
0.013484
0.0137461
0.0140134
0.0142861
0.0145643
0.0148484
0.0151385
0.0154347
0.0157373
0.0160465
0.0163626
0.0166858
0.0170163
0.0173544
0.0177004
0.0180545
0.0184171
0.0187885
0.0191689
0.0195587
0.0199584
0.0203681
0.0207884
0.0212196
0.0216621
0.0112602
0.0114789
0.0117015
0.0119281
0.0121588
0.0123938
0.0126331
0.012877
0.0131255
0.0133788
0.0136372
0.0139006
0.0141694
0.0144436
0.0147235
0.0150093
0.0153011
0.0155992
0.0159038
0.0162151
0.0165334
0.0168588
0.0171916
0.0175322
0.0178807
0.0182374
0.0186027
0.0189768
0.0193602
0.0197531
0.0201559
0.0205689
0.0209926
0.0214273
0.0218736
0.0112601
0.0114788
0.0117014
0.011928
0.0121587
0.0123937
0.012633
0.0128769
0.0131254
0.0133787
0.0136371
0.0139006
0.0141693
0.0144436
0.0147235