/*--------------------------------*- C++ -*----------------------------------*\
  =========                 |
  \\      /  F ield         | OpenFOAM: The Open Source CFD Toolbox
   \\    /   O peration     | Website:  https://openfoam.org
    \\  /    A nd           | Version:  7
     \\/     M anipulation  |
\*---------------------------------------------------------------------------*/
FoamFile
{
    version     2.0;
    format      ascii;
    class       volScalarField;
    location    "268000";
    object      p;
}
// * * * * * * * * * * * * * * * * * * * * * * * * * * * * * * * * * * * * * //

dimensions      [0 2 -2 0 0 0 0];

internalField   nonuniform List<scalar> 
4782
(
-2.62228e-18
-2.6227e-18
-2.62298e-18
-2.62369e-18
-2.62507e-18
-2.62175e-18
-2.61941e-18
-2.6213e-18
-2.6228e-18
-2.62017e-18
-2.62291e-18
-2.62371e-18
-2.63618e-18
-2.63594e-18
-2.63021e-18
-2.64732e-18
-2.63668e-18
-2.61963e-18
-2.62105e-18
-2.6159e-18
-2.61679e-18
-2.62167e-18
-2.62232e-18
-2.62191e-18
-2.61898e-18
-2.62004e-18
-2.61959e-18
-2.61667e-18
-2.61647e-18
-2.61071e-18
-2.61592e-18
-2.62693e-18
-2.63479e-18
-2.62095e-18
-2.61643e-18
-2.61036e-18
-2.61059e-18
-2.61819e-18
-2.62182e-18
-2.61797e-18
-2.61226e-18
-2.61204e-18
-2.62206e-18
-2.62052e-18
-2.61911e-18
-2.61463e-18
-2.61842e-18
-2.62259e-18
-2.61627e-18
-2.6168e-18
-2.6233e-18
-2.6183e-18
-2.61756e-18
-2.62495e-18
-2.62448e-18
-2.61736e-18
-2.61411e-18
-2.61228e-18
-2.62094e-18
-2.62236e-18
-2.62135e-18
-2.61907e-18
-2.61403e-18
-2.61227e-18
-2.61976e-18
-2.64508e-18
-2.64682e-18
-2.64003e-18
-2.64064e-18
-2.6405e-18
-2.64089e-18
-2.64597e-18
-2.6439e-18
-2.63935e-18
-2.6469e-18
-2.63501e-18
-2.63297e-18
-2.63328e-18
-2.62995e-18
-2.62409e-18
-2.63317e-18
-2.6366e-18
-2.63555e-18
-2.62502e-18
-2.62582e-18
-2.62235e-18
-2.62575e-18
-2.62299e-18
-2.61804e-18
-2.61781e-18
-2.62134e-18
-2.61783e-18
-2.60829e-18
-2.61879e-18
-2.62437e-18
-2.61986e-18
-2.61889e-18
-2.62398e-18
-2.62199e-18
-2.61679e-18
-2.61558e-18
-2.62384e-18
-2.62682e-18
-2.62133e-18
-2.61962e-18
-2.61695e-18
-2.6216e-18
-2.61648e-18
-2.61908e-18
-2.6159e-18
-2.6195e-18
-2.62272e-18
-2.62083e-18
-2.61955e-18
-2.62071e-18
-2.62157e-18
-2.625e-18
-2.62235e-18
-2.61966e-18
-2.61981e-18
-2.63492e-18
-2.61725e-18
-2.62342e-18
-2.62184e-18
-2.61734e-18
-2.62008e-18
-2.62117e-18
-2.625e-18
-2.63907e-18
-2.63052e-18
-2.62585e-18
-2.62201e-18
-2.61081e-18
-2.60726e-18
-2.61843e-18
-2.62367e-18
-2.62654e-18
-2.62389e-18
-2.62237e-18
-2.61382e-18
-2.61682e-18
-2.61682e-18
-2.62046e-18
-2.62439e-18
-2.62361e-18
-2.62615e-18
-2.62075e-18
-2.6195e-18
-2.61706e-18
-2.61923e-18
-2.62505e-18
-2.61893e-18
-2.62255e-18
-2.62018e-18
-2.61916e-18
-2.617e-18
-2.62669e-18
-2.62524e-18
-2.62341e-18
-2.62322e-18
-2.62333e-18
-2.62311e-18
-2.62227e-18
-2.61902e-18
-2.62029e-18
-2.62592e-18
-2.62312e-18
-2.62259e-18
-2.62478e-18
-2.62076e-18
-2.61864e-18
-2.62164e-18
-2.62254e-18
-2.62304e-18
-2.62079e-18
-2.63808e-18
-2.64683e-18
-2.64685e-18
-2.63822e-18
-2.63459e-18
-2.62898e-18
-2.63222e-18
-2.64304e-18
-2.64418e-18
-2.64544e-18
-2.63676e-18
-2.63254e-18
-2.63401e-18
-2.64417e-18
-2.64638e-18
-2.6433e-18
-2.64115e-18
-2.64305e-18
-2.6346e-18
-2.63837e-18
-2.64156e-18
-2.63967e-18
-2.62675e-18
-2.62997e-18
-2.63485e-18
-2.63645e-18
-2.62504e-18
-2.63237e-18
-2.63533e-18
-2.6385e-18
-2.63839e-18
-2.62903e-18
-2.62925e-18
-2.64234e-18
-2.63396e-18
-2.62626e-18
-2.63158e-18
-2.6355e-18
-2.63381e-18
-2.63424e-18
-2.62964e-18
-2.62553e-18
-2.62494e-18
-2.62468e-18
-2.6295e-18
-2.62963e-18
-2.63409e-18
-2.63214e-18
-2.62542e-18
-2.62927e-18
-2.62867e-18
-2.62738e-18
-2.62629e-18
-2.62682e-18
-2.62832e-18
-2.64356e-18
-2.63591e-18
-2.63744e-18
-2.63881e-18
-2.64017e-18
-2.6427e-18
-2.64206e-18
-2.64478e-18
-2.63679e-18
-2.62472e-18
-2.63534e-18
-2.64406e-18
-2.64156e-18
-2.62848e-18
-2.62247e-18
-2.62717e-18
-2.63388e-18
-2.62723e-18
-2.63109e-18
-2.62653e-18
-2.63346e-18
-2.62772e-18
-2.63544e-18
-2.6319e-18
-2.62884e-18
-2.62828e-18
-2.63834e-18
-2.62616e-18
-2.6201e-18
-2.62181e-18
-2.62339e-18
-2.62296e-18
-2.62469e-18
-2.61281e-18
-2.62099e-18
-2.62818e-18
-2.62309e-18
-2.62111e-18
-2.62075e-18
-2.62097e-18
-2.62076e-18
-2.62145e-18
-2.62364e-18
-2.627e-18
-2.62167e-18
-2.62196e-18
-2.61681e-18
-2.61808e-18
-2.62362e-18
-2.62077e-18
-2.62081e-18
-2.62156e-18
-2.62303e-18
-2.62395e-18
-2.622e-18
-2.63204e-18
-2.64162e-18
-2.63593e-18
-2.63722e-18
-2.63956e-18
-2.64298e-18
-2.64865e-18
-2.64574e-18
-2.63103e-18
-2.63546e-18
-2.64432e-18
-2.6471e-18
-2.65615e-18
-2.66e-18
-2.6506e-18
-2.63984e-18
-2.63194e-18
-2.63603e-18
-2.63792e-18
-2.64546e-18
-2.63968e-18
-2.63638e-18
-2.63552e-18
-2.63475e-18
-2.63193e-18
-2.62713e-18
-2.63111e-18
-2.6264e-18
-2.62925e-18
-2.62113e-18
-2.61975e-18
-2.62558e-18
-2.62797e-18
-2.62964e-18
-2.6289e-18
-2.63068e-18
-2.62441e-18
-2.6234e-18
-2.62479e-18
-2.62484e-18
-2.62393e-18
-2.62241e-18
-2.62216e-18
-2.62737e-18
-2.62321e-18
-2.61735e-18
-2.6236e-18
-2.62272e-18
-2.61967e-18
-2.62282e-18
-2.62589e-18
-2.62147e-18
-2.62415e-18
-2.62336e-18
-2.62603e-18
-2.62655e-18
-2.62417e-18
-2.62299e-18
-2.62528e-18
-2.64339e-18
-2.64125e-18
-2.63777e-18
-2.64e-18
-2.64099e-18
-2.63952e-18
-2.63788e-18
-2.64354e-18
-2.63914e-18
-2.62627e-18
-2.63641e-18
-2.63693e-18
-2.63408e-18
-2.63275e-18
-2.63984e-18
-2.63092e-18
-2.62764e-18
-2.62704e-18
-2.6285e-18
-2.62693e-18
-2.62996e-18
-2.62511e-18
-2.62723e-18
-2.6301e-18
-2.62594e-18
-2.62379e-18
-2.63263e-18
-2.64042e-18
-2.62777e-18
-2.61923e-18
-2.62079e-18
-2.62526e-18
-2.62093e-18
-2.62433e-18
-2.63304e-18
-2.63452e-18
-2.62373e-18
-2.62103e-18
-2.62779e-18
-2.62514e-18
-2.62738e-18
-2.62512e-18
-2.62882e-18
-2.62602e-18
-2.62868e-18
-2.62807e-18
-2.62403e-18
-2.62566e-18
-2.6275e-18
-2.62554e-18
-2.62729e-18
-2.62487e-18
-2.6235e-18
-2.6247e-18
-2.62607e-18
-2.62541e-18
-2.62769e-18
-2.62891e-18
-2.62987e-18
-2.62652e-18
-2.65075e-18
-2.65298e-18
-2.64732e-18
-2.64551e-18
-2.65433e-18
-2.64798e-18
-2.65331e-18
-2.65366e-18
-2.64791e-18
-2.64151e-18
-2.64082e-18
-2.64869e-18
-2.65689e-18
-2.64942e-18
-2.64793e-18
-2.64432e-18
-2.64349e-18
-2.6454e-18
-2.64443e-18
-2.64978e-18
-2.64491e-18
-2.6327e-18
-2.62827e-18
-2.64047e-18
-2.63809e-18
-2.64608e-18
-2.64888e-18
-2.63762e-18
-2.63097e-18
-2.63434e-18
-2.63975e-18
-2.63995e-18
-2.62936e-18
-2.63048e-18
-2.63122e-18
-2.63408e-18
-2.62773e-18
-2.62386e-18
-2.63324e-18
-2.63382e-18
-2.62761e-18
-2.63367e-18
-2.63401e-18
-2.62699e-18
-2.62733e-18
-2.63594e-18
-2.63688e-18
-2.63675e-18
-2.6317e-18
-2.63302e-18
-2.63223e-18
-2.63227e-18
-2.63511e-18
-2.63424e-18
-2.63248e-18
-2.63231e-18
-2.63275e-18
-2.63797e-18
-2.63542e-18
-2.63518e-18
-2.63223e-18
-2.63189e-18
-2.63332e-18
-2.63634e-18
-2.63551e-18
-2.63229e-18
-2.63434e-18
-2.63359e-18
-2.63422e-18
-2.63403e-18
-2.63474e-18
-2.63586e-18
-2.63469e-18
-2.63512e-18
-2.6344e-18
-2.63472e-18
-2.63518e-18
-2.6357e-18
-2.63511e-18
-2.63519e-18
-2.6353e-18
-2.63496e-18
-2.63497e-18
-2.63515e-18
-2.63489e-18
-2.63535e-18
-2.63515e-18
-2.63491e-18
-2.63519e-18
-2.63536e-18
-2.63533e-18
-2.63519e-18
-2.63516e-18
-2.6351e-18
-2.63509e-18
-2.62999e-18
-2.64049e-18
-2.64209e-18
-2.63867e-18
-2.62237e-18
-2.62916e-18
-2.63085e-18
-2.63748e-18
-2.63159e-18
-2.63281e-18
-2.63154e-18
-2.62803e-18
-2.63142e-18
-2.63517e-18
-2.63146e-18
-2.6309e-18
-2.63113e-18
-2.62346e-18
-2.63334e-18
-2.6397e-18
-2.63721e-18
-2.63468e-18
-2.63085e-18
-2.6297e-18
-2.62933e-18
-2.62842e-18
-2.62902e-18
-2.6352e-18
-2.634e-18
-2.62891e-18
-2.62692e-18
-2.63212e-18
-2.63338e-18
-2.63687e-18
-2.63378e-18
-2.63613e-18
-2.63905e-18
-2.63745e-18
-2.63321e-18
-2.63001e-18
-2.63137e-18
-2.63363e-18
-2.63233e-18
-2.63161e-18
-2.63085e-18
-2.63304e-18
-2.63221e-18
-2.63222e-18
-2.63106e-18
-2.6288e-18
-2.63156e-18
-2.63342e-18
-2.63115e-18
-2.63036e-18
-2.63254e-18
-2.63143e-18
-2.6326e-18
-2.6308e-18
-2.63158e-18
-2.63071e-18
-2.63022e-18
-2.632e-18
-2.63061e-18
-2.63288e-18
-2.63641e-18
-2.63384e-18
-2.63228e-18
-2.63311e-18
-2.6323e-18
-2.63347e-18
-2.63392e-18
-2.63411e-18
-2.63281e-18
-2.63237e-18
-2.63278e-18
-2.63298e-18
-2.63282e-18
-2.6333e-18
-2.63288e-18
-2.63299e-18
-2.63359e-18
-2.63298e-18
-2.63334e-18
-2.6334e-18
-2.63343e-18
-2.63305e-18
-2.6329e-18
-2.63313e-18
-2.63301e-18
-2.63319e-18
-2.63322e-18
-2.63298e-18
-2.63319e-18
-2.63322e-18
-2.6332e-18
-2.64558e-18
-2.65153e-18
-2.65448e-18
-2.6488e-18
-2.64818e-18
-2.64381e-18
-2.64342e-18
-2.65003e-18
-2.64715e-18
-2.64996e-18
-2.63719e-18
-2.63421e-18
-2.65102e-18
-2.6538e-18
-2.64499e-18
-2.63516e-18
-2.63962e-18
-2.6451e-18
-2.63669e-18
-2.63634e-18
-2.63689e-18
-2.63655e-18
-2.63495e-18
-2.63216e-18
-2.63511e-18
-2.63425e-18
-2.62925e-18
-2.63177e-18
-2.63056e-18
-2.63809e-18
-2.63727e-18
-2.63461e-18
-2.63581e-18
-2.63402e-18
-2.63916e-18
-2.65255e-18
-2.64465e-18
-2.64252e-18
-2.64217e-18
-2.64385e-18
-2.64262e-18
-2.64339e-18
-2.64578e-18
-2.64569e-18
-2.64476e-18
-2.64391e-18
-2.63728e-18
-2.63876e-18
-2.64188e-18
-2.648e-18
-2.64282e-18
-2.64304e-18
-2.64558e-18
-2.64788e-18
-2.64605e-18
-2.64398e-18
-2.64628e-18
-2.6461e-18
-2.6437e-18
-2.6446e-18
-2.64077e-18
-2.64169e-18
-2.64232e-18
-2.64119e-18
-2.64286e-18
-2.643e-18
-2.64343e-18
-2.64512e-18
-2.64448e-18
-2.64361e-18
-2.6423e-18
-2.64183e-18
-2.64243e-18
-2.64303e-18
-2.64351e-18
-2.64236e-18
-2.64236e-18
-2.64259e-18
-2.64278e-18
-2.64311e-18
-2.64271e-18
-2.64216e-18
-2.64201e-18
-2.64255e-18
-2.64231e-18
-2.64166e-18
-2.64167e-18
-2.64183e-18
-2.64182e-18
-2.64199e-18
-2.642e-18
-2.64185e-18
-2.64172e-18
-2.64187e-18
-2.64187e-18
-2.62478e-18
-2.63148e-18
-2.62568e-18
-2.63689e-18
-2.62922e-18
-2.6271e-18
-2.63473e-18
-2.63659e-18
-2.6449e-18
-2.64344e-18
-2.63015e-18
-2.63155e-18
-2.63696e-18
-2.63694e-18
-2.63163e-18
-2.638e-18
-2.63847e-18
-2.6336e-18
-2.6404e-18
-2.6369e-18
-2.63617e-18
-2.63085e-18
-2.63034e-18
-2.62695e-18
-2.63384e-18
-2.63663e-18
-2.62967e-18
-2.63309e-18
-2.63675e-18
-2.64551e-18
-2.63797e-18
-2.63625e-18
-2.636e-18
-2.64504e-18
-2.63959e-18
-2.63596e-18
-2.64072e-18
-2.64426e-18
-2.65082e-18
-2.64348e-18
-2.64613e-18
-2.64746e-18
-2.6488e-18
-2.64638e-18
-2.64552e-18
-2.64856e-18
-2.64981e-18
-2.6485e-18
-2.64303e-18
-2.64537e-18
-2.6452e-18
-2.64553e-18
-2.64455e-18
-2.64608e-18
-2.64485e-18
-2.64159e-18
-2.64452e-18
-2.64205e-18
-2.64246e-18
-2.644e-18
-2.64329e-18
-2.63948e-18
-2.63928e-18
-2.64056e-18
-2.63921e-18
-2.64036e-18
-2.63999e-18
-2.63903e-18
-2.63823e-18
-2.63942e-18
-2.63884e-18
-2.63826e-18
-2.63897e-18
-2.63806e-18
-2.63829e-18
-2.63866e-18
-2.63818e-18
-2.63825e-18
-2.6374e-18
-2.63778e-18
-2.63785e-18
-2.63847e-18
-2.63857e-18
-2.63835e-18
-2.63836e-18
-2.63817e-18
-2.63818e-18
-2.63805e-18
-2.63808e-18
-2.63818e-18
-2.63826e-18
-2.63822e-18
-2.63812e-18
-2.63813e-18
-2.63817e-18
-2.65304e-18
-2.64122e-18
-2.6335e-18
-2.63665e-18
-2.62604e-18
-2.63399e-18
-2.6354e-18
-2.62916e-18
-2.6384e-18
-2.6466e-18
-2.63688e-18
-2.63836e-18
-2.64338e-18
-2.64166e-18
-2.64135e-18
-2.63648e-18
-2.6417e-18
-2.64666e-18
-2.63721e-18
-2.64262e-18
-2.64175e-18
-2.64478e-18
-2.65171e-18
-2.64221e-18
-2.6497e-18
-2.64549e-18
-2.64033e-18
-2.6479e-18
-2.6503e-18
-2.65493e-18
-2.65425e-18
-2.65077e-18
-2.65064e-18
-2.65187e-18
-2.65402e-18
-2.65305e-18
-2.65297e-18
-2.64916e-18
-2.65312e-18
-2.65711e-18
-2.64526e-18
-2.64569e-18
-2.65058e-18
-2.65199e-18
-2.65069e-18
-2.64856e-18
-2.65151e-18
-2.65128e-18
-2.64854e-18
-2.65335e-18
-2.65568e-18
-2.65332e-18
-2.65083e-18
-2.65347e-18
-2.65463e-18
-2.65224e-18
-2.64987e-18
-2.65168e-18
-2.65273e-18
-2.65016e-18
-2.64761e-18
-2.64841e-18
-2.64954e-18
-2.64868e-18
-2.64818e-18
-2.64746e-18
-2.64733e-18
-2.64774e-18
-2.64794e-18
-2.64725e-18
-2.64655e-18
-2.64741e-18
-2.64752e-18
-2.64603e-18
-2.64682e-18
-2.64631e-18
-2.64669e-18
-2.64679e-18
-2.64689e-18
-2.64639e-18
-2.64681e-18
-2.64634e-18
-2.64591e-18
-2.64615e-18
-2.64645e-18
-2.64599e-18
-2.64551e-18
-2.64587e-18
-2.6458e-18
-2.6458e-18
-2.64592e-18
-2.64593e-18
-2.64587e-18
-2.64585e-18
-2.64584e-18
-2.62804e-18
-2.63245e-18
-2.63269e-18
-2.62791e-18
-2.61587e-18
-2.62188e-18
-2.62718e-18
-2.62204e-18
-2.62102e-18
-2.62811e-18
-2.60691e-18
-2.6137e-18
-2.61558e-18
-2.61682e-18
-2.62059e-18
-2.61884e-18
-2.61962e-18
-2.62475e-18
-2.61887e-18
-2.62396e-18
-2.62542e-18
-2.62332e-18
-2.62666e-18
-2.62647e-18
-2.6221e-18
-2.62605e-18
-2.63003e-18
-2.63251e-18
-2.63314e-18
-2.62672e-18
-2.63122e-18
-2.63543e-18
-2.63526e-18
-2.63007e-18
-2.64078e-18
-2.6476e-18
-2.64428e-18
-2.6368e-18
-2.63874e-18
-2.64262e-18
-2.64535e-18
-2.64442e-18
-2.64415e-18
-2.64107e-18
-2.64662e-18
-2.64389e-18
-2.64447e-18
-2.64819e-18
-2.64899e-18
-2.64619e-18
-2.64072e-18
-2.64537e-18
-2.6473e-18
-2.64665e-18
-2.64427e-18
-2.64456e-18
-2.64705e-18
-2.64423e-18
-2.64302e-18
-2.64268e-18
-2.64032e-18
-2.63943e-18
-2.64246e-18
-2.6425e-18
-2.6402e-18
-2.64011e-18
-2.6406e-18
-2.63963e-18
-2.63988e-18
-2.6397e-18
-2.6392e-18
-2.63977e-18
-2.63953e-18
-2.64001e-18
-2.63976e-18
-2.63943e-18
-2.63905e-18
-2.6395e-18
-2.6394e-18
-2.63964e-18
-2.63876e-18
-2.63902e-18
-2.63943e-18
-2.6394e-18
-2.63901e-18
-2.6387e-18
-2.63894e-18
-2.63925e-18
-2.63941e-18
-2.6391e-18
-2.63897e-18
-2.63897e-18
-2.63905e-18
-2.63904e-18
-2.63902e-18
-2.65145e-18
-2.64847e-18
-2.64778e-18
-2.63847e-18
-2.63087e-18
-2.64661e-18
-2.63916e-18
-2.63665e-18
-2.64247e-18
-2.63474e-18
-2.63056e-18
-2.63648e-18
-2.63337e-18
-2.62865e-18
-2.63747e-18
-2.6375e-18
-2.63794e-18
-2.64116e-18
-2.637e-18
-2.63423e-18
-2.642e-18
-2.64603e-18
-2.64056e-18
-2.6382e-18
-2.6327e-18
-2.64257e-18
-2.64292e-18
-2.63908e-18
-2.63797e-18
-2.63789e-18
-2.63643e-18
-2.63318e-18
-2.63661e-18
-2.63029e-18
-2.63716e-18
-2.64103e-18
-2.63514e-18
-2.63288e-18
-2.63688e-18
-2.64256e-18
-2.64789e-18
-2.64307e-18
-2.63777e-18
-2.64141e-18
-2.64657e-18
-2.64137e-18
-2.64583e-18
-2.64591e-18
-2.64404e-18
-2.64502e-18
-2.64548e-18
-2.64546e-18
-2.64497e-18
-2.64479e-18
-2.64391e-18
-2.64477e-18
-2.6421e-18
-2.64284e-18
-2.64504e-18
-2.64592e-18
-2.64482e-18
-2.64709e-18
-2.64537e-18
-2.64297e-18
-2.64095e-18
-2.6429e-18
-2.64377e-18
-2.64313e-18
-2.64384e-18
-2.64494e-18
-2.64386e-18
-2.64394e-18
-2.64287e-18
-2.64326e-18
-2.64315e-18
-2.64284e-18
-2.64336e-18
-2.6436e-18
-2.64391e-18
-2.6437e-18
-2.64359e-18
-2.64359e-18
-2.6436e-18
-2.64338e-18
-2.64292e-18
-2.64336e-18
-2.64354e-18
-2.64355e-18
-2.64382e-18
-2.64359e-18
-2.6436e-18
-2.64366e-18
-2.6436e-18
-2.64356e-18
-2.64358e-18
-2.61317e-18
-2.6118e-18
-2.61976e-18
-2.6253e-18
-2.63133e-18
-2.62557e-18
-2.62935e-18
-2.61679e-18
-2.62142e-18
-2.62647e-18
-2.61821e-18
-2.62869e-18
-2.62322e-18
-2.61762e-18
-2.62996e-18
-2.62297e-18
-2.62763e-18
-2.63022e-18
-2.62125e-18
-2.62013e-18
-2.61312e-18
-2.62177e-18
-2.61864e-18
-2.61739e-18
-2.62063e-18
-2.61763e-18
-2.60969e-18
-2.62235e-18
-2.61846e-18
-2.62407e-18
-2.62301e-18
-2.62022e-18
-2.61806e-18
-2.62442e-18
-2.62569e-18
-2.63338e-18
-2.62897e-18
-2.63233e-18
-2.6276e-18
-2.628e-18
-2.62891e-18
-2.62966e-18
-2.63059e-18
-2.6365e-18
-2.63386e-18
-2.63089e-18
-2.63121e-18
-2.63346e-18
-2.63472e-18
-2.63449e-18
-2.6345e-18
-2.63366e-18
-2.63199e-18
-2.63462e-18
-2.63714e-18
-2.63594e-18
-2.63473e-18
-2.63351e-18
-2.63406e-18
-2.63334e-18
-2.63428e-18
-2.63587e-18
-2.63547e-18
-2.63543e-18
-2.63357e-18
-2.63328e-18
-2.63452e-18
-2.6356e-18
-2.63578e-18
-2.6346e-18
-2.63402e-18
-2.63632e-18
-2.63538e-18
-2.63425e-18
-2.63486e-18
-2.63516e-18
-2.63503e-18
-2.6349e-18
-2.63564e-18
-2.63567e-18
-2.6347e-18
-2.63475e-18
-2.63516e-18
-2.63526e-18
-2.63518e-18
-2.63524e-18
-2.63528e-18
-2.63525e-18
-2.6352e-18
-2.63534e-18
-2.63531e-18
-2.63542e-18
-2.63533e-18
-2.63535e-18
-2.63533e-18
-2.64219e-18
-2.64817e-18
-2.64897e-18
-2.64349e-18
-2.64224e-18
-2.64733e-18
-2.65433e-18
-2.63846e-18
-2.63756e-18
-2.64022e-18
-2.63678e-18
-2.62949e-18
-2.62751e-18
-2.63794e-18
-2.63341e-18
-2.63112e-18
-2.62306e-18
-2.61986e-18
-2.63338e-18
-2.63412e-18
-2.63189e-18
-2.63092e-18
-2.63642e-18
-2.63225e-18
-2.62443e-18
-2.62543e-18
-2.62984e-18
-2.63808e-18
-2.63486e-18
-2.63356e-18
-2.63279e-18
-2.63292e-18
-2.63396e-18
-2.6367e-18
-2.6392e-18
-2.63374e-18
-2.64072e-18
-2.6346e-18
-2.63318e-18
-2.63768e-18
-2.63753e-18
-2.63815e-18
-2.63725e-18
-2.63963e-18
-2.6383e-18
-2.63003e-18
-2.63928e-18
-2.64051e-18
-2.63695e-18
-2.63461e-18
-2.63645e-18
-2.63612e-18
-2.63794e-18
-2.63594e-18
-2.63749e-18
-2.6373e-18
-2.6395e-18
-2.63926e-18
-2.63929e-18
-2.6386e-18
-2.63839e-18
-2.6379e-18
-2.64075e-18
-2.6415e-18
-2.63983e-18
-2.64134e-18
-2.64143e-18
-2.64079e-18
-2.6411e-18
-2.64096e-18
-2.64078e-18
-2.63954e-18
-2.63962e-18
-2.63966e-18
-2.64054e-18
-2.64129e-18
-2.64133e-18
-2.64156e-18
-2.64215e-18
-2.64196e-18
-2.64224e-18
-2.64157e-18
-2.64168e-18
-2.642e-18
-2.6419e-18
-2.64173e-18
-2.6415e-18
-2.64176e-18
-2.64191e-18
-2.64194e-18
-2.64186e-18
-2.64192e-18
-2.64199e-18
-2.64198e-18
-2.64195e-18
-2.63046e-18
-2.64028e-18
-2.63611e-18
-2.62795e-18
-2.62391e-18
-2.62144e-18
-2.6318e-18
-2.63802e-18
-2.63724e-18
-2.62865e-18
-2.63163e-18
-2.63319e-18
-2.63138e-18
-2.62521e-18
-2.62484e-18
-2.62721e-18
-2.63039e-18
-2.62176e-18
-2.62749e-18
-2.62056e-18
-2.62262e-18
-2.62938e-18
-2.63176e-18
-2.62137e-18
-2.62357e-18
-2.63333e-18
-2.63605e-18
-2.62564e-18
-2.6221e-18
-2.62975e-18
-2.62994e-18
-2.62807e-18
-2.62413e-18
-2.62235e-18
-2.62707e-18
-2.62636e-18
-2.62699e-18
-2.62918e-18
-2.62636e-18
-2.62453e-18
-2.62762e-18
-2.62588e-18
-2.62858e-18
-2.62889e-18
-2.63189e-18
-2.62955e-18
-2.62781e-18
-2.62659e-18
-2.63246e-18
-2.63422e-18
-2.63123e-18
-2.62854e-18
-2.63134e-18
-2.63375e-18
-2.63607e-18
-2.63491e-18
-2.63399e-18
-2.63141e-18
-2.63201e-18
-2.63463e-18
-2.63211e-18
-2.63478e-18
-2.63442e-18
-2.63315e-18
-2.63479e-18
-2.63505e-18
-2.63482e-18
-2.63448e-18
-2.63475e-18
-2.63545e-18
-2.63479e-18
-2.63412e-18
-2.63505e-18
-2.63497e-18
-2.63479e-18
-2.6355e-18
-2.63625e-18
-2.63639e-18
-2.63542e-18
-2.63548e-18
-2.6359e-18
-2.63552e-18
-2.63552e-18
-2.63591e-18
-2.63595e-18
-2.6357e-18
-2.63564e-18
-2.63578e-18
-2.6361e-18
-2.63621e-18
-2.63614e-18
-2.6359e-18
-2.63607e-18
-2.63616e-18
-2.63614e-18
-2.66015e-18
-2.6627e-18
-2.64808e-18
-2.64705e-18
-2.64885e-18
-2.64527e-18
-2.64437e-18
-2.65266e-18
-2.64686e-18
-2.64456e-18
-2.64581e-18
-2.6506e-18
-2.65262e-18
-2.64268e-18
-2.63724e-18
-2.63504e-18
-2.63986e-18
-2.64182e-18
-2.64118e-18
-2.64831e-18
-2.64586e-18
-2.64465e-18
-2.64636e-18
-2.64645e-18
-2.64553e-18
-2.64667e-18
-2.64503e-18
-2.65207e-18
-2.64316e-18
-2.63989e-18
-2.63678e-18
-2.64287e-18
-2.64243e-18
-2.64641e-18
-2.63969e-18
-2.63913e-18
-2.64306e-18
-2.6349e-18
-2.63534e-18
-2.64067e-18
-2.63991e-18
-2.63859e-18
-2.6387e-18
-2.64017e-18
-2.63919e-18
-2.6395e-18
-2.63689e-18
-2.63734e-18
-2.63929e-18
-2.63955e-18
-2.63627e-18
-2.64093e-18
-2.64185e-18
-2.6369e-18
-2.63787e-18
-2.63981e-18
-2.64243e-18
-2.63932e-18
-2.63996e-18
-2.64545e-18
-2.64636e-18
-2.64192e-18
-2.64198e-18
-2.64364e-18
-2.64511e-18
-2.64455e-18
-2.64361e-18
-2.64479e-18
-2.64564e-18
-2.64538e-18
-2.64532e-18
-2.64428e-18
-2.64604e-18
-2.64683e-18
-2.6457e-18
-2.64593e-18
-2.64688e-18
-2.64644e-18
-2.64587e-18
-2.64636e-18
-2.64675e-18
-2.64646e-18
-2.64649e-18
-2.64654e-18
-2.64641e-18
-2.64663e-18
-2.64665e-18
-2.64652e-18
-2.64649e-18
-2.64649e-18
-2.64648e-18
-2.64642e-18
-2.64645e-18
-2.64648e-18
-2.6465e-18
-2.64911e-18
-2.64028e-18
-2.64411e-18
-2.64168e-18
-2.65064e-18
-2.64992e-18
-2.64787e-18
-2.64006e-18
-2.64858e-18
-2.64264e-18
-2.63668e-18
-2.63795e-18
-2.6378e-18
-2.64037e-18
-2.63975e-18
-2.64006e-18
-2.63734e-18
-2.63547e-18
-2.64214e-18
-2.64298e-18
-2.64374e-18
-2.6435e-18
-2.64191e-18
-2.63986e-18
-2.63552e-18
-2.63452e-18
-2.6299e-18
-2.63777e-18
-2.64242e-18
-2.63713e-18
-2.63665e-18
-2.63446e-18
-2.63327e-18
-2.63078e-18
-2.63453e-18
-2.63583e-18
-2.63808e-18
-2.63625e-18
-2.63436e-18
-2.63824e-18
-2.63719e-18
-2.63308e-18
-2.63416e-18
-2.63542e-18
-2.63562e-18
-2.63175e-18
-2.63417e-18
-2.6344e-18
-2.63511e-18
-2.63091e-18
-2.63416e-18
-2.63698e-18
-2.63464e-18
-2.6351e-18
-2.63574e-18
-2.64049e-18
-2.64005e-18
-2.63748e-18
-2.63731e-18
-2.63655e-18
-2.6366e-18
-2.63699e-18
-2.63732e-18
-2.63797e-18
-2.63969e-18
-2.64086e-18
-2.64008e-18
-2.64007e-18
-2.64019e-18
-2.64075e-18
-2.64149e-18
-2.64098e-18
-2.64046e-18
-2.64061e-18
-2.64181e-18
-2.64133e-18
-2.64119e-18
-2.64184e-18
-2.64116e-18
-2.64085e-18
-2.6404e-18
-2.64103e-18
-2.64141e-18
-2.64092e-18
-2.64106e-18
-2.6413e-18
-2.64123e-18
-2.64128e-18
-2.64121e-18
-2.64103e-18
-2.64114e-18
-2.64115e-18
-2.64106e-18
-2.64103e-18
-2.64104e-18
-2.66385e-18
-2.65303e-18
-2.65238e-18
-2.65677e-18
-2.66748e-18
-2.66481e-18
-2.66036e-18
-2.65538e-18
-2.65433e-18
-2.64702e-18
-2.64967e-18
-2.64839e-18
-2.6505e-18
-2.64459e-18
-2.64821e-18
-2.64801e-18
-2.64797e-18
-2.64518e-18
-2.64452e-18
-2.64294e-18
-2.64707e-18
-2.64103e-18
-2.6401e-18
-2.64495e-18
-2.64624e-18
-2.64412e-18
-2.64259e-18
-2.64419e-18
-2.64583e-18
-2.6487e-18
-2.6516e-18
-2.65107e-18
-2.64644e-18
-2.64545e-18
-2.65064e-18
-2.64993e-18
-2.64791e-18
-2.65282e-18
-2.65466e-18
-2.65217e-18
-2.64716e-18
-2.64865e-18
-2.64955e-18
-2.64798e-18
-2.64465e-18
-2.64701e-18
-2.64762e-18
-2.6489e-18
-2.64998e-18
-2.64775e-18
-2.65067e-18
-2.6501e-18
-2.6491e-18
-2.64899e-18
-2.64898e-18
-2.64955e-18
-2.64899e-18
-2.64826e-18
-2.64726e-18
-2.64923e-18
-2.64872e-18
-2.65142e-18
-2.64955e-18
-2.64838e-18
-2.64825e-18
-2.64964e-18
-2.64791e-18
-2.64886e-18
-2.64881e-18
-2.65048e-18
-2.65136e-18
-2.6504e-18
-2.6498e-18
-2.65007e-18
-2.65024e-18
-2.65037e-18
-2.65069e-18
-2.65093e-18
-2.65044e-18
-2.65073e-18
-2.65043e-18
-2.65038e-18
-2.65074e-18
-2.65055e-18
-2.65003e-18
-2.65038e-18
-2.65058e-18
-2.65003e-18
-2.65016e-18
-2.6502e-18
-2.65019e-18
-2.65026e-18
-2.65017e-18
-2.65022e-18
-2.6502e-18
-2.64933e-18
-2.64881e-18
-2.6481e-18
-2.64715e-18
-2.64698e-18
-2.6545e-18
-2.64238e-18
-2.64019e-18
-2.64098e-18
-2.64467e-18
-2.63839e-18
-2.64474e-18
-2.64034e-18
-2.63359e-18
-2.63572e-18
-2.64455e-18
-2.64323e-18
-2.6419e-18
-2.64438e-18
-2.64013e-18
-2.64148e-18
-2.63944e-18
-2.64606e-18
-2.645e-18
-2.64486e-18
-2.64121e-18
-2.63924e-18
-2.64273e-18
-2.64695e-18
-2.65113e-18
-2.64195e-18
-2.64311e-18
-2.6461e-18
-2.64596e-18
-2.64504e-18
-2.64591e-18
-2.64452e-18
-2.64093e-18
-2.64118e-18
-2.64096e-18
-2.64641e-18
-2.64908e-18
-2.64218e-18
-2.64047e-18
-2.64314e-18
-2.64077e-18
-2.63989e-18
-2.64014e-18
-2.64029e-18
-2.64234e-18
-2.6415e-18
-2.64359e-18
-2.64026e-18
-2.63978e-18
-2.63797e-18
-2.63906e-18
-2.64198e-18
-2.64382e-18
-2.6434e-18
-2.64295e-18
-2.64367e-18
-2.64255e-18
-2.64254e-18
-2.64228e-18
-2.64229e-18
-2.64273e-18
-2.64382e-18
-2.64408e-18
-2.64347e-18
-2.64309e-18
-2.64385e-18
-2.64395e-18
-2.6443e-18
-2.64462e-18
-2.64432e-18
-2.64463e-18
-2.64455e-18
-2.64406e-18
-2.64406e-18
-2.6444e-18
-2.64416e-18
-2.6443e-18
-2.64418e-18
-2.64391e-18
-2.64415e-18
-2.64413e-18
-2.64393e-18
-2.64398e-18
-2.6438e-18
-2.64383e-18
-2.64392e-18
-2.64379e-18
-2.64384e-18
-2.64391e-18
-2.64396e-18
-2.64596e-18
-2.65319e-18
-2.65676e-18
-2.65818e-18
-2.65079e-18
-2.64606e-18
-2.64807e-18
-2.64785e-18
-2.65119e-18
-2.65145e-18
-2.6475e-18
-2.64707e-18
-2.65214e-18
-2.6555e-18
-2.65022e-18
-2.64348e-18
-2.64095e-18
-2.64542e-18
-2.64421e-18
-2.647e-18
-2.64717e-18
-2.64387e-18
-2.64309e-18
-2.64327e-18
-2.64484e-18
-2.64778e-18
-2.64608e-18
-2.64623e-18
-2.64478e-18
-2.64585e-18
-2.65219e-18
-2.64864e-18
-2.64569e-18
-2.64825e-18
-2.652e-18
-2.64948e-18
-2.64859e-18
-2.64601e-18
-2.6464e-18
-2.64929e-18
-2.64745e-18
-2.64903e-18
-2.65092e-18
-2.64545e-18
-2.64835e-18
-2.64816e-18
-2.64683e-18
-2.64976e-18
-2.65154e-18
-2.64852e-18
-2.64952e-18
-2.65137e-18
-2.65112e-18
-2.64965e-18
-2.65159e-18
-2.6501e-18
-2.65139e-18
-2.65153e-18
-2.64898e-18
-2.64644e-18
-2.64831e-18
-2.65007e-18
-2.64835e-18
-2.6479e-18
-2.64797e-18
-2.64938e-18
-2.6497e-18
-2.64926e-18
-2.64871e-18
-2.64973e-18
-2.65006e-18
-2.649e-18
-2.64829e-18
-2.64826e-18
-2.64844e-18
-2.64846e-18
-2.64797e-18
-2.64859e-18
-2.64917e-18
-2.64909e-18
-2.64869e-18
-2.64882e-18
-2.64885e-18
-2.64887e-18
-2.64869e-18
-2.64866e-18
-2.64881e-18
-2.64895e-18
-2.64887e-18
-2.64887e-18
-2.64888e-18
-2.64887e-18
-2.64876e-18
-2.64874e-18
-2.64882e-18
-2.64585e-18
-2.65363e-18
-2.65168e-18
-2.63664e-18
-2.64244e-18
-2.649e-18
-2.64982e-18
-2.64399e-18
-2.64496e-18
-2.64921e-18
-2.64035e-18
-2.63673e-18
-2.63278e-18
-2.63048e-18
-2.62868e-18
-2.6335e-18
-2.63402e-18
-2.63137e-18
-2.63128e-18
-2.63181e-18
-2.63012e-18
-2.63183e-18
-2.63551e-18
-2.63669e-18
-2.63593e-18
-2.63803e-18
-2.64035e-18
-2.64001e-18
-2.64001e-18
-2.63746e-18
-2.63968e-18
-2.6361e-18
-2.63596e-18
-2.63919e-18
-2.63807e-18
-2.63682e-18
-2.6373e-18
-2.63838e-18
-2.63972e-18
-2.63884e-18
-2.64474e-18
-2.64517e-18
-2.64463e-18
-2.6415e-18
-2.64126e-18
-2.64034e-18
-2.64182e-18
-2.64234e-18
-2.64424e-18
-2.64436e-18
-2.64362e-18
-2.64395e-18
-2.64398e-18
-2.64031e-18
-2.64254e-18
-2.64193e-18
-2.64128e-18
-2.64154e-18
-2.64369e-18
-2.64263e-18
-2.64256e-18
-2.64299e-18
-2.64368e-18
-2.64345e-18
-2.64253e-18
-2.64199e-18
-2.6427e-18
-2.64257e-18
-2.64193e-18
-2.64226e-18
-2.64161e-18
-2.64156e-18
-2.64134e-18
-2.6409e-18
-2.6413e-18
-2.64122e-18
-2.64148e-18
-2.64127e-18
-2.64112e-18
-2.64145e-18
-2.64126e-18
-2.64103e-18
-2.64102e-18
-2.64112e-18
-2.64107e-18
-2.64114e-18
-2.64118e-18
-2.64124e-18
-2.64125e-18
-2.64121e-18
-2.6411e-18
-2.64107e-18
-2.64108e-18
-2.6411e-18
-2.64112e-18
-2.65229e-18
-2.65026e-18
-2.64451e-18
-2.64576e-18
-2.65055e-18
-2.6473e-18
-2.64177e-18
-2.63947e-18
-2.64029e-18
-2.64539e-18
-2.64927e-18
-2.65115e-18
-2.64696e-18
-2.64417e-18
-2.64472e-18
-2.64041e-18
-2.64221e-18
-2.64897e-18
-2.64621e-18
-2.64378e-18
-2.64444e-18
-2.64624e-18
-2.64454e-18
-2.64433e-18
-2.64821e-18
-2.64739e-18
-2.64113e-18
-2.64265e-18
-2.64418e-18
-2.64537e-18
-2.64628e-18
-2.6429e-18
-2.64127e-18
-2.64402e-18
-2.64378e-18
-2.64287e-18
-2.64058e-18
-2.64414e-18
-2.64626e-18
-2.64177e-18
-2.63912e-18
-2.6375e-18
-2.63949e-18
-2.64206e-18
-2.64428e-18
-2.64371e-18
-2.64442e-18
-2.64605e-18
-2.64362e-18
-2.64327e-18
-2.64519e-18
-2.64519e-18
-2.6447e-18
-2.64348e-18
-2.64565e-18
-2.6468e-18
-2.64605e-18
-2.64537e-18
-2.64453e-18
-2.64541e-18
-2.64499e-18
-2.6443e-18
-2.64356e-18
-2.64484e-18
-2.64486e-18
-2.64444e-18
-2.64378e-18
-2.64378e-18
-2.64489e-18
-2.64429e-18
-2.64513e-18
-2.64553e-18
-2.64521e-18
-2.64432e-18
-2.64362e-18
-2.64365e-18
-2.64376e-18
-2.64449e-18
-2.64489e-18
-2.6444e-18
-2.64413e-18
-2.64415e-18
-2.64404e-18
-2.64428e-18
-2.6445e-18
-2.64431e-18
-2.64416e-18
-2.64414e-18
-2.6444e-18
-2.64438e-18
-2.6443e-18
-2.64428e-18
-2.64429e-18
-2.64431e-18
-2.64432e-18
-2.65456e-18
-2.65244e-18
-2.64943e-18
-2.65388e-18
-2.64912e-18
-2.64667e-18
-2.64762e-18
-2.64987e-18
-2.64338e-18
-2.64466e-18
-2.64585e-18
-2.64368e-18
-2.64137e-18
-2.64306e-18
-2.64352e-18
-2.64486e-18
-2.64612e-18
-2.64142e-18
-2.6366e-18
-2.63734e-18
-2.63974e-18
-2.64103e-18
-2.64403e-18
-2.64431e-18
-2.64057e-18
-2.63937e-18
-2.63979e-18
-2.64013e-18
-2.6379e-18
-2.63598e-18
-2.63719e-18
-2.63463e-18
-2.63354e-18
-2.63542e-18
-2.63828e-18
-2.63917e-18
-2.63924e-18
-2.6425e-18
-2.6425e-18
-2.6386e-18
-2.63577e-18
-2.63865e-18
-2.64047e-18
-2.63672e-18
-2.63838e-18
-2.63746e-18
-2.6374e-18
-2.63699e-18
-2.63681e-18
-2.63687e-18
-2.63717e-18
-2.63605e-18
-2.63596e-18
-2.63686e-18
-2.63717e-18
-2.63694e-18
-2.63617e-18
-2.63631e-18
-2.63732e-18
-2.63838e-18
-2.6385e-18
-2.63679e-18
-2.63766e-18
-2.63758e-18
-2.63757e-18
-2.63854e-18
-2.63693e-18
-2.63752e-18
-2.6368e-18
-2.63672e-18
-2.63809e-18
-2.63832e-18
-2.63831e-18
-2.63841e-18
-2.63848e-18
-2.63834e-18
-2.63837e-18
-2.63871e-18
-2.63904e-18
-2.63911e-18
-2.63892e-18
-2.63881e-18
-2.63901e-18
-2.63912e-18
-2.63893e-18
-2.63902e-18
-2.63902e-18
-2.63923e-18
-2.63926e-18
-2.63912e-18
-2.63915e-18
-2.63922e-18
-2.63925e-18
-2.63927e-18
-2.63926e-18
-2.64672e-18
-2.64048e-18
-2.64348e-18
-2.64609e-18
-2.652e-18
-2.65094e-18
-2.64311e-18
-2.64542e-18
-2.64975e-18
-2.64869e-18
-2.64889e-18
-2.64708e-18
-2.65068e-18
-2.65341e-18
-2.6522e-18
-2.65324e-18
-2.64946e-18
-2.64877e-18
-2.65015e-18
-2.6489e-18
-2.6469e-18
-2.64499e-18
-2.63901e-18
-2.64442e-18
-2.64708e-18
-2.64581e-18
-2.64462e-18
-2.64177e-18
-2.64694e-18
-2.64548e-18
-2.64415e-18
-2.64412e-18
-2.64419e-18
-2.64318e-18
-2.63996e-18
-2.64352e-18
-2.64707e-18
-2.64234e-18
-2.64443e-18
-2.64126e-18
-2.64262e-18
-2.64335e-18
-2.64347e-18
-2.64266e-18
-2.64289e-18
-2.6441e-18
-2.64198e-18
-2.63965e-18
-2.6406e-18
-2.6387e-18
-2.63993e-18
-2.64006e-18
-2.64103e-18
-2.64148e-18
-2.64043e-18
-2.63994e-18
-2.64045e-18
-2.64027e-18
-2.64057e-18
-2.64043e-18
-2.64053e-18
-2.64012e-18
-2.64075e-18
-2.64129e-18
-2.64182e-18
-2.64153e-18
-2.64144e-18
-2.64163e-18
-2.64226e-18
-2.64175e-18
-2.6412e-18
-2.64202e-18
-2.64176e-18
-2.64145e-18
-2.64208e-18
-2.64213e-18
-2.64213e-18
-2.64248e-18
-2.64259e-18
-2.64232e-18
-2.64247e-18
-2.64256e-18
-2.64223e-18
-2.64226e-18
-2.6425e-18
-2.64247e-18
-2.64253e-18
-2.64242e-18
-2.64241e-18
-2.64236e-18
-2.64239e-18
-2.64248e-18
-2.64251e-18
-2.64246e-18
-2.64246e-18
-2.64861e-18
-2.65486e-18
-2.65427e-18
-2.64935e-18
-2.64827e-18
-2.6483e-18
-2.64936e-18
-2.65166e-18
-2.64401e-18
-2.6429e-18
-2.64274e-18
-2.64568e-18
-2.64436e-18
-2.64714e-18
-2.64668e-18
-2.64508e-18
-2.64741e-18
-2.6477e-18
-2.64014e-18
-2.64497e-18
-2.6487e-18
-2.64399e-18
-2.63746e-18
-2.6427e-18
-2.6456e-18
-2.6458e-18
-2.64596e-18
-2.64483e-18
-2.64621e-18
-2.64216e-18
-2.64218e-18
-2.64093e-18
-2.64238e-18
-2.64376e-18
-2.64395e-18
-2.63888e-18
-2.64008e-18
-2.64299e-18
-2.64513e-18
-2.64094e-18
-2.63747e-18
-2.63634e-18
-2.63744e-18
-2.63649e-18
-2.63834e-18
-2.63886e-18
-2.63839e-18
-2.63819e-18
-2.63883e-18
-2.63828e-18
-2.63601e-18
-2.63649e-18
-2.63664e-18
-2.63701e-18
-2.63527e-18
-2.63677e-18
-2.63794e-18
-2.63787e-18
-2.63846e-18
-2.63688e-18
-2.63803e-18
-2.63944e-18
-2.63781e-18
-2.63789e-18
-2.63793e-18
-2.6387e-18