/*--------------------------------*- C++ -*----------------------------------*\
  =========                 |
  \\      /  F ield         | OpenFOAM: The Open Source CFD Toolbox
   \\    /   O peration     | Website:  https://openfoam.org
    \\  /    A nd           | Version:  7
     \\/     M anipulation  |
\*---------------------------------------------------------------------------*/
FoamFile
{
    version     2.0;
    format      ascii;
    class       volScalarField;
    location    "20000";
    object      nu;
}
// * * * * * * * * * * * * * * * * * * * * * * * * * * * * * * * * * * * * * //

dimensions      [0 2 -1 0 0 0 0];

internalField   nonuniform List<scalar> 
4825
(
0.000351297
0.000353471
0.000347166
0.000349125
0.000350689
0.000354014
0.000357892
0.000342193
0.000344307
0.000346521
0.000349696
0.000353443
0.00033611
0.000338583
0.000341502
0.000344676
0.000348354
0.000329072
0.000331982
0.000335303
0.000338557
0.000342201
0.000321159
0.000324478
0.000328038
0.00033138
0.000334987
0.00031246
0.000316083
0.000319765
0.000323141
0.000326654
0.000303152
0.000306906
0.000310581
0.000313886
0.0003172
0.000293553
0.000297207
0.000300695
0.000303787
0.000306809
0.000284142
0.000287418
0.000290476
0.0002932
0.000295948
0.000275535
0.000278138
0.000280465
0.000282677
0.000285416
0.000268432
0.000270078
0.000271351
0.000272958
0.000276316
0.000263531
0.000263988
0.000263907
0.000264933
0.000269289
0.000261422
0.000260552
0.000258924
0.00025959
0.000262445
0.000260257
0.000257124
0.000257973
0.000266478
0.000263209
0.000259062
0.000260444
0.000272621
0.000268846
0.000264952
0.000278786
0.000275546
0.000273616
0.000281394
0.000280254
0.000275698
0.000278527
0.00025733
0.00026564
0.000224995
0.000238939
0.000182466
0.000199761
0.000137213
0.000499826
0.000505291
0.000510494
0.000515994
0.000521646
0.000527316
0.000532883
0.000538248
0.000543334
0.000548094
0.000552265
0.000555961
0.000559583
0.000563208
0.000566914
0.000570753
0.000574738
0.000578854
0.000583037
0.000587114
0.000493304
0.000498955
0.000504151
0.000509568
0.000515119
0.000520695
0.000526191
0.000531517
0.000536611
0.000541438
0.000545696
0.000549422
0.000553071
0.000556697
0.000560349
0.000564045
0.000567745
0.000571309
0.0005744
0.000576286
0.000485646
0.000491576
0.000496824
0.000502186
0.000507646
0.000513127
0.000518543
0.000523813
0.000528884
0.000533706
0.000538014
0.000541802
0.000545468
0.000549074
0.000552644
0.000556161
0.000559522
0.000562468
0.000564433
0.000564279
0.000476741
0.000482926
0.000488258
0.000493587
0.000498963
0.000504347
0.000509671
0.000514867
0.000519879
0.000524649
0.000528969
0.000532819
0.000536489
0.000540053
0.000543516
0.000546828
0.000549831
0.000552178
0.000553159
0.000551423
0.000467158
0.000473506
0.000478923
0.000484237
0.000489543
0.000494835
0.000500064
0.000505174
0.00051011
0.000514808
0.000519114
0.000523005
0.000526668
0.000530174
0.000533517
0.000536619
0.000539287
0.000541128
0.000541399
0.000538764
0.000457254
0.000463645
0.000469124
0.00047443
0.000479677
0.000484884
0.000490021
0.000495041
0.000499893
0.000504512
0.000508787
0.000512692
0.000516336
0.000519778
0.000522999
0.000525905
0.000528288
0.000529761
0.000529655
0.000526892
0.00044725
0.000453564
0.000459063
0.000464357
0.000469553
0.000474683
0.000479732
0.000484663
0.000489428
0.000493966
0.000498198
0.000502094
0.00050571
0.000509084
0.00051219
0.000514927
0.000517094
0.000518348
0.000518181
0.000515959
0.000437275
0.000443416
0.000448884
0.000454152
0.000459298
0.000464355
0.00046932
0.000474164
0.000478842
0.000483303
0.000487483
0.000491352
0.000494931
0.000498239
0.000501243
0.000503846
0.000505867
0.00050704
0.000507054
0.000505786
0.000503725
0.00050138
0.000500076
0.00049963
0.000499597
0.000499625
0.000499497
0.000499102
0.0004984
0.000497388
0.000496083
0.000494503
0.000492636
0.000490375
0.000487307
0.000427406
0.000433306
0.000438694
0.000443914
0.000449003
0.00045399
0.000458873
0.000463631
0.000468225
0.000472608
0.00047673
0.00048056
0.000484097
0.000487343
0.000490261
0.000492763
0.000494704
0.000495904
0.000496244
0.000496011
0.000496729
0.000495399
0.00049429
0.000493749
0.000493567
0.000493472
0.000493264
0.000492826
0.000492107
0.00049109
0.00048978
0.000488175
0.000486234
0.000483811
0.000480501
0.000475218
0.000470691
0.000417694
0.000423316
0.000428578
0.000433722
0.000438744
0.000443655
0.000448457
0.000453128
0.000457638
0.000461944
0.000466004
0.000469785
0.000473276
0.000476463
0.00047931
0.000481744
0.000483659
0.000484956
0.000485677
0.000486329
0.000488583
0.000488224
0.000487451
0.000486929
0.000486661
0.00048647
0.00048619
0.000485709
0.000484967
0.000483939
0.000482616
0.000480979
0.000478968
0.000476432
0.000473088
0.000468751
0.000463984
0.000457343
0.000408182
0.000413509
0.000418608
0.000423649
0.000428586
0.000433414
0.000438128
0.000442711
0.000447134
0.000451361
0.000455353
0.000459079
0.000462518
0.000465651
0.000468442
0.000470834
0.000472758
0.000474191
0.000475277
0.000476582
0.000479277
0.000479683
0.000479295
0.000478874
0.000478575
0.000478318
0.000477979
0.000477458
0.000476693
0.000475651
0.000474312
0.000472645
0.000470582
0.000467994
0.000464744
0.000461284
0.000456621
0.000450882
0.000444046
0.000438566
0.000398907
0.000403939
0.000408849
0.000413759
0.000418591
0.000423323
0.000427941
0.00043243
0.000436762
0.000440905
0.000444823
0.000448487
0.00045187
0.00045495
0.000457694
0.000460062
0.000462019
0.000463595
0.000464988
0.000466712
0.000469385
0.000470315
0.000470292
0.000470015
0.00046973
0.000469436
0.000469052
0.000468497
0.000467709
0.000466653
0.000465298
0.000463608
0.000461515
0.000458929
0.000455834
0.000452729
0.000448356
0.000443645
0.000437939
0.000432357
0.000425656
0.000420145
0.000389901
0.00039465
0.000399354
0.00040411
0.000408819
0.000413439
0.000417952
0.000422337
0.000426571
0.000430622
0.00043446
0.000438052
0.000441374
0.000444401
0.000447104
0.000449458
0.000451456
0.000453162
0.000454787
0.00045674
0.000459239
0.000460481
0.000460763
0.000460646
0.000460405
0.000460099
0.000459686
0.000459102
0.000458295
0.000457226
0.000455859
0.000454154
0.000452055
0.000449508
0.000446574
0.000443601
0.000439585
0.000435482
0.000430881
0.000425529
0.000419757
0.000414161
0.000407571
0.000402497
0.000397488
0.000381183
0.000385672
0.000390165
0.000394753
0.000399321
0.000403817
0.000408212
0.000412485
0.000416611
0.000420562
0.00042431
0.000427824
0.000431077
0.000434047
0.00043671
0.000439053
0.000441089
0.000442899
0.000444682
0.000446728
0.00044903
0.000450429
0.000450945
0.000450979
0.000450801
0.0004505
0.000450071
0.000449468
0.000448647
0.000447567
0.000446194
0.000444486
0.000442401
0.000439919
0.000437127
0.000434217
0.000430544
0.000426836
0.000422833
0.000417879
0.000413047
0.000407666
0.000402027
0.000396925
0.000391712
0.000385206
0.000379684
0.000372748
0.000377008
0.0003813
0.000385715
0.000390136
0.000394498
0.000398767
0.000402919
0.00040693
0.000410774
0.000414423
0.000417849
0.000421028
0.000423935
0.000426556
0.000428884
0.000430947
0.000432831
0.000434704
0.000436759
0.000438882
0.000440336
0.000441014
0.000441181
0.00044107
0.00044079
0.000440356
0.000439742
0.000438912
0.000437828
0.000436455
0.000434758
0.000432705
0.000430299
0.00042763
0.000424782
0.000421403
0.000417972
0.000414305
0.000409791
0.000405476
0.000400466
0.000395752
0.000390774
0.000385582
0.000379905
0.000374354
0.00036787
0.000362898
0.000358132
0.000364555
0.00036863
0.000372746
0.000377
0.000381275
0.000385503
0.000389645
0.000393674
0.000397566
0.000401297
0.000404842
0.000408174
0.000411271
0.000414112
0.000416684
0.000418991
0.000421067
0.000422993
0.000424905
0.000426915
0.000428886
0.000430333
0.000431115
0.000431388
0.000431344
0.000431091
0.000430662
0.000430045
0.000429212
0.00042813
0.000426767
0.000425091
0.000423084
0.000420762
0.000418202
0.000415431
0.000412294
0.00040907
0.00040562
0.000401509
0.000397505
0.000392907
0.000388678
0.000383909
0.000378895
0.000374034
0.000368696
0.000363136
0.000358292
0.000353651
0.00035652
0.000360468
0.000364449
0.000368568
0.000372715
0.000376822
0.000380845
0.000384757
0.000388535
0.000392155
0.000395595
0.000398832
0.000401844
0.000404614
0.000407134
0.000409412
0.000411485
0.000413426
0.000415336
0.000417278
0.000419116
0.000420524
0.000421361
0.000421715
0.000421731
0.000421509
0.000421092
0.00042048
0.000419651
0.000418577
0.000417231
0.000415587
0.000413635
0.000411399
0.000408938
0.000406261
0.000403318
0.000400259
0.000396972
0.000393196
0.000389413
0.000385187
0.000381218
0.000376679
0.000371918
0.000367481
0.000362467
0.000357788
0.000353159
0.00034871
0.000348519
0.000352407
0.000356309
0.000360336
0.00036439
0.000368402
0.00037233
0.000376143
0.00037982
0.000383341
0.000386684
0.00038983
0.000392761
0.000395462
0.000397929
0.000400173
0.000402231
0.000404165
0.000406048
0.000407908
0.000409631
0.000410982
0.000411843
0.000412253
0.00041232
0.00041213
0.00041173
0.000411127
0.000410308
0.000409249
0.000407926
0.000406321
0.00040443
0.000402278
0.000399909
0.000397331
0.000394544
0.000391619
0.000388468
0.000384953
0.000381343
0.000377417
0.000373595
0.000369271
0.000364759
0.00036054
0.000355853
0.000351629
0.00034722
0.000342954
0.000340394
0.000344294
0.000348183
0.000352176
0.000356185
0.000360144
0.000364011
0.000367757
0.000371361
0.000374805
0.000378071
0.000381142
0.000384003
0.000386643
0.000389062
0.000391273
0.00039331
0.000395223
0.000397065
0.000398843
0.000400464
0.000401754
0.000402617
0.000403064
0.000403171
0.000403013
0.000402633
0.000402043
0.000401236
0.000400195
0.0003989
0.000397336
0.000395506
0.000393431
0.000391147
0.000388663
0.000385997
0.000383179
0.00038014
0.000376816
0.000373344
0.000369632
0.000365894
0.000361741
0.000357431
0.000353314
0.000348886
0.000344856
0.00034061
0.000336467
0.000331984
0.000335961
0.000339903
0.000343924
0.000347944
0.000351903
0.000355757
0.000359479
0.00036305
0.000366452
0.000369671
0.000372693
0.000375506
0.000378104
0.000380488
0.000382674
0.000384691
0.00038658
0.000388378
0.000390081
0.000391615
0.000392846
0.000393698
0.000394168
0.000394308
0.000394177
0.000393817
0.000393242
0.00039245
0.000391427
0.000390159
0.000388634
0.000386858
0.000384849
0.000382635
0.000380229
0.000377651
0.000374909
0.000371952
0.000368754
0.000365377
0.000361795
0.000358097
0.000354055
0.000349872
0.000345783
0.000341508
0.000337514
0.000333348
0.000329241
0.000323158
0.000327256
0.000331303
0.000335407
0.000339494
0.000343506
0.0003474
0.000351149
0.000354733
0.000358138
0.00036135
0.000364359
0.000367157
0.000369739
0.000372111
0.000374287
0.000376295
0.000378167
0.000379928
0.000381569
0.000383032
0.000384212
0.00038505
0.000385535
0.0003857
0.000385594
0.000385252
0.000384692
0.000383912
0.000382904
0.000381657
0.000380163
0.000378427
0.000376466
0.000374302
0.000371949
0.000369422
0.000366721
0.000363808
0.000360672
0.00035734
0.000353811
0.000350105
0.000346107
0.000341972
0.000337854
0.00033363
0.000329576
0.000325408
0.00032126
0.00031387
0.000318093
0.000322265
0.000326483
0.000330676
0.000334784
0.000338764
0.000342587
0.000346232
0.000349685
0.000352936
0.000355974
0.000358794
0.000361396
0.000363785
0.000365976
0.000367994
0.000369864
0.000371604
0.000373202
0.000374613
0.000375755
0.00037658
0.000377075
0.000377262
0.000377177
0.000376851
0.0003763
0.000375528
0.000374528
0.000373291
0.000371814
0.0003701
0.000368163
0.000366021
0.000363689
0.000361174
0.000358473
0.00035556
0.000352428
0.000349087
0.00034554
0.000341783
0.000337767
0.000333611
0.000329422
0.00032517
0.000321011
0.000316793
0.000312564
0.000304206
0.0003085
0.000312769
0.000317092
0.000321395
0.000325615
0.000329705
0.000333633
0.000337375
0.000340916
0.000344244
0.000347351
0.000350232
0.000352888
0.000355326
0.000357561
0.000359612
0.000361502
0.000363242
0.00036482
0.0003662
0.000367319
0.000368138
0.000368644
0.000368849
0.000368781
0.000368467
0.000367922
0.00036715
0.000366147
0.000364907
0.000363427
0.000361712
0.000359773
0.000357622
0.000355274
0.000352733
0.000349993
0.000347036
0.000343856
0.000340457
0.000336842
0.000333001
0.000328924
0.000324706
0.00032043
0.000316118
0.000311861
0.000307595
0.000303305
0.000294418
0.000298667
0.000302943
0.000307307
0.000311675
0.000315979
0.000320166
0.000324198
0.000328046
0.000331691
0.00033512
0.000338322
0.000341292
0.000344032
0.000346546
0.000348849
0.000350958
0.000352889
0.00035465
0.000356231
0.000357602
0.000358715
0.000359536
0.000360054
0.000360277
0.000360223
0.000359917
0.00035937
0.000358589
0.000357571
0.000356313
0.000354812
0.000353073
0.000351104
0.000348917
0.000346522
0.000343921
0.00034111
0.000338077
0.000334816
0.000331331
0.000327624
0.000323689
0.000319543
0.000315266
0.00031093
0.000306585
0.000302294
0.000298049
0.00029379
0.000284938
0.000288961
0.000293094
0.000297372
0.000301702
0.000306008
0.000310229
0.000314318
0.000318241
0.000321972
0.000325493
0.000328789
0.000331855
0.000334688
0.000337292
0.000339678
0.000341859
0.000343847
0.000345646
0.000347248
0.000348627
0.000349746
0.000350578
0.000351112
0.00035135
0.000351309
0.000351005
0.000350452
0.000349655
0.000348612
0.000347323
0.000345786
0.000344006
0.000341989
0.000339746
0.000337285
0.000334608
0.000331713
0.000328594
0.000325248
0.000321681
0.000317896
0.0003139
0.000309725
0.000305444
0.000301129
0.000296844
0.000292646
0.000288557
0.000284489
0.00027635
0.000279921
0.000283705
0.000287716
0.000291848
0.000296017
0.000300153
0.000304201
0.000308117
0.000311869
0.000315432
0.000318786
0.00032192
0.000324827
0.000327509
0.00032997
0.000332219
0.000334265
0.000336107
0.000337737
0.000339133
0.000340266
0.000341113
0.000341662
0.000341915
0.000341884
0.000341581
0.000341018
0.0003402
0.00033913
0.000337805
0.000336227
0.000334401
0.000332333
0.000330033
0.00032751
0.000324766
0.000321805
0.000318625
0.000315228
0.000311626
0.000307827
0.000303851
0.000299742
0.000295571
0.000291416
0.000287347
0.000283423
0.00027968
0.00027601
0.00026934
0.00027221
0.00027541
0.000278931
0.000282661
0.000286507
0.000290389
0.000294245
0.000298024
0.000301683
0.00030519
0.00030852
0.000311653
0.00031458
0.000317293
0.000319792
0.000322082
0.000324163
0.000326034
0.000327683
0.000329092
0.000330235
0.000331093
0.000331655
0.00033192
0.000331896
0.000331593
0.000331022
0.000330189
0.000329096
0.000327744
0.000326136
0.000324278
0.000322179
0.000319848
0.000317297
0.000314531
0.000311557
0.000308383
0.000305016
0.000301473
0.000297774
0.00029395
0.000290054
0.00028616
0.00028235
0.000278698
0.000275266
0.000272091
0.000269049
0.00026461
0.000266542
0.000268919
0.000271719
0.000274821
0.000278127
0.000281553
0.00028503
0.000288497
0.000291907
0.000295219
0.0002984
0.000301425
0.000304275
0.000306937
0.000309406
0.000311677
0.000313746
0.000315607
0.000317246
0.000318645
0.000319782
0.000320638
0.000321203
0.000321474
0.000321455
0.000321157
0.000320586
0.000319751
0.000318654
0.000317299
0.000315693
0.000313842
0.000311758
0.000309453
0.000306941
0.000304232
0.00030134
0.000298279
0.000295065
0.000291723
0.00028828
0.00028478
0.000281284
0.000277868
0.000274617
0.000271606
0.000268892
0.000266505
0.000264303
0.000262777
0.000263587
0.000264938
0.000266802
0.000269059
0.00027161
0.000274369
0.000277261
0.000280223
0.000283201
0.000286148
0.000289024
0.000291798
0.000294443
0.000296942
0.000299279
0.000301444
0.000303427
0.000305216
0.000306795
0.000308145
0.000309245
0.000310076
0.000310627
0.000310894
0.000310881
0.000310592
0.000310038
0.000309223
0.000308156
0.000306841
0.000305287
0.000303506
0.00030151
0.000299316
0.000296941
0.000294403
0.00029172
0.000288914
0.000286009
0.000283036
0.000280033
0.000277052
0.000274158
0.000271431
0.000268953
0.000266793
0.000264999
0.000263579
0.000262366
0.000264231
0.000263843
0.000264046
0.000264824
0.000266066
0.000267679
0.000269579
0.000271694
0.00027396
0.000276319
0.000278721
0.000281123
0.000283487
0.000285781
0.00028798
0.000290064
0.000292015
0.000293818
0.000295455
0.000296907
0.000298153
0.000299172
0.000299945
0.000300461
0.000300713
0.000300703
0.000300435
0.000299918
0.000299158
0.000298164
0.000296945
0.000295513
0.000293881
0.000292067
0.000290091
0.000287975
0.000285741
0.000283413
0.000281021
0.000278594
0.00027617
0.000273793
0.000271521
0.00026942
0.00026757
0.000266044
0.000264897
0.000264154
0.000263787
0.00026359
0.000268923
0.000267454
0.000266542
0.000266205
0.000266358
0.000266925
0.000267836
0.000269028
0.000270441
0.000272019
0.000273714
0.000275481
0.00027728
0.000279075
0.000280837
0.000282539
0.000284161
0.000285679
0.000287074
0.000288322
0.000289401
0.000290289
0.000290966
0.00029142
0.000291643
0.000291636
0.000291401
0.000290946
0.00029028
0.000289412
0.000288354
0.000287121
0.000285729
0.0002842
0.000282557
0.000280826
0.000279033
0.000277209
0.000275385
0.000273596
0.000271884
0.000270295
0.000268886
0.000267724
0.000266876
0.000266399
0.000266322
0.000266628
0.000267236
0.000267872
0.000276025
0.00027392
0.000272191
0.000270924
0.000270088
0.000269645
0.000269553
0.000269768
0.000270247
0.000270944
0.000271818
0.000272827
0.000273935
0.000275105
0.000276308
0.000277513
0.000278696
0.000279832
0.000280896
0.000281865
0.000282713
0.000283419
0.000283961
0.000284327
0.000284508
0.000284502
0.000284312
0.000283946
0.000283412
0.000282723
0.000281891
0.000280933
0.00027987
0.000278725
0.000277523
0.000276292
0.000275062
0.000273866
0.000272736
0.000271707
0.000270821
0.000270119
0.000269654
0.000269477
0.000269637
0.000270158
0.000271021
0.000272147
0.000273373
0.000274328
0.000283479
0.000281669
0.000279836
0.000278179
0.00027675
0.000275578
0.00027467
0.000274023
0.000273624
0.000273453
0.000273485
0.000273692
0.000274046
0.000274519
0.000275081
0.000275707
0.00027637
0.000277047
0.000277711
0.000278337
0.000278901
0.00027938
0.000279754
0.000280008
0.000280135
0.00028013
0.000279997
0.000279743
0.000279376
0.00027891
0.000278359
0.000277741
0.000277077
0.000276391
0.00027571
0.000275062
0.000274475
0.000273979
0.000273605
0.000273382
0.00027334
0.000273512
0.000273928
0.000274615
0.00027558
0.000276792
0.000278157
0.000279508
0.000280574
0.000280865
0.000287605
0.000287597
0.000286924
0.000285915
0.000284733
0.000283497
0.000282291
0.000281177
0.000280194
0.000279365
0.000278699
0.000278197
0.00027785
0.000277646
0.000277568
0.000277598
0.000277716
0.000277901
0.00027813
0.00027838
0.000278629
0.000278855
0.00027904
0.000279168
0.000279232
0.000279229
0.00027916
0.000279031
0.000278853
0.000278638
0.000278399
0.000278154
0.000277924
0.000277731
0.000277597
0.000277546
0.000277602
0.000277786
0.000278114
0.000278603
0.00027926
0.000280091
0.000281091
0.000282233
0.000283462
0.000284658
0.000285631
0.000286111
0.000285715
0.000283852
0.000283313
0.000286974
0.0002892
0.000290405
0.000290839
0.00029071
0.000290189
0.000289417
0.000288507
0.000287546
0.000286598
0.00028571
0.00028491
0.000284216
0.000283637
0.000283171
0.000282815
0.000282556
0.000282383
0.000282277
0.000282223
0.000282203
0.0002822
0.000282204
0.000282205
0.000282203
0.000282198
0.000282195
0.000282203
0.000282232
0.000282295
0.000282405
0.000282577
0.000282827
0.000283169
0.000283616
0.000284176
0.00028485
0.000285633
0.000286508
0.000287447
0.000288407
0.000289322
0.000290094
0.000290572
0.000290531
0.000289691
0.000287704
0.000284137
0.000278405
0.000265668
0.000274464
0.000281266
0.000286429
0.000290188
0.000292767
0.000294384
0.000295242
0.000295522
0.000295382
0.000294956
0.000294349
0.000293646
0.000292912
0.000292195
0.000291527
0.000290929
0.000290412
0.00028998
0.000289632
0.00028936
0.000289156
0.000289011
0.000288918
0.000288871
0.000288869
0.000288914
0.000289009
0.000289159
0.000289371
0.00028965
0.000290003
0.000290433
0.000290942
0.000291527
0.000292178
0.000292877
0.000293593
0.000294279
0.00029487
0.000295285
0.000295414
0.000295117
0.000294211
0.00029245
0.000289527
0.000285151
0.000278995
0.000270722
0.00025996
0.000232836
0.00024672
0.000258683
0.000268849
0.00027728
0.000284084
0.000289415
0.000293451
0.000296387
0.000298416
0.00029972
0.000300461
0.000300783
0.000300804
0.000300625
0.000300322
0.000299957
0.000299574
0.000299205
0.000298871
0.000298584
0.000298352
0.000298176
0.000298059
0.000297999
0.000297998
0.000298057
0.000298177
0.000298358
0.000298598
0.000298892
0.000299231
0.000299599
0.000299975
0.000300329
0.000300616
0.000300778
0.000300738
0.000300398
0.000299638
0.000298314
0.000296258
0.000293274
0.000289126
0.000283539
0.000276211
0.000267004
0.000255777
0.000242462
0.00022707
0.000188527
0.000205399
0.00022116
0.000235663
0.00024872
0.000260215
0.000270111
0.000278446
0.000285316
0.000290858
0.000295234
0.000298612
0.000301158
0.000303029
0.000304366
0.000305291
0.000305906
0.000306295
0.000306527
0.000306651
0.000306709
0.000306727
0.000306725
0.000306716
0.000306709
0.000306709
0.000306717
0.000306729
0.000306737
0.000306727
0.000306678
0.000306558
0.000306327
0.000305932
0.000305307
0.000304368
0.000303013
0.000301123
0.000298555
0.000295152
0.000290747
0.000285159
0.000278207
0.000269702
0.000259457
0.000247318
0.00023346
0.00021803
0.000201276
0.00018356
0.000141048
0.000157664
0.000174271
0.000190608
0.00020634
0.000221169
0.000234855
0.000247236
0.000258227
0.000267811
0.000276031
0.000282975
0.000288759
0.000293515
0.00029738
0.00030049
0.000302966
0.000304919
0.000306445
0.000307621
0.000308512
0.000309169
0.00030963
0.000309922
0.000310064
0.000310064
0.000309925
0.000309637
0.000309183
0.000308534
0.000307651
0.000306481
0.000304958
0.000303001
0.000300517
0.000297394
0.00029351
0.000288732
0.000282922
0.000275949
0.000267689
0.000258046
0.00024695
0.00023437
0.000220306
0.000204823
0.00018842
0.000171441
0.000154291
0.000137438
9.88876e-05
0.000112627
0.000127144
0.000142244
0.000157644
0.000173028
0.000188088
0.000202544
0.000216163
0.000228768
0.000240243
0.00025053
0.000259626
0.000267564
0.000274411
0.000280253
0.000285184
0.0002893
0.000292693
0.000295443
0.000297624
0.000299296
0.000300508
0.000301296
0.000301684
0.000301685
0.0003013
0.000300517
0.000299312
0.000297648
0.000295475
0.000292732
0.000289343
0.000285226
0.000280288
0.000274433
0.000267566
0.000259604
0.000250481
0.000240161
0.000228645
0.000215977
0.000202252
0.000187608
0.000172215
0.000156278
0.000140425
0.000124987
0.000110296
9.6692e-05
6.66666e-05
7.65784e-05
8.74954e-05
9.93545e-05
0.000112015
0.000125282
0.000138924
0.000152693
0.000166339
0.000179623
0.000192333
0.000204301
0.0002154
0.000225545
0.000234692
0.00024283
0.000249977
0.000256165
0.000261439
0.000265843
0.000269425
0.000272231
0.0002743
0.000275661
0.000276337
0.000276338
0.000275665
0.000274308
0.000272246
0.000269447
0.000265872
0.000261475
0.000256208
0.000250021
0.000242869
0.000234718
0.000225551
0.000215382
0.000204256
0.000192259
0.000179511
0.000166174
0.000152441
0.000138526
0.000124639
0.000110974
9.80679e-05
8.60931e-05
7.52149e-05
6.55278e-05
4.4594e-05
5.11007e-05
5.84608e-05
6.66937e-05
7.57732e-05
8.56318e-05
9.6158e-05
0.000107213
0.000118627
0.00013021
0.000141765
0.000153104
0.000164055
0.000174464
0.000184205
0.000193182
0.000201329
0.000208599
0.000214964
0.000220409
0.000224929
0.00022853
0.000231221
0.000233009
0.000233901
0.000233902
0.000233012
0.000231227
0.000228541
0.000224945
0.000220431
0.000214994
0.000208636
0.000201368
0.000193219
0.000184229
0.00017447
0.00016404
0.000153068
0.000141705
0.000130122
0.0001185
0.000107026
9.58751e-05
8.51947e-05
7.50869e-05
6.59036e-05
5.7675e-05
5.04078e-05
3.04669e-05
3.45168e-05
3.91571e-05
4.44296e-05
5.03558e-05
5.6935e-05
6.41373e-05
7.19128e-05
8.01828e-05
8.88414e-05
9.77603e-05
0.000106803
0.000115825
0.00012468
0.000133225
0.000141336
0.000148903
0.00015583
0.000162038
0.000167457
0.000172035
0.000175736
0.000178532
0.000180406
0.000181346
0.000181346
0.000180408
0.000178536
0.000175742
0.000172045
0.000167471
0.000162059
0.000155858
0.000148934
0.000141365
0.000133245
0.000124684
0.000115814
0.000106777
9.77185e-05
8.87811e-05
8.0098e-05
7.17912e-05
6.39594e-05
5.66705e-05
4.99529e-05
4.40026e-05
3.87671e-05
2.16979e-05
2.41729e-05
2.70137e-05
3.02551e-05
3.39247e-05
3.80395e-05
4.26018e-05
4.7604e-05
5.30202e-05
5.88047e-05
6.48917e-05
7.12045e-05
7.76515e-05
8.41295e-05
9.0529e-05
9.6742e-05
0.000102665
0.000108199
0.000113251
0.000117735
0.000121579
0.000124723
0.000127122
0.00012874
0.000129555
0.000129555
0.000128741
0.000127123
0.000124726
0.000121583
0.000117743
0.000113264
0.000108218
0.000102687
9.67628e-05
9.05431e-05
8.41325e-05
7.76441e-05
7.11876e-05
6.48651e-05
5.87672e-05
5.29687e-05
4.75318e-05
4.2499e-05
3.78917e-05
3.37117e-05
3.00471e-05
1.6261e-05
1.77855e-05
1.95242e-05
2.15001e-05
2.37327e-05
2.62372e-05
2.90214e-05
3.20895e-05
3.54358e-05
3.90431e-05
4.28811e-05
4.6912e-05
5.10857e-05
5.53412e-05
5.96085e-05
6.38142e-05
6.78834e-05
7.17398e-05
7.53083e-05
7.85132e-05
8.12895e-05
8.35813e-05
8.53421e-05
8.65362e-05
8.71393e-05
8.71392e-05
8.65361e-05
8.53421e-05
8.35818e-05
8.1291e-05
7.85166e-05
7.5315e-05
7.17512e-05
6.78969e-05
6.38275e-05
5.96176e-05
5.53429e-05
5.1081e-05
4.69017e-05
4.28653e-05
3.90213e-05
3.54064e-05
3.2049e-05
2.89648e-05
2.61583e-05
2.36296e-05
1.28232e-05
1.37863e-05
1.4872e-05
1.60944e-05
1.74644e-05
1.89914e-05
2.06812e-05
2.25384e-05
2.4562e-05
2.67454e-05
2.9074e-05
3.15296e-05
3.40859e-05
3.67089e-05
3.93581e-05
4.19893e-05
4.45556e-05
4.70072e-05
4.92938e-05
5.13621e-05
5.31655e-05
5.46625e-05
5.58178e-05
5.66039e-05
5.70017e-05
5.70016e-05
5.66036e-05
5.58174e-05
5.46621e-05
5.31656e-05
5.13632e-05
4.9297e-05
4.70137e-05
4.45634e-05
4.19973e-05
3.93636e-05
3.67099e-05
3.40831e-05
3.15237e-05
2.9065e-05
2.67331e-05
2.45456e-05
2.25161e-05
2.06507e-05
1.89502e-05
1.05764e-05
1.12073e-05
1.19082e-05
1.26872e-05
1.35499e-05
1.45013e-05
1.55446e-05
1.66822e-05
1.79137e-05
1.92357e-05
2.06405e-05
2.21184e-05
2.36551e-05
2.52319e-05
2.68257e-05
2.84114e-05
2.99615e-05
3.14463e-05
3.28353e-05
3.40951e-05
3.51966e-05
3.61133e-05
3.68222e-05
3.73053e-05
3.75499e-05
3.75498e-05
3.73049e-05
3.68217e-05
3.61128e-05
3.51963e-05
3.40953e-05
3.28366e-05
3.14498e-05
2.99659e-05
2.84161e-05
2.6829e-05
2.52324e-05
2.36534e-05
2.2115e-05
2.06353e-05
1.92287e-05
1.79046e-05
1.66699e-05
1.55282e-05
1.44798e-05
9.04642e-06
9.47772e-06
9.94897e-06
1.04652e-05
1.10289e-05
1.16423e-05
1.23072e-05
1.30241e-05
1.37925e-05
1.46099e-05
1.54722e-05
1.63734e-05
1.73054e-05
1.82573e-05
1.9216e-05
2.01673e-05
2.10955e-05
2.19834e-05
2.28134e-05
2.35658e-05
2.42235e-05
2.47709e-05
2.51942e-05
2.54827e-05
2.56289e-05
2.56288e-05
2.54825e-05
2.51938e-05
2.47704e-05
2.42231e-05
2.35657e-05
2.28139e-05
2.19853e-05
2.10979e-05
2.017e-05
1.92179e-05
1.82575e-05
1.73043e-05
1.63714e-05
1.54692e-05
1.46059e-05
1.37873e-05
1.30173e-05
1.22982e-05
1.1631e-05
7.95795e-06
8.26592e-06
8.59695e-06
8.95418e-06
9.33859e-06
9.75104e-06
1.01922e-05
1.06618e-05
1.1159e-05
1.16823e-05
1.22289e-05
1.27949e-05
1.33755e-05
1.39641e-05
1.45531e-05
1.51346e-05
1.56993e-05
1.62373e-05
1.67387e-05
1.71918e-05
1.75871e-05
1.79154e-05
1.81691e-05
1.83418e-05
1.84292e-05
1.84292e-05
1.83416e-05
1.81688e-05
1.79151e-05
1.75867e-05
1.71916e-05
1.67388e-05
1.62383e-05
1.57006e-05
1.51362e-05
1.45542e-05
1.39641e-05
1.33748e-05
1.27937e-05
1.22271e-05
1.16799e-05
1.11561e-05
1.06579e-05
1.01872e-05
9.74499e-06
7.14991e-06
7.37903e-06
7.62164e-06
7.87979e-06
8.15373e-06
8.44363e-06
8.74953e-06
9.07092e-06
9.40696e-06
9.75634e-06
1.01173e-05
1.04872e-05
1.08629e-05
1.12405e-05
1.16152e-05
1.19827e-05
1.23373e-05
1.26733e-05
1.29849e-05
1.32653e-05
1.3509e-05
1.37109e-05
1.38666e-05
1.39724e-05
1.40259e-05
1.40259e-05
1.39723e-05
1.38664e-05
1.37107e-05
1.35087e-05
1.3265e-05
1.29848e-05
1.26738e-05
1.2338e-05
1.19836e-05
1.16158e-05
1.12404e-05
1.08624e-05
1.04864e-05
1.01161e-05
9.75483e-06
9.40514e-06
9.0686e-06
8.74671e-06
8.44037e-06
6.52673e-06
6.70344e-06
6.88814e-06
7.08226e-06
7.28573e-06
7.49837e-06
7.71995e-06
7.94989e-06
8.18741e-06
8.43148e-06
8.68081e-06
8.93359e-06
9.18773e-06
9.44074e-06
9.68959e-06
9.93186e-06
1.01639e-05
1.03823e-05
1.05838e-05
1.07641e-05
1.09202e-05
1.10491e-05
1.11483e-05
1.12155e-05
1.12495e-05
1.12495e-05
1.12154e-05
1.11481e-05
1.1049e-05
1.092e-05
1.07639e-05
1.05836e-05
1.03826e-05
1.01642e-05
9.93238e-06
9.68995e-06
9.44059e-06
9.18735e-06
8.93301e-06
8.68001e-06
8.43046e-06
8.18625e-06
7.94845e-06
7.71831e-06
7.49678e-06
6.03039e-06
6.17082e-06
6.31601e-06
6.46707e-06
6.62375e-06
6.78577e-06
6.95278e-06
7.12422e-06
7.2994e-06
7.4775e-06
7.65754e-06
7.83824e-06
8.01816e-06
8.19566e-06
8.36874e-06
8.53593e-06
8.69488e-06
8.84345e-06
8.97971e-06
9.10103e-06
9.2056e-06
9.29165e-06
9.35761e-06
9.40229e-06
9.42483e-06
9.42481e-06
9.40222e-06
9.3575e-06
9.2915e-06
9.20542e-06
9.10083e-06
8.97953e-06
8.84352e-06
8.69495e-06
8.53614e-06
8.36887e-06
8.19546e-06
8.01783e-06
7.83779e-06
7.65695e-06
7.47676e-06
7.2986e-06
7.12326e-06
6.95179e-06
6.78522e-06
5.62458e-06
5.73889e-06
5.85604e-06
5.97693e-06
6.10126e-06
6.22872e-06
6.35894e-06
6.4914e-06
6.62553e-06
6.76065e-06
6.89602e-06
7.0307e-06
7.16364e-06
7.29372e-06
7.41964e-06
7.54033e-06
7.65427e-06
7.76009e-06
7.85653e-06
7.94201e-06
8.0154e-06
8.07558e-06
8.12159e-06
8.15268e-06
8.16836e-06
8.16834e-06
8.15263e-06
8.1215e-06
8.07546e-06
8.01526e-06
7.94184e-06
7.85634e-06
7.75999e-06
7.65413e-06
7.54029e-06
7.41955e-06
7.29347e-06
7.16332e-06
7.0303e-06
6.89553e-06
6.76007e-06
6.62492e-06
6.4907e-06
6.35829e-06
5.28577e-06
5.38061e-06
5.47713e-06
5.57606e-06
5.67713e-06
5.78003e-06
5.8844e-06
5.9898e-06
6.09575e-06
6.20169e-06
6.30703e-06
6.41107e-06
6.51304e-06
6.61213e-06
6.70756e-06
6.79831e-06
6.88348e-06
6.96211e-06
7.03325e-06
7.09616e-06
7.14999e-06
7.19398e-06
7.22754e-06
7.25018e-06
7.26158e-06
7.26157e-06
7.25014e-06
7.22747e-06
7.19389e-06
7.14987e-06
7.09602e-06
7.03306e-06
6.9618e-06
6.88311e-06
6.79797e-06
6.7072e-06
6.61181e-06
6.51269e-06
6.41068e-06
6.30658e-06
6.20117e-06
6.09521e-06
5.98922e-06
5.8839e-06
4.99815e-06
5.07805e-06
5.15889e-06
5.24132e-06
5.32507e-06
5.40986e-06
5.49538e-06