/*--------------------------------*- C++ -*----------------------------------*\
  =========                 |
  \\      /  F ield         | OpenFOAM: The Open Source CFD Toolbox
   \\    /   O peration     | Website:  https://openfoam.org
    \\  /    A nd           | Version:  7
     \\/     M anipulation  |
\*---------------------------------------------------------------------------*/
FoamFile
{
    version     2.0;
    format      ascii;
    class       volVectorField;
    location    "228000";
    object      vorticity;
}
// * * * * * * * * * * * * * * * * * * * * * * * * * * * * * * * * * * * * * //

dimensions      [0 0 -1 0 0 0 0];

internalField   nonuniform List<vector> 
4782
(
(-0.0732093 -0.0551213 3.21147e-17)
(-0.0757634 -0.0570392 2.98101e-17)
(-0.0784559 -0.059061 3.00023e-17)
(-0.0812969 -0.0611942 3.24467e-17)
(-0.0842971 -0.0634469 3.54691e-17)
(-0.0874685 -0.0658282 3.787e-17)
(-0.0908239 -0.0683475 3.96887e-17)
(-0.094377 -0.0710152 4.13196e-17)
(-0.098143 -0.0738427 4.18664e-17)
(-0.102138 -0.0768421 4.25178e-17)
(-0.0229042 -0.0184637 1.34929e-17)
(-0.0233766 -0.0188421 1.39778e-17)
(-0.0238612 -0.0192305 1.50931e-17)
(-0.0243587 -0.0196291 1.63626e-17)
(-0.0248695 -0.0200385 1.65913e-17)
(-0.0253942 -0.0204589 1.66629e-17)
(-0.0259332 -0.0208909 1.70008e-17)
(-0.0264874 -0.021335 1.68018e-17)
(-0.0270571 -0.0217917 1.63283e-17)
(-0.0276433 -0.0222615 1.57336e-17)
(-0.0282477 -0.0227459 1.46927e-17)
(-0.0288741 -0.0232481 1.36653e-17)
(-0.0295258 -0.0237708 1.30355e-17)
(-0.0302019 -0.0243133 1.25969e-17)
(-0.0309008 -0.024874 1.2499e-17)
(-0.0316217 -0.0254523 1.30332e-17)
(-0.0323649 -0.0260486 1.37466e-17)
(-0.0331312 -0.0266632 1.40698e-17)
(-0.0339215 -0.0272971 1.36556e-17)
(-0.0347372 -0.0279513 1.28278e-17)
(-0.0355796 -0.0286269 1.17525e-17)
(-0.0364504 -0.0293251 1.07558e-17)
(-0.037351 -0.0300472 1.00656e-17)
(-0.0382832 -0.0307947 9.37938e-18)
(-0.0392489 -0.0315689 8.50188e-18)
(-0.0402499 -0.0323714 7.57509e-18)
(-0.0412882 -0.0332038 6.60636e-18)
(-0.042366 -0.0340678 6.22907e-18)
(-0.0434855 -0.0349653 6.51533e-18)
(-0.0446492 -0.0358981 6.81478e-18)
(-0.0458597 -0.0368684 7.10545e-18)
(-0.0471196 -0.0378783 7.49917e-18)
(-0.0484319 -0.0389302 7.95553e-18)
(-0.0497998 -0.0400266 8.06031e-18)
(-0.0512267 -0.0411702 7.95209e-18)
(-0.0527161 -0.042364 7.87633e-18)
(-0.054272 -0.043611 7.94053e-18)
(-0.0558987 -0.0449146 7.9736e-18)
(-0.0576005 -0.0462785 7.03039e-18)
(-0.0593824 -0.0477065 5.60044e-18)
(-0.0612497 -0.0492029 4.01547e-18)
(-0.0632079 -0.0507722 2.24569e-18)
(-0.0652634 -0.0524193 1.46471e-19)
(-0.0674226 -0.0541496 -1.32323e-18)
(-0.0696929 -0.0559687 -2.19425e-18)
(-0.0720818 -0.0578829 -2.80673e-18)
(-0.074598 -0.059899 -4.05082e-18)
(-0.0772504 -0.0620242 -5.7939e-18)
(-0.0800489 -0.0642665 -7.7756e-18)
(-0.0830043 -0.0666344 -9.04695e-18)
(-0.086128 -0.0691371 -9.47e-18)
(-0.0894328 -0.0717848 -1.03723e-17)
(-0.092932 -0.0745882 -1.19536e-17)
(-0.0966405 -0.0775592 -1.46158e-17)
(-0.100574 -0.0807105 -1.75638e-17)
(-0.0225121 -0.0193116 1.94016e-17)
(-0.0229761 -0.0197079 1.70537e-17)
(-0.0234523 -0.0201145 1.48688e-17)
(-0.0239411 -0.020532 1.30979e-17)
(-0.0244429 -0.0209607 1.22125e-17)
(-0.0249585 -0.021401 1.18279e-17)
(-0.0254882 -0.0218536 1.29049e-17)
(-0.0260328 -0.0223188 1.48375e-17)
(-0.0265927 -0.0227972 1.64083e-17)
(-0.0271689 -0.0232896 1.70557e-17)
(-0.0277643 -0.0237984 1.66119e-17)
(-0.0283831 -0.0243276 1.55693e-17)
(-0.0290263 -0.0248778 1.47628e-17)
(-0.029692 -0.0254474 1.46524e-17)
(-0.0303791 -0.0260353 1.50309e-17)
(-0.0310874 -0.0266412 1.5603e-17)
(-0.0318174 -0.0272657 1.66855e-17)
(-0.0325701 -0.0279093 1.76499e-17)
(-0.0333464 -0.0285731 1.77476e-17)
(-0.0341477 -0.0292583 1.73135e-17)
(-0.0349755 -0.029966 1.66129e-17)
(-0.0358313 -0.0306975 1.60338e-17)
(-0.0367165 -0.0314542 1.6182e-17)
(-0.037633 -0.0322375 1.71216e-17)
(-0.0385824 -0.033049 1.81858e-17)
(-0.0395667 -0.0338902 1.85416e-17)
(-0.0405878 -0.0347629 1.75466e-17)
(-0.0416478 -0.0356688 1.5751e-17)
(-0.0427489 -0.0366098 1.41105e-17)
(-0.0438936 -0.037588 1.31602e-17)
(-0.0450842 -0.0386055 1.19101e-17)
(-0.0463236 -0.0396646 1.01419e-17)
(-0.0476146 -0.0407677 8.41195e-18)
(-0.0489603 -0.0419177 6.64518e-18)
(-0.0503641 -0.0431172 4.86343e-18)
(-0.0518294 -0.0443693 2.84735e-18)
(-0.0533602 -0.0456773 1.18888e-18)
(-0.0549606 -0.0470447 -3.35729e-20)
(-0.0566351 -0.0484753 -1.58261e-18)
(-0.0583883 -0.0499733 -3.74831e-18)
(-0.0602256 -0.051543 -6.23189e-18)
(-0.0621524 -0.0531891 -8.5207e-18)
(-0.0641748 -0.0549169 -1.07247e-17)
(-0.0662993 -0.0567319 -1.25916e-17)
(-0.068533 -0.0586401 -1.34391e-17)
(-0.0708834 -0.0606481 -1.3726e-17)
(-0.0733589 -0.0627628 -1.42325e-17)
(-0.0759684 -0.0649919 -1.52312e-17)
(-0.0787216 -0.0673436 -1.74496e-17)
(-0.0816289 -0.0698269 -1.99529e-17)
(-0.0847016 -0.0724516 -2.13984e-17)
(-0.0879522 -0.075228 -2.08076e-17)
(-0.0913937 -0.0781675 -1.92555e-17)
(-0.0950407 -0.0812824 -2.01997e-17)
(-0.0989086 -0.0845858 -2.26264e-17)
(-0.0220974 -0.0201556 9.23345e-18)
(-0.0225526 -0.0205696 8.98375e-18)
(-0.0230198 -0.0209944 8.61919e-18)
(-0.0234994 -0.0214305 8.02855e-18)
(-0.023992 -0.0218783 7.0541e-18)
(-0.0244982 -0.0223383 6.2201e-18)
(-0.0250184 -0.0228111 5.83556e-18)
(-0.0255534 -0.0232973 6.41117e-18)
(-0.0261034 -0.0237976 7.6734e-18)
(-0.02667 -0.0243138 9.18708e-18)
(-0.0272568 -0.0248493 1.08544e-17)
(-0.027867 -0.0254065 1.26211e-17)
(-0.0284999 -0.0259843 1.42636e-17)
(-0.0291536 -0.0265807 1.59543e-17)
(-0.0298275 -0.0271953 1.76201e-17)
(-0.030522 -0.0278283 1.88557e-17)
(-0.0312377 -0.0284804 2.03791e-17)
(-0.0319756 -0.0291527 2.21801e-17)
(-0.032737 -0.0298462 2.4145e-17)
(-0.0335232 -0.0305622 2.58993e-17)
(-0.0343355 -0.0313019 2.72774e-17)
(-0.0351754 -0.0320667 2.87897e-17)
(-0.0360444 -0.032858 3.02934e-17)
(-0.0369442 -0.0336772 3.19464e-17)
(-0.0378765 -0.034526 3.37734e-17)
(-0.0388431 -0.0354061 3.53411e-17)
(-0.0398459 -0.0363191 3.68209e-17)
(-0.0408871 -0.0372669 3.81805e-17)
(-0.0419687 -0.0382516 3.86226e-17)
(-0.0430931 -0.0392753 3.87726e-17)
(-0.0442627 -0.0403401 3.85325e-17)
(-0.0454803 -0.0414486 3.76047e-17)
(-0.0467487 -0.0426032 3.68031e-17)
(-0.0480708 -0.0438068 3.68049e-17)
(-0.0494501 -0.0450624 3.62761e-17)
(-0.0508899 -0.0463731 3.46875e-17)
(-0.0523941 -0.0477423 3.31211e-17)
(-0.0539666 -0.0491738 3.2398e-17)
(-0.0556119 -0.0506715 3.17561e-17)
(-0.0573347 -0.0522396 3.09676e-17)
(-0.05914 -0.0538829 2.98884e-17)
(-0.0610334 -0.0556063 2.84313e-17)
(-0.0630206 -0.0574151 2.76483e-17)
(-0.0651082 -0.0593152 2.70823e-17)
(-0.067303 -0.0613129 2.71714e-17)
(-0.0696125 -0.0634149 2.72944e-17)
(-0.0720447 -0.0656286 2.67873e-17)
(-0.0746085 -0.067962 2.597e-17)
(-0.0773133 -0.0704236 2.53469e-17)
(-0.0801694 -0.0730229 2.47387e-17)
(-0.0831877 -0.0757698 2.40846e-17)
(-0.0863805 -0.0786754 2.43478e-17)
(-0.0897605 -0.0817513 2.6092e-17)
(-0.0933419 -0.0850104 2.63897e-17)
(-0.0971396 -0.0884663 2.53909e-17)
(-0.0222891 -0.0203641 2.06522e-17)
(-0.0227326 -0.0207973 2.16226e-17)
(-0.0231878 -0.0212417 2.38249e-17)
(-0.0236553 -0.0216977 2.66192e-17)
(-0.0241354 -0.0221658 2.81019e-17)
(-0.0246287 -0.0226464 2.87151e-17)
(-0.0251361 -0.0231405 2.81354e-17)
(-0.0256601 -0.0236503 2.67555e-17)
(-0.0262034 -0.0241786 2.60225e-17)
(-0.0267659 -0.024726 2.62496e-17)
(-0.0273467 -0.0252918 2.72056e-17)
(-0.027946 -0.0258758 2.77455e-17)
(-0.0285643 -0.0264778 2.74781e-17)
(-0.029202 -0.0270984 2.68199e-17)
(-0.0298597 -0.0277378 2.58436e-17)
(-0.0305379 -0.0283968 2.47241e-17)
(-0.0312376 -0.0290763 2.40613e-17)
(-0.0319596 -0.0297772 2.41183e-17)
(-0.032705 -0.0305006 2.47063e-17)
(-0.0334749 -0.0312476 2.52322e-17)
(-0.0342708 -0.0320195 2.57663e-17)
(-0.0350939 -0.0328178 2.62786e-17)
(-0.0359459 -0.0336437 2.63148e-17)
(-0.0368281 -0.0344989 2.5945e-17)
(-0.0377425 -0.035385 2.55569e-17)
(-0.0386906 -0.0363037 2.54114e-17)
(-0.0396745 -0.0372568 2.57225e-17)
(-0.040696 -0.0382462 2.57955e-17)
(-0.0417575 -0.0392742 2.58025e-17)
(-0.042861 -0.0403427 2.60646e-17)
(-0.0440092 -0.0414543 2.65717e-17)
(-0.0452045 -0.0426113 2.71711e-17)
(-0.0464499 -0.0438166 2.75825e-17)
(-0.0477481 -0.045073 2.81216e-17)
(-0.0491026 -0.0463835 2.9164e-17)
(-0.0505166 -0.0477516 2.99254e-17)
(-0.051994 -0.0491808 2.99506e-17)
(-0.0535386 -0.0506749 3.02897e-17)
(-0.0551548 -0.0522381 3.12166e-17)
(-0.0568472 -0.0538749 3.24812e-17)
(-0.0586207 -0.05559 3.4038e-17)
(-0.0604808 -0.0573886 3.52648e-17)
(-0.0624331 -0.0592764 3.56678e-17)
(-0.064484 -0.0612595 3.55521e-17)
(-0.0666403 -0.0633443 3.42003e-17)
(-0.0689092 -0.0655379 3.2396e-17)
(-0.0712986 -0.067848 3.17204e-17)
(-0.0738172 -0.0702829 3.17976e-17)
(-0.0764742 -0.0728515 3.21536e-17)
(-0.0792795 -0.0755636 3.25017e-17)
(-0.082244 -0.0784296 3.24295e-17)
(-0.0853794 -0.0814608 3.19301e-17)
(-0.0886984 -0.0846696 3.15194e-17)
(-0.0922145 -0.088069 2.9513e-17)
(-0.0959424 -0.0916734 2.62878e-17)
(-0.0203641 -0.0222891 1.34926e-17)
(-0.0207973 -0.0227326 1.34325e-17)
(-0.0212417 -0.0231878 1.5041e-17)
(-0.0216977 -0.0236552 1.77593e-17)
(-0.0221658 -0.0241353 2.00212e-17)
(-0.0226464 -0.0246286 2.11483e-17)
(-0.0231405 -0.0251361 2.149e-17)
(-0.0236503 -0.0256601 2.12906e-17)
(-0.0241786 -0.0262034 2.09821e-17)
(-0.024726 -0.0267659 2.16911e-17)
(-0.0252918 -0.0273467 2.28968e-17)
(-0.0258758 -0.027946 2.34167e-17)
(-0.0264779 -0.0285643 2.3064e-17)
(-0.0270984 -0.029202 2.16586e-17)
(-0.0277378 -0.0298597 2.00481e-17)
(-0.0283968 -0.0305379 1.8472e-17)
(-0.0290763 -0.0312376 1.6504e-17)
(-0.0297772 -0.0319596 1.49357e-17)
(-0.0305006 -0.032705 1.41523e-17)
(-0.0312476 -0.0334749 1.33096e-17)
(-0.0320195 -0.0342708 1.15663e-17)
(-0.0328178 -0.0350939 9.98053e-18)
(-0.0336437 -0.0359459 8.58249e-18)
(-0.0344989 -0.0368281 6.4208e-18)
(-0.035385 -0.0377425 4.19532e-18)
(-0.0363037 -0.0386906 2.12351e-18)
(-0.0372568 -0.0396744 2.09585e-19)
(-0.0382463 -0.040696 -1.99496e-18)
(-0.0392742 -0.0417575 -3.59585e-18)
(-0.0403427 -0.042861 -4.5896e-18)
(-0.0414543 -0.0440092 -4.87716e-18)
(-0.0426113 -0.0452045 -4.72069e-18)
(-0.0438166 -0.0464499 -4.51693e-18)
(-0.045073 -0.0477481 -4.34212e-18)
(-0.0463835 -0.0491026 -4.39872e-18)
(-0.0477516 -0.0505166 -4.98054e-18)
(-0.0491808 -0.051994 -6.35611e-18)
(-0.0506749 -0.0535386 -7.70101e-18)
(-0.0522381 -0.0551548 -8.56232e-18)
(-0.0538749 -0.0568472 -9.13223e-18)
(-0.05559 -0.0586207 -9.56017e-18)
(-0.0573886 -0.0604808 -1.03091e-17)
(-0.0592764 -0.0624331 -1.19534e-17)
(-0.0612595 -0.064484 -1.4875e-17)
(-0.0633443 -0.0666403 -1.89345e-17)
(-0.0655379 -0.0689092 -2.27438e-17)
(-0.067848 -0.0712987 -2.58554e-17)
(-0.0702829 -0.0738172 -2.80953e-17)
(-0.0728515 -0.0764742 -2.993e-17)
(-0.0755636 -0.0792795 -3.22463e-17)
(-0.0784296 -0.082244 -3.44902e-17)
(-0.0814608 -0.0853794 -3.70284e-17)
(-0.0846696 -0.0886984 -3.98217e-17)
(-0.088069 -0.0922145 -4.36939e-17)
(-0.0916734 -0.0959425 -4.79369e-17)
(-0.0201556 -0.0220974 1.69321e-17)
(-0.0205696 -0.0225526 1.6213e-17)
(-0.0209944 -0.0230198 1.6082e-17)
(-0.0214305 -0.0234994 1.63972e-17)
(-0.0218783 -0.023992 1.6623e-17)
(-0.0223383 -0.0244982 1.65992e-17)
(-0.0228111 -0.0250184 1.67608e-17)
(-0.0232973 -0.0255533 1.75245e-17)
(-0.0237976 -0.0261034 1.87331e-17)
(-0.0243138 -0.02667 1.9824e-17)
(-0.0248493 -0.0272568 2.09724e-17)
(-0.0254065 -0.027867 2.22118e-17)
(-0.0259843 -0.0284999 2.33539e-17)
(-0.0265807 -0.0291536 2.41035e-17)
(-0.0271953 -0.0298275 2.44721e-17)
(-0.0278283 -0.030522 2.45731e-17)
(-0.0284805 -0.0312377 2.47156e-17)
(-0.0291527 -0.0319756 2.51631e-17)
(-0.0298462 -0.032737 2.5248e-17)
(-0.0305622 -0.0335232 2.52467e-17)
(-0.0313019 -0.0343355 2.53054e-17)
(-0.0320667 -0.0351753 2.54695e-17)
(-0.032858 -0.0360444 2.56498e-17)
(-0.0336772 -0.0369442 2.59771e-17)
(-0.034526 -0.0378765 2.6234e-17)
(-0.0354061 -0.0388431 2.66271e-17)
(-0.0363191 -0.0398459 2.7681e-17)
(-0.037267 -0.0408871 2.89217e-17)
(-0.0382516 -0.0419687 2.91514e-17)
(-0.0392753 -0.0430931 2.8704e-17)
(-0.0403401 -0.0442627 2.85047e-17)
(-0.0414486 -0.0454803 2.87684e-17)
(-0.0426032 -0.0467487 2.87862e-17)
(-0.0438068 -0.0480708 2.87872e-17)
(-0.0450624 -0.0494501 2.8047e-17)
(-0.0463731 -0.0508899 2.62699e-17)
(-0.0477423 -0.0523941 2.40811e-17)
(-0.0491738 -0.0539666 2.23061e-17)
(-0.0506715 -0.0556119 2.07244e-17)
(-0.0522397 -0.0573347 1.88402e-17)
(-0.0538829 -0.05914 1.70571e-17)
(-0.0556063 -0.0610334 1.48872e-17)
(-0.0574151 -0.0630206 1.28365e-17)
(-0.0593152 -0.0651082 1.14729e-17)
(-0.0613129 -0.067303 1.1208e-17)
(-0.0634149 -0.0696125 1.09693e-17)
(-0.0656286 -0.0720447 1.04215e-17)
(-0.067962 -0.0746085 8.85054e-18)
(-0.0704236 -0.0773133 6.82703e-18)
(-0.0730229 -0.0801694 5.12942e-18)
(-0.0757698 -0.0831877 2.63632e-18)
(-0.0786754 -0.0863805 2.11828e-19)
(-0.0817513 -0.0897605 -1.19472e-18)
(-0.0850104 -0.0933419 -1.70002e-18)
(-0.0884663 -0.0971396 -6.73079e-19)
(-0.0921339 -0.10117 1.13638e-18)
(-0.096029 -0.105451 3.01965e-18)
(-0.100169 -0.11 2.88455e-18)
(-0.104571 -0.114838 1.93217e-18)
(-0.0193116 -0.0225121 2.03287e-17)
(-0.0197079 -0.0229761 2.09824e-17)
(-0.0201145 -0.0234523 2.15413e-17)
(-0.020532 -0.023941 2.19999e-17)
(-0.0209607 -0.0244429 2.22192e-17)
(-0.021401 -0.0249585 2.23955e-17)
(-0.0218536 -0.0254882 2.27603e-17)
(-0.0223188 -0.0260328 2.3105e-17)
(-0.0227972 -0.0265927 2.3377e-17)
(-0.0232896 -0.0271689 2.32169e-17)
(-0.0237984 -0.0277643 2.28036e-17)
(-0.0243276 -0.0283831 2.25597e-17)
(-0.0248779 -0.0290263 2.2649e-17)
(-0.0254474 -0.029692 2.30245e-17)
(-0.0260353 -0.0303791 2.36486e-17)
(-0.0266412 -0.0310874 2.488e-17)
(-0.0272657 -0.0318174 2.64116e-17)
(-0.0279093 -0.03257 2.75067e-17)
(-0.0285731 -0.0333464 2.83191e-17)
(-0.0292583 -0.0341477 2.88043e-17)
(-0.029966 -0.0349755 2.89275e-17)
(-0.0306975 -0.0358313 2.91862e-17)
(-0.0314542 -0.0367165 3.00474e-17)
(-0.0322375 -0.037633 3.15918e-17)
(-0.033049 -0.0385824 3.34211e-17)
(-0.0338902 -0.0395667 3.51143e-17)
(-0.0347629 -0.0405878 3.53736e-17)
(-0.0356688 -0.0416478 3.40548e-17)
(-0.0366098 -0.0427489 3.22852e-17)
(-0.037588 -0.0438936 3.12463e-17)
(-0.0386055 -0.0450842 3.03235e-17)
(-0.0396646 -0.0463236 2.82326e-17)
(-0.0407677 -0.0476146 2.50595e-17)
(-0.0419177 -0.0489603 2.22793e-17)
(-0.0431172 -0.0503641 1.96878e-17)
(-0.0443693 -0.0518294 1.71075e-17)
(-0.0456773 -0.0533603 1.53741e-17)
(-0.0470447 -0.0549607 1.44555e-17)
(-0.0484754 -0.0566351 1.40415e-17)
(-0.0499733 -0.0583883 1.3521e-17)
(-0.051543 -0.0602256 1.28942e-17)
(-0.0531892 -0.0621524 1.23552e-17)
(-0.054917 -0.0641748 1.14787e-17)
(-0.0567319 -0.0662993 1.08008e-17)
(-0.0586402 -0.068533 1.08878e-17)
(-0.0606481 -0.0708834 1.12937e-17)
(-0.0627628 -0.073359 1.12098e-17)
(-0.0649919 -0.0759684 1.06317e-17)
(-0.0673436 -0.0787216 9.47018e-18)
(-0.069827 -0.0816289 8.05212e-18)
(-0.0724516 -0.0847016 6.35901e-18)
(-0.075228 -0.0879522 5.74036e-18)
(-0.0781675 -0.0913937 5.50362e-18)
(-0.0812824 -0.0950407 4.91232e-18)
(-0.0845858 -0.0989086 4.36559e-18)
(-0.0880921 -0.103014 4.67175e-18)
(-0.0918166 -0.107375 5.43481e-18)
(-0.0957756 -0.112011 6.66171e-18)
(-0.0999867 -0.116942 4.20704e-18)
(-0.104469 -0.12219 -4.77957e-19)
(-0.0184637 -0.0229042 -1.13681e-18)
(-0.0188421 -0.0233766 -8.82421e-20)
(-0.0192305 -0.0238612 1.43599e-18)
(-0.0196291 -0.0243587 2.71298e-18)
(-0.0200385 -0.0248695 3.78673e-18)
(-0.0204589 -0.0253942 4.86384e-18)
(-0.020891 -0.0259332 6.01919e-18)
(-0.021335 -0.0264874 7.28731e-18)
(-0.0217917 -0.0270571 8.85805e-18)
(-0.0222616 -0.0276433 1.09375e-17)
(-0.0227459 -0.0282477 1.27148e-17)
(-0.0232481 -0.0288741 1.38822e-17)
(-0.0237708 -0.0295258 1.5002e-17)
(-0.0243133 -0.0302019 1.60496e-17)
(-0.024874 -0.0309008 1.72972e-17)
(-0.0254523 -0.0316217 1.89378e-17)
(-0.0260486 -0.0323649 2.04146e-17)
(-0.0266632 -0.0331312 2.1669e-17)
(-0.0272971 -0.0339215 2.28469e-17)
(-0.0279513 -0.0347372 2.3267e-17)
(-0.0286269 -0.0355796 2.3031e-17)
(-0.0293251 -0.0364503 2.28437e-17)
(-0.0300472 -0.037351 2.26084e-17)
(-0.0307947 -0.0382832 2.1965e-17)
(-0.0315689 -0.0392489 2.1341e-17)
(-0.0323714 -0.0402499 2.07937e-17)
(-0.0332038 -0.0412882 2.01179e-17)
(-0.0340678 -0.042366 2.0123e-17)
(-0.0349653 -0.0434855 2.09147e-17)
(-0.0358981 -0.0446492 2.19244e-17)
(-0.0368684 -0.0458597 2.24369e-17)
(-0.0378783 -0.0471196 2.25739e-17)
(-0.0389302 -0.0484319 2.27574e-17)
(-0.0400266 -0.0497998 2.26623e-17)
(-0.0411702 -0.0512267 2.18988e-17)
(-0.042364 -0.0527161 2.11982e-17)
(-0.043611 -0.054272 2.0807e-17)
(-0.0449146 -0.0558987 2.01895e-17)
(-0.0462785 -0.0576005 1.86212e-17)
(-0.0477065 -0.0593824 1.66e-17)
(-0.0492029 -0.0612497 1.4951e-17)
(-0.0507722 -0.063208 1.34013e-17)
(-0.0524193 -0.0652634 1.13443e-17)
(-0.0541496 -0.0674227 9.52744e-18)
(-0.0559687 -0.0696929 8.14792e-18)
(-0.0578829 -0.0720819 7.1213e-18)
(-0.059899 -0.074598 5.86082e-18)
(-0.0620242 -0.0772504 4.69159e-18)
(-0.0642665 -0.0800489 3.82941e-18)
(-0.0666344 -0.0830043 3.37621e-18)
(-0.0691371 -0.0861281 3.31521e-18)
(-0.0717848 -0.0894328 3.06171e-18)
(-0.0745882 -0.0929321 2.13697e-18)
(-0.0775592 -0.0966405 3.01752e-19)
(-0.0807105 -0.100574 -2.02028e-18)
(-0.0840557 -0.10475 -4.71697e-18)
(-0.0876096 -0.109186 -7.75878e-18)
(-0.0913881 -0.113903 -1.1195e-17)
(-0.0954079 -0.118921 -1.48969e-17)
(-0.0996873 -0.124263 -1.78492e-17)
(-0.104245 -0.129953 -2.05158e-17)
(-0.109102 -0.136016 -2.15685e-17)
(-0.114278 -0.142478 -2.11082e-17)
(-0.119795 -0.149366 -2.09768e-17)
(-0.125675 -0.156707 -2.20812e-17)
(-0.13194 -0.164528 -2.38281e-17)
(-0.13861 -0.172856 -2.49021e-17)
(-0.145706 -0.181716 -2.61661e-17)
(-0.153245 -0.191128 -2.72679e-17)
(-0.161245 -0.201117 -2.80941e-17)
(-0.169739 -0.211723 -2.94207e-17)
(-0.178861 -0.223114 -3.0761e-17)
(-0.188845 -0.23558 -3.32615e-17)
(-0.199745 -0.249188 -3.67103e-17)
(-0.211361 -0.263692 -3.94287e-17)
(-0.223495 -0.278843 -4.13739e-17)
(-0.235977 -0.294429 -4.48554e-17)
(-0.248578 -0.310163 -4.9875e-17)
(-0.260995 -0.32567 -5.44143e-17)
(-0.272879 -0.340509 -5.94273e-17)
(-0.283858 -0.354222 -6.54796e-17)
(-0.2936 -0.366389 -7.11176e-17)
(-0.301862 -0.376709 -7.76013e-17)
(-0.308536 -0.385047 -8.53802e-17)
(-0.313664 -0.391456 -9.11613e-17)
(-0.317419 -0.396149 -9.40406e-17)
(-0.320051 -0.399441 -9.26323e-17)
(-0.321839 -0.40168 -8.3774e-17)
(-0.323045 -0.403191 -6.49348e-17)
(-0.323881 -0.40424 -3.14475e-17)
(-0.324502 -0.405021 1.77888e-17)
(-0.325012 -0.405662 8.90304e-17)
(-0.32547 -0.406239 1.89766e-16)
(-0.325906 -0.406789 3.48083e-16)
(-0.326332 -0.407326 4.75712e-16)
(-0.0176124 -0.023275 8.0403e-18)
(-0.0179731 -0.0237552 8.27333e-18)
(-0.0183431 -0.024248 9.1667e-18)
(-0.0187229 -0.0247537 1.02431e-17)
(-0.0191128 -0.0252729 1.09752e-17)
(-0.0195133 -0.0258062 1.16512e-17)
(-0.0199249 -0.0263542 1.20581e-17)
(-0.0203479 -0.0269174 1.22725e-17)
(-0.0207828 -0.0274965 1.21572e-17)
(-0.0212303 -0.0280923 1.14849e-17)
(-0.0216908 -0.0287055 1.02596e-17)
(-0.022167 -0.0293394 8.91562e-18)
(-0.0226625 -0.0299988 8.10881e-18)
(-0.0231777 -0.0306842 7.50048e-18)
(-0.0237111 -0.0313936 6.69005e-18)
(-0.0242617 -0.0321261 5.74072e-18)
(-0.0248296 -0.0328816 4.7817e-18)
(-0.0254152 -0.0336605 3.7292e-18)
(-0.0260191 -0.034464 2.41898e-18)
(-0.0266422 -0.0352931 1.09202e-18)
(-0.0272857 -0.0361493 2.74399e-20)
(-0.0279506 -0.0370341 -5.67288e-19)
(-0.0286382 -0.0379492 -1.42108e-18)
(-0.0293499 -0.0388964 -2.85228e-18)
(-0.0300869 -0.0398773 -3.86562e-18)
(-0.0308508 -0.040894 -4.2711e-18)
(-0.0316431 -0.0419486 -3.69548e-18)
(-0.0324654 -0.0430432 -2.13534e-18)
(-0.0333194 -0.0441801 -5.99481e-20)
(-0.0342071 -0.0453617 2.40052e-18)
(-0.0351303 -0.0465907 4.99581e-18)
(-0.0360912 -0.04787 7.95721e-18)
(-0.037092 -0.0492023 1.15487e-17)
(-0.0381351 -0.0505911 1.53634e-17)
(-0.0392231 -0.0520396 1.94474e-17)
(-0.0403588 -0.0535517 2.3331e-17)
(-0.0415451 -0.0551311 2.59851e-17)
(-0.0427852 -0.0567823 2.77327e-17)
(-0.0440826 -0.0585099 2.8935e-17)
(-0.0454411 -0.0603186 3.00153e-17)
(-0.0468645 -0.062214 3.10532e-17)
(-0.0483573 -0.0642018 3.16255e-17)
(-0.0499241 -0.0662882 3.22602e-17)
(-0.0515699 -0.0684799 3.29314e-17)
(-0.0533004 -0.0707844 3.2872e-17)
(-0.0551214 -0.0732093 3.2102e-17)
(-0.0570392 -0.0757634 3.13886e-17)
(-0.059061 -0.0784559 3.21018e-17)
(-0.0611942 -0.0812969 3.46017e-17)
(-0.0634469 -0.0842971 3.77069e-17)
(-0.0658282 -0.0874686 4.03204e-17)
(-0.0683475 -0.0908239 4.26397e-17)
(-0.0710153 -0.0943771 4.4961e-17)
(-0.0738427 -0.098143 4.74142e-17)
(-0.0768421 -0.102138 4.96189e-17)
(-0.0800265 -0.106379 5.09766e-17)
(-0.08341 -0.110886 5.11161e-17)
(-0.0870079 -0.115678 5.05065e-17)
(-0.0908364 -0.120778 5.02804e-17)
(-0.0949129 -0.126208 5.01222e-17)
(-0.0992558 -0.131993 5.0254e-17)
(-0.103885 -0.138159 5.05045e-17)
(-0.108819 -0.144732 5.01587e-17)
(-0.114081 -0.151742 4.9836e-17)
(-0.119691 -0.159215 4.99665e-17)
(-0.125671 -0.167181 5.00503e-17)
(-0.132041 -0.175667 4.95734e-17)
(-0.138821 -0.184699 4.80616e-17)
(-0.146028 -0.194301 4.44683e-17)
(-0.153681 -0.204496 3.98573e-17)
(-0.161806 -0.215321 3.34491e-17)
(-0.170511 -0.226919 2.62194e-17)
(-0.180021 -0.239589 1.96968e-17)
(-0.190438 -0.253465 1.2509e-17)
(-0.201581 -0.268311 3.60371e-18)
(-0.213242 -0.283847 -8.17602e-18)
(-0.225264 -0.299865 -2.16005e-17)
(-0.237428 -0.316072 -3.61731e-17)
(-0.249449 -0.332089 -5.31946e-17)
(-0.260985 -0.347463 -7.47633e-17)
(-0.271678 -0.361712 -9.86936e-17)
(-0.281194 -0.374396 -1.2343e-16)
(-0.289287 -0.385185 -1.49386e-16)
(-0.295842 -0.393926 -1.7597e-16)
(-0.30089 -0.400658 -2.0246e-16)
(-0.304588 -0.405594 -2.25984e-16)
(-0.307182 -0.409057 -2.42562e-16)
(-0.308942 -0.411411 -2.51075e-16)
(-0.310125 -0.412996 -2.4911e-16)
(-0.310942 -0.414091 -2.30948e-16)
(-0.311546 -0.414904 -1.90943e-16)
(-0.312039 -0.415569 -1.23537e-16)
(-0.312481 -0.416166 -2.18513e-17)
(-0.312902 -0.416734 1.02696e-16)
(-0.313313 -0.417289 2.27616e-16)
(-0.0167586 -0.023625 5.56223e-18)
(-0.0171013 -0.0241126 5.40146e-18)
(-0.017453 -0.024613 6.11731e-18)
(-0.0178139 -0.0251264 7.60181e-18)
(-0.0181845 -0.0256536 8.95643e-18)
(-0.0185651 -0.0261951 1.00036e-17)
(-0.0189562 -0.0267514 1.04941e-17)
(-0.0193581 -0.0273232 1.03607e-17)
(-0.0197714 -0.0279111 9.63533e-18)
(-0.0201965 -0.0285158 8.45948e-18)
(-0.020634 -0.0291382 7.35913e-18)
(-0.0210853 -0.0297802 6.47312e-18)
(-0.0215536 -0.0304461 4.99663e-18)
(-0.022041 -0.0311389 3.14983e-18)
(-0.0225469 -0.0318578 1.41156e-18)
(-0.0230698 -0.032601 -1.62081e-19)
(-0.0236094 -0.0333679 -1.90352e-18)
(-0.0241658 -0.0341588 -3.95838e-18)
(-0.0247397 -0.0349746 -6.3219e-18)
(-0.0253319 -0.0358164 -8.97829e-18)
(-0.0259433 -0.0366856 -1.14907e-17)
(-0.026575 -0.0375837 -1.35074e-17)
(-0.0272282 -0.0385124 -1.50682e-17)
(-0.0279042 -0.0394735 -1.62695e-17)
(-0.0286041 -0.0404688 -1.70204e-17)
(-0.0293295 -0.0415004 -1.77819e-17)
(-0.0300818 -0.0425702 -1.84839e-17)
(-0.0308625 -0.0436805 -1.90322e-17)
(-0.0316734 -0.0448337 -1.93661e-17)
(-0.0325161 -0.0460321 -1.93448e-17)
(-0.0333925 -0.0472786 -1.97163e-17)
(-0.0343046 -0.0485759 -2.0703e-17)
(-0.0352545 -0.0499271 -2.13293e-17)
(-0.0362446 -0.0513353 -2.12128e-17)
(-0.0372772 -0.0528041 -2.1144e-17)
(-0.0383551 -0.0543373 -2.05884e-17)
(-0.0394809 -0.0559388 -1.90966e-17)
(-0.0406579 -0.057613 -1.67131e-17)
(-0.0418891 -0.0593645 -1.33593e-17)
(-0.0431783 -0.0611984 -1.0534e-17)
(-0.0445291 -0.06312 -7.88837e-18)
(-0.0459457 -0.0651353 -5.18153e-18)
(-0.0474326 -0.0672506 -2.62049e-18)
(-0.0489945 -0.0694726 -1.71853e-19)
(-0.0506366 -0.0718089 2.03873e-18)
(-0.0523647 -0.0742675 3.84312e-18)
(-0.0541848 -0.076857 5.65427e-18)
(-0.0561035 -0.0795868 7.00539e-18)
(-0.0581281 -0.0824673 7.76536e-18)
(-0.0602662 -0.0855094 8.50259e-18)
(-0.0625264 -0.0887252 9.05505e-18)
(-0.0649178 -0.0921277 9.86557e-18)
(-0.0674502 -0.0957311 1.11038e-17)
(-0.0701346 -0.0995505 1.22682e-17)
(-0.0729824 -0.103603 1.25265e-17)
(-0.0760062 -0.107905 1.29546e-17)
(-0.0792195 -0.112478 1.3756e-17)
(-0.082637 -0.117341 1.46147e-17)
(-0.0862742 -0.122516 1.52952e-17)
(-0.0901478 -0.128028 1.53725e-17)
(-0.0942754 -0.133902 1.46315e-17)
(-0.0986759 -0.140164 1.26485e-17)
(-0.103369 -0.146842 1.01786e-17)
(-0.108374 -0.153965 7.16665e-18)
(-0.113713 -0.161563 4.64256e-18)
(-0.119406 -0.169664 3.35991e-18)
(-0.125473 -0.178299 2.35428e-18)
(-0.131934 -0.187494 8.35336e-19)
(-0.138806 -0.197274 -1.08093e-18)
(-0.146106 -0.207663 -2.36036e-18)
(-0.153858 -0.218696 -3.70158e-18)
(-0.162142 -0.230488 -5.16661e-18)
(-0.171179 -0.243348 -6.3331e-18)
(-0.181108 -0.257477 -8.18616e-18)
(-0.191765 -0.272646 -1.00792e-17)
(-0.202939 -0.28855 -1.35224e-17)
(-0.214482 -0.304979 -1.82891e-17)
(-0.226188 -0.321642 -2.36688e-17)
(-0.237785 -0.338152 -3.15686e-17)
(-0.248948 -0.354043 -4.06801e-17)
(-0.259324 -0.368817 -5.07511e-17)
(-0.268586 -0.382007 -6.11577e-17)
(-0.276487 -0.393259 -7.32286e-17)
(-0.282901 -0.402398 -8.62926e-17)
(-0.28785 -0.409452 -9.78824e-17)
(-0.29148 -0.41463 -1.05315e-16)
(-0.294026 -0.418265 -1.05889e-16)
(-0.295753 -0.420733 -9.81081e-17)
(-0.29691 -0.422391 -7.7638e-17)
(-0.297705 -0.423533 -3.94369e-17)
(-0.29829 -0.424377 1.94576e-17)
(-0.298766 -0.425065 1.0265e-16)
(-0.299192 -0.425681 2.13985e-16)
(-0.299596 -0.426267 2.1949e-16)
(-0.299991 -0.426839 3.42622e-16)
(-0.0159027 -0.0239546 -4.6484e-19)
(-0.0162276 -0.0244493 -2.90079e-18)
(-0.0165609 -0.0249567 -5.01451e-18)
(-0.016903 -0.0254775 -6.65958e-18)
(-0.0172543 -0.0260122 -7.9219e-18)
(-0.017615 -0.0265613 -8.78525e-18)
(-0.0179856 -0.0271255 -9.51212e-18)
(-0.0183665 -0.0277053 -1.0021e-17)
(-0.0187582 -0.0283015 -9.84714e-18)
(-0.019161 -0.0289147 -9.16748e-18)
(-0.0195755 -0.0295457 -8.57376e-18)
(-0.0200024 -0.0301954 -8.4321e-18)
(-0.020444 -0.0308675 -8.95539e-18)
(-0.020904 -0.0315672 -9.39152e-18)
(-0.0213823 -0.0322947 -9.22175e-18)
(-0.0218774 -0.0330476 -8.84293e-18)
(-0.0223886 -0.033825 -8.40802e-18)
(-0.0229159 -0.034627 -7.9081e-18)
(-0.0234599 -0.0354543 -7.10956e-18)
(-0.0240211 -0.0363079 -6.03957e-18)
(-0.0246005 -0.0371893 -4.75284e-18)
(-0.0251991 -0.0380999 -3.30633e-18)
(-0.025818 -0.0390414 -1.79997e-18)
(-0.0264583 -0.0400156 -5.79834e-19)
(-0.0271213 -0.0410244 2.21831e-19)
(-0.0278084 -0.0420698 4.8377e-19)
(-0.0285208 -0.0431539 7.42909e-19)
(-0.0292602 -0.044279 8.5686e-19)
(-0.030028 -0.0454473 3.09351e-19)
(-0.0308259 -0.0466615 -6.9589e-19)
(-0.0316556 -0.0479243 -2.18852e-18)
(-0.0325192 -0.0492385 -3.96065e-18)
(-0.0334185 -0.0506071 -5.51766e-18)
(-0.0343558 -0.0520336 -7.53633e-18)
(-0.0353333 -0.0535214 -9.77771e-18)
(-0.0363536 -0.0550742 -1.20152e-17)
(-0.0374194 -0.0566963 -1.3662e-17)
(-0.0385334 -0.0583918 -1.47448e-17)
(-0.0396989 -0.0601657 -1.59628e-17)
(-0.0409191 -0.0620229 -1.7403e-17)
(-0.0421976 -0.063969 -1.84509e-17)
(-0.0435385 -0.0660099 -1.88078e-17)
(-0.0449458 -0.068152 -1.90813e-17)
(-0.0464241 -0.0704023 -1.90067e-17)
(-0.0479785 -0.0727682 -1.78299e-17)
(-0.0496141 -0.075258 -1.64758e-17)
(-0.0513369 -0.0778804 -1.52069e-17)
(-0.053153 -0.080645 -1.47778e-17)
(-0.0550694 -0.0835622 -1.49373e-17)
(-0.0570934 -0.0866432 -1.50651e-17)
(-0.059233 -0.0899003 -1.53799e-17)
(-0.0614969 -0.0933467 -1.58029e-17)
(-0.0638946 -0.0969967 -1.68738e-17)
(-0.0664362 -0.100866 -1.83875e-17)
(-0.0691329 -0.104971 -1.96276e-17)
(-0.0719966 -0.109331 -2.00991e-17)
(-0.0750402 -0.113964 -2.07083e-17)
(-0.0782775 -0.118893 -2.13023e-17)
(-0.0817236 -0.124139 -2.13577e-17)
(-0.0853943 -0.129728 -2.1858e-17)
(-0.0893067 -0.135684 -2.26763e-17)
(-0.0934787 -0.142036 -2.35929e-17)
(-0.0979291 -0.148812 -2.44263e-17)
(-0.102677 -0.156042 -2.56421e-17)
(-0.107744 -0.163756 -2.76221e-17)
(-0.113148 -0.171984 -3.0482e-17)
(-0.118911 -0.180758 -3.33792e-17)
(-0.12505 -0.190106 -3.46248e-17)
(-0.131583 -0.200054 -3.403e-17)
(-0.138526 -0.210627 -3.25148e-17)
(-0.145899 -0.221855 -3.03913e-17)
(-0.153762 -0.233828 -2.78818e-17)
(-0.162324 -0.246865 -2.67382e-17)
(-0.171761 -0.261232 -2.58951e-17)
(-0.181923 -0.276706 -2.28787e-17)
(-0.192595 -0.292959 -1.958e-17)
(-0.203641 -0.309781 -1.62812e-17)
(-0.214868 -0.326879 -1.39915e-17)
(-0.226018 -0.343863 -1.24422e-17)
(-0.236779 -0.360254 -1.1448e-17)
(-0.246811 -0.375537 -1.15925e-17)
(-0.255792 -0.389222 -1.38052e-17)
(-0.263473 -0.400929 -1.65254e-17)
(-0.269725 -0.410461 -1.84902e-17)
(-0.274558 -0.417832 -1.82163e-17)
(-0.278108 -0.423251 -1.46071e-17)
(-0.280598 -0.427056 -6.73099e-18)
(-0.282284 -0.429638 9.04404e-18)
(-0.283412 -0.431368 3.64298e-17)
(-0.284183 -0.432556 7.72757e-17)
(-0.284748 -0.43343 1.36132e-16)
(-0.285206 -0.43414 2.17058e-16)
(-0.285615 -0.434775 3.20969e-16)
(-0.286003 -0.435378 4.12348e-16)
(-0.286381 -0.435967 5.36016e-16)
(-0.0150452 -0.0242644 -3.99922e-18)
(-0.0153522 -0.0247656 -6.04099e-18)
(-0.0156673 -0.0252797 -7.38848e-18)
(-0.0159906 -0.0258073 -8.80628e-18)
(-0.0163225 -0.026349 -1.02516e-17)
(-0.0166634 -0.0269053 -1.16605e-17)
(-0.0170136 -0.0274768 -1.34382e-17)
(-0.0173735 -0.0280641 -1.55199e-17)
(-0.0177435 -0.028668 -1.77522e-17)
(-0.0181241 -0.0292891 -1.99495e-17)
(-0.0185157 -0.0299281 -2.20925e-17)
(-0.0189189 -0.030586 -2.38994e-17)
(-0.0193352 -0.0312654 -2.55303e-17)
(-0.0197676 -0.0319707 -2.68155e-17)
(-0.0202178 -0.0327047 -2.77474e-17)
(-0.0206848 -0.033466 -2.84839e-17)
(-0.0211676 -0.0342531 -2.87904e-17)
(-0.0216659 -0.0350654 -2.89762e-17)
(-0.0221799 -0.0359035 -2.90803e-17)
(-0.0227103 -0.0367684 -2.87412e-17)
(-0.0232578 -0.0376612 -2.81987e-17)
(-0.0238234 -0.0385835 -2.74771e-17)
(-0.024408 -0.039537 -2.70583e-17)
(-0.0250129 -0.0405235 -2.69286e-17)
(-0.0256391 -0.0415449 -2.72704e-17)
(-0.026288 -0.0426033 -2.71107e-17)
(-0.0269608 -0.0437007 -2.62788e-17)
(-0.0276589 -0.0448395 -2.59823e-17)
(-0.0283838 -0.046022 -2.613e-17)
(-0.0291371 -0.0472509 -2.64683e-17)
(-0.0299205 -0.0485288 -2.59182e-17)
(-0.0307357 -0.0498587 -2.53244e-17)
(-0.0315847 -0.0512437 -2.45405e-17)
(-0.0324694 -0.052687 -2.35154e-17)
(-0.0333921 -0.0541924 -2.22116e-17)
(-0.0343552 -0.0557636 -2.11669e-17)
(-0.0353611 -0.0574047 -2.145e-17)
(-0.0364125 -0.0591201 -2.23568e-17)