/*--------------------------------*- C++ -*----------------------------------*\
  =========                 |
  \\      /  F ield         | OpenFOAM: The Open Source CFD Toolbox
   \\    /   O peration     | Website:  https://openfoam.org
    \\  /    A nd           | Version:  7
     \\/     M anipulation  |
\*---------------------------------------------------------------------------*/
FoamFile
{
    version     2.0;
    format      ascii;
    class       volVectorField;
    location    "136000";
    object      vorticity;
}
// * * * * * * * * * * * * * * * * * * * * * * * * * * * * * * * * * * * * * //

dimensions      [0 0 -1 0 0 0 0];

internalField   nonuniform List<vector> 
4838
(
(0.00175999 0.000802798 7.37769e-17)
(0.00108539 0.00146964 1.63481e-17)
(0.00111543 0.0013475 -8.30888e-18)
(0.00111145 0.00121987 -1.51049e-17)
(0.00108656 0.00109334 -2.46281e-18)
(0.00104669 0.000971615 1.47958e-17)
(0.000995871 0.000855719 3.21402e-17)
(0.000936757 0.000746078 4.17217e-17)
(0.00087132 0.000643049 4.512e-17)
(0.000801363 0.000547104 3.39274e-17)
(0.000728815 0.000458889 1.64589e-18)
(0.00065586 0.000379175 -2.91157e-17)
(0.000584845 0.000308694 -1.91765e-17)
(0.00051803 0.00024792 -2.81662e-17)
(0.000457285 0.000196865 -1.10497e-16)
(0.000403864 0.000155012 -1.87595e-16)
(0.000358272 0.000121385 -1.45963e-16)
(0.000320538 9.46965e-05 -7.52932e-17)
(0.000290147 7.34966e-05 -5.75422e-17)
(0.00026616 5.64157e-05 -5.41061e-17)
(0.000247534 4.25396e-05 -3.003e-17)
(0.000233743 3.11124e-05 -1.7153e-17)
(0.000224076 2.1293e-05 -1.01e-17)
(0.000217952 1.24372e-05 1.29608e-17)
(0.000214985 4.09202e-06 2.23041e-17)
(0.000214985 -4.09313e-06 3.26136e-17)
(0.000217952 -1.24383e-05 4.27311e-17)
(0.000224076 -2.12941e-05 5.92065e-17)
(0.000233742 -3.11133e-05 9.24147e-17)
(0.000247533 -4.25403e-05 1.03424e-16)
(0.000266158 -5.64162e-05 1.32733e-16)
(0.000290144 -7.34968e-05 2.02809e-16)
(0.000320535 -9.46962e-05 2.42689e-16)
(0.000358268 -0.000121384 2.0861e-16)
(0.000403859 -0.00015501 1.66994e-16)
(0.00045728 -0.000196863 1.35549e-16)
(0.000518024 -0.000247917 9.19739e-17)
(0.000584839 -0.00030869 3.36372e-17)
(0.000655854 -0.00037917 -1.93939e-18)
(0.000728809 -0.000458885 2.76851e-18)
(0.000801357 -0.000547099 3.3384e-17)
(0.000871314 -0.000643044 5.92006e-17)
(0.000936751 -0.000746073 5.29763e-17)
(0.000995866 -0.000855713 3.46476e-17)
(0.00104668 -0.000971608 1.70301e-17)
(0.00108655 -0.00109333 1.08855e-17)
(0.00111144 -0.00121986 1.18167e-17)
(0.00111542 -0.00134749 1.24927e-18)
(0.00108539 -0.00146963 -2.50679e-17)
(0.00175999 -0.000802794 -3.72139e-17)
(0.00236414 0.000899442 4.39653e-17)
(0.00156444 0.00155517 -3.51682e-18)
(0.00151569 0.00146614 -1.56385e-17)
(0.00146723 0.00136201 -1.9494e-17)
(0.00141437 0.00124785 -1.84813e-17)
(0.001355 0.00113129 -1.08366e-17)
(0.0012898 0.00101651 5.92997e-18)
(0.00122007 0.00090569 1.53735e-17)
(0.00114704 0.000799989 2.07562e-17)
(0.00107182 0.000700086 2.87269e-17)
(0.00099543 0.000606487 2.08324e-17)
(0.000918997 0.00051967 -7.92764e-18)
(0.000843763 0.000440128 -7.48316e-18)
(0.000771105 0.000368324 -1.90442e-18)
(0.000702434 0.000304589 -5.41655e-17)
(0.000639038 0.000249013 -1.3146e-16)
(0.000581953 0.000201356 -1.18569e-16)
(0.000531853 0.000161057 -5.78209e-17)
(0.000489019 0.000127294 -5.71031e-17)
(0.000453346 9.90718e-05 -6.64014e-17)
(0.000424484 7.53574e-05 -3.27259e-17)
(0.000402112 5.51906e-05 -1.91488e-17)
(0.000385831 3.76652e-05 -1.46562e-17)
(0.000375242 2.19223e-05 1.20398e-17)
(0.000370031 7.19726e-06 1.1933e-17)
(0.000370031 -7.19785e-06 1.05557e-17)
(0.000375241 -2.19228e-05 2.18481e-17)
(0.00038583 -3.76656e-05 5.13058e-17)
(0.00040211 -5.51908e-05 8.5034e-17)
(0.000424481 -7.53574e-05 8.12817e-17)
(0.000453343 -9.90714e-05 1.07669e-16)
(0.000489016 -0.000127293 1.62681e-16)
(0.000531849 -0.000161055 1.62784e-16)
(0.000581948 -0.000201354 1.37924e-16)
(0.000639033 -0.00024901 1.18684e-16)
(0.000702428 -0.000304586 1.00094e-16)
(0.000771099 -0.00036832 4.75431e-17)
(0.000843757 -0.000440124 -4.93576e-18)
(0.000918991 -0.000519666 -1.48339e-17)
(0.000995424 -0.000606483 1.15439e-18)
(0.00107181 -0.000700081 1.48446e-17)
(0.00114704 -0.000799984 2.1767e-17)
(0.00122006 -0.000905684 1.05666e-17)
(0.0012898 -0.0010165 2.71769e-18)
(0.001355 -0.00113128 1.26999e-17)
(0.00141437 -0.00124784 1.47677e-17)
(0.00146722 -0.001362 -4.97832e-18)
(0.00151569 -0.00146613 -2.62906e-17)
(0.00156443 -0.00155516 -3.86448e-17)
(0.00236413 -0.000899437 -4.17126e-17)
(0.00271034 0.00107424 2.64034e-17)
(0.00182529 0.00173305 1.55066e-18)
(0.00175997 0.00161433 -4.28667e-18)
(0.00169945 0.00150664 -1.16593e-17)
(0.00164275 0.0013963 -1.12883e-17)
(0.00158521 0.00128352 -4.92274e-18)
(0.00152483 0.00117056 6.37391e-18)
(0.00146124 0.00105954 1.65007e-17)
(0.00139482 0.000952019 2.44042e-17)
(0.00132623 0.000849038 2.60465e-17)
(0.0012562 0.000751279 1.5774e-17)
(0.00118551 0.000659224 1.90152e-18)
(0.00111499 0.000573255 2.46872e-18)
(0.00104556 0.000493702 4.77134e-18)
(0.000978241 0.000420841 -2.14335e-17)
(0.000914122 0.00035485 -6.69573e-17)
(0.000854272 0.000295753 -6.1295e-17)
(0.00079965 0.000243374 -3.22926e-17)
(0.00075104 0.000197324 -6.7948e-17)
(0.000709 0.000157001 -1.06389e-16)
(0.000673863 0.000121629 -8.47623e-17)
(0.00064578 9.03452e-05 -4.94665e-17)
(0.000624796 6.22583e-05 -2.15677e-17)
(0.000610868 3.64499e-05 2.04266e-17)
(0.000603929 1.19998e-05 3.78894e-17)
(0.000603929 -1.19996e-05 3.15338e-17)
(0.000610867 -3.64496e-05 4.28528e-18)
(0.000624794 -6.22579e-05 -2.69842e-19)
(0.000645778 -9.03445e-05 3.35829e-17)
(0.00067386 -0.000121628 4.83594e-17)
(0.000708997 -0.000156999 7.28649e-17)
(0.000751036 -0.000197322 1.14498e-16)
(0.000799646 -0.000243372 1.32888e-16)
(0.000854267 -0.000295751 1.16437e-16)
(0.000914117 -0.000354847 8.43445e-17)
(0.000978235 -0.000420837 6.22882e-17)
(0.00104555 -0.000493698 3.7668e-17)
(0.00111498 -0.000573251 7.9155e-18)
(0.0011855 -0.00065922 -1.04646e-17)
(0.00125619 -0.000751274 -1.22403e-17)
(0.00132622 -0.000849033 -7.46394e-18)
(0.00139481 -0.000952013 -8.62044e-19)
(0.00146123 -0.00105953 4.41116e-19)
(0.00152483 -0.00117055 1.96405e-18)
(0.00158521 -0.00128351 5.96148e-18)
(0.00164275 -0.00139629 3.58881e-18)
(0.00169945 -0.00150664 -1.15673e-17)
(0.00175997 -0.00161432 -3.04864e-17)
(0.00182529 -0.00173304 -4.35891e-17)
(0.00271033 -0.00107424 -5.06206e-17)
(0.00296348 0.00125513 1.90476e-17)
(0.00206067 0.00193126 -4.20955e-18)
(0.00199374 0.00178991 -5.07219e-18)
(0.00192834 0.00166636 -4.53488e-18)
(0.00186843 0.00154854 -1.22693e-18)
(0.00181114 0.00143288 3.72318e-18)
(0.00175411 0.00131854 7.32787e-18)
(0.00169598 0.00120607 1.07894e-17)
(0.00163627 0.00109639 1.87619e-17)
(0.00157504 0.000990401 1.99667e-17)
(0.00151264 0.000888814 1.28597e-17)
(0.00144958 0.000792147 6.15506e-18)
(0.00138644 0.000700771 1.00109e-17)
(0.00132387 0.000614957 9.66945e-18)
(0.00126261 0.000534897 -8.13577e-18)
(0.00120346 0.000460713 -3.93511e-17)
(0.00114729 0.000392435 -4.74603e-17)
(0.00109499 0.000329974 -3.93769e-17)
(0.00104741 0.000273104 -7.04134e-17)
(0.00100533 0.000221434 -1.04802e-16)
(0.000969399 0.000174416 -8.68021e-17)
(0.000940122 0.000131363 -4.12533e-17)
(0.000917875 9.14943e-05 4.39076e-19)
(0.000902917 5.39522e-05 3.21936e-17)
(0.000895402 1.7826e-05 3.84543e-17)
(0.000895401 -1.78249e-05 1.78455e-17)
(0.000902916 -5.3951e-05 -1.25353e-17)
(0.000917874 -9.14931e-05 -1.53995e-17)
(0.00094012 -0.000131362 7.73594e-18)
(0.000969396 -0.000174414 3.6302e-17)
(0.00100533 -0.000221432 6.06617e-17)
(0.00104741 -0.000273101 7.43378e-17)
(0.00109499 -0.000329972 8.4689e-17)
(0.00114729 -0.000392432 7.86266e-17)
(0.00120346 -0.00046071 5.86633e-17)
(0.0012626 -0.000534894 5.19669e-17)
(0.00132387 -0.000614953 4.44816e-17)
(0.00138643 -0.000700767 2.168e-17)
(0.00144958 -0.000792142 5.08289e-18)
(0.00151264 -0.000888809 1.3717e-18)
(0.00157504 -0.000990396 1.87587e-19)
(0.00163626 -0.00109638 7.05136e-19)
(0.00169597 -0.00120606 2.66369e-18)
(0.0017541 -0.00131854 3.05151e-18)
(0.00181114 -0.00143287 2.9871e-19)
(0.00186842 -0.00154853 -6.88411e-18)
(0.00192834 -0.00166636 -2.13157e-17)
(0.00199373 -0.00178991 -3.83348e-17)
(0.00206066 -0.00193125 -4.83336e-17)
(0.00296347 -0.00125513 -4.66959e-17)
(0.00319054 0.00143321 1.50604e-17)
(0.00227994 0.00212679 -3.61033e-18)
(0.00222048 0.00197472 -4.831e-18)
(0.00215758 0.00183784 -4.1039e-18)
(0.00209793 0.001709 5.60662e-18)
(0.00204117 0.00158565 1.68105e-17)
(0.0019861 0.00146601 1.66607e-17)
(0.00193155 0.00134944 1.69367e-17)
(0.00187677 0.00123597 1.71402e-17)
(0.00182143 0.00112602 7.71656e-18)
(0.00176557 0.00102004 -2.26813e-18)
(0.00170944 0.000918472 2.98986e-18)
(0.00165343 0.000821639 1.13788e-17)
(0.00159802 0.000729772 1.60488e-18)
(0.00154377 0.000643018 -1.49197e-17)
(0.00149129 0.00056144 -3.17132e-17)
(0.00144127 0.000485021 -3.95719e-17)
(0.00139441 0.000413658 -3.8924e-17)
(0.00135145 0.000347144 -5.69222e-17)
(0.00131311 0.000285159 -7.55062e-17)
(0.00128005 0.000227259 -5.39353e-17)
(0.00125287 0.000172884 -1.32581e-17)
(0.00123205 0.000121367 6.09382e-18)
(0.00121796 7.19586e-05 1.43946e-17)
(0.00121085 2.38417e-05 3.44988e-17)
(0.00121085 -2.38399e-05 3.62181e-17)
(0.00121796 -7.19568e-05 5.15687e-18)
(0.00123205 -0.000121366 -1.55967e-17)
(0.00125287 -0.000172882 -4.11448e-18)
(0.00128005 -0.000227257 2.28428e-17)
(0.00131311 -0.000285156 4.25399e-17)
(0.00135145 -0.000347142 4.94602e-17)
(0.00139441 -0.000413655 5.53184e-17)
(0.00144127 -0.000485018 5.00438e-17)
(0.00149129 -0.000561436 3.76944e-17)
(0.00154376 -0.000643014 3.76348e-17)
(0.00159801 -0.000729768 4.22496e-17)
(0.00165342 -0.000821634 3.54152e-17)
(0.00170944 -0.000918468 2.3289e-17)
(0.00176557 -0.00102004 1.24383e-17)
(0.00182143 -0.00112601 5.58591e-18)
(0.00187677 -0.00123597 5.80526e-18)
(0.00193155 -0.00134943 4.58807e-18)
(0.0019861 -0.00146601 -1.43038e-18)
(0.00204117 -0.00158564 -6.26451e-18)
(0.00209793 -0.001709 -1.10785e-17)
(0.00215758 -0.00183783 -2.24428e-17)
(0.00222048 -0.00197471 -3.33272e-17)
(0.00227994 -0.00212678 -3.58187e-17)
(0.00319054 -0.0014332 -3.23439e-17)
(0.00340602 0.00160981 2.38173e-17)
(0.00248932 0.00231642 1.10377e-18)
(0.00243881 0.00215875 6.73105e-19)
(0.0023824 0.00201312 2.26821e-18)
(0.00232672 0.00187465 8.24369e-18)
(0.00227262 0.00174249 2.08079e-17)
(0.00222006 0.00161546 2.51866e-17)
(0.00216857 0.00149267 2.45951e-17)
(0.00211764 0.00137369 2.04338e-17)
(0.00206692 0.00125847 1.04025e-17)
(0.0020163 0.00114718 3.44022e-18)
(0.00196587 0.00104004 9.92321e-18)
(0.00191587 0.000937284 9.56026e-18)
(0.00186667 0.000839069 -1.47397e-17)
(0.0018187 0.000745497 -3.29824e-17)
(0.00177246 0.00065659 -3.40093e-17)
(0.00172849 0.000572294 -3.17351e-17)
(0.00168736 0.000492478 -2.93315e-17)
(0.00164966 0.000416922 -3.79969e-17)
(0.001616 0.000345322 -4.83041e-17)
(0.00158694 0.000277276 -3.01086e-17)
(0.00156299 0.000212294 5.87803e-18)
(0.00154461 0.000149795 1.19136e-17)
(0.00153216 8.91279e-05 6.04655e-18)
(0.00152587 2.95839e-05 2.32222e-17)
(0.00152586 -2.95816e-05 3.12112e-17)
(0.00153216 -8.91256e-05 1.03989e-17)
(0.00154461 -0.000149793 -1.01602e-17)
(0.00156299 -0.000212291 -6.32758e-18)
(0.00158694 -0.000277274 1.50792e-17)
(0.001616 -0.000345319 3.13836e-17)
(0.00164966 -0.000416919 3.74916e-17)
(0.00168735 -0.000492474 4.07801e-17)
(0.00172848 -0.000572291 3.22688e-17)
(0.00177245 -0.000656586 2.24849e-17)
(0.0018187 -0.000745493 2.46809e-17)
(0.00186666 -0.000839065 3.05327e-17)
(0.00191587 -0.00093728 3.17716e-17)
(0.00196586 -0.00104004 2.75016e-17)
(0.0020163 -0.00114718 1.39552e-17)
(0.00206692 -0.00125847 1.91918e-18)
(0.00211764 -0.00137368 8.3264e-19)
(0.00216857 -0.00149266 7.225e-19)
(0.00222006 -0.00161546 -5.94863e-18)
(0.00227262 -0.00174249 -1.16933e-17)
(0.00232672 -0.00187464 -1.57369e-17)
(0.0023824 -0.00201311 -2.12422e-17)
(0.00243881 -0.00215875 -2.29242e-17)
(0.00248932 -0.00231641 -1.97349e-17)
(0.00340602 -0.00160981 -1.57341e-17)
(0.00361336 0.00178585 3.81151e-17)
(0.00269257 0.00250118 8.89973e-18)
(0.0026502 0.00233924 6.81459e-18)
(0.0026013 0.00218742 7.73264e-18)
(0.00255164 0.00204141 1.1054e-17)
(0.00250217 0.00190126 1.92902e-17)
(0.00245343 0.00176652 2.31947e-17)
(0.00240552 0.00163658 2.22133e-17)
(0.00235832 0.00151098 2.07183e-17)
(0.00231167 0.00138948 1.53654e-17)
(0.00226549 0.00127202 1.27064e-17)
(0.00221983 0.00115863 1.99874e-17)
(0.00217486 0.00104942 1.91633e-17)
(0.00213084 0.000944462 -7.48481e-18)
(0.00208813 0.000843797 -2.85409e-17)
(0.00204714 0.00074741 -2.21471e-17)
(0.00200832 0.000655218 -1.87444e-17)
(0.00197215 0.000567068 -2.20242e-17)
(0.0019391 0.000482735 -2.28182e-17)
(0.00190966 0.000401917 -2.54641e-17)
(0.0018843 0.000324237 -1.73881e-17)
(0.00186344 0.000249247 3.73859e-18)
(0.00184744 0.000176428 5.66943e-18)
(0.00183661 0.000105206 -4.53511e-19)
(0.00183114 3.49598e-05 9.86057e-18)
(0.00183114 -3.49572e-05 1.16253e-17)
(0.00183661 -0.000105203 -3.38189e-18)
(0.00184744 -0.000176425 -1.43358e-17)
(0.00186344 -0.000249244 -1.05572e-17)
(0.0018843 -0.000324235 3.90899e-18)
(0.00190966 -0.000401914 2.12125e-17)
(0.0019391 -0.000482732 3.54727e-17)
(0.00197215 -0.000567065 3.61151e-17)
(0.00200832 -0.000655215 2.246e-17)
(0.00204714 -0.000747406 1.12464e-17)
(0.00208813 -0.000843793 1.27494e-17)
(0.00213084 -0.000944458 1.98528e-17)
(0.00217485 -0.00104942 2.42415e-17)
(0.00221983 -0.00115863 2.26238e-17)
(0.00226549 -0.00127201 1.09943e-17)
(0.00231167 -0.00138948 4.63204e-18)
(0.00235832 -0.00151098 1.61547e-18)
(0.00240552 -0.00163657 -3.61767e-18)
(0.00245343 -0.00176651 -1.06954e-17)
(0.00250217 -0.00190126 -1.59041e-17)
(0.00255164 -0.00204141 -2.2082e-17)
(0.0026013 -0.00218742 -2.51906e-17)
(0.00265021 -0.00233923 -1.7022e-17)
(0.00269257 -0.00250117 -6.63306e-18)
(0.00361337 -0.00178585 -5.07289e-18)
(0.0038142 0.00196159 2.6234e-17)
(0.00289152 0.00268221 1.83133e-17)
(0.00285646 0.00251613 1.61825e-17)
(0.00281489 0.0023591 1.34187e-17)
(0.00277186 0.00220688 1.09868e-17)
(0.00272813 0.0020598 1.59424e-17)
(0.00268429 0.0019178 2.00239e-17)
(0.00264074 0.00178065 1.7649e-17)
(0.00259765 0.00164804 1.64776e-17)
(0.00255508 0.0015197 1.35836e-17)
(0.00251307 0.00139549 9.32063e-18)
(0.0024717 0.00127535 1.45331e-17)
(0.00243113 0.00115927 2.02822e-17)
(0.00239158 0.00104723 8.48314e-18)
(0.00235336 0.000939226 -5.99503e-18)
(0.0023168 0.0008352 3.30791e-18)
(0.0022823 0.000735043 1.19617e-17)
(0.00225025 0.000638589 7.48264e-18)
(0.00222106 0.000545609 1.51248e-18)
(0.00219513 0.000455808 -5.29253e-18)
(0.00217285 0.000368829 -6.65109e-18)
(0.00215456 0.000284255 2.82939e-18)
(0.00214056 0.000201615 1.93527e-18)
(0.00213108 0.000120393 -1.98291e-18)
(0.00212631 4.00349e-05 5.86788e-18)
(0.00212631 -4.00321e-05 1.84698e-18)
(0.00213108 -0.00012039 -9.70998e-18)
(0.00214056 -0.000201612 -1.10557e-17)
(0.00215456 -0.000284252 -1.0022e-17)
(0.00217285 -0.000368826 -9.99787e-19)
(0.00219513 -0.000455804 2.23796e-17)
(0.00222106 -0.000545606 4.02971e-17)
(0.00225025 -0.000638586 3.64356e-17)
(0.0022823 -0.00073504 2.1184e-17)
(0.0023168 -0.000835196 1.01814e-17)
(0.00235336 -0.000939222 9.45223e-18)
(0.00239158 -0.00104723 1.40637e-17)
(0.00243113 -0.00115926 1.88473e-17)
(0.0024717 -0.00127535 1.90996e-17)
(0.00251307 -0.00139549 1.44178e-17)
(0.00255508 -0.00151969 9.39422e-18)
(0.00259765 -0.00164803 8.75014e-19)
(0.00264074 -0.00178065 -3.82923e-18)
(0.00268429 -0.0019178 -8.25365e-18)
(0.00272813 -0.00205979 -1.60417e-17)
(0.00277187 -0.00220688 -2.51551e-17)
(0.00281489 -0.00235909 -2.59959e-17)
(0.00285647 -0.00251613 -1.35531e-17)
(0.00289153 -0.00268221 -1.84559e-18)
(0.0038142 -0.00196159 -6.74355e-18)
(0.00400968 0.00213706 -2.48996e-18)
(0.00308715 0.0028603 2.19349e-17)
(0.00305884 0.00268995 2.26016e-17)
(0.00302417 0.00252796 1.8629e-17)
(0.00298777 0.00237015 1.48298e-17)
(0.00295012 0.00221684 1.61072e-17)
(0.00291178 0.00206817 1.83581e-17)
(0.00287318 0.00192409 1.70413e-17)
(0.00283465 0.00178446 1.72063e-17)
(0.0027964 0.00164912 1.4137e-17)
(0.00275858 0.0015179 5.52011e-18)
(0.00272135 0.00139071 3.66659e-18)
(0.00268489 0.00126748 8.92584e-18)
(0.00264942 0.00114814 6.98806e-18)
(0.00261521 0.00103262 2.24995e-18)
(0.00258256 0.00092085 1.39792e-17)
(0.0025518 0.000812684 2.9418e-17)
(0.00252328 0.000707947 2.99817e-17)
(0.00249737 0.00060641 2.30603e-17)
(0.00247439 0.000507787 1.70252e-17)
(0.00245468 0.00041174 1.15842e-17)
(0.00243852 0.000317879 1.14454e-17)
(0.00242617 0.000225771 9.88506e-18)
(0.00241782 0.000134943 1.44722e-17)
(0.00241361 4.48945e-05 2.58977e-17)
(0.00241361 -4.48916e-05 1.59681e-17)
(0.00241782 -0.00013494 9.02896e-19)
(0.00242617 -0.000225768 5.53062e-19)
(0.00243852 -0.000317876 2.72954e-18)
(0.00245468 -0.000411737 1.00289e-17)
(0.00247439 -0.000507784 2.73777e-17)
(0.00249737 -0.000606407 3.93707e-17)
(0.00252328 -0.000707944 3.49069e-17)
(0.0025518 -0.00081268 2.31415e-17)
(0.00258255 -0.000920847 1.37623e-17)
(0.00261521 -0.00103262 1.37679e-17)
(0.00264942 -0.00114813 1.38077e-17)
(0.00268489 -0.00126747 1.3765e-17)
(0.00272135 -0.00139071 1.41937e-17)
(0.00275858 -0.0015179 1.39728e-17)
(0.0027964 -0.00164911 1.00774e-17)
(0.00283465 -0.00178446 1.23678e-18)
(0.00287319 -0.00192408 -1.84168e-18)
(0.00291178 -0.00206816 -5.41173e-18)
(0.00295013 -0.00221684 -1.48904e-17)
(0.00298777 -0.00237014 -2.45397e-17)
(0.00302418 -0.00252796 -2.43201e-17)
(0.00305884 -0.00268995 -1.47605e-17)
(0.00308715 -0.0028603 -9.65736e-18)
(0.00400968 -0.00213706 -2.22832e-17)
(0.00420068 0.00231224 -5.06807e-18)
(0.00328002 0.00303593 1.64357e-17)
(0.00325813 0.00286119 2.34792e-17)
(0.00323001 0.00269426 2.10477e-17)
(0.0032 0.00253107 1.74633e-17)
(0.00316846 0.00237192 1.84085e-17)
(0.00313581 0.00221696 2.01697e-17)
(0.00310248 0.00206627 1.80476e-17)
(0.00306881 0.00191981 1.75056e-17)
(0.00303511 0.00177749 1.4361e-17)
(0.00300162 0.00163921 2.34401e-18)
(0.00296854 0.00150486 -6.79581e-18)
(0.00293609 0.00137434 -5.64134e-19)
(0.00290451 0.00124758 6.84247e-18)
(0.00287405 0.00112446 1.8833e-18)
(0.00284499 0.00100488 3.40841e-18)
(0.00281764 0.000888693 1.96836e-17)
(0.0027923 0.000775707 2.54205e-17)
(0.00276928 0.000665694 2.11177e-17)
(0.0027489 0.000558379 1.88009e-17)
(0.00273142 0.000453439 1.35944e-17)
(0.00271711 0.000350509 1.17515e-17)
(0.00270618 0.000249187 1.44162e-17)
(0.00269879 0.000149037 2.24357e-17)
(0.00269507 4.96002e-05 3.35029e-17)
(0.00269507 -4.95972e-05 2.3007e-17)
(0.00269879 -0.000149034 7.24047e-18)
(0.00270618 -0.000249184 6.20556e-18)
(0.00271711 -0.000350506 1.00675e-17)
(0.00273142 -0.000453436 1.61908e-17)
(0.0027489 -0.000558376 2.59416e-17)
(0.00276928 -0.000665691 2.9614e-17)
(0.0027923 -0.000775704 2.27253e-17)
(0.00281764 -0.00088869 1.69695e-17)
(0.00284499 -0.00100488 1.41458e-17)
(0.00287405 -0.00112446 1.54587e-17)
(0.00290451 -0.00124757 1.36601e-17)
(0.00293609 -0.00137434 1.08736e-17)
(0.00296854 -0.00150485 1.19466e-17)
(0.00300162 -0.00163921 1.41948e-17)
(0.00303511 -0.00177749 6.53112e-18)
(0.00306881 -0.00191981 -2.53309e-18)
(0.00310248 -0.00206627 -1.84011e-18)
(0.00313582 -0.00221696 -4.57949e-18)
(0.00316846 -0.00237192 -1.43554e-17)
(0.00320001 -0.00253107 -2.29235e-17)
(0.00323002 -0.00269425 -2.31654e-17)
(0.00325813 -0.00286119 -1.74258e-17)
(0.00328002 -0.00303593 -1.88321e-17)
(0.00420069 -0.00231224 -3.28031e-17)
(0.00438791 0.00248711 1.48352e-17)
(0.00347056 0.00320948 1.11341e-17)
(0.00345485 0.00303022 1.97111e-17)
(0.00343303 0.0028583 1.75114e-17)
(0.00340918 0.00268981 1.59937e-17)
(0.0033836 0.00252497 1.94626e-17)
(0.00335664 0.00236397 2.07141e-17)
(0.00332866 0.00220689 1.53648e-17)
(0.00330002 0.00205378 1.32994e-17)
(0.00327102 0.00190461 1.06318e-17)
(0.00324196 0.0017593 -1.93128e-18)
(0.00321308 0.00161778 -1.26236e-17)
(0.00318463 0.00147995 -5.53996e-18)
(0.00315686 0.00134572 5.64363e-18)
(0.00313003 0.00121497 2.10516e-18)
(0.00310439 0.00108758 -1.80663e-18)
(0.00308024 0.000963384 1.32657e-17)
(0.00305786 0.000842196 2.03661e-17)
(0.00303752 0.000723788 1.33145e-17)
(0.0030195 0.000607893 1.11967e-17)
(0.00300406 0.000494205 5.11914e-18)
(0.00299141 0.000382381 -4.04017e-19)
(0.00298175 0.000272043 4.25066e-18)
(0.00297522 0.000162787 1.42063e-17)
(0.00297193 5.41897e-05 2.19665e-17)
(0.00297193 -5.41869e-05 1.08564e-17)
(0.00297522 -0.000162784 -1.91569e-18)
(0.00298175 -0.00027204 1.0801e-18)
(0.00299141 -0.000382378 9.84814e-18)
(0.00300406 -0.000494202 1.4662e-17)
(0.0030195 -0.00060789 1.64163e-17)
(0.00303752 -0.000723785 1.55548e-17)
(0.00305786 -0.000842193 1.14323e-17)
(0.00308024 -0.00096338 1.11072e-17)
(0.00310439 -0.00108758 1.28624e-17)
(0.00313003 -0.00121497 1.31329e-17)
(0.00315686 -0.00134572 1.01317e-17)
(0.00318464 -0.00147995 9.98269e-18)
(0.00321308 -0.00161777 1.32765e-17)
(0.00324196 -0.0017593 1.36856e-17)
(0.00327103 -0.0019046 3.17548e-18)
(0.00330002 -0.00205378 -3.80342e-18)
(0.00332867 -0.00220689 -1.79624e-18)
(0.00335665 -0.00236397 -4.2855e-18)
(0.00338361 -0.00252497 -1.31414e-17)
(0.00340919 -0.00268981 -2.11089e-17)
(0.00343303 -0.0028583 -2.31338e-17)
(0.00345486 -0.00303022 -2.0574e-17)
(0.00347057 -0.00320948 -2.35682e-17)
(0.00438792 -0.00248711 -2.97724e-17)
(0.00457191 0.00266166 2.04606e-17)
(0.0036591 0.00338121 1.07572e-17)
(0.0036494 0.00319735 1.67601e-17)
(0.00363366 0.00302039 1.53181e-17)
(0.00361578 0.00284658 1.54186e-17)
(0.00359601 0.00267612 2.05455e-17)
(0.00357463 0.00250918 2.20435e-17)
(0.00355199 0.00234587 1.61241e-17)
(0.00352839 0.00218625 1.14291e-17)
(0.00350416 0.00203033 7.26173e-18)
(0.00347958 0.00187808 -3.6184e-18)
(0.00345493 0.00172944 -1.19025e-17)
(0.00343049 0.00158433 -4.54713e-18)
(0.00340649 0.00144264 6.38305e-18)
(0.0033832 0.00130428 2.59586e-18)
(0.00336089 0.00116909 -3.12743e-18)
(0.00333982 0.00103693 9.8334e-18)
(0.00332026 0.000907603 1.52662e-17)
(0.00330246 0.000780882 7.4637e-18)
(0.00328667 0.000656514 5.23965e-18)
(0.00327313 0.000534206 -1.99551e-18)
(0.00326203 0.000413633 -8.45763e-18)
(0.00325355 0.000294443 -1.58789e-18)
(0.00324783 0.000176259 1.01054e-17)
(0.00324494 5.86856e-05 1.44282e-17)
(0.00324494 -5.86828e-05 1.99557e-18)
(0.00324783 -0.000176256 -7.28403e-18)
(0.00325356 -0.00029444 -5.58636e-19)
(0.00326204 -0.00041363 1.08609e-17)
(0.00327313 -0.000534203 1.62414e-17)
(0.00328668 -0.000656511 1.25825e-17)
(0.00330246 -0.00078088 5.83031e-18)
(0.00332026 -0.0009076 1.51437e-18)
(0.00333982 -0.00103693 3.80723e-18)
(0.0033609 -0.00116909 7.92471e-18)
(0.00338321 -0.00130427 6.67945e-18)
(0.00340649 -0.00144264 3.64643e-18)
(0.00343049 -0.00158432 7.80644e-18)
(0.00345494 -0.00172944 1.29994e-17)
(0.00347958 -0.00187808 1.14291e-17)
(0.00350416 -0.00203033 5.08898e-20)
(0.00352839 -0.00218625 -7.11558e-18)
(0.00355199 -0.00234587 -3.31288e-18)
(0.00357464 -0.00250918 -2.2617e-18)
(0.00359601 -0.00267612 -1.07108e-17)
(0.00361579 -0.00284658 -1.98048e-17)
(0.00363367 -0.00302039 -2.2862e-17)
(0.0036494 -0.00319735 -2.14343e-17)
(0.00365911 -0.00338121 -2.43691e-17)
(0.00457192 -0.00266166 -2.86452e-17)
(0.00475316 0.00283588 1.3104e-17)
(0.00384591 0.00355136 1.20062e-17)
(0.00384207 0.00336281 1.57397e-17)
(0.00383225 0.00318075 1.60499e-17)
(0.00382017 0.00300159 1.74359e-17)
(0.00380605 0.00282553 2.10109e-17)
(0.00379014 0.00265271 2.20716e-17)
(0.00377275 0.00248325 1.70036e-17)
(0.00375415 0.00231722 1.00728e-17)
(0.00373467 0.00215465 5.18705e-18)
(0.00371458 0.00199553 -2.59308e-18)
(0.00369417 0.00183983 -7.24985e-18)
(0.00367371 0.00168748 -8.93955e-19)
(0.00365345 0.00153839 6.64278e-18)
(0.00363367 0.00139245 2.55523e-18)
(0.00361461 0.00124952 -2.94296e-18)
(0.00359654 0.00110945 6.53113e-18)
(0.00357971 0.000972044 9.46042e-18)
(0.00356435 0.000837096 2.3216e-18)
(0.0035507 0.000704355 8.96936e-19)
(0.00353898 0.000573542 -5.52056e-18)
(0.00352935 0.000444353 -1.1137e-17)
(0.00352199 0.000316454 -4.00644e-18)
(0.00351702 0.000189493 7.09765e-18)
(0.00351451 6.31015e-05 8.74153e-18)
(0.00351451 -6.3099e-05 -3.96427e-18)
(0.00351702 -0.00018949 -9.84189e-18)
(0.00352199 -0.000316451 1.30558e-18)
(0.00352935 -0.00044435 1.21028e-17)
(0.00353898 -0.00057354 1.57039e-17)
(0.00355071 -0.000704352 1.16728e-17)
(0.00356435 -0.000837094 3.73255e-18)
(0.00357971 -0.000972042 -2.10482e-18)
(0.00359655 -0.00110944 -6.49195e-19)
(0.00361462 -0.00124952 4.11663e-18)
(0.00363367 -0.00139244 4.27618e-19)
(0.00365346 -0.00153839 -1.73313e-18)
(0.00367371 -0.00168748 7.55508e-18)
(0.00369417 -0.00183983 1.23988e-17)
(0.00371459 -0.00199553 7.52782e-18)
(0.00373467 -0.00215464 -2.92291e-18)
(0.00375416 -0.00231721 -1.06922e-17)
(0.00377275 -0.00248325 -7.40224e-18)
(0.00379015 -0.00265271 -2.55155e-18)
(0.00380605 -0.00282553 -9.67617e-18)
(0.00382018 -0.00300159 -1.9475e-17)
(0.00383226 -0.00318075 -2.31514e-17)
(0.00384207 -0.00336281 -2.25849e-17)
(0.00384592 -0.00355136 -2.48473e-17)
(0.00475317 -0.00283588 -3.2284e-17)
(0.00493204 0.00300978 1.01616e-17)
(0.00403121 0.00372014 1.15887e-17)
(0.00403311 0.00352681 1.53203e-17)
(0.00402908 0.00333959 1.74178e-17)
(0.00402266 0.00315506 1.9295e-17)
(0.00401405 0.00297338 2.02083e-17)
(0.00400348 0.00279469 1.93823e-17)
(0.00399123 0.00261912 1.48941e-17)
(0.00397757 0.00244674 8.40342e-18)
(0.00396278 0.00227759 4.42099e-18)
(0.00394714 0.00211168 -5.46313e-20)
(0.00393094 0.00194899 -1.44979e-18)
(0.00391443 0.00178945 2.22929e-18)
(0.00389788 0.00163301 3.59271e-18)
(0.00388155 0.00147954 -5.11302e-19)
(0.00386569 0.00132892 -1.89222e-18)
(0.00385056 0.00118101 5.33309e-18)
(0.00383638 0.0010356 4.43504e-18)
(0.00382339 0.000892513 -8.03484e-19)
(0.00381181 0.000751495 -1.08806e-18)
(0.00380183 0.000612287 -6.30301e-18)
(0.00379363 0.000474599 -1.032e-17)
(0.00378734 0.00033812 -4.45215e-18)
(0.00378309 0.000202517 4.51277e-18)
(0.00378094 6.7447e-05 4.0516e-18)
(0.00378094 -6.74448e-05 -7.31388e-18)
(0.00378309 -0.000202515 -9.34643e-18)
(0.00378734 -0.000338117 2.98303e-18)
(0.00379363 -0.000474597 1.04425e-17)
(0.00380183 -0.000612285 1.41109e-17)
(0.00381181 -0.000751493 1.31048e-17)
(0.00382339 -0.000892511 4.24927e-18)
(0.00383638 -0.0010356 -2.3699e-18)
(0.00385056 -0.001181 -2.18736e-18)
(0.0038657 -0.00132892 1.58385e-18)
(0.00388155 -0.00147954 -3.0007e-18)
(0.00389788 -0.00163301 -4.33933e-18)
(0.00391443 -0.00178945 7.386e-18)
(0.00393094 -0.00194898 1.04529e-17)
(0.00394715 -0.00211168 4.06257e-18)
(0.00396279 -0.00227759 -3.27479e-18)
(0.00397758 -0.00244674 -1.16752e-17)
(0.00399124 -0.00261912 -1.09375e-17)
(0.00400349 -0.00279469 -4.48141e-18)
(0.00401405 -0.00297338 -1.02073e-17)
(0.00402267 -0.00315506 -1.98883e-17)
(0.00402909 -0.00333959 -2.31635e-17)
(0.00403312 -0.00352681 -2.24319e-17)
(0.00403122 -0.00372014 -2.51039e-17)
(0.00493206 -0.00300978 -3.06662e-17)
(0.00510892 0.00318341 1.52599e-17)
(0.00421522 0.00388772 1.21991e-17)
(0.00422276 0.00368954 1.40407e-17)
(0.00422439 0.00349712 1.80521e-17)
(0.0042235 0.00330716 2.10294e-17)
(0.00422028 0.00311984 1.9174e-17)
(0.00421493 0.00293529 1.59574e-17)
(0.00420772 0.00275362 1.16208e-17)
(0.0041989 0.00257492 6.8254e-18)
(0.00418873 0.00239924 4.78047e-18)
(0.00417748 0.00222659 3.56498e-18)
(0.00416542 0.00205695 3.94314e-18)
(0.00415282 0.0018903 3.11733e-18)
(0.00413992 0.00172655 -1.38446e-18)
(0.004127 0.00156562 -4.22344e-18)
(0.00411428 0.00140737 -1.12204e-18)
(0.00410202 0.00125168 5.01372e-18)
(0.00409044 0.00109835 1.89982e-18)
(0.00407977 0.000947199 -1.81278e-18)
(0.00407019 0.000797997 -1.98033e-18)
(0.00406191 0.000650494 -6.59793e-18)
(0.00405508 0.000504418 -8.22354e-18)
(0.00404984 0.000359474 -2.81989e-18)
(0.00404628 0.000215353 2.54267e-18)
(0.00404448 7.17292e-05 -2.36747e-19)
(0.00404448 -7.17273e-05 -8.38071e-18)
(0.00404628 -0.000215351 -6.03117e-18)
(0.00404984 -0.000359473 4.62232e-18)
(0.00405508 -0.000504416 7.79426e-18)
(0.00406191 -0.000650492 1.172e-17)
(0.0040702 -0.000797995 1.20759e-17)
(0.00407977 -0.000947197 3.88039e-18)
(0.00409045 -0.00109835 -1.03551e-18)
(0.00410203 -0.00125167 -2.2381e-18)
(0.00411429 -0.00140737 -1.05966e-18)
(0.004127 -0.00156562 -5.02438e-18)
(0.00413993 -0.00172655 -5.07452e-18)
(0.00415282 -0.0018903 5.07632e-18)
(0.00416543 -0.00205695 5.96206e-18)
(0.00417749 -0.00222659 -1.38776e-19)
(0.00418874 -0.00239924 -3.82164e-18)
(0.00419891 -0.00257492 -1.09623e-17)
(0.00420773 -0.00275362 -1.29007e-17)
(0.00421494 -0.00293529 -8.14259e-18)
(0.00422028 -0.00311984 -1.26893e-17)
(0.00422351 -0.00330716 -2.01922e-17)
(0.0042244 -0.00349712 -2.19936e-17)
(0.00422277 -0.00368955 -2.13582e-17)
(0.00421523 -0.00388772 -2.40066e-17)
(0.00510893 -0.00318341 -2.55626e-17)
(0.00528408 0.00335678 2.02329e-17)
(0.00439812 0.00405428 1.17423e-17)
(0.00441121 0.00385118 1.32388e-17)
(0.0044184 0.00365348 1.80115e-17)
(0.00442293 0.00345806 2.08663e-17)
(0.00442497 0.00326507 1.73945e-17)
(0.00442474 0.00307464 1.35592e-17)
(0.00442246 0.00288689 9.64577e-18)
(0.00441838 0.00270189 5.32785e-18)
(0.00441274 0.0025197 4.7296e-18)
(0.00440581 0.00234034 6.16392e-18)
(0.00439783 0.00216382 7.65315e-18)
(0.00438907 0.00199009 2.73565e-18)
(0.00437978 0.00181909 -5.9151e-18)
(0.0043702 0.00165075 -6.08313e-18)
(0.00436057 0.00148494 5.93699e-19)
(0.00435113 0.00132152 4.91414e-18)
(0.00434209 0.00116034 6.53891e-19)
(0.00433367 0.00100121 -1.40929e-18)
(0.00432605 0.000843913 -1.56054e-18)
(0.00431942 0.00068821 -6.08737e-18)
(0.00431393 0.000533847 -6.33716e-18)
(0.00430969 0.000380546 -3.83921e-19)
(0.00430681 0.000228017 2.4514e-18)
(0.00430535 7.59538e-05 -3.31108e-18)
(0.00430535 -7.59524e-05 -8.38011e-18)
(0.00430681 -0.000228015 -2.27954e-18)
(0.00430969 -0.000380545 5.92996e-18)
(0.00431393 -0.000533846 6.39331e-18)
(0.00431943 -0.000688209 1.06371e-17)
(0.00432606 -0.000843911 1.07222e-17)
(0.00433367 -0.00100121 3.69239e-18)
(0.00434209 -0.00116034 9.68813e-19)
(0.00435113 -0.00132152 -1.86638e-18)
(0.00436058 -0.00148493 -2.87756e-18)
(0.0043702 -0.00165074 -5.00579e-18)
(0.00437978 -0.00181909 -4.75002e-18)
(0.00438908 -0.00199009 1.25889e-18)