/*--------------------------------*- C++ -*----------------------------------*\
  =========                 |
  \\      /  F ield         | OpenFOAM: The Open Source CFD Toolbox
   \\    /   O peration     | Website:  https://openfoam.org
    \\  /    A nd           | Version:  7
     \\/     M anipulation  |
\*---------------------------------------------------------------------------*/
FoamFile
{
    version     2.0;
    format      ascii;
    class       volScalarField;
    location    "12000";
    object      k;
}
// * * * * * * * * * * * * * * * * * * * * * * * * * * * * * * * * * * * * * //

dimensions      [0 2 -2 0 0 0 0];

internalField   nonuniform List<scalar> 
1777
(
1.30915e-06
1.30645e-06
1.30375e-06
1.30106e-06
1.29841e-06
1.29587e-06
1.29348e-06
1.29126e-06
1.28925e-06
1.28747e-06
1.31335e-06
1.31085e-06
1.30834e-06
1.30582e-06
1.30334e-06
1.30096e-06
1.2987e-06
1.29661e-06
1.29472e-06
1.29305e-06
1.31707e-06
1.31476e-06
1.31244e-06
1.3101e-06
1.30779e-06
1.30556e-06
1.30345e-06
1.30149e-06
1.29971e-06
1.29814e-06
1.32029e-06
1.31817e-06
1.31604e-06
1.31388e-06
1.31174e-06
1.30967e-06
1.30771e-06
1.30588e-06
1.30423e-06
1.30276e-06
1.32299e-06
1.32108e-06
1.31913e-06
1.31715e-06
1.31519e-06
1.31328e-06
1.31147e-06
1.30978e-06
1.30824e-06
1.30687e-06
1.32516e-06
1.32345e-06
1.3217e-06
1.3199e-06
1.31811e-06
1.31637e-06
1.31471e-06
1.31315e-06
1.31173e-06
1.31047e-06
1.32678e-06
1.32527e-06
1.32371e-06
1.32211e-06
1.32049e-06
1.31892e-06
1.31741e-06
1.31599e-06
1.31469e-06
1.31354e-06
1.32782e-06
1.32652e-06
1.32516e-06
1.32375e-06
1.32231e-06
1.32091e-06
1.31955e-06
1.31827e-06
1.3171e-06
1.31606e-06
1.32827e-06
1.32717e-06
1.32602e-06
1.3248e-06
1.32355e-06
1.32232e-06
1.32112e-06
1.31998e-06
1.31894e-06
1.31801e-06
1.32809e-06
1.32721e-06
1.32627e-06
1.32525e-06
1.32418e-06
1.32312e-06
1.32208e-06
1.3211e-06
1.32018e-06
1.31936e-06
1.32727e-06
1.32661e-06
1.32587e-06
1.32506e-06
1.32418e-06
1.3233e-06
1.32243e-06
1.32159e-06
1.3208e-06
1.32009e-06
1.32576e-06
1.32533e-06
1.32481e-06
1.3242e-06
1.32352e-06
1.32282e-06
1.32211e-06
1.32143e-06
1.32077e-06
1.32018e-06
1.32355e-06
1.32334e-06
1.32304e-06
1.32264e-06
1.32216e-06
1.32165e-06
1.32111e-06
1.32058e-06
1.32006e-06
1.31959e-06
1.32058e-06
1.3206e-06
1.32054e-06
1.32035e-06
1.32008e-06
1.31975e-06
1.31939e-06
1.31902e-06
1.31864e-06
1.31829e-06
1.31682e-06
1.31709e-06
1.31725e-06
1.31729e-06
1.31722e-06
1.31709e-06
1.31691e-06
1.3167e-06
1.31647e-06
1.31624e-06
1.31222e-06
1.31274e-06
1.31315e-06
1.31341e-06
1.31356e-06
1.31363e-06
1.31364e-06
1.31359e-06
1.3135e-06
1.3134e-06
1.30674e-06
1.30751e-06
1.30817e-06
1.30867e-06
1.30904e-06
1.30931e-06
1.30951e-06
1.30963e-06
1.30969e-06
1.30972e-06
1.30031e-06
1.30135e-06
1.30226e-06
1.30301e-06
1.3036e-06
1.30409e-06
1.30448e-06
1.30478e-06
1.30499e-06
1.30515e-06
1.29289e-06
1.2942e-06
1.29537e-06
1.29637e-06
1.2972e-06
1.29791e-06
1.29849e-06
1.29897e-06
1.29934e-06
1.29964e-06
1.28438e-06
1.28598e-06
1.28743e-06
1.28868e-06
1.28976e-06
1.29069e-06
1.29148e-06
1.29215e-06
1.29268e-06
1.29312e-06
1.27473e-06
1.27662e-06
1.27835e-06
1.27988e-06
1.28121e-06
1.28237e-06
1.28337e-06
1.28423e-06
1.28494e-06
1.28553e-06
1.26385e-06
1.26605e-06
1.26807e-06
1.26987e-06
1.27146e-06
1.27286e-06
1.27409e-06
1.27515e-06
1.27603e-06
1.27677e-06
1.25163e-06
1.25415e-06
1.25648e-06
1.25857e-06
1.26043e-06
1.26208e-06
1.26354e-06
1.2648e-06
1.26586e-06
1.26676e-06
1.23798e-06
1.30914e-06
1.31335e-06
1.31707e-06
1.32029e-06
1.32299e-06
1.32516e-06
1.32678e-06
1.32782e-06
1.32827e-06
1.32809e-06
1.32727e-06
1.32576e-06
1.32354e-06
1.32057e-06
1.31682e-06
1.31222e-06
1.30674e-06
1.30031e-06
1.29288e-06
1.28438e-06
1.27473e-06
1.26384e-06
1.25163e-06
1.23798e-06
1.30645e-06
1.31085e-06
1.31477e-06
1.31818e-06
1.32108e-06
1.32345e-06
1.32527e-06
1.32652e-06
1.32718e-06
1.32721e-06
1.32661e-06
1.32533e-06
1.32334e-06
1.3206e-06
1.31709e-06
1.31274e-06
1.30751e-06
1.30135e-06
1.2942e-06
1.28598e-06
1.27662e-06
1.26604e-06
1.25415e-06
1.24083e-06
1.30376e-06
1.30834e-06
1.31244e-06
1.31605e-06
1.31914e-06
1.32171e-06
1.32372e-06
1.32517e-06
1.32603e-06
1.32628e-06
1.32589e-06
1.32482e-06
1.32306e-06
1.32055e-06
1.31727e-06
1.31316e-06
1.30818e-06
1.30228e-06
1.29539e-06
1.28744e-06
1.27837e-06
1.26808e-06
1.25649e-06
1.24349e-06
1.30107e-06
1.30583e-06
1.31011e-06
1.31389e-06
1.31717e-06
1.31992e-06
1.32212e-06
1.32376e-06
1.32482e-06
1.32526e-06
1.32507e-06
1.32421e-06
1.32266e-06
1.32037e-06
1.31731e-06
1.31343e-06
1.30869e-06
1.30302e-06
1.29638e-06
1.2887e-06
1.27989e-06
1.26989e-06
1.25859e-06
1.24589e-06
1.29843e-06
1.30335e-06
1.3078e-06
1.31175e-06
1.3152e-06
1.31812e-06
1.32051e-06
1.32233e-06
1.32356e-06
1.3242e-06
1.3242e-06
1.32353e-06
1.32218e-06
1.32009e-06
1.31724e-06
1.31358e-06
1.30906e-06
1.30363e-06
1.29722e-06
1.28978e-06
1.28122e-06
1.27148e-06
1.26045e-06
1.24803e-06
1.29588e-06
1.30096e-06
1.30557e-06
1.30968e-06
1.31329e-06
1.31637e-06
1.31892e-06
1.32091e-06
1.32232e-06
1.32313e-06
1.3233e-06
1.32282e-06
1.32165e-06
1.31976e-06
1.3171e-06
1.31364e-06
1.30932e-06
1.3041e-06
1.29792e-06
1.2907e-06
1.28238e-06
1.27288e-06
1.2621e-06
1.24994e-06
1.29348e-06
1.29871e-06
1.30346e-06
1.30772e-06
1.31147e-06
1.31471e-06
1.31741e-06
1.31955e-06
1.32112e-06
1.32209e-06
1.32243e-06
1.32211e-06
1.32111e-06
1.31939e-06
1.31692e-06
1.31364e-06
1.30951e-06
1.30448e-06
1.29849e-06
1.29148e-06
1.28338e-06
1.27409e-06
1.26354e-06
1.25162e-06
1.29127e-06
1.29662e-06
1.3015e-06
1.30589e-06
1.30978e-06
1.31316e-06
1.31599e-06
1.31828e-06
1.31999e-06
1.3211e-06
1.32159e-06
1.32142e-06
1.32058e-06
1.31901e-06
1.3167e-06
1.31358e-06
1.30963e-06
1.30477e-06
1.29896e-06
1.29214e-06
1.28422e-06
1.27514e-06
1.26479e-06
1.25308e-06
1.28925e-06
1.29472e-06
1.29972e-06
1.30423e-06
1.30824e-06
1.31174e-06
1.3147e-06
1.31711e-06
1.31895e-06
1.32019e-06
1.32081e-06
1.32078e-06
1.32007e-06
1.31865e-06
1.31648e-06
1.31351e-06
1.3097e-06
1.305e-06
1.29936e-06
1.2927e-06
1.28495e-06
1.27604e-06
1.26587e-06
1.25435e-06
1.28748e-06
1.29305e-06
1.29815e-06
1.30276e-06
1.30688e-06
1.31048e-06
1.31355e-06
1.31607e-06
1.31801e-06
1.31937e-06
1.3201e-06
1.32019e-06
1.3196e-06
1.3183e-06
1.31625e-06
1.31341e-06
1.30974e-06
1.30517e-06
1.29966e-06
1.29315e-06
1.28555e-06
1.27679e-06
1.26678e-06
1.25543e-06
1.28596e-06
1.29162e-06
1.2968e-06
1.3015e-06
1.30571e-06
1.3094e-06
1.31256e-06
1.31517e-06
1.31721e-06
1.31865e-06
1.31948e-06
1.31967e-06
1.31918e-06
1.31798e-06
1.31604e-06
1.3133e-06
1.30974e-06
1.30529e-06
1.29989e-06
1.29349e-06
1.28602e-06
1.27739e-06
1.26751e-06
1.25629e-06
1.28473e-06
1.29045e-06
1.29571e-06
1.30048e-06
1.30476e-06
1.30852e-06
1.31175e-06
1.31443e-06
1.31655e-06
1.31807e-06
1.31898e-06
1.31924e-06
1.31883e-06
1.31772e-06
1.31586e-06
1.31321e-06
1.30973e-06
1.30537e-06
1.30007e-06
1.29376e-06
1.28639e-06
1.27786e-06
1.26809e-06
1.25698e-06
1.28379e-06
1.28957e-06
1.29488e-06
1.2997e-06
1.30403e-06
1.30784e-06
1.31113e-06
1.31387e-06
1.31604e-06
1.31762e-06
1.31859e-06
1.31891e-06
1.31856e-06
1.3175e-06
1.31571e-06
1.31312e-06
1.30971e-06
1.30542e-06
1.30019e-06
1.29396e-06
1.28665e-06
1.2782e-06
1.26851e-06
1.25749e-06
1.28315e-06
1.28896e-06
1.2943e-06
1.29916e-06
1.30353e-06
1.30738e-06
1.3107e-06
1.31348e-06
1.31569e-06
1.31731e-06
1.31831e-06
1.31867e-06
1.31836e-06
1.31735e-06
1.31559e-06
1.31305e-06
1.30969e-06
1.30544e-06
1.30026e-06
1.29407e-06
1.28682e-06
1.27842e-06
1.26879e-06
1.25782e-06
1.28283e-06
1.28866e-06
1.29402e-06
1.2989e-06
1.30328e-06
1.30715e-06
1.31049e-06
1.31329e-06
1.31551e-06
1.31715e-06
1.31818e-06
1.31856e-06
1.31827e-06
1.31728e-06
1.31554e-06
1.31303e-06
1.30968e-06
1.30546e-06
1.3003e-06
1.29414e-06
1.28691e-06
1.27854e-06
1.26893e-06
1.25799e-06
1.28283e-06
1.28866e-06
1.29402e-06
1.2989e-06
1.30328e-06
1.30715e-06
1.31049e-06
1.31329e-06
1.31552e-06
1.31716e-06
1.31818e-06
1.31856e-06
1.31828e-06
1.31728e-06
1.31555e-06
1.31303e-06
1.30968e-06
1.30546e-06
1.3003e-06
1.29414e-06
1.28691e-06
1.27854e-06
1.26893e-06
1.25799e-06
1.28316e-06
1.28897e-06
1.29431e-06
1.29917e-06
1.30353e-06
1.30738e-06
1.31071e-06
1.31348e-06
1.31569e-06
1.31731e-06
1.31832e-06
1.31868e-06
1.31837e-06
1.31736e-06
1.3156e-06
1.31306e-06
1.30969e-06
1.30544e-06
1.30026e-06
1.29408e-06
1.28683e-06
1.27843e-06
1.26879e-06
1.25782e-06
1.2838e-06
1.28957e-06
1.29488e-06
1.2997e-06
1.30403e-06
1.30785e-06
1.31113e-06
1.31387e-06
1.31604e-06
1.31762e-06
1.31859e-06
1.31891e-06
1.31856e-06
1.31751e-06
1.31571e-06
1.31313e-06
1.30971e-06
1.30542e-06
1.30019e-06
1.29396e-06
1.28666e-06
1.2782e-06
1.26851e-06
1.25749e-06
1.28474e-06
1.29046e-06
1.29571e-06
1.30049e-06
1.30476e-06
1.30852e-06
1.31175e-06
1.31444e-06
1.31655e-06
1.31808e-06
1.31898e-06
1.31925e-06
1.31884e-06
1.31772e-06
1.31586e-06
1.31321e-06
1.30973e-06
1.30537e-06
1.30007e-06
1.29376e-06
1.28639e-06
1.27786e-06
1.26809e-06
1.25698e-06
1.23405e-06
1.24273e-06
1.251e-06
1.25886e-06
1.26629e-06
1.27329e-06
1.27986e-06
1.28597e-06
1.29163e-06
1.29681e-06
1.30151e-06
1.30571e-06
1.3094e-06
1.31256e-06
1.31517e-06
1.31721e-06
1.31866e-06
1.31949e-06
1.31967e-06
1.31918e-06
1.31798e-06
1.31604e-06
1.3133e-06
1.30974e-06
1.30528e-06
1.29989e-06
1.29349e-06
1.28601e-06
1.27738e-06
1.26751e-06
1.25629e-06
1.23614e-06
1.24474e-06
1.25293e-06
1.2607e-06
1.26805e-06
1.27497e-06
1.28145e-06
1.28748e-06
1.29305e-06
1.29815e-06
1.30277e-06
1.30688e-06
1.31048e-06
1.31355e-06
1.31607e-06
1.31802e-06
1.31937e-06
1.3201e-06
1.32019e-06
1.3196e-06
1.3183e-06
1.31625e-06
1.31341e-06
1.30973e-06
1.30517e-06
1.29966e-06
1.29314e-06
1.28554e-06
1.27678e-06
1.26678e-06
1.25542e-06
1.23859e-06
1.24709e-06
1.25519e-06
1.26287e-06
1.27012e-06
1.27694e-06
1.28332e-06
1.28926e-06
1.29473e-06
1.29972e-06
1.30424e-06
1.30825e-06
1.31174e-06
1.3147e-06
1.31711e-06
1.31895e-06
1.32019e-06
1.32081e-06
1.32078e-06
1.32008e-06
1.31865e-06
1.31648e-06
1.31352e-06
1.30971e-06
1.30501e-06
1.29936e-06
1.2927e-06
1.28496e-06
1.27605e-06
1.26588e-06
1.25436e-06
1.24138e-06
1.24977e-06
1.25776e-06
1.26533e-06
1.27247e-06
1.27918e-06
1.28545e-06
1.29127e-06
1.29662e-06
1.3015e-06
1.30589e-06
1.30978e-06
1.31316e-06
1.31599e-06
1.31828e-06
1.31999e-06
1.3211e-06
1.32159e-06
1.32143e-06
1.32058e-06
1.31902e-06
1.31671e-06
1.31359e-06
1.30963e-06
1.30478e-06
1.29897e-06
1.29215e-06
1.28423e-06
1.27515e-06
1.2648e-06
1.25309e-06
1.24448e-06
1.25275e-06
1.26061e-06
1.26805e-06
1.27507e-06
1.28165e-06
1.28779e-06
1.29348e-06
1.29871e-06
1.30346e-06
1.30772e-06
1.31147e-06
1.31471e-06
1.31741e-06
1.31956e-06
1.32112e-06
1.32209e-06
1.32243e-06
1.32212e-06
1.32112e-06
1.3194e-06
1.31692e-06
1.31364e-06
1.30952e-06
1.30449e-06
1.2985e-06
1.29149e-06
1.28338e-06
1.2741e-06
1.26355e-06
1.25163e-06
1.24784e-06
1.25598e-06
1.2637e-06
1.27101e-06
1.27789e-06
1.28433e-06
1.29033e-06
1.29588e-06
1.30096e-06
1.30557e-06
1.30968e-06
1.31329e-06
1.31637e-06
1.31892e-06
1.32091e-06
1.32232e-06
1.32313e-06
1.3233e-06
1.32282e-06
1.32165e-06
1.31976e-06
1.3171e-06
1.31364e-06
1.30932e-06
1.3041e-06
1.29791e-06
1.2907e-06
1.28238e-06
1.27287e-06
1.26209e-06
1.24993e-06
1.25143e-06
1.25942e-06
1.26699e-06
1.27415e-06
1.28088e-06
1.28718e-06
1.29303e-06
1.29842e-06
1.30334e-06
1.30779e-06
1.31174e-06
1.31519e-06
1.31811e-06
1.3205e-06
1.32232e-06
1.32355e-06
1.32418e-06
1.32418e-06
1.32352e-06
1.32217e-06
1.32008e-06
1.31723e-06
1.31357e-06
1.30904e-06
1.30361e-06
1.29721e-06
1.28976e-06
1.28121e-06
1.27147e-06
1.26043e-06
1.24802e-06
1.25519e-06
1.26302e-06
1.27044e-06
1.27744e-06
1.28401e-06
1.29015e-06
1.29583e-06
1.30106e-06
1.30582e-06
1.3101e-06
1.31389e-06
1.31716e-06
1.31991e-06
1.32212e-06
1.32376e-06
1.32481e-06
1.32526e-06
1.32506e-06
1.32421e-06
1.32265e-06
1.32036e-06
1.3173e-06
1.31342e-06
1.30868e-06
1.30302e-06
1.29638e-06
1.28869e-06
1.27989e-06
1.26988e-06
1.25858e-06
1.24588e-06
1.25906e-06
1.26673e-06
1.27399e-06
1.28082e-06
1.28722e-06
1.29318e-06
1.29869e-06
1.30375e-06
1.30833e-06
1.31244e-06
1.31604e-06
1.31913e-06
1.3217e-06
1.32371e-06
1.32516e-06
1.32602e-06
1.32627e-06
1.32588e-06
1.32481e-06
1.32305e-06
1.32054e-06
1.31726e-06
1.31315e-06
1.30817e-06
1.30227e-06
1.29538e-06
1.28743e-06
1.27836e-06
1.26808e-06
1.25648e-06
1.24348e-06
1.26302e-06
1.27051e-06
1.27758e-06
1.28424e-06
1.29046e-06
1.29624e-06
1.30157e-06
1.30644e-06
1.31084e-06
1.31476e-06
1.31817e-06
1.32107e-06
1.32344e-06
1.32526e-06
1.32651e-06
1.32717e-06
1.32721e-06
1.3266e-06
1.32532e-06
1.32334e-06
1.3206e-06
1.31709e-06
1.31274e-06
1.30751e-06
1.30135e-06
1.2942e-06
1.28598e-06
1.27663e-06
1.26605e-06
1.25415e-06
1.24083e-06
1.26703e-06
1.27434e-06
1.28123e-06
1.28769e-06
1.29373e-06
1.29932e-06
1.30446e-06
1.30914e-06
1.31335e-06
1.31707e-06
1.32029e-06
1.32299e-06
1.32516e-06
1.32678e-06
1.32782e-06
1.32827e-06
1.32809e-06
1.32727e-06
1.32576e-06
1.32354e-06
1.32058e-06
1.31682e-06
1.31222e-06
1.30674e-06
1.30031e-06
1.29289e-06
1.28438e-06
1.27473e-06
1.26385e-06
1.25163e-06
1.23798e-06
1.26703e-06
1.27434e-06
1.28123e-06
1.28769e-06
1.29373e-06
1.29932e-06
1.30447e-06
1.30915e-06
1.31335e-06
1.31707e-06
1.32029e-06
1.323e-06
1.32516e-06
1.32678e-06
1.32782e-06
1.32827e-06
1.32809e-06
1.32727e-06
1.32576e-06
1.32354e-06
1.32058e-06
1.31682e-06
1.31222e-06
1.30674e-06
1.30031e-06
1.29288e-06
1.28438e-06
1.27473e-06
1.26385e-06
1.25163e-06
1.23798e-06
1.26302e-06
1.27051e-06
1.27759e-06
1.28424e-06
1.29047e-06
1.29625e-06
1.30158e-06
1.30645e-06
1.31085e-06
1.31477e-06
1.31818e-06
1.32109e-06
1.32345e-06
1.32527e-06
1.32652e-06
1.32718e-06
1.32722e-06
1.32661e-06
1.32533e-06
1.32334e-06
1.32061e-06
1.31709e-06
1.31274e-06
1.30751e-06
1.30135e-06
1.2942e-06
1.28598e-06
1.27662e-06
1.26605e-06
1.25415e-06
1.24083e-06
1.25907e-06
1.26674e-06
1.27399e-06
1.28082e-06
1.28722e-06
1.29319e-06
1.2987e-06
1.30376e-06
1.30834e-06
1.31245e-06
1.31605e-06
1.31914e-06
1.32171e-06
1.32372e-06
1.32517e-06
1.32603e-06
1.32628e-06
1.32589e-06
1.32482e-06
1.32306e-06
1.32055e-06
1.31727e-06
1.31316e-06
1.30818e-06
1.30228e-06
1.29539e-06
1.28744e-06
1.27837e-06
1.26808e-06
1.25649e-06
1.24349e-06
1.25519e-06
1.26303e-06
1.27045e-06
1.27745e-06
1.28402e-06
1.29015e-06
1.29584e-06
1.30107e-06
1.30583e-06
1.31011e-06
1.31389e-06
1.31717e-06
1.31992e-06
1.32212e-06
1.32376e-06
1.32482e-06
1.32526e-06
1.32507e-06
1.32421e-06
1.32266e-06
1.32037e-06
1.31731e-06
1.31343e-06
1.30869e-06
1.30302e-06
1.29638e-06
1.2887e-06
1.27989e-06
1.26989e-06
1.25859e-06
1.24589e-06
1.25143e-06
1.25942e-06
1.267e-06
1.27416e-06
1.28089e-06
1.28718e-06
1.29303e-06
1.29843e-06
1.30335e-06
1.3078e-06
1.31175e-06
1.3152e-06
1.31812e-06
1.32051e-06
1.32233e-06
1.32357e-06
1.3242e-06
1.3242e-06
1.32353e-06
1.32218e-06
1.32009e-06
1.31724e-06
1.31358e-06
1.30906e-06
1.30363e-06
1.29722e-06
1.28978e-06
1.28123e-06
1.27148e-06
1.26045e-06
1.24803e-06
1.24784e-06
1.25598e-06
1.2637e-06
1.27101e-06
1.27789e-06
1.28434e-06
1.29034e-06
1.29588e-06
1.30096e-06
1.30557e-06
1.30968e-06
1.31329e-06
1.31637e-06
1.31892e-06
1.32091e-06
1.32232e-06
1.32313e-06
1.3233e-06
1.32282e-06
1.32165e-06
1.31976e-06
1.3171e-06
1.31364e-06
1.30933e-06
1.30411e-06
1.29792e-06
1.2907e-06
1.28238e-06
1.27288e-06
1.2621e-06
1.24994e-06
1.24448e-06
1.25275e-06
1.26061e-06
1.26805e-06
1.27507e-06
1.28165e-06
1.2878e-06
1.29348e-06
1.29871e-06
1.30346e-06
1.30772e-06
1.31147e-06
1.31471e-06
1.31741e-06
1.31955e-06
1.32112e-06
1.32209e-06
1.32243e-06
1.32211e-06
1.32111e-06
1.31939e-06
1.31692e-06
1.31364e-06
1.30951e-06
1.30448e-06
1.29849e-06
1.29148e-06
1.28338e-06
1.27409e-06
1.26354e-06
1.25162e-06
1.24138e-06
1.24977e-06
1.25776e-06
1.26533e-06
1.27247e-06
1.27918e-06
1.28545e-06
1.29126e-06
1.29662e-06
1.3015e-06
1.30589e-06
1.30978e-06
1.31316e-06
1.31599e-06
1.31828e-06
1.31999e-06
1.3211e-06
1.32159e-06
1.32142e-06
1.32058e-06
1.31902e-06
1.3167e-06
1.31358e-06
1.30963e-06
1.30477e-06
1.29896e-06
1.29214e-06
1.28422e-06
1.27514e-06
1.26479e-06
1.25308e-06
1.23859e-06
1.24709e-06
1.25518e-06
1.26286e-06
1.27012e-06
1.27694e-06
1.28332e-06
1.28925e-06
1.29472e-06
1.29972e-06
1.30423e-06
1.30824e-06
1.31174e-06
1.3147e-06
1.31711e-06
1.31895e-06
1.32019e-06
1.32081e-06
1.32078e-06
1.32007e-06
1.31865e-06
1.31648e-06
1.31351e-06
1.3097e-06
1.305e-06
1.29936e-06
1.29269e-06
1.28495e-06
1.27604e-06
1.26587e-06
1.25435e-06
1.23613e-06
1.24472e-06
1.25291e-06
1.26069e-06
1.26804e-06
1.27496e-06
1.28145e-06
1.28748e-06
1.29305e-06
1.29815e-06
1.30276e-06
1.30688e-06
1.31048e-06
1.31355e-06
1.31607e-06
1.31801e-06
1.31937e-06
1.3201e-06
1.32019e-06
1.3196e-06
1.3183e-06
1.31625e-06
1.31341e-06
1.30974e-06
1.30517e-06
1.29966e-06
1.29315e-06
1.28555e-06
1.27679e-06
1.26678e-06
1.25543e-06
1.23404e-06
1.24271e-06
1.25098e-06
1.25884e-06
1.26628e-06
1.27328e-06
1.27985e-06
1.28596e-06
1.29162e-06
1.2968e-06
1.30151e-06
1.30571e-06
1.3094e-06
1.31256e-06
1.31517e-06
1.31721e-06
1.31866e-06
1.31949e-06
1.31967e-06
1.31918e-06
1.31798e-06
1.31604e-06
1.3133e-06
1.30974e-06
1.30529e-06
1.29989e-06
1.29349e-06
1.28602e-06
1.27739e-06
1.26751e-06
1.25629e-06
1.23234e-06
1.24108e-06
1.24942e-06
1.25734e-06
1.26484e-06
1.27191e-06
1.27855e-06
1.28473e-06
1.29046e-06
1.29571e-06
1.30048e-06
1.30476e-06
1.30852e-06
1.31175e-06
1.31444e-06
1.31655e-06
1.31807e-06
1.31898e-06
1.31924e-06
1.31884e-06
1.31772e-06
1.31586e-06
1.31321e-06
1.30973e-06
1.30537e-06
1.30007e-06
1.29376e-06
1.28639e-06
1.27786e-06
1.26809e-06
1.25698e-06
1.23105e-06
1.23984e-06
1.24823e-06
1.2562e-06
1.26375e-06
1.27087e-06
1.27756e-06
1.28379e-06
1.28957e-06
1.29488e-06
1.2997e-06
1.30403e-06
1.30785e-06
1.31113e-06
1.31387e-06
1.31604e-06
1.31762e-06
1.31859e-06
1.31891e-06
1.31856e-06
1.31751e-06
1.31571e-06
1.31313e-06
1.30971e-06
1.30542e-06
1.30019e-06
1.29396e-06
1.28665e-06
1.2782e-06
1.26851e-06
1.25749e-06
1.23018e-06
1.23901e-06
1.24742e-06
1.25543e-06
1.26301e-06
1.27017e-06
1.27688e-06
1.28315e-06
1.28896e-06
1.29431e-06
1.29916e-06
1.30353e-06
1.30738e-06
1.3107e-06
1.31348e-06
1.31569e-06
1.31731e-06
1.31831e-06
1.31867e-06
1.31837e-06
1.31735e-06
1.3156e-06
1.31306e-06
1.30969e-06
1.30544e-06
1.30026e-06
1.29407e-06
1.28682e-06
1.27842e-06
1.26879e-06
1.25782e-06
1.22975e-06
1.23859e-06
1.24702e-06
1.25504e-06
1.26264e-06
1.26981e-06
1.27654e-06
1.28283e-06
1.28866e-06
1.29402e-06
1.2989e-06
1.30328e-06
1.30715e-06
1.31049e-06
1.31329e-06
1.31552e-06
1.31715e-06
1.31818e-06
1.31856e-06
1.31827e-06
1.31728e-06
1.31554e-06
1.31303e-06
1.30968e-06
1.30546e-06
1.3003e-06
1.29414e-06
1.28691e-06
1.27854e-06
1.26893e-06
1.25799e-06
1.22975e-06
1.23859e-06
1.24702e-06
1.25504e-06
1.26264e-06
1.26981e-06
1.27655e-06
1.28283e-06
1.28866e-06
1.29402e-06
1.2989e-06
1.30328e-06
1.30715e-06
1.31049e-06
1.31329e-06
1.31552e-06
1.31716e-06
1.31818e-06
1.31857e-06
1.31828e-06
1.31728e-06
1.31555e-06
1.31303e-06
1.30968e-06
1.30546e-06
1.3003e-06
1.29414e-06
1.28691e-06
1.27854e-06
1.26893e-06
1.25799e-06
1.23019e-06
1.23902e-06
1.24743e-06
1.25544e-06
1.26302e-06
1.27018e-06
1.27689e-06
1.28316e-06
1.28897e-06
1.29431e-06
1.29917e-06
1.30354e-06
1.30739e-06
1.31071e-06
1.31349e-06
1.3157e-06
1.31732e-06
1.31832e-06
1.31868e-06
1.31837e-06
1.31736e-06
1.3156e-06
1.31306e-06
1.30969e-06
1.30545e-06
1.30026e-06
1.29408e-06
1.28683e-06
1.27843e-06
1.2688e-06
1.25783e-06
1.23106e-06
1.23985e-06
1.24824e-06
1.25621e-06
1.26376e-06
1.27088e-06
1.27756e-06
1.2838e-06
1.28957e-06
1.29488e-06
1.29971e-06
1.30403e-06
1.30785e-06
1.31113e-06
1.31387e-06
1.31604e-06
1.31763e-06
1.31859e-06
1.31892e-06
1.31857e-06
1.31751e-06
1.31571e-06
1.31313e-06
1.30972e-06
1.30542e-06
1.30019e-06
1.29396e-06
1.28666e-06
1.27821e-06
1.26852e-06
1.25749e-06
1.24502e-06
1.23235e-06
1.24109e-06
1.24943e-06
1.25735e-06
1.26485e-06
1.27192e-06
1.27855e-06
1.28474e-06
1.29046e-06
1.29571e-06
1.30049e-06
1.30476e-06
1.30852e-06
1.31175e-06
1.31444e-06
1.31655e-06
1.31808e-06
1.31898e-06
1.31925e-06
1.31884e-06
1.31772e-06
1.31586e-06
1.31321e-06
1.30973e-06
1.30537e-06
1.30007e-06
1.29377e-06
1.28639e-06
1.27786e-06
1.26809e-06
1.25698e-06
1.24442e-06
1.23405e-06
1.24273e-06
1.251e-06
1.25885e-06
1.26629e-06
1.27329e-06
1.27986e-06
1.28597e-06
1.29163e-06
1.29681e-06
1.30151e-06
1.30571e-06
1.3094e-06
1.31256e-06
1.31517e-06
1.31721e-06
1.31866e-06
1.31949e-06
1.31967e-06
1.31918e-06
1.31799e-06
1.31604e-06
1.3133e-06
1.30974e-06
1.30528e-06
1.29989e-06
1.29349e-06
1.28602e-06
1.27738e-06
1.26751e-06
1.25629e-06
1.24361e-06
1.23614e-06
1.24474e-06
1.25293e-06
1.2607e-06
1.26805e-06
1.27497e-06
1.28145e-06
1.28748e-06
1.29305e-06
1.29815e-06
1.30277e-06
1.30688e-06
1.31048e-06
1.31355e-06
1.31607e-06
1.31802e-06
1.31937e-06
1.3201e-06
1.32019e-06
1.3196e-06
1.3183e-06
1.31625e-06
1.31341e-06
1.30974e-06
1.30517e-06
1.29966e-06
1.29314e-06
1.28554e-06
1.27678e-06
1.26678e-06
1.25542e-06
1.2426e-06
1.23859e-06
1.24709e-06
1.25519e-06
1.26287e-06
1.27012e-06
1.27694e-06
1.28333e-06
1.28926e-06
1.29473e-06
1.29972e-06
1.30424e-06
1.30825e-06
1.31174e-06
1.3147e-06
1.31711e-06
1.31895e-06
1.32019e-06
1.32081e-06
1.32078e-06
1.32008e-06
1.31866e-06
1.31648e-06
1.31352e-06
1.30971e-06
1.30501e-06
1.29936e-06
1.2927e-06
1.28496e-06
1.27605e-06
1.26588e-06
1.25437e-06
1.24138e-06
1.24138e-06
1.24977e-06
1.25776e-06
1.26533e-06
1.27247e-06
1.27918e-06
1.28545e-06
1.29126e-06
1.29662e-06
1.3015e-06
1.30589e-06
1.30978e-06
1.31316e-06
1.31599e-06
1.31828e-06
1.31999e-06
1.3211e-06
1.32159e-06
1.32143e-06
1.32058e-06
1.31902e-06
1.31671e-06
1.31359e-06
1.30963e-06
1.30478e-06
1.29897e-06
1.29215e-06
1.28423e-06
1.27515e-06
1.2648e-06
1.25309e-06
1.23991e-06
1.24448e-06
1.25275e-06
1.26061e-06
1.26805e-06
1.27507e-06
1.28165e-06
1.28779e-06
1.29348e-06
1.29871e-06
1.30346e-06
1.30772e-06
1.31147e-06
1.31471e-06
1.31741e-06
1.31956e-06
1.32112e-06
1.32209e-06
1.32243e-06
1.32212e-06
1.32112e-06
1.3194e-06
1.31692e-06
1.31364e-06
1.30952e-06
1.30449e-06
1.2985e-06
1.29149e-06
1.28338e-06
1.2741e-06
1.26355e-06
)
;

boundaryField
{
    inlet
    {
        type            cyclic;
    }
    outlet
    {
        type            cyclic;
    }
    wall
    {
        type            fixedValue;
        value           nonuniform 0();
    }
    procBoundary1to0
    {
        type            processor;
        value           nonuniform List<scalar> 
59
(
1.24083e-06
1.24348e-06
1.24587e-06
1.24801e-06
1.24992e-06
1.25162e-06
1.25309e-06
1.25435e-06
1.25541e-06
1.24083e-06
1.22278e-06
1.22277e-06
1.22597e-06
1.22896e-06
1.23167e-06
1.2341e-06
1.23629e-06
1.23821e-06
1.2399e-06
1.24136e-06
1.24261e-06
1.24362e-06
1.24442e-06
1.24501e-06
1.2454e-06
1.2456e-06
1.2456e-06
1.2454e-06
1.24501e-06
1.24442e-06
1.24361e-06
1.2426e-06
1.24138e-06
1.23991e-06
1.23822e-06
1.23628e-06
1.2341e-06
1.23167e-06
1.22896e-06
1.22598e-06
1.22278e-06
1.22278e-06
1.22598e-06
1.22896e-06
1.23167e-06
1.23411e-06
1.23629e-06
1.23821e-06
1.2399e-06
1.24136e-06
1.24261e-06
1.24362e-06
1.24442e-06
1.24501e-06
1.2454e-06
1.2456e-06
1.2456e-06
1.24541e-06
1.24541e-06
)
;
    }
    procBoundary1to2
    {
        type            processor;
        value           nonuniform List<scalar> 
39
(
1.23097e-06
1.23028e-06
1.22936e-06
1.2282e-06
1.2268e-06
1.25163e-06
1.22512e-06
1.23822e-06
1.24784e-06
1.25597e-06
1.2637e-06
1.27101e-06
1.27788e-06
1.28433e-06
1.29033e-06
1.29588e-06
1.30096e-06
1.30556e-06
1.30968e-06
1.31328e-06
1.31637e-06
1.31892e-06
1.32091e-06
1.32232e-06
1.32313e-06
1.3233e-06
1.32282e-06
1.32165e-06
1.31976e-06
1.3171e-06
1.31364e-06
1.30932e-06
1.3041e-06
1.29791e-06
1.2907e-06
1.28238e-06
1.27287e-06
1.25163e-06
1.26209e-06
)
;
    }
    procBoundary1to3
    {
        type            processor;
        value           nonuniform List<scalar> 
23
(
1.28596e-06
1.29162e-06
1.2968e-06
1.3015e-06
1.30571e-06
1.30939e-06
1.31255e-06
1.31516e-06
1.3172e-06
1.31865e-06
1.31948e-06
1.31967e-06
1.31917e-06
1.31797e-06
1.31603e-06
1.31329e-06
1.30973e-06
1.30527e-06
1.29988e-06
1.29348e-06
1.28601e-06
1.27737e-06
1.2675e-06
)
;
    }
    procBoundary1to4
    {
        type            processor;
        value           nonuniform List<scalar> 
61
(
1.30446e-06
1.30157e-06
1.2987e-06
1.29583e-06
1.29302e-06
1.29033e-06
1.28779e-06
1.28544e-06
1.28331e-06
1.28144e-06
1.30446e-06
1.30158e-06
1.2987e-06
1.29584e-06
1.29303e-06
1.29034e-06
1.2878e-06
1.28545e-06
1.28332e-06
1.28144e-06
1.27984e-06
1.27854e-06
1.27755e-06
1.27688e-06
1.27654e-06
1.27655e-06
1.27689e-06
1.27756e-06
1.23235e-06
1.24109e-06
1.24943e-06
1.25735e-06
1.26485e-06
1.27192e-06
1.27855e-06
1.27855e-06
1.22498e-06
1.22714e-06
1.22969e-06
1.23258e-06
1.2358e-06
1.2393e-06
1.24303e-06
1.24694e-06
1.25099e-06
1.25511e-06
1.25931e-06
1.25932e-06
1.25512e-06
1.251e-06
1.24695e-06
1.24304e-06
1.2393e-06
1.2358e-06
1.23258e-06
1.22968e-06
1.22713e-06
1.22496e-06
1.2232e-06
1.22186e-06
1.22096e-06
)
;
    }
    procBoundary1to5
    {
        type            processor;
        value           nonuniform List<scalar> 10(1.22051e-06 1.22051e-06 1.22097e-06 1.22187e-06 1.22321e-06 1.22497e-06 1.22714e-06 1.22969e-06 1.23258e-06 1.2358e-06);
    }
}


// ************************************************************************* //
