/*--------------------------------*- C++ -*----------------------------------*\
  =========                 |
  \\      /  F ield         | OpenFOAM: The Open Source CFD Toolbox
   \\    /   O peration     | Website:  https://openfoam.org
    \\  /    A nd           | Version:  7
     \\/     M anipulation  |
\*---------------------------------------------------------------------------*/
FoamFile
{
    version     2.0;
    format      ascii;
    class       surfaceScalarField;
    location    "8000";
    object      phi;
}
// * * * * * * * * * * * * * * * * * * * * * * * * * * * * * * * * * * * * * //

dimensions      [0 3 -1 0 0 0 0];

internalField   nonuniform List<scalar> 
9541
(
-1.39686e-25
2.45727e-26
1.72428e-24
2.49672e-24
-1.5425e-24
-1.03609e-24
2.23706e-24
-1.67359e-25
-2.50156e-24
1.51525e-24
-1.48325e-24
-3.25545e-24
-4.15362e-25
1.98677e-25
-3.58229e-24
1.64975e-24
-4.93346e-24
-4.45839e-24
2.03253e-24
-4.27434e-24
-4.13033e-24
3.40285e-24
-5.04801e-24
-3.77527e-24
4.0102e-24
-1.57618e-24
-3.33039e-24
4.31817e-24
-4.68434e-24
-4.17111e-24
2.97858e-24
-3.07068e-24
-3.80008e-24
2.56769e-24
-2.80006e-24
-3.56563e-24
3.50448e-24
-2.30827e-24
-4.06542e-24
4.26306e-24
-2.09476e-24
-4.34841e-24
4.69775e-24
-6.80743e-25
-4.55657e-24
4.89286e-24
3.61074e-24
-4.39443e-24
5.64274e-24
1.12702e-26
-6.37859e-24
5.59807e-24
-2.28374e-24
-8.62533e-24
6.56847e-24
-7.05439e-25
-9.38668e-24
7.79087e-24
-2.71877e-24
-1.00473e-23
7.89016e-24
-6.63606e-24
-9.22121e-24
8.50528e-24
-1.8256e-24
-7.35709e-24
1.0172e-23
-3.37558e-24
-8.33741e-24
9.78129e-24
-4.40535e-24
-8.72072e-24
9.75011e-24
-4.32927e-24
-9.98902e-24
9.64134e-24
-8.16077e-24
-1.01028e-23
9.26196e-24
-7.12644e-24
-1.11059e-23
9.49096e-24
-8.16236e-24
-8.46714e-24
9.34423e-24
-9.98974e-24
-7.27229e-24
8.95443e-24
-4.654e-24
-6.05078e-24
8.89545e-24
-1.14469e-23
-7.13618e-24
6.45938e-24
-1.22512e-23
-5.08122e-24
6.11498e-24
-5.98508e-24
-4.01098e-24
5.55979e-24
-1.07105e-23
-6.3001e-24
2.33056e-24
-7.22988e-24
-6.06044e-24
2.82879e-24
-8.77282e-24
-5.48913e-24
2.14933e-24
-3.04648e-24
-4.32361e-24
3.18019e-24
-6.35616e-24
-6.29522e-24
1.51053e-24
-4.16545e-24
-5.55605e-24
2.94697e-24
-6.98739e-24
-5.068e-24
3.56783e-24
-1.4304e-24
-2.24903e-24
4.71228e-24
-4.73046e-24
-3.25889e-24
3.07172e-24
2.63113e-25
-3.3503e-24
3.3542e-24
1.17006e-24
-4.76057e-24
3.29842e-24
-3.58014e-24
-5.41922e-24
1.93447e-24
-2.58568e-24
-3.79875e-24
1.97043e-24
-6.24743e-25
-3.46154e-24
1.45501e-24
-2.11414e-25
-3.1284e-24
2.6312e-24
6.36107e-25
-3.19727e-24
2.72322e-24
-2.00154e-24
1.41735e-24
2.18664e-24
-2.00573e-24
-1.78365e-24
2.58029e-24
-4.83727e-24
-2.53601e-24
-1.75091e-24
-1.46506e-24
-2.63816e-24
-2.74558e-24
-1.25191e-24
-4.93418e-24
-5.03669e-24
-5.33838e-24
-4.7885e-24
-5.38227e-24
-4.52777e-24
-4.91212e-24
-4.0493e-24
-4.55184e-24
-4.46407e-24
-3.8432e-24
-3.94681e-24
-4.58512e-24
-3.16821e-24
-4.26648e-24
-2.99124e-24
-3.48099e-24
-2.44636e-24
-4.26553e-24
-1.13274e-24
-4.60837e-24
8.60095e-25
-5.71812e-24
-3.06204e-24
-6.87358e-24
-3.29971e-24
-6.6729e-24
-1.72337e-24
-6.10089e-24
-9.40443e-25
-6.13039e-24
-3.07281e-24
-6.70646e-24
-3.19444e-24
-7.19812e-24
-3.85208e-24
-7.64593e-24
-6.5858e-24
-1.03855e-23
-3.75535e-24
-1.10159e-23
-9.90055e-24
-1.16487e-23
-1.93097e-24
-7.51924e-24
-6.94327e-24
-7.77115e-24
-7.32707e-24
-7.22107e-24
-7.4504e-24
-6.13722e-24
-8.49005e-24
-6.40053e-24
-1.11882e-23
-6.71719e-24
-9.97271e-24
-5.42459e-24
-9.97376e-24
-4.58533e-24
-6.73843e-24
-4.22965e-24
-6.52017e-24
-4.82298e-24
-4.69505e-24
-5.62039e-24
-3.37899e-24
-6.74092e-24
-2.40641e-24
-6.60455e-24
-8.59952e-25
-6.39705e-24
-2.70252e-24
-7.79805e-24
-2.72769e-24
-7.21359e-24
8.91274e-26
-5.10708e-24
6.73835e-25
-4.43626e-24
-7.3133e-25
-4.50042e-24
-1.5097e-24
-3.57336e-24
1.48064e-24
-2.56889e-24
7.75536e-25
-2.508e-24
2.96233e-24
-1.20883e-24
-8.66662e-25
2.40933e-24
-2.76235e-24
7.46725e-25
4.59347e-24
-2.60738e-24
7.54165e-25
-3.54313e-24
-1.93318e-24
-4.95012e-24
-1.52532e-24
-1.97967e-24
-1.25773e-25
-3.5222e-24
-3.85919e-24
-4.6932e-24
-4.79864e-24
-3.9335e-24
-6.01591e-24
-3.48955e-24
-7.15636e-24
-6.32089e-24
-9.22541e-24
-4.45104e-24
-6.87027e-24
-1.63023e-24
-5.06934e-24
-4.00925e-24
-5.8234e-24
-4.13628e-24
-4.49889e-24
-3.63254e-24
-4.44112e-24
-9.645e-25
-3.90025e-24
-2.09394e-24
-4.86653e-24
-2.45976e-24
-5.28994e-24
-1.55042e-24
-5.26761e-24
-1.39654e-24
-4.97664e-24
-2.78318e-24
-5.29458e-24
-3.4628e-24
-6.70507e-24
-7.79346e-24
-8.05509e-24
-6.36615e-24
-7.48153e-24
-5.88528e-24
-7.14373e-24
-3.03314e-24
-6.71326e-24
-2.35423e-24
-9.84371e-24
-5.53814e-24
-9.21957e-24
-5.28371e-24
-8.16794e-24
-8.06865e-24
-7.95888e-24
-8.47722e-24
-6.72663e-24
-9.36981e-24
-6.63062e-24
-1.01477e-23
-5.2199e-24
-9.05049e-24
-5.21527e-24
-7.26595e-24
-4.91074e-24
-6.28004e-24
-4.88381e-24
-6.65551e-24
-4.88813e-24
-2.9388e-24
-5.54028e-24
-1.568e-24
-7.24631e-24
-9.54971e-25
-6.50342e-24
-2.18705e-24
-5.85589e-24
7.82439e-25
-5.73817e-24
1.25872e-24
-5.57267e-24
-1.82246e-25
-6.91892e-24
1.04098e-24
-5.13945e-24
1.43421e-24
-4.21834e-24
2.34427e-24
-3.80161e-24
3.0843e-24
-3.05182e-24
3.17445e-24
-1.75489e-24
-2.7132e-24
7.15667e-25
-2.96662e-24
7.9042e-25
3.19848e-24
-3.87722e-24
5.74528e-25
-2.42685e-24
3.69138e-24
-1.74955e-24
1.8587e-24
-5.9437e-24
-9.91096e-25
-4.15444e-24
-1.38985e-24
-5.35246e-24
-3.24101e-24
-5.80151e-24
-4.67604e-24
-6.26192e-24
-6.30334e-24
-3.68427e-24
-4.30509e-24
-1.71329e-24
-4.01111e-24
-3.21115e-24
-5.4736e-24
-3.10148e-24
-6.6109e-24
-4.42138e-24
-7.8581e-24
-3.16787e-24
-5.76262e-24
-2.13621e-24
-4.58484e-24
-2.18178e-24
-3.6268e-24
-1.83412e-24
-4.20154e-24
-9.08503e-25
-4.24148e-24
-1.54059e-24
-4.26937e-24
-4.22588e-24
-2.89083e-24
-4.91237e-24
-6.49065e-24
-6.84145e-24
-6.84365e-24
-5.85012e-24
-5.80322e-24
-5.20376e-24
-5.2602e-24
-6.46352e-24
-6.07249e-24
-2.12281e-24
-5.67755e-24
-4.40521e-24
-7.77759e-24
-5.45659e-24
-7.8361e-24
-6.16031e-24
-8.08458e-24
-8.3461e-24
-9.20864e-24
-7.10054e-24
-8.61406e-24
-9.33941e-24
-7.9066e-24
-7.98024e-24
-6.32049e-24
-7.53987e-24
-5.11275e-24
-7.13745e-24
-4.51462e-24
-6.4882e-24
-5.03797e-24
-4.39159e-24
-2.77805e-24
-1.62287e-24
-1.98184e-24
-1.16269e-24
-2.43674e-24
-2.3768e-24
-2.45607e-24
9.35704e-25
-1.11579e-24
-1.32802e-24
-3.24434e-24
2.354e-24
-2.74914e-24
2.32625e-24
-4.5662e-24
2.77344e-24
-4.23986e-24
3.92519e-24
-4.83126e-24
6.19054e-24
-5.90756e-24
2.49096e-24
-6.03203e-24
-3.09269e-24
3.45036e-24
-2.79795e-24
1.10626e-24
2.78388e-24
5.14161e-25
1.43898e-24
-3.52502e-24
-5.19154e-25
-3.21736e-24
-7.87664e-26
-5.73591e-24
6.11943e-25
-5.33683e-24
-1.3325e-24
-5.8227e-24
-2.27072e-24
-7.41421e-24
-2.61341e-24
-2.91622e-24
-2.02572e-24
-2.86081e-24
-3.64923e-24
-2.8184e-24
-4.09231e-24
-4.01833e-24
-4.5972e-24
-4.6535e-24
-5.74358e-24
-1.99006e-24
-5.73862e-24
-1.80176e-24
-4.91011e-24
-3.09767e-25
-4.23035e-24
-2.73447e-24
-5.26624e-24
-1.4849e-24
-4.75285e-24
-1.53457e-24
-3.42448e-24
5.62014e-25
-5.97624e-24
-8.8767e-24
-9.45441e-24
-5.93012e-24
-7.62712e-24
-4.94431e-24
-8.61204e-24
-4.82927e-24
-9.2201e-24
-6.18195e-24
-7.89708e-24
-6.10571e-24
-7.08869e-24
-5.10594e-24
-7.33361e-24
-3.96993e-24
-6.52469e-24
-5.80303e-24
-6.56877e-24
-7.77184e-24
-6.93184e-24
-7.77389e-24
-5.81626e-24
-6.62325e-24
-5.68475e-24
-7.3498e-24
-8.02693e-24
-6.32113e-24
-7.58363e-24
-6.8175e-24
-4.9492e-24
-7.60347e-24
-3.07054e-24
-4.31205e-24
-1.6121e-25
-3.77644e-24
-1.52167e-24
-2.4415e-24
-2.51618e-24
-1.09977e-24
-3.13616e-24
-1.21034e-24
-2.38738e-24
-1.77337e-24
-4.69509e-24
-9.65334e-25
-4.2406e-24
-4.28253e-25
-3.95853e-24
2.17268e-24
-2.9062e-24
1.37241e-24
-3.05843e-24
2.78893e-24
-1.91804e-24
4.55749e-24
-5.90499e-25
4.55999e-24
-1.80311e-24
-2.23157e-24
4.10484e-24
-1.99722e-24
2.11188e-25
3.16163e-24
-1.98818e-24
3.95202e-25
-3.87143e-24
-7.86763e-26
-3.35493e-24
-1.33341e-24
-7.49188e-24
-2.49022e-24
-6.68971e-24
-1.41943e-24
-5.67232e-24
-3.17774e-24
-5.80032e-24
-2.49989e-24
-5.4758e-24
-1.54198e-24
-2.49039e-24
-1.73657e-24
-3.31488e-24
-3.0131e-24
-3.70954e-24
-4.2804e-24
-4.18722e-24
-5.00666e-24
-1.74783e-25
-4.32049e-24
-5.68261e-25
-3.48557e-24
-6.44988e-25
-3.36489e-24
-1.93238e-24
-4.16283e-24
-1.76312e-25
-5.72471e-24
-4.51355e-24
-8.12189e-24
-2.83394e-24
-6.82572e-24
-6.0928e-24
-5.8199e-24
-7.1638e-24
-6.63394e-24
-5.02283e-24
-8.42643e-24
-3.46015e-24
-8.29567e-24
-5.06238e-24
-6.88769e-24
-6.08262e-24
-6.6836e-24
-4.11499e-24
-5.54141e-24
-4.21946e-24
-6.70925e-24
-6.40326e-24
-9.29438e-24
-7.05689e-24
-6.32852e-24
-7.61293e-24
-4.94015e-24
-9.45109e-24
-3.86093e-24
-6.87999e-24
-2.09315e-24
-3.58021e-24
-1.46705e-24
-5.15952e-24
-3.15387e-24
-4.78627e-24
-3.67947e-24
-6.2503e-24
-3.74977e-24
-4.71022e-24
-2.87217e-24
-2.80389e-24
-3.35151e-24
6.38661e-25
-4.61238e-24
-1.94779e-24
-7.72076e-24
-4.33104e-25
-6.17761e-24
2.61518e-25
-5.42939e-24
1.94587e-24
-5.7603e-24
2.66052e-24
-5.77035e-24
3.06709e-24
-4.23548e-24
4.38052e-24
-3.50136e-24
2.94613e-24
-3.52693e-24
3.89715e-24
-2.91149e-24
-2.97155e-24
4.25929e-24
-3.78972e-25
3.52445e-24
4.34947e-24
-2.70431e-24
1.62572e-24
-3.72884e-24
6.31637e-25
-4.3342e-24
1.21117e-24
-5.21781e-24
-1.30156e-24
-8.16087e-24
-3.39968e-24
-5.18054e-24
-1.4551e-24
-4.21908e-24
-2.95164e-24
-5.51239e-24
-4.54179e-24
-3.17957e-24
-4.03935e-24
-3.28211e-24
-3.52599e-24
-4.31159e-24
-3.30884e-24
-3.3408e-24
-4.27042e-24
6.62325e-25
-1.97257e-24
3.86054e-25
-2.46115e-24
-1.56982e-24
-1.57599e-24
-2.57925e-24
-2.85884e-24
-2.91783e-24
-4.48106e-24
-3.67482e-24
-6.24575e-24
-2.0023e-24
-7.58574e-24
-6.28388e-24
-1.10103e-23
-8.47606e-24
-7.77667e-24
-4.29306e-24
-3.51397e-24
-1.82331e-24
-2.16159e-24
-4.11282e-24
-5.23762e-24
-4.67781e-24
-6.92721e-24
-5.02266e-24
-5.72717e-24
-7.00013e-24
-5.28997e-24
-3.19266e-24
-3.93957e-24
-5.5275e-24
-4.55835e-24
-6.35957e-24
-4.12738e-24
-7.80602e-24
-2.42793e-24
-6.75946e-24
-3.95558e-24
-5.40599e-24
-4.03099e-24
-4.46418e-24
-4.42045e-24
-4.70588e-24
-3.98886e-24
-5.16969e-24
-5.7075e-24
-4.45728e-24
-5.20054e-24
-2.88693e-24
-4.45052e-24
-2.23316e-24
-4.24916e-24
-3.76597e-25
-4.70175e-24
1.94368e-25
-6.157e-24
1.17058e-24
-5.87089e-24
3.07189e-24
-7.25973e-24
4.64537e-24
-7.57654e-24
4.76099e-24
-5.65224e-24
4.64194e-24
-3.85257e-24
3.33895e-24
-1.95627e-24
2.20374e-24
-1.37615e-24
-2.32434e-24
5.64162e-24
-2.14754e-24
1.88029e-24
2.75642e-24
-2.70169e-24
1.87319e-24
-2.99238e-24
1.43628e-24
-6.5418e-24
-2.46956e-24
-5.78032e-24
-2.64856e-24
-5.16726e-24
-1.70703e-25
-6.31571e-24
-3.33721e-25
-5.65272e-24
1.23966e-24
-5.18668e-24
-1.44192e-25
-3.74796e-24
-1.92588e-24
-2.71226e-24
-5.06265e-24
-4.73969e-24
-5.05275e-24
-1.66393e-24
-3.08957e-24
-1.05019e-24
-1.9907e-24
2.35047e-24
-2.85639e-24
-3.04564e-24
-5.12861e-24
-3.85473e-24
-3.65101e-24
-4.461e-24
-2.71743e-24
-4.07275e-24
-2.07503e-24
-4.86561e-24
-2.8946e-24
-2.65926e-24
-3.49455e-24
-4.30508e-24
-3.18249e-24
-2.96075e-24
-5.49804e-24
-4.73018e-24
-4.77208e-24
-5.36234e-24
-4.90325e-24
-3.46465e-24
-5.48632e-24
-4.74214e-24
-5.34109e-24
-5.5202e-24
-5.11431e-24
-3.75675e-24
-5.64268e-24
-4.81681e-24
-4.3742e-24
-5.16531e-24
-3.83631e-24
-8.87639e-24
-7.74182e-24
-5.90487e-24
-6.80617e-24
-6.11338e-24
-5.1935e-24
-4.02909e-24
-4.24157e-24
-5.9754e-24
-5.52444e-24
-3.79575e-24
-4.75785e-24
-3.49181e-24
-4.16157e-24
-2.7335e-24
-3.43784e-24
-2.32144e-24
-3.54552e-24
-9.16177e-25
-5.1509e-24
1.05199e-24
-3.56488e-24
-5.80116e-25
-2.54954e-24
2.16612e-24
-1.92854e-24
6.72627e-24
-4.08803e-24
6.4191e-24
-5.66341e-24
5.96738e-24
-5.28627e-24
3.70412e-24
-3.861e-24
2.13236e-24
-3.28169e-24
-1.3549e-24
6.12175e-24
-2.33147e-24
3.14109e-25
2.22498e-24
-3.2882e-24
1.04043e-24
-5.59544e-24
-3.41379e-24
-7.22735e-24
-1.00682e-24
-3.40596e-24
3.65199e-25
-5.66194e-24
-3.51804e-24
-4.85426e-24
-5.68899e-24
-6.91733e-24
-4.06239e-24
-5.26372e-24
-2.26323e-24
-6.36002e-24
-5.52616e-24
-3.35412e-24
-7.79212e-24
-3.06246e-24
-5.57908e-24
-1.57544e-24
-2.02263e-24
-1.64028e-24
-1.86708e-24
2.93137e-25
-1.5116e-24
-1.45633e-24
-3.02118e-24
-2.69728e-24
-2.72894e-24
-3.39826e-24
-2.25633e-24
-4.34582e-24
-1.17979e-24
-5.5134e-24
2.18294e-24
-1.74695e-24
2.12458e-24
-5.94629e-24
-1.60801e-25
-1.94261e-24
8.07978e-26
-4.80829e-24
-2.2699e-24
-6.19629e-24
-3.83515e-24
-3.09848e-24
-5.07198e-24
-4.42685e-24
-4.64376e-24
-5.66834e-24
-4.25502e-24
-3.10342e-24
-3.52811e-24
-4.38113e-24
-7.03932e-24
-8.94674e-24
-8.89294e-24
-7.12702e-24
-8.91337e-24
-4.72352e-24
-5.47552e-24
-5.41501e-24
-5.64215e-24
-5.27244e-24
-5.86966e-24
-5.58838e-24
-6.17573e-24
-2.97679e-24
-7.08073e-24
-2.73742e-24
-5.17383e-24
-1.85253e-24
-4.78977e-24
-4.02506e-24
-4.89562e-24
-3.42312e-25
-3.30446e-24
1.07034e-24
-4.31179e-24
-5.54565e-25
-5.11381e-24
6.19282e-25
-3.46288e-24
5.74254e-24
-1.76723e-24
6.20053e-24
-4.23574e-24
6.37905e-24
-5.89844e-24
3.48658e-24
-5.79189e-24
4.52968e-24
-4.23357e-24
-1.32393e-24
5.54742e-24
-1.49073e-24
-7.52536e-25
3.5058e-24
-7.09743e-24
-3.88443e-24
-5.0792e-24
-1.2653e-24
-6.42627e-24
-1.01487e-24
-6.15212e-24
-1.19084e-24
-8.4476e-24
-3.168e-24
-3.57503e-24
-2.59756e-24
-5.88075e-24
-2.18679e-24
-7.40228e-24
-1.77972e-24
-8.42831e-24
-3.02382e-25
-1.42577e-24
9.53204e-25
6.23829e-25
2.02531e-24
-1.49412e-24
-1.39945e-25
-1.38113e-24
-1.60143e-24
-4.41978e-25
-1.58875e-24
-3.92127e-25
-3.11192e-24
-2.0811e-24
-2.20928e-24
-2.78665e-24
-2.72574e-24
-1.34339e-24
-2.73059e-24
-5.52967e-24
-3.32645e-24
-3.18898e-24
1.3893e-25
-5.80304e-24
2.47286e-24
-3.9939e-24
1.39204e-24
-5.26231e-24
-1.53824e-24
-7.29914e-24
-1.37109e-24
-2.69187e-24
-7.67586e-25
-4.33023e-24
-3.26914e-24
-4.97144e-24
-4.25286e-24
-5.40008e-24
-4.45194e-24
-5.9922e-24
-6.92863e-24
-9.05015e-24
-7.7703e-24
-4.0114e-24
-4.40347e-24
-4.74474e-24
-5.26052e-24
-5.28298e-24
-6.08363e-24
-5.71813e-24
-6.57253e-24
-6.79536e-24
-6.49622e-24
-1.69911e-24
-2.93314e-24
-3.12903e-24
-4.22972e-24
-2.00559e-24
-3.53384e-24
-2.65563e-24
-4.23524e-24
-4.12566e-25
-4.71517e-24
7.51109e-25
-4.61585e-24
8.20278e-25
-4.33641e-24
2.82117e-24
-5.20177e-24
4.39068e-24
-5.68673e-24
5.55979e-24
-7.10484e-24
6.16838e-24
-5.8557e-24
4.43914e-24
-4.50718e-24
7.04448e-24
-2.70592e-24
-3.77325e-24
5.51143e-24
-3.54848e-24
1.05729e-24
2.78294e-24
-4.58064e-24
-2.98512e-24
-5.24451e-24
-2.13067e-24
-5.34767e-24
-2.06253e-24
-6.81643e-24
-5.04729e-25
-7.39436e-24
2.04979e-24
-4.25555e-24
2.59466e-24
-5.42574e-24
-1.8816e-24
-6.33905e-24
-1.76172e-24
-7.28398e-24
3.9716e-25
-2.97575e-25
3.87633e-24
-5.40152e-25
2.0052e-24
-2.35129e-24
1.72441e-24
-1.40921e-24
-1.55499e-24
-2.45787e-24
-2.95934e-24
6.64816e-25
-3.95142e-24
-2.89203e-24
-2.13149e-24
-2.14257e-24
-4.73545e-24
-1.91267e-24
-3.46958e-24
-2.74074e-24
-2.20775e-24
-1.89943e-24
-1.58914e-24
-5.92785e-24
-2.58298e-24
-6.32803e-24
1.2744e-24
-4.76241e-24
-7.75342e-25
-6.69909e-24
-3.11124e-24
-4.42458e-24
-2.45959e-24
-4.70898e-24
-3.38902e-24
-5.58407e-24
-4.58627e-24
-7.1036e-24
-8.38418e-24
-6.64383e-24
-1.22972e-23
-5.79567e-24
-1.11925e-23
-4.96893e-24
-9.8143e-24
-4.71921e-24
-9.82047e-24
-5.51482e-24
-8.38964e-24
-4.78489e-24
-8.02125e-24
-3.53445e-24
-5.67806e-24
-2.5639e-24
-1.62263e-24
-2.37408e-24
-5.45746e-24
-2.75702e-24
-7.38388e-24
-2.20018e-24
-5.65853e-24
6.36329e-25
-3.56812e-24
1.9788e-25
-3.41704e-24
1.48735e-24
-4.07515e-24
2.80723e-24
-3.8661e-24
3.53851e-24
-4.58064e-24
5.56729e-24
-4.52453e-24
5.58638e-24
-5.15806e-24
5.48557e-24
-3.68715e-24
5.83393e-24
-2.72334e-24
-9.5421e-25
8.00919e-24
-5.23463e-24
-3.00045e-25
2.54059e-24
-3.4641e-24
1.51999e-24
-5.33972e-24
-1.37176e-24
-4.52365e-24
-2.83491e-24
-5.39635e-24
-3.80331e-24
-6.84351e-24
-4.5736e-24
-6.34265e-24
-3.48074e-24
-4.91621e-24
-1.80769e-24
-5.50752e-24
-1.71507e-24
-4.41667e-24
-1.25385e-24
-1.94449e-24
9.15224e-25
-7.72729e-25
7.41244e-25
-4.91492e-24
-2.8984e-24
-2.21385e-24
-1.12357e-24
-3.38147e-24
-1.62893e-24
2.36762e-24
2.49826e-25
-5.15953e-24
-3.94188e-24
-1.30901e-24
3.25189e-25
-1.36141e-24
1.71859e-25
-1.5556e-24
-1.66533e-24
-2.70326e-24
-2.34241e-24
-2.68036e-24
-2.8953e-24
-7.55421e-24
-3.09526e-24
-6.13352e-24
-2.63845e-24
-6.14706e-24
-2.97051e-24
-5.22475e-24
-2.93277e-24
-5.67237e-24
-3.06629e-24
-7.79051e-24
-6.60614e-24
-9.58408e-24
-7.36669e-24
-5.58906e-24
-6.44471e-24
-4.72751e-24
-1.32847e-23
-4.32069e-24
-1.68378e-23
-3.41436e-24
-1.24739e-23
-4.65327e-24
-1.10009e-23
-3.4775e-24
-9.10802e-24
6.03235e-26
-9.64793e-24
-5.89611e-24
-1.05731e-23
-2.57494e-24
-6.62393e-24
-1.19849e-24
-6.68744e-24
-8.50273e-25
-6.91155e-24
1.58613e-24
-6.48741e-24
-2.71513e-25
-1.07756e-23
5.25904e-25
-4.00278e-24
1.65994e-24
-2.42512e-24
3.01682e-24
-4.79438e-24
4.84762e-24
-5.73827e-24
6.10497e-24
-5.93733e-24
5.44733e-24
-2.80939e-24
5.82531e-24
-2.99376e-24
-2.17426e-24
7.40133e-24
-4.00205e-24
2.60994e-24
4.71184e-24
-4.39274e-24
2.45102e-25
-6.395e-24
7.22198e-25
-4.33573e-24
3.48807e-24
-6.54801e-24
-1.61486e-24
-6.11092e-24
-5.73267e-24
-7.13139e-24
-3.78853e-24
-5.16616e-24
-1.31931e-24
-4.82022e-24
-1.95901e-24
-3.9497e-24
-2.09417e-24
-2.24679e-24
-1.56471e-24
-3.50398e-24
-1.85021e-24
-3.73682e-24
4.83118e-25
-2.96487e-24
-1.31929e-24
-2.27985e-24
-1.87633e-24
-2.5147e-25
-1.6855e-24
-2.0425e-24
-1.92479e-24
-1.38889e-24
-3.30679e-24
-2.25493e-24
-2.49828e-24
-1.81984e-24
-2.14157e-24
-2.82128e-24
-1.95023e-24
-2.6694e-24
-1.617e-24
-6.71815e-24
-4.36571e-24
-6.58062e-24
-3.51524e-24
-6.26246e-24
-4.93234e-24
-4.79675e-24
-7.41401e-24
-8.1107e-24
-9.16187e-24
-8.04166e-24
-7.22171e-24
-9.33729e-24
-6.64113e-24
-1.00504e-23
-6.5526e-24
-6.95188e-24
-6.59781e-24
-1.34138e-24
-8.08272e-24
-2.7371e-24
-1.27257e-23
-2.95234e-24
-1.25284e-23
-3.63408e-24
-1.19957e-23
1.04639e-25
-9.69845e-24
-3.36385e-24
-7.54739e-24
-2.49139e-24
-8.17781e-24
-6.98492e-25
-8.68841e-24
5.19533e-25
-7.98864e-24
-1.15687e-24
-7.8752e-24
3.9017e-24
-6.4371e-24
1.35731e-24
-5.77392e-24
6.81667e-25
-5.90677e-24
2.63372e-24
-6.3264e-24
4.06232e-24
-2.61439e-24
6.76991e-24
-8.65615e-25
5.16257e-24
-1.0895e-24
6.87419e-24
-6.49339e-25
-8.07874e-25
6.22237e-24
-4.88979e-24
1.83456e-24
4.74796e-24
-4.70157e-24
2.44951e-25
-5.48844e-24
-2.67548e-24
-7.63423e-24
-2.35282e-24
-8.55132e-24
-2.48915e-24
-4.96757e-24
-1.69576e-24
-4.80709e-24
-4.4216e-24
-5.16561e-24
-3.53775e-24
-5.32284e-24
-3.23706e-24
-3.57631e-24
-4.53495e-25
-2.16528e-24
-3.60335e-24
-1.91176e-24
-2.70049e-24
-4.94315e-24
-6.26323e-24
-3.29588e-24
-2.73841e-24
-1.77785e-24
-5.67107e-25
-1.44819e-24
-1.33327e-24
-1.72979e-24
-4.4767e-24
-8.89635e-25
-3.84591e-24
-1.70563e-24
-2.28233e-24
-2.31809e-24
-2.42018e-24
-2.32386e-24
-3.35388e-24
-4.62915e-24
-5.75074e-24
-5.42619e-24
-5.54456e-24
-7.4354e-24
-7.40316e-24
-7.48184e-24
-5.58613e-24
-5.78892e-24
-4.93249e-24
-6.72408e-24
-6.13523e-24
-7.99272e-24
-1.03952e-23
-8.85943e-24
-1.04193e-23
-1.0129e-23
-8.85396e-24
-7.59591e-24
-9.38593e-24
-4.21659e-24
-1.10043e-23
-2.6946e-24
-1.14349e-23
-2.60049e-24
-1.35133e-23
-1.81484e-24
-1.36824e-23
1.14074e-24
-1.2166e-23
-3.48702e-24
-1.28157e-23
-3.27918e-24
-1.32748e-23
-3.67302e-25
-9.33226e-24
5.97585e-25
-8.96376e-24
3.74641e-25
-7.48853e-24
4.75647e-24
-7.8328e-24
1.2596e-24
-5.84733e-24
4.86454e-25
-1.9028e-24
4.90521e-24
2.58381e-25
4.78271e-24
-2.42196e-24
5.71782e-24
-1.5686e-24
5.77095e-24
-1.83761e-24
6.82064e-24
-2.19787e-24
-3.20764e-24
5.27904e-24
-5.82515e-24
-3.13161e-25
2.754e-24
-5.3836e-24
3.59518e-27
-5.77885e-24
2.65668e-24
-8.10941e-24
-5.69373e-25
-7.81646e-24
-3.18008e-24
-7.02939e-24
-2.09521e-24
-4.18919e-24
-3.59865e-24
-4.85365e-24
-3.00449e-24
-2.59292e-24
-2.42297e-24
-4.83335e-24
1.18098e-24
-1.62271e-24
2.67466e-24
-3.54585e-24
-1.25532e-24
-3.27822e-24
-3.44044e-24
-1.59942e-24
-1.04608e-24
-1.55059e-24
-4.88733e-25
-2.42489e-24
2.30434e-26
-1.50911e-24
-1.03961e-24
-3.78121e-25
-8.0359e-25
-1.86516e-24
-1.06473e-24
-2.72822e-24
-2.14955e-24
-3.53843e-24
-3.93855e-24
-4.322e-24
-7.28203e-24
-6.32957e-24
-5.41925e-24
-6.30765e-24
-9.05124e-24
-6.97284e-24
-9.54887e-24
-6.86425e-24
-6.10693e-24
-8.21499e-24
-5.71541e-24
-7.85708e-24
-7.77225e-24
-7.56048e-24
-7.94121e-24
-1.04769e-23
-1.04094e-23
-8.3207e-24
-1.17107e-23
-4.45346e-24
-1.48087e-23
-4.01465e-24
-1.50321e-23
-2.87107e-24
-1.44782e-23
-1.1607e-24
-1.38151e-23
8.67163e-25
-1.70079e-23
-3.23655e-24
-1.78034e-23
-8.66483e-25
-1.28347e-23
7.54343e-25
-1.13297e-23
1.64569e-24
-6.98166e-24
-3.18774e-25
-5.57747e-24
4.72268e-24
-3.02082e-24
3.86748e-24
-5.69461e-24
1.70155e-24
-4.52891e-24
3.87666e-24
-2.67038e-24
5.57385e-24
-5.40996e-24
5.84465e-24
-2.73147e-24
5.11517e-24
-2.95365e-24
6.70842e-24
-5.47105e-24
-2.10467e-24
7.60254e-24
-5.58165e-24
9.54029e-25
3.72695e-24
-4.8575e-24
-5.01268e-25
-7.03724e-24
-3.29677e-24
-8.53619e-24
8.44453e-25
-7.03867e-24
4.10583e-25
-7.35216e-24
1.81075e-24
-3.79679e-24
2.83464e-24
-4.88385e-24
-2.94448e-24
-1.56427e-24
2.59494e-24
-4.04899e-24
2.53108e-24
-2.50793e-24
2.0782e-24
-4.64662e-24
2.13101e-25
-2.21218e-24
2.97565e-24
-1.56348e-24
1.36387e-24
-1.33222e-24
-4.45039e-25
-2.82223e-24
-1.27067e-24
-1.77394e-24
-5.14659e-25
-8.32114e-27
2.22692e-25
-2.3859e-24
-2.45486e-24
-3.75462e-24
-4.02922e-24
-5.37278e-24
-3.61026e-24
-2.63786e-24
-5.57363e-25
-8.39321e-24
-1.93464e-24
-6.39444e-24
-2.01926e-24
-4.71193e-24
-1.88395e-24
-6.32854e-24
-5.52917e-24
-9.51133e-24
-7.53742e-24
-7.9496e-24
-1.09337e-23
-8.55138e-24
-8.91556e-24
-1.10541e-23
-9.53736e-24
-9.57075e-24
-1.46466e-23
-4.16811e-24
-1.05404e-23
-3.03328e-24
-1.58537e-23
-2.57244e-24
-1.75439e-23
-3.09527e-24
-1.48049e-23
1.08583e-24
-1.31846e-23
-7.73731e-25
-1.63568e-23
1.03847e-25
-1.36083e-23
2.39874e-24
-1.39943e-23
2.54247e-24
-1.15398e-23
1.88646e-24
-9.19221e-24
3.4086e-24
-7.12374e-24
5.19098e-24
-7.15185e-24
3.45134e-24
-3.31609e-24
2.05799e-24
-1.89862e-24
6.86602e-24
-8.85312e-25
6.02932e-24
-3.08304e-24
4.34874e-24
-3.16409e-24
8.34918e-24
1.60341e-24
-6.57201e-25
7.31037e-24
-5.92782e-24
1.91502e-24
4.38621e-24
-5.82844e-24
2.58828e-25
-4.28941e-24
-1.32088e-25
-8.90572e-24
1.85266e-24
-5.44034e-24
1.93669e-24
-5.70701e-24
3.01442e-24
-6.33635e-24
3.3659e-24
-1.62454e-24
1.35317e-25
-1.47745e-24
4.54981e-24
-3.01448e-24
2.96172e-24
-3.10097e-24
4.70966e-24
-3.57298e-24
4.23582e-24
-3.23613e-24
-5.57996e-26
-2.03968e-24
1.15678e-24
-1.20366e-24
1.99136e-24
-2.33234e-24
-1.09734e-24
-1.33725e-24
-1.81165e-24
-1.44702e-24
-1.25996e-24
-3.28861e-24
-1.66279e-24
-3.62629e-24
-4.53449e-24
-3.6864e-24
-5.4891e-24
-3.32232e-24
-6.91936e-24
-8.16524e-24
-8.74008e-24
-6.26782e-24
-5.25862e-24
-6.88101e-24
-1.85808e-24
-6.6075e-24
-3.59483e-24
-1.09956e-23
-7.26554e-24
-6.82116e-24
-5.92009e-24
-8.76587e-24
-1.30932e-23
-1.34184e-23
-1.39948e-23
-6.90838e-24
-1.15886e-23
-6.63365e-24
-1.61392e-23
-4.24528e-24
-1.77891e-23
-1.1789e-24
-1.62137e-23
-2.49332e-24
-1.42378e-23
-4.74104e-25
-1.58349e-23
7.21376e-25
-1.87475e-23
3.98342e-25
-1.50308e-23
3.78393e-24
-1.31088e-23
2.71171e-24
-1.12415e-23
2.24707e-24
-8.97968e-24
3.10462e-24
-8.28384e-24
6.15387e-24
-4.66891e-25
3.34196e-24
-3.77497e-24
2.12222e-24
-1.87433e-24
5.38344e-24
-1.51131e-24
5.02119e-24
1.24188e-24
5.83122e-24
-5.13733e-25
7.53659e-24
-8.0673e-25
2.83751e-25
6.8538e-24
-5.69307e-24
3.5055e-24
4.5144e-24
-6.42748e-24
1.70322e-24
-3.44227e-24
1.70904e-24
-8.11964e-24
-2.22987e-24
-6.16924e-24
1.57691e-24
-5.72284e-24
2.51038e-24
-8.7551e-24
2.53435e-24
5.7263e-25
4.78943e-24
-2.97377e-24
-1.64659e-24
-1.78361e-24
8.85468e-25
-3.22826e-24
2.36544e-24
-4.67565e-24
2.38214e-24
-2.32192e-24
3.00939e-24
-1.43849e-24
4.36293e-24
-2.73271e-24
-6.71902e-25
-2.97928e-24
-1.24677e-24
-1.22475e-24
-1.40844e-24
-1.95785e-24
-1.61444e-24
-4.41391e-24
-3.47813e-24
-3.84787e-24
-6.37314e-24
-4.0138e-24
-1.03475e-23
-4.17295e-24
-9.27245e-24
-6.52963e-24
-8.77761e-24
-4.42127e-24
-3.95513e-24
-7.58994e-24
-1.76769e-24
-8.04223e-24
-1.15428e-24
-1.02781e-23
-6.59868e-24
-9.94929e-24
-8.32532e-24
-9.10553e-24
-6.64343e-24
-1.22132e-23
-1.37727e-23
-9.32323e-24
-1.45595e-23
-7.44683e-24
-1.84448e-23
-2.73699e-24
-2.17907e-23
-4.35227e-25
-1.76638e-23
-2.98017e-24
-2.095e-23
-2.09943e-24
-1.75031e-23
2.01744e-24
-1.53365e-23
1.27804e-24
-1.47957e-23
4.28345e-24
-1.15567e-23
3.8693e-24
-1.05827e-23
2.06244e-24
-7.95707e-24
6.2157e-24
-2.64096e-24
4.71179e-24
-2.29054e-24
4.64345e-24
-4.72786e-25
2.29715e-24
-5.34208e-25
6.2087e-24
3.49197e-24
3.02662e-24
4.6973e-24
6.01136e-24
3.79269e-24
6.98463e-24
2.25819e-24
8.11807e-25
6.26747e-24
-6.06682e-24
-4.8174e-24
-5.55872e-24
3.28199e-24
-5.95486e-24
1.73525e-24
-5.57575e-24
2.20832e-24
-6.16841e-24
3.15327e-24
-6.55924e-24
2.04355e-24
-3.88055e-24
2.24851e-24
-1.23289e-24
-7.37836e-26
-9.27127e-25
2.7688e-25
-3.32616e-24
9.4623e-25
-4.31925e-24
2.74811e-24
-2.24454e-24
5.86219e-24
-3.19581e-24
5.30507e-24
-2.8021e-24
2.12191e-24
-3.19924e-24
-6.68319e-25
-1.72988e-24
-3.10536e-24
-2.98002e-24
-4.70151e-24
-5.50632e-24
-5.9329e-24
-5.72198e-24
-4.06798e-24
-3.6894e-24
-3.39338e-24
-3.80726e-24
-7.2237e-24
-4.2995e-24
-9.96385e-24
-3.37956e-24
-2.84836e-24
-6.65917e-24
-3.15615e-24
-1.01982e-23
-7.16266e-27
-1.08271e-23
-7.38664e-24
-9.12185e-24
-1.16067e-23
-1.25826e-23
-1.58372e-23
-1.17947e-23
-1.62901e-23
-1.06403e-23
-1.58086e-23
-8.74709e-24
-2.05068e-23
-1.3855e-25
-1.47996e-23
-2.3923e-24
-1.84467e-23
-1.52039e-24
-2.18786e-23
-8.62092e-25
-2.12535e-23
1.66246e-24
-1.83942e-23
2.89573e-24
-1.74404e-23
4.98631e-24
-1.81324e-23
4.97347e-24
-1.22703e-23
4.61244e-24
-8.24982e-24
6.81326e-24
-2.36929e-24
4.18493e-24
-5.74169e-25
4.43919e-24
-1.13397e-24
3.39011e-24
-2.65281e-26
5.8796e-24
-3.42874e-25
3.10138e-24
-1.86372e-24
4.10072e-24
2.71481e-24
6.32003e-24
4.12639e-24
-6.42647e-26
5.33172e-24
-5.82825e-24
-5.34369e-24
3.49298e-24
-5.48254e-24
3.84166e-24
-6.4602e-24
5.08735e-24
-6.00168e-24
5.83915e-24
-5.06692e-24
2.54111e-24
-5.68424e-25
4.51756e-24
-1.22415e-24
3.09608e-24
-1.89493e-24
9.71858e-25
-3.73779e-24
8.00549e-25
-2.22596e-24
4.38968e-24
-3.77631e-24
3.48423e-24
-3.98689e-24
2.05168e-24
-4.42526e-24
5.82357e-25
-2.29566e-24
-1.4014e-24
-3.19815e-24
-4.75783e-24
-4.70871e-24
-2.99476e-24
-5.10482e-24
-4.50581e-24
-5.09795e-24
-3.49284e-24
-4.22295e-24
-8.66376e-24
-1.50247e-24
-2.90936e-24
-4.01473e-24
-3.63176e-24
-4.77056e-24
-4.97374e-24
-1.33883e-23
-7.01422e-24
-1.21781e-23
-1.01047e-23
-1.01524e-23
-1.05312e-23
-1.28335e-23
-1.47844e-23
-1.14313e-23
-1.5384e-23
-1.23516e-23
-1.59451e-23
-6.99099e-24
-1.69564e-23
-1.94484e-24
-1.89004e-23
-3.79391e-24
-2.60445e-23
-1.48335e-24
-2.42547e-23
2.80415e-25
-2.2387e-23
2.02669e-24
-2.14856e-23
2.62182e-24
-1.8214e-23
7.95113e-24
-1.3919e-23
6.2993e-24
-1.09148e-23
7.19298e-24
-1.28419e-23
6.90256e-24
-1.18448e-23
5.19536e-24
-7.46231e-24
5.58591e-24
-1.01637e-24
3.93235e-24
1.95997e-24
5.49606e-24
5.12217e-25
4.35721e-24
-2.02255e-24
5.25602e-24
1.07209e-24
4.94204e-24
2.52499e-25
3.76952e-24
5.53511e-24
-5.61515e-24
-4.4231e-24
-5.71857e-24
7.71931e-24
-6.03358e-24
9.51389e-24
-4.41168e-24
1.0386e-23
-9.00816e-25
9.46091e-24
-1.61002e-24
3.80993e-24
-1.59406e-24
4.95611e-25
-2.86142e-24
1.22845e-24
-2.0681e-24
2.06145e-24
-4.9523e-24
4.89143e-24
-5.09995e-24
1.39724e-24
-4.83976e-24
7.58687e-25
-3.89794e-24
-2.56964e-24
-2.46362e-24
-7.25023e-24
-5.38909e-24
-4.80523e-24
-4.45326e-24
-3.07522e-24
-6.76922e-24
-1.63971e-24
-1.97834e-24
2.23103e-24
-2.33752e-24
-4.65056e-24
-4.59356e-24
-6.82041e-24
-5.2951e-24
-7.02466e-24
-1.39366e-23
-1.34666e-23
-1.2356e-23
-1.31936e-23
-1.16166e-23
-1.24752e-23
-1.28614e-23
-2.19709e-23
-1.11324e-23
-1.8171e-23
-1.23219e-23
-1.92935e-23
-7.28753e-24
-1.88529e-23
-4.57606e-24
-2.0198e-23
-3.14408e-24
-2.29285e-23
-1.16903e-24
-2.50473e-23
7.32542e-25
-2.34881e-23
3.1464e-24
-1.93852e-23
3.99231e-24
-1.79521e-23
9.17792e-24
-1.78636e-23
6.2378e-24
-1.7586e-23
7.34247e-24
-1.49543e-23
8.76318e-24
-1.26488e-23
7.54687e-24
-1.03239e-23
6.42874e-24
-8.8774e-24
3.6816e-24
-4.91854e-24
5.1241e-24
-8.76373e-25
5.73475e-24
-4.27036e-24
5.23997e-24
-3.54012e-26
6.3139e-24
-1.1416e-24
-3.77603e-24
3.13421e-24
-4.76907e-24
-5.64428e-24
1.0873e-23
-4.26403e-24
9.79711e-24
-2.8489e-24
8.43209e-24
-2.39706e-24
3.34042e-24
-1.2689e-24
1.79573e-24
-2.78341e-24
1.63098e-24
-1.18718e-24
2.55054e-24
-5.41847e-24
-7.01965e-25
-5.3901e-24
5.67237e-25
-5.87446e-24
-2.08015e-24
-5.34709e-24
-3.20106e-24
-1.78754e-24
-7.81079e-24
-4.65442e-24
-6.38466e-24
-4.44845e-24
-4.2362e-24
-4.45903e-24
-3.21237e-24
-4.64213e-24
-7.89446e-24
-2.75663e-24
-8.62234e-24
-4.98088e-24
-7.75047e-24
-8.01494e-24
-7.56852e-24
-1.31491e-23
-9.65107e-24
-1.19454e-23
-1.49279e-23
-1.45854e-23
-1.93363e-23
-1.09974e-23
-1.61869e-23
-1.18255e-23
-1.82918e-23
-1.14921e-23
-2.16378e-23
-8.2161e-24
-2.1905e-23
-5.57786e-24
-2.23233e-23
-3.88894e-24
-2.37818e-23
-9.35679e-25
-2.4027e-23
1.90897e-24
-2.32262e-23
3.41698e-24
-2.11397e-23
4.01474e-24
-2.21824e-23
9.22196e-24
-1.79089e-23
7.39078e-24
-1.42731e-23
7.75194e-24
-1.55075e-23
9.23379e-24
-1.18858e-23
8.41282e-24
-1.04203e-23
8.23428e-24
-8.72139e-24
4.80656e-24
-5.89092e-24
3.72024e-24
-3.19697e-25
6.67215e-24
1.5801e-24
5.15139e-24
1.03329e-24
5.28249e-24
7.60994e-25
9.99469e-26
5.68256e-24
-5.44187e-24
-4.67836e-24
6.02328e-24
-3.91083e-24
5.72509e-24
-2.74857e-24
2.83512e-24
-1.74399e-24
4.308e-24
-2.35535e-24
1.55876e-24
-2.26265e-24
1.79103e-24
-4.67821e-24
9.22034e-25
-6.55395e-24
8.82228e-25
-6.8675e-24
1.28168e-24
-6.70005e-24
-5.00595e-25
-1.38118e-24
-3.26843e-24
-3.84839e-24
-4.43623e-24
-4.58172e-24
-3.78267e-24
-5.4261e-24
-4.31254e-24
-5.31599e-24
-1.16875e-23
-2.63405e-24
-1.16828e-23
-4.99716e-24
-1.50368e-23
-8.254e-24
-6.09155e-24
-1.41693e-23
-5.92542e-24
-1.32496e-23
-6.44182e-24
-1.35344e-23
-8.76439e-24
-1.17799e-23
-8.52845e-24
-1.26869e-23
-1.84728e-23
-1.10677e-23
-2.31244e-23
-8.32881e-24
-2.47167e-23
-6.17156e-24
-2.28685e-23
-2.83415e-24
-2.71345e-23
-8.99196e-25
-2.56642e-23
2.68488e-24
-2.70773e-23
3.08725e-24
-2.66972e-23
4.76722e-24
-2.17658e-23
1.05781e-23
-1.47392e-23
6.18812e-24
-1.79028e-23
8.77253e-24