/*--------------------------------*- C++ -*----------------------------------*\
  =========                 |
  \\      /  F ield         | OpenFOAM: The Open Source CFD Toolbox
   \\    /   O peration     | Website:  https://openfoam.org
    \\  /    A nd           | Version:  7
     \\/     M anipulation  |
\*---------------------------------------------------------------------------*/
FoamFile
{
    version     2.0;
    format      ascii;
    class       volScalarField;
    location    "32000";
    object      p;
}
// * * * * * * * * * * * * * * * * * * * * * * * * * * * * * * * * * * * * * //

dimensions      [0 2 -2 0 0 0 0];

internalField   nonuniform List<scalar> 
4844
(
-1.46433e-18
-1.79895e-17
-1.74003e-17
-1.29459e-17
-1.85114e-17
-1.73381e-17
-1.73921e-17
-1.74024e-17
-1.72601e-17
-1.73228e-17
-1.73005e-17
-1.65986e-17
-1.85262e-17
-1.74011e-17
-1.74679e-17
-1.73817e-17
-1.7203e-17
-1.73898e-17
-1.72844e-17
-1.718e-17
-1.71291e-17
-1.71785e-17
-1.6992e-17
-1.80513e-17
-1.74532e-17
-1.74598e-17
-1.74438e-17
-1.72578e-17
-1.7382e-17
-1.73524e-17
-1.72834e-17
-1.73772e-17
-1.70846e-17
-1.70898e-17
-1.70975e-17
-1.69497e-17
-1.72004e-17
-1.71095e-17
-1.69675e-17
-1.78457e-17
-1.73676e-17
-1.73852e-17
-1.73664e-17
-1.71532e-17
-1.74911e-17
-1.72588e-17
-1.72614e-17
-1.73827e-17
-1.71033e-17
-1.71494e-17
-1.70619e-17
-1.71075e-17
-1.71799e-17
-1.71294e-17
-1.69901e-17
-1.76534e-17
-1.73103e-17
-1.74526e-17
-1.72328e-17
-1.71646e-17
-1.73465e-17
-1.72182e-17
-1.72842e-17
-1.7273e-17
-1.71325e-17
-1.7172e-17
-1.69506e-17
-1.71754e-17
-1.71401e-17
-1.70004e-17
-1.76836e-17
-1.73841e-17
-1.7335e-17
-1.7231e-17
-1.71778e-17
-1.72752e-17
-1.71578e-17
-1.72896e-17
-1.71082e-17
-1.71331e-17
-1.71622e-17
-1.69593e-17
-1.7212e-17
-1.70832e-17
-1.7075e-17
-1.76496e-17
-1.74135e-17
-1.73374e-17
-1.72601e-17
-1.72405e-17
-1.72737e-17
-1.70802e-17
-1.72505e-17
-1.71473e-17
-1.72069e-17
-1.71462e-17
-1.71611e-17
-1.72333e-17
-1.69748e-17
-1.70542e-17
-1.75487e-17
-1.7334e-17
-1.72842e-17
-1.72722e-17
-1.72274e-17
-1.72624e-17
-1.71128e-17
-1.72674e-17
-1.70977e-17
-1.71729e-17
-1.70885e-17
-1.71483e-17
-1.71575e-17
-1.68586e-17
-1.71671e-17
-1.72277e-17
-1.74632e-17
-1.72479e-17
-1.72397e-17
-1.7254e-17
-1.71597e-17
-1.72632e-17
-1.72162e-17
-1.72235e-17
-1.71044e-17
-1.71791e-17
-1.70711e-17
-1.69198e-17
-1.6986e-17
-1.69812e-17
-1.71313e-17
-1.72911e-17
-1.74701e-17
-1.72626e-17
-1.71832e-17
-1.73387e-17
-1.71833e-17
-1.71797e-17
-1.72879e-17
-1.70045e-17
-1.70946e-17
-1.71194e-17
-1.69716e-17
-1.69082e-17
-1.69387e-17
-1.69664e-17
-1.69785e-17
-1.7213e-17
-1.73836e-17
-1.72084e-17
-1.72046e-17
-1.72864e-17
-1.71684e-17
-1.72897e-17
-1.7143e-17
-1.69923e-17
-1.70354e-17
-1.70774e-17
-1.70198e-17
-1.69817e-17
-1.69357e-17
-1.68903e-17
-1.69434e-17
-1.72172e-17
-1.73314e-17
-1.71506e-17
-1.72735e-17
-1.72412e-17
-1.71111e-17
-1.73666e-17
-1.71114e-17
-1.70214e-17
-1.7102e-17
-1.71038e-17
-1.70655e-17
-1.69046e-17
-1.69761e-17
-1.68404e-17
-1.70044e-17
-1.72317e-17
-1.7212e-17
-1.72626e-17
-1.70667e-17
-1.73349e-17
-1.72258e-17
-1.70855e-17
-1.72334e-17
-1.70448e-17
-1.70832e-17
-1.72283e-17
-1.70078e-17
-1.70657e-17
-1.69666e-17
-1.70006e-17
-1.69235e-17
-1.70274e-17
-1.72027e-17
-1.71891e-17
-1.71848e-17
-1.72154e-17
-1.73307e-17
-1.72236e-17
-1.70994e-17
-1.72302e-17
-1.7092e-17
-1.69818e-17
-1.71324e-17
-1.71639e-17
-1.70348e-17
-1.69522e-17
-1.70701e-17
-1.70658e-17
-1.70216e-17
-1.72583e-17
-1.71738e-17
-1.71654e-17
-1.71711e-17
-1.7312e-17
-1.7226e-17
-1.72247e-17
-1.71981e-17
-1.71528e-17
-1.71467e-17
-1.70076e-17
-1.69872e-17
-1.72231e-17
-1.69115e-17
-1.69889e-17
-1.69875e-17
-1.70455e-17
-1.699e-17
-1.71657e-17
-1.71499e-17
-1.71195e-17
-1.70844e-17
-1.73202e-17
-1.71989e-17
-1.71133e-17
-1.71261e-17
-1.69367e-17
-1.71094e-17
-1.70418e-17
-1.68751e-17
-1.70393e-17
-1.687e-17
-1.70962e-17
-1.70147e-17
-1.69587e-17
-1.69122e-17
-1.72645e-17
-1.71061e-17
-1.70538e-17
-1.70915e-17
-1.72118e-17
-1.7149e-17
-1.71299e-17
-1.70504e-17
-1.70703e-17
-1.71446e-17
-1.7092e-17
-1.68711e-17
-1.69867e-17
-1.67727e-17
-1.70393e-17
-1.69845e-17
-1.68823e-17
-1.69336e-17
-1.71523e-17
-1.69936e-17
-1.7116e-17
-1.71826e-17
-1.70981e-17
-1.71593e-17
-1.7151e-17
-1.71226e-17
-1.71874e-17
-1.71153e-17
-1.70615e-17
-1.68327e-17
-1.70507e-17
-1.68751e-17
-1.69637e-17
-1.68794e-17
-1.70039e-17
-1.70469e-17
-1.70969e-17
-1.69936e-17
-1.71024e-17
-1.72929e-17
-1.7195e-17
-1.72343e-17
-1.70935e-17
-1.71379e-17
-1.71415e-17
-1.70736e-17
-1.69745e-17
-1.6846e-17
-1.70727e-17
-1.69163e-17
-1.69783e-17
-1.69354e-17
-1.71104e-17
-1.70124e-17
-1.70738e-17
-1.70773e-17
-1.71121e-17
-1.70877e-17
-1.7085e-17
-1.71143e-17
-1.70244e-17
-1.70972e-17
-1.70809e-17
-1.70051e-17
-1.69316e-17
-1.68957e-17
-1.70908e-17
-1.69715e-17
-1.69602e-17
-1.69473e-17
-1.70059e-17
-1.69646e-17
-1.71139e-17
-1.70608e-17
-1.71437e-17
-1.70282e-17
-1.69945e-17
-1.70619e-17
-1.68984e-17
-1.70823e-17
-1.69768e-17
-1.69386e-17
-1.69364e-17
-1.69017e-17
-1.70992e-17
-1.6913e-17
-1.69235e-17
-1.69343e-17
-1.69655e-17
-1.69143e-17
-1.71244e-17
-1.70262e-17
-1.70932e-17
-1.71252e-17
-1.70312e-17
-1.7082e-17
-1.70168e-17
-1.70757e-17
-1.69738e-17
-1.69566e-17
-1.69252e-17
-1.69489e-17
-1.70172e-17
-1.69293e-17
-1.69723e-17
-1.6947e-17
-1.68832e-17
-1.69201e-17
-1.70446e-17
-1.70192e-17
-1.71116e-17
-1.71357e-17
-1.69931e-17
-1.71005e-17
-1.7097e-17
-1.69854e-17
-1.69761e-17
-1.70212e-17
-1.69198e-17
-1.69366e-17
-1.70101e-17
-1.69385e-17
-1.68958e-17
-1.69803e-17
-1.69802e-17
-1.69466e-17
-1.7001e-17
-1.70421e-17
-1.70879e-17
-1.70833e-17
-1.7078e-17
-1.71339e-17
-1.69817e-17
-1.7009e-17
-1.69942e-17
-1.70209e-17
-1.69974e-17
-1.68926e-17
-1.68579e-17
-1.68743e-17
-1.68681e-17
-1.69049e-17
-1.71941e-17
-1.68917e-17
-1.68902e-17
-1.70196e-17
-1.70135e-17
-1.7006e-17
-1.71315e-17
-1.70876e-17
-1.68855e-17
-1.70269e-17
-1.70178e-17
-1.69261e-17
-1.7024e-17
-1.67547e-17
-1.68044e-17
-1.6912e-17
-1.69349e-17
-1.68546e-17
-1.71708e-17
-1.69271e-17
-1.69022e-17
-1.70138e-17
-1.69753e-17
-1.69322e-17
-1.71061e-17
-1.70765e-17
-1.69308e-17
-1.71057e-17
-1.70885e-17
-1.70492e-17
-1.70167e-17
-1.68556e-17
-1.69506e-17
-1.70926e-17
-1.70131e-17
-1.69896e-17
-1.69671e-17
-1.68865e-17
-1.69732e-17
-1.70327e-17
-1.69206e-17
-1.6943e-17
-1.70142e-17
-1.70122e-17
-1.69507e-17
-1.7047e-17
-1.70824e-17
-1.70321e-17
-1.69734e-17
-1.68838e-17
-1.69475e-17
-1.70837e-17
-1.69255e-17
-1.69838e-17
-1.69122e-17
-1.6868e-17
-1.69689e-17
-1.69586e-17
-1.6911e-17
-1.69762e-17
-1.69276e-17
-1.70712e-17
-1.70211e-17
-1.69995e-17
-1.69127e-17
-1.70163e-17
-1.69325e-17
-1.68207e-17
-1.68811e-17
-1.68548e-17
-1.69052e-17
-1.68686e-17
-1.6991e-17
-1.6844e-17
-1.69867e-17
-1.70034e-17
-1.68964e-17
-1.70141e-17
-1.69158e-17
-1.699e-17
-1.70396e-17
-1.7137e-17
-1.69673e-17
-1.69027e-17
-1.69511e-17
-1.67512e-17
-1.69829e-17
-1.67981e-17
-1.68823e-17
-1.68892e-17
-1.70819e-17
-1.69611e-17
-1.70101e-17
-1.69031e-17
-1.70373e-17
-1.70101e-17
-1.70857e-17
-1.69607e-17
-1.68951e-17
-1.70481e-17
-1.70328e-17
-1.70153e-17
-1.68669e-17
-1.70135e-17
-1.68176e-17
-1.70123e-17
-1.68106e-17
-1.69593e-17
-1.68046e-17
-1.69377e-17
-1.69678e-17
-1.69364e-17
-1.69138e-17
-1.70224e-17
-1.69971e-17
-1.7029e-17
-1.70498e-17
-1.69037e-17
-1.70475e-17
-1.69146e-17
-1.69656e-17
-1.69146e-17
-1.69869e-17
-1.68738e-17
-1.69307e-17
-1.68172e-17
-1.698e-17
-1.68722e-17
-1.68273e-17
-1.68751e-17
-1.67909e-17
-1.69103e-17
-1.69661e-17
-1.70054e-17
-1.69188e-17
-1.699e-17
-1.70429e-17
-1.69936e-17
-1.70031e-17
-1.69472e-17
-1.69449e-17
-1.68708e-17
-1.7015e-17
-1.68131e-17
-1.69659e-17
-1.67819e-17
-1.6961e-17
-1.68122e-17
-1.68796e-17
-1.67947e-17
-1.68722e-17
-1.68328e-17
-1.69406e-17
-1.69704e-17
-1.68817e-17
-1.69911e-17
-1.69711e-17
-1.69485e-17
-1.70084e-17
-1.69695e-17
-1.69347e-17
-1.68497e-17
-1.69644e-17
-1.67857e-17
-1.6961e-17
-1.68624e-17
-1.6995e-17
-1.66783e-17
-1.70363e-17
-1.68598e-17
-1.69504e-17
-1.68268e-17
-1.69416e-17
-1.69256e-17
-1.69059e-17
-1.70049e-17
-1.69762e-17
-1.68936e-17
-1.70555e-17
-1.69157e-17
-1.69945e-17
-1.68433e-17
-1.69106e-17
-1.67235e-17
-1.69752e-17
-1.69371e-17
-1.70551e-17
-1.68283e-17
-1.70984e-17
-1.68769e-17
-1.68179e-17
-1.68794e-17
-1.68348e-17
-1.68668e-17
-1.68578e-17
-1.69412e-17
-1.69382e-17
-1.6756e-17
-1.70168e-17
-1.68772e-17
-1.70028e-17
-1.68582e-17
-1.69336e-17
-1.68236e-17
-1.70319e-17
-1.67667e-17
-1.70591e-17
-1.69753e-17
-1.6901e-17
-1.68621e-17
-1.68233e-17
-1.69129e-17
-1.68375e-17
-1.69285e-17
-1.68289e-17
-1.68671e-17
-1.69514e-17
-1.67363e-17
-1.70885e-17
-1.6859e-17
-1.69991e-17
-1.68433e-17
-1.69413e-17
-1.67845e-17
-1.70202e-17
-1.68459e-17
-1.70012e-17
-1.68929e-17
-1.69559e-17
-1.6879e-17
-1.68372e-17
-1.69591e-17
-1.68195e-17
-1.68728e-17
-1.68171e-17
-1.6865e-17
-1.6997e-17
-1.68839e-17
-1.70283e-17
-1.68566e-17
-1.69199e-17
-1.68704e-17
-1.70065e-17
-1.66577e-17
-1.69564e-17
-1.68907e-17
-1.67923e-17
-1.67029e-17
-1.69499e-17
-1.69562e-17
-1.68725e-17
-1.69133e-17
-1.6888e-17
-1.69358e-17
-1.68304e-17
-1.69098e-17
-1.70152e-17
-1.69492e-17
-1.70288e-17
-1.68817e-17
-1.69796e-17
-1.69474e-17
-1.70335e-17
-1.67313e-17
-1.69782e-17
-1.6752e-17
-1.69807e-17
-1.67024e-17
-1.69067e-17
-1.67299e-17
-1.68396e-17
-1.692e-17
-1.6967e-17
-1.69114e-17
-1.67325e-17
-1.69043e-17
-1.69481e-17
-1.6842e-17
-1.69674e-17
-1.68019e-17
-1.70045e-17
-1.68261e-17
-1.69117e-17
-1.68516e-17
-1.68903e-17
-1.68243e-17
-1.69886e-17
-1.68656e-17
-1.68604e-17
-1.6841e-17
-1.68644e-17
-1.68515e-17
-1.68545e-17
-1.6864e-17
-1.68175e-17
-1.68753e-17
-1.69277e-17
-1.68042e-17
-1.68688e-17
-1.68653e-17
-1.69557e-17
-1.68168e-17
-1.69218e-17
-1.67991e-17
-1.69914e-17
-1.68079e-17
-1.68918e-17
-1.68701e-17
-1.69715e-17
-1.68849e-17
-1.68048e-17
-1.6906e-17
-1.68252e-17
-1.68803e-17
-1.68438e-17
-1.69076e-17
-1.694e-17
-1.6862e-17
-1.69648e-17
-1.69213e-17
-1.69343e-17
-1.68507e-17
-1.69942e-17
-1.67184e-17
-1.69139e-17
-1.67443e-17
-1.68946e-17
-1.67506e-17
-1.68718e-17
-1.69987e-17
-1.67471e-17
-1.69116e-17
-1.67788e-17
-1.68124e-17
-1.68071e-17
-1.69934e-17
-1.69288e-17
-1.68907e-17
-1.69746e-17
-1.69712e-17
-1.69257e-17
-1.68289e-17
-1.69632e-17
-1.68009e-17
-1.68962e-17
-1.67315e-17
-1.68955e-17
-1.67926e-17
-1.68316e-17
-1.68632e-17
-1.67816e-17
-1.68797e-17
-1.68136e-17
-1.67468e-17
-1.68375e-17
-1.69316e-17
-1.69335e-17
-1.69478e-17
-1.69348e-17
-1.69084e-17
-1.68995e-17
-1.68942e-17
-1.70208e-17
-1.67791e-17
-1.68951e-17
-1.67803e-17
-1.68844e-17
-1.67923e-17
-1.68514e-17
-1.6828e-17
-1.67905e-17
-1.68853e-17
-1.68414e-17
-1.6781e-17
-1.68609e-17
-1.68798e-17
-1.69251e-17
-1.69121e-17
-1.69023e-17
-1.6916e-17
-1.68419e-17
-1.68289e-17
-1.69707e-17
-1.68399e-17
-1.70193e-17
-1.68098e-17
-1.6922e-17
-1.68348e-17
-1.68105e-17
-1.68735e-17
-1.67688e-17
-1.68979e-17
-1.68724e-17
-1.67442e-17
-1.6879e-17
-1.67932e-17
-1.689e-17
-1.68673e-17
-1.68727e-17
-1.68664e-17
-1.68586e-17
-1.6829e-17
-1.69504e-17
-1.68739e-17
-1.70028e-17
-1.67999e-17
-1.6887e-17
-1.68014e-17
-1.68569e-17
-1.68122e-17
-1.6745e-17
-1.69175e-17
-1.68524e-17
-1.68136e-17
-1.68714e-17
-1.68681e-17
-1.68835e-17
-1.69618e-17
-1.6884e-17
-1.68669e-17
-1.69033e-17
-1.6874e-17
-1.68586e-17
-1.68719e-17
-1.68783e-17
-1.66895e-17
-1.69208e-17
-1.68559e-17
-1.6772e-17
-1.68442e-17
-1.67739e-17
-1.69088e-17
-1.68812e-17
-1.68271e-17
-1.68533e-17
-1.69108e-17
-1.68695e-17
-1.69552e-17
-1.68995e-17
-1.68998e-17
-1.70125e-17
-1.68482e-17
-1.68698e-17
-1.68342e-17
-1.697e-17
-1.6724e-17
-1.69043e-17
-1.68297e-17
-1.6884e-17
-1.69542e-17
-1.67729e-17
-1.68471e-17
-1.6868e-17
-1.67543e-17
-1.69189e-17
-1.69339e-17
-1.68495e-17
-1.69102e-17
-1.68987e-17
-1.69504e-17
-1.70069e-17
-1.67443e-17
-1.69769e-17
-1.67515e-17
-1.68452e-17
-1.67632e-17
-1.69165e-17
-1.67345e-17
-1.68693e-17
-1.68363e-17
-1.67505e-17
-1.6785e-17
-1.68259e-17
-1.68266e-17
-1.68778e-17
-1.69325e-17
-1.6856e-17
-1.69116e-17
-1.68496e-17
-1.68742e-17
-1.695e-17
-1.67889e-17
-1.69526e-17
-1.67876e-17
-1.68796e-17
-1.66273e-17
-1.69557e-17
-1.68027e-17
-1.68099e-17
-1.68348e-17
-1.67952e-17
-1.68278e-17
-1.67628e-17
-1.68587e-17
-1.67944e-17
-1.69082e-17
-1.68565e-17
-1.6861e-17
-1.68168e-17
-1.69302e-17
-1.69194e-17
-1.67432e-17
-1.69756e-17
-1.6849e-17
-1.69368e-17
-1.66706e-17
-1.68895e-17
-1.67549e-17
-1.68507e-17
-1.68543e-17
-1.67437e-17
-1.68548e-17
-1.6807e-17
-1.68599e-17
-1.67596e-17
-1.68432e-17
-1.68587e-17
-1.68854e-17
-1.679e-17
-1.69176e-17
-1.6985e-17
-1.6804e-17
-1.69085e-17
-1.68247e-17
-1.6956e-17
-1.68472e-17
-1.6926e-17
-1.67371e-17
-1.69691e-17
-1.67862e-17
-1.67634e-17
-1.68682e-17
-1.68069e-17
-1.68806e-17
-1.6864e-17
-1.68278e-17
-1.68578e-17
-1.68108e-17
-1.67921e-17
-1.68606e-17
-1.69861e-17
-1.67816e-17
-1.69032e-17
-1.67572e-17
-1.69719e-17
-1.688e-17
-1.68431e-17
-1.67719e-17
-1.69061e-17
-1.67755e-17
-1.6763e-17
-1.67965e-17
-1.68229e-17
-1.67961e-17
-1.68542e-17
-1.68274e-17
-1.68294e-17
-1.68199e-17
-1.68346e-17
-1.68646e-17
-1.69254e-17
-1.68113e-17
-1.69291e-17
-1.68424e-17
-1.69546e-17
-1.68952e-17
-1.68292e-17
-1.67869e-17
-1.69143e-17
-1.68436e-17
-1.67107e-17
-1.68495e-17
-1.68159e-17
-1.68004e-17
-1.69139e-17
-1.69066e-17
-1.6856e-17
-1.68462e-17
-1.68627e-17
-1.69187e-17
-1.68952e-17
-1.67751e-17
-1.68176e-17
-1.67545e-17
-1.69483e-17
-1.68462e-17
-1.68472e-17
-1.67817e-17
-1.6945e-17
-1.68492e-17
-1.68984e-17
-1.68862e-17
-1.69039e-17
-1.68513e-17
-1.69067e-17
-1.68638e-17
-1.69291e-17
-1.68348e-17
-1.68399e-17
-1.67299e-17
-1.68419e-17
-1.67732e-17
-1.67478e-17
-1.67613e-17
-1.69256e-17
-1.68911e-17
-1.68834e-17
-1.68108e-17
-1.68741e-17
-1.68579e-17
-1.68589e-17
-1.68454e-17
-1.67404e-17
-1.67012e-17
-1.68053e-17
-1.67572e-17
-1.69097e-17
-1.68463e-17
-1.67505e-17
-1.6798e-17
-1.6627e-17
-1.68193e-17
-1.66799e-17
-1.6798e-17
-1.67039e-17
-1.69462e-17
-1.66065e-17
-1.67057e-17
-1.70209e-17
-1.66384e-17
-1.66883e-17
-1.68839e-17
-1.65296e-17
-1.67676e-17
-1.66977e-17
-1.67953e-17
-1.67346e-17
-1.69225e-17
-1.67725e-17
-1.67425e-17
-1.66791e-17
-1.69071e-17
-1.6791e-17
-1.66848e-17
-1.67092e-17
-1.68335e-17
-1.67596e-17
-1.674e-17
-1.67973e-17
-1.67247e-17
-1.66836e-17
-1.67002e-17
-1.66446e-17
-1.67482e-17
-1.6718e-17
-1.68216e-17
-1.67663e-17
-1.65897e-17
-1.65849e-17
-1.67463e-17
-1.69061e-17
-1.68099e-17
-1.65293e-17
-1.66712e-17
-1.66818e-17
-1.6937e-17
-1.66986e-17
-1.6441e-17
-1.69571e-17
-1.6716e-17
-1.67873e-17
-1.66667e-17
-1.64862e-17
-1.6891e-17
-1.67535e-17
-1.68134e-17
-1.67763e-17
-1.68946e-17
-1.66082e-17
-1.6943e-17
-1.67866e-17
-1.68917e-17
-1.67001e-17
-1.68421e-17
-1.65391e-17
-1.69218e-17
-1.67217e-17
-1.68854e-17
-1.66982e-17
-1.6862e-17
-1.66285e-17
-1.67006e-17
-1.67987e-17
-1.67893e-17
-1.68886e-17
-1.67663e-17
-1.68586e-17
-1.6796e-17
-1.67939e-17
-1.66316e-17
-1.68778e-17
-1.67615e-17
-1.68843e-17
-1.69021e-17
-1.67836e-17
-1.69057e-17
-1.67444e-17
-1.67454e-17
-1.66317e-17
-1.68697e-17
-1.67065e-17
-1.68069e-17
-1.67129e-17
-1.67922e-17
-1.6847e-17
-1.66625e-17
-1.66281e-17
-1.67049e-17
-1.66542e-17
-1.67882e-17
-1.66904e-17
-1.68354e-17
-1.66205e-17
-1.67669e-17
-1.6732e-17
-1.67864e-17
-1.67702e-17
-1.67894e-17
-1.66305e-17
-1.68673e-17
-1.68383e-17
-1.6855e-17
-1.68476e-17
-1.68866e-17
-1.6791e-17
-1.6843e-17
-1.685e-17
-1.68831e-17
-1.66864e-17
-1.67596e-17
-1.67686e-17
-1.67925e-17
-1.6796e-17
-1.6887e-17
-1.68427e-17
-1.68177e-17
-1.6869e-17
-1.69028e-17
-1.67341e-17
-1.67982e-17
-1.68042e-17
-1.67642e-17
-1.68227e-17
-1.67468e-17
-1.68672e-17
-1.68792e-17
-1.68889e-17
-1.6842e-17
-1.67695e-17
-1.68278e-17
-1.66997e-17
-1.68028e-17
-1.68317e-17
-1.67364e-17
-1.68309e-17
-1.68598e-17
-1.68474e-17
-1.68588e-17
-1.67513e-17
-1.67946e-17
-1.68422e-17
-1.67825e-17
-1.67526e-17
-1.67954e-17
-1.69309e-17
-1.68273e-17
-1.68837e-17
-1.68427e-17
-1.68351e-17
-1.66297e-17
-1.69768e-17
-1.67379e-17
-1.67357e-17
-1.6841e-17
-1.6879e-17
-1.68425e-17
-1.68848e-17
-1.68851e-17
-1.67544e-17
-1.66276e-17
-1.68369e-17
-1.66939e-17
-1.66453e-17
-1.67995e-17
-1.68385e-17
-1.68689e-17
-1.68358e-17
-1.6836e-17
-1.66815e-17
-1.67629e-17
-1.67318e-17
-1.67388e-17
-1.67249e-17
-1.67851e-17
-1.67778e-17
-1.68105e-17
-1.68301e-17
-1.68514e-17
-1.66724e-17
-1.67336e-17
-1.67181e-17
-1.673e-17
-1.68175e-17
-1.67712e-17
-1.67592e-17
-1.68376e-17
-1.68033e-17
-1.69152e-17
-1.66273e-17
-1.67369e-17
-1.67911e-17
-1.67392e-17
-1.67878e-17
-1.67195e-17
-1.67783e-17
-1.68201e-17
-1.68537e-17
-1.69262e-17
-1.67983e-17
-1.67319e-17
-1.68399e-17
-1.66926e-17
-1.68621e-17
-1.66815e-17
-1.67773e-17
-1.68399e-17
-1.68218e-17
-1.68442e-17
-1.67101e-17
-1.68553e-17
-1.67927e-17
-1.67565e-17
-1.67529e-17
-1.6768e-17
-1.67573e-17
-1.66822e-17
-1.66972e-17
-1.6763e-17
-1.68129e-17
-1.6905e-17
-1.69617e-17
-1.70205e-17
-1.69666e-17
-1.68554e-17
-1.69092e-17
-1.67423e-17
-1.68501e-17
-1.68298e-17
-1.67969e-17
-1.68291e-17
-1.67742e-17
-1.67234e-17
-1.66846e-17
-1.67142e-17
-1.66371e-17
-1.67213e-17
-1.6801e-17
-1.682e-17
-1.68716e-17
-1.66999e-17
-1.6627e-17
-1.65986e-17
-1.66868e-17
-1.65361e-17
-1.64534e-17
-1.65721e-17
-1.6654e-17
-1.66987e-17
-1.67582e-17
-1.66763e-17
-1.66992e-17
-1.69165e-17
-1.67862e-17
-1.64831e-17
-1.65492e-17
-1.64947e-17
-1.65107e-17
-1.66442e-17
-1.65645e-17
-1.65852e-17
-1.6626e-17
-1.65694e-17
-1.67007e-17
-1.66677e-17
-1.66425e-17
-1.66791e-17
-1.68463e-17
-1.68505e-17
-1.67166e-17
-1.67518e-17
-1.67555e-17
-1.67656e-17
-1.67285e-17
-1.67629e-17
-1.67464e-17
-1.67704e-17
-1.68316e-17
-1.68436e-17
-1.693e-17
-1.67296e-17
-1.67755e-17
-1.67333e-17
-1.67666e-17
-1.67518e-17
-1.67237e-17
-1.67869e-17
-1.67521e-17
-1.67145e-17
-1.66818e-17
-1.67383e-17
-1.66881e-17
-1.67245e-17
-1.67805e-17
-1.67812e-17
-1.66287e-17
-1.67189e-17
-1.66928e-17
-1.68042e-17
-1.67038e-17
-1.65613e-17
-1.66976e-17
-1.68027e-17
-1.68134e-17
-1.67441e-17
-1.67292e-17
-1.68351e-17
-1.67653e-17
-1.67112e-17
-1.67319e-17
-1.67477e-17
-1.6874e-17
-1.6537e-17
-1.66233e-17
-1.65908e-17
-1.65872e-17
-1.66665e-17
-1.66215e-17
-1.65718e-17
-1.65962e-17
-1.66595e-17
-1.67916e-17
-1.66623e-17
-1.65655e-17
-1.6513e-17
-1.66905e-17
-1.66732e-17
-1.6606e-17
-1.66169e-17
-1.662e-17
-1.66229e-17
-1.66897e-17
-1.66491e-17
-1.66238e-17
-1.66943e-17
-1.67284e-17
-1.6693e-17
-1.67182e-17
-1.67685e-17
-1.6812e-17
-1.67655e-17
-1.67754e-17
-1.67672e-17
-1.68269e-17
-1.68472e-17
-1.67293e-17
-1.67095e-17
-1.66819e-17
-1.67232e-17
-1.68045e-17
-1.68091e-17
-1.67263e-17
-1.67361e-17
-1.67075e-17
-1.67239e-17
-1.67439e-17
-1.6702e-17
-1.67229e-17
-1.67588e-17
-1.68201e-17
-1.67439e-17
-1.66703e-17
-1.67585e-17
-1.67902e-17
-1.66801e-17
-1.67817e-17
-1.68061e-17
-1.675e-17
-1.66282e-17
-1.68246e-17
-1.69101e-17
-1.66961e-17
-1.67453e-17
-1.67263e-17
-1.67202e-17
-1.6799e-17
-1.6814e-17
-1.68996e-17
-1.68274e-17
-1.67468e-17
-1.67934e-17
-1.67709e-17
-1.6727e-17
-1.66618e-17
-1.66519e-17
-1.67677e-17
-1.6763e-17
-1.67538e-17
-1.66416e-17
-1.66457e-17
-1.66635e-17
-1.67098e-17
-1.68503e-17
-1.68257e-17
-1.6636e-17
-1.66908e-17
-1.65536e-17
-1.66931e-17
-1.67601e-17
-1.67424e-17
-1.66932e-17
-1.6592e-17
-1.66063e-17
-1.66469e-17
-1.66515e-17
-1.66262e-17
-1.67243e-17
-1.67202e-17
-1.67577e-17
-1.66689e-17
-1.66764e-17
-1.67858e-17
-1.67661e-17
-1.67441e-17
-1.66811e-17
-1.67209e-17
-1.67418e-17
-1.67567e-17
-1.67944e-17
-1.68001e-17
-1.66982e-17
-1.68037e-17
-1.67465e-17
-1.67547e-17
-1.67668e-17
-1.67841e-17
-1.68226e-17
-1.66859e-17
-1.65447e-17
-1.66307e-17
-1.66826e-17
-1.66506e-17
-1.67249e-17
-1.68302e-17
-1.66642e-17
-1.66361e-17
-1.66457e-17
-1.67747e-17
-1.67121e-17
-1.67138e-17
-1.67051e-17
-1.6699e-17
-1.67962e-17
-1.68817e-17
-1.67007e-17
-1.65978e-17
-1.66556e-17
-1.67598e-17
-1.6714e-17
-1.66806e-17
-1.66638e-17
-1.67064e-17
-1.65983e-17
-1.66338e-17
-1.67236e-17
-1.67831e-17
-1.68109e-17
-1.68001e-17
-1.68018e-17
-1.67547e-17
-1.67212e-17
-1.6683e-17
-1.67112e-17
-1.67744e-17
-1.68835e-17
-1.68437e-17
-1.66591e-17
-1.67185e-17
-1.68327e-17
-1.66167e-17
-1.66646e-17
-1.66318e-17
-1.64549e-17
-1.6523e-17
-1.66419e-17
-1.6558e-17
-1.65956e-17
-1.66261e-17
-1.6572e-17
-1.66239e-17
-1.64933e-17
-1.66244e-17
-1.6669e-17
-1.66992e-17
-1.67578e-17
-1.68449e-17
-1.67237e-17
-1.6677e-17
-1.67101e-17
-1.66574e-17
-1.66847e-17
-1.67246e-17
-1.67243e-17
-1.67068e-17
-1.67696e-17
-1.6737e-17
-1.67546e-17
-1.67255e-17
-1.67304e-17
-1.67296e-17
-1.67394e-17
-1.67001e-17
-1.67912e-17
-1.6786e-17
-1.67616e-17
-1.64677e-17
-1.65657e-17
-1.6645e-17
-1.65752e-17
-1.66544e-17
-1.68137e-17
-1.66021e-17
-1.65155e-17
-1.65147e-17
-1.65292e-17
-1.66267e-17
-1.67176e-17
-1.67604e-17
-1.66935e-17
-1.66711e-17
-1.66502e-17
-1.66684e-17
-1.67625e-17
-1.68212e-17
-1.69236e-17
-1.67856e-17
-1.67154e-17
-1.66609e-17
-1.66554e-17
-1.67118e-17
-1.66842e-17
-1.66854e-17
-1.67382e-17
-1.67544e-17
-1.67858e-17
-1.67366e-17
-1.67774e-17
-1.67716e-17
-1.68112e-17
-1.67599e-17
-1.66762e-17
-1.66589e-17
-1.66411e-17
-1.66982e-17
-1.65992e-17
-1.66998e-17
-1.66587e-17
-1.66305e-17
-1.66268e-17
-1.66224e-17
-1.65999e-17
-1.65644e-17
-1.64743e-17
-1.6473e-17
-1.65749e-17
-1.66172e-17
-1.65453e-17
-1.65148e-17
-1.66573e-17
-1.66691e-17
-1.66105e-17
-1.6628e-17
-1.66899e-17
-1.6805e-17
-1.67132e-17
-1.6627e-17
-1.66129e-17
-1.66838e-17
-1.66748e-17
-1.67063e-17
-1.66742e-17
-1.67335e-17
-1.67261e-17
-1.66657e-17
-1.66677e-17
-1.67499e-17
-1.67514e-17
-1.67444e-17
-1.67492e-17
-1.67747e-17
-1.67974e-17
-1.67056e-17
-1.67153e-17
-1.65933e-17
-1.65744e-17
-1.65433e-17
-1.66583e-17
-1.66408e-17
-1.66284e-17
-1.65897e-17
-1.66134e-17
-1.66491e-17
-1.66974e-17
-1.6648e-17
-1.65922e-17
-1.65942e-17
-1.66164e-17
-1.65809e-17
-1.66132e-17
-1.66721e-17
-1.66591e-17
-1.66843e-17
-1.68313e-17
-1.67272e-17
-1.66108e-17
-1.66415e-17
-1.66985e-17
-1.66232e-17
-1.65687e-17
-1.66551e-17
-1.66926e-17
-1.67416e-17
-1.68502e-17
-1.67297e-17
-1.6725e-17
-1.66851e-17
-1.67215e-17
-1.6765e-17
-1.68272e-17
-1.68054e-17
-1.68074e-17
-1.67687e-17
-1.66744e-17
-1.66559e-17
-1.66449e-17
-1.66107e-17
-1.6557e-17
-1.66064e-17
-1.66246e-17
-1.6641e-17
-1.66919e-17
-1.68253e-17
-1.67621e-17
-1.66335e-17
-1.65874e-17
-1.64983e-17
-1.6554e-17
-1.65297e-17
-1.66394e-17
-1.66883e-17
-1.66878e-17
-1.66662e-17
-1.6664e-17
-1.66215e-17
-1.66183e-17
-1.66679e-17
-1.65856e-17
-1.66768e-17
-1.67286e-17
-1.66988e-17
-1.67282e-17
-1.67782e-17
-1.67422e-17
-1.66865e-17
-1.66417e-17
-1.67494e-17
-1.67286e-17
-1.67326e-17
-1.67475e-17
-1.67367e-17
-1.66988e-17
-1.66505e-17
-1.66615e-17
-1.66903e-17
-1.66089e-17
-1.65331e-17
-1.65877e-17
-1.66719e-17
-1.66091e-17
-1.65981e-17
-1.66387e-17
-1.6633e-17
-1.66823e-17
-1.6592e-17
-1.65922e-17
-1.6553e-17
-1.66115e-17
-1.67817e-17
-1.67144e-17
-1.66929e-17
-1.6655e-17
-1.66067e-17
-1.66346e-17
-1.67266e-17
-1.67047e-17
-1.67358e-17
-1.66734e-17
-1.66131e-17
-1.68104e-17
-1.67593e-17
-1.66056e-17
-1.66437e-17
-1.67746e-17
-1.67648e-17
-1.67034e-17
-1.67448e-17
-1.67546e-17
-1.66376e-17
-1.66238e-17
-1.66275e-17
-1.6693e-17
-1.66881e-17
-1.66831e-17
-1.66804e-17
-1.66808e-17
-1.66683e-17
-1.6667e-17
-1.6717e-17
-1.67102e-17
-1.66728e-17
-1.66863e-17
-1.67047e-17
-1.67986e-17
-1.68823e-17
-1.67648e-17
-1.67098e-17
-1.672e-17
-1.6744e-17
-1.66999e-17
-1.67343e-17
-1.67793e-17
-1.67501e-17
-1.68227e-17
-1.6818e-17
-1.68075e-17
-1.67478e-17
-1.67628e-17
-1.6763e-17
-1.68026e-17
-1.67969e-17
-1.67629e-17
-1.67423e-17
-1.67827e-17
-1.67731e-17
-1.66437e-17
-1.66376e-17
-1.67193e-17
-1.67585e-17
-1.6682e-17
-1.67428e-17
-1.67255e-17
-1.67108e-17
-1.67133e-17
-1.67588e-17
-1.66843e-17
-1.66107e-17
-1.66777e-17
-1.67547e-17
-1.67234e-17
-1.66566e-17
-1.65866e-17
-1.65923e-17
-1.66169e-17
-1.66982e-17
-1.66566e-17
-1.67546e-17
-1.67412e-17
-1.67317e-17
-1.67421e-17
-1.67099e-17
-1.67611e-17
-1.6822e-17
-1.67777e-17
-1.67405e-17
-1.66936e-17
-1.67021e-17
-1.66495e-17
-1.66803e-17
-1.67598e-17
-1.66392e-17
-1.66854e-17
-1.66551e-17
-1.67216e-17
-1.67853e-17
-1.67138e-17
-1.67193e-17
-1.67431e-17
-1.66634e-17
-1.67142e-17
-1.66923e-17
-1.66584e-17
-1.67177e-17
-1.67842e-17
-1.67713e-17
-1.68153e-17
-1.6831e-17
-1.67861e-17
-1.67681e-17
-1.6711e-17
-1.66297e-17
-1.67234e-17
-1.67584e-17
-1.67955e-17
-1.67893e-17
-1.67957e-17
-1.67472e-17
-1.68138e-17
-1.68189e-17
-1.68157e-17
-1.68394e-17
-1.67628e-17
-1.67071e-17
-1.67252e-17
-1.67095e-17
-1.67581e-17
-1.67904e-17
-1.66002e-17
-1.66332e-17
-1.67409e-17
-1.67277e-17
-1.6733e-17
-1.66336e-17
-1.66495e-17
-1.66087e-17
-1.66557e-17
-1.66726e-17
-1.66945e-17
-1.6667e-17
-1.66047e-17
-1.65945e-17
-1.66534e-17
-1.6644e-17
-1.67177e-17
-1.66535e-17
-1.65166e-17
-1.66251e-17
-1.66948e-17
-1.67521e-17
-1.67286e-17
-1.67072e-17
-1.66944e-17
-1.67293e-17
-1.66429e-17
-1.6669e-17
-1.66509e-17
-1.66496e-17
-1.6655e-17
-1.66487e-17
-1.66429e-17
-1.66585e-17
-1.66363e-17
-1.66758e-17
-1.67066e-17
-1.67691e-17
-1.67449e-17
-1.67745e-17
-1.6713e-17
-1.66803e-17
-1.66186e-17
-1.66024e-17
-1.66958e-17
-1.68151e-17
-1.68069e-17
-1.67393e-17
-1.67349e-17
-1.67279e-17
-1.6679e-17
-1.67338e-17
-1.67956e-17
-1.68155e-17
-1.67129e-17
-1.67554e-17
-1.68142e-17
-1.67892e-17
-1.67578e-17
-1.67648e-17
-1.67687e-17
-1.67798e-17
-1.67978e-17
-1.67462e-17
-1.67737e-17
-1.67747e-17
-1.68e-17
-1.68371e-17
-1.6803e-17
-1.66779e-17
-1.67892e-17
-1.68229e-17
-1.67395e-17
-1.67513e-17
-1.68086e-17
-1.67491e-17
-1.67785e-17
-1.69036e-17
-1.68619e-17
-1.67402e-17
-1.6781e-17
-1.6744e-17
-1.67042e-17
-1.67891e-17
-1.67844e-17
-1.68149e-17
-1.67267e-17
-1.66913e-17
-1.67091e-17
-1.67269e-17
-1.6676e-17
-1.66594e-17
-1.65992e-17
-1.66805e-17
-1.66791e-17
-1.66772e-17
-1.67649e-17
-1.6689e-17
-1.66741e-17
-1.67112e-17
-1.67316e-17
-1.67293e-17
-1.67441e-17
-1.66606e-17
-1.66651e-17
-1.66445e-17
-1.66069e-17
-1.66656e-17
-1.66951e-17
-1.67003e-17
-1.66832e-17
-1.66582e-17
-1.66796e-17
-1.66291e-17
-1.66659e-17
-1.66513e-17
-1.66567e-17
-1.67159e-17
-1.6698e-17
-1.67573e-17
-1.67853e-17
-1.68211e-17
-1.68731e-17
-1.68493e-17
-1.68423e-17
-1.68766e-17
-1.68424e-17
-1.68288e-17
-1.68087e-17
-1.68234e-17
-1.68665e-17
-1.68688e-17
-1.67956e-17
-1.6757e-17
-1.67966e-17
-1.677e-17
-1.68046e-17
-1.69021e-17
-1.67104e-17
-1.66604e-17
-1.6694e-17
-1.66778e-17
-1.67554e-17
-1.68149e-17
-1.67115e-17
-1.67273e-17
-1.67173e-17
-1.67646e-17
-1.6784e-17
-1.68324e-17
-1.69085e-17
-1.67782e-17
-1.6767e-17
-1.68032e-17
-1.68379e-17
-1.67636e-17
-1.67591e-17
-1.67704e-17
-1.67503e-17
-1.67074e-17
-1.6751e-17
-1.67645e-17
-1.67707e-17
-1.67444e-17
-1.67219e-17
-1.66926e-17
-1.66944e-17
-1.67475e-17
-1.67782e-17
-1.68013e-17
-1.68321e-17
-1.67281e-17
-1.66863e-17
-1.66298e-17
-1.66714e-17
-1.67761e-17
-1.67007e-17
-1.6734e-17
-1.67491e-17
-1.67464e-17
-1.67409e-17
-1.6721e-17
-1.66747e-17
-1.67311e-17
-1.67605e-17
-1.67481e-17
-1.66989e-17
-1.67555e-17
-1.67959e-17
-1.68261e-17
-1.6875e-17
-1.68478e-17
-1.68524e-17
-1.68458e-17
-1.68923e-17
-1.68395e-17
-1.67799e-17
-1.68029e-17
-1.68175e-17
-1.68238e-17
-1.6808e-17
-1.67889e-17
-1.67586e-17
-1.67746e-17
-1.6772e-17
-1.67635e-17
-1.67603e-17
-1.6767e-17
-1.67603e-17
-1.67414e-17
-1.68637e-17
-1.68866e-17
-1.68212e-17
-1.68012e-17
-1.68e-17
-1.6776e-17
-1.67031e-17
-1.67042e-17
-1.67842e-17
-1.68394e-17
-1.68214e-17
-1.68559e-17
-1.68222e-17
-1.67345e-17
-1.67404e-17
-1.67061e-17
-1.67226e-17
-1.67163e-17
-1.67222e-17
-1.66926e-17
-1.67071e-17
-1.67648e-17
-1.68246e-17
-1.6781e-17
-1.67753e-17
-1.6813e-17
-1.67975e-17
-1.67774e-17
-1.67752e-17
-1.67768e-17
-1.67732e-17
-1.67567e-17
-1.67167e-17
-1.67654e-17
-1.67957e-17
-1.68607e-17
-1.69556e-17
-1.68015e-17
-1.67951e-17
-1.6794e-17
-1.67792e-17
-1.67518e-17
-1.68276e-17
-1.68091e-17
-1.67992e-17
-1.68125e-17
-1.68594e-17
-1.68208e-17
-1.68036e-17
-1.68054e-17
-1.67968e-17
-1.67717e-17
-1.67501e-17
-1.68052e-17
-1.67625e-17
-1.67939e-17
-1.67573e-17
-1.67948e-17
-1.67592e-17
-1.67065e-17
-1.67449e-17
-1.68503e-17
-1.68232e-17
-1.68238e-17
-1.68448e-17
-1.67613e-17
-1.68106e-17
-1.68707e-17
-1.68243e-17
-1.68007e-17
-1.67962e-17
-1.68186e-17
-1.68601e-17
-1.67869e-17
-1.67186e-17
-1.67571e-17
-1.67928e-17
-1.68335e-17
-1.6799e-17
-1.679e-17
-1.67898e-17
-1.67753e-17
-1.67383e-17
-1.67641e-17
-1.67697e-17
-1.67285e-17
-1.66515e-17
-1.67321e-17
-1.67641e-17
-1.67663e-17
-1.67745e-17
-1.68908e-17
-1.67921e-17
-1.6779e-17
-1.67507e-17
-1.67932e-17
-1.68018e-17
-1.67946e-17
-1.67868e-17
-1.67834e-17
-1.67872e-17
-1.67913e-17
-1.68057e-17
-1.68415e-17
-1.67492e-17
-1.66361e-17
-1.67548e-17
-1.684e-17
-1.6771e-17
-1.66938e-17
-1.67359e-17
-1.67595e-17
-1.67665e-17
-1.67519e-17
-1.67175e-17
-1.67493e-17
-1.67631e-17
-1.67634e-17
-1.67477e-17
-1.6708e-17
-1.67403e-17
-1.67576e-17
-1.6818e-17
-1.68152e-17
-1.68015e-17
-1.67982e-17
-1.67984e-17
-1.67915e-17
-1.67885e-17
-1.67847e-17
-1.67763e-17
-1.67669e-17
-1.67596e-17
-1.67154e-17
-1.6655e-17
-1.68262e-17
-1.67308e-17
-1.67364e-17
-1.67525e-17
-1.67444e-17
-1.67094e-17
-1.67506e-17
-1.6764e-17
-1.67459e-17
-1.67269e-17
-1.6814e-17
-1.68343e-17
-1.67914e-17
-1.67663e-17
-1.67304e-17
-1.67593e-17
-1.67973e-17
-1.68502e-17
-1.6752e-17
-1.67271e-17
-1.68214e-17
-1.67985e-17
-1.67658e-17
-1.67274e-17
-1.67975e-17
-1.68554e-17
-1.67879e-17
-1.67152e-17
-1.67595e-17
-1.6781e-17
-1.67827e-17
-1.68292e-17
-1.68082e-17
-1.68398e-17
-1.68477e-17
-1.67999e-17
-1.67585e-17
-1.68791e-17
-1.68086e-17
-1.6757e-17
-1.67594e-17
-1.67557e-17
-1.67416e-17
-1.67144e-17
-1.67225e-17
-1.66879e-17
-1.66873e-17
-1.6731e-17
-1.67346e-17
-1.68203e-17
-1.67905e-17
-1.67925e-17
-1.68035e-17
-1.68195e-17
-1.69136e-17
-1.69729e-17
-1.68366e-17
-1.67525e-17
-1.66781e-17
-1.66808e-17
-1.67286e-17
-1.67016e-17
-1.66608e-17
-1.68261e-17
-1.67469e-17
-1.67637e-17
-1.6724e-17
-1.68095e-17
-1.6823e-17
-1.67751e-17
-1.67181e-17
-1.67597e-17
-1.68014e-17
-1.68481e-17
-1.6813e-17
-1.67946e-17
-1.68085e-17
-1.67919e-17
-1.67764e-17
-1.68551e-17
-1.66914e-17
-1.67139e-17
-1.67802e-17
-1.68708e-17
-1.67313e-17
-1.67482e-17
-1.68063e-17
-1.67584e-17
-1.67337e-17
-1.67268e-17
-1.67402e-17
-1.67625e-17
-1.67316e-17
-1.67315e-17
-1.67496e-17
-1.66971e-17
-1.66963e-17
-1.66564e-17
-1.67158e-17
-1.67841e-17
-1.68095e-17
-1.68067e-17
-1.67342e-17
-1.66739e-17