/*--------------------------------*- C++ -*----------------------------------*\
  =========                 |
  \\      /  F ield         | OpenFOAM: The Open Source CFD Toolbox
   \\    /   O peration     | Website:  https://openfoam.org
    \\  /    A nd           | Version:  7
     \\/     M anipulation  |
\*---------------------------------------------------------------------------*/
FoamFile
{
    version     2.0;
    format      ascii;
    class       volScalarField;
    location    "40000";
    object      nut;
}
// * * * * * * * * * * * * * * * * * * * * * * * * * * * * * * * * * * * * * //

dimensions      [0 2 -1 0 0 0 0];

internalField   nonuniform List<scalar> 
4783
(
1.86017e-13
1.85737e-13
1.85477e-13
1.85232e-13
1.85e-13
1.84782e-13
1.84575e-13
1.84381e-13
1.84199e-13
1.84028e-13
1.83869e-13
1.83721e-13
1.83583e-13
1.83457e-13
1.83342e-13
1.83237e-13
1.83144e-13
1.8306e-13
1.82988e-13
1.82926e-13
1.82875e-13
1.82835e-13
1.86507e-13
1.86236e-13
1.85978e-13
1.85733e-13
1.855e-13
1.8528e-13
1.85073e-13
1.84878e-13
1.84695e-13
1.84523e-13
1.84364e-13
1.84215e-13
1.84077e-13
1.83951e-13
1.83835e-13
1.83731e-13
1.83637e-13
1.83554e-13
1.83481e-13
1.83419e-13
1.83368e-13
1.83328e-13
1.87019e-13
1.86747e-13
1.86489e-13
1.86244e-13
1.86011e-13
1.8579e-13
1.85582e-13
1.85386e-13
1.85202e-13
1.8503e-13
1.8487e-13
1.84721e-13
1.84583e-13
1.84456e-13
1.84341e-13
1.84236e-13
1.84142e-13
1.84059e-13
1.83986e-13
1.83924e-13
1.83873e-13
1.83834e-13
1.87546e-13
1.8727e-13
1.87011e-13
1.86765e-13
1.86531e-13
1.86309e-13
1.86101e-13
1.85904e-13
1.85719e-13
1.85547e-13
1.85386e-13
1.85236e-13
1.85098e-13
1.84971e-13
1.84855e-13
1.8475e-13
1.84656e-13
1.84573e-13
1.84501e-13
1.84439e-13
1.84388e-13
1.84348e-13
1.88084e-13
1.87804e-13
1.87543e-13
1.87295e-13
1.8706e-13
1.86837e-13
1.86628e-13
1.8643e-13
1.86245e-13
1.86072e-13
1.8591e-13
1.8576e-13
1.85622e-13
1.85494e-13
1.85378e-13
1.85273e-13
1.85179e-13
1.85096e-13
1.85023e-13
1.84962e-13
1.84911e-13
1.84871e-13
1.88629e-13
1.88347e-13
1.88083e-13
1.87833e-13
1.87596e-13
1.87373e-13
1.87162e-13
1.86964e-13
1.86778e-13
1.86604e-13
1.86442e-13
1.86292e-13
1.86153e-13
1.86025e-13
1.85909e-13
1.85804e-13
1.85709e-13
1.85626e-13
1.85553e-13
1.85492e-13
1.85441e-13
1.85402e-13
1.8918e-13
1.88896e-13
1.8863e-13
1.88378e-13
1.8814e-13
1.87915e-13
1.87703e-13
1.87504e-13
1.87317e-13
1.87143e-13
1.8698e-13
1.86829e-13
1.8669e-13
1.86562e-13
1.86446e-13
1.8634e-13
1.86246e-13
1.86163e-13
1.8609e-13
1.86028e-13
1.85978e-13
1.85939e-13
1.89736e-13
1.8945e-13
1.89182e-13
1.88928e-13
1.88689e-13
1.88463e-13
1.8825e-13
1.8805e-13
1.87863e-13
1.87687e-13
1.87524e-13
1.87373e-13
1.87233e-13
1.87105e-13
1.86988e-13
1.86883e-13
1.86788e-13
1.86705e-13
1.86632e-13
1.86571e-13
1.8652e-13
1.86481e-13
1.90296e-13
1.90008e-13
1.89739e-13
1.89484e-13
1.89243e-13
1.89016e-13
1.88802e-13
1.88601e-13
1.88413e-13
1.88237e-13
1.88073e-13
1.87921e-13
1.87781e-13
1.87653e-13
1.87536e-13
1.8743e-13
1.87335e-13
1.87252e-13
1.87179e-13
1.87118e-13
1.87068e-13
1.87029e-13
1.90858e-13
1.9057e-13
1.90299e-13
1.90043e-13
1.89801e-13
1.89573e-13
1.89358e-13
1.89156e-13
1.88967e-13
1.8879e-13
1.88626e-13
1.88474e-13
1.88333e-13
1.88204e-13
1.88087e-13
1.87981e-13
1.87887e-13
1.87803e-13
1.87731e-13
1.87669e-13
1.87619e-13
1.87581e-13
1.91423e-13
1.91134e-13
1.90862e-13
1.90605e-13
1.90362e-13
1.90133e-13
1.89917e-13
1.89714e-13
1.89525e-13
1.89347e-13
1.89183e-13
1.8903e-13
1.88889e-13
1.8876e-13
1.88643e-13
1.88537e-13
1.88442e-13
1.88358e-13
1.88286e-13
1.88225e-13
1.88175e-13
1.88137e-13
1.91991e-13
1.91701e-13
1.91428e-13
1.9117e-13
1.90926e-13
1.90696e-13
1.90479e-13
1.90276e-13
1.90086e-13
1.89908e-13
1.89742e-13
1.89589e-13
1.89448e-13
1.89319e-13
1.89202e-13
1.89095e-13
1.89001e-13
1.88917e-13
1.88845e-13
1.88784e-13
1.88734e-13
1.88696e-13
1.9256e-13
1.9227e-13
1.91996e-13
1.91737e-13
1.91493e-13
1.91262e-13
1.91044e-13
1.9084e-13
1.90649e-13
1.90471e-13
1.90305e-13
1.90152e-13
1.9001e-13
1.89881e-13
1.89763e-13
1.89657e-13
1.89562e-13
1.89479e-13
1.89407e-13
1.89346e-13
1.89296e-13
1.89259e-13
1.9313e-13
1.9284e-13
1.92566e-13
1.92306e-13
1.92061e-13
1.91829e-13
1.91611e-13
1.91407e-13
1.91215e-13
1.91036e-13
1.9087e-13
1.90716e-13
1.90575e-13
1.90445e-13
1.90328e-13
1.90222e-13
1.90127e-13
1.90044e-13
1.89972e-13
1.8991e-13
1.89861e-13
1.89825e-13
1.93702e-13
1.93411e-13
1.93137e-13
1.92877e-13
1.92631e-13
1.92399e-13
1.9218e-13
1.91975e-13
1.91783e-13
1.91604e-13
1.91437e-13
1.91283e-13
1.91141e-13
1.91012e-13
1.90894e-13
1.90788e-13
1.90694e-13
1.90611e-13
1.90539e-13
1.90478e-13
1.94275e-13
1.93984e-13
1.9371e-13
1.93449e-13
1.93203e-13
1.9297e-13
1.92751e-13
1.92545e-13
1.92352e-13
1.92173e-13
1.92006e-13
1.91852e-13
1.9171e-13
1.9158e-13
1.91463e-13
1.91358e-13
1.91264e-13
1.91181e-13
1.91111e-13
1.94848e-13
1.94558e-13
1.94283e-13
1.94022e-13
1.93776e-13
1.93542e-13
1.93323e-13
1.93116e-13
1.92923e-13
1.92743e-13
1.92576e-13
1.92422e-13
1.9228e-13
1.92151e-13
1.92033e-13
1.9193e-13
1.91837e-13
1.95423e-13
1.95133e-13
1.94858e-13
1.94597e-13
1.94349e-13
1.94116e-13
1.93896e-13
1.93689e-13
1.93496e-13
1.93315e-13
1.93148e-13
1.92994e-13
1.92852e-13
1.92724e-13
1.95999e-13
1.95708e-13
1.95433e-13
1.95172e-13
1.94924e-13
1.9469e-13
1.9447e-13
1.94263e-13
1.94069e-13
1.93889e-13
1.93721e-13
1.93569e-13
1.96575e-13
1.96285e-13
1.96009e-13
1.95748e-13
1.955e-13
1.95266e-13
1.95045e-13
1.94838e-13
1.94644e-13
1.94463e-13
1.97152e-13
1.96862e-13
1.96586e-13
1.96325e-13
1.96077e-13
1.95842e-13
1.95621e-13
1.95414e-13
1.9522e-13
1.9773e-13
1.97439e-13
1.97164e-13
1.96902e-13
1.96654e-13
1.9642e-13
1.96199e-13
1.95991e-13
1.98308e-13
1.98018e-13
1.97742e-13
1.97481e-13
1.97232e-13
1.96998e-13
1.96776e-13
1.98887e-13
1.98597e-13
1.98322e-13
1.9806e-13
1.97811e-13
1.97578e-13
1.99466e-13
1.99177e-13
1.98901e-13
1.98639e-13
1.98391e-13
1.98158e-13
2.00047e-13
1.99758e-13
1.99482e-13
1.9922e-13
1.98971e-13
2.00628e-13
2.00339e-13
2.00064e-13
1.99801e-13
2.01209e-13
2.00921e-13
2.00646e-13
2.00383e-13
2.01791e-13
2.01504e-13
2.0123e-13
2.02374e-13
2.02088e-13
2.01816e-13
2.02957e-13
2.02672e-13
2.02402e-13
2.0354e-13
2.03257e-13
2.02988e-13
2.04124e-13
2.03842e-13
2.03574e-13
2.04707e-13
2.04427e-13
2.04161e-13
2.05292e-13
2.05013e-13
2.04749e-13
2.05879e-13
2.05599e-13
2.05336e-13
2.06474e-13
2.06189e-13
2.05924e-13
2.07081e-13
2.06787e-13
2.06518e-13
2.07706e-13
2.07401e-13
2.07123e-13
2.0835e-13
2.08033e-13
2.07744e-13
2.09012e-13
2.08683e-13
2.08381e-13
2.09688e-13
2.09349e-13
2.09034e-13
1.86015e-13
1.86505e-13
1.87017e-13
1.87544e-13
1.88082e-13
1.88627e-13
1.89178e-13
1.89734e-13
1.90293e-13
1.90856e-13
1.91421e-13
1.91988e-13
1.92557e-13
1.93127e-13
1.93699e-13
1.94272e-13
1.94846e-13
1.9542e-13
1.95996e-13
1.96572e-13
1.97149e-13
1.97727e-13
1.98305e-13
1.98884e-13
1.99463e-13
2.00043e-13
2.00624e-13
2.01205e-13
2.01787e-13
2.02369e-13
2.02951e-13
2.03535e-13
2.04118e-13
2.04702e-13
2.05287e-13
2.05874e-13
2.0647e-13
2.07079e-13
2.07706e-13
2.08353e-13
2.09018e-13
2.09695e-13
1.85734e-13
1.86233e-13
1.86743e-13
1.87266e-13
1.878e-13
1.88342e-13
1.88891e-13
1.89445e-13
1.90003e-13
1.90564e-13
1.91128e-13
1.91695e-13
1.92263e-13
1.92833e-13
1.93405e-13
1.93977e-13
1.94551e-13
1.95125e-13
1.95701e-13
1.96277e-13
1.96854e-13
1.97432e-13
1.9801e-13
1.98589e-13
1.99168e-13
1.99748e-13
2.00329e-13
2.0091e-13
2.01492e-13
2.02074e-13
2.02657e-13
2.0324e-13
2.03824e-13
2.04409e-13
2.04994e-13
2.05581e-13
2.06173e-13
2.06777e-13
2.07398e-13
2.08039e-13
2.08698e-13
2.0937e-13
1.85472e-13
1.85973e-13
1.86483e-13
1.87004e-13
1.87535e-13
1.88075e-13
1.88621e-13
1.89173e-13
1.89729e-13
1.90289e-13
1.90852e-13
1.91418e-13
1.91985e-13
1.92555e-13
1.93126e-13
1.93698e-13
1.94271e-13
1.94845e-13
1.95421e-13
1.95997e-13
1.96573e-13
1.97151e-13
1.97729e-13
1.98308e-13
1.98887e-13
1.99467e-13
2.00048e-13
2.00629e-13
2.01211e-13
2.01793e-13
2.02376e-13
2.0296e-13
2.03544e-13
2.04128e-13
2.04714e-13
2.053e-13
2.0589e-13
2.06491e-13
2.07107e-13
2.07743e-13
2.08396e-13
2.09063e-13
1.85224e-13
1.85725e-13
1.86235e-13
1.86755e-13
1.87284e-13
1.87822e-13
1.88366e-13
1.88916e-13
1.89471e-13
1.90029e-13
1.90591e-13
1.91155e-13
1.91722e-13
1.92291e-13
1.92861e-13
1.93432e-13
1.94005e-13
1.94579e-13
1.95154e-13
1.9573e-13
1.96307e-13
1.96884e-13
1.97462e-13
1.9804e-13
1.9862e-13
1.992e-13
1.9978e-13
2.00361e-13
2.00943e-13
2.01525e-13
2.02108e-13
2.02691e-13
2.03275e-13
2.0386e-13
2.04446e-13
2.05032e-13
2.05621e-13
2.06219e-13
2.06831e-13
2.07462e-13
2.08111e-13
2.08773e-13
1.84991e-13
1.8549e-13
1.85999e-13
1.86518e-13
1.87046e-13
1.87582e-13
1.88124e-13
1.88673e-13
1.89226e-13
1.89783e-13
1.90343e-13
1.90907e-13
1.91473e-13
1.9204e-13
1.9261e-13
1.93181e-13
1.93753e-13
1.94327e-13
1.94901e-13
1.95477e-13
1.96053e-13
1.9663e-13
1.97208e-13
1.97786e-13
1.98365e-13
1.98945e-13
1.99525e-13
2.00106e-13
2.00688e-13
2.0127e-13
2.01853e-13
2.02436e-13
2.0302e-13
2.03605e-13
2.0419e-13
2.04776e-13
2.05364e-13
2.05959e-13
2.06569e-13
2.07196e-13
2.0784e-13
2.08498e-13
1.8477e-13
1.85268e-13
1.85776e-13
1.86294e-13
1.86821e-13
1.87355e-13
1.87896e-13
1.88443e-13
1.88995e-13
1.89551e-13
1.9011e-13
1.90672e-13
1.91237e-13
1.91804e-13
1.92373e-13
1.92943e-13
1.93515e-13
1.94088e-13
1.94662e-13
1.95237e-13
1.95813e-13
1.96389e-13
1.96967e-13
1.97545e-13
1.98124e-13
1.98703e-13
1.99283e-13
1.99864e-13
2.00445e-13
2.01027e-13
2.0161e-13
2.02193e-13
2.02777e-13
2.03362e-13
2.03947e-13
2.04533e-13
2.0512e-13
2.05713e-13
2.06319e-13
2.06943e-13
2.07583e-13
2.08237e-13
1.84562e-13
1.85058e-13
1.85566e-13
1.86083e-13
1.86609e-13
1.87142e-13
1.87681e-13
1.88227e-13
1.88777e-13
1.89332e-13
1.8989e-13
1.90451e-13
1.91015e-13
1.91581e-13
1.92149e-13
1.92719e-13
1.9329e-13
1.93862e-13
1.94436e-13
1.9501e-13
1.95586e-13
1.96162e-13
1.96739e-13
1.97317e-13
1.97895e-13
1.98475e-13
1.99054e-13
1.99635e-13
2.00216e-13
2.00798e-13
2.0138e-13
2.01963e-13
2.02547e-13
2.03131e-13
2.03716e-13
2.04301e-13
2.04888e-13
2.05479e-13
2.06083e-13
2.06703e-13
2.07339e-13
2.07989e-13
1.84366e-13
1.84861e-13
1.85368e-13
1.85884e-13
1.86408e-13
1.8694e-13
1.87479e-13
1.88023e-13
1.88572e-13
1.89126e-13
1.89683e-13
1.90243e-13
1.90806e-13
1.91371e-13
1.91938e-13
1.92507e-13
1.93078e-13
1.9365e-13
1.94223e-13
1.94797e-13
1.95372e-13
1.95948e-13
1.96524e-13
1.97102e-13
1.9768e-13
1.98259e-13
1.98838e-13
1.99418e-13
1.99999e-13
2.00581e-13
2.01163e-13
2.01745e-13
2.02329e-13
2.02913e-13
2.03497e-13
2.04083e-13
2.04669e-13
2.05258e-13
2.05858e-13
2.06475e-13
2.07107e-13
2.07753e-13
1.84182e-13
1.84676e-13
1.85182e-13
1.85697e-13
1.86221e-13
1.86752e-13
1.87289e-13
1.87832e-13
1.8838e-13
1.88933e-13
1.89489e-13
1.90048e-13
1.9061e-13
1.91174e-13
1.91741e-13
1.92309e-13
1.92879e-13
1.9345e-13
1.94023e-13
1.94596e-13
1.95171e-13
1.95746e-13
1.96322e-13
1.96899e-13
1.97477e-13
1.98056e-13
1.98635e-13
1.99215e-13
1.99795e-13
2.00376e-13
2.00958e-13
2.0154e-13
2.02123e-13
2.02707e-13
2.03291e-13
2.03876e-13
2.04462e-13
2.0505e-13
2.05646e-13
2.06259e-13
2.06888e-13
2.07529e-13
1.8401e-13
1.84503e-13
1.85008e-13
1.85522e-13
1.86045e-13
1.86575e-13
1.87111e-13
1.87654e-13
1.88201e-13
1.88752e-13
1.89307e-13
1.89866e-13
1.90427e-13
1.9099e-13
1.91556e-13
1.92124e-13
1.92693e-13
1.93264e-13
1.93835e-13
1.94408e-13
1.94982e-13
1.95557e-13
1.96133e-13
1.9671e-13
1.97287e-13
1.97865e-13
1.98444e-13
1.99024e-13
1.99604e-13
2.00184e-13
2.00766e-13
2.01348e-13
2.0193e-13
2.02514e-13
2.03098e-13
2.03682e-13
2.04268e-13
2.04854e-13
2.05447e-13
2.06055e-13
2.06679e-13
2.07317e-13
1.83849e-13
1.84342e-13
1.84846e-13
1.85359e-13
1.85881e-13
1.8641e-13
1.86946e-13
1.87487e-13
1.88033e-13
1.88584e-13
1.89138e-13
1.89696e-13
1.90256e-13
1.90819e-13
1.91384e-13
1.91951e-13
1.92519e-13
1.93089e-13
1.93661e-13
1.94233e-13
1.94807e-13
1.95381e-13
1.95957e-13
1.96533e-13
1.9711e-13
1.97688e-13
1.98266e-13
1.98845e-13
1.99425e-13
2.00005e-13
2.00586e-13
2.01168e-13
2.0175e-13
2.02333e-13
2.02917e-13
2.03501e-13
2.04086e-13
2.04671e-13
2.05261e-13
2.05863e-13
2.06482e-13
2.07116e-13
1.837e-13
1.84192e-13
1.84695e-13
1.85208e-13
1.85729e-13
1.86257e-13
1.86792e-13
1.87333e-13
1.87878e-13
1.88428e-13
1.88981e-13
1.89538e-13
1.90098e-13
1.9066e-13
1.91224e-13
1.91791e-13
1.92358e-13
1.92928e-13
1.93499e-13
1.94071e-13
1.94644e-13
1.95218e-13
1.95793e-13
1.96368e-13
1.96945e-13
1.97522e-13
1.981e-13
1.98679e-13
1.99258e-13
1.99839e-13
2.00419e-13
2.01001e-13
2.01583e-13
2.02165e-13
2.02749e-13
2.03332e-13
2.03917e-13
2.04502e-13
2.0509e-13
2.05686e-13
2.06298e-13
2.06928e-13
2.0757e-13
1.83562e-13
1.84053e-13
1.84555e-13
1.85068e-13
1.85588e-13
1.86116e-13
1.8665e-13
1.8719e-13
1.87735e-13
1.88284e-13
1.88837e-13
1.89393e-13
1.89952e-13
1.90513e-13
1.91077e-13
1.91642e-13
1.9221e-13
1.92779e-13
1.93349e-13
1.9392e-13
1.94493e-13
1.95067e-13
1.95641e-13
1.96216e-13
1.96793e-13
1.9737e-13
1.97947e-13
1.98526e-13
1.99105e-13
1.99684e-13
2.00265e-13
2.00846e-13
2.01428e-13
2.0201e-13
2.02593e-13
2.03177e-13
2.03761e-13
2.04346e-13
2.04933e-13
2.05524e-13
2.06128e-13
2.06751e-13
2.07391e-13
2.08042e-13
1.83435e-13
1.83925e-13
1.84427e-13
1.84939e-13
1.85459e-13
1.85986e-13
1.8652e-13
1.87059e-13
1.87603e-13
1.88152e-13
1.88704e-13
1.89259e-13
1.89818e-13
1.90378e-13
1.90942e-13
1.91507e-13
1.92073e-13
1.92642e-13
1.93212e-13
1.93783e-13
1.94355e-13
1.94928e-13
1.95502e-13
1.96077e-13
1.96653e-13
1.97229e-13
1.97807e-13
1.98385e-13
1.98963e-13
1.99543e-13
2.00123e-13
2.00704e-13
2.01285e-13
2.01867e-13
2.0245e-13
2.03033e-13
2.03618e-13
2.04202e-13
2.04788e-13
2.05376e-13
2.05974e-13
2.06588e-13
2.07221e-13
2.07869e-13
1.83318e-13
1.83809e-13
1.84311e-13
1.84822e-13
1.85341e-13
1.85868e-13
1.86401e-13
1.8694e-13
1.87483e-13
1.88031e-13
1.88583e-13
1.89138e-13
1.89695e-13
1.90256e-13
1.90818e-13
1.91383e-13
1.91949e-13
1.92517e-13
1.93086e-13
1.93657e-13
1.94229e-13
1.94801e-13
1.95375e-13
1.9595e-13
1.96525e-13
1.97101e-13
1.97678e-13
1.98256e-13
1.98834e-13
1.99414e-13
1.99993e-13
2.00574e-13
2.01155e-13
2.01737e-13
2.02319e-13
2.02903e-13
2.03486e-13
2.04071e-13
2.04656e-13
2.05243e-13
2.05835e-13
2.06442e-13
2.07068e-13
2.07711e-13
2.08367e-13
1.83213e-13
1.83703e-13
1.84205e-13
1.84715e-13
1.85235e-13
1.85761e-13
1.86293e-13
1.86832e-13
1.87375e-13
1.87922e-13
1.88473e-13
1.89028e-13
1.89585e-13
1.90145e-13
1.90707e-13
1.91271e-13
1.91837e-13
1.92404e-13
1.92973e-13
1.93543e-13
1.94115e-13
1.94687e-13
1.9526e-13
1.95835e-13
1.9641e-13
1.96986e-13
1.97562e-13
1.9814e-13
1.98718e-13
1.99297e-13
1.99876e-13
2.00457e-13
2.01037e-13
2.01619e-13
2.02201e-13
2.02784e-13
2.03368e-13
2.03952e-13
2.04537e-13
2.05123e-13
2.05712e-13
2.06312e-13
2.06929e-13
2.07566e-13
2.08218e-13
1.83119e-13
1.83609e-13
1.8411e-13
1.8462e-13
1.85139e-13
1.85665e-13
1.86197e-13
1.86735e-13
1.87278e-13
1.87824e-13
1.88375e-13
1.88929e-13
1.89486e-13
1.90045e-13
1.90607e-13
1.91171e-13
1.91736e-13
1.92303e-13
1.92872e-13
1.93442e-13
1.94013e-13
1.94585e-13
1.95158e-13
1.95732e-13
1.96307e-13
1.96882e-13
1.97459e-13
1.98036e-13
1.98614e-13
1.99192e-13
1.99772e-13
2.00352e-13
2.00932e-13
2.01514e-13
2.02095e-13
2.02678e-13
2.03261e-13
2.03845e-13
2.0443e-13
2.05016e-13
2.05603e-13
2.06198e-13
2.06808e-13
2.07437e-13
2.08085e-13
2.08746e-13
1.83035e-13
1.83525e-13
1.84026e-13
1.84536e-13
1.85055e-13
1.8558e-13
1.86112e-13
1.8665e-13
1.87192e-13
1.87738e-13
1.88289e-13
1.88842e-13
1.89399e-13
1.89958e-13
1.90519e-13
1.91083e-13
1.91648e-13
1.92215e-13
1.92783e-13
1.93352e-13
1.93923e-13
1.94495e-13
1.95068e-13
1.95641e-13
1.96216e-13
1.96791e-13
1.97367e-13
1.97944e-13
1.98522e-13
1.991e-13
1.99679e-13
2.00259e-13
2.00839e-13
2.0142e-13
2.02002e-13
2.02585e-13
2.03168e-13
2.03752e-13
2.04336e-13
2.04922e-13
2.05508e-13
2.06099e-13
2.06703e-13
2.07325e-13
2.07966e-13
2.08625e-13
2.09295e-13
1.82963e-13
1.83452e-13
1.83953e-13
1.84463e-13
1.84981e-13
1.85507e-13
1.86038e-13
1.86575e-13
1.87117e-13
1.87664e-13
1.88214e-13
1.88767e-13
1.89323e-13
1.89882e-13
1.90443e-13
1.91006e-13
1.91571e-13
1.92138e-13
1.92706e-13
1.93275e-13
1.93845e-13
1.94417e-13
1.94989e-13
1.95563e-13
1.96137e-13
1.96712e-13
1.97288e-13
1.97865e-13
1.98443e-13
1.99021e-13
1.99599e-13
2.00179e-13
2.00759e-13
2.0134e-13
2.01921e-13
2.02503e-13
2.03086e-13
2.0367e-13
2.04254e-13
2.04839e-13
2.05425e-13
2.06014e-13
2.06614e-13
2.07229e-13
2.07865e-13
2.08519e-13
2.09186e-13
1.82901e-13
1.8339e-13
1.83891e-13
1.844e-13
1.84919e-13
1.85444e-13
1.85975e-13
1.86512e-13
1.87054e-13
1.876e-13
1.8815e-13
1.88703e-13
1.89259e-13
1.89818e-13
1.90378e-13
1.90941e-13
1.91506e-13
1.92072e-13
1.9264e-13
1.93209e-13
1.9378e-13
1.94351e-13
1.94923e-13
1.95497e-13
1.96071e-13
1.96646e-13
1.97222e-13
1.97798e-13
1.98375e-13
1.98953e-13
1.99532e-13
2.00111e-13
2.00691e-13
2.01272e-13
2.01853e-13
2.02435e-13
2.03018e-13
2.03601e-13
2.04185e-13
2.04769e-13
2.05355e-13
2.05942e-13
2.06538e-13
2.07149e-13
2.0778e-13
2.08429e-13
2.09093e-13
1.82849e-13
1.83339e-13
1.83839e-13
1.84349e-13
1.84867e-13
1.85392e-13
1.85923e-13
1.8646e-13
1.87002e-13
1.87548e-13
1.88097e-13
1.8865e-13
1.89206e-13
1.89765e-13
1.90325e-13
1.90888e-13
1.91453e-13
1.92019e-13
1.92587e-13
1.93156e-13
1.93726e-13
1.94297e-13
1.94869e-13
1.95442e-13
1.96017e-13
1.96591e-13
1.97167e-13
1.97744e-13
1.98321e-13
1.98899e-13
1.99477e-13
2.00056e-13
2.00636e-13
2.01217e-13
2.01798e-13
2.02379e-13
2.02962e-13
2.03545e-13
2.04128e-13
2.04713e-13
2.05298e-13
2.05884e-13
2.06478e-13
2.07084e-13
2.0771e-13
2.08355e-13
2.09016e-13
1.82809e-13
1.83298e-13
1.83798e-13
1.84308e-13
1.84826e-13
1.85351e-13
1.85882e-13
1.86419e-13
1.86961e-13
1.87507e-13
1.88056e-13
1.88609e-13
1.89165e-13
1.89723e-13
1.90284e-13
1.90847e-13
1.91411e-13
1.91977e-13
1.92545e-13
1.93114e-13
1.93684e-13
1.94255e-13
1.94827e-13
1.954e-13
1.95974e-13
1.96549e-13
1.97125e-13
1.97701e-13
1.98278e-13
1.98856e-13
1.99435e-13
2.00014e-13
2.00593e-13
2.01174e-13
2.01755e-13
2.02337e-13
2.02919e-13
2.03502e-13
2.04085e-13
2.0467e-13
2.05254e-13
2.05841e-13
2.06432e-13
2.07035e-13
2.07656e-13
2.08296e-13
2.08955e-13
2.09627e-13
1.82779e-13
1.83268e-13
1.83768e-13
1.84278e-13
1.84796e-13
1.85321e-13
1.85853e-13
1.86389e-13
1.86931e-13
1.87477e-13
1.88026e-13
1.88579e-13
1.89135e-13
1.89693e-13
1.90254e-13
1.90816e-13
1.91381e-13
1.91947e-13
1.92515e-13
1.93084e-13
1.93654e-13
1.94225e-13
1.94797e-13
1.9537e-13
1.95944e-13
1.96519e-13
1.97095e-13
1.97671e-13
1.98248e-13
1.98826e-13
1.99405e-13
1.99984e-13
2.00564e-13
2.01144e-13
2.01725e-13
2.02307e-13
2.02889e-13
2.03472e-13
2.04055e-13
2.0464e-13
2.05225e-13
2.0581e-13
2.064e-13
2.07001e-13
2.07617e-13
2.08252e-13
2.08907e-13
2.09577e-13
1.82759e-13
1.83248e-13
1.83749e-13
1.84259e-13
1.84777e-13
1.85302e-13
1.85833e-13
1.8637e-13
1.86912e-13
1.87458e-13
1.88007e-13
1.8856e-13
1.89116e-13
1.89674e-13
1.90235e-13
1.90798e-13
1.91363e-13
1.91929e-13
1.92496e-13
1.93065e-13
1.93635e-13
1.94207e-13
1.94779e-13
1.95352e-13
1.95926e-13
1.96501e-13
1.97077e-13
1.97654e-13
1.98231e-13
1.98809e-13
1.99387e-13
1.99966e-13
2.00546e-13
2.01127e-13
2.01708e-13
2.0229e-13
2.02872e-13
2.03455e-13
2.04039e-13
2.04623e-13
2.05208e-13
2.05794e-13
2.06384e-13
2.06982e-13
2.07595e-13
2.08225e-13
2.08876e-13
2.09545e-13
2.10228e-13
1.8275e-13
1.8324e-13
1.8374e-13
1.8425e-13
1.84769e-13
1.85294e-13
1.85825e-13
1.86362e-13
1.86904e-13
1.8745e-13
1.88e-13
1.88553e-13
1.89109e-13
1.89667e-13
1.90228e-13
1.90791e-13
1.91356e-13
1.91922e-13
1.9249e-13
1.93059e-13
1.93629e-13
1.94201e-13
1.94773e-13
1.95346e-13
1.95921e-13
1.96496e-13
1.97072e-13
1.97648e-13
1.98226e-13
1.98804e-13
1.99382e-13
1.99962e-13
2.00542e-13
2.01122e-13
2.01704e-13
2.02286e-13
2.02868e-13
2.03451e-13
2.04035e-13
2.0462e-13
2.05205e-13
2.05791e-13
2.0638e-13
2.06978e-13
2.07588e-13
2.08215e-13
2.08861e-13
2.09528e-13
2.1021e-13
1.82752e-13
1.83242e-13
1.83743e-13
1.84253e-13
1.84771e-13
1.85296e-13
1.85828e-13
1.86365e-13
1.86907e-13
1.87453e-13
1.88003e-13
1.88556e-13
1.89113e-13
1.89671e-13
1.90232e-13
1.90795e-13
1.9136e-13
1.91927e-13
1.92495e-13
1.93064e-13
1.93635e-13
1.94206e-13
1.94779e-13
1.95352e-13
1.95927e-13
1.96502e-13
1.97078e-13
1.97655e-13
1.98233e-13
1.98811e-13
1.9939e-13
1.99969e-13
2.0055e-13
2.0113e-13
2.01712e-13
2.02294e-13
2.02877e-13
2.0346e-13
2.04045e-13
2.04629e-13
2.05215e-13
2.05801e-13
2.06391e-13
2.06988e-13
2.07597e-13
2.08221e-13
2.08864e-13
2.09529e-13
2.10211e-13
2.10906e-13
1.82764e-13
1.83254e-13
1.83755e-13
1.84266e-13
1.84784e-13
1.8531e-13
1.85842e-13
1.86379e-13
1.86921e-13
1.87468e-13
1.88018e-13
1.88571e-13
1.89128e-13
1.89687e-13
1.90248e-13
1.90811e-13
1.91376e-13
1.91943e-13
1.92511e-13
1.93081e-13
1.93652e-13
1.94224e-13
1.94797e-13
1.95371e-13
1.95945e-13
1.96521e-13
1.97097e-13
1.97674e-13
1.98252e-13
1.98831e-13
1.9941e-13
1.9999e-13
2.0057e-13
2.01151e-13
2.01733e-13
2.02315e-13
2.02899e-13
2.03482e-13
2.04067e-13
2.04652e-13
2.05238e-13
2.05824e-13
2.06414e-13
2.07012e-13
2.0762e-13
2.08243e-13
2.08884e-13
2.09547e-13
2.10229e-13
2.10925e-13
1.82787e-13
1.83277e-13
1.83779e-13
1.84289e-13
1.84808e-13
1.85334e-13
1.85866e-13
1.86404e-13
1.86946e-13
1.87493e-13
1.88044e-13
1.88597e-13
1.89154e-13
1.89713e-13
1.90275e-13
1.90839e-13
1.91404e-13
1.91971e-13
1.9254e-13
1.9311e-13
1.93681e-13
1.94253e-13
1.94826e-13
1.95401e-13
1.95976e-13
1.96552e-13
1.97128e-13
1.97706e-13
1.98284e-13
1.98863e-13
1.99442e-13
2.00022e-13
2.00603e-13
2.01185e-13
2.01767e-13
2.02349e-13
2.02933e-13
2.03517e-13
2.04102e-13
2.04687e-13
2.05273e-13
2.0586e-13
2.06451e-13
2.07049e-13
2.07658e-13
2.0828e-13
2.08922e-13
2.09584e-13
2.10266e-13
2.10963e-13
1.82821e-13
1.83311e-13
1.83813e-13
1.84324e-13
1.84843e-13
1.85369e-13
1.85902e-13
1.8644e-13
1.86983e-13
1.8753e-13
1.88081e-13
1.88635e-13
1.89192e-13
1.89752e-13
1.90314e-13
1.90878e-13
1.91443e-13
1.92011e-13
1.9258e-13
1.9315e-13
1.93722e-13
1.94294e-13
1.94868e-13
1.95443e-13
1.96018e-13
1.96594e-13
1.97172e-13
1.97749e-13
1.98328e-13
1.98907e-13
1.99487e-13
2.00067e-13
2.00649e-13
2.0123e-13
2.01813e-13
2.02396e-13
2.0298e-13
2.03564e-13
2.04149e-13
2.04735e-13
2.05322e-13
2.05909e-13
2.06501e-13
2.071e-13
2.07709e-13
2.08333e-13
2.08975e-13
2.09638e-13
2.10321e-13
2.11018e-13
1.82865e-13
1.83356e-13
1.83858e-13
1.84369e-13
1.84888e-13
1.85415e-13
1.85948e-13
1.86487e-13
1.8703e-13
1.87577e-13
1.88129e-13
1.88683e-13
1.89241e-13
1.89801e-13
1.90363e-13
1.90928e-13
1.91494e-13
1.92062e-13
1.92632e-13
1.93203e-13
1.93775e-13
1.94348e-13
1.94922e-13
1.95497e-13
1.96073e-13
1.96649e-13
1.97227e-13
1.97805e-13
1.98384e-13
1.98964e-13
1.99544e-13
2.00125e-13
2.00707e-13
2.01289e-13
2.01872e-13
2.02455e-13
2.0304e-13
2.03625e-13
2.0421e-13
2.04796e-13
2.05383e-13
2.05972e-13
2.06564e-13
2.07165e-13
2.07776e-13
2.08401e-13
2.09044e-13
2.09708e-13
2.10393e-13
2.11092e-13
1.8292e-13
1.83411e-13
1.83913e-13
1.84425e-13
1.84945e-13
1.85472e-13
1.86005e-13
1.86544e-13
1.87088e-13
1.87636e-13
1.88188e-13
1.88743e-13
1.89301e-13
1.89862e-13
1.90425e-13
1.9099e-13
1.91557e-13
1.92125e-13
1.92695e-13
1.93266e-13
1.93839e-13
1.94413e-13
1.94987e-13
1.95563e-13
1.96139e-13
1.96716e-13
1.97294e-13
1.97873e-13
1.98452e-13
1.99033e-13
1.99613e-13
2.00195e-13
2.00777e-13
2.0136e-13
2.01943e-13
2.02527e-13
2.03112e-13
2.03697e-13
2.04284e-13
2.0487e-13
2.05458e-13
2.06047e-13
2.06641e-13
2.07243e-13
2.07856e-13
2.08483e-13
2.09128e-13
2.09794e-13
2.10481e-13
2.11182e-13
1.82985e-13
1.83477e-13
1.8398e-13
1.84492e-13
1.85012e-13
1.8554e-13
1.86074e-13
1.86613e-13
1.87158e-13
1.87706e-13
1.88259e-13
1.88814e-13
1.89373e-13
1.89934e-13
1.90498e-13
1.91063e-13
1.91631e-13
1.922e-13
1.9277e-13
1.93342e-13
1.93915e-13
1.94489e-13
1.95064e-13
1.95641e-13
1.96217e-13
1.96795e-13
1.97374e-13
1.97953e-13
1.98533e-13
1.99114e-13
1.99695e-13
2.00277e-13
2.0086e-13
2.01443e-13
2.02027e-13
2.02612e-13
2.03197e-13
2.03783e-13
2.0437e-13
2.04957e-13
2.05545e-13
2.06135e-13
2.06731e-13
2.07335e-13
2.0795e-13
2.0858e-13
2.09227e-13
2.09896e-13
2.10585e-13
2.11288e-13
1.83062e-13
1.83553e-13
1.84057e-13
1.84569e-13
1.8509e-13
1.85619e-13
1.86153e-13
1.86693e-13
1.87238e-13
1.87787e-13
1.8834e-13
1.88897e-13
1.89456e-13
1.90018e-13
1.90582e-13
1.91148e-13
1.91716e-13
1.92286e-13
1.92857e-13
1.9343e-13
1.94003e-13
1.94578e-13
1.95154e-13
1.9573e-13
1.96308e-13
1.96886e-13
1.97465e-13
1.98045e-13
1.98626e-13
1.99207e-13
1.99789e-13
2.00371e-13
2.00955e-13
2.01539e-13
2.02123e-13
2.02708e-13
2.03294e-13
2.03881e-13
2.04468e-13
2.05056e-13
2.05645e-13
2.06236e-13
2.06834e-13
2.07441e-13
2.08059e-13
2.08691e-13
2.09342e-13
2.10013e-13
2.10705e-13
2.11411e-13
1.83149e-13
1.83641e-13
1.84145e-13
1.84658e-13
1.8518e-13
1.85708e-13
1.86244e-13
1.86784e-13
1.8733e-13
1.8788e-13
1.88434e-13
1.88991e-13
1.89551e-13
1.90113e-13
1.90678e-13
1.91245e-13
1.91814e-13
1.92384e-13
1.92956e-13
1.93529e-13
1.94103e-13
1.94678e-13
1.95255e-13
1.95832e-13
1.9641e-13
1.96989e-13
1.97569e-13
1.98149e-13
1.9873e-13
1.99312e-13
1.99895e-13
2.00478e-13
2.01062e-13
2.01646e-13
2.02232e-13
2.02818e-13
2.03404e-13
2.03991e-13
2.04579e-13
2.05168e-13
2.05757e-13
2.06351e-13
2.06951e-13
2.0756e-13
2.08181e-13
2.08816e-13
2.0947e-13
2.10145e-13
2.1084e-13
2.11549e-13
1.83246e-13
1.83739e-13
1.84244e-13
1.84758e-13
1.8528e-13
1.85809e-13
1.86345e-13
1.86887e-13
1.87433e-13
1.87984e-13
1.88538e-13
1.89096e-13
1.89657e-13
1.9022e-13
1.90786e-13
1.91353e-13
1.91923e-13
1.92494e-13
1.93066e-13
1.9364e-13
1.94215e-13
1.94791e-13
1.95368e-13
1.95946e-13
1.96525e-13
1.97104e-13
1.97684e-13
1.98266e-13
1.98847e-13
1.9943e-13
2.00013e-13
2.00597e-13
2.01181e-13
2.01766e-13
2.02352e-13
2.02939e-13
2.03526e-13
2.04114e-13
2.04702e-13
2.05291e-13
2.05882e-13
2.06478e-13
2.07081e-13
2.07693e-13
2.08317e-13
2.08956e-13
2.09613e-13
2.10291e-13
2.1099e-13
2.11703e-13
1.83355e-13
1.83849e-13
1.84354e-13
1.84868e-13
1.85391e-13
1.85921e-13
1.86458e-13
1.87e-13
1.87547e-13
1.88099e-13
1.88654e-13
1.89213e-13
1.89774e-13
1.90338e-13
1.90905e-13
1.91473e-13
1.92043e-13
1.92615e-13
1.93188e-13
1.93763e-13
1.94339e-13
1.94915e-13
1.95493e-13
1.96072e-13
1.96651e-13
1.97231e-13
1.97812e-13
1.98394e-13
1.98976e-13
1.99559e-13
2.00143e-13
2.00728e-13
2.01313e-13
2.01898e-13
2.02485e-13
2.03072e-13
2.0366e-13
2.04248e-13
2.04838e-13
2.05427e-13
2.0602e-13
2.06618e-13
2.07223e-13
2.07839e-13
2.08466e-13
2.09109e-13
2.0977e-13
2.10452e-13
2.11154e-13
2.11871e-13
1.83475e-13
1.83969e-13
1.84475e-13
1.8499e-13
1.85513e-13
1.86044e-13
1.86582e-13
1.87125e-13
1.87673e-13
1.88225e-13
1.88782e-13
1.89341e-13
1.89904e-13
1.90469e-13
1.91036e-13
1.91605e-13
1.92176e-13
1.92749e-13
1.93322e-13
1.93898e-13
1.94474e-13
1.95052e-13
1.9563e-13
1.96209e-13
1.96789e-13
1.9737e-13
1.97952e-13
1.98534e-13
1.99117e-13
1.99701e-13
2.00285e-13
2.0087e-13
2.01456e-13
2.02043e-13
2.0263e-13
2.03217e-13
2.03806e-13
2.04395e-13
2.04985e-13
2.05576e-13
2.0617e-13
2.0677e-13
2.07379e-13
2.07998e-13
2.08629e-13
2.09275e-13
2.0994e-13
2.10627e-13
2.11333e-13
2.12053e-13
1.83605e-13
1.841e-13
1.84607e-13
1.85123e-13
1.85647e-13
1.86179e-13
1.86717e-13
1.87261e-13
1.8781e-13
1.88364e-13
1.88921e-13
1.89481e-13
1.90045e-13
1.90611e-13
1.91179e-13
1.91749e-13
1.92321e-13
1.92894e-13
1.93469e-13
1.94045e-13
1.94622e-13
1.952e-13
1.95779e-13
1.96359e-13
1.9694e-13
1.97521e-13
1.98103e-13
1.98687e-13
1.9927e-13
1.99855e-13
2.0044e-13
2.01025e-13
2.01612e-13
2.02199e-13
2.02786e-13
2.03375e-13
2.03964e-13
2.04554e-13
2.05144e-13
2.05736e-13
2.06332e-13
2.06936e-13
2.07548e-13
2.08171e-13
2.08805e-13
2.09456e-13
2.10125e-13
2.10815e-13
2.11526e-13
2.1225e-13
1.83747e-13
1.84243e-13
1.8475e-13
1.85267e-13
1.85792e-13
1.86325e-13
1.86864e-13
1.87409e-13
1.87959e-13
1.88514e-13
1.89072e-13
1.89633e-13
1.90198e-13
1.90764e-13
1.91333e-13
1.91904e-13
1.92477e-13
1.93051e-13
1.93627e-13
1.94203e-13
1.94781e-13
1.9536e-13
1.9594e-13
1.96521e-13
1.97102e-13
1.97684e-13
1.98267e-13
1.98851e-13
1.99435e-13
2.0002e-13
2.00606e-13
2.01192e-13
2.01779e-13
2.02367e-13
2.02955e-13
2.03544e-13
2.04134e-13
2.04724e-13
2.05315e-13
2.05908e-13
2.06507e-13
2.07114e-13
2.0773e-13
2.08356e-13
2.08995e-13
2.09649e-13
2.10323e-13
2.11017e-13
2.11732e-13
2.12461e-13
1.839e-13
1.84396e-13
1.84905e-13
1.85423e-13
1.85949e-13
1.86483e-13
1.87023e-13
1.87569e-13
1.8812e-13
1.88676e-13
1.89235e-13
1.89797e-13
1.90363e-13
1.9093e-13
1.915e-13
1.92072e-13
1.92646e-13
1.93221e-13
1.93797e-13
1.94374e-13
1.94953e-13
1.95533e-13
1.96113e-13
1.96694e-13
1.97277e-13
1.97859e-13
1.98443e-13
1.99027e-13
1.99612e-13
2.00198e-13
2.00784e-13
2.01371e-13
2.01959e-13
2.02547e-13
2.03136e-13
2.03725e-13
2.04316e-13
2.04907e-13
2.05498e-13
2.06093e-13
2.06695e-13
2.07305e-13
2.07924e-13
2.08555e-13
2.09198e-13
2.09856e-13
2.10534e-13
2.11233e-13
2.11952e-13
2.12686e-13
1.84064e-13
1.84562e-13
1.85071e-13
1.8559e-13
1.86117e-13
1.86652e-13
1.87194e-13
1.87741e-13
1.88293e-13
1.8885e-13
1.8941e-13
1.89973e-13
1.9054e-13
1.91109e-13
1.91679e-13
1.92252e-13
1.92827e-13
1.93402e-13
1.93979e-13
1.94558e-13
1.95137e-13
1.95717e-13
1.96298e-13
1.9688e-13
1.97463e-13
1.98047e-13
1.98631e-13
1.99216e-13
1.99801e-13
2.00388e-13
2.00974e-13
2.01562e-13
2.0215e-13
2.02739e-13
2.03328e-13
2.03918e-13
2.04509e-13
2.05101e-13
2.05693e-13
2.0629e-13
2.06895e-13
2.07508e-13
2.08132e-13
2.08766e-13
2.09413e-13
2.10076e-13
2.10758e-13
2.11462e-13
2.12186e-13
2.12924e-13
1.8424e-13
1.84738e-13
1.85249e-13
1.85769e-13
1.86298e-13
1.86834e-13
1.87376e-13
1.87925e-13
1.88478e-13
1.89036e-13
1.89597e-13
1.90162e-13
1.90729e-13
1.91299e-13
1.91871e-13
1.92444e-13
1.9302e-13
1.93596e-13
1.94174e-13
1.94753e-13
1.95333e-13
1.95914e-13
1.96496e-13
1.97079e-13
1.97662e-13
1.98246e-13
1.98831e-13
1.99417e-13
2.00003e-13
2.00589e-13
2.01177e-13
2.01765e-13
2.02353e-13
2.02943e-13
2.03533e-13
2.04123e-13
2.04714e-13
2.05306e-13
2.05901e-13
2.065e-13
2.07108e-13
2.07725e-13
2.08352e-13
2.08991e-13
2.09642e-13
2.10309e-13
2.10996e-13
2.11704e-13
2.12433e-13
2.13176e-13
1.84427e-13
1.84927e-13
1.85439e-13
1.8596e-13
1.8649e-13
1.87027e-13
1.87571e-13
1.88121e-13
1.88675e-13
1.89234e-13
1.89797e-13
1.90363e-13
1.90931e-13