/*--------------------------------*- C++ -*----------------------------------*\
  =========                 |
  \\      /  F ield         | OpenFOAM: The Open Source CFD Toolbox
   \\    /   O peration     | Website:  https://openfoam.org
    \\  /    A nd           | Version:  7
     \\/     M anipulation  |
\*---------------------------------------------------------------------------*/
FoamFile
{
    version     2.0;
    format      ascii;
    class       volScalarField;
    location    "112000";
    object      strainRate;
}
// * * * * * * * * * * * * * * * * * * * * * * * * * * * * * * * * * * * * * //

dimensions      [0 0 -1 0 0 0 0];

internalField   nonuniform List<scalar> 
4782
(
0.0918338
0.0949719
0.0982754
0.101756
0.105427
0.109302
0.113396
0.117725
0.122308
0.127164
0.0295984
0.0302088
0.0308354
0.0314786
0.0321394
0.0328215
0.0335309
0.0342679
0.0350291
0.0358126
0.036618
0.0374458
0.0382968
0.0391719
0.0400726
0.0410002
0.0419561
0.0429418
0.0439589
0.0450091
0.046094
0.0472156
0.0483756
0.0495763
0.0508196
0.0521079
0.0534436
0.0548293
0.0562677
0.0577616
0.0593143
0.0609291
0.0626095
0.0643593
0.0661826
0.0680839
0.0700678
0.0721395
0.0743043
0.0765683
0.0789376
0.0814192
0.0840205
0.0867494
0.0896146
0.0926256
0.0957923
0.0991259
0.102638
0.106342
0.110252
0.114382
0.11875
0.123373
0.128271
0.0298413
0.0304569
0.0310887
0.0317375
0.0324051
0.0330966
0.0338159
0.0345614
0.0353298
0.0361198
0.0369316
0.0377657
0.0386232
0.0395052
0.040413
0.0413481
0.0423119
0.0433059
0.0443317
0.0453909
0.0464854
0.0476168
0.0487873
0.0499987
0.0512533
0.0525533
0.0539013
0.0552997
0.0567514
0.0582592
0.0598263
0.0614562
0.0631523
0.0649185
0.0667591
0.0686783
0.070681
0.0727722
0.0749576
0.0772429
0.0796348
0.0821399
0.0847659
0.0875206
0.090413
0.0934524
0.096649
0.100014
0.103559
0.107297
0.111243
0.115412
0.119819
0.124484
0.129426
0.0300923
0.0307135
0.0313512
0.0320062
0.0326824
0.0333855
0.0341155
0.034869
0.0356438
0.0364398
0.0372575
0.0380977
0.0389616
0.0398505
0.0407657
0.0417086
0.0426806
0.0436833
0.0447182
0.0457869
0.0468913
0.0480332
0.0492144
0.0504371
0.0517035
0.0530158
0.0543766
0.0557883
0.0572539
0.0587762
0.0603585
0.0620041
0.0637167
0.0655002
0.0673587
0.0692967
0.071319
0.0734308
0.0756377
0.0779455
0.0803609
0.0828907
0.0855425
0.0883243
0.0912451
0.0943142
0.097542
0.10094
0.104519
0.108294
0.112277
0.116485
0.120935
0.125643
0.130631
0.0303715
0.0309978
0.0316458
0.0323171
0.0330105
0.033725
0.0344605
0.035217
0.035995
0.0367948
0.0376172
0.0384631
0.0393334
0.0402293
0.041152
0.0421029
0.0430834
0.0440949
0.0451391
0.0462176
0.0473322
0.0484846
0.049677
0.0509113
0.0521898
0.0535147
0.0548886
0.0563141
0.057794
0.0593313
0.0609292
0.0625912
0.0643209
0.0661222
0.0679994
0.0699569
0.0719996
0.0741328
0.076362
0.0786933
0.0811332
0.0836888
0.0863675
0.0891777
0.0921281
0.0952284
0.0984889
0.101921
0.105536
0.109348
0.113372
0.117621
0.122114
0.126868
0.131904
0.0303715
0.0309978
0.0316458
0.0323171
0.0330105
0.033725
0.0344605
0.035217
0.035995
0.0367948
0.0376172
0.0384631
0.0393334
0.0402293
0.041152
0.0421029
0.0430834
0.0440949
0.0451391
0.0462176
0.0473322
0.0484846
0.049677
0.0509113
0.0521898
0.0535147
0.0548886
0.0563141
0.057794
0.0593313
0.0609292
0.0625912
0.0643209
0.0661222
0.0679994
0.0699569
0.0719996
0.0741328
0.076362
0.0786933
0.0811332
0.0836888
0.0863676
0.0891777
0.0921281
0.0952284
0.0984889
0.101921
0.105536
0.109348
0.113372
0.117621
0.122114
0.126868
0.131904
0.0300923
0.0307135
0.0313512
0.0320062
0.0326824
0.0333855
0.0341155
0.034869
0.0356438
0.0364398
0.0372575
0.0380977
0.0389616
0.0398505
0.0407657
0.0417086
0.0426806
0.0436833
0.0447182
0.0457869
0.0468913
0.0480332
0.0492144
0.0504371
0.0517035
0.0530158
0.0543766
0.0557883
0.0572539
0.0587762
0.0603585
0.0620041
0.0637168
0.0655002
0.0673587
0.0692967
0.071319
0.0734308
0.0756377
0.0779456
0.0803609
0.0828907
0.0855425
0.0883243
0.0912451
0.0943142
0.097542
0.10094
0.104519
0.108294
0.112277
0.116485
0.120935
0.125643
0.130631
0.135918
0.141528
0.147486
0.153817
0.0298413
0.0304569
0.0310887
0.0317375
0.0324051
0.0330965
0.0338159
0.0345614
0.0353298
0.0361198
0.0369316
0.0377657
0.0386232
0.0395052
0.040413
0.0413481
0.0423119
0.0433059
0.0443317
0.0453909
0.0464854
0.0476169
0.0487873
0.0499987
0.0512533
0.0525533
0.0539013
0.0552997
0.0567514
0.0582592
0.0598263
0.0614562
0.0631523
0.0649186
0.0667591
0.0686783
0.070681
0.0727722
0.0749576
0.077243
0.0796348
0.0821399
0.0847659
0.0875206
0.090413
0.0934524
0.0966489
0.100014
0.103559
0.107297
0.111243
0.115412
0.119819
0.124484
0.129426
0.134666
0.140226
0.146132
0.152409
0.159087
0.0295984
0.0302088
0.0308354
0.0314786
0.0321394
0.0328215
0.0335309
0.0342679
0.0350291
0.0358126
0.036618
0.0374458
0.0382968
0.0391719
0.0400726
0.0410002
0.0419561
0.0429418
0.0439589
0.0450091
0.046094
0.0472156
0.0483756
0.0495763
0.0508196
0.0521079
0.0534437
0.0548293
0.0562677
0.0577617
0.0593144
0.0609291
0.0626095
0.0643593
0.0661826
0.0680839
0.0700678
0.0721395
0.0743043
0.0765682
0.0789376
0.0814192
0.0840205
0.0867494
0.0896146
0.0926256
0.0957923
0.0991258
0.102638
0.106342
0.110252
0.114382
0.11875
0.123373
0.128271
0.133465
0.138978
0.144833
0.151058
0.157682
0.164733
0.172246
0.180253
0.188792
0.197899
0.207612
0.21797
0.229013
0.240786
0.253376
0.267079
0.282196
0.298624
0.31617
0.334764
0.354273
0.374468
0.395005
0.415417
0.435135
0.453536
0.470027
0.48415
0.495664
0.504586
0.511166
0.51581
0.518986
0.52114
0.52264
0.523761
0.524682
0.52551
0.526298
0.527068
0.0293645
0.0299701
0.0305916
0.0312297
0.0318851
0.0325599
0.0332593
0.0339869
0.0347406
0.0355177
0.0363169
0.0371385
0.0379831
0.0388517
0.0397455
0.0406659
0.0416142
0.042592
0.0436008
0.0446423
0.0457182
0.0468303
0.0479805
0.0491708
0.0504034
0.0516805
0.0530046
0.0543781
0.0558038
0.0572846
0.0588235
0.0604238
0.0620892
0.0638233
0.0656303
0.0675144
0.0694805
0.0715334
0.0736786
0.075922
0.0782699
0.0807289
0.0833066
0.0860108
0.0888501
0.0918338
0.0949719
0.0982754
0.101756
0.105427
0.109302
0.113396
0.117725
0.122308
0.127164
0.132314
0.13778
0.143587
0.149762
0.156333
0.16333
0.170786
0.178736
0.187215
0.196262
0.205914
0.216212
0.227194
0.238908
0.251434
0.265039
0.280027
0.296357
0.31385
0.332415
0.351926
0.372163
0.392791
0.413348
0.433263
0.451905
0.468666
0.483064
0.494833
0.503972
0.510722
0.515487
0.518743
0.520946
0.522475
0.523612
0.524543
0.525377
0.526171
0.526947
0.0291404
0.0297414
0.0303582
0.0309914
0.0316417
0.0323098
0.0330002
0.0337188
0.0344651
0.0352356
0.0360287
0.0368443
0.0376827
0.038545
0.0394322
0.0403457
0.0412868
0.042257
0.043258
0.0442912
0.0453585
0.0464616
0.0476024
0.048783
0.0500054
0.0512719
0.0525848
0.0539468
0.0553604
0.0568286
0.0583543
0.059941
0.0615921
0.0633113
0.0651026
0.0669704
0.0689194
0.0709545
0.073081
0.0753048
0.0776322
0.0800698
0.0826249
0.0853055
0.08812
0.0910776
0.0941884
0.0974633
0.100914
0.104553
0.108395
0.112454
0.116747
0.121291
0.126106
0.131214
0.136635
0.142396
0.148522
0.155043
0.161987
0.169389
0.177283
0.185705
0.194694
0.204287
0.214526
0.225451
0.237108
0.249573
0.263083
0.277946
0.294179
0.311617
0.330151
0.34966
0.369934
0.390644
0.411335
0.431437
0.45031
0.467331
0.481994
0.494013
0.503366
0.510282
0.515168
0.518503
0.520755
0.522312
0.523464
0.524405
0.525246
0.526046
0.526827
0.0289262
0.0295229
0.0301351
0.0307637
0.0314091
0.0320722
0.0327557
0.0334649
0.0342024
0.0349661
0.0357532
0.0365631
0.0373958
0.0382521
0.0391331
0.0400401
0.0409744
0.0419375
0.0429309
0.0439564
0.0450155
0.0461101
0.047242
0.0484133
0.049626
0.0508824
0.0521848
0.0535358
0.054938
0.0563942
0.0579075
0.0594811
0.0611186
0.0628236
0.0646001
0.0664524
0.0683851
0.0704032
0.072512
0.0747172
0.077025
0.0794421
0.0819758
0.0846339
0.0874247
0.0903576
0.0934424
0.0966898
0.100112
0.103721
0.10753
0.111556
0.115814
0.120322
0.125098
0.130165
0.135544
0.141261
0.147341
0.153812
0.160707
0.168057
0.175897
0.184264
0.193196
0.202733
0.212915
0.223784
0.235385
0.24779
0.26121
0.275951
0.292091
0.309475
0.327976
0.34748
0.367784
0.38857
0.409386
0.429664
0.448757
0.466027
0.480948
0.493209
0.502771
0.509851
0.514855
0.518269
0.520568
0.522153
0.523321
0.524271
0.525119
0.525925
0.526711
0.0287224
0.0293149
0.0299229
0.0305471
0.031188
0.0318464
0.0325235
0.033224
0.0339533
0.0347102
0.0354915
0.0362957
0.0371228
0.0379735
0.0388486
0.0397494
0.0406773
0.0416337
0.0426201
0.0436381
0.0446895
0.045776
0.0468996
0.0480621
0.0492656
0.0505125
0.0518049
0.0531455
0.0545368
0.0559817
0.0574832
0.0590446
0.0606691
0.0623606
0.0641231
0.0659607
0.067878
0.0698799
0.0719718
0.0741594
0.0764487
0.0788464
0.0813597
0.0839963
0.0867647
0.089674
0.092734
0.0959555
0.09935
0.10293
0.10671
0.110704
0.114928
0.119401
0.124141
0.129169
0.134508
0.140182
0.146217
0.152643
0.159489
0.166789
0.174578
0.182892
0.19177
0.201253
0.21138
0.222195
0.233742
0.246089
0.259421
0.274048
0.290098
0.307427
0.325894
0.34539
0.36572
0.386573
0.407506
0.427949
0.447251
0.46476
0.479929
0.492425
0.50219
0.509431
0.514551
0.518042
0.520389
0.522001
0.523184
0.524143
0.524998
0.525808
0.5266
0.028529
0.0291176
0.0297216
0.0303416
0.0309782
0.0316322
0.0323042
0.0329979
0.0337187
0.0344681
0.0352433
0.0360421
0.0368639
0.0377093
0.0385789
0.039474
0.0403958
0.0413458
0.0423256
0.0433367
0.0443809
0.0454598
0.0465754
0.0477296
0.0489245
0.0501624
0.0514454
0.0527762
0.0541573
0.0555915
0.0570818
0.0586315
0.0602439
0.0619227
0.0636718
0.0654955
0.0673982
0.0693849
0.0714609
0.0736316
0.0759034
0.0782827
0.0807767
0.0833932
0.0861403
0.0890273
0.0920638
0.0952606
0.0986292
0.102182
0.105933
0.109897
0.11409
0.118529
0.123234
0.128225
0.133526
0.139159
0.145153
0.151534
0.158335
0.165588
0.173327
0.181591
0.190418
0.199848
0.209923
0.220685
0.23218
0.244471
0.257721
0.272238
0.288201
0.305477
0.323909
0.343394
0.363746
0.384661
0.405701
0.426299
0.445799
0.463535
0.478942
0.491665
0.501627
0.509025
0.514258
0.517824
0.520216
0.521855
0.523053
0.524021
0.524882
0.525698
0.526494
0.0283463
0.0289313
0.0295315
0.0301476
0.0307802
0.0314299
0.0320976
0.0327854
0.0334982
0.03424
0.0350092
0.0358027
0.0366195
0.0374598
0.0383243
0.0392139
0.0401301
0.0410742
0.0420478
0.0430524
0.0440897
0.0451615
0.0462697
0.0474161
0.0486029
0.0498322
0.0511065
0.052428
0.0537994
0.0552236
0.0567034
0.0582421
0.059843
0.0615098
0.0632464
0.065057
0.066946
0.0689184
0.0709792
0.0731343
0.0753895
0.0777515
0.0802273
0.0828246
0.0855517
0.0884176
0.091432
0.0946055
0.0979496
0.101477
0.105201
0.109136
0.113299
0.117707
0.122379
0.127335
0.132599
0.138195
0.144148
0.150488
0.157245
0.164453
0.172146
0.180362
0.189139
0.19852
0.208545
0.219257
0.230703
0.24294
0.25611
0.270523
0.286403
0.303628
0.322025
0.341498
0.361867
0.382837
0.403976
0.424718
0.444404
0.462356
0.47799
0.490931
0.501083
0.508632
0.513975
0.517614
0.520052
0.521716
0.522929
0.523905
0.524772
0.525593
0.526394
0.0281746
0.0287561
0.0293527
0.0299652
0.030594
0.0312399
0.0319036
0.0325859
0.0332914
0.0340261
0.0347896
0.035578
0.03639
0.0372254
0.038085
0.0389695
0.0398804
0.040819
0.0417867
0.0427852
0.0438162
0.0448813
0.0459825
0.0471217
0.0483008
0.0495223
0.0507882
0.052101
0.0534635
0.0548782
0.0563481
0.0578765
0.0594667
0.0611223
0.0628471
0.0646453
0.0665215
0.0684804
0.0705271
0.0726673
0.074907
0.0772527
0.0797115
0.0822909
0.0849991
0.0878452
0.0908388
0.0939904
0.0973116
0.100815
0.104513
0.108422
0.112556
0.116935
0.121576
0.1265
0.131729
0.137289
0.143205
0.149505
0.156222
0.163387
0.171035
0.179206
0.187937
0.19727
0.207248
0.217913
0.229311
0.241497
0.254592
0.268907
0.284709
0.301883
0.320245
0.339704
0.360088
0.381107
0.402335
0.423212
0.443072
0.461228
0.477078
0.490227
0.500561
0.508256
0.513705
0.517415
0.519896
0.521585
0.522812
0.523796
0.524669
0.525494
0.5263
0.0280138
0.028592
0.0291854
0.0297944
0.0304197
0.0310619
0.0317218
0.0324001
0.0331002
0.0338277
0.0345843
0.0353675
0.0361748
0.0370058
0.0378609
0.0387408
0.0396468
0.0405802
0.0415425
0.0425354
0.0435604
0.0446193
0.045714
0.0468464
0.0480185
0.0492325
0.0504907
0.0517954
0.0531494
0.0545553
0.0560161
0.0575349
0.059115
0.06076
0.0624739
0.0642606
0.0661248
0.068071
0.0701046
0.072231
0.0744562
0.0767867
0.0792295
0.0817921
0.0844827
0.0873103
0.0902845
0.0934157
0.0967153
0.100196
0.10387
0.107754
0.111862
0.116213
0.120825
0.125718
0.130916
0.136442
0.142322
0.148586
0.155264
0.162389
0.169997
0.178124
0.186812
0.196101
0.206034
0.216654
0.228007
0.240145
0.25317
0.267393
0.28312
0.300246
0.318573
0.338017
0.358411
0.379474
0.400785
0.421786
0.441808
0.460155
0.476208
0.489555
0.500063
0.507896
0.513447
0.517225
0.519747
0.52146
0.5227
0.523693
0.524571
0.525401
0.52621
0.0278641
0.0284394
0.0290296
0.0296355
0.0302575
0.0308964
0.0315527
0.0322274
0.0329226
0.0336435
0.0343938
0.0351719
0.0359748
0.0368016
0.0376524
0.0385279
0.0394294
0.040358
0.0413154
0.042303
0.0433225
0.0443757
0.0454643
0.0465904
0.0477559
0.048963
0.050214
0.0515113
0.0528574
0.0542551
0.0557074
0.0572172
0.058788
0.0604233
0.0621269
0.063903
0.0657559
0.0676904
0.0697117
0.0718252
0.074037
0.0763533
0.0787812
0.0813283
0.0840025
0.0868129
0.089769
0.0928812
0.0961608
0.0996202
0.103273
0.107133
0.111217
0.115542
0.120127
0.124991
0.130159
0.135654
0.141501
0.147731
0.154373
0.16146
0.169029
0.177117
0.185764
0.195011
0.204902
0.21548
0.226791
0.238886
0.251856
0.266004
0.281651
0.298719
0.317013
0.33644
0.356842
0.377943
0.399328
0.420442
0.440615
0.459139
0.475383
0.488915
0.499587
0.507552
0.5132
0.517042
0.519604
0.52134
0.522593
0.523593
0.524476
0.52531
0.526124
0.0277256
0.0282982
0.0288856
0.0294885
0.0301075
0.0307433
0.0313964
0.0320678
0.0327585
0.0334734
0.0342179
0.0349914
0.0357901
0.0366129
0.0374597
0.0383312
0.0392284
0.0401526
0.0411054
0.0420881
0.0431026
0.0441504
0.0452335
0.0463538
0.0475132
0.048714
0.0499583
0.0512487
0.0525876
0.0539777
0.055422
0.0569236
0.0584857
0.060112
0.0618062
0.0635724
0.065415
0.0673387
0.0693487
0.0714503
0.0736496
0.0759528
0.078367
0.0808996
0.0835588
0.0863533
0.0892926
0.0923872
0.0956483
0.0990882
0.10272
0.106559
0.11062
0.114921
0.119481
0.124319
0.129459
0.134925
0.140742
0.14694
0.153548
0.160601
0.168134
0.176185
0.184794
0.194002
0.203854
0.214393
0.225665
0.237722
0.250651
0.264737
0.280301
0.297306
0.315566
0.334976
0.355383
0.376517
0.397969
0.419186
0.439496
0.458184
0.474606
0.488311
0.499137
0.507227
0.512965
0.516868
0.519468
0.521225
0.52249
0.523497
0.524384
0.525223
0.52604
0.0275984
0.0281685
0.0287533
0.0293535
0.0299698
0.0306027
0.0312529
0.0319211
0.0326083
0.0333184
0.0340574
0.0348258
0.0356204
0.0364395
0.0372826
0.0381504
0.0390438
0.039964
0.0409125
0.0418909
0.0429007
0.0439437
0.0450217
0.0461366
0.0472905
0.0484854
0.0497237
0.0510077
0.0523399
0.0537232
0.0551602
0.0566542
0.0582085
0.0598265
0.061512
0.0632691
0.0651023
0.0670161
0.0690156
0.0711063
0.0732941
0.0755854
0.077987
0.0805064
0.0831517
0.0859316
0.0888556
0.0919341
0.0951782
0.0986003
0.102214
0.106033
0.110073
0.114352
0.118889
0.123703
0.128817
0.134256
0.140045
0.146214
0.152792
0.159813
0.167313
0.17533
0.183903
0.193076
0.202891
0.213394
0.22463
0.236652
0.249544
0.263571
0.279059
0.296006
0.314233
0.333627
0.354037
0.3752
0.396712
0.418022
0.438458
0.457297
0.473882
0.487748
0.498717
0.506922
0.512746
0.516706
0.519341
0.521119
0.522395
0.523408
0.5243
0.525142
0.525963
0.0274826
0.0280503
0.0286328
0.0292306
0.0298443
0.0304746
0.0311222
0.0317876
0.0324719
0.0331781
0.0339118
0.0346753
0.035466
0.0362815
0.0371214
0.0379858
0.0388757
0.0397923
0.040737
0.0417113
0.0427169
0.0437555
0.0448289
0.045939
0.0470878
0.0482775
0.0495102
0.0507884
0.0521146
0.0534916
0.0549221
0.0564092
0.0579562
0.0595667
0.0612444
0.0629933
0.0648178
0.0667226
0.0687127
0.0707935
0.0729709
0.0752513
0.0776414
0.0801488
0.0827814
0.0855481
0.0884581
0.0915219
0.0947507
0.0981565
0.101753
0.105554
0.109575
0.113834
0.11835
0.123142
0.128234
0.133648
0.139412
0.145553
0.152104
0.159096
0.166565
0.174551
0.183092
0.192232
0.202015
0.212484
0.223688
0.235677
0.248534
0.262509
0.277927
0.29482
0.313017
0.332394
0.352806
0.373993
0.395559
0.416953
0.437503
0.456479
0.473214
0.487228
0.498329
0.506641
0.512544
0.516557
0.519225
0.521021
0.522307
0.523327
0.524223
0.525068
0.525892
0.0273783
0.0279439
0.0285243
0.0291199
0.0297313
0.0303593
0.0310044
0.0316674
0.032349
0.0330517
0.0337808
0.0345398
0.035327
0.0361394
0.0369762
0.0378375
0.0387243
0.0396376
0.0405789
0.0415496
0.0425514
0.0435861
0.0446553
0.045761
0.0469053
0.0480902
0.049318
0.050591
0.0519118
0.0532831
0.0547076
0.0561886
0.0577291
0.0593329
0.0610034
0.062745
0.0645617
0.0664584
0.0684399
0.0705118
0.0726799
0.0749505
0.0773303
0.0798269
0.0824482
0.0852028
0.0881003
0.0911509
0.0943658
0.097757
0.101338
0.105123
0.109127
0.113368
0.117865
0.122637
0.127708
0.1331
0.138841
0.144958
0.151483
0.158449
0.165892
0.173849
0.182362
0.191472
0.201224
0.211664
0.222837
0.234797
0.247622
0.261549
0.276904
0.293748
0.311918
0.331279
0.351691
0.372901
0.394513
0.415982
0.436634
0.455735
0.472606
0.486753
0.497975
0.506385
0.51236
0.516422
0.519119
0.520933
0.522229
0.523254
0.524153
0.525002
0.525829
0.0272854
0.0278492
0.0284277
0.0290213
0.0296308
0.0302567
0.0308996
0.0315604
0.0322398
0.0329394
0.0336643
0.0344194
0.0352034
0.036013
0.036847
0.0377057
0.0385896
0.0395001
0.0404383
0.0414058
0.0424042
0.0434353
0.0445009
0.0456028
0.046743
0.0479237
0.049147
0.0504154
0.0517314
0.0530976
0.054517
0.0559924
0.0575272
0.0591249
0.0607892
0.0625242
0.064334
0.0662234
0.0681975
0.0702614
0.0724212
0.074683
0.0770537
0.0795407
0.0821519
0.0848959
0.0877823
0.0908211
0.0940236
0.0974018
0.100969
0.104739
0.108729
0.112954
0.117434
0.122188
0.12724
0.132613
0.138333
0.144429
0.150932
0.157874
0.165293
0.173225
0.181711
0.190795
0.200521
0.210933
0.22208
0.234013
0.246809
0.260694
0.275993
0.292793
0.310937
0.330284
0.350696
0.371924
0.393577
0.415112
0.435855
0.455066
0.472058
0.486326
0.497656
0.506155
0.512194
0.5163
0.519025
0.520854
0.522159
0.523188
0.524091
0.524943
0.525772
0.027204
0.0277663
0.0283431
0.028935
0.0295427
0.0301668
0.0308079
0.0314668
0.0321441
0.0328411
0.0335624
0.0343141
0.0350953
0.0359023
0.036734
0.0375903
0.0384718
0.0393796
0.0403151
0.0412799
0.0422754
0.0433034
0.0443657
0.0454642
0.0466009
0.0477779
0.0489974
0.0502618
0.0515736
0.0529354
0.0543501
0.0558207
0.0573505
0.0589429
0.0606017
0.0623309
0.0641348
0.0660179
0.0679853
0.0700423
0.0721948
0.074449
0.0768117
0.0792902
0.0818926
0.0846273
0.0875039
0.0905325
0.0937241
0.0970909
0.100646
0.104404
0.10838
0.112591
0.117056
0.121795
0.126831
0.132187
0.137889
0.143966
0.150449
0.157371
0.164768
0.172678
0.181142
0.190202
0.199904
0.210293
0.221416
0.233325
0.246097
0.259945
0.275194
0.291956
0.310077
0.329411
0.349822
0.371065
0.392753
0.414346
0.435168
0.454476
0.471574
0.485949
0.497374
0.505951
0.512048
0.516194
0.518942
0.520785
0.522097
0.523131
0.524037
0.524891
0.525723
0.0271343
0.0276951
0.0282705
0.028861
0.0294672
0.0300897
0.0307292
0.0313864
0.032062
0.0327569
0.0334756
0.0342242
0.0350026
0.0358074
0.036637
0.0374912
0.0383706
0.0392763
0.0402095
0.0411719
0.0421649
0.0431903
0.0442498
0.0453454
0.0464791
0.0476529
0.0488691
0.0501301
0.0514382
0.0527963
0.054207
0.0556735
0.057199
0.058787
0.0604411
0.0621653
0.063964
0.0658417
0.0678034
0.0698545
0.0720007
0.0742484
0.0766042
0.0790756
0.0816703
0.0843971
0.0872653
0.0902851
0.0934674
0.0968245
0.100369
0.104116
0.108081
0.11228
0.116733
0.121459
0.12648
0.131821
0.137508
0.143569
0.150035
0.156939
0.164318
0.172209
0.180653
0.189694
0.199375
0.209744
0.220846
0.232735
0.245486
0.259301
0.274508
0.291236
0.309338
0.32866
0.34907
0.370326
0.392044
0.413685
0.434574
0.453966
0.471156
0.485622
0.49713
0.505774
0.511922
0.516101
0.518871
0.520726
0.522044
0.523082
0.523991
0.524846
0.52568
0.0270761
0.0276358
0.02821
0.0287993
0.0294042
0.0300254
0.0306636
0.0313194
0.0319935
0.032687
0.0334036
0.0341495
0.0349255
0.0357282
0.036556
0.0374085
0.0382862
0.0391901
0.0401214
0.0410818
0.0420727
0.0430959
0.0441532
0.0452464
0.0463776
0.0475488
0.0487622
0.0500203
0.0513254
0.0526803
0.0540878
0.0555509
0.0570728
0.058657
0.0603071
0.0620273
0.0638216
0.0656948
0.0676518
0.069698
0.071839
0.0740812
0.0764314
0.0788967
0.0814851
0.0842053
0.0870665
0.0900789
0.0932535
0.0966024
0.100139
0.103877
0.107832
0.112021
0.116463
0.121178
0.126188
0.131516
0.13719
0.143238
0.14969
0.156579
0.163943
0.171818
0.180246
0.189269
0.198934
0.209285
0.220371
0.232243
0.244975
0.258763
0.273935
0.290636
0.308721
0.328033
0.348441
0.369707
0.39145
0.413132
0.434077
0.453538
0.470805
0.485347
0.496925
0.505626
0.511816
0.516024
0.518811
0.520676
0.522
0.523041
0.523952
0.524809
0.525645
0.0270295
0.0275883
0.0281616
0.0287499
0.0293538
0.029974
0.030611
0.0312657
0.0319388
0.032631
0.0333461
0.0340899
0.0348638
0.0356649
0.0364913
0.0373424
0.0382186
0.0391211
0.0400509
0.0410097
0.041999
0.0430204
0.0440759
0.0451672
0.0462963
0.0474654
0.0486767
0.0499324
0.0512352
0.0525876
0.0539924
0.0554528
0.0569718
0.058553
0.0602
0.0619168
0.0637078
0.0655774
0.0675306
0.0695728
0.0717097
0.0739475
0.076293
0.0787535
0.0813369
0.0840518
0.0869074
0.0899139
0.0930824
0.0964248
0.0999542
0.103685
0.107632
0.111814
0.116247
0.120953
0.125954
0.131273
0.136936
0.142973
0.149413
0.156291
0.163642
0.171505
0.179919
0.18893
0.198581
0.208918
0.21999
0.231849
0.244566
0.258333
0.273476
0.290155
0.308226
0.32753
0.347937
0.369211
0.390973
0.412687
0.433677
0.453193
0.470522
0.485126
0.49676
0.505507
0.511731
0.515962
0.518763
0.520636
0.521965
0.523009
0.523921
0.52478
0.525616
0.0269945
0.0275527
0.0281252
0.0287128
0.029316
0.0299354
0.0305716
0.0312255
0.0318977
0.032589
0.0333029
0.0340451
0.0348175
0.0356175
0.0364427
0.0372928
0.038168
0.0390693
0.0399981
0.0409556
0.0419437
0.0429638
0.0440179
0.0451078
0.0462354
0.0474029
0.0486125
0.0498665
0.0511675
0.052518
0.0539209
0.0553792
0.0568961
0.058475
0.0601196
0.061834
0.0636224
0.0654892
0.0674396
0.0694788
0.0716126
0.0738472
0.0761893
0.0786462
0.0812258
0.0839367
0.0867881
0.0897902
0.092954
0.0962915
0.0998158
0.103541
0.107483
0.111658
0.116085
0.120785
0.125778
0.13109
0.136746
0.142774
0.149206
0.156075
0.163417
0.17127
0.179675
0.188675
0.198315
0.208643
0.219705
0.231553
0.244259
0.25801
0.273132
0.289794
0.307855
0.327152
0.347558
0.368838
0.390614
0.412352
0.433377
0.452934
0.470309
0.48496
0.496636
0.505417
0.511667
0.515915
0.518727
0.520607
0.521938
0.522984
0.523898
0.524758
0.525595
0.0269712
0.0275289
0.028101
0.0286881
0.0292907
0.0299096
0.0305454
0.0311987
0.0318703
0.032561
0.0332742
0.0340153
0.0347867
0.0355858
0.0364104
0.0372597
0.0381342
0.0390348
0.0399628
0.0409196
0.0419068
0.0429261
0.0439792
0.0450681
0.0461948
0.0473612
0.0485697
0.0498226
0.0511224
0.0524716
0.0538732
0.0553301
0.0568455
0.058423
0.0600661
0.0617788
0.0635654
0.0654305
0.067379
0.0694162
0.071548
0.0737804
0.0761202
0.0785746
0.0811517
0.0838599
0.0867085
0.0897077
0.0928685
0.0962027
0.0997235
0.103445
0.107383
0.111554
0.115977
0.120672
0.125661
0.130968
0.136618
0.142642
0.149068
0.155931
0.163267
0.171113
0.179511
0.188505
0.198139
0.208459
0.219514
0.231355
0.244054
0.257794
0.272902
0.289553
0.307607
0.3269
0.347306
0.368589
0.390375
0.412129
0.433175
0.452761
0.470166
0.484848
0.496553
0.505357
0.511624
0.515884
0.518703
0.520587
0.521921
0.522968
0.523882
0.524743
0.525581
0.0269596
0.027517
0.0280889
0.0286757
0.0292781
0.0298967
0.0305322
0.0311853
0.0318566
0.0325471
0.0332598
0.0340004
0.0347713
0.03557
0.0363942
0.0372432
0.0381173
0.0390176
0.0399452
0.0409016
0.0418883
0.0429072
0.0439599
0.0450483
0.0461744
0.0473404
0.0485483
0.0498006
0.0510998
0.0524484
0.0538493
0.0553056
0.0568203
0.058397
0.0600393
0.0617512
0.063537
0.0654011
0.0673487
0.0693849
0.0715156
0.0737469
0.0760856
0.0785389
0.0811147
0.0838215
0.0866688
0.0896665
0.0928257
0.0961583
0.0996774
0.103397
0.107333
0.111502
0.115923
0.120616
0.125602
0.130907
0.136555
0.142575
0.148999
0.155859
0.163191
0.171035
0.17943
0.18842
0.19805
0.208367
0.219419
0.231257
0.243952
0.257686
0.272787
0.289432
0.307483
0.326774
0.347179
0.368465
0.390255
0.412017
0.433075
0.452674
0.470095
0.484793
0.496511
0.505327
0.511603
0.515868
0.518691
0.520577
0.521912
0.52296
0.523875
0.524735
0.525574
0.0269596
0.027517
0.0280889
0.0286757
0.0292781
0.0298967
0.0305322
0.0311853
0.0318566
0.0325471
0.0332598
0.0340004
0.0347713
0.03557
0.0363942
0.0372432
0.0381173
0.0390176
0.0399452
0.0409016
0.0418883
0.0429072
0.0439599
0.0450483
0.0461745
0.0473404
0.0485483
0.0498006
0.0510998
0.0524484
0.0538493
0.0553056
0.0568203
0.058397
0.0600393
0.0617512
0.0635369
0.0654011
0.0673487
0.0693849
0.0715156
0.0737469
0.0760856
0.0785389
0.0811147
0.0838215
0.0866688
0.0896665
0.0928257
0.0961583
0.0996774
0.103397
0.107333
0.111502
0.115923
0.120616
0.125602
0.130907
0.136555
0.142575
0.148999
0.155859
0.163191
0.171035
0.17943
0.18842
0.19805
0.208367
0.219419
0.231257
0.243952
0.257686
0.272787
0.289432
0.307483
0.326774
0.347179
0.368465
0.390255
0.412017
0.433075
0.452674
0.470095
0.484793
0.496511
0.505327
0.511603
0.515868
0.518691
0.520577
0.521912
0.52296
0.523875
0.524735
0.525574
0.0269712
0.0275289
0.028101
0.0286881
0.0292907
0.0299096
0.0305454
0.0311987
0.0318703
0.032561
0.0332742
0.0340153
0.0347867
0.0355859
0.0364104
0.0372597
0.0381342
0.0390348
0.0399628
0.0409196
0.0419068
0.0429261
0.0439792
0.0450681
0.0461948
0.0473612
0.0485697
0.0498226
0.0511224
0.0524716
0.0538732
0.0553301
0.0568455
0.058423
0.0600661
0.0617788
0.0635654
0.0654305
0.067379
0.0694162
0.0715479
0.0737803
0.0761201
0.0785746
0.0811517
0.0838599
0.0867085
0.0897077
0.0928685
0.0962027
0.0997235
0.103445
0.107383
0.111554
0.115977
0.120672
0.125661
0.130968
0.136618
0.142642
0.149068
0.155931
0.163267
0.171113
0.179511
0.188505
0.198139
0.208459
0.219514
0.231355
0.244054
0.257794
0.272902
0.289553
0.307607
0.3269
0.347306
0.368589
0.390375
0.412129
0.433175
0.452761
0.470166
0.484848
0.496553
0.505357
0.511624
0.515884
0.518703
0.520587
0.521921
0.522968
0.523882
0.524743
0.525581
0.0269945
0.0275527
0.0281252
0.0287128
0.029316
0.0299354
0.0305716
0.0312255
0.0318977
0.032589
0.0333029
0.0340451
0.0348175
0.0356175
0.0364428
0.0372928
0.038168
0.0390693
0.0399981
0.0409557
0.0419437
0.0429638
0.0440179
0.0451078
0.0462354
0.0474029
0.0486125
0.0498665
0.0511675
0.052518
0.0539209
0.0553792
0.0568961
0.058475
0.0601196
0.061834
0.0636223
0.0654892
0.0674396
0.0694788
0.0716126
0.0738472
0.0761893
0.0786462
0.0812258
0.0839366
0.0867881
0.0897902
0.092954
0.0962915
0.0998158
0.103541
0.107483
0.111658
0.116085
0.120785
0.125778
0.13109
0.136746
0.142774
0.149206
0.156075
0.163417
0.17127
0.179675
0.188675
0.198315
0.208643
0.219705
0.231553
0.244259
0.25801
0.273132
0.289794
0.307855
0.327152
0.347558
0.368838
0.390614
0.412352
0.433377
0.452934
0.470309
0.48496
0.496636
0.505417
0.511667
0.515915
0.518728
0.520607
0.521939
0.522984
0.523898
0.524758
0.525595
0.0270295
0.0275883
0.0281616
0.0287499
0.0293538
0.029974
0.030611
0.0312657
0.0319388
0.032631
0.0333461
0.0340899
0.0348638
0.035665
0.0364913
0.0373424
0.0382187
0.0391211
0.040051
0.0410097
0.041999
0.0430205
0.0440759
0.0451672
0.0462963
0.0474654
0.0486767
0.0499324
0.0512352
0.0525876
0.0539924
0.0554528
0.0569718
0.058553
0.0602
0.0619168
0.0637078
0.0655773
0.0675306
0.0695728
0.0717097
0.0739475
0.076293
0.0787535
0.0813369
0.0840518
0.0869074
0.0899139
0.0930824
0.0964248
0.0999542
0.103685
0.107632
0.111814
0.116247
0.120953
0.125954
0.131273
0.136936
0.142973
0.149413
0.156291
0.163642
0.171505
0.179919
0.18893
0.198581
0.208918
0.21999
0.231849
0.244566
0.258333
0.273476
0.290155
0.308226
0.32753
0.347937
0.369211
0.390973
0.412687
0.433677
0.453193
0.470522
0.485127
0.49676
0.505507
0.511731
0.515962
0.518764
0.520637
0.521965
0.523009
0.523921
0.52478
0.525617
0.0270761
0.0276358
0.02821
0.0287993
0.0294042
0.0300254
0.0306636
0.0313194
0.0319936
0.032687
0.0334037
0.0341495
0.0349255
0.0357283
0.0365561
0.0374085
0.0382862
0.0391901
0.0401215
0.0410818
0.0420727
0.0430959
0.0441532
0.0452464
0.0463776
0.0475488
0.0487622
0.0500203
0.0513254
0.0526803
0.0540878
0.0555509
0.0570728
0.058657
0.0603071
0.0620273
0.0638216
0.0656948
0.0676518
0.069698
0.071839
0.0740812
0.0764313
0.0788967
0.0814851
0.0842052
0.0870665
0.0900789
0.0932535
0.0966024
0.100139
0.103877
0.107832
0.112021
0.116463
0.121178
0.126188
0.131516
0.13719
0.143238
0.14969
0.156579
0.163942
0.171818
0.180245
0.189269
0.198934
0.209285
0.220371
0.232243
0.244975
0.258763
0.273935
0.290636
0.308721
0.328033
0.348441
0.369707
0.39145
0.413132
0.434077
0.453538
0.470805
0.485347
0.496925
0.505626
0.511816
0.516024
0.518811
0.520676
0.522
0.523041
0.523952
0.524809
0.525645
0.0271343
0.0276951
0.0282705
0.028861
0.0294672
0.0300897
0.0307292
0.0313864
0.032062
0.032757
0.0334756
0.0342242
0.0350026
0.0358074
0.036637
0.0374912
0.0383706
0.0392763
0.0402095
0.0411719
0.0421649
0.0431903
0.0442498
0.0453455
0.0464791
0.047653
0.0488691
0.0501301
0.0514382
0.0527963
0.0542071
0.0556736
0.0571991
0.058787
0.0604411
0.0621653
0.063964
0.0658417
0.0678034
0.0698545
0.0720008
0.0742484
0.0766042
0.0790756
0.0816703
0.0843971
0.0872653
0.090285
0.0934674
0.0968245
0.100369
0.104116
0.108081
0.11228
0.116733
0.121458
0.12648
0.131821
0.137508
0.143569
0.150035
0.156939
0.164318
0.172209
0.180653
0.189693
0.199375
0.209744
0.220846
0.232735
0.245485
0.259301
0.274508
0.291236
0.309338
0.32866
0.34907
0.370326
0.392044
0.413685
0.434574
0.453966
0.471156
0.485622
0.49713
0.505775
0.511922
0.516101
0.518871
0.520726
0.522044
0.523082
0.523991
0.524846
0.52568
0.0272041
0.0277663
0.0283431
0.028935
0.0295427
0.0301668
0.0308079
0.0314668
0.0321441
0.0328411
0.0335624
0.0343141
0.0350953
0.0359024
0.036734
0.0375903
0.0384718
0.0393796
0.0403152
0.0412799
0.0422754
0.0433034
0.0443657
0.0454643
0.0466009
0.0477779
0.0489974
0.0502618
0.0515736
0.0529354
0.0543501
0.0558207