/*--------------------------------*- C++ -*----------------------------------*\
  =========                 |
  \\      /  F ield         | OpenFOAM: The Open Source CFD Toolbox
   \\    /   O peration     | Website:  https://openfoam.org
    \\  /    A nd           | Version:  7
     \\/     M anipulation  |
\*---------------------------------------------------------------------------*/
FoamFile
{
    version     2.0;
    format      ascii;
    class       surfaceScalarField;
    location    "44000";
    object      phi;
}
// * * * * * * * * * * * * * * * * * * * * * * * * * * * * * * * * * * * * * //

dimensions      [0 3 -1 0 0 0 0];

internalField   nonuniform List<scalar> 
3429
(
7.75198e-24
4.66646e-22
-1.69055e-23
1.79265e-22
-8.61782e-24
4.99002e-22
2.07854e-23
-4.33752e-23
9.42199e-24
2.97278e-22
-9.34974e-24
-1.77201e-22
-9.40915e-24
1.54393e-22
-1.43154e-22
-1.0833e-23
4.56884e-24
3.06716e-22
-1.56263e-23
2.02957e-22
-9.77403e-24
4.8211e-22
1.67257e-23
-2.50673e-23
6.89384e-24
1.76388e-22
-4.95435e-24
-3.92162e-22
-4.45797e-24
-2.6701e-23
-3.81551e-22
-1.55049e-23
-6.78856e-24
4.04735e-23
-4.31541e-23
1.47079e-22
-6.61553e-23
-6.69647e-23
-2.66333e-23
2.34277e-24
-6.18086e-23
-1.56166e-22
-3.27869e-23
7.50158e-23
1.39217e-23
6.32069e-22
6.95546e-24
3.00513e-22
-1.74917e-23
2.35088e-22
-1.03399e-23
6.99048e-22
1.00105e-23
3.94701e-23
5.13071e-24
1.90053e-22
-8.49933e-24
-3.37166e-22
-5.65698e-24
-3.35292e-24
-2.51039e-22
-8.40418e-24
-5.24922e-23
3.39804e-22
-2.43693e-23
4.81998e-23
-6.68256e-24
4.76204e-22
-7.78425e-24
5.72502e-23
-4.22505e-23
1.80661e-22
-6.79622e-23
-2.25676e-22
-2.46676e-23
1.96217e-22
-5.79538e-23
-1.25062e-22
-2.60134e-23
-3.04149e-23
9.98971e-24
6.03477e-22
1.00444e-23
3.01102e-22
-1.51035e-23
7.45683e-23
-1.28799e-23
5.78474e-22
9.52423e-24
2.10065e-23
-2.52382e-25
2.24535e-22
-4.86097e-24
-4.73676e-22
-1.39183e-24
-1.66119e-22
-2.90925e-22
-3.114e-24
-5.52732e-23
3.71337e-22
-1.97814e-23
2.75071e-22
-1.1632e-23
4.37889e-22
-7.94453e-24
2.82132e-23
-4.30839e-23
-3.42256e-25
-6.47204e-23
-2.2336e-22
-2.67332e-23
1.40592e-22
-5.08797e-23
-1.11788e-22
-1.97288e-23
2.78722e-22
1.09707e-23
5.84039e-22
7.617e-24
3.13493e-22
-9.57772e-24
1.90195e-23
-1.71682e-23
3.99071e-22
1.09723e-23
-1.86593e-23
-7.15061e-24
1.75639e-22
-1.00055e-23
-3.26627e-22
2.64202e-24
-1.42868e-22
-2.8825e-22
9.78389e-25
-5.27632e-23
4.19022e-22
-1.92458e-23
2.21517e-22
-1.5746e-23
4.06599e-22
-1.04533e-23
2.66489e-22
-4.35458e-23
1.33247e-23
-5.88897e-23
-2.12275e-22
-3.02472e-23
9.4482e-23
-4.393e-23
-9.69141e-23
-1.81794e-23
4.12866e-23
1.02507e-23
5.7658e-22
4.53849e-24
4.08411e-22
-6.66976e-24
1.65105e-23
-2.1542e-23
3.7509e-22
1.04622e-23
1.1178e-22
-1.21486e-23
2.45978e-22
-8.21359e-24
-3.66e-22
5.29028e-24
8.24522e-23
-3.15767e-23
6.69437e-24
-5.33086e-23
4.60281e-22
-1.97867e-23
1.68384e-22
-1.52713e-23
2.05112e-22
-1.55421e-23
6.13188e-23
-4.36207e-23
1.94279e-23
-5.59067e-23
-1.94576e-22
-3.14823e-23
5.63856e-24
-3.80787e-23
-8.26255e-23
-1.4828e-23
1.81841e-23
9.05877e-24
5.57501e-22
3.44439e-24
4.07753e-22
-2.64106e-24
8.80259e-24
-2.29168e-23
1.60195e-22
1.18907e-23
-3.63495e-23
-1.81355e-23
4.36241e-23
-4.94742e-24
-2.60911e-22
7.25863e-24
9.03791e-23
-1.24496e-22
3.22499e-24
-5.67065e-23
3.18029e-22
-2.01118e-23
2.86395e-22
-1.5691e-23
1.89414e-22
-1.65923e-23
4.48705e-23
-4.49135e-23
-1.60645e-22
-5.28416e-23
-1.70209e-22
-3.03198e-23
8.49784e-23
-3.54971e-23
-1.02664e-22
-9.53597e-24
5.96748e-24
7.53958e-24
5.58076e-22
7.4444e-25
2.26823e-22
-3.24838e-24
1.27242e-22
-2.2489e-23
1.47838e-22
6.95052e-24
1.15496e-23
-1.78048e-23
1.78987e-23
-4.02976e-24
-5.80427e-23
7.73706e-24
1.04154e-22
-1.61475e-23
4.67876e-24
-5.69525e-23
1.61874e-22
-2.29323e-23
3.99251e-22
-1.61288e-23
1.78047e-22
-1.96859e-23
-1.50452e-22
-4.27461e-23
-1.46764e-22
-5.12083e-23
-1.50276e-22
-3.07724e-23
1.10885e-22
-3.23833e-23
-1.06802e-22
-3.09982e-24
-7.20121e-25
3.99875e-24
5.46791e-22
6.97614e-25
1.89562e-22
-4.52383e-24
3.64431e-22
-2.11398e-23
1.2714e-22
3.40936e-24
-1.17781e-22
-1.35847e-23
2.96751e-22
-4.88807e-24
-9.28164e-23
1.16539e-23
-5.18813e-23
-1.00051e-22
3.10885e-24
-5.48621e-23
-1.27494e-23
-2.57797e-23
3.61086e-22
-1.95617e-23
1.41839e-22
-1.93225e-23
-1.49514e-22
-4.13335e-23
-1.28748e-22
-4.5959e-23
-1.24011e-22
-3.28011e-23
1.45832e-22
-2.88127e-23
-1.28748e-22
1.38794e-24
9.48035e-23
1.70366e-24
6.18264e-22
5.43038e-24
1.24585e-22
-7.62911e-24
1.67864e-22
-2.28334e-23
1.21974e-22
8.05784e-24
-5.92971e-23
-1.86731e-23
4.36501e-22
-6.87335e-24
2.59188e-23
1.47165e-23
-2.26533e-23
-6.76139e-23
5.61305e-24
-5.3027e-23
-1.08249e-22
-2.81074e-23
3.30639e-22
-2.21969e-23
1.47199e-22
-1.84295e-23
-9.80528e-23
-4.03121e-23
-1.07897e-22
-4.19466e-23
-1.23111e-22
-3.45413e-23
2.50048e-23
-2.58849e-23
-2.24421e-22
5.86651e-24
2.02206e-22
-2.42725e-24
4.30289e-22
6.05048e-24
8.18507e-23
-7.57803e-24
3.0792e-22
-2.21525e-23
1.15734e-22
1.01041e-23
-6.12923e-23
-2.18784e-23
4.6293e-22
-9.87789e-24
1.15837e-22
1.4784e-23
2.60166e-22
-6.15399e-23
8.05779e-24
-5.29269e-24
1.50274e-22
-5.08366e-23
-2.02007e-22
-2.98169e-23
2.11544e-22
-2.31816e-23
1.37063e-22
-1.93229e-23
-1.2318e-22
-3.86929e-23
-1.37219e-22
-4.15356e-23
-2.06409e-22
-3.34706e-23
7.32206e-23
-2.21535e-23
-1.29868e-22
6.35469e-24
3.07153e-22
-1.91175e-24
5.06679e-22
6.27043e-24
1.8762e-22
-8.16264e-24
2.86474e-22
-2.22936e-23
-4.1929e-23
1.41647e-23
6.58063e-23
-2.30729e-23
3.92931e-22
-1.19498e-23
3.64784e-22
1.36786e-23
3.50648e-22
1.49439e-23
8.15764e-24
-5.50523e-24
2.79381e-22
-4.95691e-23
2.17879e-24
-3.04314e-23
-3.01083e-24
-2.38348e-23
4.35889e-23
-2.01946e-23
-2.24892e-22
-3.75857e-23
-7.23821e-24
-3.9576e-23
-5.43764e-23
-3.28604e-23
1.92554e-22
-1.75343e-23
-1.48576e-22
7.44417e-24
3.16934e-22
-3.09943e-24
4.97616e-22
6.62051e-24
3.26891e-23
-9.04014e-24
3.72902e-22
-2.06613e-23
-9.26755e-23
1.3228e-23
6.5389e-23
-2.25948e-23
3.90032e-22
-1.27754e-23
3.73225e-22
1.12908e-23
4.38661e-22
7.94914e-23
7.13762e-24
-7.5833e-24
1.89297e-22
-5.24099e-23
-1.06262e-22
-2.97548e-23
-6.58155e-23
-2.46242e-23
3.18554e-23
-1.83766e-23
-1.46087e-22
-3.47862e-23
3.22983e-23
-3.80962e-23
-1.5096e-22
-3.23312e-23
2.0377e-22
-1.55098e-23
7.59164e-24
9.36341e-24
4.03404e-22
-5.40235e-24
4.95881e-22
1.02018e-23
1.42509e-22
-9.9187e-24
3.79026e-22
-2.17262e-23
-1.75634e-22
1.78569e-23
9.48791e-23
-2.00748e-23
1.45076e-22
-1.47046e-23
2.7813e-22
9.4946e-24
4.60356e-22
3.31749e-22
5.50833e-24
-9.02404e-24
1.93809e-22
-5.40163e-23
-1.89815e-22
-2.99491e-23
-9.94847e-23
-2.35566e-23
-1.00499e-23
-1.71754e-23
-1.52735e-22
-3.32401e-23
7.45247e-23
-3.69415e-23
-1.80174e-22
-2.93914e-23
2.9475e-22
-1.38501e-23
-1.27294e-23
1.04192e-23
6.29804e-22
-5.9473e-24
4.10619e-22
8.30719e-24
3.39591e-22
-1.17804e-23
4.44974e-22
-1.88426e-23
-9.48541e-23
1.8139e-23
8.7505e-23
-1.66955e-23
7.2809e-23
-1.49967e-23
1.58049e-22
8.15927e-24
4.93973e-22
4.39269e-22
1.26976e-25
-1.19834e-23
7.90445e-23
-5.48129e-23
-3.88756e-22
-2.95407e-23
-6.51723e-24
-2.22177e-23
2.18984e-22
-1.59013e-23
-1.72589e-22
-3.27854e-23
-6.62915e-23
-3.42008e-23
-1.71941e-22
-2.80757e-23
2.66383e-22
-8.41168e-24
-3.63587e-23
6.78882e-24
4.93343e-22
-4.65067e-24
4.54651e-22
9.1654e-24
2.78353e-22
-1.47553e-23
2.57072e-22
-1.97713e-23
-1.10133e-22
2.03982e-23
2.64257e-22
-1.69914e-23
2.35137e-23
-1.23155e-23
1.11121e-22
7.96493e-24
6.8891e-22
2.17659e-22
-5.8307e-24
-1.74661e-23
6.87889e-23
-5.17442e-23
-2.73845e-22
-2.74962e-23
1.04211e-22
-2.38569e-23
1.18999e-22
-1.62804e-23
-1.90975e-22
-2.88122e-23
-4.57197e-23
-3.4354e-23
-2.9029e-22
-2.43611e-23
4.14348e-22
-6.68787e-24
-5.18187e-23
7.5457e-24
4.13338e-22
-5.77797e-24
3.44918e-22
6.39981e-24
1.47414e-22
-1.59162e-23
7.49718e-23
-1.84083e-23
-1.82794e-22
2.18964e-23
1.77139e-22
-1.69664e-23
-2.01814e-22
-1.06055e-23
5.6157e-23
6.73039e-24
7.19182e-22
2.19413e-22
-6.47055e-24
-2.06376e-23
7.93518e-23
-4.90119e-23
-2.48332e-22
-2.75075e-23
1.12848e-22
-2.50175e-23
-3.58381e-23
-1.63958e-23
-1.98777e-22
-2.56658e-23
-6.01237e-23
-3.18103e-23
-3.30578e-22
-2.42467e-23
4.26896e-22
-6.45388e-24
-9.18482e-23
8.5415e-24
3.01074e-22
-7.39227e-24
3.16647e-22
4.94922e-24
3.47954e-22
-1.46159e-23
5.77791e-23
-1.66376e-23
-1.34724e-22
2.10902e-23
3.24546e-22
-1.54839e-23
-2.48348e-22
-9.02474e-24
1.99882e-22
4.36033e-24
5.26704e-22
1.58944e-22
-6.41665e-24
-2.34287e-23
9.95831e-23
-4.73367e-23
-2.44198e-22
-2.82919e-23
2.05595e-22
-2.48533e-23
-5.40588e-23
-1.69214e-23
-1.15946e-22
-2.28679e-23
2.60795e-24
-2.91448e-23
-4.1769e-22
-2.43476e-23
4.40479e-22
-5.9541e-24
-1.16792e-22
8.92582e-24
3.37609e-22
-5.64797e-24
3.19297e-22
7.95271e-25
2.95442e-22
-1.42675e-23
5.0586e-23
-1.54016e-23
-8.83868e-23
2.05656e-23
3.33759e-22
-9.47132e-24
-1.8692e-22
-7.11307e-24
1.18e-22
3.11191e-24
4.64569e-22
2.83399e-22
-7.0417e-24
-2.64688e-23
-1.12138e-22
-4.5678e-23
-1.51478e-22
-2.98033e-23
2.7335e-22
-2.41268e-23
-7.84189e-23
-1.73788e-23
-1.08283e-22
-2.004e-23
-8.85774e-25
-2.67127e-23
-5.65498e-22
-2.46614e-23
3.57383e-22
-4.11982e-24
-1.18511e-23
9.7219e-24
3.20103e-22
-6.13761e-24
2.60918e-22
2.43775e-25
2.6657e-22
-1.5536e-23
6.88883e-23
-1.54093e-23
-5.3072e-23
2.11518e-23
4.05622e-22
-9.59995e-24
-2.21559e-22
-5.89128e-24
1.00664e-22
2.62446e-24
4.23354e-22
1.61857e-22
-8.18506e-24
-2.68909e-23
-3.28298e-22
-4.39019e-23
-1.46099e-22
-3.1572e-23
2.7304e-22
-2.33022e-23
-3.88609e-24
-1.81063e-23
-8.34968e-23
-1.86383e-23
1.46751e-22
-2.4532e-23
-4.2302e-22
-2.22869e-23
3.56369e-22
-2.9358e-24
-9.27547e-23
1.10827e-23
2.86455e-22
-5.44528e-24
2.96351e-22
-9.23505e-25
2.47239e-22
-1.53438e-23
1.45446e-22
-1.56414e-23
-9.79172e-23
2.14578e-23
4.01706e-22
-9.65328e-24
-2.26594e-22
-2.23245e-24
1.88076e-22
2.08691e-25
3.03149e-22
4.08685e-22
-9.84921e-24
-2.59519e-23
-3.4241e-22
-4.22681e-23
-1.4276e-22
-3.2648e-23
2.67742e-22
-2.32412e-23
7.18198e-23
-1.7717e-23
-4.09657e-24
-1.71954e-23
1.03602e-22
-2.28082e-23
-3.41516e-22
-2.12447e-23
2.79806e-22
-1.67634e-24
-1.11869e-22
1.06191e-23
2.93146e-22
-4.49383e-24
4.60995e-22
-1.4074e-24
3.25348e-22
-1.58573e-23
7.05047e-23
-1.44028e-23
1.39847e-23
2.05684e-23
4.90094e-22
-9.75803e-24
-4.23215e-22
-1.72635e-24
1.56516e-22
1.183e-24
1.70421e-22
4.11698e-22
-1.05192e-23
-2.45157e-23
-2.32125e-22
-4.12507e-23
-3.00265e-22
-3.29079e-23
2.81674e-22
-2.31415e-23
5.99735e-23
-1.79971e-23
-5.77632e-24
-1.48208e-23
2.13784e-22
-2.23308e-23
-3.36005e-22
-2.051e-23
2.66056e-22
-2.50011e-25
-1.34051e-22
1.19768e-23
2.93194e-22
-6.32043e-24
3.58612e-22
-2.43319e-24
3.52651e-22
-1.50298e-23
1.05243e-22
-1.4521e-23
6.52125e-23
2.04874e-23
5.38289e-22
-7.56247e-24
-5.34138e-22
-3.31681e-25
3.95715e-22
1.61828e-24
1.98756e-22
3.4591e-22
-1.14894e-23
-2.48727e-23
-2.12897e-22
-3.9184e-23
-2.66811e-22
-3.31701e-23
3.06361e-22
-2.30697e-23
1.34858e-22
-1.70412e-23
6.61737e-23
-1.4275e-23
1.92619e-22
-2.13847e-23
-3.53773e-22
-2.03313e-23
5.51079e-23
2.88308e-24
-7.37073e-23
1.20781e-23
2.10567e-22
-5.38462e-24
2.24715e-22
-3.13267e-24
2.17111e-22
-1.45286e-23
4.37457e-23
-1.38484e-23
1.87599e-22
1.9062e-23
5.884e-22
-5.83325e-24
-7.49276e-22
6.01487e-25
3.35307e-22
6.257e-25
2.68861e-22
2.51776e-22
-1.08299e-23
-2.47717e-23
-2.00856e-22
-3.7217e-23
-2.80466e-22
-3.30779e-23
4.03284e-22
-2.3279e-23
1.00941e-22
-1.66329e-23
8.40419e-23
-1.36657e-23
1.64429e-22
-2.1075e-23
-3.63478e-22
-1.90808e-23
8.87829e-23
4.85294e-24
-8.69936e-23
1.32685e-23
2.2199e-22
-6.76156e-24
1.79465e-22
-2.4998e-24
4.03507e-22
-1.38896e-23
1.78442e-22
-1.5e-23
1.73533e-22
1.71816e-23
5.96852e-22
-3.65801e-24
-6.37682e-22
2.32714e-25
2.79382e-22
-7.63631e-26
3.32667e-22
2.60764e-22
-9.9633e-24
-2.45658e-23
-1.70778e-22
-3.52367e-23
-3.67439e-22
-3.31104e-23
2.4784e-22
-2.31809e-23
8.60065e-23
-1.63422e-23
9.0148e-23
-1.33412e-23
1.54021e-22
-2.03367e-23
-3.78417e-22
-1.8765e-23
6.79799e-23
6.93248e-24
4.94089e-23
1.31812e-23
1.9917e-22
-5.28241e-24
4.22135e-23
-2.9543e-24
2.46247e-22
-1.38144e-23
2.26627e-22
-1.43087e-23
4.36444e-22
1.61226e-23
6.31719e-22
-2.58669e-24
-7.06606e-22
1.907e-24
3.50338e-22
-3.78971e-24
3.22923e-22
3.99346e-22
-9.0834e-24
-2.43064e-23
-1.83244e-22
-3.41763e-23
-2.06444e-22
-3.23786e-23
2.35373e-22
-2.32498e-23
9.26351e-23
-1.57487e-23
1.07222e-22
-1.3452e-23
1.49709e-22
-1.89978e-23
-3.02704e-22
-1.84671e-23
-2.55622e-23
9.40912e-24
1.77104e-22
1.32383e-23
1.08114e-22
-5.11397e-24
-2.6991e-23
-1.22279e-24
2.18225e-22
-1.34235e-23
1.32147e-22
-1.5966e-23
3.45564e-22
1.55338e-23
5.35789e-22
-2.07435e-24
-5.61847e-22
4.76867e-24
4.97798e-22
-4.51356e-24
3.26264e-22
3.85023e-22
-1.15431e-23
-2.23247e-23
-1.25136e-22
-3.47508e-23
-2.73402e-22
-3.09549e-23
2.23208e-22
-2.3313e-23
6.74864e-23
-1.53141e-23
1.08872e-22
-1.34354e-23
1.50102e-22
-1.85914e-23
-3.68302e-22
-1.63231e-23
-4.17223e-23
9.41655e-24
1.9019e-22
1.31696e-23
2.43247e-22
-4.96844e-24
-4.91013e-24
-2.88383e-25
9.9297e-23
-1.13134e-23
1.794e-22
-1.87364e-23
1.91637e-22
1.49886e-23
5.18113e-22
-8.70012e-26
-5.22987e-22
5.91915e-24
3.53646e-22
-5.20898e-24
2.35e-22
2.3292e-22
-1.39194e-23
-5.43834e-24
1.69129e-22
-2.19104e-23
-1.0094e-22
-3.47758e-23
-3.30277e-22
-2.97056e-23
1.96211e-22
-2.3239e-23
4.37441e-23
-1.47584e-23
1.57106e-22
-1.34039e-23
1.4725e-22
-1.80838e-23
-3.51182e-22
-1.38413e-23
-4.38054e-23
9.78521e-24
1.13551e-22
1.39219e-23
2.06017e-22
-6.47025e-24
-1.7306e-22
8.63878e-25
6.81957e-23
-1.12413e-23
1.50083e-22
-1.91157e-23
3.30779e-22
1.56169e-23
5.04121e-22
4.41182e-25
-6.73239e-22
6.56548e-24
2.83392e-22
-6.90203e-24
2.34793e-22
1.3872e-22
-1.28553e-23
-5.74434e-24
5.39466e-23
-2.18711e-23
-9.05527e-23
-3.43004e-23
-2.93153e-22
-2.84061e-23
2.00767e-22
-2.2704e-23
-4.20269e-23
-1.4618e-23
7.53643e-23
-1.38777e-23
1.24208e-22
-1.70811e-23
-2.71059e-22
-1.28958e-23
-4.52985e-23
1.12957e-23
3.87821e-23
1.26832e-23
1.22158e-22
-7.0439e-24
-1.71904e-22
1.91435e-24
8.07341e-23
-9.87947e-24
1.69352e-22
-2.13119e-23
1.60699e-22
1.49721e-23
4.79311e-22
1.94993e-24
-5.1262e-22
6.97423e-24
3.03486e-22
-6.01699e-24
2.30556e-22
8.72264e-23
-1.3682e-23
-6.43986e-24
-7.29233e-23
-2.10404e-23
-1.81228e-22
-3.40269e-23
-2.89656e-22
-2.77191e-23
2.95041e-22
-2.22474e-23
-5.55579e-23
-1.38517e-23
1.9071e-22
-1.41132e-23
2.26019e-23
-1.65526e-23
-2.64217e-22
-1.21536e-23
-2.17567e-23
1.23487e-23
4.37496e-23
1.33355e-23
1.12022e-22
-6.85543e-24
-2.48522e-22
3.51081e-24
1.61905e-22
-8.38043e-24
1.93163e-22
-2.25582e-23
3.8134e-23
1.5506e-23
6.12563e-22
2.56242e-24
-4.68057e-22
8.70144e-24
3.22394e-22
-6.55451e-24
2.31104e-22
3.27669e-23
-1.33149e-23
-6.44809e-24
3.64202e-23
-2.04342e-23
-1.00786e-22
-3.35118e-23
-1.97902e-22
-2.76524e-23
2.43351e-22
-2.11498e-23
-7.595e-23
-1.42371e-23
8.25337e-23
-1.32261e-23
4.10187e-23
-1.63033e-23
-2.71464e-22
-1.10934e-23
-2.05012e-23
1.26044e-23
6.61403e-24
1.36116e-23
-1.01386e-23
-6.28072e-24
-3.45918e-22
4.12556e-24
1.32867e-22
-8.5278e-24
1.38412e-22
-2.18419e-23
1.16853e-22
1.34444e-23
6.64897e-22
4.1029e-24
-3.56456e-22
8.70833e-24
2.19156e-22
-7.34161e-24
2.33818e-23
1.98143e-22
-1.35936e-23
-6.77358e-24
-3.02096e-23
-1.95868e-23
-7.73846e-23
-3.31674e-23
-1.95285e-22
-2.73386e-23
3.20353e-22
-2.05929e-23
-2.41693e-23
-1.3878e-23
1.04127e-22
-1.29905e-23
-9.90868e-24
-1.56188e-23
-2.79061e-22
-1.01893e-23
1.05425e-22
1.25632e-23
2.68703e-23
1.40542e-23
-9.83089e-24
-5.19901e-24
-4.16805e-22
4.22291e-24
1.15678e-22
-7.19526e-24
1.44363e-22
-2.21356e-23
9.77751e-23
1.24719e-23
4.59287e-22
5.53151e-24
-4.4922e-22
9.19647e-24
8.95273e-23
-6.5895e-24
1.63944e-22
-3.07712e-23
-1.43207e-23
-7.06338e-24
-1.73688e-22
-1.87429e-23
-2.88134e-23
-3.20611e-23
-1.85695e-22
-2.74451e-23
2.96848e-22
-2.00362e-23
3.78157e-23
-1.37991e-23
1.13217e-22
-1.26869e-23
1.10319e-22
-1.49723e-23
-2.24307e-22
-9.476e-24
9.84911e-23
1.28367e-23
1.6294e-22
1.46066e-23
7.01894e-23
-3.95438e-24
-4.08772e-22
5.37979e-24
1.02715e-22
-7.16109e-24
1.37432e-22
-2.19951e-23
1.37937e-22
1.15949e-23
5.85977e-22
6.54805e-24
-3.33116e-22
1.07947e-23
8.6685e-23
-7.36021e-24
-1.79493e-22
1.39393e-22
-1.34946e-23
-6.20074e-24
-1.3951e-22
-1.8379e-23
8.06965e-25
-3.09134e-23
-1.82365e-22
-2.71895e-23
2.93414e-22
-1.95976e-23
9.5968e-23
-1.3324e-23
1.13703e-22
-1.26838e-23
1.04142e-22
-1.41922e-23
-1.55306e-22
-8.79426e-24
8.02909e-23
1.29199e-23
1.31987e-22
1.44463e-23
1.75749e-22
-3.46238e-24
-3.04803e-22
5.81995e-24
9.59993e-23
-6.1539e-24
1.36659e-22
-2.27654e-23
6.7057e-23
1.13113e-23
5.18017e-22
7.38905e-24
-3.18734e-22
1.08588e-23
1.40629e-22
-6.6488e-24
-1.83128e-22
2.68463e-22
-1.39459e-23
-5.72618e-24
-2.80112e-22
-1.76643e-23
3.48167e-23
-3.01281e-23
-1.71381e-22
-2.66221e-23
3.78712e-22
-1.93395e-23
8.85116e-23
-1.26804e-23
9.98519e-23
-1.25567e-23
8.97061e-23
-1.39067e-23
-1.73536e-22
-7.76976e-24
6.85387e-23
1.35019e-23
1.51276e-22
1.4104e-23
1.59305e-22
-4.03217e-24
-2.8834e-22
7.43766e-24
1.57282e-22
-5.29514e-24
1.71657e-23
-2.28668e-23
6.12425e-23
1.03739e-23
5.69327e-22
8.66672e-24
-2.56056e-22
1.05032e-23
1.4411e-22
-4.82099e-24
-3.89277e-22
1.86202e-22
-1.49481e-23
-4.5561e-24
-2.48536e-22
-1.71012e-23
-5.40193e-24
-2.88252e-23
-1.60126e-22
-2.66372e-23
3.24372e-22
-1.8971e-23
8.85602e-23
-1.20782e-23
7.30366e-23
-1.21854e-23
8.72998e-23
-1.35427e-23
-1.80874e-22
-6.50545e-24
1.24182e-22
1.34674e-23
2.41989e-22
1.46139e-23
3.40511e-23
-3.7297e-24
-2.67824e-22
7.5524e-24
1.56969e-22
-4.77387e-24
2.16222e-23
-2.21627e-23
6.4532e-23
8.70585e-24
4.41587e-22
9.7858e-24
-9.0417e-23
1.04025e-23
-2.83843e-23
-4.1041e-24
-3.93676e-22
1.93693e-22
-1.42364e-23
-4.34435e-24
-2.07798e-22
-1.60097e-23
6.83918e-23
-2.75558e-23
-1.53919e-22
-2.63282e-23
3.34997e-22
-1.87861e-23
9.65768e-23
-1.14668e-23
1.15914e-22
-1.20325e-23
-3.02944e-23
-1.28371e-23
-1.89267e-22
-5.4564e-24
1.02998e-22
1.25779e-23
1.94713e-22
1.47209e-23
1.05409e-22
-2.75117e-24
-3.06876e-22
7.57475e-24
1.64153e-22
-3.72816e-24
2.68395e-23
-2.24019e-23
-4.93757e-24
8.34004e-24
5.16509e-22
1.04192e-23
-7.1418e-23
1.04011e-23
-2.73178e-23
-3.40269e-24
-2.76342e-22
1.12842e-22
-1.39492e-23
-3.53039e-24
-1.37375e-22
-1.52313e-23
1.23129e-22
-2.64141e-23
-1.36636e-22
-2.61085e-23
2.16768e-22
-1.83025e-23
9.74391e-23
-1.13973e-23
1.35384e-22
-1.14187e-23
3.4027e-23
-1.21498e-23
-1.59732e-22
-4.59218e-24
6.17915e-23
1.26057e-23
5.51968e-23
1.48913e-23
9.71332e-23
-2.96076e-24
-4.10901e-22
7.67777e-24
1.70715e-22
-2.56893e-24
7.8662e-23
-2.26147e-23
-5.59534e-23
7.92348e-24
4.1163e-22
1.0188e-23
7.74097e-23
1.0337e-23
-1.94308e-22
-2.38159e-24
-2.8536e-22
1.22385e-22
-1.34519e-23
-3.11065e-24
-1.79618e-22
-1.44892e-23
9.1121e-23
-2.57012e-23
-1.17899e-22
-2.54174e-23
2.30117e-22
-1.77687e-23
1.06702e-22
-1.12083e-23
1.11081e-22
-1.11105e-23
4.73926e-23
-1.14421e-23
-1.53047e-22
-4.34792e-24
3.4672e-23
1.29862e-23
1.5432e-22
1.48933e-23
9.45679e-23
-1.93601e-24
-3.92471e-22
8.28224e-24
2.3112e-22
-2.47164e-24
1.93117e-22
-2.13779e-23
3.47249e-23
7.45535e-24
3.08224e-22
9.69613e-24
4.61484e-23
1.07989e-23
-1.33695e-22
-1.39525e-24
-2.31751e-22
1.31041e-22
-1.29087e-23
-2.24787e-24
-1.51185e-22
-1.36231e-23
7.77214e-23
-2.48327e-23
-1.56706e-22
-2.47281e-23
1.88832e-22
-1.72683e-23
3.39546e-23
-1.07942e-23
9.13032e-23
-1.10016e-23
4.9469e-23
-1.10222e-23
-1.23335e-22
-3.39744e-24
4.58337e-24
1.22514e-23
1.50853e-22
1.46436e-23
2.15346e-22
-1.35914e-24
-2.16659e-22
8.72306e-24
1.63415e-22
-2.30317e-24
2.56545e-22
-2.08872e-23
-1.7603e-23
7.10888e-24
2.91511e-22
9.22257e-24
1.91576e-23
1.13975e-23
-1.70339e-23
-5.07477e-25
-1.19052e-22
-8.40417e-23
-1.34445e-23
-1.66135e-24
-1.20948e-22
-1.31219e-23
6.53688e-23
-2.37403e-23
-1.27027e-22
-2.42355e-23
7.14552e-23
-1.65007e-23
3.24361e-23
-1.04514e-23
7.31959e-23
-1.07171e-23
8.02495e-23
-1.04254e-23
-1.2829e-22
-2.4645e-24
-1.9439e-23
1.25898e-23
1.50506e-22
1.4888e-23
9.93916e-23
-1.28239e-24
-2.64845e-22
9.65289e-24
9.1563e-23
-2.20132e-24
1.60819e-22
-2.0457e-23
-1.73529e-23
6.80387e-24
3.83362e-22
1.00451e-23
9.41909e-23
1.14267e-23
-1.13558e-22
-3.0339e-25
-1.12736e-22
-7.95086e-23
-1.26853e-23
-8.70424e-25
-4.00064e-23
-1.24542e-23
5.03601e-24
-2.29609e-23
-1.59587e-22
-2.34094e-23
8.01181e-23
-1.58431e-23
7.89843e-23
-9.94324e-24
6.9273e-23
-1.06083e-23
2.3069e-23
-9.88505e-24
-5.89759e-23
-1.82777e-24
2.04532e-23
1.23864e-23
8.90558e-23
1.51948e-23
9.7738e-23
-1.43903e-24
-3.72208e-22
1.01468e-23
1.94223e-22
-1.39248e-24
2.23909e-22
-2.04501e-23
-1.79771e-23
6.71901e-24
2.38791e-22
9.70958e-24
1.70162e-22
1.23583e-23
4.31861e-24
1.06689e-26
-3.41177e-24
-8.0863e-23
-1.19399e-23
-4.45048e-25
2.26048e-23
-1.19166e-23
-1.15271e-22
-2.21584e-23
-1.35067e-22
-2.24552e-23
2.01661e-23
-1.52145e-23
3.05884e-24
-9.50161e-24
6.89423e-23
-1.03425e-23
3.18561e-23
-9.21877e-24
-6.03379e-23
-1.37182e-24
7.11833e-23
1.22885e-23
1.94027e-23
1.49804e-23
5.26571e-23
-1.21924e-24
-3.51656e-22
1.07627e-23
1.30029e-22
-1.08673e-24
1.264e-22
-2.02079e-23
4.64696e-23
7.29323e-24
2.1374e-22
9.83524e-24
2.63969e-22
1.27907e-23
1.1494e-23
1.39168e-25
-1.0758e-22
4.78212e-23
-1.08894e-23
-4.08748e-25
2.86915e-23
-1.10299e-23
-8.33049e-23
-2.12968e-23
-1.13142e-22
-2.15979e-23
6.20869e-23
-1.44449e-23
4.3372e-23
-9.19468e-24
6.65483e-23
-9.95276e-24
-1.6881e-23
-8.64902e-24
-1.17015e-22
-1.21947e-24
4.69368e-23
1.20699e-23
4.0085e-24
1.5021e-23
5.10635e-23
-4.74731e-25
-3.31462e-22
1.14789e-23
2.72658e-22
-9.43497e-25
-1.81109e-23
-1.99621e-23
-5.46872e-23
7.69004e-24
9.08253e-23
9.98631e-24
1.84152e-22
1.25515e-23
-7.47049e-23
1.32721e-24
-1.07512e-22
-7.67889e-23
-1.11092e-23
-2.51352e-25
-6.98763e-23
-1.01865e-23
-2.88323e-23
-2.03539e-23
-1.02392e-22
-2.06595e-23
5.47014e-23
-1.37687e-23
-8.75942e-24
-8.89178e-24
1.42204e-23
-9.69481e-24
-1.76274e-23
-8.17073e-24
-8.2456e-23
-8.44467e-25
8.54309e-23
1.17578e-23
3.53476e-23
1.48668e-23
1.01419e-22
-2.92508e-25
-3.08336e-22
1.12928e-23
2.5664e-22
6.81043e-26
-6.62529e-23
-1.97527e-23
-1.70678e-22
8.04392e-24
5.63297e-23
9.85776e-24
2.26026e-22
1.28659e-23
1.49333e-23
1.63604e-24
-1.06071e-22
4.86509e-23
-1.06181e-23
4.15725e-25
-5.57669e-23
-9.68699e-24
-2.45624e-23
-1.94256e-23
-9.37829e-23
-1.98845e-23
9.76986e-23
-1.31649e-23
3.59018e-23
-8.4496e-24
7.52301e-24
-9.39598e-24
-2.44116e-23
-7.44817e-24
3.22743e-23
-8.63229e-25
7.53529e-23
1.17623e-23
3.15079e-23
1.4801e-23
9.4865e-23
3.83913e-25
-1.81172e-22
1.13097e-23
2.19424e-22
1.18274e-25
3.81406e-23
-1.90173e-23
-1.5857e-22
8.63601e-24
1.07887e-22
9.62819e-24
8.49256e-23
1.32207e-23
-9.31538e-23
2.50514e-24
1.56559e-23
5.89731e-23
-1.00314e-23
1.00392e-24
7.15227e-24
-9.22204e-24
-2.36925e-23
-1.84036e-23
-6.34528e-23
-1.90615e-23
6.2765e-23
-1.27357e-23
3.69638e-23
-8.05762e-24
-1.38989e-24
-8.78173e-24
-1.01319e-23
-7.24798e-24
2.00577e-23
-7.68421e-25
7.17896e-23
1.126e-23
-2.05419e-23
1.48238e-23
6.62053e-23
4.40075e-25
-1.7753e-22
1.1131e-23
2.06612e-22
1.99579e-26
-2.64943e-23
-1.823e-23
-1.68049e-22
8.94587e-24
1.79864e-22
9.91843e-24
3.14431e-24
1.36859e-23
-1.30888e-22
3.5342e-24
1.87935e-23
-1.87693e-23
-9.66385e-24
1.23109e-24
3.60066e-24
-8.66092e-24
-2.23516e-23
-1.75189e-23
-5.84738e-23
-1.81547e-23
5.83683e-23
-1.24141e-23
1.73086e-23
-7.63386e-24
-1.48016e-24
-8.31485e-24
-2.0205e-23
-7.05521e-24
-2.26557e-24
-9.32522e-25
5.03614e-24
1.07664e-23
-2.67087e-23
1.47812e-23
5.73222e-23
4.57983e-25
-2.22144e-22
1.13638e-23
8.90571e-23
2.02018e-25
-7.52063e-23
-1.73047e-23
-1.27169e-22
9.35446e-24
2.49085e-22
1.00711e-23
1.11301e-22
1.43711e-23
-1.72863e-23
3.80615e-24
2.56584e-23
-1.17025e-22
-8.97532e-24
1.5e-24
-2.08862e-23
-8.05036e-24
-3.6709e-23
-1.66858e-23
-3.70341e-23
-1.7348e-23
4.78302e-23
-1.2136e-23
4.15165e-24
-7.21954e-24
-2.43436e-25
-7.9458e-24
-5.06138e-23
-7.17032e-24
2.81067e-24
-1.24352e-24
2.25963e-23
1.05599e-23
1.90797e-23
1.40991e-23
4.78565e-23
7.6991e-25
-1.95849e-22
1.09635e-23
8.88865e-23
2.61985e-25
-8.95301e-23
-1.63499e-23
-3.91384e-23
9.61837e-24
2.49966e-22
1.02202e-23
2.74425e-23
1.45768e-23
-3.46926e-23
4.37092e-24
8.38005e-23
-9.00091e-23
-7.9503e-24
1.93204e-24
4.52027e-24
-7.50559e-24
-5.00345e-23
-1.57871e-23
-4.12062e-23
-1.64667e-23
4.30613e-23
-1.19129e-23
1.05487e-23
-6.95719e-24
-3.21038e-24
-7.78459e-24
-4.39009e-23
-7.23714e-24
-8.24663e-24
-1.60912e-24
2.76134e-23
9.73171e-24
1.39455e-24
1.36036e-23
3.93808e-23
7.19403e-25
-1.5468e-22
1.08083e-23
7.90392e-23
6.8694e-25
-7.05748e-23
-1.53309e-23
-6.18836e-24
1.00223e-23
8.79774e-23
1.05119e-23
2.32985e-23
1.49965e-23
4.39884e-23
4.93041e-24
7.29984e-25
-1.70857e-22
-6.93407e-24
2.34959e-24
-3.78649e-24
-6.80488e-24
-4.61485e-23
-1.49916e-23
-6.27391e-23
-1.55818e-23
1.51576e-23
-1.17472e-23
2.87385e-23
-6.62576e-24
-3.23651e-23
-7.67758e-24
-3.83996e-23
-7.3596e-24
1.67485e-23
-2.25113e-24
1.00729e-23
8.91357e-24
1.22288e-23
1.30464e-23
3.79251e-23
8.38744e-25
-1.37544e-22
1.02993e-23
3.06534e-23
1.01139e-24
3.66603e-24
-1.45104e-23
-1.12789e-22
9.9964e-24
5.52425e-23
1.09709e-23
-6.53061e-26
1.49936e-23
8.85756e-23
5.48191e-24
6.6932e-23
-1.16113e-22
-5.7031e-24
3.00022e-24
-2.14695e-23
-6.0004e-24
-4.35678e-23
-1.40199e-23
-3.10698e-23
-1.45179e-23
2.86608e-24
-1.16498e-23
2.34695e-23
-6.28563e-24
-7.74565e-24
-7.65607e-24
-4.80193e-23
-7.84113e-24
-2.29324e-23
-2.93163e-24
1.82587e-23
8.02311e-24
1.2993e-23
1.21167e-23
7.08631e-23
7.61961e-25
-1.31105e-22
9.75578e-24
-7.05352e-24
9.88168e-25
2.80335e-23
-1.34073e-23
-9.54863e-23
1.02299e-23
9.37869e-23
1.14106e-23
6.56749e-23
1.50946e-23
-3.10611e-24
5.88135e-24
3.11713e-23
-5.02519e-23
-4.38714e-24
3.9334e-24
-4.62997e-23
-4.89791e-24
-4.37935e-23
-1.30676e-23
-3.19647e-23
-1.32557e-23
-9.13553e-24
-1.14408e-23
6.56796e-24
-5.98898e-24
1.38892e-23
-7.88788e-24
-2.94567e-23
-8.36118e-24
-2.74275e-23
-3.79572e-24
1.55513e-23
7.09102e-24
5.87625e-23
1.0987e-23
5.16349e-23
6.50129e-25
-8.07686e-23
9.19321e-24
-3.87405e-24
8.21958e-25
4.16672e-23
-1.22264e-23
-3.29412e-23
1.06457e-23
7.72634e-23
1.16357e-23
5.64244e-23
1.53039e-23
4.40606e-23
6.5736e-24
4.52121e-23
-4.60983e-23
-3.19824e-24
5.0454e-24
-4.61998e-23
-3.62379e-24
-3.83377e-23
-1.2031e-23
-1.62415e-23
-1.18367e-23
-7.15964e-24
-1.11037e-23
9.87899e-24
-5.80085e-24
-3.32497e-25
-8.48566e-24
-2.21662e-23
-8.94943e-24
-2.38372e-23
-4.68504e-24
2.59018e-23
5.87595e-24
4.59326e-23
9.91875e-24
1.2661e-23
6.16088e-25
-4.8745e-23
8.54032e-24
3.43543e-23
4.34718e-25
6.04012e-25
-1.08976e-23
-6.63458e-23
1.06859e-23
7.42287e-23
1.21209e-23
4.79372e-23
1.54087e-23
3.66693e-23
7.09553e-24
5.21811e-23
-3.93869e-23
-1.79993e-24
6.26118e-24
-3.62914e-23
-2.17038e-24
-3.18665e-23
-1.11339e-23
-8.64835e-24
-1.03621e-23
-5.86994e-24
-1.09257e-23
2.35831e-24
-5.88802e-24
-3.38195e-24
-9.63947e-24
-3.93654e-23
-9.94023e-24
-1.68375e-23
-5.89831e-24
2.83125e-23
4.35848e-24
3.74719e-23
8.7212e-24
2.64168e-23
6.21291e-25
-4.3341e-23
7.71152e-24
2.62511e-23
-4.64656e-26
-3.56203e-23
-9.38979e-24
-5.1916e-23
1.06968e-23
5.392e-23
1.26018e-23
5.35474e-23
1.55794e-23
-1.36963e-23
7.40098e-24
4.91255e-23
-3.51435e-23
-3.00471e-25
7.02212e-24
-2.81524e-23
-1.08478e-24
-3.26562e-23
-1.06781e-23
-1.56929e-23
-9.21969e-24
-1.20525e-23
-1.13478e-23
-3.053e-24
-6.81926e-24
-1.02849e-23
-1.16663e-23
-2.91993e-23
-1.1539e-23
1.37107e-23
-7.62797e-24
2.10232e-23
2.30871e-24
5.99008e-23
7.11908e-24
1.67847e-23
4.24199e-25
-1.02432e-23
6.67801e-24
9.25527e-24
-7.24539e-25
-1.97582e-23
-8.04013e-24
-4.23387e-23
1.06132e-23
7.04169e-23
1.29911e-23
4.71496e-23
1.56847e-23
4.18254e-23
7.60747e-24
-2.50001e-23
-1.18899e-23
1.35014e-24
6.46379e-24
7.14952e-24
-1.06921e-24
-1.78459e-23
-1.13277e-23
-2.28121e-23
-9.05098e-24
-1.04229e-23
-1.31974e-23
-1.7316e-23
-9.32756e-24
-1.05793e-23
-1.5225e-23
-2.2535e-23
-1.43013e-23
1.07806e-23
-1.05144e-23
1.40449e-23
-7.8211e-25
3.74203e-23
4.75876e-24
1.34442e-23
-1.65325e-25
8.993e-24
5.28246e-24
4.46057e-24
-1.80266e-24
1.77396e-23
-6.91256e-24
-6.40911e-24
9.98664e-24
6.12443e-23
1.32403e-23
7.85299e-24
1.55688e-23
3.76467e-23
7.96611e-24
-1.88426e-23
-9.43576e-24
3.3426e-24
3.13533e-24
8.08034e-24
-3.34236e-24
-1.98188e-23
-1.40549e-23
-1.97776e-23
-1.08544e-23
3.31777e-24
-1.76222e-23
-1.43351e-23
-1.44336e-23
-3.54841e-24
-2.1197e-23
-2.04772e-23
-1.89707e-23
1.26728e-23
-1.54781e-23
1.76441e-23
-5.76696e-24
2.99688e-23
1.02188e-24
1.86555e-23
-1.82012e-24
1.17774e-23
3.10869e-24
6.07807e-24
-4.04989e-24
-1.20342e-23
-6.37992e-24
7.23595e-24
8.61723e-24
3.58693e-23
1.31606e-23
3.09124e-23
1.53819e-23
1.14994e-23
8.54725e-24
8.90079e-24
1.26867e-23
6.08692e-24
-4.85545e-24
4.77756e-24
-9.59035e-24
-1.3106e-23
-2.02322e-23
-1.08824e-23
-1.58449e-23
6.47607e-24
-2.61143e-23
-8.17215e-24
-2.34693e-23
-1.59946e-24
-3.05941e-23
-1.1734e-23
-2.65724e-23
6.61161e-24
-2.37756e-23
1.06682e-23
-1.34827e-23
1.28465e-23
-4.91391e-24
8.02544e-24
-5.24108e-24
1.03922e-23
-7.13848e-25
9.62172e-24
-8.06241e-24
-5.26646e-24
-7.14153e-24
3.44859e-24
6.33347e-24
2.1814e-23
1.26009e-23
9.52259e-24
1.55428e-23
6.60399e-24
9.91475e-24
-2.17143e-24
-3.41671e-24
1.0316e-23
-2.00761e-23
-4.00878e-25
-2.20509e-23
9.68894e-26
-3.17582e-23
-2.0249e-24
-2.55287e-23
-7.49847e-25
-4.05572e-23
-3.82933e-25
-3.79905e-23
-3.61428e-25
-4.47638e-23
-1.17078e-24
-3.83977e-23
-1.5899e-26
-3.68555e-23
2.32349e-24
-2.50976e-23
-6.63436e-25
-1.39493e-23
1.98959e-24
-1.14118e-23
1.17491e-24
-7.13548e-24
4.86922e-24
-1.48056e-23
5.28104e-25
-9.5484e-24
-2.58043e-24
3.05371e-24
4.39947e-24
1.1978e-23
-1.48975e-24
1.65795e-23
9.19254e-25
1.30234e-23
-1.45409e-24
7.16241e-25
1.72901e-23
6.52952e-24
4.55037e-24
2.27651e-24
2.15936e-24
2.48018e-24
2.45385e-24
9.24834e-25
5.72577e-25
2.02508e-24
2.42382e-24
2.80307e-24
2.19066e-24
2.28673e-24
2.42188e-24
-3.89619e-26
2.72707e-24
1.47067e-24
1.58545e-24
-7.84515e-25
-1.6837e-24
4.31065e-22
2.04065e-23
3.32544e-22
1.95889e-23
3.00852e-22
1.87692e-23
2.8053e-22
1.8021e-23
2.70742e-22
1.75067e-23
2.69335e-22
1.64282e-23
2.07318e-22
1.53738e-23
2.06259e-22
1.46135e-23
1.58328e-22
1.41201e-23
1.55113e-22
1.35295e-23
9.774e-23
1.32268e-23
9.081e-23
1.26222e-23