/*--------------------------------*- C++ -*----------------------------------*\
  =========                 |
  \\      /  F ield         | OpenFOAM: The Open Source CFD Toolbox
   \\    /   O peration     | Website:  https://openfoam.org
    \\  /    A nd           | Version:  7
     \\/     M anipulation  |
\*---------------------------------------------------------------------------*/
FoamFile
{
    version     2.0;
    format      ascii;
    class       volVectorField;
    location    "44000";
    object      U;
}
// * * * * * * * * * * * * * * * * * * * * * * * * * * * * * * * * * * * * * //

dimensions      [0 1 -1 0 0 0 0];

internalField   nonuniform List<vector> 
1762
(
(1.37025e-18 1.56205e-18 -0.0138733)
(4.01427e-19 8.64553e-19 -0.0138487)
(2.9368e-19 2.66154e-18 -0.0138214)
(5.0221e-19 2.28802e-20 -0.0137916)
(1.37999e-18 5.57247e-19 -0.0137596)
(-7.44671e-19 -8.01154e-21 -0.0137254)
(6.86763e-19 4.76054e-20 -0.0136893)
(-8.46076e-19 -2.31956e-19 -0.0136511)
(1.17571e-18 1.25083e-18 -0.0137866)
(5.64441e-19 1.08661e-18 -0.0137619)
(2.06922e-19 2.6625e-18 -0.0137345)
(4.8868e-19 1.74365e-19 -0.0137046)
(1.18902e-18 2.65598e-19 -0.0136724)
(-1.14304e-18 -4.57735e-19 -0.013638)
(4.65337e-19 -2.53392e-19 -0.0136018)
(-1.03231e-18 -5.13865e-19 -0.0135635)
(-5.60013e-19 1.69128e-19 -0.0137883)
(-5.5285e-20 1.25677e-18 -0.013785)
(-2.06956e-18 -2.33901e-19 -0.0137785)
(-1.64259e-18 6.04103e-19 -0.0137688)
(-8.66127e-19 -7.45699e-19 -0.0137559)
(-2.31198e-18 1.19476e-18 -0.0137399)
(1.10976e-18 2.80852e-18 -0.0137208)
(9.2763e-19 8.16013e-19 -0.0136988)
(6.97465e-19 1.11612e-18 -0.013674)
(2.16625e-19 2.87115e-18 -0.0136465)
(4.56784e-19 2.97144e-19 -0.0136165)
(1.12615e-18 3.60702e-19 -0.0135841)
(-1.52366e-18 -8.30905e-19 -0.0135496)
(2.07581e-19 -5.84571e-19 -0.0135132)
(-1.34303e-18 -1.06185e-18 -0.0134748)
(-1.47724e-18 1.29695e-18 -0.01369)
(-1.6754e-18 2.39698e-19 -0.0136966)
(-5.74193e-20 1.76807e-18 -0.0136999)
(-5.78281e-19 2.37276e-19 -0.0136999)
(-1.17919e-19 7.17207e-19 -0.0136966)
(-2.1577e-18 -4.46333e-19 -0.01369)
(-1.64901e-18 7.25199e-19 -0.0136803)
(-7.88075e-19 -5.41333e-19 -0.0136673)
(-2.15319e-18 9.35334e-19 -0.0136512)
(1.09488e-18 2.58072e-18 -0.0136321)
(8.7542e-19 8.97108e-19 -0.01361)
(6.59834e-19 5.77396e-19 -0.0135851)
(2.02227e-19 3.02732e-18 -0.0135575)
(2.80409e-19 2.02207e-19 -0.0135273)
(1.07844e-18 4.75767e-19 -0.0134948)
(-1.7656e-18 -9.30897e-19 -0.0134601)
(-1.32886e-19 -1.03033e-18 -0.0134236)
(-1.38432e-18 -1.34049e-18 -0.013385)
(-1.60648e-18 1.40362e-18 -0.0136004)
(-1.6959e-18 6.25786e-19 -0.013607)
(-4.94061e-20 2.20559e-18 -0.0136103)
(-6.67532e-19 3.23213e-19 -0.0136103)
(-1.81232e-19 4.6684e-19 -0.013607)
(-2.21429e-18 -7.22227e-19 -0.0136004)
(-1.61137e-18 9.6177e-19 -0.0135906)
(-7.6408e-19 -4.64833e-19 -0.0135776)
(-1.89522e-18 1.13187e-18 -0.0135614)
(1.10898e-18 2.34683e-18 -0.0135422)
(9.33007e-19 1.37935e-18 -0.0135201)
(5.59089e-19 1.46774e-21 -0.013495)
(2.86599e-20 2.75264e-18 -0.0134673)
(6.09995e-20 5.2329e-21 -0.013437)
(9.82206e-19 5.24268e-19 -0.0134044)
(-1.94489e-18 -8.47158e-19 -0.0133696)
(-1.66551e-19 -1.06382e-18 -0.0133328)
(-1.13907e-18 -1.38686e-18 -0.0132941)
(-1.70205e-18 1.73809e-18 -0.0135097)
(-1.72161e-18 8.9833e-19 -0.0135163)
(-5.81647e-20 1.99552e-18 -0.0135196)
(-7.78334e-19 6.90014e-19 -0.0135196)
(-2.76303e-19 2.13718e-19 -0.0135163)
(-2.21967e-18 -8.63897e-19 -0.0135097)
(-1.62012e-18 7.64459e-19 -0.0134998)
(-7.14214e-19 -3.58036e-19 -0.0134867)
(-1.68854e-18 1.23595e-18 -0.0134705)
(1.1809e-18 2.28665e-18 -0.0134512)
(8.80097e-19 1.59654e-18 -0.013429)
(5.34405e-19 -2.48822e-19 -0.0134038)
(-2.4044e-19 2.29873e-18 -0.013376)
(-2.03751e-20 -7.12372e-21 -0.0133456)
(8.11024e-19 3.74559e-19 -0.0133128)
(-2.00263e-18 -6.63248e-19 -0.0132778)
(3.22218e-19 -4.60593e-19 -0.0132409)
(-5.24736e-19 -9.28363e-19 -0.013202)
(-1.76722e-18 1.95021e-18 -0.0134177)
(-1.79138e-18 7.96251e-19 -0.0134243)
(-1.03013e-20 1.41601e-18 -0.0134276)
(-8.74326e-19 7.92347e-19 -0.0134276)
(-4.03531e-19 8.6126e-20 -0.0134243)
(-2.22094e-18 -7.63933e-19 -0.0134177)
(-1.62786e-18 5.35691e-19 -0.0134078)
(-6.42414e-19 -2.73795e-19 -0.0133947)
(-1.62672e-18 8.15467e-19 -0.0133784)
(1.3024e-18 2.37916e-18 -0.013359)
(7.17636e-19 1.58116e-18 -0.0133367)
(5.73114e-19 -2.76182e-19 -0.0133114)
(-5.838e-19 1.62678e-18 -0.0132834)
(5.08695e-20 2.36982e-19 -0.0132529)
(4.24077e-19 -8.80047e-20 -0.01322)
(-1.77871e-18 -2.38129e-19 -0.0131848)
(7.41152e-19 -4.39212e-20 -0.0131478)
(-1.34496e-19 -5.8831e-19 -0.0131087)
(-1.74079e-18 1.66105e-18 -0.0133245)
(-1.93262e-18 1.00204e-18 -0.0133311)
(1.88876e-20 9.07818e-19 -0.0133345)
(-9.43647e-19 2.88868e-19 -0.0133345)
(-5.08343e-19 -2.98251e-19 -0.0133311)
(-2.20113e-18 -5.90009e-19 -0.0133245)
(-1.61044e-18 5.08756e-19 -0.0133146)
(-6.2081e-19 -1.71408e-19 -0.0133014)
(-1.56324e-18 3.9954e-19 -0.013285)
(1.43831e-18 2.3798e-18 -0.0132656)
(4.84858e-19 1.38289e-18 -0.0132431)
(7.22719e-19 8.50981e-20 -0.0132178)
(-8.56208e-19 1.08611e-18 -0.0131897)
(4.33575e-20 3.28494e-19 -0.013159)
(2.62074e-19 -2.72595e-19 -0.0131259)
(-1.33035e-18 3.95717e-19 -0.0130906)
(8.5562e-19 5.63194e-20 -0.0130534)
(-4.40913e-20 -5.81955e-19 -0.0130142)
(-1.62774e-18 1.02164e-18 -0.01323)
(-2.08007e-18 1.43742e-18 -0.0132367)
(-4.08581e-20 7.89243e-19 -0.01324)
(-1.0372e-18 -3.17708e-19 -0.01324)
(-5.56922e-19 -6.84603e-19 -0.0132367)
(-2.15089e-18 -4.72994e-19 -0.01323)
(-1.55303e-18 7.38932e-19 -0.01322)
(-6.31344e-19 -2.12349e-19 -0.0132068)
(-1.41389e-18 3.43981e-19 -0.0131903)
(1.53578e-18 2.34394e-18 -0.0131708)
(1.67693e-19 8.44904e-19 -0.0131483)
(1.02007e-18 7.5178e-19 -0.0131228)
(-9.38254e-19 1.03058e-18 -0.0130946)
(-4.85707e-20 1.95717e-19 -0.0130638)
(6.80127e-19 3.87382e-19 -0.0130305)
(-1.21783e-18 5.76523e-19 -0.0129951)
(6.34313e-19 -2.12377e-19 -0.0129577)
(-7.5529e-20 -7.46367e-19 -0.0129183)
(-1.50018e-18 2.09117e-19 -0.0131341)
(-2.15819e-18 1.63723e-18 -0.0131408)
(-1.63454e-19 7.21752e-19 -0.0131442)
(-1.13619e-18 -6.11197e-19 -0.0131442)
(-5.30079e-19 -6.8355e-19 -0.0131408)
(-2.06025e-18 -4.19581e-19 -0.0131341)
(-1.51726e-18 9.67167e-19 -0.0131241)
(-7.18367e-19 -4.3608e-19 -0.0131108)
(-1.18607e-18 5.19614e-19 -0.0130943)
(1.55394e-18 2.2372e-18 -0.0130747)
(1.09902e-20 5.88023e-19 -0.0130521)
(1.13921e-18 8.65957e-19 -0.0130265)
(-9.96239e-19 1.18144e-18 -0.0129981)
(-1.62876e-19 -1.24504e-19 -0.0129672)
(1.23137e-18 1.25951e-18 -0.0129338)
(-1.24318e-18 7.81468e-19 -0.0128982)
(4.78987e-19 -3.9098e-19 -0.0128606)
(-3.75719e-20 -9.28996e-19 -0.0128211)
(-1.40216e-18 -4.90421e-19 -0.0130369)
(-2.17665e-18 1.56546e-18 -0.0130436)
(-2.94791e-19 6.91421e-19 -0.013047)
(-1.20458e-18 -5.34113e-19 -0.013047)
(-4.86952e-19 -5.70702e-19 -0.0130436)
(-1.9947e-18 -4.47026e-19 -0.0130369)
(-1.59141e-18 6.88829e-19 -0.0130268)
(-7.7408e-19 -6.64377e-19 -0.0130135)
(-8.91046e-19 9.27815e-19 -0.0129969)
(1.5171e-18 2.00851e-18 -0.0129772)
(-2.77699e-20 6.90418e-19 -0.0129544)
(1.16248e-18 7.69665e-19 -0.0129288)
(-1.07013e-18 1.29389e-18 -0.0129003)
(-1.12654e-19 -2.4467e-19 -0.0128692)
(1.49984e-18 1.58179e-18 -0.0128356)
(-1.04589e-18 1.36723e-18 -0.0127999)
(8.16469e-19 1.07786e-19 -0.0127622)
(1.76349e-19 -8.83516e-19 -0.0127224)
(1.82388e-19 5.83146e-19 -0.012928)
(-1.34339e-18 -7.9693e-19 -0.0129381)
(-2.12409e-18 1.10714e-18 -0.0129449)
(-4.06124e-19 6.76963e-19 -0.0129483)
(-1.27945e-18 -5.11088e-19 -0.0129483)
(-4.61182e-19 -5.50953e-19 -0.0129449)
(-1.9735e-18 -5.7256e-19 -0.0129381)
(-1.64255e-18 6.05569e-19 -0.012928)
(-7.24091e-19 -7.0442e-19 -0.0129146)
(-6.00661e-19 1.32174e-18 -0.012898)
(1.47542e-18 1.87779e-18 -0.0128782)
(-1.05227e-19 6.07661e-19 -0.0128553)
(1.26697e-18 8.33371e-19 -0.0128296)
(-1.33377e-18 1.04565e-18 -0.012801)
(6.32046e-20 -1.48446e-19 -0.0127697)
(1.54805e-18 1.50704e-18 -0.012736)
(-7.12516e-19 2.07265e-18 -0.0127001)
(1.22924e-18 7.36054e-19 -0.0126622)
(4.77686e-19 -6.17223e-19 -0.0126222)
(1.47243e-20 9.24028e-19 -0.0128277)
(-1.39615e-18 -6.19372e-19 -0.0128379)
(-2.05634e-18 3.39045e-19 -0.0128447)
(-4.78531e-19 4.28012e-19 -0.0128481)
(-1.35209e-18 -6.92828e-19 -0.0128481)
(-4.1813e-19 -3.22137e-19 -0.0128447)
(-1.89102e-18 -3.7277e-19 -0.0128379)
(-1.60392e-18 9.46301e-19 -0.0128277)
(-6.10493e-19 -4.84024e-19 -0.0128142)
(-3.73005e-19 1.53151e-18 -0.0127975)
(1.42497e-18 1.83367e-18 -0.0127777)
(-2.91061e-19 2.61581e-19 -0.0127547)
(1.31138e-18 8.23859e-19 -0.0127288)
(-1.64233e-18 6.84167e-19 -0.0127001)
(2.76595e-19 -6.20752e-20 -0.0126687)
(1.4579e-18 1.12742e-18 -0.0126348)
(-5.01761e-19 2.54517e-18 -0.0125987)
(1.43714e-18 1.13654e-18 -0.0125606)
(7.22361e-19 -2.97431e-19 -0.0125204)
(-5.64977e-20 1.01968e-18 -0.0127258)
(-1.53467e-18 -4.06574e-19 -0.012736)
(-2.04358e-18 -2.98975e-19 -0.0127428)
(-5.17133e-19 1.55905e-19 -0.0127462)
(-1.37335e-18 -7.71202e-19 -0.0127462)
(-3.12326e-19 5.24294e-20 -0.0127428)
(-1.81592e-18 -2.06029e-19 -0.012736)
(-1.58851e-18 1.25489e-18 -0.0127258)
(-4.78301e-19 -1.04572e-19 -0.0127123)
(-1.32452e-19 1.86884e-18 -0.0126955)
(1.3032e-18 1.72085e-18 -0.0126755)
(-3.1086e-19 3.13682e-19 -0.0126524)
(1.43222e-18 9.23022e-19 -0.0126264)
(-1.94811e-18 3.18757e-19 -0.0125976)
(4.29461e-19 -4.04335e-20 -0.012566)
(1.21057e-18 5.06634e-19 -0.012532)
(-7.18471e-19 2.33355e-18 -0.0124957)
(1.53339e-18 1.3824e-18 -0.0124574)
(1.18283e-18 3.72872e-19 -0.012417)
(-4.44343e-20 8.41341e-19 -0.0126222)
(-1.61752e-18 -6.89592e-19 -0.0126324)
(-2.07155e-18 -6.20434e-19 -0.0126393)
(-5.29778e-19 5.24869e-20 -0.0126427)
(-1.36262e-18 -6.67841e-19 -0.0126427)
(-2.29211e-19 3.05532e-19 -0.0126393)
(-1.8004e-18 -5.08609e-19 -0.0126324)
(-1.56352e-18 1.40468e-18 -0.0126222)
(-3.42807e-19 1.81892e-19 -0.0126086)
(1.56384e-19 2.51676e-18 -0.0125917)
(1.18084e-18 1.60885e-18 -0.0125717)
(-4.07073e-20 1.06358e-18 -0.0125485)
(1.49527e-18 1.07849e-18 -0.0125223)
(-2.17993e-18 1.32409e-19 -0.0124933)
(6.49477e-19 7.86635e-20 -0.0124616)
(1.02685e-18 4.02434e-20 -0.0124274)
(-1.12068e-18 1.78326e-18 -0.012391)
(1.66819e-18 1.50137e-18 -0.0123525)
(1.50141e-18 9.70417e-19 -0.0123119)
(-6.7324e-20 6.87659e-19 -0.0125168)
(-1.65507e-18 -1.4328e-18 -0.0125271)
(-2.10151e-18 -5.10866e-19 -0.0125339)
(-5.36072e-19 4.33881e-19 -0.0125374)
(-1.34111e-18 -6.63896e-19 -0.0125374)
(-2.00487e-19 1.48478e-19 -0.0125339)
(-1.76661e-18 -6.17696e-19 -0.0125271)
(-1.53339e-18 1.42288e-18 -0.0125168)
(-2.49034e-19 1.1558e-19 -0.0125031)
(2.9473e-19 2.67188e-18 -0.0124862)
(1.10951e-18 1.63747e-18 -0.012466)
(8.18723e-20 1.4004e-18 -0.0124428)
(1.34094e-18 8.43633e-19 -0.0124165)
(-2.27475e-18 1.91662e-19 -0.0123873)
(9.39678e-19 3.62462e-19 -0.0123555)
(9.62341e-19 -1.35508e-19 -0.0123211)
(-1.34515e-18 1.44301e-18 -0.0122844)
(2.04082e-18 1.86042e-18 -0.0122457)
(1.24909e-18 9.19343e-19 -0.012205)
(-9.98238e-20 3.71789e-19 -0.0124095)
(-1.7088e-18 -1.74685e-18 -0.0124199)
(-2.07556e-18 -1.61893e-21 -0.0124268)
(-5.67944e-19 7.31385e-19 -0.0124302)
(-1.39339e-18 -7.85128e-19 -0.0124302)
(-1.70043e-19 -2.29097e-19 -0.0124268)
(-1.69766e-18 -6.88857e-19 -0.0124199)
(-1.48185e-18 1.70645e-18 -0.0124095)
(-2.05617e-19 -9.18515e-20 -0.0123958)
(2.53611e-19 2.11025e-18 -0.0123788)
(9.83725e-19 1.48049e-18 -0.0123585)
(-1.04677e-20 1.31388e-18 -0.0123351)
(9.9943e-19 1.8391e-19 -0.0123087)
(-2.33421e-18 2.11657e-19 -0.0122794)
(1.10103e-18 4.06204e-19 -0.0122474)
(5.63817e-19 -7.92774e-19 -0.0122129)
(-1.3353e-18 1.34846e-18 -0.012176)
(2.29076e-18 2.08108e-18 -0.0121371)
(8.16945e-19 6.59932e-19 -0.0120961)
(-1.64651e-19 2.992e-19 -0.0123003)
(-1.78772e-18 -1.47312e-18 -0.0123107)
(-2.06333e-18 3.76457e-19 -0.0123176)
(-6.171e-19 2.13789e-19 -0.0123211)
(-1.44589e-18 -8.14258e-19 -0.0123211)
(-1.21479e-19 -2.81589e-19 -0.0123176)
(-1.62984e-18 -1.14478e-18 -0.0123107)
(-1.38672e-18 2.19784e-18 -0.0123003)
(-2.58259e-19 -4.06553e-19 -0.0122865)
(2.04439e-19 1.56967e-18 -0.0122694)
(8.26596e-19 1.1238e-18 -0.012249)
(-9.59026e-21 1.51223e-18 -0.0122255)
(7.76667e-19 -2.35411e-19 -0.012199)
(-2.27266e-18 3.94184e-19 -0.0121696)
(1.1876e-18 4.73926e-19 -0.0121374)
(1.48738e-19 -1.48665e-18 -0.0121026)
(-1.10431e-18 1.44884e-18 -0.0120656)
(2.19405e-18 1.91349e-18 -0.0120264)
(5.46631e-19 5.31989e-19 -0.0119852)
(-2.42537e-19 3.61364e-19 -0.012189)
(-1.86034e-18 -1.27349e-18 -0.0121994)
(-2.10338e-18 5.99858e-19 -0.0122064)
(-6.70856e-19 -3.04624e-19 -0.0122099)
(-1.44443e-18 -6.83897e-19 -0.0122099)
(-9.08366e-20 -1.29409e-19 -0.0122064)
(-1.53836e-18 -1.55663e-18 -0.0121994)
(-1.35965e-18 2.28423e-18 -0.012189)
(-3.13315e-19 -5.63481e-19 -0.0121751)
(2.62976e-19 1.36101e-18 -0.0121579)
(7.94178e-19 1.02226e-18 -0.0121375)
(-1.54172e-20 1.68933e-18 -0.0121139)
(7.61287e-19 -1.75849e-19 -0.0120872)
(-2.19188e-18 5.73871e-19 -0.0120576)
(1.41084e-18 8.16583e-19 -0.0120252)
(2.61091e-19 -1.38017e-18 -0.0119903)
(-9.36322e-19 1.45777e-18 -0.011953)
(1.86091e-18 1.47592e-18 -0.0119137)
(5.93438e-19 7.68622e-19 -0.0118722)
(-2.40277e-19 -6.20496e-20 -0.0120755)
(-1.91333e-18 -1.09457e-18 -0.012086)
(-2.16206e-18 8.70337e-19 -0.012093)
(-7.41736e-19 -3.33795e-19 -0.0120965)
(-1.42331e-18 -4.88081e-19 -0.0120965)
(-7.95402e-20 9.20568e-21 -0.012093)
(-1.45738e-18 -1.92115e-18 -0.012086)
(-1.37398e-18 2.0361e-18 -0.0120755)
(-2.58403e-19 -2.69014e-19 -0.0120616)
(3.62151e-19 1.29224e-18 -0.0120443)
(8.07697e-19 1.06209e-18 -0.0120237)
(-1.00535e-19 1.64642e-18 -0.012)
(8.58309e-19 1.1088e-19 -0.0119731)
(-2.1174e-18 7.19428e-19 -0.0119434)
(1.60227e-18 1.07162e-18 -0.0119109)
(4.52057e-19 -1.09062e-18 -0.0118757)
(-9.45994e-19 1.32386e-18 -0.0118382)
(1.59229e-18 1.07128e-18 -0.0117987)
(7.23483e-19 1.06203e-18 -0.0117569)
(-1.30578e-19 -9.72933e-19 -0.0119597)
(-1.92312e-18 -8.65572e-19 -0.0119702)
(-2.22267e-18 1.02263e-18 -0.0119773)
(-8.20109e-19 -1.8754e-19 -0.0119808)
(-1.40385e-18 -3.28355e-19 -0.0119808)
(-9.06711e-20 3.19022e-19 -0.0119773)
(-1.36017e-18 -2.03948e-18 -0.0119702)
(-1.34267e-18 1.78289e-18 -0.0119597)
(-2.30493e-19 -1.34609e-19 -0.0119457)
(3.85512e-19 1.01851e-18 -0.0119283)
(8.21342e-19 1.09951e-18 -0.0119076)
(-1.94045e-19 1.54854e-18 -0.0118838)
(8.51345e-19 1.41516e-19 -0.0118568)
(-2.12195e-18 7.45315e-19 -0.0118269)
(1.66186e-18 1.08827e-18 -0.0117941)
(4.0759e-19 -1.15723e-18 -0.0117588)
(-8.69373e-19 1.3285e-18 -0.0117211)
(1.47649e-18 8.30918e-19 -0.0116813)
(9.07809e-19 1.45179e-18 -0.0116393)
(-7.45459e-20 -1.49235e-18 -0.0118414)
(-1.86757e-18 -7.34035e-19 -0.011852)
(-2.27314e-18 9.98849e-19 -0.0118591)
(-8.99272e-19 1.07908e-19 -0.0118627)
(-1.36593e-18 -1.23003e-19 -0.0118627)
(-9.65173e-20 5.78701e-19 -0.0118591)
(-1.23432e-18 -1.66873e-18 -0.011852)
(-1.30966e-18 1.64923e-18 -0.0118414)
(-2.92191e-19 -3.24423e-19 -0.0118274)
(4.61202e-19 8.75282e-19 -0.0118099)
(9.09413e-19 1.30473e-18 -0.0117891)
(-2.97166e-19 1.47519e-18 -0.0117651)
(7.5928e-19 -2.20667e-20 -0.0117379)
(-2.08115e-18 8.36224e-19 -0.0117078)
(1.76602e-18 1.20264e-18 -0.0116749)
(6.05288e-20 -1.70217e-18 -0.0116394)
(-7.17522e-19 1.44821e-18 -0.0116014)
(1.19045e-18 3.41068e-19 -0.0115614)
(9.50433e-19 1.6325e-18 -0.0115191)
(-1.37693e-19 -1.32238e-18 -0.0117206)
(-1.76609e-18 -1.00469e-18 -0.0117312)
(-2.30524e-18 9.09539e-19 -0.0117384)
(-9.5805e-19 3.11034e-19 -0.011742)
(-1.34781e-18 2.83407e-20 -0.011742)
(-1.02535e-19 7.40455e-19 -0.0117384)
(-1.13047e-18 -1.47069e-18 -0.0117312)
(-1.32181e-18 1.44627e-18 -0.0117206)
(-3.34098e-19 -4.78596e-19 -0.0117064)
(6.57059e-19 1.04257e-18 -0.0116889)
(9.58273e-19 1.42744e-18 -0.0116679)
(-4.11012e-19 1.43777e-18 -0.0116438)
(7.23335e-19 -1.04907e-19 -0.0116165)
(-1.91129e-18 1.14974e-18 -0.0115862)
(1.90092e-18 1.47629e-18 -0.0115531)
(-3.00516e-19 -2.26906e-18 -0.0115173)
(-4.17428e-19 1.75135e-18 -0.0114791)
(1.00725e-18 7.14297e-21 -0.0114388)
(4.98012e-19 1.21932e-18 -0.0113962)
(-2.3748e-19 -1.09133e-18 -0.0115969)
(-1.67936e-18 -1.30111e-18 -0.0116077)
(-2.33384e-18 1.12836e-18 -0.0116149)
(-1.00847e-18 4.04621e-19 -0.0116185)
(-1.31448e-18 1.6988e-19 -0.0116185)
(-1.15348e-19 8.48815e-19 -0.0116149)
(-1.07976e-18 -1.44554e-18 -0.0116077)
(-1.37767e-18 9.93757e-19 -0.0115969)
(-3.24283e-19 -5.15076e-19 -0.0115827)
(8.07087e-19 1.03044e-18 -0.011565)
(8.44178e-19 1.10853e-18 -0.011544)
(-5.23173e-19 1.41629e-18 -0.0115197)
(7.71634e-19 -5.86621e-20 -0.0114922)
(-1.70117e-18 1.50639e-18 -0.0114618)
(1.94625e-18 1.67148e-18 -0.0114284)
(-4.50107e-19 -2.53819e-18 -0.0113924)
(-9.98461e-20 2.05199e-18 -0.011354)
(1.07056e-18 8.10088e-20 -0.0113134)
(-8.55293e-21 7.28129e-19 -0.0112705)
(-3.12174e-19 -1.00974e-18 -0.0114704)
(-1.59695e-18 -1.43241e-18 -0.0114812)
(-2.35558e-18 1.35884e-18 -0.0114884)
(-1.06633e-18 4.53536e-19 -0.011492)
(-1.29222e-18 3.64071e-19 -0.011492)
(-1.53946e-19 7.37264e-19 -0.0114884)
(-1.04945e-18 -1.42293e-18 -0.0114812)
(-1.41348e-18 6.84148e-19 -0.0114704)
(-2.71894e-19 -4.48544e-19 -0.0114561)
(8.80288e-19 8.2074e-19 -0.0114383)
(6.98961e-19 6.76467e-19 -0.0114171)
(-5.58107e-19 1.50659e-18 -0.0113926)
(9.21937e-19 1.59925e-19 -0.011365)
(-1.56832e-18 1.7357e-18 -0.0113343)
(1.99009e-18 1.91958e-18 -0.0113008)
(-4.35855e-19 -2.57738e-18 -0.0112646)
(-3.17989e-20 1.97188e-18 -0.0112259)
(1.37417e-18 4.98309e-19 -0.011185)
(-8.14638e-20 7.10964e-19 -0.0111418)
(-3.9059e-19 -8.96259e-19 -0.0113407)
(-1.51874e-18 -1.55033e-18 -0.0113515)
(-2.33634e-18 1.18435e-18 -0.0113588)
(-1.11223e-18 3.98017e-19 -0.0113625)
(-1.27476e-18 4.14428e-19 -0.0113625)
(-1.96907e-19 6.79832e-19 -0.0113588)
(-1.02242e-18 -1.42683e-18 -0.0113515)
(-1.40924e-18 5.43801e-19 -0.0113407)
(-1.69024e-19 -1.34841e-19 -0.0113263)
(9.28705e-19 5.75313e-19 -0.0113084)
(6.01945e-19 3.32289e-19 -0.0112871)
(-5.69386e-19 1.597e-18 -0.0112624)
(1.07658e-18 3.8424e-19 -0.0112346)
(-1.31808e-18 2.18298e-18 -0.0112038)
(1.99129e-18 2.09941e-18 -0.01117)
(-3.77684e-19 -2.4976e-18 -0.0111335)
(-4.00635e-20 1.74177e-18 -0.0110945)
(1.63154e-18 8.17959e-19 -0.0110533)
(2.69799e-19 1.2422e-18 -0.0110098)
(-4.6124e-19 -8.03124e-19 -0.0112076)
(-1.50091e-18 -1.34977e-18 -0.0112186)
(-2.31173e-18 9.2585e-19 -0.0112259)
(-1.1468e-18 3.7246e-19 -0.0112296)
(-1.25672e-18 4.18506e-19 -0.0112296)
(-2.36175e-19 6.5086e-19 -0.0112259)
(-1.00278e-18 -1.40097e-18 -0.0112186)
(-1.40491e-18 2.97522e-19 -0.0112076)
(-2.80258e-20 3.39146e-19 -0.0111931)
(9.45886e-19 3.38145e-19 -0.0111751)
(5.39186e-19 4.41078e-20 -0.0111537)
(-6.93485e-19 1.34195e-18 -0.0111289)
(1.08093e-18 1.83012e-19 -0.0111009)
(-1.18216e-18 2.44943e-18 -0.0110698)
(1.72397e-18 1.90023e-18 -0.0110358)
(-3.10552e-19 -2.41457e-18 -0.010999)
(1.62458e-19 1.78624e-18 -0.0109598)
(1.57348e-18 6.89363e-19 -0.0109183)
(4.52554e-19 1.64278e-18 -0.0108744)
(-5.3414e-19 -6.45362e-19 -0.011071)
(-1.47777e-18 -1.24457e-18 -0.011082)
(-2.30602e-18 7.48617e-19 -0.0110894)
(-1.16997e-18 3.48645e-19 -0.0110931)
(-1.23732e-18 5.04875e-19 -0.0110931)
(-2.75497e-19 6.44155e-19 -0.0110894)
(-9.90173e-19 -1.33446e-18 -0.011082)
(-1.38408e-18 2.37707e-20 -0.011071)
(1.03657e-19 7.58591e-19 -0.0110564)
(1.01699e-18 3.73083e-19 -0.0110383)
(5.45688e-19 -4.2556e-21 -0.0110167)
(-9.14753e-19 8.95985e-19 -0.0109917)
(1.07009e-18 -8.73932e-20 -0.0109635)
(-1.35873e-18 2.10824e-18 -0.0109322)
(1.46023e-18 1.68301e-18 -0.0108979)
(-2.07733e-19 -2.34195e-18 -0.0108609)
(3.53974e-19 1.84436e-18 -0.0108214)
(1.31724e-18 3.4035e-19 -0.0107796)
(1.15468e-19 1.45537e-18 -0.0107353)
(3.95152e-19 6.34978e-19 -0.0109159)
(-6.24794e-19 -4.71956e-19 -0.0109306)
(-1.43185e-18 -1.45464e-18 -0.0109417)
(-2.29956e-18 6.58692e-19 -0.0109491)
(-1.17853e-18 2.07603e-19 -0.0109528)
(-1.2149e-18 5.68982e-19 -0.0109528)
(-3.15163e-19 6.55617e-19 -0.0109491)
(-9.98406e-19 -1.30942e-18 -0.0109417)
(-1.32221e-18 -7.81593e-20 -0.0109306)
(1.31792e-19 6.19501e-19 -0.0109159)
(1.1379e-18 6.09939e-19 -0.0108976)
(4.83943e-19 -1.74763e-19 -0.0108758)
(-1.03157e-18 7.17272e-19 -0.0108507)
(1.24839e-18 4.61388e-20 -0.0108223)
(-1.42593e-18 2.00408e-18 -0.0107907)
(1.30993e-18 1.62373e-18 -0.0107562)
(-2.63985e-19 -2.52714e-18 -0.0107189)
(2.4333e-19 1.51644e-18 -0.0106791)
(1.08703e-18 5.62717e-20 -0.0106369)
(-2.08216e-19 1.22935e-18 -0.0105923)
(4.23686e-19 5.2073e-19 -0.0107712)
(-6.81087e-19 -5.57274e-19 -0.010786)
(-1.40911e-18 -1.49165e-18 -0.0107972)
(-2.29671e-18 6.63644e-19 -0.0108046)
(-1.18138e-18 -4.47077e-20 -0.0108084)
(-1.18492e-18 5.12384e-19 -0.0108084)
(-3.6493e-19 5.83114e-19 -0.0108046)
(-1.00085e-18 -1.23479e-18 -0.0107972)
(-1.24723e-18 1.47621e-20 -0.010786)
(8.74505e-20 1.36228e-19 -0.0107712)
(1.18201e-18 5.3632e-19 -0.0107528)
(3.51415e-19 -5.29833e-19 -0.0107308)
(-1.03903e-18 7.40441e-19 -0.0107055)
(1.45493e-18 2.11765e-19 -0.0106769)
(-1.53417e-18 1.85265e-18 -0.0106451)
(1.1947e-18 1.68286e-18 -0.0106103)
(-3.6456e-19 -2.74989e-18 -0.0105727)
(1.28221e-19 1.1624e-18 -0.0105325)
(1.09791e-18 3.33449e-20 -0.01049)
(-3.17708e-19 1.21336e-18 -0.0104451)
(4.85093e-19 2.72347e-19 -0.0106221)
(-7.16224e-19 -6.87512e-19 -0.010637)
(-1.40276e-18 -1.30617e-18 -0.0106483)
(-2.32079e-18 8.26e-19 -0.0106558)
(-1.18972e-18 -2.71468e-19 -0.0106596)
(-1.14592e-18 5.45709e-19 -0.0106596)
(-4.16471e-19 3.46041e-19 -0.0106558)
(-9.89213e-19 -1.09741e-18 -0.0106483)
(-1.2062e-18 3.90243e-20 -0.010637)
(1.02182e-19 -3.60457e-20 -0.0106221)
(1.15438e-18 1.9897e-19 -0.0106035)
(2.25501e-19 -9.10398e-19 -0.0105814)
(-9.66572e-19 9.19755e-19 -0.0105559)
(1.50835e-18 8.3641e-20 -0.010527)
(-1.78279e-18 1.44398e-18 -0.010495)
(1.22288e-18 1.95812e-18 -0.0104599)
(-2.64084e-19 -2.66571e-18 -0.010422)
(1.9201e-19 1.021e-18 -0.0103815)
(1.18844e-18 1.04829e-19 -0.0103386)
(-4.02071e-19 1.23426e-18 -0.0102932)
(4.99329e-19 1.24274e-19 -0.0104682)
(-7.52453e-19 -7.29179e-19 -0.0104832)
(-1.38265e-18 -1.10734e-18 -0.0104946)
(-2.35242e-18 9.38041e-19 -0.0105022)
(-1.20412e-18 -3.58735e-19 -0.010506)
(-1.10996e-18 5.43074e-19 -0.010506)
(-4.69422e-19 1.53481e-19 -0.0105022)
(-9.85501e-19 -1.07436e-18 -0.0104946)
(-1.15615e-18 1.3535e-19 -0.0104832)
(1.51897e-19 -1.44138e-20 -0.0104682)
(1.09699e-18 -1.94493e-19 -0.0104495)
(1.0295e-19 -1.35794e-18 -0.0104272)
(-8.58744e-19 1.17568e-18 -0.0104014)
(1.49795e-18 -1.29275e-19 -0.0103724)
(-1.91104e-18 1.20305e-18 -0.01034)
(1.28303e-18 2.25142e-18 -0.0103047)
(-6.42126e-20 -2.40153e-18 -0.0102665)
(1.79772e-19 7.83326e-19 -0.0102256)
(1.10912e-18 -3.63888e-20 -0.0101823)
(-4.81421e-19 1.25012e-18 -0.0101365)
(4.7596e-19 6.46326e-20 -0.0103091)
(-8.17129e-19 -5.75008e-19 -0.0103243)
(-1.35319e-18 -9.54768e-19 -0.0103358)
(-2.38782e-18 1.02575e-18 -0.0103434)
(-1.22695e-18 -2.40496e-19 -0.0103473)
(-1.07696e-18 4.21416e-19 -0.0103473)
(-5.07463e-19 9.42494e-20 -0.0103434)
(-9.7523e-19 -1.0724e-18 -0.0103358)
(-1.0755e-18 3.82133e-19 -0.0103243)
(1.88636e-19 5.82536e-20 -0.0103091)
(1.08847e-18 -3.49041e-19 -0.0102903)
(2.43788e-20 -1.75652e-18 -0.0102678)
(-8.45589e-19 1.15805e-18 -0.0102418)
(1.56835e-18 -1.45354e-19 -0.0102125)
(-1.86173e-18 1.28509e-18 -0.0101799)
(1.07557e-18 2.06928e-18 -0.0101442)
(1.59544e-19 -2.07434e-18 -0.0101057)
(7.69432e-20 4.50591e-19 -0.0100644)
(9.5888e-19 -2.79839e-19 -0.0100207)
(-7.01402e-19 1.07853e-18 -0.0099745)
(5.16416e-19 -1.97808e-19 -0.0101445)
(-8.91115e-19 -3.4082e-19 -0.0101598)
(-1.31465e-18 -8.7848e-19 -0.0101714)
(-2.41364e-18 1.06584e-18 -0.0101791)
(-1.2623e-18 3.33883e-20 -0.010183)
(-1.04659e-18 4.71696e-19 -0.010183)
(-5.25953e-19 2.5818e-19 -0.0101791)
(-9.41834e-19 -9.58929e-19 -0.0101714)
(-1.00623e-18 5.55514e-19 -0.0101598)
(2.56777e-19 2.8703e-19 -0.0101445)
(1.19676e-18 -4.96568e-20 -0.0101255)
(5.56638e-20 -1.80837e-18 -0.0101028)
(-9.42576e-19 8.25828e-19 -0.0100766)
(1.66188e-18 -1.64276e-19 -0.010047)
(-1.78867e-18 1.46197e-18 -0.0100141)
(7.72761e-19 1.72176e-18 -0.00997812)
(3.62801e-19 -1.79322e-18 -0.00993919)
(1.13112e-19 3.36168e-19 -0.00989756)
(7.07053e-19 -6.43715e-19 -0.00985347)
(-7.25097e-19 1.11654e-18 -0.00980677)
(5.99353e-19 -5.31343e-19 -0.00997383)
(-9.38947e-19 -1.55123e-19 -0.0099893)
(-1.27403e-18 -8.59375e-19 -0.0100009)
(-2.42015e-18 1.01161e-18 -0.0100087)
(-1.28443e-18 2.87564e-19 -0.0100126)
(-1.01203e-18 5.52841e-19 -0.0100126)
(-5.38996e-19 4.97757e-19 -0.0100087)
(-9.03851e-19 -7.39122e-19 -0.0100009)
(-9.72318e-19 4.95204e-19 -0.0099893)
(3.39536e-19 5.20672e-19 -0.00997383)
(1.32861e-18 3.5174e-19 -0.00995462)
(1.89229e-19 -1.46859e-18 -0.00993175)
(-1.00588e-18 6.00401e-19 -0.0099053)
(1.7299e-18 -2.86078e-19 -0.00987541)
(-1.82973e-18 1.43595e-18 -0.00984222)
(6.49794e-19 1.66587e-18 -0.00980588)
(4.72329e-19 -1.68e-18 -0.00976658)
(2.25793e-19 3.63803e-19 -0.00972454)
(3.39002e-19 -1.16651e-18 -0.00968001)
(-5.30495e-19 1.3955e-18 -0.00963283)
(7.0896e-19 -8.76494e-19 -0.00979657)
(-9.6224e-19 -5.52949e-20 -0.00981218)
(-1.22958e-18 -9.03662e-19 -0.00982394)
(-2.43051e-18 1.1314e-18 -0.00983181)
(-1.30202e-18 3.91471e-19 -0.00983575)
(-9.82136e-19 4.92502e-19 -0.00983575)
(-5.62457e-19 5.01971e-19 -0.00983181)
(-8.87804e-19 -5.97957e-19 -0.00982394)
(-9.39879e-19 4.46043e-19 -0.00981218)
(4.25044e-19 6.78164e-19 -0.00979657)
(1.35897e-18 3.57249e-19 -0.00977717)
(2.98803e-19 -1.15785e-18 -0.00975407)
(-8.91597e-19 8.68262e-19 -0.00972737)
(1.75112e-18 -5.13473e-19 -0.00969719)
(-1.8952e-18 1.34388e-18 -0.00966367)
(6.37051e-19 1.78052e-18 -0.00962697)
(5.49143e-19 -1.61236e-18 -0.00958729)
(1.91374e-19 2.37826e-19 -0.00954482)
(1.60341e-20 -1.64952e-18 -0.00949984)
(-5.31306e-19 1.4303e-18 -0.00945215)
(7.74533e-19 -1.05839e-18 -0.00961211)
(-9.3865e-19 -1.25412e-19 -0.00962788)
(-1.17476e-18 -9.3144e-19 -0.00963976)
(-2.43204e-18 1.23568e-18 -0.00964771)
(-1.32523e-18 3.8191e-19 -0.00965169)
(-9.56441e-19 3.88463e-19 -0.00965169)
(-5.90969e-19 3.83127e-19 -0.00964771)
(-8.80362e-19 -5.86646e-19 -0.00963976)
(-8.60354e-19 6.09731e-19 -0.00962788)
(4.96946e-19 8.42386e-19 -0.00961211)
(1.30534e-18 8.00399e-20 -0.00959253)
(3.09306e-19 -1.22116e-18 -0.0095692)
(-7.67354e-19 1.20824e-18 -0.00954223)
(1.75778e-18 -7.25995e-19 -0.00951174)
(-1.9005e-18 1.33838e-18 -0.00947788)
(5.0739e-19 1.68816e-18 -0.00944081)
(7.18705e-19 -1.38893e-18 -0.00940071)
(5.74827e-20 7.70094e-21 -0.00935781)
(-1.55822e-19 -1.96194e-18 -0.00931234)
(-6.1064e-19 1.33835e-18 -0.00926413)
(7.56011e-19 -8.75076e-19 -0.00941981)
(-9.41445e-19 -5.18871e-20 -0.00943574)
(-1.12537e-18 -8.56608e-19 -0.00944774)
(-2.42062e-18 1.20934e-18 -0.00945577)
(-1.35032e-18 3.64621e-19 -0.00945979)
(-9.30034e-19 3.87729e-19 -0.00945979)
(-6.26988e-19 1.28198e-19 -0.00945577)
(-8.61386e-19 -5.77384e-19 -0.00944774)
(-7.95189e-19 6.57291e-19 -0.00943574)
(5.17707e-19 8.53179e-19 -0.00941981)
(1.29269e-18 -1.80341e-21 -0.00940002)
(2.79077e-19 -1.43856e-18 -0.00937645)
(-7.71987e-19 1.21628e-18 -0.0093492)
(1.83538e-18 -7.85929e-19 -0.00931839)
(-1.91304e-18 1.33332e-18 -0.00928417)
(4.0328e-19 1.61745e-18 -0.00924671)
(9.78597e-19 -1.03416e-18 -0.00920619)
(-7.27767e-20 -1.78945e-19 -0.00916282)
(-1.3967e-19 -2.06309e-18 -0.00911686)
(-6.35999e-19 1.2853e-18 -0.00906811)
(7.24473e-19 -5.66227e-19 -0.00921889)
(-9.71041e-19 1.62278e-19 -0.009235)
(-1.08857e-18 -7.1801e-19 -0.00924713)
(-2.3922e-18 9.75224e-19 -0.00925524)
(-1.36975e-18 3.76511e-19 -0.00925931)
(-9.11424e-19 5.15695e-19 -0.00925931)
(-6.53771e-19 2.01749e-20 -0.00925524)
(-8.37566e-19 -6.13008e-19 -0.00924713)
(-7.65442e-19 5.13219e-19 -0.009235)
(4.50666e-19 4.67887e-19 -0.00921889)
(1.30556e-18 2.05103e-20 -0.00919889)
(2.6982e-19 -1.5794e-18 -0.00917507)
(-7.75268e-19 1.21641e-18 -0.00914752)
(1.97496e-18 -7.13429e-19 -0.00911638)
(-2.11114e-18 9.67662e-19 -0.00908179)
(4.56847e-19 1.77504e-18 -0.00904392)
(1.17982e-18 -7.52813e-19 -0.00900295)
(-2.55544e-19 -4.14588e-19 -0.00895911)
(7.10567e-20 -1.94459e-18 -0.00891263)
(-5.70019e-19 1.32375e-18 -0.00886332)
(7.5337e-19 -4.77016e-19 -0.00900851)
(-9.87273e-19 2.86249e-19 -0.00902479)
(-1.05592e-18 -6.56178e-19 -0.00903706)
(-2.36345e-18 7.47358e-19 -0.00904526)
(-1.3699e-18 3.69462e-19 -0.00904937)
(-8.90694e-19 5.33551e-19 -0.00904937)
(-6.69294e-19 1.66949e-19 -0.00904526)
(-8.08283e-19 -5.3971e-19 -0.00903706)
(-7.58979e-19 3.26989e-19 -0.00902479)
(4.43682e-19 3.19109e-19 -0.00900851)
(1.33489e-18 5.49805e-20 -0.00898829)
(2.86006e-19 -1.65602e-18 -0.0089642)
(-7.40183e-19 1.28303e-18 -0.00893635)
(2.20664e-18 -3.86356e-19 -0.00890486)
(-2.27839e-18 6.53526e-19 -0.00886989)
(3.94693e-19 1.6839e-18 -0.00883159)
(1.27666e-18 -5.97013e-19 -0.00879016)
(-3.00632e-19 -4.60853e-19 -0.00874583)
(4.19434e-19 -1.69031e-18 -0.00869882)
(-4.99537e-19 1.37946e-18 -0.00864892)
(8.2488e-19 -5.44139e-19 -0.0087877)
(-9.66052e-19 2.40004e-19 -0.00880416)
(-1.00496e-18 -7.33787e-19 -0.00881657)
(-2.33839e-18 6.30613e-19 -0.00882487)
(-1.36715e-18 2.4451e-19 -0.00882902)
(-8.66955e-19 4.23846e-19 -0.00882902)
(-6.74401e-19 2.8889e-19 -0.00882487)
(-7.81119e-19 -4.10651e-19 -0.00881657)
(-7.44384e-19 1.62005e-19 -0.00880416)
(5.35668e-19 5.44775e-19 -0.0087877)
(1.38661e-18 2.19355e-19 -0.00876724)
(4.1407e-19 -1.40532e-18 -0.00874288)
(-7.61884e-19 1.15317e-18 -0.00871471)
(2.43607e-18 -5.62251e-20 -0.00868287)
(-2.19623e-18 8.65055e-19 -0.00864749)
(2.16406e-19 1.38553e-18 -0.00860875)
(1.25156e-18 -6.56118e-19 -0.00856685)
(-1.22798e-19 -2.26532e-19 -0.00852201)
(8.62202e-19 -1.31804e-18 -0.00847445)
(-7.4646e-19 1.10807e-18 -0.00842397)
(8.47641e-19 -3.97206e-19 -0.00855535)
(-9.34386e-19 1.31999e-19 -0.00857201)
(-9.56165e-19 -7.78899e-19 -0.00858455)
(-2.30181e-18 3.95397e-19 -0.00859295)
(-1.36025e-18 1.49551e-19 -0.00859715)
(-8.31955e-19 3.25932e-19 -0.00859715)
(-6.86055e-19 2.8452e-19 -0.00859295)
(-7.78955e-19 -4.21247e-19 -0.00858455)
(-7.11955e-19 7.16048e-20 -0.00857201)
(5.79775e-19 5.19866e-19 -0.00855535)
(1.40206e-18 2.31513e-19 -0.00853466)
(5.26465e-19 -1.15463e-18 -0.00851001)
(-8.42626e-19 9.01976e-19 -0.00848151)
(2.46825e-18 -1.92833e-19 -0.0084493)
(-2.05328e-18 1.21188e-18 -0.00841351)
(7.19299e-20 1.17481e-18 -0.00837433)