/*--------------------------------*- C++ -*----------------------------------*\
  =========                 |
  \\      /  F ield         | OpenFOAM: The Open Source CFD Toolbox
   \\    /   O peration     | Website:  https://openfoam.org
    \\  /    A nd           | Version:  7
     \\/     M anipulation  |
\*---------------------------------------------------------------------------*/
FoamFile
{
    version     2.0;
    format      ascii;
    class       volVectorField;
    location    "44000";
    object      vorticity;
}
// * * * * * * * * * * * * * * * * * * * * * * * * * * * * * * * * * * * * * //

dimensions      [0 0 -1 0 0 0 0];

internalField   nonuniform List<vector> 
1762
(
(0.0243294 -0.0102741 -1.57693e-17)
(0.0239806 -0.0116444 -4.15107e-18)
(0.0235842 -0.0130134 5.13468e-18)
(0.023139 -0.0143803 -1.35578e-17)
(0.0226437 -0.0157437 -1.79361e-17)
(0.0220965 -0.0171016 9.82839e-18)
(0.0214892 -0.0184592 1.96473e-18)
(0.0215204 -0.0191105 1.49491e-17)
(0.0251487 -0.0106132 -1.65711e-17)
(0.0247879 -0.0120293 -6.12555e-18)
(0.0243779 -0.0134444 6.82024e-18)
(0.0239172 -0.0148574 -1.16237e-17)
(0.0234045 -0.016267 -1.75325e-17)
(0.0228382 -0.0176712 1.03696e-17)
(0.0222097 -0.019075 -3.41028e-19)
(0.0222141 -0.0197759 1.39471e-17)
(0.0272783 -0.000730286 -5.89831e-18)
(0.0272335 -0.00219098 -8.98594e-18)
(0.0271437 -0.00365203 1.0636e-17)
(0.0270086 -0.00511361 8.54101e-18)
(0.0268276 -0.00657585 -6.52125e-18)
(0.0266 -0.0080388 2.08381e-17)
(0.026325 -0.00950234 -1.47144e-18)
(0.0260015 -0.0109662 -1.71939e-17)
(0.0256283 -0.01243 -9.18924e-18)
(0.0252041 -0.013893 8.35262e-18)
(0.0247274 -0.0153541 -1.00412e-17)
(0.0241968 -0.0168119 -1.67587e-17)
(0.0236105 -0.0182644 1.11405e-17)
(0.02296 -0.0197164 -1.56417e-18)
(0.022937 -0.0204686 1.15512e-17)
(0.0280707 0.00377388 1.83983e-17)
(0.0281634 0.00226406 1.68686e-17)
(0.0282097 0.000754641 -8.78296e-18)
(0.0282097 -0.000754639 -6.73573e-18)
(0.0281634 -0.00226406 -9.3749e-18)
(0.0280707 -0.00377388 1.04939e-17)
(0.027931 -0.00528434 8.41722e-18)
(0.027744 -0.00679559 -5.73122e-18)
(0.0275087 -0.00830768 1.91134e-17)
(0.0272244 -0.00982055 -2.09895e-18)
(0.0268899 -0.011334 -1.71218e-17)
(0.0265038 -0.0128475 -1.29354e-17)
(0.026065 -0.0143604 9.07775e-18)
(0.0255717 -0.0158716 -8.82576e-18)
(0.0250225 -0.0173797 -1.58975e-17)
(0.0244155 -0.0188826 1.2962e-17)
(0.0237422 -0.0203849 -1.6249e-18)
(0.023691 -0.0211904 8.22169e-18)
(0.0290369 0.00390092 1.96053e-17)
(0.0291328 0.00234024 1.71363e-17)
(0.0291806 0.000780028 -9.79985e-18)
(0.0291806 -0.000780025 -6.34869e-18)
(0.0291328 -0.00234024 -8.91866e-18)
(0.0290369 -0.00390092 1.0544e-17)
(0.0288926 -0.00546233 8.72465e-18)
(0.0286993 -0.00702466 -4.5311e-18)
(0.0284561 -0.00858802 1.77482e-17)
(0.0281621 -0.0101523 -3.03047e-18)
(0.0278161 -0.0117174 -1.6186e-17)
(0.0274168 -0.0132828 -1.62314e-17)
(0.0269627 -0.0148478 9.4448e-18)
(0.0264523 -0.0164114 -7.62097e-18)
(0.0258837 -0.0179719 -1.47519e-17)
(0.0252552 -0.0195275 1.54489e-17)
(0.0245582 -0.0210824 -1.36171e-18)
(0.0244781 -0.0219433 4.17224e-18)
(0.0300451 0.00403347 2.09582e-17)
(0.0301442 0.00241973 1.81448e-17)
(0.0301936 0.000806516 -1.02454e-17)
(0.0301936 -0.000806514 -5.22962e-18)
(0.0301442 -0.00241973 -7.98604e-18)
(0.0300451 -0.00403347 1.05309e-17)
(0.0298959 -0.00564805 9.01154e-18)
(0.0296961 -0.00726371 -4.04255e-18)
(0.0294447 -0.00888056 1.66619e-17)
(0.0291406 -0.0104986 -3.57471e-18)
(0.0287828 -0.0121176 -1.45171e-17)
(0.0283697 -0.0137372 -1.84874e-17)
(0.0278998 -0.0153566 9.65932e-18)
(0.0273714 -0.0169748 -6.1674e-18)
(0.0267827 -0.0185902 -1.38021e-17)
(0.0261319 -0.0202007 1.65115e-17)
(0.0254102 -0.0218106 -1.29954e-18)
(0.0253004 -0.0227291 5.84027e-19)
(0.0310979 0.00417191 2.22211e-17)
(0.0312003 0.00250274 2.01077e-17)
(0.0312514 0.00083418 -1.06639e-17)
(0.0312514 -0.000834177 -4.27192e-18)
(0.0312003 -0.00250274 -7.01989e-18)
(0.0310979 -0.00417191 1.05718e-17)
(0.0309437 -0.00584202 9.09923e-18)
(0.0307371 -0.00751337 -3.57347e-18)
(0.0304771 -0.00918611 1.54652e-17)
(0.0301627 -0.0108603 -4.43832e-18)
(0.0297925 -0.0125356 -1.26713e-17)
(0.0293651 -0.0142118 -1.98737e-17)
(0.0288788 -0.0158881 9.22848e-18)
(0.0283318 -0.0175635 -4.07783e-18)
(0.0277222 -0.0192363 -1.25435e-17)
(0.027048 -0.0209043 1.70697e-17)
(0.0263007 -0.0225717 -2.21159e-18)
(0.0261602 -0.0235502 -1.83404e-18)
(0.0321984 0.00431662 2.22796e-17)
(0.0323043 0.00258952 2.24928e-17)
(0.0323571 0.000863097 -1.0654e-17)
(0.0323571 -0.000863094 -3.94004e-18)
(0.0323043 -0.00258952 -7.03836e-18)
(0.0321984 -0.00431662 1.05936e-17)
(0.032039 -0.0060448 9.43198e-18)
(0.0318253 -0.00777438 -3.06646e-18)
(0.0315565 -0.00950555 1.4041e-17)
(0.0312312 -0.0112384 -5.76217e-18)
(0.0308483 -0.0129727 -1.06303e-17)
(0.0304059 -0.0147081 -2.01041e-17)
(0.0299025 -0.016444 9.06869e-18)
(0.0293361 -0.0181791 -2.57853e-18)
(0.0287048 -0.0199119 -1.12188e-17)
(0.0280063 -0.0216402 1.80217e-17)
(0.0272322 -0.0233679 -3.00568e-18)
(0.02706 -0.0244088 -4.38903e-18)
(0.0333498 0.00446805 2.18031e-17)
(0.0334593 0.00268032 2.47275e-17)
(0.0335139 0.000893355 -9.60871e-18)
(0.0335139 -0.000893352 -3.28571e-18)
(0.0334593 -0.00268032 -7.86495e-18)
(0.0333498 -0.00446804 9.70292e-18)
(0.033185 -0.00625698 9.8776e-18)
(0.032964 -0.0080475 -2.58003e-18)
(0.0326859 -0.00983984 1.2556e-17)
(0.0323494 -0.0116341 -6.73155e-18)
(0.0319531 -0.0134301 -9.20126e-18)
(0.0314953 -0.0152276 -2.05649e-17)
(0.0309741 -0.0170257 1.01887e-17)
(0.0303875 -0.0188235 -2.48181e-18)
(0.0297334 -0.0206192 -9.55527e-18)
(0.0290096 -0.0224106 1.92846e-17)
(0.0282075 -0.0242015 -3.44304e-18)
(0.0280026 -0.0253076 -7.85584e-18)
(0.0345557 0.00462665 2.1407e-17)
(0.0346689 0.00277542 2.63901e-17)
(0.0347254 0.000925046 -7.48853e-18)
(0.0347254 -0.000925043 -2.34796e-18)
(0.0346689 -0.00277542 -9.46757e-18)
(0.0345557 -0.00462664 8.39763e-18)
(0.0343852 -0.00647922 1.06668e-17)
(0.0341566 -0.00833358 -2.06357e-18)
(0.0338689 -0.01019 1.07982e-17)
(0.0335207 -0.0120486 -7.39567e-18)
(0.0331105 -0.0139093 -8.26565e-18)
(0.0326365 -0.0157718 -2.18127e-17)
(0.0320967 -0.0176352 1.24856e-17)
(0.031489 -0.0194987 -3.85507e-18)
(0.0308112 -0.0213604 -8.21849e-18)
(0.030061 -0.023218 2.25664e-17)
(0.0292297 -0.0250752 -3.09442e-18)
(0.0289908 -0.0262494 -1.17982e-17)
(0.0358199 0.00479293 2.10134e-17)
(0.035937 0.00287513 2.70782e-17)
(0.0359954 0.000958271 -5.0416e-18)
(0.0359954 -0.000958268 -1.10925e-18)
(0.035937 -0.00287513 -1.14082e-17)
(0.0358199 -0.00479293 7.08047e-18)
(0.0356435 -0.00671224 1.18359e-17)
(0.035407 -0.00863353 -2.1496e-18)
(0.0351092 -0.0105571 8.626e-18)
(0.0347488 -0.0124833 -7.56608e-18)
(0.0343241 -0.0144118 -6.4312e-18)
(0.0338332 -0.0163424 -2.39483e-17)
(0.0332741 -0.0182745 1.45387e-17)
(0.0326443 -0.0202068 -5.91973e-18)
(0.0319418 -0.0221377 -8.79061e-18)
(0.0311639 -0.0240648 2.76864e-17)
(0.030302 -0.0259917 -1.96497e-18)
(0.0300279 -0.0272372 -1.49106e-17)
(0.0369641 0.00695679 -1.45986e-17)
(0.0371466 0.00496744 2.07433e-17)
(0.0372678 0.00297977 2.73521e-17)
(0.0373283 0.000993141 -2.82758e-18)
(0.0373283 -0.000993138 8.83353e-20)
(0.0372678 -0.00297977 -1.32762e-17)
(0.0371466 -0.00496744 5.89287e-18)
(0.0369641 -0.00695679 1.31164e-17)
(0.0367193 -0.00894835 -2.7292e-18)
(0.0364111 -0.0109425 6.53191e-18)
(0.0360379 -0.0129395 -7.02147e-18)
(0.035598 -0.0149393 -5.04122e-18)
(0.0350895 -0.0169415 -2.66383e-17)
(0.0345101 -0.0189455 1.64449e-17)
(0.0338573 -0.0209502 -8.08226e-18)
(0.0331288 -0.0229539 -1.08681e-17)
(0.032322 -0.0249541 3.22321e-17)
(0.031428 -0.0269541 -6.63711e-19)
(0.0311174 -0.0282743 -1.55795e-17)
(0.0383515 0.00721373 -1.46052e-17)
(0.0385404 0.0051508 2.07279e-17)
(0.0386659 0.00308971 2.77381e-17)
(0.0387284 0.00102977 -1.25785e-18)
(0.0387284 -0.00102977 8.12089e-19)
(0.0386659 -0.00308971 -1.50821e-17)
(0.0385404 -0.0051508 4.46777e-18)
(0.0383515 -0.00721373 1.43948e-17)
(0.038098 -0.00927912 -2.87448e-18)
(0.0377788 -0.0113474 4.39094e-18)
(0.0373923 -0.0134189 -5.56309e-18)
(0.0369366 -0.0154935 -4.05897e-18)
(0.0364096 -0.017571 -2.88278e-17)
(0.035809 -0.0196507 1.82489e-17)
(0.0351322 -0.0217315 -1.05314e-17)
(0.0343765 -0.0238117 -1.40227e-17)
(0.0335393 -0.0258887 3.50439e-17)
(0.0326118 -0.0279658 8.68157e-19)
(0.0322631 -0.0293643 -1.41821e-17)
(0.0398106 0.00748399 -1.40288e-17)
(0.0400063 0.00534364 2.17018e-17)
(0.0401362 0.00320534 2.89068e-17)
(0.040201 0.0010683 -4.55425e-19)
(0.040201 -0.0010683 9.3205e-19)
(0.0401362 -0.00320534 -1.72783e-17)
(0.0400063 -0.00534364 3.02682e-18)
(0.0398106 -0.00748399 1.57202e-17)
(0.0395481 -0.00962704 -3.07167e-18)
(0.0392175 -0.0117733 2.23497e-18)
(0.038817 -0.0139231 -3.48073e-18)
(0.0383447 -0.0160765 -2.85254e-18)
(0.0377984 -0.0182333 -3.01168e-17)
(0.0371756 -0.0203927 2.0378e-17)
(0.0364734 -0.0225536 -1.40878e-17)
(0.0356893 -0.0247143 -1.79976e-17)
(0.0348203 -0.0268722 3.63464e-17)
(0.0338575 -0.0290304 1.81894e-18)
(0.0334691 -0.0305111 -1.22678e-17)
(0.041347 0.00776855 -1.32206e-17)
(0.0415497 0.0055467 2.3395e-17)
(0.0416843 0.00332709 3.04078e-17)
(0.0417514 0.00110887 -3.81613e-19)
(0.0417514 -0.00110887 8.6962e-19)
(0.0416843 -0.00332709 -1.94122e-17)
(0.0415497 -0.0055467 1.394e-18)
(0.041347 -0.00776855 1.63563e-17)
(0.041075 -0.0099934 -3.87326e-18)
(0.0407323 -0.0122218 8.07053e-19)
(0.0403172 -0.0144542 -1.18196e-18)
(0.0398276 -0.0166905 -1.40013e-18)
(0.039261 -0.0189307 -3.03593e-17)
(0.0386148 -0.0211741 2.333e-17)
(0.0378862 -0.0234194 -1.78508e-17)
(0.0370722 -0.025665 -2.12206e-17)
(0.0361697 -0.0279082 3.63817e-17)
(0.0351698 -0.0301519 5.88148e-19)
(0.03474 -0.0317191 -9.4684e-18)
(0.0429665 0.00806854 -1.29638e-17)
(0.0431766 0.00576076 2.52835e-17)
(0.0433161 0.00345544 3.16002e-17)
(0.0433856 0.00115164 -6.72002e-19)
(0.0433856 -0.00115164 7.63629e-19)
(0.0433161 -0.00345544 -2.12847e-17)
(0.0431766 -0.00576076 -4.30033e-19)
(0.0429665 -0.00806854 1.68831e-17)
(0.0426846 -0.0103796 -5.22312e-18)
(0.0423293 -0.0126946 -9.53291e-19)
(0.0418989 -0.015014 1.15943e-18)
(0.041391 -0.0173379 2.17663e-20)
(0.0408031 -0.0196661 -3.02509e-17)
(0.0401325 -0.021998 2.6501e-17)
(0.039376 -0.0243324 -2.05259e-17)
(0.0385305 -0.0266676 -2.33449e-17)
(0.0375929 -0.0290007 3.57597e-17)
(0.036554 -0.0313348 -1.20196e-18)
(0.0360808 -0.032993 -5.4443e-18)
(0.0446758 0.00838517 -1.25435e-17)
(0.0448937 0.00598669 2.65757e-17)
(0.0450383 0.0035909 3.17548e-17)
(0.0451103 0.00119678 -7.24153e-19)
(0.0451103 -0.00119678 1.25966e-18)
(0.0450383 -0.0035909 -2.29221e-17)
(0.0448937 -0.00598669 -2.77926e-18)
(0.0446758 -0.00838517 1.7384e-17)
(0.0443834 -0.0107873 -6.31668e-18)
(0.0440149 -0.0131937 -3.585e-18)
(0.0435683 -0.015605 2.8365e-18)
(0.0430413 -0.0180213 1.8643e-18)
(0.042431 -0.0204424 -3.02671e-17)
(0.0417347 -0.0228678 2.83578e-17)
(0.0409489 -0.0252963 -2.30718e-17)
(0.0400703 -0.027726 -2.52031e-17)
(0.0390956 -0.0301543 3.36969e-17)
(0.0380156 -0.0325838 -2.01792e-18)
(0.0374969 -0.034338 -1.48819e-18)
(0.046482 0.00871978 -1.20194e-17)
(0.0467081 0.00622544 2.73351e-17)
(0.0468581 0.00373405 3.22495e-17)
(0.0469328 0.00124448 -1.53983e-19)
(0.0469328 -0.00124448 1.83947e-18)
(0.0468581 -0.00373404 -2.41155e-17)
(0.0467081 -0.00622544 -5.81439e-18)
(0.046482 -0.00871978 1.78215e-17)
(0.0461786 -0.0112181 -6.64918e-18)
(0.0457962 -0.0137211 -6.66105e-18)
(0.0453326 -0.0162295 3.69619e-18)
(0.0447854 -0.0187435 4.24644e-18)
(0.0441517 -0.0212629 -3.006e-17)
(0.0434282 -0.0237872 2.99394e-17)
(0.0426115 -0.0263152 -2.43112e-17)
(0.041698 -0.028845 -2.66298e-17)
(0.0406843 -0.0313738 3.04166e-17)
(0.0395609 -0.0339043 -3.22369e-18)
(0.0389945 -0.0357598 2.10455e-18)
(0.0483932 0.00907384 -1.16364e-17)
(0.0486278 0.00647806 2.79792e-17)
(0.0487835 0.00388551 3.33298e-17)
(0.0488611 0.00129495 6.65732e-19)
(0.0488611 -0.00129495 2.04223e-18)
(0.0487835 -0.00388551 -2.48046e-17)
(0.0486278 -0.00647806 -9.1858e-18)
(0.0483932 -0.00907384 1.80984e-17)
(0.0480782 -0.0116739 -6.04136e-18)
(0.0476811 -0.0142793 -1.00354e-17)
(0.0471997 -0.0168905 3.60049e-18)
(0.0466312 -0.0195078 6.72192e-18)
(0.0459726 -0.0221313 -2.89653e-17)
(0.0452205 -0.0247602 3.15496e-17)
(0.0443712 -0.0273935 -2.48854e-17)
(0.043421 -0.0300293 -2.76599e-17)
(0.042366 -0.0326646 2.70283e-17)
(0.0411967 -0.0353021 -5.14459e-18)
(0.0405801 -0.0372647 5.23113e-18)
(0.0504181 0.00944899 -1.11518e-17)
(0.0506618 0.00674573 2.85234e-17)
(0.0508235 0.00404599 3.47572e-17)
(0.0509041 0.00134842 1.63626e-18)
(0.0509041 -0.00134842 1.79366e-18)
(0.0508235 -0.00404599 -2.47872e-17)
(0.0506618 -0.00674573 -1.23376e-17)
(0.0504181 -0.00944898 1.75549e-17)
(0.0500909 -0.012157 -4.97816e-18)
(0.0496783 -0.0148707 -1.33582e-17)
(0.049178 -0.0175908 3.01551e-18)
(0.048587 -0.0203178 8.79513e-18)
(0.0479022 -0.0230515 -2.77346e-17)
(0.0471199 -0.0257914 3.31752e-17)
(0.0462363 -0.0285364 -2.61698e-17)
(0.0452471 -0.0312845 -2.8369e-17)
(0.0441485 -0.0340327 2.44729e-17)
(0.0429307 -0.0367837 -7.92662e-18)
(0.0422612 -0.0388597 8.71426e-18)
(0.0525665 0.00984703 -1.08883e-17)
(0.0528198 0.00702973 2.83821e-17)
(0.0529878 0.00421626 3.65729e-17)
(0.0530716 0.00140516 2.67146e-18)
(0.0530716 -0.00140516 1.28641e-18)
(0.0529878 -0.00421626 -2.43905e-17)
(0.0528198 -0.00702973 -1.49022e-17)
(0.0525665 -0.00984702 1.60128e-17)
(0.0522264 -0.0126695 -3.87737e-18)
(0.0517974 -0.0154982 -1.63297e-17)
(0.0512771 -0.0183339 1.71531e-18)
(0.0506624 -0.0211772 1.05335e-17)
(0.0499499 -0.024028 -2.7278e-17)
(0.0491357 -0.0268857 3.46786e-17)
(0.0482156 -0.0297492 -2.74547e-17)
(0.0471853 -0.0326166 -2.92755e-17)
(0.0460405 -0.0354848 2.39959e-17)
(0.0447712 -0.0383562 -1.10564e-17)
(0.0440458 -0.0405525 1.19998e-17)
(0.0548492 0.01027 -1.09644e-17)
(0.0551127 0.00733149 2.74418e-17)
(0.0552874 0.00439718 3.83461e-17)
(0.0553745 0.00146544 3.53939e-18)
(0.0553745 -0.00146544 5.44069e-19)
(0.0552874 -0.00439718 -2.39065e-17)
(0.0551127 -0.00733149 -1.67202e-17)
(0.0548492 -0.01027 1.46094e-17)
(0.0544955 -0.0132141 -2.88887e-18)
(0.0540492 -0.016165 -1.94414e-17)
(0.0535077 -0.0191236 5.03458e-19)
(0.0528679 -0.0220905 1.22679e-17)
(0.052126 -0.0250657 -2.74727e-17)
(0.0512779 -0.0280487 3.64523e-17)
(0.0503192 -0.0310383 -2.79155e-17)
(0.0492453 -0.0340324 -3.07291e-17)
(0.0480515 -0.0370281 2.37456e-17)
(0.0467277 -0.0400277 -1.43746e-17)
(0.0459431 -0.0423517 1.38896e-17)
(0.0572784 0.0107201 -1.10173e-17)
(0.0575526 0.00765262 2.62317e-17)
(0.0577344 0.00458971 3.95834e-17)
(0.057825 0.00152959 3.85966e-18)
(0.057825 -0.00152959 -3.04073e-20)
(0.0577344 -0.00458971 -2.33551e-17)
(0.0575526 -0.00765261 -1.78775e-17)
(0.0572784 -0.0107201 1.35429e-17)
(0.0569101 -0.0137936 -2.45017e-18)
(0.0564454 -0.0168746 -2.33485e-17)
(0.0558816 -0.019964 -2.45666e-19)
(0.055215 -0.0230625 1.51601e-17)
(0.054442 -0.0261702 -2.80214e-17)
(0.053558 -0.0292865 3.78766e-17)
(0.0525584 -0.0324102 -2.69159e-17)
(0.051438 -0.0355394 -3.22624e-17)
(0.0501922 -0.0386709 2.24206e-17)
(0.0488103 -0.041807 -1.6281e-17)
(0.0479631 -0.0442669 1.44117e-17)
(0.0598674 0.0111998 -1.02674e-17)
(0.060153 0.00799488 2.51683e-17)
(0.0603424 0.00479491 3.99361e-17)
(0.0604368 0.00159796 3.5987e-18)
(0.0604368 -0.00159796 -6.8937e-19)
(0.0603424 -0.00479491 -2.24992e-17)
(0.060153 -0.00799488 -1.82281e-17)
(0.0598674 -0.0111998 1.28428e-17)
(0.0594837 -0.0144113 -2.65409e-18)
(0.0589995 -0.017631 -2.79354e-17)
(0.0584118 -0.0208598 -9.35324e-19)
(0.057717 -0.0240986 1.82786e-17)
(0.0569108 -0.0273475 -2.90386e-17)
(0.0559886 -0.030606 3.90108e-17)
(0.0549454 -0.0338728 -2.47044e-17)
(0.0537757 -0.037146 -3.39248e-17)
(0.0524745 -0.0404223 2.00332e-17)
(0.0510308 -0.043704 -1.60294e-17)
(0.050117 -0.0463085 1.42409e-17)
(0.0626313 0.0117119 -8.77824e-18)
(0.0629291 0.00836027 2.38708e-17)
(0.0631266 0.00501397 3.94347e-17)
(0.0632249 0.00167095 3.26373e-18)
(0.063225 -0.00167095 -1.11068e-18)
(0.0631266 -0.00501397 -2.13139e-17)
(0.0629291 -0.00836027 -1.79422e-17)
(0.0626314 -0.0117119 1.23366e-17)
(0.0622313 -0.0150708 -3.22931e-18)
(0.0617263 -0.0184385 -3.25241e-17)
(0.0611132 -0.0218162 -1.84292e-18)
(0.0603882 -0.0252048 2.12088e-17)
(0.0595467 -0.0286045 -3.09741e-17)
(0.0585839 -0.0320148 3.98411e-17)
(0.0574942 -0.0354346 -2.17797e-17)
(0.056272 -0.0388616 -3.50106e-17)
(0.0549117 -0.0422925 1.67045e-17)
(0.0534022 -0.0457296 -1.53905e-17)
(0.0524174 -0.0484886 1.51389e-17)
(0.0655872 0.0122596 -7.16214e-18)
(0.0658979 0.00875104 2.2284e-17)
(0.0661039 0.00524824 3.84719e-17)
(0.0662066 0.00174901 3.29823e-18)
(0.0662066 -0.00174901 -1.56799e-18)
(0.0661039 -0.00524824 -2.01488e-17)
(0.0658979 -0.00875103 -1.70392e-17)
(0.0655872 -0.0122596 1.15801e-17)
(0.0651696 -0.0157761 -4.11438e-18)
(0.0646425 -0.0193021 -3.66877e-17)
(0.0640023 -0.0228391 -3.89094e-18)
(0.0632451 -0.026388 2.33845e-17)
(0.062366 -0.029949 -3.348e-17)
(0.0613598 -0.0335217 4.11396e-17)
(0.0602205 -0.037105 -1.78902e-17)
(0.0589422 -0.0406965 -3.63587e-17)
(0.0575188 -0.044293 1.20248e-17)
(0.0559388 -0.0478964 -1.53432e-17)
(0.0548783 -0.0508204 1.87924e-17)
(0.0687538 0.0128464 -5.30941e-18)
(0.0690784 0.00916968 2.06706e-17)
(0.0692936 0.00549923 3.717e-17)
(0.0694008 0.00183264 3.32493e-18)
(0.0694008 -0.00183264 -2.16409e-18)
(0.0692936 -0.00549923 -1.9007e-17)
(0.0690784 -0.00916968 -1.56824e-17)
(0.0687538 -0.0128464 1.03611e-17)
(0.0683176 -0.0165317 -5.20666e-18)
(0.0677668 -0.0202274 -4.01016e-17)
(0.0670977 -0.023935 -6.1482e-18)
(0.066306 -0.0276556 2.51403e-17)
(0.0653867 -0.0313895 -3.69401e-17)
(0.064334 -0.0351363 4.19981e-17)
(0.0631418 -0.0388948 -1.3113e-17)
(0.0618034 -0.0426627 -3.79124e-17)
(0.0603124 -0.0464365 7.54822e-18)
(0.058657 -0.0502182 -1.68765e-17)
(0.0575156 -0.053319 2.33777e-17)
(0.0721528 0.0134763 -3.4151e-18)
(0.0724922 0.00961904 1.9199e-17)
(0.0727172 0.00576863 3.57832e-17)
(0.0728293 0.00192241 3.16341e-18)
(0.0728293 -0.00192241 -2.84922e-18)
(0.0727172 -0.00576863 -1.79033e-17)
(0.0724922 -0.00961904 -1.38501e-17)
(0.0721528 -0.0134763 8.94862e-18)
(0.0716965 -0.0173428 -6.63545e-18)
(0.0711203 -0.0212206 -4.29311e-17)
(0.0704203 -0.0251114 -8.05138e-18)
(0.0695917 -0.0290163 2.67653e-17)
(0.0686292 -0.0329358 -4.07662e-17)
(0.0675268 -0.0368695 4.2768e-17)
(0.0662777 -0.0408161 -9.13543e-18)
(0.0648749 -0.0447733 -4.05605e-17)
(0.0633115 -0.0487375 2.93742e-18)
(0.0615751 -0.0527106 -1.85141e-17)
(0.0603469 -0.056001 2.74447e-17)
(0.0753306 0.0182151 -1.67982e-17)
(0.0758083 0.0141537 -1.34815e-18)
(0.0761637 0.0101023 1.79127e-17)
(0.0763992 0.00605836 3.42832e-17)
(0.0765166 0.00201894 2.74172e-18)
(0.0765166 -0.00201894 -3.81272e-18)
(0.0763992 -0.00605836 -1.66629e-17)
(0.0761637 -0.0101023 -1.15444e-17)
(0.0758083 -0.0141537 7.80729e-18)
(0.0753306 -0.0182151 -8.9047e-18)
(0.0747271 -0.0222888 -4.5782e-17)
(0.0739938 -0.0263766 -9.21846e-18)
(0.0731256 -0.0304798 2.81723e-17)
(0.0721167 -0.0345989 -4.4576e-17)
(0.0709608 -0.0387336 4.35439e-17)
(0.0696507 -0.0428826 -5.12597e-18)
(0.0681787 -0.0470435 -4.33967e-17)
(0.0665374 -0.0512125 -2.10949e-18)
(0.0647139 -0.0553914 -2.01423e-17)
(0.0633924 -0.0588856 3.03772e-17)
(0.0792471 0.0191552 -1.83021e-17)
(0.0797479 0.0148837 8.69231e-19)
(0.0801205 0.0106232 1.62379e-17)
(0.0803673 0.00637061 3.28594e-17)
(0.0804903 0.00212299 2.17902e-18)
(0.0804903 -0.00212299 -5.24779e-18)
(0.0803673 -0.00637061 -1.53015e-17)
(0.0801205 -0.0106232 -9.11758e-18)
(0.0797479 -0.0148837 7.07974e-18)
(0.0792471 -0.0191552 -1.1699e-17)
(0.0786142 -0.02344 -4.86437e-17)
(0.0778451 -0.0277401 -9.7304e-18)
(0.0769342 -0.032057 2.92268e-17)
(0.0758754 -0.0363913 -4.90707e-17)
(0.0746619 -0.0407427 4.39685e-17)
(0.0732859 -0.0451098 2.041e-19)
(0.0717395 -0.0494901 -4.59379e-17)
(0.0700143 -0.0538798 -8.03525e-18)
(0.0680969 -0.0582806 -2.14611e-17)
(0.0666748 -0.0619943 3.24864e-17)
(0.0834771 0.0201706 -1.7802e-17)
(0.0840029 0.0156722 3.13111e-18)
(0.084394 0.0111857 1.40735e-17)
(0.0846531 0.00670786 3.16689e-17)
(0.0847822 0.00223536 1.71368e-18)
(0.0847822 -0.00223536 -7.26618e-18)
(0.0846531 -0.00670786 -1.41945e-17)
(0.084394 -0.0111857 -6.89523e-18)
(0.0840029 -0.0156722 7.13574e-18)
(0.0834771 -0.0201706 -1.36647e-17)
(0.0828126 -0.0246834 -5.1711e-17)
(0.0820047 -0.0292129 -1.02736e-17)
(0.0810477 -0.0337606 2.97672e-17)
(0.0799351 -0.0383272 -5.32917e-17)
(0.0786593 -0.0429126 4.41607e-17)
(0.0772123 -0.0475152 5.36356e-18)
(0.0755853 -0.0521326 -4.74783e-17)
(0.0737695 -0.0567607 -1.45499e-17)
(0.0717507 -0.0614009 -2.28122e-17)
(0.0702199 -0.0653514 3.46369e-17)
(0.0880561 0.0212697 -1.51529e-17)
(0.088609 0.0165258 4.79313e-18)
(0.0890201 0.0117947 1.11889e-17)
(0.0892925 0.00707295 3.08419e-17)
(0.0894281 0.002357 1.18406e-18)
(0.0894282 -0.002357 -9.4321e-18)
(0.0892925 -0.00707295 -1.31202e-17)
(0.0890201 -0.0117947 -5.21221e-18)
(0.088609 -0.0165258 6.88223e-18)
(0.0880561 -0.0212697 -1.47072e-17)
(0.0873573 -0.0260294 -5.33685e-17)
(0.0865075 -0.0308071 -1.16203e-17)
(0.0855006 -0.0356047 2.96523e-17)
(0.0843296 -0.0404229 -5.65673e-17)
(0.0829865 -0.0452615 4.35995e-17)
(0.0814625 -0.0501191 1.02937e-17)
(0.0797483 -0.054993 -4.78608e-17)
(0.0778343 -0.0598789 -2.07723e-17)
(0.0757056 -0.0647782 -2.45478e-17)
(0.074057 -0.0689849 3.558e-17)
(0.0930248 0.0224624 -1.2672e-17)
(0.0936071 0.017452 6.01497e-18)
(0.09404 0.0124555 8.17614e-18)
(0.0943268 0.00746911 3.03887e-17)
(0.0944696 0.002489 5.74323e-19)
(0.0944696 -0.002489 -1.15798e-17)
(0.0943268 -0.00746911 -1.20878e-17)
(0.09404 -0.0124555 -3.99562e-18)
(0.0936071 -0.017452 6.37143e-18)
(0.0930248 -0.0224624 -1.49687e-17)
(0.0922888 -0.0274899 -5.41404e-17)
(0.0913934 -0.032537 -1.43585e-17)
(0.0903323 -0.0376056 2.89781e-17)
(0.0890979 -0.0426967 -5.93904e-17)
(0.0876816 -0.0478101 4.29215e-17)
(0.0860741 -0.0529442 1.31763e-17)
(0.0842651 -0.0580963 -4.70559e-17)
(0.0822443 -0.0632619 -2.59845e-17)
(0.0799962 -0.068442 -2.68529e-17)
(0.0782195 -0.0729263 3.55549e-17)
(0.0984299 0.0237599 -1.12329e-17)
(0.0990442 0.0184596 6.63614e-18)
(0.0995008 0.0131743 5.08452e-18)
(0.0998033 0.00790006 2.94501e-17)
(0.0999539 0.00263259 -1.93962e-19)
(0.0999539 -0.0026326 -1.32712e-17)
(0.0998033 -0.00790007 -1.0832e-17)
(0.0995008 -0.0131743 -3.6504e-18)
(0.0990442 -0.0184596 5.66157e-18)
(0.0984299 -0.0237599 -1.49468e-17)
(0.0976532 -0.0290787 -5.42587e-17)
(0.0967083 -0.0344187 -1.64084e-17)
(0.0955881 -0.0397822 2.75615e-17)
(0.0942845 -0.04517 -6.26505e-17)
(0.0927885 -0.0505821 4.23746e-17)
(0.0910898 -0.0560169 1.49945e-17)
(0.0891775 -0.0614714 -4.65444e-17)
(0.0870405 -0.0669409 -3.03899e-17)
(0.0846623 -0.0724262 -2.93969e-17)
(0.0827458 -0.077212 3.71669e-17)
(0.104325 0.025175 -1.17245e-17)
(0.104974 0.0195585 6.25381e-18)
(0.105457 0.0139583 2.28202e-18)
(0.105777 0.00837012 2.79385e-17)
(0.105936 0.00278922 -1.15289e-18)
(0.105936 -0.00278922 -1.4732e-17)
(0.105777 -0.00837012 -9.69921e-18)
(0.105457 -0.0139583 -3.4426e-18)
(0.104974 -0.0195585 4.4515e-18)
(0.104325 -0.025175 -1.57697e-17)
(0.103504 -0.0308114 -5.40701e-17)
(0.102505 -0.036471 -1.64366e-17)
(0.10132 -0.0421559 2.67689e-17)
(0.0999407 -0.0478672 -6.72256e-17)
(0.0983574 -0.0536049 4.09669e-17)
(0.0965591 -0.0593674 1.61181e-17)
(0.0945339 -0.0651515 -4.68146e-17)
(0.0922697 -0.070952 -3.16079e-17)
(0.0897491 -0.0767696 -3.24675e-17)
(0.0876797 -0.0818835 3.71831e-17)
(0.110772 0.0267226 -1.35944e-17)
(0.11146 0.0207604 4.89178e-18)
(0.111971 0.0148159 -5.95949e-19)
(0.11231 0.00888423 2.57169e-17)
(0.112478 0.00296052 -2.10701e-18)
(0.112478 -0.00296052 -1.59553e-17)
(0.11231 -0.00888423 -8.89343e-18)
(0.111971 -0.0148159 -3.32062e-18)
(0.11146 -0.0207604 2.74876e-18)
(0.110772 -0.0267226 -1.67113e-17)
(0.109902 -0.0327064 -5.4309e-17)
(0.108844 -0.0387153 -1.58824e-17)
(0.107588 -0.0447515 2.78121e-17)
(0.106126 -0.0508165 -7.14823e-17)
(0.104447 -0.0569101 3.98492e-17)
(0.102539 -0.0630306 1.73043e-17)
(0.10039 -0.0691745 -4.75658e-17)
(0.0979859 -0.0753364 -3.17796e-17)
(0.0953091 -0.0815167 -3.6427e-17)
(0.0930716 -0.0869887 3.50747e-17)
(0.117844 0.02842 -1.57202e-17)
(0.118574 0.0220787 3.06885e-18)
(0.119117 0.0157564 -4.1516e-18)
(0.119476 0.00944814 2.27562e-17)
(0.119655 0.00314842 -2.65986e-18)
(0.119655 -0.00314842 -1.70398e-17)
(0.119476 -0.00944814 -8.54574e-18)
(0.119117 -0.0157564 -3.68446e-18)
(0.118574 -0.0220787 5.24898e-19)
(0.117844 -0.02842 -1.70834e-17)
(0.11692 -0.0347847 -5.38043e-17)
(0.115795 -0.0411765 -1.62057e-17)
(0.114461 -0.047598 2.9183e-17)
(0.112908 -0.0540504 -7.41984e-17)
(0.111123 -0.0605339 3.8827e-17)
(0.109094 -0.0670465 1.85821e-17)
(0.106809 -0.0735844 -4.74673e-17)
(0.104251 -0.080142 -3.13852e-17)
(0.101402 -0.086719 -4.06962e-17)
(0.0989794 -0.0925825 3.12648e-17)
(0.125623 0.0302872 -1.78561e-17)
(0.1264 0.0235289 1.03362e-18)
(0.126978 0.0167912 -8.15128e-18)
(0.12736 0.0100685 1.95755e-17)
(0.12755 0.00335514 -3.15323e-18)
(0.12755 -0.00335514 -1.80008e-17)
(0.12736 -0.0100685 -8.2954e-18)
(0.126978 -0.0167912 -4.77876e-18)
(0.1264 -0.0235289 -2.22364e-18)
(0.125623 -0.0302872 -1.72754e-17)
(0.124639 -0.0370708 -5.22459e-17)
(0.123442 -0.0438836 -1.72009e-17)
(0.122021 -0.0507285 3.00147e-17)
(0.120366 -0.0576068 -7.5958e-17)
(0.118464 -0.0645185 3.73512e-17)
(0.116302 -0.0714616 1.86431e-17)
(0.113865 -0.0784321 -4.75851e-17)
(0.111137 -0.0854236 -2.95833e-17)
(0.108098 -0.0924355 -4.51038e-17)
(0.10547 -0.0987281 2.67997e-17)
(0.134206 0.0323476 -2.06626e-17)
(0.135036 0.0251293 -1.31061e-18)
(0.135653 0.0179331 -1.20714e-17)
(0.136061 0.0107532 1.63253e-17)
(0.136264 0.00358327 -3.86505e-18)
(0.136264 -0.00358328 -1.87498e-17)
(0.136061 -0.0107532 -7.73885e-18)
(0.135653 -0.0179331 -6.31641e-18)
(0.135036 -0.0251293 -5.01077e-18)
(0.134206 -0.0323476 -1.7563e-17)
(0.133156 -0.0395932 -4.98498e-17)
(0.131878 -0.0468702 -1.76624e-17)
(0.13036 -0.0541818 3.01215e-17)
(0.128592 -0.0615293 -7.72812e-17)
(0.12656 -0.0689128 3.50959e-17)
(0.124249 -0.0763299 1.83561e-17)
(0.121644 -0.0837763 -4.80747e-17)
(0.118727 -0.0912449 -2.64384e-17)
(0.115477 -0.0987347 -4.90161e-17)
(0.11262 -0.105498 2.20828e-17)
(0.143708 0.0346282 -2.36081e-17)
(0.144596 0.0269008 -3.15597e-18)
(0.145256 0.0191972 -1.538e-17)
(0.145693 0.0115112 1.28467e-17)
(0.145911 0.00383585 -4.99183e-18)
(0.145911 -0.00383585 -1.97449e-17)
(0.145693 -0.0115112 -7.58232e-18)
(0.145256 -0.0191972 -7.23149e-18)
(0.144596 -0.0269008 -6.59808e-18)
(0.143708 -0.0346282 -1.85607e-17)
(0.142583 -0.0423849 -4.74258e-17)
(0.141213 -0.0501753 -1.80424e-17)
(0.139588 -0.0580028 2.80164e-17)
(0.137693 -0.0658689 -7.74099e-17)
(0.135515 -0.0737733 3.32421e-17)
(0.133038 -0.0817136 1.67823e-17)
(0.130245 -0.0896847 -4.78216e-17)
(0.127117 -0.0976793 -2.40652e-17)
(0.12363 -0.105695 -5.30739e-17)
(0.120518 -0.112977 1.80504e-17)
(0.154258 0.0371605 -2.63601e-17)
(0.155213 0.0288681 -5.31807e-18)
(0.155922 0.0206011 -1.82474e-17)
(0.156392 0.012353 9.22651e-18)
(0.156626 0.00411637 -6.48205e-18)
(0.156626 -0.00411637 -2.11515e-17)
(0.156392 -0.012353 -7.74537e-18)
(0.155922 -0.0206011 -7.51693e-18)
(0.155213 -0.0288681 -8.106e-18)
(0.154258 -0.0371605 -1.99082e-17)
(0.153049 -0.0454844 -4.43525e-17)
(0.151577 -0.0538443 -1.8774e-17)
(0.149829 -0.0622438 2.55272e-17)
(0.147792 -0.0706843 -7.70353e-17)
(0.14545 -0.0791655 3.17494e-17)
(0.142786 -0.0876845 1.4268e-17)
(0.139781 -0.0962358 -4.69996e-17)
(0.136416 -0.104811 -2.36225e-17)
(0.132664 -0.113407 -5.65122e-17)
(0.129264 -0.12126 1.45869e-17)
(0.166011 0.0399813 -2.96158e-17)
(0.167041 0.0310597 -7.07823e-18)
(0.167806 0.0221653 -2.07346e-17)
(0.168313 0.013291 5.41931e-18)
(0.168565 0.00442895 -8.4028e-18)
(0.168565 -0.00442895 -2.29408e-17)
(0.168313 -0.013291 -8.39428e-18)
(0.167806 -0.0221653 -7.45765e-18)
(0.167041 -0.0310597 -9.07392e-18)
(0.166011 -0.0399813 -2.10172e-17)
(0.164706 -0.0489363 -4.14287e-17)
(0.163117 -0.0579297 -1.82942e-17)
(0.161231 -0.0669649 2.31726e-17)
(0.159032 -0.0760435 -7.66789e-17)
(0.156504 -0.0851648 3.07478e-17)
(0.153628 -0.0943254 1.09085e-17)
(0.150384 -0.103519 -4.69403e-17)
(0.14675 -0.112736 -2.47142e-17)
(0.142699 -0.121973 -5.81694e-17)
(0.138974 -0.130457 1.08342e-17)
(0.179141 0.0431328 -3.24533e-17)
(0.180258 0.0335087 -8.52976e-18)
(0.181087 0.0239134 -2.30048e-17)
(0.181636 0.0143393 1.41914e-18)
(0.18191 0.00477831 -1.07667e-17)
(0.18191 -0.00477831 -2.47263e-17)
(0.181636 -0.0143393 -9.13295e-18)
(0.181087 -0.0239134 -7.36129e-18)
(0.180258 -0.0335087 -9.29499e-18)
(0.179141 -0.0431328 -2.17611e-17)
(0.177727 -0.0527921 -3.81305e-17)
(0.176004 -0.0624919 -1.75303e-17)
(0.173959 -0.0722355 1.96391e-17)
(0.171576 -0.0820244 -7.73259e-17)
(0.168835 -0.0918574 2.95763e-17)
(0.165717 -0.10173 7.27486e-18)
(0.1622 -0.111636 -4.68732e-17)
(0.158261 -0.121564 -2.58594e-17)
(0.15387 -0.131509 -5.98617e-17)
(0.149775 -0.140688 6.72552e-18)
(0.19385 0.046663 -3.48253e-17)
(0.195067 0.0362526 -8.78624e-18)
(0.19597 0.0258722 -2.55374e-17)
(0.196569 0.0155142 -3.02278e-18)
(0.196867 0.00516986 -1.33893e-17)
(0.196867 -0.00516987 -2.55854e-17)
(0.196569 -0.0155142 -1.00578e-17)
(0.19597 -0.0258722 -7.74803e-18)
(0.195067 -0.0362526 -8.20009e-18)
(0.19385 -0.046663 -2.10458e-17)
(0.192309 -0.0571102 -3.33753e-17)
(0.190432 -0.0675994 -1.67915e-17)
(0.188204 -0.0781339 1.49011e-17)
(0.185608 -0.0887146 -7.75633e-17)
(0.182622 -0.0993399 2.79018e-17)
(0.179226 -0.110005 2.98434e-18)
(0.175396 -0.120701 -4.99161e-17)
(0.171107 -0.131416 -2.74347e-17)
(0.166327 -0.142142 -6.04039e-17)
(0.161808 -0.152088 1.94062e-18)
(0.210361 0.0506258 -3.6103e-17)
(0.211695 0.0393335 -8.43504e-18)
(0.212686 0.0280722 -2.82886e-17)
(0.213342 0.0168339 -7.51978e-18)
(0.213668 0.0056097 -1.59953e-17)
(0.213668 -0.0056097 -2.55661e-17)
(0.213342 -0.0168339 -1.10616e-17)
(0.212686 -0.0280722 -8.58646e-18)
(0.211695 -0.0393335 -5.71502e-18)
(0.210361 -0.0506258 -1.82976e-17)
(0.208673 -0.0619557 -2.76569e-17)
(0.206616 -0.0733283 -1.63406e-17)
(0.204175 -0.0847465 9.96596e-18)
(0.20133 -0.0962107 -7.70599e-17)
(0.19806 -0.107718 2.53294e-17)
(0.194342 -0.119263 -1.83241e-18)