/*--------------------------------*- C++ -*----------------------------------*\
  =========                 |
  \\      /  F ield         | OpenFOAM: The Open Source CFD Toolbox
   \\    /   O peration     | Website:  https://openfoam.org
    \\  /    A nd           | Version:  7
     \\/     M anipulation  |
\*---------------------------------------------------------------------------*/
FoamFile
{
    version     2.0;
    format      ascii;
    class       volScalarField;
    location    "20000";
    object      omega;
}
// * * * * * * * * * * * * * * * * * * * * * * * * * * * * * * * * * * * * * //

dimensions      [0 0 -1 0 0 0 0];

internalField   nonuniform List<scalar> 
4783
(
0.0391468
0.0391369
0.0391271
0.0391177
0.0391087
0.0391001
0.039092
0.0390842
0.0390769
0.03907
0.0390635
0.0390575
0.0390519
0.0390468
0.0390421
0.0390379
0.0390342
0.039031
0.0390282
0.0390259
0.0390241
0.0390228
0.0391641
0.0391544
0.0391446
0.0391349
0.0391256
0.0391166
0.039108
0.0390998
0.0390921
0.0390847
0.0390778
0.0390714
0.0390655
0.03906
0.039055
0.0390505
0.0390464
0.0390429
0.0390399
0.0390375
0.0390355
0.039034
0.0391819
0.0391721
0.0391621
0.0391523
0.0391427
0.0391334
0.0391244
0.0391159
0.0391077
0.0391
0.0390927
0.0390859
0.0390796
0.0390738
0.0390685
0.0390637
0.0390594
0.0390556
0.0390524
0.0390497
0.0390476
0.039046
0.0392004
0.0391903
0.0391801
0.0391701
0.0391602
0.0391506
0.0391414
0.0391325
0.039124
0.0391159
0.0391083
0.0391012
0.0390945
0.0390884
0.0390827
0.0390777
0.0390731
0.0390691
0.0390657
0.0390628
0.0390605
0.0390588
0.0392196
0.0392092
0.0391987
0.0391884
0.0391783
0.0391685
0.0391589
0.0391497
0.0391409
0.0391325
0.0391246
0.0391171
0.0391102
0.0391037
0.0390978
0.0390925
0.0390877
0.0390835
0.0390798
0.0390768
0.0390744
0.0390726
0.0392394
0.0392287
0.039218
0.0392074
0.039197
0.0391869
0.0391771
0.0391676
0.0391585
0.0391498
0.0391416
0.0391338
0.0391266
0.0391199
0.0391137
0.0391081
0.0391031
0.0390987
0.0390948
0.0390916
0.0390891
0.0390871
0.0392598
0.0392488
0.0392378
0.039227
0.0392164
0.039206
0.0391959
0.0391861
0.0391767
0.0391678
0.0391593
0.0391512
0.0391437
0.0391368
0.0391304
0.0391245
0.0391193
0.0391147
0.0391107
0.0391073
0.0391046
0.0391026
0.0392809
0.0392696
0.0392583
0.0392472
0.0392363
0.0392257
0.0392153
0.0392053
0.0391957
0.0391864
0.0391777
0.0391694
0.0391616
0.0391544
0.0391478
0.0391418
0.0391363
0.0391315
0.0391274
0.0391239
0.039121
0.0391189
0.0393025
0.039291
0.0392794
0.0392681
0.0392569
0.039246
0.0392354
0.0392252
0.0392153
0.0392058
0.0391968
0.0391883
0.0391803
0.0391729
0.039166
0.0391598
0.0391541
0.0391492
0.0391448
0.0391412
0.0391382
0.039136
0.0393248
0.039313
0.0393012
0.0392895
0.0392781
0.039267
0.0392562
0.0392457
0.0392356
0.0392259
0.0392166
0.0392079
0.0391997
0.039192
0.039185
0.0391785
0.0391727
0.0391676
0.0391631
0.0391593
0.0391562
0.0391539
0.0393476
0.0393355
0.0393235
0.0393116
0.0393
0.0392886
0.0392775
0.0392668
0.0392565
0.0392466
0.0392371
0.0392282
0.0392198
0.0392119
0.0392047
0.039198
0.0391921
0.0391867
0.0391821
0.0391782
0.039175
0.0391725
0.0393709
0.0393586
0.0393463
0.0393343
0.0393224
0.0393108
0.0392995
0.0392886
0.0392781
0.0392679
0.0392583
0.0392491
0.0392405
0.0392325
0.039225
0.0392182
0.0392121
0.0392067
0.0392019
0.0391979
0.0391946
0.039192
0.0393947
0.0393822
0.0393697
0.0393574
0.0393454
0.0393336
0.0393221
0.039311
0.0393003
0.03929
0.0392801
0.0392708
0.039262
0.0392537
0.0392461
0.0392391
0.0392329
0.0392273
0.0392224
0.0392183
0.0392148
0.0392121
0.039419
0.0394063
0.0393936
0.0393812
0.0393689
0.0393569
0.0393453
0.039334
0.0393231
0.0393126
0.0393025
0.039293
0.039284
0.0392756
0.0392679
0.0392607
0.0392543
0.0392485
0.0392435
0.0392394
0.0392359
0.0392329
0.0394438
0.0394308
0.039418
0.0394053
0.0393929
0.0393808
0.039369
0.0393575
0.0393464
0.0393358
0.0393256
0.0393159
0.0393067
0.0392982
0.0392902
0.0392829
0.0392763
0.0392705
0.0392653
0.0392611
0.0394689
0.0394558
0.0394428
0.03943
0.0394174
0.0394052
0.0393932
0.0393816
0.0393703
0.0393595
0.0393492
0.0393393
0.03933
0.0393213
0.0393132
0.0393057
0.0392989
0.039293
0.0392876
0.0394944
0.0394812
0.0394681
0.0394551
0.0394424
0.03943
0.0394179
0.0394061
0.0393947
0.0393838
0.0393733
0.0393633
0.0393539
0.039345
0.0393369
0.0393291
0.0393221
0.0395203
0.039507
0.0394937
0.0394806
0.0394678
0.0394552
0.039443
0.0394311
0.0394197
0.0394086
0.039398
0.0393878
0.0393783
0.0393692
0.0395465
0.039533
0.0395197
0.0395065
0.0394936
0.0394809
0.0394686
0.0394566
0.039445
0.0394339
0.0394232
0.0394128
0.039573
0.0395594
0.039546
0.0395327
0.0395197
0.0395069
0.0394945
0.0394825
0.0394708
0.0394596
0.0395998
0.0395861
0.0395726
0.0395592
0.0395461
0.0395333
0.0395209
0.0395087
0.039497
0.0396268
0.0396131
0.0395995
0.0395861
0.0395729
0.03956
0.0395475
0.0395354
0.039654
0.0396402
0.0396266
0.0396132
0.0396
0.039587
0.0395746
0.0396814
0.0396676
0.0396539
0.0396405
0.0396273
0.0396143
0.0397089
0.0396951
0.0396814
0.039668
0.0396548
0.0396417
0.0397366
0.0397227
0.0397091
0.0396957
0.0396827
0.0397643
0.0397505
0.0397369
0.0397236
0.0397922
0.0397783
0.0397647
0.0397516
0.0398201
0.0398062
0.0397926
0.0398481
0.0398341
0.0398204
0.0398761
0.0398621
0.0398482
0.0399041
0.03989
0.0398761
0.0399321
0.039918
0.0399041
0.03996
0.0399461
0.0399321
0.039988
0.0399741
0.0399601
0.040016
0.040002
0.039988
0.0400443
0.0400301
0.040016
0.0400731
0.0400586
0.0400442
0.0401027
0.0400877
0.040073
0.0401332
0.0401178
0.0401024
0.0401644
0.0401487
0.0401328
0.0401963
0.0401804
0.040164
0.0391468
0.0391641
0.0391818
0.0392003
0.0392195
0.0392393
0.0392597
0.0392807
0.0393024
0.0393246
0.0393474
0.0393707
0.0393945
0.0394188
0.0394435
0.0394686
0.0394941
0.03952
0.0395461
0.0395726
0.0395993
0.0396263
0.0396535
0.0396809
0.0397084
0.0397361
0.0397639
0.0397918
0.0398197
0.0398477
0.0398757
0.0399037
0.0399318
0.0399598
0.0399878
0.0400158
0.0400441
0.040073
0.0401027
0.0401332
0.0401645
0.0401963
0.0391363
0.0391538
0.0391714
0.0391896
0.0392085
0.0392279
0.039248
0.0392688
0.0392901
0.0393121
0.0393346
0.0393576
0.0393812
0.0394052
0.0394297
0.0394546
0.03948
0.0395056
0.0395317
0.039558
0.0395847
0.0396115
0.0396386
0.039666
0.0396934
0.0397211
0.0397488
0.0397767
0.0398047
0.0398327
0.0398608
0.0398889
0.039917
0.0399451
0.0399732
0.0400012
0.0400294
0.0400581
0.0400875
0.0401178
0.040149
0.0401806
0.0391262
0.0391436
0.0391611
0.0391791
0.0391976
0.0392168
0.0392366
0.039257
0.0392781
0.0392997
0.039322
0.0393448
0.0393681
0.0393919
0.0394162
0.0394409
0.039466
0.0394916
0.0395175
0.0395437
0.0395702
0.039597
0.039624
0.0396512
0.0396787
0.0397063
0.039734
0.0397619
0.0397898
0.0398179
0.039846
0.0398741
0.0399023
0.0399304
0.0399586
0.0399867
0.0400149
0.0400435
0.0400727
0.0401028
0.0401338
0.0401653
0.0391165
0.0391336
0.0391509
0.0391687
0.0391869
0.0392058
0.0392253
0.0392455
0.0392662
0.0392876
0.0393096
0.0393321
0.0393552
0.0393788
0.0394029
0.0394274
0.0394524
0.0394777
0.0395035
0.0395295
0.0395559
0.0395826
0.0396096
0.0396367
0.0396641
0.0396917
0.0397194
0.0397472
0.0397752
0.0398032
0.0398314
0.0398595
0.0398877
0.0399159
0.0399441
0.0399723
0.0400005
0.040029
0.0400582
0.0400881
0.0401189
0.0401502
0.0391072
0.0391239
0.0391409
0.0391584
0.0391764
0.039195
0.0392143
0.0392341
0.0392546
0.0392757
0.0392974
0.0393197
0.0393426
0.0393659
0.0393898
0.0394142
0.039439
0.0394642
0.0394898
0.0395157
0.039542
0.0395686
0.0395954
0.0396225
0.0396498
0.0396773
0.039705
0.0397328
0.0397608
0.0397889
0.039817
0.0398452
0.0398734
0.0399016
0.0399299
0.0399581
0.0399863
0.0400148
0.0400439
0.0400737
0.0401043
0.0401355
0.0390982
0.0391146
0.0391313
0.0391484
0.0391662
0.0391845
0.0392034
0.039223
0.0392432
0.0392641
0.0392856
0.0393076
0.0393302
0.0393534
0.0393771
0.0394012
0.0394259
0.0394509
0.0394764
0.0395022
0.0395283
0.0395548
0.0395816
0.0396086
0.0396359
0.0396633
0.039691
0.0397188
0.0397467
0.0397748
0.0398029
0.0398311
0.0398594
0.0398876
0.0399159
0.0399442
0.0399724
0.0400009
0.0400299
0.0400597
0.0400902
0.0401212
0.0390897
0.0391057
0.0391219
0.0391388
0.0391562
0.0391742
0.0391929
0.0392122
0.0392322
0.0392528
0.039274
0.0392958
0.0393182
0.0393412
0.0393647
0.0393887
0.0394131
0.039438
0.0394633
0.039489
0.0395151
0.0395415
0.0395681
0.0395951
0.0396223
0.0396497
0.0396773
0.0397051
0.039733
0.0397611
0.0397892
0.0398174
0.0398457
0.039874
0.0399023
0.0399307
0.0399589
0.0399874
0.0400163
0.040046
0.0400764
0.0401073
0.0390816
0.0390971
0.039113
0.0391295
0.0391466
0.0391643
0.0391827
0.0392018
0.0392215
0.0392418
0.0392628
0.0392844
0.0393066
0.0393294
0.0393527
0.0393765
0.0394008
0.0394255
0.0394507
0.0394763
0.0395022
0.0395285
0.0395551
0.039582
0.0396091
0.0396365
0.039664
0.0396918
0.0397197
0.0397477
0.0397759
0.0398041
0.0398324
0.0398608
0.0398891
0.0399175
0.0399459
0.0399743
0.0400032
0.0400327
0.040063
0.0400939
0.0390739
0.039089
0.0391045
0.0391206
0.0391374
0.0391548
0.0391729
0.0391917
0.0392112
0.0392313
0.039252
0.0392734
0.0392954
0.039318
0.0393411
0.0393647
0.0393889
0.0394135
0.0394385
0.039464
0.0394898
0.039516
0.0395425
0.0395693
0.0395964
0.0396237
0.0396512
0.039679
0.0397069
0.0397349
0.0397631
0.0397913
0.0398196
0.039848
0.0398764
0.0399048
0.0399332
0.0399617
0.0399905
0.0400199
0.0400501
0.0400809
0.0390666
0.0390812
0.0390964
0.0391122
0.0391286
0.0391457
0.0391636
0.0391821
0.0392013
0.0392212
0.0392417
0.0392629
0.0392847
0.039307
0.03933
0.0393535
0.0393774
0.0394019
0.0394268
0.0394522
0.0394779
0.039504
0.0395304
0.0395572
0.0395842
0.0396115
0.039639
0.0396667
0.0396945
0.0397226
0.0397507
0.039779
0.0398073
0.0398357
0.0398642
0.0398926
0.0399211
0.0399496
0.0399783
0.0400076
0.0400377
0.0400685
0.0390598
0.039074
0.0390887
0.0391041
0.0391203
0.0391371
0.0391547
0.0391729
0.0391919
0.0392115
0.0392318
0.0392528
0.0392744
0.0392966
0.0393194
0.0393427
0.0393665
0.0393909
0.0394157
0.0394409
0.0394665
0.0394926
0.0395189
0.0395456
0.0395725
0.0395998
0.0396272
0.0396549
0.0396827
0.0397108
0.0397389
0.0397672
0.0397955
0.039824
0.0398524
0.0398809
0.0399094
0.0399379
0.0399666
0.0399958
0.0400258
0.0400565
0.0390534
0.0390672
0.0390815
0.0390966
0.0391124
0.039129
0.0391462
0.0391642
0.039183
0.0392024
0.0392225
0.0392433
0.0392647
0.0392867
0.0393093
0.0393325
0.0393562
0.0393804
0.0394051
0.0394302
0.0394558
0.0394817
0.039508
0.0395346
0.0395615
0.0395887
0.0396161
0.0396437
0.0396716
0.0396996
0.0397277
0.039756
0.0397843
0.0398128
0.0398413
0.0398698
0.0398983
0.0399269
0.0399555
0.0399844
0.040014
0.0400444
0.0400754
0.0390474
0.0390608
0.0390748
0.0390895
0.039105
0.0391213
0.0391383
0.0391561
0.0391746
0.0391938
0.0392137
0.0392343
0.0392555
0.0392774
0.0392998
0.0393229
0.0393464
0.0393705
0.0393951
0.0394201
0.0394456
0.0394714
0.0394976
0.0395242
0.039551
0.0395782
0.0396056
0.0396332
0.039661
0.039689
0.0397171
0.0397454
0.0397738
0.0398022
0.0398307
0.0398593
0.0398879
0.0399164
0.039945
0.0399737
0.040003
0.040033
0.0400638
0.0400951
0.0390419
0.0390549
0.0390685
0.039083
0.0390982
0.0391142
0.0391309
0.0391485
0.0391667
0.0391857
0.0392055
0.0392259
0.0392469
0.0392686
0.039291
0.0393139
0.0393373
0.0393613
0.0393858
0.0394107
0.0394361
0.0394618
0.039488
0.0395145
0.0395413
0.0395684
0.0395957
0.0396233
0.0396511
0.0396791
0.0397072
0.0397355
0.0397639
0.0397924
0.0398209
0.0398495
0.0398781
0.0399067
0.0399353
0.0399639
0.0399929
0.0400227
0.0400533
0.0400847
0.0390368
0.0390495
0.0390628
0.0390769
0.0390919
0.0391076
0.0391241
0.0391414
0.0391595
0.0391783
0.0391978
0.0392181
0.039239
0.0392605
0.0392827
0.0393055
0.0393288
0.0393527
0.0393771
0.0394019
0.0394272
0.0394529
0.039479
0.0395054
0.0395322
0.0395592
0.0395866
0.0396141
0.0396419
0.0396699
0.039698
0.0397263
0.0397547
0.0397832
0.0398117
0.0398403
0.039869
0.0398976
0.0399263
0.0399549
0.0399837
0.0400131
0.0400434
0.0400744
0.040106
0.0390322
0.0390445
0.0390575
0.0390714
0.0390861
0.0391016
0.0391179
0.039135
0.0391528
0.0391715
0.0391908
0.0392109
0.0392317
0.0392531
0.0392752
0.0392978
0.039321
0.0393448
0.0393691
0.0393939
0.0394191
0.0394447
0.0394707
0.0394971
0.0395238
0.0395509
0.0395782
0.0396057
0.0396335
0.0396614
0.0396896
0.0397178
0.0397462
0.0397747
0.0398033
0.0398319
0.0398606
0.0398893
0.039918
0.0399466
0.0399754
0.0400045
0.0400345
0.0400654
0.040097
0.039028
0.0390401
0.0390528
0.0390664
0.0390808
0.0390961
0.0391122
0.0391291
0.0391468
0.0391653
0.0391845
0.0392044
0.039225
0.0392463
0.0392683
0.0392908
0.039314
0.0393377
0.0393619
0.0393865
0.0394117
0.0394373
0.0394632
0.0394896
0.0395163
0.0395432
0.0395705
0.039598
0.0396258
0.0396537
0.0396819
0.0397101
0.0397386
0.0397671
0.0397957
0.0398243
0.039853
0.0398817
0.0399104
0.0399391
0.0399678
0.0399968
0.0400264
0.0400569
0.0400882
0.0401202
0.0390243
0.0390361
0.0390486
0.0390619
0.0390762
0.0390912
0.0391071
0.0391239
0.0391414
0.0391597
0.0391788
0.0391986
0.0392191
0.0392403
0.0392621
0.0392846
0.0393076
0.0393312
0.0393554
0.03938
0.0394051
0.0394306
0.0394565
0.0394828
0.0395094
0.0395364
0.0395636
0.0395912
0.0396189
0.0396468
0.039675
0.0397032
0.0397317
0.0397602
0.0397888
0.0398175
0.0398462
0.0398749
0.0399037
0.0399324
0.0399611
0.0399899
0.0400193
0.0400494
0.0400804
0.0401122
0.0401444
0.0390211
0.0390326
0.0390449
0.039058
0.0390721
0.0390869
0.0391027
0.0391192
0.0391366
0.0391548
0.0391738
0.0391934
0.0392138
0.0392349
0.0392567
0.0392791
0.039302
0.0393256
0.0393496
0.0393742
0.0393992
0.0394247
0.0394506
0.0394768
0.0395034
0.0395304
0.0395576
0.0395851
0.0396128
0.0396407
0.0396689
0.0396972
0.0397256
0.0397541
0.0397828
0.0398114
0.0398402
0.039869
0.0398977
0.0399265
0.0399552
0.039984
0.0400132
0.0400431
0.0400739
0.0401056
0.0401379
0.0390183
0.0390296
0.0390417
0.0390547
0.0390685
0.0390833
0.0390988
0.0391153
0.0391325
0.0391506
0.0391694
0.039189
0.0392093
0.0392303
0.039252
0.0392743
0.0392972
0.0393207
0.0393447
0.0393692
0.0393942
0.0394196
0.0394454
0.0394717
0.0394983
0.0395252
0.0395524
0.0395798
0.0396076
0.0396355
0.0396636
0.0396919
0.0397203
0.0397489
0.0397775
0.0398062
0.039835
0.0398638
0.0398926
0.0399214
0.0399502
0.039979
0.0400081
0.0400379
0.0400685
0.0401
0.0401323
0.039016
0.0390271
0.0390391
0.0390519
0.0390656
0.0390802
0.0390956
0.039112
0.0391291
0.0391471
0.0391658
0.0391853
0.0392055
0.0392265
0.0392481
0.0392703
0.0392931
0.0393166
0.0393405
0.039365
0.0393899
0.0394153
0.0394411
0.0394674
0.0394939
0.0395208
0.039548
0.0395755
0.0396032
0.0396311
0.0396592
0.0396875
0.0397159
0.0397445
0.0397732
0.0398019
0.0398307
0.0398595
0.0398883
0.0399172
0.039946
0.0399748
0.0400038
0.0400334
0.0400639
0.0400953
0.0401275
0.0390141
0.0390252
0.0390369
0.0390496
0.0390632
0.0390777
0.0390931
0.0391093
0.0391264
0.0391442
0.0391629
0.0391823
0.0392025
0.0392234
0.0392449
0.0392671
0.0392899
0.0393133
0.0393372
0.0393616
0.0393865
0.0394119
0.0394377
0.0394639
0.0394904
0.0395173
0.0395445
0.0395719
0.0395996
0.0396276
0.0396557
0.039684
0.0397124
0.039741
0.0397696
0.0397984
0.0398272
0.039856
0.0398849
0.0399137
0.0399425
0.0399714
0.0400003
0.0400298
0.04006
0.0400911
0.0401231
0.0401556
0.0390128
0.0390237
0.0390354
0.039048
0.0390615
0.0390759
0.0390912
0.0391073
0.0391243
0.0391421
0.0391607
0.0391801
0.0392002
0.0392211
0.0392426
0.0392647
0.0392875
0.0393108
0.0393347
0.0393591
0.039384
0.0394093
0.0394351
0.0394613
0.0394878
0.0395147
0.0395418
0.0395693
0.039597
0.0396249
0.039653
0.0396813
0.0397098
0.0397383
0.039767
0.0397958
0.0398246
0.0398534
0.0398823
0.0399111
0.03994
0.0399688
0.0399977
0.0400271
0.0400571
0.040088
0.0401198
0.0401524
0.0390118
0.0390227
0.0390343
0.0390469
0.0390603
0.0390746
0.0390899
0.039106
0.0391229
0.0391407
0.0391593
0.0391786
0.0391987
0.0392195
0.039241
0.0392631
0.0392858
0.0393091
0.039333
0.0393574
0.0393823
0.0394076
0.0394334
0.0394595
0.039486
0.0395129
0.0395401
0.0395675
0.0395952
0.0396231
0.0396512
0.0396795
0.039708
0.0397365
0.0397652
0.039794
0.0398228
0.0398517
0.0398805
0.0399094
0.0399383
0.0399671
0.039996
0.0400252
0.040055
0.0400857
0.0401172
0.0401496
0.0401826
0.0390114
0.0390222
0.0390338
0.0390463
0.0390597
0.039074
0.0390893
0.0391053
0.0391223
0.03914
0.0391586
0.0391779
0.039198
0.0392187
0.0392402
0.0392623
0.039285
0.0393083
0.0393322
0.0393565
0.0393814
0.0394067
0.0394325
0.0394586
0.0394852
0.039512
0.0395392
0.0395666
0.0395943
0.0396222
0.0396503
0.0396786
0.0397071
0.0397357
0.0397643
0.0397931
0.0398219
0.0398508
0.0398797
0.0399085
0.0399374
0.0399662
0.0399951
0.0400243
0.040054
0.0400844
0.0401158
0.0401481
0.0401812
0.0390115
0.0390223
0.0390338
0.0390463
0.0390598
0.0390741
0.0390893
0.0391054
0.0391223
0.03914
0.0391586
0.0391779
0.039198
0.0392187
0.0392402
0.0392623
0.039285
0.0393083
0.0393322
0.0393566
0.0393814
0.0394067
0.0394325
0.0394586
0.0394852
0.039512
0.0395392
0.0395666
0.0395943
0.0396222
0.0396503
0.0396786
0.0397071
0.0397356
0.0397643
0.0397931
0.0398219
0.0398508
0.0398796
0.0399085
0.0399374
0.0399662
0.0399951
0.0400242
0.0400538
0.0400841
0.0401152
0.0401473
0.0401802
0.0402136
0.039012
0.0390228
0.0390344
0.039047
0.0390604
0.0390747
0.03909
0.0391061
0.039123
0.0391408
0.0391593
0.0391787
0.0391988
0.0392195
0.039241
0.0392631
0.0392858
0.0393092
0.039333
0.0393574
0.0393823
0.0394076
0.0394334
0.0394595
0.039486
0.0395129
0.03954
0.0395675
0.0395952
0.0396231
0.0396512
0.0396795
0.039708
0.0397365
0.0397652
0.039794
0.0398228
0.0398516
0.0398805
0.0399094
0.0399382
0.039967
0.0399959
0.040025
0.0400546
0.0400848
0.0401158
0.0401478
0.0401807
0.0402142
0.0390129
0.0390239
0.0390355
0.0390481
0.0390616
0.039076
0.0390913
0.0391074
0.0391244
0.0391422
0.0391608
0.0391802
0.0392003
0.0392211
0.0392426
0.0392647
0.0392875
0.0393108
0.0393347
0.0393591
0.039384
0.0394093
0.0394351
0.0394613
0.0394878
0.0395146
0.0395418
0.0395693
0.0395969
0.0396249
0.039653
0.0396813
0.0397097
0.0397383
0.039767
0.0397957
0.0398245
0.0398534
0.0398822
0.0399111
0.0399399
0.0399687
0.0399976
0.0400268
0.0400563
0.0400865
0.0401174
0.0401494
0.0401823
0.0402158
0.0390144
0.0390254
0.0390372
0.0390499
0.0390634
0.0390779
0.0390933
0.0391095
0.0391265
0.0391444
0.039163
0.0391825
0.0392026
0.0392235
0.039245
0.0392672
0.03929
0.0393133
0.0393372
0.0393616
0.0393866
0.0394119
0.0394377
0.0394639
0.0394904
0.0395173
0.0395444
0.0395719
0.0395996
0.0396275
0.0396556
0.0396839
0.0397124
0.0397409
0.0397696
0.0397983
0.0398271
0.039856
0.0398848
0.0399137
0.0399425
0.0399713
0.0400002
0.0400293
0.0400589
0.0400891
0.04012
0.040152
0.0401849
0.0402185
0.0390163
0.0390275
0.0390394
0.0390522
0.0390659
0.0390804
0.0390959
0.0391122
0.0391293
0.0391472
0.039166
0.0391855
0.0392057
0.0392266
0.0392482
0.0392704
0.0392932
0.0393166
0.0393406
0.039365
0.03939
0.0394153
0.0394411
0.0394673
0.0394939
0.0395208
0.039548
0.0395754
0.0396031
0.0396311
0.0396592
0.0396875
0.0397159
0.0397445
0.0397731
0.0398018
0.0398306
0.0398594
0.0398883
0.0399171
0.0399459
0.0399747
0.0400036
0.0400328
0.0400624
0.0400925
0.0401235
0.0401555
0.0401884
0.040222
0.0390187
0.03903
0.0390421
0.039055
0.0390689
0.0390836
0.0390991
0.0391155
0.0391328
0.0391508
0.0391696
0.0391892
0.0392095
0.0392305
0.0392521
0.0392744
0.0392973
0.0393207
0.0393447
0.0393692
0.0393942
0.0394196
0.0394454
0.0394717
0.0394982
0.0395251
0.0395523
0.0395798
0.0396075
0.0396354
0.0396636
0.0396918
0.0397203
0.0397488
0.0397775
0.0398062
0.0398349
0.0398637
0.0398925
0.0399213
0.0399501
0.0399789
0.0400078
0.040037
0.0400667
0.0400969
0.0401279
0.0401599
0.0401929
0.0402265
0.0390216
0.0390331
0.0390453
0.0390585
0.0390724
0.0390873
0.039103
0.0391195
0.0391369
0.0391551
0.039174
0.0391936
0.039214
0.0392351
0.0392568
0.0392792
0.0393021
0.0393256
0.0393497
0.0393742
0.0393992
0.0394247
0.0394506
0.0394768
0.0395034
0.0395303
0.0395575
0.039585
0.0396127
0.0396407
0.0396688
0.0396971
0.0397255
0.039754
0.0397827
0.0398114
0.0398401
0.0398689
0.0398977
0.0399264
0.0399552
0.0399839
0.0400129
0.0400421
0.0400718
0.0401021
0.0401332
0.0401652
0.0401982
0.0402319
0.0390249
0.0390366
0.0390491
0.0390624
0.0390766
0.0390916
0.0391075
0.0391242
0.0391417
0.03916
0.039179
0.0391988
0.0392193
0.0392404
0.0392623
0.0392847
0.0393077
0.0393313
0.0393554
0.03938
0.0394051
0.0394306
0.0394565
0.0394828
0.0395094
0.0395364
0.0395636
0.0395911
0.0396188
0.0396467
0.0396749
0.0397031
0.0397316
0.0397601
0.0397887
0.0398174
0.0398461
0.0398748
0.0399036
0.0399323
0.039961
0.0399898
0.0400187
0.040048
0.0400778
0.0401081
0.0401393
0.0401714
0.0402044
0.0402382
0.0390287
0.0390407
0.0390534
0.039067
0.0390813
0.0390966
0.0391126
0.0391295
0.0391471
0.0391656
0.0391847
0.0392046
0.0392253
0.0392465
0.0392684
0.039291
0.0393141
0.0393377
0.0393619
0.0393866
0.0394117
0.0394373
0.0394632
0.0394895
0.0395162
0.0395432
0.0395704
0.0395979
0.0396257
0.0396536
0.0396817
0.03971
0.0397384
0.0397669
0.0397955
0.0398242
0.0398529
0.0398816
0.0399103
0.039939
0.0399677
0.0399964
0.0400254
0.0400548
0.0400845
0.040115
0.0401462
0.0401784
0.0402115
0.0402453
0.0390329
0.0390452
0.0390582
0.039072
0.0390866
0.0391021
0.0391183
0.0391354
0.0391532
0.0391718
0.0391911
0.0392112
0.0392319
0.0392533
0.0392753
0.039298
0.0393212
0.0393449
0.0393692
0.0393939
0.0394191
0.0394447
0.0394707
0.0394971
0.0395238
0.0395508
0.0395781
0.0396056
0.0396333
0.0396613
0.0396894
0.0397177
0.0397461
0.0397746
0.0398031
0.0398318
0.0398604
0.0398891
0.0399178
0.0399464
0.0399751
0.0400038
0.0400329
0.0400623
0.0400921
0.0401226
0.0401539
0.0401862
0.0402194
0.0402533
0.0390376
0.0390502
0.0390635
0.0390776
0.0390925
0.0391082
0.0391246
0.0391419
0.0391599
0.0391787
0.0391982
0.0392184
0.0392392
0.0392608
0.0392829
0.0393057
0.039329
0.0393528
0.0393772
0.039402
0.0394272
0.0394529
0.039479
0.0395054
0.0395321
0.0395592
0.0395865
0.039614
0.0396418
0.0396697
0.0396979
0.0397261
0.0397545
0.039783
0.0398115
0.0398401
0.0398687
0.0398974
0.039926
0.0399546
0.0399832
0.040012
0.0400411
0.0400706
0.0401005
0.0401311
0.0401625
0.0401948
0.0402281
0.0402621
0.0390428
0.0390557
0.0390693
0.0390837
0.0390989
0.0391148
0.0391315
0.039149
0.0391672
0.0391861
0.0392058
0.0392262
0.0392472
0.0392689
0.0392911
0.039314
0.0393374
0.0393614
0.0393858
0.0394107
0.0394361
0.0394618
0.0394879
0.0395144
0.0395412
0.0395683
0.0395956
0.0396232
0.0396509
0.0396789
0.039707
0.0397353
0.0397637
0.0397921
0.0398206
0.0398492
0.0398778
0.0399064
0.039935
0.0399635
0.0399921
0.040021
0.0400501
0.0400796
0.0401097
0.0401403
0.0401718
0.0402043
0.0402376
0.0402717
0.0390484
0.0390617
0.0390756
0.0390903
0.0391058
0.039122
0.0391389
0.0391566
0.0391751
0.0391942
0.0392141
0.0392346
0.0392558
0.0392776
0.0393
0.039323
0.0393466
0.0393706
0.0393952
0.0394202
0.0394456
0.0394714
0.0394976
0.0395241
0.0395509
0.0395781
0.0396054
0.039633
0.0396608
0.0396888
0.0397169
0.0397452
0.0397735
0.0398019
0.0398304
0.039859
0.0398875
0.0399161
0.0399446
0.0399731
0.0400017
0.0400306
0.0400598
0.0400895
0.0401196
0.0401503
0.0401819
0.0402145
0.0402479
0.0402821
0.0390544
0.0390681
0.0390824
0.0390974
0.0391132
0.0391297
0.0391469
0.0391648
0.0391835
0.0392028
0.0392229
0.0392436
0.039265
0.0392869
0.0393095
0.0393326
0.0393563
0.0393805
0.0394051
0.0394302
0.0394558
0.0394816
0.0395079
0.0395345
0.0395614
0.0395885
0.0396159
0.0396435
0.0396713
0.0396993
0.0397275
0.0397557
0.039784
0.0398125
0.0398409
0.0398694
0.0398979
0.0399264
0.0399549
0.0399834
0.040012
0.040041
0.0400703
0.0401
0.0401302
0.040161
0.0401927
0.0402254
0.040259
0.0402932
0.0390609
0.039075
0.0390897
0.039105
0.0391211
0.0391379
0.0391553
0.0391735
0.0391924
0.039212
0.0392322
0.0392532
0.0392747
0.0392968
0.0393196
0.0393429
0.0393667
0.039391
0.0394157
0.0394409
0.0394665
0.0394925
0.0395188
0.0395455
0.0395724
0.0395996
0.039627
0.0396547
0.0396825
0.0397105
0.0397386
0.0397669
0.0397952
0.0398236
0.039852
0.0398805
0.039909
0.0399374
0.0399658
0.0399943
0.040023
0.040052
0.0400814
0.0401112
0.0401415
0.0401725
0.0402043
0.040237
0.0402707
0.0403051
0.0390678
0.0390824
0.0390974
0.0391131
0.0391295
0.0391465
0.0391643
0.0391827
0.0392018
0.0392216
0.0392421
0.0392632
0.039285
0.0393073
0.0393302
0.0393536
0.0393776
0.039402
0.0394269
0.0394522
0.0394779
0.039504
0.0395304
0.0395571
0.0395841
0.0396113
0.0396388
0.0396664
0.0396943
0.0397223
0.0397504
0.0397787
0.039807
0.0398353
0.0398637
0.0398922
0.0399206
0.039949
0.0399774
0.0400059
0.0400346
0.0400637
0.0400932
0.0401231
0.0401535
0.0401845
0.0402165
0.0402494
0.0402832
0.0403177
0.0390752
0.0390901
0.0391056
0.0391216
0.0391383
0.0391556
0.0391737
0.0391924
0.0392117
0.0392318
0.0392525
0.0392738
0.0392957
0.0393182
0.0393413
0.0393649
0.039389
0.0394135
0.0394385
0.039464
0.0394898
0.0395159
0.0395424
0.0395692
0.0395962
0.0396235
0.0396511
0.0396788
0.0397066
0.0397346
0.0397628
0.039791
0.0398193
0.0398476
0.039876
0.0399044
0.0399328
0.0399611
0.0399895
0.040018
0.0400468
0.040076
0.0401055
0.0401355
0.0401661
0.0401973
0.0402293
0.0402623
0.0402963
0.0403309
0.0390829
0.0390983
0.0391141
0.0391305
0.0391475
0.0391652
0.0391835
0.0392024
0.0392221
0.0392423
0.0392632
0.0392848
0.0393069
0.0393296
0.0393529
0.0393766
0.0394009
0.0394256
0.0394507
0.0394763
0.0395022
0.0395284
0.039555
0.0395818
0.0396089
0.0396363
0.0396638
0.0396916
0.0397195
0.0397475
0.0397756
0.0398038
0.0398321
0.0398604
0.0398888
0.0399171
0.0399455
0.0399738
0.0400021
0.0400307
0.0400596
0.0400889
0.0401185
0.0401486
0.0401792
0.0402106
0.0402427
0.0402759
0.04031
0.0403447
0.0390911
0.0391069
0.0391231
0.0391398
0.0391572
0.0391751
0.0391937
0.0392129
0.0392328
0.0392533
0.0392744
0.0392962
0.0393185
0.0393414
0.0393648
0.0393888
0.0394132
0.039438
0.0394633
0.039489
0.039515
0.0395413
0.039568
0.0395949
0.0396221
0.0396495
0.0396771
0.0397049
0.0397328
0.0397608
0.0397889
0.0398172
0.0398454
0.0398737
0.039902
0.0399303
0.0399586
0.0399869
0.0400153
0.0400439
0.0400729
0.0401022
0.040132
0.0401622
0.040193
0.0402244
0.0402567
0.04029
0.0403243
0.0403592
0.0390997
0.0391159
0.0391325
0.0391495
0.0391671
0.0391853
0.0392042
0.0392237
0.0392438
0.0392646
0.039286
0.0393079
0.0393305
0.0393536
0.0393772
0.0394013
0.0394259
0.0394509
0.0394763
0.0395021
0.0395282
0.0395547
0.0395814
0.0396084
0.0396357
0.0396631
0.0396908
0.0397186
0.0397465
0.0397746
0.0398027
0.0398309
0.0398591
0.0398874
0.0399157
0.039944
0.0399722
0.0400004
0.0400289
0.0400576
0.0400867
0.0401161
0.040146
0.0401763
0.0402072
0.0402388
0.0402712
0.0403047
0.0403391
0.0403741
0.0391087
0.0391253
0.0391422
0.0391595
0.0391774
0.0391959
0.039215
0.0392348
0.0392552
0.0392762
0.0392978
0.03932
0.0393428
0.0393661
0.0393899
0.0394142
0.039439
0.0394641
0.0394897
0.0395156
0.0395419
0.0395684
0.0395952
0.0396223
0.0396496
0.0396771
0.0397048
0.0397326
0.0397606
0.0397887
0.0398168
0.039845
0.0398732
0.0399015
0.0399297
0.0399579
0.0399861
0.0400144
0.0400428
0.0400717
0.0401008
0.0401304
0.0401604
0.0401909
0.0402219
0.0402536
0.0402862
0.0403198
0.0403544
0.0403896
0.039118
0.039135
0.0391522
0.0391697
0.0391879
0.0392066
0.039226
0.0392461
0.0392668
0.039288
0.0393099
0.0393324
0.0393554
0.0393789
0.039403
0.0394274
0.0394524
0.0394777
0.0395034
0.0395294
0.0395558
0.0395824
0.0396094
0.0396365
0.0396639
0.0396915
0.0397192
0.039747
0.039775
0.0398031
0.0398312
0.0398594
0.0398876
0.0399158
0.039944
0.0399722
0.0400004
0.0400286
0.0400572
0.0400861
0.0401154
0.0401451
0.0401752
0.0402058
0.040237
0.0402688
0.0403016
0.0403354
0.0403702
0.0404056
0.0391278
0.039145
0.0391624
0.0391802
0.0391986
0.0392176
0.0392373
0.0392576
0.0392786
0.0393001
0.0393223
0.039345
0.0393683
0.039392
0.0394162
0.0394409
0.039466
0.0394915
0.0395173
0.0395435
0.03957
0.0395967
0.0396237
0.039651
0.0396784
0.039706
0.0397338
0.0397617
0.0397897
0.0398177
0.0398459
0.039874
0.0399022
0.0399304
0.0399586
0.0399867
0.0400148
0.0400432
0.0400718
0.0401009
0.0401303
0.0401601
0.0401904
0.0402211
0.0402524
0.0402845
0.0403174
0.0403515
0.0403864
0.0404221
0.0391379
0.0391552
0.0391726
0.0391907
0.0392094
0.0392287
0.0392487
0.0392693
0.0392906
0.0393124
0.0393349
0.0393578
0.0393813
0.0394053
0.0394297
0.0394546
0.0394798
0.0395055
0.0395315
0.0395578
0.0395844
0.0396113
0.0396383
0.0396657
0.0396932
0.0397208
0.0397486
0.0397765
0.0398045
0.0398326
0.0398607
0.0398888
0.039917
0.0399451
0.0399732
0.0400013
0.0400295
0.0400579
0.0400867
0.0401159
0.0401455
0.0401755
0.0402059
0.0402368
0.0402683
0.0403005
0.0403337
0.040368
0.0404033
0.0404392
0.0391484
0.0391654
0.039183
0.0392013
0.0392203
0.03924
0.0392603
0.0392813
0.0393028
0.0393249
0.0393476
0.0393709
0.0393946
0.0394188
0.0394434
0.0394685
0.0394939
0.0395197
0.0395459
0.0395723
0.039599
0.039626
0.0396532
0.0396805
0.0397081
0.0397358
0.0397636
0.0397915
0.0398195
0.0398476
0.0398757
0.0399038
0.0399319
0.03996
0.039988
0.040016
0.0400443
0.0400729
0.0401019
0.0401312
0.0401609
0.0401911
0.0402217
0.0402528
0.0402845
0.040317
0.0403505
0.0403852
0.0404207
0.0404569
0.0391487
0.0391657
0.0391833
0.0392016
0.0392206
0.0392403
0.0392606
0.0392816
0.0393032
0.0393253
0.039348
0.0393712
0.039395
0.0394192
0.0394438
0.0394689
0.0394943
0.0395201
0.0395463
0.0395727
0.0395994
0.0396264
0.0396536
0.039681
0.0397085
0.0397362
0.0397641
0.039792
0.03982
0.039848
0.0398761
0.0399042
0.0399323
0.0399604
0.0399884
0.0400165
0.0400448
0.0400734
0.0401023
0.0401317
0.0401614
0.0401915
0.0402221
0.0402532
0.0402849
0.0403175
0.040351
0.0403856
0.0404211
0.0404573
0.0391388
0.0391561
0.0391736
0.0391916
0.0392103
0.0392297
0.0392497
0.0392704
0.0392917
0.0393135
0.039336
0.039359
0.0393825
0.0394065
0.0394309
0.0394558
0.0394811
0.0395068
0.0395328
0.0395591
0.0395857
0.0396126
0.0396397
0.039667
0.0396945
0.0397222
0.03975
0.0397779
0.0398059
0.039834
0.0398621
0.0398902
0.0399184
0.0399465
0.0399746
0.0400027
0.0400309
0.0400593
0.0400881
0.0401172
0.0401468
0.0401768
0.0402072
0.0402381
0.0402696
0.0403018
0.040335
0.0403693
0.0404046
0.0404405
0.0391293
0.0391466
0.0391639
0.0391818
0.0392002
0.0392193
0.039239
0.0392594
0.0392804
0.039302
0.0393242
0.0393469
0.0393702
0.039394
0.0394183
0.039443
0.0394681