/*--------------------------------*- C++ -*----------------------------------*\
  =========                 |
  \\      /  F ield         | OpenFOAM: The Open Source CFD Toolbox
   \\    /   O peration     | Website:  https://openfoam.org
    \\  /    A nd           | Version:  7
     \\/     M anipulation  |
\*---------------------------------------------------------------------------*/
FoamFile
{
    version     2.0;
    format      ascii;
    class       volVectorField;
    location    "20000";
    object      vorticity;
}
// * * * * * * * * * * * * * * * * * * * * * * * * * * * * * * * * * * * * * //

dimensions      [0 0 -1 0 0 0 0];

internalField   nonuniform List<vector> 
4783
(
(-4.1216e-06 9.32697e-06 -4.91928e-18)
(-9.31816e-06 3.91177e-06 -2.68205e-18)
(-9.99622e-06 2.35067e-06 -4.99972e-19)
(-1.03747e-05 7.27997e-07 7.19156e-19)
(-1.05217e-05 -8.48426e-07 6.03119e-19)
(-1.05118e-05 -2.36271e-06 -1.51022e-19)
(-1.03771e-05 -3.79911e-06 -9.67311e-19)
(-1.0139e-05 -5.15107e-06 -1.57288e-18)
(-9.81347e-06 -6.41672e-06 -9.28043e-19)
(-9.41287e-06 -7.59646e-06 5.37343e-19)
(-8.94742e-06 -8.69177e-06 6.40803e-19)
(-8.42571e-06 -9.70462e-06 1.41732e-19)
(-7.85525e-06 -1.06372e-05 9.36646e-20)
(-7.24286e-06 -1.14916e-05 2.79693e-19)
(-6.59502e-06 -1.227e-05 6.69156e-19)
(-5.91819e-06 -1.29744e-05 8.18479e-19)
(-5.21915e-06 -1.36067e-05 8.13468e-19)
(-4.50519e-06 -1.41684e-05 7.72781e-19)
(-3.78439e-06 -1.46606e-05 2.61258e-19)
(-3.06548e-06 -1.50836e-05 -4.14018e-19)
(-2.42656e-06 -1.54445e-05 -7.05778e-19)
(-1.92352e-06 -1.57562e-05 -1.94702e-19)
(-4.33473e-06 1.0006e-05 -8.15288e-19)
(-9.5613e-06 4.71628e-06 -1.62233e-18)
(-1.08503e-05 2.95745e-06 -1.18414e-18)
(-1.15995e-05 1.37333e-06 -5.7431e-19)
(-1.19704e-05 -1.05064e-07 -3.59465e-19)
(-1.20877e-05 -1.50885e-06 -4.9026e-19)
(-1.20186e-05 -2.83951e-06 -3.28579e-19)
(-1.18043e-05 -4.09464e-06 -3.78886e-19)
(-1.14726e-05 -5.27236e-06 -2.9858e-19)
(-1.10431e-05 -6.37204e-06 -1.94773e-19)
(-1.05308e-05 -7.39409e-06 -2.00788e-19)
(-9.94742e-06 -8.33958e-06 -2.37033e-20)
(-9.30302e-06 -9.20997e-06 4.74038e-19)
(-8.60625e-06 -1.00069e-05 7.00839e-19)
(-7.86507e-06 -1.07322e-05 4.47706e-19)
(-7.08716e-06 -1.13876e-05 2.5701e-19)
(-6.28028e-06 -1.19748e-05 1.87359e-19)
(-5.45265e-06 -1.24954e-05 1.12988e-19)
(-4.61325e-06 -1.29509e-05 1.15917e-22)
(-3.77209e-06 -1.33425e-05 -3.28158e-19)
(-2.99974e-06 -1.36786e-05 -3.47493e-19)
(-2.37132e-06 -1.3955e-05 7.85764e-20)
(-4.83823e-06 1.05307e-05 6.6662e-19)
(-1.00501e-05 4.73733e-06 -4.1169e-19)
(-1.14933e-05 2.8132e-06 -4.60062e-19)
(-1.24762e-05 1.21748e-06 -6.27813e-19)
(-1.30487e-05 -1.62191e-07 -9.56299e-19)
(-1.33111e-05 -1.40797e-06 -6.65705e-19)
(-1.33353e-05 -2.55467e-06 -4.95094e-19)
(-1.31731e-05 -3.61831e-06 -5.73534e-19)
(-1.28613e-05 -4.60653e-06 -4.09068e-19)
(-1.24268e-05 -5.52356e-06 -4.96995e-19)
(-1.18893e-05 -6.3723e-06 -5.19361e-19)
(-1.12645e-05 -7.15511e-06 -1.14155e-19)
(-1.05652e-05 -7.87414e-06 1.49323e-19)
(-9.80205e-06 -8.53143e-06 1.16588e-19)
(-8.98475e-06 -9.12896e-06 -2.091e-20)
(-8.12238e-06 -9.66863e-06 -6.54328e-20)
(-7.22391e-06 -1.01523e-05 2.19456e-20)
(-6.29865e-06 -1.05816e-05 1.83153e-19)
(-5.35663e-06 -1.09582e-05 1.32572e-19)
(-4.40905e-06 -1.12835e-05 -5.69354e-20)
(-3.52218e-06 -1.15651e-05 2.74954e-20)
(-2.77421e-06 -1.18013e-05 2.63705e-19)
(-5.59771e-06 1.17661e-05 1.30175e-18)
(-1.0845e-05 5.58663e-06 4.91974e-20)
(-1.22437e-05 3.51386e-06 -1.42583e-19)
(-1.32929e-05 1.84576e-06 -3.30067e-19)
(-1.39742e-05 4.74571e-07 -4.08779e-19)
(-1.43413e-05 -6.99595e-07 -1.81878e-19)
(-1.44474e-05 -1.73451e-06 -4.46086e-19)
(-1.43398e-05 -2.66429e-06 -9.38476e-19)
(-1.4057e-05 -3.50882e-06 -7.69843e-19)
(-1.3629e-05 -4.28005e-06 -8.66797e-19)
(-1.30791e-05 -4.98559e-06 -8.07687e-19)
(-1.2426e-05 -5.63071e-06 -5.64561e-19)
(-1.16846e-05 -6.2194e-06 -4.04972e-19)
(-1.08679e-05 -6.75485e-06 -3.0242e-19)
(-9.98711e-06 -7.2398e-06 -1.84878e-19)
(-9.05273e-06 -7.67669e-06 -3.74546e-20)
(-8.07495e-06 -8.06771e-06 8.50003e-20)
(-7.06419e-06 -8.41486e-06 2.69214e-19)
(-6.03152e-06 -8.71992e-06 1.72915e-19)
(-4.98914e-06 -8.98441e-06 -4.76133e-20)
(-3.99954e-06 -9.21522e-06 3.63853e-20)
(-3.14386e-06 -9.41116e-06 2.02728e-19)
(-6.56816e-06 1.34376e-05 3.66452e-19)
(-1.1899e-05 6.92425e-06 -2.45189e-19)
(-1.31742e-05 4.77846e-06 -3.39239e-19)
(-1.41864e-05 3.05149e-06 -4.25669e-19)
(-1.48891e-05 1.66167e-06 -4.92513e-19)
(-1.53027e-05 5.13938e-07 -4.06054e-19)
(-1.54572e-05 -4.57498e-07 -5.03853e-19)
(-1.5388e-05 -1.29794e-06 -5.35998e-19)
(-1.51284e-05 -2.03737e-06 -5.4471e-19)
(-1.47074e-05 -2.69546e-06 -6.77483e-19)
(-1.41493e-05 -3.28531e-06 -4.85167e-19)
(-1.34738e-05 -3.816e-06 -2.93961e-19)
(-1.26979e-05 -4.29407e-06 -3.4036e-19)
(-1.18356e-05 -4.72449e-06 -4.46443e-19)
(-1.08998e-05 -5.11123e-06 -5.25326e-19)
(-9.90215e-06 -5.45757e-06 -4.26807e-19)
(-8.85392e-06 -5.76633e-06 -1.07811e-19)
(-7.76656e-06 -6.03997e-06 1.43113e-19)
(-6.65212e-06 -6.28059e-06 3.7627e-20)
(-5.52367e-06 -6.48988e-06 -1.41431e-19)
(-4.44033e-06 -6.6743e-06 2.03411e-21)
(-3.48585e-06 -6.83323e-06 2.62976e-19)
(-7.70767e-06 1.53727e-05 -2.67634e-19)
(-1.31515e-05 8.56929e-06 -4.62867e-19)
(-1.42758e-05 6.4114e-06 -6.28549e-19)
(-1.51979e-05 4.66047e-06 -8.09657e-19)
(-1.58627e-05 3.25822e-06 -6.86352e-19)
(-1.62716e-05 2.1225e-06 -3.68648e-19)
(-1.64371e-05 1.18932e-06 -3.41029e-19)
(-1.63816e-05 4.09382e-07 -2.71307e-19)
(-1.61308e-05 -2.53312e-07 -3.29839e-19)
(-1.57095e-05 -8.24306e-07 -2.92163e-19)
(-1.51405e-05 -1.32163e-06 -1.68836e-19)
(-1.44434e-05 -1.75814e-06 -1.33907e-19)
(-1.36354e-05 -2.14319e-06 -1.50303e-19)
(-1.27317e-05 -2.48383e-06 -3.12905e-19)
(-1.17459e-05 -2.78551e-06 -4.68346e-19)
(-1.06905e-05 -3.05261e-06 -4.13177e-19)
(-9.57788e-06 -3.28878e-06 -1.00975e-19)
(-8.42025e-06 -3.49706e-06 5.96751e-20)
(-7.23052e-06 -3.68003e-06 1.28276e-20)
(-6.02255e-06 -3.8397e-06 -7.5385e-20)
(-4.8524e-06 -3.98228e-06 1.66876e-21)
(-3.80603e-06 -4.10783e-06 2.56846e-19)
(-8.98068e-06 1.74643e-05 3.12705e-19)
(-1.45497e-05 1.04124e-05 -1.18114e-19)
(-1.55178e-05 8.28515e-06 -1.48225e-19)
(-1.63256e-05 6.54399e-06 -2.88144e-19)
(-1.69173e-05 5.14736e-06 -3.30644e-19)
(-1.72849e-05 4.02623e-06 -3.39082e-19)
(-1.74297e-05 3.12259e-06 -5.15971e-19)
(-1.73634e-05 2.38784e-06 -6.35383e-19)
(-1.7104e-05 1.78371e-06 -4.89442e-19)
(-1.66711e-05 1.28112e-06 -2.25098e-19)
(-1.60845e-05 8.58454e-07 -9.58517e-21)
(-1.53625e-05 4.99657e-07 -1.30184e-20)
(-1.45218e-05 1.92762e-07 9.39393e-20)
(-1.35777e-05 -7.12986e-08 -1.3348e-20)
(-1.2544e-05 -2.99544e-07 -2.71309e-19)
(-1.14341e-05 -4.97548e-07 -1.05274e-19)
(-1.02608e-05 -6.69857e-07 4.00913e-20)
(-9.03707e-06 -8.20255e-07 -5.5019e-21)
(-7.77663e-06 -9.51876e-07 -8.99799e-20)
(-6.49395e-06 -1.06719e-06 -1.33129e-19)
(-5.24236e-06 -1.17232e-06 4.03032e-20)
(-4.10963e-06 -1.26818e-06 2.9683e-19)
(-1.03568e-05 1.96404e-05 6.07871e-19)
(-1.60513e-05 1.23807e-05 6.78976e-19)
(-1.68669e-05 1.03134e-05 4.92004e-19)
(-1.75517e-05 8.60912e-06 1.50878e-19)
(-1.80516e-05 7.23764e-06 -1.03851e-20)
(-1.83545e-05 6.14086e-06 -1.22451e-19)
(-1.8455e-05 5.26755e-06 -2.95891e-19)
(-1.83574e-05 4.57216e-06 -5.88859e-19)
(-1.80729e-05 4.01662e-06 -5.78927e-19)
(-1.76164e-05 3.57039e-06 -4.14753e-19)
(-1.70039e-05 3.20962e-06 -3.58832e-19)
(-1.62518e-05 2.91596e-06 -1.47853e-19)
(-1.53756e-05 2.67532e-06 1.13998e-19)
(-1.43899e-05 2.47685e-06 3.66627e-20)
(-1.33087e-05 2.31208e-06 -2.68783e-19)
(-1.21455e-05 2.1743e-06 -1.90608e-20)
(-1.09135e-05 2.05808e-06 2.22744e-19)
(-9.6264e-06 1.95885e-06 2.19975e-19)
(-8.29837e-06 1.87283e-06 1.46689e-19)
(-6.94449e-06 1.79698e-06 3.30151e-20)
(-5.61567e-06 1.72513e-06 5.04622e-20)
(-4.40167e-06 1.6555e-06 1.67899e-19)
(-1.18101e-05 2.18515e-05 4.71431e-19)
(-1.76221e-05 1.44234e-05 9.45113e-19)
(-1.82933e-05 1.2436e-05 7.16987e-19)
(-1.88542e-05 1.0789e-05 3.38173e-19)
(-1.92538e-05 9.45993e-06 6.09156e-21)
(-1.94783e-05 8.39907e-06 -1.13007e-19)
(-1.95187e-05 7.56142e-06 -2.01842e-19)
(-1.93743e-05 6.90525e-06 -4.17623e-19)
(-1.90513e-05 6.39404e-06 -4.1775e-19)
(-1.85601e-05 5.9972e-06 -2.34999e-19)
(-1.79136e-05 5.68987e-06 -3.59468e-19)
(-1.71255e-05 5.45223e-06 -2.63813e-19)
(-1.62099e-05 5.26867e-06 1.0446e-19)
(-1.51805e-05 5.12689e-06 6.62139e-20)
(-1.40508e-05 5.01723e-06 -9.71818e-20)
(-1.28343e-05 4.93202e-06 -1.85544e-20)
(-1.15445e-05 4.86502e-06 1.54284e-19)
(-1.01955e-05 4.81096e-06 2.14595e-19)
(-8.80191e-06 4.76535e-06 1.99237e-19)
(-7.37936e-06 4.72445e-06 1.32197e-19)
(-5.97644e-06 4.68173e-06 1.12154e-19)
(-4.68431e-06 4.63465e-06 2.62777e-19)
(-1.33186e-05 2.40621e-05 3.04791e-20)
(-1.92353e-05 1.65034e-05 1.00258e-18)
(-1.97713e-05 1.46097e-05 7.30675e-19)
(-2.02117e-05 1.30351e-05 5.00582e-19)
(-2.05085e-05 1.17624e-05 2.49149e-19)
(-2.06476e-05 1.07483e-05 5.73069e-20)
(-2.0618e-05 9.95324e-06 8.31452e-20)
(-2.04162e-05 9.33907e-06 -1.98481e-19)
(-2.00445e-05 8.87145e-06 -6.74934e-20)
(-1.95098e-05 8.52058e-06 1.18367e-19)
(-1.88219e-05 8.26143e-06 -2.11447e-19)
(-1.79924e-05 8.07347e-06 -4.092e-19)
(-1.70335e-05 7.94006e-06 -1.39332e-19)
(-1.59578e-05 7.84788e-06 -2.20022e-20)
(-1.47782e-05 7.78632e-06 -6.48962e-20)
(-1.35077e-05 7.74697e-06 -3.9715e-20)
(-1.216e-05 7.72308e-06 1.42326e-19)
(-1.07496e-05 7.70878e-06 2.52914e-19)
(-9.29188e-06 7.69887e-06 1.96639e-19)
(-7.80275e-06 7.6888e-06 1.47761e-19)
(-6.3287e-06 7.67095e-06 1.59645e-19)
(-4.96163e-06 7.64146e-06 3.29909e-19)
(-1.48634e-05 2.62471e-05 -2.02698e-19)
(-2.0869e-05 1.85932e-05 7.43306e-19)
(-2.12796e-05 1.68025e-05 6.52588e-19)
(-2.16049e-05 1.53113e-05 4.77199e-19)
(-2.18001e-05 1.41058e-05 4.56705e-19)
(-2.18511e-05 1.3148e-05 4.42033e-19)
(-2.17463e-05 1.24023e-05 2.97412e-19)
(-2.14802e-05 1.18341e-05 -5.83344e-20)
(-2.10526e-05 1.14112e-05 1.74186e-20)
(-2.04677e-05 1.1105e-05 2.47763e-19)
(-1.97328e-05 1.0891e-05 1.95634e-20)
(-1.88571e-05 1.07483e-05 -1.62848e-19)
(-1.78515e-05 1.06599e-05 -3.66799e-20)
(-1.67272e-05 1.06116e-05 1.00853e-19)
(-1.54961e-05 1.05921e-05 1.46889e-20)
(-1.41707e-05 1.05926e-05 -5.61582e-20)
(-1.27646e-05 1.06062e-05 2.23166e-19)
(-1.12929e-05 1.06266e-05 3.97827e-19)
(-9.77156e-06 1.0648e-05 2.91864e-19)
(-8.21781e-06 1.06655e-05 2.23087e-19)
(-6.67626e-06 1.06684e-05 2.33574e-19)
(-5.23716e-06 1.0649e-05 2.71464e-19)
(-1.64285e-05 2.83878e-05 1.50442e-18)
(-2.25057e-05 2.06719e-05 9.3392e-19)
(-2.28004e-05 1.89904e-05 7.59683e-19)
(-2.30172e-05 1.75902e-05 5.11468e-19)
(-2.31138e-05 1.64603e-05 3.74539e-19)
(-2.30769e-05 1.55663e-05 5.67748e-19)
(-2.28947e-05 1.48761e-05 5.27147e-19)
(-2.25606e-05 1.4358e-05 3.41182e-19)
(-2.20727e-05 1.39817e-05 2.9603e-19)
(-2.14331e-05 1.37202e-05 2.98137e-19)
(-2.06469e-05 1.35494e-05 1.19416e-19)
(-1.97217e-05 1.3449e-05 -8.09777e-21)
(-1.86666e-05 1.34015e-05 9.9887e-20)
(-1.74919e-05 1.33924e-05 2.94845e-19)
(-1.62082e-05 1.34098e-05 1.74862e-19)
(-1.48268e-05 1.34443e-05 5.70142e-20)
(-1.33615e-05 1.34899e-05 3.53762e-19)
(-1.1828e-05 1.35402e-05 4.45907e-19)
(-1.02429e-05 1.35881e-05 3.37799e-19)
(-8.62628e-06 1.36312e-05 3.68184e-19)
(-7.02362e-06 1.36528e-05 3.20211e-19)
(-5.51523e-06 1.36291e-05 1.92367e-19)
(-1.79999e-05 3.04704e-05 2.98406e-18)
(-2.41311e-05 2.27231e-05 1.36233e-18)
(-2.43191e-05 2.11547e-05 8.89233e-19)
(-2.44342e-05 1.9851e-05 8.69177e-19)
(-2.44366e-05 1.88027e-05 5.66566e-19)
(-2.43137e-05 1.79784e-05 4.86836e-19)
(-2.4054e-05 1.73488e-05 4.29581e-19)
(-2.36505e-05 1.68843e-05 2.33321e-19)
(-2.31e-05 1.65567e-05 1.87242e-19)
(-2.2403e-05 1.63401e-05 2.69283e-19)
(-2.1563e-05 1.62113e-05 2.73186e-19)
(-2.05857e-05 1.61505e-05 1.09329e-19)
(-1.94794e-05 1.61408e-05 2.00787e-19)
(-1.82531e-05 1.61668e-05 3.76267e-19)
(-1.69164e-05 1.62165e-05 2.74733e-19)
(-1.54786e-05 1.62787e-05 1.81369e-19)
(-1.3953e-05 1.63509e-05 4.28158e-19)
(-1.23576e-05 1.64265e-05 4.48469e-19)
(-1.07067e-05 1.64936e-05 3.75253e-19)
(-9.02695e-06 1.65651e-05 4.72182e-19)
(-7.37295e-06 1.65386e-05 3.49836e-19)
(-5.79974e-06 1.64874e-05 1.78224e-19)
(-1.95659e-05 3.24845e-05 2.3219e-18)
(-2.57333e-05 2.47341e-05 1.03379e-18)
(-2.58234e-05 2.32809e-05 6.66345e-19)
(-2.58438e-05 2.20772e-05 7.35367e-19)
(-2.5757e-05 2.11147e-05 6.87499e-19)
(-2.55513e-05 2.03645e-05 5.476e-19)
(-2.52156e-05 1.97992e-05 4.88819e-19)
(-2.47428e-05 1.93912e-05 2.83229e-19)
(-2.41291e-05 1.91138e-05 2.72284e-19)
(-2.33738e-05 1.89422e-05 4.54322e-19)
(-2.24785e-05 1.8854e-05 4.1535e-19)
(-2.14478e-05 1.88303e-05 1.93807e-19)
(-2.02891e-05 1.88556e-05 3.70204e-19)
(-1.90106e-05 1.89129e-05 3.90955e-19)
(-1.76222e-05 1.89917e-05 3.41248e-19)
(-1.61279e-05 1.90737e-05 3.49085e-19)
(-1.45404e-05 1.91665e-05 4.70709e-19)
(-1.28851e-05 1.92658e-05 4.35791e-19)
(-1.11623e-05 1.93386e-05 3.86314e-19)
(-9.45777e-06 1.93184e-05 4.23709e-19)
(-7.77825e-06 1.92235e-05 2.92875e-19)
(-6.10057e-06 1.9129e-05 1.08822e-19)
(-2.1116e-05 3.44222e-05 5.5217e-19)
(-2.73026e-05 2.66944e-05 3.11817e-19)
(-2.73031e-05 2.53574e-05 5.0673e-19)
(-2.72356e-05 2.42557e-05 7.01484e-19)
(-2.7065e-05 2.33818e-05 7.12433e-19)
(-2.67803e-05 2.27085e-05 4.91019e-19)
(-2.63712e-05 2.22099e-05 4.93723e-19)
(-2.58304e-05 2.18602e-05 4.27207e-19)
(-2.51542e-05 2.16339e-05 3.05489e-19)
(-2.4341e-05 2.1507e-05 5.35208e-19)
(-2.33907e-05 2.14573e-05 5.22288e-19)
(-2.23054e-05 2.14672e-05 4.48855e-19)
(-2.10941e-05 2.15254e-05 6.30647e-19)
(-1.97625e-05 2.1609e-05 4.1662e-19)
(-1.83264e-05 2.17182e-05 4.67944e-19)
(-1.67772e-05 2.18073e-05 5.31236e-19)
(-1.51226e-05 2.19156e-05 5.47404e-19)
(-1.3407e-05 2.19732e-05 4.72237e-19)
(-1.16902e-05 2.19679e-05 4.26862e-19)
(-9.96362e-06 2.18656e-05 3.89834e-19)
(-2.26415e-05 3.62775e-05 -9.40174e-19)
(-2.8831e-05 2.85957e-05 1.33721e-19)
(-2.87496e-05 2.73748e-05 4.92045e-19)
(-2.86009e-05 2.63759e-05 7.89136e-19)
(-2.83521e-05 2.5592e-05 8.86978e-19)
(-2.79928e-05 2.4997e-05 6.71255e-19)
(-2.75134e-05 2.45664e-05 5.1158e-19)
(-2.6907e-05 2.42754e-05 4.56571e-19)
(-2.61698e-05 2.41e-05 2.22471e-19)
(-2.53003e-05 2.40168e-05 5.88473e-19)
(-2.42968e-05 2.40032e-05 6.72741e-19)
(-2.31555e-05 2.40401e-05 6.85056e-19)
(-2.1893e-05 2.41318e-05 7.14911e-19)
(-2.05042e-05 2.42343e-05 3.84227e-19)
(-1.90166e-05 2.43089e-05 4.69587e-19)
(-1.74195e-05 2.43922e-05 6.80197e-19)
(-1.57297e-05 2.44548e-05 5.82239e-19)
(-1.40022e-05 2.44545e-05 4.42789e-19)
(-1.22351e-05 2.43981e-05 3.91973e-19)
(-2.41345e-05 3.80459e-05 -1.08398e-18)
(-3.03116e-05 3.04312e-05 2.66074e-19)
(-3.01556e-05 2.93254e-05 4.41654e-19)
(-2.99324e-05 2.84292e-05 7.27524e-19)
(-2.9611e-05 2.77354e-05 8.48199e-19)
(-2.91819e-05 2.72189e-05 6.78309e-19)
(-2.86361e-05 2.68559e-05 6.70509e-19)
(-2.79666e-05 2.66226e-05 7.51262e-19)
(-2.71703e-05 2.64966e-05 4.7248e-19)
(-2.62468e-05 2.64554e-05 6.4709e-19)
(-2.51954e-05 2.6476e-05 6.851e-19)
(-2.39944e-05 2.65297e-05 8.13906e-19)
(-2.26681e-05 2.65838e-05 6.2136e-19)
(-2.12574e-05 2.66359e-05 4.40663e-19)
(-1.97249e-05 2.66724e-05 6.06446e-19)
(-1.80758e-05 2.67336e-05 6.54473e-19)
(-1.63491e-05 2.67778e-05 3.56749e-19)
(-2.55883e-05 3.97235e-05 -3.04745e-19)
(-3.17389e-05 3.2195e-05 4.53085e-19)
(-3.15152e-05 3.12028e-05 5.62314e-19)
(-3.12238e-05 3.04082e-05 7.19775e-19)
(-3.08355e-05 2.98035e-05 7.33411e-19)
(-3.03416e-05 2.93644e-05 6.64303e-19)
(-2.97337e-05 2.90675e-05 8.70208e-19)
(-2.90046e-05 2.88887e-05 8.73979e-19)
(-2.81509e-05 2.88082e-05 6.05209e-19)
(-2.71755e-05 2.88111e-05 6.599e-19)
(-2.60657e-05 2.87841e-05 7.91567e-19)
(-2.48402e-05 2.87802e-05 9.18709e-19)
(-2.34806e-05 2.87789e-05 5.06511e-19)
(-2.20031e-05 2.88017e-05 2.24106e-19)
(-2.69972e-05 4.13076e-05 2.69702e-19)
(-3.31079e-05 3.38823e-05 6.94338e-19)
(-3.28231e-05 3.30016e-05 7.14442e-19)
(-3.24699e-05 3.23067e-05 8.42842e-19)
(-3.20204e-05 3.1789e-05 7.02794e-19)
(-3.14668e-05 3.14249e-05 6.28107e-19)
(-3.08021e-05 3.11911e-05 8.92474e-19)
(-3.00173e-05 3.10614e-05 8.46381e-19)
(-2.91065e-05 3.10264e-05 7.11809e-19)
(-2.80942e-05 3.09263e-05 4.99356e-19)
(-2.69665e-05 3.08261e-05 7.24488e-19)
(-2.56736e-05 3.07882e-05 7.45221e-19)
(-2.83558e-05 4.27957e-05 3.0785e-19)
(-3.44144e-05 3.5489e-05 8.56801e-19)
(-3.4075e-05 3.47172e-05 8.49196e-19)
(-3.36663e-05 3.41194e-05 9.64823e-19)
(-3.31615e-05 3.36853e-05 8.06525e-19)
(-3.2553e-05 3.33923e-05 7.77769e-19)
(-3.18378e-05 3.3218e-05 1.01446e-18)
(-3.10014e-05 3.31363e-05 9.64118e-19)
(-3.00681e-05 3.29794e-05 6.12954e-19)
(-2.90297e-05 3.27916e-05 2.6411e-19)
(-2.96598e-05 4.41859e-05 8.78162e-19)
(-3.56551e-05 3.70112e-05 1.03567e-18)
(-3.52669e-05 3.63455e-05 9.21457e-19)
(-3.48095e-05 3.58417e-05 9.10718e-19)
(-3.42554e-05 3.54866e-05 8.84242e-19)
(-3.35959e-05 3.52578e-05 9.91299e-19)
(-3.28366e-05 3.51476e-05 1.15648e-18)
(-3.19839e-05 3.49431e-05 1.02487e-18)
(-3.10262e-05 3.46962e-05 4.90614e-19)
(-3.09054e-05 4.54767e-05 1.57187e-18)
(-3.68268e-05 3.84456e-05 1.30557e-18)
(-3.63955e-05 3.78829e-05 1.12156e-18)
(-3.58962e-05 3.74699e-05 9.97047e-19)
(-3.53007e-05 3.71876e-05 9.11224e-19)
(-3.45899e-05 3.7019e-05 9.45582e-19)
(-3.38174e-05 3.68123e-05 9.80964e-19)
(-3.29496e-05 3.6518e-05 9.10046e-19)
(-3.20893e-05 4.66667e-05 2.19279e-18)
(-3.79268e-05 3.9789e-05 1.55592e-18)
(-3.74573e-05 3.9326e-05 1.18871e-18)
(-3.69236e-05 3.90007e-05 9.72067e-19)
(-3.62956e-05 3.8787e-05 9.8197e-19)
(-3.55833e-05 3.85977e-05 8.51854e-19)
(-3.4768e-05 3.82646e-05 7.8285e-19)
(-3.32091e-05 4.77548e-05 2.70872e-18)
(-3.89534e-05 4.10385e-05 1.76049e-18)
(-3.84491e-05 4.06714e-05 1.2113e-18)
(-3.78873e-05 4.0431e-05 1.07135e-18)
(-3.72586e-05 4.02772e-05 1.07469e-18)
(-3.65285e-05 3.99663e-05 7.09008e-19)
(-3.42627e-05 4.87403e-05 2.60462e-18)
(-3.99052e-05 4.21912e-05 1.63972e-18)
(-3.93683e-05 4.1915e-05 1.07397e-18)
(-3.87813e-05 4.17632e-05 1.14248e-18)
(-3.81568e-05 4.15295e-05 9.65624e-19)
(-3.7455e-05 4.11609e-05 5.27291e-19)
(-3.5249e-05 4.96231e-05 1.45111e-18)
(-4.07821e-05 4.32447e-05 1.21817e-18)
(-4.02112e-05 4.30541e-05 9.13679e-19)
(-3.96414e-05 4.29294e-05 1.12316e-18)
(-3.89944e-05 4.25846e-05 8.53098e-19)
(-3.61672e-05 5.04036e-05 -4.30979e-19)
(-4.15851e-05 4.41975e-05 6.11189e-19)
(-4.09894e-05 4.40778e-05 8.32003e-19)
(-4.04185e-05 4.39007e-05 1.0425e-18)
(-3.70167e-05 5.1083e-05 -1.43778e-18)
(-4.23162e-05 4.50508e-05 2.09503e-19)
(-4.17093e-05 4.49489e-05 6.09319e-19)
(-4.11496e-05 4.47299e-05 8.39939e-19)
(-3.7796e-05 5.16631e-05 -1.13644e-18)
(-4.29873e-05 4.57984e-05 6.77692e-20)
(-4.23718e-05 4.57112e-05 4.8656e-19)
(-3.85032e-05 5.21456e-05 -4.84956e-19)
(-4.35904e-05 4.64588e-05 -6.37963e-20)
(-4.29969e-05 4.6402e-05 3.75401e-19)
(-3.91321e-05 5.25324e-05 -3.74238e-19)
(-4.41228e-05 4.70397e-05 -1.24698e-19)
(-4.35629e-05 4.70307e-05 4.00437e-19)
(-3.96765e-05 5.28215e-05 -7.14661e-19)
(-4.45724e-05 4.75432e-05 -1.40649e-19)
(-4.40498e-05 4.7604e-05 4.13265e-19)
(-4.01292e-05 5.30081e-05 -1.04057e-18)
(-4.49341e-05 4.79679e-05 -5.35992e-20)
(-4.44514e-05 4.80981e-05 4.82481e-19)
(-4.0498e-05 5.31106e-05 -1.07926e-18)
(-4.52046e-05 4.83163e-05 1.31345e-19)
(-4.47675e-05 4.85056e-05 5.66633e-19)
(-4.08711e-05 5.32743e-05 -5.43057e-19)
(-4.53928e-05 4.859e-05 4.63679e-19)
(-4.49988e-05 4.88208e-05 6.40414e-19)
(-4.14381e-05 5.36963e-05 5.89231e-19)
(-4.56287e-05 4.8882e-05 9.72499e-19)
(-4.51709e-05 4.90771e-05 6.63961e-19)
(-4.23477e-05 5.44781e-05 1.80468e-18)
(-4.61738e-05 4.9441e-05 1.59409e-18)
(-4.54698e-05 4.94675e-05 4.95855e-19)
(-4.36394e-05 5.56777e-05 2.65611e-18)
(-4.71779e-05 5.04667e-05 2.22626e-18)
(-4.61431e-05 5.02603e-05 5.45094e-19)
(-4.52663e-05 5.72651e-05 2.76559e-18)
(-4.8608e-05 5.19437e-05 2.68104e-18)
(-4.72544e-05 5.1502e-05 8.52816e-19)
(-4.70234e-05 5.89891e-05 2.33344e-18)
(-5.03049e-05 5.36642e-05 2.92957e-18)
(-4.87193e-05 5.30142e-05 1.3454e-18)
(-4.8491e-05 6.0321e-05 2.04241e-18)
(-5.18892e-05 5.51567e-05 2.94369e-18)
(-5.02835e-05 5.44215e-05 1.56099e-18)
(-4.9443e-05 6.10226e-05 1.82696e-18)
(-5.3066e-05 5.61489e-05 2.71483e-18)
(-5.17166e-05 5.5611e-05 1.4421e-18)
(-6.89094e-06 6.07993e-06 -2.67367e-18)
(-8.11411e-06 6.26748e-06 -1.00904e-18)
(-8.59213e-06 6.77401e-06 -1.41779e-18)
(-9.81833e-06 7.54048e-06 -1.5665e-18)
(-1.14798e-05 8.51937e-06 -1.79058e-18)
(-1.34037e-05 9.66856e-06 -9.38091e-19)
(-1.54827e-05 1.09525e-05 3.56101e-19)
(-1.76449e-05 1.23407e-05 9.52116e-19)
(-1.98408e-05 1.38073e-05 9.90881e-19)
(-2.20353e-05 1.53301e-05 4.26504e-19)
(-2.42031e-05 1.68903e-05 1.04366e-18)
(-2.63259e-05 1.84715e-05 2.22215e-18)
(-2.83899e-05 2.00599e-05 1.39048e-18)
(-3.03852e-05 2.16433e-05 -8.00364e-20)
(-3.2304e-05 2.32114e-05 -2.36992e-19)
(-3.41406e-05 2.47548e-05 -2.01072e-19)
(-3.58909e-05 2.62658e-05 2.56173e-19)
(-3.75515e-05 2.77371e-05 7.97531e-19)
(-3.91201e-05 2.91628e-05 1.00608e-18)
(-4.05949e-05 3.05371e-05 9.47454e-19)
(-4.19749e-05 3.18552e-05 1.48961e-18)
(-4.32593e-05 3.31128e-05 2.19244e-18)
(-4.44478e-05 3.43058e-05 2.73328e-18)
(-4.55405e-05 3.54309e-05 2.99552e-18)
(-4.65378e-05 3.64851e-05 2.5593e-18)
(-4.74404e-05 3.74658e-05 9.57149e-19)
(-4.8249e-05 3.83712e-05 -1.07494e-18)
(-4.8964e-05 3.91998e-05 -1.63716e-18)
(-4.95856e-05 3.99504e-05 -8.59643e-19)
(-5.01135e-05 4.0622e-05 -1.69997e-19)
(-5.05466e-05 4.12132e-05 -3.81947e-19)
(-5.08839e-05 4.17217e-05 -1.18048e-18)
(-5.1125e-05 4.2144e-05 -1.59006e-18)
(-5.12711e-05 4.24757e-05 -9.6174e-19)
(-5.14399e-05 4.27979e-05 8.09425e-20)
(-5.18779e-05 4.33392e-05 1.0385e-18)
(-5.27751e-05 4.42391e-05 1.89575e-18)
(-5.41659e-05 4.5475e-05 2.50098e-18)
(-5.59392e-05 4.69794e-05 2.42363e-18)
(-5.77997e-05 4.85649e-05 1.84367e-18)
(-5.91989e-05 4.98566e-05 1.4475e-18)
(-5.98868e-05 5.06652e-05 1.22772e-18)
(-1.5939e-06 1.11882e-05 -1.66041e-18)
(-2.77742e-06 1.14823e-05 -5.29179e-19)
(-2.79264e-06 1.19808e-05 -7.98894e-19)
(-3.63088e-06 1.27825e-05 -6.90413e-19)
(-4.95743e-06 1.38436e-05 -7.69697e-19)
(-6.59037e-06 1.51039e-05 -2.75854e-19)
(-8.42006e-06 1.6511e-05 5.05565e-19)
(-1.03737e-05 1.80224e-05 9.0351e-19)
(-1.24003e-05 1.96042e-05 9.11882e-19)
(-1.44631e-05 2.12294e-05 9.73066e-19)
(-1.65347e-05 2.28762e-05 1.66091e-18)
(-1.85944e-05 2.45269e-05 1.78628e-18)
(-2.06261e-05 2.61671e-05 1.58171e-18)
(-2.26171e-05 2.7785e-05 8.43656e-19)
(-2.45576e-05 2.93708e-05 4.49614e-19)
(-2.64394e-05 3.09161e-05 -1.12067e-21)
(-2.82562e-05 3.2414e-05 2.64608e-20)
(-3.00027e-05 3.38588e-05 3.1421e-19)
(-3.16747e-05 3.52454e-05 6.36644e-19)
(-3.32687e-05 3.65695e-05 8.11146e-19)
(-3.47819e-05 3.78274e-05 1.06329e-18)
(-3.6212e-05 3.90161e-05 1.44624e-18)
(-3.75573e-05 4.01327e-05 1.79563e-18)
(-3.88163e-05 4.11749e-05 2.05278e-18)
(-3.9988e-05 4.2141e-05 1.89489e-18)
(-4.10716e-05 4.30293e-05 1.23759e-18)
(-4.20663e-05 4.38387e-05 3.64359e-19)
(-4.29717e-05 4.45683e-05 -1.57933e-19)
(-4.3787e-05 4.52174e-05 -2.8466e-19)
(-4.45116e-05 4.57855e-05 -2.57072e-19)
(-4.51448e-05 4.62719e-05 -3.30539e-19)
(-4.56861e-05 4.66759e-05 -5.16147e-19)
(-4.61354e-05 4.69969e-05 -4.99041e-19)
(-4.64935e-05 4.72342e-05 -3.66338e-19)
(-4.67688e-05 4.73925e-05 -6.32472e-21)
(-4.71477e-05 4.76502e-05 5.47883e-19)
(-4.79682e-05 4.82826e-05 1.41337e-18)
(-4.93294e-05 4.93379e-05 2.08187e-18)
(-5.10922e-05 5.07083e-05 2.48789e-18)
(-5.29918e-05 5.2209e-05 2.62252e-18)
(-5.4502e-05 5.34742e-05 2.51995e-18)
(-5.53462e-05 5.42909e-05 2.23848e-18)
(-3.57287e-08 1.18925e-05 4.27749e-19)
(-1.02508e-06 1.2751e-05 -1.30155e-18)
(-8.75786e-07 1.3403e-05 -9.35225e-19)
(-1.56891e-06 1.41594e-05 -3.96561e-19)
(-2.82322e-06 1.50951e-05 -4.28158e-19)
(-4.44403e-06 1.62024e-05 -1.43597e-19)
(-6.30396e-06 1.74508e-05 4.42959e-19)
(-8.31677e-06 1.88073e-05 1.14367e-18)
(-1.04224e-05 2.02421e-05 1.45388e-18)
(-1.25777e-05 2.17297e-05 1.58401e-18)
(-1.4751e-05 2.32486e-05 1.37045e-18)
(-1.69184e-05 2.47813e-05 9.86406e-19)
(-1.90616e-05 2.63128e-05 1.20199e-18)
(-2.11663e-05 2.7831e-05 8.34077e-19)
(-2.32213e-05 2.93255e-05 4.73901e-19)
(-2.52179e-05 3.07876e-05 2.28338e-19)
(-2.71487e-05 3.221e-05 1.83735e-19)
(-2.90081e-05 3.35865e-05 3.24365e-19)
(-3.07914e-05 3.49117e-05 5.1495e-19)
(-3.24948e-05 3.61812e-05 6.46175e-19)
(-3.41152e-05 3.73911e-05 7.91331e-19)
(-3.56501e-05 3.85379e-05 1.05174e-18)
(-3.70975e-05 3.96189e-05 1.18875e-18)
(-3.84557e-05 4.06316e-05 1.25332e-18)
(-3.97234e-05 4.1574e-05 1.16099e-18)
(-4.08994e-05 4.24444e-05 9.6267e-19)
(-4.19829e-05 4.32414e-05 7.00116e-19)
(-4.29729e-05 4.39638e-05 4.08027e-19)
(-4.38684e-05 4.46108e-05 2.7386e-19)
(-4.46687e-05 4.51816e-05 1.75868e-19)
(-4.53725e-05 4.56755e-05 1.03401e-19)
(-4.59787e-05 4.60919e-05 -8.2176e-21)
(-4.64855e-05 4.64303e-05 -5.29418e-20)
(-4.68911e-05 4.66902e-05 -2.49654e-19)
(-4.71926e-05 4.68715e-05 -2.16323e-19)
(-4.7547e-05 4.70709e-05 -2.71435e-19)
(-4.8276e-05 4.75382e-05 -2.70492e-19)
(-4.95491e-05 4.84123e-05 -1.94693e-19)
(-5.12802e-05 4.96216e-05 1.83544e-19)
(-5.31875e-05 5.09874e-05 7.30115e-19)
(-5.47359e-05 5.21701e-05 1.08358e-18)
(-5.56342e-05 5.29675e-05 1.07365e-18)
(1.54227e-06 1.22622e-05 1.43866e-18)
(5.50967e-07 1.34855e-05 -1.2113e-18)
(7.10418e-07 1.43656e-05 -9.36332e-19)
(8.87604e-08 1.51866e-05 -4.4467e-19)
(-1.1069e-06 1.60843e-05 -4.31406e-19)
(-2.70332e-06 1.71001e-05 -2.05914e-19)
(-4.57221e-06 1.82326e-05 3.12867e-19)
(-6.62085e-06 1.94642e-05 6.78027e-19)
(-8.78259e-06 2.07732e-05 9.25178e-19)
(-1.1009e-05 2.21381e-05 1.04207e-18)
(-1.32641e-05 2.35398e-05 7.19641e-19)
(-1.5521e-05 2.49617e-05 7.42731e-19)
(-1.77591e-05 2.63893e-05 1.08968e-18)
(-1.99623e-05 2.78107e-05 8.4846e-19)
(-2.21181e-05 2.92152e-05 5.04815e-19)
(-2.42165e-05 3.05943e-05 4.98912e-19)
(-2.62497e-05 3.19403e-05 3.63636e-19)
(-2.82111e-05 3.32469e-05 3.64775e-19)
(-3.00957e-05 3.45085e-05 4.66785e-19)
(-3.18991e-05 3.57205e-05 5.84446e-19)
(-3.3618e-05 3.68788e-05 5.85745e-19)
(-3.52496e-05 3.79799e-05 6.81401e-19)
(-3.67914e-05 3.90208e-05 7.6555e-19)
(-3.82417e-05 3.9999e-05 8.53166e-19)
(-3.95987e-05 4.09123e-05 8.91679e-19)
(-4.08612e-05 4.17588e-05 8.1372e-19)
(-4.20278e-05 4.25369e-05 6.79278e-19)
(-4.30975e-05 4.32454e-05 5.90599e-19)
(-4.40692e-05 4.38829e-05 5.41781e-19)
(-4.49417e-05 4.44486e-05 4.48241e-19)
(-4.57136e-05 4.49413e-05 3.98267e-19)
(-4.63834e-05 4.53602e-05 3.34793e-19)
(-4.69493e-05 4.57043e-05 2.97434e-19)
(-4.74088e-05 4.59724e-05 2.05683e-19)
(-4.7759e-05 4.61632e-05 9.63617e-20)
(-4.81105e-05 4.63377e-05 1.56048e-19)
(-4.87604e-05 4.67104e-05 3.15403e-19)
(-4.99535e-05 4.74536e-05 6.24582e-19)
(-5.16452e-05 4.85273e-05 9.71021e-19)
(-5.35387e-05 4.97612e-05 1.09366e-18)
(-5.50951e-05 5.08397e-05 1.03024e-18)
(-5.60178e-05 5.15753e-05 9.71263e-19)
(3.08642e-06 1.24129e-05 1.07061e-18)
(2.02708e-06 1.38558e-05 -9.93283e-19)
(2.08762e-06 1.49323e-05 -9.56139e-19)
(1.45646e-06 1.58581e-05 -6.5733e-19)
(2.78424e-07 1.67743e-05 -3.85299e-19)
(-1.30616e-06 1.77495e-05 -2.22824e-19)
(-3.18089e-06 1.88062e-05 1.85545e-21)
(-5.25458e-06 1.99433e-05 3.07677e-19)
(-7.45832e-06 2.1149e-05 3.71586e-19)
(-9.74047e-06 2.24082e-05 6.9585e-19)
(-1.20621e-05 2.37052e-05 8.35337e-19)
(-1.43937e-05 2.50255e-05 7.91001e-19)
(-1.67124e-05 2.63559e-05 8.80766e-19)
(-1.90007e-05 2.76851e-05 9.19743e-19)
(-2.12446e-05 2.90029e-05 6.44691e-19)
(-2.34331e-05 3.03008e-05 8.23343e-19)
(-2.55574e-05 3.15713e-05 6.39406e-19)
(-2.76104e-05 3.28079e-05 4.17578e-19)
(-2.95864e-05 3.40052e-05 4.22483e-19)
(-3.14807e-05 3.51584e-05 5.23923e-19)
(-3.32894e-05 3.62632e-05 6.00623e-19)
(-3.50094e-05 3.73162e-05 5.83933e-19)
(-3.6638e-05 3.83142e-05 6.26245e-19)
(-3.81731e-05 3.92546e-05 6.29974e-19)
(-3.96128e-05 4.0135e-05 7.24027e-19)
(-4.09555e-05 4.09534e-05 6.91886e-19)
(-4.21999e-05 4.17082e-05 7.29747e-19)
(-4.33446e-05 4.23977e-05 7.05351e-19)
(-4.43883e-05 4.30207e-05 5.70736e-19)
(-4.53298e-05 4.35757e-05 4.85457e-19)
(-4.61677e-05 4.40617e-05 4.62163e-19)
(-4.69003e-05 4.44773e-05 4.7756e-19)
(-4.7526e-05 4.48212e-05 4.92168e-19)
(-4.80424e-05 4.50917e-05 6.42566e-19)
(-4.84468e-05 4.52871e-05 7.38382e-19)
(-4.88028e-05 4.54394e-05 1.02308e-18)
(-4.93819e-05 4.5737e-05 1.1213e-18)
(-5.05034e-05 4.63804e-05 1.26257e-18)
(-5.21604e-05 4.73496e-05 1.31641e-18)
(-5.40375e-05 4.84742e-05 1.44392e-18)
(-5.55913e-05 4.94565e-05 1.44108e-18)
(-5.65226e-05 5.01224e-05 1.3553e-18)
(4.56905e-06 1.24055e-05 6.01062e-20)
(3.42601e-06 1.39735e-05 -6.10384e-19)
(3.32877e-06 1.51915e-05 -8.82752e-19)
(2.62562e-06 1.62184e-05 -5.25176e-19)
(1.42044e-06 1.71778e-05 -3.03824e-19)
(-1.76824e-07 1.81453e-05 -3.5061e-19)
(-2.06659e-06 1.91578e-05 -3.16713e-19)
(-4.16483e-06 2.02271e-05 1.14542e-19)
(-6.40446e-06 2.13513e-05 3.54992e-19)
(-8.73322e-06 2.25218e-05 4.03921e-19)
(-1.11107e-05 2.37273e-05 8.23715e-19)
(-1.35057e-05 2.49562e-05 1.01842e-18)
(-1.58938e-05 2.61971e-05 8.20566e-19)
(-1.8256e-05 2.74398e-05 7.78582e-19)
(-2.05772e-05 2.8675e-05 5.99045e-19)
(-2.28454e-05 2.98945e-05 6.53604e-19)
(-2.5051e-05 3.10912e-05 6.76603e-19)
(-2.71862e-05 3.22588e-05 5.34787e-19)
(-2.92447e-05 3.33919e-05 4.71072e-19)
(-3.12213e-05 3.44856e-05 4.4102e-19)
(-3.31118e-05 3.55359e-05 5.86865e-19)
(-3.49126e-05 3.65391e-05 6.03565e-19)
(-3.6621e-05 3.74921e-05 6.0081e-19)
(-3.82343e-05 3.83922e-05 6.09258e-19)
(-3.97506e-05 3.92368e-05 6.54236e-19)
(-4.1168e-05 4.0024e-05 4.78553e-19)
(-4.24849e-05 4.07519e-05 5.05413e-19)
(-4.37e-05 4.14188e-05 5.14133e-19)
(-4.48118e-05 4.20232e-05 5.11784e-19)
(-4.58191e-05 4.25637e-05 5.02567e-19)
(-4.67205e-05 4.3039e-05 5.71505e-19)
(-4.75144e-05 4.34476e-05 7.19571e-19)
(-4.81993e-05 4.37882e-05 7.86499e-19)
(-4.87732e-05 4.40593e-05 8.98809e-19)
(-4.92339e-05 4.42589e-05 9.27961e-19)
(-4.95984e-05 4.43946e-05 9.42627e-19)
(-5.0114e-05 4.46189e-05 9.49818e-19)
(-5.11676e-05 4.51657e-05 1.11062e-18)
(-5.2789e-05 4.60474e-05 1.33479e-18)
(-5.46509e-05 4.70841e-05 1.46155e-18)
(-5.6203e-05 4.79879e-05 1.35736e-18)
(-5.71401e-05 4.8593e-05 1.15719e-18)
(5.97514e-06 1.22732e-05 -1.67984e-18)
(4.75018e-06 1.39054e-05 -1.3237e-19)
(4.46899e-06 1.52141e-05 -7.23651e-19)
(3.65381e-06 1.63199e-05 -6.91229e-19)
(2.38456e-06 1.73245e-05 -4.21773e-19)
(7.48341e-07 1.82999e-05 -5.18822e-19)