/*--------------------------------*- C++ -*----------------------------------*\
  =========                 |
  \\      /  F ield         | OpenFOAM: The Open Source CFD Toolbox
   \\    /   O peration     | Website:  https://openfoam.org
    \\  /    A nd           | Version:  7
     \\/     M anipulation  |
\*---------------------------------------------------------------------------*/
FoamFile
{
    version     2.0;
    format      ascii;
    class       volScalarField;
    location    "88000";
    object      nut;
}
// * * * * * * * * * * * * * * * * * * * * * * * * * * * * * * * * * * * * * //

dimensions      [0 2 -1 0 0 0 0];

internalField   nonuniform List<scalar> 
4764
(
1.31581e-05
1.32051e-05
1.32476e-05
1.32855e-05
1.33188e-05
1.33473e-05
1.23182e-05
1.23983e-05
1.24754e-05
1.25495e-05
1.26202e-05
1.26872e-05
1.27503e-05
1.28098e-05
1.28653e-05
1.29164e-05
1.2963e-05
1.30052e-05
1.30429e-05
1.3076e-05
1.31043e-05
1.31279e-05
1.3147e-05
1.31613e-05
1.3171e-05
1.31756e-05
1.31756e-05
1.31709e-05
1.31618e-05
1.31478e-05
1.31289e-05
1.3105e-05
1.30761e-05
1.30427e-05
1.30047e-05
1.20874e-05
1.21663e-05
1.22421e-05
1.2315e-05
1.23845e-05
1.24504e-05
1.25126e-05
1.25712e-05
1.26257e-05
1.26761e-05
1.2722e-05
1.27637e-05
1.2801e-05
1.28337e-05
1.28615e-05
1.28849e-05
1.29039e-05
1.29181e-05
1.29277e-05
1.29324e-05
1.29323e-05
1.29277e-05
1.29187e-05
1.29047e-05
1.2886e-05
1.28624e-05
1.28338e-05
1.28008e-05
1.27633e-05
1.27212e-05
1.2675e-05
1.26246e-05
1.257e-05
1.18585e-05
1.19361e-05
1.20107e-05
1.20824e-05
1.21507e-05
1.22156e-05
1.22769e-05
1.23345e-05
1.23881e-05
1.24376e-05
1.24828e-05
1.25239e-05
1.25606e-05
1.25928e-05
1.26202e-05
1.26434e-05
1.26621e-05
1.2676e-05
1.26855e-05
1.26902e-05
1.26901e-05
1.26857e-05
1.26768e-05
1.26629e-05
1.26445e-05
1.26212e-05
1.25931e-05
1.25606e-05
1.25237e-05
1.24823e-05
1.24368e-05
1.23872e-05
1.23335e-05
1.22761e-05
1.22148e-05
1.21499e-05
1.20816e-05
1.201e-05
1.19354e-05
1.18577e-05
1.17771e-05
1.16937e-05
1.1608e-05
1.15202e-05
1.1423e-05
1.16312e-05
1.17078e-05
1.17812e-05
1.18517e-05
1.19189e-05
1.19828e-05
1.20431e-05
1.20998e-05
1.21525e-05
1.22012e-05
1.22457e-05
1.2286e-05
1.23222e-05
1.23538e-05
1.23808e-05
1.24037e-05
1.2422e-05
1.24357e-05
1.24451e-05
1.24497e-05
1.24497e-05
1.24454e-05
1.24367e-05
1.24229e-05
1.24047e-05
1.23819e-05
1.23542e-05
1.23223e-05
1.2286e-05
1.22454e-05
1.22006e-05
1.21518e-05
1.20989e-05
1.20426e-05
1.19822e-05
1.19184e-05
1.18512e-05
1.17806e-05
1.1707e-05
1.16306e-05
1.15511e-05
1.14688e-05
1.13844e-05
1.12979e-05
1.12023e-05
1.14055e-05
1.1481e-05
1.15533e-05
1.16227e-05
1.16889e-05
1.17518e-05
1.18112e-05
1.1867e-05
1.19188e-05
1.19667e-05
1.20105e-05
1.20503e-05
1.20859e-05
1.21169e-05
1.21435e-05
1.2166e-05
1.21839e-05
1.21974e-05
1.22066e-05
1.22113e-05
1.22114e-05
1.22071e-05
1.21985e-05
1.2185e-05
1.2167e-05
1.21446e-05
1.21174e-05
1.2086e-05
1.20503e-05
1.20104e-05
1.19664e-05
1.19183e-05
1.18663e-05
1.18109e-05
1.17514e-05
1.16887e-05
1.16224e-05
1.15529e-05
1.14804e-05
1.1405e-05
1.13266e-05
1.12455e-05
1.11622e-05
1.10769e-05
1.09828e-05
1.11813e-05
1.12559e-05
1.13271e-05
1.13954e-05
1.14606e-05
1.15226e-05
1.1581e-05
1.1636e-05
1.1687e-05
1.17342e-05
1.17773e-05
1.18164e-05
1.18514e-05
1.1882e-05
1.19082e-05
1.19303e-05
1.19479e-05
1.19612e-05
1.19702e-05
1.19749e-05
1.1975e-05
1.19709e-05
1.19623e-05
1.19491e-05
1.19314e-05
1.19093e-05
1.18825e-05
1.18517e-05
1.18166e-05
1.17773e-05
1.1734e-05
1.16866e-05
1.16355e-05
1.15809e-05
1.15224e-05
1.14606e-05
1.13953e-05
1.13268e-05
1.12552e-05
1.11808e-05
1.11036e-05
1.10236e-05
1.09415e-05
1.08573e-05
1.07647e-05
1.09586e-05
1.10322e-05
1.11024e-05
1.11697e-05
1.1234e-05
1.1295e-05
1.13526e-05
1.14067e-05
1.1457e-05
1.15034e-05
1.15459e-05
1.15844e-05
1.16189e-05
1.1649e-05
1.16748e-05
1.16966e-05
1.17139e-05
1.17269e-05
1.17358e-05
1.17404e-05
1.17406e-05
1.17365e-05
1.1728e-05
1.1715e-05
1.16976e-05
1.16759e-05
1.16496e-05
1.16192e-05
1.15847e-05
1.15461e-05
1.15034e-05
1.14567e-05
1.14064e-05
1.13527e-05
1.1295e-05
1.1234e-05
1.11697e-05
1.11021e-05
1.10315e-05
1.09582e-05
1.0882e-05
1.08031e-05
1.07221e-05
1.0639e-05
1.05478e-05
1.07374e-05
1.08099e-05
1.08791e-05
1.09455e-05
1.10088e-05
1.1069e-05
1.11257e-05
1.11791e-05
1.12286e-05
1.12743e-05
1.13162e-05
1.13542e-05
1.13881e-05
1.14177e-05
1.14432e-05
1.14646e-05
1.14817e-05
1.14945e-05
1.15032e-05
1.15078e-05
1.1508e-05
1.1504e-05
1.14956e-05
1.14828e-05
1.14656e-05
1.14442e-05
1.14184e-05
1.13885e-05
1.13545e-05
1.13164e-05
1.12745e-05
1.12285e-05
1.11789e-05
1.11259e-05
1.10691e-05
1.1009e-05
1.09455e-05
1.08788e-05
1.08092e-05
1.07368e-05
1.06617e-05
1.0584e-05
1.0504e-05
1.0422e-05
1.03322e-05
1.05175e-05
1.05889e-05
1.06573e-05
1.07226e-05
1.07851e-05
1.08444e-05
1.09003e-05
1.09529e-05
1.10017e-05
1.10468e-05
1.10881e-05
1.11255e-05
1.11589e-05
1.11881e-05
1.12132e-05
1.12344e-05
1.12512e-05
1.12638e-05
1.12724e-05
1.12769e-05
1.12772e-05
1.12731e-05
1.12648e-05
1.12522e-05
1.12353e-05
1.12143e-05
1.11889e-05
1.11594e-05
1.1126e-05
1.10884e-05
1.10471e-05
1.10018e-05
1.09529e-05
1.09007e-05
1.08446e-05
1.07853e-05
1.07228e-05
1.0657e-05
1.05883e-05
1.05169e-05
1.04428e-05
1.03661e-05
1.02872e-05
1.02063e-05
1.0118e-05
1.02989e-05
1.03693e-05
1.04368e-05
1.05012e-05
1.05629e-05
1.06213e-05
1.06764e-05
1.07282e-05
1.07764e-05
1.08208e-05
1.08615e-05
1.08984e-05
1.09313e-05
1.09601e-05
1.09849e-05
1.10057e-05
1.10223e-05
1.10348e-05
1.10432e-05
1.10476e-05
1.10479e-05
1.10439e-05
1.10357e-05
1.10232e-05
1.10066e-05
1.09859e-05
1.09609e-05
1.09319e-05
1.08989e-05
1.08619e-05
1.08212e-05
1.07765e-05
1.07284e-05
1.06768e-05
1.06215e-05
1.0563e-05
1.05014e-05
1.04365e-05
1.03688e-05
1.02983e-05
1.02252e-05
1.01496e-05
1.00717e-05
9.99186e-06
9.90491e-06
1.00816e-05
1.01511e-05
1.02176e-05
1.02812e-05
1.03419e-05
1.03996e-05
1.04539e-05
1.05049e-05
1.05524e-05
1.05962e-05
1.06363e-05
1.06727e-05
1.07051e-05
1.07335e-05
1.0758e-05
1.07786e-05
1.07949e-05
1.08072e-05
1.08156e-05
1.08199e-05
1.08201e-05
1.08162e-05
1.08081e-05
1.07957e-05
1.07794e-05
1.0759e-05
1.07344e-05
1.07058e-05
1.06733e-05
1.06369e-05
1.05966e-05
1.05527e-05
1.05052e-05
1.04544e-05
1.03998e-05
1.03421e-05
1.02813e-05
1.02173e-05
1.01505e-05
1.0081e-05
1.00089e-05
9.93427e-06
9.85752e-06
9.7787e-06
9.6931e-06
9.86558e-06
9.93406e-06
9.99974e-06
1.00624e-05
1.01223e-05
1.01792e-05
1.02327e-05
1.0283e-05
1.03298e-05
1.0373e-05
1.04126e-05
1.04484e-05
1.04804e-05
1.05084e-05
1.05325e-05
1.05529e-05
1.0569e-05
1.05812e-05
1.05894e-05
1.05936e-05
1.05938e-05
1.05899e-05
1.05819e-05
1.05697e-05
1.05536e-05
1.05335e-05
1.05094e-05
1.04811e-05
1.04491e-05
1.04132e-05
1.03735e-05
1.03302e-05
1.02834e-05
1.02332e-05
1.01794e-05
1.01225e-05
1.00625e-05
9.99946e-06
9.93355e-06
9.86501e-06
9.79387e-06
9.72025e-06
9.64456e-06
9.56681e-06
9.48253e-06
9.58068e-06
9.65081e-06
9.71834e-06
9.78313e-06
9.84495e-06
9.90402e-06
9.96008e-06
1.00128e-05
1.00624e-05
1.01086e-05
1.01512e-05
1.01901e-05
1.02255e-05
1.0257e-05
1.02846e-05
1.03085e-05
1.03285e-05
1.03444e-05
1.03564e-05
1.03645e-05
1.03687e-05
1.03688e-05
1.0365e-05
1.03571e-05
1.03451e-05
1.03292e-05
1.03094e-05
1.02857e-05
1.02578e-05
1.02262e-05
1.01909e-05
1.01517e-05
1.0109e-05
1.00629e-05
1.00134e-05
9.96033e-06
9.90421e-06
9.84501e-06
9.78284e-06
9.71786e-06
9.65027e-06
9.58009e-06
9.50749e-06
9.43286e-06
9.35617e-06
9.27323e-06
9.36826e-06
9.43729e-06
9.50389e-06
9.56779e-06
9.62875e-06
9.68701e-06
9.74225e-06
9.79426e-06
9.84312e-06
9.88865e-06
9.93071e-06
9.96903e-06
1.00039e-05
1.0035e-05
1.00622e-05
1.00857e-05
1.01055e-05
1.01212e-05
1.01331e-05
1.0141e-05
1.01451e-05
1.01452e-05
1.01414e-05
1.01337e-05
1.01219e-05
1.01062e-05
1.00867e-05
1.00632e-05
1.00358e-05
1.00047e-05
9.96983e-06
9.93119e-06
9.88911e-06
9.84362e-06
9.79483e-06
9.74253e-06
9.68718e-06
9.6288e-06
9.5675e-06
9.50344e-06
9.43681e-06
9.36757e-06
9.29602e-06
9.22242e-06
9.1468e-06
9.06519e-06
9.15707e-06
9.22504e-06
9.29071e-06
9.35374e-06
9.41383e-06
9.47128e-06
9.52571e-06
9.57699e-06
9.62512e-06
9.67002e-06
9.7115e-06
9.74925e-06
9.78366e-06
9.81432e-06
9.84114e-06
9.86434e-06
9.88381e-06
9.89932e-06
9.911e-06
9.91885e-06
9.92285e-06
9.92297e-06
9.91917e-06
9.91158e-06
9.89991e-06
9.88444e-06
9.86525e-06
9.84214e-06
9.81509e-06
9.78445e-06
9.75008e-06
9.71196e-06
9.6705e-06
9.62567e-06
9.57756e-06
9.52601e-06
9.47142e-06
9.41386e-06
9.35343e-06
9.2903e-06
9.22463e-06
9.15634e-06
9.08582e-06
9.01327e-06
8.9387e-06
8.85844e-06
8.87745e-06
8.94712e-06
9.01408e-06
9.07882e-06
9.14095e-06
9.20018e-06
9.25685e-06
9.31044e-06
9.361e-06
9.40842e-06
9.45268e-06
9.49359e-06
9.53077e-06
9.56469e-06
9.59491e-06
9.62135e-06
9.64427e-06
9.66346e-06
9.67871e-06
9.69025e-06
9.69799e-06
9.70188e-06
9.70201e-06
9.69825e-06
9.69077e-06
9.67929e-06
9.664e-06
9.64511e-06
9.62234e-06
9.5957e-06
9.56548e-06
9.53162e-06
9.49402e-06
9.45315e-06
9.40898e-06
9.36158e-06
9.31077e-06
9.25692e-06
9.20022e-06
9.14064e-06
9.07847e-06
9.01374e-06
8.9464e-06
8.87692e-06
8.80539e-06
8.7319e-06
8.65297e-06
8.66991e-06
8.73845e-06
8.80443e-06
8.86821e-06
8.92944e-06
8.98782e-06
9.0437e-06
9.09647e-06
9.14628e-06
9.19303e-06
9.23665e-06
9.27696e-06
9.31359e-06
9.34701e-06
9.37679e-06
9.40287e-06
9.42552e-06
9.4444e-06
9.4594e-06
9.4708e-06
9.47842e-06
9.48223e-06
9.48237e-06
9.47865e-06
9.47128e-06
9.45998e-06
9.44488e-06
9.42627e-06
9.40384e-06
9.37761e-06
9.34781e-06
9.31447e-06
9.27737e-06
9.23709e-06
9.19357e-06
9.14687e-06
9.09681e-06
9.04373e-06
8.98788e-06
8.92916e-06
8.86794e-06
8.80414e-06
8.73777e-06
8.66933e-06
8.59881e-06
8.52642e-06
8.44879e-06
8.39387e-06
8.46366e-06
8.53107e-06
8.59608e-06
8.65891e-06
8.71923e-06
8.77676e-06
8.83183e-06
8.88379e-06
8.93287e-06
8.97894e-06
9.02193e-06
9.06161e-06
9.09771e-06
9.13064e-06
9.15998e-06
9.1857e-06
9.20806e-06
9.22665e-06
9.24141e-06
9.25266e-06
9.26016e-06
9.26391e-06
9.26402e-06
9.26037e-06
9.25306e-06
9.24198e-06
9.22706e-06
9.20874e-06
9.18662e-06
9.16081e-06
9.13142e-06
9.0986e-06
9.06204e-06
9.02234e-06
8.97947e-06
8.93345e-06
8.88416e-06
8.83184e-06
8.77682e-06
8.71896e-06
8.6587e-06
8.59586e-06
8.53043e-06
8.46304e-06
8.39355e-06
8.32229e-06
8.24594e-06
8.19008e-06
8.25874e-06
8.32504e-06
8.38905e-06
8.45093e-06
8.51034e-06
8.56703e-06
8.62125e-06
8.67242e-06
8.72075e-06
8.76616e-06
8.80851e-06
8.84755e-06
8.88314e-06
8.91557e-06
8.94448e-06
8.96985e-06
8.99191e-06
9.01019e-06
9.02474e-06
9.03584e-06
9.04322e-06
9.0469e-06
9.04696e-06
9.0434e-06
9.03614e-06
9.02528e-06
9.01056e-06
8.99251e-06
8.97073e-06
8.94533e-06
8.91634e-06
8.88404e-06
8.84804e-06
8.80891e-06
8.76668e-06
8.72135e-06
8.6728e-06
8.62127e-06
8.56707e-06
8.51008e-06
8.45075e-06
8.3889e-06
8.32443e-06
8.25807e-06
8.18965e-06
8.11951e-06
8.04445e-06
7.98761e-06
8.05516e-06
8.12038e-06
8.18337e-06
8.2443e-06
8.30279e-06
8.35861e-06
8.41199e-06
8.46239e-06
8.50997e-06
8.5547e-06
8.5964e-06
8.63479e-06
8.66989e-06
8.70183e-06
8.7303e-06
8.75532e-06
8.77706e-06
8.79502e-06
8.80939e-06
8.82032e-06
8.8276e-06
8.83123e-06
8.83123e-06
8.82773e-06
8.82054e-06
8.80987e-06
8.79539e-06
8.77761e-06
8.75616e-06
8.73114e-06
8.70259e-06
8.67078e-06
8.63537e-06
8.59682e-06
8.55521e-06
8.51056e-06
8.46276e-06
8.41202e-06
8.35863e-06
8.30252e-06
8.24413e-06
8.18328e-06
8.1198e-06
8.05447e-06
7.98712e-06
7.9181e-06
7.84435e-06
7.78649e-06
7.85294e-06
7.9171e-06
7.97907e-06
8.03904e-06
8.0966e-06
8.15156e-06
8.2041e-06
8.25371e-06
8.30055e-06
8.34459e-06
8.38561e-06
8.42338e-06
8.45798e-06
8.48944e-06
8.51746e-06
8.54214e-06
8.56352e-06
8.58119e-06
8.59538e-06
8.60613e-06
8.6133e-06
8.6169e-06
8.61684e-06
8.61338e-06
8.60628e-06
8.59578e-06
8.58156e-06
8.56403e-06
8.54291e-06
8.51828e-06
8.49017e-06
8.45885e-06
8.42404e-06
8.38605e-06
8.34508e-06
8.3011e-06
8.25407e-06
8.2041e-06
8.15156e-06
8.09632e-06
8.03887e-06
7.97901e-06
7.91654e-06
7.85225e-06
7.786e-06
7.71807e-06
7.64563e-06
7.58678e-06
7.65211e-06
7.71523e-06
7.77619e-06
7.83518e-06
7.89181e-06
7.9459e-06
7.99757e-06
8.0464e-06
8.09252e-06
8.13582e-06
8.17617e-06
8.21335e-06
8.24745e-06
8.27841e-06
8.30599e-06
8.33031e-06
8.35132e-06
8.36871e-06
8.38272e-06
8.39328e-06
8.40035e-06
8.40391e-06
8.40382e-06
8.40038e-06
8.39338e-06
8.38305e-06
8.3691e-06
8.35181e-06
8.331e-06
8.30677e-06
8.27912e-06
8.24827e-06
8.21406e-06
8.17665e-06
8.13632e-06
8.09299e-06
8.04675e-06
7.99757e-06
7.94587e-06
7.89153e-06
7.83499e-06
7.77613e-06
7.7147e-06
7.65144e-06
7.5863e-06
7.51944e-06
7.44833e-06
7.32245e-06
7.3885e-06
7.45271e-06
7.51479e-06
7.57473e-06
7.63273e-06
7.68843e-06
7.74165e-06
7.79242e-06
7.8405e-06
7.88588e-06
7.92844e-06
7.96812e-06
8.00471e-06
8.0383e-06
8.06878e-06
8.09591e-06
8.11984e-06
8.14049e-06
8.15758e-06
8.17142e-06
8.18179e-06
8.18878e-06
8.19228e-06
8.19217e-06
8.18876e-06
8.18187e-06
8.1717e-06
8.15801e-06
8.14096e-06
8.12047e-06
8.09664e-06
8.06944e-06
8.03905e-06
8.00546e-06
7.96863e-06
7.92896e-06
7.88626e-06
7.84082e-06
7.79245e-06
7.74158e-06
7.68815e-06
7.63253e-06
7.57466e-06
7.51429e-06
7.45209e-06
7.38803e-06
7.32227e-06
7.25249e-06
7.05796e-06
7.12684e-06
7.19167e-06
7.25476e-06
7.3158e-06
7.37472e-06
7.43171e-06
7.48648e-06
7.53882e-06
7.5887e-06
7.63601e-06
7.68064e-06
7.72247e-06
7.76147e-06
7.79749e-06
7.83056e-06
7.86055e-06
7.88722e-06
7.91076e-06
7.93105e-06
7.94785e-06
7.96151e-06
7.97171e-06
7.97859e-06
7.98203e-06
7.98192e-06
7.97854e-06
7.97176e-06
7.96174e-06
7.94833e-06
7.93152e-06
7.91136e-06
7.88791e-06
7.86117e-06
7.83125e-06
7.79826e-06
7.76202e-06
7.723e-06
7.68095e-06
7.63631e-06
7.58877e-06
7.53873e-06
7.48621e-06
7.43151e-06
7.37463e-06
7.31534e-06
7.2542e-06
7.19124e-06
7.12659e-06
7.05811e-06
6.86515e-06
6.93271e-06
6.99634e-06
7.0583e-06
7.11828e-06
7.1762e-06
7.23217e-06
7.286e-06
7.33743e-06
7.38643e-06
7.43297e-06
7.47683e-06
7.51794e-06
7.55628e-06
7.59169e-06
7.62425e-06
7.65374e-06
7.67996e-06
7.70309e-06
7.72304e-06
7.73954e-06
7.75299e-06
7.76302e-06
7.76981e-06
7.77317e-06
7.7731e-06
7.76973e-06
7.76307e-06
7.75322e-06
7.74005e-06
7.72352e-06
7.70368e-06
7.68061e-06
7.65433e-06
7.62486e-06
7.59249e-06
7.55685e-06
7.51847e-06
7.4771e-06
7.43325e-06
7.38654e-06
7.33735e-06
7.28575e-06
7.23198e-06
7.17606e-06
7.11788e-06
7.05779e-06
6.99593e-06
6.93241e-06
6.86524e-06
6.67386e-06
6.74009e-06
6.80255e-06
6.86337e-06
6.92228e-06
6.97916e-06
7.03411e-06
7.08701e-06
7.13754e-06
7.18566e-06
7.2314e-06
7.27447e-06
7.31487e-06
7.35256e-06
7.38736e-06
7.4194e-06
7.44838e-06
7.47416e-06
7.49686e-06
7.51646e-06
7.53269e-06
7.54591e-06
7.55579e-06
7.56246e-06
7.56576e-06
7.56572e-06
7.56237e-06
7.55584e-06
7.54614e-06
7.53323e-06
7.51698e-06
7.49745e-06
7.47477e-06
7.44895e-06
7.41995e-06
7.38817e-06
7.35316e-06
7.31541e-06
7.27473e-06
7.23166e-06
7.18579e-06
7.13744e-06
7.08676e-06
7.03396e-06
6.97901e-06
6.92191e-06
6.8629e-06
6.80214e-06
6.73978e-06
6.6739e-06
6.48411e-06
6.54902e-06
6.61032e-06
6.66998e-06
6.72782e-06
6.78367e-06
6.83759e-06
6.88952e-06
6.93915e-06
6.98641e-06
7.03132e-06
7.07363e-06
7.1133e-06
7.15034e-06
7.18452e-06
7.21603e-06
7.24451e-06
7.26984e-06
7.2921e-06
7.31134e-06
7.32732e-06
7.34031e-06
7.35004e-06
7.35657e-06
7.3598e-06
7.35981e-06
7.35648e-06
7.35009e-06
7.34055e-06
7.32789e-06
7.31192e-06
7.2927e-06
7.27042e-06
7.24505e-06
7.21653e-06
7.18533e-06
7.15095e-06
7.11385e-06
7.07388e-06
7.03156e-06
6.98653e-06
6.93903e-06
6.8893e-06
6.83745e-06
6.78349e-06
6.72747e-06
6.66957e-06
6.60991e-06
6.54869e-06
6.48411e-06
6.29595e-06
6.35954e-06
6.41966e-06
6.47817e-06
6.53493e-06
6.58974e-06
6.64263e-06
6.69358e-06
6.74232e-06
6.78872e-06
6.83279e-06
6.87433e-06
6.91325e-06
6.94964e-06
6.98321e-06
7.01417e-06
7.04215e-06
7.06702e-06
7.08886e-06
7.10775e-06
7.12346e-06
7.13623e-06
7.1458e-06
7.15218e-06
7.15535e-06
7.15539e-06
7.1521e-06
7.14583e-06
7.13646e-06
7.12403e-06
7.10835e-06
7.08948e-06
7.06759e-06
7.04265e-06
7.01464e-06
6.98401e-06
6.95026e-06
6.91382e-06
6.87456e-06
6.83299e-06
6.7888e-06
6.74218e-06
6.69338e-06
6.64251e-06
6.58953e-06
6.53459e-06
6.47782e-06
6.41926e-06
6.3592e-06
6.29592e-06
6.1094e-06
6.17166e-06
6.23063e-06
6.28797e-06
6.34365e-06
6.39741e-06
6.44927e-06
6.49924e-06
6.54707e-06
6.59258e-06
6.63583e-06
6.6766e-06
6.71477e-06
6.75051e-06
6.78347e-06
6.81386e-06
6.84134e-06
6.86576e-06
6.88716e-06
6.9057e-06
6.92114e-06
6.93369e-06
6.94309e-06
6.94932e-06
6.95244e-06
6.95249e-06
6.94926e-06
6.9431e-06
6.93389e-06
6.92169e-06
6.9063e-06
6.8878e-06
6.8663e-06
6.84179e-06
6.8143e-06
6.78424e-06
6.75112e-06
6.71533e-06
6.67682e-06
6.63601e-06
6.59265e-06
6.5469e-06
6.49904e-06
6.44916e-06
6.39716e-06
6.34332e-06
6.28767e-06
6.23022e-06
6.17132e-06
6.10935e-06
5.92451e-06
5.98543e-06
6.04323e-06
6.09941e-06
6.154e-06
6.20671e-06
6.25753e-06
6.30653e-06
6.35342e-06
6.39806e-06
6.44047e-06
6.48046e-06
6.51788e-06
6.55295e-06
6.58531e-06
6.61513e-06
6.64209e-06
6.66608e-06
6.68704e-06
6.70523e-06
6.7204e-06
6.73272e-06
6.74194e-06
6.74803e-06
6.7511e-06
6.75114e-06
6.74798e-06
6.74193e-06
6.73289e-06
6.7209e-06
6.70581e-06
6.6877e-06
6.66656e-06
6.64251e-06
6.61556e-06
6.58606e-06
6.55357e-06
6.51844e-06
6.48068e-06
6.44064e-06
6.39811e-06
6.35324e-06
6.30632e-06
6.25742e-06
6.20643e-06
6.15367e-06
6.09915e-06
6.04283e-06
5.9851e-06
5.92445e-06
5.74131e-06
5.80089e-06
5.8575e-06
5.91254e-06
5.96601e-06
6.01767e-06
6.06744e-06
6.11546e-06
6.16142e-06
6.20516e-06
6.24674e-06
6.28594e-06
6.32263e-06
6.35703e-06
6.38877e-06
6.41802e-06
6.44445e-06
6.46799e-06
6.48853e-06
6.50635e-06
6.52126e-06
6.53334e-06
6.54237e-06
6.54834e-06
6.55135e-06
6.55139e-06
6.54831e-06
6.54236e-06
6.53349e-06
6.5217e-06
6.50692e-06
6.48919e-06
6.46844e-06
6.44483e-06
6.41843e-06
6.38949e-06
6.35762e-06
6.32317e-06
6.28618e-06
6.2469e-06
6.20521e-06
6.16122e-06
6.11526e-06
6.06734e-06
6.01735e-06
5.96568e-06
5.9123e-06
5.85713e-06
5.80058e-06
5.74123e-06
5.55983e-06
5.61808e-06
5.67349e-06
5.72737e-06
5.77972e-06
5.83032e-06
5.87906e-06
5.92607e-06
5.97109e-06
6.01393e-06
6.05467e-06
6.0931e-06
6.12905e-06
6.16276e-06
6.19389e-06
6.22256e-06
6.24846e-06
6.27154e-06
6.29167e-06
6.30912e-06
6.32376e-06
6.33558e-06
6.34443e-06
6.35028e-06
6.35323e-06
6.35328e-06
6.35028e-06
6.34441e-06
6.33572e-06
6.32413e-06
6.30967e-06
6.2923e-06
6.27197e-06
6.2488e-06
6.22296e-06
6.19457e-06
6.16333e-06
6.12956e-06
6.09333e-06
6.05484e-06
6.014e-06
5.9709e-06
5.92588e-06
5.87893e-06
5.82998e-06
5.77939e-06
5.72715e-06
5.67315e-06
5.61778e-06
5.55975e-06
5.3801e-06
5.43702e-06
5.49122e-06
5.54396e-06
5.59516e-06
5.6447e-06
5.69241e-06
5.7384e-06
5.78247e-06
5.82441e-06
5.86431e-06
5.90195e-06
5.93717e-06
5.97019e-06
6.00068e-06
6.0288e-06
6.05414e-06
6.07675e-06
6.0965e-06
6.11358e-06
6.12794e-06
6.13948e-06
6.14815e-06
6.15389e-06
6.15679e-06
6.15683e-06
6.15391e-06
6.14814e-06
6.13962e-06
6.12825e-06
6.11409e-06
6.09708e-06
6.07717e-06
6.05446e-06
6.02916e-06
6.00135e-06
5.97074e-06
5.93763e-06
5.90216e-06
5.86449e-06
5.8245e-06
5.78229e-06
5.73822e-06
5.69224e-06
5.64436e-06
5.59484e-06
5.54375e-06
5.49092e-06
5.43673e-06
5.38003e-06
5.20216e-06
5.25777e-06
5.31076e-06
5.36232e-06
5.41236e-06
5.46083e-06
5.50753e-06
5.5525e-06
5.59562e-06
5.63666e-06
5.67569e-06
5.71255e-06
5.74702e-06
5.77936e-06
5.80921e-06
5.83675e-06
5.86155e-06
5.88369e-06
5.90304e-06
5.91974e-06
5.93381e-06
5.94509e-06
5.95358e-06
5.95922e-06
5.96205e-06
5.96208e-06
5.95924e-06
5.95358e-06
5.94523e-06
5.93409e-06
5.92021e-06
5.90355e-06
5.88407e-06
5.86186e-06
5.83709e-06
5.80985e-06
5.77987e-06
5.74745e-06
5.71274e-06
5.67588e-06
5.63673e-06
5.59544e-06
5.55232e-06
5.50731e-06
5.46051e-06
5.41208e-06
5.36213e-06
5.31048e-06
5.25748e-06
5.20211e-06
5.02606e-06
5.08035e-06
5.13211e-06
5.18251e-06
5.23139e-06
5.27878e-06
5.32444e-06
5.3684e-06
5.41057e-06
5.4507e-06
5.48887e-06
5.52493e-06
5.55866e-06
5.5903e-06
5.61951e-06
5.64645e-06
5.6707e-06
5.69239e-06
5.71133e-06
5.72765e-06
5.74142e-06
5.75243e-06
5.76076e-06
5.7663e-06
5.76906e-06
5.76909e-06
5.7663e-06
5.76077e-06
5.75259e-06
5.74166e-06
5.72808e-06
5.71177e-06
5.69272e-06
5.67102e-06
5.64677e-06
5.62012e-06
5.59079e-06
5.55906e-06
5.52509e-06
5.48906e-06
5.45075e-06
5.41038e-06
5.36822e-06
5.3242e-06
5.27848e-06
5.23114e-06
5.18233e-06
5.13187e-06
5.08006e-06
5.02601e-06
4.85182e-06
4.9048e-06
4.95534e-06
5.00454e-06
5.05227e-06
5.09857e-06
5.14321e-06
5.18613e-06
5.22736e-06
5.26658e-06
5.30387e-06
5.33913e-06
5.37211e-06
5.40305e-06
5.43162e-06
5.45795e-06
5.48166e-06
5.50287e-06
5.52141e-06
5.53735e-06
5.55083e-06
5.56157e-06
5.56972e-06
5.57517e-06
5.57786e-06
5.5779e-06
5.57516e-06
5.56975e-06
5.56174e-06
5.55103e-06
5.53774e-06
5.52177e-06
5.50316e-06
5.48198e-06
5.45825e-06
5.4322e-06
5.40352e-06
5.37249e-06
5.33927e-06
5.30405e-06
5.26661e-06
5.22716e-06
5.18597e-06
5.14293e-06
5.0983e-06
5.05207e-06
5.0044e-06
4.95513e-06
4.90452e-06
4.85177e-06
4.6795e-06
4.73116e-06
4.78048e-06
4.82848e-06
4.87506e-06
4.92026e-06
4.96385e-06
5.00576e-06
5.04603e-06
5.08432e-06
5.12074e-06
5.15519e-06
5.18742e-06
5.21764e-06
5.24557e-06
5.27128e-06
5.29447e-06
5.31519e-06
5.33331e-06
5.34889e-06
5.36207e-06
5.37255e-06
5.38052e-06
5.38585e-06
5.38849e-06
5.38853e-06
5.38584e-06
5.38057e-06
5.37273e-06
5.36223e-06
5.34923e-06
5.33362e-06
5.31545e-06
5.29476e-06
5.27159e-06
5.24612e-06
5.21811e-06
5.18778e-06
5.15531e-06
5.12091e-06
5.08434e-06
5.04582e-06
5.00559e-06
4.96356e-06
4.92001e-06
4.87489e-06
4.82836e-06
4.78031e-06
4.7309e-06
4.67946e-06
4.50914e-06
4.55946e-06
4.60756e-06
4.65436e-06
4.69979e-06
4.74387e-06
4.78642e-06
4.82731e-06
4.8666e-06
4.90398e-06
4.93952e-06
4.97315e-06
5.00462e-06
5.03413e-06
5.06142e-06
5.08649e-06
5.10915e-06
5.12937e-06
5.14708e-06
5.16232e-06
5.17518e-06
5.1854e-06
5.19319e-06
5.1984e-06
5.201e-06
5.20104e-06
5.1984e-06
5.19325e-06
5.18559e-06
5.17531e-06
5.16259e-06
5.14735e-06
5.12963e-06
5.10944e-06
5.08681e-06
5.06193e-06
5.0346e-06
5.00497e-06
4.97327e-06
4.93968e-06
4.904e-06
4.86641e-06
4.82713e-06
4.78613e-06
4.74364e-06
4.69966e-06
4.65427e-06
4.60742e-06
4.55923e-06
4.5091e-06
4.34078e-06
4.38976e-06
4.43663e-06
4.48223e-06
4.52651e-06
4.56947e-06
4.61095e-06
4.65084e-06
4.68914e-06
4.7256e-06
4.76025e-06
4.79306e-06
4.82377e-06
4.85256e-06
4.8792e-06
4.90364e-06
4.92577e-06
4.94548e-06
4.96276e-06
4.97767e-06
4.9902e-06
5.00019e-06
5.0078e-06
5.01285e-06
5.01542e-06
5.01545e-06
5.01287e-06
5.00784e-06
5.00037e-06
4.99031e-06
4.97788e-06
4.96302e-06
4.94574e-06
4.92604e-06
4.90397e-06
4.87967e-06
4.85302e-06
4.82411e-06
4.79318e-06
4.76039e-06
4.72561e-06
4.68895e-06
4.65062e-06
4.61067e-06
4.56925e-06
4.52639e-06
4.48215e-06
4.43653e-06
4.38956e-06
4.34075e-06
4.17446e-06
4.2221e-06
4.26774e-06
4.31213e-06
4.35525e-06
4.39708e-06
4.43751e-06
4.47638e-06
4.51368e-06
4.54922e-06
4.58298e-06
4.61496e-06
4.64492e-06
4.67298e-06
4.69896e-06
4.72279e-06
4.74436e-06
4.76357e-06
4.78043e-06
4.795e-06
4.80719e-06
4.81695e-06
4.82437e-06
4.82927e-06
4.83181e-06
4.83183e-06
4.82931e-06
4.82439e-06
4.81713e-06
4.80728e-06
4.79515e-06
4.78066e-06
4.76382e-06
4.74462e-06
4.72311e-06
4.6994e-06
4.67343e-06
4.64526e-06
4.6151e-06
4.58312e-06
4.54922e-06
4.51349e-06
4.47614e-06
4.43724e-06
4.39689e-06
4.35515e-06
4.31207e-06
4.26766e-06
4.22193e-06
4.17445e-06
4.01024e-06
4.05653e-06
4.10093e-06
4.14411e-06
4.18606e-06
4.22677e-06
4.26613e-06
4.30399e-06
4.3403e-06
4.37489e-06
4.40775e-06
4.43891e-06
4.46811e-06
4.49544e-06
4.52075e-06
4.54397e-06
4.56498e-06
4.58369e-06
4.60012e-06
4.61434e-06
4.6262e-06
4.63572e-06
4.64296e-06
4.64772e-06
4.65021e-06
4.65023e-06
4.64777e-06
4.64297e-06
4.63591e-06
4.62628e-06
4.61444e-06
4.60033e-06
4.58393e-06
4.56523e-06
4.54427e-06
4.52116e-06
4.49588e-06
4.46844e-06
4.43905e-06
4.4079e-06
4.37488e-06
4.34009e-06
4.30372e-06
4.26588e-06
4.2266e-06
4.18597e-06
4.14406e-06
4.10088e-06
4.0564e-06
4.01023e-06
3.84815e-06
3.89311e-06
3.93625e-06
3.97821e-06
4.019e-06
4.05859e-06
4.09687e-06
4.13371e-06
4.16903e-06
4.20266e-06
4.23462e-06
4.26496e-06
4.2934e-06
4.31998e-06
4.34462e-06
4.36725e-06
4.38767e-06
4.40589e-06
4.42189e-06
4.43574e-06
4.44726e-06
4.45656e-06
4.4636e-06
4.46823e-06
4.47068e-06
4.4707e-06
4.46829e-06
4.46362e-06
4.45675e-06
4.44736e-06
4.43581e-06
4.42208e-06
4.40611e-06
4.38791e-06
4.36751e-06
4.345e-06
4.32042e-06
4.29371e-06
4.2651e-06
4.23477e-06
4.20265e-06
4.16881e-06
4.13342e-06
4.09663e-06
4.05845e-06
4.01892e-06
3.97818e-06
3.93622e-06
3.89299e-06
3.84816e-06
3.68825e-06
3.73187e-06
3.77376e-06
3.81449e-06
3.85411e-06
3.89258e-06
3.92979e-06
3.96559e-06
3.99992e-06
4.03259e-06
4.06365e-06
4.09315e-06
4.12083e-06
4.14667e-06
4.17063e-06
4.19265e-06
4.21249e-06
4.23022e-06
4.2458e-06
4.25928e-06
4.27045e-06
4.27952e-06
4.28637e-06
4.29087e-06
4.29325e-06
4.29328e-06
4.29094e-06
4.28639e-06
4.27971e-06
4.27056e-06
4.2593e-06
4.24595e-06
4.23042e-06
4.21273e-06
4.19289e-06
4.171e-06
4.14709e-06
4.12112e-06
4.09329e-06
4.06379e-06
4.03256e-06
3.99968e-06
3.96529e-06
3.92955e-06
3.89246e-06
3.85405e-06
3.81448e-06
3.77374e-06
3.73177e-06
3.68826e-06
3.53059e-06
3.57287e-06
3.61351e-06
3.65302e-06
3.69146e-06
3.72881e-06
3.76493e-06
3.79969e-06
3.83302e-06
3.86473e-06
3.8949e-06
3.92355e-06
3.95047e-06
3.97554e-06
3.99882e-06
4.02023e-06
4.0395e-06
4.05674e-06
4.07189e-06
4.08499e-06
4.09583e-06
4.10466e-06
4.11132e-06
4.11569e-06
4.118e-06
4.11803e-06
4.11576e-06
4.11135e-06
4.10485e-06
4.09593e-06
4.08499e-06
4.072e-06
4.05692e-06
4.03973e-06
4.02046e-06
3.99918e-06
3.97596e-06
3.95072e-06
3.9237e-06
3.89502e-06
3.86469e-06
3.83277e-06
3.79938e-06
3.7647e-06
3.72869e-06
3.69141e-06
3.65302e-06
3.61349e-06
3.5728e-06
3.5306e-06
3.37522e-06
3.41617e-06
3.45555e-06
3.49384e-06
3.53109e-06
3.56733e-06
3.60235e-06
3.63607e-06
3.66839e-06
3.69915e-06
3.72841e-06
3.7562e-06
3.78236e-06
3.80666e-06
3.82926e-06
3.85006e-06
3.86876e-06
3.88551e-06
3.90022e-06
3.91294e-06
3.92345e-06
3.93204e-06
3.9385e-06
3.94275e-06
3.94498e-06
3.94501e-06
3.94282e-06
3.93853e-06
3.93221e-06
3.92355e-06
3.91292e-06
3.90029e-06
3.88566e-06
3.86898e-06
3.85028e-06
3.82962e-06
3.80709e-06
3.78259e-06
3.75636e-06
3.72852e-06
3.69909e-06
3.66814e-06
3.63576e-06
3.60212e-06
3.56721e-06
3.53107e-06
3.49385e-06
3.45554e-06
3.41611e-06
3.37524e-06
3.22221e-06
3.26183e-06
3.29994e-06
3.33701e-06
3.37308e-06
3.40818e-06
3.44211e-06
3.47478e-06
3.50609e-06
3.53588e-06
3.56426e-06
3.59119e-06
3.61656e-06
3.6401e-06
3.66202e-06
3.68219e-06
3.70033e-06
3.71659e-06
3.73085e-06
3.74319e-06
3.75337e-06
3.76171e-06
3.76797e-06
3.7721e-06
3.77425e-06
3.77427e-06
3.77218e-06
3.76801e-06
3.76186e-06
3.75347e-06
3.74315e-06
3.73089e-06
3.71669e-06
3.70054e-06
3.68241e-06
3.66237e-06
3.64053e-06
3.61676e-06
3.59135e-06
3.56434e-06
3.53583e-06
3.50585e-06
3.47447e-06
3.44188e-06
3.40806e-06
3.37306e-06
3.33702e-06
3.29994e-06
3.26179e-06
3.22223e-06
3.07162e-06
3.1099e-06
3.14674e-06
3.1826e-06
3.21748e-06
3.25144e-06
3.28426e-06
3.31588e-06
3.34618e-06
3.37502e-06
3.40248e-06
3.42857e-06
3.45314e-06
3.47592e-06
3.49715e-06
3.5167e-06
3.53427e-06
3.55004e-06
3.56385e-06
3.57581e-06
3.58566e-06
3.59374e-06
3.5998e-06
3.60381e-06
3.60589e-06
3.6059e-06
3.60389e-06
3.59986e-06
3.59388e-06
3.58576e-06
3.57576e-06
3.56387e-06
3.55011e-06
3.53446e-06
3.51691e-06
3.49749e-06
3.47635e-06
3.45332e-06
3.42873e-06
3.40256e-06
3.37496e-06
3.34595e-06
3.31559e-06
3.28405e-06
3.25131e-06
3.21745e-06
3.1826e-06
3.14675e-06
3.10988e-06
3.07165e-06
2.92351e-06
2.96044e-06
2.99602e-06
3.03066e-06
3.06435e-06
3.09717e-06
3.12889e-06
3.15945e-06
3.18873e-06
3.2166e-06
3.24317e-06
3.2684e-06
3.29216e-06
3.31419e-06
3.33473e-06
3.35365e-06
3.37064e-06
3.38592e-06
3.39928e-06
3.41085e-06
3.42038e-06
3.42821e-06
3.43406e-06
3.43795e-06
3.43995e-06
3.43995e-06
3.43803e-06
3.43413e-06
3.42833e-06
3.42048e-06
3.4108e-06
3.39929e-06
3.38597e-06
3.37084e-06
3.35386e-06
3.33506e-06
3.31461e-06
3.29233e-06
3.26855e-06
3.24324e-06
3.21656e-06
3.18851e-06
3.15917e-06
3.12869e-06
3.09703e-06
3.06432e-06
3.03065e-06
2.99604e-06
2.96044e-06
2.92354e-06
2.77795e-06
2.81354e-06
2.84784e-06
2.88126e-06
2.91377e-06
2.94543e-06
2.97605e-06
3.00554e-06
3.03381e-06
3.06071e-06
3.08638e-06
3.11075e-06
3.1337e-06
3.15499e-06
3.17482e-06
3.19311e-06
3.20953e-06
3.2243e-06
3.23722e-06
3.24841e-06
3.25761e-06
3.26517e-06
3.27082e-06
3.27458e-06
3.27651e-06
3.27651e-06
3.27466e-06
3.27091e-06
3.26527e-06
3.2577e-06
3.24835e-06
3.23722e-06
3.22434e-06
3.20971e-06
3.19331e-06
3.17513e-06
3.15538e-06
3.13386e-06
3.11089e-06
3.08644e-06
3.06069e-06
3.0336e-06
3.00528e-06
2.97585e-06
2.94528e-06
2.91373e-06
2.88124e-06
2.84786e-06
2.81355e-06
2.77798e-06
2.635e-06
2.66925e-06
2.70228e-06
2.73448e-06
2.76579e-06
2.7963e-06
2.82581e-06
2.85424e-06
2.88149e-06
2.90742e-06
2.9322e-06
2.9557e-06
2.97783e-06
2.99838e-06
3.0175e-06
3.03515e-06
3.051e-06
3.06527e-06
3.07773e-06
3.08854e-06
3.09742e-06
3.1047e-06
3.11016e-06
3.11379e-06
3.11565e-06
3.11566e-06
3.11387e-06
3.11026e-06
3.1048e-06
3.0975e-06
3.08847e-06
3.07773e-06
3.06529e-06
3.05118e-06
3.03535e-06
3.01779e-06
2.99874e-06
2.978e-06
2.95582e-06
2.93224e-06
2.90743e-06
2.8813e-06
2.854e-06
2.82562e-06
2.79616e-06
2.76575e-06
2.73445e-06
2.7023e-06
2.66926e-06
2.63503e-06
2.49473e-06
2.52765e-06
2.55941e-06
2.59038e-06
2.6205e-06
2.64985e-06
2.67826e-06
2.70561e-06
2.73184e-06
2.75681e-06
2.78069e-06
2.80331e-06
2.82464e-06
2.84444e-06
2.86284e-06
2.87986e-06
2.89515e-06
2.90889e-06
2.92091e-06
2.93134e-06
2.93989e-06
2.9469e-06
2.95215e-06
2.95565e-06
2.95745e-06
2.95746e-06
2.95574e-06
2.95227e-06
2.94698e-06
2.93996e-06
2.93126e-06
2.9209e-06
2.90891e-06
2.8953e-06
2.88005e-06
2.86312e-06
2.84477e-06
2.8248e-06
2.80343e-06
2.78072e-06
2.75684e-06
2.73168e-06
2.7054e-06
2.67808e-06
2.64971e-06
2.62046e-06
2.59035e-06
2.55943e-06
2.52767e-06
2.49477e-06
2.35723e-06
2.38882e-06
2.41931e-06
2.44905e-06
2.47797e-06
2.50616e-06
2.53346e-06
2.55974e-06
2.58496e-06
2.60896e-06
2.63194e-06
2.65369e-06
2.67419e-06
2.69325e-06
2.71094e-06
2.72732e-06
2.74204e-06
2.75526e-06
2.76683e-06
2.77687e-06
2.7851e-06
2.79183e-06
2.79689e-06
2.80026e-06
2.80199e-06
2.802e-06
2.80034e-06