/*--------------------------------*- C++ -*----------------------------------*\
  =========                 |
  \\      /  F ield         | OpenFOAM: The Open Source CFD Toolbox
   \\    /   O peration     | Website:  https://openfoam.org
    \\  /    A nd           | Version:  7
     \\/     M anipulation  |
\*---------------------------------------------------------------------------*/
FoamFile
{
    version     2.0;
    format      ascii;
    class       volScalarField;
    location    "88000";
    object      strainRate;
}
// * * * * * * * * * * * * * * * * * * * * * * * * * * * * * * * * * * * * * //

dimensions      [0 0 -1 0 0 0 0];

internalField   nonuniform List<scalar> 
4764
(
0.0297839
0.0296533
0.029536
0.0294318
0.0293405
0.0292623
0.0322181
0.0319718
0.0317369
0.0315136
0.0313026
0.0311041
0.0309185
0.0307454
0.0305852
0.0304383
0.0303047
0.0301845
0.0300776
0.029984
0.0299039
0.0298374
0.0297838
0.0297437
0.0297169
0.0297037
0.0297039
0.0297172
0.0297436
0.0297834
0.0298368
0.029904
0.0299848
0.0300788
0.0301863
0.0329215
0.0326708
0.0324319
0.0322047
0.0319901
0.0317882
0.0315992
0.031423
0.03126
0.0311105
0.0309744
0.0308517
0.0307426
0.0306471
0.0305654
0.0304974
0.0304425
0.0304014
0.0303739
0.0303604
0.0303605
0.0303741
0.030401
0.0304419
0.0304965
0.0305651
0.0306476
0.0307436
0.0308533
0.0309767
0.031113
0.0312626
0.0314257
0.0336428
0.0333875
0.0331443
0.0329132
0.0326949
0.0324894
0.032297
0.0321178
0.031952
0.0317999
0.0316614
0.0315366
0.0314254
0.0313281
0.0312449
0.0311755
0.0311196
0.0310777
0.0310497
0.0310358
0.0310358
0.0310496
0.031077
0.0311188
0.0311745
0.0312443
0.0313284
0.0314261
0.0315377
0.0316632
0.031802
0.0319542
0.0321201
0.0322993
0.0324914
0.0326966
0.0329146
0.0331452
0.0333882
0.0336433
0.0339104
0.0341891
0.0344786
0.0347778
0.0351101
0.034383
0.0341227
0.0338751
0.0336398
0.0334176
0.0332084
0.0330125
0.0328301
0.0326615
0.0325068
0.0323658
0.0322388
0.0321256
0.0320266
0.031942
0.0318712
0.0318144
0.0317718
0.0317432
0.031729
0.0317289
0.0317429
0.0317708
0.0318134
0.0318701
0.0319412
0.0320267
0.0321261
0.0322397
0.0323671
0.0325083
0.0326633
0.0328321
0.0330142
0.0332098
0.0334187
0.0336407
0.0338756
0.0341232
0.0343832
0.0346554
0.0349397
0.0352348
0.0355398
0.0358782
0.0351431
0.0348775
0.0346252
0.0343855
0.0341592
0.0339461
0.0337465
0.0335608
0.0333892
0.0332317
0.0330882
0.0329588
0.0328436
0.0327429
0.0326568
0.0325847
0.0325271
0.0324837
0.0324546
0.03244
0.0324398
0.0324539
0.0324823
0.0325257
0.0325836
0.0326558
0.0327429
0.032844
0.0329595
0.033089
0.0332328
0.0333906
0.0335624
0.0337477
0.0339469
0.0341596
0.0343859
0.0346253
0.0348778
0.035143
0.0354207
0.0357107
0.0360117
0.0363231
0.0366678
0.035924
0.0356529
0.0353956
0.0351513
0.0349206
0.0347034
0.0345
0.0343108
0.034136
0.0339755
0.0338294
0.0336976
0.0335803
0.0334778
0.0333901
0.0333167
0.0332581
0.033214
0.0331844
0.0331693
0.033169
0.0331833
0.0332123
0.0332564
0.0333154
0.033389
0.0334776
0.0335805
0.033698
0.0338299
0.0339763
0.0341371
0.0343121
0.0345008
0.0347038
0.0349205
0.0351513
0.0353955
0.0356532
0.0359238
0.0362073
0.0365033
0.0368106
0.0371285
0.0374801
0.0367268
0.0364501
0.0361875
0.0359383
0.0357029
0.0354815
0.0352741
0.0350811
0.0349029
0.0347394
0.0345904
0.0344561
0.0343366
0.0342321
0.0341427
0.034068
0.0340083
0.0339634
0.0339333
0.0339178
0.0339174
0.033932
0.0339616
0.0340065
0.0340666
0.0341415
0.0342317
0.0343365
0.0344562
0.0345906
0.0347397
0.0349037
0.035082
0.0352744
0.0354814
0.0357025
0.0359379
0.0361873
0.0364503
0.0367267
0.0370162
0.0373183
0.0376323
0.0379573
0.0383159
0.0375527
0.0372701
0.0370019
0.0367476
0.0365074
0.0362813
0.0360697
0.0358728
0.0356911
0.0355243
0.0353723
0.0352354
0.0351135
0.0350071
0.0349158
0.0348396
0.0347787
0.034733
0.0347023
0.0346866
0.0346861
0.0347009
0.0347313
0.034777
0.0348381
0.0349145
0.0350063
0.0351132
0.0352352
0.0353723
0.0355243
0.0356915
0.0358733
0.0360697
0.0362809
0.0365067
0.036747
0.0370017
0.0372704
0.0375528
0.0378484
0.0381571
0.038478
0.0388103
0.0391762
0.0384028
0.0381142
0.0378401
0.0375804
0.037335
0.0371042
0.0368882
0.0366873
0.0365016
0.0363314
0.0361763
0.0360367
0.0359123
0.0358037
0.0357105
0.0356327
0.0355706
0.035524
0.0354927
0.0354766
0.035476
0.0354912
0.0355223
0.0355689
0.0356312
0.0357092
0.0358027
0.0359117
0.0360361
0.0361761
0.0363312
0.0365018
0.0366873
0.0368878
0.0371036
0.0373342
0.0375796
0.0378398
0.0381145
0.0384031
0.0387053
0.0390208
0.039349
0.0396888
0.0400625
0.0392785
0.0389835
0.0387033
0.0384379
0.0381871
0.0379512
0.0377307
0.0375255
0.0373359
0.037162
0.0370036
0.0368611
0.0367342
0.0366233
0.0365281
0.0364486
0.0363851
0.0363375
0.0363056
0.0362892
0.0362886
0.0363041
0.0363359
0.0363836
0.036447
0.0365266
0.0366219
0.0367332
0.0368602
0.0370031
0.0371615
0.0373357
0.0375251
0.03773
0.0379505
0.0381862
0.038437
0.038703
0.0389838
0.039279
0.0395879
0.0399107
0.0402463
0.0405941
0.0409758
0.040181
0.0398794
0.0395927
0.0393214
0.039065
0.0388238
0.0385985
0.0383888
0.038195
0.0380174
0.0378555
0.0377099
0.0375803
0.037467
0.0373697
0.0372884
0.0372235
0.0371749
0.0371422
0.0371255
0.037125
0.0371409
0.0371734
0.0372221
0.0372869
0.0373681
0.0374653
0.037579
0.0377088
0.0378547
0.0380166
0.0381944
0.0383881
0.0385975
0.038823
0.039064
0.0393205
0.0395924
0.0398797
0.0401816
0.0404977
0.040828
0.0411715
0.0415275
0.0419176
0.0411118
0.0408031
0.0405098
0.0402321
0.0399699
0.0397232
0.0394929
0.0392785
0.0390804
0.0388987
0.0387333
0.0385844
0.038452
0.0383361
0.0382367
0.0381535
0.0380872
0.0380374
0.0380041
0.037987
0.0379866
0.0380029
0.038036
0.0380858
0.038152
0.038235
0.0383343
0.0384504
0.0385831
0.0387322
0.0388977
0.0390795
0.0392775
0.0394917
0.0397224
0.0399689
0.0402313
0.0405095
0.0408034
0.0411124
0.0414359
0.0417741
0.0421257
0.0424904
0.0428893
0.0424037
0.0420721
0.0417562
0.0414558
0.0411716
0.0409033
0.0406509
0.0404153
0.040196
0.0399933
0.0398075
0.0396384
0.0394861
0.0393507
0.0392321
0.0391304
0.0390453
0.0389774
0.0389265
0.0388925
0.0388751
0.0388747
0.0388914
0.0389253
0.0389762
0.0390439
0.0391286
0.0392301
0.0393489
0.0394845
0.039637
0.0398064
0.0399922
0.0401948
0.040414
0.04065
0.0409023
0.0411709
0.0414556
0.0417565
0.0420728
0.0424042
0.0427505
0.0431106
0.0434842
0.0438922
0.0434029
0.0430636
0.04274
0.0424324
0.0421413
0.0418666
0.0416083
0.0413671
0.0411427
0.0409353
0.040745
0.0405722
0.0404163
0.0402777
0.0401564
0.0400523
0.0399652
0.0398957
0.0398436
0.0398088
0.0397912
0.0397908
0.0398079
0.0398424
0.0398946
0.0399639
0.0400504
0.0401543
0.0402758
0.0404144
0.0405705
0.0407439
0.0409341
0.0411413
0.0413657
0.0416073
0.0418656
0.0421407
0.0424322
0.0427403
0.0430642
0.0434038
0.0437586
0.0441276
0.0445105
0.0449279
0.0444352
0.0440878
0.0437562
0.043441
0.0431428
0.0428613
0.0425969
0.0423499
0.0421202
0.0419078
0.0417129
0.0415361
0.0413765
0.0412346
0.0411104
0.0410038
0.0409147
0.0408435
0.0407902
0.0407546
0.0407366
0.0407363
0.0407538
0.040789
0.0408424
0.0409134
0.0410019
0.0411082
0.0412326
0.0413744
0.0415342
0.0417118
0.0419065
0.0421187
0.0423484
0.0425958
0.0428604
0.0431422
0.0434408
0.0437564
0.0440883
0.0444363
0.0447999
0.0451782
0.0455709
0.0459981
0.0458758
0.0455023
0.0451463
0.0448063
0.0444833
0.0441777
0.0438891
0.0436184
0.0433652
0.04313
0.0429124
0.0427127
0.0425317
0.0423683
0.0422229
0.0420958
0.0419864
0.0418952
0.0418224
0.0417678
0.0417313
0.041713
0.0417127
0.0417307
0.0417666
0.0418213
0.041894
0.0419846
0.0420934
0.0422208
0.0423661
0.0425296
0.0427117
0.0429111
0.0431284
0.0433636
0.0436172
0.0438884
0.044177
0.044483
0.0448064
0.0451466
0.0455035
0.0458763
0.0462643
0.046667
0.0471044
0.0469885
0.0466059
0.0462408
0.0458922
0.0455609
0.0452477
0.0449517
0.0446743
0.0444149
0.0441737
0.0439507
0.0437461
0.0435608
0.0433934
0.0432444
0.043114
0.0430019
0.0429084
0.042834
0.0427779
0.0427406
0.042722
0.0427216
0.04274
0.0427769
0.0428328
0.0429074
0.0430002
0.0431117
0.043242
0.043391
0.0435585
0.0437452
0.0439495
0.0441722
0.0444131
0.044673
0.0449511
0.0452469
0.0455607
0.045892
0.046241
0.0466071
0.0469894
0.0473875
0.0478006
0.0482488
0.0485498
0.0481399
0.0477477
0.0473732
0.0470156
0.0466759
0.0463545
0.0460509
0.0457665
0.0455006
0.0452532
0.0450246
0.0448149
0.0446249
0.0444534
0.0443007
0.0441669
0.0440518
0.0439561
0.0438799
0.0438224
0.0437842
0.0437651
0.0437648
0.0437837
0.0438215
0.0438787
0.0439553
0.0440503
0.0441646
0.0442981
0.0444509
0.0446225
0.0448139
0.0450234
0.0452517
0.0454987
0.0457652
0.0460503
0.0463536
0.0466755
0.0470153
0.0473732
0.0477489
0.0481412
0.0485498
0.0489737
0.0494331
0.0497524
0.049332
0.0489298
0.0485454
0.0481785
0.0478299
0.0475001
0.0471887
0.046897
0.0466242
0.0463703
0.0461359
0.045921
0.0457261
0.0455501
0.0453935
0.0452563
0.0451382
0.0450401
0.044962
0.044903
0.0448638
0.0448443
0.0448441
0.0448633
0.0449023
0.0449608
0.0450394
0.0451368
0.0452539
0.0453908
0.0455475
0.0457235
0.0459198
0.0461347
0.0463688
0.0466222
0.0468955
0.0471881
0.0474993
0.0478296
0.048178
0.0485452
0.048931
0.0493336
0.0497532
0.0501882
0.0506593
0.0509985
0.0505669
0.0501542
0.0497596
0.0493829
0.0490251
0.0486866
0.0483669
0.0480675
0.0477876
0.0475271
0.0472865
0.0470663
0.0468662
0.0466856
0.046525
0.046384
0.0462628
0.0461623
0.0460821
0.0460216
0.0459814
0.0459613
0.0459614
0.0459811
0.0460212
0.0460811
0.0461616
0.0462615
0.0463817
0.0465222
0.046683
0.0468634
0.0470647
0.0472853
0.0475256
0.0477856
0.0480661
0.0483663
0.0486858
0.0490248
0.0493824
0.0497592
0.0501554
0.0505688
0.0509996
0.0514464
0.0519296
0.0522901
0.0518469
0.051423
0.0510178
0.050631
0.0502636
0.049916
0.0495878
0.0492804
0.048993
0.0487256
0.0484787
0.0482527
0.0480472
0.0478619
0.047697
0.0475522
0.0474279
0.0473248
0.0472424
0.0471803
0.047139
0.0471184
0.0471186
0.0471389
0.0471801
0.0472415
0.047324
0.0474266
0.04755
0.0476941
0.0478592
0.0480443
0.0482508
0.0484774
0.0487241
0.048991
0.0492789
0.0495873
0.0499152
0.0502634
0.0506306
0.0510173
0.0514242
0.051849
0.0522915
0.0527506
0.0532463
0.0536296
0.0531743
0.0527387
0.0523225
0.0519251
0.0515477
0.0511906
0.0508536
0.0505378
0.0502426
0.049968
0.0497147
0.0494826
0.0492714
0.0490811
0.0489118
0.048763
0.0486355
0.0485297
0.0484449
0.0483813
0.0483388
0.0483176
0.048318
0.0483389
0.0483812
0.0484443
0.0485288
0.0486342
0.048761
0.0489089
0.0490783
0.0492685
0.0494804
0.0497131
0.0499665
0.0502408
0.0505364
0.0508531
0.0511899
0.0515476
0.0519248
0.0523219
0.05274
0.0531765
0.0536311
0.0541032
0.0546119
0.0555066
0.0550197
0.0545517
0.0541038
0.0536761
0.0532677
0.0528799
0.0525129
0.0521667
0.0518421
0.0515388
0.0512569
0.0509967
0.0507581
0.0505411
0.0503455
0.0501716
0.0500188
0.049888
0.0497793
0.0496921
0.0496268
0.049583
0.0495612
0.0495618
0.0495833
0.0496268
0.0496916
0.0497782
0.0498866
0.0500169
0.0501688
0.0503428
0.0505383
0.0507557
0.0509949
0.0512551
0.0515372
0.0518408
0.0521662
0.0525123
0.0528798
0.0532675
0.0536756
0.054105
0.0545538
0.0550212
0.0555067
0.0560291
0.0575014
0.0569631
0.0564629
0.0559817
0.055521
0.0550812
0.0546615
0.0542628
0.0538855
0.0535298
0.0531959
0.0528842
0.0525945
0.0523272
0.0520819
0.0518588
0.0516577
0.0514791
0.0513221
0.0511877
0.0510761
0.0509863
0.0509192
0.0508742
0.0508518
0.0508524
0.0508746
0.0509193
0.0509859
0.0510747
0.0511862
0.0513201
0.0514763
0.0516551
0.0518561
0.0520793
0.0523252
0.0525927
0.0528828
0.0531947
0.0535291
0.053885
0.0542627
0.0546613
0.0550809
0.0555222
0.0559837
0.0564644
0.0569638
0.0575005
0.0590296
0.0584764
0.0579621
0.0574671
0.0569932
0.0565408
0.0561092
0.0556992
0.0553112
0.0549456
0.0546021
0.0542816
0.0539837
0.0537089
0.0534567
0.0532271
0.0530203
0.0528367
0.0526754
0.0525373
0.0524226
0.0523302
0.0522612
0.0522149
0.052192
0.0521924
0.0522154
0.0522613
0.0523298
0.0524209
0.0525356
0.0526733
0.052834
0.0530177
0.0532245
0.0534539
0.0537067
0.0539818
0.0542803
0.0546008
0.0549446
0.0553107
0.055699
0.0561091
0.0565406
0.0569942
0.0574691
0.0579636
0.0584776
0.0590292
0.0606183
0.0600497
0.0595205
0.0590112
0.0585234
0.0580578
0.057614
0.0571921
0.056793
0.0564168
0.0560634
0.0557338
0.0554274
0.0551447
0.0548852
0.0546489
0.0544362
0.0542473
0.0540816
0.0539397
0.0538217
0.0537266
0.0536556
0.0536079
0.0535844
0.0535847
0.0536086
0.0536556
0.0537261
0.0538196
0.0539376
0.0540794
0.0542446
0.0544335
0.0546465
0.0548822
0.0551422
0.0554253
0.0557325
0.0560622
0.0564157
0.0567924
0.0571919
0.0576138
0.0580578
0.0585244
0.059013
0.0595221
0.0600511
0.0606184
0.0622711
0.0616863
0.0611413
0.0606171
0.0601149
0.0596356
0.059179
0.0587448
0.0583339
0.0579467
0.0575831
0.0572439
0.0569286
0.0566376
0.0563706
0.0561273
0.0559084
0.055714
0.0555437
0.0553977
0.0552762
0.0551783
0.0551052
0.0550563
0.0550321
0.0550322
0.0550569
0.0551052
0.0551777
0.0552739
0.0553952
0.0555412
0.0557113
0.0559057
0.056125
0.0563675
0.056635
0.0569264
0.0572426
0.057582
0.0579457
0.0583334
0.0587445
0.0591786
0.0596358
0.0601159
0.0606188
0.0611431
0.0616879
0.0622714
0.0639914
0.0633896
0.0628282
0.0622885
0.0617712
0.0612776
0.0608075
0.0603605
0.0599374
0.0595387
0.0591643
0.0588151
0.0584907
0.0581909
0.057916
0.0576655
0.05744
0.05724
0.0570649
0.0569146
0.0567894
0.0566886
0.0566132
0.0565631
0.0565382
0.0565382
0.0565637
0.0566134
0.056688
0.0567869
0.0569117
0.0570621
0.0572372
0.0574374
0.0576632
0.0579128
0.0581882
0.0584883
0.0588138
0.0591634
0.0595378
0.0599371
0.0603602
0.0608071
0.0612781
0.0617722
0.0622899
0.0628302
0.0633914
0.063992
0.0657831
0.0651637
0.0645851
0.0640291
0.063496
0.0629875
0.0625034
0.062043
0.0616071
0.0611963
0.0608108
0.0604511
0.0601171
0.0598082
0.059525
0.0592669
0.0590346
0.0588286
0.0586485
0.0584937
0.0583647
0.0582609
0.0581832
0.0581317
0.0581061
0.058106
0.0581323
0.0581834
0.0582603
0.0583621
0.0584907
0.0586453
0.0588258
0.0590322
0.0592646
0.0595217
0.0598053
0.0601145
0.0604498
0.06081
0.0611957
0.0616069
0.0620427
0.062503
0.0629883
0.0634971
0.0640303
0.0645872
0.0651656
0.0657839
0.0676505
0.0670126
0.0664159
0.0658429
0.0652934
0.0647693
0.0642706
0.0637961
0.0633469
0.0629237
0.0625264
0.0621557
0.0618117
0.0614932
0.0612013
0.0609354
0.060696
0.0604836
0.0602982
0.0601388
0.0600058
0.0598987
0.0598188
0.0597658
0.0597394
0.0597394
0.0597663
0.0598191
0.0598983
0.0600034
0.0601357
0.0602948
0.0604809
0.0606937
0.0609331
0.061198
0.0614903
0.0618089
0.0621542
0.0625256
0.0629231
0.0633469
0.0637959
0.0642702
0.0647704
0.0652947
0.0658441
0.0664182
0.0670145
0.0676513
0.0695978
0.0689407
0.0683253
0.0677343
0.0671677
0.0666273
0.0661133
0.0656242
0.0651611
0.0647248
0.0643151
0.063933
0.0635784
0.06325
0.0629489
0.0626748
0.0624281
0.062209
0.0620181
0.0618539
0.0617166
0.0616063
0.0615239
0.0614694
0.0614422
0.0614421
0.0614698
0.0615243
0.061606
0.0617144
0.0618506
0.0620144
0.0622064
0.0624259
0.0626725
0.0629457
0.063247
0.0635756
0.0639314
0.0643143
0.0647242
0.0651612
0.065624
0.0661129
0.0666287
0.0671692
0.0677355
0.0683276
0.0689426
0.0695988
0.0716301
0.0709527
0.0703178
0.0697081
0.0691237
0.0685662
0.0680361
0.0675317
0.0670542
0.0666041
0.0661816
0.0657874
0.0654217
0.0650829
0.0647723
0.0644895
0.0642351
0.0640093
0.0638123
0.0636431
0.0635014
0.0633877
0.0633029
0.0632467
0.0632186
0.0632185
0.0632469
0.0633033
0.0633875
0.0634995
0.0636397
0.0638086
0.0640066
0.0642331
0.0644872
0.0647691
0.06508
0.065419
0.0657858
0.0661807
0.0666034
0.0670542
0.0675316
0.0680359
0.0685679
0.0691253
0.0697093
0.07032
0.0709546
0.071631
0.0737524
0.0730538
0.0723985
0.0717692
0.0711663
0.0705909
0.0700439
0.0695236
0.0690309
0.0685665
0.0681304
0.0677237
0.0673462
0.0669967
0.0666761
0.0663842
0.0661219
0.0658888
0.0656855
0.0655111
0.0653647
0.0652477
0.0651602
0.0651021
0.0650732
0.0650731
0.0651022
0.0651606
0.0652475
0.0653631
0.0655077
0.0656819
0.0658861
0.0661199
0.0663819
0.0666729
0.0669938
0.0673437
0.0677221
0.0681294
0.0685657
0.0690309
0.0695235
0.070044
0.0705927
0.071168
0.0717704
0.0724005
0.0730558
0.0737533
0.0759703
0.0752494
0.0745729
0.073923
0.0733008
0.0727067
0.0721419
0.071605
0.0710964
0.070617
0.0701668
0.0697468
0.0693572
0.0689962
0.0686653
0.0683639
0.0680932
0.0678526
0.0676427
0.0674628
0.0673116
0.0671911
0.0671007
0.0670406
0.0670108
0.0670107
0.0670407
0.067101
0.0671908
0.0673102
0.0674595
0.0676393
0.06785
0.0680912
0.0683617
0.0686621
0.0689935
0.0693548
0.0697454
0.0701657
0.0706163
0.0710964
0.0716049
0.0721425
0.0727086
0.0733024
0.0739242
0.0745748
0.0752515
0.0759712
0.0782898
0.0775455
0.0768467
0.0761755
0.0755331
0.0749194
0.0743359
0.0737816
0.0732562
0.0727611
0.0722963
0.0718624
0.07146
0.0710871
0.0707453
0.070434
0.0701545
0.069906
0.0696891
0.0695035
0.0693474
0.0692231
0.0691297
0.0690674
0.0690367
0.0690367
0.0690677
0.0691299
0.0692227
0.0693461
0.0695004
0.0696861
0.0699036
0.0701524
0.0704318
0.0707421
0.0710844
0.0714576
0.0718612
0.0722951
0.0727606
0.0732564
0.0737815
0.0743369
0.0749212
0.0755345
0.0761766
0.0768485
0.0775478
0.0782907
0.0807174
0.0799485
0.0792264
0.0785329
0.0778693
0.0772351
0.076632
0.0760594
0.0755165
0.0750049
0.0745247
0.0740764
0.0736605
0.0732752
0.0729219
0.0726004
0.0723116
0.0720548
0.0718306
0.0716391
0.0714776
0.0713495
0.0712529
0.0711883
0.0711567
0.0711566
0.0711887
0.0712529
0.0713489
0.0714766
0.0716361
0.0718281
0.0720526
0.0723094
0.0725982
0.0729187
0.0732725
0.0736582
0.0740753
0.0745236
0.0750046
0.0755168
0.0760594
0.0766335
0.0772368
0.0778704
0.0785338
0.079228
0.0799509
0.0807183
0.0832599
0.0824654
0.0817188
0.081002
0.080316
0.0796605
0.0790369
0.0784451
0.0778838
0.0773549
0.0768587
0.0763952
0.0759652
0.0755668
0.0752015
0.0748694
0.0745706
0.0743052
0.0740735
0.0738755
0.0737086
0.0735763
0.0734764
0.0734095
0.0733768
0.0733766
0.07341
0.0734763
0.0735756
0.0737078
0.0738728
0.0740713
0.0743031
0.0745684
0.074867
0.0751983
0.075564
0.0759628
0.0763941
0.0768575
0.0773548
0.0778842
0.0784452
0.0790387
0.0796621
0.0803168
0.0810026
0.0817201
0.0824677
0.0832607
0.0859247
0.0851035
0.0843312
0.08359
0.0828805
0.0822028
0.0815577
0.0809457
0.0803652
0.0798182
0.079305
0.0788257
0.0783809
0.0779688
0.0775908
0.0772477
0.0769385
0.0766642
0.0764245
0.0762195
0.0760469
0.0759102
0.0758069
0.0757377
0.0757037
0.0757036
0.0757382
0.0758067
0.0759095
0.0760465
0.0762172
0.0764224
0.076662
0.0769362
0.077245
0.0775877
0.0779659
0.0783785
0.0788246
0.079304
0.0798181
0.0803657
0.080946
0.0815597
0.0822044
0.0828811
0.0835904
0.0843322
0.0851057
0.0859256
0.08872
0.0878709
0.0870716
0.0863048
0.0855708
0.0848697
0.0842022
0.0835688
0.0829683
0.0824022
0.0818714
0.0813753
0.0809151
0.0804886
0.0800973
0.0797425
0.0794225
0.0791388
0.0788908
0.0786784
0.0784999
0.0783585
0.0782515
0.0781801
0.0781446
0.0781445
0.0781804
0.0782514
0.0783576
0.0784997
0.0786765
0.0788887
0.0791365
0.0794202
0.0797396
0.0800943
0.0804855
0.0809125
0.0813742
0.0818704
0.0824023
0.0829689
0.0835695
0.0842042
0.0848712
0.0855712
0.086305
0.0870723
0.0878728
0.0887208
0.0916545
0.0907761
0.0899486
0.089155
0.0883952
0.0876697
0.0869786
0.0863227
0.0857013
0.0851152
0.0845659
0.0840523
0.0835756
0.0831341
0.0827289
0.0823617
0.0820304
0.081737
0.0814802
0.0812599
0.0810754
0.0809289
0.080818
0.0807445
0.0807074
0.0807073
0.0807446
0.0808182
0.0809279
0.0810753
0.0812585
0.0814782
0.0817345
0.0820282
0.0823587
0.0827261
0.083131
0.0835729
0.084051
0.0845648
0.0851155
0.0857021
0.086324
0.0869806
0.087671
0.0883955
0.0891551
0.089949
0.0907777
0.0916551
0.0947377
0.0938285
0.0929715
0.0921499
0.091363
0.0906117
0.089896
0.0892165
0.088573
0.0879661
0.0873974
0.0868653
0.0863715
0.0859141
0.0854944
0.085114
0.084771
0.0844671
0.0842011
0.0839728
0.083782
0.0836299
0.0835151
0.0834391
0.0834004
0.0834004
0.0834391
0.0835154
0.0836288
0.0837819
0.0839718
0.0841992
0.0844646
0.0847687
0.085111
0.0854917
0.0859108
0.0863685
0.0868638
0.0873962
0.0879665
0.0885741
0.0892183
0.0898979
0.0906128
0.0913632
0.0921497
0.0929716
0.0938298
0.0947381
0.0979796
0.0970382
0.0961503
0.0952993
0.0944841
0.0937057
0.092964
0.0922598
0.091593
0.0909645
0.0903753
0.0898238
0.0893119
0.088838
0.0884031
0.0880086
0.0876535
0.0873386
0.0870628
0.0868262
0.0866287
0.0864708
0.0863519
0.0862732
0.0862329
0.0862329
0.0862731
0.0863522
0.0864696
0.0866285
0.0868256
0.0870611
0.0873361
0.0876512
0.0880059
0.0884004
0.0888346
0.0893088
0.0898223
0.0903741
0.0909651
0.0915946
0.0922621
0.092966
0.0937065
0.0944842
0.0952988
0.0961501
0.0970393
0.0979799
0.101391
0.100416
0.0994958
0.098614
0.0977692
0.0969621
0.0961932
0.0954632
0.094772
0.0941207
0.0935101
0.0929383
0.0924072
0.0919161
0.0914651
0.0910559
0.090688
0.0903615
0.0900754
0.0898301
0.0896256
0.0894616
0.0893384
0.0892568
0.089215
0.0892148
0.0892566
0.0893385
0.0894603
0.0896253
0.0898298
0.090074
0.0903591
0.0906856
0.0910533
0.0914624
0.0919125
0.0924042
0.0929366
0.0935088
0.0941216
0.0947741
0.095466
0.0961955
0.0969628
0.097769
0.0986132
0.0994955
0.100417
0.101392
0.104985
0.103974
0.10302
0.102106
0.10123
0.100393
0.0995953
0.098838
0.0981213
0.0974461
0.0968128
0.0962198
0.0956684
0.0951595
0.0946916
0.0942669
0.0938854
0.0935466
0.0932497
0.0929953
0.0927835
0.0926131
0.0924852
0.0924006
0.0923574
0.0923571
0.0924004
0.0924854
0.0926117
0.0927831
0.0929954
0.0932489
0.0935444
0.093883
0.0942644
0.0946886
0.0951555
0.0956657
0.0962179
0.0968116
0.0974473
0.0981238
0.0988414
0.0995977
0.100393
0.101229
0.102105
0.103019
0.103975
0.104985
0.108773
0.107725
0.106735
0.105787
0.104878
0.10401
0.103183
0.102397
0.101653
0.100953
0.100296
0.0996804
0.0991079
0.0985802
0.0980945
0.0976536
0.0972577
0.0969058
0.0965977
0.0963337
0.0961141
0.0959371
0.0958044
0.0957165
0.0956719
0.0956716
0.0957162
0.0958045
0.0959357
0.0961137
0.0963341
0.0965974
0.096904
0.0972553
0.097651
0.0980913
0.0985758
0.0991053
0.0996782
0.100295
0.100954
0.101656
0.102401
0.103185
0.104011
0.104878
0.105786
0.106734
0.107725
0.108773
0.112769
0.111682
0.110655
0.109671
0.108729
0.107827
0.106969
0.106153
0.105381
0.104654
0.103972
0.103333
0.102739
0.102191
0.101687
0.101229
0.100818
0.100452
0.100132
0.0998582
0.0996304
0.0994464
0.0993087
0.0992174
0.0991713
0.099171
0.099217
0.0993086
0.0994451
0.09963
0.0998588
0.100132
0.100451
0.100815
0.101226
0.101683
0.102186
0.102736
0.103331
0.103971
0.104656
0.105384
0.106157
0.106971
0.107828
0.108728
0.10967
0.110654
0.111682
0.112769
0.116989
0.115861
0.114795
0.113774
0.112795
0.111859
0.110968
0.110121
0.10932
0.108565
0.107856
0.107193
0.106575
0.106007
0.105483
0.105007
0.10458
0.1042
0.103868
0.103583
0.103346
0.103155
0.103012
0.102917
0.102869
0.102869
0.102917
0.103012
0.103154
0.103346
0.103584
0.103868
0.104199
0.104577
0.105004
0.105479
0.106001
0.106573
0.10719
0.107856
0.108567
0.109323
0.110125
0.110971
0.11186
0.112795
0.113773
0.114794
0.115861
0.116989
0.121449
0.120278
0.119171
0.118111
0.117094
0.116122
0.115196
0.114317
0.113484
0.1127
0.111964
0.111275
0.110633
0.110042
0.109498
0.109003
0.108559
0.108164
0.107819
0.107523
0.107277
0.107078
0.10693
0.106831
0.106782
0.106782
0.10683
0.106929
0.107077
0.107277
0.107524
0.107819
0.108163
0.108557
0.109
0.109494
0.110037
0.110631
0.111272
0.111963
0.112702
0.113488
0.114321
0.115199
0.116124
0.117094
0.118109
0.11917
0.120278
0.121449
0.126165
0.12495
0.123801
0.122699
0.121643
0.120633
0.119671
0.118757
0.117892
0.117078
0.116312
0.115595
0.114928
0.114314
0.113748
0.113234
0.112773
0.112361
0.112002
0.111694
0.111439
0.111233
0.111078
0.110976
0.110924
0.110924
0.110975
0.111077
0.111232
0.111439
0.111696
0.112003
0.112361
0.11277
0.113231
0.113745
0.114309
0.114926
0.115593
0.116312
0.117079
0.117895
0.118761
0.119674
0.120635
0.121643
0.122698
0.123799
0.12495
0.126165
0.131158
0.129896
0.128702
0.127557
0.126461
0.125411
0.124411
0.123461
0.122562
0.121715
0.120919
0.120174
0.11948
0.118841
0.118253
0.117718
0.117238
0.11681
0.116436
0.116116
0.11585
0.115636
0.115475
0.115369
0.115315
0.115315
0.115368
0.115474
0.115635
0.11585
0.116117
0.116437
0.11681
0.117235
0.117714
0.118249
0.118836
0.119478
0.120171
0.120918
0.121716
0.122565
0.123465
0.124414
0.125413
0.12646
0.127557
0.128701
0.129896
0.131158
0.136448
0.135137
0.133896
0.132706
0.131567
0.130475
0.129436
0.128449
0.127514
0.126633
0.125804
0.125029
0.124308
0.123643
0.123031
0.122474
0.121975
0.121529
0.121141
0.120807
0.120531
0.120308
0.120141
0.12003
0.119974
0.119974
0.120029
0.120139
0.120307
0.120531
0.120809
0.121142
0.121529
0.121972
0.122471
0.123028
0.123638
0.124305
0.125027
0.125804
0.126633
0.127516
0.128452
0.129439
0.130478
0.131566
0.132706
0.133895
0.135136
0.136447
0.142055
0.140693
0.139404
0.138167
0.136983
0.135849
0.134768
0.133741
0.132769
0.131853
0.13099
0.130184
0.129433
0.128741
0.128105
0.127525
0.127005
0.126541
0.126136
0.125789
0.125502
0.12527
0.125096
0.12498
0.124922
0.124922
0.124979
0.125094
0.125269
0.125502
0.125791
0.126138
0.126542
0.127002
0.127522
0.128101
0.128736
0.129431
0.130182
0.13099
0.131853
0.132771
0.133745
0.134771
0.135851
0.136983
0.138167
0.139403
0.140692
0.142055
0.148005
0.146589
0.14525
0.143964
0.142733
0.141554
0.14043
0.139363
0.138351
0.137398
0.1365
0.135661
0.134879
0.134159
0.133497
0.132893
0.132351
0.131868
0.131447
0.131085
0.130786
0.130545
0.130364
0.130243
0.130183
0.130182
0.130242
0.130362
0.130544
0.130786
0.131088
0.131449
0.131869
0.132349
0.13289
0.133493
0.134154
0.134877
0.135659
0.1365
0.137397
0.138353
0.139366
0.140434
0.141557
0.142733
0.143964
0.145249
0.146588
0.148004
0.15432
0.15285
0.151459
0.150122
0.148843
0.147617
0.146448
0.145338
0.144285
0.143293
0.142359
0.141485
0.140672
0.139921
0.139232
0.138603
0.138039
0.137537
0.137097
0.136721
0.136409
0.136158
0.135969
0.135844
0.135781
0.13578
0.135843
0.135967
0.136157
0.136409
0.136724
0.1371
0.137538
0.138037
0.1386
0.139228
0.139917
0.140669
0.141483
0.142358
0.143292
0.144287
0.14534
0.146451
0.147619
0.148843
0.150122
0.151457
0.152849
0.15432
0.161029
0.159502
0.158057
0.156668
0.155338
0.154064
0.152849
0.151693
0.150598
0.149565
0.148593
0.147684
0.146837
0.146055
0.145338
0.144683
0.144096
0.143572
0.143115
0.142723
0.142397
0.142136
0.14194
0.141809
0.141743
0.141743
0.141808
0.141938
0.142136
0.142398
0.142726
0.143118
0.143574
0.144094
0.144681
0.145334
0.146052
0.146834
0.147682
0.148592
0.149564
0.150599
0.151695
0.152851
0.154066
0.155338
0.156668
0.158055
0.159501
0.161028
0.168159
0.166574
0.165072
0.163629
0.162248
0.160924
0.15966
0.158459
0.157319
0.156245
0.155233
0.154286
0.153405
0.152591
0.151844
0.151162
0.15055
0.150005
0.149529
0.14912
0.148781
0.148509
0.148305
0.148168
0.148099
0.148099
0.148167
0.148303
0.148509
0.148781
0.149123
0.149532
0.150007
0.150549
0.15116
0.15184
0.152588
0.153402
0.154284
0.155232
0.156243
0.15732
0.15846
0.159662
0.160926
0.162248
0.16363
0.165072
0.166573
0.168158
0.17574
0.174095
0.172536
0.171038
0.169602
0.168227
0.166914
0.165664
0.164479
0.163361
0.162309
0.161324
0.160406
0.159559
0.158782
0.158072
0.157434
0.156867
0.15637
0.155945
0.155591
0.155308
0.155095
0.154953
0.154881
0.154881
0.154951
0.155094
0.155308
0.155592
0.155948
0.156373
0.156868
0.157433
0.15807
0.158778
0.159556
0.160404
0.161322
0.162308
0.16336
0.16448
0.165666
0.166915
0.168229
0.169602
0.171038
0.172536
0.174094
0.175739
0.183801
0.182096
0.180479
0.178924
0.177433
0.176005
0.174641
0.173343
0.17211
0.170948
0.169854
0.168829
0.167875
0.166992
0.166183
0.165445
0.164781
0.16419
0.163674
0.163231
0.162862
0.162567
0.162345
0.162197
0.162122
0.162122
0.162195
0.162344
0.162567
0.162862
0.163233
0.163677
0.164192
0.16478
0.165443
0.166179
0.16699
0.167872
0.168827
0.169852
0.170947
0.172111
0.173343
0.174642
0.176007
0.177434
0.178925
0.180479
0.182095
0.1838
0.192376
0.19061
0.188933
0.18732
0.185773
0.184291
0.182875
0.181527
0.180248
0.17904
0.177903
0.176837
0.175845
0.174927
0.174085
0.173317
0.172626
0.172011
0.171474
0.171012
0.170628
0.170322
0.170091
0.169936
0.169859
0.169858
0.169934
0.17009
0.170321
0.170628
0.171015
0.171477
0.172014
0.172626
0.173316
0.174081
0.174924
0.175841
0.176835
0.177901
0.179038
0.180248
0.181528
0.182876
0.184293
0.185775
0.187321
0.188933
0.190608
0.192374
0.201494
0.199667
0.197931
0.196261
0.194657
0.193121
0.191652
0.190254
0.188926
0.187672
0.18649
0.185383
0.184353
0.183398
0.182524
0.181725
0.181006
0.180367
0.179809
0.179328
0.178928
0.178609
0.178369
0.178209
0.178128
0.178127
0.178207
0.178368
0.178609
0.178929
0.179331
0.179811
0.18037
0.181007
0.181724
0.18252
0.183396
0.184349
0.185382
0.186489
0.187669
0.188925
0.190254
0.191653
0.193122
0.194659
0.196262
0.197932
0.199665
0.201493
0.211189
0.209302
0.207507
0.205779
0.204119
0.202528
0.201007
0.199558
0.198181
0.196881
0.195655
0.194506
0.193437
0.192445
0.191538
0.190708
0.189961
0.189297
0.188717
0.188217
0.187802
0.18747
0.187221
0.187054
0.18697
0.186969
0.187051
0.18722
0.18747
0.187802
0.18822
0.188719
0.1893
0.189962
0.190707
0.191534
0.192444
0.193433
0.194505
0.195653
0.196877
0.198181
0.199558
0.201008
0.202529
0.204121
0.205781
0.207507
0.2093
0.211189
0.221493
0.219547
0.217694
0.215909
0.214193
0.212549
0.210975
0.209475
0.20805
0.206704
0.205434
0.204243
0.203135
0.202107
0.201166
0.200305
0.19953
0.198841
0.198238
0.19772
0.197288
0.196944
0.196685
0.196512
0.196424
0.196423
0.196509
0.196684
0.196944
0.197289
0.197722
0.19824
0.198844
0.199531
0.200304
0.201162
0.202105
0.203131
0.204242
0.205432
0.2067
0.208049
0.209476
0.210976
0.21255
0.214196
0.215912
0.217695
0.219545
0.221493
0.232445
0.230441
0.22853
0.226689
0.224918
0.22322
0.221593
0.220043
0.21857
0.217178
0.215865
0.214633
0.213486
0.212422
0.211447
0.210556
0.209753
0.209039
0.208414
0.207876
0.207429
0.207072
0.206804
0.206624
0.206533
0.206532
0.206622
0.206803
0.207072
0.207429
0.207879
0.208416
0.209041
0.209754
0.210556
0.211444
0.21242
0.213482
0.214632
0.215863
0.217175
0.21857
0.220044
0.221594
0.22322
0.224921
0.226692
0.228531
0.230438
0.232444
0.244118
0.242051
0.240079
0.238178
0.236347
0.234591
0.232907
0.231305
0.229784
0.228348
0.226991
0.225719
0.224533
0.223433
0.222425
0.221503
0.220671