/*--------------------------------*- C++ -*----------------------------------*\
  =========                 |
  \\      /  F ield         | OpenFOAM: The Open Source CFD Toolbox
   \\    /   O peration     | Website:  https://openfoam.org
    \\  /    A nd           | Version:  7
     \\/     M anipulation  |
\*---------------------------------------------------------------------------*/
FoamFile
{
    version     2.0;
    format      ascii;
    class       volVectorField;
    location    "112000";
    object      U;
}
// * * * * * * * * * * * * * * * * * * * * * * * * * * * * * * * * * * * * * //

dimensions      [0 1 -1 0 0 0 0];

internalField   nonuniform List<vector> 
4814
(
(-7.25847e-20 1.30003e-18 -0.0100985)
(1.08508e-19 2.13409e-19 -0.0101108)
(-8.20088e-19 6.79005e-19 -0.0101219)
(-3.30653e-19 1.19756e-18 -0.0101319)
(1.78437e-19 -3.62266e-19 -0.00972658)
(-5.16046e-19 -1.40404e-19 -0.00975241)
(-4.60851e-19 -4.52646e-19 -0.00977759)
(-3.09169e-19 5.19344e-20 -0.00980206)
(-3.68894e-19 -1.11568e-18 -0.00982575)
(-1.53506e-18 -7.09148e-20 -0.00984861)
(-2.36729e-19 4.88711e-19 -0.00987057)
(-1.24551e-18 6.26269e-19 -0.0098916)
(-3.82582e-20 1.32971e-18 -0.00991165)
(-1.0178e-18 1.0819e-18 -0.00993069)
(-1.2942e-19 1.60778e-19 -0.00994869)
(-1.20559e-18 7.28872e-19 -0.00996562)
(7.46954e-19 1.22323e-18 -0.00998145)
(-4.43659e-19 5.6604e-19 -0.00999616)
(-7.31659e-20 1.30195e-18 -0.0100097)
(2.76542e-19 2.64591e-19 -0.0100221)
(-7.37372e-19 6.98484e-19 -0.0100333)
(-2.07216e-19 1.20018e-18 -0.0100433)
(3.53186e-19 1.19506e-18 -0.0100521)
(4.44186e-19 5.07493e-19 -0.0100597)
(6.43526e-20 4.54112e-19 -0.010066)
(-2.18725e-19 2.89344e-19 -0.010071)
(8.99269e-19 3.47573e-19 -0.0100748)
(-2.03303e-19 -2.81889e-19 -0.0100773)
(8.74126e-19 1.18095e-19 -0.0100786)
(2.59175e-19 -4.59375e-19 -0.0100786)
(5.21319e-19 -3.27718e-19 -0.0100773)
(2.35438e-19 -6.39312e-19 -0.0100748)
(4.13832e-19 -4.80468e-19 -0.010071)
(2.20265e-19 -5.28685e-19 -0.010066)
(-1.27367e-19 -6.37642e-19 -0.0100597)
(-5.66977e-19 -1.39283e-21 -0.0100521)
(-4.3148e-19 2.5466e-19 -0.0100433)
(1.48888e-19 2.59772e-19 -0.0100333)
(2.7819e-19 -2.59633e-19 -0.00963438)
(-5.84709e-19 -1.71337e-19 -0.00966036)
(-2.4668e-19 -3.04851e-19 -0.0096857)
(-3.77721e-19 -1.30496e-21 -0.00971032)
(-3.5654e-19 -1.11845e-18 -0.00973415)
(-1.27594e-18 6.34857e-20 -0.00975714)
(-2.70998e-19 4.41563e-19 -0.00977923)
(-1.03888e-18 7.3876e-19 -0.00980038)
(-9.81936e-20 1.31136e-18 -0.00982055)
(-1.26384e-18 1.01202e-18 -0.0098397)
(8.79506e-21 1.96519e-19 -0.0098578)
(-1.17978e-18 7.04381e-19 -0.00987482)
(5.87055e-19 1.15077e-18 -0.00989074)
(-5.77584e-19 5.40668e-19 -0.00990553)
(-1.03907e-19 1.27492e-18 -0.00991917)
(4.67116e-19 3.19223e-19 -0.00993163)
(-5.52391e-19 7.53933e-19 -0.00994289)
(-1.40004e-19 1.19089e-18 -0.00995295)
(4.00305e-19 1.21094e-18 -0.00996178)
(3.02432e-19 4.91794e-19 -0.00996937)
(4.98282e-20 4.69629e-19 -0.00997571)
(-2.47993e-19 2.49624e-19 -0.00998079)
(9.51592e-19 3.51731e-19 -0.0099846)
(-1.81302e-19 -2.89818e-19 -0.00998715)
(7.52286e-19 1.00642e-19 -0.00998843)
(2.13665e-19 -4.67017e-19 -0.00998843)
(6.06801e-19 -3.41671e-19 -0.00998715)
(1.77174e-19 -6.44644e-19 -0.0099846)
(3.9356e-19 -4.83407e-19 -0.00998079)
(9.81102e-20 -5.10718e-19 -0.00997571)
(-1.12061e-19 -6.31758e-19 -0.00996937)
(-8.28651e-19 6.28089e-20 -0.00996178)
(-3.81054e-19 2.16814e-19 -0.00995295)
(1.11436e-19 2.792e-19 -0.0099429)
(-6.06205e-19 -6.60552e-20 -0.00993163)
(-6.4883e-19 3.22929e-19 -0.00991917)
(-2.66598e-19 7.06198e-19 -0.00990553)
(8.78886e-21 3.99467e-19 -0.00989074)
(4.13794e-19 2.91841e-19 -0.00987482)
(-4.96916e-19 -1.52787e-19 -0.0098578)
(-1.5922e-19 6.26346e-19 -0.0098397)
(4.6831e-19 -8.32351e-20 -0.00954021)
(-6.20659e-19 -1.75795e-19 -0.00956636)
(-8.2888e-20 -1.8806e-19 -0.00959186)
(-6.09903e-19 -1.64196e-19 -0.00961663)
(-3.26338e-19 -1.14379e-18 -0.00964061)
(-8.56687e-19 3.11876e-19 -0.00966373)
(-4.48577e-19 3.05469e-19 -0.00968595)
(-9.66202e-19 7.55666e-19 -0.00970723)
(-1.45978e-19 1.32024e-18 -0.00972751)
(-1.47119e-18 9.61207e-19 -0.00974677)
(4.28345e-20 1.76181e-19 -0.00976498)
(-1.40632e-18 5.68872e-19 -0.0097821)
(6.81557e-19 1.17679e-18 -0.00979811)
(-5.9693e-19 5.6419e-19 -0.00981298)
(-1.04645e-19 1.25202e-18 -0.0098267)
(5.37988e-19 3.21795e-19 -0.00983923)
(-4.06352e-19 7.98877e-19 -0.00985056)
(-7.05363e-20 1.19016e-18 -0.00986067)
(4.34789e-19 1.2315e-18 -0.00986955)
(2.02022e-19 4.88388e-19 -0.00987718)
(-6.39437e-20 4.66874e-19 -0.00988355)
(-2.82122e-19 2.07545e-19 -0.00988866)
(9.28842e-19 3.46201e-19 -0.0098925)
(-9.26825e-20 -2.94221e-19 -0.00989506)
(6.70222e-19 8.40948e-20 -0.00989635)
(1.86348e-19 -4.82784e-19 -0.00989635)
(6.311e-19 -3.5392e-19 -0.00989506)
(1.90431e-19 -6.52137e-19 -0.0098925)
(3.48033e-19 -4.7983e-19 -0.00988866)
(-1.53314e-20 -4.93209e-19 -0.00988355)
(-8.45515e-20 -6.2905e-19 -0.00987718)
(-8.42119e-19 6.71299e-20 -0.00986955)
(-3.63919e-19 1.87165e-19 -0.00986067)
(-4.33054e-20 3.37371e-19 -0.00985056)
(-5.80436e-19 -6.99099e-20 -0.00983923)
(-6.71196e-19 3.28558e-19 -0.0098267)
(-3.03412e-20 6.25481e-19 -0.00981298)
(-2.90294e-19 5.07937e-19 -0.00979811)
(3.37577e-19 3.38007e-19 -0.0097821)
(-5.0438e-19 -1.56151e-19 -0.00976498)
(-3.37465e-19 7.45894e-19 -0.00974677)
(3.30506e-19 1.38833e-18 -0.00972751)
(-1.62959e-19 -5.14051e-19 -0.00970723)
(6.90367e-20 -2.37712e-19 -0.00968595)
(4.82719e-19 -7.68521e-20 -0.00944398)
(-5.90729e-19 -1.14265e-19 -0.0094703)
(-1.22509e-19 -2.3078e-19 -0.00949596)
(-6.68156e-19 -1.92338e-19 -0.00952089)
(-2.45836e-19 -1.16367e-18 -0.00954502)
(-5.37502e-19 5.02645e-19 -0.00956828)
(-4.50987e-19 3.08712e-19 -0.00959064)
(-9.56234e-19 7.3169e-19 -0.00961204)
(-4.1714e-19 1.20673e-18 -0.00963245)
(-1.44103e-18 1.03293e-18 -0.00965182)
(5.9107e-20 1.5597e-19 -0.00967013)
(-1.55132e-18 4.60201e-19 -0.00968735)
(6.97196e-19 1.1555e-18 -0.00970346)
(-6.05169e-19 5.95863e-19 -0.00971842)
(-1.49839e-19 1.21258e-18 -0.00973222)
(5.32388e-19 3.04522e-19 -0.00974482)
(-4.72112e-19 7.8733e-19 -0.00975622)
(-9.12691e-20 1.16881e-18 -0.00976639)
(3.63458e-19 1.2362e-18 -0.00977532)
(2.10004e-19 5.09465e-19 -0.00978299)
(-1.35075e-19 4.71451e-19 -0.0097894)
(-2.9546e-19 1.61534e-19 -0.00979454)
(8.02136e-19 3.27658e-19 -0.0097984)
(6.53941e-21 -2.95684e-19 -0.00980098)
(6.08455e-19 7.60882e-20 -0.00980227)
(3.83458e-20 -4.9659e-19 -0.00980227)
(5.83792e-19 -3.64564e-19 -0.00980098)
(1.99523e-19 -6.56944e-19 -0.0097984)
(3.48453e-19 -4.72965e-19 -0.00979454)
(-1.66311e-19 -4.73396e-19 -0.0097894)
(2.25109e-20 -6.44916e-19 -0.00978299)
(-7.81961e-19 6.81922e-20 -0.00977532)
(-4.9533e-19 2.01991e-19 -0.00976639)
(-1.36708e-19 3.71392e-19 -0.00975622)
(-4.39103e-19 -1.20487e-19 -0.00974482)
(-6.01584e-19 2.83271e-19 -0.00973222)
(3.59201e-19 4.99754e-19 -0.00971842)
(-3.53378e-19 5.39921e-19 -0.00970346)
(2.80362e-19 3.58059e-19 -0.00968735)
(-4.31796e-19 -1.89295e-19 -0.00967013)
(-4.84185e-19 8.47492e-19 -0.00965182)
(5.58506e-19 1.31065e-18 -0.00963245)
(7.87695e-21 -6.26871e-19 -0.00961204)
(1.85538e-19 -3.00371e-19 -0.00959064)
(4.32179e-19 -1.27034e-19 -0.00934557)
(-5.87331e-19 -7.58986e-20 -0.00937207)
(-1.56387e-19 -2.68028e-19 -0.00939791)
(-6.48761e-19 -1.66387e-19 -0.00942299)
(-1.12963e-19 -1.15408e-18 -0.00944727)
(-5.52338e-19 4.5872e-19 -0.00947069)
(-2.98472e-19 4.1387e-19 -0.00949319)
(-9.29749e-19 7.45316e-19 -0.00951472)
(-6.37155e-19 1.11942e-18 -0.00953525)
(-1.26086e-18 1.16456e-18 -0.00955474)
(1.00505e-19 1.56027e-19 -0.00957317)
(-1.36225e-18 5.04466e-19 -0.00959049)
(5.15326e-19 1.05437e-18 -0.00960669)
(-6.11632e-19 6.30212e-19 -0.00962175)
(-4.80445e-20 1.22334e-18 -0.00963562)
(4.17201e-19 2.51516e-19 -0.00964831)
(-4.89093e-19 7.90318e-19 -0.00965977)
(-9.78671e-20 1.1502e-18 -0.00967)
(2.65454e-19 1.23118e-18 -0.00967898)
(3.84455e-19 5.54531e-19 -0.0096867)
(-8.27263e-20 4.94587e-19 -0.00969315)
(-2.62414e-19 1.29936e-19 -0.00969832)
(5.8066e-19 3.01328e-19 -0.0097022)
(-3.59029e-20 -3.0803e-19 -0.0097048)
(6.18113e-19 8.2135e-20 -0.00970609)
(-2.09611e-19 -5.07697e-19 -0.00970609)
(6.06929e-19 -3.85721e-19 -0.0097048)
(1.88503e-19 -6.6401e-19 -0.0097022)
(3.18031e-19 -4.54809e-19 -0.00969832)
(-2.02263e-19 -4.69005e-19 -0.00969315)
(4.89387e-20 -6.53147e-19 -0.0096867)
(-7.11087e-19 7.76868e-20 -0.00967898)
(-5.94983e-19 2.12798e-19 -0.00967)
(-1.24092e-19 3.65771e-19 -0.00965977)
(-3.30447e-19 -1.64071e-19 -0.00964831)
(-7.42542e-19 3.066e-19 -0.00963562)
(4.34716e-19 4.90524e-19 -0.00962175)
(-2.46204e-19 5.1945e-19 -0.00960669)
(2.39213e-19 3.75104e-19 -0.00959049)
(-4.46043e-19 -1.83166e-19 -0.00957317)
(-5.24643e-19 8.84496e-19 -0.00955474)
(7.81804e-19 1.23071e-18 -0.00953525)
(5.56295e-20 -6.62746e-19 -0.00951472)
(2.02802e-19 -2.92799e-19 -0.00949318)
(4.70216e-19 -9.04043e-20 -0.00924488)
(-6.76561e-19 -1.17779e-19 -0.00927157)
(-1.59398e-19 -2.8081e-19 -0.00929758)
(-6.08612e-19 -1.28692e-19 -0.00932283)
(7.08754e-21 -1.14524e-18 -0.00934727)
(-6.85956e-19 3.32916e-19 -0.00937083)
(-3.1762e-19 4.00345e-19 -0.00939348)
(-1.11605e-18 6.38665e-19 -0.00941515)
(-5.53369e-19 1.1927e-18 -0.00943581)
(-1.21935e-18 1.22536e-18 -0.00945542)
(9.0563e-20 1.2567e-19 -0.00947396)
(-1.08094e-18 5.9827e-19 -0.00949139)
(3.02767e-19 9.51925e-19 -0.00950769)
(-5.7089e-19 6.59772e-19 -0.00952284)
(1.33101e-19 1.26772e-18 -0.00953681)
(3.39018e-19 2.19873e-19 -0.00954956)
(-5.11858e-19 7.82668e-19 -0.0095611)
(-1.15358e-19 1.13564e-18 -0.00957139)
(1.79407e-19 1.22232e-18 -0.00958043)
(4.70924e-19 5.79394e-19 -0.0095882)
(-7.0667e-20 5.22562e-19 -0.00959468)
(-1.94339e-19 1.12031e-19 -0.00959989)
(5.03162e-19 2.94196e-19 -0.00960379)
(-1.09583e-19 -3.31934e-19 -0.0096064)
(6.7324e-19 9.39519e-20 -0.0096077)
(-3.53133e-19 -5.21038e-19 -0.0096077)
(5.92962e-19 -4.13824e-19 -0.0096064)
(2.27767e-19 -6.6554e-19 -0.00960379)
(2.95891e-19 -4.39177e-19 -0.00959989)
(-1.59298e-19 -4.76026e-19 -0.00959469)
(-3.80318e-20 -6.40011e-19 -0.0095882)
(-6.5352e-19 9.2881e-20 -0.00958043)
(-5.58062e-19 1.92943e-19 -0.00957139)
(-5.25989e-20 3.40263e-19 -0.0095611)
(-2.30324e-19 -1.90874e-19 -0.00954957)
(-8.91559e-19 3.35995e-19 -0.00953681)
(2.80207e-19 5.50895e-19 -0.00952284)
(-1.10635e-19 4.83994e-19 -0.00950769)
(2.44372e-19 3.75905e-19 -0.00949139)
(-4.16997e-19 -1.97648e-19 -0.00947396)
(-4.30271e-19 8.43335e-19 -0.00945542)
(8.2707e-19 1.24907e-18 -0.00943581)
(2.50737e-19 -7.73913e-19 -0.00941514)
(2.06284e-19 -2.78975e-19 -0.00939347)
(5.21116e-19 -3.68345e-20 -0.00914179)
(-7.85524e-19 -1.69116e-19 -0.00916867)
(-9.92668e-20 -2.52226e-19 -0.00919485)
(-5.23335e-19 -5.77451e-20 -0.00922028)
(-6.50662e-21 -1.22824e-18 -0.00924488)
(-6.46636e-19 3.34459e-19 -0.0092686)
(-3.70317e-19 3.7678e-19 -0.00929139)
(-1.31633e-18 5.0943e-19 -0.0093132)
(-4.40875e-19 1.27016e-18 -0.009334)
(-1.26673e-18 1.25221e-18 -0.00935374)
(1.82791e-19 1.33066e-19 -0.00937239)
(-9.88209e-19 6.13879e-19 -0.00938994)
(3.11383e-19 9.42837e-19 -0.00940634)
(-6.43135e-19 6.40743e-19 -0.00942159)
(9.36434e-20 1.23981e-18 -0.00943564)
(2.46387e-19 1.88187e-19 -0.00944848)
(-6.90697e-19 7.38647e-19 -0.00946009)
(-2.45084e-19 1.09261e-18 -0.00947045)
(6.56864e-20 1.20837e-18 -0.00947954)
(3.71874e-19 5.7156e-19 -0.00948735)
(-8.37724e-20 5.3955e-19 -0.00949388)
(-9.99745e-20 9.3697e-20 -0.00949912)
(6.08846e-19 3.05242e-19 -0.00950305)
(-5.43118e-20 -3.4831e-19 -0.00950567)
(5.68154e-19 1.06571e-19 -0.00950699)
(-3.11014e-19 -5.31009e-19 -0.00950699)
(4.44286e-19 -4.39988e-19 -0.00950567)
(2.24272e-19 -6.71018e-19 -0.00950305)
(2.66684e-19 -4.1755e-19 -0.00949912)
(-7.72901e-20 -4.80072e-19 -0.00949388)
(-1.34784e-19 -6.25474e-19 -0.00948736)
(-5.48581e-19 9.04258e-20 -0.00947954)
(-4.63931e-19 1.5733e-19 -0.00947045)
(6.7981e-20 3.00965e-19 -0.00946009)
(-1.29822e-19 -2.15611e-19 -0.00944848)
(-7.35227e-19 2.77858e-19 -0.00943564)
(2.02915e-19 5.79935e-19 -0.00942159)
(-4.07475e-20 4.70244e-19 -0.00940635)
(1.87452e-19 4.07753e-19 -0.00938994)
(-4.46472e-19 -1.93155e-19 -0.00937239)
(-3.96401e-19 8.42165e-19 -0.00935374)
(7.27243e-19 1.3418e-18 -0.009334)
(3.83256e-19 -8.58001e-19 -0.0093132)
(1.92573e-19 -2.40919e-19 -0.00929139)
(-4.55292e-19 -1.22793e-18 -0.0092686)
(4.87145e-19 -5.79113e-20 -0.00903617)
(-7.43001e-19 -8.81152e-20 -0.00906324)
(6.50624e-20 -1.45213e-19 -0.00908961)
(-5.02311e-19 -2.29501e-20 -0.00911521)
(-3.3094e-20 -1.32475e-18 -0.00913998)
(-6.65374e-19 2.85671e-19 -0.00916386)
(-4.14139e-19 3.69586e-19 -0.0091868)
(-1.31622e-18 5.01005e-19 -0.00920876)
(-5.45522e-19 1.22469e-18 -0.00922969)
(-1.27229e-18 1.29467e-18 -0.00924956)
(4.37021e-19 2.17388e-19 -0.00926834)
(-1.03037e-18 5.69446e-19 -0.009286)
(3.61398e-19 9.56489e-19 -0.00930251)
(-8.1297e-19 5.96931e-19 -0.00931786)
(7.45777e-21 1.19639e-18 -0.009332)
(1.17526e-19 1.51297e-19 -0.00934493)
(-7.76794e-19 7.17241e-19 -0.00935661)
(-3.64125e-19 1.04849e-18 -0.00936703)
(-8.91316e-20 1.18424e-18 -0.00937618)
(3.56305e-19 5.72052e-19 -0.00938405)
(-3.63444e-20 5.60572e-19 -0.00939062)
(-1.01055e-19 6.01182e-20 -0.00939589)
(5.84982e-19 3.06861e-19 -0.00939985)
(9.21167e-21 -3.51581e-19 -0.00940249)
(4.51991e-19 1.19824e-19 -0.00940381)
(-1.94775e-19 -5.44835e-19 -0.00940381)
(3.67103e-19 -4.62861e-19 -0.00940249)
(1.1679e-19 -6.68161e-19 -0.00939985)
(2.24987e-19 -4.02875e-19 -0.00939589)
(3.43356e-20 -4.88681e-19 -0.00939062)
(-2.49809e-19 -6.06911e-19 -0.00938405)
(-4.19634e-19 8.07295e-20 -0.00937618)
(-4.34114e-19 1.38105e-19 -0.00936703)
(6.54246e-20 2.95182e-19 -0.00935661)
(-9.49542e-20 -2.25524e-19 -0.00934493)
(-6.1948e-19 2.32061e-19 -0.009332)
(2.13055e-19 5.88572e-19 -0.00931786)
(-6.23154e-20 4.99957e-19 -0.00930251)
(2.9649e-19 3.69652e-19 -0.009286)
(-5.77834e-19 -1.39415e-19 -0.00926834)
(-5.06168e-19 9.14397e-19 -0.00924956)
(8.13603e-19 1.32933e-18 -0.00922969)
(3.3608e-19 -8.3332e-19 -0.00920876)
(1.23505e-19 -1.61036e-19 -0.0091868)
(-5.49603e-19 -1.19724e-18 -0.00916386)
(3.95229e-19 -1.34301e-19 -0.00892787)
(-5.97707e-19 7.12404e-20 -0.00895514)
(2.34409e-19 -2.29919e-20 -0.0089817)
(-5.50776e-19 -3.25677e-20 -0.00900748)
(5.93135e-20 -1.32922e-18 -0.00903242)
(-9.59607e-19 5.39581e-20 -0.00905647)
(-5.49325e-19 2.90683e-19 -0.00907957)
(-1.33577e-18 4.8516e-19 -0.00910168)
(-7.55415e-19 1.12277e-18 -0.00912275)
(-1.24248e-18 1.33539e-18 -0.00914276)
(5.59307e-19 2.40234e-19 -0.00916166)
(-1.00634e-18 5.68429e-19 -0.00917944)
(2.34529e-19 9.00113e-19 -0.00919607)
(-7.93608e-19 6.24027e-19 -0.00921151)
(7.3379e-20 1.20099e-18 -0.00922575)
(5.96446e-20 1.30712e-19 -0.00923876)
(-6.49933e-19 7.54772e-19 -0.00925052)
(-4.12071e-19 1.02745e-18 -0.00926101)
(-7.81389e-20 1.18823e-18 -0.00927023)
(4.36082e-19 5.80098e-19 -0.00927815)
(-3.1813e-21 5.84415e-19 -0.00928476)
(-2.52891e-19 1.93423e-20 -0.00929006)
(4.62151e-19 2.97443e-19 -0.00929405)
(7.79721e-20 -3.61167e-19 -0.0092967)
(4.67326e-19 1.33634e-19 -0.00929803)
(-6.73534e-20 -5.58331e-19 -0.00929803)
(3.00658e-19 -4.78218e-19 -0.0092967)
(5.35851e-20 -6.70928e-19 -0.00929405)
(2.77006e-19 -4.03412e-19 -0.00929006)
(9.3434e-20 -4.81165e-19 -0.00928476)
(-2.62436e-19 -6.06264e-19 -0.00927815)
(-3.95756e-19 8.73544e-20 -0.00927023)
(-3.37665e-19 1.10733e-19 -0.00926102)
(-7.47372e-20 3.25662e-19 -0.00925052)
(-1.60976e-19 -2.08313e-19 -0.00923876)
(-7.62539e-19 2.75676e-19 -0.00922575)
(-1.7971e-20 6.86702e-19 -0.00921151)
(-8.3772e-20 5.1827e-19 -0.00919607)
(4.87984e-19 2.99935e-19 -0.00917944)
(-7.01938e-19 -7.30886e-20 -0.00916166)
(-6.07888e-19 9.66819e-19 -0.00914276)
(9.16784e-19 1.30415e-18 -0.00912275)
(3.90519e-19 -8.60145e-19 -0.00910168)
(1.85911e-19 -1.63744e-19 -0.00907957)
(-5.44022e-19 -1.23585e-18 -0.00905647)
(2.42764e-19 -2.7029e-19 -0.00881676)
(-5.48939e-19 1.34726e-19 -0.00884423)
(3.64136e-19 7.44008e-20 -0.00887099)
(-5.13247e-19 2.90937e-20 -0.00889695)
(1.434e-19 -1.32574e-18 -0.00892207)
(-1.18115e-18 -1.18236e-19 -0.00894629)
(-6.6298e-19 2.12674e-19 -0.00896955)
(-1.49282e-18 3.88427e-19 -0.00899181)
(-8.54607e-19 1.07658e-18 -0.00901303)
(-1.11875e-18 1.41955e-18 -0.00903318)
(5.07255e-19 1.76975e-19 -0.00905221)
(-8.48702e-19 6.30294e-19 -0.00907011)
(7.69695e-20 8.28774e-19 -0.00908685)
(-5.08993e-19 7.36095e-19 -0.0091024)
(2.56853e-19 1.25364e-18 -0.00911674)
(-4.35388e-20 9.70966e-20 -0.00912984)
(-4.42701e-19 8.11074e-19 -0.00914168)
(-4.05842e-19 1.01956e-18 -0.00915224)
(1.64187e-19 1.23517e-18 -0.00916152)
(4.81999e-19 5.87985e-19 -0.00916949)
(-4.84085e-20 6.09521e-19 -0.00917615)
(-3.40562e-19 -1.39817e-20 -0.00918149)
(4.91807e-19 2.89502e-19 -0.0091855)
(1.35671e-19 -3.73953e-19 -0.00918817)
(4.81358e-19 1.47459e-19 -0.00918951)
(1.1623e-20 -5.65701e-19 -0.00918951)
(1.89872e-19 -4.86886e-19 -0.00918817)
(3.48545e-20 -6.82929e-19 -0.0091855)
(2.35696e-19 -3.95998e-19 -0.00918149)
(1.65258e-19 -4.76304e-19 -0.00917615)
(-2.17458e-19 -6.11512e-19 -0.00916949)
(-4.12008e-19 1.01326e-19 -0.00916152)
(-3.8188e-19 1.20254e-19 -0.00915224)
(-2.69337e-19 3.82304e-19 -0.00914168)
(-2.56872e-19 -1.77949e-19 -0.00912984)
(-9.01231e-19 3.26354e-19 -0.00911674)
(-2.79909e-19 7.87756e-19 -0.0091024)
(-8.78633e-20 5.11717e-19 -0.00908685)
(4.00424e-19 3.58782e-19 -0.00907011)
(-6.9754e-19 -6.24901e-20 -0.00905221)
(-5.91652e-19 9.55249e-19 -0.00903318)
(8.81093e-19 1.34784e-18 -0.00901303)
(5.8435e-19 -9.79142e-19 -0.00899181)
(3.03972e-19 -1.96069e-19 -0.00896955)
(-5.34476e-19 -1.26713e-18 -0.00894629)
(6.00183e-20 -4.22541e-19 -0.00870267)
(-5.8545e-19 1.05982e-19 -0.00873035)
(4.91115e-19 1.62234e-19 -0.00875731)
(-3.53918e-19 1.93162e-19 -0.00878346)
(1.52132e-19 -1.37046e-18 -0.00880876)
(-1.18896e-18 -1.39608e-19 -0.00883316)
(-6.9342e-19 1.93991e-19 -0.00885658)
(-1.65139e-18 2.87518e-19 -0.008879)
(-9.1856e-19 1.03342e-18 -0.00890037)
(-1.0171e-18 1.49401e-18 -0.00892066)
(4.09488e-19 8.90721e-20 -0.00893983)
(-7.26755e-19 6.78869e-19 -0.00895785)
(-3.88812e-20 7.67362e-19 -0.00897471)
(-2.97937e-19 8.11139e-19 -0.00899037)
(2.2223e-19 1.25323e-18 -0.00900481)
(-9.87736e-20 7.50212e-20 -0.009018)
(-2.23417e-19 8.65188e-19 -0.00902992)
(-4.27131e-19 1.00141e-18 -0.00904056)
(2.4367e-19 1.24893e-18 -0.0090499)
(2.82269e-19 5.65776e-19 -0.00905793)
(-6.82523e-20 6.36658e-19 -0.00906464)
(-2.57256e-19 -3.51573e-20 -0.00907001)
(5.52275e-19 2.85172e-19 -0.00907405)
(1.0488e-19 -3.87464e-19 -0.00907674)
(4.76256e-19 1.61713e-19 -0.00907809)
(5.17158e-20 -5.6927e-19 -0.00907809)
(2.18847e-19 -4.9988e-19 -0.00907674)
(4.5369e-21 -6.93088e-19 -0.00907405)
(1.02412e-19 -3.81861e-19 -0.00907001)
(2.58153e-19 -4.75266e-19 -0.00906464)
(-1.8432e-19 -6.11153e-19 -0.00905793)
(-3.86118e-19 1.1482e-19 -0.0090499)
(-4.97566e-19 1.54796e-19 -0.00904056)
(-3.88023e-19 4.1051e-19 -0.00902992)
(-1.72575e-19 -2.07993e-19 -0.009018)
(-7.98471e-19 2.98829e-19 -0.00900481)
(-3.55553e-19 8.18115e-19 -0.00899037)
(-3.48115e-20 4.89386e-19 -0.00897471)
(2.41709e-19 4.46721e-19 -0.00895785)
(-6.27427e-19 -9.92489e-20 -0.00893983)
(-5.46734e-19 9.34393e-19 -0.00892066)
(8.89202e-19 1.36116e-18 -0.00890037)
(7.25503e-19 -1.07318e-18 -0.008879)
(3.42622e-19 -1.63159e-19 -0.00885658)
(3.88773e-20 -4.08464e-19 -0.00858544)
(-5.21746e-19 1.51093e-19 -0.00861334)
(5.81402e-19 2.06513e-19 -0.0086405)
(-2.68967e-19 3.10338e-19 -0.00866684)
(1.59212e-19 -1.40869e-18 -0.00869233)
(-1.20408e-18 -1.70636e-19 -0.0087169)
(-6.94923e-19 1.99634e-19 -0.0087405)
(-1.69929e-18 2.57979e-19 -0.00876308)
(-1.08913e-18 9.2492e-19 -0.0087846)
(-8.87134e-19 1.58315e-18 -0.00880504)
(3.06117e-19 -3.74637e-21 -0.00882434)
(-7.30345e-19 6.69049e-19 -0.0088425)
(-1.31822e-19 7.15383e-19 -0.00885948)
(-2.57381e-19 8.27426e-19 -0.00887525)
(-4.31019e-20 1.17668e-18 -0.00888979)
(-1.38104e-19 4.21009e-20 -0.00890308)
(-1.28422e-20 9.19263e-19 -0.00891508)
(-5.22264e-19 9.78197e-19 -0.0089258)
(1.96375e-19 1.24636e-18 -0.0089352)
(-8.90667e-20 5.07451e-19 -0.00894329)
(-9.08102e-21 6.6006e-19 -0.00895004)
(-1.96178e-19 -5.8964e-20 -0.00895546)
(5.16245e-19 2.79408e-19 -0.00895952)
(3.44689e-20 -4.02075e-19 -0.00896224)
(4.98485e-19 1.73294e-19 -0.00896359)
(1.16229e-19 -5.77971e-19 -0.00896359)
(3.01345e-19 -5.12433e-19 -0.00896224)
(-1.02698e-19 -6.87918e-19 -0.00895952)
(3.62695e-20 -3.79528e-19 -0.00895546)
(3.91804e-19 -4.86266e-19 -0.00895004)
(-7.63056e-20 -6.21469e-19 -0.00894329)
(-3.57522e-19 1.31089e-19 -0.0089352)
(-5.15073e-19 1.67614e-19 -0.0089258)
(-3.35428e-19 3.87557e-19 -0.00891508)
(-1.4735e-21 -2.71246e-19 -0.00890308)
(-6.16963e-19 2.52254e-19 -0.00888979)
(-2.84366e-19 7.9803e-19 -0.00887525)
(2.06424e-20 4.65445e-19 -0.00885948)
(3.16069e-19 4.33768e-19 -0.0088425)
(-6.30816e-19 -1.01697e-19 -0.00882434)
(-6.54325e-19 9.90392e-19 -0.00880504)
(1.02929e-18 1.29593e-18 -0.0087846)
(7.3607e-19 -1.08762e-18 -0.00876308)
(3.40775e-19 -1.0029e-19 -0.00874049)
(2.17217e-19 -2.18588e-19 -0.00846488)
(-3.05995e-19 3.33715e-19 -0.008493)
(5.79098e-19 1.81127e-19 -0.00852037)
(-4.079e-19 2.54756e-19 -0.00854691)
(2.22611e-19 -1.40388e-18 -0.00857259)
(-1.29161e-18 -2.49094e-19 -0.00859734)
(-6.68909e-19 2.18879e-19 -0.00862111)
(-1.71713e-18 2.54121e-19 -0.00864386)
(-1.26484e-18 8.04207e-19 -0.00866554)
(-6.99991e-19 1.69601e-18 -0.00868612)
(3.3092e-19 -2.62383e-20 -0.00870557)
(-7.79507e-19 6.40132e-19 -0.00872386)
(-1.01537e-19 7.08786e-19 -0.00874096)
(-1.48357e-19 8.77246e-19 -0.00875685)
(-2.3596e-19 1.13222e-18 -0.0087715)
(-1.1012e-19 1.02024e-20 -0.00878488)
(2.66049e-20 9.27736e-19 -0.00879698)
(-7.0523e-19 9.37761e-19 -0.00880777)
(2.48464e-19 1.27013e-18 -0.00881724)
(-2.54076e-19 4.83423e-19 -0.00882539)
(8.4463e-20 6.76808e-19 -0.00883219)
(-1.50155e-19 -7.97172e-20 -0.00883764)
(4.02562e-19 2.69872e-19 -0.00884174)
(1.26024e-19 -4.13641e-19 -0.00884447)
(5.34501e-19 1.81697e-19 -0.00884584)
(2.269e-19 -5.85839e-19 -0.00884584)
(2.96034e-19 -5.12228e-19 -0.00884447)
(-2.69106e-19 -6.77872e-19 -0.00884174)
(2.61028e-20 -3.9441e-19 -0.00883764)
(4.94367e-19 -4.94714e-19 -0.00883219)
(-2.45518e-20 -6.15769e-19 -0.00882539)
(-3.55292e-19 1.59267e-19 -0.00881724)
(-4.83737e-19 1.65e-19 -0.00880777)
(-2.11904e-19 3.381e-19 -0.00879698)
(4.42127e-20 -2.98253e-19 -0.00878488)
(-4.36946e-19 2.05855e-19 -0.0087715)
(-1.70471e-19 7.6568e-19 -0.00875685)
(-1.58293e-20 4.78369e-19 -0.00874096)
(5.07543e-19 3.71828e-19 -0.00872386)
(-6.92011e-19 -6.30356e-20 -0.00870557)
(-8.3843e-19 1.0753e-18 -0.00868612)
(1.15446e-18 1.23087e-18 -0.00866554)
(6.94174e-19 -1.06202e-18 -0.00864386)
(3.59953e-19 -5.87448e-20 -0.00862111)
(4.11462e-19 -3.85482e-20 -0.00834081)
(-1.82266e-19 4.50724e-19 -0.00836916)
(5.41395e-19 1.49334e-19 -0.00839673)
(-6.11733e-19 1.46168e-19 -0.00842348)
(3.28965e-19 -1.37279e-18 -0.00844935)
(-1.35837e-18 -3.15273e-19 -0.00847428)
(-6.38058e-19 2.38977e-19 -0.00849823)
(-1.85449e-18 1.86485e-19 -0.00852115)
(-1.33274e-18 7.33231e-19 -0.00854299)
(-6.76706e-19 1.71213e-18 -0.00856373)
(4.20818e-19 -1.02341e-20 -0.00858332)
(-8.04288e-19 6.20248e-19 -0.00860174)
(3.45355e-20 7.36855e-19 -0.00861897)
(-2.21081e-20 9.42133e-19 -0.00863498)
(-2.04625e-19 1.16513e-18 -0.00864974)
(2.07194e-20 9.62278e-21 -0.00866322)
(-1.00294e-19 9.04826e-19 -0.0086754)
(-7.72704e-19 9.18101e-19 -0.00868628)
(2.58482e-19 1.2754e-18 -0.00869582)
(-2.31465e-19 4.89464e-19 -0.00870402)
(1.41071e-19 6.87522e-19 -0.00871088)
(-1.00246e-19 -9.30536e-20 -0.00871637)
(3.30776e-19 2.58564e-19 -0.0087205)
(2.65404e-19 -4.28342e-19 -0.00872325)
(5.15452e-19 1.93141e-19 -0.00872463)
(3.66573e-19 -5.9228e-19 -0.00872463)
(2.99579e-19 -5.02933e-19 -0.00872325)
(-3.35418e-19 -6.7529e-19 -0.0087205)
(-9.17849e-21 -4.12576e-19 -0.00871637)
(4.58241e-19 -4.83504e-19 -0.00871088)
(-6.65917e-20 -5.91204e-19 -0.00870402)
(-3.58107e-19 1.84823e-19 -0.00869582)
(-4.47004e-19 1.55627e-19 -0.00868628)
(-1.35671e-19 3.06968e-19 -0.0086754)
(3.11325e-21 -3.01636e-19 -0.00866322)
(-3.22529e-19 1.77859e-19 -0.00864974)
(-1.80791e-19 7.90457e-19 -0.00863498)
(-8.58237e-20 4.99104e-19 -0.00861897)
(6.80878e-19 3.17719e-19 -0.00860174)
(-8.20686e-19 2.11888e-20 -0.00858332)
(-8.92148e-19 1.0861e-18 -0.00856373)
(1.18621e-18 1.2119e-18 -0.00854299)
(6.93595e-19 -1.06202e-18 -0.00852115)
(3.39823e-19 2.15291e-21 -0.00849823)
(5.18501e-19 5.11677e-20 -0.00821302)
(-2.63571e-19 3.9183e-19 -0.00824159)
(5.03884e-19 1.25188e-19 -0.00826938)
(-6.86662e-19 1.35306e-19 -0.00829633)
(4.98427e-19 -1.30196e-18 -0.0083224)
(-1.34085e-18 -3.18118e-19 -0.00834752)
(-7.23258e-19 1.89574e-19 -0.00837165)
(-1.94353e-18 1.49506e-19 -0.00839474)
(-1.32102e-18 6.99031e-19 -0.00841675)
(-7.86477e-19 1.65433e-18 -0.00843764)
(4.66472e-19 -2.02686e-20 -0.00845738)
(-7.75191e-19 6.23505e-19 -0.00847594)
(7.61932e-20 7.22139e-19 -0.0084933)
(-9.83615e-20 9.31833e-19 -0.00850943)
(-4.92963e-20 1.24115e-18 -0.00852429)
(1.03434e-19 1.29018e-21 -0.00853788)
(-1.99839e-19 8.88826e-19 -0.00855015)
(-5.934e-19 9.52504e-19 -0.00856111)
(2.3646e-19 1.2756e-18 -0.00857072)
(-2.31623e-19 4.90336e-19 -0.00857899)
(8.97488e-20 6.82731e-19 -0.00858589)
(-6.06371e-20 -1.07102e-19 -0.00859143)
(3.19071e-19 2.51578e-19 -0.00859559)
(3.04306e-19 -4.4626e-19 -0.00859836)
(4.01185e-19 2.00592e-19 -0.00859975)
(4.59596e-19 -6.00323e-19 -0.00859975)
(2.90675e-19 -4.88472e-19 -0.00859836)
(-3.5639e-19 -6.73328e-19 -0.00859559)
(-6.85576e-20 -4.24363e-19 -0.00859143)
(3.67215e-19 -4.62632e-19 -0.0085859)
(-1.57057e-19 -5.60234e-19 -0.00857899)
(-3.75968e-19 2.14083e-19 -0.00857072)
(-5.57671e-19 1.8039e-19 -0.00856111)
(-1.35668e-19 2.94685e-19 -0.00855015)
(1.38664e-20 -3.20895e-19 -0.00853788)
(-3.22258e-19 1.90096e-19 -0.0085243)
(-1.35602e-19 7.96313e-19 -0.00850943)
(-1.28325e-19 5.00712e-19 -0.0084933)
(7.16988e-19 3.30283e-19 -0.00847594)
(-1.04311e-18 1.54337e-19 -0.00845738)
(-7.83245e-19 1.00365e-18 -0.00843764)
(1.19149e-18 1.20594e-18 -0.00841675)
(6.80618e-19 -1.04972e-18 -0.00839474)
(3.69876e-19 3.29013e-20 -0.00837165)
(5.7152e-19 9.21754e-20 -0.0080813)
(-3.16843e-19 3.64587e-19 -0.0081101)
(4.55189e-19 8.39659e-20 -0.0081381)
(-6.07409e-19 2.37567e-19 -0.00816525)
(7.01893e-19 -1.2073e-18 -0.00819152)
(-1.23499e-18 -2.47026e-19 -0.00821683)
(-8.72223e-19 1.00327e-19 -0.00824114)
(-1.7975e-18 2.47281e-19 -0.0082644)
(-1.20153e-18 7.2681e-19 -0.00828658)
(-9.22278e-19 1.58028e-18 -0.00830763)
(5.04933e-19 -4.12736e-20 -0.00832752)
(-7.10419e-19 6.44573e-19 -0.00834622)
(7.8337e-20 7.00373e-19 -0.00836371)
(-3.29041e-19 8.58687e-19 -0.00837996)
(7.93e-20 1.2998e-18 -0.00839494)
(1.0422e-19 -2.46604e-20 -0.00840863)
(-2.73089e-19 8.74144e-19 -0.008421)
(-4.06521e-19 9.86687e-19 -0.00843204)
(2.25835e-19 1.28527e-18 -0.00844173)
(-2.51969e-19 4.90276e-19 -0.00845006)
(-1.9577e-20 6.68012e-19 -0.00845701)
(-1.08605e-20 -1.23458e-19 -0.00846259)
(2.72415e-19 2.42367e-19 -0.00846678)
(3.13952e-19 -4.61595e-19 -0.00846957)
(2.60871e-19 2.07976e-19 -0.00847097)
(4.56362e-19 -6.10007e-19 -0.00847097)
(1.97977e-19 -4.65553e-19 -0.00846957)
(-3.6e-19 -6.71236e-19 -0.00846678)
(-1.45402e-19 -4.34045e-19 -0.00846259)
(3.24142e-19 -4.46718e-19 -0.00845701)
(-2.07151e-19 -5.35483e-19 -0.00845006)
(-4.00294e-19 2.46734e-19 -0.00844173)
(-6.01962e-19 1.87146e-19 -0.00843204)
(-1.14252e-19 2.70063e-19 -0.008421)
(3.88956e-20 -3.44684e-19 -0.00840863)
(-4.85459e-19 2.53853e-19 -0.00839495)
(4.87548e-20 7.52947e-19 -0.00837996)
(-1.73048e-19 5.10131e-19 -0.00836371)
(6.03272e-19 4.18513e-19 -0.00834622)
(-1.2332e-18 2.64268e-19 -0.00832752)
(-5.58942e-19 8.49113e-19 -0.00830763)
(1.11222e-18 1.25284e-18 -0.00828658)
(5.64719e-19 -9.82146e-19 -0.0082644)
(5.26864e-19 -1.83074e-20 -0.00824114)
(5.86187e-19 9.06907e-20 -0.0079454)
(-2.19076e-19 4.75399e-19 -0.00797443)
(3.67665e-19 6.81466e-21 -0.00800265)
(-4.22954e-19 4.13865e-19 -0.00803001)
(8.89448e-19 -1.1247e-18 -0.00805647)
(-1.08296e-18 -1.30504e-19 -0.00808198)
(-9.19983e-19 7.06932e-20 -0.00810647)
(-1.59737e-18 3.63567e-19 -0.00812991)
(-9.88164e-19 8.19844e-19 -0.00815225)
(-1.07103e-18 1.50312e-18 -0.00817346)
(5.35364e-19 -7.57584e-20 -0.0081935)
(-6.28221e-19 6.74301e-19 -0.00821235)
(3.80707e-20 6.7033e-19 -0.00822997)
(-3.54146e-19 8.60799e-19 -0.00824635)
(1.66544e-19 1.34141e-18 -0.00826144)
(1.08986e-20 -7.52608e-20 -0.00827523)
(-3.01557e-19 8.64368e-19 -0.0082877)
(-3.75751e-19 9.79424e-19 -0.00829882)
(2.10073e-19 1.29773e-18 -0.00830858)
(-2.30045e-19 5.00914e-19 -0.00831698)
(-5.02318e-20 6.61927e-19 -0.00832399)
(4.89251e-20 -1.39842e-19 -0.00832961)
(1.88029e-19 2.32113e-19 -0.00833383)
(3.37574e-19 -4.75009e-19 -0.00833665)
(1.76518e-19 2.1756e-19 -0.00833805)
(4.10624e-19 -6.18114e-19 -0.00833805)
(9.66488e-20 -4.43935e-19 -0.00833665)
(-2.88426e-19 -6.75694e-19 -0.00833383)
(-2.04822e-19 -4.43449e-19 -0.00832961)
(3.88274e-19 -4.47501e-19 -0.00832399)
(-1.62318e-19 -5.25549e-19 -0.00831698)
(-3.83652e-19 2.70143e-19 -0.00830858)
(-5.38534e-19 1.65913e-19 -0.00829882)
(-7.98079e-20 2.4264e-19 -0.0082877)
(9.89741e-20 -3.67032e-19 -0.00827523)
(-7.77203e-19 3.55297e-19 -0.00826144)
(7.69413e-20 7.59119e-19 -0.00824635)
(-2.20927e-19 5.3285e-19 -0.00822997)
(4.65171e-19 5.21227e-19 -0.00821235)
(-1.17826e-18 2.39106e-19 -0.0081935)
(-2.95137e-19 6.72271e-19 -0.00817346)
(9.70828e-19 1.34956e-18 -0.00815225)
(4.50911e-19 -9.28343e-19 -0.00812991)
(5.45447e-19 1.92312e-20 -0.00810647)
(6.03918e-19 8.28338e-20 -0.00780509)
(-1.21335e-19 5.92518e-19 -0.00783435)
(2.73912e-19 -7.78065e-20 -0.00786278)
(-2.70149e-19 5.54394e-19 -0.00789034)
(1.0781e-18 -1.03895e-18 -0.007917)
(-9.20042e-19 -1.45502e-21 -0.0079427)
(-8.09219e-19 1.44171e-19 -0.00796738)
(-1.52467e-18 3.96325e-19 -0.00799099)
(-9.01784e-19 8.49329e-19 -0.00801351)
(-1.21611e-18 1.43441e-18 -0.00803488)
(5.04082e-19 -1.49241e-19 -0.00805507)
(-6.05846e-19 6.81037e-19 -0.00807406)
(-1.86964e-20 6.31228e-19 -0.00809182)
(-2.11363e-19 9.18581e-19 -0.00810832)
(2.98149e-19 1.40831e-18 -0.00812353)
(-5.23177e-20 -1.13673e-19 -0.00813742)
(-2.50647e-19 8.73747e-19 -0.00814998)