/*--------------------------------*- C++ -*----------------------------------*\
  =========                 |
  \\      /  F ield         | OpenFOAM: The Open Source CFD Toolbox
   \\    /   O peration     | Website:  https://openfoam.org
    \\  /    A nd           | Version:  7
     \\/     M anipulation  |
\*---------------------------------------------------------------------------*/
FoamFile
{
    version     2.0;
    format      ascii;
    class       volVectorField;
    location    "216000";
    object      U;
}
// * * * * * * * * * * * * * * * * * * * * * * * * * * * * * * * * * * * * * //

dimensions      [0 1 -1 0 0 0 0];

internalField   nonuniform List<vector> 
4814
(
(-1.58957e-19 1.28841e-18 -0.0101017)
(9.08072e-20 3.31422e-19 -0.010114)
(-8.82038e-19 7.97267e-19 -0.0101251)
(-4.05698e-19 1.35355e-18 -0.0101351)
(-8.24512e-20 3.05007e-19 -0.00972977)
(-8.56321e-19 1.38223e-19 -0.00975559)
(-7.66216e-19 -9.39403e-20 -0.00978078)
(-6.28606e-19 4.05018e-19 -0.00980525)
(-7.34947e-19 -8.09361e-19 -0.00982895)
(-1.98408e-18 1.37002e-19 -0.0098518)
(-8.61213e-19 9.60775e-19 -0.00987377)
(-1.69765e-18 7.0546e-19 -0.0098948)
(-4.56752e-19 1.12478e-18 -0.00991485)
(-1.1437e-18 1.28011e-18 -0.00993389)
(-5.07591e-19 1.59184e-19 -0.00995189)
(-1.3278e-18 7.66934e-19 -0.00996882)
(6.85741e-19 1.33053e-18 -0.00998465)
(-6.28053e-19 4.16536e-19 -0.00999936)
(-1.693e-19 1.27304e-18 -0.0100129)
(1.76865e-19 3.53989e-19 -0.0100253)
(-7.38049e-19 8.36579e-19 -0.0100365)
(-2.19338e-19 1.39083e-18 -0.0100465)
(-7.82592e-20 1.43292e-18 -0.0100553)
(5.86887e-19 6.60067e-19 -0.0100629)
(1.14773e-19 3.12495e-19 -0.0100692)
(-1.76779e-19 2.9576e-19 -0.0100742)
(6.41388e-19 4.44724e-19 -0.010078)
(1.51647e-19 -8.29525e-20 -0.0100805)
(1.01986e-18 1.1946e-19 -0.0100818)
(2.90968e-19 -5.57987e-19 -0.0100818)
(2.00233e-19 -3.17306e-19 -0.0100805)
(9.79637e-20 -7.23723e-19 -0.010078)
(3.05444e-19 -4.60162e-19 -0.0100742)
(3.35082e-20 -6.12889e-19 -0.0100692)
(-5.36604e-19 -6.40513e-19 -0.0100629)
(-7.20349e-19 2.33366e-20 -0.0100553)
(-8.1839e-19 3.31909e-19 -0.0100465)
(1.96294e-20 2.61091e-19 -0.0100365)
(5.67356e-20 4.68144e-19 -0.00963756)
(-8.39309e-19 2.0271e-19 -0.00966354)
(-5.44365e-19 6.85731e-20 -0.00968889)
(-5.48786e-19 4.89076e-19 -0.00971351)
(-7.88778e-19 -8.36834e-19 -0.00973734)
(-1.77331e-18 2.4138e-19 -0.00976033)
(-9.02468e-19 9.17112e-19 -0.00978242)
(-1.53772e-18 8.03496e-19 -0.00980357)
(-5.14349e-19 1.10105e-18 -0.00982374)
(-1.41112e-18 1.20076e-18 -0.00984289)
(-2.71737e-19 2.54754e-19 -0.00986099)
(-1.33095e-18 7.2157e-19 -0.00987801)
(4.80025e-19 1.23901e-18 -0.00989393)
(-5.83471e-19 4.57066e-19 -0.00990872)
(-8.33262e-20 1.28442e-18 -0.00992236)
(1.98662e-19 3.59478e-19 -0.00993482)
(-7.2317e-19 8.46301e-19 -0.00994609)
(-1.09971e-19 1.40619e-18 -0.00995614)
(2.69571e-20 1.46041e-18 -0.00996497)
(4.37203e-19 6.3192e-19 -0.00997256)
(6.57256e-20 3.20826e-19 -0.0099789)
(-2.13549e-19 2.72146e-19 -0.00998398)
(5.95686e-19 4.34568e-19 -0.0099878)
(1.51123e-19 -1.08237e-19 -0.00999035)
(8.92108e-19 1.12971e-19 -0.00999162)
(3.143e-19 -5.47244e-19 -0.00999162)
(3.70496e-19 -3.22758e-19 -0.00999035)
(5.68214e-20 -7.41868e-19 -0.0099878)
(3.02126e-19 -4.67541e-19 -0.00998398)
(-1.41496e-20 -5.86226e-19 -0.0099789)
(-6.73575e-19 -6.06479e-19 -0.00997256)
(-9.0355e-19 7.36499e-20 -0.00996497)
(-8.41612e-19 3.16324e-19 -0.00995614)
(5.40699e-20 2.5668e-19 -0.00994609)
(-8.75814e-19 5.45477e-20 -0.00993482)
(-6.53385e-19 4.97794e-19 -0.00992236)
(-2.82387e-19 9.59996e-19 -0.00990872)
(3.17794e-19 4.59254e-19 -0.00989393)
(4.87494e-19 3.0862e-20 -0.00987801)
(-4.4115e-19 -3.45534e-19 -0.00986099)
(-3.27814e-19 3.07835e-19 -0.00984289)
(2.23781e-19 6.52134e-19 -0.00954338)
(-9.7434e-19 1.42079e-19 -0.00956953)
(-4.1207e-19 1.67933e-19 -0.00959504)
(-8.20053e-19 3.23756e-19 -0.00961981)
(-7.75306e-19 -8.43052e-19 -0.00964379)
(-1.4126e-18 4.51819e-19 -0.00966691)
(-1.0934e-18 7.8608e-19 -0.00968913)
(-1.39071e-18 8.794e-19 -0.00971041)
(-5.2588e-19 1.12164e-18 -0.00973069)
(-1.54178e-18 1.18674e-18 -0.00974995)
(-1.81538e-19 2.75806e-19 -0.00976816)
(-1.48054e-18 6.28613e-19 -0.00978528)
(5.5871e-19 1.25588e-18 -0.00980129)
(-5.01779e-19 5.04949e-19 -0.00981617)
(-1.77137e-19 1.24253e-18 -0.00982988)
(8.95529e-20 3.26373e-19 -0.00984241)
(-7.39959e-19 8.35981e-19 -0.00985375)
(-3.27863e-20 1.40909e-18 -0.00986386)
(7.46659e-20 1.48554e-18 -0.00987273)
(3.17147e-19 6.14568e-19 -0.00988037)
(9.24777e-20 3.41115e-19 -0.00988674)
(-1.94217e-19 2.53131e-19 -0.00989185)
(6.14464e-19 4.2657e-19 -0.00989569)
(1.90443e-19 -1.19729e-19 -0.00989825)
(6.56963e-19 1.05688e-19 -0.00989953)
(2.47591e-19 -5.50907e-19 -0.00989953)
(4.84314e-19 -3.26839e-19 -0.00989825)
(6.79278e-20 -7.58078e-19 -0.00989569)
(1.94319e-19 -4.59663e-19 -0.00989185)
(2.56052e-20 -5.70616e-19 -0.00988674)
(-6.65118e-19 -5.95878e-19 -0.00988037)
(-9.57848e-19 8.88201e-20 -0.00987273)
(-7.94053e-19 2.81708e-19 -0.00986386)
(-7.47205e-20 3.02627e-19 -0.00985375)
(-7.8022e-19 2.8595e-20 -0.00984241)
(-7.07544e-19 5.05411e-19 -0.00982988)
(-3.17211e-20 8.63376e-19 -0.00981617)
(1.1202e-19 5.26364e-19 -0.00980129)
(4.12762e-19 7.91586e-20 -0.00978528)
(-4.1188e-19 -3.59763e-19 -0.00976816)
(-5.41879e-19 4.38744e-19 -0.00974995)
(1.72058e-19 1.07212e-18 -0.00973069)
(-1.58051e-19 -7.55092e-19 -0.00971041)
(5.78628e-20 -4.3475e-19 -0.00968913)
(1.72338e-19 6.24607e-19 -0.00944714)
(-9.00484e-19 2.68398e-19 -0.00947347)
(-4.61863e-19 1.21954e-19 -0.00949913)
(-9.61468e-19 2.5276e-19 -0.00952406)
(-6.33243e-19 -7.90534e-19 -0.00954819)
(-1.18898e-18 5.82407e-19 -0.00957146)
(-1.09614e-18 7.87179e-19 -0.00959381)
(-1.15793e-18 9.99942e-19 -0.00961521)
(-6.70301e-19 1.07482e-18 -0.00963562)
(-1.48946e-18 1.27088e-18 -0.009655)
(-2.15003e-19 2.43802e-19 -0.00967331)
(-1.55132e-18 5.52166e-19 -0.00969053)
(6.90728e-19 1.28038e-18 -0.00970664)
(-4.89896e-19 5.50363e-19 -0.0097216)
(-3.26397e-19 1.18609e-18 -0.0097354)
(3.84327e-20 2.98444e-19 -0.009748)
(-8.06189e-19 8.07729e-19 -0.0097594)
(-9.3776e-20 1.37739e-18 -0.00976957)
(2.52048e-20 1.49645e-18 -0.0097785)
(2.78229e-19 6.06679e-19 -0.00978617)
(1.36533e-19 3.52326e-19 -0.00979258)
(-7.48654e-20 2.44018e-19 -0.00979772)
(5.94498e-19 4.17374e-19 -0.00980158)
(2.26818e-19 -1.2621e-19 -0.00980416)
(6.98249e-19 1.08992e-19 -0.00980545)
(5.68813e-20 -5.62627e-19 -0.00980545)
(5.56311e-19 -3.34484e-19 -0.00980416)
(1.09553e-19 -7.67402e-19 -0.00980158)
(1.05156e-19 -4.58142e-19 -0.00979772)
(-2.4334e-21 -5.5316e-19 -0.00979258)
(-5.38137e-19 -5.99873e-19 -0.00978617)
(-9.37974e-19 9.53736e-20 -0.0097785)
(-8.98597e-19 2.89559e-19 -0.00976957)
(-1.45734e-19 3.22762e-19 -0.0097594)
(-6.40299e-19 -1.83206e-20 -0.009748)
(-6.67201e-19 4.65572e-19 -0.0097354)
(3.63457e-19 7.20659e-19 -0.0097216)
(1.54107e-20 5.71063e-19 -0.00970664)
(4.20505e-19 7.85289e-20 -0.00969053)
(-2.70663e-19 -4.26132e-19 -0.00967331)
(-6.57579e-19 5.15482e-19 -0.009655)
(3.82707e-19 9.92627e-19 -0.00963562)
(-1.25067e-19 -7.92291e-19 -0.00961521)
(8.29752e-20 -4.43377e-19 -0.00959381)
(1.04945e-19 5.66135e-19 -0.00934873)
(-7.92818e-19 4.21713e-19 -0.00937523)
(-4.95162e-19 1.05345e-19 -0.00940107)
(-8.86916e-19 3.38095e-19 -0.00942615)
(-4.27223e-19 -6.95382e-19 -0.00945044)
(-1.2085e-18 5.47749e-19 -0.00947385)
(-9.3561e-19 8.82074e-19 -0.00949635)
(-1.04766e-18 1.06383e-18 -0.00951788)
(-7.72427e-19 1.05787e-18 -0.00953842)
(-1.38743e-18 1.36994e-18 -0.00955791)
(-1.94359e-19 2.38451e-19 -0.00957633)
(-1.34221e-18 5.96575e-19 -0.00959366)
(5.45364e-19 1.19495e-18 -0.00960986)
(-5.33285e-19 5.74652e-19 -0.00962492)
(-1.45468e-19 1.23812e-18 -0.00963879)
(8.91871e-20 3.02552e-19 -0.00965148)
(-7.91775e-19 8.0508e-19 -0.00966294)
(-2.56759e-19 1.32054e-18 -0.00967317)
(-4.60424e-21 1.50538e-18 -0.00968215)
(3.41205e-19 6.15131e-19 -0.00968987)
(1.24689e-19 3.55172e-19 -0.00969632)
(2.17058e-21 2.30688e-19 -0.00970149)
(4.8971e-19 4.03819e-19 -0.00970538)
(1.57152e-19 -1.48645e-19 -0.00970797)
(8.18722e-19 1.22819e-19 -0.00970926)
(-1.50409e-19 -5.68621e-19 -0.00970926)
(4.70195e-19 -3.47055e-19 -0.00970797)
(1.46409e-19 -7.73511e-19 -0.00970538)
(1.62596e-19 -4.6047e-19 -0.00970149)
(-8.92248e-20 -5.33637e-19 -0.00969632)
(-5.05595e-19 -5.9716e-19 -0.00968987)
(-9.22412e-19 1.13628e-19 -0.00968215)
(-8.88211e-19 2.67726e-19 -0.00967317)
(-8.19622e-20 2.96607e-19 -0.00966294)
(-5.01959e-19 -6.75297e-20 -0.00965148)
(-6.88002e-19 4.39334e-19 -0.00963879)
(4.52178e-19 6.96785e-19 -0.00962492)
(1.27994e-19 5.40859e-19 -0.00960986)
(4.85838e-19 4.41112e-20 -0.00959366)
(-2.21851e-19 -4.41887e-19 -0.00957633)
(-6.53274e-19 5.29717e-19 -0.00955791)
(6.24318e-19 8.95299e-19 -0.00953842)
(-1.65168e-19 -7.75136e-19 -0.00951788)
(2.27686e-20 -3.99805e-19 -0.00949635)
(1.28306e-19 5.97849e-19 -0.00924803)
(-9.39709e-19 3.49308e-19 -0.00927472)
(-4.89785e-19 1.0813e-19 -0.00930073)
(-7.70425e-19 4.45924e-19 -0.00932598)
(-2.5342e-19 -6.14239e-19 -0.00935042)
(-1.21614e-18 5.24088e-19 -0.00937399)
(-8.43112e-19 9.32346e-19 -0.00939663)
(-1.14245e-18 1.01112e-18 -0.0094183)
(-7.08101e-19 1.12648e-18 -0.00943896)
(-1.30965e-18 1.45762e-18 -0.00945858)
(-1.64381e-19 2.26233e-19 -0.00947712)
(-1.12991e-18 6.51061e-19 -0.00949455)
(3.82395e-19 1.11451e-18 -0.00951086)
(-4.99735e-19 6.03935e-19 -0.009526)
(3.59676e-21 1.27264e-18 -0.00953997)
(1.52942e-19 3.17745e-19 -0.00955273)
(-7.99152e-19 8.07562e-19 -0.00956426)
(-3.90983e-19 1.27288e-18 -0.00957456)
(5.7287e-20 1.52294e-18 -0.00958359)
(3.56725e-19 6.16191e-19 -0.00959136)
(8.06695e-20 3.53355e-19 -0.00959785)
(4.70832e-20 2.16877e-19 -0.00960305)
(4.72827e-19 4.04403e-19 -0.00960696)
(7.17295e-20 -1.77753e-19 -0.00960956)
(8.02751e-19 1.35579e-19 -0.00961087)
(-2.41788e-19 -5.69469e-19 -0.00961087)
(3.63023e-19 -3.65196e-19 -0.00960956)
(9.99725e-20 -7.84871e-19 -0.00960696)
(2.43024e-19 -4.65267e-19 -0.00960305)
(1.0122e-19 -5.4338e-19 -0.00959785)
(-5.47584e-19 -5.79644e-19 -0.00959136)
(-8.89794e-19 1.20085e-19 -0.00958359)
(-8.65893e-19 2.40225e-19 -0.00957455)
(3.07419e-20 2.55708e-19 -0.00956426)
(-3.89328e-19 -1.0251e-19 -0.00955273)
(-7.05327e-19 4.21892e-19 -0.00953997)
(2.6556e-19 7.6137e-19 -0.009526)
(2.09247e-19 5.17458e-19 -0.00951086)
(5.51982e-19 2.03813e-20 -0.00949455)
(-2.07472e-19 -4.42032e-19 -0.00947712)
(-4.59579e-19 4.3581e-19 -0.00945858)
(7.06359e-19 8.91465e-19 -0.00943896)
(-4.72178e-20 -8.40636e-19 -0.0094183)
(-2.57808e-21 -3.8356e-19 -0.00939663)
(1.60389e-19 6.41913e-19 -0.00914493)
(-1.10881e-18 2.63015e-19 -0.00917181)
(-4.33004e-19 1.37568e-19 -0.009198)
(-6.48983e-19 5.52221e-19 -0.00922342)
(-1.96171e-19 -6.20173e-19 -0.00924803)
(-1.10461e-18 5.84769e-19 -0.00927175)
(-8.77493e-19 9.09573e-19 -0.00929454)
(-1.17019e-18 9.93254e-19 -0.00931635)
(-6.95399e-19 1.15764e-18 -0.00933715)
(-1.30113e-18 1.51267e-18 -0.00935689)
(-1.48089e-20 2.70281e-19 -0.00937554)
(-1.03817e-18 6.53832e-19 -0.00939309)
(5.02926e-19 1.14609e-18 -0.0094095)
(-5.29214e-19 6.10376e-19 -0.00942474)
(-4.36309e-20 1.24555e-18 -0.0094388)
(8.94421e-20 2.9674e-19 -0.00945164)
(-8.63555e-19 7.97599e-19 -0.00946324)
(-4.80107e-19 1.2266e-18 -0.0094736)
(5.41344e-20 1.52672e-18 -0.00948269)
(3.32481e-19 6.17578e-19 -0.00949051)
(1.19931e-19 3.61956e-19 -0.00949704)
(2.30939e-20 1.88442e-19 -0.00950227)
(6.552e-19 4.22201e-19 -0.00950621)
(7.53982e-20 -1.98175e-19 -0.00950883)
(7.26598e-19 1.48242e-19 -0.00951014)
(-2.38345e-19 -5.73713e-19 -0.00951014)
(3.00573e-19 -3.84038e-19 -0.00950883)
(-4.58965e-20 -7.88523e-19 -0.00950621)
(2.01632e-19 -4.6993e-19 -0.00950227)
(2.93381e-19 -5.5282e-19 -0.00949704)
(-5.94211e-19 -5.5249e-19 -0.00949051)
(-7.21478e-19 1.03759e-19 -0.00948269)
(-8.68089e-19 2.13263e-19 -0.0094736)
(1.0146e-19 2.19146e-19 -0.00946324)
(-3.32085e-19 -1.18587e-19 -0.00945164)
(-5.69258e-19 3.63998e-19 -0.0094388)
(1.58178e-19 8.03458e-19 -0.00942474)
(1.96138e-19 5.21285e-19 -0.0094095)
(6.3792e-19 -1.98812e-20 -0.00939309)
(-2.48898e-19 -4.26202e-19 -0.00937554)
(-3.36206e-19 3.86981e-19 -0.00935689)
(6.26221e-19 9.83233e-19 -0.00933714)
(1.25381e-19 -9.44175e-19 -0.00931635)
(5.20501e-20 -4.02899e-19 -0.00929454)
(-5.08784e-19 -1.35514e-18 -0.00927175)
(1.08971e-19 6.1682e-19 -0.0090393)
(-1.1203e-18 3.11528e-19 -0.00906637)
(-2.47918e-19 2.58426e-19 -0.00909274)
(-6.14517e-19 5.97257e-19 -0.00911834)
(-2.1015e-19 -6.80338e-19 -0.00914311)
(-1.06989e-18 5.93902e-19 -0.009167)
(-9.36455e-19 8.75187e-19 -0.00918994)
(-1.11148e-18 1.02518e-18 -0.0092119)
(-7.96191e-19 1.1279e-18 -0.00923283)
(-1.36689e-18 1.51829e-18 -0.0092527)
(3.49904e-19 4.10279e-19 -0.00927148)
(-1.00693e-18 6.27101e-19 -0.00928914)
(6.99022e-19 1.21619e-18 -0.00930566)
(-6.92687e-19 5.79862e-19 -0.009321)
(-3.61981e-20 1.23603e-18 -0.00933515)
(-4.73515e-20 2.52065e-19 -0.00934807)
(-9.19842e-19 7.8821e-19 -0.00935975)
(-5.99851e-19 1.17655e-18 -0.00937018)
(-5.82451e-20 1.50404e-18 -0.00937933)
(3.94868e-19 6.23984e-19 -0.0093872)
(3.22433e-19 3.95602e-19 -0.00939377)
(-4.50114e-20 1.5086e-19 -0.00939904)
(8.11436e-19 4.35062e-19 -0.00940299)
(1.11408e-19 -2.05291e-19 -0.00940564)
(6.68295e-19 1.62092e-19 -0.00940696)
(-1.67371e-19 -5.78677e-19 -0.00940696)
(1.29772e-19 -3.90943e-19 -0.00940564)
(-2.09239e-19 -7.91326e-19 -0.00940299)
(1.59619e-19 -4.82559e-19 -0.00939904)
(3.18926e-19 -5.37305e-19 -0.00939377)
(-6.95103e-19 -5.22659e-19 -0.0093872)
(-5.42282e-19 7.83957e-20 -0.00937933)
(-8.48065e-19 1.90434e-19 -0.00937018)
(4.12748e-20 2.19139e-19 -0.00935975)
(-2.80368e-19 -1.40968e-19 -0.00934807)
(-5.86314e-19 3.56931e-19 -0.00933515)
(2.98299e-19 7.59153e-19 -0.009321)
(2.62094e-19 4.90485e-19 -0.00930566)
(7.33194e-19 -5.53765e-20 -0.00928914)
(-5.2137e-19 -2.93746e-19 -0.00927148)
(-4.96123e-19 4.82259e-19 -0.0092527)
(6.80967e-19 9.93002e-19 -0.00923283)
(2.17657e-19 -1.01092e-18 -0.0092119)
(6.63621e-20 -3.8531e-19 -0.00918994)
(-5.59973e-19 -1.35665e-18 -0.009167)
(3.70758e-21 5.37217e-19 -0.00893099)
(-1.00268e-18 4.58729e-19 -0.00895826)
(-2.86843e-20 4.17767e-19 -0.00898483)
(-6.9225e-19 5.69881e-19 -0.00901061)
(-1.83746e-19 -7.13567e-19 -0.00903555)
(-1.1876e-18 4.97413e-19 -0.0090596)
(-1.00571e-18 8.287e-19 -0.0090827)
(-1.11177e-18 1.02429e-18 -0.00910481)
(-9.53087e-19 1.07275e-18 -0.00912588)
(-1.38927e-18 1.52276e-18 -0.00914589)
(5.504e-19 4.67958e-19 -0.0091648)
(-9.43651e-19 6.26827e-19 -0.00918258)
(6.03618e-19 1.17227e-18 -0.0091992)
(-6.09188e-19 6.44332e-19 -0.00921465)
(8.13732e-20 1.26321e-18 -0.00922889)
(-1.69073e-19 2.17798e-19 -0.0092419)
(-8.59197e-19 8.10604e-19 -0.00925366)
(-6.92777e-19 1.1319e-18 -0.00926415)
(-1.12618e-21 1.50663e-18 -0.00927337)
(5.27409e-19 6.302e-19 -0.00928129)
(4.15364e-19 4.21616e-19 -0.0092879)
(-1.17797e-19 1.19144e-19 -0.0092932)
(7.3855e-19 4.27353e-19 -0.00929719)
(6.81602e-20 -2.14329e-19 -0.00929984)
(6.62735e-19 1.75319e-19 -0.00930117)
(2.16074e-20 -5.78664e-19 -0.00930117)
(4.2864e-20 -3.94196e-19 -0.00929984)
(-2.44912e-19 -8.11692e-19 -0.00929719)
(1.63214e-19 -5.03466e-19 -0.0092932)
(2.80195e-19 -5.07986e-19 -0.0092879)
(-6.83389e-19 -5.15222e-19 -0.00928129)
(-5.50552e-19 9.06793e-20 -0.00927337)
(-8.09283e-19 1.68012e-19 -0.00926415)
(-6.6755e-20 2.27152e-19 -0.00925366)
(-2.85276e-19 -1.42427e-19 -0.0092419)
(-8.1496e-19 4.1397e-19 -0.00922889)
(2.91732e-19 7.58403e-19 -0.00921465)
(3.40511e-19 4.61602e-19 -0.0091992)
(7.14155e-19 -2.3565e-20 -0.00918258)
(-6.23087e-19 -2.30272e-19 -0.0091648)
(-6.51574e-19 5.5285e-19 -0.00914589)
(7.3846e-19 9.86885e-19 -0.00912588)
(2.91554e-19 -1.05666e-18 -0.00910481)
(8.00311e-20 -3.64116e-19 -0.0090827)
(-4.84655e-19 -1.44786e-18 -0.0090596)
(-1.46876e-19 4.14808e-19 -0.00881987)
(-9.73088e-19 5.12863e-19 -0.00884735)
(1.24076e-19 5.30572e-19 -0.0088741)
(-6.95902e-19 6.08283e-19 -0.00890007)
(-1.31592e-19 -7.25903e-19 -0.00892519)
(-1.35562e-18 3.72749e-19 -0.00894941)
(-1.11021e-18 7.54073e-19 -0.00897267)
(-1.35284e-18 8.8179e-19 -0.00899493)
(-1.0472e-18 1.04776e-18 -0.00901615)
(-1.36555e-18 1.54768e-18 -0.0090363)
(4.74249e-19 3.86675e-19 -0.00905534)
(-8.83466e-19 6.32589e-19 -0.00907324)
(3.679e-19 1.06389e-18 -0.00908998)
(-2.46393e-19 7.94975e-19 -0.00910553)
(2.03212e-19 1.30849e-18 -0.00911987)
(-2.80593e-19 1.85409e-19 -0.00913297)
(-6.43535e-19 8.72428e-19 -0.00914481)
(-7.63499e-19 1.09285e-18 -0.00915537)
(1.39952e-19 1.51836e-18 -0.00916465)
(5.89894e-19 6.32966e-19 -0.00917262)
(3.30035e-19 4.3033e-19 -0.00917928)
(-1.59916e-19 9.4272e-20 -0.00918462)
(6.75449e-19 4.22062e-19 -0.00918863)
(7.57746e-20 -2.27654e-19 -0.00919131)
(6.67799e-19 1.76707e-19 -0.00919265)
(1.33463e-19 -5.78886e-19 -0.00919265)
(5.9201e-20 -3.95428e-19 -0.00919131)
(-2.91979e-19 -8.29509e-19 -0.00918863)
(-1.06894e-20 -5.00324e-19 -0.00918462)
(2.45745e-19 -4.81933e-19 -0.00917928)
(-6.54961e-19 -5.09047e-19 -0.00917262)
(-5.08948e-19 9.15864e-20 -0.00916465)
(-7.61033e-19 1.43276e-19 -0.00915537)
(-2.08521e-19 2.5185e-19 -0.00914481)
(-4.35174e-19 -9.57855e-20 -0.00913297)
(-1.01143e-18 4.66019e-19 -0.00911987)
(4.87863e-20 8.33355e-19 -0.00910553)
(3.58335e-19 4.52192e-19 -0.00908998)
(5.07997e-19 8.79615e-20 -0.00907324)
(-4.5336e-19 -3.01037e-19 -0.00905534)
(-6.70852e-19 5.61724e-19 -0.0090363)
(6.9437e-19 1.03186e-18 -0.00901615)
(5.04167e-19 -1.19494e-18 -0.00899493)
(1.68543e-19 -3.93244e-19 -0.00897267)
(-4.59012e-19 -1.49811e-18 -0.00894941)
(-3.15622e-19 2.86048e-19 -0.00870577)
(-9.83656e-19 5.15956e-19 -0.00873346)
(2.18865e-19 5.88664e-19 -0.00876042)
(-5.57372e-19 7.6474e-19 -0.00878657)
(-1.2786e-19 -7.63619e-19 -0.00881188)
(-1.38132e-18 3.50978e-19 -0.00883627)
(-1.17209e-18 7.17149e-19 -0.00885969)
(-1.59685e-18 7.32551e-19 -0.00888211)
(-1.10794e-18 1.02271e-18 -0.00890349)
(-1.36586e-18 1.56299e-18 -0.00892377)
(3.49559e-19 2.82778e-19 -0.00894294)
(-8.39574e-19 6.33258e-19 -0.00896097)
(1.61989e-19 9.51313e-19 -0.00897783)
(-4.95039e-20 8.75856e-19 -0.00899349)
(1.59141e-19 1.31774e-18 -0.00900793)
(-3.42242e-19 1.63318e-19 -0.00902112)
(-3.84374e-19 9.44912e-19 -0.00903304)
(-7.4857e-19 1.07814e-18 -0.00904368)
(1.97655e-19 1.50985e-18 -0.00905302)
(4.58674e-19 6.07468e-19 -0.00906105)
(2.51539e-19 4.41412e-19 -0.00906776)
(-1.56178e-19 6.81962e-20 -0.00907313)
(7.2053e-19 4.20517e-19 -0.00907717)
(1.33821e-19 -2.37002e-19 -0.00907987)
(6.84497e-19 1.85152e-19 -0.00908121)
(3.91388e-20 -5.7504e-19 -0.00908121)
(1.41861e-20 -3.90263e-19 -0.00907987)
(-3.60552e-19 -8.35285e-19 -0.00907717)
(-2.66607e-19 -4.93103e-19 -0.00907313)
(2.75066e-19 -4.72434e-19 -0.00906776)
(-5.62683e-19 -5.1957e-19 -0.00906105)
(-4.43193e-19 8.7979e-20 -0.00905302)
(-7.77707e-19 1.43833e-19 -0.00904368)
(-3.00031e-19 2.6902e-19 -0.00903304)
(-4.97738e-19 -7.60327e-20 -0.00902112)
(-9.97254e-19 4.46371e-19 -0.00900793)
(-1.20762e-19 8.76569e-19 -0.00899349)
(3.56029e-19 4.53199e-19 -0.00897783)
(3.20835e-19 1.83718e-19 -0.00896097)
(-3.34353e-19 -3.60107e-19 -0.00894294)
(-6.21034e-19 5.4234e-19 -0.00892377)
(7.26034e-19 1.01926e-18 -0.00890349)
(7.01224e-19 -1.32912e-18 -0.00888211)
(1.95423e-19 -3.62258e-19 -0.00885969)
(-3.2809e-19 3.12121e-19 -0.00858853)
(-8.64868e-19 6.22927e-19 -0.00861643)
(2.66724e-19 5.97595e-19 -0.00864359)
(-4.64647e-19 8.91985e-19 -0.00866994)
(-1.40687e-19 -8.09157e-19 -0.00869543)
(-1.38755e-18 3.40543e-19 -0.00872)
(-1.17771e-18 7.24622e-19 -0.0087436)
(-1.62871e-18 7.13981e-19 -0.00876618)
(-1.27857e-18 9.33155e-19 -0.00878771)
(-1.28595e-18 1.62225e-18 -0.00880814)
(2.7296e-19 1.95798e-19 -0.00882745)
(-7.80558e-19 6.4253e-19 -0.0088456)
(-5.52675e-20 8.3785e-19 -0.00886258)
(-9.3453e-20 8.63531e-19 -0.00887836)
(-7.42755e-20 1.26598e-18 -0.0088929)
(-3.64445e-19 1.36755e-19 -0.00890619)
(-1.82184e-19 9.96757e-19 -0.00891819)
(-7.5762e-19 1.06715e-18 -0.00892891)
(2.8391e-19 1.51746e-18 -0.00893832)
(2.5974e-19 5.72744e-19 -0.0089464)
(3.47427e-19 4.68669e-19 -0.00895316)
(-1.55253e-19 3.86649e-20 -0.00895857)
(7.26657e-19 4.1701e-19 -0.00896264)
(1.73865e-19 -2.47449e-19 -0.00896535)
(7.09521e-19 1.9821e-19 -0.00896671)
(6.28616e-20 -5.69657e-19 -0.00896671)
(3.93437e-20 -3.93155e-19 -0.00896535)
(-3.21069e-19 -8.46387e-19 -0.00896264)
(-3.26136e-19 -5.0836e-19 -0.00895857)
(4.09382e-19 -4.89477e-19 -0.00895316)
(-4.09779e-19 -5.36137e-19 -0.0089464)
(-4.81722e-19 1.12651e-19 -0.00893832)
(-7.12759e-19 1.23968e-19 -0.00892891)
(-2.64931e-19 2.49265e-19 -0.00891819)
(-2.64625e-19 -1.51589e-19 -0.00890619)
(-7.66908e-19 3.61187e-19 -0.0088929)
(-1.07832e-19 8.56501e-19 -0.00887836)
(3.73539e-19 4.44935e-19 -0.00886258)
(4.14867e-19 1.53694e-19 -0.0088456)
(-3.183e-19 -3.76846e-19 -0.00882745)
(-6.28653e-19 5.5028e-19 -0.00880814)
(8.37318e-19 9.62297e-19 -0.00878771)
(6.80038e-19 -1.32908e-18 -0.00876618)
(2.03835e-19 -3.1808e-19 -0.0087436)
(-1.36969e-19 5.16565e-19 -0.00846796)
(-6.25059e-19 8.43302e-19 -0.00849609)
(2.3895e-19 5.53459e-19 -0.00852345)
(-5.64807e-19 8.72511e-19 -0.00855)
(-8.5941e-20 -7.99985e-19 -0.00857568)
(-1.51837e-18 2.42552e-19 -0.00860043)
(-1.11454e-18 7.70639e-19 -0.0086242)
(-1.65725e-18 7.05813e-19 -0.00864695)
(-1.45693e-18 8.31071e-19 -0.00866864)
(-1.09113e-18 1.73097e-18 -0.00868922)
(3.27412e-19 1.77022e-19 -0.00870867)
(-7.89012e-19 6.29052e-19 -0.00872696)
(-5.6256e-20 8.13591e-19 -0.00874406)
(-4.44487e-20 8.89423e-19 -0.00875995)
(-2.51342e-19 1.23276e-18 -0.0087746)
(-3.14009e-19 1.17467e-19 -0.00878798)
(-1.81848e-19 9.97312e-19 -0.00880008)
(-9.49854e-19 1.01118e-18 -0.00881087)
(3.92808e-19 1.52909e-18 -0.00882034)
(1.69788e-19 5.52716e-19 -0.00882849)
(3.94389e-19 4.85919e-19 -0.00883529)
(-1.5862e-19 1.63632e-20 -0.00884075)
(6.76794e-19 4.0577e-19 -0.00884484)
(2.61039e-19 -2.57066e-19 -0.00884757)
(7.42181e-19 2.09617e-19 -0.00884894)
(2.5507e-19 -5.69987e-19 -0.00884894)
(1.09789e-19 -3.93958e-19 -0.00884757)
(-2.93692e-19 -8.53925e-19 -0.00884484)
(-3.65037e-19 -5.30466e-19 -0.00884075)
(5.0266e-19 -5.00359e-19 -0.00883529)
(-4.05077e-19 -5.19048e-19 -0.00882849)
(-5.14221e-19 1.35555e-19 -0.00882034)
(-5.74418e-19 8.14363e-20 -0.00881087)
(-1.63859e-19 2.03108e-19 -0.00880008)
(-5.0601e-20 -2.28584e-19 -0.00878798)
(-5.57148e-19 2.90741e-19 -0.0087746)
(-2.75997e-20 8.21046e-19 -0.00875995)
(3.37018e-19 4.54139e-19 -0.00874406)
(6.619e-19 5.68512e-20 -0.00872696)
(-3.78398e-19 -3.44389e-19 -0.00870867)
(-7.79494e-19 6.24504e-19 -0.00868922)
(9.26132e-19 9.14527e-19 -0.00866864)
(6.29913e-19 -1.30798e-18 -0.00864695)
(2.04823e-19 -2.77865e-19 -0.0086242)
(6.21393e-20 7.01202e-19 -0.00834388)
(-5.08798e-19 9.71715e-19 -0.00837223)
(1.74432e-19 4.99197e-19 -0.00839981)
(-7.49991e-19 7.81054e-19 -0.00842655)
(3.77553e-20 -7.41773e-19 -0.00845243)
(-1.61183e-18 1.68949e-19 -0.00847736)
(-1.02461e-18 8.29447e-19 -0.00850131)
(-1.77322e-18 6.56141e-19 -0.00852423)
(-1.52702e-18 7.76149e-19 -0.00854608)
(-1.00868e-18 1.77156e-18 -0.00856681)
(3.92902e-19 1.71943e-19 -0.00858641)
(-7.86265e-19 6.17838e-19 -0.00860483)
(8.80201e-20 8.41323e-19 -0.00862206)
(1.05696e-19 9.60348e-19 -0.00863807)
(-2.13485e-19 1.2756e-18 -0.00865283)
(-1.76664e-19 1.24598e-19 -0.00866631)
(-2.42931e-19 9.94235e-19 -0.00867849)
(-1.03868e-18 9.74395e-19 -0.00868937)
(3.62579e-19 1.50372e-18 -0.00869891)
(1.4042e-19 5.50007e-19 -0.00870712)
(2.97619e-19 4.81454e-19 -0.00871397)
(-1.31842e-19 -5.11954e-21 -0.00871946)
(5.93442e-19 3.89849e-19 -0.00872359)
(3.08557e-19 -2.73059e-19 -0.00872634)
(7.48347e-19 2.1733e-19 -0.00872772)
(3.8668e-19 -5.68175e-19 -0.00872772)
(1.30441e-19 -3.85697e-19 -0.00872634)
(-2.82216e-19 -8.55616e-19 -0.00872359)
(-4.41101e-19 -5.48425e-19 -0.00871946)
(4.47102e-19 -4.91954e-19 -0.00871397)
(-4.47744e-19 -4.92326e-19 -0.00870712)
(-5.21668e-19 1.46127e-19 -0.00869891)
(-5.08847e-19 5.07641e-20 -0.00868937)
(-1.07992e-19 1.71391e-19 -0.00867849)
(-2.68927e-20 -2.49086e-19 -0.00866631)
(-4.60955e-19 2.59351e-19 -0.00865283)
(-5.03818e-20 8.31072e-19 -0.00863807)
(2.63748e-19 4.70069e-19 -0.00862206)
(8.33987e-19 -5.10475e-21 -0.00860483)
(-5.15087e-19 -2.58726e-19 -0.00858641)
(-8.61598e-19 6.56141e-19 -0.00856681)
(9.46531e-19 8.94939e-19 -0.00854608)
(6.27237e-19 -1.31368e-18 -0.00852423)
(1.46954e-19 -2.02048e-19 -0.00850131)
(1.57244e-19 7.81107e-19 -0.00821608)
(-5.96847e-19 9.26749e-19 -0.00824466)
(1.59754e-19 4.94994e-19 -0.00827245)
(-8.35647e-19 7.62127e-19 -0.0082994)
(1.838e-19 -6.72101e-19 -0.00832547)
(-1.61234e-18 1.61919e-19 -0.00835059)
(-1.11555e-18 7.7622e-19 -0.00837472)
(-1.85399e-18 6.31432e-19 -0.00839781)
(-1.51809e-18 7.58561e-19 -0.00841982)
(-1.07004e-18 1.73457e-18 -0.00844071)
(4.17391e-19 1.43784e-19 -0.00846045)
(-7.36698e-19 6.25336e-19 -0.00847902)
(1.38953e-19 8.25776e-19 -0.00849638)
(1.89393e-20 9.43365e-19 -0.00851251)
(-7.39829e-20 1.35445e-18 -0.00852737)
(-8.66983e-20 1.2059e-19 -0.00854096)
(-2.68474e-19 1.00346e-18 -0.00855323)
(-8.44833e-19 1.0069e-18 -0.00856419)
(2.70366e-19 1.46815e-18 -0.00857381)
(9.96318e-20 5.41665e-19 -0.00858207)
(1.90422e-19 4.73698e-19 -0.00858898)
(-1.08018e-19 -2.59723e-20 -0.00859451)
(5.52144e-19 3.77801e-19 -0.00859867)
(3.03676e-19 -2.93487e-19 -0.00860144)
(6.71097e-19 2.23209e-19 -0.00860283)
(4.26514e-19 -5.66487e-19 -0.00860283)
(1.47961e-19 -3.7554e-19 -0.00860144)
(-2.93996e-19 -8.53799e-19 -0.00859867)
(-4.58804e-19 -5.69469e-19 -0.00859451)
(3.77292e-19 -4.80797e-19 -0.00858898)
(-4.86917e-19 -4.69191e-19 -0.00858207)
(-5.19006e-19 1.55301e-19 -0.00857381)
(-5.89624e-19 5.38404e-20 -0.00856419)
(-1.13183e-19 1.5492e-19 -0.00855323)
(6.83772e-21 -2.75282e-19 -0.00854096)
(-4.50299e-19 2.58639e-19 -0.00852737)
(-4.79818e-21 8.19852e-19 -0.00851251)
(2.11314e-19 4.69787e-19 -0.00849638)
(8.32747e-19 1.45896e-20 -0.00847902)
(-7.87359e-19 -1.05008e-19 -0.00846045)
(-7.73549e-19 5.89242e-19 -0.00844071)
(9.56932e-19 8.78983e-19 -0.00841982)
(5.89964e-19 -1.29523e-18 -0.00839781)
(1.82828e-19 -1.84437e-19 -0.00837472)
(1.98935e-19 8.14282e-19 -0.00808434)
(-6.21064e-19 9.41564e-19 -0.00811315)
(1.40524e-19 4.80307e-19 -0.00814115)
(-7.49521e-19 8.74842e-19 -0.00816831)
(3.67121e-19 -5.75657e-19 -0.00819457)
(-1.49542e-18 2.51092e-19 -0.00821989)
(-1.28257e-18 6.76124e-19 -0.0082442)
(-1.75616e-18 7.04562e-19 -0.00826747)
(-1.39983e-18 8.02355e-19 -0.00828964)
(-1.15952e-18 1.68216e-18 -0.00831069)
(4.46585e-19 1.11566e-19 -0.00833058)
(-6.5717e-19 6.47083e-19 -0.00834929)
(1.73533e-19 8.15231e-19 -0.00836678)
(-2.6831e-19 8.47047e-19 -0.00838303)
(4.81225e-20 1.41837e-18 -0.00839801)
(-1.09631e-19 8.70935e-20 -0.0084117)
(-3.21991e-19 9.96471e-19 -0.00842407)
(-6.28027e-19 1.04456e-18 -0.00843511)
(2.53816e-19 1.45785e-18 -0.0084448)
(4.94342e-20 5.35603e-19 -0.00845313)
(4.25255e-20 4.5807e-19 -0.00846009)
(-7.35744e-20 -5.09677e-20 -0.00846566)
(5.18288e-19 3.6721e-19 -0.00846985)
(3.19759e-19 -3.10132e-19 -0.00847265)
(5.47926e-19 2.27094e-19 -0.00847405)
(4.04398e-19 -5.67276e-19 -0.00847405)
(1.15927e-19 -3.59819e-19 -0.00847265)
(-2.33339e-19 -8.56616e-19 -0.00846985)
(-4.86956e-19 -5.90189e-19 -0.00846566)
(3.43786e-19 -4.72909e-19 -0.00846009)
(-5.21442e-19 -4.46571e-19 -0.00845313)
(-5.18106e-19 1.6686e-19 -0.0084448)
(-6.33736e-19 4.65544e-20 -0.00843511)
(-7.895e-20 1.20769e-19 -0.00842407)
(4.58494e-20 -3.02973e-19 -0.0084117)
(-5.83522e-19 3.03745e-19 -0.00839801)
(1.79344e-19 7.57629e-19 -0.00838303)
(1.25978e-19 4.90851e-19 -0.00836678)
(6.75586e-19 1.15883e-19 -0.00834929)
(-1.01662e-18 1.96089e-20 -0.00833058)
(-6.06233e-19 4.63985e-19 -0.00831069)
(8.83424e-19 9.15558e-19 -0.00828964)
(4.30813e-19 -1.21021e-18 -0.00826747)
(3.55171e-19 -2.55225e-19 -0.0082442)
(2.06586e-19 8.05792e-19 -0.00794844)
(-4.93005e-19 1.09617e-18 -0.00797747)
(4.32028e-20 3.99348e-19 -0.00800569)
(-5.4111e-19 1.07538e-18 -0.00803305)
(5.58474e-19 -4.74586e-19 -0.00805951)
(-1.30085e-18 4.06495e-19 -0.00808502)
(-1.27836e-18 6.86118e-19 -0.00810952)
(-1.60346e-18 7.98573e-19 -0.00813296)
(-1.17914e-18 9.12089e-19 -0.0081553)
(-1.30737e-18 1.6043e-18 -0.00817651)
(4.85826e-19 7.623e-20 -0.00819655)
(-5.62947e-19 6.74422e-19 -0.0082154)
(1.32192e-19 7.85005e-19 -0.00823303)
(-3.49161e-19 8.27176e-19 -0.0082494)
(1.23771e-19 1.4627e-18 -0.0082645)
(-1.79714e-19 4.46839e-20 -0.00827829)
(-3.42797e-19 9.91636e-19 -0.00829076)
(-6.19429e-19 1.02821e-18 -0.00830188)
(2.36823e-19 1.45206e-18 -0.00831164)
(5.46569e-20 5.42605e-19 -0.00832004)
(3.63796e-21 4.54624e-19 -0.00832705)
(-2.0462e-20 -7.61271e-20 -0.00833267)
(4.29917e-19 3.52332e-19 -0.00833689)
(3.7617e-19 -3.23243e-19 -0.00833971)
(4.40031e-19 2.35544e-19 -0.00834112)
(3.27475e-19 -5.6852e-19 -0.00834112)
(-8.85181e-22 -3.46036e-19 -0.00833971)
(-1.12354e-19 -8.64695e-19 -0.00833689)
(-5.31133e-19 -6.03468e-19 -0.00833267)
(3.23188e-19 -4.66983e-19 -0.00832705)
(-4.88906e-19 -4.36038e-19 -0.00832004)
(-4.75577e-19 1.69131e-19 -0.00831164)
(-5.73978e-19 1.21553e-20 -0.00830188)
(-3.12855e-20 8.24358e-20 -0.00829076)
(8.09947e-20 -3.20269e-19 -0.00827829)
(-8.30782e-19 3.81296e-19 -0.0082645)
(1.95574e-19 7.54902e-19 -0.0082494)
(4.13924e-20 5.24481e-19 -0.00823303)
(5.1715e-19 2.16565e-19 -0.0082154)
(-9.9415e-19 7.20053e-21 -0.00819655)
(-4.11675e-19 3.23251e-19 -0.00817651)
(7.10102e-19 1.02145e-18 -0.0081553)
(2.8809e-19 -1.14933e-18 -0.00813296)
(3.86206e-19 -2.4056e-19 -0.00810952)
(2.16398e-19 7.88717e-19 -0.00780811)
(-4.04443e-19 1.22265e-18 -0.00783737)
(-5.48682e-20 3.1457e-19 -0.00786581)
(-3.71174e-19 1.23242e-18 -0.00789337)
(7.40673e-19 -3.77466e-19 -0.00792004)
(-1.13353e-18 5.47842e-19 -0.00794573)
(-1.15149e-18 7.80086e-19 -0.00797041)
(-1.57089e-18 8.15995e-19 -0.00799403)
(-1.08558e-18 9.59115e-19 -0.00801654)
(-1.44141e-18 1.53943e-18 -0.00803791)
(4.72001e-19 4.31268e-21 -0.00805811)
(-5.38519e-19 6.76495e-19 -0.0080771)
(6.76953e-20 7.45233e-19 -0.00809486)
(-1.9484e-19 8.87486e-19 -0.00811136)
(2.28304e-19 1.5232e-18 -0.00812657)
(-1.90961e-19 2.08639e-20 -0.00814047)
(-2.65791e-19 1.01423e-18 -0.00815303)
(-6.27803e-19 1.00927e-18 -0.00816424)