/*--------------------------------*- C++ -*----------------------------------*\
  =========                 |
  \\      /  F ield         | OpenFOAM: The Open Source CFD Toolbox
   \\    /   O peration     | Website:  https://openfoam.org
    \\  /    A nd           | Version:  7
     \\/     M anipulation  |
\*---------------------------------------------------------------------------*/
FoamFile
{
    version     2.0;
    format      ascii;
    class       volScalarField;
    location    "8000";
    object      nut;
}
// * * * * * * * * * * * * * * * * * * * * * * * * * * * * * * * * * * * * * //

dimensions      [0 2 -1 0 0 0 0];

internalField   nonuniform List<scalar> 
38500
(
3.50744e-05
3.51819e-05
3.52832e-05
3.53798e-05
3.54717e-05
3.55589e-05
3.56417e-05
3.572e-05
3.5794e-05
3.58637e-05
3.59289e-05
3.59899e-05
3.60465e-05
3.60988e-05
3.61468e-05
3.61905e-05
3.62298e-05
3.62648e-05
3.62954e-05
3.63218e-05
3.63437e-05
3.63612e-05
3.63743e-05
3.63832e-05
3.63875e-05
3.63876e-05
3.63832e-05
3.63746e-05
3.63614e-05
3.6344e-05
3.63221e-05
3.62959e-05
3.62652e-05
3.62302e-05
3.61908e-05
3.6147e-05
3.60988e-05
3.60464e-05
3.59895e-05
3.59284e-05
3.58629e-05
3.57931e-05
3.57189e-05
3.56403e-05
3.55574e-05
3.54699e-05
3.53779e-05
3.52813e-05
3.51798e-05
3.50723e-05
3.48907e-05
3.49948e-05
3.50959e-05
3.51936e-05
3.52869e-05
3.5376e-05
3.54607e-05
3.5541e-05
3.56169e-05
3.56884e-05
3.57555e-05
3.58182e-05
3.58764e-05
3.59301e-05
3.59795e-05
3.60243e-05
3.60649e-05
3.61009e-05
3.61326e-05
3.61597e-05
3.61824e-05
3.62005e-05
3.62141e-05
3.62232e-05
3.62277e-05
3.62278e-05
3.62232e-05
3.62142e-05
3.62007e-05
3.61825e-05
3.61599e-05
3.61329e-05
3.61013e-05
3.60652e-05
3.60247e-05
3.59796e-05
3.593e-05
3.5876e-05
3.58176e-05
3.57549e-05
3.56876e-05
3.56159e-05
3.55398e-05
3.54593e-05
3.53744e-05
3.52851e-05
3.51915e-05
3.50938e-05
3.49925e-05
3.48884e-05
3.46992e-05
3.48043e-05
3.49058e-05
3.50042e-05
3.50988e-05
3.51894e-05
3.52756e-05
3.53576e-05
3.54352e-05
3.55084e-05
3.5577e-05
3.56413e-05
3.5701e-05
3.5756e-05
3.58067e-05
3.58528e-05
3.58943e-05
3.59314e-05
3.5964e-05
3.59919e-05
3.60152e-05
3.60338e-05
3.60479e-05
3.60572e-05
3.60619e-05
3.6062e-05
3.60573e-05
3.6048e-05
3.60339e-05
3.60153e-05
3.59921e-05
3.59642e-05
3.59318e-05
3.58946e-05
3.58529e-05
3.58066e-05
3.57559e-05
3.57006e-05
3.56408e-05
3.55764e-05
3.55074e-05
3.5434e-05
3.53562e-05
3.52742e-05
3.51876e-05
3.50969e-05
3.50021e-05
3.49037e-05
3.48021e-05
3.46968e-05
3.45017e-05
3.46088e-05
3.47116e-05
3.48111e-05
3.49069e-05
3.49988e-05
3.50865e-05
3.51699e-05
3.52491e-05
3.53237e-05
3.53939e-05
3.54596e-05
3.55207e-05
3.55772e-05
3.56291e-05
3.56762e-05
3.57188e-05
3.57567e-05
3.57902e-05
3.58189e-05
3.58427e-05
3.58619e-05
3.58763e-05
3.58859e-05
3.58907e-05
3.58906e-05
3.58858e-05
3.58762e-05
3.5862e-05
3.58429e-05
3.58191e-05
3.57904e-05
3.57571e-05
3.57189e-05
3.56762e-05
3.56289e-05
3.5577e-05
3.55203e-05
3.5459e-05
3.53931e-05
3.53227e-05
3.52478e-05
3.51685e-05
3.50849e-05
3.4997e-05
3.4905e-05
3.4809e-05
3.47094e-05
3.46065e-05
3.44993e-05
3.42993e-05
3.44084e-05
3.4513e-05
3.46138e-05
3.47109e-05
3.48042e-05
3.48933e-05
3.4978e-05
3.50585e-05
3.51346e-05
3.52062e-05
3.52733e-05
3.53357e-05
3.53934e-05
3.54465e-05
3.54948e-05
3.55384e-05
3.55772e-05
3.56113e-05
3.56406e-05
3.56652e-05
3.56848e-05
3.56994e-05
3.57093e-05
3.57142e-05
3.57142e-05
3.57092e-05
3.56994e-05
3.56849e-05
3.56654e-05
3.56409e-05
3.56116e-05
3.55775e-05
3.55385e-05
3.54948e-05
3.54465e-05
3.53935e-05
3.53354e-05
3.52728e-05
3.52054e-05
3.51336e-05
3.50574e-05
3.49767e-05
3.48917e-05
3.48024e-05
3.47091e-05
3.46118e-05
3.45107e-05
3.4406e-05
3.42968e-05
3.40927e-05
3.42036e-05
3.43099e-05
3.44124e-05
3.4511e-05
3.46057e-05
3.46961e-05
3.47822e-05
3.4864e-05
3.49415e-05
3.50144e-05
3.50826e-05
3.51463e-05
3.52052e-05
3.52593e-05
3.53086e-05
3.53531e-05
3.53927e-05
3.54277e-05
3.54575e-05
3.54826e-05
3.55027e-05
3.55178e-05
3.55278e-05
3.55327e-05
3.55326e-05
3.55277e-05
3.55177e-05
3.55029e-05
3.5483e-05
3.5458e-05
3.54281e-05
3.53931e-05
3.53533e-05
3.53088e-05
3.52593e-05
3.52052e-05
3.51461e-05
3.50821e-05
3.50136e-05
3.49405e-05
3.48629e-05
3.47809e-05
3.46945e-05
3.46039e-05
3.45091e-05
3.44104e-05
3.43078e-05
3.42012e-05
3.40903e-05
3.38824e-05
3.39951e-05
3.4103e-05
3.42071e-05
3.43071e-05
3.44032e-05
3.44949e-05
3.45824e-05
3.46656e-05
3.47443e-05
3.48185e-05
3.48879e-05
3.49527e-05
3.50127e-05
3.50679e-05
3.51181e-05
3.51634e-05
3.52038e-05
3.52393e-05
3.52699e-05
3.52956e-05
3.53161e-05
3.53316e-05
3.53417e-05
3.53468e-05
3.53466e-05
3.53416e-05
3.53315e-05
3.53161e-05
3.52958e-05
3.52703e-05
3.52398e-05
3.52042e-05
3.51636e-05
3.51181e-05
3.50679e-05
3.50126e-05
3.49525e-05
3.48874e-05
3.48176e-05
3.47432e-05
3.46643e-05
3.4581e-05
3.44934e-05
3.44014e-05
3.43052e-05
3.4205e-05
3.41008e-05
3.39926e-05
3.38799e-05
3.36687e-05
3.3783e-05
3.38925e-05
3.39981e-05
3.40995e-05
3.41969e-05
3.429e-05
3.43789e-05
3.44633e-05
3.45432e-05
3.46187e-05
3.46893e-05
3.47551e-05
3.48162e-05
3.48723e-05
3.49234e-05
3.49695e-05
3.50106e-05
3.50468e-05
3.5078e-05
3.5104e-05
3.51248e-05
3.51405e-05
3.5151e-05
3.51562e-05
3.51561e-05
3.51509e-05
3.51406e-05
3.51249e-05
3.51043e-05
3.50784e-05
3.50472e-05
3.50109e-05
3.49697e-05
3.49234e-05
3.48722e-05
3.48159e-05
3.47547e-05
3.46886e-05
3.46177e-05
3.45421e-05
3.4462e-05
3.43776e-05
3.42885e-05
3.41951e-05
3.40976e-05
3.3996e-05
3.38903e-05
3.37805e-05
3.36661e-05
3.34516e-05
3.35676e-05
3.36786e-05
3.37855e-05
3.38884e-05
3.39872e-05
3.40817e-05
3.41717e-05
3.42573e-05
3.43383e-05
3.4415e-05
3.44868e-05
3.45537e-05
3.46156e-05
3.46726e-05
3.47245e-05
3.47716e-05
3.48134e-05
3.48501e-05
3.48817e-05
3.49082e-05
3.49294e-05
3.49454e-05
3.4956e-05
3.49613e-05
3.49613e-05
3.4956e-05
3.49454e-05
3.49295e-05
3.49086e-05
3.48822e-05
3.48504e-05
3.48136e-05
3.47716e-05
3.47247e-05
3.46725e-05
3.46152e-05
3.45531e-05
3.44859e-05
3.4414e-05
3.43373e-05
3.4256e-05
3.41703e-05
3.40799e-05
3.39853e-05
3.38864e-05
3.37833e-05
3.36762e-05
3.3565e-05
3.3449e-05
3.32316e-05
3.33489e-05
3.34614e-05
3.35698e-05
3.3674e-05
3.37741e-05
3.38697e-05
3.3961e-05
3.40479e-05
3.413e-05
3.42076e-05
3.42804e-05
3.43484e-05
3.44113e-05
3.4469e-05
3.45219e-05
3.45697e-05
3.46123e-05
3.46496e-05
3.46817e-05
3.47084e-05
3.473e-05
3.47465e-05
3.47572e-05
3.47625e-05
3.47625e-05
3.47572e-05
3.47464e-05
3.47303e-05
3.47089e-05
3.46819e-05
3.46498e-05
3.46124e-05
3.45697e-05
3.4522e-05
3.44689e-05
3.44108e-05
3.43477e-05
3.42796e-05
3.42067e-05
3.41288e-05
3.40465e-05
3.39596e-05
3.38681e-05
3.37722e-05
3.3672e-05
3.35675e-05
3.34589e-05
3.33464e-05
3.32291e-05
3.30088e-05
3.31273e-05
3.32412e-05
3.33509e-05
3.34565e-05
3.35577e-05
3.36545e-05
3.3747e-05
3.3835e-05
3.39183e-05
3.39969e-05
3.40706e-05
3.41395e-05
3.42032e-05
3.4262e-05
3.43157e-05
3.43642e-05
3.44073e-05
3.44451e-05
3.44777e-05
3.45049e-05
3.45269e-05
3.45433e-05
3.45544e-05
3.45599e-05
3.45597e-05
3.45543e-05
3.45435e-05
3.45273e-05
3.45055e-05
3.4478e-05
3.44455e-05
3.44076e-05
3.43641e-05
3.43156e-05
3.42618e-05
3.42027e-05
3.41388e-05
3.40699e-05
3.39958e-05
3.3917e-05
3.38336e-05
3.37455e-05
3.36528e-05
3.35557e-05
3.34542e-05
3.33485e-05
3.32387e-05
3.31246e-05
3.30062e-05
3.27833e-05
3.2903e-05
3.30181e-05
3.31291e-05
3.32359e-05
3.33383e-05
3.34363e-05
3.35298e-05
3.36188e-05
3.37032e-05
3.37829e-05
3.38576e-05
3.39273e-05
3.3992e-05
3.40514e-05
3.41058e-05
3.41549e-05
3.41987e-05
3.42371e-05
3.42702e-05
3.42977e-05
3.432e-05
3.43367e-05
3.43478e-05
3.43533e-05
3.43534e-05
3.4348e-05
3.4337e-05
3.43202e-05
3.42981e-05
3.42704e-05
3.42374e-05
3.41989e-05
3.41549e-05
3.41056e-05
3.40512e-05
3.39914e-05
3.39266e-05
3.38566e-05
3.37817e-05
3.37018e-05
3.36175e-05
3.35282e-05
3.34345e-05
3.33362e-05
3.32335e-05
3.31267e-05
3.30155e-05
3.29003e-05
3.27807e-05
3.25552e-05
3.26761e-05
3.27923e-05
3.29044e-05
3.30124e-05
3.3116e-05
3.3215e-05
3.33096e-05
3.33997e-05
3.34852e-05
3.35657e-05
3.36414e-05
3.3712e-05
3.37774e-05
3.38375e-05
3.38925e-05
3.39423e-05
3.39867e-05
3.40257e-05
3.40591e-05
3.40872e-05
3.41096e-05
3.41265e-05
3.41377e-05
3.41434e-05
3.41437e-05
3.4138e-05
3.41266e-05
3.41097e-05
3.40872e-05
3.40591e-05
3.40257e-05
3.39867e-05
3.39422e-05
3.38924e-05
3.38371e-05
3.37766e-05
3.37109e-05
3.36401e-05
3.35644e-05
3.34837e-05
3.33983e-05
3.33082e-05
3.32133e-05
3.31138e-05
3.301e-05
3.29021e-05
3.27897e-05
3.26734e-05
3.25527e-05
3.23247e-05
3.24466e-05
3.2564e-05
3.26772e-05
3.27864e-05
3.28908e-05
3.2991e-05
3.30867e-05
3.31777e-05
3.3264e-05
3.33455e-05
3.34219e-05
3.34933e-05
3.35595e-05
3.36206e-05
3.36763e-05
3.37266e-05
3.37714e-05
3.38108e-05
3.38447e-05
3.38732e-05
3.38958e-05
3.39128e-05
3.39242e-05
3.393e-05
3.39303e-05
3.39244e-05
3.39129e-05
3.38959e-05
3.38731e-05
3.38447e-05
3.38109e-05
3.37713e-05
3.37264e-05
3.36758e-05
3.36199e-05
3.35588e-05
3.34922e-05
3.34207e-05
3.33441e-05
3.32625e-05
3.31763e-05
3.30851e-05
3.29892e-05
3.28886e-05
3.27838e-05
3.26747e-05
3.25614e-05
3.2444e-05
3.23222e-05
3.20919e-05
3.22148e-05
3.23332e-05
3.24475e-05
3.25576e-05
3.26633e-05
3.27644e-05
3.2861e-05
3.29528e-05
3.304e-05
3.31225e-05
3.31997e-05
3.32719e-05
3.33389e-05
3.34005e-05
3.34569e-05
3.35078e-05
3.35533e-05
3.3593e-05
3.36271e-05
3.36558e-05
3.36787e-05
3.36959e-05
3.37075e-05
3.37134e-05
3.37133e-05
3.37075e-05
3.36961e-05
3.36789e-05
3.36559e-05
3.36272e-05
3.35928e-05
3.35528e-05
3.35074e-05
3.34564e-05
3.33999e-05
3.33381e-05
3.32709e-05
3.31984e-05
3.31211e-05
3.30386e-05
3.29513e-05
3.28592e-05
3.27622e-05
3.26609e-05
3.2555e-05
3.2445e-05
3.23307e-05
3.22122e-05
3.20896e-05
3.1857e-05
3.19808e-05
3.21002e-05
3.22155e-05
3.23266e-05
3.24331e-05
3.25352e-05
3.26329e-05
3.27255e-05
3.28134e-05
3.28965e-05
3.29746e-05
3.30476e-05
3.31151e-05
3.31774e-05
3.32344e-05
3.3286e-05
3.33319e-05
3.33721e-05
3.34066e-05
3.34356e-05
3.34587e-05
3.3476e-05
3.34877e-05
3.34936e-05
3.34936e-05
3.34877e-05
3.34761e-05
3.34588e-05
3.34356e-05
3.34066e-05
3.33718e-05
3.33315e-05
3.32856e-05
3.3234e-05
3.31769e-05
3.31144e-05
3.30467e-05
3.29735e-05
3.28954e-05
3.28121e-05
3.27241e-05
3.26309e-05
3.2533e-05
3.24308e-05
3.23239e-05
3.22129e-05
3.20977e-05
3.19784e-05
3.18547e-05
3.162e-05
3.17446e-05
3.18649e-05
3.19811e-05
3.20931e-05
3.22005e-05
3.23036e-05
3.24022e-05
3.24956e-05
3.25843e-05
3.26681e-05
3.2747e-05
3.28207e-05
3.28888e-05
3.29517e-05
3.30092e-05
3.30614e-05
3.31077e-05
3.31483e-05
3.31831e-05
3.32124e-05
3.32358e-05
3.32531e-05
3.32649e-05
3.3271e-05
3.32711e-05
3.32651e-05
3.32534e-05
3.32357e-05
3.32123e-05
3.3183e-05
3.3148e-05
3.31072e-05
3.30607e-05
3.30086e-05
3.2951e-05
3.28881e-05
3.28199e-05
3.27458e-05
3.26668e-05
3.25828e-05
3.2494e-05
3.24001e-05
3.23013e-05
3.21982e-05
3.20905e-05
3.19786e-05
3.18625e-05
3.17424e-05
3.16178e-05
3.1381e-05
3.15065e-05
3.16277e-05
3.17448e-05
3.18575e-05
3.19658e-05
3.20697e-05
3.21689e-05
3.22632e-05
3.23527e-05
3.24372e-05
3.25168e-05
3.2591e-05
3.26599e-05
3.27234e-05
3.27813e-05
3.2834e-05
3.28807e-05
3.29218e-05
3.2957e-05
3.29866e-05
3.30098e-05
3.30275e-05
3.30394e-05
3.30454e-05
3.30454e-05
3.30395e-05
3.30277e-05
3.30098e-05
3.29862e-05
3.29566e-05
3.29212e-05
3.28802e-05
3.28333e-05
3.27808e-05
3.27227e-05
3.26593e-05
3.25904e-05
3.25155e-05
3.24359e-05
3.23512e-05
3.22616e-05
3.2167e-05
3.20675e-05
3.19635e-05
3.1855e-05
3.17421e-05
3.16252e-05
3.15043e-05
3.13789e-05
3.114e-05
3.12665e-05
3.13884e-05
3.15063e-05
3.16199e-05
3.1729e-05
3.18335e-05
3.19335e-05
3.20285e-05
3.21188e-05
3.2204e-05
3.22842e-05
3.2359e-05
3.24284e-05
3.24926e-05
3.25509e-05
3.2604e-05
3.26511e-05
3.26925e-05
3.2728e-05
3.27578e-05
3.27813e-05
3.27991e-05
3.28112e-05
3.28171e-05
3.28171e-05
3.28111e-05
3.27992e-05
3.27812e-05
3.27575e-05
3.27277e-05
3.2692e-05
3.26508e-05
3.26034e-05
3.25504e-05
3.24918e-05
3.24278e-05
3.23582e-05
3.22829e-05
3.22027e-05
3.21173e-05
3.20269e-05
3.19314e-05
3.18314e-05
3.17265e-05
3.16174e-05
3.15037e-05
3.13859e-05
3.12641e-05
3.1138e-05
3.08967e-05
3.10242e-05
3.11473e-05
3.1266e-05
3.13802e-05
3.149e-05
3.15953e-05
3.16961e-05
3.17917e-05
3.18826e-05
3.19683e-05
3.2049e-05
3.21245e-05
3.21944e-05
3.2259e-05
3.23181e-05
3.23716e-05
3.2419e-05
3.24608e-05
3.24965e-05
3.25263e-05
3.25502e-05
3.25682e-05
3.25803e-05
3.25862e-05
3.25863e-05
3.25802e-05
3.25682e-05
3.25502e-05
3.25261e-05
3.2496e-05
3.24602e-05
3.24185e-05
3.2371e-05
3.23176e-05
3.22586e-05
3.21939e-05
3.21238e-05
3.2048e-05
3.1967e-05
3.18811e-05
3.179e-05
3.16938e-05
3.1593e-05
3.14876e-05
3.13776e-05
3.12631e-05
3.11446e-05
3.10221e-05
3.08953e-05
3.06515e-05
3.07798e-05
3.09039e-05
3.10237e-05
3.11387e-05
3.12492e-05
3.13551e-05
3.14565e-05
3.15528e-05
3.16442e-05
3.17305e-05
3.18118e-05
3.18879e-05
3.19583e-05
3.20232e-05
3.20829e-05
3.21367e-05
3.21845e-05
3.22266e-05
3.22626e-05
3.22925e-05
3.23167e-05
3.23347e-05
3.23467e-05
3.23529e-05
3.23529e-05
3.23469e-05
3.23346e-05
3.23166e-05
3.22921e-05
3.2262e-05
3.22261e-05
3.21839e-05
3.21361e-05
3.20822e-05
3.20228e-05
3.19576e-05
3.1887e-05
3.1811e-05
3.17293e-05
3.16427e-05
3.15509e-05
3.14542e-05
3.13526e-05
3.12466e-05
3.11357e-05
3.10207e-05
3.09015e-05
3.07782e-05
3.06509e-05
3.04048e-05
3.05336e-05
3.06582e-05
3.0779e-05
3.0895e-05
3.10065e-05
3.11129e-05
3.12148e-05
3.13119e-05
3.14037e-05
3.14905e-05
3.15723e-05
3.1649e-05
3.17201e-05
3.17854e-05
3.18453e-05
3.18995e-05
3.19478e-05
3.199e-05
3.20262e-05
3.20565e-05
3.20806e-05
3.2099e-05
3.21111e-05
3.21174e-05
3.21174e-05
3.21113e-05
3.20988e-05
3.20805e-05
3.2056e-05
3.20256e-05
3.19894e-05
3.19472e-05
3.18989e-05
3.18447e-05
3.17848e-05
3.17191e-05
3.16481e-05
3.15717e-05
3.14895e-05
3.14024e-05
3.13099e-05
3.12125e-05
3.11102e-05
3.10035e-05
3.08921e-05
3.07765e-05
3.06567e-05
3.05327e-05
3.04047e-05
3.01564e-05
3.02858e-05
3.04111e-05
3.05322e-05
3.0649e-05
3.07614e-05
3.08688e-05
3.09712e-05
3.10688e-05
3.11613e-05
3.12486e-05
3.13309e-05
3.1408e-05
3.14796e-05
3.15454e-05
3.16057e-05
3.16603e-05
3.17086e-05
3.17512e-05
3.17877e-05
3.1818e-05
3.18425e-05
3.18609e-05
3.1873e-05
3.18794e-05
3.18795e-05
3.18733e-05
3.18609e-05
3.18422e-05
3.18176e-05
3.1787e-05
3.17507e-05
3.17082e-05
3.16596e-05
3.1605e-05
3.15446e-05
3.14786e-05
3.14073e-05
3.13304e-05
3.12477e-05
3.116e-05
3.10669e-05
3.09689e-05
3.0866e-05
3.07588e-05
3.06467e-05
3.05307e-05
3.04101e-05
3.02856e-05
3.0157e-05
2.99066e-05
3.00366e-05
3.01624e-05
3.02839e-05
3.04011e-05
3.05141e-05
3.06223e-05
3.07257e-05
3.0824e-05
3.09169e-05
3.10049e-05
3.10876e-05
3.11652e-05
3.12372e-05
3.13036e-05
3.13641e-05
3.14189e-05
3.14675e-05
3.15102e-05
3.1547e-05
3.15775e-05
3.16021e-05
3.16206e-05
3.16329e-05
3.16392e-05
3.16394e-05
3.1633e-05
3.16206e-05
3.16018e-05
3.1577e-05
3.15465e-05
3.15098e-05
3.14672e-05
3.14184e-05
3.13634e-05
3.13026e-05
3.12362e-05
3.11644e-05
3.10869e-05
3.10039e-05
3.09156e-05
3.0822e-05
3.07235e-05
3.06201e-05
3.05123e-05
3.03997e-05
3.02831e-05
3.01619e-05
3.00369e-05
2.99079e-05
2.96555e-05
2.97858e-05
2.99121e-05
3.0034e-05
3.01518e-05
3.02653e-05
3.03738e-05
3.0478e-05
3.0577e-05
3.06709e-05
3.07592e-05
3.08424e-05
3.09205e-05
3.09929e-05
3.10594e-05
3.11203e-05
3.11753e-05
3.12243e-05
3.12672e-05
3.13043e-05
3.1335e-05
3.13597e-05
3.13783e-05
3.13906e-05
3.13968e-05
3.13971e-05
3.13908e-05
3.13782e-05
3.13593e-05
3.13345e-05
3.13038e-05
3.1267e-05
3.1224e-05
3.11749e-05
3.11197e-05
3.10586e-05
3.09919e-05
3.09196e-05
3.08416e-05
3.07582e-05
3.06695e-05
3.05754e-05
3.04764e-05
3.03726e-05
3.02641e-05
3.01511e-05
3.00339e-05
2.99124e-05
2.97867e-05
2.96573e-05
2.94031e-05
2.95336e-05
2.96601e-05
2.97826e-05
2.99009e-05
3.00147e-05
3.01239e-05
3.02283e-05
3.03279e-05
3.04226e-05
3.05117e-05
3.05954e-05
3.06739e-05
3.07466e-05
3.08134e-05
3.08745e-05
3.09299e-05
3.09793e-05
3.10224e-05
3.10596e-05
3.10903e-05
3.11152e-05
3.1134e-05
3.11464e-05
3.11527e-05
3.11527e-05
3.11465e-05
3.11337e-05
3.11149e-05
3.109e-05
3.10591e-05
3.10222e-05
3.09789e-05
3.09294e-05
3.08741e-05
3.08126e-05
3.07458e-05
3.0673e-05
3.05946e-05
3.05108e-05
3.04214e-05
3.03271e-05
3.02277e-05
3.01233e-05
3.00143e-05
2.9901e-05
2.97833e-05
2.96612e-05
2.95352e-05
2.94051e-05
2.91492e-05
2.92802e-05
2.94071e-05
2.95298e-05
2.96485e-05
2.97628e-05
2.98724e-05
2.99773e-05
3.00773e-05
3.01722e-05
3.02622e-05
3.03462e-05
3.0425e-05
3.04982e-05
3.05656e-05
3.0627e-05
3.06826e-05
3.07324e-05
3.07755e-05
3.0813e-05
3.08439e-05
3.08689e-05
3.08878e-05
3.09002e-05
3.09066e-05
3.09066e-05
3.09001e-05
3.08875e-05
3.08686e-05
3.08437e-05
3.08126e-05
3.07755e-05
3.07321e-05
3.06822e-05
3.06267e-05
3.05649e-05
3.04978e-05
3.04245e-05
3.03457e-05
3.02615e-05
3.01719e-05
3.00772e-05
2.99773e-05
2.98725e-05
2.97632e-05
2.96494e-05
2.95313e-05
2.94087e-05
2.92823e-05
2.91518e-05
2.8894e-05
2.90254e-05
2.91527e-05
2.92759e-05
2.93949e-05
2.95095e-05
2.96195e-05
2.97248e-05
2.98251e-05
2.99203e-05
3.00104e-05
3.00951e-05
3.01742e-05
3.02476e-05
3.03154e-05
3.03771e-05
3.04331e-05
3.04831e-05
3.05268e-05
3.05645e-05
3.05957e-05
3.06207e-05
3.06396e-05
3.06523e-05
3.06586e-05
3.06585e-05
3.06521e-05
3.06395e-05
3.06207e-05
3.05957e-05
3.05643e-05
3.0527e-05
3.04834e-05
3.04332e-05
3.03774e-05
3.03155e-05
3.0248e-05
3.01745e-05
3.00953e-05
3.00107e-05
2.99209e-05
2.98258e-05
2.97254e-05
2.96202e-05
2.95104e-05
2.93963e-05
2.92779e-05
2.91548e-05
2.90281e-05
2.88972e-05
2.86379e-05
2.87695e-05
2.88971e-05
2.90207e-05
2.914e-05
2.92549e-05
2.93651e-05
2.94708e-05
2.95715e-05
2.9667e-05
2.97574e-05
2.98425e-05
2.99218e-05
2.99954e-05
3.00635e-05
3.01254e-05
3.01815e-05
3.02317e-05
3.02759e-05
3.0314e-05
3.03456e-05
3.03708e-05
3.03898e-05
3.04026e-05
3.04088e-05
3.04087e-05
3.04023e-05
3.03898e-05
3.03709e-05
3.03458e-05
3.03142e-05
3.02766e-05
3.02329e-05
3.01826e-05
3.01266e-05
3.00646e-05
2.99968e-05
2.9923e-05
2.98434e-05
2.97585e-05
2.96684e-05
2.9573e-05
2.94722e-05
2.93665e-05
2.92564e-05
2.91418e-05
2.90231e-05
2.88998e-05
2.87726e-05
2.86415e-05
2.83806e-05
2.85126e-05
2.86404e-05
2.87644e-05
2.88839e-05
2.89991e-05
2.91097e-05
2.92157e-05
2.93165e-05
2.94123e-05
2.95031e-05
2.95885e-05
2.9668e-05
2.97418e-05
2.981e-05
2.98722e-05
2.99283e-05
2.99788e-05
3.00232e-05
3.00613e-05
3.00931e-05
3.01185e-05
3.01378e-05
3.01507e-05
3.01573e-05
3.01571e-05
3.01509e-05
3.01384e-05
3.01193e-05
3.00939e-05
3.00624e-05
3.00248e-05
2.99808e-05
2.99303e-05
2.98741e-05
2.9812e-05
2.97439e-05
2.96698e-05
2.959e-05
2.95049e-05
2.94144e-05
2.93185e-05
2.92176e-05
2.91115e-05
2.9001e-05
2.8886e-05
2.8767e-05
2.86434e-05
2.8516e-05
2.83845e-05
2.81224e-05
2.82545e-05
2.83826e-05
2.85069e-05
2.86268e-05
2.87422e-05
2.8853e-05
2.89591e-05
2.90604e-05
2.91564e-05
2.92474e-05
2.9333e-05
2.94127e-05
2.94868e-05
2.9555e-05
2.96174e-05
2.96737e-05
2.97243e-05
2.97689e-05
2.9807e-05
2.98389e-05
2.98644e-05
2.98838e-05
2.98967e-05
2.99035e-05
2.99036e-05
2.98974e-05
2.9885e-05
2.98658e-05
2.98405e-05
2.98091e-05
2.97714e-05
2.9727e-05
2.96767e-05
2.96201e-05
2.95578e-05
2.94895e-05
2.94151e-05
2.93353e-05
2.92499e-05
2.91589e-05
2.90628e-05
2.89616e-05
2.88553e-05
2.87445e-05
2.86292e-05
2.85098e-05
2.8386e-05
2.82583e-05
2.81266e-05
2.78633e-05
2.79955e-05
2.81238e-05
2.82483e-05
2.83685e-05
2.8484e-05
2.85952e-05
2.87014e-05
2.88028e-05
2.88992e-05
2.89903e-05
2.9076e-05
2.9156e-05
2.92303e-05
2.92986e-05
2.93612e-05
2.94178e-05
2.94685e-05
2.95132e-05
2.95512e-05
2.95832e-05
2.96088e-05
2.96283e-05
2.96412e-05
2.96479e-05
2.9648e-05
2.9642e-05
2.96296e-05
2.96103e-05
2.95851e-05
2.95537e-05
2.95161e-05
2.9472e-05
2.94217e-05
2.93648e-05
2.93022e-05
2.92337e-05
2.91591e-05
2.9079e-05
2.89935e-05
2.89023e-05
2.88059e-05
2.87043e-05
2.85979e-05
2.84868e-05
2.83713e-05
2.82515e-05
2.81275e-05
2.79995e-05
2.78676e-05
2.76032e-05
2.77355e-05
2.7864e-05
2.79887e-05
2.81091e-05
2.82249e-05
2.83363e-05
2.84427e-05
2.85443e-05
2.86409e-05
2.87319e-05
2.88178e-05
2.88979e-05
2.89724e-05
2.9041e-05
2.91036e-05
2.91604e-05
2.92112e-05
2.9256e-05
2.92941e-05
2.9326e-05
2.93517e-05
2.93714e-05
2.93842e-05
2.93909e-05
2.93913e-05
2.93852e-05
2.93727e-05
2.93534e-05
2.9328e-05
2.92965e-05
2.92588e-05
2.9215e-05
2.91649e-05
2.9108e-05
2.90453e-05
2.89766e-05
2.89017e-05
2.88216e-05
2.87358e-05
2.86443e-05
2.85476e-05
2.84458e-05
2.83392e-05
2.8228e-05
2.81123e-05
2.79922e-05
2.78681e-05
2.77398e-05
2.76076e-05
2.73422e-05
2.74748e-05
2.76034e-05
2.77281e-05
2.78486e-05
2.79646e-05
2.80764e-05
2.8183e-05
2.82848e-05
2.83814e-05
2.84725e-05
2.85584e-05
2.86387e-05
2.87134e-05
2.87821e-05
2.88448e-05
2.89016e-05
2.89527e-05
2.89975e-05
2.90356e-05
2.90675e-05
2.90933e-05
2.9113e-05
2.91258e-05
2.91326e-05
2.91331e-05
2.91269e-05
2.91144e-05
2.9095e-05
2.90696e-05
2.90381e-05
2.90003e-05
2.89564e-05
2.89064e-05
2.88498e-05
2.8787e-05
2.87182e-05
2.86432e-05
2.8563e-05
2.84769e-05
2.83851e-05
2.82882e-05
2.81863e-05
2.80795e-05
2.7968e-05
2.78523e-05
2.7732e-05
2.76078e-05
2.74792e-05
2.73469e-05
2.70805e-05
2.72131e-05
2.73419e-05
2.74667e-05
2.75872e-05
2.77034e-05
2.78152e-05
2.79221e-05
2.80241e-05
2.81208e-05
2.82121e-05
2.82979e-05
2.83784e-05
2.84532e-05
2.85221e-05
2.85849e-05
2.86417e-05
2.86928e-05
2.87378e-05
2.87757e-05
2.88077e-05
2.88336e-05
2.88534e-05
2.88662e-05
2.8873e-05
2.88734e-05
2.88673e-05
2.88545e-05
2.88353e-05
2.88099e-05
2.87783e-05
2.87404e-05
2.86965e-05
2.86466e-05
2.85904e-05
2.85276e-05
2.84586e-05
2.83835e-05
2.8303e-05
2.82169e-05
2.81249e-05
2.80278e-05
2.79256e-05
2.78187e-05
2.77072e-05
2.75911e-05
2.74709e-05
2.73464e-05
2.72179e-05
2.70854e-05
2.6818e-05
2.69507e-05
2.70795e-05
2.72044e-05
2.73251e-05
2.74413e-05
2.75531e-05
2.76603e-05
2.77625e-05
2.78592e-05
2.79506e-05
2.80365e-05
2.81169e-05
2.81918e-05
2.82608e-05
2.83237e-05
2.83807e-05
2.84319e-05
2.84769e-05
2.85147e-05
2.85467e-05
2.85727e-05
2.85926e-05
2.86054e-05
2.8612e-05
2.86125e-05
2.86064e-05
2.85936e-05
2.85743e-05
2.85491e-05
2.85174e-05
2.84794e-05
2.84354e-05
2.83856e-05
2.83293e-05
2.82665e-05
2.81974e-05
2.81226e-05
2.80418e-05
2.79557e-05
2.78636e-05
2.77663e-05
2.7664e-05
2.75571e-05
2.74454e-05
2.73292e-05
2.72089e-05
2.70843e-05
2.69557e-05
2.68231e-05
2.65549e-05
2.66875e-05
2.68163e-05
2.69414e-05
2.70621e-05
2.71784e-05
2.72901e-05
2.73974e-05
2.74997e-05
2.75966e-05
2.76881e-05
2.7774e-05
2.78546e-05
2.79293e-05
2.79985e-05
2.80614e-05
2.81186e-05
2.81698e-05
2.82147e-05
2.82525e-05
2.82846e-05
2.83107e-05
2.83305e-05
2.83433e-05
2.835e-05
2.83504e-05
2.83441e-05
2.83314e-05
2.83123e-05
2.82872e-05
2.82552e-05
2.82172e-05
2.81733e-05
2.81234e-05
2.80669e-05
2.8004e-05
2.79348e-05
2.78602e-05
2.77792e-05
2.7693e-05
2.76009e-05
2.75037e-05
2.74016e-05
2.72947e-05
2.7183e-05
2.70664e-05
2.69461e-05
2.68214e-05
2.66928e-05
2.656e-05
2.62912e-05
2.64236e-05
2.65524e-05
2.66774e-05
2.67984e-05
2.69148e-05
2.70264e-05
2.71337e-05
2.7236e-05
2.7333e-05
2.74246e-05
2.75105e-05
2.75911e-05
2.76659e-05
2.77351e-05
2.77981e-05
2.78553e-05
2.79064e-05
2.79514e-05
2.79893e-05
2.80215e-05
2.80476e-05
2.80674e-05
2.808e-05
2.80867e-05
2.80872e-05
2.80808e-05
2.80683e-05
2.80492e-05
2.80239e-05
2.7992e-05
2.79539e-05
2.79101e-05
2.78602e-05
2.78037e-05
2.77406e-05
2.76711e-05
2.75963e-05
2.75153e-05
2.74291e-05
2.7337e-05
2.72397e-05
2.71379e-05
2.70307e-05
2.69192e-05
2.68029e-05
2.66824e-05
2.65577e-05
2.64291e-05
2.62964e-05
2.60268e-05
2.61592e-05
2.62879e-05
2.64128e-05
2.65337e-05
2.66502e-05
2.67618e-05
2.68692e-05
2.69716e-05
2.70685e-05
2.71601e-05
2.72462e-05
2.73267e-05
2.74017e-05
2.74708e-05
2.75338e-05
2.75912e-05
2.7642e-05
2.7687e-05
2.77252e-05
2.77573e-05
2.77835e-05
2.7803e-05
2.78157e-05
2.78225e-05
2.78229e-05
2.78166e-05
2.7804e-05
2.7785e-05
2.77597e-05
2.77277e-05
2.76897e-05
2.76458e-05
2.75959e-05
2.75394e-05
2.74761e-05
2.74066e-05
2.73315e-05
2.72505e-05
2.71643e-05
2.70722e-05
2.69748e-05
2.68728e-05
2.67657e-05
2.66544e-05
2.65381e-05
2.64176e-05
2.62931e-05
2.61644e-05
2.60318e-05
2.57618e-05
2.58943e-05
2.6023e-05
2.61476e-05
2.62685e-05
2.63848e-05
2.64966e-05
2.66039e-05
2.67061e-05
2.68032e-05
2.68946e-05
2.69811e-05
2.70616e-05
2.71365e-05
2.72057e-05
2.72686e-05
2.73258e-05
2.73767e-05
2.74217e-05
2.74599e-05
2.74922e-05
2.75181e-05
2.75377e-05
2.75505e-05
2.75573e-05
2.75576e-05
2.75514e-05
2.75388e-05
2.75197e-05
2.74943e-05
2.74624e-05
2.74245e-05
2.73805e-05
2.73305e-05
2.72743e-05
2.72108e-05
2.7141e-05
2.70659e-05
2.69851e-05
2.68988e-05
2.68066e-05
2.67092e-05
2.66071e-05
2.65001e-05
2.63888e-05
2.62723e-05
2.6152e-05
2.60276e-05
2.58988e-05
2.57664e-05
2.54964e-05
2.56287e-05
2.57573e-05
2.58819e-05
2.60027e-05
2.61191e-05
2.62308e-05
2.63378e-05
2.644e-05
2.65371e-05
2.66286e-05
2.67149e-05
2.67955e-05
2.68705e-05
2.69399e-05
2.70026e-05
2.70597e-05
2.71105e-05
2.71555e-05
2.71937e-05
2.7226e-05
2.7252e-05
2.72713e-05
2.72842e-05
2.7291e-05
2.72913e-05
2.72852e-05
2.72727e-05
2.72535e-05
2.72281e-05
2.71963e-05
2.71584e-05
2.71143e-05
2.70643e-05
2.70083e-05
2.69446e-05
2.68746e-05
2.67996e-05
2.67187e-05
2.66324e-05
2.65403e-05
2.64429e-05
2.63407e-05
2.62338e-05
2.61223e-05
2.6006e-05
2.58859e-05
2.57616e-05
2.56328e-05
2.55005e-05
2.52304e-05
2.53625e-05
2.54912e-05
2.56156e-05
2.57362e-05
2.58525e-05
2.59643e-05
2.60711e-05
2.61732e-05
2.62703e-05
2.63619e-05
2.64482e-05
2.65286e-05
2.66037e-05
2.6673e-05
2.67358e-05
2.67927e-05
2.68435e-05
2.68884e-05
2.69266e-05
2.69589e-05
2.69851e-05
2.70042e-05
2.70171e-05
2.7024e-05
2.70241e-05
2.70181e-05
2.70055e-05
2.69865e-05
2.69611e-05
2.69294e-05
2.68915e-05
2.68473e-05
2.67972e-05
2.67412e-05
2.66774e-05
2.66075e-05
2.65324e-05
2.64516e-05
2.63652e-05
2.62732e-05
2.6176e-05
2.60739e-05
2.5967e-05
2.58554e-05
2.57393e-05
2.56193e-05
2.5495e-05
2.53664e-05
2.5234e-05
2.4964e-05
2.50959e-05
2.52244e-05
2.53487e-05
2.54692e-05
2.55854e-05
2.56971e-05
2.58039e-05
2.59059e-05
2.60028e-05
2.60944e-05
2.61806e-05
2.62611e-05
2.63362e-05
2.64053e-05
2.64683e-05
2.65249e-05
2.65758e-05
2.66206e-05
2.66587e-05
2.66912e-05
2.67172e-05
2.67362e-05
2.67492e-05
2.67561e-05
2.67563e-05
2.67501e-05
2.67376e-05
2.67186e-05
2.66932e-05
2.66616e-05
2.66236e-05
2.65796e-05
2.65294e-05
2.64733e-05
2.64095e-05
2.63397e-05
2.62646e-05
2.61837e-05
2.60973e-05
2.60055e-05
2.59083e-05
2.58064e-05
2.56996e-05
2.5588e-05
2.54721e-05
2.53522e-05
2.52279e-05
2.50995e-05
2.49673e-05
2.46973e-05
2.4829e-05
2.49573e-05
2.50814e-05
2.52017e-05
2.53178e-05
2.54294e-05
2.55362e-05
2.56379e-05
2.57347e-05
2.58263e-05
2.59124e-05
2.5993e-05
2.6068e-05
2.61368e-05
2.61998e-05
2.62566e-05
2.63073e-05
2.63519e-05
2.63901e-05
2.64224e-05
2.64484e-05
2.64675e-05
2.64805e-05
2.64875e-05
2.64875e-05
2.64814e-05
2.64689e-05
2.645e-05
2.64248e-05
2.63931e-05
2.63552e-05
2.63111e-05
2.62609e-05
2.62046e-05
2.61408e-05
2.60712e-05
2.59962e-05
2.59152e-05
2.58288e-05
2.57372e-05
2.564e-05
2.55384e-05
2.54316e-05
2.53202e-05
2.52045e-05
2.50847e-05
2.49606e-05
2.48324e-05
2.47002e-05
2.44302e-05
2.45617e-05
2.46898e-05
2.48138e-05
2.49338e-05
2.50497e-05
2.51612e-05
2.52678e-05
2.53694e-05
2.54661e-05
2.55577e-05
2.56436e-05
2.57241e-05
2.5799e-05
2.58678e-05
2.59307e-05
2.59875e-05
2.60381e-05
2.60825e-05
2.61208e-05
2.61529e-05
2.61787e-05
2.61981e-05
2.62111e-05
2.62182e-05
2.62181e-05
2.62119e-05
2.61996e-05
2.61807e-05
2.61555e-05
2.61239e-05
2.60861e-05
2.6042e-05
2.59917e-05
2.59351e-05
2.58715e-05
2.58022e-05
2.5727e-05
2.56462e-05
2.55599e-05
2.54684e-05
2.53713e-05
2.52699e-05
2.51632e-05
2.5052e-05
2.49366e-05
2.48169e-05
2.4693e-05
2.45649e-05
2.4433e-05
2.41629e-05
2.42942e-05
2.44221e-05
2.45457e-05
2.46657e-05
2.47814e-05
2.48925e-05
2.49991e-05
2.51005e-05
2.5197e-05
2.52885e-05
2.53743e-05
2.54547e-05
2.55295e-05
2.5598e-05
2.5661e-05
2.57178e-05
2.57682e-05
2.58126e-05
2.58508e-05
2.58828e-05
2.59085e-05
2.5928e-05
2.59411e-05
2.5948e-05
2.5948e-05
2.59418e-05
2.59295e-05
2.59107e-05
2.58856e-05
2.58541e-05
2.58163e-05
2.57722e-05
2.57218e-05
2.5665e-05
2.56015e-05
2.55323e-05
2.54572e-05
2.53766e-05
2.52903e-05
2.51991e-05
2.51021e-05
2.50008e-05
2.48944e-05
2.47833e-05
2.46682e-05
2.45487e-05
2.4425e-05
2.42971e-05
2.41655e-05
2.38954e-05
2.40263e-05
2.4154e-05
2.42774e-05
2.43972e-05
2.45126e-05
2.46236e-05
2.473e-05
2.48311e-05
2.49274e-05
2.50187e-05
2.51045e-05
2.51849e-05
2.52594e-05
2.53278e-05
2.53907e-05
2.54476e-05
2.54978e-05
2.55421e-05
2.55801e-05
2.5612e-05
2.56378e-05
2.56572e-05
2.56703e-05
2.56773e-05
2.56771e-05
2.56711e-05
2.56587e-05
2.56401e-05
2.5615e-05
2.55837e-05
2.55458e-05
2.55019e-05
2.54515e-05
2.53944e-05
2.5331e-05
2.52619e-05
2.5187e-05
2.51065e-05
2.50204e-05
2.49293e-05
2.48326e-05
2.47313e-05
2.4625e-05
2.45143e-05
2.43993e-05
2.42801e-05
2.41567e-05
2.40292e-05
2.38977e-05
2.36277e-05
2.37584e-05
2.38857e-05
2.40089e-05
2.41284e-05
2.42436e-05
2.43544e-05
2.44603e-05
2.45612e-05
2.46573e-05
2.47485e-05
2.48343e-05
2.49146e-05
2.4989e-05
2.50571e-05
2.51198e-05
2.51767e-05
2.52269e-05
2.52711e-05
2.53089e-05
2.53408e-05
2.53665e-05
2.5386e-05
2.5399e-05
2.54058e-05
2.54059e-05
2.53998e-05
2.53875e-05
2.53689e-05
2.5344e-05
2.53127e-05
2.52749e-05
2.52311e-05
2.51808e-05
2.51233e-05
2.506e-05
2.49911e-05
2.49164e-05
2.4836e-05
2.47501e-05
2.4659e-05
2.45627e-05
2.44616e-05
2.43555e-05
2.42451e-05
2.41302e-05
2.40113e-05
2.38881e-05
2.37609e-05
2.36295e-05
2.33599e-05
2.34902e-05
2.36173e-05
2.37401e-05
2.38592e-05
2.39742e-05
2.40848e-05
2.41903e-05
2.4291e-05
2.43869e-05
2.44781e-05
2.45635e-05
2.46438e-05
2.4718e-05
2.47861e-05
2.48486e-05
2.49054e-05
2.49556e-05
2.49996e-05
2.50373e-05
2.5069e-05
2.50948e-05
2.51142e-05
2.51273e-05
2.51339e-05
2.51341e-05
2.51281e-05
2.51157e-05
2.50972e-05
2.50724e-05
2.50412e-05
2.50035e-05
2.49597e-05
2.49093e-05
2.48518e-05
2.47887e-05
2.47199e-05
2.46453e-05
2.45651e-05
2.44794e-05
2.43886e-05
2.42925e-05
2.41915e-05
2.40856e-05
2.39756e-05
2.38609e-05
2.37421e-05
2.36191e-05
2.34924e-05
2.33613e-05
2.3092e-05
2.3222e-05
2.33486e-05
2.34712e-05
2.359e-05
2.37047e-05
2.38148e-05
2.39202e-05
2.40205e-05
2.41163e-05
2.42073e-05
2.42925e-05
2.43726e-05
2.44466e-05
2.45146e-05
2.45769e-05
2.46335e-05