/*--------------------------------*- C++ -*----------------------------------*\
  =========                 |
  \\      /  F ield         | OpenFOAM: The Open Source CFD Toolbox
   \\    /   O peration     | Website:  https://openfoam.org
    \\  /    A nd           | Version:  7
     \\/     M anipulation  |
\*---------------------------------------------------------------------------*/
FoamFile
{
    version     2.0;
    format      ascii;
    class       volScalarField;
    location    "20000";
    object      nu;
}
// * * * * * * * * * * * * * * * * * * * * * * * * * * * * * * * * * * * * * //

dimensions      [0 2 -1 0 0 0 0];

internalField   nonuniform List<scalar> 
14100
(
2.3145e-05
2.44796e-05
2.52606e-05
2.62213e-05
2.73272e-05
2.85289e-05
2.97962e-05
3.11003e-05
3.24082e-05
3.36792e-05
3.48648e-05
3.59105e-05
3.67597e-05
3.73601e-05
3.76715e-05
3.76715e-05
3.73601e-05
3.67597e-05
3.59105e-05
3.48649e-05
3.36792e-05
3.24082e-05
3.11003e-05
2.97961e-05
2.85289e-05
2.73272e-05
2.62213e-05
2.52606e-05
2.44796e-05
2.3145e-05
1.89925e-05
2.10185e-05
2.17624e-05
2.2609e-05
2.35558e-05
2.45741e-05
2.5635e-05
2.67098e-05
2.77682e-05
2.87767e-05
2.96993e-05
3.04982e-05
3.11368e-05
3.15828e-05
3.18123e-05
3.18123e-05
3.15828e-05
3.11368e-05
3.04982e-05
2.96994e-05
2.87767e-05
2.77681e-05
2.67098e-05
2.56349e-05
2.45741e-05
2.35558e-05
2.2609e-05
2.17624e-05
2.10185e-05
1.89925e-05
1.72949e-05
1.91647e-05
1.98862e-05
2.06096e-05
2.13673e-05
2.21609e-05
2.29774e-05
2.37976e-05
2.45991e-05
2.53568e-05
2.60444e-05
2.66354e-05
2.71047e-05
2.74309e-05
2.75982e-05
2.75982e-05
2.74309e-05
2.71047e-05
2.66354e-05
2.60444e-05
2.53567e-05
2.4599e-05
2.37976e-05
2.29774e-05
2.21609e-05
2.13673e-05
2.06095e-05
1.98862e-05
1.91647e-05
1.72949e-05
1.60959e-05
1.76158e-05
1.82778e-05
1.89225e-05
1.95671e-05
2.02183e-05
2.08728e-05
2.15203e-05
2.21457e-05
2.27316e-05
2.3259e-05
2.37093e-05
2.4065e-05
2.43112e-05
2.44371e-05
2.44371e-05
2.43112e-05
2.4065e-05
2.37094e-05
2.3259e-05
2.27316e-05
2.21457e-05
2.15203e-05
2.08728e-05
2.02182e-05
1.9567e-05
1.89225e-05
1.82778e-05
1.76158e-05
1.60959e-05
1.51144e-05
1.6348e-05
1.69221e-05
1.74876e-05
1.80452e-05
1.85966e-05
1.91398e-05
1.96686e-05
2.0173e-05
2.06408e-05
2.10586e-05
2.1413e-05
2.16915e-05
2.18836e-05
2.19816e-05
2.19816e-05
2.18836e-05
2.16915e-05
2.1413e-05
2.10586e-05
2.06408e-05
2.0173e-05
1.96686e-05
1.91398e-05
1.85966e-05
1.80452e-05
1.74876e-05
1.69221e-05
1.6348e-05
1.51144e-05
1.42756e-05
1.52921e-05
1.57847e-05
1.62748e-05
1.67578e-05
1.7231e-05
1.76915e-05
1.81342e-05
1.85519e-05
1.89358e-05
1.92761e-05
1.9563e-05
1.97873e-05
1.99416e-05
2.00201e-05
2.00201e-05
1.99416e-05
1.97873e-05
1.9563e-05
1.92761e-05
1.89358e-05
1.85519e-05
1.81342e-05
1.76915e-05
1.7231e-05
1.67578e-05
1.62748e-05
1.57847e-05
1.52921e-05
1.42756e-05
1.35435e-05
1.4394e-05
1.48194e-05
1.52443e-05
1.56634e-05
1.60726e-05
1.64681e-05
1.68452e-05
1.7198e-05
1.75198e-05
1.78032e-05
1.80409e-05
1.8226e-05
1.83529e-05
1.84174e-05
1.84174e-05
1.83529e-05
1.8226e-05
1.80409e-05
1.78032e-05
1.75198e-05
1.7198e-05
1.68452e-05
1.64681e-05
1.60726e-05
1.56634e-05
1.52443e-05
1.48194e-05
1.4394e-05
1.35435e-05
1.28957e-05
1.36169e-05
1.3988e-05
1.43587e-05
1.47244e-05
1.50807e-05
1.54237e-05
1.57489e-05
1.60514e-05
1.63257e-05
1.65661e-05
1.67668e-05
1.69225e-05
1.7029e-05
1.7083e-05
1.7083e-05
1.7029e-05
1.69225e-05
1.67668e-05
1.65661e-05
1.63257e-05
1.60514e-05
1.57489e-05
1.54237e-05
1.50807e-05
1.47244e-05
1.43587e-05
1.3988e-05
1.36169e-05
1.28957e-05
1.23168e-05
1.29354e-05
1.32624e-05
1.35886e-05
1.39099e-05
1.42225e-05
1.45225e-05
1.48059e-05
1.50684e-05
1.53054e-05
1.55122e-05
1.56842e-05
1.58174e-05
1.59082e-05
1.59542e-05
1.59542e-05
1.59082e-05
1.58174e-05
1.56842e-05
1.55122e-05
1.53054e-05
1.50684e-05
1.4806e-05
1.45225e-05
1.42225e-05
1.39099e-05
1.35886e-05
1.32624e-05
1.29354e-05
1.23168e-05
1.17951e-05
1.23312e-05
1.26219e-05
1.29113e-05
1.31959e-05
1.34722e-05
1.37368e-05
1.3986e-05
1.42161e-05
1.44231e-05
1.46031e-05
1.47525e-05
1.48678e-05
1.49463e-05
1.49861e-05
1.49861e-05
1.49463e-05
1.48678e-05
1.47525e-05
1.46031e-05
1.44231e-05
1.42161e-05
1.3986e-05
1.37368e-05
1.34722e-05
1.31959e-05
1.29113e-05
1.26219e-05
1.23312e-05
1.17951e-05
1.13217e-05
1.17904e-05
1.2051e-05
1.23098e-05
1.25638e-05
1.28099e-05
1.3045e-05
1.3266e-05
1.34694e-05
1.36519e-05
1.38103e-05
1.39413e-05
1.40423e-05
1.4111e-05
1.41458e-05
1.41458e-05
1.4111e-05
1.40423e-05
1.39413e-05
1.38103e-05
1.36519e-05
1.34694e-05
1.3266e-05
1.3045e-05
1.28099e-05
1.25638e-05
1.23098e-05
1.2051e-05
1.17904e-05
1.13217e-05
1.08895e-05
1.13026e-05
1.15379e-05
1.1771e-05
1.19992e-05
1.22199e-05
1.24304e-05
1.26278e-05
1.28091e-05
1.29714e-05
1.31119e-05
1.3228e-05
1.33173e-05
1.3378e-05
1.34086e-05
1.34086e-05
1.3378e-05
1.33173e-05
1.3228e-05
1.31119e-05
1.29714e-05
1.28091e-05
1.26278e-05
1.24304e-05
1.22199e-05
1.19992e-05
1.1771e-05
1.15379e-05
1.13026e-05
1.08895e-05
1.04927e-05
1.08595e-05
1.10732e-05
1.12845e-05
1.1491e-05
1.16903e-05
1.188e-05
1.20575e-05
1.22202e-05
1.23656e-05
1.24913e-05
1.2595e-05
1.26746e-05
1.27286e-05
1.27559e-05
1.27559e-05
1.27286e-05
1.26746e-05
1.2595e-05
1.24913e-05
1.23656e-05
1.22202e-05
1.20575e-05
1.188e-05
1.16903e-05
1.1491e-05
1.12845e-05
1.10732e-05
1.08595e-05
1.04927e-05
1.01268e-05
1.04545e-05
1.06498e-05
1.08425e-05
1.10304e-05
1.12114e-05
1.13834e-05
1.1544e-05
1.1691e-05
1.18222e-05
1.19354e-05
1.20286e-05
1.21001e-05
1.21486e-05
1.21731e-05
1.21731e-05
1.21486e-05
1.21001e-05
1.20286e-05
1.19354e-05
1.18222e-05
1.16911e-05
1.1544e-05
1.13834e-05
1.12114e-05
1.10304e-05
1.08425e-05
1.06498e-05
1.04545e-05
1.01268e-05
9.78773e-06
1.00824e-05
1.02618e-05
1.04384e-05
1.06103e-05
1.07756e-05
1.09324e-05
1.10786e-05
1.12122e-05
1.13313e-05
1.14338e-05
1.15182e-05
1.15829e-05
1.16267e-05
1.16488e-05
1.16488e-05
1.16267e-05
1.15829e-05
1.15182e-05
1.14338e-05
1.13313e-05
1.12122e-05
1.10786e-05
1.09324e-05
1.07756e-05
1.06103e-05
1.04384e-05
1.02618e-05
1.00824e-05
9.78773e-06
9.47232e-06
9.73869e-06
9.9042e-06
1.00669e-05
1.02249e-05
1.03767e-05
1.05204e-05
1.06542e-05
1.07763e-05
1.08849e-05
1.09783e-05
1.10551e-05
1.1114e-05
1.11538e-05
1.11739e-05
1.11739e-05
1.11538e-05
1.1114e-05
1.10551e-05
1.09783e-05
1.08849e-05
1.07763e-05
1.06542e-05
1.05204e-05
1.03767e-05
1.02249e-05
1.00669e-05
9.90419e-06
9.73869e-06
9.47232e-06
9.17781e-06
9.41982e-06
9.57318e-06
9.72366e-06
9.86965e-06
1.00096e-05
1.01419e-05
1.02649e-05
1.0377e-05
1.04766e-05
1.05623e-05
1.06325e-05
1.06863e-05
1.07227e-05
1.07411e-05
1.07411e-05
1.07227e-05
1.06863e-05
1.06326e-05
1.05623e-05
1.04766e-05
1.0377e-05
1.02649e-05
1.01419e-05
1.00096e-05
9.86965e-06
9.72366e-06
9.57318e-06
9.41982e-06
9.17781e-06
8.90187e-06
9.12277e-06
9.26543e-06
9.4052e-06
9.54059e-06
9.67019e-06
9.79254e-06
9.90616e-06
1.00096e-05
1.01013e-05
1.01801e-05
1.02448e-05
1.02942e-05
1.03276e-05
1.03445e-05
1.03445e-05
1.03276e-05
1.02942e-05
1.02448e-05
1.01801e-05
1.01013e-05
1.00096e-05
9.90616e-06
9.79254e-06
9.67019e-06
9.54058e-06
9.4052e-06
9.26543e-06
9.12277e-06
8.90187e-06
8.6425e-06
8.84501e-06
8.97819e-06
9.10847e-06
9.23451e-06
9.35499e-06
9.46859e-06
9.57394e-06
9.66972e-06
9.75462e-06
9.82746e-06
9.88714e-06
9.93276e-06
9.9636e-06
9.97914e-06
9.97914e-06
9.9636e-06
9.93277e-06
9.88715e-06
9.82746e-06
9.75462e-06
9.66972e-06
9.57394e-06
9.46859e-06
9.35499e-06
9.2345e-06
9.10847e-06
8.97818e-06
8.84501e-06
8.6425e-06
8.39799e-06
8.58437e-06
8.7091e-06
8.83096e-06
8.9487e-06
9.0611e-06
9.16695e-06
9.26501e-06
9.35405e-06
9.43291e-06
9.5005e-06
9.55584e-06
9.59811e-06
9.62667e-06
9.64106e-06
9.64106e-06
9.62667e-06
9.59812e-06
9.55584e-06
9.5005e-06
9.43291e-06
9.35405e-06
9.26501e-06
9.16695e-06
9.0611e-06
8.94869e-06
8.83096e-06
8.7091e-06
8.58437e-06
8.39799e-06
8.16684e-06
8.33903e-06
8.45619e-06
8.57053e-06
8.68086e-06
8.78607e-06
8.88504e-06
8.97661e-06
9.05968e-06
9.13319e-06
9.19613e-06
9.24763e-06
9.28695e-06
9.3135e-06
9.32687e-06
9.32687e-06
9.3135e-06
9.28695e-06
9.24763e-06
9.19613e-06
9.13319e-06
9.05969e-06
8.97661e-06
8.88503e-06
8.78607e-06
8.68086e-06
8.57053e-06
8.45619e-06
8.33903e-06
8.16684e-06
7.94777e-06
8.10739e-06
8.21776e-06
8.32534e-06
8.42903e-06
8.52781e-06
8.62062e-06
8.70641e-06
8.78417e-06
8.8529e-06
8.91171e-06
8.9598e-06
8.99649e-06
9.02125e-06
9.03373e-06
9.03373e-06
9.02126e-06
8.99649e-06
8.9598e-06
8.91171e-06
8.8529e-06
8.78417e-06
8.70641e-06
8.62062e-06
8.52781e-06
8.42903e-06
8.32534e-06
8.21776e-06
8.10739e-06
7.94777e-06
7.73965e-06
7.8881e-06
7.99233e-06
8.09382e-06
8.19154e-06
8.28454e-06
8.37182e-06
8.45243e-06
8.52542e-06
8.58988e-06
8.645e-06
8.69004e-06
8.72439e-06
8.74756e-06
8.75923e-06
8.75924e-06
8.74756e-06
8.72439e-06
8.69004e-06
8.645e-06
8.58988e-06
8.52542e-06
8.45243e-06
8.37182e-06
8.28454e-06
8.19154e-06
8.09382e-06
7.99233e-06
7.8881e-06
7.73966e-06
7.54149e-06
7.67997e-06
7.77863e-06
7.87461e-06
7.96694e-06
8.05471e-06
8.13702e-06
8.21296e-06
8.28165e-06
8.34228e-06
8.39408e-06
8.43639e-06
8.46863e-06
8.49038e-06
8.50134e-06
8.50134e-06
8.49039e-06
8.46864e-06
8.43639e-06
8.39409e-06
8.34228e-06
8.28165e-06
8.21296e-06
8.13702e-06
8.05471e-06
7.96694e-06
7.87461e-06
7.77864e-06
7.67997e-06
7.5415e-06
7.35242e-06
7.48196e-06
7.57556e-06
7.66653e-06
7.75396e-06
7.837e-06
7.9148e-06
7.98652e-06
8.05134e-06
8.10851e-06
8.15732e-06
8.19716e-06
8.22751e-06
8.24798e-06
8.25828e-06
8.25828e-06
8.24798e-06
8.22751e-06
8.19716e-06
8.15732e-06
8.10851e-06
8.05134e-06
7.98652e-06
7.9148e-06
7.837e-06
7.75396e-06
7.66653e-06
7.57556e-06
7.48196e-06
7.35243e-06
7.17167e-06
7.29316e-06
7.38214e-06
7.46855e-06
7.55152e-06
7.63025e-06
7.70396e-06
7.77184e-06
7.83315e-06
7.88718e-06
7.93328e-06
7.97089e-06
7.99953e-06
8.01884e-06
8.02855e-06
8.02855e-06
8.01884e-06
7.99953e-06
7.97089e-06
7.93328e-06
7.88718e-06
7.83315e-06
7.77184e-06
7.70396e-06
7.63025e-06
7.55152e-06
7.46855e-06
7.38215e-06
7.29317e-06
7.17168e-06
6.99856e-06
7.11278e-06
7.19753e-06
7.27976e-06
7.35865e-06
7.43346e-06
7.50342e-06
7.56781e-06
7.62593e-06
7.6771e-06
7.72074e-06
7.75632e-06
7.78341e-06
7.80166e-06
7.81084e-06
7.81084e-06
7.80166e-06
7.78341e-06
7.75632e-06
7.72074e-06
7.6771e-06
7.62593e-06
7.56781e-06
7.50342e-06
7.43346e-06
7.35865e-06
7.27976e-06
7.19753e-06
7.11279e-06
6.99857e-06
6.83248e-06
6.94012e-06
7.02097e-06
7.09936e-06
7.17452e-06
7.24572e-06
7.31227e-06
7.37347e-06
7.42866e-06
7.47722e-06
7.51862e-06
7.55235e-06
7.57802e-06
7.59531e-06
7.60401e-06
7.60401e-06
7.59531e-06
7.57802e-06
7.55235e-06
7.51862e-06
7.47722e-06
7.42866e-06
7.37347e-06
7.31227e-06
7.24573e-06
7.17452e-06
7.09937e-06
7.02098e-06
6.94013e-06
6.83248e-06
6.67288e-06
6.77454e-06
6.8518e-06
6.92666e-06
6.99838e-06
7.06627e-06
7.12968e-06
7.18794e-06
7.24045e-06
7.28663e-06
7.32597e-06
7.35801e-06
7.38238e-06
7.3988e-06
7.40705e-06
7.40705e-06
7.3988e-06
7.38238e-06
7.35801e-06
7.32597e-06
7.28664e-06
7.24045e-06
7.18795e-06
7.12968e-06
7.06628e-06
6.99838e-06
6.92667e-06
6.85181e-06
6.77455e-06
6.67289e-06
6.51929e-06
6.61549e-06
6.68944e-06
6.76103e-06
6.82957e-06
6.89442e-06
6.95493e-06
7.01049e-06
7.06054e-06
7.10452e-06
7.14197e-06
7.17246e-06
7.19564e-06
7.21125e-06
7.2191e-06
7.2191e-06
7.21125e-06
7.19564e-06
7.17246e-06
7.14197e-06
7.10453e-06
7.06054e-06
7.0105e-06
6.95493e-06
6.89442e-06
6.82958e-06
6.76103e-06
6.68944e-06
6.6155e-06
6.5193e-06
6.37127e-06
6.46248e-06
6.53334e-06
6.60191e-06
6.66752e-06
6.72954e-06
6.78738e-06
6.84045e-06
6.88822e-06
6.93018e-06
6.96589e-06
6.99494e-06
7.01703e-06
7.03189e-06
7.03937e-06
7.03937e-06
7.0319e-06
7.01703e-06
6.99494e-06
6.96589e-06
6.93018e-06
6.88822e-06
6.84045e-06
6.78738e-06
6.72954e-06
6.66752e-06
6.60192e-06
6.53335e-06
6.46248e-06
6.37127e-06
6.22842e-06
6.31505e-06
6.38305e-06
6.44882e-06
6.51169e-06
6.57109e-06
6.62645e-06
6.67722e-06
6.72288e-06
6.76297e-06
6.79707e-06
6.8248e-06
6.84588e-06
6.86006e-06
6.86719e-06
6.86719e-06
6.86006e-06
6.84588e-06
6.8248e-06
6.79707e-06
6.76297e-06
6.72288e-06
6.67722e-06
6.62645e-06
6.5711e-06
6.5117e-06
6.44882e-06
6.38306e-06
6.31506e-06
6.22842e-06
6.0904e-06
6.17282e-06
6.23815e-06
6.30129e-06
6.36163e-06
6.4186e-06
6.47165e-06
6.52028e-06
6.56399e-06
6.60234e-06
6.63494e-06
6.66145e-06
6.68159e-06
6.69514e-06
6.70195e-06
6.70195e-06
6.69514e-06
6.68159e-06
6.66145e-06
6.63494e-06
6.60234e-06
6.56399e-06
6.52028e-06
6.47165e-06
6.4186e-06
6.36163e-06
6.3013e-06
6.23815e-06
6.17282e-06
6.0904e-06
5.95688e-06
6.03541e-06
6.09825e-06
6.15895e-06
6.21692e-06
6.27161e-06
6.32252e-06
6.36915e-06
6.41104e-06
6.44777e-06
6.47899e-06
6.50436e-06
6.52363e-06
6.53659e-06
6.54311e-06
6.54311e-06
6.53659e-06
6.52363e-06
6.50437e-06
6.47899e-06
6.44778e-06
6.41104e-06
6.36915e-06
6.32252e-06
6.27162e-06
6.21692e-06
6.15895e-06
6.09825e-06
6.03541e-06
5.95688e-06
5.82757e-06
5.90251e-06
5.96301e-06
6.02142e-06
6.07717e-06
6.12975e-06
6.17864e-06
6.22341e-06
6.2636e-06
6.29883e-06
6.32876e-06
6.35307e-06
6.37153e-06
6.38394e-06
6.39018e-06
6.39018e-06
6.38394e-06
6.37153e-06
6.35307e-06
6.32876e-06
6.29883e-06
6.2636e-06
6.22341e-06
6.17865e-06
6.12975e-06
6.07718e-06
6.02143e-06
5.96302e-06
5.90252e-06
5.82757e-06
5.70222e-06
5.77383e-06
5.83213e-06
5.88839e-06
5.94206e-06
5.99264e-06
6.03966e-06
6.08268e-06
6.12129e-06
6.15511e-06
6.18383e-06
6.20715e-06
6.22486e-06
6.23676e-06
6.24274e-06
6.24274e-06
6.23676e-06
6.22486e-06
6.20716e-06
6.18383e-06
6.15511e-06
6.12129e-06
6.08268e-06
6.03967e-06
5.99265e-06
5.94207e-06
5.8884e-06
5.83213e-06
5.77383e-06
5.70222e-06
5.58057e-06
5.64909e-06
5.70533e-06
5.75957e-06
5.81128e-06
5.85999e-06
5.90524e-06
5.94662e-06
5.98374e-06
6.01625e-06
6.04384e-06
6.06623e-06
6.08323e-06
6.09465e-06
6.1004e-06
6.1004e-06
6.09466e-06
6.08323e-06
6.06624e-06
6.04384e-06
6.01625e-06
5.98374e-06
5.94663e-06
5.90525e-06
5.85999e-06
5.81128e-06
5.75957e-06
5.70533e-06
5.64909e-06
5.58057e-06
5.46242e-06
5.52805e-06
5.58234e-06
5.63468e-06
5.68455e-06
5.7315e-06
5.77509e-06
5.81493e-06
5.85065e-06
5.88192e-06
5.90844e-06
5.92997e-06
5.94631e-06
5.95728e-06
5.9628e-06
5.9628e-06
5.95728e-06
5.94631e-06
5.92997e-06
5.90844e-06
5.88192e-06
5.85065e-06
5.81493e-06
5.77509e-06
5.7315e-06
5.68455e-06
5.63468e-06
5.58234e-06
5.52805e-06
5.46242e-06
5.34756e-06
5.4105e-06
5.46295e-06
5.51349e-06
5.56162e-06
5.6069e-06
5.64892e-06
5.68731e-06
5.72171e-06
5.75182e-06
5.77734e-06
5.79806e-06
5.81377e-06
5.82433e-06
5.82963e-06
5.82963e-06
5.82433e-06
5.81377e-06
5.79806e-06
5.77735e-06
5.75182e-06
5.72172e-06
5.68731e-06
5.64893e-06
5.6069e-06
5.56162e-06
5.51349e-06
5.46295e-06
5.4105e-06
5.34757e-06
5.23582e-06
5.29623e-06
5.34694e-06
5.39577e-06
5.44225e-06
5.48596e-06
5.52651e-06
5.56352e-06
5.59668e-06
5.62568e-06
5.65027e-06
5.67022e-06
5.68534e-06
5.6955e-06
5.70061e-06
5.70061e-06
5.6955e-06
5.68534e-06
5.67022e-06
5.65027e-06
5.62569e-06
5.59668e-06
5.56352e-06
5.52651e-06
5.48596e-06
5.44225e-06
5.39577e-06
5.34694e-06
5.29624e-06
5.23582e-06
5.12702e-06
5.18507e-06
5.23411e-06
5.28133e-06
5.32625e-06
5.36847e-06
5.40761e-06
5.44333e-06
5.47531e-06
5.50327e-06
5.52697e-06
5.54619e-06
5.56076e-06
5.57055e-06
5.57547e-06
5.57547e-06
5.57055e-06
5.56076e-06
5.54619e-06
5.52697e-06
5.50328e-06
5.47531e-06
5.44333e-06
5.40761e-06
5.36847e-06
5.32625e-06
5.28133e-06
5.23412e-06
5.18507e-06
5.12702e-06
5.021e-06
5.07683e-06
5.1243e-06
5.16998e-06
5.21341e-06
5.25422e-06
5.29203e-06
5.32652e-06
5.35738e-06
5.38437e-06
5.40722e-06
5.42576e-06
5.43981e-06
5.44924e-06
5.45398e-06
5.45398e-06
5.44924e-06
5.4398e-06
5.42576e-06
5.40722e-06
5.38437e-06
5.35739e-06
5.32652e-06
5.29203e-06
5.25422e-06
5.21342e-06
5.16998e-06
5.1243e-06
5.07684e-06
5.021e-06
4.91763e-06
4.97137e-06
5.01734e-06
5.06155e-06
5.10357e-06
5.14303e-06
5.17958e-06
5.2129e-06
5.24271e-06
5.26875e-06
5.29082e-06
5.3087e-06
5.32225e-06
5.33135e-06
5.33592e-06
5.33592e-06
5.33135e-06
5.32225e-06
5.3087e-06
5.29082e-06
5.26876e-06
5.24271e-06
5.2129e-06
5.17958e-06
5.14303e-06
5.10358e-06
5.06155e-06
5.01734e-06
4.97138e-06
4.91764e-06
4.81678e-06
4.86855e-06
4.91308e-06
4.9559e-06
4.99657e-06
5.03474e-06
5.07008e-06
5.10229e-06
5.1311e-06
5.15626e-06
5.17756e-06
5.19483e-06
5.20791e-06
5.21669e-06
5.22111e-06
5.2211e-06
5.21669e-06
5.20791e-06
5.19483e-06
5.17756e-06
5.15626e-06
5.1311e-06
5.10229e-06
5.07008e-06
5.03474e-06
4.99657e-06
4.9559e-06
4.91308e-06
4.86855e-06
4.81678e-06
4.71833e-06
4.76823e-06
4.81139e-06
4.85287e-06
4.89225e-06
4.9292e-06
4.96339e-06
4.99454e-06
5.02239e-06
5.0467e-06
5.06729e-06
5.08397e-06
5.0966e-06
5.10509e-06
5.10935e-06
5.10934e-06
5.10509e-06
5.0966e-06
5.08397e-06
5.06729e-06
5.0467e-06
5.02239e-06
4.99454e-06
4.96339e-06
4.9292e-06
4.89226e-06
4.85287e-06
4.81139e-06
4.76823e-06
4.71833e-06
4.62215e-06
4.67029e-06
4.71214e-06
4.75234e-06
4.79049e-06
4.82626e-06
4.85935e-06
4.88949e-06
4.91642e-06
4.93994e-06
4.95984e-06
4.97596e-06
4.98817e-06
4.99636e-06
5.00048e-06
5.00048e-06
4.99636e-06
4.98817e-06
4.97596e-06
4.95984e-06
4.93994e-06
4.91642e-06
4.88949e-06
4.85935e-06
4.82626e-06
4.79049e-06
4.75234e-06
4.71214e-06
4.67029e-06
4.62215e-06
4.52816e-06
4.57462e-06
4.61521e-06
4.65418e-06
4.69115e-06
4.7258e-06
4.75784e-06
4.78701e-06
4.81307e-06
4.83582e-06
4.85506e-06
4.87065e-06
4.88245e-06
4.89038e-06
4.89435e-06
4.89435e-06
4.89037e-06
4.88245e-06
4.87065e-06
4.85506e-06
4.83581e-06
4.81307e-06
4.78701e-06
4.75784e-06
4.7258e-06
4.69115e-06
4.65418e-06
4.61521e-06
4.57462e-06
4.52816e-06
4.43625e-06
4.48111e-06
4.52049e-06
4.55829e-06
4.59412e-06
4.6277e-06
4.65873e-06
4.68697e-06
4.71219e-06
4.73421e-06
4.75282e-06
4.7679e-06
4.77932e-06
4.78698e-06
4.79083e-06
4.79083e-06
4.78698e-06
4.77932e-06
4.7679e-06
4.75282e-06
4.7342e-06
4.7122e-06
4.68697e-06
4.65873e-06
4.6277e-06
4.59412e-06
4.55829e-06
4.52049e-06
4.48111e-06
4.43625e-06
4.34633e-06
4.38967e-06
4.42789e-06
4.46455e-06
4.4993e-06
4.53184e-06
4.5619e-06
4.58925e-06
4.61368e-06
4.63499e-06
4.65301e-06
4.6676e-06
4.67865e-06
4.68606e-06
4.68978e-06
4.68978e-06
4.68606e-06
4.67864e-06
4.6676e-06
4.65301e-06
4.63499e-06
4.61368e-06
4.58925e-06
4.5619e-06
4.53184e-06
4.4993e-06
4.46455e-06
4.42789e-06
4.38968e-06
4.34633e-06
4.25831e-06
4.30022e-06
4.33731e-06
4.37288e-06
4.40658e-06
4.43812e-06
4.46725e-06
4.49375e-06
4.51741e-06
4.53804e-06
4.55549e-06
4.56962e-06
4.58031e-06
4.58748e-06
4.59109e-06
4.59109e-06
4.58748e-06
4.58031e-06
4.56962e-06
4.55549e-06
4.53804e-06
4.51741e-06
4.49376e-06
4.46726e-06
4.43812e-06
4.40658e-06
4.37288e-06
4.33731e-06
4.30022e-06
4.25832e-06
4.17213e-06
4.21265e-06
4.24867e-06
4.28318e-06
4.31587e-06
4.34645e-06
4.37469e-06
4.40037e-06
4.42329e-06
4.44328e-06
4.46017e-06
4.47385e-06
4.4842e-06
4.49115e-06
4.49464e-06
4.49464e-06
4.49115e-06
4.4842e-06
4.47385e-06
4.46017e-06
4.44328e-06
4.42329e-06
4.40037e-06
4.37469e-06
4.34645e-06
4.31587e-06
4.28318e-06
4.24867e-06
4.21265e-06
4.17214e-06
4.08771e-06
4.12691e-06
4.16188e-06
4.19537e-06
4.22708e-06
4.25674e-06
4.28412e-06
4.30901e-06
4.33122e-06
4.35058e-06
4.36695e-06
4.3802e-06
4.39022e-06
4.39695e-06
4.40033e-06
4.40033e-06
4.39695e-06
4.39022e-06
4.3802e-06
4.36695e-06
4.35058e-06
4.33122e-06
4.30901e-06
4.28412e-06
4.25674e-06
4.22708e-06
4.19538e-06
4.16188e-06
4.12691e-06
4.08771e-06
4.00498e-06
4.04291e-06
4.07687e-06
4.10938e-06
4.14014e-06
4.16891e-06
4.19546e-06
4.21959e-06
4.24111e-06
4.25988e-06
4.27573e-06
4.28857e-06
4.29828e-06
4.3048e-06
4.30807e-06
4.30807e-06
4.3048e-06
4.29828e-06
4.28857e-06
4.27573e-06
4.25988e-06
4.24111e-06
4.21959e-06
4.19546e-06
4.16891e-06
4.14015e-06
4.10938e-06
4.07687e-06
4.04291e-06
4.00498e-06
3.92387e-06
3.96058e-06
3.99356e-06
4.02512e-06
4.05498e-06
4.08288e-06
4.10863e-06
4.13202e-06
4.15289e-06
4.17107e-06
4.18644e-06
4.19888e-06
4.20829e-06
4.2146e-06
4.21777e-06
4.21777e-06
4.2146e-06
4.20829e-06
4.19887e-06
4.18644e-06
4.17107e-06
4.15289e-06
4.13202e-06
4.10863e-06
4.08288e-06
4.05498e-06
4.02512e-06
3.99356e-06
3.96058e-06
3.92387e-06
3.84432e-06
3.87987e-06
3.9119e-06
3.94254e-06
3.97151e-06
3.99858e-06
4.02355e-06
4.04623e-06
4.06646e-06
4.08409e-06
4.09898e-06
4.11104e-06
4.12016e-06
4.12627e-06
4.12934e-06
4.12934e-06
4.12627e-06
4.12016e-06
4.11104e-06
4.09898e-06
4.08409e-06
4.06646e-06
4.04623e-06
4.02355e-06
3.99858e-06
3.97151e-06
3.94254e-06
3.9119e-06
3.87987e-06
3.84432e-06
3.76629e-06
3.80071e-06
3.83182e-06
3.86156e-06
3.88967e-06
3.91594e-06
3.94015e-06
3.96215e-06
3.98177e-06
3.99886e-06
4.0133e-06
4.02498e-06
4.03382e-06
4.03975e-06
4.04272e-06
4.04272e-06
4.03974e-06
4.03382e-06
4.02498e-06
4.0133e-06
3.99886e-06
3.98177e-06
3.96215e-06
3.94016e-06
3.91594e-06
3.88967e-06
3.86156e-06
3.83182e-06
3.80071e-06
3.76629e-06
3.68971e-06
3.72305e-06
3.75326e-06
3.78213e-06
3.80941e-06
3.83489e-06
3.85838e-06
3.87972e-06
3.89874e-06
3.91531e-06
3.9293e-06
3.94063e-06
3.9492e-06
3.95494e-06
3.95783e-06
3.95783e-06
3.95494e-06
3.94919e-06
3.94063e-06
3.9293e-06
3.91531e-06
3.89874e-06
3.87972e-06
3.85839e-06
3.83489e-06
3.80941e-06
3.78213e-06
3.75326e-06
3.72305e-06
3.68971e-06
3.61453e-06
3.64682e-06
3.67616e-06
3.70419e-06
3.73067e-06
3.75539e-06
3.77817e-06
3.79886e-06
3.81731e-06
3.83337e-06
3.84694e-06
3.85792e-06
3.86623e-06
3.8718e-06
3.87459e-06
3.87459e-06
3.8718e-06
3.86623e-06
3.85792e-06
3.84694e-06
3.83337e-06
3.81731e-06
3.79886e-06
3.77817e-06
3.75539e-06
3.73067e-06
3.70419e-06
3.67616e-06
3.64682e-06
3.61453e-06
3.5407e-06
3.57199e-06
3.60048e-06
3.62769e-06
3.65338e-06
3.67736e-06
3.69947e-06
3.71953e-06
3.73742e-06
3.75299e-06
3.76615e-06
3.7768e-06
3.78485e-06
3.79025e-06
3.79296e-06
3.79296e-06
3.79025e-06
3.78485e-06
3.77679e-06
3.76615e-06
3.75299e-06
3.73742e-06
3.71953e-06
3.69947e-06
3.67736e-06
3.65338e-06
3.62769e-06
3.60048e-06
3.57199e-06
3.5407e-06
3.46819e-06
3.4985e-06
3.52617e-06
3.55258e-06
3.5775e-06
3.60077e-06
3.62221e-06
3.64167e-06
3.65901e-06
3.67412e-06
3.68687e-06
3.69719e-06
3.705e-06
3.71023e-06
3.71286e-06
3.71286e-06
3.71023e-06
3.705e-06
3.69719e-06
3.68687e-06
3.67412e-06
3.65901e-06
3.64167e-06
3.62221e-06
3.60077e-06
3.5775e-06
3.55258e-06
3.52617e-06
3.4985e-06
3.46819e-06
3.39695e-06
3.42631e-06
3.45317e-06
3.4788e-06
3.50299e-06
3.52555e-06
3.54635e-06
3.56522e-06
3.58204e-06
3.59668e-06
3.60905e-06
3.61905e-06
3.62662e-06
3.63169e-06
3.63424e-06
3.63424e-06
3.63169e-06
3.62662e-06
3.61905e-06
3.60905e-06
3.59668e-06
3.58204e-06
3.56522e-06
3.54635e-06
3.52555e-06
3.50299e-06
3.4788e-06
3.45317e-06
3.42631e-06
3.39695e-06
3.32693e-06
3.35538e-06
3.38145e-06
3.40632e-06
3.42978e-06
3.45167e-06
3.47184e-06
3.49014e-06
3.50644e-06
3.52064e-06
3.53263e-06
3.54233e-06
3.54967e-06
3.55458e-06
3.55705e-06
3.55705e-06
3.55458e-06
3.54967e-06
3.54233e-06
3.53263e-06
3.52064e-06
3.50644e-06
3.49014e-06
3.47184e-06
3.45167e-06
3.42978e-06
3.40632e-06
3.38145e-06
3.35538e-06
3.32693e-06
3.2581e-06
3.28566e-06
3.31097e-06
3.33509e-06
3.35785e-06
3.37908e-06
3.39863e-06
3.41637e-06
3.43218e-06
3.44595e-06
3.45757e-06
3.46697e-06
3.47408e-06
3.47885e-06
3.48124e-06
3.48124e-06
3.47885e-06
3.47408e-06
3.46697e-06
3.45757e-06
3.44595e-06
3.43218e-06
3.41637e-06
3.39863e-06
3.37908e-06
3.35785e-06
3.33509e-06
3.31097e-06
3.28566e-06
3.2581e-06
3.19042e-06
3.21712e-06
3.24167e-06
3.26507e-06
3.28714e-06
3.30773e-06
3.32668e-06
3.34389e-06
3.35921e-06
3.37256e-06
3.38382e-06
3.39294e-06
3.39983e-06
3.40445e-06
3.40677e-06
3.40677e-06
3.40445e-06
3.39983e-06
3.39293e-06
3.38382e-06
3.37256e-06
3.35921e-06
3.34389e-06
3.32669e-06
3.30773e-06
3.28714e-06
3.26507e-06
3.24167e-06
3.21712e-06
3.19042e-06
3.12385e-06
3.14971e-06
3.17353e-06
3.19623e-06
3.21763e-06
3.23758e-06
3.25596e-06
3.27263e-06
3.28749e-06
3.30042e-06
3.31134e-06
3.32017e-06
3.32685e-06
3.33133e-06
3.33357e-06
3.33357e-06
3.33133e-06
3.32685e-06
3.32017e-06
3.31134e-06
3.30042e-06
3.28749e-06
3.27263e-06
3.25596e-06
3.23758e-06
3.21763e-06
3.19623e-06
3.17353e-06
3.14971e-06
3.12385e-06
3.05837e-06
3.08341e-06
3.10651e-06
3.12852e-06
3.14926e-06
3.1686e-06
3.18641e-06
3.20257e-06
3.21697e-06
3.2295e-06
3.24008e-06
3.24864e-06
3.25511e-06
3.25945e-06
3.26162e-06
3.26162e-06
3.25945e-06
3.25511e-06
3.24864e-06
3.24008e-06
3.2295e-06
3.21697e-06
3.20257e-06
3.18641e-06
3.1686e-06
3.14926e-06
3.12852e-06
3.10651e-06
3.08341e-06
3.05837e-06
2.99393e-06
3.01818e-06
3.04058e-06
3.0619e-06
3.08201e-06
3.10075e-06
3.11801e-06
3.13367e-06
3.14762e-06
3.15976e-06
3.17001e-06
3.1783e-06
3.18457e-06
3.18877e-06
3.19088e-06
3.19088e-06
3.18877e-06
3.18456e-06
3.1783e-06
3.17001e-06
3.15976e-06
3.14762e-06
3.13367e-06
3.11801e-06
3.10075e-06
3.08201e-06
3.06191e-06
3.04058e-06
3.01818e-06
2.99393e-06
2.93052e-06
2.95398e-06
2.97569e-06
2.99636e-06
3.01584e-06
3.03399e-06
3.05071e-06
3.06588e-06
3.07939e-06
3.09115e-06
3.10108e-06
3.10911e-06
3.11518e-06
3.11925e-06
3.12129e-06
3.12129e-06
3.11925e-06
3.11518e-06
3.10911e-06
3.10108e-06
3.09115e-06
3.07939e-06
3.06588e-06
3.05072e-06
3.03399e-06
3.01584e-06
2.99636e-06
2.97569e-06
2.95398e-06
2.93052e-06
2.86808e-06
2.89079e-06
2.91183e-06
2.93185e-06
2.95071e-06
2.9683e-06
2.98449e-06
2.99918e-06
3.01226e-06
3.02365e-06
3.03327e-06
3.04104e-06
3.04692e-06
3.05086e-06
3.05284e-06
3.05284e-06
3.05086e-06
3.04692e-06
3.04104e-06
3.03327e-06
3.02365e-06
3.01226e-06
2.99918e-06
2.98449e-06
2.9683e-06
2.95071e-06
2.93185e-06
2.91183e-06
2.89079e-06
2.86809e-06
2.80661e-06
2.82858e-06
2.84895e-06
2.86834e-06
2.8866e-06
2.90363e-06
2.91931e-06
2.93353e-06
2.94619e-06
2.95722e-06
2.96652e-06
2.97405e-06
2.97974e-06
2.98355e-06
2.98547e-06
2.98547e-06
2.98355e-06
2.97974e-06
2.97405e-06
2.96652e-06
2.95722e-06
2.94619e-06
2.93353e-06
2.91931e-06
2.90363e-06
2.8866e-06
2.86834e-06
2.84895e-06
2.82858e-06
2.80661e-06
2.74607e-06
2.76731e-06
2.78704e-06
2.8058e-06
2.82348e-06
2.83996e-06
2.85513e-06
2.86889e-06
2.88115e-06
2.89182e-06
2.90083e-06
2.90811e-06
2.91361e-06
2.9173e-06
2.91916e-06
2.91916e-06
2.9173e-06
2.91361e-06
2.90811e-06
2.90083e-06
2.89182e-06
2.88115e-06
2.86889e-06
2.85513e-06
2.83996e-06
2.82348e-06
2.8058e-06
2.78704e-06
2.76731e-06
2.74607e-06
2.68643e-06
2.70696e-06
2.72605e-06
2.74421e-06
2.76131e-06
2.77725e-06
2.79193e-06
2.80525e-06
2.8171e-06
2.82742e-06
2.83614e-06
2.84318e-06
2.8485e-06
2.85208e-06
2.85387e-06
2.85387e-06
2.85208e-06
2.8485e-06
2.84318e-06
2.83614e-06
2.82742e-06
2.8171e-06
2.80525e-06
2.79193e-06
2.77725e-06
2.76131e-06
2.74421e-06
2.72605e-06
2.70696e-06
2.68643e-06
2.62767e-06
2.64751e-06
2.66597e-06
2.68353e-06
2.70006e-06
2.71548e-06
2.72968e-06
2.74255e-06
2.75402e-06
2.764e-06
2.77242e-06
2.77923e-06
2.78438e-06
2.78784e-06
2.78957e-06
2.78957e-06
2.78784e-06
2.78438e-06
2.77923e-06
2.77242e-06
2.764e-06
2.75402e-06
2.74255e-06
2.72968e-06
2.71548e-06
2.70007e-06
2.68353e-06
2.66597e-06
2.64751e-06
2.62767e-06
2.56976e-06
2.58892e-06
2.60677e-06
2.62373e-06
2.63972e-06
2.65463e-06
2.66835e-06
2.68079e-06
2.69187e-06
2.70152e-06
2.70966e-06
2.71624e-06
2.72122e-06
2.72456e-06
2.72623e-06
2.72623e-06
2.72456e-06
2.72122e-06
2.71624e-06
2.70966e-06
2.70152e-06
2.69187e-06
2.68079e-06
2.66835e-06
2.65463e-06
2.63972e-06
2.62374e-06
2.60677e-06
2.58892e-06
2.56976e-06
2.51267e-06
2.53117e-06
2.54841e-06
2.56481e-06
2.58025e-06
2.59465e-06
2.60791e-06
2.61993e-06
2.63063e-06
2.63995e-06
2.64782e-06
2.65418e-06
2.65898e-06
2.66221e-06
2.66382e-06
2.66382e-06
2.66221e-06
2.65898e-06
2.65418e-06
2.64782e-06
2.63995e-06
2.63063e-06
2.61993e-06
2.6079e-06
2.59465e-06
2.58025e-06
2.56481e-06
2.54841e-06
2.53117e-06
2.51267e-06
2.45639e-06
2.47423e-06
2.49089e-06
2.50671e-06
2.52163e-06
2.53553e-06
2.54833e-06
2.55994e-06
2.57027e-06
2.57927e-06
2.58687e-06
2.593e-06
2.59765e-06
2.60076e-06
2.60232e-06
2.60232e-06
2.60076e-06
2.59764e-06
2.593e-06
2.58687e-06
2.57927e-06
2.57027e-06
2.55994e-06
2.54833e-06
2.53553e-06
2.52163e-06
2.50672e-06
2.49089e-06
2.47423e-06
2.45639e-06
2.4009e-06
2.4181e-06
2.43416e-06
2.44944e-06
2.46383e-06
2.47724e-06
2.48959e-06
2.50079e-06
2.51077e-06
2.51945e-06
2.52678e-06
2.5327e-06
2.53718e-06
2.54018e-06
2.54169e-06
2.54169e-06
2.54018e-06
2.53718e-06
2.5327e-06
2.52678e-06
2.51945e-06
2.51077e-06
2.50079e-06
2.48959e-06
2.47724e-06
2.46383e-06
2.44944e-06
2.43416e-06
2.41809e-06
2.4009e-06
2.34616e-06
2.36273e-06
2.37822e-06
2.39295e-06
2.40682e-06
2.41976e-06
2.43167e-06
2.44247e-06
2.45209e-06
2.46046e-06
2.46753e-06
2.47324e-06
2.47756e-06
2.48045e-06
2.4819e-06
2.4819e-06
2.48045e-06
2.47756e-06
2.47324e-06
2.46753e-06
2.46046e-06
2.45209e-06
2.44247e-06
2.43167e-06
2.41976e-06
2.40682e-06
2.39295e-06
2.37822e-06
2.36273e-06
2.34616e-06
2.29216e-06
2.30811e-06
2.32303e-06
2.33722e-06
2.35059e-06
2.36306e-06
2.37454e-06
2.38495e-06
2.39422e-06
2.40228e-06
2.40909e-06
2.41459e-06
2.41875e-06
2.42154e-06
2.42294e-06
2.42294e-06
2.42154e-06
2.41875e-06
2.41459e-06
2.40909e-06
2.40228e-06
2.39422e-06
2.38495e-06
2.37454e-06
2.36306e-06
2.3506e-06
2.33722e-06
2.32303e-06
2.30811e-06
2.29216e-06
2.23888e-06
2.25421e-06
2.26859e-06
2.28225e-06
2.29512e-06
2.30712e-06
2.31817e-06
2.32819e-06
2.33712e-06
2.34489e-06
2.35144e-06
2.35674e-06
2.36075e-06
2.36343e-06
2.36478e-06
2.36478e-06
2.36343e-06
2.36075e-06
2.35674e-06
2.35144e-06
2.34489e-06
2.33712e-06
2.32819e-06
2.31817e-06
2.30712e-06
2.29512e-06
2.28225e-06
2.26859e-06
2.25421e-06
2.23888e-06
2.18629e-06
2.20103e-06
2.21485e-06
2.22799e-06
2.24038e-06
2.25192e-06
2.26255e-06
2.27219e-06
2.28078e-06
2.28825e-06
2.29456e-06
2.29966e-06
2.30351e-06
2.30609e-06
2.30739e-06
2.30739e-06
2.30609e-06
2.30351e-06
2.29966e-06
2.29456e-06
2.28825e-06
2.28078e-06
2.27219e-06
2.26255e-06
2.25192e-06
2.24038e-06
2.22799e-06
2.21485e-06
2.20103e-06
2.18629e-06
2.13439e-06
2.14854e-06
2.16182e-06
2.17444e-06
2.18634e-06
2.19744e-06
2.20766e-06
2.21692e-06
2.22518e-06
2.23236e-06
2.23842e-06
2.24332e-06
2.24702e-06
2.2495e-06
2.25075e-06
2.25075e-06
2.2495e-06
2.24702e-06
2.24332e-06
2.23842e-06
2.23236e-06
2.22517e-06
2.21692e-06
2.20766e-06
2.19744e-06
2.18634e-06
2.17444e-06
2.16182e-06
2.14854e-06
2.13439e-06
2.08315e-06
2.09672e-06