/*--------------------------------*- C++ -*----------------------------------*\
  =========                 |
  \\      /  F ield         | OpenFOAM: The Open Source CFD Toolbox
   \\    /   O peration     | Website:  https://openfoam.org
    \\  /    A nd           | Version:  7
     \\/     M anipulation  |
\*---------------------------------------------------------------------------*/
FoamFile
{
    version     2.0;
    format      ascii;
    class       volScalarField;
    location    "60000";
    object      k;
}
// * * * * * * * * * * * * * * * * * * * * * * * * * * * * * * * * * * * * * //

dimensions      [0 2 -2 0 0 0 0];

internalField   nonuniform List<scalar> 
4825
(
5.75082e-11
5.25092e-11
7.36747e-11
6.70507e-11
6.11309e-11
5.58146e-11
5.17176e-11
9.42018e-11
8.61398e-11
7.86406e-11
7.16196e-11
6.60608e-11
1.18676e-10
1.09464e-10
1.00619e-10
9.2036e-11
8.51945e-11
1.46582e-10
1.36438e-10
1.26535e-10
1.16609e-10
1.08788e-10
1.77429e-10
1.66503e-10
1.55923e-10
1.44855e-10
1.36287e-10
2.10785e-10
1.9914e-10
1.88147e-10
1.76111e-10
1.67091e-10
2.46061e-10
2.34079e-10
2.22916e-10
2.09853e-10
2.00802e-10
2.83125e-10
2.70931e-10
2.59628e-10
2.45819e-10
2.3699e-10
3.21348e-10
3.09311e-10
2.97887e-10
2.83645e-10
2.7527e-10
3.60729e-10
3.4864e-10
3.37307e-10
3.22987e-10
3.14995e-10
4.00977e-10
3.88559e-10
3.77516e-10
3.63521e-10
3.56127e-10
4.41811e-10
4.29143e-10
4.18593e-10
4.04939e-10
3.97926e-10
4.8244e-10
4.6961e-10
4.59746e-10
4.46925e-10
5.23113e-10
5.10159e-10
5.00624e-10
4.88668e-10
5.62944e-10
5.5053e-10
5.41499e-10
5.30416e-10
6.02299e-10
5.898e-10
5.81436e-10
6.4094e-10
6.28343e-10
6.20123e-10
6.77901e-10
6.65939e-10
7.12928e-10
7.02349e-10
7.46598e-10
7.36589e-10
7.77895e-10
7.69286e-10
8.07492e-10
8.0029e-10
8.35249e-10
2.74238e-11
2.71698e-11
2.69483e-11
2.67627e-11
2.66159e-11
2.65044e-11
2.64205e-11
2.63546e-11
2.62974e-11
2.62396e-11
2.61725e-11
2.60851e-11
2.59698e-11
2.58251e-11
2.56551e-11
2.54673e-11
2.52705e-11
2.50727e-11
2.48811e-11
2.47016e-11
2.78999e-11
2.76441e-11
2.74203e-11
2.72325e-11
2.70849e-11
2.69737e-11
2.68912e-11
2.68268e-11
2.67709e-11
2.67142e-11
2.66473e-11
2.65585e-11
2.64395e-11
2.62885e-11
2.61102e-11
2.59127e-11
2.57055e-11
2.54974e-11
2.52961e-11
2.51078e-11
2.83627e-11
2.81091e-11
2.78873e-11
2.7701e-11
2.7556e-11
2.74484e-11
2.73698e-11
2.73093e-11
2.72565e-11
2.7202e-11
2.71366e-11
2.70471e-11
2.69247e-11
2.67674e-11
2.65805e-11
2.63727e-11
2.61547e-11
2.59361e-11
2.57252e-11
2.55289e-11
2.88041e-11
2.85559e-11
2.83397e-11
2.81591e-11
2.80207e-11
2.79205e-11
2.78497e-11
2.77962e-11
2.77494e-11
2.76996e-11
2.76376e-11
2.75492e-11
2.74244e-11
2.72614e-11
2.7066e-11
2.68481e-11
2.66194e-11
2.63903e-11
2.61702e-11
2.59667e-11
2.92205e-11
2.89784e-11
2.877e-11
2.85976e-11
2.84695e-11
2.83806e-11
2.83214e-11
2.82788e-11
2.82415e-11
2.81997e-11
2.81443e-11
2.80593e-11
2.79343e-11
2.77671e-11
2.75642e-11
2.73368e-11
2.7098e-11
2.68589e-11
2.66303e-11
2.64205e-11
2.96161e-11
2.93769e-11
2.9175e-11
2.90113e-11
2.88949e-11
2.88198e-11
2.87753e-11
2.87469e-11
2.87226e-11
2.86923e-11
2.86469e-11
2.85687e-11
2.84463e-11
2.8277e-11
2.80686e-11
2.78332e-11
2.75855e-11
2.73376e-11
2.71015e-11
2.68861e-11
3.00052e-11
2.9761e-11
2.95603e-11
2.94016e-11
2.92953e-11
2.92337e-11
2.92046e-11
2.9192e-11
2.9183e-11
2.91669e-11
2.91347e-11
2.90664e-11
2.89495e-11
2.87809e-11
2.85694e-11
2.83282e-11
2.80735e-11
2.78184e-11
2.75759e-11
2.73558e-11
3.04162e-11
3.01522e-11
2.99417e-11
2.97798e-11
2.96779e-11
2.96258e-11
2.96098e-11
2.96117e-11
2.96178e-11
2.96164e-11
2.9599e-11
2.95425e-11
2.94333e-11
2.92678e-11
2.90554e-11
2.88105e-11
2.8551e-11
2.82904e-11
2.80432e-11
2.78191e-11
2.76278e-11
2.74712e-11
2.73523e-11
2.7269e-11
2.72174e-11
2.71883e-11
2.71757e-11
2.71723e-11
2.71801e-11
2.7206e-11
2.72497e-11
2.73081e-11
2.73796e-11
2.74557e-11
2.75182e-11
3.08989e-11
3.05893e-11
3.03498e-11
3.01698e-11
3.00614e-11
3.00103e-11
3.00011e-11
3.00127e-11
3.00302e-11
3.00413e-11
3.00376e-11
2.99926e-11
2.98916e-11
2.973e-11
2.9518e-11
2.92708e-11
2.9008e-11
2.87435e-11
2.84927e-11
2.82651e-11
2.80715e-11
2.79141e-11
2.77962e-11
2.77144e-11
2.76651e-11
2.76377e-11
2.76262e-11
2.76223e-11
2.76286e-11
2.76536e-11
2.76968e-11
2.77549e-11
2.78267e-11
2.79036e-11
2.79658e-11
2.7994e-11
2.79851e-11
3.15443e-11
3.11413e-11
3.08382e-11
3.06141e-11
3.048e-11
3.04154e-11
3.04013e-11
3.04133e-11
3.04349e-11
3.04524e-11
3.04581e-11
3.04214e-11
3.03263e-11
3.0167e-11
2.99547e-11
2.97052e-11
2.94393e-11
2.91712e-11
2.89173e-11
2.86862e-11
2.84897e-11
2.83314e-11
2.82147e-11
2.81349e-11
2.80881e-11
2.80624e-11
2.80521e-11
2.80474e-11
2.80516e-11
2.80752e-11
2.81175e-11
2.81746e-11
2.82463e-11
2.8324e-11
2.8386e-11
2.84113e-11
2.83966e-11
2.83508e-11
3.25292e-11
3.19397e-11
3.15067e-11
3.11891e-11
3.09947e-11
3.08907e-11
3.08519e-11
3.08483e-11
3.0861e-11
3.08742e-11
3.08811e-11
3.08457e-11
3.07509e-11
3.05893e-11
3.03733e-11
3.01188e-11
2.98483e-11
2.95753e-11
2.93174e-11
2.9082e-11
2.88819e-11
2.87221e-11
2.86063e-11
2.85283e-11
2.84842e-11
2.84604e-11
2.84514e-11
2.84458e-11
2.84479e-11
2.84704e-11
2.85121e-11
2.85687e-11
2.86411e-11
2.87211e-11
2.87848e-11
2.8809e-11
2.87915e-11
2.8744e-11
2.86714e-11
2.85813e-11
3.42016e-11
3.32456e-11
3.2551e-11
3.20427e-11
3.17203e-11
3.15275e-11
3.14274e-11
3.13794e-11
3.13605e-11
3.13509e-11
3.13448e-11
3.12987e-11
3.1194e-11
3.10214e-11
3.07945e-11
3.05292e-11
3.02497e-11
2.99683e-11
2.97037e-11
2.94617e-11
2.92568e-11
2.90941e-11
2.89785e-11
2.89018e-11
2.88602e-11
2.88382e-11
2.8831e-11
2.88249e-11
2.88254e-11
2.88479e-11
2.88905e-11
2.89485e-11
2.90242e-11
2.911e-11
2.91798e-11
2.92077e-11
2.91934e-11
2.9151e-11
2.90863e-11
2.90054e-11
2.89311e-11
2.88817e-11
3.72043e-11
3.55616e-11
3.4358e-11
3.34694e-11
3.2885e-11
3.25051e-11
3.22711e-11
3.21229e-11
3.20293e-11
3.19628e-11
3.1918e-11
3.18394e-11
3.17068e-11
3.15075e-11
3.12569e-11
3.09702e-11
3.06733e-11
3.03767e-11
3.01002e-11
2.98472e-11
2.96347e-11
2.94665e-11
2.93494e-11
2.9273e-11
2.92337e-11
2.92136e-11
2.92089e-11
2.92034e-11
2.92035e-11
2.92282e-11
2.92749e-11
2.93378e-11
2.94218e-11
2.952e-11
2.96038e-11
2.96444e-11
2.96436e-11
2.96189e-11
2.95772e-11
2.95245e-11
2.94899e-11
2.94926e-11
2.95619e-11
2.96866e-11
2.98948e-11
4.25512e-11
3.97486e-11
3.76331e-11
3.60299e-11
3.49359e-11
3.41806e-11
3.367e-11
3.33103e-11
3.30562e-11
3.28649e-11
3.27312e-11
3.25786e-11
3.23836e-11
3.21284e-11
3.183e-11
3.15022e-11
3.11723e-11
3.08479e-11
3.05498e-11
3.02779e-11
3.00522e-11
2.98741e-11
2.97528e-11
2.96748e-11
2.96374e-11
2.96195e-11
2.96186e-11
2.96153e-11
2.96175e-11
2.96484e-11
2.97044e-11
2.97791e-11
2.98802e-11
3.00027e-11
3.0115e-11
3.01847e-11
3.02166e-11
3.02334e-11
3.02435e-11
3.02551e-11
3.03059e-11
3.04212e-11
3.06484e-11
3.09719e-11
3.14443e-11
3.20866e-11
3.29761e-11
5.14864e-11
4.69965e-11
4.34552e-11
4.06557e-11
3.86673e-11
3.72198e-11
3.61787e-11
3.53993e-11
3.48187e-11
3.43687e-11
3.40459e-11
3.37358e-11
3.34097e-11
3.30401e-11
3.26464e-11
3.22384e-11
3.18457e-11
3.14689e-11
3.11308e-11
3.08247e-11
3.05752e-11
3.03787e-11
3.02481e-11
3.01653e-11
3.01293e-11
3.0114e-11
3.01197e-11
3.01216e-11
3.013e-11
3.01745e-11
3.025e-11
3.03489e-11
3.04839e-11
3.06534e-11
3.08223e-11
3.09532e-11
3.10552e-11
3.11606e-11
3.1281e-11
3.14281e-11
3.16555e-11
3.20009e-11
3.25426e-11
3.32572e-11
3.4236e-11
3.55072e-11
3.71834e-11
3.93293e-11
4.20822e-11
4.57445e-11
6.50804e-11
5.85124e-11
5.30836e-11
4.85706e-11
4.52352e-11
4.26791e-11
4.0741e-11
3.92136e-11
3.80257e-11
3.70767e-11
3.63792e-11
3.57505e-11
3.51581e-11
3.45569e-11
3.39723e-11
3.34055e-11
3.28891e-11
3.24106e-11
3.19952e-11
3.16245e-11
3.13297e-11
3.10982e-11
3.09484e-11
3.08547e-11
3.08191e-11
3.08072e-11
3.08246e-11
3.08378e-11
3.08606e-11
3.09334e-11
3.10483e-11
3.11962e-11
3.13989e-11
3.16611e-11
3.19428e-11
3.2199e-11
3.24462e-11
3.27342e-11
3.30793e-11
3.34976e-11
3.40703e-11
3.48537e-11
3.59746e-11
3.73829e-11
3.92222e-11
4.14994e-11
4.43586e-11
4.78352e-11
5.206e-11
5.74565e-11
8.38445e-11
7.50549e-11
6.75075e-11
6.09261e-11
5.58886e-11
5.18521e-11
4.86373e-11
4.59752e-11
4.38092e-11
4.20113e-11
4.06534e-11
3.9438e-11
3.83411e-11
3.72923e-11
3.63349e-11
3.54562e-11
3.46965e-11
3.40177e-11
3.34504e-11
3.29532e-11
3.25701e-11
3.22694e-11
3.20805e-11
3.19635e-11
3.19263e-11
3.19197e-11
3.19593e-11
3.19959e-11
3.20496e-11
3.21802e-11
3.23748e-11
3.26218e-11
3.29594e-11
3.34052e-11
3.39105e-11
3.44157e-11
3.49481e-11
3.55892e-11
3.63583e-11
3.72702e-11
3.8449e-11
3.99679e-11
4.2024e-11
4.44867e-11
4.75628e-11
5.11865e-11
5.55383e-11
6.05673e-11
6.63738e-11
7.36245e-11
1.07672e-10
9.67731e-11
8.71058e-11
7.837e-11
7.15243e-11
6.58246e-11
6.11284e-11
5.7041e-11
5.35647e-11
5.05511e-11
4.82133e-11
4.60669e-11
4.41298e-11
4.23013e-11
4.06755e-11
3.92228e-11
3.80085e-11
3.69496e-11
3.60926e-11
3.53519e-11
3.47985e-11
3.4363e-11
3.40971e-11
3.39323e-11
3.38904e-11
3.38926e-11
3.39755e-11
3.40588e-11
3.41743e-11
3.44191e-11
3.47699e-11
3.52086e-11
3.58047e-11
3.65989e-11
3.75226e-11
3.84826e-11
3.95196e-11
4.07668e-11
4.22356e-11
4.39179e-11
4.6e-11
4.85542e-11
5.18879e-11
5.56842e-11
6.02367e-11
6.53602e-11
7.12888e-11
7.78472e-11
8.51128e-11
9.41217e-11
1.36081e-10
1.2331e-10
1.11708e-10
1.00905e-10
9.23898e-11
8.51084e-11
7.89548e-11
7.34065e-11
6.84848e-11
6.40221e-11
6.05136e-11
5.71401e-11
5.40261e-11
5.10307e-11
4.83621e-11
4.59748e-11
4.40032e-11
4.2291e-11
4.09307e-11
3.97563e-11
3.88997e-11
3.82191e-11
3.78139e-11
3.75609e-11
3.75115e-11
3.75287e-11
3.76929e-11
3.78606e-11
3.80862e-11
3.85379e-11
3.91682e-11
3.99426e-11
4.09862e-11
4.23759e-11
4.39955e-11
4.5677e-11
4.74718e-11
4.9597e-11
5.20286e-11
5.47048e-11
5.78948e-11
6.16381e-11
6.64466e-11
7.16307e-11
7.77084e-11
8.42255e-11
9.16367e-11
9.94774e-11
1.07931e-10
1.18512e-10
1.6847e-10
1.53999e-10
1.40717e-10
1.28028e-10
1.18123e-10
1.09566e-10
1.02205e-10
9.53442e-11
8.90958e-11
8.32152e-11
7.85571e-11
7.38678e-11
6.93709e-11
6.49129e-11
6.08555e-11
5.71709e-11
5.41162e-11
5.14299e-11
4.93118e-11
4.74568e-11
4.61307e-11
4.50555e-11
4.44339e-11
4.40393e-11
4.39874e-11
4.40294e-11
4.43326e-11
4.46314e-11
4.50199e-11
4.5796e-11
4.68609e-11
4.81393e-11
4.98488e-11
5.21171e-11
5.4728e-11
5.73696e-11
6.01045e-11
6.32689e-11
6.67895e-11
7.05e-11
7.48265e-11
7.97049e-11
8.59444e-11
9.23663e-11
9.98168e-11
1.07483e-10
1.16143e-10
1.25044e-10
1.34374e-10
1.46342e-10
2.04265e-10
1.88199e-10
1.73609e-10
1.59198e-10
1.48117e-10
1.38608e-10
1.3046e-10
1.22579e-10
1.15227e-10
1.08173e-10
1.02626e-10
9.67363e-11
9.08397e-11
8.47948e-11
7.91557e-11
7.39294e-11
6.95329e-11
6.55973e-11
6.25169e-11
5.97313e-11
5.7786e-11
5.6172e-11
5.52703e-11
5.46846e-11
5.46543e-11
5.47334e-11
5.52477e-11
5.57071e-11
5.62925e-11
5.74911e-11
5.91362e-11
6.10476e-11
6.35971e-11
6.69625e-11
7.0796e-11
7.44919e-11
7.8207e-11
8.24054e-11
8.69559e-11
9.15438e-11
9.67992e-11
1.02627e-10
1.10148e-10
1.17547e-10
1.2615e-10
1.34672e-10
1.44335e-10
1.54023e-10
1.63919e-10
1.76995e-10
2.42965e-10
2.25323e-10
2.09672e-10
1.93685e-10
1.81714e-10
1.71563e-10
1.63101e-10
1.54421e-10
1.46376e-10
1.38421e-10
1.32361e-10
1.25516e-10
1.18323e-10
1.10779e-10
1.03481e-10
9.66394e-11
9.07855e-11
8.54265e-11
8.12704e-11
7.73688e-11
7.46995e-11
7.24347e-11
7.12517e-11
7.04458e-11
7.04721e-11
7.06167e-11
7.14189e-11
7.20231e-11
7.27822e-11
7.44786e-11
7.67847e-11
7.93463e-11
8.28104e-11
8.73927e-11
9.25461e-11
9.72898e-11
1.01812e-10
1.06936e-10
1.12271e-10
1.17457e-10
1.23441e-10
1.29924e-10
1.38454e-10
1.46621e-10
1.56052e-10
1.65131e-10
1.75697e-10
1.85928e-10
1.96094e-10
2.09991e-10
2.83882e-10
2.65093e-10
2.4858e-10
2.30908e-10
2.18479e-10
2.07947e-10
1.99365e-10
1.90303e-10
1.81753e-10
1.73167e-10
1.67003e-10
1.59493e-10
1.51222e-10
1.42388e-10
1.33408e-10
1.25012e-10
1.17634e-10
1.10823e-10
1.05529e-10
1.00442e-10
9.69928e-11
9.40509e-11
9.26216e-11
9.15884e-11
9.17072e-11
9.19295e-11
9.31305e-11
9.38041e-11
9.46613e-11
9.69056e-11
9.98459e-11
1.03004e-10
1.07419e-10
1.13251e-10
1.19679e-10
1.25409e-10
1.30514e-10
1.36363e-10
1.42152e-10
1.47712e-10
1.54174e-10
1.61007e-10
1.70243e-10
1.78901e-10
1.8895e-10
1.98464e-10
2.09776e-10
2.20336e-10
2.30483e-10
2.44898e-10
3.26858e-10
3.07116e-10
2.89658e-10
2.70579e-10
2.57942e-10
2.47038e-10
2.38643e-10
2.29635e-10
2.20672e-10
2.11842e-10
2.05804e-10
1.97899e-10
1.88895e-10
1.78927e-10
1.68212e-10
1.58318e-10
1.49452e-10
1.41171e-10
1.34778e-10
1.28441e-10
1.24307e-10
1.20591e-10
1.19047e-10
1.17792e-10
1.18017e-10
1.18385e-10
1.20069e-10
1.20677e-10
1.21526e-10
1.2431e-10
1.27855e-10
1.31589e-10
1.36911e-10
1.43978e-10
1.51647e-10
1.58127e-10
1.63676e-10
1.70053e-10
1.76044e-10
1.81567e-10
1.88269e-10
1.95319e-10
2.04942e-10
2.1384e-10
2.24333e-10
2.34041e-10
2.4617e-10
2.56868e-10
2.66714e-10
2.81577e-10
3.71155e-10
3.50673e-10
3.32458e-10
3.12294e-10
2.99684e-10
2.88584e-10
2.8039e-10
2.71672e-10
2.62513e-10
2.53856e-10
2.48283e-10
2.40007e-10
2.30662e-10
2.1953e-10
2.07282e-10
1.95946e-10
1.85497e-10
1.75864e-10
1.68314e-10
1.60785e-10
1.55922e-10
1.51494e-10
1.49836e-10
1.48456e-10
1.48858e-10
1.49377e-10
1.51538e-10
1.52086e-10
1.52813e-10
1.56025e-10
1.60134e-10
1.6434e-10
1.70508e-10
1.78785e-10
1.87655e-10
1.94878e-10
2.00654e-10
2.07396e-10
2.13367e-10
2.1841e-10
2.25155e-10
2.32175e-10
2.42041e-10
2.51175e-10
2.61742e-10
2.71669e-10
2.84536e-10
2.95197e-10
3.04447e-10
3.19711e-10
4.16772e-10
3.95329e-10
3.76551e-10
3.55674e-10
3.42996e-10
3.3218e-10
3.2411e-10
3.16187e-10
3.07008e-10
2.98697e-10
2.9391e-10
2.85169e-10
2.75689e-10
2.63508e-10
2.49773e-10
2.37061e-10
2.25239e-10
2.14259e-10
2.05439e-10
1.96678e-10
1.91149e-10
1.86124e-10
1.84437e-10
1.82935e-10
1.83589e-10
1.8426e-10
1.86986e-10
1.87389e-10
1.8788e-10
1.91357e-10
1.96157e-10
2.00568e-10
2.07692e-10
2.17158e-10
2.27035e-10
2.3488e-10
2.40877e-10
2.4764e-10
2.53396e-10
2.57693e-10
2.6432e-10
2.71337e-10
2.81077e-10
2.90253e-10
3.00752e-10
3.10997e-10
3.2423e-10
3.34675e-10
3.4337e-10
3.59002e-10
4.63367e-10
4.40658e-10
4.21518e-10
4.00363e-10
3.87838e-10
3.77457e-10
3.697e-10
3.62787e-10
3.53724e-10
3.45569e-10
3.41891e-10
3.32798e-10
3.23385e-10
3.1025e-10
2.95335e-10
2.81037e-10
2.67884e-10
2.55794e-10
2.45527e-10
2.35692e-10
2.2956e-10
2.23717e-10
2.22288e-10
2.20654e-10
2.2163e-10
2.22442e-10
2.25644e-10
2.25815e-10
2.26148e-10
2.29675e-10
2.3537e-10
2.39863e-10
2.47925e-10
2.58548e-10
2.69192e-10
2.77554e-10
2.83589e-10
2.90246e-10
2.9562e-10
2.99206e-10
3.056e-10
3.12121e-10
3.21936e-10
3.30657e-10
3.40953e-10
3.51699e-10
3.64872e-10
3.74933e-10
3.83187e-10
3.98742e-10
5.10616e-10
4.86766e-10
4.67453e-10
4.46019e-10
4.334e-10
4.2361e-10
4.1678e-10
4.11097e-10
4.0226e-10
3.9435e-10
3.91719e-10
3.82736e-10
3.73207e-10
3.59198e-10
3.43489e-10
3.27613e-10
3.13153e-10
2.99979e-10
2.88275e-10
2.77076e-10
2.70421e-10
2.6395e-10
2.62902e-10
2.61103e-10
2.62488e-10
2.63418e-10
2.66944e-10
2.66792e-10
2.67118e-10
2.70409e-10
2.77312e-10
2.81744e-10
2.90737e-10
3.02504e-10
3.13886e-10
3.22375e-10
3.28563e-10
3.35058e-10
3.39566e-10
3.42215e-10
3.48627e-10
3.54459e-10
3.63904e-10
3.72372e-10
3.82349e-10
3.93051e-10
4.06089e-10
4.15605e-10
4.236e-10
4.38574e-10
5.57593e-10
5.32732e-10
5.13461e-10
4.92296e-10
4.7926e-10
4.70205e-10
4.64985e-10
4.60255e-10
4.52229e-10
4.44631e-10
4.42902e-10
4.34099e-10
4.25088e-10
4.09819e-10
3.93805e-10
3.75969e-10
3.60576e-10
3.46037e-10
3.32924e-10
3.2031e-10
3.13539e-10
3.0638e-10
3.05545e-10
3.0354e-10
3.0542e-10
3.06742e-10
3.10373e-10
3.10113e-10
3.1005e-10
3.13357e-10
3.21238e-10
3.25778e-10
3.35703e-10
3.48614e-10
3.60704e-10
3.69229e-10
3.75317e-10
3.81289e-10
3.85183e-10
3.86675e-10
3.92637e-10
3.97582e-10
4.06576e-10
4.1463e-10
4.24624e-10
4.35148e-10
4.48001e-10
4.56826e-10
4.63848e-10
4.78662e-10
6.04586e-10
5.78791e-10
5.59147e-10
5.38291e-10
5.25e-10
5.1739e-10
5.134e-10
5.09811e-10
5.027e-10
4.96031e-10
4.95503e-10
4.8638e-10
4.78106e-10
4.6159e-10
4.45397e-10
4.26031e-10
4.09648e-10
3.93892e-10
3.78988e-10
3.65284e-10
3.58149e-10
3.50589e-10
3.50111e-10
3.47814e-10
3.50307e-10
3.51636e-10
3.55443e-10
3.55376e-10
3.54826e-10
3.57725e-10
3.66679e-10
3.71156e-10
3.82006e-10
3.96487e-10
4.09245e-10
4.17274e-10
4.23541e-10
4.2848e-10
4.31643e-10
4.31757e-10
4.37216e-10
4.41566e-10
4.50054e-10
4.57548e-10
4.66957e-10
4.77689e-10
4.89778e-10
4.97762e-10
5.04122e-10
5.18731e-10
6.50566e-10
6.2465e-10
6.04787e-10
5.84283e-10
5.70205e-10
5.64197e-10
5.62232e-10
5.59955e-10
5.53845e-10
5.48166e-10
5.48525e-10
5.39075e-10
5.31781e-10
5.14578e-10
4.97781e-10
4.77389e-10
4.59583e-10
4.43156e-10
4.26451e-10
4.11596e-10
4.03791e-10
3.96201e-10
3.95795e-10
3.93536e-10
3.96773e-10
3.98069e-10
4.0213e-10
4.02205e-10
4.00631e-10
4.03475e-10
4.13189e-10
4.17404e-10
4.29665e-10
4.45256e-10
4.59158e-10
4.66556e-10
4.72384e-10
4.76717e-10
4.78514e-10
4.77028e-10
4.81954e-10
4.85541e-10
4.93467e-10
5.00256e-10
5.09543e-10
5.20375e-10
5.31064e-10
5.3807e-10
5.44165e-10
5.57891e-10
6.95954e-10
6.69247e-10
6.49352e-10
6.2926e-10
6.15171e-10
6.109e-10
6.11129e-10
6.10339e-10
6.04605e-10
6.00665e-10
6.02206e-10
5.92352e-10
5.85641e-10
5.6773e-10
5.51103e-10
5.29669e-10
5.10444e-10
4.92905e-10
4.744e-10
4.58885e-10
4.50008e-10
4.42349e-10
4.42631e-10
4.40309e-10
4.43953e-10
4.45665e-10
4.49547e-10
4.49727e-10
4.475e-10
4.50246e-10
4.60326e-10
4.64598e-10
4.783e-10
4.94455e-10
5.09505e-10
5.16684e-10
5.21995e-10
5.2565e-10
5.25372e-10
5.22668e-10
5.27056e-10
5.29723e-10
5.37051e-10
5.42997e-10
5.52086e-10
5.62311e-10
5.72159e-10
5.78065e-10
5.83076e-10
5.96487e-10
7.40476e-10
7.13026e-10
6.92488e-10
6.72866e-10
6.58824e-10
6.572e-10
6.59029e-10
6.59867e-10
6.55292e-10
6.52409e-10
6.55414e-10
6.4508e-10
6.39216e-10
6.21283e-10
6.04278e-10
5.8249e-10
5.61235e-10
5.42683e-10
5.22967e-10
5.06793e-10
4.96349e-10
4.89139e-10
4.90278e-10
4.87776e-10
4.91948e-10
4.93485e-10
4.97822e-10
4.98066e-10
4.95066e-10
4.97089e-10
5.07651e-10
5.11753e-10
5.27575e-10
5.44267e-10
5.60518e-10
5.67311e-10
5.7202e-10
5.74267e-10
5.72456e-10
5.68344e-10
5.71547e-10
5.73782e-10
5.80508e-10
5.84802e-10
5.93625e-10
6.03157e-10
6.12796e-10
6.1679e-10
6.21221e-10
6.33566e-10
7.83001e-10
7.55733e-10
7.33852e-10
7.15582e-10
7.01595e-10
7.02806e-10
7.06357e-10
7.08956e-10
7.05562e-10
7.03784e-10
7.07718e-10
6.97617e-10
6.92848e-10
6.7484e-10
6.56834e-10
6.34739e-10
6.12198e-10
5.92737e-10
5.71122e-10
5.54327e-10
5.42985e-10
5.36214e-10
5.38392e-10
5.35555e-10
5.39787e-10
5.41081e-10
5.45945e-10
5.46234e-10
5.42974e-10
5.44196e-10
5.54736e-10
5.59093e-10
5.76448e-10
5.93612e-10
6.11121e-10
6.17343e-10
6.22116e-10
6.22864e-10
6.18705e-10
6.13018e-10
6.15041e-10
6.16723e-10
6.22836e-10
6.26038e-10
6.34539e-10
6.4332e-10
6.51993e-10
6.53934e-10
6.57654e-10
6.69581e-10
8.23234e-10
7.97073e-10
7.73967e-10
7.57154e-10
7.4319e-10
7.46578e-10
7.51938e-10
7.5729e-10
7.55086e-10
7.53563e-10
7.58691e-10
7.49594e-10
7.45309e-10
7.28061e-10
7.08306e-10
6.85971e-10
6.62188e-10
6.41956e-10
6.19148e-10
6.01758e-10
5.89581e-10
5.82545e-10
5.85941e-10
5.83293e-10
5.87724e-10
5.88723e-10
5.94209e-10
5.938e-10
5.90901e-10
5.91237e-10
6.01158e-10
6.06248e-10
6.24501e-10
6.42831e-10
6.60912e-10
6.67143e-10
6.71952e-10
6.71136e-10
6.64507e-10
6.57091e-10
6.57942e-10
6.58197e-10
6.6447e-10
6.6566e-10
6.73817e-10
6.82526e-10
6.90243e-10
6.89963e-10
6.92862e-10
7.04314e-10
8.61845e-10
8.35919e-10
8.1168e-10
7.96444e-10
7.83312e-10
7.89099e-10
7.95415e-10
8.03643e-10
8.02613e-10
8.01341e-10
8.0792e-10
8.00673e-10
7.96159e-10
7.79674e-10
7.59151e-10
7.3576e-10
7.11593e-10
6.89919e-10
6.66678e-10
6.47998e-10
6.35033e-10
6.28449e-10
6.32519e-10
6.30669e-10
6.35422e-10
6.36064e-10
6.41496e-10
6.41119e-10
6.3774e-10
6.37093e-10
6.47277e-10
6.52885e-10
6.71318e-10
6.91568e-10
7.09506e-10
7.15504e-10
7.21206e-10
7.18767e-10
7.09548e-10
7.0027e-10
6.9915e-10
6.97861e-10
7.0435e-10
7.04161e-10
7.11974e-10
7.1975e-10
7.26515e-10
7.24675e-10
7.26662e-10
7.37546e-10
8.97654e-10
8.72759e-10
8.47663e-10
8.34125e-10
8.21737e-10
8.29184e-10
8.37408e-10
8.48664e-10
8.47792e-10
8.46738e-10
8.55013e-10
8.49529e-10
8.44979e-10
8.29279e-10
8.09029e-10
7.84604e-10
7.60112e-10
7.36212e-10
7.13412e-10
6.93478e-10
6.79739e-10
6.73625e-10
6.7851e-10
6.76564e-10
6.8175e-10
6.82747e-10
6.87399e-10
6.87868e-10
6.83097e-10
6.82205e-10
6.92795e-10
6.97847e-10
7.17381e-10
7.38627e-10
7.56467e-10
7.62916e-10
7.68652e-10
7.64536e-10
7.52631e-10
7.42283e-10
7.38342e-10
7.35394e-10
7.42192e-10
7.40449e-10
7.47939e-10
7.55555e-10
7.60565e-10
7.57873e-10
7.58869e-10
7.69122e-10
9.3145e-10
9.0761e-10
8.80734e-10
8.7e-10
8.58225e-10
8.6656e-10
8.76667e-10
8.91088e-10
8.90293e-10
8.89405e-10
8.99612e-10
8.95808e-10
8.91379e-10
8.76491e-10
8.57593e-10
8.3217e-10
8.06481e-10
7.81341e-10
7.59053e-10
7.37887e-10
7.23382e-10
7.17742e-10
7.2277e-10
7.21439e-10
7.26322e-10
7.28487e-10
7.32418e-10
7.3375e-10
7.27455e-10
7.26237e-10
7.365e-10
7.41671e-10
7.62386e-10
7.84602e-10
8.02424e-10
8.08121e-10
8.14912e-10
8.09068e-10
7.94354e-10
7.82894e-10
7.76117e-10
7.71396e-10
7.77744e-10
7.75143e-10
7.82346e-10
7.88898e-10
7.92167e-10
7.8852e-10
7.88467e-10
7.98892e-10
9.63084e-10
9.39396e-10
9.11663e-10
9.02917e-10
8.92589e-10
9.0199e-10
9.12926e-10
9.30657e-10
9.30891e-10
9.30101e-10
9.41392e-10
9.39187e-10
9.3613e-10
9.2205e-10
9.03516e-10
8.78186e-10
8.51356e-10
8.24993e-10
8.02373e-10
7.80929e-10
7.65688e-10
7.59615e-10
7.64941e-10
7.65001e-10
7.68767e-10
7.72977e-10
7.76212e-10
7.77528e-10
7.70535e-10
7.68903e-10
7.78041e-10
7.84066e-10
8.05049e-10
8.28193e-10
8.47044e-10
8.5178e-10
8.58697e-10
8.51085e-10
8.34449e-10
8.21887e-10
8.11307e-10
8.05647e-10
8.10767e-10
8.0714e-10
8.14111e-10
8.20458e-10
8.21126e-10
8.1733e-10
8.1616e-10
8.26737e-10
9.91412e-10
9.67983e-10
9.40299e-10
9.33716e-10
9.24707e-10
9.34273e-10
9.46995e-10
9.68227e-10
9.69373e-10
9.68592e-10
9.81192e-10
9.79368e-10
9.78976e-10
9.65688e-10
9.47528e-10
9.22381e-10
8.93402e-10
8.66915e-10
8.43042e-10
8.22339e-10
8.0636e-10
7.98917e-10
8.05669e-10
8.06054e-10
8.09745e-10
8.1499e-10
8.1752e-10
8.18871e-10
8.12062e-10
8.08977e-10
8.17084e-10
8.23766e-10
8.46085e-10
8.70129e-10
8.9002e-10
8.93618e-10
8.99711e-10
8.90291e-10
8.7268e-10
8.58061e-10
8.43656e-10
8.37937e-10
8.41971e-10
8.37148e-10
8.43977e-10
8.49206e-10
8.47268e-10
8.43289e-10
8.40946e-10
8.51677e-10
1.01739e-09
9.93265e-10
9.65505e-10
9.61259e-10
9.53425e-10
9.6428e-10
9.78703e-10
1.00253e-09
1.00555e-09
1.00464e-09
1.01764e-09
1.01725e-09
1.0185e-09
1.00599e-09
9.89369e-10
9.64488e-10
9.3341e-10
9.05805e-10
8.81752e-10
8.61855e-10
8.4516e-10
8.36337e-10
8.43739e-10
8.443e-10
8.49051e-10
8.55239e-10
8.57069e-10
8.5747e-10
8.51798e-10
8.47198e-10
8.53333e-10
8.61503e-10
8.84181e-10
9.10129e-10
9.31143e-10
9.33395e-10
9.38752e-10
9.27513e-10
9.07805e-10
8.91213e-10
8.73926e-10
8.68145e-10
8.70269e-10
8.64103e-10
8.70879e-10
8.75947e-10
8.71372e-10
8.67208e-10
8.62721e-10
8.73636e-10
1.03991e-09
1.01516e-09
9.88203e-10
9.8648e-10
9.79655e-10
9.90839e-10
1.00792e-09
1.03451e-09
1.03814e-09
1.03808e-09
1.05051e-09
1.05266e-09
1.0557e-09
1.04271e-09
1.02768e-09
1.00317e-09
9.71157e-10
9.41403e-10
9.18303e-10
8.99298e-10
8.80865e-10
8.71643e-10
8.79927e-10
8.80455e-10
8.86591e-10
8.92464e-10
8.94602e-10
8.94085e-10
8.88471e-10
8.82293e-10
8.86516e-10
8.96032e-10
9.19075e-10
9.4689e-10
9.69073e-10
9.70894e-10
9.75655e-10
9.62565e-10
9.39624e-10
9.22251e-10
9.01955e-10
8.95171e-10
8.96499e-10
8.8883e-10
8.94704e-10
9.00605e-10
8.93335e-10
8.88109e-10
8.82294e-10
1.05996e-09
1.0336e-09
1.00832e-09
1.00829e-09
1.00335e-09
1.01384e-09
1.03346e-09
1.06295e-09
1.06813e-09
1.06766e-09
1.08072e-09
1.0854e-09
1.08919e-09
1.07564e-09
1.06222e-09
1.03822e-09
1.0053e-09
9.74588e-10
9.5248e-10
9.33426e-10
9.14279e-10
9.0461e-10
9.12942e-10
9.14285e-10
9.20983e-10
9.27522e-10
9.29929e-10
9.28506e-10
9.2293e-10
9.15109e-10
9.16404e-10
9.28226e-10
9.51677e-10
9.81346e-10
1.0036e-09
1.00594e-09
1.00911e-09
9.94162e-10
9.69016e-10
9.49973e-10
9.27621e-10
9.19892e-10
9.19588e-10
9.11243e-10
9.16311e-10
9.22185e-10
9.13055e-10
9.06858e-10
1.0765e-09
1.04954e-09
1.02581e-09
1.02662e-09
1.02341e-09
1.03427e-09
1.05633e-09
1.08775e-09
1.09544e-09
1.09327e-09
1.10819e-09
1.11537e-09
1.11883e-09
1.10461e-09
1.09364e-09
1.07068e-09
1.0368e-09
1.00407e-09
9.83066e-10
9.64063e-10
9.44199e-10
9.35076e-10
9.42589e-10
9.44627e-10
9.53235e-10
9.59126e-10
9.61796e-10
9.60558e-10
9.55021e-10
9.45536e-10
9.43898e-10
9.56877e-10
9.80688e-10
1.01336e-09
1.03456e-09
1.03723e-09
1.04011e-09
1.02332e-09
9.95904e-10
9.74278e-10
9.50831e-10
9.42209e-10
9.40456e-10
9.30319e-10
9.35604e-10
9.40639e-10
9.30498e-10
1.08951e-09
1.06293e-09
1.04064e-09
1.04245e-09
1.04076e-09
1.05204e-09
1.0754e-09
1.10884e-09
1.11885e-09
1.11598e-09
1.13169e-09
1.1413e-09
1.14578e-09
1.13073e-09
1.12102e-09
1.09924e-09
1.06437e-09
1.03083e-09
1.01101e-09
9.91079e-10
9.7048e-10
9.61882e-10
9.69769e-10
9.72392e-10
9.81936e-10
9.88247e-10
9.90051e-10
9.90135e-10
9.84647e-10
9.72346e-10
9.68858e-10
9.81869e-10
1.00712e-09
1.04167e-09
1.0618e-09
1.06465e-09
1.0674e-09
1.04993e-09
1.0191e-09
9.9621e-10
9.7152e-10
9.61095e-10
9.59068e-10
9.46949e-10
9.51615e-10
9.55926e-10
1.09897e-09
1.07372e-09
1.05277e-09
1.05473e-09
1.05524e-09
1.0671e-09
1.09168e-09
1.12615e-09
1.13832e-09
1.13571e-09
1.15115e-09
1.16436e-09
1.16869e-09
1.15392e-09
1.14432e-09
1.12381e-09
1.08882e-09
1.05475e-09
1.03517e-09
1.01437e-09
9.93018e-10
9.84931e-10
9.94416e-10
9.97465e-10
1.00696e-09
1.01479e-09
1.01568e-09
1.016e-09
1.01059e-09
9.96559e-10
9.91189e-10
1.0042e-09
1.03087e-09
1.06621e-09
1.08523e-09
1.0893e-09
1.09207e-09
1.07278e-09
1.03853e-09
1.01458e-09
9.88619e-10
9.77483e-10
9.74386e-10
9.61079e-10
9.65251e-10
1.10583e-09
1.08186e-09
1.06219e-09
1.06441e-09
1.06603e-09
1.07943e-09
1.10514e-09
1.14076e-09
1.15378e-09
1.15242e-09
1.16765e-09
1.18328e-09
1.1875e-09
1.17409e-09
1.16461e-09
1.14433e-09
1.11034e-09
1.07578e-09
1.05657e-09
1.03498e-09
1.0128e-09
1.00522e-09
1.01537e-09
1.01872e-09
1.02936e-09
1.03756e-09
1.03859e-09
1.03918e-09
1.03277e-09
1.0181e-09
1.0097e-09
1.02381e-09
1.0519e-09
1.08691e-09
1.10593e-09
1.10993e-09
1.11288e-09
1.09181e-09
1.05522e-09
1.03045e-09
1.00309e-09
9.91332e-10
9.86395e-10
9.72669e-10
9.75555e-10
1.10914e-09
1.08642e-09
1.06794e-09
1.07051e-09
1.0732e-09
1.08797e-09
1.11575e-09
1.15153e-09
1.16604e-09
1.16606e-09
1.18115e-09
1.19803e-09
1.20213e-09
1.18998e-09
1.18191e-09
1.16074e-09
1.12775e-09
1.09385e-09
1.07405e-09
1.05174e-09
1.02976e-09
1.02268e-09
1.03257e-09
1.0372e-09
1.04792e-09
1.05759e-09
1.0576e-09
1.0585e-09
1.0522e-09
1.03581e-09
1.02541e-09
1.04065e-09
1.06899e-09
1.1049e-09
1.12267e-09
1.1265e-09
1.1298e-09
1.10805e-09
1.06911e-09
1.04378e-09
1.0149e-09
1.00165e-09
9.96224e-10
9.80783e-10
9.83431e-10
1.10984e-09
1.08833e-09
1.07097e-09
1.07395e-09
1.07682e-09
1.09373e-09
1.12349e-09
1.15845e-09
1.17425e-09
1.17659e-09
1.19045e-09
1.2098e-09
1.21364e-09
1.20277e-09
1.19501e-09
1.173e-09
1.14223e-09
1.1078e-09
1.08868e-09
1.0646e-09
1.04385e-09
1.0373e-09
1.04705e-09
1.05281e-09
1.06366e-09
1.07487e-09
1.07267e-09
1.07501e-09
1.06774e-09
1.05072e-09
1.03825e-09
1.05467e-09
1.08324e-09
1.11897e-09
1.13656e-09
1.14012e-09
1.14279e-09
1.12039e-09
1.08014e-09
1.05345e-09
1.02304e-09
1.00937e-09
1.0028e-09
9.85419e-10
9.8798e-10
1.10793e-09
1.08762e-09
1.07129e-09
1.07473e-09
1.07685e-09
1.09573e-09
1.12737e-09
1.16256e-09
1.17949e-09
1.18291e-09
1.19663e-09
1.2174e-09
1.22176e-09
1.21125e-09
1.20506e-09
1.18225e-09
1.15373e-09
1.1187e-09
1.09935e-09
1.07456e-09
1.05507e-09
1.04798e-09
1.05768e-09
1.0645e-09
1.07545e-09
1.08828e-09
1.08484e-09
1.08761e-09
1.07932e-09
1.06174e-09
1.04817e-09
1.06476e-09
1.0935e-09
1.1291e-09
1.14643e-09
1.15075e-09
1.15185e-09
1.12971e-09
1.08727e-09
1.06049e-09
1.02845e-09
1.01356e-09
1.0061e-09
9.87455e-10
9.90094e-10
1.10342e-09
1.08427e-09
1.06806e-09
1.072e-09
1.07428e-09
1.09491e-09
1.12744e-09
1.16284e-09
1.18178e-09
1.186e-09
1.19969e-09
1.22199e-09
1.22562e-09
1.21656e-09
1.21093e-09
1.18843e-09
1.16227e-09
1.12653e-09
1.10712e-09
1.08163e-09
1.06235e-09
1.05584e-09
1.06551e-09
1.0733e-09
1.08435e-09
1.09779e-09
1.09408e-09
1.09631e-09
1.0877e-09
1.06886e-09
1.0551e-09
1.07197e-09
1.10086e-09
1.13528e-09
1.15337e-09
1.1584e-09
1.15803e-09
1.1351e-09
1.09049e-09
1.06489e-09
1.03114e-09
1.01511e-09
1.00611e-09
9.8689e-10
9.88946e-10
1.09552e-09
1.07751e-09
1.06218e-09
1.06583e-09
1.06907e-09
1.09043e-09
1.12467e-09
1.15931e-09
1.18116e-09
1.18569e-09
1.19959e-09
1.22247e-09
1.22636e-09
1.21871e-09
1.21263e-09
1.19151e-09
1.16671e-09
1.13127e-09
1.11196e-09
1.08577e-09
1.0667e-09
1.05985e-09
1.06948e-09
1.07918e-09
1.08928e-09
1.10343e-09
1.0993e-09
1.10113e-09
1.09302e-09
1.07209e-09
1.05906e-09
1.07526e-09
1.1053e-09
1.13859e-09
1.15735e-09
1.16197e-09
1.16134e-09
1.13655e-09
1.09077e-09
1.06568e-09
1.03111e-09
1.01404e-09
1.00377e-09
9.83741e-10
9.85391e-10
1.08431e-09
1.06743e-09
1.05368e-09
1.05704e-09
1.06121e-09
1.08319e-09
1.11821e-09
1.15298e-09
1.17668e-09
1.18127e-09
1.19536e-09
1.21889e-09
1.22295e-09
1.21663e-09
1.21127e-09
1.19151e-09
1.16711e-09
1.13292e-09
1.11288e-09
1.08699e-09
1.06815e-09
1.06099e-09
1.07059e-09
1.08117e-09
1.09125e-09
1.10521e-09
1.10052e-09
1.10213e-09
1.09445e-09
1.07245e-09
1.06005e-09
1.07564e-09
1.10581e-09
1.139e-09
1.15735e-09
1.16255e-09
1.16076e-09
1.13471e-09
1.08813e-09
1.06292e-09
1.02837e-09
1.01038e-09
9.98184e-10
9.7804e-10
1.07064e-09
1.0541e-09
1.04186e-09
1.04568e-09
1.05073e-09
1.07323e-09
1.10898e-09
1.14387e-09
1.16844e-09
1.17376e-09
1.18806e-09
1.21132e-09
1.21652e-09
1.21144e-09
1.20687e-09
1.1874e-09
1.1635e-09
1.1305e-09
1.1099e-09
1.08529e-09
1.06671e-09
1.05919e-09
1.06886e-09
1.0793e-09
1.09026e-09
1.10317e-09
1.09879e-09
1.09929e-09
1.09207e-09
1.06896e-09
1.05714e-09
1.07313e-09
1.10342e-09
1.13653e-09
1.15442e-09
1.15915e-09
1.15734e-09
1.12966e-09
1.08257e-09
1.05665e-09
1.02295e-09
1.00417e-09
9.89411e-10
9.69811e-10
1.05457e-09
1.03837e-09
1.02684e-09
1.03111e-09
1.0377e-09
1.06061e-09
1.09705e-09
1.13201e-09
1.15652e-09