/*--------------------------------*- C++ -*----------------------------------*\
  =========                 |
  \\      /  F ield         | OpenFOAM: The Open Source CFD Toolbox
   \\    /   O peration     | Website:  https://openfoam.org
    \\  /    A nd           | Version:  7
     \\/     M anipulation  |
\*---------------------------------------------------------------------------*/
FoamFile
{
    version     2.0;
    format      ascii;
    class       volScalarField;
    location    "60000";
    object      omega;
}
// * * * * * * * * * * * * * * * * * * * * * * * * * * * * * * * * * * * * * //

dimensions      [0 0 -1 0 0 0 0];

internalField   nonuniform List<scalar> 
4825
(
0.04254
0.0415941
0.0453761
0.0441083
0.0429981
0.0420423
0.0412338
0.048992
0.047422
0.0460032
0.0447385
0.0436296
0.0533135
0.051481
0.0497865
0.0482365
0.0468398
0.0582455
0.0561931
0.0542654
0.052469
0.0508192
0.063695
0.0614615
0.0593422
0.0573399
0.0554772
0.0695807
0.0671992
0.0649236
0.0627518
0.060714
0.0758324
0.0733331
0.0709311
0.0686191
0.0664391
0.0823929
0.0797993
0.0772957
0.0748694
0.0725752
0.0892098
0.0865434
0.08396
0.0814421
0.0790557
0.096242
0.0935193
0.0908747
0.0882842
0.0858237
0.103452
0.100688
0.0979976
0.0953508
0.092833
0.11081
0.108016
0.105295
0.102604
0.10004
0.11829
0.115477
0.112736
0.11001
0.125875
0.123051
0.120298
0.117543
0.13355
0.130724
0.127965
0.125186
0.141313
0.138486
0.135725
0.14916
0.146335
0.143574
0.157096
0.154275
0.165131
0.162314
0.173279
0.170464
0.181554
0.178743
0.189971
0.187168
0.198534
0.0369239
0.0368913
0.0368592
0.0368279
0.0367976
0.0367686
0.036741
0.036715
0.0366904
0.0366674
0.0366457
0.0366252
0.0366059
0.0365877
0.0365708
0.0365552
0.0365409
0.0365278
0.0365158
0.0365046
0.0369999
0.0369679
0.0369361
0.0369047
0.0368741
0.0368447
0.0368165
0.0367898
0.0367646
0.0367409
0.0367185
0.0366975
0.0366776
0.0366589
0.0366415
0.0366254
0.0366107
0.0365971
0.0365847
0.0365731
0.0370732
0.0370425
0.0370116
0.0369808
0.0369505
0.0369211
0.0368927
0.0368657
0.03684
0.0368158
0.0367929
0.0367713
0.036751
0.0367318
0.0367139
0.0366973
0.0366821
0.0366682
0.0366554
0.0366436
0.0371425
0.0371136
0.0370842
0.0370547
0.0370254
0.0369966
0.0369686
0.0369416
0.0369159
0.0368915
0.0368684
0.0368465
0.0368258
0.0368062
0.0367879
0.036771
0.0367554
0.0367411
0.0367281
0.0367164
0.0372072
0.0371801
0.0371526
0.0371249
0.0370971
0.0370695
0.0370425
0.0370163
0.0369911
0.036967
0.0369441
0.0369222
0.0369014
0.0368817
0.0368632
0.036846
0.0368302
0.0368158
0.0368028
0.0367913
0.037268
0.0372422
0.0372164
0.0371905
0.0371645
0.0371386
0.0371131
0.0370881
0.0370639
0.0370407
0.0370184
0.036997
0.0369766
0.0369571
0.0369388
0.0369216
0.0369059
0.0368915
0.0368787
0.0368676
0.037327
0.0373014
0.0372764
0.0372517
0.0372272
0.037203
0.0371791
0.0371557
0.037133
0.037111
0.0370898
0.0370694
0.0370497
0.0370309
0.037013
0.0369963
0.0369809
0.036967
0.0369546
0.0369441
0.0373885
0.0373608
0.037335
0.0373104
0.0372866
0.0372634
0.0372407
0.0372187
0.0371974
0.0371768
0.037157
0.0371378
0.0371193
0.0371014
0.0370844
0.0370685
0.0370538
0.0370405
0.0370287
0.0370189
0.0370112
0.0370044
0.0369986
0.0369943
0.0369917
0.0369909
0.036992
0.0369948
0.0369994
0.0370057
0.0370135
0.0370226
0.0370331
0.0370448
0.0370577
0.0374601
0.0374265
0.037397
0.0373702
0.0373453
0.0373218
0.0372994
0.0372781
0.0372577
0.0372382
0.0372196
0.0372016
0.0371842
0.0371675
0.0371516
0.0371366
0.0371228
0.0371103
0.0370995
0.0370904
0.0370833
0.037077
0.0370718
0.0370678
0.0370653
0.0370645
0.0370655
0.0370682
0.0370725
0.0370785
0.0370859
0.0370945
0.0371043
0.0371153
0.0371275
0.037141
0.0371555
0.037555
0.0375086
0.0374704
0.0374376
0.0374087
0.0373826
0.0373587
0.0373366
0.0373161
0.0372969
0.0372787
0.0372615
0.037245
0.0372292
0.0372141
0.0372001
0.0371872
0.0371756
0.0371656
0.0371572
0.0371506
0.0371449
0.0371401
0.0371365
0.0371342
0.0371334
0.0371342
0.0371367
0.0371408
0.0371464
0.0371533
0.0371613
0.0371705
0.0371807
0.0371922
0.0372051
0.0372189
0.037234
0.0376996
0.0376269
0.0375701
0.0375242
0.0374859
0.0374532
0.0374246
0.0373993
0.0373767
0.0373561
0.0373373
0.0373198
0.0373033
0.0372878
0.0372732
0.0372597
0.0372475
0.0372366
0.0372272
0.0372194
0.037213
0.0372077
0.0372034
0.0372
0.0371979
0.0371971
0.0371979
0.0372002
0.037204
0.0372092
0.0372157
0.0372233
0.0372319
0.0372416
0.0372527
0.0372652
0.0372789
0.0372941
0.0373105
0.0373278
0.0379453
0.0378201
0.0377256
0.0376523
0.0375942
0.0375472
0.0375081
0.0374751
0.0374468
0.0374222
0.0374006
0.037381
0.0373632
0.0373468
0.0373318
0.0373181
0.0373058
0.0372951
0.0372859
0.0372783
0.0372719
0.0372669
0.0372628
0.0372596
0.0372576
0.0372569
0.0372576
0.0372598
0.0372635
0.0372685
0.0372749
0.0372823
0.0372907
0.0373004
0.0373116
0.0373244
0.0373389
0.0373554
0.0373737
0.0373935
0.0374153
0.0374394
0.0383884
0.0381637
0.0379948
0.0378665
0.0377678
0.037691
0.0376298
0.0375804
0.03754
0.0375063
0.0374778
0.0374532
0.0374315
0.0374123
0.0373951
0.0373798
0.0373665
0.0373551
0.0373454
0.0373373
0.0373306
0.0373254
0.0373212
0.0373181
0.0373161
0.0373154
0.0373162
0.0373184
0.0373222
0.0373275
0.0373341
0.0373419
0.0373509
0.0373615
0.0373739
0.0373884
0.0374052
0.0374249
0.0374476
0.0374731
0.0375025
0.0375363
0.0375762
0.0376244
0.0376839
0.0391822
0.0387882
0.0384849
0.0382523
0.0380743
0.0379377
0.0378315
0.0377483
0.0376825
0.0376297
0.0375866
0.0375509
0.0375207
0.0374948
0.0374726
0.0374534
0.0374372
0.0374234
0.037412
0.0374025
0.0373946
0.0373886
0.037384
0.0373806
0.0373785
0.0373778
0.0373787
0.0373813
0.0373856
0.0373917
0.0373994
0.0374086
0.0374195
0.0374324
0.0374479
0.0374664
0.0374887
0.0375153
0.037547
0.0375844
0.0376294
0.0376831
0.0377494
0.0378319
0.0379364
0.0380703
0.0382454
0.0405176
0.039876
0.0393613
0.0389537
0.0386348
0.0383871
0.0381942
0.0380441
0.0379273
0.0378352
0.037762
0.0377031
0.0376551
0.0376153
0.0375821
0.0375545
0.0375316
0.0375127
0.0374972
0.0374844
0.037474
0.0374661
0.0374602
0.037456
0.0374536
0.0374529
0.0374543
0.0374578
0.0374634
0.0374714
0.0374816
0.037494
0.037509
0.0375272
0.0375495
0.0375766
0.0376101
0.0376511
0.0377014
0.0377628
0.037839
0.0379332
0.0380519
0.0382018
0.038393
0.0386378
0.0389529
0.0393543
0.0398636
0.0404999
0.0425618
0.041615
0.0408196
0.0401621
0.0396279
0.0391994
0.0388576
0.038587
0.0383743
0.0382065
0.0380738
0.0379684
0.0378839
0.0378153
0.0377595
0.0377142
0.0376774
0.0376476
0.0376233
0.0376037
0.037588
0.0375761
0.0375674
0.0375615
0.0375582
0.0375575
0.0375598
0.0375651
0.0375736
0.0375856
0.0376011
0.0376204
0.0376441
0.0376734
0.0377097
0.0377548
0.0378112
0.0378815
0.037969
0.0380782
0.0382153
0.0383865
0.0386024
0.0388734
0.0392132
0.0396382
0.0401673
0.0408166
0.0416048
0.0425452
0.0453981
0.044129
0.0430181
0.0420604
0.0412501
0.0405733
0.0400134
0.0395554
0.0391853
0.0388872
0.0386478
0.0384557
0.0383014
0.0381768
0.0380761
0.0379951
0.0379301
0.0378777
0.0378356
0.0378018
0.0377751
0.0377549
0.0377404
0.0377307
0.0377257
0.037725
0.0377292
0.0377383
0.0377527
0.037773
0.0377996
0.037833
0.0378746
0.0379264
0.0379913
0.0380722
0.0381738
0.0383008
0.038459
0.0386562
0.0389015
0.0392045
0.0395789
0.0400371
0.0405942
0.0412664
0.0420704
0.0430174
0.0441194
0.0453818
0.0490151
0.0474433
0.0460229
0.0447555
0.0436441
0.0426802
0.0418525
0.0411502
0.0405621
0.0400731
0.0396692
0.0393369
0.039065
0.0388423
0.0386606
0.0385134
0.0383948
0.0382991
0.0382221
0.0381604
0.038112
0.0380754
0.0380491
0.0380319
0.0380232
0.0380225
0.0380305
0.0380472
0.0380734
0.0381104
0.0381589
0.03822
0.0382963
0.0383916
0.0385102
0.0386574
0.03884
0.0390657
0.0393427
0.0396813
0.0400925
0.0405875
0.0411807
0.0418825
0.0427062
0.0436639
0.0447679
0.0460223
0.0474324
0.0489979
0.0533385
0.0515036
0.0498068
0.0482534
0.0468536
0.0456025
0.0444936
0.0435217
0.0426799
0.041957
0.0413408
0.040818
0.0403782
0.0400095
0.0397022
0.0394485
0.0392411
0.0390715
0.0389339
0.0388229
0.0387356
0.038669
0.0386211
0.0385899
0.0385743
0.0385736
0.0385886
0.0386193
0.0386672
0.0387345
0.0388224
0.0389326
0.0390692
0.0392381
0.0394457
0.0396989
0.0400067
0.0403788
0.0408247
0.041355
0.04198
0.0427096
0.0435571
0.0445274
0.0456309
0.0468739
0.0482663
0.0498039
0.0514895
0.0533195
0.0582729
0.0562175
0.0542868
0.0524865
0.0508332
0.0493232
0.0479522
0.0467194
0.0456231
0.0446559
0.043808
0.0430677
0.0424274
0.0418767
0.0414065
0.0410093
0.0406779
0.040402
0.0401748
0.0399893
0.0398421
0.0397287
0.0396467
0.039593
0.0395663
0.0395653
0.0395915
0.0396447
0.039727
0.0398417
0.0399904
0.0401747
0.0404002
0.0406746
0.0410062
0.0414017
0.0418713
0.0424255
0.0430728
0.043822
0.0446804
0.0456552
0.046758
0.0479873
0.0493515
0.0508523
0.0524987
0.0542809
0.0561999
0.0582519
0.063725
0.061488
0.0593652
0.0573586
0.055492
0.053762
0.0521648
0.0507012
0.0493747
0.0481813
0.0471121
0.0461565
0.045311
0.0445677
0.0439189
0.0433592
0.0428828
0.0424793
0.0421417
0.0418621
0.041638
0.0414634
0.0413359
0.041252
0.0412103
0.0412089
0.0412501
0.0413334
0.0414611
0.0416382
0.0418653
0.0421431
0.0424778
0.0428786
0.0433546
0.0439106
0.044557
0.0453038
0.0461576
0.0471232
0.0482051
0.0494079
0.0507422
0.0522
0.0537899
0.0555095
0.0573695
0.0593553
0.0614671
0.063701
0.0696137
0.0672279
0.0649484
0.0627719
0.0607301
0.0588187
0.0570338
0.0553751
0.0538538
0.0524657
0.0512033
0.0500552
0.0490217
0.0480985
0.0472779
0.0465587
0.0459369
0.0454022
0.044949
0.0445685
0.044261
0.0440189
0.043841
0.0437228
0.0436638
0.0436617
0.0437201
0.0438369
0.0440154
0.0442619
0.0445748
0.0449519
0.0454005
0.0459305
0.0465513
0.0472645
0.0480794
0.049007
0.0500496
0.0512093
0.0524882
0.0538876
0.0554187
0.057069
0.0588458
0.0607456
0.0627825
0.0649351
0.0672038
0.0695856
0.0758684
0.0733641
0.0709578
0.0686406
0.0664566
0.0643981
0.0624587
0.0606401
0.0589574
0.0574085
0.0559856
0.054675
0.053481
0.0524028
0.0514305
0.0505693
0.0498163
0.0491617
0.0486012
0.0481257
0.0477389
0.0474321
0.0472053
0.0470532
0.046977
0.0469738
0.0470493
0.0471987
0.0474263
0.0477407
0.0481358
0.048606
0.0491595
0.0498069
0.050558
0.0514107
0.0523726
0.053457
0.0546613
0.0559858
0.0574304
0.0589928
0.0606862
0.0624942
0.0644237
0.0664702
0.0686526
0.0709407
0.0733359
0.0758365
0.082432
0.0798326
0.0773243
0.0748925
0.0725943
0.0704156
0.0683509
0.0664025
0.0645875
0.0629094
0.0613554
0.0599114
0.0585857
0.0573791
0.0562786
0.0552976
0.0544337
0.0536768
0.0530244
0.0524663
0.0520112
0.051647
0.0513771
0.0511949
0.0511027
0.0510984
0.0511894
0.0513669
0.051638
0.0520133
0.0524811
0.053032
0.0536746
0.0544211
0.0552823
0.056251
0.0573357
0.0585503
0.0598894
0.0613492
0.06293
0.0646264
0.0664515
0.0683874
0.0704405
0.072605
0.0749066
0.0773038
0.0798002
0.0823962
0.0892524
0.0865792
0.0839906
0.0814666
0.0790765
0.0768025
0.0746352
0.0725812
0.0706593
0.0688791
0.0672199
0.0656665
0.0642348
0.0629229
0.0617174
0.060638
0.0596824
0.0588424
0.0581136
0.0574872
0.0569751
0.0565629
0.0562569
0.0560492
0.0559431
0.0559373
0.0560414
0.0562424
0.0565503
0.0569774
0.0575069
0.0581243
0.0588392
0.059666
0.0606173
0.0616812
0.0628655
0.0641869
0.0656367
0.067206
0.068898
0.0707027
0.0726349
0.0746751
0.0768259
0.0790854
0.081484
0.0839679
0.086544
0.0892143
0.0962881
0.0935576
0.0909074
0.0883103
0.0858464
0.0834989
0.081248
0.0791095
0.0771024
0.0752418
0.0734993
0.0718562
0.0703391
0.0689426
0.0676508
0.0664915
0.0654629
0.0645559
0.0637642
0.0630819
0.0625239
0.0620733
0.0617371
0.0615081
0.0613902
0.061383
0.0614983
0.0617177
0.0620562
0.0625263
0.0631087
0.0637786
0.0645511
0.0654421
0.0664652
0.0676052
0.0688705
0.0702778
0.0718181
0.0734763
0.0752588
0.0771517
0.0791688
0.0812921
0.0835201
0.0858553
0.0883305
0.0908821
0.093521
0.0962475
0.103502
0.100729
0.0980327
0.0953786
0.0928578
0.0904539
0.0881367
0.0859308
0.083856
0.0819323
0.0801249
0.0784095
0.0768246
0.0753606
0.0739995
0.0727742
0.0716873
0.0707282
0.0698847
0.0691582
0.0685638
0.0680807
0.0677214
0.0674745
0.0673457
0.0673368
0.0674613
0.0676948
0.0680593
0.068565
0.0691925
0.0699038
0.0707218
0.0716621
0.072742
0.0739425
0.0752721
0.0767495
0.0783631
0.0800942
0.0819498
0.0839113
0.0859976
0.0881846
0.090472
0.0928666
0.0954014
0.0980042
0.100692
0.103457
0.110865
0.10806
0.105333
0.102633
0.100068
0.0976223
0.0952548
0.0929953
0.0908683
0.0888969
0.0870397
0.085268
0.0836285
0.0821115
0.0806953
0.0794161
0.0782841
0.0772836
0.0763985
0.0756357
0.0750129
0.0745049
0.0741271
0.0738652
0.073727
0.073716
0.0738471
0.0740913
0.0744774
0.075013
0.0756804
0.0764237
0.0772763
0.078254
0.0793787
0.0806248
0.0820064
0.08354
0.0852115
0.0870009
0.0889167
0.0909316
0.0930704
0.0953081
0.0976396
0.100077
0.102658
0.105299
0.108023
0.110814
0.118349
0.115524
0.112776
0.110041
0.107442
0.104968
0.102563
0.10026
0.0980953
0.0960892
0.0941951
0.0923787
0.0906992
0.0891398
0.0876807
0.0863565
0.0851917
0.0841581
0.0832397
0.082448
0.0818054
0.0812771
0.0808834
0.0806088
0.0804623
0.0804501
0.0805856
0.0808389
0.0812412
0.0818039
0.0825047
0.0832732
0.0841512
0.085156
0.0863155
0.0875959
0.0890158
0.0905942
0.0923141
0.0941494
0.0961114
0.0981667
0.100346
0.102621
0.104986
0.107452
0.110072
0.112738
0.115487
0.118294
0.12594
0.123101
0.120341
0.117577
0.114953
0.112462
0.110028
0.107691
0.105498
0.103471
0.101552
0.0996983
0.0979892
0.0963981
0.0949049
0.0935464
0.0923566
0.0912997
0.0903531
0.0895403
0.088882
0.0883383
0.0879333
0.0876469
0.0874937
0.0874781
0.0876176
0.0878786
0.088293
0.0888786
0.0896093
0.0903956
0.0912911
0.0923157
0.0934998
0.0948047
0.096255
0.0978667
0.0996253
0.101496
0.103495
0.105581
0.107791
0.110094
0.11248
0.114966
0.117614
0.120297
0.123064
0.125879
0.133622
0.130778
0.128012
0.125223
0.122578
0.120079
0.117625
0.11526
0.113048
0.11101
0.109073
0.107191
0.105461
0.103849
0.102327
0.100941
0.0997338
0.0986624
0.0976934
0.0968634
0.0961942
0.0956401
0.0952248
0.0949302
0.0947706
0.0947514
0.0948942
0.0951604
0.0955824
0.0961892
0.0969464
0.0977443
0.0986522
0.0996867
0.10089
0.102211
0.103682
0.105321
0.107109
0.109008
0.111035
0.113144
0.115376
0.117699
0.120098
0.122595
0.125267
0.12796
0.13074
0.133555
0.141392
0.138545
0.135776
0.132963
0.130306
0.127803
0.125333
0.122947
0.120719
0.11868
0.116734
0.114827
0.113083
0.111457
0.109913
0.108506
0.107287
0.106206
0.105219
0.104378
0.103701
0.103139
0.102717
0.102415
0.102248
0.102227
0.102371
0.10264
0.103068
0.103696
0.104476
0.105282
0.106195
0.107232
0.108449
0.10978
0.111265
0.112925
0.114736
0.116658
0.118708
0.120832
0.123081
0.125417
0.127825
0.130324
0.133019
0.135717
0.138506
0.141317
0.149249
0.146399
0.143631
0.140793
0.138123
0.135625
0.133139
0.130734
0.128496
0.126461
0.124512
0.122584
0.120831
0.119199
0.117636
0.116213
0.114985
0.113902
0.1129
0.112052
0.111369
0.110802
0.110376
0.110066
0.109893
0.109867
0.110015
0.110284
0.110716
0.111362
0.112166
0.112974
0.11389
0.114923
0.116149
0.117485
0.118978
0.120653
0.122485
0.124425
0.126493
0.128628
0.130892
0.133235
0.135646
0.138144
0.140864
0.143562
0.146361
0.149163
0.157195
0.154345
0.151577
0.148711
0.14603
0.143538
0.141038
0.138614
0.136369
0.134343
0.132394
0.130447
0.12869
0.127054
0.125473
0.124037
0.122808
0.121724
0.120709
0.119856
0.119171
0.118601
0.118174
0.117856
0.117675
0.117645
0.117795
0.118064
0.118498
0.119163
0.119991
0.120799
0.121711
0.122734
0.123966
0.125302
0.126801
0.128488
0.130337
0.132294
0.134378
0.136519
0.138796
0.141148
0.143558
0.146052
0.148799
0.151495
0.154305
0.1571
0.165242
0.162391
0.159623
0.156724
0.154029
0.151544
0.149028
0.146584
0.144331
0.142318
0.140371
0.138407
0.136646
0.135013
0.133412
0.131963
0.130736
0.129657
0.12863
0.127773
0.127091
0.126516
0.126089
0.125763
0.125574
0.12554
0.125694
0.125958
0.126395
0.127079
0.127931
0.128737
0.129641
0.130652
0.131886
0.133219
0.134722
0.13642
0.138287
0.140258
0.142358
0.144503
0.146796
0.149153
0.151562
0.154051
0.156832
0.159525
0.16235
0.165136
0.173403
0.17055
0.167779
0.164839
0.162127
0.159652
0.157113
0.154645
0.152384
0.150386
0.148444
0.146461
0.144695
0.143068
0.141448
0.139983
0.138761
0.137688
0.136651
0.135789
0.135112
0.134535
0.134108
0.133776
0.133577
0.133539
0.133695
0.133955
0.134392
0.135097
0.135978
0.136777
0.137671
0.138664
0.139901
0.141228
0.142735
0.144444
0.14633
0.148317
0.150433
0.152582
0.154892
0.157259
0.159667
0.162148
0.164972
0.167664
0.170508
0.173285
0.181694
0.178839
0.176064
0.173072
0.170338
0.167871
0.165308
0.16281
0.160534
0.158554
0.156618
0.154611
0.152841
0.15122
0.14958
0.148097
0.146883
0.145817
0.144767
0.143903
0.143231
0.142652
0.142225
0.141884
0.141675
0.141633
0.141792
0.142048
0.142481
0.143213
0.144127
0.144914
0.145797
0.146768
0.148009
0.149329
0.150838
0.152558
0.154467
0.156475
0.15861
0.160761
0.163094
0.165473
0.167883
0.170357
0.173234
0.175927
0.178798
0.181563
0.190127
0.187275
0.184489
0.181439
0.178677
0.176218
0.173624
0.171089
0.168794
0.166834
0.164903
0.162867
0.161091
0.159478
0.157813
0.156309
0.155102
0.154045
0.152981
0.152115
0.15145
0.150867
0.15044
0.150092
0.149867
0.149822
0.149985
0.150237
0.150663
0.151426
0.15238
0.153154
0.154025
0.154969
0.156216
0.157524
0.159039
0.160775
0.162711
0.164742
0.166901
0.169057
0.171417
0.173814
0.176228
0.178693
0.181634
0.184328
0.187233
0.189985
0.198706
0.195864
0.193064
0.189953
0.18716
0.184713
0.182077
0.1795
0.177181
0.175243
0.173315
0.171241
0.16946
0.167856
0.166158
0.16463
0.163431
0.162386
0.161301
0.160432
0.159776
0.159186
0.15876
0.158405
0.158161
0.158113
0.158281
0.158526
0.158947
0.159745
0.160745
0.161505
0.162361
0.163275
0.164532
0.165829
0.167349
0.169104
0.171076
0.173135
0.17532
0.177484
0.179876
0.182295
0.184717
0.187171
0.190184
0.192879
0.19582
0.198558
0.207393
0.204583
0.201777
0.198616
0.195797
0.193361
0.19068
0.18806
0.185712
0.183798
0.181874
0.17975
0.177966
0.176372
0.174633
0.173075
0.171883
0.170852
0.169738
0.16887
0.168222
0.167623
0.167198
0.166834
0.166568
0.166516
0.166691
0.166927
0.167344
0.16818
0.169237
0.16998
0.170823
0.171701
0.172975
0.174258
0.175784
0.177561
0.179579
0.18167
0.183883
0.186058
0.188487
0.190929
0.193362
0.195795
0.198873
0.201568
0.204538
0.207251
0.216078
0.21333
0.210549
0.207389
0.204565
0.202154
0.199432
0.196774
0.194398
0.192511
0.19059
0.188408
0.186623
0.185044
0.183258
0.181665
0.180478
0.179462
0.178312
0.177445
0.176807
0.176195
0.17577
0.175395
0.175106
0.175048
0.175233
0.175457
0.17587
0.176753
0.177874
0.178599
0.179426
0.180265
0.181563
0.182829
0.184362
0.186165
0.188235
0.19036
0.192598
0.194789
0.197248
0.199708
0.20215
0.204547
0.20765
0.210334
0.213277
0.215946
0.224566
0.221895
0.219197
0.216155
0.213373
0.211018
0.208293
0.205624
0.203225
0.201377
0.199455
0.197219
0.195441
0.193882
0.192047
0.190414
0.189231
0.18823
0.18704
0.186179
0.185549
0.184922
0.184498
0.184109
0.183793
0.183728
0.183926
0.184133
0.184542
0.185477
0.186672
0.187377
0.188187
0.188982
0.190315
0.19156
0.1931
0.194929
0.197049
0.199207
0.201453
0.203653
0.206127
0.208574
0.211002
0.213356
0.216384
0.219013
0.221842
0.232798
0.230201
0.227595
0.224715
0.22205
0.219749
0.217121
0.214519
0.212126
0.210334
0.208409
0.206153
0.204401
0.202867
0.200997
0.199323
0.198146
0.197163
0.195933
0.195083
0.194463
0.193814
0.193391
0.192988
0.192644
0.192572
0.192786
0.192969
0.193373
0.194363
0.195629
0.196323
0.197112
0.197861
0.199234
0.200457
0.201993
0.203836
0.205989
0.208172
0.210382
0.212564
0.214999
0.217385
0.219738
0.222041
0.2249
0.227444
0.240795
0.238271
0.235751
0.233015
0.230465
0.22822
0.225719
0.223248
0.220948
0.219185
0.217304
0.215114
0.213399
0.211895
0.210049
0.208358
0.20719
0.206221
0.204971
0.204144
0.203535
0.202866
0.202433
0.202021
0.20166
0.201573
0.201811
0.201962
0.20236
0.203402
0.204703
0.205407
0.206164
0.206883
0.208284
0.209484
0.210996
0.212818
0.214964
0.217099
0.219224
0.22134
0.223664
0.225951
0.228221
0.23046
0.233165
0.248579
0.246126
0.243687
0.24108
0.238633
0.236447
0.234058
0.231708
0.229514
0.227775
0.225954
0.223892
0.222236
0.220762
0.219019
0.217391
0.216243
0.215275
0.214061
0.213266
0.212669
0.212001
0.211545
0.211138
0.210791
0.210677
0.210933
0.211067
0.211461
0.21251
0.213776
0.214491
0.215219
0.215949
0.217323
0.218492
0.21996
0.22172
0.223759
0.225791
0.227817
0.229852
0.23207
0.234265
0.236454
0.238632
0.256172
0.253786
0.251422
0.248931
0.246579
0.24445
0.242163
0.239921
0.237823
0.236112
0.234347
0.232402
0.230803
0.229363
0.227722
0.226189
0.225073
0.224122
0.22299
0.222218
0.221629
0.220997
0.220554
0.220171
0.219852
0.219741
0.219977
0.220123
0.220518
0.221487
0.222647
0.223354
0.224078
0.224826
0.226121
0.22727
0.228686
0.230362
0.232283
0.234219
0.236156
0.238116
0.240237
0.242347
0.244463
0.263596
0.261273
0.258979
0.256592
0.254324
0.252251
0.250057
0.247912
0.2459
0.24422
0.242509
0.240665
0.239119
0.237716
0.236164
0.234717
0.233632
0.232701
0.231643
0.230894
0.230314
0.229716
0.229294
0.228936
0.228652
0.228555
0.228765
0.228925
0.229311
0.230196
0.23125
0.231949
0.232668
0.233426
0.234651
0.235777
0.237144
0.238744
0.240561
0.242408
0.244264
0.246155
0.248187
0.250221
0.252267
0.270872
0.268607
0.266378
0.264082
0.261891
0.259871
0.257762
0.255704
0.253768
0.252121
0.25046
0.248705
0.247208
0.245842
0.24437
0.242997
0.241944
0.241034
0.24004
0.239312
0.238743
0.238177
0.237772
0.237438
0.237182
0.237099
0.237288
0.237458
0.237835
0.238645
0.23961
0.240297
0.24101
0.241775
0.242936
0.244039
0.245359
0.246891
0.248616
0.250381
0.252165
0.253991
0.255945
0.257907
0.259891
0.278022
0.275809
0.273641
0.271425
0.269304
0.267333
0.2653
0.263318
0.261454
0.259838
0.258223
0.256546
0.255096
0.253765
0.252363
0.251057
0.250033
0.249144
0.248207
0.2475
0.246942
0.246405
0.246015
0.245702
0.245471
0.245401
0.24557
0.245748
0.246115
0.24686
0.247748
0.248423
0.249128
0.249895
0.251002
0.25208
0.253358
0.254828
0.256472
0.258162
0.25988
0.261647
0.26353
0.265429
0.267353
0.285068
0.2829
0.280786
0.278641
0.276583
0.274658
0.272691
0.27078
0.268977
0.267392
0.265821
0.264213
0.262805
0.261507
0.260169
0.25892
0.257925
0.257056
0.256168
0.25548
0.254935
0.254423
0.254047
0.253752
0.253542
0.253483
0.253637
0.253821
0.254177
0.254866
0.255689
0.25635
0.257047
0.257812
0.258871
0.259928
0.261164
0.262579
0.26415
0.265774
0.267433
0.269147
0.270966
0.272809
0.274679
0.292028
0.289903
0.287836
0.285753
0.28375
0.281868
0.279961
0.27811
0.276361
0.274808
0.273275
0.271728
0.270358
0.269092
0.267809
0.266613
0.265644
0.264794
0.263949
0.26328
0.262746
0.262256
0.261894
0.261613
0.261422
0.261372
0.261515
0.2617
0.262047
0.262688
0.263454
0.264102
0.264791
0.265551
0.26657
0.267604
0.268803
0.270169
0.271676
0.273242
0.274848
0.276513
0.278274
0.280066
0.281887
0.298927
0.296838
0.294813
0.292783
0.290829
0.288985
0.28713
0.285333
0.283631
0.282105
0.280609
0.279114
0.277778
0.276543
0.275307
0.274158
0.273213
0.272382
0.271572
0.270922
0.270398
0.269927
0.269577
0.269311
0.269135
0.269093
0.269226
0.269413
0.269751
0.27035
0.271068
0.271702
0.272384
0.273138
0.274121
0.275133
0.2763
0.277621
0.279072
0.280587
0.282145
0.283766
0.285477
0.287223
0.289001
0.305788
0.303729
0.301738
0.299754
0.297842
0.29603
0.294221
0.29247
0.290809
0.28931
0.287845
0.286395
0.28509
0.283882
0.282687
0.28158
0.280655
0.279842
0.279064
0.278431
0.277915
0.277462
0.277124
0.27687
0.276706
0.27667
0.276796
0.276983
0.277312
0.277875
0.278553
0.279175
0.279849
0.280597
0.281547
0.282541
0.283679
0.284959
0.286362
0.287831
0.289348
0.29093
0.292597
0.294305
0.312632
0.310598
0.308636
0.306689
0.304812
0.303029
0.301257
0.299545
0.297921
0.296443
0.295005
0.293596
0.292318
0.291133
0.289974
0.288902
0.287995
0.287199
0.286449
0.28583
0.285324
0.284885
0.284556
0.284313
0.284159
0.284129
0.284248
0.284436
0.284758
0.28529
0.285933
0.286542
0.287209
0.287951
0.288874
0.289851
0.290963
0.292208
0.293569
0.294999
0.29648
0.298029
0.299659
0.301334
0.319486
0.317472
0.315531
0.313613
0.311764
0.310003
0.308263
0.306583
0.304989
0.30353
0.302116
0.30074
0.299484
0.29832
0.297191
0.29615
0.29526
0.294477
0.29375
0.293144
0.292647
0.29222
0.291899
0.291666
0.291522
0.291496
0.29161
0.291799
0.292112
0.292619
0.293232
0.29383
0.294489
0.295225
0.296126
0.297088
0.298177
0.299392
0.300719
0.302115
0.303565
0.305087
0.306687
0.308334
0.326379
0.324376
0.32245
0.320554
0.318725
0.316982
0.315265
0.313611
0.312041
0.310596
0.309201
0.307852
0.306615
0.305469
0.300995
0.300398
0.299909
0.299492
0.299178
0.298955
0.298818
0.298795
0.298905
0.299094
0.2994
0.299886
0.300474
0.301062
0.301715
0.302447
0.303329
0.30428
0.305349
0.306539
0.307837
0.309205
0.310631
0.312129
0.313705
0.31533
0.310511
0.311452
0.312505
0.313675
0.314951
0.316296
0.317703
0.319184
0.320742
0.322351
0.32628
0.327828
0.329427
0.0369218
0.036998
0.0370716
0.0371412
0.0372063
0.0372674
0.0373266
0.0373885
0.0374602
0.0375554
0.0377002
0.0379463
0.0383897
0.039184
0.0405198
0.0425643
0.0454009
0.049018
0.0533416
0.0582757
0.0637271
0.0696142
0.0758694
0.0824324
0.0892545
0.0962909
0.103505
0.110867
0.118355
0.125947
0.133636
0.141411
0.149274
0.157231
0.165294
0.173475
0.181792
0.190257
0.198865
0.207573
0.216244
0.224693
0.232893
0.240865
0.248631
0.256211
0.263624
0.270894
0.278037
0.285077
0.292035
0.29893
0.305787
0.31263
0.319484
0.326375
0.0369619
0.0370374
0.0371095
0.0371771
0.0372403
0.0373002
0.0373604
0.0374267
0.0375094
0.0376282
0.037822
0.0381661
0.038791
0.0398788
0.0416167
0.0441284
0.0474387
0.0514932
0.0562006
0.0614642
0.0671971
0.0733237
0.0797816
0.0865178
0.093486
0.100647
0.107966
0.115418
0.122981
0.13064
0.138388
0.146221
0.154141
0.162158
0.170285
0.178536
0.186924
0.195457
0.204116
0.212833
0.221448
0.229818
0.237941
0.24584
0.253539
0.261058
0.268422
0.27565
0.282764
0.289785
0.296736
0.30364
0.31052
0.317402
0.324313
0.0372748
0.0373346
0.0373974
0.0374714
0.0375718
0.0377279
0.0379979
0.0384886
0.0393654
0.0408229
0.043019
0.0460195
0.0497966
0.0542682
0.0593354
0.0649066
0.0709006
0.0772511
0.0839001
0.0907984
0.0979034
0.105178
0.112593
0.120127
0.127761
0.135484
0.143291
0.151183
0.159164
0.167247
0.175445
0.183777
0.192256
0.200879
0.209614
0.218349
0.226874
0.235138
0.243165
0.250977
0.258599
0.266052
0.27336
0.280545
0.287628
0.294633
0.301582
0.3085
0.315412
0.322344
0.0372488
0.0373091
0.0373702
0.0374386
0.0375261
0.0376552
0.0378707
0.038258
0.038961
0.0401704
0.0420688
0.0447623
0.0482565
0.052485
0.0573511
0.0627584
0.0686214
0.074867
0.0814329
0.0882664
0.0953225
0.102563
0.109956
0.117478
0.125107
0.132832
0.140646
0.148546
0.156537
0.164631
0.172841
0.181182
0.18967
0.198303
0.207049
0.215805
0.224394
0.232728
0.240821
0.248698
0.256381
0.263892
0.271254
0.278487
0.285616
0.29266
0.299643
0.30659
0.313524
0.320472
0.0372225
0.0372839
0.0373442
0.0374089
0.0374874
0.037597
0.0377721
0.0380804
0.0386431
0.0396382
0.0412616
0.0436554
0.0468625
0.0508387
0.0554933
0.060727
0.0664482
0.0725786
0.0790528
0.0858155
0.0928169
0.100018
0.107384
0.114888
0.122507
0.130225
0.138035
0.145931
0.153917
0.162002
0.170197
0.178521
0.186987
0.195604
0.204354
0.213165
0.221853
0.230283
0.238466
0.246425
0.254183
0.261763
0.269186
0.276476
0.283652
0.290739
0.297758
0.304734
0.311693
0.318659
0.0372593
0.0373197
0.037382
0.0374539
0.0375491
0.0376945
0.0379431
0.0383949
0.0392099
0.0405859
0.0426939
0.0456155
0.0493335
0.0537688
0.0588216
0.064395
0.0704071
0.076786
0.0834721
0.0904141
0.0975701
0.104903
0.11238
0.11998
0.127684
0.13548
0.143362
0.151333
0.159398
0.167569
0.175864
0.184294
0.192876
0.201601
0.210417
0.219201
0.227758
0.236055
0.244116
0.251965
0.259628
0.267124
0.274477
0.281711
0.288846
0.295909
0.30292
0.309907
0.316895
0.037235
0.0372958
0.0373567
0.037424
0.0375088
0.0376321
0.0378357
0.038201
0.0388673
0.0400261
0.0418676
0.04451
0.0479683
0.052179
0.0570445
0.0624661
0.0683555
0.0746376
0.0812491
0.0881342
0.095247
0.102548
0.110007
0.117594
0.125293
0.133091
0.140977
0.148956
0.15703
0.165209
0.17351
0.181953
0.190549
0.199299
0.208154
0.216979
0.225593
0.233949
0.242068
0.249973
0.257686
0.26523
0.272629
0.279902
0.287074
0.294168
0.301207
0.308217
0.315221
0.0372115
0.037273
0.0373331
0.0373972
0.0374742
0.037581
0.0377506
0.0380488
0.0385946
0.0395664
0.0411644
0.0435383
0.0467378
0.0507206
0.0553961
0.0606615
0.0664237
0.072604
0.079134
0.0859559
0.0930208
0.100289
0.107725
0.115299
0.12299
0.130784
0.138671
0.146649
0.154723
0.1629
0.171196
0.179628
0.18821
0.196948
0.205809
0.21468
0.223377
0.231813
0.240006
0.247979
0.255755
0.263358
0.270808
0.27813
0.285344
0.292474
0.299545
0.30658
0.313605
0.0371887
0.0372511
0.037311
0.0373728
0.0374441
0.0375385
0.0376825
0.0379292
0.0383786
0.0391924
0.0405716
0.0426913
0.0456354
0.0493873
0.0538655
0.0589687
0.0645996
0.0706734
0.0771176
0.0838717
0.0908838
0.09811
0.105515
0.113067
0.120743
0.128525
0.136403
0.144372
0.152436
0.160604
0.168889
0.177306
0.185873
0.194597
0.203464
0.212394
0.221173
0.229689
0.237959
0.246005
0.253849
0.261513
0.26902
0.276393
0.283654
0.290826
0.297931
0.304995
0.312043
0.0371668
0.0372301
0.0372901
0.0373505
0.0374176
0.0375027
0.0376272
0.0378341
0.0382071
0.0388894
0.0400765
0.0419604
0.0446573
0.0481785
0.0524572
0.057394
0.0628868
0.0688463
0.0751968
0.0818756
0.0888271
0.0960049
0.103368
0.110885
0.11853
0.126284
0.134132
0.14207
0.150098
0.158221
0.166449
0.174798
0.183282
0.191914
0.200695
0.209589
0.218491
0.227188
0.235617
0.243801
0.251766
0.259535
0.267135
0.274588
0.281918
0.289148
0.296304
0.303411
0.310493
0.0371458
0.0372102
0.0372707
0.0373302
0.0373943
0.0374723
0.0375819
0.0377582
0.038071
0.0386456
0.0396667
0.0413361
0.0437986
0.0470949
0.0511753
0.0559453
0.0613017
0.0671498
0.0734098
0.0800156
0.0869098
0.0940435
0.101373
0.108866
0.116493
0.124234
0.132074
0.140005
0.148024
0.156137
0.164354
0.172688
0.181157
0.189779
0.198564
0.207488
0.21644
0.225214
0.23372
0.241977
0.250008
0.25784
0.265496
0.273
0.280375
0.287646
0.294837
0.301972
0.309079
0.0371258
0.0371914
0.0372525
0.0373117
0.0373737
0.0374464
0.0375447
0.0376976
0.0379634
0.0384509
0.0393314
0.0408098
0.0430539
0.0461341
0.0500211
0.0546277
0.0598497
0.0655898