/*--------------------------------*- C++ -*----------------------------------*\
  =========                 |
  \\      /  F ield         | OpenFOAM: The Open Source CFD Toolbox
   \\    /   O peration     | Website:  https://openfoam.org
    \\  /    A nd           | Version:  7
     \\/     M anipulation  |
\*---------------------------------------------------------------------------*/
FoamFile
{
    version     2.0;
    format      ascii;
    class       volScalarField;
    location    "240000";
    object      strainRate;
}
// * * * * * * * * * * * * * * * * * * * * * * * * * * * * * * * * * * * * * //

dimensions      [0 0 -1 0 0 0 0];

internalField   nonuniform List<scalar> 
4838
(
0.0019754
0.00186926
0.00179378
0.00169693
0.00159024
0.00147915
0.00136626
0.00125299
0.00114039
0.00102945
0.000921383
0.000817748
0.000720355
0.00063104
0.000551315
0.000482096
0.000423559
0.000375187
0.000336227
0.00030559
0.000282027
0.000264345
0.000251831
0.000243887
0.000240037
0.000240037
0.000243887
0.000251831
0.000264345
0.000282027
0.00030559
0.000336227
0.000375187
0.000423559
0.000482096
0.000551315
0.000631041
0.000720356
0.000817749
0.000921384
0.00102945
0.00114039
0.001253
0.00136626
0.00147915
0.00159024
0.00169693
0.00179379
0.00186926
0.0019754
0.00257522
0.00224993
0.00215478
0.00204986
0.00193588
0.00181673
0.00169562
0.00157478
0.00145564
0.0013392
0.00122628
0.00111769
0.00101435
0.000917324
0.000827707
0.000746499
0.000674437
0.00061189
0.000558859
0.000515036
0.000479851
0.000452613
0.000432753
0.000419815
0.000413443
0.000413443
0.000419815
0.000432754
0.000452613
0.000479851
0.000515036
0.000558859
0.00061189
0.000674438
0.0007465
0.000827708
0.000917325
0.00101435
0.00111769
0.00122628
0.0013392
0.00145564
0.00157478
0.00169562
0.00181673
0.00193589
0.00204986
0.00215478
0.00224994
0.00257522
0.00295939
0.00255888
0.00243173
0.00231634
0.00220285
0.00208823
0.00197256
0.00185692
0.00174249
0.00163029
0.00152111
0.00141565
0.00131454
0.00121848
0.00112819
0.00104445
0.000968036
0.000899598
0.000839617
0.00078838
0.000745976
0.000712337
0.000687312
0.000670741
0.000662494
0.000662494
0.000670741
0.000687312
0.000712338
0.000745976
0.00078838
0.000839618
0.000899598
0.000968036
0.00104445
0.00112819
0.00121848
0.00131455
0.00141565
0.00152111
0.00163029
0.0017425
0.00185692
0.00197256
0.00208823
0.00220285
0.00231634
0.00243173
0.00255888
0.00295939
0.00325937
0.00286371
0.00272022
0.00259094
0.00247058
0.00235478
0.0022413
0.00212952
0.00201963
0.00191217
0.00180774
0.0017069
0.0016102
0.00151814
0.00143126
0.0013501
0.00127525
0.0012073
0.00114681
0.00109426
0.00105003
0.0010144
0.000987572
0.000969635
0.000960653
0.000960653
0.000969635
0.000987572
0.00101441
0.00105003
0.00109426
0.00114681
0.0012073
0.00127525
0.0013501
0.00143126
0.00151815
0.0016102
0.0017069
0.00180774
0.00191217
0.00201963
0.00212952
0.0022413
0.00235478
0.00247058
0.00259094
0.00272022
0.00286371
0.00325937
0.00353599
0.00315506
0.00300995
0.00287393
0.00274698
0.00262711
0.00251234
0.00240139
0.00229373
0.00218932
0.00208842
0.0019914
0.00189867
0.00181063
0.00172772
0.00165035
0.00157898
0.00151406
0.00145606
0.00140542
0.00136257
0.00132785
0.00130157
0.00128393
0.00127507
0.00127507
0.00128393
0.00130157
0.00132785
0.00136257
0.00140543
0.00145606
0.00151406
0.00157898
0.00165035
0.00172772
0.00181063
0.00189867
0.0019914
0.00208843
0.00218932
0.00229373
0.00240139
0.00251234
0.00262711
0.00274698
0.00287393
0.00300995
0.00315507
0.00353599
0.00380314
0.00343531
0.00329308
0.00315631
0.00302644
0.00290346
0.00278655
0.0026748
0.00256757
0.00246453
0.00236567
0.00227115
0.00218123
0.00209623
0.00201648
0.00194235
0.00187418
0.00181234
0.0017572
0.00170913
0.00166846
0.00163552
0.00161056
0.0015938
0.00158539
0.00158539
0.0015938
0.00161056
0.00163552
0.00166846
0.00170913
0.0017572
0.00181234
0.00187418
0.00194235
0.00201649
0.00209623
0.00218123
0.00227115
0.00236568
0.00246453
0.00256757
0.0026748
0.00278655
0.00290346
0.00302644
0.00315631
0.00329308
0.00343532
0.00380314
0.00406418
0.00370793
0.00356886
0.00343377
0.00330386
0.00317978
0.00306157
0.00294891
0.00284142
0.0027388
0.00264093
0.00254786
0.00245972
0.00237675
0.00229921
0.00222738
0.00216157
0.00210208
0.0020492
0.00200322
0.00196442
0.00193305
0.00190932
0.0018934
0.00188541
0.00188541
0.0018934
0.00190932
0.00193305
0.00196442
0.00200322
0.0020492
0.00210208
0.00216157
0.00222739
0.00229921
0.00237675
0.00245973
0.00254786
0.00264093
0.0027388
0.00284142
0.00294891
0.00306157
0.00317978
0.00330386
0.00343378
0.00356886
0.00370793
0.00406419
0.00432058
0.00397503
0.00383858
0.00370567
0.00357704
0.00345334
0.00333496
0.00322199
0.00311432
0.00301185
0.0029145
0.00282227
0.00273525
0.0026536
0.00257754
0.0025073
0.00244312
0.00238526
0.00233396
0.00228948
0.00225202
0.00222179
0.00219896
0.00218366
0.00217598
0.00217598
0.00218366
0.00219896
0.00222179
0.00225202
0.00228948
0.00233396
0.00238526
0.00244312
0.0025073
0.00257754
0.00265361
0.00273525
0.00282227
0.0029145
0.00301186
0.00311433
0.00322199
0.00333497
0.00345335
0.00357704
0.00370567
0.00383859
0.00397503
0.00432059
0.00457328
0.00423781
0.00410352
0.00397264
0.00384565
0.00372307
0.00360532
0.00349266
0.0033852
0.003283
0.00318606
0.00309442
0.00300818
0.00292746
0.00285244
0.00278331
0.00272028
0.00266357
0.00261339
0.00256995
0.00253342
0.00250399
0.00248178
0.00246692
0.00245947
0.00245947
0.00246692
0.00248179
0.00250399
0.00253342
0.00256995
0.00261339
0.00266357
0.00272028
0.00278331
0.00285244
0.00292747
0.00300818
0.00309443
0.00318606
0.003283
0.00338521
0.00349266
0.00360532
0.00372307
0.00384566
0.00397264
0.00410352
0.00423782
0.00457328
0.00482295
0.00449704
0.00436457
0.00423547
0.00411011
0.00398888
0.00387215
0.00376023
0.00365334
0.00355162
0.00345518
0.00336411
0.00327852
0.00319854
0.00312432
0.00305603
0.00299387
0.00293802
0.00288867
0.00284599
0.00281015
0.0027813
0.00275955
0.00274499
0.0027377
0.0027377
0.00274499
0.00275955
0.0027813
0.00281015
0.00284599
0.00288867
0.00293802
0.00299387
0.00305604
0.00312432
0.00319854
0.00327852
0.00336411
0.00345518
0.00355162
0.00365334
0.00376023
0.00387215
0.00398888
0.00411011
0.00423548
0.00436457
0.00449705
0.00482295
0.0050701
0.00475327
0.00462236
0.00449483
0.00437096
0.00425108
0.0041355
0.00402454
0.00391844
0.0038174
0.00372158
0.00363112
0.00354616
0.00346684
0.00339331
0.00332574
0.00326429
0.00320913
0.00316044
0.00311837
0.00308306
0.00305466
0.00303326
0.00301894
0.00301177
0.00301177
0.00301894
0.00303326
0.00305466
0.00308307
0.00311837
0.00316044
0.00320913
0.00326429
0.00332574
0.00339331
0.00346684
0.00354616
0.00363112
0.00372158
0.0038174
0.00391844
0.00402454
0.00413551
0.00425108
0.00437096
0.00449483
0.00462237
0.00475327
0.0050701
0.00531513
0.00500689
0.00487738
0.00475122
0.00462869
0.00451008
0.00439566
0.00428572
0.00418051
0.00408026
0.00398515
0.00389536
0.00381105
0.00373238
0.00365949
0.00359255
0.00353172
0.00347717
0.00342904
0.00338748
0.00335262
0.00332459
0.00330348
0.00328936
0.00328229
0.00328229
0.00328936
0.00330348
0.00332459
0.00335263
0.00338748
0.00342904
0.00347717
0.00353173
0.00359255
0.00365949
0.00373238
0.00381106
0.00389537
0.00398515
0.00408026
0.00418052
0.00428573
0.00439567
0.00451008
0.0046287
0.00475122
0.00487738
0.0050069
0.00531514
0.00555839
0.00525827
0.00512998
0.00500505
0.00488373
0.00476628
0.00465296
0.00454403
0.00443973
0.00434031
0.00424596
0.00415687
0.00407323
0.00399519
0.00392292
0.00385658
0.00379633
0.00374231
0.00369468
0.00365358
0.00361912
0.00359141
0.00357055
0.00355661
0.00354962
0.00354962
0.00355661
0.00357055
0.00359141
0.00361912
0.00365358
0.00369469
0.00374232
0.00379633
0.00385659
0.00392293
0.0039952
0.00407323
0.00415688
0.00424596
0.00434031
0.00443974
0.00454403
0.00465296
0.00476628
0.00488373
0.00500505
0.00512999
0.00525827
0.0055584
0.00580016
0.0055077
0.0053805
0.00525666
0.00513642
0.00502002
0.00490771
0.00479974
0.00469634
0.00459774
0.00450415
0.00441578
0.0043328
0.0042554
0.00418373
0.00411796
0.00405824
0.00400473
0.00395756
0.00391686
0.00388276
0.00385535
0.00383471
0.00382092
0.00381401
0.00381401
0.00382092
0.00383471
0.00385535
0.00388276
0.00391687
0.00395756
0.00400473
0.00405824
0.00411796
0.00418373
0.0042554
0.00433281
0.00441578
0.00450416
0.00459774
0.00469634
0.00479974
0.00490772
0.00502002
0.00513642
0.00525666
0.00538051
0.00550771
0.00580016
0.00604068
0.00575546
0.00562922
0.00550635
0.00538707
0.00527162
0.00516023
0.00505315
0.00495059
0.00485278
0.00475994
0.00467226
0.00458994
0.00451314
0.00444205
0.00437683
0.00431762
0.00426458
0.00421784
0.00417752
0.00414374
0.0041166
0.00409617
0.00408251
0.00407568
0.00407568
0.00408251
0.00409617
0.0041166
0.00414374
0.00417752
0.00421784
0.00426458
0.00431763
0.00437683
0.00444206
0.00451315
0.00458994
0.00467226
0.00475994
0.00485278
0.00495059
0.00505315
0.00516024
0.00527162
0.00538707
0.00550635
0.00562923
0.00575547
0.00604069
0.00628021
0.00600179
0.0058764
0.00575438
0.00563595
0.00552135
0.0054108
0.00530452
0.00520274
0.00510567
0.00501353
0.00492652
0.00484482
0.00476862
0.00469808
0.00463337
0.00457465
0.00452204
0.0044757
0.00443574
0.00440226
0.00437536
0.00435512
0.00434159
0.00433482
0.00433482
0.00434159
0.00435512
0.00437536
0.00440226
0.00443574
0.0044757
0.00452205
0.00457465
0.00463338
0.00469808
0.00476862
0.00484482
0.00492652
0.00501354
0.00510568
0.00520274
0.00530452
0.0054108
0.00552136
0.00563596
0.00575438
0.00587641
0.0060018
0.00628021
0.00651894
0.00624692
0.00612227
0.006001
0.00588332
0.00576948
0.00565967
0.00555412
0.00545304
0.00535666
0.00526517
0.00517878
0.00509766
0.00502201
0.004952
0.00488778
0.0048295
0.00477731
0.00473134
0.0046917
0.00465851
0.00463184
0.00461177
0.00459836
0.00459164
0.00459164
0.00459836
0.00461177
0.00463184
0.00465851
0.00469171
0.00473134
0.00477732
0.0048295
0.00488778
0.004952
0.00502202
0.00509767
0.00517878
0.00526517
0.00535666
0.00545305
0.00555412
0.00565967
0.00576948
0.00588333
0.006001
0.00612228
0.00624693
0.00651894
0.00675707
0.00649108
0.00636706
0.00624643
0.00612942
0.00601623
0.00590707
0.00580217
0.00570174
0.00560597
0.00551508
0.00542925
0.00534868
0.00527355
0.00520402
0.00514025
0.00508239
0.00503058
0.00498495
0.00494562
0.00491268
0.00488622
0.00486631
0.00485301
0.00484634
0.00484634
0.00485301
0.00486631
0.00488622
0.00491268
0.00494562
0.00498496
0.00503058
0.00508239
0.00514025
0.00520402
0.00527355
0.00534869
0.00542926
0.00551508
0.00560597
0.00570174
0.00580218
0.00590708
0.00601623
0.00612942
0.00624644
0.00636707
0.00649108
0.00675708
0.00699479
0.00673445
0.00661098
0.0064909
0.00637445
0.00626183
0.00615325
0.00604892
0.00594905
0.00585383
0.00576347
0.00567816
0.00559809
0.00552342
0.00545434
0.00539098
0.00533351
0.00528205
0.00523674
0.00519768
0.00516497
0.00513871
0.00511894
0.00510574
0.00509913
0.00509913
0.00510574
0.00511895
0.00513871
0.00516498
0.00519768
0.00523674
0.00528206
0.00533351
0.00539098
0.00545434
0.00552343
0.00559809
0.00567817
0.00576348
0.00585384
0.00594905
0.00604893
0.00615326
0.00626184
0.00637446
0.00649091
0.00661099
0.00673446
0.0069948
0.00685422
0.00673461
0.00661863
0.0065065
0.00639841
0.00629457
0.00619519
0.00610046
0.00601057
0.00592573
0.00584609
0.00577185
0.00570316
0.00564019
0.00558306
0.00553193
0.0054869
0.00544809
0.0054156
0.00538951
0.00536988
0.00535676
0.0053502
0.0053502
0.00535676
0.00536988
0.00538951
0.0054156
0.00544809
0.0054869
0.00553193
0.00558307
0.00564019
0.00570317
0.00577186
0.0058461
0.00592573
0.00601058
0.00610046
0.00619519
0.00629458
0.00639842
0.0065065
0.00661864
0.00673462
0.00685423
0.00697726
0.00723229
0.00697774
0.00686216
0.00675043
0.00664275
0.00653934
0.00644037
0.00634606
0.00625659
0.00617214
0.0060929
0.00601904
0.00595071
0.00588807
0.00583125
0.0057804
0.00573563
0.00569705
0.00566476
0.00563882
0.00561931
0.00560628
0.00559975
0.00559975
0.00560628
0.00561931
0.00563882
0.00566476
0.00569706
0.00573564
0.00578041
0.00583126
0.00588807
0.00595071
0.00601904
0.00609291
0.00617215
0.0062566
0.00634607
0.00644038
0.00653934
0.00664276
0.00675044
0.00686217
0.00697775
0.00709699
0.00721966
0.00746972
0.00699382
0.00688648
0.00678341
0.0066848
0.00659084
0.00650172
0.00641762
0.00633872
0.00626518
0.00619716
0.00613482
0.00607828
0.00602768
0.00598314
0.00594476
0.00591264
0.00588684
0.00586744
0.00585448
0.00584799
0.00584799
0.00585448
0.00586744
0.00588684
0.00591264
0.00594477
0.00598315
0.00602769
0.00607828
0.00613482
0.00619717
0.00626518
0.00633872
0.00641763
0.00650172
0.00659084
0.0066848
0.00678341
0.00688649
0.00699382
0.00710523
0.00722051
0.00733945
0.00746185
0.00770725
0.00712977
0.00702698
0.00692865
0.00683498
0.00674616
0.00666235
0.00658373
0.00651047
0.00644272
0.00638063
0.00632434
0.00627396
0.00622962
0.00619142
0.00615944
0.00613377
0.00611446
0.00610156
0.0060951
0.0060951
0.00610156
0.00611446
0.00613377
0.00615944
0.00619142
0.00622962
0.00627396
0.00632434
0.00638064
0.00644273
0.00651048
0.00658374
0.00666235
0.00674616
0.00683499
0.00692866
0.00702699
0.00712978
0.00723686
0.00734801
0.00746305
0.00758179
0.00770399
0.00794504
0.00727023
0.00717212
0.00707868
0.00699009
0.00690652
0.00682813
0.00675511
0.00668758
0.0066257
0.00656961
0.00651942
0.00647525
0.0064372
0.00640535
0.00637979
0.00636056
0.00634771
0.00634128
0.00634128
0.00634771
0.00636056
0.00637979
0.00640536
0.0064372
0.00647526
0.00651943
0.00656962
0.00662571
0.00668759
0.00675511
0.00682814
0.00690652
0.00699009
0.00707869
0.00717213
0.00727024
0.00737283
0.00747971
0.00759069
0.00770557
0.00782417
0.00794626
0.00818323
0.00732212
0.0072337
0.00715031
0.00707211
0.00699926
0.00693192
0.00687022
0.00681429
0.00676426
0.00672023
0.00668231
0.00665057
0.00662509
0.00660593
0.00659313
0.00658672
0.00658672
0.00659313
0.00660593
0.00662509
0.00665057
0.00668231
0.00672024
0.00676426
0.0068143
0.00687022
0.00693193
0.00699927
0.00707212
0.00715031
0.0072337
0.00732212
0.0074154
0.00751335
0.00761579
0.00772255
0.00783343
0.00794823
0.00806676
0.00818881
0.00842199
0.00747716
0.0073939
0.00731583
0.00724313
0.00717592
0.00711435
0.00705856
0.00700865
0.00696474
0.00692691
0.00689526
0.00686986
0.00685075
0.00683799
0.00683161
0.00683161
0.00683799
0.00685075
0.00686986
0.00689527
0.00692692
0.00696474
0.00700866
0.00705856
0.00711436
0.00717593
0.00724313
0.00731584
0.0073939
0.00747716
0.00756546
0.00765863
0.00775649
0.00785886
0.00796555
0.00807639
0.00819118
0.00830972
0.00843181
0.00866144
0.00741976
0.00735829
0.00730259
0.00725277
0.00720895
0.0071712
0.00713962
0.00711427
0.00709521
0.00708248
0.00707611
0.00707611
0.00708248
0.00709521
0.00711427
0.00713962
0.0071712
0.00720895
0.00725278
0.00730259
0.0073583
0.00741976
0.00748687
0.00755949
0.00763746
0.00772065
0.00780888
0.007902
0.00799982
0.00810218
0.00820888
0.00831975
0.00843459
0.00855322
0.00867541
0.00890174
0.00745303
0.00741534
0.00738381
0.0073585
0.00733947
0.00732677
0.0073204
0.0073204
0.00732677
0.00733948
0.00735851
0.00738381
0.00741535
0.00745304
0.00749681
0.00754656
0.0076022
0.00766361
0.00773066
0.00780323
0.00788117
0.00796432
0.00805255
0.00814567
0.00824351
0.00834592
0.00845269
0.00856365
0.00867861
0.00879739
0.00891976
0.00914302
0.00762801
0.00760273
0.00758372
0.00757102
0.00756467
0.00756467
0.00757102
0.00758372
0.00760273
0.00762801
0.00765951
0.00769717
0.00774091
0.00779063
0.00784624
0.00790762
0.00797466
0.00804723
0.00812517
0.00820835
0.00829661
0.00838979
0.00848772
0.00859023
0.00869713
0.00880825
0.0089234
0.00904239
0.00916501
0.00938542
0.00780907
0.00780907
0.00781542
0.00782811
0.00784711
0.00787238
0.00790387
0.00794152
0.00798525
0.00803497
0.00809058
0.00815198
0.00821904
0.00829164
0.00836964
0.00845289
0.00854124
0.00863453
0.0087326
0.00883527
0.00894237
0.00905371
0.0091691
0.00928837
0.0094113
0.00962908
0.00811708
0.00814858
0.00818624
0.00822999
0.00827974
0.00833538
0.00839683
0.00846395
0.00853663
0.00861472
0.00869809
0.00878659
0.00888004
0.0089783
0.00908119
0.00918854
0.00930015
0.00941586
0.00953547
0.00965877
0.00987412
0.00847529
0.00852509
0.00858081
0.00864233
0.00870956
0.00878235
0.00886059
0.00894412
0.0090328
0.00912647
0.00922497
0.00932814
0.00943579
0.00954775
0.00966383
0.00978384
0.00990758
0.0101207
0.008827
0.00888864
0.008956
0.00902895
0.00910737
0.00919111
0.00928003
0.00937397
0.00947277
0.00957626
0.00968427
0.00979663
0.00991314
0.0100336
0.0101579
0.0103689
0.00907412
0.00913591
0.00920344
0.00927659
0.00935523
0.00943922
0.00952842
0.00962267
0.00972182
0.0098257
0.00993413
0.0100469
0.0101639
0.0102849
0.0104097
0.0106189
0.00932231
0.00938428
0.00945202
0.00952541
0.00960431
0.0096886
0.00977813
0.00987274
0.00997229
0.0100766
0.0101855
0.0102988
0.0104164
0.010538
0.0106634
0.0108708
0.00977555
0.00985476
0.00993938
0.0100293
0.0101243
0.0102243
0.0103291
0.0104385
0.0105524
0.0106706
0.0107928
0.0109189
0.0111248
0.010478
0.0105833
0.0106933
0.0108078
0.0109267
0.0110496
0.0111764
0.011381
0.0110653
0.0111848
0.0113085
0.0114362
0.0116395
0.000251832
0.000243888
0.000240037
0.000240037
0.000243888
0.000251832
0.000264345
0.000282027
0.000305591
0.000336227
0.000375187
0.000423559
0.000482096
0.000551315
0.00063104
0.000720355
0.000817748
0.000921383
0.00102945
0.00114039
0.00125299
0.00136625
0.00147915
0.00159024
0.00169693
0.00179378
0.00186926
0.0019754
0.000432755
0.000419816
0.000413444
0.000413444
0.000419816
0.000432754
0.000452613
0.000479852
0.000515036
0.000558859
0.00061189
0.000674437
0.0007465
0.000827707
0.000917324
0.00101435
0.00111769
0.00122628
0.0013392
0.00145564
0.00157478
0.00169562
0.00181673
0.00193588
0.00204986
0.00215478
0.00224993
0.00257522
0.000687314
0.000670743
0.000662495
0.000662495
0.000670742
0.000687313
0.000712338
0.000745977
0.00078838
0.000839617
0.000899598
0.000968036
0.00104445
0.00112819
0.00121848
0.00131454
0.00141565
0.00152111
0.00163029
0.00174249
0.00185692
0.00197256
0.00208823
0.00220285
0.00231634
0.00243173
0.00255888
0.00295939
0.000987574
0.000969636
0.000960654
0.000960654
0.000969636
0.000987573
0.00101441
0.00105003
0.00109426
0.00114681
0.0012073
0.00127525
0.0013501
0.00143126
0.00151814
0.0016102
0.0017069
0.00180774
0.00191217
0.00201963
0.00212952
0.0022413
0.00235478
0.00247058
0.00259094
0.00272022
0.00286371
0.00325937
0.00130157
0.00128393
0.00127507
0.00127507
0.00128393
0.00130157
0.00132785
0.00136257
0.00140542
0.00145606
0.00151406
0.00157898
0.00165035
0.00172772
0.00181063
0.00189867
0.0019914
0.00208842
0.00218932
0.00229373
0.00240139
0.00251234
0.00262711
0.00274698
0.00287393
0.00300995
0.00315506
0.00353599
0.00161056
0.0015938
0.00158539
0.00158539
0.0015938
0.00161056
0.00163552
0.00166846
0.00170913
0.0017572
0.00181234
0.00187418
0.00194235
0.00201648
0.00209623
0.00218123
0.00227115
0.00236567
0.00246453
0.00256756
0.0026748
0.00278655
0.00290345
0.00302644
0.00315631
0.00329308
0.00343531
0.00380314
0.00190932
0.0018934
0.00188541
0.00188541
0.0018934
0.00190932
0.00193305
0.00196442
0.00200322
0.0020492
0.00210208
0.00216157
0.00222738
0.00229921
0.00237675
0.00245972
0.00254786
0.00264093
0.0027388
0.00284142
0.00294891
0.00306157
0.00317978
0.00330386
0.00343377
0.00356886
0.00370793
0.00406418
0.00219896
0.00218366
0.00217598
0.00217598
0.00218366
0.00219895
0.00222179
0.00225202
0.00228948
0.00233396
0.00238526
0.00244312
0.0025073
0.00257754
0.0026536
0.00273525
0.00282226
0.0029145
0.00301185
0.00311432
0.00322198
0.00333496
0.00345334
0.00357704
0.00370567
0.00383858
0.00397503
0.00432058
0.00248178
0.00246692
0.00245947
0.00245946
0.00246692
0.00248178
0.00250399
0.00253342
0.00256994
0.00261339
0.00266357
0.00272028
0.00278331
0.00285244
0.00292746
0.00300818
0.00309442
0.00318606
0.003283
0.0033852
0.00349265
0.00360532
0.00372307
0.00384565
0.00397264
0.00410352
0.00423781
0.00457328
0.00275955
0.00274499
0.0027377
0.0027377
0.00274499
0.00275954
0.0027813
0.00281015
0.00284599
0.00288867
0.00293802
0.00299387
0.00305603
0.00312432
0.00319853
0.00327852
0.00336411
0.00345518
0.00355162
0.00365333
0.00376023
0.00387215
0.00398888
0.00411011
0.00423547
0.00436457
0.00449704
0.00482295
0.00303326
0.00301894
0.00301177
0.00301177
0.00301894
0.00303325
0.00305466
0.00308306
0.00311836
0.00316043
0.00320913
0.00326428
0.00332573
0.00339331
0.00346684
0.00354616
0.00363112
0.00372157
0.00381739
0.00391843
0.00402454
0.0041355
0.00425107
0.00437096
0.00449483
0.00462236
0.00475326
0.0050701
0.00330348
0.00328936
0.00328229
0.00328229
0.00328936
0.00330348
0.00332459
0.00335262
0.00338747
0.00342903
0.00347716
0.00353172
0.00359255
0.00365949
0.00373237
0.00381105
0.00389536
0.00398515
0.00408025
0.00418051
0.00428572
0.00439566
0.00451008
0.00462869
0.00475122
0.00487737
0.00500689
0.00531513
0.00357055
0.0035566
0.00354962
0.00354962
0.0035566
0.00357055
0.00359141
0.00361911
0.00365357
0.00369468
0.00374231
0.00379632
0.00385658
0.00392292
0.00399519
0.00407323
0.00415687
0.00424596
0.00434031
0.00443973
0.00454402
0.00465295
0.00476627
0.00488373
0.00500505
0.00512998
0.00525827
0.00555839
0.00383471
0.00382091
0.00381401
0.00381401
0.00382091
0.00383471
0.00385534
0.00388275
0.00391686
0.00395756
0.00400472
0.00405824
0.00411795
0.00418372
0.00425539
0.0043328
0.00441578
0.00450415
0.00459774
0.00469633
0.00479974
0.00490771
0.00502002
0.00513641
0.00525666
0.0053805
0.0055077
0.00580016
0.00417752
0.00421783
0.00426457
0.00431762
0.00437682
0.00444205
0.00451314
0.00458993
0.00467226
0.00475993
0.00485278
0.00495058
0.00505314
0.00516023
0.00527162
0.00538706
0.00550634
0.00562922
0.00575546
0.00604068
0.00510567
0.00520274
0.00530452
0.0054108
0.00552135
0.00563595
0.00575437
0.0058764
0.00600179
0.00628021
0.00576947
0.00588332
0.006001
0.00612227
0.00624692
0.00651893
0.00636706
0.00649108
0.00675707
0.0123034
0.0125771
0.0128538
0.00790763
0.00815199
0.00839684
0.00864234
0.00888865
0.00913592
0.0093843
0.00963393
0.00988496
0.0101375
0.0103918
0.0106479
0.010906
0.0111662
0.0114287
0.0116936
0.0119611
0.0122312
0.0125043
0.0127803
0.00711436
0.0073583
0.0076022
0.00784625
0.00809059
0.00833539
0.00858081
0.00882701
0.00907413
0.00932232
0.00957174
0.00982253
0.0100748
0.0103288
0.0105846
0.0108423
0.0111021
0.0113642
0.0116286
0.0118956
0.0121653
0.0124378
0.0127133
0.00705857
0.0073026
0.00754657
0.00779064
0.00803498
0.00827974
0.0085251
0.0087712
0.00901819
0.00926623
0.00951546
0.00976603
0.0100181
0.0102718
0.0105273
0.0107847
0.0110441
0.0113058
0.0115699
0.0118364
0.0121056
0.0123777
0.0126526
0.00700866
0.00725278
0.00749681
0.00774092
0.00798526
0.00823
0.0084753
0.00872132
0.0089682
0.0092161
0.00946518
0.00971557
0.00996742
0.0102209
0.0104761
0.0107332
0.0109924
0.0112537
0.0115174
0.0117836
0.0120524
0.012324
0.0125986
0.00696475
0.00720896
0.00745304
0.00769718
0.00794153
0.00818625
0.00843151
0.00867746
0.00892426
0.00917205
0.00942098
0.00967121
0.00992289
0.0101761
0.0104311
0.010688
0.0109469
0.011208
0.0114714
0.0117372
0.0120057
0.0122769
0.0125511
0.00170913
0.00200323
0.00228948
0.00256995
0.002846
0.00311837
0.00338748
0.00365358
0.00391687
0.00417753
0.00443574
0.00469171
0.00494562
0.00519769
0.0054481
0.00569706
0.00594477
0.00619142
0.00643721
0.00668231
0.00692692
0.00717121
0.00741536
0.00765952
0.00790388
0.00814859
0.00839382
0.00863972
0.00888644
0.00913413
0.00938296
0.00963305
0.00988457
0.0101377
0.0103925
0.0106491
0.0109078
0.0111686
0.0114318
0.0116973
0.0119655
0.0122364
0.0125102
0.00166847
0.00196443
0.00225202
0.00253343
0.00281016
0.00308307
0.00335263
0.00361912
0.00388276
0.00414375
0.00440227
0.00465851
0.00491268
0.00516498
0.00541561
0.00566476
0.00591264
0.00615945
0.00640536
0.00665058
0.00689527
0.00713963
0.00738382
0.00762802
0.00787239
0.0081171
0.0083623
0.00860815
0.00885481
0.00910243
0.00935116
0.00960115
0.00985255
0.0101055
0.0103602
0.0106166
0.0108751
0.0111358
0.0113987
0.011664
0.0119319
0.0122026
0.0124761
0.00163552
0.00193305
0.00222179
0.00250399
0.0027813
0.00305466
0.0033246
0.00359142
0.00385535
0.0041166
0.00437537
0.00463184
0.00488622
0.00513871
0.00538951
0.00563883
0.00588685
0.00613377
0.00637979
0.0066251
0.00686987
0.00711428
0.00735852
0.00760274
0.00784712
0.00809182
0.008337
0.00858282
0.00882944
0.009077
0.00932566
0.00957556
0.00982686
0.0100797
0.0103342
0.0105906
0.0108489
0.0111094
0.0113721
0.0116373
0.011905
0.0121755
0.0124488
0.000251832
0.000432755
0.000687314
0.000987575
0.00130157
0.00161056
0.00190932
0.00219896
0.00248179
0.00275955
0.00303326
0.00330348
0.00357056
0.00383472
0.00409617
0.00435513
0.00461177
0.00486631
0.00511895
0.00536988
0.00561932
0.00586744
0.00611446
0.00636057
0.00660594
0.00685076
0.00709522
0.00733949
0.00758373
0.00782812
0.00807282
0.00831799
0.00856379
0.00881037
0.00905789
0.00930649
0.00955633
0.00980756
0.0100603
0.0103148
0.010571
0.0108292
0.0110896
0.0113522
0.0116172
0.0118848
0.0121551
0.0124283
0.000243888
0.000419817
0.000670744
0.000969638
0.00128393
0.00159381
0.0018934
0.00218366
0.00246692
0.00274499
0.00301895
0.00328937
0.00355661
0.00382092
0.00408252
0.0043416
0.00459836
0.00485301
0.00510575
0.00535677
0.00560628
0.00585448
0.00610156
0.00634772
0.00659314
0.006838
0.00708249
0.00732678
0.00757104
0.00781543
0.00806013
0.00830529
0.00855108
0.00879763
0.00904512
0.00929369
0.00954349
0.00979467
0.0100474
0.0103017
0.0105579
0.0108161
0.0110764
0.0113389
0.0116038
0.0118713
0.0121415
0.0124146
0.000240038
0.000413445
0.000662496
0.000960656
0.00127507
0.00158539
0.00188541
0.00217599
0.00245947
0.0027377
0.00301177
0.00328229
0.00354962
0.00381401
0.00407568
0.00433482
0.00459165
0.00484635
0.00509913
0.0053502
0.00559976
0.00584799
0.00609511
0.00634129
0.00658673
0.00683162
0.00707612
0.00732042
0.00756468
0.00780908
0.00805378
0.00829894
0.00854471
0.00879126
0.00903874
0.00928729
0.00953707
0.00978822
0.0100409
0.0102952
0.0105514
0.0108095
0.0110698
0.0113322
0.0115971
0.0118646
0.0121347
0.0124077
0.000240038
0.000413445
0.000662496
0.000960656
0.00127507
0.00158539
0.00188541
0.00217599
0.00245947
0.0027377
0.00301177
0.00328229
0.00354962
0.00381401
0.00407568
0.00433482
0.00459165
0.00484635
0.00509913
0.0053502
0.00559976
0.00584799
0.00609511
0.00634129
0.00658673
0.00683162
0.00707612
0.00732042
0.00756468
0.00780908
0.00805378
0.00829894
0.00854471
0.00879126
0.00903874
0.00928729
0.00953707
0.00978822
0.0100409
0.0102952
0.0105514
0.0108095
0.0110698
0.0113322
0.0115971
0.0118646
0.0121347
0.0124077
0.000243888
0.000419816
0.000670743
0.000969637
0.00128393
0.0015938
0.0018934
0.00218366
0.00246692
0.00274499
0.00301894
0.00328937
0.00355661
0.00382092
0.00408252
0.0043416
0.00459836
0.00485301
0.00510575
0.00535677
0.00560628
0.00585448
0.00610156
0.00634772
0.00659314
0.006838
0.00708249
0.00732678
0.00757104
0.00781543
0.00806013
0.00830529
0.00855108
0.00879764
0.00904512
0.00929369
0.00954349
0.00979467
0.0100474
0.0103017
0.0105579
0.0108161
0.0110764
0.0113389
0.0116038
0.0118713
0.0121415
0.0124146
0.000251832
0.000432755
0.000687314
0.000987574
0.00130157
0.00161056
0.00190932
0.00219896
0.00248179
0.00275955
0.00303326
0.00330348
0.00357055
0.00383472
0.00409617
0.00435512
0.00461177
0.00486631
0.00511895
0.00536988
0.00561932
0.00586744
0.00611446
0.00636057
0.00660594
0.00685076
0.00709522
0.00733949
0.00758373
0.00782812
0.00807282
0.00831799
0.00856379
0.00881037
0.00905789
0.00930649
0.00955633
0.00980756
0.0100603
0.0103148
0.010571
0.0108292
0.0110896
0.0113522
0.0116172
0.0118848
0.0121551
0.0124283
0.000264345
0.000452614
0.000712339
0.00101441
0.00132786
0.00163552
0.00193305
0.00222179
0.00250399
0.0027813
0.00305466
0.0033246
0.00359142
0.00385535
0.0041166
0.00437537
0.00463184
0.00488622
0.00513871
0.00538951
0.00563883
0.00588685
0.00613377
0.0063798
0.0066251
0.00686987
0.00711428
0.00735852
0.00760274
0.00784712
0.00809182
0.008337
0.00858283
0.00882944
0.009077
0.00932566
0.00957556
0.00982686
0.0100797
0.0103342
0.0105906
0.0108489
0.0111094
0.0113721
0.0116373
0.011905
0.0121755
0.0124488
0.000282027
0.000479852
0.000745978
0.00105003
0.00136257
0.00166846
0.00196442
0.00225202
0.00253343
0.00281016
0.00308307
0.00335263
0.00361912
0.00388276
0.00414375
0.00440226
0.00465851
0.00491268
0.00516498
0.00541561
0.00566476
0.00591265
0.00615945
0.00640536
0.00665058
0.00689528
0.00713963
0.00738382
0.00762802
0.00787239
0.0081171
0.0083623
0.00860815
0.00885481
0.00910243
0.00935116
0.00960115
0.00985255
0.0101055
0.0103602
0.0106166
0.0108751
0.0111358
0.0113987
0.011664
0.0119319
0.0122026
0.0124761
0.000305591
0.000515037
0.000788381
0.00109426
0.00140543
0.00170913
0.00200322
0.00228948
0.00256995
0.00284599
0.00311837
0.00338748
0.00365358
0.00391687
0.00417753
0.00443574
0.00469171
0.00494562
0.00519769
0.0054481
0.00569706
0.00594477
0.00619143
0.00643721
0.00668232
0.00692693
0.00717121
0.00741536
0.00765953
0.00790388
0.0081486
0.00839382
0.00863972
0.00888644
0.00913413
0.00938296
0.00963305
0.00988458
0.0101377
0.0103925
0.0106491
0.0109078
0.0111686
0.0114318
0.0116973
0.0119655
0.0122364
0.0125102
0.000336228
0.00055886
0.000839619
0.00114681
0.00145606
0.0017572
0.0020492
0.00233397
0.00261339
0.00288867
0.00316044
0.00342904
0.00369469
0.00395756
0.00421784
0.00447571
0.00473135
0.00498496
0.00523674
0.00548691
0.00573564
0.00598315
0.00622963
0.00647526
0.00672024
0.00696475
0.00720896
0.00745305
0.00769718
0.00794153
0.00818626
0.00843151
0.00867746
0.00892426
0.00917205
0.00942098
0.00967121
0.00992289
0.0101761
0.0104311
0.010688
0.0109469
0.011208
0.0114714
0.0117372
0.0120057
0.0122769
0.0125511
0.000375187
0.000611891
0.000899599
0.0012073
0.00151406
0.00181234
0.00210208
0.00238526
0.00266357
0.00293802
0.00320913
0.00347717
0.00374232
0.00400473
0.00426458
0.00452205
0.00477732
0.00503059
0.00528206
0.00553193
0.00578041
0.00602769
0.00627397
0.00651943
0.00676427
0.00700866
0.00725279
0.00749682
0.00774092
0.00798526
0.00823
0.0084753
0.00872132
0.0089682
0.0092161
0.00946518
0.00971557
0.00996742
0.0102209
0.0104761
0.0107332
0.0109924