/*--------------------------------*- C++ -*----------------------------------*\
  =========                 |
  \\      /  F ield         | OpenFOAM: The Open Source CFD Toolbox
   \\    /   O peration     | Website:  https://openfoam.org
    \\  /    A nd           | Version:  7
     \\/     M anipulation  |
\*---------------------------------------------------------------------------*/
FoamFile
{
    version     2.0;
    format      ascii;
    class       volVectorField;
    location    "244000";
    object      U;
}
// * * * * * * * * * * * * * * * * * * * * * * * * * * * * * * * * * * * * * //

dimensions      [0 1 -1 0 0 0 0];

internalField   nonuniform List<vector> 
4814
(
(-1.59845e-19 1.71767e-18 -0.0101191)
(-3.63465e-21 5.68713e-19 -0.0101314)
(-1.01394e-18 1.16443e-18 -0.0101425)
(-3.50815e-19 1.75724e-18 -0.0101524)
(-2.97508e-19 1.18446e-19 -0.00974782)
(-1.1274e-18 -7.85907e-21 -0.00977362)
(-7.30811e-19 -1.91961e-19 -0.0097988)
(-8.59503e-19 3.68083e-19 -0.00982326)
(-9.79055e-19 -4.99877e-19 -0.00984693)
(-2.35425e-18 2.66018e-19 -0.00986975)
(-6.47044e-19 8.57421e-19 -0.00989169)
(-1.5325e-18 1.16162e-18 -0.00991269)
(-4.7635e-19 2.11872e-18 -0.00993273)
(-1.24876e-18 1.98998e-18 -0.00995176)
(-5.73248e-19 9.04544e-19 -0.00996975)
(-1.13369e-18 1.36629e-18 -0.00998667)
(7.08151e-19 1.61793e-18 -0.0100025)
(-6.41075e-19 9.12885e-19 -0.0100172)
(-4.77146e-20 1.75087e-18 -0.0100307)
(1.41606e-19 6.19626e-19 -0.0100431)
(-9.23111e-19 1.1883e-18 -0.0100542)
(-2.19843e-19 1.77051e-18 -0.0100642)
(9.57771e-21 1.67654e-18 -0.0100729)
(8.17207e-19 8.25753e-19 -0.0100805)
(1.73511e-19 6.21346e-19 -0.0100868)
(8.35857e-20 5.64076e-19 -0.0100918)
(6.28542e-19 2.92165e-19 -0.0100956)
(-2.08905e-20 -1.06184e-19 -0.0100981)
(1.0268e-18 1.57653e-19 -0.0100994)
(2.67258e-19 -6.43047e-19 -0.0100994)
(3.9009e-19 -4.72784e-19 -0.0100981)
(2.25429e-19 -7.82284e-19 -0.0100956)
(4.10432e-19 -5.51515e-19 -0.0100918)
(-2.47628e-20 -8.74635e-19 -0.0100868)
(-5.79749e-19 -8.67145e-19 -0.0100805)
(-8.56397e-19 -6.65021e-20 -0.0100729)
(-6.61569e-19 3.36801e-20 -0.0100642)
(2.03939e-20 -1.40121e-19 -0.0100542)
(-1.88968e-19 2.36023e-19 -0.00965571)
(-1.1135e-18 3.06724e-20 -0.0096817)
(-5.72763e-19 -9.7527e-20 -0.00970704)
(-8.82951e-19 3.50998e-19 -0.00973167)
(-9.02591e-19 -4.36219e-19 -0.00975549)
(-2.01768e-18 4.54996e-19 -0.00977846)
(-6.17538e-19 8.35371e-19 -0.00980054)
(-1.60056e-18 1.10291e-18 -0.00982168)
(-3.88036e-19 2.17209e-18 -0.00984184)
(-1.48138e-18 1.94436e-18 -0.00986099)
(-4.24383e-19 9.52385e-19 -0.00987909)
(-1.2021e-18 1.29754e-18 -0.00989611)
(4.62769e-19 1.52003e-18 -0.00991202)
(-6.34101e-19 9.26612e-19 -0.0099268)
(1.37978e-19 1.80071e-18 -0.00994041)
(1.81071e-19 6.42979e-19 -0.00995285)
(-7.59978e-19 1.23541e-18 -0.00996409)
(-1.79329e-19 1.77238e-18 -0.00997412)
(4.68068e-20 1.69088e-18 -0.00998292)
(5.76599e-19 7.89808e-19 -0.00999049)
(3.62229e-20 6.23504e-19 -0.00999681)
(1.59047e-20 5.43783e-19 -0.0100019)
(5.42495e-19 2.89737e-19 -0.0100057)
(2.21626e-20 -1.24806e-19 -0.0100082)
(7.57864e-19 1.4725e-19 -0.0100095)
(2.71935e-19 -6.42235e-19 -0.0100095)
(5.58443e-19 -4.84746e-19 -0.0100082)
(1.64515e-19 -7.96439e-19 -0.0100057)
(3.97599e-19 -5.47303e-19 -0.0100019)
(-4.1764e-20 -8.50382e-19 -0.00999681)
(-5.55805e-19 -8.60971e-19 -0.00999049)
(-9.66567e-19 -3.7761e-20 -0.00998292)
(-7.17498e-19 2.37192e-20 -0.00997412)
(-6.91383e-20 -1.08575e-19 -0.00996409)
(-8.64603e-19 -4.05632e-19 -0.00995285)
(-6.96634e-19 1.68904e-19 -0.00994041)
(-7.58414e-20 6.87331e-19 -0.00992679)
(2.68269e-19 3.91508e-19 -0.00991202)
(4.70106e-19 3.00659e-19 -0.00989611)
(-4.45928e-19 -1.1587e-19 -0.00987909)
(-3.12707e-19 2.41644e-19 -0.00986099)
(9.52868e-21 4.27971e-19 -0.00956157)
(-1.17275e-18 8.13784e-21 -0.00958774)
(-5.00268e-19 -6.95443e-20 -0.00961327)
(-1.07626e-18 2.1028e-19 -0.00963806)
(-8.76176e-19 -4.55358e-19 -0.00966205)
(-1.42374e-18 8.19891e-19 -0.00968517)
(-7.38983e-19 7.52378e-19 -0.00970739)
(-1.63921e-18 1.05207e-18 -0.00972867)
(-4.58474e-19 2.14353e-18 -0.00974897)
(-1.6495e-18 1.92874e-18 -0.00976824)
(-2.64658e-19 1.00487e-18 -0.00978646)
(-1.40085e-18 1.18349e-18 -0.00980359)
(5.45296e-19 1.5461e-18 -0.0098196)
(-6.20034e-19 9.4336e-19 -0.00983446)
(7.48478e-20 1.77292e-18 -0.00984816)
(8.38638e-20 6.22442e-19 -0.00986068)
(-6.8368e-19 1.25529e-18 -0.00987199)
(-2.29423e-19 1.75143e-18 -0.00988208)
(3.00743e-20 1.70173e-18 -0.00989094)
(4.38356e-19 7.76335e-19 -0.00989855)
(2.11219e-20 6.40296e-19 -0.00990492)
(3.03709e-20 5.30715e-19 -0.00991002)
(5.60142e-19 2.96045e-19 -0.00991385)
(1.51281e-20 -1.32554e-19 -0.00991641)
(6.06828e-19 1.40892e-19 -0.00991769)
(1.56359e-19 -6.56831e-19 -0.00991769)
(7.13697e-19 -4.9486e-19 -0.00991641)
(1.14868e-19 -7.94685e-19 -0.00991385)
(2.39764e-19 -5.25873e-19 -0.00991002)
(1.83045e-20 -8.47109e-19 -0.00990492)
(-5.05091e-19 -8.57625e-19 -0.00989855)
(-9.69518e-19 -3.08819e-20 -0.00989094)
(-7.19443e-19 2.80977e-23 -0.00988208)
(-1.82658e-19 -6.74227e-20 -0.00987199)
(-8.03122e-19 -4.22155e-19 -0.00986068)
(-7.39304e-19 1.70985e-19 -0.00984816)
(1.8139e-20 6.57224e-19 -0.00983446)
(-9.13085e-20 5.35101e-19 -0.0098196)
(3.78668e-19 3.63347e-19 -0.00980359)
(-4.30067e-19 -1.28963e-19 -0.00978646)
(-4.62845e-19 3.41894e-19 -0.00976824)
(9.64394e-20 1.27225e-18 -0.00974896)
(-5.46114e-20 -7.28112e-19 -0.00972867)
(-1.47212e-19 -5.60658e-19 -0.00970739)
(4.59118e-20 4.6163e-19 -0.0094653)
(-1.10555e-18 1.12326e-19 -0.00949167)
(-5.16821e-19 -1.06169e-19 -0.00951738)
(-1.17522e-18 1.42938e-19 -0.00954234)
(-8.02872e-19 -4.74056e-19 -0.0095665)
(-1.09735e-18 1.01162e-18 -0.00958978)
(-7.64057e-19 7.54007e-19 -0.00961215)
(-1.58297e-18 1.05893e-18 -0.00963357)
(-8.4941e-19 1.94185e-18 -0.009654)
(-1.66778e-18 1.97981e-18 -0.0096734)
(-2.29585e-19 1.00219e-18 -0.00969174)
(-1.51785e-18 1.09564e-18 -0.00970898)
(6.31542e-19 1.56211e-18 -0.0097251)
(-6.31567e-19 9.64789e-19 -0.00974006)
(-4.82101e-20 1.72398e-18 -0.00975385)
(-1.42719e-20 5.91508e-19 -0.00976645)
(-7.16514e-19 1.24509e-18 -0.00977783)
(-3.13665e-19 1.72626e-18 -0.00978799)
(-5.31177e-20 1.69963e-18 -0.0097969)
(4.57971e-19 7.85535e-19 -0.00980457)
(1.15164e-20 6.51355e-19 -0.00981097)
(1.37521e-19 5.26428e-19 -0.0098161)
(5.22993e-19 3.00093e-19 -0.00981996)
(-7.41717e-21 -1.41355e-19 -0.00982253)
(6.4999e-19 1.43849e-19 -0.00982382)
(3.83486e-20 -6.75809e-19 -0.00982382)
(8.02731e-19 -5.07967e-19 -0.00982253)
(1.11523e-19 -7.90188e-19 -0.00981996)
(2.23614e-19 -5.26426e-19 -0.0098161)
(-8.39256e-21 -8.34228e-19 -0.00981097)
(-4.56773e-19 -8.49582e-19 -0.00980457)
(-8.85823e-19 -3.66207e-20 -0.0097969)
(-7.93316e-19 1.66386e-21 -0.00978799)
(-2.28805e-19 -5.23545e-20 -0.00977783)
(-6.46208e-19 -4.74803e-19 -0.00976645)
(-7.90443e-19 1.70092e-19 -0.00975385)
(2.86241e-19 5.81675e-19 -0.00974006)
(-3.44272e-19 6.48531e-19 -0.0097251)
(3.45402e-19 3.77499e-19 -0.00970898)
(-3.07551e-19 -1.91807e-19 -0.00969174)
(-5.69686e-19 4.19693e-19 -0.0096734)
(4.07243e-19 1.14409e-18 -0.009654)
(3.37984e-20 -7.98846e-19 -0.00963357)
(-8.25933e-20 -5.82151e-19 -0.00961215)
(-1.7468e-20 3.97355e-19 -0.00936678)
(-1.02512e-18 2.24369e-19 -0.00939335)
(-5.32452e-19 -1.29086e-19 -0.00941925)
(-1.13455e-18 1.81649e-19 -0.0094444)
(-6.63883e-19 -4.54472e-19 -0.00946872)
(-1.10524e-18 9.71559e-19 -0.00949217)
(-6.36144e-19 8.54124e-19 -0.00951469)
(-1.54387e-18 1.08516e-18 -0.00953626)
(-1.13598e-18 1.80096e-18 -0.00955683)
(-1.62771e-18 2.03973e-18 -0.00957637)
(-2.32665e-19 9.83984e-19 -0.00959483)
(-1.37825e-18 1.1199e-18 -0.00961219)
(4.58036e-19 1.47032e-18 -0.00962842)
(-5.27824e-19 1.03126e-18 -0.00964348)
(-6.69389e-20 1.71463e-18 -0.00965736)
(-1.1191e-19 5.60383e-19 -0.00967004)
(-8.55281e-19 1.20538e-18 -0.0096815)
(-3.24727e-19 1.71443e-18 -0.00969172)
(-5.15503e-20 1.70538e-18 -0.0097007)
(5.98241e-19 8.12926e-19 -0.00970841)
(-3.9948e-20 6.55864e-19 -0.00971486)
(1.72974e-19 5.1374e-19 -0.00972002)
(4.76539e-19 3.09814e-19 -0.00972391)
(-8.45091e-20 -1.59392e-19 -0.0097265)
(7.31676e-19 1.4718e-19 -0.0097278)
(-1.03718e-19 -6.94603e-19 -0.0097278)
(7.69973e-19 -5.19502e-19 -0.0097265)
(1.36332e-19 -7.87946e-19 -0.00972391)
(1.63014e-19 -5.11516e-19 -0.00972002)
(-1.15707e-19 -8.09417e-19 -0.00971486)
(-4.62605e-19 -8.43264e-19 -0.00970841)
(-8.07817e-19 -3.66557e-20 -0.0097007)
(-8.23511e-19 -8.24913e-21 -0.00969172)
(-2.14163e-19 -6.33638e-20 -0.0096815)
(-4.62331e-19 -5.29764e-19 -0.00967004)
(-1.01185e-18 2.21779e-19 -0.00965736)
(3.98946e-19 5.6393e-19 -0.00964348)
(-3.17518e-19 6.6217e-19 -0.00962842)
(3.13031e-19 3.82935e-19 -0.00961219)
(-2.25357e-19 -2.31018e-19 -0.00959483)
(-5.90432e-19 4.40138e-19 -0.00957637)
(7.52536e-19 9.94379e-19 -0.00955683)
(6.25842e-20 -8.12131e-19 -0.00953626)
(-1.39183e-19 -5.22943e-19 -0.00951469)
(2.04171e-21 4.13874e-19 -0.00926589)
(-1.14033e-18 1.67895e-19 -0.00929266)
(-5.73645e-19 -1.7804e-19 -0.00931876)
(-1.07373e-18 2.29056e-19 -0.0093441)
(-5.22433e-19 -4.21554e-19 -0.0093686)
(-1.22691e-18 8.53159e-19 -0.00939222)
(-5.832e-19 8.977e-19 -0.0094149)
(-1.64171e-18 1.03725e-18 -0.00943662)
(-1.05798e-18 1.86136e-18 -0.00945734)
(-1.61217e-18 2.08733e-18 -0.00947702)
(-1.18671e-19 1.00951e-18 -0.00949561)
(-1.18692e-18 1.17621e-18 -0.00951309)
(3.04748e-19 1.38797e-18 -0.00952943)
(-4.32295e-19 1.08093e-18 -0.0095446)
(2.83378e-20 1.75192e-18 -0.00955857)
(-1.20001e-19 5.61694e-19 -0.00957134)
(-9.30533e-19 1.17657e-18 -0.00958288)
(-3.55466e-19 1.6887e-18 -0.00959317)
(2.38144e-20 1.7235e-18 -0.00960221)
(6.37395e-19 8.27936e-19 -0.00960998)
(-1.23415e-19 6.63566e-19 -0.00961646)
(1.28237e-19 4.89129e-19 -0.00962167)
(5.14498e-19 3.26289e-19 -0.00962557)
(-1.83723e-19 -1.82663e-19 -0.00962819)
(7.44683e-19 1.54126e-19 -0.00962949)
(-2.79692e-19 -7.05974e-19 -0.00962949)
(6.67475e-19 -5.37807e-19 -0.00962818)
(9.58706e-20 -7.79282e-19 -0.00962557)
(1.49119e-19 -5.0087e-19 -0.00962167)
(6.63223e-20 -8.27105e-19 -0.00961646)
(-4.7699e-19 -8.36316e-19 -0.00960998)
(-7.11762e-19 -4.202e-20 -0.00960221)
(-8.11423e-19 -2.39872e-20 -0.00959317)
(-1.57158e-19 -9.23482e-20 -0.00958288)
(-2.90074e-19 -5.71565e-19 -0.00957134)
(-1.13588e-18 2.47795e-19 -0.00955857)
(2.55143e-19 6.22515e-19 -0.0095446)
(-2.12912e-19 6.43869e-19 -0.00952943)
(3.73058e-19 3.50051e-19 -0.00951309)
(-1.74491e-19 -2.592e-19 -0.00949561)
(-4.86706e-19 3.92287e-19 -0.00947702)
(7.45015e-19 1.04247e-18 -0.00945734)
(2.52521e-19 -9.10555e-19 -0.00943662)
(-9.24535e-20 -5.30571e-19 -0.0094149)
(2.46626e-20 4.40338e-19 -0.0091625)
(-1.24564e-18 1.29228e-19 -0.00918949)
(-5.45936e-19 -1.80345e-19 -0.0092158)
(-1.02028e-18 2.64918e-19 -0.00924132)
(-5.24145e-19 -4.90828e-19 -0.00926601)
(-1.1831e-18 8.51849e-19 -0.0092898)
(-6.15479e-19 8.89269e-19 -0.00931266)
(-1.73787e-18 9.80833e-19 -0.00933453)
(-9.10782e-19 1.95297e-18 -0.0093554)
(-1.5751e-18 2.14598e-18 -0.00937522)
(1.21421e-19 1.09182e-18 -0.00939395)
(-1.15224e-18 1.17056e-18 -0.00941156)
(4.37522e-19 1.42424e-18 -0.00942801)
(-4.99895e-19 1.06579e-18 -0.00944328)
(4.13921e-20 1.7586e-18 -0.00945736)
(-1.76176e-19 5.5423e-19 -0.00947022)
(-9.30401e-19 1.17465e-18 -0.00948184)
(-5.55546e-19 1.61929e-18 -0.0094922)
(2.18448e-20 1.72224e-18 -0.00950131)
(5.34174e-19 8.23471e-19 -0.00950913)
(-1.60841e-19 6.75441e-19 -0.00951566)
(1.73138e-19 4.65968e-19 -0.0095209)
(6.33361e-19 3.5155e-19 -0.00952484)
(-2.54734e-19 -2.01162e-19 -0.00952747)
(6.7594e-19 1.60996e-19 -0.00952878)
(-3.56745e-19 -7.18797e-19 -0.00952878)
(5.46893e-19 -5.57257e-19 -0.00952747)
(-6.74692e-20 -7.68917e-19 -0.00952484)
(2.72509e-19 -5.19261e-19 -0.0095209)
(2.49385e-19 -8.40458e-19 -0.00951566)
(-5.29882e-19 -8.15032e-19 -0.00950913)
(-6.15026e-19 -4.63638e-20 -0.00950131)
(-7.47113e-19 -5.4991e-20 -0.0094922)
(-1.34068e-19 -1.18253e-19 -0.00948184)
(-1.4118e-19 -6.03646e-19 -0.00947022)
(-1.03867e-18 2.12942e-19 -0.00945736)
(2.01007e-19 6.49189e-19 -0.00944328)
(-1.30189e-19 6.1977e-19 -0.00942801)
(4.56222e-19 3.06916e-19 -0.00941155)
(-1.92659e-19 -2.54071e-19 -0.00939395)
(-4.47458e-19 3.89924e-19 -0.00937522)
(5.448e-19 1.19457e-18 -0.0093554)
(4.06288e-19 -1.0052e-18 -0.00933453)
(-9.04861e-20 -4.98211e-19 -0.00931265)
(-5.99916e-19 -1.46564e-18 -0.0092898)
(-3.34949e-20 3.92441e-19 -0.00905649)
(-1.18528e-18 2.34765e-19 -0.0090837)
(-3.42711e-19 -4.14442e-20 -0.00911021)
(-1.02426e-18 2.68916e-19 -0.00913594)
(-5.52795e-19 -5.85967e-19 -0.00916081)
(-1.12751e-18 8.51975e-19 -0.00918478)
(-6.70549e-19 8.74122e-19 -0.00920781)
(-1.68962e-18 1.00355e-18 -0.00922985)
(-9.87055e-19 1.9167e-18 -0.00925088)
(-1.52785e-18 2.20652e-18 -0.00927084)
(3.31252e-19 1.16268e-18 -0.00928971)
(-1.22756e-18 1.11392e-18 -0.00930745)
(6.26078e-19 1.48471e-18 -0.00932402)
(-6.89614e-19 1.0201e-18 -0.00933941)
(-5.99454e-20 1.72806e-18 -0.00935359)
(-2.54288e-19 5.34524e-19 -0.00936654)
(-9.69804e-19 1.16517e-18 -0.00937824)
(-7.10736e-19 1.56262e-18 -0.00938869)
(-2.64417e-20 1.70721e-18 -0.00939785)
(4.91088e-19 8.24698e-19 -0.00940573)
(-5.51123e-20 6.98904e-19 -0.00941231)
(1.33201e-19 4.2813e-19 -0.00941759)
(7.54958e-19 3.81797e-19 -0.00942156)
(-2.28415e-19 -2.08165e-19 -0.0094242)
(5.9161e-19 1.67871e-19 -0.00942553)
(-3.07364e-19 -7.30944e-19 -0.00942553)
(3.4654e-19 -5.67728e-19 -0.0094242)
(-1.74674e-19 -7.72149e-19 -0.00942156)
(3.70894e-19 -5.43144e-19 -0.00941759)
(2.46737e-19 -8.17735e-19 -0.00941231)
(-6.28725e-19 -7.86466e-19 -0.00940573)
(-5.22074e-19 -5.83055e-20 -0.00939785)
(-6.24926e-19 -9.3398e-20 -0.00938869)
(-1.55984e-19 -1.33437e-19 -0.00937824)
(-1.72098e-19 -5.90034e-19 -0.00936654)
(-9.99356e-19 1.9675e-19 -0.00935359)
(2.65532e-19 6.32281e-19 -0.00933941)
(-1.28755e-20 5.86007e-19 -0.00932402)
(5.79359e-19 2.53358e-19 -0.00930745)
(-3.36336e-19 -1.86781e-19 -0.00928971)
(-5.46893e-19 4.65171e-19 -0.00927084)
(5.01799e-19 1.2562e-18 -0.00925088)
(3.71421e-19 -9.89551e-19 -0.00922985)
(-1.73523e-19 -4.04082e-19 -0.00920781)
(-6.65192e-19 -1.46769e-18 -0.00918478)
(-1.20762e-19 3.13872e-19 -0.00894769)
(-1.05095e-18 3.86742e-19 -0.00897513)
(-8.52138e-20 1.54863e-19 -0.00900186)
(-1.11375e-18 2.20849e-19 -0.00902779)
(-4.3772e-19 -5.79749e-19 -0.00905286)
(-1.28161e-18 7.11059e-19 -0.00907702)
(-8.05645e-19 7.99411e-19 -0.00910022)
(-1.70191e-18 9.97633e-19 -0.00912243)
(-1.20141e-18 1.80769e-18 -0.00914362)
(-1.54431e-18 2.21805e-18 -0.00916374)
(5.17499e-19 1.22585e-18 -0.00918275)
(-1.16951e-18 1.1171e-18 -0.00920062)
(4.92432e-19 1.41923e-18 -0.00921732)
(-7.30346e-19 1.03762e-18 -0.00923282)
(-2.9107e-20 1.73231e-18 -0.00924711)
(-2.94589e-19 5.26236e-19 -0.00926016)
(-8.99305e-19 1.18762e-18 -0.00927195)
(-8.16168e-19 1.51419e-18 -0.00928247)
(5.82348e-21 1.7036e-18 -0.00929171)
(5.81414e-19 8.40592e-19 -0.00929964)
(2.12635e-20 7.26041e-19 -0.00930628)
(1.91648e-20 3.83995e-19 -0.00931159)
(7.71035e-19 3.94398e-19 -0.00931559)
(-1.14414e-19 -2.06134e-19 -0.00931825)
(5.32196e-19 1.74438e-19 -0.00931959)
(-1.51653e-19 -7.40363e-19 -0.00931959)
(2.35332e-19 -5.78914e-19 -0.00931825)
(-1.48356e-19 -7.96961e-19 -0.00931559)
(3.74857e-19 -5.54818e-19 -0.00931159)
(2.13555e-19 -7.84702e-19 -0.00930627)
(-6.0086e-19 -7.84361e-19 -0.00929964)
(-4.98427e-19 -6.23479e-20 -0.00929171)
(-5.69968e-19 -1.16313e-19 -0.00928247)
(-1.50957e-19 -1.45297e-19 -0.00927195)
(-2.80884e-19 -5.48988e-19 -0.00926016)
(-1.1081e-18 2.21548e-19 -0.00924711)
(1.21245e-19 6.86777e-19 -0.00923282)
(8.04335e-20 5.54972e-19 -0.00921732)
(7.08717e-19 2.10603e-19 -0.00920062)
(-5.16957e-19 -8.70343e-20 -0.00918275)
(-6.25732e-19 5.18715e-19 -0.00916374)
(6.57128e-19 1.20693e-18 -0.00914362)
(3.52136e-19 -9.80304e-19 -0.00912243)
(-8.87998e-20 -4.20343e-19 -0.00910022)
(-5.83203e-19 -1.56764e-18 -0.00907702)
(-2.49378e-19 1.98224e-19 -0.00883596)
(-1.00682e-18 4.45036e-19 -0.00886363)
(5.33487e-20 2.62482e-19 -0.00889058)
(-1.11609e-18 2.46749e-19 -0.00891673)
(-3.56329e-19 -5.93061e-19 -0.008942)
(-1.4395e-18 5.81276e-19 -0.00896635)
(-9.57939e-19 7.07744e-19 -0.00898973)
(-1.82127e-18 9.25399e-19 -0.00901212)
(-1.27842e-18 1.77194e-18 -0.00903347)
(-1.59801e-18 2.19563e-18 -0.00905375)
(5.70729e-19 1.2128e-18 -0.00907291)
(-9.9556e-19 1.19253e-18 -0.00909092)
(2.30139e-19 1.30276e-18 -0.00910775)
(-4.54945e-19 1.15347e-18 -0.00912337)
(3.2354e-20 1.75624e-18 -0.00913777)
(-3.72207e-19 5.03482e-19 -0.00915092)
(-6.11997e-19 1.26992e-18 -0.0091628)
(-8.23631e-19 1.49359e-18 -0.0091734)
(1.21887e-19 1.70682e-18 -0.00918271)
(6.60394e-19 8.57321e-19 -0.00919071)
(-2.64454e-20 7.42155e-19 -0.00919739)
(3.71258e-20 3.54096e-19 -0.00920274)
(8.03254e-19 4.0229e-19 -0.00920677)
(-2.64938e-20 -2.06563e-19 -0.00920946)
(5.12294e-19 1.80705e-19 -0.0092108)
(-6.95514e-20 -7.50254e-19 -0.0092108)
(2.02861e-19 -5.89649e-19 -0.00920946)
(-2.22068e-19 -8.10842e-19 -0.00920677)
(2.82107e-19 -5.53305e-19 -0.00920274)
(2.21175e-19 -7.61841e-19 -0.00919739)
(-5.79916e-19 -7.79855e-19 -0.00919071)
(-4.30805e-19 -7.10522e-20 -0.00918271)
(-6.28892e-19 -1.11699e-19 -0.0091734)
(-2.26656e-19 -1.35107e-19 -0.0091628)
(-3.8396e-19 -5.05405e-19 -0.00915092)
(-1.24575e-18 2.6474e-19 -0.00913777)
(-1.68602e-19 7.8571e-19 -0.00912337)
(2.79581e-20 5.71367e-19 -0.00910775)
(6.01757e-19 2.81111e-19 -0.00909092)
(-4.89866e-19 -8.55077e-20 -0.00907291)
(-6.29899e-19 5.18794e-19 -0.00905375)
(7.22231e-19 1.20342e-18 -0.00903347)
(5.33965e-19 -1.09132e-18 -0.00901212)
(4.04694e-20 -4.68676e-19 -0.00898973)
(-5.15071e-19 -1.64932e-18 -0.00896635)
(-4.20838e-19 5.43214e-20 -0.00872113)
(-1.03858e-18 4.21903e-19 -0.00874904)
(1.73563e-19 3.47933e-19 -0.00877622)
(-9.82455e-19 3.85042e-19 -0.00880258)
(-3.53031e-19 -6.58233e-19 -0.00882806)
(-1.49019e-18 5.27583e-19 -0.0088526)
(-9.94397e-19 6.91879e-19 -0.00887618)
(-1.95588e-18 8.39554e-19 -0.00889874)
(-1.32858e-18 1.74864e-18 -0.00892027)
(-1.57738e-18 2.2152e-18 -0.00894071)
(4.19324e-19 1.09383e-18 -0.00896002)
(-9.24138e-19 1.22312e-18 -0.00897817)
(5.38069e-20 1.21103e-18 -0.00899513)
(-2.53919e-19 1.23761e-18 -0.00901088)
(-1.21435e-19 1.72473e-18 -0.00902539)
(-4.36859e-19 4.72661e-19 -0.00903865)
(-3.71478e-19 1.33246e-18 -0.00905062)
(-7.91929e-19 1.48804e-18 -0.00906131)
(2.09839e-19 1.70596e-18 -0.00907069)
(5.62797e-19 8.49689e-19 -0.00907875)
(-8.75561e-20 7.55745e-19 -0.00908548)
(1.18014e-19 3.24031e-19 -0.00909088)
(8.96733e-19 4.15724e-19 -0.00909494)
(-4.54572e-20 -2.08257e-19 -0.00909765)
(5.13937e-19 1.89842e-19 -0.00909901)
(-9.31335e-20 -7.56568e-19 -0.00909901)
(2.57385e-19 -5.98787e-19 -0.00909765)
(-3.1815e-19 -8.22757e-19 -0.00909494)
(1.02029e-19 -5.49769e-19 -0.00909088)
(2.71941e-19 -7.44554e-19 -0.00908548)
(-4.72012e-19 -7.94891e-19 -0.00907875)
(-3.6243e-19 -7.8944e-20 -0.00907069)
(-6.71496e-19 -1.02703e-19 -0.00906131)
(-2.91831e-19 -1.24492e-19 -0.00905062)
(-4.35057e-19 -4.77156e-19 -0.00903865)
(-1.21954e-18 2.5474e-19 -0.00902539)
(-3.4577e-19 8.45483e-19 -0.00901088)
(-4.72047e-20 5.96946e-19 -0.00899513)
(4.2697e-19 3.69053e-19 -0.00897817)
(-3.2798e-19 -1.58973e-19 -0.00896002)
(-6.23658e-19 5.23569e-19 -0.00894071)
(6.94147e-19 1.23989e-18 -0.00892027)
(7.30877e-19 -1.22039e-18 -0.00889874)
(7.94604e-20 -4.4249e-19 -0.00887618)
(-4.4474e-19 5.91756e-20 -0.00860302)
(-9.48713e-19 4.90993e-19 -0.00863118)
(2.67041e-19 3.99897e-19 -0.00865859)
(-8.85431e-19 5.0629e-19 -0.00868517)
(-3.72959e-19 -7.29978e-19 -0.00871086)
(-1.58421e-18 4.40883e-19 -0.00873561)
(-9.50881e-19 7.32132e-19 -0.00875937)
(-2.02494e-18 7.98352e-19 -0.00878212)
(-1.50023e-18 1.6463e-18 -0.00880383)
(-1.41566e-18 2.31114e-18 -0.00882443)
(3.22915e-19 1.00243e-18 -0.0088439)
(-9.4969e-19 1.21032e-18 -0.0088622)
(-1.31142e-19 1.11543e-18 -0.0088793)
(-2.8541e-19 1.23691e-18 -0.00889518)
(-3.84301e-19 1.66086e-18 -0.00890981)
(-4.7823e-19 4.33399e-19 -0.00892317)
(-1.94406e-19 1.37787e-18 -0.00893524)
(-8.1959e-19 1.47247e-18 -0.00894601)
(2.94815e-19 1.70805e-18 -0.00895547)
(3.85156e-19 8.29931e-19 -0.00896359)
(7.71733e-21 7.82187e-19 -0.00897038)
(1.63507e-19 2.85467e-19 -0.00897582)
(8.06558e-19 4.19866e-19 -0.00897991)
(-6.89486e-20 -2.08676e-19 -0.00898265)
(6.16324e-19 1.99846e-19 -0.00898401)
(-9.56525e-20 -7.68345e-19 -0.00898401)
(3.4144e-19 -6.10333e-19 -0.00898265)
(-3.56811e-19 -8.24865e-19 -0.00897991)
(-1.62438e-20 -5.54567e-19 -0.00897582)
(3.49894e-19 -7.46891e-19 -0.00897038)
(-2.82588e-19 -8.19508e-19 -0.00896359)
(-4.16227e-19 -5.27988e-20 -0.00895547)
(-6.14654e-19 -1.17015e-19 -0.00894601)
(-2.98219e-19 -1.31744e-19 -0.00893524)
(-3.59985e-19 -4.94598e-19 -0.00892317)
(-9.69496e-19 1.7495e-19 -0.00890981)
(-2.99611e-19 8.25309e-19 -0.00889518)
(-6.21696e-21 5.76134e-19 -0.0088793)
(4.42226e-19 3.70276e-19 -0.0088622)
(-3.21253e-19 -1.62072e-19 -0.0088439)
(-7.36743e-19 5.93347e-19 -0.00882443)
(7.47247e-19 1.22516e-18 -0.00880382)
(7.46303e-19 -1.23964e-18 -0.00878212)
(1.11801e-19 -4.05424e-19 -0.00875937)
(-2.76358e-19 2.31385e-19 -0.00848145)
(-7.05842e-19 7.00065e-19 -0.00850986)
(2.39131e-19 3.59239e-19 -0.0085375)
(-9.77741e-19 4.85482e-19 -0.00856431)
(-3.67419e-19 -7.75703e-19 -0.00859021)
(-1.68779e-18 3.40912e-19 -0.00861517)
(-8.96994e-19 7.70663e-19 -0.00863913)
(-2.03612e-18 8.03548e-19 -0.00866207)
(-1.68019e-18 1.5302e-18 -0.00868395)
(-1.21748e-18 2.41596e-18 -0.00870473)
(3.82446e-19 9.94767e-19 -0.00872436)
(-1.03163e-18 1.17905e-18 -0.00874281)
(-1.51283e-19 1.08567e-18 -0.00876006)
(-2.69377e-19 1.2577e-18 -0.00877606)
(-4.85395e-19 1.65214e-18 -0.00879081)
(-4.36635e-19 4.02618e-19 -0.00880428)
(-1.66767e-19 1.38122e-18 -0.00881646)
(-9.0368e-19 1.44492e-18 -0.00882732)
(4.14266e-19 1.72045e-18 -0.00883685)
(3.01861e-19 8.22652e-19 -0.00884505)
(1.26963e-19 8.08284e-19 -0.00885189)
(1.75815e-19 2.57982e-19 -0.00885738)
(6.56353e-19 4.18324e-19 -0.0088615)
(4.97467e-20 -2.166e-19 -0.00886425)
(7.28993e-19 2.11057e-19 -0.00886563)
(4.08958e-20 -7.75585e-19 -0.00886563)
(3.03791e-19 -6.1278e-19 -0.00886425)
(-4.05269e-19 -8.27977e-19 -0.0088615)
(8.14059e-21 -5.80622e-19 -0.00885738)
(4.33144e-19 -7.51252e-19 -0.00885189)
(-2.35893e-19 -8.14075e-19 -0.00884504)
(-4.63886e-19 -2.71849e-20 -0.00883685)
(-4.53075e-19 -1.59911e-19 -0.00882732)
(-2.26122e-19 -1.59721e-19 -0.00881646)
(-3.00471e-19 -5.1745e-19 -0.00880428)
(-6.78633e-19 7.80466e-20 -0.00879081)
(-2.33637e-19 8.07715e-19 -0.00877606)
(-2.02892e-20 5.79518e-19 -0.00876005)
(6.38305e-19 2.98248e-19 -0.00874281)
(-3.94113e-19 -1.14079e-19 -0.00872436)
(-9.25244e-19 6.94955e-19 -0.00870473)
(8.06479e-19 1.20027e-18 -0.00868395)
(7.19293e-19 -1.23332e-18 -0.00866207)
(1.56746e-19 -3.81636e-19 -0.00863913)
(-1.04356e-19 3.82184e-19 -0.00835621)
(-5.33606e-19 8.62065e-19 -0.00838487)
(1.48906e-19 2.88266e-19 -0.00841275)
(-1.16419e-18 3.88579e-19 -0.00843979)
(-2.60032e-19 -7.52587e-19 -0.00846591)
(-1.74596e-18 2.71785e-19 -0.00849108)
(-8.58096e-19 7.9795e-19 -0.00851524)
(-2.1461e-18 7.55061e-19 -0.00853838)
(-1.74816e-18 1.4656e-18 -0.00856044)
(-1.17853e-18 2.4278e-18 -0.0085814)
(4.47125e-19 9.97626e-19 -0.00860119)
(-1.09072e-18 1.15752e-18 -0.0086198)
(-7.24191e-20 1.0869e-18 -0.00863719)
(-1.58091e-19 1.31619e-18 -0.00865333)
(-3.83617e-19 1.71358e-18 -0.0086682)
(-2.96753e-19 4.06069e-19 -0.00868179)
(-2.66813e-19 1.36019e-18 -0.00869406)
(-9.48268e-19 1.41847e-18 -0.00870502)
(4.54222e-19 1.71006e-18 -0.00871463)
(2.83793e-19 8.29208e-19 -0.00872289)
(1.09285e-19 8.13648e-19 -0.0087298)
(1.95541e-19 2.32358e-19 -0.00873533)
(6.10627e-19 4.1895e-19 -0.00873949)
(1.87944e-19 -2.26648e-19 -0.00874227)
(7.20136e-19 2.19733e-19 -0.00874366)
(2.08241e-19 -7.79938e-19 -0.00874366)
(2.61289e-19 -6.06362e-19 -0.00874227)
(-4.54435e-19 -8.33014e-19 -0.00873949)
(6.17094e-21 -6.06649e-19 -0.00873533)
(4.46494e-19 -7.43897e-19 -0.0087298)
(-2.85819e-19 -7.86943e-19 -0.00872289)
(-4.89529e-19 -1.26146e-20 -0.00871463)
(-3.79473e-19 -1.86876e-19 -0.00870502)
(-1.88823e-19 -1.72854e-19 -0.00869406)
(-2.6555e-19 -5.37273e-19 -0.00868179)
(-5.77538e-19 4.80379e-20 -0.0086682)
(-2.80934e-19 8.43581e-19 -0.00865333)
(-1.15216e-19 6.05284e-19 -0.00863719)
(8.06428e-19 2.37744e-19 -0.0086198)
(-5.10627e-19 -2.94224e-20 -0.00860119)
(-9.8051e-19 7.21834e-19 -0.0085814)
(8.46135e-19 1.17679e-18 -0.00856044)
(7.32192e-19 -1.2508e-18 -0.00853838)
(1.43238e-19 -3.22171e-19 -0.00851524)
(-1.54156e-20 4.44379e-19 -0.00822708)
(-5.68733e-19 8.49501e-19 -0.008256)
(9.03653e-20 2.55765e-19 -0.00828413)
(-1.24128e-18 3.68453e-19 -0.0083114)
(-7.48413e-20 -6.77795e-19 -0.00833774)
(-1.74718e-18 2.45384e-19 -0.00836312)
(-9.38006e-19 7.50487e-19 -0.0083875)
(-2.19371e-18 7.47469e-19 -0.00841082)
(-1.73583e-18 1.44122e-18 -0.00843308)
(-1.26988e-18 2.36931e-18 -0.00845421)
(4.56036e-19 9.70775e-19 -0.00847418)
(-1.08786e-18 1.16357e-18 -0.00849294)
(-4.74189e-20 1.06008e-18 -0.00851048)
(-2.57299e-19 1.29411e-18 -0.00852676)
(-2.14865e-19 1.79838e-18 -0.00854176)
(-1.71753e-19 4.10259e-19 -0.00855546)
(-3.29822e-19 1.35226e-18 -0.00856784)
(-7.29415e-19 1.45186e-18 -0.00857889)
(4.65749e-19 1.6957e-18 -0.00858858)
(2.43489e-19 8.32129e-19 -0.00859692)
(1.57497e-20 8.07834e-19 -0.00860388)
(2.20663e-19 2.07e-19 -0.00860946)
(6.04367e-19 4.21026e-19 -0.00861365)
(2.40515e-19 -2.40777e-19 -0.00861646)
(6.12644e-19 2.27147e-19 -0.00861786)
(2.68093e-19 -7.82939e-19 -0.00861786)
(2.36175e-19 -5.94947e-19 -0.00861646)
(-5.16033e-19 -8.36665e-19 -0.00861365)
(-3.40707e-20 -6.30059e-19 -0.00860946)
(3.25636e-19 -7.14758e-19 -0.00860388)
(-4.23823e-19 -7.44455e-19 -0.00859692)
(-5.15417e-19 2.25121e-21 -0.00858858)
(-5.01876e-19 -1.67475e-19 -0.00857889)
(-2.01342e-19 -1.76811e-19 -0.00856784)
(-2.00047e-19 -5.66701e-19 -0.00855546)
(-6.1986e-19 6.9478e-20 -0.00854176)
(-2.00154e-19 8.35181e-19 -0.00852676)
(-2.1008e-19 6.2594e-19 -0.00851048)
(7.93859e-19 2.61894e-19 -0.00849294)
(-7.36902e-19 1.10888e-19 -0.00847418)
(-8.58755e-19 6.46692e-19 -0.00845421)
(8.85523e-19 1.15123e-18 -0.00843308)
(6.96475e-19 -1.23512e-18 -0.00841082)
(1.89598e-19 -2.98897e-19 -0.0083875)
(3.93709e-20 4.76559e-19 -0.00809385)
(-6.15424e-19 8.29825e-19 -0.00812303)
(6.4386e-20 2.43077e-19 -0.0081514)
(-1.1331e-18 4.87947e-19 -0.0081789)
(1.43262e-19 -5.78458e-19 -0.00820547)
(-1.58946e-18 3.44369e-19 -0.00823107)
(-1.07211e-18 6.67351e-19 -0.00825565)
(-2.02968e-18 8.58055e-19 -0.00827918)
(-1.60863e-18 1.48396e-18 -0.00830163)
(-1.37351e-18 2.30427e-18 -0.00832294)
(4.56299e-19 9.34371e-19 -0.00834308)
(-1.03256e-18 1.19257e-18 -0.008362)
(-1.74298e-20 1.04505e-18 -0.00837969)
(-5.32903e-19 1.20147e-18 -0.00839611)
(-5.7825e-20 1.86821e-18 -0.00841124)
(-1.58628e-19 3.87881e-19 -0.00842506)
(-3.85081e-19 1.33864e-18 -0.00843755)
(-5.06816e-19 1.48198e-18 -0.00844869)
(4.84149e-19 1.69376e-18 -0.00845847)
(1.73886e-19 8.35573e-19 -0.00846688)
(-1.07563e-19 7.95113e-19 -0.0084739)
(2.58532e-19 1.77389e-19 -0.00847953)
(5.9528e-19 4.22417e-19 -0.00848376)
(2.56282e-19 -2.51308e-19 -0.00848658)
(4.49701e-19 2.34133e-19 -0.008488)
(2.78339e-19 -7.88841e-19 -0.008488)
(1.84479e-19 -5.78487e-19 -0.00848658)
(-4.90636e-19 -8.45458e-19 -0.00848376)
(-1.05345e-19 -6.45585e-19 -0.00847953)
(2.29521e-19 -6.84113e-19 -0.0084739)
(-5.1475e-19 -7.13014e-19 -0.00846687)
(-5.40255e-19 1.75739e-20 -0.00845847)
(-5.50177e-19 -1.67937e-19 -0.00844869)
(-1.65206e-19 -2.02883e-19 -0.00843755)
(-1.45804e-19 -5.91833e-19 -0.00842506)
(-7.70713e-19 1.2386e-19 -0.00841124)
(3.43757e-21 7.84077e-19 -0.00839611)
(-2.9649e-19 6.52442e-19 -0.00837969)
(6.22852e-19 3.63878e-19 -0.008362)
(-9.55968e-19 2.38584e-19 -0.00834308)
(-6.78635e-19 5.26903e-19 -0.00832294)
(8.49581e-19 1.17623e-18 -0.00830163)
(5.66272e-19 -1.16604e-18 -0.00827918)
(3.42617e-19 -3.44881e-19 -0.00825565)
(6.85783e-20 4.79918e-19 -0.00795626)
(-5.17153e-19 9.42566e-19 -0.0079857)
(-1.19094e-20 1.83044e-19 -0.00801432)
(-8.97726e-19 6.97327e-19 -0.00804206)
(3.62546e-19 -4.81346e-19 -0.00806886)
(-1.3587e-18 5.05645e-19 -0.00809467)
(-1.06386e-18 6.75357e-19 -0.00811946)
(-1.8329e-18 9.78111e-19 -0.00814319)
(-1.3804e-18 1.59554e-18 -0.00816583)
(-1.5251e-18 2.22016e-18 -0.00818733)
(4.62492e-19 8.93272e-19 -0.00820764)
(-9.40821e-19 1.23692e-18 -0.00822673)
(-1.60536e-20 1.02822e-18 -0.00824457)
(-6.04312e-19 1.18253e-18 -0.00826113)
(5.18272e-20 1.9189e-18 -0.00827639)
(-2.33064e-19 3.44241e-19 -0.00829033)
(-3.93571e-19 1.33193e-18 -0.00830293)
(-4.99784e-19 1.45879e-18 -0.00831417)
(4.51757e-19 1.68577e-18 -0.00832403)
(1.48301e-19 8.49721e-19 -0.00833251)
(-1.35583e-19 7.92261e-19 -0.00833959)
(3.12115e-19 1.47286e-19 -0.00834527)
(5.16383e-19 4.19828e-19 -0.00834954)
(2.68314e-19 -2.58633e-19 -0.00835239)
(3.23121e-19 2.42707e-19 -0.00835382)
(2.50681e-19 -7.96387e-19 -0.00835382)
(1.06029e-19 -5.62664e-19 -0.00835239)
(-3.92582e-19 -8.58937e-19 -0.00834954)
(-1.6188e-19 -6.60489e-19 -0.00834527)
(2.48917e-19 -6.71495e-19 -0.00833959)
(-4.57658e-19 -7.05251e-19 -0.00833251)
(-5.19975e-19 2.24785e-20 -0.00832403)
(-4.89057e-19 -1.97789e-19 -0.00831416)
(-1.10019e-19 -2.34233e-19 -0.00830293)
(-7.36676e-20 -6.13103e-19 -0.00829033)
(-9.96203e-19 1.98357e-19 -0.00827639)
(3.63914e-20 7.92199e-19 -0.00826113)
(-3.50382e-19 6.80149e-19 -0.00824457)
(4.65446e-19 4.65377e-19 -0.00822673)
(-9.32042e-19 2.35123e-19 -0.00820764)
(-4.49048e-19 3.76579e-19 -0.00818733)
(6.99241e-19 1.27642e-18 -0.00816583)
(4.49411e-19 -1.11602e-18 -0.00814319)
(3.63732e-19 -3.06732e-19 -0.00811946)
(1.03666e-19 4.80125e-19 -0.00781408)
(-4.15243e-19 1.0649e-18 -0.00784378)
(-8.9842e-20 1.16595e-19 -0.00787264)
(-7.03361e-19 8.62822e-19 -0.00790061)
(5.72697e-19 -3.86912e-19 -0.00792763)
(-1.19152e-18 6.30062e-19 -0.00795366)
(-9.62395e-19 7.45704e-19 -0.00797866)
(-1.8204e-18 9.80799e-19 -0.00800259)
(-1.28795e-18 1.64138e-18 -0.00802543)
(-1.65951e-18 2.15222e-18 -0.00804711)
(4.18607e-19 8.17043e-19 -0.00806759)
(-9.06624e-19 1.25697e-18 -0.00808684)
(-2.74588e-20 1.00574e-18 -0.00810484)
(-4.44505e-19 1.2455e-18 -0.00812154)
(1.94513e-19 1.98767e-18 -0.00813694)