/*--------------------------------*- C++ -*----------------------------------*\
  =========                 |
  \\      /  F ield         | OpenFOAM: The Open Source CFD Toolbox
   \\    /   O peration     | Website:  https://openfoam.org
    \\  /    A nd           | Version:  7
     \\/     M anipulation  |
\*---------------------------------------------------------------------------*/
FoamFile
{
    version     2.0;
    format      ascii;
    class       volScalarField;
    location    "104000";
    object      p;
}
// * * * * * * * * * * * * * * * * * * * * * * * * * * * * * * * * * * * * * //

dimensions      [0 2 -2 0 0 0 0];

internalField   nonuniform List<scalar> 
4825
(
-2.00315e-18
-1.99138e-18
-2.00116e-18
-1.98992e-18
-2.00453e-18
-1.99158e-18
-2.0086e-18
-2.00367e-18
-1.98585e-18
-2.0063e-18
-1.98475e-18
-2.00453e-18
-2.00312e-18
-1.98891e-18
-1.99886e-18
-1.98287e-18
-1.99688e-18
-2.01035e-18
-2.00347e-18
-2.00061e-18
-1.98815e-18
-1.99976e-18
-2.02197e-18
-1.99653e-18
-2.01207e-18
-1.99301e-18
-2.00318e-18
-2.0123e-18
-1.98704e-18
-2.00071e-18
-1.99317e-18
-2.0018e-18
-2.00486e-18
-1.98541e-18
-1.99913e-18
-1.98582e-18
-2.00296e-18
-2.00393e-18
-1.97572e-18
-2.00102e-18
-1.97816e-18
-1.99847e-18
-2.01343e-18
-1.97104e-18
-2.00096e-18
-1.98321e-18
-1.99361e-18
-2.01814e-18
-1.97944e-18
-1.99258e-18
-1.98285e-18
-1.99621e-18
-2.01095e-18
-1.98906e-18
-2.00075e-18
-1.98663e-18
-1.99624e-18
-2.00342e-18
-1.9962e-18
-2.00385e-18
-1.98672e-18
-1.99322e-18
-2.00851e-18
-1.9903e-18
-2.00196e-18
-1.98417e-18
-2.00284e-18
-1.98651e-18
-1.99902e-18
-1.98463e-18
-2.00534e-18
-1.97744e-18
-1.99917e-18
-1.97928e-18
-1.99701e-18
-1.98204e-18
-1.99474e-18
-2.00148e-18
-1.98453e-18
-2.0008e-18
-1.99267e-18
-1.98446e-18
-1.99566e-18
-1.98428e-18
-1.99872e-18
-1.98612e-18
-1.9961e-18
-1.98947e-18
-1.98386e-18
-1.9836e-18
-1.99476e-18
-2.07444e-18
-2.07729e-18
-2.08284e-18
-2.05994e-18
-2.10026e-18
-2.07347e-18
-2.07733e-18
-2.06663e-18
-2.06055e-18
-2.05536e-18
-2.06057e-18
-2.05657e-18
-2.06266e-18
-2.03796e-18
-2.03349e-18
-2.00856e-18
-2.03696e-18
-2.01179e-18
-2.02573e-18
-2.00974e-18
-2.06764e-18
-2.06925e-18
-2.08348e-18
-2.07617e-18
-2.09236e-18
-2.07067e-18
-2.08157e-18
-2.06723e-18
-2.05695e-18
-2.05629e-18
-2.05672e-18
-2.05387e-18
-2.05825e-18
-2.0345e-18
-2.03968e-18
-2.0213e-18
-2.03639e-18
-2.01862e-18
-2.0339e-18
-2.00963e-18
-2.07304e-18
-2.08008e-18
-2.09011e-18
-2.07921e-18
-2.09396e-18
-2.07794e-18
-2.08651e-18
-2.06772e-18
-2.06423e-18
-2.05581e-18
-2.05305e-18
-2.04263e-18
-2.04775e-18
-2.03716e-18
-2.0395e-18
-2.02865e-18
-2.03407e-18
-2.0173e-18
-2.03479e-18
-2.01546e-18
-2.08346e-18
-2.08263e-18
-2.0905e-18
-2.08293e-18
-2.08282e-18
-2.07625e-18
-2.0826e-18
-2.07319e-18
-2.07432e-18
-2.05387e-18
-2.04692e-18
-2.04622e-18
-2.04748e-18
-2.038e-18
-2.04523e-18
-2.02575e-18
-2.03523e-18
-2.01635e-18
-2.03124e-18
-2.01621e-18
-2.085e-18
-2.07567e-18
-2.08725e-18
-2.0811e-18
-2.08271e-18
-2.07692e-18
-2.07784e-18
-2.06344e-18
-2.07542e-18
-2.05298e-18
-2.05016e-18
-2.04563e-18
-2.0516e-18
-2.03972e-18
-2.0435e-18
-2.02615e-18
-2.03583e-18
-2.01308e-18
-2.02999e-18
-2.01496e-18
-2.0808e-18
-2.07884e-18
-2.07531e-18
-2.07245e-18
-2.08275e-18
-2.07878e-18
-2.06429e-18
-2.06371e-18
-2.07739e-18
-2.06224e-18
-2.04942e-18
-2.04344e-18
-2.04543e-18
-2.03697e-18
-2.03701e-18
-2.0231e-18
-2.036e-18
-2.00738e-18
-2.02965e-18
-2.02127e-18
-2.08349e-18
-2.07553e-18
-2.08163e-18
-2.08438e-18
-2.08058e-18
-2.06785e-18
-2.06885e-18
-2.06362e-18
-2.06957e-18
-2.05947e-18
-2.04985e-18
-2.0424e-18
-2.04623e-18
-2.04064e-18
-2.04689e-18
-2.02202e-18
-2.04127e-18
-2.01368e-18
-2.02615e-18
-2.01789e-18
-2.07652e-18
-2.09231e-18
-2.07903e-18
-2.07836e-18
-2.08512e-18
-2.0683e-18
-2.07218e-18
-2.06331e-18
-2.06485e-18
-2.0554e-18
-2.0554e-18
-2.05283e-18
-2.04075e-18
-2.04264e-18
-2.04306e-18
-2.02376e-18
-2.02673e-18
-2.0136e-18
-2.03376e-18
-2.01694e-18
-2.0122e-18
-2.00671e-18
-2.00791e-18
-2.00538e-18
-2.01899e-18
-2.00247e-18
-1.99111e-18
-2.00276e-18
-1.9829e-18
-1.98354e-18
-1.9678e-18
-1.98368e-18
-1.9677e-18
-1.96332e-18
-1.97119e-18
-2.06442e-18
-2.08431e-18
-2.07371e-18
-2.07477e-18
-2.07746e-18
-2.06566e-18
-2.09103e-18
-2.06411e-18
-2.06687e-18
-2.04986e-18
-2.0532e-18
-2.0608e-18
-2.04275e-18
-2.0395e-18
-2.03978e-18
-2.02623e-18
-2.01925e-18
-2.01136e-18
-2.03703e-18
-2.0183e-18
-2.01384e-18
-2.01039e-18
-2.01051e-18
-1.99714e-18
-2.01122e-18
-1.99831e-18
-1.99577e-18
-2.00027e-18
-1.98438e-18
-1.97922e-18
-1.97271e-18
-1.98163e-18
-1.96926e-18
-1.96417e-18
-1.96604e-18
-1.97288e-18
-1.96926e-18
-2.07884e-18
-2.08454e-18
-2.07691e-18
-2.07245e-18
-2.08139e-18
-2.08594e-18
-2.09329e-18
-2.05921e-18
-2.08067e-18
-2.04773e-18
-2.05348e-18
-2.04393e-18
-2.04055e-18
-2.03888e-18
-2.03432e-18
-2.02212e-18
-2.02721e-18
-2.00835e-18
-2.02601e-18
-2.01928e-18
-2.01927e-18
-2.00881e-18
-2.01086e-18
-1.99729e-18
-2.00807e-18
-2.00293e-18
-1.99635e-18
-1.99576e-18
-1.98301e-18
-1.98395e-18
-1.97334e-18
-1.97631e-18
-1.9668e-18
-1.95592e-18
-1.96977e-18
-1.97243e-18
-1.96311e-18
-1.9628e-18
-2.07837e-18
-2.08508e-18
-2.0788e-18
-2.0686e-18
-2.09887e-18
-2.07509e-18
-2.0841e-18
-2.04819e-18
-2.07186e-18
-2.04601e-18
-2.06784e-18
-2.03965e-18
-2.0471e-18
-2.03459e-18
-2.02662e-18
-2.01389e-18
-2.02429e-18
-2.00956e-18
-2.02202e-18
-2.02135e-18
-2.01477e-18
-2.00569e-18
-2.01157e-18
-1.99687e-18
-2.00662e-18
-1.99866e-18
-1.99678e-18
-1.9954e-18
-1.9826e-18
-1.9889e-18
-1.97363e-18
-1.97009e-18
-1.96315e-18
-1.96357e-18
-1.96491e-18
-1.97226e-18
-1.9631e-18
-1.96123e-18
-1.95647e-18
-1.95784e-18
-2.07431e-18
-2.08101e-18
-2.08318e-18
-2.06883e-18
-2.09418e-18
-2.07107e-18
-2.07721e-18
-2.0397e-18
-2.07031e-18
-2.0494e-18
-2.05972e-18
-2.03712e-18
-2.05401e-18
-2.02779e-18
-2.02903e-18
-2.01764e-18
-2.02197e-18
-2.01511e-18
-2.0246e-18
-2.01731e-18
-2.00915e-18
-2.00726e-18
-2.00652e-18
-1.99464e-18
-2.00559e-18
-1.99431e-18
-1.99845e-18
-1.99031e-18
-1.98052e-18
-1.98431e-18
-1.98113e-18
-1.97274e-18
-1.95566e-18
-1.96613e-18
-1.95502e-18
-1.96753e-18
-1.96294e-18
-1.95603e-18
-1.95194e-18
-1.95964e-18
-1.97594e-18
-1.9477e-18
-2.08087e-18
-2.07112e-18
-2.08421e-18
-2.06595e-18
-2.08454e-18
-2.0653e-18
-2.07969e-18
-2.05287e-18
-2.06381e-18
-2.04361e-18
-2.06213e-18
-2.03013e-18
-2.04469e-18
-2.02538e-18
-2.04023e-18
-2.02591e-18
-2.02362e-18
-2.01165e-18
-2.01893e-18
-2.01703e-18
-2.00961e-18
-2.01001e-18
-2.00055e-18
-1.99317e-18
-2.00631e-18
-1.99091e-18
-2.0016e-18
-1.98656e-18
-1.98554e-18
-1.98117e-18
-1.97267e-18
-1.9731e-18
-1.96116e-18
-1.96667e-18
-1.94841e-18
-1.96079e-18
-1.96284e-18
-1.95815e-18
-1.94845e-18
-1.95761e-18
-1.97895e-18
-1.94963e-18
-1.98269e-18
-1.96444e-18
-1.984e-18
-2.07839e-18
-2.07503e-18
-2.0858e-18
-2.07071e-18
-2.0817e-18
-2.06247e-18
-2.08407e-18
-2.06158e-18
-2.05688e-18
-2.02993e-18
-2.05235e-18
-2.02829e-18
-2.0446e-18
-2.03914e-18
-2.0326e-18
-2.02416e-18
-2.02545e-18
-2.00661e-18
-2.01959e-18
-2.02051e-18
-2.01111e-18
-2.00688e-18
-1.99948e-18
-1.99248e-18
-2.00885e-18
-1.99429e-18
-1.99797e-18
-1.98135e-18
-1.98451e-18
-1.97816e-18
-1.97263e-18
-1.97372e-18
-1.96017e-18
-1.96893e-18
-1.95816e-18
-1.96039e-18
-1.96288e-18
-1.95073e-18
-1.94942e-18
-1.95177e-18
-1.97817e-18
-1.9455e-18
-1.97473e-18
-1.9513e-18
-1.98629e-18
-1.97154e-18
-1.99167e-18
-2.07614e-18
-2.07401e-18
-2.07972e-18
-2.0726e-18
-2.08413e-18
-2.06829e-18
-2.07048e-18
-2.0616e-18
-2.05755e-18
-2.03909e-18
-2.04242e-18
-2.03158e-18
-2.04612e-18
-2.03373e-18
-2.03583e-18
-2.01866e-18
-2.0241e-18
-2.00338e-18
-2.03006e-18
-2.01699e-18
-2.0065e-18
-2.00385e-18
-2.00321e-18
-1.99132e-18
-2.00721e-18
-1.98884e-18
-1.99722e-18
-1.98299e-18
-1.98129e-18
-1.97278e-18
-1.97126e-18
-1.96627e-18
-1.96232e-18
-1.96082e-18
-1.95917e-18
-1.95998e-18
-1.95966e-18
-1.95388e-18
-1.95385e-18
-1.95144e-18
-1.97148e-18
-1.94849e-18
-1.97493e-18
-1.9595e-18
-1.98248e-18
-1.97303e-18
-1.98203e-18
-1.98126e-18
-2.02019e-18
-2.00253e-18
-2.07404e-18
-2.07173e-18
-2.07625e-18
-2.06377e-18
-2.09849e-18
-2.06799e-18
-2.07461e-18
-2.06729e-18
-2.06776e-18
-2.04658e-18
-2.03873e-18
-2.03083e-18
-2.04816e-18
-2.03047e-18
-2.02766e-18
-2.00574e-18
-2.02327e-18
-2.00867e-18
-2.0223e-18
-2.00992e-18
-2.01007e-18
-1.99727e-18
-2.00357e-18
-1.98252e-18
-2.00037e-18
-1.98175e-18
-1.99102e-18
-1.98199e-18
-1.97825e-18
-1.97561e-18
-1.96408e-18
-1.97069e-18
-1.96087e-18
-1.96224e-18
-1.96719e-18
-1.96899e-18
-1.96245e-18
-1.95806e-18
-1.95828e-18
-1.95999e-18
-1.96801e-18
-1.94354e-18
-1.96085e-18
-1.94842e-18
-1.98276e-18
-1.96725e-18
-1.98074e-18
-1.98113e-18
-2.01723e-18
-2.00373e-18
-2.07092e-18
-2.06824e-18
-2.0765e-18
-2.07008e-18
-2.08996e-18
-2.0659e-18
-2.07553e-18
-2.05221e-18
-2.05874e-18
-2.03881e-18
-2.04545e-18
-2.02501e-18
-2.05081e-18
-2.03161e-18
-2.02807e-18
-2.00848e-18
-2.0161e-18
-2.0122e-18
-2.01399e-18
-2.01202e-18
-2.01151e-18
-1.99975e-18
-2.00213e-18
-1.97891e-18
-1.99666e-18
-1.98472e-18
-1.99693e-18
-1.97857e-18
-1.9799e-18
-1.97507e-18
-1.96363e-18
-1.97189e-18
-1.96154e-18
-1.96823e-18
-1.96356e-18
-1.96762e-18
-1.96632e-18
-1.95864e-18
-1.96493e-18
-1.95452e-18
-1.9732e-18
-1.94821e-18
-1.96461e-18
-1.9435e-18
-1.96914e-18
-1.95653e-18
-1.96729e-18
-1.98043e-18
-2.01067e-18
-2.01031e-18
-2.07224e-18
-2.06239e-18
-2.07696e-18
-2.06475e-18
-2.08565e-18
-2.05991e-18
-2.06577e-18
-2.05262e-18
-2.05142e-18
-2.03519e-18
-2.04122e-18
-2.01617e-18
-2.04057e-18
-2.03016e-18
-2.02649e-18
-2.01297e-18
-2.02299e-18
-2.00869e-18
-2.0116e-18
-2.01751e-18
-2.0097e-18
-2.00538e-18
-1.99889e-18
-1.97919e-18
-1.99472e-18
-1.99064e-18
-1.99643e-18
-1.98058e-18
-1.98164e-18
-1.97352e-18
-1.96857e-18
-1.96882e-18
-1.96304e-18
-1.96059e-18
-1.95868e-18
-1.96409e-18
-1.96e-18
-1.9601e-18
-1.96155e-18
-1.94973e-18
-1.96552e-18
-1.95211e-18
-1.96559e-18
-1.95692e-18
-1.95631e-18
-1.94896e-18
-1.97631e-18
-1.97612e-18
-2.01025e-18
-2.0048e-18
-2.07146e-18
-2.0661e-18
-2.06907e-18
-2.06448e-18
-2.07774e-18
-2.0579e-18
-2.06198e-18
-2.05837e-18
-2.05451e-18
-2.0357e-18
-2.051e-18
-2.03016e-18
-2.0322e-18
-2.02073e-18
-2.03186e-18
-2.0136e-18
-2.02231e-18
-2.00719e-18
-2.01372e-18
-2.01864e-18
-2.00671e-18
-2.00302e-18
-1.99593e-18
-1.9811e-18
-1.99316e-18
-1.99404e-18
-1.99178e-18
-1.97772e-18
-1.97785e-18
-1.97647e-18
-1.96201e-18
-1.96591e-18
-1.95427e-18
-1.95531e-18
-1.95825e-18
-1.96303e-18
-1.95819e-18
-1.96489e-18
-1.95058e-18
-1.94118e-18
-1.96069e-18
-1.94994e-18
-1.96361e-18
-1.95784e-18
-1.96809e-18
-1.95754e-18
-1.99003e-18
-1.97456e-18
-2.00495e-18
-1.99607e-18
-2.0792e-18
-2.08152e-18
-2.07118e-18
-2.06937e-18
-2.08026e-18
-2.05774e-18
-2.0529e-18
-2.04868e-18
-2.05449e-18
-2.03014e-18
-2.04357e-18
-2.03031e-18
-2.03194e-18
-2.02436e-18
-2.02209e-18
-2.01265e-18
-2.01982e-18
-2.0031e-18
-2.00914e-18
-2.0167e-18
-2.01258e-18
-1.99628e-18
-2.00212e-18
-1.97803e-18
-1.99182e-18
-1.98511e-18
-1.98965e-18
-1.97016e-18
-1.9775e-18
-1.97289e-18
-1.95746e-18
-1.96442e-18
-1.95322e-18
-1.97015e-18
-1.95335e-18
-1.96993e-18
-1.96066e-18
-1.96553e-18
-1.94964e-18
-1.94993e-18
-1.95861e-18
-1.94523e-18
-1.96747e-18
-1.96179e-18
-1.96914e-18
-1.95337e-18
-1.98478e-18
-1.97658e-18
-1.98952e-18
-1.9959e-18
-2.09002e-18
-2.07566e-18
-2.08273e-18
-2.07403e-18
-2.08434e-18
-2.05411e-18
-2.05367e-18
-2.04006e-18
-2.04735e-18
-2.0371e-18
-2.03559e-18
-2.02367e-18
-2.03948e-18
-2.02458e-18
-2.02683e-18
-2.01913e-18
-2.01227e-18
-2.00199e-18
-2.00238e-18
-2.01166e-18
-2.00863e-18
-1.9981e-18
-2.00431e-18
-1.98098e-18
-1.99196e-18
-1.98164e-18
-1.98685e-18
-1.9744e-18
-1.98288e-18
-1.97066e-18
-1.95921e-18
-1.96767e-18
-1.95281e-18
-1.96775e-18
-1.95455e-18
-1.96181e-18
-1.96505e-18
-1.95776e-18
-1.95609e-18
-1.95843e-18
-1.95474e-18
-1.94762e-18
-1.97279e-18
-1.95363e-18
-1.97592e-18
-1.95496e-18
-1.98552e-18
-1.96655e-18
-1.99673e-18
-1.99354e-18
-2.07943e-18
-2.0654e-18
-2.07118e-18
-2.07308e-18
-2.08155e-18
-2.06597e-18
-2.06527e-18
-2.04937e-18
-2.06728e-18
-2.04063e-18
-2.04506e-18
-2.02636e-18
-2.03446e-18
-2.02128e-18
-2.03166e-18
-2.01576e-18
-2.01681e-18
-2.00507e-18
-2.01298e-18
-2.00799e-18
-2.00377e-18
-1.99743e-18
-2.00368e-18
-1.98334e-18
-1.99462e-18
-1.98233e-18
-1.9822e-18
-1.97061e-18
-1.97109e-18
-1.97062e-18
-1.96933e-18
-1.96582e-18
-1.95519e-18
-1.96367e-18
-1.95649e-18
-1.95496e-18
-1.96091e-18
-1.96187e-18
-1.95595e-18
-1.95293e-18
-1.94881e-18
-1.92919e-18
-1.95632e-18
-1.9471e-18
-1.96418e-18
-1.95474e-18
-1.98697e-18
-1.977e-18
-2.00013e-18
-2.0012e-18
-2.07094e-18
-2.06327e-18
-2.07021e-18
-2.06476e-18
-2.08119e-18
-2.067e-18
-2.06226e-18
-2.04755e-18
-2.0581e-18
-2.02675e-18
-2.0378e-18
-2.03287e-18
-2.0309e-18
-2.01447e-18
-2.0283e-18
-2.01644e-18
-2.01293e-18
-2.00459e-18
-2.01612e-18
-2.0065e-18
-2.00868e-18
-1.99981e-18
-1.99919e-18
-1.98515e-18
-1.99225e-18
-1.98496e-18
-1.98317e-18
-1.96991e-18
-1.96593e-18
-1.97059e-18
-1.9686e-18
-1.96089e-18
-1.95403e-18
-1.96844e-18
-1.95083e-18
-1.95662e-18
-1.95691e-18
-1.96496e-18
-1.95045e-18
-1.95071e-18
-1.95482e-18
-1.93771e-18
-1.95954e-18
-1.94972e-18
-1.95926e-18
-1.95189e-18
-1.98277e-18
-1.97651e-18
-2.00276e-18
-2.00341e-18
-2.06973e-18
-2.05383e-18
-2.0725e-18
-2.05628e-18
-2.0761e-18
-2.04933e-18
-2.05529e-18
-2.0423e-18
-2.05484e-18
-2.03121e-18
-2.0434e-18
-2.03506e-18
-2.03075e-18
-2.0094e-18
-2.02642e-18
-2.01173e-18
-2.01551e-18
-1.99852e-18
-2.01849e-18
-2.00803e-18
-2.01264e-18
-1.9946e-18
-1.9992e-18
-1.98131e-18
-1.98694e-18
-1.98005e-18
-1.98749e-18
-1.97332e-18
-1.9607e-18
-1.96855e-18
-1.96374e-18
-1.95707e-18
-1.95679e-18
-1.9652e-18
-1.96071e-18
-1.95729e-18
-1.96335e-18
-1.96625e-18
-1.95319e-18
-1.95474e-18
-1.95273e-18
-1.94661e-18
-1.96626e-18
-1.95308e-18
-1.97113e-18
-1.95573e-18
-1.98119e-18
-1.97359e-18
-2.0123e-18
-1.99946e-18
-2.07868e-18
-2.04861e-18
-2.07267e-18
-2.0611e-18
-2.0707e-18
-2.0457e-18
-2.05478e-18
-2.04392e-18
-2.05416e-18
-2.03715e-18
-2.03994e-18
-2.02787e-18
-2.03705e-18
-2.02043e-18
-2.02294e-18
-2.01616e-18
-2.0194e-18
-1.99409e-18
-2.01397e-18
-2.00827e-18
-2.00956e-18
-1.99017e-18
-1.99537e-18
-1.97927e-18
-1.98399e-18
-1.97498e-18
-1.98475e-18
-1.97248e-18
-1.96675e-18
-1.96881e-18
-1.96002e-18
-1.95947e-18
-1.9573e-18
-1.95698e-18
-1.96525e-18
-1.95988e-18
-1.96457e-18
-1.96155e-18
-1.96393e-18
-1.9464e-18
-1.95587e-18
-1.94275e-18
-1.96516e-18
-1.957e-18
-1.97617e-18
-1.95694e-18
-1.98207e-18
-1.97418e-18
-2.01482e-18
-1.98935e-18
-2.08259e-18
-2.05621e-18
-2.06485e-18
-2.0591e-18
-2.07231e-18
-2.04969e-18
-2.06056e-18
-2.04425e-18
-2.05184e-18
-2.02858e-18
-2.02761e-18
-2.02863e-18
-2.03648e-18
-2.02798e-18
-2.02272e-18
-2.01117e-18
-2.01747e-18
-1.99729e-18
-2.01501e-18
-2.00532e-18
-2.00785e-18
-1.98957e-18
-1.99499e-18
-1.97695e-18
-1.98127e-18
-1.97488e-18
-1.98236e-18
-1.96845e-18
-1.97157e-18
-1.96613e-18
-1.96035e-18
-1.95569e-18
-1.95469e-18
-1.95697e-18
-1.96889e-18
-1.95924e-18
-1.96282e-18
-1.95887e-18
-1.95751e-18
-1.96521e-18
-1.96027e-18
-1.94453e-18
-1.95744e-18
-1.9545e-18
-1.97762e-18
-1.94808e-18
-1.98388e-18
-1.9796e-18
-2.00225e-18
-1.98623e-18
-2.07537e-18
-2.06522e-18
-2.073e-18
-2.0628e-18
-2.0704e-18
-2.05567e-18
-2.05572e-18
-2.04824e-18
-2.05394e-18
-2.02883e-18
-2.03642e-18
-2.02928e-18
-2.03412e-18
-2.02934e-18
-2.02158e-18
-2.01005e-18
-2.00683e-18
-2.00399e-18
-2.01135e-18
-2.01037e-18
-2.00442e-18
-1.98662e-18
-1.99597e-18
-1.98046e-18
-1.97773e-18
-1.97153e-18
-1.9803e-18
-1.97239e-18
-1.97034e-18
-1.96553e-18
-1.95964e-18
-1.9509e-18
-1.95005e-18
-1.95987e-18
-1.95863e-18
-1.95943e-18
-1.95012e-18
-1.96022e-18
-1.94805e-18
-1.95792e-18
-1.95777e-18
-1.94691e-18
-1.95399e-18
-1.94874e-18
-1.96787e-18
-1.95381e-18
-1.98076e-18
-1.96943e-18
-1.99568e-18
-1.98652e-18
-2.06803e-18
-2.07194e-18
-2.07596e-18
-2.06287e-18
-2.0678e-18
-2.05556e-18
-2.05299e-18
-2.0432e-18
-2.05148e-18
-2.02866e-18
-2.03149e-18
-2.03571e-18
-2.02994e-18
-2.02278e-18
-2.02448e-18
-2.00884e-18
-2.00432e-18
-2.00645e-18
-2.01085e-18
-2.0074e-18
-2.0022e-18
-1.98936e-18
-1.99124e-18
-1.97773e-18
-1.9793e-18
-1.97204e-18
-1.98151e-18
-1.97719e-18
-1.96817e-18
-1.96094e-18
-1.95899e-18
-1.94907e-18
-1.95232e-18
-1.95589e-18
-1.95845e-18
-1.95578e-18
-1.95422e-18
-1.96482e-18
-1.9424e-18
-1.95876e-18
-1.95741e-18
-1.94216e-18
-1.95956e-18
-1.95253e-18
-1.97034e-18
-1.95655e-18
-1.98053e-18
-1.96475e-18
-1.99157e-18
-1.98788e-18
-2.07299e-18
-2.06626e-18
-2.07386e-18
-2.05939e-18
-2.07309e-18
-2.04624e-18
-2.0552e-18
-2.03755e-18
-2.0446e-18
-2.02625e-18
-2.02759e-18
-2.0334e-18
-2.03853e-18
-2.02109e-18
-2.02462e-18
-2.01044e-18
-2.00471e-18
-2.00098e-18
-2.01342e-18
-2.00054e-18
-2.00308e-18
-1.98891e-18
-1.98975e-18
-1.97484e-18
-1.97799e-18
-1.97629e-18
-1.98387e-18
-1.97605e-18
-1.96698e-18
-1.96327e-18
-1.96338e-18
-1.95302e-18
-1.96244e-18
-1.95394e-18
-1.95441e-18
-1.95608e-18
-1.95714e-18
-1.95803e-18
-1.9461e-18
-1.95785e-18
-1.95917e-18
-1.94532e-18
-1.96678e-18
-1.94972e-18
-1.97554e-18
-1.95261e-18
-1.98314e-18
-1.96583e-18
-1.99306e-18
-1.98477e-18
-2.06692e-18
-2.06285e-18
-2.07015e-18
-2.05895e-18
-2.06228e-18
-2.05034e-18
-2.04678e-18
-2.04594e-18
-2.05194e-18
-2.02985e-18
-2.03566e-18
-2.02152e-18
-2.03284e-18
-2.02207e-18
-2.01627e-18
-2.00902e-18
-2.0041e-18
-2.00218e-18
-2.01238e-18
-2.00235e-18
-2.01e-18
-1.98632e-18
-1.99726e-18
-1.97273e-18
-1.97481e-18
-1.97255e-18
-1.97566e-18
-1.96909e-18
-1.96575e-18
-1.96064e-18
-1.95811e-18
-1.95568e-18
-1.95711e-18
-1.96064e-18
-1.94847e-18
-1.95929e-18
-1.95326e-18
-1.96113e-18
-1.95762e-18
-1.95181e-18
-1.95105e-18
-1.94279e-18
-1.96295e-18
-1.95452e-18
-1.96658e-18
-1.95802e-18
-1.98297e-18
-1.97344e-18
-1.9935e-18
-1.99204e-18
-2.06923e-18
-2.05433e-18
-2.06991e-18
-2.05189e-18
-2.05549e-18
-2.05057e-18
-2.04872e-18
-2.03915e-18
-2.04728e-18
-2.03214e-18
-2.03583e-18
-2.02136e-18
-2.03981e-18
-2.01441e-18
-2.01473e-18
-2.00855e-18
-2.00824e-18
-1.99938e-18
-2.0116e-18
-2.00391e-18
-2.00952e-18
-1.98719e-18
-1.99067e-18
-1.97418e-18
-1.97847e-18
-1.97649e-18
-1.97826e-18
-1.96987e-18
-1.96647e-18
-1.95994e-18
-1.95867e-18
-1.95347e-18
-1.95757e-18
-1.95597e-18
-1.95094e-18
-1.95504e-18
-1.95261e-18
-1.95483e-18
-1.95575e-18
-1.95382e-18
-1.94784e-18
-1.94843e-18
-1.96323e-18
-1.95388e-18
-1.96636e-18
-1.96811e-18
-1.98825e-18
-1.97095e-18
-2.0006e-18
-1.98763e-18
-2.06134e-18
-2.0592e-18
-2.06502e-18
-2.05474e-18
-2.05529e-18
-2.04892e-18
-2.04843e-18
-2.03827e-18
-2.04571e-18
-2.02351e-18
-2.04271e-18
-2.02362e-18
-2.03783e-18
-2.01595e-18
-2.01376e-18
-2.0066e-18
-2.00724e-18
-1.99921e-18
-2.01389e-18
-2.00247e-18
-2.00559e-18
-1.98868e-18
-1.98632e-18
-1.97346e-18
-1.9774e-18
-1.97558e-18
-1.9781e-18
-1.9687e-18
-1.96533e-18
-1.96486e-18
-1.96399e-18
-1.94647e-18
-1.95714e-18
-1.95281e-18
-1.95608e-18
-1.95702e-18
-1.95144e-18
-1.95238e-18
-1.95021e-18
-1.94887e-18
-1.95899e-18
-1.94782e-18
-1.95916e-18
-1.95441e-18
-1.96718e-18
-1.96644e-18
-1.98381e-18
-1.97256e-18
-1.99625e-18
-1.98388e-18
-2.06592e-18
-2.06169e-18
-2.0684e-18
-2.06596e-18
-2.05563e-18
-2.04723e-18
-2.05186e-18
-2.03495e-18
-2.04768e-18
-2.01869e-18
-2.03339e-18
-2.02458e-18
-2.03121e-18
-2.01632e-18
-2.01101e-18
-2.01016e-18
-2.0082e-18
-2.0025e-18
-2.01273e-18
-1.99994e-18
-2.00242e-18
-1.98999e-18
-1.99148e-18
-1.97349e-18
-1.97828e-18
-1.97091e-18
-1.97901e-18
-1.96606e-18
-1.96417e-18
-1.96179e-18
-1.96757e-18
-1.94436e-18
-1.95457e-18
-1.95194e-18
-1.95608e-18
-1.95812e-18
-1.95484e-18
-1.95691e-18
-1.95072e-18
-1.95442e-18
-1.96289e-18
-1.94607e-18
-1.95623e-18
-1.94932e-18
-1.96722e-18
-1.95379e-18
-1.97166e-18
-1.96936e-18
-1.99543e-18
-1.98484e-18
-2.05736e-18
-2.0614e-18
-2.0652e-18
-2.07222e-18
-2.05819e-18
-2.04722e-18
-2.04876e-18
-2.02869e-18
-2.04465e-18
-2.02339e-18
-2.03575e-18
-2.01901e-18
-2.02946e-18
-2.01386e-18
-2.01053e-18
-2.01093e-18
-2.00142e-18
-2.00328e-18
-2.00771e-18
-2.00049e-18
-1.99808e-18
-1.99526e-18
-1.99632e-18
-1.97557e-18
-1.97561e-18
-1.9675e-18
-1.97554e-18
-1.96841e-18
-1.96027e-18
-1.96097e-18
-1.96222e-18
-1.95017e-18
-1.95583e-18
-1.95649e-18
-1.95291e-18
-1.95516e-18
-1.95722e-18
-1.95919e-18
-1.9561e-18
-1.94584e-18
-1.96114e-18
-1.94361e-18
-1.95979e-18
-1.94853e-18
-1.96579e-18
-1.95653e-18
-1.96476e-18
-1.97212e-18
-1.99149e-18
-1.99733e-18
-2.06038e-18
-2.06113e-18
-2.06072e-18
-2.05942e-18
-2.05848e-18
-2.04885e-18
-2.05032e-18
-2.03805e-18
-2.04425e-18
-2.02414e-18
-2.03615e-18
-2.02262e-18
-2.03827e-18
-2.0122e-18
-2.01316e-18
-2.0082e-18
-2.00318e-18
-2.00311e-18
-2.00695e-18
-2.00008e-18
-1.99833e-18
-1.98954e-18
-1.99136e-18
-1.97829e-18
-1.97532e-18
-1.96942e-18
-1.97274e-18
-1.97163e-18
-1.96177e-18
-1.96287e-18
-1.95755e-18
-1.95119e-18
-1.95308e-18
-1.95652e-18
-1.95422e-18
-1.95404e-18
-1.95733e-18
-1.953e-18
-1.95077e-18
-1.94558e-18
-1.95487e-18
-1.94662e-18
-1.95739e-18
-1.94395e-18
-1.96202e-18
-1.95908e-18
-1.98017e-18
-1.97688e-18
-1.9873e-18
-1.99209e-18
-2.06283e-18
-2.06301e-18
-2.06317e-18
-2.05496e-18
-2.05583e-18
-2.04518e-18
-2.04809e-18
-2.03059e-18
-2.04715e-18
-2.02763e-18
-2.03284e-18
-2.02984e-18
-2.03549e-18
-2.01206e-18
-2.01802e-18
-2.00595e-18
-2.00353e-18
-2.00247e-18
-2.00853e-18
-1.99606e-18
-2.00133e-18
-1.98648e-18
-1.98796e-18
-1.97507e-18
-1.97686e-18
-1.96987e-18
-1.96958e-18
-1.96909e-18
-1.96135e-18
-1.95946e-18
-1.95519e-18
-1.94855e-18
-1.95301e-18
-1.9566e-18
-1.95593e-18
-1.95157e-18
-1.9553e-18
-1.9548e-18
-1.94818e-18
-1.94825e-18
-1.95061e-18
-1.94852e-18
-1.96959e-18
-1.9478e-18
-1.96109e-18
-1.95923e-18
-1.97929e-18
-1.97716e-18
-1.98747e-18
-1.98568e-18
-2.05978e-18
-2.06612e-18
-2.06693e-18
-2.04712e-18
-2.05374e-18
-2.04526e-18
-2.04224e-18
-2.03533e-18
-2.0482e-18
-2.02223e-18
-2.0357e-18
-2.02865e-18
-2.02608e-18
-2.01034e-18
-2.01907e-18
-2.00756e-18
-2.00605e-18
-2.00088e-18
-2.00545e-18
-1.99631e-18
-2.00054e-18
-1.98724e-18
-1.9874e-18
-1.97262e-18
-1.97362e-18
-1.96936e-18
-1.97218e-18
-1.96798e-18
-1.96043e-18
-1.95744e-18
-1.95903e-18
-1.94758e-18
-1.95558e-18
-1.95541e-18
-1.95417e-18
-1.94776e-18
-1.95248e-18
-1.96097e-18
-1.9486e-18
-1.94309e-18
-1.96152e-18
-1.94891e-18
-1.96617e-18
-1.95256e-18
-1.96158e-18
-1.9592e-18
-1.98579e-18
-1.97354e-18
-1.98397e-18
-1.98343e-18
-2.04724e-18
-2.06014e-18
-2.05715e-18
-2.04416e-18
-2.05014e-18
-2.04948e-18
-2.04868e-18
-2.04025e-18
-2.04663e-18
-2.02121e-18
-2.04168e-18
-2.02403e-18
-2.02335e-18
-2.01141e-18
-2.02372e-18
-2.00906e-18
-2.00684e-18
-2.00138e-18
-2.00256e-18
-2.00161e-18
-1.99949e-18
-1.98744e-18
-1.98656e-18
-1.97049e-18
-1.97611e-18
-1.96879e-18
-1.97308e-18
-1.96952e-18
-1.96035e-18
-1.958e-18
-1.95516e-18
-1.95206e-18
-1.95431e-18
-1.95339e-18
-1.95377e-18
-1.94262e-18
-1.94966e-18
-1.96426e-18
-1.95065e-18
-1.93991e-18
-1.96153e-18
-1.94901e-18
-1.96687e-18
-1.94655e-18
-1.95715e-18
-1.96142e-18
-1.98588e-18
-1.97724e-18
-1.99052e-18
-1.99422e-18
-2.05759e-18
-2.06373e-18
-2.04801e-18
-2.05416e-18
-2.04337e-18
-2.04622e-18
-2.046e-18
-2.03294e-18
-2.04121e-18
-2.02439e-18
-2.02951e-18
-2.01471e-18
-2.03337e-18
-2.00382e-18
-2.01588e-18
-2.00703e-18
-2.00298e-18
-2.00096e-18
-2.0027e-18
-1.99961e-18
-1.9994e-18
-1.98923e-18
-1.98416e-18
-1.96775e-18
-1.97485e-18
-1.96854e-18
-1.97233e-18
-1.96852e-18
-1.95935e-18
-1.96026e-18
-1.95688e-18
-1.95259e-18
-1.95606e-18
-1.95266e-18
-1.95855e-18
-1.95089e-18
-1.95988e-18
-1.95135e-18
-1.95726e-18
-1.95198e-18
-1.95809e-18
-1.95052e-18
-1.96168e-18
-1.9503e-18
-1.96026e-18
-1.96714e-18
-1.97766e-18
-1.98805e-18
-1.99096e-18
-1.98757e-18
-2.06328e-18
-2.05947e-18
-2.05927e-18
-2.05972e-18
-2.04469e-18
-2.04668e-18
-2.04266e-18
-2.03128e-18
-2.03935e-18
-2.02529e-18
-2.03498e-18
-2.01764e-18
-2.03663e-18
-2.01215e-18
-2.01125e-18
-2.00541e-18
-1.99875e-18
-2.00218e-18
-2.00247e-18
-1.99761e-18
-2.00025e-18
-1.98422e-18
-1.98233e-18
-1.96989e-18
-1.97499e-18
-1.9682e-18
-1.9725e-18
-1.96969e-18
-1.96415e-18
-1.95665e-18
-1.95984e-18
-1.95178e-18
-1.95366e-18
-1.95352e-18
-1.96089e-18
-1.95058e-18
-1.95932e-18
-1.94555e-18
-1.9589e-18
-1.94729e-18
-1.95933e-18
-1.95102e-18
-1.95757e-18
-1.95381e-18
-1.96295e-18
-1.96344e-18
-1.97399e-18
-1.97873e-18
-1.99263e-18
-1.98534e-18
-2.06267e-18
-2.06584e-18
-2.0664e-18
-2.0574e-18
-2.04943e-18
-2.03881e-18
-2.03302e-18
-2.02749e-18
-2.04576e-18
-2.02516e-18
-2.02601e-18
-2.0194e-18
-2.02921e-18
-2.01525e-18
-2.01574e-18
-2.00258e-18
-1.9945e-18
-2.00054e-18
-2.00475e-18
-1.99598e-18
-2.00124e-18
-1.98495e-18
-1.98683e-18
-1.96935e-18
-1.97689e-18
-1.96776e-18
-1.97232e-18
-1.96756e-18
-1.96434e-18
-1.95548e-18
-1.9579e-18
-1.94761e-18
-1.95708e-18
-1.95349e-18
-1.96293e-18
-1.94684e-18
-1.96059e-18
-1.95062e-18
-1.95748e-18
-1.94451e-18
-1.95628e-18
-1.94415e-18
-1.95401e-18
-1.95517e-18
-1.97124e-18
-1.95575e-18
-1.97954e-18
-1.97225e-18
-1.99013e-18
-1.98106e-18
-2.05975e-18
-2.06671e-18
-2.06535e-18
-2.04733e-18
-2.05138e-18
-2.03928e-18
-2.03968e-18
-2.02554e-18
-2.04247e-18
-2.02686e-18
-2.02362e-18
-2.019e-18
-2.02971e-18
-2.01778e-18
-2.01584e-18
-1.99976e-18
-2.00354e-18
-1.99245e-18
-2.00225e-18
-1.99467e-18
-1.99957e-18
-1.98552e-18
-1.98612e-18
-1.96819e-18
-1.97401e-18
-1.96722e-18
-1.97181e-18
-1.96666e-18
-1.96092e-18
-1.95423e-18
-1.95691e-18
-1.95063e-18
-1.95934e-18
-1.94444e-18
-1.96394e-18
-1.94411e-18
-1.9536e-18
-1.95345e-18
-1.95505e-18
-1.94317e-18
-1.95268e-18
-1.94831e-18
-1.96125e-18
-1.95009e-18
-1.96433e-18
-1.95571e-18
-1.98133e-18
-1.97731e-18
-1.98323e-18
-2.05908e-18
-2.06078e-18
-2.06063e-18
-2.0476e-18
-2.04572e-18
-2.04157e-18
-2.04557e-18
-2.03115e-18
-2.04104e-18
-2.03038e-18
-2.02991e-18
-2.01848e-18
-2.02684e-18
-2.01149e-18
-2.01803e-18
-2.0004e-18
-2.0022e-18
-1.99588e-18
-2.00472e-18
-1.99727e-18
-2.00167e-18
-1.98635e-18
-1.98679e-18
-1.96965e-18
-1.97248e-18
-1.96698e-18
-1.97179e-18
-1.96579e-18
-1.95876e-18
-1.95052e-18
-1.95321e-18
-1.95108e-18
-1.95857e-18
-1.94998e-18
-1.96009e-18
-1.94555e-18
-1.95588e-18
-1.95347e-18
-1.9563e-18
-1.94521e-18
-1.94845e-18
-1.95149e-18
-1.96117e-18
-1.94839e-18
-1.96119e-18
-1.96081e-18
-1.98255e-18
-1.97993e-18
-2.05691e-18
-2.05795e-18
-2.06393e-18
-2.05795e-18
-2.04433e-18
-2.03997e-18
-2.04464e-18
-2.03306e-18
-2.03901e-18
-2.02685e-18
-2.03154e-18
-2.01782e-18
-2.03157e-18
-2.01136e-18
-2.0196e-18
-2.00555e-18
-1.999e-18
-1.99834e-18
-2.00374e-18
-1.99816e-18
-2.00272e-18
-1.98586e-18
-1.98483e-18
-1.97132e-18
-1.97302e-18
-1.96666e-18
-1.97146e-18
-1.96335e-18
-1.95664e-18
-1.94875e-18
-1.95118e-18
-1.95223e-18
-1.95285e-18
-1.95489e-18
-1.95611e-18
-1.9495e-18
-1.95512e-18
-1.94918e-18
-1.95454e-18
-1.95367e-18
-1.95123e-18
-1.95112e-18
-1.96011e-18
-1.94615e-18
-1.95972e-18
-1.95924e-18
-1.97338e-18
-2.06823e-18
-2.05588e-18
-2.06061e-18
-2.05523e-18
-2.04142e-18
-2.04169e-18
-2.03523e-18
-2.03256e-18
-2.04507e-18
-2.03196e-18
-2.02419e-18
-2.01659e-18
-2.03303e-18
-2.00681e-18
-2.02055e-18
-2.00595e-18
-1.99888e-18
-1.99532e-18
-2.00325e-18
-1.99547e-18
-2.00005e-18
-1.98641e-18
-1.98261e-18
-1.97013e-18
-1.97516e-18
-1.96742e-18
-1.97124e-18
-1.96638e-18
-1.95921e-18
-1.94963e-18
-1.95228e-18
-1.94834e-18
-1.95337e-18
-1.95011e-18
-1.95456e-18
-1.94485e-18
-1.95982e-18
-1.95175e-18
-1.9559e-18
-1.95783e-18
-1.94524e-18
-1.94353e-18
-1.95885e-18
-1.95873e-18
-1.96284e-18
-1.96243e-18
-2.05943e-18
-2.05447e-18
-2.05198e-18
-2.05224e-18
-2.04358e-18
-2.03646e-18
-2.03993e-18
-2.03048e-18
-2.0349e-18
-2.02318e-18
-2.02441e-18
-2.01446e-18
-2.02991e-18
-2.01332e-18
-2.01642e-18
-2.00025e-18
-2.00063e-18
-1.99075e-18
-2.0044e-18
-1.99539e-18
-1.9968e-18
-1.98916e-18
-1.98164e-18
-1.96921e-18
-1.97355e-18
-1.96961e-18
-1.97185e-18
-1.9667e-18
-1.95909e-18
-1.95116e-18
-1.95342e-18
-1.94483e-18
-1.95546e-18
-1.94837e-18
-1.9573e-18
-1.94312e-18
-1.95331e-18
-1.9598e-18
-1.958e-18
-1.95009e-18
-1.95378e-18
-1.95337e-18
-1.95884e-18
-1.95304e-18
-1.96411e-18
-2.05154e-18
-2.05093e-18
-2.05025e-18
-2.04685e-18
-2.04031e-18
-2.02296e-18
-2.04248e-18
-2.02835e-18
-2.02902e-18
-2.02506e-18
-2.02067e-18
-2.01476e-18
-2.03112e-18
-2.01367e-18
-2.01582e-18
-2.00046e-18
-2.00019e-18
-1.99316e-18
-2.00495e-18
-1.99561e-18
-1.99516e-18
-1.98513e-18
-1.98596e-18
-1.9693e-18
-1.97427e-18
-1.9672e-18
-1.97137e-18
-1.96478e-18
-1.96047e-18
-1.95633e-18
-1.95499e-18
-1.94684e-18
-1.95541e-18
-1.95249e-18
-1.95755e-18
-1.94606e-18
-1.95286e-18
-1.95082e-18
-1.95054e-18
-1.95266e-18
-1.9549e-18
-1.96009e-18
-1.95926e-18
-1.94481e-18
-1.97501e-18
-2.05584e-18
-2.06137e-18
-2.06115e-18
-2.05247e-18
-2.03647e-18
-2.03141e-18
-2.04199e-18
-2.02829e-18
-2.03294e-18
-2.03302e-18
-2.02314e-18
-2.00984e-18
-2.03073e-18
-2.00879e-18
-2.01318e-18
-2.00203e-18
-1.9987e-18
-1.99393e-18
-2.00491e-18
-1.99797e-18
-1.99473e-18
-1.98072e-18
-1.98518e-18
-1.9707e-18
-1.97175e-18
-1.9655e-18
-1.97098e-18
-1.96729e-18
-1.96477e-18
-1.95514e-18
-1.9496e-18
-1.94722e-18
-1.95544e-18
-1.95357e-18
-1.95354e-18
-1.94882e-18
-1.9583e-18
-1.94742e-18
-1.95476e-18
-1.94942e-18
-1.94663e-18
-1.95491e-18
-1.96012e-18
-1.94602e-18
-1.96665e-18
-2.05623e-18
-2.06071e-18
-2.06435e-18
-2.05631e-18
-2.03782e-18
-2.03406e-18
-2.03817e-18
-2.03198e-18
-2.04103e-18
-2.03032e-18
-2.01779e-18
-2.01828e-18
-2.02885e-18
-2.01631e-18
-2.01676e-18
-1.9967e-18
-2.00301e-18
-1.99638e-18
-2.00391e-18
-1.99376e-18
-1.99148e-18
-1.98457e-18
-1.98274e-18
-1.97269e-18
-1.97041e-18
-1.96519e-18
-1.97102e-18
-1.9712e-18
-1.96325e-18
-1.95612e-18
-1.95186e-18
-1.94356e-18
-1.95193e-18
-1.95246e-18
-1.95536e-18
-1.94571e-18
-1.95306e-18
-1.94965e-18
-1.95438e-18
-1.9526e-18
-1.94338e-18
-1.94669e-18
-1.95619e-18
-1.9505e-18
-1.96573e-18
-2.05559e-18
-2.05772e-18
-2.05779e-18
-2.0466e-18
-2.04109e-18
-2.03559e-18
-2.03071e-18
-2.02794e-18
-2.03943e-18
-2.02767e-18
-2.02463e-18
-2.0157e-18
-2.03205e-18
-2.0159e-18
-2.01795e-18
-1.99516e-18
-2.00308e-18
-1.99586e-18
-2.00198e-18
-1.99099e-18
-1.99117e-18
-1.98335e-18
-1.97968e-18
-1.97033e-18
-1.97017e-18
-1.96801e-18
-1.9711e-18
-1.96976e-18
-1.95998e-18
-1.95279e-18
-1.95234e-18
-1.94198e-18
-1.95031e-18
-1.95134e-18
-1.95231e-18
-1.94501e-18
-1.95395e-18