/*--------------------------------*- C++ -*----------------------------------*\
  =========                 |
  \\      /  F ield         | OpenFOAM: The Open Source CFD Toolbox
   \\    /   O peration     | Website:  https://openfoam.org
    \\  /    A nd           | Version:  7
     \\/     M anipulation  |
\*---------------------------------------------------------------------------*/
FoamFile
{
    version     2.0;
    format      ascii;
    class       surfaceScalarField;
    location    "104000";
    object      phi;
}
// * * * * * * * * * * * * * * * * * * * * * * * * * * * * * * * * * * * * * //

dimensions      [0 3 -1 0 0 0 0];

internalField   nonuniform List<scalar> 
9490
(
-2.77645e-23
1.72903e-22
3.23147e-23
2.14604e-23
-2.77786e-23
2.05779e-22
3.26196e-23
-2.59769e-23
3.09421e-23
-2.4116e-23
9.18393e-23
-1.71962e-23
4.2501e-23
-4.37412e-23
-2.8233e-23
2.06821e-22
3.1389e-23
-2.63147e-23
1.85025e-23
-2.50057e-23
3.88153e-23
-1.69009e-23
2.08268e-23
-3.47226e-23
-2.92444e-23
2.49166e-22
2.98826e-23
-2.74185e-23
2.44124e-23
-2.53414e-23
1.03104e-22
-1.76222e-23
4.06239e-23
-3.49363e-23
-2.89241e-23
1.72796e-22
2.84453e-23
-2.7548e-23
-5.21294e-23
-2.57456e-23
9.17153e-23
-1.80277e-23
1.04523e-22
-4.07506e-23
-3.10764e-23
9.2793e-23
2.66228e-23
-2.63269e-23
-8.8886e-23
-2.71934e-23
5.40303e-23
-1.84276e-23
1.01018e-22
-2.86037e-23
-3.15857e-23
9.10776e-23
2.72872e-23
-2.63142e-23
-5.94371e-23
-2.5536e-23
4.75891e-23
-1.93081e-23
4.15206e-24
-3.62447e-23
-3.10364e-23
8.3098e-23
2.7814e-23
-2.60994e-23
-6.43157e-23
-2.4943e-23
4.43426e-23
-1.91015e-23
-8.08447e-24
-8.0947e-23
-3.20393e-23
8.60137e-23
2.72169e-23
-2.51589e-23
3.93285e-23
-2.54864e-23
4.70699e-23
-1.90621e-23
2.46449e-23
-9.61695e-23
-3.23284e-23
9.31589e-23
2.53372e-23
-2.50619e-23
1.50046e-22
-2.58979e-23
5.11243e-23
-1.93834e-23
5.53859e-23
-1.07143e-22
-3.12518e-23
-5.87141e-24
2.41431e-23
-2.61549e-23
1.38889e-22
-2.49939e-23
5.27726e-23
-2.04596e-23
9.51542e-23
-4.92722e-23
-2.99904e-23
-4.42268e-25
2.39182e-23
-2.65967e-23
1.33381e-22
-2.61503e-23
5.5476e-23
-2.07148e-23
8.68654e-23
-6.07126e-23
-2.76679e-23
-5.78159e-23
2.41716e-23
-2.70245e-23
8.88872e-23
-2.65791e-23
4.05774e-23
-2.10123e-23
8.31923e-23
-2.71486e-23
-5.12036e-23
2.36778e-23
-2.65111e-23
8.60823e-23
-2.6543e-23
2.76063e-23
7.51523e-23
-2.67472e-23
-4.74892e-23
2.46047e-23
-2.60391e-23
8.20027e-23
-2.73951e-23
2.7558e-23
1.31104e-22
-2.6574e-23
-1.22502e-22
2.46028e-23
-2.47406e-23
1.44559e-22
-2.73251e-23
3.06798e-23
-2.57475e-23
-4.89244e-23
2.5097e-23
-2.4754e-23
1.44957e-22
-3.06372e-23
-2.45493e-23
-6.99263e-23
2.49239e-23
-2.43402e-23
1.47826e-22
-2.3969e-23
-8.2368e-23
2.58065e-23
1.45774e-22
-2.40447e-23
-3.03059e-23
2.52482e-23
1.4417e-22
-2.35254e-23
-5.80645e-23
2.40925e-23
1.31086e-22
-2.36276e-23
-3.06756e-23
2.32227e-23
1.15315e-22
-2.27039e-23
3.54834e-23
2.34693e-23
2.24431e-23
1.08918e-23
5.02976e-23
-4.37971e-24
1.36545e-23
1.75579e-23
7.32531e-24
5.46001e-23
1.96383e-23
9.73281e-23
6.06527e-24
3.67904e-23
1.27096e-23
-8.66547e-24
7.78429e-24
7.64474e-23
8.6511e-24
2.28602e-23
9.16559e-24
1.32545e-22
9.56382e-24
1.47208e-23
7.16921e-24
8.85589e-24
-5.51066e-24
5.43463e-24
-1.44805e-23
3.6439e-23
-1.15613e-23
7.56613e-23
-1.55319e-24
1.73031e-22
1.66863e-23
1.89903e-22
1.28885e-23
7.05283e-23
1.69787e-23
7.0455e-23
5.80072e-24
6.76901e-23
7.00133e-23
9.77834e-24
8.19373e-23
-4.16635e-24
1.42743e-23
9.22735e-23
8.79406e-24
-1.72166e-23
1.57756e-23
8.88415e-23
5.53346e-24
3.87663e-24
1.1772e-23
2.58704e-24
7.40856e-24
9.44535e-23
1.01211e-23
2.07853e-23
8.93498e-24
2.16498e-22
7.45819e-24
1.11129e-23
6.91116e-24
1.26724e-23
-3.44409e-24
-1.41672e-23
-1.4495e-23
1.49027e-23
-9.03445e-24
1.03676e-22
1.06313e-25
1.7214e-22
1.45725e-23
1.81367e-22
1.16641e-23
6.79204e-23
1.65555e-23
3.09123e-23
4.39119e-24
4.06354e-23
9.7542e-23
1.10817e-23
4.06718e-23
-5.597e-24
1.23443e-23
5.93139e-23
8.9697e-24
-5.85902e-24
1.45001e-23
7.79987e-23
5.01506e-24
-2.81452e-23
1.20616e-23
1.36898e-23
7.01662e-24
1.12769e-22
1.15817e-23
2.3646e-23
6.18552e-24
2.0778e-22
7.13437e-24
1.23056e-23
5.00652e-24
1.73752e-23
-2.26532e-24
-4.23706e-24
-1.17893e-23
3.58644e-23
-7.54157e-24
9.00124e-23
1.05795e-24
1.74293e-22
1.18411e-23
1.44143e-22
1.28257e-23
8.56338e-23
1.69799e-23
3.45522e-23
4.60823e-24
1.76876e-23
9.50987e-23
8.85487e-24
3.97928e-23
-8.44297e-24
1.23693e-23
2.4277e-23
9.16859e-24
-2.47023e-23
1.18815e-23
3.75258e-23
6.21348e-24
7.5556e-24
1.19816e-23
1.97639e-23
8.19672e-24
4.65275e-23
1.4048e-23
-2.61341e-23
4.6326e-24
1.57123e-22
5.925e-24
1.41316e-23
6.18927e-24
6.61509e-23
-1.74249e-24
3.52537e-24
-1.01549e-23
3.28816e-23
-4.8978e-24
1.1122e-22
4.50383e-25
9.53183e-23
1.22804e-23
1.39949e-22
1.04796e-23
8.43863e-23
1.67132e-23
3.49116e-23
5.98291e-24
3.22891e-23
9.18706e-23
7.13726e-24
4.55712e-23
-9.8255e-24
9.55086e-24
7.10982e-23
1.0568e-23
-6.53138e-23
1.19242e-23
2.81456e-23
6.59381e-24
6.97632e-24
1.14184e-23
2.55304e-23
7.50911e-24
4.05736e-23
1.50953e-23
3.91132e-24
3.53811e-24
1.16702e-22
5.39952e-24
4.71332e-23
4.86838e-24
5.70828e-23
-7.96628e-25
1.69862e-23
-7.96433e-24
-1.75047e-24
-4.5649e-24
7.00001e-23
6.81784e-25
5.83026e-23
1.28776e-23
9.97927e-23
7.77619e-24
5.51741e-23
1.74044e-23
2.73301e-23
5.48242e-24
4.39496e-23
1.23781e-22
7.51711e-24
1.97016e-23
-8.88511e-24
6.39219e-24
8.36388e-23
1.0395e-23
-7.3262e-23
1.18053e-23
3.74083e-24
7.29731e-24
3.87634e-24
8.95665e-24
2.3313e-23
9.79473e-24
8.00918e-23
1.71986e-23
-1.15714e-23
4.04908e-24
7.18976e-23
4.96773e-24
-4.22445e-23
5.63247e-24
8.869e-23
-1.63209e-25
2.9418e-23
-6.50208e-24
4.15681e-23
-4.83766e-24
1.03676e-22
1.20084e-24
8.20042e-23
1.26577e-23
9.21039e-23
5.84934e-24
6.48494e-23
1.8173e-23
6.12291e-23
6.23376e-24
1.31279e-23
8.75211e-23
6.26557e-24
-5.20263e-23
-9.80126e-24
4.92896e-24
1.27216e-22
1.08701e-23
-4.87736e-23
1.1546e-23
-4.29767e-23
6.96806e-24
-3.21931e-25
9.30448e-24
-3.17889e-25
8.60441e-24
1.10347e-22
1.71141e-23
-2.52241e-23
4.50135e-24
7.69767e-23
4.37004e-24
-3.95797e-23
6.00794e-24
1.29067e-22
-9.01227e-25
8.21324e-23
-6.53973e-24
5.19363e-23
-3.44183e-24
7.3696e-23
-7.66356e-25
4.93561e-23
1.31313e-23
8.65439e-23
5.3746e-24
-1.70835e-23
1.81476e-23
5.71349e-23
6.97699e-24
5.92837e-23
7.20649e-23
8.90426e-24
-6.4017e-23
-8.86834e-24
1.33148e-24
1.42371e-23
9.44531e-24
-2.18186e-23
1.26264e-23
-8.61368e-23
7.78521e-24
-3.87568e-23
1.07276e-23
-1.86707e-23
9.06078e-24
1.87435e-22
1.60225e-23
-8.2211e-23
4.3568e-24
9.93778e-23
4.67355e-24
-3.42794e-23
7.36705e-24
1.29423e-22
-2.42083e-24
9.35697e-24
-4.30889e-24
5.10341e-23
-4.52865e-24
-5.24404e-24
-1.69068e-25
2.08783e-23
1.34964e-23
6.56081e-23
5.86844e-24
-2.34643e-23
1.96734e-23
5.32078e-23
5.31612e-24
-5.25824e-24
7.75993e-25
6.99812e-23
4.07769e-24
-1.73614e-23
5.67495e-24
2.1615e-23
2.49837e-24
1.51439e-23
4.98311e-24
-7.24251e-23
-1.50537e-23
-5.65036e-23
-2.126e-23
-3.71534e-23
-1.56213e-23
6.13518e-23
-1.96767e-23
-5.09553e-23
-1.73949e-23
5.84184e-24
-1.27384e-23
-3.58503e-23
-4.09343e-24
2.12687e-23
-2.06055e-23
-3.31196e-23
-1.35673e-23
1.47952e-23
-7.60693e-24
4.33422e-23
-1.92305e-23
1.1149e-23
1.8973e-23
-5.82065e-24
3.25289e-25
-3.94028e-23
9.41774e-24
1.01569e-23
1.29457e-23
-8.83514e-23
9.01874e-24
9.47142e-23
1.1922e-23
3.74763e-23
6.62416e-24
9.10217e-23
1.74695e-23
-2.61896e-23
2.47351e-24
1.05416e-22
6.14541e-24
-5.69026e-23
8.98901e-24
1.25893e-22
-3.95074e-24
-1.0754e-22
-5.01947e-24
6.2869e-23
-4.7158e-24
-3.13656e-24
2.45416e-25
2.56829e-23
1.19169e-23
4.31153e-23
6.38677e-24
1.32195e-23
1.92927e-23
4.70675e-23
5.95761e-24
-2.3196e-23
4.10014e-25
6.26734e-23
4.13476e-24
1.9755e-23
5.04587e-24
1.24559e-24
1.44985e-24
1.93064e-23
5.4143e-24
-4.27558e-23
-1.43645e-23
-5.38854e-23
-1.98458e-23
-1.35287e-23
-1.69589e-23
6.79287e-23
-1.95538e-23
-8.12934e-23
-1.72821e-23
2.6442e-23
-1.15418e-23
3.85429e-24
-4.26032e-24
2.64447e-23
-1.94448e-23
-9.30917e-23
-1.30795e-23
-2.42446e-23
-7.39879e-24
3.86008e-23
-5.80816e-24
-2.78155e-23
-1.77449e-23
-3.32369e-23
-5.33043e-23
8.94489e-24
-2.25879e-23
-7.08597e-24
1.07885e-24
-9.87268e-23
7.55962e-24
3.43421e-23
1.42995e-23
-8.61373e-23
1.00747e-23
9.18143e-23
9.54262e-24
-6.77499e-23
5.73099e-24
5.55964e-23
1.98292e-23
-4.70525e-23
5.47073e-25
-2.20298e-24
6.37226e-24
-7.40904e-23
7.34751e-24
1.20697e-22
-2.15548e-24
-1.2081e-22
-5.15076e-24
1.22234e-22
-4.57132e-24
1.10535e-23
5.9522e-25
3.39741e-23
1.27643e-23
4.91199e-23
5.90942e-24
2.26257e-23
1.9115e-23
7.58434e-23
6.78572e-24
-1.40859e-23
7.4569e-25
6.29932e-23
3.45208e-24
-9.45991e-24
4.77664e-24
8.12104e-24
7.94231e-25
2.20227e-23
4.98571e-24
-4.50977e-23
-1.27583e-23
-5.12855e-23
-1.9494e-23
-5.48357e-23
-1.78053e-23
7.91113e-23
-1.95219e-23
-8.13713e-23
-1.58355e-23
4.57458e-23
-1.2241e-23
7.65127e-24
-5.54239e-24
4.10449e-23
-1.79049e-23
-7.76475e-23
-1.27501e-23
-5.87041e-23
-6.06609e-24
6.61805e-23
-7.32085e-24
-6.62015e-23
-1.81295e-23
-5.22712e-23
-1.67416e-23
-4.97237e-23
-2.91226e-23
8.27101e-24
-2.19673e-23
-6.7863e-24
7.00737e-25
-1.05275e-22
7.50813e-24
6.29747e-23
1.68085e-23
-5.11591e-23
6.3475e-24
2.97576e-23
1.05644e-23
3.14957e-24
4.97209e-24
2.2864e-23
1.96646e-23
1.63687e-23
-1.68094e-25
-6.01886e-23
8.71592e-24
-9.42805e-23
4.7564e-24
2.66895e-23
9.27755e-25
-1.09151e-22
-5.97505e-24
1.38506e-22
-5.89668e-24
2.94348e-23
1.99744e-24
8.77684e-23
1.26481e-23
7.67312e-23
6.62763e-24
3.89341e-23
1.87529e-23
6.46751e-23
7.46719e-24
2.51005e-23
3.23353e-25
3.33241e-23
3.21801e-24
-5.87587e-24
4.69984e-24
1.16085e-23
2.50395e-25
-9.43422e-24
5.01799e-24
-5.17541e-23
-1.22006e-23
-4.64142e-23
-1.85713e-23
-4.81498e-23
-1.86145e-23
8.10662e-23
-1.94739e-23
-1.07636e-22
-1.40753e-23
5.8195e-23
-1.28504e-23
-2.52173e-23
-6.74686e-24
8.36384e-23
-1.74115e-23
-7.40038e-23
-1.12071e-23
-5.75708e-23
-8.07449e-24
6.516e-23
-7.72726e-24
-6.6718e-23
-1.59853e-23
-4.8237e-23
-1.76395e-23
-5.0295e-23
-1.20681e-23
-4.60439e-23
2.31066e-24
-7.27286e-23
9.29341e-24
7.80461e-24
-2.14959e-23
-5.06683e-24
1.23554e-24
-8.05855e-23
6.444e-24
8.90756e-23
1.63831e-23
-4.57578e-23
7.05248e-24
4.14943e-23
9.07903e-24
-9.83208e-24
6.39935e-24
-1.93689e-23
1.811e-23
7.95141e-23
6.39689e-25
-4.00579e-23
8.1601e-24
-3.07049e-23
5.0482e-24
1.26142e-23
3.44455e-24
-1.05577e-22
-6.13302e-24
6.92698e-23
-4.65985e-24
2.30816e-23
1.72015e-24
1.50753e-22
1.12787e-23
1.11378e-22
6.58046e-24
9.28725e-23
1.89952e-23
6.08884e-23
7.12677e-24
-6.20901e-24
9.28291e-25
4.34586e-23
3.8216e-24
-9.80151e-24
3.56431e-24
1.30763e-23
8.153e-26
-4.13719e-24
5.283e-24
-5.82975e-23
-1.1792e-23
-4.02751e-23
-1.74849e-23
-3.86588e-23
-1.96998e-23
8.27562e-23
-1.88441e-23
-1.05438e-22
-1.39962e-23
1.04665e-22
-1.22251e-23
-2.54792e-23
-8.50205e-24
-4.0652e-23
-1.75022e-23
-4.86375e-23
-8.92009e-24
-9.11017e-24
-1.02323e-23
3.4262e-23
-6.87442e-24
-6.73444e-23
-1.43452e-23
-1.57306e-23
-1.9181e-23
-4.50717e-23
-1.03966e-23
-1.77e-24
3.27887e-24
-2.81201e-23
-2.51417e-24
2.97587e-23
-1.93469e-23
7.72344e-23
5.95367e-23
6.14777e-24
-1.85227e-23
-5.35622e-24
2.21966e-24
-1.47796e-22
6.57557e-24
4.815e-23
1.61178e-23
-3.55548e-23
7.53038e-24
1.72189e-23
8.43073e-24
1.88315e-23
8.22945e-24
-2.47363e-23
1.50412e-23
7.04766e-23
4.5386e-25
-2.62107e-23
8.16994e-24
-5.9435e-23
5.44001e-24
-8.80647e-23
6.10735e-24
-6.10733e-23
-7.28391e-24
6.76544e-23
-1.72094e-24
1.14017e-22
7.11333e-25
7.22563e-23
1.05218e-23
6.49185e-23
7.1325e-24
1.1025e-22
1.79604e-23
4.32866e-23
7.24104e-24
-2.17835e-23
-1.74849e-25
5.37486e-23
4.33368e-24
2.33322e-23
2.46721e-24
-1.57042e-23
-2.16967e-25
3.30373e-23
5.76157e-24
-7.20825e-23
-1.14015e-23
-3.99367e-23
-1.67418e-23
-4.84947e-23
-2.0877e-23
4.0539e-23
-1.76878e-23
-1.11249e-22
-1.36649e-23
6.84759e-23
-1.30783e-23
-2.06734e-23
-7.12647e-24
-1.0637e-23
-1.60079e-23
-1.58155e-23
-8.82694e-24
-6.50142e-24
-1.17983e-23
4.2479e-23
-6.0559e-24
1.69423e-23
-1.46242e-23
3.09597e-24
-1.80567e-23
-3.68824e-23
-9.93742e-24
1.05416e-23
3.6814e-24
1.81828e-23
5.94834e-25
-9.24338e-24
-1.91991e-23
3.12062e-23
-1.18301e-23
4.9322e-23
-2.08083e-23
-3.13747e-23
-2.42528e-23
-4.11085e-23
-3.55831e-23
5.49104e-24
-1.1214e-23
-3.84915e-24
3.36502e-24
-1.54876e-22
6.90498e-24
-3.07585e-23
1.4663e-23
2.08953e-23
6.98281e-24
2.88316e-23
1.00021e-23
-7.7961e-24
9.45106e-24
-3.22422e-23
1.2285e-23
5.89391e-23
-9.77645e-27
-3.61707e-23
8.36673e-24
-3.44986e-24
6.51953e-24
-1.05426e-22
6.34933e-24
-1.79182e-23
-4.21192e-24
7.43279e-24
-3.08446e-24
-1.13698e-23
2.04627e-24
9.90878e-23
9.31223e-24
-1.0574e-23
6.78279e-24
4.32642e-23
1.6732e-23
6.90715e-23
8.73366e-24
1.63596e-23
-7.38518e-25
-1.42699e-23
4.19866e-24
2.22923e-23
2.26492e-24
-1.3209e-23
-1.12553e-24
6.60867e-23
6.14589e-24
-8.44543e-23
-1.12607e-23
-6.94773e-23
-1.60963e-23
-7.84817e-23
-2.13586e-23
5.08127e-23
-1.68777e-23
-7.11171e-23
-1.33255e-23
5.87058e-23
-1.37981e-23
-1.27624e-23
-6.29732e-24
-1.4909e-23
-1.51776e-23
-7.21948e-23
-8.25759e-24
-1.01905e-24
-1.11391e-23
1.89009e-23
-6.58309e-24
3.80532e-23
-1.42359e-23
1.05047e-23
-1.85657e-23
-2.13679e-23
-7.86314e-24
9.18001e-23
2.71629e-24
6.09334e-23
2.48248e-24
-1.54063e-23
-1.95389e-23
-2.08944e-23
-1.25142e-23
1.94895e-23
-2.13147e-23
-7.07946e-23
-2.22187e-23
-3.9362e-23
-2.82906e-23
-6.80993e-23
-2.4728e-23
1.60385e-22
-3.30537e-23
4.88264e-24
-1.41302e-24
-2.42747e-24
2.68374e-24
-9.40633e-23
8.28112e-24
-1.09151e-23
1.43327e-23
3.36979e-23
6.77908e-24
3.79316e-23
9.46667e-24
-1.20438e-23
1.18217e-23
-5.3291e-23
1.11929e-23
5.54059e-23
6.41222e-25
5.2726e-23
6.28658e-24
3.55017e-23
8.30755e-24
-3.72718e-23
7.37051e-24
-1.13426e-23
-3.61667e-24
1.80473e-23
-2.8306e-24
-1.3879e-24
1.34909e-24
1.77101e-23
9.51226e-24
-6.68514e-24
6.90189e-24
5.82164e-23
1.68701e-23
9.25806e-23
8.12448e-24
-7.6552e-23
-5.00855e-27
-2.80784e-23
4.14972e-24
5.37873e-23
2.62043e-24
-1.64417e-23
-2.82831e-24
6.2045e-23
6.42664e-24
-7.50467e-23
-1.14294e-23
-9.95098e-23
-1.45693e-23
-6.70621e-23
-2.15478e-23
-2.14351e-23
-1.7077e-23
-6.75541e-23
-1.24755e-23
4.40276e-23
-1.42368e-23
-1.23078e-23
-7.15218e-24
-8.98676e-24
-1.31701e-23
-1.34734e-23
-7.98099e-24
2.61808e-24
-1.00599e-23
1.76727e-23
-6.82984e-24
4.22939e-23
-1.40296e-23
5.93245e-23
-1.81205e-23
-3.5048e-24
-7.70294e-24
8.73228e-23
2.16596e-24
7.40249e-23
1.96152e-24
4.10114e-23
-1.84327e-23
-1.16383e-22
-1.39707e-23
-3.2939e-23
-2.11448e-23
-1.08519e-22
-2.1563e-23
-7.45597e-23
-2.67944e-23
-8.97376e-23
-2.59213e-23
8.73107e-23
-1.72729e-23
-2.56293e-23
-1.23806e-23
7.76004e-23
-2.67556e-23
1.11643e-22
9.47158e-23
4.12476e-24
1.15938e-23
-1.20454e-24
3.22086e-24
-7.81905e-23
8.4156e-24
6.55679e-24
1.57012e-23
3.12412e-23
3.28499e-24
-8.00331e-23
1.01311e-23
-4.41576e-23
1.12646e-23
-1.12034e-22
1.09671e-23
-3.441e-23
6.85715e-25
9.61211e-24
5.53154e-24
-2.47586e-23
8.7225e-24
7.62015e-23
6.94738e-24
1.41974e-24
-4.11838e-24
4.63838e-23
-2.49881e-24
5.81543e-24
1.47071e-24
8.11406e-23
1.02945e-23
8.33652e-23
8.10619e-24
2.57636e-23
1.46447e-23
7.84424e-23
9.33538e-24
-1.12446e-22
6.01173e-25
2.91937e-23
3.77411e-24
6.12831e-23
3.19341e-24
1.83756e-23
-4.18646e-24
6.19001e-23
6.04321e-24
-3.94072e-23
-1.10683e-23
-8.95109e-23
-1.41727e-23
-8.03705e-24
-2.07743e-23
3.50656e-23
-1.72147e-23
-6.63101e-23
-1.13771e-23
7.62221e-23
-1.52264e-23
1.03768e-23
-6.63922e-24
-1.24252e-23
-1.3262e-23
8.14767e-24
-7.74858e-24
8.75378e-24
-9.16107e-24
2.78448e-23
-6.02314e-24
-3.1532e-23
-1.48711e-23
-1.10289e-23
-1.64297e-23
1.00091e-23
-6.52628e-24
8.73816e-23
1.76577e-24
7.98181e-23
7.58018e-25
-6.16305e-23
-1.80083e-23
-1.69804e-22
-1.37972e-23
-7.51199e-24
-1.99612e-23
-6.22259e-23
-2.08367e-23
-3.16396e-23
-2.62468e-23
-1.56556e-22
-2.46606e-23
-4.15356e-23
-1.64665e-23
-1.17025e-23
-1.26602e-23
7.86182e-23
-2.52446e-23
3.95068e-24
9.86226e-23
3.50921e-24
5.68937e-23
1.03966e-25
2.99876e-24
-6.10633e-23
8.06539e-24
-2.59162e-23
1.34705e-23
3.64663e-23
2.5169e-24
-6.12175e-23
9.52344e-24
-3.99327e-23
1.21353e-23
-1.00279e-22
1.32284e-23
-4.47914e-23
-3.18757e-25
1.64125e-23
8.36751e-24
7.68396e-23
6.74901e-24
2.71394e-23
8.26287e-24
2.40166e-23
-4.52992e-24
-3.18949e-23
-2.04257e-24
1.70076e-23
3.48244e-24
7.77702e-23
8.6613e-24
1.33469e-22
9.70174e-24
6.34132e-23
1.14289e-23
2.61885e-23
1.12364e-23
-3.36215e-23
4.21017e-25
4.21877e-23
4.68593e-24
6.86262e-23
2.58226e-24
4.76107e-23
-5.02622e-24
6.15929e-23
5.39738e-24
-1.69804e-23
-1.0282e-23
-7.55922e-23
-1.34576e-23
1.42384e-25
-2.11522e-23
-2.17706e-24
-1.6259e-23
-3.75593e-23
-1.10799e-23
6.87548e-23
-1.626e-23
4.01333e-23
-5.72754e-24
2.97504e-23
-1.25118e-23
-5.73192e-23
-7.35683e-24
2.05283e-23
-9.50703e-24
3.30115e-23
-6.75308e-24
-6.15417e-23
-1.31593e-23
-3.66892e-23
-1.61564e-23
-5.76307e-23
-5.51931e-24
9.16971e-23
-7.2888e-25
-4.3609e-23
6.84051e-25
-7.46989e-23
-1.76351e-23
-2.21062e-22
-1.37435e-23
7.62474e-24
-2.12926e-23
-7.21858e-23
-2.02622e-23
1.01679e-23
-2.62909e-23
-1.35847e-22
-2.2567e-23
-2.90712e-23
-1.45353e-23
7.13028e-23
-1.44234e-23
1.10963e-22
-2.22626e-23
3.47588e-23
2.25466e-23
2.57564e-24
7.503e-23
-2.8065e-25
2.45537e-24
-5.45401e-24
7.99992e-24
-4.85082e-23
1.35988e-23
3.87816e-23
7.78958e-25
-4.17368e-23
8.83412e-24
7.80246e-24
1.36558e-23
-8.99595e-23
1.31355e-23
-4.99443e-23
5.24016e-25
6.22679e-23
8.38786e-24
4.51632e-23
5.67273e-24
9.28474e-23
8.8403e-24
1.43564e-22
-3.15086e-24
-2.89383e-23
-2.73068e-24
-5.946e-23
5.22426e-24
1.24441e-22
7.61819e-24
1.32724e-22
8.38349e-24
7.46006e-23
1.0967e-23
1.83581e-23
1.31345e-23
3.41261e-23
-4.21927e-25
1.34117e-23
5.89364e-24
6.5873e-23
1.70557e-24
1.3187e-23
-5.14e-24
6.59555e-23
4.80794e-24
4.88274e-23
-9.37351e-24
-6.41494e-23
-1.37138e-23
1.93131e-23
-2.09205e-23
-3.13255e-23
-1.59787e-23
-5.03567e-23
-1.01754e-23
2.11641e-23
-1.66349e-23
3.50362e-23
-7.41648e-24
1.7724e-23
-1.08699e-23
-4.35051e-23
-7.603e-24
-9.38262e-24
-9.47854e-24
3.77773e-23
-6.43665e-24
-5.89645e-23
-1.28622e-23
-1.52699e-23
-1.42315e-23
-4.09209e-23
-7.19387e-24
9.40476e-23
-1.70323e-24
-3.86365e-23
9.65815e-25
-5.60925e-23
-1.51122e-23
-2.30227e-22
-1.33526e-23
-3.0876e-23
-2.01121e-23
-7.72092e-23
-2.1614e-23
3.29122e-23
-2.56259e-23
-7.85551e-23
-2.07761e-23
2.20173e-23
-1.6128e-23
1.49655e-22
-1.41363e-23
8.29778e-23
-2.14608e-23
-5.71724e-24
-3.44277e-24
2.15211e-24
1.30038e-22
-4.34438e-25
4.02307e-25
8.86794e-24
8.2736e-24
3.73628e-23
1.2501e-23
6.22953e-23
1.60717e-24
-2.48093e-23
8.63294e-24
5.49777e-23
1.48194e-23
-7.65644e-23
1.49521e-23
-2.78889e-23
4.22759e-25
7.7817e-23
9.44914e-24
1.27864e-23
6.24143e-24
5.65084e-23
6.05505e-24
1.27377e-22
-3.13575e-24
5.88977e-23
-1.23746e-24
2.01924e-23
5.69403e-24
8.42409e-23
7.01175e-24
1.4537e-22
6.85704e-24
7.6519e-23
1.13864e-23
1.5357e-23
1.3347e-23
1.09793e-23
-7.26257e-25
-6.14549e-24
6.7014e-24
1.00412e-22
1.16503e-24
-5.10851e-23
-4.54477e-24
1.07653e-22
3.13428e-24
3.54915e-23
-8.38726e-24
-5.13508e-23
-1.47229e-23
-5.6637e-23
-2.0483e-23
-2.89273e-23
-1.56756e-23
-5.659e-23
-8.72393e-24
2.31916e-24
-1.7485e-23
-1.74502e-23
-7.51429e-24
6.38756e-23
-1.03122e-23
-2.91105e-23
-6.93076e-24
-1.47114e-23
-9.28172e-24
8.2364e-23
-6.52299e-24
-3.60949e-23
-1.1792e-23
-1.76771e-24
-1.25596e-23
-2.37538e-23
-8.01128e-24
6.20817e-23
-1.78098e-24
-3.53616e-23
-6.28916e-26
-2.73034e-23
-1.33863e-23
-2.32274e-22
-1.34797e-23
-1.03681e-22
-1.90272e-23
-1.02587e-22
-2.23624e-23
4.33767e-23
-2.71403e-23
-5.71739e-23
-1.88824e-23
1.80319e-23
-1.77329e-23
1.21158e-22
-1.4045e-23
9.05498e-23
-1.97937e-23
-1.24198e-23
-5.9963e-24
2.76257e-24
1.0007e-22
-1.76412e-24
-6.52003e-25
-5.40414e-23
8.35432e-24
3.76857e-23
1.19128e-23
8.80912e-23
9.1283e-25
-1.39196e-24
7.17241e-24
1.07009e-22
1.56735e-23
-3.46384e-23
1.63288e-23
-2.46586e-23
3.78925e-26
9.41774e-23
9.97478e-24
6.60718e-23
7.56367e-24
5.22604e-23
6.00709e-24
1.51711e-22
-3.66358e-24
4.74465e-23
-1.11374e-24
3.71725e-23
7.2832e-24
1.9774e-22
5.57322e-24
1.88712e-22
5.80291e-24
3.47499e-23
1.15305e-23
7.20981e-24
1.38725e-23
2.00202e-23
-2.49831e-25
-6.51809e-23
5.49259e-24
6.42527e-23
2.91205e-24
-1.52103e-24
-5.11772e-24
8.70308e-23
2.25426e-24
6.63521e-23
-8.9214e-24
-4.32508e-23
-1.42585e-23
-4.67067e-23
-2.07642e-23
-2.03305e-23
-1.48091e-23
2.10356e-23
-8.57828e-24
-8.7968e-24
-1.672e-23
6.14256e-24
-7.81807e-24
1.2273e-22
-1.04509e-23
-2.04812e-23
-5.37278e-24
2.99889e-23
-9.65959e-24
4.80108e-24
-6.12019e-24
2.65145e-24
-1.1766e-23
-1.18514e-22
-1.19234e-23
3.04197e-23
-8.45019e-24
3.18013e-23
-2.19229e-24
4.52637e-24
-1.86946e-24
-3.61947e-23
-1.26421e-23
-2.29611e-22
-1.17632e-23
-9.46972e-23
-1.79075e-23
-9.96639e-23
-2.16442e-23
-2.68559e-23
-2.70206e-23
-3.22242e-23
-1.73164e-23
8.91823e-24
-1.83519e-23
9.53439e-23
-1.70253e-23
1.03477e-22
-1.91265e-23
7.0437e-23
-4.22352e-24
4.82162e-25
-2.13508e-23
-3.6764e-24
-3.9708e-25
-1.30324e-22
6.82965e-24
5.51011e-23
1.21166e-23
3.79547e-23
-5.93946e-25
-6.40505e-23
7.25959e-24
1.05686e-22
1.56801e-23
4.76146e-23
1.72004e-23
-2.15747e-23
1.14123e-25
9.87138e-23
8.57105e-24
4.60854e-23
7.79658e-24
9.35245e-23
5.96855e-24
1.7354e-22
-4.08855e-24
5.04971e-23
-6.66202e-25
3.99275e-23
7.54036e-24
1.8759e-22
4.45324e-24
1.55022e-22
6.02411e-24
7.021e-23
1.07117e-23
7.43173e-23
1.40007e-23
1.3636e-22
3.73613e-25
-4.6239e-23
5.61133e-24
7.10565e-23
3.65815e-24
-2.64167e-23
-4.90378e-24
5.73558e-23
8.46562e-25
5.61876e-23
-9.21029e-24
-3.67307e-23
-1.4114e-23
-4.59199e-23
-2.00099e-23
-1.21972e-23
-1.51667e-23
1.64831e-23
-7.96375e-24
-5.4603e-23
-1.54499e-23
2.3319e-23
-8.28399e-24
1.90573e-22
-1.03418e-23
-9.72313e-23
-5.67644e-24
7.40135e-23
-9.40878e-24
-1.10804e-24
-8.36034e-24
1.38411e-23
-8.67746e-24
-1.02197e-22
-1.20733e-23
-3.04087e-23
-7.5169e-24
3.80884e-23
-2.10307e-24
9.10746e-24
-3.18847e-24
-1.54691e-23
-1.08316e-23
-2.22408e-22
-1.04717e-23
-8.43808e-23
-1.82827e-23
-1.25232e-22
-1.964e-23
-2.00542e-23
-2.66262e-23
-8.61308e-24
-1.51981e-23
7.62085e-23
-1.90719e-23
2.30485e-23
-1.68474e-23
9.43515e-23
-2.05283e-23
6.83304e-23
1.24946e-23
-5.13336e-27
-1.59956e-23
-2.31007e-24
-7.67192e-26
-9.20052e-23
7.10823e-24
5.51135e-23
1.11351e-23
-5.03818e-24
5.76928e-25
-4.62947e-23
6.1038e-24
9.90086e-23
1.56326e-23
4.87749e-23
1.78505e-23
-1.41365e-23
5.72356e-25
8.70356e-23
1.06343e-23
-6.68431e-24
8.43581e-24
7.64344e-24
4.76223e-24
1.83724e-22
-3.29639e-24
6.41955e-23
9.45723e-25
5.50243e-23
6.81623e-24
1.43182e-22
4.17462e-24
1.53156e-22
5.52859e-24
1.94124e-23
1.17319e-23
5.53906e-23
1.24204e-23
1.50037e-22
5.81232e-25
-2.74701e-23
5.96264e-24
1.07574e-22
3.96403e-24
-2.12874e-23
-4.58929e-24
8.59373e-24
-2.90039e-25
4.69476e-23
-9.22589e-24
-6.78581e-23
-1.39247e-23
-4.09327e-23
-1.95319e-23
-2.39941e-23
-1.58064e-23
4.7341e-23
-6.86397e-24
7.21625e-24
-1.36121e-23
3.79201e-23
-1.06281e-23
1.10385e-22
-9.59747e-24
-9.9282e-23
-5.84527e-24
7.60056e-23
-8.0063e-24
-1.55083e-23
-1.02822e-23
2.45854e-23
-8.32578e-24
-4.47064e-23
-1.07496e-23
-9.78019e-24
-7.79541e-24
4.00635e-23
-2.29677e-24
-5.13509e-24
-4.94401e-24
-1.5212e-23
-1.19915e-23
-8.70949e-23
-9.90198e-24
-5.73346e-24
-1.73174e-23
-6.83836e-23
-1.84623e-23
-1.74145e-23
-2.546e-23
8.3718e-24
-1.50258e-23
5.44337e-23
-1.94075e-23
2.04726e-23
-1.73377e-23
9.71489e-23
-2.0484e-23
6.63811e-23
-3.0766e-23
4.15117e-25
-1.15951e-23
-4.79754e-25
3.2669e-25
-9.39011e-23
7.19945e-24
4.83231e-23
1.07319e-23
-1.11569e-23
1.08417e-24
-1.14779e-22
7.04551e-24
-3.61719e-23
1.62409e-23
4.85805e-23
1.8021e-23
-7.28092e-24
-3.50645e-25
3.15387e-23
1.10581e-23
6.06704e-23
9.6854e-24
6.54258e-23
3.21542e-24
1.50539e-22
-2.6417e-24
7.04096e-23
7.81588e-25
1.07181e-22
7.07103e-24
1.36508e-22
3.01888e-24
1.08597e-22
6.02982e-24
7.94722e-23
1.28217e-23
2.92387e-23
1.10105e-23
1.45676e-22
9.47622e-25
-2.82976e-23
5.42169e-24
1.1616e-22
3.62559e-24
-5.6821e-23
-3.80075e-24
4.67352e-24
-1.66587e-24
1.17924e-24
-8.622e-24
-8.91379e-23
-1.40196e-23
-7.34719e-23
-1.89677e-23
8.82808e-24
-1.58423e-23
8.01996e-23
-6.325e-24
-1.09256e-23
-1.3324e-23
1.79305e-23
-1.14839e-23
7.20888e-23
-8.84738e-24
-1.00085e-22
-5.29019e-24
1.0017e-22
-7.82837e-24
-5.75697e-23
-1.07091e-23
7.73046e-23
-7.83262e-24
-2.46028e-23
-9.54181e-24
5.40801e-23
-8.57169e-24
5.17512e-23
-1.8868e-24
2.90135e-23
-4.19697e-24
5.99757e-23
-1.16107e-23
-1.0532e-22
-9.95986e-24
2.17948e-23
-1.67296e-23
-5.53138e-23
-1.9164e-23
-8.39165e-24
-2.51447e-23
6.04169e-23
-1.46661e-23
1.23576e-22
-1.97427e-23
2.14364e-23
-1.74087e-23
1.05807e-22
-2.15608e-23
6.17765e-23
-7.21654e-23
-8.87016e-25
-3.00305e-24
-1.66952e-25
1.27755e-24
-1.43678e-23
6.30751e-24
4.43758e-23
9.68477e-24
3.35312e-23
5.6963e-25
-1.05989e-22
7.82283e-24
8.70228e-23
1.65066e-23
7.73475e-23
1.69756e-23
1.95157e-24
4.15025e-25
2.12849e-23
1.19914e-23
5.03729e-23
1.09121e-23
2.22331e-23
3.05273e-24
7.71243e-23
-2.41112e-24
1.07721e-22
4.93413e-25
2.09886e-22
6.62333e-24
1.32939e-22
3.02508e-24
1.42715e-22
5.21332e-24
5.50652e-23
1.45456e-23
4.73228e-23
9.61655e-24
1.15229e-22
1.56086e-24
-8.91401e-24
3.92455e-24
3.8082e-23
4.11674e-24
-5.53236e-23
-3.81047e-24
-3.49029e-23
-2.4472e-24
-1.71901e-23
-8.37935e-24
-8.35886e-23
-1.32537e-23
-7.00146e-23
-1.82499e-23
-1.29211e-23
-1.61362e-23
7.75934e-23
-5.82187e-24
1.05555e-22
-1.3422e-23
2.74715e-23
-1.19195e-23
6.51625e-23
-8.24527e-24
-6.94778e-23
-6.14154e-24
8.11553e-23
-5.9037e-24
-9.92382e-23
-1.16166e-23
6.83803e-24
-6.75845e-24
-1.30755e-23
-9.35482e-24
-1.47905e-23
-8.52408e-24
-1.67833e-23
-1.31707e-24
6.61551e-23
-5.96311e-24
1.77597e-23
-1.09439e-23
-2.74397e-23
-8.87379e-24
-7.43718e-25
-1.65995e-23
-4.04051e-23
-1.74511e-23
-9.45143e-25
-2.46687e-23
3.65318e-23
-1.50855e-23
1.06885e-22
-1.98688e-23
8.47007e-23
-1.69602e-23
1.10452e-22
-2.19968e-23
2.17157e-25
-6.57254e-23
-1.83061e-24
1.03729e-23
-1.4741e-24
1.56461e-24
1.04485e-22
5.82635e-24
4.20109e-23
8.3917e-24
4.7692e-23
2.30187e-24
-9.68432e-23
8.11183e-24
1.40832e-22
1.69421e-23
7.42875e-23
1.69989e-23
8.6065e-24
1.15409e-24
5.63319e-24
1.17573e-23
6.53451e-23
1.17655e-23
2.88849e-23
4.02368e-24
5.31837e-23
-1.55352e-24
1.18787e-22
-1.55633e-24
1.86162e-22
6.43423e-24
1.26247e-22
2.82535e-24
1.05273e-22
4.56591e-24
1.42637e-23
1.5389e-23
1.50822e-22
9.05447e-24
4.75342e-23
1.11443e-24
-1.86654e-23
3.9594e-24
4.2956e-23
4.116e-24
-1.71944e-23
-3.65841e-24
-4.04618e-23
-3.23342e-24
-3.15514e-23
-7.99007e-24
-7.91251e-23
-1.26127e-23
-3.05761e-23
-1.7333e-23
-8.91813e-24
-1.50741e-23
7.64928e-23
-7.17688e-24
9.72883e-23
-1.39194e-23
6.436e-24
-1.18221e-23
9.71075e-23
-7.95057e-24
-8.4195e-23
-6.64994e-24
5.93726e-23
-4.72791e-24
-2.92514e-23
-1.10973e-23
-1.80233e-23
-6.9076e-24
-6.42086e-24
-9.15535e-24
-7.78717e-23
-6.73929e-24
-3.45611e-23
-2.32025e-24
-1.74552e-23
-4.86321e-24
6.59328e-23
-1.19827e-23
-6.86202e-23
-8.84213e-24
3.62862e-23
-1.59824e-23
-6.7294e-23
-1.66637e-23
4.91398e-24
-2.47827e-23
2.23371e-23
-1.55248e-23
9.1612e-23
-1.9673e-23
3.67427e-23
-1.70107e-23
5.98869e-23
-2.30879e-23
-1.21463e-22
-6.04458e-23
-1.36506e-24
-5.32746e-23
-2.22051e-24
5.56845e-25
1.0272e-22
6.47575e-24
3.07888e-23
6.81708e-24
6.63841e-23
2.55965e-24
-7.87678e-23
8.29491e-24
1.32572e-22
1.68386e-23
7.12629e-23
1.65797e-23
3.77363e-23
9.99991e-25
3.3104e-23
1.12165e-23
6.22029e-23
1.27826e-23
6.70351e-23
3.66685e-24
2.27486e-23
-5.36488e-25
1.44955e-22
-2.62127e-24
1.17122e-22
5.9444e-24
1.16984e-22
2.4798e-24
1.09351e-22
5.52122e-24
-3.40729e-23
1.43491e-23
1.84708e-22
8.62174e-24
3.57851e-23
7.23148e-25
4.90103e-23
3.84426e-24
4.62873e-23
3.77782e-24
-1.2147e-23
-3.39241e-24
-4.25465e-23
-3.80566e-24
4.02672e-23
-7.2472e-24
-7.2763e-23
-1.23699e-23
-1.71348e-23
-1.67673e-23
5.60424e-26
-1.36554e-23
1.05648e-22
-8.47299e-24
6.81917e-23
-1.37823e-23
1.32566e-23
-1.26616e-23
8.66544e-23
-7.33368e-24
-1.03876e-22
-5.90486e-24
4.51293e-23
-4.5107e-24
-1.88262e-23
-1.1205e-23
-9.10558e-23
-7.39254e-24
-4.56047e-24
-8.05645e-24
-9.24326e-23
-7.14733e-24
9.82457e-24
5.90577e-25
-1.51845e-23
-5.62398e-24
-4.68006e-23
-1.14331e-23
-6.54607e-23
-8.84893e-24
4.08502e-23
-1.54079e-23
-8.49737e-23
-1.56748e-23
-6.35057e-23
-2.40834e-23
-5.10632e-24
-1.40648e-23
1.43188e-22
-2.09324e-23
-1.79492e-24
-1.81146e-23
5.86932e-23
-2.24828e-23
-7.76685e-23
-4.50555e-23
-1.02171e-24
-6.32582e-23
-1.64099e-24
-7.08076e-27
1.00956e-22
4.79436e-24
2.30945e-23
5.9296e-24
7.8473e-23
4.12975e-24
-7.41677e-23
8.10813e-24
1.63686e-22
1.62405e-23
8.30239e-23
1.68245e-23
2.8292e-23
1.29093e-24
-1.70943e-23
1.17149e-23
5.5688e-23
1.29763e-23
6.35024e-23
4.407e-24
1.91502e-23
-1.03248e-24
1.21146e-22
-3.15321e-24
4.4401e-23
5.58125e-24
1.06936e-22
1.89497e-24
1.08096e-22
7.47517e-24
-5.17953e-24
1.31489e-23
1.80158e-22
9.17135e-24
5.53635e-23
-9.81657e-26
-4.60943e-24
3.80657e-24
4.6429e-23
3.65992e-24
2.98498e-23
-2.38956e-24
-2.65472e-23
-5.16391e-24
-2.76609e-23
-6.46749e-24
-3.69448e-23
-1.22453e-23
-1.67514e-23
-1.56255e-23
5.40237e-24
-1.36658e-23
9.67932e-23
-8.98584e-24
5.97414e-23
-1.4014e-23
3.38723e-23
-1.34417e-23
7.02359e-23
-7.49498e-24
-3.46516e-23
-4.63951e-24
1.15933e-22
-6.17588e-24
-2.56621e-23
-9.85914e-24
-5.42439e-23
-8.23532e-24
-1.00125e-23
-6.08561e-24
7.41093e-24
-8.19513e-24
-3.73895e-24
1.33641e-24
2.42668e-23
-4.70816e-24
-6.01243e-23
-1.14887e-23
-6.25257e-23
-9.10724e-24
5.84146e-24
-1.46584e-23
-7.33162e-23
-1.58723e-23
-1.22571e-23
-2.23541e-23
-5.62941e-23
-1.4573e-23
1.31756e-22
-2.14934e-23
8.74217e-25
-1.81523e-23
5.741e-23
-2.17012e-23
-7.5676e-23
-3.77735e-23
6.01858e-25
-9.24219e-23
-9.65518e-26
-6.43138e-25
8.39108e-23
4.07155e-24
1.88584e-24
5.11168e-24
6.62513e-23
5.08353e-24
-6.75e-23
7.16626e-24
1.212e-22
1.61527e-23
1.53802e-22
1.62169e-23
3.31538e-23
2.85437e-24
8.50847e-24
1.12806e-23
5.38469e-23
1.39082e-23
6.00843e-23
4.74358e-24
-1.20139e-23
-2.23078e-24
1.72401e-22
-2.07164e-24
5.72548e-23
4.9596e-24
1.01505e-22
1.62533e-24
1.08173e-22
8.5092e-24
1.83595e-24
1.2096e-23
9.97665e-23
8.39473e-24
8.10081e-23
-1.0684e-25
-5.83468e-23
3.91852e-24
8.48107e-23
3.29674e-24
3.50735e-23
-2.67563e-24
-1.85336e-23
-5.18807e-24