/*--------------------------------*- C++ -*----------------------------------*\
  =========                 |
  \\      /  F ield         | OpenFOAM: The Open Source CFD Toolbox
   \\    /   O peration     | Website:  https://openfoam.org
    \\  /    A nd           | Version:  7
     \\/     M anipulation  |
\*---------------------------------------------------------------------------*/
FoamFile
{
    version     2.0;
    format      ascii;
    class       volScalarField;
    location    "104000";
    object      strainRate;
}
// * * * * * * * * * * * * * * * * * * * * * * * * * * * * * * * * * * * * * //

dimensions      [0 0 -1 0 0 0 0];

internalField   nonuniform List<scalar> 
4825
(
0.0330023
0.0326717
0.033717
0.033377
0.0330869
0.0328106
0.0325478
0.0344525
0.0341083
0.0338082
0.0335221
0.0332496
0.035209
0.034862
0.0345543
0.0342604
0.033979
0.0359867
0.0356365
0.0353226
0.0350219
0.0347334
0.0367861
0.036432
0.0361123
0.0358052
0.0355104
0.0376081
0.037249
0.0369235
0.0366102
0.0363092
0.0384535
0.0380886
0.037757
0.0374374
0.0371303
0.0393234
0.038952
0.0386139
0.0382878
0.0379744
0.0402188
0.0398404
0.0394954
0.0391624
0.0388424
0.0411411
0.0407551
0.0404027
0.0400626
0.0397356
0.0420916
0.0416975
0.0413373
0.0409896
0.0406554
0.0430716
0.0426691
0.0423006
0.041945
0.0416032
0.0440827
0.0436713
0.0432941
0.0429302
0.0451265
0.0447057
0.0443195
0.0439468
0.0462045
0.0457741
0.0453783
0.0449964
0.0473187
0.046878
0.0464722
0.0484708
0.0480194
0.0476032
0.0496627
0.0492003
0.0508966
0.0504226
0.0521747
0.0516885
0.0534992
0.0530004
0.0548727
0.0543607
0.0562977
0.0244206
0.0241791
0.023976
0.0237797
0.0235904
0.0234088
0.023235
0.0230693
0.0229121
0.0227633
0.0226234
0.0224922
0.0223701
0.022257
0.0221531
0.0220584
0.021973
0.021897
0.0218304
0.0217733
0.0248988
0.0246542
0.0244475
0.0242475
0.0240549
0.0238699
0.0236929
0.0235243
0.0233642
0.0232129
0.0230704
0.022937
0.0228127
0.0226976
0.0225919
0.0224956
0.0224087
0.0223314
0.0222637
0.0222055
0.0253881
0.0251402
0.0249298
0.0247261
0.0245299
0.0243415
0.0241613
0.0239896
0.0238267
0.0236726
0.0235276
0.0233917
0.0232652
0.0231481
0.0230405
0.0229425
0.0228542
0.0227755
0.0227066
0.0226474
0.0258888
0.0256376
0.0254233
0.0252159
0.0250159
0.024824
0.0246405
0.0244657
0.0242997
0.0241428
0.0239952
0.0238569
0.0237281
0.0236089
0.0234994
0.0233997
0.0233097
0.0232297
0.0231595
0.0230994
0.0264014
0.0261468
0.0259285
0.0257171
0.0255134
0.0253179
0.0251309
0.0249528
0.0247838
0.024624
0.0244737
0.0243329
0.0242017
0.0240804
0.0239689
0.0238674
0.0237758
0.0236943
0.0236229
0.0235617
0.0269262
0.0266682
0.0264457
0.0262303
0.0260227
0.0258234
0.025633
0.0254515
0.0252793
0.0251165
0.0249634
0.02482
0.0246865
0.0245629
0.0244494
0.024346
0.0242528
0.0241698
0.0240971
0.0240347
0.0274637
0.0272022
0.0269755
0.0267558
0.0265442
0.0263411
0.026147
0.0259621
0.0257866
0.0256208
0.0254648
0.0253187
0.0251827
0.0250568
0.0249412
0.0248359
0.024741
0.0246565
0.0245825
0.024519
0.0280144
0.0277494
0.0275182
0.0272942
0.0270784
0.0268714
0.0266735
0.0264851
0.0263063
0.0261373
0.0259783
0.0258295
0.0256909
0.0255627
0.0254449
0.0253376
0.0252409
0.0251548
0.0250794
0.0250148
0.0249608
0.0249176
0.0248852
0.0248636
0.0248528
0.0248528
0.0248636
0.0248853
0.0249177
0.0249608
0.0250148
0.0250795
0.0251549
0.025241
0.0253377
0.0285787
0.0283103
0.0280744
0.0278459
0.0276259
0.0274148
0.027213
0.0270209
0.0268386
0.0266664
0.0265044
0.0263527
0.0262115
0.0260808
0.0259608
0.0258515
0.025753
0.0256653
0.0255885
0.0255226
0.0254676
0.0254236
0.0253906
0.0253686
0.0253576
0.0253576
0.0253686
0.0253906
0.0254237
0.0254677
0.0255226
0.0255885
0.0256653
0.025753
0.0258516
0.0259609
0.0260809
0.0291571
0.0288852
0.0286446
0.0284115
0.028187
0.0279717
0.027766
0.0275701
0.0273842
0.0272086
0.0270435
0.0268889
0.0267449
0.0266118
0.0264895
0.0263781
0.0262777
0.0261883
0.02611
0.0260429
0.0259869
0.0259421
0.0259084
0.025886
0.0258748
0.0258748
0.025886
0.0259085
0.0259421
0.0259869
0.0260429
0.02611
0.0261883
0.0262777
0.0263781
0.0264895
0.0266118
0.026745
0.0297503
0.029475
0.0292293
0.0289914
0.0287623
0.0285427
0.0283329
0.0281331
0.0279436
0.0277645
0.0275961
0.0274385
0.0272917
0.027156
0.0270313
0.0269178
0.0268154
0.0267244
0.0266446
0.0265761
0.0265191
0.0264734
0.0264391
0.0264163
0.0264048
0.0264048
0.0264163
0.0264391
0.0264734
0.0265191
0.0265761
0.0266446
0.0267244
0.0268155
0.0269178
0.0270314
0.027156
0.0272918
0.0274386
0.0275962
0.0303587
0.03008
0.029829
0.0295861
0.0293524
0.0291283
0.0289142
0.0287104
0.0285172
0.0283345
0.0281628
0.0280021
0.0278524
0.027714
0.0275869
0.0274711
0.0273668
0.0272739
0.0271926
0.0271228
0.0270647
0.0270181
0.0269832
0.0269599
0.0269482
0.0269482
0.0269599
0.0269832
0.0270181
0.0270647
0.0271228
0.0271926
0.0272739
0.0273668
0.0274712
0.0275869
0.027714
0.0278525
0.0280021
0.0281628
0.0283346
0.0285172
0.0309856
0.030701
0.0304444
0.0301964
0.0299578
0.0297291
0.0295107
0.0293027
0.0291056
0.0289193
0.0287441
0.0285802
0.0284275
0.0282863
0.0281567
0.0280387
0.0279323
0.0278376
0.0277546
0.0276835
0.0276242
0.0275767
0.0275411
0.0275173
0.0275055
0.0275055
0.0275173
0.0275411
0.0275767
0.0276242
0.0276835
0.0277547
0.0278376
0.0279323
0.0280387
0.0281567
0.0282864
0.0284276
0.0285802
0.0287441
0.0289193
0.0291056
0.0293028
0.0295107
0.0297292
0.0316352
0.0313386
0.031076
0.0308227
0.0305791
0.0303457
0.0301227
0.0299105
0.0297094
0.0295192
0.0293405
0.0291733
0.0290176
0.0288736
0.0287413
0.0286209
0.0285124
0.0284158
0.0283313
0.0282587
0.0281982
0.0281498
0.0281135
0.0280892
0.0280771
0.0280771
0.0280892
0.0281135
0.0281498
0.0281982
0.0282587
0.0283313
0.0284158
0.0285124
0.028621
0.0287414
0.0288736
0.0290176
0.0291733
0.0293406
0.0295193
0.0297094
0.0299106
0.0301228
0.0303457
0.0305791
0.0308228
0.0323081
0.0319939
0.0317246
0.0314658
0.0312169
0.0309786
0.0307511
0.0305344
0.0303292
0.0301351
0.0299527
0.0297821
0.0296232
0.0294763
0.0293414
0.0292185
0.0291078
0.0290093
0.028923
0.028849
0.0287873
0.0287379
0.0287008
0.0286761
0.0286638
0.0286638
0.0286761
0.0287008
0.0287379
0.0287873
0.028849
0.028923
0.0290093
0.0291078
0.0292185
0.0293414
0.0294763
0.0296232
0.0297821
0.0299528
0.0301352
0.0303292
0.0305345
0.0307511
0.0309787
0.031217
0.0314658
0.0317246
0.031994
0.0323082
0.0330022
0.0326716
0.032393
0.0321268
0.0318721
0.0316287
0.0313963
0.0311751
0.0309656
0.0307675
0.0305813
0.0304072
0.030245
0.0300951
0.0299574
0.029832
0.029719
0.0296185
0.0295305
0.029455
0.029392
0.0293416
0.0293038
0.0292786
0.029266
0.029266
0.0292786
0.0293038
0.0293416
0.029392
0.029455
0.0295305
0.0296185
0.029719
0.0298321
0.0299574
0.0300951
0.030245
0.0304072
0.0305814
0.0307675
0.0309656
0.0311752
0.0313963
0.0316287
0.0318721
0.0321268
0.0323931
0.0326717
0.0330022
0.033717
0.0333769
0.0330868
0.0328105
0.0325478
0.0322975
0.0320592
0.0318333
0.0316193
0.031417
0.031227
0.0310492
0.0308836
0.0307306
0.0305901
0.0304621
0.0303468
0.0302442
0.0301543
0.0300773
0.030013
0.0299616
0.029923
0.0298972
0.0298844
0.0298844
0.0298972
0.029923
0.0299616
0.030013
0.0300772
0.0301543
0.0302442
0.0303468
0.0304621
0.0305901
0.0307306
0.0308837
0.0310493
0.031227
0.0314171
0.0316193
0.0318333
0.0320593
0.0322975
0.0325478
0.0328105
0.0330869
0.0333769
0.033717
0.0344525
0.0341083
0.0338081
0.033522
0.0332496
0.0329898
0.0327436
0.0325112
0.0322912
0.0320845
0.0318904
0.0317089
0.0315398
0.0313835
0.0312401
0.0311094
0.0309917
0.0308869
0.0307952
0.0307165
0.030651
0.0305985
0.030559
0.0305328
0.0305196
0.0305196
0.0305328
0.030559
0.0305985
0.0306509
0.0307165
0.0307952
0.0308869
0.0309917
0.0311094
0.0312401
0.0313835
0.0315398
0.0317089
0.0318905
0.0320846
0.0322912
0.0325112
0.0327437
0.0329899
0.0332496
0.0335221
0.0338081
0.0341083
0.0344526
0.035209
0.0348619
0.0345542
0.0342603
0.033979
0.0337103
0.0334551
0.0332138
0.0329857
0.0327731
0.0325734
0.032387
0.0322143
0.0320546
0.0319081
0.0317747
0.0316544
0.0315475
0.0314538
0.0313735
0.0313065
0.0312529
0.0312127
0.0311859
0.0311724
0.0311724
0.0311859
0.0312127
0.0312529
0.0313065
0.0313735
0.0314538
0.0315474
0.0316544
0.0317747
0.0319081
0.0320546
0.0322143
0.0323871
0.0325735
0.0327731
0.0329858
0.0332139
0.0334552
0.0337103
0.033979
0.0342604
0.0345543
0.034862
0.035209
0.0359866
0.0356365
0.0353225
0.0350218
0.0347333
0.0344574
0.0341945
0.0339449
0.0337089
0.0334881
0.033281
0.033088
0.0329103
0.0327461
0.0325955
0.0324588
0.0323359
0.0322266
0.0321309
0.0320489
0.0319805
0.0319257
0.0318846
0.0318572
0.0318435
0.0318435
0.0318572
0.0318846
0.0319257
0.0319805
0.0320489
0.0321309
0.0322266
0.0323359
0.0324588
0.0325955
0.0327461
0.0329103
0.0330881
0.0332811
0.0334882
0.033709
0.0339449
0.0341946
0.0344575
0.0347334
0.0350219
0.0353226
0.0356365
0.0359867
0.0367861
0.0364319
0.0361122
0.0358052
0.0355103
0.0352281
0.0349587
0.0347026
0.0344602
0.0342318
0.0340176
0.0338178
0.0336333
0.033463
0.0333069
0.0331658
0.0330394
0.032927
0.0328286
0.0327443
0.032674
0.0326178
0.0325758
0.0325478
0.0325338
0.0325338
0.0325478
0.0325758
0.0326178
0.032674
0.0327443
0.0328286
0.032927
0.0330394
0.0331658
0.033307
0.0334631
0.0336334
0.0338179
0.0340176
0.0342318
0.0344603
0.0347026
0.0349588
0.0352282
0.0355104
0.0358052
0.0361123
0.036432
0.0367862
0.0376081
0.037249
0.0369234
0.0366102
0.0363092
0.036021
0.0357458
0.0354839
0.0352359
0.0350016
0.0347817
0.0345764
0.0343855
0.0342094
0.034048
0.0339018
0.0337707
0.0336541
0.0335521
0.0334647
0.0333918
0.0333337
0.0332905
0.0332617
0.0332473
0.0332473
0.0332617
0.0332905
0.0333337
0.0333918
0.0334646
0.0335521
0.0336541
0.0337707
0.0339018
0.034048
0.0342095
0.0343856
0.0345764
0.0347818
0.0350016
0.035236
0.0354839
0.0357459
0.0360211
0.0363093
0.0366102
0.0369235
0.037249
0.0376082
0.0384535
0.0380886
0.037757
0.0374374
0.0371303
0.0368361
0.0365552
0.0362878
0.0360346
0.0357951
0.0355702
0.03536
0.0351642
0.0349835
0.0348178
0.0346671
0.0345315
0.034411
0.0343055
0.0342151
0.0341398
0.0340797
0.0340349
0.0340051
0.0339901
0.0339901
0.034005
0.0340348
0.0340797
0.0341398
0.0342151
0.0343055
0.034411
0.0345315
0.0346671
0.0348178
0.0349836
0.0351643
0.0353601
0.0355703
0.0357951
0.0360346
0.0362879
0.0365553
0.0368362
0.0371303
0.0374375
0.0377571
0.0380887
0.0384536
0.0393234
0.0389519
0.0386139
0.0382877
0.0379743
0.037674
0.0373873
0.0371145
0.036856
0.0366116
0.036382
0.0361672
0.0359671
0.0357823
0.0356128
0.0354584
0.0353192
0.0351955
0.0350873
0.0349946
0.0349173
0.0348555
0.0348092
0.0347783
0.0347628
0.0347628
0.0347782
0.0348091
0.0348554
0.0349172
0.0349945
0.0350873
0.0351956
0.0353193
0.0354584
0.0356128
0.0357824
0.0359672
0.0361673
0.036382
0.0366116
0.036856
0.0371146
0.0373874
0.0376741
0.0379744
0.0382878
0.038614
0.038952
0.0393234
0.0402188
0.0398403
0.0394953
0.0391623
0.0388423
0.0385357
0.0382431
0.0379646
0.0377008
0.0374514
0.037217
0.0369978
0.0367936
0.0366048
0.0364316
0.0362738
0.0361316
0.0360051
0.0358944
0.0357996
0.0357205
0.0356572
0.0356097
0.035578
0.0355622
0.0355621
0.0355779
0.0356096
0.0356571
0.0357204
0.0357995
0.0358944
0.0360051
0.0361316
0.0362739
0.0364317
0.0366049
0.0367936
0.0369978
0.037217
0.0374514
0.0377008
0.0379647
0.0382432
0.0385359
0.0388424
0.0391624
0.0394954
0.0398404
0.0402188
0.0411411
0.040755
0.0404026
0.0400625
0.0397355
0.0394224
0.0391235
0.0388392
0.0385698
0.0383153
0.038076
0.0378523
0.0376438
0.0374512
0.0372744
0.0371133
0.036968
0.0368389
0.0367258
0.0366289
0.0365482
0.0364835
0.0364349
0.0364025
0.0363863
0.0363863
0.0364024
0.0364348
0.0364834
0.0365481
0.0366289
0.0367258
0.0368389
0.036968
0.0371133
0.0372744
0.0374512
0.0376439
0.0378523
0.038076
0.0383153
0.0385698
0.0388393
0.0391236
0.0394225
0.0397356
0.0400625
0.0404027
0.0407551
0.0411411
0.0420915
0.0416974
0.0413372
0.0409895
0.0406553
0.0403353
0.0400299
0.0397395
0.0394642
0.0392044
0.0389601
0.0387316
0.0385188
0.0383221
0.0381416
0.0379771
0.0378289
0.037697
0.0375816
0.0374827
0.0374002
0.0373342
0.0372846
0.0372515
0.0372349
0.0372349
0.0372514
0.0372845
0.0373341
0.0374001
0.0374826
0.0375816
0.037697
0.0378289
0.0379771
0.0381416
0.0383222
0.0385188
0.0387316
0.0389601
0.0392043
0.0394642
0.0397395
0.04003
0.0403354
0.0406554
0.0409896
0.0413373
0.0416975
0.0420915
0.0430715
0.042669
0.0423005
0.0419449
0.0416031
0.0412759
0.0409637
0.0406668
0.0403855
0.04012
0.0398704
0.039637
0.0394197
0.0392188
0.0390344
0.0388665
0.0387151
0.0385805
0.0384626
0.0383616
0.0382773
0.0382099
0.0381593
0.0381255
0.0381086
0.0381085
0.0381254
0.0381592
0.0382098
0.0382773
0.0383615
0.0384625
0.0385804
0.0387151
0.0388665
0.0390344
0.0392188
0.0394197
0.0396369
0.0398704
0.04012
0.0403855
0.0406668
0.0409638
0.041276
0.0416032
0.041945
0.0423006
0.042669
0.0430716
0.0440826
0.0436712
0.043294
0.0429301
0.0425804
0.0422456
0.0419263
0.0416226
0.041335
0.0410635
0.0408084
0.0405698
0.0403478
0.0401425
0.0399541
0.0397825
0.0396279
0.0394903
0.0393699
0.0392667
0.0391806
0.0391117
0.03906
0.0390255
0.0390083
0.0390082
0.0390255
0.03906
0.0391117
0.0391806
0.0392666
0.0393698
0.0394903
0.0396278
0.0397825
0.039954
0.0401425
0.0403478
0.0405698
0.0408084
0.0410635
0.041335
0.0416227
0.0419264
0.0422458
0.0425805
0.0429302
0.0432941
0.0436713
0.0440827
0.0451264
0.0447056
0.0443193
0.0439467
0.0435887
0.0432461
0.0429192
0.0426085
0.0423142
0.0420366
0.0417756
0.0415316
0.0413046
0.0410947
0.040902
0.0407266
0.0405686
0.040428
0.0403049
0.0401994
0.0401114
0.040041
0.0399882
0.0399529
0.0399353
0.0399353
0.0399529
0.0399881
0.040041
0.0401114
0.0401993
0.0403048
0.0404279
0.0405685
0.0407266
0.040902
0.0410947
0.0413046
0.0415316
0.0417756
0.0420365
0.0423142
0.0426086
0.0429193
0.0432462
0.0435889
0.0439468
0.0443194
0.0447057
0.0451265
0.0462044
0.045774
0.0453781
0.0449964
0.0446298
0.0442789
0.0439442
0.0436261
0.0433249
0.0430407
0.0427737
0.042524
0.0422917
0.042077
0.0418798
0.0417004
0.0415388
0.041395
0.0412691
0.0411612
0.0410712
0.0409992
0.0409452
0.0409092
0.0408911
0.0408911
0.0409091
0.0409451
0.0409992
0.0410712
0.0411611
0.041269
0.0413949
0.0415387
0.0417004
0.0418798
0.0420769
0.0422916
0.0425239
0.0427736
0.0430406
0.0433249
0.0436261
0.0439443
0.044279
0.0446299
0.0449966
0.0453782
0.045774
0.0462045
0.0473186
0.0468779
0.0464721
0.0460809
0.0457052
0.0453457
0.0450028
0.044677
0.0443685
0.0440775
0.0438041
0.0435485
0.0433107
0.0430909
0.0428891
0.0427055
0.0425401
0.042393
0.0422642
0.0421537
0.0420616
0.041988
0.0419327
0.0418958
0.0418774
0.0418774
0.0418958
0.0419326
0.0419879
0.0420616
0.0421536
0.042264
0.0423929
0.04254
0.0427054
0.0428891
0.0430909
0.0433107
0.0435484
0.0438041
0.0440775
0.0443685
0.044677
0.0450029
0.0453458
0.0457053
0.0460811
0.0464723
0.046878
0.0473187
0.0484706
0.0480193
0.0476032
0.047202
0.0468169
0.0464484
0.046097
0.0457631
0.045447
0.0451488
0.0448688
0.0446069
0.0443634
0.0441383
0.0439316
0.0437436
0.0435742
0.0434236
0.0432917
0.0431786
0.0430843
0.0430089
0.0429523
0.0429146
0.0428957
0.0428957
0.0429146
0.0429523
0.0430089
0.0430843
0.0431785
0.0432916
0.0434235
0.0435741
0.0437435
0.0439316
0.0441382
0.0443633
0.0446069
0.0448687
0.0451488
0.045447
0.0457631
0.046097
0.0464484
0.046817
0.0472022
0.0476033
0.0480195
0.0484708
0.0496626
0.0492002
0.0487732
0.0483617
0.0479667
0.0475888
0.0472285
0.0468862
0.0465621
0.0462565
0.0459695
0.0457012
0.0454516
0.0452209
0.0450092
0.0448166
0.044643
0.0444887
0.0443535
0.0442377
0.0441411
0.0440639
0.0440059
0.0439673
0.0439479
0.0439479
0.0439672
0.0440059
0.0440638
0.0441411
0.0442376
0.0443534
0.0444885
0.0446429
0.0448164
0.0450091
0.0452209
0.0454515
0.0457011
0.0459694
0.0462565
0.0465621
0.0468862
0.0472285
0.0475888
0.0479668
0.0483618
0.0487733
0.0492003
0.0496627
0.0508965
0.0504225
0.0499842
0.0495619
0.0491566
0.0487689
0.0483993
0.0480482
0.0477159
0.0474025
0.0471082
0.0468331
0.0465772
0.0463407
0.0461237
0.0459262
0.0457483
0.0455901
0.0454516
0.0453328
0.0452339
0.0451547
0.0450953
0.0450557
0.0450359
0.0450359
0.0450557
0.0450953
0.0451546
0.0452338
0.0453328
0.0454515
0.0455899
0.0457482
0.045926
0.0461236
0.0463407
0.0465771
0.046833
0.0471081
0.0474025
0.0477159
0.0480483
0.0483993
0.048769
0.0491567
0.0495621
0.0499844
0.0504226
0.0508967
0.0521745
0.0516884
0.0512383
0.0508048
0.0503888
0.0499909
0.0496116
0.0492514
0.0489104
0.0485889
0.048287
0.0480048
0.0477423
0.0474997
0.0472771
0.0470746
0.0468921
0.0467299
0.0465878
0.046466
0.0463646
0.0462834
0.0462225
0.0461819
0.0461616
0.0461616
0.0461819
0.0462225
0.0462833
0.0463645
0.046466
0.0465877
0.0467297
0.046892
0.0470744
0.047277
0.0474996
0.0477422
0.0480046
0.0482869
0.0485889
0.0489104
0.0492514
0.0496116
0.0499909
0.0503889
0.050805
0.0512386
0.0516886
0.0521747
0.0534991
0.0530004
0.052538
0.0520927
0.0516655
0.051257
0.0508676
0.0504978
0.0501478
0.0498178
0.0495079
0.0492183
0.048949
0.0487
0.0484716
0.0482638
0.0480766
0.0479101
0.0477644
0.0476394
0.0475353
0.047452
0.0473895
0.0473479
0.047327
0.0473271
0.0473479
0.0473895
0.047452
0.0475353
0.0476394
0.0477643
0.04791
0.0480764
0.0482636
0.0484715
0.0487
0.0489489
0.0492182
0.0495079
0.0498178
0.0501478
0.0504978
0.0508676
0.051257
0.0516657
0.052093
0.0525382
0.0530005
0.0534993
0.0548726
0.0543607
0.0538855
0.053428
0.0529891
0.0525695
0.0521696
0.0517899
0.0514305
0.0510916
0.0507734
0.0504761
0.0501995
0.049944
0.0497095
0.0494961
0.0493039
0.049133
0.0489834
0.0488552
0.0487483
0.0486628
0.0485987
0.0485559
0.0485346
0.0485346
0.0485559
0.0485987
0.0486628
0.0487483
0.0488551
0.0489833
0.0491329
0.0493038
0.0494959
0.0497093
0.0499439
0.0501994
0.050476
0.0507734
0.0510916
0.0514304
0.0517899
0.0521697
0.0525696
0.0529893
0.0534283
0.0538858
0.0543609
0.0548727
0.0562977
0.055772
0.0552835
0.0548133
0.0543622
0.0539311
0.0535202
0.05313
0.0527608
0.0524127
0.0520859
0.0517804
0.0514964
0.0512339
0.050993
0.0507739
0.0505765
0.050401
0.0502474
0.0501157
0.050006
0.0499181
0.0498523
0.0498084
0.0497864
0.0497865
0.0498084
0.0498523
0.0499181
0.0500059
0.0501156
0.0502473
0.0504009
0.0505764
0.0507737
0.0509929
0.0512338
0.0514963
0.0517803
0.0520858
0.0524127
0.0527608
0.05313
0.0535202
0.0539311
0.0543624
0.0548135
0.0552838
0.0557722
0.0562978
0.0577771
0.0572372
0.0567348
0.0562512
0.0557875
0.0553443
0.054922
0.0545209
0.0541415
0.0537837
0.0534479
0.053134
0.0528421
0.0525724
0.0523249
0.0520997
0.0518969
0.0517166
0.0515588
0.0514234
0.0513107
0.0512205
0.0511528
0.0511077
0.0510851
0.0510852
0.0511077
0.0511528
0.0512205
0.0513106
0.0514234
0.0515586
0.0517164
0.0518968
0.0520995
0.0523247
0.0525723
0.052842
0.0531339
0.0534478
0.0537837
0.0541414
0.0545209
0.054922
0.0553443
0.0557877
0.0562515
0.056735
0.0572374
0.0577772
0.059314
0.0587591
0.0582422
0.0577448
0.0572678
0.056812
0.0563778
0.0559654
0.0555753
0.0552075
0.0548622
0.0545395
0.0542394
0.0539621
0.0537077
0.0534762
0.0532677
0.0530824
0.0529202
0.0527811
0.0526652
0.0525725
0.0525029
0.0524565
0.0524334
0.0524334
0.0524566
0.0525029
0.0525724
0.0526651
0.052781
0.05292
0.0530822
0.0532676
0.053476
0.0537075
0.053962
0.0542393
0.0545394
0.0548621
0.0552074
0.0555752
0.0559654
0.0563778
0.0568121
0.057268
0.057745
0.0582424
0.0587592
0.059314
0.0609115
0.0603409
0.0598089
0.059297
0.0588063
0.0583374
0.0578907
0.0574665
0.0570652
0.0566869
0.0563317
0.0559998
0.0556912
0.055406
0.0551444
0.0549063
0.0546919
0.0545013
0.0543344
0.0541914
0.0540723
0.0539769
0.0539054
0.0538577
0.0538339
0.0538339
0.0538577
0.0539054
0.0539769
0.0540722
0.0541913
0.0543343
0.0545011
0.0546917
0.0549061
0.0551442
0.0554059
0.0556911
0.0559997
0.0563316
0.0566868
0.0570651
0.0574665
0.0578907
0.0583374
0.0588065
0.0592973
0.0598091
0.060341
0.062573
0.0619861
0.0614383
0.0609114
0.0604063
0.0599236
0.0594639
0.0590274
0.0586144
0.0582251
0.0578597
0.0575182
0.0572006
0.0569072
0.0566379
0.056393
0.0561724
0.0559763
0.0558047
0.0556575
0.0555349
0.0554368
0.0553632
0.0553142
0.0552897
0.0552897
0.0553142
0.0553633
0.0554368
0.0555348
0.0556574
0.0558045
0.0559761
0.0561722
0.0563928
0.0566377
0.056907
0.0572005
0.0575181
0.0578596
0.058225
0.0586144
0.0590274
0.0594639
0.0599237
0.0604064
0.0609115
0.0614384
0.0643023
0.0636983
0.063134
0.0625913
0.0620712
0.0615742
0.0611009
0.0606515
0.0602264
0.0598256
0.0594494
0.0590978
0.058771
0.0584689
0.0581917
0.0579396
0.0577125
0.0575107
0.057334
0.0571826
0.0570564
0.0569554
0.0568797
0.0568292
0.056804
0.056804
0.0568293
0.0568797
0.0569554
0.0570563
0.0571824
0.0573339
0.0575105
0.0577124
0.0579394
0.0581915
0.0584687
0.0587708
0.0590977
0.0594493
0.0598255
0.0602263
0.0606515
0.0611009
0.0615743
0.0620713
0.0625914
0.0661031
0.0654813
0.0648998
0.0643407
0.0638049
0.063293
0.0628055
0.0623426
0.0619047
0.061492
0.0611045
0.0607425
0.0604059
0.0600947
0.0598093
0.0595496
0.0593158
0.0591079
0.058926
0.0587701
0.0586402
0.0585362
0.0584582
0.0584062
0.0583802
0.0583802
0.0584062
0.0584582
0.0585361
0.05864
0.0587699
0.0589259
0.0591078
0.0593156
0.0595495
0.0598091
0.0600946
0.0604057
0.0607424
0.0611044
0.0614919
0.0619047
0.0623426
0.0628054
0.063293
0.0638049
0.0679798
0.0673393
0.0667398
0.0661636
0.0656114
0.0650839
0.0645815
0.0641046
0.0636534
0.0632281
0.0628289
0.0624559
0.062109
0.0617885
0.0614944
0.0612268
0.0609859
0.0607718
0.0605844
0.0604238
0.0602899
0.0601827
0.0601024
0.0600489
0.0600221
0.0600221
0.0600489
0.0601024
0.0601827
0.0602897
0.0604236
0.0605842
0.0607716
0.0609858
0.0612267
0.0614942
0.0617883
0.0621089
0.0624557
0.0628288
0.0632281
0.0636534
0.0641046
0.0645815
0.0650839
0.0699368
0.0692768
0.0686586
0.0680644
0.067495
0.0669512
0.0664334
0.0659417
0.0654766
0.0650382
0.0646267
0.0642422
0.0638847
0.0635542
0.0632511
0.0629753
0.062727
0.0625063
0.0623131
0.0621476
0.0620096
0.0618991
0.0618163
0.0617612
0.0617336
0.0617336
0.0617612
0.0618164
0.0618991
0.0620094
0.0621474
0.0623129
0.0625061
0.0627268
0.0629751
0.0632509
0.063554
0.0638845
0.064242
0.0646266
0.0650382
0.0654766
0.0659417
0.0664333
0.0669513
0.0719791
0.0712987
0.0706608
0.0700478
0.0694606
0.0688997
0.0683656
0.0678586
0.0673789
0.0669268
0.0665024
0.0661058
0.0657372
0.0653964
0.0650837
0.0647993
0.0645433
0.0643157
0.0641165
0.0639458
0.0638035
0.0636896
0.0636042
0.0635473
0.0635189
0.0635189
0.0635473
0.0636043
0.0636896
0.0638033
0.0639456
0.0641163
0.0643155
0.0645431
0.0647992
0.0650835
0.0653962
0.065737
0.0661057
0.0665023
0.0669267
0.0673789
0.0678585
0.0683656
0.0688998
0.0741117
0.0734099
0.0727515
0.072119
0.071513
0.0709343
0.0703832
0.0698601
0.0693651
0.0688987
0.0684608
0.0680516
0.0676712
0.0673196
0.066997
0.0667036
0.0664395
0.0662046
0.0659991
0.065823
0.0656762
0.0655587
0.0654707
0.065412
0.0653826
0.0653826
0.065412
0.0654707
0.0655587
0.0656761
0.0658228
0.0659989
0.0662044
0.0664393
0.0667034
0.0669968
0.0673194
0.067671
0.0680515
0.0684607
0.0688986
0.0693651
0.06986
0.0703832
0.0709344
0.0763404
0.0756163
0.0749363
0.0742833
0.0736578
0.0730603
0.0724915
0.0719515
0.0714406
0.070959
0.070507
0.0700847
0.069692
0.0693291
0.0689961
0.0686932
0.0684205
0.0681781
0.067966
0.0677843
0.0676327
0.0675115
0.0674206
0.06736
0.0673297
0.0673297
0.06736
0.0674206
0.0675115
0.0676326
0.0677841
0.0679658
0.068178
0.0684204
0.068693
0.0689959
0.0693289
0.0696918
0.0700845
0.0705069
0.070959
0.0714405
0.0719514
0.0724915
0.0730604
0.0786712
0.0779236
0.0772212
0.0765467
0.0759007
0.0752836
0.0746961
0.0741385
0.0736108
0.0731135
0.0726467
0.0722105
0.071805
0.0714302
0.0710863
0.0707735
0.0704919
0.0702416
0.0700226
0.0698349
0.0696784
0.0695532
0.0694593
0.0693967
0.0693654
0.0693654
0.0693967
0.0694593
0.0695532
0.0696783
0.0698347
0.0700224
0.0702415
0.0704918
0.0707733
0.0710861
0.07143
0.0718049
0.0722104
0.0726466
0.0731135
0.0736108
0.0741384
0.0746962
0.0752837
0.0811105
0.0803383
0.0796124
0.0789155
0.078248
0.0776104
0.0770034
0.0764272
0.0758821
0.0753682
0.0748859
0.0744352
0.0740162
0.0736289
0.0732736
0.0729504
0.0726595
0.0724008
0.0721745
0.0719806
0.0718189
0.0716896
0.0715926
0.0715279
0.0714956
0.0714956
0.0715279
0.0715926
0.0716896
0.0718188
0.0719804
0.0721744
0.0724007
0.0726593
0.0729502
0.0732734
0.0736287
0.074016
0.0744351
0.0748858
0.0753682
0.075882
0.0764272
0.0770035
0.0776104
0.0836654
0.0828675
0.082117
0.0813965
0.0807065
0.0800475
0.07942
0.0788244
0.0782608
0.0777296
0.077231
0.0767651
0.076332
0.0759316
0.0755643
0.0752302
0.0749295
0.0746621
0.0744282
0.0742277
0.0740606
0.0739269
0.0738266
0.0737598
0.0737264
0.0737264
0.0737598
0.0738266
0.0739269
0.0740605
0.0742276
0.0744281
0.074662
0.0749293
0.07523
0.0755641
0.0759314
0.0763318
0.076765
0.0772309
0.0777296
0.0782608
0.0788243
0.07942
0.0863435
0.0855186
0.0847423
0.0839971
0.0832835
0.082602
0.081953
0.081337
0.0807542
0.0802048
0.0796892
0.0792073
0.0787593
0.0783452
0.0779652
0.0776197
0.0773087
0.0770322
0.0767903
0.076583
0.0764101
0.0762719
0.0761682
0.076099
0.0760644
0.0760644
0.076099
0.0761682
0.0762718
0.0764101
0.0765828
0.0767902
0.0770321
0.0773086
0.0776196
0.0779651
0.078345
0.0787592
0.0792072
0.0796891
0.0802048
0.0807542
0.081337
0.0819531
0.0891529
0.0882998
0.0874963
0.0867253
0.085987
0.0852819
0.0846104
0.083973
0.0833699
0.0828015
0.0822679
0.0817692
0.0813057
0.0808771
0.0804839
0.0801264
0.0798046
0.0795185
0.0792682
0.0790537
0.0788748
0.0787317
0.0786244
0.0785529
0.0785171
0.0785171
0.0785529
0.0786244
0.0787317
0.0788748
0.0790536
0.0792681
0.0795184
0.0798045
0.0801264
0.0804839
0.080877
0.0813056
0.0817692
0.0822678
0.0828015
0.08337
0.0839731
0.0846105
0.0921025
0.0912197
0.0903879
0.0895898
0.0888255
0.0880956
0.0874005
0.0867407
0.0861163
0.0855278
0.0849754
0.0844592
0.0839792
0.0835356
0.0818699
0.0816477
0.0814625
0.0813144
0.0812033
0.0811292
0.0810922
0.0810922
0.0811293
0.0812033
0.0813144
0.0814625
0.0816476
0.0818698
0.0821289
0.0824251
0.0827583
0.0831284
0.0835355
0.0839791
0.0844592
0.0849754
0.0855279
0.0861165
0.0867408
0.0874007
0.0855242
0.0859076
0.0863292
0.0867888
0.087286
0.0878207
0.088393
0.0890026
0.0896493
0.0903328
0.0920384
0.0927085
0.0934167
0.0244206
0.0248988
0.0253881
0.0258888
0.0264014
0.0269262
0.0274637
0.0280144
0.0285787
0.0291571
0.0297503
0.0303587
0.0309856
0.0316352
0.0323081
0.0330022
0.033717
0.0344525
0.035209
0.0359867
0.0367861
0.0376081
0.0384535
0.0393234
0.0402188
0.0411411
0.0420915
0.0430715
0.0440826
0.0451264
0.0462044
0.0473186
0.0484706
0.0496626
0.0508965
0.0521745
0.0534991
0.0548725
0.0562976
0.0577771
0.059314
0.0609115
0.062573
0.0643023
0.0661031
0.0679798
0.0699368
0.0719791
0.0741117
0.0763404
0.0786712
0.0811105
0.0836654
0.0863435
0.0891529
0.0921025
0.0246542
0.0251403
0.0256377
0.0261468
0.0266682
0.0272023
0.0277494
0.0283103
0.0288852
0.029475
0.03008
0.030701
0.0313386
0.0319939
0.0326716
0.0333769
0.0341083
0.0348619
0.0356365
0.036432
0.037249
0.0380886
0.038952
0.0398404
0.0407551
0.0416975
0.042669
0.0436712
0.0447056
0.045774
0.0468779
0.0480193
0.0492002
0.0504225
0.0516884
0.0530003
0.0543607
0.055772
0.0572371
0.058759
0.0603409
0.0619861
0.0636983
0.0654813
0.0673393
0.0692768
0.0712987
0.0734099
0.0756162
0.0779236
0.0803383
0.0828675
0.0855186
0.0882997
0.0912196
0.0269755
0.0275182
0.0280744
0.0286446
0.0292293
0.029829
0.0304444
0.031076
0.0317246
0.032393
0.0330868
0.0338081
0.0345542
0.0353226
0.0361123
0.0369235
0.037757
0.0386139
0.0394953
0.0404026
0.0413372
0.0423005
0.043294
0.0443193
0.0453782
0.0464722
0.0476032
0.0487732
0.0499842
0.0512384
0.052538
0.0538855
0.0552835
0.0567348
0.0582422
0.0598089
0.0614383
0.063134
0.0648998
0.0667398
0.0686585
0.0706607
0.0727514
0.0749363
0.0772211
0.0796123
0.0821168
0.0847421
0.0874961
0.0903877
0.0267558
0.0272942
0.0278459
0.0284115
0.0289914
0.0295861
0.0301964
0.0308227
0.0314658
0.0321268
0.0328105
0.0335221
0.0342604
0.0350219
0.0358052
0.0366102
0.0374374
0.0382878
0.0391624
0.0400625
0.0409896
0.0419449
0.0429301
0.0439468
0.0449965
0.046081
0.0472021
0.0483617
0.0495619
0.0508049
0.0520928
0.0534281
0.0548133
0.0562513
0.0577448
0.0592971
0.0609114
0.0625913
0.0643406
0.0661635
0.0680643
0.0700477
0.0721189
0.0742832
0.0765465
0.0789153
0.0813963
0.0839969
0.086725
0.0895895
0.0265442
0.0270784
0.0276259
0.028187
0.0287623
0.0293524
0.0299578
0.0305791
0.0312169
0.0318721
0.0325478
0.0332496
0.033979
0.0347334
0.0355103
0.0363092
0.0371303
0.0379743
0.0388423
0.0397356
0.0406554
0.0416032
0.0425805
0.0435888
0.0446298
0.0457053
0.0468169
0.0479667
0.0491566
0.0503888
0.0516655
0.0529891
0.0543622
0.0557875
0.0572678
0.0588063
0.0604062
0.0620711
0.0638048
0.0656113
0.067495
0.0694605
0.0715129
0.0736577
0.0759005
0.0782478
0.0807062
0.0832833
0.0859867
0.0888252
0.0268714
0.0274148
0.0279717
0.0285427
0.0291283
0.0297291
0.0303457
0.0309786
0.0316287
0.0322975
0.0329898
0.0337103
0.0344575
0.0352281
0.0360211
0.0368362
0.0376741
0.0385358
0.0394225
0.0403354
0.041276
0.0422457
0.0432461
0.0442789
0.0453457
0.0464484
0.0475887
0.0487689
0.0499908
0.0512569
0.0525694
0.053931
0.0553442
0.0568119
0.0583373
0.0599235
0.0615741
0.0632929
0.0650838
0.0669511
0.0688996
0.0709342
0.0730602
0.0752835
0.0776103
0.0800473
0.0826018
0.0852816
0.0880953
0.0266736
0.027213
0.027766
0.0283329
0.0289142
0.0295107
0.0301227
0.0307511
0.0313963
0.0320592
0.0327436
0.0334551
0.0341946
0.0349588
0.0357458
0.0365553
0.0373874
0.0382432
0.0391236
0.04003
0.0409637
0.0419263
0.0429193
0.0439442
0.0450028
0.046097
0.0472285
0.0483993
0.0496116
0.0508675
0.0521696
0.0535201
0.0549218
0.0563776
0.0578905
0.0594637
0.0611007
0.0628053
0.0645813
0.0664332
0.0683654
0.070383
0.0724913
0.0746959
0.0770032
0.0794198
0.0819528
0.0846102
0.0874003
0.0264851
0.0270209
0.0275701
0.0281331
0.0287104
0.0293027
0.0299105
0.0305344
0.0311751
0.0318333
0.0325112
0.0332138
0.0339449
0.0347026
0.0354839
0.0362879
0.0371146
0.0379647
0.0388392
0.0397395
0.0406668
0.0416226
0.0426085
0.0436261
0.044677
0.0457631
0.0468861
0.0480482
0.0492513
0.0504977
0.0517898
0.0531299
0.0545208
0.0559653
0.0574664
0.0590272
0.0606514
0.0623424
0.0641044
0.0659415
0.0678584
0.0698598
0.0719512
0.0741382
0.0764269
0.0788241
0.0813368
0.0839727
0.0867404