/*--------------------------------*- C++ -*----------------------------------*\
  =========                 |
  \\      /  F ield         | OpenFOAM: The Open Source CFD Toolbox
   \\    /   O peration     | Website:  https://openfoam.org
    \\  /    A nd           | Version:  7
     \\/     M anipulation  |
\*---------------------------------------------------------------------------*/
FoamFile
{
    version     2.0;
    format      ascii;
    class       volScalarField;
    location    "88000";
    object      omega;
}
// * * * * * * * * * * * * * * * * * * * * * * * * * * * * * * * * * * * * * //

dimensions      [0 0 -1 0 0 0 0];

internalField   nonuniform List<scalar> 
4814
(
0.253862
0.252762
0.251773
0.250896
0.28962
0.286959
0.284416
0.281976
0.279636
0.277398
0.275266
0.273241
0.271324
0.269516
0.267819
0.266231
0.264756
0.263392
0.26214
0.261002
0.259979
0.259072
0.25828
0.257602
0.257035
0.256582
0.25624
0.256012
0.255897
0.255895
0.256007
0.256232
0.25657
0.257024
0.257591
0.25827
0.259063
0.259971
0.299257
0.296505
0.293875
0.291352
0.288931
0.286616
0.284411
0.282316
0.280332
0.278463
0.276707
0.275065
0.273538
0.272127
0.270831
0.269654
0.268595
0.267657
0.266837
0.266136
0.265549
0.26508
0.264727
0.264491
0.264371
0.264369
0.264485
0.264718
0.265069
0.265539
0.266126
0.266828
0.267649
0.268587
0.269643
0.270817
0.272112
0.273526
0.275057
0.276702
0.278463
0.309383
0.306535
0.303814
0.301203
0.298698
0.296302
0.29402
0.291852
0.289799
0.287864
0.286048
0.284347
0.282767
0.281306
0.279964
0.278746
0.27765
0.276679
0.27583
0.275104
0.274497
0.274012
0.273646
0.273401
0.273277
0.273275
0.273396
0.273637
0.274
0.274487
0.275095
0.275822
0.276671
0.277642
0.278735
0.279951
0.281291
0.282755
0.284339
0.286042
0.287864
0.289803
0.291858
0.294024
0.32003
0.317082
0.314266
0.311562
0.30897
0.306489
0.304125
0.301881
0.299755
0.297753
0.295872
0.294111
0.292474
0.290961
0.289571
0.288309
0.287175
0.286169
0.28529
0.284537
0.28391
0.283406
0.283027
0.282774
0.282646
0.282643
0.282768
0.283019
0.283394
0.2839
0.28453
0.285283
0.286161
0.287166
0.288298
0.289558
0.290945
0.292461
0.294103
0.295866
0.297753
0.29976
0.301888
0.30413
0.331236
0.328183
0.325266
0.322467
0.319782
0.317212
0.314763
0.312438
0.310236
0.308162
0.306214
0.30439
0.302693
0.301126
0.299686
0.298378
0.297203
0.29616
0.295249
0.294469
0.29382
0.293298
0.292905
0.292642
0.292509
0.292507
0.292637
0.292896
0.293286
0.29381
0.294463
0.295243
0.296153
0.297194
0.298367
0.299672
0.301109
0.30268
0.304381
0.306208
0.308163
0.310242
0.312446
0.314769
0.34304
0.339876
0.336855
0.333955
0.331173
0.328509
0.325972
0.323562
0.32128
0.319131
0.317112
0.315221
0.313461
0.311838
0.310345
0.308989
0.307771
0.30669
0.305745
0.304937
0.304263
0.303722
0.303314
0.303043
0.302905
0.302902
0.303037
0.303306
0.30371
0.304255
0.304931
0.30574
0.306683
0.307762
0.308977
0.310331
0.31182
0.313449
0.315211
0.317106
0.319132
0.321287
0.323571
0.325977
0.355487
0.352207
0.349076
0.346069
0.343185
0.340424
0.337793
0.335294
0.332929
0.330701
0.328608
0.326646
0.32482
0.323138
0.321589
0.320182
0.318919
0.317797
0.316817
0.315979
0.315281
0.314719
0.314296
0.314014
0.313872
0.313869
0.314008
0.314288
0.314707
0.315272
0.315975
0.316814
0.317792
0.31891
0.32017
0.321574
0.323119
0.324808
0.326636
0.328601
0.330701
0.332936
0.335304
0.337799
0.34042
0.368624
0.365223
0.361975
0.358857
0.355867
0.353002
0.350273
0.34768
0.345227
0.342917
0.340745
0.33871
0.336815
0.335069
0.333462
0.332002
0.330691
0.329526
0.32851
0.327639
0.326915
0.326332
0.325893
0.325601
0.325453
0.32545
0.325594
0.325884
0.32632
0.326907
0.327636
0.328507
0.329522
0.330682
0.33199
0.333446
0.335049
0.336802
0.338698
0.340737
0.342917
0.345235
0.347691
0.350279
0.352998
0.382505
0.378976
0.375606
0.37237
0.369267
0.366295
0.363462
0.360771
0.358225
0.355828
0.353573
0.35146
0.349492
0.347681
0.346013
0.344496
0.343136
0.341925
0.340869
0.339965
0.339214
0.338608
0.338153
0.33785
0.337696
0.337694
0.337843
0.338144
0.338597
0.339206
0.339964
0.340869
0.341922
0.343127
0.344484
0.345997
0.34766
0.34948
0.351448
0.353565
0.355827
0.358233
0.360782
0.363468
0.36629
0.397187
0.393524
0.390025
0.386666
0.383445
0.380358
0.377416
0.374622
0.371978
0.369489
0.367147
0.364952
0.362908
0.361026
0.359294
0.357718
0.356305
0.355047
0.35395
0.35301
0.35223
0.351601
0.351128
0.350813
0.350653
0.350651
0.350806
0.351118
0.35159
0.352223
0.35301
0.35395
0.355045
0.356296
0.357705
0.359278
0.361006
0.362895
0.36494
0.367139
0.369487
0.371986
0.374633
0.377422
0.380352
0.412736
0.40893
0.405296
0.401806
0.39846
0.395253
0.392197
0.389293
0.386547
0.38396
0.381526
0.379246
0.377121
0.375165
0.373365
0.371727
0.370257
0.36895
0.367809
0.366832
0.366021
0.365368
0.364876
0.364548
0.364383
0.36438
0.364541
0.364866
0.365357
0.366014
0.366833
0.367811
0.368949
0.370249
0.371714
0.373348
0.375144
0.377108
0.379233
0.381518
0.383958
0.386554
0.389305
0.392203
0.429222
0.425266
0.421489
0.417861
0.414383
0.41105
0.407872
0.404854
0.401998
0.399309
0.396777
0.394406
0.392196
0.390162
0.388291
0.386587
0.385058
0.383698
0.382511
0.381494
0.380651
0.379972
0.37946
0.379119
0.378948
0.378945
0.379112
0.37945
0.379962
0.380645
0.381497
0.382514
0.383698
0.38505
0.386573
0.388274
0.390141
0.392183
0.394394
0.396769
0.399305
0.402005
0.404865
0.407878
0.446726
0.442611
0.438683
0.434909
0.431292
0.427824
0.424518
0.421378
0.418407
0.415609
0.412975
0.410508
0.408208
0.406091
0.404144
0.40237
0.400779
0.399363
0.398127
0.397069
0.396192
0.395485
0.394952
0.394598
0.394419
0.394416
0.394589
0.394942
0.395475
0.396185
0.397073
0.398132
0.399364
0.400771
0.402357
0.404127
0.40607
0.408195
0.410495
0.412966
0.415605
0.418414
0.421388
0.424524
0.465337
0.461054
0.456966
0.453037
0.449272
0.445663
0.442221
0.438951
0.435858
0.432945
0.430201
0.427632
0.425237
0.423032
0.421006
0.419158
0.4175
0.416025
0.414738
0.413635
0.412721
0.411986
0.411431
0.411061
0.410875
0.410873
0.411053
0.411421
0.411976
0.412715
0.41364
0.414744
0.416028
0.417493
0.419145
0.420988
0.423012
0.425224
0.427619
0.430192
0.432939
0.435864
0.438961
0.442226
0.485158
0.480697
0.476437
0.472344
0.468421
0.464661
0.461075
0.457668
0.454445
0.451409
0.44855
0.445872
0.443376
0.441077
0.438966
0.43704
0.435312
0.433775
0.432432
0.431282
0.430329
0.429563
0.428985
0.4286
0.428406
0.428403
0.428591
0.428975
0.429554
0.430324
0.431288
0.432439
0.433778
0.435305
0.437028
0.438949
0.441058
0.443363
0.445859
0.44854
0.451401
0.454449
0.457676
0.461079
0.506305
0.501652
0.49721
0.492941
0.48885
0.48493
0.48119
0.477636
0.474274
0.471107
0.468125
0.465332
0.462729
0.46033
0.458129
0.456119
0.454316
0.452712
0.451311
0.450111
0.449116
0.448318
0.447715
0.447312
0.44711
0.447107
0.447303
0.447705
0.448309
0.449111
0.450118
0.451319
0.452717
0.45431
0.456107
0.458111
0.460312
0.462715
0.465319
0.468114
0.471099
0.474278
0.477643
0.481193
0.528909
0.524052
0.519415
0.514957
0.510686
0.506594
0.502689
0.498979
0.495468
0.492161
0.489048
0.48613
0.483413
0.480907
0.47861
0.476511
0.474628
0.472953
0.471489
0.470236
0.469196
0.468363
0.467734
0.467313
0.467102
0.467099
0.467304
0.467724
0.468354
0.469192
0.470243
0.471498
0.472959
0.474623
0.4765
0.478592
0.48089
0.483399
0.486118
0.489036
0.492151
0.49547
0.498984
0.50269
0.553126
0.548049
0.5432
0.53854
0.534074
0.529798
0.525715
0.521836
0.518166
0.514709
0.511454
0.508404
0.505564
0.502944
0.500542
0.498349
0.49638
0.494629
0.493098
0.491788
0.4907
0.489829
0.489171
0.488731
0.488511
0.488508
0.488722
0.489162
0.489821
0.490695
0.491795
0.493107
0.494635
0.496375
0.498339
0.500525
0.502928
0.50555
0.508392
0.511442
0.514698
0.518167
0.52184
0.525715
0.579135
0.573819
0.568742
0.563863
0.559186
0.554709
0.550435
0.546374
0.542532
0.538912
0.535504
0.532312
0.529339
0.526596
0.524082
0.521787
0.519725
0.517892
0.516289
0.514916
0.513777
0.512865
0.512177
0.511717
0.511486
0.511483
0.511707
0.512169
0.512858
0.513773
0.514924
0.516298
0.517899
0.519721
0.521777
0.524065
0.526581
0.529325
0.5323
0.535491
0.538899
0.542531
0.546376
0.550433
0.607149
0.601572
0.596246
0.591127
0.586221
0.581526
0.577043
0.572783
0.568754
0.564958
0.561384
0.558037
0.554921
0.552044
0.549409
0.547003
0.54484
0.542919
0.541238
0.539798
0.538603
0.537647
0.536926
0.536444
0.536201
0.536198
0.536434
0.536919
0.537641
0.538599
0.539806
0.541247
0.542926
0.544837
0.546994
0.549391
0.55203
0.554906
0.558025
0.561371
0.564943
0.568752
0.572784
0.57704
0.637419
0.631556
0.625956
0.620575
0.615416
0.610481
0.605769
0.601292
0.597058
0.59307
0.589314
0.585799
0.582526
0.579503
0.576735
0.574208
0.571936
0.569918
0.568152
0.566638
0.565383
0.564379
0.563622
0.563116
0.562861
0.562858
0.563106
0.563616
0.564373
0.565379
0.566646
0.568161
0.569925
0.571934
0.5742
0.576718
0.57949
0.58251
0.585786
0.589301
0.593053
0.597054
0.601292
0.605765
0.610461
0.670252
0.664071
0.658167
0.652495
0.647057
0.641857
0.636891
0.632173
0.627713
0.623513
0.619558
0.615856
0.612411
0.609227
0.606314
0.603654
0.601261
0.599137
0.597278
0.595684
0.594361
0.593305
0.592509
0.591977
0.591708
0.591705
0.591967
0.592504
0.5933
0.594358
0.595692
0.597286
0.599145
0.601261
0.603647
0.606296
0.609215
0.612394
0.615844
0.619543
0.623495
0.627708
0.632172
0.636886
0.641834
0.706021
0.699483
0.693238
0.68724
0.68149
0.675993
0.670743
0.665758
0.661045
0.656609
0.652432
0.648523
0.644886
0.641525
0.638451
0.635644
0.633117
0.630875
0.628913
0.627229
0.625833
0.624718
0.623879
0.623318
0.623034
0.623031
0.623308
0.623874
0.624714
0.62583
0.627237
0.62892
0.630883
0.633117
0.635637
0.638433
0.641513
0.64487
0.648511
0.652417
0.656589
0.661039
0.665755
0.670737
0.675968
0.745194
0.738247
0.731616
0.725248
0.719144
0.71331
0.70774
0.702451
0.697454
0.692752
0.688326
0.684185
0.680333
0.676773
0.673517
0.670545
0.667869
0.665496
0.663417
0.661634
0.660156
0.658975
0.658088
0.657494
0.657194
0.657191
0.657485
0.658083
0.658972
0.660153
0.661641
0.663424
0.665503
0.667871
0.670539
0.6735
0.676762
0.680317
0.684173
0.68831
0.692732
0.697448
0.702447
0.707733
0.713283
0.788378
0.78096
0.773881
0.767084
0.76057
0.754346
0.748406
0.742767
0.737443
0.732438
0.727728
0.723324
0.719226
0.71544
0.711978
0.708818
0.705973
0.70345
0.701239
0.699343
0.697772
0.696517
0.695576
0.694945
0.694625
0.694624
0.694936
0.69557
0.696516
0.697769
0.69935
0.701245
0.703456
0.705975
0.708813
0.711961
0.715429
0.71921
0.723311
0.727712
0.732417
0.737436
0.742762
0.748398
0.836291
0.828336
0.820738
0.813445
0.806458
0.799784
0.793416
0.787373
0.781671
0.776311
0.771271
0.76656
0.762177
0.758128
0.754426
0.751049
0.748008
0.74531
0.742947
0.74092
0.739242
0.737902
0.736898
0.736225
0.735884
0.735883
0.736217
0.736893
0.737902
0.73924
0.740928
0.742953
0.745316
0.74801
0.751044
0.75441
0.758118
0.762161
0.766547
0.771255
0.776291
0.781663
0.787367
0.793407
0.889773
0.881201
0.87301
0.86515
0.857621
0.850433
0.843577
0.837073
0.830935
0.825164
0.819739
0.814671
0.809957
0.805604
0.801624
0.797993
0.794726
0.791826
0.789287
0.787109
0.785306
0.783867
0.782789
0.782066
0.781701
0.7817
0.782059
0.782784
0.783868
0.785304
0.787116
0.789292
0.791832
0.794727
0.797989
0.801609
0.805594
0.809942
0.814658
0.819723
0.825144
0.830926
0.837067
0.843567
0.949884
0.940597
0.931719
0.923203
0.915048
0.907266
0.899847
0.892813
0.886171
0.879926
0.874059
0.868581
0.863486
0.858783
0.854483
0.850563
0.847035
0.843904
0.841163
0.838811
0.836864
0.835309
0.834144
0.833363
0.83297
0.83297
0.833357
0.83414
0.835311
0.836863
0.838818
0.841167
0.843908
0.847037
0.850559
0.854469
0.858773
0.863472
0.868568
0.874044
0.879907
0.886162
0.892806
0.899837
1.01799
1.00787
0.998182
0.988897
0.98001
0.971532
0.963455
0.955799
0.94857
0.941772
0.935391
0.929434
0.923897
0.918787
0.914115
0.909857
0.906027
0.902628
0.899652
0.897101
0.894986
0.893295
0.89203
0.891183
0.890756
0.890757
0.891178
0.892027
0.893299
0.894985
0.897107
0.899656
0.902632
0.906029
0.909854
0.914101
0.918778
0.923883
0.929421
0.935376
0.941754
0.94856
0.955791
0.963444
1.09589
1.08476
1.07412
1.06392
1.05416
1.04486
1.036
1.02761
1.01968
1.01223
1.00524
0.998721
0.992662
0.987071
0.98196
0.977305
0.973118
0.969402
0.966151
0.963364
0.961052
0.959203
0.95782
0.956894
0.956428
0.956429
0.95689
0.957817
0.959207
0.961051
0.96337
0.966155
0.969406
0.97312
0.977302
0.981947
0.987062
0.992649
0.998709
1.00523
1.01222
1.01967
1.0276
1.03599
1.18593
1.1736
1.1618
1.1505
1.1397
1.1294
1.1196
1.11033
1.10157
1.09333
1.08561
1.07841
1.07173
1.06556
1.05992
1.05479
1.05018
1.04609
1.0425
1.03943
1.03689
1.03485
1.03333
1.03231
1.03179
1.03179
1.0323
1.03332
1.03485
1.03689
1.03944
1.04251
1.04609
1.05018
1.05479
1.05991
1.06555
1.07171
1.0784
1.0856
1.09332
1.10156
1.11032
1.11959
1.29125
1.27745
1.26425
1.25162
1.23954
1.22803
1.21709
1.20673
1.19696
1.18778
1.17917
1.17114
1.1637
1.15683
1.15056
1.14485
1.13972
1.13516
1.13118
1.12777
1.12494
1.12267
1.12098
1.11984
1.11927
1.11928
1.11984
1.12098
1.12268
1.12494
1.12778
1.13118
1.13517
1.13972
1.14485
1.15055
1.15683
1.16369
1.17113
1.17916
1.18776
1.19695
1.20673
1.21708
1.41606
1.40046
1.38554
1.37125
1.35761
1.34462
1.33227
1.32059
1.30957
1.29922
1.28952
1.28048
1.2721
1.26437
1.25731
1.25089
1.24512
1.24001
1.23553
1.2317
1.22852
1.22597
1.22406
1.22279
1.22215
1.22216
1.22279
1.22406
1.22598
1.22852
1.2317
1.23553
1.24001
1.24513
1.25089
1.2573
1.26437
1.27209
1.28047
1.28951
1.2992
1.30956
1.32058
1.33226
1.3446
1.56603
1.5482
1.53115
1.51483
1.49924
1.48441
1.47033
1.457
1.44443
1.43263
1.42157
1.41128
1.40173
1.39294
1.3849
1.3776
1.37104
1.36522
1.36013
1.35578
1.35216
1.34927
1.3471
1.34566
1.34493
1.34493
1.34566
1.3471
1.34927
1.35216
1.35578
1.36014
1.36522
1.37104
1.3776
1.38489
1.39293
1.40173
1.41127
1.42157
1.43262
1.44442
1.45699
1.47032
1.48439
1.74891
1.72831
1.7086
1.68974
1.67174
1.65461
1.63835
1.62297
1.60847
1.59485
1.5821
1.57023
1.55923
1.5491
1.53983
1.53143
1.52387
1.51717
1.51132
1.50631
1.50214
1.49881
1.49632
1.49466
1.49382
1.49383
1.49466
1.49632
1.49882
1.50214
1.50631
1.51132
1.51718
1.52387
1.53143
1.53983
1.54909
1.55922
1.57022
1.58209
1.59484
1.60846
1.62296
1.63834
1.6546
1.9754
1.95132
1.92828
1.90624
1.8852
1.86519
1.84619
1.82822
1.81128
1.79538
1.7805
1.76664
1.75381
1.74198
1.73118
1.72137
1.71256
1.70475
1.69792
1.69208
1.68723
1.68334
1.68044
1.6785
1.67753
1.67753
1.6785
1.68044
1.68335
1.68722
1.69208
1.69792
1.70475
1.71256
1.72137
1.73117
1.74198
1.7538
1.76664
1.7805
1.79538
1.81128
1.82822
1.84619
1.86518
1.88521
2.26048
2.23201
2.20477
2.1787
2.15383
2.13016
2.10769
2.08644
2.06642
2.04762
2.03003
2.01365
1.99847
1.9845
1.97173
1.96014
1.94973
1.9405
1.93244
1.92554
1.91981
1.91522
1.91179
1.9095
1.90835
1.90835
1.90949
1.91178
1.91522
1.9198
1.92554
1.93244
1.9405
1.94973
1.96014
1.97172
1.9845
1.99847
2.01365
2.03003
2.04762
2.06643
2.08645
2.1077
2.13016
2.15384
2.62559
2.59153
2.55892
2.52772
2.49794
2.4696
2.4427
2.41726
2.39329
2.37077
2.34971
2.3301
2.31192
2.29519
2.2799
2.26602
2.25356
2.24251
2.23286
2.2246
2.21773
2.21224
2.20813
2.20539
2.20402
2.20402
2.20538
2.20812
2.21224
2.21772
2.2246
2.23286
2.24251
2.25356
2.26602
2.27989
2.29519
2.31192
2.3301
2.34971
2.37078
2.3933
2.41728
2.44272
2.46961
2.49796
2.52774
3.10215
3.06087
3.02133
2.9835
2.94738
2.913
2.88037
2.8495
2.82041
2.79309
2.76752
2.74371
2.72165
2.70133
2.68276
2.66591
2.65078
2.63736
2.62565
2.61562
2.60729
2.60062
2.59563
2.5923
2.59063
2.59063
2.59229
2.59562
2.60061
2.60727
2.61562
2.62565
2.63737
2.65079
2.66592
2.68276
2.70133
2.72165
2.74371
2.76753
2.7931
2.82043
2.84953
2.8804
2.91302
2.94741
2.98353
3.73772
3.68696
3.63833
3.59177
3.54733
3.505
3.46483
3.42682
3.39098
3.35733
3.32583
3.29649
3.26931
3.24427
3.22138
3.2006
3.18195
3.16541
3.15096
3.1386
3.12832
3.12011
3.11395
3.10985
3.10779
3.10778
3.10983
3.11393
3.12009
3.1283
3.1386
3.15097
3.16542
3.18196
3.20061
3.22137
3.24427
3.26931
3.2965
3.32584
3.35735
3.39102
3.42686
3.46487
3.50504
3.54737
3.59182
4.60703
4.54354
4.48269
4.42442
4.36877
4.31578
4.26545
4.21784
4.17294
4.13076
4.09128
4.0545
4.02041
3.98901
3.9603
3.93424
3.91084
3.89009
3.87196
3.85645
3.84356
3.83325
3.82552
3.82037
3.81779
3.81778
3.82035
3.82549
3.83322
3.84353
3.85645
3.87197
3.8901
3.91085
3.93425
3.9603
3.98901
4.02041
4.05452
4.0913
4.13079
4.17299
4.2179
4.26552
4.31583
4.36883
4.42448
5.83293
5.75185
5.6741
5.59964
5.52851
5.46076
5.3964
5.33549
5.27805
5.22408
5.17355
5.12646
5.08281
5.04259
5.00582
4.97244
4.94246
4.91587
4.89265
4.87278
4.85626
4.84305
4.83314
4.82654
4.82323
4.82322
4.8265
4.8331
4.843
4.85622
4.87277
4.89266
4.9159
4.94248
4.97245
5.00582
5.0426
5.08281
5.12648
5.17358
5.22412
5.27812
5.33558
5.39649
5.46083
5.5286
5.59973
7.62883
7.52253
7.42057
7.32289
7.22956
7.14063
7.05613
6.97615
6.90071
6.82981
6.76341
6.70153
6.64415
6.59128
6.54293
6.49903
6.4596
6.42462
6.39408
6.36794
6.3462
6.32882
6.31579
6.3071
6.30274
6.30273
6.30705
6.31572
6.32875
6.34614
6.36792
6.39409
6.42466
6.45963
6.49905
6.54293
6.59129
6.64416
6.70156
6.76345
6.82986
6.90081
6.97628
7.05626
7.14074
7.22968
7.32301
7.42072
10.3915
10.2473
10.109
9.97644
9.84973
9.72897
9.61421
9.50555
9.40303
9.30666
9.2164
9.13225
9.05421
8.98229
8.9165
8.85676
8.80311
8.75551
8.71393
8.67834
8.64874
8.62509
8.60734
8.59551
8.58957
8.58955
8.59543
8.60725
8.62499
8.64867
8.67832
8.71395
8.75555
8.80315
8.8568
8.9165
8.9823
9.05422
9.13229
9.21646
9.30674
9.40317
9.50573
9.61439
9.72913
9.8499
9.9766
10.1092
14.925
14.7204
14.524
14.3357
14.1557
13.9841
13.821
13.6665
13.5207
13.3836
13.2551
13.1354
13.0243
12.9219
12.8282
12.7431
12.6666
12.5988
12.5396
12.4889
12.4467
12.413
12.3877
12.3708
12.3623
12.3623
12.3707
12.3875
12.4128
12.4466
12.4888
12.5396
12.5989
12.6667
12.7431
12.8282
12.9219
13.0243
13.1354
13.2552
13.3837
13.5209
13.6667
13.8212
13.9843
14.156
14.336
14.5242
23.0527
22.7436
22.4468
22.1621
21.8898
21.6301
21.3832
21.1492
20.9283
20.7205
20.5258
20.3442
20.1757
20.0203
19.8782
19.749
19.633
19.53
19.44
19.363
19.2989
19.2477
19.2093
19.1836
19.1708
19.1707
19.1835
19.209
19.2475
19.2987
19.3629
19.44
19.5301
19.6331
19.7491
19.8782
20.0204
20.1757
20.3443
20.526
20.7207
20.9286
21.1496
21.3835
21.6305
21.8902
22.1625
22.4472
39.5983
39.0873
38.5961
38.1248
37.6737
37.2433
36.8337
36.4455
36.0788
35.7339
35.4104
35.1085
34.8283
34.5699
34.3333
34.1184
33.9252
33.7537
33.6038
33.4755
33.3688
33.2834
33.2194
33.1766
33.1552
33.1551
33.1764
33.219
33.283
33.3685
33.4754
33.6039
33.7539
33.9254
34.1185
34.3333
34.57
34.8284
35.1087
35.4106
35.7341
36.0794
36.4462
36.8344
37.2439
37.6743
38.1254
38.5967
80.4883
79.5187
78.5859
77.69
76.8318
76.0121
75.2315
74.4911
73.7911
73.1321
72.5137
71.9363
71.4
70.9051
70.4519
70.0398
69.6692
69.3402
69.0526
68.8062
68.6013
68.4373
68.3143
68.2322
68.191
68.1909
68.2317
68.3136
68.4366
68.6007
68.8061
69.0527
69.3406
69.6696
70.04
70.4519
70.9052
71.4001
71.9366
72.5141
73.1326
73.7922
74.4923
75.2328
76.0132
76.8329
77.6911
78.5871
219.852
217.557
215.346
213.218
211.177
209.224
207.362
205.593
203.918
202.339
200.856
199.469
198.18
196.989
195.897
194.903
194.009
193.215
192.52
191.924
191.429
191.032
190.734
190.535
190.436
190.435
190.534
190.732
191.03
191.427
191.924
192.52
193.216
194.01
194.904
195.897
196.989
198.18
199.47
200.857
202.34
203.92
205.596
207.365
209.227
211.18
213.221
215.349
1077.85
1070.23
1062.86
1055.75
1048.9
1042.32
1036.04
1030.05
1024.36
1018.99
1013.92
1009.18
1004.76
1000.67
996.912
993.486
990.399
987.651
985.245
983.18
981.46
980.082
979.048
978.357
978.01
978.009
978.352
979.042
980.077
981.455
983.179
985.246
987.654
990.401
993.488
996.912
1000.67
1004.76
1009.18
1013.93
1018.99
1024.37
1030.06
1036.05
1042.33
1048.91
1055.76
1062.87
0.289617
0.299254
0.309379
0.320026
0.331232
0.343036
0.355482
0.368619
0.382499
0.397181
0.412729
0.429215
0.446718
0.465329
0.48515
0.506296
0.528901
0.553118
0.579127
0.607141
0.637413
0.670247
0.706017
0.745191
0.788375
0.836289
0.889771
0.949883
1.01799
1.09589
1.18593
1.29125
1.41606
1.56603
1.74891
1.9754
2.26048
2.62558
3.10214
3.73771
4.60702
5.83292
7.62881
10.3915
14.9249
23.0526
39.5982
80.488
219.851
1077.85
0.286951
0.296496
0.306525
0.317071
0.328171
0.339864
0.352194
0.365209
0.378962
0.393509
0.408915
0.42525
0.442596
0.461039
0.480682
0.501637
0.524038
0.548035
0.573806
0.60156
0.631545
0.664061
0.699473
0.738239
0.780953
0.82833
0.881196
0.940594
1.00786
1.08476
1.1736
1.27745
1.40046
1.5482
1.72831
1.95132
2.23201
2.59152
3.06085
3.68694
4.54351
5.7518
7.52247
10.2473
14.7203
22.7434
39.087
79.5182
217.556
1070.23
0.2844
0.293858
0.303795
0.314245
0.325245
0.336832
0.349052
0.361951
0.375581
0.39
0.405271
0.421464
0.438658
0.456941
0.476414
0.497188
0.519394
0.543181
0.568725
0.59623
0.625943
0.658156
0.69323
0.731611
0.773878
0.820737
0.873011
0.931722
0.998187
1.07413
1.16181
1.26426
1.38554
1.53115
1.7086
1.92828
2.20476
2.55891
3.02132
3.6383
4.48265
5.67405
7.4205
10.1089
14.5238
22.4465
38.5957
78.5852
215.344
1062.86
0.281956
0.29133
0.301179
0.311537
0.32244
0.333927
0.346041
0.358828
0.372341
0.386637
0.401778
0.417834
0.434883
0.453012
0.472321
0.492921
0.514939
0.538525
0.563849
0.591116
0.620566
0.652488
0.687236
0.725247
0.767085
0.813448
0.865154
0.923208
0.988904
1.06393
1.15051
1.25162
1.37126
1.51483
1.68974
1.90624
2.1787
2.52771
2.98348
3.59175
4.42438
5.59959
7.32281
9.97633
14.3356
22.1619
38.1244
77.6892
213.216
1055.74
0.279618
0.288912
0.298677
0.308947
0.319757
0.331147
0.343158
0.355839
0.369239
0.383416
0.398431
0.414355
0.431264
0.449245
0.468396
0.488826
0.510664
0.534055
0.55917
0.586207
0.615405
0.647049
0.681485
0.719142
0.76057
0.806459
0.857624
0.915053
0.980015
1.05417
1.13971
1.23954
1.35762
1.49925
1.67174
1.8852
2.15382
2.49793
2.94736
3.5473
4.36874
5.52846
7.22949
9.84963
14.1556
21.8896
37.6733
76.831
211.175
1048.89
0.277384
0.286602
0.296287
0.306473
0.317195
0.328492
0.340407
0.352985
0.366278
0.380341
0.395236
0.411033
0.427808
0.445646
0.464644
0.484913
0.506577
0.529781
0.554694
0.581511
0.610468
0.641844
0.675981
0.7133
0.754338
0.799776
0.850426
0.90726
0.971527
1.04486
1.1294
1.22803
1.34462
1.48441
1.65461
1.86518
2.13015
2.46959
2.91298
3.50498
4.31575
5.46071
7.14056
9.72889
13.984
21.6299
37.243
76.0115
209.223
1042.32
0.275254
0.284399
0.294008
0.304113
0.314752
0.32596
0.337782
0.350262
0.363452
0.377406
0.392187
0.407863
0.42451
0.442212
0.461065
0.481179
0.502678
0.525704
0.550424
0.577032
0.605759
0.636882
0.670736
0.707734
0.748401
0.793412
0.843575
0.899847
0.963455
1.036
1.11961
1.21709
1.33227
1.47033
1.63835
1.84619
2.10769
2.4427
2.88036
3.46481
4.26544
5.39637
7.0561
9.61417
13.8209
21.383
36.8336
75.2312
207.361
1036.03
0.27323
0.282305
0.291841
0.301871
0.312429
0.323554
0.335287
0.347674
0.360766
0.374617
0.389289
0.40485
0.421374
0.438947
0.457663
0.47763
0.498972
0.521829
0.546365
0.572774
0.601283
0.632165
0.665749
0.702443
0.742759
0.787366
0.837067
0.892807
0.955794
1.0276
1.11032
1.20673
1.32059
1.457
1.62296
1.82822
2.08644
2.41726
2.84949
3.4268
4.21782
5.33546
6.97612
9.5055
13.6664
21.1491
36.4454
74.4907
205.592
1030.04
0.271314
0.280323
0.28979
0.299747
0.310229
0.321273
0.332922
0.345221
0.358219
0.371973
0.386541
0.401992
0.418401
0.435851
0.454437
0.474265
0.495458
0.518155
0.542519
0.56874
0.597043
0.627698
0.66103
0.69744
0.73743
0.781658
0.830923
0.88616
0.94856
1.01968
1.10156
1.19696
1.30956
1.44443
1.60846
1.81128
2.06641
2.39328
2.82039
3.39096
4.17291
5.27801
6.90066
9.40296
13.5206
20.9281
36.0786
73.7906
203.917
1024.36
0.269505
0.278451
0.287852
0.29774
0.308149
0.319118
0.330686
0.342901
0.355811
0.369471
0.383941
0.399289
0.415589
0.432923
0.451387
0.471085
0.492138
0.514685
0.538887
0.564932
0.593042
0.623485
0.65658
0.692724
0.732411
0.776286
0.825141
0.879906
0.941755
1.01222
1.09332
1.18777
1.29921
1.43262
1.59484
1.79537
2.04761
2.37076
2.79306
3.3573
4.13072
5.22401
6.82972
9.30654
13.3834
20.7202
35.7334
73.1312
202.337
1018.98
0.267806
0.276694
0.286033
0.295856
0.306197
0.317095
0.328589
0.340725
0.353552
0.367125
0.381504
0.396756
0.412953
0.430179
0.448527
0.468101
0.489023
0.51143
0.53548
0.56136
0.589291
0.619534
0.652409
0.688304
0.727707
0.771252
0.819722
0.874044
0.935378
1.00523
1.0856
1.17916
1.28951
1.42157
1.58209
1.78049
2.03002
2.3497
2.7675
3.3258
4.09124
5.17349
6.76333
9.21629
13.255
20.5256
35.41
72.5129
200.854
1013.92
0.26622
0.275053
0.284335
0.294098
0.304376
0.315207
0.326631
0.338694
0.351444
0.364936
0.379229
0.394389
0.41049
0.427615
0.445855
0.465316
0.486115
0.50839
0.532298
0.558023
0.585785
0.615843
0.648511
0.684174
0.723312
0.766549
0.81466
0.86857
0.929424
0.998712
1.07841
1.17114
1.28047
1.41127
1.57023
1.76664
2.01364
2.33009
2.7437
3.29648
4.05448
5.12643
6.70149
9.13219
13.1353
20.3441
35.1083
71.9359
199.468
1009.18
0.264746
0.273528
0.282758
0.292465
0.302685
0.313454
0.324814
0.336809
0.349488
0.362905
0.377118
0.392194
0.408207
0.425237
0.443376
0.462729
0.483413
0.505564
0.529339
0.554921
0.582525
0.61241
0.644885
0.680332
0.719226
0.762177
0.809958
0.863487
0.923897
0.992662
1.07173
1.1637
1.2721
1.40173
1.55923
1.75381
1.99847
2.31193
2.72165
3.26931
4.02042
5.08282
6.64416
9.05423
13.0243
20.1757
34.8284
71.4002
198.18
1004.76
0.263387
0.272122
0.281302
0.290957
0.301122
0.311834
0.323133
0.335064
0.347675
0.361021
0.37516
0.390158
0.406087
0.42303
0.441076
0.46033
0.480909
0.502947
0.5266
0.55205
0.579509
0.609235
0.641534
0.676782
0.715449
0.758137
0.805613
0.858791
0.918794
0.987078
1.06557
1.15684
1.26438
1.39294
1.5491
1.74199
1.98451
2.2952
2.70135
3.24429
3.98904
5.04263
6.59133
8.98237
12.922
20.0205
34.5702
70.9057
196.99
1000.67
0.262141
0.270833
0.279967
0.289575
0.29969
0.310349
0.321593
0.333466
0.346017
0.359297
0.373368
0.388294
0.404146
0.421008
0.438968
0.45813
0.478611
0.500545
0.524085
0.549412
0.576738
0.606316
0.638452
0.673518
0.711978
0.754425
0.801621
0.854479
0.91411
0.981954
1.05992
1.15055
1.2573
1.3849
1.53983
1.73117
1.97173
2.2799
2.68278
3.22139
3.96033
5.00586
6.54299
8.91659
12.8283
19.8784
34.3337
70.4525
195.898
996.917
0.261006
0.269659
0.278752
0.288316
0.298386
0.308998
0.320192
0.332013
0.344508
0.357731
0.37174
0.3866
0.402384
0.419173
0.437056
0.456135
0.476528
0.498366
0.521803
0.547018
0.574223
0.603668
0.635655
0.670556
0.708827
0.751056
0.798
0.850568
0.909861
0.977308
1.05479
1.14485
1.25089
1.3776
1.53143
1.72137
1.96015
2.26603
2.66594
3.20064
3.93429
4.97251
6.49913
8.85691
12.7433
19.7493
34.1189
70.0408
194.906
993.495
0.259983
0.2686
0.277656
0.287181
0.297209
0.307778
0.318926
0.330698
0.343143
0.356312
0.370266
0.385067
0.400789
0.417512
0.435324
0.454329
0.474642
0.496395
0.519741
0.544857
0.571953
0.601279
0.633134
0.667886
0.705989
0.748022
0.794738
0.847045
0.906036
0.973125
1.05019
1.13972
1.24513
1.37104
1.52388
1.71257
1.94974
2.25357
2.65081
3.18198
3.91089
4.94253
6.4597
8.80325
12.6668
19.6333
33.9257
69.6703
194.012
990.407
0.259072
0.267657
0.27668
0.28617
0.296162
0.306692
0.317801
0.329531
0.341931
0.355054
0.368957
0.383706
0.399372
0.416035
0.433785
0.452723
0.472964
0.49464
0.517903
0.54293
0.569929
0.599148
0.630885
0.665504
0.703457
0.745317
0.791832
0.843908
0.902632
0.969406
1.04609
1.13517
1.24001
1.36522
1.51718
1.70475
1.94051
2.24252
2.63738
3.16543
3.89012
4.91592
6.42469
8.75559
12.5989
19.5302
33.754
69.3409
193.216
987.656
0.258274
0.266832
0.275825
0.285285
0.295245
0.305741
0.316814
0.328506
0.340867
0.353948
0.367808
0.382511
0.398129
0.414741
0.432436
0.451316
0.471496
0.493105
0.516297
0.541246
0.56816
0.597286
0.628921
0.663426
0.701248
0.742956
0.789295
0.84117
0.89966
0.966158
1.04251
1.13119
1.23554
1.36014
1.51132
1.69793
1.93244
2.23286
2.62565
3.15097
3.87197
4.89267
6.3941
8.71396
12.5396
19.4401
33.604
69.0528
192.52
985.247
0.257591
0.266125
0.275093
0.284527
0.294459
0.304927
0.315969
0.32763
0.339957
0.353003
0.366826
0.38149
0.397065
0.413633
0.431281
0.450111
0.470237
0.491789
0.514919
0.539802
0.566644
0.59569
0.627237
0.661643
0.699353
0.740931
0.787121
0.838824
0.897113
0.963375
1.03945
1.12778
1.23171
1.35579
1.50632
1.69209
1.92554
2.2246
2.61562
3.1386
3.85645
4.87277
6.36792
8.67832
12.4888
19.3629
33.4754
68.8061
191.924
983.179
0.257022
0.265536
0.274484
0.283895
0.293805
0.304248
0.315265
0.326899
0.339198
0.352214
0.366005
0.380636
0.396177
0.412707
0.430317
0.449105
0.469187
0.490692
0.513771
0.538598
0.565379
0.59436
0.625833
0.660156
0.697773
0.739244
0.785308
0.836867
0.894989
0.961056
1.03689
1.12494
1.22852
1.35216
1.50215
1.68723
1.9198
2.21772
2.60727
3.1283
3.84353
4.85621
6.34613
8.64865
12.4465
19.2987
33.3684
68.6006
191.427
981.454
0.256567
0.265065
0.273996
0.283391
0.293282
0.303706
0.314703
0.326315
0.338592
0.351584
0.365351
0.379955
0.395467
0.411968
0.429546
0.448301
0.468347
0.489814
0.512852
0.537635
0.564369
0.593297
0.624712
0.65897
0.696514
0.737901
0.783867
0.835311
0.893299
0.959208
1.03486
1.12268
1.22598
1.34927
1.49882
1.68335
1.91522
2.21223
2.6006
3.12008
3.8332
4.84298
6.32872
8.62495
12.4128
19.2474
33.2829
68.4363
191.029
980.074
0.256225
0.264711
0.27363
0.283011
0.292889
0.303299
0.31428
0.325877
0.338137
0.351112
0.364859
0.379444
0.394936
0.411414
0.428969
0.447698
0.467718
0.489155
0.512162
0.536912
0.563609
0.592497
0.623867
0.658077
0.695565
0.736889
0.782781
0.834138
0.892026
0.957817
1.03332
1.12098
1.22407
1.3471
1.49632
1.68043
1.91178
2.20812
2.5956
3.11391
3.82547
4.83306
6.31567
8.60717
12.3874
19.2089
33.2187
68.3131
190.731
979.037
0.255998
0.264476
0.273386
0.282759
0.292627
0.303027
0.313998
0.325584
0.337833
0.350795
0.36453
0.379101
0.394579
0.411043
0.428582
0.447295
0.467296
0.488716
0.511702
0.536429
0.563102
0.591964
0.623305
0.657483
0.694935
0.736216
0.78206
0.833359
0.891181
0.956893
1.03231
1.11985
1.22279
1.34566
1.49466
1.6785
1.90949
2.20538
2.59227
3.10981
3.82031
4.82646
6.30698
8.59534
12.3705
19.1832
33.176
68.231
190.532
978.347
0.255886
0.26436
0.273266
0.282634
0.292497
0.302892
0.313858
0.325438
0.33768
0.350637
0.364365