/*--------------------------------*- C++ -*----------------------------------*\
  =========                 |
  \\      /  F ield         | OpenFOAM: The Open Source CFD Toolbox
   \\    /   O peration     | Website:  https://openfoam.org
    \\  /    A nd           | Version:  7
     \\/     M anipulation  |
\*---------------------------------------------------------------------------*/
FoamFile
{
    version     2.0;
    format      ascii;
    class       surfaceScalarField;
    location    "40000";
    object      phi;
}
// * * * * * * * * * * * * * * * * * * * * * * * * * * * * * * * * * * * * * //

dimensions      [0 3 -1 0 0 0 0];

internalField   nonuniform List<scalar> 
9540
(
-3.08288e-23
3.58188e-24
1.98167e-23
1.67822e-23
-2.5401e-23
1.03725e-23
2.10387e-23
-1.39152e-23
2.52642e-23
1.46414e-23
-2.23513e-23
1.12086e-23
7.82458e-24
-1.65785e-23
2.21933e-23
-1.26166e-23
1.15888e-23
-7.10724e-24
2.01879e-23
1.24207e-23
-1.83235e-23
1.88195e-23
9.0152e-24
-1.85107e-23
2.1991e-23
-1.14491e-23
4.4359e-24
-1.19068e-23
2.04677e-23
-7.9708e-24
2.72365e-23
1.43651e-23
-1.82442e-23
2.74847e-23
8.48192e-24
-2.29581e-23
2.53852e-23
-6.79685e-24
2.60421e-23
-1.05339e-23
2.52834e-23
-6.72309e-24
1.87889e-23
2.9653e-24
6.66606e-24
3.06626e-23
-2.08531e-23
1.00255e-23
6.70194e-24
-2.0617e-23
2.16388e-23
-1.11426e-23
2.99318e-23
-9.96275e-24
1.3891e-23
-1.25269e-23
2.63192e-23
8.44435e-24
2.42326e-23
-9.24021e-25
1.96035e-23
-7.503e-27
2.89406e-23
1.1379e-23
-2.13658e-23
8.07606e-24
1.12574e-23
-1.71003e-23
1.61177e-23
-1.71777e-23
3.0721e-23
-8.53197e-24
2.47191e-23
-1.06404e-23
2.41821e-23
5.72106e-24
4.66972e-23
1.96313e-24
3.29465e-23
-5.98365e-24
2.29336e-23
-1.26942e-23
1.43253e-23
2.28672e-23
-1.5726e-23
2.55672e-23
1.42659e-23
-1.47988e-23
3.20816e-23
-1.68414e-23
1.84014e-23
-9.14369e-24
1.69491e-23
-4.54731e-24
3.31247e-23
2.26016e-24
3.61293e-23
-2.72144e-24
3.26594e-23
-9.54519e-24
2.32499e-23
-8.692e-24
7.95534e-24
-3.05886e-24
1.49966e-23
-1.17903e-23
5.05404e-24
-5.81137e-24
1.27068e-23
9.15174e-25
7.40149e-25
-1.37062e-23
-1.41215e-23
1.87414e-23
1.02341e-23
-1.7091e-23
1.88471e-23
-1.70416e-23
1.79981e-23
-8.72123e-24
2.06498e-23
-3.7085e-24
2.52598e-23
3.86711e-25
3.36295e-23
-7.78728e-24
3.63487e-23
-1.26348e-23
2.27412e-23
-8.60825e-24
1.41413e-23
-6.14748e-24
1.0239e-23
-6.97375e-24
2.28824e-24
-9.77782e-24
1.1371e-25
-2.66531e-24
1.51344e-23
-1.7169e-23
-1.03219e-23
-1.84525e-23
2.27214e-24
-1.90359e-23
5.64988e-24
-1.85106e-23
1.20038e-23
7.68672e-24
-1.16559e-23
2.15637e-23
1.00086e-23
-1.67458e-23
2.0522e-23
-1.66878e-23
1.64247e-23
-8.38098e-24
2.78628e-23
-3.07264e-24
2.12246e-23
6.65368e-25
2.69312e-23
-1.01562e-23
7.99043e-24
-1.18941e-23
1.92146e-23
-1.02475e-23
1.25044e-23
-1.02404e-23
6.12209e-24
-8.42998e-24
-3.23011e-24
-8.40627e-24
-1.90877e-24
-8.45709e-24
1.39389e-23
-1.37189e-23
9.56254e-25
-1.43951e-23
1.60101e-23
-1.76879e-23
1.13695e-23
-2.07585e-23
1.48738e-23
-1.59468e-23
8.61013e-24
-8.61778e-24
-1.34026e-23
-7.43024e-24
-1.28005e-23
1.79334e-23
1.17311e-23
-1.61044e-23
2.39683e-23
-1.38371e-23
1.38811e-23
-1.04726e-23
2.66128e-23
-1.80409e-24
2.81659e-23
-5.7721e-24
1.32033e-23
-8.66409e-24
-2.85488e-24
-1.27718e-23
7.0267e-24
-1.15497e-23
6.76463e-24
-1.10858e-23
1.47281e-24
-7.89195e-24
-9.28513e-24
-3.94385e-24
-8.65225e-24
-1.17191e-23
2.4857e-24
-1.15596e-23
6.87659e-24
-1.39802e-23
2.45826e-23
-1.55305e-23
1.08946e-23
-2.4339e-23
2.86526e-23
-2.00635e-23
9.88981e-24
-8.27046e-24
-2.4235e-23
-6.81526e-24
-9.60283e-24
-6.03849e-24
8.86029e-24
-6.07297e-24
-9.75981e-26
-7.82097e-24
2.96984e-24
-9.7615e-24
-1.21994e-23
1.54925e-23
1.38483e-23
-1.79608e-23
2.90195e-23
-1.43448e-23
1.13298e-23
-1.06458e-23
2.11018e-23
-4.22986e-24
1.82707e-23
-7.18657e-24
3.13691e-23
-5.75143e-24
-9.36386e-24
-1.27466e-23
1.06719e-23
-1.40796e-23
8.03799e-24
-1.50585e-23
4.11413e-24
-9.40128e-24
-3.16987e-24
-2.24686e-24
8.65466e-25
-1.08692e-23
6.03296e-24
-1.01335e-23
3.47392e-24
-1.80209e-23
2.88516e-23
-1.26084e-23
7.56311e-24
-2.73237e-23
3.85717e-24
-2.52408e-23
1.20486e-23
-6.47831e-24
1.54547e-23
-1.87387e-24
5.16269e-23
-9.80268e-24
1.89084e-23
-4.9592e-24
-4.99106e-24
-1.15132e-23
1.04473e-23
1.15005e-24
2.20227e-23
-2.08921e-23
1.94702e-23
-5.55171e-23
4.09483e-23
-5.85602e-23
2.11616e-23
-2.43638e-23
2.4275e-23
2.44283e-23
-7.59558e-24
8.38501e-24
1.48016e-23
-2.00377e-23
4.45888e-23
-1.16604e-23
4.07294e-23
-1.35603e-23
2.4666e-23
-3.12069e-24
4.34085e-23
-1.40459e-23
3.96068e-23
-4.01661e-24
4.18617e-23
-1.51067e-23
1.80469e-23
-1.24465e-23
1.83469e-23
-1.7695e-23
1.04114e-23
-8.81619e-24
4.14593e-24
-3.1152e-24
-5.24029e-24
-1.25791e-23
-1.02739e-24
-4.71205e-24
9.23788e-24
-2.17898e-23
3.21124e-23
-1.1121e-23
6.23676e-23
-2.71543e-23
1.91177e-23
-2.40087e-23
4.39276e-23
6.1835e-25
5.30573e-23
-7.96295e-24
2.75737e-23
-1.57233e-23
2.41776e-23
-9.66651e-25
4.64014e-23
-9.05035e-24
2.14991e-23
-7.04186e-25
3.03278e-23
-1.79158e-23
3.59699e-23
-5.69135e-23
1.5721e-23
-5.84301e-23
2.83807e-23
-2.52509e-23
5.34389e-23
-3.82678e-23
4.4633e-23
-4.79824e-23
4.45826e-23
-4.03652e-23
4.65208e-23
2.98086e-23
-1.68769e-24
4.08383e-23
1.562e-23
-1.93895e-23
2.00063e-25
-1.42026e-23
3.60884e-23
-7.74968e-24
5.76674e-23
-4.80505e-24
3.63888e-23
-1.45011e-23
3.05975e-23
-6.73263e-24
1.82062e-23
-1.3582e-23
3.00569e-23
-1.65011e-23
8.67394e-24
-1.64168e-23
9.91689e-24
-1.02964e-23
-4.21525e-24
-4.15449e-24
-1.45405e-23
-8.97381e-24
4.61061e-24
1.44779e-25
1.15382e-23
-1.83166e-23
-1.36049e-23
-1.92032e-23
2.05206e-23
-2.22299e-23
1.75304e-23
-2.02428e-23
4.06208e-23
-4.69681e-24
5.61917e-23
-9.75871e-24
3.41715e-23
-1.19662e-23
2.26165e-23
-6.8893e-24
4.02906e-23
-7.31234e-24
2.50923e-23
1.53674e-25
2.77951e-23
-2.17068e-23
1.59945e-23
-5.32888e-23
4.33775e-23
-5.50148e-23
3.45234e-23
-2.70832e-23
8.74368e-23
-4.01612e-23
6.38226e-23
-4.81111e-23
5.84772e-23
-4.75195e-23
5.33344e-23
-4.7166e-23
5.09537e-23
-5.84696e-23
-4.02895e-23
3.06922e-23
-7.4942e-24
3.72016e-23
1.26552e-23
-1.41721e-23
2.34238e-23
-1.31994e-23
3.46583e-23
-1.07632e-23
5.38706e-23
-5.7114e-24
3.94642e-23
-1.43001e-23
1.96852e-23
-4.68712e-24
2.88855e-23
-1.76467e-23
4.4888e-24
-1.66836e-23
7.17291e-24
-1.79138e-23
8.59233e-24
-1.20223e-23
2.5944e-23
-7.99598e-25
3.79549e-23
-7.72828e-24
9.37899e-24
-5.37306e-24
2.97373e-24
-1.2712e-23
-1.29183e-23
-1.96605e-23
2.09396e-23
-1.99942e-23
1.21633e-23
-1.68529e-23
3.58118e-23
-1.2095e-23
4.08018e-23
-1.03796e-23
3.29447e-23
-9.07114e-24
1.78025e-23
-9.30606e-24
2.72286e-23
-6.93452e-24
3.99423e-23
-4.129e-24
2.51595e-23
-1.65285e-23
2.21441e-23
-5.56043e-23
4.04537e-23
-4.41042e-23
2.71407e-23
-3.245e-23
1.06269e-22
-4.07763e-23
7.1848e-23
-5.1268e-23
7.00035e-23
-4.94803e-23
5.7431e-23
-6.66601e-23
7.85134e-23
-7.36831e-23
2.59918e-23
2.60367e-23
-7.80071e-24
3.16864e-23
1.20677e-23
-1.22815e-23
1.91257e-23
-1.17747e-23
3.29647e-23
-1.14404e-23
6.01494e-23
-9.61996e-24
3.07304e-23
-1.5702e-23
2.32562e-23
-1.16733e-23
2.60788e-23
-1.85478e-23
1.00592e-23
-1.71646e-23
-1.22286e-23
-1.59408e-23
3.7607e-24
-9.13014e-24
1.70714e-23
-5.78944e-24
2.02562e-23
-9.23163e-24
1.16362e-23
-9.00489e-24
4.94032e-24
-9.72921e-24
-1.94005e-23
-2.05622e-23
-9.44441e-24
-1.59752e-23
1.13674e-24
-1.63343e-23
-1.16829e-23
-1.29448e-23
-7.18313e-24
-1.13073e-23
3.06872e-23
-9.14942e-24
1.34909e-23
-7.45933e-24
2.28476e-23
-1.10695e-23
3.48856e-24
-3.5122e-24
1.92141e-23
-1.22542e-23
2.79684e-23
-5.92605e-23
-3.48265e-24
-2.92049e-23
6.15062e-23
-3.93816e-23
5.85904e-23
-3.97786e-23
7.36295e-23
-5.62942e-23
2.76925e-23
-4.87335e-23
6.90432e-23
-8.01013e-23
6.28629e-23
-1.09804e-22
5.14972e-23
3.02785e-23
-1.00966e-23
2.81238e-23
1.08798e-23
-1.30428e-23
2.35481e-23
-8.07138e-24
2.69739e-23
-1.70696e-23
4.86042e-23
-1.2461e-23
3.55717e-23
-1.42596e-23
1.90817e-23
-1.23397e-23
2.0347e-23
-2.0431e-23
1.58853e-23
-1.52882e-23
1.97133e-23
-1.29125e-23
-9.05243e-25
-7.89529e-24
-4.07202e-24
-6.53559e-24
1.05719e-23
-1.04516e-23
-4.31246e-26
-1.02513e-23
2.73103e-24
-9.39601e-24
-2.18082e-23
-1.73264e-23
-4.63878e-24
-1.88467e-23
-3.80457e-24
-1.65611e-23
-1.76358e-23
-7.54958e-24
1.53896e-23
-1.43243e-23
3.46713e-23
-7.70401e-24
6.13031e-24
-1.01121e-23
-2.37641e-25
-1.09627e-23
4.33876e-23
-8.50681e-25
5.02768e-23
-1.73005e-23
3.10171e-23
-4.77569e-23
2.07117e-23
-3.11836e-23
8.36419e-23
-3.56709e-23
6.33034e-23
-4.79884e-23
5.00249e-23
-5.06013e-23
3.45661e-23
-5.30188e-23
7.49029e-23
-8.31748e-23
7.52646e-23
-1.18244e-22
8.70747e-23
1.63297e-22
-7.9939e-24
3.3375e-23
9.82677e-24
-1.27934e-23
2.82168e-23
-7.03526e-24
3.69051e-23
-1.61401e-23
4.11227e-23
-1.50586e-23
2.88506e-23
-1.47946e-23
1.82497e-23
-1.21039e-23
2.02361e-23
-1.86448e-23
1.81872e-23
-2.05358e-23
1.79165e-23
-1.32818e-23
-1.04424e-23
-5.10964e-24
2.60494e-23
-8.5058e-24
1.35562e-23
-1.08811e-23
4.89783e-25
-1.20673e-23
6.60679e-24
-9.58941e-24
-1.91111e-23
-1.50663e-23
-6.49079e-24
-2.01688e-23
2.09464e-24
-1.1919e-23
4.03937e-23
-4.4652e-24
3.90638e-23
-1.69746e-23
3.90203e-23
-9.2198e-24
7.99166e-25
-4.6801e-24
-4.4625e-24
-9.88285e-24
9.43597e-24
-3.20071e-24
8.39686e-23
-1.86251e-23
4.28482e-23
-3.90388e-23
3.57593e-23
-3.48077e-23
7.88659e-23
-3.55582e-23
6.11141e-23
-5.00131e-23
6.61205e-23
-4.50972e-23
7.49754e-23
-5.38815e-23
8.95203e-23
-7.86892e-23
8.78388e-23
-1.20806e-22
1.29158e-22
1.84644e-22
-9.47729e-24
2.17729e-23
5.1744e-24
-1.17394e-23
1.86759e-23
-7.2751e-24
3.18376e-23
-1.88226e-23
1.00983e-23
-1.80251e-23
1.76461e-23
-1.58684e-23
2.60866e-23
-1.21315e-23
1.10118e-23
-2.06276e-23
2.44515e-23
-2.30327e-23
2.01326e-23
-1.04714e-23
3.25379e-23
-6.12344e-24
6.0876e-23
-1.2596e-23
1.43631e-24
-1.03547e-23
-1.29193e-24
-1.41554e-23
6.13887e-24
-7.45878e-24
1.18708e-23
-1.67635e-23
5.95457e-24
-1.35267e-23
-2.07052e-24
-1.13551e-23
2.31478e-23
-3.76611e-24
2.9172e-23
-2.25986e-23
3.60001e-23
-9.12652e-24
5.12048e-23
-3.86452e-24
-7.58465e-24
1.03796e-25
2.29425e-23
-1.00642e-23
2.83657e-23
-1.75913e-23
4.80878e-23
-3.45658e-23
1.87008e-23
-3.64454e-23
4.32195e-23
-3.58713e-23
5.79717e-23
-4.7286e-23
7.60534e-23
-4.39263e-23
7.76836e-23
-5.24962e-23
1.02641e-22
-6.97206e-23
1.13793e-22
-8.99281e-23
1.47711e-22
1.78205e-22
-9.22037e-24
7.58518e-24
5.2113e-24
-1.25922e-23
2.27088e-23
-1.1882e-23
2.70027e-23
-1.7642e-23
8.69679e-24
-1.55225e-23
1.28664e-23
-1.84146e-23
2.96132e-23
-1.10601e-23
4.04954e-23
-2.20738e-23
4.46614e-23
-1.9956e-23
5.67343e-23
-8.3041e-24
5.89414e-23
-1.52495e-23
6.37969e-23
-1.40022e-23
1.41616e-23
-9.75203e-24
-4.59576e-24
-1.2424e-23
8.88975e-24
-8.70327e-24
1.31666e-23
-1.66438e-23
1.58658e-23
-1.04298e-23
4.84953e-23
-1.07169e-23
5.69524e-23
-3.58665e-24
5.53919e-23
-2.10654e-23
4.87949e-23
-1.66904e-23
4.93193e-23
3.9153e-25
4.04868e-23
-5.87937e-25
2.66848e-23
-5.9896e-24
3.07788e-23
-2.11925e-23
2.75231e-23
-3.30004e-23
2.94129e-23
-3.32257e-23
5.90389e-23
-3.32792e-23
6.21292e-23
-4.69245e-23
7.70485e-23
-4.07955e-23
1.17946e-22
-4.9765e-23
1.13631e-22
-6.39804e-23
1.34429e-22
-6.50878e-23
2.07425e-22
1.92285e-22
-7.60704e-24
2.27448e-24
6.52498e-24
-1.1467e-23
2.67123e-23
-1.33209e-23
1.62258e-23
-1.72375e-23
8.25845e-24
-1.48798e-23
8.13879e-24
-1.57642e-23
1.14996e-23
-1.04929e-23
3.02706e-23
-1.8556e-23
3.2112e-23
-1.90955e-23
5.46976e-23
-4.81389e-24
6.05362e-23
-2.10541e-23
3.72608e-23
-1.54988e-23
2.20696e-23
-8.41049e-24
2.72715e-23
-1.1708e-23
1.49701e-23
-8.02533e-24
1.39424e-23
-1.12214e-23
1.17008e-23
-1.02533e-23
4.76988e-23
-1.03689e-23
5.15685e-23
-4.59983e-24
4.36448e-23
-2.06005e-23
2.85524e-23
-1.62147e-23
4.6836e-23
-3.24133e-24
2.6933e-23
-1.21577e-24
2.75801e-23
-5.89495e-24
2.94933e-23
-2.0635e-23
3.52283e-23
-3.01435e-23
3.79438e-23
-3.25829e-23
5.85568e-23
-3.03632e-23
6.34347e-23
-4.16035e-23
8.8107e-23
-4.04869e-23
1.2393e-22
-4.6262e-23
1.21022e-22
-5.45489e-23
1.47532e-22
-5.65411e-23
2.01955e-22
1.695e-22
-8.02097e-24
-4.12824e-25
7.59475e-24
-1.35816e-23
-6.73986e-24
-1.1065e-23
-4.57781e-24
-1.53241e-23
2.57542e-23
-1.38833e-23
4.11596e-23
-1.36498e-23
2.45373e-23
-1.11058e-23
2.78936e-23
-1.68168e-23
3.91453e-23
-1.63221e-23
4.68028e-23
-1.04646e-23
5.26083e-23
-2.16872e-23
1.5567e-23
-1.59779e-23
3.07823e-23
-8.83699e-24
3.34188e-23
-1.30159e-23
3.47791e-24
-6.94713e-24
-1.60503e-24
-6.34593e-24
-4.1588e-24
-1.10327e-23
5.26559e-23
-9.89679e-24
4.59941e-23
-7.94338e-24
2.87002e-23
-1.81114e-23
3.80581e-23
-1.85527e-23
4.44331e-23
-4.43731e-24
1.05406e-23
-1.279e-24
2.83956e-23
-4.56004e-24
2.57362e-23
-2.06817e-23
4.27559e-23
-2.72666e-23
4.05295e-23
-3.2434e-23
5.76552e-23
-2.54711e-23
1.17121e-22
-3.91931e-23
1.0449e-22
-3.91403e-23
1.33576e-22
-4.25157e-23
1.25566e-22
-4.88493e-23
1.59005e-22
-5.19744e-23
1.79457e-22
1.78184e-22
-8.4485e-24
-1.5796e-23
7.01119e-24
-1.2105e-23
-4.02544e-24
-1.03822e-23
9.65432e-24
-1.43595e-23
2.75649e-23
-1.29458e-23
1.66458e-23
-1.41532e-23
2.24177e-23
-9.98708e-24
4.13205e-23
-1.49013e-23
2.70289e-23
-1.70882e-23
3.57694e-23
-1.36638e-23
2.78998e-23
-2.06049e-23
1.56348e-23
-1.47923e-23
3.79273e-23
-1.28198e-23
3.30105e-23
-1.46187e-23
3.2221e-24
-4.99076e-24
2.71143e-23
-2.2942e-24
5.93811e-23
-1.02746e-23
5.61873e-23
-1.19836e-23
3.95946e-23
-7.51704e-24
2.5009e-23
-1.66321e-23
4.32076e-23
-2.25713e-23
8.12415e-24
-2.41788e-24
5.39647e-23
-2.71501e-24
3.28281e-23
-1.87763e-24
1.92504e-23
-2.15911e-23
-2.82179e-23
-2.46523e-23
3.46128e-23
-2.57263e-23
5.01998e-23
-2.52295e-23
1.12873e-22
-3.81988e-23
5.41307e-23
-3.78259e-23
1.53351e-22
-3.90728e-23
1.27663e-22
-4.77442e-23
1.72307e-22
-4.69482e-23
1.89174e-22
-5.31387e-23
1.76843e-22
3.72735e-22
-7.84199e-24
-1.59547e-23
6.88599e-24
-1.11193e-23
6.98925e-24
-7.74657e-24
4.17338e-24
-1.43384e-23
1.28836e-23
-1.29006e-23
2.83702e-23
-1.43243e-23
2.15054e-23
-1.3071e-23
3.47632e-23
-1.32767e-23
1.68326e-23
-2.02575e-23
2.39785e-23
-1.48341e-23
1.51644e-23
-1.86133e-23
1.18198e-23
-1.43177e-23
3.32119e-23
-1.64784e-23
2.17513e-23
-1.19502e-23
-8.5239e-24
-1.38979e-24
2.82255e-23
-3.92558e-24
2.31098e-23
-1.22717e-23
2.04541e-23
-1.46248e-23
2.45147e-23
-4.31436e-24
5.24163e-23
-1.99875e-23
5.32233e-23
-1.82501e-23
4.25084e-23
-5.28597e-24
6.06699e-23
-4.22442e-24
3.74176e-23
-6.87712e-24
1.5378e-23
-1.58108e-23
-2.85722e-23
-2.32258e-23
2.41016e-23
-1.85107e-23
5.4866e-23
-3.04423e-23
5.98308e-23
-2.88051e-23
5.12818e-23
-3.89617e-23
1.05846e-22
-3.35397e-23
1.21614e-22
-4.62014e-23
1.47664e-22
-4.27688e-23
1.91748e-22
-4.43469e-23
2.03739e-22
3.51058e-22
-5.26377e-24
1.73957e-23
8.51721e-24
-1.15434e-23
1.3401e-23
-8.32075e-24
1.37742e-24
-1.38503e-23
1.00873e-23
-1.34698e-23
2.81106e-23
-1.21233e-23
1.68782e-23
-1.57007e-23
1.61279e-23
-1.09055e-23
8.00725e-24
-2.02053e-23
2.69453e-23
-1.39025e-23
4.73627e-23
-1.71647e-23
1.31312e-23
-1.59897e-23
3.45273e-23
-2.0052e-23
9.6118e-24
-8.55567e-24
4.29337e-23
-7.15255e-25
5.86647e-23
-4.5073e-24
2.54733e-23
-1.04639e-23
2.61537e-23
-1.25638e-23
2.4606e-23
-5.14039e-24
5.48348e-23
-1.96327e-23
2.78242e-23
-1.74261e-23
3.84838e-23
-7.22179e-24
9.15834e-23
-7.68717e-24
4.15331e-23
-1.13436e-23
6.97672e-24
-1.0857e-23
-3.69884e-23
-1.85512e-23
2.44981e-23
-1.97131e-23
4.96873e-23
-2.84387e-23
6.2945e-23
-2.56293e-23
5.18151e-23
-3.45156e-23
1.16377e-22
-3.15298e-23
1.17889e-22
-4.32917e-23
1.25696e-22
-3.81869e-23
1.92451e-22
-3.81864e-23
1.69755e-22
-4.80816e-24
1.36038e-23
4.01574e-24
-1.19792e-23
1.56004e-23
-7.26532e-24
-2.24964e-24
-1.28809e-23
1.63978e-23
-1.30601e-23
2.33501e-23
-1.33773e-23
1.44374e-23
-1.60739e-23
1.64598e-23
-9.74075e-24
3.56146e-23
-1.65868e-23
2.53448e-23
-1.63031e-23
4.38237e-23
-1.6216e-23
2.09295e-23
-1.75731e-23
3.61241e-23
-1.57092e-23
2.83926e-23
-8.00696e-24
4.19525e-23
-3.95585e-24
5.04077e-23
-6.44086e-24
3.9181e-23
-1.00923e-23
4.68561e-23
-1.02275e-23
2.49214e-23
-8.04215e-24
4.95165e-23
-1.77239e-23
3.19374e-23
-1.34689e-23
3.61158e-23
-1.18445e-23
7.56322e-23
-1.18433e-23
4.24056e-23
-1.50333e-23
1.55399e-23
-6.34898e-24
1.76982e-23
-1.56733e-23
3.11265e-23
-1.94181e-23
4.85561e-23
-2.77173e-23
6.46589e-23
-2.24596e-23
4.88191e-23
-3.1398e-23
8.27488e-23
-3.01337e-23
1.14107e-22
-3.62478e-23
1.34524e-22
-3.61539e-23
2.00598e-22
1.52886e-22
-3.89106e-24
9.51057e-24
1.20505e-24
-1.49105e-23
7.75986e-24
-4.63461e-24
2.69885e-24
-1.24946e-23
9.6123e-24
-1.36023e-23
1.91037e-23
-1.28029e-23
1.35898e-23
-1.26883e-23
1.40418e-23
-1.12595e-23
4.01274e-23
-1.6804e-23
1.43519e-23
-1.69795e-23
3.97227e-23
-1.61939e-23
2.88942e-23
-1.7319e-23
3.79496e-23
-1.45425e-23
2.90516e-23
-7.51081e-24
2.8418e-23
-4.76258e-24
4.27743e-23
-5.64855e-24
3.6464e-23
-1.09022e-23
7.03334e-23
-9.22046e-24
2.92075e-23
-9.71116e-24
5.3467e-23
-1.7216e-23
2.5574e-23
-1.07061e-23
2.56972e-23
-1.50059e-23
4.05186e-23
-1.50329e-23
4.19804e-23
-1.38517e-23
1.89142e-23
-5.92377e-24
1.44707e-23
-1.43663e-23
3.33685e-23
-1.79009e-23
4.82171e-23
-2.83143e-23
6.91278e-23
-2.06043e-23
8.10666e-23
-2.72339e-23
9.57657e-23
-2.83856e-23
1.10821e-22
-3.11001e-23
1.29009e-22
-3.78647e-23
1.55003e-22
1.48191e-22
-3.30298e-24
-9.06914e-24
6.51557e-25
-1.52943e-23
-2.45204e-23
-5.98899e-24
-3.73354e-24
-1.22518e-23
1.66757e-23
-1.44723e-23
1.9744e-23
-1.23317e-23
5.18611e-23
-1.32109e-23
1.49551e-23
-1.26221e-23
5.3336e-23
-1.44549e-23
1.29273e-23
-1.69135e-23
3.88363e-23
-1.61679e-23
2.49354e-23
-1.79109e-23
3.79069e-23
-1.44262e-23
2.22539e-23
-8.26603e-24
3.4389e-23
-4.71299e-24
4.55333e-23
-3.09238e-24
3.71063e-23
-1.45849e-23
4.7102e-23
-6.04201e-24
2.49768e-23
-1.22078e-23
2.31533e-23
-1.66631e-23
2.51641e-23
-1.03251e-23
2.63921e-23
-1.40132e-23
4.4428e-23
-1.72086e-23
4.4256e-23
-1.41818e-23
5.48021e-23
-4.46045e-24
7.02024e-23
-1.46117e-23
2.50123e-23
-1.58741e-23
4.79094e-23
-2.726e-23
4.02537e-23
-1.96385e-23
7.40472e-23
-2.57651e-23
9.60302e-23
-2.56876e-23
1.06887e-22
-3.17479e-23
1.37278e-22
-3.54537e-23
1.60332e-22
1.41715e-22
-5.76716e-24
-1.08365e-23
2.2355e-24
-1.41574e-23
-1.70847e-23
-4.46738e-24
2.80827e-23
-1.05892e-23
2.00531e-23
-1.26159e-23
3.10409e-23
-1.56448e-23
4.2552e-23
-1.09009e-23
7.13572e-24
-1.50283e-23
5.48614e-23
-1.31136e-23
4.34196e-23
-1.71547e-23
4.13388e-23
-1.51123e-23
1.78951e-23
-1.88638e-23
2.11387e-23
-1.20033e-23
4.84742e-23
-8.90996e-24
5.19007e-23
-5.1753e-24
3.71597e-23
-3.05909e-24
3.31329e-23
-1.46448e-23
7.71425e-26
-7.62687e-24
2.28613e-23
-1.15025e-23
1.07123e-23
-1.6568e-23
2.5292e-23
-9.48111e-24
8.46215e-23
-1.39249e-23
4.99058e-23
-1.61798e-23
4.65626e-23
-1.31882e-23
5.69649e-23
-7.79382e-24
7.01406e-23
-1.35923e-23
2.66114e-23
-1.65026e-23
4.80994e-23
-2.43796e-23
4.2604e-23
-1.85031e-23
7.07934e-23
-2.41868e-23
5.68696e-23
-2.33295e-23
1.02292e-22
-3.00775e-23
1.47673e-22
-3.43693e-23
1.50901e-22
-8.09854e-24
-8.06324e-24
3.30255e-24
-1.00432e-23
-1.51061e-23
-4.16241e-24
5.66936e-24
-1.11935e-23
9.50829e-24
-1.0642e-23
1.05175e-23
-1.7533e-23
3.56174e-23
-7.40169e-24
2.48839e-23
-1.59319e-23
2.33668e-23
-1.31496e-23
1.87598e-23
-1.68763e-23
4.19747e-23
-1.70012e-23
1.89259e-23
-1.61822e-23
1.59206e-23
-1.31323e-23
4.79215e-23
-9.51321e-24
4.80035e-23
-5.19286e-24
4.97985e-23
-7.00867e-24
2.2983e-23
-1.23273e-23
2.40349e-23
-9.44365e-24
2.55614e-23
-9.81138e-24
2.65627e-23
-1.13757e-23
2.16828e-23
-1.28399e-23
5.22529e-23
-1.39393e-23
5.17231e-23
-1.50857e-23
4.95396e-23
-1.30741e-23
6.01294e-23
-1.08569e-23
7.19611e-23
-1.3052e-23
3.21166e-23
-1.71981e-23
3.51644e-23
-2.23606e-23
4.09465e-23
-1.88023e-23
6.60143e-23
-2.10045e-23
5.49823e-23
-1.87033e-23
8.13772e-23
-3.1031e-23
1.2476e-22
1.55219e-22
-8.25447e-24
-1.5656e-23
4.38885e-24
-8.55266e-24
-1.30234e-23
-2.6591e-24
1.82707e-23
-1.16568e-23
2.32367e-23
-1.10052e-23
1.10602e-23
-1.59628e-23
6.1145e-23
-9.87794e-24
2.83077e-23
-1.49784e-23
7.77774e-24
-1.24761e-23
2.52018e-23
-1.77629e-23
4.52897e-23
-1.74704e-23
1.80682e-23
-1.44597e-23
1.1827e-23
-1.43428e-23
3.37664e-23
-9.00756e-24
4.0245e-23
-7.94472e-24
9.12421e-24
-7.59216e-24
2.60246e-23
-1.09995e-23
2.28086e-23
-8.97471e-24
3.99202e-23
-9.40365e-24
1.5936e-23
-1.01377e-23
2.31585e-23
-1.21138e-23
3.97623e-23
-1.45507e-23
5.42802e-23
-1.40624e-23
4.71686e-23
-1.30499e-23
5.93136e-23
-1.30085e-23
7.42804e-23
-1.39932e-23
3.74475e-23
-1.64715e-23
2.24973e-23
-2.15771e-23
3.99952e-23
-1.90547e-23
7.25034e-23
-1.88552e-23
7.10594e-23
-1.50833e-23
7.50418e-23
-2.79986e-23
8.4194e-23
-8.16095e-24
-2.69867e-23
5.57199e-24
-6.78363e-24
-4.18707e-25
-3.60654e-24
1.43881e-23
-1.1363e-23
2.60475e-24
-6.69775e-24
1.12198e-23
-1.78633e-23
7.64621e-24
-1.15088e-23
2.23219e-23
-1.27411e-23
2.03276e-23
-1.18242e-23
7.76436e-24
-2.05369e-23
1.42624e-23
-1.78821e-23
1.57757e-23
-1.2812e-23
6.62899e-24
-1.25267e-23
3.60991e-23
-1.15486e-23
3.89296e-23
-6.03414e-24
4.25633e-23
-8.0423e-24
2.82835e-23
-1.06241e-23
3.81816e-23
-9.86391e-24
4.2166e-23
-8.35656e-24
1.99764e-23
-9.00345e-24
3.52898e-23
-1.04296e-23
3.70152e-23
-1.53093e-23
2.03366e-23
-1.31837e-23
4.22626e-23
-1.26302e-23
5.7035e-23
-1.47496e-23
7.47423e-23
-1.58757e-23
5.76917e-23
-1.51892e-23
4.21456e-23
-2.02888e-23
4.16332e-23
-1.85249e-23
6.48112e-23
-1.86405e-23
5.2833e-23
-1.56758e-23
7.20451e-23
5.64422e-23
-7.49518e-24
-2.56099e-23
7.1976e-24
-6.05672e-24
-7.74247e-24
-2.2374e-24
1.4745e-23
-9.27667e-24
2.77137e-23
-8.4332e-24
3.0921e-23
-1.75803e-23
3.2428e-23
-1.19808e-23
2.95311e-23
-1.25919e-23
2.76096e-23
-1.10375e-23
-1.08788e-23
-2.0142e-23
6.91347e-24
-1.7585e-23
2.79657e-23
-1.11118e-23
1.5016e-24
-1.1269e-23
2.75709e-23
-1.06887e-23
3.51335e-23
-7.9414e-24
3.92392e-23
-7.03411e-24
4.39982e-23
-1.03975e-23
2.55599e-23
-1.1286e-23
3.16391e-23
-7.16385e-24
1.91434e-23
-9.38192e-24
3.50095e-23
-1.15639e-23
2.02204e-23
-1.31073e-23
5.97062e-24
-1.21311e-23
3.59692e-23
-1.21016e-23
5.31e-23
-1.55426e-23
6.20587e-23
-1.74192e-23
5.95883e-23
-1.56644e-23
4.23262e-23
-1.86868e-23
2.69768e-23
-1.95598e-23
5.93151e-23
-1.71662e-23
3.17452e-23
-1.7325e-23
3.41472e-23
6.34389e-23
-7.11485e-24
-2.98264e-23
9.57388e-24
-4.63148e-24
-1.07231e-23
-2.04135e-24
8.65577e-24
-7.77023e-24
1.7075e-23
-8.71271e-24
3.68264e-23
-1.73554e-23
3.49609e-23
-1.18393e-23
4.06919e-23
-1.70214e-23
3.29086e-23
-1.20291e-23
-1.77777e-23
-1.7307e-23
1.03285e-23
-1.98603e-23
3.2904e-23
-7.80885e-24
5.36877e-23
-1.12837e-23
3.247e-23
-1.14297e-23
3.62312e-23
-5.93251e-24
3.27611e-23
-8.68496e-24
3.26065e-23
-9.54709e-24
2.83787e-23
-1.16935e-23
3.04395e-23
-5.13987e-24
2.86048e-23
-1.07658e-23
4.00192e-23
-1.30357e-23
1.7913e-23
-1.05605e-23
3.58717e-23
-1.14929e-23
3.33448e-23
-1.19013e-23
4.67884e-23
-1.508e-23
6.07326e-23
-1.83969e-23
4.50901e-23
-1.76894e-23
4.60232e-23
-1.65824e-23
6.19574e-23
-2.12446e-23
5.72826e-23
-1.71794e-23
3.46658e-23
-1.56388e-23
5.18214e-23
5.37369e-23
-8.25859e-24
-4.45909e-23
1.18472e-23
-9.9948e-25
7.63038e-24
-1.83533e-24
7.71411e-24
-6.7738e-24
1.80578e-23
-9.79289e-24
3.37698e-24
-1.40491e-23
4.40479e-23
-1.1715e-23
4.29567e-23
-1.852e-23
4.12283e-23
-1.12092e-23
1.35591e-23
-1.46171e-23
8.4998e-24
-1.91246e-23
2.53813e-23
-9.62349e-24
5.97639e-23
-1.14084e-23
3.50108e-23
-1.14277e-23
3.92448e-23
-7.02816e-24
2.9066e-23
-8.27835e-24
3.29568e-23
-9.21076e-24
3.99869e-23
-1.12834e-23
3.08056e-23
-4.73494e-24
2.31727e-23
-1.25392e-23
4.55492e-23
-1.1984e-23
5.50397e-23
-1.04758e-23
4.42054e-23
-1.0807e-23
1.89022e-23
-1.11518e-23
3.98036e-23
-1.56201e-23
4.47355e-23
-1.87784e-23
4.92307e-23
-1.69241e-23
4.81252e-23
-1.75203e-23
5.78387e-23
-2.25351e-23
5.79126e-23
-1.61613e-23
9.01189e-23
-1.48212e-23
6.76209e-23
5.58815e-23
-5.15166e-24
-3.38568e-23
1.36524e-23
5.24117e-25
6.18828e-23
-9.79362e-25
2.38801e-23
-7.70553e-24
-1.39815e-23
-8.50799e-24
2.38595e-23
-1.37456e-23
5.69964e-23
-1.20703e-23
4.88008e-23
-2.14944e-23
1.26298e-23
-9.93316e-24
4.03426e-23
-1.31431e-23
-9.264e-24
-1.68879e-23
3.12558e-23
-1.13147e-23
5.25012e-23
-1.12814e-23
2.85093e-23
-1.17338e-23
3.60272e-23
-6.0219e-24
6.22563e-23
-9.11559e-24
3.28252e-23
-9.97314e-24
3.75e-23
-1.24546e-23
2.16485e-23
-3.27662e-24
9.73602e-24
-1.12169e-23
5.47354e-23
-1.29829e-23
3.85313e-23
-1.23298e-23
3.94451e-23
-9.46414e-24
3.50706e-23
-1.13825e-23
2.30355e-23
-1.49546e-23
2.62085e-23
-1.94029e-23
1.41528e-23
-1.57127e-23
4.62221e-23
-1.84199e-23
6.16183e-23
-2.004e-23
6.2545e-23
-1.87007e-23
6.95625e-23
-1.4065e-23
6.44466e-23
5.67539e-23
-3.08346e-25
-4.40351e-24
1.54066e-23
-9.86202e-25
2.2051e-23
-3.40201e-24
2.56017e-23
-5.9047e-24
1.11325e-23
-5.19386e-24
1.14426e-23
-1.34273e-23
2.67095e-23
-1.42354e-23
5.3227e-23
-1.87864e-23
3.56097e-23
-1.32904e-23
3.33635e-23
-1.13597e-23
-3.46381e-24
-1.50002e-23
3.6122e-23
-1.16588e-23
4.79458e-23
-1.18263e-23
3.05899e-23
-1.02706e-23
2.88019e-23
-7.53696e-24
6.19265e-23
-9.41326e-24
1.48668e-23
-9.87613e-24
3.23936e-23
-1.39798e-23
6.69355e-24
-2.24845e-25
3.31004e-23
-1.19778e-23
2.77787e-23
-1.29993e-23
3.76624e-23
-1.30313e-23
3.72021e-23
-9.78518e-24
5.12347e-23
-1.12558e-23
1.76119e-23
-1.59395e-23
2.68048e-23
-1.78265e-23
3.2214e-23
-1.4597e-23
4.61343e-23
-1.95351e-23
2.7463e-23
-1.83171e-23
5.29741e-23
-1.96433e-23
6.98071e-23
-1.38269e-23
4.86569e-23
3.78687e-23
-3.50224e-25
2.83578e-23
1.5194e-23
-2.15577e-25
3.42254e-23
-4.36431e-24
2.45661e-23
-5.12124e-24
1.66231e-23
-5.60159e-24
-3.18865e-24
-1.23316e-23
1.35162e-23
-1.53893e-23
2.26379e-23
-1.80776e-23
-2.73433e-24
-1.5685e-23
3.26878e-23
-9.49796e-24
2.95356e-23
-1.48044e-23
2.41936e-23
-1.37914e-23
3.21027e-23
-9.98117e-24
4.3746e-23
-9.49027e-24
2.88602e-23
-9.88293e-24
2.48063e-23
-9.13808e-24
1.0688e-23
-1.08739e-23
2.87145e-23
-1.28885e-23
4.8574e-24
2.44268e-25
5.84024e-23
-1.04312e-23
3.48876e-23
-1.30209e-23
2.21546e-23
-1.2743e-23
3.50795e-23
-1.14325e-23
4.70038e-23
-1.10591e-23
8.6983e-24
-1.60004e-23
1.17419e-23
-1.69341e-23
3.46876e-23
-1.52065e-23
4.54835e-23
-1.89348e-23
3.16358e-23
-1.65347e-23
8.90808e-23
-2.23606e-23
6.47327e-23
-1.3521e-23
7.74261e-23
7.30645e-23
1.93717e-24
2.04144e-23
1.57869e-23
-1.49448e-24
2.16666e-23
-4.42854e-24
9.76418e-24
-6.58304e-24
3.05885e-24
-4.50883e-24
9.83653e-24
-1.33572e-23
1.30073e-23
-1.57733e-23
3.14911e-23
-1.62066e-23
1.02613e-24
-1.54481e-23
2.95186e-23
-9.96135e-24
2.0734e-23
-1.48146e-23
5.67906e-24
-1.26627e-23
2.53976e-23
-1.00682e-23
2.62775e-23
-1.06809e-23
-7.79873e-24
-9.42299e-24
1.31226e-23
-8.85682e-24
-1.79445e-24
-1.20479e-23
2.74618e-23
-9.83205e-24
1.61851e-23
-1.26916e-25
6.10978e-23
-1.10169e-23
2.2174e-23
-1.23474e-23
1.84445e-23
-1.29052e-23
3.33403e-23
-1.31967e-23
4.11413e-23
-1.10438e-23
4.21371e-25
-1.48622e-23
1.49976e-23
-1.64805e-23
2.93227e-23
-1.58078e-23
4.58063e-23
-1.66329e-23
4.69047e-23
-1.70256e-23
8.21047e-23
-2.24355e-23
6.93948e-23
-1.30888e-23
1.02334e-22
8.24785e-23
2.4509e-24
7.11882e-23
1.68772e-23
-2.78445e-24
8.84643e-24
-4.16868e-24
2.95802e-23
-6.62784e-24
4.96431e-24
-4.55819e-24
1.56918e-23
-1.23744e-23
1.39241e-23
-1.58701e-23
5.54513e-23
-1.57472e-23
3.12833e-24
-1.41837e-23
4.15222e-24
-1.19125e-23
3.42392e-23
-1.33396e-23
2.09167e-23
-1.2731e-23
9.06266e-24
-1.21578e-23
2.53536e-23
-1.07853e-23
-7.69755e-24
-9.8218e-24
2.93596e-23
-7.71971e-24
-2.84535e-24
-1.12359e-23
3.89159e-23
-8.25244e-24
5.30558e-23
-1.56069e-24
9.01513e-23
-1.163e-23
2.73182e-23
-1.16555e-23
1.41163e-23
-1.32438e-23
3.37088e-23
-1.45703e-23
3.6258e-23
-1.06217e-23
3.35238e-23
-1.47191e-23
3.63499e-23
-1.55483e-23
2.84843e-23
-1.5179e-23
4.60122e-23
-1.55898e-23
4.37509e-23
-1.71064e-23
7.62358e-23
-2.08548e-23
6.85063e-23
-1.3719e-23
9.6311e-23
7.7962e-23
-9.2212e-25
6.18539e-23
1.46644e-23
-1.35602e-24
2.4163e-23
-6.38428e-24
-2.34205e-24
-5.18214e-24
1.27807e-23
-5.15284e-24
4.32576e-23
-1.09033e-23
9.55084e-24
-1.69945e-23
4.77064e-23
-1.66418e-23
1.66644e-23
-1.27427e-23
1.80845e-23
-1.18834e-23
3.05501e-23
-1.24738e-23
2.04765e-23
-1.27294e-23
2.89714e-23
-1.33128e-23
9.24791e-24
-9.0096e-24
-1.63581e-23
-1.01023e-23
2.5938e-23
-5.53595e-24
1.00113e-23
-9.80928e-24
2.52325e-23
-7.72267e-24
4.78155e-23
-4.47088e-24
8.50727e-23
-1.17439e-23
1.80892e-23
-1.00851e-23
1.26466e-23
-1.35033e-23
2.18528e-23
-1.41958e-23
3.35358e-23
-1.02996e-23
4.28352e-23
-1.56877e-23
4.07388e-23
-1.45603e-23
6.47136e-23
-1.4812e-23
4.27644e-23
-1.53148e-23
2.16763e-23
-1.70909e-23
5.23347e-23
-2.00173e-23
6.75836e-23
-1.46003e-23
9.31419e-23
1.05268e-22
-1.00326e-24
6.70325e-23
1.39777e-23
-4.02848e-24
8.2224e-24
-4.65268e-24
-5.57753e-24
-4.65327e-24
-3.89906e-24
-5.7858e-24
1.51092e-23
-9.32315e-24
2.8013e-23
-1.87976e-23
3.94238e-23
-1.60729e-23
1.63908e-23
-1.203e-23
3.6652e-23
-1.19596e-23
2.69998e-23
-1.22276e-23
1.9756e-23
-1.3727e-23
3.03542e-23
-1.4461e-23
2.08526e-23
-6.24934e-24
3.60497e-23
-1.10519e-23
1.04869e-23
-4.71721e-24
4.18953e-23
-8.34319e-24
2.53948e-23
-5.83056e-24
4.32695e-23
-6.96682e-24
5.19849e-23
-1.20206e-23
9.24022e-24
-9.75515e-24
5.38907e-23
-1.29998e-23
2.3754e-23
-1.3876e-23
4.27368e-23
-1.03217e-23
3.74627e-23
-1.51431e-23
2.31556e-23
-1.56339e-23
6.26585e-23
-1.55211e-23
3.68891e-23
-1.45445e-23
1.75121e-23
-1.54298e-23
5.34203e-23
-1.89745e-23
6.88127e-23
-1.39916e-23
8.00386e-23
1.19721e-22
-3.10511e-24
7.53489e-23
1.31104e-23
-5.34039e-24
-8.6343e-24
-2.95359e-24
2.38966e-23
-5.67815e-24
6.21815e-24
-5.26308e-24
3.52221e-23
-9.88975e-24
1.06332e-23
-1.829e-23
2.98436e-23
-1.53395e-23
5.61473e-23
-1.1796e-23
4.92047e-23
-1.3285e-23
6.46712e-23
-9.49076e-24
6.55731e-23
-1.45086e-23
4.57258e-23
-1.29268e-23
3.72301e-23
-8.00268e-24
2.89058e-23
-1.06286e-23
9.64238e-24
-5.20199e-24
3.22591e-23
-6.57657e-24
4.95631e-24
-6.34075e-24
4.01271e-23
-7.96162e-24
4.51773e-23
-1.10235e-23
8.78242e-24
-1.08876e-23
3.89128e-23
-1.1541e-23
2.23538e-23
-1.43766e-23
2.98852e-23
-1.08348e-23
3.06332e-23
-1.37103e-23
2.28041e-23
-1.69021e-23
4.51355e-23
-1.63167e-23
3.27894e-23
-1.35273e-23
1.48679e-23
-1.4129e-23
4.82146e-23
-1.86175e-23
6.54807e-23
-1.20013e-23
9.2049e-23
1.22072e-22
-5.35498e-24
7.01208e-23
1.17267e-23
-6.53991e-24
2.71638e-23
-2.03397e-24
5.16418e-23
-6.86298e-24
1.46996e-23
-4.25143e-24
4.86584e-23
-1.0658e-23
3.53321e-23