/*--------------------------------*- C++ -*----------------------------------*\
  =========                 |
  \\      /  F ield         | OpenFOAM: The Open Source CFD Toolbox
   \\    /   O peration     | Website:  https://openfoam.org
    \\  /    A nd           | Version:  7
     \\/     M anipulation  |
\*---------------------------------------------------------------------------*/
FoamFile
{
    version     2.0;
    format      ascii;
    class       volScalarField;
    location    "76000";
    object      k;
}
// * * * * * * * * * * * * * * * * * * * * * * * * * * * * * * * * * * * * * //

dimensions      [0 2 -2 0 0 0 0];

internalField   nonuniform List<scalar> 
4782
(
1.01722e-06
1.00887e-06
9.99893e-07
9.90263e-07
9.7994e-07
9.6889e-07
9.57072e-07
9.44441e-07
9.30955e-07
9.16563e-07
1.02691e-06
1.03175e-06
1.03641e-06
1.04089e-06
1.0452e-06
1.04931e-06
1.05325e-06
1.057e-06
1.06056e-06
1.06394e-06
1.06712e-06
1.0701e-06
1.07288e-06
1.07546e-06
1.07784e-06
1.08002e-06
1.08198e-06
1.08372e-06
1.08525e-06
1.08655e-06
1.08762e-06
1.08846e-06
1.08906e-06
1.08941e-06
1.08952e-06
1.08936e-06
1.08894e-06
1.08824e-06
1.08726e-06
1.08599e-06
1.08441e-06
1.08253e-06
1.08031e-06
1.07777e-06
1.07488e-06
1.07163e-06
1.06799e-06
1.06397e-06
1.05955e-06
1.05469e-06
1.04938e-06
1.04361e-06
1.03735e-06
1.03058e-06
1.02327e-06
1.01539e-06
1.00692e-06
9.97824e-07
9.88064e-07
9.77612e-07
9.66427e-07
9.54471e-07
9.41703e-07
9.28074e-07
9.13537e-07
1.02898e-06
1.03374e-06
1.03833e-06
1.04274e-06
1.04696e-06
1.051e-06
1.05486e-06
1.05854e-06
1.06202e-06
1.06531e-06
1.06842e-06
1.07132e-06
1.07403e-06
1.07653e-06
1.07883e-06
1.08092e-06
1.0828e-06
1.08447e-06
1.08592e-06
1.08714e-06
1.08813e-06
1.08889e-06
1.08941e-06
1.08968e-06
1.0897e-06
1.08946e-06
1.08895e-06
1.08817e-06
1.0871e-06
1.08574e-06
1.08408e-06
1.0821e-06
1.0798e-06
1.07717e-06
1.07418e-06
1.07083e-06
1.06709e-06
1.06297e-06
1.05843e-06
1.05346e-06
1.04804e-06
1.04215e-06
1.03577e-06
1.02888e-06
1.02144e-06
1.01343e-06
1.00483e-06
9.95605e-07
9.85716e-07
9.75128e-07
9.63803e-07
9.51704e-07
9.38786e-07
9.25007e-07
9.10321e-07
1.03106e-06
1.03575e-06
1.04026e-06
1.04459e-06
1.04874e-06
1.0527e-06
1.05648e-06
1.06007e-06
1.06346e-06
1.06667e-06
1.06969e-06
1.07251e-06
1.07514e-06
1.07756e-06
1.07977e-06
1.08178e-06
1.08357e-06
1.08516e-06
1.08652e-06
1.08766e-06
1.08857e-06
1.08924e-06
1.08967e-06
1.08986e-06
1.08979e-06
1.08947e-06
1.08888e-06
1.08801e-06
1.08685e-06
1.0854e-06
1.08364e-06
1.08157e-06
1.07917e-06
1.07644e-06
1.07335e-06
1.06989e-06
1.06606e-06
1.06183e-06
1.05719e-06
1.05211e-06
1.04659e-06
1.04059e-06
1.0341e-06
1.02709e-06
1.01953e-06
1.0114e-06
1.00267e-06
9.93312e-07
9.83284e-07
9.72554e-07
9.61084e-07
9.48834e-07
9.35766e-07
9.21834e-07
9.06993e-07
1.03314e-06
1.03775e-06
1.04217e-06
1.04642e-06
1.05048e-06
1.05436e-06
1.05805e-06
1.06155e-06
1.06487e-06
1.068e-06
1.07093e-06
1.07367e-06
1.07621e-06
1.07854e-06
1.08067e-06
1.0826e-06
1.08431e-06
1.08581e-06
1.08709e-06
1.08814e-06
1.08896e-06
1.08954e-06
1.08989e-06
1.08999e-06
1.08983e-06
1.08941e-06
1.08873e-06
1.08776e-06
1.08651e-06
1.08497e-06
1.08312e-06
1.08095e-06
1.07845e-06
1.07562e-06
1.07243e-06
1.06887e-06
1.06493e-06
1.06059e-06
1.05584e-06
1.05065e-06
1.04501e-06
1.03889e-06
1.03228e-06
1.02514e-06
1.01745e-06
1.00919e-06
1.00032e-06
9.90825e-07
9.80658e-07
9.69787e-07
9.58175e-07
9.4578e-07
9.32563e-07
9.18477e-07
9.03479e-07
1.03312e-06
1.03772e-06
1.04214e-06
1.04638e-06
1.05044e-06
1.05432e-06
1.05801e-06
1.06152e-06
1.06484e-06
1.06797e-06
1.07091e-06
1.07364e-06
1.07619e-06
1.07853e-06
1.08067e-06
1.08259e-06
1.08431e-06
1.08581e-06
1.08708e-06
1.08813e-06
1.08895e-06
1.08954e-06
1.08988e-06
1.08998e-06
1.08983e-06
1.08941e-06
1.08872e-06
1.08775e-06
1.0865e-06
1.08495e-06
1.0831e-06
1.08092e-06
1.07842e-06
1.07558e-06
1.07239e-06
1.06883e-06
1.06489e-06
1.06055e-06
1.05579e-06
1.0506e-06
1.04496e-06
1.03885e-06
1.03224e-06
1.0251e-06
1.01742e-06
1.00916e-06
1.0003e-06
9.90797e-07
9.80632e-07
9.69764e-07
9.58154e-07
9.4576e-07
9.32544e-07
9.18462e-07
9.03465e-07
1.03101e-06
1.03569e-06
1.0402e-06
1.04452e-06
1.04866e-06
1.05262e-06
1.0564e-06
1.05999e-06
1.06339e-06
1.0666e-06
1.06961e-06
1.07243e-06
1.07505e-06
1.07747e-06
1.07969e-06
1.0817e-06
1.0835e-06
1.08509e-06
1.08645e-06
1.08759e-06
1.08849e-06
1.08917e-06
1.0896e-06
1.08978e-06
1.08972e-06
1.08939e-06
1.08879e-06
1.08792e-06
1.08676e-06
1.08531e-06
1.08355e-06
1.08147e-06
1.07907e-06
1.07633e-06
1.07325e-06
1.06979e-06
1.06596e-06
1.06173e-06
1.05709e-06
1.05201e-06
1.04649e-06
1.04049e-06
1.034e-06
1.02699e-06
1.01944e-06
1.01131e-06
1.00258e-06
9.93225e-07
9.83202e-07
9.72479e-07
9.61016e-07
9.48777e-07
9.35716e-07
9.21792e-07
9.06955e-07
8.91155e-07
8.74346e-07
8.56472e-07
8.37478e-07
1.02889e-06
1.03366e-06
1.03825e-06
1.04266e-06
1.04688e-06
1.05092e-06
1.05478e-06
1.05844e-06
1.06193e-06
1.06522e-06
1.06831e-06
1.07122e-06
1.07392e-06
1.07643e-06
1.07873e-06
1.08083e-06
1.08271e-06
1.08437e-06
1.08582e-06
1.08704e-06
1.08802e-06
1.08878e-06
1.08929e-06
1.08956e-06
1.08958e-06
1.08935e-06
1.08884e-06
1.08806e-06
1.087e-06
1.08564e-06
1.08398e-06
1.082e-06
1.0797e-06
1.07706e-06
1.07407e-06
1.07072e-06
1.067e-06
1.06288e-06
1.05834e-06
1.05338e-06
1.04797e-06
1.04209e-06
1.03571e-06
1.02883e-06
1.0214e-06
1.0134e-06
1.0048e-06
9.95574e-07
9.85684e-07
9.75098e-07
9.63776e-07
9.5168e-07
9.38766e-07
9.24991e-07
9.10306e-07
8.94662e-07
8.78006e-07
8.60289e-07
8.41457e-07
8.21452e-07
1.02677e-06
1.03162e-06
1.03629e-06
1.04078e-06
1.04508e-06
1.0492e-06
1.05314e-06
1.05689e-06
1.06045e-06
1.06382e-06
1.067e-06
1.06998e-06
1.07276e-06
1.07535e-06
1.07773e-06
1.0799e-06
1.08185e-06
1.0836e-06
1.08512e-06
1.08642e-06
1.08749e-06
1.08834e-06
1.08894e-06
1.08929e-06
1.08939e-06
1.08923e-06
1.08881e-06
1.08812e-06
1.08714e-06
1.08587e-06
1.0843e-06
1.08242e-06
1.08022e-06
1.07769e-06
1.0748e-06
1.07155e-06
1.06792e-06
1.06391e-06
1.05948e-06
1.05462e-06
1.04932e-06
1.04355e-06
1.0373e-06
1.03053e-06
1.02322e-06
1.01534e-06
1.00687e-06
9.9778e-07
9.88025e-07
9.77575e-07
9.66391e-07
9.54434e-07
9.41661e-07
9.28031e-07
9.13493e-07
8.97998e-07
8.81497e-07
8.63933e-07
8.45254e-07
8.25401e-07
8.0432e-07
7.81956e-07
7.58255e-07
7.33164e-07
7.0664e-07
6.78648e-07
6.49157e-07
6.18156e-07
5.85626e-07
5.5153e-07
5.15898e-07
4.78838e-07
4.4053e-07
4.01229e-07
3.61291e-07
3.21166e-07
2.81401e-07
2.42619e-07
2.05488e-07
1.7067e-07
1.38761e-07
1.10229e-07
8.5375e-08
6.43058e-08
4.69462e-08
3.30665e-08
2.23252e-08
1.43133e-08
8.5931e-09
4.72762e-09
2.3011e-09
9.31401e-10
2.77602e-10
4.61764e-11
2.04869e-12
1.02469e-06
1.02961e-06
1.03436e-06
1.03892e-06
1.04331e-06
1.0475e-06
1.05151e-06
1.05533e-06
1.05897e-06
1.06241e-06
1.06566e-06
1.06871e-06
1.07157e-06
1.07422e-06
1.07668e-06
1.07892e-06
1.08096e-06
1.08278e-06
1.08438e-06
1.08576e-06
1.08691e-06
1.08783e-06
1.08852e-06
1.08895e-06
1.08914e-06
1.08906e-06
1.08872e-06
1.08811e-06
1.08722e-06
1.08604e-06
1.08456e-06
1.08276e-06
1.08065e-06
1.0782e-06
1.07541e-06
1.07226e-06
1.06873e-06
1.06482e-06
1.0605e-06
1.05575e-06
1.05056e-06
1.0449e-06
1.03876e-06
1.0321e-06
1.02491e-06
1.01716e-06
1.00881e-06
9.99844e-07
9.9022e-07
9.79904e-07
9.68857e-07
9.57039e-07
9.44409e-07
9.30921e-07
9.16532e-07
9.01187e-07
8.84836e-07
8.67427e-07
8.489e-07
8.29203e-07
8.08275e-07
7.86059e-07
7.62498e-07
7.37545e-07
7.11153e-07
6.83281e-07
6.53899e-07
6.22993e-07
5.90551e-07
5.56525e-07
5.20935e-07
4.83879e-07
4.45529e-07
4.06137e-07
3.66046e-07
3.25704e-07
2.85654e-07
2.46525e-07
2.08992e-07
1.73733e-07
1.41362e-07
1.12371e-07
8.70807e-08
6.56169e-08
4.79161e-08
3.37543e-08
2.27901e-08
1.46101e-08
8.76954e-09
4.82308e-09
2.34634e-09
9.48907e-10
2.82397e-10
4.68305e-11
2.06409e-12
1.0226e-06
1.0276e-06
1.03241e-06
1.03705e-06
1.04151e-06
1.04578e-06
1.04986e-06
1.05376e-06
1.05747e-06
1.06099e-06
1.06432e-06
1.06745e-06
1.07038e-06
1.07311e-06
1.07564e-06
1.07797e-06
1.08008e-06
1.08199e-06
1.08367e-06
1.08513e-06
1.08636e-06
1.08736e-06
1.08813e-06
1.08864e-06
1.08891e-06
1.08892e-06
1.08867e-06
1.08814e-06
1.08733e-06
1.08623e-06
1.08483e-06
1.08312e-06
1.08109e-06
1.07873e-06
1.07602e-06
1.07296e-06
1.06952e-06
1.06569e-06
1.06146e-06
1.05682e-06
1.05172e-06
1.04617e-06
1.04013e-06
1.03359e-06
1.02651e-06
1.01887e-06
1.01064e-06
1.00179e-06
9.92284e-07
9.82088e-07
9.71168e-07
9.5948e-07
9.46982e-07
9.33632e-07
9.19382e-07
9.04183e-07
8.87982e-07
8.70721e-07
8.52348e-07
8.32801e-07
8.12022e-07
7.89953e-07
7.66537e-07
7.41723e-07
7.15461e-07
6.8771e-07
6.58441e-07
6.27633e-07
5.95271e-07
5.61314e-07
5.25771e-07
4.88728e-07
4.50348e-07
4.10876e-07
3.70649e-07
3.30106e-07
2.8979e-07
2.5033e-07
2.12413e-07
1.76728e-07
1.4391e-07
1.14472e-07
8.8756e-08
6.69058e-08
4.88702e-08
3.44314e-08
2.32479e-08
1.49024e-08
8.94325e-09
4.91704e-09
2.39084e-09
9.66118e-10
2.87105e-10
4.74708e-11
2.07907e-12
1.02058e-06
1.02565e-06
1.03054e-06
1.03524e-06
1.03976e-06
1.0441e-06
1.04826e-06
1.05222e-06
1.056e-06
1.05959e-06
1.06298e-06
1.06619e-06
1.06919e-06
1.072e-06
1.07461e-06
1.07701e-06
1.07919e-06
1.08116e-06
1.08292e-06
1.08445e-06
1.08575e-06
1.08683e-06
1.08767e-06
1.08826e-06
1.08861e-06
1.08869e-06
1.08852e-06
1.08807e-06
1.08734e-06
1.08633e-06
1.08501e-06
1.08339e-06
1.08145e-06
1.07918e-06
1.07656e-06
1.07359e-06
1.07025e-06
1.06652e-06
1.06238e-06
1.05783e-06
1.05283e-06
1.04738e-06
1.04144e-06
1.03499e-06
1.02802e-06
1.02049e-06
1.01237e-06
1.00363e-06
9.94242e-07
9.84166e-07
9.73369e-07
9.61806e-07
9.49439e-07
9.36222e-07
9.22105e-07
9.07041e-07
8.90976e-07
8.73856e-07
8.55624e-07
8.36222e-07
8.15587e-07
7.93661e-07
7.70386e-07
7.45705e-07
7.1957e-07
6.91935e-07
6.6277e-07
6.32052e-07
5.99768e-07
5.65879e-07
5.30379e-07
4.9335e-07
4.54946e-07
4.15402e-07
3.75048e-07
3.34319e-07
2.93756e-07
2.53988e-07
2.15708e-07
1.79619e-07
1.46375e-07
1.16507e-07
9.03814e-08
6.81578e-08
4.97978e-08
3.50899e-08
2.36933e-08
1.51868e-08
9.11226e-09
5.00842e-09
2.4341e-09
9.8283e-10
2.91667e-10
4.80882e-11
2.09329e-12
1.01857e-06
1.02371e-06
1.02868e-06
1.03346e-06
1.03805e-06
1.04247e-06
1.04669e-06
1.05073e-06
1.05458e-06
1.05824e-06
1.06171e-06
1.06498e-06
1.06805e-06
1.07092e-06
1.07359e-06
1.07606e-06
1.07831e-06
1.08035e-06
1.08218e-06
1.08378e-06
1.08515e-06
1.0863e-06
1.08721e-06
1.08787e-06
1.08829e-06
1.08845e-06
1.08835e-06
1.08798e-06
1.08733e-06
1.08639e-06
1.08516e-06
1.08363e-06
1.08177e-06
1.07958e-06
1.07705e-06
1.07417e-06
1.07091e-06
1.06727e-06
1.06323e-06
1.05877e-06
1.05387e-06
1.04851e-06
1.04267e-06
1.03632e-06
1.02944e-06
1.02202e-06
1.014e-06
1.00537e-06
9.96091e-07
9.86129e-07
9.75448e-07
9.64007e-07
9.51766e-07
9.38674e-07
9.24687e-07
9.09755e-07
8.93825e-07
8.76842e-07
8.58745e-07
8.39478e-07
8.18982e-07
7.97193e-07
7.74052e-07
7.49502e-07
7.23491e-07
6.95977e-07
6.6692e-07
6.36298e-07
6.04093e-07
5.70274e-07
5.34825e-07
4.97814e-07
4.5939e-07
4.19782e-07
3.79312e-07
3.38409e-07
2.9761e-07
2.57547e-07
2.18919e-07
1.82441e-07
1.48783e-07
1.18499e-07
9.19735e-08
6.93852e-08
5.07078e-08
3.57362e-08
2.41305e-08
1.5466e-08
9.27819e-09
5.09813e-09
2.47655e-09
9.99223e-10
2.96138e-10
4.86927e-11
2.10722e-12
1.01665e-06
1.02185e-06
1.02687e-06
1.03172e-06
1.03638e-06
1.04086e-06
1.04515e-06
1.04926e-06
1.05318e-06
1.05691e-06
1.06045e-06
1.06379e-06
1.06694e-06
1.06988e-06
1.07262e-06
1.07515e-06
1.07748e-06
1.07958e-06
1.08147e-06
1.08314e-06
1.08458e-06
1.0858e-06
1.08677e-06
1.0875e-06
1.08798e-06
1.08821e-06
1.08817e-06
1.08787e-06
1.08729e-06
1.08642e-06
1.08526e-06
1.08379e-06
1.08201e-06
1.0799e-06
1.07745e-06
1.07464e-06
1.07147e-06
1.06791e-06
1.06395e-06
1.05958e-06
1.05476e-06
1.04949e-06
1.04375e-06
1.0375e-06
1.03073e-06
1.0234e-06
1.01549e-06
1.00696e-06
9.97795e-07
9.87948e-07
9.77385e-07
9.6606e-07
9.53937e-07
9.40968e-07
9.27107e-07
9.12302e-07
8.96501e-07
8.79648e-07
8.61685e-07
8.4255e-07
8.22184e-07
8.00527e-07
7.77516e-07
7.53096e-07
7.2721e-07
6.99809e-07
6.70856e-07
6.40324e-07
6.08196e-07
5.74444e-07
5.39047e-07
5.02062e-07
4.63626e-07
4.23963e-07
3.83388e-07
3.42326e-07
3.01308e-07
2.60968e-07
2.2201e-07
1.85162e-07
1.51109e-07
1.20425e-07
9.3515e-08
7.05748e-08
5.15905e-08
3.63635e-08
2.45549e-08
1.5737e-08
9.43929e-09
5.18521e-09
2.51774e-09
1.01512e-09
3.00468e-10
4.92764e-11
2.12059e-12
1.01477e-06
1.02004e-06
1.02513e-06
1.03004e-06
1.03477e-06
1.03931e-06
1.04367e-06
1.04784e-06
1.05182e-06
1.05561e-06
1.05921e-06
1.06261e-06
1.06581e-06
1.06881e-06
1.07161e-06
1.0742e-06
1.07658e-06
1.07875e-06
1.08071e-06
1.08244e-06
1.08394e-06
1.08522e-06
1.08626e-06
1.08706e-06
1.08761e-06
1.08791e-06
1.08794e-06
1.08771e-06
1.08721e-06
1.08642e-06
1.08534e-06
1.08395e-06
1.08224e-06
1.08021e-06
1.07784e-06
1.07512e-06
1.07203e-06
1.06856e-06
1.06469e-06
1.0604e-06
1.05567e-06
1.0505e-06
1.04484e-06
1.03869e-06
1.03201e-06
1.02478e-06
1.01697e-06
1.00856e-06
9.99497e-07
9.89757e-07
9.79304e-07
9.68093e-07
9.56087e-07
9.43239e-07
9.29499e-07
9.14815e-07
8.99134e-07
8.824e-07
8.64554e-07
8.4554e-07
8.25296e-07
8.03758e-07
7.80866e-07
7.56563e-07
7.30788e-07
7.03493e-07
6.74637e-07
6.44194e-07
6.12143e-07
5.78458e-07
5.43108e-07
5.06141e-07
4.67692e-07
4.27977e-07
3.87303e-07
3.46089e-07
3.04863e-07
2.6426e-07
2.24989e-07
1.87788e-07
1.53357e-07
1.2229e-07
9.5009e-08
7.17287e-08
5.24471e-08
3.69725e-08
2.49672e-08
1.60003e-08
9.59575e-09
5.26977e-09
2.55774e-09
1.03054e-09
3.04667e-10
4.98417e-11
2.13354e-12
1.01302e-06
1.01834e-06
1.02348e-06
1.02845e-06
1.03323e-06
1.03784e-06
1.04226e-06
1.04649e-06
1.05053e-06
1.05437e-06
1.05803e-06
1.06149e-06
1.06475e-06
1.06781e-06
1.07067e-06
1.07332e-06
1.07576e-06
1.078e-06
1.08001e-06
1.08181e-06
1.08338e-06
1.08472e-06
1.08582e-06
1.08668e-06
1.0873e-06
1.08766e-06
1.08776e-06
1.08759e-06
1.08715e-06
1.08642e-06
1.08541e-06
1.08408e-06
1.08245e-06
1.08048e-06
1.07818e-06
1.07553e-06
1.07251e-06
1.06911e-06
1.06532e-06
1.06111e-06
1.05647e-06
1.05138e-06
1.04582e-06
1.03975e-06
1.03316e-06
1.02603e-06
1.01832e-06
1.01e-06
1.00103e-06
9.91394e-07
9.81042e-07
9.69938e-07
9.58037e-07
9.45292e-07
9.31657e-07
9.17083e-07
9.01517e-07
8.84903e-07
8.67178e-07
8.48285e-07
8.2816e-07
8.06738e-07
7.83962e-07
7.5977e-07
7.34103e-07
7.06909e-07
6.78149e-07
6.47792e-07
6.15815e-07
5.82197e-07
5.46897e-07
5.09958e-07
4.71507e-07
4.31749e-07
3.90987e-07
3.49636e-07
3.08222e-07
2.67377e-07
2.27814e-07
1.90282e-07
1.55495e-07
1.24065e-07
9.64332e-08
7.28297e-08
5.32652e-08
3.75544e-08
2.53612e-08
1.6252e-08
9.74531e-09
5.35058e-09
2.59593e-09
1.04526e-09
3.08668e-10
5.03782e-11
2.14568e-12
1.0113e-06
1.01668e-06
1.02189e-06
1.02691e-06
1.03175e-06
1.03641e-06
1.04088e-06
1.04517e-06
1.04927e-06
1.05317e-06
1.05688e-06
1.0604e-06
1.06372e-06
1.06684e-06
1.06976e-06
1.07247e-06
1.07498e-06
1.07726e-06
1.07933e-06
1.08118e-06
1.08281e-06
1.08421e-06
1.08537e-06
1.0863e-06
1.08698e-06
1.0874e-06
1.08756e-06
1.08745e-06
1.08707e-06
1.0864e-06
1.08545e-06
1.08419e-06
1.08262e-06
1.08073e-06
1.0785e-06
1.07592e-06
1.07297e-06
1.06965e-06
1.06593e-06
1.0618e-06
1.05723e-06
1.05221e-06
1.04672e-06
1.04074e-06
1.03423e-06
1.02718e-06
1.01955e-06
1.01132e-06
1.00245e-06
9.9291e-07
9.82654e-07
9.71645e-07
9.59842e-07
9.47202e-07
9.33672e-07
9.19207e-07
9.03747e-07
8.87241e-07
8.69626e-07
8.5084e-07
8.30825e-07
8.09516e-07
7.86848e-07
7.62762e-07
7.37199e-07
7.10104e-07
6.81432e-07
6.51153e-07
6.19247e-07
5.85696e-07
5.5045e-07
5.13543e-07
4.75093e-07
4.35301e-07
3.94464e-07
3.52989e-07
3.11399e-07
2.70329e-07
2.30494e-07
1.92651e-07
1.57529e-07
1.25756e-07
9.77912e-08
7.38805e-08
5.40464e-08
3.81103e-08
2.57376e-08
1.64925e-08
9.88821e-09
5.42778e-09
2.63241e-09
1.05931e-09
3.12482e-10
5.08888e-11
2.15719e-12
1.00963e-06
1.01507e-06
1.02033e-06
1.02541e-06
1.0303e-06
1.03501e-06
1.03953e-06
1.04387e-06
1.04802e-06
1.05198e-06
1.05574e-06
1.05931e-06
1.06268e-06
1.06586e-06
1.06883e-06
1.0716e-06
1.07416e-06
1.07651e-06
1.07864e-06
1.08055e-06
1.08224e-06
1.08369e-06
1.08491e-06
1.0859e-06
1.08664e-06
1.08712e-06
1.08734e-06
1.0873e-06
1.08699e-06
1.08639e-06
1.0855e-06
1.08431e-06
1.0828e-06
1.08097e-06
1.07881e-06
1.07629e-06
1.0734e-06
1.07014e-06
1.06649e-06
1.06242e-06
1.05792e-06
1.05298e-06
1.04756e-06
1.04165e-06
1.03521e-06
1.02824e-06
1.02069e-06
1.01253e-06
1.00373e-06
9.94267e-07
9.84094e-07
9.73174e-07
9.61463e-07
9.48917e-07
9.35488e-07
9.21123e-07
9.05769e-07
8.8937e-07
8.71863e-07
8.53185e-07
8.33278e-07
8.12078e-07
7.8952e-07
7.65539e-07
7.40074e-07
7.13073e-07
6.84491e-07
6.54291e-07
6.22453e-07
5.88961e-07
5.53762e-07
5.1688e-07
4.78431e-07
4.38609e-07
3.97704e-07
3.56119e-07
3.14373e-07
2.73096e-07
2.3301e-07
1.94878e-07
1.59443e-07
1.2735e-07
9.90722e-08
7.48725e-08
5.47844e-08
3.86357e-08
2.60935e-08
1.67199e-08
1.00233e-08
5.50075e-09
2.66688e-09
1.07258e-09
3.16079e-10
5.13687e-11
2.16791e-12
1.00806e-06
1.01355e-06
1.01886e-06
1.02399e-06
1.02893e-06
1.03369e-06
1.03827e-06
1.04266e-06
1.04685e-06
1.05086e-06
1.05468e-06
1.05829e-06
1.06171e-06
1.06493e-06
1.06795e-06
1.07077e-06
1.07338e-06
1.07577e-06
1.07796e-06
1.07992e-06
1.08165e-06
1.08316e-06
1.08443e-06
1.08546e-06
1.08625e-06
1.08679e-06
1.08707e-06
1.08709e-06
1.08683e-06
1.08628e-06
1.08545e-06
1.08431e-06
1.08286e-06
1.08108e-06
1.07898e-06
1.07652e-06
1.0737e-06
1.0705e-06
1.06691e-06
1.0629e-06
1.05847e-06
1.0536e-06
1.04825e-06
1.04241e-06
1.03606e-06
1.02916e-06
1.02169e-06
1.01361e-06
1.00491e-06
9.95535e-07
9.85457e-07
9.7463e-07
9.63013e-07
9.50559e-07
9.37221e-07
9.22946e-07
9.07681e-07
8.91373e-07
8.73957e-07
8.55372e-07
8.35558e-07
8.14449e-07
7.91982e-07
7.68092e-07
7.42716e-07
7.15801e-07
6.87299e-07
6.57171e-07
6.25395e-07
5.91957e-07
5.56803e-07
5.19952e-07
4.81506e-07
4.41658e-07
4.00693e-07
3.59008e-07
3.17119e-07
2.75657e-07
2.35342e-07
1.96947e-07
1.61225e-07
1.28834e-07
1.00267e-07
7.57987e-08
5.54739e-08
3.91268e-08
2.64263e-08
1.69325e-08
1.01496e-08
5.56897e-09
2.69909e-09
1.08497e-09
3.19433e-10
5.18146e-11
2.17774e-12
1.00658e-06
1.01211e-06
1.01747e-06
1.02264e-06
1.02763e-06
1.03244e-06
1.03706e-06
1.0415e-06
1.04574e-06
1.04979e-06
1.05366e-06
1.05732e-06
1.06079e-06
1.06406e-06
1.06713e-06
1.06999e-06
1.07265e-06
1.07509e-06
1.07731e-06
1.07932e-06
1.0811e-06
1.08265e-06
1.08397e-06
1.08505e-06
1.08589e-06
1.08648e-06
1.08681e-06
1.08687e-06
1.08666e-06
1.08617e-06
1.08539e-06
1.0843e-06
1.08291e-06
1.08118e-06
1.07913e-06
1.07672e-06
1.07396e-06
1.07082e-06
1.06729e-06
1.06335e-06
1.05898e-06
1.05416e-06
1.04888e-06
1.04311e-06
1.03682e-06
1.02999e-06
1.02259e-06
1.01459e-06
1.00596e-06
9.96659e-07
9.86657e-07
9.75908e-07
9.64373e-07
9.52004e-07
9.38756e-07
9.24573e-07
9.09403e-07
8.93186e-07
8.75864e-07
8.57377e-07
8.37659e-07
8.16643e-07
7.94265e-07
7.70462e-07
7.45172e-07
7.1834e-07
6.89917e-07
6.5986e-07
6.28147e-07
5.9476e-07
5.59651e-07
5.22827e-07
4.84391e-07
4.44523e-07
4.03504e-07
3.61727e-07
3.19704e-07
2.78064e-07
2.37535e-07
1.98893e-07
1.62901e-07
1.30232e-07
1.01392e-07
7.66713e-08
5.61237e-08
3.95897e-08
2.674e-08
1.7133e-08
1.02687e-08
5.63327e-09
2.72944e-09
1.09664e-09
3.22593e-10
5.2235e-11
2.18709e-12
1.00522e-06
1.0108e-06
1.0162e-06
1.02141e-06
1.02644e-06
1.03129e-06
1.03595e-06
1.04043e-06
1.04472e-06
1.04881e-06
1.05272e-06
1.05643e-06
1.05993e-06
1.06325e-06
1.06635e-06
1.06926e-06
1.07195e-06
1.07444e-06
1.07671e-06
1.07876e-06
1.08059e-06
1.08219e-06
1.08356e-06
1.08468e-06
1.08556e-06
1.08619e-06
1.08656e-06
1.08666e-06
1.08649e-06
1.08604e-06
1.0853e-06
1.08426e-06
1.08291e-06
1.08123e-06
1.07922e-06
1.07687e-06
1.07416e-06
1.07106e-06
1.06758e-06
1.06369e-06
1.05938e-06
1.05462e-06
1.04939e-06
1.04368e-06
1.03745e-06
1.03067e-06
1.02333e-06
1.01539e-06
1.00683e-06
9.97591e-07
9.87655e-07
9.76976e-07
9.65512e-07
9.53218e-07
9.40045e-07
9.25938e-07
9.10846e-07
8.94712e-07
8.77477e-07
8.59073e-07
8.39441e-07
8.18513e-07
7.96226e-07
7.72509e-07
7.47304e-07
7.2055e-07
6.92198e-07
6.6221e-07
6.30556e-07
5.97216e-07
5.62146e-07
5.25351e-07
4.86922e-07
4.47039e-07
4.05977e-07
3.64125e-07
3.21991e-07
2.80202e-07
2.39486e-07
2.00628e-07
1.64399e-07
1.31484e-07
1.02402e-07
7.74556e-08
5.67084e-08
4.00065e-08
2.70226e-08
1.73135e-08
1.0376e-08
5.69116e-09
2.75676e-09
1.10713e-09
3.25424e-10
5.26085e-11
2.19509e-12
1.00398e-06
1.0096e-06
1.01504e-06
1.02029e-06
1.02537e-06
1.03025e-06
1.03495e-06
1.03946e-06
1.04378e-06
1.04791e-06
1.05186e-06
1.0556e-06
1.05915e-06
1.0625e-06
1.06565e-06
1.06859e-06
1.07132e-06
1.07384e-06
1.07615e-06
1.07824e-06
1.0801e-06
1.08174e-06
1.08314e-06
1.08431e-06
1.08523e-06
1.08589e-06
1.0863e-06
1.08645e-06
1.08632e-06
1.08591e-06
1.08521e-06
1.08421e-06
1.08291e-06
1.08128e-06
1.07932e-06
1.07702e-06
1.07436e-06
1.07132e-06
1.0679e-06
1.06407e-06
1.05981e-06
1.05511e-06
1.04994e-06
1.04428e-06
1.03811e-06
1.0314e-06
1.02412e-06
1.01625e-06
1.00775e-06
9.98576e-07
9.88706e-07
9.78093e-07
9.66698e-07
9.54471e-07
9.41365e-07
9.27326e-07
9.12302e-07
8.96234e-07
8.79066e-07
8.60734e-07
8.41174e-07
8.20316e-07
7.98097e-07
7.74451e-07
7.49315e-07
7.22626e-07
6.94336e-07
6.64403e-07
6.32796e-07
5.99499e-07
5.6447e-07
5.27703e-07
4.89282e-07
4.49386e-07
4.08283e-07
3.66358e-07
3.24118e-07
2.8219e-07
2.41302e-07
2.02243e-07
1.65794e-07
1.32649e-07
1.03343e-07
7.81859e-08
5.72528e-08
4.03946e-08
2.72857e-08
1.74817e-08
1.04759e-08
5.7451e-09
2.7822e-09
1.1169e-09
3.28065e-10
5.29582e-11
2.20275e-12
1.00289e-06
1.00853e-06
1.014e-06
1.01928e-06
1.02438e-06
1.02929e-06
1.03403e-06
1.03857e-06
1.04292e-06
1.04709e-06
1.05106e-06
1.05484e-06
1.05842e-06
1.06181e-06
1.06499e-06
1.06798e-06
1.07075e-06
1.07331e-06
1.07566e-06
1.07779e-06
1.0797e-06
1.08138e-06
1.08282e-06
1.08403e-06
1.08499e-06
1.0857e-06
1.08615e-06
1.08634e-06
1.08625e-06
1.08588e-06
1.08522e-06
1.08426e-06
1.08299e-06
1.0814e-06
1.07947e-06
1.07721e-06
1.07459e-06
1.07159e-06
1.06821e-06
1.06442e-06
1.0602e-06
1.05554e-06
1.05042e-06
1.04481e-06
1.03869e-06
1.03202e-06
1.0248e-06
1.01698e-06
1.00852e-06
9.99404e-07
9.89584e-07
9.79026e-07
9.67686e-07
9.55518e-07
9.42475e-07
9.28505e-07
9.1355e-07
8.97556e-07
8.80458e-07
8.62198e-07
8.42706e-07
8.21921e-07
7.99774e-07
7.76196e-07
7.51122e-07
7.24497e-07
6.96267e-07
6.6639e-07
6.34833e-07
6.01577e-07
5.6658e-07
5.29836e-07
4.91423e-07
4.51512e-07
4.10372e-07
3.68382e-07
3.26047e-07
2.83993e-07
2.4295e-07
2.03708e-07
1.67059e-07
1.33708e-07
1.04196e-07
7.88492e-08
5.77475e-08
4.07474e-08
2.75249e-08
1.76346e-08
1.05668e-08
5.79414e-09
2.80534e-09
1.12579e-09
3.30467e-10
5.32765e-11
2.20978e-12
1.00193e-06
1.0076e-06
1.0131e-06
1.01841e-06
1.02354e-06
1.02849e-06
1.03325e-06
1.03783e-06
1.04222e-06
1.04641e-06
1.05041e-06
1.05423e-06
1.05784e-06
1.06126e-06
1.06448e-06
1.06749e-06
1.0703e-06
1.07289e-06
1.07527e-06
1.07743e-06
1.07937e-06
1.08107e-06
1.08255e-06
1.08378e-06
1.08477e-06
1.0855e-06
1.08598e-06
1.0862e-06
1.08615e-06
1.08582e-06
1.0852e-06
1.08428e-06
1.08305e-06
1.0815e-06
1.07962e-06
1.07739e-06
1.0748e-06
1.07184e-06
1.06849e-06
1.06474e-06
1.06056e-06
1.05593e-06
1.05085e-06
1.04528e-06
1.0392e-06
1.03258e-06
1.0254e-06
1.01762e-06
1.00922e-06
1.00015e-06
9.90382e-07
9.79878e-07
9.68589e-07
9.56475e-07
9.43484e-07
9.29563e-07
9.14662e-07
8.98719e-07
8.81674e-07
8.63467e-07
8.44032e-07
8.23303e-07
8.01211e-07
7.77691e-07
7.52677e-07
7.26105e-07
6.97922e-07
6.68087e-07
6.3657e-07
6.03346e-07
5.68381e-07
5.31659e-07
4.93254e-07
4.53336e-07
4.12167e-07
3.70126e-07
3.27712e-07
2.85552e-07
2.44376e-07
2.0498e-07
1.6816e-07
1.34629e-07
1.04941e-07
7.94284e-08
5.81797e-08
4.10557e-08
2.77341e-08
1.77683e-08
1.06462e-08
5.837e-09
2.82555e-09
1.13355e-09
3.3256e-10
5.35526e-11
2.21576e-12
1.00109e-06
1.0068e-06
1.01232e-06
1.01767e-06
1.02283e-06
1.0278e-06
1.03259e-06
1.03719e-06
1.0416e-06
1.04583e-06
1.04986e-06
1.0537e-06
1.05734e-06
1.06078e-06
1.06402e-06
1.06706e-06
1.06988e-06
1.07249e-06
1.07489e-06
1.07707e-06
1.07903e-06
1.08075e-06
1.08225e-06
1.0835e-06
1.08452e-06
1.08529e-06
1.0858e-06
1.08605e-06
1.08603e-06
1.08572e-06
1.08513e-06
1.08425e-06
1.08305e-06
1.08153e-06
1.07968e-06
1.07749e-06
1.07493e-06
1.072e-06
1.06869e-06
1.06497e-06
1.06083e-06
1.05624e-06
1.05119e-06
1.04566e-06
1.03961e-06
1.03302e-06
1.02587e-06
1.01814e-06
1.00977e-06
1.00075e-06
9.91019e-07
9.80556e-07
9.69314e-07
9.57244e-07
9.44297e-07
9.30425e-07
9.15573e-07
8.99684e-07
8.82697e-07
8.64544e-07
8.45165e-07
8.24491e-07
8.02452e-07
7.7898e-07
7.54013e-07
7.27487e-07
6.99349e-07
6.69557e-07
6.38074e-07
6.04879e-07
5.69939e-07
5.33235e-07
4.94839e-07
4.54916e-07
4.13726e-07
3.71642e-07
3.29161e-07
2.86908e-07
2.45617e-07
2.06086e-07
1.69116e-07
1.3543e-07
1.05588e-07
7.99314e-08
5.85551e-08
4.13236e-08
2.79158e-08
1.78845e-08
1.07152e-08
5.87424e-09
2.84312e-09
1.14029e-09
3.34378e-10
5.37925e-11
2.22097e-12
1.00041e-06
1.00614e-06
1.01169e-06
1.01706e-06
1.02224e-06
1.02723e-06
1.03204e-06
1.03667e-06
1.0411e-06
1.04534e-06
1.04939e-06
1.05325e-06
1.0569e-06
1.06036e-06
1.06361e-06
1.06666e-06
1.06951e-06
1.07214e-06
1.07456e-06
1.07676e-06
1.07873e-06
1.08048e-06
1.08199e-06
1.08327e-06
1.08431e-06
1.0851e-06
1.08563e-06
1.0859e-06
1.0859e-06
1.08562e-06
1.08505e-06
1.08418e-06
1.083e-06
1.08151e-06
1.07967e-06
1.0775e-06
1.07497e-06
1.07207e-06
1.06878e-06
1.06509e-06
1.06098e-06
1.05643e-06
1.05141e-06
1.04591e-06
1.0399e-06
1.03335e-06
1.02625e-06
1.01854e-06
1.01021e-06
1.00123e-06
9.9154e-07
9.8112e-07
9.69918e-07
9.57888e-07
9.44983e-07
9.31153e-07
9.16345e-07
9.00496e-07
8.83546e-07
8.65435e-07
8.46098e-07
8.25466e-07
8.03468e-07
7.80039e-07
7.55115e-07
7.28629e-07
7.0053e-07
6.70773e-07
6.39324e-07
6.06161e-07
5.71246e-07
5.34561e-07
4.96172e-07
4.56243e-07
4.15034e-07
3.72912e-07
3.30376e-07
2.88047e-07
2.46659e-07
2.07016e-07
1.69921e-07
1.36105e-07
1.06133e-07
8.03558e-08
5.88719e-08
4.15497e-08
2.80692e-08
1.79825e-08
1.07734e-08
5.90568e-09
2.85794e-09
1.14598e-09
3.35913e-10
5.39949e-11
2.22538e-12
9.99842e-07
1.00559e-06
1.01115e-06
1.01654e-06
1.02174e-06
1.02675e-06
1.03157e-06
1.03622e-06
1.04067e-06
1.04493e-06
1.049e-06
1.05287e-06
1.05655e-06
1.06002e-06
1.06329e-06
1.06636e-06
1.06922e-06
1.07187e-06
1.0743e-06
1.07651e-06
1.07851e-06
1.08027e-06
1.08181e-06
1.08311e-06
1.08416e-06
1.08496e-06
1.08551e-06
1.0858e-06
1.08581e-06
1.08555e-06
1.08499e-06
1.08415e-06
1.08299e-06
1.08152e-06
1.07971e-06
1.07756e-06
1.07505e-06
1.07217e-06
1.0689e-06
1.06523e-06
1.06114e-06
1.0566e-06
1.05161e-06
1.04613e-06
1.04014e-06
1.03362e-06
1.02654e-06
1.01887e-06
1.01057e-06
1.00161e-06
9.9195e-07
9.81558e-07
9.70383e-07
9.58385e-07
9.45516e-07
9.31719e-07
9.16944e-07
9.01133e-07
8.84225e-07
8.66153e-07
8.46851e-07
8.26252e-07
8.04286e-07
7.80889e-07
7.55995e-07
7.29541e-07
7.01472e-07
6.71743e-07
6.40316e-07
6.07172e-07
5.72279e-07
5.35607e-07
4.97225e-07
4.57293e-07
4.16065e-07
3.73913e-07
3.31333e-07
2.88944e-07
2.47482e-07
2.0775e-07
1.70558e-07
1.36638e-07
1.06566e-07
8.06922e-08
5.91232e-08
4.17291e-08
2.81909e-08
1.80604e-08
1.08197e-08
5.93062e-09
2.8697e-09
1.15049e-09
3.37126e-10
5.41544e-11
2.22879e-12
9.99417e-07
1.00518e-06
1.01076e-06
1.01615e-06
1.02136e-06
1.02639e-06
1.03123e-06
1.03589e-06
1.04036e-06
1.04463e-06
1.04871e-06
1.05259e-06
1.05628e-06
1.05977e-06
1.06306e-06
1.06614e-06
1.06901e-06
1.07167e-06
1.07412e-06
1.07634e-06
1.07835e-06
1.08013e-06
1.08168e-06
1.08299e-06
1.08405e-06
1.08487e-06
1.08543e-06
1.08573e-06
1.08576e-06
1.08552e-06
1.08498e-06
1.08415e-06
1.083e-06
1.08154e-06
1.07975e-06
1.07762e-06
1.07513e-06
1.07227e-06
1.06902e-06
1.06537e-06
1.0613e-06
1.05678e-06
1.05181e-06
1.04635e-06
1.04038e-06
1.03388e-06
1.02681e-06
1.01916e-06
1.01087e-06
1.00193e-06
9.92297e-07
9.81924e-07
9.70775e-07
9.58799e-07
9.45952e-07
9.32178e-07
9.17428e-07
9.01637e-07
8.84751e-07
8.66704e-07
8.47427e-07
8.26857e-07
8.04924e-07
7.81557e-07
7.56688e-07
7.30261e-07
7.02213e-07
6.72504e-07
6.41095e-07
6.07967e-07
5.73084e-07
5.36419e-07
4.9804e-07
4.58103e-07
4.16863e-07
3.74689e-07
3.32074e-07
2.8964e-07
2.4812e-07
2.0832e-07
1.71051e-07
1.37052e-07
1.069e-07
8.09525e-08
5.93176e-08
4.18678e-08
2.8285e-08
1.81205e-08
1.08554e-08
5.94992e-09
2.8788e-09
1.15398e-09
3.38069e-10
5.42788e-11
2.23152e-12
9.99114e-07
1.00488e-06
1.01047e-06
1.01587e-06
1.02109e-06
1.02613e-06
1.03098e-06
1.03563e-06
1.0401e-06
1.04438e-06
1.04847e-06
1.05237e-06
1.05606e-06
1.05957e-06
1.06287e-06
1.06596e-06
1.06884e-06
1.07151e-06
1.07397e-06
1.07621e-06
1.07823e-06
1.08002e-06
1.08158e-06
1.08291e-06
1.08399e-06
1.08482e-06
1.08539e-06
1.08569e-06
1.08573e-06
1.08549e-06
1.08496e-06
1.08413e-06
1.083e-06
1.08155e-06
1.07977e-06
1.07764e-06
1.07516e-06
1.07231e-06
1.06907e-06
1.06543e-06
1.06136e-06
1.05686e-06
1.0519e-06
1.04645e-06
1.0405e-06
1.03401e-06
1.02696e-06
1.01932e-06
1.01105e-06
1.00212e-06
9.92494e-07
9.82137e-07
9.71002e-07
9.59046e-07
9.46214e-07
9.32457e-07
9.17721e-07
9.0195e-07
8.85079e-07
8.67048e-07
8.4779e-07
8.27234e-07
8.05315e-07
7.81964e-07
7.57116e-07
7.30703e-07
7.02673e-07
6.72979e-07
6.41584e-07
6.08465e-07
5.73593e-07
5.36936e-07
4.9856e-07
4.58622e-07
4.17376e-07
3.75188e-07
3.32551e-07
2.90088e-07
2.48531e-07
2.08687e-07
1.7137e-07
1.37319e-07
1.07117e-07
8.11212e-08
5.94437e-08
4.19579e-08
2.83462e-08
1.81596e-08
1.08787e-08
5.96245e-09
2.88471e-09
1.15625e-09
3.38678e-10
5.43586e-11
2.23321e-12
9.98944e-07
1.00471e-06
1.01031e-06
1.01571e-06
1.02094e-06
1.02597e-06
1.03082e-06
1.03548e-06
1.03996e-06
1.04425e-06
1.04834e-06
1.05224e-06
1.05594e-06
1.05944e-06
1.06275e-06
1.06585e-06
1.06874e-06
1.07142e-06
1.07388e-06
1.07613e-06
1.07816e-06
1.07996e-06
1.08153e-06
1.08286e-06
1.08394e-06
1.08477e-06
1.08535e-06
1.08566e-06
1.0857e-06
1.08547e-06
1.08495e-06
1.08413e-06
1.083e-06
1.08155e-06
1.07977e-06
1.07765e-06
1.07517e-06
1.07233e-06
1.0691e-06
1.06546e-06
1.06141e-06
1.05692e-06
1.05196e-06
1.04652e-06
1.04057e-06
1.0341e-06
1.02706e-06
1.01942e-06
1.01117e-06
1.00225e-06
9.92643e-07
9.82296e-07
9.71169e-07
9.59218e-07
9.46395e-07
9.32651e-07
9.17927e-07
9.02164e-07
8.85301e-07
8.67279e-07
8.48031e-07
8.27489e-07
8.05582e-07
7.8224e-07
7.57397e-07