/*--------------------------------*- C++ -*----------------------------------*\
  =========                 |
  \\      /  F ield         | OpenFOAM: The Open Source CFD Toolbox
   \\    /   O peration     | Website:  https://openfoam.org
    \\  /    A nd           | Version:  7
     \\/     M anipulation  |
\*---------------------------------------------------------------------------*/
FoamFile
{
    version     2.0;
    format      ascii;
    class       surfaceScalarField;
    location    "76000";
    object      phi;
}
// * * * * * * * * * * * * * * * * * * * * * * * * * * * * * * * * * * * * * //

dimensions      [0 3 -1 0 0 0 0];

internalField   nonuniform List<scalar> 
9414
(
4.6945e-23
8.1008e-24
4.72301e-23
7.7003e-24
4.8314e-23
7.51742e-24
4.84618e-23
7.61601e-24
-2.19646e-23
7.34339e-24
8.53381e-24
7.30815e-24
8.8588e-24
7.14352e-24
7.6289e-24
6.74591e-24
2.15036e-23
6.46615e-24
6.53281e-24
-7.27304e-23
1.24791e-23
-4.04454e-23
1.25809e-23
-3.29261e-23
1.0423e-23
-2.3538e-23
9.44894e-24
-4.57951e-23
9.22079e-24
-8.29205e-23
8.03253e-24
-1.61123e-22
9.78711e-24
-8.92808e-23
1.08647e-23
-8.05819e-23
1.05142e-23
-2.58309e-23
1.10289e-23
-2.84533e-23
1.07098e-23
-3.95751e-23
1.07511e-23
-7.17199e-23
1.07811e-23
-1.58011e-23
1.02054e-23
2.14262e-23
1.06244e-23
7.7483e-24
1.044e-23
1.23909e-23
1.0903e-23
-9.93231e-24
1.15989e-23
3.43989e-24
1.04091e-23
8.06139e-23
1.0882e-23
8.37384e-23
1.01442e-23
7.42297e-23
8.65763e-24
-4.53225e-23
7.69082e-24
-5.67606e-23
7.83241e-24
-6.11692e-23
8.23935e-24
-3.54051e-25
8.6962e-24
6.98326e-23
8.02662e-24
6.60537e-23
7.13721e-24
1.44245e-23
7.00576e-24
6.55479e-23
7.5651e-24
9.38021e-23
7.52866e-24
8.91012e-23
7.26187e-24
5.22205e-23
7.07616e-24
1.59735e-23
6.58633e-24
1.96023e-23
6.34283e-24
2.5888e-23
6.67608e-24
3.63619e-23
6.51595e-24
4.93863e-23
6.43802e-24
4.24235e-23
6.29083e-24
3.83995e-23
5.93945e-24
2.0521e-23
5.12702e-24
2.32557e-24
5.53864e-24
-5.46879e-24
5.36276e-24
-3.28157e-23
5.11592e-24
-8.58356e-23
4.9399e-24
-7.66827e-23
5.28559e-24
-6.04924e-23
5.66607e-24
3.30661e-24
5.3733e-24
-2.4438e-23
5.03724e-24
-5.14068e-23
4.93748e-24
-7.83034e-23
4.78989e-24
-7.6162e-23
5.0754e-24
-7.6255e-23
4.98222e-24
-2.35601e-23
4.73998e-24
4.54766e-24
-5.61713e-23
6.58691e-24
-1.24447e-22
4.05614e-24
-9.41927e-23
5.52969e-24
-8.98494e-23
5.12468e-24
-8.95919e-23
4.22704e-24
-1.02968e-22
4.19925e-24
-1.42151e-22
3.02338e-24
-1.41778e-22
3.23702e-24
-1.41766e-22
5.74638e-24
-1.78264e-22
5.21268e-24
-1.76581e-22
5.93195e-24
-1.72581e-22
5.97476e-24
-1.6791e-22
5.46287e-24
-1.2251e-22
5.53408e-24
-1.18188e-22
6.85722e-24
-1.10891e-22
7.34774e-24
-1.39917e-22
7.85872e-24
-2.03406e-22
8.25435e-24
-1.56447e-22
9.2113e-24
-1.47647e-22
8.97152e-24
-2.05158e-22
9.1665e-24
-1.73487e-22
9.22568e-24
-1.79907e-22
9.86142e-24
-1.81544e-22
1.04051e-23
-1.43855e-22
1.08604e-23
-1.45022e-22
1.04718e-23
-1.52543e-22
1.05033e-23
-3.7066e-23
1.08315e-23
-4.26067e-23
1.01117e-23
-3.88521e-23
9.79833e-24
-3.6344e-23
1.02136e-23
-3.05653e-23
9.61051e-24
-5.87546e-23
9.40773e-24
1.16933e-23
9.14831e-24
1.42146e-23
8.8998e-24
4.9976e-23
8.85167e-24
5.21171e-23
8.64964e-24
-5.14306e-24
8.54842e-24
-1.51022e-23
8.36431e-24
-1.48325e-24
7.95895e-24
-4.10212e-24
7.80924e-24
-3.65348e-24
7.51402e-24
-1.60783e-23
6.95955e-24
-2.80016e-23
7.02348e-24
5.88353e-23
7.25751e-24
2.69292e-23
7.35226e-24
-7.90067e-24
7.2314e-24
-8.78595e-24
7.14432e-24
4.83452e-24
7.3851e-24
-9.9989e-24
6.85796e-24
-2.41823e-23
6.8044e-24
-5.25686e-23
6.77281e-24
-5.35556e-23
6.87253e-24
-5.45169e-23
7.05661e-24
6.93636e-24
-2.94941e-22
9.72664e-24
-2.26368e-22
1.29353e-23
-2.33569e-22
1.3002e-23
-2.10082e-22
1.20685e-23
-1.38106e-22
1.20538e-23
-1.113e-22
1.14199e-23
-5.37193e-23
1.16822e-23
-5.65731e-23
1.07633e-23
-1.32789e-22
1.00214e-23
-1.35475e-22
1.0459e-23
-1.43739e-22
9.88505e-24
-1.54791e-22
1.07368e-23
-9.36765e-23
1.12671e-23
3.20822e-23
1.25844e-23
5.11109e-24
1.2432e-23
-1.92642e-24
1.17585e-23
-7.57781e-24
1.22342e-23
-6.96486e-24
1.32291e-23
-4.26674e-24
1.28576e-23
7.05671e-24
1.40967e-23
8.15683e-24
1.39139e-23
1.87656e-23
1.49085e-23
1.94616e-23
1.41351e-23
-2.41111e-23
1.417e-23
-7.17257e-23
1.5352e-23
-7.72484e-23
1.5598e-23
-3.44373e-23
1.56666e-23
-4.07685e-23
1.56239e-23
8.56537e-24
1.57831e-23
2.97225e-23
1.53115e-23
-4.9925e-23
1.50667e-23
1.11564e-23
1.48366e-23
-9.06123e-24
1.49753e-23
4.63998e-23
1.52861e-23
3.98333e-23
1.50524e-23
6.59306e-23
1.4691e-23
2.14855e-23
1.44762e-23
1.02951e-23
1.45458e-23
-3.81185e-25
1.43551e-23
-1.02036e-23
1.4458e-23
-1.90456e-23
1.48169e-23
8.36489e-24
1.45467e-23
-2.6727e-24
1.44341e-23
-2.02645e-24
1.44834e-23
3.45319e-23
1.45215e-23
2.9243e-23
1.42754e-23
5.89951e-23
1.45759e-23
3.49084e-23
1.41341e-23
1.40349e-23
1.37225e-23
8.08411e-24
1.37887e-23
3.33953e-23
1.36493e-23
3.1023e-23
1.33259e-23
4.35193e-23
1.30282e-23
5.65889e-23
1.27579e-23
1.26296e-23
-9.75344e-23
1.04438e-23
-8.26971e-23
9.29209e-24
-1.5102e-22
9.60524e-24
-1.26721e-22
1.11947e-23
-9.85052e-23
1.22387e-23
-2.10291e-23
1.30662e-23
3.80648e-25
1.27642e-23
-6.57287e-23
1.23069e-23
-1.08093e-22
1.2489e-23
-1.1505e-22
1.20949e-23
-5.5907e-23
1.38225e-23
-7.04788e-24
1.49873e-23
2.38996e-23
1.43862e-23
3.66628e-23
1.21683e-23
1.32027e-23
1.07136e-23
3.86462e-24
1.00028e-23
-6.53559e-23
1.04657e-23
-6.34652e-23
9.95925e-24
-5.83422e-23
1.0706e-23
-8.64729e-23
1.05539e-23
-1.07704e-22
1.10338e-23
-1.54867e-22
1.09124e-23
-1.47441e-22
1.18307e-23
-1.22636e-22
1.16455e-23
-1.50415e-22
1.13291e-23
-1.42418e-22
1.15224e-23
-1.05215e-22
1.23945e-23
-1.07892e-22
1.18254e-23
-7.04026e-23
1.13591e-23
-1.40935e-22
1.13539e-23
-1.8403e-22
1.16027e-23
-1.26342e-22
1.19219e-23
-9.2563e-23
1.20636e-23
-1.28995e-22
1.10384e-23
-1.2503e-22
1.12738e-23
-8.8894e-23
1.16908e-23
-7.93051e-23
1.13421e-23
-1.23648e-22
1.10988e-23
-1.54675e-22
1.10471e-23
-1.73757e-22
1.11398e-23
-1.51277e-22
1.12876e-23
-9.8511e-23
1.13425e-23
-5.97063e-23
1.13024e-23
-2.97375e-23
1.10759e-23
-2.88587e-23
1.04217e-23
-3.61076e-23
1.00657e-23
-7.39844e-23
9.41262e-24
-1.1496e-22
9.32389e-24
-9.79509e-23
9.69998e-24
-1.09908e-22
9.38782e-24
-1.00188e-22
9.17854e-24
-8.95484e-23
9.09082e-24
-7.5513e-23
8.87873e-24
-8.81822e-23
8.65355e-24
8.26495e-24
-1.52311e-22
9.69051e-24
-1.51762e-22
1.07763e-23
-1.48918e-22
1.04607e-23
-1.4166e-22
1.03195e-23
-1.39046e-22
1.11978e-23
-1.51242e-22
1.16961e-23
-1.49279e-22
1.21695e-23
-2.03691e-22
1.24892e-23
-1.87289e-22
1.20828e-23
-1.21645e-22
1.40947e-23
-1.25714e-22
1.43664e-23
-1.7081e-22
1.37819e-23
-1.80212e-22
1.50693e-23
-1.72943e-22
1.64262e-23
-9.26485e-23
1.59959e-23
-3.90006e-23
1.54278e-23
-4.84976e-24
1.33739e-23
-3.56109e-24
1.32565e-23
1.40472e-25
1.31024e-23
7.27248e-23
1.31154e-23
3.22091e-24
1.28255e-23
1.73407e-23
1.22989e-23
1.88408e-23
1.22306e-23
-9.01729e-24
1.28482e-23
3.9455e-23
1.26614e-23
-2.49079e-23
1.2729e-23
-8.90096e-23
1.21183e-23
-8.19852e-23
1.28211e-23
-8.75094e-23
1.31975e-23
-3.27308e-23
1.32115e-23
-3.93399e-23
1.29599e-23
-9.51675e-24
1.31833e-23
-5.42952e-23
1.30972e-23
-6.13445e-25
1.40885e-23
9.44034e-24
1.36801e-23
-1.15207e-23
1.31193e-23
-1.09031e-23
1.26719e-23
1.34696e-23
1.21795e-23
6.97675e-23
1.21154e-23
9.35804e-24
1.1779e-23
8.80301e-24
1.10431e-23
1.08044e-23
1.10532e-23
-1.1857e-23
1.05965e-23
-6.91385e-23
1.02938e-23
-6.59522e-23
1.00092e-23
-7.19782e-23
9.49524e-24
-2.76541e-23
9.47451e-24
-1.15555e-23
9.29176e-24
-1.02341e-23
8.52362e-24
-9.89614e-24
8.41297e-24
-8.42514e-24
8.13471e-24
-5.38426e-24
7.62817e-24
-1.22623e-23
7.30774e-24
-2.93506e-23
6.93517e-24
6.82809e-24
-9.92377e-23
9.54185e-24
-6.42571e-23
9.6198e-24
-3.6382e-23
1.02575e-23
-1.76642e-23
1.15877e-23
-1.90928e-23
1.08498e-23
-1.99754e-23
1.0806e-23
-5.14376e-23
1.09366e-23
-4.36973e-23
1.21674e-23
-5.63077e-25
1.21489e-23
1.58878e-23
1.12471e-23
-8.62919e-24
1.18059e-23
-9.84376e-24
1.20102e-23
-4.61279e-23
1.16099e-23
-1.78221e-22
1.14045e-23
-1.76686e-22
1.26096e-23
-1.72857e-22
1.3229e-23
-1.28751e-22
1.39404e-23
-1.23173e-22
1.3883e-23
-1.20968e-22
1.39031e-23
-1.53752e-22
1.3217e-23
-1.46091e-22
1.34721e-23
-1.34596e-22
1.31521e-23
-1.22781e-22
1.32109e-23
-1.15273e-22
1.30646e-23
-9.48293e-23
1.25846e-23
-7.7323e-23
1.27613e-23
-1.05279e-22
1.2964e-23
-6.32455e-23
1.32705e-23
-9.98803e-23
1.25035e-23
-2.91689e-23
1.21023e-23
1.27023e-23
1.17376e-23
1.3827e-23
1.17014e-23
1.48886e-23
1.11954e-23
-7.28531e-23
1.06936e-23
-7.44673e-23
1.11363e-23
-1.13616e-22
1.06826e-23
-8.54025e-23
1.03349e-23
-4.67545e-23
9.9421e-24
-5.51055e-23
9.84196e-24
-6.26324e-23
9.86907e-24
-6.9344e-23
9.78842e-24
-8.75372e-23
9.32074e-24
-5.95458e-23
9.99485e-24
-9.84086e-23
9.57041e-24
-1.17442e-22
9.73883e-24
-8.95347e-23
9.9503e-24
-1.31751e-22
9.52865e-24
-1.05574e-22
9.63842e-24
-9.81482e-23
9.6545e-24
-7.54708e-23
9.53715e-24
-1.0912e-22
9.19844e-24
-7.11802e-23
9.10882e-24
-7.36375e-23
8.85018e-24
-6.18595e-23
8.69557e-24
-7.52022e-23
8.67756e-24
-5.93104e-23
8.55514e-24
-3.65135e-23
8.56746e-24
-4.26273e-23
8.46346e-24
8.38111e-24
-2.4447e-22
8.69715e-24
-2.03074e-22
8.01654e-24
-1.61024e-22
7.4096e-24
-1.56773e-22
6.58971e-24
-1.55506e-22
6.72609e-24
-1.16755e-22
7.26813e-24
-8.47203e-23
7.3976e-24
-1.61605e-22
7.25779e-24
-1.63719e-22
7.22668e-24
-1.2676e-22
8.79981e-24
-1.2489e-22
8.2109e-24
-1.24167e-22
8.43299e-24
-1.23259e-22
9.48438e-24
-1.21101e-22
1.04624e-23
-1.13509e-22
1.0037e-23
-1.01043e-22
1.15686e-23
-7.05104e-23
1.23344e-23
-4.65304e-23
1.25384e-23
-3.70509e-23
1.3367e-23
-2.70703e-23
1.3581e-23
1.49558e-23
1.325e-23
-1.08937e-23
1.35116e-23
-6.9191e-24
1.33533e-23
-7.17842e-24
1.36578e-23
-1.07782e-23
1.34344e-23
2.04565e-23
1.34917e-23
6.42044e-24
1.3563e-23
-1.01004e-22
1.20376e-23
-1.12955e-22
1.23733e-23
-8.60585e-23
1.27761e-23
-6.66732e-23
1.26389e-23
-7.98839e-23
1.20391e-23
-4.37446e-23
1.11191e-23
-8.45639e-23
1.0889e-23
-9.99237e-23
1.01834e-23
-1.70648e-22
9.50075e-24
-1.73536e-22
9.4998e-24
-1.08728e-22
9.20138e-24
-1.47418e-22
8.98624e-24
-1.33564e-22
8.74266e-24
-9.46319e-23
8.42122e-24
-8.11001e-23
8.16514e-24
-8.79159e-23
7.67638e-24
-1.18498e-22
7.34367e-24
-1.38919e-22
7.16597e-24
-1.34453e-22
7.33795e-24
-9.80302e-23
7.37541e-24
-9.24859e-23
7.4346e-24
-1.26118e-22
6.93945e-24
-1.0341e-22
7.02945e-24
-9.77439e-23
7.14356e-24
-9.44437e-23
7.00525e-24
-4.96327e-23
7.31668e-24
7.56159e-24
7.32464e-24
7.60989e-24
7.05174e-24
2.22053e-23
7.01345e-24
1.08255e-23
6.76456e-24
1.48515e-23
6.88039e-24
-5.93786e-24
6.70895e-24
6.70526e-24
-8.35509e-23
-1.16055e-24
-7.93908e-23
-2.28176e-25
-1.07582e-22
1.61633e-24
-1.02753e-22
2.03138e-24
-8.56936e-23
5.01139e-25
-9.60137e-23
2.06476e-24
-9.47015e-23
1.44219e-24
-1.28668e-22
2.85822e-24
-1.40723e-22
3.98791e-24
-9.55385e-23
4.84148e-24
-2.42234e-23
5.50032e-24
-2.33207e-23
5.1873e-24
-5.07102e-23
5.06797e-24
-8.92559e-23
5.13074e-24
-1.29956e-22
5.90291e-24
-1.27665e-22
5.80658e-24
-1.20968e-22
5.55248e-24
-1.14538e-22
4.14601e-24
-1.48117e-22
5.2519e-24
-2.11824e-22
4.81486e-24
-2.04486e-22
5.23895e-24
-1.96436e-22
4.93018e-24
-1.44197e-22
4.55938e-24
-1.34599e-22
3.67988e-24
-1.2394e-22
3.35221e-24
-1.55345e-22
2.70816e-24
-2.60278e-22
2.14815e-24
-2.45252e-22
2.97752e-24
-2.01134e-22
3.3396e-24
-1.95539e-22
2.85346e-24
-2.56196e-22
3.02062e-24
-2.55214e-22
3.46116e-24
-2.24691e-22
4.1463e-24
-1.93568e-22
4.83649e-24
-1.97741e-22
4.64807e-24
-2.02405e-22
4.96789e-24
-1.67069e-22
6.01584e-24
-1.28459e-22
5.98366e-24
-1.28984e-22
5.70585e-24
-1.2493e-22
5.36462e-24
-1.05993e-22
6.25318e-24
-1.06765e-22
5.75987e-24
-1.09992e-22
5.82684e-24
-1.11207e-22
6.26773e-24
-5.781e-23
6.25853e-24
-8.77787e-23
6.07228e-24
-1.01647e-22
6.134e-24
-1.38633e-22
6.11628e-24
-1.11204e-22
6.45718e-24
-1.22029e-22
6.59896e-24
-1.07124e-22
6.91274e-24
-1.05094e-22
7.14652e-24
-1.04339e-22
7.14282e-24
-7.59219e-23
7.27103e-24
-7.61875e-23
7.61399e-24
-9.05253e-23
7.52702e-24
-4.04501e-23
7.52458e-24
-5.41192e-23
7.40013e-24
-5.80976e-23
7.33051e-24
-6.18217e-23
7.23224e-24
-4.12364e-23
7.31647e-24
-1.74879e-23
7.35643e-24
2.90552e-24
7.31498e-24
1.94463e-24
7.38172e-24
-2.29518e-23
7.68662e-24
2.08699e-23
7.71026e-24
1.9355e-23
7.60603e-24
5.37349e-23
7.62908e-24
5.56165e-23
7.62008e-24
6.29151e-23
7.63766e-24
6.54051e-23
7.59344e-24
4.4944e-23
7.57786e-24
6.68804e-23
7.39681e-24
4.54944e-23
7.33752e-24
6.77945e-23
7.27569e-24
6.5083e-23
7.24868e-24
4.48863e-23
7.17815e-24
3.19502e-23
7.12226e-24
3.47406e-23
7.07018e-24
2.45377e-23
7.01541e-24
2.58363e-23
6.95087e-24
3.11927e-23
6.87437e-24
2.32838e-23
6.76453e-24
2.26385e-23
6.59631e-24
2.129e-23
6.40995e-24
2.04707e-23
6.10181e-24
1.288e-23
5.76978e-24
2.10479e-23
5.38446e-24
1.48093e-23
4.8914e-24
7.94839e-24
4.30893e-24
8.54761e-25
3.61575e-24
5.18553e-25
2.79489e-24
-1.64934e-24
1.86325e-24
-3.15822e-25
8.01175e-25
5.47793e-25
-1.59465e-22
1.04584e-23
-1.43362e-22
1.08543e-23
-1.57588e-22
1.13825e-23
-1.67956e-22
1.05494e-23
-5.31514e-23
1.27858e-23
-6.8551e-23
1.14852e-23
-5.28549e-24
1.15556e-23
-1.55346e-23
9.81131e-24
-2.48646e-23
9.15353e-24
1.08359e-23
8.84952e-24
3.5702e-24
7.27213e-24
3.71205e-23
6.4811e-24
3.64391e-23
6.1517e-24
4.04183e-23
4.31543e-24
-1.84458e-23
3.46691e-24
-1.5045e-23
2.63601e-24
-1.0209e-23
1.48e-24
5.07255e-23
1.35855e-24
1.5428e-23
-5.42154e-25
-5.08251e-23
-1.31604e-24
-4.65777e-23
-2.36978e-24
-1.14124e-22
-2.43081e-24
-1.11862e-22
-2.79014e-24
-1.10515e-22
-3.06597e-24
-1.09803e-22
-3.11346e-24
-1.04989e-22
-3.58899e-24
-1.10353e-22
-3.73671e-24
-1.32981e-22
-4.1466e-24
-1.62846e-22
-4.28124e-24
-1.61032e-22
-3.68391e-24
-1.25002e-22
-3.12282e-24
-1.49794e-22
-3.56673e-24
-1.40221e-22
-3.24601e-24
-2.00516e-22
-2.74505e-24
-1.61399e-22
-2.18061e-24
-2.19823e-22
-1.26343e-24
-2.62172e-22
-1.21556e-24
-2.71883e-22
-4.25954e-25
-2.66832e-22
-9.23277e-26
-2.5918e-22
7.42568e-25
-2.31857e-22
1.22561e-24
-2.0394e-22
1.05784e-24
-1.98283e-22
1.97653e-24
-1.48653e-22
1.86814e-24
-1.33719e-22
2.31618e-24
-1.32149e-22
2.50125e-24
-1.33889e-22
2.30708e-24
-1.25616e-22
2.5562e-24
-1.23046e-22
3.05619e-24
-5.19137e-23
3.54248e-24
-6.97762e-23
3.6304e-24
-7.02802e-23
3.91024e-24
-5.67297e-23
4.33517e-24
-8.70891e-23
4.63253e-24
-8.99227e-23
4.72167e-24
-6.61006e-23
4.90935e-24
-9.33921e-23
5.23029e-24
-6.2345e-23
5.52665e-24
-6.23823e-23
5.39663e-24
-3.74676e-23
5.7085e-24
-1.29779e-23
5.85074e-24
1.6514e-24
5.84779e-24
2.54739e-23
5.86436e-24
3.64839e-23
6.01375e-24
-3.43383e-23
5.96074e-24
-3.14557e-23
6.08275e-24
-2.77361e-23
6.40739e-24
-2.30932e-23
6.48631e-24
1.35443e-24
6.7634e-24
-2.88301e-23
6.6877e-24
-3.588e-23
6.78684e-24
-6.78765e-23
6.7446e-24
-5.78976e-23
6.85871e-24
-3.90068e-23
6.98266e-24
-2.96655e-23
7.08609e-24
-3.00116e-23
7.05641e-24
-2.9323e-23
7.10873e-24
-1.35206e-23
7.11437e-24
-2.47491e-23
7.16043e-24
-1.19829e-23
7.1987e-24
-2.86892e-23
7.1325e-24
-1.65956e-23
7.11874e-24
-1.78312e-23
7.03444e-24
-1.94413e-23
6.94375e-24
-2.69241e-23
6.75446e-24
-1.60079e-23
6.55374e-24
-1.01958e-23
6.23063e-24
-8.68259e-24
5.84236e-24
-4.85978e-24
5.37608e-24
-6.27151e-24
4.77894e-24
-2.2768e-24
4.06013e-24
3.30371e-24
3.18974e-24
1.18367e-24
2.14955e-24
8.1936e-25
9.18628e-25
8.46587e-25
5.83635e-24
-5.18148e-24
-6.65787e-23
-4.20604e-24
-1.02381e-22
-5.32859e-24
-1.05937e-22
-4.11277e-24
-1.38608e-22
-4.97986e-24
-1.32891e-22
-3.3443e-24
-1.18663e-22
-2.01082e-24
-1.40838e-22
-2.60676e-24
-1.68583e-22
-1.60984e-24
-1.54329e-22
-1.46052e-24
-1.42514e-22
-1.51969e-24
-8.52545e-23
-2.86425e-24
-1.54326e-22
-3.07505e-24
-2.25824e-22
-3.67331e-24
-2.26857e-22
-4.46859e-24
-2.69216e-22
-3.11672e-24
-2.34839e-22
-3.48844e-24
-2.79837e-22
-4.06322e-24
-2.38539e-22
-3.38394e-24
-2.36639e-22
-3.81332e-24
-2.34362e-22
-4.17069e-24
-2.32028e-22
-4.6425e-24
-2.29055e-22
-4.88755e-24
-1.87322e-22
-5.25581e-24
-1.84022e-22
-4.88488e-24
-1.68222e-22
-4.52931e-24
-1.71116e-22
-4.56715e-24
-1.57122e-22
-4.00109e-24
-9.80732e-23
-3.3669e-24
-1.00894e-22
-3.23168e-24
-9.90198e-23
-3.50606e-24
-3.68684e-23
-3.22022e-24
-6.98182e-23
-3.29764e-24
1.89383e-23
-2.87374e-24
1.60657e-23
-3.67358e-24
-5.57613e-23
-4.01455e-24
-1.17744e-22
-3.49113e-24
-1.14708e-22
-2.73028e-24
-1.13325e-22
-2.52906e-24
-1.52571e-22
-2.79715e-24
-1.1523e-22
-2.56855e-24
-1.39106e-22
-2.47695e-24
-1.3061e-22
-2.24479e-24
-1.63272e-22
-2.23678e-24
-1.56506e-22
-2.26764e-24
-1.4966e-22
-1.8693e-24
-1.04742e-22
-1.44015e-24
-4.03001e-23
-1.15236e-24
-2.37954e-23
-1.55445e-24
-5.01094e-23
-1.71545e-24
-3.6284e-23
-1.51846e-24
-3.56893e-23
-1.32399e-24
-4.95028e-23
-1.37048e-24
-9.23279e-23
-1.44072e-24
-1.1041e-22
-1.34437e-24
-8.55601e-23
-1.32885e-24
-1.23725e-22
-1.25718e-24
-1.58135e-22
-1.39319e-24
-1.52775e-22
-1.16555e-24
-1.41657e-22
-1.0817e-24
-1.01898e-22
-8.80022e-25
-7.23769e-23
-1.12764e-24
-6.58339e-23
-1.21555e-24
-5.66304e-23
-1.25126e-24
-3.70147e-23
-1.35313e-24
-2.76355e-23
-1.25189e-24
-2.69797e-23
-1.15417e-24
-5.01614e-23
-1.40381e-24
-4.22684e-23
-1.32245e-24
-6.68778e-23
-1.19959e-24
-6.34397e-23
-1.06723e-24
-5.27486e-23
-9.35059e-25
-4.5878e-23
-8.2296e-25
-5.03511e-23
-6.51421e-25
-4.48266e-23
-4.93467e-25
-4.85503e-23
-2.40715e-25
-2.59434e-23
-8.30002e-26
-2.7454e-23
1.58059e-25
-2.74364e-23
3.44987e-25
-4.50956e-23
5.95129e-25
-4.92539e-23
8.97044e-25
-4.17357e-23
1.16411e-24
-3.50373e-23
1.4474e-24
-4.1081e-23
1.63316e-24
-3.60298e-23
1.84702e-24
-2.55069e-23
2.04111e-24
-1.46084e-23
2.12727e-24
-1.08011e-23
2.18285e-24
-7.14728e-24
2.15775e-24
-9.93135e-24
2.038e-24
-7.4873e-24
1.79899e-24
-5.56004e-24
1.40648e-24
-2.29578e-25
8.45689e-25
-4.40956e-25
6.59161e-26
4.31842e-25
-3.89198e-23
-2.3025e-24
-5.83674e-23
-4.46224e-24
-7.15415e-23
-6.01852e-24
-1.14407e-22
-8.38449e-24
-3.89279e-23
-8.55324e-24
-4.49449e-23
-8.45549e-24
-4.18844e-23
-9.26968e-24
-3.65478e-23
-9.92984e-24
-6.64185e-23
-1.00236e-23
-1.30622e-22
-1.01833e-23
-1.22427e-22
-9.26163e-24
-1.14978e-22
-9.4943e-24
-1.48462e-22
-9.36546e-24
-1.43858e-22
-9.18864e-24
-1.38139e-22
-8.60202e-24
-1.70466e-22
-8.16965e-24
-2.08226e-22
-7.97055e-24
-1.39151e-22
-7.2488e-24
-2.03987e-22
-7.69703e-24
-1.97608e-22
-6.93607e-24
-1.94655e-22
-6.36425e-24
-1.97504e-22
-5.35327e-24
-2.00267e-22
-4.8441e-24
-1.09537e-22
-5.04299e-24
-1.28226e-22
-5.12646e-24
-1.34601e-22
-6.12812e-24
-6.87153e-23
-6.27938e-24
-7.40343e-23
-5.80063e-24
-7.91286e-23
-6.13293e-24
-1.50199e-22
-5.98655e-24
-8.43749e-23
-5.58568e-24
-8.19212e-23
-6.38627e-24
-4.44532e-23
-6.1335e-24
-4.16897e-23
-6.5177e-24
-3.56984e-24
-6.50521e-24
9.01445e-25
-6.40302e-24
4.20713e-23
-6.55036e-24
6.3484e-23
-7.08798e-24
-1.69408e-23
-7.12811e-24
2.35123e-23
-6.72871e-24
3.67429e-23
-6.75883e-24
4.53885e-24
-6.57343e-24
-2.31617e-23
-5.88894e-24
-1.56008e-23
-5.61361e-24
-2.28569e-23
-5.38988e-24
-1.73824e-23
-5.09007e-24
-4.25897e-23
-4.85194e-24
-7.6379e-23
-4.55032e-24
-7.05313e-23
-4.45941e-24
-9.51384e-23
-4.22323e-24
-7.63977e-23
-4.16956e-24
-5.53353e-23
-4.35536e-24
-6.16708e-23
-4.59642e-24
-5.67169e-23
-4.60519e-24
-4.994e-23
-4.67569e-24
-4.56229e-23
-4.59784e-24
-6.80924e-23
-4.80816e-24
-4.0829e-23
-4.71856e-24
-6.15648e-23
-4.72667e-24
-8.42192e-23
-4.93017e-24
-7.11863e-23
-4.90153e-24
-5.95456e-23
-4.81135e-24
-5.89977e-23
-4.61324e-24
-5.91537e-23
-4.64004e-24
-1.01435e-23
-4.53063e-24
-2.76666e-23
-4.55447e-24
-4.1857e-23
-4.55236e-24
-4.01622e-23
-4.16954e-24
-3.02253e-23
-4.06092e-24
-2.85472e-23
-3.8937e-24
-2.62748e-23
-3.66452e-24
-2.41677e-23
-3.39377e-24
-1.24545e-23
-3.08614e-24
-1.10943e-23
-2.78519e-24
-1.03086e-23
-2.49159e-24
-2.50996e-23
-2.19852e-24
-8.79831e-24
-1.78942e-24
-9.76293e-24
-1.45992e-24
-3.53906e-24
-1.0323e-24
1.39119e-23
-7.2058e-25
1.24486e-23
-3.49494e-25
4.42143e-24
-1.4368e-26
6.23286e-24
3.24199e-25
6.89256e-24
6.74212e-25
-3.91892e-24
1.02843e-24
5.01354e-25
1.31922e-24
-2.44831e-24
1.51235e-24
-2.57915e-24
1.67014e-24
2.28216e-25
1.71941e-24
3.36559e-24
1.65268e-24
3.70523e-24
1.45244e-24
9.70985e-25
1.09184e-24
-7.88381e-25
5.49066e-25
2.83064e-25
-1.90937e-25
5.76607e-25
-1.39193e-22
-5.75573e-24
-1.63723e-22
-3.34217e-24
-1.66964e-22
-1.37096e-24
-1.75831e-22
-1.67294e-24
-5.87077e-23
-8.7095e-25
-6.5648e-23
-2.53054e-24
-7.14466e-23
-2.17646e-24
-4.50577e-23
-3.24697e-24
-5.0051e-23
-5.75196e-24
-4.9798e-23
-6.39971e-24
-4.54973e-23
-8.80909e-24
-4.27522e-23
-9.4527e-24
-4.28076e-23
-9.20357e-24
-4.76025e-23
-1.00051e-23
-1.21793e-22
-1.04541e-23
-1.25441e-22
-1.08308e-23
-1.26122e-22
-1.04723e-23
-1.23292e-22
-1.09407e-23
-1.21453e-22
-1.06606e-23
-1.16169e-22
-1.06621e-23
-9.78637e-23
-1.05511e-23
-1.57609e-22
-1.0656e-23
-2.19607e-22
-1.05864e-23
-1.76232e-22
-1.01405e-23
-1.73011e-22
-9.98511e-24
-1.84672e-22
-9.6349e-24
-9.40779e-23
-8.2931e-24
-1.11572e-22
-8.69187e-24
-1.15852e-22
-9.01465e-24
-1.68965e-22
-9.27173e-24
-1.87354e-22
-9.43465e-24
-1.78398e-22
-8.8088e-24
-1.23424e-22
-9.37732e-24
-1.24033e-22
-9.428e-24
-1.6282e-22
-9.18772e-24
-1.67928e-22
-9.05283e-24
-1.82356e-22
-8.82414e-24
-1.52441e-22
-9.40993e-24
-1.54411e-22
-9.46964e-24
-2.16532e-22
-9.11744e-24
-1.48294e-22
-8.66371e-24
-1.3341e-22
-8.59043e-24
-9.45939e-23
-9.0019e-24
-7.8866e-23
-9.04972e-24
-8.76447e-23
-9.1936e-24
-4.69987e-23
-9.32395e-24
-6.21984e-23
-9.41262e-24
-7.99828e-23
-9.2734e-24
-5.47093e-23
-9.07636e-24
-5.48309e-23
-9.11355e-24
-7.30238e-23
-9.15256e-24
-8.23346e-23
-8.76094e-24
-1.0674e-22
-8.20704e-24
-1.01921e-22
-8.14277e-24
-1.09985e-22
-7.89187e-24
-1.18344e-22
-7.58256e-24
-1.15215e-22
-7.01955e-24
-1.23826e-22
-6.93164e-24
-1.45783e-22
-6.8737e-24
-1.45269e-22
-6.57631e-24
-1.12565e-22
-6.22597e-24
-9.24067e-23
-6.08352e-24
-1.07296e-22
-5.90954e-24
-9.22043e-23
-5.7273e-24
-8.63505e-23
-5.48802e-24
-5.70575e-23
-5.28203e-24
-4.40264e-23
-5.08185e-24
-4.22227e-23
-4.90706e-24
-3.56852e-23
-4.75929e-24
-3.18318e-23
-4.38625e-24
-4.12471e-24
-4.21826e-24
-5.09808e-24
-3.95324e-24
-2.43828e-23
-3.68348e-24
-2.77166e-25
-3.34857e-24
-1.79011e-24
-3.06707e-24
2.06603e-23
-2.73829e-24
1.11221e-23
-2.41315e-24
1.05238e-23
-1.9774e-24
3.59687e-24
-1.60235e-24
4.40251e-24
-1.14335e-24
-1.78729e-23
-7.69536e-25
-1.67931e-23
-3.3721e-25
-5.76943e-24
1.1023e-25
-4.97136e-24
4.50005e-25
-8.76228e-24
7.64114e-25
-7.47671e-24
1.04534e-24
-1.78109e-24
1.28284e-24
-2.38154e-25
1.41303e-24
6.10231e-24
1.44319e-24
7.743e-24
1.33402e-24
7.17978e-24
1.086e-24
1.83275e-24
6.87691e-25
-8.1382e-25
1.30613e-25
-6.40663e-25
-6.01036e-25
3.74987e-25
-8.1518e-23
-4.15244e-24
-7.96334e-23
-3.71239e-24
-1.18019e-22
-2.72408e-24
-1.60105e-22
-1.74309e-24
-8.83724e-23
-1.20457e-24
-9.16662e-23
7.38366e-25
-1.39263e-22
1.38975e-25
-1.51508e-22
3.36458e-25
-1.63394e-22
6.70084e-25
-2.15303e-22
3.90991e-25
-1.55575e-22
9.06531e-25
-1.00481e-22
1.12694e-24
-9.12757e-23
-3.47527e-25
-8.44267e-23
-1.06686e-24
-1.00601e-22
-8.10376e-25
-6.06394e-23
-4.90257e-25
-7.82882e-23
-1.03716e-24
-5.62281e-23
-1.06626e-24
-7.1519e-23
-1.58392e-24
-4.78364e-23
-2.46279e-24
-6.35019e-23
-2.67867e-24
-1.35826e-23
-2.97897e-24
-2.45261e-23
-3.78011e-24
-3.50503e-23
-4.45812e-24
2.82772e-23
-4.74897e-24
3.52833e-23
-4.85697e-24
5.99502e-23
-5.39191e-24
5.53419e-23
-6.62884e-24
4.88401e-23
-7.15291e-24
4.26401e-23
-7.0848e-24
7.96187e-23
-7.95192e-24
7.6463e-23
-8.32611e-24
7.98864e-23
-8.48903e-24
1.22772e-22
-9.25084e-24
1.28126e-22
-9.55467e-24
8.84026e-23
-9.50152e-24
5.11853e-23
-1.02158e-23
8.75098e-23
-1.00478e-23
1.2431e-22
-1.0142e-23
1.26363e-22
-1.05981e-23
1.27822e-22
-1.07636e-23
7.20802e-23
-1.08048e-23
7.84787e-23
-1.08976e-23
9.7395e-23
-1.08235e-23
7.12084e-23
-1.09664e-23
4.13444e-23
-1.11546e-23
5.02805e-23
-1.09861e-23
1.18725e-23
-1.09764e-23
1.92196e-23
-1.10612e-23
-1.21124e-23
-1.10205e-23
5.75405e-23
-1.08426e-23
3.67032e-23
-1.10924e-23
1.31906e-23
-1.10953e-23
-1.64634e-23
-1.08696e-23
-1.59951e-23
-1.07e-23
-1.55117e-23
-1.07347e-23
-7.86449e-23
-1.05949e-23
-7.65057e-23
-1.02297e-23
-7.59236e-23
-9.8156e-24
-6.43714e-23
-9.35648e-24
-6.43255e-23
-9.10896e-24
-3.98424e-23
-8.72313e-24
-5.69825e-23
-8.56011e-24
-5.39815e-23
-8.47516e-24
-3.17151e-23
-8.11193e-24
-1.81804e-23
-7.78703e-24
-5.00884e-24
-7.57152e-24
-1.06956e-24
-7.17523e-24
1.45745e-24
-6.85391e-24
4.01484e-24
-6.4515e-24
4.98043e-24
-6.17171e-24
1.42231e-23
-5.94239e-24
4.59298e-24
-5.68317e-24
-7.19546e-24
-5.39627e-24
7.85964e-24
-5.08962e-24
-4.24865e-24
-4.70081e-24
3.00876e-23
-4.28945e-24
3.45803e-23
-3.89151e-24
1.84721e-23
-3.45291e-24
1.85654e-23
-3.03232e-24
1.89431e-23
-2.51869e-24
1.97852e-23
-2.0922e-24
2.05332e-23
-1.64441e-24
2.10625e-23
-1.16402e-24
1.29802e-23
-7.35459e-25
1.76356e-23
-2.89705e-25
1.7728e-23
8.67869e-26
1.10207e-23
4.11874e-25
6.6458e-24
6.40494e-25
2.85386e-24
8.04427e-25
5.46561e-24
8.41049e-25
3.53345e-24
7.55174e-25
1.33177e-24
5.18636e-25
3.95436e-26
1.25146e-25
3.94173e-25
-5.05977e-27
-1.67895e-23
8.20797e-24
-1.67558e-23
-2.66355e-23
-1.5542e-23
-1.18817e-22
-1.41233e-23
-3.83441e-23
-1.20739e-23
-1.21256e-22
-1.35828e-23
-1.27676e-22
-1.32956e-23
-1.29415e-22
-1.30348e-23
-1.93593e-22
-1.21889e-23
-1.84285e-22
-9.50226e-24
-1.55257e-22
-1.03876e-23
-1.76788e-22
-8.99259e-24
-1.68718e-22
-9.65819e-24
-1.2338e-22
-9.65548e-24
-1.16968e-22
-9.30195e-24
-1.05341e-22
-9.92264e-24
-9.76525e-23
-9.91833e-24
-1.52544e-22
-9.66795e-24
-1.46167e-22
-1.04104e-23
-1.43834e-22
-9.97736e-24
-1.41722e-22
-1.09451e-23
-1.83527e-22
-1.0299e-23
-1.79548e-22
-9.88992e-24
-1.74881e-22
-9.10619e-24
-1.72608e-22
-8.33623e-24
-2.06146e-22
-8.25396e-24
-2.02107e-22
-7.93513e-24
-2.37369e-22
-6.93688e-24
-2.38584e-22
-6.29978e-24
-2.40419e-22
-5.54155e-24
-2.41986e-22
-4.57488e-24
-1.99471e-22
-4.58387e-24
-1.95549e-22
-3.84315e-24
-1.65377e-22
-3.19918e-24
-1.10196e-22
-2.55849e-24
-1.51962e-22
-2.75014e-24
-1.18202e-22
-2.90974e-24
-5.82417e-23
-2.74314e-24
-6.57026e-23
-3.17122e-24
-9.73556e-24
-3.58092e-24
-7.79242e-23
-3.84855e-24
-7.93584e-23
-3.78459e-24
-2.22494e-23
-3.68591e-24
9.03845e-24
-3.7148e-24
-2.38986e-23
-4.33587e-24
-2.20704e-24
-4.54178e-24
2.89541e-23
-5.02791e-24
-1.49096e-24
-5.32825e-24
-3.36099e-24
-5.22099e-24
-4.2501e-24
-5.39153e-24
5.27742e-23
-5.71078e-24
5.67271e-24
-5.69637e-24
2.48385e-23
-5.63837e-24
1.77761e-23
-5.40896e-24
4.03995e-23
-5.14732e-24
2.00875e-23
-4.90663e-24
6.61927e-23
-4.69863e-24
5.86569e-23
-4.61201e-24
5.0626e-23
-4.40393e-24
4.24326e-23
-4.44778e-24
3.51076e-23
-4.08134e-24
6.5356e-24
-3.78852e-24
7.42237e-25
-3.54651e-24
1.68098e-23
-3.12178e-24
2.00706e-23
-2.94942e-24
4.76892e-23
-2.69377e-24
4.34422e-23
-2.49848e-24
3.83922e-23
-2.11013e-24
4.1737e-23
-1.89314e-24
3.31694e-23
-1.72828e-24
4.04737e-23
-1.55536e-24
3.30271e-24
-1.2411e-24
7.08447e-24
-8.96417e-25
2.7027e-24
-6.28502e-25
6.9811e-24
-2.6357e-25
2.74617e-23
9.03185e-26
2.42512e-23
3.71209e-25
2.90886e-23
6.90035e-25
2.6201e-23
9.94648e-25
1.02743e-23
1.35924e-24
6.35499e-24
1.60987e-24
1.70583e-24
1.8825e-24
-2.94966e-24
2.16007e-24
-6.76306e-24
2.35308e-24
1.30699e-23
2.51623e-24
1.71414e-23
2.60045e-24
2.06957e-23
2.57836e-24
1.77982e-23
2.51909e-24
6.90556e-24
2.33183e-24
4.00638e-25
2.075e-24
2.31614e-24
1.67747e-24
-9.24948e-25
1.13819e-24
-5.93328e-25
4.41829e-25
-3.92567e-27
-4.27822e-25
4.14371e-25
-9.10464e-23
-3.5136e-24
2.84086e-23
-4.85535e-24
1.57582e-23
-7.1192e-24
1.48735e-23
-8.97293e-24
-6.99705e-23
-1.08947e-23
-5.01327e-23
-1.05265e-23
-9.01756e-23
-1.01276e-23
-5.54678e-23
-1.08783e-23
-5.18079e-23
-1.17953e-23
-1.25939e-22
-1.2468e-23
-5.06625e-23
-1.27152e-23
-1.39428e-22
-1.29188e-23
-8.1145e-23
-1.25317e-23
-7.39397e-23
-1.19897e-23
-1.0211e-22
-1.28799e-23
-9.58945e-23
-1.23216e-23
-9.17097e-23
-1.32114e-23
-1.65498e-22
-1.29083e-23
-1.67289e-22
-1.04014e-23
-1.29247e-22
-9.49941e-24
-1.01759e-22
-8.67208e-24
-1.06673e-22
-8.89285e-24
-6.98789e-23
-7.75706e-24
-3.94998e-23
-7.23533e-24
-4.23084e-23
-7.26598e-24
1.03208e-24
-6.61893e-24
4.59898e-23
-5.98182e-24
4.5991e-23
-5.44504e-24
8.23376e-23
-5.30933e-24
9.11804e-23
-6.00406e-24
6.53547e-23
-5.70991e-24
9.39317e-23
-5.54539e-24
1.14535e-22
-5.38146e-24
1.38338e-22
-5.25104e-24
8.24156e-23
-5.01544e-24
4.88458e-23
-5.52034e-24
5.36865e-23
-4.40097e-24
-1.06811e-23
-4.31992e-24
-1.20759e-23
-3.93183e-24
4.56959e-23
-3.22574e-24
7.81712e-23
-2.99368e-24
4.14278e-23
-2.5916e-24
3.88358e-23
-2.12637e-24
-1.68949e-24
-1.87683e-24
-7.71299e-24
-1.45571e-24
1.38872e-23
-1.24183e-24
3.70538e-23
-4.74092e-25
6.47927e-23
-1.24092e-25
5.36911e-23
-2.72794e-26
5.67177e-23
6.54138e-26
8.65137e-23
5.41414e-25
1.00303e-22
8.73829e-25
1.25228e-22
1.30479e-24
1.55749e-22
1.23685e-24
1.45173e-22
1.46929e-24
1.37728e-22
1.71817e-24
1.03887e-22
1.88927e-24
1.23236e-22
2.22869e-24
1.17708e-22
2.27963e-24
1.35384e-22
2.41399e-24
1.34498e-22
2.58083e-24
1.28109e-22
2.57671e-24
1.19019e-22
2.96223e-24
1.07848e-22
3.3322e-24
9.59904e-23
3.44979e-24
1.21467e-22
3.75814e-24
8.69883e-23
3.81279e-24
8.40856e-23
3.87852e-24
5.21289e-23
4.0204e-24
4.52829e-23
4.23338e-24
7.14545e-23
4.4479e-24
3.58282e-23
4.44504e-24
2.90551e-23
4.65806e-24
4.96223e-23
4.8345e-24
4.46193e-23
5.09034e-24
3.92645e-23
5.30267e-24
3.43847e-23
5.50677e-24
2.88476e-23
5.69443e-24
2.44009e-23
5.86787e-24
1.33929e-23
5.98524e-24
1.93818e-23
6.12204e-24
2.5591e-23
6.17949e-24
2.18454e-23
6.1462e-24
1.76353e-23
6.12927e-24
2.14474e-23
6.00822e-24
1.79827e-23
5.82457e-24
1.50379e-23
5.56014e-24
1.24712e-23
5.23542e-24
1.54593e-23
4.81984e-24
8.95728e-24
4.28703e-24
6.74386e-24
3.64581e-24
4.58914e-24
2.89094e-24
2.5484e-24
2.01087e-24
3.98833e-25
9.93522e-25
7.34247e-25
8.51126e-24
-1.19708e-24
-2.97917e-23
-1.71144e-24
-6.74278e-23
-1.24509e-24
-7.02304e-23
-3.33468e-24
-7.6114e-23
-3.41014e-24
-5.72254e-23
-4.03326e-24
-1.41895e-22
-4.49876e-24
-1.34423e-22
-2.27549e-24
-1.29912e-22
-1.52667e-24
-1.31159e-22
-1.98153e-24
-1.35925e-22
-1.3942e-24
-1.14865e-22
-3.18988e-25
-4.97873e-23
-3.05345e-25
-8.10294e-23
-2.05351e-24
-3.05507e-23
-1.36945e-24
-4.82402e-23
-1.58834e-24
2.26977e-23
-1.31746e-24
4.14867e-23
-2.02115e-24
2.67146e-23
-3.45185e-24
1.88827e-23
-4.06113e-24