/*--------------------------------*- C++ -*----------------------------------*\
  =========                 |
  \\      /  F ield         | OpenFOAM: The Open Source CFD Toolbox
   \\    /   O peration     | Website:  https://openfoam.org
    \\  /    A nd           | Version:  7
     \\/     M anipulation  |
\*---------------------------------------------------------------------------*/
FoamFile
{
    version     2.0;
    format      ascii;
    class       volVectorField;
    location    "4000";
    object      vorticity;
}
// * * * * * * * * * * * * * * * * * * * * * * * * * * * * * * * * * * * * * //

dimensions      [0 0 -1 0 0 0 0];

internalField   nonuniform List<vector> 
4838
(
(0.002207 0.00102124 6.45888e-17)
(0.00136187 0.0018502 2.99745e-17)
(0.00143265 0.00168908 1.33672e-17)
(0.0014413 0.00155484 1.30365e-17)
(0.00143171 0.00142219 2.76157e-17)
(0.00140889 0.00129552 3.88868e-17)
(0.0013769 0.00117523 4.85631e-17)
(0.00133825 0.00106133 5.1859e-17)
(0.00129462 0.000953775 5.26474e-17)
(0.00124727 0.000852575 4.30845e-17)
(0.00119726 0.000757736 2.67552e-17)
(0.00114553 0.000669253 1.72226e-17)
(0.00109295 0.000587116 1.86065e-17)
(0.00104038 0.00051131 8.14042e-18)
(0.000988628 0.000441728 -2.91441e-17)
(0.000938485 0.000378164 -6.61446e-17)
(0.000890729 0.000320372 -5.52278e-17)
(0.000846096 0.000268051 -2.63231e-17)
(0.000805295 0.000220831 -1.81412e-17)
(0.000769001 0.000178269 -1.42887e-17)
(0.000737827 0.000139841 1.13304e-19)
(0.00071229 0.000104939 7.46169e-18)
(0.000692799 7.28726e-05 1.17044e-17)
(0.000679647 4.2883e-05 2.20943e-17)
(0.000673024 1.41611e-05 2.53897e-17)
(0.000673022 -1.41344e-05 3.33782e-17)
(0.00067964 -4.28556e-05 4.38979e-17)
(0.000692788 -7.28439e-05 5.57383e-17)
(0.000712276 -0.000104909 7.42227e-17)
(0.000737812 -0.000139809 8.34731e-17)
(0.000768986 -0.000178235 1.02656e-16)
(0.00080528 -0.000220796 1.4169e-16)
(0.000846083 -0.000268016 1.59622e-16)
(0.000890718 -0.000320336 1.3299e-16)
(0.000938476 -0.000378128 9.30112e-17)
(0.000988621 -0.000441692 6.05698e-17)
(0.00104038 -0.000511275 3.75635e-17)
(0.00109295 -0.00058708 9.10331e-18)
(0.00114553 -0.000669216 -1.8086e-17)
(0.00119726 -0.000757698 -2.80409e-17)
(0.00124727 -0.000852534 -1.96709e-17)
(0.00129461 -0.000953731 -9.06406e-18)
(0.00133824 -0.00106128 -3.34846e-18)
(0.00137689 -0.00117518 -6.79202e-18)
(0.00140887 -0.00129547 -1.92017e-17)
(0.00143169 -0.00142213 -1.87461e-17)
(0.00144128 -0.00155477 -1.76594e-17)
(0.00143264 -0.00168901 -2.2976e-17)
(0.00136186 -0.00185012 -3.35193e-17)
(0.00220697 -0.00102119 -4.16204e-17)
(0.00286291 0.00112536 5.69295e-17)
(0.00191978 0.00193523 2.11841e-17)
(0.0019027 0.00181213 1.99256e-17)
(0.00186323 0.00169728 1.61616e-17)
(0.00181973 0.00157342 1.44483e-17)
(0.00177062 0.00144856 2.18773e-17)
(0.00171709 0.00132635 3.47482e-17)
(0.00166057 0.00120856 3.96841e-17)
(0.00160225 0.00109601 4.19996e-17)
(0.00154306 0.000989116 4.5366e-17)
(0.00148374 0.000888075 3.9422e-17)
(0.00142493 0.00079298 2.4972e-17)
(0.00136719 0.000703851 2.32634e-17)
(0.00131108 0.000620656 2.47151e-17)
(0.00125715 0.000543295 2.52033e-18)
(0.00120593 0.000471575 -3.0768e-17)
(0.00115792 0.000405268 -3.14585e-17)
(0.00111364 0.000344096 -1.18589e-17)
(0.00107356 0.000287681 -1.35075e-17)
(0.00103816 0.000235569 -1.76501e-17)
(0.00100788 0.000187248 -1.03825e-18)
(0.000983126 0.000142147 7.47966e-18)
(0.00096425 9.96319e-05 1.23458e-17)
(0.000951512 5.90129e-05 2.41106e-17)
(0.000945095 1.95515e-05 2.28455e-17)
(0.000945094 -1.95206e-05 2.3214e-17)
(0.000951509 -5.89818e-05 3.07577e-17)
(0.000964245 -9.96004e-05 4.5636e-17)
(0.000983121 -0.000142115 6.2088e-17)
(0.00100787 -0.000187216 6.66192e-17)
(0.00103815 -0.000235535 8.52219e-17)
(0.00107355 -0.000287647 1.12138e-16)
(0.00111363 -0.000344062 1.114e-16)
(0.00115792 -0.000405233 9.22327e-17)
(0.00120592 -0.00047154 6.69918e-17)
(0.00125714 -0.000543259 4.02227e-17)
(0.00131108 -0.000620619 1.35305e-17)
(0.00136719 -0.000703812 -1.37877e-17)
(0.00142492 -0.00079294 -2.70355e-17)
(0.00148373 -0.000888033 -2.6024e-17)
(0.00154305 -0.000989071 -2.20622e-17)
(0.00160224 -0.00109596 -2.20488e-17)
(0.00166056 -0.0012085 -2.61891e-17)
(0.00171708 -0.00132629 -2.64945e-17)
(0.0017706 -0.0014485 -1.96195e-17)
(0.00181971 -0.00157336 -1.68375e-17)
(0.00186322 -0.00169721 -2.77305e-17)
(0.00190269 -0.00181206 -3.91054e-17)
(0.00191977 -0.00193516 -4.34381e-17)
(0.00286289 -0.00112531 -4.0955e-17)
(0.00316618 0.00129902 4.63062e-17)
(0.00215761 0.00209855 1.95249e-17)
(0.00212828 0.00195359 1.96994e-17)
(0.00208033 0.00183802 1.69758e-17)
(0.00203561 0.00171753 1.8647e-17)
(0.00198954 0.00159476 2.52613e-17)
(0.00194092 0.00147227 3.16738e-17)
(0.00188981 0.00135215 3.57385e-17)
(0.0018368 0.00123576 3.92941e-17)
(0.00178263 0.00112393 3.97314e-17)
(0.001728 0.00101715 3.32425e-17)
(0.00167359 0.000915687 2.51046e-17)
(0.00162 0.000819671 2.30563e-17)
(0.00156781 0.000729124 2.46222e-17)
(0.00151757 0.000643987 1.50699e-17)
(0.00146981 0.000564114 -3.8923e-18)
(0.00142503 0.000489293 -4.90265e-18)
(0.00138374 0.000419245 3.27873e-18)
(0.0013464 0.000353617 -1.08423e-17)
(0.00131345 0.000291983 -2.6028e-17)
(0.0012853 0.000233853 -1.72786e-17)
(0.00126231 0.000178679 -1.16807e-18)
(0.00124478 0.000125879 1.33836e-17)
(0.00123296 7.48253e-05 3.33596e-17)
(0.001227 2.48338e-05 4.39942e-17)
(0.001227 -2.48016e-05 4.22743e-17)
(0.00123296 -7.47931e-05 3.22705e-17)
(0.00124478 -0.000125847 3.13435e-17)
(0.00126231 -0.000178647 4.67238e-17)
(0.0012853 -0.000233821 5.73113e-17)
(0.00131345 -0.00029195 6.87955e-17)
(0.0013464 -0.000353583 8.39968e-17)
(0.00138374 -0.00041921 8.9704e-17)
(0.00142503 -0.000489257 7.83045e-17)
(0.00146981 -0.000564078 5.10178e-17)
(0.00151757 -0.00064395 2.73568e-17)
(0.00156781 -0.000729086 1.01516e-17)
(0.00162 -0.000819631 -7.78467e-18)
(0.00167359 -0.000915645 -1.99742e-17)
(0.001728 -0.00101711 -2.44014e-17)
(0.00178262 -0.00112388 -2.51996e-17)
(0.00183679 -0.00123571 -2.44517e-17)
(0.0018898 -0.0013521 -2.52247e-17)
(0.00194092 -0.00147222 -2.40237e-17)
(0.00198954 -0.0015947 -2.2299e-17)
(0.00203561 -0.00171747 -2.24987e-17)
(0.00208034 -0.00183795 -2.87555e-17)
(0.00212829 -0.00195352 -3.7089e-17)
(0.00215762 -0.00209849 -4.2336e-17)
(0.00316618 -0.00129897 -4.68373e-17)
(0.00339715 0.00147899 3.65836e-17)
(0.00238121 0.00228116 1.28526e-17)
(0.00234872 0.0021175 1.57414e-17)
(0.00229667 0.00198986 1.81615e-17)
(0.0022498 0.00186397 2.05264e-17)
(0.00220461 0.00173866 2.53774e-17)
(0.00215919 0.00161409 2.8122e-17)
(0.00211266 0.00149126 3.03321e-17)
(0.00206489 0.00137121 3.40408e-17)
(0.00201614 0.00125482 3.37023e-17)
(0.00196689 0.00114268 2.87741e-17)
(0.00191766 0.00103519 2.53739e-17)
(0.00186901 0.000932561 2.54454e-17)
(0.0018215 0.000834901 2.14913e-17)
(0.00177565 0.000742197 1.20039e-17)
(0.00173198 0.00065435 -1.45119e-18)
(0.00169099 0.000571178 -4.74675e-18)
(0.00165317 0.000492426 -2.45919e-18)
(0.00161895 0.00041777 -1.43867e-17)
(0.00158876 0.000346815 -2.77901e-17)
(0.00156297 0.000279107 -1.95941e-17)
(0.00154191 0.000214138 4.1435e-18)
(0.00152586 0.000151356 2.22779e-17)
(0.00151503 9.01713e-05 3.74634e-17)
(0.00150957 2.9959e-05 4.87986e-17)
(0.00150957 -2.99271e-05 4.43341e-17)
(0.00151503 -9.01395e-05 3.20225e-17)
(0.00152586 -0.000151324 2.9759e-17)
(0.00154192 -0.000214106 3.85048e-17)
(0.00156297 -0.000279075 4.88051e-17)
(0.00158876 -0.000346782 5.53747e-17)
(0.00161895 -0.000417736 5.60545e-17)
(0.00165317 -0.000492392 5.60773e-17)
(0.001691 -0.000571143 4.82441e-17)
(0.00173198 -0.000654314 3.165e-17)
(0.00177565 -0.00074216 2.15765e-17)
(0.0018215 -0.000834862 1.29633e-17)
(0.00186902 -0.00093252 -2.46535e-18)
(0.00191767 -0.00103514 -1.30176e-17)
(0.00196689 -0.00114264 -1.72694e-17)
(0.00201615 -0.00125477 -1.87715e-17)
(0.0020649 -0.00137116 -2.00988e-17)
(0.00211267 -0.0014912 -2.22084e-17)
(0.0021592 -0.00161403 -2.20711e-17)
(0.00220463 -0.0017386 -2.33062e-17)
(0.00224982 -0.00186391 -2.48232e-17)
(0.0022967 -0.0019898 -2.97546e-17)
(0.00234875 -0.00211744 -3.79944e-17)
(0.00238124 -0.00228111 -4.29089e-17)
(0.00339717 -0.00147895 -4.46593e-17)
(0.00360994 0.00165866 2.48795e-17)
(0.00259344 0.00246538 1.0901e-17)
(0.00256576 0.0022909 1.54114e-17)
(0.00251524 0.00215155 1.55384e-17)
(0.00246862 0.00201672 1.83895e-17)
(0.00242428 0.00188512 2.43778e-17)
(0.00238097 0.00175579 2.49423e-17)
(0.00233773 0.00162868 2.59402e-17)
(0.00229407 0.00150421 2.89741e-17)
(0.0022499 0.00138295 2.61326e-17)
(0.00220543 0.00126539 2.09791e-17)
(0.002161 0.00115192 2.32706e-17)
(0.00211704 0.0010428 2.50761e-17)
(0.00207403 0.000938169 1.61431e-17)
(0.00203245 0.000838048 6.26189e-18)
(0.00199279 0.000742379 -2.27075e-18)
(0.00195551 0.000651016 -7.42903e-18)
(0.00192107 0.000563733 -8.62991e-18)
(0.00188989 0.000480238 -1.57688e-17)
(0.00186237 0.000400169 -2.37501e-17)
(0.00183885 0.000323109 -1.58048e-17)
(0.00181965 0.000248586 4.1757e-18)
(0.00180501 0.000176087 1.33584e-17)
(0.00179514 0.000105061 1.87568e-17)
(0.00179017 3.49303e-05 3.33841e-17)
(0.00179017 -3.48998e-05 3.71532e-17)
(0.00179514 -0.00010503 2.41784e-17)
(0.00180502 -0.000176056 1.36889e-17)
(0.00181965 -0.000248555 1.79438e-17)
(0.00183886 -0.000323078 2.85133e-17)
(0.00186238 -0.000400137 3.45225e-17)
(0.0018899 -0.000480205 3.4652e-17)
(0.00192108 -0.0005637 3.45805e-17)
(0.00195552 -0.000650982 2.88617e-17)
(0.0019928 -0.000742344 1.86934e-17)
(0.00203247 -0.000838012 1.43e-17)
(0.00207405 -0.000938131 1.29857e-17)
(0.00211706 -0.00104276 6.8482e-18)
(0.00216102 -0.00115188 -1.25912e-18)
(0.00220545 -0.00126535 -1.03013e-17)
(0.00224992 -0.0013829 -1.51043e-17)
(0.00229409 -0.00150416 -1.48944e-17)
(0.00233775 -0.00162862 -1.77473e-17)
(0.002381 -0.00175574 -2.11621e-17)
(0.00242432 -0.00188507 -2.27061e-17)
(0.00246866 -0.00201666 -2.37367e-17)
(0.00251529 -0.00215149 -2.81739e-17)
(0.00256581 -0.00229084 -3.44225e-17)
(0.00259348 -0.00246533 -3.54871e-17)
(0.00360999 -0.00165862 -3.31815e-17)
(0.00381401 0.00183796 3.17421e-17)
(0.00279836 0.00264744 1.3556e-17)
(0.00277729 0.00246612 1.72521e-17)
(0.00273169 0.00231771 1.71232e-17)
(0.00268811 0.00217409 1.80319e-17)
(0.0026461 0.00203486 2.4564e-17)
(0.00260525 0.00189906 2.58552e-17)
(0.00256498 0.00176623 2.3682e-17)
(0.00252485 0.00163632 2.3191e-17)
(0.00248465 0.00150955 1.96486e-17)
(0.0024444 0.00138622 1.68701e-17)
(0.0024043 0.00126662 2.24716e-17)
(0.00236466 0.00115096 2.34751e-17)
(0.00232586 0.00103937 7.81234e-18)
(0.00228831 0.000931902 -4.4945e-18)
(0.00225244 0.000828516 -4.54166e-18)
(0.00221869 0.000729088 -4.73641e-18)
(0.00218748 0.000633422 -5.1652e-18)
(0.00215919 0.000541254 -9.81338e-18)
(0.0021342 0.000452256 -1.6102e-17)
(0.00211283 0.000366043 -1.14044e-17)
(0.00209538 0.00028218 6.91823e-18)
(0.00208207 0.000200192 1.17274e-17)
(0.0020731 0.000119568 8.64229e-18)
(0.00206858 3.97729e-05 2.06066e-17)
(0.00206858 -3.97446e-05 2.64735e-17)
(0.0020731 -0.00011954 1.70349e-17)
(0.00208208 -0.000200164 7.45959e-18)
(0.00209539 -0.000282151 8.5452e-18)
(0.00211284 -0.000366013 1.7508e-17)
(0.00213421 -0.000452226 2.37407e-17)
(0.0021592 -0.000541223 2.45331e-17)
(0.00218749 -0.00063339 2.42206e-17)
(0.00221871 -0.000729055 1.86006e-17)
(0.00225246 -0.000828482 1.13108e-17)
(0.00228833 -0.000931868 9.06182e-18)
(0.00232588 -0.00103933 8.78966e-18)
(0.00236469 -0.00115092 7.07911e-18)
(0.00240433 -0.00126658 3.08208e-18)
(0.00244443 -0.00138618 -5.80948e-18)
(0.00248468 -0.00150951 -1.16016e-17)
(0.00252489 -0.00163627 -1.19296e-17)
(0.00256502 -0.00176618 -1.55811e-17)
(0.00260529 -0.00189901 -2.14871e-17)
(0.00264615 -0.00203481 -2.45186e-17)
(0.00268816 -0.00217404 -2.54848e-17)
(0.00273174 -0.00231766 -2.65823e-17)
(0.00277735 -0.00246607 -2.73381e-17)
(0.00279842 -0.0026474 -2.48074e-17)
(0.00381407 -0.00183792 -1.91112e-17)
(0.00401213 0.00201711 4.71893e-17)
(0.00299875 0.00282708 2.01921e-17)
(0.00298414 0.00264045 2.18256e-17)
(0.00294461 0.0024848 2.10506e-17)
(0.00290578 0.00233347 2.0549e-17)
(0.00286756 0.00218668 2.35938e-17)
(0.00283006 0.00204382 2.41453e-17)
(0.00279311 0.00190444 2.21414e-17)
(0.00275646 0.00176831 2.09959e-17)
(0.00271998 0.00163543 1.70238e-17)
(0.00268363 0.0015059 1.41139e-17)
(0.00264753 0.00137988 1.93249e-17)
(0.0026119 0.00125753 1.89593e-17)
(0.00257702 0.00113893 2.61328e-18)
(0.00254326 0.00102412 -8.60629e-18)
(0.00251099 0.000913067 -2.8389e-18)
(0.00248059 0.000805661 7.3451e-20)
(0.00245244 0.000701727 -1.72115e-18)
(0.00242691 0.000601024 -3.11065e-18)
(0.00240433 0.000503253 -5.69434e-18)
(0.00238501 0.000408061 -4.12726e-18)
(0.00236922 0.000315046 6.06437e-18)
(0.00235718 0.000223768 7.87373e-18)
(0.00234905 0.000133753 5.3498e-18)
(0.00234496 4.4507e-05 1.31423e-17)
(0.00234496 -4.44816e-05 1.57391e-17)
(0.00234906 -0.000133728 8.35385e-18)
(0.00235718 -0.000223742 2.8593e-18)
(0.00236923 -0.000315019 4.16019e-18)
(0.00238502 -0.000408034 9.6871e-18)
(0.00240434 -0.000503225 1.62729e-17)
(0.00242692 -0.000600996 2.18545e-17)
(0.00245246 -0.000701698 2.10991e-17)
(0.00248061 -0.000805631 1.28392e-17)
(0.00251102 -0.000913036 5.39336e-18)
(0.00254329 -0.00102409 3.27001e-18)
(0.00257706 -0.00113889 4.26005e-18)
(0.00261193 -0.00125749 5.82134e-18)
(0.00264757 -0.00137985 3.48648e-18)
(0.00268367 -0.00150586 -4.50761e-18)
(0.00272003 -0.00163539 -7.79255e-18)
(0.00275651 -0.00176827 -8.73248e-18)
(0.00279316 -0.00190439 -1.44497e-17)
(0.00283012 -0.00204377 -2.14587e-17)
(0.00286762 -0.00218663 -2.42545e-17)
(0.00290584 -0.00233342 -2.71406e-17)
(0.00294468 -0.00248476 -2.78225e-17)
(0.00298421 -0.00264041 -2.20342e-17)
(0.00299883 -0.00282705 -1.45773e-17)
(0.00401221 -0.00201708 -9.11673e-18)
(0.00420573 0.00219619 3.63562e-17)
(0.00319604 0.00300465 2.96321e-17)
(0.00318747 0.00281323 2.87649e-17)
(0.00315423 0.00265127 2.5045e-17)
(0.00312087 0.00249308 2.08647e-17)
(0.00308735 0.0023392 2.17843e-17)
(0.00305399 0.00218931 2.32828e-17)
(0.00302087 0.00204309 2.03116e-17)
(0.00298796 0.00190032 1.89858e-17)
(0.00295522 0.0017609 1.6225e-17)
(0.00292267 0.00162481 1.17724e-17)
(0.00289039 0.00149212 1.2486e-17)
(0.00285855 0.0013629 1.25573e-17)
(0.0028274 0.00123719 2.31093e-18)
(0.00279724 0.001115 -5.77869e-18)
(0.00276838 0.000996293 3.81374e-19)
(0.00274117 0.000880962 5.22101e-18)
(0.00271594 0.000768845 3.5153e-18)
(0.00269304 0.000659718 2.24679e-18)
(0.00267277 0.000553306 -2.43137e-19)
(0.00265541 0.000449282 -2.67337e-18)
(0.00264121 0.000347277 1.89904e-18)
(0.00263037 0.000246881 4.25204e-18)
(0.00262306 0.000147658 4.2106e-18)
(0.00261938 4.91471e-05 1.08466e-17)
(0.00261938 -4.91252e-05 9.68036e-18)
(0.00262307 -0.000147636 2.78769e-18)
(0.00263038 -0.000246859 1.46587e-18)
(0.00264122 -0.000347254 1.11756e-18)
(0.00265542 -0.000449258 3.43611e-18)
(0.00267279 -0.000553281 1.26975e-17)
(0.00269306 -0.000659693 2.02225e-17)
(0.00271597 -0.000768819 1.75937e-17)
(0.0027412 -0.000880937 1.04906e-17)
(0.00276842 -0.000996266 5.0106e-18)
(0.00279728 -0.00111497 2.59614e-18)
(0.00282745 -0.00123716 2.4623e-18)
(0.0028586 -0.00136287 4.30863e-18)
(0.00289044 -0.00149209 3.09777e-18)
(0.00292272 -0.00162478 -1.43684e-18)
(0.00295528 -0.00176086 -4.85037e-18)
(0.00298802 -0.00190029 -9.19123e-18)
(0.00302093 -0.00204305 -1.27517e-17)
(0.00305406 -0.00218927 -1.71009e-17)
(0.00308743 -0.00233916 -2.23845e-17)
(0.00312095 -0.00249304 -2.80228e-17)
(0.00315431 -0.00265124 -2.76354e-17)
(0.00318756 -0.00281319 -1.79584e-17)
(0.00319613 -0.00300463 -8.99094e-18)
(0.00420583 -0.00219616 -7.98716e-18)
(0.00439574 0.00237522 5.77621e-18)
(0.003391 0.00318049 3.0781e-17)
(0.00338818 0.00298444 3.06369e-17)
(0.00336112 0.00281659 2.62683e-17)
(0.00333344 0.00265207 2.30176e-17)
(0.00330507 0.00249152 2.24235e-17)
(0.00327635 0.0023348 2.18151e-17)
(0.00324749 0.00218175 1.92125e-17)
(0.00321861 0.00203218 1.97658e-17)
(0.00318977 0.00188599 1.7884e-17)
(0.00316103 0.00174312 1.03139e-17)
(0.00313251 0.00160355 6.88662e-18)
(0.00310437 0.00146731 8.39791e-18)
(0.00307681 0.00133438 4.46963e-18)
(0.0030501 0.00120477 -1.33967e-18)
(0.00302451 0.0010784 1.75336e-18)
(0.00300035 0.000955176 6.9497e-18)
(0.00297793 0.000834937 6.16174e-18)
(0.00295755 0.000717475 4.03311e-18)
(0.00293949 0.000602531 1.96024e-18)
(0.00292401 0.000489803 -8.40168e-19)
(0.00291133 0.000378949 -1.21741e-18)
(0.00290166 0.000269588 -9.76446e-19)
(0.00289512 0.000161316 3.35258e-18)
(0.00289183 5.3704e-05 1.201e-17)
(0.00289183 -5.36862e-05 7.75224e-18)
(0.00289513 -0.000161298 -4.04426e-19)
(0.00290167 -0.00026957 9.06596e-20)
(0.00291135 -0.00037893 4.26128e-19)
(0.00292403 -0.000489784 2.08552e-18)
(0.00293951 -0.000602511 9.84573e-18)
(0.00295758 -0.000717454 1.65011e-17)
(0.00297797 -0.000834917 1.47166e-17)
(0.00300039 -0.000955155 1.02124e-17)
(0.00302456 -0.00107838 6.1984e-18)
(0.00305015 -0.00120474 5.21721e-18)
(0.00307687 -0.00133436 3.6164e-18)
(0.00310443 -0.00146728 2.86181e-18)
(0.00313258 -0.00160352 2.40248e-18)
(0.0031611 -0.00174309 6.17973e-19)
(0.00318984 -0.00188596 -2.75961e-18)
(0.00321868 -0.00203215 -8.32507e-18)
(0.00324757 -0.00218171 -1.07636e-17)
(0.00327643 -0.00233477 -1.38503e-17)
(0.00330516 -0.00249148 -2.00125e-17)
(0.00333353 -0.00265204 -2.60761e-17)
(0.00336121 -0.00281656 -2.56985e-17)
(0.00338827 -0.00298442 -1.74215e-17)
(0.00339109 -0.00318048 -1.18446e-17)
(0.00439585 -0.0023752 -1.81077e-17)
(0.00458278 0.00255417 -1.43527e-18)
(0.0035841 0.00335488 2.23893e-17)
(0.00358682 0.00315422 2.86083e-17)
(0.00356578 0.00298067 2.70734e-17)
(0.00354381 0.00281009 2.44434e-17)
(0.00352074 0.00264315 2.34253e-17)
(0.00349693 0.00247982 2.17428e-17)
(0.00347262 0.00232003 1.94377e-17)
(0.00344799 0.00216365 1.93574e-17)
(0.0034232 0.00201061 1.76512e-17)
(0.00339836 0.00186082 8.38461e-18)
(0.00337361 0.00171425 1.10474e-18)
(0.00334911 0.00157088 4.16681e-18)
(0.00332506 0.00143067 6.62312e-18)
(0.0033017 0.00129358 1.67477e-18)
(0.00327928 0.00115954 -5.50034e-19)
(0.00325807 0.00102845 6.25911e-18)
(0.00323835 0.000900135 7.8475e-18)
(0.00322039 0.000774409 4.70195e-18)
(0.00320446 0.000651027 3.33699e-18)
(0.00319078 0.000529706 -1.06379e-18)
(0.00317958 0.000410126 -3.79292e-18)
(0.00317101 0.000291934 -1.62205e-18)
(0.00316523 0.000174753 4.19401e-18)
(0.00316232 5.81867e-05 1.19448e-17)
(0.00316232 -5.81737e-05 6.80946e-18)
(0.00316524 -0.00017474 -1.73762e-18)
(0.00317103 -0.00029192 -3.58465e-19)
(0.00317959 -0.000410112 2.5677e-18)
(0.00319081 -0.000529692 4.64166e-18)
(0.00320449 -0.000651013 9.10686e-18)
(0.00322043 -0.000774395 1.30968e-17)
(0.00323839 -0.000900119 1.14349e-17)
(0.00325812 -0.00102843 9.21045e-18)
(0.00327933 -0.00115953 7.9265e-18)
(0.00330176 -0.00129356 7.25772e-18)
(0.00332513 -0.00143065 4.41616e-18)
(0.00334918 -0.00157085 1.96231e-18)
(0.00337368 -0.00171423 2.11185e-18)
(0.00339844 -0.0018608 1.85039e-18)
(0.00342329 -0.00201058 -4.1421e-18)
(0.00344808 -0.00216363 -9.62205e-18)
(0.00347271 -0.00232 -9.18002e-18)
(0.00349702 -0.00247979 -1.15825e-17)
(0.00352084 -0.00264312 -1.8342e-17)
(0.00354391 -0.00281006 -2.40482e-17)
(0.00356589 -0.00298065 -2.40174e-17)
(0.00358693 -0.00315421 -1.83771e-17)
(0.00358421 -0.00335488 -1.66306e-17)
(0.00458291 -0.00255416 -2.40295e-17)
(0.00476735 0.00273305 1.35616e-17)
(0.00377566 0.00352802 1.54909e-17)
(0.00378378 0.00332274 2.30779e-17)
(0.00376864 0.00314355 2.24383e-17)
(0.00375229 0.00296705 2.2895e-17)
(0.00373456 0.0027939 2.42038e-17)
(0.00371576 0.00262412 2.16988e-17)
(0.00369615 0.00245769 1.74967e-17)
(0.00367593 0.00229454 1.62686e-17)
(0.00365531 0.00213463 1.48723e-17)
(0.00363444 0.00197788 5.38724e-18)
(0.00361348 0.00182424 -2.37165e-18)
(0.00359261 0.00167367 1.84615e-18)
(0.00357203 0.00152613 7.53082e-18)
(0.00355195 0.00138154 3.54773e-18)
(0.00353261 0.00123983 -1.45188e-18)
(0.00351426 0.00110088 5.88254e-18)
(0.00349715 0.000964542 9.1298e-18)
(0.00348154 0.000830616 4.26782e-18)
(0.00346766 0.000698877 3.3029e-18)
(0.00345573 0.000569059 -1.04227e-18)
(0.00344594 0.000440862 -5.09856e-18)
(0.00343846 0.000313958 -1.62343e-18)
(0.00343339 0.000187995 5.15287e-18)
(0.00343084 6.2603e-05 1.084e-17)
(0.00343085 -6.25964e-05 5.00517e-18)
(0.0034334 -0.000187987 -2.39497e-18)
(0.00343847 -0.000313949 8.16944e-19)
(0.00344597 -0.000440853 6.41104e-18)
(0.00345576 -0.000569051 8.14259e-18)
(0.0034677 -0.000698869 7.97937e-18)
(0.00348159 -0.000830607 9.03306e-18)
(0.0034972 -0.000964532 7.83883e-18)
(0.00351432 -0.00110087 7.46202e-18)
(0.00353267 -0.00123982 8.23569e-18)
(0.00355201 -0.00138153 6.30798e-18)
(0.0035721 -0.00152611 2.9075e-18)
(0.00359269 -0.00167366 2.20982e-18)
(0.00361357 -0.00182423 3.84278e-18)
(0.00363453 -0.00197786 2.76988e-18)
(0.00365541 -0.00213461 -5.44845e-18)
(0.00367604 -0.00229452 -9.63053e-18)
(0.00369625 -0.00245766 -7.67146e-18)
(0.00371587 -0.00262409 -9.75594e-18)
(0.00373467 -0.00279388 -1.60635e-17)
(0.0037524 -0.00296703 -2.20389e-17)
(0.00376875 -0.00314353 -2.33085e-17)
(0.0037839 -0.00332274 -1.9701e-17)
(0.00377578 -0.00352803 -1.95701e-17)
(0.00476749 -0.00273304 -2.20908e-17)
(0.00494985 0.00291183 1.7491e-17)
(0.00396594 0.0037001 1.25209e-17)
(0.00397936 0.00349015 1.89514e-17)
(0.00396998 0.00330533 1.99147e-17)
(0.00395918 0.00312298 2.14421e-17)
(0.00394676 0.00294372 2.4125e-17)
(0.00393299 0.00276758 2.26822e-17)
(0.00391813 0.0025946 1.78963e-17)
(0.00390241 0.00242474 1.41698e-17)
(0.00388603 0.00225798 1.14549e-17)
(0.00386917 0.00209426 3.38574e-18)
(0.00385203 0.00193353 -1.75156e-18)
(0.00383478 0.00177574 2.99933e-18)
(0.00381763 0.00162083 9.06248e-18)
(0.00380078 0.00146873 4.92777e-18)
(0.00378447 0.00131935 -7.96324e-19)
(0.00376891 0.00117257 6.12485e-18)
(0.00375435 0.00102824 8.59353e-18)
(0.00374102 0.000886173 3.03125e-18)
(0.00372913 0.000746149 2.56242e-18)
(0.00371889 0.00060792 -1.43131e-18)
(0.00371047 0.000471204 -5.96164e-18)
(0.00370402 0.000335694 -1.16148e-18)
(0.00369966 0.000201061 6.83303e-18)
(0.00369746 6.69599e-05 9.63622e-18)
(0.00369746 -6.69608e-05 2.41783e-18)
(0.00369967 -0.000201059 -2.63407e-18)
(0.00370404 -0.00033569 2.58022e-18)
(0.0037105 -0.000471201 9.48365e-18)
(0.00371892 -0.000607918 1.13862e-17)
(0.00372917 -0.000746147 8.26936e-18)
(0.00374107 -0.00088617 5.79003e-18)
(0.00375441 -0.00102824 4.34573e-18)
(0.00376897 -0.00117257 4.75957e-18)
(0.00378454 -0.00131935 5.9617e-18)
(0.00380086 -0.00146872 2.81363e-18)
(0.00381771 -0.00162082 -7.17508e-19)
(0.00383487 -0.00177573 1.52096e-18)
(0.00385213 -0.00193351 4.09823e-18)
(0.00386928 -0.00209424 2.05035e-18)
(0.00388613 -0.00225796 -6.45388e-18)
(0.00390252 -0.00242473 -1.10371e-17)
(0.00391825 -0.00259458 -8.29509e-18)
(0.00393311 -0.00276756 -8.06684e-18)
(0.00394688 -0.0029437 -1.37503e-17)
(0.0039593 -0.00312297 -2.0246e-17)
(0.00397011 -0.00330533 -2.20876e-17)
(0.00397948 -0.00349016 -1.91508e-17)
(0.00396606 -0.00370011 -1.98881e-17)
(0.00494999 -0.00291183 -2.4147e-17)
(0.00513059 0.00309052 7.66472e-18)
(0.00415513 0.00387126 1.14149e-17)
(0.00417376 0.00365659 1.79276e-17)
(0.00417006 0.00346615 2.06853e-17)
(0.00416472 0.00327796 2.10637e-17)
(0.00415754 0.00309263 2.29015e-17)
(0.00414879 0.0029102 2.17273e-17)
(0.0041387 0.00273072 1.64025e-17)
(0.00412749 0.0025542 1.18163e-17)
(0.00411537 0.00238061 8.68098e-18)
(0.00410256 0.00220993 3.16233e-18)
(0.00408924 0.0020421 9.38302e-19)
(0.00407561 0.00187708 5.27172e-18)
(0.00406186 0.00171481 9.17213e-18)
(0.00404821 0.0015552 4.93408e-18)
(0.00403486 0.00139817 6.2108e-20)
(0.00402205 0.00124358 5.35654e-18)
(0.00400997 0.0010913 6.25425e-18)
(0.00399886 0.000941144 1.19462e-18)
(0.00398891 0.000792902 1.83439e-18)
(0.0039803 0.000646339 -7.60195e-19)
(0.00397321 0.000501192 -5.00022e-18)
(0.00396777 0.00035717 -3.15108e-19)
(0.00396408 0.000213968 7.23329e-18)
(0.00396222 7.12645e-05 7.9124e-18)
(0.00396222 -7.12719e-05 1.96447e-19)
(0.00396409 -0.000213975 -2.88554e-18)
(0.00396779 -0.000357175 4.8805e-18)
(0.00397325 -0.000501196 1.20167e-17)
(0.00398034 -0.000646344 1.39122e-17)
(0.00398895 -0.000792906 1.08924e-17)
(0.00399891 -0.000941147 6.21113e-18)
(0.00401003 -0.0010913 2.57991e-18)
(0.00402211 -0.00124358 2.41774e-18)
(0.00403494 -0.00139817 4.31486e-18)
(0.00404829 -0.0015552 -2.80009e-19)
(0.00406195 -0.00171481 -3.53433e-18)
(0.00407571 -0.00187708 2.08437e-18)
(0.00408935 -0.0020421 3.90264e-18)
(0.00410267 -0.00220992 -4.23258e-19)
(0.00411549 -0.0023806 -7.39362e-18)
(0.00412761 -0.00255419 -1.25354e-17)
(0.00413882 -0.00273071 -1.05479e-17)
(0.00414892 -0.00291018 -7.58667e-18)
(0.00415767 -0.00309262 -1.22472e-17)
(0.00416485 -0.00327796 -1.89229e-17)
(0.00417019 -0.00346615 -2.17253e-17)
(0.00417389 -0.0036566 -1.96613e-17)
(0.00415526 -0.00387128 -1.99354e-17)
(0.00513074 -0.00309053 -2.89862e-17)
(0.00530987 0.00326915 4.06231e-18)
(0.0043434 0.00404165 1.05206e-17)
(0.00436719 0.00382218 1.60537e-17)
(0.00436907 0.00362611 2.0255e-17)
(0.00436911 0.00343209 2.18184e-17)
(0.00436712 0.0032407 2.25135e-17)
(0.00436334 0.00305201 1.9548e-17)
(0.00435798 0.00286608 1.35436e-17)
(0.00435128 0.00268292 9.7916e-18)
(0.00434343 0.00250254 6.79649e-18)
(0.00433466 0.00232491 3.68553e-18)
(0.00432516 0.00215 4.25099e-18)
(0.00431512 0.00197775 6.79403e-18)
(0.00430475 0.00180812 6.45268e-18)
(0.00429426 0.00164101 2.59358e-18)
(0.00428384 0.00147634 9.40401e-19)
(0.00427371 0.00131397 5.00853e-18)
(0.00426407 0.00115378 3.52716e-18)
(0.00425513 0.000995586 -9.78827e-20)
(0.00424706 0.000839187 1.39111e-18)
(0.00424005 0.000684361 -4.82999e-19)
(0.00423426 0.000530861 -3.43264e-18)
(0.00422979 0.000378414 4.782e-19)
(0.00422676 0.000226735 6.59272e-18)
(0.00422523 7.55221e-05 6.05733e-18)
(0.00422523 -7.55362e-05 -1.25902e-18)
(0.00422678 -0.000226751 -2.33322e-18)
(0.00422982 -0.000378429 6.32685e-18)
(0.0042343 -0.000530873 1.18973e-17)
(0.0042401 -0.000684372 1.4875e-17)
(0.00424712 -0.000839196 1.43731e-17)
(0.00425519 -0.000995594 8.37731e-18)
(0.00426414 -0.00115379 3.27224e-18)
(0.00427379 -0.00131398 1.63174e-18)
(0.00428393 -0.00147634 2.75273e-18)
(0.00429436 -0.00164102 -2.55234e-18)
(0.00430486 -0.00180812 -5.10217e-18)
(0.00431524 -0.00197776 2.5197e-18)
(0.00432528 -0.00215 2.85654e-18)
(0.00433478 -0.00232491 -3.15599e-18)
(0.00434356 -0.00250253 -6.96395e-18)
(0.0043514 -0.00268291 -1.18227e-17)
(0.00435811 -0.00286607 -1.19433e-17)
(0.00436347 -0.003052 -7.64095e-18)
(0.00436725 -0.00324069 -1.17419e-17)
(0.00436924 -0.00343209 -1.88373e-17)
(0.0043692 -0.00362611 -2.16878e-17)
(0.00436732 -0.0038222 -1.88052e-17)
(0.00434353 -0.00404168 -1.84718e-17)
(0.00531003 -0.00326916 -2.597e-17)
(0.00548795 0.00344774 1.42059e-17)
(0.00453093 0.00421141 1.1426e-17)
(0.00455981 0.00398707 1.52585e-17)
(0.00456719 0.00378532 2.02225e-17)
(0.00457253 0.00358545 2.19918e-17)
(0.00457566 0.00338801 2.07264e-17)
(0.00457679 0.00319308 1.63609e-17)
(0.00457614 0.00300071 1.12147e-17)
(0.00457391 0.00281094 8.11861e-18)
(0.00457032 0.00262378 5.23947e-18)
(0.00456557 0.00243922 5.17871e-18)
(0.00455986 0.00225723 7.8432e-18)
(0.0045534 0.00207778 6.72308e-18)
(0.00454638 0.00190079 2.09349e-18)
(0.00453901 0.0017262 -1.93413e-19)
(0.00453147 0.00155391 1.82018e-18)
(0.00452398 0.0013838 4.88758e-18)
(0.00451674 0.00121573 1.63848e-18)
(0.00450991 0.00104955 -7.71158e-19)
(0.0045037 0.000885048 1.15152e-18)
(0.00449825 0.000722025 -3.20432e-19)
(0.00449371 0.000560243 -1.64536e-18)
(0.00449019 0.000399449 1.60805e-18)
(0.0044878 0.000239375 5.12156e-18)
(0.00448659 7.97357e-05 3.18103e-18)
(0.0044866 -7.97591e-05 -1.72558e-18)
(0.00448782 -0.000239399 -5.28578e-21)
(0.00449022 -0.000399474 7.21184e-18)
(0.00449375 -0.000560264 1.06685e-17)
(0.0044983 -0.000722042 1.47656e-17)
(0.00450376 -0.000885062 1.54196e-17)
(0.00450998 -0.00104956 9.27769e-18)
(0.00451681 -0.00121575 4.4692e-18)
(0.00452407 -0.00138382 1.36669e-18)
(0.00453157 -0.00155393 1.08715e-18)
(0.00453911 -0.00172622 -3.33516e-18)
(0.0045465 -0.00190081 -4.9188e-18)
(0.00455352 -0.00207779 1.44704e-18)
(0.00455999 -0.00225724 -1.94508e-19)
(0.0045657 -0.00243922 -6.23066e-18)
(0.00457045 -0.00262378 -7.16842e-18)
(0.00457405 -0.00281093 -1.0842e-17)
(0.00457628 -0.0030007 -1.30769e-17)
(0.00457693 -0.00319307 -9.83715e-18)
(0.0045758 -0.00338801 -1.27598e-17)
(0.00457267 -0.00358546 -1.82942e-17)
(0.00456732 -0.00378533 -2.02445e-17)
(0.00455994 -0.00398709 -1.70767e-17)
(0.00453106 -0.00421143 -1.69429e-17)
(0.0054881 -0.00344776 -1.80309e-17)
(0.00566503 0.00362633 2.20463e-17)
(0.00471784 0.00438064 1.11731e-17)
(0.00475178 0.00415137 1.3838e-17)
(0.00476458 0.00394391 1.90194e-17)
(0.00477516 0.00373817 2.22597e-17)
(0.00478334 0.00353466 1.89043e-17)
(0.00478933 0.00333348 1.37448e-17)
(0.00479333 0.00313468 9.36581e-18)
(0.00479554 0.00293831 5.05277e-18)
(0.00479616 0.00274439 3.21968e-18)
(0.0047954 0.00255291 6.15463e-18)
(0.00479346 0.00236386 1.00125e-17)
(0.00479054 0.00217721 5.55844e-18)
(0.00478684 0.00199289 -2.22424e-18)
(0.00478255 0.00181083 -2.32344e-18)
(0.00477786 0.00163094 2.83641e-18)
(0.00477297 0.00145311 4.62052e-18)
(0.00476806 0.00127721 6.53334e-19)
(0.00476332 0.00110307 -3.05381e-19)
(0.00475891 0.000930527 1.19325e-18)
(0.00475499 0.000759365 -2.49375e-19)
(0.00475167 0.000589367 -4.66242e-19)
(0.00474909 0.000420297 2.84622e-18)
(0.00474732 0.000251899 4.89492e-18)
(0.00474643 8.3909e-05 5.36449e-19)
(0.00474644 -8.39436e-05 -2.13119e-18)
(0.00474734 -0.000251932 2.42073e-18)
(0.00474913 -0.000420328 6.75606e-18)
(0.00475172 -0.000589396 9.86433e-18)
(0.00475504 -0.000759389 1.59716e-17)
(0.00475898 -0.000930549 1.60665e-17)
(0.0047634 -0.0011031 1.01831e-17)
(0.00476815 -0.00127723 5.93514e-18)
(0.00477307 -0.00145314 1.60102e-18)
(0.00477796 -0.00163096 2.32412e-19)
(0.00478266 -0.00181085 -2.41993e-18)
(0.00478696 -0.0019929 -4.22189e-18)
(0.00479067 -0.00217722 -1.47015e-18)
(0.0047936 -0.00236387 -4.96629e-18)
(0.00479554 -0.00255291 -9.58375e-18)
(0.0047963 -0.00274439 -8.0294e-18)
(0.00479568 -0.0029383 -9.02929e-18)
(0.00479347 -0.00313467 -1.16653e-17)