/*--------------------------------*- C++ -*----------------------------------*\
  =========                 |
  \\      /  F ield         | OpenFOAM: The Open Source CFD Toolbox
   \\    /   O peration     | Website:  https://openfoam.org
    \\  /    A nd           | Version:  7
     \\/     M anipulation  |
\*---------------------------------------------------------------------------*/
FoamFile
{
    version     2.0;
    format      ascii;
    class       volVectorField;
    location    "168000";
    object      U;
}
// * * * * * * * * * * * * * * * * * * * * * * * * * * * * * * * * * * * * * //

dimensions      [0 1 -1 0 0 0 0];

internalField   nonuniform List<vector> 
4844
(
(-8.61963e-19 2.77685e-18 -0.0151465)
(1.30277e-17 -1.2792e-18 -0.0151377)
(2.04546e-18 1.63509e-19 -0.0151282)
(3.68297e-18 2.18053e-17 -0.0151108)
(9.73555e-18 1.83677e-18 -0.015102)
(1.67258e-18 1.64703e-18 -0.0150924)
(2.66093e-18 5.88976e-19 -0.0150819)
(1.67271e-18 5.17289e-19 -0.0150707)
(1.53142e-18 3.02792e-19 -0.0150587)
(1.46512e-18 3.5811e-19 -0.0150459)
(5.03386e-19 3.92912e-19 -0.0150323)
(2.80312e-18 1.80332e-17 -0.0150748)
(6.03401e-18 2.02419e-18 -0.0150659)
(1.40156e-18 2.67241e-18 -0.0150562)
(2.51207e-18 1.11842e-18 -0.0150457)
(1.57699e-18 7.0589e-19 -0.0150344)
(1.60698e-18 4.4785e-19 -0.0150222)
(1.53981e-18 5.83764e-19 -0.0150094)
(5.38711e-19 5.30099e-19 -0.0149957)
(6.19768e-19 9.1785e-19 -0.0149813)
(1.00473e-18 1.16892e-18 -0.0149663)
(6.69292e-19 -3.47165e-20 -0.0149505)
(1.23764e-18 1.23106e-17 -0.0150384)
(3.98662e-18 2.01835e-18 -0.0150294)
(1.28039e-18 2.88729e-18 -0.0150197)
(2.22004e-18 1.33467e-18 -0.0150091)
(1.42493e-18 7.28003e-19 -0.0149977)
(1.63585e-18 5.06439e-19 -0.0149855)
(1.48268e-18 6.08914e-19 -0.0149725)
(5.09263e-19 3.9985e-19 -0.0149588)
(8.57381e-19 9.28638e-19 -0.0149443)
(8.90367e-19 1.25157e-18 -0.0149291)
(5.53697e-19 2.85465e-19 -0.0149133)
(5.09702e-19 2.05571e-19 -0.0148967)
(5.24639e-19 -6.19492e-20 -0.0148796)
(7.23176e-19 -2.87443e-19 -0.0148618)
(2.53614e-19 1.3954e-19 -0.0148435)
(-4.15788e-19 4.23707e-19 -0.0148246)
(3.48397e-19 9.20267e-18 -0.0150016)
(2.89054e-18 2.63839e-18 -0.0149926)
(1.099e-18 2.98365e-18 -0.0149828)
(1.93786e-18 1.61436e-18 -0.0149721)
(1.23425e-18 6.4195e-19 -0.0149606)
(1.66537e-18 4.75128e-19 -0.0149484)
(1.30478e-18 3.75748e-19 -0.0149353)
(4.64962e-19 2.16521e-19 -0.0149215)
(9.36613e-19 6.82951e-19 -0.0149069)
(5.4347e-19 7.25046e-19 -0.0148916)
(5.26482e-19 4.8457e-19 -0.0148757)
(5.42137e-19 3.27944e-19 -0.014859)
(4.84269e-19 -1.27086e-19 -0.0148418)
(9.57061e-19 1.52317e-19 -0.0148239)
(-1.71555e-20 -1.35861e-19 -0.0148055)
(-4.49303e-19 3.47207e-19 -0.0147865)
(3.65748e-21 7.57517e-18 -0.0149645)
(2.28347e-18 3.18393e-18 -0.0149555)
(1.00138e-18 3.29258e-18 -0.0149456)
(1.5793e-18 1.73535e-18 -0.0149348)
(1.1223e-18 9.24434e-19 -0.0149233)
(1.71007e-18 6.74584e-19 -0.0149109)
(1.1417e-18 2.60397e-19 -0.0148978)
(6.06392e-19 3.66689e-19 -0.0148839)
(9.56915e-19 6.09709e-19 -0.0148692)
(3.26052e-19 3.07266e-19 -0.0148538)
(5.81536e-19 5.3168e-19 -0.0148378)
(4.14156e-19 3.57205e-19 -0.0148211)
(5.66781e-19 -1.52646e-19 -0.0148037)
(9.85017e-19 2.54473e-19 -0.0147857)
(-3.15768e-19 -3.48654e-19 -0.0147672)
(-2.95383e-19 3.141e-19 -0.0147481)
(1.85002e-18 3.4772e-18 -0.014918)
(7.23022e-19 3.40899e-18 -0.014908)
(1.24157e-18 1.79313e-18 -0.0148972)
(1.19796e-18 1.33952e-18 -0.0148856)
(1.72298e-18 9.77314e-19 -0.0148732)
(1.15977e-18 5.02429e-19 -0.0148599)
(8.50085e-19 7.29477e-19 -0.0148459)
(9.98227e-19 8.48731e-19 -0.0148312)
(3.17055e-19 3.68876e-19 -0.0148157)
(6.46538e-19 5.65287e-19 -0.0147996)
(2.95931e-19 2.2603e-19 -0.0147827)
(7.95148e-19 1.48178e-19 -0.0147653)
(4.90458e-19 -2.45414e-19 -0.0147472)
(-5.71254e-19 -5.85205e-19 -0.0147286)
(-1.17068e-19 2.31505e-19 -0.0147094)
(1.36195e-18 3.50291e-18 -0.0148802)
(3.87649e-19 3.11673e-18 -0.0148702)
(1.06298e-18 1.9465e-18 -0.0148593)
(1.2152e-18 1.56773e-18 -0.0148476)
(1.67478e-18 1.08604e-18 -0.0148351)
(1.19409e-18 7.22455e-19 -0.0148218)
(1.06863e-18 1.03986e-18 -0.0148077)
(9.06538e-19 8.37484e-19 -0.0147928)
(3.22839e-19 5.30925e-19 -0.0147773)
(6.19727e-19 6.04512e-19 -0.0147611)
(2.0279e-19 7.27918e-20 -0.0147441)
(6.02202e-19 2.15196e-21 -0.0147266)
(-1.39842e-19 -7.4799e-19 -0.0147084)
(-4.71568e-19 -6.66101e-19 -0.0146897)
(8.96742e-20 1.09253e-19 -0.0146704)
(7.76545e-19 3.2603e-18 -0.0148421)
(8.01846e-20 2.83715e-18 -0.014832)
(9.45206e-19 1.95299e-18 -0.014821)
(1.22785e-18 1.76443e-18 -0.0148093)
(1.58315e-18 1.08504e-18 -0.0147967)
(1.2487e-18 7.67291e-19 -0.0147833)
(1.17406e-18 1.30279e-18 -0.0147691)
(5.94984e-19 4.70224e-19 -0.0147542)
(3.44634e-19 5.80019e-19 -0.0147386)
(4.85029e-19 4.74509e-19 -0.0147222)
(1.0671e-19 1.41321e-19 -0.0147052)
(1.74356e-19 -4.27956e-19 -0.0146876)
(-3.35751e-19 -9.10948e-19 -0.0146693)
(-2.24101e-19 -6.488e-19 -0.0146505)
(1.18502e-19 -1.49747e-19 -0.0146311)
(-3.90322e-19 5.04566e-18 -0.0148129)
(3.12316e-19 2.96491e-18 -0.0148036)
(-5.70754e-20 2.76124e-18 -0.0147935)
(9.67775e-19 2.09024e-18 -0.0147825)
(1.2328e-18 1.93399e-18 -0.0147706)
(1.48258e-18 1.14894e-18 -0.0147579)
(1.35799e-18 8.71867e-19 -0.0147445)
(1.03265e-18 1.23084e-18 -0.0147302)
(3.14077e-19 2.12904e-19 -0.0147153)
(3.75573e-19 5.55283e-19 -0.0146995)
(3.54164e-19 3.37998e-19 -0.0146831)
(-2.40253e-20 1.99283e-19 -0.014666)
(7.28457e-20 -2.74146e-19 -0.0146483)
(-2.5412e-19 -7.60225e-19 -0.01463)
(-3.14511e-20 -6.34212e-19 -0.0146111)
(1.5307e-19 -5.18137e-19 -0.0145916)
(-5.25882e-19 4.31345e-18 -0.0147742)
(9.75134e-21 2.81984e-18 -0.0147648)
(-7.97745e-20 2.79024e-18 -0.0147546)
(1.03606e-18 2.35912e-18 -0.0147436)
(1.14821e-18 1.9545e-18 -0.0147317)
(1.4222e-18 1.2344e-18 -0.0147189)
(1.42826e-18 1.07524e-18 -0.0147054)
(7.25161e-19 9.52515e-19 -0.0146911)
(2.01072e-19 1.68351e-19 -0.014676)
(4.02862e-19 4.74431e-19 -0.0146602)
(2.76583e-19 3.23619e-19 -0.0146437)
(-4.36272e-20 2.37975e-19 -0.0146265)
(2.51104e-19 1.89218e-19 -0.0146087)
(-1.86028e-19 -5.60169e-19 -0.0145903)
(1.84827e-19 -4.2389e-19 -0.0145713)
(3.63617e-19 -6.13987e-19 -0.0145517)
(-6.10534e-19 3.839e-18 -0.0147351)
(-1.78789e-19 2.6241e-18 -0.0147257)
(-5.11214e-20 2.70928e-18 -0.0147155)
(1.05135e-18 2.50356e-18 -0.0147044)
(1.00792e-18 1.91269e-18 -0.0146924)
(1.36538e-18 1.20024e-18 -0.0146796)
(1.28521e-18 9.39171e-19 -0.014666)
(4.70508e-19 8.58153e-19 -0.0146516)
(3.08228e-19 4.8087e-19 -0.0146365)
(5.08968e-19 5.6326e-19 -0.0146206)
(2.98411e-19 4.19725e-19 -0.014604)
(1.72523e-20 2.90781e-19 -0.0145868)
(9.33276e-20 1.35186e-19 -0.0145689)
(-1.07695e-19 -3.13061e-19 -0.0145504)
(4.61817e-19 -2.05082e-19 -0.0145313)
(5.02056e-19 -5.58341e-19 -0.0145116)
(-6.76218e-19 3.61327e-18 -0.0146958)
(-3.62146e-19 2.434e-18 -0.0146864)
(8.04823e-20 2.83936e-18 -0.014676)
(1.00615e-18 2.45014e-18 -0.0146649)
(8.61658e-19 1.92853e-18 -0.0146528)
(1.26365e-18 1.24048e-18 -0.01464)
(1.14836e-18 7.6601e-19 -0.0146263)
(4.5564e-19 8.5082e-19 -0.0146118)
(4.03105e-19 6.29603e-19 -0.0145966)
(5.54528e-19 6.73109e-19 -0.0145807)
(3.10233e-19 5.96419e-19 -0.014564)
(-4.84565e-20 3.87842e-19 -0.0145467)
(1.90224e-21 5.15142e-20 -0.0145287)
(1.83135e-19 -3.13414e-20 -0.0145101)
(8.13113e-19 2.61403e-19 -0.014491)
(5.51056e-19 -4.68522e-19 -0.0144712)
(-1.80696e-18 2.67844e-18 -0.0146647)
(-7.59153e-19 3.35234e-18 -0.0146561)
(-3.95519e-19 2.35473e-18 -0.0146467)
(3.18659e-19 3.28401e-18 -0.0146363)
(9.26032e-19 2.50622e-18 -0.0146251)
(7.79585e-19 1.99202e-18 -0.014613)
(1.24307e-18 1.4346e-18 -0.0146)
(1.05043e-18 7.41562e-19 -0.0145863)
(4.39601e-19 9.91696e-19 -0.0145718)
(4.51408e-19 7.16167e-19 -0.0145565)
(4.6978e-19 4.02429e-19 -0.0145405)
(3.29914e-19 7.35252e-19 -0.0145237)
(-1.83862e-19 2.68133e-19 -0.0145063)
(2.00216e-19 3.69105e-19 -0.0144883)
(4.24523e-19 8.53868e-20 -0.0144696)
(1.0198e-18 5.44176e-19 -0.0144504)
(4.53392e-19 -3.73886e-19 -0.0144306)
(-1.74652e-18 2.63135e-18 -0.0146248)
(-7.74227e-19 3.18909e-18 -0.0146162)
(-2.43384e-19 2.51555e-18 -0.0146067)
(5.24295e-19 3.56243e-18 -0.0145962)
(7.37996e-19 2.47003e-18 -0.014585)
(6.58003e-19 1.94303e-18 -0.0145728)
(1.12805e-18 1.50377e-18 -0.0145598)
(8.7404e-19 5.09873e-19 -0.014546)
(5.24045e-19 1.0963e-18 -0.0145314)
(4.74595e-19 9.78812e-19 -0.0145161)
(2.60912e-19 -9.8718e-21 -0.0145)
(2.60291e-19 6.95305e-19 -0.0144832)
(-3.21892e-19 8.736e-20 -0.0144657)
(4.67381e-19 6.34787e-19 -0.0144476)
(4.71783e-19 1.26872e-20 -0.0144288)
(8.08728e-19 3.22931e-19 -0.0144095)
(2.60214e-19 -4.42238e-19 -0.0143896)
(-1.7229e-18 2.27275e-18 -0.0145923)
(-1.64683e-18 2.48461e-18 -0.0145846)
(-7.44341e-19 3.09756e-18 -0.0145759)
(-6.78508e-20 2.65778e-18 -0.0145664)
(4.73481e-19 3.3727e-18 -0.0145559)
(4.68897e-19 2.34302e-18 -0.0145446)
(5.46318e-19 1.81397e-18 -0.0145324)
(9.93133e-19 1.55364e-18 -0.0145193)
(7.85351e-19 4.10554e-19 -0.0145054)
(5.88498e-19 1.04552e-18 -0.0144908)
(3.6792e-19 1.14204e-18 -0.0144754)
(1.27361e-19 -1.83673e-19 -0.0144592)
(1.66809e-19 4.83637e-19 -0.0144423)
(-2.89506e-19 3.12344e-21 -0.0144248)
(6.02257e-19 7.34233e-19 -0.0144066)
(3.71836e-19 -3.47363e-20 -0.0143878)
(6.06051e-19 9.9678e-20 -0.0143684)
(1.93926e-19 -4.41127e-19 -0.0143484)
(-1.60917e-18 2.2914e-18 -0.0145518)
(-1.55642e-18 2.34127e-18 -0.0145441)
(-6.46355e-19 3.03051e-18 -0.0145354)
(1.59149e-20 2.7141e-18 -0.0145258)
(2.66903e-19 2.71913e-18 -0.0145153)
(3.00735e-19 2.32715e-18 -0.0145039)
(4.84955e-19 1.7464e-18 -0.0144916)
(8.87655e-19 1.61222e-18 -0.0144785)
(8.60182e-19 7.73207e-19 -0.0144646)
(6.41731e-19 9.34721e-19 -0.0144499)
(2.30003e-19 1.20487e-18 -0.0144344)
(9.09096e-20 -7.16446e-20 -0.0144182)
(1.58803e-19 4.47332e-19 -0.0144012)
(-1.30972e-19 1.11173e-19 -0.0143836)
(5.32846e-19 4.85632e-19 -0.0143653)
(2.80966e-19 -7.90575e-20 -0.0143464)
(6.455e-19 2.14533e-19 -0.014327)
(2.40492e-19 -2.80932e-19 -0.0143069)
(-1.48243e-18 2.10363e-18 -0.0145111)
(-1.43245e-18 2.41693e-18 -0.0145033)
(-5.25461e-19 3.08609e-18 -0.0144945)
(-1.39475e-20 2.82087e-18 -0.0144849)
(6.84541e-20 2.20609e-18 -0.0144743)
(2.66956e-19 2.36183e-18 -0.0144629)
(4.48039e-19 1.75042e-18 -0.0144506)
(8.77664e-19 1.63205e-18 -0.0144374)
(9.76925e-19 1.21435e-18 -0.0144234)
(5.68979e-19 8.33624e-19 -0.0144087)
(2.68006e-20 1.0733e-18 -0.0143931)
(1.18118e-19 7.80207e-20 -0.0143768)
(3.36724e-19 6.64017e-19 -0.0143598)
(8.32758e-20 4.41845e-19 -0.0143421)
(3.49356e-19 2.11968e-19 -0.0143238)
(2.44224e-19 -2.04397e-19 -0.0143048)
(7.82557e-19 3.66971e-19 -0.0142853)
(2.41364e-19 -3.78835e-20 -0.0142652)
(-1.37642e-18 1.87946e-18 -0.01447)
(-1.19413e-18 2.64356e-18 -0.0144622)
(-4.23708e-19 3.06742e-18 -0.0144534)
(-1.47255e-19 2.77425e-18 -0.0144437)
(4.11846e-20 2.21723e-18 -0.0144331)
(2.88914e-19 2.43449e-18 -0.0144216)
(3.67144e-19 1.6357e-18 -0.0144093)
(8.94072e-19 1.64657e-18 -0.014396)
(8.47153e-19 1.1821e-18 -0.014382)
(4.38842e-19 7.63985e-19 -0.0143672)
(-1.87662e-19 8.15258e-19 -0.0143516)
(3.24986e-19 3.65292e-19 -0.0143352)
(5.11801e-19 8.19319e-19 -0.0143181)
(2.00548e-19 7.97234e-19 -0.0143004)
(3.14592e-19 2.76289e-19 -0.014282)
(4.55904e-19 -5.43773e-20 -0.0142629)
(8.25296e-19 3.51241e-19 -0.0142433)
(1.38178e-19 5.98791e-20 -0.0142232)
(-1.14544e-18 1.96886e-18 -0.0144286)
(-9.69077e-19 2.91735e-18 -0.0144208)
(-4.30892e-19 3.02606e-18 -0.014412)
(-2.45028e-19 2.65479e-18 -0.0144022)
(3.85403e-20 2.2047e-18 -0.0143916)
(1.55552e-19 2.28918e-18 -0.0143801)
(2.71468e-19 1.52148e-18 -0.0143676)
(7.73988e-19 1.3524e-18 -0.0143544)
(6.24417e-19 9.19323e-19 -0.0143403)
(2.96311e-19 6.70409e-19 -0.0143254)
(-2.22281e-19 7.41146e-19 -0.0143097)
(5.61045e-19 5.94768e-19 -0.0142933)
(5.09401e-19 7.13519e-19 -0.0142762)
(2.68797e-19 9.83181e-19 -0.0142583)
(4.29256e-19 5.27009e-19 -0.0142399)
(7.23647e-19 2.77007e-19 -0.0142208)
(7.08433e-19 2.56142e-19 -0.0142011)
(-4.86639e-20 -1.51078e-20 -0.0141809)
(-8.74847e-19 2.14057e-18 -0.014387)
(-8.334e-19 2.92643e-18 -0.0143791)
(-4.63345e-19 2.99501e-18 -0.0143702)
(-3.5727e-19 2.64284e-18 -0.0143605)
(-7.42053e-20 1.9813e-18 -0.0143498)
(6.89491e-20 2.15384e-18 -0.0143382)
(2.53398e-19 1.67539e-18 -0.0143257)
(6.59231e-19 1.17584e-18 -0.0143124)
(4.67993e-19 7.0791e-19 -0.0142983)
(2.70965e-19 6.69349e-19 -0.0142833)
(-9.50826e-20 8.99507e-19 -0.0142676)
(6.33311e-19 6.33133e-19 -0.0142511)
(4.91536e-19 5.95226e-19 -0.0142339)
(2.56684e-19 9.3814e-19 -0.014216)
(5.43902e-19 7.13078e-19 -0.0141975)
(7.30141e-19 3.13204e-19 -0.0141784)
(4.81747e-19 1.28732e-19 -0.0141586)
(-1.69499e-19 -8.42934e-20 -0.0141383)
(-6.64316e-19 2.10021e-18 -0.014345)
(-7.87191e-19 2.7339e-18 -0.0143371)
(-5.15451e-19 2.88261e-18 -0.0143282)
(-4.36369e-19 2.7914e-18 -0.0143184)
(-4.71405e-20 2.16113e-18 -0.0143077)
(1.30543e-19 2.27017e-18 -0.0142961)
(3.25206e-19 2.04261e-18 -0.0142836)
(6.11643e-19 1.33252e-18 -0.0142702)
(4.67443e-19 8.32096e-19 -0.014256)
(4.03498e-19 8.84125e-19 -0.014241)
(2.62762e-20 1.09546e-18 -0.0142252)
(6.73646e-19 6.67506e-19 -0.0142087)
(4.21346e-19 4.29196e-19 -0.0141914)
(3.03831e-19 9.24956e-19 -0.0141735)
(6.3414e-19 8.8681e-19 -0.0141549)
(6.96767e-19 4.03301e-19 -0.0141357)
(3.85383e-19 1.33301e-19 -0.0141159)
(-1.14505e-19 2.7863e-20 -0.0140955)
(-5.75511e-19 1.7469e-18 -0.0143028)
(-7.23971e-19 2.57932e-18 -0.0142948)
(-5.13843e-19 2.69313e-18 -0.0142859)
(-4.38271e-19 2.89077e-18 -0.0142761)
(3.00116e-20 2.52754e-18 -0.0142653)
(1.93521e-19 2.42451e-18 -0.0142537)
(3.51887e-19 2.3147e-18 -0.0142411)
(5.38344e-19 1.42739e-18 -0.0142277)
(5.93478e-19 1.19096e-18 -0.0142134)
(5.64972e-19 1.21101e-18 -0.0141984)
(1.66798e-19 1.39671e-18 -0.0141825)
(5.75362e-19 6.08284e-19 -0.0141659)
(3.43359e-19 2.24259e-19 -0.0141486)
(4.70365e-19 9.96395e-19 -0.0141306)
(7.07735e-19 9.9124e-19 -0.014112)
(7.79026e-19 6.5819e-19 -0.0140927)
(5.5742e-19 5.26416e-19 -0.0140728)
(-1.20314e-19 1.52701e-19 -0.0140524)
(-5.32322e-19 1.399e-18 -0.0142603)
(-6.09675e-19 2.5251e-18 -0.0142523)
(-5.43928e-19 2.43567e-18 -0.0142434)
(-4.91419e-19 2.62157e-18 -0.0142335)
(9.9872e-20 2.78029e-18 -0.0142227)
(1.82563e-19 2.41745e-18 -0.014211)
(1.8918e-19 2.13025e-18 -0.0141984)
(5.24979e-19 1.58496e-18 -0.0141849)
(7.48294e-19 1.48261e-18 -0.0141706)
(6.24736e-19 1.30284e-18 -0.0141555)
(1.60573e-19 1.59447e-18 -0.0141396)
(3.71135e-19 4.77593e-19 -0.0141229)
(3.6917e-19 1.02599e-19 -0.0141056)
(6.34978e-19 1.01553e-18 -0.0140875)
(8.13814e-19 1.142e-18 -0.0140688)
(7.2957e-19 6.05479e-19 -0.0140495)
(7.42142e-19 9.858e-19 -0.0140295)
(-2.08395e-19 1.91057e-19 -0.0140091)
(-4.64643e-19 1.25693e-18 -0.0142175)
(-5.09866e-19 2.44913e-18 -0.0142095)
(-6.19135e-19 2.19764e-18 -0.0142005)
(-4.94142e-19 2.26258e-18 -0.0141906)
(1.38774e-19 2.80787e-18 -0.0141797)
(5.46875e-21 2.24609e-18 -0.014168)
(9.61774e-20 1.9772e-18 -0.0141553)
(6.34459e-19 1.76506e-18 -0.0141418)
(8.00569e-19 1.68629e-18 -0.0141275)
(5.54503e-19 1.23081e-18 -0.0141123)
(8.2701e-20 1.6434e-18 -0.0140964)
(1.02163e-19 2.36015e-19 -0.0140797)
(5.62254e-19 2.13407e-19 -0.0140622)
(7.75864e-19 9.27724e-19 -0.0140441)
(7.49905e-19 1.11013e-18 -0.0140253)
(6.52573e-19 5.05331e-19 -0.0140059)
(5.71296e-19 8.97579e-19 -0.013986)
(-2.62553e-19 3.12887e-19 -0.0139654)
(-3.56814e-19 1.38258e-18 -0.0141744)
(-4.40585e-19 2.34075e-18 -0.0141663)
(-6.89092e-19 2.07278e-18 -0.0141573)
(-4.20507e-19 2.17811e-18 -0.0141474)
(4.31356e-20 2.44138e-18 -0.0141365)
(-1.47857e-19 1.99418e-18 -0.0141247)
(2.08596e-19 2.2195e-18 -0.014112)
(6.51074e-19 1.75173e-18 -0.0140985)
(7.33221e-19 1.65607e-18 -0.0140841)
(5.28304e-19 1.25327e-18 -0.0140689)
(-1.18052e-19 1.58446e-18 -0.0140529)
(1.73007e-19 5.17278e-19 -0.0140361)
(9.61169e-19 5.7478e-19 -0.0140186)
(8.87792e-19 9.79454e-19 -0.0140004)
(6.35787e-19 9.8316e-19 -0.0139816)
(6.29993e-19 5.33035e-19 -0.0139622)
(7.73599e-20 3.59147e-19 -0.0139421)
(-3.3578e-19 3.16532e-19 -0.0139216)
(-2.88839e-19 1.60218e-18 -0.014131)
(-4.1501e-19 2.24951e-18 -0.0141229)
(-6.88811e-19 2.09914e-18 -0.0141139)
(-3.45561e-19 2.28317e-18 -0.0141039)
(-1.08503e-19 2.04782e-18 -0.014093)
(-1.64697e-19 1.82411e-18 -0.0140811)
(3.344e-19 2.4498e-18 -0.0140684)
(5.22989e-19 1.55406e-18 -0.0140548)
(5.78998e-19 1.38743e-18 -0.0140404)
(4.20865e-19 1.15228e-18 -0.0140251)
(-2.91465e-19 1.31207e-18 -0.0140091)
(4.31009e-19 9.25194e-19 -0.0139923)
(1.11615e-18 6.99653e-19 -0.0139747)
(6.56731e-19 5.96349e-19 -0.0139565)
(4.868e-19 8.6471e-19 -0.0139376)
(4.68759e-19 5.33321e-19 -0.0139181)
(-2.37831e-19 8.92923e-20 -0.013898)
(-3.63642e-19 2.276e-19 -0.0138774)
(-2.72017e-19 1.80988e-18 -0.0140873)
(-3.6296e-19 2.28671e-18 -0.0140792)
(-6.66571e-19 2.13726e-18 -0.0140701)
(-3.17104e-19 2.4102e-18 -0.0140601)
(-2.0654e-19 1.88758e-18 -0.0140492)
(-1.81075e-19 1.48768e-18 -0.0140373)
(2.81486e-19 2.29831e-18 -0.0140245)
(2.95113e-19 1.29378e-18 -0.0140109)
(4.30215e-19 1.11897e-18 -0.0139964)
(2.36404e-19 8.48065e-19 -0.0139811)
(-3.80047e-19 1.15979e-18 -0.013965)
(3.47657e-19 6.86475e-19 -0.0139481)
(9.98134e-19 5.88284e-19 -0.0139306)
(1.6528e-19 -1.5687e-19 -0.0139123)
(3.02917e-19 5.03492e-19 -0.0138933)
(1.68115e-19 2.56363e-19 -0.0138738)
(-1.22816e-19 3.62555e-19 -0.0138536)
(-3.80295e-19 1.8449e-19 -0.0138329)
(-2.83901e-19 1.89318e-18 -0.0140433)
(-3.41395e-19 2.34815e-18 -0.0140352)
(-6.54189e-19 2.13579e-18 -0.0140261)
(-2.78497e-19 2.57299e-18 -0.0140161)
(-2.86707e-19 2.0417e-18 -0.0140051)
(-2.74356e-19 1.07928e-18 -0.0139932)
(2.27027e-19 2.06465e-18 -0.0139804)
(1.59105e-19 1.17168e-18 -0.0139667)
(2.72708e-19 8.55593e-19 -0.0139522)
(-6.76646e-20 2.65445e-19 -0.0139368)
(-3.52762e-19 1.22729e-18 -0.0139207)
(2.94105e-19 5.20164e-19 -0.0139037)
(9.94148e-19 7.21891e-19 -0.0138861)
(-2.26574e-20 -3.70138e-19 -0.0138678)
(2.85728e-19 3.96535e-19 -0.0138488)
(2.00524e-20 1.81105e-20 -0.0138292)
(2.39508e-20 5.79014e-19 -0.013809)
(-3.1973e-19 3.5895e-19 -0.0137882)
(-3.11145e-19 1.69971e-18 -0.0139991)
(-3.37968e-19 2.25985e-18 -0.0139909)
(-6.08864e-19 2.16991e-18 -0.0139818)
(-2.54208e-19 2.59262e-18 -0.0139717)
(-3.65561e-19 2.35415e-18 -0.0139607)
(-3.05405e-19 9.27796e-19 -0.0139488)
(2.1053e-19 1.856e-18 -0.0139359)
(-7.71997e-20 9.37726e-19 -0.0139222)
(1.16231e-19 8.29226e-19 -0.0139076)
(-1.84573e-19 -9.26021e-20 -0.0138922)
(-2.0249e-19 1.31292e-18 -0.013876)
(3.92947e-19 6.00933e-19 -0.0138591)
(1.01887e-18 8.9809e-19 -0.0138414)
(8.09887e-20 -9.01059e-20 -0.013823)
(4.41389e-19 5.55838e-19 -0.0138039)
(-2.21432e-20 -2.26444e-20 -0.0137843)
(-6.12508e-20 4.21935e-19 -0.013764)
(-3.59188e-19 3.97539e-19 -0.0137432)
(-3.0369e-19 1.59351e-18 -0.0139617)
(-2.74979e-19 1.65906e-18 -0.0139545)
(-3.81157e-19 1.82593e-18 -0.0139463)
(-5.96075e-19 2.0714e-18 -0.0139372)
(-3.22557e-19 2.21615e-18 -0.0139271)
(-4.53069e-19 2.60429e-18 -0.013916)
(-3.13073e-19 1.0471e-18 -0.0139041)
(1.77719e-19 1.76853e-18 -0.0138912)
(-2.9056e-19 5.8178e-19 -0.0138774)
(9.27138e-20 8.98062e-19 -0.0138628)
(-9.1761e-20 2.06106e-20 -0.0138473)
(-1.49479e-19 1.20396e-18 -0.0138311)
(4.87152e-19 7.013e-19 -0.0138141)
(9.32475e-19 8.21314e-19 -0.0137964)
(2.40788e-19 2.25767e-19 -0.0137779)
(4.5381e-19 6.31121e-19 -0.0137588)
(-2.06343e-19 -1.59896e-19 -0.0137391)
(-3.29678e-19 5.90461e-20 -0.0137188)
(-6.56838e-19 2.75791e-20 -0.013698)
(-3.41489e-19 1.38613e-18 -0.0139169)
(-2.44494e-19 1.77489e-18 -0.0139097)
(-4.71003e-19 1.40495e-18 -0.0139015)
(-6.8949e-19 1.54358e-18 -0.0138923)
(-3.92761e-19 1.68934e-18 -0.0138822)
(-5.47666e-19 2.52854e-18 -0.0138711)
(-2.85315e-19 1.2441e-18 -0.0138591)
(1.13631e-19 1.74099e-18 -0.0138461)
(-3.60353e-19 6.62542e-19 -0.0138323)
(9.96203e-20 9.40325e-19 -0.0138177)
(-4.903e-20 4.89097e-20 -0.0138022)
(-1.41256e-19 1.02575e-18 -0.0137859)
(4.64827e-19 5.88968e-19 -0.0137688)
(8.77285e-19 7.74486e-19 -0.0137511)
(2.97647e-19 3.59204e-19 -0.0137326)
(3.88366e-19 6.74085e-19 -0.0137134)
(-4.39215e-19 -2.78276e-19 -0.0136937)
(-4.40226e-19 -5.00932e-20 -0.0136733)
(-7.68626e-19 -2.51204e-19 -0.0136524)
(-6.59593e-19 1.881e-18 -0.0138779)
(-3.57897e-19 1.23892e-18 -0.0138717)
(-2.58898e-19 1.72012e-18 -0.0138645)
(-5.91642e-19 1.24654e-18 -0.0138563)
(-7.82079e-19 1.12686e-18 -0.0138471)
(-3.76726e-19 1.27629e-18 -0.0138369)
(-6.76066e-19 2.1657e-18 -0.0138258)
(-3.40757e-19 1.19355e-18 -0.0138138)
(4.00797e-20 1.63231e-18 -0.0138008)
(-3.02855e-19 9.03269e-19 -0.013787)
(1.26103e-19 1.10956e-18 -0.0137723)
(-2.70244e-20 1.02241e-19 -0.0137567)
(-1.37432e-19 8.95224e-19 -0.0137404)
(4.17772e-19 4.06536e-19 -0.0137233)
(9.06091e-19 7.93689e-19 -0.0137055)
(3.27537e-19 4.43714e-19 -0.0136869)
(3.29854e-19 7.78792e-19 -0.0136677)
(-5.27804e-19 -2.2688e-19 -0.0136479)
(-2.03881e-19 2.6964e-19 -0.0136275)
(-6.87061e-19 -2.02968e-19 -0.0136066)
(-6.58546e-19 1.92139e-18 -0.0138325)
(-3.43698e-19 1.46887e-18 -0.0138263)
(-3.07268e-19 1.49829e-18 -0.0138191)
(-6.42863e-19 1.32085e-18 -0.0138108)
(-7.6632e-19 1.17407e-18 -0.0138016)
(-3.69154e-19 9.78881e-19 -0.0137914)
(-7.53684e-19 1.92901e-18 -0.0137803)
(-4.07918e-19 9.69029e-19 -0.0137682)
(4.86371e-20 1.61433e-18 -0.0137552)
(-3.16791e-19 9.5753e-19 -0.0137413)
(1.62086e-19 1.2998e-18 -0.0137266)
(6.16375e-20 3.46258e-19 -0.013711)
(-1.39261e-19 8.07383e-19 -0.0136946)
(5.18897e-19 4.57659e-19 -0.0136775)
(9.4327e-19 7.97823e-19 -0.0136596)
(2.58851e-19 3.7601e-19 -0.013641)
(1.66014e-19 7.12586e-19 -0.0136218)
(-3.10467e-19 1.62233e-19 -0.0136019)
(-1.90369e-19 2.94306e-19 -0.0135815)
(-4.40113e-19 1.96396e-19 -0.0135605)
(-6.2874e-19 1.68481e-18 -0.0137868)
(-3.15622e-19 1.8935e-18 -0.0137806)
(-3.96318e-19 1.25888e-18 -0.0137733)
(-6.45926e-19 1.40682e-18 -0.0137651)
(-8.27406e-19 1.14055e-18 -0.0137558)
(-3.21631e-19 8.86853e-19 -0.0137456)
(-7.89429e-19 1.82055e-18 -0.0137344)
(-4.43391e-19 8.27866e-19 -0.0137223)
(1.01134e-19 1.67445e-18 -0.0137093)
(-3.38617e-19 9.06457e-19 -0.0136954)
(2.01626e-19 1.38951e-18 -0.0136806)
(1.0982e-19 5.67818e-19 -0.013665)
(9.83366e-23 1.00762e-18 -0.0136485)
(6.089e-19 4.80517e-19 -0.0136313)
(9.31101e-19 8.18808e-19 -0.0136134)
(1.90546e-20 1.04677e-19 -0.0135948)
(1.11457e-19 6.41128e-19 -0.0135755)
(-1.72734e-19 4.65748e-19 -0.0135556)
(-4.6798e-19 -5.94257e-20 -0.0135351)
(-2.6068e-19 4.17462e-19 -0.0135141)
(-6.22181e-19 1.49207e-18 -0.0137408)
(-3.28142e-19 2.01915e-18 -0.0137346)
(-4.48068e-19 1.35666e-18 -0.0137273)
(-6.67706e-19 1.42314e-18 -0.013719)
(-8.79021e-19 1.05636e-18 -0.0137097)
(-2.67795e-19 7.88523e-19 -0.0136995)
(-8.02291e-19 1.82733e-18 -0.0136883)
(-2.90684e-19 1.10049e-18 -0.0136761)
(1.44472e-19 1.69744e-18 -0.0136631)
(-2.98753e-19 1.06976e-18 -0.0136491)
(1.63672e-19 1.283e-18 -0.0136343)
(1.84819e-19 7.19422e-19 -0.0136186)
(1.57329e-19 1.28781e-18 -0.0136022)
(5.80876e-19 3.95251e-19 -0.0135849)
(8.3545e-19 7.60021e-19 -0.013567)
(-3.9791e-20 8.85122e-20 -0.0135483)
(-1.47996e-20 4.00792e-19 -0.0135289)
(-5.01433e-19 2.14942e-19 -0.013509)
(-5.94167e-19 -2.05506e-19 -0.0134884)
(-2.79574e-19 3.47392e-19 -0.0134673)
(-6.09636e-19 1.51962e-18 -0.0136945)
(-3.42451e-19 1.92433e-18 -0.0136882)
(-4.60507e-19 1.59447e-18 -0.0136809)
(-7.14795e-19 1.47102e-18 -0.0136726)
(-9.35591e-19 1.09647e-18 -0.0136633)
(-1.18684e-19 9.64934e-19 -0.013653)
(-7.09669e-19 1.87221e-18 -0.0136418)
(-1.46024e-20 1.79621e-18 -0.0136296)
(1.3649e-19 1.67869e-18 -0.0136165)
(-2.52408e-19 1.24688e-18 -0.0136025)
(1.40126e-19 1.2251e-18 -0.0135877)
(2.86419e-19 8.60951e-19 -0.013572)
(2.28394e-19 1.46534e-18 -0.0135555)
(5.94155e-19 4.45498e-19 -0.0135382)
(7.47882e-19 6.44867e-19 -0.0135202)
(-9.4095e-20 1.65252e-19 -0.0135015)
(-2.5689e-19 1.72366e-19 -0.0134821)
(-8.34529e-19 -1.54534e-19 -0.0134621)
(-5.46264e-19 -2.36631e-19 -0.0134415)
(-3.74981e-19 2.15012e-19 -0.0134203)
(-6.53776e-19 1.54452e-18 -0.0136479)
(-3.97269e-19 1.61318e-18 -0.0136416)
(-4.75793e-19 1.75012e-18 -0.0136343)
(-8.03511e-19 1.3764e-18 -0.0136259)
(-8.95222e-19 1.22426e-18 -0.0136166)
(8.17038e-20 1.318e-18 -0.0136063)
(-6.48602e-19 1.77534e-18 -0.013595)
(1.15554e-19 2.0649e-18 -0.0135828)
(4.79287e-21 1.54984e-18 -0.0135697)
(-2.46957e-19 1.34091e-18 -0.0135557)
(1.9231e-19 1.30991e-18 -0.0135408)
(3.72173e-19 9.28834e-19 -0.013525)
(2.31688e-19 1.50878e-18 -0.0135085)
(7.24377e-19 7.61496e-19 -0.0134912)
(5.85912e-19 4.83802e-19 -0.0134731)
(-2.91858e-19 4.1116e-21 -0.0134543)
(-2.80784e-19 2.5482e-19 -0.0134349)
(-7.82115e-19 5.07977e-21 -0.0134149)
(-5.65831e-19 -3.42289e-19 -0.0133942)
(-4.52938e-19 5.90098e-20 -0.013373)
(-7.5467e-19 1.42776e-18 -0.0136009)
(-4.24978e-19 1.3199e-18 -0.0135946)
(-5.11234e-19 1.70722e-18 -0.0135873)
(-9.16447e-19 1.16164e-18 -0.0135789)
(-8.37747e-19 1.31437e-18 -0.0135696)
(1.55779e-19 1.37702e-18 -0.0135593)
(-6.84192e-19 1.49196e-18 -0.013548)
(-8.81269e-21 1.72278e-18 -0.0135357)
(-1.74108e-19 1.20824e-18 -0.0135226)
(-1.70208e-19 1.45167e-18 -0.0135085)
(2.02903e-19 1.3147e-18 -0.0134936)
(3.09025e-19 7.64811e-19 -0.0134778)
(1.07043e-19 1.23336e-18 -0.0134612)
(8.72825e-19 1.14264e-18 -0.0134438)
(4.49047e-19 4.9108e-19 -0.0134257)
(-4.27026e-19 -1.3183e-19 -0.0134069)
(-2.56862e-19 2.87287e-19 -0.0133874)
(-6.28978e-19 3.40219e-19 -0.0133673)
(-5.30354e-19 -2.97781e-19 -0.0133467)
(-4.7871e-19 -5.32523e-20 -0.0133254)
(-8.73598e-19 1.194e-18 -0.0135537)
(-4.28434e-19 1.20715e-18 -0.0135474)
(-6.245e-19 1.35986e-18 -0.01354)
(-1.03861e-18 8.12196e-19 -0.0135316)
(-7.30851e-19 1.46316e-18 -0.0135223)
(1.85654e-19 1.40519e-18 -0.0135119)
(-7.55181e-19 1.25224e-18 -0.0135006)
(-3.30245e-20 1.63097e-18 -0.0134883)
(-2.38024e-19 1.005e-18 -0.0134751)
(-5.14075e-20 1.61464e-18 -0.013461)
(1.05151e-19 1.2035e-18 -0.013446)
(1.77631e-19 5.23779e-19 -0.0134302)
(1.41831e-19 1.12173e-18 -0.0134136)
(8.33894e-19 1.08041e-18 -0.0133962)
(3.28142e-19 6.00706e-19 -0.013378)
(-4.56028e-19 -7.04888e-20 -0.0133592)
(-3.35076e-19 1.24055e-19 -0.0133397)
(-6.99951e-19 3.30894e-19 -0.0133195)
(-4.46327e-19 -1.43421e-19 -0.0132988)
(-3.66677e-19 8.38842e-20 -0.0132775)
(-9.54968e-19 1.11195e-18 -0.0135061)
(-4.23062e-19 1.20962e-18 -0.0134998)
(-7.17047e-19 1.28365e-18 -0.0134924)
(-1.04255e-18 6.35837e-19 -0.013484)
(-5.42083e-19 1.74934e-18 -0.0134746)
(2.19668e-19 1.58942e-18 -0.0134642)
(-7.23675e-19 1.24546e-18 -0.0134529)
(8.60906e-20 1.93636e-18 -0.0134406)
(-1.80994e-19 1.11186e-18 -0.0134273)
(8.03578e-20 1.812e-18 -0.0134132)
(-9.38751e-21 1.13447e-18 -0.0133982)
(2.39827e-19 5.8403e-19 -0.0133823)
(3.67997e-19 1.4249e-18 -0.0133657)
(7.3895e-19 9.97812e-19 -0.0133482)
(1.93924e-19 5.81252e-19 -0.01333)
(-4.89909e-19 1.40037e-20 -0.0133111)
(-4.18064e-19 2.7829e-20 -0.0132916)
(-8.60903e-19 1.42108e-19 -0.0132714)
(-4.06375e-19 -1.55626e-19 -0.0132506)
(-3.17209e-19 1.88639e-19 -0.0132293)
(-9.89304e-19 1.11737e-18 -0.0134582)
(-4.11131e-19 1.18677e-18 -0.0134518)
(-7.46438e-19 1.48982e-18 -0.0134444)
(-1.01401e-18 5.78918e-19 -0.013436)
(-3.77039e-19 1.8579e-18 -0.0134266)
(1.90824e-19 1.62077e-18 -0.0134162)
(-6.91454e-19 1.23907e-18 -0.0134048)
(1.91087e-19 2.1421e-18 -0.0133925)
(-1.64891e-19 1.14981e-18 -0.0133792)
(8.4812e-20 1.80717e-18 -0.0133651)
(-8.65154e-20 1.12774e-18 -0.01335)
(3.60665e-19 6.56528e-19 -0.0133341)
(3.80461e-19 1.34974e-18 -0.0133174)
(7.79571e-19 1.23026e-18 -0.0132999)
(5.42352e-20 6.07717e-19 -0.0132817)
(-5.16341e-19 9.31764e-20 -0.0132627)
(-3.54595e-19 1.54282e-19 -0.0132431)
(-8.86721e-19 1.5259e-19 -0.0132229)
(-3.69973e-19 -1.62116e-19 -0.0132021)
(-4.41081e-19 2.51722e-20 -0.0131807)
(-1.00256e-18 1.09669e-18 -0.01341)
(-3.49235e-19 1.30361e-18 -0.0134036)
(-8.23296e-19 1.52251e-18 -0.0133962)
(-9.62829e-19 6.5265e-19 -0.0133878)
(-2.48172e-19 1.86574e-18 -0.0133783)
(1.12868e-19 1.52097e-18 -0.0133679)
(-6.6396e-19 1.11459e-18 -0.0133565)
(1.74391e-19 2.06114e-18 -0.0133441)
(-2.86987e-19 9.15733e-19 -0.0133308)
(8.52055e-21 1.55946e-18 -0.0133166)
(-1.44863e-19 1.12534e-18 -0.0133015)
(3.63381e-19 6.02679e-19 -0.0132856)
(3.30656e-19 1.11012e-18 -0.0132689)
(8.73505e-19 1.47306e-18 -0.0132513)
(-2.39691e-20 7.39399e-19 -0.013233)
(-4.33886e-19 2.98021e-19 -0.013214)
(-2.58623e-19 3.27799e-19 -0.0131944)
(-7.14678e-19 4.45769e-19 -0.0131741)
(-3.69843e-19 -1.77738e-19 -0.0131533)
(-4.46479e-19 2.48084e-21 -0.0131319)
(-9.55913e-19 1.13126e-18 -0.0133614)
(-3.05222e-19 1.4048e-18 -0.013355)
(-8.98696e-19 1.56459e-18 -0.0133476)
(-8.96746e-19 7.21597e-19 -0.0133391)
(-1.4621e-19 1.86449e-18 -0.0133297)
(1.32013e-20 1.40511e-18 -0.0133192)
(-6.88219e-19 9.21855e-19 -0.0133078)
(8.50994e-20 1.81771e-18 -0.0132954)
(-4.06076e-19 6.96879e-19 -0.0132821)
(-1.25902e-20 1.38944e-18 -0.0132678)
(-1.69502e-19 1.14497e-18 -0.0132527)
(4.31675e-19 6.49534e-19 -0.0132367)
(3.22572e-19 8.93361e-19 -0.01322)
(8.97079e-19 1.57357e-18 -0.0132024)
(-1.54672e-20 1.02126e-18 -0.013184)
(-4.2278e-19 3.99543e-19 -0.013165)
(-1.8325e-19 4.34661e-19 -0.0131453)
(-6.63437e-19 6.15044e-19 -0.013125)
(-2.84922e-19 -2.99989e-20 -0.0131041)
(-3.55643e-19 6.29057e-20 -0.0130826)
(-9.00872e-19 1.09655e-18 -0.0133125)
(-2.98239e-19 1.22863e-18 -0.0133061)
(-9.73833e-19 1.62933e-18 -0.0132986)
(-8.50846e-19 7.69145e-19 -0.0132902)
(-8.1393e-20 1.77775e-18 -0.0132807)
(-9.29195e-20 1.33493e-18 -0.0132702)
(-6.20179e-19 9.76428e-19 -0.0132587)
(4.03595e-20 1.6897e-18 -0.0132463)
(-4.75279e-19 5.52217e-19 -0.013233)
(2.21842e-20 1.28412e-18 -0.0132187)
(-2.16716e-20 1.48484e-18 -0.0132035)
(4.77952e-19 7.52443e-19 -0.0131875)
(2.18964e-19 5.48244e-19 -0.0131707)
(7.37644e-19 1.23996e-18 -0.0131531)
(-1.10522e-19 1.12985e-18 -0.0131347)
(-5.57295e-19 3.11313e-19 -0.0131156)
(-1.37538e-19 5.14166e-19 -0.0130959)
(-7.37586e-19 5.69995e-19 -0.0130755)
(-1.11245e-19 1.91769e-19 -0.0130546)
(-3.20317e-19 1.34704e-19 -0.0130331)
(-8.51918e-19 1.12061e-18 -0.0132632)
(-2.9254e-19 1.04071e-18 -0.0132568)
(-1.03497e-18 1.5535e-18 -0.0132494)
(-7.07609e-19 1.22702e-18 -0.0132409)
(-7.59936e-20 1.52463e-18 -0.0132314)
(-6.60433e-20 1.55099e-18 -0.0132208)
(-5.39288e-19 1.10675e-18 -0.0132094)