/*--------------------------------*- C++ -*----------------------------------*\
  =========                 |
  \\      /  F ield         | OpenFOAM: The Open Source CFD Toolbox
   \\    /   O peration     | Website:  https://openfoam.org
    \\  /    A nd           | Version:  7
     \\/     M anipulation  |
\*---------------------------------------------------------------------------*/
FoamFile
{
    version     2.0;
    format      ascii;
    class       volVectorField;
    location    "256000";
    object      vorticity;
}
// * * * * * * * * * * * * * * * * * * * * * * * * * * * * * * * * * * * * * //

dimensions      [0 0 -1 0 0 0 0];

internalField   nonuniform List<vector> 
4850
(
(0.00598648 0.0040582 6.57106e-18)
(0.00513437 0.00472454 1.6192e-17)
(0.00615609 0.00423087 6.81415e-18)
(0.00531363 0.0048877 1.53227e-17)
(0.00535386 0.00465879 1.25475e-17)
(0.00632536 0.00440369 1.25747e-17)
(0.00549275 0.00505071 1.58987e-17)
(0.00553807 0.00481644 1.27268e-17)
(0.00557735 0.00458581 1.13615e-17)
(0.00561308 0.00435643 1.07344e-17)
(0.00649446 0.00457674 1.89292e-17)
(0.00567184 0.00521369 1.70506e-17)
(0.00572222 0.00497399 1.36523e-17)
(0.00576649 0.00473768 1.12414e-17)
(0.00580704 0.00450248 1.02361e-17)
(0.00584402 0.00426853 8.2929e-18)
(0.00666355 0.00475009 2.01589e-17)
(0.00585103 0.00537674 1.81601e-17)
(0.00590641 0.00513154 1.40315e-17)
(0.00595563 0.0048895 1.0739e-17)
(0.00600096 0.00464843 1.022e-17)
(0.00604254 0.00440846 6.59472e-18)
(0.00608053 0.00416973 4.98151e-18)
(0.00683277 0.00492383 1.90325e-17)
(0.00603044 0.00553998 1.79835e-17)
(0.00609079 0.00528921 1.40614e-17)
(0.0061449 0.00504137 1.19982e-17)
(0.00619495 0.00479437 1.06943e-17)
(0.00624109 0.00454834 5.3582e-18)
(0.00628345 0.00430342 3.37706e-18)
(0.0063222 0.00405969 6.30869e-18)
(0.00635748 0.00381725 8.77101e-18)
(0.00700226 0.00509803 1.82662e-17)
(0.00621018 0.00570351 1.55621e-17)
(0.00627547 0.0054471 1.37207e-17)
(0.00633442 0.0051934 1.23482e-17)
(0.00638916 0.00494041 9.2504e-18)
(0.0064398 0.00468827 4.12925e-18)
(0.0064865 0.0044371 3.19533e-18)
(0.00652939 0.00418701 7.07334e-18)
(0.00656864 0.00393808 9.8699e-18)
(0.0066044 0.00369039 9.28856e-18)
(0.00717215 0.00527278 1.56013e-17)
(0.00639037 0.00586744 1.19615e-17)
(0.00646056 0.00560531 1.2862e-17)
(0.00652433 0.00534569 1.18143e-17)
(0.0065837 0.00508665 7.78195e-18)
(0.00663881 0.00482834 3.69148e-18)
(0.00668978 0.00457088 4.34742e-18)
(0.00673678 0.00431437 8.55438e-18)
(0.00677994 0.00405892 1.06378e-17)
(0.00681943 0.00380458 8.92981e-18)
(0.00685541 0.00355142 7.79433e-18)
(0.00688804 0.00329948 6.24907e-18)
(0.00691749 0.00304877 3.98379e-18)
(0.00694392 0.0027993 6.16462e-18)
(0.00734257 0.00544816 1.23744e-17)
(0.00657112 0.00603187 9.69886e-18)
(0.00664619 0.00576395 1.18525e-17)
(0.00671473 0.00549834 1.11421e-17)
(0.0067787 0.00523319 7.10882e-18)
(0.00683823 0.00496865 4.04846e-18)
(0.00689345 0.00470484 5.58396e-18)
(0.0069445 0.00444188 9.5403e-18)
(0.00699154 0.00417985 1.0969e-17)
(0.00703471 0.00391883 9.14324e-18)
(0.00707417 0.00365888 7.62744e-18)
(0.00711009 0.00340004 6.35748e-18)
(0.00714261 0.00314234 4.86642e-18)
(0.00717191 0.00288578 6.7299e-18)
(0.00719813 0.00263034 8.90071e-18)
(0.00722142 0.00237601 9.11524e-18)
(0.00724192 0.00212273 9.9901e-18)
(0.00725978 0.00187043 5.96843e-18)
(0.00751364 0.00562426 8.81383e-18)
(0.00675254 0.0061969 9.65552e-18)
(0.00683246 0.00592312 1.16718e-17)
(0.00690574 0.00565144 1.03875e-17)
(0.00697428 0.00538012 6.27669e-18)
(0.0070382 0.00510929 4.42758e-18)
(0.00709762 0.00483908 6.48905e-18)
(0.0071527 0.0045696 9.67244e-18)
(0.00720356 0.00430095 1.08743e-17)
(0.00725037 0.00403321 9.82197e-18)
(0.00729328 0.00376643 8.17693e-18)
(0.00733243 0.00350067 6.3496e-18)
(0.007368 0.00323594 5.12846e-18)
(0.00740012 0.00297227 6.57221e-18)
(0.00742895 0.00270963 8.371e-18)
(0.00745464 0.00244801 8.83998e-18)
(0.00747731 0.00218737 9.69033e-18)
(0.00749711 0.00192765 7.59678e-18)
(0.00751416 0.00166877 1.90963e-18)
(0.00752855 0.00141066 1.85906e-18)
(0.00768548 0.00580116 6.53036e-18)
(0.00693473 0.00636262 9.04082e-18)
(0.00701948 0.0060829 1.07113e-17)
(0.00709748 0.0058051 9.65939e-18)
(0.00717056 0.00552753 6.33656e-18)
(0.00723883 0.00525035 5.18909e-18)
(0.00730243 0.00497368 7.32256e-18)
(0.00736148 0.00469764 9.28658e-18)
(0.00741614 0.00442232 1.06913e-17)
(0.00746655 0.00414781 1.01324e-17)
(0.00751286 0.00387416 8.72762e-18)
(0.00755522 0.00360143 5.85654e-18)
(0.00759379 0.00332965 4.7585e-18)
(0.0076287 0.00305883 5.92929e-18)
(0.00766011 0.00278897 7.85817e-18)
(0.00768816 0.00252005 8.98784e-18)
(0.00771297 0.00225203 9.7161e-18)
(0.00773469 0.00198486 9.28398e-18)
(0.00775341 0.00171849 3.00828e-18)
(0.00776926 0.00145283 1.45909e-18)
(0.00778231 0.00118779 2.37761e-18)
(0.00779266 0.000923272 -5.62064e-19)
(0.00780036 0.000659175 -8.4544e-19)
(0.00780547 0.000395381 -4.33659e-18)
(0.00785821 0.00597894 6.05377e-18)
(0.0071178 0.00652915 7.67137e-18)
(0.00720736 0.00624341 1.02834e-17)
(0.00729006 0.0059594 9.3765e-18)
(0.00736765 0.00567552 6.33459e-18)
(0.00744025 0.00539192 6.24047e-18)
(0.00750798 0.00510873 7.55461e-18)
(0.00757099 0.00482607 7.98234e-18)
(0.00762941 0.00454403 1.00261e-17)
(0.00768339 0.00426269 1.03305e-17)
(0.00773307 0.00398214 9.1922e-18)
(0.0077786 0.0037024 5.63359e-18)
(0.00782013 0.00342353 4.66763e-18)
(0.0078578 0.00314554 5.21355e-18)
(0.00789175 0.00286842 6.76074e-18)
(0.00792213 0.00259217 8.71599e-18)
(0.00794906 0.00231676 9.84987e-18)
(0.00797266 0.00204213 1.05288e-17)
(0.00799305 0.00176824 3.37662e-18)
(0.00801032 0.00149501 9.92305e-19)
(0.00802457 0.00122236 2.66636e-18)
(0.00803588 0.000950204 3.33654e-19)
(0.00804431 0.000678433 1.05198e-18)
(0.00804989 0.000406944 -2.85946e-18)
(0.00805268 0.000135627 -4.70545e-18)
(0.00805268 -0.000135633 1.20878e-17)
(0.00804989 -0.00040695 2.30821e-17)
(0.00804431 -0.000678438 1.29932e-17)
(0.00803588 -0.000950209 8.21552e-18)
(0.00803194 0.0061577 7.57621e-18)
(0.00730186 0.00669656 5.81111e-18)
(0.00739622 0.00640472 9.60527e-18)
(0.0074836 0.00611444 8.76857e-18)
(0.00756567 0.00582418 5.95076e-18)
(0.00764257 0.00553409 6.97404e-18)
(0.00771442 0.00524432 7.54839e-18)
(0.00778135 0.00495497 7.07476e-18)
(0.0078435 0.00466615 9.80122e-18)
(0.00790101 0.00437795 1.05475e-17)
(0.00795403 0.00409043 9.17489e-18)
(0.0080027 0.00380365 5.55867e-18)
(0.00804716 0.00351765 4.82132e-18)
(0.00808756 0.00323244 4.28373e-18)
(0.00812403 0.00294804 5.39014e-18)
(0.00815671 0.00266444 8.55308e-18)
(0.00818572 0.0023816 9.90174e-18)
(0.00821119 0.0020995 1.03688e-17)
(0.00823321 0.00181807 2.75511e-18)
(0.0082519 0.00153726 5.04342e-19)
(0.00826733 0.00125699 2.89461e-18)
(0.00827958 0.000977167 1.19089e-18)
(0.00828872 0.000697712 2.22137e-18)
(0.00829478 0.000418519 -2.07231e-18)
(0.00829781 0.000139487 -4.50203e-18)
(0.00829781 -0.000139492 1.22035e-17)
(0.00829478 -0.000418525 2.33377e-17)
(0.00828872 -0.000697717 1.34285e-17)
(0.00827958 -0.000977172 8.94852e-18)
(0.00826733 -0.00125699 1.48341e-17)
(0.00825189 -0.00153726 1.428e-17)
(0.00823321 -0.00181807 1.12573e-17)
(0.00820678 0.00633751 9.57345e-18)
(0.00748701 0.00686497 5.44114e-18)
(0.00758616 0.00656694 9.38383e-18)
(0.00767819 0.0062703 8.22062e-18)
(0.00776473 0.00597359 5.4368e-18)
(0.00784591 0.00567695 7.39036e-18)
(0.00792185 0.00538052 7.70106e-18)
(0.00799267 0.00508443 7.03335e-18)
(0.00805853 0.00478877 1.00673e-17)
(0.00811955 0.00449364 1.05545e-17)
(0.00817588 0.00419911 8.89335e-18)
(0.00822766 0.00390523 5.31503e-18)
(0.00827502 0.00361206 4.57721e-18)
(0.00831812 0.0033196 3.59236e-18)
(0.00835708 0.00302788 3.99653e-18)
(0.00839204 0.00273689 8.02817e-18)
(0.00842311 0.0024466 9.61546e-18)
(0.00845041 0.00215699 9.10719e-18)
(0.00847406 0.001868 2.56592e-18)
(0.00849413 0.00157959 8.72516e-19)
(0.00851073 0.00129167 2.64574e-18)
(0.00852392 0.00100418 1.8727e-18)
(0.00853376 0.000717026 2.9598e-18)
(0.00854029 0.000430115 -1.63094e-18)
(0.00854355 0.000143353 -3.43896e-18)
(0.00854355 -0.000143359 1.26808e-17)
(0.00854029 -0.00043012 2.24527e-17)
(0.00853376 -0.000717031 1.3307e-17)
(0.00852392 -0.00100419 1.00695e-17)
(0.00851073 -0.00129168 1.58642e-17)
(0.00849413 -0.00157959 1.65763e-17)
(0.00847405 -0.00186801 1.48996e-17)
(0.00845041 -0.00215699 2.66057e-17)
(0.00842311 -0.0024466 4.02452e-17)
(0.00838284 0.00651848 1.03285e-17)
(0.00767335 0.00703445 6.64118e-18)
(0.00777728 0.00673016 8.61218e-18)
(0.00787395 0.00642709 7.35997e-18)
(0.00796495 0.00612384 6.0737e-18)
(0.00805039 0.00582058 8.55495e-18)
(0.00813039 0.00551743 8.20708e-18)
(0.00820509 0.00521452 7.54953e-18)
(0.00827463 0.00491196 1.02738e-17)
(0.00833913 0.00460985 1.00659e-17)
(0.00839874 0.00430825 8.56387e-18)
(0.00845361 0.00400722 5.16542e-18)
(0.00850385 0.00370682 4.36108e-18)
(0.00854963 0.00340708 3.78675e-18)
(0.00859105 0.00310799 3.1338e-18)
(0.00862826 0.00280957 6.97418e-18)
(0.00866137 0.0025118 8.67022e-18)
(0.00869049 0.00221465 7.7124e-18)
(0.00871574 0.00191808 2.75771e-18)
(0.00873719 0.00162204 1.19446e-18)
(0.00875494 0.00132645 2.0898e-18)
(0.00876905 0.00103127 2.34956e-18)
(0.00877958 0.000736389 3.36932e-18)
(0.00878658 0.00044174 -1.4148e-18)
(0.00879007 0.000147229 -2.65211e-18)
(0.00879007 -0.000147235 1.28282e-17)
(0.00878658 -0.000441745 2.09067e-17)
(0.00877958 -0.000736394 1.26836e-17)
(0.00876905 -0.00103127 1.14659e-17)
(0.00875493 -0.00132646 1.70089e-17)
(0.00873719 -0.00162204 1.77518e-17)
(0.00871573 -0.00191808 1.83659e-17)
(0.00869049 -0.00221466 3.58218e-17)
(0.00866136 -0.00251181 6.40775e-17)
(0.00856022 0.00670067 9.27189e-18)
(0.00786098 0.00720511 8.06863e-18)
(0.00796969 0.00689446 7.75763e-18)
(0.008071 0.00658488 7.17533e-18)
(0.00816644 0.00627503 7.12623e-18)
(0.00825612 0.00596506 9.09373e-18)
(0.00834017 0.00565511 8.84392e-18)
(0.00841873 0.00534533 8.28621e-18)
(0.00849192 0.0050358 1.03467e-17)
(0.00855989 0.00472664 9.19714e-18)
(0.00862276 0.00441791 7.77608e-18)
(0.00868068 0.00410968 5.05402e-18)
(0.00873379 0.00380201 4.49247e-18)
(0.00878221 0.00349492 4.60832e-18)
(0.00882608 0.00318843 2.88798e-18)
(0.00886552 0.00288254 5.93363e-18)
(0.00890065 0.00257725 7.78624e-18)
(0.00893157 0.00227252 6.67916e-18)
(0.00895839 0.00196833 2.6069e-18)
(0.00898121 0.00166463 1.44498e-18)
(0.00900009 0.00136135 2.46053e-18)
(0.00901512 0.00105844 2.16702e-18)
(0.00902634 0.000755814 3.04217e-18)
(0.00903379 0.000453401 -1.12655e-18)
(0.00903751 0.000151118 -2.12689e-18)
(0.00903751 -0.000151123 1.24742e-17)
(0.00903379 -0.000453406 1.85931e-17)
(0.00902633 -0.000755818 1.15774e-17)
(0.00901512 -0.00105844 1.29465e-17)
(0.00900009 -0.00136135 1.81537e-17)
(0.00898121 -0.00166463 1.80729e-17)
(0.00895839 -0.00196834 2.0392e-17)
(0.00893157 -0.00227253 4.30742e-17)
(0.00890064 -0.00257725 8.58658e-17)
(0.00873904 0.00688419 8.23071e-18)
(0.00805002 0.00737704 9.21805e-18)
(0.00816349 0.00705994 7.39471e-18)
(0.00826943 0.00674377 7.40077e-18)
(0.0083693 0.00642722 8.30474e-18)
(0.00846321 0.00611047 9.28399e-18)
(0.0085513 0.00579366 9.29967e-18)
(0.0086337 0.00547692 8.66891e-18)
(0.00871053 0.00516036 1.02635e-17)
(0.00878194 0.00484408 8.37342e-18)
(0.00884805 0.00452817 6.9773e-18)
(0.00890902 0.00421268 5.43387e-18)
(0.00896496 0.00389768 4.8465e-18)
(0.00901601 0.00358319 5.40086e-18)
(0.0090623 0.00326924 3.06109e-18)
(0.00910395 0.00295584 5.14492e-18)
(0.00914108 0.00264298 7.53831e-18)
(0.00917379 0.00233064 6.69964e-18)
(0.00920218 0.00201879 1.46486e-18)
(0.00922634 0.00170739 4.12805e-19)
(0.00924635 0.00139639 2.78854e-18)
(0.00926228 0.00108572 2.17282e-18)
(0.00927418 0.000775313 2.96396e-18)
(0.00928209 0.000465108 -1.0252e-18)
(0.00928603 0.000155021 -1.35118e-18)
(0.00928603 -0.000155026 1.16132e-17)
(0.00928208 -0.000465112 1.61564e-17)
(0.00927418 -0.000775318 1.08577e-17)
(0.00926228 -0.00108572 1.39654e-17)
(0.00924635 -0.00139639 1.82539e-17)
(0.00922634 -0.0017074 1.80015e-17)
(0.00920218 -0.0020188 2.31078e-17)
(0.00917378 -0.00233065 5.61868e-17)
(0.00914107 -0.00264298 1.18922e-16)
(0.00891939 0.00706912 8.26211e-18)
(0.00824055 0.00755033 1.06221e-17)
(0.0083588 0.0072267 7.11221e-18)
(0.00846936 0.00690384 7.9626e-18)
(0.00857365 0.00658052 9.28124e-18)
(0.00867179 0.00625691 9.22432e-18)
(0.0087639 0.00593315 9.81956e-18)
(0.00885012 0.00560938 8.59396e-18)
(0.00893058 0.00528571 1.03583e-17)
(0.00900541 0.00496225 7.98461e-18)
(0.00907475 0.00463908 6.2655e-18)
(0.00913874 0.00431627 5.90956e-18)
(0.0091975 0.00399388 4.86266e-18)
(0.00925117 0.00367194 5.72902e-18)
(0.00929986 0.00335049 3.41842e-18)
(0.00934371 0.00302952 4.37781e-18)
(0.00938282 0.00270905 7.27874e-18)
(0.00941729 0.00238905 6.0581e-18)
(0.00944724 0.0020695 -3.59698e-19)
(0.00947274 0.00175036 2.68174e-19)
(0.00949386 0.00143158 4.16426e-18)
(0.00951068 0.00111312 1.88474e-18)
(0.00952325 0.000794901 1.55589e-18)
(0.00953161 0.000476866 -1.3345e-18)
(0.00953578 0.000158942 -4.37256e-19)
(0.00953578 -0.000158946 1.01966e-17)
(0.00953161 -0.00047687 1.43043e-17)
(0.00952325 -0.000794905 1.13363e-17)
(0.00951068 -0.00111312 1.47517e-17)
(0.00949386 -0.00143159 1.74473e-17)
(0.00947273 -0.00175036 1.68464e-17)
(0.00944723 -0.0020695 2.26334e-17)
(0.00941729 -0.00238905 4.38494e-17)
(0.00938281 -0.00270905 9.26924e-17)
(0.00910139 0.00725556 8.71495e-18)
(0.00843268 0.00772507 1.18115e-17)
(0.00855571 0.00739482 7.52758e-18)
(0.00867089 0.00706519 9.00179e-18)
(0.0087796 0.00673501 9.56896e-18)
(0.00888195 0.00640445 9.43974e-18)
(0.00897808 0.00607366 9.87934e-18)
(0.00906812 0.00574278 8.02114e-18)
(0.00915219 0.00541193 1.0655e-17)
(0.00923044 0.00508122 6.90719e-18)
(0.00930299 0.00475072 5.48214e-18)
(0.00936998 0.00442052 7.06496e-18)
(0.00943154 0.00409068 4.79247e-18)
(0.00948781 0.00376123 5.74032e-18)
(0.00953889 0.0034322 3.33587e-18)
(0.00958492 0.00310362 3.68149e-18)
(0.00962599 0.00277548 6.617e-18)
(0.00966223 0.00244777 4.56789e-18)
(0.00969371 0.00212047 -1.49674e-18)
(0.00972053 0.00179355 9.69979e-19)
(0.00974277 0.00146696 5.18263e-18)
(0.00976047 0.00114066 1.54825e-18)
(0.00977371 0.000814588 -2.21955e-20)
(0.00978251 0.000488684 -1.64257e-18)
(0.0097869 0.000162882 7.82929e-19)
(0.0097869 -0.000162886 9.04761e-18)
(0.00978251 -0.000488688 1.28191e-17)
(0.00977371 -0.000814592 1.18219e-17)
(0.00976047 -0.00114066 1.48363e-17)
(0.00974276 -0.00146696 1.64103e-17)
(0.00972053 -0.00179355 1.59249e-17)
(0.00969371 -0.00212047 2.24645e-17)
(0.00966222 -0.00244777 3.74002e-17)
(0.00962599 -0.00277548 7.36974e-17)
(0.00928513 0.0074436 8.87117e-18)
(0.00862652 0.00790137 1.21699e-17)
(0.00875433 0.00756439 8.44319e-18)
(0.00887413 0.0072279 9.63464e-18)
(0.00898726 0.00689077 9.38937e-18)
(0.00909383 0.00655318 9.53669e-18)
(0.00919397 0.00621528 9.38172e-18)
(0.00928781 0.00587721 7.61439e-18)
(0.00937548 0.00553909 1.03703e-17)
(0.00945713 0.00520105 5.56052e-18)
(0.00953288 0.00486315 6.03404e-18)
(0.00960287 0.00452549 8.53299e-18)
(0.00966722 0.00418813 3.93448e-18)
(0.00972607 0.0038511 5.22157e-18)
(0.00977953 0.00351445 3.30572e-18)
(0.00982772 0.00317819 3.35107e-18)
(0.00987075 0.00284232 5.75291e-18)
(0.00990873 0.00250685 3.29057e-18)
(0.00994174 0.00217175 -2.04234e-18)
(0.00996988 0.00183699 1.20957e-18)
(0.00999321 0.00150255 5.9812e-18)
(0.0100118 0.00116836 1.89736e-18)
(0.0100257 0.000834388 -9.11214e-19)
(0.0100349 0.000500569 -1.95006e-18)
(0.0100395 0.000166845 1.19032e-18)
(0.0100395 -0.000166848 8.54399e-18)
(0.0100349 -0.000500573 1.17849e-17)
(0.0100257 -0.000834392 1.12345e-17)
(0.0100118 -0.00116837 1.43372e-17)
(0.00999321 -0.00150255 1.55229e-17)
(0.00996988 -0.001837 1.48587e-17)
(0.00994174 -0.00217175 2.14552e-17)
(0.00990872 -0.00250685 3.13424e-17)
(0.00987075 -0.00284232 5.27266e-17)
(0.00947072 0.00763332 8.52247e-18)
(0.00882217 0.00807931 1.20591e-17)
(0.00895477 0.00773551 9.57952e-18)
(0.0090792 0.00739206 9.65954e-18)
(0.00919674 0.00704789 9.27542e-18)
(0.00930752 0.00670317 9.55099e-18)
(0.00941167 0.00635807 8.63575e-18)
(0.00950931 0.00601272 6.79323e-18)
(0.00960059 0.00566727 9.72625e-18)
(0.00968563 0.00532181 4.61812e-18)
(0.00976456 0.00497644 7.16013e-18)
(0.00983753 0.00463125 9.56217e-18)
(0.00990466 0.00428629 3.40497e-18)
(0.00996608 0.00394162 4.92787e-18)
(0.0100219 0.00359727 3.10358e-18)
(0.0100723 0.00325327 2.37492e-18)
(0.0101172 0.00290962 4.36917e-18)
(0.0101569 0.00256632 2.49175e-18)
(0.0101915 0.00222337 -1.53324e-18)
(0.0102209 0.00188072 1.56885e-18)
(0.0102453 0.00153836 6.22161e-18)
(0.0102648 0.00119624 1.97603e-18)
(0.0102794 0.000854313 -1.44589e-18)
(0.010289 0.000512529 -1.94703e-18)
(0.0102939 0.000170832 1.51729e-18)
(0.0102939 -0.000170836 8.45878e-18)
(0.010289 -0.000512533 1.13391e-17)
(0.0102793 -0.000854316 1.06762e-17)
(0.0102648 -0.00119624 1.32897e-17)
(0.0102453 -0.00153836 1.43849e-17)
(0.0102209 -0.00188072 1.37796e-17)
(0.0101915 -0.00222337 1.96377e-17)
(0.0101569 -0.00256632 2.64919e-17)
(0.0101172 -0.00290962 3.85142e-17)
(0.00965827 0.00782484 8.48113e-18)
(0.00901972 0.008259 1.21366e-17)
(0.00915714 0.00790827 1.01782e-17)
(0.0092862 0.00755776 8.85087e-18)
(0.00940816 0.00720645 9.1199e-18)
(0.00952316 0.00685451 9.52433e-18)
(0.00963131 0.00650212 8.33861e-18)
(0.00973275 0.00614941 6.32705e-18)
(0.00982762 0.00579653 8.79866e-18)
(0.00991604 0.00544357 4.63358e-18)
(0.00999816 0.00509065 8.03377e-18)
(0.0100741 0.00473784 9.46242e-18)
(0.010144 0.00438522 3.58586e-18)
(0.010208 0.00403283 5.3554e-18)
(0.0102662 0.00368072 2.76818e-18)
(0.0103187 0.0033289 1.10441e-18)
(0.0103656 0.00297741 2.9583e-18)
(0.010407 0.00262623 1.9801e-18)
(0.0104431 0.00227535 -8.37736e-19)
(0.0104738 0.00192476 1.87355e-18)
(0.0104993 0.00157442 6.64611e-18)
(0.0105196 0.00122431 2.23452e-18)
(0.0105348 0.000874375 -1.86709e-18)
(0.0105449 0.000524571 -2.10312e-18)
(0.01055 0.000174847 1.56635e-18)
(0.01055 -0.00017485 8.55817e-18)
(0.0105449 -0.000524574 1.08919e-17)
(0.0105348 -0.000874378 9.77631e-18)
(0.0105196 -0.00122431 1.24119e-17)
(0.0104993 -0.00157443 1.37959e-17)
(0.0104738 -0.00192476 1.25773e-17)
(0.010443 -0.00227535 1.72837e-17)
(0.010407 -0.00262623 2.30546e-17)
(0.0103656 -0.00297741 2.99705e-17)
(0.00984787 0.00801823 7.53533e-18)
(0.0092193 0.00844051 1.19007e-17)
(0.00936153 0.00808275 1.00942e-17)
(0.00949524 0.00772509 8.38995e-18)
(0.00962163 0.00736654 9.37705e-18)
(0.00974084 0.00700729 9.61209e-18)
(0.009853 0.00664751 8.38335e-18)
(0.00995824 0.00628735 5.89749e-18)
(0.0100567 0.00592694 7.64717e-18)
(0.0101485 0.0055664 5.80195e-18)
(0.0102338 0.00520584 8.3811e-18)
(0.0103127 0.00484534 8.5117e-18)
(0.0103854 0.00448497 4.23956e-18)
(0.0104519 0.00412479 5.84186e-18)
(0.0105124 0.00376484 2.3434e-18)
(0.0105671 0.00340514 2.26546e-19)
(0.0106159 0.00304573 1.6635e-18)
(0.0106591 0.00268659 2.04372e-18)
(0.0106966 0.00232773 -1.22848e-19)
(0.0107286 0.00196913 1.82242e-18)
(0.0107552 0.00161076 6.87677e-18)
(0.0107764 0.00125259 2.25694e-18)
(0.0107923 0.000894585 -2.04986e-18)
(0.0108028 0.000536701 -2.07227e-18)
(0.0108081 0.000178891 1.32952e-18)
(0.0108081 -0.000178894 8.37667e-18)
(0.0108028 -0.000536704 1.01108e-17)
(0.0107923 -0.000894588 9.05903e-18)
(0.0107764 -0.00125259 1.19045e-17)
(0.0107552 -0.00161076 1.31866e-17)
(0.0107286 -0.00196913 1.16772e-17)
(0.0106966 -0.00232773 1.57376e-17)
(0.0106591 -0.00268659 2.04613e-17)
(0.0106159 -0.00304572 2.38362e-17)
(0.0105671 -0.00340514 2.84596e-18)
(0.0100396 0.0082136 5.19376e-18)
(0.009421 0.00862396 1.10828e-17)
(0.00956807 0.00825907 1.01031e-17)
(0.00970643 0.00789414 8.12017e-18)
(0.00983727 0.00752825 9.86755e-18)
(0.0099607 0.00716158 9.708e-18)
(0.0100769 0.00679432 8.30455e-18)
(0.0101859 0.00642661 5.56715e-18)
(0.010288 0.00605859 7.1226e-18)
(0.0103831 0.00569038 6.94264e-18)
(0.0104716 0.00532209 7.50689e-18)
(0.0105535 0.0049538 7.6319e-18)
(0.0106289 0.0045856 5.28612e-18)
(0.010698 0.00421755 5.71887e-18)
(0.0107609 0.00384968 1.81573e-18)
(0.0108176 0.00348203 -2.30988e-19)
(0.0108684 0.00311462 9.59191e-19)
(0.0109133 0.00274746 2.31919e-18)
(0.0109523 0.00238054 -5.24362e-20)
(0.0109856 0.00201385 1.91227e-18)
(0.0110133 0.00164738 6.97427e-18)
(0.0110353 0.0012811 2.00801e-18)
(0.0110518 0.000914957 -1.6673e-18)
(0.0110628 0.000548928 -9.32331e-19)
(0.0110683 0.000182968 1.31206e-18)
(0.0110683 -0.00018297 6.9978e-18)
(0.0110628 -0.000548931 9.06629e-18)
(0.0110518 -0.00091496 8.92235e-18)
(0.0110353 -0.0012811 1.09589e-17)
(0.0110133 -0.00164739 1.20327e-17)
(0.0109856 -0.00201386 1.11222e-17)
(0.0109523 -0.00238054 1.41995e-17)
(0.0109132 -0.00274745 1.83975e-17)
(0.0108684 -0.00311461 1.92883e-17)
(0.0108176 -0.00348202 2.83083e-18)
(0.0102337 0.00841106 3.05977e-18)
(0.00962493 0.00880945 1.03374e-17)
(0.00977686 0.0084373 1.00653e-17)
(0.00991989 0.008065 8.01026e-18)
(0.0100552 0.00769166 1.03505e-17)
(0.0101828 0.00731748 9.24711e-18)
(0.010303 0.00694263 8.07207e-18)
(0.0104159 0.00656727 5.58478e-18)
(0.0105215 0.00619153 7.06957e-18)
(0.0106201 0.00581556 7.28559e-18)
(0.0107117 0.00543945 6.60551e-18)
(0.0107966 0.0050633 7.34806e-18)
(0.0108748 0.00468718 5.97505e-18)
(0.0109464 0.00431116 5.24295e-18)
(0.0110116 0.00393529 2.10319e-18)
(0.0110705 0.0035596 1.18776e-19)
(0.0111231 0.00318412 5.4175e-19)
(0.0111697 0.00280885 1.75513e-18)
(0.0112103 0.00243381 -7.75e-19)
(0.0112449 0.00205897 1.69829e-18)
(0.0112736 0.00168432 6.22884e-18)
(0.0112965 0.00130984 2.12218e-18)
(0.0113136 0.000935501 -2.042e-19)
(0.011325 0.000561259 8.13182e-19)
(0.0113307 0.000187079 1.65593e-18)
(0.0113307 -0.000187081 5.51544e-18)
(0.011325 -0.000561262 8.27626e-18)
(0.0113136 -0.000935504 8.97973e-18)
(0.0112965 -0.00130985 9.75544e-18)
(0.0112736 -0.00168433 1.05544e-17)
(0.0112449 -0.00205897 1.05016e-17)
(0.0112103 -0.00243381 1.2554e-17)
(0.0111697 -0.00280885 1.60611e-17)
(0.0111231 -0.00318412 1.57655e-17)
(0.0110705 -0.0035596 3.45741e-18)
(0.0104301 0.00861069 2.3208e-18)
(0.0098312 0.00899706 1.01083e-17)
(0.00998801 0.00861755 9.6793e-18)
(0.0101357 0.00823777 7.54971e-18)
(0.0102755 0.00785688 1.09521e-17)
(0.0104074 0.00747507 9.33841e-18)
(0.0105316 0.00709252 7.69772e-18)
(0.0106483 0.00670941 5.3329e-18)
(0.0107575 0.00632586 6.71546e-18)
(0.0108595 0.00594202 7.11491e-18)
(0.0109543 0.00555799 6.41441e-18)
(0.0110421 0.00517387 7.18041e-18)
(0.011123 0.00478975 5.6507e-18)
(0.0111972 0.00440568 4.40391e-18)
(0.0112647 0.00402172 2.97064e-18)
(0.0113257 0.00363791 8.81566e-19)
(0.0113803 0.00325427 1.02083e-19)
(0.0114286 0.00287082 8.08637e-19)
(0.0114706 0.00248757 -1.38502e-18)
(0.0115065 0.0021045 1.51551e-18)
(0.0115363 0.0017216 4.91853e-18)
(0.0115601 0.00133885 2.5437e-18)
(0.0115779 0.000956231 1.85273e-18)
(0.0115897 0.000573701 2.38982e-18)
(0.0115956 0.000191226 1.9397e-18)
(0.0115956 -0.000191229 4.05787e-18)
(0.0115897 -0.000573703 7.5928e-18)
(0.0115779 -0.000956234 9.48738e-18)
(0.0115601 -0.00133886 8.88146e-18)
(0.0115363 -0.0017216 9.27341e-18)
(0.0115065 -0.0021045 1.00214e-17)
(0.0114706 -0.00248757 1.07793e-17)
(0.0114286 -0.00287082 1.37696e-17)
(0.0113803 -0.00325427 1.34575e-17)
(0.010629 0.0088126 3.30474e-18)
(0.0100399 0.0091869 1.07248e-17)
(0.0102016 0.00879991 9.70237e-18)
(0.0103541 0.00841253 7.4513e-18)
(0.0104983 0.00802397 1.13827e-17)
(0.0106345 0.00763442 9.27276e-18)
(0.0107627 0.00724408 6.21608e-18)
(0.0108832 0.0068531 4.6116e-18)
(0.0109961 0.00646164 6.68548e-18)
(0.0111014 0.00606983 7.42342e-18)
(0.0111994 0.00567778 6.4073e-18)
(0.0112902 0.0052856 6.42975e-18)
(0.0113739 0.00489337 5.07745e-18)
(0.0114506 0.00450116 4.25438e-18)
(0.0115204 0.00410902 3.81523e-18)
(0.0115836 0.003717 1.03878e-18)
(0.0116401 0.00332512 -3.83924e-19)
(0.01169 0.0029334 4.89369e-19)
(0.0117336 0.00254185 -1.49156e-18)
(0.0117707 0.00215046 1.48758e-18)
(0.0118016 0.00175923 3.99886e-18)
(0.0118262 0.00136814 2.82887e-18)
(0.0118446 0.000977158 3.22846e-18)
(0.0118569 0.00058626 3.16767e-18)
(0.011863 0.000195414 1.9176e-18)
(0.011863 -0.000195416 3.06688e-18)
(0.0118569 -0.000586262 7.13046e-18)
(0.0118446 -0.00097716 1.03171e-17)
(0.0118262 -0.00136814 8.6143e-18)
(0.0118016 -0.00175924 8.00112e-18)
(0.0117707 -0.00215046 9.22086e-18)
(0.0117336 -0.00254185 9.37789e-18)
(0.01169 -0.0029334 1.22317e-17)
(0.0116401 -0.00332512 1.17601e-17)
(0.0108305 0.0090169 4.78996e-18)
(0.0102512 0.00937908 1.15159e-17)
(0.0104179 0.00898448 9.34197e-18)
(0.010575 0.00858939 7.2696e-18)
(0.0107238 0.00819304 1.13943e-17)
(0.0108642 0.00779564 8.8602e-18)
(0.0109965 0.00739738 5.28189e-18)
(0.0111208 0.00699843 4.44407e-18)
(0.0112373 0.00659895 6.58728e-18)
(0.011346 0.00619906 7.4572e-18)
(0.0114472 0.00579889 6.43595e-18)
(0.011541 0.00539855 6.01827e-18)
(0.0116274 0.00499811 4.96021e-18)
(0.0117067 0.00459766 4.13132e-18)
(0.0117789 0.00419724 3.94088e-18)
(0.0118441 0.00379691 7.42155e-19)
(0.0119025 0.0033967 -3.45725e-19)
(0.0119542 0.00299662 8.5592e-19)
(0.0119992 0.00259668 -1.39685e-18)
(0.0120376 0.0021969 1.25904e-18)
(0.0120696 0.00179725 3.37455e-18)
(0.012095 0.00139772 2.87375e-18)
(0.0121141 0.000998295 3.69702e-18)
(0.0121268 0.000598945 3.49009e-18)
(0.0121331 0.000199643 1.90823e-18)
(0.0121331 -0.000199644 2.4313e-18)
(0.0121268 -0.000598947 6.85986e-18)
(0.0121141 -0.000998296 1.09057e-17)
(0.012095 -0.00139772 8.57306e-18)
(0.0120696 -0.00179725 7.11045e-18)
(0.0120376 -0.0021969 8.295e-18)
(0.0119992 -0.00259668 8.23427e-18)
(0.0119542 -0.00299662 1.11257e-17)
(0.0119025 -0.00339669 1.11643e-17)
(0.0110348 0.0092237 5.17853e-18)
(0.0104652 0.00957369 1.17303e-17)
(0.0106368 0.00917137 8.40395e-18)
(0.0107987 0.00876844 6.71427e-18)
(0.010952 0.00836419 1.12779e-17)
(0.0110967 0.00795881 8.84257e-18)
(0.0112331 0.00755252 4.91201e-18)
(0.0113613 0.00714548 4.07496e-18)
(0.0114813 0.00673786 6.2496e-18)
(0.0115935 0.00632978 7.40671e-18)
(0.0116979 0.00592139 6.64559e-18)
(0.0117946 0.00551277 5.60342e-18)
(0.0118838 0.00510402 4.82275e-18)
(0.0119656 0.00469522 4.45139e-18)
(0.0120401 0.00428643 3.93647e-18)
(0.0121075 0.0038777 4.84385e-19)
(0.0121678 0.00346905 -2.46696e-19)
(0.0122212 0.00306051 1.11537e-18)
(0.0122677 0.0026521 -1.26107e-18)
(0.0123074 0.00224382 6.21653e-19)
(0.0123404 0.00183566 2.93366e-18)
(0.0123667 0.00142761 2.93546e-18)
(0.0123864 0.00101965 3.54814e-18)
(0.0123995 0.000611763 3.45461e-18)
(0.0124061 0.000203916 2.4441e-18)
(0.0124061 -0.000203917 2.26306e-18)
(0.0123995 -0.000611765 6.62742e-18)
(0.0123864 -0.00101965 1.13605e-17)
(0.0123667 -0.00142761 8.36788e-18)
(0.0123404 -0.00183566 6.25927e-18)
(0.0123074 -0.00224382 7.08635e-18)
(0.0122677 -0.0026521 7.3276e-18)
(0.0122212 -0.00306051 1.03649e-17)
(0.0121678 -0.00346905 1.06883e-17)
(0.0112418 0.0094331 5.90305e-18)
(0.0106819 0.00977085 1.13285e-17)
(0.0108585 0.00936067 7.34434e-18)
(0.0110253 0.00894978 6.91505e-18)
(0.0111831 0.00853749 1.07799e-17)
(0.0113321 0.00812402 8.6336e-18)
(0.0114726 0.00770958 4.07563e-18)
(0.0116046 0.00729433 3.41312e-18)
(0.0117283 0.00687845 6.17337e-18)
(0.0118439 0.00646207 7.98032e-18)
(0.0119515 0.00604533 7.27771e-18)
(0.0120512 0.00562833 5.42373e-18)
(0.0121432 0.00521117 4.82281e-18)
(0.0122275 0.00479392 4.83583e-18)
(0.0123044 0.00437664 3.83741e-18)
(0.0123739 0.0039594 5.55445e-19)
(0.0124362 0.00354222 -1.50499e-20)
(0.0124912 0.00312513 1.23391e-18)
(0.0125392 0.00270814 -1.60894e-18)
(0.0125802 0.00229127 -7.75391e-19)
(0.0126142 0.0018745 2.43363e-18)
(0.0126414 0.00145783 3.30338e-18)
(0.0126617 0.00104124 3.56498e-18)
(0.0126753 0.000624721 3.23261e-18)
(0.012682 0.000208235 3.01856e-18)
(0.012682 -0.000208237 2.45405e-18)
(0.0126753 -0.000624722 6.59697e-18)
(0.0126617 -0.00104125 1.18745e-17)
(0.0126414 -0.00145783 8.4203e-18)
(0.0126142 -0.0018745 5.49311e-18)
(0.0125802 -0.00229127 5.25578e-18)
(0.0125392 -0.00270814 6.30424e-18)
(0.0124912 -0.00312512 1.02987e-17)
(0.0114518 0.00964521 7.39732e-18)
(0.0109016 0.00997067 1.08966e-17)
(0.0110832 0.00955249 6.60203e-18)
(0.0112548 0.0091335 6.83497e-18)
(0.0114172 0.00871305 9.42814e-18)
(0.0115706 0.00829137 8.19561e-18)
(0.0117152 0.00786864 4.25793e-18)
(0.0118511 0.00744506 3.723e-18)
(0.0119784 0.0070208 5.91389e-18)
(0.0120975 0.006596 8.45666e-18)
(0.0122082 0.0061708 8.21719e-18)
(0.0123109 0.0057453 5.16661e-18)
(0.0124057 0.0053196 4.80043e-18)
(0.0124926 0.00489379 4.84874e-18)
(0.0125718 0.00446792 3.68844e-18)
(0.0126435 0.00404206 5.82135e-19)
(0.0127076 0.00361624 2.30433e-19)
(0.0127644 0.00319049 1.21022e-18)
(0.0128139 0.00276483 -2.36882e-18)
(0.0128561 0.00233926 -1.80212e-18)
(0.0128912 0.00191378 2.18328e-18)
(0.0129193 0.0014884 3.71141e-18)
(0.0129402 0.00106308 3.75427e-18)
(0.0129542 0.000637826 2.88418e-18)
(0.0129612 0.000212604 3.54676e-18)
(0.0129612 -0.000212606 3.39995e-18)
(0.0129542 -0.000637827 6.51077e-18)
(0.0129402 -0.00106308 1.16282e-17)
(0.0129193 -0.0014884 8.55071e-18)
(0.0128912 -0.00191378 5.2922e-18)
(0.0128561 -0.00233926 3.87289e-18)
(0.0128139 -0.00276482 4.83033e-18)
(0.0127644 -0.00319049 9.93396e-18)
(0.0116649 0.00986015 9.45415e-18)
(0.0111243 0.0101732 9.63451e-18)
(0.011311 0.00974694 6.13637e-18)
(0.0114874 0.00931972 6.5915e-18)
(0.0116544 0.00889098 8.12296e-18)
(0.0118122 0.00846093 7.8485e-18)
(0.0119609 0.0080298 4.98225e-18)
(0.0121007 0.00759776 3.60016e-18)
(0.0122318 0.007165 5.74304e-18)
(0.0123542 0.00673165 8.70551e-18)
(0.0124682 0.00629786 8.89269e-18)
(0.0125739 0.00586374 5.02261e-18)
(0.0126715 0.00542939 4.61116e-18)
(0.012761 0.0049949 4.75756e-18)
(0.0128425 0.00456033 3.47698e-18)
(0.0129163 0.00412574 3.14858e-19)
(0.0129824 0.00369116 1.55967e-19)
(0.0130409 0.00325664 1.25381e-18)
(0.0130918 0.00282219 -2.70627e-18)
(0.0131354 0.00238782 -2.18655e-18)
(0.0131716 0.00195353 2.03418e-18)
(0.0132004 0.00151932 3.80067e-18)
(0.013222 0.00108518 3.78918e-18)
(0.0132364 0.000651087 2.55104e-18)
(0.0132436 0.000217025 3.8894e-18)
(0.0132436 -0.000217026 4.75041e-18)
(0.0132364 -0.000651088 6.60661e-18)
(0.013222 -0.00108518 1.07443e-17)
(0.0132004 -0.00151932 8.41007e-18)