/*--------------------------------*- C++ -*----------------------------------*\
  =========                 |
  \\      /  F ield         | OpenFOAM: The Open Source CFD Toolbox
   \\    /   O peration     | Website:  https://openfoam.org
    \\  /    A nd           | Version:  7
     \\/     M anipulation  |
\*---------------------------------------------------------------------------*/
FoamFile
{
    version     2.0;
    format      ascii;
    class       volVectorField;
    location    "24000";
    object      U;
}
// * * * * * * * * * * * * * * * * * * * * * * * * * * * * * * * * * * * * * //

dimensions      [0 1 -1 0 0 0 0];

internalField   nonuniform List<vector> 
1777
(
(2.70633e-19 1.44243e-18 -0.0130123)
(3.25411e-19 3.98944e-18 -0.0130516)
(-1.81038e-18 2.1535e-18 -0.0130888)
(-3.73998e-18 2.6788e-18 -0.013124)
(-4.79478e-19 2.9671e-18 -0.0131571)
(-1.53701e-18 1.71671e-18 -0.0131878)
(-1.32999e-18 2.16608e-18 -0.0132159)
(-1.79845e-18 1.75811e-18 -0.0132412)
(7.56801e-19 1.48405e-18 -0.0132637)
(-1.3149e-18 5.80366e-19 -0.0132831)
(1.59231e-20 1.20538e-18 -0.0129164)
(6.05731e-19 4.30645e-18 -0.0129559)
(-1.72998e-18 2.48995e-18 -0.0129932)
(-3.46658e-18 2.81928e-18 -0.0130287)
(-2.4407e-19 3.00525e-18 -0.0130619)
(-1.50322e-18 1.77512e-18 -0.0130927)
(-1.16769e-18 2.27132e-18 -0.0131209)
(-1.57604e-18 1.75761e-18 -0.0131464)
(8.82427e-19 1.48654e-18 -0.0131689)
(-1.09222e-18 6.92963e-19 -0.0131885)
(-4.6683e-20 1.10393e-18 -0.0128192)
(9.4883e-19 4.65288e-18 -0.0128588)
(-1.92568e-18 2.65885e-18 -0.0128963)
(-2.81386e-18 3.2086e-18 -0.0129319)
(-2.97715e-19 2.87869e-18 -0.0129653)
(-1.37796e-18 1.86214e-18 -0.0129963)
(-1.0902e-18 2.32389e-18 -0.0130246)
(-1.27957e-18 1.78953e-18 -0.0130502)
(9.01885e-19 1.48261e-18 -0.0130728)
(-1.30626e-18 7.08191e-19 -0.0130925)
(2.79839e-19 1.32182e-18 -0.0127205)
(1.30082e-18 5.01878e-18 -0.0127603)
(-1.94917e-18 2.86703e-18 -0.012798)
(-2.07157e-18 3.65952e-18 -0.0128338)
(-6.32486e-19 2.66902e-18 -0.0128673)
(-1.31586e-18 1.89577e-18 -0.0128984)
(-9.79156e-19 2.39402e-18 -0.0129269)
(-1.35687e-18 1.68231e-18 -0.0129526)
(8.75203e-19 1.49584e-18 -0.0129753)
(-1.73015e-18 6.56619e-19 -0.012995)
(1.07362e-18 1.83724e-18 -0.0126204)
(2.01754e-18 5.70002e-18 -0.0126603)
(-1.71753e-18 3.2594e-18 -0.0126982)
(-1.81323e-18 3.875e-18 -0.0127342)
(-5.2758e-19 2.72453e-18 -0.0127679)
(-1.11995e-18 1.92967e-18 -0.0127991)
(-7.56295e-19 2.53588e-18 -0.0128277)
(-1.44972e-18 1.57545e-18 -0.0128535)
(6.41522e-19 1.44299e-18 -0.0128763)
(-1.70425e-18 7.60827e-19 -0.0128961)
(1.7803e-18 2.09734e-18 -0.0125186)
(2.83459e-18 6.50663e-18 -0.0125588)
(-1.67454e-18 3.57896e-18 -0.0125969)
(-1.68212e-18 3.98467e-18 -0.012633)
(2.91801e-19 3.17638e-18 -0.0126668)
(-1.26175e-18 1.82407e-18 -0.0126982)
(-4.89893e-19 2.71747e-18 -0.0127269)
(-1.16948e-18 1.6651e-18 -0.0127529)
(3.35864e-19 1.33908e-18 -0.0127758)
(-1.46575e-18 9.02425e-19 -0.0127957)
(2.10824e-18 1.95755e-18 -0.0124152)
(3.42217e-18 7.15881e-18 -0.0124556)
(-2.16676e-18 3.56706e-18 -0.0124939)
(-1.66523e-18 3.9503e-18 -0.0125301)
(1.12413e-18 3.68233e-18 -0.0125642)
(-1.90372e-18 1.4985e-18 -0.0125957)
(-3.07599e-19 2.78396e-18 -0.0126246)
(-5.31226e-19 1.92121e-18 -0.0126506)
(3.64207e-19 1.3741e-18 -0.0126737)
(-1.3784e-18 9.73532e-19 -0.0126936)
(2.15236e-18 1.51143e-18 -0.0123101)
(3.82287e-18 7.72536e-18 -0.0123507)
(-2.64313e-18 3.61221e-18 -0.0123891)
(-1.56467e-18 3.86503e-18 -0.0124256)
(1.45656e-18 3.94327e-18 -0.0124598)
(-2.37621e-18 1.30901e-18 -0.0124915)
(-1.18957e-19 2.75788e-18 -0.0125205)
(-2.76993e-20 2.11927e-18 -0.0125467)
(7.12219e-19 1.55307e-18 -0.0125698)
(-1.41153e-18 9.87803e-19 -0.0125899)
(1.8019e-18 7.27954e-19 -0.0122031)
(4.01368e-18 8.09458e-18 -0.0122439)
(-2.60365e-18 4.04177e-18 -0.0122826)
(-1.49913e-18 3.76513e-18 -0.0123193)
(1.13766e-18 3.85551e-18 -0.0123536)
(-2.62418e-18 1.20303e-18 -0.0123855)
(-2.13367e-19 2.57144e-18 -0.0124146)
(1.84862e-19 2.18867e-18 -0.0124409)
(1.04963e-18 1.75406e-18 -0.0124642)
(-1.49005e-18 1.03035e-18 -0.0124844)
(1.35992e-18 -9.8357e-20 -0.0120943)
(3.90597e-18 8.13376e-18 -0.0121353)
(-2.23316e-18 4.72286e-18 -0.0121742)
(-1.71929e-18 3.54811e-18 -0.012211)
(5.77374e-19 3.63687e-18 -0.0122456)
(-2.58933e-18 1.24283e-18 -0.0122776)
(-8.35636e-19 2.12199e-18 -0.0123069)
(4.91096e-19 2.25098e-18 -0.0123333)
(8.34264e-19 1.77606e-18 -0.0123567)
(-1.65869e-18 1.0544e-18 -0.012377)
(1.34112e-18 -4.82754e-19 -0.0119834)
(3.33725e-18 7.70983e-18 -0.0120246)
(-2.17907e-18 5.17295e-18 -0.0120638)
(-2.30605e-18 3.18747e-18 -0.0121008)
(4.24486e-19 3.60367e-18 -0.0121356)
(-2.34512e-18 1.40114e-18 -0.0121677)
(-9.34487e-19 1.89957e-18 -0.0121972)
(7.91696e-19 2.2908e-18 -0.0122237)
(5.5284e-19 1.82094e-18 -0.0122472)
(-1.5434e-18 1.12799e-18 -0.0122676)
(1.79652e-18 -3.84755e-19 -0.0118704)
(2.79157e-18 7.3374e-18 -0.0119119)
(-2.4748e-18 5.35248e-18 -0.0119512)
(-2.68176e-18 2.93226e-18 -0.0119885)
(6.47046e-19 3.72381e-18 -0.0120234)
(-2.1132e-18 1.54053e-18 -0.0120558)
(-4.6052e-19 1.93471e-18 -0.0120854)
(7.52347e-19 2.21979e-18 -0.012112)
(5.65851e-19 1.93976e-18 -0.0121357)
(-1.30383e-18 1.23991e-18 -0.0121561)
(2.29155e-18 -2.71332e-19 -0.0117551)
(2.76009e-18 7.4168e-18 -0.0117968)
(-2.57635e-18 5.6472e-18 -0.0118364)
(-2.22597e-18 3.20782e-18 -0.0118739)
(6.43476e-19 3.69088e-18 -0.011909)
(-1.99769e-18 1.60633e-18 -0.0119416)
(-6.12277e-22 1.99066e-18 -0.0119713)
(3.49513e-19 2.02022e-18 -0.0119982)
(3.89214e-19 1.99085e-18 -0.0120219)
(-1.79633e-18 1.17545e-18 -0.0120425)
(2.7161e-18 -2.56412e-19 -0.0116375)
(2.92024e-18 7.66297e-18 -0.0116795)
(-2.40557e-18 6.08466e-18 -0.0117193)
(-1.64287e-18 3.59031e-18 -0.011757)
(4.17427e-19 3.58701e-18 -0.0117923)
(-1.94271e-18 1.60029e-18 -0.0118251)
(2.7257e-19 1.98858e-18 -0.011855)
(-2.20515e-19 1.79829e-18 -0.011882)
(4.3546e-20 2.00032e-18 -0.0119058)
(-2.35478e-18 1.0655e-18 -0.0119265)
(3.04101e-18 -3.07143e-19 -0.0115173)
(2.8285e-18 7.69665e-18 -0.0115596)
(-2.22234e-18 6.50863e-18 -0.0115996)
(-1.88908e-18 3.48488e-18 -0.0116376)
(1.3658e-19 3.45828e-18 -0.0116731)
(-1.9032e-18 1.56982e-18 -0.011706)
(-1.19198e-19 1.72055e-18 -0.0117361)
(-4.0526e-19 1.74077e-18 -0.0117633)
(-1.48194e-19 2.05136e-18 -0.0117873)
(-2.39821e-18 1.08293e-18 -0.0118081)
(3.11441e-18 -5.28778e-19 -0.0113944)
(2.64058e-18 7.64519e-18 -0.011437)
(-2.47702e-18 6.61935e-18 -0.0114773)
(-2.47492e-18 3.18677e-18 -0.0115155)
(7.9684e-20 3.42056e-18 -0.0115513)
(-1.88176e-18 1.55469e-18 -0.0115844)
(-7.83421e-19 1.31156e-18 -0.0116147)
(-3.26929e-19 1.74337e-18 -0.011642)
(-2.93061e-19 2.12216e-18 -0.0116661)
(-2.09238e-18 1.19288e-18 -0.0116871)
(2.9355e-18 -9.46439e-19 -0.0112687)
(2.84072e-18 7.92393e-18 -0.0113116)
(-2.7355e-18 6.72926e-18 -0.0113522)
(-2.48753e-18 3.22929e-18 -0.0113907)
(3.76922e-19 3.55512e-18 -0.0114267)
(-1.75399e-18 1.63474e-18 -0.01146)
(-8.32682e-19 1.19273e-18 -0.0114904)
(-2.92402e-19 1.70425e-18 -0.0115179)
(-5.95888e-19 2.11977e-18 -0.0115422)
(-1.9409e-18 1.26785e-18 -0.0115632)
(3.07253e-18 -1.0796e-18 -0.01114)
(3.69258e-18 8.69304e-18 -0.0111832)
(-2.46775e-18 7.2065e-18 -0.0112241)
(-2.13427e-18 3.50188e-18 -0.0112628)
(6.46889e-19 3.68307e-18 -0.011299)
(-1.42097e-18 1.8201e-18 -0.0113326)
(-4.14122e-19 1.289e-18 -0.0113632)
(-4.55014e-19 1.62441e-18 -0.0113909)
(-9.16749e-19 2.1241e-18 -0.0114153)
(-1.98524e-18 1.26216e-18 -0.0114365)
(3.89683e-18 -6.92073e-19 -0.0110081)
(4.56644e-18 9.46484e-18 -0.0110516)
(-2.02051e-18 7.84836e-18 -0.0110928)
(-2.13418e-18 3.57752e-18 -0.0111317)
(8.24656e-19 3.74089e-18 -0.0111682)
(-9.63161e-19 2.06027e-18 -0.011202)
(-2.37048e-19 1.32356e-18 -0.0112329)
(-7.76634e-19 1.50538e-18 -0.0112607)
(-9.77642e-19 2.20007e-18 -0.0112853)
(-1.84315e-18 1.30046e-18 -0.0113066)
(4.57298e-18 -5.17494e-19 -0.0108727)
(4.93435e-18 9.84023e-18 -0.0109165)
(-1.783e-18 8.3625e-18 -0.010958)
(-2.44642e-18 3.47357e-18 -0.0109973)
(8.81385e-19 3.68565e-18 -0.011034)
(-6.83252e-19 2.22009e-18 -0.011068)
(-4.85015e-19 1.18886e-18 -0.0110991)
(-1.14432e-18 1.3582e-18 -0.0111271)
(-7.22102e-19 2.36793e-18 -0.0111519)
(-1.66215e-18 1.3605e-18 -0.0111733)
(4.79257e-18 -7.75598e-19 -0.0107336)
(5.15061e-18 1.00756e-17 -0.0107778)
(-1.54141e-18 8.89266e-18 -0.0108196)
(-2.56056e-18 3.53543e-18 -0.0108592)
(7.72598e-19 3.50207e-18 -0.0108962)
(-4.55665e-19 2.373e-18 -0.0109304)
(-9.03421e-19 1.01274e-18 -0.0109617)
(-1.51479e-18 1.16623e-18 -0.0109899)
(-3.42829e-19 2.55238e-18 -0.0110149)
(-1.49507e-18 1.42571e-18 -0.0110365)
(4.87255e-18 -1.15987e-18 -0.0105906)
(5.34466e-18 1.02345e-17 -0.0106351)
(-1.49526e-18 9.28679e-18 -0.0106773)
(-2.78161e-18 3.59406e-18 -0.0107172)
(7.78432e-19 3.37828e-18 -0.0107545)
(-4.47566e-19 2.42592e-18 -0.010789)
(-7.50081e-19 1.12884e-18 -0.0108205)
(-1.80235e-18 9.72037e-19 -0.0108489)
(-2.99589e-19 2.60338e-18 -0.0108741)
(-1.13229e-18 1.56288e-18 -0.0108958)
(4.84603e-18 -1.67209e-18 -0.0104433)
(5.62111e-18 1.04615e-17 -0.0104883)
(-2.01142e-18 9.35968e-18 -0.0105308)
(-3.50977e-18 3.29451e-18 -0.010571)
(1.13362e-18 3.45305e-18 -0.0106086)
(-8.18911e-19 2.26642e-18 -0.0106433)
(-1.89055e-19 1.44549e-18 -0.0106751)
(-2.03711e-18 8.41818e-19 -0.0107037)
(-5.16972e-19 2.53624e-18 -0.0107291)
(-8.83166e-19 1.67882e-18 -0.010751)
(4.63716e-18 -2.39982e-18 -0.0102915)
(4.66302e-19 2.40198e-18 -0.0130123)
(6.53749e-19 2.792e-18 -0.0129164)
(6.23964e-19 2.90871e-18 -0.0128192)
(2.37283e-19 2.56777e-18 -0.0127205)
(-4.95773e-19 1.71439e-18 -0.0126204)
(-8.59897e-19 1.1496e-18 -0.0125186)
(-7.92238e-19 9.85361e-19 -0.0124152)
(-4.88079e-19 1.08125e-18 -0.0123101)
(8.13268e-20 1.47924e-18 -0.0122031)
(6.25855e-19 1.89852e-18 -0.0120943)
(7.79675e-19 2.00644e-18 -0.0119834)
(4.65936e-19 1.62755e-18 -0.0118704)
(9.42805e-20 1.16203e-18 -0.0117551)
(1.16205e-19 1.1221e-18 -0.0116375)
(3.69461e-19 1.38378e-18 -0.0115173)
(5.58579e-19 1.60406e-18 -0.0113944)
(7.4641e-19 1.85434e-18 -0.0112687)
(6.47334e-19 1.81684e-18 -0.01114)
(1.18918e-19 1.21317e-18 -0.0110081)
(-2.41022e-19 7.03264e-19 -0.0108727)
(-1.07036e-19 7.39021e-19 -0.0107336)
(1.42385e-19 9.26381e-19 -0.0105906)
(3.79867e-19 1.09357e-18 -0.0104433)
(5.35505e-19 1.19127e-18 -0.0102915)
(3.01812e-19 3.20309e-18 -0.0130516)
(2.60166e-19 3.08289e-18 -0.0129559)
(3.3443e-20 2.71011e-18 -0.0128588)
(-2.56017e-19 2.28314e-18 -0.0127603)
(-6.01028e-19 1.85735e-18 -0.0126603)
(-1.09349e-18 1.37799e-18 -0.0125588)
(-1.45783e-18 1.13411e-18 -0.0124556)
(-1.71654e-18 1.0722e-18 -0.0123507)
(-2.03324e-18 8.96982e-19 -0.0122439)
(-1.82144e-18 1.29001e-18 -0.0121353)
(-1.2246e-18 2.07659e-18 -0.0120246)
(-8.76905e-19 2.56257e-18 -0.0119119)
(-7.89447e-19 2.81171e-18 -0.0117968)
(-4.80543e-19 3.36508e-18 -0.0116795)
(-1.51892e-20 4.04428e-18 -0.0115596)
(2.1146e-19 4.38431e-18 -0.011437)
(2.20576e-19 4.44189e-18 -0.0113116)
(-1.50749e-19 4.04525e-18 -0.0111832)
(-5.89459e-19 3.55503e-18 -0.0110516)
(-6.6204e-19 3.51985e-18 -0.0109165)
(-3.93892e-19 3.89537e-18 -0.0107778)
(-1.45075e-19 4.22484e-18 -0.0106351)
(-2.00637e-19 4.20278e-18 -0.0104883)
(-5.39133e-19 3.82488e-18 -0.0103369)
(1.5053e-18 1.29394e-18 -0.0130888)
(1.11936e-18 7.77303e-19 -0.0129932)
(1.12509e-18 8.14341e-19 -0.0128963)
(1.05716e-18 7.31064e-19 -0.012798)
(9.93348e-19 6.19186e-19 -0.0126982)
(1.20182e-18 8.87024e-19 -0.0125969)
(1.43099e-18 1.30925e-18 -0.0124939)
(1.46587e-18 1.51729e-18 -0.0123891)
(1.22061e-18 1.35553e-18 -0.0122826)
(7.77949e-19 9.51065e-19 -0.0121742)
(4.62015e-19 6.89803e-19 -0.0120638)
(4.75008e-19 8.27282e-19 -0.0119512)
(5.28114e-19 9.59996e-19 -0.0118364)
(2.87295e-19 6.22852e-19 -0.0117193)
(3.16341e-20 1.20635e-19 -0.0115996)
(-5.13438e-20 -1.17468e-19 -0.0114773)
(1.36508e-19 2.26782e-20 -0.0113522)
(1.06903e-19 -1.44547e-19 -0.0112241)
(-3.92835e-19 -9.25456e-19 -0.0110928)
(-8.26448e-19 -1.57754e-18 -0.010958)
(-9.57176e-19 -1.82059e-18 -0.0108196)
(-7.76291e-19 -1.6961e-18 -0.0106773)
(-3.97089e-19 -1.31599e-18 -0.0105308)
(-1.8022e-19 -1.14726e-18 -0.0103797)
(1.53378e-19 3.77514e-18 -0.013124)
(7.2003e-20 3.65096e-18 -0.0130287)
(-1.98853e-19 3.18938e-18 -0.0129319)
(-6.06168e-19 2.55238e-18 -0.0128338)
(-1.02866e-18 1.9616e-18 -0.0127342)
(-1.05812e-18 1.94718e-18 -0.012633)
(-7.02074e-19 2.38469e-18 -0.0125301)
(-5.00669e-19 2.49737e-18 -0.0124256)
(-4.2986e-19 2.41468e-18 -0.0123193)
(-1.62398e-19 2.74636e-18 -0.012211)
(6.0327e-20 3.10333e-18 -0.0121008)
(-1.87282e-20 2.99182e-18 -0.0119885)
(-2.85769e-19 2.53648e-18 -0.0118739)
(-6.57869e-19 1.95746e-18 -0.011757)
(-6.27467e-19 2.07597e-18 -0.0116376)
(-2.44503e-19 2.70345e-18 -0.0115155)
(-1.70001e-19 2.8434e-18 -0.0113907)
(-3.2284e-19 2.58228e-18 -0.0112628)
(-3.8692e-19 2.47401e-18 -0.0111317)
(-3.26762e-19 2.60293e-18 -0.0109973)
(-4.17586e-19 2.56496e-18 -0.0108592)
(-5.59963e-19 2.4467e-18 -0.0107172)
(-5.11563e-19 2.59487e-18 -0.010571)
(-3.01469e-19 2.92937e-18 -0.0104203)
(3.07153e-19 1.05431e-18 -0.0131571)
(1.24012e-19 4.49761e-19 -0.0130619)
(2.78929e-19 4.50938e-19 -0.0129653)
(5.55981e-19 7.00687e-19 -0.0128673)
(5.8992e-19 5.97129e-19 -0.0127679)
(2.80441e-19 1.23406e-20 -0.0126668)
(-4.48203e-20 -6.22254e-19 -0.0125642)
(-1.29472e-19 -7.79132e-19 -0.0124598)
(4.58e-20 -4.67266e-19 -0.0123536)
(2.81325e-19 -2.74571e-20 -0.0122456)
(3.36396e-19 2.58401e-20 -0.0121355)
(2.98615e-19 -1.93359e-19 -0.0120234)
(3.89993e-19 -1.80469e-19 -0.011909)
(5.63497e-19 5.15271e-20 -0.0117923)
(4.29043e-19 -1.78663e-19 -0.0116731)
(2.07653e-19 -6.80742e-19 -0.0115513)
(1.4841e-19 -9.59667e-19 -0.0114267)
(1.29386e-20 -1.39539e-18 -0.011299)
(-1.76472e-19 -1.91417e-18 -0.0111682)
(-1.63506e-19 -2.07476e-18 -0.011034)
(-9.1458e-20 -2.16859e-18 -0.0108962)
(-1.03508e-19 -2.4006e-18 -0.0107545)
(-4.06178e-20 -2.50028e-18 -0.0106086)
(4.09722e-20 -2.59977e-18 -0.0104582)
(1.43391e-18 9.12396e-19 -0.0131878)
(1.53934e-18 9.88459e-19 -0.0130927)
(1.43435e-18 6.44025e-19 -0.0129963)
(1.37753e-18 3.14116e-19 -0.0128984)
(1.51386e-18 3.41896e-19 -0.0127991)
(1.77919e-18 5.99721e-19 -0.0126982)
(2.15878e-18 1.15545e-18 -0.0125957)
(2.44917e-18 1.54706e-18 -0.0124915)
(2.56356e-18 1.57795e-18 -0.0123855)
(2.66849e-18 1.6316e-18 -0.0122776)
(2.46855e-18 1.11507e-18 -0.0121677)
(2.20041e-18 5.3039e-19 -0.0120558)
(2.23045e-18 4.79363e-19 -0.0119416)
(2.37033e-18 5.18407e-19 -0.0118251)
(2.35701e-18 2.58446e-19 -0.011706)
(2.25493e-18 -3.18135e-20 -0.0115844)
(2.1341e-18 -3.34991e-19 -0.01146)
(1.97902e-18 -7.13141e-19 -0.0113326)
(2.00721e-18 -7.30237e-19 -0.011202)
(2.01461e-18 -7.48063e-19 -0.011068)
(1.89051e-18 -1.00027e-18 -0.0109304)
(1.81048e-18 -1.11746e-18 -0.010789)
(1.91285e-18 -9.38239e-19 -0.0106433)
(2.07323e-18 -7.35223e-19 -0.0104932)
(-2.29894e-19 1.34475e-18 -0.0132159)
(-3.94152e-19 1.03046e-18 -0.0131209)
(-4.86241e-19 9.06708e-19 -0.0130246)
(-5.49253e-19 9.10615e-19 -0.0129269)
(-7.09213e-19 7.32686e-19 -0.0128277)
(-9.52663e-19 3.62809e-19 -0.0127269)
(-1.11006e-18 4.45245e-20 -0.0126246)
(-1.11416e-18 -1.40707e-19 -0.0125205)
(-8.23468e-19 3.02726e-19 -0.0124146)
(-3.74099e-19 1.02958e-18 -0.0123069)
(-1.7226e-20 1.47832e-18 -0.0121972)
(7.91386e-20 1.39593e-18 -0.0120854)
(-7.214e-20 7.68207e-19 -0.0119713)
(-5.67369e-20 5.46897e-19 -0.011855)
(2.74351e-19 1.03048e-18 -0.0117361)
(5.03087e-19 1.36567e-18 -0.0116147)
(4.79837e-19 1.21535e-18 -0.0114904)
(3.39026e-19 8.26759e-19 -0.0113632)
(2.63133e-19 5.92952e-19 -0.0112329)
(3.86758e-19 7.70759e-19 -0.0110991)
(5.45823e-19 1.07781e-18 -0.0109617)
(4.16806e-19 8.21183e-19 -0.0108205)
(5.20673e-20 8.37466e-20 -0.0106751)
(-6.84533e-20 -1.53876e-19 -0.0105253)
(-2.02414e-19 2.429e-18 -0.0132412)
(-2.31059e-19 2.16325e-18 -0.0131464)
(-2.11515e-19 2.04193e-18 -0.0130502)
(-1.81994e-19 1.94341e-18 -0.0129526)
(-1.14842e-19 2.03701e-18 -0.0128535)
(-2.18303e-19 1.83339e-18 -0.0127529)
(-4.9898e-19 1.2718e-18 -0.0126506)
(-6.76319e-19 9.6446e-19 -0.0125467)
(-7.86573e-19 7.83027e-19 -0.0124409)
(-8.96688e-19 4.52989e-19 -0.0123333)
(-1.01857e-18 -4.08256e-20 -0.0122237)
(-1.03973e-18 -3.39711e-19 -0.012112)
(-8.65669e-19 -1.21454e-19 -0.0119982)
(-6.58224e-19 2.25763e-19 -0.011882)
(-5.02037e-19 4.30984e-19 -0.0117633)
(-2.49281e-19 7.89881e-19 -0.011642)
(-9.7787e-20 8.79868e-19 -0.0115179)
(-1.08816e-19 6.39926e-19 -0.0113909)
(-7.56687e-20 5.66568e-19 -0.0112607)
(2.42745e-20 6.3502e-19 -0.0111271)
(2.00217e-19 8.12649e-19 -0.0109899)
(3.97687e-19 9.79207e-19 -0.0108489)
(5.33184e-19 1.10848e-18 -0.0107037)
(5.63974e-19 1.07394e-18 -0.0105541)
(-1.52711e-19 -6.51654e-19 -0.0132637)
(-5.76272e-20 -5.57435e-19 -0.0131689)
(-3.75944e-20 -6.79794e-19 -0.0130728)
(4.99159e-20 -4.51745e-19 -0.0129753)
(1.73594e-19 3.36959e-20 -0.0128763)
(2.63473e-19 3.58211e-19 -0.0127758)
(2.3107e-19 3.17e-19 -0.0126737)
(1.01248e-19 1.79606e-21 -0.0125698)
(3.24108e-20 -1.03133e-19 -0.0124642)
(-5.92555e-20 -1.65912e-19 -0.0123567)
(-1.62663e-19 -2.38819e-19 -0.0122472)
(-3.18543e-19 -3.61672e-19 -0.0121357)
(-5.6306e-19 -6.90859e-19 -0.0120219)
(-6.97977e-19 -7.28132e-19 -0.0119058)
(-7.60111e-19 -5.49466e-19 -0.0117873)
(-8.42883e-19 -5.13172e-19 -0.0116661)
(-8.32377e-19 -3.23933e-19 -0.0115422)
(-8.23231e-19 -1.25365e-19 -0.0114153)
(-9.29473e-19 -2.21906e-19 -0.0112853)
(-1.08298e-18 -4.90218e-19 -0.0111519)
(-1.24116e-18 -7.99249e-19 -0.0110149)
(-1.26683e-18 -7.99694e-19 -0.0108741)
(-1.1641e-18 -4.76464e-19 -0.0107291)
(-1.03217e-18 -1.42314e-19 -0.0105797)
(7.65205e-19 1.33685e-18 -0.0132831)
(7.45482e-19 1.32387e-18 -0.0131885)
(8.06064e-19 1.62052e-18 -0.0130925)
(9.44207e-19 2.23444e-18 -0.012995)
(1.01693e-18 2.54665e-18 -0.0128961)
(9.14388e-19 2.19513e-18 -0.0127957)
(8.13063e-19 1.65251e-18 -0.0126936)
(7.99108e-19 1.42656e-18 -0.0125899)
(8.70181e-19 1.60752e-18 -0.0124844)
(9.01437e-19 1.62942e-18 -0.012377)
(8.65444e-19 1.50286e-18 -0.0122676)
(8.93711e-19 1.66543e-18 -0.0121561)
(9.30396e-19 1.93614e-18 -0.0120425)
(9.35033e-19 2.14499e-18 -0.0119265)
(8.59994e-19 2.02135e-18 -0.0118081)
(7.19269e-19 1.64855e-18 -0.0116871)
(5.93135e-19 1.31322e-18 -0.0115632)
(5.47349e-19 1.19609e-18 -0.0114365)
(5.02225e-19 1.0383e-18 -0.0113066)
(4.09685e-19 7.70433e-19 -0.0111733)
(2.68703e-19 4.47018e-19 -0.0110365)
(8.59143e-20 5.4065e-20 -0.0108958)
(-7.72229e-20 -2.22576e-19 -0.010751)
(-7.77041e-20 -3.31117e-20 -0.0106018)
(-2.03254e-18 1.66835e-19 -0.0132995)
(-1.84745e-18 4.2716e-19 -0.0132049)
(-1.77634e-18 3.72396e-19 -0.013109)
(-1.68067e-18 4.24543e-19 -0.0130116)
(-1.51873e-18 5.97464e-19 -0.0129128)
(-1.46929e-18 3.41066e-19 -0.0128124)
(-1.53418e-18 -1.89524e-19 -0.0127104)
(-1.51514e-18 -2.94838e-19 -0.0126067)
(-1.45112e-18 -2.2909e-19 -0.0125013)
(-1.34748e-18 -1.67508e-19 -0.012394)
(-1.20759e-18 9.2322e-20 -0.0122847)
(-1.08285e-18 2.76299e-19 -0.0121733)
(-1.03539e-18 2.02998e-19 -0.0120598)
(-9.52288e-19 7.14185e-20 -0.0119439)
(-8.11302e-19 -1.40821e-20 -0.0118256)
(-6.98248e-19 -1.21165e-19 -0.0117046)
(-6.24775e-19 -2.08822e-19 -0.0115809)
(-5.82152e-19 -3.7821e-19 -0.0114543)
(-5.34089e-19 -4.51991e-19 -0.0113245)
(-4.30227e-19 -2.01454e-19 -0.0111914)
(-3.39885e-19 3.04358e-20 -0.0110546)
(-2.60123e-19 3.23506e-19 -0.0109141)
(-2.29994e-19 4.83779e-19 -0.0107694)
(-2.74754e-19 2.86832e-19 -0.0106203)
(-8.77938e-19 -1.48951e-18 -0.0133127)
(-8.64344e-19 -1.14715e-18 -0.0132181)
(-7.38703e-19 -5.85222e-19 -0.0131222)
(-6.43635e-19 -3.87394e-19 -0.0130249)
(-5.40299e-19 -3.48526e-19 -0.0129262)
(-4.20984e-19 -2.01968e-19 -0.0128259)
(-3.97573e-19 -2.41058e-19 -0.0127239)
(-4.49996e-19 -4.40835e-19 -0.0126203)
(-4.67219e-19 -7.14531e-19 -0.0125149)
(-4.482e-19 -1.0087e-18 -0.0124077)
(-3.94544e-19 -1.12072e-18 -0.0122985)
(-2.66121e-19 -8.36048e-19 -0.0121872)
(-2.02919e-19 -9.04859e-19 -0.0120737)
(-2.86264e-19 -1.66672e-18 -0.0119579)
(-3.06886e-19 -2.00365e-18 -0.0118396)
(-2.01673e-19 -1.61936e-18 -0.0117188)
(-8.81487e-20 -1.30552e-18 -0.0115952)
(1.87571e-20 -1.04549e-18 -0.0114686)
(1.27653e-19 -7.48317e-19 -0.0113389)
(2.00366e-19 -6.61495e-19 -0.0112059)
(2.95387e-19 -5.86598e-19 -0.0110692)
(3.84563e-19 -5.24769e-19 -0.0109288)
(4.5944e-19 -6.2236e-19 -0.0107842)
(5.2267e-19 -7.71915e-19 -0.0106352)
(1.64526e-18 3.0249e-19 -0.0133226)
(1.46841e-18 -4.68683e-19 -0.0132281)
(1.3261e-18 -1.32933e-18 -0.0131323)
(1.25476e-18 -1.8308e-18 -0.013035)
(1.23063e-18 -1.90211e-18 -0.0129363)
(1.26503e-18 -1.59171e-18 -0.012836)
(1.37835e-18 -1.1774e-18 -0.0127341)
(1.4146e-18 -1.29114e-18 -0.0126306)
(1.36226e-18 -2.00947e-18 -0.0125252)
(1.32665e-18 -2.30843e-18 -0.012418)
(1.31482e-18 -2.07984e-18 -0.0123088)
(1.29932e-18 -1.87152e-18 -0.0121976)
(1.3055e-18 -1.64344e-18 -0.0120842)
(1.29496e-18 -1.37536e-18 -0.0119684)
(1.21755e-18 -1.26981e-18 -0.0118502)
(1.10409e-18 -1.55997e-18 -0.0117294)
(1.02235e-18 -1.88714e-18 -0.0116059)
(9.68318e-19 -1.99254e-18 -0.0114794)
(9.46545e-19 -1.99926e-18 -0.0113498)
(9.41959e-19 -2.03331e-18 -0.0112168)
(9.51042e-19 -2.04861e-18 -0.0110803)
(9.87227e-19 -1.88143e-18 -0.0109399)
(1.01395e-18 -1.73202e-18 -0.0107954)
(1.03075e-18 -1.58201e-18 -0.0106465)
(1.5207e-18 6.37397e-20 -0.0133293)
(1.67142e-18 5.24398e-19 -0.0132348)
(1.75431e-18 5.22768e-19 -0.013139)
(1.77528e-18 4.97788e-19 -0.0130417)
(1.77162e-18 4.74784e-19 -0.012943)
(1.73886e-18 -2.52201e-20 -0.0128428)
(1.71124e-18 -5.03336e-19 -0.012741)
(1.72048e-18 -4.48079e-19 -0.0126374)
(1.70353e-18 -2.1204e-19 -0.0125321)
(1.67951e-18 2.94336e-19 -0.0124249)
(1.68076e-18 6.70385e-19 -0.0123158)
(1.69694e-18 8.57032e-19 -0.0122046)
(1.73948e-18 8.82982e-19 -0.0120912)
(1.7934e-18 8.61711e-19 -0.0119755)
(1.85592e-18 8.83786e-19 -0.0118573)
(1.87106e-18 7.35181e-19 -0.0117366)
(1.84392e-18 6.61116e-19 -0.0116131)
(1.82431e-18 7.01433e-19 -0.0114866)
(1.7855e-18 5.24376e-19 -0.011357)
(1.74112e-18 2.09924e-19 -0.0112241)
(1.7023e-18 7.36996e-20 -0.0110876)
(1.69008e-18 1.51669e-19 -0.0109473)
(1.68529e-18 3.02359e-19 -0.0108029)
(1.67907e-18 3.03881e-19 -0.010654)
(-8.25675e-19 -2.7766e-19 -0.0133326)
(-7.72501e-19 -9.28911e-19 -0.0132381)
(-6.85105e-19 -1.00656e-18 -0.0131423)
(-5.95361e-19 -8.32971e-19 -0.0130451)
(-5.16229e-19 -7.44128e-19 -0.0129464)
(-4.41087e-19 -4.942e-19 -0.0128462)
(-4.27709e-19 -6.21575e-20 -0.0127444)
(-4.37999e-19 2.1564e-19 -0.0126409)
(-4.73475e-19 1.13844e-19 -0.0125356)
(-5.02672e-19 -2.59898e-19 -0.0124284)
(-4.7966e-19 -6.28005e-19 -0.0123193)
(-4.66006e-19 -1.05814e-18 -0.0122081)
(-4.29665e-19 -1.32604e-18 -0.0120947)
(-3.90206e-19 -1.21875e-18 -0.011979)
(-3.24501e-19 -7.50259e-19 -0.0118609)
(-2.3807e-19 -9.67609e-20 -0.0117402)
(-1.68329e-19 1.42475e-19 -0.0116167)
(-1.21437e-19 7.19482e-20 -0.0114902)
(-7.87838e-20 1.27216e-20 -0.0113607)
(-4.67352e-20 -2.0021e-20 -0.0112278)
(-1.99958e-20 -1.03759e-19 -0.0110913)
(1.57392e-20 -1.35721e-19 -0.010951)
(5.32009e-20 -1.19971e-19 -0.0108066)
(1.08375e-19 -5.16589e-20 -0.0106578)
(1.86211e-19 -6.03662e-19 -0.0133326)
(2.77501e-19 -9.24022e-19 -0.0132381)
(3.38874e-19 -1.01978e-18 -0.0131423)
(4.02281e-19 -9.37339e-19 -0.0130451)
(4.62617e-19 -8.23519e-19 -0.0129464)
(5.06883e-19 -7.03822e-19 -0.0128462)
(5.71475e-19 -4.7624e-19 -0.0127444)
(6.53936e-19 -1.48085e-19 -0.0126409)
(7.39612e-19 5.41568e-20 -0.0125356)
(8.31697e-19 -1.05282e-19 -0.0124284)
(9.10904e-19 -1.82204e-19 -0.0123193)
(9.60084e-19 -1.20071e-19 -0.0122081)
(9.59836e-19 -2.10886e-19 -0.0120947)
(9.30558e-19 -3.29628e-19 -0.011979)
(9.17011e-19 -6.33135e-19 -0.0118609)
(9.24668e-19 -8.67525e-19 -0.0117402)
(9.34594e-19 -7.0549e-19 -0.0116167)
(9.4185e-19 -4.54025e-19 -0.0114902)
(9.52273e-19 -4.60378e-19 -0.0113607)
(9.61383e-19 -6.20887e-19 -0.0112278)
(9.65587e-19 -8.50745e-19 -0.0110913)
(9.50638e-19 -9.40658e-19 -0.010951)
(9.32593e-19 -9.99008e-19 -0.0108066)
(9.14744e-19 -1.00829e-18 -0.0106578)
(-8.4196e-19 -1.3062e-18 -0.0133293)
(-7.80381e-19 -1.76387e-18 -0.0132348)
(-7.78478e-19 -1.7355e-18 -0.013139)
(-8.01403e-19 -1.63184e-18 -0.0130417)
(-8.25798e-19 -1.40625e-18 -0.012943)
(-8.30702e-19 -1.21807e-18 -0.0128428)
(-8.13261e-19 -1.15395e-18 -0.012741)
(-7.71643e-19 -1.02831e-18 -0.0126374)
(-6.9844e-19 -1.06369e-18 -0.0125321)
(-6.22311e-19 -1.25305e-18 -0.0124249)
(-5.53927e-19 -1.20076e-18 -0.0123158)
(-4.76656e-19 -7.78416e-19 -0.0122046)
(-4.17469e-19 -1.526e-19 -0.0120912)
(-3.32127e-19 1.8846e-19 -0.0119755)
(-2.5414e-19 3.17351e-19 -0.0118573)
(-2.16887e-19 6.07323e-19 -0.0117366)
(-1.80155e-19 7.28864e-19 -0.0116131)
(-1.26988e-19 7.16822e-19 -0.0114866)
(-7.61963e-20 7.64775e-19 -0.011357)
(-4.08822e-20 8.64101e-19 -0.0112241)
(-2.93176e-20 1.02048e-18 -0.0110876)
(-1.6581e-20 1.13832e-18 -0.0109473)
(1.36384e-21 1.12821e-18 -0.0108029)
(1.80178e-20 1.02749e-18 -0.010654)
(5.25822e-19 -1.26323e-18 -0.0133226)
(4.67246e-19 -1.29241e-18 -0.0132281)
(3.5358e-19 -1.14094e-18 -0.0131323)
(2.7937e-19 -1.0706e-18 -0.013035)
(2.55953e-19 -1.2313e-18 -0.0129363)
(2.42957e-19 -1.4226e-18 -0.012836)
(2.25539e-19 -1.61063e-18 -0.0127341)
(1.97334e-19 -1.75091e-18 -0.0126306)
(1.26633e-19 -1.68085e-18 -0.0125252)
(9.17102e-20 -1.8808e-18 -0.012418)
(6.77642e-20 -2.42562e-18 -0.0123088)
(6.91392e-21 -2.71001e-18 -0.0121976)
(-4.12202e-20 -2.81929e-18 -0.0120842)
(-9.03808e-20 -2.73067e-18 -0.0119684)
(-1.44244e-19 -2.47977e-18 -0.0118502)
(-1.70982e-19 -2.25053e-18 -0.0117294)
(-1.72437e-19 -1.98799e-18 -0.0116059)
(-1.67856e-19 -1.80428e-18 -0.0114794)
(-1.51348e-19 -1.66253e-18 -0.0113498)
(-1.31017e-19 -1.42176e-18 -0.0112168)
(-8.9033e-20 -1.39396e-18 -0.0110803)
(-1.60872e-20 -1.44177e-18 -0.0109399)
(3.63849e-20 -1.31644e-18 -0.0107954)
(9.48377e-20 -1.23784e-18 -0.0106465)
(-3.66118e-19 -2.34878e-19 -0.0133127)
(-3.73474e-19 8.6671e-20 -0.0132181)
(-3.26373e-19 1.12692e-19 -0.0131222)
(-1.92893e-19 -2.23913e-19 -0.0130249)
(-1.12166e-19 -2.63545e-19 -0.0129262)
(-8.2907e-20 -1.26304e-19 -0.0128259)
(-9.59372e-20 -7.90583e-21 -0.0127239)
(-1.3277e-19 2.90569e-19 -0.0126203)
(-1.12525e-19 3.55976e-19 -0.0125149)
(-8.19861e-20 3.88497e-19 -0.0124077)
(-1.09528e-19 6.79935e-19 -0.0122985)
(-1.09324e-19 6.90804e-19 -0.0121872)
(-1.17342e-19 6.36455e-19 -0.0120737)
(-1.46459e-19 4.99409e-19 -0.0119579)
(-1.17712e-19 1.68569e-19 -0.0118396)
(-6.97767e-20 -1.38899e-19 -0.0117188)
(-2.67663e-20 -2.94671e-19 -0.0115952)
(-2.78682e-21 -3.20364e-19 -0.0114686)
(5.69284e-20 -5.00807e-19 -0.0113389)
(7.47261e-20 -4.83524e-19 -0.0112059)
(7.88984e-20 -4.86318e-19 -0.0110692)
(8.34087e-20 -6.34505e-19 -0.0109288)
(6.98142e-20 -5.59741e-19 -0.0107842)
(7.53535e-20 -4.83463e-19 -0.0106352)
(-1.91162e-18 -1.36612e-18 -0.0139279)
(-1.72269e-18 -2.04814e-18 -0.0138415)
(-1.55215e-18 -2.44179e-18 -0.013754)
(-1.43774e-18 -2.58124e-18 -0.0136654)
(-1.31061e-18 -2.54579e-18 -0.0135757)
(-1.25174e-18 -2.43729e-18 -0.0134849)
(-1.24408e-18 -2.3302e-18 -0.0133928)
(-1.24219e-18 -2.03742e-18 -0.0132995)
(-1.21584e-18 -1.79231e-18 -0.0132049)
(-1.11922e-18 -1.79189e-18 -0.013109)
(-1.03088e-18 -1.85419e-18 -0.0130116)
(-1.02485e-18 -1.79902e-18 -0.0129128)
(-1.10426e-18 -1.40553e-18 -0.0128124)
(-1.1441e-18 -1.24323e-18 -0.0127104)
(-1.0835e-18 -1.57309e-18 -0.0126067)
(-1.09804e-18 -1.6744e-18 -0.0125013)
(-1.1192e-18 -1.79369e-18 -0.012394)
(-1.08285e-18 -1.99524e-18 -0.0122847)
(-1.09932e-18 -1.86145e-18 -0.0121733)
(-1.17919e-18 -1.43483e-18 -0.0120598)
(-1.17166e-18 -1.26449e-18 -0.0119439)
(-1.07328e-18 -1.52848e-18 -0.0118256)
(-9.97899e-19 -1.80941e-18 -0.0117046)
(-1.00412e-18 -1.84916e-18 -0.0115809)
(-1.00978e-18 -1.81408e-18 -0.0114543)
(-1.01213e-18 -1.71156e-18 -0.0113245)
(-1.10573e-18 -1.23872e-18 -0.0111914)
(-1.18654e-18 -7.57141e-19 -0.0110546)
(-1.18626e-18 -8.38098e-19 -0.0109141)
(-1.11695e-18 -1.27634e-18 -0.0107694)
(-1.08863e-18 -1.48593e-18 -0.0106203)
(1.40961e-18 -1.35741e-18 -0.013912)
(1.29156e-18 -1.13909e-18 -0.0138255)
(1.11972e-18 -9.95603e-19 -0.013738)
(1.07563e-18 -1.2521e-18 -0.0136493)
(9.04223e-19 -9.6958e-19 -0.0135596)
(6.75916e-19 -4.19312e-19 -0.0134686)
(6.62318e-19 -6.7835e-19 -0.0133765)
(6.66946e-19 -9.90496e-19 -0.0132831)
(6.02827e-19 -8.97316e-19 -0.0131885)
(5.41666e-19 -8.22431e-19 -0.0130925)
(4.08891e-19 -5.94172e-19 -0.012995)
(2.02858e-19 -1.9752e-19 -0.0128961)
(4.88634e-20 5.78532e-20 -0.0127957)
(-7.65431e-20 3.45672e-19 -0.0126936)
(-2.82848e-19 9.01196e-19 -0.0125899)
(-4.69053e-19 1.21632e-18 -0.0124844)
(-4.84518e-19 9.63938e-19 -0.012377)
(-4.97129e-19 6.74887e-19 -0.0122676)
(-5.20653e-19 4.35002e-19 -0.0121561)
(-5.12255e-19 7.77824e-20 -0.0120425)
(-4.88862e-19 -2.32852e-19 -0.0119265)
(-5.81046e-19 -1.89924e-19 -0.0118081)
(-7.74469e-19 3.52087e-20 -0.0116871)
(-9.04333e-19 -1.00483e-19 -0.0115632)
(-9.12982e-19 -6.07304e-19 -0.0114365)
(-9.59261e-19 -1.02553e-18 -0.0113066)
(-1.03849e-18 -1.20975e-18 -0.0111733)
(-1.22043e-18 -9.16123e-19 -0.0110365)
(-1.43187e-18 -4.44455e-19 -0.0108958)
(-1.50252e-18 -4.94778e-19 -0.010751)
(-1.50906e-18 -7.71029e-19 -0.0106018)
(-6.53992e-19 6.80904e-20 -0.0138931)
(-8.79978e-19 3.85673e-19 -0.0138066)
(-8.32283e-19 2.37085e-19 -0.0137189)
(-6.70978e-19 -2.23777e-19 -0.0136302)
(-6.4396e-19 -5.00336e-19 -0.0135403)
(-6.53005e-19 -5.20728e-19 -0.0134493)
(-7.09861e-19 -4.55217e-19 -0.0133571)
(-7.58647e-19 -5.55042e-19 -0.0132637)
(-7.86282e-19 -6.59934e-19 -0.0131689)
(-8.76954e-19 -4.9946e-19 -0.0130728)
(-9.96254e-19 -2.15105e-19 -0.0129753)
(-1.01916e-18 -1.04774e-19 -0.0128763)
(-9.44435e-19 -1.53117e-19 -0.0127758)
(-8.1198e-19 -2.74613e-19 -0.0126737)
(-7.56315e-19 -1.61729e-19 -0.0125698)
(-7.36196e-19 3.99967e-20 -0.0124642)
(-5.93909e-19 -1.05064e-19 -0.0123567)
(-4.77937e-19 -2.89508e-19 -0.0122472)
(-4.71336e-19 -2.24873e-19 -0.0121357)
(-4.88608e-19 -1.49366e-19 -0.0120219)
(-4.81271e-19 -1.89557e-19 -0.0119058)
(-5.99092e-19 1.14957e-19 -0.0117873)
(-7.86342e-19 6.5165e-19 -0.0116661)
(-8.10123e-19 7.50431e-19 -0.0115422)
(-7.76167e-19 6.32257e-19 -0.0114153)
(-7.42473e-19 3.57467e-19 -0.0112853)
(-6.66686e-19 -7.3718e-20 -0.0111519)
(-6.2785e-19 -3.55775e-19 -0.0110149)
(-5.45209e-19 -7.04664e-19 -0.0108741)