/*--------------------------------*- C++ -*----------------------------------*\
  =========                 |
  \\      /  F ield         | OpenFOAM: The Open Source CFD Toolbox
   \\    /   O peration     | Website:  https://openfoam.org
    \\  /    A nd           | Version:  7
     \\/     M anipulation  |
\*---------------------------------------------------------------------------*/
FoamFile
{
    version     2.0;
    format      ascii;
    class       volVectorField;
    location    "40000";
    object      U;
}
// * * * * * * * * * * * * * * * * * * * * * * * * * * * * * * * * * * * * * //

dimensions      [0 1 -1 0 0 0 0];

internalField   nonuniform List<vector> 
4850
(
(-7.02799e-19 4.51185e-20 -0.00765962)
(-6.16167e-19 -1.00102e-20 -0.00765973)
(-7.32387e-19 1.05466e-19 -0.00765942)
(-7.02265e-19 9.37407e-20 -0.00765953)
(-5.21096e-19 1.58348e-19 -0.00765965)
(-6.44089e-19 1.26552e-19 -0.00765921)
(-7.47179e-19 1.21076e-19 -0.00765933)
(-5.58221e-19 1.49451e-19 -0.00765945)
(-5.36267e-19 2.07232e-19 -0.00765958)
(-5.00822e-19 2.05676e-19 -0.00765971)
(-5.75841e-19 1.4582e-19 -0.007659)
(-7.4174e-19 1.05186e-19 -0.00765912)
(-5.67922e-19 1.39064e-19 -0.00765924)
(-5.69699e-19 2.27129e-19 -0.00765937)
(-5.12254e-19 3.5084e-19 -0.00765951)
(-4.23556e-19 4.46783e-19 -0.00765964)
(-5.39116e-19 1.57386e-19 -0.00765879)
(-7.54065e-19 9.48448e-20 -0.00765891)
(-5.97693e-19 1.81981e-19 -0.00765903)
(-4.96091e-19 2.79989e-19 -0.00765916)
(-5.40216e-19 4.16422e-19 -0.0076593)
(-4.15088e-19 3.82111e-19 -0.00765944)
(-4.19667e-19 5.72694e-19 -0.00765958)
(-4.25847e-19 -2.15325e-20 -0.00765857)
(-6.8835e-19 2.8971e-20 -0.00765869)
(-6.46751e-19 2.471e-19 -0.00765882)
(-5.03428e-19 2.58788e-19 -0.00765895)
(-4.87067e-19 3.151e-19 -0.00765909)
(-3.98202e-19 4.53892e-19 -0.00765923)
(-3.37353e-19 6.21911e-19 -0.00765937)
(-4.22084e-19 6.986e-19 -0.00765951)
(-6.19688e-19 5.72505e-19 -0.00765966)
(-3.4058e-19 -1.80419e-19 -0.00765835)
(-5.6462e-19 8.40762e-20 -0.00765847)
(-6.30677e-19 2.89609e-19 -0.0076586)
(-5.34209e-19 2.71538e-19 -0.00765873)
(-4.73827e-19 3.6268e-19 -0.00765887)
(-3.79408e-19 5.2747e-19 -0.00765901)
(-3.23888e-19 6.46327e-19 -0.00765916)
(-3.83344e-19 5.32102e-19 -0.0076593)
(-5.60585e-19 3.36279e-19 -0.00765944)
(-5.368e-19 4.38754e-19 -0.00765959)
(-3.55673e-19 -8.17608e-20 -0.00765813)
(-4.73126e-19 1.91905e-19 -0.00765825)
(-5.94973e-19 2.63327e-19 -0.00765838)
(-5.43955e-19 2.68186e-19 -0.00765851)
(-4.57359e-19 3.74574e-19 -0.00765865)
(-3.62589e-19 5.65931e-19 -0.00765879)
(-3.32965e-19 6.07576e-19 -0.00765894)
(-3.92825e-19 3.733e-19 -0.00765908)
(-5.08552e-19 2.21273e-19 -0.00765923)
(-4.61515e-19 3.63049e-19 -0.00765937)
(-4.60827e-19 3.27628e-19 -0.00765951)
(-5.19177e-19 3.6593e-19 -0.00765965)
(-3.85899e-19 3.44885e-19 -0.00765978)
(-4.61076e-19 2.2346e-19 -0.00765991)
(-4.83344e-19 1.63541e-19 -0.00765791)
(-4.42866e-19 2.79278e-19 -0.00765803)
(-5.3979e-19 2.03342e-19 -0.00765816)
(-5.42064e-19 2.6464e-19 -0.00765829)
(-4.18932e-19 3.80271e-19 -0.00765843)
(-3.29113e-19 5.57312e-19 -0.00765857)
(-3.49766e-19 4.94143e-19 -0.00765872)
(-4.31209e-19 2.80302e-19 -0.00765887)
(-5.01173e-19 1.91764e-19 -0.00765901)
(-4.32655e-19 2.26066e-19 -0.00765915)
(-3.70351e-19 1.21047e-19 -0.00765929)
(-4.60664e-19 2.04299e-19 -0.00765943)
(-4.14878e-19 2.43082e-19 -0.00765956)
(-4.46027e-19 1.82153e-19 -0.00765969)
(-5.47087e-19 2.75624e-19 -0.00765981)
(-5.42969e-19 2.86083e-19 -0.00765992)
(-6.62981e-19 4.12227e-19 -0.00766002)
(-5.08854e-19 4.2767e-19 -0.00766011)
(-5.67173e-19 3.35659e-19 -0.00765768)
(-5.2815e-19 3.43801e-19 -0.0076578)
(-5.40263e-19 1.95614e-19 -0.00765793)
(-5.26309e-19 2.8108e-19 -0.00765807)
(-4.19824e-19 4.00524e-19 -0.00765821)
(-2.96554e-19 4.67977e-19 -0.00765835)
(-3.23294e-19 3.2801e-19 -0.0076585)
(-4.40944e-19 2.17006e-19 -0.00765864)
(-5.14427e-19 1.54762e-19 -0.00765879)
(-4.49758e-19 1.18949e-19 -0.00765893)
(-3.80252e-19 4.00538e-20 -0.00765907)
(-3.4957e-19 1.29289e-20 -0.00765921)
(-3.81953e-19 2.72731e-19 -0.00765934)
(-4.20429e-19 2.13907e-19 -0.00765947)
(-5.38148e-19 4.09781e-19 -0.00765959)
(-5.2271e-19 3.20924e-19 -0.0076597)
(-6.43542e-19 4.37559e-19 -0.0076598)
(-5.73327e-19 3.58739e-19 -0.00765989)
(-2.34294e-19 1.86922e-19 -0.00765998)
(-2.3476e-19 2.46867e-19 -0.00766005)
(-5.37937e-19 3.0578e-19 -0.00765746)
(-5.66816e-19 3.61652e-19 -0.00765758)
(-5.77547e-19 2.08442e-19 -0.00765771)
(-5.23677e-19 2.99152e-19 -0.00765784)
(-4.2785e-19 3.97146e-19 -0.00765799)
(-3.17137e-19 3.77308e-19 -0.00765813)
(-2.58045e-19 8.42771e-20 -0.00765827)
(-4.12454e-19 1.39431e-19 -0.00765842)
(-5.18332e-19 1.0714e-19 -0.00765857)
(-4.72115e-19 7.52994e-20 -0.00765871)
(-4.07433e-19 -2.36132e-21 -0.00765885)
(-2.86109e-19 -2.28984e-20 -0.00765899)
(-2.97606e-19 2.10103e-19 -0.00765912)
(-3.51363e-19 1.72529e-19 -0.00765925)
(-5.25132e-19 4.76879e-19 -0.00765937)
(-5.22009e-19 3.13746e-19 -0.00765948)
(-6.30616e-19 3.63853e-19 -0.00765958)
(-6.46032e-19 2.5272e-19 -0.00765967)
(-2.57621e-19 1.44191e-19 -0.00765975)
(-1.90721e-19 2.56404e-19 -0.00765982)
(-2.80833e-19 3.25331e-19 -0.00765989)
(-1.95792e-19 4.10587e-19 -0.00765993)
(-3.43003e-19 2.67853e-19 -0.00765997)
(-2.62703e-19 -6.47141e-21 -0.00766)
(-4.87145e-19 2.47683e-19 -0.00765723)
(-5.80221e-19 3.74069e-19 -0.00765736)
(-6.08298e-19 2.32862e-19 -0.00765748)
(-5.49607e-19 3.63477e-19 -0.00765762)
(-4.84378e-19 4.54717e-19 -0.00765776)
(-4.11895e-19 3.05408e-19 -0.0076579)
(-2.68141e-19 -5.03829e-21 -0.00765805)
(-3.3404e-19 1.17511e-19 -0.0076582)
(-5.05785e-19 7.72679e-20 -0.00765834)
(-5.01778e-19 3.70868e-20 -0.00765849)
(-4.38647e-19 -5.1225e-20 -0.00765863)
(-2.61572e-19 -3.37264e-20 -0.00765877)
(-2.31579e-19 9.52093e-20 -0.0076589)
(-2.31322e-19 9.94397e-20 -0.00765902)
(-4.55391e-19 4.46126e-19 -0.00765914)
(-5.64196e-19 3.3023e-19 -0.00765925)
(-6.26398e-19 2.63009e-19 -0.00765936)
(-6.9702e-19 2.39608e-19 -0.00765945)
(-2.82252e-19 2.54603e-19 -0.00765953)
(-1.53271e-19 3.33331e-19 -0.0076596)
(-2.60552e-19 3.5667e-19 -0.00765966)
(-2.19635e-19 3.59073e-19 -0.00765971)
(-4.02438e-19 1.98559e-19 -0.00765975)
(-3.25119e-19 1.9024e-19 -0.00765977)
(-2.25945e-19 1.66311e-19 -0.00765978)
(-1.12067e-18 2.43326e-19 -0.00765979)
(-1.66978e-18 4.00306e-19 -0.00765977)
(-9.81881e-19 2.83963e-19 -0.00765975)
(-6.60442e-19 2.41537e-19 -0.00765972)
(-4.95981e-19 2.87392e-19 -0.00765701)
(-5.46793e-19 3.77147e-19 -0.00765713)
(-6.51942e-19 3.0596e-19 -0.00765726)
(-5.6588e-19 4.58011e-19 -0.00765739)
(-5.43587e-19 4.8684e-19 -0.00765753)
(-5.4082e-19 3.02745e-19 -0.00765768)
(-3.75501e-19 1.07939e-19 -0.00765782)
(-3.31008e-19 1.55255e-19 -0.00765797)
(-4.93237e-19 4.00807e-20 -0.00765812)
(-5.21211e-19 -4.81233e-21 -0.00765826)
(-4.76546e-19 -5.10031e-20 -0.0076584)
(-2.69106e-19 -2.2727e-21 -0.00765854)
(-2.04596e-19 6.71964e-20 -0.00765867)
(-1.44192e-19 1.18375e-19 -0.0076588)
(-3.35832e-19 3.20576e-19 -0.00765892)
(-6.03497e-19 4.06442e-19 -0.00765903)
(-6.32027e-19 2.2063e-19 -0.00765913)
(-7.03609e-19 3.57301e-19 -0.00765922)
(-3.14756e-19 5.22839e-19 -0.0076593)
(-1.66277e-19 4.82096e-19 -0.00765937)
(-2.68198e-19 4.03564e-19 -0.00765943)
(-2.67649e-19 4.66719e-19 -0.00765948)
(-4.16942e-19 2.48406e-19 -0.00765952)
(-2.94345e-19 4.03033e-19 -0.00765955)
(-2.22231e-19 3.70597e-19 -0.00765956)
(-1.0891e-18 4.21864e-19 -0.00765956)
(-1.63356e-18 5.14882e-19 -0.00765955)
(-1.00091e-18 6.12292e-19 -0.00765952)
(-7.05791e-19 4.23633e-19 -0.00765949)
(-1.04499e-18 3.85592e-19 -0.00765944)
(-9.65499e-19 1.25615e-19 -0.00765938)
(-1.03791e-18 -2.04737e-19 -0.00765931)
(-5.62849e-19 4.05909e-19 -0.00765679)
(-4.8163e-19 3.00339e-19 -0.00765691)
(-6.45985e-19 3.59657e-19 -0.00765703)
(-6.17907e-19 5.49069e-19 -0.00765717)
(-5.65725e-19 4.64535e-19 -0.00765731)
(-6.06619e-19 2.81148e-19 -0.00765745)
(-4.67462e-19 1.74509e-19 -0.0076576)
(-3.54479e-19 1.51981e-19 -0.00765774)
(-5.03699e-19 -2.94428e-21 -0.00765789)
(-5.2793e-19 -2.67113e-20 -0.00765804)
(-5.2184e-19 3.7219e-20 -0.00765818)
(-2.97498e-19 7.64889e-20 -0.00765831)
(-2.04706e-19 1.06812e-19 -0.00765845)
(-1.19403e-19 1.74997e-19 -0.00765857)
(-1.89667e-19 1.33821e-19 -0.00765869)
(-5.88763e-19 4.1623e-19 -0.0076588)
(-6.25644e-19 1.9227e-19 -0.0076589)
(-6.39801e-19 5.04645e-19 -0.00765899)
(-3.44603e-19 7.67213e-19 -0.00765908)
(-2.26437e-19 5.17676e-19 -0.00765915)
(-2.66152e-19 4.33879e-19 -0.00765921)
(-3.0196e-19 5.95757e-19 -0.00765925)
(-4.38743e-19 3.82404e-19 -0.00765929)
(-2.80476e-19 5.0466e-19 -0.00765932)
(-2.15162e-19 4.1283e-19 -0.00765933)
(-1.06827e-18 5.55838e-19 -0.00765933)
(-1.59114e-18 5.14793e-19 -0.00765932)
(-9.77536e-19 8.75001e-19 -0.00765929)
(-7.52828e-19 6.43127e-19 -0.00765926)
(-1.08629e-18 5.87031e-19 -0.00765921)
(-1.03891e-18 4.75134e-19 -0.00765915)
(-1.14239e-18 3.85659e-19 -0.00765908)
(-1.06565e-18 -2.61394e-19 -0.007659)
(-1.90322e-18 -1.65279e-19 -0.00765891)
(-6.53679e-19 4.57605e-19 -0.00765656)
(-4.36665e-19 2.00729e-19 -0.00765668)
(-5.52981e-19 3.62954e-19 -0.00765681)
(-6.15263e-19 5.6555e-19 -0.00765694)
(-6.04266e-19 3.80181e-19 -0.00765708)
(-6.31906e-19 1.83251e-19 -0.00765723)
(-5.11065e-19 1.39848e-19 -0.00765737)
(-3.71616e-19 8.18887e-20 -0.00765752)
(-4.87121e-19 -8.04975e-20 -0.00765766)
(-4.97107e-19 -3.56413e-20 -0.00765781)
(-5.4346e-19 1.30594e-19 -0.00765795)
(-3.54174e-19 1.74029e-19 -0.00765809)
(-2.22551e-19 1.69644e-19 -0.00765822)
(-1.5832e-19 2.09071e-19 -0.00765834)
(-8.20584e-20 -3.64297e-20 -0.00765846)
(-4.89404e-19 2.50763e-19 -0.00765857)
(-5.70532e-19 1.21929e-19 -0.00765867)
(-4.91437e-19 4.05352e-19 -0.00765876)
(-3.23499e-19 4.06021e-19 -0.00765885)
(-3.04581e-19 4.30956e-19 -0.00765892)
(-2.28386e-19 4.03664e-19 -0.00765898)
(-2.92234e-19 5.69747e-19 -0.00765903)
(-4.65993e-19 4.06368e-19 -0.00765906)
(-2.85782e-19 4.47453e-19 -0.00765909)
(-1.98242e-19 4.3858e-19 -0.0076591)
(-1.05803e-18 6.29796e-19 -0.0076591)
(-1.50227e-18 5.2949e-19 -0.00765909)
(-9.12666e-19 1.00234e-18 -0.00765906)
(-8.22538e-19 8.51902e-19 -0.00765903)
(-1.12199e-18 6.9341e-19 -0.00765898)
(-1.01528e-18 6.80538e-19 -0.00765892)
(-1.21692e-18 8.92521e-19 -0.00765885)
(-1.1934e-18 2.47293e-19 -0.00765877)
(-2.67249e-18 1.16857e-19 -0.00765867)
(-7.1386e-19 4.33942e-19 -0.00765634)
(-4.92545e-19 1.98487e-19 -0.00765646)
(-4.50266e-19 3.38403e-19 -0.00765659)
(-5.82267e-19 5.08343e-19 -0.00765672)
(-5.85395e-19 2.08241e-19 -0.00765686)
(-6.39487e-19 8.7061e-20 -0.007657)
(-5.40564e-19 9.1602e-20 -0.00765715)
(-4.00135e-19 2.11189e-20 -0.00765729)
(-4.81052e-19 -1.26232e-19 -0.00765744)
(-4.30721e-19 -4.87139e-20 -0.00765758)
(-5.24824e-19 2.03605e-19 -0.00765772)
(-3.98098e-19 2.6008e-19 -0.00765786)
(-2.4834e-19 1.94199e-19 -0.00765799)
(-2.30478e-19 1.92955e-19 -0.00765811)
(-6.86286e-20 -1.09341e-19 -0.00765823)
(-3.86229e-19 7.47027e-20 -0.00765834)
(-5.23413e-19 1.37815e-20 -0.00765844)
(-4.70276e-19 7.72701e-20 -0.00765853)
(-2.26162e-19 -5.4225e-20 -0.00765862)
(-2.16919e-19 4.15735e-19 -0.00765869)
(-1.9784e-19 3.4333e-19 -0.00765875)
(-2.76684e-19 4.08623e-19 -0.00765879)
(-4.93892e-19 4.1825e-19 -0.00765883)
(-2.69254e-19 3.93494e-19 -0.00765886)
(-1.39661e-19 4.23e-19 -0.00765887)
(-1.04744e-18 3.62913e-19 -0.00765887)
(-1.43339e-18 6.03143e-19 -0.00765886)
(-8.29254e-19 9.81178e-19 -0.00765883)
(-8.93357e-19 9.22154e-19 -0.0076588)
(-1.17674e-18 7.06006e-19 -0.00765875)
(-9.4171e-19 8.23777e-19 -0.00765869)
(-1.26631e-18 1.00712e-18 -0.00765862)
(-1.3858e-18 7.18391e-19 -0.00765853)
(-4.13398e-18 5.99448e-19 -0.00765844)
(-7.00728e-19 4.0359e-19 -0.00765613)
(-5.70354e-19 2.19275e-19 -0.00765624)
(-3.91834e-19 3.13958e-19 -0.00765637)
(-5.67116e-19 4.478e-19 -0.0076565)
(-5.85118e-19 4.96991e-20 -0.00765664)
(-6.3364e-19 5.37648e-20 -0.00765678)
(-5.70316e-19 7.31326e-20 -0.00765692)
(-4.42885e-19 1.92585e-21 -0.00765707)
(-5.12431e-19 -8.29974e-20 -0.00765721)
(-3.51879e-19 -7.3955e-20 -0.00765736)
(-4.38578e-19 1.52048e-19 -0.0076575)
(-4.10015e-19 1.87797e-19 -0.00765763)
(-2.754e-19 1.62034e-19 -0.00765776)
(-2.93599e-19 1.5431e-19 -0.00765789)
(-9.15283e-20 -1.14651e-19 -0.007658)
(-3.23598e-19 -1.83099e-20 -0.00765811)
(-5.24177e-19 -5.36274e-20 -0.00765821)
(-4.71872e-19 -4.96004e-20 -0.0076583)
(-1.42629e-19 2.03771e-20 -0.00765839)
(-1.40401e-19 4.91614e-19 -0.00765846)
(-2.16789e-19 3.09742e-19 -0.00765852)
(-2.28866e-19 2.98595e-19 -0.00765856)
(-4.74442e-19 4.23032e-19 -0.0076586)
(-2.91663e-19 4.9501e-19 -0.00765862)
(-2.13395e-19 4.4157e-19 -0.00765864)
(-1.00386e-18 1.28909e-19 -0.00765864)
(-1.24066e-18 7.60125e-19 -0.00765862)
(-7.86471e-19 9.10501e-19 -0.0076586)
(-9.70188e-19 8.9913e-19 -0.00765856)
(-1.18419e-18 7.16261e-19 -0.00765852)
(-8.83831e-19 9.87066e-19 -0.00765846)
(-1.3064e-18 9.62787e-19 -0.00765838)
(-1.5162e-18 1.08984e-18 -0.0076583)
(-5.4767e-18 2.08845e-18 -0.00765821)
(-6.98647e-19 3.79376e-19 -0.00765591)
(-6.12283e-19 1.76673e-19 -0.00765602)
(-3.60073e-19 3.09433e-19 -0.00765615)
(-5.15972e-19 3.01283e-19 -0.00765628)
(-5.89743e-19 -4.48611e-20 -0.00765642)
(-6.20328e-19 3.98884e-20 -0.00765656)
(-5.81843e-19 2.72585e-20 -0.0076567)
(-4.89618e-19 4.5198e-20 -0.00765684)
(-5.79056e-19 -1.07635e-20 -0.00765699)
(-3.66825e-19 -3.2342e-20 -0.00765713)
(-3.91299e-19 1.30712e-19 -0.00765727)
(-3.67527e-19 8.77756e-20 -0.0076574)
(-2.65878e-19 1.37136e-19 -0.00765753)
(-3.53515e-19 1.44411e-19 -0.00765766)
(-1.4885e-19 -4.75705e-20 -0.00765778)
(-2.98556e-19 2.32333e-20 -0.00765788)
(-5.10261e-19 -3.39859e-20 -0.00765798)
(-4.80749e-19 1.1286e-19 -0.00765808)
(-7.98251e-20 2.95735e-19 -0.00765816)
(-1.09705e-19 5.87904e-19 -0.00765823)
(-2.71232e-19 3.55991e-19 -0.00765828)
(-2.07064e-19 2.3758e-19 -0.00765833)
(-4.11948e-19 4.23494e-19 -0.00765837)
(-2.76557e-19 6.32337e-19 -0.00765839)
(-2.96794e-19 5.10117e-19 -0.00765841)
(-9.30314e-19 3.19223e-19 -0.00765841)
(-1.10868e-18 8.30426e-19 -0.00765839)
(-7.90346e-19 8.7124e-19 -0.00765837)
(-1.01176e-18 9.21859e-19 -0.00765833)
(-1.14395e-18 8.43347e-19 -0.00765828)
(-8.44318e-19 1.10018e-18 -0.00765822)
(-1.29455e-18 1.04631e-18 -0.00765815)
(-1.25995e-18 1.36553e-18 -0.00765807)
(-3.62088e-18 2.85815e-18 -0.00765798)
(-6.34463e-19 2.79523e-19 -0.00765569)
(-7.09266e-19 2.20806e-19 -0.0076558)
(-3.73034e-19 2.98803e-19 -0.00765593)
(-4.39275e-19 9.3614e-20 -0.00765606)
(-5.91749e-19 -8.31687e-20 -0.0076562)
(-5.88566e-19 -8.92034e-21 -0.00765634)
(-5.8792e-19 3.32978e-20 -0.00765648)
(-5.20185e-19 1.28695e-19 -0.00765662)
(-6.35797e-19 7.65084e-20 -0.00765677)
(-4.27661e-19 1.55744e-19 -0.00765691)
(-4.54037e-19 3.15134e-19 -0.00765705)
(-3.72508e-19 1.46002e-20 -0.00765718)
(-2.47007e-19 1.25775e-19 -0.00765731)
(-3.89303e-19 1.83156e-19 -0.00765743)
(-1.98168e-19 9.71039e-20 -0.00765755)
(-3.17262e-19 1.71908e-19 -0.00765766)
(-5.00573e-19 1.07352e-19 -0.00765776)
(-4.45437e-19 3.43197e-19 -0.00765785)
(-6.15547e-20 5.80355e-19 -0.00765793)
(-1.17468e-19 6.38338e-19 -0.007658)
(-3.64462e-19 4.57932e-19 -0.00765805)
(-1.9341e-19 2.40316e-19 -0.0076581)
(-3.16325e-19 4.62486e-19 -0.00765814)
(-2.66355e-19 6.74399e-19 -0.00765816)
(-3.45154e-19 5.68718e-19 -0.00765817)
(-8.83005e-19 4.08973e-19 -0.00765817)
(-1.03126e-18 6.65121e-19 -0.00765816)
(-7.71732e-19 8.75363e-19 -0.00765814)
(-1.01246e-18 9.781e-19 -0.0076581)
(-1.09011e-18 1.07309e-18 -0.00765805)
(-8.16911e-19 1.20002e-18 -0.00765799)
(-1.211e-18 1.27126e-18 -0.00765792)
(-9.36836e-19 1.65674e-18 -0.00765784)
(-2.15712e-18 2.69727e-18 -0.00765775)
(-4.95881e-19 1.37402e-19 -0.00765547)
(-7.67355e-19 2.8246e-19 -0.00765559)
(-4.42682e-19 2.39922e-19 -0.00765571)
(-3.84781e-19 -7.6673e-20 -0.00765584)
(-5.98424e-19 -4.66334e-20 -0.00765598)
(-5.45219e-19 -5.47403e-20 -0.00765612)
(-5.69574e-19 5.49174e-20 -0.00765626)
(-5.41227e-19 2.05802e-19 -0.0076564)
(-6.87335e-19 2.18922e-19 -0.00765654)
(-4.85622e-19 4.08558e-19 -0.00765669)
(-5.79259e-19 4.80064e-19 -0.00765682)
(-4.49284e-19 1.30946e-20 -0.00765696)
(-2.10899e-19 1.65131e-19 -0.00765708)
(-3.94327e-19 2.31773e-19 -0.00765721)
(-2.31193e-19 2.33914e-19 -0.00765732)
(-3.22796e-19 3.11252e-19 -0.00765743)
(-5.12024e-19 3.79209e-19 -0.00765753)
(-4.08573e-19 5.52985e-19 -0.00765762)
(-5.92029e-20 7.88139e-19 -0.0076577)
(-1.40565e-19 6.41055e-19 -0.00765777)
(-4.44621e-19 5.84116e-19 -0.00765782)
(-2.18399e-19 3.56369e-19 -0.00765787)
(-2.43572e-19 5.07936e-19 -0.00765791)
(-2.35096e-19 6.13716e-19 -0.00765793)
(-4.0397e-19 5.56212e-19 -0.00765794)
(-8.99341e-19 4.43057e-19 -0.00765794)
(-9.3891e-19 7.95975e-19 -0.00765793)
(-6.92508e-19 8.83331e-19 -0.00765791)
(-9.70844e-19 9.33031e-19 -0.00765787)
(-1.03023e-18 1.24634e-18 -0.00765782)
(-7.76892e-19 1.33201e-18 -0.00765776)
(-1.07776e-18 1.52037e-18 -0.00765769)
(-6.95957e-19 2.01193e-18 -0.00765761)
(-1.47095e-18 2.40482e-18 -0.00765752)
(-3.99362e-19 8.37047e-20 -0.00765525)
(-7.2313e-19 2.34788e-19 -0.00765537)
(-4.82172e-19 9.4713e-20 -0.00765549)
(-3.93856e-19 -1.01404e-19 -0.00765562)
(-6.05492e-19 7.01107e-21 -0.00765576)
(-5.6572e-19 -2.30572e-20 -0.0076559)
(-5.32981e-19 8.88142e-20 -0.00765604)
(-5.06788e-19 2.68101e-19 -0.00765618)
(-7.01079e-19 3.67137e-19 -0.00765632)
(-5.11546e-19 5.60249e-19 -0.00765647)
(-6.33985e-19 3.90958e-19 -0.0076566)
(-6.06383e-19 1.8491e-19 -0.00765673)
(-2.22166e-19 2.76718e-19 -0.00765686)
(-3.70652e-19 2.22758e-19 -0.00765698)
(-2.18832e-19 2.704e-19 -0.0076571)
(-2.62129e-19 3.20764e-19 -0.0076572)
(-5.00175e-19 6.11486e-19 -0.0076573)
(-3.94932e-19 7.45053e-19 -0.00765739)
(-8.09651e-20 8.44621e-19 -0.00765747)
(-1.59233e-19 5.82581e-19 -0.00765754)
(-4.85723e-19 6.31626e-19 -0.0076576)
(-2.45372e-19 4.02823e-19 -0.00765764)
(-2.19775e-19 5.41511e-19 -0.00765768)
(-2.41395e-19 5.66038e-19 -0.0076577)
(-4.1424e-19 5.9278e-19 -0.00765771)
(-7.99541e-19 5.91437e-19 -0.00765771)
(-8.59468e-19 1.06113e-18 -0.0076577)
(-7.35603e-19 9.99372e-19 -0.00765768)
(-9.19707e-19 8.78428e-19 -0.00765764)
(-9.28918e-19 1.3313e-18 -0.0076576)
(-7.20909e-19 1.40693e-18 -0.00765754)
(-9.0827e-19 1.69029e-18 -0.00765747)
(-5.61622e-19 2.21261e-18 -0.00765739)
(-1.18307e-18 2.11189e-18 -0.00765729)
(-3.32854e-19 8.95973e-20 -0.00765503)
(-6.80529e-19 1.48769e-19 -0.00765515)
(-5.2375e-19 2.79767e-20 -0.00765527)
(-4.72462e-19 6.31593e-20 -0.0076554)
(-5.86865e-19 3.13866e-20 -0.00765554)
(-5.97574e-19 4.61505e-20 -0.00765568)
(-5.42133e-19 1.63587e-19 -0.00765582)
(-4.18759e-19 2.13907e-19 -0.00765596)
(-6.85795e-19 4.50337e-19 -0.0076561)
(-5.38271e-19 5.35303e-19 -0.00765624)
(-6.09435e-19 2.17459e-19 -0.00765638)
(-6.74153e-19 3.47971e-19 -0.00765651)
(-3.12403e-19 4.27998e-19 -0.00765664)
(-3.81288e-19 1.8437e-19 -0.00765676)
(-2.1672e-19 2.83517e-19 -0.00765688)
(-1.51761e-19 2.63357e-19 -0.00765698)
(-4.04226e-19 6.91501e-19 -0.00765708)
(-3.94138e-19 7.94782e-19 -0.00765717)
(-1.07196e-19 6.60054e-19 -0.00765725)
(-1.76676e-19 5.4305e-19 -0.00765731)
(-4.98186e-19 5.14469e-19 -0.00765737)
(-2.63685e-19 3.58699e-19 -0.00765742)
(-1.80744e-19 5.05421e-19 -0.00765745)
(-2.12853e-19 5.80548e-19 -0.00765748)
(-3.97526e-19 6.17617e-19 -0.00765749)
(-7.2879e-19 7.35384e-19 -0.00765749)
(-7.9142e-19 1.06816e-18 -0.00765748)
(-7.69673e-19 1.16553e-18 -0.00765745)
(-8.88342e-19 8.37996e-19 -0.00765742)
(-8.3467e-19 1.41622e-18 -0.00765737)
(-6.61643e-19 1.4232e-18 -0.00765731)
(-7.52701e-19 1.79918e-18 -0.00765724)
(-5.94468e-19 2.01779e-18 -0.00765716)
(-1.07381e-18 1.86753e-18 -0.00765707)
(-2.59561e-19 7.45265e-20 -0.00765481)
(-6.35342e-19 1.11439e-19 -0.00765492)
(-5.5138e-19 5.08696e-20 -0.00765505)
(-5.49759e-19 1.83955e-19 -0.00765518)
(-6.32729e-19 7.81962e-20 -0.00765532)
(-5.83893e-19 5.61822e-20 -0.00765546)
(-6.02209e-19 2.58666e-19 -0.0076556)
(-3.32662e-19 1.55629e-19 -0.00765574)
(-6.00452e-19 4.33066e-19 -0.00765588)
(-5.46066e-19 4.08612e-19 -0.00765602)
(-6.04186e-19 1.62034e-19 -0.00765616)
(-6.76637e-19 4.4654e-19 -0.00765629)
(-3.90042e-19 4.97924e-19 -0.00765642)
(-4.20419e-19 1.76705e-19 -0.00765654)
(-2.44661e-19 3.97035e-19 -0.00765665)
(-8.67803e-20 3.12849e-19 -0.00765676)
(-2.88526e-19 6.42423e-19 -0.00765686)
(-4.11152e-19 6.7632e-19 -0.00765694)
(-1.21974e-19 4.8622e-19 -0.00765702)
(-1.85337e-19 6.03803e-19 -0.00765709)
(-5.21996e-19 3.88034e-19 -0.00765715)
(-2.61501e-19 4.0096e-19 -0.00765719)
(-1.34243e-19 4.9699e-19 -0.00765723)
(-1.95385e-19 5.31947e-19 -0.00765725)
(-3.57247e-19 3.788e-19 -0.00765726)
(-6.44625e-19 7.29368e-19 -0.00765726)
(-7.2274e-19 1.00715e-18 -0.00765725)
(-8.30678e-19 1.21607e-18 -0.00765723)
(-8.52826e-19 9.56198e-19 -0.00765719)
(-7.19513e-19 1.50962e-18 -0.00765715)
(-6.061e-19 1.43092e-18 -0.00765709)
(-6.96776e-19 1.85065e-18 -0.00765702)
(-6.87922e-19 1.76076e-18 -0.00765694)
(-8.97363e-19 1.84328e-18 -0.00765684)
(2.50287e-19 2.71322e-18 -0.00765674)
(-2.12099e-19 6.92091e-20 -0.00765458)
(-5.83769e-19 7.83107e-20 -0.0076547)
(-5.39838e-19 3.27497e-20 -0.00765483)
(-5.33214e-19 2.01781e-19 -0.00765496)
(-6.41665e-19 4.82873e-20 -0.00765509)
(-5.61306e-19 5.38176e-20 -0.00765523)
(-6.52199e-19 3.39601e-19 -0.00765538)
(-3.52898e-19 1.98004e-19 -0.00765552)
(-5.13909e-19 3.33755e-19 -0.00765566)
(-5.38844e-19 2.98455e-19 -0.0076558)
(-5.74212e-19 1.78936e-19 -0.00765594)
(-6.5915e-19 5.15146e-19 -0.00765607)
(-4.35677e-19 4.10429e-19 -0.0076562)
(-4.43781e-19 2.13029e-19 -0.00765632)
(-2.54139e-19 4.89449e-19 -0.00765643)
(-7.34759e-20 3.64191e-19 -0.00765654)
(-1.98311e-19 4.86028e-19 -0.00765663)
(-4.06957e-19 5.15637e-19 -0.00765672)
(-1.29331e-19 5.97422e-19 -0.0076568)
(-1.96765e-19 6.65412e-19 -0.00765687)
(-5.59163e-19 4.18813e-19 -0.00765692)
(-2.68836e-19 6.9988e-19 -0.00765697)
(-1.3196e-19 5.2138e-19 -0.007657)
(-2.44558e-19 4.08672e-19 -0.00765703)
(-3.23045e-19 5.74679e-20 -0.00765704)
(-5.19987e-19 6.04423e-19 -0.00765704)
(-6.5186e-19 7.88149e-19 -0.00765703)
(-8.23045e-19 1.05004e-18 -0.007657)
(-7.99495e-19 9.85805e-19 -0.00765697)
(-6.78158e-19 1.52258e-18 -0.00765692)
(-5.77955e-19 1.39357e-18 -0.00765686)
(-6.92727e-19 1.736e-18 -0.00765679)
(-7.21448e-19 1.70527e-18 -0.00765671)
(-6.93176e-19 1.96174e-18 -0.00765662)
(2.15722e-19 2.63849e-18 -0.00765652)
(-2.21326e-19 1.33016e-19 -0.00765436)
(-5.52251e-19 7.68255e-20 -0.00765448)
(-5.13739e-19 7.95955e-21 -0.0076546)
(-5.16406e-19 1.63221e-19 -0.00765473)
(-6.35646e-19 -1.29094e-20 -0.00765487)
(-4.99146e-19 5.26451e-20 -0.00765501)
(-6.1357e-19 2.78485e-19 -0.00765515)
(-4.30784e-19 3.14027e-19 -0.0076553)
(-4.51789e-19 2.39926e-19 -0.00765544)
(-5.47769e-19 2.93992e-19 -0.00765558)
(-5.41209e-19 2.0704e-19 -0.00765572)
(-6.40787e-19 4.80246e-19 -0.00765585)
(-4.63887e-19 3.11679e-19 -0.00765598)
(-4.54918e-19 3.07322e-19 -0.0076561)
(-2.69948e-19 5.63646e-19 -0.00765621)
(-8.22587e-20 3.25186e-19 -0.00765631)
(-1.36353e-19 3.3887e-19 -0.00765641)
(-3.19904e-19 3.72162e-19 -0.0076565)
(-1.01213e-19 6.63651e-19 -0.00765658)
(-2.1882e-19 6.42707e-19 -0.00765664)
(-5.32932e-19 5.67665e-19 -0.0076567)
(-2.96356e-19 1.03868e-18 -0.00765675)
(-2.34411e-19 5.43024e-19 -0.00765678)
(-3.49567e-19 3.52662e-19 -0.0076568)
(-2.88848e-19 -7.24465e-21 -0.00765681)
(-4.05308e-19 5.03981e-19 -0.00765681)
(-6.07864e-19 6.05418e-19 -0.0076568)
(-8.15204e-19 8.45791e-19 -0.00765678)
(-7.32591e-19 7.74233e-19 -0.00765674)
(-6.23737e-19 1.33107e-18 -0.0076567)
(-5.89064e-19 1.28544e-18 -0.00765664)
(-7.07996e-19 1.43743e-18 -0.00765657)
(-6.78155e-19 1.69167e-18 -0.00765649)
(-5.5363e-19 1.84398e-18 -0.00765639)
(1.30163e-19 2.41564e-18 -0.00765629)
(-2.62412e-19 2.53442e-19 -0.00765413)
(-5.73923e-19 1.07244e-19 -0.00765425)
(-5.10302e-19 -9.50218e-21 -0.00765438)
(-4.73594e-19 1.25478e-19 -0.00765451)
(-6.78417e-19 2.03303e-20 -0.00765465)
(-4.72267e-19 2.8797e-20 -0.00765479)
(-5.13749e-19 1.8581e-19 -0.00765493)
(-5.25274e-19 4.85492e-19 -0.00765507)
(-4.42577e-19 2.02376e-19 -0.00765522)
(-5.63336e-19 3.49971e-19 -0.00765536)
(-5.17836e-19 2.03631e-19 -0.00765549)
(-6.18659e-19 4.36305e-19 -0.00765563)
(-4.92102e-19 3.231e-19 -0.00765575)
(-4.74894e-19 5.24369e-19 -0.00765587)
(-3.17724e-19 6.31945e-19 -0.00765599)
(-1.51217e-19 3.83287e-19 -0.00765609)
(-1.41234e-19 4.25958e-19 -0.00765619)
(-2.58965e-19 3.15007e-19 -0.00765628)
(-3.21126e-20 6.10197e-19 -0.00765635)
(-1.76305e-19 5.22169e-19 -0.00765642)
(-4.47819e-19 6.01803e-19 -0.00765648)
(-3.17623e-19 1.04161e-18 -0.00765652)
(-3.62856e-19 5.07744e-19 -0.00765656)
(-4.35309e-19 3.36933e-19 -0.00765658)
(-2.77489e-19 1.42833e-19 -0.00765659)
(-3.2184e-19 5.17582e-19 -0.00765659)
(-5.68786e-19 6.11669e-19 -0.00765658)
(-8.13687e-19 8.08913e-19 -0.00765656)
(-6.80293e-19 7.37075e-19 -0.00765652)
(-5.78626e-19 1.07726e-18 -0.00765647)
(-6.14193e-19 1.16293e-18 -0.00765641)
(-6.84775e-19 1.23065e-18 -0.00765634)
(-6.5016e-19 1.57605e-18 -0.00765626)
(-5.38847e-19 1.47722e-18 -0.00765617)
(-2.52824e-19 3.31238e-19 -0.0076539)
(-5.38325e-19 2.58242e-20 -0.00765402)
(-5.49558e-19 1.3297e-20 -0.00765415)
(-4.44933e-19 1.13318e-19 -0.00765428)
(-7.00437e-19 2.33169e-20 -0.00765442)
(-4.97443e-19 6.33758e-20 -0.00765456)
(-4.32509e-19 2.0848e-19 -0.0076547)
(-5.7061e-19 6.0224e-19 -0.00765485)
(-4.55409e-19 1.67163e-19 -0.00765499)
(-5.78234e-19 3.808e-19 -0.00765513)
(-5.13332e-19 2.07333e-19 -0.00765527)
(-5.98533e-19 4.30238e-19 -0.0076554)
(-4.78236e-19 3.79847e-19 -0.00765553)
(-4.5747e-19 5.91481e-19 -0.00765565)
(-3.46786e-19 5.81709e-19 -0.00765576)
(-1.9282e-19 4.93096e-19 -0.00765587)
(-1.95134e-19 5.93668e-19 -0.00765596)
(-2.51339e-19 3.24959e-19 -0.00765605)
(-1.26001e-21 5.52584e-19 -0.00765613)
(-1.48055e-19 3.54774e-19 -0.0076562)
(-3.49216e-19 4.89911e-19 -0.00765625)
(-2.97211e-19 6.48602e-19 -0.0076563)
(-4.63118e-19 4.23244e-19 -0.00765633)
(-4.82206e-19 3.25599e-19 -0.00765635)
(-2.37876e-19 3.2685e-19 -0.00765637)
(-2.5529e-19 5.25622e-19 -0.00765637)
(-5.36624e-19 6.49845e-19 -0.00765635)
(-8.14407e-19 7.74625e-19 -0.00765633)
(-6.70347e-19 7.07323e-19 -0.00765629)
(-5.50221e-19 9.28564e-19 -0.00765625)
(-6.082e-19 1.0793e-18 -0.00765619)
(-6.67115e-19 1.105e-18 -0.00765612)
(-6.71168e-19 1.50051e-18 -0.00765603)
(-5.35277e-19 1.24433e-18 -0.00765594)
(-1.72894e-19 2.41553e-19 -0.00765367)
(-4.17887e-19 -1.60609e-19 -0.00765379)
(-5.80746e-19 8.35351e-20 -0.00765392)
(-4.35579e-19 1.18808e-19 -0.00765405)
(-7.01445e-19 2.60649e-20 -0.00765419)
(-5.65909e-19 1.90565e-19 -0.00765433)
(-3.55835e-19 2.22539e-19 -0.00765448)
(-5.25992e-19 4.75573e-19 -0.00765462)
(-4.96437e-19 1.73292e-19 -0.00765476)
(-5.71459e-19 4.02179e-19 -0.0076549)
(-5.24596e-19 2.50601e-19 -0.00765504)
(-5.69707e-19 4.13544e-19 -0.00765517)
(-4.93149e-19 4.27867e-19 -0.0076553)
(-4.14846e-19 4.95304e-19 -0.00765542)
(-3.28443e-19 4.79427e-19 -0.00765554)
(-1.68274e-19 4.6703e-19 -0.00765564)
(-2.07296e-19 5.4877e-19 -0.00765574)
(-2.70918e-19 2.82698e-19 -0.00765582)
(1.93718e-20 4.40189e-19 -0.0076559)
(-1.28013e-19 2.41793e-19 -0.00765597)
(-3.22745e-19 3.91439e-19 -0.00765603)
(-2.71561e-19 3.06825e-19 -0.00765607)
(-4.64171e-19 3.65467e-19 -0.00765611)
(-4.84366e-19 3.71987e-19 -0.00765613)
(-2.20014e-19 5.37865e-19 -0.00765614)
(-2.21259e-19 4.13152e-19 -0.00765614)
(-5.13992e-19 6.49913e-19 -0.00765613)
(-8.47364e-19 6.09336e-19 -0.0076561)
(-6.56572e-19 6.68985e-19 -0.00765607)
(-5.10756e-19 7.82856e-19 -0.00765602)
(-6.17728e-19 1.01821e-18 -0.00765596)
(-6.24228e-19 1.02496e-18 -0.00765589)
(-6.73046e-19 1.41944e-18 -0.0076558)
(-5.4289e-19 1.22081e-18 -0.00765571)
(-1.42598e-19 1.23045e-19 -0.00765344)
(-2.72882e-19 -3.00751e-19 -0.00765356)
(-5.38438e-19 1.04404e-19 -0.00765369)
(-4.4814e-19 1.3723e-19 -0.00765382)
(-6.78566e-19 3.98589e-20 -0.00765396)
(-6.53405e-19 3.20315e-19 -0.0076541)
(-3.6589e-19 2.39071e-19 -0.00765425)
(-4.50987e-19 3.74402e-19 -0.00765439)
(-5.43161e-19 3.26333e-19 -0.00765454)
(-5.85936e-19 4.468e-19 -0.00765468)
(-5.55566e-19 3.0824e-19 -0.00765481)
(-5.36828e-19 3.77678e-19 -0.00765495)
(-5.04217e-19 4.77577e-19 -0.00765507)
(-4.08489e-19 4.2901e-19 -0.0076552)
(-3.31717e-19 4.27672e-19 -0.00765531)
(-1.49926e-19 4.18984e-19 -0.00765541)
(-1.96125e-19 4.12171e-19 -0.00765551)
(-2.7444e-19 2.27699e-19 -0.0076556)
(3.64036e-20 3.19516e-19 -0.00765568)
(-1.17738e-19 2.37584e-19 -0.00765574)
(-3.13588e-19 4.22705e-19 -0.0076558)
(-2.69645e-19 2.95571e-19 -0.00765584)
(-4.43629e-19 3.50191e-19 -0.00765588)
(-4.47444e-19 4.29635e-19 -0.0076559)
(-2.30351e-19 6.7616e-19 -0.00765591)
(-2.24648e-19 2.61905e-19 -0.00765591)
(-5.04961e-19 5.91447e-19 -0.0076559)
(-8.73283e-19 4.1579e-19 -0.00765588)
(-6.40501e-19 6.24859e-19 -0.00765584)
(-4.94558e-19 6.02418e-19 -0.00765579)
(-5.94637e-19 8.97459e-19 -0.00765573)
(-5.80942e-19 1.09634e-18 -0.00765566)
(-6.86947e-19 1.30716e-18 -0.00765557)
(-5.38754e-19 1.13114e-18 -0.00765547)
(-1.8864e-19 7.78911e-20 -0.00765321)
(-2.12785e-19 -3.48344e-19 -0.00765333)
(-4.44861e-19 1.07367e-19 -0.00765346)
(-4.09083e-19 1.01229e-19 -0.00765359)
(-6.50554e-19 7.31535e-20 -0.00765373)
(-7.12061e-19 4.41489e-19 -0.00765387)
(-4.70154e-19 4.22011e-19 -0.00765402)
(-4.51708e-19 4.4328e-19 -0.00765416)
(-5.80378e-19 4.51239e-19 -0.00765431)
(-6.1651e-19 4.83626e-19 -0.00765445)
(-5.75259e-19 2.91407e-19 -0.00765459)
(-5.00981e-19 3.27991e-19 -0.00765472)
(-5.08648e-19 4.75158e-19 -0.00765485)
(-4.13958e-19 3.88801e-19 -0.00765497)
(-3.33966e-19 4.20362e-19 -0.00765508)
(-1.64086e-19 4.416e-19 -0.00765519)
(-2.04746e-19 3.53399e-19 -0.00765528)
(-2.94155e-19 2.12248e-19 -0.00765537)
(6.39618e-20 2.61582e-19 -0.00765545)
(-7.48223e-20 3.15128e-19 -0.00765551)
(-3.07254e-19 5.01016e-19 -0.00765557)
(-2.9452e-19 3.62985e-19 -0.00765562)
(-4.27435e-19 3.41035e-19 -0.00765565)
(-4.00013e-19 4.60363e-19 -0.00765567)
(-2.74741e-19 6.80847e-19 -0.00765569)
(-2.52985e-19 1.57738e-19 -0.00765568)
(-5.04603e-19 4.11584e-19 -0.00765567)
(-8.98663e-19 3.18595e-19 -0.00765565)
(-6.2626e-19 5.48387e-19 -0.00765561)
(-4.75924e-19 4.89708e-19 -0.00765556)
(-5.36831e-19 7.30298e-19 -0.0076555)