/*--------------------------------*- C++ -*----------------------------------*\
  =========                 |
  \\      /  F ield         | OpenFOAM: The Open Source CFD Toolbox
   \\    /   O peration     | Website:  https://openfoam.org
    \\  /    A nd           | Version:  7
     \\/     M anipulation  |
\*---------------------------------------------------------------------------*/
FoamFile
{
    version     2.0;
    format      ascii;
    class       volScalarField;
    location    "44000";
    object      strainRate;
}
// * * * * * * * * * * * * * * * * * * * * * * * * * * * * * * * * * * * * * //

dimensions      [0 0 -1 0 0 0 0];

internalField   nonuniform List<scalar> 
4764
(
0.000309694
0.000310833
0.00031203
0.000313096
0.000314062
0.000315161
0.000275423
0.00027507
0.000276166
0.000278249
0.000280936
0.000283912
0.000286926
0.000289738
0.000292039
0.000293196
0.000295024
0.000296943
0.000298764
0.00030048
0.000302251
0.000304672
0.000305941
0.000306628
0.000306974
0.000307086
0.000307006
0.000306746
0.000306302
0.000305651
0.000304759
0.000303717
0.00030254
0.000301185
0.000299915
0.000282052
0.000275145
0.000271088
0.000269169
0.0002688
0.000269497
0.000270871
0.000272573
0.000274265
0.000275762
0.000277519
0.00027947
0.00028145
0.000283402
0.000285363
0.000287375
0.000288863
0.000289792
0.000290315
0.000290523
0.000290457
0.000290133
0.000289552
0.000288701
0.00028756
0.000286259
0.000284862
0.000283337
0.000281959
0.000281375
0.000279746
0.000277848
0.000276308
0.000317493
0.000299097
0.000285926
0.000276737
0.000270559
0.000266624
0.00026432
0.000263144
0.000262696
0.000263026
0.000263578
0.000264564
0.000265834
0.000267269
0.000268781
0.00027001
0.000271268
0.000272129
0.000272635
0.000272846
0.000272795
0.000272499
0.000271966
0.000271199
0.000270209
0.000269144
0.000268108
0.000267115
0.000266404
0.000266098
0.000265746
0.000265677
0.000266524
0.000269417
0.000272398
0.000276671
0.000283049
0.000292375
0.000305649
0.000324158
0.000349573
0.000384102
0.00043068
0.000492943
0.000576107
0.000403904
0.000364789
0.000335424
0.000313441
0.000297066
0.000284955
0.000276056
0.000269562
0.000264889
0.000261941
0.000259767
0.000258496
0.00025794
0.000257901
0.000258182
0.000258327
0.000258838
0.000259238
0.000259472
0.000259559
0.000259521
0.000259375
0.000259136
0.00025883
0.000258503
0.000258317
0.000258416
0.000258877
0.000259913
0.000261344
0.000263766
0.000267269
0.0002725
0.000280132
0.000289774
0.000302381
0.000319145
0.000341484
0.000371212
0.000410761
0.000463282
0.000532984
0.000625519
0.000747754
0.000909657
0.000584663
0.000506575
0.000447072
0.000401581
0.000366726
0.000339992
0.000319413
0.000303528
0.00029131
0.000282246
0.000275107
0.000269737
0.000265821
0.000263036
0.000261064
0.00025944
0.000258573
0.000258023
0.000257662
0.000257465
0.000257437
0.000257594
0.000257964
0.000258598
0.000259586
0.00026112
0.000263394
0.000266572
0.000270892
0.000276247
0.000283679
0.000293438
0.000306328
0.000322881
0.000344263
0.000371655
0.000407097
0.000453169
0.000513298
0.000592136
0.000695537
0.000831142
0.00100896
0.00124025
0.00154063
0.000943903
0.000792547
0.000675925
0.000585806
0.000516
0.000461845
0.000419581
0.000386434
0.000360429
0.00034026
0.000324186
0.000311536
0.000301694
0.0002941
0.000288246
0.000283611
0.000280399
0.000278184
0.000276757
0.000276042
0.000276021
0.000276708
0.000278152
0.000280441
0.000283731
0.000288283
0.000294392
0.00030236
0.000312557
0.000325171
0.000341598
0.00036257
0.000389365
0.000423043
0.000466211
0.000521224
0.000591851
0.000682806
0.000800329
0.000952738
0.00114981
0.00140355
0.00172873
0.00213965
0.00265454
0.00162584
0.00134587
0.00112572
0.000952776
0.000817079
0.000710792
0.000627156
0.000561085
0.00050884
0.000467697
0.000434833
0.000408645
0.000387888
0.000371523
0.000358674
0.000348614
0.000341252
0.000336068
0.00033273
0.000331081
0.000331063
0.000332691
0.000336049
0.000341298
0.000348713
0.000358714
0.000371798
0.00038854
0.000409638
0.000435838
0.000469151
0.000511237
0.000564427
0.000631067
0.000715759
0.000823145
0.000959917
0.00113394
0.00135521
0.00163641
0.00199071
0.00243266
0.00297825
0.00363894
0.00442759
0.0028265
0.00235058
0.00196359
0.00165085
0.00139967
0.00119928
0.00103926
0.000911388
0.000809303
0.000728101
0.000663018
0.000610856
0.000569196
0.00053609
0.000509958
0.000489586
0.000474415
0.000463642
0.000456702
0.000453286
0.000453269
0.000456664
0.000463625
0.000474457
0.000489663
0.000510002
0.000536376
0.000569887
0.000611906
0.00066417
0.000729844
0.000812185
0.000915409
0.00104397
0.0012052
0.0014069
0.00165934
0.00197325
0.00236136
0.00283833
0.00341658
0.00410733
0.00491964
0.00585538
0.00691558
0.00472043
0.00400258
0.00339271
0.00288037
0.00245445
0.00210431
0.00181751
0.00158344
0.0013932
0.00123954
0.00111511
0.00101447
0.000933405
0.000868521
0.000817059
0.000776928
0.0007468
0.000725292
0.000711417
0.000704598
0.000704578
0.000711373
0.000725264
0.000746822
0.000776974
0.000817099
0.000868826
0.00093416
0.00101563
0.0011165
0.0012417
0.00139671
0.00158826
0.00182312
0.00211118
0.00246267
0.00288978
0.00340309
0.00401371
0.00473202
0.00556374
0.00651078
0.00756983
0.00873196
0.00998872
0.00734202
0.00639584
0.00555431
0.00481635
0.00417748
0.00363146
0.00316868
0.00277944
0.00245451
0.00218573
0.00196388
0.00178149
0.00163251
0.00151187
0.00141532
0.00133959
0.00128229
0.00124114
0.00121452
0.00120142
0.00120139
0.00121445
0.00124109
0.00128227
0.00133957
0.00141533
0.00151217
0.0016333
0.00178273
0.00196548
0.00218827
0.00245852
0.0027848
0.00317481
0.00363864
0.00418572
0.00482541
0.00556384
0.00640549
0.00735136
0.00839815
0.00953824
0.0107592
0.0120469
0.0133919
0.0105315
0.00943233
0.00841517
0.00748694
0.00665086
0.00590715
0.0052531
0.00468376
0.00419307
0.00377461
0.00342016
0.00312215
0.0028739
0.00266942
0.0025035
0.0023719
0.0022713
0.00219845
0.00215107
0.00212771
0.00212767
0.00215097
0.00219833
0.00227119
0.00237178
0.00250342
0.00266963
0.00287459
0.00312331
0.00342179
0.00377723
0.00419708
0.0046889
0.00525879
0.00591344
0.00665769
0.00749402
0.00842216
0.0094389
0.0105372
0.0117081
0.01294
0.0142187
0.0155317
0.0168754
0.0140159
0.0128599
0.0117589
0.0107226
0.00975815
0.00887062
0.00806355
0.00733779
0.00669228
0.00612431
0.00562971
0.00520339
0.0048402
0.00453509
0.00428329
0.00408066
0.00392362
0.00380878
0.0037336
0.00369639
0.00369634
0.00373346
0.00380859
0.00392338
0.00408038
0.00428305
0.00453509
0.0048406
0.00520418
0.00563101
0.00612649
0.00669551
0.00734173
0.00806771
0.00887487
0.0097624
0.0107266
0.0117625
0.0128629
0.0140178
0.015218
0.0164532
0.0177125
0.0189878
0.0202825
0.0187159
0.0175472
0.0164074
0.0153034
0.0142435
0.0132351
0.0122844
0.0113977
0.0105795
0.00983239
0.00915751
0.00855508
0.00802374
0.00756137
0.00716541
0.00683306
0.00656155
0.0063482
0.00619059
0.00608669
0.00603506
0.00603499
0.0060865
0.0061903
0.0063478
0.00656107
0.00683259
0.00716509
0.00756129
0.00802393
0.0085557
0.00915876
0.00983423
0.0105815
0.0113997
0.0122862
0.0132365
0.0142444
0.0153038
0.0164072
0.0175463
0.0187139
0.0199032
0.0211073
0.0223215
0.0235544
0.0220931
0.0209818
0.0198926
0.0188305
0.0178013
0.0168109
0.0158642
0.0149674
0.0141257
0.0133435
0.0126235
0.0119688
0.011381
0.0108608
0.0104082
0.0100229
0.00970413
0.00945073
0.00926188
0.00913659
0.0090741
0.00907402
0.00913635
0.00926149
0.00945019
0.00970346
0.0100222
0.0104075
0.0108601
0.0113805
0.0119686
0.0126236
0.0133438
0.014126
0.0149673
0.0158637
0.0168099
0.0178
0.0188287
0.0198904
0.020979
0.02209
0.023219
0.0243617
0.0255153
0.0266912
0.0253267
0.0242729
0.0232406
0.0222335
0.0212556
0.020311
0.0194035
0.018538
0.0177189
0.0169503
0.0162355
0.0155783
0.0149816
0.0144477
0.0139783
0.0135748
0.0132378
0.0129678
0.0127652
0.0126302
0.0125627
0.0125626
0.0126299
0.0127648
0.0129671
0.013237
0.0135739
0.0139773
0.0144466
0.0149805
0.0155773
0.0162346
0.0169494
0.0177176
0.0185364
0.0194015
0.0203085
0.0212528
0.0222303
0.0232372
0.0242692
0.0253231
0.0263959
0.0274845
0.0285868
0.0297155
0.0294603
0.0284331
0.0274281
0.0264461
0.0254901
0.0245632
0.0236686
0.0228091
0.0219884
0.02121
0.0204774
0.0197934
0.0191616
0.018585
0.0180663
0.0176078
0.0172115
0.0168789
0.0166112
0.0164096
0.0162749
0.0162073
0.0162073
0.0162746
0.0164092
0.0166106
0.0168781
0.0172105
0.0176066
0.0180649
0.0185835
0.0191601
0.0197919
0.0204756
0.0212079
0.0219858
0.0228061
0.0236653
0.0245596
0.0254863
0.0264421
0.027424
0.0284293
0.0294555
0.0305
0.0315606
0.032651
0.0324274
0.0314382
0.0304725
0.0295314
0.0286177
0.027734
0.0268829
0.0260669
0.025289
0.024552
0.0238586
0.0232113
0.022613
0.0220664
0.0215741
0.0211382
0.0207608
0.0204434
0.0201875
0.0199945
0.0198653
0.0198006
0.0198005
0.019865
0.019994
0.0201868
0.0204425
0.0207597
0.0211369
0.0215726
0.0220648
0.0226112
0.0232093
0.0238564
0.0245494
0.025286
0.0260636
0.0268792
0.02773
0.0286135
0.0295272
0.0304682
0.0314343
0.0324229
0.0334315
0.0344579
0.0355162
0.0363007
0.0353218
0.034364
0.0334303
0.0325224
0.0316427
0.0307938
0.0299781
0.0291979
0.0284556
0.0277537
0.0270945
0.0264801
0.025913
0.0253954
0.0249294
0.0245171
0.0241602
0.02386
0.0236181
0.0234355
0.0233133
0.023252
0.0232519
0.023313
0.023435
0.0236174
0.0238591
0.0241591
0.0245158
0.0249279
0.0253936
0.025911
0.026478
0.027092
0.0277509
0.0284524
0.0291943
0.0299743
0.0307898
0.0316386
0.0325182
0.0334261
0.03436
0.0353174
0.0362959
0.037293
0.0383235
0.0391089
0.0381566
0.0372259
0.0363195
0.0354394
0.0345879
0.0337674
0.0329804
0.0322289
0.0315153
0.0308417
0.0302102
0.0296227
0.0290812
0.0285878
0.0281442
0.0277521
0.0274129
0.027128
0.0268985
0.0267254
0.0266095
0.0265514
0.0265513
0.0266092
0.0267249
0.0268978
0.0271271
0.0274118
0.0277507
0.0281426
0.028586
0.0290792
0.0296205
0.0302076
0.0308388
0.031512
0.0322254
0.0329766
0.0337634
0.0345837
0.0354352
0.0363154
0.037222
0.0381524
0.0391044
0.0400754
0.0410805
0.0418681
0.0409402
0.0400339
0.0391518
0.038296
0.0374688
0.0366726
0.0359096
0.035182
0.0344919
0.0338414
0.0332324
0.0326665
0.0321457
0.0316717
0.031246
0.0308702
0.0305455
0.0302729
0.0300534
0.029888
0.0297774
0.0297219
0.0297218
0.0297771
0.0298875
0.0300527
0.030272
0.0305443
0.0308689
0.0312445
0.0316699
0.0321437
0.0326642
0.0332298
0.0338385
0.0344887
0.0351785
0.0359058
0.0366686
0.0374647
0.0382918
0.0391477
0.0400299
0.0409361
0.0418638
0.0428106
0.043792
0.0445827
0.0436777
0.042794
0.0419343
0.0411007
0.0402954
0.0395208
0.038779
0.0380721
0.0374023
0.0367713
0.0361811
0.0356333
0.0351295
0.0346714
0.0342604
0.0338978
0.0335846
0.033322
0.0331107
0.0329515
0.032845
0.0327916
0.0327915
0.0328447
0.032951
0.03311
0.0333211
0.0335835
0.0338964
0.0342588
0.0346696
0.0351275
0.035631
0.0361785
0.0367684
0.0373991
0.0380687
0.0387753
0.0395169
0.0402914
0.0410966
0.0419303
0.0427901
0.0436736
0.0445785
0.0455024
0.0464611
0.0472554
0.0463722
0.0455101
0.0446716
0.0438588
0.0430739
0.0423192
0.0415968
0.0409087
0.040257
0.0396434
0.0390697
0.0385376
0.0380485
0.037604
0.0372054
0.036854
0.0365506
0.0362963
0.0360917
0.0359377
0.0358347
0.0357831
0.035783
0.0358344
0.0359372
0.0360911
0.0362954
0.0365495
0.0368526
0.0372039
0.0376022
0.0380465
0.0385353
0.0390672
0.0396405
0.0402538
0.0409053
0.0415932
0.0423154
0.04307
0.0438548
0.0446676
0.0455062
0.0463682
0.0472513
0.0481532
0.04909
0.0507686
0.0498881
0.049026
0.0481847
0.0473665
0.0465736
0.0458081
0.0450722
0.0443681
0.0436975
0.0430626
0.042465
0.0419065
0.0413886
0.0409128
0.0404805
0.0400929
0.0397513
0.0394565
0.0392095
0.0390108
0.0388613
0.0387613
0.0387111
0.038711
0.038761
0.0388608
0.0390102
0.0392086
0.0394554
0.03975
0.0400914
0.0404787
0.0409107
0.0413863
0.0419039
0.0424622
0.0430595
0.0436942
0.0443645
0.0450685
0.0458043
0.0465697
0.0473626
0.0481808
0.0490221
0.0498841
0.0507646
0.05168
0.0542361
0.0533418
0.0524822
0.0516406
0.0508195
0.050021
0.0492473
0.0485005
0.0477828
0.047096
0.0464422
0.0458232
0.0452407
0.0446964
0.0441918
0.0437284
0.0433074
0.04293
0.0425974
0.0423105
0.0420701
0.0418768
0.0417313
0.041634
0.0415853
0.0415852
0.0416337
0.0417308
0.0418761
0.0420692
0.0423094
0.0425961
0.0429285
0.0433056
0.0437264
0.0441896
0.0446939
0.0452379
0.0458201
0.0464389
0.0470925
0.0477791
0.0484967
0.0492435
0.0500172
0.0508157
0.0516368
0.0524783
0.0533379
0.0542325
0.0567518
0.055878
0.0550388
0.0542173
0.0534158
0.0526365
0.0518816
0.0511529
0.0504527
0.0497828
0.0491451
0.0485414
0.0479735
0.0474428
0.0469509
0.0464992
0.0460889
0.0457212
0.0453971
0.0451176
0.0448833
0.0446951
0.0445534
0.0444586
0.0444111
0.044411
0.0444584
0.0445529
0.0446944
0.0448825
0.0451165
0.0453958
0.0457196
0.0460871
0.0464972
0.0469487
0.0474403
0.0479707
0.0485384
0.0491418
0.0497793
0.0504491
0.0511492
0.0518778
0.0526327
0.053412
0.0542135
0.055035
0.0558742
0.0567483
0.0592318
0.0583781
0.0575589
0.056757
0.0559747
0.0552143
0.0544776
0.0537666
0.0530835
0.0524299
0.0518079
0.0512191
0.0506652
0.0501478
0.0496681
0.0492276
0.0488276
0.0484692
0.0481533
0.0478808
0.0476525
0.0474691
0.047331
0.0472387
0.0471924
0.0471923
0.0472384
0.0473305
0.0474684
0.0476517
0.0478797
0.048152
0.0484677
0.0488259
0.0492257
0.0496659
0.0501453
0.0506625
0.0512162
0.0518047
0.0524265
0.0530799
0.0537629
0.0544738
0.0552105
0.055971
0.0567532
0.0575551
0.0583744
0.0592283
0.0616767
0.0608428
0.0600432
0.0592606
0.0584972
0.0577551
0.0570363
0.0563427
0.0556762
0.0550387
0.054432
0.0538577
0.0533175
0.0528128
0.0523451
0.0519156
0.0515255
0.051176
0.0508681
0.0506024
0.0503799
0.050201
0.0500664
0.0499764
0.0499313
0.0499312
0.0499761
0.050066
0.0502004
0.050379
0.0506013
0.0508668
0.0511745
0.0515238
0.0519136
0.0523429
0.0528103
0.0533148
0.0538547
0.0544288
0.0550353
0.0556727
0.0563391
0.0570326
0.0577514
0.0584935
0.0592569
0.0600395
0.0608392
0.0616733
0.0640874
0.0632729
0.0624925
0.0617289
0.060984
0.0602599
0.0595587
0.058882
0.0582319
0.0576101
0.0570183
0.0564582
0.0559313
0.0554392
0.0549831
0.0545643
0.0541839
0.0538432
0.0535429
0.0532839
0.053067
0.0528926
0.0527614
0.0526736
0.0526297
0.0526296
0.0526734
0.0527609
0.0528919
0.0530661
0.0532828
0.0535416
0.0538417
0.0541822
0.0545623
0.0549809
0.0554367
0.0559287
0.0564553
0.0570151
0.0576067
0.0582284
0.0588784
0.059555
0.0602563
0.0609803
0.0617252
0.0624889
0.0632693
0.064084
0.0664643
0.065669
0.0649075
0.0641625
0.0634358
0.0627295
0.0620454
0.0613854
0.0607513
0.0601449
0.0595678
0.0590216
0.0585078
0.0580279
0.0575831
0.0571748
0.056804
0.0564718
0.056179
0.0559265
0.055715
0.055545
0.0554171
0.0553316
0.0552887
0.0552886
0.0553313
0.0554166
0.0555443
0.0557141
0.0559254
0.0561777
0.0564702
0.0568023
0.0571728
0.057581
0.0580255
0.0585051
0.0590187
0.0595646
0.0601416
0.0607479
0.0613819
0.0620418
0.0627258
0.0634321
0.0641588
0.0649039
0.0656655
0.0664609
0.0688081
0.0680317
0.0672888
0.066562
0.0658533
0.0651644
0.0644972
0.0638536
0.0632353
0.0626439
0.0620812
0.0615486
0.0610477
0.0605798
0.0601462
0.0597481
0.0593866
0.0590627
0.0587773
0.0585312
0.058325
0.0581593
0.0580346
0.0579513
0.0579095
0.0579094
0.057951
0.0580341
0.0581587
0.0583241
0.0585301
0.058776
0.0590612
0.0593849
0.0597462
0.060144
0.0605774
0.061045
0.0615457
0.0620781
0.0626406
0.0632319
0.0638501
0.0644936
0.0651608
0.0658496
0.0665584
0.0672853
0.0680282
0.0688048
0.0711193
0.0703616
0.069637
0.0689282
0.068237
0.0675653
0.0669148
0.0662872
0.0656844
0.0651078
0.0645592
0.0640401
0.0635518
0.0630956
0.062673
0.0622849
0.0619326
0.0616169
0.0613387
0.0610988
0.0608979
0.0607364
0.0606149
0.0605336
0.0604929
0.0604928
0.0605333
0.0606144
0.0607357
0.060897
0.0610978
0.0613374
0.0616154
0.0619309
0.062283
0.0626708
0.0630933
0.0635491
0.0640372
0.0645562
0.0651046
0.065681
0.0662837
0.0669112
0.0675617
0.0682334
0.0689246
0.0696335
0.0703581
0.071116
0.0733985
0.0726591
0.0719527
0.0712615
0.0705877
0.0699328
0.0692986
0.0686869
0.0680993
0.0675373
0.0670026
0.0664966
0.0660207
0.0655762
0.0651643
0.0647861
0.0644427
0.0641351
0.063864
0.0636302
0.0634344
0.063277
0.0631586
0.0630794
0.0630397
0.0630396
0.0630791
0.0631581
0.0632764
0.0634335
0.0636291
0.0638627
0.0641336
0.064441
0.0647842
0.0651621
0.0655738
0.0660181
0.0664938
0.0669996
0.0675341
0.0680959
0.0686835
0.0692951
0.0699292
0.0705841
0.071258
0.0719491
0.0726557
0.0733953
0.0756463
0.074925
0.0742363
0.0735626
0.0729057
0.0722675
0.0716494
0.0710533
0.0704806
0.069933
0.0694119
0.0689189
0.0684551
0.068022
0.0676207
0.0672522
0.0669176
0.0666179
0.0663538
0.066126
0.0659352
0.0657819
0.0656665
0.0655894
0.0655507
0.0655506
0.0655891
0.0656661
0.0657813
0.0659344
0.066125
0.0663525
0.0666164
0.066916
0.0672503
0.0676185
0.0680197
0.0684526
0.0689161
0.069409
0.0699298
0.0704773
0.0710499
0.0716459
0.0722639
0.0729022
0.0735591
0.0742328
0.0749216
0.0756431
0.077863
0.0771596
0.0764883
0.0758318
0.0751918
0.0745698
0.0739676
0.0733868
0.0728289
0.0722954
0.0717878
0.0713075
0.0708557
0.0704338
0.0700428
0.0696839
0.069358
0.069066
0.0688088
0.0685869
0.0684011
0.0682518
0.0681394
0.0680642
0.0680266
0.0680265
0.068064
0.0681389
0.0682511
0.0684002
0.0685859
0.0688075
0.0690646
0.0693563
0.069682
0.0700407
0.0704314
0.0708531
0.0713047
0.0717848
0.0722923
0.0728256
0.0733834
0.0739642
0.0745663
0.0751883
0.0758283
0.0764849
0.0771562
0.0778598
0.0800492
0.0793634
0.0787094
0.0780698
0.0774463
0.0768404
0.0762539
0.0756881
0.0751447
0.0746251
0.0741307
0.0736629
0.073223
0.072812
0.0724313
0.0720818
0.0717644
0.0714801
0.0712296
0.0710135
0.0708325
0.0706871
0.0705777
0.0705045
0.0704679
0.0704678
0.0705043
0.0705772
0.0706865
0.0708317
0.0710125
0.0712283
0.0714786
0.0717627
0.0720799
0.0724292
0.0728097
0.0732204
0.0736602
0.0741278
0.074622
0.0751414
0.0756848
0.0762504
0.076837
0.0774428
0.0780663
0.078706
0.0793601
0.0800461
0.0822054
0.081537
0.0808999
0.080277
0.0796697
0.0790797
0.0785085
0.0779577
0.0774285
0.0769226
0.0764413
0.0759858
0.0755574
0.0751574
0.0747867
0.0744464
0.0741374
0.0738606
0.0736167
0.0734064
0.0732302
0.0730887
0.0729821
0.0729109
0.0728752
0.0728751
0.0729106
0.0729817
0.073088
0.0732294
0.0734054
0.0736155
0.0738592
0.0741358
0.0744445
0.0747846
0.0751551
0.0755549
0.075983
0.0764383
0.0769195
0.0774253
0.0779543
0.0785051
0.0790763
0.0796663
0.0802735
0.0808965
0.0815337
0.0822023
0.084332
0.0836807
0.0830604
0.0824538
0.0818626
0.0812883
0.0807322
0.080196
0.0796809
0.0791884
0.0787199
0.0782766
0.0778597
0.0774703
0.0771095
0.0767783
0.0764776
0.0762082
0.0759708
0.0757661
0.0755947
0.0754569
0.0753532
0.0752839
0.0752491
0.075249
0.0752836
0.0753527
0.0754562
0.0755938
0.0757651
0.0759696
0.0762067
0.0764759
0.0767764
0.0771074
0.077468
0.0778572
0.0782739
0.078717
0.0791854
0.0796777
0.0801926
0.0807288
0.0812848
0.0818592
0.0824504
0.083057
0.0836774
0.0843289
0.0864294
0.0857951
0.0851912
0.0846008
0.0840254
0.0834665
0.0829253
0.0824035
0.0819023
0.0814231
0.0809672
0.0805358
0.0801302
0.0797513
0.0794003
0.079078
0.0787855
0.0785233
0.0782924
0.0780932
0.0779264
0.0777924
0.0776915
0.0776241
0.0775902
0.0775902
0.0776238
0.077691
0.0777917
0.0779256
0.0780922
0.0782911
0.0785219
0.0787838
0.0790762
0.0793982
0.079749
0.0801277
0.0805331
0.0809643
0.08142
0.0818991
0.0824002
0.082922
0.0834631
0.084022
0.0845974
0.0851878
0.0857918
0.0864263
0.0884982
0.0878805
0.0872929
0.0867184
0.0861586
0.0856148
0.0850884
0.0845807
0.0840932
0.083627
0.0831836
0.082764
0.0823694
0.0820009
0.0816595
0.0813461
0.0810615
0.0808066
0.0805819
0.0803882
0.080226
0.0800956
0.0799975
0.0799319
0.079899
0.0798989
0.0799316
0.079997
0.080095
0.0802251
0.0803872
0.0805807
0.0808051
0.0810598
0.0813442
0.0816574
0.0819986
0.0823669
0.0827613
0.0831807
0.083624
0.08409
0.0845774
0.085085
0.0856114
0.0861552
0.086715
0.0872895
0.0878773
0.0884951
0.0905386
0.0899374
0.0893658
0.088807
0.0882626
0.0877337
0.0872217
0.0867281
0.086254
0.0858007
0.0853695
0.0849616
0.0845779
0.0842196
0.0838876
0.0835829
0.0833062
0.0830583
0.0828399
0.0826516
0.0824939
0.0823671
0.0822717
0.0822079
0.082176
0.0821759
0.0822077
0.0822713
0.0823665
0.082493
0.0826506
0.0828387
0.0830569
0.0833046
0.083581
0.0838856
0.0842173
0.0845754
0.0849589
0.0853667
0.0857977
0.0862509
0.0867248
0.0872184
0.0877303
0.0882592
0.0888037
0.0893624
0.0899342
0.0905355
0.0925512
0.0919662
0.0914104
0.0908671
0.0903378
0.0898236
0.0893259
0.0888461
0.0883852
0.0879447
0.0875255
0.087129
0.0867561
0.0864078
0.0860852
0.085789
0.0855201
0.0852792
0.0850669
0.0848839
0.0847305
0.0846074
0.0845147
0.0844527
0.0844216
0.0844215
0.0844524
0.0845142
0.0846067
0.0847297
0.0848828
0.0850657
0.0852777
0.0855184
0.0857871
0.0860831
0.0864056
0.0867536
0.0871263
0.0875227
0.0879417
0.0883821
0.0888429
0.0893227
0.0898203
0.0903344
0.0908638
0.0914071
0.091963
0.0925481
0.0945363
0.0939674
0.093427
0.092899
0.0923846
0.091885
0.0914014
0.0909351
0.0904873
0.0900592
0.089652
0.0892667
0.0889044
0.0885661
0.0882526
0.0879648
0.0877036
0.0874695
0.0872633
0.0870855
0.0869365
0.0868168
0.0867268
0.0866665
0.0866363
0.0866363
0.0866663
0.0867263
0.0868162
0.0869357
0.0870844
0.0872621
0.0874681
0.0877019
0.087963
0.0882505
0.0885638
0.088902
0.0892641
0.0896492
0.0900563
0.0904842
0.0909319
0.0913981
0.0918816
0.0923813
0.0928957
0.0934237
0.0939642
0.0945332
0.0964943
0.0959412
0.0954162
0.0949033
0.0944035
0.0939182
0.0934485
0.0929956
0.0925606
0.0921449
0.0917494
0.0913752
0.0910233
0.0906947
0.0903903
0.0901108
0.0898571
0.0896298
0.0894296
0.0892569
0.0891122
0.088996
0.0889085
0.08885
0.0888207
0.0888206
0.0888498
0.0889081
0.0889953
0.0891114
0.0892558
0.0894283
0.0896284
0.0898555
0.090109
0.0903883
0.0906925
0.0910209
0.0913726
0.0917466
0.0921419
0.0925576
0.0929924
0.0934452
0.0939149
0.0944002
0.0948999
0.0954129
0.095938
0.0964913
0.0984256
0.0978882
0.0973783
0.0968802
0.0963949
0.0959237
0.0954676
0.0950279
0.0946057
0.094202
0.0938181
0.0934548
0.0931133
0.0927943
0.0924988
0.0922275
0.0919812
0.0917606
0.0915662
0.0913985
0.0912581
0.0911453
0.0910604
0.0910036
0.0909751
0.0909751
0.0910033
0.0910599
0.0911446
0.0912573
0.0913975
0.0915649
0.0917591
0.0919796
0.0922257
0.0924967
0.0927921
0.0931108
0.0934522
0.0938153
0.0941991
0.0946026
0.0950247
0.0954644
0.0959204
0.0963916
0.0968769
0.097375
0.097885
0.0984226
0.100331
0.0998086
0.0993136
0.0988301
0.0983592
0.0979018
0.0974592
0.0970325
0.0966228
0.0962311
0.0958586
0.0955061
0.0951747
0.0948651
0.0945784
0.0943152
0.0940762
0.0938621
0.0936735
0.0935109
0.0933746
0.0932652
0.0931828
0.0931277
0.0931001
0.0931
0.0931274
0.0931823
0.0932645
0.0933738
0.0935098
0.0936723
0.0938607
0.0940746
0.0943134
0.0945764
0.0948629
0.0951722
0.0955035
0.0958558
0.0962282
0.0966198
0.0970294
0.097456
0.0978986
0.0983559
0.0988269
0.0993104
0.0998055
0.100328
0.10221
0.101703
0.101223
0.100754
0.100297
0.099853
0.0994237
0.0990098
0.0986124
0.0982326
0.0978712
0.0975294
0.0972079
0.0969077
0.0966296
0.0963744
0.0961426
0.095935
0.0957521
0.0955943
0.0954622
0.095356
0.0952761
0.0952227
0.0951959
0.0951958
0.0952225
0.0952757
0.0953554
0.0954614
0.0955933
0.0957508
0.0959336
0.096141
0.0963726
0.0966276
0.0969055
0.0972055
0.0975268
0.0978685
0.0982297
0.0986094
0.0990067
0.0994205
0.0998498
0.100293
0.10075
0.101219
0.1017
0.102207
0.104063
0.103572
0.103106
0.102651
0.102208
0.101778
0.101361
0.10096
0.100575
0.100207
0.0998564
0.099525
0.0992134
0.0989225
0.0986529
0.0984054
0.0981808
0.0979795
0.0978022
0.0976493
0.0975212
0.0974183
0.0973409
0.0972891
0.0972632
0.0972631
0.0972888
0.0973404
0.0974177
0.0975204
0.0976483
0.097801
0.0979781
0.0981792
0.0984036
0.0986509
0.0989203
0.099211
0.0995225
0.0998537
0.100204
0.100572
0.100957
0.101358
0.101774
0.102205
0.102648
0.103103
0.103568
0.10406
0.105892
0.105415
0.104963
0.104522
0.104093
0.103676
0.103273
0.102884
0.102511
0.102154
0.101815
0.101494
0.101192
0.10091
0.100649
0.100409
0.100191
0.0999962
0.0998244
0.0996763
0.0995522
0.0994525
0.0993775
0.0993273
0.0993021
0.0993021
0.099327
0.099377
0.0994519
0.0995514
0.0996752
0.0998232
0.0999948
0.10019
0.100407
0.100647
0.100908
0.101189
0.101491
0.101812
0.102151
0.102508
0.102881
0.10327
0.103673
0.10409
0.104519
0.10496
0.105412
0.105889
0.107695
0.107233
0.106795
0.106368
0.105953
0.105549
0.105158
0.104782
0.10442
0.104075
0.103746
0.103435
0.103143
0.10287
0.102617
0.102385
0.102174
0.101985
0.101819
0.101676
0.101555
0.101459
0.101386
0.101338
0.101313
0.101313
0.101337
0.101386
0.101458
0.101555
0.101675
0.101818
0.101984
0.102173
0.102383
0.102615
0.102868
0.10314
0.103433
0.103743
0.104072
0.104417
0.104779
0.105155
0.105546
0.105949
0.106365
0.106792
0.10723
0.107692
0.109474
0.109026
0.108603
0.108189
0.107787
0.107396
0.107018
0.106654
0.106304
0.105969
0.105651
0.10535
0.105068
0.104803
0.104559
0.104334
0.10413
0.103947
0.103786
0.103648
0.103531
0.103438
0.103368
0.103321
0.103297
0.103297
0.10332
0.103367
0.103437
0.103531
0.103647
0.103785
0.103946
0.104128
0.104332
0.104557
0.104801
0.105065
0.105348
0.105649
0.105967
0.106301
0.106651
0.107015
0.107393
0.107784
0.108186
0.1086
0.109023
0.109471
0.111229
0.110796
0.110386
0.109986
0.109596
0.109218
0.108853
0.1085
0.108162
0.107838
0.107531
0.10724
0.106966
0.106711
0.106474
0.106257
0.106059
0.105883
0.105727
0.105593
0.10548
0.10539
0.105322
0.105277
0.105254
0.105254
0.105276
0.105322
0.105389
0.10548
0.105592
0.105726
0.105881
0.106058
0.106255
0.106472
0.106708
0.106964
0.107237
0.107528
0.107835
0.108159
0.108497
0.10885
0.109215
0.109593
0.109983
0.110383
0.110793
0.111226
0.112961
0.112541
0.112145
0.111758
0.111381
0.111016
0.110662
0.110322
0.109994
0.109682
0.109384
0.109103
0.108839
0.108592
0.108363
0.108153
0.107962
0.107792
0.107641
0.107512
0.107403
0.107316
0.10725
0.107206
0.107184
0.107184
0.107206
0.107249
0.107315
0.107402
0.107511
0.10764
0.10779
0.107961
0.108151
0.108361
0.10859
0.108836
0.109101
0.109382
0.109679
0.109992
0.110319
0.110659
0.111013
0.111378
0.111755
0.112141
0.112538
0.112958
0.114668
0.114262
0.113879
0.113506
0.113142
0.112789
0.112447
0.112118
0.111802
0.1115
0.111213
0.110941
0.110686
0.110448
0.110227
0.110024
0.10984
0.109675
0.109529
0.109404
0.109299
0.109215
0.109151
0.109109
0.109088
0.109088
0.109109
0.109151
0.109214
0.109298
0.109403
0.109528
0.109673
0.109838
0.110022
0.110225
0.110445
0.110684
0.110939
0.11121
0.111498
0.111799
0.112115
0.112444
0.112786
0.113139
0.113503
0.113876
0.114259
0.114665
0.116353
0.115961
0.115591
0.11523
0.114879
0.114538
0.114208
0.113891
0.113586
0.113294
0.113017
0.112755
0.112508
0.112278
0.112065
0.111869
0.111691
0.111532
0.111392
0.111271
0.11117
0.111088
0.111027
0.110986
0.110966
0.110965
0.110986
0.111027
0.111088
0.111169
0.11127
0.111391
0.111531
0.11169
0.111867
0.112063
0.112276
0.112506
0.112752
0.113014
0.113291
0.113583
0.113888
0.114205
0.114535
0.114876
0.115227
0.115588
0.115958
0.11635
0.118015
0.117636
0.117279
0.116931
0.116592
0.116263
0.115945
0.115639
0.115345
0.115064
0.114796
0.114543
0.114306
0.114084
0.113878
0.113689
0.113518
0.113364
0.113229
0.113113
0.113015
0.112936
0.112877
0.112838
0.112818
0.112818
0.112838
0.112877
0.112936
0.113014
0.113112
0.113228
0.113363
0.113516
0.113688
0.113876
0.114082
0.114303
0.114541
0.114794
0.115061
0.115342
0.115636
0.115942
0.11626
0.116589
0.116928
0.117276
0.117633
0.118012
0.119654
0.119289
0.118944
0.118609
0.118282
0.117965
0.117659
0.117364
0.11708
0.116809
0.116552
0.116308
0.116079
0.115865
0.115667
0.115485
0.11532
0.115172
0.115041
0.114929
0.114835
0.114759
0.114702
0.114664
0.114645
0.114645
0.114664
0.114702
0.114759
0.114834
0.114928
0.11504
0.11517
0.115318
0.115483
0.115665
0.115863
0.116076
0.116305
0.116549
0.116806
0.117077
0.117361
0.117656
0.117962
0.118279
0.118606
0.118941
0.119286
0.119651
0.121271
0.120919
0.120587
0.120264
0.11995
0.119644
0.119349
0.119065
0.118792
0.118531
0.118283
0.118048
0.117828
0.117622
0.117431
0.117256
0.117097
0.116955
0.116829
0.116721
0.11663
0.116557
0.116503
0.116466
0.116448
0.116448
0.116466
0.116502
0.116557
0.116629
0.11672
0.116828
0.116953
0.117095
0.117254
0.117429
0.11762
0.117826
0.118046
0.11828
0.118528
0.118789
0.119062
0.119346
0.119641
0.119946
0.120261
0.120584
0.120916
0.121268
0.122866
0.122527
0.122208
0.121897
0.121594
0.121301
0.121017
0.120743
0.120481
0.12023
0.119991
0.119765
0.119553
0.119355
0.119172
0.119003
0.11885
0.118713
0.118593
0.118488
0.118401
0.118331
0.118279
0.118243
0.118226
0.118225
0.118243
0.118278
0.118331
0.1184
0.118487
0.118591
0.118712
0.118849
0.119001
0.11917
0.119353
0.119551
0.119763
0.119988
0.120227
0.120478
0.12074
0.121014
0.121298
0.121591
0.121894
0.122205
0.122524
0.122863
0.12444
0.124114
0.123807
0.123508
0.123217
0.122935
0.122662
0.122399
0.122146
0.121905
0.121676
0.121459
0.121255
0.121065
0.120888
0.120727
0.12058
0.120448
0.120332
0.120232
0.120148
0.120081
0.12003
0.119996
0.119979
0.119979
0.119996
0.12003
0.12008
0.120147
0.120231
0.120331
0.120447
0.120578
0.120725
0.120886
0.121063
0.121253
0.121457
0.121673
0.121902
0.122143
0.122396
0.122659
0.122931
0.123214
0.123505
0.123804
0.124111
0.124437
0.125992
0.125679
0.125384
0.125097
0.124817
0.124546
0.124284
0.124032
0.12379
0.123558
0.123338
0.12313
0.122934
0.122751
0.122582
0.122427
0.122286
0.122159
0.122048
0.121952
0.121872
0.121807
0.121758
0.121726
0.121709
0.121709
0.121726
0.121758
0.121806
0.121871
0.121951
0.122047
0.122158
0.122284
0.122425
0.12258
0.122749
0.122932
0.123127
0.123335
0.123555
0.123787
0.124029
0.124281
0.124543
0.124814
0.125094
0.125381
0.125676
0.12599
0.127524
0.127223
0.12694
0.126664
0.126396
0.126136
0.125885
0.125643
0.125411
0.125189
0.124978
0.124778
0.12459
0.124415
0.124253
0.124104
0.123969
0.123847
0.123741
0.123649
0.123571
0.12351
0.123463
0.123432
0.123416
0.123416
0.123431
0.123462
0.123509
0.123571
0.123648
0.123739
0.123846
0.123967
0.124102
0.124251
0.124413
0.124588
0.124776
0.124975
0.125186
0.125408
0.12564
0.125882
0.126133
0.126393
0.126661
0.126937
0.12722
0.127521
0.129035
0.128746
0.128475
0.128211
0.127954
0.127705
0.127464
0.127232
0.12701
0.126797
0.126595
0.126404
0.126224