/*--------------------------------*- C++ -*----------------------------------*\
  =========                 |
  \\      /  F ield         | OpenFOAM: The Open Source CFD Toolbox
   \\    /   O peration     | Website:  https://openfoam.org
    \\  /    A nd           | Version:  7
     \\/     M anipulation  |
\*---------------------------------------------------------------------------*/
FoamFile
{
    version     2.0;
    format      ascii;
    class       volScalarField;
    location    "208000";
    object      nut;
}
// * * * * * * * * * * * * * * * * * * * * * * * * * * * * * * * * * * * * * //

dimensions      [0 2 -1 0 0 0 0];

internalField   nonuniform List<scalar> 
4782
(
4.1858e-06
4.02467e-06
3.86529e-06
3.70772e-06
3.55201e-06
3.39824e-06
3.24647e-06
3.09678e-06
2.94925e-06
2.80396e-06
1.25122e-05
1.23156e-05
1.2119e-05
1.19225e-05
1.17262e-05
1.15301e-05
1.13342e-05
1.11385e-05
1.09432e-05
1.07483e-05
1.05537e-05
1.0358e-05
1.01592e-05
9.95962e-06
9.76039e-06
9.56207e-06
9.36491e-06
9.16899e-06
8.97432e-06
8.78086e-06
8.58855e-06
8.39736e-06
8.20725e-06
8.01818e-06
7.83014e-06
7.64312e-06
7.45712e-06
7.27214e-06
7.0882e-06
6.9053e-06
6.72348e-06
6.54274e-06
6.36313e-06
6.18466e-06
6.00736e-06
5.83128e-06
5.65643e-06
5.48287e-06
5.31063e-06
5.13974e-06
4.97025e-06
4.80221e-06
4.63566e-06
4.47064e-06
4.30722e-06
4.14543e-06
3.98534e-06
3.827e-06
3.67048e-06
3.51584e-06
3.36313e-06
3.21244e-06
3.06384e-06
2.9174e-06
2.7732e-06
1.24352e-05
1.2239e-05
1.20429e-05
1.18469e-05
1.16511e-05
1.14555e-05
1.12602e-05
1.10651e-05
1.08704e-05
1.06761e-05
1.04821e-05
1.02849e-05
1.00858e-05
9.88669e-06
9.68826e-06
9.49091e-06
9.2948e-06
9.09995e-06
8.90633e-06
8.71389e-06
8.52258e-06
8.33236e-06
8.1432e-06
7.95507e-06
7.76796e-06
7.58186e-06
7.39678e-06
7.21272e-06
7.02969e-06
6.84773e-06
6.66683e-06
6.48704e-06
6.30837e-06
6.13085e-06
5.95453e-06
5.77941e-06
5.60556e-06
5.43299e-06
5.26174e-06
5.09187e-06
4.92341e-06
4.7564e-06
4.59088e-06
4.42692e-06
4.26455e-06
4.10384e-06
3.94482e-06
3.78757e-06
3.63214e-06
3.4786e-06
3.32701e-06
3.17743e-06
3.02996e-06
2.88465e-06
2.74159e-06
1.23557e-05
1.216e-05
1.19644e-05
1.17689e-05
1.15737e-05
1.13786e-05
1.11839e-05
1.09894e-05
1.07953e-05
1.06016e-05
1.04067e-05
1.02085e-05
1.00096e-05
9.81117e-06
9.61377e-06
9.4176e-06
9.22268e-06
9.02899e-06
8.83648e-06
8.64511e-06
8.45483e-06
8.2656e-06
8.0774e-06
7.89022e-06
7.70405e-06
7.51888e-06
7.33473e-06
7.15161e-06
6.96953e-06
6.7885e-06
6.60856e-06
6.42973e-06
6.25204e-06
6.0755e-06
5.90016e-06
5.72605e-06
5.55321e-06
5.38166e-06
5.21145e-06
5.04262e-06
4.87521e-06
4.70926e-06
4.54482e-06
4.38194e-06
4.22067e-06
4.06105e-06
3.90315e-06
3.74702e-06
3.59272e-06
3.44032e-06
3.28987e-06
3.14146e-06
2.99514e-06
2.851e-06
2.70912e-06
1.2274e-05
1.20788e-05
1.18837e-05
1.16888e-05
1.14941e-05
1.12996e-05
1.11055e-05
1.09111e-05
1.0714e-05
1.05161e-05
1.03181e-05
1.01205e-05
9.92347e-06
9.72722e-06
9.53189e-06
9.33756e-06
9.14429e-06
8.95208e-06
8.76094e-06
8.57084e-06
8.38178e-06
8.19372e-06
8.00668e-06
7.82062e-06
7.63557e-06
7.45152e-06
7.26847e-06
7.08645e-06
6.90547e-06
6.72556e-06
6.54672e-06
6.369e-06
6.19241e-06
6.01699e-06
5.84278e-06
5.66979e-06
5.49807e-06
5.32766e-06
5.15859e-06
4.99091e-06
4.82465e-06
4.65986e-06
4.49659e-06
4.33489e-06
4.17479e-06
4.01637e-06
3.85966e-06
3.70473e-06
3.55165e-06
3.40046e-06
3.25123e-06
3.10404e-06
2.95896e-06
2.81606e-06
2.67542e-06
1.2274e-05
1.20788e-05
1.18837e-05
1.16888e-05
1.14941e-05
1.12996e-05
1.11055e-05
1.09111e-05
1.0714e-05
1.05161e-05
1.03181e-05
1.01205e-05
9.92347e-06
9.72722e-06
9.53189e-06
9.33756e-06
9.14429e-06
8.95208e-06
8.76094e-06
8.57084e-06
8.38178e-06
8.19372e-06
8.00668e-06
7.82062e-06
7.63557e-06
7.45152e-06
7.26847e-06
7.08645e-06
6.90547e-06
6.72556e-06
6.54672e-06
6.369e-06
6.19241e-06
6.01699e-06
5.84278e-06
5.66979e-06
5.49807e-06
5.32766e-06
5.15859e-06
4.99091e-06
4.82465e-06
4.65986e-06
4.49659e-06
4.33489e-06
4.17479e-06
4.01637e-06
3.85966e-06
3.70473e-06
3.55164e-06
3.40046e-06
3.25123e-06
3.10404e-06
2.95896e-06
2.81606e-06
2.67542e-06
1.23557e-05
1.216e-05
1.19644e-05
1.17689e-05
1.15737e-05
1.13786e-05
1.11839e-05
1.09894e-05
1.07953e-05
1.06016e-05
1.04067e-05
1.02085e-05
1.00096e-05
9.81116e-06
9.61377e-06
9.41759e-06
9.22267e-06
9.02899e-06
8.83648e-06
8.64511e-06
8.45483e-06
8.2656e-06
8.0774e-06
7.89022e-06
7.70405e-06
7.51888e-06
7.33473e-06
7.15161e-06
6.96952e-06
6.7885e-06
6.60856e-06
6.42973e-06
6.25203e-06
6.0755e-06
5.90016e-06
5.72605e-06
5.55321e-06
5.38166e-06
5.21145e-06
5.04262e-06
4.8752e-06
4.70926e-06
4.54482e-06
4.38194e-06
4.22066e-06
4.06105e-06
3.90315e-06
3.74702e-06
3.59272e-06
3.44032e-06
3.28987e-06
3.14146e-06
2.99514e-06
2.851e-06
2.70912e-06
2.56958e-06
2.43247e-06
2.29787e-06
2.16589e-06
1.24352e-05
1.2239e-05
1.20429e-05
1.18469e-05
1.16511e-05
1.14555e-05
1.12602e-05
1.10651e-05
1.08704e-05
1.06761e-05
1.04821e-05
1.02849e-05
1.00858e-05
9.88669e-06
9.68826e-06
9.49091e-06
9.2948e-06
9.09995e-06
8.90632e-06
8.71389e-06
8.52258e-06
8.33236e-06
8.1432e-06
7.95507e-06
7.76796e-06
7.58186e-06
7.39677e-06
7.21272e-06
7.02969e-06
6.84772e-06
6.66683e-06
6.48704e-06
6.30837e-06
6.13085e-06
5.95452e-06
5.77941e-06
5.60555e-06
5.43298e-06
5.26174e-06
5.09187e-06
4.9234e-06
4.75639e-06
4.59088e-06
4.42692e-06
4.26455e-06
4.10383e-06
3.94482e-06
3.78757e-06
3.63214e-06
3.4786e-06
3.32701e-06
3.17743e-06
3.02995e-06
2.88465e-06
2.74159e-06
2.60086e-06
2.46256e-06
2.32677e-06
2.19359e-06
2.06313e-06
1.25122e-05
1.23156e-05
1.2119e-05
1.19225e-05
1.17262e-05
1.15301e-05
1.13342e-05
1.11385e-05
1.09432e-05
1.07483e-05
1.05537e-05
1.0358e-05
1.01592e-05
9.95962e-06
9.76039e-06
9.56207e-06
9.36491e-06
9.16899e-06
8.97432e-06
8.78085e-06
8.58855e-06
8.39736e-06
8.20724e-06
8.01818e-06
7.83014e-06
7.64312e-06
7.45712e-06
7.27214e-06
7.0882e-06
6.9053e-06
6.72348e-06
6.54274e-06
6.36313e-06
6.18466e-06
6.00736e-06
5.83127e-06
5.65643e-06
5.48287e-06
5.31062e-06
5.13974e-06
4.97025e-06
4.80221e-06
4.63566e-06
4.47064e-06
4.30722e-06
4.14543e-06
3.98534e-06
3.827e-06
3.67048e-06
3.51583e-06
3.36313e-06
3.21244e-06
3.06384e-06
2.9174e-06
2.7732e-06
2.63133e-06
2.49188e-06
2.35494e-06
2.22061e-06
2.08898e-06
1.96018e-06
1.8343e-06
1.71147e-06
1.59181e-06
1.47544e-06
1.3625e-06
1.25311e-06
1.14742e-06
1.04556e-06
9.47634e-07
8.53681e-07
7.63319e-07
6.7305e-07
5.8335e-07
4.98572e-07
4.19283e-07
3.46078e-07
2.79554e-07
2.20264e-07
1.68648e-07
1.24965e-07
8.9204e-08
6.10378e-08
3.98101e-08
2.45878e-08
1.42646e-08
7.69085e-09
3.79669e-09
1.67906e-09
6.43194e-10
2.02026e-10
4.72637e-11
6.83817e-12
4.05573e-13
3.47189e-15
1.25867e-05
1.23896e-05
1.21926e-05
1.19956e-05
1.17988e-05
1.16022e-05
1.14057e-05
1.12095e-05
1.10137e-05
1.08181e-05
1.06229e-05
1.04282e-05
1.02299e-05
1.003e-05
9.83014e-06
9.63096e-06
9.43284e-06
9.23592e-06
9.04025e-06
8.8458e-06
8.65253e-06
8.4604e-06
8.26935e-06
8.07937e-06
7.89043e-06
7.70251e-06
7.51562e-06
7.32974e-06
7.1449e-06
6.96111e-06
6.77838e-06
6.59673e-06
6.4162e-06
6.2368e-06
6.05857e-06
5.88154e-06
5.70575e-06
5.53123e-06
5.35802e-06
5.18615e-06
5.01568e-06
4.84664e-06
4.67909e-06
4.51306e-06
4.34861e-06
4.1858e-06
4.02467e-06
3.86529e-06
3.70771e-06
3.55201e-06
3.39824e-06
3.24647e-06
3.09678e-06
2.94925e-06
2.80396e-06
2.66099e-06
2.52043e-06
2.38237e-06
2.24692e-06
2.11417e-06
1.98424e-06
1.85724e-06
1.73328e-06
1.61249e-06
1.49499e-06
1.38093e-06
1.27042e-06
1.16362e-06
1.06065e-06
9.61648e-07
8.6665e-07
7.75372e-07
6.85073e-07
5.94306e-07
5.08439e-07
4.28043e-07
3.53724e-07
2.86091e-07
2.25714e-07
1.73059e-07
1.2841e-07
9.1785e-08
6.28812e-08
4.10568e-08
2.53803e-08
1.4734e-08
7.9472e-09
3.92386e-09
1.73512e-09
6.64412e-10
2.08535e-10
4.87242e-11
7.03343e-12
4.15259e-13
3.52045e-15
1.26584e-05
1.24609e-05
1.22635e-05
1.20661e-05
1.18688e-05
1.16717e-05
1.14747e-05
1.1278e-05
1.10816e-05
1.08855e-05
1.06897e-05
1.04944e-05
1.02976e-05
1.00979e-05
9.89753e-06
9.69757e-06
9.49853e-06
9.30065e-06
9.10401e-06
8.9086e-06
8.71439e-06
8.52133e-06
8.32938e-06
8.13851e-06
7.94869e-06
7.75991e-06
7.57214e-06
7.38541e-06
7.1997e-06
7.01504e-06
6.83143e-06
6.64891e-06
6.46749e-06
6.2872e-06
6.10807e-06
5.93014e-06
5.75343e-06
5.57799e-06
5.40385e-06
5.23104e-06
5.05962e-06
4.88963e-06
4.72111e-06
4.55411e-06
4.38869e-06
4.22489e-06
4.06276e-06
3.90238e-06
3.74379e-06
3.58706e-06
3.43226e-06
3.27946e-06
3.12874e-06
2.98016e-06
2.83381e-06
2.68977e-06
2.54815e-06
2.40902e-06
2.27249e-06
2.13866e-06
2.00764e-06
1.87955e-06
1.7545e-06
1.63262e-06
1.51403e-06
1.39888e-06
1.28729e-06
1.17941e-06
1.07537e-06
9.75318e-07
8.79307e-07
7.87142e-07
6.96814e-07
6.05012e-07
5.1809e-07
4.36621e-07
3.61221e-07
2.92509e-07
2.31074e-07
1.77404e-07
1.3181e-07
9.43376e-08
6.47079e-08
4.22942e-08
2.6168e-08
1.52011e-08
8.20256e-09
4.05061e-09
1.79101e-09
6.85558e-10
2.15019e-10
5.01772e-11
7.22727e-12
4.24833e-13
3.568e-15
1.27274e-05
1.25295e-05
1.23316e-05
1.21338e-05
1.19361e-05
1.17385e-05
1.1541e-05
1.13438e-05
1.11469e-05
1.09502e-05
1.07539e-05
1.0558e-05
1.03625e-05
1.0163e-05
9.96227e-06
9.76164e-06
9.56178e-06
9.363e-06
9.16543e-06
8.9691e-06
8.77398e-06
8.58004e-06
8.38722e-06
8.19549e-06
8.00482e-06
7.81519e-06
7.6266e-06
7.43903e-06
7.25249e-06
7.06699e-06
6.88255e-06
6.69918e-06
6.51691e-06
6.33577e-06
6.15578e-06
5.97698e-06
5.7994e-06
5.62307e-06
5.44804e-06
5.27433e-06
5.10201e-06
4.9311e-06
4.76166e-06
4.59373e-06
4.42737e-06
4.26262e-06
4.09954e-06
3.93819e-06
3.77864e-06
3.62093e-06
3.46515e-06
3.31136e-06
3.15963e-06
3.01004e-06
2.86268e-06
2.71762e-06
2.57497e-06
2.43481e-06
2.29724e-06
2.16237e-06
2.03031e-06
1.90117e-06
1.77507e-06
1.65213e-06
1.5325e-06
1.41629e-06
1.30366e-06
1.19474e-06
1.08967e-06
9.88599e-07
8.91608e-07
7.9859e-07
7.08232e-07
6.15432e-07
5.27491e-07
4.44986e-07
3.68539e-07
2.98783e-07
2.36322e-07
1.81666e-07
1.35151e-07
9.68507e-08
6.65095e-08
4.35168e-08
2.69474e-08
1.5664e-08
8.45575e-09
4.17634e-09
1.84645e-09
7.06534e-10
2.21447e-10
5.16161e-11
7.41883e-12
4.34254e-13
3.61438e-15
1.27934e-05
1.25951e-05
1.23969e-05
1.21987e-05
1.20005e-05
1.18025e-05
1.16046e-05
1.14069e-05
1.12095e-05
1.10123e-05
1.08155e-05
1.0619e-05
1.04229e-05
1.02249e-05
1.00243e-05
9.82319e-06
9.62259e-06
9.42294e-06
9.22447e-06
9.02724e-06
8.83123e-06
8.63641e-06
8.44275e-06
8.25019e-06
8.0587e-06
7.86827e-06
7.67887e-06
7.4905e-06
7.30316e-06
7.11687e-06
6.93162e-06
6.74745e-06
6.56438e-06
6.38242e-06
6.20161e-06
6.02198e-06
5.84356e-06
5.66639e-06
5.49051e-06
5.31595e-06
5.14276e-06
4.97098e-06
4.80065e-06
4.63184e-06
4.46457e-06
4.29892e-06
4.13493e-06
3.97266e-06
3.81218e-06
3.65354e-06
3.49681e-06
3.34207e-06
3.18938e-06
3.03883e-06
2.89049e-06
2.74446e-06
2.60082e-06
2.45967e-06
2.32111e-06
2.18524e-06
2.05217e-06
1.92202e-06
1.79491e-06
1.67097e-06
1.55032e-06
1.4331e-06
1.31946e-06
1.20954e-06
1.10348e-06
1.00143e-06
9.03498e-07
8.09645e-07
7.19167e-07
6.25514e-07
5.36596e-07
4.53096e-07
3.75644e-07
3.04883e-07
2.41432e-07
1.85823e-07
1.38415e-07
9.93107e-08
6.82763e-08
4.47178e-08
2.77142e-08
1.61197e-08
8.7053e-09
4.30033e-09
1.90114e-09
7.27219e-10
2.27781e-10
5.30327e-11
7.60704e-12
4.4347e-13
3.65931e-15
1.28563e-05
1.26578e-05
1.24592e-05
1.22606e-05
1.2062e-05
1.18636e-05
1.16653e-05
1.14671e-05
1.12692e-05
1.10716e-05
1.08743e-05
1.06773e-05
1.04807e-05
1.02839e-05
1.00834e-05
9.8819e-06
9.68065e-06
9.48023e-06
9.28092e-06
9.08283e-06
8.88598e-06
8.69034e-06
8.49586e-06
8.30251e-06
8.11024e-06
7.91903e-06
7.72887e-06
7.53974e-06
7.35164e-06
7.16458e-06
6.97857e-06
6.79364e-06
6.60979e-06
6.42706e-06
6.24546e-06
6.06505e-06
5.88583e-06
5.70786e-06
5.53117e-06
5.35579e-06
5.18178e-06
5.00917e-06
4.83801e-06
4.66834e-06
4.50023e-06
4.33371e-06
4.16885e-06
4.0057e-06
3.84433e-06
3.6848e-06
3.52717e-06
3.37152e-06
3.21792e-06
3.06644e-06
2.91718e-06
2.77021e-06
2.62563e-06
2.48353e-06
2.34402e-06
2.20719e-06
2.07316e-06
1.94205e-06
1.81397e-06
1.68906e-06
1.56744e-06
1.44926e-06
1.33466e-06
1.22377e-06
1.11676e-06
1.01377e-06
9.14903e-07
8.20152e-07
7.28876e-07
6.35169e-07
5.45326e-07
4.60884e-07
3.82476e-07
3.10759e-07
2.46364e-07
1.89842e-07
1.41578e-07
1.01698e-07
6.99943e-08
4.58876e-08
2.84621e-08
1.65649e-08
8.94925e-09
4.42159e-09
1.95463e-09
7.47449e-10
2.33973e-10
5.44156e-11
7.79036e-12
4.52406e-13
3.70236e-15
1.29161e-05
1.27172e-05
1.25183e-05
1.23194e-05
1.21205e-05
1.19216e-05
1.17229e-05
1.15244e-05
1.1326e-05
1.11279e-05
1.09302e-05
1.07327e-05
1.05356e-05
1.0339e-05
1.01392e-05
9.93768e-06
9.73593e-06
9.53481e-06
9.33472e-06
9.13582e-06
8.93815e-06
8.74171e-06
8.54646e-06
8.35234e-06
8.15932e-06
7.96738e-06
7.77649e-06
7.58663e-06
7.39781e-06
7.21003e-06
7.0233e-06
6.83764e-06
6.65306e-06
6.46959e-06
6.28726e-06
6.1061e-06
5.92613e-06
5.7474e-06
5.56994e-06
5.39379e-06
5.219e-06
5.0456e-06
4.87364e-06
4.70317e-06
4.53424e-06
4.36691e-06
4.20122e-06
4.03724e-06
3.87503e-06
3.71465e-06
3.55616e-06
3.39965e-06
3.24517e-06
3.09282e-06
2.94267e-06
2.79482e-06
2.64934e-06
2.50634e-06
2.36591e-06
2.22818e-06
2.09323e-06
1.9612e-06
1.8322e-06
1.70637e-06
1.58383e-06
1.46472e-06
1.3492e-06
1.2374e-06
1.12948e-06
1.02558e-06
9.25832e-07
8.30224e-07
7.38189e-07
6.44434e-07
5.5371e-07
4.68369e-07
3.89051e-07
3.16419e-07
2.51121e-07
1.93724e-07
1.44638e-07
1.04013e-07
7.16624e-08
4.70251e-08
2.91904e-08
1.69988e-08
9.18722e-09
4.53995e-09
2.00685e-09
7.67193e-10
2.40013e-10
5.57633e-11
7.96871e-12
4.61066e-13
3.74374e-15
1.29727e-05
1.27735e-05
1.25743e-05
1.2375e-05
1.21758e-05
1.19766e-05
1.17775e-05
1.15785e-05
1.13798e-05
1.11813e-05
1.09831e-05
1.07852e-05
1.05876e-05
1.03905e-05
1.01919e-05
9.99043e-06
9.78829e-06
9.58654e-06
9.38572e-06
9.18606e-06
8.98763e-06
8.79043e-06
8.59443e-06
8.39959e-06
8.20586e-06
8.01322e-06
7.82164e-06
7.6311e-06
7.44159e-06
7.25313e-06
7.06572e-06
6.87937e-06
6.6941e-06
6.50994e-06
6.32691e-06
6.14504e-06
5.96436e-06
5.78492e-06
5.60673e-06
5.42985e-06
5.25432e-06
5.08018e-06
4.90747e-06
4.73624e-06
4.56655e-06
4.39844e-06
4.23197e-06
4.0672e-06
3.90419e-06
3.74301e-06
3.58371e-06
3.42638e-06
3.27108e-06
3.1179e-06
2.96692e-06
2.81822e-06
2.67189e-06
2.52803e-06
2.38675e-06
2.24815e-06
2.11234e-06
1.97943e-06
1.84956e-06
1.72285e-06
1.59944e-06
1.47946e-06
1.36306e-06
1.25039e-06
1.14161e-06
1.03686e-06
9.36263e-07
8.39841e-07
7.47086e-07
6.53284e-07
5.61724e-07
4.7553e-07
3.95346e-07
3.21845e-07
2.55686e-07
1.97456e-07
1.47584e-07
1.06244e-07
7.32731e-08
4.81252e-08
2.98956e-08
1.74195e-08
9.41809e-09
4.65482e-09
2.05754e-09
7.86358e-10
2.45873e-10
5.70697e-11
8.14129e-12
4.69418e-13
3.78336e-15
1.30259e-05
1.28265e-05
1.2627e-05
1.24274e-05
1.22278e-05
1.20283e-05
1.18289e-05
1.16296e-05
1.14304e-05
1.12316e-05
1.10329e-05
1.08346e-05
1.06366e-05
1.04391e-05
1.02415e-05
1.004e-05
9.83755e-06
9.63526e-06
9.43378e-06
9.23342e-06
9.03427e-06
8.83637e-06
8.63968e-06
8.44415e-06
8.24976e-06
8.05646e-06
7.86422e-06
7.67304e-06
7.48289e-06
7.29379e-06
7.10573e-06
6.91874e-06
6.73283e-06
6.54801e-06
6.36433e-06
6.1818e-06
6.00045e-06
5.82033e-06
5.64147e-06
5.4639e-06
5.28768e-06
5.11283e-06
4.93942e-06
4.76748e-06
4.59706e-06
4.42822e-06
4.26102e-06
4.09551e-06
3.93175e-06
3.76981e-06
3.60976e-06
3.45166e-06
3.29558e-06
3.14162e-06
2.98985e-06
2.84035e-06
2.69323e-06
2.54857e-06
2.40648e-06
2.26706e-06
2.13043e-06
1.9967e-06
1.86601e-06
1.73847e-06
1.61423e-06
1.49343e-06
1.37621e-06
1.26272e-06
1.15312e-06
1.04755e-06
9.46164e-07
8.48972e-07
7.55538e-07
6.61691e-07
5.69341e-07
4.82342e-07
4.0134e-07
3.27016e-07
2.60043e-07
2.01022e-07
1.50402e-07
1.08382e-07
7.48189e-08
4.91823e-08
3.05742e-08
1.78246e-08
9.6406e-09
4.76558e-09
2.10643e-09
8.04839e-10
2.51522e-10
5.8328e-11
8.30724e-12
4.77423e-13
3.82108e-15
1.30757e-05
1.2876e-05
1.26762e-05
1.24764e-05
1.22765e-05
1.20767e-05
1.1877e-05
1.16773e-05
1.14779e-05
1.12786e-05
1.10796e-05
1.08809e-05
1.06825e-05
1.04845e-05
1.0287e-05
1.00862e-05
9.88364e-06
9.68093e-06
9.47888e-06
9.27786e-06
9.07804e-06
8.87947e-06
8.68211e-06
8.48595e-06
8.29092e-06
8.097e-06
7.90416e-06
7.71237e-06
7.52162e-06
7.33192e-06
7.14326e-06
6.95567e-06
6.76915e-06
6.58373e-06
6.39943e-06
6.21628e-06
6.03431e-06
5.85356e-06
5.67407e-06
5.49586e-06
5.31899e-06
5.14349e-06
4.96941e-06
4.79681e-06
4.62572e-06
4.4562e-06
4.28831e-06
4.12211e-06
3.95765e-06
3.795e-06
3.63423e-06
3.47541e-06
3.31862e-06
3.16392e-06
3.01141e-06
2.86117e-06
2.7133e-06
2.56788e-06
2.42503e-06
2.28485e-06
2.14746e-06
2.01296e-06
1.8815e-06
1.75318e-06
1.62817e-06
1.50659e-06
1.38859e-06
1.27433e-06
1.16396e-06
1.05764e-06
9.55503e-07
8.57588e-07
7.63516e-07
6.69626e-07
5.76536e-07
4.88779e-07
4.07009e-07
3.31912e-07
2.64172e-07
2.04405e-07
1.5308e-07
1.10417e-07
7.62918e-08
5.0191e-08
3.12224e-08
1.82119e-08
9.85351e-09
4.87162e-09
2.15324e-09
8.22532e-10
2.56928e-10
5.95311e-11
8.46569e-12
4.85043e-13
3.85676e-15
1.3122e-05
1.29221e-05
1.27221e-05
1.2522e-05
1.23218e-05
1.21217e-05
1.19217e-05
1.17218e-05
1.1522e-05
1.13224e-05
1.11231e-05
1.0924e-05
1.07252e-05
1.05269e-05
1.03289e-05
1.0129e-05
9.92647e-06
9.72344e-06
9.52087e-06
9.31926e-06
9.11882e-06
8.91961e-06
8.72165e-06
8.52488e-06
8.32926e-06
8.13477e-06
7.94135e-06
7.749e-06
7.5577e-06
7.36744e-06
7.17823e-06
6.99008e-06
6.803e-06
6.61701e-06
6.43214e-06
6.24842e-06
6.06588e-06
5.88454e-06
5.70446e-06
5.52566e-06
5.34818e-06
5.17208e-06
4.99739e-06
4.82416e-06
4.65245e-06
4.4823e-06
4.31377e-06
4.14693e-06
3.98182e-06
3.81851e-06
3.65708e-06
3.49759e-06
3.34012e-06
3.18475e-06
3.03155e-06
2.88062e-06
2.73205e-06
2.58593e-06
2.44238e-06
2.30149e-06
2.16337e-06
2.02816e-06
1.89598e-06
1.76694e-06
1.6412e-06
1.5189e-06
1.40018e-06
1.2852e-06
1.17412e-06
1.06709e-06
9.64251e-07
8.6566e-07
7.70994e-07
6.77063e-07
5.83281e-07
4.94819e-07
4.12331e-07
3.36513e-07
2.68056e-07
2.07591e-07
1.55606e-07
1.12337e-07
7.76842e-08
5.11457e-08
3.18366e-08
1.85793e-08
1.00556e-08
4.9723e-09
2.19769e-09
8.39333e-10
2.62059e-10
6.06723e-11
8.61578e-12
4.92241e-13
3.89027e-15
1.31647e-05
1.29646e-05
1.27644e-05
1.2564e-05
1.23637e-05
1.21633e-05
1.1963e-05
1.17628e-05
1.15627e-05
1.13628e-05
1.11632e-05
1.09638e-05
1.07647e-05
1.0566e-05
1.03676e-05
1.01685e-05
9.96599e-06
9.76266e-06
9.55963e-06
9.35749e-06
9.15648e-06
8.95671e-06
8.75818e-06
8.56086e-06
8.3647e-06
8.16968e-06
7.97574e-06
7.78287e-06
7.59105e-06
7.40028e-06
7.21055e-06
7.02189e-06
6.83429e-06
6.64779e-06
6.46239e-06
6.27815e-06
6.09507e-06
5.9132e-06
5.73257e-06
5.55322e-06
5.3752e-06
5.19853e-06
5.02328e-06
4.84948e-06
4.67719e-06
4.50646e-06
4.33735e-06
4.1699e-06
4.0042e-06
3.84029e-06
3.67824e-06
3.51814e-06
3.36004e-06
3.20404e-06
3.05021e-06
2.89864e-06
2.74942e-06
2.60266e-06
2.45845e-06
2.31691e-06
2.17813e-06
2.04226e-06
1.90941e-06
1.77971e-06
1.6533e-06
1.53033e-06
1.41094e-06
1.2953e-06
1.18355e-06
1.07586e-06
9.72376e-07
8.73161e-07
7.77945e-07
6.83974e-07
5.89553e-07
5.00438e-07
4.17286e-07
3.40799e-07
2.71678e-07
2.10566e-07
1.57966e-07
1.14135e-07
7.8989e-08
5.20414e-08
3.24134e-08
1.89246e-08
1.02456e-08
5.06701e-09
2.23951e-09
8.5514e-10
2.66885e-10
6.1745e-11
8.75668e-12
4.98981e-13
3.92147e-15
1.32037e-05
1.30035e-05
1.2803e-05
1.26025e-05
1.24019e-05
1.22013e-05
1.20008e-05
1.18003e-05
1.16e-05
1.13998e-05
1.11999e-05
1.10002e-05
1.08008e-05
1.06018e-05
1.04031e-05
1.02046e-05
1.00021e-05
9.79852e-06
9.59509e-06
9.39247e-06
9.19097e-06
8.99068e-06
8.79164e-06
8.59382e-06
8.39717e-06
8.20165e-06
8.00724e-06
7.81389e-06
7.62161e-06
7.43036e-06
7.24017e-06
7.05103e-06
6.86297e-06
6.67599e-06
6.49012e-06
6.30539e-06
6.12183e-06
5.93947e-06
5.75834e-06
5.57849e-06
5.39996e-06
5.22279e-06
5.04702e-06
4.8727e-06
4.69988e-06
4.52862e-06
4.35897e-06
4.19098e-06
4.02473e-06
3.86026e-06
3.69766e-06
3.53699e-06
3.37833e-06
3.22175e-06
3.06734e-06
2.91518e-06
2.76538e-06
2.61802e-06
2.47322e-06
2.33107e-06
2.19169e-06
2.05521e-06
1.92175e-06
1.79144e-06
1.66442e-06
1.54083e-06
1.42083e-06
1.30458e-06
1.19222e-06
1.08393e-06
9.79854e-07
8.80065e-07
7.84345e-07
6.90336e-07
5.95329e-07
5.05616e-07
4.21855e-07
3.44755e-07
2.75023e-07
2.13316e-07
1.6015e-07
1.158e-07
8.01991e-08
5.28729e-08
3.29494e-08
1.92458e-08
1.04225e-08
5.15519e-09
2.27845e-09
8.69857e-10
2.71377e-10
6.27427e-11
8.88758e-12
5.05227e-13
3.95025e-15
1.32391e-05
1.30386e-05
1.2838e-05
1.26373e-05
1.24365e-05
1.22357e-05
1.2035e-05
1.18343e-05
1.16337e-05
1.14333e-05
1.12331e-05
1.10331e-05
1.08335e-05
1.06342e-05
1.04352e-05
1.02367e-05
1.00346e-05
9.83097e-06
9.62724e-06
9.42421e-06
9.22224e-06
9.02149e-06
8.82198e-06
8.62369e-06
8.42659e-06
8.23064e-06
8.03579e-06
7.84201e-06
7.6493e-06
7.45763e-06
7.26702e-06
7.07745e-06
6.88896e-06
6.70155e-06
6.51525e-06
6.33009e-06
6.14609e-06
5.96328e-06
5.78171e-06
5.60141e-06
5.42242e-06
5.24479e-06
5.06855e-06
4.89376e-06
4.72047e-06
4.54872e-06
4.37859e-06
4.21011e-06
4.04336e-06
3.87839e-06
3.71528e-06
3.5541e-06
3.39492e-06
3.23782e-06
3.08289e-06
2.93021e-06
2.77987e-06
2.63198e-06
2.48663e-06
2.34394e-06
2.20401e-06
2.06698e-06
1.93296e-06
1.8021e-06
1.67452e-06
1.55038e-06
1.42983e-06
1.31302e-06
1.20011e-06
1.09128e-06
9.86657e-07
8.86348e-07
7.90171e-07
6.96128e-07
6.00589e-07
5.10333e-07
4.2602e-07
3.48362e-07
2.78077e-07
2.15828e-07
1.62148e-07
1.17325e-07
8.1308e-08
5.36357e-08
3.34415e-08
1.95409e-08
1.0585e-08
5.23628e-09
2.31427e-09
8.83392e-10
2.75507e-10
6.36595e-11
9.00774e-12
5.10948e-13
3.97648e-15
1.32706e-05
1.307e-05
1.28693e-05
1.26684e-05
1.24674e-05
1.22665e-05
1.20655e-05
1.18646e-05
1.16638e-05
1.14632e-05
1.12628e-05
1.10626e-05
1.08627e-05
1.06631e-05
1.04639e-05
1.02651e-05
1.00636e-05
9.85993e-06
9.65597e-06
9.45259e-06
9.25023e-06
9.04905e-06
8.84912e-06
8.65042e-06
8.45291e-06
8.25656e-06
8.06132e-06
7.86716e-06
7.67407e-06
7.48202e-06
7.29103e-06
7.10109e-06
6.91221e-06
6.72442e-06
6.53774e-06
6.35219e-06
6.16779e-06
5.98459e-06
5.80262e-06
5.62192e-06
5.44252e-06
5.26448e-06
5.08782e-06
4.91261e-06
4.7389e-06
4.56672e-06
4.39615e-06
4.22724e-06
4.06004e-06
3.89463e-06
3.73107e-06
3.56943e-06
3.40979e-06
3.25223e-06
3.09682e-06
2.94367e-06
2.79285e-06
2.64448e-06
2.49865e-06
2.35547e-06
2.21506e-06
2.07753e-06
1.94302e-06
1.81166e-06
1.68359e-06
1.55895e-06
1.4379e-06
1.32059e-06
1.20719e-06
1.09787e-06
9.92763e-07
8.91989e-07
7.95402e-07
7.01328e-07
6.05314e-07
5.14571e-07
4.29764e-07
3.51608e-07
2.80826e-07
2.18092e-07
1.63949e-07
1.18701e-07
8.23098e-08
5.43254e-08
3.38868e-08
1.9808e-08
1.07323e-08
5.30976e-09
2.34673e-09
8.95658e-10
2.79249e-10
6.44898e-11
9.11645e-12
5.16114e-13
4.00008e-15
1.32983e-05
1.30976e-05
1.28967e-05
1.26957e-05
1.24946e-05
1.22935e-05
1.20923e-05
1.18913e-05
1.16903e-05
1.14895e-05
1.12889e-05
1.10885e-05
1.08884e-05
1.06886e-05
1.04892e-05
1.02902e-05
1.00891e-05
9.88539e-06
9.68123e-06
9.47755e-06
9.27483e-06
9.07329e-06
8.87299e-06
8.67393e-06
8.47607e-06
8.27937e-06
8.08379e-06
7.88929e-06
7.69586e-06
7.50348e-06
7.31216e-06
7.12188e-06
6.93267e-06
6.74455e-06
6.55753e-06
6.37163e-06
6.1869e-06
6.00335e-06
5.82103e-06
5.63997e-06
5.46022e-06
5.28181e-06
5.10479e-06
4.92921e-06
4.75512e-06
4.58257e-06
4.41162e-06
4.24232e-06
4.07473e-06
3.90893e-06
3.74497e-06
3.58293e-06
3.42289e-06
3.26491e-06
3.1091e-06
2.95553e-06
2.8043e-06
2.6555e-06
2.50924e-06
2.36563e-06
2.22479e-06
2.08683e-06
1.95189e-06
1.82009e-06
1.69158e-06
1.5665e-06
1.44501e-06
1.32727e-06
1.21344e-06
1.10368e-06
9.98153e-07
8.96968e-07
8.00021e-07
7.05918e-07
6.09486e-07
5.18315e-07
4.33073e-07
3.54478e-07
2.83258e-07
2.20096e-07
1.65545e-07
1.19921e-07
8.31988e-08
5.4938e-08
3.42826e-08
2.00456e-08
1.08634e-08
5.37516e-09
2.37563e-09
9.06576e-10
2.82579e-10
6.52283e-11
9.21306e-12
5.20697e-13
4.02093e-15
1.33222e-05
1.31214e-05
1.29204e-05
1.27192e-05
1.2518e-05
1.23167e-05
1.21155e-05
1.19142e-05
1.17131e-05
1.15121e-05
1.13114e-05
1.11108e-05
1.09105e-05
1.07105e-05
1.05109e-05
1.03117e-05
1.0111e-05
9.90729e-06
9.70296e-06
9.49902e-06
9.29601e-06
9.09416e-06
8.89355e-06
8.69417e-06
8.49601e-06
8.29901e-06
8.10313e-06
7.90835e-06
7.71463e-06
7.52196e-06
7.33035e-06
7.13979e-06
6.9503e-06
6.76188e-06
6.57457e-06
6.38839e-06
6.20335e-06
6.01951e-06
5.83689e-06
5.65553e-06
5.47547e-06
5.29675e-06
5.11941e-06
4.94352e-06
4.7691e-06
4.59623e-06
4.42495e-06
4.25532e-06
4.0874e-06
3.92125e-06
3.75695e-06
3.59457e-06
3.43418e-06
3.27585e-06
3.11968e-06
2.96575e-06
2.81416e-06
2.665e-06
2.51838e-06
2.3744e-06
2.23319e-06
2.09486e-06
1.95954e-06
1.82736e-06
1.69848e-06
1.57302e-06
1.45116e-06
1.33304e-06
1.21883e-06
1.1087e-06
1.00281e-06
9.01267e-07
8.04011e-07
7.09883e-07
6.1309e-07
5.21551e-07
4.35934e-07
3.5696e-07
2.85362e-07
2.21831e-07
1.66928e-07
1.20979e-07
8.39703e-08
5.54699e-08
3.46265e-08
2.02522e-08
1.09773e-08
5.43204e-09
2.40076e-09
9.16073e-10
2.85475e-10
6.58703e-11
9.297e-12
5.24673e-13
4.03897e-15
1.33421e-05
1.31412e-05
1.29401e-05
1.27389e-05
1.25375e-05
1.23361e-05
1.21348e-05
1.19334e-05
1.17322e-05
1.15311e-05
1.13301e-05
1.11294e-05
1.0929e-05
1.07289e-05
1.05291e-05
1.03297e-05
1.01293e-05
9.92561e-06
9.72113e-06
9.51698e-06
9.31372e-06
9.11161e-06
8.91074e-06
8.71111e-06
8.51269e-06
8.31544e-06
8.11932e-06
7.92429e-06
7.73033e-06
7.53743e-06
7.34558e-06
7.15478e-06
6.96505e-06
6.77639e-06
6.58883e-06
6.4024e-06
6.21713e-06
6.03303e-06
5.85016e-06
5.66854e-06
5.48823e-06
5.30925e-06
5.13165e-06
4.95549e-06
4.78081e-06
4.60766e-06
4.43611e-06
4.2662e-06
4.098e-06
3.93157e-06
3.76699e-06
3.60431e-06
3.44363e-06
3.28501e-06
3.12855e-06
2.97432e-06
2.82242e-06
2.67296e-06
2.52603e-06
2.38174e-06
2.24022e-06
2.10158e-06
1.96594e-06
1.83346e-06
1.70425e-06
1.57849e-06
1.4563e-06
1.33787e-06
1.22335e-06
1.11291e-06
1.00671e-06
9.04873e-07
8.07357e-07
7.13208e-07
6.16114e-07
5.24266e-07
4.38335e-07
3.59044e-07
2.8713e-07
2.2329e-07
1.68091e-07
1.21869e-07
8.46199e-08
5.5918e-08
3.49164e-08
2.04264e-08
1.10734e-08
5.48004e-09
2.42197e-09
9.24087e-10
2.87918e-10
6.64118e-11
9.36774e-12
5.2802e-13
4.05411e-15
1.33581e-05
1.31571e-05
1.29559e-05
1.27546e-05
1.25532e-05
1.23517e-05
1.21503e-05
1.19488e-05
1.17475e-05
1.15462e-05
1.13452e-05
1.11444e-05
1.09438e-05
1.07436e-05
1.05437e-05
1.03441e-05
1.0144e-05
9.9403e-06
9.73571e-06
9.53139e-06
9.32794e-06
9.12562e-06
8.92453e-06
8.7247e-06
8.52607e-06
8.32862e-06
8.13231e-06
7.93708e-06
7.74293e-06
7.54984e-06
7.3578e-06
7.16681e-06
6.97688e-06
6.78803e-06
6.60028e-06
6.41366e-06
6.22818e-06
6.04389e-06
5.86081e-06
5.67899e-06
5.49847e-06
5.31928e-06
5.14148e-06
4.9651e-06
4.79021e-06
4.61684e-06
4.44507e-06
4.27493e-06
4.10651e-06
3.93986e-06
3.77504e-06
3.61214e-06
3.45122e-06
3.29237e-06
3.13566e-06
2.98119e-06
2.82906e-06
2.67935e-06
2.53217e-06
2.38764e-06
2.24587e-06
2.10698e-06
1.97109e-06
1.83835e-06
1.7089e-06
1.58287e-06
1.46044e-06
1.34175e-06
1.22698e-06
1.11629e-06
1.00984e-06
9.0777e-07
8.10047e-07
7.15881e-07
6.18545e-07
5.2645e-07
4.40267e-07
3.60721e-07
2.88554e-07
2.24464e-07
1.69028e-07
1.22587e-07
8.51438e-08
5.62797e-08
3.51504e-08
2.0567e-08
1.11511e-08
5.51882e-09
2.43911e-09
9.30562e-10
2.89892e-10
6.68492e-11
9.42484e-12
5.30718e-13
4.06629e-15
1.33701e-05
1.31691e-05
1.29678e-05
1.27665e-05
1.2565e-05
1.23634e-05
1.21619e-05
1.19604e-05
1.1759e-05
1.15577e-05
1.13565e-05
1.11556e-05
1.0955e-05
1.07546e-05
1.05546e-05
1.0355e-05
1.0155e-05
9.95135e-06
9.74668e-06
9.54223e-06
9.33862e-06
9.13615e-06
8.93491e-06
8.73491e-06
8.53614e-06
8.33854e-06
8.14207e-06
7.9467e-06
7.75241e-06
7.55917e-06
7.36699e-06
7.17585e-06
6.98578e-06
6.79679e-06
6.60889e-06
6.42212e-06
6.2365e-06
6.05205e-06
5.86883e-06
5.68685e-06
5.50617e-06
5.32683e-06
5.14887e-06
4.97233e-06
4.79727e-06
4.62375e-06
4.4518e-06
4.28151e-06
4.11291e-06
3.94609e-06
3.7811e-06
3.61802e-06
3.45693e-06
3.2979e-06
3.14101e-06
2.98637e-06
2.83405e-06
2.68416e-06
2.5368e-06
2.39208e-06
2.25012e-06
2.11103e-06
1.97496e-06
1.84203e-06
1.71239e-06
1.58617e-06
1.46355e-06
1.34467e-06
1.22971e-06
1.11883e-06
1.0122e-06
9.09945e-07
8.12055e-07
7.17806e-07
6.20367e-07
5.28088e-07
4.41716e-07
3.6198e-07
2.89623e-07
2.25347e-07
1.69732e-07
1.23127e-07
8.55382e-08
5.6552e-08
3.53268e-08
2.0673e-08
1.12096e-08
5.54806e-09
2.45203e-09
9.35444e-10
2.9138e-10
6.71788e-11
9.46786e-12
5.32748e-13
4.07541e-15
1.33781e-05
1.31771e-05
1.29758e-05
1.27744e-05
1.25729e-05
1.23713e-05
1.21697e-05
1.19681e-05
1.17666e-05
1.15653e-05
1.13641e-05
1.11631e-05
1.09624e-05
1.0762e-05
1.05619e-05
1.03622e-05
1.01624e-05
9.95873e-06
9.754e-06
9.54946e-06
9.34576e-06
9.14318e-06
8.94183e-06
8.74174e-06
8.54286e-06
8.34516e-06
8.14859e-06
7.95313e-06
7.75874e-06
7.56541e-06
7.37312e-06
7.1819e-06
6.99173e-06
6.80264e-06
6.61465e-06
6.42777e-06
6.24205e-06
6.05751e-06
5.87418e-06
5.6921e-06
5.51132e-06
5.33187e-06
5.1538e-06
4.97716e-06
4.80199e-06
4.62836e-06
4.4563e-06
4.28589e-06
4.11719e-06
3.95025e-06
3.78515e-06
3.62195e-06
3.46074e-06
3.30159e-06
3.14459e-06
2.98982e-06
2.83738e-06
2.68736e-06
2.53988e-06
2.39504e-06
2.25295e-06
2.11374e-06
1.97754e-06
1.84449e-06
1.71471e-06
1.58837e-06
1.46562e-06
1.34662e-06
1.23153e-06
1.12053e-06
1.01377e-06
9.11393e-07
8.13384e-07
7.1903e-07
6.21579e-07
5.29177e-07
4.42681e-07
3.62819e-07
2.90336e-07
2.25936e-07
1.70203e-07
1.23488e-07
8.58015e-08
5.67339e-08
3.54446e-08
2.07439e-08
1.12488e-08
5.5676e-09
2.46067e-09
9.38708e-10
2.92375e-10
6.7399e-11
9.49658e-12
5.34102e-13
4.08147e-15
1.33821e-05
1.3181e-05
1.29798e-05
1.27783e-05
1.25768e-05
1.23752e-05
1.21736e-05
1.1972e-05
1.17705e-05
1.15691e-05
1.13679e-05
1.11669e-05
1.09661e-05
1.07657e-05
1.05656e-05
1.03659e-05
1.01661e-05
9.96242e-06
9.75766e-06
9.55308e-06
9.34933e-06
9.1467e-06
8.9453e-06
8.74515e-06
8.54622e-06
8.34847e-06
8.15186e-06
7.95635e-06
7.76191e-06
7.56853e-06
7.3762e-06
7.18492e-06
6.99471e-06
6.80557e-06
6.61753e-06
6.4306e-06
6.24483e-06
6.06024e-06
5.87686e-06
5.69473e-06
5.5139e-06
5.3344e-06
5.15627e-06
4.97958e-06
4.80436e-06
4.63067e-06
4.45856e-06
4.28809e-06
4.11933e-06
3.95233e-06
3.78717e-06
3.62392e-06
3.46265e-06
3.30344e-06
3.14638e-06
2.99155e-06
2.83905e-06
2.68897e-06
2.54143e-06
2.39652e-06
2.25437e-06
2.1151e-06
1.97884e-06
1.84572e-06
1.71588e-06