/*--------------------------------*- C++ -*----------------------------------*\
  =========                 |
  \\      /  F ield         | OpenFOAM: The Open Source CFD Toolbox
   \\    /   O peration     | Website:  https://openfoam.org
    \\  /    A nd           | Version:  7
     \\/     M anipulation  |
\*---------------------------------------------------------------------------*/
FoamFile
{
    version     2.0;
    format      ascii;
    class       volScalarField;
    location    "268000";
    object      p;
}
// * * * * * * * * * * * * * * * * * * * * * * * * * * * * * * * * * * * * * //

dimensions      [0 2 -2 0 0 0 0];

internalField   nonuniform List<scalar> 
4850
(
-5.53783e-19
-5.38732e-19
-5.53536e-19
-5.36712e-19
-5.5284e-19
-5.65485e-19
-5.53152e-19
-5.50917e-19
-5.49956e-19
-5.5197e-19
-5.56882e-19
-5.51685e-19
-5.53307e-19
-5.5735e-19
-5.48299e-19
-5.53731e-19
-5.60517e-19
-5.55375e-19
-5.40494e-19
-5.58178e-19
-5.44619e-19
-5.54305e-19
-5.51169e-19
-5.73332e-19
-5.6021e-19
-5.45579e-19
-5.60648e-19
-5.54855e-19
-5.45999e-19
-5.64171e-19
-5.64101e-19
-5.8512e-19
-5.51401e-19
-5.53735e-19
-5.55758e-19
-5.49581e-19
-5.52275e-19
-5.49383e-19
-5.67825e-19
-5.78806e-19
-5.65544e-19
-5.55485e-19
-5.44586e-19
-5.5401e-19
-5.67789e-19
-5.57309e-19
-5.50465e-19
-5.56338e-19
-5.64283e-19
-5.65651e-19
-5.61648e-19
-5.56753e-19
-5.73613e-19
-5.58877e-19
-5.62987e-19
-5.79748e-19
-5.4827e-19
-5.58944e-19
-5.62916e-19
-5.67348e-19
-5.55073e-19
-5.62811e-19
-5.67037e-19
-5.63591e-19
-5.6672e-19
-5.58778e-19
-5.6385e-19
-5.67163e-19
-5.53432e-19
-5.57615e-19
-5.61452e-19
-5.65036e-19
-5.65416e-19
-5.62798e-19
-5.57729e-19
-5.60469e-19
-5.58487e-19
-5.55585e-19
-5.57397e-19
-5.6341e-19
-5.81303e-19
-5.63597e-19
-5.65055e-19
-5.58106e-19
-5.60845e-19
-5.60854e-19
-5.61423e-19
-5.66645e-19
-5.57198e-19
-5.64652e-19
-5.68654e-19
-5.66066e-19
-5.66918e-19
-5.85058e-19
-5.60188e-19
-5.63767e-19
-5.60906e-19
-5.61066e-19
-5.55129e-19
-5.69983e-19
-5.76345e-19
-5.71661e-19
-5.62672e-19
-5.58159e-19
-5.61859e-19
-5.56949e-19
-5.73574e-19
-5.70219e-19
-5.7327e-19
-5.62186e-19
-5.73296e-19
-5.65606e-19
-5.63526e-19
-5.69859e-19
-5.68665e-19
-5.85243e-19
-5.95111e-19
-5.65903e-19
-5.6141e-19
-5.62527e-19
-5.59535e-19
-5.58875e-19
-5.57633e-19
-5.58631e-19
-5.55983e-19
-5.64761e-19
-5.65146e-19
-5.62066e-19
-5.68128e-19
-5.51347e-19
-5.664e-19
-5.6026e-19
-5.7458e-19
-5.60674e-19
-5.82082e-19
-5.64346e-19
-5.46887e-19
-5.56398e-19
-5.66432e-19
-5.7008e-19
-5.80545e-19
-5.52049e-19
-5.73142e-19
-5.91129e-19
-5.66961e-19
-5.51072e-19
-5.84704e-19
-5.5244e-19
-5.67961e-19
-5.52134e-19
-5.59275e-19
-5.57043e-19
-5.61175e-19
-5.45274e-19
-5.61232e-19
-5.70745e-19
-5.61464e-19
-5.56132e-19
-5.56398e-19
-5.70062e-19
-5.51499e-19
-5.87499e-19
-5.51887e-19
-5.7045e-19
-5.51802e-19
-5.41674e-19
-5.77308e-19
-5.65943e-19
-5.53813e-19
-5.74657e-19
-5.50487e-19
-5.78751e-19
-6.06323e-19
-5.73892e-19
-5.58435e-19
-5.85696e-19
-5.89506e-19
-5.73859e-19
-5.98345e-19
-5.43226e-19
-5.81159e-19
-5.61426e-19
-5.52918e-19
-5.60215e-19
-5.73119e-19
-5.62919e-19
-5.67561e-19
-5.71602e-19
-5.60497e-19
-5.60068e-19
-5.55647e-19
-5.66336e-19
-5.51329e-19
-5.88839e-19
-5.80585e-19
-5.69767e-19
-5.62966e-19
-5.43841e-19
-5.73738e-19
-5.65771e-19
-5.70467e-19
-5.72527e-19
-5.66177e-19
-5.90069e-19
-5.88703e-19
-5.71606e-19
-5.56831e-19
-5.85894e-19
-5.91981e-19
-5.90509e-19
-5.95646e-19
-6.15835e-19
-6.84639e-19
-5.55333e-19
-5.62336e-19
-5.6238e-19
-5.65973e-19
-5.70521e-19
-5.72682e-19
-5.49691e-19
-5.71389e-19
-5.673e-19
-5.60244e-19
-5.56629e-19
-5.43821e-19
-5.64452e-19
-5.5788e-19
-5.71019e-19
-5.7585e-19
-5.68337e-19
-5.75987e-19
-5.69872e-19
-5.72354e-19
-5.68389e-19
-5.87438e-19
-5.6666e-19
-5.70123e-19
-5.78602e-19
-6.02093e-19
-5.68952e-19
-5.63241e-19
-5.85109e-19
-5.96065e-19
-5.94669e-19
-6.22575e-19
-6.0113e-19
-7.23337e-19
-5.62258e-19
-5.6499e-19
-5.6137e-19
-5.7023e-19
-5.65457e-19
-5.68765e-19
-5.58698e-19
-5.66079e-19
-5.68993e-19
-5.61981e-19
-5.62964e-19
-5.61533e-19
-5.67445e-19
-5.63853e-19
-5.66053e-19
-5.83999e-19
-5.69301e-19
-5.88212e-19
-5.80565e-19
-5.72502e-19
-5.66615e-19
-5.78992e-19
-5.8352e-19
-5.67712e-19
-5.80791e-19
-6.15002e-19
-5.55853e-19
-5.86171e-19
-5.9176e-19
-6.07723e-19
-5.82796e-19
-6.47396e-19
-6.1727e-19
-7.59179e-19
-5.64521e-19
-5.63694e-19
-5.60801e-19
-5.74019e-19
-5.67669e-19
-5.64068e-19
-5.59269e-19
-5.6219e-19
-5.56061e-19
-5.61782e-19
-5.69286e-19
-5.59106e-19
-5.72238e-19
-5.63639e-19
-5.63882e-19
-5.73663e-19
-5.67073e-19
-5.70468e-19
-5.51173e-19
-5.72126e-19
-5.66977e-19
-5.82713e-19
-5.66526e-19
-5.54905e-19
-5.89835e-19
-5.85761e-19
-5.53786e-19
-5.81315e-19
-6.01712e-19
-5.94422e-19
-5.95458e-19
-6.46124e-19
-6.21617e-19
-7.53395e-19
-5.72005e-19
-5.63357e-19
-5.54886e-19
-5.78156e-19
-5.59098e-19
-5.67224e-19
-5.6133e-19
-5.60068e-19
-5.62415e-19
-5.56035e-19
-5.57339e-19
-5.60669e-19
-5.67407e-19
-5.64669e-19
-5.60425e-19
-5.66166e-19
-5.68598e-19
-5.5717e-19
-5.43962e-19
-5.75886e-19
-5.63864e-19
-5.76085e-19
-5.80412e-19
-5.60583e-19
-5.79228e-19
-5.77424e-19
-5.73103e-19
-5.77713e-19
-5.89948e-19
-5.74868e-19
-5.99708e-19
-6.28706e-19
-6.18428e-19
-7.51709e-19
-5.81756e-19
-5.53382e-19
-5.59193e-19
-5.8378e-19
-5.5178e-19
-5.72082e-19
-5.55208e-19
-5.59762e-19
-5.62675e-19
-5.41872e-19
-5.57641e-19
-5.66715e-19
-5.6681e-19
-5.63493e-19
-5.47806e-19
-5.69447e-19
-5.62025e-19
-5.67366e-19
-5.57734e-19
-5.89324e-19
-5.52006e-19
-5.65658e-19
-5.61913e-19
-5.85653e-19
-5.77259e-19
-5.79941e-19
-5.90682e-19
-5.77952e-19
-5.87876e-19
-5.82708e-19
-5.98053e-19
-6.20468e-19
-6.13327e-19
-7.2634e-19
-5.80175e-19
-5.64222e-19
-5.5849e-19
-5.69766e-19
-5.54593e-19
-5.67104e-19
-5.53803e-19
-5.54681e-19
-5.53914e-19
-5.44978e-19
-5.66513e-19
-5.48942e-19
-5.66501e-19
-5.6669e-19
-5.60017e-19
-5.69701e-19
-5.48659e-19
-5.54246e-19
-5.49883e-19
-5.77822e-19
-5.62937e-19
-5.53073e-19
-5.69632e-19
-5.77443e-19
-5.78693e-19
-5.76167e-19
-5.76328e-19
-5.77262e-19
-5.90692e-19
-5.74719e-19
-5.97868e-19
-6.16895e-19
-6.00175e-19
-7.00357e-19
-5.6223e-19
-5.68004e-19
-5.56554e-19
-5.61973e-19
-5.50719e-19
-5.65701e-19
-5.55174e-19
-5.64811e-19
-5.61244e-19
-5.5068e-19
-5.88761e-19
-5.39491e-19
-5.5825e-19
-5.70469e-19
-5.6481e-19
-5.69576e-19
-5.63876e-19
-5.65016e-19
-5.6479e-19
-5.75159e-19
-5.67956e-19
-5.66572e-19
-5.73592e-19
-5.72834e-19
-5.75712e-19
-5.74538e-19
-5.7448e-19
-5.72345e-19
-5.8543e-19
-5.85971e-19
-5.98306e-19
-6.13794e-19
-6.14935e-19
-6.88379e-19
-5.61909e-19
-5.73257e-19
-5.60382e-19
-5.56522e-19
-5.53137e-19
-5.57829e-19
-5.55868e-19
-5.66725e-19
-5.59645e-19
-5.59404e-19
-5.83642e-19
-5.50573e-19
-5.5826e-19
-5.71688e-19
-5.55882e-19
-5.80371e-19
-5.68146e-19
-5.70872e-19
-5.80582e-19
-5.72683e-19
-5.72021e-19
-5.66567e-19
-5.73759e-19
-5.72666e-19
-5.83072e-19
-5.75225e-19
-5.75369e-19
-5.60544e-19
-5.86977e-19
-5.85739e-19
-5.95854e-19
-6.10659e-19
-6.26783e-19
-6.59409e-19
-5.67579e-19
-5.67217e-19
-5.53394e-19
-5.65107e-19
-5.59408e-19
-5.63187e-19
-5.47782e-19
-5.63562e-19
-5.61693e-19
-5.67607e-19
-5.693e-19
-5.51074e-19
-5.67304e-19
-5.64961e-19
-5.53807e-19
-5.62189e-19
-5.70281e-19
-5.73388e-19
-5.65102e-19
-5.71638e-19
-5.79098e-19
-5.50617e-19
-5.72594e-19
-5.73335e-19
-6.07069e-19
-5.82012e-19
-5.78242e-19
-5.7694e-19
-5.96908e-19
-5.76823e-19
-5.92936e-19
-6.12334e-19
-6.12277e-19
-6.42094e-19
-5.98354e-19
-5.61586e-19
-5.74596e-19
-5.57301e-19
-5.70685e-19
-5.57659e-19
-5.61449e-19
-5.55261e-19
-5.50596e-19
-5.74254e-19
-5.5795e-19
-5.6449e-19
-5.60983e-19
-5.74097e-19
-5.57235e-19
-5.58652e-19
-5.72379e-19
-5.84585e-19
-5.82329e-19
-5.48087e-19
-5.75098e-19
-5.55497e-19
-5.44944e-19
-5.71732e-19
-5.7452e-19
-5.8415e-19
-5.93053e-19
-5.83146e-19
-5.9038e-19
-5.85897e-19
-5.98713e-19
-5.92086e-19
-6.25814e-19
-6.05828e-19
-6.25059e-19
-6.00086e-19
-5.47328e-19
-5.73079e-19
-5.57949e-19
-5.63051e-19
-5.60948e-19
-5.60514e-19
-5.67228e-19
-5.51016e-19
-5.6594e-19
-5.50553e-19
-5.65126e-19
-5.64101e-19
-5.70753e-19
-5.52101e-19
-5.57192e-19
-5.68773e-19
-5.72754e-19
-5.74281e-19
-5.56242e-19
-5.84136e-19
-5.61225e-19
-5.53271e-19
-5.71476e-19
-5.77211e-19
-5.70931e-19
-5.83142e-19
-5.79002e-19
-5.81927e-19
-5.79974e-19
-5.97312e-19
-5.91047e-19
-6.24798e-19
-6.01759e-19
-6.39248e-19
-6.12073e-19
-5.55573e-19
-5.66777e-19
-5.54048e-19
-5.69813e-19
-5.54973e-19
-5.58709e-19
-5.58984e-19
-5.41593e-19
-5.58729e-19
-5.55564e-19
-5.67436e-19
-5.62006e-19
-5.58885e-19
-5.66805e-19
-5.6654e-19
-5.6183e-19
-5.59151e-19
-5.68342e-19
-5.63457e-19
-5.78479e-19
-5.67304e-19
-5.83439e-19
-5.72751e-19
-5.76742e-19
-5.6034e-19
-5.79824e-19
-5.76385e-19
-5.78708e-19
-5.74263e-19
-6.03236e-19
-5.87655e-19
-6.07722e-19
-6.04711e-19
-6.31255e-19
-5.60561e-19
-5.79031e-19
-5.47286e-19
-5.72736e-19
-5.56326e-19
-5.55197e-19
-5.54705e-19
-5.59689e-19
-5.64886e-19
-5.58991e-19
-5.58327e-19
-5.61931e-19
-5.63655e-19
-5.68615e-19
-5.69721e-19
-5.63863e-19
-5.64523e-19
-5.70591e-19
-5.68365e-19
-5.84739e-19
-5.67958e-19
-5.89351e-19
-5.72477e-19
-5.7631e-19
-5.68268e-19
-5.85784e-19
-5.77647e-19
-5.85185e-19
-5.62748e-19
-5.93959e-19
-5.84824e-19
-6.02487e-19
-6.089e-19
-6.11825e-19
-5.63492e-19
-5.85155e-19
-5.53001e-19
-5.66483e-19
-5.56371e-19
-5.42995e-19
-5.5824e-19
-5.55674e-19
-5.5691e-19
-5.59727e-19
-5.59894e-19
-5.64129e-19
-5.6145e-19
-5.68568e-19
-5.73519e-19
-5.71658e-19
-5.82444e-19
-5.71575e-19
-5.71295e-19
-5.74695e-19
-5.64612e-19
-5.77273e-19
-5.72221e-19
-5.74949e-19
-5.62418e-19
-5.96558e-19
-5.79448e-19
-5.96914e-19
-5.7204e-19
-5.9128e-19
-5.83648e-19
-5.96358e-19
-5.98001e-19
-6.02386e-19
-5.61117e-19
-5.74739e-19
-5.4379e-19
-5.64531e-19
-5.56776e-19
-5.43377e-19
-5.5256e-19
-5.55989e-19
-5.4027e-19
-5.60409e-19
-5.58836e-19
-5.69172e-19
-5.58446e-19
-5.62275e-19
-5.64957e-19
-5.64991e-19
-5.85012e-19
-5.71588e-19
-5.73895e-19
-5.70543e-19
-5.56884e-19
-5.73614e-19
-5.73318e-19
-5.79465e-19
-5.73533e-19
-5.86458e-19
-5.84221e-19
-5.8687e-19
-5.76784e-19
-5.97797e-19
-5.84744e-19
-5.91418e-19
-5.95648e-19
-6.00441e-19
-5.62248e-19
-5.68121e-19
-5.634e-19
-5.75713e-19
-5.59704e-19
-5.56771e-19
-5.43286e-19
-5.70508e-19
-5.58813e-19
-5.60946e-19
-5.63041e-19
-5.65497e-19
-5.66887e-19
-5.62679e-19
-5.6106e-19
-5.58658e-19
-5.69474e-19
-5.70095e-19
-5.62175e-19
-5.71633e-19
-5.7393e-19
-5.75911e-19
-5.75896e-19
-5.80832e-19
-5.78426e-19
-5.82237e-19
-5.99062e-19
-5.82442e-19
-5.7426e-19
-5.86307e-19
-5.88232e-19
-5.97383e-19
-5.91142e-19
-5.70989e-19
-5.64465e-19
-5.58202e-19
-5.7274e-19
-5.57283e-19
-5.54222e-19
-5.57694e-19
-5.63039e-19
-5.6553e-19
-5.63808e-19
-5.60997e-19
-5.63944e-19
-5.73564e-19
-5.62927e-19
-5.69797e-19
-5.65951e-19
-5.67669e-19
-5.63134e-19
-5.61523e-19
-5.75343e-19
-5.80308e-19
-5.80497e-19
-5.75908e-19
-5.80771e-19
-5.80591e-19
-5.8107e-19
-5.97981e-19
-5.8355e-19
-5.6989e-19
-5.78041e-19
-5.80702e-19
-6.00548e-19
-5.96555e-19
-5.7268e-19
-5.59056e-19
-5.59572e-19
-5.66136e-19
-5.53579e-19
-5.67248e-19
-5.55787e-19
-5.51912e-19
-5.66064e-19
-5.70919e-19
-5.58609e-19
-5.63837e-19
-5.69562e-19
-5.63724e-19
-5.62912e-19
-5.64481e-19
-5.66486e-19
-5.66244e-19
-5.71814e-19
-5.79804e-19
-5.76738e-19
-5.87498e-19
-5.77166e-19
-5.81163e-19
-5.82673e-19
-5.78469e-19
-5.79156e-19
-5.84612e-19
-5.76006e-19
-5.88862e-19
-5.79992e-19
-5.89393e-19
-5.68296e-19
-5.70564e-19
-5.60833e-19
-5.55252e-19
-5.4762e-19
-5.53921e-19
-5.53394e-19
-5.57565e-19
-5.65178e-19
-5.73317e-19
-5.54962e-19
-5.59719e-19
-5.60487e-19
-5.64048e-19
-5.64047e-19
-5.60916e-19
-5.75581e-19
-5.62768e-19
-5.71648e-19
-5.77082e-19
-5.80138e-19
-5.8607e-19
-5.77208e-19
-5.81764e-19
-5.87237e-19
-5.83581e-19
-5.80445e-19
-5.86892e-19
-5.78228e-19
-5.89223e-19
-5.81733e-19
-5.82685e-19
-5.6106e-19
-5.66875e-19
-5.5988e-19
-5.68277e-19
-5.54738e-19
-5.49379e-19
-5.42506e-19
-5.60846e-19
-5.58485e-19
-5.65746e-19
-5.61545e-19
-5.48094e-19
-5.67062e-19
-5.66599e-19
-5.65397e-19
-5.71857e-19
-5.74837e-19
-5.69594e-19
-5.67817e-19
-5.76579e-19
-5.75311e-19
-5.77902e-19
-5.80138e-19
-5.82288e-19
-5.86509e-19
-5.88584e-19
-5.82924e-19
-5.7843e-19
-5.76848e-19
-5.81117e-19
-5.68866e-19
-5.85449e-19
-5.56577e-19
-5.52343e-19
-5.63066e-19
-5.767e-19
-5.59534e-19
-5.51018e-19
-5.4935e-19
-5.57906e-19
-5.53245e-19
-5.62816e-19
-5.66745e-19
-5.51803e-19
-5.69069e-19
-5.67256e-19
-5.66144e-19
-5.65322e-19
-5.76684e-19
-5.70187e-19
-5.73054e-19
-5.7689e-19
-5.72229e-19
-5.81623e-19
-5.83029e-19
-5.84611e-19
-5.91846e-19
-5.86284e-19
-5.83318e-19
-5.81629e-19
-5.7698e-19
-5.68524e-19
-5.65769e-19
-5.7701e-19
-5.54054e-19
-5.59802e-19
-5.58112e-19
-5.81389e-19
-5.48496e-19
-5.55838e-19
-5.49673e-19
-5.63752e-19
-5.49008e-19
-5.69785e-19
-5.6737e-19
-5.64726e-19
-5.64868e-19
-5.62096e-19
-5.61089e-19
-5.67613e-19
-5.72092e-19
-5.71998e-19
-5.70441e-19
-5.79755e-19
-5.81661e-19
-5.80119e-19
-5.76218e-19
-5.90336e-19
-5.92281e-19
-5.87691e-19
-5.83624e-19
-5.8501e-19
-5.77395e-19
-5.80782e-19
-5.69394e-19
-5.76288e-19
-5.48235e-19
-5.86219e-19
-5.63451e-19
-5.67336e-19
-5.42218e-19
-5.66906e-19
-5.50669e-19
-5.58252e-19
-5.55564e-19
-5.74475e-19
-5.66081e-19
-5.69721e-19
-5.66736e-19
-5.62546e-19
-5.66902e-19
-5.70037e-19
-5.71685e-19
-5.75818e-19
-5.6142e-19
-5.81169e-19
-5.79827e-19
-5.80732e-19
-5.77717e-19
-5.8735e-19
-5.89385e-19
-5.79549e-19
-5.83552e-19
-5.88986e-19
-5.6944e-19
-5.78753e-19
-5.67867e-19
-5.76867e-19
-5.53732e-19
-5.82684e-19
-5.67509e-19
-5.70065e-19
-5.58567e-19
-5.63773e-19
-5.53841e-19
-5.71944e-19
-5.64468e-19
-5.62383e-19
-5.71326e-19
-5.78848e-19
-5.61257e-19
-5.67921e-19
-5.7462e-19
-5.63264e-19
-5.69254e-19
-5.67774e-19
-5.67031e-19
-5.78395e-19
-5.8161e-19
-5.816e-19
-5.83948e-19
-5.86813e-19
-5.92969e-19
-5.79941e-19
-5.83392e-19
-5.81514e-19
-5.6337e-19
-5.7256e-19
-5.66886e-19
-5.65705e-19
-5.64258e-19
-5.8735e-19
-5.70369e-19
-5.77212e-19
-5.52019e-19
-5.59915e-19
-5.44262e-19
-5.61316e-19
-5.67532e-19
-5.62635e-19
-5.69153e-19
-5.74763e-19
-5.72644e-19
-5.69539e-19
-5.72448e-19
-5.57336e-19
-5.71037e-19
-5.57928e-19
-5.75413e-19
-5.81763e-19
-5.78061e-19
-5.82291e-19
-5.86378e-19
-5.84237e-19
-5.86713e-19
-5.77406e-19
-5.83586e-19
-5.75237e-19
-5.7404e-19
-5.76647e-19
-5.67447e-19
-5.58805e-19
-5.53981e-19
-5.85306e-19
-5.66438e-19
-5.77212e-19
-5.50941e-19
-5.59338e-19
-5.38398e-19
-5.58525e-19
-5.6748e-19
-5.67642e-19
-5.67091e-19
-5.78335e-19
-5.73097e-19
-5.65446e-19
-5.62382e-19
-5.58689e-19
-5.76288e-19
-5.59025e-19
-5.68043e-19
-5.78478e-19
-5.77694e-19
-5.84792e-19
-5.87366e-19
-5.77789e-19
-5.81299e-19
-5.812e-19
-5.84705e-19
-5.81332e-19
-5.807e-19
-5.77783e-19
-5.716e-19
-5.68086e-19
-5.71613e-19
-5.73755e-19
-5.7489e-19
-5.7746e-19
-5.58545e-19
-5.60369e-19
-5.55115e-19
-5.5654e-19
-5.60774e-19
-5.69021e-19
-5.69765e-19
-5.68569e-19
-5.77258e-19
-5.59413e-19
-5.64944e-19
-5.53358e-19
-5.78161e-19
-5.65706e-19
-5.71434e-19
-5.8307e-19
-5.75067e-19
-5.89318e-19
-5.89084e-19
-5.90324e-19
-5.88712e-19
-5.79362e-19
-5.8624e-19
-5.87191e-19
-5.874e-19
-5.77316e-19
-5.7377e-19
-5.66608e-19
-5.65271e-19
-5.81517e-19
-5.72729e-19
-5.78707e-19
-5.71938e-19
-5.54766e-19
-5.6603e-19
-5.52962e-19
-5.55664e-19
-5.65461e-19
-5.70808e-19
-5.65402e-19
-5.74073e-19
-5.55611e-19
-5.73689e-19
-5.53101e-19
-5.73323e-19
-5.65946e-19
-5.74451e-19
-5.81723e-19
-5.69431e-19
-5.85801e-19
-5.95975e-19
-5.90512e-19
-5.96481e-19
-5.85421e-19
-5.88105e-19
-5.82448e-19
-5.8756e-19
-5.7471e-19
-5.67313e-19
-5.59703e-19
-5.66576e-19
-5.85308e-19
-5.68335e-19
-5.72031e-19
-5.54883e-19
-5.57978e-19
-5.62685e-19
-5.45312e-19
-5.46819e-19
-5.55281e-19
-5.60284e-19
-5.66725e-19
-5.60291e-19
-5.63585e-19
-5.79224e-19
-5.59315e-19
-5.75289e-19
-5.65307e-19
-5.68841e-19
-5.78006e-19
-5.8137e-19
-5.84422e-19
-5.967e-19
-5.88328e-19
-5.91205e-19
-5.90631e-19
-5.92149e-19
-5.80643e-19
-5.81787e-19
-5.73578e-19
-5.66156e-19
-5.56298e-19
-5.68723e-19
-5.80734e-19
-5.69732e-19
-5.76742e-19
-5.48872e-19
-5.57606e-19
-5.53706e-19
-5.58691e-19
-5.61488e-19
-5.64111e-19
-5.6848e-19
-5.68704e-19
-5.68282e-19
-5.67363e-19
-5.78034e-19
-5.61866e-19
-5.68372e-19
-5.70787e-19
-5.7157e-19
-5.83182e-19
-5.82898e-19
-5.86014e-19
-5.88265e-19
-5.88997e-19
-5.87906e-19
-5.88815e-19
-5.98553e-19
-5.7989e-19
-5.81746e-19
-5.77564e-19
-5.66868e-19
-5.6812e-19
-5.67102e-19
-5.91962e-19
-5.85115e-19
-5.83034e-19
-5.72786e-19
-5.71266e-19
-5.61011e-19
-5.65167e-19
-5.69297e-19
-5.7275e-19
-5.80175e-19
-5.69051e-19
-5.71154e-19
-5.67198e-19
-5.76527e-19
-5.64908e-19
-5.73547e-19
-5.67854e-19
-5.70347e-19
-5.7711e-19
-5.80852e-19
-5.92701e-19
-5.83409e-19
-5.91437e-19
-5.91307e-19
-5.88257e-19
-5.82725e-19
-5.76417e-19
-5.88777e-19
-5.78462e-19
-5.73726e-19
-5.78472e-19
-5.71093e-19
-5.83208e-19
-5.7729e-19
-5.74842e-19
-5.69738e-19
-5.72091e-19
-5.65949e-19
-5.6334e-19
-5.72049e-19
-5.76158e-19
-5.77791e-19
-5.7207e-19
-5.7595e-19
-5.64792e-19
-5.69388e-19
-5.75138e-19
-5.86034e-19
-5.62919e-19
-5.82207e-19
-5.76282e-19
-5.78427e-19
-5.88712e-19
-5.84417e-19
-5.84273e-19
-5.93147e-19
-5.89498e-19
-5.92109e-19
-5.78722e-19
-5.76897e-19
-5.77422e-19
-5.7505e-19
-5.76051e-19
-5.74523e-19
-5.85054e-19
-5.79108e-19
-5.71671e-19
-5.7448e-19
-5.60318e-19
-5.70545e-19
-5.70752e-19
-5.74985e-19
-5.71577e-19
-5.74141e-19
-5.72915e-19
-5.83002e-19
-5.69885e-19
-5.72087e-19
-5.65371e-19
-5.7709e-19
-5.60937e-19
-5.85274e-19
-5.73458e-19
-5.8876e-19
-5.85485e-19
-5.83575e-19
-5.86618e-19
-5.93927e-19
-5.93707e-19
-5.92296e-19
-5.75518e-19
-5.83105e-19
-5.83097e-19
-5.76191e-19
-5.78875e-19
-5.87676e-19
-5.68357e-19
-5.75939e-19
-5.78366e-19
-5.62034e-19
-5.65834e-19
-5.69915e-19
-5.70264e-19
-5.73168e-19
-5.83519e-19
-5.68443e-19
-5.81335e-19
-5.67829e-19
-5.63929e-19
-5.62975e-19
-5.71109e-19
-5.71625e-19
-5.8352e-19
-5.69423e-19
-5.90115e-19
-5.83865e-19
-5.88978e-19
-5.88739e-19
-5.93433e-19
-6.04384e-19
-5.91573e-19
-5.74472e-19
-5.81509e-19
-5.8255e-19
-5.74253e-19
-5.78508e-19
-5.85126e-19
-5.84752e-19
-5.74181e-19
-5.71983e-19
-5.67558e-19
-5.75331e-19
-5.67698e-19
-5.73358e-19
-5.71212e-19
-5.89079e-19
-5.78733e-19
-5.71365e-19
-5.63794e-19
-5.66854e-19
-5.58637e-19
-5.65524e-19
-5.67353e-19
-5.81354e-19
-5.71862e-19
-5.89463e-19
-5.81755e-19
-5.99324e-19
-5.89028e-19
-5.92671e-19
-6.00036e-19
-5.94241e-19
-5.78746e-19
-5.89762e-19
-5.87193e-19
-5.87911e-19
-5.68906e-19
-6.01221e-19
-5.69329e-19
-5.703e-19
-5.72449e-19
-5.71426e-19
-5.69643e-19
-5.73603e-19
-5.76261e-19
-5.81703e-19
-5.71646e-19
-5.7403e-19
-5.68715e-19
-5.70216e-19
-5.58438e-19
-5.66504e-19
-5.62618e-19
-5.8647e-19
-5.73121e-19
-5.91475e-19
-5.83305e-19
-5.99724e-19
-5.87152e-19
-5.98051e-19
-5.93172e-19
-5.98868e-19
-5.86542e-19
-5.85911e-19
-5.8305e-19
-5.793e-19
-5.6921e-19
-5.84944e-19
-5.63405e-19
-5.60931e-19
-5.6824e-19
-5.69105e-19
-5.72853e-19
-5.69329e-19
-5.70433e-19
-5.766e-19
-5.67212e-19
-5.70785e-19
-5.6406e-19
-5.6789e-19
-5.62065e-19
-5.69508e-19
-5.66093e-19
-5.88393e-19
-5.69974e-19
-5.96095e-19
-5.8073e-19
-6.02864e-19
-5.90536e-19
-5.97813e-19
-5.9217e-19
-5.9488e-19
-5.76705e-19
-5.822e-19
-5.76449e-19
-5.71586e-19
-5.82102e-19
-5.71791e-19
-5.68673e-19
-5.69322e-19
-5.67364e-19
-5.63702e-19
-5.65726e-19
-5.69464e-19
-5.72062e-19
-5.70629e-19
-5.6988e-19
-5.78605e-19
-5.62117e-19
-5.6898e-19
-5.68161e-19
-5.71374e-19
-5.70035e-19
-5.94948e-19
-5.72752e-19
-5.9313e-19
-5.84344e-19
-6.04273e-19
-5.9157e-19
-5.99624e-19
-5.92379e-19
-5.93305e-19
-5.82874e-19
-5.86622e-19
-5.7485e-19
-5.71201e-19
-5.7646e-19
-5.71843e-19
-5.69148e-19
-5.77713e-19
-5.66683e-19
-5.6115e-19
-5.68996e-19
-5.66624e-19
-5.78321e-19
-5.60268e-19
-5.66113e-19
-5.85746e-19
-5.65367e-19
-5.6585e-19
-5.62019e-19
-5.68872e-19
-5.69927e-19
-5.88158e-19
-5.7388e-19
-5.94328e-19
-5.80788e-19
-6.03898e-19
-5.91799e-19
-6.05013e-19
-5.92275e-19
-5.95204e-19
-5.88424e-19
-5.93076e-19
-5.74863e-19
-5.65221e-19
-5.769e-19
-5.80487e-19
-5.73626e-19
-5.75044e-19
-5.60022e-19
-5.63986e-19
-5.68161e-19
-5.73581e-19
-5.79651e-19
-5.74253e-19
-5.6048e-19
-5.66157e-19
-5.72252e-19
-5.61468e-19
-5.6295e-19
-5.78449e-19
-5.72177e-19
-5.87095e-19
-5.76686e-19
-5.95273e-19
-5.86336e-19
-6.01855e-19
-5.9258e-19
-6.05342e-19
-5.93083e-19
-5.97438e-19
-5.87533e-19
-5.88401e-19
-5.83608e-19
-5.80021e-19
-5.76152e-19
-5.82214e-19
-5.67804e-19
-5.81586e-19
-5.52836e-19
-5.63834e-19
-5.7162e-19
-5.71781e-19
-5.71188e-19
-5.73801e-19
-5.70301e-19
-5.71537e-19
-5.7086e-19
-5.68391e-19
-5.63376e-19
-5.7551e-19
-5.70738e-19
-5.884e-19
-5.75505e-19
-5.98637e-19
-5.90946e-19
-6.05122e-19
-5.95503e-19
-6.02158e-19
-5.91825e-19
-5.88418e-19
-5.89205e-19
-5.83997e-19
-5.91124e-19
-5.66234e-19
-5.7801e-19
-5.69103e-19
-5.63913e-19
-5.87857e-19
-5.64384e-19
-5.68047e-19
-5.72451e-19
-5.72916e-19
-5.71288e-19
-5.77781e-19
-5.76936e-19
-5.86984e-19
-5.71008e-19
-5.69556e-19
-5.60355e-19
-5.775e-19
-5.68566e-19
-5.83508e-19
-5.71667e-19
-6.00112e-19
-5.88967e-19
-6.04822e-19
-5.99278e-19
-6.02494e-19
-5.889e-19
-5.86609e-19
-5.91058e-19
-5.79232e-19
-5.89205e-19
-5.65139e-19
-5.6931e-19
-5.75429e-19
-5.77256e-19
-5.87073e-19
-5.62376e-19
-5.70825e-19
-5.69224e-19
-5.68469e-19
-5.7253e-19
-5.73468e-19
-5.74645e-19
-5.83265e-19
-5.67866e-19
-5.78031e-19
-5.69308e-19
-5.80308e-19
-5.74183e-19
-5.90951e-19
-5.70836e-19
-6.02867e-19
-5.87557e-19
-5.99526e-19
-5.94154e-19
-6.04809e-19
-5.89923e-19
-5.9031e-19
-5.93422e-19
-5.83796e-19
-5.98185e-19
-5.72235e-19
-5.79772e-19
-5.84465e-19
-5.7789e-19
-5.91443e-19
-5.69073e-19
-5.73886e-19
-5.68801e-19
-5.75013e-19
-5.72484e-19
-5.69234e-19
-5.63816e-19
-5.7194e-19
-5.7093e-19
-5.79961e-19
-5.77538e-19
-5.8082e-19
-5.73389e-19
-5.92437e-19
-5.76808e-19
-6.01465e-19
-5.88118e-19
-5.93446e-19
-5.99847e-19
-6.09314e-19
-5.89039e-19
-5.91061e-19
-5.93345e-19
-5.8613e-19
-5.92664e-19
-5.81582e-19
-5.80796e-19
-5.82911e-19
-5.8073e-19
-5.80458e-19
-5.66744e-19
-5.69018e-19
-5.73476e-19
-5.84466e-19
-5.71152e-19
-5.62385e-19
-5.6785e-19
-5.73402e-19
-5.72252e-19
-5.87724e-19
-5.75827e-19
-5.81653e-19
-5.73192e-19
-5.88027e-19
-5.78704e-19
-5.97084e-19
-5.90875e-19
-5.97134e-19
-5.97038e-19
-6.06341e-19
-5.94425e-19
-5.9318e-19
-5.94947e-19
-5.85233e-19
-5.9499e-19
-5.82134e-19
-5.73836e-19
-5.81458e-19
-5.76834e-19
-5.79338e-19
-5.66681e-19
-5.64165e-19
-5.64403e-19
-5.87711e-19
-5.71097e-19
-5.64689e-19
-5.67746e-19
-5.79109e-19
-5.74443e-19
-5.86647e-19
-5.7772e-19
-5.82892e-19
-5.69592e-19
-5.85749e-19
-5.78396e-19
-5.93486e-19
-5.93225e-19
-5.96855e-19
-6.0084e-19
-6.06777e-19
-5.88462e-19
-5.91072e-19
-5.95497e-19
-5.8651e-19
-5.9553e-19
-5.77113e-19
-5.75787e-19
-5.69859e-19
-5.66176e-19
-5.78563e-19
-5.66406e-19
-5.50062e-19
-5.65409e-19
-5.90598e-19
-5.81433e-19
-5.64056e-19
-5.66085e-19
-5.74469e-19
-5.70786e-19
-5.80801e-19
-5.75154e-19
-5.8329e-19
-5.65215e-19
-5.8416e-19
-5.84206e-19
-5.91725e-19
-5.96783e-19
-5.93869e-19
-5.95074e-19
-6.13307e-19
-5.9144e-19
-5.87586e-19
-5.92368e-19
-5.88605e-19
-5.88887e-19
-5.79051e-19
-5.71373e-19
-5.75174e-19
-5.77313e-19
-5.75841e-19
-5.53221e-19
-5.53603e-19
-5.66138e-19
-5.85129e-19
-5.7869e-19
-5.6689e-19
-5.65605e-19
-5.75486e-19
-5.77385e-19
-5.94001e-19
-5.74906e-19
-5.88369e-19
-5.71857e-19
-5.81779e-19
-5.79087e-19
-5.90056e-19
-5.9385e-19
-5.96144e-19
-5.98249e-19
-6.18188e-19
-5.95214e-19
-5.82572e-19
-5.90847e-19
-5.81229e-19
-5.8161e-19
-5.72771e-19
-5.87103e-19
-5.71532e-19
-5.73016e-19
-5.81409e-19
-5.53788e-19
-5.58064e-19
-5.65451e-19
-5.82959e-19
-5.7479e-19
-5.73289e-19
-5.75272e-19
-5.70179e-19
-5.80898e-19
-5.90972e-19
-5.76447e-19
-5.74513e-19
-5.72466e-19
-5.91578e-19
-5.81561e-19
-5.91232e-19
-5.89682e-19
-5.94448e-19
-6.00907e-19
-6.10988e-19
-5.92081e-19
-5.83644e-19
-5.95081e-19
-5.84199e-19
-5.81576e-19
-5.57946e-19
-5.79362e-19
-5.66351e-19
-5.69848e-19
-5.75057e-19
-5.49741e-19
-5.78901e-19
-5.67136e-19
-5.86551e-19
-5.69494e-19
-5.71789e-19
-5.83706e-19
-5.73572e-19
-5.77949e-19
-5.89883e-19
-5.80244e-19
-5.686e-19
-5.71221e-19
-5.95511e-19
-5.84804e-19
-5.92682e-19
-5.97084e-19
-5.99222e-19
-5.95649e-19
-6.04627e-19
-5.90017e-19
-5.8938e-19
-5.94636e-19
-5.84319e-19
-5.78135e-19
-5.68564e-19
-5.79868e-19
-5.72043e-19
-5.67935e-19
-5.78134e-19
-5.69474e-19
-5.82871e-19
-5.65591e-19
-6.0101e-19
-5.68893e-19
-5.72608e-19
-5.69758e-19
-5.72768e-19
-5.78678e-19
-5.86781e-19
-5.78939e-19
-5.78995e-19
-5.69469e-19
-5.86196e-19
-5.87546e-19
-5.9932e-19
-5.96765e-19
-6.02797e-19
-5.96554e-19
-6.02778e-19
-5.96599e-19
-5.91048e-19
-5.92018e-19
-5.83054e-19
-5.84053e-19
-5.69164e-19
-5.79539e-19
-5.75145e-19
-5.64486e-19
-5.96291e-19
-5.5893e-19
-5.75135e-19
-5.56687e-19
-5.93164e-19
-5.68734e-19
-5.8605e-19
-5.65864e-19
-5.78147e-19
-5.75601e-19
-5.81589e-19
-5.69919e-19
-5.79409e-19
-5.72169e-19
-5.8367e-19
-5.91263e-19
-5.9612e-19
-5.94983e-19
-6.06621e-19
-5.97148e-19
-6.02513e-19
-5.94228e-19
-5.92533e-19
-5.93458e-19
-5.82829e-19
-5.89169e-19
-5.66158e-19
-5.74636e-19
-5.79524e-19
-5.65052e-19
-5.91381e-19
-5.54778e-19
-5.70668e-19
-5.49165e-19
-5.92811e-19
-5.73791e-19
-5.79239e-19
-5.63765e-19
-5.85017e-19
-5.69917e-19
-5.84287e-19
-5.74173e-19
-5.80189e-19
-5.79377e-19
-5.8873e-19
-5.88777e-19
-5.91859e-19
-5.97915e-19
-6.03405e-19
-5.96144e-19
-6.02564e-19
-5.91733e-19
-5.95181e-19
-5.88908e-19
-5.80965e-19
-5.84924e-19
-5.73797e-19
-5.65097e-19
-5.80606e-19
-5.61287e-19
-5.81817e-19
-5.48401e-19
-5.754e-19
-5.63311e-19
-5.87723e-19
-5.69794e-19
-5.83882e-19
-5.58483e-19
-5.75527e-19
-5.69763e-19
-5.93575e-19
-5.82916e-19
-5.84787e-19
-5.76463e-19
-5.84116e-19
-5.89945e-19
-5.93737e-19
-6.02053e-19
-5.99291e-19
-5.96075e-19
-6.04229e-19
-5.9018e-19
-5.99237e-19
-5.85681e-19
-5.85005e-19
-5.82557e-19
-5.72527e-19
-5.69288e-19
-5.82306e-19
-5.63924e-19
-5.79333e-19
-5.46811e-19
-5.81958e-19
-5.73004e-19
-5.82412e-19
-5.58028e-19
-5.7848e-19
-5.58401e-19
-5.77427e-19
-5.84627e-19
-5.87803e-19
-5.84039e-19
-5.89547e-19
-5.72044e-19
-5.86861e-19
-5.94779e-19
-5.96712e-19
-5.99098e-19
-5.98885e-19
-5.96974e-19
-6.07564e-19
-5.96644e-19
-5.96439e-19
-5.82214e-19
-5.82959e-19
-5.79445e-19
-5.71715e-19
-5.68496e-19
-5.79903e-19
-5.68229e-19
-5.81267e-19
-5.54488e-19
-5.71696e-19
-5.7517e-19
-5.86067e-19
-5.69114e-19
-5.71575e-19
-5.63446e-19
-5.80717e-19
-5.81577e-19
-5.91764e-19
-5.80197e-19
-5.88758e-19
-5.69404e-19
-6.00457e-19
-5.93703e-19
-5.94861e-19
-5.96237e-19
-6.03314e-19
-5.97599e-19
-6.06509e-19
-5.93212e-19
-5.96361e-19
-5.84465e-19
-5.79827e-19
-5.74384e-19
-5.79074e-19
-5.6054e-19
-5.95341e-19
-5.56697e-19
-5.80276e-19
-5.8408e-19
-5.95973e-19
-5.80872e-19
-5.67306e-19
-5.63258e-19
-5.85452e-19
-5.80732e-19
-6.01297e-19
-5.90938e-19
-6.05583e-19
-5.88464e-19
-6.02367e-19
-5.8831e-19
-5.90675e-19
-5.8299e-19
-5.77929e-19
-5.75644e-19
-4.95083e-19
-4.96633e-19
-5.01825e-19
-5.05068e-19
-5.17044e-19
-5.06036e-19
-5.1811e-19
-5.25991e-19
-5.02921e-19
-5.29375e-19
-4.81082e-19
-4.9318e-19
-4.84368e-19
-5.04656e-19
-4.85333e-19
-4.90524e-19
-5.1202e-19
-5.33193e-19
-5.08929e-19
-5.11031e-19
-5.22685e-19
-5.10136e-19
-5.05205e-19
-5.17687e-19
-5.00616e-19
-5.181e-19
-5.04467e-19
-5.26209e-19
-5.2214e-19
-5.2267e-19
-5.39143e-19
-4.89712e-19
-5.00243e-19
-4.93949e-19
-5.02167e-19
-5.16861e-19
-5.32977e-19
-4.98324e-19
-4.96939e-19
-5.2203e-19
-5.42046e-19
-4.96746e-19
-5.25973e-19
-5.39637e-19
-5.00636e-19
-5.24863e-19
-5.17631e-19
-4.9757e-19
-5.21216e-19
-5.3258e-19
-5.19659e-19
-5.0241e-19
-5.00268e-19
-5.27744e-19
-5.34965e-19
-5.21474e-19
-5.10035e-19
-5.14998e-19
-5.06158e-19
-4.89055e-19
-4.75677e-19
-4.93834e-19
-5.15016e-19
-4.95453e-19
-5.11319e-19
-5.1115e-19
-5.08477e-19
-4.9072e-19
-4.89967e-19
-4.93424e-19
-5.12958e-19
-5.0706e-19
-5.10932e-19
-5.04195e-19
-5.09136e-19
-5.18528e-19
-5.12725e-19
-5.15322e-19
-5.34352e-19
-5.20894e-19
-5.06237e-19
-5.10612e-19
-5.09682e-19
-5.22026e-19
-5.26944e-19
-5.22106e-19
-5.49117e-19
-5.21666e-19
-5.33527e-19
-5.30425e-19
-5.41962e-19
-4.68698e-19
-4.86875e-19
-5.00145e-19
-4.89822e-19
-4.83153e-19
-5.03008e-19
-5.16099e-19
-4.81045e-19
-4.8715e-19
-5.14219e-19
-5.02184e-19
-5.15206e-19
-5.17825e-19
-5.08766e-19
-5.0742e-19
-5.16942e-19
-5.51854e-19
-5.15076e-19
-5.11989e-19
-5.11007e-19
-4.94234e-19
-5.26069e-19
-5.22932e-19
-5.09706e-19
-5.16533e-19
-5.22981e-19
-5.2973e-19
-5.1381e-19
-5.29953e-19
-5.45619e-19
-5.42101e-19
-5.30761e-19
-5.32864e-19
-5.41905e-19
-5.6761e-19
-5.38321e-19
-5.33813e-19
-5.58455e-19
-4.89834e-19
-4.927e-19
-4.85401e-19
-5.09104e-19
-4.9117e-19
-4.88274e-19
-4.789e-19
-4.93391e-19
-5.09365e-19
-4.88874e-19
-4.93965e-19
-4.98216e-19
-4.95456e-19
-5.077e-19
-5.10822e-19
-5.31283e-19
-5.11498e-19
-5.22951e-19
-5.29968e-19
-5.2521e-19
-5.13012e-19
-4.99443e-19
-5.10277e-19
-5.25914e-19
-5.19128e-19
-5.16451e-19
-5.09013e-19
-5.2036e-19
-5.14427e-19
-5.25971e-19
-5.39194e-19
-5.61694e-19
-5.59467e-19
-5.37595e-19
-5.41021e-19
-5.50093e-19
-5.50716e-19
-5.44181e-19
-5.53751e-19
-5.52199e-19
-4.84018e-19
-4.84407e-19
-4.84898e-19
-4.81334e-19
-4.98392e-19
-4.87962e-19
-4.78051e-19
-4.8642e-19
-4.90801e-19
-5.06601e-19
-4.85628e-19
-4.98005e-19
-4.85511e-19
-5.0002e-19
-5.1825e-19
-5.10887e-19
-5.27638e-19
-5.09611e-19
-5.19817e-19
-5.27409e-19
-5.1395e-19
-5.21474e-19
-4.99667e-19
-5.1324e-19
-5.0912e-19
-5.1825e-19
-5.21239e-19
-5.08009e-19
-5.24689e-19
-5.19021e-19
-5.37932e-19
-5.31992e-19
-5.43367e-19
-5.45032e-19
-5.46359e-19
-5.49377e-19
-5.42711e-19
-5.37505e-19
-5.44972e-19
-5.59385e-19
-5.71252e-19
-4.69909e-19
-4.80455e-19
-4.89536e-19
-4.82729e-19
-4.76288e-19
-5.05123e-19
-4.88468e-19
-4.74535e-19
-4.91778e-19
-4.8076e-19
-5.07177e-19
-4.93807e-19
-5.00941e-19
-5.18269e-19
-5.03225e-19
-5.10736e-19
-5.22464e-19
-5.09695e-19
-5.03843e-19
-5.24397e-19
-4.91036e-19
-5.09347e-19
-5.17152e-19
-5.07207e-19
-5.15365e-19
-5.11646e-19
-5.09982e-19
-5.25975e-19
-5.23928e-19
-5.29571e-19
-5.10483e-19
-5.30225e-19
-5.30319e-19
-5.24379e-19
-5.33447e-19
-5.38866e-19
-5.53078e-19
-5.40125e-19
-5.35627e-19
-5.48731e-19
-5.61172e-19
-5.45619e-19
-4.90405e-19
-4.71116e-19
-4.82716e-19
-4.75804e-19
-4.83473e-19
-4.83438e-19
-4.86542e-19