/*--------------------------------*- C++ -*----------------------------------*\
  =========                 |
  \\      /  F ield         | OpenFOAM: The Open Source CFD Toolbox
   \\    /   O peration     | Website:  https://openfoam.org
    \\  /    A nd           | Version:  7
     \\/     M anipulation  |
\*---------------------------------------------------------------------------*/
FoamFile
{
    version     2.0;
    format      ascii;
    class       volVectorField;
    location    "136000";
    object      U;
}
// * * * * * * * * * * * * * * * * * * * * * * * * * * * * * * * * * * * * * //

dimensions      [0 1 -1 0 0 0 0];

internalField   nonuniform List<vector> 
4782
(
(1.46695e-18 8.03736e-19 -0.00983817)
(1.5258e-18 6.82329e-19 -0.00974675)
(1.56236e-18 6.3562e-19 -0.00965332)
(1.5516e-18 7.04036e-19 -0.00955779)
(1.48586e-18 8.58282e-19 -0.00946003)
(1.4457e-18 9.47721e-19 -0.00935993)
(1.51389e-18 8.69139e-19 -0.00925736)
(1.5769e-18 7.98489e-19 -0.00915218)
(1.54013e-18 8.75875e-19 -0.00904425)
(1.51072e-18 9.54757e-19 -0.00893341)
(6.63618e-19 8.69482e-19 -0.0127787)
(9.23768e-19 6.95217e-19 -0.0127271)
(9.37443e-19 8.23133e-19 -0.0126751)
(9.03599e-19 9.39579e-19 -0.0126226)
(8.28789e-19 1.04495e-18 -0.0125698)
(6.12617e-19 1.29715e-18 -0.0125165)
(4.08607e-19 1.5901e-18 -0.0124628)
(3.58721e-19 1.64896e-18 -0.0124087)
(4.71712e-19 1.49003e-18 -0.0123541)
(6.85334e-19 1.17351e-18 -0.0122991)
(8.7352e-19 8.7852e-19 -0.0122436)
(9.97776e-19 6.91169e-19 -0.0121876)
(1.01956e-18 6.38601e-19 -0.012131)
(9.57064e-19 7.02687e-19 -0.0120739)
(8.87007e-19 8.05915e-19 -0.0120163)
(9.14134e-19 8.30798e-19 -0.0119581)
(1.00873e-18 7.82615e-19 -0.0118992)
(1.1201e-18 6.94513e-19 -0.0118398)
(1.21914e-18 6.06578e-19 -0.0117797)
(1.40937e-18 3.96277e-19 -0.0117189)
(1.62892e-18 1.04372e-19 -0.0116575)
(1.53883e-18 1.71955e-19 -0.0115954)
(1.15851e-18 6.28951e-19 -0.0115326)
(8.8849e-19 9.53526e-19 -0.0114691)
(9.33759e-19 8.7959e-19 -0.0114048)
(1.18556e-18 5.64582e-19 -0.0113397)
(1.48728e-18 1.84482e-19 -0.0112738)
(1.67553e-18 -3.53717e-20 -0.0112071)
(1.59437e-18 1.13676e-19 -0.0111395)
(1.4117e-18 3.75687e-19 -0.0110709)
(1.44078e-18 3.53732e-19 -0.0110015)
(1.6111e-18 1.47733e-19 -0.010931)
(1.64358e-18 1.21854e-19 -0.0108596)
(1.51574e-18 3.07734e-19 -0.010787)
(1.41855e-18 4.25702e-19 -0.0107134)
(1.42777e-18 4.24674e-19 -0.0106386)
(1.42688e-18 4.60911e-19 -0.0105626)
(1.33708e-18 6.01306e-19 -0.0104853)
(1.2736e-18 6.65558e-19 -0.0104068)
(1.27164e-18 6.44217e-19 -0.0103268)
(1.25538e-18 6.56572e-19 -0.0102455)
(1.29563e-18 5.8016e-19 -0.0101626)
(1.35061e-18 4.7312e-19 -0.0100781)
(1.17305e-18 6.81814e-19 -0.00999201)
(8.76155e-19 1.04938e-18 -0.00990417)
(7.9536e-19 1.15624e-18 -0.0098145)
(9.49969e-19 9.49967e-19 -0.00972293)
(1.18936e-18 6.17634e-19 -0.00962934)
(1.27481e-18 4.74145e-19 -0.00953364)
(1.13613e-18 6.18143e-19 -0.00943571)
(9.16375e-19 8.77458e-19 -0.00933543)
(7.52111e-19 1.05366e-18 -0.00923268)
(7.64362e-19 9.76752e-19 -0.00912731)
(9.36798e-19 6.84208e-19 -0.00901918)
(9.40605e-19 6.24422e-19 -0.00890814)
(9.49203e-19 1.23359e-18 -0.0127582)
(7.10363e-19 1.29851e-18 -0.0127065)
(5.2679e-19 1.37944e-18 -0.0126544)
(5.44807e-19 1.24962e-18 -0.012602)
(5.66733e-19 1.17822e-18 -0.0125491)
(6.89478e-19 9.88869e-19 -0.0124958)
(7.01004e-19 1.0515e-18 -0.012442)
(6.14336e-19 1.29961e-18 -0.0123879)
(6.19832e-19 1.42662e-18 -0.0123332)
(4.92864e-19 1.61922e-18 -0.0122782)
(3.69609e-19 1.7348e-18 -0.0122226)
(3.89423e-19 1.62883e-18 -0.0121665)
(4.45326e-19 1.47209e-18 -0.0121099)
(5.28487e-19 1.33931e-18 -0.0120527)
(7.30616e-19 1.15296e-18 -0.011995)
(8.52247e-19 1.08181e-18 -0.0119367)
(7.72792e-19 1.24055e-18 -0.0118778)
(5.66236e-19 1.5326e-18 -0.0118183)
(4.36136e-19 1.69351e-18 -0.0117581)
(4.31569e-19 1.68567e-18 -0.0116973)
(3.94005e-19 1.69588e-18 -0.0116358)
(3.24566e-19 1.74288e-18 -0.0115736)
(2.79801e-19 1.80758e-18 -0.0115108)
(3.48038e-19 1.77985e-18 -0.0114471)
(5.62825e-19 1.57229e-18 -0.0113828)
(6.61293e-19 1.46975e-18 -0.0113176)
(6.85041e-19 1.41875e-18 -0.0112516)
(9.05042e-19 1.0884e-18 -0.0111848)
(1.10849e-18 7.81616e-19 -0.0111171)
(1.05933e-18 8.29491e-19 -0.0110485)
(9.25093e-19 9.95278e-19 -0.0109789)
(8.94775e-19 9.99652e-19 -0.0109084)
(9.05469e-19 9.41359e-19 -0.0108368)
(8.0473e-19 1.03265e-18 -0.0107642)
(8.16331e-19 9.97696e-19 -0.0106904)
(9.91126e-19 7.77578e-19 -0.0106155)
(9.92919e-19 7.62612e-19 -0.0105394)
(8.15363e-19 9.72437e-19 -0.010462)
(6.72531e-19 1.13401e-18 -0.0103833)
(7.38811e-19 1.03168e-18 -0.0103033)
(8.17019e-19 9.10596e-19 -0.0102217)
(8.00533e-19 9.02068e-19 -0.0101387)
(8.55881e-19 7.99386e-19 -0.0100541)
(8.81951e-19 7.30294e-19 -0.00996787)
(9.60492e-19 6.48791e-19 -0.00987987)
(1.06708e-18 5.58207e-19 -0.00979005)
(1.01987e-18 6.32367e-19 -0.00969831)
(9.13709e-19 7.55154e-19 -0.00960455)
(8.14721e-19 8.44548e-19 -0.00950868)
(7.70744e-19 8.53701e-19 -0.00941056)
(7.19029e-19 8.93188e-19 -0.0093101)
(5.81728e-19 1.06658e-18 -0.00920715)
(4.67429e-19 1.22656e-18 -0.00910158)
(4.85745e-19 1.20639e-18 -0.00899325)
(5.94609e-19 1.05485e-18 -0.008882)
(-1.08567e-18 2.27155e-18 -0.0127371)
(-9.06233e-19 2.02157e-18 -0.0126854)
(-5.51428e-19 1.58593e-18 -0.0126333)
(-2.69877e-19 1.23865e-18 -0.0125807)
(-1.25054e-19 1.04603e-18 -0.0125278)
(4.65439e-20 8.70476e-19 -0.0124745)
(3.35739e-19 5.46911e-19 -0.0124207)
(5.16095e-19 4.66741e-19 -0.0123665)
(3.50725e-19 8.02157e-19 -0.0123118)
(6.18371e-20 1.24424e-18 -0.0122566)
(-2.85296e-20 1.4572e-18 -0.012201)
(3.55167e-20 1.49874e-18 -0.0121449)
(3.33331e-19 1.28392e-18 -0.0120882)
(9.07173e-19 7.63144e-19 -0.0120309)
(1.27756e-18 4.45824e-19 -0.0119731)
(1.25686e-18 5.38191e-19 -0.0119148)
(1.13891e-18 7.25791e-19 -0.0118558)
(1.01195e-18 9.31186e-19 -0.0117962)
(9.54687e-19 1.07296e-18 -0.0117359)
(1.04127e-18 1.04e-18 -0.011675)
(1.20928e-18 9.0483e-19 -0.0116135)
(1.35207e-18 7.88322e-19 -0.0115512)
(1.3862e-18 7.94034e-19 -0.0114883)
(1.34711e-18 9.09397e-19 -0.0114246)
(1.2545e-18 1.07831e-18 -0.0113601)
(1.16352e-18 1.21638e-18 -0.0112949)
(1.15628e-18 1.26304e-18 -0.0112288)
(1.23563e-18 1.21533e-18 -0.0111619)
(1.35978e-18 1.08959e-18 -0.0110941)
(1.41544e-18 1.01779e-18 -0.0110254)
(1.35792e-18 1.08743e-18 -0.0109557)
(1.33731e-18 1.10748e-18 -0.0108851)
(1.39616e-18 1.04687e-18 -0.0108134)
(1.404e-18 1.05447e-18 -0.0107406)
(1.48e-18 9.80559e-19 -0.0106668)
(1.54622e-18 8.842e-19 -0.0105918)
(1.54042e-18 8.85106e-19 -0.0105155)
(1.46008e-18 9.87996e-19 -0.010438)
(1.35886e-18 1.12803e-18 -0.0103592)
(1.3321e-18 1.17406e-18 -0.010279)
(1.30249e-18 1.18549e-18 -0.0101973)
(1.32592e-18 1.1362e-18 -0.0101142)
(1.37514e-18 1.07189e-18 -0.0100294)
(1.51517e-18 9.14307e-19 -0.00994302)
(1.68408e-18 7.37668e-19 -0.00985486)
(1.61381e-18 8.20396e-19 -0.00976487)
(1.50917e-18 9.35558e-19 -0.00967296)
(1.4858e-18 9.44441e-19 -0.00957903)
(1.36999e-18 1.05394e-18 -0.00948297)
(1.32011e-18 1.09952e-18 -0.00938466)
(1.46579e-18 9.20422e-19 -0.009284)
(1.62554e-18 7.29994e-19 -0.00918085)
(1.64884e-18 7.09175e-19 -0.00907507)
(1.58781e-18 7.91027e-19 -0.00896653)
(1.60277e-18 7.87188e-19 -0.00885505)
(3.05201e-19 1.30987e-18 -0.0127155)
(3.06704e-19 1.47507e-18 -0.0126637)
(3.22535e-19 1.56884e-18 -0.0126115)
(4.03713e-19 1.56809e-18 -0.012559)
(6.16877e-19 1.38159e-18 -0.012506)
(9.52923e-19 1.05502e-18 -0.0124526)
(1.28866e-18 6.68927e-19 -0.0123988)
(1.47125e-18 4.15592e-19 -0.0123446)
(1.21116e-18 6.35281e-19 -0.0122898)
(9.43155e-19 9.50748e-19 -0.0122346)
(9.37731e-19 1.01784e-18 -0.0121789)
(1.17507e-18 8.48542e-19 -0.0121227)
(1.47214e-18 5.6877e-19 -0.0120659)
(1.4983e-18 5.33076e-19 -0.0120086)
(1.26049e-18 7.34255e-19 -0.0119507)
(1.02574e-18 9.82976e-19 -0.0118922)
(8.55156e-19 1.19749e-18 -0.0118332)
(7.22019e-19 1.38197e-18 -0.0117735)
(6.45466e-19 1.52552e-18 -0.0117132)
(6.14698e-19 1.6354e-18 -0.0116522)
(5.25126e-19 1.79234e-18 -0.0115906)
(4.03809e-19 1.96986e-18 -0.0115283)
(4.36665e-19 1.96403e-18 -0.0114652)
(5.3474e-19 1.87342e-18 -0.0114015)
(5.36224e-19 1.87887e-18 -0.0113369)
(5.29782e-19 1.93499e-18 -0.0112716)
(6.36709e-19 1.85113e-18 -0.0112054)
(7.93109e-19 1.6773e-18 -0.0111384)
(7.60547e-19 1.68971e-18 -0.0110705)
(6.33526e-19 1.82806e-18 -0.0110017)
(5.12653e-19 1.97461e-18 -0.0109319)
(5.46637e-19 1.97304e-18 -0.0108612)
(7.13891e-19 1.81261e-18 -0.0107894)
(6.7488e-19 1.88082e-18 -0.0107165)
(5.30551e-19 2.09426e-18 -0.0106426)
(6.62673e-19 2.00783e-18 -0.0105674)
(8.91045e-19 1.78943e-18 -0.0104911)
(9.11437e-19 1.79602e-18 -0.0104134)
(8.38082e-19 1.93331e-18 -0.0103345)
(6.90673e-19 2.15467e-18 -0.0102541)
(6.09101e-19 2.30833e-18 -0.0101723)
(7.51204e-19 2.22192e-18 -0.010089)
(1.02814e-18 1.97794e-18 -0.0100041)
(1.25582e-18 1.7699e-18 -0.00991755)
(1.33785e-18 1.68997e-18 -0.00982923)
(1.29334e-18 1.72627e-18 -0.00973907)
(1.09253e-18 1.94375e-18 -0.00964698)
(8.67611e-19 2.19756e-18 -0.00955286)
(8.50409e-19 2.24098e-18 -0.0094566)
(9.1893e-19 2.19798e-18 -0.0093581)
(9.25596e-19 2.21366e-18 -0.00925723)
(9.47303e-19 2.20165e-18 -0.00915386)
(1.0011e-18 2.14733e-18 -0.00904787)
(1.06943e-18 2.07413e-18 -0.00893909)
(1.11854e-18 2.01917e-18 -0.00882739)
(-7.14716e-19 1.3518e-18 -0.0127155)
(-5.57699e-19 1.30568e-18 -0.0126637)
(-3.62516e-19 1.25608e-18 -0.0126115)
(-1.90494e-19 1.21572e-18 -0.012559)
(-7.14599e-20 1.26588e-18 -0.012506)
(-7.32103e-20 1.37713e-18 -0.0124526)
(-1.12246e-19 1.48281e-18 -0.0123988)
(-2.86015e-19 1.6045e-18 -0.0123446)
(-3.29865e-19 1.61686e-18 -0.0122898)
(-1.16509e-19 1.48695e-18 -0.0122346)
(1.37181e-19 1.35835e-18 -0.0121789)
(1.51409e-19 1.41309e-18 -0.0121227)
(-3.46938e-20 1.59045e-18 -0.0120659)
(-2.56954e-20 1.52352e-18 -0.0120086)
(2.59874e-19 1.16252e-18 -0.0119507)
(5.77588e-19 7.69408e-19 -0.0118922)
(6.26968e-19 6.43948e-19 -0.0118332)
(6.07551e-19 6.35185e-19 -0.0117735)
(6.92512e-19 5.62812e-19 -0.0117132)
(7.45419e-19 5.18775e-19 -0.0116522)
(7.30846e-19 5.26252e-19 -0.0115906)
(7.24851e-19 5.23111e-19 -0.0115283)
(6.1294e-19 6.22478e-19 -0.0114652)
(4.03088e-19 7.91125e-19 -0.0114015)
(4.21636e-19 7.4026e-19 -0.0113369)
(4.41722e-19 7.06146e-19 -0.0112716)
(1.26763e-19 9.85217e-19 -0.0112054)
(-1.37145e-19 1.20149e-18 -0.0111384)
(-1.13911e-20 1.048e-18 -0.0110705)
(2.73359e-19 7.7729e-19 -0.0110017)
(4.3084e-19 6.46933e-19 -0.0109319)
(4.75382e-19 6.57618e-19 -0.0108612)
(4.96311e-19 6.81742e-19 -0.0107894)
(7.2457e-19 4.98784e-19 -0.0107165)
(1.0063e-18 2.76763e-19 -0.0106426)
(9.23831e-19 3.84362e-19 -0.0105674)
(7.33097e-19 5.50445e-19 -0.0104911)
(8.12816e-19 4.58382e-19 -0.0104134)
(8.98247e-19 3.70556e-19 -0.0103345)
(8.98802e-19 3.65894e-19 -0.0102541)
(9.0131e-19 3.72628e-19 -0.0101723)
(8.51091e-19 4.29135e-19 -0.010089)
(6.93757e-19 5.76942e-19 -0.0100041)
(5.15823e-19 7.22204e-19 -0.00991755)
(3.44099e-19 8.3432e-19 -0.00982923)
(2.2692e-19 8.95814e-19 -0.00973907)
(3.02207e-19 7.92451e-19 -0.00964698)
(4.60796e-19 6.27921e-19 -0.00955286)
(4.64008e-19 6.13491e-19 -0.0094566)
(3.88702e-19 6.69936e-19 -0.0093581)
(4.07612e-19 6.3121e-19 -0.00925723)
(4.3422e-19 5.76239e-19 -0.00915386)
(3.7048e-19 5.92627e-19 -0.00904787)
(2.45125e-19 6.67635e-19 -0.00893909)
(1.56708e-19 7.07808e-19 -0.00882739)
(5.58048e-19 9.69683e-19 -0.0127371)
(6.64298e-19 8.29039e-19 -0.0126854)
(6.76368e-19 7.89063e-19 -0.0126333)
(8.5233e-19 6.25566e-19 -0.0125807)
(1.06667e-18 4.41864e-19 -0.0125278)
(1.06453e-18 4.46092e-19 -0.0124745)
(8.18029e-19 6.53091e-19 -0.0124207)
(6.17661e-19 8.42174e-19 -0.0123665)
(8.08284e-19 7.30474e-19 -0.0123118)
(1.10118e-18 5.35712e-19 -0.0122566)
(1.13218e-18 5.7119e-19 -0.012201)
(9.62107e-19 7.66586e-19 -0.0121449)
(6.71935e-19 1.08504e-18 -0.0120882)
(1.47023e-19 1.61688e-18 -0.0120309)
(-2.99252e-19 2.0634e-18 -0.0119731)
(-3.91971e-19 2.15263e-18 -0.0119148)
(-1.20801e-19 1.91291e-18 -0.0118558)
(2.12644e-19 1.65246e-18 -0.0117962)
(2.9816e-19 1.61503e-18 -0.0117359)
(2.08652e-19 1.72222e-18 -0.011675)
(5.46589e-20 1.88343e-18 -0.0116135)
(-2.64226e-20 1.9966e-18 -0.0115512)
(-2.84035e-20 2.04345e-18 -0.0114883)
(-5.53665e-20 2.12642e-18 -0.0114246)
(3.84353e-20 2.10619e-18 -0.0113601)
(2.2128e-19 1.98758e-18 -0.0112949)
(3.52423e-19 1.95217e-18 -0.0112288)
(4.19285e-19 1.97921e-18 -0.0111619)
(5.43285e-19 1.92559e-18 -0.0110941)
(7.68764e-19 1.73673e-18 -0.0110254)
(1.05578e-18 1.50155e-18 -0.0109557)
(1.29208e-18 1.31873e-18 -0.0108851)
(1.32895e-18 1.31662e-18 -0.0108134)
(1.25943e-18 1.40697e-18 -0.0107406)
(1.1107e-18 1.54318e-18 -0.0106668)
(8.85981e-19 1.69919e-18 -0.0105918)
(7.72765e-19 1.75898e-18 -0.0105155)
(7.98863e-19 1.69798e-18 -0.010438)
(8.04865e-19 1.65511e-18 -0.0103592)
(7.48402e-19 1.66356e-18 -0.010279)
(7.21007e-19 1.64674e-18 -0.0101973)
(7.70915e-19 1.56559e-18 -0.0101142)
(8.21339e-19 1.49774e-18 -0.0100294)
(7.05392e-19 1.58854e-18 -0.00994302)
(6.34106e-19 1.64395e-18 -0.00985486)
(7.74013e-19 1.52293e-18 -0.00976487)
(8.62235e-19 1.43882e-18 -0.00967296)
(8.36733e-19 1.44051e-18 -0.00957903)
(8.65507e-19 1.38939e-18 -0.00948296)
(8.83678e-19 1.35201e-18 -0.00938466)
(7.83508e-19 1.41977e-18 -0.009284)
(6.57349e-19 1.50465e-18 -0.00918085)
(6.51613e-19 1.48578e-18 -0.00907507)
(7.71012e-19 1.37289e-18 -0.00896653)
(8.17724e-19 1.33857e-18 -0.00885505)
(7.71097e-19 1.39345e-18 -0.00874049)
(8.19239e-19 1.36804e-18 -0.00862265)
(1.0125e-18 1.20603e-18 -0.00850135)
(1.15274e-18 1.07484e-18 -0.00837639)
(-1.09021e-18 2.31429e-18 -0.0127582)
(-1.00648e-18 2.2293e-18 -0.0127065)
(-7.39161e-19 1.98354e-18 -0.0126544)
(-5.30578e-19 1.79446e-18 -0.012602)
(-4.19545e-19 1.63994e-18 -0.0125491)
(-4.46934e-19 1.62189e-18 -0.0124958)
(-4.54877e-19 1.58194e-18 -0.012442)
(-4.30841e-19 1.55699e-18 -0.0123879)
(-3.6736e-19 1.49219e-18 -0.0123332)
(-1.38425e-19 1.26433e-18 -0.0122782)
(7.14834e-20 1.06581e-18 -0.0122226)
(1.28038e-19 1.04268e-18 -0.0121665)
(1.47369e-19 1.0609e-18 -0.0121099)
(2.01468e-19 1.08022e-18 -0.0120527)
(1.66374e-19 1.22296e-18 -0.011995)
(1.55464e-19 1.35803e-18 -0.0119367)
(3.6205e-19 1.30754e-18 -0.0118778)
(6.57007e-19 1.14584e-18 -0.0118183)
(8.38222e-19 1.05416e-18 -0.0117581)
(8.96547e-19 1.0444e-18 -0.0116973)
(9.83614e-19 9.95862e-19 -0.0116358)
(1.08596e-18 9.34726e-19 -0.0115736)
(1.0975e-18 9.70823e-19 -0.0115108)
(1.02713e-18 1.10959e-18 -0.0114471)
(9.7031e-19 1.24856e-18 -0.0113828)
(1.13998e-18 1.18566e-18 -0.0113176)
(1.13233e-18 1.23512e-18 -0.0112516)
(6.9212e-19 1.58288e-18 -0.0111848)
(3.07545e-19 1.88556e-18 -0.0111171)
(3.41386e-19 1.84452e-18 -0.0110485)
(6.0583e-19 1.61019e-18 -0.0109789)
(7.18029e-19 1.45279e-18 -0.0109084)
(7.46468e-19 1.34066e-18 -0.0108368)
(7.82633e-19 1.23755e-18 -0.0107642)
(5.40059e-19 1.37641e-18 -0.0106904)
(1.12548e-19 1.6858e-18 -0.0106155)
(-5.12036e-20 1.79e-18 -0.0105394)
(7.73617e-20 1.66601e-18 -0.010462)
(1.81129e-19 1.57961e-18 -0.0103833)
(1.8637e-19 1.57486e-18 -0.0103033)
(2.37983e-19 1.52946e-18 -0.0102217)
(3.59051e-19 1.44242e-18 -0.0101387)
(4.44425e-19 1.37224e-18 -0.0100541)
(4.23086e-19 1.38348e-18 -0.00996786)
(3.878e-19 1.4352e-18 -0.00987987)
(3.21352e-19 1.52419e-18 -0.00979005)
(2.38802e-19 1.6086e-18 -0.00969831)
(2.57824e-19 1.59483e-18 -0.00960455)
(2.8166e-19 1.56903e-18 -0.00950867)
(2.73517e-19 1.55704e-18 -0.00941056)
(2.83059e-19 1.54152e-18 -0.0093101)
(3.43213e-19 1.49735e-18 -0.00920715)
(5.32382e-19 1.35473e-18 -0.00910158)
(7.43814e-19 1.18168e-18 -0.00899325)
(8.82183e-19 1.0627e-18 -0.008882)
(9.93193e-19 9.71369e-19 -0.00876766)
(1.05898e-18 9.33669e-19 -0.00865005)
(9.95372e-19 9.96335e-19 -0.00852899)
(8.73377e-19 1.0911e-18 -0.00840427)
(8.66717e-19 1.07657e-18 -0.00827568)
(-6.55451e-19 4.20869e-19 -0.0127787)
(-6.68342e-19 5.87116e-19 -0.0127271)
(-6.32669e-19 6.73083e-19 -0.0126751)
(-5.67565e-19 6.90101e-19 -0.0126226)
(-3.83417e-19 6.15739e-19 -0.0125698)
(-2.7368e-19 5.80687e-19 -0.0125165)
(-3.36263e-19 7.24614e-19 -0.0124629)
(-3.67367e-19 8.43031e-19 -0.0124087)
(-3.71963e-19 9.53654e-19 -0.0123541)
(-1.60337e-19 8.7712e-19 -0.0122991)
(2.51784e-19 6.49792e-19 -0.0122436)
(4.44897e-19 5.65679e-19 -0.0121876)
(3.70259e-19 7.08136e-19 -0.012131)
(2.69963e-19 8.5834e-19 -0.0120739)
(1.65233e-19 1.00686e-18 -0.0120163)
(8.02847e-20 1.1433e-18 -0.0119581)
(7.6168e-20 1.2201e-18 -0.0118992)
(7.40445e-20 1.27879e-18 -0.0118398)
(-4.29119e-20 1.42135e-18 -0.0117797)
(-3.2262e-19 1.6747e-18 -0.0117189)
(-5.88339e-19 1.89198e-18 -0.0116575)
(-5.52633e-19 1.84146e-18 -0.0115954)
(-2.03322e-19 1.55192e-18 -0.0115326)
(2.02543e-20 1.36043e-18 -0.0114691)
(8.74063e-21 1.36915e-18 -0.0114048)
(-1.73063e-19 1.50604e-18 -0.0113397)
(-6.28843e-19 1.83336e-18 -0.0112738)
(-9.26476e-19 2.06518e-18 -0.0112071)
(-8.36405e-19 2.02307e-18 -0.0111395)
(-6.72812e-19 1.93039e-18 -0.0110709)
(-7.39257e-19 2.00203e-18 -0.0110015)
(-9.58202e-19 2.18722e-18 -0.010931)
(-9.27009e-19 2.18378e-18 -0.0108596)
(-7.38385e-19 2.04283e-18 -0.010787)
(-5.91603e-19 1.92122e-18 -0.0107134)
(-5.31322e-19 1.88202e-18 -0.0106386)
(-4.32527e-19 1.82677e-18 -0.0105626)
(-1.59321e-19 1.60933e-18 -0.0104853)
(5.51902e-22 1.45892e-18 -0.0104068)
(-6.01156e-20 1.47929e-18 -0.0103268)
(4.17016e-20 1.38202e-18 -0.0102455)
(1.39248e-19 1.28128e-18 -0.0101626)
(4.08574e-20 1.32035e-18 -0.0100781)
(1.18732e-19 1.2148e-18 -0.00999201)
(3.77256e-19 9.76527e-19 -0.00990417)
(4.25536e-19 9.0611e-19 -0.0098145)
(2.14302e-19 1.04607e-18 -0.00972293)
(-1.28235e-20 1.20073e-18 -0.00962934)
(-1.54841e-19 1.28716e-18 -0.00953364)
(-1.31592e-19 1.25432e-18 -0.00943571)
(1.55218e-20 1.13468e-18 -0.00933543)
(1.13419e-19 1.05575e-18 -0.00923268)
(8.91434e-20 1.06159e-18 -0.00912731)
(3.09503e-20 1.08561e-18 -0.00901918)
(6.15617e-20 1.0352e-18 -0.00890814)
(2.13669e-19 8.8487e-19 -0.00879401)
(3.283e-19 7.54697e-19 -0.00867663)
(2.5995e-19 7.64165e-19 -0.00855579)
(9.56548e-20 8.5279e-19 -0.0084313)
(-1.4031e-20 9.07434e-19 -0.00830294)
(6.17201e-20 8.18246e-19 -0.00817047)
(2.75891e-19 6.22975e-19 -0.00803367)
(4.63897e-19 4.62632e-19 -0.00789225)
(4.37426e-19 4.80288e-19 -0.00774596)
(3.42184e-19 5.44662e-19 -0.00759451)
(3.91936e-19 4.78675e-19 -0.00743759)
(5.28116e-19 3.45931e-19 -0.0072749)
(6.31555e-19 2.43441e-19 -0.00710612)
(7.03235e-19 1.64455e-19 -0.00693091)
(7.38835e-19 1.11464e-19 -0.00674894)
(7.05944e-19 1.09804e-19 -0.00655989)
(6.41353e-19 1.25078e-19 -0.00636338)
(5.89796e-19 1.1994e-19 -0.00615879)
(5.78083e-19 8.59011e-20 -0.0059453)
(5.91083e-19 3.56246e-20 -0.00572224)
(6.0215e-19 -1.59472e-20 -0.00548927)
(5.50312e-19 -2.27071e-20 -0.00524621)
(4.47034e-19 7.88582e-21 -0.0049931)
(3.60134e-19 3.02084e-20 -0.00473025)
(2.9032e-19 4.26371e-20 -0.00445832)
(2.39632e-19 4.11699e-20 -0.00417831)
(1.98559e-19 3.16969e-20 -0.00389155)
(1.70146e-19 1.54854e-20 -0.00359961)
(1.50349e-19 -1.42469e-21 -0.0033042)
(1.34421e-19 -2.23922e-20 -0.00300698)
(9.61804e-20 -2.44616e-20 -0.00270943)
(6.80945e-20 -3.03831e-20 -0.00241279)
(7.43527e-20 -5.95157e-20 -0.00211798)
(7.4999e-20 -8.01875e-20 -0.00182564)
(4.0351e-20 -6.93169e-20 -0.00153616)
(-4.30667e-21 -4.39295e-20 -0.00124976)
(-2.61542e-20 -2.59868e-20 -0.000966541)
(-2.46594e-20 -9.71759e-21 -0.000686533)
(3.45031e-22 1.18659e-20 -0.000409724)
(-2.00424e-20 -1.82797e-20 -0.00013609)
(-9.27767e-20 1.23817e-18 -0.0127986)
(1.29099e-19 1.21051e-18 -0.012747)
(2.80706e-20 1.35917e-18 -0.0126951)
(1.26525e-20 1.39232e-18 -0.0126427)
(7.24505e-20 1.37106e-18 -0.0125899)
(2.39465e-19 1.21819e-18 -0.0125367)
(5.0601e-19 1.03612e-18 -0.012483)
(5.66031e-19 9.9178e-19 -0.012429)
(5.20113e-19 1.00913e-18 -0.0123744)
(5.63585e-19 9.38812e-19 -0.0123194)
(6.2428e-19 8.25966e-19 -0.012264)
(6.88375e-19 7.05842e-19 -0.012208)
(7.7239e-19 6.22585e-19 -0.0121515)
(6.80433e-19 6.54471e-19 -0.0120945)
(5.22412e-19 6.88597e-19 -0.0120369)
(4.10202e-19 6.99249e-19 -0.0119788)
(4.17473e-19 6.34846e-19 -0.01192)
(5.28236e-19 4.9722e-19 -0.0118606)
(5.61233e-19 3.99258e-19 -0.0118006)
(3.3005e-19 4.9926e-19 -0.0117399)
(-4.23061e-20 7.33548e-19 -0.0116786)
(-2.45432e-19 8.64061e-19 -0.0116166)
(-2.7026e-19 8.43783e-19 -0.0115538)
(-2.25396e-19 7.46328e-19 -0.0114904)
(-1.92571e-19 6.63875e-19 -0.0114262)
(-1.79829e-19 6.04008e-19 -0.0113612)
(-1.5318e-19 5.68664e-19 -0.0112953)
(-2.81264e-19 7.05921e-19 -0.0112287)
(-4.77123e-19 9.11451e-19 -0.0111612)
(-4.51709e-19 9.62634e-19 -0.0110927)
(-2.37601e-19 8.71643e-19 -0.0110233)
(-5.09893e-20 8.23521e-19 -0.010953)
(-5.27197e-20 9.27083e-19 -0.0108816)
(-1.58839e-19 1.11384e-18 -0.0108092)
(-2.85056e-19 1.32034e-18 -0.0107357)
(-4.0985e-19 1.51683e-18 -0.010661)
(-6.53256e-19 1.77088e-18 -0.0105851)
(-8.83702e-19 1.98671e-18 -0.0105079)
(-8.9295e-19 2.02002e-18 -0.0104295)
(-7.65296e-19 1.95372e-18 -0.0103497)
(-6.57755e-19 1.91588e-18 -0.0102684)
(-6.62267e-19 1.93653e-18 -0.0101857)
(-6.9969e-19 1.99183e-18 -0.0101014)
(-6.95912e-19 2.01522e-18 -0.0100154)
(-6.07316e-19 1.95743e-18 -0.00992768)
(-5.40986e-19 1.89598e-18 -0.00983817)
(-5.08444e-19 1.86948e-18 -0.00974675)
(-4.59898e-19 1.85672e-18 -0.00965332)
(-3.25781e-19 1.80958e-18 -0.00955779)
(-1.10123e-19 1.71496e-18 -0.00946003)
(4.46457e-20 1.65132e-18 -0.00935993)
(4.82776e-20 1.69701e-18 -0.00925736)
(8.18719e-20 1.72648e-18 -0.00915218)
(2.06122e-19 1.69006e-18 -0.00904425)
(3.02633e-19 1.67091e-18 -0.00893341)
(3.33989e-19 1.69262e-18 -0.00881949)
(3.22722e-19 1.73633e-18 -0.00870231)
(3.31365e-19 1.75928e-18 -0.00858169)
(4.24032e-19 1.71766e-18 -0.00845742)
(5.97106e-19 1.62326e-18 -0.00832928)
(7.68063e-19 1.53103e-18 -0.00819704)
(9.49924e-19 1.43195e-18 -0.00806046)
(1.1624e-18 1.30856e-18 -0.00791927)
(1.27878e-18 1.25666e-18 -0.00777321)
(1.15122e-18 1.39621e-18 -0.00762197)
(9.77499e-19 1.57494e-18 -0.00746526)
(9.71523e-19 1.6254e-18 -0.00730276)
(1.04192e-18 1.60944e-18 -0.00713415)
(1.09134e-18 1.59833e-18 -0.0069591)
(1.08479e-18 1.614e-18 -0.00677727)
(9.81694e-19 1.69422e-18 -0.00658831)
(8.17831e-19 1.81937e-18 -0.00639186)
(7.75395e-19 1.85536e-18 -0.00618735)
(8.80647e-19 1.77929e-18 -0.00597394)
(9.9418e-19 1.68714e-18 -0.0057509)
(1.04633e-18 1.63074e-18 -0.00551787)
(1.05546e-18 1.59665e-18 -0.00527462)
(1.05848e-18 1.56199e-18 -0.00502118)
(1.08193e-18 1.50545e-18 -0.00475784)
(1.08436e-18 1.45259e-18 -0.0044852)
(1.01745e-18 1.43905e-18 -0.00420427)
(9.5752e-19 1.408e-18 -0.00391635)
(9.34209e-19 1.3394e-18 -0.00362305)
(8.66998e-19 1.29285e-18 -0.00332608)
(7.71117e-19 1.25324e-18 -0.00302714)
(7.18275e-19 1.16936e-18 -0.00272776)
(6.91873e-19 1.05614e-18 -0.00242921)
(6.56184e-19 9.36474e-19 -0.00213245)
(5.98513e-19 8.20502e-19 -0.00183814)
(5.21723e-19 7.0857e-19 -0.00154669)
(4.37217e-19 5.90644e-19 -0.00125834)
(3.5641e-19 4.60509e-19 -0.000973185)
(2.6414e-19 3.34378e-19 -0.000691256)
(1.69505e-19 2.12665e-19 -0.000412545)
(5.50039e-20 6.10079e-20 -0.000137028)
(7.68708e-19 5.58918e-19 -0.0128179)
(6.44614e-19 6.65941e-19 -0.0127663)
(1.60881e-19 1.02402e-18 -0.0127144)
(-7.30174e-20 1.25126e-18 -0.012662)
(-2.17393e-19 1.38084e-18 -0.0126093)
(-1.98614e-19 1.42457e-18 -0.0125561)
(-1.12598e-19 1.40787e-18 -0.0125025)
(-2.6539e-19 1.54141e-18 -0.0124485)
(-5.35104e-19 1.72325e-18 -0.012394)
(-6.9205e-19 1.80283e-18 -0.0123391)
(-5.29238e-19 1.63299e-18 -0.0122837)
(-1.12189e-19 1.3012e-18 -0.0122277)
(-1.23341e-20 1.16459e-18 -0.0121713)
(-4.98089e-19 1.40206e-18 -0.0121144)
(-8.86923e-19 1.57911e-18 -0.0120569)
(-9.36386e-19 1.54062e-18 -0.0119988)
(-9.61352e-19 1.48146e-18 -0.0119401)
(-1.12816e-18 1.49405e-18 -0.0118807)
(-1.32467e-18 1.519e-18 -0.0118208)
(-1.36818e-18 1.42708e-18 -0.0117602)
(-1.36915e-18 1.31574e-18 -0.0116989)
(-1.43384e-18 1.26198e-18 -0.011637)
(-1.45771e-18 1.1898e-18 -0.0115743)
(-1.38449e-18 1.06698e-18 -0.0115109)
(-1.31916e-18 9.59396e-19 -0.0114468)
(-1.23211e-18 8.31688e-19 -0.0113819)
(-1.01555e-18 6.11149e-19 -0.0113161)
(-7.59443e-19 3.77434e-19 -0.0112496)
(-5.52174e-19 2.12941e-19 -0.0111821)
(-4.84174e-19 1.4872e-19 -0.0111138)
(-5.0553e-19 1.18956e-19 -0.0110445)
(-4.95194e-19 5.06497e-20 -0.0109742)
(-3.48422e-19 -9.98638e-20 -0.0109029)
(-1.2009e-19 -2.77396e-19 -0.0108306)
(-6.85359e-20 -3.34723e-19 -0.0107572)
(-3.77783e-19 -1.30883e-19 -0.0106826)
(-8.10458e-19 1.82079e-19 -0.0106068)
(-9.77557e-19 3.63102e-19 -0.0105298)
(-9.84538e-19 4.39432e-19 -0.0104514)
(-9.03714e-19 4.43856e-19 -0.0103717)
(-8.60324e-19 4.67725e-19 -0.0102906)
(-8.40073e-19 5.10444e-19 -0.010208)
(-8.28508e-19 5.66079e-19 -0.0101238)
(-9.08678e-19 6.83997e-19 -0.0100379)
(-9.64649e-19 7.79709e-19 -0.00995036)
(-9.43106e-19 8.28471e-19 -0.00986099)
(-7.69137e-19 7.65639e-19 -0.00976972)
(-4.61033e-19 6.00211e-19 -0.00967645)
(-2.26101e-19 4.75352e-19 -0.00958107)
(-2.58129e-19 5.3688e-19 -0.00948348)
(-2.84161e-19 5.90571e-19 -0.00938354)
(-1.61341e-19 5.42439e-19 -0.00928115)
(-1.52694e-19 5.72723e-19 -0.00917615)
(-2.75159e-19 6.85384e-19 -0.0090684)
(-3.73944e-19 7.7368e-19 -0.00895775)
(-4.01419e-19 8.12089e-19 -0.00884403)
(-4.42355e-19 8.649e-19 -0.00872706)
(-5.9345e-19 9.96388e-19 -0.00860665)
(-7.06509e-19 1.10213e-18 -0.00848258)
(-7.08133e-19 1.12406e-18 -0.00835466)
(-5.92144e-19 1.05356e-18 -0.00822264)
(-3.66774e-19 8.95021e-19 -0.00808627)
(-1.71462e-19 7.52e-19 -0.0079453)
(-3.88802e-20 6.46884e-19 -0.00779945)
(7.14161e-20 5.56345e-19 -0.00764842)
(1.35225e-19 5.10473e-19 -0.00749191)
(1.26053e-19 5.17553e-19 -0.00732961)
(1.77772e-20 5.84968e-19 -0.00716117)
(-1.38698e-19 6.84971e-19 -0.00698628)
(-2.33877e-19 7.4221e-19 -0.00680457)
(-2.03569e-19 7.1176e-19 -0.00661571)
(-9.36198e-20 6.316e-19 -0.00641933)
(2.42813e-20 5.51181e-19 -0.0062149)
(4.74456e-20 5.3058e-19 -0.00600158)
(-2.09969e-23 5.54412e-19 -0.00577857)
(4.94503e-21 5.39166e-19 -0.00554548)
(5.99373e-20 4.84588e-19 -0.00530208)
(9.40051e-20 4.39934e-19 -0.00504834)
(5.38411e-20 4.46636e-19 -0.00478452)
(-1.63318e-20 4.77304e-19 -0.00451122)
(-6.79876e-20 4.97504e-19 -0.00422941)
(-6.51393e-20 4.82999e-19 -0.00394039)
(-3.23318e-20 4.45851e-19 -0.00364578)
(-5.12233e-20 4.41337e-19 -0.0033473)
(-8.48755e-20 4.47341e-19 -0.0030467)
(-4.85068e-20 4.0466e-19 -0.00274555)
(2.58906e-20 3.30831e-19 -0.00244516)
(7.48228e-20 2.71568e-19 -0.0021465)
(9.07584e-20 2.32173e-19 -0.00185029)
(8.15079e-20 2.05867e-19 -0.00155693)
(5.99828e-20 1.81818e-19 -0.00126668)
(4.56986e-20 1.46917e-19 -0.000979639)
(4.9481e-20 9.49307e-20 -0.000695844)
(2.99686e-20 5.80144e-20 -0.000415285)
(2.16073e-20 1.51416e-20 -0.000137939)
(3.45215e-20 8.68373e-19 -0.0128364)
(1.1325e-19 6.72584e-19 -0.0127849)
(1.61387e-19 4.98545e-19 -0.012733)
(8.3789e-21 4.95525e-19 -0.0126807)
(-9.9134e-20 4.9148e-19 -0.012628)
(8.62058e-20 3.6288e-19 -0.0125749)
(2.37628e-19 2.56607e-19 -0.0125213)
(1.3672e-19 3.29804e-19 -0.0124673)
(-1.95026e-19 5.82057e-19 -0.0124129)
(-5.02373e-19 8.47601e-19 -0.012358)
(-5.97158e-19 9.64308e-19 -0.0123026)
(-5.17237e-19 9.42594e-19 -0.0122468)
(-5.16695e-19 9.26482e-19 -0.0121904)
(-6.0494e-19 9.73867e-19 -0.0121335)
(-6.4545e-19 1.02239e-18 -0.012076)
(-6.89856e-19 1.07549e-18 -0.012018)
(-7.86471e-19 1.17083e-18 -0.0119594)
(-7.93107e-19 1.20604e-18 -0.0119001)
(-8.38514e-19 1.2702e-18 -0.0118403)
(-1.04913e-18 1.44607e-18 -0.0117797)
(-1.20383e-18 1.58869e-18 -0.0117185)
(-1.19543e-18 1.62382e-18 -0.0116566)
(-1.01343e-18 1.54559e-18 -0.0115941)
(-7.45122e-19 1.38968e-18 -0.0115307)
(-6.35061e-19 1.32694e-18 -0.0114667)
(-6.80196e-19 1.35112e-18 -0.0114018)
(-5.89074e-19 1.28298e-18 -0.0113361)
(-3.59115e-19 1.11359e-18 -0.0112696)
(-2.5912e-19 1.02181e-18 -0.0112023)
(-4.35247e-19 1.08422e-18 -0.011134)
(-6.06387e-19 1.13765e-18 -0.0110648)
(-5.39453e-19 1.02272e-18 -0.0109946)
(-3.09124e-19 8.08375e-19 -0.0109234)
(-2.61955e-19 6.99444e-19 -0.0108512)
(-3.12104e-19 6.37542e-19 -0.0107778)
(-1.53296e-19 4.5486e-19 -0.0107033)
(1.41468e-19 2.0539e-19 -0.0106277)
(2.61811e-19 8.30911e-20 -0.0105507)
(8.69564e-20 1.59895e-19 -0.0104725)
(-2.38226e-20 1.89944e-19 -0.0103929)
(-3.0036e-20 1.32894e-19 -0.0103119)
(-1.30876e-20 8.59835e-20 -0.0102294)
(-5.63182e-20 8.47065e-20 -0.0101453)
(-1.6601e-19 1.39111e-19 -0.0100596)
(-1.1807e-19 9.77506e-20 -0.00997216)
(-9.87616e-20 8.60618e-20 -0.00988293)
(-2.92003e-19 2.11956e-19 -0.00979179)
(-4.87959e-19 3.30436e-19 -0.00969867)
(-4.45029e-19 2.89102e-19 -0.00960344)
(-2.68586e-19 1.65983e-19 -0.009506)
(-1.81727e-19 1.01739e-19 -0.00940623)
(-2.21002e-19 1.02288e-19 -0.009304)
(-3.30161e-19 1.37103e-19 -0.00919917)
(-4.47192e-19 1.93293e-19 -0.0090916)
(-5.12086e-19 2.14627e-19 -0.00898114)
(-4.71072e-19 1.65451e-19 -0.0088676)
(-4.33121e-19 1.15959e-19 -0.00875082)
(-4.3934e-19 1.03944e-19 -0.00863061)
(-4.67275e-19 1.11596e-19 -0.00850675)
(-5.4089e-19 1.42135e-19 -0.00837903)
(-6.71944e-19 2.09634e-19 -0.00824721)
(-6.88457e-19 2.03992e-19 -0.00811106)
(-5.82438e-19 1.12427e-19 -0.00797029)
(-5.27497e-19 4.91516e-20 -0.00782465)
(-4.9529e-19 -5.41499e-21 -0.00767382)
(-4.85974e-19 -4.57285e-20 -0.00751751)
(-5.68668e-19 -2.37556e-20 -0.00735539)
(-6.09521e-19 -2.25744e-20 -0.00718713)
(-5.54727e-19 -7.63222e-20 -0.00701238)
(-5.26988e-19 -1.07408e-19 -0.00683081)
(-5.22131e-19 -1.19538e-19 -0.00664204)
(-5.0785e-19 -1.36501e-19 -0.00644573)
(-5.4006e-19 -1.26847e-19 -0.00624139)
(-5.66127e-19 -1.21437e-19 -0.00602816)
(-5.33532e-19 -1.49011e-19 -0.00580519)
(-5.184e-19 -1.60187e-19 -0.00557206)
(-5.15897e-19 -1.62329e-19 -0.00532851)
(-4.86034e-19 -1.82006e-19 -0.00507449)
(-3.84764e-19 -2.47725e-19 -0.00481024)
(-2.52231e-19 -3.29532e-19 -0.00453632)
(-1.58891e-19 -3.80624e-19 -0.00425367)
(-1.5172e-19 -3.72913e-19 -0.00396361)
(-1.94504e-19 -3.31434e-19 -0.00366774)
(-2.29134e-19 -2.91307e-19 -0.00336782)
(-2.3844e-19 -2.6239e-19 -0.00306563)
(-2.24346e-19 -2.44762e-19 -0.00276277)
(-1.9708e-19 -2.34695e-19 -0.00246059)
(-1.5678e-19 -2.29679e-19 -0.00216011)
(-1.20795e-19 -2.18323e-19 -0.00186204)
(-9.45078e-20 -1.96911e-19 -0.00156684)
(-8.64631e-20 -1.59625e-19 -0.00127475)
(-7.94855e-20 -1.17492e-19 -0.000985886)
(-5.68005e-20 -8.28339e-20 -0.000700285)