/*--------------------------------*- C++ -*----------------------------------*\
  =========                 |
  \\      /  F ield         | OpenFOAM: The Open Source CFD Toolbox
   \\    /   O peration     | Website:  https://openfoam.org
    \\  /    A nd           | Version:  7
     \\/     M anipulation  |
\*---------------------------------------------------------------------------*/
FoamFile
{
    version     2.0;
    format      ascii;
    class       volVectorField;
    location    "172000";
    object      U;
}
// * * * * * * * * * * * * * * * * * * * * * * * * * * * * * * * * * * * * * //

dimensions      [0 1 -1 0 0 0 0];

internalField   nonuniform List<vector> 
4850
(
(-1.26123e-18 -4.90137e-19 -0.0154836)
(-1.21362e-18 -5.72217e-19 -0.0154996)
(-1.33323e-18 -3.94645e-19 -0.0154525)
(-1.29752e-18 -3.97685e-19 -0.0154687)
(-1.05907e-18 -2.07189e-19 -0.0154843)
(-1.18182e-18 -2.94911e-19 -0.0154209)
(-1.37829e-18 -3.5041e-19 -0.0154373)
(-1.0429e-18 -2.57528e-19 -0.0154531)
(-1.04166e-18 4.55835e-20 -0.0154684)
(-8.92784e-19 1.92694e-19 -0.0154831)
(-1.13214e-18 -2.43315e-19 -0.0153888)
(-1.3714e-18 -4.20439e-19 -0.0154055)
(-9.99673e-19 -2.99234e-19 -0.0154215)
(-9.77132e-19 5.04983e-21 -0.015437)
(-8.07182e-19 7.35154e-20 -0.0154518)
(-6.48523e-19 3.04966e-19 -0.0154661)
(-1.19757e-18 -1.13173e-19 -0.0153564)
(-1.49515e-18 -3.90902e-19 -0.0153732)
(-1.07037e-18 -1.89646e-19 -0.0153894)
(-9.54545e-19 2.94596e-20 -0.015405)
(-8.45583e-19 1.12737e-19 -0.0154201)
(-5.13587e-19 2.79263e-19 -0.0154346)
(-6.63294e-19 6.90719e-19 -0.0154484)
(-1.09925e-18 -3.57729e-19 -0.0153235)
(-1.493e-18 -4.8399e-19 -0.0153405)
(-1.22111e-18 4.06832e-20 -0.0153569)
(-9.43638e-19 2.43188e-21 -0.0153727)
(-8.96807e-19 1.70101e-19 -0.0153879)
(-5.00413e-19 4.9173e-19 -0.0154026)
(-5.4987e-19 9.46603e-19 -0.0154166)
(-8.13478e-19 8.49342e-19 -0.01543)
(-1.02649e-18 7.26843e-19 -0.0154427)
(-9.04781e-19 -8.03559e-19 -0.0152902)
(-1.3012e-18 -4.68843e-19 -0.0153073)
(-1.26364e-18 1.40372e-19 -0.0153239)
(-1.0393e-18 2.66017e-20 -0.0153399)
(-8.46662e-19 2.65243e-19 -0.0153553)
(-4.34898e-19 7.29086e-19 -0.0153702)
(-4.30456e-19 8.36445e-19 -0.0153843)
(-7.43966e-19 5.28409e-19 -0.0153979)
(-9.50856e-19 3.81899e-19 -0.0154108)
(-7.08049e-19 5.06635e-19 -0.015423)
(-8.04946e-19 -8.37822e-19 -0.0152565)
(-1.08849e-18 -3.0732e-19 -0.0152738)
(-1.12874e-18 1.66256e-20 -0.0152906)
(-1.11979e-18 1.27457e-19 -0.0153067)
(-8.42952e-19 3.01177e-19 -0.0153223)
(-4.65476e-19 7.57479e-19 -0.0153373)
(-3.9812e-19 5.97464e-19 -0.0153517)
(-6.46781e-19 2.19519e-19 -0.0153653)
(-8.62156e-19 1.35476e-19 -0.0153784)
(-6.09469e-19 2.54773e-19 -0.0153907)
(-4.10024e-19 2.15908e-19 -0.0154024)
(-3.31195e-19 1.57375e-19 -0.0154133)
(-9.83401e-20 -1.33907e-19 -0.0154235)
(-5.16546e-19 -5.43991e-19 -0.015433)
(-9.34967e-19 -5.31712e-19 -0.0152224)
(-9.94119e-19 -1.76479e-19 -0.0152399)
(-9.28434e-19 -1.96228e-19 -0.0152568)
(-1.03597e-18 2.43869e-20 -0.0152732)
(-7.8092e-19 2.46361e-19 -0.0152889)
(-4.09392e-19 6.78973e-19 -0.015304)
(-4.92595e-19 5.27671e-19 -0.0153185)
(-6.59143e-19 5.8782e-20 -0.0153324)
(-8.28854e-19 -5.54719e-21 -0.0153456)
(-6.23765e-19 -2.40449e-20 -0.015358)
(-3.36499e-19 -2.31679e-19 -0.0153698)
(-2.78392e-19 -2.05787e-19 -0.0153809)
(-2.25076e-19 -3.36917e-19 -0.0153912)
(-5.09381e-19 -7.10515e-19 -0.0154008)
(-8.09115e-19 -5.21242e-19 -0.0154097)
(-8.73701e-19 -5.54222e-19 -0.0154177)
(-1.14191e-18 -3.02332e-19 -0.015425)
(-8.95944e-19 3.43974e-20 -0.0154315)
(-1.06475e-18 -2.49553e-19 -0.015188)
(-1.10384e-18 -4.52591e-20 -0.0152056)
(-9.3898e-19 -2.1051e-19 -0.0152227)
(-9.15173e-19 -5.27259e-20 -0.0152392)
(-7.14888e-19 1.95958e-19 -0.0152551)
(-2.80294e-19 4.36309e-19 -0.0152704)
(-3.83005e-19 6.73391e-20 -0.015285)
(-6.95931e-19 -7.5571e-20 -0.015299)
(-8.17916e-19 -1.877e-19 -0.0153123)
(-6.93327e-19 -2.32098e-19 -0.0153249)
(-4.00472e-19 -3.94697e-19 -0.0153368)
(-2.18547e-19 -5.4889e-19 -0.015348)
(-2.47148e-19 -3.67722e-19 -0.0153585)
(-4.97733e-19 -6.14289e-19 -0.0153682)
(-8.37022e-19 -3.08996e-19 -0.0153771)
(-8.18671e-19 -6.1728e-19 -0.0153853)
(-1.02848e-18 -3.71082e-19 -0.0153926)
(-9.24062e-19 -3.70297e-19 -0.0153992)
(-4.34851e-19 -7.59924e-19 -0.015405)
(-7.34178e-19 -3.53852e-19 -0.0154099)
(-1.04127e-18 -2.29673e-19 -0.0151532)
(-1.13732e-18 7.44784e-21 -0.015171)
(-1.0439e-18 -1.46713e-19 -0.0151882)
(-9.22707e-19 -4.81171e-20 -0.0152048)
(-6.81956e-19 6.11882e-20 -0.0152209)
(-2.94099e-19 8.33817e-20 -0.0152363)
(-1.22698e-19 -6.22208e-19 -0.0152511)
(-5.51648e-19 -2.51895e-19 -0.0152652)
(-8.18555e-19 -3.07203e-19 -0.0152787)
(-7.54499e-19 -2.87718e-19 -0.0152914)
(-5.25671e-19 -4.87705e-19 -0.0153034)
(-1.74913e-19 -6.80798e-19 -0.0153148)
(-1.7982e-19 -4.56236e-19 -0.0153253)
(-3.64011e-19 -8.21029e-19 -0.0153351)
(-8.73779e-19 -1.4427e-19 -0.0153441)
(-8.9369e-19 -6.19962e-19 -0.0153524)
(-9.88279e-19 -6.2254e-19 -0.0153598)
(-1.06137e-18 -7.35643e-19 -0.0153665)
(-4.58969e-19 -1.12954e-18 -0.0153723)
(-4.47757e-19 -9.15332e-19 -0.0153773)
(-6.83026e-19 -2.88746e-19 -0.0153815)
(-4.6537e-19 -1.77851e-19 -0.0153849)
(-9.22266e-19 -6.64016e-19 -0.0153874)
(-7.6589e-19 -1.47265e-18 -0.0153891)
(-9.50499e-19 -3.39338e-19 -0.015118)
(-1.11865e-18 1.90518e-20 -0.0151359)
(-1.08834e-18 -1.46473e-19 -0.0151533)
(-9.89886e-19 -3.25896e-21 -0.0151701)
(-7.81458e-19 5.01945e-20 -0.0151863)
(-4.92433e-19 -1.00692e-19 -0.0152018)
(-1.19666e-19 -7.43129e-19 -0.0152168)
(-2.93355e-19 -3.34464e-19 -0.015231)
(-7.62925e-19 -3.2477e-19 -0.0152446)
(-8.08799e-19 -4.09999e-19 -0.0152575)
(-6.30164e-19 -6.79224e-19 -0.0152696)
(-2.27886e-19 -7.3415e-19 -0.0152811)
(-1.81389e-19 -7.24451e-19 -0.0152917)
(-1.16293e-19 -1.13673e-18 -0.0153016)
(-7.11993e-19 -2.22618e-19 -0.0153107)
(-1.07464e-18 -5.40926e-19 -0.0153191)
(-1.04256e-18 -7.12323e-19 -0.0153266)
(-1.19265e-18 -8.35566e-19 -0.0153333)
(-5.63645e-19 -9.72136e-19 -0.0153392)
(-3.1716e-19 -4.39102e-19 -0.0153443)
(-5.79957e-19 -4.63642e-19 -0.0153485)
(-5.86864e-19 -7.12085e-19 -0.0153519)
(-1.1121e-18 -1.2142e-18 -0.0153545)
(-8.16897e-19 -1.28788e-18 -0.0153562)
(-3.5676e-19 -1.05305e-18 -0.015357)
(-2.64193e-18 -5.48203e-19 -0.015357)
(-4.2456e-18 -3.25594e-19 -0.0153562)
(-2.78658e-18 -5.10207e-19 -0.0153545)
(-2.36279e-18 -5.87074e-19 -0.0153519)
(-9.56778e-19 -2.69717e-19 -0.0150825)
(-1.02646e-18 1.15095e-20 -0.0151006)
(-1.17578e-18 -3.7035e-20 -0.015118)
(-1.02683e-18 8.86451e-20 -0.015135)
(-9.46189e-19 2.14883e-19 -0.0151513)
(-8.12135e-19 7.23982e-20 -0.015167)
(-3.6363e-19 -4.18613e-19 -0.0151821)
(-2.53094e-19 -1.76586e-19 -0.0151964)
(-7.15572e-19 -4.09246e-19 -0.0152101)
(-8.65172e-19 -5.88322e-19 -0.0152231)
(-7.17405e-19 -7.80105e-19 -0.0152354)
(-2.79783e-19 -7.19039e-19 -0.015247)
(-2.91507e-19 -7.74918e-19 -0.0152577)
(-1.47976e-20 -9.87313e-19 -0.0152677)
(-4.13954e-19 -4.71149e-19 -0.0152769)
(-1.16786e-18 -3.31089e-19 -0.0152854)
(-1.15119e-18 -6.56308e-19 -0.015293)
(-1.31308e-18 -5.71208e-19 -0.0152997)
(-4.73535e-19 -4.11363e-19 -0.0153057)
(-3.35836e-19 7.26539e-20 -0.0153108)
(-7.91628e-19 -4.63001e-19 -0.0153151)
(-7.74445e-19 -5.89907e-19 -0.0153185)
(-1.18054e-18 -1.20042e-18 -0.0153211)
(-7.39979e-19 -8.60581e-19 -0.0153228)
(-2.84519e-19 -8.2268e-19 -0.0153237)
(-2.59651e-18 -7.18586e-19 -0.0153237)
(-4.22091e-18 -4.45167e-19 -0.0153228)
(-2.81549e-18 3.12584e-20 -0.0153211)
(-2.40804e-18 -3.03345e-19 -0.0153185)
(-3.64558e-18 -8.84995e-20 -0.0153151)
(-3.43505e-18 -4.26249e-19 -0.0153108)
(-3.31545e-18 -8.04629e-19 -0.0153057)
(-1.09408e-18 -4.70888e-21 -0.0150466)
(-8.74039e-19 -1.28086e-19 -0.0150648)
(-1.20798e-18 9.68092e-20 -0.0150825)
(-1.13958e-18 3.1937e-19 -0.0150995)
(-9.92042e-19 3.36584e-19 -0.015116)
(-9.8335e-19 4.18536e-20 -0.0151318)
(-5.82377e-19 -2.49126e-19 -0.015147)
(-2.93422e-19 -1.33737e-19 -0.0151615)
(-7.32967e-19 -5.54932e-19 -0.0151753)
(-9.14392e-19 -6.57093e-19 -0.0151884)
(-8.18598e-19 -7.07741e-19 -0.0152008)
(-3.34274e-19 -6.62969e-19 -0.0152125)
(-3.40962e-19 -7.21986e-19 -0.0152233)
(-1.15975e-19 -5.44519e-19 -0.0152334)
(-1.18793e-19 -9.01033e-19 -0.0152427)
(-1.12728e-18 -3.82616e-19 -0.0152512)
(-1.16987e-18 -7.84025e-19 -0.0152589)
(-1.31129e-18 -1.79339e-19 -0.0152658)
(-4.90785e-19 -1.31092e-19 -0.0152718)
(-3.56425e-19 -1.8262e-19 -0.0152769)
(-8.7139e-19 -5.02074e-19 -0.0152813)
(-9.51372e-19 -3.97218e-19 -0.0152847)
(-1.28177e-18 -9.34437e-19 -0.0152873)
(-6.96406e-19 -7.06438e-19 -0.0152891)
(-3.00626e-19 -9.25791e-19 -0.0152899)
(-2.59532e-18 -7.3654e-19 -0.0152899)
(-4.06317e-18 -5.33696e-19 -0.0152891)
(-2.71843e-18 5.73519e-19 -0.0152873)
(-2.50833e-18 8.93922e-20 -0.0152847)
(-3.65007e-18 2.22288e-19 -0.0152813)
(-3.48308e-18 4.81931e-19 -0.0152769)
(-3.7683e-18 3.87944e-19 -0.0152718)
(-3.43355e-18 -2.09837e-18 -0.0152658)
(-9.03656e-18 8.82676e-19 -0.0152589)
(-1.31927e-18 1.56225e-19 -0.0150104)
(-8.09414e-19 -2.32385e-19 -0.0150288)
(-1.03731e-18 1.4564e-19 -0.0150465)
(-1.19538e-18 4.54449e-19 -0.0150637)
(-1.0019e-18 2.48583e-20 -0.0150803)
(-1.03317e-18 -2.11398e-19 -0.0150962)
(-7.00456e-19 -2.27039e-19 -0.0151115)
(-3.00801e-19 -3.03755e-19 -0.0151262)
(-7.02481e-19 -7.17896e-19 -0.0151401)
(-9.13568e-19 -6.85815e-19 -0.0151533)
(-9.08672e-19 -6.17068e-19 -0.0151658)
(-4.37586e-19 -5.22279e-19 -0.0151776)
(-3.11584e-19 -6.32848e-19 -0.0151885)
(-2.86794e-19 -3.58458e-19 -0.0151987)
(-2.70072e-20 -1.27113e-18 -0.0152081)
(-9.16575e-19 -7.9662e-19 -0.0152167)
(-1.04241e-18 -9.17052e-19 -0.0152244)
(-1.17912e-18 -3.18242e-19 -0.0152314)
(-5.97927e-19 -2.17099e-19 -0.0152374)
(-4.16438e-19 -4.70739e-19 -0.0152426)
(-8.39081e-19 -7.66354e-19 -0.015247)
(-9.73372e-19 -6.33966e-19 -0.0152505)
(-1.38199e-18 -8.3555e-19 -0.0152531)
(-7.71597e-19 -8.36635e-19 -0.0152549)
(-3.05734e-19 -9.91489e-19 -0.0152558)
(-2.54673e-18 -8.4014e-19 -0.0152558)
(-3.78999e-18 -5.24003e-19 -0.0152549)
(-2.55887e-18 8.79798e-19 -0.0152531)
(-2.65577e-18 4.96521e-19 -0.0152505)
(-3.61943e-18 4.47993e-19 -0.015247)
(-3.38458e-18 8.47168e-19 -0.0152426)
(-4.28457e-18 1.41465e-18 -0.0152374)
(-3.7266e-18 -1.21113e-18 -0.0152314)
(-1.21664e-17 1.24619e-18 -0.0152244)
(-1.46969e-18 1.78186e-19 -0.0149739)
(-9.25897e-19 -2.07175e-19 -0.0149923)
(-8.60275e-19 1.29641e-19 -0.0150102)
(-1.1779e-18 2.86293e-19 -0.0150275)
(-9.05702e-19 -4.44965e-19 -0.0150442)
(-1.01582e-18 -3.12615e-19 -0.0150603)
(-8.13128e-19 -2.46676e-19 -0.0150757)
(-3.67549e-19 -4.56591e-19 -0.0150905)
(-6.899e-19 -7.98459e-19 -0.0151045)
(-8.42757e-19 -7.29123e-19 -0.0151179)
(-9.2952e-19 -5.09077e-19 -0.0151305)
(-5.16505e-19 -4.37153e-19 -0.0151423)
(-3.07997e-19 -6.60823e-19 -0.0151534)
(-4.39161e-19 -4.93951e-19 -0.0151637)
(-1.14856e-19 -1.37414e-18 -0.0151731)
(-7.21337e-19 -1.1238e-18 -0.0151818)
(-9.21249e-19 -1.09466e-18 -0.0151896)
(-9.58923e-19 -9.57837e-19 -0.0151966)
(-5.36924e-19 -8.11606e-19 -0.0152027)
(-5.31868e-19 -6.33828e-19 -0.015208)
(-8.62532e-19 -1.07919e-18 -0.0152124)
(-9.27129e-19 -1.15883e-18 -0.0152159)
(-1.42056e-18 -8.82999e-19 -0.0152185)
(-7.97076e-19 -8.98817e-19 -0.0152203)
(-3.13922e-19 -9.42201e-19 -0.0152212)
(-2.51685e-18 -1.28416e-18 -0.0152212)
(-3.45085e-18 -3.55333e-19 -0.0152203)
(-2.34901e-18 7.23451e-19 -0.0152185)
(-2.8197e-18 6.58698e-19 -0.0152159)
(-3.67068e-18 4.40188e-19 -0.0152124)
(-3.22427e-18 1.06099e-18 -0.015208)
(-4.67821e-18 1.59915e-18 -0.0152027)
(-4.30098e-18 7.5199e-20 -0.0151966)
(-1.78269e-17 1.73036e-18 -0.0151896)
(-1.46781e-18 1.21707e-19 -0.014937)
(-1.08289e-18 -1.43045e-19 -0.0149556)
(-7.75303e-19 1.18922e-19 -0.0149736)
(-1.20494e-18 1.00664e-19 -0.014991)
(-1.00769e-18 -5.18176e-19 -0.0150079)
(-9.91554e-19 -2.50923e-19 -0.0150241)
(-9.05117e-19 -2.77028e-19 -0.0150396)
(-4.77847e-19 -5.03184e-19 -0.0150545)
(-7.483e-19 -7.01548e-19 -0.0150686)
(-7.48081e-19 -7.89721e-19 -0.0150821)
(-9.04135e-19 -5.07917e-19 -0.0150948)
(-6.18898e-19 -4.62222e-19 -0.0151067)
(-3.54931e-19 -6.01214e-19 -0.0151178)
(-5.32975e-19 -6.618e-19 -0.0151282)
(-2.32339e-19 -1.37647e-18 -0.0151378)
(-6.20044e-19 -1.30005e-18 -0.0151465)
(-9.23778e-19 -1.23559e-18 -0.0151544)
(-9.54448e-19 -1.32937e-18 -0.0151614)
(-3.73938e-19 -1.16666e-18 -0.0151676)
(-5.04404e-19 -5.99688e-19 -0.0151729)
(-9.99268e-19 -1.22567e-18 -0.0151773)
(-8.57432e-19 -1.12933e-18 -0.0151809)
(-1.32137e-18 -8.47807e-19 -0.0151836)
(-8.47057e-19 -5.0069e-19 -0.0151853)
(-4.8075e-19 -8.58808e-19 -0.0151862)
(-2.41995e-18 -1.52885e-18 -0.0151862)
(-3.04564e-18 1.17589e-19 -0.0151853)
(-2.2485e-18 3.89774e-19 -0.0151836)
(-2.96206e-18 5.00843e-19 -0.0151809)
(-3.64343e-18 3.48402e-19 -0.0151773)
(-3.09719e-18 1.32146e-18 -0.0151729)
(-4.95066e-18 1.55285e-18 -0.0151676)
(-4.8862e-18 1.59774e-18 -0.0151614)
(-2.26002e-17 5.96405e-18 -0.0151544)
(-1.45396e-18 5.7933e-20 -0.0148999)
(-1.18985e-18 -1.56538e-19 -0.0149186)
(-6.3287e-19 -6.7439e-20 -0.0149367)
(-1.12426e-18 -1.16965e-19 -0.0149542)
(-1.11622e-18 -4.36046e-19 -0.0149711)
(-1.03585e-18 -1.98514e-19 -0.0149875)
(-9.78206e-19 -3.94391e-19 -0.0150031)
(-6.0542e-19 -4.11148e-19 -0.0150181)
(-8.56913e-19 -5.93708e-19 -0.0150323)
(-7.81617e-19 -6.92017e-19 -0.0150459)
(-8.75517e-19 -3.96019e-19 -0.0150587)
(-6.16978e-19 -5.15257e-19 -0.0150707)
(-4.39439e-19 -5.38965e-19 -0.015082)
(-6.96541e-19 -7.86938e-19 -0.0150924)
(-3.81162e-19 -1.31916e-18 -0.015102)
(-5.92615e-19 -1.1933e-18 -0.0151108)
(-9.09397e-19 -1.24535e-18 -0.0151188)
(-1.01219e-18 -9.83574e-19 -0.0151258)
(-3.02118e-19 -7.071e-19 -0.0151321)
(-5.40194e-19 -4.73615e-19 -0.0151374)
(-1.05491e-18 -1.21757e-18 -0.0151419)
(-7.93336e-19 -1.0932e-18 -0.0151455)
(-1.21392e-18 -7.1254e-19 -0.0151482)
(-8.62477e-19 -6.53362e-20 -0.01515)
(-7.54451e-19 -7.09852e-19 -0.0151509)
(-2.21926e-18 -1.28693e-18 -0.0151509)
(-2.74669e-18 4.35497e-19 -0.01515)
(-2.3174e-18 2.77859e-19 -0.0151482)
(-3.04528e-18 4.52653e-19 -0.0151455)
(-3.47996e-18 6.55681e-19 -0.0151419)
(-2.9602e-18 1.47579e-18 -0.0151374)
(-4.88595e-18 1.81619e-18 -0.0151321)
(-4.19608e-18 2.8775e-18 -0.0151258)
(-1.68647e-17 8.34668e-18 -0.0151188)
(-1.29645e-18 -1.59472e-19 -0.0148624)
(-1.36715e-18 -1.99731e-19 -0.0148812)
(-5.8619e-19 -2.26777e-19 -0.0148994)
(-9.14269e-19 -4.3127e-19 -0.0149171)
(-1.10962e-18 -4.72252e-19 -0.0149341)
(-1.00904e-18 -3.08226e-19 -0.0149505)
(-1.03508e-18 -4.25132e-19 -0.0149663)
(-6.87117e-19 -3.04464e-19 -0.0149814)
(-9.13578e-19 -5.47165e-19 -0.0149957)
(-8.08788e-19 -4.94422e-19 -0.0150094)
(-1.02715e-18 -5.90627e-20 -0.0150223)
(-6.13194e-19 -8.55083e-19 -0.0150344)
(-4.39689e-19 -6.51203e-19 -0.0150457)
(-8.29889e-19 -7.64387e-19 -0.0150562)
(-4.98287e-19 -1.04127e-18 -0.0150659)
(-6.42134e-19 -8.92691e-19 -0.0150748)
(-8.74391e-19 -1.05498e-18 -0.0150828)
(-9.35252e-19 -7.15907e-19 -0.0150899)
(-3.49754e-19 -2.32792e-19 -0.0150962)
(-6.60798e-19 -5.67359e-19 -0.0151016)
(-1.28433e-18 -8.31219e-19 -0.0151061)
(-6.68037e-19 -1.26383e-18 -0.0151097)
(-9.5067e-19 -6.90172e-19 -0.0151125)
(-8.84601e-19 -7.15425e-20 -0.0151143)
(-9.93607e-19 -5.74378e-19 -0.0151152)
(-2.04483e-18 -8.12506e-19 -0.0151152)
(-2.52859e-18 1.56048e-19 -0.0151143)
(-2.36121e-18 2.93639e-19 -0.0151125)
(-2.9885e-18 5.67636e-19 -0.0151097)
(-3.29148e-18 1.23866e-18 -0.0151061)
(-2.8726e-18 1.61223e-18 -0.0151016)
(-4.58394e-18 2.2719e-18 -0.0150962)
(-3.44422e-18 3.80225e-18 -0.0150899)
(-1.16327e-17 7.4008e-18 -0.0150828)
(-1.03916e-18 -4.86479e-19 -0.0148246)
(-1.46287e-18 -1.54295e-19 -0.0148435)
(-7.63016e-19 -2.10112e-19 -0.0148618)
(-7.79948e-19 -6.59438e-19 -0.0148796)
(-1.10948e-18 -3.75981e-19 -0.0148967)
(-9.48792e-19 -4.29973e-19 -0.0149133)
(-1.06466e-18 -4.07214e-19 -0.0149291)
(-7.64009e-19 -2.52152e-19 -0.0149443)
(-1.05332e-18 -3.0872e-19 -0.0149588)
(-8.18952e-19 -1.25621e-19 -0.0149725)
(-1.27833e-18 2.63332e-19 -0.0149855)
(-8.35103e-19 -8.23545e-19 -0.0149977)
(-3.51216e-19 -6.47076e-19 -0.0150091)
(-8.77969e-19 -6.82629e-19 -0.0150197)
(-5.98974e-19 -7.70168e-19 -0.0150295)
(-6.90659e-19 -6.61374e-19 -0.0150384)
(-9.88155e-19 -5.4179e-19 -0.0150465)
(-8.52717e-19 -4.94013e-19 -0.0150537)
(-3.6713e-19 -2.43824e-20 -0.01506)
(-6.86959e-19 -6.81872e-19 -0.0150654)
(-1.43652e-18 -3.6266e-19 -0.01507)
(-7.89319e-19 -9.6257e-19 -0.0150736)
(-7.63669e-19 -6.53264e-19 -0.0150763)
(-8.21512e-19 -3.06821e-19 -0.0150782)
(-1.07205e-18 -4.50338e-19 -0.0150791)
(-2.00732e-18 -4.73503e-19 -0.0150791)
(-2.43621e-18 6.7444e-20 -0.0150782)
(-2.27586e-18 2.44792e-19 -0.0150763)
(-2.83036e-18 6.38284e-19 -0.0150736)
(-3.12938e-18 1.47438e-18 -0.01507)
(-2.76976e-18 1.819e-18 -0.0150654)
(-4.15068e-18 2.66993e-18 -0.01506)
(-2.93447e-18 4.54849e-18 -0.0150537)
(-8.7199e-18 6.19332e-18 -0.0150465)
(-9.2004e-19 -5.20093e-19 -0.0147865)
(-1.43768e-18 -1.36787e-19 -0.0148055)
(-8.69745e-19 -3.68897e-19 -0.0148239)
(-8.25999e-19 -5.61003e-19 -0.0148418)
(-1.14287e-18 -2.31073e-19 -0.0148591)
(-1.00178e-18 -4.12779e-19 -0.0148757)
(-1.05813e-18 -3.70951e-19 -0.0148916)
(-8.23477e-19 3.06199e-20 -0.0149069)
(-1.1191e-18 3.17302e-21 -0.0149215)
(-8.68841e-19 2.65696e-19 -0.0149353)
(-1.32647e-18 6.43212e-20 -0.0149484)
(-1.2518e-18 -4.0458e-19 -0.0149607)
(-4.41127e-19 -4.73928e-19 -0.0149721)
(-8.46574e-19 -7.76066e-19 -0.0149828)
(-5.80445e-19 -7.9956e-19 -0.0149927)
(-5.99505e-19 -5.73057e-19 -0.0150016)
(-1.01882e-18 -1.06034e-19 -0.0150098)
(-9.26664e-19 -8.41773e-20 -0.015017)
(-4.78107e-19 1.01064e-19 -0.0150234)
(-7.14932e-19 -6.18397e-19 -0.0150289)
(-1.46774e-18 -3.0104e-19 -0.0150335)
(-8.73434e-19 -7.75482e-19 -0.0150371)
(-7.21259e-19 -5.07892e-19 -0.0150399)
(-7.98993e-19 -4.16081e-19 -0.0150417)
(-1.08676e-18 -2.70883e-19 -0.0150426)
(-1.92379e-18 -3.21868e-19 -0.0150426)
(-2.35411e-18 2.71534e-19 -0.0150417)
(-2.2471e-18 3.76875e-19 -0.0150399)
(-2.6636e-18 7.31688e-19 -0.0150371)
(-2.94709e-18 1.5532e-18 -0.0150335)
(-2.60333e-18 1.92917e-18 -0.0150289)
(-3.6624e-18 2.90194e-18 -0.0150234)
(-2.66464e-18 4.8607e-18 -0.015017)
(-7.01723e-18 5.30647e-18 -0.0150098)
(-8.77328e-19 -3.68981e-19 -0.0147481)
(-1.36702e-18 -3.07463e-19 -0.0147672)
(-9.55473e-19 -4.27087e-19 -0.0147857)
(-9.27109e-19 -2.39716e-19 -0.0148037)
(-1.14692e-18 -1.77036e-19 -0.0148211)
(-1.11182e-18 -2.82196e-19 -0.0148378)
(-1.03127e-18 -2.69675e-19 -0.0148538)
(-7.54998e-19 1.52002e-20 -0.0148692)
(-1.18543e-18 1.68804e-19 -0.0148839)
(-9.25011e-19 2.82297e-19 -0.0148978)
(-1.25152e-18 -3.32638e-19 -0.0149109)
(-1.42952e-18 -9.5072e-20 -0.0149233)
(-7.19773e-19 -8.17617e-20 -0.0149349)
(-9.22479e-19 -8.90298e-19 -0.0149456)
(-5.5663e-19 -7.75462e-19 -0.0149555)
(-4.14348e-19 -5.79541e-19 -0.0149646)
(-9.06268e-19 -1.65274e-20 -0.0149727)
(-9.32937e-19 1.63448e-20 -0.01498)
(-5.19889e-19 -3.85014e-19 -0.0149865)
(-8.02666e-19 -4.79288e-19 -0.014992)
(-1.50585e-18 -4.42745e-19 -0.0149966)
(-9.33836e-19 -7.9376e-19 -0.0150003)
(-6.48824e-19 -5.13755e-19 -0.0150031)
(-7.35195e-19 -3.58151e-19 -0.0150049)
(-1.06672e-18 -2.50643e-19 -0.0150058)
(-1.87948e-18 -4.39006e-20 -0.0150058)
(-2.26426e-18 3.70111e-19 -0.0150049)
(-2.16944e-18 8.75011e-19 -0.0150031)
(-2.5189e-18 8.21788e-19 -0.0150003)
(-2.78449e-18 1.73688e-18 -0.0149966)
(-2.44646e-18 1.94851e-18 -0.014992)
(-3.1915e-18 3.07915e-18 -0.0149865)
(-2.63699e-18 4.50027e-18 -0.01498)
(-5.86366e-18 4.80175e-18 -0.0149727)
(-7.70685e-19 -4.35814e-19 -0.0147094)
(-1.31721e-18 -3.73606e-19 -0.0147286)
(-1.02039e-18 -3.22744e-19 -0.0147472)
(-1.00496e-18 -6.19237e-20 -0.0147653)
(-1.209e-18 -9.24377e-20 -0.0147828)
(-1.15287e-18 -2.61339e-19 -0.0147996)
(-1.23937e-18 3.6911e-20 -0.0148157)
(-5.24423e-19 -2.66365e-19 -0.0148312)
(-1.11311e-18 2.35004e-19 -0.0148459)
(-9.28288e-19 -1.05826e-20 -0.0148599)
(-1.21528e-18 -4.35526e-19 -0.0148732)
(-1.46332e-18 1.68345e-19 -0.0148856)
(-9.82036e-19 1.30055e-19 -0.0148972)
(-1.09611e-18 -8.51702e-19 -0.0149081)
(-6.25571e-19 -4.26064e-19 -0.014918)
(-3.00886e-19 -5.16607e-19 -0.0149271)
(-7.75527e-19 -6.84778e-20 -0.0149354)
(-1.09385e-18 -1.45924e-19 -0.0149427)
(-5.07106e-19 -9.16389e-19 -0.0149492)
(-7.39824e-19 -1.9449e-19 -0.0149547)
(-1.56828e-18 -6.60554e-19 -0.0149594)
(-9.7779e-19 -5.09253e-19 -0.0149631)
(-5.74453e-19 -4.67673e-19 -0.0149659)
(-7.05294e-19 -3.62638e-19 -0.0149678)
(-9.95329e-19 -6.63474e-19 -0.0149687)
(-1.77418e-18 3.03944e-20 -0.0149687)
(-2.10679e-18 4.77226e-19 -0.0149678)
(-2.12744e-18 1.19667e-18 -0.0149659)
(-2.48264e-18 6.86393e-19 -0.0149631)
(-2.61457e-18 1.95681e-18 -0.0149594)
(-2.27237e-18 1.99569e-18 -0.0149547)
(-2.86798e-18 3.24529e-18 -0.0149492)
(-2.66593e-18 4.06148e-18 -0.0149427)
(-4.7702e-18 4.75445e-18 -0.0149354)
(9.26217e-19 9.676e-18 -0.0149271)
(-6.13587e-19 -5.50101e-19 -0.0146704)
(-1.26097e-18 -3.65132e-19 -0.0146897)
(-1.01932e-18 -3.41198e-19 -0.0147084)
(-9.85071e-19 3.11178e-20 -0.0147266)
(-1.22181e-18 -1.33083e-19 -0.0147442)
(-1.09023e-18 -2.66393e-19 -0.0147611)
(-1.47506e-18 3.53689e-19 -0.0147773)
(-6.26698e-19 -1.98505e-19 -0.0147929)
(-9.76052e-19 2.7017e-20 -0.0148077)
(-9.25885e-19 -2.6917e-19 -0.0148218)
(-1.10149e-18 -4.11752e-19 -0.0148351)
(-1.41944e-18 2.75558e-19 -0.0148476)
(-1.1269e-18 -7.83322e-20 -0.0148593)
(-1.23227e-18 -6.62464e-19 -0.0148702)
(-7.01259e-19 -1.07854e-19 -0.0148802)
(-2.87041e-19 -4.79466e-19 -0.0148894)
(-6.3982e-19 -3.53216e-19 -0.0148977)
(-1.18827e-18 -4.27707e-19 -0.0149051)
(-5.41239e-19 -5.38177e-19 -0.0149116)
(-7.29592e-19 7.9921e-20 -0.0149172)
(-1.6267e-18 -5.62434e-19 -0.0149218)
(-9.95378e-19 3.9626e-20 -0.0149256)
(-6.12288e-19 -3.62278e-19 -0.0149284)
(-7.99425e-19 -4.61633e-19 -0.0149303)
(-9.42198e-19 -1.1793e-18 -0.0149312)
(-1.55318e-18 -2.10148e-19 -0.0149312)
(-1.94723e-18 1.26787e-19 -0.0149303)
(-2.18613e-18 8.8449e-19 -0.0149284)
(-2.40542e-18 3.79379e-19 -0.0149256)
(-2.39812e-18 2.00511e-18 -0.0149218)
(-2.13045e-18 1.98493e-18 -0.0149172)
(-2.6375e-18 3.1244e-18 -0.0149116)
(-2.58723e-18 3.92074e-18 -0.0149051)
(-3.84154e-18 4.71371e-18 -0.0148977)
(7.85039e-19 8.68376e-18 -0.0148894)
(-6.23912e-19 -4.6558e-19 -0.0146311)
(-1.1541e-18 -4.06284e-19 -0.0146505)
(-9.32004e-19 -4.26272e-19 -0.0146694)
(-9.87324e-19 7.28103e-20 -0.0146876)
(-1.18788e-18 -2.94434e-19 -0.0147052)
(-9.64732e-19 -2.62083e-19 -0.0147222)
(-1.36871e-18 1.27933e-19 -0.0147386)
(-8.51594e-19 -3.63914e-21 -0.0147542)
(-8.73309e-19 -2.6801e-19 -0.0147691)
(-9.86144e-19 -2.12194e-19 -0.0147833)
(-9.93894e-19 -3.93727e-19 -0.0147967)
(-1.35027e-18 1.20274e-19 -0.0148093)
(-1.1798e-18 -3.54832e-19 -0.014821)
(-1.31792e-18 -3.26523e-19 -0.014832)
(-8.17046e-19 1.59462e-19 -0.0148421)
(-3.8049e-19 -4.99657e-19 -0.0148513)
(-5.55005e-19 -6.70154e-19 -0.0148596)
(-1.08263e-18 -6.86174e-19 -0.0148671)
(-4.98046e-19 -9.05251e-20 -0.0148736)
(-7.12249e-19 -4.24397e-20 -0.0148793)
(-1.65663e-18 -1.6409e-19 -0.014884)
(-1.05694e-18 5.66273e-19 -0.0148877)
(-7.68635e-19 -2.34608e-19 -0.0148906)
(-9.96062e-19 -3.42981e-19 -0.0148924)
(-9.29012e-19 -1.17131e-18 -0.0148934)
(-1.39043e-18 -3.65586e-19 -0.0148934)
(-1.83573e-18 -1.59439e-19 -0.0148924)
(-2.17465e-18 4.98744e-19 -0.0148906)
(-2.2399e-18 1.62351e-19 -0.0148877)
(-2.18496e-18 1.66055e-18 -0.014884)
(-2.03977e-18 1.85048e-18 -0.0148793)
(-2.46767e-18 2.64034e-18 -0.0148736)
(-2.43733e-18 3.89327e-18 -0.0148671)
(-3.14545e-18 4.30459e-18 -0.0148596)
(5.21243e-19 7.53339e-18 -0.0148513)
(-7.0998e-19 -2.07805e-19 -0.0145916)
(-1.22665e-18 -3.11466e-19 -0.0146111)
(-8.55922e-19 -4.82964e-19 -0.01463)
(-8.94228e-19 2.04303e-20 -0.0146483)
(-1.25235e-18 -3.11452e-19 -0.014666)
(-9.29829e-19 -2.85714e-19 -0.0146831)
(-1.15731e-18 -2.01611e-19 -0.0146996)
(-1.04456e-18 2.23072e-19 -0.0147153)
(-8.74085e-19 -3.2419e-19 -0.0147303)
(-1.04846e-18 -5.38834e-20 -0.0147445)
(-9.36824e-19 -4.57336e-19 -0.014758)
(-1.29688e-18 -2.01213e-20 -0.0147706)
(-1.20393e-18 -3.5315e-19 -0.0147825)
(-1.3494e-18 1.48196e-19 -0.0147935)
(-9.66655e-19 3.09698e-19 -0.0148036)
(-5.89665e-19 -4.23419e-19 -0.0148129)
(-6.2185e-19 -4.54441e-19 -0.0148213)
(-9.70347e-19 -6.2845e-19 -0.0148288)
(-4.47999e-19 8.8973e-20 -0.0148354)
(-6.42278e-19 -3.16754e-19 -0.014841)
(-1.49464e-18 -1.12563e-20 -0.0148457)
(-1.13971e-18 8.26144e-19 -0.0148495)
(-9.4409e-19 -1.79412e-19 -0.0148524)
(-1.1452e-18 -2.10567e-19 -0.0148543)
(-9.85352e-19 -7.2802e-19 -0.0148552)
(-1.26511e-18 -1.75174e-19 -0.0148552)
(-1.73832e-18 8.12631e-20 -0.0148543)
(-2.18587e-18 5.31392e-19 -0.0148524)
(-2.11045e-18 1.91264e-19 -0.0148495)
(-1.99843e-18 1.22581e-18 -0.0148457)
(-1.96151e-18 1.73817e-18 -0.014841)
(-2.22812e-18 2.32885e-18 -0.0148354)
(-2.27456e-18 3.75386e-18 -0.0148288)
(-2.75358e-18 3.70386e-18 -0.0148213)
(-6.31052e-19 -8.39038e-20 -0.0145517)
(-1.25549e-18 -3.40028e-19 -0.0145713)
(-9.19619e-19 -4.57988e-19 -0.0145903)
(-7.63948e-19 -8.76966e-20 -0.0146087)
(-1.28095e-18 -3.22447e-19 -0.0146266)
(-1.00621e-18 -1.96256e-19 -0.0146437)
(-1.0353e-18 -2.11928e-19 -0.0146602)
(-1.12024e-18 3.73107e-19 -0.014676)
(-9.34553e-19 -3.34101e-19 -0.0146911)
(-1.10688e-18 -2.38161e-20 -0.0147054)
(-9.36347e-19 -4.5634e-19 -0.0147189)
(-1.25297e-18 -1.33951e-20 -0.0147317)
(-1.16433e-18 -2.45713e-19 -0.0147436)
(-1.29026e-18 2.02168e-19 -0.0147546)
(-1.07371e-18 1.29684e-19 -0.0147648)
(-7.20037e-19 -2.30481e-19 -0.0147742)
(-7.396e-19 3.00063e-20 -0.0147826)
(-9.64081e-19 -4.46448e-19 -0.0147901)
(-4.42489e-19 1.08962e-19 -0.0147968)
(-6.30764e-19 -4.86589e-19 -0.0148025)
(-1.27292e-18 -1.96999e-19 -0.0148072)
(-1.13478e-18 3.44746e-19 -0.014811)
(-1.13525e-18 -1.9867e-19 -0.0148139)
(-1.21033e-18 -2.1944e-19 -0.0148158)
(-9.60138e-19 -3.31404e-19 -0.0148168)
(-1.16586e-18 -3.0653e-20 -0.0148168)
(-1.66404e-18 3.26655e-19 -0.0148158)
(-2.21942e-18 6.01834e-19 -0.0148139)
(-2.05206e-18 4.63303e-19 -0.014811)
(-1.81406e-18 1.09931e-18 -0.0148072)
(-1.81178e-18 1.72381e-18 -0.0148025)
(-2.00482e-18 2.19761e-18 -0.0147968)
(-2.24316e-18 3.46333e-18 -0.0147901)
(-2.40852e-18 3.26055e-18 -0.0147826)
(-5.18455e-19 -1.43037e-19 -0.0145116)
(-1.00651e-18 -7.09582e-19 -0.0145313)
(-9.69219e-19 -4.0971e-19 -0.0145504)
(-7.10073e-19 -1.06647e-19 -0.0145689)
(-1.25381e-18 -3.25051e-19 -0.0145868)
(-1.07911e-18 -7.766e-20 -0.014604)
(-9.40533e-19 -2.54741e-19 -0.0146206)
(-1.13797e-18 3.07593e-19 -0.0146365)
(-9.47426e-19 -4.50063e-19 -0.0146516)
(-1.10391e-18 -4.38218e-20 -0.014666)
(-9.57669e-19 -3.71653e-19 -0.0146796)
(-1.20631e-18 -4.82457e-20 -0.0146924)
(-1.19884e-18 -1.63475e-19 -0.0147044)
(-1.16756e-18 -1.15052e-19 -0.0147155)
(-1.0412e-18 -1.57708e-19 -0.0147258)
(-6.96706e-19 -2.19477e-19 -0.0147351)
(-7.72977e-19 3.44058e-20 -0.0147436)
(-1.00009e-18 -4.42764e-19 -0.0147512)
(-4.49753e-19 -5.18513e-20 -0.0147579)
(-6.60093e-19 -5.93272e-19 -0.0147636)
(-1.19882e-18 -1.94758e-19 -0.0147684)
(-1.08074e-18 -1.83301e-19 -0.0147722)
(-1.157e-18 -1.56973e-19 -0.0147751)
(-1.22603e-18 -1.09547e-19 -0.014777)
(-9.63022e-19 7.72125e-20 -0.014778)
(-1.09496e-18 -2.39829e-19 -0.014778)
(-1.5978e-18 4.78941e-19 -0.014777)
(-2.24182e-18 3.76358e-19 -0.0147751)
(-1.9614e-18 7.28729e-19 -0.0147722)
(-1.68463e-18 9.77985e-19 -0.0147684)
(-1.71119e-18 1.75901e-18 -0.0147636)
(-1.82836e-18 2.10912e-18 -0.0147579)
(-2.19186e-18 3.17499e-18 -0.0147512)
(-2.15078e-18 3.21954e-18 -0.0147436)
(-5.22806e-19 -2.47588e-19 -0.0144712)
(-7.43312e-19 -1.0688e-18 -0.014491)
(-9.99636e-19 -2.11681e-19 -0.0145101)
(-7.48866e-19 1.4445e-20 -0.0145287)
(-1.20937e-18 -3.54465e-19 -0.0145467)
(-1.1371e-18 -6.51742e-20 -0.014564)
(-8.74565e-19 -2.7428e-19 -0.0145807)
(-1.18178e-18 3.81458e-19 -0.0145966)
(-1.12338e-18 -1.71032e-19 -0.0146119)
(-1.10878e-18 1.17089e-20 -0.0146263)
(-9.99162e-19 -2.86001e-19 -0.01464)
(-1.1147e-18 -1.7756e-19 -0.0146528)
(-1.27377e-18 -9.38913e-21 -0.0146649)
(-1.16248e-18 -2.95316e-19 -0.0146761)
(-1.04805e-18 -2.72339e-19 -0.0146864)
(-6.69617e-19 -2.64129e-19 -0.0146958)
(-7.00308e-19 -3.46024e-19 -0.0147043)
(-1.00274e-18 -5.03331e-19 -0.0147119)
(-4.33852e-19 -3.081e-19 -0.0147186)
(-6.45489e-19 -4.39641e-19 -0.0147244)
(-1.17178e-18 7.14844e-20 -0.0147292)
(-1.11038e-18 -8.28412e-20 -0.014733)
(-1.14504e-18 -8.87304e-20 -0.0147359)
(-1.17773e-18 -2.4721e-20 -0.0147379)
(-1.0377e-18 3.76797e-19 -0.0147388)
(-1.0819e-18 -4.90525e-19 -0.0147388)
(-1.53885e-18 5.17586e-19 -0.0147379)
(-2.26006e-18 1.20584e-19 -0.0147359)
(-1.89078e-18 7.14081e-19 -0.014733)
(-1.58164e-18 8.06737e-19 -0.0147292)
(-1.55279e-18 1.71642e-18 -0.0147244)
(-1.6709e-18 2.23386e-18 -0.0147186)
(-2.10569e-18 3.0429e-18 -0.0147119)
(-1.89913e-18 3.14769e-18 -0.0147043)
(-5.77423e-19 -3.36827e-19 -0.0144306)
(-6.36487e-19 -1.10428e-18 -0.0144504)
(-9.24298e-19 -4.74261e-20 -0.0144696)
(-7.25819e-19 -7.78118e-20 -0.0144883)
(-1.18098e-18 -4.08333e-19 -0.0145063)
(-1.131e-18 -8.98999e-20 -0.0145238)
(-9.64162e-19 7.5573e-20 -0.0145405)
(-1.06685e-18 3.07434e-19 -0.0145565)
(-1.32888e-18 1.31683e-19 -0.0145718)
(-1.20243e-18 4.78226e-20 -0.0145863)
(-1.02069e-18 -3.74935e-19 -0.0146001)
(-9.92696e-19 -3.55121e-19 -0.014613)
(-1.29322e-18 5.405e-21 -0.0146251)
(-1.21659e-18 -3.22565e-19 -0.0146363)
(-1.07381e-18 -1.92319e-19 -0.0146467)
(-7.73753e-19 -8.95154e-20 -0.0146561)
(-7.08518e-19 -4.60509e-19 -0.0146647)
(-9.9331e-19 -5.12206e-19 -0.0146724)
(-3.87146e-19 -3.92005e-19 -0.0146791)
(-5.65958e-19 -1.54188e-19 -0.0146849)
(-1.12913e-18 2.08101e-19 -0.0146897)
(-1.18384e-18 1.41367e-19 -0.0146936)
(-1.17237e-18 -5.17614e-20 -0.0146965)
(-1.11591e-18 -1.41783e-20 -0.0146984)
(-1.1404e-18 4.1096e-19 -0.0146994)
(-1.09138e-18 -5.20384e-19 -0.0146994)
(-1.49268e-18 2.537e-19 -0.0146984)
(-2.28593e-18 1.20632e-19 -0.0146965)
(-1.80051e-18 6.53963e-19 -0.0146936)
(-1.45239e-18 7.4821e-19 -0.0146897)
(-1.39966e-18 1.43471e-18 -0.0146849)
(-1.52743e-18 2.15269e-18 -0.0146791)
(-2.0311e-18 3.1444e-18 -0.0146724)
(-5.81837e-19 -5.12187e-19 -0.0143896)
(-6.77732e-19 -9.6363e-19 -0.0144095)
(-7.4788e-19 -1.62951e-19 -0.0144288)
(-4.90822e-19 -4.84611e-19 -0.0144476)
(-1.08604e-18 -4.85768e-19 -0.0144657)
(-1.02475e-18 -1.24722e-19 -0.0144832)