/*--------------------------------*- C++ -*----------------------------------*\
  =========                 |
  \\      /  F ield         | OpenFOAM: The Open Source CFD Toolbox
   \\    /   O peration     | Website:  https://openfoam.org
    \\  /    A nd           | Version:  7
     \\/     M anipulation  |
\*---------------------------------------------------------------------------*/
FoamFile
{
    version     2.0;
    format      ascii;
    class       volScalarField;
    location    "120000";
    object      k;
}
// * * * * * * * * * * * * * * * * * * * * * * * * * * * * * * * * * * * * * //

dimensions      [0 2 -2 0 0 0 0];

internalField   nonuniform List<scalar> 
4764
(
1.16691e-06
1.16566e-06
1.16452e-06
1.1635e-06
1.16259e-06
1.16181e-06
1.18692e-06
1.185e-06
1.18314e-06
1.18133e-06
1.17958e-06
1.1779e-06
1.1763e-06
1.17479e-06
1.17337e-06
1.17206e-06
1.17084e-06
1.16973e-06
1.16873e-06
1.16785e-06
1.16708e-06
1.16644e-06
1.16593e-06
1.16554e-06
1.16528e-06
1.16515e-06
1.16515e-06
1.16529e-06
1.16555e-06
1.16595e-06
1.16646e-06
1.1671e-06
1.16786e-06
1.16874e-06
1.16974e-06
1.19153e-06
1.18967e-06
1.18785e-06
1.18609e-06
1.18439e-06
1.18276e-06
1.1812e-06
1.17973e-06
1.17835e-06
1.17707e-06
1.17588e-06
1.1748e-06
1.17383e-06
1.17297e-06
1.17223e-06
1.1716e-06
1.1711e-06
1.17072e-06
1.17047e-06
1.17034e-06
1.17035e-06
1.17048e-06
1.17074e-06
1.17112e-06
1.17162e-06
1.17224e-06
1.17298e-06
1.17384e-06
1.17481e-06
1.17589e-06
1.17707e-06
1.17835e-06
1.17973e-06
1.196e-06
1.1942e-06
1.19243e-06
1.19072e-06
1.18906e-06
1.18748e-06
1.18596e-06
1.18454e-06
1.18319e-06
1.18194e-06
1.18079e-06
1.17974e-06
1.17879e-06
1.17796e-06
1.17723e-06
1.17662e-06
1.17613e-06
1.17576e-06
1.17552e-06
1.1754e-06
1.1754e-06
1.17553e-06
1.17578e-06
1.17615e-06
1.17665e-06
1.17725e-06
1.17797e-06
1.1788e-06
1.17975e-06
1.1808e-06
1.18195e-06
1.18319e-06
1.18453e-06
1.18597e-06
1.18748e-06
1.18906e-06
1.19071e-06
1.19242e-06
1.19419e-06
1.19599e-06
1.19782e-06
1.19967e-06
1.20153e-06
1.20338e-06
1.20522e-06
1.20033e-06
1.19858e-06
1.19687e-06
1.19521e-06
1.1936e-06
1.19206e-06
1.19059e-06
1.1892e-06
1.18789e-06
1.18668e-06
1.18556e-06
1.18454e-06
1.18362e-06
1.1828e-06
1.1821e-06
1.1815e-06
1.18103e-06
1.18067e-06
1.18043e-06
1.18032e-06
1.18032e-06
1.18044e-06
1.18069e-06
1.18105e-06
1.18153e-06
1.18212e-06
1.18282e-06
1.18363e-06
1.18454e-06
1.18557e-06
1.18668e-06
1.18789e-06
1.1892e-06
1.19059e-06
1.19206e-06
1.1936e-06
1.1952e-06
1.19686e-06
1.19857e-06
1.20032e-06
1.2021e-06
1.20389e-06
1.20569e-06
1.20748e-06
1.20925e-06
1.20453e-06
1.20283e-06
1.20117e-06
1.19955e-06
1.198e-06
1.1965e-06
1.19507e-06
1.19372e-06
1.19246e-06
1.19128e-06
1.19019e-06
1.1892e-06
1.1883e-06
1.18751e-06
1.18682e-06
1.18625e-06
1.18579e-06
1.18543e-06
1.1852e-06
1.18509e-06
1.18509e-06
1.18521e-06
1.18546e-06
1.18581e-06
1.18627e-06
1.18684e-06
1.18752e-06
1.18831e-06
1.1892e-06
1.19019e-06
1.19128e-06
1.19245e-06
1.19372e-06
1.19507e-06
1.1965e-06
1.19799e-06
1.19955e-06
1.20116e-06
1.20282e-06
1.20451e-06
1.20623e-06
1.20796e-06
1.2097e-06
1.21143e-06
1.21314e-06
1.20857e-06
1.20693e-06
1.20532e-06
1.20376e-06
1.20225e-06
1.2008e-06
1.19941e-06
1.19811e-06
1.19687e-06
1.19573e-06
1.19467e-06
1.19371e-06
1.19284e-06
1.19208e-06
1.19141e-06
1.19085e-06
1.1904e-06
1.19006e-06
1.18983e-06
1.18973e-06
1.18973e-06
1.18985e-06
1.19008e-06
1.19042e-06
1.19087e-06
1.19143e-06
1.19209e-06
1.19285e-06
1.19372e-06
1.19468e-06
1.19573e-06
1.19687e-06
1.1981e-06
1.19941e-06
1.2008e-06
1.20225e-06
1.20375e-06
1.20531e-06
1.20692e-06
1.20856e-06
1.21022e-06
1.2119e-06
1.21358e-06
1.21524e-06
1.21689e-06
1.21247e-06
1.21089e-06
1.20933e-06
1.20782e-06
1.20635e-06
1.20495e-06
1.20361e-06
1.20234e-06
1.20115e-06
1.20004e-06
1.19901e-06
1.19808e-06
1.19724e-06
1.1965e-06
1.19585e-06
1.19531e-06
1.19487e-06
1.19454e-06
1.19432e-06
1.19422e-06
1.19422e-06
1.19434e-06
1.19456e-06
1.19489e-06
1.19533e-06
1.19587e-06
1.19651e-06
1.19725e-06
1.19809e-06
1.19902e-06
1.20004e-06
1.20115e-06
1.20234e-06
1.20361e-06
1.20495e-06
1.20635e-06
1.20781e-06
1.20932e-06
1.21088e-06
1.21246e-06
1.21407e-06
1.21568e-06
1.2173e-06
1.2189e-06
1.22048e-06
1.21623e-06
1.2147e-06
1.21319e-06
1.21173e-06
1.21031e-06
1.20895e-06
1.20766e-06
1.20643e-06
1.20528e-06
1.2042e-06
1.20321e-06
1.20231e-06
1.20149e-06
1.20077e-06
1.20014e-06
1.19962e-06
1.1992e-06
1.19888e-06
1.19867e-06
1.19857e-06
1.19857e-06
1.19868e-06
1.1989e-06
1.19922e-06
1.19964e-06
1.20017e-06
1.20079e-06
1.2015e-06
1.20232e-06
1.20322e-06
1.20421e-06
1.20528e-06
1.20643e-06
1.20766e-06
1.20895e-06
1.21031e-06
1.21172e-06
1.21318e-06
1.21468e-06
1.21621e-06
1.21776e-06
1.21932e-06
1.22087e-06
1.22241e-06
1.22392e-06
1.21983e-06
1.21835e-06
1.2169e-06
1.21549e-06
1.21412e-06
1.21281e-06
1.21156e-06
1.21037e-06
1.20926e-06
1.20822e-06
1.20726e-06
1.20638e-06
1.2056e-06
1.2049e-06
1.20429e-06
1.20378e-06
1.20338e-06
1.20306e-06
1.20286e-06
1.20276e-06
1.20277e-06
1.20287e-06
1.20309e-06
1.2034e-06
1.20381e-06
1.20431e-06
1.20491e-06
1.20561e-06
1.20639e-06
1.20727e-06
1.20822e-06
1.20926e-06
1.21037e-06
1.21156e-06
1.21281e-06
1.21412e-06
1.21549e-06
1.21689e-06
1.21834e-06
1.21981e-06
1.22131e-06
1.2228e-06
1.22429e-06
1.22576e-06
1.2272e-06
1.22327e-06
1.22185e-06
1.22046e-06
1.21909e-06
1.21778e-06
1.21651e-06
1.2153e-06
1.21416e-06
1.21308e-06
1.21208e-06
1.21115e-06
1.21031e-06
1.20955e-06
1.20887e-06
1.20829e-06
1.2078e-06
1.2074e-06
1.2071e-06
1.20691e-06
1.20681e-06
1.20682e-06
1.20692e-06
1.20712e-06
1.20742e-06
1.20782e-06
1.20831e-06
1.20889e-06
1.20956e-06
1.21032e-06
1.21116e-06
1.21209e-06
1.21309e-06
1.21416e-06
1.21531e-06
1.21652e-06
1.21778e-06
1.21909e-06
1.22045e-06
1.22184e-06
1.22326e-06
1.22469e-06
1.22612e-06
1.22755e-06
1.22895e-06
1.23032e-06
1.22655e-06
1.22519e-06
1.22385e-06
1.22254e-06
1.22128e-06
1.22006e-06
1.21889e-06
1.21779e-06
1.21676e-06
1.21579e-06
1.2149e-06
1.21408e-06
1.21335e-06
1.2127e-06
1.21213e-06
1.21166e-06
1.21128e-06
1.21099e-06
1.2108e-06
1.21071e-06
1.21071e-06
1.21081e-06
1.21101e-06
1.2113e-06
1.21168e-06
1.21215e-06
1.21272e-06
1.21336e-06
1.21409e-06
1.21491e-06
1.2158e-06
1.21676e-06
1.2178e-06
1.2189e-06
1.22006e-06
1.22128e-06
1.22254e-06
1.22384e-06
1.22518e-06
1.22654e-06
1.22791e-06
1.22928e-06
1.23064e-06
1.23197e-06
1.23327e-06
1.22966e-06
1.22836e-06
1.22708e-06
1.22583e-06
1.22461e-06
1.22345e-06
1.22233e-06
1.22127e-06
1.22027e-06
1.21934e-06
1.21848e-06
1.2177e-06
1.21699e-06
1.21636e-06
1.21582e-06
1.21537e-06
1.215e-06
1.21472e-06
1.21454e-06
1.21445e-06
1.21445e-06
1.21455e-06
1.21474e-06
1.21502e-06
1.21539e-06
1.21584e-06
1.21638e-06
1.21701e-06
1.21771e-06
1.21849e-06
1.21935e-06
1.22028e-06
1.22127e-06
1.22233e-06
1.22345e-06
1.22461e-06
1.22582e-06
1.22707e-06
1.22835e-06
1.22965e-06
1.23096e-06
1.23227e-06
1.23356e-06
1.23483e-06
1.23605e-06
1.23385e-06
1.23261e-06
1.23136e-06
1.23014e-06
1.22894e-06
1.22778e-06
1.22666e-06
1.22559e-06
1.22458e-06
1.22362e-06
1.22273e-06
1.2219e-06
1.22115e-06
1.22048e-06
1.21987e-06
1.21935e-06
1.21891e-06
1.21856e-06
1.21829e-06
1.21811e-06
1.21803e-06
1.21803e-06
1.21812e-06
1.21831e-06
1.21858e-06
1.21893e-06
1.21937e-06
1.21989e-06
1.22049e-06
1.22116e-06
1.22192e-06
1.22274e-06
1.22363e-06
1.22458e-06
1.2256e-06
1.22667e-06
1.22778e-06
1.22894e-06
1.23013e-06
1.23135e-06
1.23259e-06
1.23384e-06
1.23508e-06
1.23631e-06
1.23751e-06
1.23866e-06
1.23656e-06
1.23537e-06
1.23419e-06
1.23303e-06
1.23189e-06
1.23078e-06
1.22971e-06
1.22869e-06
1.22772e-06
1.2268e-06
1.22595e-06
1.22516e-06
1.22444e-06
1.22379e-06
1.22321e-06
1.22271e-06
1.22229e-06
1.22195e-06
1.22169e-06
1.22152e-06
1.22144e-06
1.22145e-06
1.22154e-06
1.22171e-06
1.22197e-06
1.22231e-06
1.22273e-06
1.22323e-06
1.2238e-06
1.22445e-06
1.22517e-06
1.22596e-06
1.22681e-06
1.22772e-06
1.2287e-06
1.22972e-06
1.23078e-06
1.23189e-06
1.23302e-06
1.23418e-06
1.23536e-06
1.23655e-06
1.23772e-06
1.23888e-06
1.24001e-06
1.24109e-06
1.23908e-06
1.23796e-06
1.23684e-06
1.23574e-06
1.23465e-06
1.2336e-06
1.23259e-06
1.23161e-06
1.23068e-06
1.22981e-06
1.22899e-06
1.22824e-06
1.22755e-06
1.22693e-06
1.22638e-06
1.2259e-06
1.2255e-06
1.22517e-06
1.22493e-06
1.22477e-06
1.22469e-06
1.22469e-06
1.22478e-06
1.22495e-06
1.22519e-06
1.22552e-06
1.22592e-06
1.2264e-06
1.22695e-06
1.22756e-06
1.22825e-06
1.22901e-06
1.22982e-06
1.23069e-06
1.23162e-06
1.23259e-06
1.2336e-06
1.23465e-06
1.23573e-06
1.23683e-06
1.23795e-06
1.23907e-06
1.24018e-06
1.24127e-06
1.24233e-06
1.24333e-06
1.24246e-06
1.24142e-06
1.24036e-06
1.23931e-06
1.23827e-06
1.23724e-06
1.23624e-06
1.23528e-06
1.23435e-06
1.23347e-06
1.23264e-06
1.23186e-06
1.23114e-06
1.23049e-06
1.2299e-06
1.22937e-06
1.22891e-06
1.22853e-06
1.22822e-06
1.22799e-06
1.22783e-06
1.22776e-06
1.22776e-06
1.22784e-06
1.228e-06
1.22824e-06
1.22855e-06
1.22894e-06
1.22939e-06
1.22991e-06
1.2305e-06
1.23116e-06
1.23187e-06
1.23265e-06
1.23348e-06
1.23436e-06
1.23528e-06
1.23624e-06
1.23724e-06
1.23826e-06
1.2393e-06
1.24035e-06
1.24141e-06
1.24245e-06
1.24347e-06
1.24446e-06
1.24539e-06
1.24454e-06
1.24357e-06
1.24258e-06
1.24159e-06
1.24061e-06
1.23964e-06
1.2387e-06
1.23778e-06
1.2369e-06
1.23607e-06
1.23528e-06
1.23455e-06
1.23387e-06
1.23325e-06
1.23268e-06
1.23218e-06
1.23175e-06
1.23138e-06
1.23109e-06
1.23087e-06
1.23072e-06
1.23065e-06
1.23065e-06
1.23073e-06
1.23088e-06
1.23111e-06
1.2314e-06
1.23177e-06
1.2322e-06
1.2327e-06
1.23326e-06
1.23388e-06
1.23456e-06
1.23529e-06
1.23608e-06
1.23691e-06
1.23779e-06
1.23869e-06
1.23963e-06
1.2406e-06
1.24158e-06
1.24257e-06
1.24356e-06
1.24453e-06
1.24548e-06
1.24639e-06
1.24725e-06
1.2473e-06
1.24642e-06
1.24552e-06
1.24459e-06
1.24367e-06
1.24275e-06
1.24184e-06
1.24096e-06
1.2401e-06
1.23927e-06
1.23848e-06
1.23774e-06
1.23704e-06
1.2364e-06
1.23581e-06
1.23528e-06
1.2348e-06
1.23439e-06
1.23405e-06
1.23377e-06
1.23356e-06
1.23342e-06
1.23335e-06
1.23336e-06
1.23343e-06
1.23357e-06
1.23379e-06
1.23407e-06
1.23442e-06
1.23482e-06
1.23529e-06
1.23582e-06
1.23642e-06
1.23706e-06
1.23775e-06
1.23849e-06
1.23928e-06
1.2401e-06
1.24095e-06
1.24184e-06
1.24274e-06
1.24366e-06
1.24459e-06
1.24551e-06
1.24641e-06
1.24729e-06
1.24813e-06
1.2489e-06
1.24891e-06
1.2481e-06
1.24726e-06
1.24641e-06
1.24555e-06
1.2447e-06
1.24385e-06
1.24302e-06
1.24221e-06
1.24143e-06
1.2407e-06
1.24e-06
1.23935e-06
1.23874e-06
1.23819e-06
1.23768e-06
1.23723e-06
1.23685e-06
1.23652e-06
1.23626e-06
1.23606e-06
1.23593e-06
1.23586e-06
1.23587e-06
1.23594e-06
1.23607e-06
1.23628e-06
1.23654e-06
1.23687e-06
1.23726e-06
1.2377e-06
1.2382e-06
1.23876e-06
1.23936e-06
1.24001e-06
1.24071e-06
1.24145e-06
1.24222e-06
1.24302e-06
1.24384e-06
1.24468e-06
1.24554e-06
1.2464e-06
1.24725e-06
1.24809e-06
1.2489e-06
1.24966e-06
1.25036e-06
1.2503e-06
1.24957e-06
1.2488e-06
1.24802e-06
1.24723e-06
1.24644e-06
1.24565e-06
1.24488e-06
1.24413e-06
1.2434e-06
1.24271e-06
1.24206e-06
1.24145e-06
1.24088e-06
1.24036e-06
1.23989e-06
1.23947e-06
1.2391e-06
1.23879e-06
1.23855e-06
1.23836e-06
1.23824e-06
1.23818e-06
1.23818e-06
1.23825e-06
1.23838e-06
1.23857e-06
1.23882e-06
1.23913e-06
1.23949e-06
1.2399e-06
1.24037e-06
1.2409e-06
1.24146e-06
1.24207e-06
1.24272e-06
1.24341e-06
1.24413e-06
1.24488e-06
1.24564e-06
1.24642e-06
1.24722e-06
1.24801e-06
1.24879e-06
1.24956e-06
1.25029e-06
1.25098e-06
1.2516e-06
1.25148e-06
1.25082e-06
1.25013e-06
1.24941e-06
1.24869e-06
1.24796e-06
1.24723e-06
1.24653e-06
1.24583e-06
1.24516e-06
1.24452e-06
1.24391e-06
1.24334e-06
1.24281e-06
1.24233e-06
1.24189e-06
1.2415e-06
1.24115e-06
1.24087e-06
1.24064e-06
1.24046e-06
1.24035e-06
1.24029e-06
1.24029e-06
1.24036e-06
1.24048e-06
1.24065e-06
1.24089e-06
1.24118e-06
1.24152e-06
1.2419e-06
1.24234e-06
1.24283e-06
1.24336e-06
1.24392e-06
1.24453e-06
1.24517e-06
1.24584e-06
1.24652e-06
1.24723e-06
1.24795e-06
1.24868e-06
1.2494e-06
1.25012e-06
1.25081e-06
1.25147e-06
1.25208e-06
1.25262e-06
1.25243e-06
1.25185e-06
1.25123e-06
1.25058e-06
1.24993e-06
1.24927e-06
1.24861e-06
1.24796e-06
1.24732e-06
1.2467e-06
1.24611e-06
1.24555e-06
1.24502e-06
1.24453e-06
1.24409e-06
1.24368e-06
1.24331e-06
1.24299e-06
1.24273e-06
1.24251e-06
1.24235e-06
1.24225e-06
1.24219e-06
1.2422e-06
1.24225e-06
1.24237e-06
1.24253e-06
1.24275e-06
1.24302e-06
1.24333e-06
1.24369e-06
1.2441e-06
1.24455e-06
1.24504e-06
1.24556e-06
1.24612e-06
1.24671e-06
1.24732e-06
1.24795e-06
1.2486e-06
1.24926e-06
1.24992e-06
1.25058e-06
1.25122e-06
1.25184e-06
1.25242e-06
1.25295e-06
1.25341e-06
1.25359e-06
1.25315e-06
1.25264e-06
1.2521e-06
1.25153e-06
1.25094e-06
1.25035e-06
1.24975e-06
1.24916e-06
1.24858e-06
1.24802e-06
1.24748e-06
1.24697e-06
1.24648e-06
1.24603e-06
1.24562e-06
1.24525e-06
1.24491e-06
1.24462e-06
1.24437e-06
1.24417e-06
1.24403e-06
1.24393e-06
1.24387e-06
1.24388e-06
1.24393e-06
1.24404e-06
1.24419e-06
1.24439e-06
1.24464e-06
1.24493e-06
1.24526e-06
1.24563e-06
1.24605e-06
1.2465e-06
1.24698e-06
1.24749e-06
1.24803e-06
1.24859e-06
1.24916e-06
1.24975e-06
1.25034e-06
1.25093e-06
1.25152e-06
1.25209e-06
1.25264e-06
1.25314e-06
1.25359e-06
1.25397e-06
1.25427e-06
1.25399e-06
1.25362e-06
1.2532e-06
1.25273e-06
1.25223e-06
1.25172e-06
1.2512e-06
1.25066e-06
1.25014e-06
1.24962e-06
1.24911e-06
1.24862e-06
1.24815e-06
1.24772e-06
1.24731e-06
1.24693e-06
1.24659e-06
1.24628e-06
1.24601e-06
1.24579e-06
1.24561e-06
1.24547e-06
1.24538e-06
1.24533e-06
1.24534e-06
1.24539e-06
1.24548e-06
1.24562e-06
1.24581e-06
1.24604e-06
1.2463e-06
1.2466e-06
1.24694e-06
1.24732e-06
1.24773e-06
1.24817e-06
1.24863e-06
1.24911e-06
1.24962e-06
1.25013e-06
1.25066e-06
1.25118e-06
1.25171e-06
1.25222e-06
1.25272e-06
1.25319e-06
1.25362e-06
1.25399e-06
1.25428e-06
1.25433e-06
1.25413e-06
1.25385e-06
1.2535e-06
1.25311e-06
1.25269e-06
1.25225e-06
1.2518e-06
1.25133e-06
1.25087e-06
1.25041e-06
1.24995e-06
1.24952e-06
1.2491e-06
1.24871e-06
1.24835e-06
1.24801e-06
1.2477e-06
1.24742e-06
1.24717e-06
1.24697e-06
1.24681e-06
1.24669e-06
1.2466e-06
1.24656e-06
1.24657e-06
1.24661e-06
1.2467e-06
1.24682e-06
1.24699e-06
1.2472e-06
1.24744e-06
1.24771e-06
1.24802e-06
1.24836e-06
1.24873e-06
1.24912e-06
1.24953e-06
1.24996e-06
1.25041e-06
1.25087e-06
1.25133e-06
1.25179e-06
1.25224e-06
1.25268e-06
1.25311e-06
1.2535e-06
1.25384e-06
1.25413e-06
1.25434e-06
1.25413e-06
1.25402e-06
1.25382e-06
1.25355e-06
1.25324e-06
1.2529e-06
1.25253e-06
1.25215e-06
1.25175e-06
1.25135e-06
1.25095e-06
1.25056e-06
1.25017e-06
1.24981e-06
1.24946e-06
1.24914e-06
1.24884e-06
1.24856e-06
1.24831e-06
1.2481e-06
1.24791e-06
1.24777e-06
1.24766e-06
1.24758e-06
1.24755e-06
1.24755e-06
1.24759e-06
1.24767e-06
1.24778e-06
1.24793e-06
1.24812e-06
1.24833e-06
1.24858e-06
1.24885e-06
1.24915e-06
1.24948e-06
1.24982e-06
1.25019e-06
1.25056e-06
1.25096e-06
1.25135e-06
1.25174e-06
1.25214e-06
1.25252e-06
1.25289e-06
1.25323e-06
1.25355e-06
1.25381e-06
1.25401e-06
1.25413e-06
1.25365e-06
1.25363e-06
1.25351e-06
1.25333e-06
1.2531e-06
1.25284e-06
1.25254e-06
1.25224e-06
1.25191e-06
1.25157e-06
1.25124e-06
1.2509e-06
1.25057e-06
1.25026e-06
1.24996e-06
1.24968e-06
1.24942e-06
1.24918e-06
1.24896e-06
1.24876e-06
1.2486e-06
1.24848e-06
1.24838e-06
1.24831e-06
1.24828e-06
1.24829e-06
1.24832e-06
1.24839e-06
1.24849e-06
1.24863e-06
1.24879e-06
1.24898e-06
1.24919e-06
1.24943e-06
1.24969e-06
1.24998e-06
1.25027e-06
1.25059e-06
1.25091e-06
1.25124e-06
1.25157e-06
1.2519e-06
1.25222e-06
1.25254e-06
1.25283e-06
1.25309e-06
1.25333e-06
1.25351e-06
1.25362e-06
1.25365e-06
1.25288e-06
1.25295e-06
1.25293e-06
1.25283e-06
1.25268e-06
1.2525e-06
1.25228e-06
1.25205e-06
1.25179e-06
1.25153e-06
1.25125e-06
1.25097e-06
1.2507e-06
1.25044e-06
1.25019e-06
1.24995e-06
1.24973e-06
1.24953e-06
1.24934e-06
1.24917e-06
1.24903e-06
1.24892e-06
1.24884e-06
1.24878e-06
1.24876e-06
1.24876e-06
1.24879e-06
1.24885e-06
1.24894e-06
1.24906e-06
1.2492e-06
1.24936e-06
1.24954e-06
1.24974e-06
1.24997e-06
1.25021e-06
1.25046e-06
1.25072e-06
1.25098e-06
1.25126e-06
1.25152e-06
1.25179e-06
1.25204e-06
1.25228e-06
1.25249e-06
1.25267e-06
1.25283e-06
1.25292e-06
1.25295e-06
1.25289e-06
1.25182e-06
1.25198e-06
1.25205e-06
1.25204e-06
1.25197e-06
1.25187e-06
1.25174e-06
1.25158e-06
1.2514e-06
1.2512e-06
1.25099e-06
1.25077e-06
1.25055e-06
1.25035e-06
1.25014e-06
1.24995e-06
1.24977e-06
1.2496e-06
1.24944e-06
1.2493e-06
1.24919e-06
1.2491e-06
1.24903e-06
1.24898e-06
1.24896e-06
1.24896e-06
1.24899e-06
1.24904e-06
1.24912e-06
1.24921e-06
1.24933e-06
1.24946e-06
1.24961e-06
1.24978e-06
1.24996e-06
1.25016e-06
1.25036e-06
1.25057e-06
1.25078e-06
1.25099e-06
1.25119e-06
1.25139e-06
1.25157e-06
1.25173e-06
1.25186e-06
1.25197e-06
1.25203e-06
1.25204e-06
1.25198e-06
1.25182e-06
1.25044e-06
1.2507e-06
1.25086e-06
1.25094e-06
1.25096e-06
1.25094e-06
1.25089e-06
1.25081e-06
1.2507e-06
1.25057e-06
1.25043e-06
1.25027e-06
1.25012e-06
1.24996e-06
1.24981e-06
1.24966e-06
1.24953e-06
1.24939e-06
1.24927e-06
1.24915e-06
1.24906e-06
1.24899e-06
1.24894e-06
1.2489e-06
1.24888e-06
1.24888e-06
1.24891e-06
1.24895e-06
1.24901e-06
1.24909e-06
1.24918e-06
1.24929e-06
1.2494e-06
1.24953e-06
1.24968e-06
1.24983e-06
1.24998e-06
1.25013e-06
1.25028e-06
1.25043e-06
1.25057e-06
1.25069e-06
1.2508e-06
1.25088e-06
1.25093e-06
1.25095e-06
1.25093e-06
1.25085e-06
1.2507e-06
1.25045e-06
1.24874e-06
1.2491e-06
1.24935e-06
1.24952e-06
1.24963e-06
1.2497e-06
1.24973e-06
1.24973e-06
1.2497e-06
1.24964e-06
1.24956e-06
1.24947e-06
1.24938e-06
1.24928e-06
1.24917e-06
1.24908e-06
1.24898e-06
1.24889e-06
1.24879e-06
1.24871e-06
1.24864e-06
1.24859e-06
1.24855e-06
1.24852e-06
1.2485e-06
1.24851e-06
1.24853e-06
1.24856e-06
1.2486e-06
1.24866e-06
1.24873e-06
1.24881e-06
1.24889e-06
1.24899e-06
1.24909e-06
1.24919e-06
1.24929e-06
1.24939e-06
1.24948e-06
1.24957e-06
1.24964e-06
1.24969e-06
1.24972e-06
1.24972e-06
1.24969e-06
1.24962e-06
1.24952e-06
1.24934e-06
1.24909e-06
1.24875e-06
1.2467e-06
1.24715e-06
1.2475e-06
1.24776e-06
1.24797e-06
1.24813e-06
1.24824e-06
1.24832e-06
1.24837e-06
1.24838e-06
1.24838e-06
1.24835e-06
1.24832e-06
1.24827e-06
1.24822e-06
1.24818e-06
1.24812e-06
1.24807e-06
1.24801e-06
1.24795e-06
1.24791e-06
1.24787e-06
1.24785e-06
1.24783e-06
1.24782e-06
1.24782e-06
1.24784e-06
1.24786e-06
1.24789e-06
1.24793e-06
1.24798e-06
1.24803e-06
1.24807e-06
1.24813e-06
1.24819e-06
1.24825e-06
1.24829e-06
1.24833e-06
1.24836e-06
1.24838e-06
1.24838e-06
1.24836e-06
1.24831e-06
1.24823e-06
1.24812e-06
1.24796e-06
1.24776e-06
1.24749e-06
1.24715e-06
1.2467e-06
1.24429e-06
1.24485e-06
1.2453e-06
1.24566e-06
1.24596e-06
1.24621e-06
1.24641e-06
1.24658e-06
1.2467e-06
1.24679e-06
1.24686e-06
1.2469e-06
1.24693e-06
1.24694e-06
1.24694e-06
1.24695e-06
1.24694e-06
1.24692e-06
1.24689e-06
1.24687e-06
1.24685e-06
1.24684e-06
1.24682e-06
1.24682e-06
1.24681e-06
1.24682e-06
1.24682e-06
1.24683e-06
1.24685e-06
1.24687e-06
1.24689e-06
1.24691e-06
1.24693e-06
1.24694e-06
1.24696e-06
1.24697e-06
1.24696e-06
1.24694e-06
1.24691e-06
1.24686e-06
1.24679e-06
1.24669e-06
1.24656e-06
1.2464e-06
1.2462e-06
1.24595e-06
1.24566e-06
1.24529e-06
1.24485e-06
1.2443e-06
1.24151e-06
1.24217e-06
1.24272e-06
1.24319e-06
1.24358e-06
1.24392e-06
1.24422e-06
1.24447e-06
1.24468e-06
1.24484e-06
1.24498e-06
1.2451e-06
1.24518e-06
1.24526e-06
1.24532e-06
1.24537e-06
1.24541e-06
1.24543e-06
1.24544e-06
1.24545e-06
1.24545e-06
1.24546e-06
1.24546e-06
1.24546e-06
1.24547e-06
1.24547e-06
1.24547e-06
1.24547e-06
1.24547e-06
1.24547e-06
1.24547e-06
1.24546e-06
1.24544e-06
1.24541e-06
1.24538e-06
1.24534e-06
1.24528e-06
1.2452e-06
1.2451e-06
1.24499e-06
1.24485e-06
1.24467e-06
1.24446e-06
1.24421e-06
1.24391e-06
1.24358e-06
1.24318e-06
1.24272e-06
1.24217e-06
1.24152e-06
1.23833e-06
1.2391e-06
1.23976e-06
1.24032e-06
1.24082e-06
1.24126e-06
1.24164e-06
1.24198e-06
1.24228e-06
1.24252e-06
1.24274e-06
1.24292e-06
1.24308e-06
1.24321e-06
1.24333e-06
1.24343e-06
1.24351e-06
1.24358e-06
1.24363e-06
1.24366e-06
1.2437e-06
1.24372e-06
1.24374e-06
1.24375e-06
1.24376e-06
1.24377e-06
1.24376e-06
1.24375e-06
1.24374e-06
1.24372e-06
1.24369e-06
1.24364e-06
1.24359e-06
1.24352e-06
1.24344e-06
1.24335e-06
1.24323e-06
1.24309e-06
1.24293e-06
1.24275e-06
1.24252e-06
1.24227e-06
1.24197e-06
1.24163e-06
1.24125e-06
1.24081e-06
1.24032e-06
1.23976e-06
1.2391e-06
1.23834e-06
1.23473e-06
1.23562e-06
1.23638e-06
1.23705e-06
1.23765e-06
1.23819e-06
1.23867e-06
1.2391e-06
1.23948e-06
1.23981e-06
1.2401e-06
1.24036e-06
1.24058e-06
1.24078e-06
1.24095e-06
1.24111e-06
1.24124e-06
1.24135e-06
1.24143e-06
1.2415e-06
1.24156e-06
1.24161e-06
1.24165e-06
1.24167e-06
1.24168e-06
1.24169e-06
1.24168e-06
1.24166e-06
1.24163e-06
1.24158e-06
1.24152e-06
1.24145e-06
1.24136e-06
1.24125e-06
1.24112e-06
1.24098e-06
1.2408e-06
1.2406e-06
1.24036e-06
1.24011e-06
1.23981e-06
1.23947e-06
1.23909e-06
1.23866e-06
1.23818e-06
1.23764e-06
1.23705e-06
1.23638e-06
1.23561e-06
1.23474e-06
1.23069e-06
1.23169e-06
1.23257e-06
1.23335e-06
1.23405e-06
1.23469e-06
1.23528e-06
1.2358e-06
1.23627e-06
1.23668e-06
1.23705e-06
1.23739e-06
1.23768e-06
1.23794e-06
1.23818e-06
1.23839e-06
1.23857e-06
1.23872e-06
1.23884e-06
1.23895e-06
1.23903e-06
1.2391e-06
1.23915e-06
1.23919e-06
1.23921e-06
1.23921e-06
1.2392e-06
1.23917e-06
1.23912e-06
1.23905e-06
1.23897e-06
1.23886e-06
1.23873e-06
1.23858e-06
1.2384e-06
1.2382e-06
1.23796e-06
1.2377e-06
1.23739e-06
1.23706e-06
1.23668e-06
1.23626e-06
1.23579e-06
1.23526e-06
1.23468e-06
1.23405e-06
1.23335e-06
1.23257e-06
1.23169e-06
1.2307e-06
1.22618e-06
1.2273e-06
1.2283e-06
1.22919e-06
1.23e-06
1.23075e-06
1.23143e-06
1.23206e-06
1.23262e-06
1.23312e-06
1.23357e-06
1.23398e-06
1.23435e-06
1.23468e-06
1.23497e-06
1.23524e-06
1.23547e-06
1.23567e-06
1.23583e-06
1.23597e-06
1.23608e-06
1.23617e-06
1.23624e-06
1.23629e-06
1.23632e-06
1.23632e-06
1.2363e-06
1.23626e-06
1.23619e-06
1.2361e-06
1.23599e-06
1.23585e-06
1.23567e-06
1.23548e-06
1.23525e-06
1.23499e-06
1.2347e-06
1.23436e-06
1.23399e-06
1.23358e-06
1.23312e-06
1.23261e-06
1.23204e-06
1.23142e-06
1.23074e-06
1.23e-06
1.22919e-06
1.2283e-06
1.2273e-06
1.22619e-06
1.22118e-06
1.22242e-06
1.22354e-06
1.22455e-06
1.22547e-06
1.22633e-06
1.22712e-06
1.22784e-06
1.2285e-06
1.22909e-06
1.22963e-06
1.23012e-06
1.23056e-06
1.23096e-06
1.23132e-06
1.23164e-06
1.23192e-06
1.23217e-06
1.23237e-06
1.23255e-06
1.23269e-06
1.2328e-06
1.23289e-06
1.23295e-06
1.23298e-06
1.23299e-06
1.23296e-06
1.2329e-06
1.23282e-06
1.23271e-06
1.23256e-06
1.23239e-06
1.23218e-06
1.23193e-06
1.23165e-06
1.23134e-06
1.23098e-06
1.23057e-06
1.23012e-06
1.22964e-06
1.22909e-06
1.22849e-06
1.22783e-06
1.22711e-06
1.22632e-06
1.22547e-06
1.22455e-06
1.22354e-06
1.22242e-06
1.22119e-06
1.21565e-06
1.21703e-06
1.21826e-06
1.21939e-06
1.22043e-06
1.22141e-06
1.2223e-06
1.22313e-06
1.22389e-06
1.22457e-06
1.2252e-06
1.22577e-06
1.22629e-06
1.22676e-06
1.22718e-06
1.22757e-06
1.2279e-06
1.2282e-06
1.22844e-06
1.22865e-06
1.22883e-06
1.22897e-06
1.22907e-06
1.22914e-06
1.22918e-06
1.22918e-06
1.22915e-06
1.22908e-06
1.22898e-06
1.22884e-06
1.22867e-06
1.22846e-06
1.2282e-06
1.22791e-06
1.22758e-06
1.2272e-06
1.22678e-06
1.2263e-06
1.22577e-06
1.2252e-06
1.22457e-06
1.22388e-06
1.22312e-06
1.22229e-06
1.2214e-06
1.22043e-06
1.21939e-06
1.21826e-06
1.21702e-06
1.21566e-06
1.20957e-06
1.21107e-06
1.21244e-06
1.2137e-06
1.21486e-06
1.21595e-06
1.21696e-06
1.21789e-06
1.21875e-06
1.21953e-06
1.22025e-06
1.22091e-06
1.2215e-06
1.22205e-06
1.22254e-06
1.22299e-06
1.22338e-06
1.22372e-06
1.22401e-06
1.22426e-06
1.22446e-06
1.22463e-06
1.22475e-06
1.22484e-06
1.22488e-06
1.22489e-06
1.22485e-06
1.22476e-06
1.22465e-06
1.22448e-06
1.22427e-06
1.22403e-06
1.22373e-06
1.22339e-06
1.223e-06
1.22256e-06
1.22207e-06
1.22152e-06
1.22091e-06
1.22026e-06
1.21953e-06
1.21874e-06
1.21788e-06
1.21694e-06
1.21594e-06
1.21486e-06
1.2137e-06
1.21244e-06
1.21107e-06
1.20957e-06
1.20289e-06
1.20454e-06
1.20604e-06
1.20742e-06
1.20871e-06
1.20992e-06
1.21105e-06
1.2121e-06
1.21306e-06
1.21394e-06
1.21475e-06
1.21549e-06
1.21617e-06
1.21679e-06
1.21736e-06
1.21787e-06
1.21832e-06
1.21871e-06
1.21905e-06
1.21934e-06
1.21957e-06
1.21976e-06
1.21991e-06
1.22e-06
1.22006e-06
1.22006e-06
1.22001e-06
1.21992e-06
1.21978e-06
1.21959e-06
1.21935e-06
1.21906e-06
1.21872e-06
1.21833e-06
1.21788e-06
1.21738e-06
1.21682e-06
1.21619e-06
1.2155e-06
1.21476e-06
1.21394e-06
1.21305e-06
1.21208e-06
1.21103e-06
1.20991e-06
1.20871e-06
1.20742e-06
1.20604e-06
1.20453e-06
1.2029e-06
1.19559e-06
1.19738e-06
1.19902e-06
1.20054e-06
1.20195e-06
1.20329e-06
1.20454e-06
1.2057e-06
1.20678e-06
1.20776e-06
1.20866e-06
1.2095e-06
1.21027e-06
1.21097e-06
1.2116e-06
1.21218e-06
1.21269e-06
1.21314e-06
1.21352e-06
1.21385e-06
1.21412e-06
1.21434e-06
1.2145e-06
1.21461e-06
1.21467e-06
1.21467e-06
1.21462e-06
1.21451e-06
1.21435e-06
1.21413e-06
1.21386e-06
1.21353e-06
1.21314e-06
1.2127e-06
1.21219e-06
1.21162e-06
1.21099e-06
1.21028e-06
1.20951e-06
1.20867e-06
1.20776e-06
1.20676e-06
1.20568e-06
1.20452e-06
1.20328e-06
1.20195e-06
1.20054e-06
1.19902e-06
1.19737e-06
1.19559e-06
1.18762e-06
1.18955e-06
1.19133e-06
1.19299e-06
1.19455e-06
1.19601e-06
1.19739e-06
1.19867e-06
1.19986e-06
1.20095e-06
1.20195e-06
1.20289e-06
1.20374e-06
1.20452e-06
1.20524e-06
1.20588e-06
1.20645e-06
1.20696e-06
1.20739e-06
1.20776e-06
1.20806e-06
1.20831e-06
1.2085e-06
1.20862e-06
1.20868e-06
1.20869e-06
1.20863e-06
1.20851e-06
1.20833e-06
1.20808e-06
1.20777e-06
1.2074e-06
1.20696e-06
1.20646e-06
1.2059e-06
1.20526e-06
1.20455e-06
1.20376e-06
1.2029e-06
1.20196e-06
1.20095e-06
1.19985e-06
1.19865e-06
1.19738e-06
1.19601e-06
1.19455e-06
1.193e-06
1.19134e-06
1.18955e-06
1.18762e-06
1.17893e-06
1.18102e-06
1.18295e-06
1.18476e-06
1.18645e-06
1.18805e-06
1.18956e-06
1.19097e-06
1.19227e-06
1.19347e-06
1.19458e-06
1.19561e-06
1.19656e-06
1.19743e-06
1.19822e-06
1.19894e-06
1.19957e-06
1.20013e-06
1.20061e-06
1.20103e-06
1.20137e-06
1.20164e-06
1.20185e-06
1.20199e-06
1.20206e-06
1.20206e-06
1.202e-06
1.20186e-06
1.20166e-06
1.20138e-06
1.20104e-06
1.20062e-06
1.20014e-06
1.19958e-06
1.19895e-06
1.19824e-06
1.19745e-06
1.19658e-06
1.19562e-06
1.19459e-06
1.19347e-06
1.19226e-06
1.19095e-06
1.18954e-06
1.18805e-06
1.18645e-06
1.18476e-06
1.18295e-06
1.18102e-06
1.17893e-06
1.16948e-06
1.17173e-06
1.17382e-06
1.17578e-06
1.17762e-06
1.17936e-06
1.181e-06
1.18254e-06
1.18397e-06
1.18528e-06
1.1865e-06
1.18763e-06
1.18868e-06
1.18963e-06
1.1905e-06
1.1913e-06
1.192e-06
1.19262e-06
1.19315e-06
1.19361e-06
1.19399e-06
1.19429e-06
1.19452e-06
1.19468e-06
1.19476e-06
1.19476e-06
1.19469e-06
1.19454e-06
1.19431e-06
1.194e-06
1.19362e-06
1.19316e-06
1.19262e-06
1.19201e-06
1.19131e-06
1.19052e-06
1.18965e-06
1.18869e-06
1.18764e-06
1.18651e-06
1.18528e-06
1.18395e-06
1.18252e-06
1.18099e-06
1.17935e-06
1.17762e-06
1.17578e-06
1.17382e-06
1.17173e-06
1.16949e-06
1.15922e-06
1.16164e-06
1.16389e-06
1.166e-06
1.16799e-06
1.16988e-06
1.17166e-06
1.17333e-06
1.17489e-06
1.17632e-06
1.17766e-06
1.1789e-06
1.18004e-06
1.18108e-06
1.18204e-06
1.18291e-06
1.18368e-06
1.18437e-06
1.18495e-06
1.18546e-06
1.18587e-06
1.18621e-06
1.18647e-06
1.18663e-06
1.18672e-06
1.18673e-06
1.18664e-06
1.18648e-06
1.18623e-06
1.18589e-06
1.18547e-06
1.18496e-06
1.18437e-06
1.18369e-06
1.18292e-06
1.18206e-06
1.18111e-06
1.18005e-06
1.17891e-06
1.17766e-06
1.17632e-06
1.17487e-06
1.17331e-06
1.17165e-06
1.16987e-06
1.16799e-06
1.166e-06
1.16389e-06
1.16164e-06
1.15923e-06
1.14809e-06
1.15068e-06
1.1531e-06
1.15538e-06
1.15753e-06
1.15957e-06
1.16149e-06
1.1633e-06
1.16499e-06
1.16655e-06
1.168e-06
1.16935e-06
1.1706e-06
1.17174e-06
1.17278e-06
1.17373e-06
1.17458e-06
1.17532e-06
1.17597e-06
1.17653e-06
1.17698e-06
1.17735e-06
1.17763e-06
1.17781e-06
1.17791e-06
1.17791e-06
1.17782e-06
1.17764e-06
1.17737e-06
1.177e-06
1.17653e-06
1.17598e-06
1.17533e-06
1.17459e-06
1.17375e-06
1.1728e-06
1.17176e-06
1.17061e-06
1.16936e-06
1.16801e-06
1.16655e-06
1.16498e-06
1.16328e-06
1.16148e-06
1.15956e-06
1.15753e-06
1.15538e-06
1.15311e-06
1.15069e-06
1.1481e-06
1.13604e-06
1.13881e-06
1.1414e-06
1.14385e-06
1.14616e-06
1.14836e-06
1.15043e-06
1.15239e-06
1.15421e-06
1.1559e-06
1.15747e-06
1.15894e-06
1.16029e-06
1.16153e-06
1.16266e-06
1.1637e-06
1.16462e-06
1.16544e-06
1.16614e-06
1.16675e-06
1.16724e-06
1.16765e-06
1.16795e-06
1.16815e-06
1.16826e-06
1.16826e-06
1.16816e-06
1.16796e-06
1.16766e-06
1.16726e-06
1.16675e-06
1.16615e-06
1.16544e-06
1.16463e-06
1.16371e-06
1.16269e-06
1.16156e-06
1.16031e-06
1.15895e-06
1.15748e-06
1.1559e-06
1.1542e-06
1.15237e-06
1.15042e-06
1.14835e-06
1.14616e-06
1.14384e-06
1.1414e-06
1.13881e-06
1.13604e-06
1.12299e-06
1.12594e-06
1.12872e-06
1.13134e-06
1.13382e-06
1.13618e-06
1.13842e-06
1.14052e-06
1.14249e-06
1.14431e-06
1.14601e-06
1.1476e-06
1.14906e-06
1.1504e-06
1.15163e-06
1.15276e-06
1.15375e-06
1.15464e-06
1.1554e-06
1.15606e-06
1.1566e-06
1.15704e-06
1.15737e-06
1.15759e-06
1.1577e-06
1.1577e-06
1.1576e-06
1.15738e-06
1.15706e-06
1.15662e-06
1.15607e-06
1.15541e-06
1.15464e-06
1.15376e-06
1.15277e-06
1.15165e-06
1.15043e-06
1.14908e-06
1.14761e-06
1.14602e-06
1.14431e-06
1.14248e-06
1.1405e-06
1.1384e-06
1.13617e-06
1.13382e-06
1.13134e-06
1.12872e-06
1.12595e-06
1.123e-06
1.10888e-06
1.11203e-06
1.11499e-06
1.11779e-06
1.12045e-06
1.12298e-06
1.12538e-06
1.12764e-06
1.12975e-06
1.13171e-06
1.13355e-06
1.13526e-06
1.13684e-06
1.13829e-06
1.13961e-06
1.14083e-06
1.14191e-06
1.14286e-06
1.14369e-06
1.14441e-06
1.14499e-06
1.14547e-06
1.14582e-06
1.14606e-06
1.14618e-06
1.14618e-06
1.14607e-06
1.14584e-06
1.14548e-06
1.14501e-06
1.14441e-06
1.1437e-06
1.14287e-06
1.14192e-06
1.14084e-06
1.13963e-06
1.13831e-06
1.13685e-06
1.13527e-06
1.13356e-06
1.13172e-06
1.12974e-06
1.12762e-06
1.12536e-06
1.12297e-06
1.12045e-06
1.11779e-06
1.11499e-06
1.11203e-06
1.10888e-06
1.09363e-06
1.09698e-06
1.10013e-06
1.10313e-06
1.10597e-06
1.10867e-06
1.11124e-06
1.11366e-06
1.11593e-06
1.11804e-06
1.12001e-06
1.12184e-06
1.12355e-06
1.12511e-06
1.12653e-06
1.12784e-06
1.12901e-06
1.13004e-06
1.13093e-06
1.13171e-06
1.13234e-06
1.13285e-06
1.13323e-06
1.13349e-06
1.13362e-06
1.13363e-06