/*--------------------------------*- C++ -*----------------------------------*\
  =========                 |
  \\      /  F ield         | OpenFOAM: The Open Source CFD Toolbox
   \\    /   O peration     | Website:  https://openfoam.org
    \\  /    A nd           | Version:  7
     \\/     M anipulation  |
\*---------------------------------------------------------------------------*/
FoamFile
{
    version     2.0;
    format      ascii;
    class       volScalarField;
    location    "120000";
    object      p;
}
// * * * * * * * * * * * * * * * * * * * * * * * * * * * * * * * * * * * * * //

dimensions      [0 2 -2 0 0 0 0];

internalField   nonuniform List<scalar> 
4764
(
-2.46895e-19
-2.45012e-19
-2.72071e-19
-2.60686e-19
-2.75248e-19
-2.63327e-19
-2.33001e-19
-2.53774e-19
-2.34594e-19
-2.34091e-19
-2.27221e-19
-2.43521e-19
-2.39007e-19
-2.63086e-19
-2.41968e-19
-2.46527e-19
-2.46772e-19
-2.64376e-19
-2.63286e-19
-2.6764e-19
-2.66949e-19
-2.8e-19
-2.81956e-19
-2.88298e-19
-2.68932e-19
-2.89742e-19
-2.78875e-19
-3.02617e-19
-3.00146e-19
-3.18783e-19
-3.15313e-19
-3.15032e-19
-3.262e-19
-3.16131e-19
-3.05111e-19
-2.31176e-19
-2.45974e-19
-2.33864e-19
-2.29256e-19
-2.2253e-19
-2.4142e-19
-2.31511e-19
-2.5354e-19
-2.40303e-19
-2.4511e-19
-2.49326e-19
-2.70767e-19
-2.60063e-19
-2.67058e-19
-2.72544e-19
-2.76058e-19
-2.87977e-19
-2.84891e-19
-2.69533e-19
-2.88026e-19
-2.84966e-19
-3.01773e-19
-3.0286e-19
-3.20802e-19
-3.15311e-19
-3.217e-19
-3.19122e-19
-3.14799e-19
-2.97658e-19
-2.95155e-19
-2.8267e-19
-2.84952e-19
-2.82498e-19
-2.31053e-19
-2.45312e-19
-2.40729e-19
-2.33368e-19
-2.22993e-19
-2.54252e-19
-2.45814e-19
-2.45858e-19
-2.30528e-19
-2.48192e-19
-2.48183e-19
-2.698e-19
-2.58812e-19
-2.67632e-19
-2.72475e-19
-2.73136e-19
-2.86307e-19
-2.8175e-19
-2.71761e-19
-2.86726e-19
-2.86105e-19
-2.95594e-19
-3.00726e-19
-3.17591e-19
-3.19598e-19
-3.13823e-19
-3.1442e-19
-3.04742e-19
-2.92291e-19
-2.90366e-19
-2.7923e-19
-2.7615e-19
-2.85169e-19
-2.76273e-19
-2.55611e-19
-2.70691e-19
-2.61319e-19
-2.62347e-19
-2.50251e-19
-2.52343e-19
-2.23207e-19
-2.48112e-19
-2.246e-19
-2.28717e-19
-2.02797e-19
-2.3258e-19
-2.39549e-19
-2.32323e-19
-2.34209e-19
-2.1949e-19
-2.47858e-19
-2.46632e-19
-2.4514e-19
-2.34635e-19
-2.37202e-19
-2.44475e-19
-2.67197e-19
-2.53913e-19
-2.62724e-19
-2.6915e-19
-2.7891e-19
-2.79415e-19
-2.87634e-19
-2.6907e-19
-2.85717e-19
-2.77043e-19
-2.92912e-19
-2.9397e-19
-3.1802e-19
-3.16194e-19
-3.08162e-19
-3.12182e-19
-3.04839e-19
-3.04511e-19
-2.8249e-19
-2.83422e-19
-2.73872e-19
-2.82615e-19
-2.69976e-19
-2.62676e-19
-2.69017e-19
-2.5514e-19
-2.63783e-19
-2.52439e-19
-2.55241e-19
-2.2612e-19
-2.41903e-19
-2.19862e-19
-2.13439e-19
-2.02084e-19
-2.29442e-19
-2.40518e-19
-2.24966e-19
-2.27761e-19
-2.29355e-19
-2.4095e-19
-2.38781e-19
-2.52161e-19
-2.35222e-19
-2.42597e-19
-2.50366e-19
-2.60868e-19
-2.50895e-19
-2.56828e-19
-2.63623e-19
-2.75998e-19
-2.81252e-19
-2.87313e-19
-2.71297e-19
-2.86249e-19
-2.73169e-19
-2.89424e-19
-2.96784e-19
-3.24366e-19
-3.14039e-19
-3.11131e-19
-3.14544e-19
-3.02639e-19
-3.01661e-19
-2.81966e-19
-2.75774e-19
-2.76757e-19
-2.72861e-19
-2.72342e-19
-2.69427e-19
-2.65523e-19
-2.56226e-19
-2.67651e-19
-2.43691e-19
-2.61801e-19
-2.31483e-19
-2.44772e-19
-2.06502e-19
-2.21659e-19
-2.01433e-19
-2.4271e-19
-2.5137e-19
-2.34347e-19
-2.47893e-19
-2.35755e-19
-2.50324e-19
-2.4146e-19
-2.47806e-19
-2.31132e-19
-2.4684e-19
-2.45391e-19
-2.64638e-19
-2.54122e-19
-2.67173e-19
-2.59157e-19
-2.72159e-19
-2.79807e-19
-2.84113e-19
-2.72982e-19
-2.89399e-19
-2.73193e-19
-2.83968e-19
-2.9166e-19
-3.12874e-19
-3.15036e-19
-3.19358e-19
-3.11736e-19
-3.0353e-19
-2.97004e-19
-2.81235e-19
-2.69193e-19
-2.72192e-19
-2.7495e-19
-2.70449e-19
-2.63326e-19
-2.58967e-19
-2.36857e-19
-2.51921e-19
-2.36549e-19
-2.49039e-19
-2.30909e-19
-2.45196e-19
-2.16551e-19
-2.26134e-19
-2.08926e-19
-2.47123e-19
-2.48948e-19
-2.32737e-19
-2.40976e-19
-2.24923e-19
-2.44169e-19
-2.48086e-19
-2.43867e-19
-2.22378e-19
-2.44941e-19
-2.44403e-19
-2.60331e-19
-2.53748e-19
-2.70261e-19
-2.56547e-19
-2.74848e-19
-2.81631e-19
-2.81199e-19
-2.74203e-19
-2.8769e-19
-2.74921e-19
-2.8504e-19
-2.90659e-19
-3.08243e-19
-3.15988e-19
-3.19147e-19
-3.06853e-19
-3.01199e-19
-3.02109e-19
-2.74102e-19
-2.6988e-19
-2.67702e-19
-2.7607e-19
-2.61255e-19
-2.60423e-19
-2.65332e-19
-2.43319e-19
-2.54569e-19
-2.38449e-19
-2.43108e-19
-2.28872e-19
-2.41086e-19
-2.16719e-19
-2.28865e-19
-2.11143e-19
-2.32871e-19
-2.42712e-19
-2.28755e-19
-2.41709e-19
-2.31282e-19
-2.50734e-19
-2.49554e-19
-2.43361e-19
-2.17258e-19
-2.44455e-19
-2.39e-19
-2.62701e-19
-2.47788e-19
-2.72717e-19
-2.59783e-19
-2.75571e-19
-2.75126e-19
-2.81581e-19
-2.70879e-19
-2.82197e-19
-2.69957e-19
-2.90379e-19
-2.94752e-19
-3.02777e-19
-3.14898e-19
-3.13928e-19
-3.02989e-19
-3.02998e-19
-2.98164e-19
-2.80297e-19
-2.69487e-19
-2.74578e-19
-2.75437e-19
-2.61319e-19
-2.63694e-19
-2.62714e-19
-2.51285e-19
-2.60639e-19
-2.41056e-19
-2.5488e-19
-2.32596e-19
-2.3955e-19
-2.14413e-19
-2.38509e-19
-2.07755e-19
-2.28561e-19
-2.4394e-19
-2.31553e-19
-2.42743e-19
-2.38153e-19
-2.49341e-19
-2.40847e-19
-2.50318e-19
-2.25824e-19
-2.4136e-19
-2.43553e-19
-2.66633e-19
-2.42359e-19
-2.68455e-19
-2.61512e-19
-2.73414e-19
-2.69643e-19
-2.77021e-19
-2.69347e-19
-2.79207e-19
-2.64573e-19
-2.8758e-19
-2.94585e-19
-3.07701e-19
-3.16094e-19
-3.09967e-19
-3.06263e-19
-3.02781e-19
-2.88276e-19
-2.83216e-19
-2.71961e-19
-2.74235e-19
-2.68882e-19
-2.70355e-19
-2.537e-19
-2.64357e-19
-2.4566e-19
-2.58921e-19
-2.44199e-19
-2.59919e-19
-2.33853e-19
-2.40445e-19
-2.15524e-19
-2.4123e-19
-1.98289e-19
-2.32336e-19
-2.50488e-19
-2.32015e-19
-2.41973e-19
-2.29667e-19
-2.38177e-19
-2.42095e-19
-2.50568e-19
-2.32706e-19
-2.41538e-19
-2.39619e-19
-2.63037e-19
-2.475e-19
-2.71862e-19
-2.58861e-19
-2.72531e-19
-2.69188e-19
-2.7581e-19
-2.6758e-19
-2.77635e-19
-2.6384e-19
-2.86076e-19
-2.91264e-19
-3.11605e-19
-3.1544e-19
-3.11135e-19
-3.03371e-19
-3.00689e-19
-2.86536e-19
-2.87201e-19
-2.71171e-19
-2.70968e-19
-2.6435e-19
-2.64394e-19
-2.70642e-19
-2.67373e-19
-2.46691e-19
-2.5261e-19
-2.41937e-19
-2.58965e-19
-2.25276e-19
-2.42729e-19
-2.20394e-19
-2.29041e-19
-1.95493e-19
-2.38081e-19
-2.4662e-19
-2.36049e-19
-2.45454e-19
-2.29935e-19
-2.46069e-19
-2.42272e-19
-2.48177e-19
-2.34142e-19
-2.40859e-19
-2.39403e-19
-2.53e-19
-2.5403e-19
-2.68694e-19
-2.63931e-19
-2.6988e-19
-2.66582e-19
-2.75829e-19
-2.70628e-19
-2.74398e-19
-2.59585e-19
-2.84833e-19
-2.92826e-19
-3.09635e-19
-3.16928e-19
-3.11332e-19
-2.99447e-19
-2.95774e-19
-2.89636e-19
-2.78335e-19
-2.71182e-19
-2.58853e-19
-2.63781e-19
-2.55458e-19
-2.62685e-19
-2.63648e-19
-2.48348e-19
-2.48561e-19
-2.35434e-19
-2.48388e-19
-2.29856e-19
-2.39143e-19
-2.09777e-19
-2.22845e-19
-1.96388e-19
-2.38178e-19
-2.44012e-19
-2.3299e-19
-2.44821e-19
-2.29801e-19
-2.41393e-19
-2.49183e-19
-2.43133e-19
-2.28401e-19
-2.44239e-19
-2.38991e-19
-2.51183e-19
-2.56323e-19
-2.67811e-19
-2.60843e-19
-2.68382e-19
-2.67818e-19
-2.71066e-19
-2.66543e-19
-2.76435e-19
-2.60821e-19
-2.87823e-19
-2.95243e-19
-3.0683e-19
-3.11614e-19
-3.11612e-19
-2.98448e-19
-2.97898e-19
-2.8584e-19
-2.78432e-19
-2.68305e-19
-2.63417e-19
-2.68302e-19
-2.4939e-19
-2.62745e-19
-2.62134e-19
-2.44444e-19
-2.53463e-19
-2.37886e-19
-2.49439e-19
-2.31642e-19
-2.3795e-19
-2.05018e-19
-2.19125e-19
-1.98078e-19
-2.40962e-19
-2.30923e-19
-2.46406e-19
-2.2923e-19
-2.39726e-19
-2.26943e-19
-2.37792e-19
-2.47475e-19
-2.50854e-19
-2.27207e-19
-2.44922e-19
-2.41282e-19
-2.52406e-19
-2.50689e-19
-2.70111e-19
-2.55651e-19
-2.69948e-19
-2.67025e-19
-2.69412e-19
-2.63307e-19
-2.75832e-19
-2.65406e-19
-2.92009e-19
-2.92669e-19
-3.05135e-19
-3.13296e-19
-3.14997e-19
-3.01213e-19
-3.06002e-19
-2.83017e-19
-2.74669e-19
-2.69292e-19
-2.66827e-19
-2.6241e-19
-2.52669e-19
-2.61533e-19
-2.62292e-19
-2.47468e-19
-2.59544e-19
-2.34265e-19
-2.53666e-19
-2.26493e-19
-2.39578e-19
-2.0544e-19
-2.20542e-19
-1.94525e-19
-2.3741e-19
-2.36593e-19
-2.38334e-19
-2.38861e-19
-2.4773e-19
-2.31425e-19
-2.46127e-19
-2.35874e-19
-2.44957e-19
-2.29351e-19
-2.37235e-19
-2.40479e-19
-2.52808e-19
-2.51609e-19
-2.68946e-19
-2.57889e-19
-2.7557e-19
-2.6424e-19
-2.76588e-19
-2.59878e-19
-2.73593e-19
-2.62685e-19
-2.83892e-19
-2.8515e-19
-3.03521e-19
-3.1021e-19
-3.08883e-19
-3.02746e-19
-2.99903e-19
-2.89666e-19
-2.69007e-19
-2.72148e-19
-2.62567e-19
-2.65733e-19
-2.63769e-19
-2.55686e-19
-2.5269e-19
-2.4353e-19
-2.55139e-19
-2.38166e-19
-2.44316e-19
-2.30307e-19
-2.38457e-19
-2.12739e-19
-2.20986e-19
-2.00529e-19
-2.3362e-19
-2.38e-19
-2.41962e-19
-2.33409e-19
-2.43803e-19
-2.34555e-19
-2.46678e-19
-2.35005e-19
-2.51185e-19
-2.2318e-19
-2.36793e-19
-2.40525e-19
-2.57153e-19
-2.48496e-19
-2.6909e-19
-2.59745e-19
-2.74801e-19
-2.64061e-19
-2.70673e-19
-2.60891e-19
-2.77408e-19
-2.68191e-19
-2.85671e-19
-2.87061e-19
-3.03979e-19
-3.08221e-19
-3.07671e-19
-3.00419e-19
-2.99674e-19
-2.84979e-19
-2.71655e-19
-2.68508e-19
-2.61518e-19
-2.59669e-19
-2.61651e-19
-2.57349e-19
-2.49366e-19
-2.47328e-19
-2.54366e-19
-2.37128e-19
-2.43633e-19
-2.38895e-19
-2.42285e-19
-2.09539e-19
-2.28088e-19
-1.95483e-19
-2.27616e-19
-2.36345e-19
-2.37568e-19
-2.43396e-19
-2.33782e-19
-2.43815e-19
-2.27287e-19
-2.544e-19
-2.36609e-19
-2.49021e-19
-2.26372e-19
-2.36936e-19
-2.38557e-19
-2.56127e-19
-2.48357e-19
-2.70987e-19
-2.58473e-19
-2.70594e-19
-2.64616e-19
-2.66914e-19
-2.59695e-19
-2.75835e-19
-2.70481e-19
-2.84797e-19
-2.86882e-19
-3.01767e-19
-3.12884e-19
-3.11244e-19
-2.92437e-19
-2.98211e-19
-2.81744e-19
-2.76478e-19
-2.7055e-19
-2.60892e-19
-2.5782e-19
-2.55938e-19
-2.51656e-19
-2.59361e-19
-2.45468e-19
-2.49752e-19
-2.37223e-19
-2.43993e-19
-2.35952e-19
-2.36944e-19
-2.10367e-19
-2.24387e-19
-1.91666e-19
-2.38908e-19
-2.38673e-19
-2.37544e-19
-2.48113e-19
-2.31695e-19
-2.46822e-19
-2.23739e-19
-2.4614e-19
-2.37407e-19
-2.43165e-19
-2.27779e-19
-2.358e-19
-2.42866e-19
-2.57239e-19
-2.5156e-19
-2.69562e-19
-2.56012e-19
-2.67578e-19
-2.65066e-19
-2.72572e-19
-2.60098e-19
-2.7592e-19
-2.66954e-19
-2.85466e-19
-2.84709e-19
-3.00556e-19
-3.09768e-19
-3.15426e-19
-2.89369e-19
-2.94719e-19
-2.8073e-19
-2.76188e-19
-2.71688e-19
-2.64779e-19
-2.6192e-19
-2.56712e-19
-2.55914e-19
-2.62647e-19
-2.42988e-19
-2.46282e-19
-2.31734e-19
-2.43597e-19
-2.22686e-19
-2.23967e-19
-2.07255e-19
-2.23844e-19
-1.9301e-19
-2.44127e-19
-2.45243e-19
-2.42747e-19
-2.39169e-19
-2.46401e-19
-2.26217e-19
-2.44389e-19
-2.29145e-19
-2.49065e-19
-2.31761e-19
-2.41667e-19
-2.26212e-19
-2.36046e-19
-2.43412e-19
-2.50848e-19
-2.52186e-19
-2.65322e-19
-2.56949e-19
-2.63396e-19
-2.69499e-19
-2.76998e-19
-2.62459e-19
-2.72629e-19
-2.64542e-19
-2.82691e-19
-2.86945e-19
-2.96703e-19
-3.08105e-19
-3.10343e-19
-2.94637e-19
-2.95123e-19
-2.84161e-19
-2.72737e-19
-2.68772e-19
-2.67665e-19
-2.63738e-19
-2.61915e-19
-2.484e-19
-2.5991e-19
-2.39865e-19
-2.48367e-19
-2.30487e-19
-2.41765e-19
-2.24324e-19
-2.16184e-19
-2.09997e-19
-2.19863e-19
-2.0543e-19
-2.35133e-19
-2.33832e-19
-2.44599e-19
-2.41973e-19
-2.49772e-19
-2.3574e-19
-2.44514e-19
-2.30603e-19
-2.49678e-19
-2.3476e-19
-2.50196e-19
-2.25737e-19
-2.38536e-19
-2.40381e-19
-2.52204e-19
-2.51783e-19
-2.64507e-19
-2.56815e-19
-2.63316e-19
-2.63522e-19
-2.72161e-19
-2.65414e-19
-2.7228e-19
-2.66827e-19
-2.80108e-19
-2.89987e-19
-2.97831e-19
-3.0926e-19
-3.06425e-19
-2.95626e-19
-2.9162e-19
-2.83528e-19
-2.73272e-19
-2.6765e-19
-2.67432e-19
-2.57537e-19
-2.56557e-19
-2.4956e-19
-2.52257e-19
-2.41767e-19
-2.44561e-19
-2.25491e-19
-2.37638e-19
-2.25858e-19
-2.30488e-19
-2.14681e-19
-2.1531e-19
-2.00648e-19
-2.36118e-19
-2.30543e-19
-2.43979e-19
-2.39934e-19
-2.4858e-19
-2.28984e-19
-2.48309e-19
-2.34751e-19
-2.46709e-19
-2.41332e-19
-2.4765e-19
-2.26209e-19
-2.43288e-19
-2.3817e-19
-2.52346e-19
-2.50809e-19
-2.66117e-19
-2.53002e-19
-2.67277e-19
-2.60198e-19
-2.69325e-19
-2.63313e-19
-2.73835e-19
-2.67553e-19
-2.77156e-19
-2.87695e-19
-2.97137e-19
-3.05686e-19
-3.04414e-19
-2.93002e-19
-2.90856e-19
-2.83367e-19
-2.74631e-19
-2.6474e-19
-2.64678e-19
-2.58758e-19
-2.53951e-19
-2.53213e-19
-2.47878e-19
-2.42224e-19
-2.54788e-19
-2.28852e-19
-2.37217e-19
-2.251e-19
-2.29058e-19
-2.15323e-19
-2.15156e-19
-1.9474e-19
-2.3805e-19
-2.24636e-19
-2.43937e-19
-2.41183e-19
-2.44285e-19
-2.33411e-19
-2.49801e-19
-2.30073e-19
-2.49932e-19
-2.39977e-19
-2.38535e-19
-2.24579e-19
-2.43438e-19
-2.39691e-19
-2.55671e-19
-2.49246e-19
-2.62338e-19
-2.53755e-19
-2.67039e-19
-2.60678e-19
-2.69299e-19
-2.61945e-19
-2.70738e-19
-2.67671e-19
-2.79473e-19
-2.86757e-19
-2.969e-19
-3.03571e-19
-3.07755e-19
-2.92499e-19
-2.9276e-19
-2.81921e-19
-2.72522e-19
-2.60053e-19
-2.6116e-19
-2.65106e-19
-2.54348e-19
-2.49162e-19
-2.58488e-19
-2.41231e-19
-2.50387e-19
-2.33115e-19
-2.37403e-19
-2.24215e-19
-2.34905e-19
-2.10419e-19
-2.12272e-19
-1.93048e-19
-2.28264e-19
-2.23476e-19
-2.42424e-19
-2.46089e-19
-2.51404e-19
-2.39614e-19
-2.48669e-19
-2.29724e-19
-2.56746e-19
-2.36031e-19
-2.36023e-19
-2.26483e-19
-2.47198e-19
-2.41e-19
-2.56599e-19
-2.49651e-19
-2.59254e-19
-2.59423e-19
-2.66565e-19
-2.61003e-19
-2.69427e-19
-2.60439e-19
-2.72959e-19
-2.67641e-19
-2.80511e-19
-2.88812e-19
-2.96701e-19
-3.03658e-19
-3.03525e-19
-2.9656e-19
-2.909e-19
-2.80059e-19
-2.71755e-19
-2.54037e-19
-2.57668e-19
-2.68532e-19
-2.568e-19
-2.46304e-19
-2.57848e-19
-2.40015e-19
-2.5046e-19
-2.26731e-19
-2.32769e-19
-2.25622e-19
-2.35196e-19
-2.12744e-19
-2.19012e-19
-2.04357e-19
-2.26594e-19
-2.19946e-19
-2.33868e-19
-2.3741e-19
-2.4356e-19
-2.49558e-19
-2.33638e-19
-2.44504e-19
-2.33521e-19
-2.46062e-19
-2.28639e-19
-2.4613e-19
-2.19315e-19
-2.39434e-19
-2.39572e-19
-2.52682e-19
-2.48632e-19
-2.59675e-19
-2.57767e-19
-2.67061e-19
-2.62878e-19
-2.68447e-19
-2.58327e-19
-2.71085e-19
-2.67862e-19
-2.79463e-19
-2.86612e-19
-2.94825e-19
-3.055e-19
-3.04907e-19
-2.96755e-19
-2.92063e-19
-2.79461e-19
-2.75695e-19
-2.61722e-19
-2.66691e-19
-2.5587e-19
-2.63355e-19
-2.58211e-19
-2.54585e-19
-2.40632e-19
-2.44668e-19
-2.30015e-19
-2.35663e-19
-2.30519e-19
-2.26844e-19
-2.21668e-19
-2.19785e-19
-1.97115e-19
-2.34664e-19
-2.22618e-19
-2.31026e-19
-2.39802e-19
-2.39659e-19
-2.44684e-19
-2.47119e-19
-2.33595e-19
-2.43427e-19
-2.34618e-19
-2.52522e-19
-2.3251e-19
-2.49499e-19
-2.28274e-19
-2.34848e-19
-2.38049e-19
-2.48153e-19
-2.49977e-19
-2.5979e-19
-2.56449e-19
-2.68501e-19
-2.57561e-19
-2.67626e-19
-2.61032e-19
-2.70636e-19
-2.67943e-19
-2.79304e-19
-2.86518e-19
-2.98364e-19
-3.01183e-19
-3.07582e-19
-2.95675e-19
-2.8914e-19
-2.80858e-19
-2.77188e-19
-2.60884e-19
-2.65446e-19
-2.49805e-19
-2.65009e-19
-2.54017e-19
-2.55528e-19
-2.40277e-19
-2.39932e-19
-2.32682e-19
-2.38197e-19
-2.27321e-19
-2.22616e-19
-2.12185e-19
-2.21489e-19
-1.94299e-19
-2.34038e-19
-2.29424e-19
-2.38023e-19
-2.38664e-19
-2.44983e-19
-2.38317e-19
-2.38507e-19
-2.31374e-19
-2.50496e-19
-2.34677e-19
-2.44349e-19
-2.34802e-19
-2.43054e-19
-2.31194e-19
-2.39276e-19
-2.35269e-19
-2.43767e-19
-2.48788e-19
-2.62466e-19
-2.55832e-19
-2.70121e-19
-2.5869e-19
-2.7188e-19
-2.61499e-19
-2.71942e-19
-2.67896e-19
-2.78776e-19
-2.83926e-19
-2.98244e-19
-2.99357e-19
-3.05066e-19
-2.913e-19
-2.91983e-19
-2.81378e-19
-2.79174e-19
-2.56639e-19
-2.66415e-19
-2.54467e-19
-2.63237e-19
-2.51793e-19
-2.52193e-19
-2.33026e-19
-2.35727e-19
-2.33228e-19
-2.45947e-19
-2.19793e-19
-2.26722e-19
-2.06215e-19
-2.18785e-19
-1.9031e-19
-2.31307e-19
-2.3028e-19
-2.36918e-19
-2.29409e-19
-2.47221e-19
-2.39771e-19
-2.45293e-19
-2.29765e-19
-2.47918e-19
-2.36499e-19
-2.42384e-19
-2.34933e-19
-2.44024e-19
-2.33506e-19
-2.38945e-19
-2.32826e-19
-2.52291e-19
-2.41525e-19
-2.60856e-19
-2.55445e-19
-2.68313e-19
-2.59587e-19
-2.71431e-19
-2.60971e-19
-2.69721e-19
-2.67722e-19
-2.77903e-19
-2.82507e-19
-2.94212e-19
-2.97522e-19
-3.03561e-19
-2.94099e-19
-2.93675e-19
-2.71409e-19
-2.801e-19
-2.53391e-19
-2.59987e-19
-2.56901e-19
-2.60473e-19
-2.503e-19
-2.48676e-19
-2.36313e-19
-2.42581e-19
-2.27803e-19
-2.38333e-19
-2.19103e-19
-2.275e-19
-2.11219e-19
-2.126e-19
-1.90126e-19
-2.30655e-19
-2.24301e-19
-2.32914e-19
-2.31112e-19
-2.43133e-19
-2.43012e-19
-2.52126e-19
-2.35239e-19
-2.47154e-19
-2.40482e-19
-2.49876e-19
-2.34541e-19
-2.41617e-19
-2.2704e-19
-2.41066e-19
-2.33753e-19
-2.50288e-19
-2.45572e-19
-2.63822e-19
-2.58867e-19
-2.70672e-19
-2.60692e-19
-2.72364e-19
-2.62273e-19
-2.68817e-19
-2.67844e-19
-2.77488e-19
-2.81052e-19
-2.91108e-19
-2.93713e-19
-2.99437e-19
-2.94407e-19
-2.92366e-19
-2.76318e-19
-2.76579e-19
-2.55028e-19
-2.62744e-19
-2.56508e-19
-2.6137e-19
-2.52261e-19
-2.44524e-19
-2.38633e-19
-2.42559e-19
-2.25723e-19
-2.34124e-19
-2.23933e-19
-2.28823e-19
-2.11104e-19
-2.18719e-19
-2.00005e-19
-2.28302e-19
-2.21644e-19
-2.36829e-19
-2.42754e-19
-2.42944e-19
-2.42751e-19
-2.52251e-19
-2.37764e-19
-2.45782e-19
-2.37807e-19
-2.52085e-19
-2.34365e-19
-2.4633e-19
-2.27004e-19
-2.4255e-19
-2.38341e-19
-2.46547e-19
-2.48595e-19
-2.63037e-19
-2.6054e-19
-2.71608e-19
-2.60432e-19
-2.70335e-19
-2.63417e-19
-2.69549e-19
-2.67879e-19
-2.7713e-19
-2.78008e-19
-2.88116e-19
-2.9189e-19
-2.96635e-19
-2.95465e-19
-2.86141e-19
-2.81017e-19
-2.72901e-19
-2.59494e-19
-2.62103e-19
-2.52197e-19
-2.59292e-19
-2.5991e-19
-2.46903e-19
-2.37425e-19
-2.41555e-19
-2.23117e-19
-2.31622e-19
-2.22588e-19
-2.20214e-19
-2.05996e-19
-2.14581e-19
-1.99775e-19
-2.39455e-19
-2.1962e-19
-2.34165e-19
-2.42152e-19
-2.40926e-19
-2.44643e-19
-2.44391e-19
-2.38227e-19
-2.52386e-19
-2.43625e-19
-2.45477e-19
-2.33597e-19
-2.47798e-19
-2.22539e-19
-2.43782e-19
-2.3819e-19
-2.45961e-19
-2.45744e-19
-2.6163e-19
-2.57485e-19
-2.69251e-19
-2.6116e-19
-2.68086e-19
-2.62519e-19
-2.71867e-19
-2.68978e-19
-2.76844e-19
-2.79548e-19
-2.89444e-19
-2.91624e-19
-2.97371e-19
-2.91599e-19
-2.85713e-19
-2.74989e-19
-2.71606e-19
-2.54654e-19
-2.66491e-19
-2.5463e-19
-2.59931e-19
-2.64152e-19
-2.40606e-19
-2.29422e-19
-2.39613e-19
-2.34819e-19
-2.34453e-19
-2.27101e-19
-2.21717e-19
-2.07755e-19
-2.17197e-19
-1.86943e-19
-2.31555e-19
-2.18849e-19
-2.25855e-19
-2.40175e-19
-2.43608e-19
-2.4e-19
-2.50183e-19
-2.37811e-19
-2.43264e-19
-2.36755e-19
-2.46095e-19
-2.31545e-19
-2.447e-19
-2.28606e-19
-2.3959e-19
-2.32706e-19
-2.47317e-19
-2.41693e-19
-2.61901e-19
-2.57369e-19
-2.65954e-19
-2.64023e-19
-2.66723e-19
-2.61899e-19
-2.70839e-19
-2.71111e-19
-2.7698e-19
-2.78742e-19
-2.88545e-19
-2.92088e-19
-2.97807e-19
-2.88176e-19
-2.8683e-19
-2.72005e-19
-2.74547e-19
-2.52296e-19
-2.60177e-19
-2.62839e-19
-2.62424e-19
-2.56336e-19
-2.48316e-19
-2.38649e-19
-2.38905e-19
-2.28444e-19
-2.3583e-19
-2.23571e-19
-2.21452e-19
-2.12558e-19
-2.17158e-19
-1.95216e-19
-2.24679e-19
-2.15859e-19
-2.24336e-19
-2.35468e-19
-2.4203e-19
-2.27146e-19
-2.53876e-19
-2.37282e-19
-2.37624e-19
-2.39302e-19
-2.4215e-19
-2.31518e-19
-2.45877e-19
-2.28521e-19
-2.38894e-19
-2.32676e-19
-2.46586e-19
-2.44163e-19
-2.61978e-19
-2.57527e-19
-2.64641e-19
-2.6087e-19
-2.71004e-19
-2.623e-19
-2.72121e-19
-2.69081e-19
-2.76031e-19
-2.75665e-19
-2.8882e-19
-2.96234e-19
-2.98719e-19
-2.89925e-19
-2.85812e-19
-2.75575e-19
-2.74675e-19
-2.54902e-19
-2.59864e-19
-2.54504e-19
-2.55451e-19
-2.581e-19
-2.49029e-19
-2.44767e-19
-2.38641e-19
-2.19914e-19
-2.45514e-19
-2.2252e-19
-2.24775e-19
-2.13669e-19
-2.18694e-19
-2.02258e-19
-2.2895e-19
-2.25552e-19
-2.35628e-19
-2.40951e-19
-2.3957e-19
-2.3562e-19
-2.54618e-19
-2.37713e-19
-2.42349e-19
-2.47484e-19
-2.44779e-19
-2.27747e-19
-2.45456e-19
-2.2393e-19
-2.35441e-19
-2.33951e-19
-2.44895e-19
-2.44997e-19
-2.61846e-19
-2.59417e-19
-2.64153e-19
-2.57306e-19
-2.70605e-19
-2.63655e-19
-2.70188e-19
-2.68109e-19
-2.7515e-19
-2.7692e-19
-2.92047e-19
-2.94154e-19
-2.9315e-19
-2.90157e-19
-2.85215e-19
-2.76123e-19
-2.70596e-19
-2.5693e-19
-2.65387e-19
-2.52012e-19
-2.59672e-19
-2.54565e-19
-2.40457e-19
-2.391e-19
-2.38463e-19
-2.20393e-19
-2.36423e-19
-2.22025e-19
-2.21519e-19
-2.04974e-19
-2.12762e-19
-1.96514e-19
-2.30182e-19
-2.24844e-19
-2.39275e-19
-2.46382e-19
-2.41966e-19
-2.39331e-19
-2.51773e-19
-2.42163e-19
-2.51511e-19
-2.45446e-19
-2.3975e-19
-2.36814e-19
-2.43538e-19
-2.30858e-19
-2.38155e-19
-2.29084e-19
-2.48644e-19
-2.47482e-19
-2.60776e-19
-2.55147e-19
-2.60532e-19
-2.61901e-19
-2.68561e-19
-2.65608e-19
-2.69423e-19
-2.68525e-19
-2.7468e-19
-2.79494e-19
-2.89936e-19
-2.93923e-19
-2.94482e-19
-2.8576e-19
-2.81094e-19
-2.73789e-19
-2.72323e-19
-2.53106e-19
-2.60711e-19
-2.55061e-19
-2.59688e-19
-2.5746e-19
-2.37543e-19
-2.30397e-19
-2.34584e-19
-2.24105e-19
-2.34559e-19
-2.24196e-19
-2.17729e-19
-2.01385e-19
-2.12825e-19
-1.93927e-19
-2.29854e-19
-2.2238e-19
-2.33227e-19
-2.38383e-19
-2.46325e-19
-2.41198e-19
-2.45382e-19
-2.39611e-19
-2.50695e-19
-2.43098e-19
-2.46491e-19
-2.34616e-19
-2.4697e-19
-2.30593e-19
-2.38834e-19
-2.27254e-19
-2.48271e-19
-2.47023e-19
-2.59497e-19
-2.52632e-19
-2.60166e-19
-2.611e-19
-2.6556e-19
-2.63254e-19
-2.69408e-19
-2.71e-19
-2.74228e-19
-2.7776e-19
-2.86501e-19
-2.89499e-19
-2.9445e-19
-2.83168e-19
-2.78812e-19
-2.71457e-19
-2.68556e-19
-2.52655e-19
-2.61755e-19
-2.55221e-19
-2.56643e-19
-2.5147e-19
-2.41116e-19
-2.33397e-19
-2.37671e-19
-2.31014e-19
-2.30827e-19
-2.22943e-19
-2.23776e-19
-2.06037e-19
-2.13388e-19
-1.95016e-19
-2.29323e-19
-2.21819e-19
-2.36159e-19
-2.38071e-19
-2.49026e-19
-2.39333e-19
-2.52481e-19
-2.36672e-19
-2.46652e-19
-2.39047e-19
-2.47125e-19
-2.31629e-19
-2.49158e-19
-2.26428e-19
-2.34162e-19
-2.29016e-19
-2.48045e-19
-2.44422e-19
-2.60431e-19
-2.56964e-19
-2.64336e-19
-2.6409e-19
-2.68879e-19
-2.62616e-19
-2.69423e-19
-2.6996e-19
-2.7309e-19
-2.77753e-19
-2.84893e-19
-2.87213e-19
-2.92109e-19
-2.82643e-19
-2.82434e-19
-2.68797e-19
-2.68704e-19
-2.5581e-19
-2.6356e-19
-2.53292e-19
-2.60471e-19
-2.49333e-19
-2.47635e-19
-2.35936e-19
-2.41769e-19
-2.26775e-19
-2.3019e-19
-2.18692e-19
-2.23245e-19
-2.06861e-19
-2.131e-19
-1.94142e-19
-2.29552e-19
-2.2179e-19
-2.34284e-19
-2.44165e-19
-2.47259e-19
-2.40628e-19
-2.49815e-19
-2.46427e-19
-2.441e-19
-2.34981e-19
-2.46231e-19
-2.32821e-19
-2.41875e-19
-2.23827e-19
-2.35693e-19
-2.31603e-19
-2.41899e-19
-2.46132e-19
-2.54712e-19
-2.58104e-19
-2.67458e-19
-2.62582e-19
-2.71867e-19
-2.62585e-19
-2.69477e-19
-2.70281e-19
-2.73661e-19
-2.77392e-19
-2.85041e-19
-2.89697e-19
-2.92608e-19
-2.87139e-19
-2.8e-19
-2.72163e-19
-2.70271e-19
-2.56099e-19
-2.60093e-19
-2.53959e-19
-2.62011e-19
-2.50493e-19
-2.49467e-19
-2.37013e-19
-2.30828e-19
-2.26104e-19
-2.26721e-19
-2.21233e-19
-2.16713e-19
-2.08833e-19
-2.12631e-19
-1.98691e-19
-2.29243e-19
-2.21972e-19
-2.36552e-19
-2.38162e-19
-2.44624e-19
-2.40537e-19
-2.49192e-19
-2.45378e-19
-2.44541e-19
-2.39952e-19
-2.46146e-19
-2.32227e-19
-2.44376e-19
-2.25695e-19
-2.38277e-19
-2.30752e-19
-2.38876e-19
-2.44141e-19
-2.54437e-19
-2.58855e-19
-2.64621e-19
-2.61347e-19
-2.7258e-19
-2.60453e-19
-2.69234e-19
-2.6658e-19
-2.74554e-19
-2.72349e-19
-2.8487e-19
-2.89817e-19
-2.89827e-19
-2.87581e-19
-2.84239e-19
-2.75098e-19
-2.70895e-19
-2.54303e-19
-2.60031e-19
-2.53221e-19
-2.60698e-19
-2.48645e-19
-2.42903e-19
-2.33837e-19
-2.27805e-19
-2.25415e-19
-2.24308e-19
-2.21179e-19
-2.21706e-19
-2.03466e-19
-2.12894e-19
-2.02876e-19
-2.27779e-19
-2.22655e-19
-2.33596e-19
-2.37522e-19
-2.45834e-19
-2.38504e-19
-2.4802e-19
-2.44017e-19
-2.43096e-19
-2.45722e-19
-2.46171e-19
-2.33099e-19
-2.42509e-19
-2.2606e-19
-2.35762e-19
-2.30474e-19
-2.44357e-19
-2.44106e-19
-2.55178e-19
-2.58929e-19
-2.62542e-19
-2.61029e-19
-2.70804e-19
-2.61834e-19
-2.70044e-19
-2.66483e-19
-2.71894e-19
-2.74505e-19
-2.84747e-19
-2.90617e-19
-2.90698e-19
-2.85091e-19
-2.82258e-19
-2.70493e-19
-2.67048e-19
-2.56285e-19
-2.58755e-19
-2.55306e-19
-2.59521e-19
-2.4999e-19
-2.35531e-19
-2.34503e-19
-2.33023e-19
-2.25361e-19
-2.28523e-19
-2.16746e-19
-2.22047e-19
-2.07629e-19
-2.12945e-19
-2.03684e-19
-2.23992e-19
-2.18428e-19
-2.36175e-19
-2.45077e-19
-2.46183e-19
-2.38266e-19
-2.50021e-19
-2.41741e-19
-2.48182e-19
-2.42664e-19
-2.41264e-19
-2.30694e-19
-2.42079e-19
-2.24377e-19
-2.34013e-19
-2.32e-19
-2.44406e-19
-2.48784e-19
-2.58816e-19
-2.56443e-19
-2.65973e-19
-2.61292e-19
-2.70772e-19
-2.63409e-19
-2.7187e-19
-2.70827e-19
-2.74112e-19
-2.78499e-19
-2.84012e-19
-2.87914e-19
-2.91584e-19
-2.83275e-19
-2.74632e-19
-2.70379e-19
-2.66487e-19
-2.57837e-19
-2.61007e-19
-2.57623e-19
-2.62205e-19
-2.55715e-19
-2.34778e-19
-2.3143e-19
-2.36315e-19
-2.22481e-19
-2.29357e-19
-2.16281e-19
-2.13969e-19
-2.03751e-19
-2.15471e-19
-2.03653e-19
-2.28517e-19
-2.22139e-19
-2.33703e-19
-2.44777e-19
-2.46572e-19
-2.39438e-19
-2.50573e-19
-2.41861e-19
-2.45621e-19
-2.38422e-19
-2.4478e-19
-2.32218e-19
-2.39344e-19
-2.25675e-19
-2.37637e-19
-2.35282e-19
-2.42627e-19
-2.4803e-19
-2.59631e-19
-2.52999e-19
-2.64082e-19
-2.60526e-19
-2.69579e-19
-2.64864e-19
-2.69938e-19
-2.69715e-19
-2.7345e-19
-2.75808e-19
-2.84243e-19
-2.87147e-19
-2.897e-19
-2.83063e-19
-2.77436e-19
-2.74316e-19
-2.64097e-19
-2.58671e-19
-2.62012e-19
-2.61088e-19
-2.57823e-19
-2.51592e-19
-2.40362e-19
-2.36895e-19
-2.3297e-19
-2.21365e-19
-2.26967e-19
-2.15772e-19
-2.13833e-19
-2.07256e-19
-2.13927e-19
-1.98704e-19
-2.28126e-19
-2.26849e-19
-2.33901e-19
-2.36654e-19
-2.44358e-19
-2.40205e-19
-2.47369e-19
-2.43402e-19
-2.45849e-19
-2.44075e-19
-2.48924e-19
-2.40838e-19
-2.41302e-19
-2.25299e-19
-2.38526e-19
-2.32655e-19
-2.45474e-19
-2.46645e-19
-2.60834e-19
-2.54746e-19
-2.63231e-19
-2.5909e-19
-2.69099e-19
-2.63462e-19
-2.6869e-19
-2.68912e-19
-2.72502e-19
-2.74679e-19
-2.84499e-19
-2.85168e-19
-2.86675e-19
-2.81006e-19
-2.82312e-19
-2.70883e-19
-2.67216e-19
-2.56098e-19
-2.61806e-19
-2.57848e-19
-2.52341e-19
-2.47873e-19
-2.37114e-19
-2.34802e-19
-2.30622e-19
-2.24623e-19
-2.24118e-19
-2.17866e-19
-2.21593e-19
-2.0424e-19
-2.07892e-19
-1.97929e-19
-2.33405e-19
-2.20686e-19
-2.37524e-19
-2.36101e-19
-2.44826e-19
-2.46091e-19
-2.45731e-19
-2.3994e-19
-2.47262e-19
-2.39618e-19
-2.48929e-19
-2.32713e-19
-2.42119e-19
-2.28046e-19
-2.38002e-19
-2.32075e-19
-2.4533e-19
-2.47019e-19
-2.59714e-19
-2.54274e-19
-2.63365e-19
-2.60322e-19
-2.69013e-19
-2.62936e-19
-2.6689e-19
-2.68711e-19
-2.73694e-19
-2.74739e-19
-2.81782e-19
-2.84129e-19
-2.88261e-19
-2.80757e-19
-2.7966e-19
-2.69872e-19
-2.68814e-19
-2.58257e-19
-2.62546e-19
-2.54091e-19
-2.60539e-19
-2.49262e-19
-2.4151e-19
-2.36264e-19
-2.34724e-19
-2.26341e-19
-2.16745e-19
-2.17289e-19
-2.24716e-19
-2.01472e-19
-2.10521e-19
-1.93022e-19
-2.32105e-19
-2.21717e-19
-2.3531e-19
-2.35795e-19
-2.44195e-19
-2.43964e-19
-2.46418e-19
-2.4019e-19
-2.42715e-19
-2.3919e-19
-2.46751e-19
-2.31569e-19
-2.43615e-19
-2.2858e-19
-2.34942e-19
-2.30827e-19
-2.44367e-19
-2.44098e-19
-2.59591e-19
-2.53149e-19
-2.62969e-19
-2.61763e-19
-2.68708e-19
-2.63553e-19
-2.68687e-19
-2.67906e-19
-2.72221e-19
-2.74769e-19
-2.81804e-19
-2.83395e-19
-2.87811e-19
-2.81069e-19
-2.80043e-19
-2.69423e-19
-2.69841e-19
-2.57381e-19
-2.66825e-19
-2.50338e-19
-2.60558e-19
-2.50318e-19
-2.3863e-19
-2.39676e-19
-2.35927e-19
-2.24913e-19
-2.17661e-19
-2.16413e-19
-2.2623e-19
-2.0307e-19
-2.10441e-19
-1.94847e-19
-2.26908e-19
-2.24247e-19
-2.33472e-19
-2.40106e-19
-2.44714e-19
-2.40218e-19
-2.51011e-19
-2.43176e-19
-2.41089e-19
-2.43773e-19
-2.45569e-19
-2.34845e-19
-2.38116e-19
-2.28147e-19
-2.3542e-19
-2.29521e-19
-2.44351e-19
-2.43174e-19
-2.57851e-19
-2.55139e-19
-2.63502e-19
-2.6053e-19
-2.67891e-19
-2.62657e-19
-2.69606e-19
-2.66225e-19
-2.71656e-19
-2.74775e-19
-2.8243e-19
-2.8353e-19
-2.85983e-19
-2.8221e-19
-2.80753e-19
-2.68929e-19
-2.7148e-19
-2.5756e-19
-2.65729e-19
-2.58171e-19
-2.5615e-19
-2.49387e-19
-2.37718e-19
-2.39962e-19
-2.31572e-19
-2.20727e-19
-2.19909e-19
-2.14684e-19
-2.17744e-19
-2.03959e-19
-2.08027e-19
-2.01773e-19
-2.3e-19
-2.21385e-19
-2.3567e-19
-2.38721e-19
-2.46334e-19
-2.34332e-19
-2.48268e-19
-2.38723e-19
-2.43033e-19
-2.41947e-19
-2.45848e-19
-2.36877e-19
-2.36123e-19
-2.29594e-19
-2.40692e-19
-2.30941e-19
-2.42727e-19
-2.45567e-19
-2.57921e-19
-2.55058e-19
-2.63511e-19
-2.62667e-19
-2.68849e-19
-2.61722e-19
-2.69706e-19
-2.67087e-19
-2.71115e-19
-2.74476e-19
-2.81377e-19
-2.83372e-19
-2.84788e-19
-2.81062e-19
-2.79528e-19
-2.70341e-19
-2.69244e-19
-2.55679e-19
-2.61942e-19
-2.59426e-19
-2.57116e-19
-2.49322e-19
-2.39782e-19
-2.36189e-19
-2.33583e-19
-2.22278e-19
-2.26711e-19
-2.12152e-19
-2.16193e-19
-2.02898e-19
-2.11787e-19
-1.97846e-19
-2.30012e-19
-2.18759e-19
-2.34226e-19
-2.39176e-19
-2.43539e-19
-2.39808e-19
-2.48069e-19
-2.36709e-19
-2.4843e-19
-2.40675e-19
-2.45909e-19
-2.35313e-19
-2.3854e-19
-2.30931e-19
-2.38299e-19
-2.30041e-19
-2.4502e-19
-2.44015e-19
-2.58884e-19
-2.5327e-19
-2.63011e-19
-2.61404e-19
-2.70678e-19
-2.62398e-19
-2.69299e-19
-2.68452e-19
-2.7142e-19
-2.73338e-19
-2.82029e-19
-2.84602e-19
-2.82265e-19
-2.80479e-19
-2.8029e-19
-2.69216e-19
-2.70396e-19
-2.58664e-19
-2.59639e-19
-2.57395e-19
-2.57274e-19
-2.4792e-19
-2.40437e-19
-2.30092e-19
-2.3505e-19
-2.21611e-19
-2.22103e-19
-2.14586e-19
-2.16833e-19
-2.02811e-19
-2.13224e-19
-1.98162e-19
-2.29349e-19
-2.22899e-19
-2.36913e-19
-2.3886e-19
-2.41611e-19
-2.3996e-19
-2.46919e-19
-2.38546e-19
-2.44126e-19
-2.40688e-19
-2.46825e-19
-2.35841e-19
-2.43598e-19
-2.27911e-19
-2.35763e-19
-2.30664e-19
-2.4304e-19
-2.41889e-19
-2.58303e-19
-2.53609e-19
-2.63923e-19
-2.60931e-19
-2.6984e-19
-2.6326e-19
-2.68666e-19
-2.69228e-19
-2.70912e-19
-2.72195e-19
-2.82153e-19
-2.82857e-19
-2.82223e-19
-2.81247e-19
-2.79739e-19
-2.70207e-19
-2.69439e-19
-2.60991e-19
-2.64052e-19
-2.58581e-19
-2.56675e-19
-2.45489e-19
-2.37681e-19
-2.32424e-19
-2.34219e-19
-2.21161e-19
-2.20207e-19
-2.16154e-19
-2.18539e-19
-1.99841e-19
-2.09935e-19
-1.99263e-19
-2.28015e-19
-2.23418e-19
-2.38592e-19
-2.3606e-19
-2.43496e-19
-2.37563e-19
-2.46869e-19
-2.40283e-19
-2.42253e-19
-2.41433e-19
-2.48817e-19
-2.33956e-19
-2.39833e-19
-2.27978e-19
-2.3829e-19
-2.30153e-19
-2.464e-19
-2.43672e-19
-2.57827e-19
-2.54402e-19
-2.63816e-19
-2.59888e-19
-2.70147e-19
-2.64312e-19
-2.69392e-19
-2.70775e-19
-2.70682e-19
-2.74211e-19
-2.81523e-19
-2.81685e-19
-2.81129e-19
-2.80685e-19
-2.79761e-19
-2.67733e-19
-2.68536e-19
-2.57223e-19
-2.63722e-19
-2.57913e-19