/*--------------------------------*- C++ -*----------------------------------*\
  =========                 |
  \\      /  F ield         | OpenFOAM: The Open Source CFD Toolbox
   \\    /   O peration     | Website:  https://openfoam.org
    \\  /    A nd           | Version:  7
     \\/     M anipulation  |
\*---------------------------------------------------------------------------*/
FoamFile
{
    version     2.0;
    format      ascii;
    class       volVectorField;
    location    "80000";
    object      vorticity;
}
// * * * * * * * * * * * * * * * * * * * * * * * * * * * * * * * * * * * * * //

dimensions      [0 0 -1 0 0 0 0];

internalField   nonuniform List<vector> 
4844
(
(0.00879156 -0.00286109 4.41599e-18)
(0.00875424 -0.00316517 -1.97799e-17)
(0.00871257 -0.00347 -2.69806e-17)
(0.00903706 -0.00293659 7.06642e-18)
(0.00899731 -0.00324832 -7.93305e-18)
(0.00895297 -0.00356075 -2.38872e-17)
(0.00890397 -0.00387386 -2.13236e-17)
(0.00885016 -0.0041876 -1.75001e-17)
(0.00879139 -0.00450198 -1.85224e-17)
(0.00872751 -0.00481694 -1.84223e-17)
(0.00865837 -0.00513244 -1.22141e-17)
(0.00928323 -0.00301225 4.62427e-18)
(0.00924108 -0.00333168 -7.31803e-18)
(0.00919414 -0.00365175 -2.27101e-17)
(0.00914228 -0.00397242 -2.35137e-17)
(0.00908542 -0.00429366 -1.96117e-17)
(0.00902338 -0.00461544 -2.10992e-17)
(0.00895603 -0.00493775 -2.02833e-17)
(0.00888321 -0.00526048 -1.39875e-17)
(0.00880476 -0.00558349 -9.67854e-18)
(0.00872056 -0.0059067 -1.12083e-17)
(0.00863047 -0.00623006 -1.26964e-17)
(0.00953026 -0.00308815 5.49361e-18)
(0.00948574 -0.00341532 -2.60863e-18)
(0.00943624 -0.00374307 -1.83894e-17)
(0.00938159 -0.00407136 -2.1895e-17)
(0.00932172 -0.00440015 -1.90029e-17)
(0.00925646 -0.00472941 -2.09221e-17)
(0.0091857 -0.00505912 -1.95369e-17)
(0.00910923 -0.00538915 -1.40428e-17)
(0.00902695 -0.00571938 -1.19683e-17)
(0.00893869 -0.00604973 -1.19733e-17)
(0.00884436 -0.00638012 -1.3012e-17)
(0.00874376 -0.00671039 -1.04e-17)
(0.00863682 -0.00704034 -1.2445e-17)
(0.00852338 -0.00736981 -1.46708e-17)
(0.00840211 -0.00769994 -1.12377e-17)
(0.00904778 -0.00725519 -5.10206e-18)
(0.00977838 -0.00316435 6.21039e-18)
(0.00973151 -0.00349931 9.50524e-19)
(0.00967948 -0.00383481 -1.39608e-17)
(0.00962209 -0.00417077 -1.815e-17)
(0.00955925 -0.00450717 -1.69516e-17)
(0.00949081 -0.00484398 -1.96147e-17)
(0.00941668 -0.00518116 -1.76654e-17)
(0.00933661 -0.00551856 -1.28001e-17)
(0.00925052 -0.00585609 -1.25011e-17)
(0.00915825 -0.00619366 -1.18258e-17)
(0.00905969 -0.00653118 -1.17141e-17)
(0.00895469 -0.0068685 -1.06438e-17)
(0.00884313 -0.0072054 -1.4304e-17)
(0.0087249 -0.00754174 -1.58531e-17)
(0.00859866 -0.0078786 -1.28526e-17)
(0.00923471 -0.00744494 -6.97664e-18)
(0.0100278 -0.00324091 6.5952e-18)
(0.0099786 -0.00358373 2.92073e-18)
(0.00992405 -0.00392703 -1.00515e-17)
(0.00986396 -0.00427073 -1.4538e-17)
(0.00979819 -0.00461481 -1.48762e-17)
(0.00972661 -0.00495924 -1.80738e-17)
(0.00964912 -0.00530396 -1.58861e-17)
(0.00956549 -0.0056488 -1.16963e-17)
(0.00947561 -0.00599371 -1.10039e-17)
(0.00937938 -0.00633859 -1.09034e-17)
(0.00927663 -0.00668335 -1.08875e-17)
(0.00916724 -0.0070278 -9.99034e-18)
(0.00905108 -0.00737175 -1.37603e-17)
(0.00892807 -0.00771507 -1.48964e-17)
(0.00879688 -0.00805876 -1.20156e-17)
(0.00942332 -0.0076363 -7.05245e-18)
(0.0102272 -0.00366865 3.95276e-18)
(0.0101702 -0.00401981 -6.78598e-18)
(0.0101074 -0.00437132 -1.19203e-17)
(0.0100387 -0.00472314 -1.33977e-17)
(0.00996402 -0.00507528 -1.63851e-17)
(0.0098832 -0.0054276 -1.41734e-17)
(0.00979603 -0.00577997 -1.11947e-17)
(0.0097024 -0.00613235 -1.01708e-17)
(0.00960223 -0.00648465 -9.44382e-18)
(0.00949532 -0.00683673 -9.72862e-18)
(0.00938158 -0.00718842 -8.84071e-18)
(0.00926082 -0.00753953 -1.25016e-17)
(0.00913303 -0.00788992 -1.3798e-17)
(0.0089969 -0.00824056 -1.09456e-17)
(0.00961374 -0.00782937 -6.95175e-18)
(0.0104775 -0.00375413 5.13229e-18)
(0.010418 -0.00411322 -4.35197e-18)
(0.0103526 -0.00447261 -1.03445e-17)
(0.010281 -0.00483226 -1.23834e-17)
(0.0102032 -0.00519218 -1.51719e-17)
(0.0101191 -0.00555217 -1.27308e-17)
(0.0100284 -0.00591217 -1.02024e-17)
(0.00993105 -0.00627212 -9.61065e-18)
(0.00982694 -0.00663192 -8.45571e-18)
(0.00971589 -0.00699142 -8.63092e-18)
(0.00959781 -0.00735046 -7.63286e-18)
(0.00947249 -0.00770883 -1.11913e-17)
(0.0093399 -0.0080664 -1.20966e-17)
(0.00919881 -0.00842408 -1.06018e-17)
(0.00980609 -0.00802426 -9.24805e-18)
(0.0107297 -0.00384024 5.88388e-18)
(0.0106677 -0.00420734 -2.86868e-18)
(0.0105996 -0.00457467 -9.75187e-18)
(0.0105252 -0.00494223 -1.174e-17)
(0.0104443 -0.00531001 -1.434e-17)
(0.0103569 -0.00567777 -1.23571e-17)
(0.0102627 -0.0060455 -9.45571e-18)
(0.0101617 -0.00641312 -8.85088e-18)
(0.0100537 -0.0067805 -7.37559e-18)
(0.00993847 -0.00714753 -7.58081e-18)
(0.00981606 -0.00751402 -5.72691e-18)
(0.0096862 -0.00787976 -9.87404e-18)
(0.0095488 -0.00824461 -1.05085e-17)
(0.00940274 -0.00860945 -1.05426e-17)
(0.0100005 -0.00822107 -1.21411e-17)
(0.011042 -0.00355212 6.47925e-18)
(0.0109839 -0.00392703 6.0094e-18)
(0.0109195 -0.00430221 -1.86507e-18)
(0.0108487 -0.00467757 -9.36668e-18)
(0.0107715 -0.00505315 -1.08807e-17)
(0.0106876 -0.00542885 -1.34675e-17)
(0.0105968 -0.00580447 -1.2446e-17)
(0.0104992 -0.00618004 -8.98241e-18)
(0.0103945 -0.00655542 -8.34087e-18)
(0.0102825 -0.00693049 -6.98271e-18)
(0.0101632 -0.00730516 -7.00826e-18)
(0.0100365 -0.0076792 -4.18185e-18)
(0.00990207 -0.00805241 -8.04557e-18)
(0.00975988 -0.00842466 -9.61092e-18)
(0.00960883 -0.00879677 -1.03561e-17)
(0.010197 -0.00841991 -1.28153e-17)
(0.0113007 -0.00363144 6.30631e-18)
(0.0112404 -0.00401458 5.40389e-18)
(0.0111735 -0.0043979 -1.42966e-18)
(0.0111001 -0.0047814 -9.03024e-18)
(0.01102 -0.00516509 -1.04169e-17)
(0.0109331 -0.00554879 -1.25999e-17)
(0.010839 -0.00593239 -1.18999e-17)
(0.010738 -0.00631589 -8.45669e-18)
(0.0106296 -0.00669911 -7.79088e-18)
(0.0105137 -0.00708199 -6.97018e-18)
(0.0103903 -0.00746441 -6.31746e-18)
(0.0102592 -0.0078461 -3.59182e-18)
(0.0101202 -0.00822691 -6.07491e-18)
(0.00997324 -0.00860666 -8.24789e-18)
(0.0098172 -0.00898617 -1.02303e-17)
(0.0103959 -0.00862089 -1.16151e-17)
(0.0115617 -0.00371148 6.6918e-18)
(0.0114992 -0.00410292 4.08629e-18)
(0.01143 -0.00449449 -1.77973e-18)
(0.0113539 -0.00488623 -8.32901e-18)
(0.011271 -0.0052781 -9.72387e-18)
(0.011181 -0.00566992 -1.21253e-17)
(0.0110837 -0.00606161 -1.13843e-17)
(0.0109792 -0.00645312 -7.90155e-18)
(0.0108671 -0.0068443 -7.31914e-18)
(0.0107474 -0.00723511 -6.76088e-18)
(0.0106198 -0.00762537 -6.03754e-18)
(0.0104843 -0.00801483 -3.58753e-18)
(0.0103408 -0.00840335 -4.86572e-18)
(0.010189 -0.00879071 -6.47003e-18)
(0.010028 -0.00917774 -9.65033e-18)
(0.0105972 -0.00882414 -1.03551e-17)
(0.0118253 -0.00379231 7.3787e-18)
(0.0117606 -0.00419213 3.32031e-18)
(0.0116889 -0.00459205 -2.43648e-18)
(0.0116103 -0.00499212 -7.84002e-18)
(0.0115245 -0.00539226 -8.81791e-18)
(0.0114315 -0.0057923 -1.18593e-17)
(0.011331 -0.00619218 -1.11597e-17)
(0.0112229 -0.00659182 -7.37456e-18)
(0.0111072 -0.00699109 -7.25876e-18)
(0.0109836 -0.00738993 -6.45708e-18)
(0.0108519 -0.00778814 -5.34627e-18)
(0.0107121 -0.0081855 -3.23785e-18)
(0.010564 -0.00858183 -4.47702e-18)
(0.0104073 -0.00897692 -5.54593e-18)
(0.0102413 -0.00937162 -8.62783e-18)
(0.010801 -0.00902978 -9.52223e-18)
(0.0121515 -0.00346577 1.23812e-17)
(0.0120916 -0.00387396 7.75025e-18)
(0.0120247 -0.00428226 2.46628e-18)
(0.0119507 -0.00469064 -2.91173e-18)
(0.0118694 -0.00509914 -7.14681e-18)
(0.0117808 -0.00550767 -7.72063e-18)
(0.0116847 -0.00591603 -1.1046e-17)
(0.011581 -0.00632419 -1.10108e-17)
(0.0114694 -0.00673207 -6.96939e-18)
(0.01135 -0.00713955 -7.39967e-18)
(0.0112225 -0.00754654 -6.77078e-18)
(0.0110867 -0.00795284 -4.68046e-18)
(0.0109425 -0.00835822 -3.44697e-18)
(0.0107898 -0.00876246 -4.31387e-18)
(0.0106283 -0.00916544 -4.97301e-18)
(0.0104572 -0.00956793 -7.30607e-18)
(0.0110076 -0.00923793 -8.47806e-18)
(0.0124227 -0.00353969 1.32833e-17)
(0.0123608 -0.00395649 7.21044e-18)
(0.0122917 -0.00437338 1.19165e-18)
(0.0122153 -0.00479034 -3.08881e-18)
(0.0121315 -0.00520737 -6.0807e-18)
(0.01204 -0.00562438 -7.15113e-18)
(0.0119408 -0.00604117 -1.00062e-17)
(0.0118338 -0.00645774 -1.06747e-17)
(0.0117188 -0.00687398 -6.73918e-18)
(0.0115957 -0.00728979 -6.82683e-18)
(0.0114643 -0.00770505 -7.7115e-18)
(0.0113244 -0.00811956 -4.73339e-18)
(0.0111758 -0.00853306 -3.30109e-18)
(0.0110185 -0.00894536 -4.67858e-18)
(0.0108522 -0.00935638 -5.08096e-18)
(0.010676 -0.00976679 -6.18793e-18)
(0.0112169 -0.00944871 -7.31272e-18)
(0.0127534 -0.00318908 1.10417e-17)
(0.0126969 -0.00361445 1.31008e-17)
(0.0126331 -0.00403997 6.467e-18)
(0.0125618 -0.00446557 3.60934e-19)
(0.0124831 -0.0048912 -3.06767e-18)
(0.0123966 -0.00531688 -5.18472e-18)
(0.0123023 -0.00574247 -6.94785e-18)
(0.0122001 -0.00616781 -9.13874e-18)
(0.0120898 -0.00659292 -1.02113e-17)
(0.0119713 -0.00701767 -6.80654e-18)
(0.0118445 -0.00744193 -5.42195e-18)
(0.0117092 -0.00786557 -7.84858e-18)
(0.0115651 -0.00828841 -5.828e-18)
(0.0114122 -0.00871016 -3.42154e-18)
(0.0112502 -0.00913068 -4.82518e-18)
(0.011079 -0.00954986 -4.77078e-18)
(0.0108977 -0.00996831 -5.33751e-18)
(0.0114292 -0.00966224 -6.05202e-18)
(0.0130326 -0.00325586 1.09795e-17)
(0.0129744 -0.00369009 1.18498e-17)
(0.0129087 -0.00412445 5.68515e-18)
(0.0128352 -0.00455885 1.71401e-19)
(0.012754 -0.00499328 -3.05192e-18)
(0.012665 -0.00542772 -4.23853e-18)
(0.0125679 -0.00586201 -6.54491e-18)
(0.0124626 -0.00629604 -8.78578e-18)
(0.0123491 -0.00672984 -9.67584e-18)
(0.0122271 -0.00716321 -7.04994e-18)
(0.0120965 -0.00759602 -4.16753e-18)
(0.0119572 -0.0080282 -7.0475e-18)
(0.011809 -0.0084595 -6.39087e-18)
(0.0116516 -0.00888964 -3.99342e-18)
(0.011485 -0.00931851 -5.38099e-18)
(0.0113089 -0.00974597 -4.18647e-18)
(0.0111224 -0.0101726 -4.31645e-18)
(0.0116446 -0.00987861 -4.95103e-18)
(0.0133153 -0.00332346 1.01617e-17)
(0.0132554 -0.00376667 1.02301e-17)
(0.0131876 -0.00420997 4.88042e-18)
(0.013112 -0.0046533 7.60259e-19)
(0.0130284 -0.00509666 -2.57813e-18)
(0.0129368 -0.00553998 -3.92053e-18)
(0.0128369 -0.00598309 -6.36498e-18)
(0.0127285 -0.00642596 -8.89188e-18)
(0.0126117 -0.00686857 -9.06071e-18)
(0.0124862 -0.00731066 -6.55599e-18)
(0.0123519 -0.00775219 -3.18596e-18)
(0.0122087 -0.00819304 -6.39091e-18)
(0.0120562 -0.00863292 -6.24879e-18)
(0.0118944 -0.00907159 -4.31362e-18)
(0.0117231 -0.00950897 -5.8664e-18)
(0.011542 -0.00994486 -4.44918e-18)
(0.0113504 -0.0103798 -3.83442e-18)
(0.0118632 -0.010098 -4.36902e-18)
(0.0136017 -0.00339193 8.59163e-18)
(0.0135399 -0.00384423 8.4667e-18)
(0.0134702 -0.00429659 3.94132e-18)
(0.0133924 -0.00474899 1.60599e-18)
(0.0133064 -0.0052014 -1.6279e-18)
(0.0132122 -0.00565372 -3.83708e-18)
(0.0131094 -0.0061058 -6.25034e-18)
(0.012998 -0.00655764 -8.97121e-18)
(0.0128779 -0.00700918 -8.31692e-18)
(0.0127489 -0.00746014 -5.42242e-18)
(0.0126108 -0.00791053 -2.7126e-18)
(0.0124636 -0.00836018 -6.59588e-18)
(0.0123069 -0.00880879 -6.59884e-18)
(0.0121407 -0.00925616 -3.94543e-18)
(0.0119646 -0.00970218 -5.33539e-18)
(0.0117786 -0.0101466 -4.3825e-18)
(0.0115817 -0.01059 -3.65185e-18)
(0.0120851 -0.0103204 -3.89733e-18)
(0.0138918 -0.00346131 6.73172e-18)
(0.0138283 -0.00392282 6.8576e-18)
(0.0137566 -0.00438438 3.39274e-18)
(0.0136766 -0.00484599 2.13723e-18)
(0.0135882 -0.00530758 -8.42977e-19)
(0.0134913 -0.00576902 -3.45518e-18)
(0.0133857 -0.00623019 -5.60451e-18)
(0.0132712 -0.00669116 -8.92127e-18)
(0.0131478 -0.00715174 -8.04918e-18)
(0.0130153 -0.00761173 -4.52203e-18)
(0.0128735 -0.00807114 -2.49421e-18)
(0.0127222 -0.00852972 -6.62047e-18)
(0.0125613 -0.00898721 -7.10011e-18)
(0.0123905 -0.00944343 -3.99519e-18)
(0.0122097 -0.00989824 -5.11029e-18)
(0.0120187 -0.0103514 -4.02934e-18)
(0.0118164 -0.0108034 -3.47194e-18)
(0.0123104 -0.0105461 -3.32595e-18)
(0.0141859 -0.00353164 4.80334e-18)
(0.0141206 -0.00400249 5.4011e-18)
(0.0140469 -0.00447341 3.45676e-18)
(0.0139648 -0.00494435 3.07102e-18)
(0.013874 -0.00541524 -3.22153e-19)
(0.0137743 -0.00588593 -3.59721e-18)
(0.0136659 -0.00635637 -5.24121e-18)
(0.0135484 -0.0068266 -8.29831e-18)
(0.0134216 -0.00729637 -7.55395e-18)
(0.0132855 -0.00776555 -4.23176e-18)
(0.0131399 -0.00823411 -2.48928e-18)
(0.0129846 -0.00870179 -6.40739e-18)
(0.0128194 -0.00916831 -7.18761e-18)
(0.0126441 -0.00963353 -4.23514e-18)
(0.0124585 -0.0100973 -4.84384e-18)
(0.0122624 -0.0105593 -3.87556e-18)
(0.0120548 -0.01102 -2.95578e-18)
(0.0125394 -0.0107752 -2.7267e-18)
(0.0144842 -0.00360296 2.82813e-18)
(0.0144172 -0.00408331 4.2105e-18)
(0.0143415 -0.00456373 3.33522e-18)
(0.0142571 -0.00504414 3.94627e-18)
(0.0141639 -0.00552446 2.16569e-19)
(0.0140616 -0.00600457 -3.45097e-18)
(0.0139502 -0.00648443 -4.70562e-18)
(0.0138296 -0.00696404 -7.89004e-18)
(0.0136994 -0.00744315 -7.1691e-18)
(0.0135598 -0.00792169 -3.70136e-18)
(0.0134104 -0.00839955 -2.27119e-18)
(0.013251 -0.00887646 -6.41247e-18)
(0.0130815 -0.00935219 -7.3667e-18)
(0.0129016 -0.00982657 -4.5356e-18)
(0.0127112 -0.0102994 -4.55915e-18)
(0.01251 -0.0107705 -3.82701e-18)
(0.012297 -0.0112401 -1.86214e-18)
(0.0127722 -0.0110079 -1.78065e-18)
(0.0147868 -0.00367534 1.22613e-18)
(0.0147181 -0.00416534 3.12916e-18)
(0.0146405 -0.00465539 2.84392e-18)
(0.0145538 -0.00514541 4.10585e-18)
(0.0144582 -0.00563532 1.07857e-18)
(0.0143531 -0.00612499 -3.33686e-18)
(0.0142388 -0.00661443 -4.25967e-18)
(0.0141151 -0.00710357 -6.86529e-18)
(0.0139816 -0.0075922 -6.94994e-18)
(0.0138384 -0.00808026 -3.53757e-18)
(0.0136851 -0.00856755 -1.81691e-18)
(0.0135216 -0.00905387 -5.61372e-18)
(0.0133477 -0.00953897 -7.94867e-18)
(0.0131632 -0.0100227 -5.1525e-18)
(0.0129679 -0.0105048 -4.33079e-18)
(0.0127616 -0.010985 -3.77088e-18)
(0.0125431 -0.0114638 -9.47791e-19)
(0.0130089 -0.0112441 -9.42641e-19)
(0.015094 -0.00374882 1.27618e-19)
(0.0150235 -0.00424862 1.98509e-18)
(0.0149439 -0.00474845 2.80723e-18)
(0.0148551 -0.00524823 3.66634e-18)
(0.0147569 -0.00574789 1.56647e-18)
(0.0146492 -0.00624728 -2.76922e-18)
(0.0145319 -0.00674644 -4.14457e-18)
(0.014405 -0.00724528 -6.17261e-18)
(0.0142681 -0.00774361 -7.01371e-18)
(0.0141213 -0.00824133 -3.55435e-18)
(0.0139641 -0.00873822 -6.99372e-19)
(0.0137965 -0.00923412 -4.7375e-18)
(0.0136182 -0.00972877 -8.70138e-18)
(0.0134291 -0.010222 -5.52865e-18)
(0.0132289 -0.0107136 -3.94922e-18)
(0.0130174 -0.0112032 -4.13237e-18)
(0.0127934 -0.0116911 -2.95201e-20)
(0.0132496 -0.0114842 6.28527e-19)
(0.0154059 -0.00382344 -4.86102e-19)
(0.0153337 -0.0043332 1.04458e-18)
(0.0152521 -0.00484295 2.81611e-18)
(0.015161 -0.00535266 2.63193e-18)
(0.0150604 -0.00586222 1.65303e-18)
(0.01495 -0.00637151 -1.48654e-18)
(0.0148297 -0.00688057 -4.26321e-18)
(0.0146996 -0.00738929 -6.02749e-18)
(0.0145593 -0.00789747 -6.7445e-18)
(0.0144087 -0.00840499 -3.65566e-18)
(0.0142476 -0.00891167 4.64423e-19)
(0.0140758 -0.00941734 -3.48299e-18)
(0.0138931 -0.0099217 -9.24634e-18)
(0.0136994 -0.0104246 -6.25508e-18)
(0.0134943 -0.0109259 -3.50964e-18)
(0.0132775 -0.011425 -4.47684e-18)
(0.013048 -0.0119223 -2.26423e-19)
(0.0134946 -0.0117281 2.90754e-18)
(0.0157228 -0.00389927 -6.83434e-19)
(0.0156488 -0.00441913 5.14481e-19)
(0.0155652 -0.00493897 3.18794e-18)
(0.0154718 -0.00545877 2.04115e-18)
(0.0153687 -0.00597839 1.40798e-18)
(0.0152556 -0.00649775 -8.48791e-19)
(0.0151324 -0.00701689 -4.5128e-18)
(0.014999 -0.00753565 -5.93568e-18)
(0.0148553 -0.00805384 -6.5524e-18)
(0.0147009 -0.00857136 -3.62842e-18)
(0.0145359 -0.00908802 1.25665e-18)
(0.0143599 -0.00960363 -2.42507e-18)
(0.0141727 -0.0101179 -9.81717e-18)
(0.0139743 -0.0106308 -6.51237e-18)
(0.0137642 -0.0111418 -2.86765e-18)
(0.0135422 -0.0116507 -3.89145e-18)
(0.013307 -0.0121575 -8.70287e-19)
(0.0137439 -0.0119761 3.9112e-18)
(0.0160448 -0.00397633 -2.52095e-19)
(0.015969 -0.00450647 3.85542e-19)
(0.0158833 -0.00503657 3.24538e-18)
(0.0157877 -0.00556663 1.9365e-18)
(0.0156821 -0.00609649 1.18041e-18)
(0.0155662 -0.00662609 -9.59048e-19)
(0.0154401 -0.00715548 -4.74076e-18)
(0.0153035 -0.00768446 -5.78788e-18)
(0.0151562 -0.00821285 -6.34982e-18)
(0.0149981 -0.00874055 -3.43439e-18)
(0.014829 -0.00926739 1.6794e-18)
(0.0146488 -0.00979313 -2.17224e-18)
(0.0144571 -0.0103176 -1.05236e-17)
(0.0142539 -0.0108405 -6.82286e-18)
(0.0140388 -0.0113616 -2.52444e-18)
(0.0138115 -0.0118803 -2.76425e-18)
(0.0135706 -0.0123968 -5.44017e-19)
(0.0139977 -0.0122283 3.69721e-18)
(0.0163722 -0.00405468 1.86822e-19)
(0.0162946 -0.00459528 5.07678e-19)
(0.0162069 -0.00513581 3.14585e-18)
(0.0161089 -0.0056763 2.1986e-18)
(0.0160007 -0.00621658 1.43754e-18)
(0.0158822 -0.00675662 -1.75408e-18)
(0.015753 -0.00729644 -4.89257e-18)
(0.0156131 -0.00783583 -5.22197e-18)
(0.0154623 -0.0083746 -6.13204e-18)
(0.0153004 -0.00891269 -3.63498e-18)
(0.0151273 -0.00944987 1.95477e-18)
(0.0149427 -0.00998596 -2.16286e-18)
(0.0147465 -0.0105207 -1.05475e-17)
(0.0145386 -0.011054 -6.80537e-18)
(0.0143183 -0.0115852 -2.35114e-18)
(0.0140856 -0.012114 -2.37088e-18)
(0.0138391 -0.0126404 -1.95004e-19)
(0.0142562 -0.0124848 3.2875e-18)
(0.0167052 -0.00413439 7.13599e-19)
(0.0166257 -0.00468562 6.96755e-19)
(0.0165359 -0.00523676 2.87136e-18)
(0.0164357 -0.00578786 2.47271e-18)
(0.0163249 -0.00633877 1.93778e-18)
(0.0162036 -0.00688944 -2.96949e-18)
(0.0160713 -0.00743987 -4.92115e-18)
(0.0159281 -0.00798985 -3.98864e-18)
(0.0157737 -0.00853921 -5.54398e-18)
(0.015608 -0.00908787 -4.16902e-18)
(0.0154308 -0.0096356 2.13485e-18)
(0.0152419 -0.0101822 -2.28643e-18)
(0.0150411 -0.0107275 -1.02143e-17)
(0.0148283 -0.0112713 -6.36163e-18)
(0.0146029 -0.0118129 -1.61299e-18)
(0.0143648 -0.0123521 -2.08048e-18)
(0.0141126 -0.0128884 -3.86171e-19)
(0.0145195 -0.0127457 2.71912e-18)
(0.017044 -0.0042155 4.76501e-19)
(0.0169627 -0.00477754 7.65726e-19)
(0.0168708 -0.00533948 2.73558e-18)
(0.0167682 -0.0059014 2.54103e-18)
(0.0166548 -0.00646312 2.88912e-18)
(0.0165307 -0.00702463 -3.96076e-18)
(0.0163954 -0.00758587 -5.35945e-18)
(0.0162488 -0.00814663 -2.89308e-18)
(0.0160908 -0.00870679 -4.39247e-18)
(0.0159212 -0.00926621 -4.45246e-18)
(0.0157398 -0.00982473 1.5636e-18)
(0.0155466 -0.0103821 -2.65993e-18)
(0.0153411 -0.0109381 -9.91645e-18)
(0.0151233 -0.0114926 -5.67264e-18)
(0.0148927 -0.0120449 -7.06923e-19)
(0.0146492 -0.0125946 -1.29018e-18)
(0.0143913 -0.013141 -1.06356e-18)
(0.0147878 -0.0130113 2.08771e-18)
(0.0174614 -0.00372499 9.98868e-19)
(0.0173889 -0.00429807 -2.71014e-19)
(0.0173056 -0.00487111 4.94234e-19)
(0.0172116 -0.00544407 2.76284e-18)
(0.0171067 -0.00601699 2.32865e-18)
(0.0169906 -0.00658973 3.55841e-18)
(0.0168637 -0.00716228 -4.2082e-18)
(0.0167253 -0.00773454 -5.32537e-18)
(0.0165753 -0.00830629 -2.32772e-18)
(0.0164137 -0.00887745 -4.11131e-18)
(0.0162402 -0.00944787 -4.39474e-18)
(0.0160546 -0.0100174 8.30889e-19)
(0.0158568 -0.0105857 -2.84512e-18)
(0.0156466 -0.0111527 -9.78073e-18)
(0.0154238 -0.0117181 -5.03253e-18)
(0.015188 -0.0122813 2.55914e-19)
(0.014939 -0.0128417 5.55985e-19)
(0.0146756 -0.0133985 -1.81595e-18)
(0.0150613 -0.0132815 8.4647e-19)
(0.0178142 -0.00379786 1.7078e-18)
(0.0177401 -0.00438215 -1.14529e-18)
(0.0176549 -0.0049664 5.06606e-19)
(0.0175588 -0.00555058 2.76314e-18)
(0.0174514 -0.00613471 1.4718e-18)
(0.0173327 -0.00671869 3.52666e-18)
(0.0172028 -0.00730248 -4.23898e-18)
(0.0170613 -0.00788596 -5.0777e-18)
(0.0169079 -0.00846891 -1.58718e-18)
(0.0167426 -0.00905131 -4.31432e-18)
(0.0165651 -0.00963294 -4.64268e-18)
(0.0163753 -0.0102136 1.86364e-19)
(0.016173 -0.0107932 -3.00472e-18)
(0.015958 -0.0113714 -9.51936e-18)
(0.0157301 -0.0119479 -4.46017e-18)
(0.0154889 -0.0125222 1.35379e-18)
(0.0152344 -0.0130936 2.11647e-18)
(0.0149656 -0.013661 -1.45126e-18)
(0.0153402 -0.0135567 -1.45546e-19)
(0.0182385 -0.00327646 4.60088e-18)
(0.0181736 -0.00387208 1.7763e-18)
(0.0180978 -0.0044678 -1.86502e-18)
(0.0180107 -0.00506347 7.95599e-19)
(0.0179124 -0.00565909 3.06998e-18)
(0.0178025 -0.00625463 3.99576e-19)
(0.0176812 -0.00685008 2.89559e-18)
(0.0175483 -0.00744534 -4.30469e-18)
(0.0174036 -0.00804025 -4.86635e-18)
(0.0172468 -0.00863464 -1.22663e-18)
(0.0170777 -0.0092285 -4.14281e-18)
(0.0168962 -0.00982155 -4.80103e-18)
(0.0167021 -0.0104137 -2.07188e-20)
(0.0164952 -0.0110047 -3.51514e-18)
(0.0162753 -0.0115943 -9.34597e-18)
(0.0160423 -0.0121822 -4.14852e-18)
(0.0157957 -0.0127679 2.76443e-18)
(0.0155356 -0.0133506 2.58738e-18)
(0.0152617 -0.0139287 -9.05187e-19)
(0.0156275 -0.0138391 3.71348e-19)
(0.0186062 -0.00334044 5.38672e-18)
(0.0185398 -0.00394772 1.91348e-18)
(0.0184622 -0.00455508 -2.07835e-18)
(0.0183732 -0.00516241 1.03862e-18)
(0.0182727 -0.00576966 3.37161e-18)
(0.0181604 -0.00637685 -4.994e-19)
(0.0180363 -0.006984 2.49387e-18)
(0.0179005 -0.00759096 -4.736e-18)
(0.0177526 -0.00819751 -4.91217e-18)
(0.0175922 -0.00880358 -1.0906e-18)
(0.0174194 -0.00940911 -3.97379e-18)
(0.0172338 -0.0100138 -4.67074e-18)
(0.0170353 -0.0106176 -1.05536e-19)
(0.0168238 -0.0112203 -4.09751e-18)
(0.0165989 -0.0118216 -9.19728e-18)
(0.0163607 -0.0124212 -3.93098e-18)
(0.0161085 -0.0130184 3.75631e-18)
(0.0158428 -0.0136128 3.41149e-18)
(0.0155639 -0.0142026 -8.50264e-19)
(0.0159272 -0.0141331 1.69322e-18)
(0.0189809 -0.00340565 4.80435e-18)
(0.0189131 -0.00402482 2.27061e-18)
(0.0188337 -0.00464405 -1.91492e-18)
(0.0187428 -0.00526327 1.10575e-18)
(0.01864 -0.00588239 3.5898e-18)
(0.0185252 -0.00650147 -1.31583e-18)
(0.0183984 -0.00712055 2.30657e-18)
(0.0182596 -0.00773943 -5.24837e-18)
(0.0181083 -0.00835786 -5.04641e-18)
(0.0179444 -0.00897585 -1.38777e-18)
(0.0177677 -0.0095933 -4.19643e-18)
(0.017578 -0.0102099 -4.18014e-18)
(0.0173751 -0.0108256 8.16391e-20)
(0.0171589 -0.0114403 -4.5413e-18)
(0.016929 -0.0120535 -8.84298e-18)
(0.0166854 -0.0126649 -3.42816e-18)
(0.0164277 -0.0132741 3.73708e-18)
(0.0161564 -0.0138806 4.41541e-18)
(0.0158734 -0.0144848 -1.11951e-18)
(0.0162396 -0.0144399 1.9913e-18)
(0.019363 -0.00347214 3.76425e-18)
(0.0192937 -0.00410344 2.46653e-18)
(0.0192126 -0.00473479 -1.19331e-18)
(0.0191197 -0.00536612 1.36143e-18)
(0.0190146 -0.00599735 3.82368e-18)
(0.0188973 -0.00662857 -2.04289e-18)
(0.0187677 -0.00725982 2.163e-18)
(0.0186258 -0.00789085 -5.44545e-18)
(0.0184712 -0.00852143 -5.15452e-18)
(0.0183036 -0.00915158 -1.80633e-18)
(0.0181231 -0.00978118 -4.67243e-18)
(0.0179292 -0.01041 -4.06376e-18)
(0.0177217 -0.0110379 1.46387e-19)
(0.0175009 -0.0116648 -4.69155e-18)
(0.0172659 -0.0122901 -8.12142e-18)
(0.017017 -0.0129139 -2.16113e-18)
(0.0167553 -0.0135364 3.27418e-18)
(0.0164804 -0.0141575 4.65495e-18)
(0.0161953 -0.0147801 -1.40379e-18)
(0.0165619 -0.0147578 1.46329e-18)
(0.0197527 -0.00353997 3.27418e-18)
(0.0196819 -0.00418363 2.62698e-18)
(0.019599 -0.00482734 -4.43076e-19)
(0.019504 -0.00547105 1.62169e-18)
(0.0193968 -0.00611464 4.02256e-18)
(0.0192769 -0.00675824 -2.87615e-18)
(0.0191444 -0.0074019 1.68912e-18)
(0.0189994 -0.00804536 -5.20578e-18)
(0.0188415 -0.00868834 -5.00204e-18)
(0.0186702 -0.00933088 -1.86493e-18)
(0.0184856 -0.00997292 -4.941e-18)
(0.0182876 -0.0106142 -4.161e-18)
(0.0180756 -0.0112546 4.83142e-19)
(0.0178502 -0.0118941 -4.31883e-18)
(0.0176121 -0.0125332 -7.54735e-18)
(0.01736 -0.0131714 -4.87272e-19)
(0.0170966 -0.0138101 3.42965e-18)
(0.0168207 -0.014449 4.17435e-18)
(0.0165335 -0.0150908 -1.85853e-18)
(0.0168932 -0.0150849 5.39248e-19)
(0.0201503 -0.00360917 3.20283e-18)
(0.020078 -0.00426545 2.59629e-18)
(0.0199933 -0.00492179 5.43073e-19)
(0.0198963 -0.00557813 2.04175e-18)
(0.0197867 -0.00623435 3.69597e-18)
(0.0196643 -0.00689058 -3.81071e-18)
(0.0195289 -0.00754691 1.08265e-18)
(0.0193807 -0.00820307 -4.90414e-18)
(0.0192194 -0.00885872 -4.86689e-18)
(0.0190444 -0.00951394 -2.18402e-18)
(0.018856 -0.0101688 -4.96894e-18)
(0.0186547 -0.0108233 -4.24775e-18)
(0.0184403 -0.0114777 6.74454e-19)
(0.0182123 -0.0121319 -3.35051e-18)
(0.0179734 -0.0127873 -6.50408e-18)
(0.0177208 -0.0134425 6.61885e-19)
(0.0174555 -0.0140984 3.86165e-18)
(0.0171771 -0.0147548 4.32495e-18)
(0.0168848 -0.0154132 -1.95371e-18)
(0.0172329 -0.0154195 -2.37079e-19)
(0.0205561 -0.00367982 3.37436e-18)
(0.0204823 -0.00434898 2.55747e-18)
(0.0203958 -0.0050182 1.22998e-18)
(0.0202967 -0.00568744 2.21616e-18)
(0.0201848 -0.00635655 3.09007e-18)
(0.0200598 -0.00702571 -4.48712e-18)
(0.0199215 -0.00769501 6.06226e-19)
(0.0197703 -0.00836417 -4.72822e-18)
(0.0196061 -0.009033 -4.83014e-18)
(0.019429 -0.00970201 -3.1617e-18)
(0.0192387 -0.0103711 -5.14333e-18)
(0.0190362 -0.0110408 -4.42667e-18)
(0.0188218 -0.0117115 4.26705e-19)
(0.0185937 -0.0123827 -2.3249e-18)
(0.0183531 -0.0130547 -4.65638e-18)
(0.0180984 -0.0137267 1.22671e-18)
(0.0178289 -0.0143985 3.54763e-18)
(0.0175447 -0.0150702 5.60407e-18)
(0.0172446 -0.0157426 -1.4915e-18)
(0.0175801 -0.0157608 -7.66729e-19)
(0.0209706 -0.00375198 3.28491e-18)
(0.0208952 -0.0044343 2.64685e-18)
(0.0208069 -0.00511668 2.16978e-18)
(0.0207057 -0.00579912 2.24066e-18)
(0.0205916 -0.00648146 2.15548e-18)
(0.0204651 -0.00716418 -5.06496e-18)
(0.0203255 -0.00784728 4.54449e-19)
(0.0201726 -0.0085305 -4.55762e-18)
(0.0200073 -0.00921405 -4.96736e-18)
(0.0198305 -0.00989865 -3.88486e-18)
(0.0196406 -0.010584 -5.08865e-18)
(0.0194377 -0.0112702 -4.70551e-18)
(0.0192222 -0.0119574 -3.34791e-19)
(0.0189925 -0.0126452 -2.11184e-18)
(0.0187475 -0.0133326 -2.43177e-18)
(0.0184878 -0.0140198 2.13047e-18)
(0.018212 -0.0147063 2.4987e-18)
(0.0179202 -0.0153922 6.20912e-18)
(0.0176109 -0.0160775 -6.03944e-19)
(0.0179342 -0.0161081 -6.3221e-19)
(0.0213951 -0.00382587 3.39544e-18)
(0.021319 -0.00452183 2.94054e-18)
(0.0212299 -0.00521798 3.18267e-18)
(0.0211279 -0.00591431 1.54709e-18)
(0.0210129 -0.00661088 7.50878e-19)
(0.0208867 -0.00730844 -5.07101e-18)
(0.0207475 -0.00800663 5.48985e-19)
(0.020595 -0.00870539 -4.18792e-18)
(0.02043 -0.00940505 -5.20404e-18)
(0.0202524 -0.0101058 -4.64559e-18)
(0.0200617 -0.0108074 -4.69965e-18)
(0.0198566 -0.0115097 -5.03852e-18)
(0.0196371 -0.0122123 -5.61965e-19)
(0.0194027 -0.0129153 -1.71223e-18)
(0.0191519 -0.0136175 -1.26337e-19)
(0.0188855 -0.0143192 3.42351e-18)
(0.0186023 -0.0150199 1.59703e-18)
(0.018302 -0.0157194 5.83927e-18)
(0.0179832 -0.0164174 -4.20854e-19)
(0.0182946 -0.0164613 -9.87055e-19)
(0.0218362 -0.00390283 3.15469e-18)
(0.0217605 -0.00461324 2.95885e-18)
(0.0216721 -0.00532407 4.49776e-18)
(0.0215708 -0.00603535 7.48007e-19)
(0.0214566 -0.00674742 -1.0462e-18)
(0.0213304 -0.00746058 -5.0554e-18)
(0.0211909 -0.00817441 4.34016e-19)
(0.0210378 -0.00888906 -3.9847e-18)
(0.0208716 -0.00960473 -5.24028e-18)
(0.020691 -0.010321 -5.34863e-18)
(0.0204965 -0.0110381 -4.19991e-18)
(0.0202869 -0.0117557 -5.76743e-18)
(0.020062 -0.0124733 -8.67729e-19)
(0.0198214 -0.0131909 -5.92827e-19)
(0.019564 -0.0139077 2.06985e-18)
(0.0192901 -0.0146237 4.65192e-18)
(0.0189988 -0.0153384 1.05686e-18)
(0.0186897 -0.0160514 5.91095e-18)
(0.0183614 -0.0167622 -7.96382e-19)
(0.0186613 -0.0168205 -2.19921e-18)
(0.0223008 -0.00398406 2.82838e-18)
(0.0222251 -0.00470962 2.72843e-18)
(0.0221367 -0.0054358 6.25292e-18)
(0.0220353 -0.00616264 4.98524e-21)
(0.0219211 -0.00689055 -3.14476e-18)
(0.0217932 -0.00761927 -5.09747e-18)
(0.0216513 -0.00834863 3.64877e-19)
(0.0214953 -0.00907888 -4.07665e-18)
(0.0213256 -0.00981012 -5.33217e-18)
(0.0211408 -0.0105418 -6.2658e-18)
(0.0209412 -0.0112741 -3.64844e-18)
(0.020726 -0.0120066 -6.3529e-18)
(0.0204948 -0.0127391 -1.64953e-18)
(0.0202473 -0.0134713 2.50286e-19)
(0.0199828 -0.0142027 4.29582e-18)
(0.0197012 -0.0149331 5.65622e-18)
(0.0194015 -0.0156618 7.39699e-19)
(0.0190835 -0.0163884 6.51629e-18)
(0.0187457 -0.0171126 -5.19768e-19)
(0.0190345 -0.0171858 -2.89492e-18)
(0.022786 -0.00406886 2.53816e-18)
(0.0227089 -0.00481 2.16374e-18)
(0.022619 -0.00555183 7.49069e-18)
(0.0225157 -0.00629438 -5.06724e-19)
(0.0223995 -0.00703805 -4.55391e-18)
(0.0222686 -0.00778231 -4.94966e-18)
(0.0221233 -0.00852721 -2.15513e-20)
(0.0219632 -0.00927304 -3.9695e-18)
(0.021789 -0.0100197 -5.23734e-18)
(0.0215992 -0.0107668 -7.3352e-18)
(0.021394 -0.0115142 -3.39426e-18)
(0.0211726 -0.0122618 -6.97861e-18)
(0.0209348 -0.0130092 -2.40797e-18)
(0.0206802 -0.0137562 7.09476e-19)
(0.0204083 -0.0145023 6.23362e-18)
(0.0201188 -0.0152472 6.40975e-18)
(0.0198107 -0.0159902 6.28496e-19)
(0.0194838 -0.0167309 7.52081e-18)
(0.0191368 -0.0174689 2.86603e-19)
(0.0194144 -0.0175577 -2.7465e-18)
(0.0232849 -0.00415604 2.14676e-18)
(0.0232058 -0.00491305 1.4434e-18)
(0.0231136 -0.00567077 8.224e-18)
(0.0230076 -0.00642924 -8.28324e-19)
(0.0228882 -0.00718871 -5.50162e-18)
(0.0227538 -0.00794863 -4.56444e-18)
(0.0226043 -0.0087092 -5.72786e-19)
(0.0224398 -0.00947073 -3.78325e-18)
(0.0222604 -0.0102329 -5.52313e-18)
(0.0220653 -0.0109955 -8.72939e-18)
(0.0218542 -0.0117583 -2.81234e-18)
(0.0216264 -0.012521 -6.71655e-18)
(0.0213817 -0.0132836 -3.56468e-18)
(0.0211202 -0.0140457 4.63764e-19)
(0.0208407 -0.0148067 7.80034e-18)
(0.0205433 -0.0155665 6.84943e-18)
(0.0202268 -0.0163241 4.33226e-19)
(0.0198912 -0.0170793 7.92754e-18)
(0.0195351 -0.0178316 8.70183e-19)
(0.0198016 -0.0179366 -1.81481e-18)
(0.0237942 -0.00424499 1.84619e-18)
(0.0237128 -0.00501814 6.77877e-19)
(0.0236179 -0.00579199 8.39212e-18)
(0.0235088 -0.00656659 -9.99676e-19)
(0.0233857 -0.007342 -6.09597e-18)
(0.0232473 -0.00811779 -3.93254e-18)
(0.0230936 -0.00889426 -1.25718e-18)
(0.0229245 -0.00967168 -3.61564e-18)
(0.0227397 -0.0104496 -5.70476e-18)
(0.0225391 -0.0112278 -1.0597e-17)
(0.0223218 -0.0120062 -2.35745e-18)
(0.0220877 -0.0127845 -5.98706e-18)
(0.0218362 -0.0135625 -4.20807e-18)
(0.0215675 -0.01434 5.11429e-19)
(0.0212806 -0.0151163 9.05492e-18)
(0.0209751 -0.0158912 6.42649e-18)
(0.0206505 -0.0166639 1.32372e-20)
(0.0203061 -0.0174341 8.09126e-18)
(0.0199411 -0.0182013 1.17384e-18)
(0.0201965 -0.018323 -5.35445e-19)
(0.0243124 -0.00433547 1.83327e-18)
(0.0242286 -0.00512502 5.85041e-20)
(0.0241309 -0.00591528 8.2456e-18)
(0.0240186 -0.00670621 -1.10727e-18)
(0.0238915 -0.00749778 -6.79585e-18)
(0.0237491 -0.00828975 -3.38866e-18)
(0.0235911 -0.00908238 -1.41294e-18)
(0.0234172 -0.00987592 -3.76152e-18)