/*--------------------------------*- C++ -*----------------------------------*\
  =========                 |
  \\      /  F ield         | OpenFOAM: The Open Source CFD Toolbox
   \\    /   O peration     | Website:  https://openfoam.org
    \\  /    A nd           | Version:  7
     \\/     M anipulation  |
\*---------------------------------------------------------------------------*/
FoamFile
{
    version     2.0;
    format      ascii;
    class       volScalarField;
    location    "32000";
    object      nut;
}
// * * * * * * * * * * * * * * * * * * * * * * * * * * * * * * * * * * * * * //

dimensions      [0 2 -1 0 0 0 0];

internalField   nonuniform List<scalar> 
4764
(
6.86343e-15
6.86287e-15
6.86241e-15
6.86201e-15
6.86171e-15
6.86149e-15
6.87664e-15
6.87484e-15
6.8731e-15
6.87159e-15
6.87026e-15
6.86916e-15
6.86812e-15
6.86715e-15
6.86617e-15
6.86526e-15
6.86445e-15
6.86378e-15
6.86322e-15
6.8628e-15
6.86248e-15
6.86229e-15
6.86207e-15
6.86187e-15
6.86168e-15
6.86153e-15
6.86137e-15
6.86127e-15
6.86117e-15
6.8611e-15
6.86111e-15
6.86126e-15
6.86155e-15
6.86193e-15
6.86246e-15
6.88461e-15
6.88248e-15
6.88022e-15
6.87817e-15
6.87625e-15
6.87462e-15
6.87303e-15
6.87151e-15
6.87002e-15
6.86864e-15
6.86743e-15
6.86644e-15
6.86559e-15
6.86496e-15
6.86445e-15
6.86412e-15
6.86379e-15
6.86351e-15
6.86326e-15
6.8631e-15
6.86294e-15
6.86287e-15
6.86283e-15
6.86282e-15
6.86295e-15
6.86325e-15
6.86371e-15
6.86431e-15
6.86512e-15
6.86605e-15
6.86704e-15
6.86803e-15
6.8692e-15
6.89342e-15
6.89135e-15
6.88893e-15
6.88658e-15
6.88428e-15
6.88228e-15
6.88019e-15
6.87815e-15
6.87608e-15
6.87416e-15
6.87243e-15
6.871e-15
6.86975e-15
6.86883e-15
6.86804e-15
6.86751e-15
6.86698e-15
6.86658e-15
6.86626e-15
6.86607e-15
6.8659e-15
6.86591e-15
6.86594e-15
6.86603e-15
6.86635e-15
6.86689e-15
6.86759e-15
6.8685e-15
6.86972e-15
6.87109e-15
6.87255e-15
6.87397e-15
6.87563e-15
6.87752e-15
6.87963e-15
6.88199e-15
6.88444e-15
6.88757e-15
6.89067e-15
6.89389e-15
6.89705e-15
6.90042e-15
6.90326e-15
6.90604e-15
6.90945e-15
6.90175e-15
6.90025e-15
6.89809e-15
6.89588e-15
6.89358e-15
6.89154e-15
6.8892e-15
6.88681e-15
6.88428e-15
6.88188e-15
6.87963e-15
6.87778e-15
6.87609e-15
6.87485e-15
6.87373e-15
6.87297e-15
6.8722e-15
6.87165e-15
6.87121e-15
6.87102e-15
6.87084e-15
6.87093e-15
6.87106e-15
6.87127e-15
6.87184e-15
6.87266e-15
6.87364e-15
6.87487e-15
6.87655e-15
6.87837e-15
6.88025e-15
6.88201e-15
6.88401e-15
6.88627e-15
6.88868e-15
6.8913e-15
6.89383e-15
6.89709e-15
6.90005e-15
6.90299e-15
6.90557e-15
6.90828e-15
6.91009e-15
6.91158e-15
6.79771e-15
6.90803e-15
6.9077e-15
6.90629e-15
6.90467e-15
6.90286e-15
6.90121e-15
6.89899e-15
6.89655e-15
6.89382e-15
6.89114e-15
6.88856e-15
6.88639e-15
6.88434e-15
6.88289e-15
6.88145e-15
6.8805e-15
6.87949e-15
6.87881e-15
6.87826e-15
6.87807e-15
6.87786e-15
6.87806e-15
6.87829e-15
6.8786e-15
6.87939e-15
6.8805e-15
6.88169e-15
6.88319e-15
6.88522e-15
6.88739e-15
6.88951e-15
6.89138e-15
6.89345e-15
6.89578e-15
6.89811e-15
6.90057e-15
6.90274e-15
6.90569e-15
6.908e-15
6.91014e-15
6.91159e-15
6.89524e-15
6.69001e-15
6.50433e-15
6.33379e-15
6.73515e-15
6.91216e-15
6.9119e-15
6.91144e-15
6.91058e-15
6.90981e-15
6.90812e-15
6.90597e-15
6.90342e-15
6.90072e-15
6.89809e-15
6.89583e-15
6.89358e-15
6.89209e-15
6.89043e-15
6.88939e-15
6.88819e-15
6.88746e-15
6.8868e-15
6.88665e-15
6.88642e-15
6.88674e-15
6.887e-15
6.88734e-15
6.88833e-15
6.88964e-15
6.89087e-15
6.89248e-15
6.89471e-15
6.89701e-15
6.89912e-15
6.90074e-15
6.90257e-15
6.90455e-15
6.90638e-15
6.90829e-15
6.90962e-15
6.91173e-15
6.91295e-15
6.73953e-15
6.56357e-15
6.40201e-15
6.25286e-15
6.11611e-15
5.98885e-15
6.28131e-15
6.42083e-15
6.56755e-15
6.72294e-15
6.8862e-15
6.91563e-15
6.9149e-15
6.91344e-15
6.91149e-15
6.90907e-15
6.90667e-15
6.90461e-15
6.90241e-15
6.90107e-15
6.89938e-15
6.89837e-15
6.89712e-15
6.89641e-15
6.89569e-15
6.89558e-15
6.89532e-15
6.89579e-15
6.89599e-15
6.89626e-15
6.89739e-15
6.89874e-15
6.89988e-15
6.90136e-15
6.90354e-15
6.90575e-15
6.90756e-15
6.90855e-15
6.90978e-15
6.91095e-15
6.91191e-15
6.88462e-15
6.72196e-15
6.56868e-15
6.42293e-15
6.28608e-15
6.15728e-15
6.03806e-15
5.9266e-15
5.82316e-15
5.72586e-15
5.94403e-15
6.04858e-15
6.15715e-15
6.27074e-15
6.38911e-15
6.51231e-15
6.63759e-15
6.76427e-15
6.89144e-15
6.9145e-15
6.91265e-15
6.91108e-15
6.90916e-15
6.90823e-15
6.90666e-15
6.90593e-15
6.90465e-15
6.90412e-15
6.90339e-15
6.90334e-15
6.90308e-15
6.90369e-15
6.90371e-15
6.9038e-15
6.90497e-15
6.90621e-15
6.90711e-15
6.90825e-15
6.91012e-15
6.91198e-15
6.91309e-15
6.88743e-15
6.75992e-15
6.63329e-15
6.50866e-15
6.38767e-15
6.2701e-15
6.15838e-15
6.05089e-15
5.94917e-15
5.85229e-15
5.76231e-15
5.67708e-15
5.59703e-15
5.52115e-15
5.68711e-15
5.76733e-15
5.84978e-15
5.93511e-15
6.02369e-15
6.11526e-15
6.20706e-15
6.29912e-15
6.39038e-15
6.47971e-15
6.56718e-15
6.6512e-15
6.72986e-15
6.80354e-15
6.8685e-15
6.91032e-15
6.9092e-15
6.90889e-15
6.90826e-15
6.90829e-15
6.90802e-15
6.90872e-15
6.90855e-15
6.90836e-15
6.90937e-15
6.86867e-15
6.80251e-15
6.72875e-15
6.64982e-15
6.56609e-15
6.47801e-15
6.38642e-15
6.29475e-15
6.20284e-15
6.11138e-15
6.02222e-15
5.93473e-15
5.85115e-15
5.76998e-15
5.69243e-15
5.61803e-15
5.54877e-15
5.48224e-15
5.41894e-15
5.35862e-15
5.48712e-15
5.5499e-15
5.61408e-15
5.67972e-15
5.74773e-15
5.8177e-15
5.88661e-15
5.95547e-15
6.02285e-15
6.08817e-15
6.15191e-15
6.21287e-15
6.26939e-15
6.32235e-15
6.36852e-15
6.40946e-15
6.44219e-15
6.468e-15
6.48505e-15
6.49425e-15
6.49397e-15
6.48618e-15
6.46825e-15
6.44188e-15
6.40897e-15
6.36891e-15
6.32139e-15
6.26834e-15
6.21167e-15
6.15105e-15
6.08674e-15
6.01902e-15
5.95104e-15
5.88243e-15
5.8134e-15
5.74608e-15
5.67955e-15
5.61546e-15
5.55282e-15
5.49245e-15
5.43428e-15
5.37984e-15
5.32686e-15
5.27588e-15
5.22701e-15
5.32829e-15
5.37845e-15
5.42952e-15
5.48107e-15
5.53432e-15
5.58917e-15
5.64205e-15
5.69481e-15
5.74573e-15
5.79475e-15
5.8422e-15
5.88762e-15
5.92943e-15
5.96847e-15
6.00233e-15
6.03254e-15
6.05615e-15
6.07522e-15
6.0875e-15
6.0943e-15
6.09398e-15
6.08865e-15
6.07534e-15
6.05595e-15
6.03187e-15
6.00288e-15
5.96768e-15
5.92845e-15
5.88665e-15
5.84165e-15
5.79338e-15
5.74192e-15
5.69031e-15
5.63788e-15
5.58467e-15
5.53275e-15
5.4809e-15
5.43093e-15
5.38141e-15
5.33343e-15
5.28725e-15
5.24347e-15
5.20039e-15
5.15859e-15
5.11796e-15
5.19934e-15
5.24047e-15
5.28205e-15
5.32336e-15
5.36592e-15
5.40986e-15
5.45142e-15
5.49259e-15
5.53184e-15
5.56954e-15
5.60551e-15
5.64018e-15
5.67172e-15
5.70117e-15
5.7264e-15
5.74931e-15
5.76683e-15
5.78135e-15
5.79037e-15
5.79557e-15
5.79518e-15
5.79142e-15
5.78124e-15
5.76667e-15
5.74849e-15
5.72733e-15
5.70056e-15
5.67084e-15
5.63939e-15
5.60527e-15
5.56807e-15
5.52819e-15
5.4882e-15
5.44705e-15
5.4051e-15
5.36448e-15
5.32321e-15
5.28329e-15
5.24348e-15
5.20454e-15
5.16693e-15
5.13099e-15
5.09516e-15
5.06021e-15
5.02551e-15
5.05643e-15
5.09232e-15
5.12704e-15
5.16149e-15
5.19553e-15
5.23024e-15
5.26619e-15
5.29953e-15
5.33255e-15
5.36317e-15
5.3929e-15
5.42061e-15
5.44752e-15
5.47175e-15
5.49443e-15
5.51352e-15
5.53154e-15
5.54472e-15
5.55593e-15
5.56261e-15
5.56673e-15
5.56645e-15
5.56366e-15
5.55565e-15
5.54442e-15
5.53057e-15
5.51481e-15
5.49394e-15
5.47114e-15
5.44706e-15
5.42064e-15
5.39142e-15
5.35974e-15
5.32799e-15
5.2952e-15
5.26136e-15
5.22879e-15
5.19517e-15
5.1626e-15
5.12988e-15
5.09776e-15
5.06637e-15
5.03625e-15
5.00572e-15
4.97551e-15
4.94534e-15
4.97035e-15
5.00155e-15
5.03137e-15
5.06065e-15
5.08937e-15
5.11856e-15
5.14876e-15
5.17584e-15
5.20297e-15
5.22727e-15
5.25127e-15
5.27309e-15
5.29442e-15
5.31342e-15
5.33102e-15
5.34586e-15
5.36026e-15
5.37041e-15
5.37936e-15
5.38426e-15
5.38771e-15
5.38728e-15
5.38523e-15
5.37897e-15
5.37003e-15
5.3591e-15
5.34732e-15
5.33064e-15
5.3128e-15
5.29429e-15
5.27339e-15
5.24977e-15
5.22422e-15
5.19826e-15
5.17154e-15
5.14357e-15
5.11691e-15
5.08908e-15
5.06188e-15
5.03432e-15
5.00693e-15
4.98029e-15
4.9542e-15
4.92747e-15
4.9008e-15
4.87393e-15
4.89447e-15
4.92229e-15
4.94883e-15
4.97436e-15
4.99924e-15
5.02441e-15
5.05026e-15
5.07274e-15
5.09565e-15
5.1155e-15
5.13514e-15
5.15278e-15
5.16992e-15
5.18534e-15
5.19925e-15
5.21088e-15
5.22259e-15
5.23073e-15
5.23786e-15
5.24164e-15
5.24465e-15
5.24408e-15
5.24259e-15
5.23758e-15
5.23006e-15
5.22138e-15
5.21244e-15
5.19871e-15
5.18472e-15
5.17008e-15
5.15342e-15
5.13383e-15
5.11251e-15
5.09098e-15
5.06847e-15
5.04472e-15
5.02241e-15
4.99875e-15
4.97543e-15
4.95161e-15
4.92785e-15
4.90458e-15
4.88117e-15
4.85712e-15
4.83313e-15
4.80832e-15
4.80053e-15
4.82594e-15
4.85131e-15
4.87556e-15
4.89851e-15
4.9204e-15
4.94295e-15
4.96574e-15
4.98474e-15
5.00449e-15
5.02105e-15
5.03782e-15
5.05239e-15
5.06642e-15
5.07908e-15
5.09029e-15
5.09978e-15
5.10937e-15
5.11601e-15
5.12201e-15
5.12493e-15
5.12753e-15
5.12704e-15
5.12574e-15
5.12166e-15
5.11527e-15
5.10828e-15
5.10128e-15
5.08984e-15
5.0786e-15
5.06667e-15
5.05311e-15
5.03657e-15
5.01837e-15
5.00004e-15
4.98034e-15
4.95981e-15
4.94069e-15
4.92e-15
4.89946e-15
4.87828e-15
4.85707e-15
4.83596e-15
4.81459e-15
4.79234e-15
4.7699e-15
4.74666e-15
4.73821e-15
4.76202e-15
4.78599e-15
4.8085e-15
4.82967e-15
4.84972e-15
4.87025e-15
4.89092e-15
4.90734e-15
4.92493e-15
4.93931e-15
4.95384e-15
4.96643e-15
4.97796e-15
4.98865e-15
4.99811e-15
5.00604e-15
5.01389e-15
5.01959e-15
5.02489e-15
5.02714e-15
5.02942e-15
5.02879e-15
5.02788e-15
5.0244e-15
5.01878e-15
5.01285e-15
5.00732e-15
4.99747e-15
4.98852e-15
4.97856e-15
4.9672e-15
4.95289e-15
4.93688e-15
4.92062e-15
4.90311e-15
4.88483e-15
4.86777e-15
4.84931e-15
4.83077e-15
4.81114e-15
4.79167e-15
4.77201e-15
4.75217e-15
4.73081e-15
4.70946e-15
4.68697e-15
4.65525e-15
4.67829e-15
4.70108e-15
4.72422e-15
4.74565e-15
4.76568e-15
4.7845e-15
4.80372e-15
4.82277e-15
4.83754e-15
4.85363e-15
4.86645e-15
4.87929e-15
4.8905e-15
4.90045e-15
4.90978e-15
4.91772e-15
4.92452e-15
4.93129e-15
4.93634e-15
4.94126e-15
4.9429e-15
4.94482e-15
4.94406e-15
4.94345e-15
4.94041e-15
4.93546e-15
4.93027e-15
4.92571e-15
4.91713e-15
4.90967e-15
4.90108e-15
4.89134e-15
4.87857e-15
4.86431e-15
4.8494e-15
4.8332e-15
4.81644e-15
4.80081e-15
4.78386e-15
4.76664e-15
4.7482e-15
4.72978e-15
4.71105e-15
4.69189e-15
4.67092e-15
4.65015e-15
4.62819e-15
4.59642e-15
4.61933e-15
4.64155e-15
4.66409e-15
4.68492e-15
4.70456e-15
4.72266e-15
4.74084e-15
4.75889e-15
4.77272e-15
4.78766e-15
4.79968e-15
4.81113e-15
4.82143e-15
4.83025e-15
4.83868e-15
4.84577e-15
4.85174e-15
4.85782e-15
4.86217e-15
4.86691e-15
4.86824e-15
4.86992e-15
4.86908e-15
4.86874e-15
4.86574e-15
4.86149e-15
4.85678e-15
4.85269e-15
4.84513e-15
4.8386e-15
4.83119e-15
4.82235e-15
4.81086e-15
4.79779e-15
4.78374e-15
4.76833e-15
4.75252e-15
4.73782e-15
4.72159e-15
4.70542e-15
4.68737e-15
4.66952e-15
4.65145e-15
4.63264e-15
4.61157e-15
4.59097e-15
4.5692e-15
4.53689e-15
4.55997e-15
4.58214e-15
4.60457e-15
4.62493e-15
4.64452e-15
4.66227e-15
4.67988e-15
4.69741e-15
4.71088e-15
4.72491e-15
4.73645e-15
4.74724e-15
4.75676e-15
4.76498e-15
4.77271e-15
4.77939e-15
4.78459e-15
4.79023e-15
4.79428e-15
4.79882e-15
4.80014e-15
4.80161e-15
4.80072e-15
4.80037e-15
4.79759e-15
4.79358e-15
4.78916e-15
4.78558e-15
4.77868e-15
4.77261e-15
4.7662e-15
4.75791e-15
4.7471e-15
4.73505e-15
4.72147e-15
4.70645e-15
4.69116e-15
4.67676e-15
4.66084e-15
4.64529e-15
4.62753e-15
4.60987e-15
4.5918e-15
4.57303e-15
4.55179e-15
4.53105e-15
4.50908e-15
4.4761e-15
4.49959e-15
4.52197e-15
4.54433e-15
4.56479e-15
4.58462e-15
4.60208e-15
4.61945e-15
4.63681e-15
4.65016e-15
4.66369e-15
4.67505e-15
4.6857e-15
4.6947e-15
4.70266e-15
4.70973e-15
4.71645e-15
4.72113e-15
4.72645e-15
4.73038e-15
4.73481e-15
4.73592e-15
4.73728e-15
4.73647e-15
4.73596e-15
4.73355e-15
4.72943e-15
4.7254e-15
4.72218e-15
4.71541e-15
4.70987e-15
4.70387e-15
4.69587e-15
4.68564e-15
4.67406e-15
4.66064e-15
4.64569e-15
4.63085e-15
4.61623e-15
4.60031e-15
4.58508e-15
4.56723e-15
4.54949e-15
4.53135e-15
4.51221e-15
4.49074e-15
4.46963e-15
4.44723e-15
4.41318e-15
4.43748e-15
4.46017e-15
4.48258e-15
4.50332e-15
4.52361e-15
4.54104e-15
4.55843e-15
4.57591e-15
4.58935e-15
4.60266e-15
4.61405e-15
4.62497e-15
4.63376e-15
4.64141e-15
4.64827e-15
4.65524e-15
4.65953e-15
4.66463e-15
4.66853e-15
4.6728e-15
4.674e-15
4.67504e-15
4.67453e-15
4.67388e-15
4.67175e-15
4.66737e-15
4.66358e-15
4.66044e-15
4.65387e-15
4.64866e-15
4.6429e-15
4.63498e-15
4.62478e-15
4.61371e-15
4.60022e-15
4.58509e-15
4.57039e-15
4.55539e-15
4.53921e-15
4.52381e-15
4.50588e-15
4.48782e-15
4.46914e-15
4.44948e-15
4.42754e-15
4.40588e-15
4.38311e-15
4.32219e-15
4.34788e-15
4.37284e-15
4.39616e-15
4.4189e-15
4.43984e-15
4.46078e-15
4.47859e-15
4.49618e-15
4.51378e-15
4.52745e-15
4.54101e-15
4.55261e-15
4.56368e-15
4.57269e-15
4.58024e-15
4.58704e-15
4.59412e-15
4.59839e-15
4.60342e-15
4.60709e-15
4.61132e-15
4.61286e-15
4.61341e-15
4.61332e-15
4.61254e-15
4.61044e-15
4.606e-15
4.60227e-15
4.59898e-15
4.59268e-15
4.58738e-15
4.5817e-15
4.57396e-15
4.56364e-15
4.5526e-15
4.53886e-15
4.5236e-15
4.50885e-15
4.49307e-15
4.47666e-15
4.46073e-15
4.44247e-15
4.42395e-15
4.40477e-15
4.38429e-15
4.36199e-15
4.33963e-15
4.3163e-15
4.2248e-15
4.2535e-15
4.27957e-15
4.30552e-15
4.32955e-15
4.35251e-15
4.37403e-15
4.39576e-15
4.41403e-15
4.43198e-15
4.44992e-15
4.46367e-15
4.47788e-15
4.48981e-15
4.50112e-15
4.51051e-15
4.51784e-15
4.52497e-15
4.53204e-15
4.53659e-15
4.54157e-15
4.54494e-15
4.5494e-15
4.55105e-15
4.55145e-15
4.55146e-15
4.55055e-15
4.54848e-15
4.54414e-15
4.54015e-15
4.53671e-15
4.53047e-15
4.52529e-15
4.51956e-15
4.51185e-15
4.50124e-15
4.48988e-15
4.47575e-15
4.46043e-15
4.44523e-15
4.42858e-15
4.41194e-15
4.39542e-15
4.37667e-15
4.35762e-15
4.33758e-15
4.31623e-15
4.29345e-15
4.27028e-15
4.2463e-15
4.15233e-15
4.1815e-15
4.208e-15
4.23496e-15
4.25974e-15
4.2833e-15
4.30545e-15
4.32783e-15
4.34687e-15
4.36521e-15
4.38347e-15
4.39765e-15
4.41233e-15
4.42469e-15
4.43661e-15
4.44647e-15
4.45371e-15
4.46097e-15
4.46817e-15
4.47317e-15
4.47821e-15
4.48141e-15
4.4859e-15
4.48767e-15
4.48817e-15
4.48824e-15
4.48727e-15
4.48495e-15
4.48087e-15
4.47662e-15
4.47275e-15
4.46671e-15
4.46127e-15
4.45559e-15
4.44787e-15
4.43683e-15
4.42505e-15
4.41049e-15
4.3947e-15
4.37901e-15
4.36164e-15
4.34463e-15
4.32721e-15
4.30787e-15
4.2882e-15
4.26748e-15
4.2452e-15
4.22189e-15
4.19761e-15
4.17291e-15
4.07634e-15
4.10603e-15
4.13319e-15
4.1612e-15
4.1867e-15
4.21072e-15
4.23376e-15
4.25691e-15
4.27648e-15
4.29546e-15
4.31404e-15
4.32886e-15
4.34392e-15
4.35675e-15
4.36931e-15
4.37971e-15
4.38719e-15
4.39442e-15
4.40209e-15
4.40754e-15
4.41245e-15
4.41576e-15
4.42037e-15
4.42224e-15
4.42283e-15
4.42272e-15
4.42184e-15
4.4193e-15
4.41521e-15
4.41067e-15
4.40641e-15
4.40042e-15
4.39471e-15
4.38897e-15
4.38117e-15
4.36984e-15
4.35762e-15
4.34254e-15
4.32598e-15
4.30999e-15
4.29179e-15
4.27411e-15
4.25601e-15
4.23599e-15
4.21544e-15
4.1942e-15
4.17094e-15
4.14685e-15
4.12171e-15
4.09624e-15
3.99694e-15
4.027e-15
4.05499e-15
4.08386e-15
4.11029e-15
4.13462e-15
4.15852e-15
4.18249e-15
4.20285e-15
4.22227e-15
4.24131e-15
4.25688e-15
4.27225e-15
4.28559e-15
4.29882e-15
4.30981e-15
4.31754e-15
4.32509e-15
4.33301e-15
4.33892e-15
4.34395e-15
4.34735e-15
4.35196e-15
4.35409e-15
4.35484e-15
4.3546e-15
4.35373e-15
4.35096e-15
4.34683e-15
4.34198e-15
4.33715e-15
4.3314e-15
4.32537e-15
4.31951e-15
4.31135e-15
4.29984e-15
4.28692e-15
4.27126e-15
4.2541e-15
4.23758e-15
4.21872e-15
4.20036e-15
4.18132e-15
4.16081e-15
4.13937e-15
4.11734e-15
4.09322e-15
4.06846e-15
4.04223e-15
4.01619e-15
3.914e-15
3.94459e-15
3.97335e-15
4.0029e-15
4.03022e-15
4.05509e-15
4.07984e-15
4.10445e-15
4.12577e-15
4.14547e-15
4.16527e-15
4.18147e-15
4.19706e-15
4.21093e-15
4.22503e-15
4.23672e-15
4.24463e-15
4.25232e-15
4.26056e-15
4.26694e-15
4.27212e-15
4.27577e-15
4.28027e-15
4.28264e-15
4.28372e-15
4.28317e-15
4.28233e-15
4.27949e-15
4.2753e-15
4.2702e-15
4.26483e-15
4.25899e-15
4.2526e-15
4.24684e-15
4.23807e-15
4.22629e-15
4.21293e-15
4.19666e-15
4.17884e-15
4.16161e-15
4.14222e-15
4.12311e-15
4.10322e-15
4.08196e-15
4.05978e-15
4.03686e-15
4.01206e-15
3.98664e-15
3.95937e-15
3.93254e-15
3.82757e-15
3.8588e-15
3.88826e-15
3.91852e-15
3.94663e-15
3.97205e-15
3.99744e-15
4.02273e-15
4.0449e-15
4.06493e-15
4.08551e-15
4.1023e-15
4.11841e-15
4.13279e-15
4.14752e-15
4.15992e-15
4.16804e-15
4.17612e-15
4.18471e-15
4.19135e-15
4.19669e-15
4.20057e-15
4.20518e-15
4.20782e-15
4.20899e-15
4.2084e-15
4.20733e-15
4.20464e-15
4.20038e-15
4.19477e-15
4.1891e-15
4.18293e-15
4.1764e-15
4.17046e-15
4.16112e-15
4.14902e-15
4.1352e-15
4.11853e-15
4.09982e-15
4.08192e-15
4.06216e-15
4.04212e-15
4.0216e-15
3.9994e-15
3.9765e-15
3.95274e-15
3.92724e-15
3.90121e-15
3.87314e-15
3.84555e-15
3.73775e-15
3.76968e-15
3.79979e-15
3.83055e-15
3.85942e-15
3.88551e-15
3.91133e-15
3.93729e-15
3.96044e-15
3.98082e-15
4.00198e-15
4.01955e-15
4.03594e-15
4.05102e-15
4.06618e-15
4.07932e-15
4.08765e-15
4.09623e-15
4.10503e-15
4.11195e-15
4.11747e-15
4.12155e-15
4.12653e-15
4.12934e-15
4.13045e-15
4.13003e-15
4.12872e-15
4.12597e-15
4.12163e-15
4.11577e-15
4.10979e-15
4.10323e-15
4.09657e-15
4.09027e-15
4.08035e-15
4.06812e-15
4.05385e-15
4.03654e-15
4.01697e-15
3.9987e-15
3.97828e-15
3.95757e-15
3.93623e-15
3.91335e-15
3.88975e-15
3.865e-15
3.83903e-15
3.81225e-15
3.78341e-15
3.75527e-15
3.64479e-15
3.67731e-15
3.70805e-15
3.73928e-15
3.76867e-15
3.79553e-15
3.82177e-15
3.84838e-15
3.87222e-15
3.8931e-15
3.9149e-15
3.93295e-15
3.94964e-15
3.96558e-15
3.98113e-15
3.99486e-15
4.00358e-15
4.01263e-15
4.02168e-15
4.02888e-15
4.0345e-15
4.03885e-15
4.04395e-15
4.04693e-15
4.04824e-15
4.0477e-15
4.04634e-15
4.04354e-15
4.03897e-15
4.03305e-15
4.02654e-15
4.01983e-15
4.01302e-15
4.00618e-15
3.99592e-15
3.98332e-15
3.96862e-15
3.9507e-15
3.9305e-15
3.91167e-15
3.89083e-15
3.86946e-15
3.84718e-15
3.82383e-15
3.79938e-15
3.77392e-15
3.74732e-15
3.72006e-15
3.69045e-15
3.66168e-15
3.54874e-15
3.58173e-15
3.613e-15
3.64466e-15
3.67454e-15
3.70205e-15
3.72883e-15
3.75587e-15
3.78036e-15
3.80184e-15
3.82408e-15
3.84258e-15
3.85975e-15
3.87627e-15
3.89242e-15
3.90655e-15
3.91558e-15
3.92528e-15
3.93438e-15
3.94185e-15
3.94774e-15
3.95238e-15
3.95743e-15
3.96077e-15
3.96203e-15
3.96157e-15
3.96e-15
3.95715e-15
3.95259e-15
3.94635e-15
3.93957e-15
3.93269e-15
3.92551e-15
3.91841e-15
3.90758e-15
3.89465e-15
3.87955e-15
3.86127e-15
3.84041e-15
3.82114e-15
3.79984e-15
3.77768e-15
3.75474e-15
3.73076e-15
3.70572e-15
3.67959e-15
3.65244e-15
3.62476e-15
3.59445e-15
3.56515e-15
3.44995e-15
3.48332e-15
3.51501e-15
3.54704e-15
3.57718e-15
3.60542e-15
3.63264e-15
3.65992e-15
3.68499e-15
3.70716e-15
3.72967e-15
3.74873e-15
3.76633e-15
3.7834e-15
3.79989e-15
3.81446e-15
3.82392e-15
3.83403e-15
3.84341e-15
3.85094e-15
3.8572e-15
3.86217e-15
3.8672e-15
3.87081e-15
3.87204e-15
3.8717e-15
3.86972e-15
3.86698e-15
3.86226e-15
3.85589e-15
3.84887e-15
3.84184e-15
3.83433e-15
3.82696e-15
3.81563e-15
3.80239e-15
3.78673e-15
3.76812e-15
3.7468e-15
3.72697e-15
3.70525e-15
3.68256e-15
3.659e-15
3.63431e-15
3.60873e-15
3.5821e-15
3.55454e-15
3.52636e-15
3.49543e-15
3.46569e-15
3.34849e-15
3.38225e-15
3.41429e-15
3.44661e-15
3.4768e-15
3.50564e-15
3.53339e-15
3.56088e-15
3.58645e-15
3.60904e-15
3.63181e-15
3.65151e-15
3.66944e-15
3.68706e-15
3.70388e-15
3.7187e-15
3.72869e-15
3.7392e-15
3.74863e-15
3.7564e-15
3.76302e-15
3.76809e-15
3.77311e-15
3.77697e-15
3.77817e-15
3.77797e-15
3.7758e-15
3.77296e-15
3.7681e-15
3.76159e-15
3.75454e-15
3.74719e-15
3.73935e-15
3.73176e-15
3.71996e-15
3.70644e-15
3.69029e-15
3.67141e-15
3.64962e-15
3.62952e-15
3.60725e-15
3.58406e-15
3.55996e-15
3.53466e-15
3.50878e-15
3.48172e-15
3.45367e-15
3.42511e-15
3.39377e-15
3.36371e-15
3.24475e-15
3.27874e-15
3.31092e-15
3.34346e-15
3.37372e-15
3.40307e-15
3.43112e-15
3.45893e-15
3.48493e-15
3.50785e-15
3.53085e-15
3.55111e-15
3.56931e-15
3.58742e-15
3.60453e-15
3.61962e-15
3.63002e-15
3.64091e-15
3.6504e-15
3.6582e-15
3.66513e-15
3.67033e-15
3.67551e-15
3.67943e-15
3.68078e-15
3.68055e-15
3.67833e-15
3.67524e-15
3.67043e-15
3.6638e-15
3.65664e-15
3.64893e-15
3.64093e-15
3.63299e-15
3.62076e-15
3.607e-15
3.59053e-15
3.57133e-15
3.54908e-15
3.52878e-15
3.50603e-15
3.48254e-15
3.45803e-15
3.4322e-15
3.40607e-15
3.37866e-15
3.35022e-15
3.3214e-15
3.28966e-15
3.25929e-15
3.13886e-15
3.17297e-15
3.20532e-15
3.23786e-15
3.26824e-15
3.29785e-15
3.32627e-15
3.35415e-15
3.38065e-15
3.40382e-15
3.42693e-15
3.44757e-15
3.46615e-15
3.48452e-15
3.50185e-15
3.51721e-15
3.52812e-15
3.53919e-15
3.54889e-15
3.55673e-15
3.56388e-15
3.56922e-15
3.57435e-15
3.57849e-15
3.57981e-15
3.57961e-15
3.5773e-15
3.57418e-15
3.56936e-15
3.56249e-15
3.55526e-15
3.54723e-15
3.53924e-15
3.53086e-15
3.51835e-15
3.50445e-15
3.48769e-15
3.46808e-15
3.44557e-15
3.42499e-15
3.40199e-15
3.37821e-15
3.35342e-15
3.32714e-15
3.30085e-15
3.27316e-15
3.24443e-15
3.21545e-15
3.18336e-15
3.15274e-15
3.03114e-15
3.06525e-15
3.09775e-15
3.13011e-15
3.1606e-15
3.19041e-15
3.21894e-15
3.24696e-15
3.27373e-15
3.29703e-15
3.32021e-15
3.34118e-15
3.36002e-15
3.37863e-15
3.3963e-15
3.41173e-15
3.42306e-15
3.43428e-15
3.44415e-15
3.45215e-15
3.45951e-15
3.46492e-15
3.47006e-15
3.47422e-15
3.47564e-15
3.47553e-15
3.47312e-15
3.46997e-15
3.46515e-15
3.45807e-15
3.45063e-15
3.44247e-15
3.43433e-15
3.4256e-15
3.41299e-15
3.39884e-15
3.38184e-15
3.36207e-15
3.33932e-15
3.31858e-15
3.29536e-15
3.27138e-15
3.24625e-15
3.21974e-15
3.19324e-15
3.1655e-15
3.13658e-15
3.10756e-15
3.07521e-15
3.04445e-15
2.92198e-15
2.95588e-15
2.98841e-15
3.02063e-15
3.0511e-15
3.0809e-15
3.10958e-15
3.13764e-15
3.16447e-15
3.18796e-15
3.21115e-15
3.23222e-15
3.25139e-15
3.27017e-15
3.28795e-15
3.30344e-15
3.31511e-15
3.32646e-15
3.33645e-15
3.34472e-15
3.35212e-15
3.35768e-15
3.36286e-15
3.36692e-15
3.36851e-15
3.36837e-15
3.36601e-15
3.3627e-15
3.35789e-15
3.35063e-15
3.34303e-15
3.3349e-15
3.32665e-15
3.31764e-15
3.30492e-15
3.29047e-15
3.27343e-15
3.2534e-15
3.23059e-15
3.20966e-15
3.18643e-15
3.16232e-15
3.13683e-15
3.11026e-15
3.08358e-15
3.05597e-15
3.02685e-15
2.9979e-15
2.96549e-15
2.93472e-15
2.81169e-15
2.84528e-15
2.87763e-15
2.9096e-15
2.94006e-15
2.96976e-15
2.99847e-15
3.02649e-15
3.0532e-15
3.07688e-15
3.10001e-15
3.12114e-15
3.14053e-15
3.15938e-15
3.17728e-15
3.19279e-15
3.20473e-15
3.21602e-15
3.22611e-15
3.23472e-15
3.24201e-15
3.24778e-15
3.25298e-15
3.25685e-15
3.25858e-15
3.25844e-15
3.2561e-15
3.25267e-15
3.24804e-15
3.2406e-15
3.23283e-15
3.22465e-15
3.21647e-15
3.2071e-15
3.19431e-15
3.17963e-15
3.1626e-15
3.14248e-15
3.11965e-15
3.09854e-15
3.07536e-15
3.05122e-15
3.02549e-15
2.99904e-15
2.97229e-15
2.94478e-15
2.91567e-15
2.88682e-15
2.85448e-15
2.82386e-15
2.7005e-15
2.73376e-15
2.76583e-15
2.79746e-15
2.82768e-15
2.85719e-15
2.88584e-15
2.91383e-15
2.94034e-15
2.96399e-15
2.987e-15
3.00822e-15
3.02776e-15
3.04649e-15
3.06445e-15
3.08002e-15
3.09207e-15
3.10341e-15
3.11356e-15
3.12245e-15
3.12965e-15
3.13552e-15
3.14078e-15
3.14442e-15
3.14633e-15
3.14618e-15
3.14388e-15
3.14033e-15
3.13584e-15
3.12824e-15
3.12038e-15
3.11218e-15
3.10396e-15
3.09432e-15
3.08158e-15
3.06666e-15
3.04968e-15
3.02967e-15
3.00687e-15
2.98569e-15
2.96251e-15
2.93842e-15
2.91266e-15
2.8864e-15
2.85968e-15
2.83228e-15
2.80336e-15
2.77464e-15
2.74254e-15
2.71208e-15
2.58882e-15
2.62164e-15
2.65333e-15
2.68444e-15
2.71443e-15
2.74362e-15
2.77213e-15
2.79989e-15
2.82622e-15
2.84967e-15
2.87248e-15
2.89381e-15
2.91329e-15
2.93198e-15
2.94982e-15
2.9655e-15
2.97762e-15
2.98896e-15
2.99908e-15
3.00813e-15
3.0152e-15
3.02125e-15
3.02645e-15
3.03001e-15
3.03207e-15
3.03188e-15
3.0296e-15
3.02599e-15
3.02154e-15
3.01393e-15
3.00601e-15
2.99781e-15
2.98949e-15
2.97975e-15
2.96698e-15
2.952e-15
2.93515e-15
2.91518e-15
2.89245e-15
2.87139e-15
2.84833e-15
2.82438e-15
2.79865e-15
2.77268e-15
2.74607e-15
2.7188e-15
2.69016e-15
2.6617e-15
2.62999e-15
2.59975e-15
2.47691e-15
2.50926e-15
2.54039e-15
2.57098e-15
2.60054e-15
2.6294e-15
2.65767e-15
2.68513e-15
2.71113e-15
2.73438e-15
2.7569e-15
2.77815e-15
2.7976e-15
2.81607e-15
2.83387e-15
2.84956e-15
2.86159e-15
2.87288e-15
2.88306e-15
2.89212e-15
2.89904e-15
2.90522e-15
2.91037e-15
2.91389e-15
2.91602e-15
2.9158e-15
2.91354e-15
2.90997e-15
2.90563e-15
2.89797e-15
2.88994e-15
2.88189e-15
2.87353e-15
2.86362e-15
2.85087e-15
2.83589e-15
2.81923e-15
2.79938e-15
2.77688e-15
2.75591e-15
2.73305e-15
2.70943e-15
2.68382e-15
2.65813e-15
2.63182e-15
2.60478e-15
2.5765e-15
2.54834e-15
2.51709e-15
2.48727e-15
2.36517e-15
2.39688e-15
2.42743e-15
2.4574e-15
2.48644e-15
2.51489e-15
2.54283e-15
2.56989e-15
2.59549e-15
2.61836e-15
2.6406e-15
2.66161e-15
2.68105e-15
2.69924e-15
2.71683e-15
2.73248e-15
2.74436e-15
2.75568e-15
2.76583e-15
2.77489e-15
2.78166e-15
2.78791e-15
2.79302e-15
2.79649e-15
2.79858e-15
2.79843e-15
2.7962e-15
2.79266e-15
2.78836e-15
2.78072e-15
2.77267e-15
2.76468e-15
2.75632e-15
2.74642e-15
2.73371e-15
2.71881e-15
2.70229e-15
2.68263e-15
2.66051e-15
2.63964e-15
2.61705e-15
2.59382e-15
2.56851e-15
2.54311e-15
2.51726e-15
2.49053e-15
2.46272e-15
2.43492e-15
2.40427e-15
2.37489e-15
2.25387e-15
2.28489e-15
2.31478e-15
2.34404e-15
2.37246e-15
2.40042e-15
2.42787e-15
2.45446e-15
2.47965e-15
2.50208e-15
2.52395e-15
2.54458e-15
2.564e-15
2.58177e-15
2.59911e-15
2.61466e-15
2.62643e-15
2.63771e-15
2.64779e-15
2.65673e-15
2.66341e-15
2.6697e-15
2.67476e-15
2.67816e-15
2.68013e-15
2.68005e-15
2.6779e-15
2.6744e-15
2.67011e-15
2.66251e-15
2.65455e-15
2.64657e-15
2.63833e-15
2.62841e-15
2.61579e-15
2.60111e-15
2.58472e-15
2.56532e-15
2.54369e-15
2.52304e-15
2.50078e-15
2.47803e-15
2.45307e-15
2.42806e-15
2.40268e-15
2.37642e-15
2.34917e-15
2.32176e-15
2.29185e-15
2.26302e-15
2.14335e-15
2.17358e-15
2.20273e-15
2.23126e-15
2.25897e-15
2.28635e-15
2.31324e-15
2.33927e-15
2.36389e-15
2.38589e-15
2.40729e-15
2.42751e-15
2.44674e-15
2.46403e-15
2.48107e-15
2.49649e-15
2.50815e-15
2.51934e-15
2.52924e-15
2.53814e-15
2.54464e-15
2.55089e-15
2.55589e-15
2.55927e-15
2.56116e-15
2.56104e-15
2.55904e-15
2.55553e-15
2.55129e-15
2.54382e-15
2.53597e-15
2.52804e-15
2.51988e-15
2.50999e-15
2.49759e-15
2.48308e-15
2.46696e-15
2.44791e-15
2.4268e-15
2.40637e-15
2.3846e-15
2.36234e-15
2.33787e-15
2.31334e-15
2.28844e-15
2.26279e-15
2.23611e-15
2.20928e-15
2.18016e-15
2.15198e-15
2.03397e-15
2.06335e-15
2.09166e-15
2.11937e-15
2.14631e-15
2.17303e-15
2.19922e-15
2.22462e-15
2.2486e-15
2.27008e-15
2.29102e-15
2.31076e-15
2.32967e-15
2.3465e-15
2.36319e-15
2.37834e-15
2.38983e-15
2.40097e-15
2.41067e-15
2.41941e-15
2.42574e-15
2.43198e-15
2.43681e-15
2.44015e-15
2.44196e-15
2.44182e-15
2.43995e-15
2.43652e-15
2.43229e-15
2.42503e-15
2.41731e-15
2.40945e-15
2.40135e-15
2.39163e-15
2.37941e-15
2.36513e-15
2.34933e-15
2.33069e-15
2.31022e-15
2.2901e-15
2.26886e-15
2.24711e-15
2.22326e-15
2.19928e-15
2.17496e-15
2.14993e-15
2.12398e-15
2.0978e-15
2.06954e-15
2.04204e-15
1.92605e-15
1.95445e-15
1.98185e-15
2.00872e-15
2.0348e-15
2.06074e-15
2.0862e-15
2.11086e-15
2.13421e-15
2.15509e-15
2.17543e-15
2.19469e-15
2.21318e-15
2.22954e-15
2.24583e-15
2.26062e-15
2.27195e-15
2.28291e-15
2.29237e-15
2.30096e-15
2.30714e-15
2.31326e-15
2.318e-15
2.32126e-15
2.32301e-15
2.32278e-15
2.32112e-15
2.31777e-15
2.3135e-15
2.30653e-15
2.29896e-15
2.29121e-15
2.28323e-15
2.27362e-15
2.26171e-15
2.24769e-15
2.23228e-15
2.21404e-15
2.19425e-15
2.17457e-15
2.15393e-15
2.13272e-15
2.10959e-15
2.08624e-15
2.06252e-15
2.03819e-15
2.01302e-15
1.98759e-15
1.96029e-15
1.93357e-15
1.81987e-15
1.84721e-15
1.87367e-15
1.89963e-15
1.92478e-15
1.94988e-15
1.97453e-15
1.99836e-15
2.021e-15
2.04121e-15
2.06096e-15
2.07968e-15
2.09764e-15
2.11352e-15
2.12931e-15
2.14377e-15
2.1548e-15
2.16556e-15
2.17481e-15
2.18315e-15
2.18922e-15
2.19521e-15
2.19977e-15
2.20295e-15
2.20463e-15
2.20438e-15
2.20286e-15
2.1996e-15
2.1954e-15
2.18868e-15
2.18132e-15
2.1737e-15
2.16585e-15
2.15645e-15
2.14481e-15
2.1311e-15
2.11613e-15
2.0984e-15
2.07928e-15
2.06016e-15
2.04017e-15
2.01955e-15
1.99722e-15
1.97456e-15
1.95146e-15
1.92796e-15
1.90359e-15
1.87902e-15
1.8527e-15
1.82686e-15
1.71571e-15
1.74195e-15
1.76739e-15
1.79237e-15
1.81657e-15
1.84073e-15
1.8645e-15
1.8875e-15
1.90933e-15
1.92881e-15
1.94795e-15
1.96602e-15
1.98342e-15
1.9988e-15
2.01407e-15
2.0281e-15
2.03885e-15
2.04937e-15
2.05832e-15
2.06646e-15
2.07236e-15
2.07816e-15
2.08258e-15
2.08562e-15
2.08727e-15
2.08701e-15
2.08557e-15
2.08247e-15
2.07829e-15
2.07183e-15
2.0647e-15
2.0573e-15
2.04958e-15
2.04041e-15
2.02908e-15
2.01573e-15
2.00125e-15
1.98412e-15
1.96571e-15
1.94721e-15
1.92792e-15
1.90796e-15
1.88643e-15
1.86453e-15
1.84217e-15
1.81953e-15
1.79605e-15
1.77237e-15
1.74708e-15
1.72221e-15
1.61388e-15
1.63897e-15
1.66333e-15
1.68729e-15
1.71045e-15
1.73365e-15
1.7565e-15
1.77857e-15
1.79954e-15
1.81827e-15
1.83675e-15
1.85413e-15
1.87088e-15
1.88575e-15
1.90041e-15
1.91398e-15
1.92444e-15
1.93466e-15
1.94332e-15
1.95124e-15
1.95694e-15
1.96249e-15
1.96676e-15
1.9697e-15
1.97127e-15
1.97105e-15
1.96969e-15
1.96675e-15
1.96263e-15
1.95644e-15
1.94954e-15
1.94239e-15
1.93484e-15
1.92588e-15
1.91492e-15
1.90195e-15
1.88801e-15
1.87156e-15
1.85386e-15
1.83602e-15
1.81751e-15
1.79829e-15
1.77757e-15
1.75647e-15
1.73495e-15
1.71322e-15
1.69068e-15
1.66792e-15
1.64371e-15
1.61986e-15
1.51462e-15
1.53855e-15
1.56178e-15
1.58466e-15
1.60674e-15
1.62891e-15
1.65078e-15
1.67188e-15
1.69195e-15
1.70992e-15
1.72768e-15
1.7443e-15
1.76042e-15
1.77472e-15
1.78874e-15
1.80183e-15
1.81195e-15
1.82179e-15
1.83018e-15
1.83781e-15
1.84331e-15
1.84862e-15
1.85274e-15
1.85557e-15
1.85705e-15
1.85685e-15
1.85554e-15
1.85277e-15
1.84872e-15
1.84286e-15
1.83622e-15
1.82928e-15
1.82194e-15
1.81328e-15
1.80271e-15
1.79016e-15
1.77676e-15
1.76102e-15
1.74407e-15
1.72697e-15
1.70925e-15
1.69081e-15
1.671e-15
1.65075e-15
1.63011e-15
1.60931e-15
1.58775e-15
1.56599e-15
1.5429e-15
1.52013e-15
1.39428e-15
1.42596e-15
1.45711e-15
1.48474e-15
1.50572e-15
1.5268e-15
1.54766e-15
1.56776e-15
1.58691e-15
1.60407e-15
1.62104e-15
1.63689e-15
1.65231e-15
1.66603e-15
1.6794e-15
1.69194e-15
1.70172e-15
1.71116e-15
1.71921e-15
1.72654e-15
1.73184e-15
1.7369e-15
1.74085e-15