/*--------------------------------*- C++ -*----------------------------------*\
  =========                 |
  \\      /  F ield         | OpenFOAM: The Open Source CFD Toolbox
   \\    /   O peration     | Website:  https://openfoam.org
    \\  /    A nd           | Version:  7
     \\/     M anipulation  |
\*---------------------------------------------------------------------------*/
FoamFile
{
    version     2.0;
    format      ascii;
    class       volVectorField;
    location    "0";
    object      U;
}
// * * * * * * * * * * * * * * * * * * * * * * * * * * * * * * * * * * * * * //

dimensions      [0 1 -1 0 0 0 0];

internalField   nonuniform List<vector> 
4782
(
(6.91431e-19 3.77886e-19 -0.00982899)
(7.34004e-19 2.6403e-19 -0.00973738)
(7.80852e-19 1.98956e-19 -0.00964382)
(7.74228e-19 2.72546e-19 -0.00954822)
(6.86995e-19 4.50142e-19 -0.00945047)
(6.18049e-19 5.7169e-19 -0.00935046)
(6.58849e-19 5.20549e-19 -0.00924806)
(7.06842e-19 4.66265e-19 -0.00914315)
(6.66134e-19 5.49734e-19 -0.00903559)
(6.44719e-19 6.19329e-19 -0.00892523)
(-3.23153e-19 8.19328e-19 -0.0127921)
(1.22959e-20 5.84572e-19 -0.0127401)
(1.44278e-19 5.63217e-19 -0.0126877)
(1.74033e-19 5.95177e-19 -0.012635)
(2.07045e-19 5.62764e-19 -0.0125818)
(6.14173e-20 7.48656e-19 -0.0125282)
(-3.1055e-19 1.27409e-18 -0.0124741)
(-4.64839e-19 1.47161e-18 -0.0124196)
(-3.13997e-19 1.25633e-18 -0.0123645)
(-4.75223e-21 7.97831e-19 -0.012309)
(2.93686e-19 3.5897e-19 -0.0122529)
(3.66371e-19 2.37569e-19 -0.0121964)
(3.3512e-19 2.47182e-19 -0.0121392)
(2.94117e-19 2.66399e-19 -0.0120815)
(3.07286e-19 2.52961e-19 -0.0120233)
(3.4466e-19 2.49692e-19 -0.0119644)
(3.77576e-19 2.62007e-19 -0.011905)
(4.22592e-19 2.36125e-19 -0.011845)
(5.52567e-19 8.59899e-20 -0.0117843)
(7.71032e-19 -1.8223e-19 -0.011723)
(8.63706e-19 -3.33856e-19 -0.011661)
(6.57905e-19 -1.00328e-19 -0.0115983)
(2.51383e-19 4.15477e-19 -0.0115349)
(-3.90078e-20 7.84285e-19 -0.0114708)
(-3.33499e-20 7.77974e-19 -0.0114059)
(1.85575e-19 4.92826e-19 -0.0113402)
(5.01432e-19 8.02276e-20 -0.0112737)
(6.86729e-19 -1.53221e-19 -0.0112064)
(5.47599e-19 5.19191e-20 -0.0111382)
(4.38796e-19 2.05937e-19 -0.0110691)
(6.48148e-19 -6.30229e-20 -0.010999)
(8.77038e-19 -3.39797e-19 -0.010928)
(8.42714e-19 -2.54535e-19 -0.0108559)
(7.09445e-19 -7.07895e-20 -0.0107829)
(6.32697e-19 5.31488e-21 -0.0107087)
(6.53922e-19 -3.24929e-20 -0.0106333)
(6.97966e-19 -7.004e-20 -0.0105568)
(6.12775e-19 4.6803e-20 -0.0104791)
(5.62784e-19 9.52333e-20 -0.0104)
(5.73172e-19 5.44627e-20 -0.0103196)
(5.05572e-19 1.2275e-19 -0.0102378)
(4.23264e-19 1.99469e-19 -0.0101545)
(3.9917e-19 1.89672e-19 -0.0100697)
(2.56226e-19 3.46934e-19 -0.0099833)
(1.91218e-20 6.54409e-19 -0.00989518)
(-6.68677e-20 7.71333e-19 -0.00980529)
(1.11892e-19 5.41235e-19 -0.00971354)
(3.75145e-19 1.86547e-19 -0.00961985)
(4.18142e-19 1.03895e-19 -0.0095241)
(2.31323e-19 3.24291e-19 -0.00942619)
(2.92292e-20 5.75862e-19 -0.00932602)
(-8.46245e-20 7.03242e-19 -0.00922346)
(-2.17642e-20 5.80025e-19 -0.00911838)
(1.9895e-19 2.44982e-19 -0.00901065)
(2.63117e-19 1.26517e-19 -0.00890011)
(2.00418e-19 8.1588e-19 -0.0127714)
(8.38645e-21 9.1835e-19 -0.0127194)
(-1.55511e-19 1.01285e-18 -0.012667)
(-1.29605e-19 9.16368e-19 -0.0126142)
(-9.81144e-20 8.31453e-19 -0.0125609)
(-5.44971e-20 7.48232e-19 -0.0125073)
(-2.60716e-20 7.94071e-19 -0.0124531)
(2.32475e-20 9.14626e-19 -0.0123985)
(2.46236e-20 1.05564e-18 -0.0123434)
(-3.81709e-20 1.19746e-18 -0.0122878)
(-1.40317e-19 1.26445e-18 -0.0122317)
(-1.8259e-19 1.21626e-18 -0.0121751)
(-1.83635e-19 1.12156e-18 -0.0121179)
(-8.42388e-20 9.63368e-19 -0.0120601)
(1.37122e-19 7.23304e-19 -0.0120018)
(2.2728e-19 6.62035e-19 -0.0119429)
(4.52996e-20 9.25344e-19 -0.0118834)
(-2.14852e-19 1.26799e-18 -0.0118233)
(-2.8932e-19 1.34591e-18 -0.0117625)
(-3.02995e-19 1.3136e-18 -0.0117011)
(-2.89685e-19 1.25491e-18 -0.0116391)
(-3.16146e-19 1.26508e-18 -0.0115763)
(-3.96753e-19 1.40167e-18 -0.0115128)
(-3.26928e-19 1.404e-18 -0.0114486)
(-1.92113e-19 1.33773e-18 -0.0113836)
(-1.48875e-19 1.34985e-18 -0.0113179)
(-6.26349e-20 1.23968e-18 -0.0112513)
(1.93515e-19 8.80967e-19 -0.0111839)
(4.27686e-19 5.53331e-19 -0.0111156)
(4.27674e-19 5.57433e-19 -0.0110464)
(3.52124e-19 6.44766e-19 -0.0109763)
(3.69774e-19 5.68794e-19 -0.0109052)
(2.96852e-19 5.86072e-19 -0.010833)
(9.91843e-20 7.805e-19 -0.0107598)
(8.44907e-20 7.48477e-19 -0.0106855)
(3.03773e-19 4.59547e-19 -0.0106101)
(3.65908e-19 3.62408e-19 -0.0105335)
(2.33406e-19 5.0148e-19 -0.0104556)
(1.10027e-19 6.2926e-19 -0.0103765)
(9.54779e-20 6.18455e-19 -0.010296)
(1.36926e-19 5.36164e-19 -0.010214)
(1.47331e-19 4.97994e-19 -0.0101306)
(2.08012e-19 4.07784e-19 -0.0100457)
(3.56057e-19 2.08428e-19 -0.00995911)
(4.92136e-19 6.23101e-20 -0.00987085)
(5.41301e-19 4.15559e-20 -0.00978082)
(5.23051e-19 8.69818e-20 -0.00968892)
(4.33285e-19 1.87399e-19 -0.00959507)
(3.80982e-19 2.17032e-19 -0.00949917)
(3.7574e-19 1.90863e-19 -0.0094011)
(3.05076e-19 2.69723e-19 -0.00930077)
(1.69736e-19 4.52684e-19 -0.00919803)
(6.89197e-20 6.05099e-19 -0.00909278)
(8.98441e-20 5.87888e-19 -0.00898487)
(2.26489e-19 4.10479e-19 -0.00887414)
(-1.53191e-18 1.47717e-18 -0.0127502)
(-1.35234e-18 1.26909e-18 -0.0126982)
(-1.00723e-18 8.89384e-19 -0.0126457)
(-7.79522e-19 6.1221e-19 -0.0125928)
(-6.28221e-19 4.44905e-19 -0.0125395)
(-3.63677e-19 1.9433e-19 -0.0124858)
(-1.03501e-19 -4.51643e-20 -0.0124316)
(-3.24451e-20 -1.29873e-20 -0.0123769)
(-2.13347e-19 3.13521e-19 -0.0123218)
(-4.97001e-19 7.5467e-19 -0.0122661)
(-6.4905e-19 1.04562e-18 -0.0122099)
(-6.04774e-19 1.11024e-18 -0.0121532)
(-3.10092e-19 8.89934e-19 -0.0120959)
(2.24598e-19 4.20233e-19 -0.0120381)
(5.90564e-19 1.0563e-19 -0.0119797)
(5.99597e-19 1.68598e-19 -0.0119207)
(4.72001e-19 3.78775e-19 -0.0118611)
(3.49396e-19 6.19086e-19 -0.0118009)
(2.75704e-19 8.15597e-19 -0.0117401)
(4.42634e-19 7.23884e-19 -0.0116787)
(7.02932e-19 5.10699e-19 -0.0116165)
(8.47213e-19 3.87495e-19 -0.0115537)
(9.05325e-19 3.54314e-19 -0.0114901)
(8.97715e-19 4.23879e-19 -0.0114259)
(8.27826e-19 5.73788e-19 -0.0113608)
(6.22624e-19 8.64612e-19 -0.011295)
(5.23758e-19 1.03523e-18 -0.0112283)
(6.0721e-19 9.83624e-19 -0.0111608)
(6.91571e-19 9.10764e-19 -0.0110924)
(7.39729e-19 8.62296e-19 -0.0110231)
(6.95643e-19 9.13188e-19 -0.0109529)
(6.15239e-19 9.91217e-19 -0.0108817)
(6.02706e-19 1.00472e-18 -0.0108095)
(6.06215e-19 1.02736e-18 -0.0107362)
(7.30275e-19 9.00921e-19 -0.0106618)
(9.30654e-19 6.59577e-19 -0.0105862)
(9.6426e-19 6.15521e-19 -0.0105095)
(8.77401e-19 7.21038e-19 -0.0104315)
(8.28189e-19 7.92873e-19 -0.0103522)
(8.28452e-19 8.0056e-19 -0.0102716)
(8.06347e-19 8.24382e-19 -0.0101895)
(8.52817e-19 7.70091e-19 -0.010106)
(9.24311e-19 6.96591e-19 -0.0100209)
(1.03312e-18 5.89124e-19 -0.00993422)
(1.15284e-18 4.64594e-19 -0.00984582)
(1.09695e-18 5.36302e-19 -0.00975563)
(1.00867e-18 6.41167e-19 -0.00966358)
(9.63112e-19 6.88719e-19 -0.00956957)
(9.01807e-19 7.49653e-19 -0.0094735)
(9.3013e-19 7.21749e-19 -0.00937527)
(1.0928e-18 5.34979e-19 -0.00927476)
(1.24217e-18 3.67449e-19 -0.00917185)
(1.25591e-18 3.67404e-19 -0.00906641)
(1.22537e-18 4.24941e-19 -0.0089583)
(1.27516e-18 3.92754e-19 -0.00884738)
(2.34512e-19 9.54395e-19 -0.0127285)
(2.53193e-19 1.06043e-18 -0.0126764)
(1.54976e-19 1.26849e-18 -0.0126239)
(1.78361e-19 1.30886e-18 -0.012571)
(4.99815e-19 9.92307e-19 -0.0125176)
(7.76786e-19 6.92249e-19 -0.0124638)
(9.15622e-19 4.89289e-19 -0.0124095)
(9.33813e-19 3.62491e-19 -0.0123548)
(7.32787e-19 4.66155e-19 -0.0122995)
(5.99726e-19 5.5769e-19 -0.0122438)
(6.12133e-19 6.10863e-19 -0.0121875)
(7.41593e-19 5.53255e-19 -0.0121307)
(9.8793e-19 3.10612e-19 -0.0120734)
(1.0358e-18 2.16656e-19 -0.0120155)
(8.44403e-19 3.80757e-19 -0.011957)
(6.39952e-19 5.9261e-19 -0.011898)
(5.03341e-19 7.53035e-19 -0.0118383)
(4.1715e-19 8.70023e-19 -0.0117781)
(3.93228e-19 9.47616e-19 -0.0117172)
(3.6369e-19 1.05997e-18 -0.0116556)
(1.5095e-19 1.34749e-18 -0.0115934)
(-1.34097e-19 1.70213e-18 -0.0115305)
(-1.83812e-19 1.79201e-18 -0.0114669)
(-2.4543e-20 1.63529e-18 -0.0114025)
(-1.81311e-21 1.62604e-18 -0.0113374)
(-5.26048e-20 1.71727e-18 -0.0112715)
(2.96283e-20 1.67444e-18 -0.0112047)
(1.73696e-19 1.52555e-18 -0.0111371)
(2.51741e-19 1.4373e-18 -0.0110687)
(1.36339e-19 1.58402e-18 -0.0109993)
(-3.42339e-20 1.80393e-18 -0.010929)
(4.40898e-20 1.77203e-18 -0.0108576)
(2.60238e-19 1.58214e-18 -0.0107853)
(1.90791e-19 1.69498e-18 -0.0107119)
(4.53021e-20 1.93381e-18 -0.0106374)
(2.28628e-19 1.80214e-18 -0.0105618)
(4.38063e-19 1.60703e-18 -0.0104849)
(4.56874e-19 1.61345e-18 -0.0104068)
(3.79176e-19 1.73091e-18 -0.0103274)
(3.06021e-19 1.8457e-18 -0.0102466)
(3.49905e-19 1.83968e-18 -0.0101644)
(4.78978e-19 1.74511e-18 -0.0100808)
(6.95218e-19 1.54145e-18 -0.00999555)
(9.1652e-19 1.32702e-18 -0.0099087)
(9.96278e-19 1.23587e-18 -0.00982015)
(9.69333e-19 1.24764e-18 -0.00972981)
(8.49403e-19 1.36488e-18 -0.0096376)
(6.78998e-19 1.56082e-18 -0.00954342)
(7.38015e-19 1.533e-18 -0.00944718)
(8.35514e-19 1.45895e-18 -0.00934877)
(7.78762e-19 1.53974e-18 -0.00924807)
(7.74038e-19 1.55229e-18 -0.00914497)
(8.15662e-19 1.50791e-18 -0.00903934)
(8.84972e-19 1.42984e-18 -0.00893103)
(9.35493e-19 1.36536e-18 -0.00881991)
(-7.00857e-19 1.23418e-18 -0.0127285)
(-6.03125e-19 1.23016e-18 -0.0126764)
(-4.29401e-19 1.14313e-18 -0.0126239)
(-2.89615e-19 1.11523e-18 -0.012571)
(-2.81107e-19 1.19495e-18 -0.0125176)
(-3.69851e-19 1.30714e-18 -0.0124638)
(-5.75729e-19 1.50277e-18 -0.0124095)
(-9.09066e-19 1.75352e-18 -0.0123548)
(-1.01763e-18 1.81918e-18 -0.0122995)
(-5.97105e-19 1.48323e-18 -0.0122438)
(-1.77209e-19 1.19556e-18 -0.0121875)
(-3.0001e-19 1.36559e-18 -0.0121307)
(-5.76768e-19 1.64204e-18 -0.0120734)
(-4.44945e-19 1.48565e-18 -0.0120155)
(-2.20968e-20 1.01254e-18 -0.011957)
(1.78651e-19 7.31978e-19 -0.011898)
(1.50718e-19 6.84452e-19 -0.0118383)
(1.49108e-19 6.51249e-19 -0.0117781)
(2.87885e-19 5.19169e-19 -0.0117172)
(4.17753e-19 3.89723e-19 -0.0116556)
(4.5355e-19 3.38015e-19 -0.0115934)
(5.18816e-19 2.7653e-19 -0.0115305)
(4.84723e-19 3.27071e-19 -0.0114669)
(3.58002e-19 4.46601e-19 -0.0114025)
(3.26356e-19 4.58805e-19 -0.0113374)
(2.43903e-19 5.39202e-19 -0.0112715)
(-3.92464e-20 8.0442e-19 -0.0112047)
(-2.48307e-19 9.88294e-19 -0.0111371)
(-1.09994e-19 8.38986e-19 -0.0110687)
(1.48575e-19 5.90087e-19 -0.0109993)
(3.05281e-19 4.59747e-19 -0.010929)
(3.27324e-19 4.99089e-19 -0.0108576)
(2.41134e-19 6.24176e-19 -0.0107853)
(4.53959e-19 4.56064e-19 -0.0107119)
(7.74873e-19 2.04924e-19 -0.0106374)
(7.03282e-19 3.0279e-19 -0.0105618)
(4.79682e-19 4.93197e-19 -0.0104849)
(3.73233e-19 5.7067e-19 -0.0104068)
(3.51684e-19 5.84051e-19 -0.0103274)
(3.88641e-19 5.55164e-19 -0.0102466)
(4.11272e-19 5.36489e-19 -0.0101644)
(3.60699e-19 5.78983e-19 -0.0100808)
(2.76453e-19 6.48047e-19 -0.00999555)
(1.24032e-19 7.54648e-19 -0.0099087)
(-6.4739e-20 8.68278e-19 -0.00982015)
(-1.89004e-19 9.18897e-19 -0.00972981)
(-6.3692e-20 7.45739e-19 -0.0096376)
(2.30685e-19 4.27231e-19 -0.00954342)
(2.70449e-19 3.52335e-19 -0.00944718)
(1.59982e-19 4.16421e-19 -0.00934877)
(1.52576e-19 3.88222e-19 -0.00924807)
(1.609e-19 3.43327e-19 -0.00914497)
(8.13781e-20 3.78489e-19 -0.00903934)
(-5.78065e-20 4.71056e-19 -0.00893103)
(-1.61957e-19 5.2217e-19 -0.00881991)
(2.97998e-19 3.99961e-19 -0.0127502)
(2.56429e-19 4.11914e-19 -0.0126982)
(1.09956e-19 5.05281e-19 -0.0126457)
(1.78305e-19 4.44084e-19 -0.0125928)
(2.46298e-19 3.84148e-19 -0.0125395)
(2.1767e-19 4.08337e-19 -0.0124858)
(4.36534e-20 5.70693e-19 -0.0124316)
(-5.62277e-20 7.18128e-19 -0.0123769)
(1.84204e-19 5.99771e-19 -0.0123218)
(6.44986e-19 2.95639e-19 -0.0122661)
(7.58336e-19 2.29127e-19 -0.0122099)
(6.13141e-19 3.85051e-19 -0.0121532)
(4.05023e-19 6.249e-19 -0.0120959)
(-1.09425e-19 1.1516e-18 -0.0120381)
(-5.78406e-19 1.59042e-18 -0.0119797)
(-6.57879e-19 1.64347e-18 -0.0119207)
(-4.41382e-19 1.45038e-18 -0.0118611)
(-1.57157e-19 1.24424e-18 -0.0118009)
(-5.30929e-20 1.19182e-18 -0.0117401)
(-1.52289e-19 1.31088e-18 -0.0116787)
(-3.16038e-19 1.48264e-18 -0.0116165)
(-3.82363e-19 1.56869e-18 -0.0115537)
(-3.60503e-19 1.57094e-18 -0.0114901)
(-3.42867e-19 1.59619e-18 -0.0114259)
(-2.6004e-19 1.56195e-18 -0.0113608)
(-1.26271e-19 1.4898e-18 -0.011295)
(-6.98102e-20 1.50518e-18 -0.0112283)
(-4.05739e-20 1.54577e-18 -0.0111608)
(5.06928e-20 1.48989e-18 -0.0110924)
(1.6121e-19 1.37872e-18 -0.0110231)
(4.39817e-19 1.13881e-18 -0.0109529)
(7.25714e-19 9.06173e-19 -0.0108817)
(7.33431e-19 9.20937e-19 -0.0108095)
(6.45087e-19 1.0353e-18 -0.0107362)
(4.79135e-19 1.18458e-18 -0.0106618)
(2.09309e-19 1.38174e-18 -0.0105862)
(3.4161e-20 1.48109e-18 -0.0105095)
(1.04648e-19 1.37637e-18 -0.0104315)
(2.0302e-19 1.27017e-18 -0.0103522)
(1.7046e-19 1.27213e-18 -0.0102716)
(1.1178e-19 1.29745e-18 -0.0101895)
(1.3673e-19 1.2522e-18 -0.010106)
(1.35539e-19 1.23371e-18 -0.0100209)
(-1.03963e-20 1.35425e-18 -0.00993422)
(-1.01765e-19 1.42912e-18 -0.00984582)
(-1.12237e-20 1.3524e-18 -0.00975563)
(9.40162e-20 1.26128e-18 -0.00966358)
(8.97676e-20 1.25058e-18 -0.00956957)
(1.93102e-19 1.13002e-18 -0.0094735)
(3.29806e-19 9.83046e-19 -0.00937527)
(3.04738e-19 9.78954e-19 -0.00927476)
(2.93871e-19 9.57498e-19 -0.00917185)
(3.55222e-19 8.766e-19 -0.00906641)
(4.06512e-19 8.23595e-19 -0.0089583)
(4.05343e-19 8.29382e-19 -0.00884738)
(3.78653e-19 8.67079e-19 -0.0087335)
(4.15627e-19 8.49484e-19 -0.00861647)
(6.00462e-19 6.97946e-19 -0.00849612)
(7.72834e-19 5.41214e-19 -0.00837227)
(-1.06594e-18 1.8115e-18 -0.0127714)
(-1.01531e-18 1.76973e-18 -0.0127194)
(-8.00169e-19 1.62948e-18 -0.012667)
(-6.15257e-19 1.49356e-18 -0.0126142)
(-6.20306e-19 1.50048e-18 -0.0125609)
(-6.24747e-19 1.48375e-18 -0.0125073)
(-5.43018e-19 1.40388e-18 -0.0124531)
(-5.67668e-19 1.43089e-18 -0.0123985)
(-5.99751e-19 1.48185e-18 -0.0123434)
(-4.65998e-19 1.37752e-18 -0.0122878)
(-3.15647e-19 1.23992e-18 -0.0122317)
(-2.79901e-19 1.23199e-18 -0.0121751)
(-2.60718e-19 1.23542e-18 -0.0121179)
(-2.10223e-19 1.19188e-18 -0.0120601)
(-2.97576e-19 1.29375e-18 -0.0120018)
(-3.21561e-19 1.37053e-18 -0.0119429)
(-2.35803e-20 1.18767e-18 -0.0118834)
(2.6977e-19 9.86328e-19 -0.0118233)
(4.42038e-19 8.67303e-19 -0.0117625)
(5.68508e-19 7.61361e-19 -0.0117011)
(5.84462e-19 7.37131e-19 -0.0116391)
(5.86615e-19 7.3073e-19 -0.0115763)
(6.2204e-19 7.2428e-19 -0.0115128)
(6.11015e-19 7.90435e-19 -0.0114486)
(6.2532e-19 8.46013e-19 -0.0113836)
(7.31788e-19 8.12743e-19 -0.0113179)
(5.8278e-19 9.47131e-19 -0.0112513)
(7.51738e-20 1.34409e-18 -0.0111839)
(-3.2466e-19 1.64615e-18 -0.0111156)
(-2.06266e-19 1.52912e-18 -0.0110464)
(1.44487e-19 1.22096e-18 -0.0109763)
(2.52025e-19 1.06085e-18 -0.0109052)
(2.73026e-19 9.4652e-19 -0.010833)
(3.37146e-19 8.19228e-19 -0.0107598)
(9.53178e-20 9.58584e-19 -0.0106855)
(-4.1493e-19 1.3304e-18 -0.0106101)
(-6.71955e-19 1.50609e-18 -0.0105335)
(-5.00148e-19 1.35513e-18 -0.0104556)
(-3.53446e-19 1.24101e-18 -0.0103765)
(-3.24322e-19 1.22014e-18 -0.010296)
(-2.47548e-19 1.15861e-18 -0.010214)
(-2.06164e-19 1.14105e-18 -0.0101306)
(-1.23492e-19 1.07795e-18 -0.0100457)
(-1.15086e-19 1.0765e-18 -0.00995911)
(-1.6932e-19 1.15158e-18 -0.00987085)
(-1.80749e-19 1.20446e-18 -0.00978082)
(-1.43656e-19 1.19628e-18 -0.00968892)
(-5.49955e-20 1.13298e-18 -0.00959507)
(-6.6792e-20 1.14672e-18 -0.00949917)
(-1.00577e-19 1.15675e-18 -0.0094011)
(-9.97955e-20 1.14688e-18 -0.00930077)
(-4.43309e-20 1.09752e-18 -0.00919803)
(1.41579e-19 9.4185e-19 -0.00909278)
(3.23948e-19 7.82938e-19 -0.00898487)
(4.35092e-19 6.78234e-19 -0.00887414)
(5.59751e-19 5.68179e-19 -0.00876045)
(6.49004e-19 5.02283e-19 -0.00864363)
(6.21877e-19 5.3033e-19 -0.00852349)
(5.15026e-19 6.05257e-19 -0.00839985)
(4.95606e-19 5.93767e-19 -0.00827249)
(-4.9258e-19 -1.18015e-19 -0.0127921)
(-5.1653e-19 -1.08689e-20 -0.0127401)
(-5.79531e-19 1.12846e-19 -0.0126877)
(-6.1031e-19 1.56552e-19 -0.012635)
(-6.68129e-19 2.28609e-19 -0.0125818)
(-7.72684e-19 3.70521e-19 -0.0125282)
(-7.80219e-19 4.83677e-19 -0.0124741)
(-6.72129e-19 4.75598e-19 -0.0124196)
(-4.55486e-19 4.21858e-19 -0.0123645)
(-1.97566e-19 3.38422e-19 -0.012309)
(7.52939e-20 2.37354e-19 -0.0122529)
(1.60535e-19 2.73066e-19 -0.0121964)
(-1.84238e-19 6.18464e-19 -0.0121392)
(-6.52555e-19 1.05016e-18 -0.0120815)
(-7.91774e-19 1.2358e-18 -0.0120233)
(-7.32849e-19 1.28464e-18 -0.0119644)
(-6.35114e-19 1.29689e-18 -0.011905)
(-5.49367e-19 1.29054e-18 -0.011845)
(-6.63645e-19 1.44227e-18 -0.0117843)
(-9.56939e-19 1.70241e-18 -0.011723)
(-1.14636e-18 1.85215e-18 -0.011661)
(-1.04097e-18 1.75282e-18 -0.0115983)
(-6.61604e-19 1.44361e-18 -0.0115349)
(-4.12598e-19 1.22587e-18 -0.0114708)
(-4.1779e-19 1.21256e-18 -0.0114059)
(-6.90779e-19 1.39816e-18 -0.0113402)
(-1.11618e-18 1.70164e-18 -0.0112737)
(-1.34313e-18 1.8812e-18 -0.0112064)
(-1.28928e-18 1.86618e-18 -0.0111382)
(-1.15892e-18 1.80324e-18 -0.0110691)
(-1.21855e-18 1.86022e-18 -0.010999)
(-1.42629e-18 2.01905e-18 -0.010928)
(-1.40098e-18 2.00032e-18 -0.0108559)
(-1.17806e-18 1.81274e-18 -0.0107829)
(-1.07883e-18 1.71234e-18 -0.0107087)
(-1.12539e-18 1.74456e-18 -0.0106333)
(-9.89599e-19 1.65941e-18 -0.0105568)
(-5.56129e-19 1.32962e-18 -0.0104791)
(-3.32786e-19 1.13013e-18 -0.0104)
(-3.97783e-19 1.15345e-18 -0.0103196)
(-3.39843e-19 1.08617e-18 -0.0102378)
(-2.76595e-19 1.02162e-18 -0.0101545)
(-3.63978e-19 1.06713e-18 -0.0100697)
(-2.95827e-19 9.77867e-19 -0.0099833)
(-6.74497e-20 7.85168e-19 -0.00989518)
(-6.79752e-20 7.78719e-19 -0.00980529)
(-2.66865e-19 9.25848e-19 -0.00971354)
(-4.28953e-19 1.04611e-18 -0.00961985)
(-5.52343e-19 1.13145e-18 -0.0095241)
(-5.01865e-19 1.08682e-18 -0.00942619)
(-3.58723e-19 9.75321e-19 -0.00932602)
(-2.70405e-19 9.05761e-19 -0.00922346)
(-2.26271e-19 8.60209e-19 -0.00911838)
(-2.7891e-19 8.81425e-19 -0.00901065)
(-2.76125e-19 8.54952e-19 -0.00890011)
(-1.17045e-19 6.99685e-19 -0.00878661)
(7.48073e-21 5.61817e-19 -0.00866998)
(-7.01423e-20 5.79007e-19 -0.00855004)
(-2.27669e-19 6.61707e-19 -0.00842659)
(-2.85579e-19 6.75176e-19 -0.00829943)
(-1.71433e-19 5.56331e-19 -0.00816834)
(1.03474e-19 3.18143e-19 -0.00803308)
(3.24771e-19 1.36145e-19 -0.00789341)
(3.25913e-19 1.36396e-19 -0.00774904)
(2.84905e-19 1.64091e-19 -0.00759971)
(3.51456e-19 9.39915e-20 -0.00744512)
(4.86986e-19 -3.11446e-20 -0.00728494)
(6.03209e-19 -1.35335e-19 -0.00711886)
(6.8116e-19 -2.10092e-19 -0.00694654)
(7.19797e-19 -2.54222e-19 -0.00676761)
(6.99497e-19 -2.53906e-19 -0.00658164)
(6.21052e-19 -2.11448e-19 -0.0063879)
(5.3019e-19 -1.62613e-19 -0.00618557)
(5.25113e-19 -1.81805e-19 -0.00597412)
(5.63789e-19 -2.31816e-19 -0.00575307)
(5.82923e-19 -2.65602e-19 -0.00552202)
(5.56277e-19 -2.67716e-19 -0.00528073)
(4.4006e-19 -1.99548e-19 -0.00502913)
(3.40475e-19 -1.41113e-19 -0.00476743)
(2.87094e-19 -1.14935e-19 -0.00449617)
(2.38613e-19 -8.75257e-20 -0.00421628)
(1.99132e-19 -6.74572e-20 -0.00392903)
(1.893e-19 -7.27347e-20 -0.00363599)
(1.82734e-19 -8.48329e-20 -0.0033389)
(1.73889e-19 -1.01754e-19 -0.00303952)
(1.33954e-19 -1.01635e-19 -0.00273943)
(9.2838e-20 -1.04889e-19 -0.00243998)
(7.19886e-20 -1.2907e-19 -0.00214216)
(4.52593e-20 -1.5218e-19 -0.0018467)
(-1.14478e-20 -1.49482e-19 -0.00155403)
(-7.24003e-20 -1.37746e-19 -0.00126441)
(-1.0854e-19 -1.35378e-19 -0.000977946)
(-1.19116e-19 -1.33232e-19 -0.000694687)
(-1.02145e-19 -1.26782e-19 -0.000414622)
(-2.65423e-20 -2.30817e-20 -0.00013773)
(-5.64067e-19 1.01425e-18 -0.0128121)
(-3.98978e-19 9.31644e-19 -0.0127602)
(-5.46531e-19 1.03473e-18 -0.0127078)
(-5.97195e-19 1.0887e-18 -0.0126551)
(-3.84938e-19 9.33543e-19 -0.012602)
(2.53141e-20 6.6683e-19 -0.0125484)
(1.49736e-19 6.00233e-19 -0.0124944)
(1.0765e-19 6.40423e-19 -0.0124399)
(2.34133e-19 5.56591e-19 -0.012385)
(3.05579e-19 4.63387e-19 -0.0123295)
(3.73205e-19 3.24839e-19 -0.0122735)
(2.85653e-19 2.82264e-19 -0.012217)
(1.8504e-19 3.06402e-19 -0.0121599)
(1.68745e-19 3.09085e-19 -0.0121023)
(7.43031e-20 3.42813e-19 -0.0120441)
(-8.46997e-22 3.56402e-19 -0.0119854)
(3.3346e-20 3.03805e-19 -0.011926)
(1.73794e-19 1.62495e-19 -0.011866)
(2.00959e-19 8.74786e-20 -0.0118054)
(-5.50632e-20 2.40231e-19 -0.0117441)
(-4.26734e-19 5.07499e-19 -0.0116822)
(-6.29836e-19 6.66411e-19 -0.0116196)
(-6.78853e-19 6.8799e-19 -0.0115563)
(-6.89038e-19 6.49899e-19 -0.0114922)
(-6.55947e-19 5.90146e-19 -0.0114274)
(-5.83588e-19 5.04971e-19 -0.0113618)
(-5.28807e-19 4.6599e-19 -0.0112954)
(-7.14986e-19 6.38997e-19 -0.0112281)
(-9.02728e-19 8.35299e-19 -0.01116)
(-8.67461e-19 8.75356e-19 -0.011091)
(-7.40213e-19 8.40111e-19 -0.011021)
(-6.40734e-19 8.37003e-19 -0.0109501)
(-6.63079e-19 9.5656e-19 -0.0108782)
(-7.1613e-19 1.0968e-18 -0.0108052)
(-7.72785e-19 1.24382e-18 -0.0107311)
(-8.73662e-19 1.42118e-18 -0.0106558)
(-1.03582e-18 1.62097e-18 -0.0105794)
(-1.21861e-18 1.79607e-18 -0.0105018)
(-1.28375e-18 1.85712e-18 -0.0104228)
(-1.17076e-18 1.7897e-18 -0.0103426)
(-9.61468e-19 1.65719e-18 -0.0102609)
(-8.90467e-19 1.61326e-18 -0.0101777)
(-9.5657e-19 1.67857e-18 -0.010093)
(-8.68525e-19 1.62824e-18 -0.0100067)
(-6.49078e-19 1.47119e-18 -0.00991874)
(-5.90652e-19 1.40927e-18 -0.00982899)
(-5.40832e-19 1.36291e-18 -0.00973738)
(-4.63911e-19 1.32843e-18 -0.00964382)
(-4.31959e-19 1.36183e-18 -0.00954822)
(-3.17551e-19 1.35109e-18 -0.00945047)
(-2.30395e-19 1.34545e-18 -0.00935046)
(-2.48463e-19 1.41906e-18 -0.00924806)
(-2.16649e-19 1.46233e-18 -0.00914315)
(-1.01193e-19 1.43845e-18 -0.00903559)
(-3.057e-20 1.44435e-18 -0.00892523)
(-1.05381e-20 1.47738e-18 -0.00881191)
(1.42973e-20 1.49786e-18 -0.00869547)
(5.70276e-20 1.49666e-18 -0.00857572)
(1.50251e-19 1.45738e-18 -0.00845246)
(3.26692e-19 1.36187e-18 -0.0083255)
(5.08256e-19 1.26521e-18 -0.00819461)
(7.22312e-19 1.14547e-18 -0.00805955)
(9.52295e-19 1.00741e-18 -0.00792007)
(1.04724e-18 9.7223e-19 -0.00777591)
(9.23556e-19 1.10891e-18 -0.00762677)
(7.60441e-19 1.27882e-18 -0.00747236)
(7.52244e-19 1.32986e-18 -0.00731236)
(8.28008e-19 1.31162e-18 -0.00714644)
(8.76544e-19 1.30237e-18 -0.00697426)
(8.73116e-19 1.31721e-18 -0.00679545)
(7.93553e-19 1.38543e-18 -0.00660959)
(7.10834e-19 1.45629e-18 -0.00641597)
(6.90597e-19 1.48599e-18 -0.00621377)
(7.30564e-19 1.4737e-18 -0.00600242)
(8.11791e-19 1.41863e-18 -0.0057814)
(8.56048e-19 1.38255e-18 -0.00555032)
(8.7187e-19 1.35877e-18 -0.00530887)
(8.69444e-19 1.34915e-18 -0.00505698)
(8.95193e-19 1.31339e-18 -0.00479483)
(9.1873e-19 1.26958e-18 -0.00452293)
(8.81244e-19 1.25541e-18 -0.00424217)
(8.37889e-19 1.23024e-18 -0.00395381)
(7.97153e-19 1.18831e-18 -0.00365945)
(7.30564e-19 1.14721e-18 -0.00336084)
(6.37075e-19 1.10408e-18 -0.00305977)
(5.7146e-19 1.01763e-18 -0.00275786)
(5.30918e-19 8.94557e-19 -0.0024565)
(4.78875e-19 7.63176e-19 -0.00215673)
(4.11244e-19 6.23945e-19 -0.00185929)
(3.27868e-19 4.82737e-19 -0.00156464)
(2.30786e-19 3.45398e-19 -0.00127305)
(1.49456e-19 1.97852e-19 -0.000984643)
(6.35019e-20 6.67445e-20 -0.000699448)
(-8.33092e-21 -4.61476e-20 -0.000417467)
(1.56371e-20 3.01969e-20 -0.000138675)
(-1.37452e-19 2.79754e-19 -0.0128314)
(-2.74921e-19 3.76556e-19 -0.0127795)
(-4.22377e-19 5.06026e-19 -0.0127273)
(-4.9869e-19 6.17912e-19 -0.0126746)
(-5.48692e-19 7.43103e-19 -0.0126215)
(-5.15863e-19 7.5438e-19 -0.012568)
(-5.88029e-19 8.0469e-19 -0.012514)
(-5.83891e-19 8.35186e-19 -0.0124596)
(-7.24006e-19 9.25648e-19 -0.0124047)
(-1.04797e-18 1.12591e-18 -0.0123493)
(-1.17309e-18 1.1465e-18 -0.0122934)
(-8.91361e-19 8.91759e-19 -0.0122369)
(-7.54447e-19 7.52449e-19 -0.0121799)
(-1.22503e-18 9.89076e-19 -0.0121224)
(-1.60639e-18 1.16359e-18 -0.0120643)
(-1.58108e-18 1.07829e-18 -0.0120056)
(-1.56709e-18 9.98811e-19 -0.0119462)
(-1.71025e-18 1.00279e-18 -0.0118863)
(-1.79154e-18 9.52751e-19 -0.0118258)
(-1.74277e-18 8.13737e-19 -0.0117646)
(-1.68885e-18 6.869e-19 -0.0117027)
(-1.72817e-18 6.43302e-19 -0.0116402)
(-1.76587e-18 6.1214e-19 -0.0115769)
(-1.65422e-18 5.01763e-19 -0.011513)
(-1.56897e-18 4.23129e-19 -0.0114482)
(-1.58793e-18 4.02066e-19 -0.0113827)
(-1.50224e-18 3.00638e-19 -0.0113164)
(-1.32414e-18 1.52103e-19 -0.0112492)
(-1.13125e-18 3.62238e-20 -0.0111811)
(-1.10615e-18 3.00714e-20 -0.0111122)
(-1.19652e-18 7.82955e-20 -0.0110423)
(-1.09104e-18 -2.49777e-20 -0.0109715)
(-8.5932e-19 -1.96724e-19 -0.0108996)
(-6.60977e-19 -3.29462e-19 -0.0108267)
(-5.95368e-19 -3.75559e-19 -0.0107527)
(-8.95485e-19 -1.63188e-19 -0.0106776)
(-1.31861e-18 1.57013e-19 -0.0106013)
(-1.46972e-18 3.27461e-19 -0.0105237)
(-1.46453e-18 3.96944e-19 -0.0104449)
(-1.47082e-18 4.58734e-19 -0.0103647)
(-1.46348e-18 5.04004e-19 -0.0102831)
(-1.38954e-18 5.01934e-19 -0.0102001)
(-1.39836e-18 5.64979e-19 -0.0101155)
(-1.4407e-18 6.49494e-19 -0.0100293)
(-1.48588e-18 7.20833e-19 -0.00994147)
(-1.55864e-18 8.13001e-19 -0.00985184)
(-1.33273e-18 6.98e-19 -0.00976037)
(-8.46965e-19 3.84941e-19 -0.00966695)
(-4.94368e-19 1.60045e-19 -0.00957149)
(-4.82195e-19 1.72927e-19 -0.00947389)
(-5.05153e-19 2.16111e-19 -0.00937403)
(-3.61115e-19 1.48421e-19 -0.00927179)
(-3.51639e-19 1.76951e-19 -0.00916704)
(-5.38258e-19 3.4056e-19 -0.00905964)
(-6.96212e-19 4.77126e-19 -0.00894945)
(-7.37843e-19 5.33443e-19 -0.0088363)
(-7.88721e-19 5.99523e-19 -0.00872004)
(-9.46393e-19 7.37616e-19 -0.00860047)
(-1.02268e-18 8.23985e-19 -0.0084774)
(-9.78043e-19 8.21457e-19 -0.00835063)
(-8.24932e-19 7.28288e-19 -0.00821993)
(-6.11483e-19 5.81352e-19 -0.00808506)
(-4.12909e-19 4.40857e-19 -0.00794577)
(-2.33726e-19 3.09618e-19 -0.00780179)
(-9.775e-20 2.08976e-19 -0.00765284)
(-3.33781e-20 1.65715e-19 -0.00749861)
(-3.94531e-20 1.74274e-19 -0.00733878)
(-1.45429e-19 2.49123e-19 -0.00717302)
(-3.19754e-19 3.71013e-19 -0.00700098)
(-3.92751e-19 4.24913e-19 -0.0068223)
(-3.21702e-19 3.80531e-19 -0.00663654)
(-1.89517e-19 2.99408e-19 -0.00644303)
(-4.96909e-20 2.14869e-19 -0.00624097)
(-3.17308e-20 2.16386e-19 -0.00602971)
(-8.89078e-20 2.69289e-19 -0.00580874)
(-9.02541e-20 2.82399e-19 -0.00557762)
(-2.99724e-20 2.53675e-19 -0.00533604)
(3.9352e-20 2.17643e-19 -0.00508389)
(1.85474e-20 2.43769e-19 -0.00482131)
(-7.07515e-20 3.18356e-19 -0.0045488)
(-1.40502e-19 3.8076e-19 -0.00426722)
(-1.26932e-19 3.83971e-19 -0.00397782)
(-7.38904e-20 3.5343e-19 -0.00368219)
(-7.78089e-20 3.52502e-19 -0.00338211)
(-1.11313e-19 3.62291e-19 -0.0030794)
(-9.18395e-20 3.23054e-19 -0.00277574)
(-2.69783e-20 2.37812e-19 -0.00247253)
(1.28214e-20 1.55025e-19 -0.00217087)
(8.73554e-21 8.72683e-20 -0.00187151)
(-2.64887e-20 2.68738e-20 -0.00157495)
(-7.64811e-20 -3.17646e-20 -0.00128145)
(-1.16729e-19 -9.90828e-20 -0.000991143)
(-1.31364e-19 -1.74738e-19 -0.00070407)
(-1.54879e-19 -2.18027e-19 -0.000420228)
(-2.82993e-21 -1.44375e-20 -0.000139594)
(-8.08892e-19 3.61221e-19 -0.0128501)
(-6.41408e-19 1.48708e-19 -0.0127982)
(-5.5778e-19 1.19376e-21 -0.012746)
(-3.58825e-19 -2.06076e-19 -0.0126933)
(-3.37521e-19 -2.64771e-19 -0.0126403)
(-4.32389e-19 -2.36071e-19 -0.0125868)
(-3.19496e-19 -3.16542e-19 -0.0125329)
(-3.95196e-19 -2.68476e-19 -0.0124785)
(-4.99735e-19 -1.89412e-19 -0.0124237)
(-7.3184e-19 -1.01586e-20 -0.0123684)
(-9.607e-19 1.64591e-19 -0.0123125)
(-9.15949e-19 1.6334e-19 -0.0122561)
(-9.69698e-19 1.78925e-19 -0.0121992)
(-1.09862e-18 2.56985e-19 -0.0121417)
(-1.13272e-18 3.22228e-19 -0.0120836)
(-1.14258e-18 3.56755e-19 -0.012025)
(-1.20334e-18 4.24621e-19 -0.0119657)
(-1.21256e-18 4.70466e-19 -0.0119059)
(-1.22087e-18 5.20206e-19 -0.0118454)
(-1.33409e-18 6.42717e-19 -0.0117843)
(-1.40946e-18 7.46523e-19 -0.0117225)
(-1.32667e-18 7.56972e-19 -0.01166)
(-1.09112e-18 6.62194e-19 -0.0115968)
(-8e-19 5.18256e-19 -0.0115329)
(-7.07716e-19 4.74268e-19 -0.0114682)
(-7.58245e-19 5.23105e-19 -0.0114028)
(-6.50161e-19 4.66234e-19 -0.0113365)
(-4.03304e-19 3.28095e-19 -0.0112694)
(-3.07306e-19 2.79241e-19 -0.0112014)
(-5.0657e-19 3.9378e-19 -0.0111326)
(-7.47395e-19 5.19673e-19 -0.0110628)
(-7.12569e-19 4.67538e-19 -0.010992)
(-5.30536e-19 3.06646e-19 -0.0109202)
(-5.40832e-19 2.58106e-19 -0.0108474)
(-6.03681e-19 2.20601e-19 -0.0107735)
(-4.76789e-19 6.14982e-20 -0.0106985)
(-2.14832e-19 -1.63812e-19 -0.0106222)
(-1.44763e-19 -2.44566e-19 -0.0105448)
(-3.94388e-19 -1.17446e-19 -0.0104661)
(-5.65714e-19 -4.79044e-20 -0.010386)
(-5.19575e-19 -1.18091e-19 -0.0103045)
(-4.42911e-19 -1.94326e-19 -0.0102216)
(-4.89515e-19 -1.7233e-19 -0.0101371)
(-5.99944e-19 -9.65994e-20 -0.010051)
(-5.39646e-19 -1.3414e-19 -0.00996331)
(-5.17402e-19 -1.33979e-19 -0.00987381)
(-7.41573e-19 2.88119e-20 -0.00978246)
(-9.39745e-19 1.63452e-19 -0.00968917)
(-9.28778e-19 1.39993e-19 -0.00959385)
(-7.52719e-19 1.27693e-20 -0.00949639)
(-6.15953e-19 -8.49691e-20 -0.00939667)
(-6.14198e-19 -1.06321e-19 -0.00929458)
(-5.87187e-19 -1.49812e-19 -0.00918998)
(-5.92631e-19 -1.54955e-19 -0.00908274)
(-6.54952e-19 -1.2423e-19 -0.00897271)
(-6.33393e-19 -1.52042e-19 -0.00885973)
(-6.20864e-19 -1.79042e-19 -0.00874364)
(-5.87777e-19 -2.08458e-19 -0.00862424)
(-5.52101e-19 -2.34573e-19 -0.00850135)
(-6.59485e-19 -1.76553e-19 -0.00837476)
(-8.3121e-19 -7.93352e-20 -0.00824424)
(-7.95337e-19 -1.19423e-19 -0.00810955)
(-6.24421e-19 -2.4886e-19 -0.00797045)
(-5.40195e-19 -3.29267e-19 -0.00782665)
(-5.42835e-19 -3.59987e-19 -0.00767788)
(-5.82476e-19 -3.69931e-19 -0.00752382)
(-6.24302e-19 -3.73708e-19 -0.00736416)
(-6.11513e-19 -4.06025e-19 -0.00719855)
(-5.35506e-19 -4.69674e-19 -0.00702665)
(-4.98404e-19 -4.97435e-19 -0.00684809)
(-4.89491e-19 -5.03068e-19 -0.00666243)
(-4.75762e-19 -5.08422e-19 -0.00646905)
(-4.71119e-19 -5.09623e-19 -0.00626712)
(-4.57293e-19 -5.15512e-19 -0.00605596)
(-4.18747e-19 -5.28339e-19 -0.00583504)
(-4.03e-19 -5.16958e-19 -0.0056039)
(-4.10611e-19 -4.86527e-19 -0.0053622)
(-3.80558e-19 -4.79085e-19 -0.00510981)
(-2.87686e-19 -5.09638e-19 -0.00484684)
(-1.85792e-19 -5.40042e-19 -0.00457375)
(-1.01077e-19 -5.53307e-19 -0.00429139)
(-8.4151e-20 -5.2002e-19 -0.00400099)
(-1.22522e-19 -4.53495e-19 -0.00370416)
(-1.58717e-19 -3.89498e-19 -0.00340267)
(-1.66921e-19 -3.46897e-19 -0.00309839)
(-1.52838e-19 -3.25893e-19 -0.00279303)
(-1.45824e-19 -3.08151e-19 -0.00248804)