/*--------------------------------*- C++ -*----------------------------------*\
  =========                 |
  \\      /  F ield         | OpenFOAM: The Open Source CFD Toolbox
   \\    /   O peration     | Website:  https://openfoam.org
    \\  /    A nd           | Version:  7
     \\/     M anipulation  |
\*---------------------------------------------------------------------------*/
FoamFile
{
    version     2.0;
    format      ascii;
    class       volScalarField;
    location    "56000";
    object      nut;
}
// * * * * * * * * * * * * * * * * * * * * * * * * * * * * * * * * * * * * * //

dimensions      [0 2 -1 0 0 0 0];

internalField   nonuniform List<scalar> 
4850
(
5.19606e-13
5.18619e-13
5.21587e-13
5.20598e-13
5.19664e-13
5.23573e-13
5.22584e-13
5.2165e-13
5.20767e-13
5.19937e-13
5.25563e-13
5.24575e-13
5.23642e-13
5.22759e-13
5.21926e-13
5.21138e-13
5.27559e-13
5.26572e-13
5.25639e-13
5.24756e-13
5.23923e-13
5.23135e-13
5.22393e-13
5.29559e-13
5.28573e-13
5.27641e-13
5.26759e-13
5.25926e-13
5.25139e-13
5.24397e-13
5.237e-13
5.2305e-13
5.31563e-13
5.30579e-13
5.29649e-13
5.28768e-13
5.27935e-13
5.27149e-13
5.26408e-13
5.25711e-13
5.25059e-13
5.24447e-13
5.33572e-13
5.3259e-13
5.31661e-13
5.30782e-13
5.2995e-13
5.29165e-13
5.28425e-13
5.27728e-13
5.27076e-13
5.26464e-13
5.25893e-13
5.25367e-13
5.24881e-13
5.24432e-13
5.35586e-13
5.34605e-13
5.33678e-13
5.32801e-13
5.31971e-13
5.31187e-13
5.30448e-13
5.29752e-13
5.291e-13
5.28488e-13
5.27917e-13
5.27389e-13
5.26901e-13
5.2645e-13
5.26034e-13
5.25661e-13
5.25326e-13
5.25028e-13
5.37604e-13
5.36626e-13
5.35701e-13
5.34825e-13
5.33997e-13
5.33215e-13
5.32477e-13
5.31783e-13
5.3113e-13
5.30519e-13
5.29949e-13
5.29419e-13
5.28928e-13
5.28475e-13
5.28059e-13
5.27683e-13
5.27345e-13
5.27044e-13
5.26779e-13
5.26556e-13
5.39628e-13
5.38651e-13
5.37728e-13
5.36854e-13
5.36028e-13
5.35248e-13
5.34512e-13
5.33819e-13
5.33168e-13
5.32557e-13
5.31986e-13
5.31456e-13
5.30963e-13
5.30509e-13
5.30092e-13
5.29713e-13
5.29372e-13
5.29068e-13
5.28801e-13
5.28575e-13
5.28386e-13
5.28242e-13
5.28139e-13
5.28075e-13
5.41656e-13
5.40681e-13
5.3976e-13
5.38889e-13
5.38065e-13
5.37287e-13
5.36553e-13
5.35862e-13
5.35211e-13
5.34602e-13
5.34031e-13
5.33499e-13
5.33006e-13
5.3255e-13
5.32131e-13
5.3175e-13
5.31407e-13
5.311e-13
5.30832e-13
5.30602e-13
5.30412e-13
5.30265e-13
5.30159e-13
5.30093e-13
5.30067e-13
5.30087e-13
5.3015e-13
5.30256e-13
5.30403e-13
5.43689e-13
5.42717e-13
5.41798e-13
5.40929e-13
5.40108e-13
5.39332e-13
5.386e-13
5.37911e-13
5.37262e-13
5.36653e-13
5.36082e-13
5.3555e-13
5.35056e-13
5.34599e-13
5.34178e-13
5.33795e-13
5.33449e-13
5.3314e-13
5.32869e-13
5.32637e-13
5.32445e-13
5.32295e-13
5.32186e-13
5.32119e-13
5.32092e-13
5.32111e-13
5.32172e-13
5.32277e-13
5.32424e-13
5.32611e-13
5.32847e-13
5.33127e-13
5.45728e-13
5.44758e-13
5.43842e-13
5.42975e-13
5.42156e-13
5.41383e-13
5.40653e-13
5.39966e-13
5.39318e-13
5.3871e-13
5.3814e-13
5.37608e-13
5.37113e-13
5.36654e-13
5.36232e-13
5.35846e-13
5.35498e-13
5.35186e-13
5.34913e-13
5.34679e-13
5.34485e-13
5.34332e-13
5.34221e-13
5.34152e-13
5.34124e-13
5.34141e-13
5.34202e-13
5.34306e-13
5.34453e-13
5.34642e-13
5.34877e-13
5.35156e-13
5.35478e-13
5.3585e-13
5.47772e-13
5.46804e-13
5.45891e-13
5.45027e-13
5.44211e-13
5.4344e-13
5.42713e-13
5.42027e-13
5.41382e-13
5.40775e-13
5.40205e-13
5.39673e-13
5.39177e-13
5.38717e-13
5.38293e-13
5.37905e-13
5.37554e-13
5.3724e-13
5.36964e-13
5.36727e-13
5.36531e-13
5.36376e-13
5.36262e-13
5.36192e-13
5.36163e-13
5.36179e-13
5.36239e-13
5.36342e-13
5.36489e-13
5.36679e-13
5.36914e-13
5.37193e-13
5.37516e-13
5.37886e-13
5.49822e-13
5.48856e-13
5.47946e-13
5.47085e-13
5.46272e-13
5.45504e-13
5.44779e-13
5.44096e-13
5.43452e-13
5.42846e-13
5.42278e-13
5.41745e-13
5.41248e-13
5.40787e-13
5.40361e-13
5.39971e-13
5.39617e-13
5.393e-13
5.39022e-13
5.38782e-13
5.38584e-13
5.38426e-13
5.3831e-13
5.38238e-13
5.38208e-13
5.38223e-13
5.38282e-13
5.38385e-13
5.38532e-13
5.38722e-13
5.38958e-13
5.39238e-13
5.39562e-13
5.3993e-13
5.51878e-13
5.50915e-13
5.50007e-13
5.49149e-13
5.48339e-13
5.47574e-13
5.46852e-13
5.46171e-13
5.45529e-13
5.44925e-13
5.44357e-13
5.43824e-13
5.43327e-13
5.42864e-13
5.42436e-13
5.42044e-13
5.41687e-13
5.41368e-13
5.41086e-13
5.40844e-13
5.40643e-13
5.40482e-13
5.40365e-13
5.4029e-13
5.40259e-13
5.40273e-13
5.40331e-13
5.40434e-13
5.40581e-13
5.40773e-13
5.41009e-13
5.4129e-13
5.41614e-13
5.41983e-13
5.53939e-13
5.52979e-13
5.52074e-13
5.51219e-13
5.50413e-13
5.49651e-13
5.48932e-13
5.48254e-13
5.47614e-13
5.47011e-13
5.46444e-13
5.45911e-13
5.45413e-13
5.44949e-13
5.44519e-13
5.44124e-13
5.43765e-13
5.43442e-13
5.43158e-13
5.42913e-13
5.42708e-13
5.42545e-13
5.42425e-13
5.42349e-13
5.42317e-13
5.42329e-13
5.42387e-13
5.4249e-13
5.42637e-13
5.42829e-13
5.43067e-13
5.43348e-13
5.43674e-13
5.44044e-13
5.56007e-13
5.5505e-13
5.54148e-13
5.53297e-13
5.52493e-13
5.51735e-13
5.51019e-13
5.50343e-13
5.49706e-13
5.49104e-13
5.48538e-13
5.48006e-13
5.47507e-13
5.47041e-13
5.46609e-13
5.46212e-13
5.4585e-13
5.45524e-13
5.45236e-13
5.44988e-13
5.44781e-13
5.44615e-13
5.44493e-13
5.44414e-13
5.44381e-13
5.44392e-13
5.44449e-13
5.44552e-13
5.447e-13
5.44893e-13
5.45131e-13
5.45414e-13
5.45741e-13
5.46113e-13
5.5808e-13
5.57127e-13
5.56228e-13
5.55381e-13
5.54581e-13
5.53826e-13
5.53113e-13
5.52441e-13
5.51805e-13
5.51206e-13
5.5064e-13
5.50108e-13
5.49609e-13
5.49142e-13
5.48708e-13
5.48307e-13
5.47942e-13
5.47613e-13
5.47322e-13
5.4707e-13
5.4686e-13
5.46691e-13
5.46566e-13
5.46486e-13
5.46451e-13
5.46462e-13
5.46518e-13
5.46621e-13
5.46769e-13
5.46963e-13
5.47202e-13
5.47486e-13
5.47815e-13
5.48189e-13
5.6016e-13
5.59211e-13
5.58316e-13
5.57472e-13
5.56675e-13
5.55924e-13
5.55215e-13
5.54546e-13
5.53913e-13
5.53315e-13
5.52751e-13
5.52219e-13
5.51719e-13
5.5125e-13
5.50814e-13
5.50411e-13
5.50042e-13
5.49709e-13
5.49414e-13
5.49159e-13
5.48945e-13
5.48774e-13
5.48647e-13
5.48565e-13
5.48528e-13
5.48538e-13
5.48593e-13
5.48696e-13
5.48845e-13
5.49039e-13
5.4928e-13
5.49565e-13
5.49896e-13
5.50273e-13
5.62246e-13
5.61302e-13
5.6041e-13
5.5957e-13
5.58777e-13
5.5803e-13
5.57325e-13
5.56658e-13
5.56029e-13
5.55433e-13
5.5487e-13
5.54338e-13
5.53837e-13
5.53367e-13
5.52928e-13
5.52522e-13
5.5215e-13
5.51813e-13
5.51515e-13
5.51256e-13
5.51038e-13
5.50864e-13
5.50734e-13
5.5065e-13
5.50612e-13
5.5062e-13
5.50676e-13
5.50778e-13
5.50927e-13
5.51123e-13
5.51365e-13
5.51652e-13
5.51985e-13
5.52365e-13
5.6434e-13
5.634e-13
5.62512e-13
5.61676e-13
5.60887e-13
5.60144e-13
5.59442e-13
5.58779e-13
5.58153e-13
5.57559e-13
5.56997e-13
5.56466e-13
5.55964e-13
5.55492e-13
5.55051e-13
5.54641e-13
5.54265e-13
5.53925e-13
5.53622e-13
5.5336e-13
5.53139e-13
5.52961e-13
5.52828e-13
5.52742e-13
5.52702e-13
5.5271e-13
5.52764e-13
5.52867e-13
5.53017e-13
5.53214e-13
5.53457e-13
5.53746e-13
5.54082e-13
5.54465e-13
5.54898e-13
5.6645e-13
5.65507e-13
5.64622e-13
5.63789e-13
5.63004e-13
5.62265e-13
5.61568e-13
5.60909e-13
5.60285e-13
5.59694e-13
5.59133e-13
5.58602e-13
5.58099e-13
5.57626e-13
5.57182e-13
5.56769e-13
5.56389e-13
5.56045e-13
5.55738e-13
5.55471e-13
5.55246e-13
5.55065e-13
5.5493e-13
5.54841e-13
5.548e-13
5.54806e-13
5.5486e-13
5.54963e-13
5.55114e-13
5.55311e-13
5.55556e-13
5.55847e-13
5.56185e-13
5.56574e-13
5.57014e-13
5.68585e-13
5.67631e-13
5.66743e-13
5.65911e-13
5.6513e-13
5.64395e-13
5.63702e-13
5.63047e-13
5.62427e-13
5.61837e-13
5.61278e-13
5.60748e-13
5.60244e-13
5.59769e-13
5.59322e-13
5.58906e-13
5.58522e-13
5.58173e-13
5.57861e-13
5.5759e-13
5.57361e-13
5.57177e-13
5.57038e-13
5.56947e-13
5.56904e-13
5.56909e-13
5.56964e-13
5.57066e-13
5.57218e-13
5.57417e-13
5.57663e-13
5.57956e-13
5.58297e-13
5.5869e-13
5.59135e-13
5.70754e-13
5.69784e-13
5.68887e-13
5.68049e-13
5.67268e-13
5.66535e-13
5.65845e-13
5.65193e-13
5.64577e-13
5.6399e-13
5.63433e-13
5.62902e-13
5.62398e-13
5.6192e-13
5.61471e-13
5.61051e-13
5.60662e-13
5.60309e-13
5.59993e-13
5.59717e-13
5.59484e-13
5.59296e-13
5.59154e-13
5.59061e-13
5.59016e-13
5.5902e-13
5.59074e-13
5.59177e-13
5.59329e-13
5.59529e-13
5.59777e-13
5.60072e-13
5.60416e-13
5.60815e-13
5.72961e-13
5.71976e-13
5.71065e-13
5.70218e-13
5.6943e-13
5.68693e-13
5.68002e-13
5.67352e-13
5.66737e-13
5.66152e-13
5.65596e-13
5.65067e-13
5.64561e-13
5.64082e-13
5.63629e-13
5.63205e-13
5.62812e-13
5.62453e-13
5.62132e-13
5.61852e-13
5.61614e-13
5.61422e-13
5.61278e-13
5.61182e-13
5.61135e-13
5.61139e-13
5.61192e-13
5.61295e-13
5.61448e-13
5.6165e-13
5.619e-13
5.62197e-13
5.62543e-13
5.62949e-13
5.75211e-13
5.7421e-13
5.73285e-13
5.72426e-13
5.71629e-13
5.70884e-13
5.70188e-13
5.69533e-13
5.68915e-13
5.68329e-13
5.67772e-13
5.67241e-13
5.66734e-13
5.66252e-13
5.65797e-13
5.65369e-13
5.6497e-13
5.64607e-13
5.6428e-13
5.63995e-13
5.63753e-13
5.63557e-13
5.63409e-13
5.6331e-13
5.63262e-13
5.63264e-13
5.63318e-13
5.63421e-13
5.63575e-13
5.63778e-13
5.6403e-13
5.64329e-13
5.64677e-13
5.65091e-13
5.77505e-13
5.76489e-13
5.75549e-13
5.74677e-13
5.73869e-13
5.73115e-13
5.72411e-13
5.71749e-13
5.71125e-13
5.70534e-13
5.69971e-13
5.69434e-13
5.68923e-13
5.68436e-13
5.67975e-13
5.67541e-13
5.67138e-13
5.66769e-13
5.66437e-13
5.66146e-13
5.65899e-13
5.65699e-13
5.65548e-13
5.65447e-13
5.65397e-13
5.65398e-13
5.65451e-13
5.65556e-13
5.6571e-13
5.65915e-13
5.66169e-13
5.66472e-13
5.66826e-13
5.67245e-13
5.79847e-13
5.78814e-13
5.77859e-13
5.76975e-13
5.76154e-13
5.75391e-13
5.74677e-13
5.74007e-13
5.73375e-13
5.72776e-13
5.72205e-13
5.7166e-13
5.7114e-13
5.70644e-13
5.70174e-13
5.69732e-13
5.69321e-13
5.68944e-13
5.68605e-13
5.68307e-13
5.68055e-13
5.6785e-13
5.67695e-13
5.67591e-13
5.67539e-13
5.6754e-13
5.67593e-13
5.67698e-13
5.67855e-13
5.68063e-13
5.68323e-13
5.68634e-13
5.68998e-13
5.82237e-13
5.81188e-13
5.80218e-13
5.7932e-13
5.78488e-13
5.77713e-13
5.7699e-13
5.76311e-13
5.75669e-13
5.75061e-13
5.74481e-13
5.73926e-13
5.73395e-13
5.72888e-13
5.72407e-13
5.71953e-13
5.71531e-13
5.71143e-13
5.70794e-13
5.70488e-13
5.70228e-13
5.70017e-13
5.69858e-13
5.69751e-13
5.69697e-13
5.69697e-13
5.69751e-13
5.69859e-13
5.7002e-13
5.70234e-13
5.70503e-13
5.70825e-13
5.71196e-13
5.84676e-13
5.83611e-13
5.82627e-13
5.81715e-13
5.8087e-13
5.80085e-13
5.79351e-13
5.78662e-13
5.78011e-13
5.77393e-13
5.76802e-13
5.76237e-13
5.75694e-13
5.75175e-13
5.7468e-13
5.74214e-13
5.73778e-13
5.73378e-13
5.73018e-13
5.72701e-13
5.72432e-13
5.72214e-13
5.72049e-13
5.71939e-13
5.71884e-13
5.71884e-13
5.71939e-13
5.7205e-13
5.72216e-13
5.72438e-13
5.72717e-13
5.7305e-13
5.87165e-13
5.86084e-13
5.85085e-13
5.8416e-13
5.83303e-13
5.82506e-13
5.81763e-13
5.81064e-13
5.80403e-13
5.79775e-13
5.79173e-13
5.78596e-13
5.78041e-13
5.77508e-13
5.76999e-13
5.76518e-13
5.76068e-13
5.75654e-13
5.75281e-13
5.74954e-13
5.74675e-13
5.74449e-13
5.74279e-13
5.74165e-13
5.74107e-13
5.74107e-13
5.74165e-13
5.74279e-13
5.74451e-13
5.74681e-13
5.74968e-13
5.7531e-13
5.89706e-13
5.88608e-13
5.87594e-13
5.86656e-13
5.85787e-13
5.84979e-13
5.84225e-13
5.83517e-13
5.82846e-13
5.82207e-13
5.81595e-13
5.81005e-13
5.80437e-13
5.7989e-13
5.79367e-13
5.7887e-13
5.78405e-13
5.77976e-13
5.7759e-13
5.7725e-13
5.76961e-13
5.76727e-13
5.7655e-13
5.76432e-13
5.76373e-13
5.76373e-13
5.76432e-13
5.76551e-13
5.76729e-13
5.76965e-13
5.77259e-13
5.7761e-13
5.92298e-13
5.91184e-13
5.90155e-13
5.89203e-13
5.88322e-13
5.87504e-13
5.8674e-13
5.86022e-13
5.85341e-13
5.84692e-13
5.84068e-13
5.83466e-13
5.82884e-13
5.82323e-13
5.81784e-13
5.81271e-13
5.8079e-13
5.80346e-13
5.79945e-13
5.79592e-13
5.79293e-13
5.7905e-13
5.78867e-13
5.78744e-13
5.78683e-13
5.78683e-13
5.78745e-13
5.78867e-13
5.7905e-13
5.79292e-13
5.79593e-13
5.79951e-13
5.94942e-13
5.93811e-13
5.92768e-13
5.91803e-13
5.9091e-13
5.90082e-13
5.89308e-13
5.8858e-13
5.8789e-13
5.8723e-13
5.86595e-13
5.8598e-13
5.85385e-13
5.84808e-13
5.84252e-13
5.83723e-13
5.83225e-13
5.82765e-13
5.82349e-13
5.81983e-13
5.81672e-13
5.81421e-13
5.8123e-13
5.81103e-13
5.8104e-13
5.8104e-13
5.81104e-13
5.81229e-13
5.81416e-13
5.81664e-13
5.81971e-13
5.82337e-13
5.9764e-13
5.96493e-13
5.95434e-13
5.94456e-13
5.93552e-13
5.92713e-13
5.91929e-13
5.91192e-13
5.90492e-13
5.89822e-13
5.89175e-13
5.88548e-13
5.87938e-13
5.87345e-13
5.86773e-13
5.86227e-13
5.85711e-13
5.85234e-13
5.84803e-13
5.84423e-13
5.84101e-13
5.8384e-13
5.83642e-13
5.83511e-13
5.83445e-13
5.83445e-13
5.8351e-13
5.83639e-13
5.8383e-13
5.84082e-13
5.84395e-13
5.84771e-13
6.00393e-13
5.99228e-13
5.98155e-13
5.97164e-13
5.96248e-13
5.95398e-13
5.94605e-13
5.93858e-13
5.93149e-13
5.92469e-13
5.91811e-13
5.91171e-13
5.90546e-13
5.89937e-13
5.89348e-13
5.88783e-13
5.8825e-13
5.87755e-13
5.87307e-13
5.86914e-13
5.86579e-13
5.86308e-13
5.86103e-13
5.85967e-13
5.85899e-13
5.85898e-13
5.85965e-13
5.86096e-13
5.86291e-13
5.86547e-13
5.86866e-13
5.87253e-13
6.03201e-13
6.02019e-13
6.00931e-13
5.99927e-13
5.98999e-13
5.98139e-13
5.97336e-13
5.9658e-13
5.95862e-13
5.95171e-13
5.94502e-13
5.93849e-13
5.93209e-13
5.92584e-13
5.91976e-13
5.91393e-13
5.90841e-13
5.90328e-13
5.89864e-13
5.89455e-13
5.89107e-13
5.88826e-13
5.88615e-13
5.88473e-13
5.88402e-13
5.88401e-13
5.88469e-13
5.88602e-13
5.88801e-13
5.89062e-13
5.89387e-13
5.89786e-13
6.06066e-13
6.04867e-13
6.03763e-13
6.02746e-13
6.01806e-13
6.00936e-13
6.00124e-13
5.99359e-13
5.98631e-13
5.97931e-13
5.9725e-13
5.96583e-13
5.95929e-13
5.95287e-13
5.9466e-13
5.94058e-13
5.93486e-13
5.92954e-13
5.92472e-13
5.92048e-13
5.91687e-13
5.91396e-13
5.91176e-13
5.9103e-13
5.90956e-13
5.90955e-13
5.91023e-13
5.91159e-13
5.91361e-13
5.91627e-13
5.91959e-13
5.92371e-13
6.08989e-13
6.07772e-13
6.06653e-13
6.05622e-13
6.04671e-13
6.0379e-13
6.02969e-13
6.02196e-13
6.01458e-13
6.00748e-13
6.00056e-13
5.99376e-13
5.98706e-13
5.98046e-13
5.974e-13
5.96777e-13
5.96185e-13
5.95634e-13
5.95134e-13
5.94694e-13
5.9432e-13
5.94017e-13
5.9379e-13
5.93638e-13
5.93562e-13
5.93559e-13
5.93629e-13
5.93768e-13
5.93974e-13
5.94246e-13
5.94586e-13
5.95013e-13
6.1197e-13
6.10736e-13
6.09601e-13
6.08557e-13
6.07594e-13
6.06703e-13
6.05873e-13
6.05091e-13
6.04345e-13
6.03624e-13
6.0292e-13
6.02227e-13
6.01541e-13
6.00863e-13
6.00197e-13
5.99553e-13
5.9894e-13
5.98369e-13
5.9785e-13
5.97393e-13
5.97004e-13
5.96691e-13
5.96455e-13
5.96298e-13
5.96219e-13
5.96216e-13
5.96288e-13
5.9643e-13
5.96642e-13
5.96921e-13
5.97271e-13
5.97715e-13
6.1501e-13
6.13759e-13
6.12609e-13
6.11551e-13
6.10577e-13
6.09676e-13
6.08837e-13
6.08046e-13
6.07291e-13
6.06561e-13
6.05845e-13
6.05138e-13
6.04436e-13
6.03739e-13
6.03053e-13
6.02387e-13
6.01752e-13
6.01159e-13
6.00621e-13
6.00146e-13
5.99743e-13
5.99418e-13
5.99174e-13
5.99012e-13
5.9893e-13
5.98927e-13
5.99001e-13
5.99148e-13
5.99367e-13
5.99655e-13
6.00018e-13
6.00481e-13
6.18109e-13
6.16841e-13
6.15676e-13
6.14605e-13
6.1362e-13
6.12709e-13
6.11862e-13
6.11063e-13
6.10299e-13
6.09559e-13
6.08832e-13
6.08111e-13
6.07392e-13
6.06675e-13
6.05968e-13
6.05279e-13
6.04621e-13
6.04007e-13
6.03447e-13
6.02954e-13
6.02537e-13
6.022e-13
6.01947e-13
6.0178e-13
6.01696e-13
6.01693e-13
6.01769e-13
6.01922e-13
6.0215e-13
6.02452e-13
6.0283e-13
6.03315e-13
6.21265e-13
6.19981e-13
6.18802e-13
6.17719e-13
6.16723e-13
6.15804e-13
6.14948e-13
6.14141e-13
6.13369e-13
6.1262e-13
6.11881e-13
6.11146e-13
6.1041e-13
6.09673e-13
6.08944e-13
6.08231e-13
6.07549e-13
6.06912e-13
6.06331e-13
6.05819e-13
6.05386e-13
6.05037e-13
6.04776e-13
6.04603e-13
6.04517e-13
6.04515e-13
6.04595e-13
6.04755e-13
6.04994e-13
6.05312e-13
6.05709e-13
6.06216e-13
6.24478e-13
6.23179e-13
6.21986e-13
6.20891e-13
6.19886e-13
6.18958e-13
6.18095e-13
6.17282e-13
6.16502e-13
6.15744e-13
6.14994e-13
6.14244e-13
6.13491e-13
6.12734e-13
6.11981e-13
6.11244e-13
6.10538e-13
6.09876e-13
6.09273e-13
6.08742e-13
6.08292e-13
6.07931e-13
6.07661e-13
6.07483e-13
6.07396e-13
6.07395e-13
6.07479e-13
6.07647e-13
6.07899e-13
6.08235e-13
6.08654e-13
6.09175e-13
6.27745e-13
6.26432e-13
6.25227e-13
6.24121e-13
6.23107e-13
6.22173e-13
6.21304e-13
6.20484e-13
6.19698e-13
6.18931e-13
6.1817e-13
6.17407e-13
6.16636e-13
6.15858e-13
6.15082e-13
6.14319e-13
6.13587e-13
6.129e-13
6.12274e-13
6.11723e-13
6.11257e-13
6.10883e-13
6.10604e-13
6.10422e-13
6.10332e-13
6.10333e-13
6.10422e-13
6.10599e-13
6.10865e-13
6.1122e-13
6.11658e-13
6.31067e-13
6.2974e-13
6.28523e-13
6.27407e-13
6.26385e-13
6.25445e-13
6.24571e-13
6.23747e-13
6.22955e-13
6.22181e-13
6.2141e-13
6.20633e-13
6.19845e-13
6.19046e-13
6.18245e-13
6.17456e-13
6.16697e-13
6.15985e-13
6.15335e-13
6.14763e-13
6.1428e-13
6.13893e-13
6.13606e-13
6.13418e-13
6.13328e-13
6.13331e-13
6.13425e-13
6.13611e-13
6.1389e-13
6.14262e-13
6.14714e-13
6.34444e-13
6.33102e-13
6.31873e-13
6.30748e-13
6.29719e-13
6.28774e-13
6.27896e-13
6.27069e-13
6.26272e-13
6.25491e-13
6.24712e-13
6.23923e-13
6.23117e-13
6.22297e-13
6.21471e-13
6.20655e-13
6.19869e-13
6.1913e-13
6.18456e-13
6.17862e-13
6.17362e-13
6.16962e-13
6.16666e-13
6.16474e-13
6.16383e-13
6.16388e-13
6.16488e-13
6.16682e-13
6.16973e-13
6.17359e-13
6.37883e-13
6.36524e-13
6.35281e-13
6.34145e-13
6.33108e-13
6.32159e-13
6.31278e-13
6.30448e-13
6.29648e-13
6.28862e-13
6.28075e-13
6.27274e-13
6.26452e-13
6.2561e-13
6.24759e-13
6.23916e-13
6.23101e-13
6.22335e-13
6.21636e-13
6.2102e-13
6.20502e-13
6.20089e-13
6.19785e-13
6.19589e-13
6.19496e-13
6.19504e-13
6.19609e-13
6.19811e-13
6.20111e-13
6.20506e-13
6.41391e-13
6.40011e-13
6.38751e-13
6.37601e-13
6.36555e-13
6.35601e-13
6.34717e-13
6.33885e-13
6.33082e-13
6.32291e-13
6.31497e-13
6.30684e-13
6.29846e-13
6.28983e-13
6.28106e-13
6.27235e-13
6.26392e-13
6.25598e-13
6.24873e-13
6.24236e-13
6.237e-13
6.23274e-13
6.22961e-13
6.2276e-13
6.22668e-13
6.22677e-13
6.22787e-13
6.22995e-13
6.23302e-13
6.23704e-13
6.44982e-13
6.43575e-13
6.42292e-13
6.41125e-13
6.40067e-13
6.39105e-13
6.38217e-13
6.37382e-13
6.36576e-13
6.3578e-13
6.34979e-13
6.34155e-13
6.33301e-13
6.32416e-13
6.31513e-13
6.30614e-13
6.29741e-13
6.28919e-13
6.28168e-13
6.27507e-13
6.26953e-13
6.26514e-13
6.26193e-13
6.25988e-13
6.25895e-13
6.25907e-13
6.2602e-13
6.26233e-13
6.26545e-13
6.26952e-13
6.48671e-13
6.47231e-13
6.4592e-13
6.44729e-13
6.43654e-13
6.4268e-13
6.41786e-13
6.40944e-13
6.40133e-13
6.39332e-13
6.38522e-13
6.37688e-13
6.36816e-13
6.35909e-13
6.34979e-13
6.3405e-13
6.33147e-13
6.32296e-13
6.31517e-13
6.30834e-13
6.30261e-13
6.29809e-13
6.29479e-13
6.2927e-13
6.29177e-13
6.2919e-13
6.29307e-13
6.29524e-13
6.29839e-13
6.3025e-13
6.52474e-13
6.50995e-13
6.49649e-13
6.48429e-13
6.47331e-13
6.4634e-13
6.45434e-13
6.44583e-13
6.43764e-13
6.42954e-13
6.42135e-13
6.41287e-13
6.40397e-13
6.39465e-13
6.38506e-13
6.37546e-13
6.36612e-13
6.35729e-13
6.34923e-13
6.34215e-13
6.33624e-13
6.33157e-13
6.32819e-13
6.32607e-13
6.32513e-13
6.32528e-13
6.32647e-13
6.32867e-13
6.33185e-13
6.33601e-13
6.564e-13
6.5488e-13
6.53495e-13
6.5224e-13
6.51113e-13
6.50101e-13
6.49178e-13
6.48313e-13
6.47481e-13
6.46659e-13
6.45827e-13
6.44962e-13
6.44051e-13
6.43092e-13
6.42101e-13
6.41107e-13
6.40138e-13
6.39224e-13
6.38388e-13
6.37655e-13
6.37043e-13
6.36562e-13
6.36216e-13
6.35999e-13
6.35905e-13
6.35922e-13
6.36043e-13
6.36264e-13
6.36585e-13
6.37008e-13
6.60446e-13
6.5889e-13
6.57468e-13
6.56175e-13
6.55016e-13
6.53978e-13
6.53034e-13
6.52151e-13
6.51301e-13
6.50462e-13
6.49613e-13
6.48727e-13
6.4779e-13
6.468e-13
6.45773e-13
6.44741e-13
6.43736e-13
6.42786e-13
6.41918e-13
6.41157e-13
6.40525e-13
6.40029e-13
6.39673e-13
6.39453e-13
6.39358e-13
6.39376e-13
6.395e-13
6.39723e-13
6.40047e-13
6.40478e-13
6.64588e-13
6.63012e-13
6.6156e-13
6.60236e-13
6.59047e-13
6.57983e-13
6.57016e-13
6.56111e-13
6.5524e-13
6.5438e-13
6.53509e-13
6.52599e-13
6.51632e-13
6.50605e-13
6.49537e-13
6.48463e-13
6.47416e-13
6.46427e-13
6.45525e-13
6.44734e-13
6.44079e-13
6.43567e-13
6.43202e-13
6.42977e-13
6.42881e-13
6.429e-13
6.43026e-13
6.43251e-13
6.4358e-13
6.44022e-13
6.68778e-13
6.67205e-13
6.65746e-13
6.64403e-13
6.63195e-13
6.62112e-13
6.61127e-13
6.60203e-13
6.5931e-13
6.58427e-13
6.57532e-13
6.56595e-13
6.55592e-13
6.54524e-13
6.5341e-13
6.52288e-13
6.51195e-13
6.50163e-13
6.49222e-13
6.48399e-13
6.47719e-13
6.47189e-13
6.46814e-13
6.46584e-13
6.46487e-13
6.46508e-13
6.46636e-13
6.46864e-13
6.47198e-13
6.47653e-13
6.72942e-13
6.71407e-13
6.69969e-13
6.68634e-13
6.67427e-13
6.66342e-13
6.65351e-13
6.64416e-13
6.63507e-13
6.62605e-13
6.61688e-13
6.60722e-13
6.59684e-13
6.58571e-13
6.57405e-13
6.56231e-13
6.55088e-13
6.54009e-13
6.53026e-13
6.52168e-13
6.5146e-13
6.50911e-13
6.50524e-13
6.50289e-13
6.50192e-13
6.50214e-13
6.50346e-13
6.50577e-13
6.50918e-13
6.51388e-13
6.76993e-13
6.75532e-13
6.74151e-13
6.72857e-13
6.71682e-13
6.70621e-13
6.69647e-13
6.68719e-13
6.67809e-13
6.66898e-13
6.65968e-13
6.64979e-13
6.63907e-13
6.6275e-13
6.61531e-13
6.60302e-13
6.59106e-13
6.57978e-13
6.5695e-13
6.56053e-13
6.55317e-13
6.54747e-13
6.54349e-13
6.54108e-13
6.5401e-13
6.54034e-13
6.54169e-13
6.54404e-13
6.54753e-13
6.55239e-13
6.80857e-13
6.79496e-13
6.78205e-13
6.76985e-13
6.75876e-13
6.74873e-13
6.73947e-13
6.73054e-13
6.72165e-13
6.71265e-13
6.70337e-13
6.69339e-13
6.68243e-13
6.67047e-13
6.65778e-13
6.64497e-13
6.63248e-13
6.6207e-13
6.60996e-13
6.6006e-13
6.59295e-13
6.58705e-13
6.58294e-13
6.58048e-13
6.57949e-13
6.57976e-13
6.58115e-13
6.58353e-13
6.58709e-13
6.59213e-13
6.84502e-13
6.83246e-13
6.82059e-13
6.80936e-13
6.79922e-13
6.79009e-13
6.78162e-13
6.77335e-13
6.76497e-13
6.75635e-13
6.74734e-13
6.73747e-13
6.72645e-13
6.71425e-13
6.70117e-13
6.6879e-13
6.67495e-13
6.66271e-13
6.65154e-13
6.64179e-13
6.63386e-13
6.62775e-13
6.62354e-13
6.62103e-13
6.62005e-13
6.62035e-13
6.62177e-13
6.62418e-13
6.62781e-13
6.63299e-13
6.87962e-13
6.86782e-13
6.85687e-13
6.84661e-13
6.83754e-13
6.82949e-13
6.82208e-13
6.81475e-13
6.80716e-13
6.79919e-13
6.79075e-13
6.78125e-13
6.77041e-13
6.75818e-13
6.74488e-13
6.73131e-13
6.71801e-13
6.7054e-13
6.69386e-13
6.68377e-13
6.67559e-13
6.66931e-13
6.66501e-13
6.66248e-13
6.66151e-13
6.66184e-13
6.66329e-13
6.66571e-13
6.66936e-13
6.67466e-13
6.91362e-13
6.90188e-13
6.89137e-13
6.88177e-13
6.8736e-13
6.86661e-13
6.8603e-13
6.85403e-13
6.84742e-13
6.84034e-13
6.8327e-13
6.82384e-13
6.81344e-13
6.80142e-13
6.78813e-13
6.77446e-13
6.76097e-13
6.74812e-13
6.73633e-13
6.72596e-13
6.71759e-13
6.71116e-13
6.70682e-13
6.70429e-13
6.70336e-13
6.70372e-13
6.70519e-13
6.70759e-13
6.71121e-13
6.71656e-13
6.94939e-13
6.9365e-13
6.9255e-13
6.91585e-13
6.90807e-13
6.90178e-13
6.89638e-13
6.89106e-13
6.88541e-13
6.87925e-13
6.87254e-13
6.86448e-13
6.85471e-13
6.84312e-13
6.83007e-13
6.8165e-13
6.80302e-13
6.79008e-13
6.77816e-13
6.7676e-13
6.75908e-13
6.75256e-13
6.74822e-13
6.74574e-13
6.74487e-13
6.74526e-13
6.74674e-13
6.74908e-13
6.7526e-13
6.75792e-13
6.99106e-13
6.97494e-13
6.96187e-13
6.95093e-13
6.94261e-13
6.9363e-13
6.93124e-13
6.92647e-13
6.92147e-13
6.91607e-13
6.91019e-13
6.90291e-13
6.89381e-13
6.88275e-13
6.87008e-13
6.85675e-13
6.8434e-13
6.83051e-13
6.81856e-13
6.80789e-13
6.79927e-13
6.79271e-13
6.78843e-13
6.78602e-13
6.78523e-13
6.78566e-13
6.78713e-13
6.78936e-13
6.79272e-13
6.79794e-13
7.04596e-13
7.02294e-13
7.00503e-13
6.99068e-13
6.98021e-13
6.97262e-13
6.96691e-13
6.96189e-13
6.95693e-13
6.95177e-13
6.94638e-13
6.93961e-13
6.931e-13
6.92037e-13
6.90808e-13
6.89499e-13
6.88179e-13
6.86897e-13
6.85705e-13
6.8463e-13
6.83758e-13
6.83101e-13
6.82682e-13
6.8245e-13
6.82381e-13
6.82428e-13
6.82574e-13
6.82783e-13
6.83099e-13
6.83606e-13
7.12797e-13
7.09112e-13
7.06323e-13
7.04157e-13
7.02606e-13
7.015e-13
7.00694e-13
7.00031e-13
6.99428e-13
6.98848e-13
6.98287e-13
6.97605e-13
6.96748e-13
6.95691e-13
6.94474e-13
6.93168e-13
6.91849e-13
6.90565e-13
6.89369e-13
6.88282e-13
6.87396e-13
6.86737e-13
6.86326e-13
6.86104e-13
6.86044e-13
6.86095e-13
6.86241e-13
6.86436e-13
6.86732e-13
6.87226e-13
7.26323e-13
7.19977e-13
7.15213e-13
7.11574e-13
7.08976e-13
7.07115e-13
7.05763e-13
7.04694e-13
7.03791e-13
7.02991e-13
7.02287e-13
7.01499e-13
7.00562e-13
6.99442e-13
6.98176e-13
6.96827e-13
6.95472e-13
6.94156e-13
6.92935e-13
6.9182e-13
6.90914e-13
6.90244e-13
6.89836e-13
6.8962e-13
6.89568e-13
6.89623e-13
6.89772e-13
6.89957e-13
6.90238e-13
6.90727e-13
7.49729e-13
7.38604e-13
7.30136e-13
7.23644e-13
7.18962e-13
7.15563e-13
7.13071e-13
7.11134e-13
7.09569e-13
7.08265e-13
7.07199e-13
7.06126e-13
7.04962e-13
7.03653e-13
7.02228e-13
7.0075e-13
6.99291e-13
6.97889e-13
6.966e-13
6.95424e-13
6.94484e-13
6.93785e-13
6.93369e-13
6.93149e-13
6.93102e-13
6.93162e-13
6.93319e-13
6.93502e-13
6.9378e-13
6.94284e-13
7.56153e-13
7.44556e-13
7.35989e-13
7.29625e-13
7.24871e-13
7.21181e-13
7.18259e-13
7.15902e-13
7.14058e-13
7.12361e-13
7.10697e-13
7.08971e-13
6.98422e-13
6.97661e-13
6.97214e-13
6.96977e-13
6.96928e-13
6.96993e-13
6.97168e-13
6.97364e-13
6.97659e-13
6.98214e-13
4.98846e-13
4.98687e-13
4.98566e-13
4.98485e-13
4.9844e-13
4.98431e-13
4.98457e-13
4.9852e-13
4.98618e-13
4.98751e-13
5.00955e-13
5.00761e-13
5.00603e-13
5.00481e-13
5.00398e-13
5.00351e-13
5.00341e-13
5.00366e-13
5.00428e-13
5.00525e-13
5.00659e-13
5.00828e-13
5.01037e-13
5.01284e-13
5.01569e-13
5.01891e-13
5.02252e-13
5.02652e-13
5.0309e-13
5.03569e-13
5.04087e-13
5.03392e-13
5.03118e-13
5.02884e-13
5.02688e-13
5.02529e-13
5.02406e-13
5.02321e-13
5.02273e-13
5.02261e-13
5.02285e-13
5.02346e-13
5.02443e-13
5.02577e-13
5.02747e-13
5.02956e-13
5.03203e-13
5.03487e-13
5.03811e-13
5.04172e-13
5.04573e-13
5.05013e-13
5.05493e-13
5.06013e-13
5.06574e-13
5.0718e-13
5.07831e-13
5.08525e-13
5.06387e-13
5.05997e-13
5.05644e-13
5.05333e-13
5.05058e-13
5.04823e-13
5.04625e-13
5.04464e-13
5.0434e-13
5.04253e-13
5.04203e-13
5.0419e-13
5.04214e-13
5.04274e-13
5.0437e-13
5.04504e-13
5.04675e-13
5.04883e-13
5.0513e-13
5.05416e-13
5.05739e-13
5.06102e-13
5.06503e-13
5.06944e-13
5.07426e-13
5.07948e-13
5.08511e-13
5.09119e-13
5.09771e-13
5.10468e-13
5.11208e-13
5.12e-13
5.12838e-13
5.09236e-13
5.08767e-13
5.0834e-13
5.0795e-13
5.07597e-13
5.07283e-13
5.07007e-13
5.0677e-13
5.0657e-13
5.06407e-13
5.06282e-13
5.06193e-13
5.06142e-13
5.06128e-13
5.0615e-13
5.0621e-13
5.06306e-13
5.06439e-13
5.0661e-13
5.06819e-13
5.07066e-13
5.07352e-13
5.07676e-13
5.0804e-13
5.08442e-13
5.08884e-13
5.09367e-13
5.09891e-13
5.10456e-13
5.11066e-13
5.11719e-13
5.12418e-13
5.13162e-13
5.13954e-13
5.14796e-13
5.15685e-13
5.16628e-13
5.17626e-13
5.1226e-13
5.11709e-13
5.11202e-13
5.10733e-13
5.10304e-13
5.09912e-13
5.09558e-13
5.09242e-13
5.08964e-13
5.08725e-13
5.08523e-13
5.08359e-13
5.08231e-13
5.08141e-13
5.08089e-13
5.08073e-13
5.08095e-13
5.08153e-13
5.08249e-13
5.08382e-13
5.08554e-13
5.08763e-13
5.0901e-13
5.09296e-13
5.09621e-13
5.09985e-13
5.10388e-13
5.10832e-13
5.11316e-13
5.11841e-13
5.12409e-13
5.1302e-13
5.13675e-13
5.14375e-13
5.15122e-13
5.15916e-13
5.16759e-13
5.17652e-13
5.18597e-13
5.19599e-13
5.14825e-13
5.14237e-13
5.13686e-13
5.13177e-13
5.12707e-13
5.12275e-13
5.11882e-13
5.11526e-13
5.11208e-13
5.10929e-13
5.10687e-13
5.10483e-13
5.10317e-13
5.10188e-13
5.10096e-13
5.10042e-13
5.10025e-13
5.10046e-13
5.10104e-13
5.10199e-13
5.10333e-13
5.10504e-13
5.10713e-13
5.10961e-13
5.11247e-13
5.11573e-13
5.11937e-13
5.12342e-13
5.12786e-13
5.13271e-13
5.13798e-13
5.14367e-13
5.1498e-13
5.15637e-13
5.16339e-13
5.17088e-13
5.17885e-13
5.1873e-13
5.19625e-13
5.20573e-13
5.21577e-13
5.17444e-13
5.16813e-13
5.16222e-13
5.15671e-13
5.1516e-13
5.14688e-13
5.14255e-13
5.13859e-13
5.13501e-13
5.13182e-13
5.129e-13
5.12656e-13
5.1245e-13
5.12282e-13
5.12151e-13
5.12058e-13
5.12002e-13
5.11984e-13
5.12004e-13
5.12061e-13
5.12156e-13
5.12289e-13
5.12461e-13
5.1267e-13
5.12918e-13
5.13205e-13
5.13531e-13
5.13896e-13
5.14302e-13
5.14747e-13
5.15234e-13
5.15762e-13
5.16332e-13
5.16947e-13
5.17605e-13
5.1831e-13
5.1906e-13
5.19859e-13
5.20706e-13
5.21604e-13
5.22555e-13
5.23561e-13
5.20117e-13
5.19441e-13
5.18808e-13
5.18216e-13
5.17664e-13
5.17151e-13
5.16677e-13
5.16241e-13
5.15843e-13
5.15484e-13
5.15162e-13
5.14878e-13
5.14632e-13
5.14424e-13
5.14253e-13
5.14121e-13
5.14026e-13
5.13969e-13
5.1395e-13
5.13968e-13
5.14025e-13
5.1412e-13
5.14253e-13
5.14424e-13
5.14634e-13
5.14882e-13
5.15169e-13
5.15496e-13
5.15862e-13
5.16268e-13
5.16714e-13
5.17202e-13
5.17731e-13
5.18304e-13
5.18919e-13
5.19579e-13
5.20285e-13
5.21038e-13
5.21838e-13
5.22688e-13
5.23588e-13
5.24541e-13
5.2555e-13
5.22843e-13
5.22122e-13
5.21445e-13
5.2081e-13
5.20217e-13
5.19663e-13
5.19148e-13
5.18672e-13
5.18235e-13
5.17835e-13
5.17473e-13
5.17149e-13
5.16863e-13
5.16614e-13
5.16404e-13
5.16232e-13
5.16097e-13
5.16e-13
5.15942e-13
5.15921e-13
5.15939e-13
5.15995e-13
5.1609e-13
5.16222e-13
5.16394e-13
5.16603e-13
5.16852e-13
5.1714e-13
5.17467e-13
5.17834e-13
5.18241e-13
5.18688e-13
5.19176e-13
5.19707e-13
5.2028e-13
5.20897e-13
5.21559e-13
5.22266e-13
5.23021e-13
5.23823e-13
5.24675e-13
5.25577e-13
5.26532e-13
5.27544e-13
5.24854e-13
5.24133e-13
5.23456e-13
5.2282e-13
5.22225e-13
5.21669e-13
5.21153e-13
5.20675e-13
5.20235e-13
5.19833e-13
5.19468e-13
5.19142e-13
5.18854e-13
5.18603e-13
5.1839e-13
5.18216e-13
5.18079e-13
5.17981e-13
5.17921e-13
5.17899e-13
5.17916e-13
5.17972e-13
5.18066e-13
5.18198e-13
5.18369e-13
5.18579e-13
5.18828e-13
5.19116e-13
5.19444e-13
5.19811e-13
5.20219e-13
5.20667e-13
5.21157e-13
5.21688e-13
5.22263e-13
5.22881e-13
5.23544e-13
5.24253e-13
5.25008e-13
5.25813e-13
5.26666e-13
5.27571e-13
5.28528e-13
5.29542e-13
5.27637e-13
5.26873e-13
5.26152e-13
5.25473e-13
5.24836e-13
5.2424e-13
5.23682e-13
5.23164e-13
5.22684e-13
5.22241e-13
5.21837e-13
5.2147e-13
5.21142e-13
5.20851e-13
5.20598e-13
5.20383e-13
5.20206e-13
5.20068e-13
5.19968e-13
5.19906e-13
5.19884e-13
5.19899e-13
5.19954e-13
5.20048e-13
5.2018e-13
5.20351e-13
5.20561e-13
5.2081e-13
5.21099e-13
5.21427e-13
5.21795e-13
5.22204e-13
5.22652e-13
5.23143e-13
5.23675e-13
5.24251e-13
5.2487e-13
5.25534e-13
5.26244e-13
5.27001e-13
5.27807e-13
5.28662e-13
5.29569e-13
5.30528e-13
5.31544e-13
5.3048e-13
5.29665e-13
5.28899e-13
5.28177e-13
5.27497e-13
5.26859e-13
5.26261e-13
5.25702e-13
5.25181e-13
5.24699e-13
5.24255e-13
5.23848e-13
5.23479e-13
5.23148e-13
5.22855e-13
5.22599e-13
5.22382e-13
5.22203e-13
5.22063e-13