/*--------------------------------*- C++ -*----------------------------------*\
  =========                 |
  \\      /  F ield         | OpenFOAM: The Open Source CFD Toolbox
   \\    /   O peration     | Website:  https://openfoam.org
    \\  /    A nd           | Version:  7
     \\/     M anipulation  |
\*---------------------------------------------------------------------------*/
FoamFile
{
    version     2.0;
    format      ascii;
    class       surfaceScalarField;
    location    "56000";
    object      phi;
}
// * * * * * * * * * * * * * * * * * * * * * * * * * * * * * * * * * * * * * //

dimensions      [0 3 -1 0 0 0 0];

internalField   nonuniform List<scalar> 
9540
(
-3.869e-23
2.76375e-23
2.53004e-23
1.61916e-23
-4.06543e-23
2.6316e-23
3.29889e-23
-2.41538e-23
3.23633e-23
1.84808e-23
-3.9693e-23
1.03234e-23
1.88397e-23
-2.91041e-23
2.6585e-23
-2.03587e-23
1.51345e-23
-1.72428e-23
2.21126e-23
1.43536e-23
-3.33998e-23
1.73523e-23
2.19979e-23
-3.10212e-23
2.28939e-23
-2.08304e-23
1.02828e-23
-2.26996e-23
3.0568e-23
-7.90502e-24
3.29545e-23
2.83111e-23
-3.24357e-23
2.40455e-23
2.39519e-23
-3.32638e-23
2.65964e-23
-1.56044e-23
3.02233e-23
-2.23441e-23
4.2089e-23
-2.68348e-24
4.92999e-23
-1.44827e-24
2.99084e-23
9.054e-23
-3.58443e-23
-2.61527e-23
2.26246e-23
-2.91062e-23
2.70422e-23
-1.77125e-23
5.52688e-23
-1.49291e-23
3.60609e-23
-1.19335e-23
4.68952e-23
1.47134e-23
6.44475e-23
-2.24612e-24
7.14982e-23
-1.01403e-24
7.5208e-23
2.92386e-23
-2.65172e-23
4.17292e-24
3.3406e-23
-1.93948e-23
2.16408e-23
-2.41304e-23
6.21889e-23
-1.33904e-23
5.98737e-23
-4.92271e-24
4.11912e-23
1.50059e-23
7.85033e-23
-3.88252e-25
4.98094e-23
-1.64698e-23
3.45768e-23
-1.55337e-23
3.60494e-23
3.7838e-23
-1.62931e-23
2.61351e-23
3.35579e-23
-1.236e-23
5.58888e-23
-2.17949e-23
3.3856e-23
-1.90141e-23
5.59661e-23
4.02175e-24
7.76606e-23
8.65751e-24
7.28016e-23
-7.03473e-24
6.11511e-23
-1.87191e-23
4.91703e-23
-1.13587e-23
2.89486e-23
-7.89671e-24
3.0495e-23
-2.3837e-23
8.9886e-24
-1.29531e-23
1.34167e-23
3.12994e-24
2.4335e-23
1.74582e-23
-9.51429e-24
4.81115e-23
2.65731e-23
-1.83241e-23
3.021e-23
-1.6357e-23
2.76101e-23
-1.92543e-23
1.97394e-23
1.7709e-24
5.58866e-23
5.66394e-24
7.11801e-23
-1.29567e-23
7.98581e-23
-2.3524e-23
6.21834e-23
-1.35113e-23
4.27495e-23
-1.36483e-23
2.84848e-23
-1.85864e-23
1.45438e-23
-1.21461e-23
3.11816e-23
2.63348e-24
4.18072e-23
-2.31092e-23
1.81359e-23
-3.35307e-23
5.89541e-23
-3.94634e-23
3.79729e-23
-3.69233e-23
5.14271e-23
3.70524e-23
-1.05862e-23
4.6323e-23
2.12059e-23
-1.69422e-23
3.81009e-23
-1.95476e-23
2.39084e-23
-1.21674e-23
4.63049e-23
2.14891e-24
4.55459e-23
7.43686e-24
6.15687e-23
-1.61354e-23
4.54229e-23
-2.47271e-23
7.10491e-23
-1.78053e-23
4.10177e-23
-1.79499e-23
2.89003e-23
-1.69188e-23
1.54057e-23
-1.24967e-23
2.2982e-23
-3.01497e-24
2.78673e-23
-1.15741e-23
4.97537e-23
-3.32084e-23
5.54647e-23
-3.63252e-23
3.88442e-23
-4.1182e-23
4.67659e-23
-2.65528e-23
2.41001e-23
-1.16728e-23
-1.47463e-23
-1.37973e-23
-1.39311e-23
4.84233e-23
2.05596e-23
-1.65693e-23
4.5746e-23
-1.55893e-23
2.56453e-23
-1.28866e-23
4.91863e-23
5.10272e-24
6.38312e-23
7.46561e-25
3.15115e-23
-1.22435e-23
-2.56517e-24
-3.01821e-23
1.1785e-23
-1.95565e-23
3.72562e-23
-1.80786e-23
2.70101e-23
-1.53029e-23
1.06481e-23
-8.62137e-24
9.30381e-24
8.01046e-25
3.68616e-23
-1.33536e-23
2.40585e-23
-3.36068e-23
4.39793e-23
-3.39205e-23
3.22887e-23
-4.78088e-23
5.3484e-23
-3.31695e-23
1.57942e-23
-1.4153e-23
-2.48677e-23
-1.65579e-23
-1.56937e-23
-1.86719e-23
2.19348e-23
-2.1424e-23
-1.09285e-24
-3.09695e-23
-2.71819e-23
-5.55865e-23
-1.42402e-23
4.91533e-23
2.23495e-23
-1.91222e-23
4.98828e-23
-1.59237e-23
2.9553e-23
-1.05127e-23
4.75417e-23
-5.35614e-25
6.08494e-23
-2.50192e-24
6.95683e-23
-9.0489e-24
3.71987e-24
-2.45282e-23
2.93863e-23
-2.25356e-23
3.74856e-23
-2.36236e-23
2.53196e-23
-1.90496e-23
-2.08788e-23
-3.48138e-24
1.82465e-23
-3.50789e-24
3.38811e-23
-1.41549e-23
3.09893e-23
-3.53442e-23
5.84295e-23
-3.03926e-23
2.30968e-23
-5.37832e-23
6.62778e-24
-3.8729e-23
1.44116e-23
-1.43553e-23
2.0279e-23
-6.33467e-24
9.91143e-23
-2.53428e-23
3.64019e-23
-2.55608e-23
7.99521e-26
-3.6454e-23
-1.08224e-23
-1.10335e-23
-8.9873e-24
-4.71183e-23
1.19807e-23
-1.23042e-22
5.5098e-23
-1.31409e-22
-8.59314e-24
-1.01686e-22
-2.97286e-23
-2.44706e-23
-1.04429e-23
3.25661e-23
2.22358e-23
-2.08626e-23
6.03508e-23
-1.12945e-23
5.4746e-23
-1.12524e-23
5.44354e-23
-3.95132e-25
8.69268e-23
-1.22354e-23
7.6833e-23
-7.16835e-24
6.32592e-23
-2.56394e-23
4.55833e-23
-2.08619e-23
4.21411e-23
-3.54119e-23
3.36315e-23
-1.19088e-23
3.22606e-23
-2.28608e-24
8.72634e-24
-5.66567e-24
1.38051e-23
-8.62961e-24
1.47318e-23
-4.10456e-23
1.72239e-23
-2.98493e-23
9.05317e-23
-5.43803e-23
2.07008e-23
-3.68369e-23
6.82275e-23
1.96294e-24
5.57545e-23
-1.72043e-23
4.18684e-23
-3.2977e-23
3.93942e-23
-2.4704e-23
6.19785e-23
-3.46532e-23
1.36342e-23
-7.17942e-24
3.58244e-23
-3.91136e-23
3.03558e-23
-1.31515e-22
-3.49605e-23
-1.34193e-22
-3.68896e-24
-9.90256e-23
8.75947e-24
-1.26885e-22
1.05135e-23
-1.5078e-22
-4.27982e-25
-1.57727e-22
-4.29716e-23
-1.26266e-22
-6.43869e-24
7.50125e-23
2.40963e-23
-2.04645e-23
9.17694e-24
-1.0406e-23
5.25292e-23
-3.18196e-24
8.31814e-23
-2.80129e-24
8.02069e-23
-1.57316e-23
5.66523e-23
-7.97217e-24
2.6888e-23
-2.51438e-23
6.52418e-23
-2.60898e-23
5.54724e-23
-3.23687e-23
3.71355e-23
-1.61552e-23
1.53778e-23
-3.80142e-24
-4.87034e-24
-3.38853e-24
1.51582e-23
-8.25653e-24
-4.10884e-24
-3.08501e-23
-2.90439e-23
-3.99736e-23
2.7766e-23
-4.4361e-23
1.58571e-23
-3.62189e-23
5.82784e-23
-1.03589e-24
8.6645e-23
-1.86882e-23
5.31546e-23
-3.01736e-23
3.47827e-23
-3.3912e-23
5.86392e-23
-2.89459e-23
1.31106e-23
-7.96243e-24
2.62163e-23
-4.9869e-23
8.60273e-25
-1.21708e-22
2.61197e-23
-1.33633e-22
1.3314e-23
-9.44048e-23
8.91323e-23
-1.28752e-22
4.84891e-23
-1.55189e-22
2.03574e-23
-1.76275e-22
-2.11905e-23
-1.9919e-22
-3.96763e-23
-2.37674e-22
-2.80595e-22
-4.47186e-22
-1.55187e-23
7.54952e-23
1.99634e-23
-1.48125e-23
4.48391e-23
-8.91218e-24
5.124e-23
-3.1973e-24
8.24787e-23
-6.06573e-24
4.53515e-23
-1.80095e-23
3.57324e-23
-2.35022e-24
4.61148e-23
-2.69028e-23
1.52062e-23
-3.04138e-23
5.52029e-23
-3.49184e-23
3.94857e-23
-1.91642e-23
7.77944e-23
3.59878e-25
8.75565e-23
-7.45688e-24
1.83147e-23
-1.27576e-23
-3.37207e-24
-2.25026e-23
-2.84103e-23
-3.91341e-23
2.93867e-23
-3.99245e-23
2.95558e-24
-3.05884e-23
5.07922e-23
-1.30076e-23
5.63864e-23
-1.82969e-23
4.54764e-23
-2.61636e-23
2.59462e-23
-3.9628e-23
4.54599e-23
-2.62325e-23
6.62992e-23
-1.5886e-23
2.12379e-23
-4.35172e-23
1.7061e-23
-1.21866e-22
4.06037e-23
-1.17166e-22
2.03109e-23
-9.95813e-23
1.29555e-22
-1.31436e-22
7.12017e-23
-1.61105e-22
3.90441e-23
-1.78863e-22
-2.1513e-24
-2.39113e-22
1.85729e-23
-2.98188e-22
-1.55586e-22
-4.07625e-22
-1.61296e-23
8.02188e-23
1.73759e-23
-1.3878e-23
3.70958e-23
-6.65949e-24
4.7693e-23
-6.83668e-24
7.50057e-23
-9.9141e-24
3.97562e-23
-1.97298e-23
4.1067e-23
-1.2438e-23
3.96701e-23
-1.95701e-23
2.00506e-23
-3.44893e-23
-7.11208e-24
-2.98946e-23
3.56529e-23
-1.55723e-23
5.55247e-23
-1.23052e-23
4.38952e-23
-1.24828e-23
1.18159e-23
-1.69731e-23
8.73954e-24
-1.8224e-23
-3.57041e-23
-4.12193e-23
-2.43192e-23
-3.35888e-23
-1.58665e-23
-2.95006e-23
-2.11336e-23
-1.4006e-23
-2.62471e-23
-1.7551e-23
3.95561e-23
-2.58462e-23
1.19724e-23
-3.54125e-23
3.39376e-23
-3.54199e-23
-7.64774e-24
-1.30127e-23
9.32639e-24
-3.62288e-23
2.81605e-23
-1.27154e-22
-5.25244e-23
-9.52774e-23
5.58779e-23
-1.08395e-22
6.38409e-23
-1.30791e-22
7.78876e-23
-1.6817e-22
2.04677e-24
-1.75813e-22
7.04942e-23
-2.66715e-22
4.88025e-23
-3.81322e-22
-2.44475e-23
-2.48797e-22
-2.15002e-23
7.83616e-23
1.63625e-23
-1.74526e-23
3.58478e-23
-4.21803e-24
3.72414e-23
-1.27249e-23
6.66881e-23
-1.28447e-23
2.48407e-23
-1.69334e-23
3.50537e-23
-1.46612e-23
3.35257e-23
-2.08163e-23
2.24532e-23
-2.80115e-23
2.90267e-23
-2.62597e-23
3.44127e-23
-1.62931e-23
5.96121e-23
-1.71152e-23
4.61516e-23
-1.36528e-23
3.299e-23
-1.96825e-23
1.65392e-23
-1.91472e-23
-3.43572e-23
-3.53128e-23
-1.54344e-23
-3.60733e-23
-2.19006e-23
-3.05899e-23
-1.65692e-23
-4.80221e-24
2.68197e-23
-2.19448e-23
4.46695e-23
-2.10289e-23
-6.13562e-24
-4.04028e-23
-2.53439e-23
-3.54371e-23
5.81284e-23
-7.34379e-24
5.63014e-23
-4.86516e-23
-3.05654e-24
-1.07101e-22
-1.35914e-23
-9.25308e-23
1.01646e-22
-1.03561e-22
7.23888e-23
-1.39859e-22
3.80195e-23
-1.55399e-22
1.56067e-23
-1.79397e-22
9.49558e-23
-2.72413e-22
8.50984e-23
-4.16449e-22
1.38952e-22
4.03243e-22
-2.28968e-23
7.14823e-23
1.60222e-23
-1.78309e-23
3.44763e-23
-3.72146e-24
5.46048e-23
-1.54735e-23
6.28957e-23
-1.29707e-23
1.54566e-23
-1.8095e-23
3.19847e-23
-1.51454e-23
3.17172e-23
-1.78746e-23
2.07965e-23
-3.00467e-23
4.30952e-23
-2.33029e-23
2.7537e-23
-1.6806e-23
7.80161e-23
-1.89326e-23
4.99802e-23
-1.83279e-23
3.13007e-23
-2.33139e-23
3.25467e-23
-2.03334e-23
-2.07185e-23
-3.14241e-23
-8.92228e-24
-3.52651e-23
-8.58245e-24
-2.36217e-23
4.04043e-23
-8.19941e-25
6.5263e-23
-2.7287e-23
6.3046e-23
-2.41957e-23
-7.91974e-24
-2.943e-23
-2.80954e-23
-3.4718e-23
-1.52652e-23
-1.36428e-23
1.09916e-22
-4.97821e-23
2.02251e-23
-8.88826e-23
1.18238e-23
-9.54844e-23
1.05482e-22
-1.03924e-22
6.98295e-23
-1.39563e-22
6.25879e-23
-1.41375e-22
8.8495e-23
-1.76687e-22
1.31679e-22
-2.53805e-22
1.63317e-22
-3.81566e-22
2.89855e-22
5.93001e-22
-3.02335e-23
5.07987e-23
1.1704e-23
-1.46121e-23
7.84237e-23
-5.40249e-24
4.64881e-23
-2.32931e-23
1.65026e-23
-1.28309e-23
3.74423e-23
-2.00236e-23
2.58223e-23
-1.61886e-23
2.83534e-23
-1.85797e-23
2.67958e-23
-2.81137e-23
4.81984e-23
-1.95943e-23
9.40421e-23
-1.8087e-23
1.0894e-22
-2.45258e-23
2.98235e-23
-1.94363e-23
3.70601e-23
-2.77023e-23
4.20194e-23
-1.78387e-23
4.84986e-23
-3.37309e-23
1.84195e-23
-2.75199e-23
-1.95353e-25
-1.91957e-23
3.0021e-23
6.39856e-25
4.98787e-23
-3.69134e-23
2.7969e-23
-2.39664e-23
5.13015e-23
-2.87887e-23
-2.2609e-23
-1.66624e-23
4.2563e-23
-2.62976e-23
4.65385e-23
-4.79598e-23
3.10596e-23
-7.64611e-23
2.5832e-23
-9.74052e-23
5.63147e-23
-1.03686e-22
6.77521e-23
-1.30911e-22
8.56558e-23
-1.33721e-22
1.04846e-22
-1.64241e-22
1.65749e-22
-2.26131e-22
2.27278e-22
-2.96337e-22
3.83417e-22
6.36193e-22
-2.6234e-23
2.5697e-23
1.38815e-23
-2.08112e-23
7.13565e-23
-1.24901e-23
4.03272e-23
-1.98925e-23
2.15288e-23
-1.27817e-23
2.96478e-23
-2.09341e-23
3.41194e-23
-1.6498e-23
5.61443e-23
-1.64967e-23
1.03954e-22
-1.94845e-23
7.8396e-23
-2.06984e-23
7.60848e-23
-2.77066e-23
1.17657e-22
-2.50472e-23
6.89569e-24
-1.84615e-23
4.10206e-23
-2.50699e-23
5.35602e-23
-2.19243e-23
6.11539e-23
-3.38107e-23
4.11981e-23
-2.33595e-23
6.78288e-23
-1.58302e-23
9.01719e-23
-3.14916e-24
1.04987e-22
-3.30998e-23
5.27458e-23
-3.22746e-23
5.80673e-23
-2.00334e-23
2.99933e-23
-1.6982e-23
4.37331e-23
-2.50679e-23
5.02664e-23
-4.65355e-23
3.99807e-23
-7.42989e-23
4.65919e-23
-9.13182e-23
7.72821e-23
-9.98327e-23
8.03288e-23
-1.25719e-22
1.06171e-22
-1.22625e-22
1.79063e-22
-1.48985e-22
1.98344e-22
-1.98049e-22
2.77019e-22
-2.26136e-22
4.77488e-22
6.48502e-22
-2.16705e-23
1.95416e-23
1.76505e-23
-2.33606e-23
7.06526e-23
-1.40284e-23
6.72751e-23
-1.84577e-23
2.45375e-23
-1.38342e-23
2.20375e-23
-1.65092e-23
3.03686e-24
-9.96907e-24
4.40689e-23
-1.67393e-23
8.73177e-23
-2.04231e-23
8.84599e-23
-9.7993e-24
9.66509e-23
-3.95861e-23
7.73146e-23
-1.9778e-23
6.09551e-23
-1.6034e-23
6.29442e-23
-2.46499e-23
7.71137e-23
-2.2456e-23
7.21863e-23
-2.87018e-23
5.0477e-23
-2.05821e-23
7.62397e-23
-1.26602e-23
9.10502e-23
-1.01417e-23
9.63383e-23
-3.09811e-23
5.4358e-23
-3.28538e-23
5.89267e-23
-2.05131e-23
2.66664e-23
-1.70426e-23
4.45455e-23
-2.36649e-23
4.93122e-23
-4.47131e-23
5.3622e-23
-7.09556e-23
6.68897e-23
-8.76363e-23
7.93436e-23
-9.31511e-23
9.37663e-23
-1.13961e-22
1.30207e-22
-1.1572e-22
1.94487e-22
-1.33726e-22
2.27055e-22
-1.67496e-22
3.15175e-22
-1.83346e-22
4.9952e-22
5.90536e-22
-2.1617e-23
1.76507e-23
1.41098e-23
-2.35076e-23
3.62623e-23
-1.50325e-23
2.0275e-23
-1.53812e-23
5.57363e-23
-1.5563e-23
5.86798e-23
-1.2729e-23
3.10691e-23
-6.29301e-24
4.08832e-23
-1.70323e-23
9.34747e-23
-1.79927e-23
9.25235e-23
-1.47279e-23
9.14771e-23
-3.89317e-23
2.94761e-23
-2.24506e-23
7.15213e-23
-1.13369e-23
8.52086e-23
-2.71763e-23
3.01269e-23
-2.16937e-23
4.18272e-23
-2.50298e-23
-1.73003e-23
-1.94036e-23
7.7322e-23
-1.01917e-23
8.40537e-23
-1.7135e-23
2.40708e-23
-2.98071e-23
5.92539e-23
-3.54553e-23
5.89085e-23
-1.94091e-23
1.87859e-23
-1.60005e-23
4.67865e-23
-2.00736e-23
4.89465e-23
-4.37692e-23
6.95574e-23
-6.72904e-23
7.83486e-23
-8.47729e-23
8.86483e-23
-8.34834e-23
1.64575e-22
-1.07094e-22
1.52325e-22
-1.05942e-22
2.08444e-22
-1.18519e-22
2.49249e-22
-1.41308e-22
3.42074e-22
-1.55486e-22
4.57198e-22
5.69997e-22
-1.99886e-23
-8.45641e-24
1.20347e-23
-2.33096e-23
3.06143e-23
-1.58019e-23
4.43024e-23
-1.55695e-23
5.96988e-23
-1.44741e-23
2.07632e-23
-1.23161e-23
3.21196e-23
7.37585e-25
6.88459e-23
-1.61094e-23
3.45324e-23
-2.15999e-23
7.78837e-23
-1.96168e-23
6.60658e-23
-3.50834e-23
4.45724e-23
-1.91096e-23
9.31137e-23
-1.76241e-23
9.52188e-23
-2.63405e-23
5.04106e-23
-2.50222e-23
1.51649e-23
-1.72406e-23
5.13084e-23
-1.63566e-23
7.38387e-23
-1.72205e-23
7.86991e-23
-1.29385e-23
1.56516e-23
-2.81233e-23
7.00607e-23
-4.0261e-23
-2.09168e-24
-1.47586e-23
6.62802e-23
-1.66663e-23
5.69893e-23
-1.48278e-23
4.44769e-23
-4.33633e-23
-2.51136e-23
-6.33959e-23
8.33909e-23
-7.53601e-23
9.0858e-23
-7.93903e-23
1.653e-22
-1.0219e-22
9.97788e-23
-9.51557e-23
2.7693e-22
-1.05128e-22
2.6207e-22
-1.2578e-22
3.67662e-22
-1.30904e-22
4.59324e-22
-9.21489e-23
5.31127e-22
8.86023e-22
-1.70767e-23
1.81142e-24
1.25159e-23
-2.20638e-23
1.96307e-23
-1.30368e-23
2.91286e-23
-1.71685e-23
4.99847e-23
-1.40017e-23
5.27986e-23
-1.21876e-23
3.42197e-23
-5.80351e-24
6.08641e-23
-1.08758e-23
1.62014e-23
-2.68014e-23
2.69737e-23
-1.91703e-23
5.32341e-23
-3.00959e-23
6.21206e-23
-1.66237e-23
9.12715e-23
-2.36287e-23
7.68361e-23
-3.07292e-23
3.28341e-23
-1.9941e-23
4.34159e-23
-1.59324e-23
3.12949e-23
-1.53219e-23
1.43307e-23
-2.43901e-23
1.70966e-23
-4.99465e-24
7.0673e-23
-3.43973e-23
9.23533e-23
-3.4353e-23
7.05672e-23
-1.46705e-23
1.20455e-22
-1.75648e-23
6.96001e-23
-2.04922e-23
4.50115e-23
-3.24259e-23
-2.0605e-23
-6.09189e-23
4.16564e-23
-6.57904e-23
8.41777e-23
-8.1797e-23
1.12641e-22
-8.3174e-23
9.06375e-23
-9.26959e-23
2.17779e-22
-8.90348e-23
2.58601e-22
-1.12987e-22
3.27818e-22
-1.11285e-22
4.58464e-22
-6.79055e-23
5.92614e-22
8.01034e-22
-1.40164e-23
3.18802e-23
1.61057e-23
-2.09128e-23
2.28033e-23
-1.32396e-23
2.03385e-23
-1.84546e-23
4.80442e-23
-1.59724e-23
5.16243e-23
-8.18081e-24
2.68901e-23
-1.12334e-23
3.21549e-23
-7.01672e-24
2.06066e-23
-2.29835e-23
5.19112e-23
-1.51405e-23
6.58718e-23
-2.92021e-23
8.03572e-23
-1.81369e-23
8.53855e-23
-2.82601e-23
1.69702e-23
-3.03058e-23
6.64094e-23
-1.80319e-23
6.64608e-23
-1.81264e-23
4.30211e-23
-1.32351e-23
1.18424e-23
-1.87845e-23
1.69125e-23
-4.05575e-24
7.08277e-23
-3.29722e-23
5.30169e-23
-3.03099e-23
6.85096e-23
-1.85092e-23
1.77344e-22
-2.13599e-23
7.86328e-23
-2.54469e-23
3.75886e-23
-2.69546e-23
-2.07244e-23
-5.27646e-23
5.60386e-23
-6.39852e-23
8.76084e-23
-7.67072e-23
1.17317e-22
-7.12477e-23
7.97623e-23
-8.3117e-23
2.2638e-22
-7.9736e-23
2.52329e-22
-9.90263e-23
2.83931e-22
-8.80043e-23
4.5404e-22
-5.74482e-23
4.98704e-22
-1.23336e-23
2.86493e-23
1.21626e-23
-2.00753e-23
2.187e-23
-1.05507e-23
1.1277e-23
-1.8577e-23
5.8323e-23
-1.58588e-23
4.23583e-23
-9.61826e-24
2.4602e-23
-1.17392e-23
3.12623e-23
-5.12208e-24
8.52267e-23
-1.93631e-23
7.95761e-23
-1.12429e-23
6.22436e-23
-3.09061e-23
2.33342e-23
-2.38051e-23
8.03171e-23
-2.21225e-23
5.88245e-23
-3.0946e-23
5.98596e-23
-1.80568e-23
6.6692e-23
-2.37153e-23
2.38773e-23
-1.11842e-23
2.59254e-23
-1.35144e-23
1.16715e-23
-6.0277e-24
6.20474e-23
-2.97435e-23
6.29236e-23
-2.0939e-23
6.37712e-23
-2.74385e-23
1.1247e-22
-2.55116e-23
7.72871e-23
-2.87825e-23
4.89493e-23
-2.14064e-23
4.966e-23
-4.75764e-23
7.90464e-23
-6.13362e-23
9.5964e-23
-7.53302e-23
1.25676e-22
-5.98748e-23
7.15814e-23
-7.47499e-23
1.74219e-22
-7.26382e-23
2.44426e-22
-7.92324e-23
2.89709e-22
-7.5069e-23
4.5232e-22
4.52564e-22
-1.08999e-23
3.16191e-23
5.06829e-24
-2.23775e-23
1.91767e-23
-4.92165e-24
2.9784e-23
-2.01473e-23
3.57674e-23
-1.7254e-23
3.91381e-23
-8.27837e-24
1.96477e-23
-4.60344e-24
2.58889e-23
-6.55074e-24
5.59155e-23
-2.43353e-23
2.05875e-23
-1.30397e-23
5.88424e-23
-2.67234e-23
1.81316e-23
-2.30751e-23
7.86611e-23
-2.22976e-23
7.19529e-23
-2.98008e-23
7.49394e-23
-2.14557e-23
6.59842e-23
-2.30847e-23
2.7221e-23
-9.62774e-24
3.59567e-23
-1.08126e-23
1.73068e-23
-5.10199e-24
5.21236e-23
-2.93526e-23
1.34215e-23
-1.79136e-23
5.52514e-23
-2.94876e-23
6.34619e-23
-2.81836e-23
7.37489e-23
-2.67592e-23
6.07886e-23
-1.85684e-23
6.62848e-23
-4.53549e-23
9.95906e-23
-5.72123e-23
9.99906e-23
-7.68713e-23
1.35043e-22
-5.07029e-23
1.77029e-22
-6.52759e-23
1.85502e-22
-6.60053e-23
2.42087e-22
-6.33528e-23
2.86086e-22
-6.9251e-23
3.93698e-22
4.27018e-22
-8.80173e-24
2.66535e-23
2.65206e-24
-2.19788e-23
-1.11447e-23
-7.28692e-24
2.00101e-23
-2.00712e-23
4.20922e-23
-1.99623e-23
4.262e-23
-6.53982e-24
6.91246e-23
-7.1078e-24
3.5948e-23
-7.41123e-24
9.26537e-23
-2.06714e-23
4.12464e-23
-1.5013e-23
6.06463e-23
-2.10571e-23
3.07056e-23
-2.37733e-23
8.45427e-23
-2.20781e-23
7.40535e-23
-3.23748e-23
5.8831e-24
-2.33178e-23
2.20175e-23
-2.29986e-23
2.74435e-23
-1.01702e-23
4.27045e-23
-6.53559e-24
1.74021e-23
-8.18124e-24
5.00544e-23
-2.4305e-23
1.89282e-23
-1.8232e-23
4.62752e-23
-2.61656e-23
6.81363e-23
-2.90914e-23
7.29251e-23
-2.56099e-23
7.69865e-23
-1.44496e-23
8.5531e-23
-4.67858e-23
1.40893e-23
-5.20378e-23
9.9047e-23
-7.08321e-23
8.50359e-23
-4.98308e-23
1.68934e-22
-5.90909e-23
1.93334e-22
-5.83385e-23
2.37547e-22
-5.60068e-23
2.91509e-22
-6.08488e-23
3.94686e-22
4.00198e-22
-1.10533e-23
2.55298e-23
4.33878e-24
-2.10619e-23
-4.98723e-24
-4.6639e-24
6.42281e-23
-1.81613e-23
4.89822e-23
-1.89458e-23
7.84172e-23
-8.68941e-24
1.19713e-22
-4.10318e-24
3.40074e-23
-9.59694e-24
9.75359e-23
-2.05727e-23
7.94292e-23
-1.66145e-23
6.16602e-23
-1.51946e-23
2.87886e-23
-2.43684e-23
2.38821e-23
-2.64362e-23
5.02699e-23
-3.23631e-23
4.62474e-23
-2.17598e-23
1.00249e-23
-2.10227e-23
1.82098e-23
-1.06361e-23
5.01924e-23
-5.67762e-24
1.87434e-23
-9.35731e-24
-2.54765e-23
-2.21789e-23
2.2309e-23
-1.66018e-23
1.05859e-22
-2.43043e-23
6.98796e-23
-2.8343e-23
7.48254e-23
-2.54088e-23
8.25177e-23
-1.8609e-23
9.76248e-23
-3.91542e-23
2.96428e-23
-5.17332e-23
1.07693e-22
-6.21656e-23
8.94608e-23
-4.73313e-23
1.69843e-22
-5.35353e-23
1.33283e-22
-5.24272e-23
2.37072e-22
-4.57763e-23
2.99387e-22
-5.63327e-23
3.28297e-22
-1.41029e-23
2.54329e-23
5.94158e-24
-1.66654e-23
-5.7234e-24
-4.21525e-24
3.76787e-23
-1.77924e-23
2.40573e-23
-1.34767e-23
3.76535e-23
-1.3643e-23
6.05386e-23
9.59891e-26
8.01082e-23
-1.15013e-23
4.56468e-23
-2.17129e-23
3.16497e-23
-1.60803e-23
5.37399e-23
-1.83489e-23
2.27003e-23
-2.22145e-23
2.66616e-23
-2.83837e-23
5.85502e-23
-3.40223e-23
4.97633e-23
-2.04209e-23
7.33939e-23
-1.77444e-23
8.24562e-23
-1.35087e-23
7.24774e-23
-9.94987e-24
1.48982e-23
-3.68069e-24
4.20183e-23
-1.63369e-23
2.44938e-23
-1.9014e-23
7.28883e-23
-2.29726e-23
7.00411e-23
-2.68998e-23
7.9273e-23
-2.55494e-23
8.38122e-23
-2.21123e-23
1.01961e-22
-3.32324e-23
3.45613e-23
-5.20542e-23
5.93865e-23
-5.49639e-23
8.70493e-23
-4.77807e-23
1.71208e-22
-4.5058e-23
1.36109e-22
-4.54551e-23
2.19064e-22
-4.35823e-23
2.86922e-22
3.36964e-22
-1.48252e-23
-5.10204e-24
5.75156e-24
-1.4117e-23
-7.23572e-24
-3.12017e-24
5.90229e-23
-1.70007e-23
4.22241e-23
-1.56635e-23
3.60633e-23
-8.82968e-24
9.12488e-23
-6.39115e-24
4.01904e-23
-1.125e-23
1.75682e-23
-2.13776e-23
1.16039e-23
-1.71747e-23
4.56155e-23
-1.85879e-23
1.58174e-23
-2.11088e-23
2.26911e-23
-3.00641e-23
3.33145e-23
-3.17555e-23
4.66346e-23
-1.92715e-23
7.6685e-23
-1.89159e-23
7.06025e-23
-1.72145e-23
6.41385e-23
-7.7755e-24
7.85304e-23
-3.27886e-24
5.41642e-23
-1.44413e-23
3.40429e-23
-1.77895e-23
3.76379e-23
-2.22863e-23
7.06945e-23
-2.55635e-23
7.90297e-23
-2.57885e-23
8.18577e-23
-2.42573e-23
9.55485e-23
-3.27183e-23
4.1132e-23
-4.76749e-23
1.88618e-24
-4.92589e-23
8.52354e-23
-4.84911e-23
1.44802e-22
-3.74866e-23
1.65653e-22
-3.86782e-23
2.19647e-22
-3.81405e-23
2.50579e-22
-1.46092e-23
-3.59854e-23
6.66262e-24
-1.0399e-23
2.14609e-23
-6.33729e-24
5.09198e-23
-1.62593e-23
1.48986e-23
-1.07955e-23
3.28856e-23
-1.18435e-23
2.61188e-23
-8.24961e-24
4.24183e-23
-1.08873e-23
3.54016e-23
-2.0183e-23
-9.65227e-24
-2.03086e-23
6.51669e-23
-1.84183e-23
1.144e-23
-2.07755e-23
1.94601e-23
-2.6799e-23
3.12084e-23
-2.91513e-23
4.53826e-23
-1.81756e-23
8.59102e-23
-2.0223e-23
6.63285e-23
-1.63001e-23
7.82423e-23
-8.9259e-24
6.08911e-23
-4.17873e-24
4.30965e-23
-1.43152e-23
1.881e-23
-1.41588e-23
4.17642e-23
-2.14764e-23
5.30785e-23
-2.47612e-23
7.65553e-23
-2.61751e-23
7.8951e-23
-2.54803e-23
8.7974e-23
-3.67177e-23
6.49957e-23
-3.96483e-23
8.0082e-23
-4.6212e-23
8.43088e-23
-4.44791e-23
1.45899e-22
-3.35416e-23
1.79721e-22
-3.65577e-23
2.23721e-22
2.57183e-22
-1.19697e-23
-3.27836e-23
9.29853e-24
-8.87296e-24
2.09151e-23
-5.3079e-24
4.71807e-23
-1.35306e-23
8.59489e-23
-1.26727e-23
6.70195e-23
-1.19375e-23
5.68111e-23
-9.36304e-24
8.14141e-24
-1.24954e-23
6.70105e-24
-1.48135e-23
-3.78942e-23
-2.41992e-23
3.84563e-23
-1.64235e-23
8.02713e-23
-2.04893e-23
1.70192e-23
-2.42575e-23
2.71708e-23
-2.49889e-23
3.96956e-23
-2.00711e-23
7.43769e-23
-1.9228e-23
9.62932e-23
-1.65898e-23
8.53853e-23
-1.05298e-23
6.82084e-23
-6.01498e-24
2.23883e-23
-1.30888e-23
2.00504e-23
-1.27697e-23
2.88567e-23
-1.89525e-23
3.67609e-23
-2.37559e-23
7.1407e-23
-2.67509e-23
7.50699e-23
-2.55322e-23
1.0737e-22
-3.51515e-23
7.14038e-23
-3.91008e-23
7.73838e-23
-4.17513e-23
5.76125e-23
-4.06849e-23
1.47223e-22
-3.06819e-23
1.74174e-22
-3.24687e-23
2.03111e-22
2.58411e-22
-9.96695e-24
-3.82844e-23
1.34687e-23
-6.98602e-24
1.85025e-23
-2.90395e-24
3.73642e-23
-1.36981e-23
6.21206e-23
-1.3425e-23
6.53912e-23
-1.44353e-23
8.84019e-23
-1.01049e-23
4.14071e-23
-1.74054e-23
2.1168e-23
-1.27663e-23
-3.89228e-23
-1.92327e-23
4.06492e-23
-2.13955e-23
7.76772e-23
-1.82467e-23
8.42866e-23
-2.39399e-23
3.32684e-23
-2.33564e-23
3.63696e-23
-1.5737e-23
5.97793e-23
-2.01414e-23
6.78507e-23
-1.68769e-23
6.66629e-23
-1.33769e-23
5.24439e-23
-5.45255e-24
1.88371e-23
-1.2812e-23
1.77343e-23
-1.16145e-23
2.97651e-23
-1.64749e-23
7.4106e-23
-2.32959e-23
7.54891e-23
-2.47401e-23
6.73373e-23
-2.70452e-23
1.02716e-22
-3.39288e-23
5.155e-23
-4.12618e-23
8.59057e-23
-3.58265e-23
1.30286e-22
-3.65893e-23
1.51556e-22
-2.90291e-23
1.76679e-22
-2.74072e-23
2.28341e-22
2.37634e-22
-1.03545e-23
-1.03935e-23
1.76487e-23
-1.85288e-24
7.33725e-23
-1.18241e-24
4.0976e-23
-1.40361e-23
7.82649e-23
-1.36668e-23
2.78939e-23
-1.29363e-23
8.3868e-23
-1.10996e-23
4.78233e-23
-1.81799e-23
3.00389e-23
-9.01508e-24
1.34072e-23
-1.55992e-23
4.04251e-23
-2.21108e-23
1.91171e-23
-2.24831e-23
5.81621e-23
-2.37689e-23
3.61673e-23
-2.10366e-23
3.31108e-23
-1.68346e-23
5.20869e-23
-1.8768e-23
5.63757e-23
-1.78708e-23
7.67158e-23
-1.43991e-23
3.99479e-23
-6.33119e-24
5.32126e-24
-1.26883e-23
1.37737e-23
-8.01193e-24
4.52614e-23
-1.61918e-23
4.71561e-23
-2.3207e-23
8.22004e-24
-2.26355e-23
6.26812e-23
-2.91334e-23
8.05868e-23
-3.11848e-23
5.12475e-23
-3.78922e-23
9.2693e-23
-3.53544e-23
1.2529e-22
-3.41235e-23
1.54901e-22
-2.47892e-23
2.43733e-22
-2.53134e-23
2.0355e-22
2.41517e-22
-5.48386e-24
1.57109e-23
1.80245e-23
-7.14643e-25
1.58031e-22
1.93478e-24
7.55727e-23
-1.69327e-23
8.49579e-24
-1.22379e-23
5.75983e-23
-1.47218e-23
8.00358e-23
-1.30893e-23
5.03569e-23
-2.10856e-23
4.09246e-25
-4.76522e-24
3.47222e-23
-1.68892e-23
-9.97507e-24
-1.98853e-23
2.19791e-23
-2.37544e-23
5.76824e-23
-2.3725e-23
3.96263e-23
-1.94417e-23
3.25141e-23
-1.49836e-23
7.32615e-23
-1.88085e-23
4.89354e-23
-2.08286e-23
6.77103e-23
-1.70124e-23
6.36582e-24
-5.82122e-24
-2.34792e-24
-9.67744e-24
1.55566e-23
-7.6472e-24
5.67695e-23
-1.92968e-23
4.65257e-23
-1.84851e-23
3.40726e-23
-2.25972e-23
4.35136e-23
-2.98483e-23
6.42008e-23
-2.8491e-23
6.49828e-23
-3.44079e-23
9.46795e-23
-3.44944e-23
1.22055e-22
-2.80118e-23
1.46654e-22
-2.75288e-23
1.68058e-22
-2.08989e-23
1.97272e-22
2.40997e-22
1.77222e-24
6.13182e-23
1.80216e-23
-3.95297e-24
1.01009e-22
-2.69225e-24
7.0694e-23
-1.38963e-23
5.65029e-23
-9.57401e-24
5.32358e-23
-1.58854e-23
5.00255e-23
-1.56091e-23
5.17594e-23
-1.85571e-23
3.65904e-23
-7.73834e-24
2.19215e-23
-1.5644e-23
-3.80848e-23
-1.75774e-23
2.29959e-23
-2.35381e-23
5.47365e-23
-2.44151e-23
4.30618e-23
-1.79712e-23
2.18182e-23
-1.51227e-23
6.53902e-23
-1.81167e-23
1.60247e-23
-2.2968e-23
6.29203e-23
-1.87671e-23
2.50185e-23
-4.13345e-24
5.39198e-23
-6.59459e-24
4.31111e-23
-8.46771e-24
5.43627e-23
-2.01586e-23
4.46111e-23
-1.59805e-23
8.97922e-23
-2.17237e-23
4.47517e-23
-2.87629e-23
6.07308e-23
-2.76527e-23
7.64692e-23
-3.20983e-23
9.79561e-23
-3.42817e-23
9.45862e-23
-2.59843e-23
1.51662e-22
-2.47896e-23
1.63898e-22
-1.69322e-23
2.19256e-22
1.70697e-22
1.32843e-24
1.07371e-22
1.55082e-23
-4.23881e-24
7.39537e-23
-4.69033e-24
6.59599e-23
-1.2451e-23
6.07883e-23
-1.1473e-23
1.69092e-23
-1.72343e-23
1.83008e-23
-1.62206e-23
4.51654e-23
-1.88184e-23
-2.35289e-23
-1.14859e-23
2.2091e-23
-1.20234e-23
-6.99184e-25
-1.68667e-23
-8.23921e-24
-2.60821e-23
3.84084e-25
-2.20708e-23
6.57152e-23
-1.76803e-23
1.23336e-23
-1.67732e-23
2.72083e-23
-1.62605e-23
1.0995e-23
-2.39037e-23
6.35086e-23
-1.80104e-23
2.61648e-24
-2.52637e-24
5.88453e-23
-5.64021e-24
3.99438e-23
-9.37021e-24
2.70823e-23
-1.75922e-23
4.19774e-23
-1.78683e-23
7.73543e-23
-2.13267e-23
4.00333e-23
-2.68632e-23
7.42751e-23
-2.64964e-23
6.33769e-23
-3.11333e-23
1.00342e-22
-3.16515e-23
1.01828e-22
-2.50867e-23
2.12279e-22
-2.18458e-23
1.77544e-22
-1.92213e-23
1.91232e-22
1.50038e-22
1.44575e-24
6.1501e-23
1.39121e-23
-5.4739e-24
4.94574e-23
-4.2443e-24
2.87881e-23
-1.49938e-23
3.60701e-23
-1.05146e-23
4.80327e-23
-1.81956e-23
6.13879e-23
-1.80637e-23
4.04633e-23
-1.74843e-23
-2.64306e-23
-1.2509e-23
2.24908e-23
-1.20492e-23
-3.21816e-24
-1.81033e-23
-3.90345e-23
-2.17789e-23
-6.43955e-24
-2.37163e-23
2.71738e-23
-1.79441e-23
-1.34533e-24
-1.62288e-23
1.97829e-23
-1.33434e-23
3.25505e-23
-2.64226e-23
7.6059e-23
-1.59022e-23
5.65714e-23
-1.20083e-24
6.25461e-23
-6.61772e-24
4.54909e-24
-8.28433e-24
2.51881e-23
-1.63128e-23
4.18169e-23
-1.94294e-23
7.8351e-23
-1.9106e-23
3.78744e-23
-2.69141e-23
7.3208e-23
-2.49831e-23
8.76399e-23
-3.03488e-23
1.0545e-22
-2.61871e-23
1.3645e-22
-2.64519e-23
2.1369e-22
-2.15377e-23
1.70621e-22
-2.04613e-23
1.84178e-22
2.03079e-22
1.48468e-24
8.74575e-23
1.54397e-23
-6.95208e-24
2.81984e-23
-2.92793e-24
5.91633e-23
-1.50373e-23
4.90821e-23
-9.30147e-24
4.09256e-23
-2.02719e-23
3.70705e-23
-1.92802e-23
1.02722e-22
-1.75703e-23
-2.37535e-23
-1.14892e-23
-2.07649e-23
-1.51492e-23
4.38312e-24
-1.61128e-23
-5.11857e-24
-2.01591e-23
-4.40321e-23
-2.53063e-23
2.66961e-23
-1.82625e-23
-6.54785e-24
-1.47224e-23
4.83853e-23
-1.15827e-23
2.29564e-23
-2.46655e-23
5.87255e-23
-1.76147e-23
7.12696e-23
-2.22499e-24
1.21674e-22
-6.55482e-24
6.66026e-24
-6.87298e-24
1.945e-23
-1.52645e-23
4.67283e-23
-2.02664e-23
8.54539e-23
-1.70688e-23
9.58298e-23
-2.6293e-23
5.68775e-23
-2.40737e-23
7.89214e-23
-2.77099e-23
1.11555e-22
-2.28604e-23
1.34153e-22
-2.82948e-23
2.23368e-22
-2.09307e-23
1.6536e-22
-1.91075e-23
1.66461e-22
1.86416e-22
-1.9698e-24
4.69971e-23
1.40536e-23
-4.47191e-24
4.50586e-23
-5.26498e-24
2.58656e-23
-1.38693e-23
2.11334e-23
-1.00028e-23
7.15346e-23
-1.82128e-23
1.25445e-23
-2.34843e-23
7.37332e-23
-1.95473e-23
8.05503e-24
-1.00206e-23
3.25402e-24
-1.42974e-23
6.94112e-24
-1.65379e-23
-2.236e-24
-1.77149e-23
-6.61421e-24
-2.55366e-23
1.21601e-24
-1.59418e-23
-1.55812e-23
-1.36116e-23
4.80792e-23
-9.7905e-24
3.96229e-23
-2.17613e-23
4.03782e-23
-1.79015e-23
6.92946e-23
-6.93754e-24
1.05466e-22
-5.93335e-24
2.54231e-23
-3.79461e-24
1.38558e-23
-1.4102e-23
2.62155e-23
-1.82307e-23
8.6453e-23
-1.90309e-23
5.78335e-23
-2.49687e-23
5.72596e-23
-2.23154e-23
1.49119e-22
-2.57987e-23
1.14835e-22
-1.99188e-23
9.29102e-23
-3.13565e-23
1.56862e-22
-2.08289e-23
1.56855e-22
-1.88257e-23
1.57623e-22
1.90184e-22
3.80509e-25
9.44404e-23
1.65698e-23
-6.45784e-24
2.09684e-23
-5.18642e-24
3.0321e-23
-1.20895e-23
-1.00299e-23
-1.12498e-23
5.93637e-24
-1.54351e-23
3.08864e-23
-2.72641e-23
5.41686e-23
-1.97344e-23
8.9319e-24
-9.80452e-24
2.63391e-23
-1.41034e-23
8.23823e-24
-1.6959e-23
1.65148e-24
-1.78351e-23
-3.16932e-24
-2.56688e-23
-2.33766e-23
-1.22349e-23
3.27614e-23
-1.33375e-23
4.42999e-23
-9.73616e-24
6.08634e-23
-1.88232e-23
4.3152e-23
-1.63851e-23
6.44202e-23
-8.37626e-24
1.09392e-22
-7.69602e-24
4.05442e-23
-2.62614e-24
7.47184e-23
-1.17669e-23
3.27033e-23
-1.92739e-23
4.62318e-23
-1.91894e-23
4.61771e-23
-2.00304e-23
7.00613e-23
-2.45358e-23
1.48646e-22
-2.57814e-23
1.17016e-22
-1.79416e-23
7.91421e-23
-3.0718e-23
9.29682e-23
-1.99894e-23
1.41779e-22
-1.83944e-23
1.31741e-22
1.90152e-22
-2.13413e-24
1.14417e-22
1.68338e-23
-6.41713e-24
-6.97064e-24
-4.96792e-24
6.79512e-23
-1.3656e-23
-5.19718e-24
-1.00626e-23
3.42693e-23
-1.55637e-23
2.52384e-24
-2.73256e-23
3.19353e-23
-1.96327e-23
6.83493e-23
-9.43637e-24
7.86198e-23
-1.59571e-23
7.62749e-23
-1.35966e-23
8.76942e-23
-1.95198e-23
3.92818e-23
-2.11444e-23
4.24831e-23
-1.28088e-23
2.80083e-23
-1.35162e-23
4.63164e-23
-9.96929e-24
5.3829e-23
-1.62841e-23
1.73436e-23
-1.55727e-23
6.28899e-23
-9.20048e-24
1.26402e-22
-9.06814e-24
3.50414e-23
-3.34699e-24
9.503e-23
-1.07002e-23
3.15775e-23
-1.90324e-23
7.4997e-24
-1.75272e-23
4.13097e-23
-1.61726e-23
6.03529e-23
-2.65953e-23
7.97225e-23
-2.67694e-23
1.16191e-22
-1.90394e-23
7.07678e-23
-2.71782e-23
1.01112e-22
-1.99222e-23
1.53263e-22
-1.66407e-23
1.59347e-22
2.26364e-22
-4.73758e-24
1.08509e-22
1.61368e-23
-7.01404e-24
5.52808e-23
-5.12995e-24
1.01581e-22
-1.5247e-23
6.11265e-24
-8.0419e-24
9.0279e-23
-1.61591e-23