/*--------------------------------*- C++ -*----------------------------------*\
  =========                 |
  \\      /  F ield         | OpenFOAM: The Open Source CFD Toolbox
   \\    /   O peration     | Website:  https://openfoam.org
    \\  /    A nd           | Version:  7
     \\/     M anipulation  |
\*---------------------------------------------------------------------------*/
FoamFile
{
    version     2.0;
    format      ascii;
    class       volScalarField;
    location    "208000";
    object      strainRate;
}
// * * * * * * * * * * * * * * * * * * * * * * * * * * * * * * * * * * * * * //

dimensions      [0 0 -1 0 0 0 0];

internalField   nonuniform List<scalar> 
4764
(
0.0299733
0.0298479
0.0297349
0.0296343
0.0295463
0.0294707
0.0323136
0.032076
0.0318501
0.0316359
0.0314337
0.0312436
0.0310656
0.0309
0.0307469
0.0306063
0.0304782
0.0303629
0.0302603
0.0301704
0.0300933
0.030029
0.0299775
0.0299389
0.0299132
0.0299003
0.0299003
0.0299132
0.0299389
0.0299775
0.030029
0.0300933
0.0301704
0.0302602
0.0303629
0.0330037
0.0327593
0.0325271
0.032308
0.0321014
0.0319073
0.0317255
0.0315565
0.0314002
0.0312565
0.0311258
0.0310081
0.0309033
0.0308116
0.0307328
0.0306672
0.0306147
0.0305753
0.030549
0.0305358
0.0305358
0.030549
0.0305753
0.0306147
0.0306672
0.0307328
0.0308116
0.0309033
0.0310081
0.0311258
0.0312565
0.0314002
0.0315565
0.0337216
0.0334678
0.0332271
0.0330014
0.0327889
0.0325896
0.0324039
0.0322312
0.0320716
0.0319249
0.0317914
0.0316711
0.0315641
0.0314705
0.0313901
0.0313231
0.0312694
0.0312292
0.0312024
0.031189
0.031189
0.0312024
0.0312292
0.0312694
0.0313231
0.0313901
0.0314705
0.0315641
0.0316711
0.0317914
0.0319249
0.0320716
0.0322312
0.0324039
0.0325896
0.0327889
0.0330014
0.0332271
0.0334678
0.0337216
0.0339894
0.0342702
0.0345637
0.0348712
0.0352195
0.0344675
0.0342049
0.0339558
0.0337216
0.0335012
0.0332949
0.0331038
0.0329262
0.0327621
0.0326121
0.0324757
0.0323528
0.0322436
0.0321479
0.0320658
0.0319973
0.0319425
0.0319014
0.031874
0.0318603
0.0318603
0.031874
0.0319014
0.0319425
0.0319973
0.0320658
0.0321479
0.0322436
0.0323528
0.0324757
0.0326121
0.0327621
0.0329262
0.0331038
0.0332949
0.0335012
0.0337216
0.0339558
0.0342049
0.0344675
0.034743
0.0350313
0.035332
0.0356461
0.0359975
0.0352378
0.0349684
0.0347126
0.0344705
0.0342426
0.034029
0.0338307
0.0336465
0.0334764
0.033322
0.0331817
0.0330553
0.032943
0.0328447
0.0327607
0.0326908
0.0326348
0.0325928
0.0325649
0.0325509
0.0325509
0.0325649
0.0325929
0.0326348
0.0326908
0.0327607
0.0328447
0.032943
0.0330553
0.0331817
0.033322
0.0334764
0.0336465
0.0338307
0.034029
0.0342426
0.0344705
0.0347126
0.0349684
0.0352378
0.03552
0.0358148
0.0361222
0.0364422
0.0367974
0.036031
0.0357556
0.0354939
0.0352456
0.0350116
0.034792
0.0345868
0.0343963
0.0342205
0.0340603
0.0339148
0.0337838
0.0336674
0.0335656
0.0334792
0.0334073
0.0333497
0.0333065
0.0332778
0.0332634
0.0332634
0.0332778
0.0333065
0.0333497
0.0334073
0.0334792
0.0335656
0.0336674
0.0337838
0.0339148
0.0340603
0.0342205
0.0343963
0.0345868
0.034792
0.0350116
0.0352456
0.0354939
0.0357556
0.036031
0.0363193
0.0366204
0.0369341
0.03726
0.03762
0.0368467
0.0365655
0.0362982
0.0360444
0.0358051
0.0355803
0.0353698
0.0351743
0.0349938
0.0348282
0.0346778
0.0345423
0.034422
0.0343167
0.0342271
0.0341526
0.0340929
0.0340482
0.0340183
0.0340034
0.0340034
0.0340183
0.0340482
0.0340929
0.0341526
0.0342271
0.0343167
0.034422
0.0345423
0.0346778
0.0348282
0.0349938
0.0351743
0.0353698
0.0355803
0.0358051
0.0360444
0.0362982
0.0365655
0.0368467
0.037141
0.0374484
0.0377683
0.0381004
0.0384659
0.0376853
0.0373983
0.0371254
0.0368664
0.036622
0.0363923
0.0361772
0.0359772
0.0357925
0.0356227
0.0354683
0.0353293
0.0352058
0.0350977
0.0350051
0.034928
0.0348663
0.0348201
0.0347893
0.0347738
0.0347738
0.0347893
0.0348201
0.0348663
0.034928
0.0350051
0.0350977
0.0352058
0.0353293
0.0354683
0.0356227
0.0357925
0.0359772
0.0361772
0.0363923
0.036622
0.0368664
0.0371254
0.0373983
0.0376853
0.0379858
0.0382995
0.038626
0.0389645
0.0393364
0.0385477
0.0382548
0.0379762
0.0377119
0.0374624
0.0372279
0.0370083
0.0368041
0.0366154
0.0364418
0.0362839
0.0361418
0.0360154
0.0359048
0.0358098
0.0357306
0.0356674
0.0356199
0.0355883
0.0355724
0.0355724
0.0355883
0.0356199
0.0356674
0.0357306
0.0358098
0.0359048
0.0360154
0.0361418
0.0362839
0.0364418
0.0366154
0.0368041
0.0370083
0.0372279
0.0374624
0.0377119
0.0379762
0.0382548
0.0385477
0.0388545
0.0391748
0.0395081
0.0398535
0.0402324
0.0394351
0.039136
0.0388514
0.0385817
0.038327
0.0380876
0.0378635
0.037655
0.0374623
0.0372851
0.0371239
0.0369787
0.0368496
0.0367365
0.0366394
0.0365585
0.0364937
0.0364452
0.0364128
0.0363966
0.0363966
0.0364128
0.0364452
0.0364937
0.0365585
0.0366394
0.0367365
0.0368496
0.0369787
0.0371239
0.0372851
0.0374623
0.037655
0.0378635
0.0380876
0.038327
0.0385817
0.0388515
0.039136
0.0394351
0.0397485
0.0400757
0.0404161
0.0407689
0.0411553
0.0403487
0.0400431
0.0397524
0.0394769
0.0392168
0.0389724
0.0387436
0.0385307
0.0383339
0.0381531
0.0379884
0.0378402
0.0377083
0.0375929
0.0374937
0.037411
0.0373449
0.0372953
0.0372622
0.0372457
0.0372457
0.0372622
0.0372953
0.0373449
0.037411
0.0374937
0.0375929
0.0377083
0.0378402
0.0379884
0.0381531
0.0383339
0.0385307
0.0387436
0.0389724
0.0392168
0.0394769
0.0397524
0.0400431
0.0403488
0.040669
0.0410034
0.0413514
0.0417119
0.0421063
0.04129
0.0409776
0.0406804
0.0403989
0.0401332
0.0398834
0.0396497
0.0394323
0.0392313
0.0390466
0.0388785
0.0387271
0.0385924
0.0384745
0.0383733
0.0382889
0.0382213
0.0381707
0.0381369
0.03812
0.03812
0.0381369
0.0381707
0.0382213
0.0382889
0.0383733
0.0384745
0.0385924
0.0387271
0.0388785
0.0390466
0.0392313
0.0394323
0.0396497
0.0398834
0.0401332
0.0403989
0.0406804
0.0409776
0.04129
0.0416175
0.0419594
0.0423153
0.0426841
0.0430869
0.0425954
0.0422604
0.0419408
0.0416369
0.0413491
0.0410774
0.0408221
0.0405833
0.0403611
0.0401557
0.039967
0.0397953
0.0396406
0.039503
0.0393825
0.0392791
0.0391929
0.0391239
0.0390721
0.0390377
0.0390204
0.0390204
0.0390376
0.0390721
0.0391239
0.0391929
0.0392791
0.0393825
0.039503
0.0396406
0.0397953
0.039967
0.0401557
0.0403611
0.0405833
0.0408221
0.0410774
0.0413491
0.041637
0.0419408
0.0422604
0.0425954
0.0429453
0.0433094
0.0436869
0.0440985
0.0436043
0.0432615
0.0429344
0.0426235
0.042329
0.0420511
0.04179
0.0415458
0.0413186
0.0411086
0.0409157
0.0407401
0.040582
0.0404414
0.0403182
0.0402125
0.0401244
0.0400539
0.040001
0.0399658
0.0399482
0.0399482
0.0399658
0.040001
0.0400539
0.0401244
0.0402125
0.0403182
0.0404414
0.040582
0.0407401
0.0409157
0.0411086
0.0413186
0.0415458
0.04179
0.0420511
0.042329
0.0426235
0.0429344
0.0432615
0.0436043
0.0439625
0.0443354
0.0447219
0.0451429
0.0446459
0.0442948
0.04396
0.0436417
0.0433402
0.0430559
0.0427887
0.0425388
0.0423064
0.0420915
0.0418942
0.0417146
0.0415529
0.041409
0.0412831
0.041175
0.0410849
0.0410129
0.0409588
0.0409227
0.0409047
0.0409047
0.0409227
0.0409588
0.0410129
0.0410849
0.041175
0.0412831
0.041409
0.0415529
0.0417146
0.0418942
0.0420915
0.0423064
0.0425388
0.0427887
0.0430559
0.0433403
0.0436417
0.04396
0.0442948
0.044646
0.0450128
0.0453947
0.0457908
0.0462215
0.0460979
0.045722
0.0453622
0.0450192
0.0446932
0.0443845
0.0440933
0.0438198
0.043564
0.043326
0.0431061
0.0429041
0.0427204
0.0425549
0.0424076
0.0422787
0.0421682
0.042076
0.0420023
0.041947
0.0419101
0.0418916
0.0418916
0.0419101
0.041947
0.0420023
0.042076
0.0421682
0.0422787
0.0424076
0.0425549
0.0427204
0.0429041
0.0431061
0.043326
0.043564
0.0438198
0.0440933
0.0443845
0.0446932
0.0450192
0.0453622
0.045722
0.0460979
0.0464893
0.0468953
0.0473362
0.0472195
0.0468342
0.0464655
0.0461139
0.0457799
0.0454636
0.0451653
0.044885
0.044623
0.0443793
0.0441541
0.0439473
0.0437591
0.0435896
0.0434389
0.0433069
0.0431937
0.0430994
0.0430239
0.0429673
0.0429295
0.0429106
0.0429106
0.0429295
0.0429673
0.0430239
0.0430994
0.0431937
0.0433069
0.0434389
0.0435896
0.0437591
0.0439473
0.0441541
0.0443793
0.044623
0.044885
0.0451653
0.0454636
0.0457799
0.0461139
0.0464655
0.0468342
0.0472196
0.0476209
0.0480372
0.0484888
0.0487914
0.0483797
0.0479845
0.0476064
0.047246
0.0469035
0.0465793
0.0462735
0.0459864
0.0457179
0.0454681
0.0452373
0.0450254
0.0448326
0.044659
0.0445046
0.0443694
0.0442534
0.0441568
0.0440795
0.0440215
0.0439828
0.0439635
0.0439635
0.0439828
0.0440215
0.0440795
0.0441568
0.0442534
0.0443694
0.0445046
0.044659
0.0448326
0.0450254
0.0452373
0.0454681
0.0457178
0.0459864
0.0462735
0.0465793
0.0469035
0.047246
0.0476064
0.0479845
0.0483797
0.0487914
0.0492186
0.0496812
0.050003
0.0495805
0.049175
0.0487871
0.0484174
0.0480661
0.0477337
0.0474201
0.0471256
0.0468503
0.0465943
0.0463577
0.0461405
0.0459428
0.0457649
0.0456066
0.045468
0.0453492
0.0452502
0.0451709
0.0451115
0.0450718
0.045052
0.045052
0.0450718
0.0451115
0.0451709
0.0452502
0.0453492
0.045468
0.0456066
0.0457649
0.0459428
0.0461405
0.0463577
0.0465943
0.0468503
0.0471256
0.0474201
0.0477337
0.0480661
0.0484174
0.0487871
0.049175
0.0495805
0.050003
0.0504414
0.0509157
0.0512577
0.050824
0.0504077
0.0500096
0.0496302
0.0492698
0.0489287
0.048607
0.048305
0.0480226
0.04776
0.0475172
0.0472945
0.0470918
0.0469093
0.0467469
0.0466048
0.046483
0.0463814
0.0463002
0.0462392
0.0461986
0.0461783
0.0461783
0.0461986
0.0462392
0.0463002
0.0463814
0.046483
0.0466048
0.0467469
0.0469093
0.0470918
0.0472945
0.0475172
0.04776
0.0480226
0.048305
0.048607
0.0489287
0.0492698
0.0496302
0.0500096
0.0504077
0.050824
0.0512577
0.0517079
0.0521942
0.0525578
0.0521124
0.051685
0.0512762
0.0508867
0.0505168
0.0501667
0.0498365
0.0495265
0.0492367
0.0489672
0.0487181
0.0484895
0.0482816
0.0480943
0.0479277
0.0477819
0.0476569
0.0475528
0.0474694
0.0474069
0.0473652
0.0473444
0.0473444
0.0473652
0.0474069
0.0474694
0.0475528
0.0476569
0.0477819
0.0479277
0.0480943
0.0482816
0.0484895
0.0487181
0.0489672
0.0492367
0.0495265
0.0498365
0.0501667
0.0505168
0.0508867
0.0512763
0.051685
0.0521124
0.0525579
0.0530204
0.0535193
0.0539059
0.0534482
0.0530091
0.0525893
0.0521893
0.0518094
0.0514498
0.0511108
0.0507925
0.050495
0.0502183
0.0499626
0.0497279
0.0495144
0.0493222
0.0491512
0.0490016
0.0488733
0.0487663
0.0486808
0.0486166
0.0485738
0.0485524
0.0485524
0.0485738
0.0486166
0.0486808
0.0487663
0.0488733
0.0490016
0.0491512
0.0493222
0.0495144
0.0497279
0.0499626
0.0502183
0.050495
0.0507925
0.0511108
0.0514498
0.0518094
0.0521893
0.0525893
0.0530091
0.0534482
0.0539059
0.0543812
0.0548933
0.0557931
0.0553044
0.054834
0.0543828
0.0539514
0.0535404
0.0531501
0.0527807
0.0524325
0.0521055
0.0517999
0.0515157
0.0512531
0.051012
0.0507928
0.0505953
0.0504197
0.0502661
0.0501343
0.0500245
0.0499367
0.0498708
0.0498268
0.0498049
0.0498049
0.0498268
0.0498708
0.0499367
0.0500245
0.0501343
0.0502661
0.0504197
0.0505953
0.0507928
0.051012
0.051253
0.0515157
0.0517999
0.0521055
0.0524325
0.0527807
0.0531501
0.0535404
0.0539514
0.0543828
0.054834
0.0553045
0.0557931
0.0563189
0.057799
0.0572588
0.0567562
0.0562725
0.0558086
0.0553652
0.0549427
0.0545415
0.0541619
0.0538041
0.0534681
0.053154
0.052862
0.0525921
0.0523444
0.0521191
0.0519162
0.0517359
0.051578
0.0514426
0.0513298
0.0512395
0.0511718
0.0511267
0.0511041
0.0511041
0.0511267
0.0511718
0.0512395
0.0513298
0.0514426
0.051578
0.0517358
0.0519162
0.0521191
0.0523444
0.0525921
0.052862
0.053154
0.0534681
0.0538041
0.0541619
0.0545415
0.0549427
0.0553652
0.0558086
0.0562725
0.0567562
0.0572588
0.057799
0.0593364
0.0587813
0.0582642
0.0577666
0.0572895
0.0568334
0.056399
0.0559866
0.0555963
0.0552283
0.0548829
0.05456
0.0542598
0.0539824
0.0537278
0.0534962
0.0532876
0.0531022
0.0529399
0.0528008
0.0526848
0.0525921
0.0525225
0.0524761
0.0524529
0.0524529
0.0524761
0.0525225
0.0525921
0.0526848
0.0528008
0.0529399
0.0531022
0.0532876
0.0534962
0.0537278
0.0539824
0.0542598
0.05456
0.0548829
0.0552283
0.0555963
0.0559866
0.056399
0.0568335
0.0572895
0.0577666
0.0582642
0.0587813
0.0593364
0.0609345
0.0603637
0.0598315
0.0593194
0.0588285
0.0583594
0.0579125
0.0574882
0.0570867
0.0567083
0.056353
0.0560209
0.0557122
0.0554268
0.055165
0.0549268
0.0547123
0.0545216
0.0543547
0.0542117
0.0540924
0.053997
0.0539255
0.0538778
0.0538539
0.0538539
0.0538778
0.0539255
0.053997
0.0540924
0.0542117
0.0543547
0.0545216
0.0547123
0.0549268
0.055165
0.0554268
0.0557122
0.0560209
0.056353
0.0567083
0.0570867
0.0574882
0.0579125
0.0583594
0.0588285
0.0593194
0.0598315
0.0603637
0.0609345
0.0625965
0.0620094
0.0614614
0.0609343
0.060429
0.0599461
0.0594862
0.0590496
0.0586365
0.0582471
0.0578815
0.0575398
0.0572221
0.0569285
0.0566591
0.056414
0.0561934
0.0559972
0.0558255
0.0556783
0.0555556
0.0554575
0.0553839
0.0553348
0.0553103
0.0553103
0.0553348
0.0553839
0.0554575
0.0555556
0.0556783
0.0558255
0.0559972
0.0561934
0.056414
0.0566591
0.0569285
0.0572221
0.0575398
0.0578815
0.0582471
0.0586365
0.0590496
0.0594863
0.0599462
0.060429
0.0609343
0.0614614
0.0620094
0.0625966
0.0643264
0.0637222
0.0631577
0.0626148
0.0620945
0.0615973
0.0611238
0.0606743
0.060249
0.0598482
0.0594718
0.0591201
0.058793
0.0584908
0.0582135
0.0579612
0.0577341
0.0575321
0.0573554
0.0572039
0.0570777
0.0569767
0.0569009
0.0568504
0.0568251
0.0568251
0.0568504
0.0569009
0.0569767
0.0570777
0.0572039
0.0573554
0.0575321
0.0577341
0.0579612
0.0582135
0.0584908
0.058793
0.0591201
0.0594718
0.0598482
0.060249
0.0606743
0.0611238
0.0615973
0.0620945
0.0626148
0.0631577
0.0637222
0.0643264
0.0661278
0.0655058
0.0649241
0.0643648
0.0638287
0.0633166
0.062829
0.062366
0.061928
0.0615151
0.0611275
0.0607653
0.0604284
0.0601172
0.0598316
0.0595718
0.0593379
0.05913
0.058948
0.058792
0.058662
0.058558
0.0584799
0.0584279
0.0584019
0.0584019
0.0584279
0.0584799
0.058558
0.058662
0.058792
0.058948
0.05913
0.0593379
0.0595718
0.0598316
0.0601172
0.0604284
0.0607653
0.0611275
0.0615151
0.061928
0.062366
0.062829
0.0633167
0.0638287
0.0643648
0.0649241
0.0655058
0.0661278
0.0680051
0.0673644
0.0667647
0.0661882
0.0656358
0.0651081
0.0646056
0.0641285
0.0636772
0.0632518
0.0628525
0.0624792
0.0621322
0.0618115
0.0615172
0.0612496
0.0610086
0.0607944
0.0606069
0.0604462
0.0603123
0.0602051
0.0601247
0.0600712
0.0600444
0.0600444
0.0600712
0.0601247
0.0602051
0.0603123
0.0604462
0.0606069
0.0607944
0.0610086
0.0612496
0.0615172
0.0618115
0.0621322
0.0624792
0.0628525
0.0632518
0.0636772
0.0641285
0.0646056
0.0651081
0.0656358
0.0661883
0.0667647
0.0673644
0.0680051
0.0699628
0.0693026
0.0686841
0.0680897
0.0675201
0.0669761
0.066458
0.0659663
0.065501
0.0650625
0.0646509
0.0642661
0.0639084
0.0635778
0.0632745
0.0629986
0.0627503
0.0625294
0.0623362
0.0621706
0.0620325
0.0619221
0.0618392
0.061784
0.0617564
0.0617564
0.061784
0.0618392
0.0619221
0.0620325
0.0621706
0.0623362
0.0625294
0.0627503
0.0629986
0.0632745
0.0635778
0.0639084
0.0642661
0.0646509
0.0650625
0.065501
0.0659663
0.066458
0.0669761
0.0675201
0.0680897
0.0686841
0.0693026
0.0699628
0.0720056
0.071325
0.0706869
0.0700737
0.0694863
0.0689252
0.0683909
0.0678837
0.0674039
0.0669517
0.0665271
0.0661304
0.0657615
0.0654205
0.0651078
0.0648233
0.0645672
0.0643394
0.0641402
0.0639694
0.063827
0.0637131
0.0636277
0.0635708
0.0635423
0.0635423
0.0635708
0.0636277
0.0637131
0.063827
0.0639694
0.0641402
0.0643394
0.0645671
0.0648233
0.0651078
0.0654205
0.0657615
0.0661304
0.0665271
0.0669517
0.0674039
0.0678837
0.0683909
0.0689252
0.0694863
0.0700737
0.0706869
0.071325
0.0720057
0.074139
0.073437
0.0727783
0.0721455
0.0715394
0.0709604
0.0704091
0.0698858
0.0693908
0.0689242
0.0684862
0.0680768
0.0676962
0.0673444
0.0670217
0.0667282
0.0664639
0.066229
0.0660234
0.0658472
0.0657003
0.0655829
0.0654947
0.065436
0.0654066
0.0654066
0.065436
0.0654947
0.0655829
0.0657003
0.0658472
0.0660234
0.066229
0.0664639
0.0667282
0.0670217
0.0673444
0.0676962
0.0680768
0.0684862
0.0689242
0.0693908
0.0698858
0.0704091
0.0709604
0.0715394
0.0721455
0.0727783
0.073437
0.074139
0.0763683
0.075644
0.0749638
0.0743105
0.0736848
0.0730871
0.072518
0.0719779
0.0714669
0.0709852
0.0705331
0.0701105
0.0697176
0.0693545
0.0690214
0.0687184
0.0684457
0.0682032
0.067991
0.0678091
0.0676575
0.0675362
0.0674453
0.0673846
0.0673543
0.0673543
0.0673846
0.0674453
0.0675362
0.0676575
0.0678091
0.067991
0.0682032
0.0684456
0.0687184
0.0690214
0.0693545
0.0697176
0.0701105
0.0705331
0.0709852
0.0714669
0.0719779
0.0725181
0.0730871
0.0736848
0.0743105
0.0749638
0.075644
0.0763684
0.0786998
0.077952
0.0772494
0.0765746
0.0759283
0.0753111
0.0747234
0.0741656
0.0736378
0.0731404
0.0726734
0.072237
0.0718313
0.0714563
0.0711123
0.0707994
0.0705177
0.0702673
0.0700481
0.0698603
0.0697038
0.0695785
0.0694846
0.069422
0.0693907
0.0693907
0.069422
0.0694846
0.0695785
0.0697038
0.0698603
0.0700481
0.0702673
0.0705177
0.0707994
0.0711123
0.0714563
0.0718313
0.072237
0.0726734
0.0731404
0.0736378
0.0741656
0.0747234
0.0753111
0.0759283
0.0765746
0.0772494
0.077952
0.0786998
0.0811399
0.0803675
0.0796413
0.0789441
0.0782763
0.0776386
0.0770314
0.076455
0.0759097
0.0753958
0.0749133
0.0744624
0.0740431
0.0736557
0.0733002
0.0729769
0.0726859
0.0724272
0.0722008
0.0720067
0.071845
0.0717156
0.0716186
0.0715539
0.0715215
0.0715215
0.0715539
0.0716186
0.0717156
0.071845
0.0720067
0.0722008
0.0724272
0.0726859
0.0729769
0.0733002
0.0736557
0.0740431
0.0744624
0.0749133
0.0753958
0.0759097
0.076455
0.0770314
0.0776386
0.0782763
0.0789441
0.0796414
0.0803675
0.0811399
0.0836956
0.0828975
0.0821467
0.0814259
0.0807356
0.0800764
0.0794487
0.0788529
0.0782892
0.0777579
0.0772592
0.076793
0.0763596
0.0759591
0.0755916
0.0752575
0.0749566
0.0746892
0.0744551
0.0742545
0.0740873
0.0739536
0.0738533
0.0737864
0.073753
0.073753
0.0737864
0.0738533
0.0739536
0.0740873
0.0742545
0.0744551
0.0746892
0.0749566
0.0752575
0.0755916
0.0759591
0.0763596
0.076793
0.0772592
0.0777579
0.0782892
0.0788529
0.0794487
0.0800764
0.0807356
0.0814259
0.0821467
0.0828975
0.0836956
0.0863746
0.0855495
0.0847728
0.0840273
0.0833134
0.0826317
0.0819826
0.0813664
0.0807834
0.0802339
0.0797181
0.079236
0.0787877
0.0783734
0.0779934
0.0776478
0.0773367
0.07706
0.076818
0.0766105
0.0764376
0.0762993
0.0761955
0.0761264
0.0760918
0.0760918
0.0761264
0.0761955
0.0762993
0.0764376
0.0766105
0.076818
0.07706
0.0773367
0.0776478
0.0779934
0.0783734
0.0787877
0.079236
0.0797181
0.0802339
0.0807834
0.0813664
0.0819826
0.0826317
0.0833134
0.0840273
0.0847728
0.0855495
0.0863746
0.0891849
0.0883315
0.0875278
0.0867565
0.0860178
0.0853124
0.0846408
0.0840032
0.0834
0.0828314
0.0822976
0.0817988
0.0813349
0.0809062
0.080513
0.0801553
0.0798334
0.0795472
0.0792967
0.079082
0.0789031
0.0787599
0.0786526
0.078581
0.0785452
0.0785452
0.078581
0.0786526
0.0787599
0.0789031
0.079082
0.0792967
0.0795472
0.0798334
0.0801553
0.080513
0.0809062
0.0813349
0.0817988
0.0822976
0.0828314
0.0834
0.0840032
0.0846408
0.0853124
0.0860178
0.0867565
0.0875278
0.0883315
0.089185
0.0921356
0.0912525
0.0904203
0.0896219
0.0888573
0.0881271
0.0874318
0.0867718
0.0861473
0.0855587
0.0850061
0.0844896
0.0840094
0.0835656
0.0831584
0.0827882
0.0824548
0.0821585
0.0818992
0.0816769
0.0814917
0.0813435
0.0812324
0.0811583
0.0811212
0.0811212
0.0811583
0.0812324
0.0813435
0.0814917
0.0816769
0.0818992
0.0821585
0.0824548
0.0827882
0.0831584
0.0835656
0.0840094
0.0844896
0.0850061
0.0855587
0.0861473
0.0867718
0.0874319
0.0881271
0.0888573
0.0896219
0.0904204
0.0912525
0.0921356
0.0952361
0.0943218
0.0934599
0.0926331
0.0918412
0.091085
0.0903649
0.0896813
0.0890345
0.0884247
0.0878523
0.0873174
0.08682
0.0863602
0.0859385
0.085555
0.0852097
0.0849028
0.0846342
0.0844039
0.084212
0.0840585
0.0839434
0.0838666
0.0838283
0.0838283
0.0838667
0.0839434
0.0840585
0.084212
0.0844039
0.0846342
0.0849028
0.0852097
0.085555
0.0859385
0.0863602
0.08682
0.0873174
0.0878523
0.0884247
0.0890345
0.0896813
0.0903649
0.091085
0.0918412
0.0926331
0.0934599
0.0943218
0.0952361
0.0984968
0.0975498
0.0966567
0.0958
0.0949796
0.094196
0.0934499
0.0927415
0.0920712
0.0914394
0.0908462
0.0902918
0.0897762
0.0892998
0.0888627
0.0884652
0.0881074
0.0877893
0.0875109
0.0872723
0.0870734
0.0869143
0.086795
0.0867155
0.0866757
0.0866757
0.0867155
0.086795
0.0869143
0.0870734
0.0872723
0.0875109
0.0877893
0.0881074
0.0884652
0.0888627
0.0892998
0.0897762
0.0902918
0.0908462
0.0914394
0.0920712
0.0927415
0.0934499
0.094196
0.0949796
0.0958
0.0966567
0.0975498
0.0984968
0.101929
0.100948
0.100022
0.0991338
0.0982834
0.0974711
0.0966976
0.0959632
0.0952682
0.0946131
0.093998
0.0934232
0.0928887
0.0923946
0.0919414
0.0915292
0.0911582
0.0908284
0.0905397
0.0902923
0.0900861
0.0899211
0.0897974
0.0897149
0.0896736
0.0896736
0.0897149
0.0897974
0.0899211
0.0900861
0.0902923
0.0905397
0.0908284
0.0911582
0.0915292
0.0919414
0.0923946
0.0928886
0.0934232
0.093998
0.0946131
0.0952682
0.0959632
0.0966976
0.0974711
0.0982834
0.0991338
0.100022
0.100948
0.101929
0.105545
0.104527
0.103567
0.102646
0.101764
0.100922
0.10012
0.0993579
0.0986371
0.0979574
0.0973194
0.0967231
0.0961685
0.095656
0.0951858
0.0947582
0.0943733
0.0940311
0.0937316
0.0934749
0.0932609
0.0930898
0.0929614
0.0928758
0.092833
0.092833
0.0928758
0.0929614
0.0930898
0.0932609
0.0934749
0.0937316
0.0940311
0.0943733
0.0947582
0.0951858
0.0956559
0.0961685
0.0967231
0.0973194
0.0979574
0.0986371
0.0993579
0.10012
0.100922
0.101764
0.102646
0.103567
0.104527
0.105545
0.109357
0.108302
0.107306
0.106351
0.105435
0.104561
0.103729
0.102938
0.10219
0.101485
0.100823
0.100204
0.0996281
0.0990961
0.0986081
0.0981643
0.0977647
0.0974095
0.0970986
0.0968322
0.0966101
0.0964324
0.0962991
0.0962103
0.0961659
0.0961659
0.0962103
0.0962991
0.0964324
0.0966101
0.0968322
0.0970986
0.0974095
0.0977647
0.0981643
0.0986081
0.0990961
0.0996281
0.100204
0.100823
0.101485
0.10219
0.102938
0.103729
0.104561
0.105435
0.106351
0.107306
0.108302
0.109357
0.113381
0.112286
0.111252
0.110261
0.109311
0.108403
0.107539
0.106718
0.105941
0.105209
0.104521
0.103879
0.103281
0.102728
0.102222
0.101761
0.101346
0.100977
0.100654
0.100377
0.100147
0.0999621
0.0998237
0.0997314
0.0996853
0.0996853
0.0997314
0.0998237
0.0999621
0.100147
0.100377
0.100654
0.100977
0.101346
0.101761
0.102222
0.102728
0.103281
0.103879
0.104521
0.105209
0.105941
0.106718
0.107539
0.108403
0.109311
0.110261
0.111252
0.112286
0.113381
0.117631
0.116495
0.115421
0.114391
0.113405
0.112463
0.111565
0.110713
0.109906
0.109145
0.10843
0.107763
0.107142
0.106567
0.106041
0.105562
0.105131
0.104748
0.104412
0.104124
0.103885
0.103693
0.103549
0.103453
0.103405
0.103405
0.103453
0.103549
0.103693
0.103885
0.104124
0.104412
0.104748
0.105131
0.105562
0.106041
0.106567
0.107142
0.107763
0.10843
0.109145
0.109906
0.110713
0.111565
0.112463
0.113405
0.114391
0.115421
0.116495
0.117631
0.122124
0.120944
0.119829
0.11876
0.117735
0.116756
0.115823
0.114937
0.114099
0.113308
0.112565
0.111871
0.111226
0.110629
0.110082
0.109584
0.109136
0.108737
0.108388
0.108089
0.10784
0.107641
0.107491
0.107392
0.107342
0.107342
0.107392
0.107491
0.107641
0.10784
0.108089
0.108388
0.108737
0.109136
0.109584
0.110082
0.110629
0.111226
0.111871
0.112565
0.113308
0.114099
0.114937
0.115823
0.116756
0.117735
0.11876
0.119829
0.120944
0.122124
0.126879
0.125653
0.124495
0.123383
0.122318
0.121301
0.120331
0.11941
0.118539
0.117716
0.116944
0.116222
0.115551
0.11493
0.114361
0.113843
0.113377
0.112963
0.1126
0.112289
0.11203
0.111822
0.111667
0.111563
0.111511
0.111511
0.111563
0.111667
0.111822
0.11203
0.112289
0.1126
0.112963
0.113377
0.113843
0.114361
0.11493
0.115551
0.116222
0.116944
0.117716
0.118539
0.11941
0.120331
0.121301
0.122318
0.123383
0.124495
0.125653
0.126879
0.131915
0.130641
0.129437
0.128282
0.127175
0.126117
0.125109
0.124151
0.123244
0.122389
0.121585
0.120835
0.120136
0.11949
0.118898
0.118359
0.117874
0.117443
0.117065
0.116742
0.116472
0.116256
0.116094
0.115986
0.115932
0.115932
0.115986
0.116094
0.116256
0.116472
0.116742
0.117065
0.117443
0.117874
0.118359
0.118898
0.11949
0.120136
0.120835
0.121585
0.122389
0.123244
0.124151
0.125109
0.126117
0.127175
0.128282
0.129437
0.130641
0.131915
0.137253
0.135929
0.134677
0.133476
0.132325
0.131225
0.130176
0.129179
0.128236
0.127346
0.12651
0.125729
0.125002
0.124329
0.123713
0.123152
0.122647
0.122198
0.121805
0.121468
0.121187
0.120963
0.120794
0.120682
0.120626
0.120626
0.120682
0.120794
0.120963
0.121187
0.121468
0.121805
0.122198
0.122647
0.123152
0.123713
0.124329
0.125002
0.125729
0.12651
0.127346
0.128236
0.129179
0.130176
0.131225
0.132325
0.133476
0.134677
0.135929
0.137253
0.142916
0.14154
0.140238
0.138989
0.137792
0.136647
0.135556
0.134519
0.133537
0.13261
0.13174
0.130927
0.13017
0.12947
0.128828
0.128244
0.127718
0.12725
0.126841
0.12649
0.126198
0.125964
0.125788
0.125671
0.125613
0.125613
0.125671
0.125788
0.125964
0.126198
0.12649
0.126841
0.12725
0.127718
0.128244
0.128828
0.12947
0.13017
0.130927
0.13174
0.13261
0.133537
0.134519
0.135556
0.136647
0.137792
0.138989
0.140238
0.14154
0.142916
0.148928
0.147499
0.146144
0.144846
0.1436
0.142408
0.141273
0.140193
0.139171
0.138206
0.1373
0.136453
0.135665
0.134936
0.134267
0.133659
0.133111
0.132624
0.132197
0.131832
0.131527
0.131283
0.1311
0.130978
0.130917
0.130917
0.130978
0.1311
0.131283
0.131527
0.131832
0.132197
0.132624
0.133111
0.133659
0.134267
0.134936
0.135665
0.136453
0.1373
0.138206
0.139171
0.140193
0.141273
0.142408
0.1436
0.144846
0.146144
0.147499
0.148928
0.155317
0.153831
0.152423
0.151072
0.149775
0.148535
0.147353
0.14623
0.145165
0.144161
0.143217
0.142334
0.141513
0.140754
0.140057
0.139423
0.138852
0.138345
0.1379
0.137519
0.137202
0.136947
0.136757
0.13663
0.136566
0.136566
0.13663
0.136757
0.136947
0.137202
0.137519
0.1379
0.138345
0.138852
0.139423
0.140057
0.140754
0.141513
0.142334
0.143217
0.144161
0.145165
0.14623
0.147353
0.148535
0.149775
0.151072
0.152423
0.153831
0.155317
0.162111
0.160566
0.159101
0.157696
0.156347
0.155056
0.153826
0.152656
0.151548
0.150501
0.149518
0.148599
0.147743
0.146952
0.146226
0.145566
0.144971
0.144442
0.143978
0.143581
0.14325
0.142985
0.142786
0.142654
0.142587
0.142587
0.142654
0.142786
0.142985
0.14325
0.143581
0.143978
0.144442
0.144971
0.145566
0.146226
0.146952
0.147743
0.148599
0.149518
0.150501
0.151548
0.152656
0.153826
0.155056
0.156347
0.157696
0.159101
0.160566
0.162111
0.169339
0.167733
0.16621
0.164749
0.163345
0.162002
0.160722
0.159504
0.158349
0.15726
0.156236
0.155278
0.154386
0.153562
0.152805
0.152117
0.151497
0.150945
0.150462
0.150048
0.149703
0.149426
0.149219
0.149081
0.149012
0.149012
0.149081
0.149219
0.149426
0.149703
0.150048
0.150462
0.150945
0.151497
0.152117
0.152805
0.153562
0.154386
0.155278
0.156236
0.15726
0.158349
0.159504
0.160722
0.162002
0.163345
0.164749
0.16621
0.167733
0.169339
0.177033
0.175365
0.173782
0.172262
0.170802
0.169406
0.168073
0.166805
0.165603
0.164468
0.163402
0.162404
0.161475
0.160616
0.159827
0.15911
0.158464
0.157889
0.157385
0.156953
0.156593
0.156305
0.156089
0.155945
0.155873
0.155873
0.155945
0.156089
0.156305
0.156593
0.156953
0.157385
0.157889
0.158464
0.15911
0.159827
0.160616
0.161475
0.162404
0.163402
0.164468
0.165603
0.166805
0.168073
0.169406
0.170802
0.172262
0.173782
0.175365
0.177033
0.185227
0.183495
0.181851
0.180272
0.178753
0.177301
0.175914
0.174595
0.173344
0.172162
0.171052
0.170013
0.169045
0.16815
0.167329
0.166581
0.165907
0.165308
0.164783
0.164333
0.163957
0.163657
0.163432
0.163281
0.163206
0.163206
0.163281
0.163432
0.163657
0.163957
0.164333
0.164783
0.165308
0.165907
0.166581
0.167329
0.16815
0.169045
0.170013
0.171052
0.172162
0.173344
0.174595
0.175914
0.177301
0.178753
0.180272
0.181851
0.183495
0.185227
0.193957
0.192159
0.190452
0.188812
0.187234
0.185724
0.184283
0.182911
0.181609
0.18038
0.179224
0.178142
0.177135
0.176202
0.175347
0.174568
0.173866
0.173241
0.172694
0.172225
0.171834
0.171521
0.171286
0.171129
0.171051
0.171051
0.171129
0.171286
0.171521
0.171834
0.172225
0.172694
0.173241
0.173866
0.174568
0.175347
0.176202
0.177135
0.178142
0.179224
0.18038
0.181609
0.182911
0.184283
0.185724
0.187234
0.188812
0.190452
0.192159
0.193957
0.203257
0.201393
0.199623
0.197921
0.196283
0.194715
0.193217
0.191791
0.190438
0.189159
0.187957
0.186831
0.185783
0.184813
0.183922
0.183111
0.18238
0.181729
0.18116
0.180671
0.180263
0.179937
0.179692
0.179529
0.179447
0.179447
0.179529
0.179692
0.179937
0.180263
0.180671
0.18116
0.181729
0.18238
0.183111
0.183922
0.184813
0.185783
0.186831
0.187957
0.189159
0.190438
0.191791
0.193217
0.194715
0.196283
0.197921
0.199623
0.201393
0.203257
0.213164
0.211235
0.2094
0.207636
0.205938
0.204311
0.202756
0.201275
0.19987
0.198542
0.197292
0.196122
0.195032
0.194023
0.193096
0.192253
0.191492
0.190815
0.190222
0.189713
0.189289
0.188949
0.188694
0.188524
0.188439
0.188439
0.188524
0.188694
0.188949
0.189289
0.189713
0.190222
0.190815
0.191492
0.192253
0.193096
0.194023
0.195032
0.196122
0.197292
0.198542
0.19987
0.201275
0.202756
0.204311
0.205938
0.207636
0.2094
0.211235
0.213164
0.223715
0.221721
0.219823
0.217997
0.216238
0.214552
0.212941
0.211405
0.209948
0.208569
0.207272
0.206058
0.204925
0.203877
0.202914
0.202037
0.201247
0.200543
0.199926
0.199397
0.198956
0.198602
0.198337
0.19816
0.198072
0.198072
0.19816
0.198337
0.198602
0.198956
0.199397
0.199926
0.200543
0.201247
0.202037
0.202914
0.203877
0.204925
0.206058
0.207272
0.208569
0.209948
0.211405
0.212941
0.214552
0.216238
0.217997
0.219823
0.221721
0.223715
0.234951
0.232892
0.230931
0.229043
0.227224
0.22548
0.223813
0.222223
0.220713
0.219285
0.21794
0.216681
0.215506
0.214419
0.21342
0.21251
0.211689
0.210958
0.210318
0.209768
0.20931
0.208943
0.208667
0.208483
0.208391
0.208391
0.208483
0.208667
0.208943
0.20931
0.209768
0.210318
0.210958
0.211689
0.21251
0.21342
0.214419
0.215506
0.216681
0.21794
0.219285
0.220713
0.222223
0.223813
0.22548
0.227224
0.229043
0.230931
0.232892
0.234951
0.246932
0.244803
0.242774
0.24082
0.238942
0.237141
0.235417
0.233773
0.232211
0.230733
0.229341
0.228037
0.22682
0.225694
0.224659
0.223716
0.222866
0.222108
0.221444
0.220874
0.220399
0.220018