/*--------------------------------*- C++ -*----------------------------------*\
  =========                 |
  \\      /  F ield         | OpenFOAM: The Open Source CFD Toolbox
   \\    /   O peration     | Website:  https://openfoam.org
    \\  /    A nd           | Version:  7
     \\/     M anipulation  |
\*---------------------------------------------------------------------------*/
FoamFile
{
    version     2.0;
    format      ascii;
    class       surfaceScalarField;
    location    "24000";
    object      phi;
}
// * * * * * * * * * * * * * * * * * * * * * * * * * * * * * * * * * * * * * //

dimensions      [0 3 -1 0 0 0 0];

internalField   nonuniform List<scalar> 
9414
(
1.8594e-23
-1.19293e-24
2.05099e-23
-1.32514e-24
2.22306e-23
-1.38683e-24
2.37136e-23
-1.34199e-24
-8.89971e-25
-1.40563e-24
5.49314e-24
-1.38046e-24
6.45614e-24
-1.39898e-24
4.96276e-24
-1.48442e-24
1.44123e-23
-1.49437e-24
-1.42965e-24
-9.70081e-24
2.63505e-24
8.16879e-24
3.03215e-24
1.01541e-23
2.2929e-24
1.0711e-23
2.07899e-24
8.65139e-24
2.18731e-24
-1.14244e-23
1.84678e-24
-3.08634e-23
2.45289e-24
1.21426e-24
2.77545e-24
1.82664e-23
2.67485e-24
5.44786e-23
2.77628e-24
5.34693e-23
2.43275e-24
4.76074e-23
1.96704e-24
3.4945e-23
1.42165e-24
4.41874e-23
6.36174e-25
5.7591e-23
4.93137e-25
5.5363e-23
2.32227e-25
5.05009e-23
3.9715e-25
4.32708e-23
8.91399e-25
6.55094e-23
5.35684e-25
8.77802e-23
7.77231e-25
9.05267e-23
6.73043e-25
9.25257e-23
3.29739e-25
5.13006e-23
1.4054e-25
4.34199e-23
3.47168e-25
3.72527e-23
6.63276e-25
7.73591e-23
9.98951e-25
1.04127e-22
7.40107e-25
1.01402e-22
3.76003e-25
8.26575e-23
2.64626e-25
9.37073e-23
3.89095e-25
1.03666e-22
3.05736e-25
1.00585e-22
2.5272e-25
8.4847e-23
2.20298e-25
6.90191e-23
3.14313e-26
6.71342e-23
-7.31566e-26
6.86304e-23
3.47151e-26
6.66716e-23
-7.2562e-26
6.43083e-23
-1.32891e-25
6.16235e-23
-1.74881e-25
5.85022e-23
-2.68012e-25
4.89565e-23
-5.69744e-25
3.88203e-23
-4.16796e-25
4.05028e-23
-4.88067e-25
3.11785e-23
-5.83783e-25
3.72834e-25
-6.2893e-25
-1.1771e-24
-5.20481e-25
3.67026e-24
-3.56365e-25
2.37312e-23
-4.30077e-25
1.81194e-23
-5.01454e-25
5.66133e-24
-4.98809e-25
-1.02916e-23
-5.16178e-25
-8.76514e-24
-3.45687e-25
-6.77874e-24
-3.32591e-25
1.22216e-23
-3.62214e-25
-4.11707e-25
-3.22471e-23
-6.89529e-25
-7.16126e-23
-1.57976e-24
-6.62254e-23
-1.08706e-24
-6.44253e-23
-1.26026e-24
-6.17469e-23
-1.52411e-24
-8.98654e-23
-1.72453e-24
-1.04596e-22
-2.32095e-24
-9.7675e-23
-2.9151e-24
-9.16872e-23
-2.70659e-24
-1.04282e-22
-3.7953e-24
-9.73791e-23
-4.6417e-24
-8.91555e-23
-5.53304e-24
-8.19641e-23
-6.44532e-24
-5.78561e-23
-6.7426e-24
-5.17364e-23
-6.24758e-24
-4.65676e-23
-6.01823e-24
-5.9863e-23
-5.65818e-24
-9.93418e-23
-5.2287e-24
-7.84441e-23
-4.38433e-24
-7.49797e-23
-4.05277e-24
-8.87973e-23
-3.2918e-24
-7.09372e-23
-2.68983e-24
-7.08873e-23
-1.81728e-24
-7.06471e-23
-1.02897e-24
-5.24606e-23
-2.73031e-25
-5.11902e-23
5.57443e-26
-4.95806e-23
3.84837e-25
-6.49877e-24
7.3456e-25
-7.57545e-24
6.9884e-25
-8.26845e-24
7.3976e-25
7.03802e-24
1.10523e-24
5.44901e-24
9.38761e-25
-1.01489e-23
9.18041e-25
1.35382e-23
8.42145e-25
1.08073e-23
7.92396e-25
1.99255e-23
8.23565e-25
1.66037e-23
7.65701e-25
-4.82573e-24
7.74719e-25
-8.8649e-25
7.31719e-25
1.60623e-24
5.61867e-25
3.11724e-25
5.29391e-25
6.42103e-25
4.50095e-25
6.47117e-24
1.99736e-25
1.02907e-23
1.61917e-25
2.65204e-23
1.5641e-25
2.18868e-23
2.19184e-25
1.2832e-23
1.77879e-25
1.31931e-23
1.16882e-25
1.81064e-23
1.95883e-25
8.41917e-24
3.15966e-26
4.25144e-24
6.44967e-26
-1.10006e-23
1.16181e-25
-1.10385e-23
2.40381e-25
-1.22316e-23
3.96176e-25
3.88286e-25
-8.50549e-23
-1.81374e-24
-7.15795e-23
-6.52763e-25
-7.39055e-23
-6.19555e-25
-4.3307e-23
-5.97236e-25
-8.76294e-24
-5.15497e-25
-2.05929e-24
-1.13181e-24
4.09978e-24
-1.43633e-24
2.3559e-24
-1.91779e-24
-1.85546e-23
-2.54695e-24
-2.0291e-23
-2.98148e-24
-2.13331e-23
-3.83618e-24
-2.24438e-23
-3.84084e-24
1.94719e-23
-3.62713e-24
7.43304e-23
-3.2534e-24
5.47117e-23
-3.4724e-24
5.2426e-23
-3.76237e-24
4.64909e-23
-3.39615e-24
4.01205e-23
-2.74911e-24
3.5193e-23
-2.52909e-24
6.15239e-23
-1.54904e-24
5.90682e-23
-1.29366e-24
7.22448e-23
-4.67624e-25
6.92409e-23
-4.45766e-25
4.89309e-23
-1.53645e-25
2.70105e-23
6.21839e-25
8.65019e-24
1.03586e-24
2.20145e-23
1.43963e-24
1.83947e-23
1.77679e-24
3.01374e-23
2.11145e-24
4.36166e-23
2.21177e-24
1.26267e-23
2.32768e-24
3.86389e-23
2.34865e-24
2.19706e-23
2.45056e-24
4.40476e-23
2.68034e-24
4.05392e-23
2.63052e-24
4.40351e-23
2.54594e-24
2.7811e-23
2.54128e-24
2.43496e-23
2.63851e-24
2.14009e-23
2.57469e-24
1.92335e-23
2.62589e-24
1.679e-23
2.76911e-24
1.32164e-23
2.66261e-24
1.07332e-23
2.64748e-24
1.20563e-23
2.6871e-24
3.15194e-23
2.72597e-24
2.89159e-23
2.63436e-24
3.15556e-23
2.72477e-24
2.47344e-23
2.58392e-24
1.86125e-23
2.44697e-24
1.45136e-23
2.46817e-24
2.00191e-23
2.42247e-24
1.6704e-23
2.32584e-24
1.91356e-23
2.26003e-24
2.2086e-23
2.23334e-24
2.22651e-24
-3.59926e-23
4.34414e-25
-3.62729e-23
2.30985e-25
-4.42137e-23
6.39555e-25
-2.81563e-23
1.14097e-24
-3.02074e-23
1.49956e-24
1.28875e-23
2.05231e-24
4.09435e-23
2.10117e-24
2.04665e-23
1.65928e-24
8.58823e-24
1.30641e-24
2.61309e-24
4.09471e-25
1.40662e-23
2.22735e-25
3.98179e-23
1.63132e-25
3.83723e-23
-6.17674e-25
3.59513e-23
-1.71218e-24
1.69326e-23
-2.42302e-24
1.37084e-23
-2.66736e-24
-2.08009e-23
-2.64842e-24
-2.10807e-23
-2.88648e-24
-2.24016e-23
-2.52117e-24
-3.09188e-23
-2.4674e-24
-3.87565e-23
-2.12948e-24
-5.64593e-23
-2.07651e-24
-5.97289e-23
-1.56291e-24
-4.62353e-23
-1.4665e-24
-5.23813e-23
-1.49107e-24
-5.40387e-23
-1.38673e-24
-3.62805e-23
-1.0634e-24
-3.55291e-23
-1.29194e-24
-1.71761e-23
-1.48284e-24
-4.61893e-23
-1.4569e-24
-7.44916e-23
-1.28818e-24
-5.48384e-23
-1.01971e-24
-3.62259e-23
-7.7509e-25
-5.4533e-23
-1.01206e-24
-4.98833e-23
-7.12921e-25
-3.34348e-23
-3.97306e-25
-2.43836e-23
-4.31616e-25
-5.02572e-23
-4.67117e-25
-5.96824e-23
-3.62762e-25
-6.22263e-23
-3.20357e-25
-5.43963e-23
-2.43905e-25
-4.15092e-23
-1.78038e-25
-2.7873e-23
-1.55157e-25
-1.40775e-23
-1.9468e-25
-9.92388e-24
-4.05365e-25
-1.56401e-23
-5.06511e-25
-2.5548e-23
-6.86025e-25
-3.71425e-23
-6.78554e-25
-3.42017e-23
-4.80813e-25
-3.90281e-23
-4.97016e-25
-3.5147e-23
-4.43286e-25
-3.06262e-23
-3.2286e-25
-2.34479e-23
-2.2496e-25
-2.01513e-23
-1.26585e-25
-1.84879e-25
-5.29211e-23
-1.55732e-24
-5.37729e-23
-9.55262e-25
-5.2196e-23
-9.54414e-25
-5.127e-23
-7.79774e-25
-5.20979e-23
-7.44428e-25
-5.87848e-23
-7.9413e-25
-6.09089e-23
-7.95244e-25
-7.49004e-23
-7.7879e-25
-5.63481e-23
-1.40029e-24
-2.95906e-23
-9.67617e-25
-2.43806e-23
-8.00387e-25
-3.53997e-23
-1.42676e-24
-2.95936e-23
-1.35715e-24
-3.38124e-23
-1.54893e-24
-1.0647e-24
-2.05264e-24
-3.41382e-24
-2.52955e-24
1.04778e-23
-3.32987e-24
8.32119e-24
-3.25525e-24
7.64597e-24
-3.07466e-24
4.04758e-23
-2.75104e-24
9.61754e-24
-2.5649e-24
2.47027e-23
-2.48067e-24
2.41189e-23
-2.26697e-24
8.67163e-24
-1.79953e-24
2.43766e-23
-1.6719e-24
-7.61417e-24
-1.32373e-24
-2.77318e-23
-1.18256e-24
-2.74823e-23
-6.2102e-25
-2.66235e-23
-1.6612e-25
2.71122e-24
-4.09608e-26
4.80851e-24
-7.82004e-26
2.23837e-23
1.25325e-25
1.10182e-23
1.73369e-25
3.50763e-23
5.80774e-25
3.44575e-23
4.4893e-25
2.18185e-23
2.89953e-25
2.12475e-23
2.28372e-25
3.28833e-23
1.35616e-25
3.59964e-23
1.45651e-25
1.92069e-23
1.54393e-25
1.9159e-23
-4.91652e-26
1.30642e-23
3.95862e-26
8.58238e-24
-3.34501e-26
-1.54291e-23
-5.30996e-26
-1.54157e-23
-6.10774e-26
-1.96801e-23
-1.73232e-25
-9.04867e-24
-1.24587e-25
-3.73871e-24
-1.37131e-25
-1.93557e-24
-3.63064e-25
-2.77599e-25
-3.82457e-25
9.0849e-25
-4.44184e-25
3.68386e-24
-5.68742e-25
2.48216e-24
-6.1265e-25
-5.85048e-24
-6.63501e-25
-6.53714e-25
-1.03966e-23
1.69294e-24
2.74072e-24
8.72148e-25
2.00508e-23
3.9005e-25
-1.07347e-23
2.44582e-25
-1.04618e-23
-2.09617e-26
-1.38197e-23
4.47476e-27
-2.30268e-23
1.81885e-25
-2.49526e-23
8.50067e-25
1.86943e-24
1.19524e-24
2.61599e-23
1.1431e-24
1.23345e-23
1.48826e-24
1.63135e-23
1.21039e-24
-1.95576e-23
1.19059e-25
-5.48898e-23
-7.51147e-25
-6.05626e-23
-1.14899e-24
-6.6437e-23
-1.53351e-24
-5.32319e-23
-1.65675e-24
-5.40942e-23
-1.79183e-24
-5.50276e-23
-1.62476e-24
-7.1559e-23
-1.66597e-24
-6.94839e-23
-1.21407e-24
-6.67211e-23
-9.29876e-25
-6.6048e-23
-4.47268e-25
-6.5714e-23
-1.09541e-26
-5.0726e-23
2.22039e-25
-3.5067e-23
6.73807e-25
-5.20883e-23
9.72658e-25
-2.61019e-23
1.24526e-24
-5.88687e-23
1.00819e-24
-3.06841e-23
1.07767e-24
-1.88155e-24
1.05857e-24
-1.87209e-24
1.10168e-24
-3.69006e-24
9.46552e-25
-3.15758e-23
7.82913e-25
-3.32883e-23
8.9636e-25
-4.55018e-23
6.20018e-25
-3.39241e-23
3.75251e-25
-2.78251e-23
1.21344e-25
-2.8263e-23
4.90883e-26
-2.89698e-23
7.42558e-27
-2.93667e-23
-4.48121e-26
-3.85905e-23
-2.57639e-25
-2.69842e-23
-9.90586e-26
-3.65833e-23
-2.93469e-25
-4.56688e-23
-3.04213e-25
-3.83024e-23
-2.66883e-25
-5.79367e-23
-4.54863e-25
-4.5248e-23
-4.26452e-25
-4.69294e-23
-4.40123e-25
-3.59667e-23
-4.34224e-25
-4.43654e-23
-4.67653e-25
-2.81392e-23
-4.11737e-25
-2.78671e-23
-4.21911e-25
-2.91139e-23
-3.88259e-25
-3.94589e-23
-2.59329e-25
-3.01889e-23
-1.35177e-25
-1.45492e-23
2.55853e-26
-1.7156e-23
1.23056e-25
2.01353e-25
-1.11648e-22
-1.60743e-24
-9.14784e-23
-1.47797e-24
-7.0762e-23
-1.41188e-24
-6.77755e-23
-1.53211e-24
-6.58741e-23
-1.32552e-24
-4.60487e-23
-1.32235e-24
-2.76114e-23
-1.3719e-24
-5.80395e-23
-1.45474e-24
-5.63038e-23
-1.46447e-24
-3.61324e-23
-7.77486e-25
-3.38915e-23
-8.86511e-25
-3.38936e-23
-9.62077e-25
-3.55016e-23
-1.11431e-24
-3.72621e-23
-1.54759e-24
-3.96585e-23
-2.44502e-24
-4.1267e-23
-2.31672e-24
-2.52529e-23
-2.22794e-24
-5.94029e-24
-2.19595e-24
-4.81338e-24
-1.86675e-24
-2.90441e-24
-1.66673e-24
1.50847e-23
-1.65237e-24
4.12023e-24
-1.40594e-24
1.17002e-23
-1.34964e-24
6.54167e-24
-8.94364e-25
1.23026e-23
-6.16006e-25
2.16314e-23
-3.12463e-25
9.1693e-24
-9.22891e-26
-2.99519e-23
-4.91438e-25
-2.63781e-23
-1.80974e-25
-2.56119e-23
6.6144e-26
-1.1478e-23
1.39552e-25
-1.46649e-23
-5.23319e-26
-1.66732e-24
-3.9705e-25
-2.76229e-23
-4.65837e-25
-4.01614e-23
-6.83258e-25
-6.42753e-23
-8.52786e-25
-6.32625e-23
-7.61102e-25
-3.60233e-23
-8.13428e-25
-5.2129e-23
-8.52996e-25
-4.38024e-23
-9.01167e-25
-2.88093e-23
-9.99924e-25
-3.65471e-23
-1.08813e-24
-2.81097e-23
-1.16851e-24
-4.29272e-23
-1.25623e-24
-5.24837e-23
-1.27486e-24
-5.20088e-23
-1.17037e-24
-4.23052e-23
-1.11469e-24
-4.31118e-23
-1.04878e-24
-4.70732e-23
-1.17014e-24
-3.00825e-23
-1.12026e-24
-2.61513e-23
-1.09727e-24
-2.68613e-23
-1.16769e-24
-1.20642e-23
-1.0711e-24
1.13743e-23
-1.07159e-24
1.15472e-23
-1.17806e-24
1.63531e-23
-1.19853e-24
1.39272e-23
-1.25313e-24
1.40133e-23
-1.19644e-24
6.5371e-24
-1.21553e-24
-1.20322e-24
-4.36752e-23
-2.63988e-24
-3.99755e-23
-2.53766e-24
-5.60808e-23
-2.24519e-24
-5.74201e-23
-2.41491e-24
-7.15313e-23
-3.26224e-24
-7.13227e-23
-2.80169e-24
-6.848e-23
-3.14177e-24
-8.45165e-23
-3.16241e-24
-9.98636e-23
-3.23088e-24
-8.88247e-23
-3.32757e-24
-6.17135e-23
-3.59465e-24
-5.55624e-23
-4.27229e-24
-8.21346e-23
-5.05092e-24
-9.69732e-23
-5.48662e-24
-1.11515e-22
-5.4914e-24
-1.09023e-22
-5.61035e-24
-1.06731e-22
-5.62225e-24
-1.02855e-22
-5.93098e-24
-1.17481e-22
-5.18576e-24
-1.43499e-22
-4.97406e-24
-1.39936e-22
-4.36882e-24
-1.36359e-22
-3.98427e-24
-9.00484e-23
-3.76725e-24
-8.84735e-23
-3.98265e-24
-8.50584e-23
-3.96817e-24
-1.10036e-22
-4.08686e-24
-1.4884e-22
-4.10687e-24
-1.44879e-22
-3.57921e-24
-1.24639e-22
-3.31172e-24
-1.19001e-22
-3.4361e-24
-1.44712e-22
-3.29856e-24
-1.40057e-22
-3.01673e-24
-1.22024e-22
-2.68859e-24
-1.0607e-22
-2.37876e-24
-1.04285e-22
-2.5006e-24
-1.02538e-22
-2.42399e-24
-9.0169e-23
-1.9873e-24
-7.72785e-23
-1.99596e-24
-7.54039e-23
-2.14495e-24
-7.31122e-23
-2.33452e-24
-6.75416e-23
-2.03516e-24
-6.69856e-23
-2.27802e-24
-6.70465e-23
-2.30406e-24
-6.71612e-23
-2.15298e-24
-4.59209e-23
-2.17348e-24
-5.63155e-23
-2.26153e-24
-6.2895e-23
-2.28534e-24
-7.48325e-23
-2.29479e-24
-6.50038e-23
-2.17882e-24
-6.93995e-23
-2.13722e-24
-6.50963e-23
-2.03263e-24
-6.55095e-23
-1.94081e-24
-6.4191e-23
-1.92757e-24
-5.32358e-23
-1.84832e-24
-5.2773e-23
-1.69816e-24
-5.06948e-23
-1.69143e-24
-3.96502e-23
-1.6798e-24
-4.29104e-23
-1.69186e-24
-4.21192e-23
-1.65998e-24
-4.24197e-23
-1.63551e-24
-3.29355e-23
-1.56127e-24
-2.04626e-23
-1.49522e-24
-7.695e-24
-1.47494e-24
-8.34028e-24
-1.43795e-24
-1.6073e-23
-1.32537e-24
-7.11287e-24
-1.29215e-24
-8.00822e-24
-1.29123e-24
6.35523e-24
-1.25411e-24
5.22328e-24
-1.24235e-24
1.07297e-23
-1.21712e-24
7.90127e-24
-1.20532e-24
3.66435e-24
-1.18255e-24
1.10592e-23
-1.20836e-24
6.11772e-24
-1.20171e-24
1.32282e-23
-1.20589e-24
1.32886e-23
-1.20376e-24
9.21035e-24
-1.21945e-24
6.47344e-24
-1.23186e-24
8.12456e-24
-1.25366e-24
6.2837e-24
-1.28377e-24
6.16727e-24
-1.3163e-24
7.3941e-24
-1.34294e-24
5.57398e-24
-1.3706e-24
5.27727e-24
-1.40051e-24
5.08183e-24
-1.41567e-24
4.74371e-24
-1.43771e-24
2.54643e-24
-1.43758e-24
4.65084e-24
-1.41168e-24
3.34392e-24
-1.36505e-24
1.30067e-24
-1.28684e-24
-1.52395e-25
-1.17579e-24
-5.27363e-26
-1.03165e-24
-5.39947e-25
-8.43088e-25
-1.80491e-25
-6.11786e-25
-2.02954e-25
-4.62682e-23
-1.87577e-24
-3.86802e-23
-1.69293e-24
-3.64703e-23
-1.40039e-24
-3.50561e-23
-1.71203e-24
-6.23661e-24
-8.28849e-25
-5.42357e-24
-9.75096e-25
-4.13565e-24
-6.54231e-25
-1.91953e-24
-9.54475e-25
-5.82113e-24
-9.87513e-25
-8.02466e-25
-8.95685e-25
8.55254e-25
-1.4577e-24
1.75652e-23
-2.12904e-24
1.59809e-23
-2.38168e-24
1.25307e-23
-3.26762e-24
-7.98337e-24
-3.83965e-24
-9.23483e-24
-4.5006e-24
-7.05966e-24
-5.3728e-24
1.01226e-23
-5.67212e-24
-4.83664e-24
-6.71738e-24
-3.27703e-23
-7.20955e-24
-2.88214e-23
-7.74848e-24
-7.07302e-23
-7.85879e-24
-6.71003e-23
-7.94507e-24
-6.25631e-23
-8.00295e-24
-5.96863e-23
-7.82455e-24
-5.90656e-23
-7.83795e-24
-5.82771e-23
-7.6946e-24
-7.72363e-23
-7.72138e-24
-9.17862e-23
-7.50286e-24
-9.04725e-23
-7.04883e-24
-7.16387e-23
-6.63216e-24
-8.26086e-23
-6.66583e-24
-7.7628e-23
-6.44561e-24
-1.12693e-22
-6.15689e-24
-9.42537e-23
-5.83461e-24
-1.00466e-22
-5.35673e-24
-1.16866e-22
-5.35354e-24
-1.26838e-22
-5.01724e-24
-1.24821e-22
-4.80671e-24
-1.21524e-22
-4.37985e-24
-1.10494e-22
-4.1882e-24
-9.99372e-23
-4.27548e-24
-9.04996e-23
-3.93793e-24
-7.38281e-23
-4.02416e-24
-6.97532e-23
-3.83005e-24
-7.79898e-23
-3.72666e-24
-7.1018e-23
-3.72446e-24
-6.87511e-23
-3.5531e-24
-6.75455e-23
-3.30795e-24
-4.07736e-23
-3.08562e-24
-4.30972e-23
-2.97139e-24
-4.23074e-23
-2.78786e-24
-3.19053e-23
-2.54528e-24
-4.37056e-23
-2.38499e-24
-4.54042e-23
-2.29745e-24
-3.74792e-23
-2.20082e-24
-4.75413e-23
-2.08596e-24
-3.13198e-23
-1.95682e-24
-3.32261e-23
-1.98095e-24
-2.66813e-23
-1.85066e-24
-1.5715e-23
-1.77849e-24
-1.19838e-23
-1.75916e-24
-3.45334e-24
-1.71615e-24
1.49048e-24
-1.63104e-24
-1.50825e-23
-1.61059e-24
-1.49689e-23
-1.54708e-24
-1.45094e-23
-1.41895e-24
-1.45249e-23
-1.37386e-24
-6.50965e-24
-1.26804e-24
-8.7887e-24
-1.26553e-24
-1.1433e-23
-1.22042e-24
-1.69117e-23
-1.20732e-24
-1.27612e-23
-1.16318e-24
-7.78474e-24
-1.12185e-24
-4.08101e-24
-1.10286e-24
-4.20615e-24
-1.12379e-24
-2.83159e-24
-1.13077e-24
-2.84862e-25
-1.15363e-24
-6.14274e-24
-1.16205e-24
-2.76831e-24
-1.16828e-24
-6.14123e-24
-1.20003e-24
-2.57088e-24
-1.21321e-24
-2.70803e-24
-1.23593e-24
-2.70652e-24
-1.24547e-24
-5.07548e-24
-1.26125e-24
-3.82853e-24
-1.25393e-24
-2.17765e-24
-1.24483e-24
-1.57297e-24
-1.21247e-24
-3.26413e-25
-1.15073e-24
-5.03827e-25
-1.06905e-24
2.16586e-25
-9.52713e-25
1.3871e-24
-8.02195e-25
4.37393e-25
-6.10508e-25
2.2689e-25
-3.72289e-25
-1.37305e-25
-3.22655e-23
-2.29963e-24
-6.04942e-23
-2.29402e-24
-7.43728e-23
-3.01122e-24
-7.02657e-23
-2.70379e-24
-8.01764e-23
-3.48886e-24
-7.5939e-23
-3.36125e-24
-9.23116e-23
-3.33362e-24
-1.08396e-22
-3.71489e-24
-1.21885e-22
-3.31423e-24
-1.16793e-22
-3.23433e-24
-1.14631e-22
-3.41696e-24
-6.91805e-23
-4.06193e-24
-9.72478e-23
-4.58919e-24
-1.21014e-22
-5.4586e-24
-1.12037e-22
-6.46728e-24
-1.37559e-22
-6.53358e-24
-1.16364e-22
-7.05448e-24
-1.46526e-22
-7.7853e-24
-1.3042e-22
-7.65191e-24
-1.30758e-22
-7.97717e-24
-1.31962e-22
-8.2085e-24
-1.33074e-22
-8.37759e-24
-1.33658e-22
-8.36363e-24
-9.99994e-23
-8.32404e-24
-9.89779e-23
-8.05791e-24
-8.6908e-23
-7.88519e-24
-8.78542e-23
-7.89463e-24
-7.31025e-23
-7.71858e-24
-5.52124e-23
-7.55023e-24
-5.40781e-23
-7.49424e-24
-5.24113e-23
-7.619e-24
-3.51188e-23
-7.70054e-24
-4.78964e-23
-7.85067e-24
-1.77822e-23
-7.80277e-24
-1.39661e-23
-8.19148e-24
-4.50654e-23
-8.41303e-24
-6.59711e-23
-8.25531e-24
-6.35278e-23
-8.04435e-24
-6.01548e-23
-8.03014e-24
-9.07962e-23
-8.14801e-24
-8.2914e-23
-7.99241e-24
-9.22958e-23
-7.81311e-24
-9.04035e-23
-7.58322e-24
-9.04209e-23
-7.43435e-24
-8.81174e-23
-7.37619e-24
-8.43261e-23
-7.15873e-24
-5.8032e-23
-6.92836e-24
-4.28018e-23
-6.82359e-24
-4.18813e-23
-6.89229e-24
-4.26109e-23
-6.8469e-24
-3.29892e-23
-6.68632e-24
-2.78627e-23
-6.53533e-24
-3.32159e-23
-6.48447e-24
-4.56755e-23
-6.42649e-24
-5.67106e-23
-6.30092e-24
-5.39648e-23
-6.17083e-24
-6.07583e-23
-5.97541e-24
-6.69743e-23
-5.85205e-24
-6.17551e-23
-5.63437e-24
-5.76298e-23
-5.47439e-24
-4.48194e-23
-5.27191e-24
-2.91622e-23
-5.20686e-24
-2.55633e-23
-5.10217e-24
-2.25206e-23
-4.98347e-24
-1.60161e-23
-4.88701e-24
-1.30864e-23
-4.73717e-24
-1.61467e-23
-4.58585e-24
-2.18714e-23
-4.51829e-24
-1.8348e-23
-4.35743e-24
-2.08589e-23
-4.19092e-24
-1.62308e-23
-4.03982e-24
-1.36212e-23
-3.90456e-24
-1.09554e-23
-3.78559e-24
-1.65392e-23
-3.66208e-24
-1.38125e-23
-3.54308e-24
-1.70893e-23
-3.40901e-24
-1.14424e-23
-3.3087e-24
-1.03216e-23
-3.19194e-24
-9.77302e-24
-3.10109e-24
-1.5111e-23
-3.00229e-24
-1.60903e-23
-2.89388e-24
-1.39491e-23
-2.79485e-24
-1.19138e-23
-2.68986e-24
-1.2642e-23
-2.60668e-24
-1.10056e-23
-2.50568e-24
-8.40128e-24
-2.38992e-24
-4.48918e-24
-2.27636e-24
-3.32431e-24
-2.14022e-24
-2.22821e-24
-1.98291e-24
-2.87439e-24
-1.79874e-24
-2.38242e-24
-1.58283e-24
-1.64092e-24
-1.33406e-24
-1.33961e-25
-1.04368e-24
-1.04137e-25
-7.14208e-25
-2.55838e-25
-2.89684e-23
-3.99934e-24
-2.65144e-23
-4.35676e-24
-2.74329e-23
-4.5974e-24
-5.72908e-23
-5.35332e-24
-3.63989e-23
-5.02496e-24
-3.65951e-23
-4.88611e-24
-3.11927e-23
-5.22026e-24
-2.74998e-23
-5.69985e-24
-4.16022e-23
-5.90901e-24
-6.97592e-23
-6.29511e-24
-6.60105e-23
-6.35891e-24
-5.92883e-23
-7.12311e-24
-6.94226e-23
-7.89713e-24
-6.23462e-23
-8.61684e-24
-5.71659e-23
-9.20638e-24
-7.15927e-23
-9.85864e-24
-1.03287e-22
-1.04744e-23
-6.77928e-23
-1.05179e-23
-1.06693e-22
-1.10161e-23
-1.02444e-22
-1.0712e-23
-1.00536e-22
-1.03556e-23
-9.92398e-23
-9.78374e-24
-9.68142e-23
-9.29403e-24
-4.95103e-23
-9.10109e-24
-6.35718e-23
-8.90016e-24
-6.00008e-23
-8.98601e-24
-3.84941e-23
-8.84136e-24
-3.29559e-23
-8.31872e-24
-2.66649e-23
-8.28378e-24
-5.17073e-23
-8.08876e-24
-4.4071e-23
-7.8438e-24
-3.84471e-23
-7.99531e-24
-1.95768e-23
-7.84942e-24
-1.47789e-23
-7.94542e-24
8.8528e-25
-7.88395e-24
2.63393e-24
-7.86228e-24
1.203e-23
-7.94476e-24
2.2435e-23
-8.17317e-24
-3.14436e-24
-8.24026e-24
7.82379e-24
-8.17226e-24
1.78989e-23
-8.23618e-24
7.54065e-24
-8.22709e-24
-3.20307e-24
-8.01513e-24
-3.05153e-24
-7.98946e-24
-8.32335e-24
-7.96701e-24
-6.9759e-24
-7.85332e-24
-2.02386e-23
-7.74862e-24
-2.26351e-23
-7.56183e-24
-1.94439e-23
-7.46397e-24
-2.29976e-23
-7.26463e-24
-1.70398e-23
-7.13601e-24
-1.19863e-23
-7.09457e-24
-1.51723e-23
-7.04679e-24
-1.39463e-23
-6.90452e-24
-1.29285e-23
-6.77737e-24
-7.16247e-24
-6.59015e-24
-1.21341e-23
-6.53182e-24
-6.55101e-24
-6.37002e-24
-1.5442e-23
-6.23429e-24
-2.33335e-23
-6.16012e-24
-1.77843e-23
-6.00324e-24
-1.32302e-23
-5.83763e-24
-1.37214e-23
-5.644e-24
-1.43957e-23
-5.51633e-24
-4.01107e-24
-5.35645e-24
-9.17836e-24
-5.23056e-24
-8.17335e-24
-5.10779e-24
-8.50631e-24
-4.88578e-24
-5.7874e-24
-4.74467e-24
-6.10947e-24
-4.60056e-24
-6.84392e-24
-4.43943e-24
-7.12393e-24
-4.27903e-24
-4.82879e-24
-4.11087e-24
-5.30907e-24
-3.95525e-24
-5.37438e-24
-3.80675e-24
-9.57274e-24
-3.67023e-24
-4.85121e-24
-3.50944e-24
-4.6177e-24
-3.38005e-24
-2.58325e-24
-3.23347e-24
1.51046e-24
-3.12598e-24
3.41863e-24
-3.00512e-24
9.91689e-25
-2.89763e-24
1.09695e-24
-2.7842e-24
1.17901e-24
-2.66003e-24
-9.96378e-25
-2.52244e-24
2.09055e-25
-2.38524e-24
-6.64675e-25
-2.24625e-24
-5.49606e-25
-2.07751e-24
1.88454e-25
-1.89462e-24
1.42767e-24
-1.68838e-24
1.41139e-24
-1.4568e-24
6.34198e-25
-1.19633e-24
-1.51747e-25
-9.03386e-25
1.0881e-25
-5.77938e-25
-1.71019e-25
-6.25751e-23
-2.57091e-24
-6.83856e-23
-1.51836e-24
-7.39699e-23
-7.43859e-25
-7.55382e-23
-1.04088e-24
-4.55835e-23
-8.00058e-25
-4.77435e-23
-1.12151e-24
-5.06053e-23
-5.99548e-25
-2.51275e-23
-5.31353e-25
-2.83103e-23
-1.23996e-24
-3.08706e-23
-1.33515e-24
-3.59418e-23
-2.53836e-24
-3.94399e-23
-3.11651e-24
-3.96567e-23
-3.61078e-24
-4.07434e-23
-4.89121e-24
-7.38446e-23
-6.07463e-24
-7.2165e-23
-7.11067e-24
-6.96635e-23
-7.95248e-24
-6.77758e-23
-8.98494e-24
-6.4463e-23
-9.51907e-24
-6.24471e-23
-1.00466e-23
-6.05861e-23
-1.02511e-23
-7.86367e-23
-1.03961e-23
-1.06554e-22
-1.05383e-23
-8.62379e-23
-1.04791e-23
-8.33985e-23
-1.05386e-23
-9.60141e-23
-1.05344e-23
-5.12191e-23
-1.01145e-23
-6.69831e-23
-1.04266e-23
-6.53887e-23
-1.06694e-23
-9.17599e-23
-1.09294e-23
-1.05321e-22
-1.1127e-23
-1.19453e-22
-1.09709e-23
-9.19722e-23
-1.11964e-23
-9.24479e-23
-1.1282e-23
-1.17546e-22
-1.1175e-23
-1.18142e-22
-1.10469e-23
-1.26559e-22
-1.09731e-23
-1.13608e-22
-1.11527e-23
-1.08297e-22
-1.11302e-23
-1.28457e-22
-1.09674e-23
-1.01161e-22
-1.076e-23
-9.41262e-23
-1.06869e-23
-8.68594e-23
-1.07104e-23
-8.36132e-23
-1.05652e-23
-8.02317e-23
-1.04075e-23
-6.6008e-23
-1.02759e-23
-6.81393e-23
-1.00701e-23
-7.03074e-23
-9.80536e-24
-5.50402e-23
-9.59491e-24
-5.01393e-23
-9.52774e-24
-5.60318e-23
-9.47387e-24
-5.40254e-23
-9.2375e-24
-6.03407e-23
-8.95006e-24
-5.62757e-23
-8.83159e-24
-5.48103e-23
-8.65637e-24
-5.91259e-23
-8.45908e-24
-5.46629e-23
-8.15598e-24
-6.09227e-23
-8.01963e-24
-6.88191e-23
-7.86828e-24
-6.44891e-23
-7.62375e-24
-5.38371e-23
-7.36768e-24
-4.75879e-23
-7.17786e-24
-4.92857e-23
-6.96936e-24
-4.61557e-23
-6.7694e-24
-4.37856e-23
-6.53877e-24
-3.48584e-23
-6.31044e-24
-2.65304e-23
-6.07211e-24
-2.19978e-23
-5.85348e-24
-2.01069e-23
-5.65424e-24
-1.61346e-23
-5.39276e-24
-9.65401e-24
-5.19949e-24
-9.37396e-24
-4.98184e-24
-1.42323e-23
-4.77214e-24
-5.74942e-24
-4.55715e-24
-4.69615e-24
-4.37307e-24
2.67318e-24
-4.18773e-24
-3.45148e-25
-4.01745e-24
3.83833e-25
-3.82788e-24
-9.45841e-25
-3.66947e-24
-1.47264e-25
-3.49622e-24
-5.79807e-24
-3.35208e-24
-5.09888e-24
-3.19443e-24
-2.01956e-24
-3.03047e-24
-1.77791e-24
-2.88729e-24
-4.12384e-24
-2.73753e-24
-3.86863e-24
-2.57453e-24
-8.25104e-25
-2.39453e-24
-6.59289e-25
-2.21031e-24
8.43378e-25
-2.00937e-24
1.42066e-24
-1.79192e-24
1.4536e-24
-1.5568e-24
-6.05728e-26
-1.30019e-24
-3.04969e-25
-1.02173e-24
-1.68057e-25
-7.28243e-25
-2.14998e-25
-2.39641e-23
-3.06652e-24
-2.31709e-23
-3.02104e-24
-5.20711e-23
-2.64629e-24
-6.89419e-23
-1.98488e-24
-3.53408e-23
-1.3539e-24
-3.5048e-23
-7.00217e-25
-4.91096e-23
-1.07579e-24
-4.55889e-23
-9.11021e-25
-4.48451e-23
-5.91671e-25
-6.27695e-23
-5.81098e-25
-2.15795e-23
-2.05586e-25
-4.92031e-24
6.1836e-26
1.15768e-24
-6.2641e-25
1.8624e-23
-1.22181e-24
1.97815e-23
-1.45729e-24
2.69265e-23
-1.65634e-24
2.69443e-23
-2.03694e-24
4.02954e-23
-2.26037e-24
3.58928e-23
-2.55886e-24
6.13888e-23
-3.04989e-24
5.52893e-23
-3.38448e-24
6.71074e-23
-3.77074e-24
5.98993e-23
-4.26982e-24
5.14255e-23
-4.72138e-24
7.28425e-23
-4.99735e-24
6.46633e-23
-5.17842e-24
7.56586e-23
-5.47279e-24
6.8275e-23
-6.13099e-24
6.16878e-23
-6.50611e-24
5.61585e-23
-6.61662e-24
6.89436e-23
-7.12405e-24
6.67032e-23
-7.42304e-24
6.43978e-23
-7.56704e-24
9.31659e-23
-7.92257e-24
9.10775e-23
-8.17959e-24
6.23055e-23
-8.33622e-24
4.99235e-23
-8.70455e-24
5.71915e-23
-8.60765e-24
6.50664e-23
-8.59679e-24
6.35415e-23
-8.69142e-24
6.18774e-23
-8.71713e-24
5.43644e-23
-8.67311e-24
5.1876e-23
-8.71532e-24
6.08487e-23
-8.67563e-24
4.8941e-23
-8.7108e-24
4.93089e-23
-8.77088e-24
4.85744e-23
-8.75361e-24
2.49358e-23
-8.79655e-24
2.00958e-23
-8.84071e-24
7.16212e-24
-8.7885e-24
3.50388e-23
-8.66161e-24
2.78437e-23
-8.70813e-24
2.09723e-23
-8.63998e-24
7.73951e-24
-8.50268e-24
1.01012e-23
-8.36453e-24
1.1031e-23
-8.29268e-24
-1.10957e-23
-8.12964e-24
-9.51626e-24
-7.86932e-24
-7.76113e-24
-7.59256e-24
-2.73769e-24
-7.30763e-24
-4.41482e-24
-7.09987e-24
4.74317e-24
-6.84236e-24
-2.72908e-24
-6.66442e-24
-2.84573e-24
-6.51127e-24
4.21231e-24
-6.26153e-24
1.08438e-23
-6.01884e-24
1.36298e-23
-5.82349e-24
1.32811e-23
-5.5799e-24
1.27904e-23
-5.36768e-24
1.23455e-23
-5.14172e-24
1.24312e-23
-4.95004e-24
1.52758e-23
-4.78108e-24
1.25886e-23
-4.59756e-24
6.33679e-24
-4.41382e-24
1.04705e-23
-4.23767e-24
5.53078e-24
-4.05294e-24
1.41998e-23
-3.86958e-24
1.41844e-23
-3.70204e-24
8.39924e-24
-3.52909e-24
8.22082e-24
-3.3699e-24
7.81967e-24
-3.19267e-24
7.42799e-24
-3.04453e-24
7.08179e-24
-2.89147e-24
6.73119e-24
-2.72474e-24
4.20394e-24
-2.56289e-24
5.23966e-24
-2.38464e-24
4.82934e-24
-2.20474e-24
2.63445e-24
-2.01055e-24
1.60728e-24
-1.80643e-24
5.30842e-27
-1.57824e-24
1.13321e-24
-1.33691e-24
9.07593e-25
-1.07771e-24
3.28465e-25
-8.0947e-25
7.51113e-26
-5.33026e-25
-1.22797e-25
-5.01673e-23
-7.26627e-24
-4.30874e-23
-6.55929e-24
-5.52325e-23
-6.02992e-24
-8.28237e-23
-5.37693e-24
-7.1982e-23
-4.70025e-24
-1.08854e-22
-5.18273e-24
-1.02334e-22
-4.7615e-24
-9.76955e-23
-4.93048e-24
-1.23583e-22
-5.01332e-24
-1.19017e-22
-4.49751e-24
-1.06632e-22
-5.22374e-24
-1.30189e-22
-5.28209e-24
-1.24715e-22
-5.74792e-24
-9.27596e-23
-6.04719e-24
-8.90734e-23
-6.03425e-24
-8.34429e-23
-6.42752e-24
-7.91137e-23
-6.56795e-24
-9.14662e-23
-6.60802e-24
-8.79347e-23
-7.09874e-24
-8.5263e-23
-7.10142e-24
-8.34772e-23
-7.83737e-24
-9.98443e-23
-7.86838e-24
-9.69242e-23
-7.9733e-24
-9.51148e-23
-7.90197e-24
-9.28466e-23
-7.78887e-24
-1.05629e-22
-7.95609e-24
-1.03741e-22
-8.07913e-24
-1.19142e-22
-7.81863e-24
-1.17558e-22
-7.69679e-24
-1.164e-22
-7.42716e-24
-1.16151e-22
-7.12913e-24
-8.57888e-23
-7.26102e-24
-8.66062e-23
-7.06505e-24
-7.23416e-23
-6.83886e-24
-6.23527e-23
-6.59112e-24
-7.96323e-23
-6.56256e-24
-5.01285e-23
-6.5376e-24
-2.93999e-23
-6.52027e-24
-3.08568e-23
-6.70085e-24
-1.92127e-23
-6.87274e-24
-4.42304e-23
-6.96578e-24
-4.399e-23
-6.92917e-24
-2.32992e-23
-6.84777e-24
-1.01286e-23
-6.79823e-24
-2.6731e-23
-6.95522e-24
-2.0022e-23
-6.92151e-24
-1.54593e-23
-6.9988e-24
-3.28822e-23
-6.95619e-24
-3.42052e-23
-6.76722e-24
-3.4934e-23
-6.67606e-24
-1.78972e-23
-6.62132e-24
-3.05496e-23
-6.46241e-24
-2.90995e-23
-6.32906e-24
-3.20527e-23
-6.14594e-24
-2.40023e-23
-5.96745e-24
-2.37087e-23
-5.78173e-24
-4.09727e-24
-5.62272e-24
-6.21678e-24
-5.51834e-24
-8.21858e-24
-5.36342e-24
-1.00402e-23
-5.28983e-24
-1.23047e-23
-5.07152e-24
-2.27714e-23
-4.8768e-24
-2.47106e-23
-4.69168e-24
-1.48481e-23
-4.44716e-24
-9.03543e-24
-4.29229e-24
6.34908e-25
-4.12e-24
-7.65734e-25
-3.97705e-24
-2.14416e-24
-3.77159e-24
-1.20743e-24
-3.61702e-24
2.57466e-26
-3.47514e-24
4.22546e-24
-3.33466e-24
4.38028e-25
-3.16953e-24
1.47448e-24
-3.02423e-24
2.04738e-25
-2.90531e-24
1.12832e-24
-2.76165e-24
8.49986e-24
-2.62504e-24
7.40443e-24
-2.5185e-24
9.65655e-24
-2.40741e-24
8.52651e-24
-2.30603e-24
3.79296e-24
-2.19124e-24
2.78377e-24
-2.10678e-24
1.63111e-24
-2.01127e-24
6.55148e-25
-1.9065e-24
-3.1442e-25
-1.81344e-24
3.38307e-24
-1.71292e-24
4.06754e-24
-1.61324e-24
4.73238e-24
-1.51577e-24
4.19456e-24
-1.39517e-24
1.4811e-24
-1.27097e-24
-2.28314e-25
-1.12329e-24
7.6546e-25
-9.68957e-25
-2.56051e-25
-8.04311e-25
-2.58988e-25
-6.32697e-25
-3.02379e-26
-4.58772e-25
-1.43373e-25
-1.76188e-23
-4.59571e-24
1.32151e-24
-4.95928e-24
1.70292e-24
-5.24044e-24
1.57092e-24
-5.71743e-24
-4.21167e-23
-6.12441e-24
-2.35381e-23
-5.41882e-24
-5.52105e-23
-5.15873e-24
-3.75958e-23
-5.10764e-24
-3.61951e-23
-5.25606e-24
-5.10636e-23
-5.44652e-24
-1.9272e-23
-5.74422e-24
-3.88589e-23
-6.10574e-24
-2.44456e-23
-6.5052e-24
-2.66853e-23
-6.72356e-24
-4.40512e-23
-7.45205e-24
-4.42785e-23
-7.56558e-24
-4.27745e-23
-8.27153e-24
-7.15211e-23
-8.72527e-24
-7.14586e-23
-8.14893e-24
-7.2308e-23
-8.12425e-24
-5.83135e-23
-7.89664e-24
-6.00958e-23
-8.05528e-24
-4.14127e-23
-7.57059e-24
-2.23133e-23
-7.3315e-24
-2.06648e-23
-7.34816e-24
-5.86365e-24
-6.96848e-24
2.31991e-23
-6.56196e-24
2.15219e-23
-6.19393e-24
4.99331e-23
-5.93935e-24
4.71856e-23
-6.10654e-24
2.64056e-23
-5.8628e-24
5.00213e-23
-5.66225e-24
6.15526e-23
-5.62266e-24
7.19774e-23
-5.67816e-24
5.28079e-23
-5.70895e-24
3.61305e-23
-6.10178e-24
3.44664e-23
-5.82198e-24
1.00028e-23
-5.9153e-24
8.1974e-24
-5.88817e-24
2.00849e-23
-5.70192e-24
3.09735e-23
-5.65963e-24
1.81373e-23
-5.55726e-24
1.73764e-23
-5.43348e-24
5.54874e-24
-5.39206e-24
3.20643e-24
-5.29018e-24
6.03101e-24
-5.19544e-24
1.44972e-23
-4.88103e-24
1.69577e-23
-4.71849e-24
1.50353e-23
-4.64252e-24
1.92289e-23
-4.55401e-24
2.2351e-23
-4.38828e-24
2.07683e-23
-4.24564e-24
2.2894e-23
-4.01722e-24
3.08801e-23
-3.92272e-24
3.14552e-23
-3.73604e-24
3.16777e-23
-3.56086e-24
2.18812e-23
-3.41113e-24
3.08789e-23
-3.21159e-24
2.95551e-23
-3.11629e-24
3.63858e-23
-2.99678e-24
3.56231e-23
-2.85116e-24
3.23683e-23
-2.7693e-24
2.95501e-23
-2.55961e-24
2.69433e-23
-2.36383e-24
2.42868e-23
-2.26374e-24
2.92806e-23
-2.1073e-24
2.04489e-23
-2.01733e-24
2.16826e-23
-1.9335e-24
1.41249e-23
-1.83309e-24
1.30529e-23
-1.72828e-24
1.704e-23
-1.62943e-24
7.80895e-24
-1.5793e-24
6.71463e-24
-1.47723e-24
1.31925e-23
-1.39017e-24
1.20923e-23
-1.28663e-24
1.09805e-23
-1.19611e-24
9.64732e-24
-1.11654e-24
7.96054e-24
-1.04683e-24
6.5782e-24
-9.84827e-25
3.36284e-24
-9.32774e-25
5.66739e-24
-8.73397e-25
8.17777e-24
-8.31945e-25
6.75991e-24
-8.0801e-25
5.76013e-24
-7.67256e-25
5.36717e-24
-7.37897e-25
4.5675e-24
-7.02444e-25
3.86929e-24
-6.6519e-25
3.28017e-24
-6.17611e-25
4.08387e-24
-5.61932e-25
2.0071e-24
-5.00844e-25
1.656e-24
-4.32366e-25
9.98356e-25
-3.59011e-25
6.25074e-25
-2.81757e-25
1.33627e-25
-2.08077e-25
2.774e-27
1.4826e-23
-4.47859e-24