/*--------------------------------*- C++ -*----------------------------------*\
  =========                 |
  \\      /  F ield         | OpenFOAM: The Open Source CFD Toolbox
   \\    /   O peration     | Website:  https://openfoam.org
    \\  /    A nd           | Version:  7
     \\/     M anipulation  |
\*---------------------------------------------------------------------------*/
FoamFile
{
    version     2.0;
    format      ascii;
    class       volScalarField;
    location    "20000";
    object      nu;
}
// * * * * * * * * * * * * * * * * * * * * * * * * * * * * * * * * * * * * * //

dimensions      [0 2 -1 0 0 0 0];

internalField   nonuniform List<scalar> 
4844
(
0.001
0.001
0.001
0.001
0.001
0.001
0.001
0.001
0.001
0.001
0.000998038
0.001
0.001
0.001
0.001
0.001
0.001
0.001
0.000996004
0.000987121
0.000979264
0.00097013
0.001
0.001
0.001
0.001
0.001
0.000999495
0.000995586
0.000989738
0.000982973
0.000975101
0.000965605
0.00095342
0.00094325
0.00093383
0.000925495
0.000913584
0.000993771
0.00099529
0.00099601
0.000995831
0.000993918
0.000990531
0.000985272
0.000979101
0.000973854
0.000966331
0.000957613
0.000948486
0.000939324
0.000930682
0.000923362
0.000912482
0.00098304
0.00098437
0.000985346
0.000984795
0.000982157
0.000977803
0.000972252
0.000966321
0.000960887
0.000953744
0.000945889
0.000939174
0.000931191
0.00092347
0.000916824
0.000905946
0.000971849
0.000972205
0.000971032
0.000967958
0.000963348
0.000957868
0.000952146
0.000946371
0.000939572
0.000932522
0.000926284
0.000919144
0.00091213
0.000905719
0.000894374
0.00095887
0.000958231
0.000956225
0.000952752
0.000948073
0.000942718
0.000937088
0.000931146
0.00092464
0.000918106
0.000911911
0.000905256
0.000898629
0.000892123
0.000880306
0.00094583
0.000943867
0.000940985
0.000937124
0.00093239
0.000927109
0.000921505
0.000915538
0.00090926
0.000903
0.000896808
0.000890389
0.000883883
0.000877122
0.000865014
0.000933451
0.00093234
0.000929091
0.000925496
0.000921302
0.00091649
0.000911227
0.000905627
0.0008997
0.000893583
0.000887454
0.000881273
0.000874933
0.000868382
0.000861335
0.000849137
0.000919684
0.000917706
0.00091386
0.000909828
0.00090538
0.000900478
0.000895196
0.000889595
0.000883723
0.000877706
0.000871635
0.000865458
0.000859103
0.00085243
0.000845136
0.000833002
0.00090404
0.00090215
0.000898319
0.000894047
0.000889412
0.000884419
0.000879101
0.000873499
0.000867672
0.000861711
0.000855659
0.000849465
0.000843048
0.000836232
0.000828756
0.00081679
0.000888222
0.000886533
0.000882675
0.000878227
0.000873443
0.000868362
0.000863004
0.000857398
0.000851599
0.000845664
0.000839607
0.000833378
0.000826878
0.000819934
0.00081234
0.000800607
0.000870264
0.000873854
0.000871202
0.00086707
0.000862431
0.00085751
0.000852346
0.000846948
0.000841335
0.000835548
0.000829619
0.000823544
0.000817267
0.000810682
0.000803638
0.000795983
0.000784522
0.000861502
0.000860048
0.000856095
0.000851546
0.000846693
0.000841642
0.0008364
0.000830963
0.00082534
0.000819554
0.000813619
0.000807517
0.000801188
0.000794531
0.000787417
0.000779747
0.000768577
0.000845516
0.000850483
0.000845916
0.000841043
0.000836088
0.000831027
0.000825856
0.000820546
0.000815074
0.000809438
0.000803647
0.000797699
0.000791567
0.00078519
0.000778476
0.000771324
0.000763672
0.000752804
0.000836826
0.000836717
0.000831282
0.000825917
0.000820665
0.000815435
0.000810165
0.000804798
0.000799297
0.000793649
0.000787849
0.000781886
0.000775726
0.00076931
0.000762557
0.000755394
0.000747787
0.00073722
0.000824252
0.000821563
0.00081619
0.000810673
0.000805261
0.00079992
0.000794578
0.000789168
0.000783646
0.000777988
0.000772181
0.000766204
0.000760021
0.000753576
0.000746804
0.000739652
0.000732108
0.00072184
0.000808854
0.000805829
0.000800793
0.000795333
0.000789879
0.000784485
0.000779103
0.000773667
0.000768132
0.000762469
0.000756657
0.00075067
0.000744471
0.000738011
0.000731236
0.000724114
0.000716649
0.000706672
0.000792812
0.000789941
0.000785255
0.00077995
0.000774536
0.00076914
0.000763747
0.000758303
0.000752765
0.000747103
0.00074129
0.000735299
0.000729094
0.000722631
0.000715869
0.000708792
0.000701416
0.000691723
0.000776893
0.00077412
0.0007697
0.000764577
0.000759253
0.000753896
0.000748518
0.000743083
0.000737554
0.000731899
0.000726092
0.000720104
0.000713902
0.000707448
0.000700714
0.000693694
0.000686415
0.000676997
0.000761246
0.000758425
0.000754189
0.00074925
0.000744049
0.000738763
0.000733425
0.000728016
0.000722505
0.000716866
0.000711072
0.000705095
0.000698905
0.000692473
0.000685778
0.000678825
0.000671648
0.000662495
0.000745724
0.000742803
0.000738729
0.00073399
0.00072894
0.000723752
0.000718475
0.000713107
0.000707627
0.000702012
0.000696238
0.000690281
0.000684113
0.000677712
0.000671066
0.000664188
0.000657116
0.000648219
0.000730031
0.000727144
0.000723305
0.000718807
0.00071394
0.000708874
0.000703678
0.000698365
0.000692925
0.000687343
0.000681597
0.000675667
0.00066953
0.000663169
0.000656582
0.000649784
0.000642821
0.000634169
0.000713869
0.000711364
0.00070791
0.000703713
0.000699061
0.00069414
0.000689041
0.000683796
0.000678406
0.000672865
0.000667155
0.000661259
0.000655161
0.00064885
0.000642326
0.000635614
0.000628761
0.000620346
0.000697141
0.000695485
0.000692573
0.000688734
0.000684321
0.000679563
0.000674574
0.000669406
0.000664076
0.000658582
0.000652915
0.000647062
0.00064101
0.000634754
0.000628301
0.000621678
0.000614936
0.00060675
0.000680142
0.000679663
0.000677367
0.000673905
0.000669742
0.000665154
0.000660284
0.000655202
0.000649939
0.0006445
0.000638882
0.000633077
0.000627078
0.000620883
0.000614506
0.000607975
0.000601346
0.000593382
0.000663551
0.00066415
0.000662392
0.000659272
0.000655348
0.000650928
0.00064618
0.00064119
0.000635999
0.00063062
0.000625057
0.000619307
0.000613366
0.000607239
0.000600941
0.000594507
0.000587992
0.000580244
0.000648127
0.000649187
0.000647742
0.00064488
0.000641161
0.000636899
0.000632272
0.000627376
0.00062226
0.000616947
0.000611445
0.000605754
0.000599878
0.000593823
0.00058761
0.000581274
0.000574876
0.000567339
0.000634241
0.0006349
0.000633479
0.000630763
0.000627202
0.00062308
0.000618568
0.000613765
0.000608728
0.000603485
0.000598048
0.000592422
0.000586615
0.000580638
0.000574513
0.000568281
0.000562
0.000554671
0.00062006
0.000621673
0.00062127
0.000619625
0.000616942
0.000613489
0.000609483
0.000605076
0.000600365
0.000595409
0.000590238
0.000584871
0.000579315
0.000573583
0.000567687
0.000561656
0.000555529
0.000549369
0.000542243
0.000611714
0.000609768
0.000608174
0.000606163
0.000603426
0.000600031
0.000596118
0.000591806
0.000587184
0.000582309
0.000577214
0.00057192
0.000566439
0.000560785
0.000554976
0.000549041
0.000543021
0.000536982
0.00053005
0.000598703
0.000602056
0.000598015
0.000595467
0.000593056
0.00059021
0.000586837
0.000582994
0.000578767
0.00057423
0.000569436
0.000564419
0.000559201
0.000553799
0.000548227
0.000542507
0.000536668
0.000530756
0.000524833
0.000518085
0.000591199
0.000590798
0.000586218
0.000583029
0.000580258
0.000577284
0.000573908
0.000570119
0.000565967
0.00056151
0.000556795
0.000551857
0.000546718
0.000541396
0.000535908
0.000530277
0.000524534
0.000518725
0.000512911
0.00050633
0.000581257
0.000578826
0.000574321
0.000570775
0.000567728
0.000564632
0.000561241
0.000557492
0.000553407
0.000549026
0.00054439
0.00053953
0.00053447
0.000529228
0.000523823
0.000518278
0.000512627
0.000506913
0.000501196
0.000494764
0.000569309
0.000566561
0.000562341
0.000558656
0.000555425
0.000552232
0.000548823
0.000545108
0.000541082
0.000536773
0.000532212
0.000527429
0.000522446
0.000517281
0.000511955
0.000506492
0.000500925
0.000495298
0.000489668
0.000483367
0.000556737
0.000554198
0.000550322
0.000546643
0.000543315
0.000540055
0.000536635
0.00053295
0.000528979
0.000524736
0.000520247
0.000515537
0.000510626
0.000505534
0.000500282
0.000494896
0.000489408
0.00048386
0.000478308
0.000472133
0.000544107
0.000541844
0.000538301
0.000534717
0.000531362
0.000528069
0.000524646
0.00052099
0.00051707
0.000512891
0.00050847
0.000503827
0.000498984
0.000493961
0.00048878
0.000483467
0.000478055
0.000472587
0.000467119
0.000461076
0.000531608
0.000529556
0.00052631
0.000522866
0.000519537
0.000516239
0.000512823
0.000509198
0.000505328
0.000501209
0.000496851
0.000492273
0.000487496
0.000482541
0.000477431
0.000472195
0.000466867
0.000461489
0.000456125
0.000450248
0.000519288
0.000517371
0.000514378
0.00051109
0.000507821
0.00050454
0.000501141
0.000497549
0.00049373
0.00048967
0.000485375
0.000480861
0.000476152
0.000471271
0.000466242
0.000461096
0.000455868
0.000450608
0.000445385
0.000439726
0.000507167
0.000505334
0.000502548
0.000499415
0.000496223
0.000492973
0.000489598
0.000486043
0.000482278
0.000478279
0.000474048
0.000469605
0.000464976
0.000460183
0.000455254
0.00045022
0.000445122
0.000440015
0.000434982
0.000429603
0.000495293
0.000493512
0.000490894
0.000487902
0.000484789
0.000481576
0.00047823
0.000474718
0.000471012
0.000467076
0.000462919
0.000458562
0.000454031
0.00044935
0.000444547
0.000439655
0.000434718
0.000429802
0.000425001
0.000419945
0.000483748
0.000482005
0.000479521
0.000476649
0.000473607
0.000470431
0.000467124
0.000463661
0.000460017
0.000456153
0.000452083
0.000447833
0.000443424
0.000438881
0.00043423
0.000429505
0.000424752
0.000420044
0.000415487
0.00041074
0.000472638
0.000470926
0.000468551
0.000465778
0.000462793
0.000459659
0.000456401
0.000452995
0.000449417
0.000445633
0.000441668
0.000437544
0.000433279
0.000428891
0.000424404
0.000419851
0.000415278
0.000410757
0.000406392
0.000401847
0.000462037
0.000460357
0.000458075
0.00045539
0.000452453
0.000449377
0.000446185
0.000442846
0.000439331
0.000435635
0.000431789
0.000427802
0.000423683
0.000419444
0.000415105
0.000410692
0.000406248
0.000401835
0.000397532
0.000392958
0.000451922
0.000450277
0.000448085
0.000445493
0.000442621
0.000439636
0.000436534
0.000433269
0.000429814
0.000426212
0.000422484
0.00041862
0.000414619
0.000410486
0.000406233
0.000401881
0.000397462
0.000393018
0.000388569
0.000383628
0.000442097
0.000440494
0.000438397
0.000435929
0.000433183
0.000430342
0.000427351
0.000424167
0.000420771
0.000417265
0.000413629
0.000409838
0.000405884
0.000401768
0.000397495
0.000393079
0.000388539
0.000383885
0.000379052
0.000373376
0.000432152
0.000430596
0.000428605
0.00042631
0.000423814
0.000421174
0.000418303
0.000415203
0.000411888
0.000408467
0.000404867
0.00040106
0.000397044
0.000392821
0.000388393
0.000383771
0.000378962
0.00037394
0.000368537
0.000361876
0.000421498
0.000419988
0.000418108
0.000416038
0.000413967
0.000411565
0.000408798
0.000405783
0.000402603
0.000399246
0.000395596
0.000391662
0.000387461
0.000383005
0.000378306
0.000373375
0.000368218
0.000362777
0.000356794
0.000349198
0.000409523
0.00040805
0.000406268
0.00040444
0.000402967
0.00040078
0.000398072
0.000395133
0.000392192
0.000388859
0.000385072
0.000380916
0.000376447
0.000371699
0.000366698
0.000361476
0.000356043
0.000350331
0.000344027
0.000335985
0.000395884
0.000394427
0.000392706
0.000391065
0.000390236
0.000388159
0.000385446
0.000382567
0.000379988
0.000376638
0.00037267
0.00036828
0.000363569
0.000358602
0.000353436
0.000348127
0.000342707
0.000337114
0.000331049
0.000323491
0.000380861
0.000379388
0.000377671
0.000376076
0.000375634
0.000373497
0.000370727
0.000367888
0.000365746
0.000362358
0.000358271
0.000353776
0.000349018
0.000344096
0.000339102
0.000334122
0.000329214
0.00032434
0.000319282
0.000313399
0.00036561
0.000364089
0.000362323
0.000360592
0.000359803
0.000357453
0.000354631
0.00035183
0.00035002
0.00034664
0.000342642
0.000338346
0.000333918
0.000329487
0.000325173
0.000321087
0.000317308
0.00031383
0.000310573
0.000307503
0.000352173
0.000350581
0.000348749
0.000346751
0.000344364
0.000341773
0.000339002
0.000336289
0.000334387
0.000331176
0.000327621
0.000323965
0.000320368
0.000316972
0.000313913
0.000311309
0.000309241
0.000307729
0.000306844
0.000307259
0.000341347
0.000339739
0.000337911
0.000335686
0.000331861
0.000329183
0.000326672
0.000324189
0.000321373
0.000318633
0.000315958
0.000313434
0.000311185
0.000309345
0.000308038
0.000307361
0.000307359
0.000308037
0.000309584
0.000313246
0.000323774
0.000321377
0.000319434
0.000317463
0.000314146
0.00031227
0.000310908
0.000309949
0.000309458
0.000309524
0.000310219
0.00031156
0.000313487
0.000315905
0.000318996
0.000324185
0.000314475
0.000313874
0.000314126
0.000314954
0.000316324
0.000318224
0.000320593
0.000323266
0.00032596
0.000328348
0.000330414
0.00033318
0.000848528
0.00085797
0.00084437
0.00085105
0.000836404
0.000842733
0.000824903
0.000832374
0.000832276
0.000811735
0.000820588
0.000823966
0.000797702
0.000807427
0.000813387
0.000808499
0.000783153
0.000793372
0.000800137
0.000800317
0.000768272
0.000778669
0.00078566
0.000789473
0.000753179
0.000763525
0.000770607
0.000776059
0.000774773
0.000737974
0.000748107
0.000755104
0.000761044
0.000763591
0.000722747
0.000732564
0.000739324
0.000744914
0.000748347
0.000707577
0.000717032
0.000723488
0.000728511
0.000730815
0.000692527
0.000701624
0.00070781
0.000712411
0.000713857
0.000677639
0.000686415
0.000692428
0.000696928
0.000698513
0.000662931
0.000671437
0.000677389
0.000682076
0.000684677
0.000682467
0.000648411
0.000656697
0.000662674
0.000667708
0.000671529
0.000673248
0.000634088
0.00064219
0.000648242
0.000653669
0.000658477
0.000662981
0.00065752
0.000619992
0.000627933
0.000634074
0.000639855
0.000645415
0.000651151
0.000651472
0.000646043
0.000606187
0.000613975
0.00062019
0.00062625
0.000632325
0.000638635
0.000642888
0.000641212
0.000638002
0.000592763
0.000600401
0.000606661
0.000612912
0.000619306
0.000625932
0.000631738
0.000633836
0.000633111
0.000632613
0.000579812
0.0005873
0.000593574
0.000599934
0.000606499
0.000613276
0.000619662
0.000623698
0.000625738
0.000626064
0.000567363
0.000574712
0.000580973
0.000587375
0.000594003
0.000600816
0.000607369
0.000612376
0.000615717
0.000617455
0.000555309
0.000562539
0.000568771
0.000575167
0.000581785
0.000588555
0.000595099
0.000600545
0.00060452
0.00060684
0.000543337
0.000550476
0.000556677
0.000563036
0.000569595
0.000576271
0.000582727
0.00058833
0.000592617
0.00059528
0.000530916
0.000537991
0.000544161
0.000550464
0.000556934
0.000563482
0.000569811
0.000575428
0.00057987
0.000582814
0.000517397
0.000524414
0.000530548
0.000536779
0.000543134
0.000549531
0.000555706
0.000561259
0.000565773
0.000568958
0.000502265
0.000509184
0.000515256
0.000521392
0.000527608
0.000533828
0.000539825
0.000545266
0.00054979
0.00055316
0.000485502
0.000492225
0.000498186
0.000504192
0.000510241
0.000516258
0.000522051
0.000527341
0.000531825
0.000535305
0.000467953
0.00047434
0.000480121
0.000485959
0.000491814
0.000497609
0.00050318
0.000508293
0.0005127
0.00051623
0.000451476
0.000457396
0.000462939
0.000468586
0.000474242
0.000479818
0.000485173
0.000490113
0.000494437
0.000498004
0.000438745
0.000444154
0.000449446
0.000454917
0.000460408
0.000465813
0.000471004
0.000475821
0.000480107
0.000483769
0.000430145
0.000435124
0.000440183
0.000445504
0.000450874
0.000456167
0.000461258
0.000466015
0.000470323
0.000474137
0.000850534
0.000846961
0.000839153
0.000827332
0.000813663
0.000799141
0.000784208
0.00076907
0.000753833
0.000738574
0.000723353
0.000708224
0.000693225
0.000678385
0.000663716
0.00064922
0.000634903
0.000620786
0.00060692
0.000593383
0.000580266
0.000567626
0.000555419
0.000543425
0.000531214
0.000518187
0.000503768
0.000487746
0.000470688
0.000454222
0.000440991
0.000431557
0.000859158
0.000854936
0.000847168
0.000835668
0.000822265
0.000807857
0.000792916
0.000777707
0.000762384
0.000747041
0.000731745
0.000716546
0.000701479
0.000686571
0.000671834
0.000657272
0.000642884
0.000628676
0.000614669
0.000600911
0.000587471
0.00057442
0.000561796
0.000549543
0.000537465
0.000525201
0.000512279
0.000498261
0.000483008
0.000466985
0.000451501
0.000438765
0.00042894
0.000866429
0.000861595
0.00085347
0.000841874
0.000828539
0.000814255
0.00079943
0.000784302
0.000769027
0.000753711
0.000738427
0.000723231
0.000708162
0.000693249
0.000678509
0.00066395
0.000649573
0.000635377
0.000621366
0.000607558
0.000593987
0.000580702
0.000567747
0.000555141
0.000542844
0.000530738
0.000518633
0.000506309
0.000493581
0.000480381
0.000466788
0.000452987
0.000439209
0.000425603
0.000412513
0.000400832
0.000392089
0.000386104
0.000873881
0.000868721
0.000860261
0.000848418
0.000834949
0.000820622
0.000805806
0.00079071
0.000775469
0.000760178
0.000744909
0.000729717
0.000714642
0.000699717
0.000684963
0.000670394
0.000656014
0.000641825
0.000627824
0.000614009
0.000600389
0.000586982
0.000573819
0.000560937
0.000548372
0.000536138
0.000524211
0.000512505
0.000500853
0.000488999
0.000476609
0.000463348
0.000449017
0.000433783
0.000418408
0.000404384
0.000393823
0.000386878
0.000880915
0.000875701
0.000867094
0.000855081
0.00084147
0.000827045
0.000812174
0.000797054
0.000781807
0.000766517
0.00075125
0.000736054
0.00072097
0.000706027
0.000691251
0.000676658
0.000662259
0.000648057
0.000634049
0.000620228
0.000606587
0.000593123
0.000579849
0.000566799
0.000554025
0.000541594
0.000529562
0.000517932
0.000506604
0.000495323
0.000483663
0.000471096
0.000457173
0.00044183
0.000425734
0.000410481
0.000398492
0.00039029
0.000887373
0.000882234
0.000873627
0.000861567
0.000847895
0.000833411
0.000818492
0.000803338
0.000788069
0.000772764
0.000757485
0.000742276
0.000727174
0.000712209
0.000697404
0.000682779
0.000668348
0.000654116
0.000640083
0.00062624
0.000612576
0.000599078
0.000585747
0.000572603
0.000559697
0.000547102
0.000534903
0.000523148
0.000511795
0.000500656
0.000489364
0.000477413
0.000464299
0.000449759
0.000434058
0.000418188
0.000403861
0.00039327
0.000386396
0.000893316
0.000888248
0.000879699
0.000867679
0.000854033
0.000839564
0.000824651
0.000809496
0.00079422
0.000778906
0.000763613
0.000748388
0.000733265
0.000718273
0.000703436
0.000688774
0.000674302
0.000660029
0.000645956
0.000632077
0.000618378
0.000604845
0.000591469
0.000578262
0.000565266
0.000552554
0.000540216
0.00052832
0.000516861
0.000505696
0.000494501
0.000482784
0.000470003
0.000455786
0.000440238
0.00042421
0.000409377
0.000398052
0.000390503
0.000898777
0.000893717
0.000885237
0.000873314
0.000859774
0.000845399
0.000830559
0.000815455
0.000800209
0.000784908
0.000769615
0.000754378
0.000739235
0.000724215
0.000709345
0.000694643
0.000680126
0.000665805
0.000651684
0.000637757
0.000624013
0.000610433
0.000597009
0.000583745
0.000570678
0.000557877
0.000545431
0.000533421
0.000521857
0.000510619
0.000499404
0.000487729
0.000475032
0.000460898
0.00044537
0.000429251
0.000414219
0.000402645
0.000394868
0.000903625
0.000898507
0.000890133
0.000878399
0.000865066
0.000850878
0.000836186
0.000821188
0.000806011
0.000790749
0.000775471
0.000760231
0.000745071
0.000730025
0.000715119
0.000700375
0.000685811
0.000671439
0.000657265
0.000643284
0.000629485
0.000615852
0.000602371
0.000589048
0.000575912
0.000563033
0.000550499
0.000538396
0.000526743
0.000515432
0.000504167
0.000492467
0.000479757
0.000465597
0.000450002
0.00043376
0.000418564
0.000406833
0.000398947
0.000907442
0.000902268
0.00089418
0.000882858
0.000869917
0.000856042
0.000841575
0.000826727
0.000811644
0.000796434
0.000781178
0.000765938
0.000750763
0.000735689
0.000720745
0.000705957
0.000691343
0.000676917
0.000662685
0.000648647
0.000634789
0.000621097
0.000607555
0.000594166
0.000580961
0.000568005
0.000555391
0.000543205
0.000531475
0.000520099
0.000508784
0.000497045
0.000484294
0.000470069
0.000454368
0.000437974
0.000422599
0.000410712
0.000402729
0.00090904
0.000904004
0.00089712
0.000886724
0.000874479
0.000861046
0.000846842
0.000832144
0.000817145
0.000801977
0.000786736
0.000771491
0.000756296
0.00074119
0.000726205
0.000711368
0.000696701
0.000682218
0.000667927
0.000653828
0.000639909
0.000626154
0.000612548
0.000599092
0.000585814
0.000572781
0.000560087
0.000547823
0.000536022
0.000524588
0.000513228
0.000501451
0.000488655
0.000474357
0.00045854
0.000441982
0.00042642
0.000414369
0.000406276
0.000900784
0.000897241
0.000890279
0.00087916
0.00086613
0.000852077
0.00083745
0.00082249
0.000807344
0.000792109
0.000776856
0.000761637
0.000746497
0.000731469
0.000716582
0.000701859
0.000687317
0.000672965
0.000658803
0.000644822
0.000631003
0.000617332
0.000603806
0.000590456
0.000577345
0.000564571
0.000552231
0.000540362
0.000528873
0.000517473
0.000505662
0.000492824
0.000478457
0.000462524
0.000445805
0.000430058
0.000417839
0.000409629
0.000893159
0.000889851
0.000882086
0.000870307
0.000856737
0.000842324
0.000827479
0.000812399
0.000797199
0.000781956
0.000766728
0.000751561
0.000736494
0.000721559
0.000706781
0.00069218
0.000677767
0.000663544
0.0006495
0.000635618
0.000621882
0.000608289
0.000594865
0.000581678
0.000568826
0.00055641
0.000544475
0.000532934
0.000521496
0.000509656
0.00049678
0.000482349
0.000466308
0.000449436
0.000433509
0.000421128
0.000412798
0.00089148
0.000888072
0.00088207
0.000871991
0.000859712
0.000846116
0.000831746
0.000816932
0.000801874
0.000786701
0.000771496
0.000756324
0.00074123
0.000726255
0.000711427
0.000696771
0.0006823
0.000668018
0.000653914
0.000639971
0.000626173
0.000612514
0.00059902
0.000585759
0.000572831
0.000560342
0.000548344
0.000536752
0.000525279
0.000513412
0.000500504
0.000486014
0.000469873
0.000452856
0.000436761
0.000424226
0.00041578
0.000884523
0.000881015
0.000873569
0.000862347
0.000849346
0.000835406
0.00082091
0.000806068
0.000791026
0.000775888
0.000760736
0.000745633
0.000730628
0.000715758
0.000701053
0.000686529
0.000672192
0.000658032
0.000644033
0.000630176
0.000616456
0.000602897
0.000589565
0.000576565
0.000564007
0.000551948
0.00054031
0.000528805
0.000516914
0.000503976
0.000489433
0.000473199
0.000456049
0.000439798
0.00042712
0.000418563
0.000882992
0.000878956
0.000872942
0.000863263
0.000851522
0.000838417
0.000824419
0.000809857
0.000794963
0.000779896
0.00076477
0.000749664
0.000734638
0.000719735
0.000704989
0.00069042
0.000676034
0.000661826
0.000647777
0.000633867
0.000620091
0.000606472
0.000593076
0.000580009
0.000567387
0.000555271
0.00054359
0.000532055
0.000520144
0.000507181
0.00049259
0.000476272
0.000459
0.000442605
0.000429794
0.000421135
0.000874014
0.000870963
0.000864614
0.000854115
0.000841547
0.000827797
0.000813359
0.000798531
0.0007835
0.000768389
0.000753283
0.000738244
0.000723319
0.000708543
0.000693939
0.000679515
0.000665267
0.000651176
0.000637222
0.000623398
0.000609725
0.000596272
0.000583145
0.000570464
0.000558298
0.000546577
0.000535017
0.000523088
0.000510103
0.00049547
0.000479076
0.000461693
0.000445167
0.000432236
0.000423484
0.000866427
0.000863476
0.000855979
0.000844335
0.000830807
0.000816412
0.000801604
0.000786599
0.000771514
0.000756426
0.000741396
0.000726468
0.000711681
0.000697057
0.000682609
0.000668332
0.00065421
0.000640222
0.000626358
0.000612641
0.000599138
0.000585958
0.000573226
0.000561014
0.00054926
0.000537677
0.000525733
0.00051273
0.00049806
0.000481599
0.000464116
0.000447473
0.000434436
0.0004256
0.000866207
0.000862761
0.000855836
0.000845043
0.000832229
0.000818327
0.000803834
0.000789024
0.000774062
0.000759051
0.000744067
0.000729165
0.000714387
0.000699762
0.000685305
0.000671012
0.00065687
0.000642856
0.000628962
0.000615209
0.000601664
0.000588439
0.000575662
0.000563411
0.000551627
0.000540027
0.000528071
0.000515053
0.000500351
0.000483831
0.00046626
0.000449513
0.000436381
0.000427472
0.000867818
0.000863298
0.000856028
0.000845404
0.000832987
0.000819512
0.000805379
0.00079084
0.000776066
0.000761182
0.00074628
0.000731428
0.000716678
0.000702066
0.00068761
0.000673312
0.000659157
0.000645125
0.000631207
0.000617425
0.000603845
0.000590583
0.000577767
0.000565483
0.000553674
0.000542057
0.000530092
0.000517062
0.000502333
0.000485762
0.000468115
0.000451279
0.000438066
0.000429094
0.000868396
0.000863211
0.000856162
0.000845832
0.00083377
0.000820597
0.000806701
0.000792346
0.000777714
0.000762937
0.000748111
0.000733311
0.000718593
0.000703998
0.000689548
0.000675246
0.000661082
0.000647036
0.000633099
0.000619291
0.000605682
0.000592386
0.000579539
0.000567225
0.000555394
0.000543765
0.000531792
0.000518752
0.000504
0.000487386
0.000469675
0.000452764
0.000439482
0.000430457
0.000859437
0.000854874
0.000846711
0.000835077
0.000821909
0.000808001
0.000793681
0.000779113
0.000764402
0.000749631
0.000734869
0.000720174
0.000705589
0.000691139
0.000676832
0.000662657
0.000648596
0.000634639
0.000620809
0.000607173
0.000593849
0.000580973
0.000568635
0.000556786
0.000545145
0.000533165
0.000520116
0.000505346
0.000488697
0.000470934
0.000453962
0.000440625
0.000431557
0.000856733
0.000851956
0.000844918
0.000834404
0.000822095
0.000808705
0.000794662
0.000780236
0.000765599
0.000750866
0.000736124
0.000721436
0.000706848
0.000692391
0.000678071
0.000663881
0.000649802
0.000635827
0.000621975
0.000608316
0.000594967
0.000582067
0.000569708
0.000557843
0.000546192
0.000534206
0.00052115
0.000506366
0.000489689
0.000471886
0.000454867
0.000441488
0.000432388
0.00084614
0.000841796
0.000833817
0.000822318
0.000809219
0.000795335
0.00078102
0.000766459
0.00075177
0.000737046
0.000722358
0.000707761
0.000693289
0.000678951
0.000664743
0.000650646
0.000636651
0.00062278
0.0006091
0.000595732
0.000582813
0.000570437
0.00055856
0.000546901
0.00053491
0.000521849
0.000507054
0.000490358
0.000472527
0.000455476
0.000442069
0.000432947
0.000842118
0.000837683
0.000830967
0.000820757
0.000808661
0.000795382
0.000781375
0.000766946
0.000752304
0.000737588
0.000722892
0.000708282
0.000693793
0.00067944
0.000665216
0.000651104
0.000637095
0.000623209
0.000609516
0.000596133
0.000583202
0.000570816
0.000558931
0.000547267
0.000535272
0.000522207
0.000507406
0.0004907
0.000472854
0.000455786
0.000442363
0.000433229
0.00083142
0.00082764
0.000819991
0.000808593
0.000795435
0.000781425
0.000766992
0.000752354
0.000737647
0.000722957
0.000708349
0.000693859
0.000679501
0.000665272
0.000651153
0.000637138
0.000623247
0.000609548
0.000596161
0.000583225
0.000570836
0.000558948
0.000547282
0.000535286
0.00052222
0.000507418
0.00049071
0.000472862
0.000455793
0.000442368
0.000433234
0.000828603
0.000824847
0.000817786
0.000807023
0.00079433
0.00078061
0.000766345
0.000751806
0.000737158
0.000722507
0.000707924
0.000693452
0.000679108
0.000664888
0.000650776
0.000636767
0.000622881
0.000609188
0.000595807
0.000582878
0.000570494
0.000558609
0.000546946
0.000534951
0.000521886
0.000507088
0.000490388
0.000472552
0.000455496
0.000442084
0.00043296
0.00082717
0.000823024
0.000815883
0.000805241
0.000792742
0.000779215
0.000765109
0.000750691
0.000736132
0.000721546
0.000707012
0.000692577
0.000678262
0.000664064
0.000649973
0.000635981
0.000622113
0.000608436
0.000595072
0.000582158
0.000569787
0.000557913
0.000546256
0.000534266
0.000521206
0.000506417
0.000489734
0.000471924
0.000454897
0.000441512
0.000432408
0.000826022
0.000821556
0.000814212
0.000803489
0.000790996
0.000777524
0.000763493
0.000749152
0.000734663
0.000720139
0.000705656
0.000691265
0.000676986
0.000662821
0.000648758
0.000634793
0.00062095
0.0006073
0.000593961
0.000581072
0.000568723
0.000556865
0.000545219
0.000533235
0.000520183
0.000505409
0.000488752
0.00047098
0.000453999
0.000440654
0.000431581
0.000824656
0.00081999
0.000812476
0.00080164
0.000789089
0.000775602
0.000761586
0.000747277
0.000732829
0.000718347
0.000703907
0.000689555
0.000675314
0.000661182
0.000647152
0.000633219
0.000619408
0.000605791
0.000592486
0.000579629
0.000567308
0.000555472
0.000543839
0.000531865
0.000518823
0.000504068
0.000487447
0.000469727
0.000452805
0.000439515
0.000430484
0.000822887
0.000818104
0.000810471
0.000799543
0.000786932
0.000773413
0.000759387
0.000745087
0.00073066
0.000716206
0.000701798
0.00068748
0.000673272
0.000659174
0.000645177
0.000631278
0.000617504
0.000603926
0.00059066
0.000577841
0.000565553
0.000553742
0.000542127
0.000530163
0.000517134
0.000502404
0.000485826
0.000468169
0.000451323
0.0004381
0.000429121
0.000820669
0.000815812
0.000808097
0.000797104
0.000784447
0.000770902
0.000756867
0.00074257
0.000728156
0.000713725
0.000699343
0.000685055
0.000670878
0.000656813
0.00064285
0.000628987
0.000615252
0.000601717
0.000588496
0.00057572
0.00056347
0.000551688
0.000540091
0.00052814
0.000515126
0.000500424
0.000483898
0.000466317
0.000449559
0.000436416
0.000427501
0.000818009
0.000813098
0.000805321
0.000794282
0.000781596
0.000768036
0.000753998
0.000739709
0.000725311
0.000710901
0.000696546
0.000682287
0.000668142
0.00065411
0.000640182
0.000626358
0.000612665
0.000599176
0.000586004
0.000573276
0.000561068
0.000549318
0.000537742
0.000525805
0.000512808
0.000498138
0.000481672
0.000464178
0.000447522
0.000434473
0.00042563
0.000814932
0.000809973
0.000802143
0.00079107
0.000778368
0.000764803
0.000750772
0.000736496
0.000722119
0.000707735
0.00069341
0.000679182
0.000665071
0.000651074
0.000637184
0.000623401
0.000609754
0.000596316
0.000583197
0.000570521
0.000558358
0.000546643
0.00053509
0.000523169
0.00051019
0.000495557
0.000479157
0.000461761
0.000445221
0.000432278
0.000423518
0.000811468
0.00080646
0.000798581
0.000787481
0.000774769
0.000761208
0.00074719
0.000732935
0.000718584
0.000704231
0.000689939
0.000675747
0.000661672
0.000647713
0.000633864
0.000620126
0.000606529
0.000593145
0.000580083
0.000567463
0.00055535
0.000543672
0.000532144
0.00052024
0.000507282
0.00049269
0.000476364
0.000459078
0.000442666
0.000429841
0.000421173
0.000807647
0.000802586
0.000794658
0.000783534
0.000770816
0.000757264
0.000743265
0.000729036
0.000714716
0.000700397
0.000686143
0.00067199
0.000657955
0.000644038
0.000630233
0.000616543
0.000602999
0.000589673
0.000576673
0.000564113
0.000552052
0.000540415
0.000528915
0.000517029
0.000504095
0.000489549
0.000473305
0.000456138
0.000439867
0.000427172
0.000418606
0.000803496
0.000798379
0.0007904
0.000779252
0.000766533
0.000752992
0.000739014