/*--------------------------------*- C++ -*----------------------------------*\
  =========                 |
  \\      /  F ield         | OpenFOAM: The Open Source CFD Toolbox
   \\    /   O peration     | Website:  https://openfoam.org
    \\  /    A nd           | Version:  7
     \\/     M anipulation  |
\*---------------------------------------------------------------------------*/
FoamFile
{
    version     2.0;
    format      ascii;
    class       volScalarField;
    location    "20000";
    object      omega;
}
// * * * * * * * * * * * * * * * * * * * * * * * * * * * * * * * * * * * * * //

dimensions      [0 0 -1 0 0 0 0];

internalField   nonuniform List<scalar> 
4844
(
0.0398451
0.0398536
0.0398626
0.039873
0.0398814
0.0398903
0.0399001
0.0399101
0.0399207
0.0399319
0.0399436
0.039901
0.0399092
0.039918
0.0399276
0.0399376
0.0399482
0.0399593
0.039971
0.0399837
0.0399964
0.0400095
0.039929
0.0399371
0.0399458
0.0399552
0.0399651
0.0399756
0.0399867
0.0399986
0.0400112
0.0400241
0.0400375
0.0400517
0.0400658
0.0400802
0.0400949
0.0401098
0.0399573
0.039965
0.0399735
0.0399828
0.0399927
0.0400032
0.0400144
0.0400263
0.0400389
0.040052
0.0400656
0.0400798
0.0400942
0.0401087
0.0401236
0.0401385
0.0399861
0.0399931
0.0400014
0.0400106
0.0400204
0.040031
0.0400423
0.0400543
0.040067
0.0400801
0.0400939
0.0401082
0.0401227
0.0401375
0.0401524
0.0401674
0.0400215
0.0400296
0.0400387
0.0400485
0.0400591
0.0400705
0.0400826
0.0400953
0.0401086
0.0401225
0.0401369
0.0401515
0.0401664
0.0401815
0.0401966
0.0400501
0.0400581
0.0400671
0.040077
0.0400876
0.0400991
0.0401112
0.0401241
0.0401375
0.0401515
0.0401659
0.0401807
0.0401957
0.0402109
0.0402261
0.040079
0.0400869
0.0400959
0.0401058
0.0401165
0.040128
0.0401403
0.0401532
0.0401667
0.0401808
0.0401954
0.0402103
0.0402254
0.0402407
0.0402561
0.0401012
0.040108
0.040116
0.0401251
0.040135
0.0401458
0.0401574
0.0401698
0.0401828
0.0401964
0.0402106
0.0402253
0.0402403
0.0402555
0.040271
0.0402866
0.0401303
0.0401375
0.0401456
0.0401547
0.0401647
0.0401756
0.0401872
0.0401997
0.0402128
0.0402265
0.0402408
0.0402556
0.0402707
0.0402861
0.0403017
0.0403175
0.04016
0.0401673
0.0401755
0.0401847
0.0401948
0.0402057
0.0402175
0.04023
0.0402433
0.0402571
0.0402715
0.0402864
0.0403016
0.0403172
0.040333
0.040349
0.0401902
0.0401975
0.0402058
0.0402151
0.0402253
0.0402364
0.0402482
0.0402609
0.0402742
0.0402882
0.0403027
0.0403177
0.0403331
0.0403488
0.0403647
0.0403809
0.0402143
0.0402208
0.0402282
0.0402366
0.040246
0.0402563
0.0402674
0.0402794
0.0402922
0.0403056
0.0403197
0.0403343
0.0403495
0.040365
0.0403809
0.040397
0.0404135
0.040245
0.0402518
0.0402593
0.0402679
0.0402774
0.0402877
0.040299
0.0403111
0.0403239
0.0403375
0.0403517
0.0403665
0.0403818
0.0403975
0.0404135
0.0404299
0.0404465
0.0402691
0.0402762
0.0402832
0.0402909
0.0402996
0.0403092
0.0403197
0.0403311
0.0403433
0.0403562
0.0403699
0.0403843
0.0403992
0.0404146
0.0404305
0.0404467
0.0404633
0.0404802
0.0403006
0.0403078
0.040315
0.0403229
0.0403318
0.0403415
0.0403521
0.0403636
0.040376
0.0403891
0.0404029
0.0404173
0.0404324
0.040448
0.040464
0.0404804
0.0404972
0.0405144
0.0403326
0.0403398
0.0403473
0.0403555
0.0403644
0.0403743
0.0403851
0.0403967
0.0404092
0.0404224
0.0404363
0.040451
0.0404662
0.0404819
0.0404981
0.0405148
0.0405318
0.0405491
0.0403651
0.0403725
0.0403801
0.0403885
0.0403976
0.0404076
0.0404185
0.0404303
0.0404429
0.0404563
0.0404704
0.0404851
0.0405005
0.0405164
0.0405328
0.0405497
0.0405669
0.0405845
0.0403982
0.0404057
0.0404135
0.040422
0.0404313
0.0404415
0.0404525
0.0404644
0.0404772
0.0404907
0.0405049
0.0405199
0.0405354
0.0405515
0.0405681
0.0405852
0.0406026
0.0406205
0.040432
0.0404394
0.0404474
0.0404561
0.0404656
0.0404759
0.0404871
0.0404991
0.040512
0.0405257
0.0405401
0.0405552
0.0405709
0.0405872
0.040604
0.0406213
0.040639
0.0406571
0.0404663
0.0404738
0.0404819
0.0404907
0.0405004
0.0405108
0.0405222
0.0405344
0.0405474
0.0405613
0.0405758
0.0405911
0.040607
0.0406235
0.0406405
0.040658
0.0406759
0.0406943
0.0405012
0.0405088
0.040517
0.0405259
0.0405357
0.0405464
0.0405579
0.0405702
0.0405834
0.0405974
0.0406122
0.0406276
0.0406437
0.0406604
0.0406776
0.0406953
0.0407135
0.0407321
0.0405367
0.0405443
0.0405526
0.0405617
0.0405717
0.0405825
0.0405941
0.0406067
0.04062
0.0406342
0.0406491
0.0406647
0.040681
0.0406979
0.0407154
0.0407333
0.0407518
0.0407706
0.0405729
0.0405805
0.0405889
0.0405981
0.0406082
0.0406192
0.040631
0.0406437
0.0406572
0.0406716
0.0406867
0.0407025
0.040719
0.0407361
0.0407538
0.040772
0.0407906
0.0408097
0.0406097
0.0406174
0.0406258
0.0406352
0.0406454
0.0406565
0.0406685
0.0406814
0.0406951
0.0407096
0.0407249
0.0407409
0.0407576
0.0407749
0.0407928
0.0408113
0.0408302
0.0408496
0.0406473
0.0406549
0.0406634
0.0406729
0.0406832
0.0406945
0.0407066
0.0407197
0.0407335
0.0407483
0.0407637
0.04078
0.0407969
0.0408144
0.0408326
0.0408513
0.0408704
0.0408901
0.0406857
0.0406931
0.0407016
0.0407112
0.0407217
0.0407331
0.0407454
0.0407586
0.0407727
0.0407876
0.0408032
0.0408197
0.0408368
0.0408546
0.040873
0.0408919
0.0409114
0.0409313
0.0407248
0.040732
0.0407406
0.0407502
0.0407608
0.0407723
0.0407848
0.0407982
0.0408124
0.0408275
0.0408434
0.0408601
0.0408775
0.0408955
0.0409141
0.0409333
0.040953
0.0409732
0.0407645
0.0407716
0.0407802
0.0407898
0.0408005
0.0408122
0.0408249
0.0408385
0.0408529
0.0408682
0.0408843
0.0409012
0.0409188
0.0409371
0.0409559
0.0409754
0.0409954
0.0410158
0.0408
0.0408049
0.0408119
0.0408204
0.0408302
0.040841
0.0408528
0.0408657
0.0408794
0.040894
0.0409095
0.0409259
0.040943
0.0409608
0.0409793
0.0409985
0.0410182
0.0410384
0.0410591
0.0408405
0.0408457
0.0408528
0.0408614
0.0408712
0.0408822
0.0408941
0.0409071
0.0409211
0.0409359
0.0409516
0.0409682
0.0409855
0.0410036
0.0410224
0.0410418
0.0410618
0.0410823
0.0411032
0.0408752
0.0408815
0.0408872
0.0408944
0.040903
0.0409129
0.040924
0.0409361
0.0409493
0.0409634
0.0409785
0.0409944
0.0410112
0.0410288
0.0410471
0.0410661
0.0410858
0.0411061
0.0411269
0.0411481
0.0409167
0.0409231
0.0409292
0.0409366
0.0409453
0.0409554
0.0409666
0.0409789
0.0409922
0.0410065
0.0410217
0.0410379
0.0410549
0.0410727
0.0410913
0.0411106
0.0411306
0.0411512
0.0411722
0.0411937
0.0409587
0.0409653
0.0409718
0.0409794
0.0409883
0.0409985
0.0410098
0.0410223
0.0410358
0.0410503
0.0410658
0.0410821
0.0410994
0.0411175
0.0411363
0.0411559
0.0411762
0.041197
0.0412183
0.0412401
0.0410015
0.0410082
0.0410151
0.041023
0.0410321
0.0410424
0.0410539
0.0410665
0.0410802
0.0410949
0.0411106
0.0411272
0.0411447
0.041163
0.0411821
0.041202
0.0412225
0.0412436
0.0412653
0.0412873
0.0410449
0.0410519
0.0410591
0.0410672
0.0410765
0.041087
0.0410986
0.0411114
0.0411253
0.0411402
0.0411561
0.0411729
0.0411907
0.0412093
0.0412287
0.0412489
0.0412697
0.0412911
0.041313
0.0413354
0.0410892
0.0410964
0.0411039
0.0411122
0.0411217
0.0411323
0.0411441
0.0411571
0.0411712
0.0411863
0.0412024
0.0412195
0.0412375
0.0412564
0.0412761
0.0412965
0.0413177
0.0413394
0.0413616
0.0413843
0.0411343
0.0411416
0.0411493
0.0411579
0.0411676
0.0411784
0.0411904
0.0412036
0.0412178
0.0412332
0.0412495
0.0412669
0.0412852
0.0413043
0.0413243
0.041345
0.0413665
0.0413885
0.0414111
0.041434
0.0411803
0.0411877
0.0411956
0.0412044
0.0412143
0.0412253
0.0412375
0.0412508
0.0412653
0.0412809
0.0412975
0.0413151
0.0413336
0.0413531
0.0413734
0.0413944
0.0414162
0.0414385
0.0414614
0.0414847
0.0412271
0.0412346
0.0412427
0.0412517
0.0412618
0.041273
0.0412854
0.0412989
0.0413136
0.0413294
0.0413463
0.0413641
0.0413829
0.0414027
0.0414233
0.0414447
0.0414667
0.0414894
0.0415126
0.0415362
0.0412747
0.0412823
0.0412906
0.0412998
0.0413101
0.0413215
0.0413341
0.0413479
0.0413628
0.0413788
0.0413959
0.041414
0.0414331
0.0414532
0.0414741
0.0414958
0.0415182
0.0415412
0.0415647
0.0415885
0.0413232
0.0413309
0.0413394
0.0413488
0.0413593
0.0413709
0.0413837
0.0413977
0.0414128
0.0414291
0.0414464
0.0414648
0.0414842
0.0415046
0.0415258
0.0415478
0.0415705
0.0415938
0.0416176
0.0416418
0.0413725
0.0413803
0.041389
0.0413986
0.0414093
0.0414211
0.0414341
0.0414483
0.0414637
0.0414802
0.0414978
0.0415165
0.0415362
0.0415568
0.0415784
0.0416007
0.0416237
0.0416473
0.0416714
0.0416958
0.0414227
0.0414306
0.0414394
0.0414493
0.0414601
0.0414722
0.0414854
0.0414998
0.0415154
0.0415322
0.0415501
0.041569
0.041589
0.0416099
0.0416318
0.0416544
0.0416778
0.0417017
0.041726
0.0417507
0.0414737
0.0414817
0.0414907
0.0415007
0.0415118
0.041524
0.0415375
0.0415521
0.041568
0.041585
0.0416031
0.0416224
0.0416426
0.0416639
0.041686
0.041709
0.0417326
0.0417569
0.0417815
0.0418064
0.0415255
0.0415337
0.0415428
0.041553
0.0415642
0.0415767
0.0415904
0.0416053
0.0416213
0.0416386
0.041657
0.0416765
0.0416971
0.0417186
0.0417411
0.0417644
0.0417884
0.041813
0.041838
0.0418633
0.0415782
0.0415864
0.0415957
0.0416061
0.0416175
0.0416302
0.0416441
0.0416592
0.0416755
0.041693
0.0417117
0.0417315
0.0417523
0.0417742
0.041797
0.0418207
0.0418451
0.0418701
0.0418955
0.0419214
0.0416318
0.0416401
0.0416495
0.04166
0.0416716
0.0416845
0.0416986
0.0417139
0.0417304
0.0417482
0.0417672
0.0417873
0.0418085
0.0418307
0.0418539
0.041878
0.0419029
0.0419284
0.0419544
0.0419811
0.0416864
0.0416949
0.0417044
0.0417151
0.0417268
0.0417398
0.0417541
0.0417696
0.0417864
0.0418044
0.0418237
0.0418442
0.0418658
0.0418884
0.0419121
0.0419367
0.0419621
0.0419882
0.042015
0.0420426
0.0417425
0.041751
0.0417607
0.0417715
0.0417832
0.0417963
0.0418108
0.0418267
0.0418436
0.0418619
0.0418816
0.0419024
0.0419245
0.0419477
0.0419719
0.0419971
0.0420231
0.0420499
0.0420774
0.042106
0.0418002
0.0418089
0.0418187
0.0418296
0.0418412
0.0418545
0.0418693
0.0418853
0.0419024
0.0419211
0.0419411
0.0419625
0.0419851
0.0420088
0.0420336
0.0420594
0.0420861
0.0421136
0.0421418
0.0421713
0.0418599
0.0418687
0.0418787
0.0418897
0.0419012
0.0419147
0.0419298
0.0419461
0.0419633
0.0419823
0.0420028
0.0420247
0.0420478
0.0420722
0.0420976
0.0421239
0.0421512
0.0421791
0.0422078
0.0422377
0.0419215
0.0419305
0.0419407
0.041952
0.0419634
0.0419772
0.0419926
0.0420093
0.0420265
0.0420459
0.0420669
0.0420893
0.0421129
0.0421377
0.0421636
0.0421903
0.0422178
0.0422459
0.0422746
0.0423043
0.041985
0.0419942
0.0420046
0.0420161
0.0420278
0.042042
0.0420577
0.0420747
0.0420921
0.0421118
0.0421332
0.0421559
0.0421799
0.042205
0.042231
0.0422577
0.0422851
0.0423129
0.0423411
0.0423698
0.0420938
0.0421084
0.0421243
0.0421416
0.0421593
0.0421793
0.0422008
0.0422237
0.0422476
0.0422726
0.0422983
0.0423247
0.0423514
0.0423785
0.0424058
0.0424329
0.0422267
0.0422468
0.0422682
0.0422908
0.0423143
0.0423388
0.0423638
0.0423894
0.0424154
0.0424416
0.0424679
0.0424937
0.0402274
0.0402116
0.0402583
0.0402426
0.0402893
0.0402737
0.0403206
0.040305
0.0402899
0.0403522
0.0403366
0.0403213
0.0403843
0.0403686
0.0403531
0.0403372
0.0404169
0.040401
0.0403853
0.0403694
0.04045
0.0404339
0.0404179
0.0404021
0.0404836
0.0404673
0.0404511
0.0404351
0.0404191
0.0405177
0.0405012
0.0404849
0.0404687
0.0404525
0.0405525
0.0405357
0.0405192
0.0405028
0.0404866
0.0405878
0.0405708
0.0405541
0.0405376
0.0405214
0.0406237
0.0406065
0.0405896
0.040573
0.0405568
0.0406602
0.0406428
0.0406257
0.0406091
0.040593
0.0406974
0.0406798
0.0406625
0.0406457
0.0406296
0.0406147
0.0407352
0.0407174
0.0406999
0.040683
0.0406668
0.0406517
0.0407737
0.0407556
0.040738
0.0407209
0.0407045
0.0406891
0.0406734
0.0408129
0.0407945
0.0407767
0.0407594
0.0407428
0.0407271
0.0407113
0.0406944
0.0408527
0.0408341
0.040816
0.0407985
0.0407817
0.0407656
0.0407497
0.040733
0.0407153
0.0408933
0.0408744
0.0408561
0.0408383
0.0408212
0.0408047
0.0407885
0.0407718
0.0407544
0.040736
0.0409345
0.0409154
0.0408968
0.0408787
0.0408613
0.0408445
0.0408279
0.0408111
0.0407937
0.0407755
0.0409764
0.040957
0.0409381
0.0409198
0.0409021
0.0408849
0.040868
0.0408509
0.0408335
0.0408153
0.041019
0.0409993
0.0409802
0.0409615
0.0409435
0.0409259
0.0409087
0.0408914
0.0408738
0.0408557
0.0410623
0.0410423
0.0410229
0.0410039
0.0409855
0.0409676
0.04095
0.0409325
0.0409147
0.0408966
0.0411063
0.0410861
0.0410663
0.041047
0.0410283
0.04101
0.0409921
0.0409743
0.0409564
0.0409383
0.0411511
0.0411306
0.0411105
0.0410909
0.0410718
0.0410532
0.041035
0.0410169
0.0409988
0.0409806
0.041197
0.0411761
0.0411557
0.0411358
0.0411163
0.0410974
0.0410788
0.0410604
0.0410421
0.0410239
0.041244
0.0412228
0.041202
0.0411818
0.041162
0.0411427
0.0411238
0.0411051
0.0410866
0.0410683
0.0412924
0.0412709
0.0412498
0.0412292
0.041209
0.0411894
0.0411701
0.0411512
0.0411325
0.041114
0.0413424
0.0413205
0.041299
0.041278
0.0412576
0.0412376
0.041218
0.0411987
0.0411798
0.0411612
0.0413937
0.0413715
0.0413496
0.0413283
0.0413075
0.0412871
0.0412672
0.0412476
0.0412285
0.0412097
0.0414459
0.0414234
0.0414013
0.0413796
0.0413584
0.0413377
0.0413174
0.0412976
0.0412782
0.0412592
0.0402275
0.0402582
0.0402891
0.0403203
0.040352
0.040384
0.0404166
0.0404497
0.0404833
0.0405175
0.0405522
0.0405875
0.0406234
0.04066
0.0406971
0.0407349
0.0407734
0.0408125
0.0408524
0.0408929
0.0409341
0.040976
0.0410187
0.041062
0.041106
0.0411508
0.0411966
0.0412435
0.0412918
0.0413415
0.0413926
0.0414448
0.0402117
0.0402424
0.0402732
0.0403043
0.0403357
0.0403676
0.0404
0.0404329
0.0404663
0.0405003
0.0405348
0.0405699
0.0406056
0.0406419
0.0406789
0.0407164
0.0407546
0.0407935
0.040833
0.0408733
0.0409142
0.0409559
0.0409982
0.0410413
0.0410851
0.0411296
0.041175
0.0412213
0.0412687
0.0413174
0.0413674
0.0414188
0.0414713
0.0401962
0.0402267
0.0402574
0.0402883
0.0403197
0.0403514
0.0403837
0.0404164
0.0404496
0.0404834
0.0405178
0.0405527
0.0405881
0.0406242
0.0406609
0.0406983
0.0407362
0.0407748
0.0408141
0.0408541
0.0408948
0.0409361
0.0409782
0.041021
0.0410646
0.0411088
0.0411539
0.0411997
0.0412464
0.041294
0.0413427
0.0413925
0.0414434
0.0414956
0.041549
0.0416037
0.0416594
0.0417158
0.0401809
0.0402113
0.0402419
0.0402727
0.0403039
0.0403355
0.0403676
0.0404002
0.0404333
0.0404669
0.040501
0.0405357
0.040571
0.0406069
0.0406434
0.0406805
0.0407183
0.0407567
0.0407957
0.0408354
0.0408758
0.0409169
0.0409588
0.0410013
0.0410446
0.0410886
0.0411334
0.0411789
0.0412252
0.0412723
0.0413203
0.0413693
0.0414195
0.0414709
0.0415239
0.0415784
0.0416343
0.041691
0.0401661
0.0401963
0.0402267
0.0402574
0.0402885
0.04032
0.0403519
0.0403843
0.0404172
0.0404507
0.0404847
0.0405192
0.0405544
0.0405901
0.0406264
0.0406633
0.0407008
0.040739
0.0407778
0.0408173
0.0408575
0.0408983
0.0409399
0.0409822
0.0410252
0.041069
0.0411135
0.0411588
0.0412048
0.0412516
0.0412992
0.0413477
0.0413973
0.0414481
0.0415005
0.0415545
0.04161
0.0416666
0.0401517
0.0401817
0.040212
0.0402426
0.0402735
0.0403048
0.0403366
0.0403689
0.0404017
0.040435
0.0404688
0.0405032
0.0405382
0.0405737
0.0406098
0.0406465
0.0406839
0.0407219
0.0407605
0.0407998
0.0408397
0.0408803
0.0409217
0.0409637
0.0410065
0.04105
0.0410943
0.0411394
0.0411851
0.0412316
0.0412789
0.041327
0.0413761
0.0414264
0.0414781
0.0415313
0.0415862
0.0416424
0.0416995
0.0401377
0.0401676
0.0401978
0.0402282
0.040259
0.0402902
0.0403219
0.0403541
0.0403867
0.0404199
0.0404535
0.0404878
0.0405226
0.0405579
0.0405939
0.0406304
0.0406676
0.0407054
0.0407438
0.0407829
0.0408226
0.040863
0.0409041
0.0409459
0.0409885
0.0410318
0.0410758
0.0411206
0.0411662
0.0412124
0.0412594
0.0413073
0.041356
0.0414059
0.0414571
0.0415099
0.0415643
0.0416201
0.0416769
0.0401241
0.040154
0.0401841
0.0402144
0.0402451
0.0402762
0.0403078
0.0403398
0.0403723
0.0404053
0.0404389
0.0404729
0.0405076
0.0405428
0.0405786
0.0406149
0.0406519
0.0406895
0.0407278
0.0407666
0.0408062
0.0408464
0.0408873
0.0409289
0.0409712
0.0410143
0.0410581
0.0411027
0.041148
0.041194
0.0412408
0.0412883
0.0413368
0.0413864
0.0414373
0.0414897
0.0415437
0.0415991
0.0416556
0.0401111
0.0401409
0.0401709
0.0402012
0.0402318
0.0402628
0.0402943
0.0403262
0.0403586
0.0403915
0.0404249
0.0404588
0.0404933
0.0405283
0.0405639
0.0406002
0.040637
0.0406744
0.0407125
0.0407512
0.0407905
0.0408305
0.0408712
0.0409126
0.0409547
0.0409976
0.0410412
0.0410855
0.0411306
0.0411764
0.0412229
0.0412703
0.0413185
0.0413678
0.0414184
0.0414705
0.0415242
0.0415793
0.0416354
0.0400986
0.0401284
0.0401584
0.0401886
0.0402192
0.0402501
0.0402815
0.0403133
0.0403455
0.0403783
0.0404116
0.0404454
0.0404797
0.0405146
0.0405501
0.0405861
0.0406228
0.04066
0.0406979
0.0407365
0.0407756
0.0408155
0.040856
0.0408972
0.0409391
0.0409817
0.0410251
0.0410692
0.0411141
0.0411597
0.041206
0.0412531
0.041301
0.0413501
0.0414004
0.0414522
0.0415056
0.0415605
0.0416163
0.0400868
0.0401166
0.0401466
0.0401768
0.0402073
0.0402382
0.0402694
0.0403011
0.0403333
0.0403659
0.0403991
0.0404327
0.0404669
0.0405017
0.040537
0.0405729
0.0406094
0.0406465
0.0406842
0.0407226
0.0407616
0.0408012
0.0408416
0.0408826
0.0409243
0.0409668
0.0410099
0.0410539
0.0410985
0.0411439
0.0411899
0.0412368
0.0412845
0.0413333
0.0413834
0.041435
0.0414881
0.0415427
0.0415983
0.0401059
0.0401358
0.040166
0.0401964
0.0402271
0.0402582
0.0402898
0.0403218
0.0403543
0.0403873
0.0404209
0.0404549
0.0404896
0.0405247
0.0405605
0.0405968
0.0406338
0.0406713
0.0407095
0.0407484
0.0407879
0.040828
0.0408689
0.0409104
0.0409527
0.0409957
0.0410394
0.0410838
0.041129
0.0411749
0.0412215
0.041269
0.0413176
0.0413674
0.0414187
0.0414716
0.041526
0.0415813
0.0401256
0.0401558
0.0401862
0.0402168
0.0402478
0.0402793
0.0403112
0.0403436
0.0403765
0.0404099
0.0404438
0.0404783
0.0405133
0.0405489
0.0405851
0.0406219
0.0406593
0.0406974
0.040736
0.0407754
0.0408154
0.040856
0.0408974
0.0409395
0.0409823
0.0410259
0.0410701
0.0411151
0.0411608
0.0412072
0.0412546
0.0413029
0.0413525
0.0414036
0.0414562
0.0415103
0.0415655
0.0401155
0.0401459
0.0401764
0.0402071
0.0402381
0.0402695
0.0403013
0.0403336
0.0403664
0.0403997
0.0404335
0.0404678
0.0405027
0.0405382
0.0405743
0.0406109
0.0406482
0.0406861
0.0407246
0.0407638
0.0408037
0.0408442
0.0408854
0.0409273
0.04097
0.0410134
0.0410574
0.0411022
0.0411478
0.041194
0.0412411
0.0412893
0.0413386
0.0413895
0.0414419
0.0414958
0.0415507
0.0401369
0.0401675
0.0401982
0.0402291
0.0402605
0.0402922
0.0403244
0.0403571
0.0403903
0.040424
0.0404582
0.040493
0.0405284
0.0405643
0.0406009
0.040638
0.0406758
0.0407142
0.0407532
0.0407929
0.0408333
0.0408743
0.0409161
0.0409586
0.0410018
0.0410458
0.0410904
0.0411357
0.0411818
0.0412288
0.0412767
0.0413259
0.0413766
0.0414288
0.0414825
0.0415372
0.0401282
0.0401589
0.0401898
0.0402209
0.0402522
0.0402839
0.0403161
0.0403487
0.0403818
0.0404154
0.0404495
0.0404842
0.0405194
0.0405552
0.0405917
0.0406287
0.0406663
0.0407046
0.0407435
0.0407831
0.0408233
0.0408643
0.0409059
0.0409483
0.0409913
0.0410351
0.0410796
0.0411248
0.0411707
0.0412175
0.0412653
0.0413143
0.0413648
0.0414168
0.0414703
0.0415248
0.0401516
0.0401825
0.0402135
0.0402448
0.0402765
0.0403085
0.0403411
0.0403741
0.0404076
0.0404416
0.0404762
0.0405113
0.0405471
0.0405834
0.0406203
0.0406578
0.040696
0.0407348
0.0407742
0.0408144
0.0408552
0.0408967
0.0409389
0.0409819
0.0410255
0.0410699
0.041115
0.0411607
0.0412074
0.041255
0.0413038
0.0413541
0.041406
0.0414593
0.0415137
0.0401759
0.040207
0.0402383
0.0402698
0.0403018
0.0403343
0.0403672
0.0404006
0.0404346
0.0404691
0.0405042
0.0405398
0.040576
0.0406129
0.0406503
0.0406884
0.040727
0.0407664
0.0408064
0.0408471
0.0408885
0.0409306
0.0409735
0.041017
0.0410613
0.0411062
0.0411519
0.0411983
0.0412458
0.0412945
0.0413447
0.0413964
0.0414496
0.0415038
0.0401695
0.0402007
0.0402321
0.0402638
0.0402958
0.0403282
0.0403611
0.0403945
0.0404284
0.0404629
0.0404979
0.0405334
0.0405696
0.0406063
0.0406437
0.0406817
0.0407203
0.0407595
0.0407995
0.0408401
0.0408814
0.0409234
0.0409661
0.0410096
0.0410537
0.0410985
0.0411441
0.0411905
0.0412378
0.0412864
0.0413364
0.041388
0.0414411
0.0414952
0.0401639
0.0401953
0.0402267
0.0402584
0.0402905
0.0403229
0.0403558
0.0403892
0.0404231
0.0404575
0.0404925
0.040528
0.0405641
0.0406008
0.0406381
0.040676
0.0407145
0.0407537
0.0407935
0.0408341
0.0408753
0.0409172
0.0409599
0.0410032
0.0410473
0.041092
0.0411375
0.0411837
0.041231
0.0412794
0.0413294
0.0413808
0.0414338
0.0414878
0.0401593
0.0401907
0.0402223
0.040254
0.0402861
0.0403186
0.0403515
0.0403849
0.0404187
0.0404531
0.040488
0.0405235
0.0405595
0.0405962
0.0406334
0.0406713
0.0407097
0.0407489
0.0407886
0.0408291
0.0408703
0.0409121
0.0409547
0.040998
0.0410419
0.0410866
0.041132
0.0411782
0.0412253
0.0412737
0.0413235
0.0413749
0.0414277
0.0414816
0.0401875
0.040219
0.0402508
0.0402828
0.0403153
0.0403481
0.0403815
0.0404153
0.0404497
0.0404845
0.04052
0.040556
0.0405926
0.0406298
0.0406675
0.040706
0.040745
0.0407848
0.0408252
0.0408663
0.0409081
0.0409506
0.0409938
0.0410377
0.0410823
0.0411276
0.0411737
0.0412208
0.0412691
0.0413189
0.0413702
0.0414229
0.0414768
0.0401846
0.0402163
0.0402482
0.0402804
0.0403128
0.0403457
0.0403791
0.0404129
0.0404472
0.040482
0.0405174
0.0405534
0.0405899
0.0406271
0.0406649
0.0407032
0.0407423
0.0407819
0.0408223
0.0408634
0.0409051
0.0409476
0.0409908
0.0410346
0.0410792
0.0411244
0.0411705
0.0412175
0.0412658
0.0413154
0.0413667
0.0414194
0.0414732
0.0402149
0.0402468
0.040279
0.0403114
0.0403443
0.0403776
0.0404114
0.0404457
0.0404805
0.0405159
0.0405518
0.0405883
0.0406254
0.0406632
0.0407015
0.0407405
0.0407802
0.0408205
0.0408615
0.0409032
0.0409457
0.0409888
0.0410326
0.0410772
0.0411224
0.0411684
0.0412154
0.0412636
0.0413133
0.0413645
0.0414171
0.0414708
0.0402138
0.040246
0.0402783
0.0403109
0.0403438
0.0403771
0.0404108
0.0404451
0.0404799
0.0405153
0.0405512
0.0405877
0.0406248
0.0406625
0.0407008
0.0407398
0.0407794
0.0408197
0.0408607
0.0409024
0.0409449
0.040988
0.0410318
0.0410763
0.0411215
0.0411675
0.0412145
0.0412627
0.0413123
0.0413635
0.0414161
0.0414698
0.0402464
0.0402787
0.0403113
0.0403442
0.0403775
0.0404112
0.0404455
0.0404802
0.0405156
0.0405515
0.040588
0.0406251
0.0406628
0.0407011
0.0407401
0.0407797
0.04082
0.040861
0.0409027
0.0409451
0.0409883
0.0410321
0.0410765
0.0411218
0.0411678
0.0412147
0.0412629
0.0413125
0.0413637
0.0414164
0.0414701
0.0402471
0.0402797
0.0403123
0.0403453
0.0403786
0.0404124
0.0404467
0.0404815
0.0405168
0.0405527
0.0405892
0.0406263
0.040664
0.0407024
0.0407414
0.040781
0.0408213
0.0408623
0.0409041
0.0409465
0.0409896
0.0410334
0.041078
0.0411232
0.0411692
0.0412162
0.0412644
0.041314
0.0413652
0.0414179
0.0414716
0.0402488
0.0402814
0.0403142
0.0403472
0.0403806
0.0404144
0.0404487
0.0404836
0.040519
0.0405549
0.0405914
0.0406286
0.0406663
0.0407047
0.0407437
0.0407834
0.0408237
0.0408647
0.0409065
0.040949
0.0409921
0.041036
0.0410805
0.0411257
0.0411718
0.0412188
0.0412671
0.0413167
0.041368
0.0414207
0.0414744
0.0402515
0.0402841
0.0403169
0.04035
0.0403835
0.0404173
0.0404517
0.0404866
0.040522
0.040558
0.0405946
0.0406318
0.0406696
0.040708
0.040747
0.0407867
0.0408271
0.0408682
0.04091
0.0409525
0.0409957
0.0410396
0.0410842
0.0411295
0.0411756
0.0412226
0.0412709
0.0413207
0.041372
0.0414247
0.0414785
0.0402551
0.0402877
0.0403206
0.0403537
0.0403872
0.0404212
0.0404556
0.0404906
0.040526
0.0405621
0.0405987
0.040636
0.0406738
0.0407122
0.0407514
0.0407911
0.0408316
0.0408727
0.0409146
0.0409571
0.0410004
0.0410443
0.041089
0.0411343
0.0411805
0.0412277
0.041276
0.0413258
0.0413772
0.04143
0.0414839
0.0402596
0.0402923
0.0403252
0.0403584
0.0403919
0.040426
0.0404604
0.0404955
0.040531
0.0405671
0.0406038
0.0406411
0.040679
0.0407175
0.0407567
0.0407965
0.040837
0.0408783
0.0409202
0.0409628
0.0410062
0.0410502
0.0410949
0.0411403
0.0411866
0.0412338
0.0412823
0.0413322
0.0413836
0.0414366
0.0414905
0.040265
0.0402978
0.0403307
0.040364
0.0403976
0.0404317
0.0404662
0.0405013
0.0405369
0.0405731
0.0406099
0.0406472
0.0406852
0.0407238
0.0407631
0.040803
0.0408436
0.0408849
0.0409269
0.0409696
0.041013
0.0410571
0.0411019
0.0411475
0.0411938
0.0412412
0.0412897
0.0413397
0.0413913
0.0414443
0.0414984
0.0402713
0.0403042
0.0403372
0.0403705
0.0404041
0.0404383
0.0404729
0.0405081
0.0405438
0.04058
0.0406169
0.0406543
0.0406924
0.0407311
0.0407704
0.0408104
0.0408511
0.0408925
0.0409346
0.0409774
0.041021
0.0410652
0.0411101
0.0411557
0.0412022
0.0412497
0.0412983
0.0413485
0.0414002
0.0414534
0.0415076
0.0402785
0.0403114
0.0403445
0.0403779
0.0404116
0.0404458
0.0404805
0.0405158
0.0405516
0.0405879
0.0406249
0.0406624
0.0407006
0.0407393
0.0407788
0.0408189
0.0408597
0.0409012
0.0409434
0.0409863
0.04103
0.0410743
0.0411193
0.0411651
0.0412117
0.0412593
0.0413081
0.0413584
0.0414103
0.0414636
0.0415179
0.0402866
0.0403195
0.0403527
0.0403861
0.04042
0.0404543
0.0404891
0.0405244
0.0405603
0.0405967
0.0406338
0.0406714
0.0407097
0.0407486
0.0407881
0.0408284
0.0408693
0.0409109
0.0409532
0.0409963
0.04104
0.0410845
0.0411297
0.0411756
0.0412223
0.0412701
0.0413191
0.0413695
0.0414216
0.041475
0.0415295
0.0402955
0.0403285
0.0403617
0.0403953
0.0404292
0.0404636
0.0404985
0.0405339
0.0405699
0.0406065
0.0406436
0.0406814
0.0407198
0.0407588
0.0407984
0.0408388
0.0408798
0.0409216
0.0409641
0.0410073
0.0410512
0.0410958
0.0411411
0.0411872
0.0412341
0.041282
0.0413312
0.0413818
0.041434
0.0414877
0.0415424
0.0403052
0.0403383
0.0403716
0.0404052
0.0404393
0.0404738
0.0405088
0.0405443
0.0405804
0.0406171
0.0406544
0.0406922
0.0407308
0.0407699
0.0408097
0.0408502
0.0408914
0.0409333
0.0409759
0.0410193
0.0410633
0.0411081
0.0411536
0.0411998
0.0412469
0.041295
0.0413444
0.0413952
0.0414476
0.0415015
0.0415564
0.0403156
0.0403489
0.0403823
0.040416
0.0404502
0.0404848
0.0405199
0.0405556
0.0405918
0.0406286
0.040666
0.040704
0.0407427
0.040782
0.0408219
0.0408626
0.0409039
0.040946
0.0409888
0.0410323
0.0410765
0.0411215
0.0411671
0.0412135
0.0412608
0.0413091
0.0413587
0.0414097
0.0414624
0.0415164
0.0415715
0.0403269
0.0403602
0.0403938
0.0404276
0.0404619
0.0404966
0.0405319
0.0405677
0.040604
0.040641
0.0406785
0.0407167
0.0407555
0.0407949
0.040835
0.0408759
0.0409174
0.0409596
0.0410026
0.0410463
0.0410907
0.0411358
0.0411817
0.0412283
0.0412758
0.0413243
0.0413741
0.0414254
0.0414782
0.0415325
0.0415879
0.0403389
0.0403723
0.040406
0.04044
0.0404744
0.0405092
0.0405446
0.0405805
0.0406171
0.0406541
0.0406918
0.0407302
0.0407691
0.0408087
0.040849
0.04089
0.0409317
0.0409741
0.0410173
0.0410612
0.0411058
0.0411511
0.0411972
0.041244
0.0412917
0.0413405
0.0413905
0.0414421
0.0414952
0.0415497
0.0416053
0.0403516
0.0403852
0.0404189
0.0404531
0.0404876
0.0405226
0.0405581
0.0405942
0.0406309
0.0406681
0.040706
0.0407445
0.0407836
0.0408234
0.0408639
0.0409051
0.040947
0.0409896
0.0410329
0.041077
0.0411218
0.0411674
0.0412137
0.0412607
0.0413087
0.0413577
0.041408
0.0414598
0.0415132
0.041568
0.0416238
0.0403649
0.0403986
0.0404326
0.0404668
0.0405015
0.0405367
0.0405724
0.0406086
0.0406454
0.0406829
0.0407209
0.0407596
0.0407989
0.0408389
0.0408796
0.0409209
0.040963
0.0410059
0.0410494
0.0410937
0.0411388
0.0411846
0.0412311
0.0412784
0.0413266
0.0413759
0.0414265
0.0414785
0.0415322
0.0415873
0.0416434
0.0403789
0.0404128
0.0404469
0.0404813
0.0405161
0.0405514
0.0405873
0.0406237
0.0406607
0.0406983
0.0407366
0.0407754
0.040815
0.0408551
0.040896
0.0409376
0.0409799
0.041023
0.0410668
0.0411113
0.0411566
0.0412026
0.0412494
0.0412969
0.0413454
0.041395
0.0414458
0.0414982
0.0415522
0.0416076
0.0416639
0.0403935
0.0404275
0.0404618
0.0404963
0.0405313
0.0405669
0.0406029
0.0406395
0.0406767
0.0407145
0.0407529
0.040792
0.0408317
0.0408721
0.0409132
0.040955
0.0409976
0.0410409
0.0410849
0.0411297
0.0411752
0.0412214
0.0412685
0.0413163
0.0413651
0.041415
0.0414661
0.0415188
0.0415731
0.0416287
0.0416853
0.0404086
0.0404428
0.0404773
0.040512
0.0405472
0.0405829
0.0406192
0.040656
0.0406933
0.0407314
0.04077
0.0408093
0.0408492
0.0408898
0.0409311
0.0409732
0.0410159
0.0410594
0.0411037
0.0411487
0.0411945
0.041241
0.0412883
0.0413365
0.0413856
0.0414357
0.0414872
0.0415401
0.0415946
0.0416504
0.0417072
0.0404243
0.0404587
0.0404933
0.0405283
0.0405637
0.0405996
0.040636
0.040673
0.0407106
0.0407488
0.0407876
0.0408271
0.0408673
0.0409081
0.0409497
0.0409919
0.0410349
0.0410786
0.0411231
0.0411684
0.0412144
0.0412612
0.0413088
0.0413573
0.0414067
0.0414571
0.0415088
0.0415619
0.0416164
0.0416722
0.041729
0.0404405
0.0404751
0.04051
0.0405451
0.0405807
0.0406168
0.0406534
0.0406906
0.0407284
0.0407668
0.0408059
0.0408455
0.0408859
0.040927
0.0409687
0.0410112
0.0410544
0.0410984
0.0411431
0.0411886
0.0412349
0.041282
0.0413299
0.0413786
0.0414283
0.0414789
0.0415305
0.0415832
0.041637
0.0416919
0.0417479
0.0418053
0.0418641
0.0419243
0.0419859
0.0404573
0.0404921
0.0405271
0.0405625
0.0405983
0.0406345
0.0406714
0.0407087
0.0407467
0.0407853
0.0408245
0.0408645
0.040905
0.0409463
0.0409883
0.041031
0.0410745
0.0411187
0.0411637
0.0412094
0.041256
0.0413033
0.0413515
0.0414006
0.0414505
0.0415013
0.041553
0.0416057
0.0416594
0.0417142
0.0417703
0.041828
0.0418874
0.0419486
0.0420113
0.0404746
0.0405096
0.0405448
0.0405803
0.0406162
0.0406527
0.0406896
0.0407272
0.0407654
0.0408042
0.0408436
0.0408837
0.0409246
0.0409661
0.0410083
0.0410513
0.041095
0.0411394
0.0411847
0.0412307
0.0412775
0.0413252
0.0413737
0.0414231
0.0414733
0.0415243
0.0415762
0.041629
0.0416828
0.0417378
0.0417941
0.0418522
0.0419121
0.0419739
0.0420374
0.0404924
0.0405275
0.0405628
0.0405984
0.0406344
0.040671
0.0407082
0.0407459
0.0407843
0.0408233
0.040863
0.0409034
0.0409444
0.0409862
0.0410287
0.0410719
0.0411159
0.0411606
0.0412061
0.0412524
0.0412995
0.0413475
0.0413963
0.0414459
0.0414964
0.0415477
0.0415999
0.0416529
0.0417069
0.0417621
0.0418189
0.0418773
0.0419378
0.0420003
0.0420644
0.0404928
0.0405279
0.0405632
0.0405988
0.0406349
0.0406714
0.0407086
0.0407463
0.0407847
0.0408237
0.0408634
0.0409038
0.0409448
0.0409866
0.041029
0.0410722
0.0411162
0.0411609
0.0412064
0.0412527
0.0412999
0.0413478
0.0413966
0.0414463
0.0414967
0.041548
0.0416001
0.0416531
0.0417071
0.0417623
0.041819
0.0418774
0.0419378
0.0420003
0.0420644
0.0404759
0.0405109
0.0405461
0.0405816
0.0406175
0.0406539
0.0406909
0.0407284