/*--------------------------------*- C++ -*----------------------------------*\
  =========                 |
  \\      /  F ield         | OpenFOAM: The Open Source CFD Toolbox
   \\    /   O peration     | Website:  https://openfoam.org
    \\  /    A nd           | Version:  7
     \\/     M anipulation  |
\*---------------------------------------------------------------------------*/
FoamFile
{
    version     2.0;
    format      ascii;
    class       volScalarField;
    location    "196000";
    object      nut;
}
// * * * * * * * * * * * * * * * * * * * * * * * * * * * * * * * * * * * * * //

dimensions      [0 2 -1 0 0 0 0];

internalField   nonuniform List<scalar> 
4783
(
2.29023e-05
2.28952e-05
2.28881e-05
2.28811e-05
2.28743e-05
2.28678e-05
2.28615e-05
2.28557e-05
2.28503e-05
2.28454e-05
2.2841e-05
2.28371e-05
2.28338e-05
2.2831e-05
2.28287e-05
2.28268e-05
2.28252e-05
2.2824e-05
2.2823e-05
2.28223e-05
2.28217e-05
2.28212e-05
2.29141e-05
2.29077e-05
2.29011e-05
2.28945e-05
2.28879e-05
2.28814e-05
2.2875e-05
2.28689e-05
2.28631e-05
2.28577e-05
2.28527e-05
2.28482e-05
2.28441e-05
2.28405e-05
2.28374e-05
2.28347e-05
2.28325e-05
2.28306e-05
2.28291e-05
2.28279e-05
2.28269e-05
2.28262e-05
2.29243e-05
2.29189e-05
2.29131e-05
2.29071e-05
2.2901e-05
2.28948e-05
2.28886e-05
2.28826e-05
2.28768e-05
2.28712e-05
2.28659e-05
2.2861e-05
2.28564e-05
2.28523e-05
2.28486e-05
2.28453e-05
2.28425e-05
2.284e-05
2.28379e-05
2.28362e-05
2.28349e-05
2.28338e-05
2.29324e-05
2.29283e-05
2.29236e-05
2.29185e-05
2.2913e-05
2.29074e-05
2.29017e-05
2.2896e-05
2.28904e-05
2.28849e-05
2.28796e-05
2.28746e-05
2.28699e-05
2.28655e-05
2.28615e-05
2.28578e-05
2.28546e-05
2.28517e-05
2.28493e-05
2.28472e-05
2.28455e-05
2.28442e-05
2.29379e-05
2.29353e-05
2.29319e-05
2.29279e-05
2.29235e-05
2.29187e-05
2.29137e-05
2.29086e-05
2.29034e-05
2.28983e-05
2.28932e-05
2.28884e-05
2.28837e-05
2.28793e-05
2.28752e-05
2.28714e-05
2.2868e-05
2.2865e-05
2.28623e-05
2.286e-05
2.28581e-05
2.28566e-05
2.29404e-05
2.29395e-05
2.29377e-05
2.29351e-05
2.29318e-05
2.29281e-05
2.29241e-05
2.29197e-05
2.29152e-05
2.29106e-05
2.29061e-05
2.29015e-05
2.28972e-05
2.2893e-05
2.2889e-05
2.28853e-05
2.28819e-05
2.28788e-05
2.28761e-05
2.28738e-05
2.28718e-05
2.28703e-05
2.29396e-05
2.29405e-05
2.29404e-05
2.29394e-05
2.29376e-05
2.29352e-05
2.29322e-05
2.29289e-05
2.29253e-05
2.29214e-05
2.29175e-05
2.29136e-05
2.29096e-05
2.29058e-05
2.29022e-05
2.28987e-05
2.28955e-05
2.28926e-05
2.28899e-05
2.28877e-05
2.28857e-05
2.28842e-05
2.29351e-05
2.2938e-05
2.29398e-05
2.29405e-05
2.29403e-05
2.29393e-05
2.29377e-05
2.29356e-05
2.2933e-05
2.29302e-05
2.29271e-05
2.29238e-05
2.29205e-05
2.29173e-05
2.29141e-05
2.2911e-05
2.29081e-05
2.29054e-05
2.2903e-05
2.29009e-05
2.28991e-05
2.28977e-05
2.29267e-05
2.29317e-05
2.29355e-05
2.29381e-05
2.29396e-05
2.29403e-05
2.29402e-05
2.29394e-05
2.29381e-05
2.29363e-05
2.29342e-05
2.29319e-05
2.29294e-05
2.29268e-05
2.29242e-05
2.29216e-05
2.29192e-05
2.29169e-05
2.29148e-05
2.29129e-05
2.29113e-05
2.291e-05
2.29141e-05
2.29214e-05
2.29272e-05
2.29318e-05
2.29352e-05
2.29377e-05
2.29392e-05
2.29399e-05
2.29399e-05
2.29394e-05
2.29385e-05
2.29372e-05
2.29356e-05
2.29338e-05
2.2932e-05
2.293e-05
2.29281e-05
2.29263e-05
2.29246e-05
2.29231e-05
2.29218e-05
2.29207e-05
2.28972e-05
2.29067e-05
2.29148e-05
2.29215e-05
2.29269e-05
2.29312e-05
2.29344e-05
2.29368e-05
2.29383e-05
2.29392e-05
2.29395e-05
2.29394e-05
2.29388e-05
2.2938e-05
2.2937e-05
2.29358e-05
2.29345e-05
2.29333e-05
2.29321e-05
2.2931e-05
2.293e-05
2.29291e-05
2.28758e-05
2.28877e-05
2.2898e-05
2.29069e-05
2.29144e-05
2.29206e-05
2.29257e-05
2.29298e-05
2.29329e-05
2.29353e-05
2.2937e-05
2.29381e-05
2.29387e-05
2.29389e-05
2.29388e-05
2.29385e-05
2.29379e-05
2.29373e-05
2.29367e-05
2.2936e-05
2.29354e-05
2.29349e-05
2.28498e-05
2.28642e-05
2.28768e-05
2.28879e-05
2.28975e-05
2.29057e-05
2.29127e-05
2.29186e-05
2.29235e-05
2.29274e-05
2.29306e-05
2.2933e-05
2.29349e-05
2.29362e-05
2.29371e-05
2.29377e-05
2.2938e-05
2.29381e-05
2.2938e-05
2.29379e-05
2.29377e-05
2.29375e-05
2.28192e-05
2.2836e-05
2.28509e-05
2.28643e-05
2.28761e-05
2.28864e-05
2.28954e-05
2.29031e-05
2.29097e-05
2.29153e-05
2.292e-05
2.29239e-05
2.29271e-05
2.29296e-05
2.29316e-05
2.29331e-05
2.29343e-05
2.29352e-05
2.29358e-05
2.29362e-05
2.29365e-05
2.29367e-05
2.27838e-05
2.28031e-05
2.28204e-05
2.28361e-05
2.285e-05
2.28625e-05
2.28735e-05
2.28832e-05
2.28916e-05
2.28989e-05
2.29052e-05
2.29105e-05
2.29151e-05
2.29188e-05
2.2922e-05
2.29246e-05
2.29267e-05
2.29283e-05
2.29297e-05
2.29307e-05
2.27437e-05
2.27654e-05
2.27852e-05
2.28031e-05
2.28193e-05
2.28339e-05
2.2847e-05
2.28586e-05
2.28689e-05
2.28779e-05
2.28858e-05
2.28927e-05
2.28987e-05
2.29038e-05
2.29081e-05
2.29118e-05
2.29148e-05
2.29174e-05
2.29194e-05
2.26988e-05
2.2723e-05
2.27451e-05
2.27654e-05
2.27838e-05
2.28006e-05
2.28157e-05
2.28293e-05
2.28415e-05
2.28523e-05
2.28619e-05
2.28703e-05
2.28777e-05
2.28842e-05
2.28897e-05
2.28945e-05
2.28986e-05
2.26492e-05
2.26758e-05
2.27003e-05
2.27229e-05
2.27436e-05
2.27625e-05
2.27797e-05
2.27953e-05
2.28093e-05
2.2822e-05
2.28332e-05
2.28433e-05
2.28521e-05
2.28599e-05
2.25948e-05
2.26238e-05
2.26507e-05
2.26756e-05
2.26985e-05
2.27196e-05
2.27389e-05
2.27564e-05
2.27724e-05
2.27868e-05
2.27998e-05
2.28114e-05
2.25357e-05
2.25671e-05
2.25963e-05
2.26235e-05
2.26486e-05
2.26719e-05
2.26932e-05
2.27128e-05
2.27306e-05
2.27469e-05
2.2472e-05
2.25057e-05
2.25373e-05
2.25667e-05
2.2594e-05
2.26193e-05
2.26427e-05
2.26643e-05
2.2684e-05
2.24036e-05
2.24397e-05
2.24735e-05
2.25051e-05
2.25346e-05
2.25621e-05
2.25875e-05
2.2611e-05
2.23307e-05
2.23691e-05
2.24051e-05
2.24389e-05
2.24705e-05
2.25e-05
2.25275e-05
2.22533e-05
2.22939e-05
2.23321e-05
2.23681e-05
2.24018e-05
2.24333e-05
2.21715e-05
2.22143e-05
2.22546e-05
2.22927e-05
2.23285e-05
2.2362e-05
2.20854e-05
2.21303e-05
2.21728e-05
2.22129e-05
2.22506e-05
2.19951e-05
2.20421e-05
2.20865e-05
2.21286e-05
2.19006e-05
2.19496e-05
2.19961e-05
2.20401e-05
2.18021e-05
2.1853e-05
2.19014e-05
2.16996e-05
2.17525e-05
2.18027e-05
2.15933e-05
2.16479e-05
2.17e-05
2.14831e-05
2.15396e-05
2.15934e-05
2.13693e-05
2.14275e-05
2.1483e-05
2.12519e-05
2.13118e-05
2.1369e-05
2.11311e-05
2.11925e-05
2.12513e-05
2.10068e-05
2.10698e-05
2.11301e-05
2.08792e-05
2.09437e-05
2.10055e-05
2.07484e-05
2.08143e-05
2.08776e-05
2.06145e-05
2.06818e-05
2.07464e-05
2.04776e-05
2.05462e-05
2.06121e-05
2.03378e-05
2.04077e-05
2.04748e-05
2.01951e-05
2.02662e-05
2.03346e-05
2.29023e-05
2.29141e-05
2.29243e-05
2.29324e-05
2.29379e-05
2.29404e-05
2.29396e-05
2.29351e-05
2.29267e-05
2.29141e-05
2.28972e-05
2.28758e-05
2.28498e-05
2.28192e-05
2.27838e-05
2.27437e-05
2.26988e-05
2.26492e-05
2.25948e-05
2.25357e-05
2.2472e-05
2.24036e-05
2.23307e-05
2.22533e-05
2.21715e-05
2.20854e-05
2.19951e-05
2.19006e-05
2.18021e-05
2.16996e-05
2.15933e-05
2.14831e-05
2.13693e-05
2.12519e-05
2.11311e-05
2.10068e-05
2.08792e-05
2.07484e-05
2.06145e-05
2.04776e-05
2.03378e-05
2.01951e-05
2.28952e-05
2.29077e-05
2.29189e-05
2.29283e-05
2.29353e-05
2.29395e-05
2.29405e-05
2.2938e-05
2.29317e-05
2.29214e-05
2.29067e-05
2.28877e-05
2.28642e-05
2.2836e-05
2.28031e-05
2.27654e-05
2.2723e-05
2.26758e-05
2.26238e-05
2.25671e-05
2.25057e-05
2.24397e-05
2.23691e-05
2.22939e-05
2.22143e-05
2.21303e-05
2.20421e-05
2.19496e-05
2.1853e-05
2.17524e-05
2.16479e-05
2.15396e-05
2.14275e-05
2.13118e-05
2.11925e-05
2.10698e-05
2.09437e-05
2.08143e-05
2.06818e-05
2.05462e-05
2.04077e-05
2.02662e-05
2.28881e-05
2.29011e-05
2.29131e-05
2.29236e-05
2.29319e-05
2.29377e-05
2.29404e-05
2.29398e-05
2.29355e-05
2.29272e-05
2.29148e-05
2.2898e-05
2.28768e-05
2.28509e-05
2.28204e-05
2.27852e-05
2.27451e-05
2.27003e-05
2.26507e-05
2.25963e-05
2.25372e-05
2.24735e-05
2.24051e-05
2.23321e-05
2.22546e-05
2.21727e-05
2.20865e-05
2.19961e-05
2.19014e-05
2.18027e-05
2.17e-05
2.15934e-05
2.1483e-05
2.1369e-05
2.12513e-05
2.11301e-05
2.10055e-05
2.08776e-05
2.07464e-05
2.06121e-05
2.04748e-05
2.03345e-05
2.28811e-05
2.28945e-05
2.29071e-05
2.29184e-05
2.29279e-05
2.29351e-05
2.29394e-05
2.29405e-05
2.2938e-05
2.29318e-05
2.29215e-05
2.29069e-05
2.28878e-05
2.28643e-05
2.2836e-05
2.28031e-05
2.27654e-05
2.27229e-05
2.26756e-05
2.26235e-05
2.25666e-05
2.25051e-05
2.24389e-05
2.2368e-05
2.22927e-05
2.22128e-05
2.21286e-05
2.20401e-05
2.19474e-05
2.18505e-05
2.17496e-05
2.16447e-05
2.1536e-05
2.14236e-05
2.13075e-05
2.11878e-05
2.10646e-05
2.09381e-05
2.08083e-05
2.06754e-05
2.05393e-05
2.04002e-05
2.28743e-05
2.28879e-05
2.2901e-05
2.2913e-05
2.29235e-05
2.29318e-05
2.29376e-05
2.29403e-05
2.29396e-05
2.29352e-05
2.29269e-05
2.29143e-05
2.28974e-05
2.2876e-05
2.285e-05
2.28193e-05
2.27838e-05
2.27436e-05
2.26985e-05
2.26486e-05
2.2594e-05
2.25346e-05
2.24705e-05
2.24018e-05
2.23285e-05
2.22506e-05
2.21684e-05
2.20818e-05
2.19909e-05
2.18958e-05
2.17967e-05
2.16935e-05
2.15865e-05
2.14756e-05
2.1361e-05
2.12428e-05
2.11211e-05
2.0996e-05
2.08675e-05
2.07358e-05
2.0601e-05
2.04631e-05
2.28678e-05
2.28814e-05
2.28948e-05
2.29074e-05
2.29187e-05
2.29281e-05
2.29352e-05
2.29393e-05
2.29403e-05
2.29376e-05
2.29312e-05
2.29206e-05
2.29057e-05
2.28864e-05
2.28625e-05
2.28339e-05
2.28006e-05
2.27625e-05
2.27196e-05
2.26718e-05
2.26193e-05
2.2562e-05
2.25e-05
2.24333e-05
2.2362e-05
2.22861e-05
2.22058e-05
2.2121e-05
2.20319e-05
2.19386e-05
2.18412e-05
2.17397e-05
2.16343e-05
2.1525e-05
2.14119e-05
2.12952e-05
2.11749e-05
2.10511e-05
2.0924e-05
2.07935e-05
2.06599e-05
2.05231e-05
2.28615e-05
2.2875e-05
2.28886e-05
2.29017e-05
2.29137e-05
2.2924e-05
2.29322e-05
2.29377e-05
2.29402e-05
2.29392e-05
2.29344e-05
2.29257e-05
2.29127e-05
2.28954e-05
2.28735e-05
2.2847e-05
2.28157e-05
2.27797e-05
2.27388e-05
2.26932e-05
2.26427e-05
2.25875e-05
2.25274e-05
2.24627e-05
2.23933e-05
2.23193e-05
2.22408e-05
2.21579e-05
2.20706e-05
2.1979e-05
2.18832e-05
2.17834e-05
2.16795e-05
2.15717e-05
2.14601e-05
2.13448e-05
2.12259e-05
2.11034e-05
2.09776e-05
2.08483e-05
2.07159e-05
2.05803e-05
2.28557e-05
2.28689e-05
2.28826e-05
2.2896e-05
2.29086e-05
2.29197e-05
2.29289e-05
2.29356e-05
2.29394e-05
2.29399e-05
2.29368e-05
2.29297e-05
2.29186e-05
2.29031e-05
2.28831e-05
2.28586e-05
2.28293e-05
2.27953e-05
2.27564e-05
2.27128e-05
2.26643e-05
2.26109e-05
2.25529e-05
2.249e-05
2.24225e-05
2.23504e-05
2.22736e-05
2.21924e-05
2.21068e-05
2.20169e-05
2.19228e-05
2.18245e-05
2.17221e-05
2.16158e-05
2.15057e-05
2.13917e-05
2.12741e-05
2.1153e-05
2.10283e-05
2.09003e-05
2.0769e-05
2.06344e-05
2.28503e-05
2.28631e-05
2.28768e-05
2.28904e-05
2.29034e-05
2.29152e-05
2.29253e-05
2.2933e-05
2.29381e-05
2.29399e-05
2.29383e-05
2.29329e-05
2.29235e-05
2.29097e-05
2.28916e-05
2.28689e-05
2.28415e-05
2.28093e-05
2.27724e-05
2.27306e-05
2.2684e-05
2.26326e-05
2.25763e-05
2.25153e-05
2.24496e-05
2.23792e-05
2.23042e-05
2.22247e-05
2.21407e-05
2.20524e-05
2.19598e-05
2.1863e-05
2.17622e-05
2.16573e-05
2.15485e-05
2.14359e-05
2.13196e-05
2.11997e-05
2.10762e-05
2.09493e-05
2.08191e-05
2.06857e-05
2.28454e-05
2.28577e-05
2.28712e-05
2.28849e-05
2.28983e-05
2.29106e-05
2.29214e-05
2.29301e-05
2.29363e-05
2.29394e-05
2.29392e-05
2.29353e-05
2.29274e-05
2.29153e-05
2.28989e-05
2.28779e-05
2.28523e-05
2.28219e-05
2.27868e-05
2.27468e-05
2.2702e-05
2.26524e-05
2.25979e-05
2.25386e-05
2.24746e-05
2.24059e-05
2.23326e-05
2.22547e-05
2.21723e-05
2.20855e-05
2.19944e-05
2.18991e-05
2.17996e-05
2.16961e-05
2.15886e-05
2.14773e-05
2.13622e-05
2.12435e-05
2.11212e-05
2.09954e-05
2.08663e-05
2.07339e-05
2.2841e-05
2.28527e-05
2.28659e-05
2.28796e-05
2.28932e-05
2.2906e-05
2.29175e-05
2.29271e-05
2.29342e-05
2.29385e-05
2.29395e-05
2.2937e-05
2.29306e-05
2.292e-05
2.29052e-05
2.28858e-05
2.28619e-05
2.28332e-05
2.27998e-05
2.27615e-05
2.27184e-05
2.26704e-05
2.26176e-05
2.256e-05
2.24976e-05
2.24305e-05
2.23588e-05
2.22824e-05
2.22015e-05
2.21162e-05
2.20265e-05
2.19326e-05
2.18345e-05
2.17323e-05
2.16261e-05
2.1516e-05
2.14021e-05
2.12845e-05
2.11633e-05
2.10386e-05
2.09105e-05
2.0779e-05
2.28371e-05
2.28482e-05
2.2861e-05
2.28746e-05
2.28883e-05
2.29015e-05
2.29135e-05
2.29238e-05
2.29319e-05
2.29372e-05
2.29394e-05
2.29381e-05
2.2933e-05
2.29239e-05
2.29105e-05
2.28927e-05
2.28703e-05
2.28432e-05
2.28114e-05
2.27747e-05
2.27332e-05
2.26869e-05
2.26357e-05
2.25796e-05
2.25188e-05
2.24532e-05
2.23829e-05
2.2308e-05
2.22285e-05
2.21446e-05
2.20563e-05
2.19637e-05
2.18668e-05
2.17659e-05
2.16609e-05
2.1552e-05
2.14392e-05
2.13227e-05
2.12025e-05
2.10788e-05
2.09517e-05
2.08212e-05
2.06874e-05
2.28338e-05
2.28441e-05
2.28564e-05
2.28699e-05
2.28837e-05
2.28972e-05
2.29096e-05
2.29205e-05
2.29293e-05
2.29356e-05
2.29388e-05
2.29387e-05
2.29348e-05
2.2927e-05
2.2915e-05
2.28986e-05
2.28777e-05
2.28521e-05
2.28218e-05
2.27866e-05
2.27466e-05
2.27017e-05
2.2652e-05
2.25974e-05
2.2538e-05
2.24739e-05
2.2405e-05
2.23315e-05
2.22534e-05
2.21707e-05
2.20837e-05
2.19923e-05
2.18967e-05
2.17969e-05
2.1693e-05
2.15852e-05
2.14735e-05
2.1358e-05
2.12389e-05
2.11161e-05
2.09899e-05
2.08602e-05
2.07273e-05
2.05912e-05
2.2831e-05
2.28405e-05
2.28523e-05
2.28655e-05
2.28793e-05
2.2893e-05
2.29058e-05
2.29173e-05
2.29268e-05
2.29338e-05
2.2938e-05
2.29389e-05
2.29362e-05
2.29296e-05
2.29188e-05
2.29037e-05
2.28841e-05
2.28599e-05
2.28309e-05
2.27972e-05
2.27586e-05
2.27151e-05
2.26667e-05
2.26135e-05
2.25555e-05
2.24927e-05
2.24251e-05
2.23529e-05
2.2276e-05
2.21946e-05
2.21088e-05
2.20185e-05
2.1924e-05
2.18254e-05
2.17226e-05
2.16158e-05
2.15051e-05
2.13905e-05
2.12723e-05
2.11505e-05
2.10251e-05
2.08963e-05
2.07642e-05
2.06288e-05
2.28287e-05
2.28374e-05
2.28486e-05
2.28615e-05
2.28752e-05
2.2889e-05
2.29021e-05
2.29141e-05
2.29242e-05
2.29319e-05
2.29369e-05
2.29388e-05
2.29371e-05
2.29316e-05
2.2922e-05
2.29081e-05
2.28897e-05
2.28667e-05
2.2839e-05
2.28065e-05
2.27692e-05
2.2727e-05
2.268e-05
2.2628e-05
2.25712e-05
2.25096e-05
2.24433e-05
2.23722e-05
2.22965e-05
2.22163e-05
2.21315e-05
2.20424e-05
2.1949e-05
2.18513e-05
2.17495e-05
2.16437e-05
2.15339e-05
2.14203e-05
2.13029e-05
2.11819e-05
2.10573e-05
2.09293e-05
2.07979e-05
2.06633e-05
2.05254e-05
2.28268e-05
2.28347e-05
2.28453e-05
2.28578e-05
2.28714e-05
2.28853e-05
2.28987e-05
2.2911e-05
2.29216e-05
2.293e-05
2.29358e-05
2.29384e-05
2.29376e-05
2.29331e-05
2.29245e-05
2.29117e-05
2.28945e-05
2.28726e-05
2.28461e-05
2.28148e-05
2.27786e-05
2.27376e-05
2.26917e-05
2.2641e-05
2.25853e-05
2.25249e-05
2.24596e-05
2.23896e-05
2.2315e-05
2.22358e-05
2.21521e-05
2.2064e-05
2.19715e-05
2.18747e-05
2.17739e-05
2.16689e-05
2.156e-05
2.14472e-05
2.13306e-05
2.12104e-05
2.10866e-05
2.09592e-05
2.08285e-05
2.06946e-05
2.05574e-05
2.28252e-05
2.28325e-05
2.28425e-05
2.28546e-05
2.2868e-05
2.28819e-05
2.28955e-05
2.29081e-05
2.29192e-05
2.29281e-05
2.29345e-05
2.29379e-05
2.29379e-05
2.29343e-05
2.29266e-05
2.29148e-05
2.28985e-05
2.28777e-05
2.28522e-05
2.2822e-05
2.27869e-05
2.2747e-05
2.27021e-05
2.26524e-05
2.25978e-05
2.25384e-05
2.24741e-05
2.24052e-05
2.23315e-05
2.22533e-05
2.21705e-05
2.20832e-05
2.19916e-05
2.18957e-05
2.17957e-05
2.16915e-05
2.15834e-05
2.14714e-05
2.13555e-05
2.1236e-05
2.11128e-05
2.09862e-05
2.08561e-05
2.07227e-05
2.05861e-05
2.04464e-05
2.2824e-05
2.28306e-05
2.284e-05
2.28517e-05
2.2865e-05
2.28788e-05
2.28925e-05
2.29054e-05
2.29169e-05
2.29263e-05
2.29333e-05
2.29373e-05
2.2938e-05
2.29351e-05
2.29283e-05
2.29173e-05
2.2902e-05
2.28821e-05
2.28575e-05
2.28282e-05
2.27941e-05
2.27551e-05
2.27112e-05
2.26624e-05
2.26087e-05
2.25502e-05
2.24869e-05
2.24188e-05
2.2346e-05
2.22686e-05
2.21867e-05
2.21002e-05
2.20094e-05
2.19143e-05
2.1815e-05
2.17116e-05
2.16041e-05
2.14928e-05
2.13776e-05
2.12587e-05
2.11361e-05
2.10101e-05
2.08806e-05
2.07477e-05
2.06116e-05
2.04724e-05
2.03301e-05
2.2823e-05
2.28291e-05
2.2838e-05
2.28493e-05
2.28623e-05
2.28761e-05
2.28899e-05
2.2903e-05
2.29148e-05
2.29246e-05
2.29321e-05
2.29366e-05
2.2938e-05
2.29358e-05
2.29296e-05
2.29194e-05
2.29048e-05
2.28857e-05
2.2862e-05
2.28335e-05
2.28002e-05
2.2762e-05
2.2719e-05
2.2671e-05
2.26182e-05
2.25605e-05
2.24979e-05
2.24306e-05
2.23586e-05
2.2282e-05
2.22008e-05
2.2115e-05
2.20249e-05
2.19305e-05
2.18318e-05
2.17291e-05
2.16222e-05
2.15115e-05
2.13969e-05
2.12785e-05
2.11565e-05
2.1031e-05
2.09019e-05
2.07696e-05
2.06339e-05
2.04951e-05
2.03533e-05
2.28223e-05
2.28279e-05
2.28363e-05
2.28472e-05
2.286e-05
2.28738e-05
2.28877e-05
2.29009e-05
2.29129e-05
2.29231e-05
2.29309e-05
2.2936e-05
2.29379e-05
2.29362e-05
2.29307e-05
2.29211e-05
2.29071e-05
2.28887e-05
2.28657e-05
2.28379e-05
2.28053e-05
2.27679e-05
2.27255e-05
2.26783e-05
2.26262e-05
2.25691e-05
2.25073e-05
2.24407e-05
2.23693e-05
2.22933e-05
2.22128e-05
2.21277e-05
2.20382e-05
2.19443e-05
2.18462e-05
2.1744e-05
2.16377e-05
2.15275e-05
2.14134e-05
2.12955e-05
2.11739e-05
2.10488e-05
2.09203e-05
2.07883e-05
2.06531e-05
2.05146e-05
2.03731e-05
2.28217e-05
2.28269e-05
2.28349e-05
2.28455e-05
2.28581e-05
2.28718e-05
2.28857e-05
2.28991e-05
2.29113e-05
2.29218e-05
2.29299e-05
2.29354e-05
2.29377e-05
2.29365e-05
2.29315e-05
2.29224e-05
2.2909e-05
2.28912e-05
2.28687e-05
2.28415e-05
2.28095e-05
2.27727e-05
2.27309e-05
2.26843e-05
2.26327e-05
2.25763e-05
2.25151e-05
2.2449e-05
2.23782e-05
2.23028e-05
2.22227e-05
2.21381e-05
2.20491e-05
2.19558e-05
2.18582e-05
2.17564e-05
2.16506e-05
2.15408e-05
2.14271e-05
2.13096e-05
2.11884e-05
2.10637e-05
2.09355e-05
2.08039e-05
2.0669e-05
2.05309e-05
2.03897e-05
2.28212e-05
2.28262e-05
2.28338e-05
2.28442e-05
2.28566e-05
2.28703e-05
2.28842e-05
2.28976e-05
2.291e-05
2.29207e-05
2.29291e-05
2.29348e-05
2.29375e-05
2.29366e-05
2.2932e-05
2.29234e-05
2.29104e-05
2.28931e-05
2.28711e-05
2.28444e-05
2.28129e-05
2.27765e-05
2.27352e-05
2.26891e-05
2.2638e-05
2.2582e-05
2.25212e-05
2.24556e-05
2.23853e-05
2.23103e-05
2.22306e-05
2.21465e-05
2.20579e-05
2.19649e-05
2.18677e-05
2.17663e-05
2.16608e-05
2.15514e-05
2.1438e-05
2.13209e-05
2.12e-05
2.10756e-05
2.09477e-05
2.08164e-05
2.06817e-05
2.05439e-05
2.04029e-05
2.0259e-05
2.28209e-05
2.28257e-05
2.28331e-05
2.28432e-05
2.28555e-05
2.28691e-05
2.2883e-05
2.28965e-05
2.2909e-05
2.29198e-05
2.29284e-05
2.29344e-05
2.29373e-05
2.29368e-05
2.29324e-05
2.29241e-05
2.29115e-05
2.28944e-05
2.28728e-05
2.28465e-05
2.28153e-05
2.27793e-05
2.27384e-05
2.26926e-05
2.26419e-05
2.25863e-05
2.25258e-05
2.24606e-05
2.23906e-05
2.23159e-05
2.22366e-05
2.21527e-05
2.20644e-05
2.19718e-05
2.18748e-05
2.17737e-05
2.16685e-05
2.15593e-05
2.14462e-05
2.13293e-05
2.12087e-05
2.10845e-05
2.09568e-05
2.08257e-05
2.06913e-05
2.05536e-05
2.04129e-05
2.02691e-05
2.28207e-05
2.28253e-05
2.28326e-05
2.28426e-05
2.28548e-05
2.28683e-05
2.28822e-05
2.28958e-05
2.29083e-05
2.29192e-05
2.2928e-05
2.29341e-05
2.29372e-05
2.29368e-05
2.29327e-05
2.29246e-05
2.29122e-05
2.28954e-05
2.2874e-05
2.28478e-05
2.28169e-05
2.27812e-05
2.27405e-05
2.26949e-05
2.26445e-05
2.25891e-05
2.25289e-05
2.24639e-05
2.23941e-05
2.23196e-05
2.22405e-05
2.21569e-05
2.20688e-05
2.19763e-05
2.18796e-05
2.17787e-05
2.16736e-05
2.15646e-05
2.14517e-05
2.1335e-05
2.12145e-05
2.10905e-05
2.09629e-05
2.08319e-05
2.06976e-05
2.05601e-05
2.04195e-05
2.02758e-05
2.01292e-05
2.28206e-05
2.28252e-05
2.28323e-05
2.28422e-05
2.28544e-05
2.28679e-05
2.28818e-05
2.28954e-05
2.2908e-05
2.2919e-05
2.29278e-05
2.2934e-05
2.29371e-05
2.29368e-05
2.29328e-05
2.29248e-05
2.29125e-05
2.28958e-05
2.28745e-05
2.28485e-05
2.28177e-05
2.27821e-05
2.27416e-05
2.26961e-05
2.26458e-05
2.25905e-05
2.25304e-05
2.24655e-05
2.23958e-05
2.23215e-05
2.22425e-05
2.2159e-05
2.2071e-05
2.19786e-05
2.1882e-05
2.17811e-05
2.16762e-05
2.15673e-05
2.14544e-05
2.13378e-05
2.12174e-05
2.10934e-05
2.0966e-05
2.08351e-05
2.07008e-05
2.05634e-05
2.04228e-05
2.02792e-05
2.01326e-05
2.28206e-05
2.28252e-05
2.28323e-05
2.28422e-05
2.28544e-05
2.28679e-05
2.28818e-05
2.28954e-05
2.2908e-05
2.2919e-05
2.29278e-05
2.2934e-05
2.29371e-05
2.29368e-05
2.29328e-05
2.29248e-05
2.29125e-05
2.28958e-05
2.28745e-05
2.28485e-05
2.28177e-05
2.27821e-05
2.27416e-05
2.26961e-05
2.26457e-05
2.25905e-05
2.25304e-05
2.24655e-05
2.23958e-05
2.23215e-05
2.22425e-05
2.2159e-05
2.2071e-05
2.19786e-05
2.1882e-05
2.17811e-05
2.16762e-05
2.15673e-05
2.14544e-05
2.13378e-05
2.12174e-05
2.10934e-05
2.0966e-05
2.08351e-05
2.07008e-05
2.05634e-05
2.04228e-05
2.02792e-05
2.01326e-05
1.99832e-05
2.28207e-05
2.28253e-05
2.28326e-05
2.28426e-05
2.28548e-05
2.28683e-05
2.28822e-05
2.28958e-05
2.29083e-05
2.29192e-05
2.2928e-05
2.29341e-05
2.29372e-05
2.29368e-05
2.29327e-05
2.29246e-05
2.29122e-05
2.28954e-05
2.28739e-05
2.28478e-05
2.28169e-05
2.27812e-05
2.27405e-05
2.26949e-05
2.26445e-05
2.25891e-05
2.25289e-05
2.24639e-05
2.23941e-05
2.23196e-05
2.22405e-05
2.21569e-05
2.20688e-05
2.19763e-05
2.18796e-05
2.17787e-05
2.16736e-05
2.15646e-05
2.14517e-05
2.1335e-05
2.12145e-05
2.10905e-05
2.09629e-05
2.08319e-05
2.06976e-05
2.05601e-05
2.04195e-05
2.02758e-05
2.01292e-05
1.99797e-05
2.28209e-05
2.28257e-05
2.28331e-05
2.28432e-05
2.28555e-05
2.28691e-05
2.2883e-05
2.28965e-05
2.2909e-05
2.29198e-05
2.29284e-05
2.29344e-05
2.29373e-05
2.29367e-05
2.29324e-05
2.29241e-05
2.29115e-05
2.28944e-05
2.28728e-05
2.28465e-05
2.28153e-05
2.27793e-05
2.27384e-05
2.26926e-05
2.26419e-05
2.25863e-05
2.25258e-05
2.24606e-05
2.23906e-05
2.23159e-05
2.22366e-05
2.21527e-05
2.20644e-05
2.19718e-05
2.18748e-05
2.17737e-05
2.16685e-05
2.15593e-05
2.14462e-05
2.13293e-05
2.12087e-05
2.10845e-05
2.09568e-05
2.08257e-05
2.06913e-05
2.05536e-05
2.04129e-05
2.02691e-05
2.01223e-05
1.99728e-05
2.28212e-05
2.28262e-05
2.28338e-05
2.28442e-05
2.28566e-05
2.28703e-05
2.28842e-05
2.28976e-05
2.291e-05
2.29207e-05
2.29291e-05
2.29348e-05
2.29375e-05
2.29366e-05
2.2932e-05
2.29234e-05
2.29104e-05
2.2893e-05
2.28711e-05
2.28444e-05
2.28128e-05
2.27765e-05
2.27352e-05
2.2689e-05
2.2638e-05
2.2582e-05
2.25212e-05
2.24556e-05
2.23853e-05
2.23103e-05
2.22306e-05
2.21465e-05
2.20579e-05
2.19649e-05
2.18677e-05
2.17663e-05
2.16608e-05
2.15514e-05
2.1438e-05
2.13209e-05
2.12e-05
2.10756e-05
2.09477e-05
2.08164e-05
2.06817e-05
2.05439e-05
2.04029e-05
2.0259e-05
2.01121e-05
1.99623e-05
2.28217e-05
2.28269e-05
2.28349e-05
2.28455e-05
2.28581e-05
2.28718e-05
2.28857e-05
2.28991e-05
2.29113e-05
2.29218e-05
2.29299e-05
2.29354e-05
2.29377e-05
2.29365e-05
2.29314e-05
2.29224e-05
2.2909e-05
2.28912e-05
2.28687e-05
2.28415e-05
2.28095e-05
2.27727e-05
2.27309e-05
2.26843e-05
2.26327e-05
2.25763e-05
2.25151e-05
2.2449e-05
2.23782e-05
2.23028e-05
2.22227e-05
2.21381e-05
2.20491e-05
2.19558e-05
2.18582e-05
2.17564e-05
2.16506e-05
2.15408e-05
2.14271e-05
2.13096e-05
2.11884e-05
2.10637e-05
2.09355e-05
2.08039e-05
2.0669e-05
2.05309e-05
2.03897e-05
2.02455e-05
2.00983e-05
1.99484e-05
2.28223e-05
2.28279e-05
2.28363e-05
2.28472e-05
2.286e-05
2.28738e-05
2.28877e-05
2.29009e-05
2.29129e-05
2.29231e-05
2.29309e-05
2.2936e-05
2.29378e-05
2.29362e-05
2.29307e-05
2.2921e-05
2.29071e-05
2.28887e-05
2.28657e-05
2.28379e-05
2.28053e-05
2.27679e-05
2.27255e-05
2.26783e-05
2.26261e-05
2.25691e-05
2.25073e-05
2.24407e-05
2.23693e-05
2.22933e-05
2.22127e-05
2.21277e-05
2.20382e-05
2.19443e-05
2.18462e-05
2.1744e-05
2.16377e-05
2.15275e-05
2.14133e-05
2.12955e-05
2.11739e-05
2.10488e-05
2.09203e-05
2.07883e-05
2.06531e-05
2.05146e-05
2.03731e-05
2.02286e-05
2.00812e-05
1.9931e-05
2.2823e-05
2.28291e-05
2.2838e-05
2.28493e-05
2.28623e-05
2.28761e-05
2.28899e-05
2.2903e-05
2.29148e-05
2.29246e-05
2.2932e-05
2.29366e-05
2.2938e-05
2.29357e-05
2.29296e-05
2.29194e-05
2.29048e-05
2.28857e-05
2.2862e-05
2.28335e-05
2.28002e-05
2.2762e-05
2.27189e-05
2.2671e-05
2.26181e-05
2.25604e-05
2.24979e-05
2.24306e-05
2.23586e-05
2.2282e-05
2.22007e-05
2.2115e-05
2.20249e-05
2.19305e-05
2.18318e-05
2.17291e-05
2.16222e-05
2.15115e-05
2.13969e-05
2.12785e-05
2.11565e-05
2.10309e-05
2.09019e-05
2.07696e-05
2.06339e-05
2.04951e-05
2.03533e-05
2.02084e-05
2.00607e-05
1.99101e-05
2.2824e-05
2.28306e-05
2.284e-05
2.28517e-05
2.2865e-05
2.28788e-05
2.28925e-05
2.29054e-05
2.29169e-05
2.29263e-05
2.29333e-05
2.29373e-05
2.2938e-05
2.29351e-05
2.29283e-05
2.29173e-05
2.29019e-05
2.2882e-05
2.28575e-05
2.28282e-05
2.2794e-05
2.2755e-05
2.27112e-05
2.26624e-05
2.26087e-05
2.25502e-05
2.24869e-05
2.24188e-05
2.2346e-05
2.22686e-05
2.21867e-05
2.21002e-05
2.20094e-05
2.19143e-05
2.1815e-05
2.17116e-05
2.16041e-05
2.14928e-05
2.13776e-05
2.12587e-05
2.11361e-05
2.10101e-05
2.08806e-05
2.07477e-05
2.06116e-05
2.04724e-05
2.03301e-05
2.01848e-05
2.00367e-05
1.98858e-05
2.28252e-05
2.28325e-05
2.28425e-05
2.28546e-05
2.2868e-05
2.28819e-05
2.28955e-05
2.29081e-05
2.29191e-05
2.29281e-05
2.29345e-05
2.29379e-05
2.29379e-05
2.29343e-05
2.29266e-05
2.29148e-05
2.28985e-05
2.28777e-05
2.28522e-05
2.2822e-05
2.27869e-05
2.27469e-05
2.27021e-05
2.26524e-05
2.25978e-05
2.25383e-05
2.24741e-05
2.24051e-05
2.23315e-05
2.22532e-05
2.21704e-05
2.20832e-05
2.19916e-05
2.18957e-05
2.17957e-05
2.16915e-05
2.15834e-05
2.14713e-05
2.13555e-05
2.1236e-05
2.11128e-05
2.09862e-05
2.08561e-05
2.07227e-05
2.05861e-05
2.04463e-05
2.03036e-05
2.01579e-05
2.00093e-05
1.9858e-05
2.28268e-05
2.28347e-05
2.28453e-05
2.28578e-05
2.28714e-05
2.28853e-05
2.28987e-05
2.2911e-05
2.29216e-05
2.293e-05
2.29358e-05
2.29384e-05
2.29376e-05
2.29331e-05
2.29245e-05
2.29117e-05
2.28944e-05
2.28726e-05
2.28461e-05
2.28148e-05
2.27786e-05
2.27376e-05
2.26917e-05
2.26409e-05
2.25853e-05
2.25248e-05
2.24596e-05
2.23896e-05
2.2315e-05
2.22358e-05
2.21521e-05
2.20639e-05
2.19715e-05
2.18747e-05
2.17738e-05
2.16689e-05
2.156e-05
2.14472e-05
2.13306e-05
2.12104e-05
2.10865e-05
2.09592e-05
2.08285e-05
2.06945e-05
2.05574e-05
2.04171e-05
2.02738e-05
2.01275e-05
1.99785e-05
1.98267e-05
2.28287e-05
2.28374e-05
2.28486e-05
2.28615e-05
2.28752e-05
2.2889e-05
2.29021e-05
2.2914e-05
2.29241e-05
2.29319e-05
2.29369e-05
2.29388e-05
2.29371e-05
2.29315e-05
2.29219e-05
2.2908e-05
2.28897e-05
2.28667e-05
2.2839e-05
2.28065e-05
2.27692e-05
2.2727e-05
2.26799e-05
2.2628e-05
2.25712e-05
2.25096e-05
2.24433e-05
2.23722e-05
2.22965e-05
2.22163e-05
2.21315e-05
2.20424e-05
2.19489e-05
2.18513e-05
2.17495e-05
2.16436e-05
2.15339e-05
2.14202e-05
2.13029e-05
2.11819e-05
2.10573e-05
2.09293e-05
2.07979e-05
2.06632e-05
2.05254e-05
2.03845e-05
2.02406e-05
2.00939e-05
1.99443e-05
1.9792e-05
2.2831e-05
2.28405e-05
2.28523e-05
2.28655e-05
2.28793e-05
2.28929e-05
2.29058e-05
2.29172e-05
2.29267e-05
2.29338e-05
2.2938e-05
2.29389e-05
2.29362e-05
2.29295e-05
2.29188e-05
2.29037e-05
2.28841e-05
2.28599e-05
2.28309e-05
2.27972e-05
2.27585e-05
2.27151e-05
2.26667e-05
2.26135e-05
2.25555e-05
2.24926e-05
2.24251e-05
2.23528e-05
2.2276e-05
2.21946e-05
2.21087e-05
2.20185e-05
2.1924e-05
2.18253e-05
2.17225e-05
2.16157e-05
2.1505e-05
2.13905e-05
2.12723e-05
2.11504e-05
2.10251e-05
2.08963e-05
2.07641e-05
2.06288e-05
2.04903e-05
2.03487e-05
2.02042e-05
2.00569e-05
1.99067e-05
1.97539e-05
2.28338e-05
2.28441e-05
2.28564e-05
2.28699e-05
2.28837e-05
2.28971e-05
2.29096e-05
2.29205e-05
2.29293e-05
2.29356e-05
2.29388e-05
2.29387e-05
2.29348e-05
2.2927e-05
2.2915e-05
2.28986e-05
2.28777e-05
2.28521e-05
2.28217e-05
2.27866e-05
2.27466e-05
2.27017e-05
2.2652e-05
2.25974e-05
2.2538e-05
2.24738e-05
2.2405e-05
2.23314e-05
2.22533e-05
2.21707e-05
2.20837e-05
2.19923e-05
2.18967e-05
2.17969e-05
2.1693e-05
2.15852e-05
2.14735e-05
2.1358e-05
2.12388e-05
2.11161e-05
2.09899e-05
2.08602e-05
2.07273e-05
2.05912e-05
2.04519e-05
2.03097e-05
2.01645e-05
2.00165e-05
1.98657e-05
1.97123e-05
2.28371e-05
2.28482e-05
2.2861e-05
2.28746e-05
2.28883e-05
2.29015e-05
2.29135e-05
2.29238e-05
2.29318e-05
2.29371e-05
2.29393e-05
2.2938e-05
2.2933e-05
2.29239e-05
2.29105e-05
2.28927e-05
2.28703e-05
2.28432e-05
2.28114e-05
2.27747e-05
2.27332e-05
2.26868e-05
2.26356e-05
2.25796e-05
2.25187e-05
2.24531e-05
2.23829e-05
2.2308e-05
2.22285e-05
2.21446e-05
2.20563e-05
2.19636e-05
2.18668e-05
2.17658e-05
2.16609e-05
2.15519e-05
2.14392e-05
2.13227e-05
2.12025e-05
2.10788e-05
2.09516e-05
2.08211e-05
2.06874e-05
2.05504e-05
2.04104e-05
2.02674e-05
2.01215e-05
1.99728e-05
1.98214e-05
1.96674e-05
2.2841e-05
2.28527e-05
2.28659e-05
2.28796e-05
2.28932e-05
2.2906e-05
2.29175e-05
2.2927e-05
2.29342e-05
2.29385e-05
2.29395e-05
2.2937e-05
2.29305e-05
2.292e-05
2.29051e-05
2.28858e-05
2.28618e-05
2.28332e-05
2.27997e-05
2.27615e-05
2.27184e-05
2.26704e-05
2.26176e-05
2.256e-05
2.24976e-05
2.24305e-05
2.23587e-05
2.22824e-05
2.22015e-05
2.21162e-05
2.20265e-05
2.19326e-05
2.18345e-05
2.17323e-05
2.16261e-05
2.1516e-05
2.14021e-05
2.12845e-05
2.11633e-05
2.10386e-05
2.09104e-05
2.0779e-05
2.06443e-05
2.05065e-05
2.03657e-05
2.02219e-05
2.00753e-05
1.99258e-05
1.97738e-05
1.96191e-05
2.28454e-05
2.28577e-05
2.28712e-05
2.28849e-05
2.28983e-05
2.29106e-05
2.29214e-05
2.29301e-05
2.29363e-05
2.29394e-05
2.29392e-05
2.29353e-05
2.29274e-05
2.29153e-05
2.28989e-05
2.28779e-05
2.28523e-05
2.28219e-05
2.27868e-05
2.27468e-05
2.2702e-05
2.26523e-05
2.25979e-05
2.25386e-05
2.24746e-05
2.24059e-05
2.23325e-05
2.22546e-05
2.21723e-05
2.20855e-05
2.19944e-05
2.1899e-05
2.17996e-05
2.16961e-05
2.15886e-05
2.14773e-05
2.13622e-05
2.12435e-05
2.11212e-05
2.09954e-05
2.08663e-05
2.07338e-05
2.05982e-05
2.04595e-05
2.03178e-05
2.01732e-05
2.00258e-05
1.98756e-05
1.97228e-05
1.95675e-05
2.28503e-05
2.28631e-05
2.28767e-05
2.28904e-05
2.29034e-05
2.29152e-05
2.29252e-05
2.2933e-05
2.2938e-05
2.29399e-05
2.29383e-05
2.29329e-05
2.29234e-05
2.29097e-05
2.28916e-05
2.28688e-05
2.28414e-05
2.28093e-05
2.27723e-05
2.27306e-05
2.2684e-05
2.26325e-05
2.25763e-05
2.25153e-05
2.24495e-05
2.23792e-05
2.23042e-05
2.22247e-05
2.21407e-05
2.20524e-05
2.19598e-05
2.1863e-05
2.17621e-05
2.16573e-05
2.15485e-05
2.14359e-05
2.13196e-05
2.11996e-05
2.10762e-05
2.09493e-05
2.08191e-05
2.06856e-05
2.0549e-05
2.04094e-05
2.02668e-05
2.01213e-05
1.99731e-05
1.98221e-05
1.96686e-05
1.95125e-05
2.28557e-05
2.28689e-05
2.28826e-05
2.2896e-05
2.29086e-05
2.29197e-05
2.29289e-05
2.29356e-05
2.29394e-05
2.29399e-05
2.29367e-05
2.29297e-05
2.29186e-05
2.29031e-05
2.28831e-05