/*--------------------------------*- C++ -*----------------------------------*\
  =========                 |
  \\      /  F ield         | OpenFOAM: The Open Source CFD Toolbox
   \\    /   O peration     | Website:  https://openfoam.org
    \\  /    A nd           | Version:  7
     \\/     M anipulation  |
\*---------------------------------------------------------------------------*/
FoamFile
{
    version     2.0;
    format      ascii;
    class       volVectorField;
    location    "196000";
    object      vorticity;
}
// * * * * * * * * * * * * * * * * * * * * * * * * * * * * * * * * * * * * * //

dimensions      [0 0 -1 0 0 0 0];

internalField   nonuniform List<vector> 
4783
(
(-0.0008201 0.00179649 -7.18554e-17)
(-0.00150289 0.00111051 -2.16757e-17)
(-0.00138105 0.00114374 1.69784e-17)
(-0.00125367 0.00114266 2.55641e-17)
(-0.00112735 0.00112061 2.0012e-17)
(-0.0010058 0.00108359 1.2092e-17)
(-0.000890015 0.00103563 -4.70858e-18)
(-0.000780363 0.000979346 -2.30656e-17)
(-0.000677117 0.000916628 -2.63495e-17)
(-0.000580624 0.000849098 -4.50096e-18)
(-0.00049138 0.000778442 3.06813e-17)
(-0.000410021 0.00070657 5.52482e-17)
(-0.000337234 0.000635617 5.34627e-17)
(-0.00027357 0.000567782 5.1851e-17)
(-0.000219232 0.000505036 6.52376e-17)
(-0.000173947 0.000448875 6.86057e-17)
(-0.000136956 0.000400131 6.93305e-17)
(-0.00010716 0.000358949 7.33632e-17)
(-8.33177e-05 0.000325194 2.4942e-17)
(-6.41186e-05 0.000298296 -1.8983e-17)
(-4.83261e-05 0.000277406 -1.75307e-17)
(-3.50913e-05 0.000261586 -2.3964e-17)
(-0.000916003 0.00240611 -3.16493e-18)
(-0.00158532 0.00159567 -7.73316e-18)
(-0.00149698 0.00154899 -3.8357e-18)
(-0.00139327 0.00150265 4.59328e-18)
(-0.00127934 0.00145198 1.43249e-17)
(-0.0011629 0.00139483 1.84729e-17)
(-0.00104816 0.00133191 1.59273e-17)
(-0.000937316 0.0012645 2.39062e-18)
(-0.000831494 0.00119382 -1.12436e-17)
(-0.000731335 0.00112091 -7.71909e-18)
(-0.000637273 0.00104671 1.0751e-17)
(-0.000549694 0.000972196 2.46687e-17)
(-0.000468997 0.000898446 4.1157e-17)
(-0.000395585 0.000826688 5.31374e-17)
(-0.000329793 0.000758235 3.65098e-17)
(-0.000271778 0.000694368 4.68585e-18)
(-0.000221427 0.000636191 1.87734e-17)
(-0.000178304 0.000584517 5.22418e-17)
(-0.000141717 0.000539818 1.5579e-17)
(-0.0001108 0.000502244 -2.19473e-17)
(-8.45778e-05 0.000471642 -7.84484e-18)
(-6.20689e-05 0.000447669 -8.13528e-18)
(-0.0010907 0.00275039 1.29189e-17)
(-0.00176121 0.00185551 7.09577e-18)
(-0.0016429 0.00179197 4.08793e-18)
(-0.00153559 0.00173333 2.22939e-18)
(-0.00142546 0.00167861 8.3488e-18)
(-0.00131277 0.00162312 1.55431e-17)
(-0.00119978 0.00156485 1.90978e-17)
(-0.00108865 0.00150343 1.75627e-17)
(-0.000980945 0.00143925 1.42874e-17)
(-0.000877693 0.00137295 9.66598e-18)
(-0.000779555 0.00130524 4.37197e-18)
(-0.000686972 0.00123686 6.94321e-18)
(-0.000600271 0.00116855 2.24002e-17)
(-0.000519721 0.00110113 3.48148e-17)
(-0.000445552 0.00103553 2.11958e-17)
(-0.000377925 0.00097274 -8.09447e-18)
(-0.000316879 0.000913772 6.04442e-18)
(-0.00026228 0.000859598 3.3343e-17)
(-0.000213796 0.000811041 -2.18339e-17)
(-0.000170913 0.00076875 -7.87476e-17)
(-0.000132951 0.00073317 -5.86902e-17)
(-9.90944e-05 0.000704565 -3.2667e-17)
(-0.00127129 0.00300058 1.82329e-17)
(-0.00195765 0.0020893 3.96046e-18)
(-0.00181656 0.00202398 -1.03604e-18)
(-0.00169328 0.00196027 1.11581e-18)
(-0.00157561 0.00190214 6.68696e-18)
(-0.00145999 0.00184672 1.1988e-17)
(-0.00134558 0.00179161 1.40527e-17)
(-0.00123293 0.00173547 1.5193e-17)
(-0.00112298 0.0016778 1.61764e-17)
(-0.00101663 0.00161867 1.26939e-17)
(-0.000914601 0.00155844 5.43242e-18)
(-0.000817382 0.0014976 3.79353e-18)
(-0.000725326 0.00143671 1.48487e-17)
(-0.000638669 0.00137638 2.13274e-17)
(-0.000557571 0.00131729 8.80846e-18)
(-0.000482119 0.00126018 -1.49072e-17)
(-0.000412326 0.00120584 -1.70456e-17)
(-0.000348101 0.00115512 -1.02103e-17)
(-0.000289229 0.00110883 -4.54547e-17)
(-0.000235353 0.00106773 -8.50474e-17)
(-0.000185976 0.00103252 -6.57669e-17)
(-0.000140456 0.00100373 -2.64451e-17)
(-0.00144896 0.00322487 1.19951e-17)
(-0.00215154 0.00230693 4.50593e-18)
(-0.00199965 0.00224897 -2.05587e-18)
(-0.00186295 0.00218761 -4.1285e-18)
(-0.00173421 0.0021296 2.52582e-18)
(-0.00161085 0.00207453 1.23121e-17)
(-0.00149111 0.00202122 1.23323e-17)
(-0.00137431 0.00196847 1.16379e-17)
(-0.00126053 0.00191553 1.0826e-17)
(-0.00115015 0.00186208 2.11165e-18)
(-0.00104366 0.00180815 -6.82573e-18)
(-0.000941476 0.00175399 -2.88727e-19)
(-0.000843915 0.00169999 1.0043e-17)
(-0.000751199 0.00164663 3.13662e-18)
(-0.000663451 0.00159443 -1.04858e-17)
(-0.000580716 0.00154397 -2.39559e-17)
(-0.000502959 0.00149588 -2.93366e-17)
(-0.000430065 0.00145084 -2.86647e-17)
(-0.000361825 0.00140952 -4.67297e-17)
(-0.000297926 0.00137262 -6.3784e-17)
(-0.000237945 0.00134076 -4.15065e-17)
(-0.000181347 0.00131454 -8.33989e-18)
(-0.00162512 0.00343786 8.67958e-19)
(-0.00233967 0.00251472 1.15331e-18)
(-0.00218212 0.00246562 -1.51584e-18)
(-0.00203659 0.00241064 -2.04945e-18)
(-0.00189817 0.00235646 1.05643e-18)
(-0.00176599 0.00230392 1.04124e-17)
(-0.00163882 0.00225297 1.19819e-17)
(-0.00151579 0.00220312 8.2539e-18)
(-0.00139646 0.00215386 4.38549e-18)
(-0.0012808 0.00210484 -4.96246e-18)
(-0.00116896 0.00205594 -9.98951e-18)
(-0.00106117 0.00200725 1.60283e-19)
(-0.000957646 0.00195901 4.31418e-18)
(-0.000858558 0.00191158 -1.71656e-17)
(-0.000763991 0.00186538 -3.47249e-17)
(-0.000673959 0.0018209 -3.4169e-17)
(-0.000588397 0.00177863 -3.01544e-17)
(-0.000507165 0.00173914 -2.67685e-17)
(-0.000430043 0.00170297 -3.48569e-17)
(-0.000356726 0.00167068 -4.55104e-17)
(-0.000286824 0.00164281 -2.53897e-17)
(-0.00021986 0.00161986 5.89314e-18)
(-0.00180069 0.00364296 -3.81856e-18)
(-0.00252306 0.0027165 -7.37297e-19)
(-0.00236118 0.00267545 -8.66575e-19)
(-0.00220942 0.00262788 1.79432e-19)
(-0.00206342 0.0025796 1.53544e-18)
(-0.00192321 0.00253157 6.64921e-18)
(-0.00178831 0.00248431 7.95059e-18)
(-0.00165812 0.00243791 4.72361e-18)
(-0.00153217 0.00239224 2.833e-19)
(-0.00141022 0.00234713 -8.58335e-18)
(-0.0012922 0.0023025 -1.15138e-17)
(-0.00117816 0.0022584 -1.40469e-18)
(-0.00106818 0.00221497 1.76029e-21)
(-0.000962348 0.0021725 -2.47048e-17)
(-0.0008607 0.00213131 -4.23204e-17)
(-0.000763216 0.00209182 -3.15095e-17)
(-0.00066981 0.00205445 -2.26172e-17)
(-0.000580325 0.00201965 -2.18645e-17)
(-0.000494534 0.00198789 -2.22245e-17)
(-0.000412141 0.00195963 -2.49479e-17)
(-0.000332776 0.00193529 -1.8127e-17)
(-0.000256001 0.00191528 -1.85394e-18)
(-0.00197594 0.00384176 -1.96859e-19)
(-0.00270283 0.0029141 9.9625e-19)
(-0.00253677 0.00288027 3.58161e-18)
(-0.00237976 0.00283993 2.66734e-18)
(-0.00222751 0.00279819 -4.32081e-19)
(-0.00208033 0.00275578 2.09549e-18)
(-0.00193817 0.0027133 3.71271e-18)
(-0.00180077 0.00267114 -1.39547e-19)
(-0.0016678 0.00262946 -3.10288e-18)
(-0.00153902 0.0025883 -8.77779e-18)
(-0.00141427 0.00254771 -1.4992e-17)
(-0.00129348 0.00250774 -1.10486e-17)
(-0.00117664 0.00246856 -8.6545e-18)
(-0.00106376 0.00243039 -2.27771e-17)
(-0.000954802 0.00239351 -3.5204e-17)
(-0.000849721 0.00235825 -2.29062e-17)
(-0.000748405 0.00232499 -9.91635e-18)
(-0.000650689 0.00229411 -9.25375e-18)
(-0.000556345 0.002266 -1.12736e-17)
(-0.000465084 0.00224105 -1.58201e-17)
(-0.000376556 0.00221962 -1.61378e-17)
(-0.000290354 0.00220204 -7.71323e-18)
(-0.00215091 0.00403541 5.48452e-18)
(-0.00287974 0.00310846 6.76297e-18)
(-0.0027094 0.0030813 7.99539e-18)
(-0.0025474 0.00304779 5.13288e-18)
(-0.00238953 0.00301258 1.69239e-18)
(-0.0022361 0.00297616 1.36597e-18)
(-0.00208724 0.00293908 1.42531e-18)
(-0.0019429 0.00290177 -1.04645e-18)
(-0.00180293 0.00286453 -2.02132e-18)
(-0.00166715 0.00282758 -7.01331e-18)
(-0.00153541 0.00279106 -1.66009e-17)
(-0.0014076 0.00275512 -1.85401e-17)
(-0.00128364 0.00271993 -1.58199e-17)
(-0.00116349 0.0026857 -2.18859e-17)
(-0.00104706 0.00265269 -2.95834e-17)
(-0.000934283 0.00262119 -1.96333e-17)
(-0.000825017 0.00259152 -4.87475e-18)
(-0.00071909 0.00256403 -2.36402e-18)
(-0.000616275 0.00253905 -4.97065e-18)
(-0.000516293 0.00251691 -8.50763e-18)
(-0.000418812 0.00249792 -1.28799e-17)
(-0.000323452 0.00248236 -1.03084e-17)
(-0.0023256 0.00422475 2.6782e-18)
(-0.0030543 0.00330016 9.87268e-18)
(-0.00287954 0.00327934 1.04029e-17)
(-0.00271257 0.00325231 6.5326e-18)
(-0.00254931 0.00322342 3.41374e-18)
(-0.00239002 0.00319302 3.26105e-18)
(-0.00223486 0.00316154 2.87101e-18)
(-0.00208391 0.00312939 -3.94008e-19)
(-0.0019371 0.00309692 -1.66557e-18)
(-0.00179436 0.00306443 -5.859e-18)
(-0.00165557 0.00303213 -1.77613e-17)
(-0.00152062 0.00300024 -2.63731e-17)
(-0.00138942 0.00296896 -2.2163e-17)
(-0.00126188 0.00293851 -1.81074e-17)
(-0.0011379 0.00290914 -2.5364e-17)
(-0.00101736 0.00288113 -2.4829e-17)
(-0.000900137 0.00285475 -9.14897e-18)
(-0.000786031 0.00283032 -3.13367e-18)
(-0.000674822 0.00280814 -5.89053e-18)
(-0.000566237 0.00278849 -7.36463e-18)
(-0.000459964 0.00277165 -1.33234e-17)
(-0.000355646 0.00275786 -1.49837e-17)
(-0.00249998 0.00441045 6.78571e-19)
(-0.00322684 0.00348961 8.87418e-18)
(-0.00304755 0.00347491 8.00557e-18)
(-0.00287558 0.00345411 2.95864e-18)
(-0.00270699 0.0034313 1.85814e-18)
(-0.00254201 0.00340679 4.21352e-18)
(-0.0023808 0.00338091 3.35223e-18)
(-0.00222345 0.00335404 -3.27483e-18)
(-0.00207 0.0033265 -5.98409e-18)
(-0.00192041 0.00329862 -9.15985e-18)
(-0.00177461 0.00327067 -2.07618e-17)
(-0.00163252 0.00324289 -3.06922e-17)
(-0.00149404 0.00321551 -2.51006e-17)
(-0.00135907 0.00318879 -1.60657e-17)
(-0.00122751 0.00316295 -2.13625e-17)
(-0.00109921 0.00313827 -2.60576e-17)
(-0.00097404 0.00311501 -1.14211e-17)
(-0.0008518 0.00309345 -3.53775e-18)
(-0.000732271 0.00307387 -8.41866e-18)
(-0.00061519 0.00305651 -9.42536e-18)
(-0.000500259 0.00304164 -1.49497e-17)
(-0.000387143 0.00302946 -1.82582e-17)
(-0.00267405 0.00459307 3.9439e-18)
(-0.00339764 0.00367714 4.41477e-18)
(-0.00321374 0.00366838 3.65987e-18)
(-0.00303671 0.0036536 8.53214e-19)
(-0.00286279 0.0036367 1.58017e-18)
(-0.00269218 0.00361792 5.37193e-18)
(-0.00252502 0.00359756 4.74208e-18)
(-0.00236144 0.00357594 -2.75088e-18)
(-0.00220149 0.00355338 -8.65004e-18)
(-0.00204517 0.00353018 -1.25591e-17)
(-0.00189244 0.00350663 -2.17249e-17)
(-0.00174326 0.003483 -2.89945e-17)
(-0.00159752 0.00345954 -2.24193e-17)
(-0.00145514 0.00343651 -1.29752e-17)
(-0.00131599 0.00341415 -1.79311e-17)
(-0.00117996 0.00339272 -2.43076e-17)
(-0.00104688 0.00337247 -1.16639e-17)
(-0.000916562 0.00335366 -5.25691e-18)
(-0.00078879 0.00333654 -1.12085e-17)
(-0.000663312 0.00332136 -1.19917e-17)
(-0.000539842 0.00330834 -1.74002e-17)
(-0.000418064 0.00329766 -2.21881e-17)
(-0.0028478 0.00477304 9.58962e-19)
(-0.00356693 0.00386301 4.66225e-19)
(-0.00337832 0.00386006 1.8868e-18)
(-0.00319619 0.00385114 1.78098e-18)
(-0.00301691 0.00383997 3.0354e-18)
(-0.00284068 0.00382678 6.04142e-18)
(-0.00266765 0.00381182 5.06886e-18)
(-0.00249791 0.00379538 -2.44101e-18)
(-0.00233155 0.00377775 -1.06288e-17)
(-0.00216859 0.00375923 -1.44004e-17)
(-0.00200902 0.0037401 -2.00933e-17)
(-0.0018528 0.00372063 -2.39459e-17)
(-0.00169985 0.00370109 -1.80903e-17)
(-0.0015501 0.00368173 -1.12362e-17)
(-0.00140342 0.0036628 -1.59683e-17)
(-0.00125969 0.00364455 -2.2049e-17)
(-0.00111875 0.00362724 -1.27946e-17)
(-0.00098042 0.0036111 -8.70778e-18)
(-0.000844485 0.00359637 -1.43772e-17)
(-0.000710703 0.00358328 -1.42184e-17)
(-0.000578804 0.00357203 -1.75718e-17)
(-0.000448488 0.00356279 -2.23204e-17)
(-0.00302125 0.00495076 -1.04203e-18)
(-0.0037349 0.00404743 -2.86297e-18)
(-0.00354151 0.00405017 1.4591e-19)
(-0.00335421 0.00404699 2.03766e-18)
(-0.00316955 0.00404142 4.28333e-18)
(-0.0029877 0.00403369 5.78913e-18)
(-0.0028088 0.00402401 2.62811e-18)
(-0.00263296 0.00401265 -4.9447e-18)
(-0.00246025 0.00399989 -1.21829e-17)
(-0.00229072 0.00398599 -1.49818e-17)
(-0.00212437 0.00397124 -1.77676e-17)
(-0.00196117 0.00395591 -1.83208e-17)
(-0.00180108 0.00394026 -1.48646e-17)
(-0.001644 0.00392454 -1.37113e-17)
(-0.00148983 0.003909 -1.81355e-17)
(-0.00133846 0.00389389 -1.99767e-17)
(-0.00118972 0.00387946 -1.27982e-17)
(-0.00104345 0.00386593 -1.22962e-17)
(-0.000899429 0.00385352 -1.62865e-17)
(-0.000757435 0.00384245 -1.46799e-17)
(-0.000617208 0.00383291 -1.69434e-17)
(-0.000478466 0.00382506 -2.04918e-17)
(-0.00319444 0.00512657 -5.59571e-19)
(-0.00390174 0.00423063 -2.67995e-18)
(-0.00370349 0.00423895 -6.31454e-19)
(-0.00351097 0.00424138 2.67895e-18)
(-0.00332088 0.0042413 5.4282e-18)
(-0.00313338 0.0042389 4.46086e-18)
(-0.00294862 0.00423439 -1.13204e-18)
(-0.00276669 0.00422801 -7.83642e-18)
(-0.00258767 0.00422002 -1.3389e-17)
(-0.00241162 0.00421069 -1.50754e-17)
(-0.00223854 0.00420027 -1.44908e-17)
(-0.00206843 0.00418903 -1.31952e-17)
(-0.00190123 0.00417722 -1.42667e-17)
(-0.00173688 0.00416509 -1.88639e-17)
(-0.00157529 0.0041529 -2.19236e-17)
(-0.00141633 0.00414089 -1.89608e-17)
(-0.00125986 0.00412927 -1.27515e-17)
(-0.00110571 0.00411829 -1.40515e-17)
(-0.000953683 0.00410815 -1.64235e-17)
(-0.000803564 0.00409906 -1.50853e-17)
(-0.0033674 0.00530075 -4.16097e-18)
(-0.00406761 0.00441277 -2.17807e-18)
(-0.00386443 0.0044266 -7.237e-19)
(-0.00366663 0.00443454 2.71717e-18)
(-0.00347107 0.00443983 4.71685e-18)
(-0.0032779 0.00444264 2.27527e-18)
(-0.00308726 0.00444319 -3.38082e-18)
(-0.00289924 0.0044417 -9.28736e-18)
(-0.00271394 0.0044384 -1.50014e-17)
(-0.00253139 0.00443355 -1.58659e-17)
(-0.00235162 0.00442738 -1.2484e-17)
(-0.00217463 0.00442017 -9.83777e-18)
(-0.00200038 0.00441215 -1.51381e-17)
(-0.00182882 0.00440357 -2.41848e-17)
(-0.00165984 0.00439467 -2.44246e-17)
(-0.00149335 0.00438569 -1.71607e-17)
(-0.00132921 0.00437685 -1.22284e-17)
(-0.00116726 0.00436837 -1.48665e-17)
(-0.0010073 0.00436045 -1.57574e-17)
(-0.00354018 0.00547358 -4.01281e-18)
(-0.00423266 0.00459404 -1.75938e-18)
(-0.00402448 0.00461328 -8.06543e-19)
(-0.00382135 0.00462664 7.82181e-19)
(-0.00362027 0.0046372 1.46861e-18)
(-0.0034214 0.00464514 -8.78887e-19)
(-0.00322486 0.00465065 -3.93993e-18)
(-0.00303075 0.00465394 -8.72527e-18)
(-0.00283916 0.00465524 -1.63027e-17)
(-0.00265013 0.00465478 -1.73783e-17)
(-0.0024637 0.0046528 -1.19588e-17)
(-0.00227987 0.00464954 -8.70676e-18)
(-0.00209861 0.00464525 -1.57473e-17)
(-0.00191987 0.00464015 -2.57237e-17)
(-0.00174357 0.0046345 -2.30033e-17)
(-0.0015696 0.0046285 -1.41587e-17)
(-0.00139785 0.00462238 -1.28002e-17)
(-0.00371284 0.00564529 7.60494e-19)
(-0.00439704 0.00477459 -1.4948e-19)
(-0.00418378 0.00479917 -7.28502e-19)
(-0.00397527 0.00481786 -1.30533e-18)
(-0.00376863 0.0048336 -1.46354e-18)
(-0.00356402 0.00484657 -2.75148e-18)
(-0.00336155 0.00485695 -3.24837e-18)
(-0.00316134 0.00486494 -7.67637e-18)
(-0.00296345 0.00487074 -1.7304e-17)
(-0.00276796 0.00487459 -1.93708e-17)
(-0.00257489 0.00487672 -1.22109e-17)
(-0.00238424 0.00487735 -8.23335e-18)
(-0.002196 0.00487671 -1.55335e-17)
(-0.00201012 0.00487504 -2.40488e-17)
(-0.00388543 0.0058161 2.67523e-18)
(-0.00456089 0.00495457 1.94119e-18)
(-0.00434248 0.00498443 -2.62192e-19)
(-0.00412853 0.00500836 -2.56568e-18)
(-0.00391628 0.00502921 -3.59942e-18)
(-0.00370589 0.00504712 -3.62564e-18)
(-0.00349747 0.00506228 -3.05479e-18)
(-0.00329113 0.00507488 -7.05477e-18)
(-0.00308695 0.00508511 -1.74921e-17)
(-0.00288498 0.00509319 -2.0514e-17)
(-0.00268527 0.00509934 -1.22136e-17)
(-0.00248783 0.00510379 -8.43885e-18)
(-0.00405803 0.00598623 7.63253e-19)
(-0.00472434 0.00513414 1.7059e-18)
(-0.00450071 0.0051692 -1.12065e-18)
(-0.00428126 0.00519831 -3.60406e-18)
(-0.00406335 0.00522418 -4.56579e-18)
(-0.00384714 0.00524696 -4.26202e-18)
(-0.00363273 0.00526682 -3.72745e-18)
(-0.00342024 0.00528395 -7.26649e-18)
(-0.00320975 0.00529852 -1.71179e-17)
(-0.00300131 0.00531076 -2.05156e-17)
(-0.00423071 0.00615584 4.36362e-19)
(-0.00488751 0.00531341 1.27862e-18)
(-0.0046586 0.00535363 -1.34722e-18)
(-0.00443359 0.00538785 -3.61304e-18)
(-0.00420997 0.00541868 -5.22139e-18)
(-0.00398789 0.00544625 -5.49927e-18)
(-0.00376746 0.00547074 -5.71048e-18)
(-0.0035488 0.00549231 -8.02275e-18)
(-0.00333197 0.00551116 -1.60371e-17)
(-0.00440353 0.00632512 3.07914e-18)
(-0.00505053 0.00549254 2.30229e-18)
(-0.00481626 0.00553785 -9.34139e-19)
(-0.00458563 0.00557712 -3.59667e-18)
(-0.00435625 0.00561284 -6.73006e-18)
(-0.00412826 0.00564514 -8.22359e-18)
(-0.00390177 0.00567419 -8.19079e-18)
(-0.0036769 0.00570015 -9.15163e-18)
(-0.00457659 0.00649424 5.43841e-18)
(-0.00521351 0.00567164 2.20721e-18)
(-0.00497382 0.005722 -1.55259e-18)
(-0.00473751 0.00576627 -3.66594e-18)
(-0.00450231 0.00580681 -6.96298e-18)
(-0.00426836 0.00584378 -1.00927e-17)
(-0.00403578 0.00587732 -1.00429e-17)
(-0.00474994 0.00666334 6.48557e-18)
(-0.00537657 0.00585084 1.65203e-18)
(-0.00513138 0.00590621 -1.37827e-18)
(-0.00488934 0.00595541 -3.20175e-18)
(-0.00464827 0.00600074 -6.6162e-18)
(-0.00440831 0.00604231 -1.09936e-17)
(-0.00492369 0.00683256 5.24228e-18)
(-0.00553981 0.00603025 3.18485e-19)
(-0.00528905 0.0060906 -1.81705e-18)
(-0.00504121 0.00614469 -2.84989e-18)
(-0.00479421 0.00619474 -6.1226e-18)
(-0.00454819 0.00624087 -1.20569e-17)
(-0.00509789 0.00700206 -5.79177e-19)
(-0.00570335 0.00621 -2.76004e-18)
(-0.00544695 0.00627528 -2.83901e-18)
(-0.00519325 0.00633423 -2.88404e-18)
(-0.00494026 0.00638895 -5.96828e-18)
(-0.00527265 0.00717196 -9.46744e-18)
(-0.00586728 0.0063902 -6.01951e-18)
(-0.00560517 0.00646038 -3.89909e-18)
(-0.00534554 0.00652414 -2.47683e-18)
(-0.00544803 0.00734239 -1.35224e-17)
(-0.00603172 0.00657096 -8.04179e-18)
(-0.00576381 0.00664601 -4.52498e-18)
(-0.0054982 0.00671455 -2.26284e-18)
(-0.00562414 0.00751347 -1.18141e-17)
(-0.00619675 0.00675238 -8.54108e-18)
(-0.00592298 0.00683229 -4.38977e-18)
(-0.00580104 0.00768532 -9.0267e-18)
(-0.00636249 0.00693458 -8.56109e-18)
(-0.00608277 0.00701932 -4.10395e-18)
(-0.00597883 0.00785805 -9.38607e-18)
(-0.00652901 0.00711765 -8.66933e-18)
(-0.00624328 0.00720721 -3.88418e-18)
(-0.00615758 0.00803179 -1.20323e-17)
(-0.00669643 0.00730172 -9.4206e-18)
(-0.0064046 0.00739607 -4.37031e-18)
(-0.0063374 0.00820663 -1.44481e-17)
(-0.00686484 0.00748687 -9.95275e-18)
(-0.00656682 0.00758601 -4.89978e-18)
(-0.00651836 0.0083827 -1.44745e-17)
(-0.00703433 0.00767321 -9.13209e-18)
(-0.00673004 0.00777714 -5.87196e-18)
(-0.00670056 0.00856008 -1.24048e-17)
(-0.00720499 0.00786085 -7.60131e-18)
(-0.00689435 0.00796955 -6.47187e-18)
(-0.00688408 0.0087389 -8.2363e-18)
(-0.00737692 0.00804989 -5.64369e-18)
(-0.00705983 0.00816336 -6.97953e-18)
(-0.00706902 0.00891926 -2.57058e-18)
(-0.00755021 0.00824042 -3.26908e-18)
(-0.00722659 0.00835867 -7.326e-18)
(-0.00725546 0.00910126 1.92014e-18)
(-0.00772496 0.00843256 -1.42721e-18)
(-0.00739471 0.00855558 -6.80017e-18)
(-0.0074435 0.009285 2.59832e-18)
(-0.00790126 0.0086264 -7.68316e-19)
(-0.00756429 0.00875421 -5.50604e-18)
(-0.00763322 0.0094706 4.32801e-19)
(-0.00807921 0.00882205 -9.10594e-19)
(-0.00773541 0.00895465 -4.03528e-18)
(-0.00782474 0.00965815 -1.19839e-18)
(-0.00825889 0.00901961 -6.24387e-19)
(-0.00790817 0.00915702 -3.02206e-18)
(-0.00801813 0.00984775 -1.73794e-18)
(-0.00844041 0.00921919 -8.07203e-19)
(-0.00808265 0.00936142 -3.0104e-18)
(-0.00179649 0.000820099 -3.80009e-17)
(-0.00240611 0.000916002 3.60681e-18)
(-0.0027504 0.0010907 1.32244e-17)
(-0.00300058 0.00127129 1.50608e-17)
(-0.00322487 0.00144896 1.43039e-17)
(-0.00343786 0.00162512 8.72198e-18)
(-0.00364296 0.00180069 5.11327e-19)
(-0.00384177 0.00197593 1.67154e-18)
(-0.00403541 0.00215091 6.83517e-18)
(-0.00422475 0.0023256 3.90279e-18)
(-0.00441045 0.00249998 5.79372e-19)
(-0.00459307 0.00267404 4.75774e-18)
(-0.00477304 0.0028478 2.71232e-18)
(-0.00495077 0.00302125 -3.82033e-18)
(-0.00512657 0.00319444 -2.13372e-18)
(-0.00530075 0.0033674 -2.56182e-19)
(-0.00547358 0.00354018 -7.82134e-19)
(-0.00564529 0.00371284 1.04872e-18)
(-0.00581611 0.00388543 2.14971e-18)
(-0.00598623 0.00405803 2.27365e-18)
(-0.00615585 0.00423071 2.88063e-18)
(-0.00632513 0.00440353 3.76891e-18)
(-0.00649424 0.00457658 4.14715e-18)
(-0.00666334 0.00474994 4.40835e-18)
(-0.00683257 0.00492368 2.72483e-18)
(-0.00700207 0.00509789 -2.38989e-18)
(-0.00717196 0.00527264 -9.53937e-18)
(-0.00734239 0.00544803 -1.0962e-17)
(-0.00751347 0.00562413 -8.06498e-18)
(-0.00768532 0.00580103 -5.81319e-18)
(-0.00785806 0.00597882 -6.55427e-18)
(-0.00803179 0.00615758 -1.04252e-17)
(-0.00820664 0.0063374 -1.24181e-17)
(-0.0083827 0.00651836 -8.50596e-18)
(-0.00856009 0.00670056 -4.24057e-18)
(-0.00873891 0.00688408 -1.42234e-18)
(-0.00891926 0.00706902 1.64392e-18)
(-0.00910126 0.00725546 3.58476e-18)
(-0.009285 0.00744349 2.57228e-18)
(-0.0094706 0.00763322 -6.95399e-19)
(-0.00965815 0.00782474 -2.9093e-18)
(-0.00984776 0.00801813 -2.91716e-18)
(-0.00111052 0.00150289 -5.2294e-18)
(-0.00159567 0.00158532 -5.31768e-18)
(-0.00185552 0.00176121 3.85859e-18)
(-0.0020893 0.00195765 1.74981e-18)
(-0.00230693 0.00215154 2.74068e-18)
(-0.00251472 0.00233967 8.26596e-19)
(-0.0027165 0.00252305 -2.16758e-19)
(-0.0029141 0.00270282 1.96053e-18)
(-0.00310846 0.00287974 7.43492e-18)
(-0.00330016 0.00305429 9.83026e-18)
(-0.00348962 0.00322684 8.66947e-18)
(-0.00367714 0.00339764 7.17514e-18)
(-0.00386301 0.00356693 7.13592e-18)
(-0.00404744 0.0037349 3.97551e-18)
(-0.00423063 0.00390174 1.6031e-18)
(-0.00441278 0.0040676 1.70454e-19)
(-0.00459404 0.00423266 5.53127e-19)
(-0.00477459 0.00439704 2.00489e-18)
(-0.00495458 0.00456089 3.38116e-18)
(-0.00513414 0.00472433 3.92097e-18)
(-0.00531342 0.00488751 3.53169e-18)
(-0.00549254 0.00505052 3.87323e-18)
(-0.00567164 0.00521351 4.65074e-18)
(-0.00585084 0.00537656 4.94744e-18)
(-0.00603026 0.00553981 3.38024e-18)
(-0.00621001 0.00570335 5.55733e-21)
(-0.0063902 0.00586728 -4.52113e-18)
(-0.00657096 0.00603171 -7.04309e-18)
(-0.00675238 0.00619675 -7.30444e-18)
(-0.00693458 0.00636248 -6.86015e-18)
(-0.00711766 0.00652901 -7.18353e-18)
(-0.00730172 0.00669643 -8.80886e-18)
(-0.00748687 0.00686484 -8.8252e-18)
(-0.00767322 0.00703432 -8.22029e-18)
(-0.00786085 0.00720499 -7.53498e-18)
(-0.00804989 0.00737692 -4.95421e-18)
(-0.00824042 0.00755021 -1.83069e-18)
(-0.00843256 0.00772496 -3.33504e-19)
(-0.0086264 0.00790126 4.31891e-19)
(-0.00882205 0.0080792 3.90528e-19)
(-0.00901961 0.00825889 2.43504e-19)
(-0.00921919 0.00844041 -2.38905e-19)
(-0.00114374 0.00138105 2.45102e-17)
(-0.00154899 0.00149698 -5.77116e-18)
(-0.00179198 0.0016429 -1.00189e-18)
(-0.00202398 0.00181656 -3.21744e-18)
(-0.00224897 0.00199965 -1.80199e-18)
(-0.00246562 0.00218212 -1.57437e-18)
(-0.00267546 0.00236118 4.21879e-19)
(-0.00288027 0.00253677 4.8136e-18)
(-0.0030813 0.0027094 9.4026e-18)
(-0.00327935 0.00287954 1.25168e-17)
(-0.00347492 0.00304755 1.14371e-17)
(-0.00366839 0.00321374 8.91973e-18)
(-0.00386006 0.00337832 7.38932e-18)
(-0.00405018 0.00354151 4.91816e-18)
(-0.00423896 0.00370349 3.17733e-18)
(-0.0044266 0.00386443 1.86028e-18)
(-0.00461328 0.00402447 1.29326e-18)
(-0.00479917 0.00418378 1.72506e-18)
(-0.00498443 0.00434248 2.35271e-18)
(-0.0051692 0.00450071 1.98719e-18)
(-0.00535363 0.0046586 1.40486e-18)
(-0.00553786 0.00481626 1.51151e-18)
(-0.00572201 0.00497381 1.46695e-18)
(-0.00590622 0.00513137 1.2411e-18)
(-0.0060906 0.00528905 1.14394e-19)
(-0.00627529 0.00544694 -1.379e-18)
(-0.00646039 0.00560516 -2.73027e-18)
(-0.00664602 0.00576381 -3.84104e-18)
(-0.00683229 0.00592298 -4.32886e-18)
(-0.00701932 0.00608277 -4.53518e-18)
(-0.00720721 0.00624327 -4.62788e-18)
(-0.00739607 0.00640459 -5.41542e-18)
(-0.00758601 0.00656681 -5.1759e-18)
(-0.00777714 0.00673003 -6.5859e-18)
(-0.00796955 0.00689434 -7.37312e-18)
(-0.00816336 0.00705983 -6.77299e-18)
(-0.00835867 0.00722659 -6.53214e-18)
(-0.00855559 0.00739471 -6.33363e-18)
(-0.00875421 0.00756428 -4.59405e-18)
(-0.00895465 0.0077354 -3.16686e-18)
(-0.00915702 0.00790816 -2.82416e-18)
(-0.00936142 0.00808265 -3.22862e-18)
(-0.00114266 0.00125367 3.10105e-17)
(-0.00150265 0.00139327 1.38298e-18)
(-0.00173333 0.00153559 -1.24414e-18)
(-0.00196027 0.00169328 3.58381e-19)
(-0.00218761 0.00186295 -1.59201e-18)
(-0.00241064 0.00203659 1.0428e-18)
(-0.00262788 0.00220942 2.91029e-18)
(-0.00283993 0.00237976 4.73079e-18)
(-0.00304779 0.0025474 7.02466e-18)
(-0.00325232 0.00271257 9.115e-18)
(-0.00345411 0.00287558 6.48884e-18)
(-0.0036536 0.00303671 4.74246e-18)
(-0.00385114 0.00319618 5.23451e-18)
(-0.00404699 0.00335421 5.82673e-18)
(-0.00424139 0.00351097 6.47597e-18)
(-0.00443454 0.00366663 6.12399e-18)
(-0.00462664 0.00382134 4.05854e-18)
(-0.00481786 0.00397526 2.36561e-18)
(-0.00500837 0.00412852 1.33038e-18)
(-0.00519831 0.00428125 5.01027e-19)
(-0.00538785 0.00443358 -1.45787e-19)
(-0.00557713 0.00458563 -4.8317e-19)
(-0.00576627 0.00473751 -9.93792e-19)
(-0.00595542 0.00488933 -1.43094e-18)
(-0.0061447 0.00504121 -1.93571e-18)
(-0.00633423 0.00519324 -2.55365e-18)
(-0.00652414 0.00534554 -2.77321e-18)
(-0.00671455 0.00549819 -3.40396e-18)
(-0.00690557 0.0056513 -4.02214e-18)
(-0.00709732 0.00580496 -4.53521e-18)
(-0.0072899 0.00595927 -5.33626e-18)
(-0.00748344 0.00611431 -5.85043e-18)
(-0.00767804 0.00627018 -6.0398e-18)
(-0.00787381 0.00642697 -7.25942e-18)
(-0.00807086 0.00658476 -7.36203e-18)
(-0.00826929 0.00674366 -6.44315e-18)
(-0.00846922 0.00690373 -5.78857e-18)
(-0.00867076 0.00706508 -4.1605e-18)
(-0.00887401 0.00722779 -2.45562e-18)
(-0.00907908 0.00739195 -1.97374e-18)
(-0.00928608 0.00755766 -2.3546e-18)
(-0.00949512 0.00772499 -2.54154e-18)
(-0.00112062 0.00112735 2.43031e-17)
(-0.00145198 0.00127934 1.46534e-17)
(-0.00167861 0.00142546 7.74124e-18)
(-0.00190214 0.00157561 6.99678e-18)
(-0.0021296 0.00173421 5.29088e-18)
(-0.00235647 0.00189817 4.52351e-18)
(-0.0025796 0.00206342 4.86428e-18)
(-0.00279819 0.00222751 2.47769e-18)
(-0.00301258 0.00238952 4.42117e-18)
(-0.00322342 0.00254931 6.30987e-18)
(-0.0034313 0.00270699 5.07277e-18)
(-0.0036367 0.00286279 4.80064e-18)
(-0.00383998 0.00301691 6.35394e-18)
(-0.00404143 0.00316955 8.17553e-18)
(-0.00424131 0.00332088 9.63102e-18)
(-0.00443983 0.00347107 8.98637e-18)
(-0.0046372 0.00362027 6.02761e-18)
(-0.00483361 0.00376863 3.16645e-18)
(-0.00502921 0.00391628 1.20104e-18)
(-0.00522419 0.00406335 -1.21867e-19)
(-0.00541868 0.00420996 -1.33439e-18)
(-0.00561285 0.00435625 -2.43647e-18)
(-0.00580682 0.00450231 -3.0016e-18)
(-0.00600074 0.00464826 -3.75418e-18)
(-0.00619474 0.00479421 -4.52201e-18)
(-0.00638896 0.00494026 -5.24791e-18)
(-0.00658351 0.0050865 -5.4026e-18)
(-0.00677852 0.00523305 -6.19364e-18)
(-0.0069741 0.00537998 -6.75029e-18)
(-0.00717039 0.0055274 -7.12052e-18)
(-0.00736749 0.00567539 -7.71915e-18)
(-0.00756551 0.00582405 -7.83433e-18)
(-0.00776458 0.00597347 -8.48387e-18)
(-0.0079648 0.00612373 -8.00764e-18)
(-0.00816629 0.00627491 -6.28235e-18)
(-0.00836916 0.00642711 -4.29054e-18)
(-0.00857351 0.00658042 -3.3698e-18)
(-0.00877946 0.0067349 -2.60085e-18)
(-0.00898713 0.00689067 -2.68391e-18)
(-0.00919662 0.00704778 -2.6749e-18)
(-0.00940804 0.00720635 -2.4925e-18)
(-0.00962151 0.00736644 -2.16499e-18)
(-0.00108359 0.0010058 1.98745e-17)
(-0.00139483 0.0011629 2.50555e-17)
(-0.00162312 0.00131277 2.19679e-17)
(-0.00184672 0.00145999 1.48788e-17)
(-0.00207454 0.00161085 1.37966e-17)
(-0.00230392 0.00176598 1.37538e-17)
(-0.00253157 0.0019232 1.08142e-17)
(-0.00275578 0.00208033 6.49074e-18)
(-0.00297617 0.0022361 5.75759e-18)
(-0.00319302 0.00239002 7.54877e-18)
(-0.00340679 0.00254201 8.13295e-18)
(-0.00361792 0.00269217 9.05705e-18)
(-0.00382679 0.00284068 9.70437e-18)
(-0.00403369 0.0029877 9.67427e-18)
(-0.0042389 0.00313338 8.62799e-18)
(-0.00444265 0.0032779 6.66686e-18)
(-0.00464514 0.0034214 4.0428e-18)
(-0.00484658 0.00356401 2.17675e-18)
(-0.00504713 0.00370588 1.79735e-18)
(-0.00524697 0.00384713 1.49711e-18)
(-0.00544626 0.00398788 3.37074e-19)
(-0.00564515 0.00412826 -2.24016e-18)
(-0.00584379 0.00426836 -4.99357e-18)
(-0.00604232 0.0044083 -6.91907e-18)
(-0.00624087 0.00454819 -8.26809e-18)
(-0.00643959 0.00468812 -9.52511e-18)
(-0.00663861 0.0048282 -9.54644e-18)
(-0.00683804 0.00496851 -9.69303e-18)
(-0.00703801 0.00510915 -9.26849e-18)
(-0.00723865 0.00525022 -8.63147e-18)
(-0.00744008 0.0053918 -7.44311e-18)
(-0.0076424 0.00553397 -6.16807e-18)
(-0.00784575 0.00567683 -5.53277e-18)
(-0.00805024 0.00582046 -3.92229e-18)
(-0.00825597 0.00596495 -2.67069e-18)
(-0.00846307 0.00611037 -2.28954e-18)
(-0.00867164 0.00625681 -2.66708e-18)
(-0.00888181 0.00640435 -2.40643e-18)
(-0.00909369 0.00655308 -2.20491e-18)
(-0.00930739 0.00670307 -2.14588e-18)
(-0.00952303 0.00685442 -2.40039e-18)
(-0.00974072 0.0070072 -2.67342e-18)
(-0.00103563 0.000890015 7.21166e-18)
(-0.00133191 0.00104816 2.70335e-17)
(-0.00156485 0.00119978 2.96072e-17)
(-0.00179162 0.00134558 2.22851e-17)
(-0.00202122 0.00149111 1.59225e-17)
(-0.00225297 0.00163882 1.55376e-17)
(-0.00248431 0.0017883 1.24986e-17)
(-0.0027133 0.00193817 8.75226e-18)
(-0.00293908 0.00208724 6.59468e-18)
(-0.00316154 0.00223486 7.48593e-18)
(-0.00338092 0.00238079 7.29782e-18)
(-0.00359756 0.00252502 8.42154e-18)
(-0.00381183 0.00266765 8.73401e-18)
(-0.00402401 0.0028088 6.41515e-18)
(-0.00423439 0.00294862 2.66592e-18)
(-0.0044432 0.00308726 4.40312e-19)
(-0.00465065 0.00322486 -2.23886e-19)
(-0.00485695 0.00336155 5.58302e-19)
(-0.00506229 0.00349747 1.16634e-18)
(-0.00526683 0.00363273 4.29224e-19)
(-0.00547075 0.00376746 -1.62435e-18)
(-0.00567419 0.00390177 -4.52024e-18)
(-0.00587733 0.00403577 -6.74604e-18)
(-0.00608029 0.00416957 -8.65719e-18)
(-0.00628323 0.00430327 -1.01469e-17)
(-0.00648628 0.00443696 -1.05023e-17)
(-0.00668958 0.00457074 -9.83332e-18)
(-0.00689325 0.00470471 -9.3881e-18)
(-0.00709743 0.00483895 -8.6055e-18)
(-0.00730224 0.00497356 -7.88068e-18)
(-0.00750781 0.00510861 -7.03274e-18)
(-0.00771425 0.0052442 -6.33275e-18)
(-0.00792168 0.00538041 -5.38345e-18)
(-0.00813023 0.00551732 -4.35427e-18)
(-0.00834002 0.00565501 -3.67715e-18)
(-0.00855115 0.00579356 -2.92226e-18)
(-0.00876375 0.00593305 -2.0464e-18)
(-0.00897794 0.00607357 -1.24629e-18)