/*--------------------------------*- C++ -*----------------------------------*\
  =========                 |
  \\      /  F ield         | OpenFOAM: The Open Source CFD Toolbox
   \\    /   O peration     | Website:  https://openfoam.org
    \\  /    A nd           | Version:  7
     \\/     M anipulation  |
\*---------------------------------------------------------------------------*/
FoamFile
{
    version     2.0;
    format      ascii;
    class       surfaceScalarField;
    location    "24000";
    object      phi;
}
// * * * * * * * * * * * * * * * * * * * * * * * * * * * * * * * * * * * * * //

dimensions      [0 3 -1 0 0 0 0];

internalField   nonuniform List<scalar> 
9540
(
-1.42412e-23
5.28602e-24
6.32081e-24
5.01316e-24
-1.32257e-23
5.71901e-24
1.09851e-23
-3.50304e-24
1.35995e-23
4.49169e-24
-1.23291e-23
-4.38095e-24
3.40885e-24
-7.0581e-24
8.09125e-24
-6.87537e-24
3.51243e-24
-3.44538e-24
1.27044e-23
5.29328e-24
-8.63625e-24
-1.07234e-24
4.24345e-24
-7.83539e-24
4.01306e-24
-5.76609e-24
1.28286e-24
-8.42547e-24
1.69131e-23
2.00499e-24
3.01242e-23
1.58619e-23
-7.99524e-24
2.9602e-24
3.04614e-24
-8.1045e-24
3.35784e-24
-2.72313e-24
1.36366e-23
-5.17016e-24
1.66151e-23
1.30808e-24
1.161e-23
-7.5855e-25
1.84825e-23
4.15766e-23
-1.06135e-23
-1.82986e-23
7.2795e-25
-4.03162e-24
-1.81137e-24
-5.43329e-24
7.24105e-24
-3.76933e-24
1.42572e-23
1.00938e-24
8.74758e-24
4.4605e-24
2.88321e-24
-3.39996e-24
1.22218e-23
2.96053e-24
3.14759e-23
6.47986e-24
-8.75405e-24
-1.00019e-23
7.61844e-24
-1.26254e-24
-6.63722e-24
-4.0231e-24
1.08443e-23
-6.5059e-24
4.0721e-24
8.45707e-25
-3.02887e-25
6.00265e-24
1.60456e-23
2.14067e-24
9.04306e-24
-5.38653e-24
4.12498e-24
-1.27484e-23
1.07566e-23
1.58013e-23
-4.29364e-24
3.58676e-24
9.85571e-24
8.31229e-25
6.16317e-24
-4.70156e-24
-2.93132e-25
-7.77618e-24
6.06703e-24
4.95896e-24
2.34232e-23
3.60628e-24
1.86076e-23
-9.11281e-25
1.55444e-23
-4.80241e-24
5.86273e-24
-1.06714e-23
1.51729e-23
-8.28047e-24
8.88274e-24
-1.57533e-23
1.58051e-24
-1.02788e-23
1.8303e-24
-5.60229e-24
2.31654e-24
-1.11306e-23
-4.1511e-24
1.72519e-23
7.18852e-24
-1.51867e-24
1.36081e-23
-4.22848e-24
1.03465e-24
-5.8468e-24
-1.15117e-23
2.56428e-24
1.17544e-23
1.41153e-24
1.90004e-23
-4.91263e-24
2.00795e-23
-2.38364e-24
2.42548e-24
-1.32839e-23
-1.16861e-23
-9.42738e-24
2.43646e-24
-1.37896e-23
1.78048e-24
-1.12091e-23
5.15796e-24
-8.51892e-24
1.56718e-23
-1.02414e-23
2.71816e-23
-1.95128e-23
1.97637e-23
-2.19405e-23
1.63474e-23
-2.7192e-23
1.9495e-23
1.85416e-23
-3.81303e-24
1.42078e-23
7.07892e-24
-3.61421e-24
1.41493e-23
-8.4863e-24
5.02341e-24
-1.03613e-24
1.80877e-23
2.05114e-24
1.26686e-23
6.0796e-25
2.16322e-23
-8.29212e-24
-7.17148e-24
-4.42146e-24
-2.07099e-24
-1.00208e-23
-3.27529e-24
-1.13029e-23
4.54317e-25
-1.32572e-23
-2.3492e-24
-1.11281e-23
-2.03443e-24
-4.54083e-24
8.90389e-24
-1.2411e-23
2.51928e-25
-1.6793e-23
1.12386e-23
-2.12465e-23
1.58705e-23
-2.73776e-23
1.70347e-23
-1.74241e-23
1.07419e-23
-1.39725e-23
-7.65683e-24
4.02034e-25
-5.29739e-24
1.36248e-23
7.90244e-24
-4.37914e-24
1.70654e-23
-5.98861e-24
6.50001e-24
-3.38659e-24
1.95078e-23
3.41939e-24
2.77541e-23
-7.23247e-24
-6.09839e-24
-8.02422e-24
3.68799e-24
-4.49385e-24
7.45909e-24
-8.46242e-24
-8.02975e-25
-1.07881e-23
-8.79652e-26
-1.18077e-23
-8.27284e-24
-8.09531e-24
-8.67832e-24
-6.10543e-24
-4.9749e-24
-1.13712e-23
-1.06999e-23
-1.4307e-23
1.84445e-23
-2.03313e-23
1.3923e-23
-2.99761e-23
2.10859e-23
-2.04799e-23
7.92658e-25
-1.33269e-23
-1.41718e-23
-1.47834e-23
-3.37959e-24
-1.98159e-23
1.61139e-23
-1.75605e-23
1.80465e-23
-2.01282e-23
5.82716e-24
-1.41644e-23
-5.25478e-24
1.23065e-23
9.57377e-24
-6.16532e-24
1.93117e-23
-5.33363e-24
8.90105e-24
-2.54141e-24
2.07248e-23
-2.81713e-24
3.07983e-23
-3.00901e-24
3.34303e-23
-7.72951e-24
9.63391e-24
-6.38664e-24
9.38762e-24
-9.0437e-24
1.20535e-24
-1.34152e-23
2.92197e-24
-1.33021e-23
-2.85643e-24
-8.06562e-24
7.32039e-25
-8.03795e-24
-7.44652e-24
-6.69156e-24
-1.75805e-23
-1.6468e-23
1.87885e-23
-1.90206e-23
1.0228e-23
-3.33061e-23
-1.34365e-24
-2.20639e-23
-5.88664e-24
-1.23202e-23
7.0821e-24
-9.54544e-24
5.00744e-23
-2.00828e-23
2.40054e-23
-1.93252e-23
1.80188e-23
-2.45855e-23
1.2347e-23
-1.0265e-23
7.40262e-24
-3.00508e-23
1.05641e-23
-6.51684e-23
3.38367e-23
-6.96502e-23
2.61898e-24
-5.20707e-23
2.15262e-24
5.10194e-24
-2.79006e-24
7.65184e-24
1.06928e-23
-6.6984e-24
2.49499e-23
-2.28524e-24
2.07811e-23
-3.74356e-24
2.71206e-23
-3.55924e-24
1.78824e-23
-6.75605e-24
3.36108e-23
-9.84874e-24
2.61622e-23
-9.20273e-24
1.01231e-23
-7.00365e-24
8.40422e-24
-1.5056e-23
7.29832e-24
-1.27058e-23
5.87299e-24
-1.02859e-23
6.73009e-25
-1.14454e-23
5.09033e-24
1.38108e-24
2.53812e-24
-1.82939e-23
1.25907e-24
-1.94137e-23
4.53924e-23
-3.55723e-23
7.21997e-24
-1.97544e-23
3.96295e-23
-3.45025e-24
2.40724e-23
-1.38133e-23
2.09776e-23
-2.11542e-23
2.48457e-23
-1.91851e-23
5.2671e-23
-2.53127e-23
2.34073e-23
-1.00932e-23
3.05037e-23
-2.57522e-23
2.41435e-23
-7.00178e-23
-1.39804e-23
-6.89368e-23
6.1021e-24
-5.16511e-23
2.35595e-23
-6.36038e-23
2.29798e-23
-7.71934e-23
1.49447e-23
-8.17529e-23
-5.52954e-24
-3.75406e-23
-5.98983e-25
3.41195e-23
1.0722e-23
-6.49644e-24
-6.64171e-24
-1.49318e-24
1.79464e-23
-4.74206e-24
2.27449e-23
-6.37797e-25
1.02922e-23
-8.8165e-24
4.8568e-24
-1.11426e-23
-5.61694e-24
-8.10197e-24
7.07469e-24
-9.53325e-24
1.4981e-23
-1.29449e-23
8.04407e-24
-1.39347e-23
1.02607e-23
-1.08493e-23
-3.84587e-24
-1.08956e-23
5.91979e-24
9.8702e-25
7.46047e-24
-1.16474e-23
-2.03427e-23
-2.52755e-23
-5.16827e-24
-2.81451e-23
1.77503e-24
-2.13195e-23
2.95995e-23
-4.16325e-24
3.90852e-23
-1.35571e-23
2.59889e-23
-1.69316e-23
2.00693e-23
-2.4657e-23
5.79669e-23
-2.34296e-23
2.99308e-23
-1.15508e-23
2.72477e-23
-3.22296e-23
1.05709e-23
-6.50779e-23
1.50788e-23
-6.59734e-23
1.29809e-23
-5.09903e-23
4.7972e-23
-6.58826e-23
4.19141e-23
-7.99099e-23
3.00923e-23
-8.99182e-23
9.10088e-24
-1.04916e-22
-7.61412e-24
-1.31346e-22
-1.10008e-22
-1.94724e-22
-6.81581e-24
3.34862e-23
7.85219e-24
-3.03162e-24
2.71111e-23
-3.47441e-24
2.13432e-23
-6.29915e-24
2.87449e-23
-1.55331e-24
1.768e-23
-9.33555e-24
3.30403e-24
-8.86199e-24
1.22167e-23
-6.89257e-24
1.40565e-23
-1.19357e-23
1.93976e-23
-1.14737e-23
7.23348e-24
-1.60345e-23
2.88583e-24
-8.29269e-24
2.24739e-23
-1.00145e-23
8.07193e-24
-4.65018e-24
1.52064e-24
-9.49422e-24
-1.76988e-23
-2.29537e-23
1.98332e-24
-2.45024e-23
-5.28121e-24
-1.96231e-23
2.35279e-23
-9.62113e-24
1.91771e-23
-1.2557e-23
1.86451e-23
-1.04102e-23
1.07865e-23
-2.88935e-23
1.18433e-23
-2.34074e-23
3.87656e-23
-1.62513e-23
2.44029e-23
-3.02078e-23
2.1704e-23
-6.55401e-23
2.03595e-23
-5.83927e-23
8.61368e-24
-5.1546e-23
7.59803e-23
-6.74962e-23
5.39549e-23
-8.41496e-23
4.48093e-23
-9.32981e-23
2.3744e-23
-1.22955e-22
2.98969e-23
-1.65826e-22
-5.40992e-23
-1.83933e-22
-5.79718e-24
3.22325e-23
7.04773e-24
-4.20948e-24
2.39442e-23
-4.58478e-24
2.46929e-23
-6.26174e-24
3.13551e-23
-5.14223e-24
1.88786e-23
-1.03376e-23
1.44276e-23
-1.03237e-23
1.23851e-23
-6.91302e-24
9.69812e-24
-1.4349e-23
-6.504e-24
-1.2822e-23
4.22388e-24
-1.15216e-23
1.63106e-24
-1.01285e-23
7.83631e-24
-1.13772e-23
9.42857e-24
-8.4573e-24
4.17743e-24
-8.67846e-24
-2.25721e-23
-2.30268e-23
-2.03781e-23
-2.02071e-23
-1.39552e-23
-2.04466e-23
-1.29716e-23
-9.24566e-24
-3.12986e-23
-1.21937e-23
1.52985e-23
-1.12298e-23
3.66654e-24
-2.44633e-23
2.04345e-23
-2.59051e-23
4.61962e-24
-1.562e-23
1.99668e-23
-2.86774e-23
3.15265e-23
-6.81942e-23
-1.2853e-24
-4.58968e-23
4.47903e-23
-5.51421e-23
4.56513e-23
-6.70171e-23
5.94774e-23
-8.88876e-23
4.52638e-24
-9.30188e-23
4.16823e-23
-1.38219e-22
2.6701e-23
-2.13114e-22
9.25405e-24
-9.27252e-23
-6.43837e-24
3.17748e-23
7.57583e-24
-6.67358e-24
2.44883e-23
-4.71243e-24
2.90981e-23
-7.94356e-24
4.73954e-23
-7.64105e-24
1.18364e-23
-9.38838e-24
2.10823e-23
-8.43761e-24
9.21246e-24
-8.38781e-24
1.23105e-23
-1.28188e-23
1.26373e-23
-1.31336e-23
6.87845e-24
-9.56548e-24
8.05029e-24
-8.91511e-24
7.7903e-24
-1.24285e-23
4.95565e-25
-1.0419e-23
2.75371e-24
-9.63839e-24
-2.45084e-23
-1.96534e-23
-1.38863e-23
-2.10299e-23
-1.59623e-23
-2.38485e-23
-6.87059e-24
-2.2352e-24
1.04696e-23
-1.42712e-23
2.02086e-23
-7.81755e-24
-5.93405e-24
-2.64395e-23
-2.03532e-23
-2.42972e-23
3.30919e-23
-1.19922e-23
4.0042e-23
-3.41302e-23
1.43364e-23
-5.92888e-23
1.62588e-23
-4.65417e-23
6.75802e-23
-5.10951e-23
4.76429e-23
-7.51941e-23
1.93736e-23
-8.29825e-23
1.24949e-23
-9.61504e-23
5.82568e-23
-1.39425e-22
5.12373e-23
-2.298e-22
9.01215e-23
2.45947e-22
-4.64737e-24
3.96327e-23
7.87334e-24
-6.6385e-24
2.94502e-23
-3.60285e-24
2.53709e-23
-1.1141e-23
2.13109e-23
-6.88512e-24
1.12808e-23
-1.12817e-23
2.80679e-23
-6.98189e-24
8.66303e-24
-7.77626e-24
1.43104e-23
-1.4785e-23
2.1763e-23
-1.31466e-23
5.74359e-24
-8.58626e-24
3.84659e-23
-1.04557e-23
6.61237e-24
-1.27448e-23
1.75854e-24
-1.26642e-23
7.03755e-24
-1.02758e-23
-2.11644e-23
-1.7521e-23
-1.17236e-23
-1.92438e-23
-7.51116e-24
-2.0667e-23
2.60075e-23
-4.91429e-25
4.78493e-23
-1.71879e-23
3.42406e-23
-1.08034e-23
-8.21609e-24
-1.84254e-23
-1.33701e-23
-2.29213e-23
-5.28061e-24
-1.43684e-23
6.54701e-23
-3.38003e-23
2.69813e-23
-5.06529e-23
2.5587e-23
-4.9938e-23
6.91002e-23
-5.35807e-23
4.61017e-23
-7.48512e-23
3.66294e-23
-7.5805e-23
4.85444e-23
-9.5446e-23
7.83759e-23
-1.28839e-22
9.34478e-23
-2.11259e-22
1.62795e-22
3.41207e-22
-6.25721e-24
2.56512e-23
4.71371e-24
-7.53223e-24
2.03186e-23
-4.46628e-24
3.03365e-23
-1.36317e-23
-1.77486e-24
-5.77733e-24
1.81754e-23
-1.46241e-23
9.82513e-25
-5.97392e-24
3.1617e-25
-8.46421e-24
1.81277e-23
-1.55636e-23
3.00062e-23
-1.03641e-23
3.25205e-23
-1.19248e-23
4.80617e-23
-1.29189e-23
1.88625e-23
-1.20375e-23
1.8727e-24
-1.50396e-23
8.51507e-24
-8.54689e-24
1.00227e-23
-1.84445e-23
2.86162e-24
-1.39009e-23
-6.36608e-24
-1.67058e-23
2.88209e-23
-1.98057e-24
3.63072e-23
-2.30737e-23
2.2586e-23
-1.06387e-23
4.20664e-23
-1.74053e-23
-6.52733e-24
-1.30357e-23
2.53285e-23
-1.97271e-23
3.331e-23
-3.19975e-23
3.17498e-23
-4.50881e-23
3.07969e-23
-5.19539e-23
4.47433e-23
-5.4908e-23
4.66496e-23
-7.11089e-23
5.03496e-23
-7.14591e-23
5.3589e-23
-8.9709e-23
9.67253e-23
-1.143e-22
1.26035e-22
-1.62408e-22
1.99925e-22
3.47458e-22
-6.51712e-24
1.07157e-23
6.48855e-24
-8.4961e-24
2.51741e-23
-9.64587e-24
3.4482e-23
-1.13643e-23
3.89709e-24
-7.72899e-24
2.00308e-23
-1.418e-23
8.27971e-24
-3.66783e-24
2.79514e-23
-7.57143e-24
3.63756e-23
-1.44388e-23
2.51626e-23
-9.43009e-24
3.86077e-23
-1.59299e-23
5.0903e-23
-1.62406e-23
6.53832e-24
-1.10664e-23
-1.21475e-24
-1.37704e-23
1.24765e-23
-9.51267e-24
1.2669e-23
-1.85154e-23
1.53167e-23
-9.13296e-24
4.51948e-23
-1.51432e-23
4.81107e-23
-4.63655e-24
6.6426e-23
-2.01026e-23
3.77614e-23
-1.69809e-23
4.3491e-23
-1.25108e-23
2.54961e-23
-1.23224e-23
2.75978e-23
-1.83553e-23
3.70464e-23
-3.12685e-23
3.55069e-23
-4.43739e-23
4.03418e-23
-4.97698e-23
5.49697e-23
-5.41127e-23
5.58662e-23
-6.98867e-23
6.19705e-23
-6.47213e-23
1.10161e-22
-8.28644e-23
1.12752e-22
-1.01258e-22
1.51275e-22
-1.22595e-22
2.39044e-22
3.41934e-22
-5.14739e-24
7.20623e-24
8.04197e-24
-7.04007e-24
2.88613e-23
-1.23448e-23
2.82556e-23
-9.62671e-24
8.0992e-24
-1.02545e-23
2.6267e-23
-1.06622e-23
-7.17288e-24
-2.69711e-24
2.09982e-23
-7.78391e-24
2.69616e-23
-1.22749e-23
3.41793e-23
-4.86155e-24
4.48345e-23
-2.07873e-23
3.07865e-23
-1.66392e-23
3.53594e-23
-9.11848e-24
2.75895e-23
-1.36783e-23
1.9769e-23
-8.51324e-24
1.18576e-23
-1.34662e-23
1.80205e-23
-9.40819e-24
4.63268e-23
-1.16309e-23
5.6753e-23
-8.54085e-24
6.29283e-23
-1.87374e-23
3.96297e-23
-1.81909e-23
4.25889e-23
-1.31285e-23
2.29482e-23
-1.18488e-23
2.9176e-23
-1.68931e-23
3.38247e-23
-3.03573e-23
4.08353e-23
-4.28502e-23
5.00593e-23
-4.85441e-23
5.46057e-23
-5.1848e-23
6.18772e-23
-6.27077e-23
7.02071e-23
-6.29357e-23
1.10605e-22
-7.61026e-23
1.23298e-22
-8.84252e-23
1.67401e-22
-9.80253e-23
2.58732e-22
3.19674e-22
-5.48518e-24
1.25933e-23
3.89207e-24
-7.88774e-24
1.99682e-23
-1.20061e-23
-5.60488e-24
-6.26697e-24
2.89877e-23
-1.38446e-23
2.57297e-23
-7.2703e-24
2.41922e-23
-2.01438e-24
2.07693e-23
-7.79702e-24
3.84672e-23
-9.49728e-24
3.78863e-23
-8.15418e-24
4.22396e-23
-1.90391e-23
7.0499e-24
-1.88631e-23
2.36592e-23
-8.7194e-24
5.62496e-23
-1.57423e-23
1.08259e-23
-6.3044e-24
4.02731e-23
-9.24245e-24
6.64044e-24
-9.148e-24
5.05658e-23
-9.73468e-24
5.91847e-23
-1.23857e-23
2.66875e-23
-1.82403e-23
4.22094e-23
-2.03059e-23
4.07719e-23
-1.28379e-23
1.58679e-23
-1.12033e-23
3.0303e-23
-1.41848e-23
2.97176e-23
-2.99339e-23
5.10453e-23
-4.11396e-23
5.66753e-23
-4.73717e-23
5.73572e-23
-4.8655e-23
9.49957e-23
-5.87246e-23
7.69269e-23
-5.90933e-23
1.12866e-22
-6.93195e-23
1.30553e-22
-7.63098e-23
1.75365e-22
-8.17781e-23
2.38028e-22
2.97959e-22
-4.5415e-24
8.5871e-25
5.13473e-25
-9.89662e-24
3.0182e-23
-1.02492e-23
1.62991e-23
-6.87994e-24
3.29361e-23
-1.11118e-23
1.6582e-23
-8.1076e-24
2.10049e-23
1.80865e-25
2.65577e-23
-7.11976e-24
1.22381e-23
-1.02237e-23
3.03163e-23
-1.11824e-23
2.69514e-23
-1.81185e-23
1.08329e-23
-1.40072e-23
3.27521e-23
-1.3887e-23
5.71367e-23
-1.27813e-23
1.49269e-23
-8.33752e-24
4.92756e-23
-5.90675e-24
4.12105e-23
-7.39278e-24
5.18456e-23
-1.34941e-23
6.03859e-23
-1.04878e-23
2.1726e-23
-1.76846e-23
4.67712e-23
-2.35764e-23
9.00869e-24
-1.0483e-23
3.54016e-23
-1.18647e-23
3.37721e-23
-1.01968e-23
2.41477e-23
-2.98242e-23
-1.75255e-23
-3.9982e-23
5.89404e-23
-4.26942e-23
5.58237e-23
-4.87111e-23
9.94434e-23
-5.54853e-23
6.97208e-23
-5.44972e-23
1.47781e-22
-6.38085e-23
1.34618e-22
-6.882e-23
1.80332e-22
-6.91273e-23
2.41252e-22
-5.74949e-23
2.94397e-22
4.86466e-22
-2.11836e-24
3.2872e-24
9.26362e-25
-1.14148e-23
8.5869e-25
-7.73567e-24
1.66267e-23
-7.68177e-24
1.62388e-23
-1.14062e-23
1.34466e-23
-8.98505e-24
1.84347e-23
-2.82689e-24
2.07075e-23
-4.607e-24
5.52014e-24
-1.27243e-23
1.93167e-24
-1.17832e-23
2.24101e-23
-1.63851e-23
1.47709e-23
-9.99226e-24
3.01521e-23
-1.91402e-23
2.6684e-23
-8.84546e-24
2.43074e-23
-8.75241e-24
3.90365e-23
-5.44843e-24
2.54659e-23
-6.58347e-24
2.28041e-23
-1.80007e-23
7.85105e-24
-6.62814e-24
4.71769e-23
-2.12156e-23
5.80993e-23
-2.17866e-23
4.57912e-23
-1.01422e-23
5.79369e-23
-1.23795e-23
3.87167e-23
-1.40922e-23
2.2692e-23
-2.17394e-23
-1.43784e-23
-4.01662e-23
1.19711e-23
-3.70867e-23
4.8118e-23
-5.01455e-23
5.51607e-23
-4.73793e-23
6.14778e-23
-5.4391e-23
1.16271e-22
-5.74581e-23
1.31029e-22
-6.14568e-23
1.69878e-22
-5.731e-23
2.36431e-22
-4.67336e-23
2.98164e-22
4.33367e-22
-2.28307e-24
2.25434e-23
2.34592e-24
-9.77668e-24
1.18211e-23
-9.05967e-24
1.47386e-23
-9.11841e-24
1.84132e-23
-1.06442e-23
2.07184e-23
-7.77992e-24
1.58107e-23
-5.21271e-24
2.77539e-23
-3.20192e-24
5.94044e-24
-9.77018e-24
8.85129e-24
-1.10352e-23
1.15401e-23
-1.64179e-23
2.40352e-23
-1.00973e-23
2.87386e-23
-1.88359e-23
6.03977e-26
-7.78685e-24
5.30399e-23
-8.65282e-24
3.23046e-23
-6.23778e-24
2.88533e-23
-7.59966e-24
2.74447e-23
-1.38316e-23
1.1497e-23
-5.89982e-24
4.5747e-23
-2.09119e-23
3.34955e-23
-2.14396e-23
4.33244e-23
-1.13573e-23
8.31316e-23
-1.45255e-23
4.28147e-23
-1.74836e-23
1.84649e-23
-1.94097e-23
-1.53215e-23
-3.43698e-23
2.10406e-23
-3.72741e-23
4.96338e-23
-4.59895e-23
6.26299e-23
-4.26033e-23
5.73663e-23
-5.07216e-23
1.18574e-22
-5.28783e-23
1.25368e-22
-5.51932e-23
1.55341e-22
-4.71074e-23
2.25313e-22
-3.99825e-23
2.57823e-22
-2.83255e-24
2.68413e-23
-9.27206e-25
-8.67231e-24
1.58527e-23
-8.52562e-24
1.66331e-23
-9.55285e-24
2.62059e-23
-9.54476e-24
2.7092e-23
-7.24712e-24
1.4148e-23
-7.35985e-24
2.45951e-23
-3.22274e-24
3.6168e-23
-8.62073e-24
1.45713e-23
-8.33559e-24
1.47009e-23
-1.6892e-23
1.87621e-24
-1.23341e-23
2.77619e-23
-1.27341e-23
1.82225e-23
-1.10982e-23
3.83918e-23
-7.47474e-24
3.64135e-23
-7.77052e-24
2.4186e-23
-8.55703e-24
1.98264e-23
-1.04338e-23
1.09345e-23
-6.992e-24
4.09856e-23
-1.92883e-23
3.90195e-23
-1.86064e-23
4.30318e-23
-1.46954e-23
6.55471e-23
-1.70457e-23
4.30492e-23
-1.9941e-23
2.57324e-23
-1.67538e-23
1.91535e-23
-3.04781e-23
3.14607e-23
-3.65631e-23
5.41167e-23
-4.42194e-23
6.77428e-23
-3.83137e-23
5.2524e-23
-4.74774e-23
9.17041e-23
-4.79573e-23
1.18098e-22
-4.74395e-23
1.48318e-22
-3.98479e-23
2.12276e-22
2.15883e-22
-3.45427e-24
3.07891e-23
-3.25722e-24
-9.37581e-24
2.97331e-23
-6.96683e-24
4.09814e-24
-9.7222e-24
2.3377e-23
-1.01525e-23
3.143e-23
-5.71891e-24
7.81064e-24
-5.53229e-24
1.80657e-23
-5.43606e-24
3.87595e-23
-1.03433e-23
5.63457e-24
-8.41857e-24
1.78474e-23
-1.5327e-23
4.18293e-24
-1.20606e-23
2.83488e-23
-1.06579e-23
1.8581e-23
-1.11723e-23
4.40437e-23
-8.12971e-24
3.77356e-23
-8.21522e-24
2.55609e-23
-8.06755e-24
3.75264e-23
-8.4976e-24
1.50736e-23
-6.59727e-24
3.31071e-23
-1.88383e-23
1.54191e-23
-1.72024e-23
4.22013e-23
-1.6448e-23
5.04462e-23
-1.89056e-23
4.1755e-23
-1.97995e-23
3.24731e-23
-1.54294e-23
2.29508e-23
-2.8091e-23
3.90954e-23
-3.47742e-23
5.80203e-23
-4.3791e-23
7.27517e-23
-3.50722e-23
7.76194e-23
-4.38941e-23
9.57889e-23
-4.43376e-23
1.09777e-22
-4.18472e-23
1.39996e-22
-3.6897e-23
1.9341e-22
2.12149e-22
-2.52079e-24
3.08295e-23
-2.63416e-24
-1.18839e-23
1.94761e-24
-6.47443e-24
3.75127e-24
-9.84432e-24
3.31281e-23
-1.21361e-23
3.2305e-23
-4.46538e-24
5.74987e-23
-6.58582e-24
1.32234e-23
-7.50921e-24
4.5192e-23
-9.06986e-24
9.36072e-24
-9.17127e-24
2.19589e-23
-1.32984e-23
1.13294e-23
-1.24743e-23
2.90848e-23
-8.63494e-24
1.85803e-23
-1.28648e-23
1.25625e-23
-8.44743e-24
4.50224e-23
-7.70047e-24
2.55816e-23
-9.66633e-24
2.42869e-23
-5.88969e-24
1.46052e-23
-7.99681e-24
2.97197e-23
-1.61743e-23
1.86141e-23
-1.64873e-23
3.6251e-23
-1.6582e-23
4.5432e-23
-1.95927e-23
4.06249e-23
-2.0456e-23
4.18946e-23
-1.32566e-23
5.39731e-23
-2.72185e-23
1.60464e-23
-3.27824e-23
6.18377e-23
-4.25376e-23
4.67628e-23
-3.34986e-23
7.2175e-23
-4.1875e-23
9.91384e-23
-3.99565e-23
9.98706e-23
-3.81958e-23
1.36218e-22
-3.28996e-23
1.8279e-22
2.07744e-22
-5.04317e-24
3.33042e-23
2.10465e-25
-1.28627e-23
7.53548e-24
-3.51286e-24
3.06151e-23
-9.10804e-24
4.1345e-23
-1.06232e-23
4.50226e-23
-8.51573e-24
6.53847e-23
-4.72525e-24
9.17903e-24
-9.83591e-24
4.67169e-23
-8.27907e-24
4.28467e-23
-9.75099e-24
2.67331e-23
-1.13866e-23
9.11934e-24
-1.30264e-23
1.55524e-23
-8.49584e-24
3.39657e-23
-1.07123e-23
3.59896e-23
-9.57029e-24
4.53062e-23
-8.18267e-24
2.56181e-23
-9.41468e-24
3.7011e-23
-5.09357e-24
1.49582e-23
-8.36416e-24
-6.49821e-24
-1.48144e-23
2.11775e-23
-1.53839e-23
6.5905e-23
-1.69677e-23
4.30645e-23
-1.9393e-23
4.03224e-23
-1.94048e-23
4.49972e-23
-1.54398e-23
5.56823e-23
-2.33824e-23
1.98709e-23
-3.3565e-23
6.77498e-23
-3.96332e-23
4.92096e-23
-3.12729e-23
7.15054e-23
-4.07836e-23
4.84332e-23
-3.64137e-23
8.90927e-23
-3.32233e-23
1.32204e-22
-2.90081e-23
1.65977e-22
-7.69911e-24
3.89006e-23
1.83738e-24
-1.13291e-23
8.74848e-24
-2.38731e-24
2.45064e-23
-1.00063e-23
3.56744e-23
-7.93306e-24
2.90597e-23
-1.17693e-23
5.5657e-23
-1.70827e-24
6.46019e-23
-1.0444e-23
2.28208e-23
-9.41029e-24
2.10577e-23
-9.89458e-24
2.78625e-23
-1.20257e-23
9.12731e-24
-1.1545e-23
1.36739e-23
-9.23467e-24
3.4237e-23
-9.44828e-24
3.67266e-23
-1.0886e-23
4.19181e-23
-7.19722e-24
4.13031e-23
-1.15079e-23
2.92302e-23
-6.83012e-24
1.3416e-23
-5.56727e-24
1.02333e-23
-1.12508e-23
2.36771e-23
-1.68793e-23
5.21165e-23
-1.69303e-23
3.95859e-23
-1.87526e-23
4.1244e-23
-1.89334e-23
4.58333e-23
-1.73793e-23
5.70997e-23
-1.97022e-23
2.05786e-23
-3.47467e-23
4.52792e-23
-3.75039e-23
4.77505e-23
-3.2306e-23
7.05591e-23
-3.70543e-23
4.97349e-23
-3.1645e-23
9.32205e-23
-3.01309e-23
1.21071e-22
1.71648e-22
-9.2403e-24
8.42053e-24
1.76385e-24
-1.08081e-23
1.08218e-23
-8.31042e-25
5.15309e-23
-1.02989e-23
4.63151e-23
-7.77265e-24
2.99773e-23
-9.1211e-24
4.87159e-23
-6.66724e-24
2.94698e-23
-9.8022e-24
1.61877e-23
-9.92561e-24
9.90956e-25
-1.06468e-23
2.57299e-23
-1.15643e-23
7.69778e-24
-1.10844e-23
1.30868e-23
-9.52374e-24
3.97363e-23
-8.99436e-24
3.39697e-23
-1.09272e-23
2.78624e-23
-8.36918e-24
4.53809e-23
-1.21739e-23
3.75495e-23
-6.8368e-24
4.51971e-23
-3.50513e-24
2.70569e-23
-9.8361e-24
3.22366e-23
-1.70382e-23
2.23405e-23
-1.70342e-23
3.95198e-23
-1.79881e-23
3.98195e-23
-1.85803e-23
4.51557e-23
-1.8844e-23
5.49986e-23
-1.82646e-23
1.86614e-23
-3.37348e-23
-2.63509e-24
-3.60965e-23
4.68435e-23
-3.30667e-23
5.53915e-23
-3.25931e-23
6.23423e-23
-2.90992e-23
8.36716e-23
-2.53111e-23
1.03155e-22
-8.64312e-24
-3.19163e-24
3.13378e-24
-8.17436e-24
2.82478e-23
-2.56751e-24
4.46041e-23
-1.09208e-23
4.31609e-23
-5.86364e-24
2.92313e-23
-1.02737e-23
1.79193e-23
-7.40622e-24
2.50913e-23
-1.01329e-23
3.35923e-23
-9.00834e-24
8.63748e-24
-1.24954e-23
8.92781e-24
-1.12969e-23
6.17909e-24
-9.2928e-24
1.13247e-23
-8.98065e-24
3.5664e-23
-9.60348e-24
3.34246e-23
-8.90108e-24
3.66356e-23
-8.84612e-24
4.63009e-23
-1.18179e-23
6.14671e-23
-7.99578e-24
4.38478e-23
-2.30481e-24
2.51064e-23
-1.08727e-23
4.95452e-24
-1.49104e-23
2.82801e-23
-1.7206e-23
3.11959e-23
-1.72874e-23
3.81935e-23
-1.82426e-23
4.45577e-23
-2.04291e-23
5.48616e-23
-2.05446e-23
2.40168e-23
-2.8879e-23
2.21799e-23
-3.64086e-23
5.27385e-23
-3.12479e-23
5.16724e-23
-3.04148e-23
4.46305e-23
-2.76459e-23
7.80608e-23
1.10539e-22
-7.06612e-24
-2.73856e-25
4.62549e-24
-7.30229e-24
2.81525e-23
-1.14676e-24
3.80958e-23
-1.12268e-23
6.86361e-23
-7.0731e-24
4.71774e-23
-1.06693e-23
8.36391e-24
-6.88551e-24
2.73352e-23
-1.08262e-23
1.54584e-23
-9.56444e-24
-8.18603e-24
-1.28409e-23
2.3848e-23
-1.00171e-23
4.13701e-23
-7.71651e-24
8.22051e-24
-8.51785e-24
3.35943e-23
-8.91139e-24
3.15626e-23
-8.55338e-24
3.79105e-23
-7.39176e-24
6.12484e-23
-1.27593e-23
2.94917e-23
-9.66869e-24
2.868e-23
-3.56615e-24
2.12101e-23
-9.27213e-24
1.22653e-23
-1.42158e-23
2.47033e-23
-1.63454e-23
2.34334e-23
-1.66359e-23
3.73455e-23
-1.7842e-23
4.40254e-23
-2.18119e-23
4.70204e-23
-2.09178e-23
1.80946e-23
-2.60938e-23
2.58425e-23
-3.68168e-23
2.72673e-23
-3.10177e-23
4.90301e-23
-2.75155e-23
4.36519e-23
-2.45593e-23
6.76961e-23
1.0994e-22
-6.07785e-24
-1.35864e-24
6.73749e-24
-6.50805e-24
2.94574e-23
6.56912e-25
3.30678e-23
-1.21057e-23
4.8271e-23
-9.3263e-24
4.70472e-23
-9.41821e-24
4.47823e-23
-7.92752e-24
2.90051e-23
-1.33156e-23
1.34978e-23
-9.0845e-24
-1.42197e-23
-1.08281e-23
2.43993e-23
-1.26918e-23
4.42372e-23
-4.90345e-24
6.32151e-23
-9.17299e-24
3.80216e-23
-9.31e-24
3.19657e-23
-5.44588e-24
3.5439e-23
-9.87512e-24
2.9731e-23
-1.19171e-23
3.68873e-23
-9.90088e-24
2.91491e-23
-3.54551e-24
3.11407e-23
-8.30487e-24
1.91731e-23
-1.41309e-23
3.45652e-23
-1.53636e-23
4.20308e-23
-1.61807e-23
4.02971e-23
-1.7914e-23
4.30756e-23
-2.29291e-23
5.10729e-23
-2.02753e-23
2.29409e-23
-2.60939e-23
3.01061e-23
-3.5336e-23
2.54682e-23
-3.04631e-23
4.63032e-23
-2.56754e-23
4.40103e-23
-2.11577e-23
8.42738e-23
7.12498e-23
-5.97561e-24
1.57153e-23
8.65794e-24
-3.96999e-24
5.98332e-23
1.27685e-24
2.48197e-23
-1.25477e-23
6.22619e-23
-9.97752e-24
2.38852e-23
-8.56035e-24
4.14558e-23
-8.94167e-24
2.50362e-23
-1.32111e-23
1.76471e-23
-7.32223e-24
-4.07554e-24
-9.12923e-24
2.51686e-23
-1.18546e-23
3.43091e-23
-6.80479e-24
7.37268e-23
-9.82621e-24
4.03034e-23
-9.0088e-24
3.2497e-23
-6.47327e-24
3.18376e-23
-8.5753e-24
3.53206e-23
-1.21904e-23
3.15678e-23
-9.36126e-24
2.77245e-23
-4.66033e-24
3.13869e-23
-7.61684e-24
2.5106e-23
-1.32245e-23
3.02347e-23
-1.54902e-23
8.22187e-24
-1.5293e-23
2.7615e-23
-1.76951e-23
4.30681e-23
-2.35905e-23
4.52095e-23
-2.01442e-23
1.73478e-23
-2.65308e-23
3.29441e-23
-3.37076e-23
2.89451e-23
-2.99435e-23
4.49424e-23
-2.23013e-23
7.26085e-23
-2.15048e-23
7.21729e-23
6.93545e-23
-3.29766e-24
2.96856e-23
8.36391e-24
-4.61413e-24
1.04185e-22
3.09327e-24
5.42216e-23
-1.46932e-23
1.95673e-23
-9.93231e-24
3.27667e-23
-9.1531e-24
3.86224e-23
-9.91175e-24
2.44156e-23
-1.53428e-23
7.84013e-24
-4.08195e-24
2.36765e-23
-8.4777e-24
1.8346e-23
-9.36665e-24
3.27473e-23
-8.92392e-24
6.97751e-23
-1.05277e-23
3.72188e-23
-8.88405e-24
3.2402e-23
-5.66314e-24
3.78849e-23
-9.77034e-24
3.67161e-23
-1.22511e-23
3.58439e-23
-9.58755e-24
1.01437e-23
-4.70648e-24
3.01095e-23
-6.87669e-24
3.10238e-23
-1.42975e-23
3.87311e-24
-1.44133e-23
1.38086e-23
-1.39575e-23
1.52717e-23
-1.81478e-23
8.70573e-24
-2.44896e-23
1.25878e-23
-1.94028e-23
2.44643e-23
-2.62232e-23
3.62909e-23
-3.27174e-23
3.04251e-23
-2.77786e-23
3.95691e-23
-2.25345e-23
7.4493e-23
-2.04333e-23
7.04836e-23
6.13204e-23
4.5244e-25
5.08372e-23
8.02064e-24
-6.55409e-24
6.55104e-23
-1.61286e-26
4.67049e-23
-1.3615e-23
2.17491e-23
-8.89363e-24
2.83185e-23
-9.30669e-24
2.29911e-23
-1.1081e-23
2.2683e-23
-1.36174e-23
1.71509e-23
-4.72991e-24
1.65882e-23
-8.07175e-24
1.09812e-23
-7.21223e-24
3.02996e-23
-9.81176e-24
6.59047e-23
-1.17281e-23
4.11417e-23
-8.76161e-24
2.71707e-23
-5.33485e-24
3.0042e-23
-1.01293e-23
1.8026e-23
-1.25345e-23
3.93433e-23
-9.25821e-24
1.602e-23
-4.04029e-24
5.91215e-23
-9.04136e-24
2.16124e-23
-1.34919e-23
9.56294e-24
-1.43291e-23
1.70993e-23
-1.37793e-23
2.87753e-23
-1.76712e-23
1.21836e-23
-2.29799e-23
1.99813e-23
-1.91285e-23
3.5178e-23
-2.6351e-23
4.1758e-23
-3.25164e-23
4.51042e-23
-2.43837e-23
6.71684e-23
-2.26952e-23
7.41123e-23
-2.02385e-23
8.64829e-23
6.24354e-23
-3.16465e-25
7.45425e-23
6.51813e-24
-6.5939e-24
4.20193e-23
-2.74085e-24
4.49444e-23
-1.21212e-23
3.04067e-23
-1.00723e-23
7.04276e-24
-9.70218e-24
2.32594e-24
-1.16321e-23
1.92882e-23
-1.30516e-23
-4.30426e-25
-5.59458e-24
1.14328e-23
-6.9411e-24
1.54841e-24
-5.94196e-24
1.16553e-23
-1.20257e-23
3.36641e-23
-1.12697e-23
5.87733e-23
-9.41284e-24
2.56355e-23
-5.5689e-24
3.39596e-23
-9.7092e-24
1.67734e-23
-1.26738e-23
4.12211e-23
-7.57037e-24
9.0914e-24
-5.00956e-24
4.50083e-23
-9.5696e-24
3.15347e-23
-1.28141e-23
-9.69219e-25
-1.371e-23
1.9822e-23
-1.44505e-23
3.15256e-23
-1.73103e-23
1.35892e-23
-2.15636e-23
3.51068e-23
-1.86295e-23
3.23228e-23
-2.54506e-23
4.59272e-23
-3.14269e-23
4.83235e-23
-2.35042e-23
9.75648e-23
-2.23117e-23
9.38764e-23
-2.07105e-23
9.99502e-23
8.81527e-23
-1.17239e-24
3.9611e-23
5.48393e-24
-6.51844e-24
3.1603e-23
-3.4408e-24
2.72751e-23
-1.34084e-23
2.06825e-23
-1.02219e-23
4.03517e-23
-9.90201e-24
3.44073e-23
-1.17883e-23
1.81815e-23
-1.29164e-23
-3.06949e-24
-6.26418e-24
5.84646e-24
-6.17591e-24
1.08447e-24
-5.34404e-24
-1.37832e-23
-1.02357e-23
3.38119e-23
-1.25122e-23
2.37969e-23
-9.31135e-24
1.88765e-23
-5.79667e-24
2.51804e-23
-9.14718e-24
7.8832e-24
-1.34746e-23
4.31348e-23
-6.39906e-24
1.91296e-23
-4.43465e-24
3.71326e-23
-1.14136e-23
8.66621e-24
-1.1409e-23
2.04634e-24
-1.33486e-23
2.38172e-23
-1.49835e-23
3.24071e-23
-1.58447e-23
1.57814e-23
-2.12963e-23
4.02708e-23
-1.79855e-23
4.47455e-23
-2.46891e-23
5.05433e-23
-2.89232e-23
6.03127e-23
-2.31674e-23
9.35449e-23
-2.22416e-23
9.42109e-23
-2.06426e-23
9.85686e-23
1.3753e-22
-1.41846e-24
6.5706e-23
6.43302e-24
-6.98824e-24
2.0041e-23
-3.51056e-24
4.2555e-23
-1.26449e-23
2.7562e-23
-1.04503e-23
3.33701e-23
-1.10368e-23
1.18025e-23
-1.17596e-23
4.82748e-23
-1.38847e-23
-3.7864e-24
-5.38956e-24
9.95661e-24
-7.72917e-24
3.74378e-24
-2.52628e-24
1.33417e-23
-1.13026e-23
-2.22407e-23
-1.2655e-23
2.14181e-23
-9.69415e-24
1.76618e-23
-6.36271e-24
3.54172e-23
-7.79369e-24
8.77542e-24
-1.30314e-23
3.31581e-23
-6.73761e-24
3.14589e-23
-4.88656e-24
5.33715e-23
-1.19278e-23
2.11469e-23
-1.01098e-23
8.80836e-24
-1.32844e-23
3.10674e-23
-1.50372e-23
3.48531e-23
-1.45038e-23
4.86543e-23
-2.10262e-23
3.60596e-23
-1.77247e-23
3.94194e-23
-2.30614e-23
5.48872e-23
-2.77247e-23
6.45196e-23
-2.23459e-23
8.9164e-23
-2.1912e-23
8.98029e-23
-1.77104e-23
9.23555e-23
1.31995e-22
-4.27527e-24
4.60736e-23
5.28957e-24
-5.42833e-24
4.03529e-23
-5.26488e-24
2.29701e-23
-1.14831e-23
1.59982e-23
-1.20411e-23
4.82417e-23
-9.84518e-24
1.94492e-23
-1.31705e-23
2.93154e-23
-1.42417e-23
-1.27158e-23
-6.1013e-24
-9.8823e-24
-6.32695e-24
8.24852e-24
-3.69788e-24
1.13804e-23
-9.66883e-24
-3.33555e-24
-1.21515e-23
3.15415e-23
-8.80106e-24
1.50643e-23
-6.78727e-24
3.3623e-23
-6.666e-24
2.47851e-23
-1.18227e-23
2.12572e-23
-7.17819e-24
3.23501e-23
-5.62232e-24
4.74754e-23
-1.23755e-23
1.61694e-23
-8.20463e-24
9.97939e-24
-1.33943e-23
5.82863e-25
-1.35813e-23
3.30119e-23
-1.50023e-23
2.74475e-23
-2.06798e-23
4.23246e-23
-1.68899e-23
7.16212e-23
-2.1624e-23
5.53872e-23
-2.76265e-23
3.3079e-23
-2.15939e-23
9.49335e-23
-2.18584e-23
8.44245e-23
-1.54037e-23
8.33572e-23
1.3745e-22
-3.55297e-24
5.15418e-23
5.97932e-24
-6.87352e-24
2.64176e-23
-5.52409e-24
2.05358e-23
-1.02845e-23
2.8813e-24
-1.24379e-23
8.39597e-24
-9.49115e-24
3.21214e-23
-1.56362e-23
1.87715e-23
-1.40605e-23
-9.25103e-24
-5.26368e-24
-3.21425e-24
-5.50101e-24
1.48505e-23
-5.02019e-24
7.84741e-24
-7.81889e-24
2.56092e-24
-1.28433e-23
-2.98281e-24
-7.11872e-24
4.39829e-23
-7.17563e-24
3.32773e-23
-6.74501e-24
3.88764e-23
-1.06765e-23
2.48541e-23
-6.77909e-24
2.91323e-23
-5.97948e-24
2.36067e-23
-1.2825e-23
-1.65177e-23
-8.55275e-24
4.39437e-23
-1.17566e-23
8.38529e-24
-1.38452e-23
1.84587e-23
-1.42173e-23
2.32411e-23
-1.89849e-23
3.24528e-23
-1.75217e-23
6.84065e-23
-2.20296e-23
5.60858e-23
-2.48067e-23
3.53529e-23
-2.14572e-23
7.22185e-23
-2.17946e-23
7.80802e-23
-1.2518e-23
8.69193e-23
1.4583e-22
-4.38283e-24
5.86556e-23
6.421e-24
-7.35095e-24
1.15967e-23
-5.331e-24
3.4904e-23
-1.12729e-23
7.57314e-24
-1.12008e-23
1.98407e-23
-1.0669e-23
1.38039e-23
-1.59806e-23
1.47913e-23
-1.39582e-23
4.85483e-23
-4.00249e-24
5.22013e-23
-6.27095e-24
3.21169e-23
-3.84586e-24
3.86011e-23
-8.26827e-24
2.45456e-23
-9.92457e-24
3.461e-23
-7.75659e-24
4.31228e-23
-7.73726e-24
3.55144e-23
-7.03985e-24
3.58788e-23
-9.88801e-24
4.06409e-23
-7.67859e-24
2.4315e-23
-7.10726e-24
5.47204e-23
-1.06704e-23
-1.34192e-23
-1.00188e-23
1.02557e-23
-1.06374e-23
1.49025e-23
-1.33337e-23
8.5182e-24
-1.36854e-23
2.09638e-23
-1.6951e-23
3.37111e-23
-1.80357e-23
5.62719e-23
-2.27155e-23
5.60577e-23
-2.33733e-23
3.23959e-23
-2.03733e-23
6.27442e-23
-2.1306e-23
8.54814e-23
-9.47227e-24
1.13086e-22
1.29308e-22
-5.04832e-24
6.25049e-23
6.59758e-24
-8.37977e-24
3.26887e-23
-5.01667e-24
4.94457e-23
-1.25402e-23
1.46616e-23
-9.69451e-24
4.4217e-23
-1.15305e-23
2.63808e-23
-1.37936e-23