/*--------------------------------*- C++ -*----------------------------------*\
  =========                 |
  \\      /  F ield         | OpenFOAM: The Open Source CFD Toolbox
   \\    /   O peration     | Website:  https://openfoam.org
    \\  /    A nd           | Version:  7
     \\/     M anipulation  |
\*---------------------------------------------------------------------------*/
FoamFile
{
    version     2.0;
    format      ascii;
    class       volVectorField;
    location    "276000";
    object      vorticity;
}
// * * * * * * * * * * * * * * * * * * * * * * * * * * * * * * * * * * * * * //

dimensions      [0 0 -1 0 0 0 0];

internalField   nonuniform List<vector> 
4825
(
(0.0243164 0.0223289 1.70041e-17)
(0.0241535 0.0220221 1.42805e-17)
(0.0248277 0.0228283 1.74871e-17)
(0.0246721 0.0224959 1.47184e-17)
(0.0251278 0.0215446 2.23987e-17)
(0.0255623 0.0205925 8.80956e-18)
(0.0259749 0.0196388 8.46942e-18)
(0.0253541 0.0233424 1.76824e-17)
(0.0252107 0.022988 1.53272e-17)
(0.0256741 0.0220119 2.33592e-17)
(0.0261153 0.0210359 1.17391e-17)
(0.0265337 0.0200586 1.06478e-17)
(0.025896 0.0238708 1.73137e-17)
(0.0257669 0.023496 1.6579e-17)
(0.0262404 0.0224965 2.3788e-17)
(0.0266897 0.0214968 1.33787e-17)
(0.0271149 0.0204955 1.09143e-17)
(0.0264534 0.024414 1.66791e-17)
(0.0263394 0.0240184 1.84682e-17)
(0.0268241 0.0229961 2.34126e-17)
(0.0272833 0.021973 1.44494e-17)
(0.0277172 0.0209483 1.01097e-17)
(0.0270267 0.0249722 1.73706e-17)
(0.0269276 0.0245549 2.05363e-17)
(0.0274245 0.0235098 2.2928e-17)
(0.0278945 0.0224634 1.56571e-17)
(0.0283383 0.0214152 9.26042e-18)
(0.0276164 0.025546 1.89316e-17)
(0.0275319 0.0251058 2.14539e-17)
(0.0280414 0.0240376 2.22298e-17)
(0.0285228 0.0229675 1.70185e-17)
(0.0289772 0.0218955 8.00942e-18)
(0.0282231 0.0261359 1.99181e-17)
(0.0281531 0.0256719 2.18021e-17)
(0.0286754 0.0245799 2.15346e-17)
(0.0291686 0.0234856 1.83673e-17)
(0.0296341 0.0223893 6.56422e-18)
(0.0288474 0.0267428 2.00513e-17)
(0.0287919 0.0262538 2.23915e-17)
(0.0293272 0.0251373 2.12109e-17)
(0.0298325 0.0240181 1.95743e-17)
(0.0303093 0.0228969 5.34906e-18)
(0.0294902 0.0273674 1.89298e-17)
(0.0294492 0.0268525 2.27214e-17)
(0.0299976 0.0257106 2.14704e-17)
(0.0305154 0.0245658 2.10084e-17)
(0.0310038 0.0234188 3.95138e-18)
(0.0301523 0.0280106 1.70531e-17)
(0.0301259 0.0274688 2.2668e-17)
(0.0306878 0.0263007 2.21669e-17)
(0.0312181 0.0251295 2.23117e-17)
(0.0317184 0.0239559 1.95455e-18)
(0.0308347 0.0286734 1.49998e-17)
(0.0308232 0.0281037 2.21171e-17)
(0.0313987 0.0269084 2.29984e-17)
(0.0319419 0.0257099 2.36425e-17)
(0.0324543 0.024509 1.31452e-18)
(0.0315384 0.0293566 1.28997e-17)
(0.031542 0.0287583 2.16952e-17)
(0.0321314 0.0275348 2.36815e-17)
(0.0326877 0.026308 2.52339e-17)
(0.0332125 0.0250788 1.56691e-18)
(0.0322645 0.0300614 1.13619e-17)
(0.0322834 0.0294334 2.16889e-17)
(0.032887 0.0281807 2.39425e-17)
(0.0334569 0.0269247 2.63433e-17)
(0.0330141 0.0307888 1.03363e-17)
(0.0330488 0.0301302 2.12709e-17)
(0.0336669 0.0288473 2.36737e-17)
(0.0342505 0.027561 2.83225e-17)
(0.0337884 0.03154 9.59806e-18)
(0.0338391 0.0308498 2.03192e-17)
(0.0344722 0.0295356 2.26679e-17)
(0.0350699 0.028218 3.06895e-17)
(0.0345886 0.0323163 8.69493e-18)
(0.0346559 0.0315934 1.9395e-17)
(0.0353043 0.0302468 2.31066e-17)
(0.0354162 0.0331188 7.15629e-18)
(0.0355003 0.0323622 1.87855e-17)
(0.0361645 0.0309819 2.47742e-17)
(0.0362725 0.0339491 5.19954e-18)
(0.0363739 0.0331575 1.84194e-17)
(0.0371589 0.0348084 3.22372e-18)
(0.0372781 0.0339807 1.88223e-17)
(0.0380771 0.0356984 1.51923e-18)
(0.0382146 0.0348333 1.93408e-17)
(0.0390288 0.0366207 -2.46283e-19)
(0.0391852 0.0357168 2.10788e-17)
(0.0400158 0.0375769 -1.14241e-18)
(0.0401915 0.0366329 2.41e-17)
(0.0410398 0.0385689 -1.79147e-18)
(-0.0163257 0.0181794 1.36352e-17)
(-0.0163081 0.0178694 9.42079e-18)
(-0.0156278 0.0182003 9.00214e-18)
(-0.0149448 0.0185135 -1.77462e-18)
(-0.0142588 0.0188098 -1.75136e-19)
(-0.0135705 0.0190897 4.50701e-18)
(-0.0128801 0.0193536 -1.75653e-18)
(-0.0121882 0.0196018 -1.48532e-18)
(-0.0114949 0.0198346 -3.73968e-18)
(-0.0108005 0.0200523 -6.23033e-18)
(-0.0101053 0.0202551 -3.7936e-18)
(-0.00940947 0.0204433 -1.33683e-18)
(-0.00871314 0.020617 7.39628e-18)
(-0.00801647 0.0207765 7.19522e-18)
(-0.00731955 0.0209221 -2.36493e-19)
(-0.00662247 0.0210538 -1.00603e-17)
(-0.00592531 0.0211719 -1.18791e-17)
(-0.00522811 0.0212764 -1.2734e-17)
(-0.00453091 0.0213676 -7.54898e-18)
(-0.00383375 0.0214456 -5.54403e-18)
(-0.0166616 0.0185209 1.28704e-17)
(-0.0166279 0.0182211 9.89627e-18)
(-0.0159341 0.0185591 9.73329e-18)
(-0.0152374 0.0188788 -1.02715e-18)
(-0.0145377 0.0191814 2.8805e-18)
(-0.0138357 0.0194672 5.70342e-18)
(-0.0131316 0.0197367 -8.03193e-19)
(-0.0124259 0.01999 -1.11686e-18)
(-0.0117189 0.0202277 -2.96093e-18)
(-0.0110108 0.0204499 -4.80616e-18)
(-0.0103019 0.0206569 -4.09743e-18)
(-0.00959235 0.0208489 -2.28332e-18)
(-0.00888236 0.0210262 6.63912e-18)
(-0.00817204 0.021189 4.9124e-18)
(-0.00746151 0.0213375 -2.13631e-18)
(-0.00675083 0.0214719 -1.06211e-17)
(-0.00604009 0.0215924 -1.16795e-17)
(-0.00532934 0.021699 -1.33382e-17)
(-0.00461861 0.0217921 -8.30918e-18)
(-0.00390792 0.0218716 -5.59128e-18)
(-0.0170051 0.0188703 1.1896e-17)
(-0.0169551 0.0185809 1.01987e-17)
(-0.0162474 0.018926 9.6038e-18)
(-0.0155367 0.0192526 -8.21701e-19)
(-0.0148231 0.0195615 4.1589e-18)
(-0.0141069 0.0198533 5.84112e-18)
(-0.0133888 0.0201284 -6.58331e-19)
(-0.012669 0.0203871 -2.21147e-18)
(-0.0119479 0.0206297 -3.02228e-18)
(-0.0112258 0.0208564 -3.75425e-18)
(-0.0105029 0.0210677 -5.01208e-18)
(-0.00977937 0.0212637 -2.73085e-18)
(-0.00905541 0.0214446 6.47866e-18)
(-0.00833113 0.0216107 3.34777e-18)
(-0.00760666 0.0217623 -3.09001e-18)
(-0.00688208 0.0218994 -1.01981e-17)
(-0.00615746 0.0220223 -1.05647e-17)
(-0.00543284 0.0221311 -1.29064e-17)
(-0.00470827 0.0222261 -8.36848e-18)
(-0.00398375 0.0223072 -4.61649e-18)
(-0.0173564 0.0192281 1.11181e-17)
(-0.0172899 0.018949 1.09236e-17)
(-0.016568 0.0193015 9.52582e-18)
(-0.015843 0.0196349 -1.08222e-18)
(-0.015115 0.0199504 4.69958e-18)
(-0.0143845 0.0202483 5.65129e-18)
(-0.0136519 0.0205292 -1.33115e-18)
(-0.0129178 0.0207932 -4.55328e-18)
(-0.0121823 0.0210409 -3.38056e-18)
(-0.0114458 0.0212723 -3.05333e-18)
(-0.0107085 0.0214879 -6.51535e-18)
(-0.00997068 0.0216879 -2.97777e-18)
(-0.00923241 0.0218726 6.65256e-18)
(-0.00849386 0.0220421 2.78513e-18)
(-0.00775514 0.0221967 -2.90569e-18)
(-0.00701633 0.0223366 -9.14904e-18)
(-0.0062775 0.022462 -9.07308e-18)
(-0.00553871 0.022573 -1.18381e-17)
(-0.00479997 0.0226699 -8.31235e-18)
(-0.00406131 0.0227526 -3.20189e-18)
(-0.0177159 0.0195944 1.10176e-17)
(-0.0176326 0.0193259 1.15104e-17)
(-0.0168962 0.0196859 9.98963e-18)
(-0.0161565 0.0200263 -1.34688e-18)
(-0.0154138 0.0203484 5.62213e-18)
(-0.0146685 0.0206526 5.90281e-18)
(-0.0139212 0.0209393 -2.21633e-18)
(-0.0131723 0.0212089 -6.82951e-18)
(-0.0124221 0.0214616 -3.74167e-18)
(-0.0116709 0.0216979 -2.65325e-18)
(-0.010919 0.0219179 -7.68836e-18)
(-0.0101664 0.022122 -2.74725e-18)
(-0.00941353 0.0223104 6.78931e-18)
(-0.00866036 0.0224834 2.63839e-18)
(-0.00790706 0.0226412 -2.70255e-18)
(-0.00715369 0.0227839 -8.5102e-18)
(-0.00640032 0.0229118 -7.74476e-18)
(-0.00564701 0.0230251 -1.10351e-17)
(-0.00489379 0.0231239 -8.63781e-18)
(-0.00414066 0.0232083 -1.77868e-18)
(-0.0180838 0.0199696 1.07935e-17)
(-0.0179835 0.0197119 1.17268e-17)
(-0.0172322 0.0200794 1.08473e-17)
(-0.0164775 0.020427 -1.62203e-18)
(-0.0157197 0.0207559 6.71661e-18)
(-0.0149593 0.0210664 6.1523e-18)
(-0.0141969 0.0213591 -3.59013e-18)
(-0.0134329 0.0216343 -8.43168e-18)
(-0.0126676 0.0218923 -3.94483e-18)
(-0.0119013 0.0221334 -2.54738e-18)
(-0.0111343 0.022358 -8.76275e-18)
(-0.0103668 0.0225663 -2.39205e-18)
(-0.0095989 0.0227586 6.58824e-18)
(-0.00883078 0.0229351 2.56804e-18)
(-0.00806254 0.023096 -2.24447e-18)
(-0.00729426 0.0232416 -7.76978e-18)
(-0.00652602 0.0233721 -6.65724e-18)
(-0.00575786 0.0234877 -1.07852e-17)
(-0.0049898 0.0235884 -9.25375e-18)
(-0.00422187 0.0236745 -3.66979e-19)
(-0.0184605 0.020354 1.00617e-17)
(-0.0183429 0.0201072 1.19324e-17)
(-0.0175764 0.0204825 1.20776e-17)
(-0.0168063 0.0208374 -1.69753e-18)
(-0.016033 0.0211731 7.93494e-18)
(-0.0152571 0.0214902 5.74004e-18)
(-0.0144792 0.021789 -5.28113e-18)
(-0.0136997 0.0220699 -8.76089e-18)
(-0.012919 0.0223333 -3.87188e-18)
(-0.0121373 0.0225794 -2.90644e-18)
(-0.0113549 0.0228086 -1.01175e-17)
(-0.0105719 0.0230212 -1.83711e-18)
(-0.00978869 0.0232173 6.49962e-18)
(-0.00900524 0.0233974 2.93659e-18)
(-0.00822171 0.0235616 -1.72756e-18)
(-0.00743817 0.0237102 -6.94375e-18)
(-0.0066547 0.0238433 -6.07241e-18)
(-0.00587133 0.0239612 -1.11414e-17)
(-0.0050881 0.024064 -9.73617e-18)
(-0.004305 0.0241518 6.07995e-19)
(-0.0188463 0.020748 9.2681e-18)
(-0.0187111 0.0205123 1.1808e-17)
(-0.017929 0.0208954 1.35329e-17)
(-0.017143 0.0212578 -1.79324e-18)
(-0.0163539 0.0216005 8.65707e-18)
(-0.0155621 0.0219243 4.52098e-18)
(-0.0147684 0.0222293 -6.35027e-18)
(-0.013973 0.0225161 -8.02155e-18)
(-0.0131764 0.0227849 -3.59083e-18)
(-0.0123789 0.0230361 -3.54589e-18)
(-0.0115807 0.02327 -1.15612e-17)
(-0.010782 0.023487 -1.23499e-18)
(-0.00998306 0.0236872 6.44488e-18)
(-0.00918392 0.0238709 3.51387e-18)
(-0.00838472 0.0240384 -1.20639e-18)
(-0.00758555 0.02419 -6.18247e-18)
(-0.00678647 0.0243258 -5.73211e-18)
(-0.00598753 0.0244461 -1.18779e-17)
(-0.00518875 0.0245509 -1.03712e-17)
(-0.00439013 0.0246405 1.13909e-18)
(-0.00359167 0.0247149 -5.90746e-18)
(-0.00279335 0.0247744 -4.85939e-18)
(-0.00199516 0.0248189 -1.79162e-18)
(-0.00119705 0.0248485 -9.57915e-18)
(-0.000399011 0.0248633 -2.89264e-18)
(0.000399014 0.0248633 8.46124e-18)
(0.00119706 0.0248485 7.68263e-19)
(0.00199516 0.0248189 6.26164e-18)
(0.00279335 0.0247744 6.68418e-18)
(0.00359167 0.0247149 3.3167e-18)
(0.00439013 0.0246405 -1.89223e-18)
(0.00518875 0.0245509 -4.14024e-18)
(0.00598753 0.0244461 7.54183e-18)
(0.00678648 0.0243258 -2.40647e-18)
(0.00758556 0.02419 -1.0039e-17)
(-0.0192414 0.0211518 8.50423e-18)
(-0.0190885 0.0209275 1.19475e-17)
(-0.0182903 0.0213186 1.48336e-17)
(-0.0174882 0.0216885 -2.16517e-18)
(-0.0166827 0.0220385 8.467e-18)
(-0.0158747 0.022369 3.15692e-18)
(-0.0150647 0.0226805 -6.23918e-18)
(-0.0142531 0.0229732 -7.02613e-18)
(-0.0134402 0.0232476 -3.36887e-18)
(-0.0126265 0.023504 -4.29835e-18)
(-0.0118121 0.0237428 -1.27561e-17)
(-0.0109973 0.0239641 -6.61798e-19)
(-0.0101822 0.0241684 6.35667e-18)
(-0.00936696 0.0243559 4.48936e-18)
(-0.00855171 0.0245269 -8.28362e-19)
(-0.00773653 0.0246815 -5.84239e-18)
(-0.00692146 0.02482 -5.52251e-18)
(-0.00610656 0.0249427 -1.22709e-17)
(-0.00529185 0.0250496 -1.10814e-17)
(-0.00447733 0.025141 1.09474e-18)
(-0.00366298 0.0252169 -5.97356e-18)
(-0.0028488 0.0252776 -5.44319e-18)
(-0.00203475 0.0253229 -1.8723e-18)
(-0.00122081 0.0253532 -9.47339e-18)
(-0.000406928 0.0253683 -3.4581e-18)
(0.000406931 0.0253683 7.51607e-18)
(0.00122081 0.0253532 7.38395e-19)
(0.00203475 0.0253229 5.96571e-18)
(0.0028488 0.0252776 5.87361e-18)
(0.00366298 0.0252169 2.40956e-18)
(0.00447733 0.025141 -3.61623e-18)
(0.00529185 0.0250496 -5.72311e-18)
(0.00610656 0.0249427 5.3576e-18)
(0.00692146 0.02482 -5.05353e-18)
(0.00773653 0.0246815 -1.20939e-17)
(0.00855172 0.0245269 -4.99627e-18)
(0.00936696 0.0243559 -8.99429e-19)
(-0.0196462 0.0215659 7.83375e-18)
(-0.0194753 0.0213532 1.2411e-17)
(-0.0186608 0.0217524 1.58034e-17)
(-0.017842 0.0221301 -2.55097e-18)
(-0.0170198 0.0224874 8.04187e-18)
(-0.0161951 0.0228249 2.81725e-18)
(-0.0153684 0.0231429 -5.3705e-18)
(-0.0145401 0.0234417 -6.63994e-18)
(-0.0137106 0.0237218 -3.25556e-18)
(-0.0128802 0.0239836 -5.11758e-18)
(-0.0120492 0.0242272 -1.33561e-17)
(-0.0112179 0.0244531 -1.52196e-19)
(-0.0103862 0.0246616 5.91227e-18)
(-0.00955453 0.0248529 5.79682e-18)
(-0.00872283 0.0250273 -7.17045e-19)
(-0.00789123 0.0251851 -6.28606e-18)
(-0.00705978 0.0253264 -5.46284e-18)
(-0.00622853 0.0254515 -1.19588e-17)
(-0.00539749 0.0255606 -1.18108e-17)
(-0.00456667 0.0256538 6.49523e-19)
(-0.00373605 0.0257313 -5.42625e-18)
(-0.00290561 0.0257931 -5.46959e-18)
(-0.00207532 0.0258394 -1.53643e-18)
(-0.00124515 0.0258702 -8.98003e-18)
(-0.00041504 0.0258856 -3.75599e-18)
(0.000415043 0.0258856 6.72554e-18)
(0.00124515 0.0258702 1.28382e-18)
(0.00207532 0.0258394 6.48451e-18)
(0.00290561 0.0257931 5.72479e-18)
(0.00373606 0.0257313 3.08661e-18)
(0.00456668 0.0256538 -2.97377e-18)
(0.0053975 0.0255606 -5.28997e-18)
(0.00622853 0.0254515 4.72267e-18)
(0.00705978 0.0253264 -6.116e-18)
(0.00789123 0.0251851 -1.29316e-17)
(0.00872284 0.0250273 -5.17147e-18)
(0.00955453 0.0248529 -3.37378e-19)
(0.0103862 0.0246616 -1.44719e-18)
(-0.0200612 0.0219907 7.86743e-18)
(-0.0198721 0.0217898 1.24395e-17)
(-0.0190406 0.0221972 1.69979e-17)
(-0.0182047 0.0225828 -2.34046e-18)
(-0.0173654 0.0229477 8.52716e-18)
(-0.0165236 0.0232923 3.48242e-18)
(-0.0156797 0.0236169 -4.95538e-18)
(-0.0148343 0.023922 -7.13652e-18)
(-0.0139878 0.024208 -3.20384e-18)
(-0.0131403 0.0244751 -5.99005e-18)
(-0.0122923 0.0247238 -1.3507e-17)
(-0.011444 0.0249544 -1.87393e-19)
(-0.0105954 0.0251671 5.42574e-18)
(-0.0097468 0.0253623 7.0819e-18)
(-0.00889824 0.0255403 -9.90053e-19)
(-0.0080498 0.0257012 -6.82977e-18)
(-0.00720156 0.0258454 -5.38288e-18)
(-0.00635354 0.0259731 -1.15664e-17)
(-0.00550578 0.0260843 -1.26197e-17)
(-0.00465825 0.0261794 5.02319e-19)
(-0.00381095 0.0262584 -4.4308e-18)
(-0.00296384 0.0263215 -5.26431e-18)
(-0.0021169 0.0263687 -1.09268e-18)
(-0.00127009 0.0264001 -8.5545e-18)
(-0.000423354 0.0264158 -3.95227e-18)
(0.000423357 0.0264158 6.17301e-18)
(0.00127009 0.0264001 2.17721e-18)
(0.00211691 0.0263687 7.45791e-18)
(0.00296385 0.0263215 5.95161e-18)
(0.00381095 0.0262584 4.35597e-18)
(0.00465826 0.0261794 -1.38563e-18)
(0.00550578 0.0260843 -3.78635e-18)
(0.00635355 0.0259731 4.67598e-18)
(0.00720156 0.0258454 -6.0494e-18)
(0.00804981 0.0257012 -1.25376e-17)
(0.00889824 0.0255403 -5.41234e-18)
(0.0097468 0.0253623 2.74054e-19)
(0.0105954 0.0251671 -1.19067e-18)
(0.011444 0.0249543 -7.61439e-18)
(0.0122923 0.0247238 -1.8403e-17)
(-0.0204867 0.0224265 8.28113e-18)
(-0.020279 0.0222378 1.25378e-17)
(-0.0194303 0.0226534 1.79177e-17)
(-0.0185768 0.0230472 -1.61592e-18)
(-0.0177199 0.0234198 9.51577e-18)
(-0.0168605 0.0237716 4.41658e-18)
(-0.015999 0.0241031 -5.52523e-18)
(-0.0151361 0.0244146 -8.17322e-18)
(-0.014272 0.0247065 -2.93129e-18)
(-0.0134071 0.0249792 -6.50902e-18)
(-0.0125416 0.025233 -1.3547e-17)
(-0.0116758 0.0254683 -8.04221e-19)
(-0.0108099 0.0256854 4.95083e-18)
(-0.00994396 0.0258846 7.90138e-18)
(-0.0090781 0.0260662 -1.64245e-18)
(-0.0082124 0.0262304 -7.21367e-18)
(-0.00734693 0.0263775 -5.28282e-18)
(-0.00648173 0.0265078 -1.09524e-17)
(-0.0056168 0.0266213 -1.30971e-17)
(-0.00475215 0.0267182 6.17028e-19)
(-0.00388774 0.0267988 -3.55653e-18)
(-0.00302355 0.0268631 -5.10827e-18)
(-0.00215954 0.0269113 -6.1937e-19)
(-0.00129567 0.0269434 -8.44317e-18)
(-0.000431878 0.0269594 -4.23965e-18)
(0.000431881 0.0269594 5.85321e-18)
(0.00129567 0.0269434 3.41739e-18)
(0.00215954 0.0269113 8.43315e-18)
(0.00302355 0.0268631 5.74754e-18)
(0.00388774 0.0267988 5.08861e-18)
(0.00475215 0.0267182 -7.229e-19)
(0.00561681 0.0266213 -2.5605e-18)
(0.00648173 0.0265077 4.82102e-18)
(0.00734693 0.0263775 -6.10997e-18)
(0.0082124 0.0262304 -1.16674e-17)
(0.0090781 0.0260662 -5.30556e-18)
(0.00994396 0.0258846 3.15595e-19)
(0.0108099 0.0256854 -1.17924e-18)
(0.0116758 0.0254683 -8.35959e-18)
(0.0125416 0.025233 -2.0855e-17)
(0.0134071 0.0249792 -3.23435e-19)
(0.014272 0.0247065 -3.01251e-19)
(-0.020924 0.0228751 8.96774e-18)
(-0.0206967 0.0226977 1.26244e-17)
(-0.0198302 0.0231216 1.82815e-17)
(-0.0189586 0.0235236 -7.20924e-19)
(-0.0180836 0.0239041 1.03316e-17)
(-0.0172061 0.0242634 4.84069e-18)
(-0.0163266 0.0246018 -7.02265e-18)
(-0.0154457 0.0249199 -9.10876e-18)
(-0.0145636 0.0252179 -1.80588e-18)
(-0.0136807 0.0254962 -6.56527e-18)
(-0.0127974 0.0257554 -1.37086e-17)
(-0.0119137 0.0259955 -1.75796e-18)
(-0.0110299 0.0262171 4.10336e-18)
(-0.0101462 0.0264204 7.98082e-18)
(-0.00926258 0.0266056 -1.87788e-18)
(-0.00837918 0.0267732 -7.06927e-18)
(-0.00749603 0.0269233 -5.03943e-18)
(-0.0066132 0.0270561 -1.04351e-17)
(-0.00573068 0.0271719 -1.35917e-17)
(-0.00484845 0.0272708 6.88304e-19)
(-0.0039665 0.027353 -2.85134e-18)
(-0.00308478 0.0274187 -5.05581e-18)
(-0.00220326 0.0274678 -2.5797e-19)
(-0.0013219 0.0275005 -8.38518e-18)
(-0.000440621 0.0275168 -4.56807e-18)
(0.000440624 0.0275168 5.72464e-18)
(0.0013219 0.0275005 4.69253e-18)
(0.00220327 0.0274678 9.28838e-18)
(0.00308478 0.0274187 5.40069e-18)
(0.0039665 0.027353 5.89601e-18)
(0.00484845 0.0272708 -4.37196e-19)
(0.00573068 0.0271719 -2.2383e-18)
(0.0066132 0.0270561 4.9375e-18)
(0.00749604 0.0269233 -6.44798e-18)
(0.00837918 0.0267732 -1.08651e-17)
(0.00926258 0.0266056 -4.85275e-18)
(0.0101462 0.0264203 1.22393e-20)
(0.0110299 0.026217 -1.21238e-18)
(0.0119137 0.0259955 -8.75167e-18)
(0.0127974 0.0257553 -2.21979e-17)
(0.0136807 0.0254962 -1.54672e-18)
(0.0145636 0.0252179 -1.02896e-18)
(0.0154457 0.0249199 -6.64744e-20)
(0.0163266 0.0246018 5.85486e-18)
(0.0172061 0.0242634 1.7186e-17)
(-0.0213761 0.0233391 9.77886e-18)
(-0.0211256 0.0231697 1.27883e-17)
(-0.0202406 0.023602 1.87595e-17)
(-0.0193505 0.0240126 -1.33915e-19)
(-0.0184569 0.0244011 1.05523e-17)
(-0.0175608 0.0247681 4.91948e-18)
(-0.0166628 0.0251136 -8.41781e-18)
(-0.0157634 0.0254384 -1.02116e-17)
(-0.0148628 0.0257426 -6.48703e-19)
(-0.0139615 0.0260268 -6.20591e-18)
(-0.0130598 0.0262913 -1.39518e-17)
(-0.0121577 0.0265364 -3.22343e-18)
(-0.0112557 0.0267625 3.18363e-18)
(-0.0103537 0.02697 8.66429e-18)
(-0.00945187 0.027159 -1.48863e-18)
(-0.00855029 0.02733 -7.32954e-18)
(-0.00764902 0.0274832 -5.07114e-18)
(-0.00674809 0.0276187 -1.01552e-17)
(-0.00584751 0.0277369 -1.40561e-17)
(-0.00494726 0.0278378 7.59931e-19)
(-0.0040473 0.0279216 -2.14857e-18)
(-0.0031476 0.0279885 -5.19105e-18)
(-0.00224812 0.0280386 -9.91413e-21)
(-0.00134881 0.028072 -8.09869e-18)
(-0.00044959 0.0280887 -5.00844e-18)
(0.000449593 0.0280887 5.72438e-18)
(0.00134881 0.028072 5.94451e-18)
(0.00224813 0.0280386 1.00831e-17)
(0.0031476 0.0279885 4.91479e-18)
(0.0040473 0.0279216 6.47004e-18)
(0.00494726 0.0278378 -1.79352e-19)
(0.00584751 0.0277368 -2.17651e-18)
(0.00674809 0.0276187 4.8837e-18)
(0.00764902 0.0274831 -7.23759e-18)
(0.00855029 0.02733 -1.02595e-17)
(0.00945187 0.027159 -4.19912e-18)
(0.0103537 0.02697 -5.16674e-19)
(0.0112557 0.0267625 -1.43464e-18)
(0.0121577 0.0265364 -8.81514e-18)
(0.0130598 0.0262913 -2.1864e-17)
(0.0139615 0.0260268 -1.77438e-18)
(0.0148628 0.0257426 -1.03596e-18)
(0.0157634 0.0254384 -1.13349e-18)
(0.0166628 0.0251136 3.24178e-18)
(0.0175608 0.0247681 1.50071e-17)
(0.0184569 0.0244011 1.7334e-17)
(0.0193505 0.0240126 1.41821e-17)
(-0.0218446 0.0238199 1.06621e-17)
(-0.0215666 0.0236542 1.29677e-17)
(-0.0206621 0.0240953 1.89233e-17)
(-0.0197528 0.0245146 1.82504e-19)
(-0.0188401 0.0249114 1.04256e-17)
(-0.017925 0.0252862 5.69745e-18)
(-0.0170079 0.025639 -9.46476e-18)
(-0.0160895 0.0259707 -1.17849e-17)
(-0.0151699 0.0262813 -2.85833e-19)
(-0.0142497 0.0265714 -5.27734e-18)
(-0.0133291 0.0268414 -1.41287e-17)
(-0.0124083 0.0270916 -5.01594e-18)
(-0.0114874 0.0273224 2.60755e-18)
(-0.0105667 0.0275341 9.48715e-18)
(-0.00964615 0.027727 -7.98692e-19)
(-0.00872591 0.0279015 -7.82548e-18)
(-0.00780603 0.0280578 -5.48494e-18)
(-0.00688652 0.0281961 -1.00157e-17)
(-0.00596742 0.0283166 -1.41322e-17)
(-0.00504866 0.0284195 8.4523e-19)
(-0.00413023 0.0285051 -1.66682e-18)
(-0.00321208 0.0285734 -5.55457e-18)
(-0.00229416 0.0286245 3.50841e-19)
(-0.00137643 0.0286585 -7.28391e-18)
(-0.000458795 0.0286755 -5.47943e-18)
(0.000458798 0.0286755 5.4857e-18)
(0.00137643 0.0286585 7.01683e-18)
(0.00229417 0.0286245 1.0907e-17)
(0.00321208 0.0285734 4.21045e-18)
(0.00413023 0.0285051 6.91286e-18)
(0.00504866 0.0284195 2.23684e-19)
(0.00596742 0.0283166 -2.23817e-18)
(0.00688653 0.0281961 4.78209e-18)
(0.00780603 0.0280577 -7.94005e-18)
(0.00872592 0.0279015 -1.00799e-17)
(0.00964615 0.027727 -3.49988e-18)
(0.0105667 0.0275341 -9.78892e-19)
(0.0114874 0.0273224 -1.65308e-18)
(0.0124083 0.0270916 -8.75109e-18)
(0.0133291 0.0268414 -2.105e-17)
(0.0142497 0.0265714 -1.4211e-18)
(0.0151699 0.0262813 -7.82685e-19)
(0.0160895 0.0259707 -8.15303e-19)
(0.0170079 0.025639 2.62453e-18)
(0.017925 0.0252862 1.36952e-17)
(0.0188401 0.0249114 1.82438e-17)
(0.0197528 0.0245146 1.47205e-17)
(0.0206621 0.0240953 5.91048e-18)
(0.0215666 0.0236542 3.45789e-18)
(0.0218446 0.0238199 2.54084e-17)
(-0.0223289 0.0243164 1.14468e-17)
(-0.0220221 0.0241535 1.31888e-17)
(-0.0210957 0.0246027 1.89777e-17)
(-0.0201661 0.0250302 7.41495e-19)
(-0.0192337 0.0254355 1.04865e-17)
(-0.018299 0.0258182 6.7514e-18)
(-0.0173623 0.0261786 -1.05138e-17)
(-0.0164244 0.0265173 -1.32933e-17)
(-0.0154854 0.0268344 -3.27306e-19)
(-0.0145457 0.0271306 -4.04052e-18)
(-0.0136057 0.0274063 -1.43156e-17)
(-0.0126655 0.0276616 -6.2177e-18)
(-0.0117253 0.0278972 2.57952e-18)
(-0.0107853 0.0281133 1.00787e-17)
(-0.00984562 0.0283102 -2.64418e-20)
(-0.00890623 0.0284882 -8.38561e-18)
(-0.00796723 0.0286477 -6.09782e-18)
(-0.00702866 0.0287888 -9.54138e-18)
(-0.00609052 0.0289118 -1.39718e-17)
(-0.00515277 0.0290168 4.11491e-19)
(-0.00421536 0.0291041 -1.33242e-18)
(-0.00327827 0.0291737 -5.91105e-18)
(-0.00234143 0.0292259 9.86326e-19)
(-0.00140478 0.0292606 -6.12437e-18)
(-0.000468246 0.0292779 -6.0295e-18)
(0.000468248 0.0292779 5.07318e-18)
(0.00140478 0.0292606 8.03763e-18)
(0.00234143 0.0292259 1.1407e-17)
(0.00327827 0.0291737 3.09529e-18)
(0.00421536 0.0291041 7.42897e-18)
(0.00515277 0.0290168 8.82332e-19)
(0.00609052 0.0289118 -2.13566e-18)
(0.00702866 0.0287888 4.68958e-18)
(0.00796723 0.0286476 -8.76781e-18)
(0.00890623 0.0284882 -1.02836e-17)
(0.00984562 0.0283102 -2.93088e-18)
(0.0107853 0.0281133 -1.34318e-18)
(0.0117253 0.0278972 -1.95814e-18)
(0.0126655 0.0276616 -8.61464e-18)
(0.0136057 0.0274063 -2.01994e-17)
(0.0145457 0.0271306 -1.2852e-18)
(0.0154854 0.0268344 -1.27027e-18)
(0.0164244 0.0265173 2.2263e-19)
(0.0173623 0.0261786 3.64482e-18)
(0.018299 0.0258182 1.32161e-17)
(0.0192337 0.0254355 1.78137e-17)
(0.020166 0.0250302 1.49082e-17)
(0.0210957 0.0246027 3.33168e-18)
(0.0220221 0.0241535 9.64861e-19)
(0.0223289 0.0243164 2.52793e-17)
(-0.0228283 0.0248277 1.18625e-17)
(-0.0224959 0.0246721 1.34798e-17)
(-0.0215446 0.0251279 1.91348e-17)
(-0.0205925 0.0255623 1.5779e-18)
(-0.0196388 0.025975 1.07597e-17)
(-0.0186833 0.0263649 7.56193e-18)
(-0.0177264 0.0267329 -1.09545e-17)
(-0.0167684 0.0270787 -1.48499e-17)
(-0.0158093 0.0274025 -6.08038e-19)
(-0.0148497 0.027705 -3.37568e-18)
(-0.0138897 0.0279864 -1.50354e-17)
(-0.0129297 0.0282471 -6.35534e-18)
(-0.0119697 0.0284876 2.87417e-18)
(-0.0110099 0.0287082 1.02579e-17)
(-0.0100505 0.0289091 -3.46227e-20)
(-0.00909142 0.0290907 -8.79717e-18)
(-0.00813279 0.0292535 -6.22489e-18)
(-0.00717463 0.0293975 -8.9024e-18)
(-0.00621695 0.029523 -1.40813e-17)
(-0.00525969 0.0296301 -2.28229e-19)
(-0.0043028 0.0297192 -1.25635e-18)
(-0.00334625 0.0297902 -6.29618e-18)
(-0.00238997 0.0298434 1.79082e-18)
(-0.0014339 0.0298788 -4.96652e-18)
(-0.000477951 0.0298965 -6.59545e-18)
(0.000477954 0.0298965 4.60056e-18)
(0.0014339 0.0298788 9.31519e-18)
(0.00238997 0.0298434 1.17036e-17)
(0.00334625 0.0297902 1.67782e-18)
(0.0043028 0.0297192 8.01042e-18)
(0.00525969 0.0296301 1.88608e-18)
(0.00621695 0.029523 -1.78096e-18)
(0.00717463 0.0293975 4.4777e-18)
(0.00813279 0.0292535 -9.2453e-18)
(0.00909142 0.0290907 -1.04196e-17)
(0.0100505 0.0289091 -2.83729e-18)
(0.0110099 0.0287082 -2.02959e-18)
(0.0119697 0.0284876 -2.21669e-18)
(0.0129297 0.0282471 -8.18815e-18)
(0.0138898 0.0279864 -1.95797e-17)
(0.0148497 0.027705 -1.81028e-18)
(0.0158093 0.0274025 -2.43033e-18)
(0.0167684 0.0270787 7.21338e-19)
(0.0177264 0.0267329 4.97025e-18)
(0.0186833 0.0263649 1.35806e-17)
(0.0196388 0.025975 1.64836e-17)
(0.0205925 0.0255623 1.52089e-17)
(0.0215446 0.0251279 3.62538e-18)
(0.0224959 0.0246721 4.01834e-19)
(0.0228283 0.0248277 2.54305e-17)
(-0.0233424 0.0253541 1.15773e-17)
(-0.022988 0.0252107 1.36531e-17)
(-0.0220119 0.0256741 1.95315e-17)
(-0.0210359 0.0261153 2.58252e-18)
(-0.0200586 0.0265337 1.08935e-17)
(-0.0190802 0.0269295 8.00482e-18)
(-0.0181015 0.027304 -1.12539e-17)
(-0.0171221 0.0276559 -1.67844e-17)
(-0.0161423 0.0279864 -1.21098e-18)
(-0.0151621 0.0282952 -3.07371e-18)
(-0.0141816 0.0285825 -1.577e-17)
(-0.0132011 0.0288486 -5.95769e-18)
(-0.0122207 0.0290941 3.64618e-18)
(-0.0112407 0.0293193 9.48487e-18)
(-0.010261 0.0295244 -9.72602e-19)
(-0.00928169 0.0297098 -8.95917e-18)
(-0.00830289 0.0298758 -5.56652e-18)
(-0.0073246 0.0300228 -8.10173e-18)
(-0.00634684 0.0301509 -1.45654e-17)
(-0.00536953 0.0302602 -7.65807e-19)
(-0.00439263 0.030351 -1.33218e-18)
(-0.00341608 0.0304235 -6.78115e-18)
(-0.00243984 0.0304778 2.39891e-18)
(-0.00146381 0.030514 -3.84964e-18)
(-0.000487921 0.030532 -6.83064e-18)
(0.000487924 0.030532 4.44112e-18)
(0.00146381 0.030514 1.06906e-17)
(0.00243984 0.0304778 1.16632e-17)
(0.00341608 0.0304235 1.12802e-19)
(0.00439263 0.030351 8.64122e-18)
(0.00536953 0.0302602 2.95443e-18)
(0.00634684 0.0301509 -1.24228e-18)
(0.0073246 0.0300228 4.25378e-18)
(0.00830289 0.0298758 -9.44942e-18)
(0.00928169 0.0297098 -1.03669e-17)
(0.010261 0.0295243 -2.93269e-18)
(0.0112407 0.0293193 -2.80621e-18)
(0.0122207 0.0290941 -2.11591e-18)
(0.0132011 0.0288486 -7.551e-18)
(0.0141816 0.0285825 -1.89606e-17)
(0.0151621 0.0282952 -2.28926e-18)
(0.0161423 0.0279864 -4.66707e-18)
(0.0171221 0.0276559 2.7298e-19)
(0.0181015 0.027304 6.18642e-18)
(0.0190802 0.0269295 1.47476e-17)
(0.0200586 0.0265337 1.44714e-17)
(0.0210359 0.0261153 1.53702e-17)
(0.0220119 0.0256741 6.18152e-18)
(0.022988 0.0252107 1.82425e-18)
(0.0233424 0.0253541 2.57195e-17)
(-0.0238708 0.025896 1.09638e-17)
(-0.023496 0.0257669 1.44372e-17)
(-0.0224965 0.0262404 1.99082e-17)
(-0.0214968 0.0266897 3.73002e-18)
(-0.0204955 0.0271149 1.07044e-17)
(-0.0194932 0.0275167 8.11693e-18)
(-0.0184907 0.0278961 -1.12018e-17)
(-0.0174878 0.0282527 -1.88037e-17)
(-0.0164858 0.0285887 -2.20404e-18)
(-0.0154837 0.0289028 -2.66208e-18)
(-0.0144817 0.0291953 -1.67625e-17)
(-0.0134802 0.0294669 -5.57297e-18)
(-0.0124788 0.0297176 5.0605e-18)
(-0.0114779 0.0299474 8.46115e-18)
(-0.0104773 0.0301567 -2.22723e-18)
(-0.00947724 0.030346 -8.26734e-18)
(-0.0084777 0.0305154 -4.23334e-18)
(-0.00747873 0.0306654 -7.76411e-18)
(-0.00648033 0.0307961 -1.50535e-17)
(-0.00548242 0.0309077 -1.1477e-18)
(-0.00448494 0.0310004 -1.64312e-18)
(-0.00348785 0.0310744 -7.36101e-18)
(-0.00249109 0.0311297 2.69181e-18)
(-0.00149455 0.0311666 -2.72981e-18)
(-0.000498168 0.031185 -6.5533e-18)
(0.000498171 0.031185 4.72697e-18)
(0.00149456 0.0311666 1.1861e-17)
(0.00249109 0.0311297 1.138e-17)
(0.00348785 0.0310744 -1.55931e-18)
(0.00448494 0.0310004 9.24332e-18)
(0.00548242 0.0309077 4.18844e-18)
(0.00648033 0.0307961 -8.23144e-19)
(0.00747873 0.0306654 3.65602e-18)
(0.0084777 0.0305154 -9.41613e-18)
(0.00947725 0.0303459 -9.99013e-18)
(0.0104773 0.0301567 -3.24534e-18)
(0.0114779 0.0299474 -3.54976e-18)
(0.0124788 0.0297175 -1.74731e-18)
(0.0134802 0.0294669 -6.77079e-18)
(0.0144817 0.0291953 -1.83953e-17)
(0.0154837 0.0289028 -1.97842e-18)
(0.0164858 0.0285887 -7.33718e-18)
(0.0174878 0.0282527 -8.95426e-19)
(0.0184907 0.0278961 6.44946e-18)
(0.0194932 0.0275167 1.54189e-17)
(0.0204955 0.0271149 1.26153e-17)
(0.0214968 0.0266897 1.53499e-17)
(0.0224965 0.0262404 9.0764e-18)
(0.023496 0.0257669 3.37705e-18)
(0.0238708 0.025896 2.46127e-17)
(-0.024414 0.0264534 1.04695e-17)
(-0.0240184 0.0263394 1.62815e-17)
(-0.0229961 0.0268241 1.98663e-17)
(-0.021973 0.0272833 5.19749e-18)
(-0.0209483 0.0277172 1.06312e-17)
(-0.0199223 0.0281267 8.01315e-18)
(-0.0188956 0.028512 -1.08874e-17)
(-0.0178688 0.028874 -2.09647e-17)
(-0.0168426 0.0292143 -3.78099e-18)
(-0.015817 0.0295323 -2.24981e-18)
(-0.0147919 0.0298287 -1.76743e-17)
(-0.013768 0.0301049 -5.19815e-18)
(-0.0127446 0.0303597 6.24049e-18)
(-0.0117218 0.0305934 7.95811e-18)
(-0.0106998 0.0308069 -3.74367e-18)
(-0.00967832 0.0310001 -7.28427e-18)
(-0.00865745 0.031173 -2.76074e-18)
(-0.00763719 0.0313261 -8.11911e-18)
(-0.00661758 0.0314595 -1.53849e-17)
(-0.00559848 0.0315733 -1.35549e-18)
(-0.00457985 0.0316679 -2.09949e-18)
(-0.00356164 0.0317434 -7.99458e-18)
(-0.00254377 0.0317999 2.5829e-18)
(-0.00152616 0.0318375 -1.54453e-18)
(-0.000508702 0.0318563 -5.69075e-18)
(0.000508705 0.0318563 5.32788e-18)
(0.00152616 0.0318375 1.25554e-17)
(0.00254378 0.0317999 1.10627e-17)
(0.00356164 0.0317434 -2.93802e-18)
(0.00457985 0.0316679 9.4185e-18)
(0.00559848 0.0315733 5.39928e-18)
(0.00661758 0.0314595 -4.90898e-19)
(0.0076372 0.0313261 2.69891e-18)
(0.00865745 0.031173 -9.07758e-18)
(0.00967832 0.0310001 -9.10993e-18)
(0.0106998 0.0308069 -3.76883e-18)
(0.0117218 0.0305934 -4.10856e-18)
(0.0127446 0.0303597 -1.49693e-18)
(0.013768 0.0301049 -6.49101e-18)
(0.0147919 0.0298287 -1.7815e-17)
(0.015817 0.0295323 -9.14123e-19)
(0.0168426 0.0292143 -9.84397e-18)
(0.0178688 0.028874 -2.35384e-18)
(0.0188956 0.028512 6.44627e-18)
(0.0199223 0.0281267 1.51015e-17)
(0.0209483 0.0277172 1.12005e-17)
(0.021973 0.0272833 1.48153e-17)
(0.0229961 0.0268241 1.10916e-17)
(0.0240184 0.0263394 5.42695e-18)
(0.024414 0.0264534 2.35291e-17)
(-0.0249722 0.0270267 1.14332e-17)
(-0.0245549 0.0269276 1.78265e-17)
(-0.0235098 0.0274245 1.95146e-17)
(-0.0224634 0.0278945 6.9413e-18)
(-0.0214152 0.0283383 1.03418e-17)
(-0.0203656 0.0287567 7.42399e-18)
(-0.0193151 0.0291499 -1.03071e-17)
(-0.0182645 0.0295191 -2.30282e-17)
(-0.0172139 0.0298647 -6.00545e-18)
(-0.0161641 0.0301874 -1.58928e-18)
(-0.015115 0.030488 -1.81857e-17)
(-0.0140671 0.0307674 -5.48491e-18)
(-0.0130202 0.0310252 7.39791e-18)
(-0.0119742 0.0312617 7.53617e-18)
(-0.0109296 0.0314786 -5.10471e-18)
(-0.00988574 0.0316749 -5.756e-18)