/*--------------------------------*- C++ -*----------------------------------*\
  =========                 |
  \\      /  F ield         | OpenFOAM: The Open Source CFD Toolbox
   \\    /   O peration     | Website:  https://openfoam.org
    \\  /    A nd           | Version:  7
     \\/     M anipulation  |
\*---------------------------------------------------------------------------*/
FoamFile
{
    version     2.0;
    format      ascii;
    class       volScalarField;
    location    "32000";
    object      nu;
}
// * * * * * * * * * * * * * * * * * * * * * * * * * * * * * * * * * * * * * //

dimensions      [0 2 -1 0 0 0 0];

internalField   nonuniform List<scalar> 
4850
(
0.001
0.001
0.001
0.001
0.001
0.001
0.001
0.001
0.001
0.001
0.001
0.001
0.001
0.001
0.001
0.001
0.001
0.001
0.001
0.001
0.001
0.001
0.001
0.001
0.001
0.001
0.001
0.001
0.001
0.001
0.001
0.001
0.001
0.001
0.001
0.001
0.001
0.001
0.001
0.001
0.001
0.001
0.001
0.001
0.001
0.001
0.001
0.001
0.001
0.001
0.001
0.001
0.001
0.001
0.001
0.001
0.001
0.001
0.001
0.001
0.001
0.001
0.001
0.001
0.001
0.001
0.001
0.001
0.001
0.001
0.001
0.001
0.001
0.001
0.001
0.001
0.001
0.001
0.001
0.001
0.001
0.001
0.001
0.001
0.001
0.001
0.001
0.001
0.001
0.001
0.001
0.001
0.001
0.001
0.001
0.001
0.001
0.001
0.001
0.001
0.001
0.001
0.001
0.001
0.001
0.001
0.001
0.001
0.001
0.001
0.001
0.001
0.001
0.001
0.001
0.001
0.001
0.001
0.001
0.001
0.001
0.001
0.001
0.001
0.001
0.001
0.001
0.001
0.001
0.001
0.001
0.001
0.001
0.001
0.001
0.001
0.001
0.001
0.001
0.001
0.001
0.001
0.001
0.001
0.001
0.001
0.001
0.001
0.001
0.001
0.001
0.001
0.001
0.001
0.001
0.001
0.001
0.001
0.001
0.001
0.001
0.001
0.001
0.001
0.001
0.001
0.001
0.001
0.001
0.001
0.001
0.001
0.001
0.001
0.001
0.001
0.001
0.001
0.001
0.001
0.001
0.001
0.001
0.001
0.001
0.001
0.001
0.001
0.001
0.001
0.001
0.001
0.001
0.001
0.001
0.001
0.001
0.001
0.001
0.001
0.001
0.001
0.001
0.001
0.001
0.001
0.001
0.001
0.001
0.001
0.001
0.001
0.001
0.001
0.001
0.001
0.001
0.001
0.001
0.001
0.001
0.001
0.001
0.001
0.001
0.001
0.001
0.001
0.001
0.001
0.001
0.001
0.001
0.001
0.001
0.001
0.001
0.001
0.001
0.001
0.001
0.001
0.001
0.001
0.001
0.001
0.001
0.000999972
0.001
0.001
0.001
0.001
0.001
0.001
0.001
0.001
0.001
0.001
0.001
0.001
0.001
0.001
0.001
0.001
0.001
0.001
0.001
0.001
0.001
0.001
0.001
0.001
0.001
0.001
0.001
0.001
0.001
0.001
0.001
0.001
0.001
0.000991698
0.001
0.001
0.001
0.001
0.001
0.001
0.001
0.001
0.001
0.001
0.001
0.001
0.001
0.001
0.001
0.001
0.001
0.001
0.001
0.001
0.001
0.001
0.001
0.001
0.001
0.001
0.001
0.001
0.001
0.001
0.001
0.001
0.001
0.000979857
0.00099354
0.000997744
0.001
0.001
0.001
0.001
0.001
0.001
0.001
0.001
0.001
0.001
0.001
0.001
0.001
0.001
0.001
0.001
0.001
0.001
0.001
0.001
0.001
0.001
0.001
0.001
0.001
0.001
0.001
0.001
0.001
0.001
0.001
0.000965807
0.000980257
0.000986563
0.000991176
0.000994722
0.000997794
0.001
0.001
0.001
0.001
0.001
0.001
0.001
0.001
0.001
0.001
0.001
0.001
0.001
0.001
0.001
0.001
0.001
0.001
0.001
0.001
0.001
0.001
0.001
0.001
0.001
0.001
0.001
0.001
0.000950314
0.0009644
0.000971675
0.000977582
0.000982675
0.000987162
0.000991181
0.000994579
0.00099761
0.001
0.001
0.001
0.001
0.001
0.001
0.001
0.001
0.001
0.001
0.001
0.001
0.001
0.001
0.001
0.001
0.001
0.001
0.001
0.001
0.001
0.001
0.001
0.001
0.001
0.000934011
0.000947625
0.00095529
0.000961899
0.000967748
0.000973004
0.000977925
0.000982653
0.000987002
0.000990943
0.00099419
0.000997023
0.000999506
0.001
0.001
0.001
0.001
0.001
0.001
0.001
0.001
0.001
0.001
0.001
0.001
0.001
0.001
0.001
0.001
0.001
0.001
0.001
0.001
0.001
0.000917325
0.00093054
0.000938342
0.000945323
0.0009516
0.000957325
0.000962734
0.000968001
0.000972982
0.000977699
0.000982208
0.000986276
0.000989944
0.000992964
0.000995517
0.000997777
0.000999714
0.001
0.001
0.001
0.001
0.001
0.001
0.001
0.001
0.001
0.001
0.001
0.001
0.001
0.001
0.000999849
0.000996433
0.000991088
0.000900501
0.000913372
0.000921219
0.000928397
0.000934944
0.000940978
0.000946683
0.00095221
0.000957518
0.000962632
0.00096762
0.000972263
0.000976559
0.000980599
0.000984235
0.000987484
0.000990335
0.000992573
0.000994383
0.000995903
0.00099716
0.000998151
0.000998877
0.000999336
0.000999516
0.000999397
0.000998974
0.000998249
0.000997194
0.000995722
0.000993627
0.000990472
0.000985444
0.000978476
0.000970484
0.000883671
0.000896224
0.000904083
0.000911367
0.000918092
0.000924343
0.00093025
0.000935938
0.000941434
0.000946757
0.000951943
0.000956865
0.000961499
0.000965937
0.000970035
0.000973744
0.000977074
0.000980094
0.000982681
0.000984866
0.000986674
0.000988105
0.000989155
0.000989819
0.00099008
0.000989917
0.000989318
0.000988272
0.000986727
0.000984545
0.000981454
0.000977044
0.000971182
0.000963747
0.000959055
0.000866902
0.000879146
0.000887004
0.000894349
0.000901195
0.0009076
0.000913658
0.000919469
0.000925085
0.000930528
0.000935812
0.000940876
0.000945687
0.000950285
0.000954582
0.000958519
0.000962102
0.000965413
0.000968322
0.000970799
0.000972852
0.000974478
0.000975673
0.000976427
0.000976724
0.000976542
0.000975863
0.000974656
0.000972842
0.000970249
0.000966586
0.000961532
0.000955089
0.000947756
0.000946832
0.000850233
0.000862174
0.00087002
0.000877399
0.000884327
0.000890844
0.00089702
0.00090293
0.000908632
0.000914153
0.000919496
0.000924636
0.00092954
0.000934209
0.000938594
0.000942644
0.000946357
0.000949771
0.000952803
0.000955406
0.000957567
0.000959281
0.00096054
0.000961333
0.000961641
0.000961444
0.000960713
0.000959392
0.000957371
0.000954436
0.000950266
0.000944545
0.000937312
0.000930205
0.000833686
0.00084533
0.000853153
0.000860549
0.000867531
0.000874131
0.000880396
0.000886388
0.000892159
0.000897734
0.000903119
0.000908301
0.000913254
0.000917958
0.000922382
0.000926488
0.000930262
0.000933709
0.000936782
0.000939433
0.000941641
0.000943392
0.000944677
0.000945482
0.000945789
0.00094557
0.000944782
0.000943345
0.000941105
0.000937789
0.000932994
0.000926292
0.000917699
0.000911066
0.000817278
0.000828631
0.000836423
0.00084382
0.000850837
0.000857494
0.000863829
0.000869886
0.000875711
0.000881328
0.000886744
0.000891951
0.000896927
0.000901649
0.00090609
0.00091022
0.000914018
0.000917471
0.00092055
0.000923215
0.000925438
0.000927202
0.000928494
0.000929298
0.000929592
0.000929339
0.00092848
0.000926906
0.000924412
0.000920658
0.000915126
0.000907214
0.000896962
0.000894033
0.000801022
0.000812091
0.000819841
0.00082723
0.000834264
0.00084096
0.000847344
0.000853453
0.00085932
0.000864969
0.000870408
0.000875629
0.000880616
0.000885344
0.000889789
0.000893924
0.000897727
0.000901176
0.000904247
0.000906907
0.000909129
0.000910893
0.000912182
0.000912975
0.000913245
0.000912947
0.000912003
0.000910273
0.000907515
0.000903332
0.000897149
0.000888301
0.00087753
0.000880551
0.000784928
0.000795721
0.000803421
0.000810789
0.000817828
0.000824547
0.000830966
0.000837112
0.000843011
0.000848683
0.000854136
0.000859364
0.000864353
0.000869079
0.00087352
0.000877651
0.000881446
0.000884884
0.000887941
0.000890589
0.000892801
0.000894556
0.000895833
0.000896609
0.000896848
0.000896497
0.00089546
0.000893578
0.00089059
0.00088611
0.000879664
0.000870932
0.000863097
0.000769004
0.00077953
0.000787171
0.00079451
0.000801541
0.00080827
0.00081471
0.000820881
0.000826802
0.00083249
0.00083795
0.000843179
0.000848163
0.000852882
0.000857312
0.00086143
0.000865212
0.000868634
0.000871673
0.000874304
0.000876501
0.000878242
0.000879502
0.000880254
0.000880458
0.00088005
0.000878924
0.000876918
0.000873792
0.000869262
0.000863172
0.00085622
0.000853323
0.00075326
0.000763524
0.000771101
0.000778401
0.000785416
0.000792143
0.000798592
0.000804776
0.00081071
0.000816405
0.000821867
0.000827091
0.000832065
0.000836771
0.000841185
0.000845287
0.00084905
0.000852453
0.000855471
0.000858082
0.00086026
0.000861982
0.000863222
0.000863947
0.000864114
0.000863652
0.000862456
0.000860377
0.00085724
0.000852948
0.000847818
0.000843638
0.000737704
0.000747712
0.000755217
0.000762472
0.00076946
0.000776176
0.000782624
0.000788811
0.000794748
0.000800444
0.000805901
0.000811115
0.000816075
0.000820763
0.000825158
0.000829238
0.000832979
0.000836359
0.000839355
0.000841943
0.0008441
0.000845801
0.000847017
0.000847715
0.000847846
0.000847339
0.0008461
0.000844013
0.000840998
0.000837178
0.000833319
0.000831749
0.000722346
0.000732104
0.00073953
0.00074673
0.000753683
0.000760378
0.000766815
0.000772996
0.000778929
0.000784618
0.000790065
0.000795265
0.000800206
0.000804873
0.000809244
0.0008133
0.000817016
0.000820371
0.000823342
0.000825906
0.000828039
0.000829716
0.000830909
0.000831579
0.000831679
0.000831143
0.000829893
0.000827861
0.000825074
0.00082185
0.00081921
0.000819362
0.000707199
0.000716709
0.000724049
0.000731186
0.000738095
0.00074476
0.000751176
0.000757343
0.000763263
0.000768939
0.000774371
0.000779551
0.00078447
0.000789111
0.000793456
0.000797484
0.000801173
0.000804501
0.000807445
0.000809983
0.000812092
0.000813745
0.000814913
0.000815559
0.000815637
0.000815089
0.000813862
0.00081194
0.000809445
0.000806823
0.000805118
0.000805902
0.000692273
0.000701539
0.000708786
0.000715852
0.000722707
0.000729332
0.000735718
0.000741862
0.000747762
0.000753418
0.000758828
0.000763984
0.000768876
0.00077349
0.000777805
0.000781803
0.000785462
0.000788761
0.000791677
0.000794188
0.000796272
0.000797901
0.000799046
0.000799672
0.000799737
0.000799197
0.000798024
0.000796254
0.000794077
0.000791987
0.000790878
0.000791607
0.000677577
0.000686605
0.000693752
0.000700739
0.000707531
0.000714107
0.000720454
0.000726565
0.000732437
0.000738066
0.000743448
0.000748575
0.000753437
0.000758018
0.000762301
0.000766267
0.000769894
0.000773162
0.000776048
0.000778532
0.000780589
0.000782195
0.00078332
0.000783932
0.000783995
0.000783482
0.000782392
0.000780802
0.000778943
0.000777288
0.000776506
0.000776898
0.00066311
0.000671908
0.000678955
0.000685858
0.00069258
0.000699099
0.000705397
0.000711467
0.000717302
0.000722896
0.000728244
0.000733337
0.000738163
0.000742709
0.000746956
0.000750886
0.000754479
0.000757714
0.000760569
0.000763024
0.000765056
0.000766639
0.000767746
0.00076835
0.000768424
0.000767955
0.00076697
0.000765577
0.000764021
0.000762711
0.000762084
0.000762092
0.000648862
0.000657444
0.000664392
0.00067121
0.000677859
0.000684315
0.000690559
0.00069658
0.00070237
0.000707922
0.000713229
0.000718282
0.000723068
0.000727574
0.000731782
0.000735673
0.000739229
0.000742429
0.000745252
0.000747678
0.000749683
0.000751244
0.000752338
0.00075294
0.000753034
0.000752623
0.000751756
0.000750562
0.000749277
0.000748224
0.000747634
0.000747242
0.000634807
0.000643192
0.00065005
0.000656788
0.000663366
0.000669758
0.000675944
0.000681912
0.000687652
0.000693157
0.000698418
0.000703425
0.000708166
0.000712628
0.000716792
0.000720642
0.000724158
0.000727321
0.00073011
0.000732505
0.000734483
0.000736025
0.000737108
0.000737713
0.000737835
0.00073749
0.000736742
0.000735725
0.000734647
0.000733726
0.00073301
0.000732066
0.000620919
0.000629124
0.000635904
0.000642572
0.000649085
0.000655417
0.000661547
0.000667462
0.000673151
0.000678606
0.000683818
0.000688776
0.000693469
0.000697883
0.000702001
0.000705806
0.00070928
0.000712404
0.000715157
0.00071752
0.000719472
0.000720995
0.000722068
0.000722681
0.000722834
0.000722553
0.000721908
0.000721018
0.00072003
0.000719027
0.000717874
0.00071598
0.000607178
0.000615213
0.000621924
0.000628531
0.00063499
0.000641271
0.000647351
0.000653218
0.000658859
0.000664265
0.000669428
0.000674337
0.000678981
0.000683346
0.000687417
0.000691176
0.000694607
0.000697689
0.000700406
0.000702736
0.000704663
0.000706167
0.000707233
0.000707854
0.000708036
0.000707809
0.000707233
0.000706385
0.000705307
0.000703889
0.000701777
0.000698354
0.000593593
0.000601453
0.000608091
0.000614641
0.000621052
0.000627289
0.000633329
0.000639154
0.000644754
0.000650118
0.000655236
0.0006601
0.000664697
0.000669016
0.00067304
0.000676754
0.000680141
0.000683183
0.000685863
0.000688162
0.000690063
0.00069155
0.00069261
0.000693238
0.000693443
0.000693249
0.000692692
0.000691777
0.000690388
0.000688136
0.000684381
0.00067909
0.000580222
0.000587877
0.000594419
0.000600899
0.000607257
0.000613451
0.000619453
0.000625243
0.000630808
0.000636137
0.000641218
0.000646043
0.000650599
0.000654875
0.000658857
0.000662529
0.000665876
0.000668881
0.000671526
0.000673796
0.000675673
0.000677143
0.000678197
0.00067883
0.000679047
0.000678861
0.000678265
0.000677171
0.000675262
0.0006718
0.000665768
0.000659461
0.000567176
0.000574575
0.000580975
0.000587348
0.000593627
0.000599761
0.000605717
0.000611469
0.000617
0.000622296
0.000627345
0.000632137
0.000636659
0.000640899
0.000644845
0.000648481
0.000651792
0.000654763
0.000657378
0.000659621
0.000661477
0.000662933
0.00066398
0.000664613
0.000664832
0.000664625
0.00066394
0.000662583
0.00066004
0.000655231
0.000646758
0.000642791
0.000554603
0.000561686
0.000567878
0.000574087
0.000580238
0.000586275
0.000592155
0.000597849
0.000603332
0.000608589
0.000613603
0.000618361
0.000622852
0.00062706
0.000630974
0.000634579
0.00063786
0.000640803
0.000643391
0.000645612
0.00064745
0.000648894
0.000649933
0.000650562
0.000650768
0.00065052
0.000649712
0.000648064
0.000644934
0.000639078
0.000629164
0.000629964
0.000542632
0.000549359
0.000555283
0.000561262
0.000567221
0.000573102
0.000578858
0.000584452
0.000589857
0.000595049
0.00060001
0.000604724
0.000609175
0.000613349
0.00061723
0.000620804
0.000624057
0.000626973
0.000629538
0.000631738
0.000633561
0.000634993
0.000636024
0.000636643
0.000636828
0.000636523
0.000635585
0.00063369
0.000630198
0.000624078
0.000615683
0.000531291
0.000537681
0.000543317
0.00054902
0.000554731
0.000560395
0.000565966
0.000571405
0.000576681
0.000581767
0.000586641
0.000591282
0.000595672
0.000599794
0.000603631
0.000607166
0.000610384
0.00061327
0.000615809
0.000617988
0.000619793
0.000621212
0.000622232
0.000622837
0.000622994
0.00062263
0.000621583
0.000619543
0.000616031
0.000610723
0.00060605
0.000520406
0.000526578
0.000531987
0.000537434
0.000542882
0.000548294
0.000553632
0.000558863
0.000563957
0.000568884
0.000573623
0.000578149
0.000582442
0.000586482
0.000590249
0.000593725
0.000596893
0.000599736
0.000602239
0.000604387
0.000606168
0.000607567
0.000608571
0.000609156
0.000609283
0.000608867
0.000607754
0.000605703
0.000602518
0.000598778
0.000509538
0.000515728
0.000521086
0.000526395
0.00053165
0.00053684
0.000541947
0.00054695
0.000551827
0.000556556
0.000561113
0.000565479
0.000569632
0.00057355
0.000577213
0.000580599
0.000583691
0.000586469
0.000588916
0.000591019
0.000592762
0.000594131
0.000595109
0.000595669
0.000595766
0.000595317
0.000594191
0.000592259
0.000589643
0.000587614
0.000498007
0.000504534
0.000510125
0.000515532
0.000520777
0.000525875
0.000530837
0.000535661
0.000540343
0.000544872
0.000549234
0.000553414
0.000557394
0.000561157
0.00056468
0.000567945
0.00057093
0.000573616
0.000575986
0.000578022
0.000579711
0.000581035
0.000581977
0.000582507
0.000582577
0.000582114
0.000581031
0.000579317
0.000577357
0.000576711
0.000485076
0.000492235
0.000498385
0.000504205
0.000509721
0.000514966
0.000519973
0.000524765
0.000529359
0.000533761
0.000537972
0.000541989
0.000545804
0.000549404
0.000552774
0.000555898
0.000558757
0.000561331
0.000563604
0.000565558
0.000567177
0.000568446
0.000569342
0.000569837
0.000569886
0.000569431
0.000568433
0.000566992
0.000565647
0.000565832
0.000470308
0.000478195
0.00048512
0.000491636
0.000497729
0.00050342
0.000508747
0.000513747
0.000518454
0.000522893
0.000527083
0.000531034
0.000534752
0.000538236
0.000541483
0.000544483
0.000547223
0.000549689
0.000551865
0.000553735
0.000555283
0.000556492
0.000557341
0.000557802
0.000557837
0.000557407
0.000556524
0.000555366
0.000554516
0.000555059
0.000454023
0.000462341
0.000469953
0.000477237
0.000484085
0.000490463
0.00049638
0.000501862
0.000506942
0.000511655
0.000516031
0.000520093
0.000523861
0.000527346
0.000530559
0.000533507
0.000536183
0.000538582
0.000540694
0.000542507
0.000544006
0.000545171
0.000545984
0.00054642
0.000546451
0.000546062
0.000545302
0.000544399
0.000543891
0.000544475
0.000437656
0.000445604
0.000453346
0.000461068
0.000468533
0.000475607
0.000482227
0.00048837
0.000494042
0.000499263
0.000504058
0.000508454
0.000512473
0.000516137
0.000519468
0.000522491
0.000525213
0.000527634
0.000529756
0.000531574
0.000533076
0.000534238
0.000535043
0.000535475
0.000535518
0.000535178
0.000534534
0.000533829
0.00053351
0.00053394
0.000423787
0.000430116
0.000436931
0.000444264
0.000451746
0.000459122
0.000466223
0.000472946
0.000479235
0.000485063
0.000490427
0.000495333
0.000499794
0.000503824
0.000507449
0.000510708
0.000513619
0.000516189
0.000518428
0.000520343
0.000521927
0.000523147
0.00052399
0.00052445
0.000524525
0.000524238
0.000523689
0.000523107
0.000522835
0.000522995
0.000415758
0.000419002
0.000423485
0.000429175
0.00043561
0.000442423
0.000449342
0.000456164
0.000462747
0.000468994
0.000474845
0.000480262
0.000485225
0.000489723
0.000493762
0.000497388
0.000500616
0.000503455
0.00050592
0.000508025
0.000509773
0.000511117
0.00051205
0.000512575
0.000512702
0.00051247
0.000511984
0.000511449
0.000511103
0.000510921
0.000416935
0.000415779
0.000416482
0.000419085
0.000423109
0.00042813
0.000433793
0.00043981
0.000445953
0.000452045
0.000457953
0.000463579
0.00046885
0.00047371
0.000478122
0.000482116
0.00048569
0.000488843
0.000491582
0.000493922
0.000495875
0.000497381
0.000498438
0.000499056
0.000499251
0.00049907
0.000498618
0.000498066
0.000497565
0.000497013
0.000429525
0.000423406
0.000419295
0.000417545
0.000417806
0.000419682
0.000422797
0.000426817
0.000431452
0.000436458
0.000441633
0.000446813
0.000451869
0.00045669
0.000461181
0.000465324
0.000469087
0.000472443
0.000475375
0.000477887
0.000479992
0.00048163
0.000482799
0.000483505
0.000483767
0.000483633
0.0004832
0.000482603
0.000481929
0.000481049
0.000452297
0.000442604
0.000433908
0.000427334
0.000422956
0.000420594
0.000419964
0.000420766
0.000422702
0.000425498
0.000428907
0.000432716
0.000436743
0.000440833
0.000444832
0.000448651
0.000452213
0.000455454
0.000458327
0.0004608
0.000462875
0.000464515
0.000465709
0.000466452
0.000466756
0.000466663
0.000466257
0.000465643
0.000464865
0.000463798
0.000476298
0.00046848
0.000458371
0.00044855
0.000440043
0.000433267
0.000428292
0.000425024
0.000423276
0.000422818
0.000423415
0.00042484
0.000426886
0.00042937
0.000432108
0.000434923
0.000437693
0.000440319
0.000442713
0.000444798
0.00044654
0.000447958
0.000449017
0.000449692
0.000449982
0.000449922
0.000449582
0.00044904
0.000448318
0.00044731
0.000480366
0.000485338
0.000482106
0.000474778
0.000465796
0.00045671
0.000448398
0.000441325
0.000435673
0.000431434
0.00042851
0.000426744
0.000425954
0.000425969
0.000426629
0.000427684
0.000428983
0.000430392
0.000431795
0.000433074
0.000434132
0.000435049
0.000435761
0.000436224
0.000436426
0.000436392
0.000436178
0.000435845
0.000435405
0.000434776
0.000436968
0.000465923
0.000481742
0.000487817
0.000487088
0.000482129
0.000474922
0.000466915
0.000459059
0.000451906
0.000445751
0.000440699
0.000436717
0.000433727
0.000431672
0.000430342
0.000429574
0.000429216
0.000429144
0.000429233
0.000429322
0.000429482
0.000429633
0.000429733
0.000429766
0.000429751
0.000429733
0.000429761
0.000429847
0.00042993
0.000339055
0.000389489
0.000429724
0.000459076
0.000477989
0.000487997
0.000491137
0.000489487
0.000484859
0.000478647
0.000471867
0.000465189
0.000458972
0.00045339
0.000448617
0.000444781
0.000441737
0.000439354
0.000437547
0.00043626
0.000435334
0.000434606
0.000434049
0.00043367
0.00043347
0.000433469
0.000433705
0.000434219
0.00043502
0.000436062
0.000220391
0.000272557
0.000324264
0.000372101
0.00041307
0.00044537
0.000468647
0.000483613
0.000491667
0.00049444
0.000493496
0.00049016
0.000485382
0.000479776
0.000473852
0.000468671
0.000464155
0.000460273
0.000457084
0.000454732
0.000453275
0.000451832
0.000450615
0.000449763
0.000449324
0.000449332
0.000449827
0.000450837
0.00045236
0.000454348
0.000125307
0.000162205
0.000204869
0.000251565
0.000299574
0.000345732
0.000387346
0.000422435
0.000450091
0.000470405
0.000484108
0.000492294
0.00049608
0.000496321
0.000493621
0.000490696
0.000487531
0.000484326
0.000481424
0.000479357
0.000478828
0.000477477
0.000476095
0.000475057
0.000474513
0.000474531
0.000475153
0.000476389
0.000478201
0.000480495
6.82078e-05
8.85575e-05
0.000114336
0.000145869
0.000182775
0.000223743
0.000266939
0.000309974
0.000350526
0.000386815
0.000417634
0.000442459
0.000461351
0.000474455
0.000481534
0.000486798
0.000490116
0.000491913
0.000492854
0.000493927
0.000496955
0.000497491
0.000497202
0.000496784
0.000496525
0.000496554
0.000496918
0.000497592
0.000498465
0.000499339
3.88808e-05
4.89119e-05
6.20434e-05
7.89687e-05
0.00010026
0.000126134
0.00015651
0.000190635
0.000227246
0.000264844
0.0003017
0.000336175
0.000367061
0.000393232
0.000412998
0.000430111
0.000444027
0.000455023
0.000463735
0.000471266
0.000480227
0.00048495
0.000487586
0.000489028
0.000489678
0.000489721
0.000489206
0.000488067
0.000486113
0.000483043
2.44202e-05
2.93278e-05
3.57088e-05
4.39879e-05
5.46214e-05
6.80334e-05
8.4654e-05
0.000104671
0.00012801
0.000154364
0.000183006
0.000212865
0.000242854
0.000271637
0.000297461
0.000321473
0.000343004
0.000361804
0.000377977
0.000392076
0.000405601
0.000415016
0.000421342
0.000425285
0.000427198
0.000427251
0.000425486
0.000421839
0.000416133
0.000408106
1.70355e-05
1.95702e-05
2.27748e-05
2.68482e-05
3.20148e-05
3.85281e-05
4.66787e-05
5.67184e-05
6.88496e-05
8.32262e-05
9.98063e-05
0.000118313
0.000138385
0.000159389
0.000180452
0.000201307
0.000221419
0.000240281
0.000257536
0.000273051
0.00028686
0.000297831
0.000305821
0.000311052
0.000313656
0.000313705
0.000311227
0.000306215
0.000298634
0.000288436
1.61295e-05
1.82585e-05
2.08828e-05
2.41193e-05
2.80996e-05
3.2961e-05
3.88409e-05
4.58732e-05
5.41368e-05
6.36244e-05
7.43046e-05
8.60207e-05
0.00017137
0.000179894
0.000186399
0.000190786
0.000193005
0.000193037
0.000190897
0.00018663
0.00018032
0.000172085
0.001
0.001
0.001
0.001
0.001
0.001
0.001
0.001
0.001
0.001
0.001
0.001
0.001
0.001
0.001
0.001
0.001
0.001
0.001
0.001
0.001
0.001
0.001
0.001
0.001
0.001
0.001
0.001
0.001
0.001
0.001
0.001
0.001
0.001
0.001
0.001
0.001
0.001
0.001
0.001
0.001
0.001
0.001
0.001
0.001
0.001
0.001
0.001
0.001
0.001
0.001
0.001
0.001
0.001
0.001
0.001
0.001
0.001
0.001
0.001
0.001
0.001
0.001
0.001
0.001
0.001
0.001
0.001
0.001
0.001
0.001
0.001
0.001
0.001
0.001
0.001
0.001
0.001
0.001
0.001
0.001
0.001
0.001
0.001
0.001
0.001
0.001
0.001
0.001
0.001
0.001
0.001
0.001
0.001
0.001
0.001
0.001
0.001
0.001
0.001
0.001
0.001
0.001
0.001
0.001
0.001
0.001
0.001
0.001
0.001
0.001
0.001
0.001
0.001
0.001
0.001
0.001
0.001
0.001
0.001
0.001
0.001
0.001
0.001
0.001
0.001
0.001
0.001
0.001
0.001
0.001
0.001
0.001
0.001
0.001
0.001
0.001
0.001
0.001
0.001
0.001
0.001
0.001
0.001
0.001
0.001
0.001
0.001
0.001
0.001
0.001
0.001
0.001
0.001
0.001
0.001
0.001
0.001
0.001
0.001
0.001
0.001
0.001
0.001
0.001
0.001
0.001
0.001
0.001
0.001
0.001
0.001
0.001
0.001
0.001
0.001
0.001
0.001
0.001
0.001
0.001
0.001
0.001
0.001
0.001
0.001
0.001
0.001
0.001
0.001
0.001
0.001
0.001
0.001
0.001
0.001
0.001
0.001
0.001
0.001
0.001
0.001
0.001
0.001
0.001
0.001
0.001
0.001
0.001
0.001
0.001
0.001
0.001
0.001
0.001
0.001
0.001
0.001
0.001
0.001
0.001
0.001
0.001
0.001
0.001
0.001
0.001
0.001
0.001
0.001
0.001
0.001
0.001
0.001
0.001
0.001
0.001
0.001
0.001
0.001
0.001
0.001
0.001
0.001
0.001
0.001
0.001
0.001
0.001
0.001
0.001
0.001
0.001
0.001
0.001
0.001
0.001
0.001
0.001
0.001
0.001
0.001
0.001
0.001
0.001
0.001
0.001
0.001
0.001
0.001
0.001
0.001
0.001
0.001
0.001
0.001
0.001
0.001
0.001
0.001
0.001
0.001
0.001
0.001
0.001
0.001
0.001
0.001
0.001
0.001
0.001
0.001
0.001
0.001
0.001
0.001
0.001
0.001
0.001
0.001
0.001
0.001
0.001
0.001
0.001
0.001
0.001
0.001
0.001
0.001
0.001
0.001
0.001
0.001
0.001
0.001
0.001
0.001
0.001
0.001
0.001
0.001
0.001
0.001
0.001
0.001
0.001
0.001
0.001
0.001
0.001
0.001
0.001
0.001
0.001
0.001
0.001
0.001
0.001
0.001
0.001
0.001
0.001
0.001
0.001
0.001
0.001
0.001
0.001
0.001
0.001
0.001
0.001
0.001
0.001
0.001
0.001
0.001
0.001
0.001
0.001
0.001
0.001
0.001
0.001
0.001
0.001
0.001
0.001
0.001
0.001
0.001
0.001
0.001
0.001
0.001
0.001
0.001
0.001
0.001
0.001
0.001
0.001
0.001
0.001
0.001
0.001
0.001
0.001
0.001
0.001
0.001
0.001
0.001
0.001
0.001
0.001
0.001
0.001
0.001
0.001
0.001
0.001
0.001
0.001
0.001
0.001
0.001
0.001
0.001
0.001
0.001
0.001
0.001
0.001
0.001
0.001
0.001
0.001
0.001
0.001
0.001
0.001
0.001
0.001
0.001
0.001
0.001
0.001
0.001
0.001
0.001
0.001
0.001
0.001
0.001
0.001
0.001
0.001
0.001
0.001
0.001
0.001
0.001
0.001
0.001
0.001
0.001
0.001
0.001
0.001
0.001
0.001
0.001
0.001
0.001
0.001
0.001
0.001
0.001
0.001
0.001
0.001
0.001
0.001
0.001
0.001
0.001
0.001
0.001
0.001
0.001
0.001
0.001
0.001
0.001
0.001
0.001
0.001
0.001
0.001
0.001
0.001
0.001
0.001
0.001
0.001
0.001
0.001
0.001
0.001
0.001
0.001
0.001
0.001
0.001
0.001
0.001
0.001
0.001
0.001
0.001
0.001
0.001
0.001
0.001
0.001
0.001
0.001
0.001
0.001
0.001
0.001
0.001
0.001
0.001
0.001
0.001
0.001
0.001
0.001
0.001
0.001
0.001
0.001
0.001
0.001
0.001
0.001
0.001
0.001
0.001
0.001
0.001
0.001
0.001
0.001
0.001
0.001
0.001
0.001
0.001
0.001
0.001
0.001
0.001
0.001
0.001
0.001
0.001
0.001
0.001
0.001
0.001
0.001
0.001
0.001
0.001
0.001
0.001
0.001
0.001
0.001
0.001
0.001
0.001
0.001
0.001
0.001
0.001
0.001
0.001
0.001
0.001
0.001
0.001
0.001
0.001
0.001
0.001
0.001
0.001
0.001
0.001
0.001
0.001
0.001
0.001
0.001
0.001
0.001
0.001
0.001
0.001
0.001
0.001
0.001
0.001
0.001
0.001
0.001
0.001
0.001
0.001
0.001
0.001
0.001
0.001
0.001
0.001
0.001
0.001
0.001
0.001
0.001
0.001
0.001
0.001
0.001
0.001
0.001
0.001
0.001
0.001
0.001
0.001
0.001
0.001
0.001
0.001
0.001
0.001
0.001
0.001
0.001
0.001
0.001
0.001
0.001
0.001
0.001
0.001
0.001
0.001
0.001
0.001
0.001
0.001
0.001
0.001
0.001
0.001
0.001
0.001
0.001
0.001
0.001
0.001
0.001
0.001
0.001
0.001
0.001
0.001
0.001
0.001
0.001
0.001
0.001
0.001
0.001
0.001
0.001
0.001
0.001
0.001
0.001
0.001
0.001
0.001
0.001
0.001
0.001
0.001
0.001
0.001
0.001
0.001
0.001
0.001
0.001
0.001
0.001
0.001
0.001
0.001
0.001
0.001
0.001
0.001
0.001
0.001
0.001
0.001
0.001
0.001
0.001
0.001
0.001
0.001
0.001
0.001
0.001
0.001
0.001
0.001
0.001
0.001
0.001
0.001
0.001
0.001
0.001
0.001
0.001
0.001
0.001
0.001
0.001
0.001
0.001
0.001
0.001
0.001
0.001
0.001
0.001
0.001
0.001
0.001
0.001
0.001
0.001
0.001
0.001
0.001
0.001
0.001
0.001
0.001
0.001
0.001
0.001
0.001
0.001
0.001
0.001
0.001
0.001
0.001
0.001
0.001
0.001
0.001
0.001
0.001
0.001
0.001
0.001
0.001
0.001
0.001
0.001
0.001
0.001
0.001
0.001
0.001
0.001
0.001
0.001
0.001
0.001
0.001
0.001
0.001
0.001
0.001
0.001
0.001
0.001
0.001
0.001
0.001
0.001
0.001
0.001
0.001
0.001
0.001
0.001
0.001
0.001
0.001
0.001
0.001
0.001
0.001
0.001
0.001
0.001
0.001
0.001
0.001
0.001
0.001
0.001
0.001
0.001
0.001
0.001
0.001
0.001
0.001
0.001
0.001
0.001
0.001
0.001
0.001
0.001
0.001
0.001
0.001
0.001
0.001
0.001
0.001
0.001
0.001
0.001
0.001
0.001
0.001
0.001
0.001
0.001
0.001
0.001
0.001
0.001
0.001
0.001
0.001
0.001
0.001
0.001
0.001
0.001
0.001
0.001
0.001
0.001
0.001
0.001
0.001
0.001
0.001
0.001
0.001
0.001
0.001
0.001
0.001
0.001
0.001
0.001
0.001
0.001
0.001
0.001
0.001
0.001
0.001
0.001
0.001
0.001
0.001
0.001
0.001
0.001
0.001
0.001
0.001
0.001
0.000993527
0.001
0.001
0.001
0.001
0.001
0.001
0.001
0.001
0.001
0.001
0.001
0.001
0.001
0.001
0.001
0.001
0.001
0.001
0.001
0.001
0.001
0.001
0.001
0.001
0.001
0.001
0.001
0.001
0.001
0.001
0.001
0.001
0.001
0.001
0.001
0.001
0.001
0.001
0.001
0.001
0.001
0.001
0.001
0.000999467
0.000996675
0.000992878
0.000981721
0.00099044
0.000995218
0.000998425
0.001
0.001
0.001
0.001
0.001
0.001
0.001
0.001
0.001
0.001
0.001
0.001
0.001
0.001
0.001
0.001
0.001
0.001
0.001
0.001
0.001
0.001
0.001
0.001
0.001
0.001
0.001
0.001
0.001
0.001
0.001
0.001
0.001
0.001
0.001
0.001
0.001
0.000998891
0.000996065
0.00099299
0.00098949
0.000985113
0.0009794
0.000967318
0.000973377
0.000982137
0.0009877
0.000991663
0.000994783
0.000997585
0.001
0.001
0.001
0.001
0.001
0.001
0.001
0.001
0.001
0.001
0.001
0.001
0.001
0.001
0.001
0.001
0.001
0.001
0.001
0.001
0.001
0.001
0.001
0.001
0.001
0.001
0.001
0.001
0.001
0.001
0.001
0.000998718
0.000995822
0.000992591
0.000988909
0.000984776
0.000980368
0.00097555
0.000970141
0.000963506
0.000951544
0.000952091
0.000964859
0.000972781
0.000978378
0.000982964
0.000987034
0.000990787
0.000993943
0.000996759
0.000999276
0.001
0.001
0.001
0.001
0.001
0.001
0.001
0.001
0.001
0.001
0.001
0.001
0.001
0.001
0.001
0.001
0.001
0.001
0.001
0.001
0.001
0.001
0.001
0.001
0.000998312
0.000995569
0.000992445
0.000988762
0.000984548
0.000980011
0.000975264
0.000970426
0.000965344
0.000959863
0.000953803
0.000946753
0.000935075
0.000929245
0.000945421
0.000955693
0.000962755
0.000968291
0.000973088
0.000977565
0.000981928
0.000985946
0.000989631
0.000992727
0.00099533
0.00099762
0.000999579
0.001
0.001
0.001
0.001
0.001
0.001
0.001
0.001
0.001
0.001
0.001
0.001
0.001
0.001
0.001
0.001
0.000998985
0.000996898
0.000994487
0.000991689
0.000988242
0.000984275
0.00097989
0.000975202
0.00097033
0.000965236
0.000960029
0.000954773
0.000949287
0.000943406
0.000936951
0.000929715
0.000918288
0.00090679
0.000924995
0.000937366
0.000945883
0.000952294
0.000957658
0.00096258
0.000967398
0.000971953
0.000976232
0.000980288
0.000983972
0.000987257
0.000990129
0.000992387
0.000994186
0.000995683
0.000996925
0.000997919
0.000998661
0.000999146
0.000999371
0.000999335
0.000999037
0.000998479
0.000997665
0.000996598
0.00099528
0.000993696
0.000991767
0.000989285
0.000986253
0.0009828
0.000978889
0.000974648
0.000970091
0.000965192
0.000960087
0.000954876
0.00094952
0.000944078
0.000938551
0.000932786
0.000926632
0.000919938
0.000912609
0.000901389
0.000865296
0.000885074
0.000904148