/*--------------------------------*- C++ -*----------------------------------*\
  =========                 |
  \\      /  F ield         | OpenFOAM: The Open Source CFD Toolbox
   \\    /   O peration     | Website:  https://openfoam.org
    \\  /    A nd           | Version:  7
     \\/     M anipulation  |
\*---------------------------------------------------------------------------*/
FoamFile
{
    version     2.0;
    format      ascii;
    class       volVectorField;
    location    "240000";
    object      U;
}
// * * * * * * * * * * * * * * * * * * * * * * * * * * * * * * * * * * * * * //

dimensions      [0 1 -1 0 0 0 0];

internalField   nonuniform List<vector> 
4782
(
(1.11371e-18 7.47125e-19 -0.00984692)
(1.16349e-18 6.26934e-19 -0.00975548)
(1.20069e-18 5.92757e-19 -0.00966204)
(1.186e-18 6.75137e-19 -0.00956649)
(1.15423e-18 7.93307e-19 -0.00946871)
(1.17392e-18 8.00259e-19 -0.00936859)
(1.29091e-18 6.69444e-19 -0.009266)
(1.34515e-18 6.22795e-19 -0.00916081)
(1.31385e-18 6.99342e-19 -0.00905285)
(1.2839e-18 7.84009e-19 -0.00894199)
(-2.27504e-20 6.73181e-19 -0.012788)
(4.16591e-19 2.66628e-19 -0.0127363)
(6.05125e-19 1.70367e-19 -0.0126843)
(5.39396e-19 3.40436e-19 -0.0126318)
(4.57333e-19 5.05543e-19 -0.012579)
(2.20219e-19 8.21953e-19 -0.0125257)
(-8.24037e-20 1.25849e-18 -0.012472)
(-1.07122e-19 1.34326e-18 -0.0124179)
(-9.75949e-21 1.26318e-18 -0.0123633)
(9.36262e-20 1.13316e-18 -0.0123082)
(3.1575e-19 8.43654e-19 -0.0122527)
(4.85473e-19 6.21062e-19 -0.0121967)
(5.05927e-19 5.84319e-19 -0.0121401)
(4.51338e-19 6.43689e-19 -0.012083)
(4.40413e-19 6.85927e-19 -0.0120254)
(5.06272e-19 6.56421e-19 -0.0119671)
(6.28817e-19 5.64922e-19 -0.0119083)
(7.32122e-19 4.88603e-19 -0.0118488)
(8.7418e-19 3.36506e-19 -0.0117887)
(1.07019e-18 1.15753e-19 -0.011728)
(1.251e-18 -1.37027e-19 -0.0116666)
(1.11029e-18 -6.57627e-21 -0.0116045)
(6.27999e-19 5.90735e-19 -0.0115417)
(2.77881e-19 1.01949e-18 -0.0114781)
(2.57579e-19 1.02233e-18 -0.0114138)
(4.8386e-19 7.24082e-19 -0.0113487)
(7.80941e-19 3.27075e-19 -0.0112828)
(9.55888e-19 9.80511e-20 -0.0112161)
(9.54991e-19 1.42943e-19 -0.0111484)
(9.32292e-19 2.13107e-19 -0.0110799)
(1.04169e-18 1.18737e-19 -0.0110104)
(1.23743e-18 -8.74467e-20 -0.01094)
(1.30756e-18 -1.32529e-19 -0.0108685)
(1.15498e-18 9.77559e-20 -0.0107959)
(1.03266e-18 2.71216e-19 -0.0107223)
(1.11849e-18 1.81132e-19 -0.0106475)
(1.20314e-18 1.26416e-19 -0.0105715)
(1.13739e-18 2.57972e-19 -0.0104942)
(1.09163e-18 3.14223e-19 -0.0104156)
(1.11174e-18 2.57094e-19 -0.0103357)
(1.06456e-18 2.99828e-19 -0.0102543)
(9.58508e-19 4.05752e-19 -0.0101714)
(9.11196e-19 4.28954e-19 -0.0100869)
(7.94462e-19 5.50072e-19 -0.0100008)
(6.02588e-19 7.95716e-19 -0.00991293)
(5.47639e-19 8.81717e-19 -0.00982325)
(7.42503e-19 6.46184e-19 -0.00973166)
(9.83104e-19 3.17543e-19 -0.00963806)
(1.00251e-18 2.71474e-19 -0.00954234)
(8.03574e-19 5.0684e-19 -0.00944439)
(6.13993e-19 7.40166e-19 -0.00934409)
(4.97465e-19 8.52901e-19 -0.00924132)
(4.74709e-19 8.11463e-19 -0.00913593)
(6.09593e-19 5.61112e-19 -0.00902778)
(6.37034e-19 4.64597e-19 -0.00891672)
(2.55377e-19 1.11643e-18 -0.0127674)
(1.37607e-19 1.13614e-18 -0.0127157)
(5.45094e-22 1.11173e-18 -0.0126636)
(1.38971e-20 9.56491e-19 -0.0126112)
(8.74341e-20 7.34113e-19 -0.0125583)
(7.66271e-20 6.58573e-19 -0.0125049)
(4.04624e-20 7.44053e-19 -0.0124512)
(9.09039e-20 8.44598e-19 -0.012397)
(6.98526e-20 9.8145e-19 -0.0123424)
(-8.60764e-21 1.14871e-18 -0.0122873)
(-1.00546e-19 1.25303e-18 -0.0122317)
(-1.2172e-19 1.22454e-18 -0.0121756)
(-9.22536e-20 1.1283e-18 -0.012119)
(4.62596e-20 9.67817e-19 -0.0120618)
(3.00373e-19 7.27947e-19 -0.0120041)
(4.22018e-19 6.68415e-19 -0.0119458)
(2.90759e-19 9.00406e-19 -0.0118869)
(1.91426e-20 1.28515e-18 -0.0118273)
(-8.50107e-20 1.42925e-18 -0.0117672)
(-6.70117e-20 1.39239e-18 -0.0117063)
(-1.21135e-19 1.43177e-18 -0.0116449)
(-2.04003e-19 1.50376e-18 -0.0115827)
(-2.56029e-19 1.58931e-18 -0.0115198)
(-1.80234e-19 1.58472e-18 -0.0114562)
(5.21715e-20 1.39224e-18 -0.0113918)
(1.84097e-19 1.29475e-18 -0.0113266)
(2.42661e-19 1.22371e-18 -0.0112606)
(5.44117e-19 8.30443e-19 -0.0111938)
(8.24258e-19 4.67021e-19 -0.0111261)
(8.04285e-19 5.02722e-19 -0.0110574)
(7.21857e-19 6.11177e-19 -0.0109879)
(7.41237e-19 5.70646e-19 -0.0109173)
(6.91847e-19 5.77388e-19 -0.0108457)
(5.32391e-19 7.34372e-19 -0.0107731)
(5.51737e-19 6.93327e-19 -0.0106993)
(8.05756e-19 3.83524e-19 -0.0106244)
(8.91727e-19 2.81323e-19 -0.0105483)
(7.02317e-19 5.07386e-19 -0.0104709)
(4.62307e-19 7.91821e-19 -0.0103922)
(4.01201e-19 8.49468e-19 -0.0103121)
(4.72209e-19 7.40456e-19 -0.0102306)
(5.28779e-19 6.55215e-19 -0.0101475)
(5.08204e-19 6.56325e-19 -0.0100629)
(5.72004e-19 5.57929e-19 -0.00997664)
(7.86691e-19 3.13573e-19 -0.00988863)
(9.21423e-19 1.76682e-19 -0.00979879)
(8.3983e-19 2.94803e-19 -0.00970704)
(6.68283e-19 4.76556e-19 -0.00961327)
(6.15276e-19 5.04935e-19 -0.00951737)
(6.11743e-19 4.70227e-19 -0.00941924)
(5.37563e-19 5.49783e-19 -0.00931876)
(3.13956e-19 8.30674e-19 -0.00921579)
(1.71615e-19 1.02729e-18 -0.0091102)
(2.33064e-19 9.63583e-19 -0.00900185)
(3.97549e-19 7.55229e-19 -0.00889058)
(-1.01602e-18 1.48044e-18 -0.0127463)
(-1.01076e-18 1.51689e-18 -0.0126946)
(-8.67357e-19 1.37173e-18 -0.0126424)
(-7.48843e-19 1.23392e-18 -0.0125899)
(-7.36116e-19 1.19606e-18 -0.012537)
(-5.10865e-19 8.99859e-19 -0.0124836)
(-6.82917e-20 4.04677e-19 -0.0124298)
(1.1509e-19 2.68236e-19 -0.0123756)
(-9.3592e-20 6.01612e-19 -0.0123209)
(-3.57649e-19 1.00077e-18 -0.0122657)
(-4.87222e-19 1.24071e-18 -0.0122101)
(-4.0141e-19 1.2423e-18 -0.0121539)
(-4.89477e-20 9.60288e-19 -0.0120973)
(4.83232e-19 4.87191e-19 -0.01204)
(7.96209e-19 2.31582e-19 -0.0119822)
(8.00942e-19 2.83538e-19 -0.0119238)
(7.31596e-19 4.3743e-19 -0.0118648)
(6.53124e-19 6.26572e-19 -0.0118052)
(6.35844e-19 7.73031e-19 -0.011745)
(7.33768e-19 7.77524e-19 -0.0116841)
(9.31209e-19 6.59574e-19 -0.0116225)
(1.06138e-18 5.96889e-19 -0.0115603)
(1.10651e-18 6.28355e-19 -0.0114973)
(1.11001e-18 7.29662e-19 -0.0114336)
(1.04841e-18 9.14223e-19 -0.0113691)
(9.06805e-19 1.15858e-18 -0.0113039)
(8.9636e-19 1.24715e-18 -0.0112378)
(1.06362e-18 1.1281e-18 -0.0111709)
(1.22515e-18 9.76691e-19 -0.011103)
(1.31913e-18 8.8326e-19 -0.0110343)
(1.30204e-18 9.1024e-19 -0.0109647)
(1.21167e-18 1.00152e-18 -0.010894)
(1.193e-18 1.02925e-18 -0.0108223)
(1.24418e-18 9.95074e-19 -0.0107495)
(1.35748e-18 8.92473e-19 -0.0106757)
(1.57219e-18 6.4112e-19 -0.0106006)
(1.60432e-18 5.8511e-19 -0.0105244)
(1.45987e-18 7.45606e-19 -0.0104469)
(1.38096e-18 8.47486e-19 -0.010368)
(1.3821e-18 8.55752e-19 -0.0102878)
(1.38027e-18 8.48301e-19 -0.0102062)
(1.30598e-18 9.24009e-19 -0.010123)
(1.28484e-18 9.50895e-19 -0.0100382)
(1.45968e-18 7.78363e-19 -0.00995179)
(1.57226e-18 6.7081e-19 -0.00986362)
(1.53933e-18 7.20384e-19 -0.00977362)
(1.41372e-18 8.52642e-19 -0.00968169)
(1.34336e-18 9.241e-19 -0.00958774)
(1.3119e-18 9.45041e-19 -0.00949166)
(1.29539e-18 9.47013e-19 -0.00939334)
(1.43815e-18 7.68203e-19 -0.00929266)
(1.57604e-18 6.05003e-19 -0.00918949)
(1.59771e-18 5.95654e-19 -0.00908369)
(1.57239e-18 6.49e-19 -0.00897512)
(1.60407e-18 6.25878e-19 -0.00886363)
(3.2172e-19 1.01937e-18 -0.0127247)
(2.76168e-19 1.16615e-18 -0.0126729)
(1.99774e-19 1.36712e-18 -0.0126207)
(1.85527e-19 1.47032e-18 -0.0125682)
(2.95466e-19 1.43896e-18 -0.0125152)
(5.8492e-19 1.17276e-18 -0.0124618)
(8.8696e-19 8.23709e-19 -0.012408)
(9.36342e-19 6.79048e-19 -0.0123537)
(7.89072e-19 7.6441e-19 -0.0122989)
(6.61956e-19 9.05039e-19 -0.0122437)
(6.72395e-19 9.76241e-19 -0.012188)
(9.20276e-19 8.09011e-19 -0.0121318)
(1.21291e-18 5.30358e-19 -0.012075)
(1.23894e-18 4.74678e-19 -0.0120177)
(1.00997e-18 6.62085e-19 -0.0119598)
(8.84586e-19 7.77272e-19 -0.0119013)
(8.61632e-19 8.26497e-19 -0.0118422)
(7.73902e-19 9.62972e-19 -0.0117826)
(7.66416e-19 1.03109e-18 -0.0117222)
(7.68603e-19 1.10472e-18 -0.0116613)
(6.10747e-19 1.34372e-18 -0.0115996)
(4.1455e-19 1.60623e-18 -0.0115373)
(4.21284e-19 1.63645e-18 -0.0114743)
(5.73785e-19 1.48658e-18 -0.0114105)
(6.4478e-19 1.43251e-18 -0.0113459)
(5.9188e-19 1.5324e-18 -0.0112806)
(6.66835e-19 1.51006e-18 -0.0112144)
(8.07348e-19 1.37043e-18 -0.0111474)
(8.20757e-19 1.35428e-18 -0.0110795)
(6.51168e-19 1.54544e-18 -0.0110107)
(4.18077e-19 1.82022e-18 -0.0109409)
(4.69268e-19 1.79715e-18 -0.0108701)
(6.87529e-19 1.60377e-18 -0.0107983)
(6.92647e-19 1.64795e-18 -0.0107255)
(6.12114e-19 1.80316e-18 -0.0106515)
(6.74386e-19 1.79936e-18 -0.0105763)
(7.93219e-19 1.69894e-18 -0.0104999)
(8.0473e-19 1.724e-18 -0.0104223)
(6.75788e-19 1.91278e-18 -0.0103433)
(5.28458e-19 2.12132e-18 -0.010263)
(5.38857e-19 2.15381e-18 -0.0101812)
(7.30413e-19 1.99333e-18 -0.0100978)
(9.96262e-19 1.75659e-18 -0.0100129)
(1.22077e-18 1.5453e-18 -0.00992633)
(1.3369e-18 1.40517e-18 -0.00983799)
(1.24189e-18 1.4862e-18 -0.00974781)
(9.98496e-19 1.72984e-18 -0.0096557)
(8.18112e-19 1.93689e-18 -0.00956156)
(7.47185e-19 2.03401e-18 -0.00946529)
(7.80174e-19 2.02291e-18 -0.00936677)
(8.00649e-19 2.01888e-18 -0.00926588)
(8.00568e-19 2.02597e-18 -0.0091625)
(8.75897e-19 1.94742e-18 -0.00905648)
(9.2627e-19 1.88946e-18 -0.00894769)
(9.66025e-19 1.83111e-18 -0.00883596)
(-7.32052e-19 1.19548e-18 -0.0127247)
(-7.05311e-19 1.22443e-18 -0.0126729)
(-5.52888e-19 1.17228e-18 -0.0126207)
(-4.20426e-19 1.18427e-18 -0.0125682)
(-4.00484e-19 1.29608e-18 -0.0125152)
(-4.34391e-19 1.43174e-18 -0.0124618)
(-4.96782e-19 1.53671e-18 -0.012408)
(-6.32407e-19 1.64417e-18 -0.0123537)
(-5.76352e-19 1.60363e-18 -0.0122989)
(-2.32446e-19 1.34161e-18 -0.0122437)
(1.02934e-19 1.1378e-18 -0.012188)
(4.86409e-20 1.28097e-18 -0.0121318)
(-2.16313e-19 1.55601e-18 -0.012075)
(-2.37638e-19 1.55411e-18 -0.0120177)
(4.47131e-20 1.24056e-18 -0.0119598)
(4.26154e-19 8.32045e-19 -0.0119013)
(5.79118e-19 6.28597e-19 -0.0118422)
(6.02761e-19 5.88746e-19 -0.0117826)
(7.01859e-19 5.06127e-19 -0.0117222)
(7.66415e-19 4.46484e-19 -0.0116613)
(7.5963e-19 4.35166e-19 -0.0115996)
(7.2264e-19 4.57722e-19 -0.0115373)
(6.04813e-19 5.69777e-19 -0.0114743)
(4.84204e-19 6.65063e-19 -0.0114105)
(4.6058e-19 6.44415e-19 -0.0113459)
(4.39084e-19 6.28053e-19 -0.0112806)
(2.22637e-19 8.03754e-19 -0.0112144)
(2.04444e-20 9.6284e-19 -0.0111474)
(1.20777e-19 8.34765e-19 -0.0110795)
(3.28191e-19 6.19464e-19 -0.0110107)
(4.64886e-19 5.09085e-19 -0.0109409)
(5.34386e-19 4.90094e-19 -0.0108701)
(6.23228e-19 4.35664e-19 -0.0107983)
(8.15288e-19 2.67671e-19 -0.0107255)
(1.01566e-18 9.59505e-20 -0.0106515)
(1.00764e-18 1.03294e-19 -0.0105763)
(8.89334e-19 1.94156e-19 -0.0104999)
(8.57108e-19 1.99444e-19 -0.0104223)
(8.26651e-19 2.20257e-19 -0.0103433)
(7.71368e-19 2.79685e-19 -0.010263)
(7.41242e-19 3.2106e-19 -0.0101812)
(6.92902e-19 3.71362e-19 -0.0100978)
(5.45819e-19 4.97351e-19 -0.0100129)
(2.45496e-19 7.43067e-19 -0.00992633)
(-2.54035e-20 9.32951e-19 -0.00983799)
(-9.38684e-20 9.25696e-19 -0.00974781)
(3.79247e-20 7.61362e-19 -0.0096557)
(2.52981e-19 5.34042e-19 -0.00956156)
(2.94295e-19 4.80616e-19 -0.00946529)
(2.60593e-19 5.09455e-19 -0.00936677)
(2.93811e-19 4.65661e-19 -0.00926588)
(3.23831e-19 4.13383e-19 -0.0091625)
(2.63172e-19 4.40108e-19 -0.00905648)
(9.65199e-20 5.60165e-19 -0.00894769)
(-4.40031e-21 6.17816e-19 -0.00883596)
(2.4275e-19 7.07562e-19 -0.0127463)
(2.30775e-19 6.95245e-19 -0.0126946)
(3.9601e-19 5.69078e-19 -0.0126424)
(5.57879e-19 4.62958e-19 -0.0125899)
(5.63358e-19 4.88532e-19 -0.012537)
(5.41657e-19 5.49698e-19 -0.0124836)
(4.02205e-19 7.37155e-19 -0.0124298)
(3.58744e-19 8.40484e-19 -0.0123756)
(5.05467e-19 7.68503e-19 -0.0123209)
(7.71324e-19 5.76945e-19 -0.0122657)
(1.0085e-18 4.16112e-19 -0.0122101)
(9.89625e-19 4.81816e-19 -0.0121539)
(7.58695e-19 7.65208e-19 -0.0120973)
(3.5028e-19 1.22883e-18 -0.01204)
(-4.12449e-20 1.66245e-18 -0.0119822)
(-1.42568e-19 1.79502e-18 -0.0119238)
(1.25672e-19 1.58012e-18 -0.0118648)
(4.45345e-19 1.32431e-18 -0.0118052)
(5.296e-19 1.27003e-18 -0.011745)
(3.84735e-19 1.40751e-18 -0.0116841)
(1.54011e-19 1.61556e-18 -0.0116225)
(7.97322e-20 1.70082e-18 -0.0115603)
(9.96866e-20 1.72781e-18 -0.0114973)
(3.81656e-20 1.83194e-18 -0.0114336)
(3.58374e-20 1.8766e-18 -0.0113691)
(1.46403e-19 1.82357e-18 -0.0113039)
(3.18787e-19 1.72222e-18 -0.0112378)
(4.39082e-19 1.68266e-18 -0.0111709)
(4.8811e-19 1.65479e-18 -0.011103)
(6.46917e-19 1.50187e-18 -0.0110343)
(8.53244e-19 1.31905e-18 -0.0109647)
(9.7292e-19 1.21372e-18 -0.010894)
(9.44248e-19 1.2384e-18 -0.0108223)
(8.33619e-19 1.34691e-18 -0.0107495)
(6.37896e-19 1.50894e-18 -0.0106757)
(4.28789e-19 1.63864e-18 -0.0106006)
(3.48081e-19 1.6372e-18 -0.0105244)
(4.04788e-19 1.51905e-18 -0.0104469)
(4.75907e-19 1.4115e-18 -0.010368)
(4.35478e-19 1.3998e-18 -0.0102878)
(3.93296e-19 1.39723e-18 -0.0102062)
(3.89135e-19 1.36593e-18 -0.010123)
(3.61213e-19 1.36514e-18 -0.0100382)
(2.16253e-19 1.47825e-18 -0.00995179)
(1.15883e-19 1.56845e-18 -0.00986362)
(2.67459e-19 1.43727e-18 -0.00977362)
(4.38462e-19 1.2827e-18 -0.00968169)
(5.00806e-19 1.21587e-18 -0.00958774)
(6.50894e-19 1.06292e-18 -0.00949166)
(7.31553e-19 9.69641e-19 -0.00939334)
(5.97548e-19 1.06485e-18 -0.00929266)
(4.93145e-19 1.12727e-18 -0.00918949)
(5.29971e-19 1.06843e-18 -0.00908369)
(5.97867e-19 9.99695e-19 -0.00897512)
(6.16413e-19 9.9294e-19 -0.00886363)
(5.82425e-19 1.03669e-18 -0.00874904)
(6.63907e-19 9.84389e-19 -0.00863118)
(8.82855e-19 8.02069e-19 -0.00850985)
(1.03372e-18 6.6391e-19 -0.00838486)
(-8.71039e-19 2.08872e-18 -0.0127674)
(-7.75473e-19 2.02962e-18 -0.0127157)
(-4.11684e-19 1.77142e-18 -0.0126636)
(-2.43796e-19 1.60998e-18 -0.0126112)
(-2.10556e-19 1.56812e-18 -0.0125583)
(-1.06194e-19 1.47925e-18 -0.0125049)
(-9.47783e-20 1.45655e-18 -0.0124512)
(-3.49678e-19 1.66126e-18 -0.012397)
(-4.96982e-19 1.78656e-18 -0.0123424)
(-2.52492e-19 1.58673e-18 -0.0122873)
(1.16055e-19 1.2809e-18 -0.0122317)
(2.78948e-19 1.16027e-18 -0.0121756)
(3.67717e-19 1.10591e-18 -0.012119)
(4.52346e-19 1.07071e-18 -0.0120618)
(3.96301e-19 1.15662e-18 -0.0120041)
(3.43882e-19 1.25772e-18 -0.0119458)
(3.79139e-19 1.28092e-18 -0.0118869)
(4.57633e-19 1.2365e-18 -0.0118273)
(5.62566e-19 1.15068e-18 -0.0117672)
(6.0247e-19 1.10817e-18 -0.0117063)
(6.51937e-19 1.04999e-18 -0.0116449)
(8.1495e-19 9.10383e-19 -0.0115827)
(8.83246e-19 8.65224e-19 -0.0115198)
(7.89451e-19 9.91556e-19 -0.0114562)
(7.61231e-19 1.08209e-18 -0.0113918)
(8.08029e-19 1.10567e-18 -0.0113266)
(7.41246e-19 1.18602e-18 -0.0112606)
(3.02995e-19 1.52193e-18 -0.0111938)
(-1.24202e-19 1.83985e-18 -0.0111261)
(-2.81957e-20 1.73803e-18 -0.0110574)
(1.89512e-19 1.52461e-18 -0.0109879)
(2.42103e-19 1.41568e-18 -0.0109173)
(3.92268e-19 1.20982e-18 -0.0108457)
(5.08298e-19 1.05885e-18 -0.0107731)
(2.26171e-19 1.23992e-18 -0.0106993)
(-2.38272e-19 1.59563e-18 -0.0106244)
(-4.5711e-19 1.75671e-18 -0.0105483)
(-2.58311e-19 1.58633e-18 -0.0104709)
(-8.71577e-20 1.44045e-18 -0.0103922)
(-6.53332e-20 1.41811e-18 -0.0103121)
(2.41452e-20 1.33867e-18 -0.0102306)
(1.4165e-19 1.25356e-18 -0.0101475)
(2.13139e-19 1.19997e-18 -0.0100629)
(1.72724e-19 1.23769e-18 -0.00997664)
(7.59177e-20 1.35204e-18 -0.00988863)
(1.5662e-20 1.45336e-18 -0.00979879)
(7.99096e-20 1.42882e-18 -0.00970704)
(2.06052e-19 1.34401e-18 -0.00961327)
(2.0784e-19 1.34116e-18 -0.00951737)
(1.86343e-19 1.33974e-18 -0.00941924)
(1.85405e-19 1.33027e-18 -0.00931876)
(2.35554e-19 1.29264e-18 -0.00921579)
(4.12956e-19 1.15243e-18 -0.0091102)
(6.10524e-19 9.87986e-19 -0.00900185)
(7.36267e-19 8.77504e-19 -0.00889058)
(8.52014e-19 7.82153e-19 -0.00877621)
(9.43363e-19 7.19972e-19 -0.00865858)
(9.22926e-19 7.43092e-19 -0.0085375)
(8.45598e-19 7.90132e-19 -0.00841275)
(8.60536e-19 7.44956e-19 -0.00828412)
(-4.5139e-19 3.57001e-19 -0.012788)
(-3.73553e-19 3.9159e-19 -0.0127363)
(-4.10212e-19 4.59312e-19 -0.0126843)
(-4.56617e-19 4.81962e-19 -0.0126318)
(-3.79047e-19 4.28226e-19 -0.012579)
(-4.19673e-19 4.93837e-19 -0.0125257)
(-5.14206e-19 6.33443e-19 -0.012472)
(-4.4696e-19 6.80985e-19 -0.0124179)
(-3.43652e-19 7.48817e-19 -0.0123633)
(-1.61786e-19 7.48603e-19 -0.0123082)
(2.12823e-19 5.79979e-19 -0.0122527)
(3.93989e-19 5.26857e-19 -0.0121967)
(2.90612e-19 6.90175e-19 -0.0121401)
(-1.13129e-20 9.878e-19 -0.012083)
(-2.86827e-19 1.26169e-18 -0.0120254)
(-3.51696e-19 1.36848e-18 -0.0119671)
(-3.1973e-19 1.4061e-18 -0.0119083)
(-3.05992e-19 1.46169e-18 -0.0118488)
(-3.81586e-19 1.58589e-18 -0.0117887)
(-6.21167e-19 1.81838e-18 -0.011728)
(-8.49618e-19 2.01182e-18 -0.0116666)
(-7.71461e-19 1.9322e-18 -0.0116045)
(-4.13927e-19 1.622e-18 -0.0115417)
(-1.67488e-19 1.39985e-18 -0.0114781)
(-1.63984e-19 1.3806e-18 -0.0114138)
(-3.83613e-19 1.53264e-18 -0.0113487)
(-7.69928e-19 1.82545e-18 -0.0112828)
(-1.02812e-18 2.02329e-18 -0.0112161)
(-9.85836e-19 2.03431e-18 -0.0111484)
(-8.51772e-19 1.97856e-18 -0.0110799)
(-9.08704e-19 2.04924e-18 -0.0110104)
(-1.07854e-18 2.19769e-18 -0.01094)
(-9.75933e-19 2.14101e-18 -0.0108685)
(-7.83873e-19 1.98352e-18 -0.0107959)
(-6.787e-19 1.88774e-18 -0.0107223)
(-5.93828e-19 1.81857e-18 -0.0106475)
(-4.83656e-19 1.76204e-18 -0.0105715)
(-2.78121e-19 1.60813e-18 -0.0104942)
(-1.56576e-19 1.48437e-18 -0.0104156)
(-1.80951e-19 1.47493e-18 -0.0103357)
(-7.49986e-20 1.3734e-18 -0.0102543)
(2.77126e-20 1.26757e-18 -0.0101714)
(-4.72577e-20 1.28644e-18 -0.0100869)
(5.88782e-20 1.16574e-18 -0.0100008)
(3.50496e-19 9.1838e-19 -0.00991293)
(4.38892e-19 8.40919e-19 -0.00982325)
(3.29394e-19 9.23139e-19 -0.00973166)
(1.27201e-19 1.06892e-18 -0.00963806)
(-5.48815e-20 1.19961e-18 -0.00954234)
(-2.43914e-20 1.17516e-18 -0.00944439)
(9.02213e-20 1.09411e-18 -0.00934409)
(1.76009e-19 1.03737e-18 -0.00924132)
(1.85355e-19 1.02965e-18 -0.00913593)
(1.28298e-19 1.05718e-18 -0.00902778)
(1.65816e-19 1.00187e-18 -0.00891672)
(3.2578e-19 8.45078e-19 -0.00880257)
(4.40378e-19 7.15158e-19 -0.00868516)
(3.19061e-19 7.67098e-19 -0.0085643)
(9.70636e-20 8.99999e-19 -0.00843978)
(1.47022e-20 9.28993e-19 -0.00831139)
(1.14439e-19 8.17149e-19 -0.00817889)
(3.53132e-19 6.00709e-19 -0.00804205)
(5.64005e-19 4.18388e-19 -0.0079006)
(5.50699e-19 4.21772e-19 -0.00775427)
(4.64119e-19 4.74358e-19 -0.00760277)
(5.23328e-19 3.9761e-19 -0.00744581)
(6.59521e-19 2.60247e-19 -0.00728306)
(7.27709e-19 1.80293e-19 -0.00711421)
(7.58835e-19 1.27596e-19 -0.00693893)
(8.48918e-19 2.63315e-20 -0.00675689)
(8.803e-19 -3.0061e-20 -0.00656775)
(7.90707e-19 3.72795e-21 -0.00637114)
(6.93587e-19 3.82495e-20 -0.00616646)
(6.92546e-19 -6.43191e-21 -0.00595285)
(7.36549e-19 -8.44027e-20 -0.00572967)
(7.50991e-19 -1.39462e-19 -0.00549655)
(6.91969e-19 -1.3751e-19 -0.00525333)
(5.48355e-19 -6.92492e-20 -0.00500002)
(4.2977e-19 -1.51921e-20 -0.00473695)
(3.48549e-19 1.63427e-20 -0.00446476)
(2.84322e-19 3.98805e-20 -0.00418444)
(2.46473e-19 4.8812e-20 -0.00389734)
(2.4131e-19 3.93554e-20 -0.00360504)
(2.4437e-19 3.02136e-20 -0.00330923)
(2.48279e-19 2.42263e-20 -0.00301158)
(2.28641e-19 4.36204e-20 -0.0027136)
(2.15202e-19 6.71232e-20 -0.00241651)
(2.23005e-19 8.21628e-20 -0.00212125)
(2.40551e-19 9.69248e-20 -0.00182845)
(2.29944e-19 1.37468e-19 -0.00153852)
(1.94895e-19 2.01237e-19 -0.00125168)
(1.81143e-19 2.47127e-19 -0.000968027)
(1.88536e-19 2.70892e-19 -0.000687587)
(2.04619e-19 2.76755e-19 -0.000410352)
(1.46397e-20 1.93002e-20 -0.000136298)
(-5.23557e-19 1.41187e-18 -0.0128079)
(-3.46105e-19 1.38666e-18 -0.0127563)
(-4.68598e-19 1.51155e-18 -0.0127043)
(-4.62396e-19 1.53436e-18 -0.0126519)
(-1.95652e-19 1.34786e-18 -0.0125991)
(2.47293e-19 1.0337e-18 -0.0125458)
(5.71501e-19 8.2782e-19 -0.0124922)
(6.8714e-19 7.82771e-19 -0.0124381)
(7.06261e-19 7.62743e-19 -0.0123835)
(7.29583e-19 7.00845e-19 -0.0123285)
(7.80811e-19 5.89812e-19 -0.0122731)
(7.92494e-19 5.06903e-19 -0.0122171)
(8.1358e-19 4.53719e-19 -0.0121606)
(7.55914e-19 4.60847e-19 -0.0121036)
(5.48014e-19 5.68455e-19 -0.012046)
(3.72066e-19 6.5943e-19 -0.0119878)
(3.8842e-19 6.30684e-19 -0.0119291)
(4.64165e-19 5.45777e-19 -0.0118697)
(4.6058e-19 5.01439e-19 -0.0118096)
(1.88006e-19 6.51929e-19 -0.011749)
(-2.39427e-19 9.47499e-19 -0.0116876)
(-4.81268e-19 1.12398e-18 -0.0116256)
(-5.35956e-19 1.14446e-18 -0.0115629)
(-5.1878e-19 1.08691e-18 -0.0114994)
(-4.37968e-19 9.88337e-19 -0.0114352)
(-2.98097e-19 8.57767e-19 -0.0113702)
(-2.5033e-19 8.16477e-19 -0.0113043)
(-3.62939e-19 9.3828e-19 -0.0112377)
(-4.49744e-19 1.0782e-18 -0.0111701)
(-4.28505e-19 1.14232e-18 -0.0111017)
(-3.56637e-19 1.1643e-18 -0.0110323)
(-2.69742e-19 1.19136e-18 -0.0109619)
(-2.51558e-19 1.28732e-18 -0.0108906)
(-3.33568e-19 1.44836e-18 -0.0108181)
(-4.78806e-19 1.66018e-18 -0.0107446)
(-5.40572e-19 1.80103e-18 -0.0106699)
(-6.64033e-19 1.94823e-18 -0.010594)
(-9.09894e-19 2.16326e-18 -0.0105168)
(-9.57124e-19 2.22099e-18 -0.0104383)
(-8.0161e-19 2.12987e-18 -0.0103585)
(-6.53784e-19 2.04857e-18 -0.0102772)
(-6.71547e-19 2.07285e-18 -0.0101945)
(-6.74224e-19 2.08396e-18 -0.0101101)
(-5.38556e-19 1.99541e-18 -0.0100242)
(-3.65331e-19 1.86091e-18 -0.00993645)
(-2.61426e-19 1.7581e-18 -0.00984692)
(-2.0779e-19 1.70319e-18 -0.00975548)
(-1.35722e-19 1.65402e-18 -0.00966204)
(1.37249e-20 1.59575e-18 -0.00956649)
(2.28248e-19 1.49917e-18 -0.00946871)
(3.722e-19 1.44496e-18 -0.00936859)
(3.59241e-19 1.50404e-18 -0.009266)
(3.04161e-19 1.6017e-18 -0.00916081)
(3.08835e-19 1.65384e-18 -0.00905285)
(3.45505e-19 1.6678e-18 -0.00894199)
(3.70365e-19 1.67931e-18 -0.00882805)
(3.99529e-19 1.67853e-18 -0.00871085)
(4.36959e-19 1.66446e-18 -0.0085902)
(5.27498e-19 1.62113e-18 -0.00846591)
(7.05592e-19 1.51828e-18 -0.00833774)
(9.0186e-19 1.40132e-18 -0.00820547)
(1.07597e-18 1.30065e-18 -0.00806885)
(1.24196e-18 1.20045e-18 -0.00792763)
(1.30784e-18 1.17435e-18 -0.00778152)
(1.16167e-18 1.31672e-18 -0.00763024)
(9.79564e-19 1.48932e-18 -0.00747348)
(9.47763e-19 1.54587e-18 -0.00731093)
(9.96357e-19 1.53456e-18 -0.00714226)
(1.03492e-18 1.52247e-18 -0.00696714)
(1.0309e-18 1.52839e-18 -0.00678523)
(9.47363e-19 1.58042e-18 -0.00659618)
(8.40553e-19 1.64866e-18 -0.00639964)
(7.67946e-19 1.69532e-18 -0.00619503)
(7.53183e-19 1.70032e-18 -0.00598151)
(8.03089e-19 1.64781e-18 -0.00575835)
(8.54214e-19 1.58525e-18 -0.00552517)
(8.80689e-19 1.53186e-18 -0.00528176)
(8.60328e-19 1.51399e-18 -0.00502813)
(8.43955e-19 1.48876e-18 -0.00476456)
(8.46077e-19 1.44387e-18 -0.00449166)
(8.20471e-19 1.4112e-18 -0.00421043)
(7.90259e-19 1.37373e-18 -0.00392218)
(7.66255e-19 1.32488e-18 -0.00362851)
(7.15945e-19 1.29119e-18 -0.00333113)
(6.39626e-19 1.26922e-18 -0.00303177)
(6.11999e-19 1.20506e-18 -0.00273195)
(6.32491e-19 1.10121e-18 -0.00243295)
(6.40509e-19 1.0048e-18 -0.00213574)
(6.16268e-19 9.26109e-19 -0.00184097)
(5.67797e-19 8.56347e-19 -0.00154908)
(5.20281e-19 7.72888e-19 -0.00126028)
(4.80069e-19 6.65611e-19 -0.000974681)
(4.12146e-19 5.52299e-19 -0.000692317)
(3.18023e-19 4.23424e-19 -0.000413177)
(7.96498e-20 9.44116e-20 -0.000137237)
(5.04533e-19 3.89879e-19 -0.0128271)
(3.53393e-19 5.30316e-19 -0.0127756)
(4.25261e-21 8.28835e-19 -0.0127236)
(-1.99207e-19 1.05684e-18 -0.0126712)
(-2.57321e-19 1.18601e-18 -0.0126185)
(-1.78438e-19 1.166e-18 -0.0125653)
(-4.85475e-20 1.08237e-18 -0.0125117)
(-1.50041e-19 1.14583e-18 -0.0124577)
(-5.79423e-19 1.38971e-18 -0.0124032)
(-8.68645e-19 1.54048e-18 -0.0123482)
(-7.39422e-19 1.37792e-18 -0.0122928)
(-4.08061e-19 1.08696e-18 -0.0122368)
(-3.43868e-19 9.77716e-19 -0.0121804)
(-7.23624e-19 1.13734e-18 -0.0121234)
(-1.06384e-18 1.27865e-18 -0.0120659)
(-1.05214e-18 1.21763e-18 -0.0120078)
(-1.06903e-18 1.16615e-18 -0.0119491)
(-1.30726e-18 1.23038e-18 -0.0118898)
(-1.50721e-18 1.2593e-18 -0.0118299)
(-1.53745e-18 1.17027e-18 -0.0117693)
(-1.50076e-18 1.05694e-18 -0.011708)
(-1.51561e-18 1.00026e-18 -0.011646)
(-1.48863e-18 9.29014e-19 -0.0115834)
(-1.37545e-18 8.15199e-19 -0.01152)
(-1.26816e-18 7.1301e-19 -0.0114558)
(-1.25203e-18 6.7043e-19 -0.0113909)
(-1.13925e-18 5.45704e-19 -0.0113251)
(-8.10388e-19 2.93968e-19 -0.0112585)
(-5.45083e-19 1.11179e-19 -0.0111911)
(-5.09292e-19 8.24143e-20 -0.0111227)
(-5.67721e-19 9.16834e-20 -0.0110534)
(-5.40422e-19 4.66658e-20 -0.0109832)
(-4.09325e-19 -5.9766e-20 -0.0109119)
(-2.74389e-19 -1.52238e-19 -0.0108395)
(-2.72813e-19 -1.54678e-19 -0.0107661)
(-6.53156e-19 1.3007e-19 -0.0106915)
(-1.07821e-18 4.59579e-19 -0.0106157)
(-1.16406e-18 5.93835e-19 -0.0105386)
(-1.15706e-18 6.71218e-19 -0.0104603)
(-1.13711e-18 7.31945e-19 -0.0103806)
(-1.08568e-18 7.59626e-19 -0.0102994)
(-1.08723e-18 8.25138e-19 -0.0102168)
(-1.1434e-18 9.31678e-19 -0.0101326)
(-1.17239e-18 1.00812e-18 -0.0100467)
(-1.18839e-18 1.06872e-18 -0.00995913)
(-1.12663e-18 1.07185e-18 -0.00986975)
(-9.20345e-19 9.6974e-19 -0.00977846)
(-4.74952e-19 6.91998e-19 -0.00968517)
(-1.32997e-19 4.7255e-19 -0.00958977)
(-1.49254e-19 4.99436e-19 -0.00949216)
(-1.84032e-19 5.34243e-19 -0.00939221)
(-8.21781e-20 4.73465e-19 -0.0092898)
(-5.49835e-20 4.71827e-19 -0.00918478)
(-3.20311e-19 6.8078e-19 -0.00907701)
(-5.86222e-19 8.82731e-19 -0.00896634)
(-6.47264e-19 9.41968e-19 -0.0088526)
(-6.99191e-19 9.95577e-19 -0.0087356)
(-7.70943e-19 1.06441e-18 -0.00861516)
(-8.04249e-19 1.10604e-18 -0.00849107)
(-8.18772e-19 1.12838e-18 -0.00836312)
(-7.08783e-19 1.04808e-18 -0.00823106)
(-5.16457e-19 8.96395e-19 -0.00809467)
(-3.51626e-19 7.61371e-19 -0.00795366)
(-2.10273e-19 6.38796e-19 -0.00780777)
(-8.68883e-20 5.29251e-19 -0.00765669)
(-1.17681e-20 4.63135e-19 -0.00750014)
(-1.48281e-20 4.55176e-19 -0.00733778)
(-1.254e-19 5.16604e-19 -0.00716929)
(-2.7294e-19 6.03412e-19 -0.00699432)
(-3.91328e-19 6.7038e-19 -0.00681254)
(-3.84171e-19 6.49208e-19 -0.00662359)
(-2.46226e-19 5.41213e-19 -0.00642712)
(-1.13493e-19 4.40148e-19 -0.00622259)
(-7.59807e-20 4.07894e-19 -0.00600916)
(-1.22719e-19 4.30492e-19 -0.00578603)
(-1.37991e-19 4.30538e-19 -0.0055528)
(-7.68891e-20 3.74537e-19 -0.00530923)
(-1.39453e-20 3.16828e-19 -0.0050553)
(-2.13986e-20 3.11047e-19 -0.00479126)
(-9.56552e-20 3.5729e-19 -0.00451771)
(-1.66967e-19 4.06721e-19 -0.0042356)
(-1.60535e-19 4.07555e-19 -0.00394625)
(-1.22187e-19 3.88627e-19 -0.00365126)
(-1.2219e-19 3.9872e-19 -0.00335239)
(-1.36668e-19 4.24418e-19 -0.00305136)
(-8.82678e-20 4.11026e-19 -0.00274977)
(8.50997e-21 3.63675e-19 -0.00244892)
(8.79349e-20 3.26993e-19 -0.00214981)
(1.35287e-19 3.10743e-19 -0.00185314)
(1.53555e-19 3.11368e-19 -0.00155933)
(1.51574e-19 3.18051e-19 -0.00126863)
(1.49287e-19 3.09103e-19 -0.000981145)
(1.57391e-19 2.67953e-19 -0.000696912)
(1.41262e-19 2.10945e-19 -0.000415922)
(3.5216e-20 5.1399e-20 -0.00013815)
(-2.43912e-19 4.36229e-19 -0.0128456)
(-3.45288e-19 3.42765e-19 -0.0127941)
(-2.55748e-19 1.88777e-19 -0.0127422)
(-2.00481e-19 7.63663e-20 -0.0126899)
(-3.08005e-19 8.37961e-20 -0.0126372)
(-3.46796e-19 1.10032e-19 -0.0125841)
(-2.06342e-19 2.54647e-20 -0.0125305)
(-2.96748e-19 7.57713e-20 -0.0124765)
(-4.42436e-19 2.19932e-19 -0.012422)
(-6.17854e-19 4.15673e-19 -0.0123671)
(-7.19997e-19 5.43212e-19 -0.0123117)
(-5.83456e-19 4.89522e-19 -0.0122558)
(-6.04897e-19 5.0031e-19 -0.0121995)
(-6.99236e-19 5.5981e-19 -0.0121426)
(-6.36723e-19 5.4622e-19 -0.0120851)
(-6.46065e-19 5.90037e-19 -0.0120271)
(-8.39588e-19 7.3909e-19 -0.0119684)
(-9.6306e-19 8.55483e-19 -0.0119092)
(-9.98627e-19 9.26326e-19 -0.0118493)
(-1.10455e-18 1.05544e-18 -0.0117888)
(-1.18929e-18 1.17661e-18 -0.0117276)
(-1.14042e-18 1.19978e-18 -0.0116657)
(-9.51573e-19 1.13349e-18 -0.0116031)
(-7.21713e-19 1.02344e-18 -0.0115398)
(-5.50772e-19 9.32652e-19 -0.0114757)
(-5.21927e-19 9.2339e-19 -0.0114108)
(-4.67774e-19 8.9489e-19 -0.0113451)
(-2.58295e-19 7.72081e-19 -0.0112786)
(-1.79179e-19 7.04175e-19 -0.0112113)
(-4.12683e-19 8.18576e-19 -0.011143)
(-5.69511e-19 8.63245e-19 -0.0110738)
(-4.5331e-19 7.22966e-19 -0.0110036)
(-3.08424e-19 5.61884e-19 -0.0109324)
(-3.30663e-19 5.0408e-19 -0.0108601)
(-3.0701e-19 4.04937e-19 -0.0107867)
(-7.38337e-20 1.72216e-19 -0.0107122)
(1.40719e-19 -2.11948e-20 -0.0106365)
(1.50674e-19 -7.13431e-20 -0.0105596)
(-3.86045e-21 -1.51621e-20 -0.0104814)
(-9.74309e-20 -3.47671e-21 -0.0104017)
(-1.07334e-19 -5.50242e-20 -0.0103207)
(-1.35674e-19 -8.30773e-20 -0.0102382)
(-2.64392e-19 -1.90768e-20 -0.0101541)
(-3.4951e-19 3.38834e-20 -0.0100684)
(-3.23774e-19 2.03713e-20 -0.00998093)
(-3.45827e-19 4.83036e-20 -0.00989168)
(-5.07431e-19 1.65399e-19 -0.00980053)
(-7.20447e-19 3.06427e-19 -0.00970739)
(-7.25819e-19 2.97152e-19 -0.00961214)
(-5.80647e-19 1.96935e-19 -0.00951469)
(-5.43719e-19 1.68994e-19 -0.0094149)
(-5.44609e-19 1.48164e-19 -0.00931265)
(-4.65723e-19 6.11093e-20 -0.0092078)
(-4.88044e-19 4.52109e-20 -0.00910021)
(-6.02162e-19 1.03377e-19 -0.00898973)
(-6.32061e-19 9.81241e-20 -0.00887617)
(-6.03642e-19 5.43499e-20 -0.00875937)
(-5.80975e-19 2.54051e-20 -0.00863912)
(-5.99737e-19 2.25561e-20 -0.00851524)
(-7.10609e-19 7.41547e-20 -0.00838749)
(-8.73563e-19 1.57161e-19 -0.00825564)
(-8.64923e-19 1.29324e-19 -0.00811945)
(-7.34812e-19 1.91678e-20 -0.00797866)
(-6.63766e-19 -5.99553e-20 -0.00783297)
(-6.54151e-19 -1.065e-19 -0.0076821)
(-6.61744e-19 -1.41114e-19 -0.00752574)
(-7.1172e-19 -1.47405e-19 -0.00736357)
(-7.30328e-19 -1.68055e-19 -0.00719525)
(-6.7126e-19 -2.31916e-19 -0.00702044)
(-6.44284e-19 -2.67974e-19 -0.00683878)
(-6.48006e-19 -2.76088e-19 -0.00664994)
(-6.52097e-19 -2.8467e-19 -0.00645353)
(-6.52391e-19 -2.97977e-19 -0.00624909)
(-6.46081e-19 -3.17613e-19 -0.00603576)
(-6.30915e-19 -3.38397e-19 -0.00581267)
(-6.22388e-19 -3.45065e-19 -0.0055794)
(-6.33374e-19 -3.36229e-19 -0.00533568)
(-6.03389e-19 -3.52206e-19 -0.00508148)
(-5.05192e-19 -4.09022e-19 -0.004817)
(-3.95262e-19 -4.65812e-19 -0.00454283)
(-2.98575e-19 -5.03437e-19 -0.00425989)
(-2.69341e-19 -4.8796e-19 -0.00396949)
(-2.90795e-19 -4.32153e-19 -0.00367325)
(-3.04731e-19 -3.72204e-19 -0.00337294)
(-2.91923e-19 -3.19718e-19 -0.00307031)
(-2.68978e-19 -2.66386e-19 -0.00276701)
(-2.35037e-19 -2.14863e-19 -0.00246437)
(-1.712e-19 -1.79028e-19 -0.00216343)
(-1.03972e-19 -1.42307e-19 -0.00186491)
(-4.93927e-20 -9.80198e-20 -0.00156925)
(-2.1633e-20 -4.06974e-20 -0.00127671)