/*--------------------------------*- C++ -*----------------------------------*\
  =========                 |
  \\      /  F ield         | OpenFOAM: The Open Source CFD Toolbox
   \\    /   O peration     | Website:  https://openfoam.org
    \\  /    A nd           | Version:  7
     \\/     M anipulation  |
\*---------------------------------------------------------------------------*/
FoamFile
{
    version     2.0;
    format      ascii;
    class       volVectorField;
    location    "112000";
    object      vorticity;
}
// * * * * * * * * * * * * * * * * * * * * * * * * * * * * * * * * * * * * * //

dimensions      [0 0 -1 0 0 0 0];

internalField   nonuniform List<vector> 
4844
(
(0.00949702 -0.00308319 7.03884e-18)
(0.00944707 -0.00340771 -1.62496e-16)
(0.00939189 -0.00373216 -5.0368e-17)
(0.00972091 -0.00315151 2.24875e-17)
(0.00966913 -0.00348314 -1.28145e-16)
(0.00961194 -0.00381468 -4.17134e-17)
(0.00954928 -0.0041461 -2.11696e-17)
(0.00948109 -0.00447734 -2.18144e-17)
(0.0094073 -0.00480836 -2.11104e-17)
(0.00932783 -0.00513909 -2.03018e-17)
(0.00924262 -0.00546946 -1.36153e-17)
(0.00994695 -0.0032205 2.06735e-17)
(0.00989333 -0.00355932 -8.94613e-17)
(0.00983412 -0.00389802 -3.97473e-17)
(0.00976926 -0.00423658 -2.18126e-17)
(0.00969867 -0.00457493 -2.15348e-17)
(0.00962229 -0.00491302 -2.13935e-17)
(0.00954005 -0.0052508 -2.03509e-17)
(0.00945186 -0.00558818 -1.37137e-17)
(0.00935765 -0.00592507 -1.12065e-17)
(0.00925732 -0.00626139 -1.27643e-17)
(0.00915081 -0.00659703 -1.37601e-17)
(0.0101752 -0.00329019 1.48764e-17)
(0.0101198 -0.00363627 -5.47043e-17)
(0.0100586 -0.00398222 -3.44438e-17)
(0.00999148 -0.004328 -2.1925e-17)
(0.0099185 -0.00467354 -2.12636e-17)
(0.00983953 -0.0050188 -2.18659e-17)
(0.0097545 -0.0053637 -2.04189e-17)
(0.00966333 -0.00570817 -1.44662e-17)
(0.00956594 -0.00605212 -1.24929e-17)
(0.00946224 -0.00639545 -1.19698e-17)
(0.00935215 -0.00673804 -1.21706e-17)
(0.00923558 -0.00707979 -1.01085e-17)
(0.00911244 -0.00742054 -1.12299e-17)
(0.00898265 -0.00776014 -1.41035e-17)
(0.0088449 -0.00809977 -1.06116e-17)
(0.00951234 -0.00762549 -7.17683e-18)
(0.0104059 -0.00336062 1.04499e-17)
(0.0103486 -0.00371405 -3.3151e-17)
(0.0102854 -0.00406732 -2.77373e-17)
(0.0102161 -0.0044204 -2.05611e-17)
(0.0101407 -0.00477322 -2.0759e-17)
(0.0100591 -0.00512573 -2.24294e-17)
(0.00997128 -0.00547785 -2.03731e-17)
(0.00987713 -0.0058295 -1.53217e-17)
(0.00977655 -0.00618059 -1.40121e-17)
(0.00966946 -0.00653102 -1.21235e-17)
(0.00955578 -0.00688068 -1.1455e-17)
(0.00943542 -0.00722942 -9.68398e-18)
(0.00930828 -0.00757712 -1.12177e-17)
(0.00917427 -0.00792361 -1.35473e-17)
(0.00903213 -0.00827001 -1.12011e-17)
(0.00968869 -0.00780872 -7.482e-18)
(0.010639 -0.00343181 8.173e-18)
(0.0105799 -0.00379268 -2.06912e-17)
(0.0105146 -0.00415337 -2.14814e-17)
(0.0104431 -0.00451384 -1.84439e-17)
(0.0103653 -0.00487403 -1.95281e-17)
(0.0102811 -0.00523387 -2.17572e-17)
(0.0101905 -0.0055933 -1.93825e-17)
(0.0100934 -0.00595223 -1.56822e-17)
(0.00998958 -0.00631056 -1.45041e-17)
(0.0098791 -0.00666819 -1.24906e-17)
(0.00976181 -0.00702499 -1.18457e-17)
(0.00963763 -0.00738084 -9.93768e-18)
(0.00950647 -0.00773559 -1.15199e-17)
(0.00936823 -0.00808907 -1.35798e-17)
(0.00922167 -0.00844235 -1.15433e-17)
(0.00986746 -0.00799401 -7.45764e-18)
(0.0108138 -0.00387221 -1.29124e-17)
(0.0107465 -0.0042404 -1.56427e-17)
(0.0106727 -0.00460835 -1.63449e-17)
(0.0105925 -0.004976 -1.84546e-17)
(0.0105057 -0.00534329 -2.07062e-17)
(0.0104123 -0.00571012 -1.81188e-17)
(0.0103121 -0.00607642 -1.57754e-17)
(0.0102051 -0.00644209 -1.42348e-17)
(0.0100912 -0.00680702 -1.19448e-17)
(0.00997033 -0.00717107 -1.20933e-17)
(0.00984232 -0.00753413 -1.06034e-17)
(0.00970711 -0.00789602 -1.15687e-17)
(0.0095646 -0.0082566 -1.29555e-17)
(0.00941361 -0.00861687 -1.18076e-17)
(0.0100487 -0.00818145 -8.47372e-18)
(0.0110504 -0.00395267 -7.50682e-18)
(0.010981 -0.00432846 -1.13032e-17)
(0.0109051 -0.00470399 -1.43838e-17)
(0.0108224 -0.0050792 -1.74862e-17)
(0.010733 -0.00545402 -1.96956e-17)
(0.0106367 -0.00582836 -1.68434e-17)
(0.0105335 -0.00620213 -1.49411e-17)
(0.0104233 -0.00657524 -1.40651e-17)
(0.010306 -0.00694757 -1.15708e-17)
(0.0101814 -0.00731898 -1.14563e-17)
(0.0100496 -0.00768935 -1.03365e-17)
(0.0099103 -0.00805851 -1.13549e-17)
(0.0097635 -0.00842629 -1.15955e-17)
(0.00960803 -0.00879366 -1.21143e-17)
(0.0102326 -0.00837113 -1.207e-17)
(0.0112898 -0.00403411 -3.49389e-18)
(0.0112184 -0.0044176 -8.05017e-18)
(0.0111402 -0.00480081 -1.27579e-17)
(0.0110551 -0.00518368 -1.63628e-17)
(0.010963 -0.00556612 -1.87958e-17)
(0.0108639 -0.00594807 -1.6146e-17)
(0.0107577 -0.00632943 -1.38489e-17)
(0.0106443 -0.00671008 -1.32893e-17)
(0.0105235 -0.00708992 -1.12007e-17)
(0.0103953 -0.0074688 -1.07297e-17)
(0.0102595 -0.00784659 -9.15385e-18)
(0.0101161 -0.00822312 -1.08158e-17)
(0.00996502 -0.00859822 -1.0621e-17)
(0.00980504 -0.0089728 -1.2273e-17)
(0.0104192 -0.00856314 -1.58938e-17)
(0.0115988 -0.00372504 7.65234e-18)
(0.0115322 -0.00411657 -7.89182e-19)
(0.0114587 -0.00450786 -6.15885e-18)
(0.0113782 -0.00489885 -1.18432e-17)
(0.0112907 -0.00528948 -1.49262e-17)
(0.011196 -0.00567967 -1.77113e-17)
(0.0110941 -0.00606933 -1.5586e-17)
(0.0109848 -0.00645837 -1.24172e-17)
(0.010868 -0.00684668 -1.22601e-17)
(0.0107438 -0.00723414 -1.11527e-17)
(0.0106119 -0.0076206 -9.81179e-18)
(0.0104722 -0.00800593 -7.68069e-18)
(0.0103247 -0.00838995 -9.66414e-18)
(0.0101693 -0.00877248 -1.01512e-17)
(0.0100047 -0.00915439 -1.2507e-17)
(0.0106085 -0.00875758 -1.79157e-17)
(0.0118461 -0.00380064 7.2529e-18)
(0.0117777 -0.00420009 7.71804e-19)
(0.0117021 -0.00459928 -4.75362e-18)
(0.0116194 -0.00499816 -1.10031e-17)
(0.0115293 -0.00539666 -1.38651e-17)
(0.011432 -0.0057947 -1.68506e-17)
(0.0113272 -0.00619219 -1.52573e-17)
(0.0112148 -0.00658903 -1.12801e-17)
(0.0110948 -0.00698511 -1.13864e-17)
(0.010967 -0.0073803 -1.12069e-17)
(0.0108314 -0.00777446 -8.89566e-18)
(0.0106878 -0.00816744 -6.70835e-18)
(0.0105362 -0.00855907 -8.29414e-18)
(0.0103763 -0.00894915 -9.03667e-18)
(0.0102072 -0.00933852 -1.22328e-17)
(0.0108007 -0.00895456 -1.67737e-17)
(0.0120966 -0.00387723 7.22368e-18)
(0.0120263 -0.00428471 1.38053e-18)
(0.0119487 -0.00469192 -4.62078e-18)
(0.0118636 -0.0050988 -1.0332e-17)
(0.0117711 -0.00550528 -1.24725e-17)
(0.0116711 -0.00591128 -1.58239e-17)
(0.0115634 -0.00631671 -1.44773e-17)
(0.0114479 -0.00672147 -1.00368e-17)
(0.0113246 -0.00712544 -1.05265e-17)
(0.0111933 -0.00752849 -1.13709e-17)
(0.011054 -0.00793047 -8.56438e-18)
(0.0109064 -0.00833122 -5.87973e-18)
(0.0107506 -0.00873057 -7.26657e-18)
(0.0105863 -0.00912833 -7.71743e-18)
(0.0104126 -0.00952529 -1.17916e-17)
(0.0109959 -0.00915416 -1.4256e-17)
(0.0123505 -0.00395487 7.25913e-18)
(0.0122783 -0.00437048 1.78936e-18)
(0.0121985 -0.00478582 -4.52049e-18)
(0.0121112 -0.00520081 -9.80229e-18)
(0.0120162 -0.00561539 -1.12513e-17)
(0.0119135 -0.00602948 -1.50741e-17)
(0.0118029 -0.00644297 -1.41121e-17)
(0.0116843 -0.00685577 -9.19073e-18)
(0.0115577 -0.00726774 -9.52217e-18)
(0.0114228 -0.00767877 -1.09657e-17)
(0.0112797 -0.00808869 -7.86523e-18)
(0.0111282 -0.00849734 -4.85057e-18)
(0.0109681 -0.00890455 -6.72916e-18)
(0.0107994 -0.00931011 -6.57604e-18)
(0.010621 -0.00971478 -1.05143e-17)
(0.0111942 -0.0093565 -1.24214e-17)
(0.0126744 -0.00360947 1.40636e-17)
(0.0126078 -0.00403357 6.88185e-18)
(0.0125337 -0.00445744 1.55931e-18)
(0.0124519 -0.00488103 -4.31047e-18)
(0.0123622 -0.00530426 -9.21631e-18)
(0.0122647 -0.00572706 -9.79906e-18)
(0.0121593 -0.00614935 -1.37478e-17)
(0.0120457 -0.00657102 -1.3861e-17)
(0.011924 -0.00699198 -8.98266e-18)
(0.011794 -0.00741209 -9.19693e-18)
(0.0116556 -0.00783122 -1.11057e-17)
(0.0115087 -0.00824921 -7.26608e-18)
(0.0113531 -0.0086659 -4.53031e-18)
(0.0111888 -0.00908109 -6.34036e-18)
(0.0110155 -0.00949459 -6.28782e-18)
(0.0108324 -0.0099071 -8.98903e-18)
(0.0113956 -0.00956169 -1.01195e-17)
(0.012937 -0.0036809 1.34429e-17)
(0.0128688 -0.00411339 6.54765e-18)
(0.0127927 -0.00454565 8.38836e-19)
(0.0127088 -0.0049776 -4.08929e-18)
(0.0126168 -0.00540919 -8.21622e-18)
(0.0125168 -0.00584033 -9.03867e-18)
(0.0124086 -0.00627095 -1.25414e-17)
(0.0122921 -0.00670094 -1.33467e-17)
(0.0121672 -0.00713019 -8.59117e-18)
(0.0120338 -0.00755856 -8.10825e-18)
(0.0118918 -0.00798593 -1.15548e-17)
(0.011741 -0.00841212 -7.40913e-18)
(0.0115814 -0.00883697 -4.58304e-18)
(0.0114128 -0.00926028 -6.53564e-18)
(0.011235 -0.00968185 -6.43399e-18)
(0.0110471 -0.0101024 -7.98639e-18)
(0.0116003 -0.00976982 -8.10481e-18)
(0.0132655 -0.00331218 1.13967e-17)
(0.0132035 -0.00375338 1.24269e-17)
(0.0131335 -0.00419438 5.80037e-18)
(0.0130555 -0.00463513 5.63754e-20)
(0.0129694 -0.00507558 -3.52321e-18)
(0.0128751 -0.00551566 -6.82694e-18)
(0.0127725 -0.00595528 -8.71225e-18)
(0.0126615 -0.00639436 -1.14688e-17)
(0.012542 -0.00683279 -1.28623e-17)
(0.012414 -0.00727046 -8.77372e-18)
(0.0122772 -0.00770724 -6.58041e-18)
(0.0121315 -0.00814298 -1.10082e-17)
(0.0119769 -0.00857751 -8.17217e-18)
(0.0118132 -0.00901066 -5.09913e-18)
(0.0116402 -0.00944223 -6.56999e-18)
(0.0114578 -0.00987201 -6.0815e-18)
(0.0112651 -0.0103006 -7.32482e-18)
(0.0118084 -0.00998102 -6.65292e-18)
(0.0135373 -0.00337708 1.00325e-17)
(0.0134738 -0.00382692 1.14812e-17)
(0.0134021 -0.00427657 5.33717e-18)
(0.0133221 -0.00472596 -2.43066e-19)
(0.0132338 -0.00517503 -3.60706e-18)
(0.0131372 -0.00562373 -5.601e-18)
(0.013032 -0.00607196 -8.04274e-18)
(0.0129183 -0.00651963 -1.06962e-17)
(0.0127958 -0.00696665 -1.20187e-17)
(0.0126645 -0.00741288 -8.97499e-18)
(0.0125243 -0.0078582 -5.53028e-18)
(0.0123749 -0.00830245 -1.00073e-17)
(0.0122164 -0.00874546 -8.60941e-18)
(0.0120485 -0.00918706 -5.79337e-18)
(0.0118712 -0.00962703 -7.19508e-18)
(0.0116842 -0.0100652 -5.55551e-18)
(0.0114866 -0.0105021 -6.35061e-18)
(0.01202 -0.0101954 -5.65282e-18)
(0.0138133 -0.00344296 9.05082e-18)
(0.0137482 -0.00390158 1.02731e-17)
(0.0136747 -0.00436 4.33546e-18)
(0.0135927 -0.00481816 2.54551e-19)
(0.0135023 -0.005276 -3.19289e-18)
(0.0134033 -0.00573346 -4.86294e-18)
(0.0132955 -0.00619043 -7.63888e-18)
(0.0131789 -0.00664685 -1.0679e-17)
(0.0130534 -0.00710258 -1.1099e-17)
(0.0129189 -0.00755752 -8.33768e-18)
(0.0127752 -0.00801152 -4.66397e-18)
(0.0126222 -0.00846443 -9.16493e-18)
(0.0124597 -0.00891607 -8.51623e-18)
(0.0122876 -0.00936626 -5.99124e-18)
(0.0121058 -0.00981479 -7.84276e-18)
(0.0119141 -0.0102614 -5.48052e-18)
(0.0117116 -0.0107068 -5.63489e-18)
(0.0122353 -0.0104131 -4.66157e-18)
(0.0140934 -0.00350986 8.0698e-18)
(0.0140267 -0.0039774 8.79222e-18)
(0.0139515 -0.00444473 3.26204e-18)
(0.0138676 -0.0049118 1.14697e-18)
(0.0137749 -0.00537855 -2.46263e-18)
(0.0136735 -0.0058449 -4.52142e-18)
(0.0135631 -0.00631077 -7.47261e-18)
(0.0134437 -0.00677607 -1.06222e-17)
(0.0133151 -0.00724067 -1.02418e-17)
(0.0131773 -0.00770446 -7.45004e-18)
(0.0130301 -0.00816729 -4.13404e-18)
(0.0128733 -0.00862901 -8.75942e-18)
(0.0127069 -0.00908943 -8.76994e-18)
(0.0125306 -0.00954836 -5.62872e-18)
(0.0123443 -0.0100056 -7.50897e-18)
(0.0121478 -0.0104609 -5.68339e-18)
(0.0119404 -0.0109148 -5.50819e-18)
(0.0124543 -0.0106341 -3.92191e-18)
(0.014378 -0.00357781 6.7311e-18)
(0.0143097 -0.00405441 7.42658e-18)
(0.0142326 -0.0045308 2.47688e-18)
(0.0141467 -0.00500693 1.56781e-18)
(0.0140518 -0.00548273 -1.78805e-18)
(0.0139479 -0.00595813 -3.98816e-18)
(0.0138349 -0.00643304 -6.9202e-18)
(0.0137127 -0.00690737 -1.0506e-17)
(0.013581 -0.00738099 -9.81586e-18)
(0.0134399 -0.00785378 -6.74993e-18)
(0.0132891 -0.0083256 -3.95023e-18)
(0.0131285 -0.00879628 -8.84282e-18)
(0.0129581 -0.00926564 -9.17748e-18)
(0.0127775 -0.00973347 -5.52413e-18)
(0.0125867 -0.0101996 -7.10247e-18)
(0.0123854 -0.0106637 -5.27819e-18)
(0.0121729 -0.0111263 -5.06181e-18)
(0.0126771 -0.0108588 -3.55298e-18)
(0.014667 -0.00364686 5.10024e-18)
(0.0145971 -0.00413267 6.03124e-18)
(0.0145182 -0.00461827 2.40064e-18)
(0.0144303 -0.0051036 2.37231e-18)
(0.0143332 -0.0055886 -1.43091e-18)
(0.0142269 -0.0060732 -3.83535e-18)
(0.0141112 -0.00655731 -6.4517e-18)
(0.013986 -0.00704082 -9.88499e-18)
(0.0138512 -0.00752362 -8.95178e-18)
(0.0137067 -0.00800558 -6.46871e-18)
(0.0135524 -0.00848654 -3.81201e-18)
(0.013388 -0.00896634 -8.77746e-18)
(0.0132134 -0.00944479 -9.44489e-18)
(0.0130285 -0.00992169 -5.81511e-18)
(0.0128331 -0.0103968 -6.82656e-18)
(0.0126271 -0.0108699 -5.0124e-18)
(0.0124095 -0.0113415 -4.28948e-18)
(0.0129039 -0.011087 -3.13551e-18)
(0.0149607 -0.00371704 3.39733e-18)
(0.0148892 -0.00421221 4.83383e-18)
(0.0148085 -0.00470717 2.27027e-18)
(0.0147185 -0.00520187 3.22738e-18)
(0.0146192 -0.00569623 -1.23172e-18)
(0.0145104 -0.00619019 -3.92928e-18)
(0.014392 -0.00668364 -5.7634e-18)
(0.0142639 -0.0071765 -9.03297e-18)
(0.014126 -0.00766864 -7.98233e-18)
(0.0139781 -0.00815992 -6.12177e-18)
(0.0138201 -0.0086502 -3.59198e-18)
(0.0136518 -0.00913929 -8.44555e-18)
(0.0134732 -0.009627 -9.41337e-18)
(0.0132839 -0.0101131 -6.06177e-18)
(0.0130838 -0.0105974 -6.63568e-18)
(0.0128728 -0.0110797 -4.31685e-18)
(0.0126501 -0.0115603 -2.76309e-18)
(0.0131349 -0.0113191 -2.53213e-18)
(0.0152594 -0.00378839 1.98375e-18)
(0.0151862 -0.00429308 3.84003e-18)
(0.0151036 -0.00479757 1.74104e-18)
(0.0150116 -0.00530178 3.41723e-18)
(0.0149099 -0.00580567 -8.69839e-19)
(0.0147986 -0.00630915 -3.97344e-18)
(0.0146775 -0.00681213 -5.0115e-18)
(0.0145464 -0.0073145 -8.06626e-18)
(0.0144053 -0.00781614 -7.39062e-18)
(0.014254 -0.00831691 -5.7654e-18)
(0.0140924 -0.00881667 -3.13055e-18)
(0.0139202 -0.00931522 -7.60574e-18)
(0.0137373 -0.00981237 -9.4825e-18)
(0.0135436 -0.0103079 -6.53431e-18)
(0.0133389 -0.0108016 -6.87246e-18)
(0.0131229 -0.0112931 -3.88728e-18)
(0.0128949 -0.011783 -7.7371e-19)
(0.0133701 -0.0115551 -1.56041e-18)
(0.015563 -0.00386096 1.00311e-18)
(0.0154882 -0.00437534 2.98638e-18)
(0.0154037 -0.00488951 1.44211e-18)
(0.0153096 -0.00540342 2.77576e-18)
(0.0152056 -0.00591699 -7.90274e-19)
(0.0150918 -0.00643016 -3.78384e-18)
(0.0149679 -0.00694282 -4.41768e-18)
(0.0148339 -0.00745488 -6.93474e-18)
(0.0146895 -0.0079662 -7.12112e-18)
(0.0145348 -0.00847664 -5.62116e-18)
(0.0143694 -0.00898605 -1.93877e-18)
(0.0141932 -0.00949424 -6.58109e-18)
(0.0140062 -0.010001 -9.91792e-18)
(0.013808 -0.0105061 -6.99239e-18)
(0.0135985 -0.0110093 -6.75408e-18)
(0.0133775 -0.0115104 -4.63291e-18)
(0.0131441 -0.0120097 8.29352e-19)
(0.0136097 -0.0117952 1.47162e-19)
(0.0158718 -0.00393479 2.2539e-19)
(0.0157953 -0.00445902 2.21297e-18)
(0.015709 -0.00498305 1.56885e-18)
(0.0156128 -0.00550682 1.77317e-18)
(0.0155065 -0.00603026 -1.07876e-18)
(0.0153901 -0.00655329 -3.14476e-18)
(0.0152634 -0.00707582 -4.26112e-18)
(0.0151263 -0.00759774 -6.42255e-18)
(0.0149787 -0.00811891 -6.64619e-18)
(0.0148204 -0.00863921 -5.22342e-18)
(0.0146513 -0.00915845 -7.3319e-19)
(0.0144711 -0.00967645 -5.3904e-18)
(0.0142798 -0.010193 -1.05087e-17)
(0.014077 -0.0107079 -7.86685e-18)
(0.0138627 -0.0112209 -6.68573e-18)
(0.0136366 -0.0117316 -4.96901e-18)
(0.0133979 -0.0122406 1.33945e-18)
(0.0138539 -0.0120395 2.5645e-18)
(0.0161861 -0.00400992 -1.49488e-19)
(0.0161079 -0.00454418 2.01712e-18)
(0.0160197 -0.00507825 1.92273e-18)
(0.0159213 -0.00561206 6.84028e-19)
(0.0158126 -0.00614554 -1.70183e-18)
(0.0156936 -0.00667862 -2.88244e-18)
(0.0155641 -0.00721119 -4.31106e-18)
(0.015424 -0.00774316 -6.0992e-18)
(0.0152731 -0.00827437 -6.27733e-18)
(0.0151112 -0.0088047 -4.761e-18)
(0.0149383 -0.00933396 8.07332e-20)
(0.014754 -0.00986198 -4.08651e-18)
(0.0145584 -0.0103885 -1.12007e-17)
(0.014351 -0.0109134 -8.16202e-18)
(0.0141318 -0.0114362 -6.45362e-18)
(0.0139005 -0.0119569 -4.41868e-18)
(0.0136563 -0.0124756 9.49305e-19)
(0.0141027 -0.0122882 3.52019e-18)
(0.016506 -0.0040864 -4.37034e-19)
(0.0164261 -0.00463088 2.11728e-18)
(0.0163359 -0.00517516 2.08021e-18)
(0.0162353 -0.0057192 2.0285e-19)
(0.0161243 -0.00626291 -2.14029e-18)
(0.0160026 -0.00680622 -3.33984e-18)
(0.0158703 -0.00734903 -4.43158e-18)
(0.015727 -0.00789123 -5.52661e-18)
(0.0155728 -0.00843267 -6.27252e-18)
(0.0154073 -0.00897323 -4.44644e-18)
(0.0152305 -0.00951271 6.4678e-19)
(0.0150421 -0.0100509 -3.56588e-18)
(0.0148421 -0.0105876 -1.17937e-17)
(0.01463 -0.0111226 -7.9753e-18)
(0.0144059 -0.0116556 -5.5308e-18)
(0.0141693 -0.0121864 -3.7748e-18)
(0.0139196 -0.0127151 1.23794e-18)
(0.0143564 -0.0125413 3.08924e-18)
(0.0168316 -0.00416427 -4.27676e-19)
(0.01675 -0.00471916 2.57153e-18)
(0.0166578 -0.00527385 2.19203e-18)
(0.0165551 -0.0058283 2.67707e-19)
(0.0164416 -0.00638244 -2.1483e-18)
(0.0163173 -0.00693617 -4.42502e-18)
(0.016182 -0.00748941 -4.71803e-18)
(0.0160356 -0.00804204 -4.39738e-18)
(0.015878 -0.00859392 -6.01157e-18)
(0.0157089 -0.00914489 -4.56612e-18)
(0.0155282 -0.00969479 9.73324e-19)
(0.0153356 -0.0102434 -3.57856e-18)
(0.0151311 -0.0107905 -1.17895e-17)
(0.0149143 -0.0113359 -7.96857e-18)
(0.0146851 -0.0118792 -5.18971e-18)
(0.0144432 -0.0124202 -3.87754e-18)
(0.0141879 -0.0129592 1.80554e-18)
(0.0146151 -0.0127992 2.68936e-18)
(0.0171633 -0.00424359 -4.59797e-19)
(0.0170799 -0.00480908 2.9861e-18)
(0.0169857 -0.00537438 2.23669e-18)
(0.0168808 -0.00593944 3.8581e-19)
(0.0167648 -0.0065042 -1.5577e-18)
(0.0166378 -0.00706856 -5.53978e-18)
(0.0164996 -0.00763243 -5.05085e-18)
(0.01635 -0.00819569 -3.07747e-18)
(0.0161889 -0.0087582 -5.33817e-18)
(0.0160161 -0.00931981 -5.3165e-18)
(0.0158314 -0.00988033 1.2264e-18)
(0.0156347 -0.0104396 -3.53906e-18)
(0.0154256 -0.0109973 -1.1066e-17)
(0.015204 -0.0115532 -7.54653e-18)
(0.0149697 -0.012107 -5.02413e-18)
(0.0147224 -0.0126585 -4.25604e-18)
(0.0144613 -0.0132079 1.47266e-18)
(0.014879 -0.0130619 2.40481e-18)
(0.0175011 -0.00432441 -7.85632e-19)
(0.0174159 -0.0049007 3.1243e-18)
(0.0173198 -0.00547681 2.04976e-18)
(0.0172126 -0.00605269 1.34346e-19)
(0.0170942 -0.00662827 -2.26621e-19)
(0.0169644 -0.00720346 -6.40525e-18)
(0.0168232 -0.00777817 -5.66444e-18)
(0.0166704 -0.00835227 -1.89766e-18)
(0.0165058 -0.00892563 -4.03448e-18)
(0.0163292 -0.00949808 -6.17679e-18)
(0.0161405 -0.0100694 7.22098e-19)
(0.0159394 -0.0106395 -3.62075e-18)
(0.0157258 -0.011208 -1.02347e-17)
(0.0154993 -0.0117747 -6.40982e-18)
(0.0152598 -0.0123393 -4.07009e-18)
(0.015007 -0.0129015 -3.85297e-18)
(0.0147402 -0.0134616 7.88672e-19)
(0.0151482 -0.0133296 1.67275e-18)
(0.0179213 -0.00381936 -2.73612e-19)
(0.0178454 -0.00440678 -1.12976e-18)
(0.0177584 -0.00499408 3.09107e-18)
(0.0176602 -0.00558121 1.90686e-18)
(0.0175507 -0.00616812 -4.34172e-19)
(0.0174298 -0.00675474 9.33817e-19)
(0.0172973 -0.00734098 -6.38325e-18)
(0.0171531 -0.00792674 -5.87771e-18)
(0.0169969 -0.0085119 -1.43762e-18)
(0.0168288 -0.00909632 -3.60097e-18)
(0.0166484 -0.00967983 -6.52832e-18)
(0.0164556 -0.0102622 5.6113e-20)
(0.0162502 -0.0108433 -3.45764e-18)
(0.0160319 -0.0114229 -9.78665e-18)
(0.0158005 -0.0120006 -5.4895e-18)
(0.0155557 -0.0125762 -2.89768e-18)
(0.0152973 -0.0131493 -2.59479e-18)
(0.0150245 -0.0137203 -2.20701e-19)
(0.015423 -0.0136024 7.27011e-19)
(0.0182739 -0.00389212 -5.07559e-19)
(0.0181964 -0.00449075 -1.36497e-18)
(0.0181075 -0.00508928 2.99711e-18)
(0.0180073 -0.00568765 1.63269e-18)
(0.0178954 -0.0062858 -1.45407e-18)
(0.0177719 -0.00688368 1.17555e-18)
(0.0176366 -0.00748119 -5.90738e-18)
(0.0174893 -0.00807822 -5.56801e-18)
(0.0173299 -0.00867467 -6.66425e-19)
(0.0171581 -0.00927037 -3.66467e-18)
(0.0169739 -0.00986517 -6.69854e-18)
(0.0167769 -0.0104589 -6.93724e-19)
(0.016567 -0.0110513 -3.5218e-18)
(0.016344 -0.0116421 -9.356e-18)
(0.0161076 -0.012231 -4.68315e-18)
(0.0158575 -0.0128178 -2.14016e-18)
(0.0155934 -0.0134021 -1.18535e-18)
(0.0153146 -0.0139842 -1.06822e-19)
(0.0157034 -0.0138807 2.4024e-19)
(0.018701 -0.00335617 4.77327e-18)
(0.0186333 -0.00396631 -5.11756e-19)
(0.0185542 -0.00457638 -1.1665e-18)
(0.0184635 -0.00518636 3.33372e-18)
(0.0183611 -0.00579619 1.53879e-18)
(0.018247 -0.00640582 -2.69156e-18)
(0.0181209 -0.00701519 6.90819e-19)
(0.0179827 -0.00762419 -5.67549e-18)
(0.0178323 -0.00823273 -5.13628e-18)
(0.0176695 -0.00884069 -2.09811e-19)
(0.0174941 -0.00944792 -3.6039e-18)
(0.0173059 -0.0100542 -6.64389e-18)
(0.0171047 -0.0106595 -1.1127e-18)
(0.0168903 -0.0112634 -3.71456e-18)
(0.0166625 -0.0118657 -9.03777e-18)
(0.0164209 -0.0124661 -4.07407e-18)
(0.0161654 -0.0130644 -9.54726e-19)
(0.0158956 -0.0136601 -3.39443e-19)
(0.0156106 -0.0142535 4.93633e-19)
(0.0159898 -0.0141645 1.08375e-18)
(0.019069 -0.00342019 4.40616e-18)
(0.0189999 -0.00404199 7.09076e-20)
(0.0189192 -0.00466373 -9.31724e-19)
(0.0188266 -0.00528539 3.5988e-18)
(0.0187221 -0.00590692 1.62099e-18)
(0.0186055 -0.00652826 -3.63325e-18)
(0.0184768 -0.00714935 3.18334e-19)
(0.0183357 -0.00777008 -5.98104e-18)
(0.0181821 -0.00839037 -4.97185e-18)
(0.0180159 -0.00901008 -1.05345e-19)
(0.0178368 -0.00962907 -3.69223e-18)
(0.0176446 -0.0102472 -6.10124e-18)
(0.0174391 -0.0108642 -1.23658e-18)
(0.0172202 -0.0114798 -4.16375e-18)
(0.0169874 -0.0120939 -8.84473e-18)
(0.0167407 -0.012706 -3.73497e-18)
(0.0164796 -0.013316 3.29264e-19)
(0.0162039 -0.0139234 5.83879e-19)
(0.0159128 -0.0145283 3.53248e-19)
(0.0162823 -0.014454 2.35627e-18)
(0.0194444 -0.00348551 3.96802e-18)
(0.019374 -0.00411921 1.13441e-18)
(0.0192915 -0.00475286 -4.13862e-19)
(0.0191971 -0.00538645 3.63561e-18)
(0.0190904 -0.00601991 1.53955e-18)
(0.0189714 -0.00665321 -4.47679e-18)
(0.01884 -0.00728625 -8.02775e-21)
(0.018696 -0.00791897 -6.3433e-18)
(0.0185392 -0.00855125 -4.86086e-18)
(0.0183694 -0.00918296 -4.27189e-19)
(0.0181865 -0.00981396 -4.24196e-18)
(0.0179903 -0.0104441 -5.3463e-18)
(0.0177805 -0.0110731 -5.69233e-19)
(0.0175568 -0.0117008 -4.54958e-18)
(0.0173191 -0.0123268 -8.57477e-18)
(0.0170671 -0.012951 -3.35815e-18)
(0.0168004 -0.0135729 4.32013e-19)
(0.0165188 -0.0141922 1.52159e-18)
(0.0162213 -0.014809 1.73113e-19)
(0.016581 -0.0147495 2.65326e-18)
(0.0198276 -0.00355217 3.56397e-18)
(0.0197557 -0.00419802 2.12374e-18)
(0.0196716 -0.00484384 4.40959e-19)
(0.0195751 -0.00548959 3.87204e-18)
(0.0194663 -0.00613525 1.72675e-18)
(0.0193448 -0.00678074 -5.36942e-18)
(0.0192107 -0.00742601 -5.21447e-19)
(0.0190636 -0.00807095 -6.68356e-18)
(0.0189036 -0.00871548 -4.67543e-18)
(0.0187303 -0.00935945 -7.35874e-19)
(0.0185436 -0.0100027 -5.10304e-18)
(0.0183432 -0.0106451 -5.15956e-18)
(0.0181289 -0.0112864 1.99315e-19)
(0.0179006 -0.0119264 -4.59439e-18)
(0.0176578 -0.0125647 -7.77181e-18)
(0.0174004 -0.0132011 -2.61144e-18)
(0.017128 -0.0138352 2.52226e-19)
(0.0168403 -0.0144667 1.65966e-18)
(0.0165364 -0.0150956 1.21079e-19)
(0.0168863 -0.0150511 1.82824e-18)
(0.0202187 -0.00362023 3.61154e-18)
(0.0201453 -0.00427848 3.03761e-18)
(0.0200595 -0.00493672 1.36757e-18)
(0.0199611 -0.0055949 3.96824e-18)
(0.01985 -0.006253 1.63333e-18)
(0.019726 -0.00691096 -6.26548e-18)
(0.0195891 -0.0075687 -9.26571e-19)
(0.0194391 -0.00822614 -6.43103e-18)
(0.0192757 -0.00888318 -4.62247e-18)
(0.0190988 -0.00953968 -9.004e-19)
(0.0189081 -0.0101955 -5.94542e-18)
(0.0187035 -0.0108504 -5.21748e-18)
(0.0184848 -0.0115043 1.28415e-18)
(0.0182516 -0.0121568 -4.25978e-18)
(0.0180037 -0.0128076 -7.43605e-18)
(0.0177409 -0.0134566 -1.67148e-18)
(0.0174627 -0.0141032 1.23237e-18)
(0.0171688 -0.0147471 1.69901e-18)
(0.0168583 -0.0153884 -4.17341e-19)
(0.0171983 -0.0153592 8.24934e-19)
(0.0206181 -0.00368974 3.98927e-18)
(0.0205432 -0.00436066 3.64165e-18)
(0.0204557 -0.00503157 2.36576e-18)
(0.0203552 -0.00570246 4.16526e-18)
(0.0202418 -0.00637327 1.28707e-18)
(0.0201154 -0.00704396 -7.14221e-18)
(0.0199756 -0.00771445 -1.72222e-18)
(0.0198225 -0.00838465 -5.87871e-18)
(0.0196557 -0.00905447 -4.08684e-18)
(0.0194751 -0.00972377 -1.39268e-18)
(0.0192805 -0.0103924 -6.68585e-18)
(0.0190717 -0.0110601 -5.56917e-18)
(0.0188483 -0.0117268 2.04485e-18)
(0.0186102 -0.0123922 -3.24001e-18)
(0.0183571 -0.0130559 -6.83535e-18)
(0.0180887 -0.0137176 -7.66832e-19)
(0.0178046 -0.014377 1.95152e-18)
(0.0175044 -0.0150336 2.08654e-18)
(0.0171872 -0.0156876 -1.13478e-18)
(0.0175173 -0.0156738 1.26182e-19)
(0.0210261 -0.00376075 4.73497e-18)
(0.0209497 -0.00444461 3.87802e-18)
(0.0208603 -0.00512848 3.07838e-18)
(0.0207578 -0.00581233 4.24996e-18)
(0.0206421 -0.00649613 5.61008e-19)
(0.0205131 -0.00717983 -7.75638e-18)
(0.0203705 -0.00786335 -1.96809e-18)
(0.0202142 -0.0085466 -5.85417e-18)
(0.0200439 -0.00922949 -3.81858e-18)
(0.0198596 -0.00991187 -2.28865e-18)
(0.019661 -0.0105936 -6.93058e-18)
(0.0194478 -0.0112745 -5.82943e-18)
(0.0192198 -0.0119543 2.05281e-18)
(0.0189767 -0.0126327 -2.21926e-18)
(0.0187182 -0.0133095 -5.44619e-18)
(0.0184441 -0.0139844 -3.15747e-19)
(0.018154 -0.0146569 2.12193e-18)
(0.0178474 -0.0153265 3.2341e-18)
(0.0175235 -0.0159934 -1.07586e-18)
(0.0178435 -0.0159952 -2.09259e-19)
(0.0214429 -0.0038333 5.29333e-18)
(0.0213649 -0.00453039 4.00901e-18)
(0.0212738 -0.0052275 3.93029e-18)
(0.0211692 -0.00592461 4.04532e-18)
(0.0210512 -0.00662169 -4.42892e-19)
(0.0209195 -0.00731869 -8.07736e-18)
(0.020774 -0.00801552 -1.68223e-18)
(0.0206144 -0.00871212 -5.87781e-18)
(0.0204407 -0.00940836 -4.21466e-18)
(0.0202526 -0.0101041 -3.19593e-18)
(0.0200498 -0.0107992 -6.73204e-18)
(0.0198322 -0.0114935 -5.9087e-18)
(0.0195994 -0.0121867 1.66118e-18)
(0.0193512 -0.0128786 -1.97221e-18)
(0.0190874 -0.0135689 -3.73766e-18)
(0.0188075 -0.0142571 6.50248e-19)
(0.0185112 -0.014943 1.70488e-18)
(0.0181981 -0.015626 3.85354e-18)
(0.0178673 -0.0163061 -7.80435e-19)
(0.0181772 -0.0163237 -6.91377e-20)
(0.0218689 -0.00390746 5.76194e-18)
(0.0217894 -0.00461807 4.22157e-18)
(0.0216963 -0.00532872 4.95151e-18)
(0.0215897 -0.00603939 3.13374e-18)
(0.0214692 -0.00675004 -1.9877e-18)
(0.0213349 -0.00746063 -8.06806e-18)
(0.0211864 -0.00817108 -1.32646e-18)
(0.0210236 -0.00888132 -5.38817e-18)
(0.0208463 -0.00959122 -4.8278e-18)
(0.0206543 -0.0103007 -4.01059e-18)
(0.0204474 -0.0110095 -6.17284e-18)
(0.0202252 -0.0117175 -5.8259e-18)
(0.0199876 -0.0124244 1.59349e-18)
(0.0197342 -0.01313 -1.76176e-18)
(0.0194648 -0.013834 -1.93363e-18)
(0.0191791 -0.014536 1.87473e-18)
(0.0188765 -0.0152356 1.33125e-18)
(0.0185568 -0.0159322 3.64939e-18)
(0.0182189 -0.0166259 -1.29235e-18)
(0.0185186 -0.0166596 -3.30221e-19)
(0.0223044 -0.00398329 5.75555e-18)
(0.0222233 -0.00470772 4.13003e-18)
(0.0221284 -0.00543221 6.1541e-18)
(0.0220196 -0.00615674 2.06365e-18)
(0.0218967 -0.00688128 -3.81807e-18)
(0.0217596 -0.00760578 -7.91361e-18)
(0.0216081 -0.00833016 -1.28334e-18)
(0.021442 -0.00905434 -5.13798e-18)
(0.0212611 -0.00977822 -5.21474e-18)
(0.0210651 -0.0105017 -4.52715e-18)
(0.0208539 -0.0112245 -5.41878e-18)
(0.0206271 -0.0119465 -6.2311e-18)
(0.0203846 -0.0126675 1.46157e-18)
(0.0201259 -0.0133872 -8.40011e-19)
(0.0198509 -0.0141053 -4.17868e-20)
(0.0195591 -0.0148213 2.86761e-18)
(0.0192502 -0.0155349 1.33469e-18)
(0.0189237 -0.0162455 3.87914e-18)
(0.0185786 -0.016953 -2.28234e-18)
(0.018868 -0.017003 -1.12313e-18)
(0.0227498 -0.00406085 5.40034e-18)
(0.022667 -0.00479941 3.85721e-18)
(0.0225702 -0.00553806 7.51871e-18)
(0.0224592 -0.00627677 1.14059e-18)
(0.0223339 -0.00701551 -5.61842e-18)
(0.022194 -0.00775424 -7.84481e-18)
(0.0220394 -0.00849287 -1.61516e-18)
(0.0218699 -0.00923133 -4.90294e-18)
(0.0216853 -0.00996951 -5.42637e-18)
(0.0214853 -0.0107073 -5.43149e-18)
(0.0212697 -0.0114445 -4.47307e-18)
(0.0210383 -0.0121809 -6.65166e-18)
(0.0207907 -0.0129162 8.35411e-19)
(0.0205266 -0.0136503 -4.32254e-19)
(0.0202459 -0.0143828 2.03223e-18)
(0.019948 -0.0151132 4.01931e-18)
(0.0196326 -0.0158411 1.23559e-18)
(0.0192992 -0.016566 4.67218e-18)
(0.0189467 -0.0172878 -2.09673e-18)
(0.0192257 -0.0173543 -1.32335e-18)
(0.0232054 -0.00414019 4.85838e-18)
(0.023121 -0.00489322 3.28244e-18)
(0.0230222 -0.00564636 8.50645e-18)
(0.022909 -0.00639958 5.03221e-19)
(0.0227811 -0.00715286 -6.78365e-18)
(0.0226384 -0.00790614 -7.62316e-18)
(0.0224807 -0.00865935 -2.35991e-18)
(0.0223077 -0.00941243 -4.62812e-18)
(0.0221193 -0.0101652 -5.33909e-18)
(0.0219152 -0.0109177 -6.54607e-18)
(0.0216952 -0.0116695 -3.91137e-18)
(0.021459 -0.0124207 -7.33722e-18)
(0.0212063 -0.0131708 -1.16269e-19)
(0.0209367 -0.0139196 -2.74971e-19)
(0.0206501 -0.0146668 3.89052e-18)
(0.0203459 -0.015412 5.11488e-18)
(0.0200239 -0.0161546 1.16733e-18)
(0.0196835 -0.0168942 5.30259e-18)
(0.0193236 -0.0176305 -1.25198e-18)
(0.019592 -0.0177138 -3.21288e-19)
(0.0236716 -0.00422139 4.00454e-18)
(0.0235855 -0.00498923 2.60322e-18)
(0.0234848 -0.00575719 9.05818e-18)
(0.0233693 -0.00652526 -8.81126e-21)
(0.0232388 -0.00729342 -7.41059e-18)
(0.0230932 -0.0080616 -7.05477e-18)
(0.0229323 -0.00882975 -2.98184e-18)
(0.0227558 -0.00959778 -4.50826e-18)
(0.0225635 -0.0103656 -5.50487e-18)
(0.0223553 -0.011133 -7.75967e-18)
(0.0221307 -0.0118999 -3.12494e-18)
(0.0218896 -0.0126661 -7.46579e-18)
(0.0216317 -0.0134313 -1.7015e-18)
(0.0213565 -0.0141952 -4.75909e-19)
(0.0210639 -0.0149576 5.29861e-18)
(0.0207533 -0.0157178 6.01691e-18)
(0.0204246 -0.0164756 1.11039e-18)
(0.020077 -0.0172302 5.9681e-18)
(0.0197095 -0.0179813 -9.07021e-19)
(0.0199672 -0.0180817 1.10119e-18)
(0.0241488 -0.00430451 3.25087e-18)
(0.024061 -0.00508751 1.92677e-18)
(0.0239583 -0.00587065 9.27696e-18)
(0.0238404 -0.00665393 -5.6433e-19)
(0.0237073 -0.00743732 -7.87054e-18)
(0.0235588 -0.00822076 -6.31042e-18)
(0.0233946 -0.0090042 -3.42875e-18)
(0.0232145 -0.00978755 -4.42114e-18)
(0.0230183 -0.0105707 -5.67477e-18)
(0.0228058 -0.0113535 -9.39676e-18)
(0.0225766 -0.0121359 -2.24469e-18)
(0.0223306 -0.0129175 -6.89371e-18)
(0.0220672 -0.0136981 -2.89479e-18)
(0.0217864 -0.0144775 -6.29671e-19)
(0.0214876 -0.0152553 6.57899e-18)
(0.0211706 -0.0160311 6.65466e-18)
(0.0208349 -0.0168043 9.17653e-19)
(0.02048 -0.0175743 6.5385e-18)
(0.0201048 -0.0183407 -4.25028e-19)
(0.0203515 -0.0184583 2.27087e-18)
(0.0246375 -0.00438963 2.75528e-18)
(0.0245479 -0.00518815 1.37889e-18)
(0.0244431 -0.00598684 9.18388e-18)
(0.0243229 -0.00678569 -1.02052e-18)
(0.0241871 -0.00758468 -8.48771e-18)
(0.0240355 -0.00838375 -5.58335e-18)
(0.023868 -0.00918285 -3.37523e-18)
(0.0236843 -0.0099819 -4.47167e-18)