/*--------------------------------*- C++ -*----------------------------------*\
  =========                 |
  \\      /  F ield         | OpenFOAM: The Open Source CFD Toolbox
   \\    /   O peration     | Website:  https://openfoam.org
    \\  /    A nd           | Version:  7
     \\/     M anipulation  |
\*---------------------------------------------------------------------------*/
FoamFile
{
    version     2.0;
    format      ascii;
    class       volVectorField;
    location    "72000";
    object      vorticity;
}
// * * * * * * * * * * * * * * * * * * * * * * * * * * * * * * * * * * * * * //

dimensions      [0 0 -1 0 0 0 0];

internalField   nonuniform List<vector> 
4825
(
(0.0240879 0.0221287 1.18303e-17)
(0.0239334 0.0218373 1.25388e-17)
(0.0245884 0.0226166 1.17362e-17)
(0.0244458 0.0223039 1.14249e-17)
(0.0249013 0.0213638 1.50471e-17)
(0.025332 0.0204202 2.97098e-18)
(0.0257391 0.0194735 3.72301e-18)
(0.0251027 0.0231177 1.15936e-17)
(0.0249722 0.0227832 1.13491e-17)
(0.0254379 0.0218224 1.30972e-17)
(0.0258784 0.0208582 1.52186e-18)
(0.0262946 0.0198909 1.87323e-18)
(0.0256314 0.0236326 1.11833e-17)
(0.0255133 0.0232758 1.24008e-17)
(0.0259893 0.0222937 1.31109e-17)
(0.0264398 0.0213084 2.31675e-18)
(0.0268653 0.0203198 2.14223e-18)
(0.0261751 0.024162 1.12168e-17)
(0.0260696 0.0237824 1.3922e-17)
(0.0265562 0.0227783 1.38572e-17)
(0.0270171 0.0217711 4.88158e-18)
(0.027452 0.0207607 3.62298e-18)
(0.0267344 0.0247063 1.22563e-17)
(0.0266418 0.0243034 1.55192e-17)
(0.0271393 0.0232766 1.41783e-17)
(0.0276107 0.022247 7.63641e-18)
(0.0280555 0.0212142 5.20144e-18)
(0.02731 0.0252664 1.36356e-17)
(0.0272305 0.0248394 1.65119e-17)
(0.0277392 0.0237893 1.43227e-17)
(0.0282213 0.0227365 9.83047e-18)
(0.0286764 0.0216807 6.21052e-18)
(0.0279027 0.0258429 1.40636e-17)
(0.0278363 0.025391 1.69186e-17)
(0.0283568 0.0243172 1.4336e-17)
(0.0288499 0.0232404 1.17736e-17)
(0.0293152 0.0221607 7.40688e-18)
(0.0285135 0.0264368 1.38272e-17)
(0.0284603 0.0259591 1.71467e-17)
(0.0289929 0.0248608 1.43708e-17)
(0.0294972 0.0237592 1.38061e-17)
(0.0299728 0.0226548 9.29541e-18)
(0.0291429 0.0270487 1.32037e-17)
(0.0291033 0.0265446 1.7026e-17)
(0.0296484 0.0254209 1.4626e-17)
(0.030164 0.0242938 1.62532e-17)
(0.0306501 0.0231638 1.13502e-17)
(0.0297919 0.0276793 1.18919e-17)
(0.0297664 0.0271482 1.65396e-17)
(0.030324 0.0259983 1.55323e-17)
(0.0308513 0.0248447 1.88999e-17)
(0.0313481 0.0236883 1.27755e-17)
(0.0304612 0.0283294 1.00262e-17)
(0.0304503 0.0277709 1.57694e-17)
(0.0310208 0.0265937 1.67994e-17)
(0.0315599 0.0254129 2.17878e-17)
(0.0320677 0.024229 1.05902e-17)
(0.0311518 0.029 8.22018e-18)
(0.031156 0.0284132 1.537e-17)
(0.0317395 0.027208 1.81847e-17)
(0.0322908 0.0259989 2.51839e-17)
(0.0328101 0.0247868 5.96461e-18)
(0.0318648 0.0296921 7.04877e-18)
(0.0318842 0.0290762 1.52451e-17)
(0.0324814 0.027842 1.93412e-17)
(0.0330451 0.0266038 2.84493e-17)
(0.0326013 0.0304069 6.37082e-18)
(0.0326362 0.0297607 1.50011e-17)
(0.0332474 0.0284967 2.01796e-17)
(0.0338239 0.0272283 2.87017e-17)
(0.0333624 0.0311453 5.66406e-18)
(0.0334131 0.0304678 1.46689e-17)
(0.0340386 0.029173 2.08363e-17)
(0.0346285 0.0278736 2.65825e-17)
(0.0341493 0.0319086 5.0893e-18)
(0.0342161 0.0311989 1.40483e-17)
(0.0348563 0.0298719 1.98325e-17)
(0.0349633 0.032698 4.35001e-18)
(0.0350466 0.0319549 1.41658e-17)
(0.0357019 0.0305947 1.8058e-17)
(0.0358058 0.0335149 3.70852e-18)
(0.0359059 0.0327371 1.52258e-17)
(0.0366782 0.0343606 3.41256e-18)
(0.0367954 0.0335469 1.77295e-17)
(0.0375818 0.0352364 3.33227e-18)
(0.0377168 0.0343857 2.10318e-17)
(0.0385183 0.0361439 3.93597e-18)
(0.0386714 0.0352549 2.10778e-17)
(0.0394893 0.0370848 8.15561e-19)
(0.0396613 0.0361561 1.93779e-17)
(0.0404968 0.0380609 -4.7664e-18)
(-0.0160418 0.0178579 1.15077e-17)
(-0.0160184 0.0175407 4.14453e-18)
(-0.0153423 0.0178547 6.25712e-18)
(-0.0146635 0.0181507 6.62108e-19)
(-0.0139826 0.0184301 2.78064e-18)
(-0.0132999 0.0186924 3.38903e-18)
(-0.0126162 0.0189387 -1.29498e-18)
(-0.0119313 0.0191689 -1.18206e-18)
(-0.011246 0.0193839 -2.00247e-18)
(-0.0105601 0.0195834 -1.15191e-18)
(-0.00987414 0.0197681 6.76575e-19)
(-0.00918862 0.0199387 -1.73556e-18)
(-0.00850396 0.0200962 5.32828e-18)
(-0.00781964 0.0202396 9.06168e-18)
(-0.00713582 0.0203692 1.45806e-18)
(-0.00645312 0.0204857 -8.97265e-18)
(-0.00577117 0.02059 -5.4472e-18)
(-0.00508982 0.0206817 -6.72914e-18)
(-0.00440958 0.0207615 -5.38234e-18)
(-0.00373027 0.0208299 -2.29649e-18)
(-0.0163906 0.0182142 1.01478e-17)
(-0.0163521 0.0179075 3.70557e-18)
(-0.0156627 0.0182298 5.43061e-18)
(-0.0149706 0.0185339 -1.17955e-18)
(-0.0142762 0.0188209 3.20409e-18)
(-0.01358 0.0190907 3.93313e-18)
(-0.0128827 0.019344 -9.17303e-19)
(-0.0121841 0.0195811 -1.74356e-18)
(-0.011485 0.0198024 -5.49802e-19)
(-0.0107853 0.0200082 1.12749e-18)
(-0.0100853 0.0201984 2.15097e-18)
(-0.00938563 0.0203746 7.54457e-19)
(-0.00868679 0.0205373 7.49711e-18)
(-0.00798844 0.0206858 1.02763e-17)
(-0.00729035 0.0208198 3.28478e-18)
(-0.00659322 0.0209404 -6.34461e-18)
(-0.00589682 0.0210486 -2.36915e-18)
(-0.00520091 0.0211437 -3.91603e-18)
(-0.00450597 0.0212265 -2.70129e-18)
(-0.00381194 0.0212976 -4.49214e-19)
(-0.0167457 0.018577 8.55877e-18)
(-0.0166916 0.0182807 5.04804e-18)
(-0.0159885 0.0186112 6.26479e-18)
(-0.0152827 0.0189234 -8.09302e-19)
(-0.0145745 0.0192181 4.55623e-18)
(-0.0138644 0.0194951 4.33734e-18)
(-0.0131531 0.0197554 -8.96287e-19)
(-0.0124405 0.0199991 -3.34791e-18)
(-0.0117272 0.0202267 -4.39469e-19)
(-0.0110134 0.0204385 1.77787e-18)
(-0.0102991 0.0206344 1.59863e-18)
(-0.00958512 0.0208161 4.51046e-19)
(-0.00887175 0.0209837 6.69863e-18)
(-0.0081591 0.021137 8.83252e-18)
(-0.00744656 0.0212754 2.30161e-18)
(-0.0067348 0.0214002 -6.53807e-18)
(-0.00602374 0.0215121 -2.16127e-18)
(-0.00531309 0.0216104 -3.86452e-18)
(-0.00460327 0.0216962 -2.5585e-18)
(-0.00389434 0.0217697 3.07116e-19)
(-0.0171076 0.0189468 8.01016e-18)
(-0.0170375 0.0186608 7.40526e-18)
(-0.0163202 0.0189995 7.66459e-18)
(-0.0156003 0.0193197 3.6837e-19)
(-0.0148779 0.019622 5.9112e-18)
(-0.0141535 0.0199062 4.62039e-18)
(-0.0134278 0.0201734 -1.53337e-18)
(-0.0127008 0.0204236 -5.22784e-18)
(-0.0119731 0.0206574 -6.88515e-19)
(-0.0112449 0.0208751 1.6034e-18)
(-0.0105161 0.0210767 -1.60803e-19)
(-0.00978745 0.021264 -1.43761e-18)
(-0.00905926 0.0214363 4.85956e-18)
(-0.00833195 0.0215942 6.48521e-18)
(-0.00760479 0.021737 3.37775e-19)
(-0.00687815 0.0218658 -7.80535e-18)
(-0.00615221 0.0219814 -3.37878e-18)
(-0.00542664 0.022083 -5.0349e-18)
(-0.00470174 0.0221716 -3.93965e-18)
(-0.00397765 0.0222473 2.59173e-19)
(-0.0174766 0.0193239 8.05076e-18)
(-0.0173902 0.0190483 9.3193e-18)
(-0.0166582 0.0193951 9.0324e-18)
(-0.0159237 0.0197233 9.29263e-19)
(-0.0151868 0.0200332 6.78893e-18)
(-0.0144477 0.0203246 5.26913e-18)
(-0.0137072 0.0205985 -2.14808e-18)
(-0.0129655 0.0208553 -6.94016e-18)
(-0.012223 0.0210952 -9.45977e-19)
(-0.01148 0.0213188 1.31998e-18)
(-0.0107364 0.0215261 -1.3639e-18)
(-0.00999289 0.0217189 -2.51999e-18)
(-0.00924963 0.0218958 3.55912e-18)
(-0.00850733 0.0220583 5.113e-18)
(-0.00776531 0.0222057 -5.93037e-19)
(-0.00702354 0.0223383 -8.31699e-18)
(-0.00628244 0.0224573 -3.90494e-18)
(-0.00554177 0.0225624 -5.92515e-18)
(-0.00480158 0.0226536 -5.36029e-18)
(-0.00406209 0.0227315 2.19748e-19)
(-0.017853 0.0197089 8.18297e-18)
(-0.01775 0.0194437 1.04594e-17)
(-0.017003 0.0197988 1.03637e-17)
(-0.0162535 0.0201348 6.40625e-19)
(-0.0155015 0.0204522 7.72335e-18)
(-0.0147474 0.0207508 6.02465e-18)
(-0.0139918 0.0210315 -3.31874e-18)
(-0.0132351 0.0212948 -8.39071e-18)
(-0.0124774 0.0215409 -9.1403e-19)
(-0.0117193 0.0217704 1.07394e-18)
(-0.0109606 0.0219835 -1.99072e-18)
(-0.0102017 0.0221813 -3.29237e-18)
(-0.0094432 0.022363 2.67465e-18)
(-0.00868554 0.02253 4.1456e-18)
(-0.00792835 0.0226818 -6.85177e-19)
(-0.00717123 0.0228183 -8.27588e-18)
(-0.00641464 0.0229407 -4.10062e-18)
(-0.00565861 0.0230492 -6.7703e-18)
(-0.00490295 0.0231431 -6.60328e-18)
(-0.00414784 0.0232233 2.84578e-19)
(-0.0182375 0.020102 8.1247e-18)
(-0.0181174 0.0198473 1.12206e-17)
(-0.0173552 0.0202109 1.16395e-17)
(-0.0165901 0.0205548 -1.0462e-19)
(-0.0158227 0.0208797 8.49567e-18)
(-0.0150531 0.0211855 5.88095e-18)
(-0.014282 0.0214731 -4.74293e-18)
(-0.0135098 0.0217429 -8.38257e-18)
(-0.0127367 0.0219952 -8.4337e-19)
(-0.0119632 0.0222307 6.24437e-19)
(-0.0111889 0.0224494 -3.19966e-18)
(-0.0104143 0.022652 -3.46759e-18)
(-0.0096402 0.0228387 2.16211e-18)
(-0.00886686 0.0230101 3.51515e-18)
(-0.00809413 0.0231661 -4.4365e-19)
(-0.00732145 0.0233067 -7.78718e-18)
(-0.00654907 0.0234324 -4.10292e-18)
(-0.00577736 0.0235441 -7.50821e-18)
(-0.00500596 0.0236406 -7.34962e-18)
(-0.00423505 0.0237233 5.94753e-19)
(-0.0186303 0.0205039 7.9816e-18)
(-0.0184928 0.0202597 1.15498e-17)
(-0.0177149 0.0206319 1.29779e-17)
(-0.0169339 0.0209837 -5.57193e-19)
(-0.0161506 0.0213162 8.54768e-18)
(-0.0153652 0.0216293 5.28405e-18)
(-0.0145783 0.0219238 -5.46342e-18)
(-0.0137902 0.0222003 -8.05505e-18)
(-0.0130012 0.0224589 -7.69142e-19)
(-0.0122119 0.0227003 1.07417e-19)
(-0.0114217 0.0229245 -4.72384e-18)
(-0.010631 0.0231317 -3.06444e-18)
(-0.00984088 0.0233233 1.78087e-18)
(-0.00905152 0.0234991 3.64534e-18)
(-0.00826285 0.0236593 -1.24893e-19)
(-0.00747433 0.0238039 -7.21584e-18)
(-0.00668593 0.0239331 -4.13001e-18)
(-0.0058982 0.0240478 -8.36944e-18)
(-0.00511077 0.024147 -8.1366e-18)
(-0.00432382 0.0242321 9.56613e-19)
(-0.00353702 0.0243021 -4.81345e-18)
(-0.00275051 0.0243589 -4.1509e-18)
(-0.00196403 0.0244011 -1.93429e-18)
(-0.00117781 0.0244296 -6.70926e-18)
(-0.00039191 0.0244444 -1.57589e-18)
(0.000393866 0.0244447 8.26103e-18)
(0.00117961 0.0244317 2.85307e-18)
(0.00196547 0.0244039 7.86054e-18)
(0.00275127 0.0243621 4.56297e-18)
(0.00353737 0.0243064 8.13146e-19)
(0.00432402 0.0242357 -1.46208e-18)
(0.00511118 0.0241505 -4.0668e-18)
(0.00589893 0.0240513 4.08942e-18)
(0.00668703 0.0239377 -2.21215e-18)
(0.00747538 0.0238092 -8.90604e-18)
(-0.019032 0.0209148 7.14395e-18)
(-0.0188767 0.0206814 1.20134e-17)
(-0.0180826 0.0210622 1.41063e-17)
(-0.0172853 0.0214221 -8.70468e-19)
(-0.0164857 0.0217622 7.90913e-18)
(-0.0156842 0.0220829 4.38066e-18)
(-0.014881 0.0223844 -5.45807e-18)
(-0.0140766 0.0226674 -7.79599e-18)
(-0.0132714 0.0229325 -6.63504e-19)
(-0.0124657 0.0231796 -2.39859e-19)
(-0.0116593 0.0234093 -5.70026e-18)
(-0.0108521 0.0236212 -2.95513e-18)
(-0.0100455 0.0238175 1.35412e-18)
(-0.0092398 0.0239977 4.40566e-18)
(-0.00843481 0.024162 -2.35598e-21)
(-0.00763006 0.0243106 -6.92183e-18)
(-0.00682536 0.0244434 -4.31043e-18)
(-0.0060213 0.0245611 -8.92684e-18)
(-0.00521755 0.0246631 -8.89858e-18)
(-0.00441423 0.0247505 1.15919e-18)
(-0.00361099 0.0248222 -3.01177e-18)
(-0.00280797 0.0248803 -3.56257e-18)
(-0.00200508 0.0249237 -1.2842e-18)
(-0.00120235 0.0249527 -6.06362e-18)
(-0.000400031 0.024968 -1.80381e-18)
(0.000402188 0.0249684 7.69918e-18)
(0.00120435 0.024955 3.70777e-18)
(0.00200659 0.0249264 9.05246e-18)
(0.00280886 0.0248837 5.30729e-18)
(0.00361135 0.0248265 2.19313e-18)
(0.00441435 0.0247539 -3.44685e-19)
(0.00521798 0.0246666 -3.85141e-18)
(0.00602217 0.0245647 3.86473e-18)
(0.00682666 0.0244482 -2.5072e-18)
(0.00763125 0.024316 -1.03407e-17)
(0.00843605 0.0241682 -6.0377e-18)
(0.00924171 0.0240048 -1.28566e-18)
(-0.019443 0.0213354 6.6166e-18)
(-0.0192695 0.0211129 1.27552e-17)
(-0.0184587 0.0215023 1.46303e-17)
(-0.0176447 0.0218704 -1.55023e-18)
(-0.0168282 0.0222183 7.25294e-18)
(-0.0160103 0.0225467 4.45986e-18)
(-0.0151904 0.0228553 -4.87933e-18)
(-0.0143692 0.0231448 -7.44128e-18)
(-0.0135474 0.0234163 -2.79938e-19)
(-0.0127249 0.0236691 -9.03063e-19)
(-0.011902 0.0239043 -6.38433e-18)
(-0.011078 0.0241213 -2.75593e-18)
(-0.0102545 0.0243223 7.18295e-19)
(-0.009432 0.0245068 5.49757e-18)
(-0.00861027 0.0246751 2.41737e-19)
(-0.00778886 0.0248274 -7.22402e-18)
(-0.00696755 0.0249638 -4.64904e-18)
(-0.00614681 0.0250846 -8.83125e-18)
(-0.00532643 0.0251896 -9.44376e-18)
(-0.00450641 0.025279 1.19276e-18)
(-0.00368645 0.0253527 -1.76344e-18)
(-0.00286658 0.025412 -3.62447e-18)
(-0.00204695 0.0254565 -1.18379e-18)
(-0.00122739 0.0254861 -5.27227e-18)
(-0.000408288 0.025502 -1.77372e-18)
(0.000410667 0.0255025 6.94261e-18)
(0.00122956 0.0254885 4.29496e-18)
(0.00204855 0.0254593 9.89443e-18)
(0.0028676 0.0254155 5.2877e-18)
(0.00368677 0.0253568 2.49813e-18)
(0.00450649 0.0252826 7.30475e-19)
(0.00532691 0.0251931 -3.40425e-18)
(0.00614786 0.0250885 3.41599e-18)
(0.00696904 0.0249688 -2.57669e-18)
(0.00779027 0.0248332 -1.09028e-17)
(0.00861177 0.0246816 -6.41555e-18)
(0.00943426 0.0245145 -1.34529e-18)
(0.0102573 0.0243301 -4.48682e-18)
(-0.0198636 0.0217661 6.83148e-18)
(-0.0196716 0.0215546 1.28012e-17)
(-0.0188437 0.0219528 1.49195e-17)
(-0.0180124 0.0223291 -1.53799e-18)
(-0.0171788 0.0226849 7.49379e-18)
(-0.0163438 0.0230211 5.53128e-18)
(-0.0155069 0.0233368 -4.7476e-18)
(-0.0146685 0.023633 -7.58564e-18)
(-0.0138295 0.0239109 -1.80644e-19)
(-0.0129899 0.0241694 -1.71066e-18)
(-0.0121499 0.0244102 -6.83464e-18)
(-0.0113089 0.0246327 -3.00156e-18)
(-0.0104682 0.0248383 3.37019e-19)
(-0.00962842 0.025027 6.73264e-18)
(-0.00878951 0.0251992 2.75909e-19)
(-0.00795099 0.0253552 -7.66868e-18)
(-0.00711269 0.0254953 -4.76851e-18)
(-0.00627491 0.0256191 -8.63241e-18)
(-0.00543755 0.0257269 -9.91913e-18)
(-0.00460048 0.0258184 1.38715e-18)
(-0.00376347 0.0258944 -1.04393e-18)
(-0.00292645 0.025955 -4.21761e-18)
(-0.00208969 0.0260004 -1.54084e-18)
(-0.00125294 0.0260306 -4.74672e-18)
(-0.000416699 0.0260469 -1.52285e-18)
(0.000419308 0.0260475 6.26898e-18)
(0.0012553 0.0260329 4.66873e-18)
(0.00209138 0.0260034 1.03803e-17)
(0.0029275 0.0259582 4.88784e-18)
(0.00376375 0.0258981 2.27707e-18)
(0.00460057 0.0258222 1.19532e-18)
(0.00543809 0.0257306 -2.79745e-18)
(0.00627618 0.0256234 2.61404e-18)
(0.00711437 0.0255004 -2.30194e-18)
(0.00795268 0.0253615 -1.0462e-17)
(0.00879129 0.025206 -6.32085e-18)
(0.00963099 0.0250352 -8.87125e-19)
(0.0104711 0.0248465 -3.72543e-18)
(0.0113115 0.0246408 -1.01877e-17)
(0.0121515 0.0244175 -1.62181e-17)
(-0.0202942 0.0222072 7.5764e-18)
(-0.0200833 0.0220068 1.25569e-17)
(-0.019238 0.0224141 1.4919e-17)
(-0.018389 0.0227988 -8.68291e-19)
(-0.0175377 0.0231627 8.23846e-18)
(-0.0166851 0.0235065 5.90207e-18)
(-0.0158307 0.0238295 -5.41092e-18)
(-0.0149747 0.0241326 -7.7395e-18)
(-0.0141181 0.0244167 1.03371e-19)
(-0.0132609 0.0246811 -1.98001e-18)
(-0.0124034 0.0249276 -7.20354e-18)
(-0.0115452 0.0251559 -3.82605e-18)
(-0.0106868 0.0253661 2.8682e-19)
(-0.00982935 0.025559 7.50644e-18)
(-0.00897281 0.0257351 9.28497e-20)
(-0.00811672 0.0258948 -7.8121e-18)
(-0.00726099 0.0260385 -4.76754e-18)
(-0.00640581 0.0261654 -8.48819e-18)
(-0.00555103 0.0262757 -1.03355e-17)
(-0.00469654 0.0263695 1.74142e-18)
(-0.00384214 0.0264478 -5.59893e-19)
(-0.00298765 0.0265097 -4.73552e-18)
(-0.00213338 0.026556 -1.83421e-18)
(-0.00127906 0.026587 -4.68459e-18)
(-0.000425294 0.0266036 -1.37042e-18)
(0.000428118 0.0266042 5.70626e-18)
(0.00128158 0.0265891 5.03865e-18)
(0.00213511 0.0265589 1.05705e-17)
(0.00298865 0.0265123 4.1749e-18)
(0.0038424 0.0264509 2.14023e-18)
(0.00469668 0.0263734 1.08922e-18)
(0.00555169 0.0262797 -2.17294e-18)
(0.00640726 0.02617 1.99829e-18)
(0.00726289 0.0260438 -2.35391e-18)
(0.00811868 0.0259016 -9.52766e-18)
(0.00897485 0.0257424 -5.92291e-18)
(0.00983213 0.0255675 -3.66745e-19)
(0.0106898 0.0253745 -3.4478e-18)
(0.0115476 0.0251639 -9.55866e-18)
(0.0124051 0.0249353 -1.80499e-17)
(0.0132625 0.0246884 2.15346e-19)
(0.0141198 0.0244229 -2.21893e-18)
(-0.0207355 0.0226593 8.63442e-18)
(-0.0205051 0.0224701 1.17659e-17)
(-0.0196419 0.0228866 1.52154e-17)
(-0.0187749 0.02328 1.57727e-19)
(-0.0179054 0.0236521 9.12149e-18)
(-0.0170345 0.0240035 5.99762e-18)
(-0.0161622 0.024334 -6.62865e-18)
(-0.0152882 0.024644 -8.10759e-18)
(-0.0144135 0.0249343 9.15815e-19)
(-0.0135383 0.0252049 -2.1012e-18)
(-0.0126628 0.0254572 -7.64658e-18)
(-0.0117869 0.0256913 -4.55741e-18)
(-0.0109105 0.0259063 3.08767e-20)
(-0.010035 0.0261035 7.9023e-18)
(-0.00916039 0.0262836 2.20673e-19)
(-0.00828631 0.026447 -7.77088e-18)
(-0.00741264 0.026594 -4.64438e-18)
(-0.00653966 0.026724 -8.28902e-18)
(-0.00566706 0.0268369 -1.10279e-17)
(-0.00479471 0.026933 1.85963e-18)
(-0.00392253 0.0270136 -2.13734e-19)
(-0.00305024 0.027077 -5.07072e-18)
(-0.00217807 0.0271242 -2.11467e-18)
(-0.00130578 0.027156 -4.89115e-18)
(-0.000434105 0.0271726 -1.41477e-18)
(0.000437114 0.0271731 5.39497e-18)
(0.00130844 0.0271577 5.66848e-18)
(0.00217978 0.0271268 1.06224e-17)
(0.00305114 0.0270787 3.36243e-18)
(0.00392282 0.0270159 2.3225e-18)
(0.00479495 0.0269368 7.49276e-19)
(0.00566784 0.0268411 -2.18474e-18)
(0.00654128 0.0267288 1.6298e-18)
(0.0074148 0.0265996 -2.75101e-18)
(0.00828849 0.0264541 -8.56465e-18)
(0.00916266 0.0262911 -5.38823e-18)
(0.0100379 0.026112 -6.70041e-20)
(0.0109135 0.0259148 -3.71351e-18)
(0.0117892 0.0256993 -9.90651e-18)
(0.0126646 0.0254653 -1.9391e-17)
(0.01354 0.0252126 -6.16406e-19)
(0.0144155 0.0249413 -4.33649e-18)
(0.0152907 0.0246504 -2.05136e-18)
(0.0161648 0.0243396 8.39956e-20)
(0.0170379 0.0240092 8.76282e-18)
(-0.0211877 0.0231228 9.6732e-18)
(-0.0209374 0.0229449 1.09061e-17)
(-0.0200558 0.0233708 1.58754e-17)
(-0.0191704 0.0237732 1.25196e-18)
(-0.0182822 0.0241537 9.35931e-18)
(-0.0173925 0.0245127 6.15239e-18)
(-0.0165018 0.0248508 -7.91758e-18)
(-0.0156094 0.0251679 -8.63622e-18)
(-0.014716 0.0254645 1.84333e-18)
(-0.0138224 0.0257414 -2.14566e-18)
(-0.0129285 0.0259996 -8.2383e-18)
(-0.0120344 0.0262395 -5.52318e-18)
(-0.0111397 0.0264595 -5.15074e-19)
(-0.0102456 0.0266612 8.48532e-18)
(-0.00935248 0.0268452 9.471e-19)
(-0.00845996 0.0270124 -7.82071e-18)
(-0.00756788 0.0271627 -4.67297e-18)
(-0.00667661 0.0272956 -8.12595e-18)
(-0.00578576 0.027411 -1.14742e-17)
(-0.00489513 0.0275096 2.10659e-18)
(-0.00400473 0.0275923 7.65688e-20)
(-0.00311427 0.0276574 -5.49522e-18)
(-0.0022238 0.0277057 -2.43879e-18)
(-0.00133316 0.0277382 -4.94939e-18)
(-0.000443162 0.0277547 -1.68226e-18)
(0.000446312 0.0277551 5.18077e-18)
(0.00133593 0.0277393 6.4115e-18)
(0.00222544 0.0277076 1.06118e-17)
(0.00311505 0.0276581 2.65014e-18)
(0.00400509 0.0275939 2.66354e-18)
(0.00489549 0.0275131 3.7775e-19)
(0.00578668 0.0274154 -2.43421e-18)
(0.00667839 0.0273006 1.2763e-18)
(0.00757027 0.0271685 -3.53363e-18)
(0.00846229 0.0270195 -8.15497e-18)
(0.0093549 0.0268529 -4.63333e-18)
(0.0102485 0.0266694 3.32591e-19)
(0.0111426 0.026468 -4.28061e-18)
(0.0120366 0.0262475 -1.07857e-17)
(0.0129304 0.026008 -1.96926e-17)
(0.0138241 0.0257493 -1.23788e-18)
(0.0147183 0.0254721 -4.46287e-18)
(0.0156119 0.0251745 -5.53071e-18)
(0.0165045 0.0248565 -4.45453e-18)
(0.0173961 0.0245186 4.86482e-18)
(0.0182858 0.0241594 1.0555e-17)
(0.0191727 0.0237779 9.62111e-18)
(-0.0216514 0.0235982 1.04547e-17)
(-0.0213807 0.0234317 1.05007e-17)
(-0.0204801 0.0238671 1.60637e-17)
(-0.0195759 0.0242788 2.02322e-18)
(-0.0186686 0.0246679 9.44914e-18)
(-0.0177597 0.0250349 6.5431e-18)
(-0.0168499 0.0253805 -9.08153e-18)
(-0.0159385 0.0257049 -9.49023e-18)
(-0.0150262 0.0260081 2.11123e-18)
(-0.0141135 0.0262914 -1.65666e-18)
(-0.0132007 0.0265556 -9.06854e-18)
(-0.0122878 0.0268011 -6.58373e-18)
(-0.0113744 0.0270263 -4.36011e-19)
(-0.0104614 0.0272325 9.22998e-18)
(-0.00954929 0.0274206 1.78022e-18)
(-0.00863783 0.0275916 -7.62745e-18)
(-0.00772691 0.0277451 -5.0542e-18)
(-0.00681685 0.0278808 -8.32229e-18)
(-0.00590727 0.0279988 -1.18206e-17)
(-0.00499791 0.0281001 2.27897e-18)
(-0.00408885 0.0281848 2.47049e-19)
(-0.0031798 0.0282515 -5.93312e-18)
(-0.00227063 0.028301 -2.49643e-18)
(-0.00136122 0.0283343 -4.63397e-18)
(-0.000452482 0.0283509 -2.08372e-18)
(0.000455711 0.0283511 4.96252e-18)
(0.00136404 0.0283348 7.13043e-18)
(0.00227215 0.0283021 1.05238e-17)
(0.00318047 0.0282515 1.84792e-18)
(0.00408931 0.0281855 3.19591e-18)
(0.00499843 0.028103 2.49058e-19)
(0.00590834 0.0280032 -2.77377e-18)
(0.00681879 0.0278859 1.05152e-18)
(0.0077295 0.0277511 -4.19108e-18)
(0.00864027 0.0275986 -8.16635e-18)
(0.00955183 0.0274284 -3.91481e-18)
(0.0104642 0.0272404 5.99765e-19)
(0.0113772 0.0270345 -5.03806e-18)
(0.01229 0.0268091 -1.12388e-17)
(0.0132026 0.0265641 -1.92898e-17)
(0.0141153 0.0262994 -1.35237e-18)
(0.0150285 0.0260159 -3.55642e-18)
(0.015941 0.0257115 -5.31483e-18)
(0.0168527 0.0253864 -4.76716e-18)
(0.0177632 0.0250406 4.24286e-18)
(0.0186717 0.0246732 9.30252e-18)
(0.0195776 0.024283 8.70619e-18)
(0.0204815 0.0238708 4.31179e-18)
(0.0213826 0.0234349 3.92413e-18)
(0.0216534 0.0236009 2.25879e-17)
(-0.0221271 0.024086 1.1089e-17)
(-0.0218355 0.0239312 1.03871e-17)
(-0.0209154 0.0243763 1.61193e-17)
(-0.0199917 0.0247974 2.42296e-18)
(-0.0190649 0.0251954 9.72843e-18)
(-0.0181363 0.0255705 6.69816e-18)
(-0.0172069 0.0259239 -9.84035e-18)
(-0.0162762 0.0262556 -1.04119e-17)
(-0.0153444 0.0265658 1.81772e-18)
(-0.0144122 0.0268555 -1.18484e-18)
(-0.0134799 0.0271259 -9.80079e-18)
(-0.0125476 0.0273767 -7.10901e-18)
(-0.011615 0.0276073 -2.94529e-19)
(-0.0106827 0.0278183 9.73366e-18)
(-0.00975106 0.0280105 2.40408e-18)
(-0.00882014 0.0281851 -7.64516e-18)
(-0.00788992 0.028342 -5.56909e-18)
(-0.0069606 0.0284806 -8.17411e-18)
(-0.00603177 0.0286012 -1.15992e-17)
(-0.00510317 0.0287048 1.85546e-18)
(-0.004175 0.0287916 1.21145e-19)
(-0.00324688 0.0288599 -6.26449e-18)
(-0.00231857 0.028911 -2.30365e-18)
(-0.00139 0.0289452 -4.07418e-18)
(-0.000462069 0.0289617 -2.70204e-18)
(0.000465316 0.0289618 4.63025e-18)
(0.0013928 0.0289448 7.86521e-18)
(0.00231998 0.0289109 1.03797e-17)
(0.00324748 0.0288595 9.22714e-19)
(0.00417555 0.0287915 3.88442e-18)
(0.00510391 0.0287073 3.88467e-19)
(0.006033 0.0286054 -2.92892e-18)
(0.00696268 0.0284856 7.63723e-19)
(0.00789263 0.028348 -4.97783e-18)
(0.00882265 0.028192 -8.22029e-18)
(0.00975368 0.0280183 -3.70436e-18)
(0.0106854 0.0278258 5.11902e-19)
(0.0116177 0.0276151 -5.88907e-18)
(0.0125498 0.0273846 -1.13727e-17)
(0.0134817 0.0271342 -1.80245e-17)
(0.0144139 0.0268635 -1.16357e-18)
(0.0153465 0.0265734 -3.20407e-18)
(0.0162784 0.0262621 -3.43728e-18)
(0.0172096 0.0259297 -2.33398e-18)
(0.0181396 0.0255759 5.37601e-18)
(0.0190675 0.0252001 8.59863e-18)
(0.019993 0.0248012 8.01959e-18)
(0.0209166 0.0243798 1.57766e-18)
(0.0218374 0.0239343 1.28898e-18)
(0.0221288 0.0240885 2.19722e-17)
(-0.0226153 0.0245867 1.15061e-17)
(-0.0223024 0.0244438 1.03313e-17)
(-0.0213621 0.024899 1.60878e-17)
(-0.0204185 0.0253296 3.21936e-18)
(-0.0194717 0.0257367 1.01593e-17)
(-0.0185228 0.0261201 6.62389e-18)
(-0.0175733 0.0264815 -9.88416e-18)
(-0.0166226 0.0268209 -1.15388e-17)
(-0.0156709 0.0271381 1.39082e-18)
(-0.0147187 0.0274346 -1.24262e-18)
(-0.0137664 0.0277112 -1.0294e-17)
(-0.012814 0.0279672 -7.17155e-18)
(-0.0118617 0.0282031 -1.52427e-20)
(-0.0109096 0.028419 1.00563e-17)
(-0.00995805 0.0286155 2.38608e-18)
(-0.00900715 0.0287938 -7.40248e-18)
(-0.00805711 0.0289542 -5.43935e-18)
(-0.00710803 0.0290956 -7.81612e-18)
(-0.00615944 0.0292189 -1.14945e-17)
(-0.00521105 0.0293247 1.29218e-18)
(-0.00426329 0.0294136 -1.48104e-19)
(-0.00331559 0.0294834 -6.60197e-18)
(-0.00236767 0.0295364 -1.83591e-18)
(-0.00141952 0.0295714 -3.47704e-18)
(-0.000471933 0.029588 -3.50868e-18)
(0.000475126 0.0295879 4.27119e-18)
(0.00142221 0.0295701 8.86604e-18)
(0.00236899 0.029535 1.01932e-17)
(0.00331616 0.0294826 -1.57536e-19)
(0.00426396 0.0294129 4.43864e-18)
(0.00521208 0.029327 9.25991e-19)
(0.00616084 0.0292229 -2.82048e-18)
(0.00711022 0.0291005 4.75017e-19)
(0.00805985 0.0289598 -5.69048e-18)
(0.0090097 0.0288004 -8.01838e-18)
(0.00996068 0.0286232 -3.75219e-18)
(0.0109122 0.0284264 -2.89501e-19)
(0.0118642 0.0282105 -6.41175e-18)
(0.0128161 0.0279748 -1.11815e-17)
(0.0137679 0.0277187 -1.71317e-17)
(0.0147202 0.0274422 -1.52462e-18)
(0.0156727 0.0271452 -3.58543e-18)
(0.0166246 0.026827 -2.19272e-18)
(0.0175759 0.0264871 6.48817e-20)
(0.0185257 0.0261252 7.08945e-18)
(0.0194736 0.0257408 8.18e-18)
(0.0204195 0.0253332 8.06478e-18)
(0.0213633 0.0249023 6.34401e-19)
(0.0223042 0.024447 2.99047e-19)
(0.0226166 0.024589 2.12938e-17)
(-0.0231166 0.0251012 1.12594e-17)
(-0.0227819 0.0249704 1.03028e-17)
(-0.021821 0.0254358 1.65636e-17)
(-0.0208567 0.0258762 4.40927e-18)
(-0.0198893 0.0262924 1.04665e-17)
(-0.0189196 0.0266843 6.88264e-18)
(-0.0179494 0.027054 -9.79958e-18)
(-0.0169783 0.0274012 -1.32107e-17)
(-0.016006 0.0277256 5.42234e-19)
(-0.0150334 0.0280292 -1.40405e-18)
(-0.0140606 0.028312 -1.09122e-17)
(-0.0130876 0.0285733 -6.87436e-18)
(-0.0121148 0.0288144 6.27942e-19)
(-0.0111424 0.0290353 9.94283e-18)
(-0.0101704 0.0292362 1.69343e-18)
(-0.00919912 0.0294186 -6.71711e-18)
(-0.00822869 0.0295823 -4.48348e-18)
(-0.00725933 0.0297267 -7.27127e-18)
(-0.00629046 0.0298526 -1.18025e-17)
(-0.00532172 0.0299606 6.4076e-19)
(-0.00435383 0.0300515 -5.56235e-19)
(-0.00338602 0.0301231 -6.92095e-18)
(-0.00241798 0.0301778 -1.3053e-18)
(-0.0014498 0.0302136 -2.82786e-18)
(-0.000482087 0.0302306 -4.06385e-18)
(0.000485132 0.03023 4.19192e-18)
(0.00145232 0.0302114 9.6474e-18)
(0.00241924 0.030175 9.77378e-18)
(0.0033866 0.0301217 -1.1716e-18)
(0.00435466 0.0300503 4.87103e-18)
(0.00532307 0.0299626 1.56198e-18)
(0.00629202 0.0298565 -2.37537e-18)
(0.00726156 0.0297313 3.01688e-19)
(0.00823136 0.0295872 -6.16797e-18)
(0.00920163 0.0294245 -7.80208e-18)
(0.010173 0.0292436 -3.9475e-18)
(0.0111449 0.0290425 -1.25691e-18)
(0.0121171 0.0288214 -6.61597e-18)
(0.0130894 0.0285803 -1.07967e-17)
(0.0140616 0.0283185 -1.66769e-17)
(0.0150345 0.028036 -1.94005e-18)
(0.0160074 0.0277321 -5.14147e-18)
(0.01698 0.0274069 -2.10384e-18)
(0.0179519 0.0270594 1.57751e-18)
(0.0189223 0.0266893 9.23711e-18)
(0.0198908 0.0262962 7.32669e-18)
(0.0208576 0.0258797 8.48801e-18)
(0.0218221 0.0254391 1.95192e-18)
(0.0227836 0.0249736 1.15877e-18)
(0.0231175 0.0251033 2.08673e-17)
(-0.0236317 0.0256299 1.06274e-17)
(-0.0232747 0.0255115 1.09623e-17)
(-0.0222924 0.0259874 1.70039e-17)
(-0.021307 0.0264378 5.34231e-18)
(-0.0203182 0.0268633 1.06596e-17)
(-0.0193273 0.027264 6.76476e-18)
(-0.0183357 0.027642 -9.7901e-18)
(-0.0173436 0.0279972 -1.48234e-17)
(-0.0163502 0.0283291 -6.65431e-19)
(-0.0153566 0.0286399 -1.57392e-18)
(-0.0143627 0.0289289 -1.16315e-17)
(-0.0133686 0.0291959 -6.31414e-18)
(-0.0123746 0.029442 1.91609e-18)
(-0.0113813 0.029668 9.25754e-18)
(-0.0103884 0.0298735 6.45713e-19)
(-0.00939623 0.0300601 -5.87461e-18)
(-0.00840487 0.0302271 -3.0733e-18)
(-0.00741468 0.0303746 -7.07309e-18)
(-0.00642499 0.0305032 -1.2206e-17)
(-0.00543537 0.0306134 8.35062e-20)
(-0.00444672 0.0307062 -1.22847e-18)
(-0.00345828 0.0307797 -7.3349e-18)
(-0.00246958 0.0308359 -9.62333e-19)
(-0.00148086 0.0308725 -2.02696e-18)
(-0.000492528 0.0308898 -4.08769e-18)
(0.000495349 0.030889 4.46113e-18)
(0.00148316 0.0308696 1.01459e-17)
(0.00247079 0.0308319 9.28385e-18)
(0.00345891 0.0307775 -2.26962e-18)
(0.00444778 0.0307047 5.1786e-18)
(0.00543701 0.0306151 2.53631e-18)
(0.00642664 0.0305067 -1.54087e-18)
(0.00741683 0.0303786 -2.50643e-20)
(0.00840739 0.0302312 -6.3844e-18)
(0.00939862 0.030065 -7.36724e-18)
(0.010391 0.0298804 -4.30636e-18)
(0.0113837 0.0296749 -2.18048e-18)
(0.0123767 0.0294486 -6.66793e-18)
(0.0133698 0.0292019 -1.03176e-17)
(0.0143631 0.0289342 -1.63104e-17)
(0.0153571 0.0286454 -1.77634e-18)
(0.0163512 0.0283348 -7.22038e-18)
(0.0173449 0.0280023 -2.72991e-18)
(0.0183381 0.0276472 2.23908e-18)
(0.0193297 0.0272688 1.0714e-17)
(0.0203195 0.0268669 6.47246e-18)
(0.0213079 0.0264415 8.76189e-18)
(0.0222938 0.0259909 4.33578e-18)
(0.0232763 0.0255147 2.6575e-18)
(0.0236323 0.0256319 2.01604e-17)
(-0.0241612 0.0261736 1.00191e-17)
(-0.0237813 0.0260679 1.24024e-17)
(-0.022777 0.0265543 1.69738e-17)
(-0.0217698 0.0270151 6.43779e-18)
(-0.0207592 0.0274502 1.06949e-17)
(-0.0197463 0.0278599 6.60049e-18)
(-0.0187326 0.0282461 -9.63833e-18)
(-0.0177188 0.0286096 -1.6603e-17)
(-0.0167038 0.0289492 -2.34705e-18)
(-0.0156886 0.0292673 -1.42187e-18)
(-0.0146729 0.0295624 -1.20079e-17)
(-0.0136572 0.0298354 -6.02375e-18)
(-0.0126416 0.0300869 3.28112e-18)
(-0.0116268 0.030318 8.73747e-18)
(-0.0106123 0.030528 -4.15535e-19)
(-0.00959867 0.0307189 -4.98119e-18)
(-0.00858583 0.0308893 -1.51919e-18)
(-0.00757423 0.03104 -7.48758e-18)
(-0.00656315 0.0311713 -1.25574e-17)
(-0.00555215 0.031284 -2.60637e-19)
(-0.00454211 0.0313784 -1.77764e-18)
(-0.00353245 0.0314542 -7.72151e-18)
(-0.00252256 0.0315116 -9.00806e-19)
(-0.00151276 0.0315489 -1.28164e-18)
(-0.000503262 0.0315665 -3.68491e-18)
(0.000505807 0.0315655 4.91337e-18)
(0.00151478 0.0315454 1.02969e-17)
(0.0025237 0.0315064 8.84924e-18)
(0.00353317 0.0314508 -3.04067e-18)
(0.00454343 0.0313768 5.26096e-18)
(0.00555399 0.031285 3.41099e-18)
(0.00656483 0.0311741 -8.26861e-19)
(0.00757624 0.0310431 -5.07157e-19)
(0.00858815 0.0308924 -6.16297e-18)
(0.00960091 0.0307226 -6.43353e-18)
(0.0106148 0.0305341 -4.74576e-18)
(0.011629 0.0303243 -2.92548e-18)
(0.0126434 0.0300929 -6.61348e-18)
(0.0136579 0.0298403 -1.02667e-17)
(0.0146728 0.0295667 -1.59951e-17)
(0.0156885 0.0292714 -1.00318e-18)
(0.0167043 0.028954 -9.04868e-18)
(0.0177199 0.0286142 -3.48386e-18)
(0.018735 0.0282513 2.67026e-18)
(0.0197485 0.0278646 1.14655e-17)
(0.0207604 0.0274538 5.85598e-18)
(0.021771 0.0270191 8.62216e-18)
(0.0227786 0.0265583 6.28685e-18)
(0.0237827 0.0260711 4.37784e-18)
(0.0241617 0.0261758 1.96226e-17)
(-0.0247055 0.0267329 1.03497e-17)
(-0.0243024 0.0266401 1.38813e-17)
(-0.0232754 0.0271374 1.66478e-17)
(-0.0222457 0.0276088 7.62334e-18)
(-0.0212127 0.0280537 1.04928e-17)
(-0.0201772 0.0284726 6.23883e-18)
(-0.0191407 0.0288673 -9.23214e-18)
(-0.0181046 0.0292392 -1.83691e-17)
(-0.0170673 0.0295866 -4.49626e-18)
(-0.0160298 0.0299119 -9.30435e-19)
(-0.0149918 0.0302134 -1.24645e-17)
(-0.0139539 0.0304925 -6.17506e-18)
(-0.012916 0.0307496 4.59279e-18)
(-0.0118791 0.030986 8.40151e-18)
(-0.0108424 0.0312006 -1.28436e-18)
(-0.00980667 0.0313958 -3.7224e-18)
(-0.00877179 0.0315697 -3.94032e-20)