/*--------------------------------*- C++ -*----------------------------------*\
  =========                 |
  \\      /  F ield         | OpenFOAM: The Open Source CFD Toolbox
   \\    /   O peration     | Website:  https://openfoam.org
    \\  /    A nd           | Version:  7
     \\/     M anipulation  |
\*---------------------------------------------------------------------------*/
FoamFile
{
    version     2.0;
    format      ascii;
    class       surfaceScalarField;
    location    "28000";
    object      phi;
}
// * * * * * * * * * * * * * * * * * * * * * * * * * * * * * * * * * * * * * //

dimensions      [0 3 -1 0 0 0 0];

internalField   nonuniform List<scalar> 
28140
(
-8.50374e-23
-5.09375e-23
6.47967e-23
8.98157e-23
-1.11711e-22
-9.08618e-23
1.1231e-22
-1.26221e-22
-6.91386e-23
7.37768e-23
-1.36506e-22
-6.41723e-23
5.53574e-23
-1.11327e-22
-5.39622e-23
3.90575e-23
-1.56204e-22
-6.39282e-23
1.76713e-24
-1.86398e-22
-6.34361e-23
-2.23552e-23
-1.90437e-22
-2.40763e-23
-2.65177e-23
-1.81725e-22
1.60732e-23
-8.81085e-24
-9.677e-23
2.67188e-23
1.50488e-24
-1.00276e-22
-9.34567e-24
-6.59273e-25
-1.01222e-22
-9.87978e-24
2.38773e-23
-9.4425e-23
-4.14526e-24
6.33675e-23
-1.48198e-22
9.95523e-25
3.52037e-23
-1.42743e-22
1.20852e-23
-3.53134e-23
-8.49372e-23
-1.65858e-23
-4.49833e-23
-7.81086e-23
1.58144e-23
-1.57591e-23
-3.96546e-23
2.27245e-23
-5.6652e-23
-1.99624e-22
2.46765e-23
-1.06074e-22
-1.30705e-22
9.26252e-23
-1.07861e-22
-1.508e-22
7.17945e-23
-1.09307e-22
-1.49956e-22
1.18439e-22
-8.68474e-23
-1.11737e-22
1.163e-22
-6.47563e-23
7.12114e-23
1.04863e-22
-2.83585e-23
-3.00225e-23
2.02238e-23
-4.44024e-23
-1.21185e-23
-9.68968e-24
6.20452e-24
2.79717e-23
-3.58159e-23
-1.0194e-23
-8.50457e-23
-8.47703e-23
-5.33536e-23
-2.92498e-24
-2.14214e-23
-2.49545e-23
1.03043e-23
1.33281e-23
-4.32148e-24
-1.52572e-22
-5.73949e-23
4.95495e-23
-8.16238e-23
-4.13532e-23
-1.06671e-22
-5.7404e-23
-1.28136e-22
-6.63966e-23
-1.33882e-22
-6.58091e-23
-1.45741e-22
-1.62259e-23
-1.61082e-22
-2.41671e-23
-1.36439e-22
-3.56531e-23
-1.50169e-22
1.49671e-23
-1.93105e-22
5.80617e-23
-1.08063e-22
2.94329e-23
-6.66854e-23
-7.06734e-23
-9.22936e-23
-3.61316e-24
-1.69057e-22
5.22837e-23
-2.2566e-22
5.58219e-23
-3.49293e-23
1.08813e-22
-5.18793e-23
7.28113e-23
-4.57488e-23
4.32608e-23
-8.23397e-23
2.74284e-23
-1.55242e-22
8.73537e-24
-4.43314e-23
1.51075e-23
-1.43961e-22
-7.85931e-24
-6.96489e-23
7.15031e-23
-4.72776e-23
6.18703e-23
-9.15865e-23
5.74679e-23
-4.62616e-23
8.98076e-23
-7.99489e-23
1.1505e-22
3.37295e-23
1.27219e-22
9.7224e-23
4.8125e-23
-2.23465e-24
-2.78575e-24
-6.90507e-23
-4.53531e-23
5.63055e-23
-5.90473e-23
4.82264e-23
-8.20672e-23
6.50921e-23
-1.29958e-22
-1.69354e-23
-4.3272e-23
3.30809e-24
-1.23282e-22
-3.67652e-23
-1.22145e-22
-4.49886e-23
-3.25991e-23
9.84077e-23
-6.58966e-23
5.43312e-23
-2.257e-22
-1.36089e-23
-2.46565e-22
6.06274e-23
3.97274e-23
1.55254e-22
-1.54714e-23
4.59888e-23
-1.80305e-22
-3.61179e-23
-1.7066e-22
2.45353e-23
-1.04771e-22
7.13066e-23
-1.06644e-22
7.00874e-23
-1.00437e-22
5.05346e-23
-1.12972e-22
7.86463e-24
-1.5369e-22
5.37177e-23
-7.74512e-23
2.10149e-22
-6.52569e-23
2.60692e-22
-8.5674e-23
6.19705e-23
-3.25975e-23
1.07752e-23
-5.18434e-23
5.31789e-23
-2.00704e-23
5.98517e-23
-1.03363e-22
5.41704e-23
-4.60516e-23
5.97934e-23
2.46368e-23
6.64717e-23
3.21437e-23
-8.69663e-24
3.88434e-23
7.26242e-23
8.59608e-23
4.27924e-23
5.38207e-23
-1.30597e-22
3.87375e-23
-3.38487e-23
6.5094e-23
-6.1735e-23
5.23117e-23
-1.29414e-22
4.92777e-23
6.69805e-23
1.7482e-22
-5.71757e-23
1.58053e-22
-8.83566e-23
8.49399e-23
-1.50584e-22
5.9878e-23
-1.53133e-22
8.47408e-23
-7.81994e-23
1.0581e-22
-1.00579e-22
5.04402e-23
-1.27657e-22
4.98229e-24
-1.41289e-22
2.04581e-23
-1.18556e-22
5.12944e-23
-1.23802e-22
4.35311e-23
-1.46301e-22
4.70692e-23
-6.39887e-23
8.99076e-23
1.02643e-23
3.92097e-23
-6.43562e-23
-1.60009e-24
-2.86188e-22
-1.31582e-23
-1.07975e-22
1.15521e-22
2.59676e-23
1.14879e-22
-6.0328e-23
9.55351e-23
-5.20915e-23
6.67838e-23
-1.06588e-22
8.88618e-23
-3.6265e-23
8.89664e-23
-8.56051e-24
2.5223e-23
3.8003e-23
-1.31749e-23
1.40408e-23
2.68416e-23
5.4781e-23
4.14569e-23
4.8496e-23
-6.418e-23
4.46385e-23
-3.93339e-23
1.65306e-22
-6.45937e-23
1.3603e-22
-1.96515e-23
1.87275e-23
6.54237e-23
8.91004e-23
-1.22909e-22
4.08472e-23
-1.1072e-22
4.11886e-23
-1.27885e-22
8.57444e-23
-1.24923e-22
1.09273e-22
-1.47692e-22
1.27942e-22
-1.53179e-22
4.58848e-23
-1.32644e-22
6.52726e-24
-1.27887e-22
2.7338e-24
-1.23268e-22
4.94682e-23
-1.26988e-22
4.27723e-23
-1.06667e-22
3.9119e-23
-1.02144e-22
2.15188e-24
-1.9721e-23
3.49505e-23
-7.7554e-23
4.97028e-23
-1.30535e-22
3.02539e-23
-7.41673e-23
4.6076e-23
4.5683e-23
-3.37092e-23
-7.60646e-23
-8.43854e-23
-3.04701e-23
-4.69592e-24
-9.91381e-23
3.02523e-24
-6.197e-23
4.72549e-23
4.76698e-24
6.96542e-23
6.3521e-23
-3.25305e-23
-2.2397e-23
1.91673e-23
6.38073e-23
4.97036e-23
-2.4097e-23
3.35904e-23
3.18478e-23
-6.7698e-23
-1.28847e-23
-1.4713e-22
2.15672e-23
1.58923e-23
1.42562e-22
1.25185e-23
1.01407e-22
-8.92135e-23
9.49826e-23
-9.96241e-23
6.67467e-23
-9.04395e-23
6.61322e-23
-1.11227e-22
1.1035e-22
-2.25493e-22
-7.64708e-24
-1.89428e-22
2.07546e-24
-1.4738e-22
-1.73968e-23
-9.18154e-23
6.5821e-23
-1.38987e-22
9.53528e-23
-1.34429e-22
3.73812e-23
-1.49956e-22
3.8354e-23
-7.62471e-23
1.23673e-22
-3.84349e-23
9.95724e-23
-8.23562e-23
1.36915e-22
-1.21323e-22
7.26816e-23
-9.16587e-23
2.86606e-24
4.22301e-23
4.97395e-23
1.50852e-24
-8.16682e-23
-1.81966e-23
-3.14954e-23
-4.95937e-23
8.30105e-24
-3.59515e-23
6.34062e-23
-2.25393e-23
4.51265e-23
6.86678e-23
-6.77225e-23
-9.81378e-23
1.91527e-23
7.19285e-23
9.23662e-23
1.00255e-22
2.86085e-23
1.29359e-22
-2.85362e-23
6.90736e-23
-1.15451e-22
9.52073e-23
-2.13275e-23
2.72626e-23
3.8239e-23
1.85669e-23
-1.07615e-22
-6.72124e-24
-8.75135e-23
4.11525e-23
-7.42388e-23
9.4031e-23
-2.11812e-22
-2.6828e-23
-2.10719e-22
-2.35788e-23
-2.16745e-22
2.01422e-23
-9.00481e-23
1.00602e-22
-7.1681e-23
3.06653e-23
-1.84488e-22
-5.92263e-23
-1.39623e-22
-6.09338e-23
-7.90759e-23
-7.36665e-23
-7.89515e-23
7.50902e-23
4.86884e-24
6.08967e-23
-1.63841e-22
5.16772e-23
-1.76038e-22
6.53677e-23
-5.48028e-23
1.19602e-22
-6.40628e-23
2.8036e-23
5.93511e-23
4.96591e-23
3.74858e-23
-6.47383e-23
-2.42255e-23
2.1374e-23
-5.1875e-23
7.936e-23
-3.69813e-23
8.1403e-23
7.95178e-23
-8.64422e-23
-8.37464e-23
2.63225e-23
6.46447e-23
1.10004e-22
1.7662e-22
-1.95302e-23
3.94542e-23
1.81319e-23
2.9243e-23
-1.40853e-22
-4.94135e-23
-6.35232e-23
1.12838e-22
3.6654e-23
1.30694e-22
-5.33239e-23
4.47171e-23
-5.04317e-23
2.35161e-23
-1.50463e-22
-1.43312e-23
-2.0418e-22
5.43506e-23
-1.91565e-22
-5.74625e-23
-1.6464e-22
-2.71459e-23
-1.39934e-22
4.359e-23
-1.33687e-22
9.79783e-24
-1.89009e-22
-3.50772e-23
-1.51905e-22
8.54728e-23
1.66316e-23
1.67724e-22
-7.78127e-23
9.94455e-23
1.04908e-23
5.07149e-23
-1.63267e-22
-5.20491e-23
-1.45713e-22
6.09535e-23
-9.37997e-23
7.28228e-23
-1.82374e-23
-3.37882e-23
-1.26337e-23
4.69931e-27
9.73746e-23
8.33875e-23
4.95142e-24
5.64959e-23
-3.57775e-23
-2.69433e-23
-4.78076e-23
1.31041e-23
8.63576e-23
-9.15632e-23
-4.54859e-24
-2.01728e-23
6.70492e-23
-8.1071e-24
-1.28545e-23
1.54835e-23
5.13328e-23
-1.68256e-23
3.17865e-23
-5.18781e-23
-5.65558e-23
-4.91421e-23
7.62398e-23
3.50887e-24
3.96214e-23
-4.95179e-23
7.15343e-23
-7.58042e-23
8.41979e-23
-1.01886e-22
7.36283e-24
-2.57893e-22
-4.67116e-23
-1.78907e-22
7.15566e-23
-1.2666e-22
8.74573e-23
-1.59284e-22
1.34038e-23
-1.56526e-22
-5.9751e-23
-1.31289e-22
-7.2605e-23
-9.73481e-23
2.64978e-23
-4.09871e-23
4.38123e-23
-9.03487e-23
7.11112e-23
-5.24204e-23
4.2719e-23
-1.04057e-22
-3.68974e-23
-1.32178e-22
6.54267e-23
-1.44923e-22
5.55691e-23
3.22683e-23
4.5462e-23
5.23793e-23
-4.66667e-23
1.01178e-22
-2.13975e-22
-2.49796e-23
-1.18915e-22
1.61519e-23
-1.17896e-22
-4.02164e-23
-6.62268e-23
1.20226e-22
-1.00936e-22
-2.61951e-23
-5.16303e-23
8.6332e-23
1.35215e-23
-2.83103e-23
-2.60833e-25
6.52125e-23
-6.36654e-23
-1.30525e-22
-9.47324e-24
-1.17536e-22
-4.8804e-23
5.76028e-23
-1.44458e-24
1.50492e-24
-6.59697e-23
-9.19668e-23
-1.13253e-22
-9.29988e-23
-1.1834e-22
-1.85035e-23
-1.87667e-22
1.6107e-23
-1.82966e-22
4.63532e-23
-1.70046e-22
6.90226e-23
-2.04388e-22
-2.86457e-23
-1.53094e-22
-1.37583e-22
-8.16395e-23
-1.64673e-22
-8.2073e-23
-3.45365e-23
-3.47519e-23
-6.55516e-23
-8.70702e-23
6.22102e-23
-9.43953e-23
9.32071e-24
-6.42145e-23
1.18806e-22
-9.8893e-23
6.05454e-23
-1.31607e-22
2.96689e-23
-2.11978e-23
2.18233e-22
8.28293e-24
-5.11105e-23
1.71875e-22
-1.34725e-22
1.44758e-23
-2.71425e-22
3.93154e-23
-1.42018e-22
3.35809e-23
-7.56966e-23
4.25784e-23
-1.59331e-22
-6.4131e-23
-2.2515e-22
5.11998e-23
7.55657e-23
-1.39297e-22
-8.79718e-23
-2.05041e-22
-6.68558e-23
-1.3836e-22
5.57063e-23
-3.90024e-23
-7.25211e-23
-1.14006e-22
-2.27927e-23
-4.43676e-23
-4.62904e-23
-5.12445e-23
-7.39834e-23
-5.29134e-23
-1.11399e-22
-2.10963e-23
-1.45089e-22
7.42172e-23
-1.81765e-22
-1.23562e-22
-2.14825e-22
-1.05335e-22
-2.5361e-22
-1.56226e-23
-1.63123e-22
2.10195e-22
-2.46998e-23
1.37708e-22
-9.29652e-23
2.627e-23
2.20469e-23
8.79773e-24
-1.18898e-22
-6.8186e-23
-5.34741e-23
-8.38849e-23
-9.9326e-23
8.10024e-23
-1.11252e-22
-2.28378e-23
-4.46073e-23
-9.24342e-23
-1.24424e-22
-2.09073e-22
-3.70266e-23
-9.44778e-23
1.14901e-22
-8.16242e-24
6.43819e-23
-2.42766e-22
6.17886e-23
-1.35864e-22
4.89624e-23
-4.56926e-23
-6.84062e-23
-1.38407e-22
-4.80112e-23
-1.9859e-22
6.9347e-23
1.44138e-23
-1.23348e-22
-5.73521e-23
-1.29666e-22
-3.06409e-23
-1.56426e-22
4.2377e-23
-1.43776e-22
-3.3883e-23
-2.4069e-23
-4.37779e-23
-5.62978e-23
-3.83857e-23
-3.73217e-23
-5.25293e-23
-6.28489e-23
-6.23708e-23
-2.01853e-23
-2.33794e-22
-6.48715e-23
-1.82199e-22
-1.49726e-22
-1.6673e-22
-4.78354e-23
-1.63772e-22
-5.69395e-24
-1.91561e-22
-2.43089e-23
-6.55985e-23
3.25636e-23
-1.10385e-22
-1.65451e-22
6.61325e-24
-6.24374e-23
-1.07795e-22
-2.33208e-22
5.84286e-24
-1.87611e-22
-1.42351e-22
-7.1328e-23
-1.31021e-22
-1.04941e-22
-6.35744e-23
-2.04921e-22
-5.24147e-23
-2.16314e-22
3.11919e-23
-1.48923e-22
1.81482e-23
1.46615e-23
9.98101e-23
-3.32613e-23
1.0971e-22
-1.65649e-22
2.55347e-23
-2.23826e-22
-9.86163e-23
-7.48608e-23
-2.94656e-23
-1.73042e-22
5.72464e-23
3.9889e-23
-1.31245e-22
-7.03688e-23
-2.51309e-22
-2.27945e-23
-1.93214e-22
7.77169e-23
-1.50696e-23
-2.55204e-23
-1.80592e-22
-1.60334e-23
-6.10765e-23
-1.76606e-23
-3.02709e-23
-4.45597e-23
-6.30879e-23
-7.08841e-23
4.7147e-23
-2.65723e-22
-1.10136e-22
-1.39654e-22
2.47076e-23
-1.42563e-22
-3.94213e-23
-1.80916e-22
-1.68867e-22
-1.64049e-22
-8.43787e-24
-1.34502e-22
5.23586e-23
-8.23433e-23
-1.9457e-22
-4.66255e-23
-3.73905e-23
-7.71201e-23
-2.61008e-22
4.6583e-23
-2.88867e-22
-1.31157e-22
-2.01208e-22
-1.79757e-22
-1.96935e-22
-6.1828e-23
-3.94365e-23
-4.15851e-23
-2.23033e-22
1.29097e-22
-5.99671e-23
-9.49328e-24
-2.64402e-22
6.2437e-23
-6.80857e-23
1.29092e-22
7.59667e-25
5.25579e-23
-1.55316e-22
-2.54356e-23
-1.22762e-23
-1.7195e-23
-1.86509e-22
5.27965e-23
3.10981e-23
-1.13173e-22
-3.14452e-23
-1.79777e-22
2.57908e-23
-1.96803e-23
2.234e-23
-6.13026e-23
6.3602e-24
-3.37937e-23
-1.17181e-23
-7.08558e-23
-2.53709e-23
2.10169e-24
-1.08291e-23
-5.22156e-23
-1.04896e-22
-5.49169e-23
-2.29259e-22
1.82334e-23
-1.61638e-22
1.57039e-23
-1.86096e-22
-2.42423e-22
-1.40762e-22
-1.82673e-22
-1.37548e-22
-3.16152e-23
-2.08716e-22
-6.28454e-23
-4.12706e-23
-7.80076e-23
-1.00297e-22
-1.33225e-22
-9.97179e-23
-2.83424e-22
7.48183e-23
-7.455e-23
-1.06702e-22
-2.90376e-22
-1.27448e-22
-2.30825e-22
-1.08665e-22
-8.87325e-23
2.18874e-23
-8.08329e-23
9.13886e-23
-1.34893e-22
7.18666e-23
-1.48127e-22
6.40468e-23
1.48884e-23
6.7814e-23
3.18238e-23
7.45501e-23
-1.32382e-22
4.6277e-23
-6.30954e-24
7.55504e-24
-9.19244e-23
7.0277e-23
5.18192e-24
-9.7559e-23
2.28356e-23
-1.67734e-22
2.2484e-23
-1.78457e-23
4.14971e-23
2.15919e-23
1.36928e-23
9.73178e-23
1.33026e-24
-9.77453e-23
-3.10223e-23
-2.97347e-23
-2.22813e-23
-1.00559e-22
-6.54884e-23
-3.04786e-22
-2.27605e-22
-4.55041e-22
-2.3228e-22
-1.71702e-22
-1.64174e-22
-1.16819e-23
-9.93495e-23
-1.83019e-23
-1.45149e-22
3.2518e-23
-2.00085e-22
-4.57237e-23
-7.41003e-23
3.58559e-23
-1.3427e-22
-1.82224e-23
-5.32798e-23
-1.2187e-22
-1.95022e-24
-9.88461e-23
-8.46312e-23
5.74733e-24
-9.65633e-23
-7.40766e-23
-1.08867e-22
1.06504e-22
1.1625e-23
8.56887e-23
6.46548e-23
-1.67623e-22
1.06655e-22
-5.02495e-23
6.97122e-23
1.16103e-22
2.39715e-23
1.38964e-22
8.47395e-23
4.42324e-23
-7.49112e-23
-3.78976e-23
-2.45196e-24
-1.38818e-22
5.42972e-23
8.12437e-24
-1.09374e-22
4.9702e-23
-1.35831e-22
3.89798e-23
-4.21466e-23
7.88395e-23
1.70665e-23
-4.69977e-23
-6.45903e-23
7.81339e-24
-1.31116e-22
-5.67778e-23
-2.13678e-22
-5.63456e-23
-8.09193e-23
-1.03705e-22
-1.74062e-22
-1.61369e-22
-1.22099e-22
-1.82805e-22
-1.65822e-22
-1.51488e-22
-3.68719e-23
-8.78092e-23
1.41523e-22
-1.66277e-22
5.81631e-23
-1.65023e-22
8.7537e-23
-9.84719e-23
3.46477e-23
-1.5024e-22
7.55755e-23
-4.8459e-23
6.66624e-23
9.56899e-24
3.60144e-23
-1.15136e-22
1.47735e-23
-5.28928e-23
4.52179e-23
-1.14224e-22
1.59461e-22
-6.08642e-23
2.42737e-22
7.97107e-23
1.55731e-22
1.3292e-22
1.50476e-22
7.14004e-23
1.71382e-22
6.67109e-24
-7.63402e-24
4.30201e-23
1.80926e-23
-5.49761e-24
-2.17414e-25
-2.41908e-23
-1.16265e-22
3.87159e-23
1.14897e-23
-1.17335e-22
6.21899e-23
-1.77977e-22
4.01363e-23
-8.86813e-24
3.95384e-23
-6.29745e-23
-3.82988e-23
-2.60476e-22
-2.37902e-23
-1.94814e-22
-3.50465e-23
-2.46128e-22
-6.50136e-23
-7.9218e-23
-9.00664e-23
-2.13976e-22
-1.54304e-22
-1.20969e-22
-1.52973e-22
-1.51429e-22
-9.66762e-23
1.09879e-22
-1.17203e-22
-1.20301e-22
-1.5342e-22
1.04197e-22
-1.8302e-22
1.45401e-22
-7.31452e-23
-5.81327e-23
-1.49282e-22
-2.80388e-22
-5.56306e-23
-2.29106e-23
1.53784e-23
-1.78147e-22
-9.96558e-23
6.69427e-23
-4.63475e-23
1.82021e-22
-9.35272e-23
1.80027e-22
-7.75017e-23
1.90604e-22
8.59058e-23
2.57236e-22
1.40676e-22
1.38486e-22
4.04049e-23
3.28104e-23
1.79231e-23
-2.86174e-23
4.07546e-23
2.22209e-23
-1.29985e-23
1.82319e-23
-2.02728e-23
-1.53014e-22
4.964e-23
-8.86565e-24
-6.96779e-23
8.41971e-23
-2.26818e-22
4.69931e-23
-1.77873e-22
1.43433e-24
-5.13396e-23
-2.89306e-23
-5.36804e-23
-3.27851e-23
-2.21046e-22
2.36051e-24
-1.02171e-22
-7.15757e-23
-2.24868e-22
-7.73607e-23
-2.79202e-22
-1.58662e-22
-3.54599e-22
-9.77725e-23
-2.45447e-22
-1.38569e-22
-1.24983e-22
-6.44049e-23
-4.41708e-24
-1.47231e-22
-8.82936e-23
-2.25372e-22
-3.40029e-23
-1.10525e-22
1.16106e-22
-9.86344e-23
-1.13803e-23
-7.86658e-23
-7.12668e-23
6.01771e-23
-1.16162e-22
-6.41331e-23
-3.78372e-23
-4.83177e-23
1.25384e-22
-8.42917e-23
1.49826e-22
-3.21352e-23
1.44435e-22
6.27926e-23
1.61952e-22
1.03519e-22
1.04973e-22
1.62703e-23
1.51818e-22
3.16228e-23
1.36082e-22
3.30428e-23
9.80475e-24
2.17931e-23
1.98377e-23
-1.33913e-23
-1.39664e-22
6.41803e-23
-5.46022e-23
-2.08128e-22
1.06049e-22
-8.49617e-23
5.67006e-23
-3.4418e-22
1.59641e-23
-2.26196e-22
-5.77045e-23
-2.27316e-22
-1.9085e-23
-3.35784e-22
-1.55541e-23
-1.80535e-22
-6.63643e-23
-1.89862e-22
-1.17118e-22
-5.30114e-22
-1.26112e-22
-3.98788e-22
-7.90675e-23
-2.87223e-22
-1.0154e-22
-1.35646e-22
-7.27012e-23
-1.14383e-22
-1.38881e-22
-3.89978e-23
-1.96843e-22
5.19443e-23
-1.32597e-22
4.09523e-23
-1.19774e-22
-2.06234e-22
-7.46186e-23
-1.11545e-22
6.99998e-23
-1.95411e-23
-3.03702e-23
3.42694e-23
-3.12991e-23
1.24961e-22
-8.3404e-23
1.60289e-22
-1.45282e-23
8.69685e-23
6.50854e-23
1.48097e-22
1.1725e-22
8.48325e-23
-1.75199e-23
6.07802e-23
1.61159e-23
3.60492e-22
2.99588e-23
-1.44102e-23
2.41302e-23
8.51593e-24
-4.3655e-23
-1.43407e-22
7.27724e-23
-2.66676e-23
-1.94947e-22
4.99667e-23
-1.31477e-22
8.64626e-23
-3.39724e-22
1.41016e-23
-1.74537e-22
-8.769e-23
-1.64701e-22
5.91978e-24
-7.73895e-23
-3.27865e-23
-1.61462e-22
-1.17075e-22
-3.47101e-22
-9.36904e-23
-5.55424e-22
-9.90605e-23
-4.58733e-22
-6.27993e-23
-3.19221e-22
-7.62419e-23
-1.7326e-22
-5.53447e-23
-1.55098e-22
-1.2846e-22
-2.15994e-22
-1.92574e-22
-1.05983e-22
-1.63752e-22
2.29497e-23
-1.09603e-22
1.68564e-23
-5.65873e-23
1.03014e-22
8.77327e-23
3.62283e-22
-3.53862e-23
-2.16338e-23
-1.22036e-23
1.2074e-22
-9.26415e-23
5.01383e-23
6.73264e-24
2.47087e-22
6.31678e-23
1.0091e-22
1.31387e-22
1.59604e-23
4.0577e-23
-7.2614e-23
-4.02468e-23
2.59119e-22
1.59634e-23
1.78051e-22
8.47068e-23
-7.88899e-24
-6.39083e-23
-1.25477e-22
9.66017e-23
-6.58083e-24
-2.15388e-22
3.15029e-23
-1.89777e-22
1.13462e-22
-1.88488e-22
1.71139e-23
-2.66786e-22
-5.64595e-23
-3.55532e-22
6.34724e-25
-2.1434e-22
-5.40375e-23
-3.6201e-22
-1.45739e-22
-2.35524e-22
-7.73361e-23
-4.14412e-22
-7.39737e-23
-4.89143e-22
-4.14432e-23
-4.00501e-22
-5.83453e-23
-1.88868e-22
-5.8135e-23
-3.51918e-22
-1.1216e-22
-3.45407e-22
-1.71237e-22
-4.00163e-23
-1.5032e-22
-1.32135e-23
-9.88532e-23
-2.16051e-23
-4.74686e-24
2.83031e-22
2.03412e-23
3.93542e-22
-3.32894e-23
5.70142e-23
-9.4393e-24
1.99266e-22
-6.99411e-23
-1.03965e-22
-1.38487e-23
2.17899e-22
4.48698e-23
1.13538e-22
1.1148e-22
-7.83966e-23
9.33587e-23
-6.87797e-23
-5.62045e-23
-4.25104e-23
6.18655e-24
1.4149e-22
9.39288e-23
-2.64386e-23
-6.23985e-23
-1.86801e-22
1.08315e-22
-3.83965e-24
3.26319e-24
4.89969e-23
-4.07588e-23
9.55297e-23
5.34671e-24
3.91544e-24
-3.40343e-22
-3.53897e-23
-2.75359e-22
-2.70618e-23
-2.44879e-22
-4.87437e-23
-3.90065e-22
-1.5775e-22
-3.89111e-22
-1.07622e-22
-2.70224e-22
-4.59964e-23
-1.30474e-22
-1.43554e-23
-2.23563e-22
-6.5323e-23
-1.43431e-22
-5.34039e-23
-3.50239e-22
-7.0252e-23
-2.85752e-22
-1.62758e-22
-1.26359e-22
-1.37063e-22
-6.17062e-23
-6.2218e-23
-2.51686e-23
1.42918e-23
2.10243e-22
-1.475e-23
2.06308e-23
-1.78435e-23
9.41112e-23
-3.23606e-23
2.43567e-22
-3.39517e-23
-8.20069e-23
-1.94339e-23
2.71385e-22
2.01497e-23
1.71666e-22
1.16369e-22
6.92656e-23
8.40708e-23
-5.27216e-23
-1.62889e-23
7.07284e-24
-1.71346e-23
1.11882e-22
1.09188e-22
-3.7763e-23
-4.07465e-23
3.51113e-23
1.37775e-22
-1.84104e-23
-2.98865e-23
7.1767e-23
9.24964e-23
5.93027e-23
-1.99077e-22
-1.10276e-26
-4.7415e-22
-3.26966e-23
-2.13908e-22
-3.8457e-23
-4.64755e-22
-5.76808e-23
-3.32908e-22
-1.33768e-22
-2.97562e-22
-8.6191e-23
-3.0374e-22
-5.05256e-23
-2.06391e-22
-1.94178e-23
-2.85785e-22
-8.40303e-23
-2.01773e-22
-3.69667e-23
-3.98277e-22
-4.98744e-23
-4.90942e-22
-1.49243e-22
-2.12686e-22
-1.21543e-22
-8.79893e-23
-2.71207e-23
-5.1951e-23
-1.1446e-23
1.00306e-22
1.00728e-23
6.58496e-24
-1.01694e-23
1.54298e-22
-5.66201e-23
7.1864e-23
-2.92769e-24
-8.72274e-23
-8.45789e-24
1.85783e-22
2.05504e-24
6.13139e-23
1.0016e-22
1.29311e-23
7.82315e-23
7.16896e-23
-1.03104e-23
4.91018e-23
6.22509e-24
4.5416e-23
-5.53322e-23
-5.76004e-23
-3.02565e-23
1.63158e-22
1.22318e-22
-8.577e-24
-4.75506e-23
2.47193e-23
1.83262e-23
4.87982e-23
3.91546e-23
2.24303e-23
-4.48923e-22
-5.41686e-23
-2.77557e-22
-1.47028e-23
-1.86869e-22
-3.89716e-23
-2.99539e-22
-1.24857e-22
-3.94197e-22
-7.68361e-23
-1.23457e-22
-3.65385e-23
-5.25399e-23
-2.01146e-23
-3.35284e-22
-1.03105e-22
-2.06507e-22
-4.55841e-23
-2.1978e-22
-1.7859e-23
-3.11744e-22
-1.33429e-22
-3.15052e-22
-1.05093e-22
-1.04141e-22
-1.78157e-23
-9.86988e-23
-1.20128e-23
1.39552e-22
2.30518e-23
1.66567e-22
-3.30815e-23
1.78903e-22
-6.46904e-23
1.53415e-22
1.022e-23
1.01666e-22
-2.12096e-23
2.13383e-22
3.61253e-24
1.07609e-22
1.00152e-22
-3.77619e-24
8.05888e-23
-1.21633e-22
-5.92277e-24
-9.44115e-23
5.68128e-24
-1.42901e-23
-2.55774e-22
-4.76525e-23
-3.95317e-23
1.59629e-22
8.26639e-23
4.20917e-24
-4.99911e-23
1.91838e-23
-1.13356e-23
7.65623e-24
5.54537e-23
4.01492e-23
-2.23358e-22
-2.29678e-23
-1.57943e-22
-3.32978e-23
-8.40768e-23
-3.76904e-23
-2.07122e-22
-9.89678e-23
-4.69883e-22
-7.31452e-23
-1.67037e-22
-5.97932e-23
-8.6256e-23
-1.59329e-23
-5.4982e-22
-9.79603e-23
-3.81289e-22
-4.67666e-23
-2.56389e-22
-1.65232e-23
-3.62258e-22
-1.04311e-22
-2.33538e-22
-9.85894e-23
7.63404e-23
-2.32043e-24
7.10827e-23
1.27865e-23
1.57312e-22
1.52052e-23
1.55642e-22
-2.6029e-23
1.95195e-22
-6.0966e-23
1.57645e-22
2.91053e-24
4.52468e-23
-2.79175e-23
2.73058e-24
8.97335e-24
-9.55448e-23
8.56156e-23
-1.96859e-22
8.25054e-23
-7.72477e-23
-2.30369e-24
-2.56561e-22
-3.02918e-24
-7.15439e-23
-3.48788e-22
-2.94164e-24
-4.34611e-23
1.70998e-22
5.68922e-23
-8.851e-24
-3.0216e-23
2.38716e-23
-2.3306e-23
-1.86679e-23
-1.22771e-22
4.5507e-23
-5.0151e-23
-1.33558e-23
-3.01028e-23
-4.4711e-23
-2.32113e-22
-6.15998e-23
-1.44925e-22
-6.50376e-23
-2.29377e-22
-7.37093e-23
-3.40181e-22
-9.14956e-23
-3.44251e-23
-1.77398e-24
-1.93891e-22
-8.46602e-23
-1.12989e-22
-5.43541e-23
-9.85481e-23
-1.54289e-24
-1.50647e-22
-6.96826e-23
-2.00841e-22
-9.51626e-23
-1.42901e-22
1.69643e-23
2.10988e-22
1.33016e-23
2.10818e-22
1.01802e-23
-9.3464e-23
-2.15297e-23
1.64728e-22
-6.89072e-23
-6.50009e-23
-8.0268e-24
1.9182e-22
-2.9186e-23
2.21052e-22
1.56988e-24
6.15558e-23
1.16219e-22
-3.06571e-23
6.6542e-23
-2.10421e-22
1.58182e-23
-2.25963e-22
-1.28512e-23
-7.67222e-23
-8.62532e-23
3.29119e-23
-5.57437e-23
1.44257e-22
4.6376e-23
-9.91396e-24
-4.20729e-23
7.98395e-24
-5.6391e-23
7.00604e-24
-1.02014e-22
5.0307e-23
-8.73541e-23
-2.90628e-23
2.33635e-23
-3.31347e-23
-1.57723e-22
-6.91977e-23
-3.8114e-22
-7.69392e-23
-1.7623e-22
-4.8224e-23
-3.5898e-22
-1.04168e-22
-1.48788e-22
1.13214e-23
-9.69521e-23
-7.68733e-23
-2.18539e-22
-5.54316e-23
-1.46476e-22
2.88283e-24
4.60282e-23
-6.28202e-23
-1.17633e-22
-6.15274e-23
-1.31602e-22
2.14517e-23
1.97093e-22
-1.27323e-23
-1.51422e-22
3.12434e-23
8.79519e-23
-4.1878e-23
2.00592e-22
-4.29546e-23
1.36338e-22
-1.25757e-23
1.0917e-22
-3.89098e-23
2.01317e-22
-2.14519e-23
6.11714e-23
9.77894e-23
1.43983e-22
6.83304e-23
-1.26143e-22
1.06036e-23
-3.38517e-22
-2.83162e-24
-8.00935e-23
-1.51089e-22
3.15316e-23
-7.28555e-23
-1.44282e-23
3.16803e-23
-9.27483e-24
1.01454e-22
6.17067e-24
-9.5056e-23
1.81536e-23
3.24019e-23
6.6122e-23
5.74602e-23
-4.89723e-23
-4.39654e-23
-4.66356e-23
7.20721e-23
-6.19722e-23
-3.52641e-22
-8.90531e-23
-2.96691e-22
-3.24079e-23
-1.39861e-22
-8.78822e-23
-3.16074e-23
7.34204e-24
2.82397e-22
-7.45948e-23
-1.54416e-22
-3.57486e-23
-1.4911e-22
-7.57414e-24
-1.59437e-23
-6.30641e-23
-2.60227e-22
-3.40279e-23
-1.35377e-22
-7.26969e-24
2.9296e-23
8.92207e-24
8.53983e-23
4.0403e-23
4.47577e-23
-4.34975e-23
3.38737e-23
-3.76668e-23
6.51985e-23
-1.82583e-24
2.64529e-23
-4.79049e-23
2.56265e-23
-4.91279e-24
5.2083e-24
6.79207e-23
1.4144e-22
4.94327e-23
-2.36369e-22
3.04169e-23
-7.77508e-23
-2.30122e-23
-4.43121e-23
1.47806e-22
3.7463e-23
-6.80192e-23
-4.17921e-25
5.11283e-23
-2.37921e-23
2.66411e-22
1.79228e-23
-1.39524e-22
2.00175e-23
5.89591e-23
6.10465e-23
1.6398e-22
-3.65014e-23
-1.25617e-22
-7.51246e-23
-6.84763e-23
-6.12286e-23
-3.14727e-22
-6.38877e-23
-7.33547e-24
-2.42546e-23
-1.06873e-22
-6.06496e-23
-1.61572e-22
-2.0841e-23
6.13744e-23
-8.10194e-23
-2.73202e-22
-2.04259e-23
-1.84049e-22
-2.7813e-23
-2.5514e-22
-4.29865e-23
-2.48291e-22
-3.11424e-23
-3.29998e-22
8.24445e-24
2.51709e-23
4.46792e-24
1.1646e-22
4.32029e-23
2.47181e-22
-4.523e-23
-1.10763e-22
-4.69224e-23
6.53707e-23
-5.7676e-24
2.00013e-23
-3.66169e-23
2.1331e-23
5.79647e-24
-1.87234e-23
3.84876e-23
-7.96343e-23
5.81177e-23
-1.57205e-23
3.63395e-23
-2.91585e-23
-1.51185e-23
-1.63116e-22
2.5792e-22
1.84406e-24
-6.54027e-23
-4.54524e-23
7.47306e-23
-4.56743e-23
3.17973e-22
2.85713e-23
2.51053e-23
2.76471e-23
3.35196e-23
4.5219e-23
1.01692e-22
-4.13618e-23
-2.82476e-23
-8.60981e-23
-2.11987e-24
-6.2209e-23
-2.87222e-22
-5.17244e-23
1.86367e-23
-3.00304e-23
-1.17874e-22
-4.72061e-23
-6.38185e-23
-3.77278e-23
1.10697e-22
-8.10365e-23
-1.96105e-22
-2.22288e-23
-2.5741e-23
-2.59838e-23
-2.24564e-22
-4.37386e-23
-4.94952e-23
-1.03094e-23
-5.96645e-23
2.40792e-23
2.24879e-22
7.86514e-24
2.10896e-22
2.29417e-23
2.26178e-22
-3.21439e-23
-1.13355e-22
-4.86094e-23
1.26951e-22
5.34416e-25
1.9018e-22
-4.1151e-23
5.60863e-23
1.33122e-23
-2.26717e-23
4.93982e-23
-1.01757e-22
4.84901e-23
-2.78111e-24
2.74861e-23
1.69115e-23
1.02489e-23
-6.80603e-23
1.02378e-22
-3.47816e-23
-5.05546e-23
-5.47664e-23
6.90362e-23
-3.85513e-23
3.36878e-22
1.9064e-23
1.35453e-23
3.38267e-23
1.44893e-24
5.66071e-23
8.83361e-23
-5.04258e-23
-2.68505e-22
-7.86641e-23
-8.69377e-24
-4.1223e-23
-2.74569e-22
-6.02882e-23
5.70727e-23
-2.64144e-23
-9.26037e-23
-3.88186e-23
6.86011e-24
-4.99029e-23
-3.24234e-23
-7.28791e-23
3.68707e-23
-3.14388e-23
-2.78533e-23
-1.16606e-23
-5.93485e-23
-3.71315e-23
-5.59849e-24
1.70256e-24
-2.55575e-23
3.34066e-23
2.27642e-22
8.08073e-25
5.51766e-23
4.6352e-24
2.53942e-22
-1.5288e-23
7.13827e-23
-4.91719e-23
1.27567e-23
-1.71097e-23
1.5117e-22
-4.81934e-23
1.18626e-22
-5.66582e-24
3.73297e-22
5.76275e-23
8.2207e-23
4.27058e-23
2.04137e-23
2.64551e-23
-1.24574e-22
-1.29818e-23
2.59044e-23
1.08471e-22
-3.47691e-23
-4.55758e-23
-3.44854e-23
7.40545e-23
-4.99054e-23
3.34539e-22
1.54168e-23
-3.37216e-24
4.47554e-23
-3.07485e-24
2.96297e-23
-7.5981e-23
-4.54564e-23
-3.99676e-22
-8.79545e-23
8.5464e-24
-2.51973e-23
-8.71928e-23
-6.17759e-23
1.13065e-22
-1.68637e-23
5.4707e-23
-4.2119e-23
4.7373e-23
-3.53458e-23
7.58188e-24
-8.41133e-23
1.03379e-22
-2.4758e-23
2.23978e-22
-8.04153e-24
1.44861e-22
-3.23339e-23
3.97646e-23
1.25634e-23
1.32303e-22
3.00406e-23
2.64566e-22
7.04681e-24
1.0416e-22
2.12703e-24
2.36938e-22
-3.54037e-23
1.05225e-22
-3.95066e-23
5.64078e-23
-1.06566e-23
1.65161e-22
-3.59466e-23
1.52632e-22
-1.21572e-23
2.35773e-22
5.03885e-23
9.25448e-23
3.26881e-23
1.93162e-22
4.14138e-23
1.61611e-22
-5.82798e-25
-1.49601e-22
-1.85119e-23
-4.95752e-23
-3.02736e-23
-5.36755e-23
6.51383e-23
-5.83578e-23
1.58153e-22
2.13765e-23
1.91119e-22
2.56884e-23
2.24645e-23
2.42605e-23
1.45859e-22
-3.81298e-23
-3.10842e-22
-8.45314e-23
1.64855e-23
-2.82352e-23
3.04346e-23
-5.40455e-23
1.51881e-22
-2.2023e-23
5.50535e-23
-4.26754e-23
3.91655e-23
-2.55968e-23
5.94765e-23
-7.8322e-23
5.34522e-23
-2.32922e-23
3.27649e-22
-1.63371e-23
1.64168e-22
-1.93438e-23
4.10447e-23
1.2151e-23
9.3658e-23
2.73276e-23
3.25419e-22
8.92464e-24
-9.23623e-24
-1.16818e-24
5.89254e-23
-3.46464e-23
1.40059e-22
-2.81196e-23
2.75364e-22
-4.06663e-24
1.51649e-22
-2.40393e-23
1.33455e-22
-1.9869e-23
8.71751e-23
6.20821e-23
2.61124e-22
2.79979e-23
-2.76895e-23
3.02998e-23
1.20191e-22
-5.05054e-24
-1.31387e-22
-1.76892e-22
-4.3003e-23
-1.93437e-23
-4.60927e-23
5.37677e-23
-5.02518e-23
2.16298e-22
2.05492e-23
4.25551e-22
2.26764e-23
1.09486e-22
2.34821e-23
1.70558e-22
-1.90721e-23
-3.13183e-22
-7.27791e-23
3.74562e-23
-1.26052e-23
1.69402e-22
-5.87411e-23
-2.86074e-23
-2.02475e-23
8.77878e-23
-4.0734e-23
5.92196e-23
-1.99227e-23
2.59603e-22
-6.29817e-23
1.02171e-22
-2.80473e-23
2.95195e-22
-2.23334e-23
1.39188e-22
-1.3375e-23
2.50507e-22
1.5432e-23
7.5527e-23
1.89383e-23
3.45196e-22
1.90692e-24
-9.29135e-24
3.43779e-24
6.90524e-23
-3.11166e-23
1.11207e-22
-3.72096e-23
2.86791e-22
-6.89217e-24
1.24039e-22
-4.38107e-23
1.6236e-22
-1.31493e-23
1.12714e-22
4.70371e-23
2.24383e-22
3.65784e-23
-8.88632e-23
2.71148e-23
1.44834e-22
-2.54926e-23
-5.3856e-23
-1.87299e-22
-3.0511e-23
-2.15617e-24
3.30299e-22
5.21571e-23
-4.83356e-23
6.99869e-23
2.61605e-23
6.35482e-22
1.2475e-23
1.49092e-22
9.77863e-24
1.97754e-22
-1.53227e-23
-3.23067e-22
-5.99046e-23
-8.35322e-23
-2.51956e-23
9.74274e-23
-4.56406e-23
8.73568e-24
-2.34897e-23
2.67998e-22
-2.83651e-23
9.20344e-23
-2.49869e-23
2.41427e-22
-5.44703e-23
1.39443e-22
-3.37866e-23
3.09898e-22
-1.30243e-23
1.3201e-22
-2.23697e-23
7.90751e-23
2.298e-23
1.01628e-22
1.35263e-23
4.17707e-22
-2.03451e-24
3.32821e-23
1.18358e-23
2.87628e-22
-3.17072e-23
1.25345e-22
-3.91333e-23
1.09685e-22
-4.71872e-24
1.10625e-22
-4.1412e-23
3.76477e-22
-1.45784e-23
1.81863e-22
3.32463e-23
3.67152e-22
3.68965e-23
4.88914e-23
2.62513e-23
1.58038e-23
-3.50821e-23
-2.99775e-22
-2.10449e-22
-2.3956e-23
-4.33142e-24
4.8032e-22
3.62283e-23
-2.99307e-23
1.07801e-22
6.9378e-24
6.78996e-22
-3.65504e-24
4.243e-24
3.72902e-24
1.49933e-22
-2.08038e-23
-2.78614e-22
-4.40514e-23
1.30692e-22
-2.41744e-23
8.18325e-23
-3.4805e-23
2.06779e-22
-2.91646e-23
3.11591e-22
-1.97382e-23
3.49844e-22
-2.49499e-23
2.61129e-22
-5.04716e-23
1.76467e-22
-3.65776e-23
3.10233e-22
-1.42491e-23
1.54329e-22
-1.90522e-23
1.31111e-22
3.10447e-23
2.85954e-22
1.82849e-24
2.99731e-22
5.33368e-24
7.67622e-23
5.78921e-24
1.26069e-22
-3.22413e-23
1.38435e-22
-3.98692e-23
5.69455e-23
1.11262e-23
5.56469e-23
-4.16287e-23
-7.06493e-23
-1.11581e-23
1.62947e-22
2.50827e-23
3.67192e-22
4.44023e-23
2.15369e-23
4.65326e-24
-1.46605e-22
-3.14138e-23
-2.08646e-22
-1.9775e-22
-2.28473e-23
-2.51016e-23
3.62057e-22
1.70343e-23
-1.7173e-23
1.06406e-22
-2.96743e-24
5.03941e-22
-5.97581e-24
1.34357e-23
-3.00683e-24
1.59708e-22
-5.45896e-24
-5.63754e-23
-4.17361e-23
1.69576e-22
-1.71307e-23
2.38881e-22
-3.38094e-23
2.05682e-22
-1.75884e-23
3.15799e-22
-2.64923e-23
3.11546e-22
-2.45461e-23
2.37538e-22
-4.79764e-23
2.07569e-22
-4.00193e-23
3.10558e-22
-1.55573e-23
1.57701e-22
-6.47691e-24
2.18719e-22
2.68839e-23
2.64278e-22
-1.19683e-24
2.71012e-22
-2.62024e-24
2.35126e-22
1.17264e-23
1.16769e-22
-4.43241e-23
-6.92752e-23
-3.39378e-23
4.09596e-23
5.23508e-24
2.79511e-22
-2.6794e-23
2.41694e-22
-1.12955e-23
-1.61056e-24
2.26799e-23
5.15229e-22
2.12675e-23
2.67001e-23
5.5591e-24
-1.19505e-22
-1.85478e-23
-1.96187e-22
-1.44141e-22
-2.05597e-23
-1.5126e-23
2.14379e-22
1.22403e-23
-1.35163e-23
2.41356e-22
-1.67554e-23
4.68838e-22
-8.59106e-24
1.79302e-22
-2.42187e-24
7.68329e-23
-1.32233e-24
1.09029e-22
-3.22397e-23
1.46809e-22
-1.46095e-23
1.98149e-22
-3.42081e-23
1.67756e-22
-1.13054e-23
3.23368e-22
-3.41724e-23
3.10475e-22
-2.47521e-23
2.04054e-22
-4.42523e-23
1.56595e-22
-4.11455e-23
2.95607e-22
-1.21282e-23
3.17859e-22
-4.82837e-24
2.67389e-22
2.43208e-23
2.97551e-22
2.32854e-24
2.88095e-22
-1.3575e-23
2.07231e-22
3.42464e-24
1.15028e-22
-3.40382e-23
1.67262e-23
-2.57584e-23
1.20779e-22
7.40317e-25
2.97227e-22
-3.27939e-23
3.16725e-22
3.97787e-24
1.63166e-22
8.01104e-24
4.68021e-22
5.9449e-24
4.95442e-23
7.87033e-24
-1.31335e-22
-2.07575e-23
-1.65411e-22
-1.33403e-22
-2.44719e-23