/*--------------------------------*- C++ -*----------------------------------*\
  =========                 |
  \\      /  F ield         | OpenFOAM: The Open Source CFD Toolbox
   \\    /   O peration     | Website:  https://openfoam.org
    \\  /    A nd           | Version:  7
     \\/     M anipulation  |
\*---------------------------------------------------------------------------*/
FoamFile
{
    version     2.0;
    format      ascii;
    class       volScalarField;
    location    "104000";
    object      omega;
}
// * * * * * * * * * * * * * * * * * * * * * * * * * * * * * * * * * * * * * //

dimensions      [0 0 -1 0 0 0 0];

internalField   nonuniform List<scalar> 
4814
(
0.258942
0.257807
0.256786
0.255879
0.295877
0.293124
0.29049
0.287963
0.285543
0.283229
0.281026
0.278932
0.27695
0.275081
0.273327
0.271688
0.270164
0.268756
0.267464
0.266289
0.265232
0.264292
0.263471
0.262767
0.262179
0.261709
0.261356
0.26112
0.261002
0.261002
0.261119
0.261353
0.261704
0.262174
0.26276
0.263464
0.264286
0.265225
0.305851
0.302999
0.300271
0.297655
0.295148
0.292752
0.290469
0.2883
0.286247
0.284312
0.282496
0.280798
0.279219
0.27776
0.276422
0.275205
0.27411
0.273137
0.272286
0.271556
0.270948
0.270461
0.270095
0.269851
0.269729
0.269728
0.26985
0.270092
0.270456
0.270943
0.271551
0.27228
0.273131
0.274103
0.275197
0.276412
0.277751
0.279211
0.280792
0.282492
0.284311
0.316345
0.313389
0.310563
0.307851
0.305254
0.302771
0.300405
0.298158
0.29603
0.294025
0.292143
0.290383
0.288747
0.287235
0.285847
0.284586
0.283451
0.282443
0.281561
0.280805
0.280175
0.27967
0.279291
0.279038
0.278911
0.278911
0.279037
0.279288
0.279665
0.28017
0.2808
0.281555
0.282437
0.283445
0.284578
0.285838
0.287225
0.288738
0.290377
0.292139
0.294024
0.296032
0.298161
0.300408
0.327397
0.324331
0.321401
0.31859
0.315897
0.313323
0.31087
0.30854
0.306334
0.304255
0.302303
0.300479
0.298782
0.297214
0.295775
0.294467
0.29329
0.292245
0.29133
0.290546
0.289893
0.289369
0.288976
0.288714
0.288583
0.288582
0.288713
0.288974
0.289364
0.289888
0.290542
0.291325
0.292239
0.293284
0.294459
0.295766
0.297203
0.298773
0.300472
0.302299
0.304254
0.306336
0.308544
0.310873
0.339046
0.335866
0.332826
0.329911
0.327117
0.324447
0.321902
0.319485
0.317196
0.31504
0.313016
0.311122
0.309361
0.307735
0.306242
0.304885
0.303664
0.302579
0.30163
0.300817
0.300139
0.299596
0.299188
0.298916
0.29878
0.298779
0.298915
0.299185
0.299591
0.300135
0.300813
0.301625
0.302574
0.303657
0.304877
0.306232
0.307724
0.309353
0.311115
0.313011
0.31504
0.317199
0.319489
0.321906
0.351338
0.348037
0.344883
0.341857
0.338958
0.336186
0.333545
0.331035
0.32866
0.326423
0.324321
0.322355
0.320527
0.318839
0.317289
0.31588
0.314613
0.313486
0.312501
0.311656
0.310953
0.310389
0.309965
0.309684
0.309542
0.309541
0.309682
0.309963
0.310384
0.310949
0.311653
0.312497
0.313481
0.314606
0.315871
0.317279
0.318828
0.320518
0.322348
0.324316
0.326422
0.328663
0.33104
0.333548
0.364321
0.360893
0.357618
0.354476
0.351466
0.348587
0.345844
0.343238
0.340771
0.338448
0.336265
0.334223
0.332324
0.330571
0.32896
0.327496
0.32618
0.32501
0.323986
0.323109
0.322379
0.321793
0.321353
0.32106
0.320913
0.320913
0.321058
0.321351
0.321788
0.322375
0.323106
0.323983
0.325005
0.326173
0.327488
0.32895
0.330559
0.332315
0.334215
0.33626
0.338447
0.340775
0.343243
0.345848
0.348585
0.378049
0.374487
0.371085
0.36782
0.364693
0.361701
0.358851
0.356143
0.35358
0.351166
0.348897
0.346775
0.344801
0.342979
0.341306
0.339784
0.338416
0.337199
0.336135
0.335223
0.334464
0.333855
0.333398
0.333094
0.332941
0.332941
0.333092
0.333396
0.333851
0.334461
0.335221
0.336132
0.337195
0.338409
0.339775
0.341295
0.342966
0.344792
0.346767
0.348892
0.351165
0.353584
0.356149
0.358855
0.3617
0.392581
0.388878
0.385341
0.381947
0.378696
0.375586
0.372623
0.369807
0.367142
0.364632
0.362273
0.360066
0.358013
0.356119
0.354378
0.352795
0.351372
0.350107
0.349
0.348052
0.347263
0.346629
0.346154
0.345838
0.345679
0.345678
0.345836
0.346151
0.346625
0.347259
0.34805
0.348998
0.350103
0.351365
0.352786
0.354367
0.356105
0.358004
0.360058
0.362267
0.364631
0.367146
0.369813
0.372627
0.375584
0.40798
0.404129
0.400451
0.39692
0.393539
0.390303
0.38722
0.384291
0.381519
0.378907
0.376453
0.374156
0.372019
0.370048
0.368237
0.366589
0.365109
0.363791
0.36264
0.361653
0.360832
0.360173
0.359678
0.359349
0.359184
0.359183
0.359347
0.359676
0.360169
0.360829
0.361652
0.362638
0.363788
0.365102
0.36658
0.368226
0.370035
0.37201
0.374147
0.376447
0.378906
0.381523
0.384297
0.387225
0.390301
0.42432
0.420311
0.416483
0.412809
0.409289
0.405921
0.402712
0.399663
0.396777
0.394058
0.391503
0.389111
0.386886
0.384834
0.382948
0.381232
0.37969
0.378318
0.377119
0.376091
0.375236
0.37455
0.374035
0.373692
0.373521
0.37352
0.37369
0.374032
0.374547
0.375233
0.376091
0.377118
0.378316
0.379683
0.381223
0.382937
0.38482
0.386877
0.389103
0.391496
0.394056
0.396781
0.399669
0.402717
0.441678
0.437503
0.433517
0.429691
0.426025
0.422517
0.419175
0.415998
0.412992
0.41016
0.407497
0.405005
0.402687
0.400548
0.398584
0.396795
0.395188
0.393759
0.392508
0.391437
0.390547
0.389833
0.389296
0.388938
0.388759
0.388759
0.388936
0.389293
0.389829
0.390544
0.391438
0.392509
0.393757
0.395182
0.396786
0.398572
0.400535
0.402678
0.404996
0.407491
0.410157
0.412996
0.416004
0.419179
0.460142
0.455792
0.451638
0.447651
0.44383
0.440175
0.43669
0.433379
0.430246
0.427293
0.424517
0.421919
0.419502
0.417272
0.415224
0.413359
0.411683
0.410192
0.408888
0.407771
0.406843
0.406098
0.405539
0.405166
0.404979
0.404979
0.405164
0.405536
0.406095
0.406841
0.407773
0.408889
0.410191
0.411676
0.41335
0.415212
0.417258
0.419493
0.421911
0.424511
0.42729
0.43025
0.433385
0.436695
0.47981
0.475274
0.470943
0.466785
0.4628
0.458988
0.455354
0.4519
0.448632
0.445551
0.442655
0.439944
0.437422
0.435095
0.432958
0.431012
0.429263
0.427707
0.426346
0.425181
0.424212
0.423436
0.422852
0.422462
0.422268
0.422267
0.42246
0.422848
0.423433
0.42421
0.425183
0.426348
0.427707
0.429257
0.431003
0.432947
0.435082
0.437413
0.439935
0.442648
0.445547
0.448635
0.451906
0.455358
0.500792
0.496058
0.491539
0.487199
0.483041
0.479062
0.475268
0.471663
0.468252
0.465035
0.462011
0.459181
0.456547
0.454117
0.451886
0.449854
0.448027
0.446402
0.444981
0.443764
0.442753
0.441942
0.441332
0.440925
0.440722
0.440722
0.440923
0.441329
0.441939
0.442751
0.443767
0.444984
0.446402
0.448021
0.449845
0.451875
0.454104
0.456538
0.459172
0.462004
0.465031
0.468254
0.471668
0.475272
0.523209
0.518267
0.513547
0.509014
0.50467
0.500514
0.496552
0.492785
0.489221
0.485861
0.482701
0.479743
0.476991
0.474451
0.47212
0.469996
0.468086
0.466389
0.464903
0.463631
0.462574
0.461727
0.46109
0.460665
0.460452
0.460452
0.460662
0.461087
0.461724
0.462572
0.463635
0.464907
0.466389
0.468081
0.469988
0.472108
0.474439
0.476982
0.479734
0.482693
0.485856
0.489223
0.49279
0.496554
0.547202
0.542036
0.537103
0.532365
0.527824
0.523479
0.519335
0.515398
0.511671
0.508157
0.504852
0.501758
0.498881
0.496223
0.493786
0.491563
0.489566
0.48779
0.486237
0.484906
0.4838
0.482915
0.482248
0.481803
0.481581
0.48158
0.481801
0.482245
0.482912
0.483798
0.48491
0.48624
0.487792
0.489561
0.491556
0.493774
0.496212
0.498871
0.50175
0.504844
0.508151
0.511672
0.515401
0.519338
0.572929
0.567525
0.562363
0.557405
0.552652
0.548106
0.543769
0.539648
0.535748
0.53207
0.52861
0.525372
0.522359
0.519577
0.517026
0.514699
0.512607
0.510748
0.509122
0.507728
0.50657
0.505643
0.504946
0.50448
0.504247
0.504246
0.504477
0.504943
0.505641
0.506569
0.507733
0.509126
0.51075
0.512603
0.514692
0.517014
0.519566
0.52235
0.525363
0.528602
0.532063
0.535748
0.539652
0.543771
0.600571
0.594911
0.589505
0.58431
0.579331
0.574568
0.570025
0.565707
0.561621
0.557767
0.554142
0.550748
0.547592
0.544676
0.542002
0.539563
0.537371
0.535422
0.533718
0.532258
0.531044
0.530073
0.529342
0.528853
0.528609
0.528608
0.52885
0.529339
0.530071
0.531043
0.532262
0.533722
0.535425
0.537368
0.539557
0.54199
0.544665
0.547582
0.55074
0.554133
0.55776
0.561621
0.56571
0.570026
0.630337
0.624403
0.618733
0.613285
0.608061
0.603065
0.598299
0.59377
0.589484
0.585441
0.581637
0.578077
0.574765
0.571705
0.5689
0.566342
0.564041
0.561997
0.560209
0.558676
0.557402
0.556384
0.555617
0.555105
0.554848
0.554847
0.555102
0.555615
0.556382
0.557402
0.558681
0.560213
0.562
0.564039
0.566336
0.568889
0.571696
0.574755
0.578069
0.581629
0.585432
0.589483
0.593772
0.598299
0.662473
0.656241
0.650286
0.644563
0.639075
0.633827
0.62882
0.624063
0.61956
0.615313
0.611317
0.607577
0.604098
0.600883
0.597937
0.595249
0.592831
0.590684
0.588805
0.587195
0.585857
0.584787
0.583982
0.583443
0.583174
0.583173
0.58344
0.58398
0.584785
0.585856
0.5872
0.588809
0.590687
0.59283
0.595244
0.597925
0.600874
0.604088
0.607569
0.611308
0.615304
0.619559
0.624064
0.628819
0.633817
0.697268
0.690712
0.684446
0.678424
0.672648
0.667125
0.661856
0.656851
0.652113
0.647645
0.64344
0.639505
0.635845
0.632461
0.629361
0.626534
0.623989
0.62173
0.619754
0.618059
0.616651
0.615525
0.614679
0.614112
0.613829
0.613828
0.614109
0.614677
0.615524
0.616651
0.618064
0.619757
0.621734
0.623989
0.626529
0.62935
0.632453
0.635834
0.639497
0.643431
0.647635
0.652112
0.656851
0.661855
0.667115
0.735066
0.728155
0.721547
0.715196
0.709105
0.703281
0.697724
0.692448
0.687454
0.682743
0.678311
0.674163
0.670304
0.666738
0.66347
0.66049
0.657807
0.655426
0.653343
0.651557
0.650073
0.648887
0.647995
0.647398
0.647099
0.647098
0.647394
0.647993
0.648886
0.650073
0.651563
0.653347
0.65543
0.657808
0.660486
0.663459
0.66673
0.670294
0.674155
0.678302
0.682733
0.687452
0.692448
0.697723
0.703269
0.776283
0.768978
0.761992
0.755278
0.748838
0.742681
0.736807
0.731232
0.725955
0.720978
0.716294
0.711913
0.707836
0.704068
0.700616
0.697468
0.694634
0.692118
0.689919
0.688033
0.686466
0.685212
0.684271
0.683641
0.683324
0.683324
0.683637
0.684269
0.685212
0.686465
0.688038
0.689923
0.692123
0.694635
0.697465
0.700606
0.70406
0.707826
0.711904
0.716285
0.720967
0.725953
0.731232
0.736805
0.742668
0.82143
0.813685
0.806275
0.799155
0.792325
0.785796
0.779569
0.773661
0.768069
0.762795
0.757833
0.753191
0.748873
0.744881
0.741226
0.737892
0.73489
0.732226
0.729897
0.7279
0.726241
0.724913
0.723918
0.72325
0.722915
0.722915
0.723247
0.723915
0.724914
0.72624
0.727906
0.729901
0.732231
0.734892
0.737889
0.741216
0.744874
0.748863
0.753183
0.757823
0.762783
0.768066
0.77366
0.779566
0.871146
0.862901
0.855012
0.84743
0.840159
0.833209
0.826582
0.8203
0.814353
0.808746
0.80347
0.798538
0.793948
0.789706
0.785822
0.782279
0.77909
0.77626
0.773787
0.771666
0.769904
0.768494
0.767437
0.766728
0.766372
0.766372
0.766725
0.767434
0.768495
0.769903
0.771672
0.773791
0.776265
0.779093
0.782278
0.785812
0.7897
0.793938
0.79853
0.803461
0.808734
0.814351
0.820299
0.826579
0.926272
0.917447
0.908999
0.900883
0.8931
0.885662
0.878574
0.871864
0.865513
0.859525
0.853893
0.848628
0.84373
0.839203
0.835058
0.831279
0.827877
0.824858
0.822222
0.81996
0.818083
0.816579
0.815453
0.814698
0.814318
0.814318
0.814694
0.81545
0.816581
0.818082
0.819967
0.822225
0.824863
0.82788
0.831278
0.835049
0.839197
0.84372
0.84862
0.853884
0.859513
0.86551
0.871862
0.87857
0.98784
0.978341
0.969246
0.96051
0.952134
0.944132
0.936509
0.929298
0.922474
0.91604
0.909993
0.904341
0.899083
0.894225
0.889776
0.885722
0.882072
0.878834
0.87601
0.873589
0.871577
0.869967
0.86876
0.867952
0.867546
0.867547
0.867949
0.868758
0.869969
0.871577
0.873595
0.876014
0.878839
0.882076
0.885722
0.889768
0.894219
0.899074
0.904333
0.909984
0.91603
0.92247
0.929296
0.936504
1.05708
1.0468
1.03696
1.02751
1.01846
1.00981
1.00157
0.993772
0.986395
0.979442
0.972908
0.966804
0.961127
0.955883
0.951082
0.946707
0.942769
0.939276
0.936232
0.933622
0.931453
0.929717
0.928416
0.927545
0.927107
0.927109
0.927543
0.928414
0.92972
0.931453
0.933628
0.936236
0.939281
0.942774
0.946708
0.951075
0.955879
0.961119
0.966797
0.9729
0.979431
0.986391
0.993769
1.00156
1.13554
1.12436
1.11365
1.10337
1.09353
1.08412
1.07517
1.06669
1.05867
1.05112
1.04402
1.0374
1.03123
1.02554
1.02034
1.01559
1.01132
1.00753
1.00423
1.0014
0.999042
0.997157
0.995746
0.994801
0.994327
0.994329
0.994799
0.995744
0.997161
0.999043
1.0014
1.00423
1.00754
1.01133
1.01559
1.02033
1.02554
1.03123
1.03739
1.04402
1.05111
1.05867
1.06669
1.07516
1.22528
1.21302
1.20129
1.19003
1.17924
1.16895
1.15915
1.14987
1.1411
1.13284
1.12508
1.11784
1.11111
1.1049
1.09921
1.09403
1.08937
1.08524
1.08163
1.07854
1.07597
1.07391
1.07237
1.07134
1.07082
1.07082
1.07134
1.07237
1.07392
1.07597
1.07855
1.08164
1.08524
1.08938
1.09403
1.09921
1.10489
1.1111
1.11783
1.12508
1.13283
1.1411
1.14987
1.15915
1.32903
1.31548
1.30251
1.29006
1.27815
1.26679
1.25598
1.24574
1.23606
1.22695
1.21841
1.21043
1.20302
1.19618
1.18993
1.18423
1.17911
1.17456
1.17059
1.16719
1.16437
1.1621
1.16041
1.15927
1.15871
1.15871
1.15927
1.16041
1.16211
1.16437
1.1672
1.1706
1.17457
1.17911
1.18423
1.18992
1.19618
1.20302
1.21043
1.2184
1.22695
1.23606
1.24574
1.25597
1.45053
1.43539
1.4209
1.40701
1.39372
1.38104
1.36899
1.35758
1.34681
1.33666
1.32715
1.31828
1.31005
1.30245
1.2955
1.28917
1.28349
1.27844
1.27403
1.27026
1.26712
1.2646
1.26272
1.26147
1.26084
1.26084
1.26147
1.26272
1.26461
1.26712
1.27026
1.27404
1.27845
1.28349
1.28918
1.29549
1.30245
1.31004
1.31828
1.32715
1.33666
1.3468
1.35758
1.36899
1.38103
1.59488
1.57777
1.56139
1.54569
1.53069
1.5164
1.50281
1.48994
1.4778
1.46638
1.45567
1.44569
1.43643
1.42789
1.42008
1.41298
1.40659
1.40093
1.39598
1.39174
1.38822
1.3854
1.38329
1.38188
1.38117
1.38117
1.38188
1.38329
1.3854
1.38822
1.39175
1.39599
1.40093
1.4066
1.41298
1.42008
1.42789
1.43643
1.44569
1.45567
1.46637
1.47779
1.48994
1.5028
1.51638
1.76919
1.74959
1.73084
1.71288
1.69572
1.67938
1.66386
1.64917
1.6353
1.62227
1.61006
1.59868
1.58813
1.57841
1.56951
1.56143
1.55417
1.54772
1.5421
1.53728
1.53327
1.53006
1.52766
1.52606
1.52525
1.52526
1.52606
1.52766
1.53006
1.53327
1.53728
1.5421
1.54773
1.55417
1.56143
1.56951
1.57841
1.58813
1.59868
1.61006
1.62226
1.6353
1.64916
1.66385
1.67937
1.98344
1.96069
1.93892
1.91808
1.89818
1.87923
1.86124
1.84422
1.82817
1.81308
1.79896
1.7858
1.7736
1.76236
1.75208
1.74275
1.73437
1.72693
1.72043
1.71487
1.71024
1.70654
1.70377
1.70192
1.701
1.701
1.70193
1.70377
1.70655
1.71025
1.71488
1.72044
1.72693
1.73437
1.74276
1.75208
1.76236
1.7736
1.7858
1.79895
1.81307
1.82816
1.84422
1.86124
1.87922
1.89818
2.25182
2.22503
2.1994
2.17486
2.15144
2.12914
2.10798
2.08797
2.06909
2.05136
2.03476
2.01931
2.00499
1.9918
1.97973
1.96879
1.95895
1.95023
1.94261
1.93609
1.93066
1.92632
1.92308
1.92091
1.91983
1.91983
1.92091
1.92308
1.92633
1.93066
1.93609
1.94261
1.95023
1.95895
1.96879
1.97973
1.9918
2.00499
2.01931
2.03476
2.05135
2.06909
2.08796
2.10798
2.12914
2.15144
2.59483
2.56282
2.53218
2.50286
2.47488
2.44824
2.42297
2.39906
2.37652
2.35535
2.33554
2.3171
2.30001
2.28427
2.26988
2.25682
2.2451
2.2347
2.22561
2.21784
2.21137
2.2062
2.20233
2.19975
2.19846
2.19846
2.19975
2.20233
2.2062
2.21137
2.21784
2.22561
2.2347
2.2451
2.25683
2.26988
2.28427
2.30001
2.3171
2.33554
2.35535
2.37652
2.39906
2.42297
2.44824
2.47488
2.50286
3.04268
3.00385
2.96668
2.9311
2.89715
2.86483
2.83416
2.80515
2.77781
2.75212
2.72809
2.70571
2.68498
2.66589
2.64843
2.6326
2.61837
2.60576
2.59474
2.58532
2.57747
2.5712
2.56651
2.56338
2.56181
2.56181
2.56338
2.56651
2.5712
2.57747
2.58532
2.59474
2.60576
2.61837
2.6326
2.64843
2.66589
2.68498
2.70571
2.72809
2.75212
2.77781
2.80516
2.83416
2.86483
2.89715
2.93111
3.64117
3.59333
3.54749
3.50363
3.46175
3.42188
3.38405
3.34827
3.31453
3.28283
3.25318
3.22557
3.19998
3.17642
3.15487
3.13532
3.11776
3.10219
3.08859
3.07696
3.06728
3.05954
3.05374
3.04988
3.04795
3.04795
3.04988
3.05374
3.05954
3.06727
3.07696
3.08859
3.10219
3.11776
3.13532
3.15486
3.17641
3.19997
3.22556
3.25318
3.28284
3.31453
3.34828
3.38406
3.42189
3.46176
3.50364
4.46228
4.40225
4.34472
4.28965
4.23707
4.187
4.13948
4.09452
4.05212
4.01229
3.97501
3.94029
3.90812
3.87849
3.85139
3.8268
3.80471
3.78512
3.76802
3.75338
3.7412
3.73146
3.72417
3.71931
3.71688
3.71687
3.7193
3.72416
3.73146
3.74119
3.75337
3.76801
3.78512
3.80471
3.82679
3.85138
3.87848
3.90811
3.94029
3.97501
4.01229
4.05213
4.09453
4.13949
4.18702
4.23709
4.28967
5.6242
5.54729
5.47356
5.40295
5.33552
5.2713
5.21032
5.15261
5.09819
5.04705
4.99918
4.95459
4.91326
4.87518
4.84035
4.80875
4.78036
4.75517
4.73318
4.71436
4.6987
4.68618
4.6768
4.67055
4.66742
4.66742
4.67054
4.67679
4.68617
4.69869
4.71435
4.73318
4.75517
4.78035
4.80874
4.84034
4.87517
4.91324
4.95458
4.99918
5.04706
5.09821
5.15264
5.21034
5.27132
5.33555
5.40298
7.33214
7.23102
7.13403
7.04112
6.95235
6.86779
6.78748
6.71147
6.63977
6.57237
6.50926
6.45046
6.39595
6.34572
6.29977
6.25807
6.2206
6.18736
6.15833
6.13348
6.11281
6.09628
6.0839
6.07564
6.07151
6.07151
6.07563
6.08388
6.09626
6.11279
6.13347
6.15832
6.18735
6.22059
6.25805
6.29975
6.3457
6.39593
6.45045
6.50926
6.57237
6.6398
6.71152
6.78753
6.86783
6.95239
7.04115
7.13407
9.9676
9.83009
9.69814
9.57171
9.45088
9.33574
9.22635
9.12279
9.02507
8.9332
8.84716
8.76696
8.6926
8.62407
8.56137
8.50444
8.4533
8.40792
8.36828
8.33435
8.30612
8.28355
8.26663
8.25535
8.2497
8.2497
8.25533
8.2666
8.28352
8.30608
8.33433
8.36827
8.40791
8.45328
8.50442
8.56133
8.62404
8.69257
8.76695
8.84716
8.93321
9.02512
9.12286
9.22641
9.33579
9.45094
9.57176
9.6982
14.3041
14.1085
13.9207
13.7407
13.5687
13.4047
13.2488
13.1012
12.9619
12.8309
12.7081
12.5937
12.4876
12.3897
12.3002
12.2189
12.1458
12.081
12.0244
11.9759
11.9355
11.9033
11.8791
11.863
11.8549
11.8549
11.863
11.8791
11.9032
11.9355
11.9759
12.0244
12.081
12.1458
12.2189
12.3001
12.3897
12.4875
12.5937
12.7081
12.8309
12.9619
13.1013
13.2489
13.4048
13.5688
13.7408
13.9208
22.0982
21.8021
21.5177
21.2449
20.9841
20.7354
20.4989
20.2748
20.0633
19.8643
19.6778
19.5039
19.3426
19.1938
19.0576
18.9339
18.8228
18.7241
18.6379
18.5641
18.5027
18.4536
18.4167
18.3922
18.3799
18.3799
18.3921
18.4167
18.4535
18.5026
18.5641
18.6379
18.7241
18.8227
18.9339
19.0575
19.1937
19.3425
19.5039
19.6778
19.8643
20.0634
20.275
20.499
20.7355
20.9842
21.2451
21.5178
38.007
37.5163
37.0446
36.592
36.1589
35.7457
35.3526
34.98
34.628
34.2967
33.9862
33.6964
33.4275
33.1795
32.9523
32.746
32.5604
32.3957
32.2518
32.1286
32.026
31.9439
31.8824
31.8414
31.8208
31.8208
31.8413
31.8823
31.9438
32.0258
32.1285
32.2518
32.3957
32.5604
32.7459
32.9522
33.1793
33.4274
33.6964
33.9862
34.2968
34.6282
34.9802
35.3528
35.7459
36.1591
36.5922
37.0448
77.4603
76.5264
75.6277
74.7645
73.9378
73.1483
72.3967
71.6837
71.0097
70.3748
69.7792
69.2232
68.7068
68.2302
67.7936
67.3967
67.0398
66.7227
66.4456
66.2082
66.0105
65.8524
65.7338
65.6548
65.6152
65.6152
65.6546
65.7336
65.8522
66.0103
66.2081
66.4455
66.7227
67.0397
67.3966
67.7933
68.23
68.7066
69.2231
69.7792
70.3749
71.01
71.6842
72.3972
73.1487
73.9383
74.7649
75.628
212.679
210.457
208.314
206.253
204.276
202.385
200.582
198.869
197.247
195.718
194.281
192.939
191.69
190.537
189.48
188.517
187.651
186.882
186.208
185.631
185.151
184.766
184.477
184.285
184.189
184.188
184.285
184.477
184.765
185.15
185.631
186.208
186.881
187.651
188.517
189.479
190.536
191.69
192.938
194.281
195.718
197.248
198.87
200.583
202.386
204.277
206.254
208.315
1054
1046.53
1039.31
1032.34
1025.63
1019.2
1013.04
1007.18
1001.61
996.346
991.389
986.744
982.417
978.411
974.731
971.376
968.352
965.66
963.303
961.28
959.594
958.243
957.229
956.553
956.214
956.214
956.551
957.227
958.241
959.591
961.279
963.302
965.66
968.351
971.375
974.728
978.409
982.415
986.743
991.388
996.346
1001.61
1007.18
1013.04
1019.2
1025.64
1032.34
1039.31
0.295876
0.30585
0.316344
0.327395
0.339044
0.351335
0.364318
0.378046
0.392578
0.407977
0.424317
0.441674
0.460138
0.479806
0.500787
0.523205
0.547198
0.572925
0.600566
0.630333
0.66247
0.697265
0.735064
0.776281
0.821428
0.871145
0.926271
0.98784
1.05708
1.13554
1.22528
1.32903
1.45053
1.59488
1.76919
1.98344
2.25182
2.59483
3.04267
3.64117
4.46228
5.6242
7.33214
9.96759
14.304
22.0982
38.007
77.4603
212.679
1054
0.29312
0.302995
0.313384
0.324326
0.33586
0.348031
0.360886
0.37448
0.388871
0.404121
0.420304
0.437495
0.455784
0.475266
0.496051
0.518259
0.542029
0.567518
0.594905
0.624397
0.656236
0.690707
0.72815
0.768975
0.813681
0.862899
0.917445
0.97834
1.0468
1.12436
1.21302
1.31549
1.43539
1.57777
1.7496
1.96069
2.22503
2.56282
3.00385
3.59332
4.40224
5.54728
7.23101
9.83007
14.1084
21.802
37.5162
76.5262
210.457
1046.53
0.290482
0.300263
0.310554
0.321391
0.332816
0.344872
0.357606
0.371073
0.385329
0.400438
0.41647
0.433504
0.451626
0.470931
0.491527
0.513536
0.537093
0.562354
0.589496
0.618725
0.65028
0.684441
0.721543
0.76199
0.806275
0.855013
0.909002
0.969249
1.03697
1.11366
1.20129
1.30252
1.4209
1.56139
1.73085
1.93893
2.1994
2.53218
2.96668
3.54749
4.34472
5.47355
7.13401
9.69812
13.9207
21.5176
37.0445
75.6275
208.314
1039.31
0.287954
0.297645
0.30784
0.318578
0.329898
0.341844
0.354463
0.367807
0.381934
0.396907
0.412796
0.429678
0.447638
0.466773
0.487189
0.509005
0.532357
0.557398
0.584305
0.61328
0.64456
0.678421
0.715195
0.755279
0.799157
0.847433
0.900887
0.960514
1.02752
1.10338
1.19003
1.29007
1.40701
1.5457
1.71289
1.91809
2.17486
2.50286
2.9311
3.50362
4.28965
5.40295
7.0411
9.57169
13.7407
21.2449
36.5919
74.7644
206.253
1032.34
0.285535
0.295139
0.305244
0.315886
0.327106
0.338946
0.351453
0.36468
0.378683
0.393525
0.409276
0.426012
0.443818
0.462788
0.483029
0.50466
0.527814
0.552644
0.579324
0.608056
0.639071
0.672645
0.709104
0.748838
0.792327
0.840162
0.893104
0.952138
1.01846
1.09353
1.17925
1.27816
1.39372
1.5307
1.69573
1.89819
2.15144
2.47488
2.89715
3.46175
4.23706
5.33551
6.95234
9.45086
13.5687
20.9841
36.1588
73.9377
204.276
1025.63
0.283223
0.292745
0.302764
0.313315
0.324439
0.336178
0.348579
0.361694
0.375578
0.390296
0.405914
0.42251
0.440167
0.45898
0.479054
0.500506
0.523471
0.548098
0.574561
0.603058
0.63382
0.667119
0.703275
0.742676
0.785791
0.833204
0.885658
0.944128
1.0098
1.08412
1.16895
1.26679
1.38104
1.51639
1.67938
1.87923
2.12914
2.44824
2.86483
3.42188
4.187
5.27129
6.86778
9.33572
13.4046
20.7353
35.7456
73.1482
202.385
1019.2
0.28102
0.290463
0.300399
0.310864
0.321897
0.333539
0.345839
0.358846
0.372618
0.387216
0.402708
0.41917
0.436686
0.455349
0.475263
0.496546
0.519329
0.543763
0.570019
0.598293
0.628814
0.661851
0.69772
0.736804
0.779566
0.82658
0.878573
0.936509
1.00157
1.07517
1.15915
1.25598
1.369
1.50281
1.66386
1.86124
2.10798
2.42297
2.83416
3.38405
4.13947
5.21031
6.78748
9.22635
13.2488
20.4989
35.3525
72.3967
200.582
1013.04
0.278926
0.288295
0.298152
0.308534
0.31948
0.331031
0.343234
0.35614
0.369804
0.384289
0.399661
0.415996
0.433377
0.451897
0.47166
0.492782
0.515393
0.539644
0.565703
0.593765
0.624058
0.656845
0.692443
0.731227
0.773656
0.820295
0.87186
0.929294
0.993768
1.06669
1.14987
1.24574
1.35758
1.48994
1.64916
1.84422
2.08796
2.39906
2.80515
3.34826
4.09451
5.15261
6.71147
9.12278
13.1012
20.2748
34.9799
71.6837
198.869
1007.18
0.276944
0.286242
0.296025
0.306329
0.317193
0.328657
0.340768
0.353577
0.36714
0.381516
0.396774
0.412989
0.430243
0.448628
0.468247
0.489216
0.511665
0.535741
0.561614
0.589475
0.619551
0.652104
0.687445
0.725946
0.76806
0.814345
0.865505
0.922467
0.986388
1.05867
1.1411
1.23606
1.3468
1.4778
1.6353
1.82817
2.06909
2.37652
2.7778
3.31452
4.05211
5.09818
6.63975
9.02505
12.9618
20.0632
34.6279
71.0095
197.247
1001.61
0.275075
0.284306
0.294019
0.304248
0.315033
0.326415
0.33844
0.351158
0.364624
0.378898
0.394049
0.41015
0.427283
0.44554
0.465024
0.485849
0.508144
0.532057
0.557753
0.585426
0.615298
0.647629
0.682727
0.720961
0.762778
0.80873
0.85951
0.916027
0.97943
1.05111
1.13283
1.22695
1.33666
1.46637
1.62226
1.81308
2.05136
2.35535
2.75212
3.28282
4.01227
5.04703
6.57233
8.93314
12.8308
19.8642
34.2965
70.3744
195.717
996.342
0.27332
0.282488
0.292135
0.302295
0.313007
0.324311
0.336255
0.348887
0.362262
0.376441
0.391491
0.407485
0.424505
0.442642
0.461999
0.482688
0.504839
0.528597
0.554128
0.581624
0.611304
0.643426
0.678297
0.716281
0.75782
0.803459
0.853883
0.909983
0.9729
1.04402
1.12508
1.2184
1.32715
1.45567
1.61006
1.79896
2.03476
2.33554
2.72809
3.25317
3.975
4.99916
6.50923
8.84711
12.708
19.6777
33.986
69.7788
194.28
991.385
0.27168
0.28079
0.290375
0.30047
0.311113
0.322346
0.334214
0.346765
0.360056
0.374146
0.389101
0.404995
0.42191
0.439935
0.459172
0.479734
0.50175
0.525364
0.55074
0.578069
0.60757
0.639498
0.674156
0.711905
0.753184
0.798531
0.848621
0.904334
0.966798
1.03739
1.11784
1.21043
1.31828
1.44569
1.59868
1.7858
2.01931
2.3171
2.70571
3.22556
3.94028
4.95457
6.45043
8.76692
12.5936
19.5038
33.6963
69.2229
192.938
986.742
0.270157
0.279212
0.288739
0.298775
0.309355
0.320521
0.332318
0.344795
0.358008
0.372015
0.386882
0.402683
0.419498
0.437419
0.456544
0.476988
0.498878
0.522357
0.547589
0.574762
0.604096
0.635842
0.670302
0.707834
0.748872
0.793947
0.843729
0.899083
0.961127
1.03123
1.11111
1.20302
1.31005
1.43643
1.58813
1.7736
2.00499
2.30001
2.68498
3.19998
3.90811
4.91325
6.39593
8.69258
12.4875
19.3425
33.4274
68.7066
191.69
982.416
0.26875
0.277754
0.287229
0.297208
0.307729
0.318833
0.330565
0.342973
0.356112
0.370041
0.384827
0.400542
0.417266
0.435089
0.454113
0.474447
0.496221
0.519575
0.544674
0.571705
0.600884
0.632463
0.66674
0.704071
0.744886
0.789711
0.839208
0.89423
0.955889
1.02555
1.1049
1.19619
1.30245
1.4279
1.57841
1.76237
1.9918
2.28427
2.66589
3.17642
3.87849
4.87518
6.34572
8.62406
12.3897
19.1938
33.1794
68.2302
190.537
978.411
0.26746
0.276418
0.285844
0.295772
0.30624
0.317287
0.328958
0.341303
0.354375
0.368234
0.382945
0.39858
0.41522
0.432955
0.451883
0.472117
0.493782
0.517022
0.541999
0.568897
0.597934
0.629359
0.663467
0.700613
0.741223
0.785819
0.835055
0.889773
0.951079
1.02033
1.09921
1.18992
1.29549
1.42008
1.56951
1.75208
1.97973
2.26988
2.64843
3.15487
3.85138
4.84035
6.29976
8.56135
12.3002
19.0576
32.9523
67.7935
189.479
974.73
0.266286
0.275202
0.284584
0.294466
0.304884
0.315879
0.327496
0.339784
0.352796
0.36659
0.381234
0.396797
0.413361
0.431015
0.449857
0.469999
0.491568
0.514703
0.539568
0.566347
0.595254
0.626538
0.660494
0.697472
0.737896
0.782283
0.831283
0.885726
0.946711
1.01559
1.09404
1.18424
1.28918
1.41298
1.56143
1.74275
1.96879
2.25683
2.6326
3.13532
3.8268
4.80875
6.25807
8.50445
12.2189
18.934
32.746
67.3968
188.518
971.377
0.265229
0.274108
0.283449
0.293289
0.303663
0.314611
0.326179
0.338414
0.351371
0.365108
0.37969
0.395188
0.411684
0.429264
0.448029
0.468089
0.48957
0.512612
0.537376
0.564047
0.592838
0.623997
0.657815
0.694642
0.734899
0.779099
0.827885
0.88208
0.942777
1.01133
1.08938
1.17912
1.28349
1.4066
1.55417
1.73437
1.95895
2.2451
2.61838
3.11777
3.80472
4.78037
6.22061
8.45331
12.1459
18.8228
32.5605
67.0399
187.652
968.353
0.264289
0.273133
0.28244
0.292242
0.302577
0.313484
0.325008
0.337198
0.350106
0.363791
0.378318
0.393759
0.410193
0.427709
0.446405
0.466391
0.487793
0.510752
0.535426
0.562001
0.590688
0.621734
0.65543
0.692123
0.73223
0.776264
0.824862
0.878838
0.93928
1.00754
1.08524
1.17457
1.27844
1.40093
1.54773
1.72693
1.95023
2.2347
2.60576
3.10219
3.78513
4.75518
6.18736
8.40792
12.081
18.7241
32.3958
66.7228
186.882
965.661
0.263465
0.27228
0.281556
0.291325
0.301625
0.312496
0.323982
0.336131
0.348996
0.362636
0.377116
0.392506
0.408887
0.426346
0.444981
0.464904
0.486238
0.509123
0.53372
0.560211
0.588808
0.619756
0.653346
0.689922
0.729901
0.77379
0.822225
0.876014
0.936236
1.00423
1.08164
1.1706
1.27404
1.39599
1.5421
1.72044
1.94261
2.22561
2.59474
3.08859
3.76802
4.73318
6.15833
8.36827
12.0244
18.6379
32.2518
66.4455
186.208
963.303
0.26276
0.27155
0.280798
0.29054
0.30081
0.31165
0.323103
0.335217
0.348046
0.361648
0.376086
0.391434
0.407768
0.425178
0.443762
0.46363
0.484905
0.507727
0.532257
0.558677
0.587196
0.618061
0.65156
0.688036
0.727905
0.771671
0.819967
0.873596
0.933629
1.0014
1.07855
1.1672
1.27027
1.39175
1.53728
1.71488
1.93609
2.21784
2.58532
3.07696
3.75337
4.71435
6.13347
8.33433
11.9759
18.5641
32.1285
66.2081
185.631
961.279
0.262172
0.270941
0.280167
0.289885
0.300131
0.310945
0.32237
0.334455
0.347254
0.360823
0.375227
0.390538
0.406834
0.424204
0.442745
0.462567
0.483793
0.506564
0.531038
0.557398
0.585853
0.616648
0.650071
0.686464
0.726239
0.769903
0.818082
0.871577
0.931453
0.999043
1.07597
1.16437
1.26712
1.38822
1.53327
1.71025
1.93066
2.21137
2.57747
3.06727
3.74119
4.69868
6.11279
8.30608
11.9355
18.5026
32.0258
66.0102
185.15
959.591
0.261703
0.270455
0.279663
0.289362
0.299589
0.310382
0.321785
0.333847
0.346621
0.360164
0.374541
0.389823
0.406088
0.423425
0.441931
0.461716
0.482903
0.505632
0.530062
0.556374
0.584777
0.615517
0.648879
0.685205
0.724908
0.768489
0.816575
0.869964
0.929715
0.997157
1.07391
1.1621
1.26461
1.3854
1.53006
1.70655
1.92633
2.2062
2.5712
3.05953
3.73145
4.68616
6.09625
8.2835
11.9032
18.4534
31.9437
65.8521
184.765
958.24
0.26135
0.270089
0.279285
0.28897
0.299182
0.309959
0.321346
0.333391
0.346147
0.359671
0.374027
0.389287
0.40553
0.422842
0.441322
0.46108
0.482237
0.504935
0.529331
0.555606
0.58397
0.614667
0.647983
0.68426
0.723906
0.767426
0.815443
0.868751
0.928408
0.995739
1.07237
1.1604
1.26272
1.38328
1.52766
1.70377
1.92308
2.20233
2.5665
3.05374
3.72416
4.67678
6.08386
8.26658
11.879
18.4166
31.8822
65.7334
184.476
957.226
0.261115
0.269846
0.279032
0.288708
0.29891
0.309677
0.321053
0.333087
0.34583
0.359341
0.373684
0.388929
0.405157
0.422453
0.440916
0.460655
0.481793
0.50447
0.528844
0.555095
0.583434
0.614103
0.647389
0.683631
0.723242
0.76672
0.81469
0.867946
0.92754
0.994797
1.07134
1.15927
1.26147
1.38188
1.52606
1.70193
1.92091
2.19975
2.56338
3.04987
3.7193
4.67053
6.07561
8.25531
11.8629
18.3921
31.8412
65.6544
184.284
956.55
0.260998
0.269724
0.278907
0.288578
0.298774
0.309536
0.320907
0.332934
0.345671
0.359176
0.373512
0.38875