/*--------------------------------*- C++ -*----------------------------------*\
  =========                 |
  \\      /  F ield         | OpenFOAM: The Open Source CFD Toolbox
   \\    /   O peration     | Website:  https://openfoam.org
    \\  /    A nd           | Version:  7
     \\/     M anipulation  |
\*---------------------------------------------------------------------------*/
FoamFile
{
    version     2.0;
    format      ascii;
    class       surfaceScalarField;
    location    "20000";
    object      phi;
}
// * * * * * * * * * * * * * * * * * * * * * * * * * * * * * * * * * * * * * //

dimensions      [0 3 -1 0 0 0 0];

internalField   nonuniform List<scalar> 
9414
(
4.20078e-23
6.49961e-24
4.32128e-23
6.17307e-24
4.49252e-23
6.04214e-24
4.67504e-23
6.14575e-24
-1.3821e-23
5.88933e-24
1.02016e-23
5.85507e-24
-7.20742e-24
5.72385e-24
-2.66109e-24
5.4636e-24
1.41321e-23
5.26613e-24
5.35915e-24
-6.42517e-23
9.43638e-24
-3.9037e-23
9.84796e-24
-4.93755e-23
8.7266e-24
-5.92813e-23
9.08482e-24
-2.74385e-23
9.88596e-24
-7.5155e-23
8.85743e-24
-1.55525e-22
1.01472e-23
-8.39871e-23
1.12301e-23
-4.38731e-23
1.08544e-23
4.00808e-23
1.06962e-23
2.48204e-23
9.21497e-24
1.50985e-23
8.19575e-24
-4.78947e-23
7.1582e-24
7.44006e-24
6.11873e-24
3.32431e-23
6.24345e-24
2.59309e-23
5.861e-24
1.77906e-23
5.96976e-24
1.42395e-23
6.40838e-24
3.08225e-23
5.29398e-24
7.65639e-23
5.60345e-24
8.01832e-23
5.06846e-24
7.97154e-23
4.32306e-24
-1.22301e-23
3.93099e-24
-1.68597e-23
4.3642e-24
-2.05175e-23
4.86916e-24
3.77151e-23
5.54647e-24
9.44695e-23
5.11643e-24
8.87798e-23
4.39279e-24
5.19317e-23
4.40752e-24
8.35159e-23
4.86827e-24
1.145e-22
4.78041e-24
1.13099e-22
4.63088e-24
8.14695e-23
4.4864e-24
5.1769e-23
4.1364e-24
5.41436e-23
3.9753e-24
5.2025e-23
4.29037e-24
4.9152e-23
4.16837e-24
4.804e-23
4.12726e-24
4.53355e-23
3.8422e-24
4.27358e-23
3.53937e-24
5.7558e-23
2.87779e-24
2.36746e-23
3.05669e-24
2.56606e-23
2.83692e-24
1.27486e-23
2.63159e-24
-5.56483e-23
2.50673e-24
-5.4883e-23
2.78725e-24
-4.0807e-23
3.12223e-24
1.25927e-23
2.85315e-24
-1.44003e-23
2.56246e-24
-3.15086e-23
2.49409e-24
-4.80273e-23
2.39812e-24
-3.91745e-23
2.68885e-24
-4.05976e-23
2.63237e-24
1.46274e-23
2.4774e-24
2.30013e-24
-5.40345e-23
6.71581e-24
-9.6898e-23
4.43531e-24
-6.24816e-23
4.45114e-24
-6.38632e-23
3.00682e-24
-6.18218e-23
2.11875e-24
-9.3812e-23
2.14613e-24
-1.02499e-22
1.48514e-24
-9.4087e-23
1.74366e-24
-8.7521e-23
3.86271e-24
-1.18232e-22
3.59717e-24
-1.14799e-22
4.39691e-24
-1.13564e-22
4.68715e-24
-1.12714e-22
4.57067e-24
-5.02181e-23
4.96985e-24
-5.3779e-23
5.8487e-24
-5.56735e-23
6.23261e-24
-8.87821e-23
6.68855e-24
-1.30371e-22
7.17e-24
-1.02069e-22
7.91535e-24
-1.09434e-22
7.59703e-24
-1.27383e-22
7.94911e-24
-1.0285e-22
7.82517e-24
-1.14197e-22
8.33494e-24
-1.26476e-22
8.80677e-24
-7.66093e-23
9.34354e-24
-8.78275e-23
9.19826e-24
-1.00537e-22
9.00554e-24
4.29886e-24
9.25195e-24
-1.1232e-23
8.63413e-24
-2.6646e-23
8.32843e-24
-8.11409e-24
8.84021e-24
-2.05956e-23
8.30729e-24
-4.23657e-23
8.19882e-24
6.82504e-24
7.87858e-24
-5.02748e-24
7.64823e-24
1.81803e-23
7.62376e-24
7.01714e-24
7.5048e-24
-8.7253e-23
7.38085e-24
-5.89484e-23
7.43535e-24
-2.61708e-23
7.09337e-24
-3.72957e-23
6.92152e-24
-3.5696e-23
6.66531e-24
-1.91324e-23
6.0514e-24
-1.32604e-23
5.87019e-24
3.54251e-23
5.79171e-24
7.94052e-24
5.74448e-24
-1.68524e-23
5.52743e-24
-1.68482e-23
5.24202e-24
-7.11835e-24
5.30645e-24
-1.66233e-23
4.71884e-24
-2.63776e-23
4.55344e-24
-4.84309e-23
4.42413e-24
-4.61842e-23
4.36911e-24
-5.23426e-23
4.40433e-24
4.15946e-24
-2.41794e-22
6.94399e-24
-2.21867e-22
9.78123e-24
-2.38626e-22
1.03313e-23
-1.69335e-22
1.04424e-23
-1.01592e-22
1.0423e-23
-8.37666e-23
9.23937e-24
-3.68893e-23
8.89967e-24
-5.0294e-23
7.82926e-24
-1.01325e-22
7.34082e-24
-1.10265e-22
7.9649e-24
-1.14069e-22
7.70983e-24
-1.16296e-22
8.4131e-24
-6.045e-23
8.67916e-24
2.2004e-23
9.29402e-24
5.47333e-24
8.78661e-24
2.67906e-24
7.85358e-24
3.38489e-24
8.04934e-24
6.81411e-25
8.57832e-24
-1.86104e-24
8.08128e-24
3.01131e-23
9.07099e-24
2.89287e-23
8.79168e-24
5.65209e-23
9.70073e-24
5.22991e-23
8.99206e-24
1.32248e-23
8.97625e-24
-1.09349e-24
1.01374e-23
-6.48208e-23
1.01652e-23
-5.70487e-24
1.05584e-23
-8.34e-24
1.06812e-23
1.84811e-23
1.09647e-23
4.47754e-23
1.06749e-23
-2.17757e-23
1.06005e-23
3.83917e-23
1.02482e-23
1.69471e-24
1.03132e-23
5.5986e-23
1.07205e-23
5.07098e-23
1.05063e-23
7.51411e-23
1.02595e-23
7.60702e-24
1.01707e-23
-6.10099e-25
1.03741e-23
-6.14717e-24
1.01621e-23
-1.13933e-23
1.02077e-23
-1.78553e-23
1.04694e-23
-7.46281e-24
1.0191e-23
-1.28787e-23
1.01502e-23
-4.62787e-24
1.02468e-23
3.03955e-23
1.03226e-23
2.68154e-23
1.01372e-23
3.54992e-23
1.04314e-23
2.28644e-23
1.01398e-23
9.51862e-24
9.9023e-24
7.76183e-24
1.00369e-23
3.16611e-23
1.00041e-23
1.97955e-23
9.81716e-24
3.37147e-23
9.68787e-24
4.81931e-23
9.63866e-24
9.66256e-24
-7.97442e-23
3.08607e-24
-7.50311e-23
2.36479e-24
-1.24634e-22
2.9997e-24
-9.9327e-23
4.24017e-24
-1.04124e-22
5.12191e-24
-3.88552e-23
6.14228e-24
-2.49663e-24
6.12572e-24
-3.59894e-23
5.60513e-24
-4.96795e-23
5.51514e-24
-5.11749e-23
5.18157e-24
-1.74953e-23
6.61432e-24
1.40017e-23
7.85316e-24
7.36607e-24
7.69379e-24
2.36478e-24
6.58141e-24
-1.19453e-23
6.0676e-24
-1.09003e-23
5.96374e-24
-7.26573e-23
6.18846e-24
-6.87351e-23
5.61218e-24
-6.85341e-23
6.11371e-24
-7.96335e-23
5.71194e-24
-9.08369e-23
5.68986e-24
-1.22501e-22
5.20104e-24
-1.16944e-22
5.88432e-24
-7.42374e-23
5.58783e-24
-1.01829e-22
4.95777e-24
-9.79115e-23
4.7664e-24
-5.88798e-23
5.31405e-24
-4.71598e-23
4.52248e-24
-2.65417e-23
3.75201e-24
-7.44165e-23
3.65916e-24
-1.56819e-22
3.83806e-24
-8.79866e-23
4.41247e-24
-4.83531e-23
4.78374e-24
-1.00337e-22
4.02411e-24
-9.32312e-23
4.56775e-24
-5.77012e-23
5.1624e-24
-6.27009e-23
4.95045e-24
-1.38719e-22
4.78826e-24
-1.61886e-22
5.08144e-24
-1.74564e-22
5.38655e-24
-1.59133e-22
5.80435e-24
-1.19671e-22
6.19105e-24
-9.37764e-23
6.41299e-24
-6.66164e-23
6.45038e-24
-6.5286e-23
6.06821e-24
-7.44676e-23
5.96165e-24
-1.07389e-22
5.56507e-24
-1.23954e-22
5.59793e-24
-1.20737e-22
5.97973e-24
-1.2454e-22
5.81662e-24
-1.16414e-22
5.73862e-24
-1.09221e-22
5.78408e-24
-8.79155e-23
5.73095e-24
-1.02706e-22
5.64174e-24
5.35106e-24
-1.45115e-22
6.47221e-24
-1.47613e-22
6.92408e-24
-1.47551e-22
5.97908e-24
-1.45826e-22
5.89829e-24
-1.4878e-22
6.39921e-24
-1.6547e-22
6.72537e-24
-1.71884e-22
7.21717e-24
-2.111e-22
7.45632e-24
-1.52e-22
7.03544e-24
-9.48366e-23
8.1627e-24
-9.95921e-23
8.46183e-24
-1.32777e-22
8.09907e-24
-1.32128e-22
9.39268e-24
-1.34288e-22
9.99779e-24
-7.48482e-23
9.45971e-24
-7.91445e-23
8.9197e-24
-4.46434e-23
7.51538e-24
-4.82707e-23
7.58671e-24
-4.94893e-23
7.60695e-24
7.54991e-24
7.75049e-24
-3.55725e-23
7.82547e-24
2.21013e-23
7.36606e-24
2.38675e-23
6.8697e-24
-1.12156e-23
6.89829e-24
2.10572e-23
6.23973e-24
-2.07542e-23
6.33032e-24
-8.45485e-23
5.80733e-24
-8.45691e-23
6.42971e-24
-8.36061e-23
6.71677e-24
-2.33738e-23
6.57353e-24
-2.1749e-23
6.12613e-24
1.66681e-23
6.3839e-24
-2.35329e-23
6.337e-24
3.80099e-23
7.20966e-24
3.64131e-23
6.85792e-24
8.18892e-24
6.47253e-24
-4.62081e-24
6.31952e-24
2.88771e-23
6.22261e-24
6.1879e-23
6.31053e-24
3.0338e-23
6.26814e-24
3.24564e-23
5.69293e-24
2.1222e-23
5.76821e-24
8.37287e-24
5.51171e-24
-4.76214e-23
5.39034e-24
-4.69118e-23
5.26461e-24
-5.75379e-23
4.91341e-24
-3.35913e-23
4.96959e-24
-2.36027e-23
4.93339e-24
-2.16239e-23
4.34976e-24
-1.96556e-23
4.32568e-24
-1.75886e-23
4.1374e-24
-1.35245e-23
3.73715e-24
-1.82187e-23
3.53242e-24
-3.42877e-23
3.28178e-24
3.24655e-24
-7.75706e-23
6.01342e-24
-6.09346e-23
5.25758e-24
1.66436e-24
5.74541e-24
-1.68385e-23
6.22374e-24
-1.57589e-23
5.45465e-24
-1.34162e-23
5.254e-24
-4.88224e-23
5.28393e-24
-4.74972e-23
6.96894e-24
-8.23702e-24
7.60555e-24
4.8762e-23
7.26391e-24
3.10658e-23
7.60281e-24
3.17717e-23
7.53184e-24
-5.66281e-23
6.96461e-24
-1.48123e-22
7.1517e-24
-1.52854e-22
8.25e-24
-1.57297e-22
8.85378e-24
-1.28997e-22
9.47484e-24
-1.37535e-22
9.67382e-24
-1.45231e-22
1.0116e-23
-1.61705e-22
9.869e-24
-1.6837e-22
1.02937e-23
-1.76043e-22
1.03813e-23
-1.83719e-22
1.05635e-23
-1.89246e-22
1.06415e-23
-1.29975e-22
1.05064e-23
-1.00187e-22
1.06628e-23
-1.35764e-22
1.09636e-23
-9.95827e-23
1.12448e-23
-1.37426e-22
1.08251e-23
-7.75174e-23
1.08298e-23
6.60621e-24
1.06967e-23
3.66584e-24
1.05777e-23
1.20106e-24
1.01447e-23
-6.14639e-23
9.72093e-24
-6.30271e-23
9.93167e-24
-9.27735e-23
9.25489e-24
-5.93216e-23
8.639e-24
-4.05223e-23
7.99598e-24
-3.9851e-23
7.75767e-24
-4.21572e-23
7.70769e-24
-4.65041e-23
7.59665e-24
-6.1565e-23
7.1475e-24
-3.50337e-23
7.54068e-24
-6.71286e-23
7.09435e-24
-8.42071e-23
7.18027e-24
-6.28708e-23
7.31345e-24
-1.02143e-22
6.89449e-24
-8.10708e-23
6.94168e-24
-7.37666e-23
6.923e-24
-5.47135e-23
6.83036e-24
-8.2999e-23
6.53038e-24
-4.22335e-23
6.45932e-24
-4.50696e-23
6.2039e-24
-3.61001e-23
6.04409e-24
-4.92001e-23
6.01151e-24
-4.30697e-23
5.91888e-24
-2.56712e-23
5.9818e-24
-3.18403e-23
5.97598e-24
5.97766e-24
-2.79967e-22
1.84251e-24
-2.16419e-22
2.47186e-24
-1.75373e-22
2.53298e-24
-1.71701e-22
2.39718e-24
-1.66883e-22
3.10633e-24
-1.25708e-22
3.83093e-24
-6.27559e-23
4.36761e-24
-1.29275e-22
4.1154e-24
-1.24594e-22
4.01901e-24
-8.52203e-23
4.67856e-24
-8.29116e-23
3.97896e-24
-8.28197e-23
4.03226e-24
-8.50105e-23
4.84695e-24
-8.86567e-23
5.43133e-24
-9.19506e-23
4.88281e-24
-9.76048e-23
6.04621e-24
-6.43942e-23
6.70838e-24
-3.34243e-23
6.85883e-24
-4.12304e-23
7.38759e-24
-4.56302e-23
7.59087e-24
-7.64333e-24
7.33602e-24
-6.79676e-23
7.52694e-24
-6.5926e-23
7.68786e-24
-6.3151e-23
8.78515e-24
-5.68581e-23
9.42355e-24
9.46346e-24
1.02338e-23
-2.4487e-23
1.03359e-23
-9.05794e-23
9.17062e-24
-8.87425e-23
9.44262e-24
-8.49971e-23
9.74347e-24
-5.1133e-23
9.75484e-24
-4.69476e-23
9.07285e-24
-8.81422e-24
8.08522e-24
-6.44205e-23
7.71483e-24
-9.52024e-23
7.12353e-24
-1.56729e-22
6.65144e-24
-1.56372e-22
6.78064e-24
-9.78061e-23
6.6408e-24
-1.13501e-22
6.55502e-24
-1.0219e-22
6.30513e-24
-7.4437e-23
5.97337e-24
-9.21544e-23
5.55115e-24
-7.9497e-23
5.09855e-24
-1.06764e-22
4.66117e-24
-1.35673e-22
4.34916e-24
-1.37126e-22
4.37355e-24
-1.13235e-22
4.29745e-24
-1.13671e-22
4.25329e-24
-1.38587e-22
3.80573e-24
-1.28171e-22
3.76074e-24
-1.23639e-22
3.7616e-24
-1.24112e-22
3.53012e-24
-8.94314e-23
3.71191e-24
-4.00944e-23
3.63696e-24
-3.53105e-23
3.30477e-24
-2.3065e-23
3.18473e-24
-2.8537e-23
2.90393e-24
-2.33957e-23
2.98853e-24
-3.70993e-23
2.78622e-24
2.70876e-24
-6.39464e-23
-5.07824e-24
-5.35143e-23
-4.17148e-24
-8.57132e-23
-2.37453e-24
-8.43106e-23
-1.60065e-24
-9.56335e-23
-2.37631e-24
-9.34426e-23
-5.85561e-25
-8.70972e-23
-7.3356e-25
-1.1779e-22
-2.27914e-25
-1.75868e-22
1.13692e-25
-1.06292e-22
9.31778e-25
-3.74072e-23
9.07389e-25
-3.53299e-23
1.25962e-25
-7.19961e-23
-9.58288e-26
-1.09069e-22
4.45728e-26
-1.4331e-22
8.6615e-25
-1.39015e-22
1.2592e-24
-1.3075e-22
1.54198e-24
-1.25102e-22
9.12034e-25
-1.49837e-22
1.99445e-24
-2.04168e-22
1.8079e-24
-1.97172e-22
2.1842e-24
-1.91129e-22
2.06365e-24
-9.56866e-23
1.85741e-24
-8.63615e-23
8.00064e-25
-7.8339e-23
2.49372e-25
-1.55185e-22
-5.13042e-25
-2.53201e-22
-7.5357e-25
-2.37711e-22
4.03565e-25
-1.95949e-22
8.66605e-25
-1.8676e-22
5.21374e-25
-2.6853e-22
7.70846e-25
-2.64407e-22
1.53454e-24
-2.28599e-22
2.26437e-24
-1.90364e-22
2.94701e-24
-1.90607e-22
2.65693e-24
-1.91183e-22
2.83737e-24
-1.60196e-22
3.80917e-24
-1.27845e-22
3.71719e-24
-1.30224e-22
3.30581e-24
-1.28919e-22
2.85878e-24
-1.38245e-22
3.56086e-24
-1.34899e-22
3.13016e-24
-1.34805e-22
3.05579e-24
-1.34033e-22
3.411e-24
-7.74482e-23
3.36541e-24
-1.00552e-22
3.11324e-24
-1.09005e-22
3.05857e-24
-1.18202e-22
3.00944e-24
-1.0931e-22
3.18528e-24
-1.20203e-22
3.25074e-24
-1.09901e-22
3.52964e-24
-1.10163e-22
3.7102e-24
-1.11046e-22
3.67854e-24
-8.85971e-23
3.80622e-24
-8.96251e-23
4.18795e-24
-1.00733e-22
4.19697e-24
-4.31537e-23
4.26229e-24
-6.72587e-23
4.18281e-24
-6.91832e-23
4.19542e-24
-7.26465e-23
4.18675e-24
-5.31005e-23
4.29124e-24
-1.05393e-23
4.39011e-24
1.96645e-23
4.34917e-24
5.05623e-24
4.37273e-24
-8.25387e-24
4.61558e-24
1.91354e-23
4.60609e-24
1.377e-23
4.50552e-24
4.69407e-23
4.50462e-24
4.33981e-23
4.46218e-24
5.88365e-23
4.45535e-24
4.65975e-23
4.39979e-24
3.7624e-23
4.39006e-24
6.0338e-23
4.20606e-24
4.29734e-23
4.11755e-24
5.79009e-23
4.01403e-24
5.64001e-23
3.92356e-24
3.96105e-23
3.76645e-24
2.45259e-23
3.60656e-24
2.98507e-23
3.42915e-24
2.3748e-23
3.22141e-24
2.31258e-23
2.96393e-24
2.68593e-23
2.67872e-24
1.74826e-23
2.33568e-24
1.64692e-23
1.92662e-24
1.49829e-23
1.49692e-24
1.33932e-23
9.63612e-25
5.77653e-24
4.27721e-25
1.06188e-23
-1.09602e-25
5.55075e-24
-6.59076e-25
-3.53607e-25
-1.18361e-24
-6.02468e-24
-1.68695e-24
-4.83088e-24
-2.18321e-24
-4.47613e-24
-2.66483e-24
-3.80626e-25
-3.20885e-24
-1.75919e-25
-1.33251e-22
2.0927e-24
-1.01139e-22
2.40312e-24
-1.05535e-22
2.56665e-24
-1.03541e-22
1.77981e-24
-3.51479e-23
3.69632e-24
-3.84943e-23
3.27423e-24
-5.52738e-23
3.94797e-24
-6.20563e-23
3.11425e-24
-6.4153e-23
2.65811e-24
-5.20235e-23
2.57687e-24
-4.91154e-23
1.79436e-24
1.18902e-23
1.54082e-24
1.56655e-23
1.58783e-24
2.23553e-23
3.78899e-25
-6.77816e-24
-3.30822e-25
5.21432e-25
-1.18803e-24
1.26397e-23
-2.25191e-24
3.05759e-23
-2.67545e-24
6.67891e-24
-4.46848e-24
-6.70926e-23
-5.21739e-24
-5.40871e-23
-5.98077e-24
-1.10605e-22
-5.95248e-24
-1.0103e-22
-6.18761e-24
-8.83403e-23
-6.39465e-24
-7.65818e-23
-6.42763e-24
-6.55855e-23
-6.87267e-24
-5.58308e-23
-6.88711e-24
-1.10072e-22
-7.31938e-24
-1.40785e-22
-7.0474e-24
-1.35686e-22
-6.42344e-24
-9.80944e-23
-5.85905e-24
-1.46208e-22
-6.23441e-24
-1.35347e-22
-5.90687e-24
-2.14438e-22
-5.42771e-24
-1.74683e-22
-4.84155e-24
-1.99395e-22
-3.94491e-24
-2.50399e-22
-4.1168e-24
-2.71108e-22
-3.52515e-24
-2.6117e-22
-3.19099e-24
-2.51459e-22
-2.40288e-24
-2.36358e-22
-1.97768e-24
-2.44031e-22
-2.06253e-24
-2.24701e-22
-1.06723e-24
-1.90832e-22
-1.09539e-24
-1.87374e-22
-5.9572e-25
-1.98916e-22
-3.20573e-25
-1.86582e-22
-3.81032e-25
-1.87617e-22
-8.14486e-26
-1.88921e-22
3.46604e-25
-1.15715e-22
7.70309e-25
-1.39916e-22
8.22801e-25
-1.42551e-22
1.08235e-24
-1.21079e-22
1.49044e-24
-1.29954e-22
1.75908e-24
-1.27131e-22
1.80052e-24
-1.04097e-22
1.90619e-24
-1.24504e-22
2.09608e-24
-9.46787e-23
2.31038e-24
-9.18448e-23
2.13243e-24
-8.19648e-23
2.34434e-24
-4.74286e-23
2.42616e-24
-3.37371e-23
2.39074e-24
-1.02783e-23
2.43297e-24
-9.94795e-24
2.59333e-24
-5.57419e-23
2.59567e-24
-4.8092e-23
2.71342e-24
-5.06993e-23
3.01555e-24
-4.27834e-23
3.11828e-24
-1.6257e-23
3.43314e-24
-2.98554e-23
3.42163e-24
-3.37904e-23
3.55499e-24
-5.63943e-23
3.56025e-24
-4.92491e-23
3.68588e-24
-3.03709e-23
3.8189e-24
-2.68206e-23
3.91641e-24
-2.60891e-23
3.88643e-24
-2.56219e-23
3.90287e-24
-1.06886e-23
3.86165e-24
-2.20495e-23
3.84456e-24
-1.12184e-23
3.79696e-24
-2.24512e-23
3.61754e-24
-1.20247e-23
3.44523e-24
-1.23927e-23
3.1793e-24
-1.30671e-23
2.88577e-24
-1.94834e-23
2.48945e-24
-1.37311e-23
2.08217e-24
-9.59908e-24
1.5945e-24
-5.91669e-24
1.08438e-24
1.39238e-25
5.6688e-25
-1.06178e-24
1.78605e-26
1.28795e-24
-5.20896e-25
4.88074e-24
-1.05706e-24
1.85982e-24
-1.60287e-24
5.53323e-25
-2.20179e-24
8.78634e-26
-1.82309e-23
-5.3058e-24
-8.07799e-23
-5.05301e-24
-8.97402e-23
-6.38685e-24
-8.45059e-23
-5.99927e-24
-1.05878e-22
-7.027e-24
-8.9095e-23
-6.47447e-24
-1.33845e-22
-6.20372e-24
-1.81263e-22
-6.50518e-24
-1.99291e-22
-4.87647e-24
-1.81481e-22
-4.44482e-24
-1.65701e-22
-4.18965e-24
-9.06181e-23
-5.03764e-24
-1.45995e-22
-5.21672e-24
-2.29245e-22
-5.77056e-24
-2.15127e-22
-6.08962e-24
-2.33714e-22
-4.56619e-24
-2.14731e-22
-4.90545e-24
-2.6905e-22
-5.46734e-24
-2.25439e-22
-4.82305e-24
-2.1718e-22
-5.16148e-24
-2.13568e-22
-5.51086e-24
-2.1049e-22
-5.91717e-24
-2.08609e-22
-6.08297e-24
-1.70241e-22
-6.29436e-24
-1.6897e-22
-6.08374e-24
-1.34881e-22
-6.06625e-24
-1.37074e-22
-6.53658e-24
-1.02779e-22
-6.40996e-24
-8.9126e-23
-6.30755e-24
-8.78726e-23
-6.303e-24
-8.69088e-23
-6.65009e-24
-5.27679e-23
-6.73272e-24
-8.66205e-23
-6.9994e-24
-2.07139e-23
-6.78803e-24
-1.68132e-23
-7.59655e-24
-9.9434e-23
-8.03427e-24
-1.55065e-22
-7.61719e-24
-1.46979e-22
-6.98625e-24
-1.4118e-22
-6.78026e-24
-1.7789e-22
-6.93237e-24
-1.39126e-22
-6.49322e-24
-1.60676e-22
-6.22851e-24
-1.54096e-22
-5.86309e-24
-1.76587e-22
-5.71083e-24
-1.73386e-22
-5.64137e-24
-1.71244e-22
-5.19947e-24
-1.18002e-22
-4.7475e-24
-8.9165e-23
-4.53101e-24
-7.30394e-23
-4.72825e-24
-8.98845e-23
-4.73153e-24
-7.52679e-23
-4.41198e-24
-7.10458e-23
-4.11276e-24
-7.78285e-23
-4.04874e-24
-1.08208e-22
-3.96595e-24
-1.27602e-22
-3.75006e-24
-1.13726e-22
-3.60326e-24
-1.33076e-22
-3.39146e-24
-1.65712e-22
-3.40851e-24
-1.62658e-22
-3.09836e-24
-1.60975e-22
-2.96319e-24
-1.11569e-22
-2.73364e-24
-6.00468e-23
-2.9491e-24
-5.42716e-23
-3.08078e-24
-4.81941e-23
-3.14327e-24
-3.24018e-23
-3.25292e-24
-2.51308e-23
-3.20131e-24
-2.73095e-23
-3.18177e-24
-4.14741e-23
-3.4839e-24
-3.65868e-23
-3.49606e-24
-5.24257e-23
-3.43891e-24
-4.79067e-23
-3.40048e-24
-4.42096e-23
-3.36192e-24
-4.03248e-23
-3.34779e-24
-4.52617e-23
-3.26991e-24
-3.96966e-23
-3.21311e-24
-4.8422e-23
-3.07365e-24
-2.68712e-23
-3.03643e-24
-2.84134e-23
-2.93448e-24
-2.93046e-23
-2.8948e-24
-4.68475e-23
-2.80974e-24
-5.10833e-23
-2.68058e-24
-4.52793e-23
-2.5735e-24
-3.9646e-23
-2.44769e-24
-4.37624e-23
-2.42357e-24
-3.91352e-23
-2.36503e-24
-2.37149e-23
-2.29979e-24
-1.24798e-23
-2.30655e-24
-8.31388e-24
-2.29462e-24
-5.24553e-24
-2.2756e-24
-5.6903e-24
-2.23225e-24
-4.21091e-24
-2.1541e-24
-3.31479e-24
-2.04287e-24
1.11657e-24
-1.87874e-24
-4.26494e-25
-1.69751e-24
-3.50046e-25
-5.35541e-23
-4.69614e-24
-6.17216e-23
-6.23862e-24
-7.02071e-23
-7.47276e-24
-8.25687e-23
-9.48341e-24
-4.59355e-23
-9.90738e-24
-4.51451e-23
-1.02997e-23
-4.05758e-23
-1.14154e-23
-3.41418e-23
-1.23009e-23
-8.36398e-23
-1.29271e-23
-1.30105e-22
-1.3037e-23
-1.13162e-22
-1.23771e-23
-1.00994e-22
-1.28446e-23
-1.27662e-22
-1.30429e-23
-1.16849e-22
-1.32174e-23
-1.03885e-22
-1.3094e-23
-1.51719e-22
-1.28943e-23
-2.05074e-22
-1.2654e-23
-1.52037e-22
-1.17604e-23
-2.04321e-22
-1.18331e-23
-1.93684e-22
-1.08755e-23
-1.86543e-22
-1.01152e-23
-1.82062e-22
-9.07211e-24
-1.77351e-22
-8.35609e-24
-1.08485e-22
-8.08732e-24
-1.38705e-22
-7.55515e-24
-1.38186e-22
-7.62868e-24
-7.26e-23
-7.1679e-24
-6.76555e-23
-6.29287e-24
-6.20756e-23
-6.34923e-24
-1.23636e-22
-5.98998e-24
-9.49545e-23
-5.67031e-24
-9.5803e-23
-6.32681e-24
-5.97046e-23
-6.23473e-24
-5.99252e-23
-6.6125e-24
-3.13527e-23
-6.56008e-24
-3.63019e-23
-6.59902e-24
-5.17415e-24
-6.79531e-24
3.19518e-23
-7.43965e-24
-3.16199e-23
-7.71817e-24
2.55204e-23
-7.64961e-24
2.61571e-23
-8.14285e-24
-6.75601e-24
-8.36862e-24
-4.16964e-23
-7.98206e-24
-4.17202e-23
-7.91939e-24
-5.65159e-23
-7.94806e-24
-5.68302e-23
-7.80743e-24
-8.22376e-23
-7.60909e-24
-9.31945e-23
-7.28409e-24
-9.21968e-23
-7.18919e-24
-1.01658e-22
-6.89053e-24
-8.75601e-23
-6.80216e-24
-7.22292e-23
-6.90308e-24
-6.37499e-23
-6.9871e-24
-5.94968e-23
-6.92659e-24
-5.28316e-23
-6.93074e-24
-5.23417e-23
-6.80944e-24
-6.86479e-23
-6.93353e-24
-4.40259e-23
-6.79486e-24
-7.26158e-23
-6.73735e-24
-9.88133e-23
-6.82816e-24
-8.05204e-23
-6.68059e-24
-6.63724e-23
-6.48221e-24
-6.11181e-23
-6.22196e-24
-5.61191e-23
-6.20298e-24
-2.1118e-23
-6.07834e-24
-5.02867e-23
-6.08714e-24
-6.38454e-23
-6.10424e-24
-6.10526e-23
-5.78262e-24
-4.00441e-23
-5.69055e-24
-3.92847e-23
-5.59224e-24
-3.67653e-23
-5.46125e-24
-3.46804e-23
-5.30437e-24
-1.70119e-23
-5.09763e-24
-1.57972e-23
-4.92741e-24
-1.53966e-23
-4.75426e-24
-3.1349e-23
-4.5817e-24
-1.60774e-23
-4.29195e-24
-1.72283e-23
-4.08131e-24
-1.13924e-23
-3.78008e-24
9.63045e-24
-3.59186e-24
2.01674e-23
-3.35221e-24
1.54486e-23
-3.16772e-24
1.46098e-23
-2.97623e-24
1.39701e-23
-2.75175e-24
5.4443e-24
-2.49858e-24
8.68547e-24
-2.27174e-24
4.1055e-24
-2.07901e-24
2.39489e-24
-1.83818e-24
5.22864e-24
-1.59989e-24
9.96354e-24
-1.33494e-24
8.3819e-24
-1.03759e-24
4.64552e-24
-6.89692e-25
1.39149e-24
-2.73575e-25
2.82471e-25
2.36735e-25
-1.08733e-25
-1.27349e-22
-1.01867e-23
-1.43922e-22
-8.82295e-24
-1.43762e-22
-7.89012e-24
-1.49036e-22
-8.82378e-24
-9.1755e-23
-8.7014e-24
-9.31366e-23
-1.03204e-23
-9.02473e-23
-1.02678e-23
-7.52818e-23
-1.13577e-23
-7.24125e-23
-1.33934e-23
-7.14045e-23
-1.38256e-23
-7.00169e-23
-1.55628e-23
-7.1457e-23
-1.53571e-23
-7.33429e-23
-1.47723e-23
-7.28965e-23
-1.485e-23
-1.10995e-22
-1.44381e-23
-1.11308e-22
-1.42776e-23
-1.12681e-22
-1.35946e-23
-1.11149e-22
-1.36193e-23
-1.09538e-22
-1.29827e-23
-1.0399e-22
-1.25953e-23
-9.71278e-23
-1.23109e-23
-1.2885e-22
-1.20292e-23
-1.65254e-22
-1.21938e-23
-1.25394e-22
-1.21791e-23
-1.18024e-22
-1.2379e-23
-1.43822e-22
-1.24469e-23
-7.29569e-23
-1.15945e-23
-1.0518e-22
-1.2077e-23
-1.01103e-22
-1.24002e-23
-1.83239e-22
-1.27338e-23
-2.13022e-22
-1.27382e-23
-2.40882e-22
-1.19592e-23
-1.75469e-22
-1.20566e-23
-1.69727e-22
-1.18872e-23
-2.29389e-22
-1.13697e-23
-2.25073e-22
-1.07601e-23
-2.53415e-22
-1.0312e-23
-2.11582e-22
-1.06141e-23
-2.04423e-22
-1.04813e-23
-2.61306e-22
-1.00028e-23
-1.95064e-22
-9.38309e-24
-1.55393e-22
-9.13692e-24
-1.21198e-22
-9.36857e-24
-1.19578e-22
-9.29947e-24
-1.18407e-22
-9.12865e-24
-7.42044e-23
-9.03537e-24
-8.59434e-23
-8.93686e-24
-9.69115e-23
-8.69603e-24
-7.17419e-23
-8.48906e-24
-7.18009e-23
-8.60626e-24
-8.11598e-23
-8.77393e-24
-7.29454e-23
-8.6388e-24
-9.28131e-23
-8.41823e-24
-9.01861e-23
-8.61816e-24
-9.48689e-23
-8.57424e-24
-1.01598e-22
-8.48188e-24
-1.00484e-22
-8.15853e-24
-1.09705e-22
-8.21193e-24
-1.3057e-22
-8.29237e-24
-1.2916e-22
-8.14791e-24
-9.46348e-23
-7.95683e-24
-7.94855e-23
-7.96672e-24
-9.39133e-23
-7.9421e-24
-7.75771e-23
-7.90363e-24
-8.11467e-23
-7.79507e-24
-6.96325e-23
-7.66541e-24
-5.54774e-23
-7.48181e-24
-4.07002e-23
-7.34891e-24
-3.53897e-23
-7.25568e-24
-3.78855e-23
-6.9413e-24
-1.31633e-23
-6.7883e-24
-8.75356e-24
-6.54366e-24
-2.87845e-23
-6.32295e-24
-2.25864e-24
-6.04819e-24
8.38917e-26
-5.82653e-24
2.39361e-23
-5.56114e-24
1.70149e-23
-5.31198e-24
1.74328e-23
-4.98372e-24
1.1402e-23
-4.73228e-24
1.15854e-23
-4.42026e-24
-1.17625e-23
-4.18868e-24
-1.17502e-23
-3.89778e-24
-1.83711e-24
-3.57647e-24
-2.80415e-24
-3.33307e-24
-1.11384e-23
-3.08196e-24
-9.34686e-24
-2.80503e-24
-3.3495e-24
-2.50943e-24
-4.49884e-24
-2.24384e-24
2.33407e-24
-1.98395e-24
4.17307e-24
-1.74815e-24
4.10878e-24
-1.54013e-24
-1.03618e-24
-1.34825e-24
-1.7075e-24
-1.1793e-24
-5.32379e-25
-1.06102e-24
-2.20967e-25
-1.30863e-22
-7.18809e-24
-1.24451e-22
-6.87647e-24
-1.53725e-22
-6.13943e-24
-1.87817e-22
-5.40867e-24
-1.44683e-22
-4.67943e-24
-1.45162e-22
-3.38712e-24
-1.79932e-22
-4.17369e-24
-1.80027e-22
-4.03004e-24
-1.8311e-22
-3.86257e-24
-2.06566e-22
-4.06522e-24
-1.2748e-22
-3.95988e-24
-1.02315e-22
-3.80019e-24
-7.67587e-23
-4.59825e-24
-5.30598e-23
-5.07982e-24
-6.46972e-23
-4.93867e-24
-3.59445e-23
-4.84191e-24
-4.59621e-23
-5.46335e-24
-2.36913e-23
-5.73637e-24
-3.06696e-23
-6.18622e-24
-1.97024e-23
-7.03641e-24
-1.89151e-23
-7.07332e-24
-8.96558e-24
-7.33934e-24
-8.27234e-24
-7.65506e-24
-8.53051e-24
-7.96518e-24
5.08711e-23
-7.98873e-24
4.55921e-23
-7.8972e-24
7.69571e-23
-8.12762e-24
7.10113e-23
-9.04835e-24
6.2738e-23
-9.39307e-24
5.34236e-23
-9.21488e-24
8.08767e-23
-9.90313e-24
7.39137e-23
-1.01005e-23
7.02182e-23
-9.94427e-24
1.31069e-22
-1.0304e-23
1.3187e-22
-1.04897e-23
6.83418e-23
-1.04635e-23
8.29183e-24
-1.09705e-23
4.19436e-23
-1.04237e-23
7.4593e-23
-1.01202e-23
7.55851e-23
-1.01921e-23
7.4652e-23
-1.01565e-23
4.24685e-23
-1.00539e-23
4.5783e-23
-1.01141e-23
8.03435e-23
-1.00063e-23
5.30823e-23
-1.01634e-23
4.24793e-23
-1.03812e-23
4.51332e-23
-1.04036e-23
8.73526e-24
-1.05383e-23
2.02442e-25
-1.075e-23
-3.47668e-23
-1.07668e-23
1.48644e-23
-1.06229e-23
-5.01757e-24
-1.08665e-23
-2.44163e-23
-1.08644e-23
-3.12842e-23
-1.06592e-23
-2.94404e-23
-1.05788e-23
-2.81424e-23
-1.06563e-23
-7.22703e-23
-1.05788e-23
-6.77191e-23
-1.0298e-23
-6.30516e-23
-9.98599e-24
-4.77218e-23
-9.64614e-24
-4.29092e-23
-9.50611e-24
-2.98115e-23
-9.24571e-24
-4.94435e-23
-9.19658e-24
-4.41931e-23
-9.21807e-24
-1.87618e-23
-8.99845e-24
-4.21386e-24
-8.80023e-24
-4.20107e-24
-8.68015e-24
-1.50344e-26
-8.36638e-24
2.2715e-24
-8.12792e-24
3.35136e-24
-7.85921e-24
4.76518e-24
-7.70893e-24
9.20251e-24
-7.60655e-24
-7.38919e-25
-7.44057e-24
-1.06411e-23
-7.24685e-24
1.32121e-23
-7.05612e-24
3.18914e-25
-6.8204e-24
3.06323e-23
-6.55396e-24
3.11865e-23
-6.30028e-24
1.18577e-23
-6.01104e-24
1.32596e-23
-5.7394e-24
1.42396e-23
-5.37973e-24
1.58175e-23
-5.09855e-24
1.71865e-23
-4.78539e-24
1.83177e-23
-4.42428e-24
1.03988e-23
-4.0876e-24
1.47756e-23
-3.70341e-24
1.50414e-23
-3.33126e-24
9.02291e-24
-2.95099e-24
5.25741e-24
-2.59728e-24
7.21562e-25
-2.2295e-24
3.50501e-24
-1.90698e-24
2.37743e-24
-1.61829e-24
5.11105e-25
-1.40917e-24
2.85011e-25
-1.30264e-24
-3.36198e-26
-6.78038e-23
-1.67285e-23
-5.50906e-23
-1.54664e-23
-7.85878e-23
-1.40592e-23
-1.31804e-22
-1.24444e-23
-1.06669e-22
-1.06535e-23
-1.64865e-22
-1.11544e-23
-1.56942e-22
-1.00115e-23
-1.50964e-22
-9.41863e-24
-1.88624e-22
-8.32783e-24
-1.84632e-22
-6.02708e-24
-1.16899e-22
-6.03938e-24
-1.29045e-22
-5.04658e-24
-1.27798e-22
-5.99655e-24
-8.46446e-23
-6.32764e-24
-8.02037e-23
-6.34946e-24
-7.52708e-23
-7.11929e-24
-7.18032e-23
-7.19493e-24
-1.03587e-22
-7.06299e-24
-9.76644e-23
-7.83538e-24
-9.14574e-23
-7.59846e-24
-8.86266e-23
-8.92076e-24
-1.27019e-22
-8.48609e-24
-1.24743e-22
-8.1785e-24
-1.19801e-22
-7.56959e-24
-1.17683e-22
-7.01246e-24
-1.51477e-22
-7.01165e-24
-1.49887e-22
-7.0286e-24
-1.8733e-22
-6.43866e-24
-1.89132e-22
-6.0854e-24
-1.91208e-22
-5.5711e-24
-1.94372e-22
-4.89738e-24
-1.29991e-22
-5.23859e-24
-1.34098e-22
-5.00126e-24
-1.06147e-22
-4.63902e-24
-7.83127e-23
-4.16226e-24
-1.18713e-22
-4.13755e-24
-6.23569e-23
-4.08535e-24
-4.83963e-24
-3.94863e-24
-9.70533e-24
-4.37973e-24
1.72968e-23
-4.79124e-24
-5.03575e-23
-5.05698e-24
-5.72453e-23
-4.98026e-24
-2.19071e-24
-4.83981e-24
2.54781e-23
-4.85274e-24
-1.59739e-23
-5.39296e-24
-1.2113e-23
-5.50117e-24
6.39101e-24
-5.7983e-24
-2.86161e-23
-5.88971e-24
-3.77155e-23
-5.694e-24
-4.65866e-23
-5.73654e-24
-8.88578e-24
-5.88375e-24
-4.06159e-23
-5.77471e-24
-2.70535e-23
-5.69919e-24
-3.79161e-23
-5.4949e-24
-1.22502e-23
-5.25195e-24
-3.15417e-23
-5.0493e-24
1.94815e-23
-4.87577e-24
1.06363e-23
-4.83786e-24
2.71584e-24
-4.68287e-24
-3.75716e-24
-4.75431e-24
-8.0457e-24
-4.49691e-24
-4.37026e-23
-4.33928e-24
-4.43942e-23
-4.18336e-24
-2.68301e-23
-3.85045e-24
-9.48867e-24
-3.74424e-24
3.15605e-23
-3.58495e-24
3.03922e-23
-3.54641e-24
3.04412e-23
-3.28425e-24
2.45575e-23
-3.18492e-24
1.76045e-23
-3.11811e-24
3.11329e-23
-3.02888e-24
9.39986e-24
-2.85624e-24
1.27855e-23
-2.67698e-24
8.45379e-24
-2.557e-24
1.20734e-23
-2.33023e-24
3.56178e-23
-2.10894e-24
2.96292e-23
-1.97515e-24
3.05034e-23
-1.80532e-24
2.48999e-23
-1.65417e-24
8.00743e-24
-1.44934e-24
2.88168e-24
-1.34739e-24
-2.4005e-24
-1.21315e-24
-7.08111e-24
-1.06437e-24
-1.09042e-23
-9.90416e-25
8.42847e-25
-9.31535e-25
5.79894e-24
-9.03554e-25
9.94901e-24
-9.41223e-25
7.71649e-24
-9.66715e-25
9.70111e-26
-1.05786e-24
-4.87824e-24
-1.1587e-24
1.83054e-25
-1.33114e-24
-3.19756e-24
-1.58831e-24
-1.33707e-24
-1.96438e-24
3.8289e-26
-2.53747e-24
-1.02748e-25
-6.48323e-23
-9.04869e-24
-3.43958e-24
-9.49609e-24
-7.23662e-24
-1.00437e-23
-1.04871e-23
-1.03251e-23
-1.0032e-22
-1.06977e-23
-6.33867e-23
-8.66834e-24
-1.05132e-22
-8.13814e-24
-6.70139e-23
-8.28291e-24
-6.23337e-23
-8.55646e-24
-8.74168e-23
-8.70988e-24
-3.62394e-23
-9.08399e-24
-1.15192e-22
-9.10384e-24
-7.05903e-23
-8.67748e-24
-6.52465e-23
-8.33484e-24
-9.32361e-23
-8.95008e-24
-9.02446e-23
-8.7457e-24
-8.35919e-23
-9.68169e-24
-1.42815e-22
-1.00084e-23
-1.40518e-22
-8.28617e-24
-1.40297e-22
-7.92078e-24
-7.73886e-23
-7.24732e-24
-7.74511e-23
-7.8624e-24
-4.44522e-23
-7.26465e-24
-1.86827e-23
-7.23673e-24
-2.13135e-23
-7.70502e-24
-4.42613e-24
-7.37852e-24
3.84781e-23
-6.84593e-24
4.05548e-23
-6.23377e-24
7.69474e-23
-5.87315e-24
7.9988e-23
-6.21904e-24
2.64328e-23
-5.73459e-24
6.21831e-23
-5.19805e-24
9.05302e-23
-4.85333e-24
1.20217e-22
-4.74711e-24
9.03057e-23
-4.66367e-24
5.61012e-23
-5.42727e-24
5.02862e-23
-4.72237e-24
-1.74662e-23
-4.92944e-24
-2.10858e-23
-4.86463e-24
8.03291e-24
-4.48665e-24
3.94572e-23
-4.41538e-24
7.64594e-24
-4.18665e-24
7.26355e-24
-3.91746e-24
-2.66306e-23
-3.83921e-24
-2.54031e-23
-3.64044e-24
3.79491e-24
-3.51723e-24
3.06055e-23
-2.91414e-24
4.0398e-23
-2.68489e-24
3.92585e-23
-2.66962e-24
4.97932e-23
-2.62127e-24
5.89307e-23
-2.35513e-24
6.58613e-23
-2.13633e-24
8.49827e-23
-1.76844e-24
1.16608e-22
-1.8057e-24
1.13941e-22
-1.59435e-24
1.10915e-22
-1.35758e-24
8.51227e-23
-1.19042e-24
1.03923e-22
-8.96602e-25
9.89565e-23
-8.74659e-25
1.03494e-22
-7.48557e-25
9.19407e-23
-5.68334e-25
8.79316e-23
-5.10533e-25
8.15891e-23
-1.09527e-25
7.48538e-23
2.6103e-25
6.70183e-23
3.79706e-25
7.93971e-23
6.66148e-25
6.52727e-23
7.80439e-25
6.69226e-23
8.11016e-25
3.12402e-23
8.94063e-25
2.52918e-23
1.07673e-24
3.81616e-23
1.26168e-24
1.07181e-23
1.26264e-24
9.43339e-24
1.44515e-24
3.14641e-23
1.56815e-24
2.96749e-23
1.76341e-24
2.23488e-23
1.92033e-24
1.56576e-23
2.07826e-24
9.62633e-24
2.2166e-24
3.94908e-24
2.33811e-24
-6.74687e-25
2.42176e-24
1.14699e-23
2.50348e-24
2.41697e-23
2.49119e-24
2.05178e-23
2.37877e-24
1.65296e-23
2.28475e-24
2.05955e-23
2.10022e-24
1.7748e-23
1.88317e-24
1.59127e-23
1.62351e-24
1.44237e-23
1.35259e-24
1.66131e-23
1.05715e-24
1.07382e-23
7.27617e-25
8.09102e-24
3.76121e-25
5.8242e-24
-2.75727e-27
3.7784e-24
-4.22125e-25
6.63492e-25
-9.28345e-25
2.46845e-25
5.09464e-23
-6.2664e-24
1.94699e-23
-7.61265e-24
-1.51395e-23
-7.9438e-24
-7.48596e-24
-9.24733e-24
8.65504e-26
-9.37145e-24
-5.37707e-23
-1.01235e-23
-1.18846e-22
-9.29104e-24
-1.15799e-22
-6.58965e-24
-1.13027e-22
-5.49625e-24
-1.12166e-22
-5.90065e-24
-1.09227e-22
-5.53304e-24
-9.57666e-23
-4.72061e-24
-5.68474e-23
-4.65891e-24
-5.33441e-23
-5.88296e-24
-3.41783e-23