/*--------------------------------*- C++ -*----------------------------------*\
  =========                 |
  \\      /  F ield         | OpenFOAM: The Open Source CFD Toolbox
   \\    /   O peration     | Website:  https://openfoam.org
    \\  /    A nd           | Version:  7
     \\/     M anipulation  |
\*---------------------------------------------------------------------------*/
FoamFile
{
    version     2.0;
    format      ascii;
    class       volScalarField;
    location    "92000";
    object      nut;
}
// * * * * * * * * * * * * * * * * * * * * * * * * * * * * * * * * * * * * * //

dimensions      [0 2 -1 0 0 0 0];

internalField   nonuniform List<scalar> 
4782
(
3.00905e-06
2.89088e-06
2.77379e-06
2.65783e-06
2.54309e-06
2.42967e-06
2.31763e-06
2.20705e-06
2.09803e-06
1.99063e-06
8.42371e-06
8.31836e-06
8.21134e-06
8.10273e-06
7.9927e-06
7.88127e-06
7.7686e-06
7.65468e-06
7.53965e-06
7.42355e-06
7.30635e-06
7.1881e-06
7.06892e-06
6.94883e-06
6.82793e-06
6.70626e-06
6.58392e-06
6.4609e-06
6.33728e-06
6.21314e-06
6.08852e-06
5.96346e-06
5.83808e-06
5.71243e-06
5.58652e-06
5.46042e-06
5.33415e-06
5.20777e-06
5.08136e-06
4.95495e-06
4.82858e-06
4.70231e-06
4.5762e-06
4.45034e-06
4.32478e-06
4.19959e-06
4.07479e-06
3.95046e-06
3.82664e-06
3.70339e-06
3.58076e-06
3.45883e-06
3.33768e-06
3.21734e-06
3.0979e-06
2.97942e-06
2.86196e-06
2.74558e-06
2.63035e-06
2.51638e-06
2.40371e-06
2.29245e-06
2.18268e-06
2.07446e-06
1.96788e-06
8.38216e-06
8.27641e-06
8.16904e-06
8.0602e-06
7.94997e-06
7.83836e-06
7.7255e-06
7.61147e-06
7.49631e-06
7.38004e-06
7.26275e-06
7.14445e-06
7.02525e-06
6.90516e-06
6.78428e-06
6.66264e-06
6.54034e-06
6.4174e-06
6.29393e-06
6.16999e-06
6.04563e-06
5.92087e-06
5.79579e-06
5.67045e-06
5.54486e-06
5.41907e-06
5.29316e-06
5.16716e-06
5.04111e-06
4.91508e-06
4.78916e-06
4.66337e-06
4.53779e-06
4.41247e-06
4.28744e-06
4.16277e-06
4.0385e-06
3.91473e-06
3.79151e-06
3.66888e-06
3.54688e-06
3.42558e-06
3.30506e-06
3.18538e-06
3.0666e-06
2.94881e-06
2.83206e-06
2.71643e-06
2.60198e-06
2.48878e-06
2.3769e-06
2.26643e-06
2.15746e-06
2.05007e-06
1.94434e-06
8.33914e-06
8.23311e-06
8.1255e-06
8.01646e-06
7.90605e-06
7.79431e-06
7.68125e-06
7.56695e-06
7.4515e-06
7.33503e-06
7.21762e-06
7.09932e-06
6.98017e-06
6.86014e-06
6.73928e-06
6.61769e-06
6.49547e-06
6.37271e-06
6.24945e-06
6.1257e-06
6.0015e-06
5.87694e-06
5.75206e-06
5.62694e-06
5.50163e-06
5.37616e-06
5.25059e-06
5.12498e-06
4.99938e-06
4.87382e-06
4.74835e-06
4.62306e-06
4.49797e-06
4.37317e-06
4.24868e-06
4.12459e-06
4.00093e-06
3.87778e-06
3.75517e-06
3.63319e-06
3.5119e-06
3.39132e-06
3.27153e-06
3.15259e-06
3.03457e-06
2.91753e-06
2.80155e-06
2.68669e-06
2.57301e-06
2.46061e-06
2.34955e-06
2.2399e-06
2.13176e-06
2.02522e-06
1.92035e-06
8.2877e-06
8.18165e-06
8.07412e-06
7.96509e-06
7.85462e-06
7.74279e-06
7.62972e-06
7.51549e-06
7.40025e-06
7.28402e-06
7.16686e-06
7.04875e-06
6.92973e-06
6.80986e-06
6.68921e-06
6.56791e-06
6.44601e-06
6.32352e-06
6.20054e-06
6.07709e-06
5.95326e-06
5.82911e-06
5.70469e-06
5.58001e-06
5.45515e-06
5.33013e-06
5.20503e-06
5.07988e-06
4.95477e-06
4.82976e-06
4.7049e-06
4.58023e-06
4.45577e-06
4.33159e-06
4.20775e-06
4.0843e-06
3.9613e-06
3.83882e-06
3.71694e-06
3.5957e-06
3.47516e-06
3.35535e-06
3.23633e-06
3.11817e-06
3.00093e-06
2.88469e-06
2.76953e-06
2.6555e-06
2.5427e-06
2.43117e-06
2.321e-06
2.21226e-06
2.10504e-06
1.99941e-06
1.89546e-06
8.28718e-06
8.18119e-06
8.0736e-06
7.96447e-06
7.85398e-06
7.74222e-06
7.62926e-06
7.51516e-06
7.39998e-06
7.28374e-06
7.16647e-06
7.04832e-06
6.92934e-06
6.80959e-06
6.68907e-06
6.56782e-06
6.44592e-06
6.32347e-06
6.20049e-06
6.07709e-06
5.95327e-06
5.82912e-06
5.70468e-06
5.58001e-06
5.45514e-06
5.33015e-06
5.20507e-06
5.07997e-06
4.95487e-06
4.82983e-06
4.7049e-06
4.58017e-06
4.45568e-06
4.33148e-06
4.20762e-06
4.08418e-06
3.96121e-06
3.83875e-06
3.71687e-06
3.59561e-06
3.47504e-06
3.35524e-06
3.23622e-06
3.11807e-06
3.00085e-06
2.88463e-06
2.76948e-06
2.65547e-06
2.54267e-06
2.43116e-06
2.32099e-06
2.21225e-06
2.10503e-06
1.99941e-06
1.89547e-06
8.33842e-06
8.23236e-06
8.12476e-06
8.0157e-06
7.90523e-06
7.79346e-06
7.68042e-06
7.56623e-06
7.45095e-06
7.33455e-06
7.21709e-06
7.09865e-06
6.97936e-06
6.85929e-06
6.73851e-06
6.61705e-06
6.49496e-06
6.37224e-06
6.24899e-06
6.12523e-06
6.00106e-06
5.87655e-06
5.7517e-06
5.62662e-06
5.50134e-06
5.3759e-06
5.25033e-06
5.12473e-06
4.99911e-06
4.87356e-06
4.74809e-06
4.62277e-06
4.49764e-06
4.37281e-06
4.24833e-06
4.12426e-06
4.00063e-06
3.87749e-06
3.75489e-06
3.6329e-06
3.5116e-06
3.39105e-06
3.2713e-06
3.15239e-06
3.03441e-06
2.9174e-06
2.80143e-06
2.68659e-06
2.57296e-06
2.46059e-06
2.34955e-06
2.23994e-06
2.13182e-06
2.02529e-06
1.92042e-06
1.8173e-06
1.71603e-06
1.6167e-06
1.51938e-06
8.38093e-06
8.27533e-06
8.16815e-06
8.0594e-06
7.94914e-06
7.83755e-06
7.7247e-06
7.6106e-06
7.49538e-06
7.37908e-06
7.26172e-06
7.14343e-06
7.02426e-06
6.90427e-06
6.78346e-06
6.66193e-06
6.5397e-06
6.41685e-06
6.29343e-06
6.16951e-06
6.04512e-06
5.92034e-06
5.79522e-06
5.66982e-06
5.54421e-06
5.4184e-06
5.29244e-06
5.16643e-06
5.04043e-06
4.91448e-06
4.7886e-06
4.66285e-06
4.5373e-06
4.41198e-06
4.28699e-06
4.16237e-06
4.03819e-06
3.91448e-06
3.79128e-06
3.66869e-06
3.54674e-06
3.42549e-06
3.305e-06
3.18536e-06
3.06662e-06
2.94885e-06
2.83214e-06
2.71653e-06
2.60208e-06
2.4889e-06
2.37703e-06
2.26658e-06
2.15762e-06
2.05023e-06
1.94449e-06
1.84048e-06
1.73831e-06
1.63807e-06
1.53986e-06
1.44377e-06
8.42175e-06
8.31662e-06
8.2099e-06
8.10156e-06
7.99167e-06
7.88032e-06
7.7676e-06
7.65366e-06
7.53858e-06
7.4224e-06
7.30515e-06
7.18694e-06
7.06783e-06
6.94787e-06
6.82704e-06
6.7054e-06
6.58302e-06
6.46001e-06
6.33644e-06
6.21232e-06
6.08776e-06
5.9628e-06
5.83744e-06
5.71175e-06
5.5858e-06
5.45964e-06
5.33335e-06
5.20699e-06
5.08058e-06
4.95416e-06
4.82784e-06
4.70167e-06
4.57569e-06
4.44993e-06
4.32444e-06
4.19927e-06
4.07451e-06
3.9502e-06
3.82639e-06
3.70318e-06
3.5806e-06
3.45872e-06
3.33758e-06
3.21727e-06
3.09784e-06
2.97938e-06
2.86196e-06
2.74561e-06
2.63042e-06
2.51645e-06
2.40379e-06
2.29252e-06
2.18272e-06
2.07448e-06
1.96788e-06
1.86302e-06
1.75998e-06
1.65887e-06
1.55977e-06
1.46278e-06
1.36802e-06
1.27558e-06
1.18557e-06
1.09809e-06
1.01325e-06
9.31163e-07
8.51919e-07
7.75602e-07
7.0218e-07
6.31136e-07
5.57099e-07
4.85783e-07
4.18371e-07
3.55277e-07
2.96924e-07
2.43712e-07
1.95991e-07
1.54027e-07
1.17959e-07
8.77643e-08
6.3229e-08
4.39485e-08
2.935e-08
1.87407e-08
1.13723e-08
6.50667e-09
3.47267e-09
1.70286e-09
7.50333e-10
2.87145e-10
9.03245e-11
2.12191e-11
3.09504e-12
1.86592e-13
1.65341e-15
8.46097e-06
8.35627e-06
8.24993e-06
8.14197e-06
8.0325e-06
7.92152e-06
7.80911e-06
7.69535e-06
7.5804e-06
7.46428e-06
7.3471e-06
7.22894e-06
7.10978e-06
6.98973e-06
6.86885e-06
6.74715e-06
6.62472e-06
6.50164e-06
6.37791e-06
6.25364e-06
6.12889e-06
6.00372e-06
5.87815e-06
5.7522e-06
5.62597e-06
5.49948e-06
5.37283e-06
5.24607e-06
5.11927e-06
4.99249e-06
4.86575e-06
4.7391e-06
4.61261e-06
4.48635e-06
4.36036e-06
4.23468e-06
4.10939e-06
3.98456e-06
3.86025e-06
3.7365e-06
3.61335e-06
3.49087e-06
3.3691e-06
3.24813e-06
3.12803e-06
3.00887e-06
2.89073e-06
2.77366e-06
2.65775e-06
2.54305e-06
2.42964e-06
2.31761e-06
2.20703e-06
2.098e-06
1.9906e-06
1.88493e-06
1.78107e-06
1.67913e-06
1.57919e-06
1.48137e-06
1.38575e-06
1.29244e-06
1.20156e-06
1.1132e-06
1.0275e-06
9.44543e-07
8.64439e-07
7.87274e-07
7.13036e-07
6.41279e-07
5.67405e-07
4.95215e-07
4.26909e-07
3.62908e-07
3.0364e-07
2.49516e-07
2.00903e-07
1.58083e-07
1.21216e-07
9.02965e-08
6.5127e-08
4.53142e-08
3.02888e-08
1.93541e-08
1.17508e-08
6.72564e-09
3.59012e-09
1.7604e-09
7.75503e-10
2.96638e-10
9.32366e-11
2.18747e-11
3.18337e-12
1.91046e-13
1.67654e-15
8.49855e-06
8.39422e-06
8.28815e-06
8.1805e-06
8.07132e-06
7.9606e-06
7.84847e-06
7.73497e-06
7.62024e-06
7.50437e-06
7.3874e-06
7.26933e-06
7.15023e-06
7.03021e-06
6.90931e-06
6.78762e-06
6.66514e-06
6.54198e-06
6.41821e-06
6.29383e-06
6.16894e-06
6.04354e-06
5.9177e-06
5.7915e-06
5.66498e-06
5.53823e-06
5.41131e-06
5.28424e-06
5.1571e-06
5.02992e-06
4.90279e-06
4.77575e-06
4.64883e-06
4.52207e-06
4.39553e-06
4.26928e-06
4.14341e-06
4.01799e-06
3.89306e-06
3.7687e-06
3.64494e-06
3.52183e-06
3.39945e-06
3.27785e-06
3.15711e-06
3.03731e-06
2.9185e-06
2.80075e-06
2.68411e-06
2.56868e-06
2.45454e-06
2.34176e-06
2.23043e-06
2.12064e-06
2.01248e-06
1.90604e-06
1.80142e-06
1.6987e-06
1.59797e-06
1.49935e-06
1.40292e-06
1.30879e-06
1.21708e-06
1.1279e-06
1.04136e-06
9.57574e-07
8.76648e-07
7.98671e-07
7.23644e-07
6.51197e-07
5.77483e-07
5.0445e-07
4.3528e-07
3.70398e-07
3.10242e-07
2.55232e-07
2.05748e-07
1.62092e-07
1.24441e-07
9.28072e-08
6.7012e-08
4.66725e-08
3.12238e-08
1.99658e-08
1.21286e-08
6.94432e-09
3.70746e-09
1.8179e-09
8.00656e-10
3.0612e-10
9.61438e-11
2.25285e-11
3.27129e-12
1.95461e-13
1.69931e-15
8.53452e-06
8.43065e-06
8.32498e-06
8.21759e-06
8.10865e-06
7.99823e-06
7.88633e-06
7.77307e-06
7.65847e-06
7.54268e-06
7.42578e-06
7.30783e-06
7.18889e-06
7.06903e-06
6.94828e-06
6.82663e-06
6.70412e-06
6.58083e-06
6.45683e-06
6.33226e-06
6.20718e-06
6.08163e-06
5.95564e-06
5.82928e-06
5.70256e-06
5.57556e-06
5.44835e-06
5.32097e-06
5.19346e-06
5.06589e-06
4.93834e-06
4.81086e-06
4.68351e-06
4.55633e-06
4.42939e-06
4.30272e-06
4.17638e-06
4.05046e-06
3.92499e-06
3.80005e-06
3.67569e-06
3.55198e-06
3.42898e-06
3.30676e-06
3.18539e-06
3.06492e-06
2.94543e-06
2.82698e-06
2.70966e-06
2.59354e-06
2.47869e-06
2.3652e-06
2.25316e-06
2.14264e-06
2.03374e-06
1.92654e-06
1.82115e-06
1.71766e-06
1.61617e-06
1.51677e-06
1.41956e-06
1.32465e-06
1.23215e-06
1.14216e-06
1.05482e-06
9.70222e-07
8.8849e-07
8.09717e-07
7.33924e-07
6.60811e-07
5.87253e-07
5.13406e-07
4.43402e-07
3.77672e-07
3.16658e-07
2.60793e-07
2.10471e-07
1.66006e-07
1.27594e-07
9.52676e-08
6.88628e-08
4.80085e-08
3.2145e-08
2.05691e-08
1.25017e-08
7.16045e-09
3.8235e-09
1.87477e-09
8.2553e-10
3.15495e-10
9.90158e-11
2.31735e-11
3.35782e-12
1.99786e-13
1.72133e-15
8.56862e-06
8.46509e-06
8.35982e-06
8.25285e-06
8.14429e-06
8.03416e-06
7.92253e-06
7.80953e-06
7.69519e-06
7.57964e-06
7.46294e-06
7.34508e-06
7.22612e-06
7.10618e-06
6.98533e-06
6.86361e-06
6.74104e-06
6.61771e-06
6.4937e-06
6.36903e-06
6.2438e-06
6.11807e-06
5.99185e-06
5.86522e-06
5.73822e-06
5.61094e-06
5.48342e-06
5.3557e-06
5.22785e-06
5.09996e-06
4.97207e-06
4.84425e-06
4.71655e-06
4.58902e-06
4.46168e-06
4.33462e-06
4.20788e-06
4.08152e-06
3.9556e-06
3.83017e-06
3.70531e-06
3.58107e-06
3.45752e-06
3.3347e-06
3.21271e-06
3.09161e-06
2.97148e-06
2.85237e-06
2.73439e-06
2.61758e-06
2.50206e-06
2.38789e-06
2.27515e-06
2.16393e-06
2.05432e-06
1.94641e-06
1.84029e-06
1.73606e-06
1.63381e-06
1.53365e-06
1.43568e-06
1.34001e-06
1.24674e-06
1.15598e-06
1.06787e-06
9.82506e-07
9.00008e-07
8.20476e-07
7.43946e-07
6.70192e-07
5.9678e-07
5.22145e-07
4.51335e-07
3.84783e-07
3.22938e-07
2.66244e-07
2.15104e-07
1.6985e-07
1.30697e-07
9.7692e-08
7.06888e-08
4.93285e-08
3.30562e-08
2.11666e-08
1.28716e-08
7.37481e-09
3.93863e-09
1.93121e-09
8.50217e-10
3.24796e-10
1.01864e-10
2.38125e-11
3.44342e-12
2.04051e-13
1.74296e-15
8.60066e-06
8.49742e-06
8.39243e-06
8.28576e-06
8.1775e-06
8.06772e-06
7.95648e-06
7.84384e-06
7.72985e-06
7.61453e-06
7.49799e-06
7.38026e-06
7.26147e-06
7.14169e-06
7.02091e-06
6.89919e-06
6.77658e-06
6.65316e-06
6.52906e-06
6.40429e-06
6.27895e-06
6.15306e-06
6.02666e-06
5.89983e-06
5.77266e-06
5.64517e-06
5.51741e-06
5.38942e-06
5.26129e-06
5.13309e-06
5.00486e-06
4.87664e-06
4.74848e-06
4.62049e-06
4.49269e-06
4.36516e-06
4.23797e-06
4.11116e-06
3.98476e-06
3.85883e-06
3.73343e-06
3.60865e-06
3.48457e-06
3.36125e-06
3.23872e-06
3.11705e-06
2.99632e-06
2.87662e-06
2.75803e-06
2.64062e-06
2.52448e-06
2.40966e-06
2.29626e-06
2.18437e-06
2.07408e-06
1.96548e-06
1.85866e-06
1.75372e-06
1.65076e-06
1.54987e-06
1.45117e-06
1.35477e-06
1.26076e-06
1.16928e-06
1.08043e-06
9.94334e-07
9.11098e-07
8.3083e-07
7.53589e-07
6.7922e-07
6.05953e-07
5.3057e-07
4.5899e-07
3.91653e-07
3.29013e-07
2.71523e-07
2.19598e-07
1.73586e-07
1.33715e-07
1.00054e-07
7.24711e-08
5.06188e-08
3.39481e-08
2.17521e-08
1.32343e-08
7.58525e-09
4.05171e-09
1.98665e-09
8.74467e-10
3.3393e-10
1.04659e-10
2.44391e-11
3.52718e-12
2.08208e-13
1.76386e-15
8.63085e-06
8.52809e-06
8.4236e-06
8.31741e-06
8.20957e-06
8.10009e-06
7.98912e-06
7.87671e-06
7.76285e-06
7.6476e-06
7.53112e-06
7.4135e-06
7.29477e-06
7.17494e-06
7.05406e-06
6.93228e-06
6.80966e-06
6.68627e-06
6.56216e-06
6.43731e-06
6.3118e-06
6.18573e-06
6.05913e-06
5.93211e-06
5.80472e-06
5.67699e-06
5.54899e-06
5.42079e-06
5.29242e-06
5.16395e-06
5.03545e-06
4.90697e-06
4.77854e-06
4.65025e-06
4.52212e-06
4.39424e-06
4.26668e-06
4.13945e-06
4.01262e-06
3.88624e-06
3.76039e-06
3.63514e-06
3.51056e-06
3.3867e-06
3.26365e-06
3.14148e-06
3.02024e-06
2.90002e-06
2.78088e-06
2.66289e-06
2.54615e-06
2.43073e-06
2.31672e-06
2.20421e-06
2.09328e-06
1.98402e-06
1.87651e-06
1.77086e-06
1.66718e-06
1.56558e-06
1.46616e-06
1.36903e-06
1.27431e-06
1.18212e-06
1.09255e-06
1.00573e-06
9.21786e-07
8.4082e-07
7.62905e-07
6.87949e-07
6.1481e-07
5.38702e-07
4.66381e-07
3.98288e-07
3.34884e-07
2.76628e-07
2.23948e-07
1.77205e-07
1.36644e-07
1.0235e-07
7.4206e-08
5.18766e-08
3.48187e-08
2.23243e-08
1.35891e-08
7.79117e-09
4.16241e-09
2.04094e-09
8.98212e-10
3.42872e-10
1.07394e-10
2.50516e-11
3.60892e-12
2.12252e-13
1.78407e-15
8.6598e-06
8.55738e-06
8.45309e-06
8.3471e-06
8.23952e-06
8.13041e-06
8.0198e-06
7.90765e-06
7.79399e-06
7.6789e-06
7.56248e-06
7.44489e-06
7.3262e-06
7.20643e-06
7.08562e-06
6.96387e-06
6.84122e-06
6.71777e-06
6.59351e-06
6.46852e-06
6.3429e-06
6.21668e-06
6.08997e-06
5.96282e-06
5.83525e-06
5.70736e-06
5.57919e-06
5.45078e-06
5.3222e-06
5.19349e-06
5.06473e-06
4.93594e-06
4.80717e-06
4.67849e-06
4.54999e-06
4.4217e-06
4.29371e-06
4.16605e-06
4.03879e-06
3.91199e-06
3.78573e-06
3.66007e-06
3.53505e-06
3.41073e-06
3.28722e-06
3.16457e-06
3.04283e-06
2.92208e-06
2.80239e-06
2.68385e-06
2.56654e-06
2.45054e-06
2.33593e-06
2.22278e-06
2.11121e-06
2.0013e-06
1.89317e-06
1.7869e-06
1.68258e-06
1.58034e-06
1.48026e-06
1.38247e-06
1.28708e-06
1.19421e-06
1.10396e-06
1.01647e-06
9.3186e-07
8.50236e-07
7.71684e-07
6.96174e-07
6.23124e-07
5.46401e-07
4.7339e-07
4.04588e-07
3.40465e-07
2.81488e-07
2.28097e-07
1.80663e-07
1.39447e-07
1.0455e-07
7.58708e-08
5.30854e-08
3.56564e-08
2.28755e-08
1.39312e-08
7.98989e-09
4.26929e-09
2.09336e-09
9.2114e-10
3.51503e-10
1.10032e-10
2.56417e-11
3.68751e-12
2.16122e-13
1.80318e-15
8.68608e-06
8.58424e-06
8.48048e-06
8.37485e-06
8.26748e-06
8.15852e-06
8.04806e-06
7.93613e-06
7.8227e-06
7.70781e-06
7.59154e-06
7.47405e-06
7.35537e-06
7.23562e-06
7.11488e-06
6.99319e-06
6.87054e-06
6.74701e-06
6.62265e-06
6.49761e-06
6.37195e-06
6.24574e-06
6.11898e-06
5.99176e-06
5.86409e-06
5.73601e-06
5.6076e-06
5.47892e-06
5.35005e-06
5.22103e-06
5.09193e-06
4.96282e-06
4.83378e-06
4.70485e-06
4.57605e-06
4.44747e-06
4.31913e-06
4.19112e-06
4.06348e-06
3.93626e-06
3.80957e-06
3.68348e-06
3.55803e-06
3.43327e-06
3.30929e-06
3.18616e-06
3.06393e-06
2.9427e-06
2.82254e-06
2.7035e-06
2.58566e-06
2.46911e-06
2.35394e-06
2.24024e-06
2.12811e-06
2.01763e-06
1.9089e-06
1.80203e-06
1.6971e-06
1.59423e-06
1.49353e-06
1.39512e-06
1.2991e-06
1.20559e-06
1.11472e-06
1.0266e-06
9.41354e-07
8.59099e-07
7.79929e-07
7.03824e-07
6.30255e-07
5.53638e-07
4.79986e-07
4.10529e-07
3.45738e-07
2.86089e-07
2.32029e-07
1.83945e-07
1.42112e-07
1.06645e-07
7.74587e-08
5.42399e-08
3.64576e-08
2.34032e-08
1.42591e-08
8.18044e-09
4.37181e-09
2.14366e-09
9.43136e-10
3.59781e-10
1.12561e-10
2.62067e-11
3.76261e-12
2.19804e-13
1.82114e-15
8.71013e-06
8.60855e-06
8.50513e-06
8.39995e-06
8.29304e-06
8.18441e-06
8.07417e-06
7.96235e-06
7.84909e-06
7.73445e-06
7.61845e-06
7.5012e-06
7.38271e-06
7.26304e-06
7.14227e-06
7.02047e-06
6.89774e-06
6.77419e-06
6.64983e-06
6.52476e-06
6.399e-06
6.27261e-06
6.14569e-06
6.01831e-06
5.89047e-06
5.76223e-06
5.63368e-06
5.50488e-06
5.37584e-06
5.24663e-06
5.11735e-06
4.98805e-06
4.8588e-06
4.7296e-06
4.60052e-06
4.47164e-06
4.34299e-06
4.21465e-06
4.08668e-06
3.95914e-06
3.83208e-06
3.7056e-06
3.57973e-06
3.45454e-06
3.33011e-06
3.20651e-06
3.0838e-06
2.96205e-06
2.84133e-06
2.72176e-06
2.60341e-06
2.48634e-06
2.37066e-06
2.25645e-06
2.14379e-06
2.03279e-06
1.92354e-06
1.81613e-06
1.71066e-06
1.60723e-06
1.50596e-06
1.40698e-06
1.31039e-06
1.21631e-06
1.12485e-06
1.03614e-06
9.50304e-07
8.67463e-07
7.87712e-07
7.11041e-07
6.36973e-07
5.6045e-07
4.86197e-07
4.16124e-07
3.50708e-07
2.90429e-07
2.35745e-07
1.87051e-07
1.44637e-07
1.08633e-07
7.8967e-08
5.5338e-08
3.72206e-08
2.39063e-08
1.45718e-08
8.36233e-09
4.46971e-09
2.1917e-09
9.64146e-10
3.67686e-10
1.14975e-10
2.67455e-11
3.83409e-12
2.23296e-13
1.83804e-15
8.7326e-06
8.63129e-06
8.52813e-06
8.4232e-06
8.31657e-06
8.20829e-06
8.0983e-06
7.98668e-06
7.87357e-06
7.75905e-06
7.64311e-06
7.52583e-06
7.40727e-06
7.28759e-06
7.16685e-06
7.04507e-06
6.92238e-06
6.79884e-06
6.67452e-06
6.54942e-06
6.42363e-06
6.29717e-06
6.17016e-06
6.04267e-06
5.91474e-06
5.78644e-06
5.65782e-06
5.52888e-06
5.39972e-06
5.27037e-06
5.14091e-06
5.01138e-06
4.88186e-06
4.75239e-06
4.62305e-06
4.49386e-06
4.3649e-06
4.23624e-06
4.10792e-06
3.98002e-06
3.85261e-06
3.72576e-06
3.59952e-06
3.47397e-06
3.34917e-06
3.22519e-06
3.10211e-06
2.97998e-06
2.8589e-06
2.73895e-06
2.6202e-06
2.50273e-06
2.3866e-06
2.27191e-06
2.15876e-06
2.04723e-06
1.93743e-06
1.82947e-06
1.72345e-06
1.61947e-06
1.51764e-06
1.4181e-06
1.32095e-06
1.22631e-06
1.13429e-06
1.04503e-06
9.58652e-07
8.75264e-07
7.94972e-07
7.17781e-07
6.43257e-07
5.6683e-07
4.92016e-07
4.21368e-07
3.55368e-07
2.94501e-07
2.39233e-07
1.8997e-07
1.47013e-07
1.10506e-07
8.03904e-08
5.63754e-08
3.79421e-08
2.43825e-08
1.48681e-08
8.53477e-09
4.56257e-09
2.23727e-09
9.84076e-10
3.75183e-10
1.17263e-10
2.72558e-11
3.9017e-12
2.26589e-13
1.85386e-15
8.75333e-06
8.6523e-06
8.5494e-06
8.44461e-06
8.33806e-06
8.22984e-06
8.11999e-06
8.0085e-06
7.8955e-06
7.7811e-06
7.66533e-06
7.54821e-06
7.42986e-06
7.31031e-06
7.18966e-06
7.06794e-06
6.94521e-06
6.82162e-06
6.69725e-06
6.57215e-06
6.44635e-06
6.31995e-06
6.19298e-06
6.0655e-06
5.9375e-06
5.80905e-06
5.68024e-06
5.55111e-06
5.42176e-06
5.29224e-06
5.16258e-06
5.03285e-06
4.90309e-06
4.77335e-06
4.64369e-06
4.5142e-06
4.38497e-06
4.25604e-06
4.12747e-06
3.9993e-06
3.87161e-06
3.74446e-06
3.61789e-06
3.49198e-06
3.36682e-06
3.24247e-06
3.119e-06
2.9965e-06
2.87504e-06
2.75469e-06
2.63552e-06
2.51761e-06
2.40106e-06
2.28594e-06
2.17237e-06
2.06041e-06
1.95018e-06
1.84176e-06
1.73527e-06
1.63082e-06
1.52852e-06
1.42848e-06
1.33082e-06
1.23566e-06
1.14313e-06
1.05336e-06
9.66477e-07
8.82586e-07
8.01798e-07
7.24121e-07
6.49171e-07
5.72818e-07
4.97485e-07
4.26303e-07
3.59757e-07
2.98339e-07
2.42521e-07
1.92722e-07
1.49254e-07
1.12274e-07
8.17347e-08
5.73558e-08
3.86245e-08
2.48331e-08
1.51487e-08
8.69808e-09
4.65053e-09
2.28044e-09
1.00296e-09
3.82285e-10
1.1943e-10
2.77389e-11
3.96566e-12
2.29701e-13
1.86882e-15
8.77209e-06
8.67138e-06
8.56879e-06
8.46425e-06
8.35783e-06
8.24971e-06
8.13998e-06
8.0287e-06
7.91591e-06
7.80157e-06
7.68576e-06
7.56864e-06
7.4503e-06
7.33079e-06
7.2102e-06
7.08859e-06
6.96603e-06
6.84258e-06
6.71832e-06
6.5933e-06
6.46752e-06
6.34107e-06
6.21397e-06
6.0863e-06
5.95817e-06
5.82962e-06
5.70071e-06
5.57145e-06
5.44191e-06
5.31218e-06
5.18233e-06
5.05243e-06
4.92252e-06
4.79262e-06
4.66279e-06
4.53311e-06
4.40362e-06
4.27439e-06
4.14551e-06
4.01705e-06
3.88907e-06
3.7616e-06
3.63473e-06
3.5085e-06
3.38299e-06
3.25828e-06
3.13444e-06
3.01155e-06
2.8897e-06
2.76894e-06
2.64937e-06
2.53107e-06
2.41412e-06
2.2986e-06
2.18461e-06
2.07223e-06
1.96157e-06
1.85273e-06
1.74582e-06
1.64093e-06
1.5382e-06
1.43773e-06
1.33964e-06
1.24404e-06
1.15108e-06
1.06086e-06
9.73516e-07
8.89175e-07
8.07935e-07
7.2982e-07
6.54483e-07
5.78215e-07
5.02411e-07
4.30749e-07
3.63714e-07
3.01803e-07
2.45496e-07
1.95216e-07
1.51288e-07
1.13881e-07
8.29591e-08
5.82504e-08
3.92481e-08
2.52454e-08
1.54056e-08
8.84777e-09
4.73119e-09
2.32005e-09
1.02028e-09
3.88798e-10
1.21415e-10
2.81811e-11
4.02406e-12
2.32525e-13
1.88214e-15
8.78902e-06
8.68851e-06
8.5861e-06
8.48182e-06
8.37565e-06
8.26775e-06
8.1582e-06
8.04707e-06
7.93434e-06
7.82014e-06
7.70449e-06
7.58754e-06
7.46936e-06
7.35002e-06
7.22951e-06
7.10794e-06
6.98534e-06
6.86183e-06
6.73749e-06
6.61237e-06
6.48654e-06
6.36004e-06
6.23289e-06
6.10519e-06
5.97702e-06
5.84841e-06
5.71939e-06
5.59e-06
5.46035e-06
5.33047e-06
5.20045e-06
5.07032e-06
4.94018e-06
4.81009e-06
4.6801e-06
4.55022e-06
4.42053e-06
4.29111e-06
4.162e-06
4.03328e-06
3.90502e-06
3.77728e-06
3.65013e-06
3.52363e-06
3.39786e-06
3.27289e-06
3.14879e-06
3.02563e-06
2.90347e-06
2.78239e-06
2.66249e-06
2.54383e-06
2.42651e-06
2.31062e-06
2.19623e-06
2.08345e-06
1.97237e-06
1.8631e-06
1.75576e-06
1.65045e-06
1.5473e-06
1.44639e-06
1.34787e-06
1.25185e-06
1.15845e-06
1.0678e-06
9.80034e-07
8.95267e-07
8.13606e-07
7.35088e-07
6.59403e-07
5.83211e-07
5.06976e-07
4.34872e-07
3.67383e-07
3.05015e-07
2.48252e-07
1.97528e-07
1.53175e-07
1.15373e-07
8.40962e-08
5.90815e-08
3.98277e-08
2.56289e-08
1.56446e-08
8.98706e-09
4.80627e-09
2.35691e-09
1.0364e-09
3.9486e-10
1.23263e-10
2.85926e-11
4.0784e-12
2.35155e-13
1.89463e-15
8.80463e-06
8.70428e-06
8.60197e-06
8.49769e-06
8.3916e-06
8.28379e-06
8.17435e-06
8.06334e-06
7.95081e-06
7.83681e-06
7.72135e-06
7.60457e-06
7.48654e-06
7.36728e-06
7.24686e-06
7.12534e-06
7.00284e-06
6.87942e-06
6.75508e-06
6.62987e-06
6.50393e-06
6.37732e-06
6.25009e-06
6.12226e-06
5.99393e-06
5.86517e-06
5.73604e-06
5.60658e-06
5.47682e-06
5.34683e-06
5.21667e-06
5.08642e-06
4.95613e-06
4.82583e-06
4.69561e-06
4.56554e-06
4.43567e-06
4.30603e-06
4.17672e-06
4.04781e-06
3.91935e-06
3.79141e-06
3.66404e-06
3.5373e-06
3.41127e-06
3.28603e-06
3.16164e-06
3.03816e-06
2.91567e-06
2.79426e-06
2.674e-06
2.555e-06
2.43734e-06
2.32111e-06
2.2064e-06
2.0933e-06
1.9819e-06
1.87231e-06
1.76463e-06
1.65898e-06
1.55545e-06
1.45419e-06
1.3553e-06
1.25891e-06
1.16513e-06
1.0741e-06
9.85953e-07
9.0081e-07
8.18778e-07
7.39896e-07
6.63889e-07
5.87745e-07
5.11119e-07
4.38612e-07
3.70714e-07
3.07932e-07
2.50757e-07
1.9963e-07
1.54892e-07
1.16731e-07
8.5131e-08
5.98384e-08
4.03558e-08
2.59784e-08
1.58626e-08
9.11413e-09
4.87478e-09
2.39056e-09
1.05111e-09
4.00392e-10
1.2495e-10
2.8968e-11
4.12795e-12
2.37552e-13
1.90604e-15
8.81825e-06
8.71814e-06
8.61598e-06
8.51191e-06
8.40597e-06
8.29831e-06
8.18901e-06
8.07811e-06
7.96561e-06
7.85161e-06
7.73614e-06
7.61935e-06
7.5013e-06
7.38209e-06
7.26176e-06
7.14039e-06
7.01803e-06
6.89473e-06
6.77049e-06
6.64537e-06
6.51948e-06
6.39286e-06
6.26557e-06
6.13767e-06
6.00926e-06
5.88038e-06
5.75107e-06
5.62146e-06
5.49159e-06
5.36153e-06
5.23129e-06
5.10095e-06
4.97055e-06
4.84013e-06
4.70979e-06
4.57956e-06
4.4495e-06
4.31966e-06
4.19012e-06
4.06096e-06
3.93224e-06
3.80404e-06
3.67643e-06
3.54947e-06
3.4232e-06
3.29771e-06
3.17305e-06
3.04932e-06
2.92658e-06
2.80492e-06
2.68441e-06
2.56514e-06
2.44718e-06
2.33065e-06
2.21562e-06
2.10218e-06
1.99045e-06
1.88052e-06
1.77249e-06
1.66649e-06
1.56264e-06
1.46103e-06
1.36181e-06
1.26508e-06
1.17097e-06
1.07961e-06
9.9112e-07
9.05636e-07
8.2327e-07
7.44066e-07
6.67782e-07
5.91697e-07
5.14731e-07
4.41877e-07
3.73624e-07
3.10484e-07
2.52952e-07
2.01473e-07
1.56399e-07
1.17924e-07
8.60423e-08
6.05056e-08
4.08218e-08
2.6287e-08
1.60552e-08
9.22649e-09
4.93537e-09
2.42032e-09
1.06413e-09
4.05286e-10
1.26441e-10
2.92997e-11
4.17168e-12
2.39661e-13
1.91598e-15
8.82979e-06
8.72992e-06
8.6281e-06
8.52434e-06
8.41859e-06
8.31095e-06
8.2016e-06
8.09066e-06
7.97821e-06
7.86431e-06
7.74903e-06
7.63242e-06
7.51455e-06
7.39541e-06
7.27512e-06
7.15369e-06
7.03126e-06
6.90788e-06
6.78356e-06
6.65839e-06
6.5324e-06
6.40566e-06
6.2783e-06
6.1504e-06
6.022e-06
5.89317e-06
5.76389e-06
5.63422e-06
5.50423e-06
5.37401e-06
5.2436e-06
5.1131e-06
4.98256e-06
4.852e-06
4.72152e-06
4.59114e-06
4.46095e-06
4.331e-06
4.20137e-06
4.07212e-06
3.94329e-06
3.81493e-06
3.68712e-06
3.55991e-06
3.43338e-06
3.30764e-06
3.18276e-06
3.05881e-06
2.93586e-06
2.81396e-06
2.6932e-06
2.57368e-06
2.45548e-06
2.33868e-06
2.22338e-06
2.10968e-06
1.99769e-06
1.88751e-06
1.77924e-06
1.67298e-06
1.56885e-06
1.46698e-06
1.36747e-06
1.27044e-06
1.17604e-06
1.08438e-06
9.95603e-07
9.09832e-07
8.27178e-07
7.47695e-07
6.71168e-07
5.95126e-07
5.17868e-07
4.44714e-07
3.76157e-07
3.12707e-07
2.54864e-07
2.0308e-07
1.57712e-07
1.18964e-07
8.68364e-08
6.10873e-08
4.12282e-08
2.65563e-08
1.62234e-08
9.32457e-09
4.98828e-09
2.44631e-09
1.0755e-09
4.09558e-10
1.27743e-10
2.95891e-11
4.20982e-12
2.41498e-13
1.92464e-15
8.83997e-06
8.7404e-06
8.63874e-06
8.53503e-06
8.42934e-06
8.32179e-06
8.21255e-06
8.10171e-06
7.98928e-06
7.87541e-06
7.76015e-06
7.64357e-06
7.52566e-06
7.40654e-06
7.28627e-06
7.16485e-06
7.04239e-06
6.91891e-06
6.79452e-06
6.66924e-06
6.54313e-06
6.41634e-06
6.28892e-06
6.16096e-06
6.03248e-06
5.90356e-06
5.77423e-06
5.64452e-06
5.51452e-06
5.38429e-06
5.25385e-06
5.12329e-06
4.99262e-06
4.86192e-06
4.73124e-06
4.6007e-06
4.47034e-06
4.34025e-06
4.21047e-06
4.08107e-06
3.9521e-06
3.82361e-06
3.69568e-06
3.56838e-06
3.44176e-06
3.31592e-06
3.1909e-06
3.06678e-06
2.94363e-06
2.82155e-06
2.70063e-06
2.58092e-06
2.46252e-06
2.34551e-06
2.23e-06
2.11608e-06
2.00387e-06
1.89345e-06
1.78492e-06
1.67842e-06
1.57405e-06
1.47194e-06
1.37218e-06
1.27492e-06
1.18027e-06
1.08838e-06
9.99357e-07
9.13347e-07
8.30462e-07
7.50755e-07
6.74028e-07
5.98023e-07
5.20517e-07
4.47109e-07
3.78292e-07
3.1458e-07
2.56476e-07
2.04435e-07
1.58821e-07
1.19843e-07
8.75077e-08
6.15791e-08
4.15719e-08
2.67842e-08
1.63656e-08
9.4076e-09
5.03307e-09
2.46831e-09
1.08512e-09
4.13176e-10
1.28845e-10
2.98341e-11
4.24209e-12
2.43052e-13
1.93197e-15
8.84754e-06
8.74802e-06
8.64652e-06
8.54306e-06
8.43761e-06
8.33028e-06
8.22117e-06
8.11048e-06
7.99823e-06
7.88444e-06
7.76921e-06
7.65258e-06
7.53468e-06
7.41558e-06
7.29527e-06
7.17384e-06
7.0513e-06
6.92772e-06
6.80323e-06
6.67789e-06
6.5518e-06
6.42501e-06
6.2976e-06
6.16962e-06
6.04112e-06
5.91211e-06
5.7827e-06
5.65294e-06
5.52284e-06
5.3925e-06
5.26195e-06
5.13128e-06
5.00057e-06
4.86986e-06
4.73921e-06
4.60864e-06
4.47821e-06
4.34802e-06
4.2181e-06
4.08854e-06
3.95938e-06
3.83072e-06
3.70263e-06
3.57516e-06
3.4484e-06
3.3224e-06
3.19725e-06
3.073e-06
2.94972e-06
2.8275e-06
2.7064e-06
2.58654e-06
2.46797e-06
2.35081e-06
2.23515e-06
2.12108e-06
2.00871e-06
1.89813e-06
1.78946e-06
1.68279e-06
1.57824e-06
1.47592e-06
1.37596e-06
1.2785e-06
1.18365e-06
1.09156e-06
1.00235e-06
9.16145e-07
8.33063e-07
7.5317e-07
6.76285e-07
6.00313e-07
5.22612e-07
4.49003e-07
3.7998e-07
3.16061e-07
2.5775e-07
2.05507e-07
1.59699e-07
1.20539e-07
8.80405e-08
6.19699e-08
4.18454e-08
2.69656e-08
1.6479e-08
9.47378e-09
5.06878e-09
2.48586e-09
1.0928e-09
4.1606e-10
1.29723e-10
3.00292e-11
4.26775e-12
2.44283e-13
1.93769e-15
8.8534e-06
8.75403e-06
8.65257e-06
8.5491e-06
8.44377e-06
8.33667e-06
8.22778e-06
8.11725e-06
8.00507e-06
7.89129e-06
7.776e-06
7.6593e-06
7.54136e-06
7.42224e-06
7.30199e-06
7.18058e-06
7.05809e-06
6.93462e-06
6.81021e-06
6.68493e-06
6.55887e-06
6.43206e-06
6.30454e-06
6.17639e-06
6.04772e-06
5.91861e-06
5.78911e-06
5.65928e-06
5.52917e-06
5.39882e-06
5.26826e-06
5.13757e-06
5.00679e-06
4.87601e-06
4.74525e-06
4.61462e-06
4.48414e-06
4.35389e-06
4.22393e-06
4.09433e-06
3.96513e-06
3.83639e-06
3.70819e-06
3.58061e-06
3.45372e-06
3.3276e-06
3.20231e-06
3.07792e-06
2.95449e-06
2.83213e-06
2.71091e-06
2.59092e-06
2.47223e-06
2.35495e-06
2.23916e-06
2.12495e-06
2.01244e-06
1.90171e-06
1.79288e-06
1.68607e-06
1.58138e-06
1.47894e-06
1.37886e-06
1.28126e-06
1.18628e-06
1.09404e-06
1.00468e-06
9.18326e-07
8.35097e-07
7.55061e-07
6.78048e-07
6.02089e-07
5.24235e-07
4.5047e-07
3.81288e-07
3.17207e-07
2.58737e-07
2.06337e-07
1.60377e-07
1.21078e-07
8.84519e-08
6.22716e-08
4.20564e-08
2.71055e-08
1.65664e-08
9.52479e-09
5.09631e-09
2.49938e-09
1.09871e-09
4.18284e-10
1.304e-10
3.01798e-11
4.28756e-12
2.45237e-13
1.94219e-15
8.85703e-06
8.75769e-06
8.65638e-06
8.55305e-06
8.44784e-06
8.34073e-06
8.23179e-06
8.12113e-06
8.00889e-06
7.89511e-06
7.77992e-06
7.66339e-06
7.54552e-06
7.42644e-06
7.3062e-06
7.18479e-06
7.06228e-06
6.93881e-06
6.81443e-06
6.68918e-06
6.56313e-06
6.43634e-06
6.30889e-06
6.18085e-06
6.05225e-06
5.92317e-06
5.79363e-06
5.66369e-06
5.53347e-06
5.40302e-06
5.27236e-06
5.1416e-06
5.01077e-06
4.87992e-06
4.74912e-06
4.61844e-06
4.48791e-06
4.3576e-06
4.22756e-06
4.09784e-06
3.96855e-06
3.83976e-06
3.71154e-06
3.58394e-06
3.45703e-06
3.33087e-06
3.20552e-06
3.08106e-06
2.95756e-06
2.83513e-06
2.71383e-06
2.59376e-06
2.47501e-06
2.35766e-06
2.24178e-06
2.12749e-06
2.01488e-06
1.90407e-06
1.79515e-06
1.68824e-06
1.58345e-06
1.48091e-06
1.38072e-06
1.28303e-06
1.18796e-06
1.09562e-06
1.00617e-06
9.19725e-07
8.36403e-07
7.56273e-07
6.7918e-07
6.03238e-07
5.25287e-07
4.51422e-07
3.82139e-07
3.17954e-07
2.5938e-07
2.06879e-07
1.60822e-07
1.21431e-07
8.8722e-08
6.24697e-08
4.2195e-08
2.71975e-08
1.66239e-08
9.55839e-09
5.11445e-09
2.5083e-09
1.10261e-09
4.19749e-10
1.30846e-10
3.02788e-11
4.30058e-12
2.4586e-13
1.94508e-15
8.85889e-06
8.75949e-06
8.65813e-06
8.55472e-06
8.44931e-06
8.34201e-06
8.23299e-06
8.12236e-06
8.0102e-06
7.89657e-06
7.78153e-06
7.66511e-06
7.54732e-06
7.42826e-06
7.30804e-06
7.18669e-06
7.06423e-06
6.94072e-06
6.81632e-06
6.69111e-06
6.56514e-06
6.43845e-06
6.31105e-06
6.183e-06
6.0544e-06
5.92528e-06
5.79571e-06
5.66578e-06
5.53553e-06
5.405e-06
5.27432e-06
5.14353e-06
5.01269e-06
4.88181e-06
4.75095e-06
4.6202e-06
4.48963e-06
4.3593e-06
4.22926e-06
4.09956e-06
3.97027e-06
3.84147e-06
3.71323e-06
3.58558e-06
3.45863e-06
3.33244e-06
3.20709e-06
3.08262e-06
2.95913e-06
2.83669e-06
2.71539e-06
2.5953e-06
2.4765e-06
2.35909e-06
2.24317e-06
2.12885e-06
2.01621e-06
1.90535e-06
1.79638e-06
1.68943e-06
1.5846e-06
1.48202e-06
1.38179e-06
1.28405e-06
1.18892e-06
1.09653e-06
1.00702e-06
9.20511e-07