/*--------------------------------*- C++ -*----------------------------------*\
  =========                 |
  \\      /  F ield         | OpenFOAM: The Open Source CFD Toolbox
   \\    /   O peration     | Website:  https://openfoam.org
    \\  /    A nd           | Version:  7
     \\/     M anipulation  |
\*---------------------------------------------------------------------------*/
FoamFile
{
    version     2.0;
    format      ascii;
    class       volScalarField;
    location    "108000";
    object      k;
}
// * * * * * * * * * * * * * * * * * * * * * * * * * * * * * * * * * * * * * //

dimensions      [0 2 -2 0 0 0 0];

internalField   nonuniform List<scalar> 
4825
(
1.11632e-06
1.11424e-06
1.12098e-06
1.11897e-06
1.11694e-06
1.1149e-06
1.11287e-06
1.12549e-06
1.12355e-06
1.12159e-06
1.11961e-06
1.11764e-06
1.12984e-06
1.12797e-06
1.12608e-06
1.12418e-06
1.12227e-06
1.13405e-06
1.13225e-06
1.13043e-06
1.12858e-06
1.12674e-06
1.1381e-06
1.13636e-06
1.13461e-06
1.13284e-06
1.13106e-06
1.14199e-06
1.14033e-06
1.13865e-06
1.13694e-06
1.13522e-06
1.14572e-06
1.14413e-06
1.14252e-06
1.14088e-06
1.13923e-06
1.14929e-06
1.14777e-06
1.14623e-06
1.14465e-06
1.14307e-06
1.15269e-06
1.15124e-06
1.14977e-06
1.14826e-06
1.14675e-06
1.15592e-06
1.15455e-06
1.15314e-06
1.15171e-06
1.15026e-06
1.15898e-06
1.15768e-06
1.15635e-06
1.15498e-06
1.15361e-06
1.16187e-06
1.16064e-06
1.15937e-06
1.15808e-06
1.15677e-06
1.16457e-06
1.16342e-06
1.16223e-06
1.161e-06
1.1671e-06
1.16601e-06
1.16489e-06
1.16374e-06
1.16943e-06
1.16843e-06
1.16738e-06
1.16629e-06
1.17157e-06
1.17064e-06
1.16967e-06
1.17352e-06
1.17266e-06
1.17176e-06
1.17526e-06
1.17448e-06
1.17679e-06
1.1761e-06
1.17811e-06
1.17749e-06
1.17921e-06
1.17867e-06
1.18007e-06
1.17962e-06
1.1807e-06
1.03041e-06
1.02732e-06
1.02426e-06
1.02125e-06
1.01827e-06
1.01535e-06
1.0125e-06
1.00974e-06
1.00706e-06
1.00449e-06
1.00204e-06
9.99719e-07
9.97509e-07
9.95443e-07
9.93525e-07
9.91759e-07
9.90142e-07
9.88678e-07
9.87395e-07
9.86268e-07
1.03703e-06
1.034e-06
1.03101e-06
1.02806e-06
1.02513e-06
1.02227e-06
1.01948e-06
1.01677e-06
1.01414e-06
1.01162e-06
1.00921e-06
1.00693e-06
1.00477e-06
1.00273e-06
1.00085e-06
9.9912e-07
9.97529e-07
9.96093e-07
9.94833e-07
9.93724e-07
1.04352e-06
1.04056e-06
1.03763e-06
1.03474e-06
1.03187e-06
1.02907e-06
1.02633e-06
1.02367e-06
1.0211e-06
1.01862e-06
1.01626e-06
1.01402e-06
1.0119e-06
1.0099e-06
1.00806e-06
1.00636e-06
1.00479e-06
1.00339e-06
1.00215e-06
1.00106e-06
1.04988e-06
1.04699e-06
1.04413e-06
1.0413e-06
1.03849e-06
1.03575e-06
1.03306e-06
1.03045e-06
1.02793e-06
1.0255e-06
1.02319e-06
1.02099e-06
1.01891e-06
1.01695e-06
1.01514e-06
1.01347e-06
1.01193e-06
1.01055e-06
1.00934e-06
1.00827e-06
1.05612e-06
1.0533e-06
1.05051e-06
1.04774e-06
1.04499e-06
1.0423e-06
1.03967e-06
1.03711e-06
1.03464e-06
1.03226e-06
1.02998e-06
1.02783e-06
1.02579e-06
1.02387e-06
1.02209e-06
1.02045e-06
1.01895e-06
1.01759e-06
1.0164e-06
1.01535e-06
1.06224e-06
1.05949e-06
1.05675e-06
1.05405e-06
1.05136e-06
1.04872e-06
1.04615e-06
1.04364e-06
1.04122e-06
1.03889e-06
1.03665e-06
1.03454e-06
1.03255e-06
1.03066e-06
1.02892e-06
1.02731e-06
1.02584e-06
1.0245e-06
1.02333e-06
1.0223e-06
1.06823e-06
1.06555e-06
1.06287e-06
1.06023e-06
1.0576e-06
1.05502e-06
1.0525e-06
1.05005e-06
1.04767e-06
1.04539e-06
1.0432e-06
1.04113e-06
1.03918e-06
1.03733e-06
1.03562e-06
1.03404e-06
1.0326e-06
1.03129e-06
1.03014e-06
1.02913e-06
1.0741e-06
1.07148e-06
1.06887e-06
1.06628e-06
1.06371e-06
1.0612e-06
1.05873e-06
1.05632e-06
1.054e-06
1.05176e-06
1.04962e-06
1.04759e-06
1.04568e-06
1.04387e-06
1.0422e-06
1.04065e-06
1.03923e-06
1.03795e-06
1.03683e-06
1.03583e-06
1.035e-06
1.03433e-06
1.03383e-06
1.03349e-06
1.03332e-06
1.03334e-06
1.03352e-06
1.03387e-06
1.03439e-06
1.03506e-06
1.03588e-06
1.03686e-06
1.03797e-06
1.03924e-06
1.04064e-06
1.07985e-06
1.07729e-06
1.07474e-06
1.07221e-06
1.0697e-06
1.06724e-06
1.06482e-06
1.06247e-06
1.06019e-06
1.05801e-06
1.05591e-06
1.05392e-06
1.05205e-06
1.05028e-06
1.04865e-06
1.04713e-06
1.04574e-06
1.04448e-06
1.04338e-06
1.04241e-06
1.04159e-06
1.04094e-06
1.04044e-06
1.04011e-06
1.03995e-06
1.03996e-06
1.04014e-06
1.04048e-06
1.04099e-06
1.04165e-06
1.04245e-06
1.04341e-06
1.0445e-06
1.04574e-06
1.04712e-06
1.04863e-06
1.05026e-06
1.08547e-06
1.08297e-06
1.08048e-06
1.07801e-06
1.07556e-06
1.07315e-06
1.07079e-06
1.06849e-06
1.06626e-06
1.06413e-06
1.06207e-06
1.06013e-06
1.0583e-06
1.05656e-06
1.05496e-06
1.05348e-06
1.05211e-06
1.05088e-06
1.0498e-06
1.04885e-06
1.04805e-06
1.04741e-06
1.04692e-06
1.04661e-06
1.04644e-06
1.04646e-06
1.04663e-06
1.04697e-06
1.04746e-06
1.04811e-06
1.0489e-06
1.04984e-06
1.05091e-06
1.05212e-06
1.05347e-06
1.05495e-06
1.05654e-06
1.05827e-06
1.09096e-06
1.08852e-06
1.0861e-06
1.08369e-06
1.08129e-06
1.07894e-06
1.07663e-06
1.07438e-06
1.0722e-06
1.07011e-06
1.0681e-06
1.0662e-06
1.06441e-06
1.06272e-06
1.06115e-06
1.05969e-06
1.05836e-06
1.05716e-06
1.0561e-06
1.05517e-06
1.05438e-06
1.05376e-06
1.05328e-06
1.05297e-06
1.05281e-06
1.05282e-06
1.05299e-06
1.05332e-06
1.05381e-06
1.05445e-06
1.05521e-06
1.05613e-06
1.05718e-06
1.05837e-06
1.05969e-06
1.06114e-06
1.06269e-06
1.06438e-06
1.06619e-06
1.06809e-06
1.09631e-06
1.09395e-06
1.09158e-06
1.08924e-06
1.0869e-06
1.0846e-06
1.08234e-06
1.08014e-06
1.07801e-06
1.07597e-06
1.074e-06
1.07214e-06
1.07039e-06
1.06874e-06
1.06721e-06
1.06578e-06
1.06448e-06
1.0633e-06
1.06227e-06
1.06135e-06
1.06058e-06
1.05997e-06
1.0595e-06
1.0592e-06
1.05904e-06
1.05906e-06
1.05922e-06
1.05955e-06
1.06003e-06
1.06065e-06
1.0614e-06
1.0623e-06
1.06333e-06
1.06449e-06
1.06578e-06
1.06719e-06
1.06872e-06
1.07037e-06
1.07213e-06
1.07399e-06
1.07594e-06
1.07798e-06
1.10153e-06
1.09924e-06
1.09694e-06
1.09465e-06
1.09237e-06
1.09013e-06
1.08792e-06
1.08577e-06
1.0837e-06
1.0817e-06
1.07978e-06
1.07795e-06
1.07624e-06
1.07463e-06
1.07313e-06
1.07174e-06
1.07047e-06
1.06931e-06
1.0683e-06
1.06741e-06
1.06665e-06
1.06605e-06
1.06559e-06
1.06529e-06
1.06515e-06
1.06516e-06
1.06532e-06
1.06564e-06
1.06612e-06
1.06672e-06
1.06745e-06
1.06833e-06
1.06934e-06
1.07048e-06
1.07174e-06
1.07312e-06
1.07461e-06
1.07622e-06
1.07795e-06
1.07976e-06
1.08167e-06
1.08366e-06
1.08573e-06
1.08787e-06
1.09007e-06
1.10662e-06
1.10439e-06
1.10215e-06
1.09993e-06
1.09771e-06
1.09553e-06
1.09338e-06
1.09128e-06
1.08925e-06
1.0873e-06
1.08542e-06
1.08364e-06
1.08197e-06
1.08039e-06
1.07893e-06
1.07756e-06
1.07632e-06
1.0752e-06
1.07421e-06
1.07333e-06
1.07259e-06
1.072e-06
1.07155e-06
1.07126e-06
1.07112e-06
1.07113e-06
1.07129e-06
1.07161e-06
1.07207e-06
1.07267e-06
1.07338e-06
1.07423e-06
1.07522e-06
1.07633e-06
1.07757e-06
1.07892e-06
1.08037e-06
1.08194e-06
1.08363e-06
1.0854e-06
1.08727e-06
1.08921e-06
1.09123e-06
1.09332e-06
1.09547e-06
1.09765e-06
1.09986e-06
1.11156e-06
1.1094e-06
1.10723e-06
1.10507e-06
1.10291e-06
1.10079e-06
1.09869e-06
1.09665e-06
1.09467e-06
1.09276e-06
1.09093e-06
1.08919e-06
1.08756e-06
1.08602e-06
1.08459e-06
1.08326e-06
1.08205e-06
1.08095e-06
1.07998e-06
1.07912e-06
1.0784e-06
1.07782e-06
1.07738e-06
1.07709e-06
1.07696e-06
1.07697e-06
1.07713e-06
1.07744e-06
1.07789e-06
1.07848e-06
1.07917e-06
1.08e-06
1.08097e-06
1.08206e-06
1.08326e-06
1.08458e-06
1.08601e-06
1.08754e-06
1.08919e-06
1.09091e-06
1.09274e-06
1.09463e-06
1.0966e-06
1.09864e-06
1.10073e-06
1.10285e-06
1.10501e-06
1.10718e-06
1.10934e-06
1.11152e-06
1.11636e-06
1.11427e-06
1.11217e-06
1.11007e-06
1.10797e-06
1.10591e-06
1.10387e-06
1.10188e-06
1.09995e-06
1.09809e-06
1.09631e-06
1.09461e-06
1.09302e-06
1.09151e-06
1.09012e-06
1.08882e-06
1.08764e-06
1.08657e-06
1.08562e-06
1.08478e-06
1.08407e-06
1.08351e-06
1.08308e-06
1.0828e-06
1.08267e-06
1.08268e-06
1.08283e-06
1.08314e-06
1.08358e-06
1.08415e-06
1.08483e-06
1.08564e-06
1.08659e-06
1.08765e-06
1.08883e-06
1.09011e-06
1.0915e-06
1.093e-06
1.09461e-06
1.09629e-06
1.09807e-06
1.09991e-06
1.10183e-06
1.10382e-06
1.10585e-06
1.10792e-06
1.11001e-06
1.11211e-06
1.11421e-06
1.11632e-06
1.12102e-06
1.119e-06
1.11697e-06
1.11493e-06
1.11289e-06
1.11089e-06
1.10891e-06
1.10697e-06
1.10509e-06
1.10328e-06
1.10154e-06
1.09989e-06
1.09834e-06
1.09688e-06
1.09551e-06
1.09425e-06
1.0931e-06
1.09205e-06
1.09113e-06
1.09031e-06
1.08962e-06
1.08907e-06
1.08864e-06
1.08837e-06
1.08825e-06
1.08826e-06
1.08841e-06
1.08871e-06
1.08913e-06
1.0897e-06
1.09036e-06
1.09115e-06
1.09207e-06
1.09311e-06
1.09426e-06
1.09551e-06
1.09687e-06
1.09832e-06
1.09989e-06
1.10153e-06
1.10326e-06
1.10505e-06
1.10692e-06
1.10885e-06
1.11083e-06
1.11284e-06
1.11487e-06
1.11691e-06
1.11894e-06
1.12097e-06
1.12552e-06
1.12358e-06
1.12161e-06
1.11964e-06
1.11767e-06
1.11573e-06
1.1138e-06
1.11191e-06
1.11009e-06
1.10833e-06
1.10664e-06
1.10503e-06
1.10352e-06
1.1021e-06
1.10077e-06
1.09954e-06
1.09842e-06
1.0974e-06
1.0965e-06
1.0957e-06
1.09502e-06
1.09449e-06
1.09407e-06
1.0938e-06
1.09368e-06
1.0937e-06
1.09385e-06
1.09414e-06
1.09456e-06
1.0951e-06
1.09575e-06
1.09652e-06
1.09741e-06
1.09843e-06
1.09955e-06
1.10077e-06
1.10209e-06
1.10351e-06
1.10504e-06
1.10662e-06
1.1083e-06
1.11005e-06
1.11187e-06
1.11374e-06
1.11566e-06
1.11762e-06
1.11958e-06
1.12155e-06
1.12351e-06
1.12548e-06
1.12988e-06
1.128e-06
1.12611e-06
1.1242e-06
1.12229e-06
1.12041e-06
1.11855e-06
1.11671e-06
1.11494e-06
1.11323e-06
1.11159e-06
1.11003e-06
1.10856e-06
1.10717e-06
1.10589e-06
1.10469e-06
1.1036e-06
1.10261e-06
1.10172e-06
1.10095e-06
1.10029e-06
1.09977e-06
1.09936e-06
1.0991e-06
1.09898e-06
1.099e-06
1.09914e-06
1.09943e-06
1.09984e-06
1.10037e-06
1.101e-06
1.10175e-06
1.10262e-06
1.10361e-06
1.1047e-06
1.10589e-06
1.10717e-06
1.10855e-06
1.11003e-06
1.11158e-06
1.11321e-06
1.11491e-06
1.11667e-06
1.11849e-06
1.12035e-06
1.12224e-06
1.12414e-06
1.12605e-06
1.12794e-06
1.12984e-06
1.13409e-06
1.13228e-06
1.13045e-06
1.12861e-06
1.12677e-06
1.12495e-06
1.12314e-06
1.12136e-06
1.11965e-06
1.11798e-06
1.11639e-06
1.11488e-06
1.11346e-06
1.11211e-06
1.11086e-06
1.10969e-06
1.10863e-06
1.10767e-06
1.10681e-06
1.10606e-06
1.10542e-06
1.1049e-06
1.10451e-06
1.10425e-06
1.10414e-06
1.10416e-06
1.1043e-06
1.10458e-06
1.10497e-06
1.10549e-06
1.10611e-06
1.10684e-06
1.10768e-06
1.10865e-06
1.1097e-06
1.11086e-06
1.1121e-06
1.11344e-06
1.11488e-06
1.11638e-06
1.11797e-06
1.11961e-06
1.12132e-06
1.12308e-06
1.12488e-06
1.12671e-06
1.12854e-06
1.13039e-06
1.13222e-06
1.13404e-06
1.13813e-06
1.1364e-06
1.13464e-06
1.13286e-06
1.13108e-06
1.12933e-06
1.12758e-06
1.12586e-06
1.1242e-06
1.12259e-06
1.12105e-06
1.11958e-06
1.1182e-06
1.11689e-06
1.11568e-06
1.11454e-06
1.11352e-06
1.11258e-06
1.11175e-06
1.11102e-06
1.1104e-06
1.1099e-06
1.10951e-06
1.10926e-06
1.10916e-06
1.10917e-06
1.10931e-06
1.10959e-06
1.10997e-06
1.11047e-06
1.11107e-06
1.11178e-06
1.1126e-06
1.11354e-06
1.11456e-06
1.11568e-06
1.11688e-06
1.11819e-06
1.11959e-06
1.12104e-06
1.12257e-06
1.12416e-06
1.12581e-06
1.12752e-06
1.12926e-06
1.13103e-06
1.1328e-06
1.13458e-06
1.13633e-06
1.13809e-06
1.14203e-06
1.14036e-06
1.13867e-06
1.13696e-06
1.13525e-06
1.13355e-06
1.13187e-06
1.1302e-06
1.12859e-06
1.12704e-06
1.12555e-06
1.12412e-06
1.12279e-06
1.12152e-06
1.12034e-06
1.11925e-06
1.11826e-06
1.11735e-06
1.11654e-06
1.11583e-06
1.11523e-06
1.11474e-06
1.11436e-06
1.11412e-06
1.11402e-06
1.11403e-06
1.11417e-06
1.11444e-06
1.11481e-06
1.1153e-06
1.11589e-06
1.11657e-06
1.11737e-06
1.11827e-06
1.11926e-06
1.12035e-06
1.12152e-06
1.12278e-06
1.12413e-06
1.12554e-06
1.12702e-06
1.12856e-06
1.13016e-06
1.13181e-06
1.13349e-06
1.1352e-06
1.1369e-06
1.13861e-06
1.1403e-06
1.14198e-06
1.14576e-06
1.14416e-06
1.14254e-06
1.1409e-06
1.13925e-06
1.13762e-06
1.136e-06
1.13439e-06
1.13283e-06
1.13133e-06
1.12989e-06
1.12851e-06
1.12723e-06
1.126e-06
1.12486e-06
1.1238e-06
1.12284e-06
1.12196e-06
1.12117e-06
1.12048e-06
1.1199e-06
1.11943e-06
1.11906e-06
1.11883e-06
1.11873e-06
1.11875e-06
1.11888e-06
1.11914e-06
1.1195e-06
1.11997e-06
1.12055e-06
1.12121e-06
1.12198e-06
1.12285e-06
1.12382e-06
1.12487e-06
1.12599e-06
1.12722e-06
1.12852e-06
1.12988e-06
1.13132e-06
1.1328e-06
1.13434e-06
1.13593e-06
1.13756e-06
1.1392e-06
1.14083e-06
1.14248e-06
1.1441e-06
1.14571e-06
1.14933e-06
1.1478e-06
1.14625e-06
1.14468e-06
1.14309e-06
1.14153e-06
1.13996e-06
1.13841e-06
1.13691e-06
1.13546e-06
1.13407e-06
1.13275e-06
1.1315e-06
1.13032e-06
1.12921e-06
1.12819e-06
1.12726e-06
1.12642e-06
1.12565e-06
1.12498e-06
1.12442e-06
1.12396e-06
1.12361e-06
1.12338e-06
1.12329e-06
1.1233e-06
1.12343e-06
1.12368e-06
1.12403e-06
1.12449e-06
1.12505e-06
1.12569e-06
1.12643e-06
1.12728e-06
1.12821e-06
1.12923e-06
1.13031e-06
1.13149e-06
1.13276e-06
1.13407e-06
1.13545e-06
1.13688e-06
1.13837e-06
1.1399e-06
1.14146e-06
1.14304e-06
1.14461e-06
1.14619e-06
1.14774e-06
1.14928e-06
1.15273e-06
1.15128e-06
1.1498e-06
1.14829e-06
1.14677e-06
1.14527e-06
1.14376e-06
1.14228e-06
1.14083e-06
1.13943e-06
1.1381e-06
1.13682e-06
1.13561e-06
1.13448e-06
1.13341e-06
1.13242e-06
1.13153e-06
1.13071e-06
1.12997e-06
1.12933e-06
1.12878e-06
1.12834e-06
1.12799e-06
1.12777e-06
1.12768e-06
1.1277e-06
1.12783e-06
1.12807e-06
1.1284e-06
1.12885e-06
1.12939e-06
1.13001e-06
1.13073e-06
1.13154e-06
1.13244e-06
1.13343e-06
1.13447e-06
1.13561e-06
1.13683e-06
1.13809e-06
1.13942e-06
1.1408e-06
1.14223e-06
1.1437e-06
1.1452e-06
1.14672e-06
1.14823e-06
1.14973e-06
1.15121e-06
1.15268e-06
1.15596e-06
1.15458e-06
1.15317e-06
1.15173e-06
1.15029e-06
1.14884e-06
1.14739e-06
1.14597e-06
1.14458e-06
1.14324e-06
1.14195e-06
1.14072e-06
1.13957e-06
1.13847e-06
1.13744e-06
1.13649e-06
1.13563e-06
1.13484e-06
1.13412e-06
1.1335e-06
1.13298e-06
1.13255e-06
1.13222e-06
1.132e-06
1.13192e-06
1.13194e-06
1.13206e-06
1.13229e-06
1.13261e-06
1.13305e-06
1.13357e-06
1.13417e-06
1.13486e-06
1.13564e-06
1.13651e-06
1.13746e-06
1.13847e-06
1.13957e-06
1.14074e-06
1.14195e-06
1.14323e-06
1.14455e-06
1.14592e-06
1.14734e-06
1.14878e-06
1.15023e-06
1.15167e-06
1.15311e-06
1.15452e-06
1.15592e-06
1.15902e-06
1.15771e-06
1.15637e-06
1.15501e-06
1.15363e-06
1.15224e-06
1.15086e-06
1.1495e-06
1.14816e-06
1.14688e-06
1.14564e-06
1.14446e-06
1.14335e-06
1.1423e-06
1.14131e-06
1.14039e-06
1.13956e-06
1.13881e-06
1.13811e-06
1.13751e-06
1.13701e-06
1.13659e-06
1.13628e-06
1.13607e-06
1.13599e-06
1.13601e-06
1.13612e-06
1.13635e-06
1.13666e-06
1.13708e-06
1.13758e-06
1.13816e-06
1.13883e-06
1.13958e-06
1.14042e-06
1.14133e-06
1.1423e-06
1.14335e-06
1.14448e-06
1.14564e-06
1.14686e-06
1.14813e-06
1.14945e-06
1.1508e-06
1.15218e-06
1.15357e-06
1.15495e-06
1.15631e-06
1.15766e-06
1.15898e-06
1.16191e-06
1.16067e-06
1.1594e-06
1.1581e-06
1.15679e-06
1.15547e-06
1.15415e-06
1.15285e-06
1.15157e-06
1.15034e-06
1.14916e-06
1.14802e-06
1.14696e-06
1.14595e-06
1.145e-06
1.14413e-06
1.14333e-06
1.1426e-06
1.14193e-06
1.14136e-06
1.14087e-06
1.14047e-06
1.14017e-06
1.13997e-06
1.13989e-06
1.13991e-06
1.14002e-06
1.14024e-06
1.14054e-06
1.14094e-06
1.14142e-06
1.14199e-06
1.14263e-06
1.14334e-06
1.14415e-06
1.14503e-06
1.14596e-06
1.14697e-06
1.14805e-06
1.14916e-06
1.15033e-06
1.15155e-06
1.1528e-06
1.1541e-06
1.15541e-06
1.15673e-06
1.15804e-06
1.15934e-06
1.16062e-06
1.16186e-06
1.16461e-06
1.16345e-06
1.16225e-06
1.16103e-06
1.15978e-06
1.15852e-06
1.15727e-06
1.15603e-06
1.1548e-06
1.15363e-06
1.1525e-06
1.15142e-06
1.1504e-06
1.14944e-06
1.14853e-06
1.14768e-06
1.14692e-06
1.14623e-06
1.14558e-06
1.14503e-06
1.14456e-06
1.14418e-06
1.14389e-06
1.14369e-06
1.14362e-06
1.14363e-06
1.14374e-06
1.14395e-06
1.14424e-06
1.14463e-06
1.1451e-06
1.14564e-06
1.14625e-06
1.14694e-06
1.14772e-06
1.14855e-06
1.14944e-06
1.15041e-06
1.15144e-06
1.1525e-06
1.15362e-06
1.15478e-06
1.15598e-06
1.15721e-06
1.15847e-06
1.15972e-06
1.16097e-06
1.1622e-06
1.1634e-06
1.16457e-06
1.16714e-06
1.16605e-06
1.16492e-06
1.16377e-06
1.16259e-06
1.16139e-06
1.1602e-06
1.15903e-06
1.15786e-06
1.15675e-06
1.15567e-06
1.15463e-06
1.15366e-06
1.15274e-06
1.15188e-06
1.15107e-06
1.15034e-06
1.14967e-06
1.14905e-06
1.14852e-06
1.14808e-06
1.14771e-06
1.14743e-06
1.14724e-06
1.14717e-06
1.14719e-06
1.14729e-06
1.14749e-06
1.14777e-06
1.14814e-06
1.14859e-06
1.14911e-06
1.1497e-06
1.15035e-06
1.1511e-06
1.1519e-06
1.15275e-06
1.15367e-06
1.15466e-06
1.15567e-06
1.15673e-06
1.15784e-06
1.15897e-06
1.16015e-06
1.16134e-06
1.16253e-06
1.16371e-06
1.16487e-06
1.16599e-06
1.16709e-06
1.16947e-06
1.16846e-06
1.1674e-06
1.16632e-06
1.16521e-06
1.16408e-06
1.16295e-06
1.16184e-06
1.16073e-06
1.15968e-06
1.15865e-06
1.15767e-06
1.15674e-06
1.15587e-06
1.15504e-06
1.15427e-06
1.15358e-06
1.15294e-06
1.15235e-06
1.15184e-06
1.15141e-06
1.15106e-06
1.15079e-06
1.15061e-06
1.15054e-06
1.15056e-06
1.15066e-06
1.15086e-06
1.15112e-06
1.15148e-06
1.15191e-06
1.1524e-06
1.15296e-06
1.15359e-06
1.15431e-06
1.15507e-06
1.15588e-06
1.15676e-06
1.15769e-06
1.15865e-06
1.15966e-06
1.16071e-06
1.16179e-06
1.1629e-06
1.16403e-06
1.16515e-06
1.16626e-06
1.16735e-06
1.1684e-06
1.16943e-06
1.17161e-06
1.17067e-06
1.1697e-06
1.16868e-06
1.16764e-06
1.16658e-06
1.16552e-06
1.16447e-06
1.16341e-06
1.16242e-06
1.16145e-06
1.16051e-06
1.15963e-06
1.15881e-06
1.15802e-06
1.15729e-06
1.15663e-06
1.15602e-06
1.15545e-06
1.15497e-06
1.15456e-06
1.15422e-06
1.15397e-06
1.1538e-06
1.15373e-06
1.15375e-06
1.15385e-06
1.15404e-06
1.15429e-06
1.15463e-06
1.15504e-06
1.15552e-06
1.15605e-06
1.15665e-06
1.15733e-06
1.15805e-06
1.15882e-06
1.15965e-06
1.16054e-06
1.16145e-06
1.1624e-06
1.16339e-06
1.16441e-06
1.16547e-06
1.16653e-06
1.16758e-06
1.16862e-06
1.16964e-06
1.17062e-06
1.17157e-06
1.17356e-06
1.17269e-06
1.17179e-06
1.17085e-06
1.16987e-06
1.16888e-06
1.16789e-06
1.1669e-06
1.16591e-06
1.16497e-06
1.16406e-06
1.16317e-06
1.16234e-06
1.16156e-06
1.16082e-06
1.16012e-06
1.15949e-06
1.15891e-06
1.15838e-06
1.15792e-06
1.15753e-06
1.1572e-06
1.15696e-06
1.1568e-06
1.15674e-06
1.15676e-06
1.15685e-06
1.15703e-06
1.15727e-06
1.15759e-06
1.15799e-06
1.15844e-06
1.15895e-06
1.15951e-06
1.16016e-06
1.16084e-06
1.16157e-06
1.16236e-06
1.1632e-06
1.16406e-06
1.16495e-06
1.16589e-06
1.16685e-06
1.16784e-06
1.16883e-06
1.16982e-06
1.17079e-06
1.17173e-06
1.17264e-06
1.17352e-06
1.1753e-06
1.17451e-06
1.17369e-06
1.17281e-06
1.17191e-06
1.17099e-06
1.17006e-06
1.16914e-06
1.1682e-06
1.16733e-06
1.16647e-06
1.16563e-06
1.16485e-06
1.16411e-06
1.16341e-06
1.16275e-06
1.16217e-06
1.16161e-06
1.16111e-06
1.16067e-06
1.1603e-06
1.15999e-06
1.15977e-06
1.15961e-06
1.15955e-06
1.15957e-06
1.15966e-06
1.15983e-06
1.16006e-06
1.16036e-06
1.16074e-06
1.16117e-06
1.16165e-06
1.16218e-06
1.1628e-06
1.16344e-06
1.16413e-06
1.16487e-06
1.16566e-06
1.16647e-06
1.16731e-06
1.16818e-06
1.16908e-06
1.17001e-06
1.17094e-06
1.17186e-06
1.17276e-06
1.17363e-06
1.17446e-06
1.17526e-06
1.17683e-06
1.17613e-06
1.17537e-06
1.17457e-06
1.17374e-06
1.17289e-06
1.17203e-06
1.17117e-06
1.1703e-06
1.16948e-06
1.16867e-06
1.16789e-06
1.16716e-06
1.16647e-06
1.16581e-06
1.16519e-06
1.16464e-06
1.16412e-06
1.16364e-06
1.16323e-06
1.16287e-06
1.16258e-06
1.16237e-06
1.16223e-06
1.16216e-06
1.16218e-06
1.16227e-06
1.16243e-06
1.16265e-06
1.16294e-06
1.1633e-06
1.1637e-06
1.16415e-06
1.16465e-06
1.16523e-06
1.16585e-06
1.16649e-06
1.16719e-06
1.16792e-06
1.16868e-06
1.16946e-06
1.17028e-06
1.17111e-06
1.17198e-06
1.17284e-06
1.17369e-06
1.17452e-06
1.17531e-06
1.17607e-06
1.17679e-06
1.17815e-06
1.17753e-06
1.17685e-06
1.17612e-06
1.17536e-06
1.17458e-06
1.17378e-06
1.17299e-06
1.17219e-06
1.17143e-06
1.17068e-06
1.16995e-06
1.16927e-06
1.16863e-06
1.16801e-06
1.16743e-06
1.16691e-06
1.16642e-06
1.16597e-06
1.16558e-06
1.16524e-06
1.16497e-06
1.16478e-06
1.16464e-06
1.16458e-06
1.1646e-06
1.16468e-06
1.16483e-06
1.16504e-06
1.16531e-06
1.16565e-06
1.16603e-06
1.16645e-06
1.16693e-06
1.16747e-06
1.16804e-06
1.16864e-06
1.16929e-06
1.16998e-06
1.17068e-06
1.17141e-06
1.17216e-06
1.17294e-06
1.17374e-06
1.17454e-06
1.17532e-06
1.17607e-06
1.17679e-06
1.17747e-06
1.17811e-06
1.17925e-06
1.1787e-06
1.1781e-06
1.17745e-06
1.17676e-06
1.17606e-06
1.17533e-06
1.1746e-06
1.17386e-06
1.17316e-06
1.17247e-06
1.17179e-06
1.17116e-06
1.17057e-06
1.16999e-06
1.16945e-06
1.16897e-06
1.16851e-06
1.16809e-06
1.16773e-06
1.16741e-06
1.16716e-06
1.16697e-06
1.16684e-06
1.16679e-06
1.1668e-06
1.16688e-06
1.16702e-06
1.16722e-06
1.16747e-06
1.1678e-06
1.16815e-06
1.16854e-06
1.16899e-06
1.1695e-06
1.17003e-06
1.17059e-06
1.17119e-06
1.17182e-06
1.17248e-06
1.17314e-06
1.17383e-06
1.17455e-06
1.17528e-06
1.17601e-06
1.17672e-06
1.17741e-06
1.17804e-06
1.17865e-06
1.17921e-06
1.18011e-06
1.17965e-06
1.17913e-06
1.17856e-06
1.17794e-06
1.17731e-06
1.17665e-06
1.17599e-06
1.17531e-06
1.17467e-06
1.17404e-06
1.17342e-06
1.17284e-06
1.17229e-06
1.17176e-06
1.17126e-06
1.17082e-06
1.17039e-06
1.17e-06
1.16966e-06
1.16936e-06
1.16913e-06
1.16896e-06
1.16883e-06
1.16878e-06
1.1688e-06
1.16887e-06
1.169e-06
1.16919e-06
1.16943e-06
1.16973e-06
1.17006e-06
1.17042e-06
1.17083e-06
1.1713e-06
1.1718e-06
1.17231e-06
1.17287e-06
1.17344e-06
1.17405e-06
1.17465e-06
1.17528e-06
1.17594e-06
1.17661e-06
1.17726e-06
1.1779e-06
1.17851e-06
1.17907e-06
1.1796e-06
1.18008e-06
1.18074e-06
1.18037e-06
1.17993e-06
1.17943e-06
1.17889e-06
1.17833e-06
1.17774e-06
1.17715e-06
1.17654e-06
1.17596e-06
1.17539e-06
1.17482e-06
1.17429e-06
1.17379e-06
1.1733e-06
1.17285e-06
1.17244e-06
1.17205e-06
1.17169e-06
1.17136e-06
1.17109e-06
1.17088e-06
1.17072e-06
1.1706e-06
1.17055e-06
1.17057e-06
1.17064e-06
1.17076e-06
1.17094e-06
1.17116e-06
1.17144e-06
1.17174e-06
1.17208e-06
1.17246e-06
1.17289e-06
1.17335e-06
1.17382e-06
1.17433e-06
1.17484e-06
1.17539e-06
1.17594e-06
1.17651e-06
1.1771e-06
1.1777e-06
1.17828e-06
1.17885e-06
1.17939e-06
1.17987e-06
1.18031e-06
1.18071e-06
1.18113e-06
1.18084e-06
1.18048e-06
1.18006e-06
1.1796e-06
1.17912e-06
1.17859e-06
1.17808e-06
1.17753e-06
1.17701e-06
1.1765e-06
1.17599e-06
1.17551e-06
1.17506e-06
1.17462e-06
1.17421e-06
1.17384e-06
1.17348e-06
1.17314e-06
1.17285e-06
1.17259e-06
1.1724e-06
1.17225e-06
1.17215e-06
1.1721e-06
1.17212e-06
1.17218e-06
1.1723e-06
1.17246e-06
1.17266e-06
1.17292e-06
1.1732e-06
1.1735e-06
1.17385e-06
1.17425e-06
1.17467e-06
1.17509e-06
1.17555e-06
1.17601e-06
1.17651e-06
1.17699e-06
1.1775e-06
1.17802e-06
1.17855e-06
1.17907e-06
1.17956e-06
1.18002e-06
1.18042e-06
1.18078e-06
1.18109e-06
1.18126e-06
1.18106e-06
1.18078e-06
1.18044e-06
1.18006e-06
1.17965e-06
1.1792e-06
1.17876e-06
1.17828e-06
1.17782e-06
1.17737e-06
1.17692e-06
1.1765e-06
1.1761e-06
1.1757e-06
1.17533e-06
1.175e-06
1.17467e-06
1.17436e-06
1.17409e-06
1.17386e-06
1.17368e-06
1.17355e-06
1.17345e-06
1.17341e-06
1.17343e-06
1.17349e-06
1.1736e-06
1.17374e-06
1.17393e-06
1.17417e-06
1.17442e-06
1.17469e-06
1.17501e-06
1.17537e-06
1.17575e-06
1.17613e-06
1.17653e-06
1.17694e-06
1.17738e-06
1.1778e-06
1.17824e-06
1.1787e-06
1.17916e-06
1.1796e-06
1.18002e-06
1.1804e-06
1.18072e-06
1.181e-06
1.18122e-06
1.18113e-06
1.18101e-06
1.18082e-06
1.18056e-06
1.18026e-06
1.17993e-06
1.17956e-06
1.17918e-06
1.17877e-06
1.17838e-06
1.17799e-06
1.1776e-06
1.17723e-06
1.17688e-06
1.17653e-06
1.17621e-06
1.17591e-06
1.17562e-06
1.17534e-06
1.1751e-06
1.17488e-06
1.17473e-06
1.1746e-06
1.17452e-06
1.17448e-06
1.1745e-06
1.17455e-06
1.17465e-06
1.17478e-06
1.17496e-06
1.17517e-06
1.17539e-06
1.17564e-06
1.17592e-06
1.17624e-06
1.17658e-06
1.17691e-06
1.17727e-06
1.17761e-06
1.178e-06
1.17836e-06
1.17873e-06
1.17912e-06
1.17951e-06
1.17988e-06
1.18022e-06
1.18052e-06
1.18076e-06
1.18095e-06
1.18072e-06
1.1807e-06
1.18059e-06
1.18041e-06
1.1802e-06
1.17994e-06
1.17965e-06
1.17934e-06
1.17901e-06
1.17868e-06
1.17835e-06
1.17803e-06
1.17771e-06
1.17741e-06
1.1771e-06
1.17683e-06
1.17657e-06
1.17631e-06
1.17606e-06
1.17584e-06
1.17565e-06
1.17552e-06
1.17541e-06
1.17533e-06
1.1753e-06
1.17531e-06
1.17537e-06
1.17545e-06
1.17557e-06
1.17573e-06
1.17592e-06
1.17612e-06
1.17633e-06
1.17658e-06
1.17686e-06
1.17716e-06
1.17744e-06
1.17775e-06
1.17803e-06
1.17836e-06
1.17866e-06
1.17896e-06
1.17928e-06
1.1796e-06
1.17989e-06
1.18016e-06
1.18038e-06
1.18052e-06
1.18002e-06
1.18009e-06
1.18007e-06
1.17998e-06
1.17985e-06
1.17968e-06
1.17946e-06
1.17923e-06
1.17897e-06
1.17871e-06
1.17844e-06
1.17818e-06
1.17791e-06
1.17767e-06
1.17741e-06
1.17718e-06
1.17696e-06
1.17674e-06
1.17652e-06
1.17633e-06
1.17616e-06
1.17605e-06
1.17595e-06
1.17588e-06
1.17585e-06
1.17587e-06
1.17592e-06
1.17599e-06
1.1761e-06
1.17624e-06
1.1764e-06
1.17658e-06
1.17676e-06
1.17697e-06
1.17721e-06
1.17747e-06
1.17771e-06
1.17796e-06
1.17819e-06
1.17845e-06
1.17869e-06
1.17892e-06
1.17917e-06
1.17942e-06
1.17963e-06
1.17981e-06
1.17995e-06
1.17903e-06
1.17919e-06
1.17927e-06
1.17926e-06
1.17921e-06
1.17912e-06
1.17898e-06
1.17883e-06
1.17864e-06
1.17845e-06
1.17825e-06
1.17805e-06
1.17784e-06
1.17765e-06
1.17744e-06
1.17726e-06
1.17708e-06
1.1769e-06
1.17671e-06
1.17654e-06
1.1764e-06
1.1763e-06
1.17622e-06
1.17616e-06
1.17614e-06
1.17615e-06
1.17619e-06
1.17626e-06
1.17636e-06
1.17647e-06
1.17661e-06
1.17676e-06
1.17691e-06
1.17709e-06
1.17729e-06
1.1775e-06
1.17769e-06
1.17789e-06
1.17806e-06
1.17826e-06
1.17843e-06
1.1786e-06
1.17877e-06
1.17894e-06
1.17907e-06
1.17918e-06
1.17773e-06
1.17798e-06
1.17815e-06
1.17823e-06
1.17827e-06
1.17827e-06
1.17821e-06
1.17813e-06
1.17802e-06
1.1779e-06
1.17777e-06
1.17763e-06
1.17748e-06
1.17734e-06
1.17719e-06
1.17705e-06
1.17691e-06
1.17677e-06
1.17661e-06
1.17647e-06
1.17635e-06
1.17627e-06
1.1762e-06
1.17615e-06
1.17614e-06
1.17615e-06
1.17619e-06
1.17625e-06
1.17633e-06
1.17642e-06
1.17654e-06
1.17666e-06
1.17678e-06
1.17692e-06
1.17708e-06
1.17725e-06
1.17739e-06
1.17752e-06
1.17764e-06
1.17778e-06
1.17788e-06
1.17798e-06
1.17808e-06
1.17817e-06
1.17822e-06
1.1761e-06
1.17645e-06
1.17671e-06
1.17689e-06
1.17702e-06
1.1771e-06
1.17712e-06
1.17712e-06
1.17709e-06
1.17704e-06
1.17698e-06
1.17691e-06
1.17681e-06
1.17673e-06
1.17663e-06
1.17654e-06
1.17644e-06
1.17634e-06
1.17621e-06
1.1761e-06
1.17601e-06
1.17595e-06
1.17589e-06
1.17585e-06
1.17584e-06
1.17585e-06
1.17588e-06
1.17593e-06
1.176e-06
1.17608e-06
1.17617e-06
1.17627e-06
1.17635e-06
1.17645e-06
1.17657e-06
1.17669e-06
1.17678e-06
1.17686e-06
1.17691e-06
1.17699e-06
1.17702e-06
1.17704e-06
1.17707e-06
1.17708e-06
1.17704e-06
1.17413e-06
1.17458e-06
1.17493e-06
1.17521e-06
1.17543e-06
1.1756e-06
1.17571e-06
1.17579e-06
1.17584e-06
1.17586e-06
1.17587e-06
1.17587e-06
1.17583e-06
1.17581e-06
1.17576e-06
1.17572e-06
1.17566e-06
1.17559e-06
1.1755e-06
1.17542e-06
1.17535e-06
1.17531e-06
1.17527e-06
1.17524e-06
1.17523e-06
1.17525e-06
1.17527e-06
1.17531e-06
1.17536e-06
1.17542e-06
1.17549e-06
1.17556e-06
1.1756e-06
1.17567e-06
1.17575e-06
1.17582e-06
1.17586e-06
1.17588e-06
1.17587e-06
1.17588e-06
1.17585e-06
1.17579e-06
1.17574e-06
1.17566e-06
1.17554e-06
1.17179e-06
1.17235e-06
1.1728e-06
1.17318e-06
1.17349e-06
1.17375e-06
1.17395e-06
1.17412e-06
1.17425e-06
1.17434e-06
1.17442e-06
1.17449e-06
1.17452e-06
1.17455e-06
1.17455e-06
1.17457e-06
1.17455e-06
1.17452e-06
1.17447e-06
1.17442e-06
1.17437e-06
1.17435e-06
1.17432e-06
1.17431e-06
1.1743e-06
1.17432e-06
1.17434e-06
1.17436e-06
1.1744e-06
1.17444e-06
1.17448e-06
1.17452e-06
1.17454e-06
1.17456e-06
1.17459e-06
1.17462e-06
1.1746e-06
1.17456e-06
1.17449e-06
1.17443e-06
1.17433e-06
1.17419e-06
1.17406e-06
1.1739e-06
1.1737e-06
1.16909e-06
1.16975e-06
1.1703e-06
1.17078e-06
1.17118e-06
1.17154e-06
1.17183e-06
1.17208e-06
1.1723e-06
1.17246e-06
1.17262e-06
1.17276e-06
1.17285e-06
1.17295e-06
1.17301e-06
1.17307e-06
1.1731e-06
1.17311e-06
1.17309e-06
1.17307e-06
1.17305e-06
1.17305e-06
1.17304e-06
1.17303e-06
1.17304e-06
1.17305e-06
1.17306e-06
1.17308e-06
1.1731e-06
1.17312e-06
1.17313e-06
1.17314e-06
1.17312e-06
1.17311e-06
1.17309e-06
1.17307e-06
1.173e-06
1.1729e-06
1.17276e-06
1.17263e-06
1.17246e-06
1.17224e-06
1.17203e-06
1.17178e-06
1.17149e-06
1.16598e-06
1.16675e-06
1.16741e-06
1.16799e-06
1.1685e-06
1.16895e-06
1.16933e-06
1.16967e-06
1.16997e-06
1.17022e-06
1.17045e-06
1.17066e-06
1.17082e-06
1.17098e-06
1.17109e-06
1.17121e-06
1.17129e-06
1.17134e-06
1.17135e-06
1.17137e-06
1.17138e-06
1.17139e-06
1.1714e-06
1.1714e-06
1.17141e-06
1.17142e-06
1.17143e-06
1.17144e-06
1.17144e-06
1.17144e-06
1.17143e-06
1.1714e-06
1.17135e-06
1.1713e-06
1.17123e-06
1.17116e-06
1.17103e-06
1.17087e-06
1.17066e-06
1.17046e-06
1.17021e-06
1.16992e-06
1.16962e-06
1.16928e-06
1.1689e-06
1.16246e-06
1.16334e-06
1.16411e-06
1.16479e-06
1.1654e-06
1.16596e-06
1.16644e-06
1.16687e-06
1.16725e-06
1.16758e-06
1.16789e-06
1.16818e-06
1.16841e-06
1.16862e-06
1.1688e-06
1.16897e-06
1.16909e-06
1.16919e-06
1.16924e-06
1.16928e-06
1.16932e-06
1.16935e-06
1.16938e-06
1.1694e-06
1.16941e-06
1.16942e-06
1.16942e-06
1.16942e-06
1.16941e-06
1.16938e-06
1.16934e-06
1.16929e-06
1.1692e-06
1.16911e-06
1.16899e-06
1.16886e-06
1.16868e-06
1.16845e-06
1.16818e-06
1.1679e-06
1.16757e-06
1.1672e-06
1.16681e-06
1.16638e-06
1.16591e-06
1.15849e-06
1.15949e-06
1.16038e-06
1.16117e-06
1.16188e-06
1.16254e-06
1.16312e-06
1.16364e-06
1.16412e-06
1.16453e-06
1.16492e-06
1.16528e-06
1.16559e-06
1.16587e-06
1.1661e-06
1.16632e-06
1.1665e-06
1.16664e-06
1.16673e-06
1.16681e-06
1.16687e-06
1.16692e-06
1.16696e-06
1.167e-06
1.16702e-06
1.16703e-06
1.16702e-06
1.16701e-06
1.16698e-06
1.16693e-06
1.16686e-06
1.16677e-06
1.16665e-06
1.16651e-06
1.16635e-06
1.16617e-06
1.16592e-06
1.16563e-06
1.16528e-06
1.16493e-06
1.16452e-06
1.16407e-06
1.16359e-06
1.16306e-06
1.15407e-06
1.15519e-06
1.15619e-06
1.15709e-06
1.15791e-06
1.15868e-06
1.15936e-06
1.15998e-06
1.16055e-06
1.16104e-06
1.16152e-06
1.16196e-06
1.16233e-06
1.16268e-06
1.16298e-06
1.16326e-06
1.16348e-06
1.16366e-06
1.1638e-06
1.16391e-06
1.164e-06
1.16407e-06
1.16414e-06
1.16418e-06
1.16421e-06
1.16422e-06
1.16421e-06
1.16418e-06
1.16413e-06
1.16405e-06
1.16396e-06
1.16384e-06
1.16367e-06
1.1635e-06
1.16328e-06
1.16304e-06
1.16274e-06
1.16237e-06
1.16196e-06
1.16153e-06
1.16104e-06
1.16049e-06
1.15992e-06
1.1593e-06
1.14915e-06
1.15039e-06
1.15151e-06
1.15253e-06
1.15347e-06
1.15434e-06
1.15513e-06