/*--------------------------------*- C++ -*----------------------------------*\
  =========                 |
  \\      /  F ield         | OpenFOAM: The Open Source CFD Toolbox
   \\    /   O peration     | Website:  https://openfoam.org
    \\  /    A nd           | Version:  7
     \\/     M anipulation  |
\*---------------------------------------------------------------------------*/
FoamFile
{
    version     2.0;
    format      ascii;
    class       volScalarField;
    location    "108000";
    object      omega;
}
// * * * * * * * * * * * * * * * * * * * * * * * * * * * * * * * * * * * * * //

dimensions      [0 0 -1 0 0 0 0];

internalField   nonuniform List<scalar> 
4825
(
0.104684
0.103778
0.106893
0.105968
0.105076
0.104217
0.103393
0.109164
0.108219
0.107308
0.10643
0.105588
0.111499
0.110533
0.109602
0.108705
0.107844
0.1139
0.112913
0.111961
0.111044
0.110165
0.11637
0.115361
0.114387
0.113451
0.112551
0.118912
0.11788
0.116885
0.115927
0.115008
0.121529
0.120473
0.119455
0.118476
0.117536
0.124224
0.123143
0.122102
0.1211
0.120139
0.127
0.125895
0.124829
0.123804
0.122821
0.129862
0.12873
0.12764
0.126591
0.125584
0.132813
0.131654
0.130538
0.129464
0.128434
0.135857
0.13467
0.133527
0.132427
0.131372
0.138999
0.137783
0.136612
0.135485
0.142243
0.140997
0.139797
0.138642
0.145594
0.144316
0.143086
0.141903
0.149057
0.147747
0.146485
0.152638
0.151293
0.15
0.156342
0.154962
0.160175
0.158759
0.164145
0.162691
0.168258
0.166764
0.172522
0.170987
0.176944
0.0776074
0.076941
0.0762973
0.0756769
0.0750801
0.0745081
0.0739615
0.073441
0.072947
0.0724803
0.072041
0.0716298
0.0712468
0.0708922
0.0705664
0.0702697
0.0700022
0.069764
0.0695553
0.0693761
0.0791176
0.0784389
0.0777833
0.0771512
0.0765434
0.0759608
0.0754041
0.074874
0.074371
0.0738956
0.0734484
0.0730298
0.0726398
0.0722788
0.0719472
0.0716452
0.0713729
0.0711304
0.070918
0.0707355
0.0806631
0.0799719
0.0793038
0.0786598
0.0780406
0.0774471
0.07688
0.0763401
0.0758277
0.0753436
0.0748881
0.0744618
0.0740647
0.0736971
0.0733595
0.073052
0.0727747
0.0725279
0.0723117
0.0721259
0.0822452
0.0815411
0.0808602
0.0802039
0.0795729
0.0789682
0.0783904
0.0778403
0.0773183
0.0768252
0.0763613
0.075927
0.0755226
0.0751482
0.0748044
0.0744913
0.0742089
0.0739576
0.0737375
0.0735483
0.0838653
0.0831478
0.0824538
0.0817848
0.0811417
0.0805253
0.0799365
0.079376
0.0788442
0.0783417
0.077869
0.0774266
0.0770147
0.0766334
0.0762831
0.0759643
0.0756767
0.0754207
0.0751965
0.0750039
0.0855252
0.0847935
0.0840858
0.0834037
0.0827481
0.0821198
0.0815197
0.0809484
0.0804064
0.0798944
0.0794127
0.0789619
0.0785422
0.0781537
0.0777969
0.0774721
0.0771791
0.0769184
0.07669
0.0764938
0.0872266
0.0864796
0.0857577
0.0850621
0.0843937
0.0837531
0.0831413
0.0825589
0.0820065
0.0814846
0.0809936
0.0805342
0.0801065
0.0797106
0.0793471
0.079016
0.0787176
0.0784519
0.0782192
0.0780193
0.0889713
0.0882079
0.0874711
0.0867616
0.0860798
0.0854266
0.0848027
0.0842089
0.0836457
0.0831136
0.0826132
0.0821449
0.0817089
0.0813054
0.0809349
0.0805975
0.0802933
0.0800226
0.0797855
0.0795818
0.0794118
0.0792758
0.0791737
0.0791058
0.0790718
0.079072
0.079106
0.0791742
0.0792764
0.0794124
0.0795821
0.0797858
0.0800229
0.0802937
0.0805982
0.0907609
0.0899805
0.089228
0.0885038
0.0878081
0.0871418
0.0865055
0.0858999
0.0853255
0.084783
0.0842727
0.0837953
0.0833508
0.0829395
0.0825618
0.0822179
0.0819079
0.0816319
0.0813902
0.0811827
0.0810093
0.0808708
0.0807668
0.0806975
0.0806629
0.080663
0.0806978
0.0807673
0.0808714
0.0810099
0.0811829
0.0813905
0.0816322
0.0819083
0.0822186
0.0825627
0.0829405
0.092597
0.0917994
0.0910306
0.090291
0.0895807
0.0889006
0.0882513
0.0876335
0.0870476
0.0864943
0.0859739
0.085487
0.0850338
0.0846144
0.0842293
0.0838786
0.0835626
0.0832812
0.0830348
0.0828233
0.0826466
0.0825054
0.0823994
0.0823288
0.0822935
0.0822936
0.082329
0.0823999
0.082506
0.0826472
0.0828235
0.0830351
0.0832816
0.083563
0.0838793
0.0842302
0.0846154
0.0850349
0.0944811
0.0936663
0.0928809
0.0921253
0.0913998
0.0907053
0.0900423
0.0894116
0.0888137
0.0882491
0.0877182
0.0872216
0.0867593
0.0863316
0.0859389
0.0855813
0.085259
0.0849721
0.0847208
0.0845052
0.0843251
0.0841811
0.084073
0.084001
0.0839651
0.0839652
0.0840013
0.0840735
0.0841817
0.0843256
0.0845054
0.0847211
0.0849724
0.0852594
0.085582
0.0859398
0.0863326
0.0867604
0.0872229
0.0877197
0.096415
0.0955828
0.0947804
0.0940084
0.0932674
0.0925579
0.0918807
0.0912365
0.0906259
0.0900495
0.0895076
0.0890007
0.0885291
0.0880928
0.0876922
0.0873275
0.0869987
0.0867061
0.0864499
0.0862299
0.0860462
0.0858994
0.0857892
0.0857158
0.0856792
0.0856793
0.0857161
0.0857897
0.0859
0.0860468
0.0862302
0.0864501
0.0867064
0.0869991
0.0873281
0.0876931
0.0880938
0.0885303
0.0890021
0.0895092
0.090051
0.0906274
0.0984004
0.0975504
0.0967307
0.0959421
0.0951851
0.0944603
0.0937684
0.0931104
0.0924867
0.0918979
0.0913444
0.0908268
0.0903453
0.0899
0.0894911
0.0891189
0.0887835
0.088485
0.0882236
0.0879993
0.0878119
0.0876621
0.0875497
0.0874748
0.0874375
0.0874376
0.0874751
0.0875502
0.0876627
0.0878125
0.0879995
0.0882238
0.0884853
0.0887839
0.0891196
0.089492
0.0899011
0.0903465
0.0908283
0.0913461
0.0918995
0.0924882
0.093112
0.0937703
0.0944621
0.100439
0.0995708
0.0987336
0.0979279
0.0971546
0.0964141
0.0957073
0.0950351
0.0943979
0.0937963
0.0932309
0.0927021
0.0922103
0.0917554
0.0913379
0.0909578
0.0906155
0.0903108
0.090044
0.089815
0.0896238
0.089471
0.0893563
0.0892799
0.0892418
0.0892419
0.0892802
0.0893568
0.0894716
0.0896244
0.0898152
0.0900442
0.0903111
0.0906159
0.0909586
0.0913389
0.0917566
0.0922116
0.0927037
0.0932327
0.0937981
0.0943995
0.0950368
0.0957093
0.0964161
0.0971565
0.0979297
0.102532
0.101646
0.100791
0.0999677
0.0991777
0.0984212
0.0976992
0.0970123
0.0963613
0.0957467
0.095169
0.0946287
0.0941262
0.0936615
0.0932349
0.0928467
0.092497
0.0921859
0.0919134
0.0916794
0.0914843
0.0913283
0.0912112
0.0911332
0.0910943
0.0910944
0.0911335
0.0912117
0.0913288
0.0914848
0.0916797
0.0919136
0.0921862
0.0924975
0.0928475
0.093236
0.0936628
0.0941277
0.0946305
0.095171
0.0957486
0.0963631
0.0970141
0.0977012
0.0984233
0.0991797
0.0999695
0.100792
0.101647
0.102534
0.104683
0.103777
0.102904
0.102063
0.101256
0.100483
0.0997456
0.0990439
0.0983788
0.0977508
0.0971605
0.0966085
0.0960951
0.0956202
0.0951844
0.0947877
0.0944304
0.0941126
0.0938342
0.0935952
0.0933959
0.0932365
0.0931169
0.0930372
0.0929976
0.0929976
0.0930375
0.0931174
0.093237
0.0933964
0.0935955
0.0938344
0.094113
0.094431
0.0947886
0.0951856
0.0956217
0.0960967
0.0966105
0.0971627
0.0977528
0.0983806
0.0990458
0.0997477
0.100485
0.101258
0.102065
0.102905
0.103779
0.104684
0.106892
0.105967
0.105075
0.104216
0.103392
0.102602
0.101849
0.101132
0.100452
0.0998105
0.0992074
0.0986434
0.0981188
0.0976335
0.0971882
0.0967829
0.0964178
0.096093
0.0958085
0.0955644
0.0953608
0.0951979
0.0950757
0.0949943
0.0949538
0.0949539
0.0949946
0.0950762
0.0951984
0.0953613
0.0955647
0.0958089
0.0960934
0.0964185
0.0967839
0.0971895
0.0976351
0.0981205
0.0986455
0.0992097
0.0998126
0.100454
0.101134
0.101851
0.102604
0.103394
0.104218
0.105077
0.105969
0.106894
0.109163
0.108218
0.107307
0.106429
0.105587
0.10478
0.10401
0.103278
0.102583
0.101928
0.101312
0.100735
0.100199
0.0997034
0.0992483
0.0988342
0.0984611
0.0981292
0.0978385
0.0975891
0.0973811
0.0972146
0.0970897
0.0970065
0.0969652
0.0969652
0.0970069
0.0970902
0.097215
0.0973815
0.0975894
0.0978389
0.0981297
0.0984618
0.0988352
0.0992497
0.099705
0.100201
0.100737
0.101314
0.10193
0.102585
0.10328
0.104012
0.104782
0.105589
0.106431
0.107308
0.10822
0.109165
0.111498
0.110532
0.109601
0.108704
0.107843
0.107019
0.106232
0.105484
0.104774
0.104104
0.103475
0.102886
0.102338
0.101832
0.101367
0.100943
0.100562
0.100223
0.099926
0.0996712
0.0994586
0.0992886
0.0991609
0.0990759
0.0990336
0.0990337
0.0990762
0.0991614
0.0992889
0.099459
0.0996714
0.0999264
0.100224
0.100563
0.100945
0.101368
0.101833
0.10234
0.102888
0.103477
0.104107
0.104776
0.105486
0.106234
0.107021
0.107845
0.108706
0.109602
0.110534
0.111499
0.113899
0.112912
0.11196
0.111043
0.110164
0.109321
0.108517
0.107753
0.107028
0.106343
0.1057
0.105098
0.104538
0.104021
0.103545
0.103113
0.102723
0.102377
0.102073
0.101813
0.101596
0.101422
0.101291
0.101204
0.101161
0.101161
0.101205
0.101292
0.101422
0.101596
0.101813
0.102074
0.102377
0.102724
0.103114
0.103547
0.104022
0.10454
0.1051
0.105702
0.106345
0.10703
0.107755
0.10852
0.109324
0.110166
0.111045
0.111961
0.112913
0.1139
0.116369
0.11536
0.114387
0.11345
0.112551
0.11169
0.110868
0.110086
0.109345
0.108646
0.107988
0.107373
0.106801
0.106272
0.105787
0.105345
0.104946
0.104592
0.104282
0.104016
0.103794
0.103616
0.103483
0.103394
0.10335
0.10335
0.103395
0.103483
0.103617
0.103794
0.104016
0.104282
0.104593
0.104947
0.105346
0.105788
0.106274
0.106803
0.107376
0.107991
0.108648
0.109347
0.110088
0.11087
0.111692
0.112553
0.113452
0.114388
0.115361
0.11637
0.118911
0.117879
0.116884
0.115926
0.115007
0.114126
0.113286
0.112487
0.11173
0.111015
0.110343
0.109715
0.10913
0.108589
0.108093
0.107641
0.107234
0.106872
0.106555
0.106283
0.106056
0.105875
0.105739
0.105648
0.105603
0.105603
0.105648
0.105739
0.105875
0.106056
0.106283
0.106555
0.106872
0.107235
0.107642
0.108094
0.108591
0.109132
0.109717
0.110345
0.111017
0.111732
0.11249
0.113289
0.114129
0.115009
0.115928
0.116885
0.11788
0.118912
0.121528
0.120472
0.119454
0.118475
0.117535
0.116635
0.115776
0.114959
0.114185
0.113454
0.112767
0.112124
0.111527
0.110974
0.110467
0.110005
0.109589
0.109219
0.108894
0.108616
0.108385
0.108199
0.10806
0.107967
0.107921
0.107921
0.107967
0.10806
0.108199
0.108385
0.108617
0.108895
0.109219
0.109589
0.110006
0.110468
0.110975
0.111528
0.112126
0.112769
0.113456
0.114187
0.114961
0.115778
0.116637
0.117537
0.118477
0.119456
0.120473
0.121529
0.124223
0.123143
0.122102
0.1211
0.120138
0.119218
0.118339
0.117504
0.116712
0.115965
0.115262
0.114605
0.113994
0.113429
0.11291
0.112438
0.112013
0.111635
0.111303
0.111019
0.110782
0.110593
0.11045
0.110355
0.110308
0.110308
0.110355
0.11045
0.110592
0.110782
0.111019
0.111303
0.111635
0.112013
0.112439
0.112912
0.113431
0.113996
0.114607
0.115264
0.115967
0.116714
0.117506
0.118342
0.11922
0.12014
0.121102
0.122103
0.123144
0.124224
0.126999
0.125894
0.124829
0.123804
0.12282
0.121878
0.12098
0.120125
0.119315
0.118551
0.117833
0.117161
0.116536
0.115958
0.115428
0.114945
0.11451
0.114123
0.113784
0.113494
0.113251
0.113057
0.112912
0.112815
0.112767
0.112766
0.112815
0.112912
0.113057
0.113251
0.113493
0.113784
0.114123
0.11451
0.114945
0.115429
0.115959
0.116538
0.117163
0.117835
0.118553
0.119317
0.120127
0.120982
0.121881
0.122822
0.123806
0.124831
0.125895
0.127001
0.129861
0.12873
0.127639
0.12659
0.125584
0.12462
0.123701
0.122826
0.121998
0.121216
0.120481
0.119794
0.119155
0.118564
0.118021
0.117527
0.117082
0.116687
0.11634
0.116043
0.115795
0.115597
0.115448
0.115349
0.1153
0.115299
0.115349
0.115448
0.115597
0.115795
0.116043
0.11634
0.116687
0.117082
0.117528
0.118022
0.118565
0.119156
0.119796
0.120483
0.121218
0.122
0.122828
0.123703
0.124622
0.125586
0.126593
0.127641
0.128731
0.129862
0.132812
0.131654
0.130537
0.129464
0.128433
0.127447
0.126506
0.125611
0.124763
0.123963
0.123211
0.122508
0.121854
0.121249
0.120694
0.120189
0.119734
0.119329
0.118975
0.118671
0.118417
0.118214
0.118062
0.117961
0.11791
0.11791
0.117961
0.118062
0.118214
0.118417
0.11867
0.118974
0.119329
0.119734
0.120189
0.120695
0.12125
0.121855
0.12251
0.123213
0.123965
0.124765
0.125613
0.126508
0.127449
0.128435
0.129466
0.130539
0.131655
0.132814
0.135857
0.13467
0.133527
0.132427
0.131372
0.130362
0.129399
0.128483
0.127615
0.126796
0.126027
0.125307
0.124638
0.124019
0.123451
0.122934
0.122468
0.122054
0.121691
0.12138
0.121121
0.120913
0.120758
0.120654
0.120602
0.120602
0.120653
0.120757
0.120912
0.12112
0.121379
0.12169
0.122053
0.122468
0.122934
0.123451
0.12402
0.124639
0.125308
0.126028
0.126798
0.127617
0.128485
0.129401
0.130364
0.131374
0.132429
0.133529
0.134671
0.135858
0.138998
0.137782
0.136611
0.135485
0.134404
0.13337
0.132384
0.131446
0.130557
0.129719
0.128931
0.128195
0.127509
0.126876
0.126295
0.125765
0.125289
0.124864
0.124493
0.124175
0.123909
0.123697
0.123538
0.123432
0.123378
0.123378
0.123431
0.123537
0.123696
0.123908
0.124174
0.124492
0.124864
0.125288
0.125765
0.126295
0.126876
0.12751
0.128196
0.128932
0.12972
0.130559
0.131448
0.132386
0.133373
0.134407
0.135487
0.136613
0.137784
0.139
0.142242
0.140996
0.139796
0.138642
0.137535
0.136476
0.135465
0.134505
0.133594
0.132736
0.131929
0.131175
0.130473
0.129825
0.129229
0.128687
0.128199
0.127765
0.127385
0.127059
0.126787
0.12657
0.126407
0.126298
0.126244
0.126243
0.126297
0.126406
0.126569
0.126786
0.127058
0.127384
0.127764
0.128198
0.128687
0.129229
0.129825
0.130474
0.131176
0.13193
0.132737
0.133596
0.134506
0.135467
0.136478
0.137537
0.138644
0.139798
0.140997
0.142243
0.145593
0.144316
0.143086
0.141903
0.140768
0.139683
0.138647
0.137663
0.136731
0.135851
0.135025
0.134252
0.133534
0.132869
0.132259
0.131704
0.131205
0.13076
0.130371
0.130037
0.129759
0.129536
0.129369
0.129258
0.129202
0.129201
0.129257
0.129368
0.129535
0.129757
0.130035
0.130369
0.130758
0.131203
0.131704
0.132259
0.132869
0.133534
0.134253
0.135026
0.135852
0.136732
0.137665
0.138649
0.139685
0.140771
0.141905
0.143087
0.144317
0.145594
0.149056
0.147746
0.146485
0.145272
0.144109
0.142997
0.141935
0.140927
0.139971
0.13907
0.138223
0.137431
0.136695
0.136014
0.13539
0.134821
0.134309
0.133853
0.133455
0.133113
0.132828
0.1326
0.132429
0.132314
0.132257
0.132257
0.132314
0.132427
0.132598
0.132826
0.133111
0.133453
0.133852
0.134308
0.13482
0.135389
0.136014
0.136695
0.137432
0.138224
0.139071
0.139972
0.140928
0.141937
0.142999
0.144112
0.145275
0.146487
0.147747
0.149057
0.152637
0.151293
0.149999
0.148756
0.147563
0.146422
0.145334
0.1443
0.143321
0.142397
0.141529
0.140717
0.139963
0.139265
0.138625
0.138042
0.137517
0.13705
0.136642
0.136291
0.135999
0.135766
0.13559
0.135473
0.135415
0.135414
0.135472
0.135589
0.135764
0.135997
0.136289
0.13664
0.137048
0.137516
0.138041
0.138624
0.139264
0.139962
0.140717
0.141529
0.142397
0.143322
0.144302
0.145336
0.146424
0.147566
0.148758
0.150001
0.151294
0.152638
0.156341
0.154962
0.153635
0.152359
0.151136
0.149966
0.14885
0.147789
0.146785
0.145837
0.144947
0.144115
0.143342
0.142626
0.14197
0.141373
0.140835
0.140356
0.139937
0.139578
0.139278
0.139039
0.138859
0.138739
0.138679
0.138679
0.138738
0.138858
0.139037
0.139276
0.139576
0.139935
0.140354
0.140833
0.141371
0.141969
0.142626
0.143341
0.144115
0.144947
0.145838
0.146786
0.14779
0.148851
0.149968
0.151138
0.152361
0.153636
0.154963
0.156342
0.160175
0.158759
0.157397
0.156088
0.154833
0.153632
0.152487
0.151399
0.150369
0.149397
0.148484
0.147631
0.146837
0.146104
0.145431
0.144818
0.144266
0.143776
0.143346
0.142978
0.142671
0.142425
0.142241
0.142118
0.142056
0.142056
0.142117
0.142239
0.142423
0.142668
0.142975
0.143343
0.143773
0.144264
0.144816
0.145429
0.146103
0.146837
0.14763
0.148484
0.149397
0.15037
0.151401
0.152489
0.153634
0.154835
0.15609
0.157399
0.15876
0.160176
0.164144
0.162691
0.161293
0.159949
0.158661
0.157428
0.156253
0.155137
0.15408
0.153082
0.152146
0.15127
0.150456
0.149704
0.149013
0.148385
0.147819
0.147315
0.146874
0.146496
0.146182
0.14593
0.145741
0.145615
0.145551
0.145551
0.145614
0.145739
0.145928
0.146179
0.146494
0.146871
0.147312
0.147816
0.148382
0.149011
0.149702
0.150455
0.151269
0.152145
0.153082
0.15408
0.155138
0.156255
0.15743
0.158663
0.159951
0.161294
0.162692
0.164145
0.168257
0.166764
0.165328
0.163949
0.162626
0.161361
0.160154
0.159008
0.157923
0.156899
0.155938
0.15504
0.154204
0.153432
0.152723
0.152078
0.151497
0.150981
0.150528
0.15014
0.149817
0.149559
0.149365
0.149235
0.149171
0.14917
0.149234
0.149363
0.149557
0.149815
0.150138
0.150525
0.150977
0.151494
0.152076
0.152721
0.15343
0.154203
0.155039
0.155938
0.156899
0.157923
0.159009
0.160156
0.161362
0.162628
0.163951
0.16533
0.166765
0.168258
0.172521
0.170987
0.169511
0.168094
0.166736
0.165436
0.164198
0.163021
0.161906
0.160855
0.159868
0.158946
0.158088
0.157295
0.156567
0.155905
0.155309
0.154778
0.154314
0.153916
0.153584
0.153319
0.15312
0.152987
0.152921
0.15292
0.152986
0.153118
0.153317
0.153582
0.153913
0.154311
0.154775
0.155306
0.155902
0.156565
0.157293
0.158086
0.158944
0.159867
0.160855
0.161907
0.163022
0.164199
0.165438
0.166738
0.168097
0.169513
0.170988
0.172522
0.176943
0.175366
0.17385
0.172394
0.170998
0.169663
0.16839
0.167181
0.166037
0.164957
0.163943
0.162996
0.162114
0.1613
0.160553
0.159873
0.15926
0.158716
0.158239
0.15783
0.15749
0.157217
0.157013
0.156876
0.156808
0.156808
0.156875
0.157011
0.157215
0.157487
0.157827
0.158235
0.158712
0.159257
0.15987
0.16055
0.161298
0.162113
0.162994
0.163942
0.164957
0.166037
0.167182
0.168392
0.169665
0.171
0.172396
0.173852
0.175367
0.176944
0.181532
0.179911
0.178352
0.176856
0.175421
0.174049
0.172741
0.171498
0.170322
0.169212
0.168171
0.167197
0.166292
0.165455
0.164687
0.163989
0.16336
0.1628
0.162311
0.161891
0.161541
0.161261
0.161051
0.160911
0.16084
0.16084
0.16091
0.161049
0.161258
0.161538
0.161887
0.162307
0.162796
0.163356
0.163986
0.164685
0.165453
0.16629
0.167196
0.16817
0.169212
0.170322
0.171499
0.172742
0.17405
0.175423
0.176858
0.178354
0.179912
0.181533
0.186298
0.184629
0.183027
0.181488
0.180013
0.178602
0.177257
0.17598
0.174771
0.17363
0.17256
0.171559
0.170628
0.169768
0.168979
0.168261
0.167615
0.16704
0.166537
0.166105
0.165746
0.165458
0.165242
0.165098
0.165026
0.165025
0.165097
0.16524
0.165455
0.165742
0.166101
0.166532
0.167035
0.167611
0.168258
0.168976
0.169766
0.170626
0.171557
0.172559
0.17363
0.174771
0.175981
0.177259
0.178603
0.180014
0.18149
0.183029
0.184631
0.186299
0.191249
0.189532
0.187883
0.186301
0.184783
0.183332
0.181949
0.180636
0.179392
0.178219
0.177118
0.176089
0.175133
0.174248
0.173437
0.172699
0.172034
0.171443
0.170925
0.170482
0.170112
0.169816
0.169594
0.169446
0.169372
0.169372
0.169445
0.169592
0.169813
0.170108
0.170477
0.170921
0.171438
0.17203
0.172695
0.173434
0.174246
0.17513
0.176088
0.177117
0.178219
0.179392
0.180636
0.18195
0.183334
0.184785
0.186302
0.187885
0.189533
0.196396
0.194629
0.192932
0.191303
0.189742
0.188249
0.186826
0.185475
0.184195
0.182989
0.181856
0.180798
0.179814
0.178904
0.178069
0.17731
0.176626
0.176018
0.175486
0.17503
0.17465
0.174345
0.174117
0.173965
0.173889
0.173888
0.173964
0.174115
0.174343
0.174646
0.175025
0.175481
0.176014
0.176622
0.177306
0.178066
0.178901
0.179811
0.180796
0.181855
0.182989
0.184196
0.185476
0.186827
0.18825
0.189743
0.191305
0.192934
0.20175
0.19993
0.198184
0.196507
0.1949
0.193363
0.191899
0.190508
0.189191
0.187949
0.186784
0.185695
0.184682
0.183746
0.182887
0.182106
0.181402
0.180776
0.180229
0.17976
0.179369
0.179055
0.17882
0.178664
0.178585
0.178585
0.178663
0.178818
0.179052
0.179364
0.179755
0.180224
0.180772
0.181398
0.182102
0.182883
0.183743
0.184679
0.185693
0.186783
0.187949
0.189191
0.190509
0.1919
0.193364
0.194901
0.196509
0.207324
0.205449
0.20365
0.201923
0.200268
0.198686
0.197178
0.195746
0.19439
0.193112
0.191912
0.190791
0.189748
0.188784
0.1879
0.187096
0.186371
0.185727
0.185164
0.184681
0.184278
0.183956
0.183714
0.183553
0.183472
0.183472
0.183552
0.183712
0.183953
0.184274
0.184676
0.185159
0.185722
0.186367
0.187092
0.187896
0.188781
0.189745
0.190789
0.191911
0.193112
0.194391
0.195747
0.197179
0.198687
0.20027
0.213129
0.211197
0.209343
0.207564
0.205859
0.204229
0.202677
0.201201
0.199805
0.198488
0.197252
0.196097
0.195023
0.194031
0.19312
0.192292
0.191546
0.190882
0.190302
0.189805
0.18939
0.189058
0.188809
0.188643
0.18856
0.18856
0.188642
0.188807
0.189055
0.189386
0.1898
0.190297
0.190878
0.191541
0.192287
0.193116
0.194027
0.19502
0.196095
0.197251
0.198488
0.199805
0.201202
0.202677
0.204231
0.219179
0.217187
0.215277
0.213444
0.211687
0.210007
0.208407
0.206887
0.205447
0.20409
0.202817
0.201627
0.200521
0.199498
0.19856
0.197706
0.196937
0.196254
0.195656
0.195144
0.194717
0.194375
0.194118
0.193947
0.193862
0.193861
0.193946
0.194116
0.194371
0.194712
0.195138
0.195651
0.196249
0.196933
0.197701
0.198555
0.199494
0.200517
0.201625
0.202816
0.20409
0.205448
0.206887
0.208407
0.210008
0.22549
0.223436
0.221466
0.219576
0.217764
0.216032
0.214382
0.212815
0.211332
0.209933
0.20862
0.207393
0.206253
0.205199
0.204231
0.203351
0.202559
0.201855
0.201239
0.200711
0.200271
0.199918
0.199654
0.199478
0.199389
0.199389
0.199476
0.199652
0.199915
0.200266
0.200705
0.201233
0.20185
0.202555
0.203347
0.204227
0.205195
0.20625
0.207391
0.208619
0.209933
0.211332
0.212816
0.214383
0.216033
0.232077
0.229957
0.227925
0.225975
0.224106
0.22232
0.220619
0.219003
0.217472
0.21603
0.214676
0.213411
0.212235
0.211148
0.21015
0.209242
0.208425
0.207699
0.207064
0.20652
0.206066
0.205702
0.205429
0.205248
0.205157
0.205156
0.205246
0.205427
0.205699
0.206061
0.206514
0.207058
0.207694
0.208421
0.209238
0.210145
0.211143
0.212231
0.213408
0.214674
0.216029
0.217473
0.219003
0.22062
0.222321
0.238956
0.236768
0.234671
0.232659
0.230731
0.228888
0.227132
0.225464
0.223886
0.222397
0.221
0.219695
0.218482
0.21736
0.21633
0.215394
0.214551
0.213801
0.213147
0.212585
0.212117
0.211741
0.21146
0.211273
0.211179
0.211179
0.211272
0.211458
0.211738
0.212112
0.212579
0.213141
0.213797
0.214546
0.215389
0.216325
0.217355
0.218478
0.219692
0.220999
0.222397
0.223886
0.225465
0.227133
0.228888
0.246147
0.243887
0.241722
0.239645
0.237654
0.235752
0.233939
0.232218
0.230588
0.229052
0.227609
0.226262
0.22501
0.223852
0.222789
0.221822
0.220952
0.220179
0.219503
0.218923
0.21844
0.218053
0.217763
0.217569
0.217473
0.217472
0.217568
0.217761
0.21805
0.218435
0.218917
0.219497
0.220174
0.220948
0.221818
0.222784
0.223847
0.225006
0.22626
0.227608
0.229051
0.230589
0.232219
0.23394
0.235752
0.253669
0.251334
0.249098
0.246952
0.244896
0.242931
0.24106
0.239282
0.237599
0.236012
0.234522
0.233131
0.231838
0.230642
0.229544
0.228546
0.227647
0.226849
0.226151
0.225552
0.225053
0.224653
0.224354
0.224154
0.224054
0.224054
0.224153
0.224352
0.22465
0.225048
0.225546
0.226145
0.226844
0.227643
0.228541
0.229539
0.230637
0.231834
0.233128
0.234521
0.236012
0.237599
0.239283
0.241061
0.242932
0.261543
0.25913
0.256819
0.254602
0.252478
0.250447
0.248513
0.246676
0.244937
0.243298
0.241759
0.240321
0.238985
0.237749
0.236615
0.235583
0.234655
0.23383
0.233109
0.232491
0.231975
0.231562
0.231253
0.231046
0.230943
0.230943
0.231045
0.231251
0.231559
0.23197
0.232485
0.233103
0.233825
0.234651
0.235579
0.236609
0.237744
0.23898
0.240318
0.241757
0.243297
0.244938
0.246677
0.248514
0.269793
0.267297
0.264908
0.262616
0.26042
0.258321
0.256322
0.254423
0.252625
0.250931
0.24934
0.247853
0.246472
0.245194
0.244022
0.242956
0.241996
0.241143
0.240398
0.239759
0.239226
0.238799
0.238479
0.238266
0.238159
0.238159
0.238265
0.238477
0.238796
0.239221
0.239753
0.240392
0.241139
0.241992
0.242951
0.244016
0.245189
0.246467
0.247851
0.249338
0.25093
0.252626
0.254424
0.256323
0.278443
0.275861
0.27339
0.27102
0.268749
0.266578
0.26451
0.262546
0.260686
0.258934
0.257288
0.255751
0.254322
0.253001
0.251788
0.250685
0.249693
0.248811
0.24804
0.247379
0.246828
0.246387
0.246056
0.245835
0.245725
0.245724
0.245834
0.246054
0.246383
0.246824
0.247374
0.248035
0.248807
0.249688
0.25068
0.251782
0.252995
0.254317
0.255748
0.257287
0.258933
0.260687
0.262547
0.264511
0.28752
0.284848
0.282291
0.279839
0.277488
0.275242
0.273102
0.27107
0.269146
0.267332
0.26563
0.264039
0.26256
0.261193
0.25606
0.255376
0.254805
0.254349
0.254007
0.253778
0.253664
0.253663
0.253777
0.254004
0.254345
0.254801
0.255371
0.256054
0.256853
0.257765
0.258792
0.259932
0.261187
0.262555
0.264036
0.265628
0.267332
0.269147
0.271071
0.273104
0.267311
0.268492
0.269791
0.271208
0.272741
0.274389
0.276153
0.278032
0.280025
0.282129
0.287374
0.289438
0.291617
0.0776076
0.0791178
0.0806633
0.0822454
0.0838654
0.0855253
0.0872267
0.0889714
0.090761
0.0925971
0.0944813
0.0964152
0.0984006
0.100439
0.102533
0.104683
0.106893
0.109164
0.111498
0.113899
0.116369
0.118911
0.121528
0.124223
0.127
0.129862
0.132813
0.135857
0.138999
0.142243
0.145593
0.149056
0.152637
0.156341
0.160175
0.164144
0.168257
0.172521
0.176943
0.181532
0.186297
0.191248
0.196396
0.20175
0.207323
0.213129
0.219179
0.22549
0.232076
0.238956
0.246147
0.253668
0.261542
0.269792
0.278442
0.287519
0.0784394
0.0799723
0.0815415
0.0831482
0.0847938
0.0864798
0.0882081
0.0899806
0.0917995
0.0936664
0.0955829
0.0975505
0.099571
0.101646
0.103778
0.105968
0.108219
0.110533
0.112912
0.11536
0.117879
0.120473
0.123143
0.125894
0.12873
0.131654
0.13467
0.137783
0.140997
0.144316
0.147746
0.151293
0.154962
0.158759
0.162691
0.166764
0.170986
0.175366
0.17991
0.184629
0.189532
0.194628
0.19993
0.205449
0.211196
0.217187
0.223435
0.229956
0.236767
0.243886
0.251333
0.259128
0.267295
0.275859
0.284846
0.0857581
0.0874715
0.0892284
0.0910311
0.0928813
0.0947808
0.0967312
0.098734
0.100791
0.102904
0.105076
0.107307
0.109601
0.111961
0.114387
0.116885
0.119455
0.122102
0.12483
0.12764
0.130538
0.133527
0.136612
0.139797
0.143086
0.146486
0.15
0.153635
0.157398
0.161293
0.165329
0.169512
0.173851
0.178353
0.183027
0.187884
0.192932
0.198184
0.20365
0.209343
0.215277
0.221465
0.227924
0.234669
0.24172
0.249095
0.256816
0.264905
0.273386
0.282286
0.0850624
0.0867618
0.0885041
0.0902914
0.0921257
0.0940089
0.0959426
0.0979285
0.0999683
0.102064
0.104217
0.10643
0.108705
0.111044
0.113451
0.115927
0.118476
0.121101
0.123805
0.126592
0.129465
0.132428
0.135486
0.138643
0.141904
0.145274
0.148757
0.15236
0.156089
0.15995
0.163949
0.168095
0.172394
0.176856
0.181488
0.1863
0.191303
0.196506
0.201922
0.207563
0.213442
0.219574
0.225973
0.232656
0.239642
0.246949
0.254598
0.262612
0.271014
0.279833
0.084394
0.0860802
0.0878085
0.0895811
0.0914002
0.0932678
0.0951855
0.0971551
0.0991782
0.101257
0.103392
0.105587
0.107844
0.110165
0.112552
0.115008
0.117536
0.120139
0.122821
0.125585
0.128434
0.131373
0.134406
0.137536
0.14077
0.144111
0.147564
0.151137
0.154834
0.158661
0.162626
0.166736
0.170998
0.175421
0.180013
0.184783
0.189741
0.194899
0.200267
0.205858
0.211685
0.217762
0.224104
0.230728
0.237652
0.244893
0.252474
0.260416
0.268744
0.277483
0.085427
0.0871422
0.0889011
0.0907058
0.0925584
0.0944608
0.0964147
0.0984219
0.100484
0.102603
0.104781
0.10702
0.109322
0.111691
0.114128
0.116636
0.119219
0.12188
0.124621
0.127448
0.130363
0.133372
0.136477
0.139684
0.142998
0.146423
0.149966
0.153633
0.157429
0.161361
0.165436
0.169663
0.174048
0.178602
0.183331
0.188248
0.193362
0.198685
0.204228
0.210005
0.21603
0.222318
0.228885
0.235749
0.242928
0.250444
0.258318
0.266573
0.275237
0.0848033
0.0865061
0.0882519
0.0900429
0.0918813
0.0937691
0.0957081
0.0976999
0.0997464
0.101849
0.104011
0.106233
0.108518
0.110869
0.113288
0.115777
0.118341
0.120981
0.123702
0.126507
0.1294
0.132385
0.135466
0.138648
0.141936
0.145335
0.14885
0.152488
0.156253
0.160154
0.164197
0.16839
0.17274
0.177256
0.181948
0.186825
0.191897
0.197176
0.202674
0.208404
0.214379
0.220615
0.227128
0.233935
0.241056
0.248509
0.256317
0.264505
0.273097
0.0842095
0.0859005
0.0876341
0.0894122
0.0912372
0.0931111
0.0950359
0.0970132
0.0990448
0.101133
0.103279
0.105485
0.107754
0.110087
0.112489
0.11496
0.117505
0.120126
0.122827
0.125612
0.128484
0.131447
0.134505
0.137664
0.140927
0.1443
0.147789
0.151399
0.155136
0.159008
0.16302
0.16718
0.171497
0.175978
0.180634
0.185473
0.190505
0.195743
0.201198
0.206883
0.212811
0.218998
0.22546
0.232213
0.239277
0.246671
0.254418
0.26254
0.271064
0.0836463
0.0853262
0.0870482
0.0888143
0.0906266
0.0924873
0.0943986
0.0963621
0.0983796
0.100453
0.102584
0.104775
0.107029
0.109346
0.111731
0.114186
0.116713
0.119316
0.121999
0.124764
0.127616
0.130558
0.133595
0.136731
0.139971
0.143321
0.146785
0.150369
0.154079
0.157922
0.161905
0.166035
0.17032
0.174769
0.17939
0.184193
0.189188
0.194387
0.199802
0.205444
0.211328
0.217468
0.223881
0.230584
0.237594
0.244933
0.252621
0.260682
0.269141
0.0831142
0.0847836
0.0864949
0.0882497
0.0900501
0.0918986
0.0937971
0.0957476
0.0977518
0.0998116
0.101929
0.104106
0.106344
0.108647
0.111016
0.113455
0.115966
0.118552
0.121217
0.123964
0.126797
0.129719
0.132736
0.135851
0.13907
0.142396
0.145837
0.149396
0.153081
0.156898
0.160854
0.164955
0.169211
0.173629
0.178217
0.182987
0.187947
0.193109
0.198485
0.204088
0.20993
0.216026
0.222393
0.229048
0.236008
0.243293
0.250926
0.258929
0.267327
0.0826138
0.0842734
0.0859746
0.0877189
0.0895084
0.0913452
0.0932318
0.09517
0.0971616
0.0992086
0.101313
0.103476
0.105701
0.107989
0.110344
0.112768
0.115263
0.117833
0.120482
0.123212
0.126027
0.128931
0.131929
0.135024
0.138222
0.141528
0.144946
0.148483
0.152144
0.155936
0.159866
0.163941
0.168169
0.172557
0.177116
0.181854
0.186781
0.191909
0.197249
0.202814
0.208616
0.214672
0.220996
0.227605
0.234518
0.241754
0.249335
0.257283
0.265624
0.0821452
0.0837956
0.0854874
0.087222
0.0890013
0.0908274
0.0927028
0.0946295
0.0966094
0.0986444
0.100736
0.102887
0.105099
0.107374
0.109715
0.112125
0.114606
0.117161
0.119794
0.122508
0.125307
0.128194
0.131174
0.134251
0.13743
0.140716
0.144114
0.147629
0.151268
0.155037
0.158943
0.162993
0.167195
0.171556
0.176086
0.180794
0.185691
0.190787
0.196093
0.201623
0.207389
0.213406
0.21969
0.226257
0.233126
0.240316
0.247848
0.255745
0.264033
0.081709
0.0833509
0.0850338
0.0867594
0.0885292
0.0903455
0.0922106
0.0941267
0.0960957
0.0981194
0.1002
0.102339
0.104539
0.106802
0.109131
0.111527
0.113995
0.116536
0.119155
0.121854
0.124638
0.127509
0.130472
0.133533
0.136694
0.139961
0.14334
0.146836
0.150454
0.154202
0.158085
0.162112
0.166289
0.170625
0.175129
0.17981
0.184678
0.189744
0.195019
0.200516
0.206248
0.21223
0.218476
0.225004
0.231832
0.238979
0.246466
0.254316
0.262554
0.0813054
0.0829395
0.0846144
0.0863316
0.0880928
0.0899001