/*--------------------------------*- C++ -*----------------------------------*\
  =========                 |
  \\      /  F ield         | OpenFOAM: The Open Source CFD Toolbox
   \\    /   O peration     | Website:  https://openfoam.org
    \\  /    A nd           | Version:  7
     \\/     M anipulation  |
\*---------------------------------------------------------------------------*/
FoamFile
{
    version     2.0;
    format      ascii;
    class       volVectorField;
    location    "232000";
    object      U;
}
// * * * * * * * * * * * * * * * * * * * * * * * * * * * * * * * * * * * * * //

dimensions      [0 1 -1 0 0 0 0];

internalField   nonuniform List<vector> 
4838
(
(2.05967e-18 -8.46037e-19 -0.0158262)
(2.09941e-18 -1.03769e-18 -0.0158324)
(2.17629e-18 -9.94671e-19 -0.0158381)
(2.30951e-18 -8.5274e-19 -0.0158434)
(2.34172e-18 -1.1137e-18 -0.0158481)
(1.9472e-18 -1.44663e-18 -0.0158524)
(1.43045e-18 -1.69189e-18 -0.0158561)
(1.25874e-18 -1.59602e-18 -0.0158595)
(1.33454e-18 -1.28113e-18 -0.0158624)
(1.15326e-18 -1.00599e-18 -0.0158649)
(1.16839e-18 -7.90357e-19 -0.015867)
(1.47842e-18 -9.9377e-19 -0.0158688)
(1.39035e-18 -1.26312e-18 -0.0158702)
(1.33734e-18 -1.30966e-18 -0.0158715)
(2.13244e-18 -1.2624e-18 -0.0158724)
(3.13506e-18 -1.97322e-18 -0.0158732)
(3.02456e-18 -2.97813e-18 -0.0158738)
(2.31652e-18 -3.91878e-18 -0.0158743)
(1.89222e-18 -4.43736e-18 -0.0158747)
(1.37945e-18 -4.70097e-18 -0.015875)
(5.38754e-19 -4.81208e-18 -0.0158752)
(1.93775e-19 -4.79652e-18 -0.0158753)
(1.34751e-19 -4.80784e-18 -0.0158755)
(-3.01736e-19 -4.87797e-18 -0.0158755)
(-8.14887e-19 -4.9461e-18 -0.0158756)
(-1.50947e-18 -4.83301e-18 -0.0158756)
(-2.16255e-18 -4.62927e-18 -0.0158755)
(-2.63821e-18 -4.20734e-18 -0.0158755)
(-3.12241e-18 -3.77429e-18 -0.0158753)
(-3.26908e-18 -3.33148e-18 -0.0158752)
(-3.49515e-18 -2.813e-18 -0.015875)
(-4.10933e-18 -1.95078e-18 -0.0158747)
(-4.20925e-18 -9.06377e-19 -0.0158743)
(-3.91168e-18 8.78143e-20 -0.0158738)
(-3.75876e-18 6.92851e-19 -0.0158732)
(-3.39095e-18 1.28966e-18 -0.0158724)
(-2.66269e-18 1.38634e-18 -0.0158715)
(-2.04805e-18 1.29665e-18 -0.0158702)
(-2.06164e-18 1.1084e-18 -0.0158688)
(-2.32243e-18 9.34023e-19 -0.015867)
(-2.4263e-18 1.00212e-18 -0.0158649)
(-2.5241e-18 1.32287e-18 -0.0158624)
(-2.24825e-18 1.60706e-18 -0.0158595)
(-1.71335e-18 1.32099e-18 -0.0158561)
(-1.97138e-18 1.29466e-18 -0.0158524)
(-2.2603e-18 1.50336e-18 -0.0158481)
(-1.81605e-18 1.47877e-18 -0.0158434)
(-1.34912e-18 1.15628e-18 -0.0158381)
(-1.21402e-18 9.12991e-19 -0.0158324)
(-1.16965e-18 9.23488e-19 -0.0158262)
(1.42874e-18 -9.20371e-19 -0.0158153)
(1.68052e-18 -1.22827e-18 -0.0158217)
(1.93514e-18 -1.28839e-18 -0.0158278)
(2.2032e-18 -1.3267e-18 -0.0158335)
(2.36355e-18 -1.50093e-18 -0.0158388)
(2.12227e-18 -1.8216e-18 -0.0158436)
(1.64512e-18 -1.89906e-18 -0.015848)
(1.39964e-18 -1.64143e-18 -0.0158519)
(1.29837e-18 -1.40457e-18 -0.0158554)
(1.16008e-18 -1.44258e-18 -0.0158585)
(1.19776e-18 -1.22932e-18 -0.0158612)
(1.43719e-18 -1.11229e-18 -0.0158635)
(1.37547e-18 -1.12558e-18 -0.0158656)
(1.27633e-18 -1.11063e-18 -0.0158673)
(1.68353e-18 -1.09832e-18 -0.0158687)
(2.3306e-18 -1.79318e-18 -0.0158699)
(2.07765e-18 -2.97969e-18 -0.0158709)
(1.51466e-18 -3.80111e-18 -0.0158716)
(1.63184e-18 -4.15074e-18 -0.0158723)
(1.67836e-18 -4.38352e-18 -0.0158728)
(1.11834e-18 -4.41646e-18 -0.0158732)
(5.24922e-19 -4.13413e-18 -0.0158734)
(-9.01784e-21 -4.26093e-18 -0.0158736)
(-7.73629e-19 -4.57954e-18 -0.0158738)
(-1.17234e-18 -4.73631e-18 -0.0158738)
(-1.53476e-18 -4.70039e-18 -0.0158738)
(-1.83255e-18 -4.24138e-18 -0.0158738)
(-2.21533e-18 -3.75333e-18 -0.0158736)
(-2.94663e-18 -3.20476e-18 -0.0158734)
(-3.2421e-18 -2.68078e-18 -0.0158732)
(-3.60784e-18 -2.31055e-18 -0.0158728)
(-4.33792e-18 -1.64802e-18 -0.0158723)
(-4.64196e-18 -7.0079e-19 -0.0158716)
(-4.28898e-18 -2.56457e-19 -0.0158709)
(-3.60583e-18 1.43125e-19 -0.0158699)
(-3.04839e-18 5.58187e-19 -0.0158687)
(-2.69155e-18 7.64475e-19 -0.0158673)
(-2.32621e-18 4.28088e-19 -0.0158656)
(-2.1712e-18 1.98489e-19 -0.0158635)
(-2.15067e-18 1.65043e-19 -0.0158612)
(-2.2893e-18 4.1126e-19 -0.0158585)
(-2.4808e-18 6.96293e-19 -0.0158554)
(-2.26177e-18 1.17056e-18 -0.0158519)
(-2.01337e-18 1.11709e-18 -0.015848)
(-2.18169e-18 1.07278e-18 -0.0158436)
(-2.11128e-18 1.27414e-18 -0.0158388)
(-1.57717e-18 1.24921e-18 -0.0158335)
(-1.17934e-18 1.02995e-18 -0.0158278)
(-9.34998e-19 8.84998e-19 -0.0158217)
(-9.0775e-19 7.78568e-19 -0.0158153)
(6.44443e-19 -8.81071e-19 -0.0158025)
(1.18092e-18 -8.09023e-19 -0.0158096)
(1.55164e-18 -8.03097e-19 -0.0158162)
(1.74065e-18 -1.04106e-18 -0.0158224)
(1.89941e-18 -1.27048e-18 -0.0158281)
(1.97877e-18 -1.79709e-18 -0.0158335)
(1.90692e-18 -1.92685e-18 -0.0158384)
(1.7541e-18 -1.91864e-18 -0.0158429)
(1.42207e-18 -1.99776e-18 -0.015847)
(1.09335e-18 -2.05519e-18 -0.0158506)
(1.15926e-18 -1.7064e-18 -0.0158539)
(1.51146e-18 -1.31795e-18 -0.0158568)
(1.45179e-18 -1.31407e-18 -0.0158593)
(1.13225e-18 -1.30282e-18 -0.0158615)
(1.2146e-18 -1.31489e-18 -0.0158634)
(1.70886e-18 -1.62849e-18 -0.015865)
(1.70825e-18 -2.25409e-18 -0.0158664)
(1.30617e-18 -2.48304e-18 -0.0158676)
(1.4948e-18 -2.62338e-18 -0.0158685)
(1.67685e-18 -2.93505e-18 -0.0158693)
(1.24973e-18 -3.36937e-18 -0.0158698)
(5.912e-19 -3.59063e-18 -0.0158703)
(-3.3857e-19 -3.82008e-18 -0.0158706)
(-1.18944e-18 -3.80711e-18 -0.0158708)
(-1.3231e-18 -3.59614e-18 -0.015871)
(-1.22095e-18 -3.7497e-18 -0.015871)
(-1.42117e-18 -3.60116e-18 -0.0158708)
(-2.15698e-18 -3.5945e-18 -0.0158706)
(-2.97689e-18 -3.18077e-18 -0.0158703)
(-3.27457e-18 -2.67052e-18 -0.0158698)
(-3.68817e-18 -2.33017e-18 -0.0158693)
(-4.24296e-18 -1.70006e-18 -0.0158685)
(-4.3816e-18 -6.38201e-19 -0.0158676)
(-4.12142e-18 1.20593e-19 -0.0158664)
(-3.59978e-18 5.84493e-19 -0.015865)
(-3.28901e-18 7.01338e-19 -0.0158634)
(-3.09652e-18 7.28343e-19 -0.0158615)
(-2.63754e-18 4.67326e-19 -0.0158593)
(-2.31131e-18 1.72393e-19 -0.0158568)
(-2.29328e-18 8.76835e-20 -0.0158539)
(-2.28826e-18 1.18747e-19 -0.0158506)
(-1.9937e-18 2.88767e-19 -0.015847)
(-1.69727e-18 6.1303e-19 -0.0158429)
(-1.84406e-18 7.87611e-19 -0.0158384)
(-1.96657e-18 1.02518e-18 -0.0158335)
(-1.69531e-18 1.2578e-18 -0.0158281)
(-1.22364e-18 1.19219e-18 -0.0158224)
(-8.96111e-19 1.00575e-18 -0.0158162)
(-8.50754e-19 1.06628e-18 -0.0158096)
(-1.17648e-18 9.96798e-19 -0.0158025)
(6.56179e-19 -2.74098e-19 -0.0157883)
(8.08533e-19 -1.80015e-19 -0.0157961)
(1.08116e-18 -8.4777e-20 -0.0158033)
(1.34956e-18 -2.1202e-19 -0.01581)
(1.30682e-18 -5.57897e-19 -0.0158163)
(1.27008e-18 -1.15364e-18 -0.0158222)
(1.40609e-18 -1.54174e-18 -0.0158276)
(1.33887e-18 -1.98604e-18 -0.0158326)
(1.23327e-18 -2.28935e-18 -0.0158372)
(1.30308e-18 -2.11481e-18 -0.0158414)
(1.56565e-18 -1.61301e-18 -0.0158451)
(1.64617e-18 -1.48278e-18 -0.0158485)
(1.49627e-18 -1.79522e-18 -0.0158515)
(1.26915e-18 -1.85922e-18 -0.0158542)
(1.16485e-18 -1.57505e-18 -0.0158566)
(1.49102e-18 -1.43352e-18 -0.0158586)
(1.52666e-18 -1.60305e-18 -0.0158604)
(1.18213e-18 -1.7277e-18 -0.0158619)
(1.43473e-18 -1.75948e-18 -0.0158631)
(1.68475e-18 -2.16102e-18 -0.0158641)
(1.15984e-18 -2.68021e-18 -0.015865)
(4.96893e-19 -3.20787e-18 -0.0158656)
(-8.11668e-20 -3.5333e-18 -0.0158661)
(-8.8769e-19 -3.10637e-18 -0.0158664)
(-1.76225e-18 -2.81962e-18 -0.0158665)
(-2.11811e-18 -3.04338e-18 -0.0158665)
(-1.96983e-18 -3.44088e-18 -0.0158664)
(-2.06745e-18 -3.63114e-18 -0.0158661)
(-2.50972e-18 -3.20399e-18 -0.0158656)
(-3.02435e-18 -2.7314e-18 -0.015865)
(-3.58912e-18 -2.43482e-18 -0.0158641)
(-3.86413e-18 -1.76898e-18 -0.0158631)
(-4.02099e-18 -8.43064e-19 -0.0158619)
(-4.00646e-18 -4.60299e-20 -0.0158604)
(-3.62966e-18 5.25655e-19 -0.0158586)
(-3.40932e-18 7.80381e-19 -0.0158566)
(-3.18941e-18 1.00262e-18 -0.0158542)
(-2.83331e-18 1.12986e-18 -0.0158515)
(-2.47284e-18 1.06531e-18 -0.0158485)
(-2.16323e-18 1.01813e-18 -0.0158451)
(-1.88006e-18 1.14967e-18 -0.0158414)
(-1.61487e-18 1.29654e-18 -0.0158372)
(-1.66936e-18 1.08936e-18 -0.0158326)
(-1.75435e-18 9.39405e-19 -0.0158276)
(-1.56505e-18 1.07989e-18 -0.0158222)
(-1.36797e-18 1.11786e-18 -0.0158163)
(-1.08864e-18 9.10493e-19 -0.01581)
(-7.56471e-19 7.20563e-19 -0.0158033)
(-8.36071e-19 7.54994e-19 -0.0157961)
(-1.05664e-18 7.56432e-19 -0.0157883)
(6.6479e-19 2.87001e-20 -0.0157729)
(8.45901e-19 1.97079e-19 -0.0157813)
(9.55378e-19 2.58737e-19 -0.0157891)
(9.73177e-19 7.01933e-20 -0.0157964)
(8.74327e-19 -2.36062e-19 -0.0158032)
(6.9683e-19 -5.78508e-19 -0.0158096)
(7.32203e-19 -1.0181e-18 -0.0158155)
(7.51062e-19 -1.2556e-18 -0.015821)
(9.00185e-19 -1.29702e-18 -0.0158261)
(1.21979e-18 -1.19892e-18 -0.0158308)
(1.36761e-18 -1.15292e-18 -0.015835)
(1.18827e-18 -1.53302e-18 -0.0158389)
(1.05019e-18 -1.97563e-18 -0.0158423)
(1.35927e-18 -2.09389e-18 -0.0158454)
(1.57405e-18 -1.6111e-18 -0.0158482)
(1.75672e-18 -1.35886e-18 -0.0158506)
(1.71203e-18 -1.53905e-18 -0.0158528)
(1.32313e-18 -1.6434e-18 -0.0158546)
(1.3501e-18 -1.63166e-18 -0.0158561)
(1.48508e-18 -2.22229e-18 -0.0158574)
(8.83336e-19 -2.8704e-18 -0.0158585)
(-1.40239e-20 -3.43678e-18 -0.0158593)
(-2.46151e-19 -3.93847e-18 -0.0158599)
(-7.94074e-19 -3.99519e-18 -0.0158603)
(-1.90718e-18 -3.61469e-18 -0.0158605)
(-2.42305e-18 -3.12705e-18 -0.0158605)
(-2.24469e-18 -2.89013e-18 -0.0158603)
(-2.00008e-18 -2.7812e-18 -0.0158599)
(-2.36274e-18 -2.50235e-18 -0.0158593)
(-3.12575e-18 -2.26561e-18 -0.0158585)
(-3.5171e-18 -1.90324e-18 -0.0158574)
(-3.44325e-18 -1.37538e-18 -0.0158561)
(-3.50477e-18 -9.1422e-19 -0.0158546)
(-3.45588e-18 -2.06947e-19 -0.0158528)
(-3.26107e-18 5.26353e-19 -0.0158506)
(-3.25551e-18 1.18492e-18 -0.0158482)
(-3.00533e-18 1.7603e-18 -0.0158454)
(-2.52876e-18 1.95305e-18 -0.0158423)
(-2.19221e-18 1.9306e-18 -0.0158389)
(-1.90992e-18 1.77025e-18 -0.015835)
(-1.64443e-18 1.78716e-18 -0.0158308)
(-1.83285e-18 1.73845e-18 -0.0158261)
(-2.03932e-18 1.54276e-18 -0.015821)
(-1.69878e-18 1.43643e-18 -0.0158155)
(-1.44741e-18 1.53345e-18 -0.0158096)
(-1.4159e-18 1.49397e-18 -0.0158032)
(-9.61264e-19 1.21855e-18 -0.0157964)
(-5.49599e-19 9.65465e-19 -0.0157891)
(-7.11468e-19 7.68142e-19 -0.0157813)
(-8.39022e-19 7.40091e-19 -0.0157729)
(4.7568e-19 1.20988e-19 -0.0157563)
(6.6632e-19 2.63968e-19 -0.0157653)
(8.12838e-19 6.76407e-20 -0.0157737)
(9.06999e-19 -1.01169e-19 -0.0157815)
(7.62186e-19 -3.25383e-19 -0.0157889)
(3.73906e-19 -5.87151e-19 -0.0157958)
(4.25497e-19 -8.11015e-19 -0.0158022)
(5.72946e-19 -6.82141e-19 -0.0158082)
(5.63147e-19 -4.66334e-19 -0.0158138)
(8.22752e-19 -5.0546e-19 -0.0158189)
(9.80462e-19 -6.48864e-19 -0.0158236)
(6.92187e-19 -1.04668e-18 -0.0158279)
(5.45654e-19 -1.39606e-18 -0.0158318)
(1.24761e-18 -1.23882e-18 -0.0158353)
(1.76128e-18 -9.37973e-19 -0.0158384)
(1.64148e-18 -1.00993e-18 -0.0158412)
(1.55367e-18 -1.64144e-18 -0.0158437)
(1.39272e-18 -1.97782e-18 -0.0158458)
(1.14858e-18 -2.24014e-18 -0.0158476)
(9.47082e-19 -2.73185e-18 -0.0158491)
(3.75269e-19 -3.25888e-18 -0.0158504)
(-6.05469e-19 -3.52445e-18 -0.0158514)
(-8.74953e-19 -3.7407e-18 -0.0158521)
(-7.82459e-19 -3.94662e-18 -0.0158526)
(-1.34026e-18 -3.55921e-18 -0.0158528)
(-1.9241e-18 -2.89059e-18 -0.0158528)
(-1.83812e-18 -2.28443e-18 -0.0158526)
(-1.68034e-18 -2.02897e-18 -0.0158521)
(-2.2204e-18 -1.93871e-18 -0.0158514)
(-2.94815e-18 -1.43354e-18 -0.0158504)
(-3.24538e-18 -7.18654e-19 -0.0158491)
(-3.40513e-18 -1.83797e-19 -0.0158476)
(-3.43165e-18 2.83665e-20 -0.0158458)
(-3.02872e-18 4.0004e-19 -0.0158437)
(-2.62992e-18 7.56599e-19 -0.0158412)
(-2.50999e-18 1.43607e-18 -0.0158384)
(-2.56018e-18 2.13169e-18 -0.0158353)
(-2.66691e-18 2.48684e-18 -0.0158318)
(-2.59868e-18 2.19674e-18 -0.0158279)
(-2.15123e-18 1.75449e-18 -0.0158236)
(-1.95237e-18 1.35955e-18 -0.0158189)
(-2.15363e-18 1.23183e-18 -0.0158138)
(-1.94491e-18 1.28859e-18 -0.0158082)
(-1.42643e-18 1.27594e-18 -0.0158022)
(-1.31139e-18 1.26238e-18 -0.0157958)
(-1.20794e-18 1.44184e-18 -0.0157889)
(-7.05004e-19 1.47304e-18 -0.0157815)
(-6.03814e-19 1.36754e-18 -0.0157737)
(-9.04005e-19 1.11139e-18 -0.0157653)
(-9.69751e-19 9.22095e-19 -0.0157563)
(3.18325e-19 6.37428e-19 -0.0157386)
(3.96519e-19 6.419e-19 -0.0157482)
(3.88948e-19 3.13674e-19 -0.0157571)
(5.57462e-19 1.10319e-19 -0.0157655)
(6.49743e-19 -3.30408e-19 -0.0157734)
(2.38407e-19 -6.56785e-19 -0.0157808)
(2.03001e-19 -6.24292e-19 -0.0157878)
(6.39932e-19 -5.20698e-19 -0.0157942)
(5.99954e-19 -3.96782e-19 -0.0158002)
(6.00857e-19 -3.48848e-19 -0.0158058)
(6.96957e-19 -3.70675e-19 -0.0158109)
(3.01798e-19 -5.01557e-19 -0.0158156)
(2.41389e-19 -5.23107e-19 -0.0158199)
(1.14099e-18 -1.09454e-19 -0.0158238)
(1.66864e-18 -1.33791e-19 -0.0158273)
(1.15944e-18 -5.8238e-19 -0.0158304)
(8.67793e-19 -1.45287e-18 -0.0158332)
(8.93124e-19 -2.02711e-18 -0.0158356)
(8.45148e-19 -2.56156e-18 -0.0158376)
(8.0775e-19 -2.93195e-18 -0.0158394)
(3.3648e-19 -3.25476e-18 -0.0158408)
(-6.59277e-19 -3.11906e-18 -0.015842)
(-1.00273e-18 -2.6178e-18 -0.0158428)
(-8.61524e-19 -2.33125e-18 -0.0158434)
(-1.21784e-18 -2.42428e-18 -0.0158437)
(-1.57489e-18 -2.2166e-18 -0.0158437)
(-1.59833e-18 -1.68658e-18 -0.0158434)
(-1.74318e-18 -1.51616e-18 -0.0158428)
(-1.99529e-18 -1.46003e-18 -0.015842)
(-2.29459e-18 -7.84661e-19 -0.0158408)
(-2.73301e-18 -3.07379e-20 -0.0158394)
(-3.18806e-18 4.60592e-19 -0.0158376)
(-3.2926e-18 7.4976e-19 -0.0158356)
(-2.90367e-18 9.93217e-19 -0.0158332)
(-2.40863e-18 1.00932e-18 -0.0158304)
(-2.21752e-18 1.29329e-18 -0.0158273)
(-2.44603e-18 1.50418e-18 -0.0158238)
(-2.90455e-18 1.85152e-18 -0.0158199)
(-3.03839e-18 1.91566e-18 -0.0158156)
(-2.64449e-18 1.92784e-18 -0.0158109)
(-2.34385e-18 1.38429e-18 -0.0158058)
(-2.08344e-18 1.16473e-18 -0.0158002)
(-1.73669e-18 1.21025e-18 -0.0157942)
(-1.41484e-18 1.05267e-18 -0.0157878)
(-1.20822e-18 7.77572e-19 -0.0157808)
(-8.16387e-19 9.25024e-19 -0.0157734)
(-4.86037e-19 1.11886e-18 -0.0157655)
(-7.59836e-19 1.22878e-18 -0.0157571)
(-1.11085e-18 1.12695e-18 -0.0157482)
(-1.04601e-18 7.59803e-19 -0.0157386)
(1.33776e-19 1.09603e-18 -0.0157199)
(8.51014e-20 9.94857e-19 -0.01573)
(5.30116e-20 5.96497e-19 -0.0157395)
(1.0853e-20 2.24487e-19 -0.0157484)
(1.25532e-19 -2.57031e-19 -0.0157568)
(7.87238e-20 -2.63536e-19 -0.0157647)
(-6.77561e-20 -1.28913e-19 -0.0157721)
(2.08737e-19 -1.72528e-19 -0.015779)
(4.91631e-19 -4.12542e-19 -0.0157855)
(6.57321e-19 -4.22929e-19 -0.0157915)
(8.58315e-19 -5.00844e-19 -0.015797)
(4.71323e-19 -3.63548e-19 -0.0158021)
(2.59882e-19 9.03839e-20 -0.0158068)
(9.92655e-19 3.48512e-19 -0.015811)
(1.38687e-18 -2.04487e-19 -0.0158148)
(5.92895e-19 -6.99693e-19 -0.0158183)
(9.6903e-20 -1.09522e-18 -0.0158213)
(1.89808e-19 -1.44654e-18 -0.015824)
(1.81117e-19 -1.82728e-18 -0.0158263)
(2.8796e-19 -2.18938e-18 -0.0158283)
(2.66586e-19 -2.56294e-18 -0.0158299)
(-1.16955e-19 -2.39313e-18 -0.0158312)
(-3.66781e-19 -1.88222e-18 -0.0158321)
(-8.37612e-19 -1.53761e-18 -0.0158328)
(-1.55426e-18 -1.62571e-18 -0.0158331)
(-1.50341e-18 -1.60878e-18 -0.0158331)
(-1.29616e-18 -1.199e-18 -0.0158328)
(-1.53264e-18 -9.48202e-19 -0.0158321)
(-1.61153e-18 -6.97802e-19 -0.0158312)
(-1.80322e-18 -2.10447e-19 -0.0158299)
(-2.50917e-18 2.37524e-19 -0.0158283)
(-3.24032e-18 3.97063e-19 -0.0158263)
(-3.32025e-18 7.31868e-19 -0.015824)
(-2.89366e-18 1.09869e-18 -0.0158213)
(-2.40321e-18 1.16543e-18 -0.0158183)
(-2.37412e-18 1.12834e-18 -0.0158148)
(-2.73207e-18 1.07483e-18 -0.015811)
(-3.01579e-18 1.33626e-18 -0.0158068)
(-2.84985e-18 1.70263e-18 -0.0158021)
(-2.56098e-18 2.0544e-18 -0.015797)
(-2.47578e-18 1.89838e-18 -0.0157915)
(-2.00149e-18 1.84399e-18 -0.0157855)
(-1.60838e-18 1.83295e-18 -0.015779)
(-1.39283e-18 1.52824e-18 -0.0157721)
(-9.89917e-19 1.00603e-18 -0.0157647)
(-4.38913e-19 6.51428e-19 -0.0157568)
(-3.82374e-19 5.57988e-19 -0.0157484)
(-9.62458e-19 8.31449e-19 -0.0157395)
(-1.42855e-18 9.75901e-19 -0.01573)
(-1.15346e-18 8.10349e-19 -0.0157199)
(3.12419e-19 7.68129e-19 -0.0157002)
(-8.95199e-20 5.1967e-19 -0.0157108)
(-2.75143e-19 -7.82034e-21 -0.0157208)
(-2.62221e-19 -2.5022e-19 -0.0157302)
(5.90811e-22 -1.30753e-19 -0.0157391)
(1.21593e-19 -1.40656e-19 -0.0157475)
(-7.98335e-20 -4.51501e-19 -0.0157553)
(-1.62652e-19 -3.11248e-19 -0.0157627)
(-3.9175e-20 -4.64157e-19 -0.0157696)
(2.53106e-19 -7.11312e-19 -0.015776)
(7.94457e-19 -8.86059e-19 -0.0157819)
(9.6092e-19 -6.14552e-19 -0.0157874)
(5.29666e-19 -6.8858e-20 -0.0157924)
(4.94517e-19 -4.97217e-20 -0.015797)
(9.55821e-19 -5.46933e-19 -0.0158012)
(6.72309e-19 -7.04172e-19 -0.0158049)
(4.21208e-20 -5.31891e-19 -0.0158082)
(-7.43043e-20 -7.37969e-19 -0.0158112)
(-1.4117e-19 -7.73618e-19 -0.0158137)
(-1.36485e-19 -7.79966e-19 -0.0158158)
(-9.69338e-21 -1.07188e-18 -0.0158176)
(-1.86914e-19 -1.09772e-18 -0.015819)
(-3.42119e-19 -1.13424e-18 -0.0158201)
(-7.70705e-19 -1.09489e-18 -0.0158208)
(-1.56319e-18 -9.64966e-19 -0.0158211)
(-1.3707e-18 -8.57456e-19 -0.0158211)
(-1.0319e-18 -6.05019e-19 -0.0158208)
(-1.31469e-18 -3.41054e-19 -0.0158201)
(-1.3278e-18 -1.18271e-19 -0.015819)
(-1.62459e-18 -1.5382e-19 -0.0158176)
(-2.7334e-18 1.02103e-20 -0.0158158)
(-3.39866e-18 3.61414e-19 -0.0158137)
(-3.04572e-18 9.48151e-19 -0.0158112)
(-2.64153e-18 1.36328e-18 -0.0158082)
(-2.51908e-18 1.4939e-18 -0.0158049)
(-2.72379e-18 1.32976e-18 -0.0158012)
(-2.8341e-18 1.23236e-18 -0.015797)
(-2.74633e-18 1.42035e-18 -0.0157924)
(-2.5074e-18 1.82057e-18 -0.0157874)
(-2.50523e-18 1.99706e-18 -0.0157819)
(-2.31369e-18 2.03043e-18 -0.015776)
(-1.61928e-18 2.09204e-18 -0.0157696)
(-1.51829e-18 2.12702e-18 -0.0157627)
(-1.53014e-18 1.9983e-18 -0.0157553)
(-1.09212e-18 1.59807e-18 -0.0157475)
(-6.02948e-19 8.84452e-19 -0.0157391)
(-6.15185e-19 2.49658e-19 -0.0157302)
(-1.1892e-18 2.65481e-19 -0.0157208)
(-1.3844e-18 4.89676e-19 -0.0157108)
(-8.93673e-19 7.05947e-19 -0.0157002)
(5.31661e-19 1.88285e-19 -0.0156796)
(1.07334e-20 -3.30981e-19 -0.0156907)
(-3.70913e-19 -5.76886e-19 -0.0157011)
(-3.26058e-19 -3.99193e-19 -0.015711)
(-2.31315e-19 -1.85114e-19 -0.0157204)
(-2.78385e-19 -6.8086e-19 -0.0157292)
(-1.4113e-19 -1.02399e-18 -0.0157375)
(1.91055e-20 -7.07876e-19 -0.0157453)
(-2.45062e-19 -6.22279e-19 -0.0157526)
(-2.23153e-19 -5.96533e-19 -0.0157594)
(5.30362e-19 -3.77672e-19 -0.0157657)
(1.15458e-18 -1.08195e-19 -0.0157716)
(8.25084e-19 -4.74351e-20 -0.015777)
(4.18484e-19 -1.08522e-19 -0.0157819)
(7.59908e-19 -3.02243e-19 -0.0157863)
(7.4208e-19 -2.79358e-19 -0.0157903)
(-2.8773e-20 -9.00791e-20 -0.0157939)
(-2.59482e-19 -5.07335e-19 -0.0157971)
(-8.40223e-20 -5.15986e-19 -0.0157998)
(-2.21872e-19 -4.32207e-19 -0.0158022)
(-2.02296e-19 -4.8947e-19 -0.0158041)
(-3.07806e-19 -2.46359e-19 -0.0158056)
(-4.57685e-19 -1.20588e-19 -0.0158068)
(-7.96775e-19 -2.31048e-19 -0.0158075)
(-1.58424e-18 -1.23724e-19 -0.0158079)
(-1.31711e-18 4.11178e-20 -0.0158079)
(-8.23091e-19 6.92583e-20 -0.0158075)
(-1.10286e-18 2.22409e-19 -0.0158068)
(-1.50222e-18 3.26431e-19 -0.0158056)
(-2.01617e-18 -8.39991e-20 -0.0158041)
(-2.66057e-18 -5.84593e-20 -0.0158022)
(-2.87543e-18 8.25487e-19 -0.0157998)
(-2.64528e-18 1.41781e-18 -0.0157971)
(-2.59142e-18 1.63678e-18 -0.0157939)
(-2.7073e-18 1.68054e-18 -0.0157903)
(-2.94372e-18 1.72126e-18 -0.0157863)
(-2.83522e-18 1.81347e-18 -0.0157819)
(-2.51884e-18 1.90861e-18 -0.015777)
(-2.37302e-18 2.15785e-18 -0.0157716)
(-2.47481e-18 1.88716e-18 -0.0157657)
(-2.10164e-18 1.88048e-18 -0.0157594)
(-1.55711e-18 1.85172e-18 -0.0157526)
(-1.63538e-18 1.6903e-18 -0.0157453)
(-1.56248e-18 1.42085e-18 -0.0157375)
(-1.19382e-18 1.21501e-18 -0.0157292)
(-9.66196e-19 7.81715e-19 -0.0157204)
(-9.95903e-19 4.63017e-19 -0.015711)
(-1.23527e-18 3.40489e-19 -0.0157011)
(-9.82183e-19 4.50415e-19 -0.0156907)
(-5.09573e-19 4.3586e-19 -0.0156796)
(3.64661e-19 1.70151e-19 -0.0156581)
(5.0361e-20 -5.69095e-19 -0.0156696)
(-2.34657e-19 -5.41177e-19 -0.0156805)
(-2.89776e-19 -2.86778e-19 -0.0156908)
(-4.89876e-19 -7.56949e-20 -0.0157006)
(-7.83137e-19 -3.30854e-19 -0.0157099)
(-5.53234e-19 -3.21908e-19 -0.0157187)
(-3.10953e-20 -4.60059e-19 -0.0157269)
(-1.15064e-19 -3.64003e-19 -0.0157346)
(-2.20808e-19 6.34982e-20 -0.0157418)
(3.1547e-19 5.5937e-19 -0.0157485)
(8.94829e-19 6.91395e-19 -0.0157546)
(6.38623e-19 3.81703e-19 -0.0157604)
(1.70862e-19 6.42241e-20 -0.0157656)
(6.17944e-19 -1.49066e-19 -0.0157703)
(9.66723e-19 -3.34763e-19 -0.0157746)
(-1.3579e-19 -3.6379e-19 -0.0157785)
(-6.77246e-19 -7.46935e-19 -0.0157818)
(-2.79804e-19 -6.25863e-19 -0.0157848)
(-2.48704e-19 -6.25733e-19 -0.0157873)
(6.36764e-20 -4.88841e-19 -0.0157894)
(9.80211e-20 -2.01654e-19 -0.015791)
(-3.94752e-19 1.95323e-19 -0.0157923)
(-8.84409e-19 -1.07261e-19 -0.0157931)
(-1.54e-18 -1.09486e-19 -0.0157935)
(-1.31765e-18 2.99986e-19 -0.0157935)
(-8.56034e-19 4.09497e-19 -0.0157931)
(-1.1397e-18 3.69899e-19 -0.0157923)
(-1.77862e-18 1.29195e-19 -0.015791)
(-2.29312e-18 -2.0876e-19 -0.0157894)
(-2.34049e-18 -1.26479e-19 -0.0157873)
(-2.42463e-18 5.26846e-19 -0.0157848)
(-2.61341e-18 9.23094e-19 -0.0157818)
(-2.72669e-18 1.25315e-18 -0.0157785)
(-2.80128e-18 1.42831e-18 -0.0157746)
(-2.86876e-18 1.60189e-18 -0.0157703)
(-2.63094e-18 2.2058e-18 -0.0157656)
(-2.33752e-18 2.23814e-18 -0.0157604)
(-2.57205e-18 2.24411e-18 -0.0157546)
(-2.75591e-18 1.91878e-18 -0.0157485)
(-2.02848e-18 1.79135e-18 -0.0157418)
(-1.59698e-18 1.62727e-18 -0.0157346)
(-1.88562e-18 1.68845e-18 -0.0157269)
(-1.72457e-18 1.42185e-18 -0.0157187)
(-1.2625e-18 9.84368e-19 -0.0157099)
(-9.40073e-19 5.15696e-19 -0.0157006)
(-8.35224e-19 4.62032e-19 -0.0156908)
(-9.34653e-19 6.62416e-19 -0.0156805)
(-6.67099e-19 7.25899e-19 -0.0156696)
(-2.7737e-19 4.59514e-19 -0.0156581)
(2.64076e-20 1.5448e-19 -0.0156358)
(-2.47742e-19 -3.16273e-19 -0.0156477)
(-2.8266e-19 -2.24971e-19 -0.015659)
(-8.36824e-20 -3.03842e-19 -0.0156698)
(-2.19998e-19 -1.96717e-19 -0.01568)
(-7.25568e-19 -4.80066e-19 -0.0156897)
(-1.00041e-18 -3.76904e-19 -0.0156988)
(-4.5945e-19 -5.63876e-19 -0.0157074)
(-3.14325e-20 -2.74957e-19 -0.0157155)
(2.21039e-20 1.28647e-19 -0.0157231)
(3.62783e-19 6.36634e-19 -0.0157301)
(7.6657e-19 7.15643e-19 -0.0157367)
(4.3315e-19 3.44227e-19 -0.0157427)
(-1.36367e-19 -1.55545e-19 -0.0157482)
(1.11253e-19 -2.02577e-19 -0.0157532)
(7.19671e-19 -5.3761e-19 -0.0157578)
(-1.24414e-19 -8.71226e-19 -0.0157619)
(-6.8999e-19 -7.31672e-19 -0.0157655)
(-2.7575e-19 -1.93397e-19 -0.0157686)
(-3.16285e-19 -2.34603e-19 -0.0157713)
(3.5056e-20 -1.52228e-19 -0.0157735)
(3.2358e-19 -3.53841e-19 -0.0157753)
(-3.66561e-19 -1.43969e-19 -0.0157766)
(-1.16629e-18 -4.21326e-19 -0.0157775)
(-1.42324e-18 -5.42158e-19 -0.0157779)
(-9.59293e-19 -6.67736e-20 -0.0157779)
(-7.51819e-19 3.65046e-19 -0.0157775)
(-1.4511e-18 2.58547e-19 -0.0157766)
(-2.26375e-18 -1.51048e-20 -0.0157753)
(-2.49859e-18 -1.22705e-19 -0.0157735)
(-2.28217e-18 -3.52197e-19 -0.0157713)
(-2.35161e-18 -4.47301e-19 -0.0157686)
(-2.43878e-18 -7.80501e-20 -0.0157655)
(-2.53393e-18 4.68507e-19 -0.0157619)
(-2.74074e-18 9.41712e-19 -0.0157578)
(-2.54169e-18 9.00324e-19 -0.0157532)
(-2.32246e-18 1.6145e-18 -0.0157482)
(-2.61099e-18 1.77881e-18 -0.0157427)
(-3.00404e-18 1.5171e-18 -0.0157367)
(-2.79147e-18 1.54483e-18 -0.0157301)
(-1.94829e-18 1.41972e-18 -0.0157231)
(-1.64226e-18 1.1652e-18 -0.0157155)
(-1.74508e-18 1.85634e-18 -0.0157074)
(-1.59056e-18 1.96326e-18 -0.0156988)
(-1.2845e-18 1.39144e-18 -0.0156897)
(-8.95353e-19 8.86145e-19 -0.01568)
(-6.36288e-19 6.57192e-19 -0.0156698)
(-6.33877e-19 8.91478e-19 -0.015659)
(-4.08513e-19 9.47807e-19 -0.0156477)
(-1.86771e-19 7.44495e-19 -0.0156358)
(-1.08367e-19 1.18753e-19 -0.0156126)
(-3.37625e-19 7.17088e-20 -0.0156249)
(-6.30757e-19 -1.05382e-20 -0.0156366)
(-4.85283e-19 -2.2117e-19 -0.0156478)
(-3.61542e-19 -5.31102e-19 -0.0156584)
(-5.69748e-19 -1.15313e-18 -0.0156685)
(-8.4351e-19 -9.60711e-19 -0.015678)
(-5.59811e-19 -6.05967e-19 -0.015687)
(-4.03732e-21 -2.09649e-19 -0.0156955)
(1.9912e-19 -1.1257e-20 -0.0157034)
(5.1647e-19 1.91688e-19 -0.0157108)
(7.4851e-19 8.61084e-20 -0.0157176)
(2.85688e-19 -3.88746e-19 -0.015724)
(-2.18669e-19 -6.64533e-19 -0.0157298)
(-7.71527e-21 -3.20785e-19 -0.0157351)
(3.93559e-19 -2.73226e-19 -0.0157399)
(-1.37871e-19 -7.11505e-19 -0.0157442)
(-3.57065e-19 -3.27389e-19 -0.015748)
(-1.58806e-19 9.66306e-20 -0.0157513)
(-4.33188e-19 2.16778e-20 -0.0157542)
(-2.03769e-19 2.02973e-19 -0.0157565)
(1.39282e-19 -7.78035e-20 -0.0157584)
(-3.93071e-19 -3.38093e-19 -0.0157598)
(-1.3287e-18 -2.83203e-19 -0.0157607)
(-1.41215e-18 -1.33558e-19 -0.0157612)
(-5.97047e-19 1.30238e-20 -0.0157612)
(-5.85315e-19 2.55803e-19 -0.0157607)
(-1.62056e-18 1.95911e-19 -0.0157598)
(-2.3516e-18 1.93742e-19 -0.0157584)
(-2.73923e-18 5.5944e-19 -0.0157565)
(-2.74726e-18 2.13241e-19 -0.0157542)
(-2.41846e-18 -1.8383e-19 -0.0157513)
(-2.09964e-18 -1.0317e-19 -0.015748)
(-2.18955e-18 1.37585e-19 -0.0157442)
(-2.67209e-18 6.45928e-19 -0.0157399)
(-2.442e-18 6.60471e-19 -0.0157351)
(-2.1782e-18 1.04346e-18 -0.0157298)
(-2.86141e-18 1.27409e-18 -0.015724)
(-3.12721e-18 1.03203e-18 -0.0157176)
(-2.62973e-18 1.28591e-18 -0.0157108)
(-1.93098e-18 1.29327e-18 -0.0157034)
(-1.27524e-18 7.40292e-19 -0.0156955)
(-1.22501e-18 1.55742e-18 -0.015687)
(-1.66718e-18 1.92437e-18 -0.015678)
(-1.44449e-18 1.51013e-18 -0.0156685)
(-7.33203e-19 1.3038e-18 -0.0156584)
(-3.31459e-19 1.05985e-18 -0.0156478)
(-3.06875e-19 1.11142e-18 -0.0156366)
(-2.15807e-19 1.09009e-18 -0.0156249)
(-3.12433e-19 9.00274e-19 -0.0156126)
(-1.73137e-19 2.38729e-19 -0.0155886)
(-2.9572e-19 1.205e-19 -0.0156013)
(-6.09945e-19 8.38197e-21 -0.0156134)
(-8.2981e-19 1.48669e-20 -0.015625)
(-8.97419e-19 -6.00371e-19 -0.015636)
(-9.07856e-19 -9.91204e-19 -0.0156465)
(-7.57416e-19 -8.50584e-19 -0.0156564)
(-5.99547e-19 -8.0806e-20 -0.0156657)
(-1.80543e-19 2.87629e-19 -0.0156745)
(-5.45126e-21 2.20328e-19 -0.0156828)
(3.05957e-19 4.91603e-20 -0.0156905)
(5.67517e-19 -3.74499e-19 -0.0156977)
(2.93659e-19 -1.07611e-18 -0.0157043)
(-6.27745e-20 -7.79554e-19 -0.0157104)
(1.25324e-19 -8.69253e-20 -0.015716)
(2.8989e-19 2.13097e-20 -0.015721)
(-2.02136e-19 -5.08491e-19 -0.0157255)
(-2.61934e-19 -2.59426e-19 -0.0157295)
(-1.24651e-19 -2.88371e-20 -0.015733)
(-3.40571e-19 -8.13784e-20 -0.015736)
(-1.70917e-19 1.2061e-19 -0.0157385)
(-1.09472e-19 -6.93095e-20 -0.0157404)
(-4.84687e-19 -4.39874e-19 -0.0157419)
(-1.09919e-18 -3.1572e-19 -0.0157429)
(-1.32231e-18 2.28527e-19 -0.0157434)
(-6.36825e-19 3.59201e-19 -0.0157434)
(-6.09471e-19 8.70012e-20 -0.0157429)
(-1.68638e-18 -4.31438e-20 -0.0157419)
(-2.2375e-18 -4.57064e-20 -0.0157404)
(-2.69736e-18 5.35904e-19 -0.0157385)
(-2.95105e-18 6.2601e-19 -0.015736)
(-2.53155e-18 5.56502e-19 -0.015733)
(-2.13964e-18 4.73316e-19 -0.0157295)
(-2.14095e-18 1.83895e-19 -0.0157255)
(-2.51444e-18 4.94446e-19 -0.015721)
(-2.18598e-18 5.72042e-19 -0.015716)
(-2.08859e-18 8.41705e-19 -0.0157104)
(-3.06897e-18 1.15273e-18 -0.0157043)
(-3.04308e-18 1.25999e-18 -0.0156977)
(-2.22879e-18 1.38184e-18 -0.0156905)
(-1.71688e-18 1.64719e-18 -0.0156828)
(-1.06711e-18 1.01004e-18 -0.0156745)
(-1.12321e-18 1.13157e-18 -0.0156657)
(-1.69418e-18 1.79681e-18 -0.0156564)
(-1.09652e-18 1.68021e-18 -0.0156465)
(-2.9906e-19 1.54575e-18 -0.015636)
(-1.22697e-19 1.42679e-18 -0.015625)
(-2.34792e-19 1.3185e-18 -0.0156134)
(-3.29484e-19 1.0519e-18 -0.0156013)
(-3.88019e-19 8.15152e-19 -0.0155886)
(-2.11452e-19 1.87513e-19 -0.0155639)
(-3.12074e-19 -7.59349e-21 -0.015577)
(-5.26518e-19 -8.57127e-20 -0.0155895)
(-9.1506e-19 -1.71175e-19 -0.0156014)
(-1.12921e-18 -7.30386e-19 -0.0156128)
(-1.18263e-18 -6.4979e-19 -0.0156236)
(-7.47708e-19 -3.4932e-19 -0.0156339)
(-4.09881e-19 3.09446e-19 -0.0156436)
(-2.9617e-19 4.42485e-19 -0.0156527)
(-3.56729e-19 5.26191e-19 -0.0156613)
(-2.18017e-19 4.08281e-19 -0.0156693)
(-7.24008e-20 -2.91855e-19 -0.0156768)
(1.4932e-19 -9.0596e-19 -0.0156837)
(3.66721e-19 -2.19933e-19 -0.01569)
(3.0272e-19 4.79753e-19 -0.0156958)
(-5.2356e-21 2.8162e-19 -0.0157011)
(-4.28549e-19 -2.0402e-19 -0.0157058)
(-1.58512e-19 -7.25415e-22 -0.01571)
(-1.07259e-19 1.74778e-19 -0.0157137)
(-3.84297e-19 -9.2939e-20 -0.0157168)
(-2.46105e-19 4.45029e-21 -0.0157194)
(-2.72903e-19 -1.71997e-19 -0.0157215)
(-5.73353e-19 -2.77207e-19 -0.015723)
(-8.72372e-19 -5.28156e-19 -0.0157241)
(-9.67033e-19 -1.10412e-19 -0.0157246)
(-6.77153e-19 4.14691e-19 -0.0157246)
(-9.08769e-19 5.57856e-20 -0.0157241)
(-1.90848e-18 -3.61068e-19 -0.015723)
(-2.1468e-18 -1.94946e-19 -0.0157215)
(-2.50952e-18 1.07304e-19 -0.0157194)
(-2.89672e-18 2.97619e-19 -0.0157168)
(-2.47901e-18 4.26541e-19 -0.0157137)
(-2.30973e-18 4.26733e-19 -0.01571)
(-2.29077e-18 1.14835e-20 -0.0157058)
(-2.46614e-18 3.15884e-19 -0.0157011)
(-2.10555e-18 4.15839e-19 -0.0156958)
(-2.09827e-18 2.0617e-19 -0.01569)
(-3.00311e-18 5.95761e-19 -0.0156837)
(-2.70764e-18 1.25767e-18 -0.0156768)
(-1.81542e-18 1.64311e-18 -0.0156693)
(-1.56447e-18 1.87527e-18 -0.0156613)
(-1.12359e-18 1.35191e-18 -0.0156527)
(-9.81755e-19 8.50544e-19 -0.0156436)
(-1.27837e-18 1.63649e-18 -0.0156339)
(-7.38797e-19 1.99052e-18 -0.0156236)
(-1.80512e-19 1.59574e-18 -0.0156128)
(-1.58143e-19 1.37439e-18 -0.0156014)
(-4.39556e-19 1.21359e-18 -0.0155895)
(-5.00962e-19 8.80913e-19 -0.015577)
(-2.92486e-19 7.69495e-19 -0.0155639)
(-3.13543e-19 1.54977e-19 -0.0155385)
(-3.31201e-19 -5.08505e-20 -0.0155519)
(-4.5368e-19 -2.2127e-19 -0.0155647)
(-9.84829e-19 -3.61625e-19 -0.015577)
(-1.29683e-18 -5.68439e-19 -0.0155887)
(-1.30154e-18 -1.4032e-19 -0.0155999)
(-9.68839e-19 3.46231e-19 -0.0156105)
(-4.74116e-19 2.73102e-19 -0.0156205)
(-1.84968e-19 4.26487e-19 -0.01563)
(-2.48932e-19 6.98169e-19 -0.0156389)
(-5.5908e-19 5.76728e-19 -0.0156472)
(-6.69921e-19 7.9582e-20 -0.015655)
(-1.02984e-19 1.10073e-19 -0.0156621)
(5.75762e-19 7.03253e-19 -0.0156687)
(3.91338e-19 8.48713e-19 -0.0156748)
(-1.56952e-19 2.64325e-19 -0.0156803)
(-5.52923e-19 2.02216e-20 -0.0156852)
(-1.90744e-19 4.01629e-19 -0.0156896)
(-2.62477e-19 3.70875e-19 -0.0156934)
(-5.35985e-19 1.5431e-19 -0.0156967)
(-2.85871e-19 2.90766e-19 -0.0156994)
(-3.28966e-19 3.50137e-19 -0.0157016)
(-7.8712e-19 2.57444e-19 -0.0157032)