/*--------------------------------*- C++ -*----------------------------------*\
  =========                 |
  \\      /  F ield         | OpenFOAM: The Open Source CFD Toolbox
   \\    /   O peration     | Website:  https://openfoam.org
    \\  /    A nd           | Version:  7
     \\/     M anipulation  |
\*---------------------------------------------------------------------------*/
FoamFile
{
    version     2.0;
    format      ascii;
    class       volScalarField;
    location    "16000";
    object      nut;
}
// * * * * * * * * * * * * * * * * * * * * * * * * * * * * * * * * * * * * * //

dimensions      [0 2 -1 0 0 0 0];

internalField   nonuniform List<scalar> 
4782
(
4.50677e-06
4.32566e-06
4.14703e-06
3.97094e-06
3.79745e-06
3.62662e-06
3.45851e-06
3.2932e-06
3.13074e-06
2.97122e-06
1.45062e-05
1.4251e-05
1.39971e-05
1.37444e-05
1.3493e-05
1.32429e-05
1.29941e-05
1.27467e-05
1.25007e-05
1.22561e-05
1.20129e-05
1.17712e-05
1.15309e-05
1.12922e-05
1.10549e-05
1.08192e-05
1.0585e-05
1.03524e-05
1.01214e-05
9.89198e-06
9.66422e-06
9.43813e-06
9.2137e-06
8.98875e-06
8.76189e-06
8.53547e-06
8.31061e-06
8.08782e-06
7.8673e-06
7.6491e-06
7.4332e-06
7.21958e-06
7.00819e-06
6.79901e-06
6.59202e-06
6.3872e-06
6.18456e-06
5.98409e-06
5.7858e-06
5.58972e-06
5.39586e-06
5.20426e-06
5.01494e-06
4.82794e-06
4.64329e-06
4.46104e-06
4.28124e-06
4.10393e-06
3.92916e-06
3.757e-06
3.58749e-06
3.4207e-06
3.25671e-06
3.09557e-06
2.93737e-06
1.44056e-05
1.41515e-05
1.38986e-05
1.3647e-05
1.33966e-05
1.31476e-05
1.29e-05
1.26536e-05
1.24087e-05
1.21652e-05
1.19231e-05
1.16826e-05
1.14435e-05
1.12059e-05
1.09698e-05
1.07353e-05
1.05023e-05
1.02709e-05
1.0041e-05
9.81283e-06
9.58628e-06
9.36138e-06
9.13815e-06
8.91243e-06
8.68602e-06
8.46064e-06
8.2371e-06
8.01576e-06
7.79672e-06
7.58e-06
7.36557e-06
7.15339e-06
6.94343e-06
6.73566e-06
6.53006e-06
6.32662e-06
6.12534e-06
5.92624e-06
5.72931e-06
5.53458e-06
5.34207e-06
5.15182e-06
4.96385e-06
4.7782e-06
4.5949e-06
4.414e-06
4.23556e-06
4.0596e-06
3.88619e-06
3.71539e-06
3.54724e-06
3.38181e-06
3.21918e-06
3.05941e-06
2.90256e-06
1.43024e-05
1.40494e-05
1.37976e-05
1.3547e-05
1.32978e-05
1.30499e-05
1.28033e-05
1.2558e-05
1.23142e-05
1.20719e-05
1.18309e-05
1.15915e-05
1.13536e-05
1.11171e-05
1.08822e-05
1.06489e-05
1.04171e-05
1.01869e-05
9.95836e-06
9.73142e-06
9.50612e-06
9.28248e-06
9.05926e-06
8.83341e-06
8.60773e-06
8.38355e-06
8.16146e-06
7.94166e-06
7.72418e-06
7.50901e-06
7.29611e-06
7.08543e-06
6.87693e-06
6.67061e-06
6.46644e-06
6.26442e-06
6.06455e-06
5.86684e-06
5.67131e-06
5.47798e-06
5.28687e-06
5.09801e-06
4.91143e-06
4.72717e-06
4.54527e-06
4.36577e-06
4.18872e-06
4.01416e-06
3.84215e-06
3.67274e-06
3.506e-06
3.34197e-06
3.18074e-06
3.02237e-06
2.86692e-06
1.41963e-05
1.39443e-05
1.36936e-05
1.34441e-05
1.31961e-05
1.29494e-05
1.2704e-05
1.246e-05
1.22174e-05
1.19762e-05
1.17365e-05
1.14983e-05
1.12615e-05
1.10263e-05
1.07927e-05
1.05605e-05
1.033e-05
1.01011e-05
9.87376e-06
9.64808e-06
9.42406e-06
9.19794e-06
8.97146e-06
8.74594e-06
8.52205e-06
8.30013e-06
8.08031e-06
7.86266e-06
7.64719e-06
7.43389e-06
7.22276e-06
7.01378e-06
6.80693e-06
6.6022e-06
6.3996e-06
6.19913e-06
6.00079e-06
5.8046e-06
5.61058e-06
5.41876e-06
5.22915e-06
5.04178e-06
4.8567e-06
4.67393e-06
4.49352e-06
4.31551e-06
4.13995e-06
3.96688e-06
3.79635e-06
3.62843e-06
3.46317e-06
3.30063e-06
3.14088e-06
2.98398e-06
2.83001e-06
1.41963e-05
1.39443e-05
1.36935e-05
1.34441e-05
1.3196e-05
1.29492e-05
1.27038e-05
1.24598e-05
1.22172e-05
1.19761e-05
1.17365e-05
1.14982e-05
1.12615e-05
1.10263e-05
1.07926e-05
1.05605e-05
1.033e-05
1.01011e-05
9.87381e-06
9.64813e-06
9.42412e-06
9.19793e-06
8.97139e-06
8.74586e-06
8.52197e-06
8.30005e-06
8.08023e-06
7.86258e-06
7.64712e-06
7.43383e-06
7.22269e-06
7.01371e-06
6.80685e-06
6.60213e-06
6.39952e-06
6.19905e-06
6.00071e-06
5.80453e-06
5.61051e-06
5.41868e-06
5.22908e-06
5.04172e-06
4.85664e-06
4.67387e-06
4.49347e-06
4.31546e-06
4.1399e-06
3.96683e-06
3.79631e-06
3.62839e-06
3.46313e-06
3.3006e-06
3.14085e-06
2.98396e-06
2.82999e-06
1.43027e-05
1.40496e-05
1.37977e-05
1.35471e-05
1.32979e-05
1.30499e-05
1.28034e-05
1.25582e-05
1.23145e-05
1.20721e-05
1.18312e-05
1.15918e-05
1.13538e-05
1.11174e-05
1.08825e-05
1.06491e-05
1.04173e-05
1.0187e-05
9.95843e-06
9.73146e-06
9.50613e-06
9.28247e-06
9.05902e-06
8.83309e-06
8.6074e-06
8.38324e-06
8.16116e-06
7.94138e-06
7.72392e-06
7.50876e-06
7.29586e-06
7.08518e-06
6.87669e-06
6.67037e-06
6.4662e-06
6.26418e-06
6.06432e-06
5.86661e-06
5.67108e-06
5.47776e-06
5.28665e-06
5.0978e-06
4.91123e-06
4.72698e-06
4.5451e-06
4.36561e-06
4.18857e-06
4.01402e-06
3.84203e-06
3.67263e-06
3.5059e-06
3.34188e-06
3.18066e-06
3.0223e-06
2.86687e-06
2.71444e-06
2.5651e-06
2.41893e-06
2.276e-06
1.44059e-05
1.41517e-05
1.38987e-05
1.36471e-05
1.33968e-05
1.31478e-05
1.29001e-05
1.26538e-05
1.24089e-05
1.21654e-05
1.19233e-05
1.16827e-05
1.14436e-05
1.1206e-05
1.09698e-05
1.07352e-05
1.05022e-05
1.02708e-05
1.00409e-05
9.81272e-06
9.58614e-06
9.36121e-06
9.13796e-06
8.91203e-06
8.68555e-06
8.46016e-06
8.23664e-06
8.01532e-06
7.79629e-06
7.57959e-06
7.36516e-06
7.15299e-06
6.94303e-06
6.73526e-06
6.52966e-06
6.32623e-06
6.12496e-06
5.92586e-06
5.72895e-06
5.53423e-06
5.34174e-06
5.1515e-06
4.96354e-06
4.77791e-06
4.59463e-06
4.41375e-06
4.23532e-06
4.05938e-06
3.88599e-06
3.7152e-06
3.54707e-06
3.38166e-06
3.21904e-06
3.05928e-06
2.90245e-06
2.74863e-06
2.59789e-06
2.45033e-06
2.30601e-06
2.16495e-06
1.45064e-05
1.42512e-05
1.39971e-05
1.37443e-05
1.34929e-05
1.32428e-05
1.2994e-05
1.27466e-05
1.25006e-05
1.22559e-05
1.20127e-05
1.17709e-05
1.15305e-05
1.12917e-05
1.10544e-05
1.08187e-05
1.05845e-05
1.03519e-05
1.01208e-05
9.89145e-06
9.66367e-06
9.43754e-06
9.2131e-06
8.98823e-06
8.7614e-06
8.53497e-06
8.3101e-06
8.0873e-06
7.86677e-06
7.64857e-06
7.43267e-06
7.21905e-06
7.00766e-06
6.79849e-06
6.5915e-06
6.38669e-06
6.18404e-06
5.98358e-06
5.7853e-06
5.58922e-06
5.39538e-06
5.20378e-06
5.01447e-06
4.82748e-06
4.64284e-06
4.46061e-06
4.28082e-06
4.10352e-06
3.92877e-06
3.75662e-06
3.58713e-06
3.42036e-06
3.25637e-06
3.09525e-06
2.93706e-06
2.78188e-06
2.62979e-06
2.48088e-06
2.33521e-06
2.19283e-06
2.05387e-06
1.91847e-06
1.78675e-06
1.6588e-06
1.53473e-06
1.41467e-06
1.29871e-06
1.18699e-06
1.07962e-06
9.76712e-07
8.78259e-07
7.83636e-07
6.87955e-07
5.95039e-07
5.07504e-07
4.25896e-07
3.50784e-07
2.82733e-07
2.22261e-07
1.6977e-07
1.25476e-07
8.93244e-08
6.09386e-08
3.96152e-08
2.43777e-08
1.40833e-08
7.5558e-09
3.70781e-09
1.62746e-09
6.17244e-10
1.9117e-10
4.37725e-11
6.10455e-12
3.36701e-13
2.46997e-15
1.46039e-05
1.43477e-05
1.40926e-05
1.38389e-05
1.35863e-05
1.33351e-05
1.30853e-05
1.28368e-05
1.25896e-05
1.23439e-05
1.20995e-05
1.18566e-05
1.16152e-05
1.13753e-05
1.11368e-05
1.08999e-05
1.06646e-05
1.04308e-05
1.01986e-05
9.96793e-06
9.73897e-06
9.51164e-06
9.286e-06
9.06198e-06
8.83478e-06
8.60738e-06
8.38126e-06
8.15709e-06
7.93513e-06
7.7155e-06
7.49818e-06
7.28315e-06
7.07038e-06
6.85983e-06
6.65149e-06
6.44534e-06
6.24136e-06
6.03958e-06
5.83998e-06
5.6426e-06
5.44744e-06
5.25454e-06
5.06392e-06
4.87562e-06
4.68968e-06
4.50614e-06
4.32504e-06
4.14643e-06
3.97037e-06
3.79691e-06
3.62611e-06
3.45803e-06
3.29274e-06
3.1303e-06
2.9708e-06
2.81431e-06
2.66092e-06
2.5107e-06
2.36374e-06
2.22008e-06
2.07982e-06
1.94313e-06
1.81012e-06
1.68089e-06
1.55556e-06
1.43424e-06
1.31704e-06
1.20409e-06
1.09552e-06
9.91417e-07
8.91819e-07
7.96197e-07
7.00414e-07
6.06358e-07
5.17666e-07
4.34891e-07
3.58611e-07
2.89405e-07
2.27807e-07
1.74245e-07
1.28961e-07
9.19268e-08
6.2791e-08
4.08634e-08
2.51679e-08
1.45493e-08
7.80898e-09
3.83265e-09
1.68208e-09
6.37715e-10
1.97364e-10
4.51335e-11
6.28004e-12
3.44797e-13
2.50469e-15
1.46978e-05
1.44406e-05
1.41846e-05
1.39299e-05
1.36763e-05
1.34242e-05
1.31733e-05
1.29237e-05
1.26756e-05
1.24288e-05
1.21834e-05
1.19394e-05
1.16969e-05
1.14559e-05
1.12164e-05
1.09784e-05
1.07419e-05
1.0507e-05
1.02737e-05
1.00419e-05
9.81186e-06
9.58343e-06
9.35668e-06
9.1316e-06
8.90522e-06
8.6774e-06
8.45025e-06
8.22479e-06
8.00144e-06
7.7804e-06
7.56168e-06
7.34527e-06
7.13115e-06
6.91927e-06
6.70961e-06
6.50216e-06
6.29689e-06
6.09382e-06
5.89296e-06
5.6943e-06
5.49788e-06
5.30372e-06
5.11184e-06
4.92228e-06
4.73508e-06
4.55028e-06
4.36793e-06
4.18806e-06
4.01074e-06
3.83602e-06
3.66395e-06
3.49461e-06
3.32805e-06
3.16436e-06
3.0036e-06
2.84585e-06
2.69119e-06
2.53972e-06
2.39151e-06
2.24661e-06
2.1051e-06
1.96716e-06
1.83291e-06
1.70245e-06
1.57589e-06
1.45335e-06
1.33494e-06
1.2208e-06
1.11105e-06
1.0058e-06
9.05083e-07
8.08493e-07
7.12612e-07
6.17448e-07
5.27631e-07
4.4372e-07
3.66303e-07
2.95969e-07
2.33272e-07
1.78662e-07
1.32406e-07
9.45048e-08
6.46294e-08
4.21042e-08
2.59546e-08
1.50138e-08
8.06156e-09
3.95726e-09
1.73661e-09
6.58147e-10
2.03544e-10
4.64896e-11
6.45455e-12
3.52814e-13
2.53878e-15
1.47885e-05
1.45303e-05
1.42734e-05
1.40176e-05
1.37632e-05
1.351e-05
1.32582e-05
1.30076e-05
1.27584e-05
1.25106e-05
1.22643e-05
1.20193e-05
1.17758e-05
1.15337e-05
1.12931e-05
1.1054e-05
1.08165e-05
1.05805e-05
1.03462e-05
1.01134e-05
9.88224e-06
9.65272e-06
9.42487e-06
9.1987e-06
8.97303e-06
8.7448e-06
8.51669e-06
8.29002e-06
8.06537e-06
7.84299e-06
7.62295e-06
7.40523e-06
7.18981e-06
6.97666e-06
6.76575e-06
6.55705e-06
6.35055e-06
6.14625e-06
5.94416e-06
5.74429e-06
5.54665e-06
5.35128e-06
5.15819e-06
4.96742e-06
4.77901e-06
4.593e-06
4.40943e-06
4.22835e-06
4.04982e-06
3.87388e-06
3.70061e-06
3.53005e-06
3.36228e-06
3.19737e-06
3.03539e-06
2.87643e-06
2.72055e-06
2.56787e-06
2.41844e-06
2.27236e-06
2.12964e-06
1.99049e-06
1.85503e-06
1.72337e-06
1.59563e-06
1.4719e-06
1.35233e-06
1.23704e-06
1.12614e-06
1.01977e-06
9.17979e-07
8.20451e-07
7.24465e-07
6.2823e-07
5.37328e-07
4.52321e-07
3.73806e-07
3.02383e-07
2.38621e-07
1.82993e-07
1.35791e-07
9.70423e-08
6.64424e-08
4.33299e-08
2.67329e-08
1.54738e-08
8.31195e-09
4.08085e-09
1.79071e-09
6.78412e-10
2.09669e-10
4.78323e-11
6.62697e-12
3.60702e-13
2.57201e-15
1.48757e-05
1.46167e-05
1.43589e-05
1.41023e-05
1.38469e-05
1.35927e-05
1.33399e-05
1.30884e-05
1.28382e-05
1.25895e-05
1.2342e-05
1.20961e-05
1.18516e-05
1.16085e-05
1.13669e-05
1.11268e-05
1.08883e-05
1.06513e-05
1.04159e-05
1.01821e-05
9.94986e-06
9.71929e-06
9.4904e-06
9.26321e-06
9.03769e-06
8.80934e-06
8.58047e-06
8.35271e-06
8.12685e-06
7.90321e-06
7.68189e-06
7.46292e-06
7.24626e-06
7.03189e-06
6.81976e-06
6.60987e-06
6.40219e-06
6.19671e-06
5.99345e-06
5.79242e-06
5.59362e-06
5.39708e-06
5.20283e-06
5.0109e-06
4.82133e-06
4.63415e-06
4.44942e-06
4.26718e-06
4.08749e-06
3.91039e-06
3.73594e-06
3.56422e-06
3.39529e-06
3.22921e-06
3.06606e-06
2.90593e-06
2.74889e-06
2.59503e-06
2.44445e-06
2.29721e-06
2.15333e-06
2.01302e-06
1.87641e-06
1.7436e-06
1.61471e-06
1.48986e-06
1.36916e-06
1.25275e-06
1.14076e-06
1.03331e-06
9.3048e-07
8.32052e-07
7.35967e-07
6.38701e-07
5.46751e-07
4.60688e-07
3.81111e-07
3.08634e-07
2.43842e-07
1.87226e-07
1.39105e-07
9.95313e-08
6.82238e-08
4.45363e-08
2.75e-08
1.59278e-08
8.55923e-09
4.20296e-09
1.84416e-09
6.98436e-10
2.15718e-10
4.91569e-11
6.79675e-12
3.68437e-13
2.60434e-15
1.49591e-05
1.46992e-05
1.44405e-05
1.4183e-05
1.39268e-05
1.36718e-05
1.34181e-05
1.31657e-05
1.29146e-05
1.26648e-05
1.24165e-05
1.21696e-05
1.19241e-05
1.168e-05
1.14374e-05
1.11964e-05
1.09569e-05
1.07189e-05
1.04825e-05
1.02477e-05
1.00145e-05
9.783e-06
9.5531e-06
9.3249e-06
9.09837e-06
8.87076e-06
8.64151e-06
8.41284e-06
8.18584e-06
7.96097e-06
7.73841e-06
7.51821e-06
7.30035e-06
7.08479e-06
6.8715e-06
6.66046e-06
6.45165e-06
6.24505e-06
6.04067e-06
5.83852e-06
5.63861e-06
5.44096e-06
5.2456e-06
5.05257e-06
4.86189e-06
4.67361e-06
4.48777e-06
4.30443e-06
4.12362e-06
3.94541e-06
3.76986e-06
3.59702e-06
3.42698e-06
3.25978e-06
3.09552e-06
2.93427e-06
2.77612e-06
2.62114e-06
2.46944e-06
2.32109e-06
2.17612e-06
2.0347e-06
1.89698e-06
1.76307e-06
1.63309e-06
1.50715e-06
1.38538e-06
1.2679e-06
1.15486e-06
1.04637e-06
9.42538e-07
8.43247e-07
7.47065e-07
6.4881e-07
5.55856e-07
4.68778e-07
3.88183e-07
3.14694e-07
2.4891e-07
1.91342e-07
1.42332e-07
1.0196e-07
6.99647e-08
4.57172e-08
2.82518e-08
1.63732e-08
8.80206e-09
4.32294e-09
1.89669e-09
7.18109e-10
2.21658e-10
5.04564e-11
6.96299e-12
3.75983e-13
2.63562e-15
1.50385e-05
1.47778e-05
1.45183e-05
1.42599e-05
1.40028e-05
1.37469e-05
1.34923e-05
1.3239e-05
1.2987e-05
1.27365e-05
1.24873e-05
1.22395e-05
1.19931e-05
1.17482e-05
1.15048e-05
1.12629e-05
1.10224e-05
1.07836e-05
1.05462e-05
1.03105e-05
1.00764e-05
9.84387e-06
9.61303e-06
9.38384e-06
9.15633e-06
8.92924e-06
8.69957e-06
8.47006e-06
8.242e-06
8.016e-06
7.7923e-06
7.57095e-06
7.35195e-06
7.13528e-06
6.92089e-06
6.70876e-06
6.49888e-06
6.29121e-06
6.08577e-06
5.88257e-06
5.6816e-06
5.48291e-06
5.2865e-06
5.09242e-06
4.90069e-06
4.71136e-06
4.52448e-06
4.34008e-06
4.15822e-06
3.97896e-06
3.80235e-06
3.62845e-06
3.45734e-06
3.28908e-06
3.12376e-06
2.96144e-06
2.80221e-06
2.64617e-06
2.4934e-06
2.34399e-06
2.19797e-06
2.05549e-06
1.91671e-06
1.78174e-06
1.65071e-06
1.52373e-06
1.40092e-06
1.28243e-06
1.16838e-06
1.0589e-06
9.54112e-07
8.53991e-07
7.57679e-07
6.58522e-07
5.6461e-07
4.76563e-07
3.94994e-07
3.20537e-07
2.53803e-07
1.95322e-07
1.45458e-07
1.04316e-07
7.16565e-08
4.68663e-08
2.89845e-08
1.68078e-08
9.03914e-09
4.44013e-09
1.94801e-09
7.37325e-10
2.27457e-10
5.1724e-11
7.12486e-12
3.83303e-13
2.66573e-15
1.51135e-05
1.48521e-05
1.45918e-05
1.43327e-05
1.40748e-05
1.38181e-05
1.35628e-05
1.33087e-05
1.3056e-05
1.28046e-05
1.25547e-05
1.23061e-05
1.20589e-05
1.18132e-05
1.15689e-05
1.13261e-05
1.10849e-05
1.08451e-05
1.06069e-05
1.03703e-05
1.01353e-05
9.90191e-06
9.67015e-06
9.44005e-06
9.21163e-06
8.98471e-06
8.75457e-06
8.52425e-06
8.29523e-06
8.0682e-06
7.84343e-06
7.62102e-06
7.40097e-06
7.18324e-06
6.96782e-06
6.75466e-06
6.54375e-06
6.33507e-06
6.12863e-06
5.92442e-06
5.72246e-06
5.52277e-06
5.32537e-06
5.13029e-06
4.93758e-06
4.74725e-06
4.55937e-06
4.37398e-06
4.19112e-06
4.01085e-06
3.83323e-06
3.65833e-06
3.48621e-06
3.31694e-06
3.1506e-06
2.98727e-06
2.82703e-06
2.66997e-06
2.51619e-06
2.36577e-06
2.21876e-06
2.07526e-06
1.93547e-06
1.7995e-06
1.66747e-06
1.5395e-06
1.41572e-06
1.29625e-06
1.18124e-06
1.07082e-06
9.65105e-07
8.64087e-07
7.66986e-07
6.67718e-07
5.7291e-07
4.83954e-07
4.01471e-07
3.26102e-07
2.58471e-07
1.99126e-07
1.48451e-07
1.06575e-07
7.3282e-08
4.79724e-08
2.96907e-08
1.72271e-08
9.2681e-09
4.55336e-09
1.9976e-09
7.55892e-10
2.33057e-10
5.29466e-11
7.28066e-12
3.90317e-13
2.69423e-15
1.51847e-05
1.49225e-05
1.46614e-05
1.44016e-05
1.4143e-05
1.38857e-05
1.36296e-05
1.33747e-05
1.31212e-05
1.28691e-05
1.26184e-05
1.2369e-05
1.2121e-05
1.18745e-05
1.16294e-05
1.13857e-05
1.11436e-05
1.09031e-05
1.0664e-05
1.04265e-05
1.01907e-05
9.95642e-06
9.72381e-06
9.49286e-06
9.26361e-06
9.03605e-06
8.80621e-06
8.57543e-06
8.3456e-06
8.1176e-06
7.89182e-06
7.66838e-06
7.44731e-06
7.22859e-06
7.01218e-06
6.79805e-06
6.58618e-06
6.37655e-06
6.16915e-06
5.964e-06
5.7611e-06
5.56046e-06
5.36212e-06
5.16611e-06
4.97245e-06
4.78118e-06
4.59236e-06
4.40602e-06
4.22221e-06
4.041e-06
3.86243e-06
3.68658e-06
3.5135e-06
3.34328e-06
3.17598e-06
3.01169e-06
2.8505e-06
2.69248e-06
2.53774e-06
2.38637e-06
2.23842e-06
2.09397e-06
1.95323e-06
1.81631e-06
1.68334e-06
1.55444e-06
1.42973e-06
1.30935e-06
1.19343e-06
1.08212e-06
9.75529e-07
8.73665e-07
7.75822e-07
6.76456e-07
5.80803e-07
4.9099e-07
4.07641e-07
3.31409e-07
2.62928e-07
2.02761e-07
1.51316e-07
1.08741e-07
7.48423e-08
4.90355e-08
3.03703e-08
1.7631e-08
9.4888e-09
4.66255e-09
2.04544e-09
7.73798e-10
2.38456e-10
5.41241e-11
7.43048e-12
3.9704e-13
2.72137e-15
1.52515e-05
1.49886e-05
1.47269e-05
1.44663e-05
1.4207e-05
1.3949e-05
1.36921e-05
1.34366e-05
1.31824e-05
1.29295e-05
1.2678e-05
1.24278e-05
1.21791e-05
1.19318e-05
1.1686e-05
1.14416e-05
1.11987e-05
1.09574e-05
1.07176e-05
1.04793e-05
1.02427e-05
1.00076e-05
9.77419e-06
9.54242e-06
9.31233e-06
9.08396e-06
8.85452e-06
8.62339e-06
8.39285e-06
8.16398e-06
7.93726e-06
7.71287e-06
7.49085e-06
7.27119e-06
7.05385e-06
6.8388e-06
6.62602e-06
6.41548e-06
6.2072e-06
6.00115e-06
5.79736e-06
5.59585e-06
5.39662e-06
5.19972e-06
5.00517e-06
4.81302e-06
4.62331e-06
4.43608e-06
4.25138e-06
4.06927e-06
3.88982e-06
3.71307e-06
3.53911e-06
3.36799e-06
3.1998e-06
3.03462e-06
2.87253e-06
2.71362e-06
2.55799e-06
2.40572e-06
2.2569e-06
2.11156e-06
1.96993e-06
1.83213e-06
1.69828e-06
1.5685e-06
1.44292e-06
1.32168e-06
1.20492e-06
1.09276e-06
9.85349e-07
8.8269e-07
7.84151e-07
6.84688e-07
5.88243e-07
4.97626e-07
4.13468e-07
3.36425e-07
2.67145e-07
2.06207e-07
1.54034e-07
1.10799e-07
7.63275e-08
5.00488e-08
3.10188e-08
1.80168e-08
9.69976e-09
4.76698e-09
2.09119e-09
7.90922e-10
2.43616e-10
5.52489e-11
7.57336e-12
4.0343e-13
2.74697e-15
1.53133e-05
1.50498e-05
1.47875e-05
1.45263e-05
1.42664e-05
1.40076e-05
1.37501e-05
1.34939e-05
1.3239e-05
1.29855e-05
1.27333e-05
1.24825e-05
1.22331e-05
1.19851e-05
1.17386e-05
1.14935e-05
1.12499e-05
1.10078e-05
1.07673e-05
1.05283e-05
1.02909e-05
1.00552e-05
9.82103e-06
9.58855e-06
9.35773e-06
9.1286e-06
8.89951e-06
8.66806e-06
8.43686e-06
8.20717e-06
7.97958e-06
7.75429e-06
7.53138e-06
7.31084e-06
7.09263e-06
6.87673e-06
6.66311e-06
6.45174e-06
6.24262e-06
6.03575e-06
5.83114e-06
5.6288e-06
5.42876e-06
5.23104e-06
5.03568e-06
4.84271e-06
4.65218e-06
4.46413e-06
4.27862e-06
4.09569e-06
3.91542e-06
3.73785e-06
3.56306e-06
3.39112e-06
3.2221e-06
3.05608e-06
2.89315e-06
2.73341e-06
2.57694e-06
2.42384e-06
2.2742e-06
2.12803e-06
1.98556e-06
1.84693e-06
1.71226e-06
1.58166e-06
1.45528e-06
1.33323e-06
1.21567e-06
1.10274e-06
9.94555e-07
8.91153e-07
7.91963e-07
6.9241e-07
5.95225e-07
5.03857e-07
4.18941e-07
3.41142e-07
2.71115e-07
2.09454e-07
1.566e-07
1.12744e-07
7.77324e-08
5.10085e-08
3.16337e-08
1.8383e-08
9.90009e-09
4.86618e-09
2.13465e-09
8.07191e-10
2.48518e-10
5.63164e-11
7.70877e-12
4.0947e-13
2.77103e-15
1.53704e-05
1.51064e-05
1.48434e-05
1.45817e-05
1.43212e-05
1.40619e-05
1.38038e-05
1.3547e-05
1.32915e-05
1.30374e-05
1.27845e-05
1.2533e-05
1.22829e-05
1.20343e-05
1.17871e-05
1.15413e-05
1.12971e-05
1.10544e-05
1.08132e-05
1.05736e-05
1.03356e-05
1.00991e-05
9.86427e-06
9.63108e-06
9.39958e-06
9.1698e-06
8.94107e-06
8.70932e-06
8.47752e-06
8.2471e-06
8.0187e-06
7.7926e-06
7.56887e-06
7.34752e-06
7.12852e-06
6.91182e-06
6.69742e-06
6.48528e-06
6.2754e-06
6.06777e-06
5.8624e-06
5.65931e-06
5.45851e-06
5.26003e-06
5.06391e-06
4.87019e-06
4.6789e-06
4.49009e-06
4.30382e-06
4.12014e-06
3.9391e-06
3.76077e-06
3.58521e-06
3.4125e-06
3.24272e-06
3.07594e-06
2.91225e-06
2.75174e-06
2.5945e-06
2.44064e-06
2.29023e-06
2.1433e-06
2.00007e-06
1.86067e-06
1.72524e-06
1.59389e-06
1.46675e-06
1.34397e-06
1.22567e-06
1.11201e-06
1.00312e-06
8.99026e-07
7.99235e-07
6.99601e-07
6.0173e-07
5.09665e-07
4.24046e-07
3.45542e-07
2.74822e-07
2.12488e-07
1.58999e-07
1.14566e-07
7.90498e-08
5.19094e-08
3.22115e-08
1.87273e-08
1.00886e-08
4.95957e-09
2.17558e-09
8.22508e-10
2.5313e-10
5.73204e-11
7.83598e-12
4.15129e-13
2.79346e-15
1.54226e-05
1.51581e-05
1.48946e-05
1.46323e-05
1.43713e-05
1.41115e-05
1.38528e-05
1.35954e-05
1.33394e-05
1.30846e-05
1.28313e-05
1.25793e-05
1.23286e-05
1.20794e-05
1.18316e-05
1.15852e-05
1.13404e-05
1.1097e-05
1.08552e-05
1.0615e-05
1.03763e-05
1.01393e-05
9.90383e-06
9.67003e-06
9.43789e-06
9.20746e-06
8.97875e-06
8.74699e-06
8.51475e-06
8.28368e-06
8.05456e-06
7.8277e-06
7.60322e-06
7.38113e-06
7.16139e-06
6.94398e-06
6.72886e-06
6.51601e-06
6.30542e-06
6.0971e-06
5.89104e-06
5.68725e-06
5.48576e-06
5.2866e-06
5.08979e-06
4.89537e-06
4.70339e-06
4.51389e-06
4.32693e-06
4.14255e-06
3.96081e-06
3.78178e-06
3.60552e-06
3.43211e-06
3.26163e-06
3.09414e-06
2.92974e-06
2.76853e-06
2.61059e-06
2.45602e-06
2.30491e-06
2.15729e-06
2.01336e-06
1.87327e-06
1.73714e-06
1.6051e-06
1.47727e-06
1.35381e-06
1.23484e-06
1.12052e-06
1.01097e-06
9.06248e-07
8.05906e-07
7.06191e-07
6.07695e-07
5.14995e-07
4.28735e-07
3.4959e-07
2.78234e-07
2.15284e-07
1.61214e-07
1.16249e-07
8.02686e-08
5.27439e-08
3.27473e-08
1.90468e-08
1.02637e-08
5.04632e-09
2.21361e-09
8.36738e-10
2.57414e-10
5.82521e-11
7.95387e-12
4.20359e-13
2.81405e-15
1.54697e-05
1.52047e-05
1.49408e-05
1.46781e-05
1.44165e-05
1.41561e-05
1.3897e-05
1.36392e-05
1.33826e-05
1.31273e-05
1.28735e-05
1.26209e-05
1.23697e-05
1.21199e-05
1.18716e-05
1.16247e-05
1.13793e-05
1.11355e-05
1.08931e-05
1.06523e-05
1.04131e-05
1.01755e-05
9.93954e-06
9.70518e-06
9.47251e-06
9.24154e-06
9.01226e-06
8.78092e-06
8.54846e-06
8.31688e-06
8.08711e-06
7.85956e-06
7.63439e-06
7.4116e-06
7.19119e-06
6.97312e-06
6.75736e-06
6.54388e-06
6.33266e-06
6.12371e-06
5.91702e-06
5.71261e-06
5.51051e-06
5.31072e-06
5.11329e-06
4.91825e-06
4.72565e-06
4.53553e-06
4.34794e-06
4.16293e-06
3.98056e-06
3.8009e-06
3.62401e-06
3.44997e-06
3.27884e-06
3.11072e-06
2.94568e-06
2.78382e-06
2.62524e-06
2.47003e-06
2.31828e-06
2.17004e-06
2.02547e-06
1.88474e-06
1.74797e-06
1.6153e-06
1.48686e-06
1.36277e-06
1.24319e-06
1.12827e-06
1.01813e-06
9.12832e-07
8.11991e-07
7.12207e-07
6.1314e-07
5.19862e-07
4.33017e-07
3.53288e-07
2.81354e-07
2.17844e-07
1.63243e-07
1.17792e-07
8.13873e-08
5.35105e-08
3.32398e-08
1.93408e-08
1.04248e-08
5.12619e-09
2.24862e-09
8.4984e-10
2.61358e-10
5.91094e-11
8.06224e-12
4.25157e-13
2.83286e-15
1.55118e-05
1.52464e-05
1.49821e-05
1.4719e-05
1.4457e-05
1.41962e-05
1.39366e-05
1.36783e-05
1.34212e-05
1.31655e-05
1.29111e-05
1.26581e-05
1.24064e-05
1.21562e-05
1.19074e-05
1.16601e-05
1.14142e-05
1.11699e-05
1.09271e-05
1.06858e-05
1.04462e-05
1.02081e-05
9.97162e-06
9.73679e-06
9.50362e-06
9.27212e-06
9.04235e-06
8.81125e-06
8.57857e-06
8.34653e-06
8.11622e-06
7.88808e-06
7.6623e-06
7.43891e-06
7.21791e-06
6.99925e-06
6.7829e-06
6.56885e-06
6.35706e-06
6.14754e-06
5.9403e-06
5.73533e-06
5.53266e-06
5.33232e-06
5.13433e-06
4.93874e-06
4.74558e-06
4.55489e-06
4.36674e-06
4.18116e-06
3.99823e-06
3.818e-06
3.64055e-06
3.46593e-06
3.29424e-06
3.12555e-06
2.95995e-06
2.79752e-06
2.63837e-06
2.48259e-06
2.33028e-06
2.18147e-06
2.03633e-06
1.89503e-06
1.7577e-06
1.62447e-06
1.49546e-06
1.37082e-06
1.2507e-06
1.13523e-06
1.02456e-06
9.18748e-07
8.17459e-07
7.17607e-07
6.1803e-07
5.24234e-07
4.36868e-07
3.56615e-07
2.84164e-07
2.2015e-07
1.65072e-07
1.19185e-07
8.23978e-08
5.42036e-08
3.36855e-08
1.9607e-08
1.05708e-08
5.19858e-09
2.28036e-09
8.61715e-10
2.64931e-10
5.98858e-11
8.16028e-12
4.29489e-13
2.84979e-15
1.5549e-05
1.52832e-05
1.50186e-05
1.47551e-05
1.44927e-05
1.42315e-05
1.39715e-05
1.37128e-05
1.34554e-05
1.31993e-05
1.29445e-05
1.26911e-05
1.24391e-05
1.21885e-05
1.19392e-05
1.16915e-05
1.14452e-05
1.12004e-05
1.09571e-05
1.07154e-05
1.04752e-05
1.02367e-05
9.99976e-06
9.76449e-06
9.53088e-06
9.29898e-06
9.06879e-06
8.83791e-06
8.60503e-06
8.37262e-06
8.14182e-06
7.91318e-06
7.68688e-06
7.46297e-06
7.24145e-06
7.02228e-06
6.80542e-06
6.59086e-06
6.37857e-06
6.16856e-06
5.96081e-06
5.75535e-06
5.55219e-06
5.35136e-06
5.15288e-06
4.9568e-06
4.76314e-06
4.57197e-06
4.38332e-06
4.19725e-06
4.01382e-06
3.8331e-06
3.65514e-06
3.48003e-06
3.30784e-06
3.13864e-06
2.97253e-06
2.8096e-06
2.64994e-06
2.49366e-06
2.34084e-06
2.19154e-06
2.0459e-06
1.9041e-06
1.76628e-06
1.63255e-06
1.50305e-06
1.37792e-06
1.25731e-06
1.14137e-06
1.03023e-06
9.2397e-07
8.22287e-07
7.22378e-07
6.22353e-07
5.28101e-07
4.40274e-07
3.59559e-07
2.86651e-07
2.22193e-07
1.66694e-07
1.20421e-07
8.32951e-08
5.48196e-08
3.40819e-08
1.98438e-08
1.07007e-08
5.26302e-09
2.30862e-09
8.72288e-10
2.68112e-10
6.05766e-11
8.24745e-12
4.33334e-13
2.86475e-15
1.55807e-05
1.53146e-05
1.50496e-05
1.47858e-05
1.45231e-05
1.42617e-05
1.40014e-05
1.37424e-05
1.34847e-05
1.32282e-05
1.29731e-05
1.27193e-05
1.24669e-05
1.22159e-05
1.19663e-05
1.17182e-05
1.14716e-05
1.12264e-05
1.09828e-05
1.07407e-05
1.05002e-05
1.02613e-05
1.00241e-05
9.78842e-06
9.55442e-06
9.32214e-06
9.09157e-06
8.86089e-06
8.62785e-06
8.3951e-06
8.16389e-06
7.9348e-06
7.70804e-06
7.48369e-06
7.26172e-06
7.0421e-06
6.82481e-06
6.60982e-06
6.3971e-06
6.18666e-06
5.9785e-06
5.77261e-06
5.56903e-06
5.36777e-06
5.16886e-06
4.97235e-06
4.77827e-06
4.58667e-06
4.39759e-06
4.2111e-06
4.02725e-06
3.84609e-06
3.66771e-06
3.49217e-06
3.31954e-06
3.14991e-06
2.98337e-06
2.82001e-06
2.65992e-06
2.50321e-06
2.34996e-06
2.20023e-06
2.05416e-06
1.91193e-06
1.77367e-06
1.63952e-06
1.5096e-06
1.38405e-06
1.26302e-06
1.14667e-06
1.03512e-06
9.28473e-07
8.26451e-07
7.26489e-07
6.2608e-07
5.31436e-07
4.43214e-07
3.62102e-07
2.888e-07
2.23959e-07
1.68097e-07
1.21491e-07
8.40727e-08
5.53537e-08
3.44258e-08
2.00495e-08
1.08136e-08
5.31902e-09
2.33318e-09
8.81476e-10
2.70875e-10
6.11765e-11
8.32309e-12
4.36665e-13
2.87767e-15
1.56069e-05
1.53405e-05
1.50753e-05
1.48112e-05
1.45483e-05
1.42866e-05
1.40261e-05
1.37668e-05
1.35089e-05
1.32522e-05
1.29968e-05
1.27428e-05
1.24902e-05
1.22389e-05
1.1989e-05
1.17407e-05
1.14937e-05
1.12483e-05
1.10045e-05
1.07621e-05
1.05213e-05
1.02821e-05
1.00445e-05
9.80854e-06
9.57425e-06
9.34165e-06
9.11075e-06
8.88011e-06
8.6469e-06
8.41386e-06
8.18231e-06
7.95286e-06
7.72573e-06
7.50099e-06
7.27865e-06
7.05866e-06
6.84101e-06
6.62565e-06
6.41259e-06
6.20179e-06
5.99327e-06
5.78704e-06
5.58311e-06
5.3815e-06
5.18225e-06
4.98539e-06
4.79096e-06
4.599e-06
4.40958e-06
4.22273e-06
4.03852e-06
3.85701e-06
3.67827e-06
3.50236e-06
3.32937e-06
3.15939e-06
2.99248e-06
2.82876e-06
2.6683e-06
2.51122e-06
2.35761e-06
2.20753e-06
2.06109e-06
1.9185e-06
1.77988e-06
1.64537e-06
1.51509e-06
1.38919e-06
1.26782e-06
1.15112e-06
1.03924e-06
9.32263e-07
8.29957e-07
7.29956e-07
6.29221e-07
5.34247e-07
4.4569e-07
3.64244e-07
2.90612e-07
2.25449e-07
1.6928e-07
1.22394e-07
8.47291e-08
5.58049e-08
3.47164e-08
2.02233e-08
1.0909e-08
5.36638e-09
2.35394e-09
8.89246e-10
2.73212e-10
6.16837e-11
8.387e-12
4.39477e-13
2.88856e-15
1.56282e-05
1.53616e-05
1.50962e-05
1.48318e-05
1.45687e-05
1.43068e-05
1.4046e-05
1.37865e-05
1.35283e-05
1.32713e-05
1.30157e-05
1.27615e-05
1.25086e-05
1.22571e-05
1.2007e-05
1.17584e-05
1.15112e-05
1.12656e-05
1.10215e-05
1.07789e-05
1.05379e-05
1.02985e-05
1.00607e-05
9.82451e-06
9.58998e-06
9.35715e-06
9.12602e-06
8.8956e-06
8.66229e-06
8.42901e-06
8.19717e-06
7.9674e-06
7.73995e-06
7.51491e-06
7.29226e-06
7.07198e-06
6.85403e-06
6.63839e-06
6.42503e-06
6.21395e-06
6.00514e-06
5.79862e-06
5.5944e-06
5.39251e-06
5.19297e-06
4.99583e-06
4.80112e-06
4.60888e-06
4.41917e-06
4.23203e-06
4.04754e-06
3.86574e-06
3.68671e-06
3.51052e-06
3.33725e-06
3.16697e-06
2.99978e-06
2.83577e-06
2.67502e-06
2.51766e-06
2.36375e-06
2.21338e-06
2.06666e-06
1.92377e-06
1.78487e-06
1.65007e-06
1.5195e-06
1.39332e-06
1.27167e-06
1.15469e-06
1.04254e-06
9.35301e-07
8.32766e-07
7.32728e-07
6.31733e-07
5.36497e-07
4.47674e-07
3.65962e-07
2.92065e-07
2.26645e-07
1.70232e-07
1.2312e-07
8.52574e-08
5.61681e-08
3.49506e-08
2.03634e-08
1.09859e-08
5.40456e-09
2.37069e-09
8.95512e-10
2.75096e-10
6.20925e-11
8.43848e-12
4.41738e-13
2.89728e-15
1.5644e-05
1.53772e-05
1.51116e-05
1.48471e-05
1.45838e-05
1.43216e-05
1.40607e-05
1.3801e-05
1.35426e-05
1.32855e-05
1.30298e-05
1.27754e-05
1.25224e-05
1.22708e-05
1.20205e-05
1.17718e-05
1.15245e-05
1.12787e-05
1.10344e-05
1.07917e-05
1.05505e-05
1.03109e-05
1.0073e-05
9.83663e-06
9.60193e-06
9.36892e-06
9.1376e-06
8.90724e-06
8.67384e-06
8.44039e-06
8.20834e-06
7.97834e-06
7.75066e-06
7.52538e-06
7.30251e-06
7.08201e-06
6.86384e-06
6.64799e-06
6.43441e-06
6.22312e-06
6.0141e-06
5.80737e-06
5.60294e-06
5.40083e-06
5.20108e-06
5.00372e-06
4.80879e-06
4.61633e-06
4.4264e-06
4.23905e-06
4.05434e-06
3.87233e-06
3.69308e-06
3.51667e-06
3.34318e-06
3.17269e-06
3.00528e-06
2.84105e-06
2.68009e-06
2.5225e-06
2.36838e-06
2.2178e-06
2.07086e-06
1.92776e-06
1.78864e-06
1.65362e-06
1.52284e-06
1.39645e-06
1.27458e-06
1.1574e-06
1.04504e-06
9.37605e-07
8.34899e-07
7.34837e-07
6.33645e-07
5.38208e-07
4.49183e-07
3.67267e-07
2.93168e-07
2.27552e-07
1.70953e-07
1.23671e-07
8.56583e-08
5.64439e-08
3.51283e-08
2.04698e-08
1.10444e-08
5.43357e-09
2.38341e-09
9.00272e-10
2.76527e-10
6.24029e-11
8.47757e-12
4.43456e-13
2.90392e-15
1.56549e-05
1.5388e-05
1.51222e-05
1.48576e-05
1.45941e-05
1.43318e-05
1.40708e-05
1.3811e-05
1.35525e-05
1.32953e-05
1.30394e-05
1.27849e-05
1.25317e-05
1.228e-05
1.20296e-05
1.17807e-05
1.15333e-05
1.12874e-05
1.1043e-05
1.08001e-05
1.05588e-05
1.03191e-05
1.0081e-05
9.84455e-06
9.60975e-06
9.3766e-06
9.14517e-06
8.91503e-06
8.68162e-06
8.44806e-06
8.21584e-06
7.98568e-06
7.75783e-06
7.5324e-06
7.30937e-06
7.08871e-06
6.8704e-06
6.6544e-06
6.44068e-06
6.22924e-06
6.02008e-06
5.81321e-06
5.60864e-06
5.40639e-06
5.2065e-06
5.00901e-06
4.81394e-06
4.62134e-06
4.43127e-06
4.24377e-06
4.05892e-06
3.87676e-06
3.69737e-06
3.52082e-06
3.34718e-06
3.17654e-06
3.00899e-06
2.8446e-06
2.6835e-06
2.52576e-06
2.3715e-06
2.22077e-06
2.07368e-06
1.93043e-06
1.79116e-06
1.656e-06
1.52508e-06
1.39854e-06
1.27653e-06
1.15921e-06
1.04671e-06
9.39142e-07
8.3632e-07
7.36238e-07
6.34916e-07
5.39345e-07
4.50186e-07
3.68136e-07
2.93905e-07
2.28158e-07
1.71435e-07
1.24039e-07
8.59263e-08
5.66283e-08
3.52472e-08
2.05409e-08
1.10835e-08
5.45298e-09
2.39193e-09
9.03458e-10
2.77485e-10
6.26107e-11
8.50372e-12
4.44604e-13
2.90835e-15
1.56604e-05
1.53935e-05
1.51277e-05
1.48631e-05
1.45996e-05
1.43374e-05
1.40763e-05
1.38165e-05
1.3558e-05
1.33007e-05
1.30447e-05
1.279e-05
1.25368e-05
1.22849e-05
1.20345e-05
1.17855e-05
1.1538e-05
1.1292e-05
1.10476e-05
1.08046e-05
1.05632e-05
1.03234e-05
1.00852e-05
9.84872e-06
9.61384e-06
9.38065e-06
9.14915e-06
8.91893e-06
8.68546e-06
8.45183e-06
8.21955e-06
7.98932e-06
7.76141e-06
7.5359e-06
7.3128e-06
7.09208e-06
6.87369e-06
6.65762e-06
6.44383e-06
6.23232e-06
6.02309e-06
5.81615e-06
5.61151e-06
5.4092e-06
5.20924e-06
5.01167e-06
4.81653e-06
4.62387e-06
4.43373e-06
4.24616e-06
4.06124e-06
3.87901e-06
3.69955e-06
3.52292e-06
3.34921e-06
3.1785e-06
3.01087e-06
2.84641e-06
2.68523e-06
2.52742e-06
2.37309e-06
2.22228e-06
2.07512e-06
1.93179e-06
1.79245e-06
1.65721e-06
1.52622e-06