/*--------------------------------*- C++ -*----------------------------------*\
  =========                 |
  \\      /  F ield         | OpenFOAM: The Open Source CFD Toolbox
   \\    /   O peration     | Website:  https://openfoam.org
    \\  /    A nd           | Version:  7
     \\/     M anipulation  |
\*---------------------------------------------------------------------------*/
FoamFile
{
    version     2.0;
    format      ascii;
    class       volVectorField;
    location    "248000";
    object      vorticity;
}
// * * * * * * * * * * * * * * * * * * * * * * * * * * * * * * * * * * * * * //

dimensions      [0 0 -1 0 0 0 0];

internalField   nonuniform List<vector> 
4838
(
(0.00179709 0.000820383 3.66075e-17)
(0.00111092 0.00150343 -7.86549e-20)
(0.0011442 0.00138159 -8.2908e-18)
(0.00114317 0.00125422 -5.51458e-18)
(0.00112117 0.0011279 9.08038e-18)
(0.00108418 0.00100635 2.87335e-17)
(0.00103626 0.000890564 4.94983e-17)
(0.000980029 0.00078091 6.15049e-17)
(0.000917354 0.000677659 6.77647e-17)
(0.000849862 0.000581157 5.96516e-17)
(0.000779236 0.000491896 3.09105e-17)
(0.000707383 0.000410512 3.13883e-18)
(0.000636435 0.000337691 1.4481e-17)
(0.000568587 0.000273982 9.71848e-18)
(0.000505813 0.000219594 -6.53446e-17)
(0.000449611 0.000174254 -1.3939e-16)
(0.000400818 0.00013721 -1.02571e-16)
(0.000359585 0.000107367 -3.4805e-17)
(0.000325778 8.34815e-05 -2.57745e-17)
(0.000298832 6.42474e-05 -3.34669e-17)
(0.000277903 4.84277e-05 -1.42356e-17)
(0.000262056 3.51662e-05 -5.53268e-18)
(0.000250756 2.38561e-05 -3.21407e-18)
(0.000243549 1.38473e-05 1.67515e-17)
(0.000240047 4.54249e-06 2.40935e-17)
(0.000240047 -4.54253e-06 3.34359e-17)
(0.000243549 -1.38473e-05 4.46036e-17)
(0.000250756 -2.38561e-05 6.20885e-17)
(0.000262056 -3.51663e-05 9.44053e-17)
(0.000277904 -4.84277e-05 1.03717e-16)
(0.000298833 -6.42475e-05 1.33187e-16)
(0.000325779 -8.34816e-05 2.04382e-16)
(0.000359585 -0.000107367 2.42198e-16)
(0.000400818 -0.00013721 2.05266e-16)
(0.000449611 -0.000174255 1.53976e-16)
(0.000505814 -0.000219594 1.11755e-16)
(0.000568588 -0.000273983 7.60531e-17)
(0.000636435 -0.000337691 2.30159e-17)
(0.000707384 -0.000410513 -1.6869e-17)
(0.000779237 -0.000491897 -2.08184e-17)
(0.000849862 -0.000581158 -1.053e-18)
(0.000917354 -0.00067766 1.44401e-17)
(0.00098003 -0.000780911 1.03065e-17)
(0.00103626 -0.000890565 -5.74515e-19)
(0.00108418 -0.00100635 -1.3945e-17)
(0.00112117 -0.0011279 -1.47392e-17)
(0.00114317 -0.00125422 -5.9438e-18)
(0.0011442 -0.00138159 -4.5625e-18)
(0.00111093 -0.00150343 -1.03915e-17)
(0.00179709 -0.000820384 2.51096e-18)
(0.0024068 0.000916275 4.27931e-17)
(0.00159619 0.00158581 1.67851e-17)
(0.00154953 0.00149748 1.47386e-17)
(0.00150323 0.00139378 1.03722e-17)
(0.00145259 0.00127986 8.37578e-18)
(0.00139548 0.00116341 1.75047e-17)
(0.00133259 0.00104867 3.43891e-17)
(0.00126522 0.000937824 4.36935e-17)
(0.00119457 0.000831998 4.9696e-17)
(0.0011217 0.000731833 5.8707e-17)
(0.00104753 0.000637763 5.14137e-17)
(0.000973046 0.000550171 2.41793e-17)
(0.000899321 0.000469455 2.56907e-17)
(0.000827578 0.000396019 3.45396e-17)
(0.00075913 0.000330195 -1.02767e-17)
(0.000695258 0.000272142 -8.26122e-17)
(0.000637067 0.000221749 -7.08863e-17)
(0.00058537 0.000178582 -1.3131e-17)
(0.000540644 0.000141951 -1.95486e-17)
(0.000503041 0.000110993 -3.68022e-17)
(0.000472413 8.47308e-05 -8.70634e-18)
(0.000448419 6.21851e-05 -6.14725e-19)
(0.000430761 4.2453e-05 -2.08394e-18)
(0.00041918 2.46965e-05 1.87184e-17)
(0.000413455 8.10451e-06 1.43355e-17)
(0.000413455 -8.1046e-06 1.04963e-17)
(0.00041918 -2.46966e-05 2.22314e-17)
(0.000430761 -4.24531e-05 5.26488e-17)
(0.000448419 -6.21852e-05 8.46081e-17)
(0.000472413 -8.4731e-05 7.86912e-17)
(0.000503042 -0.000110993 1.04086e-16)
(0.000540644 -0.000141951 1.58029e-16)
(0.00058537 -0.000178582 1.54378e-16)
(0.000637067 -0.000221749 1.23978e-16)
(0.000695258 -0.000272142 9.753e-17)
(0.000759131 -0.000330195 6.81061e-17)
(0.000827578 -0.000396019 2.46391e-17)
(0.000899321 -0.000469456 -1.89407e-17)
(0.000973047 -0.000550172 -3.31733e-17)
(0.00104753 -0.000637764 -2.20682e-17)
(0.0011217 -0.000731834 -1.32035e-17)
(0.00119457 -0.000831999 -9.2691e-18)
(0.00126522 -0.000937825 -1.94446e-17)
(0.00133259 -0.00104867 -2.53714e-17)
(0.00139548 -0.00116341 -1.38797e-17)
(0.00145259 -0.00127986 -8.48275e-18)
(0.00150323 -0.00139379 -2.2715e-17)
(0.00154953 -0.00149748 -3.70424e-17)
(0.00159619 -0.00158581 -4.01838e-17)
(0.0024068 -0.000916276 -3.51785e-17)
(0.00275106 0.00109097 2.79643e-17)
(0.00185602 0.00176168 1.83181e-17)
(0.0017925 0.00164338 1.79447e-17)
(0.00173388 0.00153607 1.36528e-17)
(0.00167919 0.00142594 1.56356e-17)
(0.00162374 0.00131324 2.36076e-17)
(0.0015655 0.00120025 3.49294e-17)
(0.00150412 0.00108912 4.43644e-17)
(0.00143997 0.000981411 5.20936e-17)
(0.0013737 0.000878153 5.47913e-17)
(0.00130603 0.000780008 4.54718e-17)
(0.00123768 0.000687415 3.20585e-17)
(0.0011694 0.0006007 3.29188e-17)
(0.00110202 0.000520134 3.69811e-17)
(0.00103645 0.000445944 1.55895e-17)
(0.000973676 0.000378291 -2.46637e-17)
(0.000914723 0.000317215 -1.90475e-17)
(0.000860557 0.000262581 1.12797e-17)
(0.000812004 0.000214059 -2.41263e-17)
(0.00076971 0.000171136 -6.91379e-17)
(0.000734126 0.000133133 -5.20751e-17)
(0.000705515 9.92358e-05 -2.30519e-17)
(0.000684006 6.85597e-05 -2.75789e-18)
(0.000669656 4.02021e-05 3.05276e-17)
(0.000662482 1.32446e-05 4.06212e-17)
(0.000662482 -1.32448e-05 2.98026e-17)
(0.000669656 -4.02023e-05 3.08174e-18)
(0.000684006 -6.85598e-05 -4.90796e-19)
(0.000705515 -9.9236e-05 3.06959e-17)
(0.000734126 -0.000133134 4.31438e-17)
(0.00076971 -0.000171136 6.53499e-17)
(0.000812004 -0.000214059 1.03602e-16)
(0.000860558 -0.000262581 1.19397e-16)
(0.000914723 -0.000317215 1.03326e-16)
(0.000973677 -0.000378292 6.20995e-17)
(0.00103645 -0.000445945 3.32806e-17)
(0.00110202 -0.000520135 1.24886e-17)
(0.00116941 -0.000600701 -1.47844e-17)
(0.00123768 -0.000687416 -3.31882e-17)
(0.00130603 -0.000780008 -3.37295e-17)
(0.0013737 -0.000878154 -3.11543e-17)
(0.00143997 -0.000981412 -2.95628e-17)
(0.00150412 -0.00108912 -2.81382e-17)
(0.0015655 -0.00120025 -2.50156e-17)
(0.00162374 -0.00131324 -1.94864e-17)
(0.0016792 -0.00142594 -2.05362e-17)
(0.00173388 -0.00153607 -3.26318e-17)
(0.0017925 -0.00164338 -4.72262e-17)
(0.00185602 -0.00176168 -5.11237e-17)
(0.00275106 -0.00109097 -5.30235e-17)
(0.0030012 0.00127156 2.23556e-17)
(0.00208978 0.00195809 1.03157e-17)
(0.00202448 0.00181701 1.02516e-17)
(0.0019608 0.00169372 1.31549e-17)
(0.0019027 0.00157606 1.77869e-17)
(0.00184731 0.00146044 2.36369e-17)
(0.00179223 0.00134602 3.02182e-17)
(0.00173611 0.00123336 3.80017e-17)
(0.00167847 0.00112341 4.56303e-17)
(0.00161938 0.00101706 4.7262e-17)
(0.00155918 0.000915017 4.10039e-17)
(0.00149837 0.000817787 3.47601e-17)
(0.00143752 0.000725719 3.86484e-17)
(0.00137722 0.000639048 3.8751e-17)
(0.00131816 0.000557932 2.36399e-17)
(0.00126108 0.00048246 -4.01668e-18)
(0.00120677 0.000412642 -1.05664e-17)
(0.00115608 0.000348388 -6.60336e-19)
(0.00110981 0.000289484 -2.96869e-17)
(0.00106873 0.000235574 -6.5114e-17)
(0.00103353 0.000186159 -5.03865e-17)
(0.00100475 0.000140601 -1.09635e-17)
(0.000982815 9.81458e-05 2.18759e-17)
(0.000968033 5.79626e-05 4.19698e-17)
(0.000960594 1.91655e-05 3.92906e-17)
(0.000960594 -1.91657e-05 1.48138e-17)
(0.000968033 -5.79629e-05 -1.56495e-17)
(0.000982815 -9.81461e-05 -1.88624e-17)
(0.00100475 -0.000140601 1.19018e-18)
(0.00103353 -0.00018616 2.67862e-17)
(0.00106873 -0.000235575 4.88454e-17)
(0.00110981 -0.000289485 5.90394e-17)
(0.00115608 -0.000348389 6.61837e-17)
(0.00120678 -0.000412642 5.96788e-17)
(0.00126108 -0.00048246 3.82303e-17)
(0.00131816 -0.000557933 2.88705e-17)
(0.00137722 -0.000639049 1.99771e-17)
(0.00143752 -0.00072572 -2.54793e-18)
(0.00149838 -0.000817788 -1.88963e-17)
(0.00155918 -0.000915018 -2.25528e-17)
(0.00161938 -0.00101706 -2.3278e-17)
(0.00167848 -0.00112341 -2.21752e-17)
(0.00173611 -0.00123337 -2.05283e-17)
(0.00179223 -0.00134602 -2.12756e-17)
(0.00184731 -0.00146044 -2.51013e-17)
(0.0019027 -0.00157606 -3.01134e-17)
(0.0019608 -0.00169373 -3.96408e-17)
(0.00202449 -0.00181701 -5.25761e-17)
(0.00208978 -0.0019581 -5.85696e-17)
(0.0030012 -0.00127156 -5.52918e-17)
(0.00322545 0.00144923 1.88999e-17)
(0.00230738 0.00215196 8.92275e-18)
(0.00224945 0.00200006 8.16453e-18)
(0.00218811 0.00186337 8.78904e-18)
(0.00213012 0.00173463 1.59855e-17)
(0.00207509 0.00161127 2.63619e-17)
(0.0020218 0.00149152 2.92786e-17)
(0.00196908 0.00137472 3.22655e-17)
(0.00191616 0.00126093 3.50628e-17)
(0.00186274 0.00115055 3.02499e-17)
(0.00180884 0.00104405 2.41721e-17)
(0.00175471 0.000941849 3.02332e-17)
(0.00170075 0.000844275 3.84858e-17)
(0.00164741 0.000751544 2.87214e-17)
(0.00159524 0.000663779 1.34122e-17)
(0.00154482 0.000581025 -1.30093e-18)
(0.00149676 0.000503246 -7.69146e-18)
(0.00145175 0.000430327 -5.3465e-18)
(0.00141045 0.000362058 -2.04016e-17)
(0.00137357 0.000298128 -3.78955e-17)
(0.00134173 0.000238114 -1.9094e-17)
(0.00131552 0.000181481 1.60978e-17)
(0.00129543 0.000127593 2.87419e-17)
(0.00128182 7.57288e-05 2.45454e-17)
(0.00127495 2.51037e-05 3.27206e-17)
(0.00127495 -2.5104e-05 3.11716e-17)
(0.00128182 -7.57291e-05 -9.36973e-19)
(0.00129543 -0.000127594 -2.31323e-17)
(0.00131552 -0.000181482 -1.34027e-17)
(0.00134173 -0.000238114 1.14069e-17)
(0.00137357 -0.000298129 2.94717e-17)
(0.00141045 -0.000362059 3.41725e-17)
(0.00145175 -0.000430327 3.79429e-17)
(0.00149676 -0.000503247 3.29849e-17)
(0.00154482 -0.000581025 2.13727e-17)
(0.00159524 -0.00066378 2.03079e-17)
(0.00164742 -0.000751545 2.30094e-17)
(0.00170075 -0.000844276 1.53901e-17)
(0.00175472 -0.00094185 3.70377e-18)
(0.00180884 -0.00104405 -5.75588e-18)
(0.00186274 -0.00115055 -1.50687e-17)
(0.00191616 -0.00126093 -1.72024e-17)
(0.00196908 -0.00137472 -2.09574e-17)
(0.0020218 -0.00149152 -2.61732e-17)
(0.00207509 -0.00161127 -2.90398e-17)
(0.00213012 -0.00173463 -2.92233e-17)
(0.00218811 -0.00186337 -3.72698e-17)
(0.00224945 -0.00200007 -4.67147e-17)
(0.00230738 -0.00215196 -4.78823e-17)
(0.00322545 -0.00144923 -3.79327e-17)
(0.0034384 0.00162538 2.81659e-17)
(0.00251515 0.00234007 9.9993e-18)
(0.00246607 0.00218251 1.03417e-17)
(0.00241112 0.00203699 1.2701e-17)
(0.00235696 0.00189857 1.72816e-17)
(0.00230444 0.00176638 2.70623e-17)
(0.00225351 0.00163921 2.96357e-17)
(0.0022037 0.00151617 2.74882e-17)
(0.00215446 0.00139684 2.55858e-17)
(0.00210547 0.00128117 1.86141e-17)
(0.00205659 0.00116931 1.48189e-17)
(0.00200793 0.00106151 2.55873e-17)
(0.00195972 0.000957979 3.08669e-17)
(0.00191231 0.000858875 1.07532e-17)
(0.00186614 0.000764291 -6.43228e-18)
(0.00182168 0.000674239 -6.22925e-18)
(0.00177945 0.000588656 -2.68153e-18)
(0.00173998 0.000507401 1.13139e-18)
(0.00170383 0.000430253 -5.71693e-18)
(0.00167156 0.000356908 -1.54473e-17)
(0.00164371 0.000286976 7.35971e-19)
(0.00162077 0.00021998 3.19922e-17)
(0.00160317 0.000155364 3.05873e-17)
(0.00159124 9.25016e-05 1.58516e-17)
(0.00158521 3.07131e-05 2.42332e-17)
(0.00158521 -3.07136e-05 2.73196e-17)
(0.00159124 -9.2502e-05 4.87633e-18)
(0.00160317 -0.000155365 -1.71999e-17)
(0.00162077 -0.000219981 -1.46987e-17)
(0.00164371 -0.000286976 5.55573e-18)
(0.00167157 -0.000356909 2.15158e-17)
(0.00170383 -0.000430254 2.61973e-17)
(0.00173998 -0.000507402 2.80963e-17)
(0.00177945 -0.000588657 2.12064e-17)
(0.00182168 -0.00067424 1.34114e-17)
(0.00186614 -0.000764292 1.58108e-17)
(0.00191231 -0.000858876 2.01514e-17)
(0.00195972 -0.00095798 1.5436e-17)
(0.00200793 -0.00106151 6.54826e-18)
(0.00205659 -0.00116932 -1.15936e-17)
(0.00210547 -0.00128117 -2.41176e-17)
(0.00215446 -0.00139684 -2.35459e-17)
(0.0022037 -0.00151617 -2.21734e-17)
(0.00225352 -0.00163921 -2.48103e-17)
(0.00230444 -0.00176638 -2.74985e-17)
(0.00235696 -0.00189857 -2.97705e-17)
(0.00241112 -0.00203699 -3.40176e-17)
(0.00246608 -0.00218251 -3.50601e-17)
(0.00251515 -0.00234007 -3.05592e-17)
(0.0034384 -0.00162538 -1.67016e-17)
(0.00364346 0.00180094 4.23436e-17)
(0.00271691 0.00252342 1.41416e-17)
(0.00267588 0.00236155 1.35184e-17)
(0.00262833 0.00220979 1.6277e-17)
(0.00258007 0.00206379 1.88071e-17)
(0.00253207 0.00192357 2.50079e-17)
(0.00248483 0.00178867 2.74665e-17)
(0.00243845 0.00165848 2.48512e-17)
(0.0023928 0.00153252 2.057e-17)
(0.00234772 0.00141056 1.19616e-17)
(0.00230312 0.00129253 8.51345e-18)
(0.00225904 0.00117848 1.89953e-17)
(0.00221564 0.00106849 2.15568e-17)
(0.00217318 0.000962641 -1.90711e-18)
(0.00213203 0.000860977 -1.87948e-17)
(0.00209256 0.000763474 -6.92382e-18)
(0.00205521 0.000670047 3.24158e-18)
(0.00202043 0.00058054 5.56425e-18)
(0.00198869 0.000494725 6.23946e-18)
(0.00196044 0.000412306 3.76389e-18)
(0.00193612 0.000332913 1.03897e-17)
(0.00191612 0.000256109 2.72357e-17)
(0.00190079 0.000181392 2.46602e-17)
(0.00189042 0.00010821 1.07335e-17)
(0.00188518 3.59646e-05 1.36096e-17)
(0.00188518 -3.59651e-05 1.33947e-17)
(0.00189042 -0.00010821 -4.23722e-18)
(0.00190079 -0.000181393 -1.73104e-17)
(0.00191612 -0.000256109 -1.41747e-17)
(0.00193612 -0.000332914 1.2475e-19)
(0.00196044 -0.000412307 1.71146e-17)
(0.00198869 -0.000494726 3.08846e-17)
(0.00202043 -0.00058054 3.08253e-17)
(0.00205521 -0.000670048 1.52014e-17)
(0.00209256 -0.000763475 1.44512e-18)
(0.00213203 -0.000860978 -1.34129e-18)
(0.00217319 -0.000962642 -2.27971e-19)
(0.00221564 -0.00106849 8.99831e-20)
(0.00225904 -0.00117848 -3.41689e-18)
(0.00230312 -0.00129253 -1.61324e-17)
(0.00234772 -0.00141057 -1.64316e-17)
(0.00239281 -0.00153252 -1.49273e-17)
(0.00243845 -0.00165848 -1.80393e-17)
(0.00248483 -0.00178867 -2.38703e-17)
(0.00253207 -0.00192357 -2.77002e-17)
(0.00258008 -0.00206379 -3.29822e-17)
(0.00262833 -0.00220979 -3.57907e-17)
(0.00267588 -0.00236155 -2.75885e-17)
(0.00271691 -0.00252343 -1.58603e-17)
(0.00364346 -0.00180094 -4.0489e-18)
(0.00384223 0.00197618 3.012e-17)
(0.00291448 0.00270317 2.09018e-17)
(0.00288067 0.00253712 2.10961e-17)
(0.00284035 0.00238011 2.04507e-17)
(0.00279864 0.00222786 1.75767e-17)
(0.00275624 0.00208068 2.11562e-17)
(0.00271379 0.00193851 2.41994e-17)
(0.00267165 0.0018011 2.08824e-17)
(0.00262999 0.00166813 1.76943e-17)
(0.00258886 0.00153934 1.19681e-17)
(0.00254829 0.00141458 4.78818e-18)
(0.00250835 0.00129378 7.43194e-18)
(0.00246919 0.00117693 9.21263e-18)
(0.00243104 0.00106403 -5.24593e-18)
(0.00239417 0.000955059 -1.74722e-17)
(0.00235894 0.00084996 -5.52206e-18)
(0.00232569 0.000748624 7.21858e-18)
(0.00229483 0.000650887 8.00367e-18)
(0.00226674 0.00055652 6.53319e-18)
(0.00224181 0.000465235 3.37085e-18)
(0.00222039 0.000376681 4.34527e-18)
(0.00220282 0.000290452 1.35636e-17)
(0.00218938 0.000206091 1.05011e-17)
(0.00218029 0.000123098 3.95133e-18)
(0.0021757 4.0939e-05 8.94571e-18)
(0.0021757 -4.09397e-05 2.29121e-18)
(0.00218029 -0.000123099 -1.19577e-17)
(0.00218938 -0.000206092 -1.64154e-17)
(0.00220282 -0.000290453 -1.80505e-17)
(0.00222039 -0.000376682 -1.17065e-17)
(0.00224181 -0.000465236 8.10059e-18)
(0.00226674 -0.000556521 2.20675e-17)
(0.00229483 -0.000650888 1.58318e-17)
(0.00232569 -0.000748625 7.40699e-19)
(0.00235894 -0.000849961 -1.03791e-17)
(0.00239417 -0.00095506 -1.2692e-17)
(0.00243104 -0.00106403 -9.24637e-18)
(0.00246919 -0.00117693 -8.90626e-19)
(0.00250835 -0.00129378 2.07879e-18)
(0.00254829 -0.00141458 -8.65291e-19)
(0.00258886 -0.00153934 -3.73763e-18)
(0.00263 -0.00166813 -9.77878e-18)
(0.00267166 -0.0018011 -1.31362e-17)
(0.00271379 -0.00193851 -1.70975e-17)
(0.00275625 -0.00208068 -2.45902e-17)
(0.00279864 -0.00222786 -3.34152e-17)
(0.00284036 -0.00238011 -3.46298e-17)
(0.00288067 -0.00253713 -2.22944e-17)
(0.00291449 -0.00270318 -9.52688e-18)
(0.00384224 -0.00197618 -6.31059e-18)
(0.00403585 0.00215114 1.33262e-18)
(0.00310882 0.00288007 2.45519e-17)
(0.00308168 0.00270973 2.65102e-17)
(0.00304819 0.00254773 2.37253e-17)
(0.003013 0.00238985 1.9958e-17)
(0.00297661 0.00223642 2.08158e-17)
(0.00293954 0.00208756 2.2419e-17)
(0.00290225 0.00194322 2.04066e-17)
(0.00286504 0.00180324 1.90419e-17)
(0.00282811 0.00166745 1.38687e-17)
(0.00279161 0.0015357 3.5558e-18)
(0.00275569 0.00140788 5.72325e-19)
(0.00272052 0.00128391 2.72319e-18)
(0.00268631 0.00116374 -4.0864e-18)
(0.00265331 0.0010473 -1.32283e-17)
(0.00262183 0.000934505 -5.89864e-18)
(0.00259219 0.00082522 6.12188e-18)
(0.00256471 0.000719274 6.5213e-18)
(0.00253974 0.000616438 2.97477e-18)
(0.00251762 0.000516432 -1.44329e-19)
(0.00249864 0.000418927 -4.0441e-18)
(0.00248309 0.000323542 -4.69132e-18)
(0.00247121 0.000229856 -7.73068e-18)
(0.00246318 0.000137409 -4.60057e-18)
(0.00245914 4.57183e-05 6.41993e-18)
(0.00245914 -4.57191e-05 -3.97588e-18)
(0.00246318 -0.00013741 -2.05202e-17)
(0.00247121 -0.000229857 -2.26118e-17)
(0.00248309 -0.000323543 -2.31632e-17)
(0.00249864 -0.000418928 -1.8318e-17)
(0.00251762 -0.000516433 -2.62687e-18)
(0.00253974 -0.000616438 9.04916e-18)
(0.00256471 -0.000719275 7.01521e-18)
(0.00259219 -0.000825222 9.0687e-19)
(0.00262183 -0.000934506 -3.19804e-18)
(0.00265332 -0.0010473 8.49323e-19)
(0.00268631 -0.00116374 3.78391e-18)
(0.00272052 -0.00128391 5.10407e-18)
(0.00275569 -0.00140788 5.85919e-18)
(0.00279161 -0.0015357 5.51451e-18)
(0.00282811 -0.00166745 2.09596e-18)
(0.00286504 -0.00180324 -5.69586e-18)
(0.00290225 -0.00194322 -8.04354e-18)
(0.00293955 -0.00208757 -1.13034e-17)
(0.00297661 -0.00223643 -2.06337e-17)
(0.003013 -0.00238986 -3.03609e-17)
(0.0030482 -0.00254773 -3.07682e-17)
(0.00308169 -0.00270973 -2.10448e-17)
(0.00310883 -0.00288007 -1.50353e-17)
(0.00403585 -0.00215115 -2.32952e-17)
(0.00422516 0.00232582 -2.97869e-18)
(0.0033005 0.00305461 1.91567e-17)
(0.00327971 0.00287985 2.60971e-17)
(0.0032527 0.00271288 2.4172e-17)
(0.00322382 0.00254962 2.15312e-17)
(0.00319344 0.00239032 2.27657e-17)
(0.00316198 0.00223517 2.39423e-17)
(0.00312985 0.0020842 2.11623e-17)
(0.0030974 0.00193739 1.9723e-17)
(0.00306493 0.00179465 1.52743e-17)
(0.00303265 0.00165584 2.61922e-18)
(0.00300078 0.00152088 -6.96955e-18)
(0.00296952 0.00138967 -3.21447e-18)
(0.00293908 0.00126211 2.689e-19)
(0.00290973 0.00113812 -8.06278e-18)
(0.00288174 0.00101757 -1.02251e-17)
(0.00285538 0.000900327 2.93993e-18)
(0.00283096 0.000786202 7.56512e-18)
(0.00280879 0.000674972 2.79719e-18)
(0.00278916 0.000566367 -8.62143e-19)
(0.00277233 0.000460071 -8.83954e-18)
(0.00275854 0.000355729 -1.40827e-17)
(0.00274802 0.000252949 -1.43798e-17)
(0.00274091 0.000151307 -8.76605e-18)
(0.00273732 5.0358e-05 3.46586e-18)
(0.00273732 -5.03589e-05 -5.27403e-18)
(0.00274091 -0.000151308 -2.11542e-17)
(0.00274802 -0.00025295 -2.08866e-17)
(0.00275854 -0.00035573 -1.73943e-17)
(0.00277233 -0.000460072 -1.08229e-17)
(0.00278916 -0.000566368 1.62102e-18)
(0.00280879 -0.000674973 1.04788e-17)
(0.00283097 -0.000786204 9.89409e-18)
(0.00285538 -0.000900328 7.49798e-18)
(0.00288174 -0.00101757 7.52608e-18)
(0.00290974 -0.00113812 1.12214e-17)
(0.00293909 -0.00126212 1.10459e-17)
(0.00296952 -0.00138967 8.40499e-18)
(0.00300078 -0.00152089 8.58769e-18)
(0.00303265 -0.00165585 9.70893e-18)
(0.00306493 -0.00179465 1.80311e-18)
(0.00309741 -0.0019374 -6.87398e-18)
(0.00312985 -0.0020842 -6.03136e-18)
(0.00316198 -0.00223517 -8.47087e-18)
(0.00319344 -0.00239033 -1.78164e-17)
(0.00322382 -0.00254962 -2.65273e-17)
(0.0032527 -0.00271288 -2.77349e-17)
(0.00327971 -0.00287985 -2.17753e-17)
(0.00330051 -0.00305461 -2.19068e-17)
(0.00422516 -0.00232583 -3.34245e-17)
(0.00441084 0.0025002 1.24941e-17)
(0.00348994 0.00322713 1.38471e-17)
(0.00347526 0.00304785 2.15568e-17)
(0.00345447 0.00287588 1.99221e-17)
(0.00343168 0.00270728 1.9632e-17)
(0.00340719 0.0025423 2.33936e-17)
(0.00338133 0.00238108 2.40157e-17)
(0.00335447 0.00222373 1.81978e-17)
(0.00332696 0.00207028 1.5703e-17)
(0.0032991 0.00192068 1.21917e-17)
(0.00327116 0.00177487 -3.39248e-19)
(0.0032434 0.00163277 -1.1156e-17)
(0.00321604 0.00149428 -5.91942e-18)
(0.00318933 0.0013593 2.57613e-18)
(0.00316351 0.00122772 -3.00397e-18)
(0.00313885 0.00109941 -1.07167e-17)
(0.0031156 0.000974218 1.19723e-18)
(0.00309406 0.00085196 8.38497e-18)
(0.00307448 0.000732411 1.85626e-18)
(0.00305714 0.000615311 -8.59823e-19)
(0.00304228 0.000500359 -8.87599e-18)
(0.0030301 0.00038722 -1.64644e-17)
(0.0030208 0.000275528 -1.34964e-17)
(0.00301452 0.00016489 -4.63737e-18)
(0.00301135 5.48913e-05 3.94997e-18)
(0.00301135 -5.48924e-05 -6.11875e-18)
(0.00301452 -0.000164891 -1.85664e-17)
(0.0030208 -0.000275529 -1.42379e-17)
(0.0030301 -0.000387221 -5.47325e-18)
(0.00304228 -0.00050036 1.93044e-19)
(0.00305714 -0.000615312 3.95154e-18)
(0.00307448 -0.000732412 6.62541e-18)
(0.00309406 -0.000851961 6.64446e-18)
(0.0031156 -0.000974219 8.42101e-18)
(0.00313885 -0.00109941 1.19928e-17)
(0.00316351 -0.00122772 1.36771e-17)
(0.00318933 -0.0013593 1.15187e-17)
(0.00321604 -0.00149428 1.0851e-17)
(0.0032434 -0.00163277 1.25368e-17)
(0.00327116 -0.00177487 1.15104e-17)
(0.0032991 -0.00192068 5.93837e-19)
(0.00332696 -0.00207028 -6.39377e-18)
(0.00335447 -0.00222373 -4.56281e-18)
(0.00338133 -0.00238108 -6.76277e-18)
(0.00340719 -0.0025423 -1.48272e-17)
(0.00343168 -0.00270729 -2.25803e-17)
(0.00345447 -0.00287588 -2.52122e-17)
(0.00347526 -0.00304785 -2.25342e-17)
(0.00348994 -0.00322714 -2.48831e-17)
(0.00441084 -0.0025002 -2.96776e-17)
(0.00459343 0.00267426 1.63412e-17)
(0.00367745 0.00339792 1.36489e-17)
(0.00366871 0.00321402 1.8243e-17)
(0.00365394 0.00303699 1.66142e-17)
(0.00363706 0.00286307 1.83508e-17)
(0.0036183 0.00269245 2.41474e-17)
(0.00359796 0.00252529 2.49604e-17)
(0.00357635 0.00236171 1.83948e-17)
(0.0035538 0.00220175 1.32176e-17)
(0.00353062 0.00204542 8.90942e-18)
(0.00350709 0.00189269 -1.40944e-18)
(0.00348348 0.00174349 -9.57176e-18)
(0.00346004 0.00159774 -3.27637e-18)
(0.00343702 0.00145535 5.34606e-18)
(0.00341468 0.00131619 -1.58806e-19)
(0.00339326 0.00118014 -8.71335e-18)
(0.00337302 0.00104705 1.91227e-18)
(0.00335423 0.000916712 7.78098e-18)
(0.00333713 0.000788921 6.30506e-19)
(0.00332196 0.000663424 -1.64472e-18)
(0.00330894 0.000539934 -9.90546e-18)
(0.00329827 0.000418136 -1.80289e-17)
(0.00329012 0.000297685 -1.23438e-17)
(0.00328461 0.000178214 -1.3514e-18)
(0.00328183 5.93378e-05 4.28517e-18)
(0.00328183 -5.9339e-05 -6.65028e-18)
(0.00328461 -0.000178215 -1.59261e-17)
(0.00329012 -0.000297687 -8.04489e-18)
(0.00329827 -0.000418138 2.74808e-18)
(0.00330894 -0.000539936 8.07672e-18)
(0.00332196 -0.000663425 5.97862e-18)
(0.00333713 -0.000788923 2.99813e-18)
(0.00335423 -0.000916713 2.26926e-18)
(0.00337303 -0.00104705 5.44421e-18)
(0.00339326 -0.00118015 1.03993e-17)
(0.00341468 -0.00131619 9.84663e-18)
(0.00343703 -0.00145535 7.1155e-18)
(0.00346004 -0.00159774 1.05078e-17)
(0.00348348 -0.00174349 1.3754e-17)
(0.0035071 -0.00189269 1.05805e-17)
(0.00353063 -0.00204542 -9.91105e-19)
(0.00355381 -0.00220175 -8.37951e-18)
(0.00357635 -0.00236171 -5.21844e-18)
(0.00359796 -0.0025253 -3.82024e-18)
(0.0036183 -0.00269245 -1.10164e-17)
(0.00363706 -0.00286307 -1.94929e-17)
(0.00365395 -0.00303699 -2.31792e-17)
(0.00366871 -0.00321402 -2.20962e-17)
(0.00367746 -0.00339792 -2.42426e-17)
(0.00459343 -0.00267426 -2.81148e-17)
(0.00477338 0.002848 1.12213e-17)
(0.0038633 0.00356719 1.31926e-17)
(0.00386036 0.00337859 1.59211e-17)
(0.00385146 0.00319645 1.60526e-17)
(0.00384032 0.00301717 1.93984e-17)
(0.00382714 0.00284094 2.44932e-17)
(0.0038122 0.0026679 2.49312e-17)
(0.00379577 0.00249816 1.84148e-17)
(0.00377816 0.0023318 1.11789e-17)
(0.00375965 0.00216883 6.99678e-18)
(0.00374054 0.00200925 -9.50104e-20)
(0.00372109 0.00185302 -4.83601e-18)
(0.00370156 0.00170006 8.57594e-19)
(0.00368221 0.00155029 7.14808e-18)
(0.0036633 0.0014036 1.88716e-18)
(0.00364507 0.00125986 -6.21234e-18)
(0.00362777 0.00111891 9.2395e-19)
(0.00361164 0.00098056 4.46383e-18)
(0.00359692 0.000844607 -1.6555e-18)
(0.00358384 0.000710808 -2.58977e-18)
(0.00357259 0.00057889 -9.50373e-18)
(0.00356337 0.000448555 -1.62523e-17)
(0.0035563 0.000319478 -9.78007e-18)
(0.00355153 0.000191316 1.37176e-18)
(0.00354912 6.37097e-05 3.48719e-18)
(0.00354912 -6.3711e-05 -8.77036e-18)
(0.00355153 -0.000191318 -1.43972e-17)
(0.00355631 -0.00031948 -2.80862e-18)
(0.00356337 -0.000448556 8.15148e-18)
(0.0035726 -0.000578891 1.25154e-17)
(0.00358384 -0.000710809 1.0134e-17)
(0.00359693 -0.000844609 4.66808e-18)
(0.00361164 -0.000980561 9.59216e-19)
(0.00362777 -0.00111891 3.18432e-18)
(0.00364507 -0.00125986 8.57291e-18)
(0.0036633 -0.00140361 5.15721e-18)
(0.00368221 -0.0015503 2.8228e-18)
(0.00370156 -0.00170006 1.12794e-17)
(0.00372109 -0.00185302 1.38967e-17)
(0.00374054 -0.00200925 7.3733e-18)
(0.00375966 -0.00216883 -2.793e-18)
(0.00377816 -0.0023318 -1.08193e-17)
(0.00379578 -0.00249817 -8.54185e-18)
(0.0038122 -0.0026679 -3.27432e-18)
(0.00382714 -0.00284094 -8.84112e-18)
(0.00384032 -0.00301717 -1.78529e-17)
(0.00385147 -0.00319645 -2.21723e-17)
(0.00386037 -0.00337859 -2.21659e-17)
(0.0038633 -0.0035672 -2.41259e-17)
(0.00477339 -0.00284801 -3.15939e-17)
(0.00495108 0.00302145 1.02424e-17)
(0.00404771 0.00373515 1.11866e-17)
(0.00405047 0.00354176 1.46757e-17)
(0.0040473 0.00335446 1.68787e-17)
(0.00404175 0.00316979 2.0894e-17)
(0.00403403 0.00298794 2.39499e-17)
(0.00402436 0.00280904 2.20094e-17)
(0.00401302 0.00263319 1.5721e-17)
(0.00400027 0.00246048 9.28989e-18)
(0.00398639 0.00229094 5.98081e-18)
(0.00397166 0.00212458 1.93749e-18)
(0.00395634 0.00196138 5.42489e-19)
(0.0039407 0.00180127 3.7761e-18)
(0.003925 0.00164418 4.45954e-18)
(0.00390948 0.00149001 -5.44175e-19)
(0.00389438 0.00133862 -3.54043e-18)
(0.00387996 0.00118987 2.14693e-18)
(0.00386644 0.00104358 1.20406e-18)
(0.00385404 0.000899544 -3.14814e-18)
(0.00384298 0.000757533 -2.72868e-18)
(0.00383345 0.000617289 -7.8911e-18)
(0.0038256 0.000478528 -1.25252e-17)
(0.0038196 0.000340947 -7.15042e-18)
(0.00381553 0.000204221 1.84727e-18)
(0.00381347 6.80153e-05 1.6435e-18)
(0.00381347 -6.80168e-05 -9.64101e-18)
(0.00381553 -0.000204223 -1.17898e-17)
(0.0038196 -0.000340948 7.37099e-19)
(0.00382561 -0.00047853 8.74738e-18)
(0.00383345 -0.00061729 1.35851e-17)
(0.00384298 -0.000757534 1.44313e-17)
(0.00385404 -0.000899545 7.59896e-18)
(0.00386644 -0.00104358 2.16671e-18)
(0.00387996 -0.00118987 2.69823e-18)
(0.00389438 -0.00133862 7.10385e-18)
(0.00390948 -0.00149001 2.76898e-18)
(0.003925 -0.00164418 9.18298e-19)
(0.00394071 -0.00180127 1.15231e-17)
(0.00395635 -0.00196138 1.21959e-17)
(0.00397166 -0.00212459 4.21863e-18)
(0.0039864 -0.00229094 -2.26069e-18)
(0.00400028 -0.00246048 -1.08276e-17)
(0.00401302 -0.00263319 -1.15305e-17)
(0.00402437 -0.00280904 -4.28257e-18)
(0.00403403 -0.00298794 -8.45028e-18)
(0.00404175 -0.0031698 -1.74756e-17)
(0.0040473 -0.00335446 -2.13956e-17)
(0.00405047 -0.00354177 -2.09675e-17)
(0.00404772 -0.00373516 -2.28682e-17)
(0.00495109 -0.00302145 -2.89558e-17)
(0.00512687 0.00319463 1.4791e-17)
(0.00423089 0.00390197 1.15046e-17)
(0.00423923 0.00370373 1.34364e-17)
(0.00424168 0.0035112 1.77222e-17)
(0.00424161 0.00332111 2.22197e-17)
(0.00423922 0.00313361 2.22952e-17)
(0.00423472 0.00294884 1.80141e-17)
(0.00422836 0.00276691 1.28056e-17)
(0.00422039 0.00258789 7.93085e-18)
(0.00421107 0.00241183 5.57234e-18)
(0.00420066 0.00223874 5.02435e-18)
(0.00418943 0.00206862 5.59847e-18)
(0.00417764 0.00190141 4.10685e-18)
(0.00416553 0.00173706 -7.72802e-19)
(0.00415335 0.00157545 -3.96421e-18)
(0.00414135 0.00141648 -1.72952e-18)
(0.00412975 0.00125999 3.16124e-18)
(0.00411878 0.00110583 -3.78519e-19)
(0.00410865 0.00095379 -3.35929e-18)
(0.00409956 0.000803655 -2.53137e-18)
(0.00409169 0.00065518 -6.89653e-18)
(0.00408519 0.000508098 -9.0161e-18)
(0.0040802 0.000362122 -4.03242e-18)
(0.00407681 0.000216948 1.53185e-18)
(0.0040751 7.22613e-05 -9.07241e-19)
(0.0040751 -7.22629e-05 -9.34758e-18)
(0.00407681 -0.00021695 -7.69102e-18)
(0.0040802 -0.000362124 3.05694e-18)
(0.00408519 -0.0005081 7.2058e-18)
(0.00409169 -0.000655182 1.26964e-17)
(0.00409956 -0.000803657 1.51153e-17)
(0.00410865 -0.000953792 8.65472e-18)
(0.00411878 -0.00110583 4.35306e-18)
(0.00412975 -0.00126 3.11108e-18)
(0.00414135 -0.00141648 4.95501e-18)
(0.00415336 -0.00157545 1.62233e-18)
(0.00416553 -0.00173706 8.46151e-19)
(0.00417764 -0.00190142 9.24397e-18)
(0.00418944 -0.00206862 7.33225e-18)
(0.00420067 -0.00223875 -1.00555e-19)
(0.00421107 -0.00241183 -2.19065e-18)
(0.00422039 -0.00258789 -9.49703e-18)
(0.00422836 -0.00276691 -1.28657e-17)
(0.00423472 -0.00294885 -7.21592e-18)
(0.00423922 -0.00313362 -1.03026e-17)
(0.00424161 -0.00332112 -1.73962e-17)
(0.00424168 -0.00351121 -2.00115e-17)
(0.00423924 -0.00370373 -1.90734e-17)
(0.00423089 -0.00390198 -2.00753e-17)
(0.00512687 -0.00319463 -2.32138e-17)
(0.00530103 0.00336758 1.69935e-17)
(0.00441302 0.00406783 1.07924e-17)
(0.00442686 0.00386465 1.25202e-17)
(0.00443482 0.00366685 1.77015e-17)
(0.00444012 0.00347129 2.14914e-17)
(0.00444295 0.00327812 1.97963e-17)
(0.00444351 0.00308747 1.55136e-17)
(0.00444203 0.00289945 1.1266e-17)
(0.00443875 0.00271414 6.44007e-18)
(0.00443391 0.00253158 4.87268e-18)
(0.00442776 0.00235181 7.00242e-18)
(0.00442056 0.00217481 8.79466e-18)
(0.00441255 0.00200056 3.06193e-18)
(0.00440398 0.00182898 -5.8325e-18)
(0.0043951 0.00166 -5.95617e-18)
(0.00438613 0.0014935 4.16891e-19)
(0.0043773 0.00132934 3.57031e-18)
(0.00436883 0.00116737 -1.31898e-18)
(0.00436092 0.0010074 -2.46972e-18)
(0.00435375 0.000849224 -1.53308e-18)
(0.0043475 0.000692607 -6.14669e-18)
(0.00434231 0.000537299 -6.82059e-18)
(0.00433831 0.00038303 -9.23422e-19)
(0.00433559 0.000229513 2.20767e-18)
(0.00433421 7.64528e-05 -3.10275e-18)
(0.00433421 -7.64547e-05 -8.85986e-18)
(0.00433559 -0.000229515 -4.045e-18)
(0.00433831 -0.000383032 4.43192e-18)
(0.00434231 -0.000537301 6.28372e-18)
(0.0043475 -0.000692609 1.24692e-17)
(0.00435375 -0.000849226 1.48954e-17)
(0.00436092 -0.0010074 9.32419e-18)
(0.00436883 -0.00116737 6.79534e-18)
(0.00437731 -0.00132934 3.61233e-18)
(0.00438613 -0.0014935 3.42759e-18)
(0.0043951 -0.00166 2.41781e-18)
(0.00440399 -0.00182898 2.1177e-18)
(0.00441255 -0.00200056 5.26454e-18)