/*--------------------------------*- C++ -*----------------------------------*\
  =========                 |
  \\      /  F ield         | OpenFOAM: The Open Source CFD Toolbox
   \\    /   O peration     | Website:  https://openfoam.org
    \\  /    A nd           | Version:  7
     \\/     M anipulation  |
\*---------------------------------------------------------------------------*/
FoamFile
{
    version     2.0;
    format      ascii;
    class       volScalarField;
    location    "56000";
    object      k;
}
// * * * * * * * * * * * * * * * * * * * * * * * * * * * * * * * * * * * * * //

dimensions      [0 2 -2 0 0 0 0];

internalField   nonuniform List<scalar> 
1762
(
1.30078e-06
1.2975e-06
1.29424e-06
1.29102e-06
1.28787e-06
1.28486e-06
1.28203e-06
1.27942e-06
1.27706e-06
1.27498e-06
1.27321e-06
1.27177e-06
1.3064e-06
1.30331e-06
1.30024e-06
1.29718e-06
1.2942e-06
1.29134e-06
1.28865e-06
1.28616e-06
1.28391e-06
1.28193e-06
1.28025e-06
1.27887e-06
1.31158e-06
1.30867e-06
1.30578e-06
1.3029e-06
1.30008e-06
1.29737e-06
1.29482e-06
1.29246e-06
1.29032e-06
1.28844e-06
1.28684e-06
1.28554e-06
1.31629e-06
1.31357e-06
1.31086e-06
1.30816e-06
1.3055e-06
1.30295e-06
1.30054e-06
1.29831e-06
1.29629e-06
1.29451e-06
1.29299e-06
1.29175e-06
1.32052e-06
1.318e-06
1.31548e-06
1.31295e-06
1.31046e-06
1.30806e-06
1.30579e-06
1.30369e-06
1.30179e-06
1.30011e-06
1.29867e-06
1.29751e-06
1.32427e-06
1.32194e-06
1.31961e-06
1.31725e-06
1.31493e-06
1.31269e-06
1.31057e-06
1.3086e-06
1.30681e-06
1.30523e-06
1.30389e-06
1.30279e-06
1.32752e-06
1.32539e-06
1.32324e-06
1.32106e-06
1.31891e-06
1.31683e-06
1.31485e-06
1.31302e-06
1.31135e-06
1.30988e-06
1.30862e-06
1.30759e-06
1.33024e-06
1.32831e-06
1.32635e-06
1.32436e-06
1.32239e-06
1.32046e-06
1.31864e-06
1.31694e-06
1.31539e-06
1.31402e-06
1.31285e-06
1.33244e-06
1.33071e-06
1.32894e-06
1.32714e-06
1.32533e-06
1.32358e-06
1.3219e-06
1.32034e-06
1.31891e-06
1.31765e-06
1.31656e-06
1.33408e-06
1.33255e-06
1.33098e-06
1.32937e-06
1.32774e-06
1.32615e-06
1.32462e-06
1.3232e-06
1.3219e-06
1.32074e-06
1.31975e-06
1.33514e-06
1.33382e-06
1.33246e-06
1.33103e-06
1.32959e-06
1.32816e-06
1.32679e-06
1.32551e-06
1.32433e-06
1.32328e-06
1.32238e-06
1.33561e-06
1.3345e-06
1.33334e-06
1.33211e-06
1.33085e-06
1.32959e-06
1.32838e-06
1.32724e-06
1.32619e-06
1.32526e-06
1.32445e-06
1.33545e-06
1.33456e-06
1.33361e-06
1.33257e-06
1.3315e-06
1.33042e-06
1.32937e-06
1.32838e-06
1.32746e-06
1.32663e-06
1.32592e-06
1.33465e-06
1.33397e-06
1.33323e-06
1.3324e-06
1.33152e-06
1.33062e-06
1.32974e-06
1.32889e-06
1.3281e-06
1.32739e-06
1.32677e-06
1.33316e-06
1.33271e-06
1.33219e-06
1.33157e-06
1.33088e-06
1.33016e-06
1.32944e-06
1.32875e-06
1.32809e-06
1.3275e-06
1.32698e-06
1.33096e-06
1.33074e-06
1.33044e-06
1.33003e-06
1.32954e-06
1.32901e-06
1.32846e-06
1.32792e-06
1.3274e-06
1.32693e-06
1.32651e-06
1.32801e-06
1.32803e-06
1.32795e-06
1.32776e-06
1.32747e-06
1.32713e-06
1.32676e-06
1.32638e-06
1.326e-06
1.32565e-06
1.32533e-06
1.32427e-06
1.32452e-06
1.32468e-06
1.32471e-06
1.32464e-06
1.32449e-06
1.3243e-06
1.32408e-06
1.32384e-06
1.32361e-06
1.3234e-06
1.31968e-06
1.32019e-06
1.32059e-06
1.32085e-06
1.32099e-06
1.32105e-06
1.32104e-06
1.32098e-06
1.32089e-06
1.32079e-06
1.32068e-06
1.31421e-06
1.31498e-06
1.31563e-06
1.31612e-06
1.31648e-06
1.31675e-06
1.31692e-06
1.31704e-06
1.3171e-06
1.31713e-06
1.31713e-06
1.3078e-06
1.30883e-06
1.30973e-06
1.31047e-06
1.31106e-06
1.31154e-06
1.31191e-06
1.3122e-06
1.31242e-06
1.31258e-06
1.31269e-06
1.30038e-06
1.30168e-06
1.30285e-06
1.30384e-06
1.30467e-06
1.30536e-06
1.30594e-06
1.3064e-06
1.30678e-06
1.30708e-06
1.30731e-06
1.29189e-06
1.29347e-06
1.29492e-06
1.29617e-06
1.29724e-06
1.29816e-06
1.29893e-06
1.29959e-06
1.30013e-06
1.30057e-06
1.30092e-06
1.28224e-06
1.28413e-06
1.28585e-06
1.28737e-06
1.28869e-06
1.28984e-06
1.29084e-06
1.29168e-06
1.2924e-06
1.29298e-06
1.29346e-06
1.27136e-06
1.27355e-06
1.27557e-06
1.27737e-06
1.27895e-06
1.28035e-06
1.28156e-06
1.28261e-06
1.28349e-06
1.28423e-06
1.25915e-06
1.26166e-06
1.26399e-06
1.26607e-06
1.26793e-06
1.26957e-06
1.27101e-06
1.27226e-06
1.27333e-06
1.27423e-06
1.2455e-06
1.24834e-06
1.25099e-06
1.25337e-06
1.25551e-06
1.25741e-06
1.25909e-06
1.26056e-06
1.26182e-06
1.26288e-06
1.23029e-06
1.23348e-06
1.23646e-06
1.23916e-06
1.24159e-06
1.24376e-06
1.24569e-06
1.24738e-06
1.24883e-06
1.25006e-06
1.21339e-06
1.21695e-06
1.22027e-06
1.22329e-06
1.22603e-06
1.22848e-06
1.23067e-06
1.23259e-06
1.23425e-06
1.23566e-06
1.19465e-06
1.19858e-06
1.20227e-06
1.20563e-06
1.20869e-06
1.21144e-06
1.21389e-06
1.21605e-06
1.21792e-06
1.21952e-06
1.1739e-06
1.17823e-06
1.18229e-06
1.18601e-06
1.1894e-06
1.19245e-06
1.19519e-06
1.1976e-06
1.19969e-06
1.20148e-06
1.15095e-06
1.1557e-06
1.16015e-06
1.16424e-06
1.16797e-06
1.17135e-06
1.17437e-06
1.17705e-06
1.17938e-06
1.18136e-06
1.12559e-06
1.13077e-06
1.13563e-06
1.14011e-06
1.1442e-06
1.14792e-06
1.15125e-06
1.15419e-06
1.15676e-06
1.15896e-06
1.09759e-06
1.10322e-06
1.10851e-06
1.11339e-06
1.11786e-06
1.12192e-06
1.12556e-06
1.1288e-06
1.13162e-06
1.13403e-06
1.06667e-06
1.07278e-06
1.07851e-06
1.0838e-06
1.08867e-06
1.09309e-06
1.09707e-06
1.1006e-06
1.10368e-06
1.10632e-06
1.03256e-06
1.03915e-06
1.04533e-06
1.05107e-06
1.05633e-06
1.06113e-06
1.06545e-06
1.06929e-06
1.07265e-06
1.07553e-06
9.94925e-07
1.00201e-06
1.00867e-06
1.01485e-06
1.02053e-06
1.02572e-06
1.03039e-06
1.03455e-06
1.0382e-06
1.04132e-06
9.53426e-07
9.61022e-07
9.68155e-07
9.74785e-07
9.80898e-07
9.86479e-07
9.9152e-07
9.9601e-07
9.99945e-07
1.00332e-06
9.077e-07
9.15802e-07
9.23415e-07
9.30501e-07
9.37044e-07
9.43027e-07
9.48435e-07
9.53259e-07
9.5749e-07
9.61123e-07
8.57382e-07
8.65979e-07
8.7406e-07
8.81595e-07
8.88563e-07
8.94943e-07
9.00717e-07
9.05873e-07
9.10401e-07
9.14291e-07
8.02132e-07
8.11192e-07
8.19715e-07
8.27676e-07
8.35049e-07
8.41811e-07
8.47939e-07
8.53417e-07
8.58232e-07
8.62374e-07
7.4168e-07
7.51144e-07
7.60057e-07
7.68399e-07
7.76139e-07
7.83249e-07
7.89702e-07
7.95478e-07
8.00562e-07
8.04939e-07
6.75901e-07
6.85674e-07
6.94891e-07
7.03537e-07
7.11575e-07
7.18973e-07
7.25699e-07
7.31729e-07
7.37042e-07
7.41623e-07
6.04932e-07
6.14865e-07
6.24252e-07
6.33081e-07
6.4131e-07
6.48899e-07
6.55813e-07
6.62023e-07
6.67503e-07
6.72234e-07
5.29328e-07
5.39211e-07
5.48576e-07
5.5741e-07
5.65668e-07
5.73303e-07
5.80276e-07
5.86552e-07
5.92101e-07
5.96899e-07
4.50279e-07
4.59828e-07
4.68906e-07
4.77502e-07
4.85564e-07
4.93042e-07
4.99891e-07
5.0607e-07
5.11547e-07
5.16291e-07
3.698e-07
3.78669e-07
3.87134e-07
3.95183e-07
4.02763e-07
4.0982e-07
4.16304e-07
4.22173e-07
4.27388e-07
4.31916e-07
2.90834e-07
2.9865e-07
3.06144e-07
3.13304e-07
3.20077e-07
3.26409e-07
3.3225e-07
3.37554e-07
3.42282e-07
3.46399e-07
2.1705e-07
2.2349e-07
2.29694e-07
2.35652e-07
2.41314e-07
2.46631e-07
2.51555e-07
2.56045e-07
2.6006e-07
2.63566e-07
1.52214e-07
1.57099e-07
1.61826e-07
1.66388e-07
1.70743e-07
1.74851e-07
1.7867e-07
1.82165e-07
1.85301e-07
1.88047e-07
9.92321e-08
1.02596e-07
1.05863e-07
1.09028e-07
1.12061e-07
1.14932e-07
1.1761e-07
1.20069e-07
1.22282e-07
1.24224e-07
5.93359e-08
6.1409e-08
6.34267e-08
6.53866e-08
6.72699e-08
6.9057e-08
7.07287e-08
7.22664e-08
7.3653e-08
7.48729e-08
3.18847e-08
3.30069e-08
3.40999e-08
3.51631e-08
3.61862e-08
3.71583e-08
3.80687e-08
3.89072e-08
3.96642e-08
4.03307e-08
1.48558e-08
1.53715e-08
1.58734e-08
1.63617e-08
1.68317e-08
1.72783e-08
1.76968e-08
1.80823e-08
1.84303e-08
1.87369e-08
5.60477e-09
5.79195e-09
5.9738e-09
6.15054e-09
6.3205e-09
6.48192e-09
6.63303e-09
6.77216e-09
6.89772e-09
7.00827e-09
1.48371e-09
1.52931e-09
1.57345e-09
1.61624e-09
1.65731e-09
1.69623e-09
1.73261e-09
1.76605e-09
1.79618e-09
1.82267e-09
1.95791e-10
2.00688e-10
2.05386e-10
2.09916e-10
2.14243e-10
2.18325e-10
2.22124e-10
2.25603e-10
2.28728e-10
2.31468e-10
5.39054e-12
5.45912e-12
5.5231e-12
5.58402e-12
5.64156e-12
5.6953e-12
5.74486e-12
5.78988e-12
5.83001e-12
5.86497e-12
1.26994e-06
1.26957e-06
1.26957e-06
1.26994e-06
1.27068e-06
1.27177e-06
1.27321e-06
1.27498e-06
1.27706e-06
1.27942e-06
1.28203e-06
1.28486e-06
1.28787e-06
1.29102e-06
1.29424e-06
1.2975e-06
1.30078e-06
1.27713e-06
1.27677e-06
1.27677e-06
1.27713e-06
1.27783e-06
1.27887e-06
1.28025e-06
1.28193e-06
1.28391e-06
1.28616e-06
1.28865e-06
1.29134e-06
1.2942e-06
1.29718e-06
1.30023e-06
1.30331e-06
1.3064e-06
1.28388e-06
1.28354e-06
1.28354e-06
1.28388e-06
1.28454e-06
1.28554e-06
1.28684e-06
1.28844e-06
1.29032e-06
1.29246e-06
1.29482e-06
1.29737e-06
1.30008e-06
1.3029e-06
1.30578e-06
1.30867e-06
1.31158e-06
1.29299e-06
1.29175e-06
1.29081e-06
1.29018e-06
1.28986e-06
1.28986e-06
1.29018e-06
1.29081e-06
1.29175e-06
1.29299e-06
1.29451e-06
1.29629e-06
1.29831e-06
1.30054e-06
1.30295e-06
1.3055e-06
1.30816e-06
1.31086e-06
1.31357e-06
1.31629e-06
1.29867e-06
1.29751e-06
1.29662e-06
1.29602e-06
1.29572e-06
1.29572e-06
1.29602e-06
1.29662e-06
1.29751e-06
1.29867e-06
1.30011e-06
1.30179e-06
1.30369e-06
1.30579e-06
1.30806e-06
1.31046e-06
1.31295e-06
1.31548e-06
1.318e-06
1.32052e-06
1.30389e-06
1.30279e-06
1.30195e-06
1.30139e-06
1.3011e-06
1.3011e-06
1.30139e-06
1.30195e-06
1.30279e-06
1.30389e-06
1.30524e-06
1.30681e-06
1.3086e-06
1.31057e-06
1.31269e-06
1.31493e-06
1.31725e-06
1.31961e-06
1.32194e-06
1.32427e-06
1.30862e-06
1.30759e-06
1.30681e-06
1.30628e-06
1.30601e-06
1.30601e-06
1.30628e-06
1.30681e-06
1.30759e-06
1.30862e-06
1.30988e-06
1.31135e-06
1.31302e-06
1.31485e-06
1.31683e-06
1.31891e-06
1.32106e-06
1.32324e-06
1.32539e-06
1.32752e-06
1.31285e-06
1.31189e-06
1.31116e-06
1.31067e-06
1.31042e-06
1.31042e-06
1.31067e-06
1.31116e-06
1.31189e-06
1.31285e-06
1.31402e-06
1.31539e-06
1.31694e-06
1.31864e-06
1.32046e-06
1.32239e-06
1.32436e-06
1.32635e-06
1.32831e-06
1.33024e-06
1.31656e-06
1.31568e-06
1.315e-06
1.31455e-06
1.31432e-06
1.31432e-06
1.31455e-06
1.315e-06
1.31568e-06
1.31656e-06
1.31765e-06
1.31891e-06
1.32034e-06
1.3219e-06
1.32358e-06
1.32533e-06
1.32714e-06
1.32894e-06
1.33071e-06
1.33244e-06
1.31975e-06
1.31894e-06
1.31832e-06
1.3179e-06
1.31769e-06
1.31769e-06
1.3179e-06
1.31832e-06
1.31894e-06
1.31975e-06
1.32074e-06
1.3219e-06
1.3232e-06
1.32462e-06
1.32615e-06
1.32774e-06
1.32937e-06
1.33098e-06
1.33255e-06
1.33408e-06
1.32238e-06
1.32164e-06
1.32108e-06
1.3207e-06
1.32051e-06
1.32051e-06
1.3207e-06
1.32108e-06
1.32164e-06
1.32238e-06
1.32328e-06
1.32433e-06
1.32551e-06
1.32679e-06
1.32816e-06
1.32959e-06
1.33103e-06
1.33246e-06
1.33382e-06
1.33514e-06
1.32445e-06
1.32378e-06
1.32328e-06
1.32293e-06
1.32276e-06
1.32276e-06
1.32293e-06
1.32328e-06
1.32378e-06
1.32445e-06
1.32526e-06
1.32619e-06
1.32724e-06
1.32838e-06
1.32959e-06
1.33085e-06
1.33211e-06
1.33334e-06
1.3345e-06
1.33561e-06
1.32592e-06
1.32533e-06
1.32488e-06
1.32457e-06
1.32442e-06
1.32442e-06
1.32457e-06
1.32488e-06
1.32533e-06
1.32592e-06
1.32663e-06
1.32746e-06
1.32838e-06
1.32937e-06
1.33042e-06
1.3315e-06
1.33257e-06
1.33361e-06
1.33456e-06
1.33545e-06
1.32677e-06
1.32626e-06
1.32587e-06
1.3256e-06
1.32547e-06
1.32547e-06
1.3256e-06
1.32587e-06
1.32626e-06
1.32677e-06
1.32739e-06
1.3281e-06
1.32889e-06
1.32974e-06
1.33062e-06
1.33152e-06
1.3324e-06
1.33323e-06
1.33397e-06
1.33465e-06
1.32698e-06
1.32655e-06
1.32621e-06
1.32599e-06
1.32587e-06
1.32587e-06
1.32599e-06
1.32621e-06
1.32655e-06
1.32698e-06
1.3275e-06
1.32809e-06
1.32875e-06
1.32944e-06
1.33016e-06
1.33088e-06
1.33157e-06
1.33219e-06
1.33271e-06
1.33316e-06
1.32651e-06
1.32616e-06
1.32589e-06
1.3257e-06
1.32561e-06
1.32561e-06
1.3257e-06
1.32589e-06
1.32616e-06
1.32651e-06
1.32693e-06
1.3274e-06
1.32792e-06
1.32846e-06
1.32901e-06
1.32954e-06
1.33003e-06
1.33044e-06
1.33074e-06
1.33096e-06
1.32533e-06
1.32506e-06
1.32485e-06
1.32471e-06
1.32463e-06
1.32463e-06
1.32471e-06
1.32485e-06
1.32506e-06
1.32533e-06
1.32565e-06
1.326e-06
1.32638e-06
1.32676e-06
1.32713e-06
1.32747e-06
1.32776e-06
1.32795e-06
1.32803e-06
1.32801e-06
1.3234e-06
1.32322e-06
1.32307e-06
1.32297e-06
1.32292e-06
1.32292e-06
1.32297e-06
1.32307e-06
1.32322e-06
1.3234e-06
1.32361e-06
1.32384e-06
1.32408e-06
1.3243e-06
1.32449e-06
1.32464e-06
1.32471e-06
1.32468e-06
1.32452e-06
1.32427e-06
1.32068e-06
1.32059e-06
1.3205e-06
1.32045e-06
1.32041e-06
1.32041e-06
1.32045e-06
1.3205e-06
1.32059e-06
1.32068e-06
1.32079e-06
1.32089e-06
1.32098e-06
1.32104e-06
1.32105e-06
1.32099e-06
1.32085e-06
1.32059e-06
1.32019e-06
1.31968e-06
1.31713e-06
1.31712e-06
1.31711e-06
1.31709e-06
1.31708e-06
1.31708e-06
1.31709e-06
1.31711e-06
1.31712e-06
1.31713e-06
1.31713e-06
1.3171e-06
1.31704e-06
1.31692e-06
1.31675e-06
1.31648e-06
1.31612e-06
1.31563e-06
1.31498e-06
1.31421e-06
1.31269e-06
1.31277e-06
1.31283e-06
1.31286e-06
1.31287e-06
1.31287e-06
1.31286e-06
1.31283e-06
1.31277e-06
1.31269e-06
1.31258e-06
1.31242e-06
1.3122e-06
1.31191e-06
1.31154e-06
1.31106e-06
1.31047e-06
1.30973e-06
1.30883e-06
1.3078e-06
1.30731e-06
1.30749e-06
1.30761e-06
1.30769e-06
1.30773e-06
1.30773e-06
1.30769e-06
1.30761e-06
1.30749e-06
1.30731e-06
1.30708e-06
1.30678e-06
1.3064e-06
1.30594e-06
1.30536e-06
1.30467e-06
1.30384e-06
1.30285e-06
1.30168e-06
1.30038e-06
1.30092e-06
1.30119e-06
1.30139e-06
1.30152e-06
1.30158e-06
1.30158e-06
1.30152e-06
1.30139e-06
1.30119e-06
1.30092e-06
1.30057e-06
1.30013e-06
1.29959e-06
1.29893e-06
1.29816e-06
1.29724e-06
1.29617e-06
1.29492e-06
1.29347e-06
1.29189e-06
1.29346e-06
1.29383e-06
1.2941e-06
1.29428e-06
1.29436e-06
1.29436e-06
1.29428e-06
1.2941e-06
1.29383e-06
1.29346e-06
1.29298e-06
1.2924e-06
1.29168e-06
1.29084e-06
1.28984e-06
1.28869e-06
1.28737e-06
1.28585e-06
1.28413e-06
1.28224e-06
1.28484e-06
1.28531e-06
1.28566e-06
1.28588e-06
1.286e-06
1.286e-06
1.28588e-06
1.28566e-06
1.28531e-06
1.28484e-06
1.28423e-06
1.28349e-06
1.28261e-06
1.28156e-06
1.28035e-06
1.27895e-06
1.27737e-06
1.27557e-06
1.27355e-06
1.27136e-06
1.27497e-06
1.27554e-06
1.27597e-06
1.27626e-06
1.2764e-06
1.2764e-06
1.27626e-06
1.27597e-06
1.27554e-06
1.27497e-06
1.27423e-06
1.27333e-06
1.27226e-06
1.27101e-06
1.26957e-06
1.26793e-06
1.26607e-06
1.26399e-06
1.26166e-06
1.25915e-06
1.26375e-06
1.26444e-06
1.26495e-06
1.26529e-06
1.26546e-06
1.26546e-06
1.26529e-06
1.26495e-06
1.26444e-06
1.26375e-06
1.26288e-06
1.26182e-06
1.26056e-06
1.25909e-06
1.25741e-06
1.25551e-06
1.25337e-06
1.25099e-06
1.24834e-06
1.2455e-06
1.25108e-06
1.25188e-06
1.25248e-06
1.25287e-06
1.25307e-06
1.25307e-06
1.25287e-06
1.25248e-06
1.25188e-06
1.25108e-06
1.25006e-06
1.24883e-06
1.24738e-06
1.24569e-06
1.24376e-06
1.24159e-06
1.23916e-06
1.23646e-06
1.23348e-06
1.23029e-06
1.23682e-06
1.23774e-06
1.23843e-06
1.23888e-06
1.23911e-06
1.23911e-06
1.23888e-06
1.23843e-06
1.23774e-06
1.23682e-06
1.23566e-06
1.23425e-06
1.23259e-06
1.23067e-06
1.22849e-06
1.22603e-06
1.22329e-06
1.22027e-06
1.21695e-06
1.21339e-06
1.22083e-06
1.22188e-06
1.22266e-06
1.22318e-06
1.22344e-06
1.22344e-06
1.22318e-06
1.22266e-06
1.22188e-06
1.22083e-06
1.21952e-06
1.21792e-06
1.21605e-06
1.21389e-06
1.21144e-06
1.20869e-06
1.20563e-06
1.20227e-06
1.19858e-06
1.19465e-06
1.20296e-06
1.20413e-06
1.20501e-06
1.20559e-06
1.20588e-06
1.20588e-06
1.20559e-06
1.20501e-06
1.20413e-06
1.20296e-06
1.20148e-06
1.19969e-06
1.1976e-06
1.19519e-06
1.19245e-06
1.1894e-06
1.18601e-06
1.18229e-06
1.17823e-06
1.1739e-06
1.18301e-06
1.18432e-06
1.1853e-06
1.18595e-06
1.18627e-06
1.18627e-06
1.18595e-06
1.1853e-06
1.18432e-06
1.18301e-06
1.18136e-06
1.17938e-06
1.17705e-06
1.17437e-06
1.17135e-06
1.16797e-06
1.16424e-06
1.16015e-06
1.1557e-06
1.15095e-06
1.16078e-06
1.16223e-06
1.16332e-06
1.16404e-06
1.1644e-06
1.1644e-06
1.16404e-06
1.16332e-06
1.16223e-06
1.16078e-06
1.15896e-06
1.15676e-06
1.15419e-06
1.15125e-06
1.14792e-06
1.1442e-06
1.14011e-06
1.13563e-06
1.13077e-06
1.12559e-06
1.13604e-06
1.13764e-06
1.13884e-06
1.13963e-06
1.14003e-06
1.14003e-06
1.13963e-06
1.13884e-06
1.13764e-06
1.13604e-06
1.13403e-06
1.13162e-06
1.1288e-06
1.12556e-06
1.12192e-06
1.11786e-06
1.11339e-06
1.10851e-06
1.10322e-06
1.09759e-06
1.10852e-06
1.11027e-06
1.11159e-06
1.11246e-06
1.1129e-06
1.1129e-06
1.11246e-06
1.11159e-06
1.11027e-06
1.10852e-06
1.10632e-06
1.10368e-06
1.1006e-06
1.09707e-06
1.09309e-06
1.08867e-06
1.0838e-06
1.07851e-06
1.07278e-06
1.06667e-06
1.07793e-06
1.07984e-06
1.08127e-06
1.08223e-06
1.08271e-06
1.08271e-06
1.08223e-06
1.08128e-06
1.07984e-06
1.07793e-06
1.07553e-06
1.07265e-06
1.06929e-06
1.06545e-06
1.06113e-06
1.05633e-06
1.05107e-06
1.04533e-06
1.03915e-06
1.03256e-06
1.04392e-06
1.046e-06
1.04756e-06
1.0486e-06
1.04912e-06
1.04912e-06
1.0486e-06
1.04756e-06
1.046e-06
1.04392e-06
1.04132e-06
1.0382e-06
1.03455e-06
1.03039e-06
1.02572e-06
1.02053e-06
1.01485e-06
1.00867e-06
1.00201e-06
9.94925e-07
1.00613e-06
1.00839e-06
1.01007e-06
1.0112e-06
1.01176e-06
1.01176e-06
1.0112e-06
1.01007e-06
1.00839e-06
1.00613e-06
1.00332e-06
9.99945e-07
9.9601e-07
9.9152e-07
9.86479e-07
9.80898e-07
9.74785e-07
9.68155e-07
9.61021e-07
9.53426e-07
9.64153e-07
9.6658e-07
9.684e-07
9.69614e-07
9.70221e-07
9.70221e-07
9.69614e-07
9.684e-07
9.6658e-07
9.64153e-07
9.61123e-07
9.5749e-07
9.53259e-07
9.48435e-07
9.43027e-07
9.37044e-07
9.30501e-07
9.23415e-07
9.15802e-07
9.077e-07
9.17539e-07
9.20141e-07
9.22094e-07
9.23397e-07
9.24048e-07
9.24048e-07
9.23397e-07
9.22094e-07
9.20141e-07
9.17539e-07
9.14291e-07
9.10401e-07
9.05873e-07
9.00717e-07
8.94943e-07
8.88563e-07
8.81595e-07
8.7406e-07
8.65979e-07
8.57382e-07
8.65835e-07
8.68609e-07
8.70692e-07
8.72083e-07
8.72778e-07
8.72778e-07
8.72083e-07
8.70692e-07
8.68609e-07
8.65835e-07
8.62374e-07
8.58232e-07
8.53417e-07
8.47939e-07
8.41811e-07
8.35049e-07
8.27676e-07
8.19715e-07
8.11192e-07
8.02132e-07
8.08599e-07
8.11535e-07
8.13741e-07
8.15214e-07
8.15951e-07
8.15951e-07
8.15214e-07
8.13741e-07
8.11535e-07
8.08599e-07
8.04939e-07
8.00562e-07
7.95479e-07
7.89702e-07
7.83249e-07
7.76139e-07
7.68399e-07
7.60057e-07
7.51144e-07
7.4168e-07
7.45457e-07
7.48535e-07
7.5085e-07
7.52396e-07
7.5317e-07
7.5317e-07
7.52396e-07
7.5085e-07
7.48535e-07
7.45457e-07
7.41623e-07
7.37043e-07
7.31729e-07
7.25699e-07
7.18973e-07
7.11575e-07
7.03537e-07
6.94891e-07
6.85674e-07
6.75901e-07
6.76199e-07
6.79385e-07
6.81782e-07
6.83384e-07
6.84186e-07
6.84186e-07
6.83384e-07
6.81782e-07
6.79385e-07
6.76199e-07
6.72234e-07
6.67503e-07
6.62023e-07
6.55813e-07
6.48899e-07
6.4131e-07
6.33081e-07
6.24252e-07
6.14865e-07
6.04931e-07
6.00926e-07
6.04165e-07
6.06605e-07
6.08236e-07
6.09053e-07
6.09053e-07
6.08236e-07
6.06605e-07
6.04165e-07
6.00926e-07
5.96899e-07
5.92101e-07
5.86552e-07
5.80276e-07
5.73303e-07
5.65668e-07
5.5741e-07
5.48576e-07
5.39211e-07
5.29328e-07
5.20279e-07
5.23492e-07
5.25914e-07
5.27535e-07
5.28347e-07
5.28347e-07
5.27535e-07
5.25914e-07
5.23492e-07
5.20279e-07
5.16291e-07
5.11547e-07
5.0607e-07
4.99891e-07
4.93042e-07
4.85564e-07
4.77502e-07
4.68906e-07
4.59828e-07
4.50278e-07
4.3573e-07
4.38807e-07
4.41131e-07
4.42687e-07
4.43467e-07
4.43467e-07
4.42687e-07
4.41131e-07
4.38807e-07
4.3573e-07
4.31916e-07
4.27388e-07
4.22173e-07
4.16304e-07
4.0982e-07
4.02763e-07
3.95183e-07
3.87134e-07
3.78669e-07
3.698e-07
3.49874e-07
3.52683e-07
3.54807e-07
3.56231e-07
3.56946e-07
3.56946e-07
3.56231e-07
3.54807e-07
3.52683e-07
3.49874e-07
3.46398e-07
3.42282e-07
3.37554e-07
3.3225e-07
3.26409e-07
3.20077e-07
3.13304e-07
3.06144e-07
2.9865e-07
2.90834e-07
2.66533e-07
2.68937e-07
2.70757e-07
2.71979e-07
2.72592e-07
2.72592e-07
2.71979e-07
2.70757e-07
2.68937e-07
2.66533e-07
2.63566e-07
2.6006e-07
2.56045e-07
2.51556e-07
2.46631e-07
2.41314e-07
2.35652e-07
2.29694e-07
2.2349e-07
2.1705e-07
1.90377e-07
1.92269e-07
1.93704e-07
1.94668e-07
1.95153e-07
1.95153e-07
1.94668e-07
1.93704e-07
1.92269e-07
1.90377e-07
1.88047e-07
1.85301e-07
1.82165e-07
1.7867e-07
1.74851e-07
1.70743e-07
1.66388e-07
1.61826e-07
1.57099e-07
1.52214e-07
1.25876e-07
1.2722e-07
1.2824e-07
1.28927e-07
1.29272e-07
1.29272e-07
1.28927e-07
1.2824e-07
1.2722e-07
1.25876e-07
1.24224e-07
1.22282e-07
1.20069e-07
1.1761e-07
1.14932e-07
1.12061e-07
1.09028e-07
1.05863e-07
1.02596e-07
9.92321e-08
7.59116e-08
7.67577e-08
7.74011e-08
7.78342e-08
7.80521e-08
7.80521e-08
7.78342e-08
7.74011e-08
7.67577e-08
7.59117e-08
7.48728e-08
7.3653e-08
7.22664e-08
7.07287e-08
6.9057e-08
6.72699e-08
6.53866e-08
6.34267e-08
6.1409e-08
5.93359e-08
4.08989e-08
4.1362e-08
4.17143e-08
4.19516e-08
4.2071e-08
4.2071e-08
4.19516e-08
4.17143e-08
4.1362e-08
4.08989e-08
4.03307e-08
3.96642e-08
3.89072e-08
3.80687e-08
3.71583e-08
3.61862e-08
3.51631e-08
3.40999e-08
3.30069e-08
3.18847e-08
1.89983e-08
1.92114e-08
1.93735e-08
1.94827e-08
1.95377e-08
1.95377e-08
1.94827e-08
1.93735e-08
1.92114e-08
1.89983e-08
1.87369e-08
1.84303e-08
1.80823e-08
1.76968e-08
1.72783e-08
1.68317e-08
1.63617e-08
1.58734e-08
1.53715e-08
1.48558e-08
7.10246e-09
7.17925e-09
7.23766e-09
7.277e-09
7.29679e-09
7.29679e-09
7.277e-09
7.23766e-09
7.17925e-09
7.10248e-09
7.00826e-09
6.89772e-09
6.77216e-09
6.63303e-09
6.48192e-09
6.3205e-09
6.15054e-09
5.97379e-09
5.79195e-09
5.60477e-09
1.84522e-09
1.86359e-09
1.87755e-09
1.88695e-09
1.89168e-09
1.89168e-09
1.88695e-09
1.87755e-09
1.86359e-09
1.84523e-09
1.82267e-09
1.79618e-09
1.76605e-09
1.73261e-09
1.69623e-09
1.65731e-09
1.61624e-09
1.57345e-09
1.52931e-09
1.48371e-09
2.33794e-10
2.35685e-10
2.3712e-10
2.38084e-10
2.38569e-10
2.38569e-10
2.38084e-10
2.3712e-10
2.35685e-10
2.33794e-10
2.31468e-10
2.28728e-10
2.25603e-10
2.22124e-10
2.18325e-10
2.14243e-10
2.09916e-10
2.05386e-10
2.00688e-10
1.95791e-10
5.89448e-12
5.91836e-12
5.93642e-12
5.94854e-12
5.95461e-12
5.95461e-12
5.94854e-12
5.93642e-12
5.91836e-12
5.89449e-12
5.86496e-12
5.83001e-12
5.78988e-12
5.74486e-12
5.6953e-12
5.64155e-12
5.58402e-12
5.5231e-12
5.45912e-12
5.39054e-12
)
;

boundaryField
{
    inlet
    {
        type            cyclic;
    }
    outlet
    {
        type            cyclic;
    }
    wall
    {
        type            fixedValue;
        value           uniform 1e-30;
    }
    procBoundary3to0
    {
        type            processor;
        value           nonuniform List<scalar> 
32
(
1.26288e-06
1.25006e-06
1.23566e-06
1.21952e-06
1.20148e-06
1.18136e-06
1.15896e-06
1.13403e-06
1.10632e-06
1.07553e-06
1.04132e-06
1.00332e-06
9.61123e-07
9.14291e-07
8.62374e-07
8.04939e-07
7.41623e-07
6.72234e-07
5.96899e-07
5.16291e-07
4.31916e-07
3.46399e-07
2.63566e-07
1.88047e-07
1.24224e-07
7.48729e-08
4.03307e-08
1.87369e-08
7.00827e-09
1.82267e-09
2.31468e-10
5.86497e-12
)
;
    }
    procBoundary3to1
    {
        type            processor;
        value           nonuniform List<scalar> 
23
(
1.29451e-06
1.30011e-06
1.30523e-06
1.30988e-06
1.31402e-06
1.31765e-06
1.32074e-06
1.32328e-06
1.32526e-06
1.32663e-06
1.32739e-06
1.3275e-06
1.32693e-06
1.32565e-06
1.32361e-06
1.32079e-06
1.31713e-06
1.31258e-06
1.30708e-06
1.30057e-06
1.29298e-06
1.28423e-06
1.27423e-06
)
;
    }
    procBoundary3to2
    {
        type            processor;
        value           nonuniform List<scalar> 
60
(
1.27068e-06
1.27783e-06
1.28454e-06
1.29081e-06
1.29662e-06
1.30195e-06
1.30681e-06
1.31189e-06
1.31189e-06
1.31568e-06
1.31894e-06
1.32164e-06
1.32378e-06
1.32533e-06
1.32626e-06
1.32655e-06
1.32616e-06
1.32506e-06
1.32322e-06
1.32059e-06
1.31712e-06
1.31277e-06
1.30749e-06
1.30119e-06
1.29383e-06
1.28484e-06
1.28484e-06
1.27497e-06
1.26375e-06
1.25108e-06
1.23682e-06
1.22083e-06
1.20296e-06
1.18301e-06
1.16078e-06
1.13604e-06
1.10852e-06
1.07793e-06
1.04392e-06
1.00613e-06
9.64153e-07
9.17539e-07
8.65835e-07
8.08599e-07
7.45457e-07
6.76199e-07
6.00926e-07
5.20279e-07
4.3573e-07
3.49874e-07
2.66533e-07
1.90377e-07
1.25876e-07
7.59116e-08
4.08989e-08
1.89983e-08
7.10247e-09
1.84522e-09
2.33794e-10
5.89448e-12
)
;
    }
    procBoundary3to4
    {
        type            processor;
        value           nonuniform List<scalar> 
13
(
1.26232e-06
1.26194e-06
1.26194e-06
1.26232e-06
1.26309e-06
1.26424e-06
1.26575e-06
1.27068e-06
1.27783e-06
1.28684e-06
1.28554e-06
1.28454e-06
1.28454e-06
)
;
    }
    procBoundary3to5
    {
        type            processor;
        value           nonuniform List<scalar> 
22
(
1.29472e-06
1.29125e-06
1.28781e-06
1.28441e-06
1.28111e-06
1.27795e-06
1.27498e-06
1.27224e-06
1.26977e-06
1.2676e-06
1.26574e-06
1.26424e-06
1.2676e-06
1.26977e-06
1.27224e-06
1.27498e-06
1.27795e-06
1.28111e-06
1.28441e-06
1.28781e-06
1.29125e-06
1.29472e-06
)
;
    }
}


// ************************************************************************* //
