/*--------------------------------*- C++ -*----------------------------------*\
  =========                 |
  \\      /  F ield         | OpenFOAM: The Open Source CFD Toolbox
   \\    /   O peration     | Website:  https://openfoam.org
    \\  /    A nd           | Version:  7
     \\/     M anipulation  |
\*---------------------------------------------------------------------------*/
FoamFile
{
    version     2.0;
    format      ascii;
    class       surfaceScalarField;
    location    "56000";
    object      phi;
}
// * * * * * * * * * * * * * * * * * * * * * * * * * * * * * * * * * * * * * //

dimensions      [0 3 -1 0 0 0 0];

internalField   nonuniform List<scalar> 
3434
(
3.49293e-23
2.19543e-23
-9.46642e-24
2.17651e-23
2.43316e-22
4.40832e-23
-1.19487e-22
4.58024e-23
2.99226e-22
2.04082e-23
7.81034e-23
8.87449e-24
5.97784e-23
8.49647e-24
6.45965e-23
-1.16879e-24
2.43958e-24
-1.73715e-23
-6.48012e-23
1.25657e-23
1.01449e-22
1.84314e-23
3.16895e-22
-1.66517e-23
3.5759e-23
3.36784e-23
-1.3516e-23
1.81235e-23
1.73677e-22
4.38828e-23
1.93495e-22
4.854e-23
2.94304e-22
1.7265e-23
-6.12242e-23
1.16735e-23
1.92213e-22
2.59358e-24
9.2759e-23
4.17708e-24
3.95348e-22
-1.8335e-23
-1.38085e-22
2.11819e-23
2.82146e-22
1.31605e-23
-9.53316e-23
2.09072e-23
4.05217e-23
1.08538e-22
-1.30763e-23
2.08869e-23
1.40771e-22
4.22517e-23
2.94478e-22
4.65767e-23
3.44263e-22
1.15183e-23
5.53978e-23
1.2643e-23
2.08709e-22
4.81807e-24
1.30183e-22
-2.44141e-24
3.96512e-22
-1.60252e-23
-1.50138e-22
1.78771e-23
1.96358e-22
1.86183e-23
-1.36513e-22
-3.82114e-22
4.08798e-23
1.03774e-22
-1.52965e-23
2.3665e-23
1.18759e-22
4.19444e-23
2.13497e-22
4.37081e-23
3.57768e-22
1.35143e-23
2.88232e-24
1.19345e-23
1.49259e-22
6.87502e-24
7.19903e-23
-9.58319e-24
4.20899e-22
-1.16109e-23
7.49451e-23
1.49561e-23
2.09878e-22
1.60336e-23
6.61556e-23
-3.30949e-22
4.32024e-23
8.11745e-23
-1.45348e-23
2.21913e-23
1.77346e-23
4.12746e-23
2.24112e-22
3.98309e-23
1.99804e-22
1.23009e-23
3.39022e-23
1.24893e-23
1.22891e-22
7.22155e-24
4.01454e-23
-8.46419e-24
3.34278e-22
-1.61939e-23
-1.39652e-23
1.64262e-23
1.99494e-22
1.20074e-23
-3.78842e-23
-8.42666e-23
4.08546e-23
3.80351e-23
-1.72036e-23
2.64592e-23
5.25151e-23
4.08066e-23
2.5711e-22
3.49451e-23
-1.09892e-24
1.243e-23
-2.14331e-23
1.31524e-23
7.11108e-23
8.65156e-24
1.2632e-22
-1.10333e-23
3.69941e-22
-1.8149e-23
3.99143e-23
1.58691e-23
3.80847e-22
1.21449e-23
-7.14959e-23
-2.4244e-23
4.29368e-23
-9.46298e-25
-1.90543e-23
2.72667e-23
-3.01205e-24
3.81096e-23
2.66534e-22
3.58147e-23
-1.25873e-22
9.2798e-24
6.14807e-23
1.50408e-23
1.09679e-22
8.57196e-24
7.87164e-23
-9.55906e-24
5.58191e-22
-1.82051e-23
1.2236e-22
1.32641e-23
5.08045e-22
1.51262e-23
4.17293e-23
4.44906e-23
-2.08168e-22
-1.76925e-23
2.64267e-23
-1.06516e-22
3.7196e-23
1.15811e-22
3.43119e-23
-1.27856e-22
7.56878e-24
-9.81215e-23
1.55547e-23
1.24004e-22
1.06098e-23
8.1332e-24
-9.86911e-24
3.73273e-22
-1.746e-23
1.86759e-22
1.23391e-23
5.02362e-22
-8.89209e-24
4.60761e-23
-2.3688e-22
-1.3674e-23
2.42575e-23
-2.07138e-22
3.87014e-23
2.14391e-22
3.64903e-23
-2.03356e-22
6.00592e-24
-1.59419e-22
1.61917e-23
1.47096e-22
1.35679e-23
-7.21026e-25
-1.01231e-23
2.71726e-22
-1.82143e-23
1.61555e-22
1.00324e-23
3.43898e-22
-8.78292e-23
4.50649e-23
-2.53298e-22
-1.06108e-23
2.72825e-23
-1.80681e-22
3.6377e-23
3.05383e-22
3.52499e-23
-2.52766e-23
5.46722e-24
-3.39994e-22
1.71952e-23
5.0565e-22
1.30022e-23
-1.80518e-22
-1.01598e-23
1.22892e-22
-2.03433e-23
7.2867e-23
1.01962e-23
4.09164e-22
-1.62427e-22
4.69444e-23
-2.09724e-22
-6.1019e-24
2.9066e-23
-2.20831e-22
3.59734e-23
2.34025e-22
3.22555e-23
-1.71575e-24
8.63438e-24
-2.48044e-22
1.13637e-23
3.78614e-22
1.58036e-23
-1.39864e-22
-7.51496e-24
1.20032e-22
-2.26589e-23
5.71584e-23
7.74443e-24
3.71377e-22
-1.35554e-22
4.85801e-23
9.61658e-23
-1.23616e-24
3.02272e-23
-1.51158e-22
3.37262e-23
2.4078e-22
3.21876e-23
7.63372e-23
1.09685e-23
-2.3921e-22
7.43924e-24
3.31018e-22
1.58555e-23
1.08324e-22
-6.50858e-24
6.60643e-24
-2.22164e-23
-1.87637e-22
6.59901e-24
4.13029e-22
-1.04602e-22
4.46524e-23
2.6931e-22
-2.29823e-24
3.3579e-23
-2.06129e-24
3.22405e-23
3.37578e-23
3.25767e-23
9.98238e-23
1.14444e-23
-1.25637e-22
6.52527e-24
5.7189e-22
1.50794e-23
3.36597e-22
-8.02649e-24
1.21036e-23
-1.92604e-23
-9.09467e-23
5.64642e-24
3.22362e-22
-7.17614e-23
4.22136e-23
2.02429e-22
-4.49433e-24
3.48218e-23
3.9994e-22
3.47956e-23
3.87928e-23
3.21267e-23
2.80609e-22
1.14535e-23
-2.52585e-22
3.69299e-24
2.95189e-22
1.125e-23
1.85445e-22
-7.29633e-24
-1.7569e-22
-1.8103e-23
-8.02301e-23
6.96243e-24
4.54211e-22
-4.5256e-23
4.27289e-23
7.88491e-23
-5.87492e-24
3.12259e-23
3.12979e-22
3.35792e-23
1.72611e-22
3.09577e-23
3.01269e-22
9.16605e-24
-2.25804e-22
4.46453e-24
2.65219e-22
7.19861e-24
6.40806e-23
-4.71161e-24
-1.55658e-22
-1.68787e-23
-1.25728e-22
7.48681e-24
4.46501e-22
7.11476e-23
4.24166e-23
1.5773e-22
-5.85213e-24
3.21464e-23
2.85628e-22
3.39643e-23
-2.23314e-23
2.72578e-23
1.43857e-22
1.08442e-23
-1.89913e-22
2.65577e-24
2.45684e-22
6.39555e-24
6.5895e-23
-4.389e-24
2.59058e-23
-1.43144e-23
-6.19603e-23
8.17377e-24
4.78604e-22
1.01104e-22
4.27014e-23
-2.36676e-23
-5.67086e-24
3.20336e-23
5.06426e-22
3.19802e-23
-1.23773e-22
2.70595e-23
-3.97079e-24
1.13807e-23
-1.63734e-22
8.22084e-25
2.1797e-22
5.79342e-24
-3.33638e-23
-5.19293e-24
7.26873e-23
-1.23179e-23
-8.14147e-23
7.8573e-24
4.64469e-22
4.93476e-23
4.15707e-23
-1.14017e-22
-5.69915e-24
3.26984e-23
4.94333e-22
3.07116e-23
-2.48875e-22
2.95845e-23
2.21562e-22
1.01106e-23
-2.8691e-22
-1.02555e-24
9.76949e-23
5.32579e-24
6.24396e-23
-4.80706e-24
8.91588e-23
-1.03137e-23
-1.09288e-22
7.52528e-24
4.67316e-22
8.42072e-23
4.22076e-23
-1.57715e-22
-4.94067e-24
3.16884e-23
5.03269e-22
3.00161e-23
-3.1727e-22
2.76689e-23
1.56645e-22
9.60065e-24
-2.17169e-22
-1.59611e-24
5.61771e-23
4.90587e-24
1.1939e-22
-4.37858e-24
-1.82897e-23
-7.66749e-24
-1.32438e-22
7.3484e-24
4.50003e-22
1.21959e-22
4.21113e-23
-1.11884e-22
-6.22307e-24
3.12842e-23
4.2796e-22
2.95556e-23
-7.00705e-23
2.77343e-23
4.01882e-22
7.52833e-24
-1.70718e-22
-1.52117e-24
-5.08305e-23
3.2542e-24
1.10961e-22
-4.76343e-24
9.57959e-23
-7.00816e-24
-1.08511e-23
8.58721e-24
5.89802e-22
1.68164e-22
4.13421e-23
-1.38631e-22
-7.00625e-24
3.12225e-23
1.02021e-22
2.90696e-23
-3.01317e-22
2.79044e-23
3.43966e-22
6.48676e-24
-3.52064e-22
-1.75497e-24
-5.53168e-23
2.9672e-24
-5.79705e-23
-3.47329e-24
-4.24083e-23
-5.84293e-24
-7.54682e-23
8.87737e-24
5.4379e-22
2.93767e-23
3.90332e-23
-3.19563e-22
-8.09387e-24
3.28945e-23
8.87273e-23
2.9485e-23
-4.60049e-22
2.60231e-23
4.09887e-22
6.17726e-24
-3.53205e-22
-3.08195e-24
-1.05214e-22
3.13383e-24
-5.00379e-23
-2.47637e-24
9.00481e-23
-3.9156e-24
-8.33219e-23
7.78828e-24
3.22912e-22
7.56119e-23
3.79536e-23
-3.60417e-22
-5.1892e-24
3.43381e-23
7.26068e-23
2.92389e-23
-6.00953e-22
2.45997e-23
3.98751e-22
5.9605e-24
-3.30329e-22
-3.62907e-24
-1.04219e-22
2.55581e-24
2.8359e-23
-7.29473e-25
1.11903e-22
-3.77282e-24
-8.27079e-23
8.52615e-24
3.61148e-22
1.23786e-22
3.80162e-23
-2.67501e-22
-2.0798e-24
3.43107e-23
1.32168e-22
3.08398e-23
-5.96447e-22
2.25896e-23
2.35399e-22
6.82957e-24
-3.68455e-22
-4.29602e-24
-2.50133e-22
2.06882e-24
1.02152e-22
-8.29527e-25
1.75045e-22
-1.85404e-24
-2.37892e-22
9.16681e-24
1.4486e-22
3.61653e-23
-1.99742e-22
-2.15193e-24
3.56835e-23
1.53865e-22
3.07804e-23
-6.09272e-22
2.25403e-23
3.7132e-22
4.87856e-24
-3.68118e-22
-2.46486e-24
-2.00455e-22
9.25801e-25
4.15769e-23
-8.74428e-25
2.47633e-22
1.23057e-25
-1.26798e-23
1.03882e-22
3.61917e-23
-5.19615e-24
-3.42743e-25
3.50687e-23
1.8126e-22
3.15947e-23
-4.86998e-22
2.14356e-23
3.50707e-22
4.43907e-24
-4.36353e-22
-1.77825e-24
-5.98149e-23
6.11325e-25
-1.08318e-22
-2.20622e-25
2.40936e-22
1.02498e-24
-1.00656e-23
-1.18052e-23
3.45996e-23
7.0778e-23
-2.89735e-25
3.6254e-23
1.47437e-22
3.13224e-23
-5.07718e-22
1.95664e-23
3.97976e-22
4.02211e-24
-4.80149e-22
-3.40084e-24
-1.79888e-22
1.19303e-24
-1.90833e-22
-5.47692e-25
2.98839e-22
7.62145e-25
5.2637e-23
1.42137e-22
3.50057e-23
1.43527e-22
6.6408e-25
3.64919e-23
1.31468e-22
3.34379e-23
-4.42543e-22
1.70004e-23
2.98932e-22
3.44714e-24
-4.2012e-22
-2.80347e-24
-2.9434e-22
1.95451e-24
-1.34211e-22
-2.96782e-25
2.15946e-22
1.70797e-24
1.67219e-22
1.89789e-22
3.40392e-23
3.36792e-22
1.2023e-24
3.66693e-23
-2.39169e-23
3.32478e-23
-2.64424e-22
1.55213e-23
9.90165e-23
2.75697e-24
-3.43807e-22
-2.76438e-24
-2.88113e-22
2.28184e-24
-1.33001e-23
8.75779e-25
1.37039e-22
2.44744e-24
2.26148e-22
1.45168e-22
3.24729e-23
1.91442e-22
4.6508e-25
3.66809e-23
3.09109e-23
3.25811e-23
-2.75557e-22
1.55842e-23
2.43544e-23
1.60086e-25
-4.73629e-22
-1.27674e-24
-2.86306e-22
1.90816e-24
-2.46203e-23
2.04902e-24
9.59967e-23
2.74703e-24
2.18704e-22
5.7308e-23
3.20205e-23
1.7018e-22
9.87806e-25
3.65746e-23
2.35043e-23
3.24893e-23
-3.01314e-22
1.48485e-23
3.54135e-23
-1.00136e-24
-4.7604e-22
-1.97908e-25
-2.82772e-22
2.56502e-24
-2.91903e-23
2.84214e-24
8.94237e-23
2.86679e-24
5.0721e-23
1.45854e-23
3.17109e-23
2.0684e-22
2.11374e-24
3.57156e-23
2.22865e-22
3.27243e-23
-2.97939e-22
1.34437e-23
-1.20935e-22
-1.61911e-24
-4.88927e-22
6.87919e-25
-2.87104e-22
2.74149e-24
-2.40319e-23
2.77367e-24
7.50528e-23
3.96706e-24
4.98517e-23
-7.93039e-23
3.10795e-23
6.61637e-23
1.55249e-24
3.52442e-23
2.27857e-22
3.22852e-23
-1.69034e-22
1.20321e-23
-2.75716e-22
-1.80713e-24
-3.06517e-22
1.77617e-24
-1.55884e-22
2.87479e-24
-2.12261e-23
2.83294e-24
9.29294e-24
4.95347e-24
-7.66126e-23
3.86573e-23
3.17354e-23
4.57815e-23
1.72881e-24
3.46258e-23
1.14186e-22
3.0684e-23
-1.50466e-22
1.20926e-23
-2.91514e-22
-2.67392e-24
-2.34606e-22
2.41941e-24
6.97284e-24
2.78157e-24
-1.36098e-23
3.00727e-24
1.51576e-23
5.74988e-24
-8.28729e-23
-3.20338e-23
3.19507e-23
2.61165e-23
1.98927e-24
3.4008e-23
1.10554e-22
3.01306e-23
-1.25553e-22
1.24918e-23
-2.39268e-22
-3.30454e-24
-1.02477e-22
2.62711e-24
1.10621e-22
3.19627e-24
-7.29146e-23
3.28051e-24
2.4403e-23
6.82271e-24
8.69318e-23
-3.49297e-23
3.15878e-23
1.36608e-23
2.01876e-24
3.39227e-23
4.14319e-23
2.93276e-23
-1.01907e-22
1.205e-23
-1.37006e-22
-3.07019e-24
-9.09545e-23
2.46003e-24
6.56471e-23
3.10854e-24
-7.11851e-23
3.02908e-24
-9.3659e-23
7.37016e-24
9.21981e-23
-2.42755e-23
3.22904e-23
4.40589e-23
3.01983e-24
3.33037e-23
-1.44817e-22
2.9047e-23
-2.59629e-22
1.21297e-23
-2.24583e-22
-2.86498e-24
-6.58107e-23
2.34202e-24
1.06949e-22
2.74755e-24
-1.26338e-22
4.4104e-24
-3.81409e-23
7.84416e-24
4.51868e-23
-8.09939e-23
3.16912e-23
1.677e-23
3.16578e-24
3.30997e-23
-2.64516e-22
2.87501e-23
-1.39673e-22
1.2294e-23
-2.62951e-22
-3.10598e-24
-1.65657e-22
2.14162e-24
9.85923e-23
2.99829e-24
-1.2411e-22
4.85149e-24
7.56183e-23
7.98539e-24
4.10314e-23
-6.88967e-23
3.05954e-23
1.00196e-22
3.40776e-24
3.36277e-23
-3.38995e-22
2.76954e-23
-2.38038e-22
1.31024e-23
-1.25405e-22
-3.39357e-24
-7.4373e-23
2.59123e-24
8.89991e-23
3.25437e-24
-1.78892e-22
4.74403e-24
1.34387e-22
8.55926e-24
1.47004e-22
-1.28108e-22
2.96031e-23
3.95434e-24
3.17342e-24
3.30354e-23
-2.50444e-22
2.79526e-23
-2.22537e-22
1.28108e-23
-2.12995e-22
-3.28792e-24
-4.35896e-23
2.73595e-24
2.42596e-23
3.81748e-24
-1.75125e-22
5.26013e-24
7.37286e-23
8.46431e-24
7.36801e-23
-7.81453e-23
2.91787e-23
7.12249e-23
4.08347e-24
3.26361e-23
-2.58419e-22
2.79295e-23
-1.0928e-22
1.30484e-23
-1.8681e-22
-2.84096e-24
-1.37425e-23
2.77368e-24
2.28826e-23
4.46271e-24
-7.02506e-23
5.16019e-24
1.52982e-23
8.48003e-24
1.48257e-22
-6.10124e-24
2.90763e-23
-4.19199e-23
4.32215e-24
3.23822e-23
-1.4728e-22
2.7307e-23
-2.18776e-22
1.33076e-23
-2.38373e-22
-2.56144e-24
1.37492e-23
3.22569e-24
1.1516e-22
4.45167e-24
-6.63765e-23
6.26719e-24
6.30004e-23
8.88666e-24
1.33876e-22
-5.35866e-23
2.88771e-23
1.53574e-23
4.51844e-24
3.14042e-23
-2.24152e-22
2.69602e-23
-1.20923e-22
1.37568e-23
-1.42646e-22
-2.21989e-24
7.30825e-24
3.79913e-24
-3.58662e-24
4.6554e-24
-1.32335e-22
6.47566e-24
1.19344e-22
8.83946e-24
1.98281e-23
-1.11671e-22
2.80045e-23
8.09052e-23
4.76048e-24
3.07237e-23
-1.52249e-22
2.63131e-23
-8.71266e-23
1.41683e-23
-5.28162e-23
-1.57964e-24
-6.34005e-23
4.23696e-24
8.18579e-23
5.77795e-24
-4.33739e-23
6.5461e-24
1.12925e-22
8.94254e-24
2.99737e-23
-8.76556e-23
2.73987e-23
1.18281e-22
4.72118e-24
3.01894e-23
-1.72557e-22
2.56822e-23
-7.67296e-23
1.40527e-23
-1.36183e-22
-7.09761e-25
-4.85089e-23
4.89653e-24
7.80613e-23
6.0427e-24
-7.42669e-23
6.75072e-24
6.67034e-23
8.8995e-24
5.4848e-23
-8.73246e-23
2.67087e-23
8.29664e-23
4.52027e-24
2.91689e-23
-2.31879e-22
2.49254e-23
-6.5974e-23
1.45684e-23
-5.81288e-23
5.64326e-25
-2.79433e-23
5.57263e-24
-7.21846e-24
6.82034e-24
-3.21471e-23
7.06818e-24
4.23715e-23
8.75311e-24
7.86018e-23
-8.15406e-23
2.5878e-23
1.44123e-22
4.31187e-24
2.79417e-23
-1.41982e-22
2.42479e-23
-5.9457e-23
1.44079e-23
-3.88588e-23
1.6814e-24
6.56603e-23
6.19909e-24
1.12207e-23
7.60002e-24
5.3498e-23
7.44994e-24
3.93455e-23
8.6855e-24
6.77012e-23
-5.78899e-23
2.49001e-23
4.77621e-23
3.91446e-24
2.68758e-23
-1.91715e-22
2.35935e-23
-1.15297e-22
1.46005e-23
-2.69552e-23
2.92285e-24
8.21629e-23
7.37541e-24
4.24735e-23
8.17361e-24
-1.19237e-23
7.78034e-24
6.64018e-23
8.58227e-24
6.47414e-23
-4.68975e-23
2.39823e-23
2.44166e-23
3.48214e-24
2.55021e-23
-7.56667e-23
2.28274e-23
1.98489e-23
1.48625e-23
-1.6724e-23
4.61276e-24
3.00353e-23
8.50653e-24
3.72102e-23
9.14745e-24
-2.25956e-23
8.17143e-24
3.63658e-23
8.64297e-24
2.85366e-23
-3.06458e-23
2.29215e-23
4.31824e-25
3.07151e-24
2.41681e-23
-5.73617e-23
2.19882e-23
-3.3734e-23
1.51798e-23
-4.58207e-24
6.72968e-24
2.8341e-23
9.87045e-24
-8.18541e-23
1.03647e-23
-2.44894e-23
8.81414e-24
6.28261e-23
8.93334e-24
4.16167e-24
-5.77862e-23
2.1944e-23
4.05326e-23
2.32545e-24
2.28549e-23
-5.21576e-23
2.15313e-23
-2.63036e-23
1.57608e-23
-4.01015e-23
9.20276e-24
4.05465e-23
1.17396e-23
-3.95101e-23
1.20544e-23
2.75556e-23
9.95747e-24
1.10174e-24
9.47408e-24
-1.44945e-23
-7.31587e-24
2.116e-23
2.33389e-23
1.23557e-24
2.16806e-23
-5.14666e-23
2.14164e-23
1.86143e-23
1.66278e-23
-3.51322e-23
1.19668e-23
4.93456e-23
1.40658e-23
-3.8105e-23
1.42156e-23
-4.876e-24
1.16962e-23
-8.01267e-24
1.0744e-23
1.03322e-23
-1.09898e-23
2.05388e-23
4.34129e-23
-1.24509e-25
2.08393e-23
-1.31326e-24
2.15076e-23
-2.21032e-23
1.77768e-23
-2.97147e-23
1.5303e-23
5.74037e-23
1.6875e-23
2.30578e-24
1.71621e-23
-9.55979e-25
1.42927e-23
3.14754e-24
1.27301e-23
2.35173e-24
-1.10235e-23
1.99962e-23
2.69011e-23
-1.81676e-24
2.00284e-23
-3.74378e-25
2.19671e-23
-2.24746e-23
1.90743e-23
1.00772e-24
1.88749e-23
5.61236e-23
2.01215e-23
2.63318e-23
2.10082e-23
-2.59224e-24
1.78381e-23
-3.55364e-25
1.56057e-23
-8.05812e-24
-5.26741e-24
1.9389e-23
1.86004e-23
-3.60528e-24
1.89684e-23
-1.54085e-23
2.24252e-23
-1.04801e-23
1.99483e-23
-1.49028e-23
2.2568e-23
2.98654e-23
2.37746e-23
3.36798e-24
2.58255e-23
1.99668e-23
2.24815e-23
-3.01628e-24
1.98799e-23
-8.50831e-24
-1.8856e-24
1.80869e-23
1.90759e-23
-5.20547e-24
1.70823e-23
4.27557e-24
2.20484e-23
2.93911e-24
2.00059e-23
-2.84474e-24
2.59269e-23
4.47139e-24
2.78309e-23
2.74801e-24
3.17081e-23
1.3184e-23
2.85135e-23
-5.35961e-24
2.58704e-23
-5.5696e-24
4.29049e-24
1.54001e-23
2.46586e-24
-6.10392e-24
1.33162e-23
7.20693e-25
1.99689e-23
5.23238e-26
1.83486e-23
2.04293e-26
2.86621e-23
-6.56891e-24
3.23055e-23
-1.28082e-24
3.91032e-23
-5.29736e-25
3.64926e-23
-1.52168e-24
3.43888e-23
-2.69132e-24
-1.09253e-24
3.72584e-24
-7.3169e-25
4.02465e-24
4.14937e-24
4.10425e-24
3.25608e-24
2.7897e-24
1.92668e-24
1.48839e-24
5.12524e-25
2.39457e-23
2.23337e-22
3.93424e-23
3.29143e-22
4.63156e-23
-2.0986e-22
2.44257e-23
-1.89304e-22
-8.01912e-25
-3.98364e-22
3.72861e-23
1.75561e-22
2.03022e-23
-3.04615e-22
2.56654e-23
3.1559e-23
3.71234e-23
1.90792e-22
5.58077e-23
4.91375e-23
2.43869e-23
-3.36921e-22
6.64157e-24
2.846e-22
3.88515e-23
-5.24764e-23
9.60725e-24
2.25862e-23
2.51147e-23
-2.77677e-22
4.48944e-23
-3.15577e-22
-4.6281e-22
2.17075e-23
1.71526e-22
3.36021e-23
3.31776e-22
4.29023e-23
4.50678e-23
2.21362e-23
-1.79567e-22
4.71571e-24
-3.636e-22
3.12781e-23
1.21061e-22
2.14462e-23
-3.19439e-22
2.40321e-23
-6.51e-23
3.55292e-23
1.62249e-22
5.18398e-23
2.20973e-22
2.67155e-23
-3.29642e-22
4.41379e-24
3.23329e-22
3.61418e-23
1.04932e-22
4.35045e-24
8.43675e-24
2.49824e-23
-3.7643e-22
4.66757e-23
-7.39774e-23
-2.68991e-22
1.89898e-23
1.46252e-22
3.24889e-23
6.03537e-23
3.61776e-23
-1.31088e-22
2.07997e-23
-1.64104e-22
6.83573e-24
-3.21162e-22
2.71012e-23
-1.15327e-22
2.46807e-23
-3.19359e-22
2.18653e-23
-7.06476e-23
3.50678e-23
1.27993e-22
4.91825e-23
2.03435e-22
3.02097e-23
-3.127e-22
5.18126e-24
1.79703e-22
3.36727e-23
7.25834e-24
-1.53409e-24
-5.07452e-23
2.73454e-23
-2.56581e-22
4.55106e-23
-1.31523e-22
-3.25928e-22
6.12523e-23
5.09324e-23
1.26961e-23
-3.47388e-22
-3.77809e-24
1.28335e-23
1.51497e-23
1.91435e-22
3.22909e-23
5.17147e-23
3.35667e-23
-1.14063e-22
1.82166e-23
-4.09446e-22
6.32618e-24
-2.80697e-22
2.755e-23
4.7959e-24
2.53343e-23
-3.11565e-22
2.21138e-23
-7.22854e-23
3.38136e-23
1.03201e-22
4.58879e-23
1.28033e-22
2.93533e-23
-1.73763e-22
7.37195e-24
2.08535e-22
2.62774e-23
1.1638e-22
-2.9172e-24
2.03006e-23
2.65382e-23
-5.75223e-23
4.44279e-23
-1.70043e-22
-2.23403e-22
5.74867e-23
-4.19427e-23
1.61707e-23
-8.15286e-23
-3.09082e-24
-1.54329e-22
1.05636e-23
3.23132e-22
3.18198e-23
4.88359e-23
2.72583e-23
-3.5835e-22
2.0806e-23
-3.62161e-22
5.58278e-24
-2.49753e-22
2.55069e-23
-3.10572e-23
2.64724e-23
-3.11558e-22
2.33083e-23
-7.27755e-23
3.26031e-23
6.66515e-23
4.4047e-23
2.29263e-22
2.80493e-23
7.35462e-23
1.06528e-23
2.18799e-22
2.1225e-23
-1.08961e-22
-1.59871e-24
3.47925e-22
2.30378e-23
-1.76105e-22
4.72899e-23
-2.69774e-22
-3.4071e-22
5.73006e-23
-7.13533e-23
1.23752e-23
-1.73369e-22
3.02368e-25
-2.33507e-22
5.79247e-24
2.75462e-22
2.73874e-23
1.45532e-22
2.5897e-23
-3.4388e-22
2.23787e-23
-4.07622e-22
7.6055e-24
-2.13753e-22
2.22552e-23
-6.18981e-23
2.85753e-23
-3.42144e-22
2.24358e-23
-1.03454e-22
3.48983e-23
2.70492e-22
4.50651e-23
9.78379e-23
2.51438e-23
-1.10545e-22
8.34372e-24
2.29927e-22
2.70288e-23
-1.86846e-24
-1.0928e-23
3.76744e-22
2.02469e-23
-5.99465e-23
4.79197e-23
-2.89176e-22
-2.80828e-22
5.737e-23
7.37641e-23
1.00489e-23
-1.15418e-22
2.10863e-24
-2.44188e-22
3.655e-24
2.69776e-22
2.18719e-23
1.51828e-22
2.36154e-23
-2.24813e-22
2.49856e-23
-3.57879e-22
7.63542e-24
-1.84915e-22
1.96436e-23
-1.49931e-22
2.8974e-23
-4.64724e-22
2.58513e-23
-4.15198e-23
3.15668e-23
6.98068e-23
4.34696e-23
-6.78711e-23
2.58834e-23
-8.11925e-23
8.34195e-24
2.44092e-22
2.8254e-23
9.85612e-23
-1.66089e-23
4.33002e-22
1.55263e-23
1.4202e-22
4.66072e-23
-4.39121e-23
-1.36379e-22
5.34374e-23
1.04536e-22
9.9303e-24
-3.34149e-23
3.52173e-24
-2.34964e-22
1.72607e-24
1.85824e-22
1.89084e-23
1.35545e-22
1.90693e-23
-2.0447e-22
2.83162e-23
-2.44965e-22
4.57432e-24
-3.19482e-22
1.85169e-23
-7.29658e-23
3.01077e-23
-3.31159e-22
2.5801e-23
3.11654e-23
3.11005e-23
2.04583e-22
4.17991e-23
3.44948e-23
2.78885e-23
-5.7653e-24
8.17718e-24
7.63508e-23
3.09204e-23
3.02574e-22
-1.87129e-23
3.91155e-22
9.60968e-24
3.30345e-22
4.5532e-23
1.71661e-22
1.99688e-23
5.0711e-23
1.45516e-23
9.54996e-24
-1.04455e-23
3.10445e-24
1.40637e-23
6.07918e-25
9.47377e-24
1.66956e-23
1.34227e-22
1.63041e-23
-3.48101e-22
2.81749e-23
-1.43007e-22
4.51644e-24
-3.17675e-22
1.68363e-23
-1.38753e-24
3.17907e-23
-3.81371e-22
2.73583e-23
3.52819e-25
2.78196e-23
1.83066e-22
4.18375e-23
-4.07441e-23
2.83439e-23
1.20029e-22
1.04806e-23
-2.98255e-23
2.8071e-23
1.93275e-22
-2.00321e-23
4.58837e-22
7.4436e-24
3.03922e-22
4.26908e-23
2.20412e-22
1.04469e-22
4.98086e-23
-1.06038e-22
9.48073e-24
-8.66746e-23
-1.73496e-24
2.61157e-23
1.79477e-24
-2.59963e-24
1.21791e-23
1.11653e-22
1.68231e-23
-2.40767e-22
2.77531e-23
-1.25549e-22
5.77605e-24
-4.25564e-22
1.5222e-23
2.21424e-23
3.1255e-23
-1.45792e-22
2.98206e-23
1.04441e-22
2.46926e-23
1.73083e-22
4.44519e-23
5.76511e-23
2.7796e-23
2.54766e-22
9.30687e-24
-1.13849e-22
3.30352e-23
2.44357e-22
-2.05699e-23
1.60798e-22
4.4364e-24
3.03899e-22
4.03121e-23
1.72225e-22
3.56498e-22
5.03765e-23
-1.42527e-22
1.16432e-23
-1.26689e-22
-6.62392e-24
-2.701e-23
1.68715e-24
-3.37373e-23
9.77441e-24
6.02822e-23
1.65173e-23
-2.27598e-22
2.59964e-23
-1.08624e-22
7.39467e-24
-3.7599e-22
1.68063e-23
1.03517e-22
2.97319e-23
-2.3108e-22
3.10363e-23
2.38996e-22
2.3209e-23
9.34312e-23
4.30828e-23
2.16179e-22
2.50308e-23
3.18815e-22
1.22253e-23
-3.24735e-23
3.25279e-23
2.36562e-22
-1.82482e-23
7.10803e-23
1.61726e-24
2.14459e-22
3.88413e-23
2.2034e-22
4.73844e-22
4.95254e-23
-1.88959e-22
1.36065e-23
-1.56592e-22
-1.12219e-23
-2.6665e-22
2.34751e-24
8.06184e-24
7.83333e-24
1.69439e-22
1.6329e-23
-2.37052e-22
2.4177e-23
-1.84437e-22
9.71099e-24
-2.70495e-22
1.61406e-23
1.14742e-22
3.19801e-23
-2.33277e-22
2.84577e-23
1.51657e-22
2.31126e-23
1.2932e-22
4.43449e-23
1.98509e-22
2.18695e-23
1.15869e-22
1.12315e-23
-1.46813e-23
3.36142e-23
3.05705e-22
-1.90461e-23
-1.08626e-22
2.34039e-24
1.87061e-22
3.79991e-23
4.4884e-22
1.77942e-22
4.92659e-23
-2.40994e-22
1.18455e-23
-1.24604e-22
-1.20375e-23
-1.95479e-22
3.76011e-24
1.5035e-22
4.42207e-24
5.05574e-23
1.54605e-23
-2.39342e-22
2.58478e-23
-1.77612e-22
8.73908e-24
-3.93193e-22
1.77269e-23
1.72719e-22
3.10269e-23
-2.07761e-22
2.95037e-23
1.03126e-22
2.13569e-23
1.5959e-22
4.09653e-23
1.0054e-22
2.16317e-23
-1.04344e-22
1.06461e-23
-1.57669e-22
3.36486e-23
1.29017e-22
-1.8258e-23
-2.6974e-22
2.77861e-24
1.57924e-22
3.5223e-23
4.62881e-22
2.1954e-22
4.94509e-23
-1.93679e-22
1.14779e-23
-1.10077e-22
-1.19864e-23
-1.79485e-22
2.40879e-24
1.1218e-22
1.8598e-24
-1.51057e-23
1.47801e-23
-2.63611e-22
2.66457e-23
-2.00982e-22
9.7291e-24
-3.62711e-22
1.71119e-23
1.78599e-22
2.87937e-23
-2.17876e-22
3.17975e-23
1.17471e-22
1.80092e-23
1.59534e-22
3.79843e-23
3.32075e-22
2.3799e-23
2.76186e-23
1.02173e-23
-1.95751e-22
3.30283e-23
3.20934e-22
-1.65324e-23
-3.45605e-22
2.81675e-24
2.12952e-22
3.14675e-23
1.89109e-22
9.27968e-23
4.87454e-23
-4.91303e-23
1.13098e-23
-8.52789e-23
-1.30592e-23
-1.42108e-22
1.51481e-24
1.509e-22
-3.31829e-25
-4.36314e-23
1.39226e-23
-1.23218e-22
2.7768e-23
-1.24115e-22
1.03266e-23
-4.99683e-22
1.662e-23
2.1009e-22
2.78452e-23
-2.22679e-22
3.23711e-23
8.72205e-23
1.82127e-23
1.3254e-22
3.32015e-23
2.87914e-22
2.33237e-23
4.95042e-23
1.01156e-23
-2.03099e-22
3.20242e-23
2.98e-22
-1.07454e-23
-3.49304e-22
3.52928e-24
1.34289e-22
2.96273e-23
2.22075e-22
2.40827e-22
4.67967e-23
-6.7442e-23
1.11097e-23
-4.17729e-23
-1.45427e-23
-1.56805e-22
1.26115e-25
2.93607e-22
-1.1313e-24
-7.01731e-23
1.24371e-23
-1.67734e-22
2.8341e-23
5.60389e-24
1.1605e-23
-5.55251e-22
1.59391e-23
2.56945e-22
2.75612e-23
-5.97373e-23
3.37318e-23
1.25853e-22
1.65721e-23
1.35832e-22
3.1958e-23
2.43507e-22
2.09731e-23
8.39112e-23
8.78833e-24
-2.08015e-22
3.18252e-23
4.30624e-22
-1.04819e-23
-4.57872e-22
4.28458e-24
1.24061e-22
2.79621e-23
1.3651e-22
1.14984e-22
4.57337e-23
-8.02354e-23
9.86674e-24
-1.55542e-22
-1.3881e-23
-1.34692e-22
-2.52118e-24
2.68522e-22
-1.78248e-24
-1.03237e-22
1.21932e-23
-1.99811e-22
2.73191e-23
2.18765e-22
1.29231e-23
-4.61932e-22
1.71936e-23
2.79615e-22
2.6633e-23
-1.98177e-22
3.58567e-23
1.2938e-22
1.53437e-23
1.59064e-22
3.03552e-23
2.3388e-22
1.99272e-23
1.84943e-22
8.00374e-24
-1.96921e-22
3.01244e-23
3.92287e-22
-9.50303e-24
-4.15747e-22
6.80261e-24
2.131e-22
2.50607e-23
4.89076e-23
2.4783e-22
4.41573e-23
-1.07797e-22
9.19365e-24
-2.32448e-22
-1.34737e-23
-1.03427e-22
-5.39212e-24
2.51103e-22
-2.48101e-24
-2.55783e-23
1.36382e-23
-7.96242e-23
2.57757e-23
1.90727e-22
1.44476e-23
-4.24514e-22
1.64619e-23
2.15443e-22
2.66021e-23
-1.8607e-22
3.58234e-23
1.82197e-22
1.45572e-23
2.38657e-22
2.94348e-23
2.75241e-22
1.86074e-23
1.34479e-22
8.00376e-24
-8.16287e-23
2.77877e-23
4.26027e-22
-8.70141e-24
-4.42893e-22
6.31962e-24
1.56526e-22
2.47665e-23
7.06723e-23
3.0149e-22
4.2315e-23
-1.06138e-22
9.67052e-24
-2.51815e-22
-1.38189e-23
-2.24957e-22
-7.34382e-24
2.51894e-22
-2.38762e-24
1.43168e-23
1.36798e-23
-9.86279e-24
2.49074e-23
1.58504e-22
1.50391e-23
-4.28188e-22
1.58537e-23
2.07779e-22
2.69311e-23
-1.8487e-22
3.64618e-23
1.50686e-22
1.17252e-23
6.62825e-23
2.8115e-23
2.54862e-22
1.87076e-23
1.17024e-22
6.45069e-24
-3.02198e-23
2.74865e-23
3.63279e-22
-6.68672e-24
-6.35274e-22
7.68531e-24
3.42514e-22
2.34907e-23
2.05652e-22
1.78408e-22
4.03543e-23
-1.13751e-22
9.47033e-24
-2.47418e-22
-1.31284e-23
-2.77114e-22
-9.07365e-24
2.56642e-22
-1.94408e-24
1.34083e-22
1.28278e-23
4.41531e-23
2.39531e-23
1.62115e-22
1.59617e-23
-4.31666e-22
1.47558e-23
-4.41611e-24
2.88272e-23
-1.22636e-22
3.51666e-23
5.33844e-23
1.22111e-23
-4.88447e-23
2.67007e-23
1.70875e-22
1.89633e-23
1.67788e-22
5.16682e-24
9.2241e-23
2.5472e-23
5.92863e-22
-4.33739e-24
-7.1667e-22
9.41978e-24
2.26698e-22
2.0001e-23
2.41284e-22
2.14564e-22
3.80324e-23
-6.76767e-23
8.849e-24
-1.33345e-22
-1.16625e-23
-2.49147e-22
-1.01477e-23
3.11624e-22
-1.87892e-24
1.60772e-22
1.14858e-23
4.85482e-23
2.31694e-23
1.43956e-22
1.60586e-23
-4.40782e-22
1.47305e-23
-1.4319e-22
2.96114e-23
-1.44824e-22
3.50477e-23
4.90962e-23
1.10161e-23
-1.04337e-22
2.6999e-23
4.93525e-22
1.85629e-23
2.76547e-22
3.8013e-24
9.64864e-23
2.21292e-23
4.58219e-22
-2.41064e-24
-5.03577e-22
9.58166e-24
1.71894e-22
1.77486e-23
1.81059e-22
2.32899e-22
3.67114e-23
-6.23672e-23
7.93239e-24
-1.0445e-22
-1.05839e-23
-3.01066e-22
-1.09581e-23
2.27836e-22
-1.82787e-24
1.74028e-22
1.01294e-23
4.24356e-23
2.2205e-23
1.33898e-22
1.53252e-23
-4.31944e-22
1.50415e-23
-9.43563e-23
3.05267e-23
-4.7073e-23
3.37382e-23
3.05353e-23
1.36879e-23
-9.61015e-23
2.50173e-23
4.25659e-22
1.77915e-23
2.96245e-22
3.51591e-24
1.78442e-22
2.07349e-23
4.18401e-22
-1.86835e-24
-7.39772e-22
1.09573e-23
3.85249e-22
1.33052e-23
1.70825e-22
4.00025e-22
3.47502e-23
-4.45139e-23
7.07918e-24
-2.07682e-22
-9.92888e-24
-2.26688e-22
-1.15219e-23
2.43519e-22
-2.02141e-24
1.9624e-22
9.10495e-24
5.80934e-23
2.10294e-23
1.23533e-22
1.56419e-23
-3.72764e-22
1.45577e-23
-2.21947e-22
3.20542e-23
7.30962e-23
3.34933e-23
-1.17873e-22
1.46234e-23
-1.05134e-22
2.4663e-23
4.11712e-22
1.63068e-23
1.63882e-22
1.76972e-24
9.20858e-23
1.90489e-23
3.33346e-22
1.13043e-25
-6.03374e-22
1.26918e-23
5.26102e-22
1.18845e-23
1.72558e-22
4.21941e-22
3.21167e-23
6.39794e-24
7.897e-24
-1.82511e-22
-1.00024e-23
-2.67431e-22
-1.15909e-23
2.58692e-22
-2.2651e-24
1.70963e-22
7.9567e-24
6.99968e-23
1.99247e-23
1.1268e-22
1.5021e-23
-4.09256e-22
1.60743e-23
-2.68352e-22
3.08405e-23
-5.00984e-23
3.38984e-23
1.28635e-22
1.5272e-23
-1.59992e-22
2.32848e-23
3.10156e-22
1.68011e-23
1.76806e-22
-9.07099e-25
1.94197e-23
1.732e-23
2.95931e-22
3.33682e-24
-6.01756e-22
1.29052e-23
3.60695e-22
1.04808e-23
5.16115e-23
3.12737e-22
3.01176e-23
1.13365e-22
7.35199e-24
-1.5583e-22
-9.53518e-24
-2.89298e-22
-1.18827e-23
2.7505e-22
-2.40119e-24
1.41655e-22
6.94456e-24
1.38822e-22
1.90453e-23
9.22644e-23
1.42418e-23
-3.91718e-22
1.7438e-23
-3.2249e-22
3.13307e-23
-6.9643e-23
3.40121e-23
1.44797e-22
1.46786e-23
-3.35222e-22
2.22375e-23
1.73903e-22
1.58854e-23
1.09864e-22
-1.91133e-24
1.03573e-22
1.68661e-23
2.91146e-22
4.98399e-24
-7.60713e-22
1.27935e-23
2.822e-22
8.26552e-24
4.92163e-23
1.75697e-22
2.86099e-23
3.26554e-23
6.60031e-24
-1.41417e-22
-8.68088e-24
-2.94692e-22
-1.21496e-23
2.67233e-22
-2.09286e-24
1.03202e-22
5.51873e-24
8.18314e-23
1.771e-23
1.5605e-22
1.37893e-23
-3.19674e-22
1.80157e-23
-3.00619e-22
3.26198e-23
-1.46513e-22
3.20016e-23
8.13838e-23
1.42439e-23
-3.39977e-22
2.17761e-23
1.90561e-22
1.60978e-23
1.12966e-22
-4.39653e-24
-2.97971e-23
1.52584e-23
2.80507e-22
7.34545e-24
-5.97501e-22
1.2648e-23
2.76313e-22
8.27442e-24
6.38325e-23
1.10986e-22
2.66455e-23
-1.32706e-22
6.44857e-24
-3.03869e-22
-7.99959e-24
-2.86298e-22
-1.24782e-23
2.71105e-22
-2.17752e-24
7.64706e-23
5.19013e-24
1.16322e-22
1.60438e-23
8.6834e-23
1.31039e-23
-3.30219e-22
1.83304e-23
-1.98593e-22
3.34019e-23
-6.55842e-23
3.18748e-23
8.77834e-23
1.45803e-23
-3.70347e-22
2.19264e-23
2.21801e-22
1.67709e-23
1.25783e-22
-6.1986e-24
-1.48931e-22
1.50438e-23
3.93632e-22
8.36845e-24
-5.46326e-22
1.4146e-23
2.67004e-22
6.64747e-24
4.83298e-23
8.48868e-23
2.52882e-23
-3.78097e-23
6.50271e-24
-2.10424e-22
-7.74583e-24
-2.03007e-22
-1.2872e-23
2.36594e-22
-2.01205e-24
3.95474e-23
4.45229e-24
5.62731e-23
1.53036e-23
8.28622e-23
1.26922e-23
-3.36663e-22
1.9045e-23
-2.11766e-22
3.29809e-23
-7.13092e-23
3.16177e-23
-1.72396e-23
1.48357e-23
-4.32949e-22
2.13825e-23
2.07376e-22
1.5904e-23
6.37734e-23
-6.30091e-24
-9.92988e-23
1.27134e-23
4.5002e-22
9.87344e-24
-3.9411e-22
1.40964e-23
1.64092e-22
5.09378e-24
-1.72251e-22
2.05806e-22
2.37986e-23
-6.60969e-23
6.77188e-24
-1.88698e-22
-7.6414e-24
-1.86387e-22
-1.30566e-23
2.91257e-22
-2.19886e-24
8.6927e-23
4.14716e-24
1.18903e-22
1.40429e-23
3.93582e-23
1.27423e-23
-3.39179e-22
1.98097e-23
-4.99304e-23
3.22303e-23
-4.55701e-23
3.16477e-23
1.69591e-24
1.55374e-23
-4.57278e-22
2.03174e-23
1.81541e-22
1.65161e-23
7.58472e-23
-7.31435e-24
-1.32073e-22
1.19224e-23
3.4794e-22
1.0843e-23
-4.4291e-22
1.44827e-23
1.41354e-23
4.86227e-24
3.50527e-24
1.60945e-23
2.22442e-23
-2.15769e-22
7.17634e-24
-1.03746e-22
-7.03763e-24
-1.73299e-22
-1.34257e-23
2.82997e-22
-2.2063e-24
1.20361e-22
3.52172e-24
1.09377e-22
1.2851e-23
1.45428e-22
1.29838e-23
-2.10467e-22
2.01772e-23
-4.79731e-23
3.19753e-23
7.80132e-23
3.18655e-23
9.57596e-23
1.61442e-23
-4.65799e-22
2.04228e-23
1.6645e-22
1.57696e-23
9.56879e-23
-7.47814e-24
-1.08606e-22
1.10999e-23
4.51541e-22
1.09989e-23
-2.79777e-22
1.61655e-23
4.98072e-24
3.44242e-24
-3.26022e-22
1.05509e-22
2.21442e-23
-2.28833e-22
6.90916e-24
-9.76628e-23
-6.321e-24
-1.57194e-22
-1.36302e-23
2.01399e-22
-2.34999e-24
1.58004e-22
3.35413e-24
9.10795e-23
1.18211e-23
1.25572e-22
1.31321e-23
-1.40254e-22
2.02981e-23
-3.08434e-23
3.17619e-23
4.87435e-23
3.12028e-23
1.24875e-22
1.6159e-23
-3.3943e-22
1.99697e-23
1.52415e-22
1.58561e-23
1.05835e-22
-8.59418e-24
-2.47886e-22
1.1302e-23
3.53575e-22
1.07358e-23
-2.54848e-22
1.62463e-23
7.36309e-23
3.37896e-24
-3.2158e-22
2.52107e-22