/*--------------------------------*- C++ -*----------------------------------*\
  =========                 |
  \\      /  F ield         | OpenFOAM: The Open Source CFD Toolbox
   \\    /   O peration     | Website:  https://openfoam.org
    \\  /    A nd           | Version:  7
     \\/     M anipulation  |
\*---------------------------------------------------------------------------*/
FoamFile
{
    version     2.0;
    format      ascii;
    class       volScalarField;
    location    "76000";
    object      strainRate;
}
// * * * * * * * * * * * * * * * * * * * * * * * * * * * * * * * * * * * * * //

dimensions      [0 0 -1 0 0 0 0];

internalField   nonuniform List<scalar> 
4764
(
0.0299993
0.0298628
0.0297404
0.0296308
0.0295355
0.0294554
0.03252
0.0322657
0.0320228
0.0317922
0.0315759
0.031373
0.0311821
0.0310039
0.0308387
0.0306863
0.0305482
0.0304248
0.0303139
0.0302183
0.0301372
0.0300714
0.0300169
0.029977
0.0299496
0.0299346
0.0299342
0.0299484
0.0299759
0.0300169
0.0300724
0.030144
0.0302286
0.0303263
0.0304375
0.0332527
0.0329935
0.0327458
0.0325107
0.0322908
0.0320843
0.0318898
0.0317086
0.0315414
0.0313867
0.0312469
0.0311215
0.0310091
0.0309125
0.0308298
0.0307632
0.0307083
0.0306691
0.0306417
0.0306265
0.0306254
0.0306395
0.0306664
0.030708
0.0307639
0.0308365
0.0309223
0.0310212
0.0311335
0.03126
0.0314003
0.0315522
0.0317172
0.0340053
0.033741
0.0334883
0.0332486
0.0330246
0.0328138
0.0326156
0.0324308
0.032261
0.0321034
0.0319618
0.0318338
0.0317197
0.0316216
0.031537
0.0314688
0.0314138
0.0313747
0.031347
0.0313315
0.0313301
0.0313443
0.0313703
0.0314128
0.0314698
0.0315435
0.0316306
0.031731
0.031845
0.0319741
0.0321166
0.0322714
0.0324391
0.0326205
0.032817
0.0330278
0.033251
0.0334873
0.033737
0.0340004
0.0342762
0.0345664
0.0348673
0.0351782
0.0355252
0.0347785
0.034509
0.0342513
0.0340069
0.0337782
0.0335629
0.0333609
0.0331724
0.0329994
0.0328387
0.0326948
0.0325641
0.0324482
0.0323481
0.0322617
0.0321914
0.0321362
0.0320967
0.0320686
0.0320526
0.0320515
0.0320657
0.0320911
0.0321343
0.0321929
0.0322675
0.032356
0.0324585
0.0325748
0.0327063
0.0328516
0.0330093
0.0331806
0.0333653
0.0335653
0.0337801
0.0340081
0.0342487
0.0345045
0.0347738
0.0350561
0.0353528
0.0356604
0.0359778
0.0363307
0.0355733
0.0352981
0.0350356
0.0347864
0.0345524
0.0343324
0.0341264
0.0339345
0.033758
0.0335942
0.0334474
0.033314
0.0331962
0.0330937
0.0330059
0.0329334
0.0328777
0.0328374
0.0328089
0.0327923
0.0327916
0.0328057
0.0328311
0.0328748
0.0329351
0.0330105
0.0331006
0.0332055
0.0333245
0.0334584
0.0336067
0.0337676
0.0339427
0.0341308
0.0343343
0.0345532
0.034786
0.0350314
0.0352932
0.0355684
0.0358574
0.0361608
0.0364751
0.0367993
0.0371583
0.0363903
0.036109
0.0358419
0.0355875
0.0353482
0.0351233
0.034913
0.0347179
0.0345376
0.0343709
0.0342205
0.0340847
0.033965
0.0338598
0.0337705
0.0336963
0.0336396
0.0335982
0.0335694
0.0335524
0.0335519
0.0335659
0.0335919
0.0336361
0.0336976
0.033774
0.0338661
0.0339735
0.0340954
0.0342318
0.0343829
0.0345472
0.0347259
0.0349178
0.0351248
0.0353479
0.0355856
0.0358361
0.0361038
0.0363848
0.0366808
0.0369909
0.0373118
0.0376433
0.0380089
0.0372303
0.0369428
0.0366707
0.0364112
0.0361666
0.0359367
0.0357217
0.0355233
0.0353388
0.0351694
0.0350153
0.0348773
0.0347555
0.0346475
0.0345565
0.034481
0.034423
0.0343804
0.0343512
0.0343343
0.0343337
0.0343472
0.0343744
0.0344194
0.0344813
0.0345594
0.0346533
0.0347632
0.0348881
0.0350274
0.0351808
0.0353487
0.0355308
0.0357272
0.0359376
0.0361652
0.0364078
0.0366638
0.0369375
0.0372242
0.0375271
0.0378436
0.0381714
0.0385105
0.0388832
0.0380941
0.0378006
0.0375227
0.0372583
0.0370083
0.0367732
0.0365534
0.0363512
0.0361623
0.0359905
0.0358328
0.0356926
0.0355686
0.0354578
0.0353649
0.035288
0.0352288
0.0351848
0.0351551
0.0351386
0.0351376
0.0351506
0.0351794
0.0352254
0.0352874
0.0353675
0.0354631
0.0355754
0.0357033
0.0358456
0.0360013
0.0361727
0.0363582
0.0365592
0.0367736
0.037006
0.0372535
0.0375153
0.0377949
0.0380875
0.0383972
0.0387198
0.0390548
0.0394017
0.0397819
0.0389825
0.0386831
0.0383991
0.0381296
0.0378739
0.0376334
0.0374089
0.0372024
0.0370092
0.0368349
0.0366741
0.0365314
0.0364048
0.0362916
0.0361964
0.0361181
0.0360576
0.0360124
0.0359818
0.0359656
0.0359643
0.0359769
0.0360071
0.0360543
0.0361168
0.036199
0.0362962
0.0364108
0.0365418
0.0366871
0.0368452
0.0370201
0.0372091
0.0374145
0.0376338
0.0378712
0.0381236
0.0383915
0.0386767
0.0389757
0.0392919
0.0396208
0.0399632
0.040318
0.0407057
0.0398963
0.0395911
0.0393006
0.0390259
0.0387643
0.0385183
0.0382892
0.038078
0.0378807
0.0377036
0.03754
0.0373942
0.0372649
0.0371495
0.037052
0.0369721
0.0369101
0.0368637
0.0368322
0.036816
0.0368144
0.036827
0.0368585
0.0369069
0.0369704
0.0370543
0.0371533
0.0372702
0.0374042
0.0375526
0.0377135
0.0378919
0.0380846
0.0382944
0.0385189
0.0387614
0.039019
0.039293
0.039584
0.0398898
0.0402124
0.0405479
0.0408977
0.0412605
0.041656
0.0408365
0.0405255
0.0402284
0.0399479
0.0396806
0.039429
0.0391953
0.038979
0.0387777
0.0385971
0.0384311
0.0382818
0.0381498
0.0380323
0.0379325
0.0378508
0.0377874
0.0377396
0.0377071
0.0376907
0.037689
0.0377018
0.0377347
0.037784
0.0378491
0.0379339
0.038035
0.0381544
0.0382914
0.0384429
0.0386073
0.0387892
0.0389859
0.0392
0.0394297
0.0396773
0.0399406
0.0402208
0.0405179
0.0408309
0.0411601
0.0415025
0.0418597
0.0422306
0.0426342
0.0418047
0.041487
0.0411835
0.0408968
0.0406238
0.0403668
0.0401279
0.0399064
0.0397013
0.0395165
0.0393482
0.0391953
0.0390605
0.0389409
0.038839
0.0387551
0.0386904
0.0386409
0.0386077
0.0385908
0.038589
0.0386026
0.0386368
0.0386867
0.0387536
0.0388391
0.0389423
0.0390646
0.0392041
0.0393591
0.0395275
0.0397131
0.0399138
0.0401324
0.0403675
0.04062
0.0408895
0.0411762
0.0414798
0.0418001
0.0421361
0.0424857
0.0428504
0.0432297
0.0436419
0.0431436
0.0428025
0.0424773
0.0421675
0.041874
0.0415952
0.0413328
0.0410881
0.0408614
0.0406528
0.040463
0.0402922
0.0401359
0.0399983
0.0398765
0.0397727
0.039686
0.0396198
0.0395691
0.0395351
0.0395176
0.0395157
0.0395304
0.0395655
0.0396162
0.0396849
0.0397712
0.0398768
0.0400019
0.0401437
0.0403022
0.0404751
0.0406645
0.0408698
0.0410928
0.0413335
0.041591
0.041867
0.0421605
0.0424708
0.0427982
0.0431414
0.0434987
0.0438712
0.0442593
0.0446802
0.0441795
0.0438311
0.043498
0.0431817
0.042881
0.042596
0.0423281
0.0420777
0.0418455
0.0416332
0.0414382
0.0412642
0.0411049
0.0409643
0.0408403
0.0407344
0.040645
0.0405771
0.0405253
0.0404905
0.0404722
0.0404704
0.0404862
0.0405218
0.0405739
0.0406442
0.0407317
0.0408397
0.0409676
0.0411114
0.0412734
0.0414511
0.0416449
0.0418549
0.0420826
0.0423291
0.0425918
0.0428743
0.0431748
0.0434921
0.0438266
0.0441774
0.044543
0.0449237
0.0453207
0.0457507
0.0452481
0.0448918
0.0445504
0.0442272
0.0439194
0.0436276
0.043354
0.0430979
0.0428604
0.0426437
0.0424436
0.0422657
0.0421036
0.0419597
0.0418335
0.0417253
0.0416336
0.0415635
0.0415107
0.0414748
0.041456
0.0414543
0.0414712
0.0415072
0.041561
0.0416327
0.0417218
0.0418324
0.0419628
0.042109
0.0422742
0.0424569
0.0426555
0.0428704
0.0431032
0.0433557
0.0436238
0.0439128
0.0442205
0.0445449
0.0448869
0.0452455
0.0456199
0.0460093
0.0464154
0.0468551
0.0467342
0.0463511
0.0459859
0.0456361
0.0453056
0.0449904
0.0446915
0.0444118
0.0441502
0.0439073
0.0436859
0.0434809
0.0432985
0.0431335
0.0429861
0.0428576
0.0427466
0.0426532
0.0425807
0.0425264
0.0424895
0.0424703
0.0424689
0.0424866
0.0425232
0.0425786
0.0426518
0.0427429
0.0428561
0.0429887
0.043138
0.0433062
0.0434938
0.0436976
0.0439175
0.0441558
0.0444147
0.0446885
0.0449838
0.045299
0.0456309
0.0459807
0.0463476
0.046731
0.0471296
0.0475448
0.0479949
0.0478814
0.0474897
0.0471149
0.0467566
0.0464185
0.0460957
0.0457895
0.0455032
0.0452362
0.0449879
0.044761
0.0445515
0.0443644
0.044196
0.0440449
0.0439139
0.0438001
0.0437051
0.04363
0.043574
0.0435363
0.0435168
0.0435159
0.0435341
0.0435714
0.0436282
0.0437031
0.0437965
0.0439121
0.0440469
0.0441997
0.044371
0.0445634
0.0447726
0.044998
0.0452419
0.0455072
0.0457875
0.0460892
0.0464121
0.0467517
0.0471097
0.0474853
0.0478778
0.0482864
0.0487108
0.0491717
0.0494855
0.0490663
0.0486657
0.0482806
0.0479137
0.0475677
0.0472368
0.0469235
0.0466302
0.0463576
0.0461035
0.0458709
0.0456573
0.0454653
0.0452928
0.0451376
0.0450042
0.0448876
0.0447908
0.0447131
0.044655
0.0446169
0.044597
0.0445969
0.0446152
0.0446535
0.0447113
0.0447882
0.0448841
0.045002
0.0451391
0.0452958
0.0454705
0.0456675
0.045882
0.0461133
0.0463631
0.0466349
0.0469223
0.0472308
0.0475616
0.0479091
0.0482759
0.0486605
0.0490625
0.0494816
0.0499155
0.0503873
0.0507206
0.0502907
0.0498805
0.0494852
0.0491095
0.0487548
0.0484158
0.0480954
0.0477949
0.0475162
0.0472562
0.0470177
0.0467999
0.046603
0.0464258
0.0462664
0.0461301
0.0460109
0.0459119
0.0458318
0.0457716
0.0457328
0.0457125
0.0457133
0.0457318
0.0457712
0.0458298
0.0459088
0.0460072
0.0461273
0.0462674
0.0464279
0.0466065
0.0468082
0.0470278
0.0472652
0.0475211
0.0477997
0.0480947
0.0484107
0.0487494
0.0491052
0.049481
0.0498751
0.050287
0.0507168
0.0511607
0.0516436
0.0519978
0.0515566
0.0511362
0.0507307
0.0503459
0.0499821
0.0496349
0.0493072
0.0489993
0.0487138
0.0484477
0.0482033
0.0479811
0.0477791
0.0475965
0.0474332
0.0472931
0.0471717
0.0470703
0.0469876
0.0469256
0.0468858
0.0468652
0.0468667
0.0468857
0.046926
0.046986
0.0470668
0.0471674
0.0472901
0.0474337
0.047598
0.0477811
0.0479872
0.048212
0.0484558
0.0487182
0.0490035
0.0493068
0.0496311
0.0499775
0.0503422
0.0507271
0.0511312
0.0515532
0.0519939
0.0524485
0.0529425
0.053319
0.0528664
0.052435
0.0520194
0.051625
0.0512518
0.0508964
0.0505609
0.0502454
0.0499527
0.0496801
0.0494298
0.0492023
0.0489952
0.048807
0.0486398
0.0484953
0.0483718
0.048268
0.0481825
0.0481189
0.0480782
0.0480573
0.0480591
0.048079
0.0481198
0.0481817
0.0482641
0.0483666
0.0484925
0.0486396
0.048808
0.0489961
0.0492066
0.0494367
0.0496871
0.0499566
0.0502485
0.0505605
0.0508936
0.051248
0.0516219
0.0520165
0.0524308
0.0528634
0.0533152
0.0537811
0.0542865
0.0546865
0.0542224
0.0537793
0.0533535
0.0529491
0.0525663
0.0522023
0.0518586
0.0515351
0.0512349
0.0509556
0.050699
0.0504656
0.0502531
0.0500594
0.0498881
0.0497389
0.0496132
0.0495067
0.0494188
0.0493537
0.0493118
0.0492911
0.0492925
0.0493134
0.0493548
0.0494188
0.0495026
0.0496072
0.0497366
0.0498873
0.0500602
0.0502535
0.0504687
0.0507043
0.0509614
0.0512382
0.0515373
0.0518582
0.0522003
0.052563
0.0529466
0.0533512
0.0537762
0.0542198
0.0546831
0.0551608
0.055678
0.056597
0.0561029
0.0556271
0.0551715
0.0547354
0.0543206
0.0539275
0.0535547
0.0532024
0.0528706
0.0525629
0.0522765
0.052013
0.0517732
0.0515549
0.051356
0.05118
0.0510265
0.050898
0.0507888
0.0506988
0.0506322
0.050589
0.0505687
0.0505692
0.0505912
0.0506334
0.0506994
0.0507848
0.0508919
0.0510245
0.051179
0.0513567
0.0515551
0.0517756
0.052017
0.0522809
0.0525652
0.0528721
0.0532021
0.0535532
0.0539247
0.0543185
0.0547337
0.0551697
0.0556248
0.0561
0.0565901
0.0571196
0.0586234
0.0580786
0.057571
0.0570827
0.0566146
0.0561674
0.0557417
0.0553378
0.054956
0.0545945
0.0542543
0.0539391
0.0536449
0.0533741
0.0531274
0.0529031
0.0526993
0.0525183
0.0523607
0.0522287
0.0521166
0.0520251
0.0519566
0.0519123
0.0518921
0.0518919
0.0519148
0.0519584
0.0520257
0.0521131
0.0522229
0.0523589
0.0525173
0.0526998
0.0529031
0.0531294
0.0533772
0.053648
0.05394
0.0542553
0.0545948
0.0549548
0.0553357
0.05574
0.0561665
0.0566135
0.0570811
0.0575684
0.0580715
0.058614
0.0601742
0.0596151
0.0590936
0.0585917
0.0581111
0.0576524
0.0572153
0.0568
0.0564088
0.0560375
0.0556887
0.0553657
0.0550633
0.0547851
0.0545312
0.0543004
0.0540917
0.0539057
0.053744
0.0536077
0.0534929
0.0533997
0.0533294
0.0532842
0.0532636
0.053263
0.0532866
0.0533319
0.0534004
0.0534901
0.053603
0.0537423
0.0539049
0.0540919
0.0543001
0.0545324
0.0547872
0.0550654
0.0553653
0.0556894
0.0560385
0.056408
0.0567988
0.0572139
0.0576522
0.0581106
0.0585912
0.0590909
0.0596077
0.0601642
0.061783
0.0612093
0.0606733
0.0601573
0.0596638
0.0591932
0.0587442
0.058317
0.0579158
0.0575344
0.0571768
0.0568451
0.0565347
0.0562488
0.0559876
0.0557499
0.0555359
0.0553449
0.0551789
0.0550382
0.0549205
0.0548252
0.0547531
0.0547071
0.0546858
0.0546851
0.0547091
0.0547565
0.0548263
0.0549185
0.0550347
0.0551774
0.0553443
0.0555359
0.0557491
0.0559876
0.0562496
0.0565356
0.056844
0.0571772
0.0575359
0.0579156
0.0583171
0.0587431
0.0591936
0.0596641
0.0601578
0.0606706
0.0612016
0.061773
0.0634528
0.062864
0.0623131
0.0617828
0.0612755
0.060793
0.0603317
0.0598917
0.0594799
0.0590883
0.0587215
0.0583804
0.0580619
0.0577681
0.0574995
0.0572545
0.0570347
0.0568389
0.0566683
0.0565231
0.0564023
0.0563044
0.0562309
0.0561837
0.0561616
0.0561611
0.0561853
0.0562346
0.0563061
0.056401
0.0565206
0.0566671
0.0568383
0.0570345
0.057253
0.0574979
0.0577676
0.0580617
0.0583788
0.0587216
0.05909
0.0594805
0.0598932
0.0603306
0.0607935
0.061277
0.0617838
0.0623105
0.0628564
0.0634434
0.0651871
0.0645824
0.0640163
0.0634713
0.0629496
0.0624545
0.0619806
0.0615277
0.0611043
0.0607024
0.0603256
0.0599748
0.0596481
0.059346
0.0590697
0.058817
0.0585911
0.0583904
0.0582153
0.0580655
0.0579413
0.0578405
0.0577656
0.0577172
0.057694
0.057694
0.0577185
0.0577692
0.0578428
0.0579406
0.0580638
0.0582142
0.0583898
0.0585906
0.0588151
0.0590667
0.0593441
0.0596466
0.0599728
0.0603258
0.0607041
0.0611057
0.0615302
0.0619798
0.0624553
0.0629525
0.0634724
0.0640137
0.0645754
0.0651784
0.0669894
0.0663681
0.0657862
0.0652263
0.0646894
0.0641809
0.0636942
0.0632281
0.0627925
0.06238
0.0619925
0.0616316
0.0612964
0.0609856
0.0607012
0.0604407
0.0602083
0.0600025
0.059823
0.0596685
0.0595408
0.059437
0.0593602
0.0593105
0.0592864
0.0592868
0.0593119
0.0593638
0.0594396
0.0595405
0.0596672
0.0598218
0.0600018
0.0602074
0.0604388
0.060697
0.0609824
0.0612936
0.0616294
0.0619928
0.0623815
0.0627947
0.0632313
0.0636938
0.0641824
0.0646938
0.0652272
0.0657839
0.066362
0.0669811
0.0688632
0.0682248
0.0676266
0.0670513
0.0664986
0.0659758
0.0654761
0.0649967
0.0645482
0.0641245
0.0637257
0.0633543
0.0630102
0.0626904
0.0623973
0.0621289
0.0618899
0.0616787
0.0614946
0.0613355
0.061204
0.0610972
0.0610181
0.0609671
0.0609421
0.0609428
0.0609686
0.0610219
0.0611003
0.061204
0.0613343
0.061493
0.0616776
0.0618888
0.0621273
0.0623923
0.0626861
0.0630062
0.0633523
0.0637259
0.0641257
0.064551
0.0650002
0.065476
0.0659784
0.0665044
0.0670519
0.0676247
0.0682196
0.0688555
0.0708124
0.0701565
0.0695415
0.06895
0.0683814
0.067843
0.06733
0.0668371
0.0663751
0.0659398
0.065529
0.0651466
0.0647933
0.0644639
0.0641618
0.0638853
0.0636394
0.0634225
0.0632337
0.0630699
0.0629343
0.0628246
0.0627431
0.0626907
0.0626647
0.0626657
0.0626923
0.0627471
0.0628285
0.0629348
0.0630687
0.0632313
0.063421
0.0636383
0.0638841
0.0641565
0.0644589
0.0647883
0.065145
0.0655289
0.0659403
0.0663783
0.0668408
0.06733
0.0678471
0.0683877
0.0689502
0.0695396
0.0701519
0.0708051
0.0728412
0.072167
0.0715349
0.0709265
0.0703417
0.0697869
0.0692595
0.0687532
0.0682773
0.0678294
0.0674063
0.0670124
0.0666494
0.0663099
0.0659986
0.0657139
0.0654607
0.065238
0.0650437
0.0648756
0.0647354
0.064623
0.0645391
0.0644849
0.0644581
0.0644592
0.0644869
0.0645432
0.0646275
0.0647366
0.0648742
0.0650408
0.0652359
0.0654596
0.065713
0.0659932
0.0663047
0.0666437
0.0670114
0.0674059
0.0678291
0.0682804
0.0687567
0.0692601
0.0697922
0.0703479
0.0709261
0.0715327
0.0721631
0.072834
0.074954
0.0742606
0.0736107
0.0729847
0.0723837
0.0718119
0.0712689
0.070749
0.0702587
0.0697973
0.0693617
0.0689558
0.0685826
0.0682327
0.067912
0.0676187
0.0673582
0.0671291
0.0669288
0.0667565
0.0666115
0.0664964
0.06641
0.0663535
0.0663264
0.0663274
0.0663565
0.066414
0.0665013
0.0666134
0.0667549
0.0669256
0.0671265
0.067357
0.0676181
0.0679063
0.0682275
0.0685767
0.0689554
0.0693609
0.0697967
0.0702616
0.070752
0.0712707
0.0718176
0.0723889
0.0729839
0.0736082
0.0742576
0.0749468
0.0771552
0.0764417
0.0757733
0.0751291
0.0745117
0.0739223
0.0733627
0.0728287
0.0723234
0.0718479
0.0713997
0.0709811
0.0705971
0.0702365
0.0699062
0.069604
0.0693359
0.0691
0.0688934
0.0687168
0.0685671
0.0684492
0.0683603
0.0683011
0.0682737
0.0682746
0.0683052
0.0683638
0.068454
0.0685694
0.0687149
0.0688904
0.0690974
0.0693347
0.0696037
0.0699003
0.0702314
0.0705912
0.0709815
0.0713984
0.0718477
0.0723263
0.0728312
0.0733661
0.0739279
0.0745153
0.075128
0.0757708
0.0764396
0.0771482
0.0794494
0.0787151
0.0780276
0.0773647
0.0767301
0.0761225
0.0755457
0.0749967
0.0744757
0.0739858
0.0735246
0.0730932
0.0726977
0.072326
0.0719858
0.0716747
0.0713983
0.0711553
0.0709422
0.0707613
0.0706067
0.0704859
0.0703945
0.0703323
0.0703045
0.0703051
0.0703371
0.0703973
0.0704901
0.0706092
0.070759
0.07094
0.071153
0.0713972
0.0716745
0.0719796
0.0723209
0.0726919
0.0730942
0.0735231
0.0739863
0.0744791
0.0749989
0.0755506
0.0761276
0.0767319
0.0773629
0.0780247
0.0787138
0.0794428
0.0818416
0.0810857
0.0803783
0.0796963
0.0790434
0.0784174
0.0778228
0.0772581
0.0767208
0.0762161
0.0757415
0.0752971
0.0748893
0.0745063
0.0741557
0.0738358
0.0735504
0.0733
0.0730803
0.0728946
0.0727349
0.0726112
0.072517
0.0724519
0.0724234
0.0724237
0.0724571
0.072519
0.0726145
0.0727378
0.0728922
0.0730791
0.0732981
0.0735493
0.0738351
0.0741492
0.0745008
0.0748836
0.0752985
0.0757399
0.0762173
0.0767246
0.07726
0.0778288
0.0784218
0.0790437
0.0796934
0.0803747
0.081085
0.0818355
0.0843369
0.083559
0.0828305
0.0821288
0.0814568
0.0808122
0.0801992
0.079618
0.079064
0.0785439
0.0780555
0.0775979
0.0771773
0.0767824
0.0764209
0.0760921
0.0757974
0.0755392
0.0753128
0.0751216
0.0749568
0.0748299
0.0747328
0.0746654
0.0746354
0.0746355
0.0746703
0.0747342
0.0748324
0.0749605
0.07512
0.0753125
0.0755376
0.0757963
0.0760904
0.0764141
0.0767764
0.0771715
0.0775991
0.0780539
0.0785455
0.079068
0.07962
0.080206
0.0808161
0.0814559
0.0821251
0.082826
0.0835584
0.084331
0.0869404
0.0861402
0.0853899
0.0846677
0.0839758
0.0833123
0.0826802
0.0820815
0.0815109
0.0809746
0.0804719
0.0800009
0.0795667
0.0791597
0.0787866
0.0784491
0.0781447
0.0778786
0.0776454
0.0774476
0.0772779
0.0771474
0.0770472
0.0769781
0.0769462
0.0769462
0.0769823
0.0770485
0.0771492
0.0772824
0.0774474
0.0776454
0.0778768
0.0781433
0.0784459
0.07878
0.079153
0.0795609
0.0800016
0.0804706
0.0809766
0.0815149
0.0820844
0.0826874
0.0833158
0.0839739
0.0846633
0.0853843
0.0861392
0.0869346
0.0896578
0.0888348
0.0880621
0.0873187
0.0866062
0.0859233
0.0852717
0.0846544
0.0840672
0.0835141
0.0829966
0.0825115
0.0820633
0.0816437
0.0812586
0.0809119
0.0805977
0.0803238
0.0800835
0.0798785
0.0797041
0.0795694
0.0794657
0.0793957
0.0793614
0.0793615
0.0793988
0.0794677
0.0795706
0.0797093
0.0798799
0.0800836
0.0803214
0.0805963
0.0809076
0.0812527
0.0816366
0.0820573
0.0825115
0.0829955
0.0835164
0.0840714
0.084659
0.0852788
0.0859263
0.0866036
0.0873137
0.0880554
0.0888332
0.0896518
0.0924948
0.0916485
0.0908529
0.0900877
0.0893541
0.0886512
0.0879796
0.0873428
0.0867383
0.0861684
0.0856358
0.0851356
0.0846731
0.0842405
0.0838432
0.0834863
0.0831625
0.0828804
0.0826328
0.0824202
0.0822413
0.0821018
0.0819947
0.0819237
0.0818869
0.0818872
0.0819258
0.0819974
0.0821025
0.0822468
0.0824232
0.0826329
0.0828777
0.0831611
0.0834814
0.0838381
0.0842331
0.0846666
0.085135
0.0856346
0.0861711
0.0867433
0.0873492
0.0879861
0.0886534
0.0893511
0.0900824
0.0908453
0.0916463
0.0924886
0.0954576
0.0945872
0.0937683
0.0929812
0.0922257
0.0915019
0.0908097
0.090153
0.0895306
0.0889438
0.0883958
0.0878796
0.0874023
0.0869566
0.0865468
0.0861786
0.0858455
0.0855547
0.0852994
0.0850795
0.0848959
0.0847512
0.0846408
0.0845683
0.0845291
0.0845296
0.0845696
0.0846437
0.0847513
0.0849013
0.0850838
0.0852997
0.0855519
0.0858439
0.0861738
0.0865421
0.0869487
0.0873952
0.0878787
0.0883939
0.0889468
0.0895366
0.0901612
0.0908157
0.0915031
0.0922224
0.0929753
0.0937601
0.0945846
0.0954513
0.0985524
0.0976573
0.0968147
0.0960053
0.0952274
0.0944817
0.0937683
0.0930914
0.0924504
0.0918468
0.0912827
0.0907501
0.0902574
0.0897985
0.0893758
0.0889956
0.0886532
0.0883533
0.0880897
0.0878629
0.0876745
0.0875243
0.0874105
0.0873361
0.087295
0.0872952
0.0873369
0.0874133
0.0875236
0.0876794
0.0878684
0.0880906
0.0883506
0.0886513
0.0889914
0.0893713
0.08979
0.0902501
0.090749
0.0912804
0.0918503
0.0924578
0.0931012
0.0937743
0.0944819
0.0952236
0.0959986
0.0968062
0.0976546
0.0985462
0.101786
0.100865
0.0999984
0.0991664
0.0983656
0.0975972
0.0968622
0.0961646
0.0955046
0.094884
0.0943032
0.0937542
0.0932451
0.0927731
0.0923373
0.0919446
0.0915926
0.0912829
0.0910107
0.0907773
0.0905838
0.0904279
0.0903105
0.0902339
0.0901916
0.0901913
0.0902344
0.090313
0.0904266
0.0905881
0.0907838
0.0910129
0.0912806
0.0915903
0.0919409
0.0923326
0.0927642
0.0932382
0.0937526
0.0943009
0.0948883
0.0955136
0.0961761
0.0968688
0.0975967
0.098361
0.0991586
0.0999901
0.100862
0.10178
0.105164
0.104218
0.103326
0.102471
0.101647
0.100855
0.100098
0.0993798
0.0987005
0.0980623
0.0974643
0.096899
0.0963725
0.0958877
0.0954386
0.0950328
0.0946708
0.0943506
0.0940698
0.0938297
0.0936308
0.0934692
0.0933482
0.0932691
0.093226
0.0932253
0.0932694
0.0933503
0.0934676
0.0936349
0.0938371
0.0940738
0.0943493
0.0946681
0.0950293
0.0954329
0.0958781
0.0963665
0.0968964
0.0974623
0.0980677
0.0987109
0.0993928
0.100106
0.100855
0.101641
0.102462
0.103318
0.104215
0.105158
0.108694
0.107722
0.106805
0.105926
0.105078
0.104263
0.103484
0.102744
0.102045
0.101389
0.100773
0.100191
0.0996474
0.0991498
0.0986869
0.0982679
0.097895
0.0975639
0.0972746
0.0970275
0.0968229
0.0966559
0.0965312
0.0964494
0.0964058
0.0964048
0.0964493
0.0965328
0.0966543
0.0968272
0.0970357
0.0972804
0.0975642
0.0978922
0.0982641
0.0986801
0.099139
0.0996424
0.100188
0.100772
0.101395
0.102057
0.102758
0.103492
0.104263
0.105072
0.105916
0.106797
0.107718
0.108688
0.112382
0.111383
0.110441
0.109538
0.108667
0.107827
0.107026
0.106265
0.105547
0.104871
0.104238
0.103639
0.103077
0.102567
0.10209
0.101657
0.101273
0.10093
0.100633
0.100378
0.100168
0.0999957
0.0998675
0.0997827
0.0997384
0.0997378
0.0997821
0.0998683
0.0999945
0.100172
0.100387
0.10064
0.100933
0.10127
0.101653
0.102082
0.102554
0.103073
0.103634
0.104237
0.104879
0.105558
0.10628
0.107035
0.107828
0.10866
0.109528
0.110433
0.111379
0.112376
0.116235
0.11521
0.114243
0.113314
0.112419
0.111556
0.110733
0.10995
0.109212
0.108518
0.107865
0.107249
0.10667
0.106145
0.105654
0.105209
0.104813
0.104459
0.104153
0.103891
0.103675
0.103497
0.103365
0.103277
0.103232
0.103232
0.103276
0.103365
0.103496
0.103679
0.1039
0.104161
0.104463
0.10481
0.105204
0.105646
0.106132
0.106667
0.107243
0.107865
0.108525
0.109224
0.109965
0.110742
0.111558
0.112413
0.113304
0.114234
0.115204
0.116228
0.120259
0.119208
0.118215
0.117261
0.116343
0.115456
0.114611
0.113807
0.113048
0.112335
0.111663
0.111029
0.110434
0.109894
0.109389
0.108931
0.108523
0.108157
0.107843
0.107572
0.107351
0.107167
0.107032
0.106941
0.106895
0.106896
0.106939
0.10703
0.107167
0.107354
0.107582
0.107852
0.108163
0.108519
0.108925
0.10938
0.10988
0.110431
0.111023
0.111663
0.112341
0.11306
0.113821
0.11462
0.115459
0.116336
0.117253
0.118206
0.119201
0.120252
0.12446
0.123384
0.122366
0.121387
0.120445
0.119535
0.118667
0.117842
0.117063
0.116331
0.11564
0.114988
0.114376
0.113821
0.113303
0.11283
0.112411
0.112034
0.11171
0.111432
0.111204
0.111015
0.110876
0.110783
0.110736
0.110736
0.11078
0.110873
0.111015
0.111207
0.111442
0.111719
0.11204
0.112406
0.112824
0.113293
0.113806
0.114373
0.114982
0.115639
0.116336
0.117074
0.117856
0.118676
0.119539
0.120438
0.121379
0.122357
0.123377
0.124453
0.128845
0.127744
0.126701
0.125697
0.124732
0.123799
0.122909
0.122063
0.121264
0.120513
0.119802
0.119133
0.118505
0.117934
0.117402
0.116916
0.116485
0.116097
0.115763
0.115476
0.115243
0.11505
0.114906
0.114811
0.114762
0.114762
0.114807
0.114902
0.115049
0.115246
0.115487
0.115773
0.116103
0.11648
0.116909
0.117393
0.117919
0.118501
0.119127
0.119802
0.120517
0.121274
0.122076
0.122919
0.123804
0.124725
0.12569
0.126692
0.127736
0.128838
0.133419
0.132293
0.131226
0.130198
0.12921
0.128256
0.127344
0.126477
0.125658
0.124888
0.124157
0.123472
0.122827
0.12224
0.121696
0.121196
0.120752
0.120354
0.120011
0.119715
0.119476
0.119278
0.119131
0.119032
0.118982
0.118982
0.119029
0.119125
0.119277
0.119479
0.119727
0.120021
0.12036
0.120748
0.121189
0.121686
0.122226
0.122823
0.123466
0.124158
0.12489
0.125668
0.126489
0.127353
0.12826
0.129204
0.130192
0.131217
0.132285
0.133411
0.138186
0.137036
0.135946
0.134895
0.133886
0.13291
0.131977
0.13109
0.130252
0.129463
0.128713
0.128011
0.12735
0.126748
0.12619
0.125677
0.125221
0.124813
0.12446
0.124157
0.123911
0.123709
0.123557
0.123456
0.123404
0.123404
0.123452
0.123551
0.123708
0.123914
0.124169
0.124471
0.12482
0.125217
0.12567
0.126181
0.126734
0.127345
0.128005
0.128714
0.129463
0.130261
0.131101
0.131986
0.132914
0.133879
0.13489
0.135938
0.137028
0.138178
0.143151
0.141978
0.140867
0.139793
0.138764
0.137768
0.136815
0.135909
0.135051
0.134244
0.133476
0.132758
0.132081
0.131463
0.130893
0.130367
0.129899
0.129481
0.129119
0.128808
0.128555
0.128349
0.128193
0.128088
0.128036
0.128036
0.128084
0.128186
0.128348
0.128558
0.12882
0.12913
0.129488
0.129895
0.13036
0.130883
0.131451
0.132076
0.132752
0.133477
0.134243
0.135059
0.135919
0.136824
0.137771
0.138757
0.139788
0.140858
0.141969
0.143142
0.148315
0.147121
0.14599
0.144896
0.143847
0.142834
0.141861
0.140937
0.140061
0.139236
0.138452
0.137717
0.137025
0.136392
0.13581
0.135272
0.134793
0.134365
0.133994
0.133676
0.133416
0.133206
0.133045
0.132938
0.132884
0.132884
0.132933
0.133039
0.133204
0.133419
0.133688
0.134006
0.134373
0.134789
0.135265
0.1358
0.136381
0.13702
0.137712
0.138451
0.139234
0.140068
0.140945
0.14187
0.142836
0.143842
0.144892
0.145982
0.147112
0.148307
0.153681
0.152468
0.151319
0.150206
0.14914
0.14811
0.14712
0.146179
0.145285
0.144444
0.143645
0.142894
0.142188
0.141541
0.140948
0.140397
0.139908
0.139471
0.139091
0.138767
0.1385
0.138286
0.138121
0.138011
0.137956
0.137955
0.138006
0.138115
0.138283
0.138502
0.138778
0.139103
0.139479
0.139905
0.140391
0.140937
0.141532
0.142183
0.142889
0.143643
0.144442
0.145291
0.146185
0.147127
0.148112
0.149135
0.150202
0.151311
0.152459
0.153673
0.159247
0.158019
0.156853
0.155725
0.154643
0.153598
0.152593
0.151636
0.150727
0.149871
0.149058
0.148293
0.147574
0.146913
0.146309
0.145749
0.14525
0.144804
0.144416
0.144085
0.143811
0.143594
0.143425
0.143312
0.143256
0.143255
0.143307
0.143421
0.143591
0.143814
0.144096
0.144428
0.144812
0.145247
0.145743
0.146298
0.146906
0.147568
0.148287
0.149055
0.149868
0.150732
0.151641
0.152598
0.1536
0.154638
0.155721
0.156846
0.15801
0.159239
0.165012
0.163771
0.162592
0.161451
0.160355
0.159298
0.15828
0.15731
0.156388
0.155518
0.154693
0.153915
0.153185
0.152512
0.151898
0.151328
0.15082
0.150367
0.149972
0.149634
0.149355
0.149134
0.148962
0.148846
0.148788
0.148788
0.148841
0.148958
0.149131
0.149357
0.149644
0.149983
0.150374
0.150818
0.151323
0.151887
0.152505
0.153179
0.153909
0.154689
0.155514
0.156391
0.157313
0.158284
0.159299
0.160351
0.161448
0.162587
0.163763
0.165005
0.170973
0.169723
0.168533
0.167382
0.166275
0.165208
0.16418
0.163198
0.162266
0.161385
0.160549
0.15976
0.159022
0.158338
0.157714
0.157137
0.156621
0.156161
0.15576
0.155416
0.155132
0.154907
0.154733
0.154614
0.154556
0.154555
0.154609
0.154729
0.154904
0.155133
0.155426
0.15577
0.156168
0.156619
0.157132
0.157704
0.158332
0.159014
0.159755
0.160545
0.16138
0.162267
0.1632
0.164182
0.165209
0.166273
0.16738
0.16853
0.169714
0.170965
0.177128
0.175872
0.174675
0.173516
0.172399
0.171325
0.170289
0.169299
0.168359
0.16747
0.166625
0.165827
0.165081
0.164389
0.163758
0.163175
0.162652
0.162186
0.16178
0.161431
0.161143
0.160914
0.160738
0.160618
0.160558
0.160557
0.160612
0.160735
0.160911
0.161143
0.161439
0.161789
0.162193
0.16265
0.16317
0.163748
0.164384
0.165073
0.165822
0.16662
0.167463
0.168359
0.1693
0.170291
0.171325
0.172399
0.173515
0.174672
0.175864
0.177121
0.183499
0.182236
0.18103
0.179862
0.178735
0.17765
0.176606
0.175611
0.174665
0.173769
0.172917
0.172113
0.171362
0.170663
0.170026
0.169438
0.168909
0.168439
0.16803
0.167676
0.167384
0.167153
0.166975
0.166854
0.166793
0.166791
0.166848
0.166972
0.16715
0.167384
0.167683
0.168037
0.168446
0.168908
0.169432
0.170015
0.170658
0.171353
0.172108
0.172912
0.173762
0.174664
0.175611
0.176607
0.17765
0.178736
0.179862
0.181028
0.182228
0.183493
0.190249
0.188951
0.187709
0.186504
0.18534
0.18422
0.183154
0.182152
0.1812
0.180297
0.179437
0.178626
0.177867
0.17716
0.176517
0.175925
0.175393
0.17492
0.174507
0.17415
0.173855
0.173622
0.173443
0.173321
0.173259
0.173257
0.173315
0.17344
0.17362
0.173855
0.174156
0.174513
0.174925
0.175392
0.17592
0.176506
0.177155
0.177858
0.178621
0.179431
0.180288
0.181198
0.182152
0.183156
0.18422
0.185342
0.186504
0.187707
0.188944
0.190244
0.197532
0.196175
0.194873
0.19361
0.192387
0.191211
0.190101
0.18907
0.188088
0.187156
0.186268
0.185431
0.184648
0.183918
0.183256
0.18266
0.182123
0.181647
0.18123
0.180869
0.180572
0.180336
0.180155
0.180033
0.17997
0.179968
0.180027
0.180152
0.180333
0.180572
0.180874
0.181234
0.181651
0.182123
0.182655
0.183244
0.183914
0.184639
0.185427
0.186263
0.187147
0.188086
0.189069
0.190103
0.191211
0.192389
0.19361
0.194872
0.196169
0.197529
0.205205
0.203824
0.202496
0.201206
0.199956
0.198753
0.197606
0.196525
0.195494
0.194516
0.193585
0.192707
0.191885
0.191119
0.190424
0.189811
0.189257
0.188767
0.188336
0.187963
0.187656
0.187411
0.187225
0.187099
0.187034
0.187032
0.187093
0.187222
0.187409
0.187655
0.187966
0.188338
0.188769
0.189256
0.189805
0.190413
0.191114
0.191876
0.192702
0.193579
0.194507
0.195492
0.196524
0.197606
0.198752
0.199959
0.201207
0.202495
0.203819
0.205203
0.213058
0.211695
0.210381
0.209105
0.207865
0.206671
0.205518
0.204417
0.203366
0.202367
0.201416
0.200519
0.19968
0.198896
0.198183
0.197541
0.196961
0.196446
0.195993