/*--------------------------------*- C++ -*----------------------------------*\
  =========                 |
  \\      /  F ield         | OpenFOAM: The Open Source CFD Toolbox
   \\    /   O peration     | Website:  https://openfoam.org
    \\  /    A nd           | Version:  7
     \\/     M anipulation  |
\*---------------------------------------------------------------------------*/
FoamFile
{
    version     2.0;
    format      ascii;
    class       volScalarField;
    location    "4000";
    object      nut;
}
// * * * * * * * * * * * * * * * * * * * * * * * * * * * * * * * * * * * * * //

dimensions      [0 2 -1 0 0 0 0];

internalField   nonuniform List<scalar> 
4782
(
8.72255e-16
8.57484e-16
8.3937e-16
8.17405e-16
7.91396e-16
7.61555e-16
7.28455e-16
6.92911e-16
6.55825e-16
6.18061e-16
1.17342e-15
1.1678e-15
1.16217e-15
1.15653e-15
1.15084e-15
1.14512e-15
1.13935e-15
1.13353e-15
1.12766e-15
1.12174e-15
1.11578e-15
1.10976e-15
1.1037e-15
1.09758e-15
1.09142e-15
1.0852e-15
1.07894e-15
1.07263e-15
1.06627e-15
1.05987e-15
1.05342e-15
1.04692e-15
1.04038e-15
1.0338e-15
1.02717e-15
1.0205e-15
1.01378e-15
1.00701e-15
1.00019e-15
9.93315e-16
9.86389e-16
9.79416e-16
9.72407e-16
9.65383e-16
9.58368e-16
9.51393e-16
9.44482e-16
9.37647e-16
9.30867e-16
9.24079e-16
9.17158e-16
9.09904e-16
9.02021e-16
8.93106e-16
8.8263e-16
8.69953e-16
8.54381e-16
8.35278e-16
8.12231e-16
7.85174e-16
7.54434e-16
7.20663e-16
6.84707e-16
6.47457e-16
6.09742e-16
1.17141e-15
1.16574e-15
1.16008e-15
1.15441e-15
1.14871e-15
1.14298e-15
1.13721e-15
1.13139e-15
1.12553e-15
1.11962e-15
1.11365e-15
1.10764e-15
1.10158e-15
1.09547e-15
1.08931e-15
1.0831e-15
1.07685e-15
1.07054e-15
1.06418e-15
1.05778e-15
1.05134e-15
1.04484e-15
1.03831e-15
1.03173e-15
1.0251e-15
1.01843e-15
1.01171e-15
1.00494e-15
9.98124e-16
9.9125e-16
9.84322e-16
9.77349e-16
9.70345e-16
9.6333e-16
9.56334e-16
9.49386e-16
9.4251e-16
9.35711e-16
9.28959e-16
9.22177e-16
9.15222e-16
9.07869e-16
8.99796e-16
8.90565e-16
8.79618e-16
8.66294e-16
8.49904e-16
8.29864e-16
8.05848e-16
7.77895e-16
7.46427e-16
7.12154e-16
6.75938e-16
6.38652e-16
6.01086e-16
1.16933e-15
1.16363e-15
1.15795e-15
1.15226e-15
1.14655e-15
1.14081e-15
1.13503e-15
1.12921e-15
1.12334e-15
1.11742e-15
1.11146e-15
1.10545e-15
1.09939e-15
1.09328e-15
1.08712e-15
1.08091e-15
1.07466e-15
1.06835e-15
1.06199e-15
1.05559e-15
1.04915e-15
1.04265e-15
1.03612e-15
1.02954e-15
1.02291e-15
1.01624e-15
1.00952e-15
1.00275e-15
9.95926e-16
9.89046e-16
9.82115e-16
9.75142e-16
9.68142e-16
9.61139e-16
9.54163e-16
9.47243e-16
9.40399e-16
9.33628e-16
9.26888e-16
9.20086e-16
9.13057e-16
9.05552e-16
8.97223e-16
8.876e-16
8.76098e-16
8.62046e-16
8.44778e-16
8.23772e-16
7.98795e-16
7.69995e-16
7.37874e-16
7.03185e-16
6.66793e-16
6.29547e-16
5.92195e-16
1.16712e-15
1.16142e-15
1.15573e-15
1.15004e-15
1.14433e-15
1.13858e-15
1.1328e-15
1.12697e-15
1.1211e-15
1.11518e-15
1.10922e-15
1.1032e-15
1.09714e-15
1.09103e-15
1.08487e-15
1.07865e-15
1.0724e-15
1.06609e-15
1.05973e-15
1.05333e-15
1.04688e-15
1.04039e-15
1.03385e-15
1.02727e-15
1.02065e-15
1.01398e-15
1.00726e-15
1.00048e-15
9.93655e-16
9.86773e-16
9.79842e-16
9.72872e-16
9.65883e-16
9.58899e-16
9.51951e-16
9.45066e-16
9.38258e-16
9.31515e-16
9.24781e-16
9.17944e-16
9.10818e-16
9.0313e-16
8.94499e-16
8.84429e-16
8.72311e-16
8.57471e-16
8.39277e-16
8.1728e-16
7.91352e-16
7.61738e-16
7.29014e-16
6.93967e-16
6.57455e-16
6.20295e-16
5.83194e-16
1.16729e-15
1.16159e-15
1.1559e-15
1.15021e-15
1.14449e-15
1.13875e-15
1.13296e-15
1.12713e-15
1.12126e-15
1.11534e-15
1.10938e-15
1.10336e-15
1.0973e-15
1.09118e-15
1.08502e-15
1.07881e-15
1.07255e-15
1.06624e-15
1.05988e-15
1.05348e-15
1.04703e-15
1.04054e-15
1.034e-15
1.02742e-15
1.0208e-15
1.01412e-15
1.0074e-15
1.00063e-15
9.93797e-16
9.86914e-16
9.79981e-16
9.73009e-16
9.66017e-16
9.59031e-16
9.5208e-16
9.45193e-16
9.38382e-16
9.31637e-16
9.24901e-16
9.18063e-16
9.10938e-16
9.03252e-16
8.94625e-16
8.8456e-16
8.72449e-16
8.57618e-16
8.39433e-16
8.17443e-16
7.91519e-16
7.61905e-16
7.29176e-16
6.94118e-16
6.57592e-16
6.20416e-16
5.83297e-16
1.16985e-15
1.16415e-15
1.15846e-15
1.15277e-15
1.14705e-15
1.1413e-15
1.13552e-15
1.12969e-15
1.12382e-15
1.1179e-15
1.11194e-15
1.10592e-15
1.09986e-15
1.09375e-15
1.08759e-15
1.08138e-15
1.07512e-15
1.06881e-15
1.06246e-15
1.05606e-15
1.04961e-15
1.04312e-15
1.03658e-15
1.03e-15
1.02337e-15
1.0167e-15
1.00997e-15
1.0032e-15
9.96371e-16
9.89488e-16
9.82553e-16
9.75574e-16
9.68568e-16
9.61558e-16
9.54575e-16
9.47647e-16
9.40796e-16
9.34019e-16
9.27275e-16
9.20471e-16
9.13444e-16
9.05947e-16
8.9763e-16
8.88026e-16
8.76551e-16
8.62532e-16
8.453e-16
8.24329e-16
7.99383e-16
7.70601e-16
7.38484e-16
7.03785e-16
6.67367e-16
6.30078e-16
5.92668e-16
5.55746e-16
5.19775e-16
4.8508e-16
4.51872e-16
1.17228e-15
1.1666e-15
1.16092e-15
1.15524e-15
1.14953e-15
1.14378e-15
1.138e-15
1.13218e-15
1.12631e-15
1.1204e-15
1.11444e-15
1.10843e-15
1.10237e-15
1.09626e-15
1.0901e-15
1.0839e-15
1.07764e-15
1.07134e-15
1.06499e-15
1.05859e-15
1.05214e-15
1.04565e-15
1.03912e-15
1.03253e-15
1.02591e-15
1.01924e-15
1.01252e-15
1.00575e-15
9.98928e-16
9.9205e-16
9.85117e-16
9.78138e-16
9.71125e-16
9.641e-16
9.57093e-16
9.50134e-16
9.43248e-16
9.36441e-16
9.29686e-16
9.22906e-16
9.1596e-16
9.08625e-16
9.00579e-16
8.91387e-16
8.80489e-16
8.67223e-16
8.50895e-16
8.30913e-16
8.0694e-16
7.7901e-16
7.47538e-16
7.13235e-16
6.76961e-16
6.39595e-16
6.01928e-16
5.64618e-16
5.2817e-16
4.92948e-16
4.59189e-16
4.27036e-16
1.17461e-15
1.16893e-15
1.16327e-15
1.15759e-15
1.15189e-15
1.14616e-15
1.14039e-15
1.13457e-15
1.12871e-15
1.12281e-15
1.11685e-15
1.11085e-15
1.1048e-15
1.09869e-15
1.09254e-15
1.08634e-15
1.08009e-15
1.07379e-15
1.06745e-15
1.06105e-15
1.05461e-15
1.04813e-15
1.04159e-15
1.03502e-15
1.0284e-15
1.02173e-15
1.01502e-15
1.00826e-15
1.00144e-15
9.9457e-16
9.87644e-16
9.80668e-16
9.73654e-16
9.66621e-16
9.59597e-16
9.52613e-16
9.45697e-16
9.38862e-16
9.32094e-16
9.2533e-16
9.18449e-16
9.11251e-16
9.03441e-16
8.94614e-16
8.84238e-16
8.71665e-16
8.5619e-16
8.37167e-16
8.14167e-16
7.87116e-16
7.56339e-16
7.22492e-16
6.86424e-16
6.49037e-16
6.11162e-16
5.73504e-16
5.36613e-16
5.00888e-16
4.66598e-16
4.33903e-16
4.02882e-16
3.73552e-16
3.45885e-16
3.19828e-16
2.9531e-16
2.72249e-16
2.50563e-16
2.30169e-16
2.10989e-16
1.9295e-16
1.75985e-16
1.60035e-16
1.45044e-16
1.30967e-16
1.17762e-16
1.05391e-16
9.38222e-17
8.30283e-17
7.2984e-17
6.36674e-17
5.50585e-17
4.71395e-17
3.98936e-17
3.33055e-17
2.73605e-17
2.20445e-17
1.7344e-17
1.32459e-17
9.73831e-18
6.81224e-18
4.46871e-18
2.68429e-18
1.39399e-18
5.62125e-19
1.39177e-19
1.17682e-15
1.17116e-15
1.16551e-15
1.15984e-15
1.15416e-15
1.14843e-15
1.14267e-15
1.13687e-15
1.13101e-15
1.12512e-15
1.11917e-15
1.11317e-15
1.10713e-15
1.10104e-15
1.09489e-15
1.0887e-15
1.08246e-15
1.07617e-15
1.06983e-15
1.06344e-15
1.057e-15
1.05052e-15
1.044e-15
1.03743e-15
1.03081e-15
1.02415e-15
1.01745e-15
1.01069e-15
1.00389e-15
9.97028e-16
9.90111e-16
9.83142e-16
9.76131e-16
9.69094e-16
9.62058e-16
9.55054e-16
9.48112e-16
9.41252e-16
9.34467e-16
9.27712e-16
9.20881e-16
9.13796e-16
9.06189e-16
8.97682e-16
8.8777e-16
8.75827e-16
8.61142e-16
8.43027e-16
8.20972e-16
7.94799e-16
7.64735e-16
7.31374e-16
6.95547e-16
6.58169e-16
6.20111e-16
5.82124e-16
5.44802e-16
5.08585e-16
4.73771e-16
4.40547e-16
4.09005e-16
3.79174e-16
3.51035e-16
3.24536e-16
2.99607e-16
2.76167e-16
2.54131e-16
2.33416e-16
2.13941e-16
1.9563e-16
1.78415e-16
1.62233e-16
1.47029e-16
1.32754e-16
1.19364e-16
1.06822e-16
9.50956e-17
8.41546e-17
7.39739e-17
6.45309e-17
5.58053e-17
4.77788e-17
4.04346e-17
3.37569e-17
2.77309e-17
2.23424e-17
1.75777e-17
1.34235e-17
9.86779e-18
6.90122e-18
4.52434e-18
2.71605e-18
1.40929e-18
5.67438e-19
1.40059e-19
1.17894e-15
1.17329e-15
1.16764e-15
1.16199e-15
1.15631e-15
1.1506e-15
1.14485e-15
1.13905e-15
1.13321e-15
1.12732e-15
1.12139e-15
1.1154e-15
1.10936e-15
1.10328e-15
1.09714e-15
1.09096e-15
1.08473e-15
1.07844e-15
1.07211e-15
1.06573e-15
1.0593e-15
1.05283e-15
1.04631e-15
1.03975e-15
1.03314e-15
1.02649e-15
1.0198e-15
1.01305e-15
1.00626e-15
9.99406e-16
9.925e-16
9.85541e-16
9.78536e-16
9.71499e-16
9.64456e-16
9.57436e-16
9.50472e-16
9.43587e-16
9.36785e-16
9.30032e-16
9.23238e-16
9.16247e-16
9.08812e-16
9.00582e-16
8.91082e-16
8.79706e-16
8.65749e-16
8.4849e-16
8.27349e-16
8.02048e-16
7.72716e-16
7.39877e-16
7.04332e-16
6.67005e-16
6.28802e-16
5.90518e-16
5.52793e-16
5.16105e-16
4.80788e-16
4.47049e-16
4.15e-16
3.84681e-16
3.56079e-16
3.29146e-16
3.03815e-16
2.80003e-16
2.57625e-16
2.36595e-16
2.1683e-16
1.98253e-16
1.80792e-16
1.64383e-16
1.4897e-16
1.34501e-16
1.20931e-16
1.08223e-16
9.63408e-17
8.52559e-17
7.49418e-17
6.53752e-17
5.65355e-17
4.8404e-17
4.09635e-17
3.41983e-17
2.80931e-17
2.26337e-17
1.78061e-17
1.35972e-17
9.99437e-18
6.98822e-18
4.57874e-18
2.74707e-18
1.42422e-18
5.72618e-19
1.40916e-19
1.18095e-15
1.17531e-15
1.16968e-15
1.16404e-15
1.15837e-15
1.15267e-15
1.14692e-15
1.14114e-15
1.13531e-15
1.12943e-15
1.1235e-15
1.11752e-15
1.1115e-15
1.10542e-15
1.0993e-15
1.09312e-15
1.08689e-15
1.08062e-15
1.0743e-15
1.06793e-15
1.06151e-15
1.05504e-15
1.04853e-15
1.04198e-15
1.03538e-15
1.02874e-15
1.02205e-15
1.01532e-15
1.00853e-15
1.00169e-15
9.94801e-16
9.87852e-16
9.80855e-16
9.73822e-16
9.66774e-16
9.59743e-16
9.52759e-16
9.45853e-16
9.39032e-16
9.32275e-16
9.25508e-16
9.18592e-16
9.11302e-16
9.03313e-16
8.94176e-16
8.8331e-16
8.70018e-16
8.53561e-16
8.33297e-16
8.08858e-16
7.80272e-16
7.47985e-16
7.12762e-16
6.75529e-16
6.3722e-16
5.98674e-16
5.60574e-16
5.2344e-16
4.87638e-16
4.534e-16
4.20858e-16
3.90062e-16
3.61007e-16
3.33651e-16
3.07925e-16
2.83749e-16
2.61036e-16
2.39697e-16
2.19649e-16
2.00811e-16
1.8311e-16
1.6648e-16
1.50862e-16
1.36203e-16
1.22458e-16
1.09587e-16
9.75539e-17
8.63287e-17
7.58845e-17
6.61975e-17
5.72466e-17
4.90128e-17
4.14787e-17
3.46281e-17
2.84458e-17
2.29173e-17
1.80286e-17
1.37662e-17
1.01176e-17
7.07294e-18
4.63175e-18
2.77727e-18
1.43875e-18
5.77649e-19
1.41746e-19
1.18287e-15
1.17724e-15
1.17162e-15
1.16598e-15
1.16032e-15
1.15463e-15
1.1489e-15
1.14312e-15
1.1373e-15
1.13143e-15
1.12551e-15
1.11954e-15
1.11353e-15
1.10746e-15
1.10134e-15
1.09518e-15
1.08896e-15
1.0827e-15
1.07638e-15
1.07002e-15
1.06361e-15
1.05716e-15
1.05066e-15
1.04411e-15
1.03752e-15
1.03089e-15
1.02421e-15
1.01748e-15
1.01071e-15
1.00388e-15
9.97003e-16
9.90066e-16
9.83078e-16
9.7605e-16
9.69002e-16
9.61962e-16
9.54962e-16
9.48035e-16
9.41196e-16
9.34431e-16
9.27682e-16
9.20825e-16
9.13656e-16
9.05874e-16
8.97056e-16
8.86646e-16
8.73961e-16
8.5825e-16
8.38822e-16
8.15224e-16
7.87388e-16
7.55678e-16
7.20814e-16
6.83714e-16
6.45339e-16
6.06565e-16
5.6812e-16
5.30566e-16
4.943e-16
4.59582e-16
4.26561e-16
3.95301e-16
3.65806e-16
3.38036e-16
3.11925e-16
2.87394e-16
2.64353e-16
2.42713e-16
2.22388e-16
2.03295e-16
1.8536e-16
1.68515e-16
1.52698e-16
1.37855e-16
1.2394e-16
1.1091e-16
9.87307e-17
8.73694e-17
7.67989e-17
6.69951e-17
5.79364e-17
4.96034e-17
4.19784e-17
3.5045e-17
2.8788e-17
2.31925e-17
1.82444e-17
1.39302e-17
1.02372e-17
7.15511e-18
4.68317e-18
2.80653e-18
1.45281e-18
5.82514e-19
1.42547e-19
1.18469e-15
1.17907e-15
1.17345e-15
1.16783e-15
1.16218e-15
1.15649e-15
1.15077e-15
1.145e-15
1.13919e-15
1.13333e-15
1.12742e-15
1.12146e-15
1.11545e-15
1.10939e-15
1.10329e-15
1.09713e-15
1.09092e-15
1.08467e-15
1.07836e-15
1.07201e-15
1.06561e-15
1.05916e-15
1.05267e-15
1.04613e-15
1.03955e-15
1.03293e-15
1.02626e-15
1.01955e-15
1.01278e-15
1.00597e-15
9.99101e-16
9.92176e-16
9.85198e-16
9.78177e-16
9.7113e-16
9.64084e-16
9.57071e-16
9.50125e-16
9.43267e-16
9.36492e-16
9.29752e-16
9.22941e-16
9.15874e-16
9.08269e-16
8.9973e-16
8.89726e-16
8.7759e-16
8.62567e-16
8.43929e-16
8.21147e-16
7.94058e-16
7.62943e-16
7.28466e-16
6.91537e-16
6.53131e-16
6.14164e-16
5.75405e-16
5.37456e-16
5.00749e-16
4.6557e-16
4.32088e-16
4.0038e-16
3.70457e-16
3.42285e-16
3.158e-16
2.90923e-16
2.67563e-16
2.45631e-16
2.25037e-16
2.05698e-16
1.87537e-16
1.70482e-16
1.54472e-16
1.39451e-16
1.25371e-16
1.12189e-16
9.98672e-17
8.83743e-17
7.7682e-17
6.77653e-17
5.86024e-17
5.01736e-17
4.24608e-17
3.54476e-17
2.91183e-17
2.34581e-17
1.84528e-17
1.40886e-17
1.03526e-17
7.23445e-18
4.73285e-18
2.83476e-18
1.46637e-18
5.87199e-19
1.43317e-19
1.18641e-15
1.1808e-15
1.17519e-15
1.16957e-15
1.16393e-15
1.15826e-15
1.15254e-15
1.14678e-15
1.14097e-15
1.13512e-15
1.12922e-15
1.12327e-15
1.11727e-15
1.11122e-15
1.10513e-15
1.09898e-15
1.09278e-15
1.08653e-15
1.08024e-15
1.07389e-15
1.0675e-15
1.06106e-15
1.05458e-15
1.04805e-15
1.04148e-15
1.03486e-15
1.02821e-15
1.0215e-15
1.01475e-15
1.00795e-15
1.00109e-15
9.94177e-16
9.87209e-16
9.80195e-16
9.73151e-16
9.66101e-16
9.59078e-16
9.52115e-16
9.45238e-16
9.3845e-16
9.31715e-16
9.24939e-16
9.17955e-16
9.10501e-16
9.02205e-16
8.9256e-16
8.80918e-16
8.66528e-16
8.48629e-16
8.26629e-16
8.00276e-16
7.69763e-16
7.35699e-16
6.98971e-16
6.6057e-16
6.21442e-16
5.824e-16
5.44084e-16
5.06961e-16
4.71343e-16
4.37418e-16
4.05278e-16
3.74942e-16
3.46382e-16
3.19536e-16
2.94324e-16
2.70657e-16
2.48442e-16
2.27589e-16
2.08011e-16
1.89631e-16
1.72374e-16
1.56179e-16
1.40986e-16
1.26747e-16
1.13418e-16
1.0096e-16
8.93402e-17
7.85306e-17
6.85055e-17
5.92425e-17
5.07216e-17
4.29245e-17
3.58345e-17
2.94358e-17
2.37134e-17
1.8653e-17
1.42407e-17
1.04635e-17
7.31071e-18
4.78062e-18
2.86188e-18
1.47938e-18
5.91689e-19
1.44052e-19
1.18803e-15
1.18242e-15
1.17682e-15
1.17121e-15
1.16558e-15
1.15991e-15
1.1542e-15
1.14845e-15
1.14266e-15
1.13681e-15
1.13092e-15
1.12498e-15
1.11899e-15
1.11295e-15
1.10686e-15
1.10072e-15
1.09453e-15
1.08829e-15
1.082e-15
1.07567e-15
1.06929e-15
1.06286e-15
1.05638e-15
1.04986e-15
1.0433e-15
1.03669e-15
1.03004e-15
1.02334e-15
1.0166e-15
1.00981e-15
1.00296e-15
9.96063e-16
9.89106e-16
9.82101e-16
9.75061e-16
9.68009e-16
9.60976e-16
9.53999e-16
9.47104e-16
9.40303e-16
9.33567e-16
9.26817e-16
9.199e-16
9.12575e-16
9.04489e-16
8.95161e-16
8.83963e-16
8.70148e-16
8.52937e-16
8.3168e-16
8.06042e-16
7.76133e-16
7.42497e-16
7.05997e-16
6.67631e-16
6.28375e-16
5.8908e-16
5.50425e-16
5.1291e-16
4.76876e-16
4.42529e-16
4.09976e-16
3.79245e-16
3.50311e-16
3.23118e-16
2.97584e-16
2.73621e-16
2.51134e-16
2.30031e-16
2.10225e-16
1.91634e-16
1.74185e-16
1.57811e-16
1.42454e-16
1.28063e-16
1.14593e-16
1.02004e-16
9.02637e-17
7.9342e-17
6.92132e-17
5.98544e-17
5.12454e-17
4.33677e-17
3.62043e-17
2.97392e-17
2.39574e-17
1.88444e-17
1.43861e-17
1.05695e-17
7.38361e-18
4.82631e-18
2.88778e-18
1.4918e-18
5.95971e-19
1.44752e-19
1.18955e-15
1.18395e-15
1.17835e-15
1.17275e-15
1.16713e-15
1.16147e-15
1.15577e-15
1.15002e-15
1.14423e-15
1.1384e-15
1.13251e-15
1.12658e-15
1.12059e-15
1.11456e-15
1.10848e-15
1.10235e-15
1.09617e-15
1.08994e-15
1.08366e-15
1.07733e-15
1.07096e-15
1.06454e-15
1.05807e-15
1.05156e-15
1.045e-15
1.0384e-15
1.03176e-15
1.02507e-15
1.01834e-15
1.01156e-15
1.00472e-15
9.97833e-16
9.90887e-16
9.8389e-16
9.76855e-16
9.69802e-16
9.62763e-16
9.55772e-16
9.48862e-16
9.42045e-16
9.35306e-16
9.28574e-16
9.21711e-16
9.14494e-16
9.06591e-16
8.9754e-16
8.86737e-16
8.73443e-16
8.56866e-16
8.36308e-16
8.1136e-16
7.82045e-16
7.48848e-16
7.12597e-16
6.74293e-16
6.34938e-16
5.9542e-16
5.56454e-16
5.18574e-16
4.82148e-16
4.47402e-16
4.14455e-16
3.83347e-16
3.54057e-16
3.26532e-16
3.00691e-16
2.76445e-16
2.53698e-16
2.32357e-16
2.12333e-16
1.93541e-16
1.75908e-16
1.59364e-16
1.4385e-16
1.29314e-16
1.1571e-16
1.02997e-16
9.11414e-17
8.01131e-17
6.98857e-17
6.0436e-17
5.17433e-17
4.3789e-17
3.65558e-17
3.00277e-17
2.41894e-17
1.90263e-17
1.45244e-17
1.06702e-17
7.45291e-18
4.86977e-18
2.91239e-18
1.50358e-18
6.00031e-19
1.45414e-19
1.19096e-15
1.18537e-15
1.17978e-15
1.17419e-15
1.16857e-15
1.16291e-15
1.15722e-15
1.15148e-15
1.1457e-15
1.13987e-15
1.13399e-15
1.12807e-15
1.12209e-15
1.11607e-15
1.10999e-15
1.10387e-15
1.0977e-15
1.09147e-15
1.0852e-15
1.07888e-15
1.07252e-15
1.0661e-15
1.05964e-15
1.05314e-15
1.04659e-15
1.04e-15
1.03336e-15
1.02668e-15
1.01996e-15
1.01319e-15
1.00636e-15
9.99484e-16
9.92548e-16
9.8556e-16
9.7853e-16
9.71478e-16
9.64434e-16
9.57432e-16
9.50506e-16
9.43675e-16
9.36929e-16
9.30209e-16
9.23391e-16
9.16264e-16
9.08517e-16
8.9971e-16
8.89256e-16
8.76432e-16
8.60435e-16
8.40528e-16
8.16235e-16
7.87501e-16
7.54743e-16
7.18755e-16
6.80536e-16
6.4111e-16
6.01397e-16
5.62148e-16
5.23931e-16
4.87137e-16
4.52015e-16
4.18698e-16
3.87232e-16
3.57605e-16
3.29764e-16
3.03632e-16
2.79117e-16
2.56124e-16
2.34557e-16
2.14325e-16
1.95344e-16
1.77536e-16
1.60831e-16
1.45169e-16
1.30496e-16
1.16765e-16
1.03935e-16
9.19704e-17
8.08414e-17
7.05209e-17
6.09853e-17
5.22135e-17
4.41868e-17
3.68878e-17
3.03001e-17
2.44084e-17
1.91981e-17
1.46549e-17
1.07654e-17
7.51837e-18
4.91084e-18
2.93561e-18
1.5147e-18
6.03855e-19
1.46037e-19
1.19227e-15
1.18668e-15
1.18111e-15
1.17552e-15
1.1699e-15
1.16426e-15
1.15857e-15
1.15284e-15
1.14706e-15
1.14124e-15
1.13537e-15
1.12945e-15
1.12348e-15
1.11746e-15
1.1114e-15
1.10528e-15
1.09911e-15
1.0929e-15
1.08663e-15
1.08032e-15
1.07396e-15
1.06755e-15
1.0611e-15
1.0546e-15
1.04806e-15
1.04148e-15
1.03485e-15
1.02818e-15
1.02146e-15
1.0147e-15
1.00788e-15
1.00101e-15
9.94088e-16
9.87108e-16
9.80084e-16
9.73034e-16
9.65986e-16
9.58975e-16
9.52035e-16
9.4519e-16
9.38436e-16
9.31723e-16
9.24939e-16
9.17889e-16
9.10276e-16
9.0168e-16
8.91534e-16
8.79129e-16
8.63658e-16
8.44353e-16
8.20677e-16
7.92501e-16
7.60177e-16
7.24461e-16
6.86346e-16
6.46871e-16
6.0699e-16
5.67487e-16
5.28959e-16
4.91825e-16
4.56352e-16
4.22686e-16
3.90885e-16
3.6094e-16
3.32803e-16
3.06396e-16
2.81628e-16
2.58402e-16
2.36623e-16
2.16196e-16
1.97036e-16
1.79063e-16
1.62208e-16
1.46406e-16
1.31605e-16
1.17754e-16
1.04814e-16
9.27478e-17
8.15243e-17
7.11164e-17
6.15002e-17
5.26544e-17
4.45598e-17
3.7199e-17
3.05555e-17
2.46138e-17
1.93592e-17
1.47773e-17
1.08546e-17
7.57975e-18
4.94936e-18
2.95736e-18
1.52511e-18
6.07434e-19
1.46618e-19
1.19348e-15
1.1879e-15
1.18232e-15
1.17674e-15
1.17113e-15
1.16549e-15
1.15981e-15
1.15409e-15
1.14832e-15
1.1425e-15
1.13663e-15
1.13072e-15
1.12476e-15
1.11875e-15
1.11269e-15
1.10657e-15
1.10042e-15
1.09421e-15
1.08795e-15
1.08164e-15
1.07529e-15
1.06889e-15
1.06244e-15
1.05595e-15
1.04942e-15
1.04284e-15
1.03622e-15
1.02955e-15
1.02285e-15
1.01609e-15
1.00928e-15
1.00242e-15
9.95506e-16
9.88534e-16
9.81516e-16
9.74468e-16
9.67417e-16
9.60398e-16
9.53446e-16
9.46587e-16
9.39824e-16
9.33115e-16
9.26358e-16
9.1937e-16
9.11872e-16
9.03459e-16
8.93584e-16
8.81551e-16
8.66553e-16
8.47799e-16
8.24697e-16
7.9705e-16
7.65148e-16
7.29706e-16
6.91707e-16
6.52206e-16
6.12181e-16
5.7245e-16
5.33639e-16
4.96192e-16
4.60393e-16
4.26405e-16
3.94291e-16
3.6405e-16
3.35635e-16
3.08972e-16
2.83967e-16
2.60525e-16
2.38546e-16
2.17938e-16
1.9861e-16
1.80485e-16
1.63488e-16
1.47557e-16
1.32636e-16
1.18675e-16
1.05632e-16
9.34706e-17
8.21593e-17
7.16702e-17
6.1979e-17
5.30643e-17
4.49067e-17
3.74884e-17
3.0793e-17
2.48048e-17
1.9509e-17
1.48911e-17
1.09376e-17
7.63684e-18
4.98521e-18
2.97758e-18
1.53477e-18
6.10754e-19
1.47157e-19
1.19458e-15
1.189e-15
1.18343e-15
1.17786e-15
1.17225e-15
1.16662e-15
1.16094e-15
1.15522e-15
1.14946e-15
1.14365e-15
1.13779e-15
1.13188e-15
1.12592e-15
1.11992e-15
1.11386e-15
1.10776e-15
1.1016e-15
1.0954e-15
1.08915e-15
1.08285e-15
1.0765e-15
1.07011e-15
1.06367e-15
1.05718e-15
1.05065e-15
1.04408e-15
1.03747e-15
1.03081e-15
1.02411e-15
1.01736e-15
1.01056e-15
1.00371e-15
9.96798e-16
9.89834e-16
9.82822e-16
9.75776e-16
9.68724e-16
9.61698e-16
9.54735e-16
9.47864e-16
9.41092e-16
9.34384e-16
9.27647e-16
9.20712e-16
9.1331e-16
9.05054e-16
8.95415e-16
8.8371e-16
8.69135e-16
8.50878e-16
8.28304e-16
8.01153e-16
7.69653e-16
7.34482e-16
6.96608e-16
6.57096e-16
6.16951e-16
5.77018e-16
5.37952e-16
5.00219e-16
4.64123e-16
4.29837e-16
3.97435e-16
3.6692e-16
3.3825e-16
3.11348e-16
2.86125e-16
2.62482e-16
2.4032e-16
2.19543e-16
2.00062e-16
1.81795e-16
1.64668e-16
1.48618e-16
1.33586e-16
1.19522e-16
1.06385e-16
9.41365e-17
8.27442e-17
7.21802e-17
6.24201e-17
5.34419e-17
4.52261e-17
3.77549e-17
3.10117e-17
2.49807e-17
1.96469e-17
1.4996e-17
1.1014e-17
7.68943e-18
5.01825e-18
2.9962e-18
1.54367e-18
6.13807e-19
1.47651e-19
1.19558e-15
1.19e-15
1.18444e-15
1.17887e-15
1.17327e-15
1.16764e-15
1.16196e-15
1.15625e-15
1.15049e-15
1.14469e-15
1.13883e-15
1.13293e-15
1.12698e-15
1.12098e-15
1.11493e-15
1.10883e-15
1.10268e-15
1.09648e-15
1.09023e-15
1.08394e-15
1.0776e-15
1.07121e-15
1.06477e-15
1.05829e-15
1.05177e-15
1.0452e-15
1.03859e-15
1.03194e-15
1.02524e-15
1.0185e-15
1.01171e-15
1.00487e-15
9.97965e-16
9.91008e-16
9.84001e-16
9.76959e-16
9.69905e-16
9.62874e-16
9.55901e-16
9.49019e-16
9.42237e-16
9.35528e-16
9.28807e-16
9.21914e-16
9.14594e-16
9.06473e-16
8.97038e-16
8.85618e-16
8.71416e-16
8.53605e-16
8.3151e-16
8.04816e-16
7.73695e-16
7.38784e-16
7.01038e-16
6.61531e-16
6.21286e-16
5.81176e-16
5.41882e-16
5.03892e-16
4.67526e-16
4.32969e-16
4.00304e-16
3.6954e-16
3.40635e-16
3.13517e-16
2.88094e-16
2.64268e-16
2.41938e-16
2.21007e-16
2.01385e-16
1.82989e-16
1.65744e-16
1.49584e-16
1.34451e-16
1.20295e-16
1.07071e-16
9.47428e-17
8.32768e-17
7.26447e-17
6.28216e-17
5.37857e-17
4.5517e-17
3.79977e-17
3.12109e-17
2.51409e-17
1.97726e-17
1.50914e-17
1.10836e-17
7.73732e-18
5.04835e-18
3.01314e-18
1.55176e-18
6.16582e-19
1.481e-19
1.19647e-15
1.1909e-15
1.18534e-15
1.17977e-15
1.17417e-15
1.16855e-15
1.16288e-15
1.15717e-15
1.15141e-15
1.14561e-15
1.13976e-15
1.13386e-15
1.12792e-15
1.12192e-15
1.11587e-15
1.10978e-15
1.10364e-15
1.09744e-15
1.0912e-15
1.08491e-15
1.07858e-15
1.07219e-15
1.06576e-15
1.05929e-15
1.05277e-15
1.0462e-15
1.0396e-15
1.03295e-15
1.02626e-15
1.01952e-15
1.01274e-15
1.0059e-15
9.99006e-16
9.92055e-16
9.85053e-16
9.78013e-16
9.7096e-16
9.63924e-16
9.56943e-16
9.5005e-16
9.4326e-16
9.36549e-16
9.2984e-16
9.22981e-16
9.15729e-16
9.07722e-16
8.98461e-16
8.87289e-16
8.73412e-16
8.55994e-16
8.34327e-16
8.08048e-16
7.77275e-16
7.4261e-16
7.04991e-16
6.65497e-16
6.25171e-16
5.84909e-16
5.45414e-16
5.07194e-16
4.70587e-16
4.35787e-16
4.02886e-16
3.71897e-16
3.42781e-16
3.15468e-16
2.89865e-16
2.65873e-16
2.43392e-16
2.22323e-16
2.02574e-16
1.84062e-16
1.6671e-16
1.50452e-16
1.35228e-16
1.20988e-16
1.07687e-16
9.52875e-17
8.37552e-17
7.30619e-17
6.31824e-17
5.40945e-17
4.57783e-17
3.82157e-17
3.13898e-17
2.52848e-17
1.98854e-17
1.51772e-17
1.11461e-17
7.78035e-18
5.0754e-18
3.02835e-18
1.55902e-18
6.1907e-19
1.48502e-19
1.19725e-15
1.19168e-15
1.18613e-15
1.18056e-15
1.17497e-15
1.16934e-15
1.16368e-15
1.15797e-15
1.15222e-15
1.14643e-15
1.14058e-15
1.13468e-15
1.12874e-15
1.12275e-15
1.11671e-15
1.11062e-15
1.10448e-15
1.09829e-15
1.09205e-15
1.08577e-15
1.07943e-15
1.07305e-15
1.06663e-15
1.06016e-15
1.05364e-15
1.04708e-15
1.04048e-15
1.03384e-15
1.02715e-15
1.02042e-15
1.01364e-15
1.00681e-15
9.99918e-16
9.92973e-16
9.85976e-16
9.78939e-16
9.71885e-16
9.64846e-16
9.57858e-16
9.50957e-16
9.44158e-16
9.37444e-16
9.30744e-16
9.23913e-16
9.16717e-16
9.08806e-16
8.99693e-16
8.88731e-16
8.75134e-16
8.58057e-16
8.36766e-16
8.10855e-16
7.80397e-16
7.45958e-16
7.08461e-16
6.68987e-16
6.28596e-16
5.88204e-16
5.48534e-16
5.10114e-16
4.73294e-16
4.3828e-16
4.0517e-16
3.73982e-16
3.4468e-16
3.17193e-16
2.91431e-16
2.67293e-16
2.44678e-16
2.23486e-16
2.03625e-16
1.8501e-16
1.67564e-16
1.51218e-16
1.35915e-16
1.21601e-16
1.08232e-16
9.57685e-17
8.41777e-17
7.34303e-17
6.35009e-17
5.43672e-17
4.60091e-17
3.84082e-17
3.15478e-17
2.54119e-17
1.99851e-17
1.52529e-17
1.12013e-17
7.81836e-18
5.09931e-18
3.04178e-18
1.56543e-18
6.21265e-19
1.48856e-19
1.19793e-15
1.19236e-15
1.18681e-15
1.18124e-15
1.17566e-15
1.17003e-15
1.16437e-15
1.15867e-15
1.15292e-15
1.14713e-15
1.14128e-15
1.13539e-15
1.12945e-15
1.12346e-15
1.11742e-15
1.11134e-15
1.1052e-15
1.09902e-15
1.09278e-15
1.0865e-15
1.08017e-15
1.07379e-15
1.06737e-15
1.0609e-15
1.05439e-15
1.04784e-15
1.04124e-15
1.0346e-15
1.02792e-15
1.02119e-15
1.01441e-15
1.00759e-15
1.0007e-15
9.93763e-16
9.8677e-16
9.79736e-16
9.72682e-16
9.6564e-16
9.58646e-16
9.51737e-16
9.44931e-16
9.38214e-16
9.31519e-16
9.24711e-16
9.17561e-16
9.09729e-16
9.00737e-16
8.89952e-16
8.76591e-16
8.59804e-16
8.38837e-16
8.13246e-16
7.83065e-16
7.48827e-16
7.11442e-16
6.71992e-16
6.31549e-16
5.91048e-16
5.51231e-16
5.12639e-16
4.75636e-16
4.40437e-16
4.07147e-16
3.75787e-16
3.46323e-16
3.18686e-16
2.92785e-16
2.68521e-16
2.45789e-16
2.24492e-16
2.04533e-16
1.85829e-16
1.68301e-16
1.51881e-16
1.36508e-16
1.2213e-16
1.08702e-16
9.61841e-17
8.45428e-17
7.37487e-17
6.37762e-17
5.46029e-17
4.62085e-17
3.85746e-17
3.16843e-17
2.55217e-17
2.00712e-17
1.53184e-17
1.12491e-17
7.8512e-18
5.11997e-18
3.05338e-18
1.57096e-18
6.23159e-19
1.49161e-19
1.1985e-15
1.19293e-15
1.18738e-15
1.18182e-15
1.17623e-15
1.17061e-15
1.16495e-15
1.15925e-15
1.15351e-15
1.14771e-15
1.14187e-15
1.13599e-15
1.13005e-15
1.12406e-15
1.11803e-15
1.11194e-15
1.10581e-15
1.09962e-15
1.09339e-15
1.08712e-15
1.08079e-15
1.07442e-15
1.068e-15
1.06153e-15
1.05502e-15
1.04847e-15
1.04187e-15
1.03524e-15
1.02856e-15
1.02183e-15
1.01506e-15
1.00824e-15
1.00136e-15
9.94423e-16
9.87434e-16
9.80402e-16
9.73348e-16
9.66304e-16
9.59306e-16
9.5239e-16
9.45577e-16
9.38857e-16
9.32167e-16
9.25376e-16
9.18262e-16
9.10494e-16
9.01602e-16
8.90961e-16
8.77794e-16
8.61247e-16
8.40549e-16
8.15227e-16
7.85281e-16
7.51218e-16
7.13932e-16
6.74507e-16
6.34024e-16
5.93434e-16
5.53494e-16
5.14759e-16
4.77603e-16
4.42249e-16
4.08807e-16
3.77303e-16
3.47703e-16
3.1994e-16
2.93923e-16
2.69552e-16
2.46723e-16
2.25336e-16
2.05296e-16
1.86517e-16
1.68921e-16
1.52437e-16
1.37006e-16
1.22575e-16
1.09097e-16
9.65329e-17
8.4849e-17
7.40157e-17
6.40071e-17
5.48005e-17
4.63757e-17
3.87142e-17
3.17989e-17
2.56138e-17
2.01435e-17
1.53733e-17
1.12891e-17
7.87876e-18
5.1373e-18
3.06311e-18
1.57559e-18
6.24747e-19
1.49417e-19
1.19896e-15
1.19339e-15
1.18784e-15
1.18228e-15
1.1767e-15
1.17108e-15
1.16542e-15
1.15972e-15
1.15398e-15
1.14819e-15
1.14235e-15
1.13646e-15
1.13053e-15
1.12454e-15
1.11851e-15
1.11243e-15
1.1063e-15
1.10012e-15
1.09389e-15
1.08761e-15
1.08129e-15
1.07491e-15
1.0685e-15
1.06203e-15
1.05553e-15
1.04898e-15
1.04238e-15
1.03575e-15
1.02907e-15
1.02235e-15
1.01558e-15
1.00876e-15
1.00189e-15
9.94953e-16
9.87966e-16
9.80936e-16
9.73883e-16
9.66837e-16
9.59835e-16
9.52914e-16
9.46096e-16
9.39373e-16
9.32687e-16
9.25908e-16
9.18822e-16
9.11103e-16
9.02289e-16
8.91761e-16
8.78747e-16
8.62391e-16
8.41909e-16
8.16804e-16
7.8705e-16
7.53129e-16
7.15926e-16
6.76524e-16
6.36012e-16
5.95353e-16
5.55315e-16
5.16466e-16
4.79187e-16
4.43709e-16
4.10145e-16
3.78523e-16
3.48815e-16
3.2095e-16
2.94839e-16
2.70382e-16
2.47474e-16
2.26015e-16
2.0591e-16
1.8707e-16
1.69419e-16
1.52885e-16
1.37407e-16
1.22932e-16
1.09414e-16
9.68134e-17
8.50954e-17
7.42305e-17
6.41929e-17
5.49596e-17
4.65103e-17
3.88265e-17
3.1891e-17
2.56879e-17
2.02016e-17
1.54174e-17
1.13213e-17
7.90093e-18
5.15126e-18
3.07093e-18
1.57932e-18
6.26022e-19
1.49622e-19
1.19931e-15
1.19375e-15
1.18819e-15
1.18264e-15
1.17705e-15
1.17144e-15
1.16578e-15
1.16008e-15
1.15434e-15
1.14855e-15
1.14271e-15
1.13683e-15
1.13089e-15
1.12491e-15
1.11888e-15
1.11279e-15
1.10666e-15
1.10049e-15
1.09426e-15
1.08798e-15
1.08166e-15
1.07529e-15
1.06888e-15
1.06241e-15
1.05591e-15
1.04936e-15
1.04277e-15
1.03614e-15
1.02946e-15
1.02274e-15
1.01597e-15
1.00916e-15
1.00228e-15
9.95351e-16
9.88367e-16
9.81338e-16
9.74285e-16
9.67238e-16
9.60233e-16
9.53308e-16
9.46486e-16
9.39761e-16
9.33076e-16
9.26307e-16
9.19241e-16
9.11558e-16
9.02801e-16
8.92357e-16
8.79457e-16
8.63244e-16
8.42923e-16
8.17982e-16
7.88373e-16
7.54562e-16
7.17423e-16
6.7804e-16
6.37508e-16
5.96797e-16
5.56686e-16
5.17751e-16
4.8038e-16
4.44808e-16
4.11153e-16
3.79444e-16
3.49652e-16
3.21711e-16
2.9553e-16
2.71007e-16
2.48041e-16
2.26527e-16
2.06372e-16
1.87488e-16
1.69794e-16
1.53222e-16
1.37709e-16
1.23201e-16
1.09653e-16
9.70246e-17
8.5281e-17
7.43923e-17
6.43328e-17
5.50793e-17
4.66116e-17
3.8911e-17
3.19604e-17
2.57437e-17
2.02454e-17
1.54507e-17
1.13455e-17
7.91763e-18
5.16176e-18
3.07682e-18
1.58213e-18
6.26983e-19
1.49776e-19
1.19955e-15
1.19399e-15
1.18844e-15
1.18288e-15
1.17729e-15
1.17168e-15
1.16602e-15
1.16033e-15
1.15458e-15
1.14879e-15
1.14296e-15
1.13707e-15
1.13114e-15
1.12516e-15
1.11912e-15
1.11304e-15
1.10692e-15
1.10074e-15
1.09451e-15
1.08824e-15
1.08191e-15
1.07555e-15
1.06913e-15
1.06267e-15
1.05617e-15
1.04962e-15
1.04303e-15
1.0364e-15
1.02972e-15
1.023e-15
1.01624e-15
1.00942e-15
1.00255e-15
9.9562e-16
9.88636e-16
9.81608e-16
9.74556e-16
9.67507e-16
9.60501e-16
9.53573e-16
9.46749e-16
9.40022e-16
9.33337e-16
9.26574e-16
9.19522e-16
9.11863e-16
9.03143e-16
8.92754e-16
8.7993e-16
8.63811e-16
8.43598e-16
8.18767e-16
7.89255e-16
7.55518e-16
7.18423e-16
6.79053e-16
6.38508e-16
5.97763e-16
5.57604e-16
5.18612e-16
4.81179e-16
4.45544e-16
4.11827e-16
3.80059e-16
3.50213e-16
3.2222e-16
2.95992e-16
2.71426e-16
2.48419e-16
2.2687e-16
2.06681e-16
1.87766e-16
1.70045e-16
1.53447e-16
1.3791e-16
1.23381e-16
1.09813e-16
9.71659e-17
8.5405e-17
7.45005e-17
6.44263e-17
5.51594e-17
4.66794e-17
3.89676e-17
3.20068e-17
2.5781e-17
2.02747e-17
1.5473e-17
1.13618e-17
7.92879e-18
5.16879e-18
3.08076e-18
1.58401e-18
6.27624e-19
1.49879e-19
1.19968e-15
1.19412e-15
1.18857e-15
1.18301e-15
1.17742e-15
1.17181e-15
1.16615e-15
1.16046e-15
1.15471e-15
1.14892e-15
1.14309e-15
1.1372e-15
1.13127e-15
1.12529e-15
1.11926e-15
1.11318e-15
1.10705e-15
1.10087e-15
1.09464e-15
1.08837e-15
1.08205e-15
1.07568e-15
1.06926e-15
1.0628e-15
1.0563e-15
1.04975e-15
1.04316e-15
1.03653e-15
1.02986e-15
1.02314e-15
1.01637e-15
1.00956e-15
1.00268e-15
9.95756e-16
9.88773e-16
9.81746e-16
9.74693e-16
9.67644e-16
9.60637e-16
9.53707e-16
9.46881e-16
9.40153e-16
9.33469e-16
9.26709e-16
9.19663e-16
9.12015e-16
9.03314e-16
8.92953e-16
8.80165e-16
8.64093e-16
8.43934e-16
8.19158e-16
7.89695e-16
7.55995e-16
7.18923e-16
6.7956e-16
6.39008e-16
5.98246e-16
5.58064e-16
5.19043e-16
4.81579e-16
4.45913e-16
4.12165e-16
3.80368e-16
3.50493e-16