/*--------------------------------*- C++ -*----------------------------------*\
  =========                 |
  \\      /  F ield         | OpenFOAM: The Open Source CFD Toolbox
   \\    /   O peration     | Website:  https://openfoam.org
    \\  /    A nd           | Version:  7
     \\/     M anipulation  |
\*---------------------------------------------------------------------------*/
FoamFile
{
    version     2.0;
    format      ascii;
    class       surfaceScalarField;
    location    "4000";
    object      phi;
}
// * * * * * * * * * * * * * * * * * * * * * * * * * * * * * * * * * * * * * //

dimensions      [0 3 -1 0 0 0 0];

internalField   nonuniform List<scalar> 
9414
(
4.82141e-25
2.22054e-25
8.2484e-25
1.94048e-25
1.00628e-24
1.71862e-25
1.10615e-24
1.65651e-25
-3.43797e-24
1.44985e-25
-6.82693e-25
1.42341e-25
-4.48872e-25
1.32558e-25
1.91893e-25
1.0479e-25
1.47737e-24
8.94337e-26
1.00804e-25
-5.29877e-24
4.59667e-25
-3.38309e-24
4.80062e-25
-3.71015e-24
4.11031e-25
-4.51345e-24
4.47514e-25
-4.6345e-24
5.40849e-25
-7.10439e-24
5.47508e-25
-9.91723e-24
6.78713e-25
-3.68596e-24
7.46708e-25
1.65264e-26
7.0439e-25
5.6985e-24
6.68632e-25
4.43073e-24
5.79349e-25
3.55737e-24
5.16333e-25
1.45079e-24
4.62934e-25
4.70661e-24
3.80726e-25
6.472e-24
3.81963e-25
5.95487e-24
3.45998e-25
5.0118e-24
3.64004e-25
3.88318e-24
4.24168e-25
6.99564e-24
3.3748e-25
1.10979e-23
3.28793e-25
8.4552e-24
2.53916e-25
8.7829e-24
1.77553e-25
9.95827e-25
1.31008e-25
3.00894e-25
1.67613e-25
-1.06039e-25
2.22982e-25
4.16372e-24
2.69183e-25
8.4433e-24
2.38746e-25
7.79364e-24
1.98041e-25
4.19155e-24
2.07571e-25
7.65942e-24
2.71673e-25
1.06608e-23
2.85958e-25
9.60779e-24
2.79396e-25
8.32635e-24
2.8031e-25
7.00139e-24
2.47949e-25
6.26018e-24
2.2641e-25
7.50008e-24
2.51626e-25
6.83313e-24
2.2845e-25
6.71589e-24
2.18274e-25
6.362e-24
2.04851e-25
5.98597e-24
1.78729e-25
4.97125e-24
1.15862e-25
3.97767e-24
1.47966e-25
3.70653e-24
1.27577e-25
4.42336e-24
1.02024e-25
7.66317e-25
8.03118e-26
6.11995e-25
8.30838e-26
1.71002e-24
9.9044e-26
6.01737e-24
6.52771e-26
6.72792e-24
2.88447e-26
3.98461e-24
-1.36029e-26
1.98477e-24
-5.34976e-26
2.1674e-24
-4.75301e-26
2.22921e-24
-7.68059e-26
6.48163e-24
-1.14051e-25
-1.51247e-25
-6.18817e-24
1.00772e-26
-7.70424e-24
-8.79261e-26
-5.70873e-24
-6.25529e-26
-5.28218e-24
-1.27438e-25
-4.29057e-24
-1.72115e-25
-8.24162e-24
-1.7167e-25
-8.69188e-24
-1.93503e-25
-7.43778e-24
-1.64512e-25
-6.86526e-24
1.60033e-26
-7.29117e-24
-1.76852e-26
-7.17295e-24
1.41821e-26
-6.98204e-24
5.79174e-27
-6.28408e-24
-3.81316e-26
-3.43625e-24
-4.74407e-26
-3.47014e-24
2.07476e-26
-2.92183e-24
4.25205e-26
-4.83518e-24
6.24764e-26
-1.07194e-23
8.13477e-26
-9.41812e-24
1.53375e-25
-8.68343e-24
1.62439e-25
-1.14258e-23
2.16487e-25
-9.01294e-24
2.49042e-25
-9.11148e-24
3.26887e-25
-9.10496e-24
3.94336e-25
-7.92467e-24
4.54245e-25
-7.31332e-24
4.55284e-25
-7.15774e-24
4.65436e-25
2.47853e-25
4.93189e-25
4.65287e-25
4.50182e-25
-4.25787e-25
4.26894e-25
-6.66699e-25
4.73456e-25
-1.19459e-24
4.46867e-25
-3.74866e-24
4.50415e-25
1.12801e-24
4.3022e-25
6.97434e-25
4.1784e-25
2.56835e-24
4.27298e-25
2.27881e-24
4.33978e-25
-2.65117e-24
4.44093e-25
-2.20722e-24
4.52134e-25
-6.42254e-25
4.36105e-25
-3.46017e-25
4.40901e-25
-8.67553e-25
4.28965e-25
-7.27408e-26
3.77071e-25
2.51732e-24
3.68025e-25
6.88256e-24
3.63741e-25
5.14384e-24
3.74899e-25
3.53226e-24
3.68382e-25
3.02656e-24
3.38059e-25
2.13382e-24
3.36504e-25
2.12417e-24
2.77161e-25
2.55663e-24
2.48646e-25
-1.62811e-24
2.16512e-25
-1.5827e-24
2.06737e-25
-1.69462e-24
2.10509e-25
1.7459e-25
-1.56658e-23
3.3563e-25
-1.45181e-23
4.84141e-25
-1.4759e-23
4.92678e-25
-1.02329e-23
4.8992e-25
-6.05845e-24
4.57983e-25
-4.37363e-24
3.93831e-25
-2.20714e-24
3.94669e-25
-2.80247e-24
3.28633e-25
-8.27179e-24
2.84895e-25
-8.72985e-24
3.33752e-25
-9.17116e-24
3.22291e-25
-9.35267e-24
3.81679e-25
-4.87577e-24
3.85926e-25
2.09086e-24
4.51711e-25
7.79642e-25
4.22894e-25
7.94832e-25
3.65095e-25
1.17965e-24
3.98876e-25
1.47356e-24
4.67186e-25
1.9004e-24
4.48881e-25
4.26145e-24
5.38571e-25
4.37588e-24
5.11791e-25
7.05851e-24
5.62282e-25
7.48952e-24
4.98637e-25
4.03616e-24
4.86828e-25
5.86982e-25
5.70181e-25
-1.58125e-24
6.00032e-25
1.9309e-24
6.40308e-25
9.97224e-25
6.60133e-25
4.06382e-24
7.02995e-25
6.85713e-24
6.83806e-25
1.15993e-24
6.78455e-25
6.34011e-24
6.72075e-25
2.62205e-24
6.80066e-25
7.85722e-24
7.22642e-25
8.06581e-24
7.11217e-25
1.15215e-23
6.9613e-25
7.61965e-24
6.79626e-25
7.88946e-24
6.96757e-25
7.89635e-24
6.8219e-25
7.85545e-24
6.88587e-25
7.78321e-24
7.1097e-25
6.79048e-24
6.8371e-25
6.68972e-24
6.87998e-25
8.79014e-24
7.10352e-25
1.39957e-23
7.15795e-25
1.37732e-23
6.83419e-25
1.28026e-23
6.88499e-25
1.14498e-23
6.43495e-25
1.01688e-23
6.03506e-25
9.53775e-24
6.08277e-25
1.1313e-23
6.00031e-25
1.07638e-23
5.77402e-25
1.13871e-23
5.57957e-25
1.04034e-23
5.54547e-25
5.69307e-25
-6.72469e-24
-1.17179e-25
-5.17662e-24
-1.26565e-25
-6.88579e-24
-5.86366e-26
-7.75226e-24
2.97175e-26
-6.02687e-24
1.3481e-25
-8.75787e-25
2.27574e-25
-1.09831e-26
1.825e-25
-3.70062e-24
1.26176e-25
-5.82266e-24
1.38209e-25
-5.38832e-24
1.03043e-25
-2.73413e-24
2.05435e-25
-1.78477e-24
3.07063e-25
7.66527e-25
3.37878e-25
9.55965e-25
2.58875e-25
1.12185e-25
2.16284e-25
1.01593e-24
2.17775e-25
-3.31697e-24
2.57047e-25
-2.79268e-24
2.239e-25
-2.87694e-24
2.72052e-25
-5.13291e-24
2.53051e-25
-7.5683e-24
2.92788e-25
-8.47889e-24
2.95622e-25
-8.07291e-24
3.69367e-25
-6.02049e-24
3.65579e-25
-6.79698e-24
3.45033e-25
-6.78455e-24
3.22706e-25
-5.52041e-24
3.62436e-25
-4.9282e-24
3.1375e-25
-4.62984e-24
2.65611e-25
-8.88289e-24
2.75387e-25
-1.30887e-23
3.03269e-25
-1.16693e-23
3.44927e-25
-8.70655e-24
3.87405e-25
-1.2465e-23
3.33369e-25
-1.14919e-23
3.86677e-25
-9.78795e-24
4.44386e-25
-7.78712e-24
4.44936e-25
-1.31606e-23
4.46243e-25
-1.56766e-23
4.66402e-25
-1.76954e-23
4.88151e-25
-1.60534e-23
5.20966e-25
-1.20771e-23
5.53655e-25
-7.93719e-24
5.65263e-25
-6.90773e-24
5.51439e-25
-6.60353e-24
5.03071e-25
-7.39019e-24
4.71917e-25
-1.11299e-23
4.13752e-25
-1.21368e-23
3.95378e-25
-9.71689e-24
4.07591e-25
-1.08249e-23
3.58108e-25
-1.08134e-23
3.15558e-25
-1.09881e-23
2.9352e-25
-8.80668e-24
2.69842e-25
-8.71317e-24
2.50643e-25
2.05574e-25
-9.50877e-24
-2.66364e-26
-1.0075e-23
7.2446e-26
-1.0035e-23
3.88667e-26
-9.51135e-24
2.59039e-26
-8.64508e-24
-6.99215e-27
-1.30654e-23
-5.85272e-26
-1.2634e-23
-4.82201e-26
-1.45042e-23
-6.81403e-27
-1.27284e-23
-3.61392e-26
-7.57704e-24
1.27308e-25
-7.81243e-24
1.84932e-25
-9.05404e-24
1.88815e-25
-8.89938e-24
2.95059e-25
-9.36063e-24
3.72483e-25
-4.66049e-24
3.42132e-25
-2.58336e-24
3.17047e-25
-2.71399e-25
1.97339e-25
-1.00951e-24
2.15559e-25
-1.55205e-24
2.35279e-25
4.14206e-24
2.64497e-25
-1.41518e-24
2.5899e-25
2.34043e-24
2.32428e-25
2.64554e-24
2.09276e-25
1.83617e-25
2.28494e-25
-1.74373e-25
1.86007e-25
-2.54448e-24
2.092e-25
-6.68675e-24
1.63056e-25
-6.34559e-24
1.94845e-25
-6.75939e-24
2.13489e-25
-2.45495e-24
2.17962e-25
-1.75806e-24
1.96466e-25
3.48177e-27
2.20348e-25
-3.30801e-24
2.33504e-25
1.86236e-24
3.28011e-25
2.30568e-24
3.19017e-25
1.86044e-25
3.04226e-25
1.07586e-24
3.08576e-25
2.43203e-24
3.02872e-25
5.21796e-24
3.21958e-25
1.30229e-24
3.28384e-25
1.54092e-24
2.90155e-25
-5.86701e-25
3.06982e-25
-2.1304e-24
2.96737e-25
-6.17185e-24
3.06565e-25
-6.12973e-24
3.08391e-25
-5.56938e-24
2.80131e-25
-2.95129e-24
2.73088e-25
-1.28748e-24
2.57154e-25
-4.7689e-25
1.82907e-25
-1.79075e-25
1.54425e-25
9.60486e-27
1.07529e-25
1.63715e-25
4.3625e-26
4.81856e-25
-5.37372e-27
-1.07e-24
-5.82247e-26
-9.44468e-26
-2.93179e-24
2.39991e-25
-3.86156e-24
1.7831e-25
-1.26262e-24
1.59623e-25
-5.73512e-24
1.74478e-25
-4.76227e-24
1.63774e-25
-4.76408e-24
1.88528e-25
-4.25093e-24
2.62546e-25
-4.7195e-24
3.3226e-25
2.11251e-25
3.39576e-25
2.65406e-24
2.48531e-25
1.71321e-24
2.57348e-25
1.7456e-24
2.41527e-25
-3.34991e-24
1.84703e-25
-1.19577e-23
1.7177e-25
-1.15447e-23
2.5007e-25
-1.17116e-23
2.946e-25
-7.84219e-24
3.42517e-25
-7.91197e-24
3.44409e-25
-8.47729e-24
3.52289e-25
-1.10503e-23
3.15705e-25
-1.13735e-23
3.51784e-25
-1.18543e-23
3.62516e-25
-1.24089e-23
3.89329e-25
-1.26674e-23
4.02705e-25
-1.06341e-23
3.99133e-25
-9.96966e-24
4.36063e-25
-1.42955e-23
4.80654e-25
-9.85882e-24
5.31296e-25
-1.12945e-23
5.06511e-25
-6.90728e-24
5.02801e-25
-2.30389e-24
4.93261e-25
-2.22361e-24
4.89604e-25
-2.1809e-24
4.52345e-25
-6.89755e-24
4.26161e-25
-6.63988e-24
4.56515e-25
-8.78194e-24
4.18832e-25
-6.04558e-24
3.8707e-25
-4.73725e-24
3.49519e-25
-4.27069e-24
3.44799e-25
-3.85402e-24
3.51111e-25
-3.74538e-24
3.50775e-25
-4.46104e-24
3.04114e-25
-3.96348e-25
3.29334e-25
-2.56062e-24
2.60769e-25
-4.58195e-24
2.3387e-25
-2.85223e-24
2.16715e-25
-5.94183e-24
1.47195e-25
-3.65514e-24
1.18768e-25
-4.22496e-24
7.78266e-26
-3.25721e-24
3.17477e-26
-4.72513e-24
-2.51671e-26
-1.88291e-24
-5.74168e-26
-1.3837e-24
-9.47898e-26
-1.74788e-24
-1.23706e-25
-2.59013e-24
-1.24058e-25
-2.42771e-25
-1.24704e-25
1.68158e-24
-1.13233e-25
1.96892e-24
-1.04651e-25
-9.85133e-26
-1.70424e-23
-1.96456e-25
-1.69713e-23
-2.1655e-25
-1.41829e-23
-1.7952e-25
-1.42614e-23
-1.56574e-25
-1.45462e-23
-8.05435e-26
-9.39339e-24
-3.37325e-26
-9.93152e-24
-4.44977e-26
-1.36618e-23
-8.40915e-27
-1.32546e-23
3.98025e-26
-9.47419e-24
1.32262e-25
-9.27074e-24
6.72873e-26
-8.94239e-24
6.01092e-26
-9.01302e-24
1.12151e-25
-9.05224e-24
1.41032e-25
-8.37568e-24
1.04436e-25
-8.1873e-24
1.97474e-25
-4.98106e-24
2.44473e-25
-3.97534e-24
2.44368e-25
-3.7415e-24
2.99034e-25
-3.36737e-24
3.00306e-25
-2.20778e-26
2.65058e-25
-3.64611e-24
2.69627e-25
-3.44123e-24
2.59749e-25
-3.38338e-24
3.05713e-25
-3.29168e-24
3.19978e-25
-7.35586e-25
3.46028e-25
-3.32908e-24
3.60572e-25
-9.14254e-24
2.76879e-25
-9.16832e-24
3.1426e-25
-8.13426e-24
3.6455e-25
-7.08328e-24
3.83114e-25
-6.67645e-24
3.74444e-25
-2.11302e-24
3.35968e-25
-6.27083e-24
3.34279e-25
-7.27257e-24
2.99992e-25
-1.22505e-23
2.67585e-25
-1.25359e-23
2.87434e-25
-8.05445e-24
2.81997e-25
-1.05485e-23
2.82907e-25
-9.54588e-24
2.74337e-25
-8.58187e-24
2.55277e-25
-9.53798e-24
2.43523e-25
-8.29377e-24
2.28212e-25
-9.37122e-24
2.09917e-25
-1.06025e-23
1.93488e-25
-1.07385e-23
1.97643e-25
-6.70116e-24
1.81904e-25
-6.82588e-24
1.51012e-25
-9.30954e-24
7.02298e-26
-6.51151e-24
1.75917e-26
-4.83063e-24
-3.92146e-26
-4.48006e-24
-1.23005e-25
-1.96e-24
-1.64849e-25
3.11179e-24
-2.21125e-25
3.82456e-24
-2.95348e-25
3.56687e-24
-3.43167e-25
2.61839e-24
-3.94411e-25
2.18733e-24
-4.05886e-25
1.17043e-24
-4.36237e-25
-4.56069e-25
-6.00057e-24
-5.97458e-25
-5.66506e-24
-6.11462e-25
-8.00009e-24
-5.68669e-25
-8.26137e-24
-5.90261e-25
-9.76966e-24
-7.0733e-25
-9.61903e-24
-5.8076e-25
-8.36456e-24
-5.81013e-25
-9.25642e-24
-5.10496e-25
-1.35733e-23
-4.53218e-25
-1.09171e-23
-3.73801e-25
-5.72199e-24
-2.95551e-25
-5.42908e-24
-2.87989e-25
-9.04541e-24
-2.90103e-25
-9.83716e-24
-2.56961e-25
-1.20245e-23
-1.89535e-25
-1.15134e-23
-1.69303e-25
-1.07984e-23
-1.58086e-25
-9.78803e-24
-2.17118e-25
-1.32769e-23
-1.41523e-25
-1.73834e-23
-1.51735e-25
-1.62847e-23
-9.87418e-26
-1.59716e-23
-9.49762e-26
-1.08705e-23
-9.592e-26
-1.00855e-23
-1.45092e-25
-9.99954e-24
-1.60019e-25
-1.41225e-23
-1.87097e-25
-2.09316e-23
-1.93846e-25
-2.07143e-23
-9.52162e-26
-1.65214e-23
-3.38198e-26
-1.66881e-23
-6.1167e-26
-2.18532e-23
-2.9686e-26
-2.20833e-23
1.36017e-26
-1.99889e-23
5.78372e-26
-1.76311e-23
1.07647e-25
-1.75674e-23
7.70452e-26
-1.76316e-23
9.27592e-26
-1.5111e-23
1.69178e-25
-1.24664e-23
1.47851e-25
-1.18855e-23
1.1129e-25
-1.11548e-23
6.4692e-26
-9.87369e-24
1.1329e-25
-9.1421e-24
5.38561e-26
-8.33802e-24
3.09877e-26
-7.87128e-24
3.50904e-26
-2.69344e-24
1.38741e-27
-6.2457e-24
-6.18958e-26
-8.32931e-24
-1.07643e-25
-9.93087e-24
-1.58017e-25
-9.58106e-24
-1.89314e-25
-9.76469e-24
-2.27762e-25
-8.16153e-24
-2.50742e-25
-7.41454e-24
-2.79573e-25
-6.52122e-24
-3.27559e-25
-3.42807e-24
-3.58893e-25
-3.03836e-24
-3.63994e-25
-4.15303e-24
-3.99769e-25
1.89923e-25
-4.18997e-25
-2.15528e-24
-4.38817e-25
-2.50209e-24
-4.45367e-25
-2.96109e-24
-4.47541e-25
-1.10081e-24
-4.30358e-25
1.53405e-24
-4.17341e-25
4.89485e-24
-4.1565e-25
4.80279e-24
-4.03877e-25
2.67118e-24
-3.70054e-25
5.06059e-24
-3.59261e-25
4.55916e-24
-3.57364e-25
8.70565e-24
-3.44302e-25
8.2329e-24
-3.39277e-25
9.5232e-24
-3.30574e-25
8.2788e-24
-3.2604e-25
6.6075e-24
-3.17245e-25
8.62252e-24
-3.24982e-25
6.69776e-24
-3.21637e-25
8.63405e-24
-3.22347e-25
8.26765e-24
-3.23059e-25
6.49444e-24
-3.29951e-25
4.78581e-24
-3.35552e-25
5.06177e-24
-3.40807e-25
4.17179e-24
-3.46657e-25
3.89092e-24
-3.53693e-25
4.05344e-24
-3.59123e-25
3.25575e-24
-3.6586e-25
2.94274e-24
-3.73591e-25
2.63843e-24
-3.76752e-25
2.36416e-24
-3.83526e-25
1.5978e-24
-3.83119e-25
2.35669e-24
-3.75486e-25
1.57889e-24
-3.63635e-25
9.39627e-25
-3.42847e-25
1.71317e-25
-3.13612e-25
1.41139e-25
-2.74714e-25
-1.12859e-25
-2.2243e-25
-3.08025e-26
-1.57205e-25
-5.81973e-26
-1.30305e-23
-1.70491e-25
-1.13872e-23
-1.42898e-25
-1.13841e-23
-1.61118e-25
-1.11967e-23
-2.10206e-25
-4.22378e-24
-8.62275e-26
-4.51103e-24
-1.20331e-25
-2.80502e-24
-9.52911e-26
-2.45184e-24
-1.54159e-25
-2.98509e-24
-1.74846e-25
-1.00088e-24
-1.75007e-25
-8.71425e-25
-2.60727e-25
7.33769e-26
-3.31588e-25
2.87137e-25
-2.92018e-25
6.50362e-25
-3.65076e-25
-2.02893e-24
-3.76738e-25
-1.892e-24
-4.16118e-25
-8.6206e-25
-4.61732e-25
6.76404e-25
-4.45231e-25
-1.14297e-24
-5.42415e-25
-5.45339e-24
-5.68958e-25
-4.93343e-24
-6.22267e-25
-9.59572e-24
-6.11807e-25
-9.32515e-24
-6.23947e-25
-8.64568e-24
-6.26346e-25
-7.83609e-24
-6.31818e-25
-7.28432e-24
-6.63896e-25
-6.05975e-24
-6.60659e-25
-8.82766e-24
-6.86542e-25
-1.16311e-23
-6.76068e-25
-1.05358e-23
-6.30562e-25
-8.9579e-24
-5.82259e-25
-1.24374e-23
-5.94757e-25
-1.21657e-23
-5.65623e-25
-1.93855e-23
-5.203e-25
-1.48432e-23
-4.6632e-25
-1.79272e-23
-3.94716e-25
-2.30713e-23
-4.17712e-25
-2.35757e-23
-3.66929e-25
-2.36627e-23
-3.51447e-25
-2.38878e-23
-2.96535e-25
-2.13021e-23
-2.74813e-25
-1.97444e-23
-3.02763e-25
-1.82489e-23
-2.35676e-25
-1.38318e-23
-2.57109e-25
-1.34799e-23
-2.38918e-25
-1.25445e-23
-2.41304e-25
-1.09938e-23
-2.84108e-25
-1.0292e-23
-2.96448e-25
-9.58435e-24
-2.91595e-25
-2.9857e-24
-2.87196e-25
-5.11538e-24
-3.21885e-25
-4.65276e-24
-3.32639e-25
-2.63437e-24
-3.28215e-25
-4.13073e-24
-3.24965e-25
-3.48443e-24
-3.41275e-25
1.19039e-25
-3.43243e-25
-9.13887e-25
-3.33864e-25
2.09082e-24
-3.2106e-25
2.27378e-24
-3.43456e-25
4.33726e-24
-3.23596e-25
5.11529e-24
-3.18034e-25
4.35341e-24
-3.1775e-25
6.98158e-24
-3.00815e-25
7.69134e-24
-2.73304e-25
2.27932e-24
-2.64095e-25
1.71998e-24
-2.39998e-25
1.09794e-24
-1.9697e-25
5.40282e-25
-1.76964e-25
2.83096e-24
-1.38731e-25
1.18385e-24
-1.35279e-25
4.87492e-25
-1.17535e-25
-2.46535e-24
-1.11028e-25
-9.41854e-25
-9.49062e-26
3.05474e-26
-8.28598e-26
2.75426e-25
-7.59568e-26
-5.97874e-26
-8.22087e-26
-1.60123e-25
-8.38596e-26
1.452e-24
-8.97823e-26
-1.85071e-26
-9.56829e-26
1.02829e-24
-1.01967e-25
-2.64041e-25
-1.17778e-25
1.3164e-25
-1.27973e-25
-1.32874e-25
-1.40149e-25
-4.16409e-25
-1.48349e-25
-1.43257e-24
-1.59406e-25
-9.45564e-25
-1.63432e-25
-3.039e-25
-1.67744e-25
-1.32731e-25
-1.66432e-25
3.00579e-25
-1.58043e-25
5.90958e-26
-1.45417e-25
2.23453e-25
-1.24297e-25
6.10739e-25
-9.48019e-26
2.43128e-25
-5.55989e-26
8.22899e-26
-6.08832e-27
-2.17343e-26
-6.72566e-24
-5.75269e-25
-1.37574e-23
-4.77208e-25
-1.18811e-23
-4.45815e-25
-1.17153e-23
-3.32993e-25
-1.04952e-23
-3.34076e-25
-1.09836e-23
-2.68254e-25
-1.01338e-23
-2.11283e-25
-1.22536e-23
-2.67192e-25
-1.42758e-23
-2.17959e-25
-1.40757e-23
-2.12758e-25
-1.49544e-23
-1.76087e-25
-7.11652e-24
-2.16587e-25
-1.2074e-23
-2.46287e-25
-1.66389e-23
-2.89057e-25
-1.65851e-23
-3.41327e-25
-1.76275e-23
-2.47776e-25
-1.54465e-23
-3.00661e-25
-2.0164e-23
-3.82921e-25
-1.76025e-23
-3.54641e-25
-1.76405e-23
-4.00963e-25
-1.73813e-23
-4.43822e-25
-1.70792e-23
-4.91812e-25
-1.66624e-23
-5.25331e-25
-1.55501e-23
-5.59471e-25
-1.51244e-23
-5.44657e-25
-1.24497e-23
-5.4348e-25
-1.20705e-23
-5.81463e-25
-1.07256e-23
-5.75697e-25
-9.5814e-24
-5.65615e-25
-9.06909e-24
-5.63752e-25
-8.55131e-24
-5.92977e-25
-7.44326e-24
-6.16384e-25
-9.42899e-24
-6.37716e-25
-4.06311e-24
-6.15062e-25
-3.62941e-24
-6.71944e-25
-1.1934e-23
-7.01171e-25
-1.59507e-23
-6.47879e-25
-1.5181e-23
-5.9009e-25
-1.49046e-23
-5.89277e-25
-1.89651e-23
-6.14426e-25
-1.4891e-23
-5.98171e-25
-1.54272e-23
-6.0894e-25
-1.46652e-23
-6.0871e-25
-1.69307e-23
-6.2408e-25
-1.60974e-23
-6.4355e-25
-1.51811e-23
-6.19672e-25
-1.01364e-23
-5.88655e-25
-6.10733e-24
-5.73302e-25
-4.95653e-24
-6.03987e-25
-8.65973e-24
-6.19e-25
-6.00886e-24
-5.95078e-25
-6.04576e-24
-5.7883e-25
-5.43616e-24
-5.98393e-25
-9.64127e-24
-6.35784e-25
-1.02031e-23
-6.57282e-25
-7.66055e-24
-6.90279e-25
-9.87995e-24
-7.09358e-25
-1.34266e-23
-7.49319e-25
-1.32319e-23
-7.58556e-25
-1.32373e-23
-7.73437e-25
-9.92601e-24
-7.66968e-25
-5.42523e-24
-8.01686e-25
-5.42884e-24
-8.23994e-25
-5.26384e-24
-8.38186e-25
-3.10924e-24
-8.55601e-25
-2.76796e-24
-8.55975e-25
-3.50065e-24
-8.52822e-25
-5.63005e-24
-8.73742e-25
-5.1478e-24
-8.63291e-25
-5.8886e-24
-8.47912e-25
-4.48936e-24
-8.36407e-25
-3.92302e-24
-8.27424e-25
-3.24228e-24
-8.20922e-25
-3.88414e-24
-8.1064e-25
-3.06582e-24
-8.02169e-25
-3.70722e-24
-7.86416e-25
-1.79283e-24
-7.80376e-25
-2.38538e-24
-7.66984e-25
-2.5073e-24
-7.57743e-25
-4.40057e-24
-7.42541e-25
-4.74725e-24
-7.20064e-25
-4.05719e-24
-6.97924e-25
-3.44466e-24
-6.71382e-25
-3.74394e-24
-6.4978e-25
-3.18943e-24
-6.19743e-25
-2.0947e-24
-5.83137e-25
-1.10809e-24
-5.47027e-25
-7.82731e-25
-5.0206e-25
-5.05174e-25
-4.49861e-25
-7.53132e-25
-3.89196e-25
-5.96348e-25
-3.19206e-25
-4.7764e-25
-2.40501e-25
7.42925e-27
-1.51289e-25
-4.94124e-26
-5.40541e-26
-6.9756e-26
-4.43377e-24
-4.05e-25
-3.66427e-24
-4.74386e-25
-3.82317e-24
-5.35118e-25
-5.31119e-24
-6.60857e-25
-2.68248e-24
-6.40246e-25
-2.68834e-24
-6.69925e-25
-2.4952e-24
-7.41521e-25
-2.53079e-24
-7.98558e-25
-4.45555e-24
-8.2326e-25
-6.00706e-24
-8.38839e-25
-6.25382e-24
-8.16674e-25
-6.57201e-24
-8.71264e-25
-8.75874e-24
-8.94381e-25
-8.55886e-24
-9.15393e-25
-8.63522e-24
-9.13068e-25
-1.19766e-23
-9.13083e-25
-1.6229e-23
-9.10864e-25
-1.11059e-23
-8.54759e-25
-1.57885e-23
-8.79912e-25
-1.56967e-23
-8.24229e-25
-1.51971e-23
-7.76375e-25
-1.51704e-23
-7.06567e-25
-1.4722e-23
-6.55174e-25
-9.7127e-24
-6.5695e-25
-1.15862e-23
-6.30516e-25
-1.07806e-23
-6.58178e-25
-5.74795e-24
-6.46947e-25
-5.76115e-24
-5.99327e-25
-5.7446e-24
-6.21161e-25
-9.95909e-24
-6.00737e-25
-8.81906e-24
-5.80962e-25
-8.87882e-24
-6.38636e-25
-4.86995e-24
-6.23474e-25
-4.72081e-24
-6.59141e-25
-2.28088e-24
-6.63766e-25
-2.17661e-24
-6.7064e-25
-7.81637e-25
-6.94567e-25
3.76234e-25
-7.45969e-25
-4.1397e-24
-7.59175e-25
-1.08634e-24
-7.48977e-25
-1.70431e-24
-7.74207e-25
-2.45089e-24
-7.7574e-25
-4.45257e-24
-7.52181e-25
-4.21287e-24
-7.61095e-25
-3.72616e-24
-7.72933e-25
-3.49702e-24
-7.76666e-25
-5.73816e-24
-7.73163e-25
-6.61836e-24
-7.55355e-25
-6.24394e-24
-7.57935e-25
-6.57289e-24
-7.44219e-25
-4.8133e-24
-7.54278e-25
-4.9964e-24
-7.7828e-25
-7.18919e-24
-8.10017e-25
-6.53168e-24
-8.18164e-25
-5.87778e-24
-8.3415e-25
-3.36178e-24
-8.44262e-25
-5.54275e-24
-8.91905e-25
-4.40632e-24
-9.11841e-25
-5.20605e-24
-9.32278e-25
-6.08792e-24
-9.75038e-25
-6.40323e-24
-9.98667e-25
-4.86784e-24
-1.01378e-24
-4.8432e-24
-1.01855e-24
-5.03561e-24
-1.03956e-24
-1.46663e-24
-1.04588e-24
-2.70247e-24
-1.05901e-24
-2.71459e-24
-1.07083e-24
-2.87001e-24
-1.04709e-24
-2.07363e-24
-1.04518e-24
-2.13484e-24
-1.03983e-24
-2.2324e-24
-1.02752e-24
-2.42572e-24
-1.01095e-24
-1.7016e-24
-9.90467e-25
-1.78159e-24
-9.71122e-25
-1.7643e-24
-9.51704e-25
-2.96888e-24
-9.33522e-25
-1.50023e-24
-9.06228e-25
-1.50027e-24
-8.84831e-25
-9.94857e-25
-8.54548e-25
9.4052e-25
-8.32306e-25
1.69849e-24
-8.03733e-25
7.27203e-25
-7.77263e-25
7.46278e-25
-7.46458e-25
6.96446e-25
-7.08359e-25
-1.37306e-25
-6.62795e-25
2.29357e-25
-6.15491e-25
-2.46612e-25
-5.66428e-25
-2.23649e-25
-5.06366e-25
7.59613e-26
-4.40696e-25
5.40649e-25
-3.67199e-25
5.38575e-25
-2.84904e-25
2.31697e-25
-1.93964e-25
9.04496e-27
-9.45025e-26
2.47391e-26
1.35811e-26
-4.38596e-26
-8.99078e-24
-7.04339e-25
-1.01881e-23
-5.99502e-25
-1.0505e-23
-5.35293e-25
-1.00721e-23
-6.10215e-25
-8.24033e-24
-6.1457e-25
-7.97111e-24
-6.95391e-25
-8.02559e-24
-6.51683e-25
-6.60867e-24
-6.97278e-25
-6.56231e-24
-8.33762e-25
-6.03649e-24
-8.5527e-25
-6.36415e-24
-9.96066e-25
-6.51771e-24
-1.02304e-24
-5.76324e-24
-1.01519e-24
-5.61816e-24
-1.06346e-24
-1.02898e-23
-1.0737e-24
-1.04668e-23
-1.07496e-24
-1.02233e-23
-1.06232e-24
-9.58865e-24
-1.10735e-24
-9.73016e-24
-1.10216e-24
-9.21204e-24
-1.1135e-24
-8.73106e-24
-1.10659e-24
-1.15952e-23
-1.10701e-24
-1.60106e-23
-1.12377e-24
-1.23995e-23
-1.11432e-24
-1.18459e-23
-1.12175e-24
-1.44336e-23
-1.12752e-24
-9.2123e-24
-1.05168e-24
-1.06467e-23
-1.08626e-24
-9.72416e-24
-1.11067e-24
-1.48941e-23
-1.1304e-24
-1.83142e-23
-1.13308e-24
-1.84703e-23
-1.06445e-24
-1.23912e-23
-1.07428e-24
-1.14853e-23
-1.07355e-24
-1.56853e-23
-1.0489e-24
-1.50547e-23
-1.01633e-24
-1.7094e-23
-9.96084e-25
-1.45424e-23
-1.03045e-24
-1.44829e-23
-1.02959e-24
-1.91805e-23
-1.00706e-24
-1.44171e-23
-9.79692e-25
-1.48074e-23
-9.83933e-25
-1.20437e-23
-1.00492e-24
-1.20377e-23
-1.00646e-24
-1.22828e-23
-1.01011e-24
-8.60933e-24
-1.01327e-24
-9.80229e-24
-1.01831e-24
-1.09295e-23
-1.01453e-24
-8.3447e-24
-1.00332e-24
-8.03395e-24
-1.02346e-24
-7.35876e-24
-1.06209e-24
-9.52067e-24
-1.08054e-24
-1.14111e-23
-1.08584e-24
-1.06106e-23
-1.13745e-24
-1.24666e-23
-1.17889e-24
-1.43523e-23
-1.20967e-24
-1.38386e-23
-1.20867e-24
-1.46143e-23
-1.24634e-24
-1.80419e-23
-1.28318e-24
-1.78902e-23
-1.28891e-24
-1.65646e-23
-1.28915e-24
-1.51721e-23
-1.2971e-24
-1.6188e-23
-1.29438e-24
-1.47723e-23
-1.2881e-24
-1.42609e-23
-1.27261e-24
-1.16859e-23
-1.25571e-24
-8.99556e-24
-1.23781e-24
-8.10305e-24
-1.22466e-24
-8.10961e-24
-1.21242e-24
-7.11033e-24
-1.1767e-24
-4.30487e-24
-1.15822e-24
-4.167e-24
-1.13083e-24
-5.69904e-24
-1.10243e-24
-2.73949e-24
-1.06872e-24
-2.78667e-24
-1.04238e-24
-6.97205e-25
-1.01379e-24
-4.461e-25
-9.88149e-25
-3.24884e-25
-9.5693e-25
6.74843e-26
-9.31861e-25
7.34719e-26
-9.00712e-25
-1.7866e-24
-8.74562e-25
-1.81348e-24
-8.40028e-25
-4.03728e-25
-7.99471e-25
-4.08834e-25
-7.6279e-25
-1.07538e-24
-7.20189e-25
-1.05906e-24
-6.705e-25
-4.6972e-25
-6.121e-25
-4.47502e-25
-5.49249e-25
1.75009e-25
-4.78123e-25
5.06196e-25
-4.00493e-25
6.09518e-25
-3.15056e-25
1.16535e-25
-2.20039e-25
-1.17221e-25
-1.1518e-25
-7.51313e-26
-1.23096e-27
-7.58133e-26
-7.90125e-24
-5.62384e-25
-7.6386e-24
-6.20067e-25
-9.72523e-24
-6.33306e-25
-1.14471e-23
-6.45743e-25
-6.98373e-24
-6.34517e-25
-7.47386e-24
-5.41779e-25
-9.87104e-24
-5.61095e-25
-1.05013e-23
-5.29176e-25
-1.12764e-23
-4.90115e-25
-1.3799e-23
-4.9633e-25
-1.03414e-23
-4.78388e-25
-8.93566e-24
-4.19574e-25
-7.30796e-24
-4.63841e-25
-6.12938e-24
-4.83453e-25
-6.70446e-24
-4.72786e-25
-6.49365e-24
-4.61103e-25
-7.25217e-24
-4.9007e-25
-5.53855e-24
-4.93864e-25
-6.67572e-24
-4.9649e-25
-3.79668e-24
-5.32267e-25
-4.42954e-24
-5.22525e-25
-2.04111e-24
-5.19628e-25
-2.0476e-24
-5.51498e-25
-2.35047e-24
-5.85833e-25
1.70241e-24
-5.94319e-25
1.72501e-24
-5.93397e-25
3.96325e-24
-6.21686e-25
4.12493e-24
-7.01986e-25
4.46241e-24
-7.46111e-25
4.48149e-24
-7.4927e-25
7.12096e-24
-8.20281e-25
7.58336e-24
-8.52469e-25
5.2244e-24
-8.64189e-25
1.00116e-23
-9.03889e-25
1.06452e-23
-9.25165e-25
6.04591e-24
-9.22688e-25
3.16303e-24
-9.65192e-25
5.37691e-24
-9.35638e-25
6.93066e-24
-9.25054e-25
6.69762e-24
-9.39951e-25
6.11232e-24
-9.37662e-25
4.95051e-24
-9.25437e-25
4.94082e-24
-9.3995e-25
7.1457e-24
-9.43511e-25
6.17917e-24
-9.62766e-25
4.80527e-24
-9.95024e-25
4.42639e-24
-1.01116e-24
1.82083e-24
-1.04706e-24
4.03674e-25
-1.11437e-24
-5.06266e-24
-1.17486e-24
-4.47856e-26
-1.21922e-24
-3.7249e-24
-1.31638e-24
-5.77957e-24
-1.38914e-24
-9.30218e-24
-1.45071e-24
-8.92024e-24
-1.51226e-24
-8.67314e-24
-1.58453e-24
-1.4325e-23
-1.63842e-24
-1.39065e-23
-1.66882e-24
-1.33495e-23
-1.68927e-24
-1.33059e-23
-1.69966e-24
-1.28231e-23
-1.71682e-24
-9.95045e-24
-1.71572e-24
-1.17461e-23
-1.73062e-24
-1.1086e-23
-1.74608e-24
-8.32985e-24
-1.7289e-24
-7.28245e-24
-1.70926e-24
-6.33447e-24
-1.69673e-24
-5.68488e-24
-1.66354e-24
-5.04077e-24
-1.63567e-24
-4.36621e-24
-1.60155e-24
-3.80399e-24
-1.57631e-24
-2.42541e-24
-1.55466e-24
-2.7568e-24
-1.52796e-24
-3.74026e-24
-1.49908e-24
-2.69765e-24
-1.46883e-24
-4.24902e-24
-1.43048e-24
-1.5987e-24
-1.3907e-24
-1.04912e-24
-1.35017e-24
-2.54801e-24
-1.30772e-24
-2.0592e-24
-1.2658e-24
-1.61222e-24
-1.21419e-24
-1.15599e-24
-1.16804e-24
-7.09784e-25
-1.11607e-24
-3.15636e-25
-1.05585e-24
-7.4616e-25
-9.93486e-25
-1.27037e-25
-9.20477e-25
1.87215e-25
-8.42724e-25
-9.32081e-26
-7.56711e-25
-3.97729e-25
-6.64304e-25
-6.54769e-25
-5.59948e-25
-1.69446e-25
-4.48338e-25
-1.68145e-26
-3.26752e-25
-9.4801e-26
-1.97848e-25
9.18263e-27
-6.091e-26
-5.83146e-26
-8.0685e-24
-1.58304e-24
-6.79084e-24
-1.50583e-24
-9.03342e-24
-1.35304e-24
-1.15299e-23
-1.19423e-24
-7.08076e-24
-1.08179e-24
-9.4551e-24
-1.12122e-24
-9.5458e-24
-1.08897e-24
-9.66133e-24
-1.10568e-24
-1.38548e-23
-1.08349e-24
-1.42467e-23
-9.51887e-25
-9.57174e-24
-1.00509e-24
-1.22955e-23
-9.1862e-25
-1.25114e-23
-9.50666e-25
-1.01261e-23
-9.4494e-25
-9.87278e-24
-9.11365e-25
-1.00985e-23
-9.41389e-25
-1.03296e-23
-9.30233e-25
-1.10923e-23
-8.9939e-25
-1.13206e-23
-9.68395e-25
-1.01406e-23
-9.49234e-25
-9.67981e-24
-1.06238e-24
-1.41021e-23
-1.06318e-24
-1.39734e-23
-1.06258e-24
-1.35041e-23
-1.0366e-24
-1.38277e-23
-1.01369e-24
-1.63959e-23
-1.03005e-24
-1.56861e-23
-1.02385e-24
-1.92799e-23
-9.58087e-25
-1.91998e-23
-9.03851e-25
-1.89664e-23
-8.48041e-25
-1.89005e-23
-7.78181e-25
-1.39286e-23
-7.85975e-25
-1.42182e-23
-7.44457e-25
-1.20397e-23
-6.99985e-25
-8.29005e-24
-6.44778e-25
-1.10316e-23
-6.40856e-25
-7.10769e-24
-6.24982e-25
-2.86635e-24
-6.01606e-25
-3.32777e-24
-6.2024e-25
4.35065e-25
-6.41179e-25
-4.60709e-24
-6.64573e-25
-5.18305e-24
-6.60832e-25
-1.53161e-24
-6.43153e-25
2.26197e-24
-6.34124e-25
-2.69799e-25
-6.74079e-25
8.15677e-25
-6.85352e-25
1.42218e-24
-7.28636e-25
-2.63107e-24
-7.62217e-25
-2.51567e-24
-7.67974e-25
-2.193e-24
-8.03037e-25
6.84612e-25
-8.57089e-25
-1.93112e-24
-8.88434e-25
-1.21102e-24
-9.25301e-25
-1.86295e-24
-9.54509e-25
1.61252e-24
-9.78187e-25
1.32939e-25
-1.0059e-24
3.92328e-24
-1.03383e-24
3.18826e-24
-1.07235e-24
2.69262e-24
-1.08945e-24
2.22937e-24
-1.12366e-24
1.41869e-24
-1.12045e-24
-1.38294e-24
-1.12546e-24
-1.76668e-24
-1.12782e-24
7.95967e-25
-1.10838e-24
2.45609e-24
-1.10919e-24
4.12891e-24
-1.10188e-24
3.92252e-24
-1.09771e-24
3.68438e-24
-1.07036e-24
3.69782e-24
-1.05508e-24
3.61758e-24
-1.04021e-24
4.91979e-24
-1.02375e-24
2.51286e-24
-9.98221e-25
2.80809e-24
-9.7313e-25
2.50645e-24
-9.5466e-25
2.88543e-24
-9.27049e-25
3.80236e-24
-9.00058e-25
3.45034e-24
-8.77533e-25
2.57706e-24
-8.51686e-25
2.19112e-24
-8.24681e-25
6.57513e-25
-7.90988e-25
3.53942e-25
-7.66032e-25
1.28176e-26
-7.35314e-25
-3.28847e-25
-6.98679e-25
-6.69867e-25
-6.63726e-25
9.3384e-25
-6.23349e-25
1.34253e-24
-5.80422e-25
1.77282e-24
-5.36232e-25
1.53214e-24
-4.8274e-25
7.17011e-25
-4.26488e-25
1.06025e-25
-3.60963e-25
3.03525e-25
-2.91297e-25
-1.30459e-25
-2.16577e-25
-9.2039e-26
-1.3771e-25
-9.8747e-27
-5.59306e-26
-5.95427e-26
-8.44868e-24
-8.10785e-25
-1.20374e-24
-8.57171e-25
-1.82738e-24
-9.00922e-25
-2.43993e-24
-9.82971e-25
-4.67399e-24
-1.05823e-24
-3.03936e-24
-1.04469e-24
-7.63496e-24
-1.08513e-24
-4.82765e-24
-1.08852e-24
-5.06943e-24
-1.11856e-24
-7.87999e-24
-1.13874e-24
-7.99245e-25
-1.16462e-24
-6.48539e-24
-1.21935e-24
-4.37489e-24
-1.19381e-24
-4.48548e-24
-1.1325e-24
-6.93627e-24
-1.19304e-24
-7.37683e-24
-1.23374e-24
-7.29217e-24
-1.3479e-24
-1.20989e-23
-1.38371e-24
-1.18994e-23
-1.25739e-24
-1.16715e-23
-1.23077e-24
-8.92648e-24
-1.17452e-24
-9.16045e-24
-1.19729e-24
-6.98571e-24
-1.12664e-24
-4.94354e-24
-1.08956e-24
-5.31928e-24
-1.0928e-24
-1.6862e-24
-1.0321e-24
2.8341e-24
-9.81152e-25
3.26611e-24
-9.30441e-25
6.26269e-24
-9.04058e-25
6.75945e-24
-9.15853e-25
3.69648e-24
-8.61076e-25
6.29851e-24
-8.16398e-25
8.39854e-24
-7.87282e-25
1.09919e-23
-7.76349e-25
8.71754e-24
-7.65993e-25
7.86351e-24
-8.29163e-25
7.4921e-24
-7.85079e-25
2.30433e-24
-8.13933e-25
2.19866e-24
-8.18754e-25
3.49045e-24
-7.9765e-25
6.35195e-24
-7.88494e-25
5.38034e-24
-7.73957e-25
4.91917e-24
-7.64532e-25
3.53577e-24
-7.72535e-25
3.22753e-24
-7.77416e-25
4.24272e-24
-7.81367e-25
5.32449e-24
-7.33696e-25
6.15927e-24
-7.15407e-25
5.97069e-24
-7.2289e-25
7.04481e-24
-7.3017e-25
7.77798e-24
-7.1645e-25
8.39335e-24
-7.08315e-25
9.07904e-24
-6.88267e-25
1.29808e-23
-7.0227e-25
1.31559e-23
-6.96683e-25
1.31168e-23
-6.83723e-25
8.80141e-24
-6.7782e-25
1.23172e-23
-6.50927e-25
1.21917e-23
-6.55609e-25
1.30387e-23
-6.54104e-25
1.10976e-23
-6.38812e-25
1.10655e-23
-6.30209e-25
1.06173e-23
-5.85848e-25
1.00407e-23
-5.43237e-25
9.34584e-24
-5.23081e-25
1.06693e-23
-4.84976e-25
8.81451e-24
-4.64464e-25
9.36551e-24
-4.4666e-25
6.85403e-24
-4.23678e-25
6.22898e-24
-4.00005e-25
7.54781e-24
-3.76991e-25
4.33868e-24
-3.72283e-25
3.75347e-24
-3.50198e-25
5.35829e-24
-3.33985e-25
4.8328e-24
-3.11287e-25
4.38373e-24
-2.93727e-25
3.84305e-24
-2.7788e-25
3.15666e-24
-2.6364e-25
2.72634e-24
-2.50626e-25
1.23771e-24
-2.40502e-25
1.86351e-24
-2.2553e-25
2.63712e-24
-2.15458e-25
2.20666e-24
-2.09008e-25
1.82749e-24
-1.94942e-25
1.92441e-24
-1.83963e-25
1.67012e-24
-1.69217e-25
1.43326e-24
-1.52403e-25
1.20105e-24
-1.30712e-25
1.28496e-24
-1.05328e-25
6.85176e-25
-7.67849e-26
5.45992e-25
-4.46242e-26
3.36899e-25
-9.43384e-27
2.56216e-25
2.79474e-26
6.43051e-26
6.55388e-26
4.20942e-27
-3.47916e-25
-5.69149e-25
6.73769e-25
-7.18115e-25
-4.41187e-24
-7.97652e-25
-4.91986e-24
-9.2503e-25
-5.62819e-24
-8.91869e-25
-7.70935e-24
-9.61266e-25
-9.66161e-24
-9.64002e-25
-1.06298e-23
-8.78918e-25
-1.14263e-23