/*--------------------------------*- C++ -*----------------------------------*\
  =========                 |
  \\      /  F ield         | OpenFOAM: The Open Source CFD Toolbox
   \\    /   O peration     | Website:  https://openfoam.org
    \\  /    A nd           | Version:  7
     \\/     M anipulation  |
\*---------------------------------------------------------------------------*/
FoamFile
{
    version     2.0;
    format      ascii;
    class       volVectorField;
    location    "116000";
    object      U;
}
// * * * * * * * * * * * * * * * * * * * * * * * * * * * * * * * * * * * * * //

dimensions      [0 1 -1 0 0 0 0];

internalField   nonuniform List<vector> 
4782
(
(9.88484e-19 2.95861e-19 -0.0098274)
(9.83972e-19 2.59266e-19 -0.0097358)
(1.00444e-18 2.42008e-19 -0.00964225)
(9.88061e-19 3.20958e-19 -0.00954665)
(9.20575e-19 4.8033e-19 -0.0094489)
(8.3936e-19 6.36128e-19 -0.00934889)
(8.72234e-19 6.19359e-19 -0.0092465)
(9.53207e-19 5.4309e-19 -0.00914159)
(9.52475e-19 5.88688e-19 -0.00903404)
(9.43725e-19 6.50694e-19 -0.00892368)
(-2.80786e-19 3.09997e-19 -0.0127904)
(-5.43523e-21 4.92673e-20 -0.0127384)
(8.13228e-20 -9.84023e-21 -0.012686)
(1.05173e-19 -3.06531e-20 -0.0126333)
(-2.344e-20 1.38009e-19 -0.0125801)
(-2.80846e-19 5.10694e-19 -0.0125265)
(-6.15295e-19 1.01673e-18 -0.0124724)
(-6.83414e-19 1.19695e-18 -0.0124179)
(-4.2179e-19 9.16172e-19 -0.0123628)
(-2.25789e-19 6.74496e-19 -0.0123073)
(-7.05915e-20 4.4534e-19 -0.0122513)
(8.00116e-21 3.05464e-19 -0.0121947)
(-4.7705e-21 3.37021e-19 -0.0121375)
(2.22161e-20 2.99139e-19 -0.0120799)
(3.66575e-20 3.12555e-19 -0.0120216)
(4.73705e-20 3.649e-19 -0.0119628)
(1.18755e-19 3.49734e-19 -0.0119033)
(1.5704e-19 3.59416e-19 -0.0118433)
(2.45399e-19 2.75405e-19 -0.0117826)
(4.18902e-19 7.97746e-20 -0.0117213)
(5.96704e-19 -1.73627e-19 -0.0116593)
(4.84265e-19 -5.35671e-20 -0.0115966)
(1.1932e-19 4.01677e-19 -0.0115332)
(-1.26002e-19 7.07853e-19 -0.0114691)
(-1.20514e-19 6.97637e-19 -0.0114042)
(1.05442e-19 4.22853e-19 -0.0113385)
(4.16564e-19 2.87476e-20 -0.0112721)
(6.15417e-19 -2.17398e-19 -0.0112047)
(6.04931e-19 -1.62921e-19 -0.0111365)
(5.34947e-19 -4.65708e-20 -0.0110674)
(6.17465e-19 -1.35179e-19 -0.0109974)
(8.24777e-19 -3.51039e-19 -0.0109264)
(8.75465e-19 -3.61948e-19 -0.0108543)
(7.73741e-19 -1.90037e-19 -0.0107812)
(7.0919e-19 -7.62064e-20 -0.010707)
(8.05393e-19 -1.78425e-19 -0.0106317)
(9.2212e-19 -2.72026e-19 -0.0105552)
(8.72064e-19 -1.66325e-19 -0.0104775)
(8.44318e-19 -1.38085e-19 -0.0103984)
(8.78777e-19 -2.07873e-19 -0.010318)
(8.32201e-19 -1.62727e-19 -0.0102362)
(7.52813e-19 -9.74722e-20 -0.010153)
(7.14694e-19 -8.87562e-20 -0.0100681)
(5.22253e-19 1.20136e-19 -0.00998171)
(2.36866e-19 4.62951e-19 -0.00989359)
(1.33473e-19 5.75822e-19 -0.00980371)
(2.79648e-19 3.73265e-19 -0.00971196)
(4.70135e-19 1.02281e-19 -0.00961827)
(5.25232e-19 3.57702e-21 -0.00952252)
(4.08832e-19 1.2381e-19 -0.00942462)
(2.1225e-19 3.67309e-19 -0.00932445)
(9.92159e-20 4.99343e-19 -0.0092219)
(1.79716e-19 3.55723e-19 -0.00911682)
(3.60109e-19 7.73103e-20 -0.00900909)
(3.60967e-19 3.92705e-20 -0.00889856)
(-1.66908e-19 7.50503e-19 -0.0127697)
(-4.88686e-19 9.67892e-19 -0.0127177)
(-6.12421e-19 9.30115e-19 -0.0126653)
(-4.97248e-19 6.15939e-19 -0.0126125)
(-3.88261e-19 3.55263e-19 -0.0125592)
(-2.91147e-19 2.54202e-19 -0.0125056)
(-2.9343e-19 3.51712e-19 -0.0124515)
(-2.35472e-19 4.80489e-19 -0.0123969)
(-2.24225e-19 6.0567e-19 -0.0123418)
(-3.05325e-19 7.68404e-19 -0.0122862)
(-4.15788e-19 8.94223e-19 -0.01223)
(-4.65454e-19 9.03031e-19 -0.0121734)
(-4.68063e-19 8.54246e-19 -0.0121162)
(-3.56765e-19 7.26245e-19 -0.0120584)
(-1.32972e-19 5.04616e-19 -0.0120001)
(-3.05767e-20 4.85792e-19 -0.0119412)
(-1.26213e-19 6.86787e-19 -0.0118817)
(-3.53828e-19 1.03957e-18 -0.0118216)
(-4.58595e-19 1.20933e-18 -0.0117609)
(-4.33011e-19 1.19413e-18 -0.0116995)
(-3.98805e-19 1.17904e-18 -0.0116374)
(-3.63384e-19 1.16003e-18 -0.0115746)
(-3.76156e-19 1.24207e-18 -0.0115112)
(-3.04324e-19 1.26299e-18 -0.011447)
(-7.47775e-20 1.09609e-18 -0.011382)
(4.69917e-20 1.02623e-18 -0.0113162)
(9.11191e-20 9.94571e-19 -0.0112497)
(3.23535e-19 6.73334e-19 -0.0111823)
(5.28808e-19 3.8429e-19 -0.011114)
(4.6974e-19 4.51399e-19 -0.0110448)
(4.63455e-19 4.72617e-19 -0.0109746)
(5.45365e-19 3.47729e-19 -0.0109035)
(4.3194e-19 4.37662e-19 -0.0108314)
(2.79678e-19 5.93805e-19 -0.0107582)
(3.06645e-19 5.39068e-19 -0.0106839)
(5.41099e-19 2.56039e-19 -0.0106085)
(6.12196e-19 1.56741e-19 -0.0105319)
(4.13747e-19 3.71908e-19 -0.010454)
(2.98753e-19 4.87636e-19 -0.0103749)
(3.31913e-19 4.18151e-19 -0.0102943)
(3.67158e-19 3.43873e-19 -0.0102124)
(3.96027e-19 2.87918e-19 -0.010129)
(3.7545e-19 2.81951e-19 -0.0100441)
(3.41384e-19 2.9787e-19 -0.00995752)
(3.77308e-19 2.74964e-19 -0.00986927)
(4.34273e-19 2.37633e-19 -0.00977924)
(4.4407e-19 2.41426e-19 -0.00968734)
(3.83031e-19 3.00482e-19 -0.0095935)
(3.17979e-19 3.46632e-19 -0.0094976)
(3.2951e-19 2.91781e-19 -0.00939954)
(3.27245e-19 2.76374e-19 -0.0092992)
(1.77382e-19 4.72339e-19 -0.00919647)
(6.86825e-20 6.29347e-19 -0.00909122)
(1.07473e-19 5.84343e-19 -0.00898331)
(2.02962e-19 4.56212e-19 -0.00887259)
(-1.80393e-18 1.4504e-18 -0.0127485)
(-1.69601e-18 1.31213e-18 -0.0126965)
(-1.5015e-18 1.11112e-18 -0.012644)
(-1.26803e-18 8.00429e-19 -0.0125911)
(-8.55155e-19 2.68366e-19 -0.0125378)
(-4.93401e-19 -1.53838e-19 -0.0124841)
(-2.88828e-19 -3.05204e-19 -0.0124299)
(-2.13035e-19 -2.60638e-19 -0.0123753)
(-3.91273e-19 5.12419e-20 -0.0123201)
(-6.41122e-19 4.82177e-19 -0.0122644)
(-7.76585e-19 7.75693e-19 -0.0122082)
(-7.08043e-19 8.66143e-19 -0.0121515)
(-3.89709e-19 6.8071e-19 -0.0120942)
(1.48607e-19 2.39375e-19 -0.0120364)
(5.73735e-19 -1.1093e-19 -0.011978)
(6.61817e-19 -1.07076e-19 -0.011919)
(5.71011e-19 1.07446e-19 -0.0118595)
(4.67759e-19 3.46215e-19 -0.0117993)
(4.2964e-19 5.31322e-19 -0.0117385)
(6.32678e-19 4.14937e-19 -0.011677)
(9.42992e-19 1.79214e-19 -0.0116149)
(1.05683e-18 1.45078e-19 -0.011552)
(1.07569e-18 2.00965e-19 -0.0114885)
(1.08521e-18 2.85917e-19 -0.0114242)
(1.00825e-18 4.72452e-19 -0.0113592)
(8.39218e-19 7.20105e-19 -0.0112933)
(6.90326e-19 9.45664e-19 -0.0112267)
(6.96294e-19 1.0113e-18 -0.0111592)
(8.36027e-19 8.92112e-19 -0.0110908)
(9.96591e-19 7.15653e-19 -0.0110215)
(1.01277e-18 7.11665e-19 -0.0109513)
(9.17152e-19 8.0249e-19 -0.0108801)
(9.31367e-19 7.74189e-19 -0.0108078)
(9.76696e-19 7.33327e-19 -0.0107345)
(1.10426e-18 5.78377e-19 -0.0106602)
(1.25873e-18 3.72555e-19 -0.0105846)
(1.1855e-18 4.3151e-19 -0.0105079)
(1.04459e-18 5.7904e-19 -0.0104299)
(1.0229e-18 5.98051e-19 -0.0103506)
(1.05847e-18 5.36564e-19 -0.01027)
(1.08344e-18 4.73265e-19 -0.0101879)
(1.03777e-18 5.03375e-19 -0.0101044)
(1.01481e-18 5.1364e-19 -0.0100193)
(1.17312e-18 3.47231e-19 -0.00993263)
(1.2527e-18 2.8612e-19 -0.00984423)
(1.13468e-18 4.5364e-19 -0.00975405)
(1.02047e-18 5.99806e-19 -0.009662)
(9.5057e-19 6.75135e-19 -0.009568)
(8.85944e-19 7.40029e-19 -0.00947193)
(9.10338e-19 7.08151e-19 -0.0093737)
(1.10384e-18 4.80963e-19 -0.00927319)
(1.29333e-18 2.63153e-19 -0.00917029)
(1.30999e-18 2.57434e-19 -0.00906485)
(1.27191e-18 3.29151e-19 -0.00895675)
(1.30939e-18 3.05575e-19 -0.00884584)
(-8.38828e-20 1.26853e-18 -0.0127268)
(-4.63783e-20 1.33458e-18 -0.0126747)
(-9.06432e-20 1.47902e-18 -0.0126222)
(-4.8908e-20 1.51727e-18 -0.0125693)
(2.89147e-19 1.1754e-18 -0.012516)
(7.78025e-19 5.75834e-19 -0.0124621)
(1.09692e-18 1.49318e-19 -0.0124079)
(1.00747e-18 1.58267e-19 -0.0123531)
(8.71959e-19 2.16375e-19 -0.0122979)
(8.50396e-19 2.14174e-19 -0.0122421)
(9.10068e-19 1.86189e-19 -0.0121858)
(1.1539e-18 -2.08183e-20 -0.012129)
(1.30799e-18 -1.50235e-19 -0.0120717)
(1.25252e-18 -1.11814e-19 -0.0120138)
(1.04772e-18 3.70053e-20 -0.0119553)
(8.71754e-19 1.81679e-19 -0.0118963)
(7.51029e-19 3.13915e-19 -0.0118367)
(6.08322e-19 4.9095e-19 -0.0117764)
(5.1094e-19 6.45928e-19 -0.0117155)
(5.14518e-19 7.1506e-19 -0.011654)
(4.49758e-19 8.29573e-19 -0.0115918)
(2.44977e-19 1.07783e-18 -0.0115289)
(1.86243e-19 1.1713e-18 -0.0114652)
(2.93847e-19 1.07579e-18 -0.0114009)
(2.58319e-19 1.13166e-18 -0.0113358)
(1.33463e-19 1.29861e-18 -0.0112698)
(2.83207e-19 1.16122e-18 -0.0112031)
(5.14173e-19 9.18879e-19 -0.0111355)
(4.44479e-19 9.90294e-19 -0.011067)
(2.42822e-19 1.21748e-18 -0.0109977)
(7.3579e-20 1.41721e-18 -0.0109273)
(5.67556e-20 1.4654e-18 -0.010856)
(1.52636e-19 1.38703e-18 -0.0107837)
(3.78949e-20 1.53692e-18 -0.0107103)
(-1.05191e-19 1.74305e-18 -0.0106358)
(8.47541e-20 1.57776e-18 -0.0105601)
(2.65265e-19 1.38788e-18 -0.0104833)
(2.02326e-19 1.47408e-18 -0.0104052)
(7.9776e-20 1.64129e-18 -0.0103258)
(-1.9453e-20 1.78242e-18 -0.010245)
(5.97624e-20 1.73446e-18 -0.0101629)
(2.52416e-19 1.56513e-18 -0.0100792)
(5.06231e-19 1.34261e-18 -0.00999396)
(7.93407e-19 1.06399e-18 -0.00990711)
(9.39511e-19 9.00551e-19 -0.00981856)
(8.91095e-19 9.43333e-19 -0.00972823)
(6.4107e-19 1.21744e-18 -0.00963602)
(4.35224e-19 1.47216e-18 -0.00954185)
(4.19808e-19 1.54043e-18 -0.00944561)
(4.91717e-19 1.51199e-18 -0.0093472)
(5.38437e-19 1.50179e-18 -0.00924651)
(5.43689e-19 1.51937e-18 -0.00914341)
(6.52538e-19 1.41905e-18 -0.00903778)
(7.34244e-19 1.34428e-18 -0.00892948)
(7.20732e-19 1.35998e-18 -0.00881836)
(-7.35089e-19 1.46661e-18 -0.0127268)
(-6.82305e-19 1.51123e-18 -0.0126747)
(-5.29177e-19 1.47344e-18 -0.0126222)
(-3.78704e-19 1.45977e-18 -0.0125693)
(-3.11699e-19 1.51775e-18 -0.012516)
(-2.91743e-19 1.55989e-18 -0.0124621)
(-3.29905e-19 1.57285e-18 -0.0124079)
(-4.8812e-19 1.64891e-18 -0.0123531)
(-5.0266e-19 1.62895e-18 -0.0122979)
(-3.16952e-19 1.46821e-18 -0.0122421)
(-1.37053e-19 1.35174e-18 -0.0121858)
(-1.31713e-19 1.37364e-18 -0.012129)
(-2.90362e-19 1.48662e-18 -0.0120717)
(-3.67493e-19 1.47179e-18 -0.0120138)
(-1.54022e-19 1.1445e-18 -0.0119553)
(1.76487e-19 7.04282e-19 -0.0118963)
(2.8357e-19 4.81233e-19 -0.0118367)
(3.01765e-19 3.79009e-19 -0.0117764)
(4.2571e-19 2.19633e-19 -0.0117155)
(5.46239e-19 7.34413e-20 -0.011654)
(5.35773e-19 2.31627e-20 -0.0115918)
(5.07793e-19 -2.57796e-21 -0.0115289)
(4.86088e-19 -9.04399e-21 -0.0114652)
(3.6764e-19 5.64662e-20 -0.0114009)
(2.34763e-19 1.28716e-19 -0.0113358)
(5.98876e-20 2.55766e-19 -0.0112698)
(-2.52664e-19 5.18916e-19 -0.0112031)
(-4.95238e-19 6.86804e-19 -0.0111355)
(-4.12626e-19 5.59636e-19 -0.011067)
(-1.35841e-19 2.73159e-19 -0.0109977)
(1.63445e-20 1.35345e-19 -0.0109273)
(7.82357e-21 1.86707e-19 -0.010856)
(2.02195e-20 2.16969e-19 -0.0107837)
(2.28238e-19 5.81609e-20 -0.0107103)
(4.8816e-19 -1.20518e-19 -0.0106358)
(4.0188e-19 7.49412e-21 -0.0105601)
(1.85731e-19 2.01884e-19 -0.0104833)
(2.27292e-19 1.61386e-19 -0.0104052)
(3.12834e-19 9.21541e-20 -0.0103258)
(3.77201e-19 5.54711e-20 -0.010245)
(4.51198e-19 1.35042e-20 -0.0101629)
(5.03926e-19 -2.15336e-20 -0.0100792)
(4.22204e-19 5.11615e-20 -0.00999396)
(1.74011e-19 2.65382e-19 -0.00990711)
(-3.77962e-20 4.16519e-19 -0.00981856)
(-9.29151e-20 4.1087e-19 -0.00972823)
(1.00348e-19 1.85971e-19 -0.00963602)
(3.71351e-19 -9.34454e-20 -0.00954185)
(3.98056e-19 -1.45881e-19 -0.00944561)
(3.24507e-19 -9.22139e-20 -0.0093472)
(3.36475e-19 -1.33084e-19 -0.00924651)
(3.46833e-19 -1.73037e-19 -0.00914341)
(2.60938e-19 -1.20838e-19 -0.00903778)
(1.01015e-19 -6.84031e-21 -0.00892948)
(-6.27061e-20 1.12495e-19 -0.00881836)
(3.69162e-19 8.907e-19 -0.0127485)
(4.3545e-19 8.30587e-19 -0.0126965)
(4.25393e-19 8.15655e-19 -0.012644)
(4.89879e-19 7.13314e-19 -0.0125911)
(5.80523e-19 6.0522e-19 -0.0125378)
(5.37199e-19 6.16742e-19 -0.0124841)
(3.76095e-19 7.49985e-19 -0.0124299)
(2.86056e-19 8.61989e-19 -0.0123753)
(5.16518e-19 7.2891e-19 -0.0123201)
(8.79426e-19 4.79405e-19 -0.0122644)
(1.03696e-18 3.71049e-19 -0.0122082)
(9.34504e-19 4.84841e-19 -0.0121515)
(5.44587e-19 8.48693e-19 -0.0120942)
(-3.51258e-20 1.40061e-18 -0.0120364)
(-5.10948e-19 1.85811e-18 -0.011978)
(-6.16547e-19 1.94698e-18 -0.011919)
(-4.26022e-19 1.75724e-18 -0.0118595)
(-1.48285e-19 1.51887e-18 -0.0117993)
(-7.64397e-22 1.39605e-18 -0.0117385)
(-9.52137e-20 1.47244e-18 -0.011677)
(-2.56823e-19 1.60022e-18 -0.0116149)
(-2.76599e-19 1.61851e-18 -0.011552)
(-2.66661e-19 1.62799e-18 -0.0114885)
(-2.57963e-19 1.64052e-18 -0.0114242)
(-2.11865e-19 1.6214e-18 -0.0113592)
(-1.58656e-19 1.60605e-18 -0.0112933)
(-8.75365e-20 1.6116e-18 -0.0112267)
(3.32396e-20 1.57833e-18 -0.0111592)
(1.25112e-19 1.53621e-18 -0.0110908)
(2.67572e-19 1.41789e-18 -0.0110215)
(5.94587e-19 1.14278e-18 -0.0109513)
(8.41591e-19 9.52757e-19 -0.0108801)
(8.77347e-19 9.50721e-19 -0.0108078)
(8.90176e-19 9.75045e-19 -0.0107345)
(8.20991e-19 1.04641e-18 -0.0106602)
(5.41109e-19 1.26006e-18 -0.0105846)
(3.85047e-19 1.35821e-18 -0.0105079)
(4.30296e-19 1.28902e-18 -0.0104299)
(4.71003e-19 1.21666e-18 -0.0103506)
(4.70867e-19 1.17919e-18 -0.01027)
(4.63381e-19 1.14678e-18 -0.0101879)
(4.23235e-19 1.1446e-18 -0.0101044)
(4.47204e-19 1.0874e-18 -0.0100193)
(4.39182e-19 1.08059e-18 -0.00993263)
(3.37338e-19 1.16131e-18 -0.00984423)
(3.73776e-19 1.12718e-18 -0.00975405)
(4.03928e-19 1.08785e-18 -0.009662)
(3.39309e-19 1.11504e-18 -0.009568)
(4.15973e-19 1.00645e-18 -0.00947193)
(4.79308e-19 9.13304e-19 -0.0093737)
(4.13136e-19 9.39649e-19 -0.00927319)
(4.63113e-19 8.58645e-19 -0.00917029)
(5.76083e-19 7.29424e-19 -0.00906485)
(6.5714e-19 6.4418e-19 -0.00895675)
(6.76355e-19 6.28987e-19 -0.00884584)
(6.1924e-19 6.95722e-19 -0.00873195)
(6.27972e-19 7.13354e-19 -0.00861493)
(7.9723e-19 5.78337e-19 -0.00849459)
(9.07252e-19 4.78958e-19 -0.00837074)
(-8.82597e-19 2.16827e-18 -0.0127697)
(-8.87865e-19 2.17104e-18 -0.0127177)
(-9.74769e-19 2.23147e-18 -0.0126653)
(-9.23699e-19 2.19137e-18 -0.0126125)
(-8.16799e-19 2.09025e-18 -0.0125592)
(-6.91495e-19 1.96742e-18 -0.0125056)
(-4.56013e-19 1.74903e-18 -0.0124515)
(-3.37092e-19 1.62576e-18 -0.0123969)
(-3.14039e-19 1.55692e-18 -0.0123418)
(-3.67323e-19 1.50184e-18 -0.0122862)
(-3.69166e-19 1.43605e-18 -0.01223)
(-3.38936e-19 1.36445e-18 -0.0121734)
(-3.23359e-19 1.30615e-18 -0.0121162)
(-2.59414e-19 1.25621e-18 -0.0120584)
(-3.01931e-19 1.34161e-18 -0.0120001)
(-3.23497e-19 1.43723e-18 -0.0119412)
(-1.35262e-19 1.35547e-18 -0.0118817)
(1.19728e-19 1.19581e-18 -0.0118216)
(2.8874e-19 1.08145e-18 -0.0117609)
(3.67815e-19 1.00702e-18 -0.0116995)
(4.13772e-19 9.52535e-19 -0.0116374)
(5.66719e-19 8.1126e-19 -0.0115746)
(6.70887e-19 7.34442e-19 -0.0115112)
(6.02517e-19 8.37839e-19 -0.011447)
(5.74065e-19 9.15914e-19 -0.011382)
(7.23496e-19 8.51112e-19 -0.0113162)
(6.8118e-19 9.1426e-19 -0.0112497)
(2.55616e-19 1.25349e-18 -0.0111823)
(-7.41359e-20 1.50346e-18 -0.011114)
(3.48035e-20 1.40917e-18 -0.0110448)
(3.15441e-19 1.16225e-18 -0.0109746)
(4.1257e-19 1.023e-18 -0.0109035)
(4.60323e-19 9.01019e-19 -0.0108314)
(5.13639e-19 7.96752e-19 -0.0107582)
(2.73206e-19 9.29065e-19 -0.0106839)
(-1.94698e-19 1.26693e-18 -0.0106085)
(-3.98379e-19 1.40794e-18 -0.0105319)
(-3.24549e-19 1.32697e-18 -0.010454)
(-2.74283e-19 1.2823e-18 -0.0103749)
(-2.12505e-19 1.22456e-18 -0.0102943)
(-1.32624e-19 1.14833e-18 -0.0102124)
(-5.04677e-20 1.07556e-18 -0.010129)
(6.95142e-20 9.73013e-19 -0.0100441)
(6.08482e-20 9.63048e-19 -0.00995752)
(-2.00005e-20 1.03664e-18 -0.00986927)
(-6.00678e-20 1.09903e-18 -0.00977924)
(-5.21639e-20 1.11256e-18 -0.00968735)
(1.90261e-20 1.06129e-18 -0.0095935)
(1.35577e-20 1.0678e-18 -0.0094976)
(3.92214e-20 1.03101e-18 -0.00939954)
(1.02948e-19 9.76847e-19 -0.0092992)
(1.85848e-19 9.11242e-19 -0.00919647)
(3.51361e-19 7.71462e-19 -0.00909122)
(5.13195e-19 6.25893e-19 -0.00898331)
(6.36007e-19 5.08289e-19 -0.00887259)
(7.58506e-19 3.98377e-19 -0.00875891)
(8.30019e-19 3.46677e-19 -0.00864209)
(7.82355e-19 3.93532e-19 -0.00852196)
(7.06329e-19 4.43211e-19 -0.00839832)
(6.7297e-19 4.46618e-19 -0.00827096)
(-7.65394e-19 6.55787e-21 -0.0127904)
(-8.53597e-19 1.56477e-19 -0.0127384)
(-8.08884e-19 2.18193e-19 -0.012686)
(-7.24682e-19 2.31878e-19 -0.0126333)
(-7.05683e-19 2.70141e-19 -0.0125801)
(-7.71835e-19 4.22077e-19 -0.0125265)
(-9.20203e-19 6.25747e-19 -0.0124724)
(-1.09931e-18 8.10816e-19 -0.0124179)
(-1.21893e-18 9.67234e-19 -0.0123628)
(-9.30989e-19 8.22133e-19 -0.0123073)
(-4.76885e-19 5.95655e-19 -0.0122513)
(-4.55482e-19 6.62555e-19 -0.0121947)
(-5.69716e-19 8.63692e-19 -0.0121375)
(-6.24666e-19 1.0041e-18 -0.0120799)
(-6.77845e-19 1.13563e-18 -0.0120216)
(-6.80349e-19 1.22148e-18 -0.0119628)
(-6.59979e-19 1.28698e-18 -0.0119033)
(-6.40478e-19 1.33249e-18 -0.0118433)
(-7.93559e-19 1.52129e-18 -0.0117826)
(-1.10539e-18 1.8072e-18 -0.0117213)
(-1.31859e-18 1.99004e-18 -0.0116593)
(-1.20389e-18 1.89195e-18 -0.0115966)
(-8.04762e-19 1.55764e-18 -0.0115332)
(-5.32579e-19 1.31861e-18 -0.0114691)
(-4.81875e-19 1.26301e-18 -0.0114042)
(-6.45743e-19 1.36886e-18 -0.0113385)
(-1.02557e-18 1.63046e-18 -0.0112721)
(-1.23851e-18 1.79204e-18 -0.0112047)
(-1.14021e-18 1.75563e-18 -0.0111365)
(-9.93765e-19 1.67677e-18 -0.0110674)
(-1.02115e-18 1.71492e-18 -0.0109974)
(-1.20003e-18 1.85444e-18 -0.0109264)
(-1.12986e-18 1.80666e-18 -0.0108543)
(-9.54457e-19 1.65736e-18 -0.0107812)
(-8.75807e-19 1.56495e-18 -0.010707)
(-8.33038e-19 1.51073e-18 -0.0106317)
(-7.84205e-19 1.47455e-18 -0.0105552)
(-5.56334e-19 1.2725e-18 -0.0104775)
(-3.9685e-19 1.11849e-18 -0.0103984)
(-4.54293e-19 1.12759e-18 -0.010318)
(-4.39205e-19 1.08636e-18 -0.0102362)
(-4.15084e-19 1.03353e-18 -0.010153)
(-4.85077e-19 1.04627e-18 -0.0100681)
(-4.05191e-19 9.33905e-19 -0.00998171)
(-1.18309e-19 6.7558e-19 -0.0098936)
(1.27502e-20 5.47434e-19 -0.00980371)
(-1.57834e-19 6.67108e-19 -0.00971196)
(-3.85872e-19 8.28078e-19 -0.00961827)
(-4.88191e-19 8.93203e-19 -0.00952252)
(-4.04997e-19 8.22944e-19 -0.00942462)
(-2.53024e-19 7.04248e-19 -0.00932446)
(-1.89923e-19 6.50342e-19 -0.0092219)
(-2.08828e-19 6.51618e-19 -0.00911682)
(-2.58742e-19 6.70405e-19 -0.00900909)
(-2.1481e-19 6.09501e-19 -0.00889856)
(-6.55182e-20 4.582e-19 -0.00878507)
(5.26968e-20 3.20632e-19 -0.00866844)
(-4.13737e-20 3.46095e-19 -0.0085485)
(-2.21173e-19 4.43301e-19 -0.00842506)
(-2.60216e-19 4.34159e-19 -0.00829791)
(-1.6607e-19 3.30397e-19 -0.00816683)
(2.99891e-20 1.51702e-19 -0.00803157)
(2.39932e-19 -2.56536e-20 -0.0078919)
(2.12814e-19 -8.3533e-21 -0.00774755)
(1.05251e-19 6.66346e-20 -0.00759822)
(1.36599e-19 2.07054e-20 -0.00744364)
(2.4884e-19 -8.91846e-20 -0.00728347)
(3.24704e-19 -1.68143e-19 -0.0071174)
(3.60475e-19 -2.1671e-19 -0.00694509)
(4.30293e-19 -2.98763e-19 -0.00676617)
(4.39224e-19 -3.36862e-19 -0.00658022)
(3.78833e-19 -3.24678e-19 -0.00638649)
(3.11886e-19 -3.11538e-19 -0.00618417)
(2.95593e-19 -3.35461e-19 -0.00597274)
(3.34294e-19 -4.00505e-19 -0.00575171)
(3.68853e-19 -4.61812e-19 -0.00552069)
(3.45695e-19 -4.83881e-19 -0.00527943)
(2.43865e-19 -4.43668e-19 -0.00502786)
(1.44053e-19 -4.01799e-19 -0.0047662)
(8.50825e-20 -3.86288e-19 -0.00449499)
(2.80406e-20 -3.68039e-19 -0.00421515)
(-1.29153e-20 -3.58457e-19 -0.00392795)
(-3.41711e-20 -3.58477e-19 -0.00363498)
(-5.01678e-20 -3.6104e-19 -0.00333797)
(-5.26935e-20 -3.72418e-19 -0.00303866)
(-8.13866e-20 -3.58241e-19 -0.00273866)
(-1.0463e-19 -3.39471e-19 -0.00243928)
(-9.96786e-20 -3.34632e-19 -0.00214155)
(-9.58097e-20 -3.20393e-19 -0.00184617)
(-1.15366e-19 -2.78687e-19 -0.00155359)
(-1.40166e-19 -2.23895e-19 -0.00126405)
(-1.42903e-19 -1.77124e-19 -0.000977669)
(-1.21596e-19 -1.34758e-19 -0.00069449)
(-8.24051e-20 -8.82065e-20 -0.000414505)
(-2.43428e-20 -3.47883e-20 -0.000137691)
(-8.91006e-19 8.42755e-19 -0.0128104)
(-6.75645e-19 7.77185e-19 -0.0127585)
(-8.13226e-19 9.05145e-19 -0.0127061)
(-9.54361e-19 9.97032e-19 -0.0126534)
(-6.81943e-19 7.93778e-19 -0.0126003)
(-3.25929e-19 5.30763e-19 -0.0125467)
(-3.24565e-19 5.32528e-19 -0.0124927)
(-3.40483e-19 5.52966e-19 -0.0124382)
(-2.37574e-19 5.27758e-19 -0.0123833)
(-3.69425e-20 4.31149e-19 -0.0123278)
(5.74976e-20 3.36079e-19 -0.0122718)
(1.45486e-19 2.34174e-19 -0.0122153)
(2.75702e-19 1.41742e-19 -0.0121583)
(1.99084e-19 2.0826e-19 -0.0121006)
(9.68662e-21 3.08601e-19 -0.0120425)
(-1.63709e-19 3.88914e-19 -0.0119837)
(-1.83315e-19 3.74307e-19 -0.0119243)
(-2.24032e-21 2.22176e-19 -0.0118643)
(8.1458e-20 1.19349e-19 -0.0118037)
(-1.69306e-19 2.74738e-19 -0.0117425)
(-5.21814e-19 5.32282e-19 -0.0116806)
(-7.2432e-19 6.95787e-19 -0.011618)
(-7.76165e-19 7.20238e-19 -0.0115546)
(-7.73879e-19 6.75763e-19 -0.0114906)
(-7.29577e-19 6.10856e-19 -0.0114258)
(-6.63271e-19 5.32522e-19 -0.0113602)
(-5.85063e-19 4.74172e-19 -0.0112938)
(-5.53753e-19 4.97135e-19 -0.0112265)
(-6.42288e-19 6.30126e-19 -0.0111584)
(-6.51911e-19 7.20893e-19 -0.0110894)
(-5.317e-19 7.1042e-19 -0.0110194)
(-4.49153e-19 7.41339e-19 -0.0109485)
(-4.6136e-19 8.60482e-19 -0.0108765)
(-6.33507e-19 1.08441e-18 -0.0108035)
(-8.43111e-19 1.34661e-18 -0.0107295)
(-9.84168e-19 1.55248e-18 -0.0106542)
(-1.20162e-18 1.78658e-18 -0.0105778)
(-1.356e-18 1.95029e-18 -0.0105002)
(-1.32828e-18 1.9587e-18 -0.0104212)
(-1.19513e-18 1.8878e-18 -0.010341)
(-1.05644e-18 1.81375e-18 -0.0102593)
(-1.03807e-18 1.8195e-18 -0.0101761)
(-1.01735e-18 1.82297e-18 -0.0100914)
(-9.42196e-19 1.78356e-18 -0.0100051)
(-7.91629e-19 1.67784e-18 -0.00991715)
(-6.14991e-19 1.52858e-18 -0.0098274)
(-5.02739e-19 1.43117e-18 -0.0097358)
(-4.24979e-19 1.39919e-18 -0.00964225)
(-2.88328e-19 1.3496e-18 -0.00954665)
(-7.8367e-20 1.2511e-18 -0.00944891)
(1.803e-20 1.22165e-18 -0.0093489)
(-4.65676e-21 1.28127e-18 -0.0092465)
(5.12945e-20 1.29471e-18 -0.0091416)
(1.50069e-19 1.27242e-18 -0.00903404)
(1.94865e-19 1.28359e-18 -0.00892368)
(1.76597e-19 1.33407e-18 -0.00881037)
(1.66303e-19 1.37193e-18 -0.00869393)
(2.13614e-19 1.35945e-18 -0.00857418)
(3.11215e-19 1.31692e-18 -0.00845094)
(5.03648e-19 1.2076e-18 -0.00832398)
(7.21777e-19 1.07769e-18 -0.00819309)
(8.82025e-19 9.91285e-19 -0.00805804)
(1.03483e-18 9.07521e-19 -0.00791857)
(1.09707e-18 8.90202e-19 -0.00777441)
(9.85203e-19 1.01591e-18 -0.00762528)
(8.37564e-19 1.17057e-18 -0.00747087)
(8.03034e-19 1.23904e-18 -0.00731088)
(8.42425e-19 1.24238e-18 -0.00714498)
(8.69041e-19 1.24757e-18 -0.00697281)
(8.39345e-19 1.28062e-18 -0.00679402)
(7.31246e-19 1.36353e-18 -0.00660817)
(6.1533e-19 1.44796e-18 -0.00641456)
(6.16071e-19 1.44951e-18 -0.00621238)
(7.11241e-19 1.38012e-18 -0.00600104)
(8.09622e-19 1.29949e-18 -0.00578005)
(8.50455e-19 1.24982e-18 -0.00554899)
(8.62732e-19 1.21124e-18 -0.00530757)
(8.45716e-19 1.19189e-18 -0.00505571)
(8.42568e-19 1.15783e-18 -0.0047936)
(8.50215e-19 1.10705e-18 -0.00452174)
(8.12074e-19 1.07812e-18 -0.00424103)
(7.74627e-19 1.03728e-18 -0.00395274)
(7.32834e-19 9.90812e-19 -0.00365844)
(6.67277e-19 9.52683e-19 -0.0033599)
(5.75266e-19 9.24061e-19 -0.00305891)
(5.21205e-19 8.58781e-19 -0.00275708)
(5.02302e-19 7.62682e-19 -0.0024558)
(4.76701e-19 6.68048e-19 -0.00215611)
(4.45869e-19 5.71117e-19 -0.00185876)
(3.94567e-19 4.8662e-19 -0.0015642)
(3.30479e-19 4.07276e-19 -0.00127269)
(2.78829e-19 3.14192e-19 -0.000984363)
(2.08579e-19 2.29771e-19 -0.00069925)
(1.29297e-19 1.49006e-19 -0.000417348)
(4.03346e-20 4.56508e-20 -0.000138636)
(2.85764e-21 -2.0453e-20 -0.0128297)
(-2.27176e-19 1.48625e-19 -0.0127778)
(-6.32049e-19 4.60201e-19 -0.0127256)
(-8.05506e-19 6.55773e-19 -0.0126729)
(-8.47422e-19 7.80035e-19 -0.0126198)
(-8.39673e-19 8.2401e-19 -0.0125663)
(-8.63155e-19 8.89251e-19 -0.0125123)
(-8.08801e-19 9.18127e-19 -0.0124579)
(-7.67802e-19 9.19786e-19 -0.012403)
(-9.11419e-19 1.02965e-18 -0.0123476)
(-9.76654e-19 1.01802e-18 -0.0122917)
(-8.35103e-19 8.82448e-19 -0.0122352)
(-7.11322e-19 7.35851e-19 -0.0121783)
(-1.02628e-18 8.59269e-19 -0.0121207)
(-1.48295e-18 1.07274e-18 -0.0120626)
(-1.52702e-18 1.03326e-18 -0.0120039)
(-1.46876e-18 9.30112e-19 -0.0119446)
(-1.60688e-18 9.38001e-19 -0.0118847)
(-1.80429e-18 9.56803e-19 -0.0118241)
(-1.83448e-18 8.58828e-19 -0.0117629)
(-1.82945e-18 7.47847e-19 -0.0117011)
(-1.89547e-18 7.0044e-19 -0.0116385)
(-1.93621e-18 6.47079e-19 -0.0115753)
(-1.80074e-18 4.93162e-19 -0.0115113)
(-1.67471e-18 3.57806e-19 -0.0114466)
(-1.63586e-18 2.79503e-19 -0.011381)
(-1.48449e-18 1.20294e-19 -0.0113147)
(-1.20384e-18 -1.10973e-19 -0.0112475)
(-8.70021e-19 -3.53795e-19 -0.0111795)
(-7.35222e-19 -4.50418e-19 -0.0111106)
(-7.81498e-19 -4.5173e-19 -0.0110407)
(-7.54408e-19 -5.10831e-19 -0.0109698)
(-6.62751e-19 -5.94479e-19 -0.010898)
(-5.28776e-19 -6.9839e-19 -0.0108251)
(-4.71356e-19 -7.34784e-19 -0.0107511)
(-7.52073e-19 -5.19318e-19 -0.010676)
(-1.16212e-18 -1.88853e-19 -0.0105996)
(-1.33409e-18 1.20169e-20 -0.0105221)
(-1.37045e-18 1.29898e-19 -0.0104433)
(-1.41164e-18 2.42118e-19 -0.0103631)
(-1.42115e-18 3.32711e-19 -0.0102815)
(-1.42334e-18 4.12995e-19 -0.0101985)
(-1.48356e-18 5.2725e-19 -0.0101139)
(-1.50352e-18 6.07863e-19 -0.0100277)
(-1.50303e-18 6.72535e-19 -0.00993988)
(-1.50506e-18 7.31073e-19 -0.00985026)
(-1.21192e-18 5.75503e-19 -0.00975879)
(-7.91828e-19 3.16926e-19 -0.00966537)
(-6.22076e-19 2.22872e-19 -0.00956992)
(-6.83196e-19 2.87848e-19 -0.00947232)
(-6.88997e-19 3.18392e-19 -0.00937246)
(-5.19218e-19 2.29396e-19 -0.00927022)
(-5.06645e-19 2.48139e-19 -0.00916548)
(-7.08594e-19 4.12211e-19 -0.00905809)
(-8.27087e-19 5.12478e-19 -0.0089479)
(-8.33802e-19 5.36206e-19 -0.00883476)
(-8.83194e-19 5.95053e-19 -0.0087185)
(-9.69312e-19 6.80789e-19 -0.00859893)
(-1.01297e-18 7.32977e-19 -0.00847587)
(-1.02091e-18 7.54184e-19 -0.0083491)
(-8.98435e-19 6.67434e-19 -0.00821841)
(-6.93761e-19 5.11256e-19 -0.00808355)
(-5.17412e-19 3.74103e-19 -0.00794426)
(-3.69604e-19 2.53422e-19 -0.00780029)
(-2.55069e-19 1.5709e-19 -0.00765135)
(-2.09366e-19 1.15339e-19 -0.00749712)
(-2.36145e-19 1.27225e-19 -0.00733731)
(-3.56973e-19 2.00791e-19 -0.00717156)
(-5.34316e-19 3.13188e-19 -0.00699953)
(-6.45296e-19 3.80429e-19 -0.00682086)
(-6.47691e-19 3.73916e-19 -0.00663511)
(-5.5837e-19 3.0946e-19 -0.00644162)
(-4.25213e-19 2.16518e-19 -0.00623958)
(-3.78173e-19 1.79016e-19 -0.00602834)
(-4.13477e-19 1.92811e-19 -0.00580739)
(-4.19776e-19 1.84294e-19 -0.00557629)
(-3.58167e-19 1.25905e-19 -0.00533474)
(-2.99831e-19 6.90959e-20 -0.00508262)
(-3.11536e-19 6.41294e-20 -0.00482008)
(-3.84873e-19 1.03696e-19 -0.00454761)
(-4.51035e-19 1.42922e-19 -0.00426607)
(-4.38645e-19 1.27742e-19 -0.00397674)
(-3.90462e-19 8.77251e-20 -0.00368118)
(-3.88201e-19 7.86496e-20 -0.00338117)
(-4.04498e-19 8.63065e-20 -0.00307854)
(-3.62148e-19 5.61671e-20 -0.00277495)
(-2.65859e-19 -6.62316e-21 -0.00247183)
(-1.83399e-19 -5.51944e-20 -0.00217025)
(-1.36015e-19 -7.39626e-20 -0.00187098)
(-1.16147e-19 -6.62945e-20 -0.0015745)
(-1.06273e-19 -4.26736e-20 -0.00128109)
(-7.97506e-20 -2.05345e-20 -0.000990862)
(-2.68941e-20 -5.54691e-21 -0.00070387)
(1.40329e-20 3.0337e-20 -0.000420109)
(-1.36185e-20 -2.70333e-20 -0.000139554)
(-6.89397e-19 2.91755e-19 -0.0128483)
(-5.66108e-19 9.84372e-20 -0.0127965)
(-4.59985e-19 -9.36014e-20 -0.0127443)
(-4.19844e-19 -2.08835e-19 -0.0126916)
(-3.58688e-19 -2.92869e-19 -0.0126386)
(-2.51419e-19 -3.67388e-19 -0.0125851)
(-1.62181e-19 -4.02225e-19 -0.0125312)
(-2.76161e-19 -2.84195e-19 -0.0124769)
(-4.3039e-19 -1.54357e-19 -0.012422)
(-6.94329e-19 5.69353e-20 -0.0123667)
(-9.0317e-19 2.41869e-19 -0.0123108)
(-8.39022e-19 2.50435e-19 -0.0122544)
(-9.04054e-19 3.26232e-19 -0.0121975)
(-1.07322e-18 4.44681e-19 -0.01214)
(-1.12593e-18 5.28277e-19 -0.012082)
(-1.11524e-18 5.84001e-19 -0.0120233)
(-1.17081e-18 6.7255e-19 -0.0119641)
(-1.23532e-18 7.55324e-19 -0.0119042)
(-1.31713e-18 8.54605e-19 -0.0118438)
(-1.49413e-18 1.01842e-18 -0.0117826)
(-1.63406e-18 1.15651e-18 -0.0117208)
(-1.61762e-18 1.20639e-18 -0.0116584)
(-1.4373e-18 1.14491e-18 -0.0115952)
(-1.17684e-18 1.01645e-18 -0.0115313)
(-1.00775e-18 9.27468e-19 -0.0114666)
(-9.64592e-19 9.03146e-19 -0.0114011)
(-8.12979e-19 8.07047e-19 -0.0113349)
(-5.07693e-19 6.10813e-19 -0.0112678)
(-3.50363e-19 4.97349e-19 -0.0111998)
(-5.2764e-19 5.59084e-19 -0.0111309)
(-7.42432e-19 6.23901e-19 -0.0110611)
(-6.39563e-19 4.8007e-19 -0.0109904)
(-5.05612e-19 3.16709e-19 -0.0109186)
(-5.60309e-19 2.7282e-19 -0.0108458)
(-5.31297e-19 1.67771e-19 -0.0107719)
(-3.22309e-19 -5.67669e-20 -0.0106968)
(-1.23229e-19 -2.55443e-19 -0.0106206)
(-2.8694e-20 -3.63282e-19 -0.0105432)
(-9.44685e-20 -3.66553e-19 -0.0104644)
(-1.16008e-19 -4.0158e-19 -0.0103844)
(-1.01353e-19 -4.69097e-19 -0.0103029)
(-2.5295e-19 -4.20405e-19 -0.01022)
(-4.04548e-19 -3.47639e-19 -0.0101355)
(-4.57401e-19 -3.21098e-19 -0.0100495)
(-4.34828e-19 -3.43594e-19 -0.00996172)
(-4.84021e-19 -3.08419e-19 -0.00987222)
(-6.90984e-19 -1.68414e-19 -0.00978088)
(-8.73367e-19 -5.77549e-20 -0.0096876)
(-8.31008e-19 -1.03568e-19 -0.00959228)
(-6.14876e-19 -2.45393e-19 -0.00949482)
(-5.13983e-19 -3.1262e-19 -0.0093951)
(-5.82289e-19 -2.91068e-19 -0.00929301)
(-5.94382e-19 -3.18599e-19 -0.00918842)
(-6.34589e-19 -3.13582e-19 -0.00908119)
(-7.10255e-19 -2.8504e-19 -0.00897116)
(-6.99391e-19 -3.14175e-19 -0.00885819)
(-6.59062e-19 -3.66929e-19 -0.0087421)
(-6.69111e-19 -3.79466e-19 -0.00862271)
(-7.2632e-19 -3.59585e-19 -0.00849982)
(-8.46526e-19 -3.02706e-19 -0.00837323)
(-1.00339e-18 -2.23945e-19 -0.00824272)
(-9.99099e-19 -2.49712e-19 -0.00810804)
(-8.80856e-19 -3.52386e-19 -0.00796894)
(-8.19115e-19 -4.24365e-19 -0.00782515)
(-8.1476e-19 -4.65252e-19 -0.00767639)
(-8.37908e-19 -4.91951e-19 -0.00752234)
(-8.82976e-19 -4.98861e-19 -0.00736268)
(-8.84859e-19 -5.27781e-19 -0.00719709)
(-8.29259e-19 -5.87438e-19 -0.0070252)
(-8.02149e-19 -6.20331e-19 -0.00684665)
(-8.02974e-19 -6.29194e-19 -0.00666101)
(-8.03334e-19 -6.35386e-19 -0.00646764)
(-8.34226e-19 -6.22994e-19 -0.00626572)
(-8.57818e-19 -6.15487e-19 -0.00605458)
(-8.35691e-19 -6.31167e-19 -0.00583368)
(-8.30114e-19 -6.28338e-19 -0.00560256)
(-8.43234e-19 -6.10418e-19 -0.00536089)
(-8.14131e-19 -6.18411e-19 -0.00510853)
(-7.01863e-19 -6.7777e-19 -0.00484559)
(-5.63838e-19 -7.49135e-19 -0.00457255)
(-4.59857e-19 -7.89198e-19 -0.00429024)
(-4.40927e-19 -7.71339e-19 -0.00399991)
(-4.69329e-19 -7.18611e-19 -0.00370314)
(-4.913e-19 -6.64187e-19 -0.00340172)
(-4.86938e-19 -6.20676e-19 -0.00309752)
(-4.64569e-19 -5.84714e-19 -0.00279224)