/*--------------------------------*- C++ -*----------------------------------*\
  =========                 |
  \\      /  F ield         | OpenFOAM: The Open Source CFD Toolbox
   \\    /   O peration     | Website:  https://openfoam.org
    \\  /    A nd           | Version:  7
     \\/     M anipulation  |
\*---------------------------------------------------------------------------*/
FoamFile
{
    version     2.0;
    format      ascii;
    class       volScalarField;
    location    "132000";
    object      omega;
}
// * * * * * * * * * * * * * * * * * * * * * * * * * * * * * * * * * * * * * //

dimensions      [0 0 -1 0 0 0 0];

internalField   nonuniform List<scalar> 
4844
(
0.0344778
0.0346355
0.0348086
0.035121
0.0352815
0.0354576
0.0356491
0.0358561
0.0360782
0.0363153
0.0365672
0.0357768
0.0359401
0.0361193
0.0363142
0.0365246
0.0367505
0.0369917
0.0372478
0.0375187
0.037804
0.0381036
0.0364455
0.0366116
0.0367938
0.036992
0.037206
0.0374357
0.0376808
0.0379412
0.0382165
0.0385066
0.0388111
0.0391297
0.039462
0.0398077
0.0401664
0.0405383
0.037127
0.0372959
0.0374811
0.0376826
0.0379002
0.0381337
0.0383828
0.0386475
0.0389273
0.0392221
0.0395315
0.0398552
0.0401928
0.040544
0.0409083
0.041286
0.0378215
0.0379931
0.0381815
0.0383863
0.0386074
0.0388447
0.0390979
0.0393668
0.0396512
0.0399507
0.040265
0.0405938
0.0409368
0.0412935
0.0416636
0.0420471
0.0387035
0.0388949
0.039103
0.0393277
0.0395689
0.0398261
0.0400994
0.0403883
0.0406925
0.0410118
0.0413459
0.0416942
0.0420565
0.0424323
0.0428217
0.0394271
0.0396216
0.039833
0.0400614
0.0403063
0.0405677
0.0408453
0.0411388
0.0414478
0.0417722
0.0421114
0.0424652
0.0428331
0.0432148
0.0436102
0.0401641
0.0403617
0.0405765
0.0408085
0.0410573
0.0413229
0.0416048
0.0419029
0.0422168
0.0425462
0.0428908
0.0432501
0.0436237
0.0440112
0.0444127
0.0407318
0.0409147
0.0411154
0.0413336
0.0415692
0.041822
0.0420917
0.0423781
0.0426809
0.0429997
0.0433342
0.0436841
0.044049
0.0444284
0.0448219
0.0452295
0.0414932
0.0416791
0.0418829
0.0421046
0.0423439
0.0426006
0.0428746
0.0431654
0.0434729
0.0437967
0.0441365
0.0444918
0.0448623
0.0452476
0.0456471
0.046061
0.0422687
0.0424574
0.0426645
0.0428896
0.0431327
0.0433934
0.0436716
0.043967
0.0442793
0.0446081
0.0449532
0.045314
0.0456903
0.0460815
0.0464872
0.0469074
0.0430584
0.0432501
0.0434603
0.043689
0.0439358
0.0442007
0.0444832
0.0447832
0.0451003
0.0454343
0.0457846
0.0461511
0.0465332
0.0469304
0.0473424
0.0477691
0.043687
0.0438626
0.0440573
0.0442708
0.044503
0.0447537
0.0450226
0.0453096
0.0456142
0.0459363
0.0462754
0.0466312
0.0470033
0.0473913
0.0477948
0.0482131
0.0486464
0.0445032
0.0446816
0.0448792
0.0450961
0.0453319
0.0455865
0.0458596
0.046151
0.0464604
0.0467875
0.0471319
0.0474932
0.0478711
0.0482652
0.0486748
0.0490996
0.0495396
0.0451731
0.0453345
0.0455156
0.0457164
0.0459366
0.0461761
0.0464346
0.046712
0.0470079
0.0473221
0.0476543
0.0480041
0.048371
0.0487548
0.049155
0.049571
0.0500024
0.0504492
0.0460173
0.0461811
0.046365
0.0465689
0.0467925
0.0470358
0.0472983
0.04758
0.0478806
0.0481997
0.048537
0.0488923
0.049265
0.0496547
0.0500611
0.0504837
0.0509218
0.0513756
0.0468771
0.0470435
0.0472302
0.0474373
0.0476644
0.0479114
0.0481781
0.0484642
0.0487694
0.0490935
0.0494361
0.0497969
0.0501754
0.0505713
0.0509841
0.0514132
0.0518583
0.0523191
0.0477529
0.0479218
0.0481115
0.0483218
0.0485525
0.0488033
0.0490742
0.0493647
0.0496748
0.0500039
0.050352
0.0507184
0.0511029
0.051505
0.0519243
0.0523602
0.0528122
0.0532803
0.0486451
0.0488167
0.0490093
0.0492229
0.0494571
0.0497119
0.049987
0.0502822
0.0505971
0.0509314
0.0512849
0.0516572
0.0520477
0.0524562
0.0528821
0.0533249
0.0537841
0.0542596
0.0495541
0.0497284
0.0499241
0.0501409
0.0503789
0.0506377
0.0509171
0.0512169
0.0515368
0.0518764
0.0522355
0.0526136
0.0530104
0.0534254
0.053858
0.0543079
0.0547744
0.0552575
0.0504804
0.0506574
0.0508561
0.0510764
0.0513181
0.051581
0.0518648
0.0521694
0.0524943
0.0528394
0.0532042
0.0535883
0.0539914
0.054413
0.0548526
0.0553097
0.0557837
0.0562745
0.0514243
0.0516041
0.0518059
0.0520297
0.0522752
0.0525423
0.0528306
0.05314
0.0534702
0.0538207
0.0541914
0.0545817
0.0549913
0.0554196
0.0558663
0.0563307
0.0568124
0.0573112
0.0523863
0.052569
0.052774
0.0530014
0.0532508
0.0535221
0.0538151
0.0541294
0.0544649
0.0548211
0.0551977
0.0555943
0.0560105
0.0564458
0.0568997
0.0573716
0.0578611
0.058368
0.053367
0.0535526
0.0537609
0.0539919
0.0542453
0.054521
0.0548186
0.055138
0.0554789
0.0558408
0.0562236
0.0566266
0.0570496
0.0574919
0.0579532
0.0584329
0.0589304
0.0594456
0.0543669
0.0545554
0.0547671
0.0550018
0.0552593
0.0555394
0.0558418
0.0561664
0.0565128
0.0568807
0.0572696
0.0576793
0.0581091
0.0585588
0.0590277
0.0595152
0.0600209
0.0605447
0.0553865
0.055578
0.0557931
0.0560316
0.0562932
0.0565779
0.0568853
0.0572151
0.0575672
0.0579411
0.0583364
0.0587528
0.0591898
0.0596469
0.0601235
0.0606192
0.0611333
0.0616657
0.0564263
0.0566209
0.0568395
0.0570819
0.0573478
0.0576371
0.0579495
0.0582848
0.0586427
0.0590227
0.0594246
0.0598479
0.0602921
0.0607568
0.0612414
0.0617454
0.0622681
0.0628095
0.057487
0.0576848
0.0579069
0.0581533
0.0584236
0.0587176
0.0590352
0.0593761
0.0597398
0.0601262
0.0605348
0.0609652
0.0614168
0.0618893
0.0623821
0.0628945
0.063426
0.0639766
0.0585691
0.0587702
0.058996
0.0592464
0.0595212
0.0598201
0.060143
0.0604895
0.0608594
0.0612522
0.0616677
0.0621053
0.0625646
0.063045
0.0635461
0.0640673
0.0646079
0.0651678
0.0594942
0.0596734
0.0598778
0.0601074
0.0603619
0.0606413
0.0609452
0.0612735
0.0616258
0.0620019
0.0624014
0.0628239
0.0632689
0.063736
0.0642247
0.0647344
0.0652644
0.0658143
0.0663839
0.0606183
0.0608005
0.0610083
0.0612417
0.0615005
0.0617846
0.0620936
0.0624274
0.0627857
0.0631682
0.0635745
0.0640042
0.0644569
0.064932
0.0654291
0.0659475
0.0664867
0.0670461
0.0676256
0.061607
0.0617659
0.0619511
0.0621624
0.0623997
0.0626629
0.0629518
0.0632661
0.0636056
0.06397
0.064359
0.0647723
0.0652094
0.0656699
0.0661532
0.0666589
0.0671864
0.067735
0.0683041
0.0688937
0.062776
0.0629376
0.0631259
0.0633408
0.0635822
0.0638499
0.0641436
0.0644633
0.0648087
0.0651794
0.0655751
0.0659955
0.0664402
0.0669087
0.0674005
0.067915
0.0684517
0.06901
0.0695892
0.0701892
0.0639699
0.0641343
0.0643258
0.0645444
0.0647899
0.0650621
0.065361
0.0656862
0.0660375
0.0664146
0.0668173
0.067245
0.0676975
0.0681742
0.0686747
0.0691983
0.0697445
0.0703127
0.0709021
0.0715128
0.0651895
0.0653567
0.0655515
0.0657738
0.0660236
0.0663006
0.0666046
0.0669355
0.0672929
0.0676767
0.0680864
0.0685217
0.0689821
0.0694673
0.0699767
0.0705096
0.0710655
0.0716439
0.0722439
0.0728656
0.0664356
0.0666057
0.0668039
0.0670301
0.0672842
0.067566
0.0678754
0.0682121
0.0685758
0.0689663
0.0693833
0.0698263
0.070295
0.0707888
0.0713073
0.0718498
0.0724158
0.0730046
0.0736155
0.0742484
0.0677091
0.0678821
0.0680838
0.068314
0.0685726
0.0688593
0.0691742
0.0695168
0.069887
0.0702845
0.070709
0.0711599
0.071637
0.0721398
0.0726676
0.07322
0.0737962
0.0743957
0.0750178
0.0756623
0.0690108
0.069187
0.0693922
0.0696265
0.0698896
0.0701815
0.070502
0.0708507
0.0712276
0.0716322
0.0720643
0.0725235
0.0730092
0.0735211
0.0740586
0.0746211
0.0752079
0.0758184
0.0764519
0.0771083
0.0703419
0.0705211
0.07073
0.0709685
0.0712364
0.0715335
0.0718597
0.0722148
0.0725985
0.0730105
0.0734504
0.0739179
0.0744126
0.0749339
0.0754813
0.0760541
0.0766518
0.0772737
0.0779189
0.0785876
0.0717032
0.0718856
0.0720983
0.0723411
0.0726138
0.0729163
0.0732485
0.07361
0.0740007
0.0744202
0.0748682
0.0753444
0.0758482
0.0763792
0.0769367
0.0775203
0.0781291
0.0787626
0.07942
0.0801013
0.0730957
0.0732815
0.0734981
0.0737452
0.0740229
0.074331
0.0746692
0.0750374
0.0754353
0.0758626
0.076319
0.076804
0.0773172
0.0778581
0.0784261
0.0790206
0.079641
0.0802864
0.0809563
0.0816505
0.0745207
0.0747099
0.0749304
0.0751821
0.075465
0.0757787
0.0761232
0.0764982
0.0769035
0.0773388
0.0778037
0.0782978
0.0788207
0.0793718
0.0799506
0.0805564
0.0811886
0.0818464
0.0825291
0.0832366
0.0759792
0.0761719
0.0763965
0.0766529
0.076941
0.0772606
0.0776115
0.0779936
0.0784065
0.0788499
0.0793236
0.0798271
0.0803599
0.0809215
0.0815114
0.0821289
0.0827732
0.0834437
0.0841395
0.0848607
0.0774723
0.0776687
0.0778975
0.0781587
0.0784522
0.0787778
0.0791354
0.0795247
0.0799454
0.0803973
0.08088
0.0813931
0.0819362
0.0825086
0.0831099
0.0837393
0.0843962
0.0850797
0.0857891
0.0865244
0.0790015
0.0792015
0.0794346
0.0797008
0.0799999
0.0803317
0.0806961
0.0810928
0.0815216
0.0819822
0.0824742
0.0829972
0.0835508
0.0841344
0.0847474
0.0853891
0.0860589
0.0867558
0.0874793
0.088229
0.0805679
0.0807717
0.0810093
0.0812806
0.0815854
0.0819236
0.082295
0.0826994
0.0831365
0.083606
0.0841076
0.0846408
0.0852052
0.0858003
0.0864253
0.0870798
0.0877628
0.0884736
0.0892114
0.0899761
0.0821729
0.0823807
0.0826229
0.0828994
0.0832101
0.0835548
0.0839334
0.0843457
0.0847914
0.0852701
0.0857815
0.0863253
0.0869008
0.0875077
0.0881452
0.0888127
0.0895093
0.0902344
0.0909871
0.0917671
0.083818
0.0840298
0.0842767
0.0845586
0.0848754
0.0852269
0.085613
0.0860334
0.0864878
0.086976
0.0874976
0.0880522
0.0886392
0.0892582
0.0899085
0.0905895
0.0913002
0.09204
0.0928079
0.0936038
0.0855047
0.0857206
0.0859724
0.0862598
0.0865829
0.0869414
0.0873351
0.0877639
0.0882274
0.0887253
0.0892574
0.0898231
0.090422
0.0910535
0.091717
0.0924118
0.0931371
0.093892
0.0946757
0.0954878
0.0872344
0.0874547
0.0877115
0.0880047
0.0883342
0.0886998
0.0891014
0.0895388
0.0900116
0.0905197
0.0910625
0.0916397
0.0922508
0.0928952
0.0935723
0.0942814
0.0950216
0.0957922
0.0965921
0.097421
0.089009
0.0892337
0.0894956
0.0897947
0.0901309
0.0905039
0.0909137
0.0913599
0.0918424
0.0923608
0.0929147
0.0935037
0.0941274
0.0947851
0.0954762
0.0962001
0.0969557
0.0977424
0.0985591
0.0994053
0.0908301
0.0910593
0.0913266
0.0916318
0.0919748
0.0923554
0.0927736
0.093229
0.0937214
0.0942505
0.0948158
0.0954171
0.0960537
0.0967251
0.0974307
0.0981697
0.0989413
0.0997446
0.100579
0.101443
0.0926995
0.0929334
0.0932062
0.0935176
0.0938677
0.0942562
0.094683
0.0951479
0.0956505
0.0961906
0.0967678
0.0973816
0.0980316
0.0987172
0.0994377
0.100192
0.10098
0.101801
0.102653
0.103535
0.0946191
0.0948579
0.0951363
0.0954543
0.0958116
0.0962083
0.096644
0.0971186
0.0976318
0.0981832
0.0987726
0.0993994
0.100063
0.100763
0.101499
0.10227
0.103075
0.103913
0.104784
0.105685
0.0978086
0.0982136
0.0986585
0.0991431
0.0996672
0.10023
0.100832
0.101473
0.102151
0.102866
0.103618
0.104405
0.105228
0.106084
0.106973
0.107894
0.101759
0.102334
0.102949
0.103603
0.104296
0.105027
0.105795
0.1066
0.10744
0.108316
0.109225
0.110166
0.0436101
0.0432147
0.0444126
0.0440111
0.0452295
0.0448218
0.046061
0.0456471
0.0452475
0.0469074
0.0464871
0.0460814
0.047769
0.0473423
0.0469304
0.0465331
0.0486463
0.048213
0.0477947
0.0473913
0.0495396
0.0490996
0.0486748
0.0482651
0.0504492
0.0500023
0.0495709
0.0491549
0.0487547
0.0513755
0.0509218
0.0504836
0.0500611
0.0496546
0.0523191
0.0518582
0.0514132
0.050984
0.0505712
0.0532803
0.0528121
0.0523601
0.0519242
0.0515049
0.0542596
0.053784
0.0533248
0.052882
0.0524561
0.0552575
0.0547743
0.0543078
0.0538579
0.0534253
0.0562745
0.0557836
0.0553096
0.0548525
0.0544129
0.0539913
0.0573111
0.0568123
0.0563307
0.0558662
0.0554195
0.0549912
0.058368
0.057861
0.0573716
0.0568996
0.0564457
0.0560104
0.0555942
0.0594456
0.0589304
0.0584329
0.0579532
0.0574919
0.0570495
0.0566265
0.0562234
0.0605446
0.0600209
0.0595152
0.0590276
0.0585587
0.058109
0.0576792
0.0572695
0.0568806
0.0616656
0.0611332
0.0606191
0.0601234
0.0596468
0.0591897
0.0587527
0.0583363
0.057941
0.0575671
0.0628094
0.062268
0.0617453
0.0612413
0.0607567
0.060292
0.0598478
0.0594245
0.0590226
0.0586426
0.0639765
0.063426
0.0628944
0.062382
0.0618892
0.0614167
0.0609651
0.0605347
0.0601261
0.0597397
0.0651677
0.0646078
0.0640672
0.0635461
0.063045
0.0625645
0.0621052
0.0616676
0.0612521
0.0608593
0.0663838
0.0658142
0.0652644
0.0647343
0.0642246
0.063736
0.0632688
0.0628238
0.0624013
0.0620018
0.0676255
0.0670461
0.0664867
0.0659474
0.065429
0.0649319
0.0644568
0.0640041
0.0635744
0.0631681
0.0688936
0.0683041
0.0677349
0.0671863
0.0666588
0.0661531
0.0656698
0.0652093
0.0647722
0.0643589
0.0701891
0.0695891
0.0690099
0.0684517
0.067915
0.0674004
0.0669086
0.0664401
0.0659954
0.065575
0.0715127
0.070902
0.0703126
0.0697444
0.0691982
0.0686746
0.0681741
0.0676974
0.0672449
0.0668172
0.0728655
0.0722438
0.0716438
0.0710655
0.0705095
0.0699765
0.0694672
0.068982
0.0685216
0.0680863
0.0742483
0.0736154
0.0730045
0.0724157
0.0718497
0.0713072
0.0707887
0.0702949
0.0698262
0.0693832
0.0756622
0.0750177
0.0743956
0.0737962
0.0732199
0.0726675
0.0721397
0.0716369
0.0711598
0.0707088
0.0771082
0.0764518
0.0758183
0.0752078
0.074621
0.0740585
0.073521
0.0730091
0.0725233
0.0720642
0.0436101
0.0444126
0.0452295
0.046061
0.0469074
0.047769
0.0486463
0.0495396
0.0504492
0.0513755
0.0523191
0.0532803
0.0542596
0.0552575
0.0562745
0.0573111
0.058368
0.0594456
0.0605446
0.0616657
0.0628094
0.0639765
0.0651677
0.0663838
0.0676255
0.0688936
0.0701891
0.0715127
0.0728655
0.0742483
0.0756622
0.0771083
0.0432147
0.0440112
0.0448219
0.0456471
0.0464871
0.0473423
0.048213
0.0490996
0.0500024
0.0509218
0.0518582
0.0528122
0.053784
0.0547744
0.0557836
0.0568123
0.0578611
0.0589304
0.0600209
0.0611332
0.062268
0.063426
0.0646078
0.0658143
0.0670461
0.0683041
0.0695891
0.0709021
0.0722439
0.0736154
0.0750177
0.0764519
0.0779189
0.0428331
0.0436237
0.0444284
0.0452475
0.0460814
0.0469304
0.0477947
0.0486748
0.049571
0.0504836
0.0514132
0.0523601
0.0533248
0.0543078
0.0553096
0.0563307
0.0573716
0.0584329
0.0595152
0.0606191
0.0617453
0.0628945
0.0640672
0.0652644
0.0664867
0.0677349
0.06901
0.0703126
0.0716438
0.0730045
0.0743957
0.0758184
0.0772736
0.0787626
0.0802864
0.0818463
0.0834436
0.0850797
0.0424652
0.04325
0.044049
0.0448623
0.0456902
0.0465331
0.0473913
0.0482651
0.0491549
0.0500611
0.0509841
0.0519242
0.052882
0.053858
0.0548526
0.0558663
0.0568996
0.0579532
0.0590276
0.0601235
0.0612414
0.062382
0.0635461
0.0647343
0.0659475
0.0671863
0.0684517
0.0697445
0.0710655
0.0724158
0.0737962
0.0752079
0.0766518
0.0781291
0.0796409
0.0811885
0.0827732
0.0843961
0.0421114
0.0428907
0.0436841
0.0444918
0.045314
0.0461511
0.0470033
0.0478711
0.0487548
0.0496547
0.0505713
0.051505
0.0524562
0.0534253
0.054413
0.0554196
0.0564457
0.0574919
0.0585588
0.0596468
0.0607568
0.0618893
0.063045
0.0642247
0.0654291
0.0666589
0.067915
0.0691983
0.0705096
0.0718498
0.07322
0.0746211
0.0760541
0.0775202
0.0790206
0.0805564
0.0821288
0.0837393
0.0417721
0.0425462
0.0433342
0.0441364
0.0449531
0.0457846
0.0466312
0.0474932
0.048371
0.0492649
0.0501754
0.0511029
0.0520477
0.0530104
0.0539914
0.0549912
0.0560104
0.0570495
0.0581091
0.0591898
0.0602921
0.0614168
0.0625646
0.063736
0.064932
0.0661532
0.0674005
0.0686747
0.0699766
0.0713073
0.0726676
0.0740586
0.0754813
0.0769367
0.0784261
0.0799506
0.0815114
0.0831099
0.0847474
0.0414478
0.0422168
0.0429997
0.0437967
0.0446081
0.0454343
0.0462754
0.0471319
0.048004
0.0488922
0.0497969
0.0507184
0.0516571
0.0526136
0.0535883
0.0545817
0.0555943
0.0566266
0.0576792
0.0587528
0.0598479
0.0609652
0.0621053
0.0632689
0.0644569
0.0656699
0.0669087
0.0681742
0.0694673
0.0707888
0.0721398
0.0735211
0.0749339
0.0763791
0.077858
0.0793718
0.0809215
0.0825086
0.0841344
0.0411388
0.0419029
0.0426808
0.0434729
0.0442793
0.0451003
0.0459363
0.0467875
0.0476543
0.048537
0.0494361
0.0503519
0.0512849
0.0522355
0.0532042
0.0541914
0.0551977
0.0562235
0.0572696
0.0583364
0.0594246
0.0605348
0.0616676
0.0628239
0.0640042
0.0652094
0.0664402
0.0676975
0.0689821
0.070295
0.071637
0.0730092
0.0744126
0.0758482
0.0773171
0.0788206
0.0803599
0.0819361
0.0835508
0.0408453
0.0416048
0.0423781
0.0431654
0.043967
0.0447832
0.0456142
0.0464604
0.0473221
0.0481997
0.0490935
0.0500039
0.0509314
0.0518764
0.0528394
0.0538207
0.054821
0.0558408
0.0568807
0.0579411
0.0590227
0.0601262
0.0612522
0.0624014
0.0635745
0.0647723
0.0659955
0.067245
0.0685217
0.0698263
0.0711599
0.0725234
0.0739179
0.0753444
0.0768039
0.0782978
0.0798271
0.0813931
0.0829972
0.0405677
0.0413228
0.0420917
0.0428746
0.0436716
0.0444832
0.0453096
0.046151
0.0470079
0.0478806
0.0487694
0.0496748
0.0505971
0.0515368
0.0524943
0.0534702
0.0544648
0.0554789
0.0565128
0.0575672
0.0586427
0.0597398
0.0608594
0.0620019
0.0631682
0.064359
0.0655751
0.0668173
0.0680864
0.0693833
0.0707089
0.0720643
0.0734504
0.0748682
0.0763189
0.0778036
0.0793236
0.08088
0.0824742
0.0403063
0.0410573
0.041822
0.0426006
0.0433934
0.0442007
0.0450226
0.0458596
0.046712
0.04758
0.0484642
0.0493647
0.0502822
0.0512169
0.0521693
0.05314
0.0541294
0.055138
0.0561664
0.0572152
0.0582848
0.0593761
0.0604895
0.0616258
0.0627857
0.06397
0.0651793
0.0664146
0.0676766
0.0689663
0.0702845
0.0716322
0.0730104
0.0744202
0.0758626
0.0773388
0.0788499
0.0803973
0.0819822
0.0408085
0.0415692
0.0423439
0.0431327
0.0439358
0.0447537
0.0455865
0.0464346
0.0472983
0.0481781
0.0490742
0.049987
0.0509171
0.0518648
0.0528306
0.0538151
0.0548186
0.0558418
0.0568853
0.0579495
0.0590352
0.060143
0.0612735
0.0624274
0.0636055
0.0648086
0.0660375
0.0672929
0.0685758
0.069887
0.0712276
0.0725984
0.0740006
0.0754353
0.0769035
0.0784064
0.0799454
0.0815216
0.0413336
0.0421046
0.0428896
0.043689
0.044503
0.0453319
0.046176
0.0470358
0.0479114
0.0488033
0.0497119
0.0506377
0.051581
0.0525423
0.0535221
0.054521
0.0555394
0.0565779
0.0576371
0.0587176
0.0598201
0.0609452
0.0620936
0.063266
0.0644633
0.0656862
0.0669354
0.068212
0.0695168
0.0708507
0.0722148
0.07361
0.0750374
0.0764982
0.0779935
0.0795246
0.0810927
0.0411154
0.0418829
0.0426645
0.0434603
0.0442708
0.0450961
0.0459366
0.0467925
0.0476644
0.0485525
0.0494571
0.0503789
0.0513181
0.0522752
0.0532508
0.0542453
0.0552593
0.0562932
0.0573478
0.0584235
0.0595211
0.0606412
0.0617845
0.0629517
0.0641436
0.0653609
0.0666046
0.0678753
0.0691741
0.0705019
0.0718597
0.0732484
0.0746692
0.0761232
0.0776115
0.0791353
0.080696
0.0416791
0.0424574
0.0432501
0.0440572
0.0448792
0.0457163
0.0465689
0.0474373
0.0483218
0.0492229
0.0501409
0.0510764
0.0520297
0.0530014
0.0539919
0.0550018
0.0560316
0.0570819
0.0581532
0.0592464
0.0603619
0.0615005
0.0626629
0.0638498
0.0650621
0.0663005
0.067566
0.0688593
0.0701815
0.0715335
0.0729163
0.074331
0.0757787
0.0772605
0.0787778
0.0803316
0.0414933
0.0422687
0.0430584
0.0438626
0.0446816
0.0455156
0.046365
0.0472302
0.0481115
0.0490093
0.0499241
0.0508561
0.0518059
0.0527741
0.0537609
0.0547671
0.0557931
0.0568395
0.0579069
0.058996
0.0601073
0.0612417
0.0623997
0.0635822
0.0647898
0.0660236
0.0672842
0.0685725
0.0698896
0.0712363
0.0726137
0.0740229
0.0754649
0.0769409
0.0784521
0.0799998
0.0420985
0.0428855
0.043687
0.0445032
0.0453345
0.0461811
0.0470435
0.0479219
0.0488167
0.0497284
0.0506574
0.0516041
0.052569
0.0535526
0.0545554
0.055578
0.0566209
0.0576848
0.0587702
0.0598778
0.0610083
0.0621624
0.0633408
0.0645443
0.0657738
0.0670301
0.0683139
0.0696264
0.0709684
0.072341
0.0737452
0.0751821
0.0766528
0.0781586
0.0797007
0.0427314
0.0435305
0.0443444
0.0451732
0.0460173
0.0468771
0.0477529
0.0486451
0.0495541
0.0504804
0.0514243
0.0523864
0.0533671
0.0543669
0.0553865
0.0564263
0.0574869
0.0585691
0.0596734
0.0608005
0.0619511
0.0631259
0.0643258
0.0655515
0.0668038
0.0680838
0.0693922
0.07073
0.0720983
0.073498
0.0749304
0.0763964
0.0778974
0.0794346
0.0425964
0.0433934
0.0442051
0.0450317
0.0458737
0.0467312
0.0476048
0.0484947
0.0494014
0.0503252
0.0512667
0.0522263
0.0532044
0.0542017
0.0552186
0.0562557
0.0573136
0.0583929
0.0594943
0.0606184
0.0617659
0.0629376
0.0641343
0.0653567
0.0666056
0.0678821
0.0691869
0.0705211
0.0718856
0.0732815
0.0747098
0.0761718
0.0776686
0.0792014
0.0424805
0.0432757
0.0440855
0.0449103
0.0457504
0.046606
0.0474776
0.0483656
0.0492702
0.050192
0.0511314
0.0520889
0.0530648
0.0540599
0.0550745
0.0561093
0.0571648
0.0582417
0.0593405
0.0604621
0.061607
0.062776
0.0639699
0.0651895
0.0664356
0.0677091
0.0690108
0.0703419
0.0717031
0.0730957
0.0745207
0.0759791
0.0774723
0.0790015
0.0423837
0.0431774
0.0439858
0.044809
0.0456475
0.0465016
0.0473715
0.0482578
0.0491608
0.0500809
0.0510186
0.0519742
0.0529484
0.0539416
0.0549543
0.0559871
0.0570406
0.0581155
0.0592123
0.0603317
0.0614744
0.0626412
0.0638328
0.06505
0.0662937
0.0675647
0.0688639
0.0701924
0.071551
0.0729408
0.0743629
0.0758184
0.0773086
0.0788347
0.0430988
0.0439059
0.0447279
0.0455651
0.0464179
0.0472866
0.0481716
0.0490732
0.0499919
0.0509282
0.0518824
0.0528551
0.0538468
0.054858
0.0558893
0.0569412
0.0580145
0.0591096
0.0602273
0.0613683
0.0625333
0.0637231
0.0649384
0.0661801
0.0674492
0.0687464
0.0700727
0.0714291
0.0728167
0.0742366
0.0756898
0.0771776
0.0787012
0.0430397
0.0438459
0.044667
0.0455033
0.0463551
0.0472228
0.0481068
0.0490074
0.0499251
0.0508603
0.0518135
0.0527851
0.0537757
0.0547858
0.0558159
0.0568666
0.0579386
0.0590325
0.060149
0.0612886
0.0624523
0.0636407
0.0648546
0.0660949
0.0673625
0.0686581
0.0699829
0.0713377
0.0727237
0.0741418
0.0755933
0.0770793
0.078601
0.0438059
0.0446264
0.045462
0.0463132
0.0471803
0.0480636
0.0489635
0.0498806
0.0508151
0.0517675
0.0527384
0.0537283
0.0547376
0.0557669
0.0568169
0.0578881
0.0589811
0.0600967
0.0612355
0.0623983
0.0635858
0.0647988
0.0660381
0.0673046
0.0685993
0.069923
0.0712768
0.0726616
0.0740786
0.0755289
0.0770137
0.0785342
0.0437859
0.044606
0.0454414
0.0462923
0.047159
0.048042
0.0489416
0.0498583
0.0507924
0.0517445
0.0527151
0.0537045
0.0547135
0.0557424
0.056792
0.0578628
0.0589554
0.0600706
0.0612089
0.0623713
0.0635583
0.0647708
0.0660097
0.0672757
0.0685698
0.069893
0.0712463
0.0726306
0.074047
0.0754967
0.0769809
0.0785008
0.044606
0.0454414
0.0462922
0.047159
0.048042
0.0489416
0.0498583
0.0507924
0.0517445
0.0527151
0.0537045
0.0547135
0.0557424
0.056792
0.0578628
0.0589554
0.0600706
0.0612089
0.0623713
0.0635583
0.0647708
0.0660097
0.0672757
0.0685698
0.069893
0.0712463
0.0726306
0.074047
0.0754967
0.0769809
0.0785008
0.0446263
0.045462
0.0463132
0.0471803
0.0480636
0.0489635
0.0498806
0.0508151
0.0517675
0.0527384
0.0537282
0.0547376
0.0557669
0.0568169
0.0578881
0.0589811
0.0600967
0.0612355
0.0623983
0.0635857
0.0647987
0.0660381
0.0673046
0.0685993
0.069923
0.0712767
0.0726616
0.0740786
0.0755289
0.0770137
0.0785342
0.044667
0.0455033
0.0463551
0.0472228
0.0481068
0.0490074
0.0499251
0.0508603
0.0518135
0.0527851
0.0537757
0.0547857
0.0558159
0.0568666
0.0579386
0.0590325
0.0601489
0.0612886
0.0624523
0.0636407
0.0648546
0.0660949
0.0673624
0.0686581
0.0699829
0.0713377
0.0727237
0.0741418
0.0755933
0.0770793
0.078601
0.0447279
0.0455651
0.0464179
0.0472866
0.0481715
0.0490732
0.0499919
0.0509281
0.0518824
0.0528551
0.0538468
0.054858
0.0558893
0.0569412
0.0580144
0.0591096
0.0602273
0.0613683
0.0625333
0.063723
0.0649384
0.0661801
0.0674491
0.0687463
0.0700727
0.0714291
0.0728167
0.0742366
0.0756898
0.0771776
0.0787011
0.044809
0.0456475
0.0465016
0.0473715
0.0482578
0.0491608
0.0500809
0.0510185
0.0519742
0.0529484
0.0539415
0.0549543
0.0559871
0.0570406
0.0581155
0.0592122
0.0603317
0.0614744
0.0626412
0.0638328
0.06505
0.0662937
0.0675647
0.0688639
0.0701923
0.0715509
0.0729407
0.0743629
0.0758184
0.0773086
0.0788346
0.0449103
0.0457504
0.046606
0.0474776
0.0483656
0.0492702
0.050192
0.0511314
0.0520888
0.0530648
0.0540598
0.0550745
0.0561092
0.0571648
0.0582416
0.0593405
0.060462
0.061607
0.062776
0.0639699
0.0651895
0.0664356
0.067709
0.0690108
0.0703418
0.0717031
0.0730957
0.0745206
0.0759791
0.0774723
0.0790014
0.0450317
0.0458737
0.0467312
0.0476048
0.0484947
0.0494013
0.0503252
0.0512667
0.0522262
0.0532044
0.0542017
0.0552186
0.0562557
0.0573136
0.0583929
0.0594942
0.0606183
0.0617659
0.0629376
0.0641342
0.0653566
0.0666056
0.0678821
0.0691869
0.0705211
0.0718856
0.0732815
0.0747098
0.0761718
0.0776686
0.0792014
0.0451732
0.0460173
0.0468771
0.0477529
0.0486451
0.0495541
0.0504803
0.0514243
0.0523863
0.053367
0.0543669
0.0553864
0.0564263
0.0574869
0.0585691
0.0596734
0.0608005
0.061951
0.0631259
0.0643258
0.0655515
0.0668038
0.0680838
0.0693922
0.07073
0.0720983
0.073498
0.0749304
0.0763964
0.0778974
0.0794346
0.0453345
0.0461811
0.0470434
0.0479218
0.0488167
0.0497284
0.0506574
0.0516041
0.052569
0.0535526
0.0545554
0.055578
0.0566209
0.0576848
0.0587702
0.0598778
0.0610083
0.0621624
0.0633408
0.0645443
0.0657738
0.0670301
0.068314
0.0696264
0.0709685
0.072341
0.0737452
0.0751821
0.0766528
0.0781586
0.0797008
0.0455156
0.046365
0.0472302
0.0481115
0.0490093
0.049924
0.0508561
0.0518059
0.052774
0.0537609
0.0547671
0.0557931
0.0568395
0.0579069
0.058996
0.0601073
0.0612417
0.0623997
0.0635822
0.0647898
0.0660236
0.0672842
0.0685725
0.0698896
0.0712363
0.0726138
0.0740229
0.0754649
0.0769409
0.0784521
0.0799998
0.0457163
0.0465689
0.0474373
0.0483218
0.0492229
0.0501409
0.0510764
0.0520297
0.0530014
0.0539919
0.0550018
0.0560316
0.0570818
0.0581532
0.0592464
0.0603619
0.0615005
0.0626629
0.0638498
0.0650621
0.0663005
0.067566
0.0688593
0.0701815
0.0715335
0.0729163
0.074331
0.0757787
0.0772605
0.0787778
0.0803316
0.0459366
0.0467925
0.0476644
0.0485524
0.0494571
0.0503789
0.0513181
0.0522752
0.0532508
0.0542453
0.0552592
0.0562932
0.0573478
0.0584235
0.0595211
0.0606412
0.0617845
0.0629517
0.0641436
0.0653609
0.0666046
0.0678753
0.0691741
0.0705019
0.0718597
0.0732484
0.0746692
0.0761232
0.0776115
0.0791353
0.080696
0.046176
0.0470357
0.0479114
0.0488033
0.0497119
0.0506377
0.051581
0.0525423
0.0535221
0.0545209
0.0555393
0.0565779
0.0576371
0.0587176
0.0598201
0.0609452
0.0620936
0.063266
0.0644633
0.0656861
0.0669354
0.068212
0.0695168
0.0708507
0.0722147
0.0736099
0.0750374
0.0764982
0.0779935
0.0795246
0.0810927
0.0464346
0.0472983
0.048178
0.0490741
0.049987
0.0509171
0.0518648
0.0528306
0.0538151
0.0548186
0.0558418
0.0568853
0.0579495
0.0590352
0.0601429
0.0612734
0.0624274
0.0636055
0.0648086
0.0660375
0.0672929
0.0685758
0.069887
0.0712276
0.0725984
0.0740006
0.0754353
0.0769035
0.0784064
0.0799453
0.0815215
0.046712
0.04758
0.0484641
0.0493647
0.0502821
0.0512169
0.0521693
0.05314
0.0541294
0.055138
0.0561664
0.0572151
0.0582848
0.059376
0.0604895
0.0616258
0.0627857
0.06397
0.0651793
0.0664146
0.0676766
0.0689663
0.0702845
0.0716322
0.0730104
0.0744202
0.0758626
0.0773387
0.0788499
0.0803972
0.0819821
0.0470079
0.0478806
0.0487694
0.0496748
0.0505971
0.0515368
0.0524943
0.0534702
0.0544648
0.0554789
0.0565128
0.0575672
0.0586427
0.0597398
0.0608593
0.0620019
0.0631682
0.064359
0.0655751
0.0668172
0.0680863
0.0693833
0.0707089
0.0720643
0.0734504
0.0748682
0.0763189
0.0778036
0.0793236
0.08088
0.0824741
0.0473221
0.0481997
0.0490935
0.0500039
0.0509314
0.0518764
0.0528394
0.0538207
0.054821
0.0558408
0.0568807
0.0579411
0.0590227
0.0601262
0.0612522
0.0624014
0.0635745
0.0647723
0.0659955
0.067245
0.0685216
0.0698263
0.0711599
0.0725234
0.0739179
0.0753443
0.0768039
0.0782977
0.079827
0.0813931
0.0829972
0.0476543
0.048537
0.0494361
0.0503519
0.0512849
0.0522355
0.0532042
0.0541914
0.0551977
0.0562235
0.0572696
0.0583364
0.0594246
0.0605348
0.0616677
0.0628239
0.0640042
0.0652094
0.0664402
0.0676975
0.0689821
0.070295
0.071637
0.0730092
0.0744125
0.0758481
0.0773171
0.0788206
0.0803598
0.0819361
0.0835508
0.048004
0.0488923
0.0497969
0.0507184
0.0516572
0.0526136
0.0535883
0.0545817
0.0555943
0.0566266
0.0576793
0.0587528
0.0598479
0.0609652
0.0621053
0.0632689
0.0644569
0.0656699
0.0669087
0.0681742
0.0694673
0.0707888
0.0721398
0.0735211
0.0749338
0.0763791
0.077858
0.0793717
0.0809215
0.0825086
0.0841343
0.048371
0.049265
0.0501754
0.0511029
0.0520477
0.0530104
0.0539914
0.0549913
0.0560105
0.0570496
0.0581091
0.0591898
0.0602921
0.0614168
0.0625646
0.063736
0.064932
0.0661532
0.0674005
0.0686747
0.0699766
0.0713073
0.0726676
0.0740586
0.0754812
0.0769367
0.078426
0.0799505
0.0815114
0.0831098
0.0847473
0.0487548
0.0496547
0.0505713
0.051505
0.0524562
0.0534254
0.054413
0.0554196
0.0564458
0.0574919
0.0585588
0.0596469
0.0607568
0.0618893
0.063045
0.0642247
0.0654291
0.0666589
0.067915
0.0691983
0.0705096
0.0718498
0.07322
0.0746211
0.0760541
0.0775202
0.0790206
0.0805564
0.0821288
0.0837393
0.0853891
0.0491549
0.0500611
0.0509841
0.0519242
0.0528821
0.053858
0.0548526
0.0558663
0.0568996
0.0579532
0.0590277
0.0601235
0.0612414
0.0623821
0.0635461
0.0647344
0.0659475
0.0671864
0.0684517
0.0697445
0.0710655
0.0724158
0.0737962
0.0752079
0.0766518
0.0781291
0.079641
0.0811886
0.0827732
0.0843961
0.0860588
0.0877627
0.0895093
0.0913002
0.093137
0.049571
0.0504836
0.0514132
0.0523602
0.0533249
0.0543079
0.0553096
0.0563307
0.0573716
0.0584329
0.0595152
0.0606192
0.0617454
0.0628945
0.0640673
0.0652644
0.0664867
0.067735
0.06901
0.0703126
0.0716438
0.0730045
0.0743957
0.0758184
0.0772736
0.0787626
0.0802864
0.0818463
0.0834436
0.0850797
0.0867558
0.0884735
0.0902344
0.09204
0.093892
0.0500024
0.0509218
0.0518583
0.0528122
0.0537841
0.0547744
0.0557836
0.0568124
0.0578611
0.0589304
0.0600209
0.0611333
0.0622681
0.063426
0.0646079
0.0658143
0.0670461
0.0683041
0.0695892
0.0709021
0.0722439
0.0736154
0.0750178
0.0764519
0.0779189
0.07942
0.0809563
0.082529
0.0841395
0.0857891
0.0874792
0.0892114
0.090987
0.0928079
0.0946756
0.0504492
0.0513756
0.0523191
0.0532803
0.0542596
0.0552575
0.0562745
0.0573112
0.058368
0.0594456
0.0605446
0.0616657
0.0628094
0.0639766
0.0651678
0.0663838
0.0676255
0.0688937
0.0701892
0.0715128
0.0728655
0.0742484
0.0756623
0.0771083
0.0785876
0.0801012
0.0816505
0.0832365
0.0848607
0.0865244
0.088229
0.0899761
0.0917671
0.0936038
0.0954878
0.0504492
0.0513756
0.0523191
0.0532803
0.0542596
0.0552575
0.0562745
0.0573111
0.058368
0.0594456
0.0605446
0.0616657
0.0628094
0.0639766
0.0651678
0.0663838
0.0676255
0.0688937
0.0701891
0.0715128
0.0728655
0.0742484
0.0756623
0.0771083
0.0785876
0.0801012
0.0816505
0.0832365
0.0848607
0.0865244
0.088229
0.089976
0.0917671
0.0936038
0.0954878
0.0500024
0.0509218
0.0518582
0.0528122
0.0537841
0.0547744
0.0557836
0.0568124
0.0578611
0.0589304
0.0600209
0.0611333
0.0622681