/*--------------------------------*- C++ -*----------------------------------*\
  =========                 |
  \\      /  F ield         | OpenFOAM: The Open Source CFD Toolbox
   \\    /   O peration     | Website:  https://openfoam.org
    \\  /    A nd           | Version:  7
     \\/     M anipulation  |
\*---------------------------------------------------------------------------*/
FoamFile
{
    version     2.0;
    format      ascii;
    class       volVectorField;
    location    "132000";
    object      U;
}
// * * * * * * * * * * * * * * * * * * * * * * * * * * * * * * * * * * * * * //

dimensions      [0 1 -1 0 0 0 0];

internalField   nonuniform List<vector> 
4844
(
(-3.06829e-19 3.28939e-18 -0.0150949)
(3.22563e-17 -5.61606e-18 -0.0150865)
(8.8396e-18 -1.22166e-18 -0.0150774)
(1.02299e-17 4.69192e-17 -0.0150607)
(2.4601e-17 2.61529e-18 -0.0150523)
(8.14715e-18 1.84338e-18 -0.015043)
(7.12143e-18 3.16273e-19 -0.015033)
(4.77717e-18 1.05766e-19 -0.0150222)
(4.22878e-18 -4.69055e-19 -0.0150106)
(4.02593e-18 -6.46256e-19 -0.0149982)
(2.92169e-18 -4.33794e-19 -0.0149852)
(8.12334e-18 3.65503e-17 -0.0150261)
(1.72719e-17 4.13539e-18 -0.0150176)
(7.31863e-18 3.57638e-18 -0.0150082)
(6.77839e-18 1.18116e-18 -0.0149981)
(4.62963e-18 5.66685e-19 -0.0149871)
(4.27264e-18 1.60733e-20 -0.0149754)
(4.12744e-18 -2.49266e-19 -0.014963)
(3.01679e-18 -3.52143e-19 -0.0149498)
(2.74979e-18 1.59699e-19 -0.0149359)
(2.94535e-18 3.85944e-19 -0.0149213)
(2.34665e-18 -7.77162e-19 -0.014906)
(5.48854e-18 2.54521e-17 -0.014991)
(1.27205e-17 4.41209e-18 -0.0149824)
(6.63691e-18 4.1363e-18 -0.014973)
(6.28692e-18 1.68938e-18 -0.0149628)
(4.45131e-18 9.04879e-19 -0.0149517)
(4.32761e-18 3.08643e-19 -0.0149399)
(4.15757e-18 1.24091e-19 -0.0149274)
(3.00225e-18 -3.43418e-19 -0.014914)
(2.93472e-18 1.24929e-19 -0.0149)
(2.79791e-18 3.50745e-19 -0.0148853)
(2.2964e-18 -3.87021e-19 -0.0148699)
(1.92657e-18 -5.24968e-19 -0.0148538)
(1.72724e-18 -1.30916e-18 -0.0148371)
(2.19811e-18 -1.2226e-18 -0.0148198)
(1.46451e-18 -1.07641e-18 -0.014802)
(6.24537e-19 -5.9765e-19 -0.0147835)
(3.92568e-18 1.92807e-17 -0.0149556)
(9.95294e-18 5.19323e-18 -0.0149469)
(6.01389e-18 4.44114e-18 -0.0149374)
(5.80041e-18 2.0755e-18 -0.014927)
(4.2127e-18 1.06814e-18 -0.0149159)
(4.32193e-18 5.16166e-19 -0.014904)
(3.98334e-18 9.58012e-20 -0.0148913)
(2.91398e-18 -4.22363e-19 -0.0148779)
(3.00198e-18 -5.47232e-20 -0.0148637)
(2.48391e-18 -1.87103e-19 -0.0148489)
(2.18031e-18 -3.61891e-19 -0.0148334)
(1.81982e-18 -3.29229e-19 -0.0148172)
(1.76789e-18 -1.28059e-18 -0.0148004)
(2.39142e-18 -1.00037e-18 -0.0147829)
(1.13829e-18 -1.36667e-18 -0.0147649)
(4.48204e-19 -7.93094e-19 -0.0147464)
(3.20052e-18 1.56954e-17 -0.0149197)
(8.08308e-18 5.90479e-18 -0.0149109)
(5.37975e-18 4.72172e-18 -0.0149013)
(5.22624e-18 2.32185e-18 -0.0148909)
(4.02481e-18 1.38309e-18 -0.0148797)
(4.33618e-18 8.82648e-19 -0.0148677)
(3.75108e-18 1.04167e-19 -0.0148549)
(2.89624e-18 -3.80245e-19 -0.0148413)
(2.98772e-18 -6.73139e-20 -0.0148271)
(2.19889e-18 -5.86957e-19 -0.0148121)
(2.1577e-18 -5.07453e-19 -0.0147965)
(1.77596e-18 -3.13823e-19 -0.0147802)
(2.05507e-18 -8.49577e-19 -0.0147632)
(2.25146e-18 -1.04406e-18 -0.0147457)
(7.89473e-19 -1.56638e-18 -0.0147276)
(4.73616e-19 -1.0089e-18 -0.0147089)
(6.61154e-18 6.02298e-18 -0.0148746)
(4.69223e-18 4.86705e-18 -0.0148649)
(4.71428e-18 2.4088e-18 -0.0148544)
(4.01145e-18 1.86055e-18 -0.0148431)
(4.27986e-18 1.27967e-18 -0.014831)
(3.60807e-18 4.63536e-19 -0.0148181)
(3.05733e-18 7.14379e-20 -0.0148044)
(2.96594e-18 4.03166e-20 -0.0147901)
(2.12795e-18 -5.06242e-19 -0.014775)
(2.26193e-18 -4.09077e-19 -0.0147592)
(1.71418e-18 -5.20997e-19 -0.0147428)
(2.28861e-18 -4.05417e-19 -0.0147257)
(1.77701e-18 -1.30876e-18 -0.0147081)
(5.17501e-19 -1.76354e-18 -0.0146898)
(6.67611e-19 -1.00258e-18 -0.014671)
(5.36948e-18 5.85822e-18 -0.0148378)
(4.04782e-18 4.7703e-18 -0.0148281)
(4.3366e-18 2.62596e-18 -0.0148175)
(3.99693e-18 2.19037e-18 -0.0148061)
(4.15605e-18 1.44577e-18 -0.0147939)
(3.54092e-18 7.54569e-19 -0.0147809)
(3.19801e-18 6.41734e-19 -0.0147672)
(2.75697e-18 -1.26489e-20 -0.0147527)
(2.12994e-18 -3.45625e-19 -0.0147375)
(2.26307e-18 -3.18878e-19 -0.0147216)
(1.68312e-18 -7.14382e-19 -0.0147051)
(2.09309e-18 -5.8977e-19 -0.0146879)
(1.18595e-18 -1.54119e-18 -0.0146701)
(5.51071e-19 -1.77235e-18 -0.0146518)
(9.42486e-19 -9.85433e-19 -0.0146328)
(4.30439e-18 5.64073e-18 -0.0148007)
(3.50488e-18 4.61291e-18 -0.0147909)
(4.10356e-18 2.87327e-18 -0.0147802)
(3.93576e-18 2.4761e-18 -0.0147687)
(3.95652e-18 1.50372e-18 -0.0147564)
(3.46591e-18 8.35241e-19 -0.0147434)
(3.15657e-18 9.40264e-19 -0.0147295)
(2.4242e-18 -2.34986e-19 -0.0147149)
(2.13634e-18 -2.82256e-19 -0.0146996)
(2.14372e-18 -4.16266e-19 -0.0146836)
(1.59207e-18 -7.13986e-19 -0.014667)
(1.57008e-18 -1.18126e-18 -0.0146497)
(9.01056e-19 -1.674e-18 -0.0146318)
(8.62748e-19 -1.53762e-18 -0.0146134)
(9.57933e-19 -1.21451e-18 -0.0145943)
(1.63156e-18 8.92633e-18 -0.0147723)
(3.51842e-18 5.35131e-18 -0.0147632)
(3.1419e-18 4.6148e-18 -0.0147533)
(3.94202e-18 3.1041e-18 -0.0147426)
(3.79332e-18 2.602e-18 -0.014731)
(3.7548e-18 1.63334e-18 -0.0147186)
(3.41396e-18 9.04698e-19 -0.0147055)
(2.89749e-18 9.01964e-19 -0.0146915)
(2.11609e-18 -3.70386e-19 -0.0146768)
(2.13579e-18 -2.91914e-19 -0.0146614)
(1.99678e-18 -5.32587e-19 -0.0146454)
(1.41112e-18 -7.21959e-19 -0.0146286)
(1.3648e-18 -1.22743e-18 -0.0146112)
(9.38299e-19 -1.62622e-18 -0.0145932)
(1.06835e-18 -1.36284e-18 -0.0145746)
(8.61284e-19 -1.60051e-18 -0.0145555)
(1.38096e-18 7.58394e-18 -0.0147345)
(2.91897e-18 5.00444e-18 -0.0147254)
(2.8854e-18 4.60335e-18 -0.0147154)
(3.80273e-18 3.4154e-18 -0.0147046)
(3.58443e-18 2.56829e-18 -0.0146929)
(3.57103e-18 1.73238e-18 -0.0146805)
(3.329e-18 1.10956e-18 -0.0146672)
(2.50168e-18 6.2417e-19 -0.0146532)
(1.95584e-18 -3.48984e-19 -0.0146384)
(2.11192e-18 -3.61799e-19 -0.0146229)
(1.8793e-18 -5.5958e-19 -0.0146067)
(1.45122e-18 -4.92463e-19 -0.0145899)
(1.4321e-18 -9.22133e-19 -0.0145724)
(1.07069e-18 -1.35578e-18 -0.0145543)
(1.17305e-18 -1.20781e-18 -0.0145356)
(1.01238e-18 -1.61934e-18 -0.0145163)
(1.20991e-18 6.57607e-18 -0.0146964)
(2.5313e-18 4.56717e-18 -0.0146872)
(2.72787e-18 4.41168e-18 -0.0146771)
(3.64284e-18 3.63636e-18 -0.0146662)
(3.30607e-18 2.50408e-18 -0.0146545)
(3.39082e-18 1.66518e-18 -0.014642)
(3.1188e-18 1.15441e-18 -0.0146286)
(2.15709e-18 5.37045e-19 -0.0146145)
(2.0153e-18 1.65558e-20 -0.0145996)
(2.1537e-18 -2.72573e-19 -0.014584)
(1.91655e-18 -5.1905e-19 -0.0145678)
(1.53314e-18 -2.74313e-19 -0.0145508)
(1.4499e-18 -6.45249e-19 -0.0145332)
(1.29845e-18 -9.44123e-19 -0.014515)
(1.3534e-18 -9.57581e-19 -0.0144962)
(1.21098e-18 -1.41991e-18 -0.0144769)
(1.10873e-18 6.01182e-18 -0.0146579)
(2.19682e-18 4.21128e-18 -0.0146486)
(2.70756e-18 4.40867e-18 -0.0146385)
(3.42029e-18 3.59411e-18 -0.0146275)
(3.01001e-18 2.47283e-18 -0.0146157)
(3.18614e-18 1.5829e-18 -0.0146031)
(2.80957e-18 8.83693e-19 -0.0145897)
(2.03258e-18 5.59094e-19 -0.0145755)
(2.09811e-18 2.96346e-19 -0.0145605)
(2.12163e-18 -1.64339e-19 -0.0145449)
(1.95184e-18 -3.49214e-19 -0.0145285)
(1.47915e-18 -3.20008e-19 -0.0145114)
(1.56284e-18 -4.06668e-19 -0.0144937)
(1.458e-18 -6.68083e-19 -0.0144754)
(1.63984e-18 -4.40479e-19 -0.0144566)
(1.39424e-18 -1.19884e-18 -0.0144371)
(-9.6531e-19 4.40833e-18 -0.0146274)
(9.79754e-19 5.39442e-18 -0.014619)
(2.04336e-18 3.97007e-18 -0.0146097)
(2.75475e-18 4.54099e-18 -0.0145995)
(3.08455e-18 3.3776e-18 -0.0145885)
(2.73344e-18 2.43416e-18 -0.0145766)
(2.9992e-18 1.67973e-18 -0.0145639)
(2.54395e-18 6.76792e-19 -0.0145504)
(2.01665e-18 6.98473e-19 -0.0145361)
(1.99595e-18 2.25847e-19 -0.0145211)
(1.93528e-18 -4.45608e-19 -0.0145053)
(1.974e-18 -2.42295e-19 -0.0144889)
(1.33965e-18 -5.43981e-19 -0.0144717)
(1.67222e-18 -2.06924e-19 -0.0144539)
(1.54632e-18 -6.45433e-19 -0.0144356)
(1.74968e-18 -2.77611e-19 -0.0144166)
(1.3161e-18 -1.12245e-18 -0.0143971)
(-8.90719e-19 4.01806e-18 -0.0145883)
(9.39151e-19 4.90753e-18 -0.0145798)
(2.00677e-18 3.80982e-18 -0.0145705)
(2.70706e-18 4.48816e-18 -0.0145602)
(2.68557e-18 3.04559e-18 -0.0145491)
(2.49801e-18 2.25863e-18 -0.0145372)
(2.81761e-18 1.77765e-18 -0.0145244)
(2.31163e-18 4.9585e-19 -0.0145108)
(2.05075e-18 9.23919e-19 -0.0144965)
(1.84345e-18 3.0952e-19 -0.0144814)
(1.77409e-18 -7.39011e-19 -0.0144655)
(1.8922e-18 -3.36319e-19 -0.014449)
(1.19254e-18 -8.20581e-19 -0.0144317)
(1.8711e-18 -1.71754e-20 -0.0144139)
(1.49532e-18 -6.82824e-19 -0.0143954)
(1.53615e-18 -4.55024e-19 -0.0143763)
(1.11644e-18 -1.28806e-18 -0.0143567)
(-1.51479e-18 3.77204e-18 -0.0145564)
(-7.45658e-19 3.85798e-18 -0.0145488)
(9.35876e-19 4.56481e-18 -0.0145403)
(2.00843e-18 3.66291e-18 -0.0145309)
(2.54265e-18 4.21382e-18 -0.0145206)
(2.30945e-18 2.86089e-18 -0.0145094)
(2.31616e-18 2.05593e-18 -0.0144974)
(2.57695e-18 1.72897e-18 -0.0144846)
(2.19173e-18 4.71153e-19 -0.0144709)
(1.99676e-18 7.87773e-19 -0.0144565)
(1.71605e-18 5.49237e-19 -0.0144413)
(1.67912e-18 -7.79707e-19 -0.0144254)
(1.75705e-18 -5.35011e-19 -0.0144087)
(1.20411e-18 -1.00122e-18 -0.0143914)
(1.96875e-18 2.66274e-20 -0.0143735)
(1.36818e-18 -7.09968e-19 -0.0143549)
(1.28729e-18 -7.05188e-19 -0.0143357)
(9.45301e-19 -1.44143e-18 -0.014316)
(-1.33673e-18 3.50926e-18 -0.0145166)
(-6.00885e-19 3.76683e-18 -0.014509)
(9.45229e-19 4.31255e-18 -0.0145004)
(2.00762e-18 3.61642e-18 -0.014491)
(2.21134e-18 3.3968e-18 -0.0144806)
(2.02345e-18 2.79644e-18 -0.0144694)
(2.23276e-18 2.14221e-18 -0.0144573)
(2.40424e-18 1.6942e-18 -0.0144444)
(2.24192e-18 9.45062e-19 -0.0144307)
(1.90762e-18 5.76688e-19 -0.0144162)
(1.5855e-18 6.36687e-19 -0.0144009)
(1.6139e-18 -6.55624e-19 -0.0143849)
(1.72933e-18 -5.10182e-19 -0.0143682)
(1.45426e-18 -7.80117e-19 -0.0143508)
(1.77754e-18 -4.25956e-19 -0.0143327)
(1.18654e-18 -7.28659e-19 -0.0143141)
(1.0123e-18 -9.0666e-19 -0.0142949)
(1.01101e-18 -1.3361e-18 -0.0142751)
(-1.15636e-18 3.23755e-18 -0.0144765)
(-4.59041e-19 3.63758e-18 -0.0144688)
(9.97914e-19 4.1916e-18 -0.0144602)
(1.86487e-18 3.6332e-18 -0.0144507)
(1.8794e-18 2.6881e-18 -0.0144403)
(1.97613e-18 2.75136e-18 -0.0144291)
(2.19062e-18 2.26346e-18 -0.0144169)
(2.34882e-18 1.79707e-18 -0.0144039)
(2.31941e-18 1.46256e-18 -0.0143901)
(1.73404e-18 4.61956e-19 -0.0143756)
(1.38005e-18 5.22908e-19 -0.0143602)
(1.60372e-18 -5.29075e-19 -0.0143441)
(1.92092e-18 -2.69184e-19 -0.0143273)
(1.59317e-18 -4.85781e-19 -0.0143099)
(1.45919e-18 -8.15801e-19 -0.0142917)
(1.06364e-18 -8.26697e-19 -0.014273)
(1.18115e-18 -6.76953e-19 -0.0142537)
(1.26327e-18 -8.98609e-19 -0.0142338)
(-9.6846e-19 2.95006e-18 -0.0144361)
(-2.54178e-19 3.66579e-18 -0.0144284)
(1.03931e-18 3.99956e-18 -0.0144197)
(1.62785e-18 3.45051e-18 -0.0144102)
(1.73806e-18 2.52642e-18 -0.0143997)
(1.97618e-18 2.75843e-18 -0.0143884)
(2.03724e-18 2.0439e-18 -0.0143762)
(2.31535e-18 1.80106e-18 -0.0143632)
(2.05756e-18 1.3617e-18 -0.0143493)
(1.56607e-18 5.33279e-19 -0.0143346)
(1.17609e-18 2.85416e-19 -0.0143192)
(1.78082e-18 -2.4332e-19 -0.0143031)
(2.02812e-18 -1.25187e-19 -0.0142862)
(1.55011e-18 -3.35478e-19 -0.0142686)
(1.44555e-18 -7.45929e-19 -0.0142504)
(1.21665e-18 -7.2987e-19 -0.0142316)
(1.49173e-18 -3.43896e-19 -0.0142123)
(1.23272e-18 -6.91818e-19 -0.0141923)
(-7.22205e-19 2.75083e-18 -0.0143954)
(-3.49318e-20 3.80249e-18 -0.0143876)
(9.784e-19 3.78485e-18 -0.0143789)
(1.40228e-18 3.19368e-18 -0.0143693)
(1.65658e-18 2.40382e-18 -0.0143588)
(1.85896e-18 2.55673e-18 -0.0143474)
(1.86201e-18 1.80671e-18 -0.0143352)
(2.18793e-18 1.67119e-18 -0.0143221)
(1.72533e-18 9.17256e-19 -0.0143081)
(1.45743e-18 6.19116e-19 -0.0142934)
(1.1222e-18 2.65038e-19 -0.0142779)
(2.01618e-18 6.5481e-20 -0.0142617)
(1.92016e-18 -2.91044e-19 -0.0142447)
(1.60789e-18 -1.12601e-19 -0.0142271)
(1.5137e-18 -5.58931e-19 -0.0142089)
(1.42854e-18 -5.24861e-19 -0.01419)
(1.37729e-18 -4.92503e-19 -0.0141705)
(1.0554e-18 -7.4593e-19 -0.0141505)
(-4.08654e-19 2.67343e-18 -0.0143543)
(1.26864e-19 3.7527e-18 -0.0143465)
(8.76786e-19 3.57469e-18 -0.0143378)
(1.1946e-18 3.02099e-18 -0.0143281)
(1.56992e-18 2.34616e-18 -0.0143176)
(1.74063e-18 2.3384e-18 -0.0143061)
(1.78021e-18 1.73179e-18 -0.0142938)
(2.05986e-18 1.61209e-18 -0.0142806)
(1.54892e-18 8.7189e-19 -0.0142667)
(1.39915e-18 6.08823e-19 -0.0142519)
(1.25094e-18 4.85438e-19 -0.0142363)
(2.04636e-18 1.50818e-19 -0.01422)
(1.88646e-18 -3.11114e-19 -0.014203)
(1.56795e-18 -1.53824e-19 -0.0141853)
(1.54801e-18 -4.47674e-19 -0.014167)
(1.42983e-18 -4.79523e-19 -0.014148)
(1.16405e-18 -6.93628e-19 -0.0141285)
(9.87275e-19 -8.11791e-19 -0.0141084)
(-1.46262e-19 2.52768e-18 -0.0143129)
(1.92224e-19 3.48131e-18 -0.0143051)
(7.27326e-19 3.24864e-18 -0.0142963)
(1.10212e-18 3.08876e-18 -0.0142866)
(1.56031e-18 2.47143e-18 -0.014276)
(1.69323e-18 2.35221e-18 -0.0142645)
(1.87111e-18 2.10014e-18 -0.0142521)
(1.96737e-18 1.57596e-18 -0.0142389)
(1.52053e-18 1.07892e-18 -0.0142249)
(1.50013e-18 9.10812e-19 -0.01421)
(1.39101e-18 7.79783e-19 -0.0141944)
(2.04279e-18 1.65212e-19 -0.0141781)
(1.75246e-18 -4.53021e-19 -0.014161)
(1.499e-18 -2.16662e-19 -0.0141432)
(1.58544e-18 -3.50046e-19 -0.0141248)
(1.41336e-18 -4.29264e-19 -0.0141058)
(1.26981e-18 -4.82229e-19 -0.0140862)
(1.06912e-18 -6.70345e-19 -0.014066)
(1.23507e-20 2.19361e-18 -0.0142712)
(2.27287e-19 3.19452e-18 -0.0142633)
(6.4975e-19 2.84499e-18 -0.0142545)
(1.04292e-18 2.99791e-18 -0.0142448)
(1.55939e-18 2.71805e-18 -0.0142342)
(1.7319e-18 2.38964e-18 -0.0142226)
(1.89731e-18 2.35629e-18 -0.0142102)
(1.78692e-18 1.51568e-18 -0.0141969)
(1.54826e-18 1.25432e-18 -0.0141828)
(1.67309e-18 1.30607e-18 -0.0141679)
(1.45551e-18 1.03874e-18 -0.0141522)
(1.82399e-18 5.13845e-20 -0.0141358)
(1.55101e-18 -7.21152e-19 -0.0141186)
(1.55851e-18 -2.33182e-19 -0.0141008)
(1.61226e-18 -3.06255e-19 -0.0140823)
(1.46868e-18 -3.57298e-19 -0.0140632)
(1.53397e-18 -7.63329e-20 -0.0140436)
(9.0097e-19 -7.08106e-19 -0.0140233)
(7.60228e-20 1.87496e-18 -0.0142292)
(2.82671e-19 3.01777e-18 -0.0142213)
(5.28941e-19 2.45865e-18 -0.0142125)
(1.02243e-18 2.7296e-18 -0.0142027)
(1.55596e-18 2.7354e-18 -0.014192)
(1.65517e-18 2.30544e-18 -0.0141804)
(1.65462e-18 1.9562e-18 -0.0141679)
(1.7414e-18 1.64219e-18 -0.0141546)
(1.6537e-18 1.42199e-18 -0.0141404)
(1.69964e-18 1.40062e-18 -0.0141255)
(1.37264e-18 1.23401e-18 -0.0141097)
(1.49774e-18 -2.26885e-19 -0.0140932)
(1.47001e-18 -8.88939e-19 -0.014076)
(1.61245e-18 -2.78691e-19 -0.0140581)
(1.69005e-18 -1.81014e-19 -0.0140396)
(1.47513e-18 -4.51289e-19 -0.0140204)
(1.71395e-18 3.32178e-19 -0.0140007)
(5.98645e-19 -8.38505e-19 -0.0139804)
(1.75983e-19 1.78704e-18 -0.0141869)
(3.22133e-19 2.86904e-18 -0.014179)
(4.88387e-19 2.31267e-18 -0.0141701)
(1.01839e-18 2.4533e-18 -0.0141603)
(1.44908e-18 2.51014e-18 -0.0141495)
(1.4827e-18 2.09512e-18 -0.0141379)
(1.54331e-18 1.70543e-18 -0.0141254)
(1.82601e-18 1.79889e-18 -0.014112)
(1.66128e-18 1.54702e-18 -0.0140978)
(1.63103e-18 1.32325e-18 -0.0140827)
(1.28702e-18 1.45869e-18 -0.0140669)
(1.19415e-18 -3.42449e-19 -0.0140504)
(1.5964e-18 -7.85244e-19 -0.0140331)
(1.83129e-18 -1.86138e-19 -0.0140151)
(1.78474e-18 -7.78894e-21 -0.0139965)
(1.49229e-18 -5.45242e-19 -0.0139773)
(1.41379e-18 6.38841e-20 -0.0139575)
(4.81081e-19 -6.90355e-19 -0.0139371)
(3.02175e-19 1.94773e-18 -0.0141443)
(3.55045e-19 2.69219e-18 -0.0141363)
(4.17652e-19 2.25116e-18 -0.0141274)
(9.69217e-19 2.16497e-18 -0.0141175)
(1.33703e-18 2.17341e-18 -0.0141067)
(1.33398e-18 1.82978e-18 -0.0140951)
(1.58258e-18 1.75233e-18 -0.0140825)
(1.79432e-18 1.70386e-18 -0.0140691)
(1.569e-18 1.4331e-18 -0.0140548)
(1.63253e-18 1.34555e-18 -0.0140397)
(1.07956e-18 1.48169e-18 -0.0140239)
(1.24395e-18 7.09187e-20 -0.0140072)
(1.98603e-18 -3.56105e-19 -0.0139899)
(2.03972e-18 -3.75565e-22 -0.0139719)
(1.78342e-18 1.07144e-19 -0.0139532)
(1.40478e-18 -5.33866e-19 -0.0139339)
(7.95595e-19 -6.46289e-19 -0.0139141)
(4.20031e-19 -6.74262e-19 -0.0138936)
(3.67269e-19 2.17229e-18 -0.0141013)
(3.22882e-19 2.51452e-18 -0.0140933)
(3.43323e-19 2.10458e-18 -0.0140844)
(9.74264e-19 2.14582e-18 -0.0140745)
(1.19062e-18 1.81798e-18 -0.0140637)
(1.26954e-18 1.63613e-18 -0.0140519)
(1.67463e-18 1.90244e-18 -0.0140393)
(1.6668e-18 1.46591e-18 -0.0140259)
(1.48134e-18 1.27272e-18 -0.0140115)
(1.53779e-18 1.18364e-18 -0.0139964)
(8.62572e-19 1.26262e-18 -0.0139805)
(1.35436e-18 3.96539e-19 -0.0139638)
(2.12542e-18 -1.84266e-19 -0.0139464)
(1.87708e-18 -3.10517e-19 -0.0139283)
(1.60334e-18 -5.23192e-21 -0.0139096)
(1.1569e-18 -6.01332e-19 -0.0138902)
(4.94381e-19 -9.22182e-19 -0.0138703)
(4.26709e-19 -7.11291e-19 -0.0138498)
(3.75309e-19 2.27253e-18 -0.0140581)
(2.82738e-19 2.43793e-18 -0.0140501)
(3.05125e-19 2.02034e-18 -0.0140411)
(9.67991e-19 2.18039e-18 -0.0140312)
(1.09462e-18 1.66638e-18 -0.0140203)
(1.31489e-18 1.53618e-18 -0.0140085)
(1.73392e-18 2.04038e-18 -0.0139959)
(1.47253e-18 1.19205e-18 -0.0139823)
(1.40855e-18 1.15063e-18 -0.013968)
(1.32688e-18 8.24164e-19 -0.0139528)
(7.31784e-19 1.16754e-18 -0.0139368)
(1.18293e-18 1.56773e-19 -0.0139201)
(2.0798e-18 -1.97861e-19 -0.0139026)
(1.55387e-18 -8.00214e-19 -0.0138845)
(1.48225e-18 -1.27897e-19 -0.0138657)
(8.70022e-19 -7.96902e-19 -0.0138463)
(5.90357e-19 -7.37297e-19 -0.0138263)
(4.90454e-19 -6.56753e-19 -0.0138058)
(3.15072e-19 2.18345e-18 -0.0140146)
(2.33415e-19 2.38332e-18 -0.0140065)
(3.36269e-19 2.1691e-18 -0.0139975)
(9.75605e-19 2.2346e-18 -0.0139875)
(1.07856e-18 1.79269e-18 -0.0139766)
(1.26485e-18 1.15962e-18 -0.0139648)
(1.7316e-18 2.09886e-18 -0.0139521)
(1.32045e-18 1.07228e-18 -0.0139385)
(1.35073e-18 1.10196e-18 -0.0139241)
(1.09696e-18 3.8292e-19 -0.0139089)
(7.36104e-19 1.31474e-18 -0.0138929)
(1.09046e-18 5.5785e-20 -0.0138761)
(2.10296e-18 -9.81544e-20 -0.0138586)
(1.55102e-18 -7.96152e-19 -0.0138404)
(1.53539e-18 1.06469e-20 -0.0138215)
(7.1303e-19 -8.82578e-19 -0.013802)
(6.91387e-19 -6.24848e-19 -0.013782)
(6.05064e-19 -4.36347e-19 -0.0137614)
(2.5619e-19 1.99446e-18 -0.0139707)
(2.46924e-19 2.29614e-18 -0.0139626)
(3.80089e-19 2.28583e-18 -0.0139536)
(9.30154e-19 2.16267e-18 -0.0139436)
(1.02866e-18 2.08325e-18 -0.0139326)
(1.19927e-18 7.81678e-19 -0.0139208)
(1.70915e-18 1.90162e-18 -0.013908)
(1.13267e-18 8.93351e-19 -0.0138944)
(1.31401e-18 1.2327e-18 -0.01388)
(1.01011e-18 1.7366e-19 -0.0138647)
(8.57469e-19 1.53205e-18 -0.0138486)
(1.18523e-18 3.06346e-19 -0.0138318)
(2.26711e-18 1.90587e-19 -0.0138142)
(1.55697e-18 -7.74087e-19 -0.0137959)
(1.4712e-18 3.87638e-20 -0.013777)
(6.64435e-19 -7.51065e-19 -0.0137575)
(6.80121e-19 -7.29161e-19 -0.0137374)
(6.49777e-19 -3.39763e-19 -0.0137168)
(-1.97447e-20 1.86522e-18 -0.0139337)
(2.58872e-19 1.8602e-18 -0.0139266)
(2.30811e-19 2.07518e-18 -0.0139184)
(2.79056e-19 1.93206e-18 -0.0139094)
(8.87856e-19 1.94054e-18 -0.0138993)
(9.8134e-19 2.31952e-18 -0.0138884)
(1.20754e-18 8.52729e-19 -0.0138765)
(1.60164e-18 1.59879e-18 -0.0138637)
(9.58987e-19 5.69055e-19 -0.01385)
(1.2766e-18 1.22679e-18 -0.0138355)
(1.06855e-18 2.50082e-19 -0.0138202)
(9.33221e-19 1.58396e-18 -0.013804)
(1.29632e-18 5.29635e-19 -0.0137872)
(2.258e-18 3.37386e-19 -0.0137695)
(1.48313e-18 -7.40116e-19 -0.0137512)
(1.34929e-18 -1.01862e-19 -0.0137323)
(6.4239e-19 -6.24327e-19 -0.0137127)
(7.45839e-19 -6.8047e-19 -0.0136925)
(4.88349e-19 -5.49313e-19 -0.0136718)
(-5.3585e-20 1.65001e-18 -0.0138892)
(3.01948e-19 1.86864e-18 -0.0138821)
(1.16315e-19 1.6678e-18 -0.013874)
(2.08495e-19 1.62525e-18 -0.0138649)
(8.97352e-19 1.61692e-18 -0.0138548)
(8.83845e-19 2.2566e-18 -0.0138438)
(1.21186e-18 1.00844e-18 -0.0138319)
(1.48893e-18 1.4256e-18 -0.013819)
(9.25727e-19 5.95738e-19 -0.0138053)
(1.28672e-18 1.22293e-18 -0.0137908)
(1.10833e-18 2.51459e-19 -0.0137754)
(8.28312e-19 1.29436e-18 -0.0137592)
(1.22666e-18 4.63878e-19 -0.0137423)
(2.16053e-18 2.92444e-19 -0.0137246)
(1.54102e-18 -5.15564e-19 -0.0137062)
(1.27517e-18 -1.24534e-19 -0.0136872)
(5.40352e-19 -6.59499e-19 -0.0136676)
(9.66051e-19 -3.64514e-19 -0.0136474)
(4.61793e-19 -6.31996e-19 -0.0136266)
(-6.49096e-19 2.2886e-18 -0.0138507)
(-5.95192e-20 1.6037e-18 -0.0138445)
(2.77932e-19 1.82006e-18 -0.0138373)
(-2.80938e-20 1.21616e-18 -0.0138292)
(1.8356e-19 1.4613e-18 -0.01382)
(8.80643e-19 1.30789e-18 -0.0138099)
(7.50884e-19 1.91872e-18 -0.0137989)
(1.14392e-18 9.36272e-19 -0.0137869)
(1.45533e-18 1.39415e-18 -0.0137741)
(1.03164e-18 8.31905e-19 -0.0137603)
(1.32522e-18 1.37416e-18 -0.0137457)
(1.09019e-18 3.09608e-19 -0.0137303)
(7.22417e-19 1.04831e-18 -0.0137141)
(1.17352e-18 3.01861e-19 -0.0136971)
(2.15944e-18 3.26081e-19 -0.0136793)
(1.5513e-18 -3.61475e-19 -0.0136609)
(1.20552e-18 -7.31474e-20 -0.0136419)
(5.33976e-19 -6.56736e-19 -0.0136222)
(1.28238e-18 1.26172e-20 -0.0136019)
(5.7083e-19 -4.44983e-19 -0.0135811)
(-6.2976e-19 2.48897e-18 -0.0138056)
(-8.00801e-20 1.76074e-18 -0.0137995)
(1.88795e-19 1.6328e-18 -0.0137923)
(-8.80415e-20 1.14478e-18 -0.0137841)
(1.90616e-19 1.31157e-18 -0.0137749)
(9.16616e-19 1.21172e-18 -0.0137648)
(6.6378e-19 1.73901e-18 -0.0137537)
(1.07239e-18 6.86106e-19 -0.0137417)
(1.52636e-18 1.49664e-18 -0.0137288)
(1.06427e-18 9.12976e-19 -0.013715)
(1.37913e-18 1.57071e-18 -0.0137004)
(1.15879e-18 5.60734e-19 -0.0136849)
(7.78302e-19 1.15628e-18 -0.0136686)
(1.26659e-18 4.00831e-19 -0.0136516)
(2.16595e-18 3.36954e-19 -0.0136338)
(1.47354e-18 -3.40895e-19 -0.0136153)
(1.06815e-18 -1.37588e-19 -0.0135962)
(7.95907e-19 -3.46843e-19 -0.0135765)
(1.2423e-18 -7.71029e-20 -0.0135562)
(6.88904e-19 -2.22099e-19 -0.0135353)
(-6.4334e-19 2.10915e-18 -0.0137603)
(-8.73613e-20 2.17117e-18 -0.0137541)
(9.02685e-20 1.46552e-18 -0.0137469)
(-1.10632e-19 1.15819e-18 -0.0137387)
(1.72634e-19 1.17638e-18 -0.0137295)
(8.89392e-19 9.01574e-19 -0.0137193)
(6.01234e-19 1.72255e-18 -0.0137082)
(1.02819e-18 4.86172e-19 -0.0136962)
(1.4921e-18 1.27654e-18 -0.0136832)
(1.0636e-18 8.59596e-19 -0.0136694)
(1.43686e-18 1.68198e-18 -0.0136547)
(1.20168e-18 7.7633e-19 -0.0136392)
(8.24917e-19 1.25297e-18 -0.0136229)
(1.43061e-18 6.64011e-19 -0.0136058)
(2.0996e-18 3.1757e-19 -0.013588)
(1.27253e-18 -4.66952e-19 -0.0135694)
(9.37606e-19 -3.19448e-19 -0.0135503)
(9.97177e-19 -6.40447e-20 -0.0135305)
(1.07885e-18 -2.74509e-19 -0.0135101)
(7.39271e-19 -1.28528e-19 -0.0134892)
(-6.16242e-19 1.66296e-18 -0.0137146)
(-6.16056e-20 2.37305e-18 -0.0137084)
(-1.14962e-20 1.59743e-18 -0.0137012)
(-1.4153e-19 1.169e-18 -0.013693)
(1.49322e-19 1.15605e-18 -0.0136837)
(9.09594e-19 6.80404e-19 -0.0136735)
(6.3934e-19 1.85212e-18 -0.0136624)
(1.13568e-18 8.28565e-19 -0.0136503)
(1.47538e-18 1.07761e-18 -0.0136374)
(1.17818e-18 9.62084e-19 -0.0136235)
(1.42456e-18 1.60852e-18 -0.0136088)
(1.22109e-18 9.32825e-19 -0.0135932)
(9.2773e-19 1.41106e-18 -0.0135768)
(1.48578e-18 7.53987e-19 -0.0135597)
(1.93897e-18 2.4334e-19 -0.0135418)
(1.14511e-18 -4.64701e-19 -0.0135233)
(8.77366e-19 -4.58904e-19 -0.013504)
(8.36543e-19 -3.158e-19 -0.0134842)
(8.99224e-19 -4.68802e-19 -0.0134638)
(7.32687e-19 -1.02902e-19 -0.0134428)
(-5.26509e-19 1.73714e-18 -0.0136687)
(-5.2399e-20 2.28594e-18 -0.0136624)
(-6.72675e-20 1.83151e-18 -0.0136552)
(-1.70032e-19 1.27098e-18 -0.0136469)
(1.68726e-19 1.31313e-18 -0.0136377)
(1.10252e-18 9.91877e-19 -0.0136275)
(7.79471e-19 2.09483e-18 -0.0136163)
(1.42234e-18 1.72011e-18 -0.0136042)
(1.46032e-18 1.02331e-18 -0.0135912)
(1.28321e-18 1.09678e-18 -0.0135773)
(1.4332e-18 1.60552e-18 -0.0135625)
(1.26908e-18 1.04315e-18 -0.0135469)
(1.07772e-18 1.72109e-18 -0.0135305)
(1.44323e-18 7.77659e-19 -0.0135133)
(1.81489e-18 1.91356e-19 -0.0134954)
(1.03433e-18 -4.48366e-19 -0.0134768)
(8.46715e-19 -4.22011e-19 -0.0134575)
(4.95237e-19 -7.37057e-19 -0.0134376)
(7.74576e-19 -7.06922e-19 -0.0134171)
(6.55809e-19 -2.30789e-19 -0.0133961)
(-4.79979e-19 1.81498e-18 -0.0136224)
(-9.37752e-20 1.99774e-18 -0.0136161)
(-1.82878e-19 1.74108e-18 -0.0136089)
(-2.3583e-19 1.18535e-18 -0.0136006)
(2.25185e-19 1.3918e-18 -0.0135913)
(1.34029e-18 1.41565e-18 -0.0135811)
(9.01233e-19 2.12786e-18 -0.0135699)
(1.47173e-18 2.07915e-18 -0.0135577)
(1.30808e-18 8.77341e-19 -0.0135447)
(1.39518e-18 1.16951e-18 -0.0135307)
(1.43393e-18 1.5788e-18 -0.0135159)
(1.27749e-18 1.02893e-18 -0.0135003)
(1.08891e-18 1.76064e-18 -0.0134838)
(1.43161e-18 9.19188e-19 -0.0134666)
(1.66195e-18 1.40073e-19 -0.0134486)
(8.38249e-19 -5.88408e-19 -0.01343)
(9.32211e-19 -1.87805e-19 -0.0134106)
(6.61213e-19 -4.58612e-19 -0.0133907)
(7.74716e-19 -7.88271e-19 -0.0133702)
(5.42609e-19 -4.24905e-19 -0.0133491)
(-4.87087e-19 1.76386e-18 -0.0135758)
(-1.71118e-19 1.66068e-18 -0.0135695)
(-3.14223e-19 1.45951e-18 -0.0135622)
(-2.91969e-19 1.00824e-18 -0.0135539)
(3.38319e-19 1.47201e-18 -0.0135446)
(1.52652e-18 1.71581e-18 -0.0135344)
(8.25616e-19 1.79632e-18 -0.0135231)
(1.24027e-18 1.68771e-18 -0.013511)
(1.2927e-18 9.438e-19 -0.0134979)
(1.54156e-18 1.31847e-18 -0.0134839)
(1.36506e-18 1.45823e-18 -0.013469)
(1.31079e-18 1.0779e-18 -0.0134533)
(1.00976e-18 1.5949e-18 -0.0134368)
(1.44362e-18 1.10011e-18 -0.0134196)
(1.56622e-18 2.47669e-19 -0.0134016)
(7.94625e-19 -5.87753e-19 -0.0133829)
(1.08906e-18 -4.44627e-20 -0.0133635)
(9.97778e-19 1.32043e-19 -0.0133435)
(7.48338e-19 -7.46139e-19 -0.0133229)
(6.4252e-19 -3.68395e-19 -0.0133018)
(-5.20117e-19 1.62286e-18 -0.0135289)
(-2.59293e-19 1.38214e-18 -0.0135226)
(-4.06942e-19 1.34546e-18 -0.0135153)
(-3.23261e-19 7.47058e-19 -0.013507)
(5.49331e-19 1.74047e-18 -0.0134976)
(1.59913e-18 1.87484e-18 -0.0134873)
(7.01644e-19 1.55676e-18 -0.0134761)
(1.17874e-18 1.53148e-18 -0.0134639)
(1.36583e-18 1.04267e-18 -0.0134507)
(1.58202e-18 1.30898e-18 -0.0134367)
(1.27888e-18 1.30285e-18 -0.0134218)
(1.22916e-18 9.01251e-19 -0.0134061)
(1.02223e-18 1.59492e-18 -0.0133896)
(1.41719e-18 1.13699e-18 -0.0133722)
(1.5243e-18 4.41837e-19 -0.0133542)
(8.62975e-19 -3.81227e-19 -0.0133354)
(1.06716e-18 -1.75317e-19 -0.013316)
(9.38401e-19 1.65483e-19 -0.013296)
(8.56898e-19 -5.32156e-19 -0.0132754)
(8.27168e-19 -1.36292e-19 -0.0132542)
(-5.68698e-19 1.39317e-18 -0.0134816)
(-2.58182e-19 1.45806e-18 -0.0134753)
(-4.76447e-19 1.34498e-18 -0.013468)
(-2.67029e-19 6.91959e-19 -0.0134596)
(8.10477e-19 2.05885e-18 -0.0134503)
(1.64847e-18 2.08741e-18 -0.01344)
(6.9117e-19 1.61951e-18 -0.0134287)
(1.26558e-18 1.8042e-18 -0.0134164)
(1.3497e-18 1.01489e-18 -0.0134033)
(1.63133e-18 1.35952e-18 -0.0133892)
(1.15501e-18 1.14967e-18 -0.0133743)
(1.19076e-18 7.37966e-19 -0.0133585)
(1.1706e-18 1.76953e-18 -0.013342)
(1.3539e-18 1.13697e-18 -0.0133246)
(1.44732e-18 5.21425e-19 -0.0133065)
(8.23152e-19 -2.93009e-19 -0.0132877)
(1.01143e-18 -2.70149e-19 -0.0132682)
(7.08479e-19 -1.11124e-19 -0.0132482)
(9.80097e-19 -3.90142e-19 -0.0132275)
(6.93677e-19 -1.77744e-19 -0.0132063)
(-5.81683e-19 1.21e-18 -0.0134341)
(-2.06245e-19 1.72244e-18 -0.0134277)
(-5.60554e-19 1.38584e-18 -0.0134204)
(-1.54802e-19 7.22614e-19 -0.013412)
(1.02856e-18 2.17459e-18 -0.0134027)
(1.61951e-18 2.10868e-18 -0.0133923)
(6.53436e-19 1.60073e-18 -0.013381)
(1.31455e-18 1.9984e-18 -0.0133687)
(1.34891e-18 1.02845e-18 -0.0133555)
(1.69123e-18 1.457e-18 -0.0133414)
(1.0596e-18 1.07104e-18 -0.0133265)
(1.28507e-18 7.52768e-19 -0.0133107)
(1.23406e-18 1.81452e-18 -0.013294)
(1.36355e-18 1.30123e-18 -0.0132766)
(1.36295e-18 6.23393e-19 -0.0132585)
(8.01033e-19 -1.81695e-19 -0.0132396)
(1.07698e-18 -1.55643e-19 -0.0132201)
(6.58183e-19 -1.49789e-19 -0.0132)
(9.06893e-19 -4.80012e-19 -0.0131793)
(4.7814e-19 -3.34121e-19 -0.0131581)
(-5.27769e-19 1.20067e-18 -0.0133862)
(-1.97351e-19 1.6412e-18 -0.0133798)
(-6.29893e-19 1.5793e-18 -0.0133724)
(-6.6914e-20 6.85623e-19 -0.0133641)
(1.14926e-18 2.00726e-18 -0.0133547)
(1.49162e-18 1.86218e-18 -0.0133443)
(6.4673e-19 1.57325e-18 -0.0133329)
(1.31613e-18 2.02155e-18 -0.0133206)
(1.23289e-18 7.88809e-19 -0.0133074)
(1.61496e-18 1.26672e-18 -0.0132933)
(9.84359e-19 1.04396e-18 -0.0132783)
(1.37372e-18 7.72657e-19 -0.0132624)
(1.22393e-18 1.66727e-18 -0.0132458)
(1.42456e-18 1.52432e-18 -0.0132283)
(1.3656e-18 8.58233e-19 -0.0132102)
(8.93611e-19 8.06202e-20 -0.0131913)
(1.16415e-18 -7.53567e-21 -0.0131717)
(7.77139e-19 1.14815e-19 -0.0131515)
(7.43933e-19 -6.51897e-19 -0.0131308)
(4.67034e-19 -3.93172e-19 -0.0131095)
(-4.7494e-19 1.23406e-18 -0.0133379)
(-2.01629e-19 1.43148e-18 -0.0133316)
(-6.79061e-19 1.74069e-18 -0.0133242)
(3.58671e-20 8.93998e-19 -0.0133158)
(1.24794e-18 1.85608e-18 -0.0133064)
(1.39501e-18 1.60764e-18 -0.0132959)
(6.35223e-19 1.4693e-18 -0.0132846)
(1.28862e-18 2.12218e-18 -0.0132722)
(1.09684e-18 5.66666e-19 -0.013259)
(1.60214e-18 1.104e-18 -0.0132448)
(9.99037e-19 1.09773e-18 -0.0132298)
(1.50373e-18 8.8635e-19 -0.0132139)
(1.17413e-18 1.44571e-18 -0.0131972)
(1.45279e-18 1.60874e-18 -0.0131797)
(1.38337e-18 1.11493e-18 -0.0131615)
(9.05176e-19 2.51555e-19 -0.0131425)
(1.21575e-18 8.04896e-20 -0.013123)
(7.75898e-19 2.5486e-19 -0.0131027)
(7.84252e-19 -5.10745e-19 -0.013082)
(5.0128e-19 -3.95914e-19 -0.0130606)
(-4.09286e-19 1.1737e-18 -0.0132893)
(-1.84036e-19 1.29122e-18 -0.013283)
(-7.1907e-19 1.72531e-18 -0.0132756)
(1.94402e-19 1.33267e-18 -0.0132671)
(1.32337e-18 1.84306e-18 -0.0132577)
(1.32252e-18 1.53142e-18 -0.0132473)
(6.39728e-19 1.28495e-18 -0.0132359)
(1.28334e-18 2.20085e-18 -0.0132235)
(1.0826e-18 6.83601e-19 -0.0132102)
(1.66451e-18 1.09495e-18 -0.013196)
(1.11927e-18 1.36404e-18 -0.0131809)
(1.52786e-18 8.75294e-19 -0.013165)
(1.04923e-18 1.11111e-18 -0.0131483)
(1.37908e-18 1.45597e-18 -0.0131307)
(1.20436e-18 1.04337e-18 -0.0131125)
(7.74239e-19 2.1187e-19 -0.0130935)
(1.23661e-18 1.41284e-19 -0.0130739)
(7.15779e-19 2.68578e-19 -0.0130536)
(1.01478e-18 -1.61895e-19 -0.0130328)
(5.34525e-19 -3.18431e-19 -0.0130114)
(-3.54218e-19 1.13931e-18 -0.0132404)
(-1.6949e-19 1.14925e-18 -0.013234)
(-6.90952e-19 1.77229e-18 -0.0132266)
(3.47971e-19 1.72441e-18 -0.0132182)
(1.31544e-18 1.65803e-18 -0.0132087)
(1.33482e-18 1.73782e-18 -0.0131982)
(6.96451e-19 1.29342e-18 -0.0131868)
(1.19869e-18 2.01299e-18 -0.0131744)
(1.09945e-18 8.57465e-19 -0.0131611)