/*--------------------------------*- C++ -*----------------------------------*\
  =========                 |
  \\      /  F ield         | OpenFOAM: The Open Source CFD Toolbox
   \\    /   O peration     | Website:  https://openfoam.org
    \\  /    A nd           | Version:  7
     \\/     M anipulation  |
\*---------------------------------------------------------------------------*/
FoamFile
{
    version     2.0;
    format      ascii;
    class       volScalarField;
    location    "16000";
    object      nut;
}
// * * * * * * * * * * * * * * * * * * * * * * * * * * * * * * * * * * * * * //

dimensions      [0 2 -1 0 0 0 0];

internalField   nonuniform List<scalar> 
4814
(
1.60642e-15
1.61829e-15
1.62913e-15
1.63889e-15
1.29641e-15
1.31526e-15
1.33389e-15
1.35228e-15
1.3704e-15
1.38817e-15
1.40555e-15
1.42246e-15
1.43885e-15
1.45465e-15
1.4698e-15
1.48425e-15
1.49793e-15
1.5108e-15
1.52279e-15
1.53387e-15
1.54398e-15
1.55308e-15
1.56113e-15
1.56809e-15
1.57395e-15
1.57866e-15
1.58222e-15
1.58459e-15
1.58579e-15
1.58579e-15
1.5846e-15
1.58222e-15
1.57868e-15
1.57396e-15
1.56811e-15
1.56115e-15
1.5531e-15
1.54401e-15
1.23139e-15
1.2491e-15
1.26659e-15
1.28386e-15
1.30086e-15
1.31753e-15
1.33381e-15
1.34965e-15
1.365e-15
1.37979e-15
1.39396e-15
1.40747e-15
1.42026e-15
1.43229e-15
1.44349e-15
1.45383e-15
1.46327e-15
1.47176e-15
1.47928e-15
1.48578e-15
1.49124e-15
1.49563e-15
1.49895e-15
1.50117e-15
1.50228e-15
1.50228e-15
1.50117e-15
1.49896e-15
1.49565e-15
1.49125e-15
1.48579e-15
1.4793e-15
1.47179e-15
1.46329e-15
1.45386e-15
1.44352e-15
1.43232e-15
1.4203e-15
1.4075e-15
1.39399e-15
1.37982e-15
1.16928e-15
1.18594e-15
1.20239e-15
1.21861e-15
1.23457e-15
1.25022e-15
1.2655e-15
1.28035e-15
1.29473e-15
1.30859e-15
1.32186e-15
1.3345e-15
1.34647e-15
1.35772e-15
1.3682e-15
1.37787e-15
1.38669e-15
1.39462e-15
1.40164e-15
1.40771e-15
1.41281e-15
1.41691e-15
1.42001e-15
1.42208e-15
1.42312e-15
1.42312e-15
1.42208e-15
1.42001e-15
1.41692e-15
1.41282e-15
1.40772e-15
1.40165e-15
1.39464e-15
1.3867e-15
1.37789e-15
1.36822e-15
1.35775e-15
1.3465e-15
1.33453e-15
1.32188e-15
1.30861e-15
1.29475e-15
1.28036e-15
1.26549e-15
1.10988e-15
1.12557e-15
1.14104e-15
1.15629e-15
1.1713e-15
1.186e-15
1.20035e-15
1.21429e-15
1.22778e-15
1.24077e-15
1.25322e-15
1.26506e-15
1.27627e-15
1.28681e-15
1.29661e-15
1.30566e-15
1.31391e-15
1.32133e-15
1.32789e-15
1.33357e-15
1.33833e-15
1.34217e-15
1.34506e-15
1.34699e-15
1.34797e-15
1.34797e-15
1.347e-15
1.34507e-15
1.34218e-15
1.33834e-15
1.33358e-15
1.3279e-15
1.32134e-15
1.31392e-15
1.30568e-15
1.29663e-15
1.28683e-15
1.2763e-15
1.26509e-15
1.25323e-15
1.24079e-15
1.22779e-15
1.21429e-15
1.20034e-15
1.053e-15
1.06778e-15
1.08235e-15
1.09671e-15
1.11082e-15
1.12465e-15
1.13813e-15
1.15123e-15
1.1639e-15
1.1761e-15
1.18777e-15
1.19888e-15
1.20939e-15
1.21926e-15
1.22845e-15
1.23693e-15
1.24465e-15
1.2516e-15
1.25774e-15
1.26305e-15
1.26751e-15
1.2711e-15
1.27381e-15
1.27562e-15
1.27652e-15
1.27653e-15
1.27562e-15
1.27381e-15
1.27111e-15
1.26752e-15
1.26306e-15
1.25775e-15
1.25161e-15
1.24466e-15
1.23694e-15
1.22847e-15
1.21928e-15
1.20941e-15
1.1989e-15
1.18778e-15
1.17611e-15
1.16391e-15
1.15123e-15
1.13812e-15
9.98462e-16
1.0124e-15
1.02613e-15
1.03965e-15
1.05294e-15
1.06595e-15
1.07864e-15
1.09096e-15
1.10287e-15
1.11432e-15
1.12529e-15
1.13572e-15
1.14558e-15
1.15484e-15
1.16346e-15
1.17141e-15
1.17865e-15
1.18516e-15
1.19091e-15
1.19589e-15
1.20007e-15
1.20343e-15
1.20596e-15
1.20766e-15
1.20851e-15
1.20851e-15
1.20766e-15
1.20596e-15
1.20343e-15
1.20007e-15
1.1959e-15
1.19092e-15
1.18517e-15
1.17866e-15
1.17142e-15
1.16348e-15
1.15486e-15
1.1456e-15
1.13573e-15
1.1253e-15
1.11433e-15
1.10287e-15
1.09095e-15
1.07862e-15
9.46123e-16
9.59268e-16
9.72214e-16
9.84963e-16
9.97484e-16
1.00974e-15
1.02168e-15
1.03327e-15
1.04447e-15
1.05525e-15
1.06555e-15
1.07535e-15
1.08462e-15
1.09331e-15
1.10141e-15
1.10886e-15
1.11566e-15
1.12176e-15
1.12716e-15
1.13183e-15
1.13574e-15
1.13889e-15
1.14127e-15
1.14286e-15
1.14365e-15
1.14365e-15
1.14286e-15
1.14127e-15
1.1389e-15
1.13575e-15
1.13183e-15
1.12717e-15
1.12177e-15
1.11566e-15
1.10887e-15
1.10142e-15
1.09333e-15
1.08463e-15
1.07536e-15
1.06556e-15
1.05525e-15
1.04447e-15
1.03327e-15
1.02166e-15
1.00969e-15
8.95842e-16
9.08246e-16
9.20458e-16
9.3248e-16
9.44284e-16
9.55829e-16
9.67079e-16
9.77993e-16
9.88537e-16
9.98674e-16
1.00837e-15
1.01759e-15
1.0263e-15
1.03447e-15
1.04207e-15
1.04907e-15
1.05545e-15
1.06119e-15
1.06625e-15
1.07063e-15
1.07431e-15
1.07726e-15
1.07949e-15
1.08098e-15
1.08173e-15
1.08173e-15
1.08098e-15
1.07949e-15
1.07727e-15
1.07431e-15
1.07064e-15
1.06626e-15
1.06119e-15
1.05546e-15
1.04908e-15
1.04208e-15
1.03448e-15
1.0263e-15
1.01759e-15
1.00837e-15
9.98677e-16
9.88538e-16
9.77988e-16
9.67061e-16
9.55778e-16
8.47496e-16
8.59204e-16
8.70728e-16
8.82068e-16
8.93199e-16
9.04083e-16
9.14684e-16
9.24966e-16
9.34896e-16
9.4444e-16
9.53565e-16
9.62238e-16
9.70431e-16
9.78115e-16
9.85261e-16
9.91844e-16
9.97841e-16
1.00323e-15
1.00799e-15
1.0121e-15
1.01555e-15
1.01833e-15
1.02042e-15
1.02182e-15
1.02252e-15
1.02252e-15
1.02182e-15
1.02042e-15
1.01833e-15
1.01555e-15
1.0121e-15
1.00799e-15
1.00323e-15
9.97845e-16
9.91849e-16
9.85267e-16
9.78121e-16
9.70437e-16
9.62244e-16
9.53568e-16
9.44442e-16
9.34896e-16
9.2496e-16
9.14667e-16
9.04031e-16
8.00978e-16
8.1203e-16
8.22905e-16
8.33605e-16
8.44104e-16
8.54366e-16
8.6436e-16
8.74049e-16
8.83404e-16
8.92393e-16
9.00985e-16
9.09149e-16
9.1686e-16
9.24089e-16
9.30812e-16
9.37003e-16
9.42641e-16
9.47706e-16
9.52179e-16
9.56044e-16
9.59287e-16
9.61896e-16
9.63862e-16
9.65176e-16
9.65835e-16
9.65835e-16
9.65177e-16
9.63863e-16
9.61899e-16
9.59289e-16
9.56047e-16
9.52182e-16
9.47709e-16
9.42644e-16
9.37007e-16
9.30816e-16
9.24094e-16
9.16864e-16
9.09154e-16
9.00987e-16
8.92393e-16
8.83403e-16
8.74043e-16
8.64342e-16
8.54313e-16
7.56194e-16
7.66625e-16
7.76888e-16
7.86983e-16
7.96885e-16
8.06563e-16
8.15984e-16
8.25117e-16
8.33932e-16
8.424e-16
8.50492e-16
8.5818e-16
8.65438e-16
8.72243e-16
8.78568e-16
8.84393e-16
8.89697e-16
8.9446e-16
8.98666e-16
9.02301e-16
9.0535e-16
9.07803e-16
9.0965e-16
9.10886e-16
9.11505e-16
9.11505e-16
9.10886e-16
9.09651e-16
9.07805e-16
9.05351e-16
9.02303e-16
8.98669e-16
8.94463e-16
8.89699e-16
8.84396e-16
8.78572e-16
8.72245e-16
8.65441e-16
8.58183e-16
8.50492e-16
8.42399e-16
8.3393e-16
8.2511e-16
8.15967e-16
7.13061e-16
7.22904e-16
7.32586e-16
7.42108e-16
7.51447e-16
7.60571e-16
7.69453e-16
7.7806e-16
7.86366e-16
7.94344e-16
8.01965e-16
8.09205e-16
8.16038e-16
8.22444e-16
8.28397e-16
8.33878e-16
8.38868e-16
8.4335e-16
8.47306e-16
8.50724e-16
8.53592e-16
8.55899e-16
8.57635e-16
8.58797e-16
8.59379e-16
8.59379e-16
8.58797e-16
8.57636e-16
8.559e-16
8.53593e-16
8.50726e-16
8.47308e-16
8.43352e-16
8.3887e-16
8.3388e-16
8.284e-16
8.22446e-16
8.1604e-16
8.09206e-16
8.01965e-16
7.94342e-16
7.86363e-16
7.78053e-16
7.69435e-16
6.71509e-16
6.80791e-16
6.89921e-16
6.98899e-16
7.07703e-16
7.16304e-16
7.24673e-16
7.32783e-16
7.40608e-16
7.48122e-16
7.55299e-16
7.62116e-16
7.68549e-16
7.74578e-16
7.80182e-16
7.85339e-16
7.90034e-16
7.9425e-16
7.97972e-16
8.01187e-16
8.03884e-16
8.06053e-16
8.07686e-16
8.08779e-16
8.09326e-16
8.09326e-16
8.08779e-16
8.07687e-16
8.06054e-16
8.03884e-16
8.01188e-16
7.97973e-16
7.94252e-16
7.90035e-16
7.8534e-16
7.80183e-16
7.7458e-16
7.68551e-16
7.62117e-16
7.55298e-16
7.4812e-16
7.40605e-16
7.32776e-16
7.24657e-16
6.31476e-16
6.40223e-16
6.48827e-16
6.57287e-16
6.65582e-16
6.73684e-16
6.81567e-16
6.89205e-16
6.96573e-16
7.03648e-16
7.10404e-16
7.1682e-16
7.22875e-16
7.28548e-16
7.3382e-16
7.38672e-16
7.43089e-16
7.47054e-16
7.50554e-16
7.53578e-16
7.56114e-16
7.58154e-16
7.59689e-16
7.60716e-16
7.61231e-16
7.61231e-16
7.60716e-16
7.5969e-16
7.58154e-16
7.56114e-16
7.53579e-16
7.50555e-16
7.47055e-16
7.43089e-16
7.38673e-16
7.33821e-16
7.28549e-16
7.22875e-16
7.16821e-16
7.10403e-16
7.03645e-16
6.9657e-16
6.89198e-16
6.81551e-16
5.9291e-16
6.01146e-16
6.09247e-16
6.17212e-16
6.2502e-16
6.32647e-16
6.40067e-16
6.47255e-16
6.54188e-16
6.60844e-16
6.67201e-16
6.73237e-16
6.78932e-16
6.84267e-16
6.89225e-16
6.93788e-16
6.9794e-16
7.01669e-16
7.04959e-16
7.07801e-16
7.10185e-16
7.12102e-16
7.13546e-16
7.14511e-16
7.14995e-16
7.14994e-16
7.14511e-16
7.13546e-16
7.12103e-16
7.10185e-16
7.07802e-16
7.0496e-16
7.01669e-16
6.9794e-16
6.93788e-16
6.89225e-16
6.84267e-16
6.78932e-16
6.73237e-16
6.67199e-16
6.60841e-16
6.54184e-16
6.47247e-16
6.40051e-16
5.55767e-16
5.63513e-16
5.71131e-16
5.78622e-16
5.85966e-16
5.93138e-16
6.00115e-16
6.06873e-16
6.13391e-16
6.19649e-16
6.25624e-16
6.31297e-16
6.3665e-16
6.41664e-16
6.46323e-16
6.5061e-16
6.54512e-16
6.58015e-16
6.61106e-16
6.63776e-16
6.66015e-16
6.67816e-16
6.69172e-16
6.70079e-16
6.70533e-16
6.70533e-16
6.70078e-16
6.69172e-16
6.67816e-16
6.66015e-16
6.63776e-16
6.61106e-16
6.58015e-16
6.54511e-16
6.5061e-16
6.46322e-16
6.41663e-16
6.36649e-16
6.31296e-16
6.25622e-16
6.19645e-16
6.13387e-16
6.06866e-16
6.001e-16
5.20011e-16
5.27285e-16
5.34441e-16
5.41477e-16
5.48374e-16
5.5511e-16
5.61662e-16
5.68009e-16
5.74131e-16
5.80006e-16
5.85617e-16
5.90943e-16
5.95969e-16
6.00676e-16
6.0505e-16
6.09074e-16
6.12737e-16
6.16025e-16
6.18926e-16
6.21433e-16
6.23534e-16
6.25224e-16
6.26497e-16
6.27348e-16
6.27774e-16
6.27774e-16
6.27347e-16
6.26497e-16
6.25224e-16
6.23534e-16
6.21433e-16
6.18926e-16
6.16025e-16
6.12736e-16
6.09074e-16
6.05049e-16
6.00675e-16
5.95968e-16
5.90942e-16
5.85614e-16
5.80003e-16
5.74126e-16
5.68002e-16
5.61648e-16
4.8561e-16
4.92431e-16
4.99141e-16
5.05739e-16
5.12208e-16
5.18525e-16
5.2467e-16
5.30622e-16
5.36362e-16
5.41872e-16
5.47133e-16
5.52128e-16
5.5684e-16
5.61254e-16
5.65354e-16
5.69128e-16
5.72561e-16
5.75644e-16
5.78364e-16
5.80713e-16
5.82683e-16
5.84268e-16
5.85461e-16
5.86258e-16
5.86658e-16
5.86658e-16
5.86258e-16
5.85461e-16
5.84268e-16
5.82683e-16
5.80713e-16
5.78364e-16
5.75643e-16
5.7256e-16
5.69127e-16
5.65353e-16
5.61252e-16
5.56838e-16
5.52126e-16
5.4713e-16
5.41868e-16
5.36357e-16
5.30614e-16
5.24656e-16
4.52538e-16
4.58923e-16
4.65204e-16
4.71381e-16
4.77436e-16
4.8335e-16
4.89103e-16
4.94676e-16
5.0005e-16
5.05208e-16
5.10134e-16
5.1481e-16
5.19221e-16
5.23353e-16
5.27192e-16
5.30725e-16
5.33939e-16
5.36825e-16
5.39371e-16
5.41571e-16
5.43415e-16
5.44898e-16
5.46015e-16
5.46761e-16
5.47135e-16
5.47135e-16
5.46761e-16
5.46015e-16
5.44898e-16
5.43414e-16
5.4157e-16
5.39371e-16
5.36824e-16
5.33938e-16
5.30724e-16
5.27191e-16
5.23352e-16
5.1922e-16
5.14808e-16
5.10131e-16
5.05205e-16
5.00045e-16
4.94669e-16
4.8909e-16
4.20775e-16
4.26738e-16
4.32606e-16
4.38377e-16
4.44035e-16
4.4956e-16
4.54936e-16
4.60143e-16
4.65165e-16
4.69985e-16
4.74587e-16
4.78957e-16
4.8308e-16
4.86941e-16
4.90529e-16
4.9383e-16
4.96833e-16
4.9953e-16
5.0191e-16
5.03965e-16
5.05688e-16
5.07074e-16
5.08118e-16
5.08816e-16
5.09165e-16
5.09165e-16
5.08815e-16
5.08118e-16
5.07074e-16
5.05688e-16
5.03965e-16
5.01909e-16
4.99529e-16
4.96832e-16
4.93829e-16
4.90527e-16
4.8694e-16
4.83078e-16
4.78956e-16
4.74585e-16
4.69981e-16
4.6516e-16
4.60136e-16
4.54924e-16
3.90302e-16
3.95859e-16
4.01328e-16
4.06708e-16
4.11982e-16
4.17133e-16
4.22145e-16
4.27e-16
4.31682e-16
4.36177e-16
4.40468e-16
4.44543e-16
4.48388e-16
4.51989e-16
4.55334e-16
4.58413e-16
4.61214e-16
4.63729e-16
4.65948e-16
4.67865e-16
4.69472e-16
4.70765e-16
4.71738e-16
4.72389e-16
4.72715e-16
4.72714e-16
4.72388e-16
4.71738e-16
4.70764e-16
4.69471e-16
4.67864e-16
4.65947e-16
4.63728e-16
4.61213e-16
4.58411e-16
4.55333e-16
4.51987e-16
4.48386e-16
4.44541e-16
4.40466e-16
4.36173e-16
4.31678e-16
4.26994e-16
4.22134e-16
4.17094e-16
3.61104e-16
3.66269e-16
3.71354e-16
3.76356e-16
3.81261e-16
3.86051e-16
3.90712e-16
3.95227e-16
3.99583e-16
4.03763e-16
4.07756e-16
4.11546e-16
4.15123e-16
4.18473e-16
4.21585e-16
4.2445e-16
4.27056e-16
4.29396e-16
4.31461e-16
4.33245e-16
4.3474e-16
4.35943e-16
4.36849e-16
4.37454e-16
4.37757e-16
4.37757e-16
4.37454e-16
4.36849e-16
4.35943e-16
4.34739e-16
4.33244e-16
4.3146e-16
4.29395e-16
4.27055e-16
4.24449e-16
4.21584e-16
4.18471e-16
4.15121e-16
4.11544e-16
4.07753e-16
4.0376e-16
3.99579e-16
3.95222e-16
3.90702e-16
3.86016e-16
3.33168e-16
3.37955e-16
3.4267e-16
3.47308e-16
3.51856e-16
3.56299e-16
3.60621e-16
3.6481e-16
3.6885e-16
3.72728e-16
3.76432e-16
3.79949e-16
3.83267e-16
3.86376e-16
3.89264e-16
3.91922e-16
3.9434e-16
3.96512e-16
3.98428e-16
4.00084e-16
4.01472e-16
4.02588e-16
4.03428e-16
4.0399e-16
4.04272e-16
4.04271e-16
4.0399e-16
4.03428e-16
4.02587e-16
4.01471e-16
4.00083e-16
3.98427e-16
3.96511e-16
3.94339e-16
3.91921e-16
3.89262e-16
3.86374e-16
3.83265e-16
3.79947e-16
3.76429e-16
3.72725e-16
3.68846e-16
3.64804e-16
3.60612e-16
3.56266e-16
3.06481e-16
3.10905e-16
3.15263e-16
3.19551e-16
3.23755e-16
3.27863e-16
3.3186e-16
3.35733e-16
3.3947e-16
3.43057e-16
3.46483e-16
3.49736e-16
3.52806e-16
3.55682e-16
3.58354e-16
3.60813e-16
3.63051e-16
3.6506e-16
3.66834e-16
3.68365e-16
3.6965e-16
3.70683e-16
3.71461e-16
3.71981e-16
3.72241e-16
3.72241e-16
3.7198e-16
3.7146e-16
3.70682e-16
3.69649e-16
3.68365e-16
3.66833e-16
3.65059e-16
3.6305e-16
3.60812e-16
3.58352e-16
3.5568e-16
3.52804e-16
3.49734e-16
3.4648e-16
3.43054e-16
3.39466e-16
3.35728e-16
3.31852e-16
3.27833e-16
2.81033e-16
2.85108e-16
2.89122e-16
2.93073e-16
2.96947e-16
3.00733e-16
3.04417e-16
3.07987e-16
3.11431e-16
3.14738e-16
3.17896e-16
3.20896e-16
3.23726e-16
3.26378e-16
3.28842e-16
3.31111e-16
3.33174e-16
3.35028e-16
3.36663e-16
3.38076e-16
3.39261e-16
3.40214e-16
3.40931e-16
3.41411e-16
3.41651e-16
3.41651e-16
3.41411e-16
3.40931e-16
3.40213e-16
3.3926e-16
3.38075e-16
3.36662e-16
3.35027e-16
3.33173e-16
3.31109e-16
3.28841e-16
3.26377e-16
3.23725e-16
3.20894e-16
3.17894e-16
3.14735e-16
3.11427e-16
3.07982e-16
3.04409e-16
2.56813e-16
2.60553e-16
2.64237e-16
2.67864e-16
2.71421e-16
2.74897e-16
2.7828e-16
2.81559e-16
2.84722e-16
2.8776e-16
2.90661e-16
2.93417e-16
2.96017e-16
2.98454e-16
3.00718e-16
3.02803e-16
3.04699e-16
3.06403e-16
3.07906e-16
3.09204e-16
3.10293e-16
3.11169e-16
3.11829e-16
3.1227e-16
3.1249e-16
3.1249e-16
3.12269e-16
3.11828e-16
3.11169e-16
3.10293e-16
3.09204e-16
3.07905e-16
3.06402e-16
3.04698e-16
3.02801e-16
3.00717e-16
2.98453e-16
2.96016e-16
2.93415e-16
2.90659e-16
2.87757e-16
2.84719e-16
2.81554e-16
2.78273e-16
2.3381e-16
2.37228e-16
2.40597e-16
2.43913e-16
2.47166e-16
2.50346e-16
2.5344e-16
2.56439e-16
2.59333e-16
2.62112e-16
2.64767e-16
2.67289e-16
2.69669e-16
2.71899e-16
2.73972e-16
2.75879e-16
2.77616e-16
2.79175e-16
2.80551e-16
2.8174e-16
2.82737e-16
2.83539e-16
2.84143e-16
2.84547e-16
2.84749e-16
2.84749e-16
2.84546e-16
2.84142e-16
2.83538e-16
2.82736e-16
2.81739e-16
2.8055e-16
2.79174e-16
2.77615e-16
2.75878e-16
2.7397e-16
2.71898e-16
2.69667e-16
2.67287e-16
2.64765e-16
2.6211e-16
2.5933e-16
2.56435e-16
2.53433e-16
2.12012e-16
2.15123e-16
2.1819e-16
2.2121e-16
2.24172e-16
2.27067e-16
2.29885e-16
2.32617e-16
2.35253e-16
2.37785e-16
2.40204e-16
2.42502e-16
2.44671e-16
2.46703e-16
2.48592e-16
2.50331e-16
2.51913e-16
2.53335e-16
2.54589e-16
2.55673e-16
2.56582e-16
2.57313e-16
2.57863e-16
2.58231e-16
2.58416e-16
2.58416e-16
2.58231e-16
2.57863e-16
2.57312e-16
2.56581e-16
2.55672e-16
2.54588e-16
2.53334e-16
2.51912e-16
2.5033e-16
2.48591e-16
2.46702e-16
2.44669e-16
2.425e-16
2.40202e-16
2.37783e-16
2.35251e-16
2.32613e-16
2.29879e-16
1.91407e-16
1.94226e-16
1.97005e-16
1.99741e-16
2.02426e-16
2.0505e-16
2.07605e-16
2.10082e-16
2.12472e-16
2.14768e-16
2.16961e-16
2.19045e-16
2.21012e-16
2.22856e-16
2.24569e-16
2.26146e-16
2.27582e-16
2.28871e-16
2.3001e-16
2.30993e-16
2.31818e-16
2.32481e-16
2.32981e-16
2.33315e-16
2.33482e-16
2.33482e-16
2.33314e-16
2.3298e-16
2.32481e-16
2.31817e-16
2.30992e-16
2.30009e-16
2.28871e-16
2.27581e-16
2.26145e-16
2.24568e-16
2.22854e-16
2.21011e-16
2.19044e-16
2.1696e-16
2.14766e-16
2.12469e-16
2.10078e-16
2.076e-16
1.71982e-16
1.74523e-16
1.77028e-16
1.79495e-16
1.81916e-16
1.84283e-16
1.86587e-16
1.88821e-16
1.90977e-16
1.93048e-16
1.95027e-16
1.96907e-16
1.98682e-16
2.00345e-16
2.01891e-16
2.03315e-16
2.04611e-16
2.05775e-16
2.06802e-16
2.0769e-16
2.08434e-16
2.09033e-16
2.09484e-16
2.09786e-16
2.09937e-16
2.09937e-16
2.09785e-16
2.09484e-16
2.09033e-16
2.08434e-16
2.07689e-16
2.06802e-16
2.05774e-16
2.0461e-16
2.03314e-16
2.0189e-16
2.00344e-16
1.98681e-16
1.96906e-16
1.95025e-16
1.93046e-16
1.90974e-16
1.88817e-16
1.86582e-16
1.53722e-16
1.55999e-16
1.58246e-16
1.60458e-16
1.62628e-16
1.6475e-16
1.66817e-16
1.6882e-16
1.70754e-16
1.72612e-16
1.74388e-16
1.76075e-16
1.77667e-16
1.7916e-16
1.80547e-16
1.81825e-16
1.82988e-16
1.84032e-16
1.84955e-16
1.85751e-16
1.86419e-16
1.86957e-16
1.87362e-16
1.87632e-16
1.87768e-16
1.87768e-16
1.87632e-16
1.87362e-16
1.86957e-16
1.86419e-16
1.85751e-16
1.84954e-16
1.84032e-16
1.82987e-16
1.81824e-16
1.80546e-16
1.79159e-16
1.77666e-16
1.76073e-16
1.74386e-16
1.72611e-16
1.70752e-16
1.68818e-16
1.66813e-16
1.36611e-16
1.3864e-16
1.40642e-16
1.42613e-16
1.44547e-16
1.46438e-16
1.4828e-16
1.50066e-16
1.5179e-16
1.53447e-16
1.5503e-16
1.56534e-16
1.57954e-16
1.59285e-16
1.60522e-16
1.61662e-16
1.62699e-16
1.63631e-16
1.64453e-16
1.65164e-16
1.6576e-16
1.66239e-16
1.66601e-16
1.66842e-16
1.66963e-16
1.66963e-16
1.66842e-16
1.666e-16
1.66239e-16
1.6576e-16
1.65163e-16
1.64453e-16
1.6363e-16
1.62698e-16
1.61661e-16
1.60521e-16
1.59284e-16
1.57953e-16
1.56533e-16
1.55028e-16
1.53445e-16
1.51788e-16
1.50064e-16
1.48277e-16
1.20633e-16
1.22428e-16
1.24199e-16
1.25944e-16
1.27656e-16
1.2933e-16
1.30961e-16
1.32542e-16
1.34068e-16
1.35535e-16
1.36936e-16
1.38268e-16
1.39526e-16
1.40705e-16
1.41801e-16
1.4281e-16
1.43729e-16
1.44554e-16
1.45283e-16
1.45913e-16
1.46441e-16
1.46866e-16
1.47186e-16
1.474e-16
1.47507e-16
1.47507e-16
1.474e-16
1.47186e-16
1.46865e-16
1.46441e-16
1.45912e-16
1.45283e-16
1.44554e-16
1.43729e-16
1.4281e-16
1.418e-16
1.40704e-16
1.39525e-16
1.38267e-16
1.36935e-16
1.35533e-16
1.34066e-16
1.32539e-16
1.30957e-16
1.29323e-16
1.05767e-16
1.07344e-16
1.08899e-16
1.10432e-16
1.11936e-16
1.13407e-16
1.14839e-16
1.16229e-16
1.1757e-16
1.18859e-16
1.20091e-16
1.21261e-16
1.22367e-16
1.23403e-16
1.24366e-16
1.25253e-16
1.26061e-16
1.26787e-16
1.27427e-16
1.27981e-16
1.28445e-16
1.28819e-16
1.291e-16
1.29288e-16
1.29382e-16
1.29382e-16
1.29288e-16
1.291e-16
1.28819e-16
1.28445e-16
1.27981e-16
1.27427e-16
1.26786e-16
1.26061e-16
1.25253e-16
1.24366e-16
1.23402e-16
1.22366e-16
1.2126e-16
1.2009e-16
1.18858e-16
1.17569e-16
1.16227e-16
1.14837e-16
1.13401e-16
9.19948e-17
9.33677e-17
9.47228e-17
9.60578e-17
9.73681e-17
9.86494e-17
9.98974e-17
1.01108e-16
1.02276e-16
1.03399e-16
1.04473e-16
1.05493e-16
1.06456e-16
1.07359e-16
1.08199e-16
1.08972e-16
1.09676e-16
1.10309e-16
1.10867e-16
1.11349e-16
1.11754e-16
1.1208e-16
1.12325e-16
1.12489e-16
1.12571e-16
1.12571e-16
1.12489e-16
1.12325e-16
1.1208e-16
1.11754e-16
1.11349e-16
1.10867e-16
1.10308e-16
1.09676e-16
1.08971e-16
1.08198e-16
1.07359e-16
1.06455e-16
1.05492e-16
1.04472e-16
1.03398e-16
1.02275e-16
1.01106e-16
9.98951e-17
9.8645e-17
7.92947e-17
8.04791e-17
8.16482e-17
8.28e-17
8.39306e-17
8.50363e-17
8.61131e-17
8.71576e-17
8.81661e-17
8.91352e-17
9.00616e-17
9.0942e-17
9.17734e-17
9.25529e-17
9.32777e-17
9.39452e-17
9.4553e-17
9.50989e-17
9.5581e-17
9.59976e-17
9.6347e-17
9.66282e-17
9.68399e-17
9.69815e-17
9.70524e-17
9.70524e-17
9.69814e-17
9.68398e-17
9.6628e-17
9.63468e-17
9.59973e-17
9.55807e-17
9.50985e-17
9.45526e-17
9.39447e-17
9.32772e-17
9.25524e-17
9.17729e-17
9.09414e-17
9.00609e-17
8.91343e-17
8.8165e-17
8.71562e-17
8.61111e-17
8.50328e-17
8.39266e-17
6.76445e-17
6.86552e-17
6.96531e-17
7.06361e-17
7.16011e-17
7.25448e-17
7.3464e-17
7.43555e-17
7.52164e-17
7.60437e-17
7.68345e-17
7.75861e-17
7.82959e-17
7.89614e-17
7.95802e-17
8.01501e-17
8.06691e-17
8.11353e-17
8.1547e-17
8.19027e-17
8.22011e-17
8.24411e-17
8.2622e-17
8.27429e-17
8.28034e-17
8.28034e-17
8.27428e-17
8.26219e-17
8.2441e-17
8.22009e-17
8.19025e-17
8.15467e-17
8.1135e-17
8.06688e-17
8.01498e-17
7.95798e-17
7.8961e-17
7.82954e-17
7.75856e-17
7.68339e-17
7.60429e-17
7.52155e-17
7.43543e-17
7.34623e-17
7.2542e-17
7.15981e-17
5.70209e-17
5.78728e-17
5.87138e-17
5.95424e-17
6.03558e-17
6.11513e-17
6.19261e-17
6.26776e-17
6.34033e-17
6.41007e-17
6.47674e-17
6.5401e-17
6.59994e-17
6.65605e-17
6.70822e-17
6.75627e-17
6.80003e-17
6.83933e-17
6.87405e-17
6.90404e-17
6.9292e-17
6.94944e-17
6.96469e-17
6.97489e-17
6.97999e-17
6.97999e-17
6.97488e-17
6.96468e-17
6.94943e-17
6.92919e-17
6.90402e-17
6.87402e-17
6.83931e-17
6.8e-17
6.75624e-17
6.70818e-17
6.65601e-17
6.5999e-17
6.54005e-17
6.47668e-17
6.41001e-17
6.34025e-17
6.26766e-17
6.19247e-17
6.11491e-17
6.03536e-17
5.954e-17
4.73997e-17
4.81073e-17
4.8806e-17
4.94943e-17
5.017e-17
5.08308e-17
5.14744e-17
5.20988e-17
5.27016e-17
5.32809e-17
5.38348e-17
5.43612e-17
5.48583e-17
5.53244e-17
5.57579e-17
5.61571e-17
5.65206e-17
5.68472e-17
5.71356e-17
5.73849e-17
5.75939e-17
5.77621e-17
5.78888e-17
5.79736e-17
5.8016e-17
5.8016e-17
5.79735e-17
5.78888e-17
5.7762e-17
5.75938e-17
5.73847e-17
5.71355e-17
5.6847e-17
5.65204e-17
5.61568e-17
5.57576e-17
5.53241e-17
5.4858e-17
5.43608e-17
5.38343e-17
5.32804e-17
5.2701e-17
5.20979e-17
5.14733e-17
5.0829e-17
5.01683e-17
4.94927e-17
3.87562e-17
3.9334e-17
3.99044e-17
4.04665e-17
4.10182e-17
4.15577e-17
4.20831e-17
4.25929e-17
4.3085e-17
4.3558e-17
4.40102e-17
4.444e-17
4.48459e-17
4.52265e-17
4.55804e-17
4.59063e-17
4.62032e-17
4.64699e-17
4.67054e-17
4.69089e-17
4.70796e-17
4.7217e-17
4.73204e-17
4.73896e-17
4.74242e-17
4.74242e-17
4.73896e-17
4.73204e-17
4.72169e-17
4.70795e-17
4.69088e-17
4.67052e-17
4.64697e-17
4.6203e-17
4.59061e-17
4.55801e-17
4.52262e-17
4.48456e-17
4.44397e-17
4.40099e-17
4.35576e-17
4.30845e-17
4.25922e-17
4.20822e-17
4.15562e-17
4.10168e-17
4.04652e-17
3.10651e-17
3.15271e-17
3.19833e-17
3.24328e-17
3.2874e-17
3.33054e-17
3.37255e-17
3.41331e-17
3.45266e-17
3.49048e-17
3.52664e-17
3.561e-17
3.59346e-17
3.62389e-17
3.65218e-17
3.67825e-17
3.70199e-17
3.72331e-17
3.74214e-17
3.75841e-17
3.77206e-17
3.78305e-17
3.79132e-17
3.79685e-17
3.79962e-17
3.79962e-17
3.79685e-17
3.79132e-17
3.78304e-17
3.77206e-17
3.7584e-17
3.74213e-17
3.72329e-17
3.70197e-17
3.67823e-17
3.65217e-17
3.62387e-17
3.59343e-17
3.56098e-17
3.52661e-17
3.49045e-17
3.45262e-17
3.41326e-17
3.37248e-17
3.33043e-17
3.28729e-17
3.24319e-17
2.43008e-17
2.4661e-17
2.50166e-17
2.5367e-17
2.57108e-17
2.60471e-17
2.63745e-17
2.66922e-17
2.69988e-17
2.72936e-17
2.75753e-17
2.78431e-17
2.8096e-17
2.83331e-17
2.85536e-17
2.87568e-17
2.89417e-17
2.91079e-17
2.92547e-17
2.93815e-17
2.94879e-17
2.95734e-17
2.96379e-17
2.9681e-17
2.97026e-17
2.97026e-17
2.9681e-17
2.96379e-17
2.95734e-17
2.94878e-17
2.93814e-17
2.92546e-17
2.91078e-17
2.89416e-17
2.87566e-17
2.85535e-17
2.8333e-17
2.80958e-17
2.78429e-17
2.75751e-17
2.72933e-17
2.69985e-17
2.66917e-17
2.6374e-17
2.60462e-17
2.57101e-17
2.53663e-17
1.84382e-17
1.871e-17
1.89784e-17
1.92428e-17
1.95022e-17
1.97559e-17
2.0003e-17
2.02426e-17
2.0474e-17
2.06963e-17
2.09088e-17
2.11108e-17
2.13016e-17
2.14805e-17
2.16468e-17
2.18e-17
2.19396e-17
2.20649e-17
2.21756e-17
2.22713e-17
2.23515e-17
2.24161e-17
2.24647e-17
2.24973e-17
2.25136e-17
2.25135e-17
2.24972e-17
2.24647e-17
2.24161e-17
2.23515e-17
2.22712e-17
2.21755e-17
2.20648e-17
2.19395e-17
2.17999e-17
2.16467e-17
2.14803e-17
2.13015e-17
2.11107e-17
2.09086e-17
2.06961e-17
2.04737e-17
2.02423e-17
2.00025e-17
1.97553e-17
1.95017e-17
1.92423e-17
1.89779e-17
1.34532e-17
1.36497e-17
1.38438e-17
1.4035e-17
1.42225e-17
1.44059e-17
1.45845e-17
1.47577e-17
1.4925e-17
1.50857e-17
1.52393e-17
1.53853e-17
1.55232e-17
1.56525e-17
1.57728e-17
1.58835e-17
1.59844e-17
1.6075e-17
1.6155e-17
1.62242e-17
1.62822e-17
1.63289e-17
1.63641e-17
1.63876e-17
1.63993e-17
1.63993e-17
1.63876e-17
1.6364e-17
1.63289e-17
1.62822e-17
1.62242e-17
1.6155e-17
1.60749e-17
1.59843e-17
1.58834e-17
1.57727e-17
1.56524e-17
1.55231e-17
1.53852e-17
1.52392e-17
1.50855e-17
1.49248e-17
1.47575e-17
1.45842e-17
1.44055e-17
1.42221e-17
1.40346e-17
1.38435e-17
9.32707e-18
9.46072e-18
9.59271e-18
9.72274e-18
9.85036e-18
9.97514e-18
1.00967e-17
1.02145e-17
1.03284e-17
1.04378e-17
1.05423e-17
1.06418e-17
1.07357e-17
1.08237e-17
1.09056e-17
1.09811e-17
1.10498e-17
1.11115e-17
1.11661e-17
1.12132e-17
1.12527e-17
1.12845e-17
1.13085e-17
1.13245e-17
1.13325e-17
1.13325e-17
1.13245e-17
1.13085e-17
1.12845e-17
1.12527e-17
1.12131e-17
1.1166e-17
1.11115e-17
1.10497e-17
1.0981e-17
1.09056e-17
1.08237e-17
1.07356e-17
1.06417e-17
1.05423e-17
1.04377e-17
1.03283e-17
1.02144e-17
1.00965e-17
9.97484e-18
9.85008e-18
9.72251e-18
9.59251e-18
6.05548e-18
6.13792e-18
6.21933e-18
6.29952e-18
6.37825e-18
6.45525e-18
6.53028e-18
6.60307e-18
6.6734e-18
6.74102e-18
6.80571e-18
6.86723e-18
6.92536e-18
6.97991e-18
7.03066e-18
7.07744e-18
7.12006e-18
7.15836e-18
7.19221e-18
7.22146e-18
7.24602e-18
7.26577e-18
7.28066e-18
7.29061e-18
7.2956e-18
7.2956e-18
7.29061e-18
7.28065e-18
7.26576e-18
7.246e-18
7.22145e-18
7.19219e-18
7.15834e-18
7.12003e-18
7.07741e-18
7.03063e-18
6.97987e-18
6.92533e-18
6.86718e-18
6.80566e-18
6.74097e-18
6.67333e-18
6.60298e-18
6.53015e-18
6.45506e-18
6.37808e-18
6.29938e-18
6.2192e-18
3.58401e-18
3.63041e-18
3.67621e-18
3.72129e-18
3.76549e-18
3.80869e-18
3.85073e-18
3.89147e-18
3.93078e-18
3.96852e-18
4.00458e-18
4.03883e-18
4.07115e-18
4.10143e-18
4.12958e-18
4.15548e-18
4.17907e-18
4.20024e-18
4.21893e-18
4.23507e-18
4.24861e-18
4.2595e-18
4.2677e-18
4.27318e-18
4.27593e-18
4.27593e-18
4.27318e-18
4.2677e-18
4.25949e-18
4.2486e-18
4.23506e-18
4.21892e-18
4.20022e-18
4.17905e-18
4.15547e-18
4.12956e-18
4.10141e-18
4.07113e-18
4.0388e-18
4.00455e-18
3.96849e-18
3.93074e-18
3.89141e-18
3.85065e-18
3.80858e-18
3.7654e-18
3.7212e-18
3.67614e-18
1.8193e-18
1.84117e-18
1.86273e-18
1.88394e-18
1.90473e-18
1.92502e-18
1.94475e-18
1.96385e-18
1.98227e-18
1.99994e-18
2.01681e-18
2.03282e-18
2.04792e-18
2.06206e-18
2.07519e-18
2.08726e-18
2.09825e-18
2.10811e-18
2.11681e-18
2.12432e-18
2.13062e-18
2.13569e-18
2.1395e-18
2.14205e-18
2.14332e-18
2.14332e-18
2.14205e-18
2.1395e-18
2.13568e-18
2.13062e-18
2.12432e-18
2.11681e-18
2.10811e-18
2.09824e-18
2.08726e-18
2.07518e-18
2.06205e-18
2.04791e-18
2.03281e-18
2.0168e-18
1.99993e-18
1.98225e-18
1.96383e-18
1.94471e-18
1.92497e-18
1.90468e-18
1.88391e-18
1.8627e-18
7.05574e-19
7.12889e-19
7.20092e-19
7.27165e-19
7.34087e-19
7.40834e-19
7.47387e-19
7.53725e-19
7.59827e-19
7.65675e-19
7.71251e-19
7.76537e-19
7.81518e-19
7.86177e-19
7.905e-19
7.94474e-19
7.98087e-19
8.01327e-19
8.04184e-19
8.0665e-19
8.08716e-19
8.10377e-19
8.11627e-19
8.12463e-19
8.12881e-19
8.12881e-19
8.12462e-19
8.11626e-19
8.10376e-19
8.08715e-19
8.06648e-19
8.04182e-19
8.01325e-19
7.98085e-19
7.94472e-19
7.90497e-19
7.86174e-19
7.81514e-19
7.76534e-19
7.71247e-19
7.6567e-19
7.59821e-19
7.53717e-19
7.47376e-19
7.40818e-19
7.34072e-19
7.27153e-19
7.20081e-19
1.61877e-19
1.63005e-19
1.64113e-19
1.65197e-19
1.66255e-19
1.67283e-19
1.68279e-19
1.6924e-19
1.70162e-19
1.71044e-19
1.71883e-19
1.72677e-19
1.73423e-19
1.74119e-19
1.74765e-19
1.75357e-19
1.75895e-19
1.76376e-19
1.768e-19
1.77166e-19
1.77472e-19
1.77718e-19
1.77903e-19
1.78026e-19
1.78088e-19
1.78088e-19
1.78026e-19
1.77903e-19
1.77718e-19
1.77472e-19
1.77165e-19
1.768e-19
1.76376e-19
1.75894e-19
1.75357e-19
1.74764e-19
1.74119e-19
1.73422e-19
1.72676e-19
1.71882e-19
1.71043e-19
1.70161e-19
1.69238e-19
1.68277e-19
1.67281e-19
1.66253e-19
1.65195e-19
1.64111e-19
1.29641e-15
1.23139e-15
1.16928e-15
1.10988e-15
1.05299e-15
9.9846e-16
9.46122e-16
8.95841e-16
8.47495e-16
8.00978e-16
7.56194e-16
7.13061e-16
6.71509e-16
6.31476e-16
5.9291e-16
5.55767e-16
5.20011e-16
4.8561e-16
4.52538e-16
4.20775e-16
3.90302e-16
3.61104e-16
3.33168e-16
3.06481e-16
2.81033e-16
2.56813e-16
2.3381e-16
2.12012e-16
1.91407e-16
1.71982e-16
1.53722e-16
1.36612e-16
1.20633e-16
1.05767e-16
9.19948e-17
7.92947e-17
6.76445e-17
5.70209e-17
4.73997e-17
3.87562e-17
3.10651e-17
2.43008e-17
1.84382e-17
1.34532e-17
9.32707e-18
6.05549e-18
3.58401e-18
1.8193e-18
7.05575e-19
1.61877e-19
1.31525e-15
1.24909e-15
1.18593e-15
1.12556e-15
1.06777e-15
1.01239e-15
9.59264e-16
9.08243e-16
8.59202e-16
8.12029e-16
7.66624e-16
7.22903e-16
6.80791e-16
6.40223e-16
6.01146e-16
5.63513e-16
5.27285e-16
4.92431e-16
4.58923e-16
4.26739e-16
3.95859e-16
3.6627e-16
3.37956e-16
3.10906e-16
2.85108e-16
2.60553e-16
2.37229e-16
2.15124e-16
1.94226e-16
1.74523e-16
1.56e-16
1.3864e-16
1.22428e-16
1.07344e-16
9.33679e-17
8.04792e-17
6.86554e-17
5.78728e-17
4.81074e-17
3.9334e-17
3.15272e-17
2.4661e-17
1.871e-17
1.36498e-17
9.46073e-18
6.13792e-18
3.63042e-18
1.84117e-18
7.1289e-19
1.63005e-19
1.33387e-15
1.26658e-15
1.20237e-15
1.14103e-15
1.08234e-15
1.02612e-15
9.72208e-16
9.20454e-16
8.70724e-16
8.22902e-16
7.76885e-16
7.32584e-16
6.8992e-16
6.48826e-16
6.09246e-16
5.71131e-16
5.34441e-16
4.99141e-16
4.65204e-16
4.32607e-16
4.01329e-16
3.71355e-16
3.4267e-16
3.15264e-16
2.89123e-16
2.64238e-16
2.40598e-16
2.18191e-16
1.97006e-16
1.77029e-16
1.58246e-16
1.40642e-16
1.24199e-16
1.089e-16
9.47231e-17
8.16484e-17
6.96532e-17
5.8714e-17
4.88061e-17
3.99045e-17
3.19834e-17
2.50167e-17
1.89784e-17
1.38438e-17
9.59274e-18
6.21934e-18
3.67622e-18
1.86274e-18
7.20093e-19
1.64113e-19
1.35226e-15
1.28384e-15
1.2186e-15
1.15628e-15
1.0967e-15
1.03965e-15
9.84958e-16
9.32477e-16
8.82066e-16
8.33604e-16
7.86982e-16
7.42108e-16
6.98899e-16
6.57288e-16
6.17212e-16
5.78623e-16
5.41478e-16
5.05741e-16
4.71382e-16
4.38379e-16
4.06709e-16
3.76357e-16
3.47309e-16
3.19552e-16
2.93074e-16
2.67865e-16
2.43914e-16
2.21211e-16
1.99742e-16
1.79496e-16
1.60458e-16
1.42613e-16
1.25944e-16
1.10432e-16
9.60581e-17
8.28003e-17
7.06364e-17
5.95426e-17
4.94945e-17
4.04666e-17
3.24329e-17
2.53671e-17
1.92428e-17
1.4035e-17
9.72277e-18
6.29954e-18
3.7213e-18
1.88395e-18
7.27167e-19
1.65197e-19
1.37037e-15
1.30083e-15
1.23455e-15
1.17128e-15
1.11081e-15
1.05293e-15
9.97477e-16
9.44279e-16
8.93196e-16
8.44101e-16
7.96884e-16
7.51446e-16
7.07703e-16
6.65582e-16