/*--------------------------------*- C++ -*----------------------------------*\
  =========                 |
  \\      /  F ield         | OpenFOAM: The Open Source CFD Toolbox
   \\    /   O peration     | Website:  https://openfoam.org
    \\  /    A nd           | Version:  7
     \\/     M anipulation  |
\*---------------------------------------------------------------------------*/
FoamFile
{
    version     2.0;
    format      ascii;
    class       volVectorField;
    location    "16000";
    object      U;
}
// * * * * * * * * * * * * * * * * * * * * * * * * * * * * * * * * * * * * * //

dimensions      [0 1 -1 0 0 0 0];

internalField   nonuniform List<vector> 
4814
(
(-4.42662e-20 5.02178e-19 -0.00257803)
(9.71812e-20 7.39886e-20 -0.0025832)
(-2.53681e-19 2.38706e-19 -0.00258788)
(2.50144e-21 4.40541e-19 -0.00259204)
(3.87515e-20 -1.0445e-19 -0.00241945)
(-2.30006e-19 -3.80237e-20 -0.00243053)
(-1.03662e-19 -1.13009e-19 -0.00244136)
(-2.11316e-19 3.55431e-20 -0.00245187)
(-2.89168e-19 -2.56716e-19 -0.00246206)
(-6.17925e-19 2.25077e-19 -0.00247188)
(-1.48832e-19 2.71684e-19 -0.00248131)
(-5.99063e-19 3.30387e-19 -0.00249034)
(-6.16888e-20 6.21452e-19 -0.00249893)
(-4.02105e-19 6.18754e-19 -0.00250709)
(-9.31516e-20 2.55836e-19 -0.00251479)
(-3.40267e-19 3.31306e-19 -0.00252202)
(2.51009e-19 5.32695e-19 -0.00252877)
(-8.42547e-20 1.93303e-19 -0.00253504)
(-4.99627e-20 5.07083e-19 -0.0025408)
(1.53761e-19 9.51593e-20 -0.00254606)
(-2.31343e-19 2.46391e-19 -0.00255081)
(6.06309e-20 4.42984e-19 -0.00255504)
(1.79256e-19 4.80341e-19 -0.00255876)
(2.66517e-19 9.32085e-20 -0.00256194)
(3.92913e-20 3.74777e-20 -0.0025646)
(5.45961e-20 3.06783e-20 -0.00256673)
(1.93259e-19 7.41428e-20 -0.00256833)
(-3.58489e-20 -7.97615e-20 -0.0025694)
(2.71497e-19 -1.06164e-20 -0.00256993)
(-5.14815e-21 -3.09195e-19 -0.00256993)
(1.35842e-20 -1.05482e-19 -0.00256939)
(4.76474e-20 -2.54293e-19 -0.00256832)
(-6.84176e-20 -1.11173e-19 -0.00256672)
(-3.57168e-20 -2.1945e-19 -0.00256459)
(-1.94406e-19 -2.21032e-19 -0.00256192)
(-1.10201e-19 8.77059e-21 -0.00255873)
(-1.7266e-19 5.28493e-20 -0.00255501)
(4.27256e-20 3.29711e-20 -0.00255078)
(7.2439e-20 -6.84196e-20 -0.00237985)
(-2.60407e-19 -5.97067e-20 -0.00239102)
(-7.01928e-20 -9.34445e-20 -0.00240192)
(-2.33692e-19 2.82371e-20 -0.00241253)
(-2.67221e-19 -2.38027e-19 -0.00242281)
(-5.35534e-19 2.75993e-19 -0.00243272)
(-1.58376e-19 2.66433e-19 -0.00244225)
(-5.5872e-19 3.5416e-19 -0.00245137)
(-7.66575e-20 6.17656e-19 -0.00246006)
(-4.60045e-19 6.13686e-19 -0.00246831)
(-2.87991e-20 2.85286e-19 -0.0024761)
(-3.51458e-19 3.19048e-19 -0.00248342)
(2.01865e-19 5.16801e-19 -0.00249026)
(-1.10872e-19 1.96815e-19 -0.0024966)
(-1.64928e-20 5.19264e-19 -0.00250245)
(1.76704e-19 1.0355e-19 -0.00250778)
(-1.88337e-19 2.58192e-19 -0.0025126)
(7.57281e-20 4.34819e-19 -0.00251689)
(1.70592e-19 4.82916e-19 -0.00252066)
(2.09908e-19 9.31963e-20 -0.0025239)
(-1.98697e-20 3.41122e-20 -0.0025266)
(8.51443e-20 2.56065e-20 -0.00252876)
(1.50918e-19 7.4861e-20 -0.00253038)
(-5.19133e-21 -8.63051e-20 -0.00253147)
(2.45419e-19 -1.30586e-20 -0.00253201)
(-3.89223e-21 -3.10804e-19 -0.00253201)
(5.63338e-20 -1.11781e-19 -0.00253146)
(3.46019e-20 -2.56354e-19 -0.00253037)
(-4.97314e-20 -1.13886e-19 -0.00252875)
(-1.66345e-20 -2.20526e-19 -0.00252658)
(-2.17753e-19 -2.16842e-19 -0.00252387)
(-1.48728e-19 2.08837e-20 -0.00252064)
(-1.88535e-19 5.76278e-20 -0.00251686)
(4.67353e-20 3.86272e-20 -0.00251257)
(-2.55107e-19 -1.17501e-19 -0.00250775)
(-2.0709e-19 1.62569e-19 -0.00250241)
(-3.26343e-20 2.38361e-19 -0.00249656)
(1.31511e-20 1.24844e-19 -0.00249021)
(3.67581e-21 1.14819e-19 -0.00248337)
(-1.63472e-19 3.28861e-20 -0.00247604)
(-1.33629e-19 1.28284e-19 -0.00246825)
(1.16526e-19 -2.57898e-20 -0.0023394)
(-2.79851e-19 -7.187e-20 -0.00235063)
(-5.98871e-20 -9.45592e-20 -0.00236161)
(-2.6679e-19 1.13583e-20 -0.00237229)
(-2.5078e-19 -2.31243e-19 -0.00238263)
(-4.2231e-19 3.48704e-19 -0.00239262)
(-2.00097e-19 2.44598e-19 -0.00240222)
(-5.11508e-19 3.79911e-19 -0.00241142)
(-9.37774e-20 6.15371e-19 -0.00242019)
(-5.07233e-19 6.09414e-19 -0.00242852)
(2.24352e-20 3.06787e-19 -0.00243638)
(-3.79736e-19 2.99791e-19 -0.00244378)
(2.45904e-19 5.36597e-19 -0.00245069)
(-1.1787e-19 2.05725e-19 -0.0024571)
(-3.08364e-20 5.13266e-19 -0.00246301)
(1.70246e-19 1.02799e-19 -0.00246841)
(-1.32931e-19 2.72745e-19 -0.00247328)
(8.63045e-20 4.26573e-19 -0.00247763)
(1.55704e-19 4.83875e-19 -0.00248144)
(1.55705e-19 9.12943e-20 -0.00248472)
(-2.37224e-20 3.49366e-20 -0.00248746)
(5.34905e-20 1.22347e-20 -0.00248965)
(1.30352e-19 7.39097e-20 -0.00249129)
(-8.24649e-21 -9.61117e-20 -0.00249239)
(2.02673e-19 -1.95515e-20 -0.00249294)
(-1.34766e-20 -3.19701e-19 -0.00249294)
(8.42184e-20 -1.20806e-19 -0.00249238)
(3.57794e-20 -2.61122e-19 -0.00249128)
(-5.47252e-20 -1.16848e-19 -0.00248963)
(-1.74245e-20 -2.21215e-19 -0.00248744)
(-1.85997e-19 -2.21865e-19 -0.0024847)
(-1.74296e-19 2.83362e-20 -0.00248142)
(-1.83764e-19 5.2742e-20 -0.0024776)
(1.99268e-20 4.87367e-20 -0.00247325)
(-2.1605e-19 -1.23374e-19 -0.00246837)
(-2.60826e-19 1.81694e-19 -0.00246297)
(2.99044e-20 2.1781e-19 -0.00245706)
(-5.43532e-20 1.58688e-19 -0.00245064)
(2.44354e-21 1.21436e-19 -0.00244373)
(-1.63319e-19 3.34087e-20 -0.00243633)
(-1.49967e-19 1.49789e-19 -0.00242845)
(8.31451e-20 6.01964e-19 -0.00242011)
(4.82225e-20 -8.08938e-20 -0.00241133)
(1.81819e-20 5.94879e-20 -0.00240211)
(1.18191e-19 -2.33931e-20 -0.00229815)
(-2.49665e-19 -3.63994e-20 -0.00230942)
(-6.00912e-20 -1.02356e-19 -0.00232045)
(-2.94546e-19 -1.99101e-21 -0.00233117)
(-2.33088e-19 -2.30731e-19 -0.00234158)
(-3.49541e-19 3.95194e-19 -0.00235162)
(-2.26886e-19 2.33052e-19 -0.00236128)
(-4.5776e-19 4.06408e-19 -0.00237054)
(-1.7755e-19 5.7836e-19 -0.00237937)
(-5.05658e-19 6.26724e-19 -0.00238775)
(2.67925e-20 3.05157e-19 -0.00239568)
(-3.80242e-19 2.89961e-19 -0.00240314)
(2.63371e-19 5.42395e-19 -0.0024101)
(-1.12377e-19 2.22911e-19 -0.00241657)
(-6.51954e-20 5.01155e-19 -0.00242254)
(1.51763e-19 9.41004e-20 -0.00242799)
(-1.09118e-19 2.78696e-19 -0.00243291)
(4.67258e-20 4.10538e-19 -0.0024373)
(1.20616e-19 4.81975e-19 -0.00244115)
(1.41467e-19 9.50527e-20 -0.00244446)
(-2.09392e-20 3.64665e-20 -0.00244722)
(2.17007e-20 -5.45481e-22 -0.00244944)
(1.2355e-19 7.29072e-20 -0.0024511)
(-1.14456e-20 -1.04874e-19 -0.00245221)
(1.67397e-19 -2.42053e-20 -0.00245277)
(-3.99271e-20 -3.27401e-19 -0.00245276)
(7.01901e-20 -1.27596e-19 -0.00245221)
(3.62655e-20 -2.63645e-19 -0.00245109)
(-7.64859e-20 -1.16799e-19 -0.00244943)
(-2.25468e-20 -2.22987e-19 -0.00244721)
(-1.68289e-19 -2.24377e-19 -0.00244444)
(-1.61034e-19 2.94259e-20 -0.00244113)
(-1.75753e-19 4.88209e-20 -0.00243727)
(1.12135e-20 5.24517e-20 -0.00243288)
(-1.72221e-19 -1.33127e-19 -0.00242795)
(-2.68465e-19 1.79972e-19 -0.0024225)
(9.55356e-20 1.95045e-19 -0.00241653)
(-9.90948e-20 1.81813e-19 -0.00241006)
(3.12076e-20 1.08169e-19 -0.00240309)
(-1.65764e-19 3.46033e-20 -0.00239563)
(-1.61135e-19 1.60781e-19 -0.00238769)
(1.54327e-19 5.73663e-19 -0.00237929)
(7.99091e-20 -1.03598e-19 -0.00237045)
(6.04828e-20 4.08545e-20 -0.00236117)
(1.09378e-19 -3.34145e-20 -0.00225613)
(-2.18725e-19 -9.94212e-22 -0.00226743)
(-6.25532e-20 -1.05575e-19 -0.00227848)
(-2.97639e-19 3.86303e-21 -0.00228924)
(-2.04378e-19 -2.24992e-19 -0.00229967)
(-3.38986e-19 3.98615e-19 -0.00230975)
(-2.13206e-19 2.46939e-19 -0.00231946)
(-4.51935e-19 4.0949e-19 -0.00232875)
(-2.38739e-19 5.53009e-19 -0.00233763)
(-4.76704e-19 6.51799e-19 -0.00234606)
(3.29126e-20 3.05165e-19 -0.00235403)
(-3.44556e-19 2.95193e-19 -0.00236153)
(2.16518e-19 5.22358e-19 -0.00236855)
(-1.13081e-19 2.38201e-19 -0.00237506)
(-2.63693e-20 5.13876e-19 -0.00238107)
(1.25785e-19 8.37181e-20 -0.00238656)
(-1.23489e-19 2.76515e-19 -0.00239151)
(1.396e-20 3.96294e-19 -0.00239594)
(8.51686e-20 4.76441e-19 -0.00239982)
(1.65147e-19 1.03873e-19 -0.00240316)
(-1.45295e-20 3.99637e-20 -0.00240595)
(2.59961e-20 -9.11178e-21 -0.00240818)
(1.26492e-19 7.22313e-20 -0.00240986)
(-1.27604e-20 -1.11039e-19 -0.00241098)
(1.52479e-19 -2.63607e-20 -0.00241154)
(-8.09151e-20 -3.33946e-19 -0.00241154)
(5.18398e-20 -1.34272e-19 -0.00241097)
(3.58943e-20 -2.65536e-19 -0.00240985)
(-6.28389e-20 -1.19155e-19 -0.00240817)
(-1.23225e-20 -2.26086e-19 -0.00240593)
(-1.92111e-19 -2.19898e-19 -0.00240314)
(-1.43426e-19 2.92719e-20 -0.0023998)
(-1.91001e-19 5.00928e-20 -0.00239591)
(3.72558e-21 5.50111e-20 -0.00239148)
(-1.24507e-19 -1.43621e-19 -0.00238652)
(-2.70617e-19 1.76803e-19 -0.00238103)
(1.02289e-19 1.94615e-19 -0.00237502)
(-3.76264e-20 1.633e-19 -0.0023685)
(1.67665e-20 1.1301e-19 -0.00236149)
(-1.30484e-19 1.87613e-20 -0.00235398)
(-1.46688e-19 1.56362e-19 -0.002346)
(2.1319e-19 5.47186e-19 -0.00233756)
(8.35546e-20 -1.10359e-19 -0.00232867)
(6.77253e-20 4.1055e-20 -0.00231935)
(1.19811e-19 -2.31812e-20 -0.00221337)
(-2.45112e-19 -1.36531e-20 -0.00222467)
(-8.14353e-20 -1.23224e-19 -0.00223573)
(-2.91533e-19 1.49497e-20 -0.00224651)
(-1.78824e-19 -2.19916e-19 -0.00225696)
(-3.47307e-19 3.88466e-19 -0.00226707)
(-1.91353e-19 2.65423e-19 -0.00227679)
(-4.94464e-19 3.83177e-19 -0.00228612)
(-2.3158e-19 5.62091e-19 -0.00229502)
(-4.69521e-19 6.6423e-19 -0.00230348)
(5.66572e-20 3.12895e-19 -0.00231149)
(-3.10177e-19 3.02835e-19 -0.00231902)
(1.59965e-19 4.98905e-19 -0.00232606)
(-9.60844e-20 2.53504e-19 -0.00233261)
(5.35126e-20 5.41368e-19 -0.00233865)
(1.15537e-19 8.18071e-20 -0.00234416)
(-1.35627e-19 2.73626e-19 -0.00234915)
(-3.11665e-23 3.87473e-19 -0.0023536)
(5.62059e-20 4.71423e-19 -0.00235751)
(1.78655e-19 1.09711e-19 -0.00236086)
(-1.63236e-20 4.26589e-20 -0.00236367)
(4.66921e-20 -1.54236e-20 -0.00236592)
(1.26312e-19 7.28796e-20 -0.00236761)
(-1.69822e-20 -1.17016e-19 -0.00236873)
(1.56529e-19 -2.543e-20 -0.0023693)
(-1.0775e-19 -3.38341e-19 -0.00236929)
(3.53756e-20 -1.41959e-19 -0.00236873)
(3.13476e-20 -2.67717e-19 -0.0023676)
(-4.25416e-20 -1.22197e-19 -0.00236591)
(1.72884e-20 -2.28342e-19 -0.00236365)
(-2.15248e-19 -2.14478e-19 -0.00236084)
(-1.51824e-19 3.47045e-20 -0.00235748)
(-2.02554e-19 5.25454e-20 -0.00235357)
(8.20598e-21 5.08721e-20 -0.00234912)
(-1.04699e-19 -1.45728e-19 -0.00234413)
(-2.63531e-19 1.73193e-19 -0.00233861)
(6.5005e-20 2.05458e-19 -0.00233257)
(2.69401e-20 1.44588e-19 -0.00232602)
(1.90103e-20 1.13513e-19 -0.00231897)
(-1.07201e-19 6.4869e-21 -0.00231143)
(-1.22845e-19 1.4749e-19 -0.00230342)
(2.15155e-19 5.52616e-19 -0.00229495)
(1.09636e-19 -1.2842e-19 -0.00228603)
(7.61713e-20 3.97408e-20 -0.00227668)
(1.31259e-19 -1.03733e-20 -0.00216991)
(-2.6493e-19 -1.7457e-20 -0.00218121)
(-7.30003e-20 -1.19439e-19 -0.00219226)
(-2.83302e-19 2.61301e-20 -0.00220303)
(-1.76018e-19 -2.3095e-19 -0.00221349)
(-3.32465e-19 3.92859e-19 -0.00222359)
(-1.81292e-19 2.78669e-19 -0.00223332)
(-5.07196e-19 3.74621e-19 -0.00224266)
(-2.26126e-19 5.6711e-19 -0.00225157)
(-4.84174e-19 6.63184e-19 -0.00226005)
(8.85837e-20 3.2336e-19 -0.00226807)
(-2.93446e-19 3.04606e-19 -0.00227562)
(1.68216e-19 5.00503e-19 -0.00228269)
(-1.04329e-19 2.55673e-19 -0.00228925)
(6.2369e-20 5.45155e-19 -0.00229531)
(9.83471e-20 8.14713e-20 -0.00230084)
(-1.65387e-19 2.67761e-19 -0.00230585)
(-4.81819e-20 3.70381e-19 -0.00231032)
(2.73735e-20 4.65079e-19 -0.00231424)
(1.57343e-19 1.09274e-19 -0.00231761)
(-1.97736e-20 4.47932e-20 -0.00232043)
(5.47699e-20 -2.29665e-20 -0.00232269)
(1.52303e-19 7.64762e-20 -0.00232439)
(-1.19953e-20 -1.21775e-19 -0.00232552)
(1.40247e-19 -2.40091e-20 -0.00232608)
(-9.8055e-20 -3.41545e-19 -0.00232608)
(7.27751e-21 -1.48308e-19 -0.00232551)
(-2.43645e-22 -2.67678e-19 -0.00232438)
(-2.18475e-20 -1.25718e-19 -0.00232268)
(4.50799e-20 -2.29251e-19 -0.00232042)
(-2.17998e-19 -2.0951e-19 -0.00231759)
(-1.45457e-19 3.64436e-20 -0.00231422)
(-1.83779e-19 4.47534e-20 -0.00231029)
(4.25924e-20 4.00454e-20 -0.00230582)
(-9.61953e-20 -1.43503e-19 -0.00230081)
(-2.11629e-19 1.56032e-19 -0.00229527)
(4.39779e-20 2.11224e-19 -0.00228921)
(4.30123e-20 1.42213e-19 -0.00228265)
(3.39885e-20 1.09449e-19 -0.00227558)
(-1.29383e-19 1.75671e-20 -0.00226802)
(-1.1778e-19 1.5071e-19 -0.00225999)
(1.85228e-19 5.74683e-19 -0.0022515)
(1.41578e-19 -1.51192e-19 -0.00224257)
(7.75169e-20 4.47164e-20 -0.00223322)
(4.57351e-21 -2.187e-19 -0.00222345)
(1.20615e-19 -1.71161e-20 -0.00212579)
(-2.46868e-19 1.15253e-20 -0.00213706)
(-2.63906e-20 -8.41032e-20 -0.00214809)
(-2.88268e-19 2.96849e-20 -0.00215884)
(-1.74568e-19 -2.43308e-19 -0.00216928)
(-3.43282e-19 3.77817e-19 -0.00217937)
(-1.85401e-19 2.81866e-19 -0.00218909)
(-4.85379e-19 3.85137e-19 -0.00219842)
(-2.50246e-19 5.56923e-19 -0.00220734)
(-4.93052e-19 6.63391e-19 -0.00221581)
(1.35136e-19 3.39747e-19 -0.00222384)
(-2.89544e-19 2.99843e-19 -0.00223139)
(1.95606e-19 5.1112e-19 -0.00223846)
(-1.31423e-19 2.54308e-19 -0.00224504)
(3.77854e-20 5.37331e-19 -0.0022511)
(7.85598e-20 7.99809e-20 -0.00225664)
(-1.92711e-19 2.62839e-19 -0.00226166)
(-8.50491e-20 3.55724e-19 -0.00226614)
(1.78199e-21 4.58474e-19 -0.00227007)
(1.59851e-19 1.11733e-19 -0.00227345)
(-6.38517e-21 4.81295e-20 -0.00227627)
(3.70709e-20 -3.46988e-20 -0.00227854)
(1.55316e-19 7.82882e-20 -0.00228024)
(9.17804e-21 -1.22543e-19 -0.00228137)
(1.22786e-19 -2.20586e-20 -0.00228194)
(-7.55391e-20 -3.43609e-19 -0.00228194)
(-1.63947e-20 -1.51725e-19 -0.00228137)
(-3.69136e-20 -2.68866e-19 -0.00228023)
(-2.40555e-21 -1.31129e-19 -0.00227853)
(5.70729e-20 -2.2587e-19 -0.00227626)
(-2.29231e-19 -2.03284e-19 -0.00227343)
(-1.04343e-19 3.05635e-20 -0.00227005)
(-1.73779e-19 3.99805e-20 -0.00226611)
(5.70805e-20 3.39955e-20 -0.00226163)
(-7.32748e-20 -1.46655e-19 -0.00225661)
(-1.78379e-19 1.45949e-19 -0.00225107)
(6.11484e-20 2.0475e-19 -0.002245)
(5.91034e-20 1.41109e-19 -0.00223842)
(4.99672e-20 1.07422e-19 -0.00223135)
(-1.76832e-19 4.1164e-20 -0.00222379)
(-1.50422e-19 1.72644e-19 -0.00221576)
(1.93364e-19 5.73875e-19 -0.00220727)
(1.68431e-19 -1.70868e-19 -0.00219834)
(7.54863e-20 5.54474e-20 -0.00218899)
(-1.59278e-20 -2.01677e-19 -0.00217923)
(9.6171e-20 -3.71806e-20 -0.00208104)
(-2.17081e-19 4.69446e-20 -0.00209226)
(1.95234e-20 -4.57176e-20 -0.00210325)
(-3.0261e-19 2.82276e-20 -0.00211396)
(-1.44854e-19 -2.33415e-19 -0.00212437)
(-3.89014e-19 3.38772e-19 -0.00213443)
(-1.9908e-19 2.76198e-19 -0.00214413)
(-4.94954e-19 3.784e-19 -0.00215344)
(-3.00744e-19 5.31184e-19 -0.00216234)
(-4.87657e-19 6.65326e-19 -0.0021708)
(1.80971e-19 3.56032e-19 -0.00217882)
(-2.84519e-19 2.96509e-19 -0.00218636)
(1.71508e-19 5.00519e-19 -0.00219343)
(-1.25715e-19 2.65195e-19 -0.0022)
(4.95269e-20 5.40495e-19 -0.00220606)
(8.80664e-20 8.83623e-20 -0.0022116)
(-1.80046e-19 2.68947e-19 -0.00221662)
(-1.07188e-19 3.43897e-19 -0.0022211)
(3.17674e-21 4.54879e-19 -0.00222503)
(1.85455e-19 1.16558e-19 -0.00222841)
(5.58245e-21 5.41295e-20 -0.00223124)
(-1.71263e-20 -4.76817e-20 -0.00223351)
(1.09339e-19 7.43442e-20 -0.00223521)
(7.3507e-21 -1.25228e-19 -0.00223635)
(1.20534e-19 -1.92034e-20 -0.00223691)
(-5.16481e-20 -3.4468e-19 -0.00223691)
(-2.317e-20 -1.54061e-19 -0.00223634)
(-4.89989e-20 -2.71821e-19 -0.0022352)
(-2.54169e-21 -1.34451e-19 -0.0022335)
(5.51739e-20 -2.19152e-19 -0.00223123)
(-2.34083e-19 -1.9887e-19 -0.0022284)
(-8.91875e-20 2.9188e-20 -0.00222501)
(-1.45447e-19 3.15991e-20 -0.00222107)
(2.89942e-20 3.89559e-20 -0.00221659)
(-1.00219e-19 -1.33797e-19 -0.00221157)
(-2.0582e-19 1.55724e-19 -0.00220603)
(5.12268e-20 2.07792e-19 -0.00219996)
(6.95549e-20 1.42087e-19 -0.00219339)
(8.93043e-20 9.80564e-20 -0.00218632)
(-2.02383e-19 5.85998e-20 -0.00217877)
(-1.83464e-19 1.91529e-19 -0.00217075)
(2.19517e-19 5.58836e-19 -0.00216227)
(1.91092e-19 -1.85958e-19 -0.00215336)
(9.98776e-20 5.18212e-20 -0.00214403)
(-1.02311e-20 -2.04613e-19 -0.0021343)
(6.22076e-20 -6.53606e-20 -0.0020357)
(-2.13453e-19 5.67601e-20 -0.00204685)
(4.67839e-20 -2.0746e-20 -0.00205778)
(-2.96689e-19 4.30539e-20 -0.00206844)
(-1.20688e-19 -2.25464e-19 -0.0020788)
(-4.24498e-19 3.09083e-19 -0.00208882)
(-2.24921e-19 2.61744e-19 -0.00209848)
(-5.37379e-19 3.52455e-19 -0.00210776)
(-3.19337e-19 5.21068e-19 -0.00211662)
(-4.8231e-19 6.62933e-19 -0.00212506)
(1.82561e-19 3.50671e-19 -0.00213305)
(-2.57508e-19 3.05744e-19 -0.00214057)
(1.17048e-19 4.76609e-19 -0.00214762)
(-8.17057e-20 2.86932e-19 -0.00215418)
(7.83432e-20 5.49033e-19 -0.00216023)
(8.60166e-20 9.24857e-20 -0.00216576)
(-1.19632e-19 2.88928e-19 -0.00217077)
(-1.23707e-19 3.34247e-19 -0.00217524)
(2.52558e-20 4.53898e-19 -0.00217917)
(1.82319e-19 1.17069e-19 -0.00218255)
(-1.70086e-21 6.0174e-20 -0.00218537)
(-4.83963e-20 -5.65371e-20 -0.00218763)
(9.91531e-20 7.1977e-20 -0.00218934)
(2.61136e-21 -1.2916e-19 -0.00219047)
(1.25222e-19 -1.75771e-20 -0.00219104)
(-3.45827e-20 -3.44759e-19 -0.00219104)
(-1.93131e-20 -1.55555e-19 -0.00219047)
(-3.09832e-20 -2.76603e-19 -0.00218933)
(-2.67587e-20 -1.34786e-19 -0.00218762)
(5.68919e-20 -2.12766e-19 -0.00218536)
(-2.22138e-19 -1.97015e-19 -0.00218253)
(-9.22456e-20 2.99011e-20 -0.00217915)
(-1.21649e-19 2.67823e-20 -0.00217522)
(-5.21556e-21 4.98585e-20 -0.00217074)
(-1.64663e-19 -1.09604e-19 -0.00216573)
(-2.48874e-19 1.70005e-19 -0.00216019)
(-7.51228e-21 2.26545e-19 -0.00215414)
(7.33362e-20 1.4283e-19 -0.00214758)
(8.95066e-20 1.06518e-19 -0.00214053)
(-1.84599e-19 5.74136e-20 -0.002133)
(-1.81153e-19 1.91431e-19 -0.002125)
(2.22711e-19 5.55023e-19 -0.00211656)
(2.17322e-19 -2.03377e-19 -0.00210768)
(1.30032e-19 4.45192e-20 -0.00209838)
(1.00927e-21 -2.13522e-19 -0.00208868)
(2.43089e-20 -9.47446e-20 -0.00198979)
(-2.25276e-19 4.91663e-20 -0.00200087)
(6.96441e-20 -5.79836e-22 -0.00201172)
(-2.66386e-19 7.75426e-20 -0.00202232)
(-1.14479e-19 -2.28222e-19 -0.00203261)
(-4.35738e-19 2.9677e-19 -0.00204257)
(-2.396e-19 2.55248e-19 -0.00205218)
(-5.69301e-19 3.30941e-19 -0.0020614)
(-3.21955e-19 5.16676e-19 -0.00207022)
(-4.73725e-19 6.62581e-19 -0.00207862)
(1.38794e-19 3.21508e-19 -0.00208657)
(-2.25759e-19 3.17827e-19 -0.00209406)
(5.96012e-20 4.49873e-19 -0.00210108)
(-4.56813e-20 3.02405e-19 -0.00210761)
(4.92313e-20 5.40534e-19 -0.00211364)
(6.31297e-20 8.86455e-20 -0.00211915)
(-5.56458e-20 3.09144e-19 -0.00212414)
(-1.3759e-19 3.26195e-19 -0.0021286)
(4.58594e-20 4.52198e-19 -0.00213252)
(1.44265e-19 1.12649e-19 -0.00213589)
(-7.80414e-21 6.58117e-20 -0.0021387)
(-4.23468e-20 -6.22601e-20 -0.00214096)
(1.12513e-19 7.0911e-20 -0.00214266)
(7.77848e-21 -1.31819e-19 -0.00214379)
(1.36097e-19 -1.52294e-20 -0.00214436)
(-2.76139e-20 -3.44211e-19 -0.00214435)
(-3.24287e-20 -1.56937e-19 -0.00214378)
(-2.19735e-20 -2.78529e-19 -0.00214265)
(-5.77026e-20 -1.32804e-19 -0.00214095)
(7.15902e-20 -2.09585e-19 -0.00213869)
(-1.96361e-19 -1.96932e-19 -0.00213587)
(-9.08084e-20 3.0463e-20 -0.0021325)
(-1.27808e-19 2.82811e-20 -0.00212858)
(-8.21426e-21 5.38979e-20 -0.00212412)
(-1.76196e-19 -9.97784e-20 -0.00211912)
(-2.37774e-19 1.66403e-19 -0.00211361)
(-5.36009e-20 2.39315e-19 -0.00210758)
(7.15407e-20 1.44581e-19 -0.00210105)
(5.69522e-20 1.27989e-19 -0.00209402)
(-1.56709e-19 4.96024e-20 -0.00208652)
(-1.72227e-19 1.89173e-19 -0.00207856)
(2.23946e-19 5.50675e-19 -0.00207016)
(2.42002e-19 -2.20793e-19 -0.00206132)
(1.36723e-19 5.42678e-20 -0.00205207)
(1.87033e-20 -9.11326e-20 -0.00194334)
(-2.17991e-19 5.51744e-20 -0.00195433)
(8.55457e-20 1.08612e-20 -0.0019651)
(-2.45897e-19 1.05251e-19 -0.00197561)
(-1.08666e-19 -2.28965e-19 -0.00198582)
(-4.47674e-19 2.83262e-19 -0.00199571)
(-2.36436e-19 2.60331e-19 -0.00200525)
(-5.6962e-19 3.28043e-19 -0.00201441)
(-3.51156e-19 4.959e-19 -0.00202317)
(-4.47746e-19 6.71905e-19 -0.00203151)
(1.0317e-19 2.95832e-19 -0.00203942)
(-2.16655e-19 3.19836e-19 -0.00204687)
(1.43922e-20 4.27872e-19 -0.00205385)
(-4.6081e-20 3.04655e-19 -0.00206034)
(-2.4325e-20 5.17556e-19 -0.00206634)
(4.56325e-20 8.13672e-20 -0.00207182)
(-2.44243e-20 3.19998e-19 -0.00207679)
(-1.65069e-19 3.16274e-19 -0.00208122)
(6.86938e-20 4.51567e-19 -0.00208512)
(9.26183e-20 1.06253e-19 -0.00208847)
(-2.6901e-21 7.07419e-20 -0.00209128)
(-3.16519e-20 -6.75237e-20 -0.00209353)
(1.08476e-19 6.9001e-20 -0.00209521)
(7.95171e-21 -1.34734e-19 -0.00209634)
(1.49469e-19 -1.30401e-20 -0.00209691)
(-1.70561e-20 -3.41576e-19 -0.0020969)
(-4.48825e-20 -1.57231e-19 -0.00209634)
(-4.21312e-20 -2.78402e-19 -0.00209521)
(-7.18485e-20 -1.33924e-19 -0.00209352)
(9.42422e-20 -2.09165e-19 -0.00209126)
(-1.59324e-19 -1.97934e-19 -0.00208846)
(-8.91978e-20 3.20571e-20 -0.0020851)
(-1.23908e-19 2.77621e-20 -0.0020812)
(-3.44172e-22 5.3615e-20 -0.00207676)
(-1.20729e-19 -1.12087e-19 -0.00207179)
(-1.74816e-19 1.4699e-19 -0.0020663)
(-4.18231e-20 2.32219e-19 -0.00206031)
(7.26335e-20 1.45526e-19 -0.00205381)
(6.56142e-20 1.30455e-19 -0.00204683)
(-1.48892e-19 4.99642e-20 -0.00203937)
(-1.85639e-19 1.98728e-19 -0.00203146)
(2.46406e-19 5.33683e-19 -0.00202311)
(2.3996e-19 -2.21315e-19 -0.00201433)
(1.40709e-19 6.64498e-20 -0.00200515)
(5.13558e-20 -5.38833e-20 -0.0018964)
(-1.77667e-19 9.09491e-20 -0.00190728)
(8.20069e-20 7.40266e-21 -0.00191794)
(-2.64638e-19 1.0242e-19 -0.00192835)
(-9.5722e-20 -2.22448e-19 -0.00193848)
(-4.69919e-19 2.6197e-19 -0.00194828)
(-2.21224e-19 2.71101e-19 -0.00195773)
(-5.75105e-19 3.2383e-19 -0.00196682)
(-3.8306e-19 4.71831e-19 -0.00197551)
(-4.07532e-19 6.86786e-19 -0.00198378)
(9.86791e-20 2.86103e-19 -0.00199163)
(-2.23237e-19 3.15078e-19 -0.00199902)
(1.40486e-20 4.23812e-19 -0.00200595)
(-3.30115e-20 3.1218e-19 -0.0020124)
(-6.22429e-20 5.06289e-19 -0.00201835)
(4.63398e-20 7.69653e-20 -0.0020238)
(-3.85434e-20 3.1889e-19 -0.00202873)
(-2.03777e-19 3.0246e-19 -0.00203314)
(9.07969e-20 4.50343e-19 -0.00203701)
(6.57409e-20 1.04479e-19 -0.00204034)
(1.66347e-20 7.58362e-20 -0.00204313)
(-2.46627e-20 -7.23471e-20 -0.00204537)
(9.02519e-20 6.61374e-20 -0.00204705)
(2.36352e-20 -1.37433e-19 -0.00204817)
(1.6288e-19 -1.09479e-20 -0.00204873)
(6.6723e-21 -3.38798e-19 -0.00204872)
(-4.2597e-20 -1.56919e-19 -0.00204816)
(-5.02875e-20 -2.77975e-19 -0.00204704)
(-7.43976e-20 -1.37269e-19 -0.00204536)
(1.07115e-19 -2.085e-19 -0.00204312)
(-1.31894e-19 -1.96213e-19 -0.00204033)
(-9.23779e-20 3.53188e-20 -0.00203699)
(-1.04437e-19 2.24748e-20 -0.00203312)
(2.29379e-20 4.6735e-20 -0.00202871)
(-7.83379e-20 -1.22437e-19 -0.00202377)
(-1.13472e-19 1.28926e-19 -0.00201832)
(-1.84728e-20 2.22686e-19 -0.00201236)
(6.07657e-20 1.51223e-19 -0.00200591)
(1.13675e-19 1.1555e-19 -0.00199898)
(-1.58359e-19 6.12515e-20 -0.00199158)
(-2.21191e-19 2.1759e-19 -0.00198373)
(2.66805e-19 5.16262e-19 -0.00197544)
(2.31684e-19 -2.16539e-19 -0.00196674)
(1.45823e-19 7.56408e-20 -0.00195763)
(8.67481e-20 -1.95222e-20 -0.00184899)
(-1.57833e-19 1.11403e-19 -0.00185974)
(6.55419e-20 -2.87486e-21 -0.00187029)
(-3.04699e-19 8.1338e-20 -0.00188059)
(-7.44811e-20 -2.09851e-19 -0.0018906)
(-4.8135e-19 2.47059e-19 -0.0019003)
(-2.05608e-19 2.8135e-19 -0.00190966)
(-6.02471e-19 3.07381e-19 -0.00191866)
(-3.91595e-19 4.57313e-19 -0.00192726)
(-3.8927e-19 6.87932e-19 -0.00193546)
(1.03711e-19 2.83054e-19 -0.00194323)
(-2.27144e-19 3.10255e-19 -0.00195056)
(3.632e-20 4.26935e-19 -0.00195743)
(-4.12231e-21 3.26667e-19 -0.00196382)
(-5.31107e-20 5.10828e-19 -0.00196972)
(6.11746e-20 7.71322e-20 -0.00197512)
(-6.32005e-20 3.16394e-19 -0.00198002)
(-2.13531e-19 2.93504e-19 -0.00198439)
(8.74652e-20 4.42367e-19 -0.00198823)
(6.03649e-20 1.05586e-19 -0.00199154)
(3.13075e-20 7.97942e-20 -0.0019943)
(-2.01911e-20 -7.57264e-20 -0.00199652)
(7.43138e-20 6.26653e-20 -0.00199819)
(4.20775e-20 -1.41059e-19 -0.0019993)
(1.67808e-19 -9.15833e-21 -0.00199985)
(3.70246e-20 -3.35004e-19 -0.00199985)
(-4.96204e-20 -1.54953e-19 -0.00199929)
(-5.81162e-20 -2.7759e-19 -0.00199818)
(-7.35214e-20 -1.41096e-19 -0.00199651)
(9.84816e-20 -2.05016e-19 -0.00199429)
(-1.27379e-19 -1.90331e-19 -0.00199152)
(-9.48991e-20 3.79089e-20 -0.00198821)
(-9.75088e-20 1.90399e-20 -0.00198437)
(3.38042e-20 4.34171e-20 -0.00197999)
(-6.83245e-20 -1.23794e-19 -0.0019751)
(-7.92954e-20 1.19606e-19 -0.00196969)
(-1.57493e-20 2.22887e-19 -0.00196379)
(4.34936e-20 1.5705e-19 -0.00195739)
(1.52545e-19 1.04028e-19 -0.00195052)
(-1.81535e-19 8.27332e-20 -0.00194319)
(-2.30282e-19 2.20851e-19 -0.00193541)
(2.73e-19 5.04258e-19 -0.0019272)
(2.34413e-19 -2.17833e-19 -0.00191858)
(1.42254e-19 8.94042e-20 -0.00190956)
(1.04359e-19 -2.91068e-21 -0.00180113)
(-1.74093e-19 1.01357e-19 -0.00181175)
(5.57745e-20 -5.5119e-21 -0.00182217)
(-3.2499e-19 7.38552e-20 -0.00183234)
(-3.38704e-20 -1.84395e-19 -0.00184223)
(-4.72588e-19 2.45987e-19 -0.00185182)
(-2.2245e-19 2.7115e-19 -0.00186107)
(-6.16381e-19 2.98833e-19 -0.00186996)
(-3.8436e-19 4.49375e-19 -0.00187847)
(-4.01667e-19 6.71836e-19 -0.00188658)
(9.97783e-20 2.74974e-19 -0.00189427)
(-2.16749e-19 3.11115e-19 -0.00190152)
(4.12049e-20 4.21538e-19 -0.00190831)
(-1.30541e-20 3.26061e-19 -0.00191464)
(-2.15323e-20 5.22814e-19 -0.00192048)
(6.59714e-20 7.57664e-20 -0.00192583)
(-7.78482e-20 3.15987e-19 -0.00193068)
(-1.70191e-19 2.9647e-19 -0.00193501)
(7.7008e-20 4.32815e-19 -0.00193881)
(6.04434e-20 1.06751e-19 -0.00194209)
(1.7927e-20 7.94171e-20 -0.00194483)
(-9.29872e-21 -7.80379e-20 -0.00194702)
(7.332e-20 6.01179e-20 -0.00194867)
(5.00633e-20 -1.45039e-19 -0.00194978)
(1.50069e-19 -8.10831e-21 -0.00195033)
(5.49331e-20 -3.30662e-19 -0.00195033)
(-5.17329e-20 -1.51658e-19 -0.00194977)
(-7.10866e-20 -2.76476e-19 -0.00194867)
(-7.61299e-20 -1.44164e-19 -0.00194701)
(7.71686e-20 -1.99358e-19 -0.00194481)
(-1.4052e-19 -1.81777e-19 -0.00194207)
(-1.0155e-19 4.14503e-20 -0.00193879)
(-1.18775e-19 2.1712e-20 -0.00193499)
(3.47786e-20 4.1719e-20 -0.00193065)
(-6.31383e-20 -1.24542e-19 -0.00192581)
(-6.97255e-20 1.18664e-19 -0.00192045)
(1.49354e-21 2.1793e-19 -0.00191461)
(3.01926e-20 1.59913e-19 -0.00190828)
(1.50357e-19 1.11066e-19 -0.00190148)
(-2.23482e-19 1.1281e-19 -0.00189423)
(-2.02097e-19 2.02503e-19 -0.00188653)
(2.7528e-19 4.93574e-19 -0.00187841)
(2.29693e-19 -2.13846e-19 -0.00186989)
(1.52948e-19 9.4215e-20 -0.00186097)
(1.15343e-19 7.98575e-21 -0.00175286)
(-1.83986e-19 9.73499e-20 -0.00176333)
(5.88671e-20 1.27307e-21 -0.0017736)
(-2.97425e-19 1.01306e-19 -0.00178363)
(9.13412e-21 -1.57538e-19 -0.00179339)
(-4.51061e-19 2.56891e-19 -0.00180285)
(-2.64139e-19 2.45202e-19 -0.00181198)
(-5.8053e-19 3.17509e-19 -0.00182076)
(-3.55244e-19 4.5333e-19 -0.00182916)
(-4.22003e-19 6.51037e-19 -0.00183717)
(9.61693e-20 2.65404e-19 -0.00184476)
(-1.96294e-19 3.15752e-19 -0.00185193)
(3.40401e-20 4.1276e-19 -0.00185864)
(-5.666e-20 3.11049e-19 -0.00186489)
(5.88996e-21 5.31647e-19 -0.00187067)
(5.37072e-20 7.00437e-20 -0.00187596)
(-8.40371e-20 3.15301e-19 -0.00188075)
(-1.27907e-19 2.9845e-19 -0.00188503)
(7.21008e-20 4.25673e-19 -0.00188879)
(5.56245e-20 1.07407e-19 -0.00189203)
(-2.59469e-21 7.74275e-20 -0.00189474)
(2.03833e-21 -8.11074e-20 -0.00189691)
(7.58213e-20 5.80924e-20 -0.00189854)
(5.76566e-20 -1.47862e-19 -0.00189963)
(1.19252e-19 -7.43133e-21 -0.00190018)
(5.45867e-20 -3.26605e-19 -0.00190018)
(-5.92619e-20 -1.47321e-19 -0.00189963)
(-7.34592e-20 -2.75678e-19 -0.00189854)
(-8.73584e-20 -1.45786e-19 -0.0018969)
(6.4122e-20 -1.94178e-19 -0.00189473)
(-1.4802e-19 -1.74398e-19 -0.00189202)
(-1.10628e-19 4.54045e-20 -0.00188877)
(-1.20478e-19 1.92162e-20 -0.00188501)
(3.85208e-20 3.82559e-20 -0.00188072)
(-5.79579e-20 -1.24997e-19 -0.00187593)
(-9.40976e-20 1.27873e-19 -0.00187064)
(4.164e-20 2.04517e-19 -0.00186486)
(7.44219e-21 1.68261e-19 -0.00185861)
(1.17392e-19 1.32836e-19 -0.00185189)
(-2.58258e-19 1.36871e-19 -0.00184472)
(-1.58607e-19 1.73206e-19 -0.00183712)
(2.59695e-19 4.93567e-19 -0.00182911)
(2.0264e-19 -1.97468e-19 -0.00182069)
(1.7506e-19 9.12932e-20 -0.00181189)
(1.21422e-19 1.37299e-20 -0.00170421)
(-1.67431e-19 1.16262e-19 -0.00171451)
(5.20529e-20 -2.24511e-21 -0.00172463)
(-2.3854e-19 1.5217e-19 -0.00173451)
(4.38979e-20 -1.35452e-19 -0.00174412)
(-4.10789e-19 2.83178e-19 -0.00175344)
(-2.75107e-19 2.36908e-19 -0.00176244)
(-5.31894e-19 3.401e-19 -0.00177109)
(-3.11396e-19 4.68116e-19 -0.00177937)
(-4.50827e-19 6.26198e-19 -0.00178727)
(9.47436e-20 2.54926e-19 -0.00179476)
(-1.75296e-19 3.20815e-19 -0.00180182)
(2.15597e-20 4.03548e-19 -0.00180844)
(-6.77674e-20 3.06327e-19 -0.00181461)
(2.80208e-20 5.37677e-19 -0.00182031)
(2.80653e-20 6.12186e-20 -0.00182553)
(-8.07468e-20 3.154e-19 -0.00183026)
(-1.10276e-19 2.94474e-19 -0.00183448)
(6.24047e-20 4.18017e-19 -0.0018382)
(5.78644e-20 1.09376e-19 -0.0018414)
(-9.55402e-21 7.65325e-20 -0.00184407)
(3.79797e-21 -8.5657e-20 -0.00184622)
(6.01165e-20 5.45042e-20 -0.00184783)
(6.23007e-20 -1.49615e-19 -0.00184891)
(9.63044e-20 -6.0277e-21 -0.00184945)
(4.70385e-20 -3.22592e-19 -0.00184945)
(-7.37756e-20 -1.42788e-19 -0.0018489)
(-5.94039e-20 -2.75663e-19 -0.00184783)
(-9.53131e-20 -1.47345e-19 -0.00184621)
(6.15301e-20 -1.90983e-19 -0.00184406)
(-1.4015e-19 -1.69572e-19 -0.00184139)
(-1.09934e-19 4.66704e-20 -0.00183818)
(-1.02308e-19 1.13907e-20 -0.00183447)
(4.11683e-20 3.48167e-20 -0.00183024)
(-4.61915e-20 -1.25881e-19 -0.00182551)
(-1.42883e-19 1.4411e-19 -0.00182029)
(3.91104e-20 2.05853e-19 -0.00181458)
(2.63815e-21 1.71886e-19 -0.00180841)
(8.54985e-20 1.53506e-19 -0.00180179)
(-2.44651e-19 1.34065e-19 -0.00179472)
(-1.08166e-19 1.39723e-19 -0.00178722)
(2.19235e-19 5.09287e-19 -0.00177932)
(1.77842e-19 -1.84386e-19 -0.00177102)
(1.69761e-19 1.04672e-19 -0.00176235)
(1.26165e-19 1.6369e-20 -0.00165519)
(-1.46306e-19 1.40035e-19 -0.00166533)
(3.00236e-20 -1.99714e-20 -0.00167527)
(-1.83338e-19 1.96988e-19 -0.00168498)
(8.57882e-20 -1.07565e-19 -0.00169444)
(-3.61154e-19 3.16685e-19 -0.00170361)
(-2.49526e-19 2.53182e-19 -0.00171246)
(-5.16529e-19 3.41109e-19 -0.00172098)
(-2.93657e-19 4.70099e-19 -0.00172913)
(-4.73488e-19 6.05301e-19 -0.0017369)
(8.00521e-20 2.36335e-19 -0.00174427)
(-1.69856e-19 3.18419e-19 -0.00175123)
(1.57048e-20 3.96452e-19 -0.00175775)
(-3.62878e-20 3.15774e-19 -0.00176383)
(5.40239e-20 5.45694e-19 -0.00176945)
(1.31629e-20 5.60521e-20 -0.00177459)