/*--------------------------------*- C++ -*----------------------------------*\
  =========                 |
  \\      /  F ield         | OpenFOAM: The Open Source CFD Toolbox
   \\    /   O peration     | Website:  https://openfoam.org
    \\  /    A nd           | Version:  7
     \\/     M anipulation  |
\*---------------------------------------------------------------------------*/
FoamFile
{
    version     2.0;
    format      ascii;
    class       volVectorField;
    location    "16000";
    object      vorticity;
}
// * * * * * * * * * * * * * * * * * * * * * * * * * * * * * * * * * * * * * //

dimensions      [0 0 -1 0 0 0 0];

internalField   nonuniform List<vector> 
4814
(
(-0.0112925 0.032786 -1.44318e-17)
(-0.0101899 0.0329208 2.94216e-18)
(-0.00909491 0.0330383 -4.65014e-18)
(-0.0080069 0.0331398 -9.23979e-18)
(-0.028158 0.0296068 1.19631e-18)
(-0.0272347 0.0298958 -2.14321e-18)
(-0.0260316 0.0304228 2.90182e-18)
(-0.0248265 0.030913 -1.0885e-18)
(-0.0236211 0.0313675 4.3058e-18)
(-0.0224169 0.0317876 -1.03473e-17)
(-0.0212152 0.0321744 -3.37558e-18)
(-0.0200173 0.0325296 -8.40985e-18)
(-0.018824 0.0328545 -1.30476e-17)
(-0.0176362 0.0331507 -1.74734e-17)
(-0.0164544 0.0334195 2.23625e-18)
(-0.0152792 0.0336627 -5.66382e-18)
(-0.0141108 0.0338814 -1.08306e-17)
(-0.0129494 0.0340772 -6.72037e-18)
(-0.0117948 0.0342509 -1.06884e-17)
(-0.0106472 0.0344049 6.21421e-18)
(-0.00950635 0.0345398 -9.12004e-19)
(-0.00837171 0.0346568 -5.03808e-18)
(-0.00724296 0.0347574 -1.05358e-17)
(-0.00611931 0.0348414 -1.95232e-18)
(-0.0050002 0.0349102 -8.78137e-19)
(-0.00388491 0.0349643 -3.01862e-19)
(-0.00277268 0.0350044 -2.13783e-18)
(-0.00166266 0.0350308 1.18514e-18)
(-0.000553976 0.035044 -1.3137e-18)
(0.000554251 0.0350439 7.22766e-18)
(0.00166292 0.0350307 -4.81176e-19)
(0.00277293 0.0350041 3.22649e-18)
(0.00388514 0.0349639 -9.78699e-20)
(0.00500039 0.0349097 1.51752e-18)
(0.00611947 0.0348409 2.56787e-18)
(0.00724311 0.0347569 -5.85994e-18)
(0.00837195 0.0346568 -8.94095e-18)
(0.00950658 0.0345398 -7.45406e-18)
(-0.0291599 0.0306432 3.47561e-18)
(-0.0282108 0.0309683 6.53872e-20)
(-0.0269792 0.031532 4.65971e-18)
(-0.025744 0.032058 5.2825e-19)
(-0.0245072 0.0325473 4.83435e-18)
(-0.0232701 0.033001 -9.30597e-18)
(-0.0220342 0.0334205 -2.82377e-18)
(-0.0208006 0.033807 -7.65842e-18)
(-0.0195703 0.034162 -1.22054e-17)
(-0.0183442 0.0344868 -1.64643e-17)
(-0.017123 0.034783 3.05943e-18)
(-0.0159071 0.0350518 -4.15483e-18)
(-0.0146969 0.0352948 -8.90268e-18)
(-0.0134926 0.0355132 -4.07067e-18)
(-0.0122943 0.0357081 -8.69921e-18)
(-0.011102 0.0358812 7.2664e-18)
(-0.00991553 0.0360335 3.76974e-19)
(-0.00873454 0.0361661 -3.25088e-18)
(-0.00755874 0.0362801 -6.3905e-18)
(-0.00638753 0.0363759 1.14052e-18)
(-0.00522033 0.0364545 1.62661e-18)
(-0.00405656 0.0365166 2.75461e-18)
(-0.00289552 0.0365626 1.10549e-18)
(-0.00173645 0.0365931 5.38128e-18)
(-0.000578593 0.0366082 3.64668e-18)
(0.00057886 0.0366082 1.17598e-17)
(0.00173671 0.0365929 4.34166e-18)
(0.00289576 0.0365624 7.43782e-18)
(0.00405678 0.0365162 3.75669e-18)
(0.00522052 0.036454 4.92285e-18)
(0.00638768 0.0363754 5.65857e-18)
(0.0075589 0.0362795 -2.42352e-18)
(0.00873473 0.0361657 -5.11501e-18)
(0.00991571 0.0360332 -3.93211e-18)
(0.0111023 0.0358814 3.48857e-18)
(0.0122946 0.0357082 -7.30466e-18)
(0.0134928 0.035513 -1.35363e-17)
(0.0146971 0.0352945 -1.01814e-17)
(0.0159073 0.0350514 -5.29441e-18)
(0.0171233 0.0347825 3.60778e-19)
(0.0183446 0.0344863 -1.15441e-17)
(-0.0301554 0.031672 3.40901e-18)
(-0.0291802 0.0320337 2.87435e-19)
(-0.0279203 0.0326339 5.06326e-18)
(-0.0266555 0.0331955 8.14313e-19)
(-0.0253874 0.0337195 5.30958e-18)
(-0.0241178 0.0342068 -7.86115e-18)
(-0.0228479 0.0346587 -2.12689e-18)
(-0.0215789 0.0350765 -6.35419e-18)
(-0.0203119 0.0354615 -1.10981e-17)
(-0.0190479 0.0358149 -1.55422e-17)
(-0.0177874 0.0361383 3.87734e-18)
(-0.0165311 0.0364329 -2.76116e-18)
(-0.0152794 0.0367 -7.58768e-18)
(-0.0140326 0.0369409 -2.95226e-18)
(-0.0127908 0.0371568 -7.8066e-18)
(-0.0115541 0.0373491 6.95207e-18)
(-0.0103223 0.0375188 2.26471e-19)
(-0.00909526 0.0376669 -2.96558e-18)
(-0.00787269 0.0377943 -4.72151e-18)
(-0.00665419 0.0379019 2.27084e-18)
(-0.00543921 0.0379904 2.61875e-18)
(-0.00422723 0.0380604 3.93892e-18)
(-0.00301765 0.0381125 2.20401e-18)
(-0.00180983 0.0381469 6.57947e-18)
(-0.00060307 0.038164 4.89278e-18)
(0.00060333 0.038164 1.25062e-17)
(0.00181008 0.0381467 5.53657e-18)
(0.00301789 0.0381122 8.32371e-18)
(0.00422744 0.0380601 4.6093e-18)
(0.00543939 0.03799 5.58876e-18)
(0.00665434 0.0379014 6.39138e-18)
(0.00787285 0.0377938 -1.29453e-18)
(0.0090954 0.0376663 -3.5633e-18)
(0.0103224 0.0375182 -2.62897e-18)
(0.0115542 0.0373488 6.44924e-18)
(0.0127909 0.0371565 -3.06641e-18)
(0.0140327 0.0369404 -8.81296e-18)
(0.0152795 0.0366994 -5.67845e-18)
(0.0165312 0.0364321 -7.91767e-19)
(0.0177875 0.0361375 5.0104e-18)
(0.0190481 0.0358141 -6.75939e-18)
(0.0203127 0.035461 -2.50912e-17)
(0.02158 0.0350759 -7.02703e-18)
(0.0228492 0.0346583 -9.56403e-18)
(-0.0311441 0.0326929 2.14152e-18)
(-0.0301427 0.0330914 -8.10591e-19)
(-0.0288548 0.033728 4.28354e-18)
(-0.0275605 0.0343251 2.41978e-19)
(-0.0262616 0.0348836 5.66741e-18)
(-0.0249596 0.0354045 -6.54658e-18)
(-0.023656 0.0358888 -1.47553e-18)
(-0.022352 0.0363377 -5.01915e-18)
(-0.0210486 0.0367526 -1.00963e-17)
(-0.0197468 0.0371346 -1.45337e-17)
(-0.0184475 0.0374851 4.38202e-18)
(-0.0171511 0.0378053 -1.48896e-18)
(-0.0158582 0.0380964 -6.62227e-18)
(-0.0145691 0.0383598 -3.1686e-18)
(-0.0132841 0.0385967 -7.18761e-18)
(-0.0120032 0.038808 6.64957e-18)
(-0.0107265 0.038995 9.52874e-20)
(-0.0094537 0.0391586 -2.78414e-18)
(-0.00818472 0.0392997 -4.61844e-18)
(-0.00691922 0.0394191 2.09299e-18)
(-0.00565674 0.0395174 2.65014e-18)
(-0.00439685 0.0395953 3.95813e-18)
(-0.00313905 0.0396533 1.94835e-18)
(-0.00188276 0.0396917 5.93911e-18)
(-0.000627398 0.0397109 3.83329e-18)
(0.00062765 0.0397108 1.0968e-17)
(0.001883 0.0396916 4.61895e-18)
(0.00313928 0.039653 7.29844e-18)
(0.00439706 0.039595 3.56319e-18)
(0.00565692 0.0395169 4.67408e-18)
(0.00691937 0.0394185 5.745e-18)
(0.00818487 0.0392991 -1.55095e-18)
(0.00945382 0.039158 -3.4584e-18)
(0.0107266 0.0389944 -2.73985e-18)
(0.0120033 0.0388074 7.22087e-18)
(0.0132841 0.038596 -1.47885e-18)
(0.0145691 0.0383591 -7.17754e-18)
(0.0158581 0.0380956 -4.28822e-18)
(0.017151 0.0378043 1.0307e-18)
(0.0184475 0.037484 6.40676e-18)
(0.019747 0.0371334 -5.01411e-18)
(0.0210491 0.0367515 -1.99349e-17)
(0.0223527 0.0363366 -2.32136e-18)
(0.0236571 0.0358878 -4.55108e-18)
(-0.0321259 0.0337057 1.08528e-18)
(-0.031098 0.0341413 -1.92342e-18)
(-0.0297824 0.0348141 3.55697e-18)
(-0.0284589 0.0354466 -1.19224e-19)
(-0.0271294 0.0360395 6.01904e-18)
(-0.0257954 0.0365937 -5.62735e-18)
(-0.0244583 0.0371102 -9.58957e-19)
(-0.0231195 0.0375902 -4.08549e-18)
(-0.0217801 0.0380349 -9.29745e-18)
(-0.0204409 0.0384453 -1.35736e-17)
(-0.019103 0.0388228 4.4508e-18)
(-0.0177668 0.0391685 -4.0996e-19)
(-0.016433 0.0394837 -5.85674e-18)
(-0.015102 0.0397695 -3.58628e-18)
(-0.0137741 0.0400271 -6.77496e-18)
(-0.0124494 0.0402575 6.46871e-18)
(-0.011128 0.0404618 -1.34356e-20)
(-0.00980977 0.0406409 -2.55109e-18)
(-0.00849468 0.0407955 -4.58707e-18)
(-0.0071825 0.0409267 1.84601e-18)
(-0.00587285 0.0410348 2.46432e-18)
(-0.00456537 0.0411206 3.82373e-18)
(-0.00325965 0.0411846 1.56182e-18)
(-0.00195522 0.041227 5.25823e-18)
(-0.000651568 0.0412481 2.75233e-18)
(0.000651813 0.041248 9.53981e-18)
(0.00195545 0.0412268 3.84833e-18)
(0.00325987 0.0411843 6.26337e-18)
(0.00456557 0.0411203 2.51124e-18)
(0.00587302 0.0410344 3.84887e-18)
(0.00718265 0.0409261 5.01353e-18)
(0.00849482 0.0407949 -1.89972e-18)
(0.00980987 0.0406402 -3.43976e-18)
(0.011128 0.0404611 -2.818e-18)
(0.0124494 0.0402568 6.69843e-18)
(0.013774 0.0400263 -1.42966e-18)
(0.0151019 0.0397687 -7.35704e-18)
(0.0164329 0.0394828 -4.69888e-18)
(0.0177667 0.0391675 9.05358e-19)
(0.0191029 0.0388216 5.91882e-18)
(0.020441 0.038444 -5.1083e-18)
(0.0217804 0.0380335 -1.76513e-17)
(0.0231201 0.0375887 -8.7355e-19)
(0.0244594 0.0371088 -3.04852e-18)
(-0.0331004 0.0347102 1.54711e-19)
(-0.032046 0.0351832 -2.95004e-18)
(-0.0307028 0.035892 3.0576e-18)
(-0.0293505 0.0365596 -4.02902e-19)
(-0.0279906 0.0371868 6.12222e-18)
(-0.0266249 0.0377742 -4.84472e-18)
(-0.0252547 0.0383228 -4.91163e-19)
(-0.0238815 0.0388337 -3.21685e-18)
(-0.0225062 0.039308 -8.45455e-18)
(-0.02113 0.0397467 -1.24681e-17)
(-0.0197537 0.0401511 4.59952e-18)
(-0.0183781 0.0405223 3.59004e-19)
(-0.0170037 0.0408614 -5.08897e-18)
(-0.0156311 0.0411696 -3.7496e-18)
(-0.0142606 0.0414479 -6.20476e-18)
(-0.0128924 0.0416972 6.1404e-18)
(-0.0115266 0.0419187 -7.11604e-20)
(-0.0101634 0.0421132 -2.25252e-18)
(-0.0088025 0.0422814 -4.55293e-18)
(-0.00744397 0.0424243 1.61344e-18)
(-0.00608747 0.0425422 2.22374e-18)
(-0.00473273 0.0426359 3.60319e-18)
(-0.00337942 0.0427058 1.14989e-18)
(-0.00202718 0.0427521 4.63788e-18)
(-0.000675573 0.0427752 1.72268e-18)
(0.00067581 0.0427752 8.24367e-18)
(0.00202741 0.042752 3.26555e-18)
(0.00337964 0.0427055 5.27989e-18)
(0.00473292 0.0426356 1.56607e-18)
(0.00608763 0.0425418 3.04109e-18)
(0.00744411 0.0424237 4.28009e-18)
(0.00880264 0.0422808 -2.16795e-18)
(0.0101634 0.0421125 -3.3566e-18)
(0.0115267 0.041918 -2.79946e-18)
(0.0128924 0.0416964 6.06986e-18)
(0.0142605 0.041447 -1.37356e-18)
(0.015631 0.0411687 -7.41387e-18)
(0.0170036 0.0408604 -5.13189e-18)
(0.018378 0.0405212 3.8109e-19)
(0.0197536 0.0401499 5.32701e-18)
(0.02113 0.0397454 -5.53639e-18)
(0.0225064 0.0393064 -1.75797e-17)
(0.0238819 0.038832 -1.51467e-18)
(0.0252557 0.0383212 -3.67588e-18)
(-0.0340676 0.0357063 -7.0287e-19)
(-0.0329864 0.0362168 -3.83524e-18)
(-0.031616 0.0369614 2.59487e-18)
(-0.030235 0.0376641 -5.03505e-19)
(-0.0288452 0.0383252 6.1854e-18)
(-0.027448 0.0389457 -4.0069e-18)
(-0.026045 0.0395263 -1.23693e-19)
(-0.0246376 0.0400679 -2.20058e-18)
(-0.0232268 0.0405717 -7.68381e-18)
(-0.0218139 0.0410386 -1.15936e-17)
(-0.0203996 0.0414698 4.72413e-18)
(-0.0189848 0.0418664 8.39099e-19)
(-0.0175702 0.0422293 -4.36014e-18)
(-0.0161564 0.0425596 -3.72063e-18)
(-0.0147436 0.0428585 -5.67597e-18)
(-0.0133322 0.0431268 5.81953e-18)
(-0.0119224 0.0433655 6.48404e-20)
(-0.0105144 0.0435753 -1.95603e-18)
(-0.0091081 0.043757 -4.41763e-18)
(-0.00770356 0.0439115 1.42111e-18)
(-0.00630055 0.0440393 1.96086e-18)
(-0.00489889 0.0441408 3.38522e-18)
(-0.00349834 0.0442166 7.59232e-19)
(-0.00209862 0.0442669 4.09635e-18)
(-0.000699406 0.0442919 8.50356e-19)
(0.000699636 0.0442919 7.11847e-18)
(0.00209884 0.0442667 2.78521e-18)
(0.00349855 0.0442163 4.41604e-18)
(0.00489908 0.0441404 8.20249e-19)
(0.00630071 0.0440388 2.21161e-18)
(0.0077037 0.043911 3.546e-18)
(0.00910823 0.0437564 -2.36886e-18)
(0.0105145 0.0435745 -3.27128e-18)
(0.0119225 0.0433647 -2.71124e-18)
(0.0133321 0.0431259 5.41705e-18)
(0.0147434 0.0428576 -1.49259e-18)
(0.0161562 0.0425587 -7.38885e-18)
(0.0175701 0.0422282 -5.53914e-18)
(0.0189847 0.0418652 2.93516e-20)
(0.0203995 0.0414686 4.75099e-18)
(0.0218139 0.0410372 -5.96286e-18)
(0.0232269 0.04057 -1.75401e-17)
(0.0246379 0.0400661 -2.16456e-18)
(0.026046 0.0395244 -4.43868e-18)
(0.0274487 0.0389466 -5.3822e-18)
(-0.0350272 0.0366937 -1.44222e-18)
(-0.0339191 0.037242 -4.44971e-18)
(-0.0325218 0.0380223 2.29651e-18)
(-0.0311125 0.0387597 -5.65465e-19)
(-0.0296929 0.0394548 6.32338e-18)
(-0.0282646 0.040108 -3.15335e-18)
(-0.026829 0.0407204 1.00988e-19)
(-0.0253877 0.0412926 -1.33003e-18)
(-0.0239418 0.0418258 -6.79615e-18)
(-0.0224924 0.0423208 -1.06779e-17)
(-0.0210405 0.0427786 4.88575e-18)
(-0.0195869 0.0432004 1.56937e-18)
(-0.0181324 0.043587 -3.8226e-18)
(-0.0166776 0.0439395 -3.70574e-18)
(-0.0152229 0.0442589 -5.10762e-18)
(-0.0137686 0.044546 5.44699e-18)
(-0.0123152 0.0448017 3.80563e-19)
(-0.0108628 0.0450268 -1.48458e-18)
(-0.00941143 0.045222 -4.10082e-18)
(-0.00796122 0.0453881 1.41944e-18)
(-0.00651205 0.0455255 1.77094e-18)
(-0.00506382 0.0456349 3.20775e-18)
(-0.00361638 0.0457165 4.19141e-19)
(-0.00216954 0.0457708 3.6246e-18)
(-0.000723063 0.0457978 1.44018e-19)
(0.000723286 0.0457978 6.14245e-18)
(0.00216976 0.0457706 2.31691e-18)
(0.00361659 0.0457163 3.7552e-18)
(0.005064 0.0456345 2.74699e-19)
(0.0065122 0.0455251 1.44061e-18)
(0.00796135 0.0453875 2.91686e-18)
(0.00941154 0.0452214 -2.50831e-18)
(0.0108628 0.045026 -3.17829e-18)
(0.0123153 0.0448008 -2.62632e-18)
(0.0137686 0.044545 4.69696e-18)
(0.0152227 0.0442579 -1.54502e-18)
(0.0166774 0.0439385 -7.37128e-18)
(0.0181323 0.0435859 -6.03553e-18)
(0.0195868 0.0431992 -3.69584e-19)
(0.0210404 0.0427773 4.28768e-18)
(0.0224924 0.0423193 -6.15836e-18)
(0.0239419 0.041824 -1.72165e-17)
(0.025388 0.0412907 -2.62522e-18)
(0.0268299 0.0407184 -5.34423e-18)
(0.0282649 0.0401084 -2.56061e-18)
(-0.0359792 0.0376725 -2.01492e-18)
(-0.034844 0.0382588 -4.92758e-18)
(-0.0334201 0.0390745 1.81156e-18)
(-0.0319827 0.0398465 -9.04173e-19)
(-0.0305336 0.0405752 6.43793e-18)
(-0.0290745 0.0412611 -2.58655e-18)
(-0.0276067 0.041905 1.4392e-19)
(-0.0261318 0.0425077 -7.88834e-19)
(-0.0246511 0.04307 -5.98576e-18)
(-0.0231655 0.0435929 -9.4377e-18)
(-0.0216763 0.0440773 5.17921e-18)
(-0.0201843 0.0445241 2.31422e-18)
(-0.0186902 0.0449343 -3.30854e-18)
(-0.0171947 0.0453088 -3.53959e-18)
(-0.0156984 0.0456486 -4.42542e-18)
(-0.0142017 0.0459544 5.16342e-18)
(-0.012705 0.0462271 8.18435e-19)
(-0.0112085 0.0464674 -1.06529e-18)
(-0.00971241 0.046676 -3.67426e-18)
(-0.0082169 0.0468537 1.49287e-18)
(-0.00672193 0.0470008 1.58046e-18)
(-0.00522749 0.047118 3.07141e-18)
(-0.00373352 0.0472055 2.5349e-19)
(-0.00223991 0.0472636 3.19289e-18)
(-0.000746539 0.0472926 -4.16481e-19)
(0.000746755 0.0472926 5.31145e-18)
(0.00224012 0.0472634 1.92135e-18)
(0.00373371 0.0472052 3.26093e-18)
(0.00522766 0.0471176 -1.67621e-19)
(0.00672207 0.0470004 7.26373e-19)
(0.00821702 0.0468531 2.44863e-18)
(0.00971252 0.0466754 -2.50805e-18)
(0.0112085 0.0464667 -3.31335e-18)
(0.012705 0.0462263 -2.60483e-18)
(0.0142016 0.0459534 4.11246e-18)
(0.0156983 0.0456476 -1.60767e-18)
(0.0171945 0.0453078 -7.2388e-18)
(0.01869 0.0449332 -6.24485e-18)
(0.0201841 0.0445229 -8.62634e-19)
(0.0216762 0.0440759 3.74454e-18)
(0.0231655 0.0435914 -6.33477e-18)
(0.0246511 0.0430682 -1.66767e-17)
(0.0261321 0.0425057 -3.2254e-18)
(0.0276076 0.0419028 -5.9833e-18)
(0.0290744 0.041261 2.48726e-19)
(-0.0369235 0.0386426 -2.50079e-18)
(-0.0357611 0.0392669 -5.05935e-18)
(-0.0343108 0.0401178 1.24762e-18)
(-0.0328456 0.0409241 -1.10889e-18)
(-0.0313673 0.0416863 6.52919e-18)
(-0.0298776 0.0424047 -2.12262e-18)
(-0.0283779 0.04308 3.12001e-19)
(-0.0268698 0.0437129 -3.89825e-19)
(-0.0253545 0.0443043 -5.22841e-18)
(-0.0238332 0.0448549 -8.14136e-18)
(-0.0223069 0.0453657 5.69249e-18)
(-0.0207767 0.0458374 2.56846e-18)
(-0.0192434 0.0462711 -2.66389e-18)
(-0.0177077 0.0466674 -3.29879e-18)
(-0.0161701 0.0470275 -3.77656e-18)
(-0.0146313 0.0473519 5.20815e-18)
(-0.0130916 0.0476415 1.18083e-18)
(-0.0115514 0.047897 -5.04244e-19)
(-0.010011 0.0481189 -3.0619e-18)
(-0.00847055 0.0483081 1.56209e-18)
(-0.00693015 0.0484648 1.34635e-18)
(-0.00538986 0.0485897 2.91223e-18)
(-0.00384973 0.048683 2.49476e-19)
(-0.00230973 0.0487451 2.88165e-18)
(-0.00076983 0.048776 -8.23872e-19)
(0.000770039 0.048776 4.61697e-18)
(0.00230994 0.0487449 1.56822e-18)
(0.00384992 0.0486828 2.85625e-18)
(0.00539003 0.0485893 -5.67954e-19)
(0.00693029 0.0484644 6.4982e-20)
(0.00847067 0.0483075 2.04033e-18)
(0.0100111 0.0481183 -2.51991e-18)
(0.0115515 0.0478962 -3.11052e-18)
(0.0130916 0.0476407 -2.4413e-18)
(0.0146312 0.0473509 3.52307e-18)
(0.01617 0.0470265 -1.6102e-18)
(0.0177075 0.0466664 -6.98796e-18)
(0.0192432 0.0462699 -6.17254e-18)
(0.0207765 0.0458362 -9.92891e-19)
(0.0223068 0.0453643 3.30384e-18)
(0.0238331 0.0448533 -6.21701e-18)
(0.0253545 0.0443024 -1.60777e-17)
(0.02687 0.0437108 -3.51267e-18)
(0.0283787 0.0430777 -6.54073e-18)
(0.0298772 0.042404 3.03924e-18)
(-0.0378599 0.0396038 -3.05053e-18)
(-0.0366702 0.0402663 -4.65251e-18)
(-0.0351938 0.0411522 1.07638e-18)
(-0.0337011 0.0419927 -1.01428e-18)
(-0.0321939 0.0427881 6.50927e-18)
(-0.0306739 0.0435387 -1.41654e-18)
(-0.0291426 0.0442452 5.77547e-19)
(-0.0276016 0.0449082 2.72875e-19)
(-0.026052 0.0455284 -4.42989e-18)
(-0.0244952 0.0461066 -6.94444e-18)
(-0.0229323 0.0466435 6.13086e-18)
(-0.0213643 0.0471401 2.65715e-18)
(-0.0197921 0.047597 -1.88143e-18)
(-0.0182164 0.0480152 -2.8887e-18)
(-0.016638 0.0483954 -3.12651e-18)
(-0.0150574 0.0487383 5.37171e-18)
(-0.0134751 0.0490447 1.55823e-18)
(-0.0118916 0.0493152 -5.02477e-20)
(-0.0103072 0.0495504 -2.29064e-18)
(-0.00872214 0.049751 1.64439e-18)
(-0.00713667 0.0499173 1.27934e-18)
(-0.00555092 0.0500499 2.87911e-18)
(-0.003965 0.050149 3.02231e-19)
(-0.00237899 0.0502149 2.59099e-18)
(-0.000792933 0.0502478 -1.14296e-18)
(0.000793135 0.0502478 4.00554e-18)
(0.00237919 0.0502148 1.27641e-18)
(0.00396518 0.0501488 2.4556e-18)
(0.00555108 0.0500495 -8.51814e-19)
(0.00713681 0.0499169 -3.16198e-19)
(0.00872225 0.0497504 1.63377e-18)
(0.0103073 0.0495498 -2.42081e-18)
(0.0118916 0.0493144 -2.74319e-18)
(0.0134751 0.0490438 -2.26347e-18)
(0.0150573 0.0487373 3.11072e-18)
(0.0166378 0.0483943 -1.42783e-18)
(0.0182162 0.0480141 -6.56552e-18)
(0.0197919 0.0475958 -6.06051e-18)
(0.0213641 0.0471388 -1.01531e-18)
(0.0229321 0.0466421 3.20209e-18)
(0.0244951 0.0461049 -6.11951e-18)
(0.0260519 0.0455265 -1.55245e-17)
(0.0276017 0.044906 -3.38891e-18)
(0.0291434 0.0442427 -7.14022e-18)
(-0.0387883 0.0405561 -3.48208e-18)
(-0.0375713 0.0412569 -4.09872e-18)
(-0.036069 0.0421775 1.01347e-18)
(-0.0345491 0.0430519 -1.11298e-18)
(-0.0330133 0.0438803 6.2553e-18)
(-0.0314633 0.044663 -7.08556e-19)
(-0.0299007 0.0454005 9.45036e-19)
(-0.028327 0.0460934 9.59814e-19)
(-0.0267435 0.0467422 -3.69525e-18)
(-0.0251516 0.0473478 -5.99907e-18)
(-0.0235524 0.0479108 6.543e-18)
(-0.0219469 0.0484319 2.88131e-18)
(-0.0203361 0.048912 -1.2874e-18)
(-0.0187209 0.0493518 -2.28483e-18)
(-0.0171019 0.0497521 -2.60607e-18)
(-0.0154799 0.0501134 5.68582e-18)
(-0.0138554 0.0504365 2.06135e-18)
(-0.0122289 0.0507219 3.35469e-19)
(-0.0106009 0.0509703 -1.5024e-18)
(-0.00897164 0.0511823 1.76137e-18)
(-0.00734149 0.0513581 1.30432e-18)
(-0.00571064 0.0514984 2.87896e-18)
(-0.00407932 0.0516032 3.30119e-19)
(-0.00244767 0.051673 2.33079e-18)
(-0.000815844 0.0517078 -1.36837e-18)
(0.00081604 0.0517077 3.49669e-18)
(0.00244786 0.0516728 1.02517e-18)
(0.00407949 0.0516029 1.96621e-18)
(0.0057108 0.051498 -1.03106e-18)
(0.00734161 0.0513577 -6.05936e-19)
(0.00897174 0.0511817 1.22096e-18)
(0.0106009 0.0509697 -2.27934e-18)
(0.0122289 0.0507211 -2.55386e-18)
(0.0138554 0.0504356 -2.02282e-18)
(0.0154798 0.0501124 3.12031e-18)
(0.0171017 0.049751 -1.2467e-18)
(0.0187206 0.0493507 -6.0677e-18)
(0.0203359 0.0489108 -5.77429e-18)
(0.0219466 0.0484306 -9.58382e-19)
(0.0235521 0.0479093 3.27914e-18)
(0.0251514 0.0473461 -5.86914e-18)
(0.0267434 0.0467402 -1.47533e-17)
(0.0283271 0.046091 -3.51614e-18)
(0.0299014 0.0453979 -7.3631e-18)
(-0.0397088 0.0414995 -3.61561e-18)
(-0.0384643 0.0422387 -3.74918e-18)
(-0.0369364 0.0431938 9.61595e-19)
(-0.0353895 0.0441019 -1.26073e-18)
(-0.0338254 0.0449631 5.81996e-18)
(-0.0322457 0.0457776 6.75275e-20)
(-0.0306521 0.0465458 1.52153e-18)
(-0.0290461 0.0472683 1.61537e-18)
(-0.027429 0.0479456 -2.61834e-18)
(-0.0258023 0.0485784 -4.814e-18)
(-0.024167 0.0491672 6.74539e-18)
(-0.0225244 0.0497129 3.26157e-18)
(-0.0208754 0.050216 -8.01591e-19)
(-0.019221 0.0506772 -1.78069e-18)
(-0.0175619 0.0510974 -1.99443e-18)
(-0.0158988 0.051477 6.09255e-18)
(-0.0142324 0.0518167 2.48595e-18)
(-0.0125633 0.052117 9.43261e-19)
(-0.0108921 0.0523785 -7.69885e-19)
(-0.00921902 0.0526017 1.99792e-18)
(-0.00754456 0.052787 1.38598e-18)
(-0.00586901 0.0529349 2.85639e-18)
(-0.00419266 0.0530454 4.08856e-19)
(-0.00251577 0.053119 2.16773e-18)
(-0.000838561 0.0531557 -1.52324e-18)
(0.000838751 0.0531557 3.00812e-18)
(0.00251595 0.0531189 7.1875e-19)
(0.00419283 0.0530452 1.47023e-18)
(0.00586916 0.0529345 -1.08927e-18)
(0.00754468 0.0527866 -9.22359e-19)
(0.00921911 0.0526011 9.53433e-19)
(0.0108921 0.0523778 -2.17208e-18)
(0.0125634 0.0521162 -2.30085e-18)
(0.0142324 0.0518158 -1.62962e-18)
(0.0158987 0.051476 3.18917e-18)
(0.0175617 0.0510963 -8.99863e-19)
(0.0192207 0.0506761 -5.52136e-18)
(0.0208752 0.0502148 -5.26244e-18)
(0.0225242 0.0497115 -7.40829e-19)
(0.0241668 0.0491657 3.00843e-18)
(0.0258021 0.0485767 -5.14292e-18)
(0.0274289 0.0479436 -1.36263e-17)
(0.0290461 0.0472659 -3.62755e-18)
(0.0306527 0.0465431 -7.3865e-18)
(-0.0406212 0.042434 -3.5884e-18)
(-0.0393492 0.0432116 -3.4702e-18)
(-0.037796 0.0442009 5.78803e-19)
(-0.0362224 0.0451424 -1.2771e-18)
(-0.0346302 0.0460361 5.64302e-18)
(-0.0330211 0.0468822 8.90798e-19)
(-0.0313968 0.047681 2.16736e-18)
(-0.0297587 0.0484329 2.3679e-18)
(-0.0281084 0.0491385 -1.20856e-18)
(-0.0264472 0.0497983 -3.37756e-18)
(-0.0247763 0.0504128 6.87984e-18)
(-0.0230969 0.0509827 3.67033e-18)
(-0.02141 0.0515087 -1.48411e-19)
(-0.0197167 0.0519913 -1.43759e-18)
(-0.0180178 0.0524312 -1.37211e-18)
(-0.016314 0.052829 6.33578e-18)
(-0.0146062 0.0531851 2.83819e-18)
(-0.0128949 0.0535002 1.76971e-18)
(-0.0111807 0.0537747 6.37236e-20)
(-0.00946425 0.0540092 2.2135e-18)
(-0.00774587 0.0542039 1.53634e-18)
(-0.006026 0.0543593 2.82719e-18)
(-0.00430503 0.0544755 5.29394e-19)
(-0.00258328 0.0545529 2.03487e-18)
(-0.000861082 0.0545915 -1.64141e-18)
(0.000861265 0.0545915 2.52578e-18)
(0.00258346 0.0545528 4.31476e-19)
(0.00430519 0.0544753 1.01737e-18)
(0.00602615 0.0543589 -1.13787e-18)
(0.00774598 0.0542034 -1.15777e-18)
(0.00946434 0.0540086 7.02841e-19)
(0.0111808 0.0537741 -2.11197e-18)
(0.0128949 0.0534994 -1.86187e-18)
(0.0146061 0.0531842 -1.26018e-18)
(0.0163139 0.0528279 3.2201e-18)
(0.0180176 0.0524301 -5.54639e-19)
(0.0197164 0.0519902 -4.95032e-18)
(0.0214098 0.0515075 -4.70636e-18)
(0.0230966 0.0509814 -3.02962e-19)
(0.024776 0.0504113 2.90131e-18)
(0.0264469 0.0497965 -4.37315e-18)
(0.0281082 0.0491364 -1.2196e-17)
(0.0297588 0.0484305 -3.57614e-18)
(0.0313973 0.0476782 -7.45568e-18)
(-0.0415255 0.0433594 -3.4654e-18)
(-0.0402259 0.0441755 -3.30203e-18)
(-0.0386476 0.0451988 2.27163e-19)
(-0.0370476 0.0461735 -1.19057e-18)
(-0.0354276 0.0470995 5.64145e-18)
(-0.0337895 0.0479769 1.6944e-18)
(-0.0321347 0.0488061 2.58479e-18)
(-0.030465 0.0495872 3.07904e-18)
(-0.0287817 0.0503208 3.66648e-19)
(-0.0270863 0.0510074 -1.90974e-18)
(-0.02538 0.0516474 7.27586e-18)
(-0.0236642 0.0522415 4.11847e-18)
(-0.0219398 0.0527901 5.39323e-19)
(-0.020208 0.0532939 -1.11948e-18)
(-0.0184696 0.0537535 -8.02287e-19)
(-0.0167255 0.0541692 6.73282e-18)
(-0.0149766 0.0545417 3.21637e-18)
(-0.0132235 0.0548715 2.55729e-18)
(-0.0114668 0.0551589 9.70341e-19)
(-0.00970731 0.0554045 2.52675e-18)
(-0.0079454 0.0556086 1.73364e-18)
(-0.00618161 0.0557715 2.72954e-18)
(-0.0044164 0.0558934 6.52525e-19)
(-0.0026502 0.0559745 1.92403e-18)
(-0.000883404 0.056015 -1.68615e-18)
(0.00088358 0.056015 2.04695e-18)
(0.00265037 0.0559744 1.01368e-19)
(0.00441656 0.0558931 5.48993e-19)
(0.00618175 0.0557711 -1.28032e-18)
(0.00794551 0.0556081 -1.39938e-18)
(0.00970739 0.055404 4.11713e-19)
(0.0114669 0.0551583 -1.9289e-18)
(0.0132235 0.0548707 -1.50348e-18)
(0.0149765 0.0545409 -9.97125e-19)
(0.0167254 0.0541682 3.22399e-18)
(0.0184694 0.0537524 -3.86491e-19)
(0.0202077 0.0532928 -4.35021e-18)
(0.0219395 0.0527889 -4.0721e-18)
(0.0236639 0.0522401 5.73136e-20)
(0.0253797 0.0516459 3.05419e-18)
(0.027086 0.0510056 -3.52555e-18)
(0.0287814 0.0503187 -1.06172e-17)
(0.0304649 0.0495847 -3.44092e-18)
(0.0321351 0.0488031 -7.38732e-18)
(-0.0424216 0.0442759 -3.53378e-18)
(-0.0410944 0.0451305 -2.96157e-18)
(-0.0394913 0.0461875 1.18973e-19)
(-0.0378651 0.0471951 -9.31774e-19)
(-0.0362177 0.0481531 5.74964e-18)
(-0.0345507 0.0490617 2.28495e-18)
(-0.0328658 0.0499209 2.96892e-18)
(-0.0311647 0.050731 3.88694e-18)
(-0.0294488 0.0514925 1.66789e-18)
(-0.0277195 0.0522057 -4.78778e-19)
(-0.0259783 0.052871 7.69822e-18)
(-0.0242263 0.053489 4.5427e-18)
(-0.0224648 0.0540602 1.11392e-18)
(-0.0206948 0.054585 -6.3335e-19)
(-0.0189174 0.055064 -3.62927e-19)
(-0.0171333 0.0554977 6.95894e-18)
(-0.0153437 0.0558864 3.74082e-18)
(-0.0135491 0.0562308 3.18206e-18)
(-0.0117504 0.056531 1.65546e-18)
(-0.00994818 0.0567877 2.74073e-18)
(-0.00814314 0.057001 1.99163e-18)
(-0.00633583 0.0571713 2.73483e-18)
(-0.00452678 0.0572988 7.58057e-19)
(-0.00271651 0.0573837 1.73694e-18)
(-0.000905526 0.0574261 -1.69327e-18)
(0.000905696 0.057426 1.60465e-18)
(0.00271667 0.0573835 -2.69927e-19)
(0.00452693 0.0572985 8.62692e-20)
(0.00633596 0.0571709 -1.37858e-18)
(0.00814325 0.0570005 -1.61442e-18)
(0.00994826 0.0567871 2.37471e-19)
(0.0117504 0.0565303 -1.77163e-18)
(0.0135491 0.05623 -1.25976e-18)
(0.0153436 0.0558855 -4.51952e-19)
(0.0171332 0.0554966 3.18639e-18)
(0.0189171 0.0550629 -3.00004e-19)
(0.0206946 0.0545839 -3.8578e-18)
(0.0224645 0.0540589 -3.61841e-18)
(0.024226 0.0534876 2.89106e-19)
(0.025978 0.0528695 3.17714e-18)
(0.0277192 0.0522039 -2.51358e-18)
(0.0294485 0.0514904 -8.94911e-18)
(0.0311646 0.0507285 -3.03439e-18)
(0.0328662 0.0499178 -7.15577e-18)
(-0.0433095 0.0451833 -3.494e-18)
(-0.0419547 0.0460765 -2.56648e-18)
(-0.040327 0.0471669 -1.51146e-20)
(-0.0386749 0.0482071 -4.60794e-19)
(-0.0370003 0.049197 5.88614e-18)
(-0.0353048 0.0501364 2.53753e-18)
(-0.0335901 0.0510254 3.34876e-18)
(-0.0318579 0.0518644 4.78695e-18)
(-0.0301096 0.0526534 2.55312e-18)
(-0.0283469 0.053393 7.96615e-19)
(-0.026571 0.0540835 7.88454e-18)
(-0.0247833 0.0547252 5.13609e-18)
(-0.0229849 0.0553187 1.68209e-18)
(-0.0211772 0.0558644 -9.71632e-22)
(-0.019361 0.0563628 3.47194e-19)
(-0.0175374 0.0568142 6.86697e-18)
(-0.0157074 0.0572191 4.20696e-18)
(-0.0138717 0.0575778 3.65088e-18)
(-0.0120313 0.0578908 2.32613e-18)
(-0.0101869 0.0581585 2.84223e-18)
(-0.00833908 0.058381 2.1584e-18)
(-0.00648863 0.0585587 2.84436e-18)
(-0.00463614 0.0586918 9.03582e-19)
(-0.00278222 0.0587804 1.49967e-18)
(-0.000927446 0.0588246 -1.71984e-18)
(0.00092761 0.0588246 1.201e-18)
(0.00278238 0.0587802 -6.32059e-19)
(0.00463629 0.0586915 -3.76805e-19)
(0.00648876 0.0585583 -1.49295e-18)
(0.00833918 0.0583805 -1.76606e-18)
(0.0101869 0.0581579 -4.51253e-20)
(0.0120313 0.0578902 -1.60443e-18)
(0.0138717 0.057577 -7.47831e-19)
(0.0157073 0.0572182 2.00076e-20)
(0.0175373 0.0568132 3.07969e-18)
(0.0193608 0.0563617 1.83552e-19)
(0.0211769 0.0558633 -3.54425e-18)
(0.0229846 0.0553175 -3.05337e-18)
(0.0247829 0.0547239 6.96379e-19)
(0.0265706 0.0540819 3.37673e-18)
(0.0283465 0.0533912 -1.42196e-18)
(0.0301093 0.0526513 -7.28717e-18)
(0.0318577 0.0518617 -2.39301e-18)
(0.0335904 0.0510223 -6.68965e-18)
(-0.0441892 0.0460817 -3.35841e-18)
(-0.0428067 0.0470134 -2.36332e-18)
(-0.0411547 0.048137 -4.08328e-20)
(-0.0394771 0.0492096 -1.89009e-19)
(-0.0377755 0.050231 5.78624e-18)
(-0.0360517 0.051201 3.01509e-18)
(-0.0343075 0.0521197 3.78458e-18)
(-0.0325445 0.0529871 5.674e-18)
(-0.0307643 0.0538036 3.48023e-18)
(-0.0289683 0.0545694 1.98531e-18)
(-0.0271581 0.0552848 8.27056e-18)
(-0.025335 0.0559501 5.73732e-18)
(-0.0235002 0.0565658 2.47326e-18)
(-0.021655 0.0571322 7.18534e-19)
(-0.0198005 0.0576497 1.04734e-18)
(-0.0179377 0.0581187 6.7995e-18)
(-0.0160677 0.0585396 4.86874e-18)
(-0.0141914 0.0589127 4.23825e-18)
(-0.0123096 0.0592384 3.14005e-18)
(-0.0104233 0.0595169 3.15033e-18)
(-0.0085332 0.0597485 2.30435e-18)
(-0.00664002 0.0599336 2.82119e-18)
(-0.0047445 0.0600722 1.0711e-18)
(-0.00284732 0.0601644 1.29493e-18)
(-0.000949163 0.0602105 -1.73168e-18)
(0.000949321 0.0602105 7.5478e-19)
(0.00284747 0.0601643 -9.42179e-19)
(0.00474464 0.0600719 -8.07023e-19)
(0.00664014 0.0599332 -1.70573e-18)
(0.00853329 0.0597481 -1.90381e-18)
(0.0104234 0.0595163 -3.64171e-19)
(0.0123097 0.0592377 -1.41501e-18)
(0.0141914 0.0589119 -2.72056e-19)
(0.0160676 0.0585387 4.96667e-19)
(0.0179376 0.0581177 2.88447e-18)
(0.0198003 0.0576486 5.02784e-19)
(0.0216547 0.057131 -2.8268e-18)
(0.0234999 0.0565645 -2.15914e-18)
(0.0253347 0.0559487 1.20378e-18)
(0.0271578 0.0552832 3.94638e-18)
(0.028968 0.0545676 -6.59294e-19)
(0.0307639 0.0538014 -5.59532e-18)
(0.0325443 0.0529845 -1.75761e-18)
(0.0343078 0.0521164 -6.0568e-18)
(-0.0450607 0.0469711 -3.34166e-18)
(-0.0436505 0.0479413 -2.27461e-18)
(-0.0419744 0.0490978 -1.90106e-20)
(-0.0402714 0.0502025 1.87181e-19)
(-0.0385432 0.0512552 5.64643e-18)
(-0.0367915 0.0522556 3.52589e-18)
(-0.0350181 0.0532036 4.25021e-18)
(-0.0332246 0.0540994 6.49156e-18)
(-0.0314127 0.054943 4.58743e-18)
(-0.0295839 0.0557348 3.41353e-18)
(-0.0277397 0.0564748 8.74918e-18)
(-0.0258815 0.0571636 6.16868e-18)
(-0.0240106 0.0578012 3.23699e-18)
(-0.0221283 0.0583882 1.44362e-18)
(-0.0202358 0.0589247 1.84479e-18)
(-0.0183343 0.0594112 6.93937e-18)
(-0.0164246 0.059848 5.60492e-18)
(-0.014508 0.0602353 4.92425e-18)
(-0.0125854 0.0605735 3.91556e-18)
(-0.0106576 0.0608628 3.47655e-18)
(-0.0087255 0.0611035 2.50663e-18)
(-0.00678999 0.0612958 2.80737e-18)
(-0.00485184 0.0614399 1.22096e-18)
(-0.00291182 0.0615358 1.08132e-18)
(-0.000970677 0.0615838 -1.71369e-18)
(0.000970829 0.0615837 3.31107e-19)
(0.00291196 0.0615357 -1.25902e-18)
(0.00485197 0.0614396 -1.2603e-18)
(0.00679011 0.0612955 -1.85924e-18)
(0.00872559 0.0611031 -2.06941e-18)
(0.0106576 0.0608622 -5.50422e-19)
(0.0125854 0.0605728 -1.17213e-18)
(0.014508 0.0602345 1.28164e-19)
(0.0164246 0.0598471 1.06825e-18)
(0.0183341 0.0594102 2.83633e-18)
(0.0202356 0.0589236 8.81656e-19)
(0.0221281 0.058387 -1.84455e-18)
(0.0240103 0.0578 -1.20178e-18)
(0.0258811 0.0571622 1.84178e-18)
(0.0277393 0.0564733 4.34223e-18)
(0.0295835 0.0557329 1.23435e-19)
(0.0314123 0.0549408 -3.80822e-18)
(0.0332243 0.0540966 -1.11023e-18)
(0.0350183 0.0532002 -5.53345e-18)
(-0.045924 0.0478515 -3.21913e-18)
(-0.044486 0.0488601 -2.11469e-18)
(-0.0427862 0.0500492 -1.26189e-19)
(-0.0410581 0.0511859 6.9811e-19)