/*--------------------------------*- C++ -*----------------------------------*\
  =========                 |
  \\      /  F ield         | OpenFOAM: The Open Source CFD Toolbox
   \\    /   O peration     | Website:  https://openfoam.org
    \\  /    A nd           | Version:  7
     \\/     M anipulation  |
\*---------------------------------------------------------------------------*/
FoamFile
{
    version     2.0;
    format      ascii;
    class       volScalarField;
    location    "272000";
    object      k;
}
// * * * * * * * * * * * * * * * * * * * * * * * * * * * * * * * * * * * * * //

dimensions      [0 2 -2 0 0 0 0];

internalField   nonuniform List<scalar> 
4783
(
6.48453e-07
6.44365e-07
6.40493e-07
6.3683e-07
6.33376e-07
6.30124e-07
6.27071e-07
6.24211e-07
6.21542e-07
6.19058e-07
6.16757e-07
6.14635e-07
6.12687e-07
6.10909e-07
6.09298e-07
6.07849e-07
6.06559e-07
6.05423e-07
6.04439e-07
6.03602e-07
6.02909e-07
6.02359e-07
6.55431e-07
6.5143e-07
6.47536e-07
6.43787e-07
6.40214e-07
6.3683e-07
6.33639e-07
6.3064e-07
6.27833e-07
6.25214e-07
6.22781e-07
6.20531e-07
6.18461e-07
6.16568e-07
6.14848e-07
6.13298e-07
6.11915e-07
6.10695e-07
6.09635e-07
6.08733e-07
6.07985e-07
6.0739e-07
6.62998e-07
6.58856e-07
6.54884e-07
6.51054e-07
6.47382e-07
6.43885e-07
6.40572e-07
6.37446e-07
6.34509e-07
6.31762e-07
6.29204e-07
6.26832e-07
6.24645e-07
6.2264e-07
6.20814e-07
6.19166e-07
6.17692e-07
6.1639e-07
6.15257e-07
6.14291e-07
6.13489e-07
6.1285e-07
6.70923e-07
6.66626e-07
6.62531e-07
6.58597e-07
6.54825e-07
6.51223e-07
6.47799e-07
6.44559e-07
6.41506e-07
6.38642e-07
6.35968e-07
6.33484e-07
6.31188e-07
6.29078e-07
6.27155e-07
6.25414e-07
6.23856e-07
6.22477e-07
6.21275e-07
6.20249e-07
6.19397e-07
6.18717e-07
6.7914e-07
6.74703e-07
6.70478e-07
6.66426e-07
6.62546e-07
6.5884e-07
6.55311e-07
6.51964e-07
6.48804e-07
6.45833e-07
6.43053e-07
6.40465e-07
6.38068e-07
6.35863e-07
6.33848e-07
6.32022e-07
6.30385e-07
6.28934e-07
6.27668e-07
6.26587e-07
6.25687e-07
6.2497e-07
6.87613e-07
6.83052e-07
6.78702e-07
6.74533e-07
6.70543e-07
6.66731e-07
6.63099e-07
6.59651e-07
6.56391e-07
6.5332e-07
6.50441e-07
6.47757e-07
6.45267e-07
6.42973e-07
6.40873e-07
6.38969e-07
6.37258e-07
6.35741e-07
6.34416e-07
6.33282e-07
6.32339e-07
6.31586e-07
6.96314e-07
6.91642e-07
6.87179e-07
6.82899e-07
6.78801e-07
6.74886e-07
6.71154e-07
6.67609e-07
6.64253e-07
6.61088e-07
6.58118e-07
6.55344e-07
6.52768e-07
6.50391e-07
6.48213e-07
6.46235e-07
6.44456e-07
6.42877e-07
6.41497e-07
6.40315e-07
6.39332e-07
6.38545e-07
7.0522e-07
7.00448e-07
6.95882e-07
6.915e-07
6.87301e-07
6.83288e-07
6.79461e-07
6.75822e-07
6.72375e-07
6.69122e-07
6.66066e-07
6.63209e-07
6.60552e-07
6.58098e-07
6.55848e-07
6.53801e-07
6.5196e-07
6.50323e-07
6.48892e-07
6.47666e-07
6.46644e-07
6.45827e-07
7.1431e-07
7.09449e-07
7.04791e-07
7.00315e-07
6.96024e-07
6.91918e-07
6.88001e-07
6.84275e-07
6.80743e-07
6.77407e-07
6.7427e-07
6.71335e-07
6.68603e-07
6.66078e-07
6.6376e-07
6.6165e-07
6.5975e-07
6.58061e-07
6.56582e-07
6.55314e-07
6.54257e-07
6.53412e-07
7.23567e-07
7.18626e-07
7.13886e-07
7.09325e-07
7.04948e-07
7.00758e-07
6.96758e-07
6.9295e-07
6.89338e-07
6.85924e-07
6.82712e-07
6.79704e-07
6.76903e-07
6.74311e-07
6.7193e-07
6.69762e-07
6.67808e-07
6.6607e-07
6.64547e-07
6.63241e-07
6.62152e-07
6.6128e-07
7.32973e-07
7.27962e-07
7.23147e-07
7.1851e-07
7.14057e-07
7.09789e-07
7.05712e-07
7.01829e-07
6.98143e-07
6.94657e-07
6.91375e-07
6.883e-07
6.85435e-07
6.82781e-07
6.80342e-07
6.7812e-07
6.76116e-07
6.74332e-07
6.72769e-07
6.71427e-07
6.70308e-07
6.69412e-07
7.42512e-07
7.37439e-07
7.32558e-07
7.27854e-07
7.23331e-07
7.18994e-07
7.14847e-07
7.10895e-07
7.07141e-07
7.03589e-07
7.00243e-07
6.97106e-07
6.9418e-07
6.9147e-07
6.88978e-07
6.86706e-07
6.84656e-07
6.82829e-07
6.81229e-07
6.79854e-07
6.78708e-07
6.7779e-07
7.5217e-07
7.47043e-07
7.42104e-07
7.3734e-07
7.32755e-07
7.28356e-07
7.24146e-07
7.20131e-07
7.16316e-07
7.12703e-07
7.09298e-07
7.06103e-07
7.03124e-07
7.00361e-07
6.9782e-07
6.95502e-07
6.93409e-07
6.91545e-07
6.89909e-07
6.88505e-07
6.87333e-07
6.86394e-07
7.61933e-07
7.56759e-07
7.5177e-07
7.46953e-07
7.42314e-07
7.37858e-07
7.33593e-07
7.29522e-07
7.2565e-07
7.21983e-07
7.18524e-07
7.15277e-07
7.12248e-07
7.09438e-07
7.06852e-07
7.04491e-07
7.0236e-07
7.0046e-07
6.98793e-07
6.97362e-07
6.96166e-07
6.95209e-07
7.71788e-07
7.66574e-07
7.61542e-07
7.56679e-07
7.51992e-07
7.47487e-07
7.43172e-07
7.39051e-07
7.35129e-07
7.31412e-07
7.27905e-07
7.24612e-07
7.21537e-07
7.18684e-07
7.16057e-07
7.13658e-07
7.11492e-07
7.0956e-07
7.07864e-07
7.06407e-07
7.81722e-07
7.76475e-07
7.71406e-07
7.66504e-07
7.61776e-07
7.57229e-07
7.52869e-07
7.48704e-07
7.44738e-07
7.40977e-07
7.37427e-07
7.34091e-07
7.30976e-07
7.28084e-07
7.2542e-07
7.22987e-07
7.20788e-07
7.18827e-07
7.17106e-07
7.91725e-07
7.8645e-07
7.81351e-07
7.76415e-07
7.71652e-07
7.67068e-07
7.62671e-07
7.58467e-07
7.54462e-07
7.50663e-07
7.47074e-07
7.43702e-07
7.4055e-07
7.37623e-07
7.34926e-07
7.32462e-07
7.30234e-07
8.01784e-07
7.96488e-07
7.91364e-07
7.86401e-07
7.81609e-07
7.76994e-07
7.72565e-07
7.68328e-07
7.64289e-07
7.60456e-07
7.56834e-07
7.53428e-07
7.50244e-07
7.47287e-07
8.11889e-07
8.06578e-07
8.01435e-07
7.96451e-07
7.91634e-07
7.86994e-07
7.82538e-07
7.78273e-07
7.74206e-07
7.70344e-07
7.66692e-07
7.63258e-07
8.22031e-07
8.1671e-07
8.11552e-07
8.06552e-07
8.01717e-07
7.97057e-07
7.92579e-07
7.88291e-07
7.842e-07
7.80313e-07
8.322e-07
8.26873e-07
8.21707e-07
8.16696e-07
8.11848e-07
8.07172e-07
8.02676e-07
7.9837e-07
7.9426e-07
8.42387e-07
8.3706e-07
8.3189e-07
8.26872e-07
8.22015e-07
8.17328e-07
8.1282e-07
8.085e-07
8.52585e-07
8.47261e-07
8.42091e-07
8.37071e-07
8.3221e-07
8.27516e-07
8.23e-07
8.62784e-07
8.57468e-07
8.52303e-07
8.47285e-07
8.42423e-07
8.37728e-07
8.72977e-07
8.67674e-07
8.62517e-07
8.57505e-07
8.52647e-07
8.47953e-07
8.83158e-07
8.7787e-07
8.72726e-07
8.67724e-07
8.62874e-07
8.9332e-07
8.88051e-07
8.82923e-07
8.77934e-07
9.03455e-07
8.98209e-07
8.931e-07
8.88128e-07
9.13559e-07
9.08338e-07
9.03252e-07
9.23625e-07
9.18433e-07
9.13372e-07
9.33649e-07
9.28488e-07
9.23455e-07
9.43625e-07
9.38497e-07
9.33495e-07
9.53548e-07
9.48456e-07
9.43488e-07
9.63413e-07
9.58361e-07
9.53428e-07
9.73218e-07
9.68206e-07
9.63311e-07
9.82956e-07
9.77987e-07
9.73132e-07
9.92626e-07
9.87701e-07
9.82888e-07
1.00222e-06
9.97344e-07
9.92574e-07
1.01174e-06
1.00691e-06
1.00219e-06
1.02118e-06
1.0164e-06
1.01172e-06
1.03054e-06
1.02581e-06
1.02118e-06
1.03982e-06
1.03514e-06
1.03056e-06
6.48453e-07
6.55431e-07
6.62998e-07
6.70923e-07
6.7914e-07
6.87613e-07
6.96314e-07
7.0522e-07
7.1431e-07
7.23567e-07
7.32973e-07
7.42512e-07
7.5217e-07
7.61933e-07
7.71788e-07
7.81722e-07
7.91725e-07
8.01784e-07
8.11889e-07
8.22031e-07
8.322e-07
8.42387e-07
8.52585e-07
8.62784e-07
8.72977e-07
8.83158e-07
8.9332e-07
9.03455e-07
9.13559e-07
9.23625e-07
9.33649e-07
9.43625e-07
9.53548e-07
9.63413e-07
9.73218e-07
9.82956e-07
9.92626e-07
1.00222e-06
1.01174e-06
1.02118e-06
1.03054e-06
1.03982e-06
6.44365e-07
6.5143e-07
6.58856e-07
6.66626e-07
6.74703e-07
6.83052e-07
6.91642e-07
7.00448e-07
7.09449e-07
7.18626e-07
7.27962e-07
7.37439e-07
7.47043e-07
7.56759e-07
7.66574e-07
7.76475e-07
7.8645e-07
7.96488e-07
8.06578e-07
8.1671e-07
8.26873e-07
8.3706e-07
8.47261e-07
8.57468e-07
8.67674e-07
8.7787e-07
8.88051e-07
8.98209e-07
9.08338e-07
9.18433e-07
9.28488e-07
9.38497e-07
9.48456e-07
9.58361e-07
9.68206e-07
9.77987e-07
9.87701e-07
9.97344e-07
1.00691e-06
1.0164e-06
1.02581e-06
1.03514e-06
6.40493e-07
6.47536e-07
6.54884e-07
6.62531e-07
6.70478e-07
6.78702e-07
6.87179e-07
6.95882e-07
7.04791e-07
7.13886e-07
7.23147e-07
7.32558e-07
7.42104e-07
7.5177e-07
7.61542e-07
7.71406e-07
7.81351e-07
7.91364e-07
8.01435e-07
8.11552e-07
8.21707e-07
8.3189e-07
8.42091e-07
8.52303e-07
8.62517e-07
8.72726e-07
8.82923e-07
8.931e-07
9.03252e-07
9.13372e-07
9.23455e-07
9.33495e-07
9.43488e-07
9.53428e-07
9.63311e-07
9.73132e-07
9.82888e-07
9.92574e-07
1.00219e-06
1.01172e-06
1.02118e-06
1.03056e-06
6.3683e-07
6.43787e-07
6.51054e-07
6.58597e-07
6.66426e-07
6.74533e-07
6.82899e-07
6.915e-07
7.00315e-07
7.09325e-07
7.1851e-07
7.27854e-07
7.3734e-07
7.46953e-07
7.56679e-07
7.66504e-07
7.76415e-07
7.86401e-07
7.96451e-07
8.06552e-07
8.16696e-07
8.26872e-07
8.37071e-07
8.47285e-07
8.57505e-07
8.67724e-07
8.77934e-07
8.88128e-07
8.983e-07
9.08443e-07
9.18552e-07
9.2862e-07
9.38644e-07
9.48617e-07
9.58535e-07
9.68393e-07
9.78188e-07
9.87916e-07
9.97572e-07
1.00715e-06
1.01666e-06
1.02608e-06
6.33376e-07
6.40214e-07
6.47382e-07
6.54825e-07
6.62546e-07
6.70543e-07
6.78801e-07
6.87301e-07
6.96024e-07
7.04948e-07
7.14057e-07
7.23331e-07
7.32755e-07
7.42314e-07
7.51992e-07
7.61776e-07
7.71652e-07
7.81609e-07
7.91634e-07
8.01717e-07
8.11848e-07
8.22015e-07
8.3221e-07
8.42423e-07
8.52647e-07
8.62874e-07
8.73095e-07
8.83303e-07
8.93492e-07
9.03656e-07
9.13788e-07
9.23883e-07
9.33934e-07
9.43938e-07
9.53889e-07
9.63783e-07
9.73615e-07
9.83381e-07
9.93078e-07
1.0027e-06
1.01225e-06
1.02172e-06
6.30124e-07
6.3683e-07
6.43885e-07
6.51223e-07
6.5884e-07
6.66731e-07
6.74886e-07
6.83288e-07
6.91918e-07
7.00758e-07
7.09789e-07
7.18994e-07
7.28356e-07
7.37858e-07
7.47487e-07
7.57229e-07
7.67068e-07
7.76994e-07
7.86994e-07
7.97057e-07
8.07172e-07
8.17328e-07
8.27516e-07
8.37728e-07
8.47953e-07
8.58185e-07
8.68415e-07
8.78636e-07
8.8884e-07
8.99022e-07
9.09175e-07
9.19293e-07
9.29371e-07
9.39403e-07
9.49385e-07
9.59311e-07
9.69177e-07
9.7898e-07
9.88715e-07
9.98378e-07
1.00797e-06
1.01748e-06
6.27071e-07
6.33639e-07
6.40572e-07
6.47799e-07
6.55311e-07
6.63099e-07
6.71154e-07
6.79461e-07
6.88001e-07
6.96758e-07
7.05712e-07
7.14847e-07
7.24146e-07
7.33593e-07
7.43172e-07
7.52869e-07
7.62671e-07
7.72565e-07
7.82538e-07
7.92579e-07
8.02676e-07
8.1282e-07
8.23e-07
8.33208e-07
8.43433e-07
8.53668e-07
8.63905e-07
8.74136e-07
8.84353e-07
8.94551e-07
9.04723e-07
9.14863e-07
9.24964e-07
9.35023e-07
9.45032e-07
9.54989e-07
9.64887e-07
9.74724e-07
9.84494e-07
9.94194e-07
1.00382e-06
1.01337e-06
6.24211e-07
6.3064e-07
6.37446e-07
6.44559e-07
6.51964e-07
6.59651e-07
6.67609e-07
6.75822e-07
6.84275e-07
6.9295e-07
7.01829e-07
7.10895e-07
7.20131e-07
7.29522e-07
7.39051e-07
7.48704e-07
7.58467e-07
7.68328e-07
7.78273e-07
7.88291e-07
7.9837e-07
8.085e-07
8.1867e-07
8.28872e-07
8.39095e-07
8.49332e-07
8.59574e-07
8.69813e-07
8.80042e-07
8.90254e-07
9.00442e-07
9.10601e-07
9.20724e-07
9.30806e-07
9.40842e-07
9.50827e-07
9.60755e-07
9.70623e-07
9.80426e-07
9.90161e-07
9.99824e-07
1.00941e-06
6.21542e-07
6.27833e-07
6.34509e-07
6.41506e-07
6.48804e-07
6.56391e-07
6.64253e-07
6.72375e-07
6.80743e-07
6.89338e-07
6.98143e-07
7.07141e-07
7.16316e-07
7.2565e-07
7.35129e-07
7.44738e-07
7.54462e-07
7.64289e-07
7.74206e-07
7.842e-07
7.9426e-07
8.04374e-07
8.14534e-07
8.24729e-07
8.34949e-07
8.45185e-07
8.5543e-07
8.65676e-07
8.75914e-07
8.86139e-07
8.96342e-07
9.06518e-07
9.16661e-07
9.26765e-07
9.36824e-07
9.46835e-07
9.56791e-07
9.66688e-07
9.76522e-07
9.8629e-07
9.95986e-07
1.00561e-06
6.19058e-07
6.25214e-07
6.31762e-07
6.38642e-07
6.45833e-07
6.5332e-07
6.61088e-07
6.69122e-07
6.77407e-07
6.85924e-07
6.94657e-07
7.03589e-07
7.12703e-07
7.21983e-07
7.31412e-07
7.40977e-07
7.50663e-07
7.60456e-07
7.70344e-07
7.80313e-07
7.90353e-07
8.00452e-07
8.106e-07
8.20786e-07
8.31001e-07
8.41237e-07
8.51484e-07
8.61734e-07
8.71981e-07
8.82215e-07
8.92432e-07
9.02623e-07
9.12784e-07
9.22907e-07
9.32989e-07
9.43023e-07
9.53004e-07
9.62929e-07
9.72792e-07
9.82589e-07
9.92317e-07
1.00197e-06
6.16757e-07
6.22781e-07
6.29204e-07
6.35968e-07
6.43053e-07
6.50441e-07
6.58118e-07
6.66066e-07
6.7427e-07
6.82712e-07
6.91375e-07
7.00243e-07
7.09298e-07
7.18524e-07
7.27905e-07
7.37427e-07
7.47074e-07
7.56834e-07
7.66692e-07
7.76637e-07
7.86657e-07
7.96739e-07
8.06875e-07
8.17052e-07
8.27262e-07
8.37495e-07
8.47742e-07
8.57996e-07
8.68249e-07
8.78493e-07
8.8872e-07
8.98926e-07
9.09102e-07
9.19244e-07
9.29345e-07
9.39401e-07
9.49405e-07
9.59355e-07
9.69244e-07
9.7907e-07
9.88827e-07
9.98512e-07
6.14635e-07
6.20531e-07
6.26832e-07
6.33484e-07
6.40465e-07
6.47757e-07
6.55344e-07
6.63209e-07
6.71335e-07
6.79704e-07
6.883e-07
6.97106e-07
7.06103e-07
7.15277e-07
7.24612e-07
7.34091e-07
7.43702e-07
7.53428e-07
7.63258e-07
7.73179e-07
7.83178e-07
7.93244e-07
8.03366e-07
8.13533e-07
8.23737e-07
8.33966e-07
8.44214e-07
8.5447e-07
8.64728e-07
8.74979e-07
8.85217e-07
8.95434e-07
9.05625e-07
9.15782e-07
9.25902e-07
9.35977e-07
9.46003e-07
9.55975e-07
9.65889e-07
9.7574e-07
9.85525e-07
9.95238e-07
1.00488e-06
6.12687e-07
6.18461e-07
6.24645e-07
6.31188e-07
6.38068e-07
6.45267e-07
6.52768e-07
6.60552e-07
6.68603e-07
6.76903e-07
6.85435e-07
6.9418e-07
7.03124e-07
7.12248e-07
7.21537e-07
7.30976e-07
7.4055e-07
7.50244e-07
7.60046e-07
7.69943e-07
7.79921e-07
7.89971e-07
8.00079e-07
8.10237e-07
8.20434e-07
8.30659e-07
8.40905e-07
8.51163e-07
8.61425e-07
8.71682e-07
8.81929e-07
8.92157e-07
9.0236e-07
9.12532e-07
9.22667e-07
9.32761e-07
9.42806e-07
9.52799e-07
9.62736e-07
9.7261e-07
9.82419e-07
9.92159e-07
1.00183e-06
1.01141e-06
6.10909e-07
6.16568e-07
6.2264e-07
6.29078e-07
6.35863e-07
6.42973e-07
6.50391e-07
6.58098e-07
6.66078e-07
6.74311e-07
6.82781e-07
6.9147e-07
7.00361e-07
7.09438e-07
7.18684e-07
7.28084e-07
7.37623e-07
7.47287e-07
7.57062e-07
7.66935e-07
7.76894e-07
7.86927e-07
7.97022e-07
8.0717e-07
8.17359e-07
8.2758e-07
8.37824e-07
8.48083e-07
8.58347e-07
8.6861e-07
8.78863e-07
8.89101e-07
8.99315e-07
9.095e-07
9.1965e-07
9.29759e-07
9.39823e-07
9.49835e-07
9.59792e-07
9.69688e-07
9.7952e-07
9.89283e-07
9.98974e-07
1.00859e-06
6.09298e-07
6.14848e-07
6.20814e-07
6.27155e-07
6.33848e-07
6.40873e-07
6.48213e-07
6.55848e-07
6.6376e-07
6.7193e-07
6.80342e-07
6.88978e-07
6.9782e-07
7.06852e-07
7.16057e-07
7.2542e-07
7.34926e-07
7.4456e-07
7.54309e-07
7.6416e-07
7.741e-07
7.84117e-07
7.94199e-07
8.04337e-07
8.14519e-07
8.24735e-07
8.34977e-07
8.45235e-07
8.55502e-07
8.65769e-07
8.76028e-07
8.86274e-07
8.96498e-07
9.06694e-07
9.16857e-07
9.26981e-07
9.3706e-07
9.4709e-07
9.57065e-07
9.6698e-07
9.76833e-07
9.86618e-07
9.96332e-07
1.00597e-06
1.01553e-06
6.07849e-07
6.13298e-07
6.19166e-07
6.25414e-07
6.32022e-07
6.38969e-07
6.46235e-07
6.53801e-07
6.6165e-07
6.69762e-07
6.7812e-07
6.86706e-07
6.95502e-07
7.04491e-07
7.13658e-07
7.22987e-07
7.32462e-07
7.42069e-07
7.51794e-07
7.61623e-07
7.71545e-07
7.81547e-07
7.91617e-07
8.01744e-07
8.11918e-07
8.2213e-07
8.32369e-07
8.42627e-07
8.52895e-07
8.63165e-07
8.7343e-07
8.83682e-07
8.93915e-07
9.04121e-07
9.14296e-07
9.24433e-07
9.34526e-07
9.44571e-07
9.54562e-07
9.64496e-07
9.74367e-07
9.84171e-07
9.93906e-07
1.00357e-06
1.01315e-06
6.06559e-07
6.11915e-07
6.17692e-07
6.23856e-07
6.30385e-07
6.37258e-07
6.44456e-07
6.5196e-07
6.5975e-07
6.67808e-07
6.76116e-07
6.84656e-07
6.93409e-07
7.0236e-07
7.11492e-07
7.20788e-07
7.30235e-07
7.39816e-07
7.49518e-07
7.59328e-07
7.69233e-07
7.7922e-07
7.89278e-07
7.99396e-07
8.09564e-07
8.1977e-07
8.30006e-07
8.40263e-07
8.50532e-07
8.60805e-07
8.71074e-07
8.81332e-07
8.91572e-07
9.01788e-07
9.11972e-07
9.2212e-07
9.32226e-07
9.42285e-07
9.52291e-07
9.6224e-07
9.72128e-07
9.8195e-07
9.91702e-07
1.00138e-06
1.01098e-06
1.02051e-06
6.05423e-07
6.10695e-07
6.1639e-07
6.22477e-07
6.28934e-07
6.35741e-07
6.42877e-07
6.50323e-07
6.58061e-07
6.6607e-07
6.74332e-07
6.82829e-07
6.91545e-07
7.0046e-07
7.0956e-07
7.18827e-07
7.28247e-07
7.37805e-07
7.47487e-07
7.57278e-07
7.67168e-07
7.77142e-07
7.87189e-07
7.97298e-07
8.07459e-07
8.1766e-07
8.27893e-07
8.38149e-07
8.48419e-07
8.58693e-07
8.68966e-07
8.79229e-07
8.89475e-07
8.99699e-07
9.09892e-07
9.2005e-07
9.30167e-07
9.40237e-07
9.50257e-07
9.6022e-07
9.70122e-07
9.79959e-07
9.89728e-07
9.99424e-07
1.00904e-06
1.01859e-06
1.02804e-06
6.04439e-07
6.09635e-07
6.15257e-07
6.21275e-07
6.27668e-07
6.34416e-07
6.41497e-07
6.48892e-07
6.56582e-07
6.64547e-07
6.72769e-07
6.81229e-07
6.89909e-07
6.98793e-07
7.07864e-07
7.17106e-07
7.26502e-07
7.36039e-07
7.45702e-07
7.55478e-07
7.65353e-07
7.75315e-07
7.85352e-07
7.95453e-07
8.05607e-07
8.15805e-07
8.26035e-07
8.36289e-07
8.46559e-07
8.56835e-07
8.67111e-07
8.77378e-07
8.8763e-07
8.97859e-07
9.0806e-07
9.18227e-07
9.28353e-07
9.38434e-07
9.48465e-07
9.5844e-07
9.68355e-07
9.78206e-07
9.87989e-07
9.977e-07
1.00734e-06
1.01689e-06
1.02637e-06
6.03602e-07
6.08733e-07
6.14291e-07
6.20249e-07
6.26587e-07
6.33282e-07
6.40315e-07
6.47666e-07
6.55314e-07
6.63241e-07
6.71427e-07
6.79854e-07
6.88505e-07
6.97362e-07
7.06407e-07
7.15626e-07
7.25002e-07
7.34521e-07
7.44168e-07
7.53929e-07
7.63792e-07
7.73743e-07
7.83772e-07
7.93865e-07
8.04014e-07
8.14207e-07
8.24435e-07
8.34688e-07
8.44957e-07
8.55235e-07
8.65513e-07
8.75784e-07
8.8604e-07
8.96275e-07
9.06482e-07
9.16656e-07
9.2679e-07
9.3688e-07
9.4692e-07
9.56905e-07
9.66831e-07
9.76694e-07
9.86489e-07
9.96212e-07
1.00586e-06
1.01543e-06
1.02492e-06
6.02909e-07
6.07985e-07
6.13489e-07
6.19397e-07
6.25687e-07
6.32339e-07
6.39332e-07
6.46644e-07
6.54257e-07
6.62152e-07
6.70308e-07
6.78708e-07
6.87333e-07
6.96166e-07
7.05191e-07
7.1439e-07
7.23749e-07
7.33252e-07
7.42885e-07
7.52635e-07
7.62487e-07
7.72429e-07
7.8245e-07
7.92538e-07
8.02682e-07
8.12871e-07
8.23096e-07
8.33348e-07
8.43617e-07
8.53896e-07
8.64176e-07
8.74449e-07
8.84709e-07
8.94948e-07
9.05161e-07
9.1534e-07
9.25481e-07
9.35578e-07
9.45626e-07
9.5562e-07
9.65555e-07
9.75427e-07
9.85232e-07
9.94966e-07
1.00463e-06
1.01421e-06
1.02371e-06
6.02359e-07
6.0739e-07
6.1285e-07
6.18717e-07
6.2497e-07
6.31586e-07
6.38545e-07
6.45827e-07
6.53412e-07
6.6128e-07
6.69412e-07
6.7779e-07
6.86394e-07
6.95209e-07
7.04216e-07
7.134e-07
7.22745e-07
7.32235e-07
7.41857e-07
7.51597e-07
7.6144e-07
7.71375e-07
7.8139e-07
7.91472e-07
8.01612e-07
8.11799e-07
8.22022e-07
8.32273e-07
8.42542e-07
8.52821e-07
8.63102e-07
8.73377e-07
8.8364e-07
8.93883e-07
9.041e-07
9.14284e-07
9.2443e-07
9.34533e-07
9.44587e-07
9.54588e-07
9.6453e-07
9.7441e-07
9.84223e-07
9.93965e-07
1.00363e-06
1.01322e-06
1.02273e-06
1.03216e-06
6.01948e-07
6.06945e-07
6.12373e-07
6.18209e-07
6.24432e-07
6.31022e-07
6.37956e-07
6.45215e-07
6.52778e-07
6.60626e-07
6.6874e-07
6.771e-07
6.8569e-07
6.9449e-07
7.03484e-07
7.12656e-07
7.2199e-07
7.31471e-07
7.41085e-07
7.50817e-07
7.60654e-07
7.70583e-07
7.80593e-07
7.90672e-07
8.00809e-07
8.10993e-07
8.21214e-07
8.31464e-07
8.41733e-07
8.52013e-07
8.62295e-07
8.72572e-07
8.82836e-07
8.93082e-07
9.03301e-07
9.13489e-07
9.2364e-07
9.33747e-07
9.43806e-07
9.53811e-07
9.63759e-07
9.73644e-07
9.83463e-07
9.93212e-07
1.00289e-06
1.01248e-06
1.022e-06
1.03143e-06
6.01675e-07
6.06649e-07
6.12055e-07
6.1787e-07
6.24075e-07
6.30646e-07
6.37563e-07
6.44807e-07
6.52356e-07
6.6019e-07
6.68292e-07
6.76641e-07
6.85219e-07
6.9401e-07
7.02996e-07
7.1216e-07
7.21487e-07
7.30961e-07
7.40569e-07
7.50296e-07
7.60128e-07
7.70054e-07
7.80061e-07
7.90137e-07
8.00272e-07
8.10454e-07
8.20675e-07
8.30924e-07
8.41193e-07
8.51473e-07
8.61755e-07
8.72033e-07
8.82299e-07
8.92547e-07
9.02768e-07
9.12959e-07
9.23111e-07
9.33221e-07
9.43283e-07
9.53292e-07
9.63244e-07
9.73133e-07
9.82956e-07
9.92709e-07
1.00239e-06
1.01199e-06
1.02151e-06
1.03095e-06
1.0403e-06
6.01538e-07
6.06502e-07
6.11896e-07
6.17701e-07
6.23896e-07
6.30458e-07
6.37367e-07
6.44603e-07
6.52144e-07
6.59972e-07
6.68067e-07
6.76411e-07
6.84984e-07
6.9377e-07
7.02751e-07
7.11912e-07
7.21235e-07
7.30706e-07
7.40311e-07
7.50035e-07
7.59866e-07
7.6979e-07
7.79795e-07
7.8987e-07
8.00003e-07
8.10185e-07
8.20405e-07
8.30654e-07
8.40923e-07
8.51202e-07
8.61486e-07
8.71764e-07
8.82031e-07
8.92279e-07
9.02501e-07
9.12693e-07
9.22847e-07
9.32958e-07
9.43022e-07
9.53032e-07
9.62986e-07
9.72877e-07
9.82702e-07
9.92457e-07
1.00214e-06
1.01174e-06
1.02127e-06
1.03071e-06
1.04006e-06
6.01538e-07
6.06502e-07
6.11896e-07
6.17701e-07
6.23896e-07
6.30458e-07
6.37367e-07
6.44603e-07
6.52144e-07
6.59972e-07
6.68067e-07
6.76411e-07
6.84984e-07
6.9377e-07
7.02751e-07
7.11912e-07
7.21235e-07
7.30706e-07
7.40311e-07
7.50035e-07
7.59866e-07
7.6979e-07
7.79795e-07
7.8987e-07
8.00003e-07
8.10185e-07
8.20405e-07
8.30654e-07
8.40923e-07
8.51202e-07
8.61485e-07
8.71764e-07
8.82031e-07
8.92279e-07
9.02501e-07
9.12693e-07
9.22847e-07
9.32958e-07
9.43022e-07
9.53032e-07
9.62986e-07
9.72877e-07
9.82702e-07
9.92457e-07
1.00214e-06
1.01174e-06
1.02127e-06
1.03071e-06
1.04006e-06
1.04932e-06
6.01675e-07
6.06649e-07
6.12055e-07
6.1787e-07
6.24075e-07
6.30646e-07
6.37563e-07
6.44807e-07
6.52356e-07
6.6019e-07
6.68292e-07
6.76641e-07
6.85219e-07
6.9401e-07
7.02996e-07
7.1216e-07
7.21487e-07
7.30961e-07
7.40569e-07
7.50296e-07
7.60128e-07
7.70054e-07
7.80061e-07
7.90137e-07
8.00272e-07
8.10454e-07
8.20675e-07
8.30924e-07
8.41193e-07
8.51473e-07
8.61755e-07
8.72033e-07
8.82299e-07
8.92547e-07
9.02768e-07
9.12959e-07
9.23111e-07
9.33221e-07
9.43283e-07
9.53292e-07
9.63244e-07
9.73133e-07
9.82956e-07
9.92709e-07
1.00239e-06
1.01199e-06
1.02151e-06
1.03095e-06
1.0403e-06
1.04956e-06
6.01948e-07
6.06945e-07
6.12373e-07
6.18209e-07
6.24432e-07
6.31022e-07
6.37956e-07
6.45215e-07
6.52778e-07
6.60626e-07
6.6874e-07
6.771e-07
6.8569e-07
6.9449e-07
7.03484e-07
7.12656e-07
7.2199e-07
7.31471e-07
7.41085e-07
7.50816e-07
7.60653e-07
7.70583e-07
7.80593e-07
7.90672e-07
8.00809e-07
8.10993e-07
8.21214e-07
8.31464e-07
8.41733e-07
8.52013e-07
8.62295e-07
8.72572e-07
8.82836e-07
8.93082e-07
9.03301e-07
9.13489e-07
9.2364e-07
9.33747e-07
9.43806e-07
9.53811e-07
9.63759e-07
9.73644e-07
9.83463e-07
9.93212e-07
1.00289e-06
1.01248e-06
1.022e-06
1.03143e-06
1.04078e-06
1.05004e-06
6.02359e-07
6.0739e-07
6.1285e-07
6.18717e-07
6.2497e-07
6.31586e-07
6.38545e-07
6.45827e-07
6.53412e-07
6.6128e-07
6.69412e-07
6.7779e-07
6.86394e-07
6.95209e-07
7.04216e-07
7.134e-07
7.22745e-07
7.32235e-07
7.41857e-07
7.51596e-07
7.6144e-07
7.71375e-07
7.8139e-07
7.91472e-07
8.01612e-07
8.11799e-07
8.22022e-07
8.32273e-07
8.42542e-07
8.52821e-07
8.63102e-07
8.73377e-07
8.8364e-07
8.93883e-07
9.041e-07
9.14284e-07
9.2443e-07
9.34533e-07
9.44587e-07
9.54588e-07
9.6453e-07
9.7441e-07
9.84223e-07
9.93965e-07
1.00363e-06
1.01322e-06
1.02273e-06
1.03216e-06
1.0415e-06
1.05075e-06
6.02909e-07
6.07985e-07
6.13489e-07
6.19397e-07
6.25687e-07
6.32339e-07
6.39331e-07
6.46644e-07
6.54257e-07
6.62152e-07
6.70308e-07
6.78708e-07
6.87333e-07
6.96166e-07
7.05191e-07
7.1439e-07
7.23749e-07
7.33252e-07
7.42885e-07
7.52635e-07
7.62487e-07
7.72429e-07
7.8245e-07
7.92538e-07
8.02681e-07
8.12871e-07
8.23096e-07
8.33348e-07
8.43617e-07
8.53896e-07
8.64176e-07
8.74449e-07
8.84709e-07
8.94948e-07
9.05161e-07
9.1534e-07
9.25481e-07
9.35578e-07
9.45626e-07
9.5562e-07
9.65555e-07
9.75427e-07
9.85232e-07
9.94966e-07
1.00463e-06
1.01421e-06
1.02371e-06
1.03312e-06
1.04245e-06
1.05169e-06
6.03602e-07
6.08733e-07
6.14291e-07
6.20249e-07
6.26587e-07
6.33282e-07
6.40315e-07
6.47666e-07
6.55314e-07
6.63241e-07
6.71427e-07
6.79854e-07
6.88505e-07
6.97362e-07
7.06407e-07
7.15626e-07
7.25002e-07
7.34521e-07
7.44168e-07
7.53929e-07
7.63792e-07
7.73743e-07
7.83772e-07
7.93865e-07
8.04014e-07
8.14207e-07
8.24435e-07
8.34688e-07
8.44957e-07
8.55235e-07
8.65513e-07
8.75783e-07
8.8604e-07
8.96275e-07
9.06482e-07
9.16656e-07
9.2679e-07
9.3688e-07
9.4692e-07
9.56905e-07
9.66831e-07
9.76694e-07
9.86489e-07
9.96212e-07
1.00586e-06
1.01543e-06
1.02492e-06
1.03432e-06
1.04364e-06
1.05287e-06
6.04439e-07
6.09635e-07
6.15257e-07
6.21275e-07
6.27668e-07
6.34416e-07
6.41497e-07
6.48892e-07
6.56582e-07
6.64547e-07
6.72769e-07
6.81229e-07
6.89909e-07
6.98793e-07
7.07864e-07
7.17106e-07
7.26502e-07
7.36039e-07
7.45702e-07
7.55478e-07
7.65353e-07
7.75315e-07
7.85352e-07
7.95453e-07
8.05607e-07
8.15805e-07
8.26035e-07
8.36289e-07
8.46559e-07
8.56835e-07
8.67111e-07
8.77378e-07
8.8763e-07
8.97859e-07
9.0806e-07
9.18227e-07
9.28353e-07
9.38434e-07
9.48465e-07
9.5844e-07
9.68355e-07
9.78206e-07
9.87989e-07
9.977e-07
1.00734e-06
1.01689e-06
1.02637e-06
1.03576e-06
1.04506e-06
1.05427e-06
6.05423e-07
6.10695e-07
6.1639e-07
6.22477e-07
6.28934e-07
6.35741e-07
6.42877e-07
6.50323e-07
6.58061e-07
6.6607e-07
6.74332e-07
6.82829e-07
6.91544e-07
7.0046e-07
7.0956e-07
7.18827e-07
7.28247e-07
7.37805e-07
7.47487e-07
7.57278e-07
7.67168e-07
7.77142e-07
7.87189e-07
7.97298e-07
8.07458e-07
8.1766e-07
8.27893e-07
8.38149e-07
8.48418e-07
8.58693e-07
8.68966e-07
8.79229e-07
8.89475e-07
8.99698e-07
9.09892e-07
9.2005e-07
9.30167e-07
9.40237e-07
9.50256e-07
9.60219e-07
9.70122e-07
9.79959e-07
9.89728e-07
9.99424e-07
1.00904e-06
1.01859e-06
1.02804e-06
1.03742e-06
1.0467e-06
1.05589e-06
6.06559e-07
6.11915e-07
6.17692e-07
6.23856e-07
6.30385e-07
6.37258e-07
6.44456e-07
6.5196e-07
6.5975e-07
6.67808e-07
6.76116e-07
6.84656e-07
6.93409e-07
7.0236e-07
7.11492e-07
7.20788e-07
7.30234e-07
7.39816e-07
7.49518e-07
7.59328e-07
7.69233e-07
7.7922e-07
7.89278e-07
7.99396e-07
8.09563e-07
8.1977e-07
8.30006e-07
8.40263e-07
8.50532e-07
8.60805e-07
8.71074e-07
8.81332e-07
8.91572e-07
9.01787e-07
9.11972e-07
9.2212e-07
9.32226e-07
9.42285e-07
9.52291e-07
9.6224e-07
9.72128e-07
9.8195e-07
9.91702e-07
1.00138e-06
1.01098e-06
1.02051e-06
1.02995e-06
1.0393e-06
1.04856e-06
1.05774e-06
6.07849e-07
6.13298e-07
6.19166e-07
6.25414e-07
6.32022e-07
6.38969e-07
6.46235e-07
6.53801e-07
6.6165e-07
6.69762e-07
6.7812e-07
6.86706e-07
6.95502e-07
7.04491e-07
7.13658e-07
7.22987e-07
7.32462e-07
7.42069e-07
7.51793e-07
7.61623e-07
7.71545e-07
7.81546e-07
7.91616e-07
8.01744e-07
8.11918e-07
8.2213e-07
8.32369e-07
8.42627e-07
8.52895e-07
8.63165e-07
8.7343e-07
8.83682e-07
8.93915e-07
9.04121e-07
9.14296e-07
9.24433e-07
9.34526e-07
9.44571e-07
9.54562e-07
9.64496e-07
9.74367e-07
9.84171e-07
9.93905e-07
1.00357e-06
1.01315e-06
1.02265e-06
1.03207e-06
1.0414e-06
1.05064e-06
1.05979e-06
6.09298e-07
6.14848e-07
6.20814e-07
6.27155e-07
6.33848e-07
6.40873e-07
6.48213e-07
6.55848e-07
6.6376e-07
6.7193e-07
6.80342e-07
6.88978e-07
6.9782e-07
7.06851e-07
7.16057e-07
7.2542e-07
7.34926e-07
7.4456e-07
7.54309e-07
7.6416e-07
7.741e-07
7.84117e-07
7.94199e-07
8.04337e-07
8.14518e-07
8.24735e-07
8.34977e-07
8.45235e-07
8.55502e-07
8.65769e-07
8.76028e-07
8.86274e-07
8.96498e-07
9.06694e-07
9.16857e-07
9.26981e-07
9.3706e-07
9.4709e-07
9.57065e-07
9.6698e-07
9.76833e-07
9.86618e-07
9.96332e-07
1.00597e-06
1.01553e-06
1.02501e-06
1.0344e-06
1.04371e-06
1.05293e-06
1.06205e-06
6.10909e-07
6.16568e-07
6.2264e-07
6.29078e-07
6.35862e-07
6.42973e-07
6.50391e-07
6.58098e-07
6.66078e-07
6.74311e-07
6.82781e-07
6.9147e-07
7.00361e-07
7.09438e-07
7.18684e-07
7.28084e-07
7.37623e-07
7.47287e-07
7.57062e-07
7.66935e-07
7.76894e-07
7.86927e-07
7.97022e-07
8.07169e-07
8.17359e-07
8.2758e-07
8.37824e-07
8.48083e-07
8.58347e-07
8.6861e-07
8.78863e-07
8.89101e-07
8.99315e-07
9.095e-07
9.1965e-07
9.29759e-07
9.39823e-07
9.49835e-07
9.59791e-07
9.69688e-07
9.7952e-07
9.89283e-07
9.98974e-07
1.00859e-06
1.01813e-06
1.02758e-06
1.03695e-06
1.04623e-06
1.05542e-06
1.06452e-06
6.12687e-07
6.18461e-07
6.24645e-07
6.31188e-07
6.38068e-07
6.45267e-07
6.52768e-07
6.60552e-07
6.68603e-07
6.76903e-07
6.85435e-07
6.9418e-07
7.03123e-07
7.12248e-07
7.21537e-07
7.30976e-07
7.40549e-07
7.50244e-07
7.60046e-07
7.69943e-07
7.79921e-07
7.89971e-07
8.00079e-07
8.10237e-07
8.20433e-07
8.30659e-07
8.40905e-07
8.51163e-07
8.61425e-07
8.71682e-07
8.81928e-07
8.92156e-07
9.0236e-07
9.12532e-07
9.22667e-07
9.3276e-07
9.42806e-07
9.52799e-07
9.62736e-07
9.7261e-07
9.82419e-07
9.92159e-07
1.00183e-06
1.01141e-06
1.02092e-06
1.03035e-06
1.03969e-06
1.04894e-06
1.0581e-06
1.06717e-06
6.14635e-07
6.20531e-07
6.26832e-07
6.33484e-07
6.40464e-07
6.47757e-07
6.55344e-07
6.63209e-07
6.71334e-07
6.79704e-07
6.883e-07
6.97105e-07
7.06103e-07
7.15277e-07
7.24612e-07
7.34091e-07
7.43701e-07
7.53428e-07
7.63258e-07
7.73179e-07
7.83178e-07
7.93243e-07
8.03365e-07
8.13533e-07
8.23736e-07
8.33966e-07
8.44214e-07
8.5447e-07
8.64728e-07
8.74979e-07
8.85217e-07
8.95434e-07
9.05625e-07
9.15782e-07
9.25902e-07
9.35977e-07
9.46003e-07
9.55975e-07
9.65889e-07
9.7574e-07
9.85525e-07
9.95238e-07
1.00488e-06
1.01444e-06
1.02392e-06
1.03332e-06
1.04263e-06
1.05185e-06
1.06097e-06
1.07001e-06
6.16757e-07
6.22781e-07
6.29204e-07
6.35968e-07
6.43053e-07
6.50441e-07
6.58118e-07
6.66066e-07
6.7427e-07
6.82712e-07
6.91375e-07
7.00243e-07
7.09298e-07
7.18524e-07
7.27905e-07
7.37427e-07
7.47074e-07
7.56834e-07
7.66692e-07
7.76637e-07
7.86657e-07
7.96739e-07
8.06874e-07
8.17052e-07
8.27261e-07
8.37495e-07
8.47742e-07
8.57996e-07
8.68249e-07
8.78493e-07
8.8872e-07
8.98926e-07
9.09102e-07
9.19244e-07
9.29345e-07
9.394e-07
9.49405e-07
9.59355e-07
9.69244e-07
9.7907e-07
9.88827e-07
9.98512e-07
1.00812e-06
1.01765e-06
1.0271e-06
1.03647e-06
1.04574e-06
1.05493e-06
1.06402e-06
1.07302e-06
6.19058e-07
6.25214e-07
6.31762e-07
6.38642e-07
6.45833e-07
6.5332e-07
6.61088e-07
6.69122e-07
6.77407e-07
6.85924e-07
6.94657e-07
7.03589e-07
7.12703e-07
7.21983e-07
7.31412e-07
7.40977e-07
7.50663e-07
7.60456e-07
7.70344e-07
7.80313e-07
7.90353e-07
8.00452e-07
8.106e-07
8.20786e-07
8.31001e-07
8.41237e-07
8.51484e-07
8.61734e-07
8.7198e-07
8.82215e-07
8.92432e-07
9.02623e-07
9.12784e-07
9.22907e-07
9.32989e-07
9.43023e-07
9.53004e-07
9.62929e-07
9.72792e-07
9.82589e-07
9.92317e-07
1.00197e-06
1.01155e-06
1.02105e-06
1.03046e-06
1.03979e-06
1.04903e-06
1.05818e-06
1.06724e-06
1.0762e-06
6.21542e-07
6.27833e-07
6.34509e-07
6.41506e-07
6.48804e-07
6.5639e-07
6.64252e-07
6.72375e-07
6.80743e-07
6.89338e-07
6.98143e-07
7.07141e-07
7.16315e-07
7.2565e-07
7.35129e-07
7.44738e-07
7.54462e-07
7.64289e-07
7.74206e-07
7.842e-07
7.94259e-07
8.04374e-07
8.14534e-07
8.24728e-07
8.34948e-07
8.45185e-07
8.5543e-07
8.65676e-07
8.75914e-07
8.86138e-07
8.96342e-07
9.06518e-07
9.16661e-07
9.26765e-07
9.36824e-07
9.46834e-07
9.5679e-07
9.66688e-07
9.76522e-07
9.86289e-07
9.95986e-07
1.00561e-06
1.01515e-06
1.02462e-06
1.034e-06
1.04329e-06
1.05249e-06
1.0616e-06
1.07062e-06
1.07954e-06
6.24211e-07
6.3064e-07
6.37446e-07
6.44559e-07
6.51964e-07
6.59651e-07
6.67609e-07
6.75822e-07
6.84275e-07
6.9295e-07
7.01829e-07
7.10895e-07
7.20131e-07
7.29521e-07
7.3905e-07
7.48704e-07
7.58467e-07