/*--------------------------------*- C++ -*----------------------------------*\
  =========                 |
  \\      /  F ield         | OpenFOAM: The Open Source CFD Toolbox
   \\    /   O peration     | Website:  https://openfoam.org
    \\  /    A nd           | Version:  7
     \\/     M anipulation  |
\*---------------------------------------------------------------------------*/
FoamFile
{
    version     2.0;
    format      ascii;
    class       volVectorField;
    location    "272000";
    object      U;
}
// * * * * * * * * * * * * * * * * * * * * * * * * * * * * * * * * * * * * * //

dimensions      [0 1 -1 0 0 0 0];

internalField   nonuniform List<vector> 
4783
(
(2.76872e-19 -1.03115e-18 -0.0159652)
(2.23196e-19 -6.08155e-19 -0.0159757)
(2.03035e-19 -2.26224e-19 -0.0159856)
(3.1942e-19 -3.71388e-19 -0.0159949)
(1.99354e-19 -8.69982e-19 -0.0160036)
(-1.51162e-19 -1.10738e-18 -0.0160119)
(-2.58391e-19 -1.202e-18 -0.0160196)
(-3.08553e-19 -1.09253e-18 -0.0160268)
(-3.74465e-19 -6.66857e-19 -0.0160335)
(-1.32482e-19 -6.08453e-19 -0.0160397)
(2.57109e-19 -1.04577e-18 -0.0160455)
(6.01531e-20 -1.38542e-18 -0.0160508)
(-1.06323e-19 -1.53347e-18 -0.0160557)
(-1.09803e-21 -1.43998e-18 -0.0160601)
(1.72888e-20 -1.0597e-18 -0.0160642)
(-4.30815e-19 -5.5733e-19 -0.0160678)
(-7.63209e-19 -5.99812e-19 -0.016071)
(-6.69845e-19 -9.60512e-19 -0.0160739)
(-7.12001e-19 -7.88851e-19 -0.0160763)
(-9.55348e-19 -5.88988e-19 -0.0160784)
(-1.2377e-18 -7.4852e-19 -0.0160801)
(-1.4914e-18 -6.66802e-19 -0.0160815)
(6.09424e-19 -1.19936e-18 -0.0159473)
(5.62464e-19 -8.3031e-19 -0.0159576)
(4.74486e-19 -4.66932e-19 -0.0159675)
(5.70755e-19 -3.12425e-19 -0.0159771)
(4.92527e-19 -3.35427e-19 -0.0159862)
(3.09735e-19 -5.60018e-19 -0.0159948)
(1.47921e-19 -8.66524e-19 -0.0160029)
(-2.52902e-19 -9.41199e-19 -0.0160105)
(-4.43647e-19 -9.04644e-19 -0.0160176)
(-1.56345e-19 -9.59652e-19 -0.0160242)
(6.19756e-20 -1.03896e-18 -0.0160303)
(-1.24353e-19 -1.06904e-18 -0.016036)
(-3.90523e-19 -1.31728e-18 -0.0160412)
(-4.85749e-19 -1.46726e-18 -0.0160459)
(-5.56637e-19 -1.22475e-18 -0.0160503)
(-5.38828e-19 -8.146e-19 -0.0160541)
(-3.60655e-19 -1.02686e-18 -0.0160576)
(-2.45602e-19 -1.33352e-18 -0.0160607)
(-3.94163e-19 -7.63553e-19 -0.0160633)
(-6.78134e-19 -1.10438e-19 -0.0160656)
(-9.50123e-19 -8.27894e-21 -0.0160674)
(-1.25693e-18 -1.89577e-19 -0.0160689)
(6.54605e-19 -1.45263e-18 -0.0159278)
(3.28708e-19 -1.00087e-18 -0.0159385)
(1.5239e-19 -6.13956e-19 -0.0159487)
(2.58988e-19 -4.84652e-19 -0.0159585)
(2.31175e-19 -4.36076e-19 -0.0159679)
(4.57121e-19 -3.8077e-19 -0.0159769)
(3.23858e-19 -3.65127e-19 -0.0159853)
(1.74717e-19 -4.29246e-19 -0.0159933)
(2.68199e-19 -7.54115e-19 -0.0160007)
(4.63826e-19 -1.11732e-18 -0.0160077)
(2.38878e-19 -1.08221e-18 -0.0160141)
(-1.81407e-19 -8.06029e-19 -0.0160201)
(-2.79402e-19 -1.02678e-18 -0.0160256)
(-4.23002e-19 -1.4204e-18 -0.0160307)
(-6.04085e-19 -1.4025e-18 -0.0160353)
(-7.13172e-19 -1.00029e-18 -0.0160394)
(-7.58482e-19 -9.28685e-19 -0.0160431)
(-9.61215e-19 -1.126e-18 -0.0160464)
(-1.20038e-18 -5.88621e-19 -0.0160492)
(-1.43142e-18 2.11524e-20 -0.0160516)
(-1.45351e-18 9.35583e-20 -0.0160536)
(-1.37814e-18 -1.77394e-19 -0.0160552)
(1.90932e-19 -1.20589e-18 -0.0159073)
(-1.00485e-19 -1.11017e-18 -0.0159184)
(-3.93596e-19 -8.74823e-19 -0.015929)
(-4.69079e-19 -5.92129e-19 -0.0159391)
(-3.66608e-19 -6.66876e-19 -0.0159488)
(-2.38233e-20 -7.43717e-19 -0.0159581)
(1.14671e-19 -5.73388e-19 -0.0159669)
(4.41842e-19 -6.31126e-19 -0.0159751)
(7.54408e-19 -7.90218e-19 -0.0159829)
(5.72257e-19 -7.70886e-19 -0.0159902)
(1.20633e-20 -5.53194e-19 -0.015997)
(-1.14306e-19 -5.86268e-19 -0.0160033)
(1.65436e-19 -8.32838e-19 -0.0160091)
(8.32975e-20 -1.02206e-18 -0.0160144)
(-4.23827e-19 -1.13576e-18 -0.0160193)
(-8.62434e-19 -8.61994e-19 -0.0160237)
(-1.13747e-18 -7.74801e-19 -0.0160276)
(-1.32971e-18 -9.87405e-19 -0.0160311)
(-1.60093e-18 -4.82494e-19 -0.0160341)
(-1.64248e-18 1.40935e-19 -0.0160367)
(-1.65953e-18 4.65043e-20 -0.0160388)
(-1.37467e-18 -2.61383e-19 -0.0160405)
(5.42066e-20 -1.0639e-18 -0.0158858)
(-3.33425e-19 -8.50756e-19 -0.0158974)
(-6.34866e-19 -7.62319e-19 -0.0159084)
(-6.38462e-19 -7.53511e-19 -0.0159189)
(-5.32305e-19 -8.3333e-19 -0.0159289)
(-4.06713e-19 -1.0072e-18 -0.0159385)
(-1.05545e-19 -9.6654e-19 -0.0159476)
(1.90718e-20 -1.00256e-18 -0.0159562)
(-7.57164e-21 -8.9134e-19 -0.0159643)
(-1.8892e-19 -5.67714e-19 -0.0159719)
(-3.41533e-19 -5.26198e-19 -0.015979)
(-1.95548e-20 -8.69988e-19 -0.0159855)
(3.38047e-19 -1.08101e-18 -0.0159916)
(2.85183e-19 -6.83386e-19 -0.0159972)
(-4.20605e-19 -4.46335e-19 -0.0160023)
(-9.11887e-19 -3.45859e-19 -0.016007)
(-1.01387e-18 -3.89534e-19 -0.0160111)
(-1.17758e-18 -6.95848e-19 -0.0160148)
(-1.49074e-18 -4.50883e-19 -0.016018)
(-1.27315e-18 1.05399e-19 -0.0160207)
(-1.0735e-18 -3.73956e-20 -0.016023)
(-7.72934e-19 -6.41668e-19 -0.0160248)
(-4.82571e-20 -1.01344e-18 -0.0158636)
(-3.29526e-19 -8.33954e-19 -0.0158755)
(-3.46152e-19 -6.85227e-19 -0.0158869)
(-3.45291e-19 -6.11058e-19 -0.0158978)
(-3.08008e-19 -7.16189e-19 -0.0159082)
(-1.57009e-19 -1.10202e-18 -0.0159181)
(6.61079e-20 -1.02148e-18 -0.0159275)
(-2.57166e-19 -8.91813e-19 -0.0159364)
(-5.4961e-19 -1.00065e-18 -0.0159448)
(-6.31741e-19 -7.6906e-19 -0.0159527)
(-6.11353e-19 -6.62264e-19 -0.0159601)
(-3.22692e-19 -1.10595e-18 -0.0159669)
(-9.56363e-20 -1.31122e-18 -0.0159733)
(-4.70379e-19 -5.38951e-19 -0.0159791)
(-1.0313e-18 -8.39716e-21 -0.0159845)
(-1.19514e-18 -2.37847e-19 -0.0159893)
(-7.92351e-19 -3.49974e-19 -0.0159937)
(-7.42234e-19 -4.00343e-19 -0.0159975)
(-7.79547e-19 -4.60418e-19 -0.0160009)
(-6.64036e-19 -2.67271e-19 -0.0160038)
(-4.74322e-19 -2.87716e-19 -0.0160061)
(-3.53545e-19 -8.51054e-19 -0.0160081)
(-3.46176e-19 -8.75616e-19 -0.0158406)
(-5.4698e-19 -9.16289e-19 -0.0158529)
(-4.43075e-19 -8.84747e-19 -0.0158646)
(-4.33094e-19 -7.43728e-19 -0.0158759)
(-1.64254e-19 -6.51741e-19 -0.0158866)
(8.13459e-20 -1.11885e-18 -0.0158968)
(-1.20411e-19 -1.05047e-18 -0.0159066)
(-3.05501e-19 -5.4617e-19 -0.0159158)
(-3.27331e-19 -6.77291e-19 -0.0159245)
(-5.38409e-19 -7.31786e-19 -0.0159326)
(-6.97093e-19 -7.27152e-19 -0.0159403)
(-6.92257e-19 -1.21594e-18 -0.0159475)
(-8.71023e-19 -1.32281e-18 -0.0159541)
(-1.53086e-18 -3.6715e-19 -0.0159602)
(-1.69673e-18 1.37332e-19 -0.0159657)
(-1.44261e-18 -4.92173e-19 -0.0159708)
(-8.32739e-19 -7.83562e-19 -0.0159753)
(-6.1599e-19 -6.31746e-19 -0.0159794)
(-3.81919e-19 -4.69163e-19 -0.0159829)
(-3.33218e-19 -1.46712e-19 -0.0159859)
(-2.21309e-19 -2.11704e-19 -0.0159884)
(-4.82475e-19 -6.00345e-19 -0.0159904)
(-8.08648e-19 -4.85384e-19 -0.0158168)
(-8.55356e-19 -8.973e-19 -0.0158295)
(-6.11082e-19 -9.68957e-19 -0.0158416)
(-4.22475e-19 -1.02376e-18 -0.0158532)
(-1.72581e-19 -9.26636e-19 -0.0158643)
(-3.61357e-19 -9.81736e-19 -0.0158748)
(-7.17179e-19 -1.16486e-18 -0.0158848)
(-6.1029e-19 -9.96444e-19 -0.0158944)
(-4.59038e-19 -7.07107e-19 -0.0159033)
(-5.95298e-19 -4.13314e-19 -0.0159118)
(-5.60594e-19 -3.15823e-19 -0.0159197)
(-7.11738e-19 -7.84068e-19 -0.0159271)
(-1.39898e-18 -1.00155e-18 -0.015934)
(-1.82108e-18 -3.51909e-19 -0.0159403)
(-1.39363e-18 -2.41347e-20 -0.0159461)
(-1.09436e-18 -7.86786e-19 -0.0159514)
(-1.02498e-18 -1.14726e-18 -0.0159561)
(-1.03436e-18 -9.28979e-19 -0.0159603)
(-9.52788e-19 -8.19216e-19 -0.015964)
(-7.78258e-19 -4.26607e-19 -0.0159671)
(-5.23162e-19 -2.37623e-20 -0.0159697)
(-7.24809e-19 1.48674e-20 -0.0159718)
(-7.79042e-19 -9.95781e-20 -0.0157923)
(-4.98178e-19 -7.79357e-19 -0.0158054)
(6.43093e-21 -1.0841e-18 -0.0158178)
(-1.24173e-20 -1.06824e-18 -0.0158298)
(-3.60047e-19 -8.0326e-19 -0.0158412)
(-4.94923e-19 -6.89657e-19 -0.015852)
(-3.07881e-19 -9.12842e-19 -0.0158624)
(-5.46465e-19 -1.07582e-18 -0.0158722)
(-5.78092e-19 -1.02159e-18 -0.0158814)
(-3.42063e-19 -7.78372e-19 -0.0158902)
(-9.69955e-20 -3.63247e-19 -0.0158984)
(-3.89778e-19 -1.39463e-19 -0.015906)
(-1.19951e-18 -4.94713e-19 -0.0159131)
(-1.33908e-18 -6.43918e-19 -0.0159197)
(-9.98772e-19 -2.95401e-19 -0.0159257)
(-1.05934e-18 -4.81669e-19 -0.0159311)
(-1.48272e-18 -8.70114e-19 -0.0159361)
(-1.45263e-18 -8.38109e-19 -0.0159404)
(-1.63631e-18 -8.77849e-19 -0.0159442)
(-1.74998e-18 -7.27093e-19 -0.0159475)
(-1.4681e-18 -3.09157e-19 -0.0159502)
(-1.31434e-18 -5.73377e-20 -0.0159524)
(-3.04192e-19 -2.06744e-19 -0.0157672)
(2.63957e-19 -6.35427e-19 -0.0157806)
(3.62767e-19 -9.99834e-19 -0.0157934)
(-4.03901e-20 -8.92453e-19 -0.0158056)
(-3.52142e-19 -8.47557e-19 -0.0158173)
(3.89735e-20 -9.13992e-19 -0.0158285)
(2.89347e-19 -7.71612e-19 -0.0158391)
(-1.37065e-19 -6.75069e-19 -0.0158492)
(-3.05744e-19 -1.02358e-18 -0.0158588)
(-3.44008e-19 -1.08741e-18 -0.0158678)
(-6.05649e-19 -5.29971e-19 -0.0158762)
(-1.12985e-18 1.84052e-19 -0.0158841)
(-1.32973e-18 2.59108e-20 -0.0158915)
(-1.31564e-18 -5.20877e-19 -0.0158982)
(-1.24022e-18 -2.74256e-19 -0.0159044)
(-1.48896e-18 -2.00161e-19 -0.0159101)
(-1.82529e-18 -7.56493e-19 -0.0159152)
(-1.50331e-18 -8.10207e-19 -0.0159197)
(-1.5747e-18 -5.82559e-19 -0.0159236)
(-1.73738e-18 -6.91549e-19 -0.015927)
(-1.62614e-18 -5.19325e-19 -0.0159298)
(-1.80334e-18 -1.66387e-19 -0.0159321)
(-8.53768e-20 -5.83274e-19 -0.0157414)
(4.15179e-19 -6.10869e-19 -0.0157551)
(1.89076e-19 -7.72974e-19 -0.0157682)
(-8.05592e-20 -7.33465e-19 -0.0157808)
(-3.69447e-19 -9.16865e-19 -0.0157928)
(-2.51716e-19 -1.2237e-18 -0.0158043)
(-3.93569e-19 -9.72804e-19 -0.0158152)
(-3.53029e-19 -4.98037e-19 -0.0158256)
(-5.18299e-19 -7.09694e-19 -0.0158354)
(-9.85725e-19 -8.88999e-19 -0.0158446)
(-1.60847e-18 -4.39755e-19 -0.0158533)
(-2.05073e-18 6.05498e-20 -0.0158615)
(-1.77032e-18 -1.43332e-19 -0.015869)
(-1.52069e-18 -6.22304e-19 -0.015876)
(-1.39476e-18 -2.41811e-19 -0.0158824)
(-1.40609e-18 1.68948e-19 -0.0158882)
(-1.58086e-18 -6.99925e-19 -0.0158935)
(-1.23889e-18 -1.05818e-18 -0.0158981)
(-1.31638e-18 -6.3039e-19 -0.0159022)
(-1.36329e-18 -6.2285e-19 -0.0159057)
(-1.46621e-18 -2.55405e-19 -0.0159086)
(-1.72429e-18 1.46404e-19 -0.0159109)
(-2.15674e-20 -7.16373e-19 -0.015715)
(5.16516e-20 -8.61905e-19 -0.015729)
(-7.26515e-20 -8.05708e-19 -0.0157424)
(-1.13156e-20 -4.88018e-19 -0.0157553)
(-2.23009e-19 -5.04677e-19 -0.0157676)
(-9.46826e-20 -9.62873e-19 -0.0157793)
(-3.25143e-19 -1.22827e-18 -0.0157906)
(-1.69696e-19 -7.27895e-19 -0.0158012)
(-5.33846e-19 -4.26353e-19 -0.0158113)
(-1.00995e-18 -4.62358e-19 -0.0158208)
(-1.64885e-18 -1.76001e-19 -0.0158297)
(-1.91826e-18 1.42462e-19 -0.0158381)
(-1.65554e-18 -2.01915e-19 -0.0158458)
(-1.25307e-18 -7.73387e-19 -0.015853)
(-1.32289e-18 -5.53692e-19 -0.0158596)
(-1.21838e-18 1.63699e-19 -0.0158656)
(-1.05064e-18 -5.18611e-19 -0.015871)
(-1.13931e-18 -1.00785e-18 -0.0158758)
(-1.6521e-18 -5.26924e-19 -0.01588)
(-1.6379e-18 -5.60903e-19 -0.0158836)
(-1.75959e-18 -2.28978e-19 -0.0158866)
(-1.61442e-18 3.59597e-19 -0.015889)
(-7.42313e-20 -6.71342e-19 -0.015688)
(-2.4329e-19 -8.02609e-19 -0.0157023)
(-2.06577e-19 -1.13086e-18 -0.015716)
(-7.38992e-20 -8.42942e-19 -0.0157291)
(6.80199e-20 -5.53887e-19 -0.0157417)
(5.43924e-19 -6.60523e-19 -0.0157538)
(2.54136e-19 -9.32009e-19 -0.0157652)
(-1.54709e-19 -6.8651e-19 -0.0157762)
(-5.50187e-19 -2.09177e-19 -0.0157865)
(-8.36019e-19 -9.52556e-20 -0.0157962)
(-1.24287e-18 1.57207e-19 -0.0158054)
(-1.237e-18 2.78799e-19 -0.015814)
(-7.71279e-19 -1.85916e-19 -0.0158219)
(-6.96248e-19 -6.60326e-19 -0.0158293)
(-1.16566e-18 -4.54598e-19 -0.0158361)
(-1.38889e-18 -6.24537e-21 -0.0158423)
(-9.89452e-19 -4.21531e-19 -0.0158478)
(-1.3595e-18 -5.52085e-19 -0.0158528)
(-1.79922e-18 -2.90587e-19 -0.0158571)
(-1.74694e-18 -5.45535e-19 -0.0158608)
(-1.98005e-18 -3.29053e-19 -0.0158639)
(-1.77312e-18 2.1988e-19 -0.0158664)
(-2.62498e-19 -6.21921e-19 -0.0156604)
(-1.2128e-19 -6.31581e-19 -0.015675)
(-5.64617e-20 -9.55992e-19 -0.015689)
(-2.28542e-19 -1.10281e-18 -0.0157024)
(2.40406e-19 -9.50067e-19 -0.0157152)
(4.64437e-19 -8.34378e-19 -0.0157276)
(1.73118e-19 -6.62048e-19 -0.0157393)
(-6.92394e-19 -6.17478e-19 -0.0157504)
(-1.03838e-18 -2.85775e-19 -0.015761)
(-1.19703e-18 -1.10367e-19 -0.015771)
(-1.2096e-18 1.22083e-19 -0.0157804)
(-7.95801e-19 1.59943e-19 -0.0157892)
(-2.09254e-19 -5.81489e-20 -0.0157974)
(-6.51367e-19 -2.98314e-19 -0.0158049)
(-1.37595e-18 -1.53412e-19 -0.0158119)
(-1.56893e-18 2.35633e-20 -0.0158182)
(-1.06346e-18 -3.91765e-19 -0.0158239)
(-1.32503e-18 -3.6231e-19 -0.015829)
(-1.50563e-18 -1.4896e-19 -0.0158334)
(-1.47013e-18 -3.37242e-19 -0.0158372)
(-1.73289e-18 -2.15839e-19 -0.0158404)
(-1.62894e-18 1.11914e-20 -0.0158429)
(-1.06644e-19 -5.70328e-19 -0.0156323)
(3.19842e-20 -6.87401e-19 -0.0156471)
(-1.6219e-20 -8.11602e-19 -0.0156613)
(-6.3951e-20 -1.10659e-18 -0.015675)
(4.73944e-19 -1.09678e-18 -0.0156882)
(2.15275e-19 -9.15763e-19 -0.0157007)
(-2.37725e-19 -4.30415e-19 -0.0157127)
(-1.0094e-18 -2.42614e-19 -0.0157241)
(-1.27229e-18 -2.17426e-19 -0.0157349)
(-1.60778e-18 -2.70947e-19 -0.0157451)
(-1.66919e-18 -2.77817e-19 -0.0157547)
(-9.44154e-19 -2.92721e-19 -0.0157637)
(-4.88706e-19 -8.2086e-20 -0.0157721)
(-1.15164e-18 1.82964e-19 -0.0157798)
(-1.85748e-18 1.05822e-19 -0.015787)
(-1.71952e-18 -1.78095e-19 -0.0157934)
(-1.28076e-18 -5.21033e-19 -0.0157993)
(-1.52253e-18 -2.22543e-19 -0.0158045)
(-1.51108e-18 -9.19839e-20 -0.015809)
(-1.38479e-18 -2.66124e-19 -0.0158129)
(9.98792e-20 -5.84417e-19 -0.0156036)
(4.56012e-20 -5.49875e-19 -0.0156187)
(6.05446e-20 -7.01685e-19 -0.0156332)
(1.2556e-19 -1.22839e-18 -0.0156471)
(2.0093e-19 -1.31501e-18 -0.0156605)
(-4.64724e-19 -1.01309e-18 -0.0156733)
(-1.0914e-18 -5.31987e-19 -0.0156855)
(-9.4663e-19 -7.76856e-20 -0.0156972)
(-1.29952e-18 8.13224e-20 -0.0157082)
(-1.74627e-18 7.37371e-20 -0.0157186)
(-1.64948e-18 -4.04929e-19 -0.0157284)
(-1.17737e-18 -7.73728e-19 -0.0157376)
(-1.24188e-18 -2.04055e-19 -0.0157462)
(-1.81486e-18 4.89522e-19 -0.0157541)
(-2.08232e-18 3.0081e-19 -0.0157614)
(-1.56001e-18 -2.10961e-19 -0.015768)
(-1.35237e-18 -5.19251e-19 -0.015774)
(-1.784e-18 -2.57181e-19 -0.0157793)
(-1.63978e-18 -1.93529e-19 -0.015784)
(5.10942e-20 -7.31346e-19 -0.0155744)
(1.65826e-19 -6.05445e-19 -0.0155897)
(2.65994e-19 -4.83474e-19 -0.0156045)
(9.7687e-20 -9.3593e-19 -0.0156186)
(-4.55614e-19 -1.23067e-18 -0.0156323)
(-1.25805e-18 -9.60186e-19 -0.0156453)
(-1.61183e-18 -9.24389e-19 -0.0156578)
(-1.07881e-18 -3.48546e-19 -0.0156696)
(-1.70169e-18 1.77612e-19 -0.0156809)
(-1.83128e-18 1.09988e-19 -0.0156915)
(-1.69857e-18 -3.73975e-19 -0.0157015)
(-1.66866e-18 -7.62875e-19 -0.0157109)
(-1.88499e-18 -2.18509e-19 -0.0157196)
(-2.11578e-18 5.47863e-19 -0.0157277)
(-1.85178e-18 1.6972e-19 -0.0157352)
(-1.0897e-18 -3.74938e-19 -0.0157419)
(-1.08098e-18 -2.81435e-19 -0.015748)
(-6.90256e-20 -7.73153e-19 -0.0155447)
(1.97312e-19 -7.81531e-19 -0.0155602)
(1.27359e-19 -5.38826e-19 -0.0155752)
(1.24878e-20 -5.77273e-19 -0.0155896)
(-6.52619e-19 -8.54834e-19 -0.0156035)
(-1.16147e-18 -7.02726e-19 -0.0156168)
(-1.1639e-18 -9.16959e-19 -0.0156294)
(-1.25625e-18 -5.11187e-19 -0.0156415)
(-1.64176e-18 3.50205e-19 -0.015653)
(-1.87176e-18 2.64849e-19 -0.0156638)
(-1.87811e-18 -2.61348e-19 -0.015674)
(-1.73323e-18 -7.79696e-19 -0.0156836)
(-1.95715e-18 -3.34382e-19 -0.0156925)
(-2.11416e-18 4.01753e-19 -0.0157007)
(1.68615e-19 -6.99827e-19 -0.0155145)
(2.55438e-19 -8.3515e-19 -0.0155302)
(-1.58205e-19 -6.99162e-19 -0.0155454)
(-2.42059e-19 -5.36987e-19 -0.0155601)
(-6.71335e-19 -6.1972e-19 -0.0155742)
(-9.0892e-19 -5.45415e-19 -0.0155877)
(-6.17269e-19 -6.4045e-19 -0.0156006)
(-1.19131e-18 -5.35043e-19 -0.0156128)
(-1.20329e-18 4.90774e-19 -0.0156245)
(-1.65328e-18 5.63539e-19 -0.0156355)
(-1.40364e-18 -3.3665e-20 -0.0156459)
(-1.38364e-18 -5.9779e-19 -0.0156557)
(2.33002e-19 -7.00199e-19 -0.0154838)
(1.04061e-19 -7.07899e-19 -0.0154998)
(-4.32948e-19 -6.93593e-19 -0.0155152)
(-6.11073e-19 -6.20647e-19 -0.0155301)
(-9.15166e-19 -6.07898e-19 -0.0155444)
(-1.07386e-18 -7.17775e-19 -0.0155581)
(-7.68347e-19 -6.43066e-19 -0.0155712)
(-1.26784e-18 -5.49638e-19 -0.0155836)
(-1.36517e-18 4.03816e-19 -0.0155955)
(-1.46131e-18 7.27342e-19 -0.0156067)
(-7.86592e-20 -7.72973e-19 -0.0154526)
(-2.10507e-19 -7.59233e-19 -0.0154688)
(-4.57293e-19 -5.3988e-19 -0.0154845)
(-7.33963e-19 -5.52733e-19 -0.0154995)
(-1.06385e-18 -5.0604e-19 -0.015514)
(-1.29712e-18 -7.71022e-19 -0.0155279)
(-1.50844e-18 -9.0409e-19 -0.0155412)
(-1.83841e-18 -7.34768e-19 -0.0155539)
(-1.91887e-18 3.99868e-20 -0.015566)
(-2.88908e-19 -6.47047e-19 -0.015421)
(-3.34545e-19 -8.77336e-19 -0.0154374)
(-4.26152e-19 -5.57554e-19 -0.0154533)
(-8.86845e-19 -4.67819e-19 -0.0154685)
(-1.225e-18 -3.68329e-19 -0.0154832)
(-1.40844e-18 -4.65342e-19 -0.0154973)
(-2.04236e-18 -8.02688e-19 -0.0155108)
(-2.22379e-18 -9.23024e-19 -0.0155237)
(-3.81326e-19 -5.89424e-19 -0.015389)
(-3.73035e-19 -8.72902e-19 -0.0154056)
(-5.38113e-19 -5.22799e-19 -0.0154216)
(-1.11557e-18 -4.18796e-19 -0.0154371)
(-1.06962e-18 -2.44639e-19 -0.015452)
(-1.26086e-18 -1.55298e-19 -0.0154663)
(-1.85563e-18 -4.22012e-19 -0.0154799)
(-5.55677e-19 -5.85248e-19 -0.0153565)
(-4.27832e-19 -9.45159e-19 -0.0153733)
(-7.40321e-19 -5.71351e-19 -0.0153895)
(-1.18174e-18 -4.69814e-19 -0.0154052)
(-9.48441e-19 -2.73814e-19 -0.0154202)
(-1.222e-18 9.51018e-20 -0.0154347)
(-1.98063e-19 -3.59272e-19 -0.0153236)
(-3.23963e-19 -8.34404e-19 -0.0153406)
(-1.01653e-18 -6.28266e-19 -0.015357)
(-9.52446e-19 -3.84162e-19 -0.0153728)
(-1.06064e-18 -4.08696e-19 -0.0153881)
(-1.42744e-18 2.07668e-19 -0.0154027)
(2.22668e-19 -2.7064e-19 -0.0152903)
(-4.90838e-19 -5.61183e-19 -0.0153075)
(-1.07478e-18 -6.59408e-19 -0.015324)
(-8.30206e-19 -3.87964e-19 -0.01534)
(-1.15777e-18 -3.29546e-19 -0.0153555)
(-2.40173e-20 -4.44159e-19 -0.0152566)
(-7.48697e-19 -3.74686e-19 -0.015274)
(-9.58932e-19 -5.45599e-19 -0.0152907)
(-1.08041e-18 -5.36432e-19 -0.0153069)
(-3.5113e-19 -5.64744e-19 -0.0152226)
(-8.00641e-19 -2.96738e-19 -0.01524)
(-7.34671e-19 -3.0333e-19 -0.0152569)
(-9.56591e-19 -4.14464e-19 -0.0152733)
(-5.14682e-19 -4.94034e-19 -0.0151881)
(-8.73903e-19 -3.69471e-19 -0.0152058)
(-6.98927e-19 -3.12424e-19 -0.0152228)
(-5.06828e-19 -3.19216e-19 -0.0151533)
(-9.07741e-19 -3.30674e-19 -0.0151711)
(-7.77264e-19 -3.52228e-19 -0.0151883)
(-4.05478e-19 -1.72984e-19 -0.0151181)
(-9.25078e-19 -2.57691e-19 -0.0151361)
(-7.4785e-19 -3.21109e-19 -0.0151534)
(-5.39939e-19 -1.91439e-19 -0.0150826)
(-9.57509e-19 -1.49746e-19 -0.0151007)
(-8.92414e-19 -3.71284e-19 -0.0151182)
(-9.38006e-19 -3.03323e-19 -0.0150467)
(-8.71644e-19 6.05722e-22 -0.0150649)
(-1.00977e-18 -3.31403e-19 -0.0150826)
(-1.16859e-18 -4.47536e-19 -0.0150105)
(-8.29783e-19 -8.66806e-22 -0.0150289)
(-9.50927e-19 -8.16154e-20 -0.0150466)
(-1.25373e-18 -3.99984e-19 -0.014974)
(-6.36199e-19 -2.21917e-20 -0.0149925)
(-8.27489e-19 1.44955e-19 -0.0150103)
(-1.16036e-18 -3.14064e-19 -0.0149372)
(-4.62866e-19 -7.98633e-20 -0.0149557)
(-8.17265e-19 3.77655e-19 -0.0149737)
(-1.06528e-18 -1.77483e-19 -0.0149)
(-5.14216e-19 -2.70619e-19 -0.0149187)
(-9.02836e-19 4.3301e-19 -0.0149368)
(-7.97027e-19 7.68339e-20 -0.0148625)
(-6.28834e-19 -4.28e-19 -0.0148813)
(-9.28266e-19 3.63277e-19 -0.0148995)
(-6.41753e-19 2.1763e-19 -0.0148247)
(-7.58914e-19 -4.85644e-19 -0.0148436)
(-7.81665e-19 2.42079e-19 -0.0148619)
(-7.12182e-19 1.72105e-19 -0.0147866)
(-6.86017e-19 -4.48609e-19 -0.0148056)
(-5.04926e-19 1.76524e-19 -0.0148241)
(-7.30395e-19 1.81706e-19 -0.0147482)
(-4.86094e-19 -3.97241e-19 -0.0147673)
(-3.19804e-19 1.64292e-19 -0.0147859)
(-5.22354e-19 3.30492e-19 -0.0147095)
(-3.66257e-19 -3.86003e-19 -0.0147287)
(-4.50411e-19 5.21353e-20 -0.0147474)
(3.8438e-21 -1.1822e-18 -0.0159652)
(3.61578e-19 -1.25568e-18 -0.0159473)
(6.81724e-19 -1.31999e-18 -0.0159278)
(4.27897e-19 -9.68768e-19 -0.0159073)
(1.86926e-19 -9.87077e-19 -0.0158858)
(6.31765e-20 -8.71535e-19 -0.0158636)
(2.27872e-20 -5.31158e-19 -0.0158406)
(-3.46441e-19 -4.07147e-20 -0.0158168)
(-7.63506e-19 -9.07106e-20 -0.0157923)
(-6.65481e-19 -5.90679e-19 -0.0157672)
(-2.61829e-19 -7.93451e-19 -0.0157414)
(-7.33062e-20 -8.22263e-19 -0.015715)
(-4.30182e-20 -7.27346e-19 -0.015688)
(-2.84075e-20 -5.39104e-19 -0.0156604)
(-5.05605e-20 -6.80641e-19 -0.0156323)
(2.80554e-21 -8.42649e-19 -0.0156036)
(1.6557e-19 -7.64325e-19 -0.0155744)
(1.60092e-19 -6.74797e-19 -0.0155447)
(1.07887e-19 -6.74191e-19 -0.0155145)
(2.28584e-19 -6.18846e-19 -0.0154838)
(2.53168e-19 -4.2479e-19 -0.0154526)
(4.28323e-20 -3.08088e-19 -0.015421)
(-1.63194e-19 -3.64441e-19 -0.015389)
(-3.57797e-19 -4.12687e-19 -0.0153565)
(-5.85548e-19 -5.43984e-19 -0.0153236)
(-5.40473e-19 -8.24424e-19 -0.0152903)
(-4.23851e-19 -7.29422e-19 -0.0152566)
(-2.88864e-19 -3.99265e-19 -0.0152226)
(-3.13485e-19 -2.00628e-19 -0.0151881)
(-4.39196e-19 -2.09036e-19 -0.0151533)
(-5.55494e-19 -3.14388e-19 -0.0151181)
(-5.27051e-19 -1.96884e-19 -0.0150826)
(-5.83962e-19 -1.10738e-19 -0.0150467)
(-6.2837e-19 -4.36529e-20 -0.0150105)
(-5.80386e-19 2.52084e-19 -0.014974)
(-6.43928e-19 4.54327e-19 -0.0149372)
(-6.20106e-19 4.51749e-19 -0.0149)
(-7.16034e-19 2.40967e-19 -0.0148625)
(-8.8688e-19 -4.13519e-20 -0.0148247)
(-9.22214e-19 -3.19036e-20 -0.0147866)
(-8.50199e-19 1.23762e-19 -0.0147482)
(-8.55407e-19 1.39113e-19 -0.0147095)
(-4.77475e-19 -1.07854e-18 -0.0159757)
(-4.45616e-21 -1.36565e-18 -0.0159576)
(2.86123e-19 -1.15761e-18 -0.0159385)
(4.40793e-19 -7.80716e-19 -0.0159184)
(1.57398e-19 -6.45778e-19 -0.0158974)
(1.87062e-20 -7.13589e-19 -0.0158755)
(7.94658e-20 -4.55206e-19 -0.0158529)
(1.26364e-19 -3.34809e-20 -0.0158295)
(-1.5134e-20 -3.96386e-19 -0.0158054)
(-1.97628e-19 -1.20967e-18 -0.0157806)
(-2.2449e-19 -1.36384e-18 -0.0157551)
(5.62098e-20 -9.86235e-19 -0.015729)
(5.41703e-20 -6.74865e-19 -0.0157023)
(-3.77484e-20 -7.6698e-19 -0.015675)
(9.7894e-20 -8.78144e-19 -0.0156471)
(1.9939e-20 -8.32235e-19 -0.0156187)
(1.19165e-19 -8.735e-19 -0.0155897)
(2.81776e-19 -8.26962e-19 -0.0155602)
(2.79499e-19 -7.82057e-19 -0.0155302)
(2.23663e-19 -6.49374e-19 -0.0154998)
(3.23783e-19 -3.53234e-19 -0.0154688)
(3.8606e-19 -2.04821e-19 -0.0154374)
(2.59664e-19 -2.64656e-19 -0.0154056)
(1.87044e-19 -3.38344e-19 -0.0153733)
(-2.53651e-21 -4.22973e-19 -0.0153406)
(-2.5119e-19 -3.17232e-19 -0.0153075)
(-4.41673e-19 -1.21736e-19 -0.015274)
(-4.96391e-19 -6.11011e-20 -0.01524)
(-4.04797e-19 -1.84124e-20 -0.0152058)
(-3.93392e-19 -2.21446e-20 -0.0151711)
(-4.02255e-19 9.65693e-22 -0.0151361)
(-4.79051e-19 -8.45503e-22 -0.0151007)
(-6.59971e-19 -2.28443e-19 -0.0150649)
(-8.0488e-19 -2.80759e-19 -0.0150289)
(-6.31769e-19 -3.72749e-20 -0.0149925)
(-6.40822e-19 -2.23413e-19 -0.0149557)
(-6.95974e-19 -5.55759e-19 -0.0149187)
(-3.87089e-19 -2.58066e-19 -0.0148813)
(-1.72997e-19 7.19847e-20 -0.0148436)
(-2.43999e-19 9.8384e-20 -0.0148056)
(-2.41496e-19 -4.24583e-20 -0.0147673)
(-1.19555e-19 7.45241e-20 -0.0147287)
(-7.89359e-19 -1.25493e-18 -0.0159856)
(-3.55454e-19 -1.4779e-18 -0.0159675)
(-6.55037e-20 -1.10089e-18 -0.0159487)
(2.65861e-19 -6.04114e-19 -0.015929)
(1.83392e-19 -4.50839e-19 -0.0159084)
(8.99706e-20 -7.5553e-19 -0.0158869)
(1.57321e-19 -6.02032e-19 -0.0158646)
(2.35393e-19 -3.75059e-19 -0.0158416)
(3.49936e-19 -9.38923e-19 -0.0158178)
(2.26046e-19 -1.32326e-18 -0.0157934)
(-3.1932e-20 -1.15747e-18 -0.0157682)
(-8.9181e-21 -8.84e-19 -0.0157424)
(3.33035e-19 -7.2886e-19 -0.015716)
(1.3239e-19 -8.293e-19 -0.015689)
(1.34685e-19 -9.05065e-19 -0.0156613)
(1.29589e-19 -9.05413e-19 -0.0156332)
(-7.21005e-21 -9.85285e-19 -0.0156045)
(8.80949e-20 -7.40637e-19 -0.0155752)
(2.31085e-19 -4.23258e-19 -0.0155454)
(1.93581e-19 -1.89567e-19 -0.0155152)
(9.7158e-20 -8.75219e-20 -0.0154845)
(1.6142e-19 -6.13536e-20 -0.0154533)
(9.18408e-20 -1.54521e-19 -0.0154216)
(2.92304e-20 -1.93834e-19 -0.0153895)
(6.83304e-20 1.54619e-20 -0.015357)
(3.56153e-21 1.41941e-19 -0.015324)
(-1.84703e-19 -2.50767e-20 -0.0152907)
(-3.97796e-19 -2.70049e-19 -0.0152569)
(-3.81179e-19 -3.67284e-19 -0.0152228)
(-3.56756e-19 -2.99911e-19 -0.0151883)
(-3.36313e-19 -3.03113e-19 -0.0151534)
(-2.58245e-19 -1.69068e-19 -0.0151182)
(-2.87647e-19 -3.52558e-21 -0.0150826)
(-5.56848e-19 5.65932e-20 -0.0150466)
(-8.08266e-19 3.29564e-20 -0.0150103)
(-8.58543e-19 -7.77342e-20 -0.0149737)
(-9.53489e-19 1.23889e-21 -0.0149368)
(-9.7884e-19 1.66122e-19 -0.0148995)
(-7.1994e-19 1.80829e-19 -0.0148619)
(-6.70316e-19 -1.48299e-19 -0.0148241)
(-6.83659e-19 -3.40988e-19 -0.0147859)
(-4.76545e-19 -2.89182e-20 -0.0147474)
(-6.70296e-19 -1.42764e-18 -0.0159949)
(-6.23168e-19 -1.65415e-18 -0.0159771)
(-2.65588e-19 -1.32112e-18 -0.0159585)
(-2.45158e-20 -6.12458e-19 -0.0159391)
(1.66578e-19 -4.85201e-19 -0.0159189)
(3.8105e-20 -7.39437e-19 -0.0158978)
(1.29703e-19 -5.81832e-19 -0.0158759)
(3.60528e-19 -5.42007e-19 -0.0158532)
(3.91604e-19 -9.39844e-19 -0.0158298)
(1.73167e-19 -9.33352e-19 -0.0158056)
(-2.15139e-20 -8.93515e-19 -0.0157808)
(-2.99574e-19 -9.53357e-19 -0.0157553)
(1.14064e-19 -8.22805e-19 -0.0157291)
(3.6652e-19 -8.04041e-19 -0.0157024)
(3.89339e-19 -1.07326e-18 -0.015675)
(6.41906e-19 -1.06449e-18 -0.0156471)
(4.37727e-19 -8.61585e-19 -0.0156186)
(1.50476e-19 -6.55509e-19 -0.0155896)
(1.37726e-19 -3.46082e-19 -0.0155601)
(2.07295e-19 -2.05672e-20 -0.0155301)
(1.24085e-19 6.82936e-20 -0.0154995)
(9.49202e-20 8.27672e-20 -0.0154685)
(8.82134e-20 1.25443e-19 -0.0154371)
(-1.3774e-20 1.52279e-19 -0.0154052)
(-1.51732e-19 1.92768e-19 -0.0153728)
(-1.87013e-19 2.06372e-19 -0.01534)
(-1.78526e-19 1.41297e-19 -0.0153069)
(-3.67442e-19 -1.08876e-19 -0.0152733)
(-4.80836e-19 -9.41333e-20 -0.0152393)
(-4.79273e-19 4.17299e-21 -0.0152049)
(-4.82074e-19 -1.32784e-20 -0.0151702)
(-4.25923e-19 2.38355e-19 -0.0151351)
(-3.08839e-19 5.88293e-19 -0.0150996)
(-3.16846e-19 7.53041e-19 -0.0150638)
(-5.12971e-19 4.58723e-19 -0.0150276)
(-6.84786e-19 1.73196e-19 -0.0149912)
(-6.22394e-19 1.56327e-19 -0.0149543)
(-7.69077e-19 -3.05298e-19 -0.0149172)
(-9.13512e-19 -7.72781e-19 -0.0148797)
(-6.80344e-19 -5.6927e-19 -0.0148419)
(-5.01152e-19 -1.50182e-19 -0.0148038)
(-3.8911e-19 5.11626e-20 -0.0147654)
(-3.2771e-19 -1.24091e-18 -0.0160036)
(-7.09727e-19 -1.64965e-18 -0.0159862)
(-4.498e-19 -1.38528e-18 -0.0159679)
(-4.08277e-20 -7.5873e-19 -0.0159488)
(1.84281e-19 -5.6162e-19 -0.0159289)
(5.85007e-20 -7.0715e-19 -0.0159082)
(-3.4162e-20 -7.98193e-19 -0.0158866)
(2.34059e-19 -7.71415e-19 -0.0158643)
(1.1445e-19 -5.57488e-19 -0.0158412)
(1.43403e-19 -5.83319e-19 -0.0158173)
(1.81404e-19 -5.74651e-19 -0.0157928)
(-2.73312e-19 -7.87366e-19 -0.0157676)
(-2.21773e-19 -1.14885e-18 -0.0157417)
(2.84211e-19 -1.40505e-18 -0.0157152)
(4.04473e-19 -1.58919e-18 -0.0156882)
(7.00216e-19 -1.17583e-18 -0.0156605)
(7.26052e-19 -3.54381e-19 -0.0156323)
(4.36333e-19 -5.48479e-20 -0.0156035)
(2.36305e-19 -6.86165e-21 -0.0155742)
(2.4219e-19 1.72689e-19 -0.0155444)
(1.30377e-19 2.39678e-19 -0.015514)
(-5.3225e-20 2.82771e-19 -0.0154832)
(-1.31961e-19 3.62133e-19 -0.015452)
(-8.51772e-20 5.20127e-19 -0.0154202)
(-5.67758e-20 5.92414e-19 -0.0153881)
(-2.36602e-19 3.82376e-19 -0.0153555)
(-3.5585e-19 2.18954e-19 -0.0153225)
(-4.67181e-19 2.48268e-19 -0.015289)
(-6.41924e-19 2.46598e-19 -0.0152552)
(-7.38485e-19 1.04815e-19 -0.015221)
(-7.15815e-19 1.66716e-19 -0.0151864)
(-5.78499e-19 4.28002e-19 -0.0151514)
(-4.9846e-19 5.69396e-19 -0.0151161)
(-4.64656e-19 3.27568e-19 -0.0150804)
(-4.91982e-19 -6.91083e-20 -0.0150444)
(-5.69634e-19 -4.52208e-19 -0.015008)
(-6.55512e-19 -7.45528e-19 -0.0149713)
(-5.97965e-19 -7.86994e-19 -0.0149342)
(-5.77699e-19 -6.24987e-19 -0.0148969)
(-5.15437e-19 -4.26857e-19 -0.0148592)
(-4.32493e-19 -3.16185e-19 -0.0148212)
(-3.90474e-19 -3.43603e-19 -0.0147829)
(-2.09412e-20 -1.00646e-18 -0.0160119)
(-4.97079e-19 -1.65086e-18 -0.0159948)
(-5.71109e-19 -1.74737e-18 -0.0159769)
(-4.98502e-20 -1.19532e-18 -0.0159581)
(3.1953e-19 -6.9993e-19 -0.0159385)
(4.08352e-19 -7.91722e-19 -0.0159181)
(3.01046e-19 -9.19305e-19 -0.0158968)
(2.3024e-19 -5.47343e-19 -0.0158748)
(-3.92623e-20 -4.24869e-19 -0.015852)
(2.07002e-19 -9.89067e-19 -0.0158285)
(4.99973e-19 -6.92574e-19 -0.0158043)
(2.4545e-19 -9.36691e-19 -0.0157793)
(-1.05601e-19 -1.6712e-18 -0.0157538)
(9.13386e-20 -1.65204e-18 -0.0157276)
(1.81174e-19 -1.34329e-18 -0.0157007)
(3.15842e-19 -5.48091e-19 -0.0156733)
(3.78783e-19 3.69609e-19 -0.0156453)
(2.32293e-19 4.17098e-19 -0.0156168)
(1.56329e-19 1.95413e-19 -0.0155877)
(3.86365e-19 2.75869e-19 -0.0155581)
(4.86435e-19 4.99087e-19 -0.0155279)
(1.3678e-19 6.91032e-19 -0.0154973)
(-2.44843e-19 6.54864e-19 -0.0154663)
(-4.84814e-19 5.58246e-19 -0.0154347)
(-4.12355e-19 5.90896e-19 -0.0154027)
(-4.1355e-19 6.70842e-19 -0.0153703)
(-4.69061e-19 7.37496e-19 -0.0153374)
(-5.73795e-19 7.15373e-19 -0.0153042)
(-7.16973e-19 5.31563e-19 -0.0152705)
(-8.0383e-19 3.03985e-19 -0.0152364)
(-7.52796e-19 1.48842e-19 -0.0152019)
(-5.88568e-19 2.67891e-19 -0.0151671)
(-4.38283e-19 2.15401e-19 -0.0151319)
(-3.89349e-19 -8.79493e-20 -0.0150963)
(-4.51697e-19 -3.88873e-19 -0.0150604)
(-4.63256e-19 -4.97812e-19 -0.0150242)
(-4.62946e-19 -3.71576e-19 -0.0149876)
(-5.75524e-19 -4.77229e-19 -0.0149506)
(-6.87253e-19 -6.08846e-19 -0.0149134)
(-6.39096e-19 -5.20406e-19 -0.0148758)
(-5.43743e-19 -3.39792e-19 -0.0148379)
(-4.389e-19 -1.4581e-19 -0.0147997)
(2.06416e-19 -1.0623e-18 -0.0160196)
(-1.69527e-19 -1.52751e-18 -0.0160029)
(-6.05674e-19 -1.71281e-18 -0.0159853)
(-2.97218e-19 -1.41355e-18 -0.0159669)
(2.20618e-19 -1.01448e-18 -0.0159476)
(2.88189e-19 -8.55915e-19 -0.0159275)
(3.09445e-19 -7.4945e-19 -0.0159066)
(4.10148e-19 -3.25611e-19 -0.0158848)
(2.10055e-19 -6.87464e-19 -0.0158624)
(1.0659e-19 -1.28207e-18 -0.0158391)
(2.85343e-19 -6.13309e-19 -0.0158152)
(5.41024e-19 -7.64235e-19 -0.0157906)
(2.31106e-19 -1.42162e-18 -0.0157652)
(2.58447e-20 -1.40309e-18 -0.0157393)
(-2.58311e-19 -8.75079e-19 -0.0157127)
(-1.63365e-19 4.21547e-20 -0.0156855)
(2.84856e-19 6.65378e-19 -0.0156578)
(3.48824e-19 3.38429e-19 -0.0156294)
(1.54516e-19 -2.50578e-19 -0.0156006)
(2.13939e-19 -1.41665e-19 -0.0155712)
(5.46063e-19 7.66579e-19 -0.0155412)
(5.38437e-19 1.41276e-18 -0.0155108)