/*--------------------------------*- C++ -*----------------------------------*\
  =========                 |
  \\      /  F ield         | OpenFOAM: The Open Source CFD Toolbox
   \\    /   O peration     | Website:  https://openfoam.org
    \\  /    A nd           | Version:  7
     \\/     M anipulation  |
\*---------------------------------------------------------------------------*/
FoamFile
{
    version     2.0;
    format      ascii;
    class       volScalarField;
    location    "164000";
    object      nut;
}
// * * * * * * * * * * * * * * * * * * * * * * * * * * * * * * * * * * * * * //

dimensions      [0 2 -1 0 0 0 0];

internalField   nonuniform List<scalar> 
4782
(
4.1856e-06
4.02448e-06
3.86511e-06
3.70754e-06
3.55184e-06
3.39807e-06
3.24631e-06
3.09663e-06
2.94911e-06
2.80382e-06
1.25116e-05
1.2315e-05
1.21184e-05
1.1922e-05
1.17256e-05
1.15295e-05
1.13336e-05
1.1138e-05
1.09427e-05
1.07478e-05
1.05532e-05
1.03575e-05
1.01587e-05
9.95912e-06
9.75989e-06
9.56159e-06
9.36444e-06
9.16854e-06
8.97388e-06
8.78043e-06
8.58814e-06
8.39696e-06
8.20686e-06
8.0178e-06
7.82977e-06
7.64276e-06
7.45677e-06
7.2718e-06
7.08787e-06
6.90498e-06
6.72317e-06
6.54244e-06
6.36283e-06
6.18437e-06
6.00709e-06
5.83101e-06
5.65617e-06
5.48262e-06
5.31038e-06
5.1395e-06
4.97002e-06
4.80199e-06
4.63544e-06
4.47043e-06
4.30702e-06
4.14524e-06
3.98515e-06
3.82682e-06
3.67031e-06
3.51567e-06
3.36297e-06
3.21229e-06
3.06369e-06
2.91726e-06
2.77307e-06
1.24346e-05
1.22384e-05
1.20423e-05
1.18463e-05
1.16506e-05
1.1455e-05
1.12596e-05
1.10646e-05
1.08699e-05
1.06756e-05
1.04817e-05
1.02844e-05
1.00853e-05
9.88619e-06
9.68777e-06
9.49044e-06
9.29434e-06
9.0995e-06
8.90589e-06
8.71346e-06
8.52217e-06
8.33197e-06
8.14281e-06
7.95469e-06
7.76759e-06
7.5815e-06
7.39643e-06
7.21238e-06
7.02937e-06
6.84741e-06
6.66652e-06
6.48674e-06
6.30808e-06
6.13057e-06
5.95425e-06
5.77915e-06
5.6053e-06
5.43274e-06
5.2615e-06
5.09163e-06
4.92318e-06
4.75617e-06
4.59067e-06
4.42671e-06
4.26435e-06
4.10364e-06
3.94464e-06
3.78739e-06
3.63197e-06
3.47843e-06
3.32685e-06
3.17728e-06
3.02981e-06
2.8845e-06
2.74145e-06
1.23551e-05
1.21594e-05
1.19638e-05
1.17684e-05
1.15731e-05
1.13781e-05
1.11834e-05
1.09889e-05
1.07948e-05
1.06011e-05
1.04062e-05
1.0208e-05
1.00091e-05
9.81067e-06
9.61329e-06
9.41713e-06
9.22222e-06
9.02855e-06
8.83605e-06
8.6447e-06
8.45442e-06
8.26521e-06
8.07702e-06
7.88985e-06
7.70369e-06
7.51853e-06
7.33439e-06
7.15128e-06
6.9692e-06
6.78819e-06
6.60826e-06
6.42944e-06
6.25175e-06
6.07522e-06
5.89989e-06
5.72579e-06
5.55295e-06
5.38141e-06
5.21121e-06
5.04238e-06
4.87498e-06
4.70904e-06
4.54461e-06
4.38173e-06
4.22047e-06
4.06086e-06
3.90297e-06
3.74684e-06
3.59255e-06
3.44015e-06
3.28972e-06
3.14131e-06
2.995e-06
2.85086e-06
2.70899e-06
1.22734e-05
1.20782e-05
1.18831e-05
1.16882e-05
1.14935e-05
1.12991e-05
1.1105e-05
1.09106e-05
1.07135e-05
1.05156e-05
1.03176e-05
1.012e-05
9.92297e-06
9.72673e-06
9.53141e-06
9.3371e-06
9.14384e-06
8.95165e-06
8.76052e-06
8.57043e-06
8.38138e-06
8.19333e-06
8.0063e-06
7.82026e-06
7.63521e-06
7.45117e-06
7.26814e-06
7.08613e-06
6.90516e-06
6.72525e-06
6.54642e-06
6.36871e-06
6.19213e-06
6.01672e-06
5.84251e-06
5.66953e-06
5.49782e-06
5.32741e-06
5.15835e-06
4.99068e-06
4.82443e-06
4.65965e-06
4.49638e-06
4.33468e-06
4.1746e-06
4.01618e-06
3.85948e-06
3.70456e-06
3.55148e-06
3.40029e-06
3.25107e-06
3.10389e-06
2.95882e-06
2.81592e-06
2.67529e-06
1.22734e-05
1.20782e-05
1.18831e-05
1.16882e-05
1.14935e-05
1.12991e-05
1.1105e-05
1.09106e-05
1.07135e-05
1.05156e-05
1.03176e-05
1.012e-05
9.92297e-06
9.72673e-06
9.53141e-06
9.3371e-06
9.14384e-06
8.95165e-06
8.76052e-06
8.57043e-06
8.38138e-06
8.19333e-06
8.0063e-06
7.82026e-06
7.63521e-06
7.45117e-06
7.26814e-06
7.08613e-06
6.90516e-06
6.72525e-06
6.54642e-06
6.36871e-06
6.19213e-06
6.01672e-06
5.84251e-06
5.66953e-06
5.49782e-06
5.32741e-06
5.15835e-06
4.99068e-06
4.82443e-06
4.65965e-06
4.49638e-06
4.33468e-06
4.1746e-06
4.01618e-06
3.85948e-06
3.70456e-06
3.55148e-06
3.40029e-06
3.25107e-06
3.10389e-06
2.95882e-06
2.81592e-06
2.67529e-06
1.23551e-05
1.21594e-05
1.19638e-05
1.17684e-05
1.15731e-05
1.13781e-05
1.11834e-05
1.09889e-05
1.07948e-05
1.06011e-05
1.04062e-05
1.0208e-05
1.00091e-05
9.81067e-06
9.61329e-06
9.41712e-06
9.22222e-06
9.02855e-06
8.83605e-06
8.64469e-06
8.45442e-06
8.26521e-06
8.07702e-06
7.88985e-06
7.70368e-06
7.51853e-06
7.33439e-06
7.15127e-06
6.9692e-06
6.78819e-06
6.60826e-06
6.42944e-06
6.25175e-06
6.07522e-06
5.89989e-06
5.72579e-06
5.55295e-06
5.38141e-06
5.21121e-06
5.04238e-06
4.87498e-06
4.70904e-06
4.54461e-06
4.38173e-06
4.22047e-06
4.06086e-06
3.90297e-06
3.74684e-06
3.59255e-06
3.44015e-06
3.28972e-06
3.14131e-06
2.995e-06
2.85086e-06
2.70899e-06
2.56945e-06
2.43234e-06
2.29776e-06
2.16578e-06
1.24346e-05
1.22384e-05
1.20423e-05
1.18463e-05
1.16506e-05
1.1455e-05
1.12596e-05
1.10646e-05
1.08699e-05
1.06756e-05
1.04817e-05
1.02844e-05
1.00853e-05
9.88618e-06
9.68777e-06
9.49043e-06
9.29434e-06
9.0995e-06
8.90589e-06
8.71346e-06
8.52217e-06
8.33196e-06
8.14281e-06
7.95469e-06
7.76759e-06
7.5815e-06
7.39643e-06
7.21238e-06
7.02937e-06
6.84741e-06
6.66652e-06
6.48674e-06
6.30808e-06
6.13057e-06
5.95425e-06
5.77915e-06
5.6053e-06
5.43273e-06
5.2615e-06
5.09163e-06
4.92318e-06
4.75617e-06
4.59067e-06
4.42671e-06
4.26435e-06
4.10364e-06
3.94464e-06
3.78739e-06
3.63197e-06
3.47843e-06
3.32685e-06
3.17728e-06
3.02981e-06
2.8845e-06
2.74145e-06
2.60073e-06
2.46243e-06
2.32665e-06
2.19348e-06
2.06303e-06
1.25116e-05
1.2315e-05
1.21184e-05
1.1922e-05
1.17256e-05
1.15295e-05
1.13336e-05
1.1138e-05
1.09427e-05
1.07478e-05
1.05532e-05
1.03575e-05
1.01587e-05
9.95911e-06
9.75989e-06
9.56159e-06
9.36444e-06
9.16854e-06
8.97388e-06
8.78043e-06
8.58814e-06
8.39696e-06
8.20685e-06
8.0178e-06
7.82977e-06
7.64276e-06
7.45677e-06
7.2718e-06
7.08787e-06
6.90498e-06
6.72317e-06
6.54244e-06
6.36283e-06
6.18437e-06
6.00708e-06
5.83101e-06
5.65617e-06
5.48262e-06
5.31038e-06
5.1395e-06
4.97002e-06
4.80199e-06
4.63544e-06
4.47043e-06
4.30701e-06
4.14524e-06
3.98515e-06
3.82682e-06
3.67031e-06
3.51567e-06
3.36297e-06
3.21229e-06
3.06369e-06
2.91726e-06
2.77307e-06
2.6312e-06
2.49176e-06
2.35482e-06
2.22049e-06
2.08887e-06
1.96007e-06
1.8342e-06
1.71138e-06
1.59172e-06
1.47536e-06
1.36242e-06
1.25304e-06
1.14735e-06
1.04549e-06
9.47578e-07
8.5363e-07
7.63272e-07
6.73004e-07
5.83308e-07
4.98535e-07
4.1925e-07
3.46049e-07
2.7953e-07
2.20243e-07
1.68632e-07
1.24952e-07
8.91946e-08
6.10311e-08
3.98056e-08
2.4585e-08
1.42629e-08
7.68991e-09
3.79622e-09
1.67885e-09
6.43114e-10
2.02001e-10
4.72579e-11
6.83733e-12
4.05525e-13
3.47149e-15
1.25861e-05
1.2389e-05
1.2192e-05
1.19951e-05
1.17982e-05
1.16016e-05
1.14052e-05
1.1209e-05
1.10132e-05
1.08176e-05
1.06225e-05
1.04277e-05
1.02294e-05
1.00295e-05
9.82964e-06
9.63047e-06
9.43236e-06
9.23546e-06
9.03981e-06
8.84537e-06
8.65211e-06
8.45999e-06
8.26896e-06
8.07899e-06
7.89006e-06
7.70215e-06
7.51526e-06
7.3294e-06
7.14457e-06
6.96079e-06
6.77806e-06
6.59643e-06
6.4159e-06
6.23651e-06
6.05829e-06
5.88127e-06
5.70549e-06
5.53097e-06
5.35777e-06
5.18591e-06
5.01545e-06
4.84642e-06
4.67887e-06
4.51285e-06
4.34841e-06
4.1856e-06
4.02448e-06
3.86511e-06
3.70754e-06
3.55184e-06
3.39807e-06
3.24631e-06
3.09663e-06
2.94911e-06
2.80382e-06
2.66085e-06
2.5203e-06
2.38225e-06
2.2468e-06
2.11406e-06
1.98414e-06
1.85714e-06
1.73319e-06
1.6124e-06
1.49491e-06
1.38085e-06
1.27035e-06
1.16355e-06
1.06059e-06
9.61591e-07
8.66598e-07
7.75324e-07
6.85027e-07
5.94264e-07
5.08401e-07
4.2801e-07
3.53695e-07
2.86066e-07
2.25694e-07
1.73043e-07
1.28397e-07
9.17754e-08
6.28743e-08
4.10521e-08
2.53773e-08
1.47322e-08
7.94623e-09
3.92338e-09
1.73491e-09
6.64329e-10
2.08509e-10
4.87182e-11
7.03256e-12
4.15209e-13
3.52005e-15
1.26578e-05
1.24603e-05
1.22629e-05
1.20655e-05
1.18682e-05
1.16711e-05
1.14742e-05
1.12775e-05
1.10811e-05
1.0885e-05
1.06892e-05
1.04939e-05
1.02971e-05
1.00974e-05
9.89703e-06
9.69708e-06
9.49805e-06
9.30019e-06
9.10356e-06
8.90816e-06
8.71396e-06
8.52092e-06
8.32899e-06
8.13813e-06
7.94832e-06
7.75954e-06
7.57179e-06
7.38506e-06
7.19937e-06
7.01471e-06
6.83112e-06
6.6486e-06
6.46719e-06
6.28691e-06
6.10779e-06
5.92987e-06
5.75317e-06
5.57773e-06
5.4036e-06
5.2308e-06
5.05939e-06
4.8894e-06
4.72089e-06
4.5539e-06
4.38848e-06
4.22469e-06
4.06257e-06
3.90219e-06
3.74361e-06
3.58689e-06
3.4321e-06
3.27931e-06
3.12858e-06
2.98001e-06
2.83367e-06
2.68964e-06
2.54802e-06
2.40889e-06
2.27237e-06
2.13855e-06
2.00754e-06
1.87945e-06
1.75441e-06
1.63253e-06
1.51395e-06
1.3988e-06
1.28722e-06
1.17934e-06
1.07531e-06
9.75261e-07
8.79254e-07
7.87094e-07
6.96767e-07
6.04969e-07
5.18052e-07
4.36588e-07
3.61191e-07
2.92484e-07
2.31053e-07
1.77387e-07
1.31797e-07
9.43277e-08
6.47008e-08
4.22894e-08
2.61649e-08
1.51993e-08
8.20156e-09
4.05011e-09
1.79079e-09
6.85472e-10
2.14992e-10
5.0171e-11
7.22638e-12
4.24782e-13
3.56759e-15
1.27267e-05
1.25289e-05
1.2331e-05
1.21332e-05
1.19355e-05
1.17379e-05
1.15405e-05
1.13433e-05
1.11464e-05
1.09497e-05
1.07534e-05
1.05575e-05
1.0362e-05
1.01625e-05
9.96177e-06
9.76115e-06
9.56129e-06
9.36253e-06
9.16498e-06
8.96866e-06
8.77356e-06
8.57962e-06
8.38682e-06
8.1951e-06
8.00444e-06
7.81483e-06
7.62624e-06
7.43868e-06
7.25215e-06
7.06666e-06
6.88223e-06
6.69887e-06
6.51661e-06
6.33548e-06
6.1555e-06
5.9767e-06
5.79913e-06
5.62281e-06
5.44778e-06
5.27409e-06
5.10177e-06
4.93087e-06
4.76144e-06
4.59352e-06
4.42716e-06
4.26242e-06
4.09935e-06
3.93801e-06
3.77846e-06
3.62076e-06
3.46498e-06
3.3112e-06
3.15947e-06
3.00989e-06
2.86254e-06
2.71749e-06
2.57484e-06
2.43469e-06
2.29712e-06
2.16226e-06
2.0302e-06
1.90107e-06
1.77497e-06
1.65204e-06
1.53241e-06
1.41621e-06
1.30358e-06
1.19467e-06
1.08961e-06
9.88541e-07
8.91555e-07
7.9854e-07
7.08184e-07
6.15388e-07
5.27452e-07
4.44952e-07
3.68509e-07
2.98758e-07
2.36301e-07
1.81649e-07
1.35137e-07
9.68406e-08
6.65023e-08
4.35119e-08
2.69443e-08
1.56621e-08
8.45471e-09
4.17582e-09
1.84622e-09
7.06445e-10
2.21419e-10
5.16097e-11
7.41792e-12
4.34202e-13
3.61396e-15
1.27927e-05
1.25945e-05
1.23963e-05
1.21981e-05
1.2e-05
1.18019e-05
1.16041e-05
1.14064e-05
1.1209e-05
1.10118e-05
1.0815e-05
1.06185e-05
1.04225e-05
1.02244e-05
1.00238e-05
9.82269e-06
9.6221e-06
9.42247e-06
9.22401e-06
9.02679e-06
8.8308e-06
8.63599e-06
8.44234e-06
8.24979e-06
8.05832e-06
7.8679e-06
7.67851e-06
7.49015e-06
7.30282e-06
7.11654e-06
6.9313e-06
6.74714e-06
6.56407e-06
6.38212e-06
6.20132e-06
6.0217e-06
5.84329e-06
5.66613e-06
5.49025e-06
5.3157e-06
5.14252e-06
4.97075e-06
4.80043e-06
4.63162e-06
4.46437e-06
4.29872e-06
4.13474e-06
3.97248e-06
3.812e-06
3.65336e-06
3.49664e-06
3.3419e-06
3.18922e-06
3.03868e-06
2.89035e-06
2.74432e-06
2.60069e-06
2.45955e-06
2.32099e-06
2.18512e-06
2.05206e-06
1.92192e-06
1.79482e-06
1.67088e-06
1.55024e-06
1.43303e-06
1.31939e-06
1.20947e-06
1.10342e-06
1.00137e-06
9.03444e-07
8.09596e-07
7.19122e-07
6.25471e-07
5.36557e-07
4.53061e-07
3.75613e-07
3.04857e-07
2.41411e-07
1.85806e-07
1.38402e-07
9.93004e-08
6.82689e-08
4.47127e-08
2.77109e-08
1.61178e-08
8.70425e-09
4.2998e-09
1.9009e-09
7.27129e-10
2.27753e-10
5.30261e-11
7.6061e-12
4.43417e-13
3.65889e-15
1.28557e-05
1.26571e-05
1.24586e-05
1.226e-05
1.20614e-05
1.1863e-05
1.16647e-05
1.14666e-05
1.12687e-05
1.10711e-05
1.08738e-05
1.06768e-05
1.04802e-05
1.02834e-05
1.00829e-05
9.8814e-06
9.68016e-06
9.47975e-06
9.28046e-06
9.08238e-06
8.88555e-06
8.68992e-06
8.49545e-06
8.30211e-06
8.10985e-06
7.91866e-06
7.7285e-06
7.53938e-06
7.35129e-06
7.16425e-06
6.97825e-06
6.79332e-06
6.60948e-06
6.42676e-06
6.24518e-06
6.06477e-06
5.88556e-06
5.7076e-06
5.53091e-06
5.35555e-06
5.18154e-06
5.00894e-06
4.83778e-06
4.66813e-06
4.50002e-06
4.33351e-06
4.16866e-06
4.00552e-06
3.84415e-06
3.68462e-06
3.527e-06
3.37136e-06
3.21776e-06
3.06629e-06
2.91704e-06
2.77008e-06
2.6255e-06
2.48341e-06
2.3439e-06
2.20708e-06
2.07305e-06
1.94195e-06
1.81388e-06
1.68897e-06
1.56736e-06
1.44918e-06
1.33458e-06
1.2237e-06
1.1167e-06
1.01371e-06
9.14849e-07
8.20103e-07
7.28831e-07
6.35125e-07
5.45287e-07
4.60849e-07
3.82446e-07
3.10732e-07
2.46342e-07
1.89824e-07
1.41564e-07
1.01688e-07
6.99868e-08
4.58824e-08
2.84588e-08
1.65629e-08
8.94816e-09
4.42105e-09
1.95439e-09
7.47356e-10
2.33944e-10
5.44088e-11
7.78941e-12
4.52352e-13
3.70193e-15
1.29155e-05
1.27166e-05
1.25177e-05
1.23188e-05
1.21199e-05
1.19211e-05
1.17224e-05
1.15238e-05
1.13255e-05
1.11274e-05
1.09297e-05
1.07322e-05
1.05351e-05
1.03385e-05
1.01388e-05
9.93718e-06
9.73544e-06
9.53433e-06
9.33425e-06
9.13536e-06
8.93771e-06
8.74129e-06
8.54604e-06
8.35194e-06
8.15894e-06
7.967e-06
7.77612e-06
7.58628e-06
7.39747e-06
7.2097e-06
7.02298e-06
6.83732e-06
6.65275e-06
6.46929e-06
6.28697e-06
6.10581e-06
5.92586e-06
5.74713e-06
5.56968e-06
5.39354e-06
5.21875e-06
5.04536e-06
4.87341e-06
4.70295e-06
4.53403e-06
4.3667e-06
4.20102e-06
4.03705e-06
3.87485e-06
3.71447e-06
3.55599e-06
3.39948e-06
3.24502e-06
3.09267e-06
2.94253e-06
2.79468e-06
2.64921e-06
2.50621e-06
2.3658e-06
2.22806e-06
2.09312e-06
1.9611e-06
1.83211e-06
1.70628e-06
1.58374e-06
1.46464e-06
1.34912e-06
1.23733e-06
1.12942e-06
1.02552e-06
9.25778e-07
8.30174e-07
7.38143e-07
6.4439e-07
5.5367e-07
4.68334e-07
3.8902e-07
3.16392e-07
2.51098e-07
1.93706e-07
1.44624e-07
1.04002e-07
7.16546e-08
4.70198e-08
2.9187e-08
1.69968e-08
9.18611e-09
4.53939e-09
2.0066e-09
7.67098e-10
2.39983e-10
5.57564e-11
7.96773e-12
4.61011e-13
3.74331e-15
1.29721e-05
1.27729e-05
1.25737e-05
1.23744e-05
1.21752e-05
1.1976e-05
1.17769e-05
1.1578e-05
1.13793e-05
1.11808e-05
1.09826e-05
1.07847e-05
1.05872e-05
1.039e-05
1.01914e-05
9.98993e-06
9.78779e-06
9.58606e-06
9.38525e-06
9.1856e-06
8.98718e-06
8.79e-06
8.59401e-06
8.39918e-06
8.20547e-06
8.01284e-06
7.82127e-06
7.63074e-06
7.44125e-06
7.25279e-06
7.06539e-06
6.87905e-06
6.69379e-06
6.50964e-06
6.32662e-06
6.14476e-06
5.96409e-06
5.78465e-06
5.60647e-06
5.4296e-06
5.25408e-06
5.07994e-06
4.90724e-06
4.73602e-06
4.56633e-06
4.39823e-06
4.23177e-06
4.06701e-06
3.90401e-06
3.74283e-06
3.58354e-06
3.42622e-06
3.27093e-06
3.11775e-06
2.96677e-06
2.81808e-06
2.67176e-06
2.52791e-06
2.38663e-06
2.24803e-06
2.11223e-06
1.97933e-06
1.84947e-06
1.72276e-06
1.59935e-06
1.47938e-06
1.36299e-06
1.25032e-06
1.14154e-06
1.0368e-06
9.36208e-07
8.3979e-07
7.47039e-07
6.53239e-07
5.61684e-07
4.75494e-07
3.95315e-07
3.21818e-07
2.55664e-07
1.97438e-07
1.47569e-07
1.06233e-07
7.32653e-08
4.81198e-08
2.98922e-08
1.74174e-08
9.41695e-09
4.65425e-09
2.05729e-09
7.8626e-10
2.45843e-10
5.70627e-11
8.14029e-12
4.69362e-13
3.78292e-15
1.30253e-05
1.28259e-05
1.26263e-05
1.24268e-05
1.22272e-05
1.20277e-05
1.18283e-05
1.1629e-05
1.14299e-05
1.1231e-05
1.10324e-05
1.08341e-05
1.06362e-05
1.04386e-05
1.0241e-05
1.00395e-05
9.83705e-06
9.63477e-06
9.43331e-06
9.23296e-06
9.03383e-06
8.83594e-06
8.63926e-06
8.44374e-06
8.24936e-06
8.05607e-06
7.86385e-06
7.67267e-06
7.48254e-06
7.29345e-06
7.1054e-06
6.91842e-06
6.73251e-06
6.54771e-06
6.36403e-06
6.18151e-06
6.00018e-06
5.82006e-06
5.64121e-06
5.46365e-06
5.28743e-06
5.1126e-06
4.93919e-06
4.76725e-06
4.59685e-06
4.42802e-06
4.26082e-06
4.09532e-06
3.93157e-06
3.76963e-06
3.60959e-06
3.45149e-06
3.29543e-06
3.14147e-06
2.9897e-06
2.84021e-06
2.69309e-06
2.54844e-06
2.40635e-06
2.26694e-06
2.13032e-06
1.9966e-06
1.86591e-06
1.73838e-06
1.61415e-06
1.49335e-06
1.37613e-06
1.26265e-06
1.15305e-06
1.04749e-06
9.46108e-07
8.48921e-07
7.55491e-07
6.61646e-07
5.69301e-07
4.82306e-07
4.01308e-07
3.26989e-07
2.6002e-07
2.01003e-07
1.50388e-07
1.08371e-07
7.48108e-08
4.91768e-08
3.05706e-08
1.78225e-08
9.63943e-09
4.765e-09
2.10617e-09
8.04739e-10
2.51491e-10
5.83207e-11
8.30622e-12
4.77366e-13
3.82064e-15
1.30751e-05
1.28754e-05
1.26756e-05
1.24758e-05
1.2276e-05
1.20761e-05
1.18764e-05
1.16768e-05
1.14773e-05
1.12781e-05
1.10791e-05
1.08804e-05
1.06821e-05
1.04841e-05
1.02865e-05
1.00857e-05
9.88314e-06
9.68044e-06
9.4784e-06
9.2774e-06
9.07759e-06
8.87903e-06
8.68169e-06
8.48554e-06
8.29052e-06
8.09661e-06
7.90378e-06
7.712e-06
7.52127e-06
7.33158e-06
7.14293e-06
6.95535e-06
6.76884e-06
6.58342e-06
6.39913e-06
6.21599e-06
6.03404e-06
5.85329e-06
5.67381e-06
5.49561e-06
5.31874e-06
5.14325e-06
4.96918e-06
4.79658e-06
4.6255e-06
4.45599e-06
4.28811e-06
4.12191e-06
3.95746e-06
3.79482e-06
3.63406e-06
3.47525e-06
3.31846e-06
3.16377e-06
3.01126e-06
2.86103e-06
2.71316e-06
2.56776e-06
2.42491e-06
2.28474e-06
2.14735e-06
2.01286e-06
1.8814e-06
1.75309e-06
1.62808e-06
1.50651e-06
1.38852e-06
1.27426e-06
1.1639e-06
1.05758e-06
9.55447e-07
8.57536e-07
7.63469e-07
6.69581e-07
5.76494e-07
4.88743e-07
4.06977e-07
3.31884e-07
2.64149e-07
2.04386e-07
1.53065e-07
1.10405e-07
7.62836e-08
5.01854e-08
3.12188e-08
1.82098e-08
9.85232e-09
4.87102e-09
2.15297e-09
8.2243e-10
2.56896e-10
5.95237e-11
8.46465e-12
4.84985e-13
3.85632e-15
1.31214e-05
1.29215e-05
1.27215e-05
1.25214e-05
1.23213e-05
1.21212e-05
1.19211e-05
1.17212e-05
1.15214e-05
1.13219e-05
1.11225e-05
1.09235e-05
1.07248e-05
1.05264e-05
1.03284e-05
1.01285e-05
9.92597e-06
9.72294e-06
9.52039e-06
9.31879e-06
9.11836e-06
8.91917e-06
8.72122e-06
8.52446e-06
8.32886e-06
8.13438e-06
7.94098e-06
7.74864e-06
7.55734e-06
7.3671e-06
7.17789e-06
6.98975e-06
6.80268e-06
6.6167e-06
6.43184e-06
6.24813e-06
6.0656e-06
5.88427e-06
5.70419e-06
5.5254e-06
5.34794e-06
5.17184e-06
4.99716e-06
4.82394e-06
4.65223e-06
4.48209e-06
4.31357e-06
4.14673e-06
3.98163e-06
3.81833e-06
3.65691e-06
3.49743e-06
3.33996e-06
3.18459e-06
3.0314e-06
2.88048e-06
2.73191e-06
2.5858e-06
2.44225e-06
2.30137e-06
2.16326e-06
2.02806e-06
1.89588e-06
1.76685e-06
1.64112e-06
1.51882e-06
1.40011e-06
1.28513e-06
1.17405e-06
1.06703e-06
9.64194e-07
8.65608e-07
7.70946e-07
6.77016e-07
5.83239e-07
4.94782e-07
4.12299e-07
3.36485e-07
2.68032e-07
2.07572e-07
1.55591e-07
1.12326e-07
7.76759e-08
5.114e-08
3.18329e-08
1.85771e-08
1.00544e-08
4.97168e-09
2.19741e-09
8.39228e-10
2.62026e-10
6.06648e-11
8.61473e-12
4.92182e-13
3.88982e-15
1.31641e-05
1.2964e-05
1.27637e-05
1.25634e-05
1.23631e-05
1.21627e-05
1.19624e-05
1.17622e-05
1.15622e-05
1.13623e-05
1.11626e-05
1.09633e-05
1.07642e-05
1.05655e-05
1.03672e-05
1.0168e-05
9.96549e-06
9.76216e-06
9.55915e-06
9.35702e-06
9.15603e-06
8.95627e-06
8.75775e-06
8.56044e-06
8.3643e-06
8.16929e-06
7.97536e-06
7.7825e-06
7.59069e-06
7.39993e-06
7.21022e-06
7.02156e-06
6.83397e-06
6.64748e-06
6.4621e-06
6.27786e-06
6.09479e-06
5.91293e-06
5.73231e-06
5.55297e-06
5.37495e-06
5.19829e-06
5.02304e-06
4.84926e-06
4.67697e-06
4.50625e-06
4.33714e-06
4.16971e-06
4.00401e-06
3.8401e-06
3.67807e-06
3.51797e-06
3.35988e-06
3.20388e-06
3.05006e-06
2.8985e-06
2.74929e-06
2.60253e-06
2.45833e-06
2.31679e-06
2.17802e-06
2.04215e-06
1.90931e-06
1.77961e-06
1.65321e-06
1.53024e-06
1.41086e-06
1.29522e-06
1.18348e-06
1.0758e-06
9.72319e-07
8.73109e-07
7.77897e-07
6.83928e-07
5.89511e-07
5.00401e-07
4.17254e-07
3.40771e-07
2.71654e-07
2.10547e-07
1.57951e-07
1.14123e-07
7.89806e-08
5.20356e-08
3.24096e-08
1.89224e-08
1.02444e-08
5.06639e-09
2.23923e-09
8.55034e-10
2.66852e-10
6.17373e-11
8.75561e-12
4.98921e-13
3.92102e-15
1.32031e-05
1.30028e-05
1.28024e-05
1.26019e-05
1.24013e-05
1.22007e-05
1.20002e-05
1.17997e-05
1.15994e-05
1.13993e-05
1.11993e-05
1.09997e-05
1.08003e-05
1.06013e-05
1.04026e-05
1.02041e-05
1.00016e-05
9.79803e-06
9.59461e-06
9.392e-06
9.19051e-06
8.99024e-06
8.79121e-06
8.5934e-06
8.39676e-06
8.20126e-06
8.00686e-06
7.81352e-06
7.62125e-06
7.43002e-06
7.23983e-06
7.05071e-06
6.86265e-06
6.67568e-06
6.48982e-06
6.3051e-06
6.12154e-06
5.93919e-06
5.75808e-06
5.57824e-06
5.39971e-06
5.22255e-06
5.04678e-06
4.87247e-06
4.69966e-06
4.52841e-06
4.35876e-06
4.19079e-06
4.02454e-06
3.86008e-06
3.69748e-06
3.53682e-06
3.37816e-06
3.22159e-06
3.06719e-06
2.91504e-06
2.76524e-06
2.61789e-06
2.47309e-06
2.33095e-06
2.19158e-06
2.05511e-06
1.92165e-06
1.79134e-06
1.66433e-06
1.54075e-06
1.42076e-06
1.3045e-06
1.19216e-06
1.08387e-06
9.79796e-07
8.80012e-07
7.84296e-07
6.9029e-07
5.95287e-07
5.05578e-07
4.21822e-07
3.44726e-07
2.74999e-07
2.13297e-07
1.60135e-07
1.15789e-07
8.01905e-08
5.28671e-08
3.29456e-08
1.92435e-08
1.04212e-08
5.15456e-09
2.27817e-09
8.69749e-10
2.71343e-10
6.27349e-11
8.88649e-12
5.05166e-13
3.94979e-15
1.32384e-05
1.3038e-05
1.28374e-05
1.26367e-05
1.24359e-05
1.22351e-05
1.20344e-05
1.18337e-05
1.16331e-05
1.14328e-05
1.12326e-05
1.10326e-05
1.0833e-05
1.06337e-05
1.04348e-05
1.02362e-05
1.00341e-05
9.83047e-06
9.62675e-06
9.42373e-06
9.22178e-06
9.02104e-06
8.82154e-06
8.62327e-06
8.42619e-06
8.23024e-06
8.0354e-06
7.84164e-06
7.64894e-06
7.45728e-06
7.26668e-06
7.07712e-06
6.88864e-06
6.70124e-06
6.51495e-06
6.32979e-06
6.1458e-06
5.96301e-06
5.78144e-06
5.60115e-06
5.42217e-06
5.24454e-06
5.06832e-06
4.89353e-06
4.72025e-06
4.54851e-06
4.37838e-06
4.20991e-06
4.04317e-06
3.87821e-06
3.71511e-06
3.55393e-06
3.39476e-06
3.23767e-06
3.08274e-06
2.93006e-06
2.77973e-06
2.63185e-06
2.4865e-06
2.34382e-06
2.2039e-06
2.06687e-06
1.93286e-06
1.802e-06
1.67443e-06
1.5503e-06
1.42975e-06
1.31295e-06
1.20005e-06
1.09121e-06
9.86599e-07
8.86295e-07
7.90122e-07
6.96081e-07
6.00547e-07
5.10295e-07
4.25987e-07
3.48334e-07
2.78053e-07
2.15809e-07
1.62132e-07
1.17313e-07
8.12994e-08
5.36298e-08
3.34377e-08
1.95385e-08
1.05838e-08
5.23564e-09
2.31398e-09
8.83282e-10
2.75473e-10
6.36517e-11
9.00664e-12
5.10887e-13
3.97602e-15
1.327e-05
1.30694e-05
1.28686e-05
1.26678e-05
1.24668e-05
1.22659e-05
1.20649e-05
1.18641e-05
1.16633e-05
1.14627e-05
1.12623e-05
1.10621e-05
1.08622e-05
1.06626e-05
1.04635e-05
1.02647e-05
1.00631e-05
9.85944e-06
9.65548e-06
9.45212e-06
9.24976e-06
9.0486e-06
8.84868e-06
8.65e-06
8.45251e-06
8.25616e-06
8.06094e-06
7.86679e-06
7.6737e-06
7.48167e-06
7.29069e-06
7.10076e-06
6.91189e-06
6.72411e-06
6.53743e-06
6.35189e-06
6.16751e-06
5.98432e-06
5.80236e-06
5.62166e-06
5.44227e-06
5.26423e-06
5.08759e-06
4.91239e-06
4.73868e-06
4.56651e-06
4.39594e-06
4.22704e-06
4.05985e-06
3.89444e-06
3.73089e-06
3.56926e-06
3.40963e-06
3.25207e-06
3.09667e-06
2.94352e-06
2.79272e-06
2.64435e-06
2.49852e-06
2.35535e-06
2.21494e-06
2.07742e-06
1.94292e-06
1.81156e-06
1.6835e-06
1.55886e-06
1.43782e-06
1.32052e-06
1.20712e-06
1.0978e-06
9.92705e-07
8.91936e-07
7.95353e-07
7.01281e-07
6.05271e-07
5.14533e-07
4.29731e-07
3.51579e-07
2.80801e-07
2.18072e-07
1.63933e-07
1.18689e-07
8.2301e-08
5.43194e-08
3.38829e-08
1.98057e-08
1.0731e-08
5.30911e-09
2.34644e-09
8.95547e-10
2.79214e-10
6.44818e-11
9.11533e-12
5.16052e-13
3.99962e-15
1.32977e-05
1.3097e-05
1.28961e-05
1.26951e-05
1.2494e-05
1.22929e-05
1.20918e-05
1.18907e-05
1.16898e-05
1.1489e-05
1.12884e-05
1.1088e-05
1.08879e-05
1.06881e-05
1.04887e-05
1.02897e-05
1.00886e-05
9.88489e-06
9.68074e-06
9.47707e-06
9.27436e-06
9.07284e-06
8.87255e-06
8.67351e-06
8.47566e-06
8.27897e-06
8.0834e-06
7.88892e-06
7.6955e-06
7.50313e-06
7.31181e-06
7.12155e-06
6.93235e-06
6.74424e-06
6.55722e-06
6.37134e-06
6.18661e-06
6.00307e-06
5.82076e-06
5.63971e-06
5.45997e-06
5.28157e-06
5.10456e-06
4.92898e-06
4.7549e-06
4.58236e-06
4.41141e-06
4.24212e-06
4.07454e-06
3.90874e-06
3.74479e-06
3.58276e-06
3.42272e-06
3.26476e-06
3.10895e-06
2.95538e-06
2.80416e-06
2.65537e-06
2.50912e-06
2.36551e-06
2.22468e-06
2.08672e-06
1.95179e-06
1.81999e-06
1.69149e-06
1.56642e-06
1.44493e-06
1.3272e-06
1.21337e-06
1.10362e-06
9.98094e-07
8.96914e-07
7.99972e-07
7.05871e-07
6.09443e-07
5.18277e-07
4.3304e-07
3.54449e-07
2.83233e-07
2.20076e-07
1.65529e-07
1.19909e-07
8.319e-08
5.49319e-08
3.42787e-08
2.00432e-08
1.0862e-08
5.3745e-09
2.37533e-09
9.06463e-10
2.82544e-10
6.52202e-11
9.21193e-12
5.20635e-13
4.02047e-15
1.33215e-05
1.31207e-05
1.29197e-05
1.27186e-05
1.25174e-05
1.23161e-05
1.21149e-05
1.19137e-05
1.17126e-05
1.15116e-05
1.13108e-05
1.11103e-05
1.091e-05
1.071e-05
1.05104e-05
1.03112e-05
1.01105e-05
9.90679e-06
9.70247e-06
9.49854e-06
9.29554e-06
9.09371e-06
8.89311e-06
8.69375e-06
8.4956e-06
8.29861e-06
8.10274e-06
7.90797e-06
7.71426e-06
7.52161e-06
7.33001e-06
7.13946e-06
6.94997e-06
6.76157e-06
6.57427e-06
6.38809e-06
6.20307e-06
6.01923e-06
5.83662e-06
5.65527e-06
5.47521e-06
5.2965e-06
5.11918e-06
4.94329e-06
4.76888e-06
4.59601e-06
4.42474e-06
4.25512e-06
4.0872e-06
3.92107e-06
3.75677e-06
3.5944e-06
3.43401e-06
3.27569e-06
3.11953e-06
2.96561e-06
2.81402e-06
2.66487e-06
2.51825e-06
2.37428e-06
2.23307e-06
2.09475e-06
1.95943e-06
1.82727e-06
1.69838e-06
1.57294e-06
1.45108e-06
1.33296e-06
1.21876e-06
1.10864e-06
1.00275e-06
9.01214e-07
8.03962e-07
7.09835e-07
6.13047e-07
5.21513e-07
4.359e-07
3.56931e-07
2.85338e-07
2.21811e-07
1.66912e-07
1.20967e-07
8.39614e-08
5.54638e-08
3.46226e-08
2.02498e-08
1.0976e-08
5.43137e-09
2.40046e-09
9.15959e-10
2.8544e-10
6.58622e-11
9.29585e-12
5.2461e-13
4.0385e-15
1.33414e-05
1.31406e-05
1.29395e-05
1.27383e-05
1.25369e-05
1.23356e-05
1.21342e-05
1.19329e-05
1.17316e-05
1.15305e-05
1.13296e-05
1.11289e-05
1.09285e-05
1.07284e-05
1.05286e-05
1.03292e-05
1.01288e-05
9.92511e-06
9.72064e-06
9.5165e-06
9.31326e-06
9.11116e-06
8.9103e-06
8.71068e-06
8.51228e-06
8.31504e-06
8.11893e-06
7.92391e-06
7.72996e-06
7.53707e-06
7.34523e-06
7.15445e-06
6.96472e-06
6.77608e-06
6.58853e-06
6.40211e-06
6.21684e-06
6.03275e-06
5.84989e-06
5.66828e-06
5.48797e-06
5.309e-06
5.13141e-06
4.95526e-06
4.78059e-06
4.60745e-06
4.4359e-06
4.266e-06
4.0978e-06
3.93139e-06
3.76681e-06
3.60414e-06
3.44346e-06
3.28485e-06
3.12839e-06
2.97417e-06
2.82228e-06
2.67283e-06
2.5259e-06
2.38162e-06
2.24011e-06
2.10147e-06
1.96584e-06
1.83336e-06
1.70416e-06
1.5784e-06
1.45622e-06
1.3378e-06
1.22328e-06
1.11284e-06
1.00665e-06
9.04819e-07
8.07308e-07
7.1316e-07
6.16071e-07
5.24228e-07
4.38301e-07
3.59015e-07
2.87106e-07
2.23269e-07
1.68075e-07
1.21857e-07
8.46109e-08
5.59118e-08
3.49124e-08
2.04239e-08
1.10721e-08
5.47937e-09
2.42167e-09
9.23972e-10
2.87883e-10
6.64036e-11
9.36659e-12
5.27956e-13
4.05364e-15
1.33574e-05
1.31565e-05
1.29553e-05
1.2754e-05
1.25526e-05
1.23511e-05
1.21497e-05
1.19483e-05
1.17469e-05
1.15457e-05
1.13447e-05
1.11439e-05
1.09433e-05
1.07431e-05
1.05432e-05
1.03437e-05
1.01435e-05
9.9398e-06
9.73522e-06
9.53091e-06
9.32747e-06
9.12516e-06
8.92409e-06
8.72427e-06
8.52566e-06
8.32822e-06
8.13192e-06
7.93671e-06
7.74257e-06
7.54948e-06
7.35745e-06
7.16647e-06
6.97656e-06
6.78772e-06
6.59998e-06
6.41336e-06
6.22789e-06
6.04361e-06
5.86054e-06
5.67873e-06
5.49821e-06
5.31904e-06
5.14124e-06
4.96487e-06
4.78998e-06
4.61663e-06
4.44486e-06
4.27473e-06
4.10632e-06
3.93967e-06
3.77486e-06
3.61197e-06
3.45105e-06
3.29221e-06
3.13551e-06
2.98105e-06
2.82892e-06
2.67922e-06
2.53205e-06
2.38752e-06
2.24575e-06
2.10687e-06
1.97099e-06
1.83825e-06
1.7088e-06
1.58279e-06
1.46036e-06
1.34168e-06
1.22691e-06
1.11622e-06
1.00978e-06
9.07716e-07
8.09997e-07
7.15833e-07
6.18501e-07
5.26411e-07
4.40233e-07
3.60692e-07
2.88529e-07
2.24444e-07
1.69012e-07
1.22575e-07
8.51348e-08
5.62734e-08
3.51464e-08
2.05646e-08
1.11497e-08
5.51814e-09
2.43881e-09
9.30446e-10
2.89856e-10
6.68409e-11
9.42369e-12
5.30654e-13
4.06582e-15
1.33694e-05
1.31684e-05
1.29672e-05
1.27659e-05
1.25644e-05
1.23629e-05
1.21613e-05
1.19598e-05
1.17584e-05
1.15571e-05
1.1356e-05
1.11551e-05
1.09545e-05
1.07541e-05
1.05541e-05
1.03545e-05
1.01545e-05
9.95085e-06
9.74618e-06
9.54175e-06
9.33815e-06
9.13569e-06
8.93447e-06
8.73449e-06
8.53572e-06
8.33814e-06
8.14168e-06
7.94633e-06
7.75204e-06
7.55882e-06
7.36664e-06
7.17552e-06
6.98546e-06
6.79647e-06
6.60859e-06
6.42182e-06
6.23621e-06
6.05177e-06
5.86856e-06
5.68659e-06
5.50592e-06
5.32658e-06
5.14863e-06
4.9721e-06
4.79705e-06
4.62353e-06
4.45159e-06
4.2813e-06
4.11272e-06
3.9459e-06
3.78092e-06
3.61785e-06
3.45676e-06
3.29774e-06
3.14086e-06
2.98622e-06
2.83391e-06
2.68402e-06
2.53667e-06
2.39196e-06
2.25e-06
2.11093e-06
1.97486e-06
1.84193e-06
1.71229e-06
1.58609e-06
1.46347e-06
1.3446e-06
1.22964e-06
1.11877e-06
1.01214e-06
9.09891e-07
8.12005e-07
7.17761e-07
6.20324e-07
5.28049e-07
4.41682e-07
3.61951e-07
2.89598e-07
2.25327e-07
1.69716e-07
1.23115e-07
8.55292e-08
5.65458e-08
3.53227e-08
2.06706e-08
1.12083e-08
5.54738e-09
2.45173e-09
9.35328e-10
2.91344e-10
6.71705e-11
9.4667e-12
5.32684e-13
4.07494e-15
1.33775e-05
1.31764e-05
1.29752e-05
1.27738e-05
1.25722e-05
1.23707e-05
1.21691e-05
1.19675e-05
1.17661e-05
1.15647e-05
1.13636e-05
1.11626e-05
1.09619e-05
1.07615e-05
1.05614e-05
1.03618e-05
1.01619e-05
9.95823e-06
9.7535e-06
9.54898e-06
9.34529e-06
9.14272e-06
8.94139e-06
8.74131e-06
8.54244e-06
8.34476e-06
8.1482e-06
7.95275e-06
7.75837e-06
7.56505e-06
7.37278e-06
7.18156e-06
6.9914e-06
6.80232e-06
6.61434e-06
6.42748e-06
6.24176e-06
6.05723e-06
5.87391e-06
5.69184e-06
5.51107e-06
5.33162e-06
5.15356e-06
4.97693e-06
4.80177e-06
4.62814e-06
4.4561e-06
4.28569e-06
4.11699e-06
3.95006e-06
3.78497e-06
3.62178e-06
3.46058e-06
3.30143e-06
3.14444e-06
2.98967e-06
2.83724e-06
2.68723e-06
2.53975e-06
2.39492e-06
2.25284e-06
2.11364e-06
1.97744e-06
1.84439e-06
1.71462e-06
1.58829e-06
1.46554e-06
1.34654e-06
1.23146e-06
1.12046e-06
1.01371e-06
9.11339e-07
8.13335e-07
7.18985e-07
6.21536e-07
5.29139e-07
4.42647e-07
3.6279e-07
2.90311e-07
2.25915e-07
1.70186e-07
1.23475e-07
8.57925e-08
5.67277e-08
3.54405e-08
2.07415e-08
1.12474e-08
5.56692e-09
2.46037e-09
9.38592e-10
2.92339e-10
6.73907e-11
9.49542e-12
5.34038e-13
4.081e-15
1.33815e-05
1.31804e-05
1.29791e-05
1.27777e-05
1.25762e-05
1.23746e-05
1.2173e-05
1.19714e-05
1.17699e-05
1.15686e-05
1.13674e-05
1.11664e-05
1.09656e-05
1.07652e-05
1.05651e-05
1.03654e-05
1.01656e-05
9.96192e-06
9.75717e-06
9.5526e-06
9.34886e-06
9.14624e-06
8.94486e-06
8.74472e-06
8.54581e-06
8.34807e-06
8.15147e-06
7.95597e-06
7.76154e-06
7.56817e-06
7.37585e-06
7.18458e-06
6.99438e-06
6.80525e-06
6.61722e-06
6.43031e-06
6.24454e-06
6.05996e-06
5.87659e-06
5.69447e-06
5.51364e-06
5.33415e-06
5.15603e-06
4.97935e-06
4.80413e-06
4.63045e-06
4.45835e-06
4.28789e-06
4.11914e-06
3.95215e-06
3.78699e-06
3.62375e-06
3.46249e-06
3.30328e-06
3.14623e-06
2.9914e-06
2.83891e-06
2.68884e-06
2.5413e-06
2.3964e-06
2.25426e-06
2.11499e-06
1.97873e-06
1.84562e-06