/*--------------------------------*- C++ -*----------------------------------*\
  =========                 |
  \\      /  F ield         | OpenFOAM: The Open Source CFD Toolbox
   \\    /   O peration     | Website:  https://openfoam.org
    \\  /    A nd           | Version:  7
     \\/     M anipulation  |
\*---------------------------------------------------------------------------*/
FoamFile
{
    version     2.0;
    format      ascii;
    class       volScalarField;
    location    "96000";
    object      nut;
}
// * * * * * * * * * * * * * * * * * * * * * * * * * * * * * * * * * * * * * //

dimensions      [0 2 -1 0 0 0 0];

internalField   nonuniform List<scalar> 
4782
(
4.34509e-06
4.17276e-06
4.00266e-06
3.83485e-06
3.66939e-06
3.50633e-06
3.34574e-06
3.18768e-06
3.03223e-06
2.87944e-06
1.38065e-05
1.35714e-05
1.3337e-05
1.31032e-05
1.28677e-05
1.26277e-05
1.23869e-05
1.21471e-05
1.1909e-05
1.16728e-05
1.14387e-05
1.12066e-05
1.09764e-05
1.07481e-05
1.05215e-05
1.02966e-05
1.00733e-05
9.85156e-06
9.6314e-06
9.41277e-06
9.19566e-06
8.98006e-06
8.76598e-06
8.55342e-06
8.34238e-06
8.13288e-06
7.92493e-06
7.71854e-06
7.51375e-06
7.31057e-06
7.10902e-06
6.90912e-06
6.71091e-06
6.51441e-06
6.31966e-06
6.12668e-06
5.9355e-06
5.74615e-06
5.55867e-06
5.37309e-06
5.18945e-06
5.0078e-06
4.82816e-06
4.65057e-06
4.4751e-06
4.30177e-06
4.13064e-06
3.96174e-06
3.79515e-06
3.6309e-06
3.46907e-06
3.3097e-06
3.15287e-06
2.99864e-06
2.84707e-06
1.3714e-05
1.34797e-05
1.3246e-05
1.30131e-05
1.2775e-05
1.25346e-05
1.22945e-05
1.20559e-05
1.18191e-05
1.15844e-05
1.13518e-05
1.11211e-05
1.08923e-05
1.06653e-05
1.04399e-05
1.02163e-05
9.99417e-06
9.77365e-06
9.55466e-06
9.3372e-06
9.12125e-06
8.90681e-06
8.69388e-06
8.48247e-06
8.27258e-06
8.06423e-06
7.85743e-06
7.65221e-06
7.44858e-06
7.24657e-06
7.0462e-06
6.8475e-06
6.65048e-06
6.45518e-06
6.26163e-06
6.06984e-06
5.87987e-06
5.69173e-06
5.50546e-06
5.32111e-06
5.13869e-06
4.95826e-06
4.77985e-06
4.6035e-06
4.42926e-06
4.25717e-06
4.08728e-06
3.91964e-06
3.7543e-06
3.59132e-06
3.43074e-06
3.27264e-06
3.11706e-06
2.96409e-06
2.8138e-06
1.36188e-05
1.33852e-05
1.31524e-05
1.29176e-05
1.26781e-05
1.24379e-05
1.2199e-05
1.19618e-05
1.17267e-05
1.14937e-05
1.12626e-05
1.10334e-05
1.0806e-05
1.05803e-05
1.03563e-05
1.01339e-05
9.913e-06
9.69369e-06
9.4759e-06
9.25962e-06
9.04485e-06
8.83158e-06
8.61982e-06
8.40957e-06
8.20086e-06
7.99369e-06
7.78809e-06
7.58407e-06
7.38164e-06
7.18082e-06
6.98165e-06
6.78415e-06
6.58834e-06
6.39426e-06
6.20193e-06
6.01138e-06
5.82264e-06
5.63575e-06
5.45074e-06
5.26764e-06
5.08649e-06
4.90733e-06
4.73019e-06
4.55512e-06
4.38217e-06
4.21136e-06
4.04276e-06
3.87641e-06
3.71237e-06
3.55068e-06
3.3914e-06
3.23459e-06
3.08032e-06
2.92866e-06
2.77966e-06
1.35198e-05
1.32812e-05
1.30418e-05
1.28026e-05
1.25642e-05
1.2327e-05
1.20912e-05
1.1857e-05
1.16245e-05
1.13937e-05
1.11647e-05
1.09374e-05
1.07117e-05
1.04877e-05
1.02652e-05
1.00444e-05
9.82501e-06
9.60718e-06
9.39085e-06
9.17601e-06
8.96266e-06
8.7508e-06
8.54045e-06
8.3316e-06
8.12428e-06
7.91849e-06
7.71427e-06
7.51161e-06
7.31056e-06
7.11111e-06
6.91332e-06
6.71719e-06
6.52276e-06
6.33004e-06
6.13908e-06
5.94989e-06
5.76252e-06
5.577e-06
5.39335e-06
5.21162e-06
5.03185e-06
4.85406e-06
4.67829e-06
4.50459e-06
4.33301e-06
4.16358e-06
3.99635e-06
3.83138e-06
3.66871e-06
3.5084e-06
3.3505e-06
3.19507e-06
3.04218e-06
2.8919e-06
2.74428e-06
1.35197e-05
1.32812e-05
1.30417e-05
1.28025e-05
1.25641e-05
1.23269e-05
1.20911e-05
1.18569e-05
1.16244e-05
1.13937e-05
1.11646e-05
1.09373e-05
1.07117e-05
1.04876e-05
1.02652e-05
1.00443e-05
9.825e-06
9.60717e-06
9.39084e-06
9.176e-06
8.96266e-06
8.7508e-06
8.54045e-06
8.3316e-06
8.12428e-06
7.9185e-06
7.71427e-06
7.51162e-06
7.31056e-06
7.11111e-06
6.91331e-06
6.71717e-06
6.52273e-06
6.33001e-06
6.13905e-06
5.94986e-06
5.76249e-06
5.57697e-06
5.39333e-06
5.2116e-06
5.03182e-06
4.85403e-06
4.67827e-06
4.50458e-06
4.33299e-06
4.16357e-06
3.99634e-06
3.83137e-06
3.6687e-06
3.50839e-06
3.3505e-06
3.19507e-06
3.04218e-06
2.8919e-06
2.74428e-06
1.36187e-05
1.33851e-05
1.31523e-05
1.29175e-05
1.26779e-05
1.24378e-05
1.21988e-05
1.19617e-05
1.17266e-05
1.14936e-05
1.12625e-05
1.10333e-05
1.08059e-05
1.05802e-05
1.03562e-05
1.01338e-05
9.91294e-06
9.69363e-06
9.47584e-06
9.25957e-06
9.0448e-06
8.83153e-06
8.61978e-06
8.40954e-06
8.20083e-06
7.99365e-06
7.78804e-06
7.58401e-06
7.38157e-06
7.18075e-06
6.98158e-06
6.78407e-06
6.58826e-06
6.39418e-06
6.20185e-06
6.0113e-06
5.82257e-06
5.63568e-06
5.45067e-06
5.26757e-06
5.08643e-06
4.90727e-06
4.73014e-06
4.55508e-06
4.38213e-06
4.21133e-06
4.04273e-06
3.87639e-06
3.71235e-06
3.55066e-06
3.39139e-06
3.23459e-06
3.08032e-06
2.92865e-06
2.77966e-06
2.6334e-06
2.48997e-06
2.34943e-06
2.21189e-06
1.37139e-05
1.34795e-05
1.32459e-05
1.3013e-05
1.27749e-05
1.25345e-05
1.22944e-05
1.20557e-05
1.1819e-05
1.15843e-05
1.13516e-05
1.11209e-05
1.08921e-05
1.06651e-05
1.04398e-05
1.02161e-05
9.99404e-06
9.77353e-06
9.55455e-06
9.33708e-06
9.12113e-06
8.90669e-06
8.69376e-06
8.48234e-06
8.27245e-06
8.06411e-06
7.85732e-06
7.6521e-06
7.44848e-06
7.24648e-06
7.04611e-06
6.8474e-06
6.65038e-06
6.45508e-06
6.26152e-06
6.06975e-06
5.87978e-06
5.69165e-06
5.50539e-06
5.32104e-06
5.13864e-06
4.95821e-06
4.77981e-06
4.60347e-06
4.42924e-06
4.25716e-06
4.08728e-06
3.91964e-06
3.7543e-06
3.59132e-06
3.43075e-06
3.27264e-06
3.11707e-06
2.9641e-06
2.81379e-06
2.66623e-06
2.52149e-06
2.37965e-06
2.24079e-06
2.10502e-06
1.38063e-05
1.35712e-05
1.33368e-05
1.31031e-05
1.28676e-05
1.26275e-05
1.23867e-05
1.21469e-05
1.19088e-05
1.16726e-05
1.14385e-05
1.12064e-05
1.09762e-05
1.07479e-05
1.05213e-05
1.02964e-05
1.00731e-05
9.85136e-06
9.6312e-06
9.41258e-06
9.19549e-06
8.9799e-06
8.76583e-06
8.55326e-06
8.34222e-06
8.13271e-06
7.92476e-06
7.71838e-06
7.5136e-06
7.31042e-06
7.10888e-06
6.909e-06
6.71081e-06
6.51433e-06
6.31958e-06
6.12661e-06
5.93543e-06
5.74609e-06
5.55861e-06
5.37304e-06
5.18941e-06
5.00776e-06
4.82812e-06
4.65055e-06
4.47507e-06
4.30175e-06
4.13062e-06
3.96174e-06
3.79515e-06
3.63091e-06
3.46907e-06
3.30971e-06
3.15287e-06
2.99863e-06
2.84706e-06
2.69823e-06
2.55222e-06
2.40911e-06
2.26899e-06
2.13195e-06
1.99809e-06
1.8675e-06
1.7403e-06
1.61659e-06
1.4965e-06
1.38013e-06
1.26762e-06
1.15907e-06
1.05455e-06
9.53935e-07
8.5595e-07
7.56716e-07
6.6199e-07
5.72179e-07
4.87737e-07
4.09151e-07
3.3693e-07
2.71579e-07
2.13559e-07
1.63225e-07
1.20754e-07
8.60793e-08
5.88304e-08
3.83336e-08
2.36587e-08
1.3719e-08
7.39507e-09
3.65084e-09
1.61507e-09
6.19057e-10
1.94632e-10
4.56013e-11
6.61371e-12
3.94062e-13
3.40519e-15
1.38959e-05
1.36601e-05
1.34248e-05
1.31903e-05
1.29566e-05
1.27172e-05
1.2476e-05
1.22352e-05
1.19958e-05
1.17583e-05
1.15229e-05
1.12894e-05
1.10579e-05
1.08283e-05
1.06004e-05
1.03743e-05
1.01498e-05
9.92696e-06
9.70566e-06
9.4859e-06
9.26767e-06
9.05096e-06
8.83577e-06
8.62209e-06
8.40993e-06
8.19931e-06
7.99024e-06
7.78273e-06
7.57681e-06
7.3725e-06
7.16982e-06
6.96879e-06
6.76944e-06
6.5718e-06
6.37589e-06
6.18175e-06
5.98941e-06
5.79889e-06
5.61025e-06
5.4235e-06
5.23869e-06
5.05585e-06
4.87503e-06
4.69625e-06
4.51958e-06
4.34505e-06
4.17271e-06
4.00262e-06
3.83482e-06
3.66936e-06
3.50631e-06
3.34573e-06
3.18767e-06
3.03221e-06
2.87942e-06
2.72937e-06
2.58214e-06
2.43781e-06
2.29646e-06
2.1582e-06
2.02312e-06
1.89132e-06
1.7629e-06
1.63798e-06
1.51668e-06
1.39912e-06
1.28542e-06
1.17571e-06
1.07007e-06
9.68449e-07
8.70193e-07
7.69925e-07
6.74076e-07
5.83131e-07
4.97548e-07
4.17819e-07
3.4446e-07
2.77989e-07
2.18883e-07
1.67518e-07
1.24098e-07
8.85781e-08
6.06113e-08
3.95358e-08
2.44218e-08
1.41705e-08
7.64149e-09
3.77304e-09
1.66895e-09
6.39458e-10
2.00896e-10
4.70089e-11
6.80237e-12
4.03465e-13
3.45282e-15
1.39823e-05
1.37457e-05
1.35098e-05
1.32745e-05
1.304e-05
1.2803e-05
1.25621e-05
1.23206e-05
1.20801e-05
1.18413e-05
1.16045e-05
1.13698e-05
1.1137e-05
1.09061e-05
1.06771e-05
1.04498e-05
1.02242e-05
1.00002e-05
9.77774e-06
9.55688e-06
9.33757e-06
9.11977e-06
8.9035e-06
8.68874e-06
8.47551e-06
8.2638e-06
8.05365e-06
7.84505e-06
7.63803e-06
7.43262e-06
7.22883e-06
7.0267e-06
6.82623e-06
6.62747e-06
6.43044e-06
6.23517e-06
6.04169e-06
5.85004e-06
5.66025e-06
5.47237e-06
5.28641e-06
5.10242e-06
4.92044e-06
4.74052e-06
4.56269e-06
4.387e-06
4.2135e-06
4.04224e-06
3.87327e-06
3.70664e-06
3.54241e-06
3.38065e-06
3.22142e-06
3.06478e-06
2.91081e-06
2.75958e-06
2.61117e-06
2.46566e-06
2.32314e-06
2.1837e-06
2.04744e-06
1.91446e-06
1.78487e-06
1.65879e-06
1.53632e-06
1.4176e-06
1.30276e-06
1.19191e-06
1.08515e-06
9.82451e-07
8.83229e-07
7.82751e-07
6.85824e-07
5.9379e-07
5.07108e-07
4.26276e-07
3.51818e-07
2.84264e-07
2.24104e-07
1.71736e-07
1.27389e-07
9.10426e-08
6.23711e-08
4.07259e-08
2.51783e-08
1.46187e-08
7.88628e-09
3.89451e-09
1.72251e-09
6.59733e-10
2.07118e-10
4.84051e-11
6.98906e-12
4.12724e-13
3.49917e-15
1.40655e-05
1.38283e-05
1.35916e-05
1.33556e-05
1.31204e-05
1.28855e-05
1.26448e-05
1.24027e-05
1.21613e-05
1.19213e-05
1.16833e-05
1.14473e-05
1.12133e-05
1.09812e-05
1.0751e-05
1.05226e-05
1.02958e-05
1.00707e-05
9.84721e-06
9.62528e-06
9.4049e-06
9.18605e-06
8.96873e-06
8.75292e-06
8.53864e-06
8.32589e-06
8.11469e-06
7.90505e-06
7.697e-06
7.49054e-06
7.2857e-06
7.0825e-06
6.88098e-06
6.68116e-06
6.48306e-06
6.28672e-06
6.09217e-06
5.89943e-06
5.70855e-06
5.51957e-06
5.33251e-06
5.14741e-06
4.96433e-06
4.78329e-06
4.60435e-06
4.42754e-06
4.25292e-06
4.08053e-06
3.91043e-06
3.74268e-06
3.57732e-06
3.41443e-06
3.25406e-06
3.09629e-06
2.94118e-06
2.78882e-06
2.63927e-06
2.49262e-06
2.34896e-06
2.20839e-06
2.07099e-06
1.93688e-06
1.80616e-06
1.67895e-06
1.55536e-06
1.43553e-06
1.31957e-06
1.20762e-06
1.09978e-06
9.96037e-07
8.95884e-07
7.95207e-07
6.97239e-07
6.04154e-07
5.16412e-07
4.34515e-07
3.58995e-07
2.90391e-07
2.2921e-07
1.75869e-07
1.3062e-07
9.34663e-08
6.4105e-08
4.19003e-08
2.59259e-08
1.50621e-08
8.12872e-09
4.01486e-09
1.77558e-09
6.79821e-10
2.13278e-10
4.9786e-11
7.17331e-12
4.21822e-13
3.54427e-15
1.41453e-05
1.39074e-05
1.367e-05
1.34334e-05
1.31974e-05
1.29622e-05
1.27235e-05
1.24816e-05
1.22394e-05
1.19984e-05
1.17592e-05
1.1522e-05
1.12867e-05
1.10535e-05
1.08221e-05
1.05925e-05
1.03647e-05
1.01385e-05
9.91399e-06
9.69103e-06
9.46962e-06
9.24976e-06
9.03142e-06
8.81462e-06
8.59933e-06
8.38558e-06
8.17338e-06
7.96273e-06
7.75366e-06
7.5462e-06
7.34035e-06
7.13615e-06
6.93361e-06
6.73277e-06
6.53364e-06
6.33627e-06
6.14069e-06
5.94692e-06
5.755e-06
5.56497e-06
5.37686e-06
5.19071e-06
5.00657e-06
4.82447e-06
4.64445e-06
4.46658e-06
4.29088e-06
4.11742e-06
3.94624e-06
3.7774e-06
3.61097e-06
3.44699e-06
3.28554e-06
3.12668e-06
2.97048e-06
2.81702e-06
2.66638e-06
2.51864e-06
2.37389e-06
2.23222e-06
2.09374e-06
1.95854e-06
1.82673e-06
1.69843e-06
1.57377e-06
1.45286e-06
1.33584e-06
1.22283e-06
1.11395e-06
1.0092e-06
9.08149e-07
8.07277e-07
7.08306e-07
6.14209e-07
5.25445e-07
4.42522e-07
3.65977e-07
2.9636e-07
2.34192e-07
1.79908e-07
1.33782e-07
9.58427e-08
6.58079e-08
4.30557e-08
2.66625e-08
1.54995e-08
8.368e-09
4.1337e-09
1.828e-09
6.99657e-10
2.19358e-10
5.11475e-11
7.35462e-12
4.30739e-13
3.5881e-15
1.42215e-05
1.3983e-05
1.3745e-05
1.35077e-05
1.3271e-05
1.30351e-05
1.27985e-05
1.25567e-05
1.2314e-05
1.20721e-05
1.18318e-05
1.15934e-05
1.1357e-05
1.11227e-05
1.08902e-05
1.06595e-05
1.04307e-05
1.02035e-05
9.97791e-06
9.75396e-06
9.53158e-06
9.31074e-06
9.09144e-06
8.87366e-06
8.65742e-06
8.44271e-06
8.22954e-06
8.01793e-06
7.8079e-06
7.59947e-06
7.39266e-06
7.18748e-06
6.98398e-06
6.78216e-06
6.58206e-06
6.3837e-06
6.18714e-06
5.99238e-06
5.79947e-06
5.60844e-06
5.41933e-06
5.23218e-06
5.04703e-06
4.86392e-06
4.68289e-06
4.504e-06
4.32728e-06
4.15279e-06
3.98059e-06
3.81073e-06
3.64326e-06
3.47825e-06
3.31576e-06
3.15586e-06
2.99862e-06
2.84412e-06
2.69243e-06
2.54365e-06
2.39785e-06
2.25514e-06
2.11561e-06
1.97936e-06
1.84651e-06
1.71718e-06
1.59148e-06
1.46954e-06
1.3515e-06
1.23748e-06
1.1276e-06
1.02188e-06
9.19973e-07
8.18912e-07
7.18982e-07
6.23914e-07
5.3417e-07
4.50263e-07
3.72734e-07
3.02144e-07
2.39025e-07
1.83832e-07
1.36859e-07
9.81597e-08
6.74711e-08
4.41859e-08
2.73839e-08
1.59284e-08
8.60283e-09
4.2504e-09
1.87948e-09
7.19134e-10
2.25325e-10
5.24823e-11
7.53203e-12
4.39431e-13
3.63047e-15
1.4294e-05
1.40548e-05
1.38163e-05
1.35784e-05
1.33411e-05
1.31045e-05
1.28687e-05
1.26279e-05
1.2385e-05
1.21423e-05
1.1901e-05
1.16615e-05
1.1424e-05
1.11885e-05
1.0955e-05
1.07233e-05
1.04934e-05
1.02653e-05
1.00388e-05
9.81386e-06
9.59054e-06
9.36877e-06
9.14855e-06
8.92987e-06
8.71272e-06
8.4971e-06
8.28303e-06
8.07052e-06
7.85959e-06
7.65025e-06
7.44253e-06
7.23645e-06
7.03202e-06
6.82928e-06
6.62826e-06
6.42898e-06
6.23148e-06
6.03579e-06
5.84193e-06
5.64996e-06
5.4599e-06
5.2718e-06
5.08569e-06
4.90162e-06
4.71963e-06
4.53977e-06
4.36209e-06
4.18663e-06
4.01346e-06
3.84261e-06
3.67416e-06
3.50817e-06
3.3447e-06
3.18381e-06
3.02558e-06
2.87008e-06
2.7174e-06
2.56761e-06
2.42081e-06
2.2771e-06
2.13657e-06
1.99932e-06
1.86548e-06
1.73515e-06
1.60846e-06
1.48554e-06
1.36652e-06
1.25153e-06
1.1407e-06
1.03406e-06
9.3133e-07
8.30084e-07
7.29236e-07
6.3324e-07
5.42562e-07
4.57713e-07
3.79244e-07
3.07721e-07
2.43692e-07
1.87627e-07
1.3984e-07
1.00408e-07
6.90873e-08
4.52858e-08
2.8087e-08
1.63467e-08
8.83209e-09
4.36437e-09
1.92977e-09
7.38157e-10
2.3115e-10
5.37841e-11
7.70476e-12
4.47864e-13
3.67127e-15
1.43626e-05
1.41229e-05
1.38838e-05
1.36453e-05
1.34075e-05
1.31703e-05
1.29339e-05
1.2695e-05
1.24522e-05
1.22089e-05
1.19667e-05
1.17262e-05
1.14876e-05
1.12511e-05
1.10165e-05
1.07839e-05
1.0553e-05
1.03239e-05
1.00965e-05
9.87071e-06
9.64652e-06
9.42388e-06
9.2028e-06
8.98326e-06
8.76525e-06
8.54878e-06
8.33385e-06
8.12047e-06
7.90867e-06
7.69847e-06
7.48987e-06
7.28292e-06
7.07762e-06
6.874e-06
6.6721e-06
6.47194e-06
6.27355e-06
6.07697e-06
5.88223e-06
5.68937e-06
5.49842e-06
5.30941e-06
5.1224e-06
4.93743e-06
4.75453e-06
4.57376e-06
4.39516e-06
4.21879e-06
4.04468e-06
3.87291e-06
3.70353e-06
3.53661e-06
3.37219e-06
3.21036e-06
3.05119e-06
2.89475e-06
2.74112e-06
2.59039e-06
2.44265e-06
2.29799e-06
2.15651e-06
2.01832e-06
1.88353e-06
1.75226e-06
1.62464e-06
1.50078e-06
1.38083e-06
1.26492e-06
1.15318e-06
1.04567e-06
9.42163e-07
8.40741e-07
7.39023e-07
6.42148e-07
5.5058e-07
4.64838e-07
3.85475e-07
3.13067e-07
2.48171e-07
1.91273e-07
1.42709e-07
1.02574e-07
7.06473e-08
4.6349e-08
2.87674e-08
1.67521e-08
9.05438e-09
4.47493e-09
1.97856e-09
7.56612e-10
2.36798e-10
5.50452e-11
7.87181e-12
4.5599e-13
3.71029e-15
1.44272e-05
1.41871e-05
1.39474e-05
1.37084e-05
1.347e-05
1.32323e-05
1.29953e-05
1.2758e-05
1.25153e-05
1.22716e-05
1.20285e-05
1.17871e-05
1.15476e-05
1.13101e-05
1.10746e-05
1.0841e-05
1.06093e-05
1.03793e-05
1.0151e-05
9.92432e-06
9.69929e-06
9.47584e-06
9.25394e-06
9.0336e-06
8.81478e-06
8.5975e-06
8.38176e-06
8.16757e-06
7.95496e-06
7.74394e-06
7.53454e-06
7.32677e-06
7.12066e-06
6.91622e-06
6.7135e-06
6.51252e-06
6.3133e-06
6.11589e-06
5.92031e-06
5.7266e-06
5.5348e-06
5.34495e-06
5.15709e-06
4.97126e-06
4.78751e-06
4.60587e-06
4.42641e-06
4.24916e-06
4.07419e-06
3.90155e-06
3.7313e-06
3.56349e-06
3.39819e-06
3.23548e-06
3.07542e-06
2.91809e-06
2.76358e-06
2.61196e-06
2.46332e-06
2.31777e-06
2.1754e-06
2.03632e-06
1.90064e-06
1.76848e-06
1.63997e-06
1.51523e-06
1.3944e-06
1.27762e-06
1.16502e-06
1.05668e-06
9.52445e-07
8.50856e-07
7.48316e-07
6.5061e-07
5.58204e-07
4.71617e-07
3.91409e-07
3.18162e-07
2.52444e-07
1.94757e-07
1.45453e-07
1.0465e-07
7.21443e-08
4.73707e-08
2.94221e-08
1.71425e-08
9.26861e-09
4.58153e-09
2.02561e-09
7.74406e-10
2.42242e-10
5.62597e-11
8.03241e-12
4.63777e-13
3.74741e-15
1.44877e-05
1.42471e-05
1.4007e-05
1.37675e-05
1.35285e-05
1.32903e-05
1.30527e-05
1.2816e-05
1.25741e-05
1.23302e-05
1.20865e-05
1.18443e-05
1.16038e-05
1.13654e-05
1.1129e-05
1.08946e-05
1.0662e-05
1.04311e-05
1.0202e-05
9.9746e-06
9.74879e-06
9.52455e-06
9.30189e-06
9.08078e-06
8.86121e-06
8.64318e-06
8.4267e-06
8.21178e-06
7.99842e-06
7.78666e-06
7.57651e-06
7.36798e-06
7.1611e-06
6.9559e-06
6.7524e-06
6.55064e-06
6.35064e-06
6.15244e-06
5.95608e-06
5.76159e-06
5.569e-06
5.37835e-06
5.18969e-06
5.00305e-06
4.81849e-06
4.63605e-06
4.45577e-06
4.2777e-06
4.10191e-06
3.92844e-06
3.75736e-06
3.58873e-06
3.42261e-06
3.25907e-06
3.09818e-06
2.94002e-06
2.78468e-06
2.63222e-06
2.48276e-06
2.33637e-06
2.19316e-06
2.05325e-06
1.91674e-06
1.78374e-06
1.6544e-06
1.52883e-06
1.40718e-06
1.28959e-06
1.17619e-06
1.06706e-06
9.6214e-07
8.60391e-07
7.5708e-07
6.58594e-07
5.654e-07
4.78021e-07
3.97019e-07
3.22983e-07
2.56493e-07
1.98062e-07
1.4806e-07
1.06624e-07
7.357e-08
4.83449e-08
3.00471e-08
1.75155e-08
9.47347e-09
4.68351e-09
2.07062e-09
7.9143e-10
2.47448e-10
5.74201e-11
8.18563e-12
4.71183e-13
3.78248e-15
1.4544e-05
1.43029e-05
1.40624e-05
1.38224e-05
1.3583e-05
1.33443e-05
1.31062e-05
1.28689e-05
1.26286e-05
1.23847e-05
1.21406e-05
1.18976e-05
1.16563e-05
1.1417e-05
1.11798e-05
1.09445e-05
1.07111e-05
1.04795e-05
1.02496e-05
1.00214e-05
9.79487e-06
9.56992e-06
9.34654e-06
9.12472e-06
8.90444e-06
8.68572e-06
8.46855e-06
8.25293e-06
8.03888e-06
7.82642e-06
7.61555e-06
7.40631e-06
7.19872e-06
6.99281e-06
6.7886e-06
6.58611e-06
6.38539e-06
6.18647e-06
5.98938e-06
5.79414e-06
5.60082e-06
5.40943e-06
5.22003e-06
5.03266e-06
4.84735e-06
4.66416e-06
4.48313e-06
4.30432e-06
4.12778e-06
3.95356e-06
3.78172e-06
3.61233e-06
3.44544e-06
3.28113e-06
3.11947e-06
2.96054e-06
2.80441e-06
2.65117e-06
2.50092e-06
2.35375e-06
2.20976e-06
2.06907e-06
1.93177e-06
1.798e-06
1.66788e-06
1.54155e-06
1.41913e-06
1.30077e-06
1.18662e-06
1.07677e-06
9.71191e-07
8.69214e-07
7.65275e-07
6.66064e-07
5.72137e-07
4.84019e-07
4.02278e-07
3.27508e-07
2.60296e-07
2.01169e-07
1.50515e-07
1.08486e-07
7.49161e-08
4.9266e-08
3.06386e-08
1.78688e-08
9.66764e-09
4.78021e-09
2.11332e-09
8.07573e-10
2.52383e-10
5.85192e-11
8.33055e-12
4.78166e-13
3.81532e-15
1.4596e-05
1.43545e-05
1.41135e-05
1.38731e-05
1.36333e-05
1.33941e-05
1.31556e-05
1.29179e-05
1.26788e-05
1.2435e-05
1.21905e-05
1.19468e-05
1.17048e-05
1.14647e-05
1.12267e-05
1.09906e-05
1.07565e-05
1.05241e-05
1.02936e-05
1.00647e-05
9.83747e-06
9.61186e-06
9.38783e-06
9.16536e-06
8.94445e-06
8.72508e-06
8.50725e-06
8.29098e-06
8.07629e-06
7.86318e-06
7.65166e-06
7.44177e-06
7.23353e-06
7.02695e-06
6.82207e-06
6.61893e-06
6.41754e-06
6.21795e-06
6.02019e-06
5.82429e-06
5.63029e-06
5.43822e-06
5.24813e-06
5.06007e-06
4.87407e-06
4.69018e-06
4.50846e-06
4.32895e-06
4.15171e-06
3.97678e-06
3.80424e-06
3.63414e-06
3.46654e-06
3.30152e-06
3.13915e-06
2.97951e-06
2.82266e-06
2.66871e-06
2.51774e-06
2.36986e-06
2.22515e-06
2.08373e-06
1.94572e-06
1.81123e-06
1.68039e-06
1.55334e-06
1.43021e-06
1.31115e-06
1.1963e-06
1.08576e-06
9.79519e-07
8.76944e-07
7.72859e-07
6.72981e-07
5.78381e-07
4.89584e-07
4.07161e-07
3.31712e-07
2.63834e-07
2.04064e-07
1.52804e-07
1.10224e-07
7.61744e-08
5.0128e-08
3.11928e-08
1.82002e-08
9.84983e-09
4.87097e-09
2.15339e-09
8.22725e-10
2.57013e-10
5.95497e-11
8.46622e-12
4.84683e-13
3.84574e-15
1.46435e-05
1.44017e-05
1.41604e-05
1.39196e-05
1.36793e-05
1.34398e-05
1.32009e-05
1.29627e-05
1.27247e-05
1.24811e-05
1.22361e-05
1.19919e-05
1.17492e-05
1.15084e-05
1.12696e-05
1.10329e-05
1.07981e-05
1.05651e-05
1.03339e-05
1.01044e-05
9.87656e-06
9.65034e-06
9.42571e-06
9.20264e-06
8.98112e-06
8.76116e-06
8.54274e-06
8.32587e-06
8.11057e-06
7.89685e-06
7.68473e-06
7.47424e-06
7.2654e-06
7.05822e-06
6.85274e-06
6.64899e-06
6.447e-06
6.24679e-06
6.04841e-06
5.85189e-06
5.65727e-06
5.46459e-06
5.27388e-06
5.08519e-06
4.89856e-06
4.71404e-06
4.53168e-06
4.35152e-06
4.17364e-06
3.99807e-06
3.82488e-06
3.65413e-06
3.48588e-06
3.32021e-06
3.15718e-06
2.99688e-06
2.83938e-06
2.68477e-06
2.53315e-06
2.3846e-06
2.23924e-06
2.09716e-06
1.95849e-06
1.82335e-06
1.69186e-06
1.56415e-06
1.44037e-06
1.32067e-06
1.20517e-06
1.09401e-06
9.87152e-07
8.84031e-07
7.79815e-07
6.79329e-07
5.84114e-07
4.94696e-07
4.1165e-07
3.35581e-07
2.67092e-07
2.06732e-07
1.54916e-07
1.1183e-07
7.73386e-08
5.09263e-08
3.17066e-08
1.85076e-08
1.0019e-08
4.95527e-09
2.19062e-09
8.36798e-10
2.61311e-10
6.05057e-11
8.59192e-12
4.90705e-13
3.87364e-15
1.46865e-05
1.44444e-05
1.42027e-05
1.39616e-05
1.3721e-05
1.34811e-05
1.32418e-05
1.30032e-05
1.27654e-05
1.25225e-05
1.22775e-05
1.20328e-05
1.17895e-05
1.15481e-05
1.13087e-05
1.10712e-05
1.08358e-05
1.06022e-05
1.03704e-05
1.01404e-05
9.91196e-06
9.68518e-06
9.46e-06
9.23639e-06
9.01434e-06
8.79383e-06
8.57487e-06
8.35747e-06
8.14162e-06
7.92736e-06
7.71471e-06
7.50367e-06
7.29428e-06
7.08655e-06
6.88053e-06
6.67624e-06
6.4737e-06
6.27296e-06
6.07403e-06
5.87696e-06
5.68178e-06
5.48853e-06
5.29726e-06
5.108e-06
4.92081e-06
4.73572e-06
4.55279e-06
4.37206e-06
4.1936e-06
4.01745e-06
3.84367e-06
3.67233e-06
3.5035e-06
3.33723e-06
3.17361e-06
3.01271e-06
2.85461e-06
2.6994e-06
2.54718e-06
2.39803e-06
2.25206e-06
2.10939e-06
1.97012e-06
1.83438e-06
1.70229e-06
1.57399e-06
1.44962e-06
1.32933e-06
1.21325e-06
1.10151e-06
9.94106e-07
8.9049e-07
7.86155e-07
6.85117e-07
5.89342e-07
4.9936e-07
4.15748e-07
3.39114e-07
2.7007e-07
2.09173e-07
1.5685e-07
1.13302e-07
7.84066e-08
5.16594e-08
3.21787e-08
1.87903e-08
1.01746e-08
5.03286e-09
2.22489e-09
8.49753e-10
2.65268e-10
6.13851e-11
8.70743e-12
4.96227e-13
3.89914e-15
1.4725e-05
1.44826e-05
1.42406e-05
1.39991e-05
1.37583e-05
1.3518e-05
1.32784e-05
1.30395e-05
1.28013e-05
1.25593e-05
1.23143e-05
1.20693e-05
1.18255e-05
1.15835e-05
1.13435e-05
1.11056e-05
1.08696e-05
1.06354e-05
1.04031e-05
1.01725e-05
9.94363e-06
9.71637e-06
9.4907e-06
9.2666e-06
9.04406e-06
8.82308e-06
8.60364e-06
8.38576e-06
8.16945e-06
7.95471e-06
7.74157e-06
7.53006e-06
7.32019e-06
7.11198e-06
6.90546e-06
6.70068e-06
6.49765e-06
6.2964e-06
6.09698e-06
5.89941e-06
5.70372e-06
5.50998e-06
5.3182e-06
5.12843e-06
4.94073e-06
4.75513e-06
4.57168e-06
4.39044e-06
4.21145e-06
4.03477e-06
3.86047e-06
3.6886e-06
3.51923e-06
3.35244e-06
3.18829e-06
3.02686e-06
2.86824e-06
2.7125e-06
2.55974e-06
2.41006e-06
2.26356e-06
2.12035e-06
1.98055e-06
1.84427e-06
1.71165e-06
1.58282e-06
1.45793e-06
1.33711e-06
1.22052e-06
1.10826e-06
1.00036e-06
8.96297e-07
7.91852e-07
6.90318e-07
5.94043e-07
5.03555e-07
4.19435e-07
3.42296e-07
2.72753e-07
2.11374e-07
1.58596e-07
1.14631e-07
7.93719e-08
5.23226e-08
3.26062e-08
1.90464e-08
1.03156e-08
5.10319e-09
2.25596e-09
8.61497e-10
2.68853e-10
6.21817e-11
8.81197e-12
5.01216e-13
3.9221e-15
1.47588e-05
1.45161e-05
1.42739e-05
1.40322e-05
1.3791e-05
1.35505e-05
1.33106e-05
1.30714e-05
1.28329e-05
1.25917e-05
1.23468e-05
1.21015e-05
1.18573e-05
1.16148e-05
1.13743e-05
1.11358e-05
1.08993e-05
1.06647e-05
1.04319e-05
1.02009e-05
9.97151e-06
9.7438e-06
9.51769e-06
9.29315e-06
9.07019e-06
8.84878e-06
8.62892e-06
8.41062e-06
8.19389e-06
7.97874e-06
7.76519e-06
7.55327e-06
7.34298e-06
7.13436e-06
6.92742e-06
6.72221e-06
6.51874e-06
6.31706e-06
6.11719e-06
5.91917e-06
5.72305e-06
5.52885e-06
5.33663e-06
5.14642e-06
4.95826e-06
4.77221e-06
4.58831e-06
4.40661e-06
4.22717e-06
4.05004e-06
3.87528e-06
3.70295e-06
3.53313e-06
3.36587e-06
3.20125e-06
3.03935e-06
2.88025e-06
2.72404e-06
2.57081e-06
2.42066e-06
2.27369e-06
2.13001e-06
1.98973e-06
1.85299e-06
1.7199e-06
1.5906e-06
1.46524e-06
1.34396e-06
1.2269e-06
1.1142e-06
1.00586e-06
9.01409e-07
7.9687e-07
6.94902e-07
5.98186e-07
5.07255e-07
4.22689e-07
3.45105e-07
2.75124e-07
2.1332e-07
1.6014e-07
1.15809e-07
8.02276e-08
5.29109e-08
3.29856e-08
1.92739e-08
1.0441e-08
5.16572e-09
2.28358e-09
8.71938e-10
2.7204e-10
6.28895e-11
8.90476e-12
5.05635e-13
3.94233e-15
1.47879e-05
1.4545e-05
1.43026e-05
1.40606e-05
1.38192e-05
1.35784e-05
1.33383e-05
1.30988e-05
1.28601e-05
1.26196e-05
1.23747e-05
1.21292e-05
1.18846e-05
1.16417e-05
1.14008e-05
1.11618e-05
1.09249e-05
1.06898e-05
1.04566e-05
1.02252e-05
9.99545e-06
9.76734e-06
9.54085e-06
9.31595e-06
9.09261e-06
8.87085e-06
8.65063e-06
8.43198e-06
8.21489e-06
7.99939e-06
7.78549e-06
7.5732e-06
7.36256e-06
7.15357e-06
6.94627e-06
6.74069e-06
6.53686e-06
6.3348e-06
6.13457e-06
5.93618e-06
5.73969e-06
5.54512e-06
5.35251e-06
5.16191e-06
4.97336e-06
4.78692e-06
4.60263e-06
4.42054e-06
4.2407e-06
4.06318e-06
3.88802e-06
3.7153e-06
3.54507e-06
3.37741e-06
3.21239e-06
3.05009e-06
2.89059e-06
2.73398e-06
2.58035e-06
2.4298e-06
2.28242e-06
2.13834e-06
1.99766e-06
1.86051e-06
1.72701e-06
1.59731e-06
1.47155e-06
1.34987e-06
1.23243e-06
1.11933e-06
1.01061e-06
9.05827e-07
8.01206e-07
6.98863e-07
6.01769e-07
5.10454e-07
4.25504e-07
3.47536e-07
2.77176e-07
2.15005e-07
1.61479e-07
1.1683e-07
8.09703e-08
5.34219e-08
3.33154e-08
1.94717e-08
1.055e-08
5.22011e-09
2.30761e-09
8.81021e-10
2.74812e-10
6.35048e-11
8.98538e-12
5.09469e-13
3.95984e-15
1.48122e-05
1.45691e-05
1.43265e-05
1.40844e-05
1.38428e-05
1.36018e-05
1.33614e-05
1.31218e-05
1.28828e-05
1.26429e-05
1.23981e-05
1.21524e-05
1.19075e-05
1.16642e-05
1.14229e-05
1.11836e-05
1.09462e-05
1.07109e-05
1.04773e-05
1.02456e-05
1.00155e-05
9.78705e-06
9.56025e-06
9.33504e-06
9.11141e-06
8.88933e-06
8.66882e-06
8.44987e-06
8.23248e-06
8.01668e-06
7.80248e-06
7.58989e-06
7.37893e-06
7.16963e-06
6.96202e-06
6.75612e-06
6.55197e-06
6.34961e-06
6.14906e-06
5.95037e-06
5.75356e-06
5.55867e-06
5.36575e-06
5.17484e-06
4.98598e-06
4.79922e-06
4.61461e-06
4.4322e-06
4.25204e-06
4.07419e-06
3.8987e-06
3.72565e-06
3.55509e-06
3.3871e-06
3.22174e-06
3.05911e-06
2.89927e-06
2.74232e-06
2.58835e-06
2.43745e-06
2.28974e-06
2.14531e-06
2.0043e-06
1.86681e-06
1.73297e-06
1.60294e-06
1.47684e-06
1.35483e-06
1.23705e-06
1.12364e-06
1.0146e-06
9.09536e-07
8.04844e-07
7.02187e-07
6.04775e-07
5.1314e-07
4.27867e-07
3.49578e-07
2.78901e-07
2.16423e-07
1.62605e-07
1.1769e-07
8.15958e-08
5.38525e-08
3.35935e-08
1.96385e-08
1.0642e-08
5.26602e-09
2.3279e-09
8.88688e-10
2.77151e-10
6.4024e-11
9.05335e-12
5.12697e-13
3.97454e-15
1.48317e-05
1.45885e-05
1.43457e-05
1.41034e-05
1.38617e-05
1.36205e-05
1.338e-05
1.31402e-05
1.2901e-05
1.26617e-05
1.24169e-05
1.2171e-05
1.19258e-05
1.16822e-05
1.14406e-05
1.1201e-05
1.09634e-05
1.07277e-05
1.04939e-05
1.02619e-05
1.00316e-05
9.80291e-06
9.57587e-06
9.35042e-06
9.12655e-06
8.90423e-06
8.68346e-06
8.46426e-06
8.24663e-06
8.03057e-06
7.81612e-06
7.60328e-06
7.39209e-06
7.18254e-06
6.97469e-06
6.76855e-06
6.56416e-06
6.36154e-06
6.16074e-06
5.96179e-06
5.76472e-06
5.56957e-06
5.37639e-06
5.18522e-06
4.9961e-06
4.80908e-06
4.62421e-06
4.44154e-06
4.26112e-06
4.083e-06
3.90726e-06
3.73394e-06
3.56311e-06
3.39485e-06
3.22923e-06
3.06633e-06
2.90623e-06
2.74901e-06
2.59477e-06
2.4436e-06
2.29562e-06
2.15092e-06
2.00963e-06
1.87187e-06
1.73776e-06
1.60746e-06
1.48109e-06
1.35881e-06
1.24077e-06
1.12709e-06
1.0178e-06
9.1251e-07
8.07763e-07
7.04855e-07
6.07188e-07
5.15296e-07
4.29765e-07
3.51218e-07
2.80287e-07
2.17562e-07
1.63511e-07
1.18381e-07
8.20996e-08
5.41994e-08
3.38176e-08
1.97731e-08
1.07162e-08
5.30306e-09
2.34426e-09
8.94874e-10
2.79039e-10
6.44426e-11
9.10813e-12
5.15296e-13
3.98633e-15
1.48463e-05
1.4603e-05
1.43601e-05
1.41177e-05
1.38759e-05
1.36346e-05
1.3394e-05
1.3154e-05
1.29147e-05
1.26757e-05
1.24309e-05
1.21849e-05
1.19396e-05
1.16958e-05
1.1454e-05
1.12141e-05
1.09763e-05
1.07405e-05
1.05065e-05
1.02742e-05
1.00437e-05
9.81486e-06
9.58763e-06
9.36199e-06
9.13792e-06
8.91542e-06
8.69449e-06
8.4751e-06
8.25729e-06
8.04106e-06
7.82642e-06
7.61339e-06
7.40199e-06
7.19226e-06
6.98423e-06
6.7779e-06
6.57333e-06
6.37053e-06
6.16954e-06
5.97041e-06
5.77315e-06
5.57781e-06
5.38444e-06
5.19308e-06
5.00376e-06
4.81654e-06
4.63148e-06
4.4486e-06
4.26798e-06
4.08966e-06
3.91371e-06
3.74019e-06
3.56917e-06
3.40071e-06
3.23489e-06
3.07178e-06
2.91147e-06
2.75405e-06
2.5996e-06
2.44823e-06
2.30004e-06
2.15514e-06
2.01365e-06
1.87568e-06
1.74138e-06
1.61087e-06
1.4843e-06
1.36182e-06
1.24358e-06
1.1297e-06
1.02022e-06
9.14761e-07
8.0997e-07
7.06872e-07
6.09013e-07
5.16927e-07
4.31201e-07
3.52459e-07
2.81336e-07
2.18425e-07
1.64197e-07
1.18905e-07
8.24811e-08
5.44623e-08
3.39875e-08
1.98751e-08
1.07725e-08
5.33114e-09
2.35667e-09
8.99564e-10
2.80469e-10
6.476e-11
9.14965e-12
5.17264e-13
3.99528e-15
1.48561e-05
1.46127e-05
1.43698e-05
1.41273e-05
1.38853e-05
1.3644e-05
1.34033e-05
1.31632e-05
1.29239e-05
1.2685e-05
1.24403e-05
1.21942e-05
1.19487e-05
1.17048e-05
1.14628e-05
1.12229e-05
1.09849e-05
1.07489e-05
1.05148e-05
1.02824e-05
1.00518e-05
9.82282e-06
9.59547e-06
9.36972e-06
9.14554e-06
8.92292e-06
8.70186e-06
8.48235e-06
8.2644e-06
8.04804e-06
7.83327e-06
7.62012e-06
7.40861e-06
7.19876e-06
6.99059e-06
6.78415e-06
6.57944e-06
6.37652e-06
6.17541e-06
5.97613e-06
5.77875e-06
5.58328e-06
5.38979e-06
5.1983e-06
5.00886e-06
4.82151e-06
4.63631e-06
4.45331e-06
4.27255e-06
4.09411e-06
3.91802e-06
3.74437e-06
3.57321e-06
3.40462e-06
3.23866e-06
3.07542e-06
2.91498e-06
2.75742e-06
2.60283e-06
2.45133e-06
2.303e-06
2.15796e-06
2.01633e-06
1.87823e-06
1.74379e-06
1.61314e-06
1.48644e-06
1.36382e-06
1.24545e-06
1.13144e-06
1.02184e-06
9.16259e-07
8.11441e-07
7.08215e-07
6.10229e-07
5.18014e-07
4.32157e-07
3.53286e-07
2.82036e-07
2.19e-07
1.64655e-07
1.19255e-07
8.27359e-08
5.46379e-08
3.4101e-08
1.99432e-08
1.08101e-08
5.34991e-09
2.36497e-09
9.02701e-10
2.81426e-10
6.49721e-11
9.17739e-12
5.18579e-13
4.00122e-15
1.4861e-05
1.46176e-05
1.43746e-05
1.41321e-05
1.38901e-05
1.36487e-05
1.34079e-05
1.31678e-05
1.29285e-05
1.26897e-05
1.24449e-05
1.21988e-05
1.19533e-05
1.17093e-05
1.14672e-05
1.12272e-05
1.09892e-05
1.07531e-05
1.05189e-05
1.02865e-05
1.00558e-05
9.82682e-06
9.59941e-06
9.3736e-06
9.14935e-06
8.92667e-06
8.70554e-06
8.48596e-06
8.26796e-06
8.05154e-06
7.83672e-06
7.62351e-06
7.41193e-06
7.20202e-06
6.99379e-06
6.78727e-06
6.5825e-06
6.37952e-06
6.17834e-06
5.97901e-06
5.78156e-06
5.58603e-06
5.39247e-06
5.20092e-06
5.01141e-06
4.824e-06
4.63874e-06
4.45567e-06
4.27485e-06
4.09634e-06
3.9202e-06
3.74648e-06
3.57525e-06
3.40659e-06
3.24057e-06
3.07726e-06
2.91675e-06
2.75912e-06
2.60447e-06
2.4529e-06
2.3045e-06
2.1594e-06
2.0177e-06
1.87953e-06
1.74501e-06
1.6143e-06
1.48753e-06
1.36484e-06