/*--------------------------------*- C++ -*----------------------------------*\
  =========                 |
  \\      /  F ield         | OpenFOAM: The Open Source CFD Toolbox
   \\    /   O peration     | Website:  https://openfoam.org
    \\  /    A nd           | Version:  7
     \\/     M anipulation  |
\*---------------------------------------------------------------------------*/
FoamFile
{
    version     2.0;
    format      ascii;
    class       volVectorField;
    location    "172000";
    object      vorticity;
}
// * * * * * * * * * * * * * * * * * * * * * * * * * * * * * * * * * * * * * //

dimensions      [0 0 -1 0 0 0 0];

internalField   nonuniform List<vector> 
4844
(
(0.00949899 -0.00308379 6.2961e-18)
(0.00944901 -0.00340837 -1.87112e-16)
(0.00939381 -0.00373288 -5.10285e-17)
(0.00972287 -0.0031521 2.36067e-17)
(0.00967106 -0.00348379 -1.50544e-16)
(0.00961384 -0.00381539 -4.0846e-17)
(0.00955116 -0.00414687 -2.17273e-17)
(0.00948294 -0.00447816 -2.19117e-17)
(0.00940912 -0.00480923 -1.97041e-17)
(0.00932962 -0.00514002 -1.79857e-17)
(0.00924436 -0.00547044 -1.291e-17)
(0.00994889 -0.00322109 2.11948e-17)
(0.00989525 -0.00355997 -1.03982e-16)
(0.00983601 -0.00389873 -3.80628e-17)
(0.00977112 -0.00423734 -1.92688e-17)
(0.00970051 -0.00457575 -1.89472e-17)
(0.0096241 -0.0049139 -1.86747e-17)
(0.00954182 -0.00525172 -1.65685e-17)
(0.0094536 -0.00558915 -1.12614e-17)
(0.00935935 -0.0059261 -1.04167e-17)
(0.00925899 -0.00626247 -9.73241e-18)
(0.00915243 -0.00659816 -1.08742e-17)
(0.0101772 -0.00329077 1.27642e-17)
(0.0101217 -0.00363692 -6.62769e-17)
(0.0100604 -0.00398293 -3.42874e-17)
(0.00999334 -0.00432875 -1.96139e-17)
(0.00992032 -0.00467435 -1.83371e-17)
(0.00984132 -0.00501967 -1.93191e-17)
(0.00975626 -0.00536462 -1.6647e-17)
(0.00966506 -0.00570914 -1.15845e-17)
(0.00956764 -0.00605314 -1.0291e-17)
(0.0094639 -0.00639652 -7.71154e-18)
(0.00935377 -0.00673917 -7.82408e-18)
(0.00923716 -0.00708096 -8.17296e-18)
(0.00911399 -0.00742176 -9.29351e-18)
(0.00898416 -0.00776141 -1.2873e-17)
(0.00884636 -0.00810109 -9.34359e-18)
(0.00951388 -0.00762672 -5.25537e-18)
(0.0104078 -0.0033612 7.11461e-18)
(0.0103505 -0.00371469 -4.40688e-17)
(0.0102872 -0.00406802 -2.87007e-17)
(0.0102179 -0.00442116 -1.91276e-17)
(0.0101425 -0.00477403 -1.80764e-17)
(0.0100609 -0.00512659 -2.00992e-17)
(0.00997304 -0.00547877 -1.74607e-17)
(0.00987885 -0.00583047 -1.32309e-17)
(0.00977824 -0.00618162 -1.19626e-17)
(0.00967112 -0.0065321 -8.17493e-18)
(0.00955741 -0.0068818 -6.8186e-18)
(0.009437 -0.00723059 -6.68856e-18)
(0.00930982 -0.00757834 -9.01918e-18)
(0.00917578 -0.00792488 -1.10613e-17)
(0.0090336 -0.00827133 -8.59229e-18)
(0.00969023 -0.00780996 -5.03906e-18)
(0.010641 -0.00343239 4.78068e-18)
(0.0105818 -0.00379332 -3.12136e-17)
(0.0105165 -0.00415406 -2.33849e-17)
(0.010445 -0.00451459 -1.76281e-17)
(0.0103671 -0.00487483 -1.72097e-17)
(0.0102829 -0.00523474 -1.99057e-17)
(0.0101923 -0.00559422 -1.72411e-17)
(0.0100951 -0.0059532 -1.39457e-17)
(0.00999127 -0.00631158 -1.28789e-17)
(0.00988075 -0.00666926 -8.94733e-18)
(0.00976343 -0.00702611 -8.05265e-18)
(0.00963922 -0.00738201 -7.05872e-18)
(0.00950801 -0.00773681 -9.61624e-18)
(0.00936973 -0.00809034 -1.07125e-17)
(0.00922314 -0.00844367 -8.41841e-18)
(0.009869 -0.00799525 -5.72526e-18)
(0.0108157 -0.00387284 -2.31569e-17)
(0.0107483 -0.00424109 -1.8323e-17)
(0.0106746 -0.0046091 -1.58614e-17)
(0.0105943 -0.00497681 -1.6067e-17)
(0.0105075 -0.00534414 -1.90714e-17)
(0.010414 -0.00571103 -1.6647e-17)
(0.0103138 -0.00607739 -1.43811e-17)
(0.0102068 -0.00644311 -1.30166e-17)
(0.0100929 -0.00680808 -8.6234e-18)
(0.00997195 -0.00717219 -8.76018e-18)
(0.0098439 -0.0075353 -8.00069e-18)
(0.00970865 -0.00789725 -9.45758e-18)
(0.00956611 -0.00825787 -1.01982e-17)
(0.00941508 -0.00861819 -9.00559e-18)
(0.0100503 -0.0081827 -7.68239e-18)
(0.0110523 -0.0039533 -1.72344e-17)
(0.0109829 -0.00432915 -1.45002e-17)
(0.0109069 -0.00470474 -1.42583e-17)
(0.0108242 -0.00508 -1.50764e-17)
(0.0107348 -0.00545487 -1.8023e-17)
(0.0106385 -0.00582927 -1.59093e-17)
(0.0105353 -0.0062031 -1.38616e-17)
(0.010425 -0.00657626 -1.28262e-17)
(0.0103077 -0.00694864 -8.65594e-18)
(0.0101831 -0.0073201 -8.74268e-18)
(0.0100512 -0.00769052 -8.58632e-18)
(0.00991184 -0.00805973 -9.40198e-18)
(0.00976501 -0.00842756 -8.86207e-18)
(0.0096095 -0.00879498 -9.25903e-18)
(0.0102342 -0.00837238 -1.15134e-17)
(0.0112917 -0.00403474 -1.18905e-17)
(0.0112203 -0.00441829 -1.11189e-17)
(0.011142 -0.00480156 -1.30739e-17)
(0.0110569 -0.00518448 -1.43288e-17)
(0.0109648 -0.00556698 -1.72267e-17)
(0.0108657 -0.00594898 -1.58432e-17)
(0.0107594 -0.00633039 -1.30717e-17)
(0.0106459 -0.0067111 -1.18818e-17)
(0.0105251 -0.00709099 -8.55181e-18)
(0.0103969 -0.00746992 -8.6797e-18)
(0.0102611 -0.00784776 -7.98294e-18)
(0.0101177 -0.00822435 -9.29779e-18)
(0.00996654 -0.00859949 -8.38178e-18)
(0.00980652 -0.00897413 -1.00933e-17)
(0.0104207 -0.0085644 -1.55601e-17)
(0.0116007 -0.00372561 4.81924e-18)
(0.0115341 -0.0041172 -8.05806e-18)
(0.0114606 -0.00450855 -8.65024e-18)
(0.0113801 -0.00489959 -1.24625e-17)
(0.0112925 -0.00529028 -1.35184e-17)
(0.0111978 -0.00568052 -1.5956e-17)
(0.0110958 -0.00607024 -1.57288e-17)
(0.0109865 -0.00645934 -1.2273e-17)
(0.0108697 -0.0068477 -1.06699e-17)
(0.0107454 -0.00723521 -8.59906e-18)
(0.0106135 -0.00762173 -8.15827e-18)
(0.0104738 -0.0080071 -6.58606e-18)
(0.0103263 -0.00839117 -8.44187e-18)
(0.0101708 -0.00877376 -7.8408e-18)
(0.0100062 -0.00915572 -1.08886e-17)
(0.0106101 -0.00875885 -1.73641e-17)
(0.011848 -0.00380121 4.51291e-18)
(0.0117795 -0.00420072 -4.8718e-18)
(0.011704 -0.00459997 -6.45147e-18)
(0.0116212 -0.00499891 -1.15694e-17)
(0.0115312 -0.00539746 -1.31367e-17)
(0.0114338 -0.00579555 -1.50695e-17)
(0.0113289 -0.0061931 -1.51783e-17)
(0.0112165 -0.00659 -1.14084e-17)
(0.0110965 -0.00698613 -9.61085e-18)
(0.0109687 -0.00738138 -8.83343e-18)
(0.0108331 -0.00777559 -7.62041e-18)
(0.0106894 -0.00816862 -5.58285e-18)
(0.0105377 -0.0085603 -7.08307e-18)
(0.0103779 -0.00895043 -6.49789e-18)
(0.0102087 -0.00933986 -1.0687e-17)
(0.0108023 -0.00895583 -1.64558e-17)
(0.0120985 -0.00387781 3.86124e-18)
(0.0120282 -0.00428534 -2.95661e-18)
(0.0119505 -0.00469261 -5.56613e-18)
(0.0118655 -0.00509954 -1.04108e-17)
(0.011773 -0.00550608 -1.2108e-17)
(0.0116729 -0.00591214 -1.45372e-17)
(0.0115652 -0.00631763 -1.43588e-17)
(0.0114497 -0.00672244 -1.04042e-17)
(0.0113263 -0.00712646 -8.77027e-18)
(0.011195 -0.00752956 -8.84574e-18)
(0.0110556 -0.0079316 -7.52405e-18)
(0.010908 -0.0083324 -5.26631e-18)
(0.0107522 -0.00873181 -5.93012e-18)
(0.0105879 -0.00912962 -4.99381e-18)
(0.0104141 -0.00952663 -1.00426e-17)
(0.0109975 -0.00915545 -1.43381e-17)
(0.0123524 -0.00395544 3.69213e-18)
(0.0122802 -0.00437111 -1.35691e-18)
(0.0122004 -0.00478651 -5.04427e-18)
(0.0121131 -0.00520156 -9.48867e-18)
(0.0120181 -0.0056162 -1.08132e-17)
(0.0119153 -0.00603034 -1.42291e-17)
(0.0118046 -0.00644389 -1.39313e-17)
(0.011686 -0.00685674 -9.47699e-18)
(0.0115594 -0.00726877 -8.43431e-18)
(0.0114245 -0.00767985 -8.52998e-18)
(0.0112814 -0.00808982 -6.79911e-18)
(0.0111298 -0.00849853 -4.67937e-18)
(0.0109697 -0.00890579 -5.5059e-18)
(0.0108009 -0.00931141 -4.40489e-18)
(0.0106225 -0.00971613 -8.90757e-18)
(0.0111957 -0.0093578 -1.26894e-17)
(0.0126763 -0.00360998 1.28481e-17)
(0.0126098 -0.00403415 3.63808e-18)
(0.0125356 -0.00445808 -7.4092e-19)
(0.0124537 -0.00488172 -4.70747e-18)
(0.0123641 -0.005305 -8.41135e-18)
(0.0122666 -0.00572786 -9.24972e-18)
(0.0121611 -0.00615021 -1.32342e-17)
(0.0120475 -0.00657194 -1.36461e-17)
(0.0119258 -0.00699295 -8.67801e-18)
(0.0117957 -0.00741312 -8.19293e-18)
(0.0116573 -0.0078323 -8.90556e-18)
(0.0115103 -0.00825035 -6.32206e-18)
(0.0113547 -0.00866709 -4.74718e-18)
(0.0111904 -0.00908234 -5.20806e-18)
(0.0110171 -0.00949589 -4.36619e-18)
(0.0108339 -0.00990846 -7.60743e-18)
(0.0113972 -0.009563 -1.05337e-17)
(0.012939 -0.00368142 1.14726e-17)
(0.0128707 -0.00411397 3.78461e-18)
(0.0127946 -0.00454628 -6.85272e-19)
(0.0127106 -0.00497829 -4.13182e-18)
(0.0126187 -0.00540994 -7.16041e-18)
(0.0125186 -0.00584114 -8.42868e-18)
(0.0124104 -0.00627182 -1.20876e-17)
(0.0122939 -0.00670186 -1.33813e-17)
(0.0121689 -0.00713117 -8.03825e-18)
(0.0120355 -0.0075596 -7.1066e-18)
(0.0118935 -0.00798702 -9.52078e-18)
(0.0117427 -0.00841327 -6.03137e-18)
(0.011583 -0.00883817 -4.83522e-18)
(0.0114144 -0.00926154 -5.60017e-18)
(0.0112366 -0.00968317 -4.30635e-18)
(0.0110486 -0.0101037 -6.46003e-18)
(0.0116019 -0.00977114 -8.53624e-18)
(0.0132674 -0.00331263 1.27956e-17)
(0.0132054 -0.00375389 1.01761e-17)
(0.0131354 -0.00419496 3.82071e-18)
(0.0130574 -0.00463577 -9.82625e-19)
(0.0129713 -0.00507628 -3.52652e-18)
(0.0128769 -0.00551641 -5.786e-18)
(0.0127743 -0.00595609 -8.007e-18)
(0.0126633 -0.00639523 -1.09778e-17)
(0.0125438 -0.00683372 -1.30628e-17)
(0.0124157 -0.00727145 -7.89911e-18)
(0.0122789 -0.00770828 -5.45783e-18)
(0.0121332 -0.00814407 -9.60074e-18)
(0.0119786 -0.00857866 -6.79014e-18)
(0.0118148 -0.00901187 -5.34657e-18)
(0.0116418 -0.0094435 -6.10137e-18)
(0.0114594 -0.00987334 -3.59999e-18)
(0.0112667 -0.010302 -5.73798e-18)
(0.01181 -0.00998235 -7.15773e-18)
(0.0135393 -0.00337753 1.08825e-17)
(0.0134757 -0.00382744 9.18172e-18)
(0.013404 -0.00427715 3.62312e-18)
(0.013324 -0.0047266 -1.14331e-18)
(0.0132357 -0.00517573 -3.32357e-18)
(0.0131391 -0.00562449 -4.64062e-18)
(0.0130339 -0.00607278 -7.66206e-18)
(0.0129201 -0.00652051 -1.00536e-17)
(0.0127976 -0.00696758 -1.24235e-17)
(0.0126663 -0.00741387 -8.03667e-18)
(0.012526 -0.00785925 -4.02275e-18)
(0.0123767 -0.00830355 -8.62755e-18)
(0.0122181 -0.00874662 -7.02513e-18)
(0.0120502 -0.00918828 -5.67127e-18)
(0.0118728 -0.00962831 -7.04261e-18)
(0.0116858 -0.0100665 -3.13246e-18)
(0.0114882 -0.0105035 -5.04083e-18)
(0.0120216 -0.0101967 -6.08644e-18)
(0.0138153 -0.00344342 9.03889e-18)
(0.0137501 -0.0039021 8.6004e-18)
(0.0136766 -0.00436058 3.40771e-18)
(0.0135947 -0.00481881 -5.9434e-19)
(0.0135042 -0.00527671 -3.02752e-18)
(0.0134051 -0.00573422 -4.2184e-18)
(0.0132974 -0.00619126 -7.52207e-18)
(0.0131808 -0.00664773 -9.51553e-18)
(0.0130553 -0.00710352 -1.1448e-17)
(0.0129207 -0.00755852 -7.80787e-18)
(0.0127769 -0.00801258 -3.06771e-18)
(0.0126239 -0.00846554 -7.95814e-18)
(0.0124614 -0.00891724 -6.89526e-18)
(0.0122893 -0.00936749 -5.3208e-18)
(0.0121075 -0.00981607 -7.27723e-18)
(0.0119157 -0.0102628 -3.32546e-18)
(0.0117132 -0.0107082 -4.57416e-18)
(0.0122369 -0.0104144 -5.21474e-18)
(0.0140954 -0.00351032 7.15269e-18)
(0.0140287 -0.00397792 7.51481e-18)
(0.0139534 -0.00444532 2.9125e-18)
(0.0138695 -0.00491245 3.13751e-19)
(0.0137768 -0.00537926 -2.36563e-18)
(0.0136754 -0.00584567 -3.89739e-18)
(0.013565 -0.0063116 -7.26832e-18)
(0.0134455 -0.00677695 -9.56882e-18)
(0.013317 -0.00724162 -1.0591e-17)
(0.0131791 -0.00770547 -6.92568e-18)
(0.0130319 -0.00816836 -2.63325e-18)
(0.0128751 -0.00863013 -7.73838e-18)
(0.0127086 -0.00909061 -6.91924e-18)
(0.0125322 -0.0095496 -4.4334e-18)
(0.0123459 -0.0100069 -6.77979e-18)
(0.0121495 -0.0104623 -4.08238e-18)
(0.011942 -0.0109162 -4.44156e-18)
(0.0124559 -0.0106355 -4.51329e-18)
(0.01438 -0.00357828 5.14728e-18)
(0.0143117 -0.00405494 6.55431e-18)
(0.0142346 -0.00453139 2.5907e-18)
(0.0141486 -0.00500758 5.17017e-19)
(0.0140538 -0.00548344 -1.99337e-18)
(0.0139499 -0.0059589 -3.27033e-18)
(0.0138368 -0.00643388 -6.63085e-18)
(0.0137145 -0.00690826 -9.45033e-18)
(0.0135829 -0.00738194 -9.94796e-18)
(0.0134417 -0.0078548 -6.28254e-18)
(0.0132909 -0.00832668 -2.69769e-18)
(0.0131303 -0.00879742 -7.779e-18)
(0.0129598 -0.00926683 -7.05183e-18)
(0.0127792 -0.00973473 -4.01971e-18)
(0.0125883 -0.0102009 -6.08585e-18)
(0.0123871 -0.0106651 -4.15032e-18)
(0.0121745 -0.0111278 -3.6255e-18)
(0.0126788 -0.0108602 -3.68372e-18)
(0.014669 -0.00364733 2.958e-18)
(0.0145991 -0.0041332 5.49704e-18)
(0.0145202 -0.00461886 2.95869e-18)
(0.0144323 -0.00510426 1.36175e-18)
(0.0143351 -0.00558932 -1.89985e-18)
(0.0142288 -0.00607398 -3.15178e-18)
(0.0141131 -0.00655815 -6.30337e-18)
(0.0139879 -0.00704172 -8.95509e-18)
(0.0138531 -0.00752458 -8.9286e-18)
(0.0137086 -0.0080066 -5.93008e-18)
(0.0135542 -0.00848762 -2.78255e-18)
(0.0133898 -0.00896749 -7.84532e-18)
(0.0132152 -0.009446 -7.12559e-18)
(0.0130303 -0.00992296 -4.07445e-18)
(0.0128348 -0.0103981 -5.71272e-18)
(0.0126287 -0.0108713 -4.30043e-18)
(0.0124111 -0.0113429 -2.87113e-18)
(0.0129056 -0.0110885 -3.13265e-18)
(0.0149628 -0.00371751 8.49777e-19)
(0.0148912 -0.00421275 4.52533e-18)
(0.0148105 -0.00470777 2.98764e-18)
(0.0147205 -0.00520253 2.21843e-18)
(0.0146211 -0.00569695 -1.79905e-18)
(0.0145123 -0.00619097 -3.2268e-18)
(0.0143939 -0.00668449 -5.68289e-18)
(0.0142658 -0.00717741 -8.50169e-18)
(0.0141278 -0.00766961 -8.18504e-18)
(0.0139799 -0.00816096 -5.4784e-18)
(0.0138219 -0.00865129 -2.56456e-18)
(0.0136536 -0.00914044 -7.58236e-18)
(0.0134749 -0.00962822 -7.26461e-18)
(0.0132856 -0.0101144 -4.11772e-18)
(0.0130855 -0.0105988 -5.60916e-18)
(0.0128745 -0.0110811 -4.00186e-18)
(0.0126517 -0.0115618 -1.88456e-18)
(0.0131366 -0.0113206 -2.50579e-18)
(0.0152614 -0.00378887 -8.00195e-19)
(0.0151882 -0.00429363 3.55019e-18)
(0.0151056 -0.00479817 2.61129e-18)
(0.0150136 -0.00530245 2.35183e-18)
(0.0149119 -0.0058064 -1.59991e-18)
(0.0148006 -0.00630994 -3.41134e-18)
(0.0146794 -0.00681298 -4.92209e-18)
(0.0145484 -0.00731542 -7.73188e-18)
(0.0144072 -0.00781712 -7.8592e-18)
(0.0142559 -0.00831796 -5.20773e-18)
(0.0140942 -0.00881777 -2.14427e-18)
(0.013922 -0.00931639 -6.81439e-18)
(0.0137391 -0.0098136 -7.62241e-18)
(0.0135454 -0.0103092 -4.42205e-18)
(0.0133406 -0.0108029 -5.81691e-18)
(0.0131246 -0.0112946 -3.98944e-18)
(0.0128966 -0.0117845 -1.24609e-19)
(0.0133718 -0.0115566 -1.26671e-18)
(0.0155651 -0.00386144 -1.59358e-18)
(0.0154902 -0.00437588 2.45925e-18)
(0.0154058 -0.00489012 2.17615e-18)
(0.0153116 -0.00540409 2.13018e-18)
(0.0152077 -0.00591773 -1.51859e-18)
(0.0150938 -0.00643096 -3.38665e-18)
(0.0149699 -0.00694369 -4.46732e-18)
(0.0148358 -0.00745581 -6.96334e-18)
(0.0146915 -0.00796719 -7.66189e-18)
(0.0145366 -0.0084777 -4.86785e-18)
(0.0143712 -0.00898717 -9.6991e-19)
(0.0141951 -0.00949542 -5.9034e-18)
(0.014008 -0.0100022 -8.42966e-18)
(0.0138097 -0.0105074 -4.81664e-18)
(0.0136002 -0.0110107 -5.49194e-18)
(0.0133792 -0.0115118 -4.9763e-18)
(0.0131458 -0.0120112 1.07574e-18)
(0.0136114 -0.0117967 2.25397e-19)
(0.0158739 -0.00393527 -2.13487e-18)
(0.0157974 -0.00445957 1.62464e-18)
(0.0157111 -0.00498367 1.77572e-18)
(0.0156148 -0.0055075 1.2749e-18)
(0.0155085 -0.00603101 -1.47793e-18)
(0.0153921 -0.0065541 -3.00348e-18)
(0.0152654 -0.0070767 -4.55612e-18)
(0.0151283 -0.00759868 -6.8744e-18)
(0.0149807 -0.00811992 -7.19576e-18)
(0.0148223 -0.00864027 -4.55658e-18)
(0.0146532 -0.00915958 3.95932e-19)
(0.014473 -0.00967765 -4.45449e-18)
(0.0142816 -0.0101943 -9.21986e-18)
(0.0140788 -0.0107092 -5.62343e-18)
(0.0138645 -0.0112222 -5.02739e-18)
(0.0136383 -0.0117331 -5.22796e-18)
(0.0133996 -0.0122421 1.30102e-18)
(0.0138556 -0.012041 2.13472e-18)
(0.0161882 -0.00401041 -2.58624e-18)
(0.01611 -0.00454474 1.05157e-18)
(0.0160218 -0.00507887 1.6519e-18)
(0.0159233 -0.00561275 6.10078e-19)
(0.0158147 -0.0061463 -1.50124e-18)
(0.0156957 -0.00667944 -3.25414e-18)
(0.0155661 -0.00721208 -4.92986e-18)
(0.015426 -0.00774411 -6.80719e-18)
(0.015275 -0.00827539 -6.91787e-18)
(0.0151132 -0.00880578 -4.11939e-18)
(0.0149402 -0.00933511 1.2157e-18)
(0.0147559 -0.00986319 -3.09802e-18)
(0.0145602 -0.0103898 -1.01473e-17)
(0.0143528 -0.0109147 -5.91866e-18)
(0.0141336 -0.0114376 -4.05851e-18)
(0.0139022 -0.0119584 -4.52954e-18)
(0.013658 -0.0124772 4.562e-19)
(0.0141045 -0.0122897 2.92826e-18)
(0.0165081 -0.00408689 -2.69774e-18)
(0.0164282 -0.00463144 8.22228e-19)
(0.016338 -0.00517579 1.58623e-18)
(0.0162374 -0.00571989 3.87559e-19)
(0.0161264 -0.00626367 -1.52514e-18)
(0.0160047 -0.00680705 -3.54926e-18)
(0.0158723 -0.00734992 -5.38064e-18)
(0.015729 -0.00789219 -6.74726e-18)
(0.0155747 -0.0084337 -7.11519e-18)
(0.0154093 -0.00897432 -3.53463e-18)
(0.0152324 -0.00951387 1.77608e-18)
(0.0150441 -0.0100521 -2.55433e-18)
(0.0148439 -0.0105889 -1.09911e-17)
(0.0146319 -0.011124 -6.15665e-18)
(0.0144077 -0.0116571 -3.14685e-18)
(0.0141711 -0.0121879 -3.1331e-18)
(0.0139213 -0.0127167 7.35285e-20)
(0.0143582 -0.0125429 2.36635e-18)
(0.0168338 -0.00416477 -2.48169e-18)
(0.0167521 -0.00471973 7.26585e-19)
(0.01666 -0.00527449 1.32629e-18)
(0.0165572 -0.00582901 5.35034e-19)
(0.0164437 -0.00638321 -1.38362e-18)
(0.0163194 -0.00693701 -4.50509e-18)
(0.0161841 -0.00749032 -5.78776e-18)
(0.0160377 -0.00804301 -6.01553e-18)
(0.01588 -0.00859496 -6.93119e-18)
(0.0157109 -0.009146 -3.3448e-18)
(0.0155301 -0.00969597 2.24487e-18)
(0.0153376 -0.0102447 -2.69237e-18)
(0.015133 -0.0107918 -1.11839e-17)
(0.0149162 -0.0113372 -6.41053e-18)
(0.0146869 -0.0118806 -2.62396e-18)
(0.014445 -0.0124217 -2.53179e-18)
(0.0141896 -0.0129608 2.03035e-19)
(0.0146169 -0.0128008 1.65726e-18)
(0.0171655 -0.0042441 -2.48615e-18)
(0.017082 -0.00480965 7.71186e-19)
(0.0169879 -0.00537503 1.38663e-18)
(0.0168829 -0.00594016 6.67606e-19)
(0.016767 -0.00650498 -8.97757e-19)
(0.0166399 -0.00706941 -5.59815e-18)
(0.0165017 -0.00763334 -6.2378e-18)
(0.0163521 -0.00819667 -5.0468e-18)
(0.016191 -0.00875925 -6.61668e-18)
(0.0160181 -0.00932093 -3.63275e-18)
(0.0158334 -0.00988152 2.77866e-18)
(0.0156366 -0.0104408 -2.8851e-18)
(0.0154275 -0.0109986 -1.05474e-17)
(0.0152059 -0.0115546 -6.26588e-18)
(0.0149716 -0.0121085 -1.80755e-18)
(0.0147242 -0.0126601 -2.18406e-18)
(0.0144631 -0.0132095 -2.6779e-19)
(0.0148808 -0.0130635 1.10318e-18)
(0.0175033 -0.00432493 -2.62935e-18)
(0.0174181 -0.00490128 6.33696e-19)
(0.017322 -0.00547746 1.17386e-18)
(0.0172147 -0.00605341 6.5406e-19)
(0.0170963 -0.00662906 1.58326e-19)
(0.0169666 -0.00720432 -6.39879e-18)
(0.0168253 -0.0077791 -7.01982e-18)
(0.0166725 -0.00835327 -4.19979e-18)
(0.0165079 -0.0089267 -5.59906e-18)
(0.0163313 -0.00949922 -3.99409e-18)
(0.0161425 -0.0100706 2.48201e-18)
(0.0159414 -0.0106408 -3.07163e-18)
(0.0157277 -0.0112094 -1.01454e-17)
(0.0155013 -0.0117761 -5.48434e-18)
(0.0152617 -0.0123408 -9.90394e-19)
(0.0150089 -0.0129031 -1.16331e-18)
(0.014742 -0.0134632 -1.32991e-18)
(0.0151501 -0.0133312 2.4433e-19)
(0.0179236 -0.00381982 -1.93574e-18)
(0.0178477 -0.0044073 -3.0688e-18)
(0.0177607 -0.00499467 2.65484e-19)
(0.0176624 -0.00558187 1.13216e-18)
(0.0175529 -0.00616885 1.36409e-19)
(0.017432 -0.00675554 1.08642e-18)
(0.0172994 -0.00734185 -6.35153e-18)
(0.0171552 -0.00792768 -7.44174e-18)
(0.0169991 -0.00851291 -3.82473e-18)
(0.0168309 -0.0090974 -5.22244e-18)
(0.0166505 -0.00968098 -4.06939e-18)
(0.0164576 -0.0102635 1.96608e-18)
(0.0162522 -0.0108446 -3.04253e-18)
(0.0160338 -0.0114243 -9.98832e-18)
(0.0158024 -0.012002 -5.12796e-18)
(0.0155576 -0.0125777 -3.72451e-19)
(0.0152992 -0.0131509 5.5254e-19)
(0.0150264 -0.0137219 -2.04714e-18)
(0.0154249 -0.0136041 -1.50464e-18)
(0.0182762 -0.00389258 -1.85189e-18)
(0.0181986 -0.00449128 -3.21726e-18)
(0.0181098 -0.00508988 1.87993e-19)
(0.0180095 -0.00568832 8.68203e-19)
(0.0178977 -0.00628655 -1.14845e-18)
(0.0177742 -0.00688449 1.37957e-18)
(0.0176388 -0.00748207 -5.84937e-18)
(0.0174915 -0.00807918 -7.12792e-18)
(0.017332 -0.00867569 -3.29274e-18)
(0.0171603 -0.00927147 -5.26268e-18)
(0.016976 -0.00986635 -4.32956e-18)
(0.016779 -0.0104601 1.36837e-18)
(0.0165691 -0.0110526 -3.20034e-18)
(0.016346 -0.0116435 -9.49323e-18)
(0.0161096 -0.0122325 -4.87352e-18)
(0.0158594 -0.0128194 5.11276e-19)
(0.0155953 -0.0134037 2.12245e-18)
(0.0153165 -0.0139858 -1.41047e-18)
(0.0157053 -0.0138824 -2.89209e-18)
(0.0187033 -0.00335656 5.97426e-18)
(0.0186356 -0.00396677 -1.46872e-18)
(0.0185565 -0.00457692 -2.97369e-18)
(0.0184658 -0.00518697 3.62966e-19)
(0.0183634 -0.00579687 5.50079e-19)
(0.0182492 -0.00640658 -2.33624e-18)
(0.0181231 -0.00701601 9.74129e-19)
(0.0179849 -0.00762509 -5.48977e-18)
(0.0178345 -0.0082337 -6.72817e-18)
(0.0176716 -0.00884173 -3.06854e-18)
(0.0174962 -0.00944903 -4.93509e-18)
(0.017308 -0.0100554 -4.37966e-18)
(0.0171068 -0.0106607 9.60201e-19)
(0.0168924 -0.0112647 -3.64818e-18)
(0.0166645 -0.0118671 -9.33593e-18)
(0.0164229 -0.0124676 -4.40155e-18)
(0.0161674 -0.0130659 1.49564e-18)
(0.0158975 -0.0136617 3.24486e-18)
(0.0156125 -0.0142552 -5.92589e-19)
(0.0159917 -0.0141662 -2.25162e-18)
(0.0190713 -0.00342058 5.11602e-18)
(0.0190023 -0.00404246 -1.30677e-19)
(0.0189215 -0.00466428 -2.33369e-18)
(0.0188289 -0.00528601 5.25399e-19)
(0.0187244 -0.00590761 3.85941e-19)
(0.0186078 -0.00652903 -3.31203e-18)
(0.0184791 -0.00715018 5.80307e-19)
(0.018338 -0.00777099 -5.68263e-18)
(0.0181844 -0.00839135 -6.53511e-18)
(0.0180181 -0.00901114 -3.06946e-18)
(0.017839 -0.0096302 -4.64547e-18)
(0.0176467 -0.0102484 -4.09224e-18)
(0.0174413 -0.0108654 8.19962e-19)
(0.0172223 -0.0114812 -3.84935e-18)
(0.0169895 -0.0120953 -9.40553e-18)
(0.0167427 -0.0127076 -4.04534e-18)
(0.0164816 -0.0133176 1.80223e-18)
(0.0162059 -0.013925 4.0596e-18)
(0.0159147 -0.0145301 -2.30778e-19)
(0.0162842 -0.0144557 -1.10701e-18)
(0.0194468 -0.00348591 4.54331e-18)
(0.0193764 -0.00411968 1.2948e-18)
(0.0192939 -0.00475342 -1.69609e-18)
(0.0191994 -0.00538707 6.15136e-19)
(0.0190927 -0.00602061 4.33372e-19)
(0.0189737 -0.00665398 -4.23471e-18)
(0.0188423 -0.0072871 2.60214e-19)
(0.0186983 -0.00791989 -6.01032e-18)
(0.0185414 -0.00855225 -6.37081e-18)
(0.0183717 -0.00918404 -3.25975e-18)
(0.0181887 -0.00981511 -4.72921e-18)
(0.0179925 -0.0104453 -3.66936e-18)
(0.0177826 -0.0110744 1.05032e-18)
(0.017559 -0.0117021 -3.96428e-18)
(0.0173212 -0.0123283 -9.12833e-18)
(0.0170692 -0.0129525 -3.58549e-18)
(0.0168025 -0.0135745 1.52591e-18)
(0.0165208 -0.0141938 4.40717e-18)
(0.0162233 -0.0148107 1.9499e-20)
(0.016583 -0.0147513 -4.58019e-19)
(0.01983 -0.00355258 4.42702e-18)
(0.0197581 -0.0041985 2.34428e-18)
(0.019674 -0.0048444 -5.78848e-19)
(0.0195775 -0.00549023 8.7364e-19)
(0.0194686 -0.00613596 3.6379e-19)
(0.0193472 -0.00678153 -5.2829e-18)
(0.019213 -0.00742687 -2.13065e-20)
(0.019066 -0.00807189 -6.18572e-18)
(0.0189059 -0.00871649 -6.36124e-18)
(0.0187326 -0.00936054 -3.23374e-18)
(0.0185458 -0.0100039 -5.10884e-18)
(0.0183454 -0.0106464 -3.62742e-18)
(0.0181311 -0.0112877 1.2971e-18)
(0.0179027 -0.0119278 -4.02572e-18)
(0.01766 -0.0125662 -8.27669e-18)
(0.0174025 -0.0132027 -2.3823e-18)
(0.0171301 -0.0138368 1.25999e-18)
(0.0168423 -0.0144684 3.89266e-18)
(0.0165384 -0.0150974 3.91586e-20)
(0.0168883 -0.0150529 -8.46037e-19)
(0.0202212 -0.00362065 4.4271e-18)
(0.0201478 -0.00427898 2.89919e-18)
(0.020062 -0.00493729 5.38155e-19)
(0.0199635 -0.00559555 1.4663e-18)
(0.0198524 -0.00625372 4.27319e-19)
(0.0197284 -0.00691176 -6.36139e-18)
(0.0195915 -0.00756958 -5.46968e-19)
(0.0194414 -0.0082271 -6.21943e-18)
(0.019278 -0.00888421 -6.48772e-18)
(0.0191011 -0.00954078 -3.25713e-18)
(0.0189104 -0.0101967 -5.53099e-18)
(0.0187058 -0.0108517 -3.81062e-18)
(0.018487 -0.0115056 1.83301e-18)
(0.0182538 -0.0121582 -3.66903e-18)
(0.0180059 -0.0128091 -7.83615e-18)
(0.017743 -0.0134582 -1.05579e-18)
(0.0174647 -0.0141048 1.89302e-18)
(0.0171708 -0.0147488 2.9672e-18)
(0.0168603 -0.0153902 -2.35981e-19)
(0.0172004 -0.015361 -1.1631e-18)
(0.0206206 -0.00369016 4.89394e-18)
(0.0205458 -0.00436116 3.10552e-18)
(0.0204581 -0.00503215 1.52221e-18)
(0.0203577 -0.00570311 2.20265e-18)
(0.0202443 -0.006374 3.90444e-19)
(0.0201178 -0.00704477 -7.4597e-18)
(0.0199781 -0.00771533 -1.43785e-18)
(0.0198249 -0.00838562 -5.95431e-18)
(0.0196581 -0.00905552 -6.36749e-18)
(0.0194775 -0.00972489 -3.72415e-18)
(0.0192828 -0.0103936 -5.85763e-18)
(0.019074 -0.0110614 -4.3654e-18)
(0.0188506 -0.0117282 2.17941e-18)
(0.0186125 -0.0123936 -2.56982e-18)
(0.0183593 -0.0130574 -7.12116e-18)
(0.0180908 -0.0137192 -4.79924e-19)
(0.0178067 -0.0143787 3.05488e-18)
(0.0175065 -0.0150354 3.27163e-18)
(0.0171893 -0.0156894 -9.32616e-19)
(0.0175194 -0.0156756 -1.45966e-18)
(0.0210286 -0.00376117 5.44718e-18)
(0.0209522 -0.00444511 3.00428e-18)
(0.0208628 -0.00512906 2.12645e-18)
(0.0207604 -0.005813 2.93443e-18)
(0.0206446 -0.00649688 -1.78935e-20)
(0.0205156 -0.00718065 -8.44164e-18)
(0.0203729 -0.00786425 -2.1047e-18)
(0.0202166 -0.00854759 -5.57017e-18)
(0.0200464 -0.00923055 -6.39701e-18)
(0.019862 -0.00991301 -4.7115e-18)
(0.0196633 -0.0105948 -5.8907e-18)
(0.0194501 -0.0112758 -4.92434e-18)
(0.0192221 -0.0119556 1.81532e-18)
(0.0189789 -0.0126342 -1.44773e-18)
(0.0187205 -0.0133111 -5.0131e-18)
(0.0184463 -0.013986 -9.94104e-20)
(0.0181561 -0.0146586 3.38035e-18)
(0.0178495 -0.0153283 4.52128e-18)
(0.0175256 -0.0159953 -8.65527e-19)
(0.0178456 -0.0159971 -1.59592e-18)
(0.0214455 -0.00383373 5.74131e-18)
(0.0213675 -0.0045309 2.95907e-18)
(0.0212763 -0.00522809 2.86891e-18)
(0.0211718 -0.00592529 3.2864e-18)
(0.0210537 -0.00662245 -9.10546e-19)
(0.020922 -0.00731952 -8.95809e-18)
(0.0207765 -0.00801644 -2.13712e-18)
(0.0206169 -0.00871311 -5.18386e-18)
(0.0204432 -0.00940944 -6.68888e-18)
(0.020255 -0.0101053 -5.78172e-18)
(0.0200522 -0.0108005 -5.81962e-18)
(0.0198346 -0.0114948 -5.31044e-18)
(0.0196018 -0.0121881 1.33814e-18)
(0.0193536 -0.0128801 -7.9915e-19)
(0.0190897 -0.0135704 -2.70763e-18)
(0.0188097 -0.0142588 9.00048e-19)
(0.0185134 -0.0149447 2.72332e-18)
(0.0182003 -0.0156278 5.17096e-18)
(0.0178694 -0.016308 -6.8622e-19)
(0.0181794 -0.0163257 -9.68561e-19)
(0.0218715 -0.0039079 6.05041e-18)
(0.021792 -0.00461859 3.14854e-18)
(0.021699 -0.00532932 3.74105e-18)
(0.0215923 -0.00604007 2.90989e-18)
(0.0214718 -0.00675081 -2.21394e-18)
(0.0213374 -0.00746148 -9.0237e-18)
(0.0211889 -0.00817202 -2.00064e-18)
(0.0210261 -0.00888233 -4.78413e-18)
(0.0208488 -0.00959232 -7.32933e-18)
(0.0206568 -0.0103018 -6.68475e-18)
(0.0204498 -0.0110107 -5.32853e-18)
(0.0202276 -0.0117188 -5.61811e-18)
(0.01999 -0.0124259 1.00533e-18)
(0.0197366 -0.0131316 -1.19007e-19)
(0.0194671 -0.0138356 -6.06459e-19)
(0.0191813 -0.0145377 2.02248e-18)
(0.0188788 -0.0152373 2.05722e-18)
(0.018559 -0.015934 5.29891e-18)
(0.018221 -0.0166278 -8.85431e-19)
(0.0185208 -0.0166615 -9.68527e-19)
(0.0223071 -0.00398374 5.76415e-18)
(0.022226 -0.00470825 2.84752e-18)
(0.022131 -0.00543282 4.78928e-18)
(0.0220222 -0.00615744 2.29814e-18)
(0.0218993 -0.00688206 -3.74313e-18)
(0.0217622 -0.00760664 -8.92708e-18)
(0.0216107 -0.00833111 -2.22459e-18)
(0.0214445 -0.00905538 -4.81231e-18)
(0.0212636 -0.00977934 -7.56356e-18)
(0.0210676 -0.0105029 -7.40044e-18)
(0.0208564 -0.0112258 -5.05734e-18)
(0.0206296 -0.0119479 -6.31691e-18)
(0.020387 -0.012669 5.89887e-19)
(0.0201283 -0.0133888 7.86976e-19)
(0.0198532 -0.0141069 1.46247e-18)
(0.0195614 -0.014823 3.07969e-18)
(0.0192525 -0.0155367 1.71331e-18)
(0.018926 -0.0162474 5.7332e-18)
(0.0185808 -0.016955 -1.21514e-18)
(0.0188703 -0.017005 -1.79438e-18)
(0.0227525 -0.0040613 5.09911e-18)
(0.0226698 -0.00479995 2.35799e-18)
(0.0225729 -0.00553869 6.0529e-18)
(0.0224619 -0.00627748 1.76237e-18)
(0.0223365 -0.00701631 -5.25453e-18)
(0.0221966 -0.00775512 -8.83732e-18)
(0.022042 -0.00849383 -2.61276e-18)
(0.0218725 -0.00923238 -4.76757e-18)
(0.0216879 -0.00997065 -7.8098e-18)
(0.0214879 -0.0107085 -8.21954e-18)
(0.0212722 -0.0114458 -4.87285e-18)
(0.0210408 -0.0121823 -6.93871e-18)
(0.0207932 -0.0129177 -1.56154e-19)
(0.0205291 -0.0136519 1.27492e-18)
(0.0202482 -0.0143844 3.62944e-18)
(0.0199503 -0.0151149 4.43254e-18)
(0.0196349 -0.015843 1.23047e-18)
(0.0193015 -0.016568 6.73747e-18)
(0.018949 -0.0172898 -4.35517e-19)
(0.019228 -0.0173564 -2.09079e-18)
(0.0232082 -0.00414065 4.16498e-18)
(0.0231238 -0.00489377 1.62399e-18)
(0.023025 -0.005647 6.98529e-18)
(0.0229117 -0.0064003 1.32219e-18)
(0.0227838 -0.00715366 -6.11736e-18)
(0.0226411 -0.00790703 -8.61857e-18)
(0.0224833 -0.00866034 -3.20432e-18)
(0.0223104 -0.00941349 -4.66485e-18)
(0.0221219 -0.0101664 -7.95727e-18)
(0.0219178 -0.0109189 -9.29894e-18)
(0.0216978 -0.0116709 -4.94454e-18)
(0.0214615 -0.0124221 -7.39982e-18)
(0.0212088 -0.0131723 -8.18021e-19)
(0.0209392 -0.0139212 1.22931e-18)
(0.0206525 -0.0146685 5.53861e-18)
(0.0203483 -0.0154137 5.7819e-18)
(0.0200263 -0.0161565 9.30062e-19)
(0.0196858 -0.0168961 7.3053e-18)
(0.0193258 -0.0176325 5.28142e-19)
(0.0195943 -0.0177158 -1.33873e-18)
(0.0236744 -0.00422186 2.88278e-18)
(0.0235883 -0.00498979 7.39867e-19)
(0.0234876 -0.00575784 7.46105e-18)
(0.023372 -0.006526 8.70612e-19)
(0.0232415 -0.00729424 -6.58329e-18)
(0.0230959 -0.00806251 -8.11359e-18)
(0.022935 -0.00883075 -3.84255e-18)
(0.0227585 -0.00959887 -4.87603e-18)
(0.0225662 -0.0103668 -8.23375e-18)
(0.0223579 -0.0111343 -1.05302e-17)
(0.0221334 -0.0119013 -4.50499e-18)
(0.0218922 -0.0126676 -7.42661e-18)
(0.0216342 -0.0134329 -1.74564e-18)
(0.021359 -0.0141969 6.67171e-19)
(0.0210663 -0.0149593 7.10415e-18)
(0.0207558 -0.0157196 6.84853e-18)
(0.020427 -0.0164775 7.32426e-19)
(0.0200794 -0.0172322 7.21822e-18)
(0.0197118 -0.0179834 8.00306e-19)
(0.0199695 -0.0180838 -1.22484e-19)
(0.0241517 -0.00430499 1.62508e-18)
(0.0240639 -0.00508808 -1.86067e-19)
(0.0239611 -0.00587131 7.37311e-18)
(0.0238432 -0.00665468 3.38033e-19)
(0.0237101 -0.00743815 -6.96816e-18)
(0.0235615 -0.00822169 -7.29929e-18)
(0.0233973 -0.00900521 -4.22737e-18)
(0.0232173 -0.00978865 -4.77463e-18)
(0.0230211 -0.0105719 -8.41995e-18)
(0.0228085 -0.0113548 -1.22142e-17)
(0.0225793 -0.0121372 -4.04359e-18)
(0.0223332 -0.0129189 -6.79372e-18)
(0.0220698 -0.0136997 -2.2744e-18)
(0.0217889 -0.0144792 1.62634e-19)
(0.0214901 -0.015257 8.20548e-18)
(0.021173 -0.0160329 7.41412e-18)
(0.0208373 -0.0168062 3.47137e-19)
(0.0204824 -0.0175763 6.89344e-18)
(0.0201071 -0.0183428 1.15068e-18)
(0.0203539 -0.0184604 1.39091e-18)
(0.0246404 -0.00439011 6.41677e-19)
(0.0245508 -0.00518873 -8.61875e-19)
(0.024446 -0.00598751 6.96243e-18)
(0.0243257 -0.00678645 -3.53934e-19)
(0.0241899 -0.00758553 -7.64734e-18)
(0.0240384 -0.0083847 -6.54941e-18)
(0.0238708 -0.00918389 -4.3319e-18)
(0.0236871 -0.00998302 -4.66187e-18)
(0.0234869 -0.010782 -8.77905e-18)