/*--------------------------------*- C++ -*----------------------------------*\
  =========                 |
  \\      /  F ield         | OpenFOAM: The Open Source CFD Toolbox
   \\    /   O peration     | Website:  https://openfoam.org
    \\  /    A nd           | Version:  7
     \\/     M anipulation  |
\*---------------------------------------------------------------------------*/
FoamFile
{
    version     2.0;
    format      ascii;
    class       volScalarField;
    location    "52000";
    object      p;
}
// * * * * * * * * * * * * * * * * * * * * * * * * * * * * * * * * * * * * * //

dimensions      [0 2 -2 0 0 0 0];

internalField   nonuniform List<scalar> 
4850
(
-3.53378e-17
-3.5108e-17
-3.53328e-17
-3.50102e-17
-3.52624e-17
-3.54751e-17
-3.52575e-17
-3.52369e-17
-3.51946e-17
-3.52364e-17
-3.53248e-17
-3.52367e-17
-3.524e-17
-3.52992e-17
-3.51389e-17
-3.52716e-17
-3.53162e-17
-3.52544e-17
-3.49942e-17
-3.53131e-17
-3.50602e-17
-3.52214e-17
-3.51585e-17
-3.54577e-17
-3.52944e-17
-3.50074e-17
-3.53566e-17
-3.52325e-17
-3.50458e-17
-3.5315e-17
-3.53663e-17
-3.56048e-17
-3.51386e-17
-3.51887e-17
-3.52347e-17
-3.5153e-17
-3.51819e-17
-3.50862e-17
-3.53352e-17
-3.56207e-17
-3.53415e-17
-3.52159e-17
-3.49881e-17
-3.5178e-17
-3.54602e-17
-3.5277e-17
-3.5095e-17
-3.51981e-17
-3.52674e-17
-3.53396e-17
-3.52885e-17
-3.52292e-17
-3.54407e-17
-3.52156e-17
-3.52083e-17
-3.5482e-17
-3.50948e-17
-3.53128e-17
-3.53308e-17
-3.54032e-17
-3.51928e-17
-3.52887e-17
-3.53352e-17
-3.52586e-17
-3.53602e-17
-3.52298e-17
-3.52926e-17
-3.53575e-17
-3.50832e-17
-3.51564e-17
-3.52045e-17
-3.52626e-17
-3.52621e-17
-3.5187e-17
-3.52882e-17
-3.53217e-17
-3.52334e-17
-3.51819e-17
-3.52312e-17
-3.53225e-17
-3.56313e-17
-3.52591e-17
-3.52727e-17
-3.51902e-17
-3.52235e-17
-3.52341e-17
-3.52408e-17
-3.53114e-17
-3.50978e-17
-3.52358e-17
-3.53132e-17
-3.52645e-17
-3.53105e-17
-3.55895e-17
-3.53194e-17
-3.53463e-17
-3.52507e-17
-3.5244e-17
-3.51626e-17
-3.54319e-17
-3.54905e-17
-3.53684e-17
-3.5215e-17
-3.51732e-17
-3.52433e-17
-3.51536e-17
-3.54207e-17
-3.53843e-17
-3.5345e-17
-3.51995e-17
-3.53667e-17
-3.52455e-17
-3.51931e-17
-3.5336e-17
-3.53165e-17
-3.55704e-17
-3.56898e-17
-3.52165e-17
-3.53056e-17
-3.53419e-17
-3.52198e-17
-3.52132e-17
-3.51871e-17
-3.5202e-17
-3.51214e-17
-3.52545e-17
-3.52631e-17
-3.52046e-17
-3.53556e-17
-3.5046e-17
-3.53363e-17
-3.52007e-17
-3.5413e-17
-3.5145e-17
-3.54852e-17
-3.51709e-17
-3.48411e-17
-3.50679e-17
-3.52789e-17
-3.52764e-17
-3.54031e-17
-3.48549e-17
-3.53327e-17
-3.55995e-17
-3.53007e-17
-3.50167e-17
-3.55927e-17
-3.51105e-17
-3.54505e-17
-3.50629e-17
-3.52064e-17
-3.51547e-17
-3.52559e-17
-3.48685e-17
-3.51932e-17
-3.53698e-17
-3.51993e-17
-3.51108e-17
-3.5112e-17
-3.53758e-17
-3.50347e-17
-3.57043e-17
-3.4967e-17
-3.53048e-17
-3.49352e-17
-3.47553e-17
-3.54304e-17
-3.52694e-17
-3.4935e-17
-3.52654e-17
-3.4847e-17
-3.5445e-17
-3.58182e-17
-3.53675e-17
-3.49915e-17
-3.5581e-17
-3.5665e-17
-3.54154e-17
-3.57856e-17
-3.49181e-17
-3.57045e-17
-3.52582e-17
-3.51033e-17
-3.52365e-17
-3.548e-17
-3.52605e-17
-3.53157e-17
-3.53944e-17
-3.51864e-17
-3.51738e-17
-3.50962e-17
-3.52714e-17
-3.50246e-17
-3.57341e-17
-3.55007e-17
-3.5301e-17
-3.51651e-17
-3.48736e-17
-3.53888e-17
-3.52983e-17
-3.52926e-17
-3.52121e-17
-3.51725e-17
-3.56746e-17
-3.56132e-17
-3.5347e-17
-3.50513e-17
-3.56035e-17
-3.57244e-17
-3.56476e-17
-3.5766e-17
-3.59231e-17
-3.80241e-17
-3.52029e-17
-3.53096e-17
-3.53057e-17
-3.53701e-17
-3.53995e-17
-3.54804e-17
-3.50595e-17
-3.5414e-17
-3.53037e-17
-3.51849e-17
-3.51295e-17
-3.48873e-17
-3.52423e-17
-3.51481e-17
-3.54089e-17
-3.54663e-17
-3.53098e-17
-3.54161e-17
-3.54072e-17
-3.53771e-17
-3.53288e-17
-3.56628e-17
-3.51292e-17
-3.52468e-17
-3.5474e-17
-3.58964e-17
-3.52868e-17
-3.53673e-17
-3.56632e-17
-3.58243e-17
-3.57236e-17
-3.61795e-17
-3.56178e-17
-3.90368e-17
-3.53371e-17
-3.53808e-17
-3.53399e-17
-3.54819e-17
-3.53626e-17
-3.5372e-17
-3.52e-17
-3.53179e-17
-3.52898e-17
-3.51932e-17
-3.52387e-17
-3.52527e-17
-3.52948e-17
-3.52135e-17
-3.52925e-17
-3.56073e-17
-3.53363e-17
-3.56558e-17
-3.55691e-17
-3.5398e-17
-3.53095e-17
-3.54916e-17
-3.55078e-17
-3.51616e-17
-3.5494e-17
-3.60919e-17
-3.49826e-17
-3.58057e-17
-3.58161e-17
-3.60409e-17
-3.55365e-17
-3.65922e-17
-3.5903e-17
-3.95753e-17
-3.53572e-17
-3.53917e-17
-3.534e-17
-3.55578e-17
-3.54447e-17
-3.52928e-17
-3.51893e-17
-3.52554e-17
-3.5111e-17
-3.51918e-17
-3.53462e-17
-3.5203e-17
-3.53721e-17
-3.52323e-17
-3.52084e-17
-3.54237e-17
-3.53062e-17
-3.53159e-17
-3.49524e-17
-3.5401e-17
-3.52666e-17
-3.54893e-17
-3.51646e-17
-3.48176e-17
-3.56967e-17
-3.56229e-17
-3.49829e-17
-3.56502e-17
-3.6021e-17
-3.57358e-17
-3.57281e-17
-3.6547e-17
-3.59943e-17
-3.8802e-17
-3.54709e-17
-3.54e-17
-3.5241e-17
-3.56335e-17
-3.52599e-17
-3.5354e-17
-3.52033e-17
-3.52295e-17
-3.52154e-17
-3.50579e-17
-3.51149e-17
-3.52428e-17
-3.53091e-17
-3.52349e-17
-3.50898e-17
-3.52951e-17
-3.52817e-17
-3.50246e-17
-3.48196e-17
-3.54975e-17
-3.51878e-17
-3.53729e-17
-3.54913e-17
-3.49308e-17
-3.54886e-17
-3.5505e-17
-3.5379e-17
-3.55453e-17
-3.57841e-17
-3.53426e-17
-3.58053e-17
-3.62709e-17
-3.58978e-17
-3.94182e-17
-3.56366e-17
-3.52029e-17
-3.53021e-17
-3.57807e-17
-3.5109e-17
-3.54688e-17
-3.51225e-17
-3.52059e-17
-3.52281e-17
-3.47794e-17
-3.51019e-17
-3.53598e-17
-3.52942e-17
-3.52291e-17
-3.48251e-17
-3.5292e-17
-3.51566e-17
-3.52988e-17
-3.50698e-17
-3.57548e-17
-3.49653e-17
-3.51988e-17
-3.51055e-17
-3.55206e-17
-3.54608e-17
-3.55931e-17
-3.57029e-17
-3.55404e-17
-3.57492e-17
-3.54923e-17
-3.57907e-17
-3.61767e-17
-3.58116e-17
-3.90686e-17
-3.56071e-17
-3.53875e-17
-3.53126e-17
-3.54985e-17
-3.52019e-17
-3.5391e-17
-3.50814e-17
-3.51197e-17
-3.50715e-17
-3.48841e-17
-3.52654e-17
-3.49868e-17
-3.52742e-17
-3.52735e-17
-3.5101e-17
-3.53151e-17
-3.49213e-17
-3.50761e-17
-3.49513e-17
-3.55798e-17
-3.51775e-17
-3.50091e-17
-3.52274e-17
-3.54365e-17
-3.55167e-17
-3.55042e-17
-3.53689e-17
-3.54788e-17
-3.58096e-17
-3.53757e-17
-3.57858e-17
-3.61524e-17
-3.56269e-17
-3.82953e-17
-3.53353e-17
-3.54427e-17
-3.52845e-17
-3.53334e-17
-3.51695e-17
-3.53836e-17
-3.51304e-17
-3.54034e-17
-3.52197e-17
-3.49917e-17
-3.56746e-17
-3.47351e-17
-3.50989e-17
-3.53344e-17
-3.52285e-17
-3.53839e-17
-3.52002e-17
-3.52791e-17
-3.52899e-17
-3.55554e-17
-3.53307e-17
-3.52806e-17
-3.53284e-17
-3.53722e-17
-3.54518e-17
-3.54561e-17
-3.53812e-17
-3.53641e-17
-3.57364e-17
-3.56093e-17
-3.58103e-17
-3.6103e-17
-3.59709e-17
-3.77839e-17
-3.5339e-17
-3.55216e-17
-3.53373e-17
-3.52238e-17
-3.5204e-17
-3.5225e-17
-3.5123e-17
-3.54367e-17
-3.52327e-17
-3.51838e-17
-3.54939e-17
-3.49149e-17
-3.50773e-17
-3.53707e-17
-3.50906e-17
-3.55847e-17
-3.53277e-17
-3.53987e-17
-3.56166e-17
-3.55123e-17
-3.54574e-17
-3.52926e-17
-3.53414e-17
-3.53924e-17
-3.55979e-17
-3.5464e-17
-3.54295e-17
-3.51738e-17
-3.58028e-17
-3.56182e-17
-3.57764e-17
-3.60525e-17
-3.63087e-17
-3.71632e-17
-3.54916e-17
-3.53704e-17
-3.51448e-17
-3.54e-17
-3.53279e-17
-3.53437e-17
-3.49724e-17
-3.53936e-17
-3.52649e-17
-3.53563e-17
-3.52735e-17
-3.49205e-17
-3.52907e-17
-3.52382e-17
-3.50345e-17
-3.51835e-17
-3.54074e-17
-3.54997e-17
-3.52738e-17
-3.5484e-17
-3.5599e-17
-3.49674e-17
-3.53311e-17
-3.54356e-17
-3.60316e-17
-3.55912e-17
-3.55075e-17
-3.55529e-17
-3.60207e-17
-3.54924e-17
-3.57511e-17
-3.60966e-17
-3.6049e-17
-3.67263e-17
-3.5346e-17
-3.5369e-17
-3.54888e-17
-3.52103e-17
-3.55387e-17
-3.52865e-17
-3.53491e-17
-3.5187e-17
-3.51219e-17
-3.55759e-17
-3.52002e-17
-3.52422e-17
-3.51166e-17
-3.54921e-17
-3.50653e-17
-3.50887e-17
-3.53926e-17
-3.56524e-17
-3.56687e-17
-3.48821e-17
-3.55537e-17
-3.50909e-17
-3.4847e-17
-3.53308e-17
-3.54598e-17
-3.5631e-17
-3.58034e-17
-3.55912e-17
-3.58747e-17
-3.57934e-17
-3.59908e-17
-3.576e-17
-3.63852e-17
-3.59148e-17
-3.63432e-17
-3.55772e-17
-3.51106e-17
-3.54353e-17
-3.52315e-17
-3.54079e-17
-3.53443e-17
-3.53494e-17
-3.54354e-17
-3.51079e-17
-3.54085e-17
-3.50878e-17
-3.52881e-17
-3.52056e-17
-3.54228e-17
-3.4909e-17
-3.50609e-17
-3.53231e-17
-3.53628e-17
-3.54579e-17
-3.50104e-17
-3.57801e-17
-3.52332e-17
-3.50488e-17
-3.53519e-17
-3.55011e-17
-3.53438e-17
-3.56074e-17
-3.55067e-17
-3.56761e-17
-3.56238e-17
-3.59763e-17
-3.57519e-17
-3.635e-17
-3.58466e-17
-3.66488e-17
-3.59276e-17
-3.52481e-17
-3.53494e-17
-3.51671e-17
-3.54998e-17
-3.52851e-17
-3.53389e-17
-3.53181e-17
-3.49251e-17
-3.52877e-17
-3.51703e-17
-3.53629e-17
-3.52009e-17
-3.51604e-17
-3.51849e-17
-3.52357e-17
-3.51801e-17
-3.50524e-17
-3.53073e-17
-3.51851e-17
-3.56677e-17
-3.53501e-17
-3.57201e-17
-3.53925e-17
-3.54088e-17
-3.50767e-17
-3.55204e-17
-3.5456e-17
-3.55695e-17
-3.54546e-17
-3.61141e-17
-3.57119e-17
-3.60653e-17
-3.59491e-17
-3.65205e-17
-3.53432e-17
-3.55978e-17
-3.50333e-17
-3.55353e-17
-3.53312e-17
-3.52761e-17
-3.52573e-17
-3.53158e-17
-3.54297e-17
-3.52208e-17
-3.51413e-17
-3.52046e-17
-3.52463e-17
-3.5262e-17
-3.52981e-17
-3.51968e-17
-3.50799e-17
-3.5301e-17
-3.52901e-17
-3.57703e-17
-3.53664e-17
-3.58136e-17
-3.53965e-17
-3.53569e-17
-3.52056e-17
-3.56361e-17
-3.54697e-17
-3.56759e-17
-3.52038e-17
-3.59336e-17
-3.56716e-17
-3.5984e-17
-3.60977e-17
-3.61887e-17
-3.54086e-17
-3.57172e-17
-3.50968e-17
-3.54107e-17
-3.53448e-17
-3.50684e-17
-3.53451e-17
-3.52406e-17
-3.5255e-17
-3.52181e-17
-3.51761e-17
-3.52491e-17
-3.52104e-17
-3.52736e-17
-3.53734e-17
-3.52951e-17
-3.5399e-17
-3.52998e-17
-3.5363e-17
-3.55371e-17
-3.52936e-17
-3.55077e-17
-3.53811e-17
-3.52973e-17
-3.51083e-17
-3.58535e-17
-3.54849e-17
-3.58925e-17
-3.53987e-17
-3.58609e-17
-3.56738e-17
-3.58653e-17
-3.59248e-17
-3.60075e-17
-3.53268e-17
-3.54906e-17
-3.49191e-17
-3.53822e-17
-3.53574e-17
-3.51542e-17
-3.52646e-17
-3.53025e-17
-3.49284e-17
-3.52094e-17
-3.51976e-17
-3.53454e-17
-3.51474e-17
-3.51605e-17
-3.52437e-17
-3.517e-17
-3.54926e-17
-3.52845e-17
-3.53852e-17
-3.54113e-17
-3.50561e-17
-3.53805e-17
-3.53809e-17
-3.53695e-17
-3.52987e-17
-3.56199e-17
-3.55618e-17
-3.56777e-17
-3.54949e-17
-3.59937e-17
-3.57168e-17
-3.57811e-17
-3.58709e-17
-3.5949e-17
-3.53146e-17
-3.53467e-17
-3.53076e-17
-3.55892e-17
-3.54014e-17
-3.54233e-17
-3.51548e-17
-3.56278e-17
-3.5295e-17
-3.52272e-17
-3.52627e-17
-3.52756e-17
-3.52831e-17
-3.51829e-17
-3.51718e-17
-3.50299e-17
-3.51615e-17
-3.52399e-17
-3.50996e-17
-3.54016e-17
-3.5387e-17
-3.54048e-17
-3.53817e-17
-3.54068e-17
-3.53894e-17
-3.54858e-17
-3.58368e-17
-3.55538e-17
-3.54267e-17
-3.57303e-17
-3.57665e-17
-3.59083e-17
-3.57994e-17
-3.5425e-17
-3.52619e-17
-3.52492e-17
-3.55411e-17
-3.53523e-17
-3.53365e-17
-3.54303e-17
-3.55219e-17
-3.54212e-17
-3.52785e-17
-3.5216e-17
-3.52443e-17
-3.54045e-17
-3.52173e-17
-3.53438e-17
-3.51785e-17
-3.51703e-17
-3.51196e-17
-3.50484e-17
-3.54378e-17
-3.54965e-17
-3.5453e-17
-3.53783e-17
-3.54088e-17
-3.54295e-17
-3.54274e-17
-3.57991e-17
-3.55523e-17
-3.53197e-17
-3.55736e-17
-3.56368e-17
-3.60759e-17
-3.59048e-17
-3.54594e-17
-3.51461e-17
-3.52779e-17
-3.54043e-17
-3.52847e-17
-3.55805e-17
-3.53447e-17
-3.52561e-17
-3.54139e-17
-3.54146e-17
-3.51659e-17
-3.52201e-17
-3.53295e-17
-3.52241e-17
-3.52374e-17
-3.51791e-17
-3.51648e-17
-3.521e-17
-3.52212e-17
-3.55025e-17
-3.54051e-17
-3.55409e-17
-3.5385e-17
-3.54116e-17
-3.5471e-17
-3.53372e-17
-3.54206e-17
-3.55693e-17
-3.54358e-17
-3.57737e-17
-3.56075e-17
-3.5868e-17
-3.53825e-17
-3.53582e-17
-3.52971e-17
-3.51138e-17
-3.51764e-17
-3.53431e-17
-3.52503e-17
-3.53272e-17
-3.53808e-17
-3.54267e-17
-3.50956e-17
-3.51224e-17
-3.51849e-17
-3.522e-17
-3.52484e-17
-3.51388e-17
-3.53349e-17
-3.52094e-17
-3.52208e-17
-3.54151e-17
-3.5425e-17
-3.5504e-17
-3.53764e-17
-3.54116e-17
-3.5546e-17
-3.54514e-17
-3.5414e-17
-3.56103e-17
-3.54915e-17
-3.58103e-17
-3.56142e-17
-3.57011e-17
-3.52122e-17
-3.52734e-17
-3.52661e-17
-3.53543e-17
-3.53313e-17
-3.52141e-17
-3.50619e-17
-3.53466e-17
-3.52278e-17
-3.52745e-17
-3.52077e-17
-3.49041e-17
-3.52856e-17
-3.5268e-17
-3.52692e-17
-3.53707e-17
-3.53677e-17
-3.53214e-17
-3.51365e-17
-3.53983e-17
-3.53153e-17
-3.53963e-17
-3.54081e-17
-3.54038e-17
-3.55306e-17
-3.55751e-17
-3.54418e-17
-3.54282e-17
-3.54752e-17
-3.56411e-17
-3.53714e-17
-3.57166e-17
-3.51077e-17
-3.49433e-17
-3.53031e-17
-3.55714e-17
-3.54705e-17
-3.52245e-17
-3.52164e-17
-3.52877e-17
-3.5077e-17
-3.52292e-17
-3.53383e-17
-3.49798e-17
-3.5329e-17
-3.52804e-17
-3.52646e-17
-3.52825e-17
-3.54537e-17
-3.53561e-17
-3.5242e-17
-3.53921e-17
-3.52311e-17
-3.5417e-17
-3.54399e-17
-3.54376e-17
-3.56247e-17
-3.55202e-17
-3.54423e-17
-3.54522e-17
-3.54499e-17
-3.53583e-17
-3.53268e-17
-3.55999e-17
-3.51112e-17
-3.50308e-17
-3.5147e-17
-3.56603e-17
-3.52113e-17
-3.53231e-17
-3.52523e-17
-3.54106e-17
-3.50255e-17
-3.53696e-17
-3.53433e-17
-3.52393e-17
-3.52478e-17
-3.52048e-17
-3.51721e-17
-3.53177e-17
-3.53738e-17
-3.54082e-17
-3.51761e-17
-3.54258e-17
-3.54228e-17
-3.53832e-17
-3.52399e-17
-3.55061e-17
-3.56218e-17
-3.54981e-17
-3.54366e-17
-3.55097e-17
-3.54152e-17
-3.55576e-17
-3.53933e-17
-3.5598e-17
-3.51242e-17
-3.54208e-17
-3.52258e-17
-3.52899e-17
-3.50515e-17
-3.5554e-17
-3.53205e-17
-3.528e-17
-3.51471e-17
-3.54461e-17
-3.5314e-17
-3.53566e-17
-3.52235e-17
-3.52505e-17
-3.53107e-17
-3.53962e-17
-3.5345e-17
-3.54641e-17
-3.49565e-17
-3.54602e-17
-3.54012e-17
-3.53743e-17
-3.51931e-17
-3.54197e-17
-3.55205e-17
-3.53395e-17
-3.54214e-17
-3.55627e-17
-3.52476e-17
-3.55147e-17
-3.53499e-17
-3.56203e-17
-3.5213e-17
-3.53362e-17
-3.52679e-17
-3.52941e-17
-3.53213e-17
-3.5451e-17
-3.54289e-17
-3.55684e-17
-3.53073e-17
-3.51767e-17
-3.54344e-17
-3.55774e-17
-3.5107e-17
-3.53929e-17
-3.54587e-17
-3.52858e-17
-3.53025e-17
-3.53336e-17
-3.51332e-17
-3.53957e-17
-3.54286e-17
-3.53587e-17
-3.53047e-17
-3.53737e-17
-3.55384e-17
-3.53107e-17
-3.54016e-17
-3.54272e-17
-3.51009e-17
-3.53799e-17
-3.53262e-17
-3.53717e-17
-3.52676e-17
-3.53145e-17
-3.52842e-17
-3.53309e-17
-3.52571e-17
-3.53562e-17
-3.52571e-17
-3.53275e-17
-3.53319e-17
-3.51778e-17
-3.53742e-17
-3.54261e-17
-3.53307e-17
-3.54541e-17
-3.54103e-17
-3.51749e-17
-3.53547e-17
-3.51102e-17
-3.53487e-17
-3.54563e-17
-3.53345e-17
-3.53407e-17
-3.53424e-17
-3.52449e-17
-3.53842e-17
-3.52215e-17
-3.5385e-17
-3.53065e-17
-3.53264e-17
-3.54442e-17
-3.53121e-17
-3.51558e-17
-3.52572e-17
-3.52962e-17
-3.52666e-17
-3.53057e-17
-3.52564e-17
-3.5327e-17
-3.51839e-17
-3.52696e-17
-3.53037e-17
-3.52642e-17
-3.52848e-17
-3.54616e-17
-3.53333e-17
-3.53672e-17
-3.51932e-17
-3.5259e-17
-3.54969e-17
-3.51513e-17
-3.522e-17
-3.53953e-17
-3.53053e-17
-3.53613e-17
-3.53305e-17
-3.50513e-17
-3.52377e-17
-3.52612e-17
-3.53634e-17
-3.54075e-17
-3.54637e-17
-3.54492e-17
-3.53991e-17
-3.53528e-17
-3.52721e-17
-3.52783e-17
-3.5278e-17
-3.52942e-17
-3.52738e-17
-3.53057e-17
-3.5273e-17
-3.52639e-17
-3.52555e-17
-3.5287e-17
-3.52956e-17
-3.52898e-17
-3.53837e-17
-3.52472e-17
-3.52501e-17
-3.52158e-17
-3.5491e-17
-3.53008e-17
-3.5305e-17
-3.54893e-17
-3.52278e-17
-3.54271e-17
-3.53534e-17
-3.53886e-17
-3.53391e-17
-3.51965e-17
-3.5345e-17
-3.55096e-17
-3.55861e-17
-3.54165e-17
-3.54256e-17
-3.5334e-17
-3.5269e-17
-3.52856e-17
-3.52753e-17
-3.52898e-17
-3.52886e-17
-3.52799e-17
-3.5297e-17
-3.52668e-17
-3.52575e-17
-3.52775e-17
-3.52969e-17
-3.52662e-17
-3.53316e-17
-3.51948e-17
-3.53449e-17
-3.52473e-17
-3.53711e-17
-3.53179e-17
-3.53489e-17
-3.54429e-17
-3.51216e-17
-3.53421e-17
-3.54731e-17
-3.53714e-17
-3.54342e-17
-3.53201e-17
-3.53457e-17
-3.5393e-17
-3.55147e-17
-3.53458e-17
-3.53058e-17
-3.52441e-17
-3.527e-17
-3.52855e-17
-3.52705e-17
-3.52814e-17
-3.52706e-17
-3.52813e-17
-3.52863e-17
-3.52645e-17
-3.52525e-17
-3.52588e-17
-3.52734e-17
-3.5278e-17
-3.52602e-17
-3.5276e-17
-3.53511e-17
-3.53057e-17
-3.53562e-17
-3.53248e-17
-3.52954e-17
-3.5355e-17
-3.53337e-17
-3.53234e-17
-3.54316e-17
-3.53393e-17
-3.53441e-17
-3.54151e-17
-3.53829e-17
-3.53448e-17
-3.53592e-17
-3.52929e-17
-3.52924e-17
-3.52297e-17
-3.52715e-17
-3.52796e-17
-3.52706e-17
-3.52816e-17
-3.5268e-17
-3.52804e-17
-3.52764e-17
-3.52794e-17
-3.52731e-17
-3.52747e-17
-3.52872e-17
-3.52882e-17
-3.52903e-17
-3.53008e-17
-3.53246e-17
-3.53171e-17
-3.53167e-17
-3.53549e-17
-3.53257e-17
-3.53619e-17
-3.53434e-17
-3.53352e-17
-3.53474e-17
-3.53389e-17
-3.53053e-17
-3.53574e-17
-3.5404e-17
-3.53364e-17
-3.53293e-17
-3.53293e-17
-3.53102e-17
-3.53188e-17
-3.52704e-17
-3.52817e-17
-3.52792e-17
-3.52831e-17
-3.52797e-17
-3.52864e-17
-3.52807e-17
-3.52832e-17
-3.52817e-17
-3.52824e-17
-3.52966e-17
-3.52908e-17
-3.53e-17
-3.53028e-17
-3.53189e-17
-3.53193e-17
-3.53281e-17
-3.53376e-17
-3.5326e-17
-3.53355e-17
-3.53332e-17
-3.53525e-17
-3.5321e-17
-3.53463e-17
-3.53252e-17
-3.53367e-17
-3.53162e-17
-3.53207e-17
-3.53581e-17
-3.53356e-17
-3.53336e-17
-3.53428e-17
-3.52723e-17
-3.52761e-17
-3.52746e-17
-3.5279e-17
-3.52766e-17
-3.52847e-17
-3.52835e-17
-3.52812e-17
-3.52828e-17
-3.52857e-17
-3.52934e-17
-3.5295e-17
-3.53032e-17
-3.53016e-17
-3.53128e-17
-3.53277e-17
-3.53413e-17
-3.53274e-17
-3.53411e-17
-3.53329e-17
-3.533e-17
-3.53442e-17
-3.53271e-17
-3.533e-17
-3.53321e-17
-3.53345e-17
-3.53354e-17
-3.53297e-17
-3.53337e-17
-3.53337e-17
-3.5333e-17
-3.53282e-17
-3.5274e-17
-3.52766e-17
-3.52722e-17
-3.52764e-17
-3.52766e-17
-3.52776e-17
-3.52839e-17
-3.52825e-17
-3.52838e-17
-3.52841e-17
-3.52907e-17
-3.5294e-17
-3.53069e-17
-3.53057e-17
-3.53126e-17
-3.53193e-17
-3.53322e-17
-3.53254e-17
-3.53403e-17
-3.53306e-17
-3.534e-17
-3.53369e-17
-3.53307e-17
-3.53314e-17
-3.53323e-17
-3.53366e-17
-3.53365e-17
-3.53274e-17
-3.53371e-17
-3.53371e-17
-3.53302e-17
-3.52756e-17
-3.52775e-17
-3.52684e-17
-3.52774e-17
-3.52766e-17
-3.52772e-17
-3.52812e-17
-3.52803e-17
-3.52815e-17
-3.52857e-17
-3.52938e-17
-3.52915e-17
-3.53053e-17
-3.53048e-17
-3.53101e-17
-3.53167e-17
-3.53277e-17
-3.53318e-17
-3.5336e-17
-3.53275e-17
-3.53386e-17
-3.53358e-17
-3.53351e-17
-3.53328e-17
-3.53323e-17
-3.53424e-17
-3.53344e-17
-3.53267e-17
-3.53338e-17
-3.53337e-17
-3.53262e-17
-3.52749e-17
-3.52766e-17
-3.5275e-17
-3.52766e-17
-3.52742e-17
-3.52789e-17
-3.52843e-17
-3.52781e-17
-3.52824e-17
-3.5286e-17
-3.52951e-17
-3.52964e-17
-3.53009e-17
-3.53025e-17
-3.53121e-17
-3.5315e-17
-3.53246e-17
-3.53278e-17
-3.53335e-17
-3.53294e-17
-3.53367e-17
-3.53358e-17
-3.53394e-17
-3.53317e-17
-3.5333e-17
-3.53373e-17
-3.53347e-17
-3.53288e-17
-3.53356e-17
-3.5333e-17
-3.52783e-17
-3.5271e-17
-3.52814e-17
-3.5275e-17
-3.52738e-17
-3.52805e-17
-3.52813e-17
-3.52777e-17
-3.52822e-17
-3.52882e-17
-3.52944e-17
-3.52943e-17
-3.53024e-17
-3.53043e-17
-3.53133e-17
-3.53154e-17
-3.53242e-17
-3.53249e-17
-3.53349e-17
-3.53307e-17
-3.53374e-17
-3.53345e-17
-3.53386e-17
-3.53304e-17
-3.53358e-17
-3.53316e-17
-3.53363e-17
-3.53315e-17
-3.53298e-17
-3.53279e-17
-3.52748e-17
-3.52706e-17
-3.52756e-17
-3.52733e-17
-3.5271e-17
-3.52791e-17
-3.52807e-17
-3.52782e-17
-3.52809e-17
-3.52861e-17
-3.52951e-17
-3.5293e-17
-3.53018e-17
-3.53026e-17
-3.53126e-17
-3.53154e-17
-3.53252e-17
-3.53261e-17
-3.53356e-17
-3.53293e-17
-3.53385e-17
-3.53318e-17
-3.53393e-17
-3.53307e-17
-3.53345e-17
-3.533e-17
-3.53327e-17
-3.5324e-17
-3.53263e-17
-3.53239e-17
-3.52721e-17
-3.52751e-17
-3.52711e-17
-3.52747e-17
-3.52731e-17
-3.52779e-17
-3.5277e-17
-3.52763e-17
-3.52806e-17
-3.5286e-17
-3.52919e-17
-3.52946e-17
-3.53037e-17
-3.53027e-17
-3.53132e-17
-3.53174e-17
-3.53254e-17
-3.5327e-17
-3.53381e-17
-3.53307e-17
-3.53369e-17
-3.5333e-17
-3.53385e-17
-3.53305e-17
-3.53335e-17
-3.53292e-17
-3.53307e-17
-3.5325e-17
-3.53264e-17
-3.53208e-17
-3.5272e-17
-3.52732e-17
-3.52707e-17
-3.52742e-17
-3.5276e-17
-3.5277e-17
-3.52745e-17
-3.52784e-17
-3.52792e-17
-3.52879e-17
-3.52879e-17
-3.52938e-17
-3.5306e-17
-3.53034e-17
-3.53119e-17
-3.53149e-17
-3.53237e-17
-3.53264e-17
-3.53337e-17
-3.53304e-17
-3.53368e-17
-3.53316e-17
-3.5336e-17
-3.53299e-17
-3.5334e-17
-3.53283e-17
-3.533e-17
-3.53257e-17
-3.53267e-17
-3.53196e-17
-3.52699e-17
-3.52729e-17
-3.5273e-17
-3.52748e-17
-3.52754e-17
-3.52753e-17
-3.52748e-17
-3.52786e-17
-3.52817e-17
-3.52892e-17
-3.5293e-17
-3.52918e-17
-3.52993e-17
-3.53059e-17
-3.53097e-17
-3.53154e-17
-3.53265e-17
-3.53267e-17
-3.53319e-17
-3.53308e-17
-3.53372e-17
-3.53331e-17
-3.53351e-17
-3.53289e-17
-3.53337e-17
-3.5327e-17
-3.53297e-17
-3.5324e-17
-3.53232e-17
-3.5321e-17
-3.52746e-17
-3.52722e-17
-3.52733e-17
-3.5273e-17
-3.52778e-17
-3.52741e-17
-3.5275e-17
-3.52808e-17
-3.5281e-17
-3.52864e-17
-3.52931e-17
-3.52946e-17
-3.53021e-17
-3.53053e-17
-3.53106e-17
-3.53157e-17
-3.53255e-17
-3.53258e-17
-3.53314e-17
-3.53299e-17
-3.53379e-17
-3.53344e-17
-3.53365e-17
-3.53276e-17
-3.53308e-17
-3.53245e-17
-3.53254e-17
-3.53233e-17
-3.53197e-17
-3.53189e-17
-3.52704e-17
-3.52733e-17
-3.52693e-17
-3.52719e-17
-3.52799e-17
-3.52772e-17
-3.52771e-17
-3.52812e-17
-3.52822e-17
-3.52866e-17
-3.52944e-17
-3.52961e-17
-3.53079e-17
-3.53057e-17
-3.53105e-17
-3.53148e-17
-3.53268e-17
-3.53247e-17
-3.53302e-17
-3.53287e-17
-3.53379e-17
-3.53323e-17
-3.53373e-17
-3.53279e-17
-3.53292e-17
-3.53217e-17
-3.53234e-17
-3.53227e-17
-3.53162e-17
-3.53164e-17
-3.527e-17
-3.52708e-17
-3.52719e-17
-3.52755e-17
-3.52795e-17
-3.52763e-17
-3.52785e-17
-3.52802e-17
-3.52813e-17
-3.52868e-17
-3.52939e-17
-3.52973e-17
-3.53072e-17
-3.53048e-17
-3.53135e-17
-3.53167e-17
-3.53266e-17
-3.53255e-17
-3.53321e-17
-3.53282e-17
-3.53385e-17
-3.5331e-17
-3.53335e-17
-3.53248e-17
-3.5329e-17
-3.53217e-17
-3.53235e-17
-3.53222e-17
-3.53166e-17
-3.53176e-17
-3.52724e-17
-3.5274e-17
-3.52738e-17
-3.52758e-17
-3.52806e-17
-3.52781e-17
-3.52803e-17
-3.52802e-17
-3.52841e-17
-3.52868e-17
-3.52925e-17
-3.52945e-17
-3.5303e-17
-3.53056e-17
-3.53136e-17
-3.53184e-17
-3.53258e-17
-3.53249e-17
-3.53324e-17
-3.53302e-17
-3.53376e-17
-3.53304e-17
-3.53301e-17
-3.53254e-17
-3.53291e-17
-3.53205e-17
-3.53228e-17
-3.53199e-17
-3.53157e-17
-3.53145e-17
-3.52737e-17
-3.52744e-17
-3.5273e-17
-3.52769e-17
-3.52774e-17
-3.52774e-17
-3.52799e-17
-3.52825e-17
-3.52878e-17
-3.52864e-17
-3.52908e-17
-3.52962e-17
-3.53028e-17
-3.53062e-17
-3.53147e-17
-3.5317e-17
-3.53262e-17
-3.53251e-17
-3.53311e-17
-3.53299e-17
-3.53353e-17
-3.53305e-17
-3.53308e-17
-3.53237e-17
-3.53267e-17
-3.53218e-17
-3.53222e-17
-3.53187e-17
-3.53138e-17
-3.53139e-17
-3.52729e-17
-3.52717e-17
-3.52729e-17
-3.52759e-17
-3.52778e-17
-3.52777e-17
-3.52786e-17
-3.528e-17
-3.52889e-17
-3.52858e-17
-3.52918e-17
-3.52965e-17
-3.53046e-17
-3.53066e-17
-3.53141e-17
-3.53165e-17
-3.53268e-17
-3.53242e-17
-3.53309e-17
-3.53285e-17
-3.53333e-17
-3.53305e-17
-3.53298e-17
-3.53256e-17
-3.53256e-17
-3.53182e-17
-3.53198e-17
-3.53175e-17
-3.53128e-17
-3.53128e-17
-3.52714e-17
-3.52722e-17
-3.52696e-17
-3.52731e-17
-3.52783e-17
-3.52779e-17
-3.52754e-17
-3.52805e-17
-3.52898e-17
-3.52887e-17
-3.52916e-17
-3.52962e-17
-3.53034e-17
-3.53055e-17
-3.53114e-17
-3.53157e-17
-3.53269e-17
-3.5323e-17
-3.5331e-17
-3.53297e-17
-3.53325e-17
-3.53314e-17
-3.5328e-17
-3.53236e-17
-3.53265e-17
-3.53181e-17
-3.53176e-17
-3.53155e-17
-3.53126e-17
-3.53095e-17
-3.52718e-17
-3.52705e-17
-3.52711e-17
-3.52777e-17
-3.5278e-17
-3.52746e-17
-3.52771e-17
-3.52813e-17
-3.52882e-17
-3.52882e-17
-3.52922e-17
-3.52963e-17
-3.5304e-17
-3.53075e-17
-3.53151e-17
-3.53157e-17
-3.53283e-17
-3.53251e-17
-3.53305e-17
-3.5328e-17
-3.53309e-17
-3.53296e-17
-3.53281e-17
-3.53242e-17
-3.53278e-17
-3.53188e-17
-3.53145e-17
-3.53145e-17
-3.53088e-17
-3.53056e-17
-3.52693e-17
-3.52752e-17
-3.52707e-17
-3.52768e-17
-3.528e-17
-3.52751e-17
-3.5279e-17
-3.52817e-17
-3.52878e-17
-3.52868e-17
-3.52945e-17
-3.52995e-17
-3.53022e-17
-3.53089e-17
-3.53149e-17
-3.53162e-17
-3.53238e-17
-3.53252e-17
-3.53337e-17
-3.5328e-17
-3.53303e-17
-3.53268e-17
-3.53273e-17
-3.53246e-17
-3.53257e-17
-3.53166e-17
-3.53141e-17
-3.53155e-17
-3.53085e-17
-3.53041e-17
-3.52664e-17
-3.52729e-17
-3.52696e-17
-3.5276e-17
-3.52783e-17
-3.52742e-17
-3.52848e-17
-3.52819e-17
-3.52879e-17
-3.52843e-17
-3.52938e-17
-3.53017e-17
-3.53033e-17
-3.53081e-17
-3.53144e-17
-3.53175e-17
-3.53222e-17
-3.53247e-17
-3.53347e-17
-3.53283e-17
-3.53299e-17
-3.53281e-17
-3.5328e-17
-3.53218e-17
-3.53226e-17
-3.53147e-17
-3.5315e-17
-3.53144e-17
-3.53073e-17
-3.53015e-17
-3.52707e-17
-3.52734e-17
-3.52713e-17
-3.52757e-17
-3.52798e-17
-3.528e-17
-3.52867e-17
-3.52816e-17
-3.52921e-17
-3.52841e-17
-3.52936e-17
-3.52973e-17
-3.5303e-17
-3.53085e-17
-3.53131e-17
-3.53169e-17
-3.5325e-17
-3.53235e-17
-3.53307e-17
-3.53283e-17
-3.53309e-17
-3.53267e-17
-3.5328e-17
-3.53214e-17
-3.5321e-17
-3.53162e-17
-3.53146e-17
-3.53122e-17
-3.53057e-17
-3.53019e-17
-3.52705e-17
-3.5274e-17
-3.52724e-17
-3.52751e-17
-3.52853e-17
-3.52774e-17
-3.52851e-17
-3.52792e-17
-3.529e-17
-3.5284e-17
-3.52973e-17
-3.52962e-17
-3.53053e-17
-3.53078e-17
-3.53106e-17
-3.53142e-17
-3.53246e-17
-3.53243e-17
-3.53292e-17
-3.53291e-17
-3.53286e-17
-3.53247e-17
-3.53281e-17
-3.5321e-17
-3.53201e-17
-3.53145e-17
-3.53137e-17
-3.53119e-17
-3.53044e-17
-3.53022e-17
-3.52696e-17
-3.52734e-17
-3.52741e-17
-3.52758e-17
-3.52839e-17
-3.5277e-17
-3.52837e-17
-3.52774e-17
-3.52899e-17
-3.5285e-17
-3.52947e-17
-3.52957e-17
-3.53076e-17
-3.53057e-17
-3.53119e-17
-3.53155e-17
-3.53244e-17
-3.53267e-17
-3.533e-17
-3.53274e-17
-3.5326e-17
-3.53243e-17
-3.53255e-17
-3.53199e-17
-3.53192e-17
-3.53128e-17
-3.53133e-17
-3.53096e-17
-3.53027e-17
-3.52999e-17
-3.52717e-17
-3.52718e-17
-3.52758e-17
-3.52753e-17
-3.52817e-17
-3.52755e-17
-3.52843e-17
-3.52812e-17
-3.52886e-17
-3.52846e-17
-3.52959e-17
-3.52938e-17
-3.53042e-17
-3.53056e-17
-3.53152e-17
-3.53179e-17
-3.53252e-17
-3.53261e-17
-3.5328e-17
-3.53269e-17
-3.53252e-17
-3.53246e-17
-3.53227e-17
-3.53193e-17
-3.5319e-17
-3.53114e-17
-3.53135e-17
-3.53078e-17
-3.53038e-17
-3.52984e-17
-3.52714e-17
-3.52736e-17
-3.52772e-17
-3.52766e-17
-3.52809e-17
-3.52749e-17
-3.52855e-17
-3.52835e-17
-3.52867e-17
-3.52815e-17
-3.52942e-17
-3.52937e-17
-3.53045e-17
-3.53102e-17
-3.53138e-17
-3.53178e-17
-3.53258e-17
-3.53247e-17
-3.53289e-17
-3.5328e-17
-3.53255e-17
-3.53225e-17
-3.53224e-17
-3.53189e-17
-3.53197e-17
-3.5313e-17
-3.53121e-17
-3.5306e-17
-3.53024e-17
-3.52969e-17
-3.52711e-17
-3.52734e-17
-3.52764e-17
-3.52774e-17
-3.52815e-17
-3.5277e-17
-3.52819e-17
-3.52838e-17
-3.52878e-17
-3.52842e-17
-3.52929e-17
-3.52953e-17
-3.53054e-17
-3.53083e-17
-3.53144e-17
-3.53159e-17
-3.53249e-17
-3.53236e-17
-3.53327e-17
-3.53268e-17
-3.53238e-17
-3.53209e-17
-3.53234e-17
-3.53189e-17
-3.53189e-17
-3.53117e-17
-3.53117e-17
-3.53062e-17
-3.53007e-17
-3.52944e-17
-3.52763e-17
-3.52751e-17
-3.52855e-17
-3.52771e-17
-3.52848e-17
-3.52863e-17
-3.52916e-17
-3.52879e-17
-3.52916e-17
-3.52956e-17
-3.53063e-17
-3.53069e-17
-3.53249e-17
-3.53179e-17
-3.53234e-17
-3.5316e-17
-3.53168e-17
-3.53099e-17
-3.53095e-17
-3.53053e-17
-3.52995e-17
-3.52949e-17
-3.51515e-17
-3.51756e-17
-3.51816e-17
-3.52153e-17
-3.53164e-17
-3.51621e-17
-3.52543e-17
-3.53408e-17
-3.50837e-17
-3.54276e-17
-3.49577e-17
-3.5124e-17
-3.50827e-17
-3.52789e-17
-3.5073e-17
-3.50845e-17
-3.52438e-17
-3.53724e-17
-3.52126e-17
-3.52049e-17
-3.53723e-17
-3.52197e-17
-3.51504e-17
-3.52997e-17
-3.51262e-17
-3.53297e-17
-3.51728e-17
-3.54494e-17
-3.5351e-17
-3.53297e-17
-3.55163e-17
-3.51785e-17
-3.51932e-17
-3.51002e-17
-3.52034e-17
-3.53517e-17
-3.55915e-17
-3.51827e-17
-3.51388e-17
-3.53412e-17
-3.55406e-17
-3.51049e-17
-3.53344e-17
-3.55804e-17
-3.51698e-17
-3.53401e-17
-3.52875e-17
-3.51487e-17
-3.53959e-17
-3.54969e-17
-3.53232e-17
-3.51216e-17
-3.51894e-17
-3.53983e-17
-3.54305e-17
-3.52522e-17
-3.50574e-17
-3.50989e-17
-3.53625e-17
-3.51237e-17
-3.4979e-17
-3.52123e-17
-3.53579e-17
-3.51391e-17
-3.52581e-17
-3.52839e-17
-3.53027e-17
-3.51075e-17
-3.5069e-17
-3.50891e-17
-3.52626e-17
-3.51755e-17
-3.51641e-17
-3.51882e-17
-3.52231e-17
-3.52807e-17
-3.52236e-17
-3.53457e-17
-3.5534e-17
-3.53696e-17
-3.51608e-17
-3.51403e-17
-3.51853e-17
-3.53016e-17
-3.53608e-17
-3.52677e-17
-3.56464e-17
-3.51201e-17
-3.52515e-17
-3.51569e-17
-3.53516e-17
-3.48074e-17
-3.50578e-17
-3.53085e-17
-3.5123e-17
-3.50945e-17
-3.53386e-17
-3.54148e-17
-3.50284e-17
-3.50454e-17
-3.52856e-17
-3.52114e-17
-3.53264e-17
-3.53123e-17
-3.52622e-17
-3.52078e-17
-3.52764e-17
-3.55294e-17
-3.52938e-17
-3.52681e-17
-3.5203e-17
-3.49994e-17
-3.55184e-17
-3.54283e-17
-3.52315e-17
-3.526e-17
-3.53082e-17
-3.54171e-17
-3.5183e-17
-3.53978e-17
-3.55744e-17
-3.55405e-17
-3.52779e-17
-3.52601e-17
-3.53355e-17
-3.57632e-17
-3.5226e-17
-3.51447e-17
-3.54338e-17
-3.51313e-17
-3.51707e-17
-3.50332e-17
-3.54153e-17
-3.51591e-17
-3.5075e-17
-3.50559e-17
-3.52021e-17
-3.53406e-17
-3.50795e-17
-3.51031e-17
-3.50953e-17
-3.50953e-17
-3.53252e-17
-3.52968e-17
-3.56425e-17
-3.52788e-17
-3.5357e-17
-3.54414e-17
-3.54225e-17
-3.53203e-17
-3.50943e-17
-3.52362e-17
-3.55503e-17
-3.53934e-17
-3.53156e-17
-3.51731e-17
-3.52917e-17
-3.52178e-17
-3.53607e-17
-3.55503e-17
-3.58645e-17
-3.58383e-17
-3.5391e-17
-3.53649e-17
-3.543e-17
-3.54585e-17
-3.52894e-17
-3.54257e-17
-3.53747e-17
-3.50991e-17
-3.51103e-17
-3.50803e-17
-3.50005e-17
-3.52838e-17
-3.51122e-17
-3.49346e-17
-3.5098e-17
-3.51329e-17
-3.53091e-17
-3.50093e-17
-3.51197e-17
-3.49076e-17
-3.51735e-17
-3.55468e-17
-3.5361e-17
-3.56367e-17
-3.5282e-17
-3.5404e-17
-3.55435e-17
-3.53516e-17
-3.54491e-17
-3.51355e-17
-3.53035e-17
-3.52858e-17
-3.53426e-17
-3.53941e-17
-3.51591e-17
-3.53501e-17
-3.52593e-17
-3.55283e-17
-3.54453e-17
-3.56217e-17
-3.56094e-17
-3.55388e-17
-3.54761e-17
-3.53437e-17
-3.52425e-17
-3.52775e-17
-3.54868e-17
-3.57385e-17
-3.49059e-17
-3.50435e-17
-3.51915e-17
-3.50486e-17
-3.49135e-17
-3.54132e-17
-3.5134e-17
-3.49246e-17
-3.51598e-17
-3.49849e-17
-3.5312e-17
-3.51247e-17
-3.51984e-17
-3.54811e-17
-3.52117e-17
-3.54109e-17
-3.55587e-17
-3.53341e-17
-3.51597e-17
-3.54966e-17
-3.49123e-17
-3.5295e-17
-3.54524e-17
-3.52491e-17
-3.53436e-17
-3.52802e-17
-3.5223e-17
-3.55064e-17
-3.53648e-17
-3.54126e-17
-3.51307e-17
-3.54001e-17
-3.53937e-17
-3.52828e-17
-3.53798e-17
-3.53724e-17
-3.55051e-17
-3.53107e-17
-3.51561e-17
-3.5302e-17
-3.55185e-17
-3.52449e-17
-3.52248e-17
-3.49369e-17
-3.50423e-17
-3.49602e-17
-3.50368e-17
-3.50111e-17
-3.51534e-17