/*--------------------------------*- C++ -*----------------------------------*\
  =========                 |
  \\      /  F ield         | OpenFOAM: The Open Source CFD Toolbox
   \\    /   O peration     | Website:  https://openfoam.org
    \\  /    A nd           | Version:  7
     \\/     M anipulation  |
\*---------------------------------------------------------------------------*/
FoamFile
{
    version     2.0;
    format      ascii;
    class       volScalarField;
    location    "112000";
    object      p;
}
// * * * * * * * * * * * * * * * * * * * * * * * * * * * * * * * * * * * * * //

dimensions      [0 2 -2 0 0 0 0];

internalField   nonuniform List<scalar> 
4783
(
-1.38156e-18
-1.39071e-18
-1.39581e-18
-1.42495e-18
-1.41077e-18
-1.42936e-18
-1.40438e-18
-1.39151e-18
-1.37774e-18
-1.42264e-18
-1.40957e-18
-1.40583e-18
-1.40469e-18
-1.39626e-18
-1.37802e-18
-1.38969e-18
-1.44523e-18
-1.44764e-18
-1.43132e-18
-1.45329e-18
-1.45294e-18
-1.40975e-18
-1.3901e-18
-1.40739e-18
-1.3772e-18
-1.39479e-18
-1.39798e-18
-1.42624e-18
-1.40777e-18
-1.40559e-18
-1.40438e-18
-1.40831e-18
-1.40142e-18
-1.4062e-18
-1.41248e-18
-1.40759e-18
-1.40368e-18
-1.4095e-18
-1.43928e-18
-1.39461e-18
-1.38168e-18
-1.39324e-18
-1.41851e-18
-1.42178e-18
-1.3661e-18
-1.3652e-18
-1.38273e-18
-1.3869e-18
-1.37573e-18
-1.39607e-18
-1.39872e-18
-1.41448e-18
-1.43374e-18
-1.42869e-18
-1.40058e-18
-1.39593e-18
-1.43167e-18
-1.41632e-18
-1.40825e-18
-1.39112e-18
-1.41378e-18
-1.40624e-18
-1.38483e-18
-1.40996e-18
-1.41806e-18
-1.42455e-18
-1.38771e-18
-1.38556e-18
-1.37004e-18
-1.37372e-18
-1.41004e-18
-1.37834e-18
-1.39427e-18
-1.40186e-18
-1.39784e-18
-1.37995e-18
-1.38346e-18
-1.425e-18
-1.42053e-18
-1.43378e-18
-1.41715e-18
-1.40744e-18
-1.41812e-18
-1.41464e-18
-1.39097e-18
-1.41839e-18
-1.42851e-18
-1.42516e-18
-1.38631e-18
-1.37792e-18
-1.41454e-18
-1.4007e-18
-1.40465e-18
-1.40163e-18
-1.40017e-18
-1.39465e-18
-1.36629e-18
-1.38934e-18
-1.40381e-18
-1.41398e-18
-1.40725e-18
-1.38786e-18
-1.41086e-18
-1.39942e-18
-1.43426e-18
-1.42381e-18
-1.41728e-18
-1.42382e-18
-1.46364e-18
-1.44434e-18
-1.38656e-18
-1.387e-18
-1.39962e-18
-1.39919e-18
-1.41892e-18
-1.41032e-18
-1.39874e-18
-1.40299e-18
-1.4003e-18
-1.38552e-18
-1.40668e-18
-1.41279e-18
-1.40013e-18
-1.36492e-18
-1.40581e-18
-1.41359e-18
-1.419e-18
-1.42347e-18
-1.43924e-18
-1.4211e-18
-1.43044e-18
-1.42511e-18
-1.37518e-18
-1.38647e-18
-1.38934e-18
-1.3773e-18
-1.39985e-18
-1.41276e-18
-1.38175e-18
-1.39805e-18
-1.41993e-18
-1.40516e-18
-1.41081e-18
-1.41311e-18
-1.38533e-18
-1.36729e-18
-1.41473e-18
-1.42662e-18
-1.41497e-18
-1.41445e-18
-1.41581e-18
-1.41783e-18
-1.43908e-18
-1.43584e-18
-1.39472e-18
-1.39601e-18
-1.3998e-18
-1.41029e-18
-1.39293e-18
-1.3845e-18
-1.39369e-18
-1.3788e-18
-1.37852e-18
-1.38661e-18
-1.41572e-18
-1.4285e-18
-1.39805e-18
-1.4073e-18
-1.43835e-18
-1.45163e-18
-1.40397e-18
-1.41146e-18
-1.39904e-18
-1.39338e-18
-1.39835e-18
-1.40741e-18
-1.41316e-18
-1.42352e-18
-1.41307e-18
-1.3972e-18
-1.38105e-18
-1.41944e-18
-1.42509e-18
-1.41841e-18
-1.40545e-18
-1.41485e-18
-1.40379e-18
-1.41084e-18
-1.42795e-18
-1.41493e-18
-1.40083e-18
-1.41725e-18
-1.41109e-18
-1.41647e-18
-1.41613e-18
-1.4e-18
-1.39893e-18
-1.41657e-18
-1.3983e-18
-1.42854e-18
-1.38095e-18
-1.39162e-18
-1.39614e-18
-1.41229e-18
-1.38545e-18
-1.40247e-18
-1.40479e-18
-1.384e-18
-1.36535e-18
-1.38761e-18
-1.41378e-18
-1.41228e-18
-1.40552e-18
-1.41587e-18
-1.42068e-18
-1.41525e-18
-1.4235e-18
-1.43587e-18
-1.42108e-18
-1.42529e-18
-1.39046e-18
-1.39419e-18
-1.38889e-18
-1.39423e-18
-1.39649e-18
-1.38395e-18
-1.36261e-18
-1.39534e-18
-1.40107e-18
-1.39627e-18
-1.38221e-18
-1.40283e-18
-1.4116e-18
-1.41306e-18
-1.39478e-18
-1.43084e-18
-1.45496e-18
-1.41582e-18
-1.41581e-18
-1.42095e-18
-1.40639e-18
-1.43681e-18
-1.40192e-18
-1.3777e-18
-1.38487e-18
-1.39153e-18
-1.41472e-18
-1.43225e-18
-1.41516e-18
-1.39753e-18
-1.40203e-18
-1.40544e-18
-1.40236e-18
-1.41365e-18
-1.43094e-18
-1.4303e-18
-1.40558e-18
-1.40272e-18
-1.44695e-18
-1.39895e-18
-1.40446e-18
-1.41656e-18
-1.40156e-18
-1.42365e-18
-1.37549e-18
-1.40146e-18
-1.39222e-18
-1.36387e-18
-1.39527e-18
-1.39927e-18
-1.40211e-18
-1.38022e-18
-1.39646e-18
-1.40127e-18
-1.40549e-18
-1.42498e-18
-1.43486e-18
-1.41646e-18
-1.40747e-18
-1.40784e-18
-1.4219e-18
-1.39995e-18
-1.43122e-18
-1.42226e-18
-1.41445e-18
-1.41264e-18
-1.38647e-18
-1.39285e-18
-1.40724e-18
-1.40334e-18
-1.40705e-18
-1.37947e-18
-1.3918e-18
-1.37616e-18
-1.38388e-18
-1.3869e-18
-1.39736e-18
-1.40937e-18
-1.42576e-18
-1.40652e-18
-1.39615e-18
-1.41362e-18
-1.4305e-18
-1.41083e-18
-1.42349e-18
-1.42241e-18
-1.42293e-18
-1.43432e-18
-1.39813e-18
-1.38949e-18
-1.38069e-18
-1.39471e-18
-1.39215e-18
-1.385e-18
-1.3767e-18
-1.39553e-18
-1.40823e-18
-1.39834e-18
-1.39019e-18
-1.40306e-18
-1.38852e-18
-1.39283e-18
-1.40704e-18
-1.41582e-18
-1.40748e-18
-1.39696e-18
-1.41995e-18
-1.41648e-18
-1.3868e-18
-1.39057e-18
-1.40997e-18
-1.39544e-18
-1.37264e-18
-1.35943e-18
-1.36108e-18
-1.39224e-18
-1.38707e-18
-1.4031e-18
-1.41324e-18
-1.39971e-18
-1.37282e-18
-1.39137e-18
-1.41461e-18
-1.42889e-18
-1.42683e-18
-1.40349e-18
-1.42748e-18
-1.38208e-18
-1.38592e-18
-1.38096e-18
-1.40182e-18
-1.37975e-18
-1.38433e-18
-1.39255e-18
-1.37718e-18
-1.38388e-18
-1.4e-18
-1.39339e-18
-1.39123e-18
-1.38351e-18
-1.40313e-18
-1.42727e-18
-1.41669e-18
-1.41793e-18
-1.387e-18
-1.38527e-18
-1.3774e-18
-1.39782e-18
-1.39154e-18
-1.39525e-18
-1.41464e-18
-1.3715e-18
-1.4077e-18
-1.40521e-18
-1.41682e-18
-1.41395e-18
-1.38916e-18
-1.40015e-18
-1.38798e-18
-1.38415e-18
-1.38047e-18
-1.37258e-18
-1.38713e-18
-1.39084e-18
-1.39927e-18
-1.38702e-18
-1.38802e-18
-1.40666e-18
-1.41747e-18
-1.40655e-18
-1.37978e-18
-1.37341e-18
-1.38541e-18
-1.38333e-18
-1.38683e-18
-1.38709e-18
-1.37955e-18
-1.38488e-18
-1.36965e-18
-1.41323e-18
-1.38059e-18
-1.36935e-18
-1.38897e-18
-1.38846e-18
-1.38901e-18
-1.39292e-18
-1.36804e-18
-1.37093e-18
-1.36936e-18
-1.39172e-18
-1.38165e-18
-1.38216e-18
-1.37795e-18
-1.38498e-18
-1.39712e-18
-1.39154e-18
-1.39199e-18
-1.38397e-18
-1.38004e-18
-1.38178e-18
-1.38561e-18
-1.37901e-18
-1.39358e-18
-1.40289e-18
-1.38525e-18
-1.38071e-18
-1.36936e-18
-1.38558e-18
-1.37455e-18
-1.38795e-18
-1.39443e-18
-1.38485e-18
-1.37309e-18
-1.38954e-18
-1.38498e-18
-1.37386e-18
-1.37302e-18
-1.37768e-18
-1.3824e-18
-1.3795e-18
-1.38406e-18
-1.36741e-18
-1.37749e-18
-1.39348e-18
-1.38559e-18
-1.36928e-18
-1.38174e-18
-1.38729e-18
-1.39563e-18
-1.37715e-18
-1.38258e-18
-1.38106e-18
-1.37827e-18
-1.3857e-18
-1.38378e-18
-1.37703e-18
-1.38476e-18
-1.38231e-18
-1.36791e-18
-1.38888e-18
-1.37401e-18
-1.35972e-18
-1.39894e-18
-1.38337e-18
-1.37209e-18
-1.37916e-18
-1.38313e-18
-1.37821e-18
-1.38037e-18
-1.3818e-18
-1.38014e-18
-1.37941e-18
-1.3795e-18
-1.38745e-18
-1.37909e-18
-1.37008e-18
-1.39593e-18
-1.36672e-18
-1.37296e-18
-1.39323e-18
-1.37759e-18
-1.37294e-18
-1.37738e-18
-1.38127e-18
-1.37214e-18
-1.37886e-18
-1.38597e-18
-1.37704e-18
-1.38699e-18
-1.37855e-18
-1.37016e-18
-1.39709e-18
-1.39114e-18
-1.41528e-18
-1.39293e-18
-1.39375e-18
-1.39801e-18
-1.40673e-18
-1.38605e-18
-1.36614e-18
-1.37956e-18
-1.38594e-18
-1.37278e-18
-1.3971e-18
-1.38288e-18
-1.37423e-18
-1.38311e-18
-1.38451e-18
-1.37573e-18
-1.36982e-18
-1.37918e-18
-1.3786e-18
-1.36663e-18
-1.37302e-18
-1.37054e-18
-1.35979e-18
-1.38239e-18
-1.39287e-18
-1.39371e-18
-1.3835e-18
-1.38091e-18
-1.38088e-18
-1.38874e-18
-1.39557e-18
-1.3845e-18
-1.38227e-18
-1.37688e-18
-1.36772e-18
-1.35708e-18
-1.35965e-18
-1.37552e-18
-1.37427e-18
-1.36637e-18
-1.39017e-18
-1.37547e-18
-1.41757e-18
-1.39531e-18
-1.40383e-18
-1.39138e-18
-1.39873e-18
-1.38602e-18
-1.35616e-18
-1.34934e-18
-1.38239e-18
-1.39744e-18
-1.37249e-18
-1.38091e-18
-1.38397e-18
-1.38145e-18
-1.38253e-18
-1.38058e-18
-1.37883e-18
-1.38759e-18
-1.39241e-18
-1.37918e-18
-1.37726e-18
-1.37629e-18
-1.37221e-18
-1.37692e-18
-1.37731e-18
-1.37462e-18
-1.37351e-18
-1.3716e-18
-1.37261e-18
-1.36796e-18
-1.3568e-18
-1.37756e-18
-1.37735e-18
-1.36803e-18
-1.37602e-18
-1.39061e-18
-1.37547e-18
-1.37032e-18
-1.36649e-18
-1.37438e-18
-1.38537e-18
-1.40857e-18
-1.39901e-18
-1.40845e-18
-1.36724e-18
-1.38164e-18
-1.38998e-18
-1.38201e-18
-1.3667e-18
-1.39637e-18
-1.38782e-18
-1.39032e-18
-1.38114e-18
-1.36423e-18
-1.38864e-18
-1.35912e-18
-1.38623e-18
-1.3909e-18
-1.38545e-18
-1.37929e-18
-1.38e-18
-1.38e-18
-1.37774e-18
-1.38756e-18
-1.38354e-18
-1.37506e-18
-1.36496e-18
-1.37043e-18
-1.37638e-18
-1.37614e-18
-1.37764e-18
-1.38581e-18
-1.37743e-18
-1.37579e-18
-1.37659e-18
-1.3789e-18
-1.38573e-18
-1.38087e-18
-1.37914e-18
-1.37873e-18
-1.37727e-18
-1.38724e-18
-1.35902e-18
-1.38991e-18
-1.39758e-18
-1.41301e-18
-1.38366e-18
-1.38726e-18
-1.40655e-18
-1.36981e-18
-1.38177e-18
-1.38884e-18
-1.38418e-18
-1.38472e-18
-1.4101e-18
-1.36729e-18
-1.37532e-18
-1.37363e-18
-1.36548e-18
-1.37068e-18
-1.39355e-18
-1.38055e-18
-1.3769e-18
-1.38405e-18
-1.37541e-18
-1.37421e-18
-1.37367e-18
-1.38101e-18
-1.37179e-18
-1.36234e-18
-1.37638e-18
-1.37281e-18
-1.37667e-18
-1.38023e-18
-1.3827e-18
-1.3686e-18
-1.36602e-18
-1.3615e-18
-1.35911e-18
-1.34816e-18
-1.36338e-18
-1.37183e-18
-1.37546e-18
-1.36429e-18
-1.37668e-18
-1.3909e-18
-1.41294e-18
-1.37853e-18
-1.38012e-18
-1.36503e-18
-1.3842e-18
-1.38977e-18
-1.39995e-18
-1.38461e-18
-1.38412e-18
-1.36305e-18
-1.38128e-18
-1.36633e-18
-1.37943e-18
-1.39796e-18
-1.39077e-18
-1.37677e-18
-1.37912e-18
-1.37803e-18
-1.37522e-18
-1.37811e-18
-1.38364e-18
-1.38498e-18
-1.37181e-18
-1.36923e-18
-1.37779e-18
-1.3785e-18
-1.37353e-18
-1.3767e-18
-1.37811e-18
-1.38113e-18
-1.37311e-18
-1.36097e-18
-1.36709e-18
-1.36589e-18
-1.37032e-18
-1.37979e-18
-1.37708e-18
-1.38187e-18
-1.38037e-18
-1.37527e-18
-1.35972e-18
-1.3627e-18
-1.39206e-18
-1.40956e-18
-1.38662e-18
-1.37654e-18
-1.37152e-18
-1.40044e-18
-1.3631e-18
-1.36928e-18
-1.39574e-18
-1.34496e-18
-1.37513e-18
-1.39421e-18
-1.38714e-18
-1.41101e-18
-1.38547e-18
-1.37354e-18
-1.3742e-18
-1.37708e-18
-1.37164e-18
-1.36468e-18
-1.36788e-18
-1.3722e-18
-1.38123e-18
-1.37824e-18
-1.37417e-18
-1.36877e-18
-1.36626e-18
-1.35981e-18
-1.37137e-18
-1.36881e-18
-1.35634e-18
-1.35592e-18
-1.35953e-18
-1.36605e-18
-1.36421e-18
-1.35604e-18
-1.35761e-18
-1.36398e-18
-1.37391e-18
-1.36828e-18
-1.38507e-18
-1.38129e-18
-1.39289e-18
-1.39664e-18
-1.39179e-18
-1.39264e-18
-1.40632e-18
-1.39109e-18
-1.35724e-18
-1.39851e-18
-1.41785e-18
-1.36216e-18
-1.37407e-18
-1.38312e-18
-1.3971e-18
-1.40782e-18
-1.37747e-18
-1.35191e-18
-1.36654e-18
-1.38907e-18
-1.40572e-18
-1.37442e-18
-1.3605e-18
-1.37485e-18
-1.36246e-18
-1.35608e-18
-1.36392e-18
-1.36172e-18
-1.35062e-18
-1.35444e-18
-1.3716e-18
-1.37859e-18
-1.36374e-18
-1.37295e-18
-1.36841e-18
-1.36929e-18
-1.36878e-18
-1.37185e-18
-1.37532e-18
-1.37487e-18
-1.37359e-18
-1.38145e-18
-1.4053e-18
-1.3872e-18
-1.37757e-18
-1.3905e-18
-1.39761e-18
-1.3845e-18
-1.38828e-18
-1.40534e-18
-1.36432e-18
-1.38339e-18
-1.38563e-18
-1.38372e-18
-1.39822e-18
-1.40021e-18
-1.37891e-18
-1.38051e-18
-1.3946e-18
-1.39601e-18
-1.37989e-18
-1.3821e-18
-1.39629e-18
-1.37408e-18
-1.35748e-18
-1.3642e-18
-1.36185e-18
-1.35298e-18
-1.36335e-18
-1.36414e-18
-1.36382e-18
-1.35729e-18
-1.36296e-18
-1.36502e-18
-1.36285e-18
-1.35864e-18
-1.36246e-18
-1.36501e-18
-1.36538e-18
-1.36531e-18
-1.36924e-18
-1.35906e-18
-1.35822e-18
-1.35881e-18
-1.41729e-18
-1.38664e-18
-1.35785e-18
-1.39597e-18
-1.42522e-18
-1.39149e-18
-1.36625e-18
-1.4036e-18
-1.37797e-18
-1.37986e-18
-1.37968e-18
-1.37992e-18
-1.38346e-18
-1.39441e-18
-1.36599e-18
-1.38793e-18
-1.38845e-18
-1.36195e-18
-1.37926e-18
-1.397e-18
-1.39465e-18
-1.37586e-18
-1.37462e-18
-1.35433e-18
-1.34497e-18
-1.36154e-18
-1.36371e-18
-1.35671e-18
-1.36213e-18
-1.36306e-18
-1.36184e-18
-1.35778e-18
-1.3569e-18
-1.36159e-18
-1.36095e-18
-1.37309e-18
-1.36622e-18
-1.36582e-18
-1.37495e-18
-1.36661e-18
-1.37049e-18
-1.36704e-18
-1.37379e-18
-1.38239e-18
-1.3655e-18
-1.41373e-18
-1.40441e-18
-1.40448e-18
-1.38544e-18
-1.40017e-18
-1.36975e-18
-1.39959e-18
-1.38415e-18
-1.37433e-18
-1.37922e-18
-1.39032e-18
-1.37488e-18
-1.37211e-18
-1.37297e-18
-1.36526e-18
-1.36602e-18
-1.35831e-18
-1.36517e-18
-1.36422e-18
-1.36369e-18
-1.35594e-18
-1.36398e-18
-1.3619e-18
-1.36396e-18
-1.36301e-18
-1.36477e-18
-1.36531e-18
-1.36199e-18
-1.36338e-18
-1.36524e-18
-1.36328e-18
-1.36394e-18
-1.36578e-18
-1.37317e-18
-1.38697e-18
-1.38063e-18
-1.37557e-18
-1.36694e-18
-1.3584e-18
-1.38625e-18
-1.39629e-18
-1.39513e-18
-1.41027e-18
-1.38971e-18
-1.38797e-18
-1.38185e-18
-1.37466e-18
-1.38192e-18
-1.41981e-18
-1.40128e-18
-1.38067e-18
-1.37475e-18
-1.37973e-18
-1.38708e-18
-1.36218e-18
-1.3808e-18
-1.35355e-18
-1.3493e-18
-1.36043e-18
-1.3631e-18
-1.35776e-18
-1.36986e-18
-1.36873e-18
-1.37439e-18
-1.3538e-18
-1.34995e-18
-1.35696e-18
-1.36006e-18
-1.35903e-18
-1.35266e-18
-1.36429e-18
-1.36441e-18
-1.36676e-18
-1.36269e-18
-1.3567e-18
-1.36784e-18
-1.37234e-18
-1.36399e-18
-1.3407e-18
-1.34309e-18
-1.35936e-18
-1.39286e-18
-1.39575e-18
-1.4031e-18
-1.36872e-18
-1.37748e-18
-1.38278e-18
-1.38192e-18
-1.36212e-18
-1.37775e-18
-1.40043e-18
-1.38232e-18
-1.36962e-18
-1.356e-18
-1.36925e-18
-1.37417e-18
-1.3755e-18
-1.38098e-18
-1.35677e-18
-1.36049e-18
-1.35401e-18
-1.36196e-18
-1.36367e-18
-1.36127e-18
-1.36008e-18
-1.36057e-18
-1.35833e-18
-1.35666e-18
-1.3533e-18
-1.35885e-18
-1.36185e-18
-1.36886e-18
-1.36526e-18
-1.36535e-18
-1.37559e-18
-1.35998e-18
-1.35792e-18
-1.35688e-18
-1.35668e-18
-1.37878e-18
-1.38907e-18
-1.37829e-18
-1.37793e-18
-1.37277e-18
-1.39547e-18
-1.38784e-18
-1.37219e-18
-1.377e-18
-1.38791e-18
-1.39505e-18
-1.40965e-18
-1.39578e-18
-1.36199e-18
-1.37391e-18
-1.37416e-18
-1.35332e-18
-1.34697e-18
-1.35297e-18
-1.38983e-18
-1.40417e-18
-1.39188e-18
-1.38569e-18
-1.38065e-18
-1.36329e-18
-1.36559e-18
-1.37202e-18
-1.36284e-18
-1.35859e-18
-1.35547e-18
-1.34612e-18
-1.35581e-18
-1.36535e-18
-1.35755e-18
-1.34623e-18
-1.35195e-18
-1.34917e-18
-1.35613e-18
-1.35885e-18
-1.35798e-18
-1.3536e-18
-1.35849e-18
-1.36092e-18
-1.36425e-18
-1.3717e-18
-1.37391e-18
-1.36318e-18
-1.35514e-18
-1.35894e-18
-1.40239e-18
-1.39324e-18
-1.38422e-18
-1.36422e-18
-1.40984e-18
-1.43084e-18
-1.42802e-18
-1.38586e-18
-1.38112e-18
-1.37561e-18
-1.37245e-18
-1.35605e-18
-1.3673e-18
-1.37533e-18
-1.38827e-18
-1.38787e-18
-1.37312e-18
-1.37611e-18
-1.36118e-18
-1.33596e-18
-1.34891e-18
-1.34145e-18
-1.35772e-18
-1.36534e-18
-1.35055e-18
-1.34894e-18
-1.34092e-18
-1.35785e-18
-1.34798e-18
-1.34896e-18
-1.35925e-18
-1.36891e-18
-1.37029e-18
-1.36204e-18
-1.35935e-18
-1.35739e-18
-1.35834e-18
-1.36108e-18
-1.35919e-18
-1.35638e-18
-1.35622e-18
-1.36414e-18
-1.37345e-18
-1.38077e-18
-1.42517e-18
-1.39954e-18
-1.3951e-18
-1.38358e-18
-1.39095e-18
-1.38971e-18
-1.38208e-18
-1.36024e-18
-1.39599e-18
-1.38277e-18
-1.39278e-18
-1.38069e-18
-1.37703e-18
-1.38725e-18
-1.37162e-18
-1.36141e-18
-1.34416e-18
-1.34251e-18
-1.34451e-18
-1.35422e-18
-1.35665e-18
-1.35608e-18
-1.35591e-18
-1.34494e-18
-1.34555e-18
-1.3505e-18
-1.35458e-18
-1.35602e-18
-1.35763e-18
-1.33773e-18
-1.34211e-18
-1.33107e-18
-1.33166e-18
-1.34858e-18
-1.35537e-18
-1.35926e-18
-1.36255e-18
-1.3754e-18
-1.3633e-18
-1.35846e-18
-1.3669e-18
-1.36992e-18
-1.36758e-18
-1.36895e-18
-1.35894e-18
-1.4174e-18
-1.39628e-18
-1.41702e-18
-1.39357e-18
-1.40199e-18
-1.38585e-18
-1.37144e-18
-1.34518e-18
-1.37607e-18
-1.37543e-18
-1.35981e-18
-1.38471e-18
-1.37635e-18
-1.36999e-18
-1.36508e-18
-1.34786e-18
-1.3575e-18
-1.36057e-18
-1.36015e-18
-1.36024e-18
-1.36205e-18
-1.36981e-18
-1.36896e-18
-1.35504e-18
-1.34704e-18
-1.35321e-18
-1.35482e-18
-1.35418e-18
-1.35407e-18
-1.35377e-18
-1.35604e-18
-1.36593e-18
-1.34031e-18
-1.34321e-18
-1.3358e-18
-1.34679e-18
-1.35481e-18
-1.35196e-18
-1.35242e-18
-1.35367e-18
-1.34432e-18
-1.36232e-18
-1.35216e-18
-1.35548e-18
-1.36186e-18
-1.3603e-18
-1.36681e-18
-1.3921e-18
-1.38287e-18
-1.36797e-18
-1.38363e-18
-1.38508e-18
-1.3941e-18
-1.38284e-18
-1.37146e-18
-1.33578e-18
-1.34183e-18
-1.36514e-18
-1.35644e-18
-1.37804e-18
-1.35564e-18
-1.36337e-18
-1.37715e-18
-1.36706e-18
-1.37271e-18
-1.36282e-18
-1.3579e-18
-1.34781e-18
-1.34574e-18
-1.35772e-18
-1.34973e-18
-1.35199e-18
-1.35073e-18
-1.35019e-18
-1.34526e-18
-1.33354e-18
-1.34724e-18
-1.35007e-18
-1.35068e-18
-1.35101e-18
-1.35157e-18
-1.3503e-18
-1.35606e-18
-1.36964e-18
-1.35629e-18
-1.35362e-18
-1.35262e-18
-1.34154e-18
-1.35241e-18
-1.36556e-18
-1.3624e-18
-1.3577e-18
-1.41203e-18
-1.40011e-18
-1.39125e-18
-1.38004e-18
-1.37967e-18
-1.38711e-18
-1.39009e-18
-1.38178e-18
-1.37766e-18
-1.37576e-18
-1.39074e-18
-1.38759e-18
-1.37419e-18
-1.38788e-18
-1.3809e-18
-1.36772e-18
-1.35964e-18
-1.34754e-18
-1.35671e-18
-1.3606e-18
-1.37014e-18
-1.37466e-18
-1.37741e-18
-1.36684e-18
-1.37984e-18
-1.37554e-18
-1.35843e-18
-1.35211e-18
-1.35359e-18
-1.3569e-18
-1.36546e-18
-1.35622e-18
-1.34593e-18
-1.33406e-18
-1.3506e-18
-1.36662e-18
-1.35805e-18
-1.36516e-18
-1.35441e-18
-1.35133e-18
-1.34964e-18
-1.34211e-18
-1.34794e-18
-1.35289e-18
-1.34984e-18
-1.34949e-18
-1.37681e-18
-1.4264e-18
-1.42166e-18
-1.41622e-18
-1.38755e-18
-1.36533e-18
-1.38581e-18
-1.40344e-18
-1.38287e-18
-1.37191e-18
-1.37744e-18
-1.38665e-18
-1.35762e-18
-1.3635e-18
-1.3648e-18
-1.35369e-18
-1.35636e-18
-1.34381e-18
-1.34228e-18
-1.3435e-18
-1.34232e-18
-1.34393e-18
-1.35305e-18
-1.35466e-18
-1.35452e-18
-1.35458e-18
-1.35233e-18
-1.34973e-18
-1.34705e-18
-1.35134e-18
-1.36803e-18
-1.3729e-18
-1.37006e-18
-1.35261e-18
-1.33987e-18
-1.36469e-18
-1.37348e-18
-1.35963e-18
-1.36322e-18
-1.35192e-18
-1.3385e-18
-1.35371e-18
-1.36767e-18
-1.35267e-18
-1.35211e-18
-1.35295e-18
-1.35407e-18
-1.35999e-18
-1.41751e-18
-1.39955e-18
-1.39239e-18
-1.38069e-18
-1.38198e-18
-1.38571e-18
-1.40883e-18
-1.39985e-18
-1.36031e-18
-1.37409e-18
-1.37628e-18
-1.36727e-18
-1.36723e-18
-1.37076e-18
-1.37988e-18
-1.36676e-18
-1.36352e-18
-1.37525e-18
-1.36518e-18
-1.36674e-18
-1.34829e-18
-1.35281e-18
-1.3575e-18
-1.3649e-18
-1.33867e-18
-1.35162e-18
-1.36528e-18
-1.33941e-18
-1.34631e-18
-1.35247e-18
-1.33423e-18
-1.34229e-18
-1.34896e-18
-1.34789e-18
-1.34766e-18
-1.34413e-18
-1.33151e-18
-1.34224e-18
-1.34764e-18
-1.34665e-18
-1.34654e-18
-1.34383e-18
-1.33351e-18
-1.33873e-18
-1.33188e-18
-1.34256e-18
-1.36285e-18
-1.39451e-18
-1.39293e-18
-1.3818e-18
-1.34667e-18
-1.37497e-18
-1.36259e-18
-1.40457e-18
-1.40322e-18
-1.37906e-18
-1.39186e-18
-1.3947e-18
-1.37797e-18
-1.36615e-18
-1.36622e-18
-1.36767e-18
-1.3583e-18
-1.35015e-18
-1.36767e-18
-1.35961e-18
-1.35693e-18
-1.35077e-18
-1.3521e-18
-1.35254e-18
-1.3325e-18
-1.32419e-18
-1.34532e-18
-1.36293e-18
-1.35067e-18
-1.34527e-18
-1.34226e-18
-1.33609e-18
-1.3478e-18
-1.35524e-18
-1.35188e-18
-1.35163e-18
-1.35521e-18
-1.36767e-18
-1.35708e-18
-1.35261e-18
-1.34876e-18
-1.34188e-18
-1.3638e-18
-1.35857e-18
-1.35333e-18
-1.35403e-18
-1.36149e-18
-1.41386e-18
-1.39352e-18
-1.38733e-18
-1.3842e-18
-1.36074e-18
-1.38185e-18
-1.36477e-18
-1.39795e-18
-1.38916e-18
-1.379e-18
-1.35858e-18
-1.37172e-18
-1.38221e-18
-1.3544e-18
-1.36664e-18
-1.3762e-18
-1.34814e-18
-1.35142e-18
-1.3461e-18
-1.3584e-18
-1.37569e-18
-1.33401e-18
-1.33246e-18
-1.36754e-18
-1.37237e-18
-1.36751e-18
-1.35199e-18
-1.35319e-18
-1.35974e-18
-1.33525e-18
-1.34546e-18
-1.36229e-18
-1.34695e-18
-1.33074e-18
-1.33846e-18
-1.33265e-18
-1.34136e-18
-1.35296e-18
-1.36589e-18
-1.3541e-18
-1.35553e-18
-1.3706e-18
-1.37518e-18
-1.36555e-18
-1.33586e-18
-1.33217e-18
-1.34618e-18
-1.35129e-18
-1.399e-18
-1.38266e-18
-1.37078e-18
-1.3806e-18
-1.38281e-18
-1.41076e-18
-1.40278e-18
-1.38423e-18
-1.39915e-18
-1.39831e-18
-1.36829e-18
-1.35203e-18
-1.35136e-18
-1.35851e-18
-1.36363e-18
-1.36001e-18
-1.33405e-18
-1.35348e-18
-1.35588e-18
-1.3625e-18
-1.3547e-18
-1.34833e-18
-1.34931e-18
-1.36677e-18
-1.35486e-18
-1.35775e-18
-1.34691e-18
-1.34709e-18
-1.34509e-18
-1.33212e-18
-1.34349e-18
-1.34866e-18
-1.35226e-18
-1.35666e-18
-1.33977e-18
-1.35335e-18
-1.341e-18
-1.36113e-18
-1.35452e-18
-1.34981e-18
-1.34926e-18
-1.34996e-18
-1.35031e-18
-1.35019e-18
-1.35024e-18
-1.35155e-18
-1.3528e-18
-1.35316e-18
-1.39567e-18
-1.36866e-18
-1.40551e-18
-1.36409e-18
-1.36418e-18
-1.41297e-18
-1.40429e-18
-1.36067e-18
-1.37816e-18
-1.37841e-18
-1.35486e-18
-1.36535e-18
-1.36479e-18
-1.35056e-18
-1.36806e-18
-1.37744e-18
-1.36204e-18
-1.36559e-18
-1.3476e-18
-1.347e-18
-1.32998e-18
-1.34156e-18
-1.33869e-18
-1.3715e-18
-1.35601e-18
-1.34979e-18
-1.34871e-18
-1.34966e-18
-1.35008e-18
-1.35347e-18
-1.36918e-18
-1.37017e-18
-1.35277e-18
-1.34884e-18
-1.35277e-18
-1.36969e-18
-1.36614e-18
-1.34339e-18
-1.34787e-18
-1.35101e-18
-1.35192e-18
-1.35105e-18
-1.3482e-18
-1.35205e-18
-1.35238e-18
-1.3504e-18
-1.34676e-18
-1.34902e-18
-1.34939e-18
-1.42602e-18
-1.39168e-18
-1.39465e-18
-1.38799e-18
-1.38519e-18
-1.40764e-18
-1.38539e-18
-1.36034e-18
-1.37565e-18
-1.38679e-18
-1.35547e-18
-1.37301e-18
-1.385e-18
-1.37228e-18
-1.39338e-18
-1.38514e-18
-1.36153e-18
-1.34691e-18
-1.3541e-18
-1.35306e-18
-1.3471e-18
-1.33415e-18
-1.34734e-18
-1.35383e-18
-1.34974e-18
-1.34711e-18
-1.34301e-18
-1.3299e-18
-1.34234e-18
-1.34675e-18
-1.35371e-18
-1.37e-18
-1.34374e-18
-1.35782e-18
-1.35274e-18
-1.34921e-18
-1.35024e-18
-1.34947e-18
-1.34963e-18
-1.35007e-18
-1.3497e-18
-1.34922e-18
-1.34834e-18
-1.34438e-18
-1.33481e-18
-1.34408e-18
-1.34706e-18
-1.34201e-18
-1.3316e-18
-1.42914e-18
-1.40608e-18
-1.38994e-18
-1.41359e-18
-1.39184e-18
-1.38955e-18
-1.38532e-18
-1.39801e-18
-1.37759e-18
-1.35945e-18
-1.37087e-18
-1.38792e-18
-1.37188e-18
-1.36169e-18
-1.35494e-18
-1.37434e-18
-1.36062e-18
-1.35929e-18
-1.36116e-18
-1.33424e-18
-1.3444e-18
-1.33503e-18
-1.35434e-18
-1.36865e-18
-1.3608e-18
-1.37238e-18
-1.37088e-18
-1.35747e-18
-1.36671e-18
-1.35462e-18
-1.34852e-18
-1.35259e-18
-1.35997e-18
-1.3504e-18
-1.34458e-18
-1.33334e-18
-1.3452e-18
-1.34935e-18
-1.34947e-18
-1.35482e-18
-1.36629e-18
-1.35059e-18
-1.33564e-18
-1.34636e-18
-1.35038e-18
-1.35417e-18
-1.36203e-18
-1.34712e-18
-1.34642e-18
-1.3511e-18
-1.40498e-18
-1.42907e-18
-1.36841e-18
-1.41177e-18
-1.39814e-18
-1.40365e-18
-1.38559e-18
-1.3849e-18
-1.37747e-18
-1.37114e-18
-1.37221e-18
-1.3677e-18
-1.35041e-18
-1.34602e-18
-1.35494e-18
-1.34524e-18
-1.33584e-18
-1.3566e-18
-1.36265e-18
-1.35589e-18
-1.35339e-18
-1.35685e-18
-1.37473e-18
-1.36604e-18
-1.35244e-18
-1.35135e-18
-1.34865e-18
-1.34656e-18
-1.3525e-18
-1.36345e-18
-1.35066e-18
-1.34639e-18
-1.34778e-18
-1.35331e-18
-1.3677e-18
-1.36927e-18
-1.3544e-18
-1.3419e-18
-1.34757e-18
-1.34994e-18
-1.35095e-18
-1.34802e-18
-1.34235e-18
-1.34567e-18
-1.34698e-18
-1.34576e-18
-1.34402e-18
-1.33938e-18
-1.32537e-18
-1.32663e-18
-1.39237e-18
-1.37385e-18
-1.35921e-18
-1.39552e-18
-1.40934e-18
-1.38661e-18
-1.38604e-18
-1.38435e-18
-1.38257e-18
-1.37405e-18
-1.36723e-18
-1.35199e-18
-1.35943e-18
-1.34552e-18
-1.34907e-18
-1.36391e-18
-1.37503e-18
-1.36683e-18
-1.35747e-18
-1.34921e-18
-1.34698e-18
-1.33902e-18
-1.36885e-18
-1.35757e-18
-1.34755e-18
-1.33592e-18
-1.34835e-18
-1.3535e-18
-1.36766e-18
-1.37085e-18
-1.36845e-18
-1.36845e-18
-1.37148e-18
-1.36675e-18
-1.34019e-18
-1.34622e-18
-1.35045e-18
-1.34972e-18
-1.35052e-18
-1.35458e-18
-1.36503e-18
-1.3488e-18
-1.33264e-18
-1.34216e-18
-1.34589e-18
-1.34202e-18
-1.33348e-18
-1.34155e-18
-1.34491e-18
-1.3432e-18
-1.39979e-18
-1.38688e-18
-1.37882e-18
-1.38969e-18
-1.39031e-18
-1.36696e-18
-1.39937e-18
-1.38967e-18
-1.39514e-18
-1.37423e-18
-1.35397e-18
-1.3664e-18
-1.36546e-18
-1.35403e-18
-1.37702e-18
-1.36489e-18
-1.3533e-18
-1.3705e-18
-1.34081e-18
-1.34689e-18
-1.3371e-18
-1.37695e-18
-1.3776e-18
-1.34569e-18
-1.3491e-18
-1.35148e-18
-1.35044e-18
-1.34923e-18
-1.3511e-18
-1.35028e-18
-1.34893e-18
-1.34824e-18
-1.34868e-18
-1.35007e-18
-1.34349e-18
-1.33349e-18
-1.34543e-18
-1.34777e-18
-1.34796e-18
-1.3477e-18
-1.34325e-18
-1.33261e-18
-1.34292e-18
-1.34799e-18
-1.3525e-18
-1.36222e-18
-1.35206e-18
-1.34728e-18
-1.35108e-18
-1.35834e-18
-1.42131e-18
-1.39659e-18
-1.3676e-18
-1.38102e-18
-1.39044e-18
-1.38241e-18
-1.38692e-18
-1.37895e-18
-1.36009e-18
-1.36853e-18
-1.35831e-18
-1.3864e-18
-1.37228e-18
-1.35065e-18
-1.35044e-18
-1.3564e-18
-1.34094e-18
-1.37184e-18
-1.35949e-18
-1.34595e-18
-1.35331e-18
-1.3611e-18
-1.35741e-18
-1.35459e-18
-1.35448e-18
-1.35592e-18
-1.35282e-18
-1.35742e-18
-1.37029e-18
-1.35755e-18
-1.35331e-18
-1.35014e-18
-1.34942e-18
-1.34691e-18
-1.33706e-18
-1.34871e-18
-1.36691e-18
-1.35955e-18
-1.36529e-18
-1.35268e-18
-1.35097e-18
-1.3575e-18
-1.33707e-18
-1.33769e-18
-1.33119e-18
-1.34052e-18
-1.33979e-18
-1.33056e-18
-1.34187e-18
-1.3481e-18
-1.37591e-18
-1.3857e-18
-1.38126e-18
-1.37125e-18
-1.41092e-18
-1.39084e-18
-1.38425e-18
-1.37226e-18
-1.34337e-18
-1.37566e-18
-1.37179e-18
-1.37729e-18
-1.3912e-18
-1.37042e-18
-1.36624e-18
-1.37319e-18
-1.37663e-18
-1.36965e-18
-1.36418e-18
-1.35899e-18
-1.3475e-18
-1.35535e-18
-1.35669e-18
-1.3562e-18
-1.35441e-18
-1.35318e-18
-1.3509e-18
-1.35808e-18
-1.36795e-18
-1.35449e-18
-1.35382e-18
-1.36844e-18
-1.35872e-18
-1.35432e-18
-1.36273e-18
-1.35453e-18
-1.35161e-18
-1.35285e-18
-1.35376e-18
-1.35123e-18
-1.3515e-18
-1.35224e-18
-1.35087e-18
-1.3493e-18
-1.34941e-18
-1.35022e-18
-1.34794e-18
-1.34449e-18
-1.3401e-18
-1.34618e-18
-1.38995e-18
-1.3689e-18
-1.38741e-18
-1.38689e-18
-1.41422e-18
-1.39153e-18
-1.37998e-18
-1.362e-18
-1.38035e-18
-1.39236e-18
-1.3445e-18
-1.3586e-18
-1.40151e-18
-1.37811e-18
-1.37026e-18
-1.38005e-18
-1.35699e-18
-1.36437e-18
-1.37048e-18
-1.37908e-18
-1.37716e-18
-1.36601e-18
-1.36129e-18
-1.36256e-18
-1.37538e-18
-1.37664e-18
-1.36125e-18
-1.37128e-18
-1.35922e-18
-1.34873e-18
-1.33902e-18
-1.36626e-18
-1.36977e-18
-1.35092e-18
-1.32806e-18
-1.32928e-18
-1.34327e-18
-1.34854e-18
-1.34887e-18
-1.34793e-18
-1.34811e-18
-1.34455e-18
-1.32805e-18
-1.32727e-18
-1.34151e-18
-1.34721e-18
-1.34669e-18
-1.34622e-18
-1.33765e-18
-1.33235e-18
-1.41406e-18
-1.39889e-18
-1.39109e-18
-1.36683e-18
-1.39416e-18
-1.41022e-18
-1.38675e-18
-1.381e-18
-1.40002e-18
-1.38275e-18
-1.3538e-18
-1.36704e-18
-1.37786e-18
-1.38377e-18
-1.35793e-18
-1.36841e-18
-1.36902e-18
-1.37203e-18
-1.38904e-18
-1.36799e-18
-1.36317e-18
-1.35815e-18
-1.34827e-18
-1.35404e-18
-1.34609e-18
-1.36726e-18
-1.34971e-18
-1.3726e-18
-1.36869e-18
-1.33977e-18
-1.34271e-18
-1.33813e-18
-1.35385e-18
-1.37097e-18
-1.35664e-18
-1.35407e-18
-1.35597e-18
-1.36003e-18
-1.36957e-18
-1.35278e-18
-1.33626e-18
-1.34738e-18
-1.35063e-18
-1.35275e-18
-1.34759e-18
-1.33963e-18
-1.34555e-18
-1.34414e-18
-1.34631e-18
-1.33849e-18
-1.3557e-18
-1.42436e-18
-1.39666e-18
-1.38313e-18
-1.39422e-18
-1.41302e-18
-1.38834e-18
-1.38585e-18
-1.38503e-18
-1.37565e-18
-1.35542e-18
-1.35501e-18
-1.36806e-18
-1.36945e-18
-1.36867e-18
-1.38488e-18
-1.38403e-18
-1.3633e-18
-1.34848e-18
-1.34752e-18
-1.37139e-18
-1.36462e-18
-1.36344e-18
-1.37582e-18
-1.35178e-18
-1.35542e-18
-1.35579e-18
-1.35481e-18
-1.35657e-18
-1.35092e-18
-1.34013e-18
-1.36423e-18
-1.3582e-18
-1.35354e-18
-1.3515e-18
-1.35155e-18
-1.35367e-18
-1.35075e-18
-1.34658e-18
-1.34047e-18
-1.35468e-18
-1.35673e-18
-1.36278e-18
-1.34012e-18
-1.33844e-18
-1.3481e-18
-1.35207e-18
-1.34975e-18
-1.35013e-18
-1.34909e-18
-1.38136e-18
-1.42787e-18
-1.39732e-18
-1.39046e-18
-1.38922e-18
-1.39059e-18
-1.38368e-18
-1.39935e-18
-1.38366e-18
-1.37864e-18
-1.37151e-18
-1.3688e-18
-1.35989e-18
-1.36751e-18
-1.35858e-18
-1.36806e-18
-1.36239e-18
-1.34983e-18
-1.35909e-18
-1.36181e-18
-1.36268e-18
-1.36686e-18
-1.35843e-18
-1.34876e-18
-1.34474e-18
-1.356e-18
-1.36657e-18
-1.35964e-18
-1.33852e-18
-1.34862e-18
-1.35318e-18
-1.35273e-18
-1.35389e-18
-1.35176e-18
-1.35125e-18
-1.3523e-18
-1.34961e-18
-1.3484e-18
-1.33762e-18
-1.34434e-18
-1.356e-18
-1.37077e-18
-1.36079e-18
-1.34554e-18
-1.34933e-18
-1.34715e-18
-1.35612e-18
-1.3492e-18
-1.34698e-18
-1.34856e-18
-1.37489e-18
-1.40045e-18
-1.3903e-18
-1.38962e-18
-1.39389e-18
-1.38507e-18
-1.38083e-18
-1.37006e-18
-1.37875e-18
-1.37936e-18
-1.3636e-18
-1.37244e-18
-1.39028e-18
-1.3771e-18
-1.38539e-18
-1.3833e-18
-1.35512e-18
-1.36449e-18
-1.37702e-18
-1.36787e-18
-1.36199e-18
-1.35398e-18
-1.35728e-18
-1.35937e-18
-1.35557e-18
-1.35795e-18
-1.35827e-18
-1.35934e-18
-1.35904e-18
-1.37114e-18
-1.36e-18
-1.36167e-18
-1.38262e-18
-1.37103e-18
-1.37217e-18
-1.35789e-18
-1.35188e-18
-1.34416e-18
-1.36654e-18
-1.36417e-18
-1.36655e-18
-1.35256e-18
-1.34688e-18
-1.34786e-18
-1.35203e-18
-1.34332e-18
-1.34499e-18
-1.34523e-18
-1.34884e-18
-1.3537e-18
-1.41352e-18
-1.39931e-18
-1.39928e-18
-1.39739e-18
-1.4161e-18
-1.3706e-18
-1.36374e-18
-1.39267e-18
-1.38578e-18
-1.40196e-18
-1.39165e-18
-1.3478e-18
-1.36753e-18
-1.34911e-18
-1.33838e-18
-1.36209e-18
-1.36929e-18
-1.381e-18
-1.37036e-18
-1.37598e-18
-1.37485e-18
-1.35852e-18
-1.3507e-18
-1.35776e-18
-1.35622e-18
-1.35386e-18
-1.36028e-18
-1.36762e-18
-1.36749e-18
-1.37424e-18
-1.36068e-18
-1.35844e-18
-1.34357e-18
-1.33728e-18
-1.34333e-18
-1.34775e-18
-1.34923e-18
-1.34335e-18
-1.34043e-18
-1.34919e-18
-1.35279e-18
-1.34388e-18
-1.33801e-18
-1.34362e-18
-1.34962e-18
-1.34589e-18
-1.34802e-18
-1.35171e-18
-1.35841e-18
-1.34459e-18
-1.3731e-18
-1.39368e-18
-1.41917e-18
-1.42355e-18
-1.41907e-18
-1.38125e-18
-1.35698e-18
-1.36756e-18
-1.38047e-18
-1.38777e-18
-1.37541e-18
-1.35443e-18
-1.36586e-18
-1.35281e-18
-1.34904e-18
-1.3703e-18
-1.38445e-18
-1.37066e-18
-1.36189e-18
-1.36421e-18
-1.35962e-18
-1.35157e-18
-1.3637e-18
-1.36072e-18
-1.36017e-18
-1.36471e-18
-1.35704e-18
-1.35421e-18
-1.34672e-18
-1.36253e-18
-1.36502e-18
-1.35894e-18
-1.36237e-18
-1.35713e-18
-1.35553e-18
-1.35736e-18
-1.36151e-18
-1.35533e-18
-1.35301e-18
-1.35235e-18
-1.34377e-18
-1.35252e-18
-1.35077e-18
-1.355e-18
-1.35425e-18
-1.3568e-18
-1.35573e-18
-1.34621e-18
-1.33875e-18
-1.33778e-18
-1.38588e-18
-1.39219e-18
-1.39583e-18
-1.42003e-18
-1.39679e-18
-1.3859e-18
-1.38375e-18
-1.40137e-18
-1.3851e-18
-1.39351e-18
-1.35951e-18
-1.35539e-18
-1.37672e-18
-1.39013e-18
-1.37431e-18
-1.37271e-18
-1.3871e-18
-1.38117e-18
-1.35477e-18
-1.37033e-18
-1.36606e-18
-1.37396e-18
-1.3778e-18