/*--------------------------------*- C++ -*----------------------------------*\
  =========                 |
  \\      /  F ield         | OpenFOAM: The Open Source CFD Toolbox
   \\    /   O peration     | Website:  https://openfoam.org
    \\  /    A nd           | Version:  7
     \\/     M anipulation  |
\*---------------------------------------------------------------------------*/
FoamFile
{
    version     2.0;
    format      ascii;
    class       volScalarField;
    location    "208000";
    object      nu;
}
// * * * * * * * * * * * * * * * * * * * * * * * * * * * * * * * * * * * * * //

dimensions      [0 2 -1 0 0 0 0];

internalField   nonuniform List<scalar> 
4850
(
1.1086e-05
1.13831e-05
1.08524e-05
1.11279e-05
1.12557e-05
1.06289e-05
1.08852e-05
1.10066e-05
1.11274e-05
1.12472e-05
1.04149e-05
1.06537e-05
1.07693e-05
1.08843e-05
1.09982e-05
1.11108e-05
1.02096e-05
1.04327e-05
1.05429e-05
1.06525e-05
1.0761e-05
1.08682e-05
1.09736e-05
1.00125e-05
1.02213e-05
1.03266e-05
1.04312e-05
1.05347e-05
1.06368e-05
1.07372e-05
1.08355e-05
1.09313e-05
9.82301e-06
1.00188e-05
1.01195e-05
1.02195e-05
1.03184e-05
1.04159e-05
1.05117e-05
1.06054e-05
1.06967e-05
1.07853e-05
9.64063e-06
9.82457e-06
9.92105e-06
1.00167e-05
1.01114e-05
1.02046e-05
1.02961e-05
1.03856e-05
1.04728e-05
1.05572e-05
1.06386e-05
1.07166e-05
1.07909e-05
1.0861e-05
9.46492e-06
9.63805e-06
9.73056e-06
9.82228e-06
9.91291e-06
1.00022e-05
1.00898e-05
1.01754e-05
1.02587e-05
1.03393e-05
1.04171e-05
1.04915e-05
1.05623e-05
1.06292e-05
1.06918e-05
1.07499e-05
1.08031e-05
1.08512e-05
9.29545e-06
9.45869e-06
9.54751e-06
9.63552e-06
9.72244e-06
9.80801e-06
9.89192e-06
9.97389e-06
1.00536e-05
1.01308e-05
1.02051e-05
1.02763e-05
1.03439e-05
1.04078e-05
1.04676e-05
1.0523e-05
1.05737e-05
1.06195e-05
1.06602e-05
1.06955e-05
9.13184e-06
9.286e-06
9.37137e-06
9.45593e-06
9.53939e-06
9.62151e-06
9.70201e-06
9.7806e-06
9.85701e-06
9.93094e-06
1.00021e-05
1.00702e-05
1.01349e-05
1.0196e-05
1.02531e-05
1.0306e-05
1.03545e-05
1.03983e-05
1.04371e-05
1.04708e-05
1.04991e-05
1.0522e-05
1.05393e-05
1.05509e-05
8.97374e-06
9.11956e-06
9.20171e-06
9.28303e-06
9.36326e-06
9.44216e-06
9.51947e-06
9.59492e-06
9.66823e-06
9.73913e-06
9.80734e-06
9.87259e-06
9.93458e-06
9.99306e-06
1.00477e-05
1.00984e-05
1.01447e-05
1.01866e-05
1.02237e-05
1.02559e-05
1.0283e-05
1.03048e-05
1.03213e-05
1.03324e-05
1.03379e-05
1.03379e-05
1.03324e-05
1.03213e-05
1.03048e-05
8.82083e-06
8.95896e-06
9.03809e-06
9.11638e-06
9.19359e-06
9.26948e-06
9.34381e-06
9.41632e-06
9.48674e-06
9.55482e-06
9.62029e-06
9.68288e-06
9.74234e-06
9.79839e-06
9.8508e-06
9.89932e-06
9.94371e-06
9.98377e-06
1.00193e-05
1.00501e-05
1.0076e-05
1.00969e-05
1.01127e-05
1.01233e-05
1.01286e-05
1.01286e-05
1.01233e-05
1.01127e-05
1.00969e-05
1.0076e-05
1.00501e-05
1.00193e-05
8.6728e-06
8.80384e-06
8.88013e-06
8.95558e-06
9.02996e-06
9.10304e-06
9.17458e-06
9.24433e-06
9.31206e-06
9.3775e-06
9.4404e-06
9.50052e-06
9.55761e-06
9.61141e-06
9.66169e-06
9.70823e-06
9.75079e-06
9.78919e-06
9.82323e-06
9.85274e-06
9.87757e-06
9.8976e-06
9.91271e-06
9.92283e-06
9.9279e-06
9.9279e-06
9.92283e-06
9.91271e-06
9.8976e-06
9.87757e-06
9.85274e-06
9.82323e-06
9.78919e-06
9.75079e-06
8.52939e-06
8.65387e-06
8.72749e-06
8.80027e-06
8.87199e-06
8.94243e-06
9.01135e-06
9.07853e-06
9.14372e-06
9.2067e-06
9.26721e-06
9.32501e-06
9.37988e-06
9.43158e-06
9.47988e-06
9.52456e-06
9.56542e-06
9.60227e-06
9.63493e-06
9.66324e-06
9.68706e-06
9.70626e-06
9.72075e-06
9.73045e-06
9.73531e-06
9.73531e-06
9.73045e-06
9.72075e-06
9.70626e-06
9.68706e-06
9.66324e-06
9.63493e-06
9.60227e-06
9.56542e-06
8.39033e-06
8.50874e-06
8.57985e-06
8.65012e-06
8.71934e-06
8.78729e-06
8.85376e-06
8.91852e-06
8.98134e-06
9.042e-06
9.10026e-06
9.1559e-06
9.2087e-06
9.25842e-06
9.30487e-06
9.34782e-06
9.38709e-06
9.42249e-06
9.45387e-06
9.48105e-06
9.50392e-06
9.52235e-06
9.53626e-06
9.54557e-06
9.55024e-06
9.55024e-06
9.54558e-06
9.53626e-06
9.52235e-06
9.50392e-06
9.48105e-06
9.45387e-06
9.4225e-06
9.38709e-06
8.25539e-06
8.36817e-06
8.43691e-06
8.50481e-06
8.57168e-06
8.63729e-06
8.70145e-06
8.76393e-06
8.82453e-06
8.88301e-06
8.93917e-06
8.99278e-06
9.04363e-06
9.09151e-06
9.13621e-06
9.17755e-06
9.21533e-06
9.24938e-06
9.27955e-06
9.30568e-06
9.32766e-06
9.34538e-06
9.35875e-06
9.36769e-06
9.37218e-06
9.37218e-06
9.36769e-06
9.35875e-06
9.34538e-06
9.32766e-06
9.30568e-06
9.27955e-06
9.24938e-06
9.21533e-06
8.12435e-06
8.2319e-06
8.2984e-06
8.36407e-06
8.42871e-06
8.49213e-06
8.55411e-06
8.61445e-06
8.67295e-06
8.72939e-06
8.78357e-06
8.83527e-06
8.88429e-06
8.93044e-06
8.97351e-06
9.01333e-06
9.04971e-06
9.08249e-06
9.11153e-06
9.13668e-06
9.15783e-06
9.17488e-06
9.18774e-06
9.19634e-06
9.20066e-06
9.20066e-06
9.19634e-06
9.18774e-06
9.17488e-06
9.15783e-06
9.13668e-06
9.11153e-06
9.08249e-06
9.04971e-06
7.997e-06
8.09968e-06
8.16407e-06
8.22764e-06
8.29018e-06
8.35151e-06
8.41144e-06
8.46977e-06
8.52629e-06
8.58081e-06
8.63312e-06
8.68302e-06
8.73033e-06
8.77485e-06
8.81639e-06
8.85478e-06
8.88984e-06
8.92144e-06
8.94942e-06
8.97365e-06
8.99402e-06
9.01043e-06
9.02282e-06
9.0311e-06
9.03526e-06
9.03526e-06
9.0311e-06
9.02282e-06
9.01044e-06
8.99402e-06
8.97365e-06
8.94942e-06
8.92144e-06
8.88985e-06
7.87316e-06
7.97131e-06
8.0337e-06
8.09526e-06
8.15582e-06
8.21519e-06
8.27318e-06
8.3296e-06
8.38426e-06
8.43696e-06
8.48752e-06
8.53573e-06
8.58142e-06
8.6244e-06
8.6645e-06
8.70155e-06
8.73538e-06
8.76586e-06
8.79284e-06
8.8162e-06
8.83584e-06
8.85167e-06
8.8636e-06
8.87159e-06
8.87559e-06
8.87559e-06
8.87159e-06
8.8636e-06
8.85167e-06
8.83584e-06
8.8162e-06
8.79284e-06
8.76586e-06
8.73538e-06
7.75265e-06
7.84657e-06
7.90706e-06
7.96674e-06
8.02542e-06
8.08293e-06
8.13908e-06
8.1937e-06
8.2466e-06
8.29759e-06
8.34648e-06
8.3931e-06
8.43726e-06
8.4788e-06
8.51754e-06
8.55332e-06
8.58599e-06
8.61541e-06
8.64146e-06
8.664e-06
8.68296e-06
8.69822e-06
8.70974e-06
8.71744e-06
8.72131e-06
8.72131e-06
8.71744e-06
8.70974e-06
8.69822e-06
8.68296e-06
8.66401e-06
8.64146e-06
8.61541e-06
8.58599e-06
7.63531e-06
7.72527e-06
7.78396e-06
7.84184e-06
7.89875e-06
7.95449e-06
8.00891e-06
8.06183e-06
8.11306e-06
8.16242e-06
8.20975e-06
8.25486e-06
8.29759e-06
8.33776e-06
8.37521e-06
8.4098e-06
8.44137e-06
8.4698e-06
8.49496e-06
8.51674e-06
8.53504e-06
8.54979e-06
8.5609e-06
8.56834e-06
8.57207e-06
8.57207e-06
8.56834e-06
8.5609e-06
8.54979e-06
8.53504e-06
8.51674e-06
8.49496e-06
8.4698e-06
8.44137e-06
7.52098e-06
7.60723e-06
7.66422e-06
7.7204e-06
7.77561e-06
7.82969e-06
7.88246e-06
7.93376e-06
7.98341e-06
8.03124e-06
8.07709e-06
8.12077e-06
8.16213e-06
8.20101e-06
8.23725e-06
8.27071e-06
8.30125e-06
8.32874e-06
8.35307e-06
8.37412e-06
8.39181e-06
8.40606e-06
8.41681e-06
8.42399e-06
8.4276e-06
8.4276e-06
8.42399e-06
8.41681e-06
8.40606e-06
8.39181e-06
8.37412e-06
8.35307e-06
8.32875e-06
8.30125e-06
8.27072e-06
7.40952e-06
7.4923e-06
7.54766e-06
7.60222e-06
7.65583e-06
7.70832e-06
7.75953e-06
7.8093e-06
7.85745e-06
7.90383e-06
7.94827e-06
7.9906e-06
8.03067e-06
8.06833e-06
8.10342e-06
8.13581e-06
8.16537e-06
8.19198e-06
8.21552e-06
8.23588e-06
8.253e-06
8.26678e-06
8.27717e-06
8.28412e-06
8.2876e-06
8.2876e-06
8.28412e-06
8.27717e-06
8.26678e-06
8.253e-06
8.23588e-06
8.21552e-06
8.19198e-06
8.16538e-06
8.13582e-06
7.3008e-06
7.38032e-06
7.43413e-06
7.48715e-06
7.53923e-06
7.59022e-06
7.63994e-06
7.68825e-06
7.73499e-06
7.77998e-06
7.82308e-06
7.86413e-06
7.90298e-06
7.93948e-06
7.97349e-06
8.00487e-06
8.0335e-06
8.05927e-06
8.08206e-06
8.10178e-06
8.11834e-06
8.13168e-06
8.14174e-06
8.14847e-06
8.15184e-06
8.15184e-06
8.14847e-06
8.14174e-06
8.13168e-06
8.11834e-06
8.10178e-06
8.08206e-06
8.05927e-06
8.03351e-06
8.00487e-06
7.19468e-06
7.27114e-06
7.32348e-06
7.37503e-06
7.42566e-06
7.47521e-06
7.52352e-06
7.57045e-06
7.61583e-06
7.65951e-06
7.70135e-06
7.74118e-06
7.77887e-06
7.81427e-06
7.84724e-06
7.87767e-06
7.90542e-06
7.93039e-06
7.95247e-06
7.97158e-06
7.98762e-06
8.00054e-06
8.01028e-06
8.0168e-06
8.02007e-06
8.02007e-06
8.0168e-06
8.01028e-06
8.00055e-06
7.98762e-06
7.97158e-06
7.95247e-06
7.93039e-06
7.90542e-06
7.09106e-06
7.16464e-06
7.21557e-06
7.26573e-06
7.31497e-06
7.36315e-06
7.41012e-06
7.45572e-06
7.49982e-06
7.54225e-06
7.58288e-06
7.62156e-06
7.65814e-06
7.6925e-06
7.72449e-06
7.75401e-06
7.78093e-06
7.80514e-06
7.82655e-06
7.84507e-06
7.86063e-06
7.87315e-06
7.88259e-06
7.88891e-06
7.89207e-06
7.89207e-06
7.88891e-06
7.88259e-06
7.87315e-06
7.86063e-06
7.84508e-06
7.82655e-06
7.80514e-06
7.78093e-06
6.98982e-06
7.06069e-06
7.11027e-06
7.15909e-06
7.20701e-06
7.25389e-06
7.29957e-06
7.34392e-06
7.38679e-06
7.42804e-06
7.46752e-06
7.5051e-06
7.54063e-06
7.57399e-06
7.60506e-06
7.63371e-06
7.65984e-06
7.68333e-06
7.7041e-06
7.72207e-06
7.73716e-06
7.74931e-06
7.75846e-06
7.76458e-06
7.76765e-06
7.76765e-06
7.76459e-06
7.75846e-06
7.74931e-06
7.73716e-06
7.72207e-06
7.70411e-06
7.68333e-06
7.65984e-06
6.89086e-06
6.95917e-06
7.00747e-06
7.05502e-06
7.10167e-06
7.1473e-06
7.19176e-06
7.23491e-06
7.27661e-06
7.31673e-06
7.35511e-06
7.39164e-06
7.42617e-06
7.45859e-06
7.48877e-06
7.5166e-06
7.54197e-06
7.56478e-06
7.58495e-06
7.60239e-06
7.61703e-06
7.62882e-06
7.63771e-06
7.64365e-06
7.64663e-06
7.64663e-06
7.64365e-06
7.63771e-06
7.62882e-06
7.61704e-06
7.60239e-06
7.58495e-06
7.56478e-06
7.54197e-06
6.79408e-06
6.85998e-06
6.90705e-06
6.95337e-06
6.99882e-06
7.04326e-06
7.08655e-06
7.12855e-06
7.16914e-06
7.20817e-06
7.24552e-06
7.28104e-06
7.31462e-06
7.34614e-06
7.37547e-06
7.40252e-06
7.42717e-06
7.44933e-06
7.46892e-06
7.48586e-06
7.50008e-06
7.51153e-06
7.52016e-06
7.52593e-06
7.52882e-06
7.52882e-06
7.52593e-06
7.52016e-06
7.51153e-06
7.50008e-06
7.48586e-06
7.46892e-06
7.44933e-06
6.69939e-06
6.76301e-06
6.8089e-06
6.85405e-06
6.89835e-06
6.94164e-06
6.98382e-06
7.02473e-06
7.06425e-06
7.10225e-06
7.13859e-06
7.17316e-06
7.20584e-06
7.23649e-06
7.26502e-06
7.29132e-06
7.31528e-06
7.33683e-06
7.35587e-06
7.37233e-06
7.38615e-06
7.39727e-06
7.40565e-06
7.41126e-06
7.41406e-06
7.41406e-06
7.41126e-06
7.40565e-06
7.39727e-06
7.38615e-06
7.37233e-06
7.35587e-06
7.33683e-06
6.60671e-06
6.66817e-06
6.71292e-06
6.75696e-06
6.80014e-06
6.84235e-06
6.88345e-06
6.92332e-06
6.96182e-06
6.99883e-06
7.03422e-06
7.06788e-06
7.09968e-06
7.12952e-06
7.15728e-06
7.18286e-06
7.20617e-06
7.22713e-06
7.24564e-06
7.26165e-06
7.27508e-06
7.28589e-06
7.29404e-06
7.29949e-06
7.30222e-06
7.30222e-06
7.29949e-06
7.29404e-06
7.28589e-06
7.27508e-06
7.26165e-06
7.24564e-06
6.51594e-06
6.57536e-06
6.61903e-06
6.66199e-06
6.70412e-06
6.74528e-06
6.78535e-06
6.82422e-06
6.86174e-06
6.89781e-06
6.93229e-06
6.96507e-06
6.99604e-06
7.02509e-06
7.05212e-06
7.07702e-06
7.09971e-06
7.12009e-06
7.13811e-06
7.15368e-06
7.16675e-06
7.17726e-06
7.18519e-06
7.19049e-06
7.19314e-06
7.19314e-06
7.19049e-06
7.18519e-06
7.17726e-06
7.16675e-06
7.15368e-06
7.13811e-06
6.42702e-06
6.48451e-06
6.52714e-06
6.56907e-06
6.61017e-06
6.65033e-06
6.68942e-06
6.72732e-06
6.76391e-06
6.79907e-06
6.83268e-06
6.86463e-06
6.8948e-06
6.9231e-06
6.94942e-06
6.97367e-06
6.99576e-06
7.01561e-06
7.03314e-06
7.0483e-06
7.06102e-06
7.07125e-06
7.07896e-06
7.08412e-06
7.0867e-06
7.0867e-06
7.08412e-06
7.07896e-06
7.07125e-06
7.06102e-06
7.0483e-06
7.03314e-06
6.33988e-06
6.39553e-06
6.43716e-06
6.47809e-06
6.51822e-06
6.55741e-06
6.59556e-06
6.63254e-06
6.66823e-06
6.70252e-06
6.7353e-06
6.76644e-06
6.79586e-06
6.82343e-06
6.84908e-06
6.8727e-06
6.89422e-06
6.91355e-06
6.93063e-06
6.94538e-06
6.95777e-06
6.96773e-06
6.97524e-06
6.98026e-06
6.98277e-06
6.98277e-06
6.98026e-06
6.97524e-06
6.96773e-06
6.95777e-06
6.94539e-06
6.93063e-06
6.25444e-06
6.30834e-06
6.34901e-06
6.38899e-06
6.42818e-06
6.46645e-06
6.50369e-06
6.53978e-06
6.57461e-06
6.60807e-06
6.64004e-06
6.67042e-06
6.6991e-06
6.72599e-06
6.75099e-06
6.77401e-06
6.79498e-06
6.81382e-06
6.83045e-06
6.84483e-06
6.85689e-06
6.8666e-06
6.87391e-06
6.87879e-06
6.88124e-06
6.88124e-06
6.87879e-06
6.87391e-06
6.8666e-06
6.85689e-06
6.84483e-06
6.83045e-06
6.17065e-06
6.22289e-06
6.26263e-06
6.30169e-06
6.33997e-06
6.37735e-06
6.41372e-06
6.44896e-06
6.48297e-06
6.51562e-06
6.54682e-06
6.57646e-06
6.60444e-06
6.63066e-06
6.65504e-06
6.6775e-06
6.69794e-06
6.7163e-06
6.73252e-06
6.74653e-06
6.75828e-06
6.76774e-06
6.77486e-06
6.77962e-06
6.78201e-06
6.78201e-06
6.77962e-06
6.77486e-06
6.76774e-06
6.75828e-06
6.74653e-06
6.73252e-06
6.08843e-06
6.13909e-06
6.17794e-06
6.21612e-06
6.25353e-06
6.29005e-06
6.32558e-06
6.36e-06
6.39321e-06
6.42509e-06
6.45555e-06
6.48448e-06
6.51179e-06
6.53738e-06
6.56116e-06
6.58306e-06
6.603e-06
6.62091e-06
6.63672e-06
6.65038e-06
6.66184e-06
6.67106e-06
6.678e-06
6.68264e-06
6.68497e-06
6.68497e-06
6.68264e-06
6.678e-06
6.67106e-06
6.66184e-06
6.65038e-06
6.63672e-06
6.00774e-06
6.05689e-06
6.09488e-06
6.13221e-06
6.16877e-06
6.20447e-06
6.23919e-06
6.27283e-06
6.30527e-06
6.33641e-06
6.36616e-06
6.3944e-06
6.42106e-06
6.44604e-06
6.46925e-06
6.49062e-06
6.51008e-06
6.52755e-06
6.54297e-06
6.55629e-06
6.56747e-06
6.57646e-06
6.58323e-06
6.58776e-06
6.59003e-06
6.59003e-06
6.58776e-06
6.58323e-06
6.57646e-06
6.56747e-06
6.5563e-06
6.54297e-06
5.92851e-06
5.97623e-06
6.01338e-06
6.04989e-06
6.08565e-06
6.12055e-06
6.1545e-06
6.18737e-06
6.21907e-06
6.2495e-06
6.27856e-06
6.30615e-06
6.33219e-06
6.35658e-06
6.37924e-06
6.4001e-06
6.41909e-06
6.43614e-06
6.45119e-06
6.46419e-06
6.47509e-06
6.48386e-06
6.49047e-06
6.49488e-06
6.4971e-06
6.4971e-06
6.49488e-06
6.49047e-06
6.48386e-06
6.47509e-06
6.46419e-06
6.45119e-06
5.8507e-06
5.89705e-06
5.9334e-06
5.96911e-06
6.00409e-06
6.03823e-06
6.07142e-06
6.10356e-06
6.13455e-06
6.16429e-06
6.19269e-06
6.21965e-06
6.24508e-06
6.26891e-06
6.29104e-06
6.31141e-06
6.32995e-06
6.34659e-06
6.36129e-06
6.37398e-06
6.38462e-06
6.39318e-06
6.39962e-06
6.40393e-06
6.40609e-06
6.40609e-06
6.40393e-06
6.39962e-06
6.39318e-06
6.38462e-06
6.37398e-06
6.36129e-06
5.77426e-06
5.8193e-06
5.85487e-06
5.88982e-06
5.92404e-06
5.95744e-06
5.9899e-06
6.02134e-06
6.05164e-06
6.08072e-06
6.10848e-06
6.13483e-06
6.15968e-06
6.18296e-06
6.20459e-06
6.22448e-06
6.24259e-06
6.25885e-06
6.27319e-06
6.28558e-06
6.29597e-06
6.30433e-06
6.31062e-06
6.31483e-06
6.31694e-06
6.31694e-06
6.31483e-06
6.31062e-06
6.30433e-06
6.29597e-06
6.28558e-06
6.27319e-06
5.69913e-06
5.74292e-06
5.77775e-06
5.81195e-06
5.84545e-06
5.87813e-06
5.90989e-06
5.94064e-06
5.97029e-06
5.99873e-06
6.02587e-06
6.05163e-06
6.07592e-06
6.09868e-06
6.11981e-06
6.13925e-06
6.15694e-06
6.17282e-06
6.18684e-06
6.19894e-06
6.20909e-06
6.21725e-06
6.22339e-06
6.2275e-06
6.22956e-06
6.22956e-06
6.2275e-06
6.22339e-06
6.21725e-06
6.20909e-06
6.19894e-06
6.18684e-06
5.62529e-06
5.66788e-06
5.70197e-06
5.73546e-06
5.76825e-06
5.80024e-06
5.83133e-06
5.86142e-06
5.89042e-06
5.91824e-06
5.94479e-06
5.96999e-06
5.99374e-06
6.01598e-06
6.03664e-06
6.05565e-06
6.07294e-06
6.08845e-06
6.10215e-06
6.11397e-06
6.12389e-06
6.13186e-06
6.13786e-06
6.14188e-06
6.14389e-06
6.14389e-06
6.14188e-06
6.13786e-06
6.13186e-06
6.12389e-06
6.11397e-06
6.10215e-06
5.55267e-06
5.59412e-06
5.62751e-06
5.6603e-06
5.69241e-06
5.72373e-06
5.75416e-06
5.78362e-06
5.812e-06
5.83922e-06
5.8652e-06
5.88984e-06
5.91308e-06
5.93483e-06
5.95503e-06
5.97361e-06
5.99051e-06
6.00568e-06
6.01906e-06
6.03062e-06
6.04031e-06
6.0481e-06
6.05397e-06
6.05789e-06
6.05985e-06
6.05985e-06
6.05789e-06
6.05397e-06
6.0481e-06
6.04031e-06
6.03062e-06
6.01906e-06
5.48125e-06
5.5216e-06
5.55431e-06
5.58643e-06
5.61787e-06
5.64854e-06
5.67834e-06
5.70718e-06
5.73497e-06
5.76161e-06
5.78703e-06
5.81114e-06
5.83387e-06
5.85515e-06
5.87491e-06
5.89308e-06
5.90961e-06
5.92444e-06
5.93752e-06
5.94882e-06
5.95829e-06
5.96591e-06
5.97164e-06
5.97548e-06
5.9774e-06
5.9774e-06
5.97548e-06
5.97164e-06
5.96591e-06
5.95829e-06
5.94882e-06
5.93752e-06
5.41099e-06
5.45028e-06
5.48232e-06
5.51379e-06
5.5446e-06
5.57464e-06
5.60383e-06
5.63207e-06
5.65927e-06
5.68536e-06
5.71024e-06
5.73384e-06
5.75608e-06
5.7769e-06
5.79623e-06
5.81401e-06
5.83017e-06
5.84468e-06
5.85747e-06
5.86852e-06
5.87778e-06
5.88523e-06
5.89083e-06
5.89458e-06
5.89646e-06
5.89646e-06
5.89458e-06
5.89083e-06
5.88523e-06
5.87778e-06
5.86852e-06
5.34184e-06
5.38012e-06
5.41152e-06
5.44236e-06
5.47254e-06
5.50197e-06
5.53057e-06
5.55823e-06
5.58487e-06
5.61041e-06
5.63477e-06
5.65788e-06
5.67965e-06
5.70003e-06
5.71894e-06
5.73633e-06
5.75215e-06
5.76634e-06
5.77886e-06
5.78966e-06
5.79872e-06
5.806e-06
5.81149e-06
5.81515e-06
5.81699e-06
5.81699e-06
5.81515e-06
5.81149e-06
5.806e-06
5.79872e-06
5.78966e-06
5.27378e-06
5.31108e-06
5.34186e-06
5.37208e-06
5.40166e-06
5.43051e-06
5.45852e-06
5.48562e-06
5.51172e-06
5.53674e-06
5.56059e-06
5.58322e-06
5.60453e-06
5.62448e-06
5.64299e-06
5.66001e-06
5.67549e-06
5.68937e-06
5.70162e-06
5.71219e-06
5.72106e-06
5.72818e-06
5.73354e-06
5.73713e-06
5.73892e-06
5.73892e-06
5.73713e-06
5.73354e-06
5.72818e-06
5.72106e-06
5.20677e-06
5.24313e-06
5.27331e-06
5.30293e-06
5.33193e-06
5.3602e-06
5.38766e-06
5.41421e-06
5.43978e-06
5.46429e-06
5.48765e-06
5.50981e-06
5.53068e-06
5.55021e-06
5.56834e-06
5.585e-06
5.60015e-06
5.61374e-06
5.62572e-06
5.63607e-06
5.64474e-06
5.65171e-06
5.65696e-06
5.66047e-06
5.66222e-06
5.66222e-06
5.66047e-06
5.65696e-06
5.65171e-06
5.64474e-06
5.14078e-06
5.17624e-06
5.20582e-06
5.23487e-06
5.2633e-06
5.29101e-06
5.31793e-06
5.34395e-06
5.36901e-06
5.39302e-06
5.41591e-06
5.43761e-06
5.45806e-06
5.47718e-06
5.49493e-06
5.51125e-06
5.52608e-06
5.53938e-06
5.55111e-06
5.56124e-06
5.56973e-06
5.57655e-06
5.58168e-06
5.58512e-06
5.58684e-06
5.58684e-06
5.58512e-06
5.58168e-06
5.57655e-06
5.56973e-06
5.07578e-06
5.11037e-06
5.13938e-06
5.16786e-06
5.19574e-06
5.22291e-06
5.2493e-06
5.27481e-06
5.29937e-06
5.3229e-06
5.34533e-06
5.36659e-06
5.38662e-06
5.40535e-06
5.42273e-06
5.43871e-06
5.45324e-06
5.46626e-06
5.47775e-06
5.48766e-06
5.49597e-06
5.50265e-06
5.50768e-06
5.51104e-06
5.51272e-06
5.51272e-06
5.51104e-06
5.50768e-06
5.50265e-06
5.49597e-06
5.01174e-06
5.04549e-06
5.07394e-06
5.10187e-06
5.12921e-06
5.15586e-06
5.18173e-06
5.20675e-06
5.23082e-06
5.25389e-06
5.27587e-06
5.2967e-06
5.31633e-06
5.33468e-06
5.35171e-06
5.36736e-06
5.38158e-06
5.39434e-06
5.40559e-06
5.41529e-06
5.42343e-06
5.42997e-06
5.43489e-06
5.43818e-06
5.43983e-06
5.43983e-06
5.43818e-06
5.43489e-06
5.42997e-06
5.42343e-06
4.94863e-06
4.98157e-06
5.00947e-06
5.03688e-06
5.0637e-06
5.08983e-06
5.11521e-06
5.13973e-06
5.16334e-06
5.18595e-06
5.2075e-06
5.22792e-06
5.24715e-06
5.26513e-06
5.28181e-06
5.29714e-06
5.31108e-06
5.32357e-06
5.33459e-06
5.3441e-06
5.35207e-06
5.35847e-06
5.36329e-06
5.36651e-06
5.36812e-06
5.36812e-06
5.36651e-06
5.36329e-06
5.35847e-06
5.35207e-06
4.88643e-06
4.91859e-06
4.94596e-06
4.97285e-06
4.99915e-06
5.0248e-06
5.04968e-06
5.07374e-06
5.09688e-06
5.11905e-06
5.14018e-06
5.16019e-06
5.17904e-06
5.19666e-06
5.21301e-06
5.22803e-06
5.24169e-06
5.25393e-06
5.26472e-06
5.27403e-06
5.28184e-06
5.28811e-06
5.29283e-06
5.29599e-06
5.29757e-06
5.29757e-06
5.29599e-06
5.29283e-06
5.28811e-06
5.28184e-06
4.82512e-06
4.85651e-06
4.88336e-06
4.90975e-06
4.93556e-06
4.96072e-06
4.98513e-06
5.00873e-06
5.03143e-06
5.05317e-06
5.07388e-06
5.0935e-06
5.11198e-06
5.12925e-06
5.14527e-06
5.16e-06
5.17337e-06
5.18537e-06
5.19594e-06
5.20507e-06
5.21271e-06
5.21886e-06
5.22348e-06
5.22657e-06
5.22812e-06
5.22812e-06
5.22657e-06
5.22348e-06
5.21886e-06
5.21271e-06
4.76466e-06
4.79532e-06
4.82166e-06
4.84755e-06
4.87289e-06
4.89757e-06
4.92153e-06
4.94467e-06
4.96694e-06
4.98826e-06
5.00857e-06
5.02781e-06
5.04592e-06
5.06286e-06
5.07856e-06
5.09299e-06
5.10611e-06
5.11786e-06
5.12822e-06
5.13716e-06
5.14466e-06
5.15068e-06
5.15521e-06
5.15824e-06
5.15975e-06
5.15975e-06
5.15824e-06
5.15521e-06
5.15068e-06
5.14466e-06
4.70504e-06
4.73498e-06
4.76083e-06
4.78624e-06
4.81111e-06
4.83533e-06
4.85884e-06
4.88155e-06
4.90339e-06
4.9243e-06
4.94422e-06
4.96309e-06
4.98085e-06
4.99745e-06
5.01285e-06
5.027e-06
5.03985e-06
5.05137e-06
5.06153e-06
5.07029e-06
5.07763e-06
5.08353e-06
5.08797e-06
5.09094e-06
5.09243e-06
5.09243e-06
5.09094e-06
5.08797e-06
5.08353e-06
5.07763e-06
4.64624e-06
4.67547e-06
4.70085e-06
4.72579e-06
4.7502e-06
4.77398e-06
4.79704e-06
4.81932e-06
4.84075e-06
4.86127e-06
4.88081e-06
4.89931e-06
4.91673e-06
4.93301e-06
4.94811e-06
4.96198e-06
4.97458e-06
4.98587e-06
4.99583e-06
5.00442e-06
5.01161e-06
5.01739e-06
5.02175e-06
5.02465e-06
5.02611e-06
5.02611e-06
5.02465e-06
5.02175e-06
5.01739e-06
5.01161e-06
4.58823e-06
4.61678e-06
4.64168e-06
4.66617e-06
4.69014e-06
4.71347e-06
4.73611e-06
4.75798e-06
4.779e-06
4.79913e-06
4.8183e-06
4.83645e-06
4.85353e-06
4.8695e-06
4.8843e-06
4.8979e-06
4.91026e-06
4.92133e-06
4.93109e-06
4.93951e-06
4.94656e-06
4.95223e-06
4.9565e-06
4.95935e-06
4.96078e-06
4.96078e-06
4.95935e-06
4.9565e-06
4.95223e-06
4.94656e-06
4.53099e-06
4.55887e-06
4.58332e-06
4.60737e-06
4.63089e-06
4.6538e-06
4.67602e-06
4.69748e-06
4.71812e-06
4.73787e-06
4.75667e-06
4.77448e-06
4.79123e-06
4.80689e-06
4.82141e-06
4.83475e-06
4.84686e-06
4.85772e-06
4.86729e-06
4.87555e-06
4.88246e-06
4.88802e-06
4.8922e-06
4.895e-06
4.8964e-06
4.8964e-06
4.895e-06
4.8922e-06
4.88802e-06
4.88246e-06
4.47451e-06
4.50173e-06
4.52574e-06
4.54935e-06
4.57245e-06
4.59495e-06
4.61676e-06
4.63782e-06
4.65807e-06
4.67745e-06
4.6959e-06
4.71337e-06
4.72981e-06
4.74517e-06
4.75941e-06
4.77249e-06
4.78437e-06
4.79502e-06
4.8044e-06
4.8125e-06
4.81928e-06
4.82473e-06
4.82883e-06
4.83157e-06
4.83294e-06
4.83294e-06
4.83157e-06
4.82883e-06
4.82473e-06
4.81928e-06
4.41876e-06
4.44534e-06
4.46891e-06
4.49211e-06
4.51479e-06
4.53688e-06
4.55829e-06
4.57896e-06
4.59884e-06
4.61786e-06
4.63596e-06
4.6531e-06
4.66923e-06
4.6843e-06
4.69827e-06
4.7111e-06
4.72275e-06
4.73319e-06
4.7424e-06
4.75033e-06
4.75698e-06
4.76233e-06
4.76635e-06
4.76903e-06
4.77038e-06
4.77038e-06
4.76903e-06
4.76635e-06
4.76233e-06
4.75698e-06
4.36373e-06
4.38967e-06
4.41283e-06
4.43561e-06
4.45789e-06
4.47957e-06
4.5006e-06
4.52089e-06
4.5404e-06
4.55907e-06
4.57683e-06
4.59365e-06
4.60947e-06
4.62426e-06
4.63796e-06
4.65055e-06
4.66198e-06
4.67222e-06
4.68125e-06
4.68903e-06
4.69556e-06
4.7008e-06
4.70474e-06
4.70737e-06
4.70869e-06
4.70869e-06
4.70737e-06
4.70474e-06
4.7008e-06
4.69556e-06
4.3094e-06
4.33472e-06
4.35746e-06
4.37984e-06
4.40173e-06
4.42302e-06
4.44366e-06
4.46359e-06
4.48274e-06
4.50106e-06
4.51849e-06
4.535e-06
4.55052e-06
4.56503e-06
4.57848e-06
4.59082e-06
4.60204e-06
4.61208e-06
4.62094e-06
4.62857e-06
4.63497e-06
4.64011e-06
4.64398e-06
4.64656e-06
4.64786e-06
4.64786e-06
4.64656e-06
4.64398e-06
4.64011e-06
4.63497e-06
4.25576e-06
4.28045e-06
4.3028e-06
4.32479e-06
4.34629e-06
4.3672e-06
4.38747e-06
4.40703e-06
4.42583e-06
4.44381e-06
4.46092e-06
4.47712e-06
4.49236e-06
4.50659e-06
4.51978e-06
4.5319e-06
4.5429e-06
4.55276e-06
4.56144e-06
4.56893e-06
4.57521e-06
4.58025e-06
4.58404e-06
4.58658e-06
4.58785e-06
4.58785e-06
4.58658e-06
4.58404e-06
4.58025e-06
4.57521e-06
4.20279e-06
4.22685e-06
4.24883e-06
4.27043e-06
4.29155e-06
4.31209e-06
4.33199e-06
4.35119e-06
4.36965e-06
4.3873e-06
4.4041e-06
4.42e-06
4.43495e-06
4.44892e-06
4.46186e-06
4.47375e-06
4.48454e-06
4.49421e-06
4.50273e-06
4.51008e-06
4.51624e-06
4.52119e-06
4.52491e-06
4.52739e-06
4.52864e-06
4.52864e-06
4.52739e-06
4.52491e-06
4.52119e-06
4.51624e-06
4.15033e-06
4.1739e-06
4.19552e-06
4.21676e-06
4.2375e-06
4.25767e-06
4.27722e-06
4.29607e-06
4.31419e-06
4.33152e-06
4.348e-06
4.36361e-06
4.37829e-06
4.39199e-06
4.4047e-06
4.41636e-06
4.42695e-06
4.43644e-06
4.4448e-06
4.45201e-06
4.45805e-06
4.4629e-06
4.46655e-06
4.46899e-06
4.47021e-06
4.47021e-06
4.46899e-06
4.46655e-06
4.4629e-06
4.45805e-06
4.09813e-06
4.12159e-06
4.14287e-06
4.16374e-06
4.18412e-06
4.20393e-06
4.22312e-06
4.24164e-06
4.25943e-06
4.27644e-06
4.29262e-06
4.30794e-06
4.32234e-06
4.3358e-06
4.34827e-06
4.35971e-06
4.3701e-06
4.37941e-06
4.38762e-06
4.39469e-06
4.40062e-06
4.40538e-06
4.40896e-06
4.41135e-06
4.41255e-06
4.41255e-06
4.41135e-06
4.40896e-06
4.40538e-06
4.40062e-06
4.04612e-06
4.06989e-06
4.09086e-06
4.11137e-06
4.13139e-06
4.15085e-06
4.1697e-06
4.18788e-06
4.20535e-06
4.22205e-06
4.23793e-06
4.25297e-06
4.26711e-06
4.28031e-06
4.29255e-06
4.30378e-06
4.31398e-06
4.32312e-06
4.33116e-06
4.33811e-06
4.34392e-06
4.34859e-06
4.3521e-06
4.35445e-06
4.35563e-06
4.35563e-06
4.35445e-06
4.3521e-06
4.34859e-06
4.34392e-06
4.03939e-06
4.05963e-06
4.0793e-06
4.09841e-06
4.11693e-06
4.13478e-06
4.15193e-06
4.16833e-06
4.18392e-06
4.19868e-06
4.21256e-06
4.22552e-06
4.28794e-06
4.29252e-06
4.29597e-06
4.29828e-06
4.29943e-06
4.29943e-06
4.29828e-06
4.29597e-06
4.29252e-06
4.28794e-06
1.56562e-05
1.57137e-05
1.57572e-05
1.57864e-05
1.58011e-05
1.58011e-05
1.57864e-05
1.57572e-05
1.57137e-05
1.56562e-05
1.50657e-05
1.51311e-05
1.51841e-05
1.52242e-05
1.52512e-05
1.52647e-05
1.52647e-05
1.52512e-05
1.52242e-05
1.51841e-05
1.51311e-05
1.50657e-05
1.49885e-05
1.49e-05
1.48009e-05
1.4692e-05
1.45739e-05
1.44475e-05
1.43135e-05
1.41728e-05
1.4026e-05
1.4431e-05
1.45131e-05
1.45847e-05
1.46453e-05
1.46944e-05
1.47315e-05
1.47565e-05
1.4769e-05
1.4769e-05
1.47565e-05
1.47316e-05
1.46944e-05
1.46453e-05
1.45848e-05
1.45131e-05
1.4431e-05
1.4339e-05
1.42377e-05
1.41279e-05
1.40102e-05
1.38853e-05
1.3754e-05
1.36169e-05
1.34748e-05
1.33283e-05
1.31781e-05
1.30248e-05
1.37124e-05
1.38149e-05
1.39093e-05
1.3995e-05
1.40714e-05
1.4138e-05
1.41944e-05
1.42399e-05
1.42745e-05
1.42976e-05
1.43093e-05
1.43093e-05
1.42976e-05
1.42745e-05
1.42399e-05
1.41944e-05
1.4138e-05
1.40714e-05
1.3995e-05
1.39093e-05
1.38149e-05
1.37124e-05
1.36025e-05
1.34858e-05
1.33629e-05
1.32346e-05
1.31014e-05
1.2964e-05
1.28231e-05
1.26791e-05
1.25328e-05
1.23847e-05
1.22353e-05
1.31118e-05
1.32212e-05
1.33241e-05
1.342e-05
1.35082e-05
1.35883e-05
1.36596e-05
1.37218e-05
1.37743e-05
1.38168e-05
1.3849e-05
1.38706e-05
1.38814e-05
1.38814e-05
1.38706e-05
1.3849e-05
1.38168e-05
1.37743e-05
1.37218e-05
1.36596e-05
1.35883e-05
1.35082e-05
1.342e-05
1.33241e-05
1.32212e-05
1.31118e-05
1.29966e-05
1.28762e-05
1.27511e-05
1.2622e-05
1.24894e-05
1.23539e-05
1.2216e-05
1.20764e-05
1.19355e-05
1.17937e-05
1.16516e-05
1.13306e-05
1.25393e-05
1.26526e-05
1.27609e-05
1.28636e-05
1.29602e-05
1.30501e-05
1.31329e-05
1.32079e-05
1.32747e-05
1.33328e-05
1.3382e-05
1.34217e-05
1.34518e-05
1.34719e-05
1.3482e-05
1.3482e-05
1.34719e-05
1.34518e-05
1.34217e-05
1.3382e-05
1.33328e-05
1.32747e-05
1.32079e-05
1.31329e-05
1.30501e-05
1.29602e-05
1.28636e-05
1.27609e-05
1.26526e-05
1.25393e-05
1.24216e-05
1.22999e-05
1.21749e-05
1.20471e-05
1.1917e-05
1.17851e-05
1.16518e-05
1.15176e-05
1.13831e-05
1.1086e-05
1.21108e-05
1.22219e-05
1.23287e-05
1.24307e-05
1.25275e-05
1.26183e-05
1.27029e-05
1.27806e-05
1.2851e-05
1.29138e-05
1.29683e-05
1.30144e-05
1.30516e-05
1.30798e-05
1.30987e-05
1.31082e-05
1.31082e-05
1.30987e-05
1.30798e-05
1.30516e-05
1.30144e-05
1.29683e-05
1.29138e-05
1.2851e-05
1.27806e-05
1.27029e-05
1.26183e-05
1.25275e-05
1.24307e-05
1.23287e-05
1.22219e-05
1.21109e-05
1.1996e-05
1.18779e-05
1.17571e-05
1.1634e-05
1.15091e-05
1.13829e-05
1.12557e-05
1.11279e-05
1.08524e-05
1.17086e-05
1.18172e-05
1.19222e-05
1.20231e-05
1.21194e-05
1.22106e-05
1.22963e-05
1.2376e-05
1.24492e-05
1.25155e-05
1.25745e-05
1.26258e-05
1.26691e-05
1.27041e-05
1.27306e-05
1.27483e-05
1.27572e-05
1.27572e-05
1.27483e-05
1.27306e-05
1.27041e-05
1.26691e-05
1.26258e-05
1.25745e-05
1.25155e-05
1.24492e-05
1.2376e-05
1.22963e-05
1.22106e-05
1.21194e-05
1.20231e-05
1.19222e-05
1.18172e-05
1.17086e-05
1.15968e-05
1.14824e-05
1.13657e-05
1.12472e-05
1.11274e-05
1.10066e-05
1.08852e-05
1.06289e-05
1.13302e-05
1.14362e-05
1.15391e-05
1.16385e-05
1.1734e-05
1.18251e-05
1.19114e-05
1.19924e-05
1.20676e-05
1.21367e-05
1.21992e-05
1.22548e-05
1.23032e-05
1.2344e-05
1.2377e-05
1.24019e-05
1.24186e-05
1.2427e-05
1.2427e-05
1.24186e-05
1.24019e-05
1.2377e-05
1.2344e-05
1.23032e-05
1.22548e-05
1.21992e-05
1.21367e-05
1.20676e-05
1.19924e-05
1.19114e-05
1.18251e-05
1.1734e-05
1.16386e-05
1.15391e-05
1.14362e-05
1.13302e-05
1.12216e-05
1.11108e-05
1.09982e-05
1.08843e-05
1.07693e-05
1.06537e-05
1.04149e-05
1.09736e-05
1.10768e-05
1.11775e-05
1.12752e-05
1.13695e-05
1.14601e-05
1.15464e-05
1.16281e-05
1.17048e-05
1.1776e-05
1.18413e-05
1.19004e-05
1.1953e-05
1.19986e-05
1.20372e-05
1.20683e-05
1.20918e-05
1.21076e-05
1.21155e-05
1.21155e-05
1.21076e-05
1.20918e-05
1.20683e-05
1.20372e-05
1.19986e-05
1.1953e-05
1.19004e-05
1.18413e-05
1.1776e-05
1.17048e-05
1.16281e-05
1.15464e-05
1.14601e-05
1.13695e-05
1.12752e-05
1.11775e-05
1.10768e-05
1.09736e-05
1.08682e-05
1.0761e-05
1.06525e-05
1.05429e-05
1.04327e-05
1.02096e-05
1.07372e-05
1.08355e-05
1.09313e-05
1.10243e-05
1.11139e-05
1.12e-05
1.12819e-05
1.13594e-05
1.14321e-05
1.14996e-05
1.15615e-05
1.16175e-05
1.16673e-05
1.17105e-05
1.17469e-05
1.17764e-05
1.17986e-05
1.18135e-05
1.1821e-05
1.1821e-05
1.18135e-05
1.17986e-05
1.17764e-05
1.17469e-05
1.17105e-05
1.16673e-05
1.16175e-05
1.15615e-05
1.14996e-05
1.14321e-05
1.13594e-05
1.12819e-05
1.12e-05
1.11139e-05
1.10243e-05
1.09313e-05
1.08355e-05
1.07372e-05
1.06368e-05
1.05347e-05
1.04312e-05
1.03266e-05
1.02213e-05
1.00125e-05
1.04159e-05
1.05117e-05
1.06054e-05
1.06967e-05
1.07853e-05
1.08706e-05
1.09525e-05
1.10304e-05
1.11041e-05
1.11732e-05
1.12372e-05
1.1296e-05
1.13491e-05
1.13963e-05
1.14373e-05
1.14719e-05
1.14997e-05
1.15208e-05
1.15349e-05
1.1542e-05
1.1542e-05
1.15349e-05
1.15208e-05
1.14997e-05
1.14719e-05
1.14373e-05
1.13963e-05
1.13491e-05
1.1296e-05
1.12372e-05
1.11732e-05
1.11041e-05
1.10304e-05
1.09525e-05
1.08706e-05
1.07853e-05
1.06967e-05
1.06054e-05
1.05117e-05
1.04159e-05
1.03184e-05
1.02195e-05
1.01195e-05
1.00188e-05
9.82301e-06
1.01114e-05
1.02046e-05
1.02961e-05
1.03856e-05
1.04728e-05
1.05572e-05
1.06386e-05
1.07166e-05
1.07909e-05
1.0861e-05
1.09267e-05
1.09877e-05
1.10436e-05
1.1094e-05
1.11389e-05
1.11778e-05
1.12106e-05
1.12371e-05
1.12571e-05
1.12705e-05