/*--------------------------------*- C++ -*----------------------------------*\
  =========                 |
  \\      /  F ield         | OpenFOAM: The Open Source CFD Toolbox
   \\    /   O peration     | Website:  https://openfoam.org
    \\  /    A nd           | Version:  7
     \\/     M anipulation  |
\*---------------------------------------------------------------------------*/
FoamFile
{
    version     2.0;
    format      ascii;
    class       volScalarField;
    location    "244000";
    object      k;
}
// * * * * * * * * * * * * * * * * * * * * * * * * * * * * * * * * * * * * * //

dimensions      [0 2 -2 0 0 0 0];

internalField   nonuniform List<scalar> 
4764
(
1.19022e-06
1.18898e-06
1.18785e-06
1.18684e-06
1.18595e-06
1.18517e-06
1.21011e-06
1.20821e-06
1.20635e-06
1.20455e-06
1.20281e-06
1.20114e-06
1.19955e-06
1.19805e-06
1.19664e-06
1.19533e-06
1.19412e-06
1.19302e-06
1.19204e-06
1.19117e-06
1.19041e-06
1.18978e-06
1.18928e-06
1.18889e-06
1.18864e-06
1.18851e-06
1.18851e-06
1.18864e-06
1.18889e-06
1.18928e-06
1.18978e-06
1.19041e-06
1.19117e-06
1.19204e-06
1.19302e-06
1.21468e-06
1.21284e-06
1.21103e-06
1.20928e-06
1.20758e-06
1.20596e-06
1.20441e-06
1.20295e-06
1.20158e-06
1.2003e-06
1.19913e-06
1.19806e-06
1.1971e-06
1.19625e-06
1.19552e-06
1.1949e-06
1.19441e-06
1.19404e-06
1.19379e-06
1.19367e-06
1.19367e-06
1.19379e-06
1.19404e-06
1.19441e-06
1.1949e-06
1.19552e-06
1.19625e-06
1.1971e-06
1.19806e-06
1.19913e-06
1.2003e-06
1.20158e-06
1.20295e-06
1.21912e-06
1.21733e-06
1.21557e-06
1.21387e-06
1.21222e-06
1.21065e-06
1.20914e-06
1.20772e-06
1.20638e-06
1.20514e-06
1.204e-06
1.20296e-06
1.20202e-06
1.2012e-06
1.20049e-06
1.19989e-06
1.19941e-06
1.19905e-06
1.1988e-06
1.19868e-06
1.19868e-06
1.1988e-06
1.19905e-06
1.19941e-06
1.19989e-06
1.20049e-06
1.2012e-06
1.20202e-06
1.20296e-06
1.204e-06
1.20514e-06
1.20638e-06
1.20772e-06
1.20914e-06
1.21065e-06
1.21222e-06
1.21387e-06
1.21557e-06
1.21733e-06
1.21912e-06
1.22094e-06
1.22278e-06
1.22462e-06
1.22646e-06
1.22828e-06
1.22341e-06
1.22168e-06
1.21997e-06
1.21832e-06
1.21672e-06
1.21519e-06
1.21373e-06
1.21235e-06
1.21105e-06
1.20984e-06
1.20873e-06
1.20772e-06
1.20681e-06
1.20601e-06
1.20532e-06
1.20474e-06
1.20427e-06
1.20392e-06
1.20368e-06
1.20356e-06
1.20356e-06
1.20368e-06
1.20392e-06
1.20427e-06
1.20474e-06
1.20532e-06
1.20601e-06
1.20681e-06
1.20772e-06
1.20873e-06
1.20984e-06
1.21105e-06
1.21235e-06
1.21373e-06
1.21519e-06
1.21672e-06
1.21832e-06
1.21997e-06
1.22168e-06
1.22341e-06
1.22518e-06
1.22696e-06
1.22875e-06
1.23052e-06
1.23228e-06
1.22757e-06
1.22588e-06
1.22424e-06
1.22263e-06
1.22108e-06
1.21959e-06
1.21818e-06
1.21683e-06
1.21558e-06
1.2144e-06
1.21332e-06
1.21234e-06
1.21146e-06
1.21068e-06
1.21001e-06
1.20944e-06
1.20899e-06
1.20865e-06
1.20842e-06
1.2083e-06
1.2083e-06
1.20842e-06
1.20865e-06
1.20899e-06
1.20944e-06
1.21001e-06
1.21068e-06
1.21146e-06
1.21234e-06
1.21332e-06
1.2144e-06
1.21558e-06
1.21683e-06
1.21818e-06
1.21959e-06
1.22108e-06
1.22263e-06
1.22424e-06
1.22588e-06
1.22757e-06
1.22928e-06
1.231e-06
1.23273e-06
1.23444e-06
1.23613e-06
1.23158e-06
1.22995e-06
1.22835e-06
1.2268e-06
1.2253e-06
1.22385e-06
1.22248e-06
1.22118e-06
1.21996e-06
1.21882e-06
1.21777e-06
1.21682e-06
1.21596e-06
1.21521e-06
1.21456e-06
1.21401e-06
1.21357e-06
1.21324e-06
1.21301e-06
1.2129e-06
1.2129e-06
1.21301e-06
1.21324e-06
1.21357e-06
1.21401e-06
1.21456e-06
1.21521e-06
1.21596e-06
1.21682e-06
1.21777e-06
1.21882e-06
1.21996e-06
1.22118e-06
1.22248e-06
1.22385e-06
1.2253e-06
1.2268e-06
1.22835e-06
1.22995e-06
1.23158e-06
1.23323e-06
1.2349e-06
1.23656e-06
1.23821e-06
1.23984e-06
1.23544e-06
1.23387e-06
1.23232e-06
1.23082e-06
1.22937e-06
1.22797e-06
1.22664e-06
1.22538e-06
1.22419e-06
1.22309e-06
1.22208e-06
1.22116e-06
1.22033e-06
1.21959e-06
1.21896e-06
1.21843e-06
1.218e-06
1.21768e-06
1.21746e-06
1.21736e-06
1.21736e-06
1.21746e-06
1.21768e-06
1.218e-06
1.21843e-06
1.21896e-06
1.21959e-06
1.22033e-06
1.22116e-06
1.22208e-06
1.22309e-06
1.22419e-06
1.22538e-06
1.22664e-06
1.22797e-06
1.22937e-06
1.23082e-06
1.23232e-06
1.23387e-06
1.23544e-06
1.23704e-06
1.23864e-06
1.24025e-06
1.24184e-06
1.2434e-06
1.23915e-06
1.23763e-06
1.23614e-06
1.23469e-06
1.23329e-06
1.23194e-06
1.23065e-06
1.22943e-06
1.22828e-06
1.22722e-06
1.22624e-06
1.22534e-06
1.22454e-06
1.22383e-06
1.22322e-06
1.2227e-06
1.22229e-06
1.22198e-06
1.22177e-06
1.22167e-06
1.22167e-06
1.22177e-06
1.22198e-06
1.22229e-06
1.2227e-06
1.22322e-06
1.22383e-06
1.22454e-06
1.22534e-06
1.22624e-06
1.22722e-06
1.22829e-06
1.22943e-06
1.23065e-06
1.23194e-06
1.23329e-06
1.23469e-06
1.23614e-06
1.23763e-06
1.23915e-06
1.24069e-06
1.24224e-06
1.24379e-06
1.24531e-06
1.24681e-06
1.24272e-06
1.24125e-06
1.23981e-06
1.23841e-06
1.23706e-06
1.23575e-06
1.23451e-06
1.23333e-06
1.23223e-06
1.2312e-06
1.23025e-06
1.22938e-06
1.22861e-06
1.22792e-06
1.22733e-06
1.22683e-06
1.22643e-06
1.22613e-06
1.22593e-06
1.22583e-06
1.22583e-06
1.22593e-06
1.22613e-06
1.22643e-06
1.22683e-06
1.22733e-06
1.22792e-06
1.22861e-06
1.22938e-06
1.23025e-06
1.2312e-06
1.23223e-06
1.23333e-06
1.23451e-06
1.23575e-06
1.23706e-06
1.23841e-06
1.23981e-06
1.24125e-06
1.24272e-06
1.2442e-06
1.24569e-06
1.24717e-06
1.24864e-06
1.25007e-06
1.24613e-06
1.24472e-06
1.24333e-06
1.24198e-06
1.24068e-06
1.23942e-06
1.23822e-06
1.23708e-06
1.23601e-06
1.23502e-06
1.2341e-06
1.23327e-06
1.23252e-06
1.23186e-06
1.23129e-06
1.23081e-06
1.23042e-06
1.23013e-06
1.22993e-06
1.22984e-06
1.22984e-06
1.22993e-06
1.23013e-06
1.23042e-06
1.23081e-06
1.23129e-06
1.23186e-06
1.23252e-06
1.23327e-06
1.23411e-06
1.23502e-06
1.23601e-06
1.23708e-06
1.23822e-06
1.23942e-06
1.24068e-06
1.24198e-06
1.24333e-06
1.24472e-06
1.24613e-06
1.24755e-06
1.24898e-06
1.2504e-06
1.2518e-06
1.25316e-06
1.24938e-06
1.24802e-06
1.24669e-06
1.2454e-06
1.24414e-06
1.24293e-06
1.24177e-06
1.24068e-06
1.23965e-06
1.23869e-06
1.23781e-06
1.237e-06
1.23628e-06
1.23564e-06
1.23509e-06
1.23463e-06
1.23426e-06
1.23397e-06
1.23379e-06
1.23369e-06
1.23369e-06
1.23379e-06
1.23397e-06
1.23426e-06
1.23463e-06
1.23509e-06
1.23564e-06
1.23628e-06
1.237e-06
1.23781e-06
1.23869e-06
1.23965e-06
1.24068e-06
1.24177e-06
1.24293e-06
1.24414e-06
1.2454e-06
1.24669e-06
1.24802e-06
1.24938e-06
1.25074e-06
1.25211e-06
1.25347e-06
1.2548e-06
1.25609e-06
1.25247e-06
1.25117e-06
1.2499e-06
1.24865e-06
1.24744e-06
1.24628e-06
1.24517e-06
1.24412e-06
1.24313e-06
1.2422e-06
1.24136e-06
1.24058e-06
1.23989e-06
1.23927e-06
1.23874e-06
1.23829e-06
1.23794e-06
1.23766e-06
1.23748e-06
1.23739e-06
1.23739e-06
1.23748e-06
1.23766e-06
1.23794e-06
1.23829e-06
1.23874e-06
1.23927e-06
1.23989e-06
1.24058e-06
1.24136e-06
1.24221e-06
1.24313e-06
1.24412e-06
1.24517e-06
1.24628e-06
1.24744e-06
1.24865e-06
1.2499e-06
1.25117e-06
1.25247e-06
1.25377e-06
1.25508e-06
1.25637e-06
1.25764e-06
1.25886e-06
1.25663e-06
1.25539e-06
1.25415e-06
1.25293e-06
1.25174e-06
1.25058e-06
1.24947e-06
1.2484e-06
1.24739e-06
1.24644e-06
1.24556e-06
1.24474e-06
1.244e-06
1.24333e-06
1.24274e-06
1.24223e-06
1.2418e-06
1.24146e-06
1.2412e-06
1.24102e-06
1.24093e-06
1.24093e-06
1.24102e-06
1.2412e-06
1.24146e-06
1.2418e-06
1.24223e-06
1.24274e-06
1.24333e-06
1.244e-06
1.24474e-06
1.24556e-06
1.24644e-06
1.24739e-06
1.2484e-06
1.24947e-06
1.25058e-06
1.25174e-06
1.25293e-06
1.25415e-06
1.25539e-06
1.25663e-06
1.25788e-06
1.2591e-06
1.2603e-06
1.26145e-06
1.25932e-06
1.25814e-06
1.25696e-06
1.2558e-06
1.25466e-06
1.25356e-06
1.25249e-06
1.25147e-06
1.2505e-06
1.2496e-06
1.24875e-06
1.24797e-06
1.24725e-06
1.24661e-06
1.24605e-06
1.24556e-06
1.24515e-06
1.24481e-06
1.24457e-06
1.2444e-06
1.24431e-06
1.24431e-06
1.2444e-06
1.24457e-06
1.24481e-06
1.24515e-06
1.24556e-06
1.24605e-06
1.24661e-06
1.24725e-06
1.24797e-06
1.24875e-06
1.2496e-06
1.25051e-06
1.25147e-06
1.25249e-06
1.25356e-06
1.25466e-06
1.2558e-06
1.25696e-06
1.25814e-06
1.25932e-06
1.2605e-06
1.26166e-06
1.26279e-06
1.26386e-06
1.26183e-06
1.26071e-06
1.25959e-06
1.25849e-06
1.25741e-06
1.25636e-06
1.25534e-06
1.25437e-06
1.25345e-06
1.25258e-06
1.25177e-06
1.25102e-06
1.25034e-06
1.24973e-06
1.24919e-06
1.24872e-06
1.24832e-06
1.24801e-06
1.24777e-06
1.24761e-06
1.24753e-06
1.24753e-06
1.24761e-06
1.24777e-06
1.24801e-06
1.24832e-06
1.24872e-06
1.24919e-06
1.24973e-06
1.25034e-06
1.25102e-06
1.25177e-06
1.25258e-06
1.25345e-06
1.25437e-06
1.25534e-06
1.25636e-06
1.25741e-06
1.25849e-06
1.25959e-06
1.26071e-06
1.26183e-06
1.26294e-06
1.26404e-06
1.26509e-06
1.26609e-06
1.2652e-06
1.26416e-06
1.2631e-06
1.26204e-06
1.261e-06
1.25998e-06
1.25898e-06
1.25801e-06
1.25709e-06
1.25621e-06
1.25538e-06
1.25461e-06
1.2539e-06
1.25325e-06
1.25267e-06
1.25215e-06
1.25171e-06
1.25133e-06
1.25103e-06
1.2508e-06
1.25065e-06
1.25057e-06
1.25057e-06
1.25065e-06
1.2508e-06
1.25103e-06
1.25133e-06
1.25171e-06
1.25215e-06
1.25267e-06
1.25325e-06
1.2539e-06
1.25461e-06
1.25538e-06
1.25621e-06
1.25709e-06
1.25801e-06
1.25898e-06
1.25998e-06
1.261e-06
1.26204e-06
1.2631e-06
1.26416e-06
1.2652e-06
1.26623e-06
1.26721e-06
1.26814e-06
1.26727e-06
1.26629e-06
1.2653e-06
1.26431e-06
1.26333e-06
1.26236e-06
1.26141e-06
1.2605e-06
1.25963e-06
1.25879e-06
1.25801e-06
1.25728e-06
1.2566e-06
1.25599e-06
1.25543e-06
1.25494e-06
1.25452e-06
1.25416e-06
1.25387e-06
1.25365e-06
1.25351e-06
1.25344e-06
1.25344e-06
1.25351e-06
1.25365e-06
1.25387e-06
1.25416e-06
1.25452e-06
1.25494e-06
1.25543e-06
1.25599e-06
1.2566e-06
1.25728e-06
1.25801e-06
1.25879e-06
1.25963e-06
1.2605e-06
1.26141e-06
1.26236e-06
1.26333e-06
1.26431e-06
1.2653e-06
1.26629e-06
1.26727e-06
1.26823e-06
1.26914e-06
1.26999e-06
1.27003e-06
1.26914e-06
1.26823e-06
1.26731e-06
1.26638e-06
1.26546e-06
1.26455e-06
1.26366e-06
1.2628e-06
1.26198e-06
1.26119e-06
1.26045e-06
1.25976e-06
1.25912e-06
1.25854e-06
1.25801e-06
1.25755e-06
1.25714e-06
1.2568e-06
1.25653e-06
1.25633e-06
1.25619e-06
1.25612e-06
1.25612e-06
1.25619e-06
1.25633e-06
1.25653e-06
1.2568e-06
1.25714e-06
1.25755e-06
1.25801e-06
1.25854e-06
1.25912e-06
1.25976e-06
1.26045e-06
1.26119e-06
1.26198e-06
1.2628e-06
1.26366e-06
1.26455e-06
1.26546e-06
1.26638e-06
1.26731e-06
1.26823e-06
1.26914e-06
1.27003e-06
1.27086e-06
1.27164e-06
1.27162e-06
1.27081e-06
1.26997e-06
1.26911e-06
1.26825e-06
1.26739e-06
1.26654e-06
1.26571e-06
1.26491e-06
1.26413e-06
1.26339e-06
1.2627e-06
1.26204e-06
1.26144e-06
1.26089e-06
1.2604e-06
1.25996e-06
1.25958e-06
1.25926e-06
1.259e-06
1.25881e-06
1.25868e-06
1.25861e-06
1.25861e-06
1.25868e-06
1.25881e-06
1.259e-06
1.25926e-06
1.25958e-06
1.25996e-06
1.2604e-06
1.26089e-06
1.26144e-06
1.26205e-06
1.2627e-06
1.26339e-06
1.26413e-06
1.26491e-06
1.26571e-06
1.26654e-06
1.26739e-06
1.26825e-06
1.26911e-06
1.26997e-06
1.27081e-06
1.27162e-06
1.27239e-06
1.27308e-06
1.27301e-06
1.27227e-06
1.2715e-06
1.27071e-06
1.26992e-06
1.26912e-06
1.26833e-06
1.26756e-06
1.26681e-06
1.26608e-06
1.26539e-06
1.26474e-06
1.26413e-06
1.26357e-06
1.26305e-06
1.26259e-06
1.26218e-06
1.26182e-06
1.26152e-06
1.26128e-06
1.2611e-06
1.26097e-06
1.26091e-06
1.26091e-06
1.26097e-06
1.2611e-06
1.26128e-06
1.26152e-06
1.26182e-06
1.26218e-06
1.26259e-06
1.26305e-06
1.26357e-06
1.26413e-06
1.26474e-06
1.26539e-06
1.26608e-06
1.26681e-06
1.26756e-06
1.26833e-06
1.26912e-06
1.26992e-06
1.27071e-06
1.2715e-06
1.27227e-06
1.27301e-06
1.2737e-06
1.27432e-06
1.27418e-06
1.27352e-06
1.27282e-06
1.2721e-06
1.27137e-06
1.27064e-06
1.26991e-06
1.2692e-06
1.2685e-06
1.26783e-06
1.26719e-06
1.26658e-06
1.26602e-06
1.26549e-06
1.26501e-06
1.26458e-06
1.26419e-06
1.26386e-06
1.26358e-06
1.26335e-06
1.26318e-06
1.26307e-06
1.26301e-06
1.26301e-06
1.26307e-06
1.26318e-06
1.26335e-06
1.26358e-06
1.26386e-06
1.26419e-06
1.26458e-06
1.26501e-06
1.26549e-06
1.26602e-06
1.26658e-06
1.26719e-06
1.26783e-06
1.2685e-06
1.2692e-06
1.26991e-06
1.27064e-06
1.27137e-06
1.2721e-06
1.27282e-06
1.27352e-06
1.27418e-06
1.27479e-06
1.27533e-06
1.27513e-06
1.27454e-06
1.27391e-06
1.27327e-06
1.27261e-06
1.27194e-06
1.27128e-06
1.27062e-06
1.26998e-06
1.26936e-06
1.26877e-06
1.26821e-06
1.26769e-06
1.2672e-06
1.26676e-06
1.26635e-06
1.266e-06
1.26569e-06
1.26543e-06
1.26522e-06
1.26506e-06
1.26495e-06
1.2649e-06
1.2649e-06
1.26495e-06
1.26506e-06
1.26522e-06
1.26543e-06
1.26569e-06
1.266e-06
1.26635e-06
1.26676e-06
1.2672e-06
1.26769e-06
1.26821e-06
1.26877e-06
1.26936e-06
1.26998e-06
1.27062e-06
1.27128e-06
1.27194e-06
1.27261e-06
1.27327e-06
1.27391e-06
1.27454e-06
1.27513e-06
1.27566e-06
1.27612e-06
1.27629e-06
1.27584e-06
1.27533e-06
1.27478e-06
1.2742e-06
1.27361e-06
1.27301e-06
1.27241e-06
1.27182e-06
1.27124e-06
1.27067e-06
1.27013e-06
1.26962e-06
1.26914e-06
1.26869e-06
1.26828e-06
1.26791e-06
1.26759e-06
1.2673e-06
1.26706e-06
1.26687e-06
1.26672e-06
1.26662e-06
1.26657e-06
1.26657e-06
1.26662e-06
1.26672e-06
1.26687e-06
1.26706e-06
1.2673e-06
1.26759e-06
1.26791e-06
1.26828e-06
1.26869e-06
1.26914e-06
1.26962e-06
1.27013e-06
1.27067e-06
1.27124e-06
1.27182e-06
1.27241e-06
1.27301e-06
1.27361e-06
1.2742e-06
1.27478e-06
1.27533e-06
1.27584e-06
1.27629e-06
1.27667e-06
1.27697e-06
1.27668e-06
1.27631e-06
1.27588e-06
1.2754e-06
1.2749e-06
1.27438e-06
1.27385e-06
1.27332e-06
1.27279e-06
1.27226e-06
1.27175e-06
1.27126e-06
1.2708e-06
1.27036e-06
1.26996e-06
1.26958e-06
1.26925e-06
1.26895e-06
1.26869e-06
1.26847e-06
1.26829e-06
1.26816e-06
1.26807e-06
1.26802e-06
1.26802e-06
1.26807e-06
1.26816e-06
1.26829e-06
1.26847e-06
1.26869e-06
1.26895e-06
1.26925e-06
1.26958e-06
1.26996e-06
1.27036e-06
1.2708e-06
1.27126e-06
1.27175e-06
1.27226e-06
1.27279e-06
1.27332e-06
1.27385e-06
1.27438e-06
1.2749e-06
1.2754e-06
1.27588e-06
1.27631e-06
1.27668e-06
1.27697e-06
1.27703e-06
1.27682e-06
1.27653e-06
1.27618e-06
1.27578e-06
1.27536e-06
1.27491e-06
1.27445e-06
1.27398e-06
1.27351e-06
1.27305e-06
1.27259e-06
1.27216e-06
1.27174e-06
1.27135e-06
1.27099e-06
1.27065e-06
1.27035e-06
1.27008e-06
1.26984e-06
1.26964e-06
1.26948e-06
1.26936e-06
1.26928e-06
1.26924e-06
1.26924e-06
1.26928e-06
1.26936e-06
1.26948e-06
1.26964e-06
1.26984e-06
1.27008e-06
1.27035e-06
1.27065e-06
1.27099e-06
1.27135e-06
1.27174e-06
1.27216e-06
1.27259e-06
1.27305e-06
1.27351e-06
1.27398e-06
1.27445e-06
1.27491e-06
1.27536e-06
1.27578e-06
1.27618e-06
1.27653e-06
1.27682e-06
1.27703e-06
1.27682e-06
1.2767e-06
1.27649e-06
1.27622e-06
1.27591e-06
1.27556e-06
1.27518e-06
1.27479e-06
1.27439e-06
1.27399e-06
1.27358e-06
1.27319e-06
1.2728e-06
1.27244e-06
1.27209e-06
1.27177e-06
1.27147e-06
1.2712e-06
1.27096e-06
1.27075e-06
1.27058e-06
1.27043e-06
1.27033e-06
1.27025e-06
1.27021e-06
1.27021e-06
1.27025e-06
1.27033e-06
1.27043e-06
1.27058e-06
1.27075e-06
1.27096e-06
1.2712e-06
1.27147e-06
1.27177e-06
1.27209e-06
1.27244e-06
1.27281e-06
1.27319e-06
1.27358e-06
1.27399e-06
1.27439e-06
1.27479e-06
1.27518e-06
1.27556e-06
1.27591e-06
1.27622e-06
1.27649e-06
1.2767e-06
1.27681e-06
1.27633e-06
1.2763e-06
1.27618e-06
1.276e-06
1.27576e-06
1.27549e-06
1.27519e-06
1.27488e-06
1.27454e-06
1.2742e-06
1.27386e-06
1.27352e-06
1.2732e-06
1.27288e-06
1.27258e-06
1.2723e-06
1.27204e-06
1.27181e-06
1.2716e-06
1.27142e-06
1.27126e-06
1.27113e-06
1.27104e-06
1.27097e-06
1.27094e-06
1.27094e-06
1.27097e-06
1.27104e-06
1.27113e-06
1.27126e-06
1.27142e-06
1.2716e-06
1.27181e-06
1.27204e-06
1.2723e-06
1.27258e-06
1.27288e-06
1.2732e-06
1.27352e-06
1.27386e-06
1.2742e-06
1.27454e-06
1.27488e-06
1.27519e-06
1.27549e-06
1.27576e-06
1.276e-06
1.27618e-06
1.2763e-06
1.27633e-06
1.27556e-06
1.27562e-06
1.27559e-06
1.27549e-06
1.27534e-06
1.27515e-06
1.27493e-06
1.27468e-06
1.27442e-06
1.27415e-06
1.27387e-06
1.27359e-06
1.27332e-06
1.27306e-06
1.27281e-06
1.27257e-06
1.27235e-06
1.27215e-06
1.27197e-06
1.27182e-06
1.27168e-06
1.27157e-06
1.27149e-06
1.27144e-06
1.27141e-06
1.27141e-06
1.27144e-06
1.27149e-06
1.27157e-06
1.27168e-06
1.27182e-06
1.27197e-06
1.27215e-06
1.27235e-06
1.27257e-06
1.27281e-06
1.27306e-06
1.27332e-06
1.27359e-06
1.27387e-06
1.27415e-06
1.27442e-06
1.27468e-06
1.27493e-06
1.27515e-06
1.27534e-06
1.27549e-06
1.27559e-06
1.27562e-06
1.27556e-06
1.27449e-06
1.27464e-06
1.2747e-06
1.27469e-06
1.27462e-06
1.27451e-06
1.27437e-06
1.27421e-06
1.27402e-06
1.27381e-06
1.2736e-06
1.27338e-06
1.27317e-06
1.27296e-06
1.27275e-06
1.27256e-06
1.27238e-06
1.27222e-06
1.27207e-06
1.27194e-06
1.27183e-06
1.27174e-06
1.27167e-06
1.27163e-06
1.2716e-06
1.2716e-06
1.27163e-06
1.27167e-06
1.27174e-06
1.27183e-06
1.27194e-06
1.27207e-06
1.27222e-06
1.27238e-06
1.27256e-06
1.27275e-06
1.27296e-06
1.27317e-06
1.27338e-06
1.2736e-06
1.27381e-06
1.27402e-06
1.27421e-06
1.27437e-06
1.27451e-06
1.27462e-06
1.27469e-06
1.2747e-06
1.27464e-06
1.27449e-06
1.27311e-06
1.27336e-06
1.27351e-06
1.27358e-06
1.2736e-06
1.27358e-06
1.27352e-06
1.27343e-06
1.27332e-06
1.27318e-06
1.27303e-06
1.27288e-06
1.27272e-06
1.27256e-06
1.27241e-06
1.27227e-06
1.27213e-06
1.272e-06
1.27189e-06
1.27179e-06
1.2717e-06
1.27163e-06
1.27157e-06
1.27153e-06
1.27152e-06
1.27152e-06
1.27153e-06
1.27157e-06
1.27163e-06
1.2717e-06
1.27179e-06
1.27189e-06
1.272e-06
1.27213e-06
1.27227e-06
1.27241e-06
1.27256e-06
1.27272e-06
1.27288e-06
1.27303e-06
1.27318e-06
1.27332e-06
1.27343e-06
1.27352e-06
1.27358e-06
1.2736e-06
1.27358e-06
1.27351e-06
1.27336e-06
1.27311e-06
1.2714e-06
1.27175e-06
1.27199e-06
1.27216e-06
1.27227e-06
1.27233e-06
1.27235e-06
1.27234e-06
1.2723e-06
1.27224e-06
1.27216e-06
1.27207e-06
1.27197e-06
1.27187e-06
1.27177e-06
1.27167e-06
1.27158e-06
1.27149e-06
1.2714e-06
1.27133e-06
1.27127e-06
1.27122e-06
1.27117e-06
1.27115e-06
1.27113e-06
1.27113e-06
1.27115e-06
1.27117e-06
1.27122e-06
1.27127e-06
1.27133e-06
1.2714e-06
1.27149e-06
1.27158e-06
1.27167e-06
1.27177e-06
1.27187e-06
1.27197e-06
1.27207e-06
1.27216e-06
1.27224e-06
1.2723e-06
1.27234e-06
1.27235e-06
1.27233e-06
1.27227e-06
1.27216e-06
1.27199e-06
1.27175e-06
1.2714e-06
1.26935e-06
1.26979e-06
1.27014e-06
1.2704e-06
1.2706e-06
1.27075e-06
1.27086e-06
1.27093e-06
1.27097e-06
1.27098e-06
1.27097e-06
1.27094e-06
1.27091e-06
1.27086e-06
1.27081e-06
1.27076e-06
1.27071e-06
1.27066e-06
1.27061e-06
1.27057e-06
1.27053e-06
1.27049e-06
1.27047e-06
1.27045e-06
1.27044e-06
1.27044e-06
1.27045e-06
1.27047e-06
1.27049e-06
1.27053e-06
1.27057e-06
1.27061e-06
1.27066e-06
1.27071e-06
1.27076e-06
1.27081e-06
1.27086e-06
1.27091e-06
1.27094e-06
1.27097e-06
1.27098e-06
1.27097e-06
1.27093e-06
1.27086e-06
1.27075e-06
1.2706e-06
1.2704e-06
1.27014e-06
1.26979e-06
1.26935e-06
1.26693e-06
1.26749e-06
1.26793e-06
1.26829e-06
1.26858e-06
1.26882e-06
1.26902e-06
1.26918e-06
1.26929e-06
1.26938e-06
1.26944e-06
1.26948e-06
1.26951e-06
1.26952e-06
1.26953e-06
1.26952e-06
1.26952e-06
1.2695e-06
1.26949e-06
1.26948e-06
1.26946e-06
1.26945e-06
1.26944e-06
1.26943e-06
1.26942e-06
1.26942e-06
1.26943e-06
1.26944e-06
1.26945e-06
1.26946e-06
1.26948e-06
1.26949e-06
1.2695e-06
1.26952e-06
1.26952e-06
1.26953e-06
1.26952e-06
1.26951e-06
1.26948e-06
1.26944e-06
1.26938e-06
1.26929e-06
1.26918e-06
1.26902e-06
1.26882e-06
1.26858e-06
1.26829e-06
1.26793e-06
1.26749e-06
1.26693e-06
1.26414e-06
1.2648e-06
1.26535e-06
1.26581e-06
1.2662e-06
1.26653e-06
1.26682e-06
1.26706e-06
1.26726e-06
1.26742e-06
1.26756e-06
1.26767e-06
1.26776e-06
1.26783e-06
1.26789e-06
1.26794e-06
1.26798e-06
1.26801e-06
1.26803e-06
1.26804e-06
1.26806e-06
1.26806e-06
1.26807e-06
1.26807e-06
1.26807e-06
1.26807e-06
1.26807e-06
1.26807e-06
1.26806e-06
1.26806e-06
1.26805e-06
1.26803e-06
1.26801e-06
1.26798e-06
1.26794e-06
1.26789e-06
1.26783e-06
1.26776e-06
1.26767e-06
1.26756e-06
1.26743e-06
1.26726e-06
1.26706e-06
1.26682e-06
1.26653e-06
1.2662e-06
1.26581e-06
1.26535e-06
1.2648e-06
1.26414e-06
1.26096e-06
1.26172e-06
1.26237e-06
1.26294e-06
1.26343e-06
1.26386e-06
1.26424e-06
1.26457e-06
1.26485e-06
1.2651e-06
1.26531e-06
1.26549e-06
1.26564e-06
1.26578e-06
1.26589e-06
1.26599e-06
1.26608e-06
1.26615e-06
1.26621e-06
1.26625e-06
1.26629e-06
1.26632e-06
1.26634e-06
1.26635e-06
1.26636e-06
1.26636e-06
1.26635e-06
1.26634e-06
1.26632e-06
1.26629e-06
1.26625e-06
1.26621e-06
1.26615e-06
1.26608e-06
1.26599e-06
1.26589e-06
1.26578e-06
1.26564e-06
1.26549e-06
1.26531e-06
1.2651e-06
1.26485e-06
1.26457e-06
1.26424e-06
1.26386e-06
1.26343e-06
1.26294e-06
1.26237e-06
1.26172e-06
1.26096e-06
1.25735e-06
1.25823e-06
1.25899e-06
1.25966e-06
1.26025e-06
1.26078e-06
1.26126e-06
1.26168e-06
1.26205e-06
1.26237e-06
1.26266e-06
1.26291e-06
1.26314e-06
1.26334e-06
1.26351e-06
1.26366e-06
1.2638e-06
1.26391e-06
1.26401e-06
1.26408e-06
1.26415e-06
1.2642e-06
1.26423e-06
1.26426e-06
1.26427e-06
1.26427e-06
1.26426e-06
1.26423e-06
1.2642e-06
1.26415e-06
1.26409e-06
1.26401e-06
1.26391e-06
1.2638e-06
1.26366e-06
1.26351e-06
1.26334e-06
1.26314e-06
1.26291e-06
1.26266e-06
1.26237e-06
1.26205e-06
1.26168e-06
1.26126e-06
1.26078e-06
1.26025e-06
1.25965e-06
1.25899e-06
1.25823e-06
1.25735e-06
1.25329e-06
1.25429e-06
1.25516e-06
1.25594e-06
1.25664e-06
1.25728e-06
1.25785e-06
1.25837e-06
1.25883e-06
1.25924e-06
1.2596e-06
1.25993e-06
1.26023e-06
1.26049e-06
1.26072e-06
1.26093e-06
1.26111e-06
1.26127e-06
1.2614e-06
1.26152e-06
1.26161e-06
1.26168e-06
1.26173e-06
1.26177e-06
1.26178e-06
1.26178e-06
1.26177e-06
1.26173e-06
1.26168e-06
1.26161e-06
1.26152e-06
1.2614e-06
1.26127e-06
1.26111e-06
1.26093e-06
1.26072e-06
1.26049e-06
1.26023e-06
1.25993e-06
1.2596e-06
1.25924e-06
1.25883e-06
1.25837e-06
1.25785e-06
1.25728e-06
1.25664e-06
1.25594e-06
1.25516e-06
1.25429e-06
1.25329e-06
1.24877e-06
1.24989e-06
1.25088e-06
1.25177e-06
1.25258e-06
1.25332e-06
1.254e-06
1.25461e-06
1.25516e-06
1.25566e-06
1.25611e-06
1.25652e-06
1.25688e-06
1.25721e-06
1.25751e-06
1.25777e-06
1.258e-06
1.25821e-06
1.25838e-06
1.25853e-06
1.25865e-06
1.25874e-06
1.25881e-06
1.25886e-06
1.25888e-06
1.25888e-06
1.25886e-06
1.25881e-06
1.25874e-06
1.25865e-06
1.25853e-06
1.25838e-06
1.25821e-06
1.258e-06
1.25777e-06
1.25751e-06
1.25721e-06
1.25688e-06
1.25652e-06
1.25611e-06
1.25566e-06
1.25516e-06
1.25461e-06
1.254e-06
1.25332e-06
1.25258e-06
1.25177e-06
1.25088e-06
1.24989e-06
1.24877e-06
1.24376e-06
1.245e-06
1.24611e-06
1.24712e-06
1.24804e-06
1.24889e-06
1.24967e-06
1.25039e-06
1.25103e-06
1.25162e-06
1.25215e-06
1.25264e-06
1.25308e-06
1.25348e-06
1.25384e-06
1.25416e-06
1.25445e-06
1.2547e-06
1.25491e-06
1.25509e-06
1.25524e-06
1.25536e-06
1.25545e-06
1.25551e-06
1.25553e-06
1.25553e-06
1.25551e-06
1.25545e-06
1.25536e-06
1.25524e-06
1.25509e-06
1.25491e-06
1.2547e-06
1.25445e-06
1.25416e-06
1.25384e-06
1.25348e-06
1.25308e-06
1.25264e-06
1.25215e-06
1.25162e-06
1.25103e-06
1.25039e-06
1.24967e-06
1.24889e-06
1.24804e-06
1.24712e-06
1.24611e-06
1.245e-06
1.24376e-06
1.23821e-06
1.23958e-06
1.24082e-06
1.24195e-06
1.24299e-06
1.24395e-06
1.24485e-06
1.24566e-06
1.24641e-06
1.24709e-06
1.24771e-06
1.24828e-06
1.2488e-06
1.24927e-06
1.24969e-06
1.25008e-06
1.25041e-06
1.25071e-06
1.25097e-06
1.25119e-06
1.25137e-06
1.25151e-06
1.25162e-06
1.25169e-06
1.25172e-06
1.25172e-06
1.25169e-06
1.25162e-06
1.25151e-06
1.25137e-06
1.25119e-06
1.25097e-06
1.25071e-06
1.25041e-06
1.25008e-06
1.24969e-06
1.24927e-06
1.2488e-06
1.24828e-06
1.24771e-06
1.24709e-06
1.24641e-06
1.24566e-06
1.24485e-06
1.24395e-06
1.24299e-06
1.24195e-06
1.24082e-06
1.23958e-06
1.23821e-06
1.23211e-06
1.23362e-06
1.23498e-06
1.23624e-06
1.2374e-06
1.23848e-06
1.23949e-06
1.24041e-06
1.24126e-06
1.24203e-06
1.24275e-06
1.2434e-06
1.244e-06
1.24454e-06
1.24504e-06
1.24548e-06
1.24588e-06
1.24622e-06
1.24653e-06
1.24678e-06
1.24699e-06
1.24716e-06
1.24729e-06
1.24737e-06
1.24741e-06
1.24741e-06
1.24737e-06
1.24729e-06
1.24716e-06
1.24699e-06
1.24678e-06
1.24653e-06
1.24622e-06
1.24588e-06
1.24548e-06
1.24504e-06
1.24455e-06
1.244e-06
1.2434e-06
1.24275e-06
1.24203e-06
1.24126e-06
1.24041e-06
1.23949e-06
1.23848e-06
1.2374e-06
1.23624e-06
1.23498e-06
1.23362e-06
1.23211e-06
1.22542e-06
1.22706e-06
1.22856e-06
1.22995e-06
1.23124e-06
1.23244e-06
1.23356e-06
1.2346e-06
1.23555e-06
1.23643e-06
1.23723e-06
1.23798e-06
1.23866e-06
1.23928e-06
1.23984e-06
1.24035e-06
1.2408e-06
1.2412e-06
1.24155e-06
1.24184e-06
1.24209e-06
1.24228e-06
1.24243e-06
1.24252e-06
1.24257e-06
1.24257e-06
1.24252e-06
1.24243e-06
1.24228e-06
1.24209e-06
1.24184e-06
1.24155e-06
1.2412e-06
1.2408e-06
1.24035e-06
1.23984e-06
1.23928e-06
1.23866e-06
1.23798e-06
1.23723e-06
1.23643e-06
1.23555e-06
1.2346e-06
1.23356e-06
1.23244e-06
1.23124e-06
1.22995e-06
1.22856e-06
1.22706e-06
1.22542e-06
1.2181e-06
1.21988e-06
1.22152e-06
1.22304e-06
1.22446e-06
1.22579e-06
1.22703e-06
1.22819e-06
1.22925e-06
1.23023e-06
1.23113e-06
1.23197e-06
1.23273e-06
1.23343e-06
1.23407e-06
1.23464e-06
1.23516e-06
1.23561e-06
1.23601e-06
1.23634e-06
1.23662e-06
1.23684e-06
1.237e-06
1.23711e-06
1.23716e-06
1.23716e-06
1.23711e-06
1.237e-06
1.23684e-06
1.23662e-06
1.23634e-06
1.23601e-06
1.23561e-06
1.23516e-06
1.23465e-06
1.23407e-06
1.23343e-06
1.23273e-06
1.23197e-06
1.23113e-06
1.23023e-06
1.22925e-06
1.22819e-06
1.22703e-06
1.22579e-06
1.22446e-06
1.22304e-06
1.22152e-06
1.21988e-06
1.2181e-06
1.2101e-06
1.21203e-06
1.21382e-06
1.21548e-06
1.21703e-06
1.2185e-06
1.21986e-06
1.22114e-06
1.22231e-06
1.2234e-06
1.22441e-06
1.22533e-06
1.22619e-06
1.22697e-06
1.22769e-06
1.22833e-06
1.2289e-06
1.22941e-06
1.22986e-06
1.23023e-06
1.23055e-06
1.2308e-06
1.23098e-06
1.2311e-06
1.23116e-06
1.23116e-06
1.2311e-06
1.23098e-06
1.2308e-06
1.23055e-06
1.23023e-06
1.22986e-06
1.22941e-06
1.22891e-06
1.22833e-06
1.22769e-06
1.22697e-06
1.22619e-06
1.22533e-06
1.22441e-06
1.2234e-06
1.22231e-06
1.22114e-06
1.21986e-06
1.2185e-06
1.21703e-06
1.21548e-06
1.21382e-06
1.21203e-06
1.2101e-06
1.20139e-06
1.20348e-06
1.20541e-06
1.20722e-06
1.20892e-06
1.21051e-06
1.21201e-06
1.21341e-06
1.2147e-06
1.2159e-06
1.21701e-06
1.21804e-06
1.21899e-06
1.21986e-06
1.22065e-06
1.22136e-06
1.222e-06
1.22257e-06
1.22306e-06
1.22348e-06
1.22383e-06
1.22411e-06
1.22432e-06
1.22445e-06
1.22452e-06
1.22452e-06
1.22445e-06
1.22432e-06
1.22411e-06
1.22383e-06
1.22348e-06
1.22306e-06
1.22257e-06
1.222e-06
1.22136e-06
1.22065e-06
1.21986e-06
1.21899e-06
1.21804e-06
1.21701e-06
1.2159e-06
1.2147e-06
1.21341e-06
1.21201e-06
1.21051e-06
1.20892e-06
1.20722e-06
1.20541e-06
1.20348e-06
1.20139e-06
1.19191e-06
1.19416e-06
1.19625e-06
1.19821e-06
1.20005e-06
1.20179e-06
1.20343e-06
1.20495e-06
1.20637e-06
1.20768e-06
1.2089e-06
1.21004e-06
1.21108e-06
1.21204e-06
1.21291e-06
1.2137e-06
1.21441e-06
1.21503e-06
1.21558e-06
1.21604e-06
1.21643e-06
1.21674e-06
1.21697e-06
1.21712e-06
1.21719e-06
1.21719e-06
1.21712e-06
1.21697e-06
1.21674e-06
1.21643e-06
1.21604e-06
1.21558e-06
1.21503e-06
1.21441e-06
1.2137e-06
1.21291e-06
1.21204e-06
1.21108e-06
1.21004e-06
1.2089e-06
1.20768e-06
1.20637e-06
1.20495e-06
1.20343e-06
1.20179e-06
1.20005e-06
1.19821e-06
1.19625e-06
1.19416e-06
1.19191e-06
1.18162e-06
1.18404e-06
1.18629e-06
1.1884e-06
1.1904e-06
1.19229e-06
1.19406e-06
1.19572e-06
1.19727e-06
1.1987e-06
1.20003e-06
1.20127e-06
1.20242e-06
1.20346e-06
1.20442e-06
1.20529e-06
1.20607e-06
1.20676e-06
1.20736e-06
1.20787e-06
1.2083e-06
1.20863e-06
1.20889e-06
1.20905e-06
1.20913e-06
1.20913e-06
1.20905e-06
1.20889e-06
1.20863e-06
1.2083e-06
1.20787e-06
1.20736e-06
1.20676e-06
1.20607e-06
1.20529e-06
1.20442e-06
1.20347e-06
1.20242e-06
1.20127e-06
1.20004e-06
1.1987e-06
1.19727e-06
1.19572e-06
1.19406e-06
1.19229e-06
1.1904e-06
1.1884e-06
1.18629e-06
1.18404e-06
1.18162e-06
1.17046e-06
1.17304e-06
1.17547e-06
1.17775e-06
1.1799e-06
1.18194e-06
1.18386e-06
1.18566e-06
1.18734e-06
1.1889e-06
1.19035e-06
1.1917e-06
1.19294e-06
1.19409e-06
1.19514e-06
1.19608e-06
1.19693e-06
1.19769e-06
1.19834e-06
1.19891e-06
1.19937e-06
1.19974e-06
1.20002e-06
1.2002e-06
1.20029e-06
1.20029e-06
1.2002e-06
1.20002e-06
1.19974e-06
1.19937e-06
1.19891e-06
1.19834e-06
1.19769e-06
1.19693e-06
1.19608e-06
1.19514e-06
1.19409e-06
1.19294e-06
1.1917e-06
1.19035e-06
1.1889e-06
1.18734e-06
1.18566e-06
1.18386e-06
1.18194e-06
1.1799e-06
1.17775e-06
1.17547e-06
1.17304e-06
1.17046e-06
1.15836e-06
1.16113e-06
1.16372e-06
1.16617e-06
1.16849e-06
1.17069e-06
1.17276e-06
1.17471e-06
1.17652e-06
1.17821e-06
1.17979e-06
1.18125e-06
1.18261e-06
1.18385e-06
1.18499e-06
1.18602e-06
1.18695e-06
1.18777e-06
1.18848e-06
1.1891e-06
1.1896e-06
1.19001e-06
1.19031e-06
1.19051e-06
1.19061e-06
1.19061e-06
1.19051e-06
1.19031e-06
1.19001e-06
1.1896e-06
1.1891e-06
1.18848e-06
1.18777e-06
1.18695e-06
1.18602e-06
1.18499e-06
1.18385e-06
1.18261e-06
1.18125e-06
1.17979e-06
1.17821e-06
1.17652e-06
1.17471e-06
1.17276e-06
1.17069e-06
1.16849e-06
1.16617e-06
1.16372e-06
1.16113e-06
1.15836e-06
1.14526e-06
1.14822e-06
1.151e-06
1.15362e-06
1.15611e-06
1.15848e-06
1.16071e-06
1.1628e-06
1.16476e-06
1.16658e-06
1.16829e-06
1.16987e-06
1.17134e-06
1.17269e-06
1.17392e-06
1.17504e-06
1.17604e-06
1.17693e-06
1.17771e-06
1.17838e-06
1.17893e-06
1.17937e-06
1.1797e-06
1.17992e-06
1.18002e-06
1.18002e-06
1.17992e-06
1.1797e-06
1.17937e-06
1.17893e-06
1.17838e-06
1.17771e-06
1.17693e-06
1.17604e-06
1.17504e-06
1.17392e-06
1.17269e-06
1.17134e-06
1.16987e-06
1.16829e-06
1.16658e-06
1.16476e-06
1.1628e-06
1.16071e-06
1.15848e-06
1.15611e-06
1.15362e-06
1.151e-06
1.14822e-06
1.14526e-06
1.13109e-06
1.13425e-06
1.13721e-06
1.14002e-06
1.14269e-06
1.14522e-06
1.14762e-06
1.14987e-06
1.15198e-06
1.15394e-06
1.15578e-06
1.15749e-06
1.15907e-06
1.16053e-06
1.16186e-06
1.16307e-06
1.16416e-06
1.16512e-06
1.16596e-06
1.16668e-06
1.16728e-06
1.16776e-06
1.16811e-06
1.16835e-06
1.16846e-06
1.16846e-06
1.16835e-06
1.16811e-06
1.16776e-06
1.16728e-06
1.16668e-06
1.16596e-06
1.16512e-06
1.16416e-06
1.16307e-06
1.16186e-06
1.16053e-06
1.15907e-06
1.15749e-06
1.15578e-06
1.15394e-06
1.15198e-06
1.14987e-06
1.14762e-06
1.14522e-06
1.14269e-06
1.14002e-06
1.13721e-06
1.13425e-06
1.13109e-06
1.11578e-06
1.11914e-06
1.1223e-06
1.1253e-06
1.12815e-06
1.13086e-06
1.13343e-06
1.13584e-06
1.1381e-06
1.14021e-06
1.14219e-06
1.14403e-06
1.14573e-06
1.1473e-06
1.14873e-06
1.15004e-06
1.15121e-06
1.15225e-06
1.15316e-06
1.15393e-06
1.15458e-06
1.1551e-06
1.15548e-06
1.15573e-06
1.15586e-06
1.15586e-06