/*--------------------------------*- C++ -*----------------------------------*\
  =========                 |
  \\      /  F ield         | OpenFOAM: The Open Source CFD Toolbox
   \\    /   O peration     | Website:  https://openfoam.org
    \\  /    A nd           | Version:  7
     \\/     M anipulation  |
\*---------------------------------------------------------------------------*/
FoamFile
{
    version     2.0;
    format      ascii;
    class       volVectorField;
    location    "244000";
    object      vorticity;
}
// * * * * * * * * * * * * * * * * * * * * * * * * * * * * * * * * * * * * * //

dimensions      [0 0 -1 0 0 0 0];

internalField   nonuniform List<vector> 
4764
(
(0.0281329 0.00978542 6.37358e-18)
(0.0283101 0.00885183 -7.33646e-18)
(0.0284688 0.00791862 -4.97881e-18)
(0.0286093 0.0069858 -6.23608e-18)
(0.0287317 0.00605338 -9.32838e-18)
(0.0288363 0.00512135 3.94708e-18)
(0.0261951 0.0185651 2.62571e-18)
(0.0265614 0.017615 -1.53344e-17)
(0.0269053 0.0166634 -1.11128e-17)
(0.0272275 0.0157107 4.7721e-18)
(0.0275284 0.0147573 3.5183e-18)
(0.0278083 0.0138036 -7.91101e-18)
(0.0280678 0.0128496 -7.82884e-18)
(0.0283071 0.0118957 2.32947e-18)
(0.0285265 0.010942 1.60599e-17)
(0.0287266 0.0099885 6.94143e-18)
(0.0289075 0.00903542 -6.62649e-18)
(0.0290694 0.00808275 -5.2089e-18)
(0.0292128 0.00713052 -6.53515e-18)
(0.0293377 0.00617873 -1.04733e-17)
(0.0294444 0.00522735 2.0961e-18)
(0.0295331 0.00427636 1.63477e-18)
(0.0296039 0.00332569 -4.66273e-18)
(0.0296568 0.0023753 3.72817e-18)
(0.0296921 0.0014251 -2.23237e-18)
(0.0297097 0.000475022 -9.95672e-19)
(0.0297097 -0.000475017 1.07179e-17)
(0.0296921 -0.0014251 1.3202e-17)
(0.0296568 -0.00237529 1.57702e-17)
(0.0296039 -0.00332569 2.08664e-18)
(0.0295331 -0.00427635 5.94791e-18)
(0.0294444 -0.00522735 1.24452e-19)
(0.0293377 -0.00617873 -3.98559e-18)
(0.0292128 -0.00713052 3.29742e-19)
(0.0290694 -0.00808275 -8.14299e-18)
(0.0267514 0.0189562 2.67543e-18)
(0.0271255 0.0179856 -1.49858e-17)
(0.0274768 0.0170136 -1.24781e-17)
(0.0278059 0.0160405 5.32224e-18)
(0.0281131 0.0150668 4.52455e-18)
(0.0283989 0.0140928 -8.53486e-18)
(0.0286638 0.0131186 -7.47862e-18)
(0.0289081 0.0121445 2.94163e-18)
(0.0291322 0.0111706 1.54032e-17)
(0.0293363 0.0101971 6.2437e-18)
(0.029521 0.00922398 -6.51881e-18)
(0.0296863 0.00825134 -4.40326e-18)
(0.0298326 0.00727917 -5.67499e-18)
(0.0299601 0.00630747 -1.12922e-17)
(0.030069 0.00533623 2.50427e-19)
(0.0301595 0.00436539 1.79332e-18)
(0.0302317 0.00339492 -4.50888e-18)
(0.0302857 0.00242473 4.03081e-18)
(0.0303217 0.00145475 -1.54983e-18)
(0.0303397 0.000484905 -1.7935e-18)
(0.0303397 -0.0004849 1.05753e-17)
(0.0303217 -0.00145475 1.46168e-17)
(0.0302857 -0.00242473 1.57124e-17)
(0.0302317 -0.00339491 2.86392e-19)
(0.0301595 -0.00436539 5.18001e-18)
(0.030069 -0.00533622 -2.46603e-19)
(0.0299601 -0.00630747 -4.97349e-18)
(0.0298326 -0.00727916 -9.53639e-19)
(0.0296863 -0.00825134 -8.71678e-18)
(0.029521 -0.00922398 -1.05433e-17)
(0.0293363 -0.0101971 -8.60553e-18)
(0.0291321 -0.0111706 -4.9675e-18)
(0.0289081 -0.0121445 -8.00884e-18)
(0.0273232 0.0193581 2.81181e-18)
(0.0277054 0.0183665 -1.55536e-17)
(0.0280642 0.0173735 -1.54533e-17)
(0.0284002 0.0163795 3.86073e-18)
(0.028714 0.0153849 4.26273e-18)
(0.0290058 0.01439 -9.86537e-18)
(0.0292763 0.013395 -6.62318e-18)
(0.0295257 0.0124002 4.33953e-18)
(0.0297544 0.0114056 1.47019e-17)
(0.0299629 0.0104114 4.7641e-18)
(0.0301513 0.00941774 -6.30731e-18)
(0.0303201 0.00842456 -3.00059e-18)
(0.0304694 0.0074319 -4.92004e-18)
(0.0305995 0.00643975 -1.17735e-17)
(0.0307106 0.00544809 -1.12369e-18)
(0.030803 0.00445687 1.22544e-18)
(0.0308767 0.00346604 -5.29396e-18)
(0.0309318 0.00247552 3.82278e-18)
(0.0309686 0.00148522 -3.2232e-19)
(0.0309869 0.000495059 -1.50161e-18)
(0.0309869 -0.000495055 1.09308e-17)
(0.0309686 -0.00148522 1.52941e-17)
(0.0309318 -0.00247551 1.48795e-17)
(0.0308767 -0.00346604 -1.60024e-18)
(0.030803 -0.00445687 5.34855e-18)
(0.0307106 -0.00544808 1.23631e-18)
(0.0305995 -0.00643974 -4.36989e-18)
(0.0304694 -0.0074319 -2.09416e-18)
(0.0303201 -0.00842456 -9.06696e-18)
(0.0301513 -0.00941774 -1.01537e-17)
(0.0299629 -0.0104114 -9.4459e-18)
(0.0297544 -0.0114056 -6.86547e-18)
(0.0295257 -0.0124002 -9.26542e-18)
(0.0292763 -0.013395 -1.54313e-17)
(0.0290058 -0.01439 -2.22292e-17)
(0.028714 -0.0153849 -7.62127e-18)
(0.0284002 -0.0163795 -1.60257e-17)
(0.0280642 -0.0173735 -1.20363e-17)
(0.0277054 -0.0183665 -2.43251e-18)
(0.0273232 -0.0193581 5.79672e-18)
(0.0269174 -0.0203479 8.20875e-19)
(0.0264874 -0.0213351 2.32539e-18)
(0.0260328 -0.0223188 -6.65854e-19)
(0.0255534 -0.0232973 -2.31297e-19)
(0.0256601 -0.0236503 1.76795e-17)
(0.0279111 0.0197714 3.02748e-18)
(0.0283015 0.0187582 -1.61495e-17)
(0.028668 0.0177435 -1.87387e-17)
(0.0290113 0.016728 1.28471e-18)
(0.0293317 0.0157119 3.75034e-18)
(0.0296298 0.0146955 -1.1412e-17)
(0.0299059 0.0136792 -6.42247e-18)
(0.0301606 0.012663 5.36248e-18)
(0.0303941 0.0116472 1.41207e-17)
(0.0306069 0.0106318 3.21094e-18)
(0.0307993 0.00961691 -5.65647e-18)
(0.0309715 0.00860262 -1.13435e-18)
(0.0311239 0.00758889 -4.57081e-18)
(0.0312567 0.00657571 -1.21677e-17)
(0.0313701 0.00556307 -2.13993e-18)
(0.0314644 0.0045509 3.64358e-19)
(0.0315396 0.00353915 -6.47648e-18)
(0.0315959 0.00252772 3.2168e-18)
(0.0316333 0.00151653 1.08723e-18)
(0.0316521 0.000505496 -3.81065e-19)
(0.0316521 -0.000505492 1.16424e-17)
(0.0316333 -0.00151653 1.52018e-17)
(0.0315959 -0.00252771 1.38135e-17)
(0.0315396 -0.00353914 -2.98891e-18)
(0.0314644 -0.0045509 5.81381e-18)
(0.0313701 -0.00556306 3.48368e-18)
(0.0312567 -0.00657571 -2.934e-18)
(0.0311239 -0.00758888 -3.14599e-18)
(0.0309715 -0.00860262 -8.74115e-18)
(0.0307993 -0.00961691 -9.35877e-18)
(0.0306069 -0.0106318 -1.04568e-17)
(0.0303941 -0.0116472 -7.67941e-18)
(0.0301606 -0.012663 -9.11864e-18)
(0.0299059 -0.0136792 -1.66857e-17)
(0.0296298 -0.0146955 -2.26534e-17)
(0.0293317 -0.0157119 -8.8885e-18)
(0.0290113 -0.016728 -2.11022e-17)
(0.028668 -0.0177435 -1.60245e-17)
(0.0283015 -0.0187582 -5.60032e-18)
(0.0279111 -0.0197714 3.97188e-18)
(0.0274966 -0.0207829 -1.61611e-18)
(0.0270572 -0.0217917 3.24177e-19)
(0.0265927 -0.0227973 -1.0487e-19)
(0.0261034 -0.0237976 1.00478e-18)
(0.0262034 -0.0241787 1.58698e-17)
(0.0285159 0.0201965 2.92591e-18)
(0.0289147 0.019161 -1.628e-17)
(0.0292891 0.0181241 -2.16827e-17)
(0.0296397 0.0170864 -1.3089e-18)
(0.029967 0.0160482 3.40862e-18)
(0.0302714 0.0150098 -1.27508e-17)
(0.0305534 0.0139714 -6.85433e-18)
(0.0308134 0.0129333 6.29307e-18)
(0.0310519 0.0118956 1.37363e-17)
(0.0312691 0.0108583 1.76856e-18)
(0.0314655 0.00982172 -4.65588e-18)
(0.0316413 0.00878571 7.05769e-19)
(0.0317969 0.00775032 -4.65034e-18)
(0.0319325 0.00671552 -1.24232e-17)
(0.0320482 0.0056813 -2.56967e-18)
(0.0321444 0.00464758 -3.16441e-19)
(0.0322212 0.00361431 -7.44242e-18)
(0.0322786 0.00258139 2.41396e-18)
(0.0323169 0.00154873 2.11244e-18)
(0.032336 0.000516228 1.02158e-18)
(0.032336 -0.000516224 1.2494e-17)
(0.0323169 -0.00154873 1.46979e-17)
(0.0322786 -0.00258139 1.32478e-17)
(0.0322212 -0.00361431 -3.63534e-18)
(0.0321444 -0.00464758 5.95459e-18)
(0.0320482 -0.00568129 5.54353e-18)
(0.0319324 -0.00671552 -1.23486e-18)
(0.0317969 -0.00775031 -3.89879e-18)
(0.0316413 -0.00878571 -8.5342e-18)
(0.0314655 -0.00982172 -8.3681e-18)
(0.0312691 -0.0108583 -1.08875e-17)
(0.0310519 -0.0118956 -8.00645e-18)
(0.0308134 -0.0129333 -8.05829e-18)
(0.0305534 -0.0139714 -1.7388e-17)
(0.0302714 -0.0150098 -2.26199e-17)
(0.029967 -0.0160482 -8.17427e-18)
(0.0296397 -0.0170864 -2.28976e-17)
(0.0292891 -0.0181241 -1.62416e-17)
(0.0289147 -0.019161 -5.53826e-18)
(0.0285159 -0.0201965 3.52738e-18)
(0.0280923 -0.0212303 -2.47878e-18)
(0.0276434 -0.0222616 -1.06198e-19)
(0.0271689 -0.0232896 1.15203e-18)
(0.02667 -0.0243138 3.07135e-18)
(0.0267659 -0.024726 1.59962e-17)
(0.0291382 0.020634 2.49859e-18)
(0.0295457 0.0195755 -1.59774e-17)
(0.0299281 0.0185157 -2.42458e-17)
(0.0302864 0.0174552 -3.12188e-18)
(0.0306206 0.0163942 3.17278e-18)
(0.0309315 0.0153331 -1.42541e-17)
(0.0312196 0.0142721 -7.00924e-18)
(0.0314851 0.0132114 7.54842e-18)
(0.0317285 0.0121511 1.32818e-17)
(0.0319504 0.0110914 6.06636e-19)
(0.0321509 0.0100324 -3.40284e-18)
(0.0323304 0.00897407 2.25359e-18)
(0.0324892 0.00791638 -5.60292e-18)
(0.0326275 0.00685934 -1.27663e-17)
(0.0327457 0.00580291 -2.13395e-18)
(0.0328439 0.00474704 -8.69794e-19)
(0.0329222 0.00369163 -8.08518e-18)
(0.0329809 0.00263661 1.71338e-18)
(0.0330199 0.00158185 2.92621e-18)
(0.0330394 0.000527267 2.30456e-18)
(0.0330394 -0.000527263 1.31133e-17)
(0.0330199 -0.00158185 1.41523e-17)
(0.0329809 -0.0026366 1.34877e-17)
(0.0329222 -0.00369163 -3.89914e-18)
(0.0328439 -0.00474703 5.47917e-18)
(0.0327457 -0.00580291 7.54732e-18)
(0.0326275 -0.00685933 2.49572e-19)
(0.0324892 -0.00791637 -4.44535e-18)
(0.0323304 -0.00897406 -8.31711e-18)
(0.0321509 -0.0100324 -7.36033e-18)
(0.0319503 -0.0110914 -1.06628e-17)
(0.0317285 -0.0121511 -8.6088e-18)
(0.0314851 -0.0132114 -6.83847e-18)
(0.0312196 -0.0142721 -1.7026e-17)
(0.0309315 -0.0153331 -2.23133e-17)
(0.0306206 -0.0163942 -6.71502e-18)
(0.0302863 -0.0174552 -2.24182e-17)
(0.0299281 -0.0185157 -1.44494e-17)
(0.0295457 -0.0195755 -3.67176e-18)
(0.0291382 -0.020634 4.05089e-18)
(0.0287055 -0.0216909 -2.66419e-18)
(0.0282477 -0.0227459 7.04947e-20)
(0.0277643 -0.0237985 2.16071e-18)
(0.0272568 -0.0248493 5.7375e-18)
(0.0273467 -0.0252918 1.76917e-17)
(0.0297802 0.0210853 2.12926e-18)
(0.0301954 0.0200024 -1.56784e-17)
(0.030586 0.0189189 -2.62972e-17)
(0.0309519 0.0178348 -4.61505e-18)
(0.0312934 0.0167504 2.583e-18)
(0.0316109 0.0156658 -1.59003e-17)
(0.0319051 0.0145815 -7.25977e-18)
(0.0321763 0.0134976 8.80689e-18)
(0.0324249 0.0124141 1.32022e-17)
(0.0326514 0.0113313 -6.03999e-19)
(0.0328562 0.0102492 -2.17988e-18)
(0.0330394 0.0091679 3.83656e-18)
(0.0332015 0.00808727 -6.91954e-18)
(0.0333428 0.00700734 -1.33326e-17)
(0.0334634 0.00592806 -1.48999e-18)
(0.0335636 0.00484938 -1.00048e-18)
(0.0336436 0.0037712 -8.25603e-18)
(0.0337034 0.00269342 1.11654e-18)
(0.0337433 0.00161593 3.75166e-18)
(0.0337632 0.000538626 3.30953e-18)
(0.0337632 -0.000538622 1.31616e-17)
(0.0337433 -0.00161593 1.34974e-17)
(0.0337034 -0.00269342 1.41439e-17)
(0.0336436 -0.00377119 -3.66756e-18)
(0.0335636 -0.00484937 5.06643e-18)
(0.0334634 -0.00592806 9.44919e-18)
(0.0333428 -0.00700733 1.38375e-18)
(0.0332015 -0.00808726 -5.15416e-18)
(0.0330394 -0.0091679 -8.04118e-18)
(0.0328562 -0.0102492 -6.46832e-18)
(0.0326514 -0.0113313 -1.00629e-17)
(0.0324249 -0.0124141 -8.82207e-18)
(0.0321763 -0.0134976 -5.97189e-18)
(0.0319051 -0.0145815 -1.64319e-17)
(0.0316109 -0.0156658 -2.24218e-17)
(0.0312934 -0.0167504 -6.0308e-18)
(0.0309519 -0.0178348 -2.21485e-17)
(0.030586 -0.0189189 -1.31598e-17)
(0.0301954 -0.0200024 -2.13044e-18)
(0.0297802 -0.0210853 4.93486e-18)
(0.0293394 -0.0221671 -2.54572e-18)
(0.0288741 -0.0232481 3.88034e-19)
(0.0283831 -0.0243276 1.96135e-18)
(0.027867 -0.0254065 8.44116e-18)
(0.027946 -0.0258758 1.87183e-17)
(0.0304461 0.0215536 1.31102e-18)
(0.0308676 0.020444 -1.58196e-17)
(0.0312654 0.0193352 -2.80155e-17)
(0.031638 0.0182261 -6.25566e-18)
(0.0319863 0.0171172 1.4876e-18)
(0.0323106 0.0160085 -1.69391e-17)
(0.0326111 0.0149001 -7.83521e-18)
(0.032888 0.0137922 9.60464e-18)
(0.0331419 0.0126849 1.33165e-17)
(0.0333732 0.0115783 -1.35419e-18)
(0.0335823 0.0104725 -1.0241e-18)
(0.0337694 0.00936746 5.27841e-18)
(0.0339349 0.0082632 -8.39061e-18)
(0.0340791 0.0071597 -1.40108e-17)
(0.0342023 0.0060569 -5.88915e-19)
(0.0343046 0.00495474 -4.91226e-19)
(0.0343862 0.00385311 -8.4294e-18)
(0.0344473 0.00275191 4.06858e-19)
(0.034488 0.00165102 4.68152e-18)
(0.0345083 0.00055032 4.17118e-18)
(0.0345083 -0.000550316 1.27677e-17)
(0.034488 -0.00165102 1.24809e-17)
(0.0344473 -0.0027519 1.4586e-17)
(0.0343862 -0.0038531 -3.00366e-18)
(0.0343046 -0.00495473 5.29627e-18)
(0.0342023 -0.0060569 1.11804e-17)
(0.0340791 -0.0071597 1.96788e-18)
(0.0339349 -0.0082632 -5.52887e-18)
(0.0337694 -0.00936745 -8.05378e-18)
(0.0335823 -0.0104725 -6.30902e-18)
(0.0333732 -0.0115783 -9.10552e-18)
(0.0331418 -0.0126849 -8.49273e-18)
(0.032888 -0.0137922 -5.47529e-18)
(0.032611 -0.0149001 -1.61687e-17)
(0.0323106 -0.0160085 -2.27983e-17)
(0.0319863 -0.0171172 -5.74046e-18)
(0.031638 -0.0182261 -2.21618e-17)
(0.0312654 -0.0193352 -1.22414e-17)
(0.0308676 -0.020444 -1.74171e-18)
(0.0304462 -0.0215536 5.54575e-18)
(0.0299988 -0.0226625 -2.04083e-18)
(0.0295258 -0.0237708 8.25829e-19)
(0.0290263 -0.0248779 1.73035e-18)
(0.0284999 -0.0259843 1.09643e-17)
(0.0285643 -0.0264779 1.88959e-17)
(0.031139 0.022041 -4.83053e-19)
(0.0315673 0.020904 -1.57967e-17)
(0.0319707 0.0197676 -2.90554e-17)
(0.0323487 0.0186315 -7.60792e-18)
(0.0327027 0.0174965 9.72596e-19)
(0.0330328 0.0163622 -1.7516e-17)
(0.0333387 0.0152286 -8.81722e-18)
(0.0336212 0.0140958 9.56945e-18)
(0.0338804 0.0129639 1.34986e-17)
(0.0341166 0.0118327 -1.62506e-18)
(0.0343301 0.0107024 1.97522e-19)
(0.0345212 0.009573 6.3939e-18)
(0.0346902 0.00844441 -9.8782e-18)
(0.0348374 0.00731662 -1.43837e-17)
(0.0349632 0.0061896 2.57342e-19)
(0.0350676 0.00506325 1.78261e-19)
(0.0351509 0.00393747 -8.73718e-18)
(0.0352133 0.00281215 -2.47757e-19)
(0.0352548 0.00168715 5.55088e-18)
(0.0352756 0.000562364 4.7832e-18)
(0.0352756 -0.000562359 1.23046e-17)
(0.0352548 -0.00168715 1.1534e-17)
(0.0352133 -0.00281214 1.4704e-17)
(0.0351509 -0.00393746 -2.14186e-18)
(0.0350676 -0.00506324 5.86394e-18)
(0.0349632 -0.00618959 1.24637e-17)
(0.0348374 -0.00731662 2.22159e-18)
(0.0346902 -0.0084444 -5.38534e-18)
(0.0345212 -0.00957299 -7.73232e-18)
(0.0343301 -0.0107024 -6.72307e-18)
(0.0341166 -0.0118327 -8.31513e-18)
(0.0338804 -0.0129639 -8.03946e-18)
(0.0336212 -0.0140958 -5.00068e-18)
(0.0333387 -0.0152286 -1.62586e-17)
(0.0330328 -0.0163622 -2.35252e-17)
(0.0327027 -0.0174965 -5.77426e-18)
(0.0323487 -0.0186315 -2.21925e-17)
(0.0319707 -0.0197676 -1.16688e-17)
(0.0315673 -0.020904 -2.00982e-18)
(0.031139 -0.022041 5.54204e-18)
(0.0306842 -0.0231777 -2.01812e-18)
(0.0302019 -0.0243133 1.12921e-18)
(0.029692 -0.0254474 1.77307e-18)
(0.0291536 -0.0265807 1.30058e-17)
(0.029202 -0.0270984 1.83828e-17)
(0.0318578 0.0225469 -2.52315e-18)
(0.0322947 0.0213823 -1.54189e-17)
(0.0327047 0.0202178 -2.97678e-17)
(0.0330886 0.0190539 -8.99534e-18)
(0.0334478 0.0178911 5.4527e-19)
(0.0337825 0.0167295 -1.86459e-17)
(0.0340926 0.0155689 -9.93965e-18)
(0.0343797 0.0144099 9.60429e-18)
(0.0346435 0.0132521 1.37811e-17)
(0.0348839 0.0120952 -1.62449e-18)
(0.0351011 0.0109395 1.95803e-18)
(0.035296 0.00978485 6.73733e-18)
(0.0354685 0.00863116 -1.18155e-17)
(0.0356189 0.00747834 -1.43219e-17)
(0.0357472 0.00632634 1.11997e-18)
(0.0358538 0.00517506 7.01316e-19)
(0.0359389 0.0040244 -9.1158e-18)
(0.0360026 0.00287421 -7.2108e-19)
(0.036045 0.00172439 6.24601e-18)
(0.0360661 0.000574773 5.03843e-18)
(0.0360661 -0.000574769 1.19784e-17)
(0.036045 -0.00172438 1.07509e-17)
(0.0360026 -0.00287421 1.45502e-17)
(0.0359389 -0.00402439 -1.12079e-18)
(0.0358538 -0.00517506 6.46377e-18)
(0.0357472 -0.00632634 1.35173e-17)
(0.0356189 -0.00747834 2.5576e-18)
(0.0354685 -0.00863115 -5.29158e-18)
(0.035296 -0.00978484 -6.97537e-18)
(0.0351011 -0.0109395 -7.11248e-18)
(0.0348839 -0.0120952 -7.76636e-18)
(0.0346435 -0.0132521 -7.73695e-18)
(0.0343797 -0.0144099 -4.40099e-18)
(0.0340926 -0.0155689 -1.65439e-17)
(0.0337825 -0.0167295 -2.46561e-17)
(0.0334478 -0.0178911 -6.13971e-18)
(0.0330886 -0.0190539 -2.23092e-17)
(0.0327047 -0.0202178 -1.09884e-17)
(0.0322947 -0.0213823 -2.37701e-18)
(0.0318579 -0.0225469 5.0538e-18)
(0.0313936 -0.0237111 -2.41395e-18)
(0.0309008 -0.024874 1.68687e-18)
(0.0303791 -0.0260353 2.28933e-18)
(0.0298275 -0.0271953 1.48855e-17)
(0.0298597 -0.0277378 1.70399e-17)
(0.032601 0.0230698 -4.33707e-18)
(0.0330476 0.0218774 -1.46299e-17)
(0.033466 0.0206848 -3.04871e-17)
(0.0338577 0.0194929 -1.04693e-17)
(0.0342231 0.0183019 -5.31421e-19)
(0.034563 0.0171121 -1.97527e-17)
(0.0348778 0.0159236 -1.07912e-17)
(0.035169 0.0147368 1.01071e-17)
(0.0354363 0.0135516 1.4202e-17)
(0.0356799 0.0123677 -1.97629e-18)
(0.0359001 0.0111852 3.77739e-18)
(0.0360981 0.0100041 6.83882e-18)
(0.0362736 0.0088243 -1.36086e-17)
(0.0364266 0.00764549 -1.39382e-17)
(0.0365572 0.0064676 1.88449e-18)
(0.0366656 0.00529051 8.33607e-19)
(0.0367522 0.00411411 -9.36501e-18)
(0.0368169 0.00293826 -8.50028e-19)
(0.0368601 0.0017628 6.57228e-18)
(0.0368816 0.000587573 4.85239e-18)
(0.0368816 -0.00058757 1.18131e-17)
(0.0368601 -0.00176279 1.01493e-17)
(0.0368169 -0.00293825 1.45305e-17)
(0.0367522 -0.00411411 -1.74576e-21)
(0.0366656 -0.00529051 6.80753e-18)
(0.0365572 -0.00646759 1.44005e-17)
(0.0364266 -0.00764548 2.87726e-18)
(0.0362736 -0.0088243 -5.04712e-18)
(0.0360981 -0.0100041 -5.59211e-18)
(0.0359001 -0.0111852 -7.5448e-18)
(0.0356799 -0.0123677 -7.70994e-18)
(0.0354363 -0.0135516 -7.54866e-18)
(0.035169 -0.0147368 -3.92467e-18)
(0.0348778 -0.0159236 -1.62443e-17)
(0.034563 -0.0171121 -2.60342e-17)
(0.0342231 -0.0183019 -7.07595e-18)
(0.0338577 -0.0194929 -2.26319e-17)
(0.033466 -0.0206848 -1.00786e-17)
(0.0330476 -0.0218774 -2.32848e-18)
(0.032601 -0.0230698 4.01673e-18)
(0.0321261 -0.0242617 -3.13582e-18)
(0.0316217 -0.0254523 2.7105e-18)
(0.0310874 -0.0266412 3.49715e-18)
(0.030522 -0.0278283 1.65781e-17)
(0.030538 -0.0283968 1.57631e-17)
(0.0333679 0.0236094 -6.33998e-18)
(0.033825 0.0223886 -1.33905e-17)
(0.0342531 0.0211676 -3.09916e-17)
(0.0346535 0.0199472 -1.19525e-17)
(0.0350267 0.0187277 -1.91736e-18)
(0.0353734 0.0175094 -2.07195e-17)
(0.0356945 0.0162926 -1.1261e-17)
(0.0359906 0.0150773 1.06472e-17)
(0.036262 0.0138637 1.43683e-17)
(0.0365092 0.0126517 -2.64865e-18)
(0.0367327 0.0114413 5.37304e-18)
(0.0369334 0.0102326 6.76531e-18)
(0.0371113 0.00902531 -1.5127e-17)
(0.0372662 0.00781929 -1.33536e-17)
(0.0373985 0.00661437 2.39749e-18)
(0.0375084 0.00541041 4.23492e-19)
(0.037596 0.00420724 -9.26523e-18)
(0.0376616 0.00300471 -5.56855e-19)
(0.0377053 0.00180264 6.43385e-18)
(0.0377271 0.000600852 4.1831e-18)
(0.0377271 -0.000600848 1.18991e-17)
(0.0377053 -0.00180264 9.92239e-18)
(0.0376616 -0.00300471 1.47051e-17)
(0.037596 -0.00420724 1.15034e-18)
(0.0375084 -0.0054104 6.87847e-18)
(0.0373985 -0.00661437 1.47907e-17)
(0.0372662 -0.00781929 3.05972e-18)
(0.0371113 -0.0090253 -4.64253e-18)
(0.0369334 -0.0102326 -3.68855e-18)
(0.0367327 -0.0114413 -7.81175e-18)
(0.0365092 -0.0126517 -8.25707e-18)
(0.036262 -0.0138637 -7.61121e-18)
(0.0359906 -0.0150773 -3.73426e-18)
(0.0356945 -0.0162926 -1.51338e-17)
(0.0353734 -0.0175094 -2.69318e-17)
(0.0350267 -0.0187277 -8.32164e-18)
(0.0346535 -0.0199472 -2.37038e-17)
(0.0342531 -0.0211676 -9.63403e-18)
(0.033825 -0.0223886 -1.72376e-18)
(0.0333679 -0.0236094 2.80227e-18)
(0.0328816 -0.0248296 -3.937e-18)
(0.0323649 -0.0260486 3.62473e-18)
(0.0318174 -0.0272657 4.83246e-18)
(0.0312377 -0.0284805 1.79716e-17)
(0.0312376 -0.0290763 1.51597e-17)
(0.0336605 0.0254152 6.07747e-18)
(0.0341588 0.0241658 -8.44738e-18)
(0.034627 0.0229159 -1.23802e-17)
(0.0350654 0.0216659 -3.16201e-17)
(0.0354754 0.0204164 -1.31135e-17)
(0.0358572 0.0191678 -3.45642e-18)
(0.0362118 0.0179204 -2.14036e-17)
(0.0365401 0.0166746 -1.13032e-17)
(0.0368423 0.0154302 1.07512e-17)
(0.0371191 0.0141877 1.50378e-17)
(0.0373713 0.012947 -3.60348e-18)
(0.0375992 0.0117079 6.32787e-18)
(0.0378032 0.0104705 6.85727e-18)
(0.0379837 0.00923476 -1.63763e-17)
(0.038141 0.00800044 -1.26762e-17)
(0.0382752 0.00676738 2.73124e-18)
(0.0383867 0.00553541 -3.90664e-19)
(0.0384757 0.00430436 -8.98653e-18)
(0.0385422 0.00307402 2.89652e-20)
(0.0385865 0.0018442 6.14626e-18)
(0.0386086 0.000614701 3.15245e-18)
(0.0386086 -0.000614697 1.21747e-17)
(0.0385865 -0.0018442 1.01139e-17)
(0.0385422 -0.00307402 1.48832e-17)
(0.0384757 -0.00430435 1.82403e-18)
(0.0383867 -0.00553541 6.69076e-18)
(0.0382752 -0.00676737 1.50079e-17)
(0.038141 -0.00800043 3.08692e-18)
(0.0379837 -0.00923475 -4.43455e-18)
(0.0378032 -0.0104705 -1.59107e-18)
(0.0375992 -0.0117079 -7.77483e-18)
(0.0373713 -0.012947 -9.10643e-18)
(0.0371192 -0.0141877 -7.59839e-18)
(0.0368423 -0.0154302 -3.75173e-18)
(0.0365401 -0.0166746 -1.36859e-17)
(0.0362118 -0.0179204 -2.69382e-17)
(0.0358572 -0.0191678 -9.85761e-18)
(0.0354754 -0.0204164 -2.49359e-17)
(0.0350654 -0.0216659 -9.29566e-18)
(0.034627 -0.0229159 -1.16096e-18)
(0.0341588 -0.0241658 9.37217e-19)
(0.0336605 -0.0254152 -4.74423e-18)
(0.0331312 -0.0266632 4.19571e-18)
(0.0325701 -0.0279093 5.60662e-18)
(0.0319756 -0.0291527 1.9617e-17)
(0.0319596 -0.0297772 1.48964e-17)
(0.034464 0.0260191 1.91083e-18)
(0.0349746 0.0247397 -1.0748e-17)
(0.0354543 0.0234599 -1.13414e-17)
(0.0359036 0.0221799 -3.2229e-17)
(0.0363235 0.0209006 -1.40898e-17)
(0.0367146 0.0196221 -5.09952e-18)
(0.0370777 0.0183449 -2.13623e-17)
(0.0374137 0.0170692 -1.07327e-17)
(0.0377229 0.0157952 1.05918e-17)
(0.038006 0.014523 1.59296e-17)
(0.0382638 0.0132526 -4.67709e-18)
(0.0384967 0.0119841 6.71451e-18)
(0.0387049 0.0107173 7.09094e-18)
(0.038889 0.00945213 -1.72907e-17)
(0.0390494 0.00818858 -1.21097e-17)
(0.0391863 0.00692639 3.01244e-18)
(0.0393 0.00566539 -1.09513e-18)
(0.0393906 0.00440537 -8.61813e-18)
(0.0394585 0.00314613 7.61309e-19)
(0.0395036 0.00188746 5.75344e-18)
(0.0395261 0.000629115 2.08043e-18)
(0.0395261 -0.000629111 1.27459e-17)
(0.0395036 -0.00188745 1.0522e-17)
(0.0394585 -0.00314613 1.49058e-17)
(0.0393906 -0.00440537 2.06606e-18)
(0.0393 -0.00566538 6.61644e-18)
(0.0391863 -0.00692639 1.55503e-17)
(0.0390494 -0.00818857 2.94335e-18)
(0.038889 -0.00945213 -4.6126e-18)
(0.0387049 -0.0107173 -3.04358e-19)
(0.0384967 -0.0119841 -7.46906e-18)
(0.0382638 -0.0132526 -9.84714e-18)
(0.038006 -0.014523 -7.83305e-18)
(0.0377229 -0.0157952 -4.03578e-18)
(0.0374137 -0.0170692 -1.22039e-17)
(0.0370777 -0.0183449 -2.62786e-17)
(0.0367146 -0.0196221 -1.14943e-17)
(0.0363235 -0.0209006 -2.5847e-17)
(0.0359036 -0.0221799 -9.04793e-18)
(0.0354543 -0.0234599 -9.01793e-19)
(0.0349746 -0.0247397 -9.79975e-19)
(0.034464 -0.0260191 -5.69789e-18)
(0.0339215 -0.0272971 3.98616e-18)
(0.0333464 -0.0285732 5.67621e-18)
(0.032737 -0.0298463 2.14756e-17)
(0.032705 -0.0305006 1.49085e-17)
(0.0352931 0.0266422 7.93393e-20)
(0.0358164 0.0253319 -1.29502e-17)
(0.0363079 0.0240211 -1.00356e-17)
(0.0367684 0.0227103 -3.24802e-17)
(0.0371987 0.0214001 -1.52052e-17)
(0.0375994 0.0200909 -7.04389e-18)
(0.0379714 0.018783 -2.12878e-17)
(0.0383156 0.0174767 -1.01873e-17)
(0.0386322 0.016172 1.07411e-17)
(0.0389221 0.0148693 1.66882e-17)
(0.039186 0.0135685 -5.78548e-18)
(0.0394244 0.0122696 6.91141e-18)
(0.0396374 0.0109724 7.2908e-18)
(0.0398256 0.00967703 -1.78405e-17)
(0.0399896 0.0083833 -1.16109e-17)
(0.0401295 0.00709102 3.57484e-18)
(0.0402457 0.00579999 -1.76435e-18)
(0.0403384 0.00451001 -8.39916e-18)
(0.0404077 0.00322084 1.50154e-18)
(0.0404538 0.00193227 5.03176e-18)
(0.0404769 0.000644051 1.17925e-18)
(0.0404769 -0.000644047 1.33852e-17)
(0.0404538 -0.00193226 1.08124e-17)
(0.0404077 -0.00322084 1.50048e-17)
(0.0403384 -0.00451 2.27689e-18)
(0.0402457 -0.00579998 6.50941e-18)
(0.0401295 -0.00709101 1.64338e-17)
(0.0399896 -0.00838329 2.81197e-18)
(0.0398256 -0.00967702 -4.92157e-18)
(0.0396374 -0.0109724 3.32241e-19)
(0.0394244 -0.0122696 -7.34078e-18)
(0.039186 -0.0135685 -1.02116e-17)
(0.0389221 -0.0148693 -8.05697e-18)
(0.0386322 -0.016172 -4.33561e-18)
(0.0383156 -0.0174767 -1.10244e-17)
(0.0379714 -0.018783 -2.60073e-17)
(0.0375994 -0.0200909 -1.30706e-17)
(0.0371987 -0.0214001 -2.62102e-17)
(0.0367684 -0.0227103 -8.34028e-18)
(0.0363079 -0.0240211 -8.56825e-19)
(0.0358164 -0.0253319 -2.44353e-18)
(0.0352931 -0.0266422 -6.6273e-18)
(0.0347372 -0.0279513 3.2827e-18)
(0.0341478 -0.0292583 5.25789e-18)
(0.0335232 -0.0305622 2.2846e-17)
(0.033475 -0.0312476 1.48549e-17)
(0.0355796 0.0286269 2.93831e-17)
(0.0361493 0.0272857 -8.38275e-20)
(0.0366856 0.0259433 -1.47465e-17)
(0.0371893 0.0246005 -8.4867e-18)
(0.0376612 0.0232578 -3.24684e-17)
(0.0381021 0.0219158 -1.62347e-17)
(0.0385128 0.0205748 -9.26438e-18)
(0.0388941 0.0192352 -2.1548e-17)
(0.0392467 0.0178973 -9.28486e-18)
(0.0395711 0.0165611 1.0907e-17)
(0.0398681 0.0152268 1.67536e-17)
(0.0401384 0.0138946 -6.82981e-18)
(0.0403825 0.0125644 7.33036e-18)
(0.0406006 0.011236 7.27582e-18)
(0.0407933 0.00990938 -1.82626e-17)
(0.0409611 0.00858452 -1.08343e-17)
(0.0411044 0.00726117 4.15906e-18)
(0.0412233 0.00593912 -2.68194e-18)
(0.0413181 0.00461817 -8.38827e-18)
(0.0413891 0.00329808 2.33381e-18)
(0.0414363 0.0019786 4.37928e-18)
(0.0414599 0.000659493 5.56218e-19)
(0.0414599 -0.000659489 1.40232e-17)
(0.0414363 -0.00197859 1.08344e-17)
(0.0413891 -0.00329807 1.50766e-17)
(0.0413181 -0.00461817 2.49389e-18)
(0.0412233 -0.00593912 6.32889e-18)
(0.0411044 -0.00726116 1.74037e-17)
(0.0409611 -0.00858451 2.91774e-18)
(0.0407933 -0.00990938 -5.44136e-18)
(0.0406006 -0.011236 5.99457e-19)
(0.0403825 -0.0125644 -7.16964e-18)
(0.0401384 -0.0138946 -1.04537e-17)
(0.0398681 -0.0152268 -8.51331e-18)
(0.0395711 -0.0165611 -4.26736e-18)
(0.0392467 -0.0178973 -9.41193e-18)
(0.0388941 -0.0192352 -2.61798e-17)
(0.0385128 -0.0205748 -1.45226e-17)
(0.0381021 -0.0219158 -2.60047e-17)
(0.0376612 -0.0232578 -7.46498e-18)
(0.0371893 -0.0246005 -1.19322e-18)
(0.0366856 -0.0259433 -3.55889e-18)
(0.0361493 -0.0272857 -6.93112e-18)
(0.0355796 -0.0286269 2.14462e-18)
(0.0349756 -0.029966 4.71431e-18)
(0.0343355 -0.0313019 2.40746e-17)
(0.0342708 -0.0320195 1.46207e-17)
(0.0364504 0.0293251 2.73108e-17)
(0.0370341 0.0279506 -6.64357e-20)
(0.0375837 0.026575 -1.6349e-17)
(0.0380999 0.0251991 -6.7633e-18)
(0.0385835 0.0238234 -3.22657e-17)
(0.0390354 0.0224484 -1.75327e-17)
(0.0394563 0.0210746 -1.09637e-17)
(0.0398469 0.0197022 -2.14944e-17)
(0.0402082 0.0183316 -8.32439e-18)
(0.0405407 0.0169628 1.07717e-17)
(0.040845 0.0155961 1.61472e-17)
(0.041122 0.0142315 -7.98314e-18)
(0.041372 0.0128688 8.1647e-18)
(0.0415954 0.0115082 7.30705e-18)
(0.0417929 0.0101494 -1.86158e-17)
(0.0419647 0.00879236 -9.94204e-18)
(0.0421114 0.00743693 4.60945e-18)
(0.0422332 0.00608286 -3.62753e-18)
(0.0423303 0.00472992 -8.54698e-18)
(0.042403 0.00337787 2.9765e-18)
(0.0424513 0.00202646 3.89921e-18)
(0.0424755 0.000675447 3.53958e-19)
(0.0424755 -0.000675442 1.46389e-17)
(0.0424513 -0.00202646 1.04131e-17)
(0.042403 -0.00337786 1.50601e-17)
(0.0423303 -0.00472991 3.0736e-18)
(0.0422332 -0.00608285 6.4524e-18)
(0.0421114 -0.00743692 1.78687e-17)
(0.0419647 -0.00879236 2.65143e-18)
(0.0417929 -0.0101494 -6.07535e-18)
(0.0415954 -0.0115082 8.88604e-19)
(0.041372 -0.0128688 -6.40563e-18)
(0.041122 -0.0142315 -1.10472e-17)
(0.040845 -0.0155961 -9.51761e-18)
(0.0405407 -0.0169628 -4.02681e-18)
(0.0402082 -0.0183316 -7.63487e-18)
(0.0398469 -0.0197022 -2.59613e-17)
(0.0394563 -0.0210746 -1.5859e-17)
(0.0390354 -0.0224484 -2.5926e-17)
(0.0385835 -0.0238234 -6.51489e-18)
(0.0380999 -0.0251991 -1.27386e-18)
(0.0375837 -0.026575 -4.79676e-18)
(0.0370342 -0.0279506 -6.49914e-18)
(0.0364504 -0.0293251 1.1241e-18)
(0.0358313 -0.0306975 4.18562e-18)
(0.0351754 -0.0320667 2.53717e-17)
(0.035094 -0.0328178 1.47571e-17)
(0.0367165 0.0314542 2.83861e-17)
(0.037351 0.0300472 2.66291e-17)
(0.0379493 0.0286382 -5.03183e-19)
(0.0385124 0.0272282 -1.74666e-17)
(0.0390414 0.025818 -5.37726e-18)
(0.039537 0.0244081 -3.22627e-17)
(0.0400001 0.022999 -1.90329e-17)
(0.0404314 0.0215911 -1.25502e-17)
(0.0408317 0.0201849 -2.06586e-17)
(0.0412019 0.0187804 -7.44655e-18)
(0.0415426 0.017378 1.03781e-17)
(0.0418545 0.0159776 1.49446e-17)
(0.0421382 0.0145794 -8.96688e-18)
(0.0423943 0.0131834 9.61544e-18)
(0.0426233 0.0117894 7.24876e-18)
(0.0428255 0.0103973 -1.88128e-17)
(0.0430016 0.0090071 -9.33408e-18)
(0.0431519 0.00761852 4.7271e-18)
(0.0432766 0.00623135 -4.31672e-18)
(0.0433761 0.00484537 -8.42547e-18)
(0.0434505 0.00346031 3.41247e-18)
(0.0435 0.00207592 3.45667e-18)
(0.0435248 0.00069193 3.35918e-19)
(0.0435248 -0.000691925 1.53713e-17)
(0.0435 -0.00207591 9.70757e-18)
(0.0434505 -0.0034603 1.47367e-17)
(0.0433761 -0.00484536 3.98183e-18)
(0.0432766 -0.00623135 7.05539e-18)
(0.0431519 -0.00761851 1.78993e-17)
(0.0430016 -0.0090071 1.67563e-18)
(0.0428255 -0.0103973 -6.68293e-18)
(0.0426233 -0.0117894 1.18627e-18)
(0.0423943 -0.0131834 -5.13059e-18)
(0.0421382 -0.0145794 -1.15222e-17)
(0.0418545 -0.0159776 -1.08369e-17)
(0.0415426 -0.017378 -3.9726e-18)
(0.0412019 -0.0187804 -6.02152e-18)
(0.0408317 -0.0201849 -2.52659e-17)
(0.0404314 -0.0215911 -1.71597e-17)
(0.0400001 -0.022999 -2.64165e-17)
(0.039537 -0.0244081 -5.60719e-18)
(0.0390414 -0.025818 -7.86887e-19)
(0.0385124 -0.0272282 -6.29512e-18)
(0.0379493 -0.0286383 -6.27543e-18)
(0.037351 -0.0300472 4.14875e-19)
(0.0367166 -0.0314542 4.11383e-18)
(0.0360444 -0.032858 2.68512e-17)
(0.0359459 -0.0336437 1.41617e-17)
(0.037633 0.0322375 3.00199e-17)
(0.0382832 0.0307947 2.63865e-17)
(0.0388964 0.0293499 -1.74196e-18)
(0.0394735 0.0279042 -1.83253e-17)
(0.0400156 0.0264583 -4.36402e-18)
(0.0405235 0.0250129 -3.25759e-17)
(0.040998 0.0235685 -2.04944e-17)
(0.04144 0.0221254 -1.40122e-17)
(0.0418502 0.020684 -1.96085e-17)
(0.0422295 0.0192446 -6.86956e-18)
(0.0425786 0.0178072 9.93072e-18)
(0.0428982 0.0163721 1.34227e-17)
(0.0431889 0.0149392 -9.61703e-18)
(0.0434513 0.0135086 1.13645e-17)
(0.0436858 0.0120801 7.08179e-18)
(0.0438931 0.0106536 -1.89072e-17)
(0.0440735 0.00922907 -9.13999e-18)
(0.0442274 0.00780622 4.49513e-18)
(0.0443552 0.00638485 -4.54038e-18)
(0.0444571 0.0049647 -7.74105e-18)
(0.0445333 0.00354552 3.48087e-18)
(0.044584 0.00212703 2.84582e-18)
(0.0446093 0.000708967 2.1205e-19)
(0.0446093 -0.000708962 1.60633e-17)
(0.044584 -0.00212703 9.03901e-18)
(0.0445333 -0.00354551 1.4237e-17)
(0.0444571 -0.00496469 5.00295e-18)
(0.0443552 -0.00638484 8.02109e-18)
(0.0442274 -0.00780622 1.77531e-17)
(0.0440735 -0.00922907 5.27727e-19)
(0.0438931 -0.0106536 -7.03428e-18)
(0.0436858 -0.0120801 1.14958e-18)
(0.0434513 -0.0135086 -3.43789e-18)
(0.0431889 -0.0149392 -1.14497e-17)