/*--------------------------------*- C++ -*----------------------------------*\
  =========                 |
  \\      /  F ield         | OpenFOAM: The Open Source CFD Toolbox
   \\    /   O peration     | Website:  https://openfoam.org
    \\  /    A nd           | Version:  7
     \\/     M anipulation  |
\*---------------------------------------------------------------------------*/
FoamFile
{
    version     2.0;
    format      ascii;
    class       volVectorField;
    location    "40000";
    object      vorticity;
}
// * * * * * * * * * * * * * * * * * * * * * * * * * * * * * * * * * * * * * //

dimensions      [0 0 -1 0 0 0 0];

internalField   nonuniform List<vector> 
4838
(
(9.08283e-06 5.49327e-06 9.5593e-18)
(3.35834e-06 1.10805e-05 -5.50077e-18)
(1.83886e-06 1.17748e-05 -4.50796e-18)
(2.49348e-07 1.21666e-05 -2.39608e-18)
(-1.29528e-06 1.23233e-05 -9.93967e-19)
(-2.77994e-06 1.23229e-05 -7.06752e-19)
(-4.18819e-06 1.21979e-05 -9.45044e-19)
(-5.51312e-06 1.19702e-05 -9.06313e-20)
(-6.75264e-06 1.16558e-05 7.01836e-19)
(-7.90698e-06 1.12671e-05 -4.16205e-19)
(-8.97745e-06 1.08143e-05 -1.67304e-18)
(-9.96585e-06 1.03056e-05 -2.25957e-19)
(-1.08741e-05 9.74806e-06 2.18204e-18)
(-1.17043e-05 9.14779e-06 2.99412e-18)
(-1.24582e-05 8.51003e-06 1.09783e-18)
(-1.31377e-05 7.83946e-06 2.46548e-19)
(-1.37442e-05 7.14029e-06 1.89405e-18)
(-1.42794e-05 6.41636e-06 2.06179e-18)
(-1.47445e-05 5.6712e-06 1.23877e-18)
(-1.51406e-05 4.90808e-06 6.31996e-19)
(-1.54687e-05 4.13011e-06 5.96815e-19)
(-1.57296e-05 3.34021e-06 4.98428e-19)
(-1.59239e-05 2.54122e-06 9.75223e-19)
(-1.60521e-05 1.73587e-06 1.3655e-18)
(-1.61145e-05 9.26813e-07 1.12498e-18)
(-1.61113e-05 1.16697e-07 6.28402e-19)
(-1.60425e-05 -6.91862e-07 2.4084e-19)
(-1.59079e-05 -1.49623e-06 2.81856e-19)
(-1.57071e-05 -2.29373e-06 6.25064e-19)
(-1.54399e-05 -3.08165e-06 7.36049e-19)
(-1.51053e-05 -3.85714e-06 9.24199e-19)
(-1.47028e-05 -4.61728e-06 1.88814e-18)
(-1.42312e-05 -5.35896e-06 2.81351e-18)
(-1.36895e-05 -6.07888e-06 -5.07394e-19)
(-1.30763e-05 -6.7735e-06 -2.77106e-18)
(-1.23902e-05 -7.43897e-06 8.43417e-19)
(-1.16296e-05 -8.07106e-06 1.83714e-18)
(-1.07926e-05 -8.66505e-06 -1.04849e-18)
(-9.87729e-06 -9.21564e-06 -3.50384e-18)
(-8.88178e-06 -9.71672e-06 -3.18692e-18)
(-7.80402e-06 -1.01612e-05 -1.77031e-18)
(-6.64218e-06 -1.05407e-05 -1.01976e-18)
(-5.39489e-06 -1.08451e-05 5.34198e-19)
(-4.0618e-06 -1.10618e-05 -1.28499e-19)
(-2.6448e-06 -1.11745e-05 -3.06793e-18)
(-1.15035e-06 -1.11614e-05 -2.46881e-18)
(4.06321e-07 -1.09893e-05 1.76297e-18)
(1.9958e-06 -1.05992e-05 3.41822e-18)
(3.542e-06 -9.8975e-06 1.47888e-18)
(9.0066e-06 -4.59679e-06 2.8071e-18)
(1.01338e-05 5.69108e-06 5.92112e-18)
(4.51499e-06 1.12877e-05 -2.82632e-18)
(2.76181e-06 1.26037e-05 -2.0182e-18)
(1.18572e-06 1.33717e-05 -1.26276e-18)
(-2.83171e-07 1.37552e-05 -2.96942e-20)
(-1.67743e-06 1.38828e-05 3.70807e-19)
(-2.99851e-06 1.38233e-05 9.36067e-19)
(-4.24387e-06 1.36189e-05 1.53615e-18)
(-5.41155e-06 1.32977e-05 1.45659e-18)
(-6.50089e-06 1.28794e-05 6.17871e-19)
(-7.51226e-06 1.23791e-05 9.32428e-20)
(-8.4467e-06 1.18084e-05 7.17792e-19)
(-9.30563e-06 1.11768e-05 1.7058e-18)
(-1.00907e-05 1.04924e-05 2.52862e-18)
(-1.08035e-05 9.76195e-06 1.74553e-18)
(-1.14457e-05 8.99135e-06 -5.19246e-20)
(-1.20189e-05 8.18591e-06 -8.85584e-19)
(-1.25245e-05 7.35037e-06 -1.16326e-18)
(-1.29639e-05 6.4891e-06 -1.73349e-18)
(-1.33381e-05 5.6061e-06 -2.29208e-18)
(-1.36483e-05 4.70515e-06 -2.4001e-18)
(-1.38953e-05 3.78982e-06 -2.23471e-18)
(-1.40798e-05 2.86351e-06 -2.02359e-18)
(-1.42022e-05 1.92952e-06 -1.73746e-18)
(-1.4263e-05 9.91073e-07 -1.59466e-18)
(-1.42623e-05 5.13428e-08 -1.60699e-18)
(-1.42002e-05 -8.86518e-07 -1.66727e-18)
(-1.40765e-05 -1.81934e-06 -1.71385e-18)
(-1.38909e-05 -2.7439e-06 -1.60861e-18)
(-1.36429e-05 -3.65691e-06 -1.38904e-18)
(-1.33319e-05 -4.55496e-06 -9.86955e-19)
(-1.29569e-05 -5.43446e-06 -6.57805e-19)
(-1.25171e-05 -6.29165e-06 -6.36229e-19)
(-1.20114e-05 -7.12249e-06 -1.05288e-18)
(-1.14384e-05 -7.92261e-06 -1.03124e-18)
(-1.07966e-05 -8.68725e-06 -9.93848e-19)
(-1.00847e-05 -9.4111e-06 -1.68232e-18)
(-9.30102e-06 -1.00882e-05 -2.84845e-18)
(-8.44387e-06 -1.07116e-05 -2.70126e-18)
(-7.51172e-06 -1.12734e-05 -1.37411e-18)
(-6.50315e-06 -1.1764e-05 -8.33425e-19)
(-5.41715e-06 -1.21715e-05 -1.0578e-18)
(-4.25331e-06 -1.24811e-05 -1.29471e-18)
(-3.01224e-06 -1.26729e-05 -1.49709e-18)
(-1.69569e-06 -1.2719e-05 -1.31863e-18)
(-3.05853e-07 -1.25773e-05 -1.07809e-18)
(1.15928e-06 -1.21803e-05 -1.31823e-18)
(2.72228e-06 -1.14136e-05 -1.89545e-18)
(4.45246e-06 -1.01089e-05 -2.17515e-18)
(9.80962e-06 -4.78597e-06 -4.7355e-18)
(1.0632e-05 6.198e-06 4.46935e-18)
(4.52461e-06 1.17495e-05 -1.4272e-18)
(2.60145e-06 1.32209e-05 -4.05777e-19)
(1.01204e-06 1.42254e-05 2.6074e-19)
(-3.57703e-07 1.4813e-05 4.06115e-19)
(-1.59238e-06 1.50872e-05 -2.85911e-20)
(-2.72746e-06 1.51215e-05 -9.89874e-20)
(-3.77914e-06 1.4969e-05 6.58354e-19)
(-4.75511e-06 1.46673e-05 1.10906e-18)
(-5.65956e-06 1.42434e-05 7.93618e-19)
(-6.49536e-06 1.37174e-05 5.62777e-19)
(-7.26482e-06 1.31049e-05 7.26917e-19)
(-7.97004e-06 1.24182e-05 8.07156e-19)
(-8.61296e-06 1.16674e-05 8.44828e-19)
(-9.19543e-06 1.08611e-05 5.98482e-19)
(-9.71916e-06 1.00067e-05 -4.16571e-19)
(-1.01858e-05 9.11061e-06 -9.53423e-19)
(-1.05966e-05 8.17861e-06 -9.59263e-19)
(-1.09531e-05 7.21597e-06 -1.38428e-18)
(-1.12564e-05 6.22752e-06 -1.76214e-18)
(-1.15073e-05 5.21775e-06 -1.65984e-18)
(-1.17068e-05 4.19091e-06 -1.57211e-18)
(-1.18556e-05 3.15107e-06 -1.65916e-18)
(-1.1954e-05 2.10213e-06 -1.76708e-18)
(-1.20026e-05 1.04792e-06 -1.77871e-18)
(-1.20014e-05 -7.81214e-09 -1.80583e-18)
(-1.19505e-05 -1.06134e-06 -1.6878e-18)
(-1.18498e-05 -2.10891e-06 -1.39871e-18)
(-1.16989e-05 -3.14672e-06 -1.21006e-18)
(-1.14974e-05 -4.17086e-06 -1.01629e-18)
(-1.12446e-05 -5.17727e-06 -1.10179e-18)
(-1.09398e-05 -6.16169e-06 -1.31711e-18)
(-1.0582e-05 -7.11962e-06 -1.31285e-18)
(-1.017e-05 -8.04621e-06 -1.39075e-18)
(-9.70277e-06 -8.9362e-06 -1.62035e-18)
(-9.1787e-06 -9.78379e-06 -1.51803e-18)
(-8.59629e-06 -1.05825e-05 -1.41471e-18)
(-7.95384e-06 -1.13249e-05 -1.64606e-18)
(-7.24952e-06 -1.20024e-05 -1.54421e-18)
(-6.48137e-06 -1.26048e-05 -9.19925e-19)
(-5.64728e-06 -1.31198e-05 -7.64587e-19)
(-4.74489e-06 -1.35319e-05 -1.18048e-18)
(-3.77123e-06 -1.38209e-05 -1.53619e-18)
(-2.72197e-06 -1.396e-05 -1.77789e-18)
(-1.5892e-06 -1.39121e-05 -2.08411e-18)
(-3.56503e-07 -1.36248e-05 -2.28725e-18)
(1.01171e-06 -1.30258e-05 -2.86867e-18)
(2.58998e-06 -1.20247e-05 -3.53497e-18)
(4.49361e-06 -1.05673e-05 -3.19768e-18)
(1.03435e-05 -5.27046e-06 -4.16742e-18)
(1.18492e-05 6.9686e-06 3.95168e-18)
(5.37385e-06 1.25276e-05 -2.76714e-20)
(3.29825e-06 1.39512e-05 1.00331e-18)
(1.63374e-06 1.50213e-05 1.8533e-18)
(2.71104e-07 1.57182e-05 1.96903e-18)
(-8.92064e-07 1.60977e-05 1.66921e-18)
(-1.9146e-06 1.62142e-05 1.80039e-18)
(-2.83115e-06 1.61162e-05 2.12628e-18)
(-3.66183e-06 1.5843e-05 1.58061e-18)
(-4.41864e-06 1.54251e-05 2.80166e-19)
(-5.10923e-06 1.48861e-05 -6.2162e-19)
(-5.73885e-06 1.42445e-05 -8.92628e-19)
(-6.31141e-06 1.35154e-05 -2.10539e-19)
(-6.83004e-06 1.27108e-05 1.51782e-19)
(-7.29732e-06 1.1841e-05 -6.56712e-20)
(-7.71548e-06 1.09148e-05 -2.60752e-19)
(-8.08646e-06 9.93982e-06 -4.90879e-19)
(-8.41194e-06 8.92299e-06 -3.15379e-19)
(-8.69338e-06 7.87044e-06 -7.12994e-19)
(-8.93205e-06 6.78782e-06 -1.0786e-18)
(-9.12902e-06 5.68039e-06 -1.04806e-18)
(-9.28517e-06 4.55312e-06 -8.87902e-19)
(-9.40119e-06 3.41073e-06 -1.08591e-18)
(-9.47763e-06 2.25778e-06 -1.15277e-18)
(-9.51485e-06 1.09871e-06 -1.13616e-18)
(-9.51311e-06 -6.21227e-08 -1.32731e-18)
(-9.47235e-06 -1.22039e-06 -1.16177e-18)
(-9.39254e-06 -2.37174e-06 -1.17775e-18)
(-9.2733e-06 -3.51178e-06 -1.18969e-18)
(-9.11411e-06 -4.63596e-06 -1.1476e-18)
(-8.91431e-06 -5.73955e-06 -1.04161e-18)
(-8.67305e-06 -6.81757e-06 -1.12787e-18)
(-8.38931e-06 -7.86476e-06 -1.1011e-18)
(-8.06186e-06 -8.87545e-06 -1.11532e-18)
(-7.68927e-06 -9.84345e-06 -1.40777e-18)
(-7.26989e-06 -1.07619e-05 -1.41103e-18)
(-6.80179e-06 -1.16232e-05 -1.08944e-18)
(-6.28276e-06 -1.24184e-05 -1.09565e-18)
(-5.71019e-06 -1.31373e-05 -1.23206e-18)
(-5.08093e-06 -1.37677e-05 -1.62522e-18)
(-4.39101e-06 -1.42948e-05 -1.77775e-18)
(-3.63508e-06 -1.47e-05 -2.19676e-18)
(-2.80541e-06 -1.49599e-05 -2.55338e-18)
(-1.88984e-06 -1.50443e-05 -2.39192e-18)
(-8.68133e-07 -1.49147e-05 -2.53333e-18)
(2.9434e-07 -1.45232e-05 -2.60788e-18)
(1.65613e-06 -1.38169e-05 -2.98333e-18)
(3.3105e-06 -1.27513e-05 -3.74774e-18)
(5.36583e-06 -1.13431e-05 -3.5172e-18)
(1.16027e-05 -6.02015e-06 -3.4657e-18)
(1.35043e-05 7.95123e-06 2.92893e-18)
(6.71369e-06 1.35707e-05 5.62109e-19)
(4.56341e-06 1.4867e-05 1.85889e-18)
(2.83803e-06 1.58979e-05 2.71184e-18)
(1.45516e-06 1.66152e-05 3.07581e-18)
(3.17638e-07 1.70407e-05 3.45168e-18)
(-6.41423e-07 1.72051e-05 3.58655e-18)
(-1.46801e-06 1.71449e-05 3.06808e-18)
(-2.19246e-06 1.68942e-05 1.84033e-18)
(-2.83465e-06 1.64825e-05 1.4739e-19)
(-3.40777e-06 1.59343e-05 -6.98957e-19)
(-3.92091e-06 1.52697e-05 -5.45966e-19)
(-4.38061e-06 1.45052e-05 -2.94656e-19)
(-4.79177e-06 1.36545e-05 -4.73856e-19)
(-5.15825e-06 1.27294e-05 -9.35986e-19)
(-5.48314e-06 1.17399e-05 -8.09453e-19)
(-5.76901e-06 1.06947e-05 -3.94297e-19)
(-6.018e-06 9.60173e-06 -1.13081e-19)
(-6.2319e-06 8.46793e-06 -4.7205e-19)
(-6.41224e-06 7.29984e-06 -7.87409e-19)
(-6.56027e-06 6.10345e-06 -6.97621e-19)
(-6.677e-06 4.88441e-06 -6.00551e-19)
(-6.76322e-06 3.64812e-06 -7.15796e-19)
(-6.8195e-06 2.39979e-06 -6.37598e-19)
(-6.84624e-06 1.14456e-06 -3.16968e-19)
(-6.844e-06 -1.1272e-07 -5.43543e-19)
(-6.81222e-06 -1.36705e-06 -8.29929e-19)
(-6.75145e-06 -2.61344e-06 -1.19854e-18)
(-6.6609e-06 -3.84704e-06 -1.38844e-18)
(-6.54001e-06 -5.06258e-06 -1.26174e-18)
(-6.38803e-06 -6.25463e-06 -1.41138e-18)
(-6.20402e-06 -7.41754e-06 -1.17865e-18)
(-5.98677e-06 -8.54528e-06 -1.25979e-18)
(-5.7348e-06 -9.63138e-06 -8.64909e-19)
(-5.44635e-06 -1.06688e-05 -8.3841e-19)
(-5.11929e-06 -1.16497e-05 -1.21197e-18)
(-4.75108e-06 -1.25653e-05 -1.06707e-18)
(-4.3386e-06 -1.34055e-05 -1.48731e-18)
(-3.87799e-06 -1.41588e-05 -2.01048e-18)
(-3.36428e-06 -1.48114e-05 -2.54013e-18)
(-2.79088e-06 -1.53468e-05 -2.32841e-18)
(-2.14858e-06 -1.57452e-05 -2.18972e-18)
(-1.4241e-06 -1.59823e-05 -2.11863e-18)
(-5.97478e-07 -1.6029e-05 -1.89964e-18)
(3.61625e-07 -1.58519e-05 -2.15661e-18)
(1.49901e-06 -1.54157e-05 -2.56299e-18)
(2.88106e-06 -1.46905e-05 -2.83217e-18)
(4.59669e-06 -1.36646e-05 -3.44033e-18)
(6.72631e-06 -1.23846e-05 -3.37787e-18)
(1.3295e-05 -6.98418e-06 -3.77804e-18)
(1.54243e-05 9.10222e-06 4.87304e-18)
(8.36109e-06 1.48153e-05 1.52196e-18)
(6.19823e-06 1.59577e-05 2.45645e-18)
(4.4477e-06 1.6896e-05 2.96649e-18)
(3.05103e-06 1.75736e-05 3.55874e-18)
(1.92453e-06 1.7993e-05 3.79952e-18)
(1.00331e-06 1.81674e-05 3.68116e-18)
(2.37396e-07 1.81198e-05 2.96553e-18)
(-4.09612e-07 1.78767e-05 2.14968e-18)
(-9.63522e-07 1.74634e-05 1.10082e-18)
(-1.44252e-06 1.69031e-05 4.80239e-19)
(-1.85955e-06 1.62157e-05 5.89343e-19)
(-2.22404e-06 1.54183e-05 2.70748e-19)
(-2.54299e-06 1.45255e-05 -4.09429e-19)
(-2.82182e-06 1.35498e-05 -8.65988e-19)
(-3.06476e-06 1.25024e-05 -4.9895e-19)
(-3.27523e-06 1.13928e-05 -7.4203e-20)
(-3.45599e-06 1.02297e-05 -9.16536e-20)
(-3.60934e-06 9.0211e-06 -3.17801e-19)
(-3.73715e-06 7.77407e-06 -5.18409e-19)
(-3.84095e-06 6.49536e-06 -3.82128e-19)
(-3.92197e-06 5.19128e-06 -2.74341e-19)
(-3.98116e-06 3.86783e-06 -4.65183e-19)
(-4.01907e-06 2.53083e-06 -6.06882e-19)
(-4.03629e-06 1.1864e-06 -5.79732e-19)
(-4.03423e-06 -1.60538e-07 -6.3386e-19)
(-4.00907e-06 -1.50408e-06 -6.7985e-19)
(-3.96603e-06 -2.83849e-06 -1.0085e-18)
(-3.90138e-06 -4.15895e-06 -1.0217e-18)
(-3.81497e-06 -5.45915e-06 -1.09302e-18)
(-3.70602e-06 -6.73301e-06 -1.11159e-18)
(-3.57338e-06 -7.97422e-06 -5.80077e-19)
(-3.41556e-06 -9.1761e-06 -7.08916e-19)
(-3.23075e-06 -1.03314e-05 -7.76686e-19)
(-3.01668e-06 -1.14324e-05 -1.14223e-18)
(-2.77061e-06 -1.24703e-05 -1.61109e-18)
(-2.48912e-06 -1.34355e-05 -1.82228e-18)
(-2.16797e-06 -1.4317e-05 -1.72922e-18)
(-1.80173e-06 -1.51023e-05 -1.71756e-18)
(-1.38332e-06 -1.57768e-05 -1.83601e-18)
(-9.0324e-07 -1.63236e-05 -1.81792e-18)
(-3.48476e-07 -1.6723e-05 -1.88654e-18)
(2.99236e-07 -1.69523e-05 -1.98863e-18)
(1.06573e-06 -1.69866e-05 -2.10931e-18)
(1.98732e-06 -1.68001e-05 -2.30732e-18)
(3.11368e-06 -1.63708e-05 -2.66461e-18)
(4.50913e-06 -1.56866e-05 -2.88168e-18)
(6.25003e-06 -1.47535e-05 -2.62202e-18)
(8.39198e-06 -1.36277e-05 -1.68441e-18)
(1.52482e-05 -8.11883e-06 -1.23221e-18)
(1.75022e-05 1.03855e-05 8.4645e-18)
(1.02064e-05 1.62072e-05 3.60986e-18)
(8.07413e-06 1.71914e-05 3.65774e-18)
(6.33257e-06 1.80131e-05 3.58929e-18)
(4.94036e-06 1.86157e-05 3.79527e-18)
(3.82741e-06 1.89921e-05 3.38419e-18)
(2.93505e-06 1.9144e-05 2.85907e-18)
(2.21419e-06 1.90841e-05 3.02374e-18)
(1.62616e-06 1.88306e-05 2.68611e-18)
(1.14162e-06 1.84041e-05 1.88362e-18)
(7.38721e-07 1.78247e-05 1.44778e-18)
(4.01278e-07 1.71109e-05 1.22547e-18)
(1.17198e-07 1.62794e-05 8.5177e-19)
(-1.2267e-07 1.53451e-05 8.16456e-20)
(-3.25367e-07 1.43209e-05 -3.63647e-19)
(-4.96406e-07 1.32185e-05 -2.22855e-19)
(-6.4017e-07 1.20481e-05 -9.21399e-20)
(-7.60187e-07 1.08192e-05 -7.4773e-20)
(-8.59312e-07 9.5402e-06 -3.96059e-19)
(-9.39868e-07 8.21902e-06 -5.80669e-19)
(-1.00374e-06 6.863e-06 -3.75726e-19)
(-1.05244e-06 5.47906e-06 -2.19953e-19)
(-1.08722e-06 4.07366e-06 -3.2855e-19)
(-1.1093e-06 2.65333e-06 -4.79055e-19)
(-1.1161e-06 1.22581e-06 -4.21745e-19)
(-1.11221e-06 -2.07005e-07 -4.25406e-19)
(-1.09856e-06 -1.6345e-06 -5.89582e-19)
(-1.06905e-06 -3.05012e-06 -6.37355e-19)
(-1.02719e-06 -4.45283e-06 -5.81361e-19)
(-9.71707e-07 -5.83256e-06 -8.22997e-19)
(-9.01382e-07 -7.18318e-06 -1.02452e-18)
(-8.14756e-07 -8.49787e-06 -7.73023e-19)
(-7.09997e-07 -9.76934e-06 -7.03053e-19)
(-5.84827e-07 -1.09897e-05 -9.64924e-19)
(-4.36423e-07 -1.21506e-05 -1.03703e-18)
(-2.61281e-07 -1.32425e-05 -1.32168e-18)
(-5.50253e-08 -1.42552e-05 -1.71275e-18)
(1.87865e-07 -1.51773e-05 -1.37999e-18)
(4.74461e-07 -1.59957e-05 -1.14394e-18)
(8.13955e-07 -1.66958e-05 -9.13005e-19)
(1.2185e-06 -1.7261e-05 -9.07706e-19)
(1.70435e-06 -1.76732e-05 -1.42392e-18)
(2.29339e-06 -1.79126e-05 -1.66167e-18)
(3.01493e-06 -1.79593e-05 -1.84684e-18)
(3.90751e-06 -1.77958e-05 -1.8902e-18)
(5.0199e-06 -1.74103e-05 -2.30131e-18)
(6.41021e-06 -1.68021e-05 -2.42371e-18)
(8.14205e-06 -1.59857e-05 -1.68577e-18)
(1.02533e-05 -1.50187e-05 -6.87727e-19)
(1.73557e-05 -9.38792e-06 -2.92853e-19)
(1.96658e-05 1.17704e-05 6.54739e-18)
(1.21769e-05 1.77032e-05 5.32539e-18)
(1.01044e-05 1.85339e-05 4.72139e-18)
(8.39902e-06 1.9231e-05 4.24271e-18)
(7.03083e-06 1.974e-05 3.66799e-18)
(5.9411e-06 2.00498e-05 3.59479e-18)
(5.07822e-06 2.01554e-05 3.60095e-18)
(4.39636e-06 2.0062e-05 3.53108e-18)
(3.85713e-06 1.97814e-05 2.49002e-18)
(3.42976e-06 1.9329e-05 1.19478e-18)
(3.09018e-06 1.87217e-05 7.07854e-19)
(2.81982e-06 1.79758e-05 9.11645e-19)
(2.60441e-06 1.71072e-05 8.96701e-19)
(2.43289e-06 1.613e-05 9.79966e-20)
(2.29666e-06 1.50574e-05 -2.74524e-19)
(2.18894e-06 1.39011e-05 -8.2472e-20)
(2.10435e-06 1.26719e-05 4.11309e-20)
(2.03855e-06 1.13796e-05 3.41885e-19)
(1.98807e-06 1.00333e-05 2.68559e-20)
(1.95008e-06 8.64139e-06 -2.14377e-19)
(1.92234e-06 7.21177e-06 -1.38536e-19)
(1.90304e-06 5.75201e-06 -3.16392e-19)
(1.89075e-06 4.26955e-06 -4.03825e-19)
(1.88445e-06 2.76811e-06 -3.36446e-19)
(1.88375e-06 1.25883e-06 -1.59943e-19)
(1.88936e-06 -2.48171e-07 -2.53338e-19)
(1.89659e-06 -1.7559e-06 -5.49715e-19)
(1.91227e-06 -3.25481e-06 -5.12316e-19)
(1.93326e-06 -4.73345e-06 -4.38154e-19)
(1.96081e-06 -6.18829e-06 -5.93098e-19)
(1.99637e-06 -7.61184e-06 -7.13068e-19)
(2.04171e-06 -8.99654e-06 -5.49802e-19)
(2.09903e-06 -1.03345e-05 -5.14276e-19)
(2.17112e-06 -1.16173e-05 -9.00578e-19)
(2.2614e-06 -1.2836e-05 -9.60764e-19)
(2.37418e-06 -1.39808e-05 -9.02468e-19)
(2.51484e-06 -1.5041e-05 -1.08661e-18)
(2.69014e-06 -1.60049e-05 -9.40592e-19)
(2.90871e-06 -1.68595e-05 -1.11058e-18)
(3.18162e-06 -1.75908e-05 -1.03158e-18)
(3.5232e-06 -1.81832e-05 -8.02309e-19)
(3.95204e-06 -1.86207e-05 -1.37328e-18)
(4.49222e-06 -1.88869e-05 -1.6384e-18)
(5.17448e-06 -1.89672e-05 -1.64685e-18)
(6.03703e-06 -1.88503e-05 -1.86515e-18)
(7.12543e-06 -1.85321e-05 -2.18965e-18)
(8.49082e-06 -1.80184e-05 -1.78778e-18)
(1.01863e-05 -1.7327e-05 -6.56256e-19)
(1.22377e-05 -1.65142e-05 8.22305e-20)
(1.95459e-05 -1.07608e-05 -3.12012e-19)
(2.18649e-05 1.32306e-05 2.85156e-19)
(1.42215e-05 1.92688e-05 4.86367e-18)
(1.22289e-05 1.99548e-05 4.51772e-18)
(1.05799e-05 2.05271e-05 4.28772e-18)
(9.25286e-06 2.09344e-05 3.05227e-18)
(8.19774e-06 2.11639e-05 3.07123e-18)
(7.3695e-06 2.12071e-05 3.51989e-18)
(6.7263e-06 2.10644e-05 3.01746e-18)
(6.2315e-06 2.07427e-05 1.96842e-18)
(5.85432e-06 2.0253e-05 1.57848e-18)
(5.56969e-06 1.96089e-05 1.21169e-18)
(5.35754e-06 1.88247e-05 1.06688e-18)
(5.20198e-06 1.79146e-05 1.08028e-18)
(5.09041e-06 1.6892e-05 5.57351e-19)
(5.01286e-06 1.57698e-05 6.73997e-20)
(4.96139e-06 1.45596e-05 -1.38103e-19)
(4.92964e-06 1.32724e-05 -5.0264e-20)
(4.91251e-06 1.19182e-05 2.50721e-19)
(4.90587e-06 1.05066e-05 8.35618e-20)
(4.9064e-06 9.04631e-06 -1.15048e-19)
(4.91145e-06 7.54571e-06 -8.1925e-20)
(4.91896e-06 6.01277e-06 -1.62705e-19)
(4.9274e-06 4.45512e-06 -2.38966e-19)
(4.93592e-06 2.87976e-06 -1.76382e-19)
(4.9407e-06 1.29426e-06 -1.80346e-20)
(4.94583e-06 -2.93026e-07 -1.73368e-19)
(4.95144e-06 -1.87654e-06 -4.96064e-19)
(4.95308e-06 -3.44923e-06 -4.67699e-19)
(4.95463e-06 -5.00273e-06 -2.91513e-19)
(4.95678e-06 -6.5302e-06 -3.85661e-19)
(4.96093e-06 -8.02405e-06 -5.00269e-19)
(4.96908e-06 -9.47633e-06 -2.52205e-19)
(4.98381e-06 -1.08787e-05 -2.98744e-19)
(5.00839e-06 -1.22225e-05 -8.57301e-19)
(5.04688e-06 -1.34982e-05 -1.02282e-18)
(5.10437e-06 -1.46958e-05 -9.04025e-19)
(5.18717e-06 -1.58045e-05 -8.69443e-19)
(5.30322e-06 -1.68127e-05 -7.16938e-19)
(5.46247e-06 -1.77078e-05 -9.06934e-19)
(5.67751e-06 -1.84764e-05 -1.20463e-18)
(5.96426e-06 -1.91047e-05 -1.25642e-18)
(6.34279e-06 -1.95789e-05 -1.81167e-18)
(6.83817e-06 -1.98859e-05 -1.86672e-18)
(7.48112e-06 -2.00153e-05 -1.44562e-18)
(8.30816e-06 -1.99611e-05 -1.6021e-18)
(9.36089e-06 -1.97238e-05 -1.85017e-18)
(1.06841e-05 -1.93129e-05 -1.35263e-18)
(1.23227e-05 -1.87471e-05 -2.16495e-19)
(1.42945e-05 -1.808e-05 8.38627e-19)
(2.17694e-05 -1.22116e-05 -6.48468e-19)
(2.40639e-05 1.47434e-05 -2.05626e-18)
(1.63033e-05 2.0876e-05 2.014e-18)
(1.44041e-05 2.1428e-05 3.58155e-18)
(1.28265e-05 2.18797e-05 3.79102e-18)
(1.15543e-05 2.21833e-05 3.08488e-18)
(1.05445e-05 2.23256e-05 2.60888e-18)
(9.7576e-06 2.22966e-05 2.66195e-18)
(9.15573e-06 2.20936e-05 2.19463e-18)
(8.70458e-06 2.172e-05 2.30915e-18)
(8.3743e-06 2.11836e-05 2.71102e-18)
(8.13965e-06 2.0495e-05 2.05162e-18)
(7.97981e-06 1.96663e-05 1.05897e-18)
(7.8778e-06 1.87103e-05 7.89331e-19)
(7.81988e-06 1.76393e-05 5.75811e-19)
(7.79495e-06 1.64657e-05 6.5195e-20)
(7.79408e-06 1.52008e-05 -2.13413e-19)
(7.81002e-06 1.38557e-05 -1.63405e-20)
(7.83694e-06 1.24404e-05 1.59267e-19)
(7.87009e-06 1.09647e-05 -3.99247e-20)
(7.90568e-06 9.43763e-06 -7.54306e-20)
(7.94064e-06 7.86801e-06 4.28555e-20)
(7.9726e-06 6.26415e-06 3.26114e-20)
(7.99973e-06 4.63408e-06 3.02381e-20)
(8.02067e-06 2.98557e-06 1.50333e-19)
(8.03412e-06 1.32644e-06 2.25815e-19)
(8.03989e-06 -3.35405e-07 -3.33781e-20)
(8.03864e-06 -1.9928e-06 -3.08035e-19)
(8.02956e-06 -3.63821e-06 -3.51471e-19)
(8.01401e-06 -5.26367e-06 6.1176e-20)
(7.99321e-06 -6.86147e-06 -2.9549e-19)
(7.9689e-06 -8.4236e-06 -7.36956e-19)
(7.94336e-06 -9.94178e-06 -3.29252e-19)
(7.91958e-06 -1.14073e-05 -3.28514e-19)
(7.90129e-06 -1.28112e-05 -5.50534e-19)
(7.89316e-06 -1.41438e-05 -6.82033e-19)
(7.90099e-06 -1.53949e-05 -7.15452e-19)
(7.93197e-06 -1.65538e-05 -7.70909e-19)
(7.99499e-06 -1.76092e-05 -9.71173e-19)
(8.10112e-06 -1.8549e-05 -1.09751e-18)
(8.26406e-06 -1.9361e-05 -1.23235e-18)
(8.50077e-06 -2.00329e-05 -1.38574e-18)
(8.83207e-06 -2.0553e-05 -1.81286e-18)
(9.28313e-06 -2.09113e-05 -1.96782e-18)
(9.88381e-06 -2.11009e-05 -1.46967e-18)
(1.06684e-05 -2.11192e-05 -1.29768e-18)
(1.16744e-05 -2.09698e-05 -1.59407e-18)
(1.29415e-05 -2.0664e-05 -1.38356e-18)
(1.45084e-05 -2.02201e-05 -6.24129e-19)
(1.63871e-05 -1.96892e-05 4.17215e-19)
(2.39915e-05 -1.37182e-05 -2.2094e-18)
(2.62366e-05 1.62888e-05 -7.78457e-19)
(1.83945e-05 2.25021e-05 3.14058e-19)
(1.65979e-05 2.29313e-05 2.84576e-18)
(1.51024e-05 2.32691e-05 3.19679e-18)
(1.38958e-05 2.34707e-05 2.92535e-18)
(1.29405e-05 2.35235e-05 3.1625e-18)
(1.22017e-05 2.34169e-05 3.03959e-18)
(1.1645e-05 2.31466e-05 2.14374e-18)
(1.12388e-05 2.27136e-05 1.77501e-18)
(1.09545e-05 2.21231e-05 1.93188e-18)
(1.07673e-05 2.13836e-05 1.57947e-18)
(1.06561e-05 2.05052e-05 1.09074e-18)
(1.06034e-05 1.94991e-05 1.01975e-18)
(1.05946e-05 1.83769e-05 7.63004e-19)
(1.06178e-05 1.71499e-05 1.48272e-19)
(1.06631e-05 1.58293e-05 -1.7461e-19)
(1.07226e-05 1.44258e-05 1.66158e-19)
(1.07898e-05 1.29497e-05 4.26857e-19)
(1.08595e-05 1.14107e-05 1.36709e-19)
(1.09272e-05 9.81808e-06 -6.79834e-20)
(1.09897e-05 8.18093e-06 -1.41264e-20)
(1.10441e-05 6.5079e-06 -1.18325e-19)
(1.10885e-05 4.80739e-06 -5.57509e-20)
(1.11213e-05 3.08762e-06 2.08881e-19)
(1.11413e-05 1.35674e-06 3.30464e-19)
(1.11481e-05 -3.7719e-07 6.60813e-20)
(1.11419e-05 -2.10629e-06 -2.86288e-19)
(1.11227e-05 -3.82262e-06 -3.74281e-19)
(1.10916e-05 -5.51802e-06 2.95063e-19)
(1.10499e-05 -7.18434e-06 -3.32061e-20)
(1.09996e-05 -8.81322e-06 -5.33433e-19)
(1.09433e-05 -1.0396e-05 -9.26491e-20)
(1.08843e-05 -1.19239e-05 -8.14466e-20)
(1.0827e-05 -1.33875e-05 -1.85311e-19)
(1.07763e-05 -1.47772e-05 -4.13469e-19)
(1.07389e-05 -1.60828e-05 -7.89707e-19)
(1.07226e-05 -1.72938e-05 -8.79579e-19)
(1.07371e-05 -1.83991e-05 -8.86903e-19)
(1.07943e-05 -1.93876e-05 -1.08902e-18)
(1.09087e-05 -2.02481e-05 -1.20384e-18)
(1.10977e-05 -2.09698e-05 -1.35207e-18)
(1.13825e-05 -2.1543e-05 -1.39294e-18)
(1.17878e-05 -2.19601e-05 -1.5278e-18)
(1.2342e-05 -2.22168e-05 -1.35873e-18)
(1.30771e-05 -2.2313e-05 -1.34197e-18)
(1.40272e-05 -2.22542e-05 -1.7219e-18)
(1.52273e-05 -2.20522e-05 -1.54483e-18)
(1.67116e-05 -2.17245e-05 -9.10739e-19)
(1.84882e-05 -2.13199e-05 -6.94816e-19)
(2.61869e-05 -1.52618e-05 -2.70127e-18)
(2.83632e-05 1.78493e-05 -4.46675e-19)
(2.04736e-05 2.41283e-05 9.68819e-19)
(1.87858e-05 2.44462e-05 2.1104e-18)
(1.738e-05 2.46779e-05 1.91989e-18)
(1.62471e-05 2.47816e-05 1.82909e-18)
(1.53539e-05 2.47455e-05 3.01243e-18)
(1.46691e-05 2.45593e-05 2.97876e-18)
(1.4162e-05 2.42177e-05 2.14554e-18)
(1.3803e-05 2.37202e-05 1.60801e-18)
(1.35652e-05 2.30706e-05 1.64286e-18)
(1.34245e-05 2.22753e-05 1.38208e-18)
(1.336e-05 2.13429e-05 1.12668e-18)
(1.33539e-05 2.02834e-05 1.02681e-18)
(1.33911e-05 1.91072e-05 9.52497e-19)
(1.3459e-05 1.78251e-05 4.61353e-19)
(1.35473e-05 1.64477e-05 1.18956e-19)
(1.36472e-05 1.49855e-05 3.38994e-19)
(1.37517e-05 1.34486e-05 6.10586e-19)
(1.38551e-05 1.18467e-05 2.44906e-19)
(1.39527e-05 1.01895e-05 1.89488e-19)
(1.40406e-05 8.486e-06 2.42882e-19)
(1.4116e-05 6.74521e-06 -1.2966e-19)
(1.41764e-05 4.97584e-06 1.45119e-20)
(1.42203e-05 3.18645e-06 3.13401e-19)
(1.42464e-05 1.3855e-06 3.44034e-19)
(1.42543e-05 -4.18625e-07 5.14194e-20)
(1.42438e-05 -2.21764e-06 -1.67395e-19)
(1.42153e-05 -4.00322e-06 -8.61036e-20)
(1.41698e-05 -5.76694e-06 4.58628e-19)
(1.41088e-05 -7.50032e-06 2.28872e-19)
(1.40346e-05 -9.1947e-06 -1.25534e-19)
(1.395e-05 -1.08412e-05 5.0725e-20)
(1.38587e-05 -1.24308e-05 -1.24452e-19)
(1.37652e-05 -1.3954e-05 -1.93894e-19)
(1.36753e-05 -1.54012e-05 -3.19694e-19)
(1.35959e-05 -1.67622e-05 -8.05725e-19)
(1.35356e-05 -1.80269e-05 -9.19097e-19)
(1.35047e-05 -1.91848e-05 -8.24388e-19)
(1.35157e-05 -2.02252e-05 -1.13551e-18)
(1.35834e-05 -2.11382e-05 -1.14173e-18)
(1.37257e-05 -2.19144e-05 -1.39606e-18)
(1.39633e-05 -2.25457e-05 -1.53882e-18)
(1.43203e-05 -2.30265e-05 -1.41236e-18)
(1.48238e-05 -2.33543e-05 -1.23769e-18)
(1.55031e-05 -2.35307e-05 -1.32846e-18)
(1.63896e-05 -2.35623e-05 -1.79548e-18)
(1.75145e-05 -2.34607e-05 -1.79956e-18)
(1.89087e-05 -2.32428e-05 -1.62348e-18)
(2.05772e-05 -2.29545e-05 -1.85041e-18)
(2.83374e-05 -1.68263e-05 -2.19753e-18)
(3.04288e-05 1.9409e-05 -1.33163e-18)
(2.25236e-05 2.57384e-05 1.07289e-18)
(2.09484e-05 2.59568e-05 1.54576e-18)
(1.96377e-05 2.60908e-05 1.73784e-18)
(1.85847e-05 2.61022e-05 1.86271e-18)
(1.77595e-05 2.59799e-05 2.69232e-18)
(1.71341e-05 2.57142e-05 2.27913e-18)
(1.66804e-05 2.52997e-05 1.81686e-18)
(1.63713e-05 2.47351e-05 1.42874e-18)
(1.61813e-05 2.40229e-05 1.36738e-18)
(1.60873e-05 2.31684e-05 1.0726e-18)
(1.60687e-05 2.21789e-05 9.39239e-19)
(1.61077e-05 2.10633e-05 1.04104e-18)
(1.61889e-05 1.9831e-05 1.14378e-18)
(1.62993e-05 1.84923e-05 7.40079e-19)
(1.6428e-05 1.70572e-05 3.89525e-19)
(1.65659e-05 1.55359e-05 5.57396e-19)
(1.67055e-05 1.39383e-05 8.41026e-19)
(1.68405e-05 1.22741e-05 4.99749e-19)
(1.69659e-05 1.0553e-05 4.02433e-19)
(1.70777e-05 8.78416e-06 3.05016e-19)
(1.71726e-05 6.97682e-06 -1.145e-19)
(1.72482e-05 5.13995e-06 2.18577e-19)
(1.73025e-05 3.28239e-06 4.71624e-19)
(1.73344e-05 1.4129e-06 4.52198e-19)
(1.73433e-05 -4.59836e-07 5.74107e-20)
(1.73289e-05 -2.3272e-06 -8.69072e-20)
(1.72919e-05 -4.18054e-06 2.49862e-19)
(1.72331e-05 -6.01117e-06 6.37406e-19)
(1.71544e-05 -7.81033e-06 5.413e-19)
(1.7058e-05 -9.56912e-06 3.17106e-19)
(1.6947e-05 -1.12785e-05 1.69885e-19)
(1.68254e-05 -1.29293e-05 -1.71443e-19)
(1.66982e-05 -1.45119e-05 -3.53681e-19)
(1.65715e-05 -1.60169e-05 -4.68714e-19)
(1.64526e-05 -1.74343e-05 -9.11709e-19)
(1.63507e-05 -1.8754e-05 -9.06681e-19)
(1.62765e-05 -1.99663e-05 -6.60106e-19)
(1.62427e-05 -2.10613e-05 -9.41702e-19)
(1.62647e-05 -2.20297e-05 -1.13172e-18)
(1.636e-05 -2.28636e-05 -1.45586e-18)
(1.65492e-05 -2.35562e-05 -1.94968e-18)
(1.68552e-05 -2.41034e-05 -1.62349e-18)
(1.73037e-05 -2.45041e-05 -1.26459e-18)
(1.79221e-05 -2.47609e-05 -1.58601e-18)
(1.87389e-05 -2.48808e-05 -1.98213e-18)
(1.97827e-05 -2.48753e-05 -2.27487e-18)
(2.10813e-05 -2.476e-05 -2.20578e-18)
(2.2638e-05 -2.45788e-05 -2.3312e-18)
(3.04295e-05 -1.8398e-05 -2.58249e-18)
(3.2421e-05 2.09536e-05 -3.95373e-19)
(2.45306e-05 2.73188e-05 1.18571e-18)
(2.30699e-05 2.74493e-05 1.66146e-18)
(2.1858e-05 2.74946e-05 1.6932e-18)
(2.08896e-05 2.742e-05 1.85151e-18)
(2.01371e-05 2.72156e-05 1.90199e-18)
(1.95755e-05 2.68724e-05 1.89416e-18)
(1.9179e-05 2.63851e-05 1.55538e-18)
(1.89225e-05 2.57524e-05 1.36101e-18)
(1.87821e-05 2.49758e-05 1.34101e-18)
(1.87355e-05 2.406e-05 1.22674e-18)
(1.87627e-05 2.30113e-05 1.11369e-18)
(1.88461e-05 2.18377e-05 1.1284e-18)
(1.89701e-05 2.0548e-05 8.68313e-19)
(1.91215e-05 1.91516e-05 5.183e-19)
(1.9289e-05 1.76582e-05 4.92372e-19)
(1.94631e-05 1.60775e-05 6.06811e-19)
(1.96359e-05 1.44194e-05 6.2609e-19)
(1.98008e-05 1.26934e-05 4.81986e-19)
(1.99526e-05 1.09091e-05 5.9915e-19)
(2.00869e-05 9.0759e-06 5.02814e-19)
(2.02003e-05 7.20314e-06 1.77457e-19)
(2.02901e-05 5.30002e-06 3.88454e-19)
(2.03545e-05 3.37564e-06 5.69798e-19)
(2.03919e-05 1.43902e-06 5.79413e-19)
(2.04018e-05 -5.00892e-07 1.90885e-19)
(2.0384e-05 -2.43517e-06 1.0953e-19)
(2.0339e-05 -4.35489e-06 4.02763e-19)
(2.0268e-05 -6.25112e-06 4.80158e-19)
(2.01726e-05 -8.11486e-06 5.34637e-19)
(2.00553e-05 -9.93704e-06 4.50794e-19)
(1.99196e-05 -1.17085e-05 1.74336e-19)
(1.97695e-05 -1.34199e-05 -7.75092e-20)
(1.96104e-05 -1.50618e-05 -1.49602e-19)
(1.94488e-05 -1.66246e-05 -2.47606e-19)
(1.92923e-05 -1.80988e-05 -6.81938e-19)
(1.91503e-05 -1.94747e-05 -7.78601e-19)
(1.9034e-05 -2.07427e-05 -6.61516e-19)
(1.89564e-05 -2.18939e-05 -9.37386e-19)
(1.89327e-05 -2.29198e-05 -1.18607e-18)
(1.89805e-05 -2.38133e-05 -1.33692e-18)
(1.91195e-05 -2.4569e-05 -1.90122e-18)
(1.9372e-05 -2.51837e-05 -1.71947e-18)
(1.9762e-05 -2.56573e-05 -1.22268e-18)
(2.0315e-05 -2.5993e-05 -1.65579e-18)
(2.10575e-05 -2.61982e-05 -2.30986e-18)
(2.20158e-05 -2.62836e-05 -2.78132e-18)
(2.32154e-05 -2.62641e-05 -2.40777e-18)
(2.46582e-05 -2.6181e-05 -2.33206e-18)
(3.2453e-05 -1.99649e-05 -2.16827e-18)
(3.43296e-05 2.24693e-05 2.44843e-18)
(2.6483e-05 2.88569e-05 1.08258e-18)
(2.5137e-05 2.89114e-05 1.15274e-18)
(2.40263e-05 2.88771e-05 1.13049e-18)
(2.31463e-05 2.87237e-05 1.70113e-18)
(2.24703e-05 2.84424e-05 1.74465e-18)
(2.1976e-05 2.80247e-05 1.93535e-18)
(2.164e-05 2.74662e-05 1.59485e-18)
(2.14388e-05 2.67656e-05 1.31809e-18)
(2.13498e-05 2.59243e-05 1.35013e-18)
(2.13518e-05 2.49462e-05 1.34239e-18)
(2.14254e-05 2.38372e-05 1.23154e-18)
(2.15532e-05 2.26045e-05 1.13637e-18)
(2.17195e-05 2.12565e-05 6.36567e-19)
(2.19109e-05 1.98019e-05 4.0074e-19)
(2.21161e-05 1.825e-05 7.32544e-19)
(2.23251e-05 1.66101e-05 7.2196e-19)
(2.25298e-05 1.48918e-05 6.29879e-19)
(2.27234e-05 1.31046e-05 6.47861e-19)
(2.29003e-05 1.12579e-05 6.38665e-19)
(2.3056e-05 9.36137e-06 4.18517e-19)
(2.3187e-05 7.42431e-06 3.04833e-19)
(2.32905e-05 5.45616e-06 4.77515e-19)
(2.33643e-05 3.46626e-06 6.2141e-19)
(2.34071e-05 1.46386e-06 5.5173e-19)
(2.34181e-05 -5.41827e-07 2.80575e-19)
(2.33972e-05 -2.54163e-06 3.60995e-19)
(2.33449e-05 -4.52638e-06 6.77435e-19)
(2.32622e-05 -6.48691e-06 6.28345e-19)
(2.31512e-05 -8.41405e-06 5.78103e-19)
(2.30143e-05 -1.02986e-05 5.04509e-19)
(2.28551e-05 -1.21312e-05 2.83594e-19)
(2.26779e-05 -1.39025e-05 2.92709e-20)
(2.24884e-05 -1.56033e-05 -8.4475e-20)
(2.22931e-05 -1.72239e-05 -2.20486e-19)
(2.21002e-05 -1.87551e-05 -6.54302e-19)
(2.19193e-05 -2.01875e-05 -6.36455e-19)
(2.17617e-05 -2.15121e-05 -5.3631e-19)
(2.16406e-05 -2.27204e-05 -9.53006e-19)
(2.1571e-05 -2.38047e-05 -1.37594e-18)
(2.15703e-05 -2.47589e-05 -1.52447e-18)
(2.16575e-05 -2.55781e-05 -1.79619e-18)
(2.1854e-05 -2.62602e-05 -1.8416e-18)
(2.21824e-05 -2.68056e-05 -1.42706e-18)
(2.26668e-05 -2.7218e-05 -1.72137e-18)
(2.33316e-05 -2.75044e-05 -2.25143e-18)
(2.42012e-05 -2.76755e-05 -2.48197e-18)
(2.52996e-05 -2.77446e-05 -2.16166e-18)
(2.66276e-05 -2.77513e-05 -1.87644e-18)