/*--------------------------------*- C++ -*----------------------------------*\
  =========                 |
  \\      /  F ield         | OpenFOAM: The Open Source CFD Toolbox
   \\    /   O peration     | Website:  https://openfoam.org
    \\  /    A nd           | Version:  7
     \\/     M anipulation  |
\*---------------------------------------------------------------------------*/
FoamFile
{
    version     2.0;
    format      ascii;
    class       volScalarField;
    location    "140000";
    object      omega;
}
// * * * * * * * * * * * * * * * * * * * * * * * * * * * * * * * * * * * * * //

dimensions      [0 0 -1 0 0 0 0];

internalField   nonuniform List<scalar> 
4850
(
0.0287638
0.0285035
0.0292719
0.029005
0.0287495
0.0297931
0.0295198
0.029258
0.0290068
0.0287666
0.0303273
0.0300478
0.0297797
0.0295225
0.0292763
0.0290413
0.0308743
0.0305887
0.0303145
0.0300513
0.0297993
0.0295586
0.0293294
0.031434
0.0311423
0.0308622
0.0305931
0.0303354
0.0300891
0.0298545
0.0296317
0.0294209
0.0320062
0.0317085
0.0314225
0.0311477
0.0308843
0.0306326
0.0303927
0.0301647
0.0299489
0.0297454
0.0325908
0.0322872
0.0319955
0.031715
0.0314461
0.0311889
0.0309438
0.0307108
0.0304901
0.0302819
0.0300864
0.0299035
0.0297334
0.0295762
0.0331877
0.0328784
0.0325809
0.0322949
0.0320205
0.031758
0.0315077
0.0312697
0.0310443
0.0308315
0.0306316
0.0304446
0.0302706
0.0301098
0.0299621
0.0298278
0.0297068
0.0295991
0.033797
0.0334819
0.0331788
0.0328872
0.0326074
0.0323397
0.0320843
0.0318414
0.0316113
0.031394
0.0311897
0.0309987
0.0308209
0.0306565
0.0305055
0.0303681
0.0302443
0.0301342
0.0300377
0.029955
0.0344185
0.0340978
0.033789
0.033492
0.0332068
0.0329339
0.0326735
0.0324258
0.032191
0.0319693
0.0317608
0.0315657
0.0313841
0.0312162
0.031062
0.0309216
0.0307951
0.0306825
0.0305838
0.0304992
0.0304287
0.0303723
0.0303299
0.0303016
0.0350523
0.0347259
0.0344116
0.0341091
0.0338187
0.0335407
0.0332753
0.0330228
0.0327833
0.0325572
0.0323446
0.0321455
0.0319603
0.0317888
0.0316314
0.0314881
0.0313588
0.0312438
0.0311431
0.0310567
0.0309846
0.0309269
0.0308836
0.0308548
0.0308403
0.0308403
0.0308548
0.0308836
0.0309269
0.0356984
0.0353664
0.0350465
0.0347386
0.0344429
0.0341598
0.0338895
0.0336322
0.0333883
0.0331578
0.032941
0.0327381
0.0325491
0.0323743
0.0322137
0.0320674
0.0319356
0.0318182
0.0317154
0.0316271
0.0315536
0.0314947
0.0314505
0.031421
0.0314063
0.0314063
0.031421
0.0314505
0.0314947
0.0315536
0.0316271
0.0317153
0.0363569
0.0360191
0.0356938
0.0353805
0.0350796
0.0347914
0.0345162
0.0342542
0.0340057
0.033771
0.0335501
0.0333433
0.0331507
0.0329725
0.0328087
0.0326596
0.0325251
0.0324054
0.0323005
0.0322105
0.0321355
0.0320754
0.0320303
0.0320002
0.0319851
0.0319851
0.0320002
0.0320303
0.0320754
0.0321354
0.0322105
0.0323005
0.0324054
0.0325251
0.0370277
0.0366843
0.0363535
0.0360348
0.0357287
0.0354354
0.0351553
0.0348887
0.0346357
0.0343967
0.0341717
0.0339611
0.0337649
0.0335833
0.0334165
0.0332645
0.0331274
0.0330054
0.0328985
0.0328067
0.0327302
0.0326689
0.0326229
0.0325923
0.0325769
0.0325769
0.0325923
0.0326229
0.0326689
0.0327302
0.0328067
0.0328985
0.0330054
0.0331274
0.037711
0.037362
0.0370256
0.0367016
0.0363902
0.036092
0.035807
0.0355357
0.0352783
0.0350349
0.034806
0.0345915
0.0343917
0.0342068
0.0340369
0.033882
0.0337424
0.0336181
0.0335092
0.0334157
0.0333377
0.0332753
0.0332284
0.0331972
0.0331815
0.0331815
0.0331971
0.0332284
0.0332753
0.0333377
0.0334157
0.0335092
0.0336181
0.0337424
0.0384068
0.0380522
0.0377103
0.0373809
0.0370643
0.036761
0.0364712
0.0361952
0.0359333
0.0356858
0.0354528
0.0352345
0.0350312
0.0348429
0.03467
0.0345123
0.0343702
0.0342436
0.0341326
0.0340374
0.033958
0.0338944
0.0338467
0.0338148
0.0337989
0.0337989
0.0338148
0.0338467
0.0338944
0.033958
0.0340374
0.0341326
0.0342435
0.0343701
0.0391153
0.038755
0.0384076
0.0380728
0.0377511
0.0374427
0.037148
0.0368674
0.036601
0.0363492
0.0361122
0.0358902
0.0356833
0.0354918
0.0353157
0.0351553
0.0350106
0.0348817
0.0347688
0.0346719
0.034591
0.0345263
0.0344777
0.0344453
0.0344291
0.0344291
0.0344453
0.0344777
0.0345263
0.034591
0.0346719
0.0347688
0.0348817
0.0350105
0.0398367
0.0394707
0.0391177
0.0387775
0.0384505
0.0381371
0.0378376
0.0375523
0.0372814
0.0370254
0.0367844
0.0365585
0.0363481
0.0361533
0.0359742
0.035811
0.0356638
0.0355327
0.0354177
0.0353191
0.0352368
0.0351709
0.0351215
0.0350885
0.035072
0.035072
0.0350885
0.0351215
0.0351709
0.0352368
0.0353191
0.0354177
0.0355326
0.0356637
0.0405711
0.0401993
0.0398407
0.0394951
0.0391628
0.0388443
0.0385399
0.0382499
0.0379746
0.0377143
0.0374693
0.0372397
0.0370257
0.0368276
0.0366454
0.0364794
0.0363297
0.0361964
0.0360795
0.0359791
0.0358954
0.0358284
0.0357781
0.0357445
0.0357277
0.0357277
0.0357445
0.0357781
0.0358284
0.0358954
0.0359791
0.0360794
0.0361963
0.0363297
0.0413186
0.040941
0.0405768
0.0402257
0.0398881
0.0395645
0.0392552
0.0389605
0.0386807
0.0384162
0.0381671
0.0379337
0.0377162
0.0375147
0.0373296
0.0371608
0.0370085
0.0368729
0.036754
0.036652
0.0365669
0.0364987
0.0364475
0.0364134
0.0363963
0.0363963
0.0364134
0.0364475
0.0364987
0.0365669
0.036652
0.036754
0.0368729
0.0370085
0.0420795
0.0416961
0.0413261
0.0409695
0.0406266
0.0402978
0.0399836
0.0396842
0.0393999
0.039131
0.0388779
0.0386407
0.0384196
0.0382149
0.0380266
0.0378551
0.0377003
0.0375624
0.0374416
0.0373378
0.0372513
0.037182
0.0371299
0.0370952
0.0370779
0.0370779
0.0370952
0.0371299
0.037182
0.0372513
0.0373378
0.0374416
0.0375624
0.0377002
0.042854
0.0424646
0.0420889
0.0417267
0.0413784
0.0410445
0.0407252
0.040421
0.0401322
0.0398591
0.0396019
0.0393608
0.0391362
0.0389281
0.0387368
0.0385624
0.0384051
0.038265
0.0381422
0.0380367
0.0379487
0.0378783
0.0378254
0.0377901
0.0377725
0.0377725
0.0377901
0.0378254
0.0378783
0.0379487
0.0380367
0.0381421
0.038265
0.0384051
0.0385624
0.0436423
0.0432469
0.0428654
0.0424975
0.0421438
0.0418046
0.0414804
0.0411714
0.040878
0.0406005
0.0403392
0.0400942
0.039866
0.0396546
0.0394602
0.039283
0.0391232
0.0389808
0.0388559
0.0387488
0.0386594
0.0385878
0.038534
0.0384982
0.0384802
0.0384802
0.0384982
0.038534
0.0385878
0.0386594
0.0387488
0.0388559
0.0389807
0.0391231
0.0392829
0.0444446
0.0440432
0.0436558
0.0432822
0.042923
0.0425785
0.0422492
0.0419353
0.0416373
0.0413554
0.0410899
0.0408411
0.0406093
0.0403945
0.040197
0.040017
0.0398546
0.0397099
0.0395831
0.0394742
0.0393833
0.0393106
0.039256
0.0392195
0.0392013
0.0392013
0.0392195
0.039256
0.0393106
0.0393833
0.0394742
0.039583
0.0397098
0.0398545
0.0400169
0.0452613
0.0448537
0.0444603
0.044081
0.0437162
0.0433663
0.0430319
0.0427131
0.0424104
0.0421241
0.0418544
0.0416017
0.0413662
0.041148
0.0409474
0.0407645
0.0405995
0.0404525
0.0403237
0.0402131
0.0401208
0.0400469
0.0399914
0.0399544
0.0399359
0.0399359
0.0399544
0.0399914
0.0400469
0.0401208
0.0402131
0.0403237
0.0404525
0.0405995
0.0460927
0.0456788
0.0452794
0.0448941
0.0445237
0.0441684
0.0438287
0.043505
0.0431976
0.0429068
0.0426329
0.0423762
0.0421369
0.0419153
0.0417116
0.0415258
0.0413582
0.0412089
0.041078
0.0409657
0.0408719
0.0407968
0.0407405
0.0407029
0.0406841
0.0406841
0.0407029
0.0407405
0.0407968
0.0408719
0.0409656
0.041078
0.0412089
0.0413581
0.046939
0.0465188
0.0461131
0.045722
0.0453458
0.044985
0.04464
0.0443112
0.043999
0.0437037
0.0434255
0.0431648
0.0429218
0.0426967
0.0424898
0.0423011
0.0421309
0.0419792
0.0418463
0.0417322
0.0416369
0.0415607
0.0415034
0.0414652
0.0414461
0.0414461
0.0414652
0.0415034
0.0415607
0.0416369
0.0417321
0.0418463
0.0419792
0.0421308
0.0478005
0.0473739
0.0469619
0.0465647
0.0461827
0.0458163
0.045466
0.0451321
0.044815
0.0445151
0.0442326
0.0439678
0.043721
0.0434924
0.0432822
0.0430906
0.0429177
0.0427637
0.0426287
0.0425128
0.0424161
0.0423386
0.0422805
0.0422417
0.0422223
0.0422223
0.0422417
0.0422805
0.0423386
0.0424161
0.0425128
0.0426287
0.0427637
0.0429177
0.0486777
0.0482445
0.0478262
0.0474228
0.0470349
0.0466628
0.046307
0.0459679
0.0456459
0.0453413
0.0450544
0.0447855
0.0445349
0.0443027
0.0440892
0.0438946
0.0437191
0.0435627
0.0434255
0.0433078
0.0432096
0.0431309
0.0430719
0.0430325
0.0430128
0.0430128
0.0430325
0.0430719
0.0431309
0.0432096
0.0433078
0.0434255
0.0435626
0.0495709
0.0491309
0.0487061
0.0482965
0.0479025
0.0475247
0.0471634
0.046819
0.046492
0.0461826
0.0458913
0.0456182
0.0453637
0.0451279
0.0449111
0.0447135
0.0445351
0.0443763
0.0442371
0.0441175
0.0440178
0.0439379
0.0438779
0.0438379
0.0438179
0.0438179
0.0438379
0.0438779
0.0439379
0.0440178
0.0441175
0.044237
0.0443763
0.0504804
0.0500336
0.0496022
0.0491862
0.0487861
0.0484024
0.0480354
0.0476857
0.0473536
0.0470394
0.0467435
0.0464662
0.0462077
0.0459682
0.0457481
0.0455474
0.0453663
0.045205
0.0450636
0.0449422
0.0448409
0.0447598
0.0446989
0.0446583
0.0446379
0.0446379
0.0446582
0.0446989
0.0447597
0.0448409
0.0449421
0.0450635
0.0514067
0.050953
0.0505148
0.0500923
0.049686
0.0492962
0.0489235
0.0485684
0.0482311
0.047912
0.0476115
0.0473298
0.0470673
0.0468241
0.0466005
0.0463967
0.0462128
0.046049
0.0459054
0.0457821
0.0456792
0.0455969
0.045535
0.0454938
0.0454731
0.0454731
0.0454938
0.045535
0.0455968
0.0456792
0.0457821
0.0459053
0.0523502
0.0518894
0.0514444
0.0510152
0.0506025
0.0502066
0.0498281
0.0494674
0.0491248
0.0488007
0.0484955
0.0482094
0.0479428
0.0476958
0.0474687
0.0472617
0.047075
0.0469086
0.0467628
0.0466376
0.0465332
0.0464495
0.0463867
0.0463448
0.0463239
0.0463239
0.0463448
0.0463867
0.0464495
0.0465331
0.0466376
0.0467628
0.0533114
0.0528433
0.0523913
0.0519554
0.0515361
0.051134
0.0507495
0.0503831
0.0500351
0.049706
0.049396
0.0491054
0.0488346
0.0485838
0.0483532
0.0481429
0.0479533
0.0477843
0.0476363
0.0475091
0.047403
0.0473181
0.0472543
0.0472118
0.0471905
0.0471905
0.0472118
0.0472543
0.0473181
0.047403
0.0475091
0.0476362
0.0542907
0.0538152
0.053356
0.0529132
0.0524873
0.0520788
0.0516883
0.0513161
0.0509626
0.0506282
0.0503133
0.0500182
0.0497432
0.0494884
0.0492542
0.0490407
0.048848
0.0486765
0.0485261
0.048397
0.0482892
0.048203
0.0481382
0.048095
0.0480734
0.0480734
0.048095
0.0481382
0.0482029
0.0482892
0.0483969
0.048526
0.0552886
0.0548055
0.054339
0.0538891
0.0534564
0.0530415
0.0526447
0.0522666
0.0519075
0.0515679
0.051248
0.0509482
0.0506688
0.0504101
0.0501722
0.0499553
0.0497597
0.0495854
0.0494327
0.0493015
0.0491921
0.0491045
0.0490387
0.0489949
0.0489729
0.0489729
0.0489949
0.0490387
0.0491045
0.0491921
0.0493015
0.0494326
0.0563056
0.0558147
0.0553407
0.0548837
0.0544441
0.0540225
0.0536194
0.0532352
0.0528704
0.0525254
0.0522004
0.0518959
0.0516121
0.0513492
0.0511076
0.0508873
0.0506886
0.0505116
0.0503564
0.0502233
0.0501121
0.0500232
0.0499564
0.0499118
0.0498895
0.0498895
0.0499118
0.0499564
0.0500231
0.0501121
0.0502232
0.0503564
0.0573423
0.0568435
0.0563618
0.0558974
0.0554507
0.0550223
0.0546128
0.0542224
0.0538518
0.0535012
0.0531711
0.0528617
0.0525734
0.0523064
0.0520609
0.0518371
0.0516352
0.0514555
0.0512979
0.0511626
0.0510497
0.0509594
0.0508915
0.0508463
0.0508236
0.0508236
0.0508463
0.0508915
0.0509593
0.0510497
0.0511626
0.0512978
0.0583992
0.0578923
0.0574028
0.0569308
0.0564769
0.0560415
0.0556254
0.0552287
0.0548521
0.0544959
0.0541605
0.0538461
0.0535532
0.0532819
0.0530325
0.0528052
0.0526001
0.0524175
0.0522574
0.05212
0.0520054
0.0519136
0.0518447
0.0517987
0.0517757
0.0517757
0.0517987
0.0518446
0.0519135
0.0520053
0.05212
0.0522574
0.0594769
0.0589617
0.0584641
0.0579844
0.0575231
0.0570807
0.0566577
0.0562547
0.0558719
0.05551
0.0551691
0.0548497
0.054552
0.0542764
0.054023
0.053792
0.0535837
0.0533982
0.0532356
0.053096
0.0529795
0.0528862
0.0528162
0.0527696
0.0527462
0.0527462
0.0527696
0.0528162
0.0528862
0.0529795
0.0530959
0.0532355
0.060576
0.0600522
0.0595465
0.0590589
0.05859
0.0581403
0.0577104
0.0573008
0.0569118
0.0565439
0.0561975
0.0558729
0.0555705
0.0552904
0.0550329
0.0547982
0.0545866
0.054398
0.0542328
0.054091
0.0539727
0.0538779
0.0538068
0.0537594
0.0537357
0.0537357
0.0537594
0.0538068
0.0538779
0.0539727
0.054091
0.0542328
0.0616972
0.0611647
0.0606505
0.0601548
0.0596781
0.059221
0.058784
0.0583676
0.0579723
0.0575984
0.0572463
0.0569164
0.056609
0.0563244
0.0560627
0.0558242
0.0556092
0.0554176
0.0552497
0.0551056
0.0549854
0.0548891
0.0548169
0.0547687
0.0547446
0.0547446
0.0547687
0.0548169
0.0548891
0.0549854
0.0551056
0.0552497
0.062841
0.0622996
0.0617768
0.0612728
0.0607882
0.0603235
0.0598792
0.0594559
0.059054
0.0586739
0.058316
0.0579807
0.0576683
0.057379
0.057113
0.0568707
0.0566521
0.0564575
0.0562869
0.0561404
0.0560183
0.0559205
0.055847
0.0557981
0.0557736
0.0557736
0.0557981
0.055847
0.0559204
0.0560183
0.0561404
0.0562868
0.0640083
0.0634577
0.0629261
0.0624136
0.0619208
0.0614483
0.0609966
0.0605662
0.0601575
0.0597711
0.0594073
0.0590665
0.0587489
0.0584548
0.0581845
0.0579382
0.057716
0.0575182
0.0573448
0.057196
0.0570718
0.0569724
0.0568978
0.0568481
0.0568232
0.0568232
0.0568481
0.0568978
0.0569724
0.0570718
0.057196
0.0573448
0.0651996
0.0646396
0.064099
0.0635778
0.0630766
0.0625961
0.0621368
0.0616991
0.0612836
0.0608907
0.0605208
0.0601743
0.0598514
0.0595525
0.0592777
0.0590273
0.0588015
0.0586004
0.0584242
0.0582729
0.0581467
0.0580457
0.0579699
0.0579193
0.057894
0.057894
0.0579193
0.0579699
0.0580457
0.0581467
0.0582729
0.0584241
0.0664159
0.0658462
0.0652963
0.0647662
0.0642565
0.0637677
0.0633006
0.0628555
0.0624329
0.0620334
0.0616573
0.0613049
0.0609766
0.0606727
0.0603933
0.0601387
0.0599092
0.0597048
0.0595256
0.0593719
0.0592436
0.0591409
0.0590638
0.0590124
0.0589867
0.0589867
0.0590124
0.0590638
0.0591409
0.0592436
0.0593718
0.0676577
0.0670782
0.0665188
0.0659795
0.065461
0.0649638
0.0644886
0.0640359
0.0636062
0.0631998
0.0628173
0.062459
0.0621251
0.0618161
0.061532
0.0612732
0.0610398
0.0608319
0.0606498
0.0604935
0.0603631
0.0602587
0.0601804
0.0601281
0.060102
0.060102
0.0601281
0.0601804
0.0602587
0.0603631
0.0604935
0.0689261
0.0683364
0.0677672
0.0672185
0.066691
0.0661852
0.0657018
0.0652413
0.0648041
0.0643908
0.0640017
0.0636373
0.0632977
0.0629834
0.0626945
0.0624313
0.062194
0.0619826
0.0617975
0.0616385
0.061506
0.0613998
0.0613202
0.061267
0.0612404
0.0612404
0.061267
0.0613201
0.0613998
0.0615059
0.0702218
0.0696217
0.0690424
0.0684841
0.0679473
0.0674327
0.0669408
0.0664722
0.0660275
0.065607
0.0652112
0.0648405
0.0644951
0.0641754
0.0638816
0.0636139
0.0633725
0.0631576
0.0629693
0.0628077
0.0626729
0.0625649
0.0624839
0.0624299
0.0624029
0.0624029
0.0624299
0.0624839
0.0625649
0.0626729
0.0715456
0.0709348
0.0703453
0.069777
0.0692307
0.068707
0.0682065
0.0677297
0.0672772
0.0668494
0.0664467
0.0660695
0.0657181
0.0653929
0.065094
0.0648218
0.0645762
0.0643576
0.0641661
0.0640017
0.0638646
0.0637548
0.0636725
0.0636175
0.06359
0.06359
0.0636175
0.0636725
0.0637548
0.0638646
0.0728986
0.0722768
0.0716767
0.0710983
0.0705423
0.0700092
0.0694998
0.0690146
0.068554
0.0681187
0.0677089
0.0673251
0.0669676
0.0666367
0.0663326
0.0660556
0.0658059
0.0655835
0.0653887
0.0652215
0.065082
0.0649703
0.0648865
0.0648307
0.0648027
0.0648027
0.0648307
0.0648865
0.0649703
0.065082
0.0742817
0.0736486
0.0730376
0.0724488
0.0718827
0.0713401
0.0708215
0.0703276
0.0698589
0.0694158
0.0689987
0.0686082
0.0682444
0.0679077
0.0675983
0.0673164
0.0670623
0.0668361
0.0666378
0.0664677
0.0663258
0.0662123
0.066127
0.0660702
0.0660417
0.0660417
0.0660702
0.066127
0.0662122
0.0663258
0.0756959
0.0750512
0.074429
0.0738295
0.0732531
0.0727007
0.0721727
0.0716699
0.0711927
0.0707417
0.0703172
0.0699196
0.0695494
0.0692067
0.0688918
0.068605
0.0683464
0.0681162
0.0679145
0.0677414
0.067597
0.0674815
0.0673947
0.0673369
0.067308
0.067308
0.0673369
0.0673947
0.0674814
0.067597
0.0771422
0.0764856
0.075852
0.0752414
0.0746545
0.0740919
0.0735543
0.0730423
0.0725565
0.0720973
0.0716651
0.0712604
0.0708835
0.0705347
0.0702142
0.0699223
0.0696591
0.0694248
0.0692195
0.0690434
0.0688965
0.0687789
0.0686906
0.0686317
0.0686023
0.0686023
0.0686317
0.0686906
0.0687788
0.0688965
0.0786218
0.077953
0.0773075
0.0766856
0.0760878
0.0755148
0.0749673
0.0744459
0.0739512
0.0734836
0.0730436
0.0726315
0.0722478
0.0718927
0.0715664
0.0712692
0.0710013
0.0707628
0.0705539
0.0703746
0.0702251
0.0701054
0.0700156
0.0699557
0.0699257
0.0699257
0.0699557
0.0700156
0.0701054
0.0702251
0.0801357
0.0794543
0.0787968
0.0781632
0.0775542
0.0769706
0.0764129
0.0758818
0.0753779
0.0749017
0.0744536
0.074034
0.0736433
0.0732817
0.0729495
0.0726469
0.0723742
0.0721314
0.0719187
0.0717362
0.0715839
0.0714621
0.0713706
0.0713097
0.0712792
0.0712792
0.0713097
0.0713706
0.0714621
0.0715839
0.0816853
0.0809909
0.0803209
0.0796753
0.0790549
0.0784602
0.0778921
0.0773511
0.0768378
0.0763527
0.0758963
0.0754689
0.075071
0.0747027
0.0743644
0.0740563
0.0737786
0.0735314
0.0733148
0.073129
0.072974
0.0728499
0.0727568
0.0726948
0.0726637
0.0726637
0.0726948
0.0727568
0.0728499
0.072974
0.0832717
0.082564
0.0818812
0.0812233
0.080591
0.079985
0.0794061
0.0788549
0.0783319
0.0778377
0.0773727
0.0769374
0.076532
0.076157
0.0758124
0.0754986
0.0752158
0.074964
0.0747434
0.0745542
0.0743964
0.0742701
0.0741753
0.074112
0.0740804
0.0740804
0.074112
0.0741753
0.07427
0.0743964
0.0848962
0.0841748
0.0834788
0.0828082
0.0821638
0.0815462
0.0809562
0.0803944
0.0798615
0.079358
0.0788842
0.0784407
0.0780277
0.0776456
0.0772946
0.0769749
0.0766868
0.0764303
0.0762057
0.076013
0.0758522
0.0757236
0.075627
0.0755626
0.0755304
0.0755304
0.0755626
0.075627
0.0757235
0.0758522
0.0865602
0.0858248
0.0851152
0.0844315
0.0837745
0.083145
0.0825436
0.0819711
0.0814279
0.0809147
0.0804319
0.0799799
0.0795591
0.0791697
0.0788121
0.0784864
0.0781929
0.0779316
0.0777028
0.0775064
0.0773427
0.0772116
0.0771133
0.0770477
0.0770149
0.0770149
0.0770477
0.0771133
0.0772116
0.0773427
0.0882652
0.0875153
0.0867917
0.0860946
0.0854247
0.0847829
0.0841697
0.083586
0.0830324
0.0825092
0.0820171
0.0815565
0.0811276
0.0807308
0.0803663
0.0800345
0.0797353
0.0794691
0.0792359
0.0790359
0.0788691
0.0787355
0.0786353
0.0785685
0.0785351
0.0785351
0.0785685
0.0786353
0.0787355
0.078869
0.0900127
0.0892478
0.0885098
0.0877989
0.0871157
0.0864612
0.085836
0.0852408
0.0846763
0.0841429
0.0836413
0.0831716
0.0827345
0.08233
0.0819585
0.0816203
0.0813154
0.0810441
0.0808065
0.0806026
0.0804326
0.0802965
0.0801944
0.0801263
0.0800923
0.0800923
0.0801263
0.0801944
0.0802965
0.0804326
0.0918041
0.0910239
0.090271
0.0895458
0.088849
0.0881814
0.0875438
0.0869368
0.0863611
0.0858173
0.0853057
0.0848269
0.0843812
0.0839688
0.0835902
0.0832453
0.0829346
0.082658
0.0824158
0.082208
0.0820347
0.081896
0.0817919
0.0817225
0.0816878
0.0816878
0.0817225
0.0817919
0.081896
0.0820347
0.0936412
0.0928451
0.092077
0.0913371
0.0906262
0.0899451
0.0892947
0.0886756
0.0880884
0.0875337
0.087012
0.0865237
0.0860692
0.0856487
0.0852626
0.084911
0.0845942
0.0843122
0.0840653
0.0838534
0.0836768
0.0835354
0.0834293
0.0833585
0.0833232
0.0833232
0.0833585
0.0834293
0.0835354
0.0836768
0.0955257
0.0947133
0.0939294
0.0931744
0.0924489
0.091754
0.0910904
0.0904587
0.0898597
0.0892939
0.0887617
0.0882637
0.0878001
0.0873713
0.0869775
0.0866189
0.0862958
0.0860083
0.0857565
0.0855405
0.0853603
0.0852162
0.085108
0.0850358
0.0849998
0.0849998
0.0850358
0.085108
0.0852162
0.0853603
0.0974593
0.0966301
0.09583
0.0950593
0.0943189
0.0936097
0.0929325
0.0922879
0.0916767
0.0910994
0.0905565
0.0900484
0.0895754
0.089138
0.0887363
0.0883706
0.088041
0.0877478
0.0874909
0.0872706
0.0870869
0.0869399
0.0868296
0.086756
0.0867192
0.0867192
0.086756
0.0868296
0.0869399
0.0870869
0.099444
0.0985975
0.0977807
0.0969939
0.096238
0.0955141
0.0948228
0.094165
0.0935412
0.092952
0.092398
0.0918795
0.091397
0.0909506
0.0905408
0.0901677
0.0898315
0.0895323
0.0892703
0.0890456
0.0888582
0.0887082
0.0885957
0.0885206
0.0884831
0.0884831
0.0885206
0.0885957
0.0887082
0.0888582
0.101482
0.100617
0.0997833
0.0989799
0.0982081
0.097469
0.0967633
0.0960917
0.095455
0.0948536
0.0942881
0.0937589
0.0932664
0.092811
0.0923927
0.092012
0.0916689
0.0913637
0.0910964
0.0908671
0.0906759
0.0905228
0.090408
0.0903315
0.0902932
0.0902932
0.0903315
0.090408
0.0905228
0.0906759
0.103575
0.102692
0.10184
0.101019
0.100231
0.0994764
0.0987558
0.0980701
0.09742
0.096806
0.0962287
0.0956885
0.0951858
0.0947209
0.094294
0.0939054
0.0935553
0.0932437
0.0929709
0.0927369
0.0925418
0.0923856
0.0922684
0.0921903
0.0921512
0.0921512
0.0921903
0.0922684
0.0923856
0.0925418
0.103953
0.103115
0.102309
0.101538
0.100802
0.100102
0.0994382
0.0988113
0.0982218
0.0976702
0.0971569
0.0966823
0.0944578
0.0942984
0.0941788
0.0940991
0.0940592
0.0940592
0.0940991
0.0941788
0.0942984
0.0944578
0.0238155
0.0237816
0.0237563
0.0237394
0.023731
0.023731
0.0237394
0.0237563
0.0237816
0.0238155
0.0241882
0.0241435
0.0241078
0.024081
0.0240632
0.0240543
0.0240543
0.0240632
0.024081
0.0241078
0.0241435
0.0241882
0.0242421
0.0243051
0.0243774
0.0244591
0.0245502
0.0246509
0.0247613
0.0248814
0.0250113
0.0246591
0.024593
0.0245365
0.0244895
0.024452
0.0244239
0.0244052
0.0243959
0.0243959
0.0244052
0.0244239
0.024452
0.0244895
0.0245365
0.024593
0.0246591
0.0247348
0.0248203
0.0249157
0.0250209
0.0251362
0.0252615
0.025397
0.0255428
0.0256988
0.0258652
0.026042
0.025298
0.0251986
0.0251094
0.0250303
0.0249613
0.0249022
0.0248531
0.0248139
0.0247845
0.024765
0.0247552
0.0247552
0.024765
0.0247845
0.0248139
0.0248531
0.0249022
0.0249613
0.0250303
0.0251094
0.0251986
0.0252981
0.0254077
0.0255278
0.0256582
0.025799
0.0259504
0.0261124
0.0262849
0.026468
0.0266616
0.0268659
0.0270807
0.0259355
0.0258109
0.0256969
0.0255935
0.0255007
0.0254184
0.0253465
0.0252849
0.0252338
0.0251929
0.0251622
0.0251418
0.0251316
0.0251316
0.0251418
0.0251622
0.0251929
0.0252338
0.0252849
0.0253465
0.0254184
0.0255007
0.0255935
0.0256969
0.0258109
0.0259355
0.0260708
0.0262169
0.0263738
0.0265414
0.0267198
0.0269091
0.0271091
0.0273198
0.0275412
0.0277732
0.0280156
0.0282692
0.0266502
0.0264991
0.026359
0.0262299
0.0261118
0.0260045
0.0259082
0.0258228
0.0257481
0.0256842
0.025631
0.0255885
0.0255566
0.0255354
0.0255248
0.0255248
0.0255354
0.0255566
0.0255885
0.025631
0.0256842
0.0257481
0.0258228
0.0259082
0.0260046
0.0261118
0.0262299
0.026359
0.0264991
0.0266502
0.0268124
0.0269855
0.0271697
0.0273649
0.0275711
0.0277881
0.0280159
0.0282545
0.0285035
0.0287638
0.0272658
0.0270985
0.0269425
0.0267978
0.0266644
0.0265422
0.0264313
0.0263316
0.026243
0.0261657
0.0260994
0.0260443
0.0260002
0.0259672
0.0259451
0.0259341
0.0259341
0.0259451
0.0259672
0.0260002
0.0260443
0.0260994
0.0261657
0.0262431
0.0263316
0.0264313
0.0265422
0.0266644
0.0267978
0.0269425
0.0270986
0.0272658
0.0274444
0.0276342
0.0278352
0.0280473
0.0282705
0.0285046
0.0287495
0.029005
0.0292719
0.0279177
0.0277339
0.0275616
0.0274008
0.0272516
0.0271139
0.0269878
0.0268733
0.0267703
0.0266788
0.0265988
0.0265303
0.0264733
0.0264277
0.0263935
0.0263707
0.0263593
0.0263593
0.0263707
0.0263935
0.0264277
0.0264733
0.0265303
0.0265988
0.0266788
0.0267703
0.0268733
0.0269878
0.0271139
0.0272516
0.0274008
0.0275616
0.0277339
0.0279177
0.0281129
0.0283196
0.0285375
0.0287667
0.0290069
0.029258
0.0295199
0.0297931
0.0286056
0.028405
0.0282161
0.0280389
0.0278735
0.0277199
0.0275782
0.0274483
0.0273302
0.027224
0.0271297
0.0270472
0.0269765
0.0269176
0.0268705
0.0268352
0.0268117
0.0267999
0.0267999
0.0268117
0.0268352
0.0268705
0.0269176
0.0269765
0.0270472
0.0271297
0.027224
0.0273302
0.0274483
0.0275782
0.02772
0.0278736
0.028039
0.0282161
0.028405
0.0286056
0.0288178
0.0290414
0.0292763
0.0295225
0.0297797
0.0300478
0.0303273
0.0293294
0.0291119
0.0289062
0.0287123
0.0285304
0.0283604
0.0282026
0.0280568
0.0279232
0.0278018
0.0276924
0.0275953
0.0275103
0.0274375
0.0273768
0.0273283
0.0272919
0.0272676
0.0272555
0.0272555
0.0272676
0.0272919
0.0273283
0.0273768
0.0274375
0.0275103
0.0275953
0.0276925
0.0278018
0.0279232
0.0280569
0.0282026
0.0283605
0.0285304
0.0287123
0.0289062
0.029112
0.0293295
0.0295586
0.0297993
0.0300513
0.0303145
0.0305887
0.0308743
0.0298545
0.0296317
0.0294209
0.0292222
0.0290356
0.0288612
0.0286992
0.0285496
0.0284123
0.0282875
0.0281752
0.0280753
0.0279879
0.027913
0.0278506
0.0278007
0.0277633
0.0277383
0.0277258
0.0277258
0.0277383
0.0277633
0.0278007
0.0278506
0.0279131
0.027988
0.0280753
0.0281752
0.0282876
0.0284124
0.0285496
0.0286992
0.0288613
0.0290356
0.0292222
0.0294209
0.0296317
0.0298545
0.0300891
0.0303354
0.0305931
0.0308622
0.0311423
0.031434
0.0306326
0.0303927
0.0301647
0.0299489
0.0297454
0.0295543
0.0293757
0.0292096
0.0290561
0.0289154
0.0287873
0.028672
0.0285695
0.0284798
0.0284028
0.0283387
0.0282874
0.028249
0.0282233
0.0282105
0.0282105
0.0282233
0.028249
0.0282874
0.0283387
0.0284028
0.0284798
0.0285695
0.028672
0.0287873
0.0289154
0.0290562
0.0292096
0.0293757
0.0295543
0.0297455
0.029949
0.0301648
0.0303927
0.0306326
0.0308844
0.0311477
0.0314225
0.0317085
0.0320062
0.0314461
0.0311889
0.0309438
0.0307108
0.0304901
0.030282
0.0300864
0.0299035
0.0297335
0.0295763
0.0294321
0.0293008
0.0291826
0.0290775
0.0289855
0.0289066
0.0288408
0.0287882
0.0287487
0.0287224
0.0287092
0.0287092
0.0287224
0.0287487
0.0287882
0.0288408
0.0289066
0.0289855
0.0290775
0.0291826
0.0293008
0.0294321
0.0295763
0.0297335
0.0299035
0.0300864
0.030282
0.0304902
0.0307108
0.0309438
0.031189
0.0314461
0.031715
0.0319955
0.0322873
0.0325908
0.0320205
0.031758
0.0315077
0.0312697
0.0310443
0.0308315
0.0306316
0.0304446
0.0302706
0.0301098
0.0299622
0.0298278
0.0297068
0.0295992
0.0295049
0.0294241
0.0293567
0.0293027
0.0292623
0.0292353
0.0292218
0.0292218
0.0292353
0.0292623
0.0293027
0.0293567
0.0294241
0.0295049
0.0295992
0.0297068
0.0298279
0.0299622
0.0301098
0.0302706
0.0304446
0.0306316
0.0308316
0.0310443
0.0312698
0.0315077
0.031758
0.0320205
0.0322949
0.032581
0.0328784
0.0331877
0.0328872
0.0326074
0.0323397
0.0320843
0.0318414
0.0316113
0.031394
0.0311898
0.0309987
0.0308209
0.0306565
0.0305056
0.0303682
0.0302444
0.0301342
0.0300378
0.029955
0.029886
0.0298308
0.0297894
0.0297618
0.029748
0.029748
0.0297618
0.0297894
0.0298309
0.0298861
0.029955
0.0300378
0.0301342
0.0302444
0.0303682
0.0305056
0.0306565
0.0308209
0.0309987
0.0311898
0.031394
0.0316113
0.0318415
0.0320844
0.0323397
0.0326075
0.0328872
0.0331788
0.0334819
0.033797
0.0334919
0.0332068
0.0329339
0.0326735
0.0324258
0.032191
0.0319693
0.0317608
0.0315657
0.0313842
0.0312162
0.031062
0.0309216
0.0307951
0.0306825
0.0305839
0.0304993
0.0304288
0.0303723
0.03033
0.0303017
0.0302876
0.0302876
0.0303017
0.03033
0.0303723
0.0304288
0.0304993
0.0305839
0.0306825
0.0307951
0.0309216
0.031062
0.0312163
0.0313842
0.0315658
0.0317608
0.0319693
0.032191
0.0324258
0.0326736
0.032934
0.0332069
0.033492
0.0337891
0.0340978
0.0344185
0.0341091
0.0338187
0.0335406
0.0332753
0.0330228
0.0327833
0.0325572
0.0323446
0.0321456
0.0319603
0.0317889
0.0316315
0.0314881
0.0313589
0.0312439
0.0311432
0.0310567
0.0309847
0.030927
0.0308837
0.0308548
0.0308404
0.0308404
0.0308548
0.0308837
0.030927
0.0309847
0.0310568
0.0311432
0.0312439
0.0313589
0.0314881
0.0316315
0.0317889
0.0319603
0.0321456
0.0323446
0.0325573
0.0327834
0.0330228
0.0332753
0.0335407
0.0338187
0.0341091
0.0344116
0.0347259
0.0350523
0.0347386
0.0344429
0.0341598
0.0338895
0.0336322
0.0333883
0.0331578
0.032941
0.0327381
0.0325491
0.0323743
0.0322137
0.0320675
0.0319356
0.0318182
0.0317154
0.0316272
0.0315536
0.0314947
0.0314505
0.0314211
0.0314063
0.0314063
0.0314211
0.0314505
0.0314947
0.0315536
0.0316272
0.0317154
0.0318183
0.0319356
0.0320675
0.0322137
0.0323743
0.0325492
0.0327381
0.0329411
0.0331579
0.0333883
0.0336323
0.0338895
0.0341598
0.034443
0.0347386
0.0350465
0.0353664
0.0356984
0.0353805
0.0350796
0.0347914
0.0345162
0.0342542
0.0340057
0.033771
0.0335501
0.0333433
0.0331507
0.0329725
0.0328088
0.0326596
0.0325251
0.0324054
0.0323006
0.0322106
0.0321355
0.0320754
0.0320303
0.0320003
0.0319852
0.0319852
0.0320003
0.0320303
0.0320754
0.0321355
0.0322106
0.0323006
0.0324055
0.0325252
0.0326596
0.0328088
0.0329725
0.0331507
0.0333433
0.0335501
0.033771
0.0340058
0.0342543
0.0345162
0.0347914
0.0350796
0.0353805
0.0356938
0.0360192
0.0363569
0.0360348
0.0357287
0.0354354
0.0351553
0.0348887
0.0346357
0.0343967
0.0341717
0.0339611
0.0337649
0.0335833
0.0334165
0.0332645
0.0331274
0.0330054
0.0328985
0.0328068
0.0327302
0.032669
0.032623
0.0325923
0.032577
0.032577
0.0325923
0.032623
0.032669
0.0327303
0.0328068
0.0328985
0.0330054
0.0331275
0.0332645
0.0334165
0.0335834
0.0337649
0.0339611
0.0341718
0.0343967
0.0346358
0.0348887
0.0351554
0.0354355
0.0357287
0.0360348
0.0363535
0.0366843
0.0370277
0.0367015
0.0363902
0.0360919
0.035807
0.0355357
0.0352782
0.0350349
0.034806
0.0345915
0.0343917
0.0342068
0.0340369
0.0338821
0.0337425
0.0336182
0.0335092
0.0334157
0.0333378
0.0332753
0.0332285
0.0331972
0.0331816
0.0331816
0.0331972
0.0332285
0.0332753
0.0333378
0.0334158
0.0335093
0.0336182
0.0337425
0.0338821
0.0340369
0.0342069
0.0343918
0.0345915
0.034806
0.035035
0.0352783
0.0355357
0.0358071
0.036092
0.0363903
0.0367016
0.0370256
0.037362
0.037711
0.0373808
0.0370643
0.036761
0.0364712
0.0361952
0.0359333
0.0356858
0.0354528
0.0352345
0.0350312
0.034843
0.03467
0.0345123
0.0343702
0.0342436
0.0341327
0.0340375
0.033958
0.0338944
0.0338467
0.0338149
0.033799
0.033799
0.0338149
0.0338467
0.0338945
0.0339581
0.0340375
0.0341327
0.0342436
0.0343702
0.0345124
0.03467
0.034843
0.0350312
0.0352346
0.0354528
0.0356858
0.0359334
0.0361953
0.0364713
0.0367611
0.0370644
0.0373809
0.0377103
0.0380522
0.0384068
0.0380728
0.037751
0.0374427
0.037148
0.0368674
0.036601
0.0363492
0.0361122
0.0358902
0.0356833
0.0354918
0.0353157
0.0351553
0.0350106
0.0348818
0.0347688
0.0346719
0.0345911
0.0345263
0.0344777
0.0344453
0.0344291
0.0344291
0.0344453
0.0344777
0.0345263
0.0345911
0.034672
0.0347689
0.0348818
0.0350107
0.0351553
0.0353158
0.0354918
0.0356833
0.0358902
0.0361123
0.0363493
0.0366011
0.0368674
0.0371481
0.0374427
0.0377511
0.0380728
0.0384076
0.038755
0.0391153
0.0387774
0.0384505
0.038137
0.0378375