/*--------------------------------*- C++ -*----------------------------------*\
  =========                 |
  \\      /  F ield         | OpenFOAM: The Open Source CFD Toolbox
   \\    /   O peration     | Website:  https://openfoam.org
    \\  /    A nd           | Version:  7
     \\/     M anipulation  |
\*---------------------------------------------------------------------------*/
FoamFile
{
    version     2.0;
    format      ascii;
    class       volVectorField;
    location    "140000";
    object      vorticity;
}
// * * * * * * * * * * * * * * * * * * * * * * * * * * * * * * * * * * * * * //

dimensions      [0 0 -1 0 0 0 0];

internalField   nonuniform List<vector> 
4850
(
(0.00597834 0.00405268 7.52466e-18)
(0.00512705 0.00471789 1.45307e-17)
(0.00614832 0.00422554 8.73641e-18)
(0.00530663 0.00488134 1.41592e-17)
(0.00534652 0.00465249 1.09431e-17)
(0.00631795 0.00439854 1.34781e-17)
(0.00548603 0.00504461 1.50336e-17)
(0.00553104 0.00481041 1.15641e-17)
(0.00557001 0.00457986 1.05016e-17)
(0.00560541 0.00435057 1.03122e-17)
(0.00648739 0.00457176 2.01852e-17)
(0.0056654 0.00520783 1.65505e-17)
(0.00571547 0.00496821 1.24098e-17)
(0.00575944 0.00473198 1.00838e-17)
(0.0057997 0.00449688 1.03141e-17)
(0.00583637 0.00426303 9.06376e-18)
(0.00665678 0.00474527 2.25108e-17)
(0.00584484 0.00537112 1.80968e-17)
(0.00589994 0.00512599 1.29676e-17)
(0.00594887 0.00488403 1.00801e-17)
(0.00599391 0.00464305 1.05306e-17)
(0.0060352 0.0044032 7.55189e-18)
(0.0060729 0.00416459 6.80248e-18)
(0.00682629 0.00491916 2.15784e-17)
(0.00602449 0.00553457 1.84921e-17)
(0.00608457 0.00528388 1.31022e-17)
(0.0061384 0.00503612 1.12273e-17)
(0.00618818 0.00478922 1.06722e-17)
(0.00623405 0.0045433 6.50808e-18)
(0.00627614 0.00429849 5.11168e-18)
(0.00631461 0.0040549 6.81029e-18)
(0.00634962 0.00381262 1.09816e-17)
(0.00699604 0.00509351 2.0672e-17)
(0.00620445 0.00569831 1.54534e-17)
(0.00626948 0.00544197 1.25401e-17)
(0.00632818 0.00518836 1.21576e-17)
(0.00638265 0.00493546 9.73045e-18)
(0.00643304 0.00468343 5.56535e-18)
(0.00647947 0.00443238 4.59177e-18)
(0.0065221 0.00418242 7.55611e-18)
(0.00656109 0.00393364 1.15209e-17)
(0.00659661 0.00368612 9.35271e-18)
(0.00716618 0.0052684 1.91249e-17)
(0.00638485 0.00586243 1.13328e-17)
(0.0064548 0.00560038 1.27009e-17)
(0.00651832 0.00534084 1.24371e-17)
(0.00657744 0.00508189 8.75876e-18)
(0.0066323 0.00482369 5.46408e-18)
(0.00668303 0.00456635 5.35159e-18)
(0.00672978 0.00430998 8.50257e-18)
(0.0067727 0.00405467 1.10584e-17)
(0.00681195 0.00380049 8.72204e-18)
(0.0068477 0.00354751 8.13751e-18)
(0.0068801 0.00329575 8.4958e-18)
(0.00690933 0.00304525 8.45203e-18)
(0.00693555 0.002796 9.95562e-18)
(0.00733683 0.00544392 1.66758e-17)
(0.0065658 0.00602704 9.3871e-18)
(0.00664063 0.0057592 1.25092e-17)
(0.00670894 0.00549367 1.18735e-17)
(0.00677267 0.00522861 8.22229e-18)
(0.00683197 0.00496418 5.33731e-18)
(0.00688695 0.00470049 5.954e-18)
(0.00693777 0.00443765 9.47346e-18)
(0.00698457 0.00417577 1.09874e-17)
(0.00702752 0.0039149 9.14557e-18)
(0.00706676 0.00365513 8.39788e-18)
(0.00710246 0.00339647 9.00506e-18)
(0.00713478 0.00313897 8.95278e-18)
(0.00716387 0.00288262 9.50533e-18)
(0.0071899 0.0026274 1.08773e-17)
(0.00721302 0.00237331 1.20527e-17)
(0.00723336 0.00212027 1.36764e-17)
(0.00725107 0.00186824 9.52559e-18)
(0.00750812 0.00562014 1.15113e-17)
(0.0067474 0.00619223 9.56152e-18)
(0.00682709 0.00591853 1.22817e-17)
(0.00690015 0.00564694 1.11546e-17)
(0.00696847 0.00537571 7.51381e-18)
(0.00703216 0.00510498 5.39263e-18)
(0.00709136 0.00483489 6.5065e-18)
(0.00714621 0.00456554 9.71594e-18)
(0.00719686 0.00429703 1.10525e-17)
(0.00724345 0.00402944 1.00165e-17)
(0.00728615 0.00376283 8.89951e-18)
(0.0073251 0.00349725 8.9298e-18)
(0.00736047 0.00323271 8.86915e-18)
(0.0073924 0.00296924 9.31942e-18)
(0.00742105 0.00270682 1.04043e-17)
(0.00744657 0.00244542 1.11694e-17)
(0.0074691 0.00218502 1.2642e-17)
(0.00748876 0.00192555 1.04234e-17)
(0.00750567 0.00166693 4.86693e-18)
(0.00751996 0.00140909 5.61844e-18)
(0.00768017 0.00579716 6.07991e-18)
(0.00692977 0.00635812 9.56754e-18)
(0.0070143 0.00607848 1.16742e-17)
(0.00709209 0.00580075 1.06407e-17)
(0.00716495 0.00552328 7.34771e-18)
(0.00723301 0.0052462 6.09929e-18)
(0.00729639 0.00496965 7.38158e-18)
(0.00735523 0.00469373 9.39333e-18)
(0.00740969 0.00441855 1.11296e-17)
(0.00745989 0.00414418 1.05694e-17)
(0.007506 0.0038707 9.57949e-18)
(0.00754817 0.00359815 8.78733e-18)
(0.00758654 0.00332655 8.99501e-18)
(0.00762128 0.00305593 9.26161e-18)
(0.00765252 0.00278627 1.01943e-17)
(0.00768041 0.00251757 1.09415e-17)
(0.00770508 0.00224978 1.25961e-17)
(0.00772666 0.00198285 1.22953e-17)
(0.00774527 0.00171673 5.69727e-18)
(0.00776101 0.00145132 4.69591e-18)
(0.00777398 0.00118654 5.97281e-18)
(0.00778425 0.000922299 3.75741e-18)
(0.0077919 0.000658476 4.91623e-18)
(0.00779697 0.00039496 2.50035e-18)
(0.00785309 0.00597505 4.19845e-18)
(0.007113 0.00652479 8.8768e-18)
(0.00720236 0.00623913 1.15319e-17)
(0.00728485 0.0059552 1.02606e-17)
(0.00736223 0.00567142 7.3154e-18)
(0.00743463 0.00538792 7.6132e-18)
(0.00750216 0.00510484 7.9775e-18)
(0.00756496 0.0048223 8.36662e-18)
(0.00762318 0.0045404 1.07726e-17)
(0.00767697 0.00425921 1.11281e-17)
(0.00772646 0.00397881 1.04604e-17)
(0.0077718 0.00369924 8.89766e-18)
(0.00781315 0.00342055 8.93867e-18)
(0.00785066 0.00314275 8.49863e-18)
(0.00788445 0.00286583 9.54516e-18)
(0.00791468 0.00258979 1.11534e-17)
(0.00794147 0.0023146 1.29765e-17)
(0.00796494 0.00204021 1.36228e-17)
(0.00798522 0.00176655 6.11061e-18)
(0.00800239 0.00149357 4.16281e-18)
(0.00801656 0.00122117 6.29181e-18)
(0.0080278 0.000949271 4.3519e-18)
(0.00803618 0.000677763 5.74656e-18)
(0.00804173 0.00040654 2.84919e-18)
(0.0080445 0.000135491 1.95127e-18)
(0.0080445 -0.0001355 2.00596e-17)
(0.00804173 -0.000406549 3.05982e-17)
(0.00803618 -0.000677771 2.07481e-17)
(0.00802781 -0.00094928 1.7227e-17)
(0.00802699 0.00615391 6.11033e-18)
(0.00729721 0.00669235 7.77219e-18)
(0.00739137 0.00640058 1.0853e-17)
(0.00747855 0.00611038 9.38315e-18)
(0.00756043 0.00582021 7.15572e-18)
(0.00763714 0.00553023 8.75564e-18)
(0.00770879 0.00524057 8.18764e-18)
(0.00777553 0.00495134 7.74688e-18)
(0.00783749 0.00466265 1.0874e-17)
(0.00789481 0.00437459 1.17489e-17)
(0.00794765 0.00408722 1.06061e-17)
(0.00799615 0.00380061 8.3328e-18)
(0.00804044 0.00351478 8.58627e-18)
(0.00808068 0.00322976 7.7427e-18)
(0.008117 0.00294555 8.42861e-18)
(0.00814953 0.00266215 1.13955e-17)
(0.00817841 0.00237953 1.33727e-17)
(0.00820376 0.00209764 1.38779e-17)
(0.00822568 0.00181645 6.13218e-18)
(0.00824427 0.00153587 3.93235e-18)
(0.00825962 0.00125584 6.85863e-18)
(0.00827181 0.000976272 5.29183e-18)
(0.0082809 0.000697069 6.66504e-18)
(0.00828693 0.000418132 2.98482e-18)
(0.00828994 0.000139356 1.05078e-18)
(0.00828994 -0.000139365 1.8948e-17)
(0.00828693 -0.000418141 2.98293e-17)
(0.0082809 -0.000697078 1.97478e-17)
(0.00827181 -0.000976281 1.57954e-17)
(0.00825962 -0.00125585 2.02117e-17)
(0.00824427 -0.00153588 1.98273e-17)
(0.00822568 -0.00181645 2.10042e-17)
(0.00820199 0.00633383 8.97489e-18)
(0.0074825 0.00686088 7.28239e-18)
(0.00758146 0.00656293 1.01016e-17)
(0.00767331 0.00626638 8.47263e-18)
(0.00775966 0.00596975 7.07799e-18)
(0.00784065 0.00567322 9.58324e-18)
(0.0079164 0.0053769 8.69039e-18)
(0.00798705 0.00508092 8.04364e-18)
(0.00805272 0.00478539 1.14098e-17)
(0.00811356 0.0044904 1.18159e-17)
(0.00816972 0.00419602 1.04325e-17)
(0.00822133 0.0039023 8.08939e-18)
(0.00826854 0.00360929 8.34473e-18)
(0.00831148 0.00331702 7.28386e-18)
(0.0083503 0.00302548 7.3368e-18)
(0.00838512 0.00273469 1.13935e-17)
(0.00841607 0.00244461 1.32842e-17)
(0.00844326 0.00215521 1.31101e-17)
(0.0084668 0.00186645 6.30364e-18)
(0.00848679 0.00157826 4.43426e-18)
(0.00850331 0.00129058 7.39032e-18)
(0.00851644 0.00100332 6.02669e-18)
(0.00852623 0.000716409 7.0509e-18)
(0.00853274 0.000429743 3.18432e-18)
(0.00853598 0.000143228 1.91806e-18)
(0.00853598 -0.000143237 1.9111e-17)
(0.00853274 -0.000429752 2.8907e-17)
(0.00852623 -0.000716418 1.96136e-17)
(0.00851644 -0.00100333 1.63686e-17)
(0.00850331 -0.00129058 2.05539e-17)
(0.00848679 -0.00157827 2.06727e-17)
(0.0084668 -0.00186645 2.10736e-17)
(0.00844326 -0.00215522 3.90339e-17)
(0.00841607 -0.00244461 8.03149e-17)
(0.00837821 0.00651488 9.95733e-18)
(0.00766898 0.00703048 8.23526e-18)
(0.00777272 0.00672627 8.72173e-18)
(0.00786922 0.00642328 7.54582e-18)
(0.00796004 0.00612013 8.32429e-18)
(0.0080453 0.00581696 1.09729e-17)
(0.00812512 0.00551392 9.258e-18)
(0.00819965 0.00521113 8.52038e-18)
(0.00826901 0.0049087 1.17948e-17)
(0.00833334 0.00460672 1.15348e-17)
(0.00839279 0.00430526 1.01889e-17)
(0.0084475 0.0040044 7.78957e-18)
(0.00849759 0.00370416 8.08881e-18)
(0.00854322 0.00340459 7.5181e-18)
(0.00858451 0.00310568 6.68091e-18)
(0.00862159 0.00280746 1.06793e-17)
(0.00865458 0.00250988 1.22966e-17)
(0.00868359 0.00221294 1.18787e-17)
(0.00870874 0.00191658 6.90739e-18)
(0.00873011 0.00162076 5.46071e-18)
(0.00874778 0.0013254 6.89525e-18)
(0.00876184 0.00103044 6.38249e-18)
(0.00877233 0.000735796 8.13761e-18)
(0.0087793 0.000441382 3.76644e-18)
(0.00878277 0.000147109 2.99803e-18)
(0.00878277 -0.000147118 1.94583e-17)
(0.00877929 -0.000441391 2.74302e-17)
(0.00877233 -0.000735805 1.92244e-17)
(0.00876184 -0.00103045 1.84304e-17)
(0.00874778 -0.00132541 2.31977e-17)
(0.00873011 -0.00162076 2.31265e-17)
(0.00870874 -0.00191659 2.36168e-17)
(0.00868359 -0.00221295 4.36334e-17)
(0.00865458 -0.00250989 1.2082e-16)
(0.00855573 0.00669716 9.36409e-18)
(0.00785674 0.00720126 9.63967e-18)
(0.00796527 0.00689069 7.625e-18)
(0.0080664 0.00658119 7.66126e-18)
(0.00816167 0.00627143 9.92318e-18)
(0.00825118 0.00596156 1.14699e-17)
(0.00833506 0.00565172 9.78652e-18)
(0.00841345 0.00534205 9.30323e-18)
(0.00848648 0.00503265 1.19349e-17)
(0.00855428 0.00472361 1.09197e-17)
(0.008617 0.00441503 9.34989e-18)
(0.00867477 0.00410696 7.43138e-18)
(0.00872773 0.00379944 8.10585e-18)
(0.00877602 0.00349252 8.54257e-18)
(0.00881975 0.0031862 6.80394e-18)
(0.00885907 0.0028805 9.70024e-18)
(0.00889409 0.0025754 1.14494e-17)
(0.00892491 0.00227088 1.12579e-17)
(0.00895164 0.00196689 7.03215e-18)
(0.00897438 0.0016634 5.98175e-18)
(0.00899319 0.00136034 6.81535e-18)
(0.00900816 0.00105764 6.46124e-18)
(0.00901934 0.000755243 8.61737e-18)
(0.00902677 0.000453057 3.9669e-18)
(0.00903047 0.000151002 3.62741e-18)
(0.00903047 -0.000151011 1.97096e-17)
(0.00902677 -0.000453066 2.54283e-17)
(0.00901934 -0.000755252 1.82258e-17)
(0.00900816 -0.00105765 2.03589e-17)
(0.00899319 -0.00136034 2.56809e-17)
(0.00897437 -0.0016634 2.49695e-17)
(0.00895164 -0.0019669 2.67311e-17)
(0.00892491 -0.00227088 4.8426e-17)
(0.00889408 -0.00257541 1.78396e-16)
(0.00873468 0.00688077 9.54174e-18)
(0.00804588 0.00737329 1.10335e-17)
(0.00815919 0.00705628 6.87632e-18)
(0.00826497 0.00674018 8.25512e-18)
(0.00836467 0.00642373 1.16326e-17)
(0.00845842 0.00610708 1.13448e-17)
(0.00854635 0.00579037 1.01362e-17)
(0.00862858 0.00547374 9.86813e-18)
(0.00870526 0.00515731 1.19768e-17)
(0.00877651 0.00484116 1.02011e-17)
(0.00884248 0.00452538 8.51182e-18)
(0.00890329 0.00421004 7.49963e-18)
(0.0089591 0.00389519 8.51562e-18)
(0.00901002 0.00358087 9.55631e-18)
(0.00905619 0.0032671 7.02679e-18)
(0.00909772 0.00295388 8.68418e-18)
(0.00913474 0.0026412 1.10198e-17)
(0.00916735 0.00232905 1.07921e-17)
(0.00919565 0.0020174 6.31264e-18)
(0.00921974 0.0017062 6.02557e-18)
(0.00923969 0.00139541 7.15386e-18)
(0.00925556 0.00108495 6.48192e-18)
(0.00926742 0.000774764 8.5318e-18)
(0.0092753 0.000464776 3.93746e-18)
(0.00927924 0.000154909 4.65561e-18)
(0.00927924 -0.000154918 1.92e-17)
(0.0092753 -0.000464785 2.30823e-17)
(0.00926742 -0.000774773 1.77173e-17)
(0.00925556 -0.00108496 2.21392e-17)
(0.00923969 -0.00139542 2.67195e-17)
(0.00921974 -0.00170621 2.58573e-17)
(0.00919565 -0.00201741 2.94903e-17)
(0.00916735 -0.00232906 4.92407e-17)
(0.00913474 -0.00264121 1.98045e-16)
(0.00891516 0.00706578 1.01498e-17)
(0.00823653 0.00754668 1.2317e-17)
(0.00835462 0.00722313 6.64455e-18)
(0.00846502 0.00690036 9.06828e-18)
(0.00856915 0.00657713 1.23593e-17)
(0.00866713 0.00625361 1.07649e-17)
(0.00875908 0.00592996 1.04495e-17)
(0.00884515 0.0056063 9.90736e-18)
(0.00892546 0.00528275 1.22899e-17)
(0.00900015 0.00495942 9.92937e-18)
(0.00906934 0.00463639 7.80875e-18)
(0.00913319 0.00431372 7.61342e-18)
(0.00919182 0.00399148 8.57234e-18)
(0.00924536 0.0036697 1.02498e-17)
(0.00929394 0.00334841 7.19794e-18)
(0.00933767 0.00302762 7.52398e-18)
(0.00937668 0.00270733 1.05367e-17)
(0.00941106 0.00238751 1.01607e-17)
(0.00944093 0.00206815 5.22758e-18)
(0.00946635 0.00174921 5.95023e-18)
(0.00948742 0.00143064 8.04459e-18)
(0.00950419 0.00111238 6.33773e-18)
(0.00951672 0.000794371 7.47102e-18)
(0.00952505 0.000476546 3.88967e-18)
(0.00952921 0.000158833 5.96616e-18)
(0.00952921 -0.000158842 1.80296e-17)
(0.00952505 -0.000476555 2.11275e-17)
(0.00951672 -0.000794379 1.8106e-17)
(0.00950419 -0.00111239 2.33383e-17)
(0.00948742 -0.00143065 2.63972e-17)
(0.00946635 -0.00174922 2.53803e-17)
(0.00944093 -0.00206816 3.06961e-17)
(0.00941106 -0.00238752 5.2556e-17)
(0.00937668 -0.00270733 1.78495e-16)
(0.00909727 0.00725229 1.08765e-17)
(0.00842876 0.00772152 1.30996e-17)
(0.00855164 0.00739135 6.95059e-18)
(0.00866666 0.0070618 1.03101e-17)
(0.00877522 0.00673171 1.2475e-17)
(0.00887742 0.00640125 1.07352e-17)
(0.0089734 0.00607056 1.02971e-17)
(0.00906329 0.0057398 9.32663e-18)
(0.00914722 0.00540906 1.27718e-17)
(0.00922532 0.00507847 9.11834e-18)
(0.00929774 0.00474811 7.12031e-18)
(0.0093646 0.00441805 8.54042e-18)
(0.00942603 0.00408835 8.49272e-18)
(0.00948218 0.00375906 1.03788e-17)
(0.00953315 0.0034302 6.85495e-18)
(0.00957907 0.00310178 6.83017e-18)
(0.00962005 0.00277382 9.86706e-18)
(0.00965619 0.00244629 8.78935e-18)
(0.0096876 0.00211917 4.29452e-18)
(0.00971435 0.00179244 6.47417e-18)
(0.00973653 0.00146605 9.37271e-18)
(0.00975419 0.00113995 6.36016e-18)
(0.00976739 0.000814077 5.74759e-18)
(0.00977616 0.000488375 3.38944e-18)
(0.00978055 0.000162777 7.05924e-18)
(0.00978055 -0.000162786 1.70166e-17)
(0.00977616 -0.000488384 1.98192e-17)
(0.00976739 -0.000814085 1.84656e-17)
(0.00975419 -0.00113996 2.35096e-17)
(0.00973653 -0.00146606 2.56049e-17)
(0.00971435 -0.00179245 2.44793e-17)
(0.0096876 -0.00211918 3.11547e-17)
(0.00965619 -0.00244629 5.06963e-17)
(0.00962005 -0.00277382 1.3141e-16)
(0.00928112 0.00744039 1.07499e-17)
(0.00862269 0.00789791 1.31651e-17)
(0.00875036 0.007561 8.20828e-18)
(0.00887001 0.00722459 1.1121e-17)
(0.00898299 0.00688755 1.19546e-17)
(0.00908941 0.00655006 1.06637e-17)
(0.00918941 0.00621226 9.70149e-18)
(0.00928311 0.0058743 8.97705e-18)
(0.00937065 0.00553631 1.27146e-17)
(0.00945216 0.00519838 7.82626e-18)
(0.00952778 0.00486062 7.70396e-18)
(0.00959764 0.0045231 9.93889e-18)
(0.00966187 0.00418587 7.9665e-18)
(0.0097206 0.003849 9.99555e-18)
(0.00977395 0.00351251 6.48165e-18)
(0.00982204 0.00317641 6.23695e-18)
(0.00986499 0.00284071 8.79529e-18)
(0.00990288 0.00250542 7.85099e-18)
(0.00993582 0.0021705 4.0121e-18)
(0.00996389 0.00183593 6.47229e-18)
(0.00998716 0.00150167 1.01428e-17)
(0.0100057 0.00116767 6.7306e-18)
(0.0100196 0.000833894 4.55876e-18)
(0.0100288 0.000500271 3.034e-18)
(0.0100334 0.000166743 7.54301e-18)
(0.0100334 -0.000166752 1.63444e-17)
(0.0100288 -0.00050028 1.87776e-17)
(0.0100196 -0.000833902 1.82e-17)
(0.0100057 -0.00116768 2.30046e-17)
(0.00998716 -0.00150167 2.44473e-17)
(0.00996389 -0.00183593 2.33078e-17)
(0.00993582 -0.0021705 3.03917e-17)
(0.00990288 -0.00250542 4.63939e-17)
(0.00986498 -0.00284072 9.51154e-17)
(0.00946681 0.00763018 1.00648e-17)
(0.00881843 0.00807593 1.25302e-17)
(0.00895089 0.0077322 9.42519e-18)
(0.00907518 0.00738884 1.11021e-17)
(0.00919258 0.00704475 1.16647e-17)
(0.00930322 0.00670013 1.06543e-17)
(0.00940723 0.00635513 8.76192e-18)
(0.00950473 0.0060099 8.22328e-18)
(0.00959588 0.00566456 1.20304e-17)
(0.00968079 0.00531922 6.82664e-18)
(0.0097596 0.00497398 9.04475e-18)
(0.00983245 0.00462892 1.10713e-17)
(0.00989946 0.0042841 7.46969e-18)
(0.00996077 0.00393958 9.20699e-18)
(0.0100165 0.00359539 6.08929e-18)
(0.0100667 0.00325154 5.40803e-18)
(0.0101116 0.00290806 7.63996e-18)
(0.0101513 0.00256493 7.01817e-18)
(0.0101857 0.00222215 4.28445e-18)
(0.0102151 0.00187969 6.68003e-18)
(0.0102395 0.00153751 1.03037e-17)
(0.0102589 0.00119557 6.98285e-18)
(0.0102734 0.000853834 4.07515e-18)
(0.0102831 0.00051224 3.05663e-18)
(0.0102879 0.000170734 7.59146e-18)
(0.0102879 -0.000170743 1.58531e-17)
(0.0102831 -0.000512249 1.8118e-17)
(0.0102734 -0.000853843 1.75916e-17)
(0.0102589 -0.00119558 2.17683e-17)
(0.0102395 -0.00153752 2.3103e-17)
(0.0102151 -0.00187969 2.21733e-17)
(0.0101857 -0.00222216 2.8252e-17)
(0.0101513 -0.00256494 4.1316e-17)
(0.0101116 -0.00290806 7.12629e-17)
(0.00965445 0.00782175 9.88454e-18)
(0.00901607 0.00825568 1.20357e-17)
(0.00915335 0.00790504 1.00024e-17)
(0.00928227 0.00755461 1.02326e-17)
(0.0094041 0.00720339 1.16302e-17)
(0.00951896 0.00685155 1.04723e-17)
(0.00962697 0.00649926 7.92918e-18)
(0.00972829 0.00614666 7.98314e-18)
(0.00982302 0.00579389 1.10433e-17)
(0.00991133 0.00544105 7.25648e-18)
(0.00999333 0.00508825 1.04722e-17)
(0.0100692 0.00473558 1.0921e-17)
(0.0101389 0.00438309 7.60488e-18)
(0.0102028 0.00403085 9.58048e-18)
(0.0102609 0.00367889 6.13743e-18)
(0.0103133 0.00332723 4.35914e-18)
(0.0103601 0.00297589 6.43025e-18)
(0.0104015 0.00262488 6.76731e-18)
(0.0104375 0.00227417 4.68906e-18)
(0.0104681 0.00192375 6.45344e-18)
(0.0104936 0.0015736 1.07825e-17)
(0.0105139 0.00122366 7.24809e-18)
(0.0105291 0.000873911 3.46396e-18)
(0.0105392 0.000524291 2.9446e-18)
(0.0105442 0.000174752 7.28052e-18)
(0.0105442 -0.00017476 1.52836e-17)
(0.0105392 -0.000524299 1.75399e-17)
(0.0105291 -0.000873919 1.71063e-17)
(0.0105139 -0.00122367 2.05786e-17)
(0.0104936 -0.0015736 2.18034e-17)
(0.0104681 -0.00192376 2.07255e-17)
(0.0104375 -0.00227418 2.56998e-17)
(0.0104015 -0.00262488 3.67401e-17)
(0.0103601 -0.0029759 5.5707e-17)
(0.00984414 0.0080152 9.82566e-18)
(0.00921572 0.00843727 1.12847e-17)
(0.00935782 0.00807959 9.75798e-18)
(0.0094914 0.00772201 9.56513e-18)
(0.00961766 0.00736355 1.18255e-17)
(0.00973674 0.0070044 1.04982e-17)
(0.00984877 0.00664472 7.96326e-18)
(0.00995388 0.00628466 7.36587e-18)
(0.0100522 0.00592437 9.36918e-18)
(0.0101439 0.00556395 8.59926e-18)
(0.0102291 0.00520351 1.10645e-17)
(0.0103079 0.00484314 1.03033e-17)
(0.0103804 0.0044829 8.1827e-18)
(0.0104469 0.00412286 9.94676e-18)
(0.0105073 0.00376306 5.7561e-18)
(0.0105619 0.00340352 3.46353e-18)
(0.0106106 0.00304426 5.37785e-18)
(0.0106537 0.00268528 7.0713e-18)
(0.0106912 0.00232659 4.75552e-18)
(0.0107232 0.00196815 5.70923e-18)
(0.0107497 0.00160996 1.13087e-17)
(0.0107708 0.00125196 7.31408e-18)
(0.0107867 0.000894135 3.042e-18)
(0.0107972 0.00053643 2.87408e-18)
(0.0108024 0.000178799 6.79131e-18)
(0.0108024 -0.000178807 1.45114e-17)
(0.0107972 -0.000536438 1.66545e-17)
(0.0107867 -0.000894144 1.67976e-17)
(0.0107708 -0.00125197 1.96838e-17)
(0.0107497 -0.00160996 2.05361e-17)
(0.0107232 -0.00196816 1.93141e-17)
(0.0106912 -0.00232659 2.3667e-17)
(0.0106537 -0.00268529 3.2699e-17)
(0.0106106 -0.00304426 4.46133e-17)
(0.0105618 -0.00340352 5.76757e-18)
(0.010036 0.00821063 8.07717e-18)
(0.00941749 0.00862079 9.8468e-18)
(0.00956444 0.00825597 9.35961e-18)
(0.00970267 0.00789113 8.96315e-18)
(0.00983338 0.00752533 1.18692e-17)
(0.00995669 0.00715876 1.00924e-17)
(0.0100727 0.00679159 7.89438e-18)
(0.0101817 0.00642399 6.9569e-18)
(0.0102836 0.00605608 8.57626e-18)
(0.0103787 0.00568798 9.79727e-18)
(0.010467 0.00531982 1.03483e-17)
(0.0105488 0.00495166 9.67025e-18)
(0.0106241 0.00458359 9.04713e-18)
(0.0106931 0.00421567 9.85439e-18)
(0.0107559 0.00384795 5.4179e-18)
(0.0108125 0.00348045 3.04239e-18)
(0.0108632 0.00311319 4.86048e-18)
(0.010908 0.00274618 7.63028e-18)
(0.010947 0.00237943 4.42775e-18)
(0.0109803 0.00201291 5.14966e-18)
(0.0110079 0.00164661 1.14028e-17)
(0.0110299 0.00128049 6.7978e-18)
(0.0110464 0.00091452 3.27856e-18)
(0.0110573 0.000548665 4.08942e-18)
(0.0110628 0.000182878 6.4527e-18)
(0.0110628 -0.000182886 1.26928e-17)
(0.0110573 -0.000548673 1.54327e-17)
(0.0110464 -0.000914528 1.66963e-17)
(0.0110299 -0.00128049 1.84391e-17)
(0.0110079 -0.00164661 1.87963e-17)
(0.0109803 -0.00201292 1.81875e-17)
(0.010947 -0.00237943 2.17849e-17)
(0.010908 -0.00274619 2.92318e-17)
(0.0108632 -0.00311319 3.64116e-17)
(0.0108125 -0.00348044 5.43385e-18)
(0.0102301 0.00840813 6.15184e-18)
(0.00962149 0.00880633 8.57099e-18)
(0.0097733 0.00843426 9.17898e-18)
(0.0099162 0.00806205 8.49598e-18)
(0.0100514 0.0076888 1.16876e-17)
(0.0101789 0.00731472 9.28538e-18)
(0.010299 0.00693996 8.17257e-18)
(0.0104117 0.00656471 7.09435e-18)
(0.0105172 0.00618908 8.48876e-18)
(0.0106157 0.00581322 1.02377e-17)
(0.0107072 0.00543723 9.56785e-18)
(0.010792 0.0050612 9.6672e-18)
(0.0108701 0.00468522 9.85839e-18)
(0.0109416 0.00430933 9.1638e-18)
(0.0110067 0.0039336 5.41784e-18)
(0.0110655 0.00355806 3.34345e-18)
(0.0111181 0.00318273 4.5675e-18)
(0.0111646 0.00280762 7.12443e-18)
(0.0112051 0.00243273 3.427e-18)
(0.0112397 0.00205805 4.52983e-18)
(0.0112683 0.00168357 1.04647e-17)
(0.0112912 0.00130925 6.59077e-18)
(0.0113083 0.000935077 4.52384e-18)
(0.0113197 0.000561003 5.86081e-18)
(0.0113254 0.000186991 6.54791e-18)
(0.0113254 -0.000186999 1.09668e-17)
(0.0113197 -0.000561011 1.43925e-17)
(0.0113083 -0.000935085 1.66308e-17)
(0.0112912 -0.00130926 1.70197e-17)
(0.0112683 -0.00168357 1.68629e-17)
(0.0112397 -0.00205806 1.72418e-17)
(0.0112051 -0.00243273 1.99099e-17)
(0.0111646 -0.00280762 2.55471e-17)
(0.0111181 -0.00318273 2.91251e-17)
(0.0110655 -0.00355806 5.34742e-18)
(0.0104266 0.0086078 5.43518e-18)
(0.00982782 0.008994 7.93766e-18)
(0.00998451 0.00861457 9.17428e-18)
(0.0101321 0.00823487 7.75278e-18)
(0.0102717 0.00785407 1.13853e-17)
(0.0104035 0.00747236 8.97727e-18)
(0.0105276 0.00708991 8.30059e-18)
(0.0106442 0.0067069 6.80166e-18)
(0.0107533 0.00632346 8.35892e-18)
(0.0108552 0.00593974 1.02186e-17)
(0.0109499 0.00555583 9.30751e-18)
(0.0110376 0.00517183 9.68799e-18)
(0.0111184 0.00478784 9.62132e-18)
(0.0111925 0.0044039 8.27249e-18)
(0.01126 0.00402008 5.89783e-18)
(0.0113209 0.00363641 4.15825e-18)
(0.0113754 0.00325292 4.18259e-18)
(0.0114236 0.00286962 6.02466e-18)
(0.0114656 0.00248652 2.46336e-18)
(0.0115014 0.0021036 3.99247e-18)
(0.0115312 0.00172086 8.90513e-18)
(0.0115549 0.00133828 6.70581e-18)
(0.0115727 0.000955818 6.62272e-18)
(0.0115845 0.000573451 7.46278e-18)
(0.0115904 0.000191141 6.44058e-18)
(0.0115904 -0.000191149 9.49654e-18)
(0.0115845 -0.000573459 1.35639e-17)
(0.0115727 -0.000955826 1.67139e-17)
(0.0115549 -0.00133829 1.60162e-17)
(0.0115312 -0.00172087 1.50772e-17)
(0.0115014 -0.00210361 1.63104e-17)
(0.0114656 -0.00248652 1.81449e-17)
(0.0114236 -0.00286962 2.24803e-17)
(0.0113754 -0.00325292 2.38327e-17)
(0.0106256 0.00880975 5.92586e-18)
(0.0100366 0.00918389 8.36969e-18)
(0.0101982 0.00879698 9.17375e-18)
(0.0103505 0.00840969 7.31134e-18)
(0.0104946 0.00802122 1.11152e-17)
(0.0106307 0.00763177 9.0715e-18)
(0.0107588 0.00724152 7.5258e-18)
(0.0108792 0.00685065 6.43658e-18)
(0.0109919 0.00645929 8.75436e-18)
(0.0110972 0.0060676 1.05611e-17)
(0.0111951 0.00567567 9.31497e-18)
(0.0112858 0.00528361 9.36071e-18)
(0.0113694 0.0048915 9.19413e-18)
(0.011446 0.00449942 8.03984e-18)
(0.0115158 0.00410742 6.43079e-18)
(0.0115788 0.00371553 4.11109e-18)
(0.0116353 0.0033238 3.67697e-18)
(0.0116852 0.00293223 5.66426e-18)
(0.0117287 0.00254082 2.14051e-18)
(0.0117658 0.00214959 3.85189e-18)
(0.0117966 0.00175852 7.48739e-18)
(0.0118212 0.00136758 6.62312e-18)
(0.0118396 0.000976755 8.07306e-18)
(0.0118518 0.000586017 8.29056e-18)
(0.0118579 0.00019533 6.2422e-18)
(0.0118579 -0.000195338 8.46138e-18)
(0.0118518 -0.000586025 1.29647e-17)
(0.0118396 -0.000976763 1.7e-17)
(0.0118212 -0.00136759 1.55357e-17)
(0.0117966 -0.00175852 1.3481e-17)
(0.0117658 -0.0021496 1.52493e-17)
(0.0117287 -0.00254083 1.6535e-17)
(0.0116852 -0.00293223 2.03724e-17)
(0.0116353 -0.0033238 1.96428e-17)
(0.0108272 0.00901409 5.82746e-18)
(0.0102479 0.00937612 9.54073e-18)
(0.0104145 0.0089816 9.07617e-18)
(0.0105715 0.0085866 6.95713e-18)
(0.0107202 0.00819034 1.08837e-17)
(0.0108605 0.00779303 8.70446e-18)
(0.0109927 0.00739487 6.66421e-18)
(0.0111169 0.00699603 6.5657e-18)
(0.0112333 0.00659665 8.99887e-18)
(0.0113419 0.00619687 1.06331e-17)
(0.011443 0.00579682 9.32843e-18)
(0.0115366 0.00539659 9.26331e-18)
(0.011623 0.00499628 9.16861e-18)
(0.0117022 0.00459596 7.89491e-18)
(0.0117743 0.00419568 6.51793e-18)
(0.0118395 0.00379548 3.58017e-18)
(0.0118978 0.00339541 3.54636e-18)
(0.0119494 0.00299547 5.85774e-18)
(0.0119944 0.00259568 2.19256e-18)
(0.0120328 0.00219605 3.84564e-18)
(0.0120647 0.00179655 6.44575e-18)
(0.0120901 0.00139717 6.50667e-18)
(0.0121091 0.000997902 8.6138e-18)
(0.0121218 0.000598708 8.57839e-18)
(0.0121281 0.000199561 6.2171e-18)
(0.0121281 -0.000199569 7.8126e-18)
(0.0121218 -0.000598716 1.26348e-17)
(0.0121091 -0.00099791 1.7058e-17)
(0.0120901 -0.00139718 1.50327e-17)
(0.0120647 -0.00179655 1.23541e-17)
(0.0120328 -0.00219605 1.43525e-17)
(0.0119944 -0.00259569 1.55306e-17)
(0.0119494 -0.00299547 1.89902e-17)
(0.0118978 -0.0033954 1.61331e-17)
(0.0110314 0.00922092 5.38203e-18)
(0.0104619 0.00957077 1.03343e-17)
(0.0106335 0.00916853 7.89846e-18)
(0.0107953 0.00876569 6.19621e-18)
(0.0109484 0.00836152 9.98444e-18)
(0.0110931 0.00795625 7.98894e-18)
(0.0112293 0.00755005 6.29125e-18)
(0.0113574 0.00714312 6.72776e-18)
(0.0114774 0.0067356 8.7274e-18)
(0.0115894 0.00632764 1.04589e-17)
(0.0116937 0.00591935 9.45583e-18)
(0.0117904 0.00551085 9.15361e-18)
(0.0118795 0.00510223 9.23944e-18)
(0.0119612 0.00469356 8.27349e-18)
(0.0120357 0.0042849 6.6245e-18)
(0.012103 0.0038763 3.05904e-18)
(0.0121632 0.00346779 3.61441e-18)
(0.0122165 0.00305939 6.14183e-18)
(0.012263 0.00265113 2.26942e-18)
(0.0123027 0.00224299 3.37761e-18)
(0.0123356 0.00183498 5.42131e-18)
(0.0123619 0.00142708 6.29936e-18)
(0.0123816 0.00101927 8.57819e-18)
(0.0123947 0.000611531 8.43291e-18)
(0.0124012 0.000203836 6.67375e-18)
(0.0124012 -0.000203844 7.57416e-18)
(0.0123947 -0.000611539 1.2396e-17)
(0.0123816 -0.00101928 1.70323e-17)
(0.0123619 -0.00142708 1.43132e-17)
(0.0123356 -0.00183498 1.14214e-17)
(0.0123027 -0.00224299 1.33365e-17)
(0.012263 -0.00265113 1.4516e-17)
(0.0122165 -0.00305939 1.77028e-17)
(0.0121632 -0.00346778 1.35509e-17)
(0.0112385 0.00943035 5.29513e-18)
(0.0106787 0.00976797 1.03388e-17)
(0.0108553 0.00935787 6.36021e-18)
(0.0110219 0.00894707 6.28288e-18)
(0.0111796 0.00853487 9.19564e-18)
(0.0113285 0.0081215 7.57257e-18)
(0.0114689 0.00770715 5.83026e-18)
(0.0116008 0.00729201 6.54807e-18)
(0.0117245 0.00687623 8.57185e-18)
(0.0118399 0.00645997 1.08489e-17)
(0.0119474 0.00604334 1.0192e-17)
(0.012047 0.00562645 9.12438e-18)
(0.0121389 0.00520941 9.25374e-18)
(0.0122232 0.00479228 8.54983e-18)
(0.0123 0.00437514 6.36532e-18)
(0.0123695 0.00395803 2.68176e-18)
(0.0124316 0.00354098 3.67103e-18)
(0.0124867 0.00312403 6.09407e-18)
(0.0125346 0.00270718 1.94993e-18)
(0.0125755 0.00229045 2.05631e-18)
(0.0126095 0.00187383 4.53882e-18)
(0.0126367 0.00145731 6.62387e-18)
(0.012657 0.00104087 8.61531e-18)
(0.0126705 0.000624494 8.18866e-18)
(0.0126773 0.000208157 7.34896e-18)
(0.0126773 -0.000208166 7.68024e-18)
(0.0126705 -0.000624502 1.23893e-17)
(0.012657 -0.00104088 1.72497e-17)
(0.0126367 -0.00145731 1.3674e-17)
(0.0126095 -0.00187384 1.03962e-17)
(0.0125755 -0.00229046 1.1807e-17)
(0.0125346 -0.00270719 1.34396e-17)
(0.0124866 -0.00312403 1.65506e-17)
(0.0114486 0.00964249 6.73733e-18)
(0.0108985 0.00996782 1.02192e-17)
(0.01108 0.00954973 5.90051e-18)
(0.0112514 0.00913083 6.6438e-18)
(0.0114137 0.00871047 8.18297e-18)
(0.011567 0.00828888 6.58065e-18)
(0.0117115 0.00786625 5.99593e-18)
(0.0118473 0.00744278 7.18791e-18)
(0.0119746 0.00701862 8.4848e-18)
(0.0120935 0.00659393 1.13759e-17)
(0.0122042 0.00616884 1.11927e-17)
(0.0123068 0.00574346 8.88776e-18)
(0.0124015 0.00531788 8.94043e-18)
(0.0124884 0.00489219 8.50122e-18)
(0.0125675 0.00446645 5.83004e-18)
(0.0126391 0.00404072 2.30747e-18)
(0.0127032 0.00361503 3.91671e-18)
(0.0127599 0.00318941 6.11031e-18)
(0.0128093 0.00276389 1.39366e-18)
(0.0128516 0.00233846 9.81659e-19)
(0.0128866 0.00191313 3.93432e-18)
(0.0129146 0.00148788 6.9017e-18)
(0.0129356 0.00106272 8.73698e-18)
(0.0129495 0.000637604 7.87346e-18)
(0.0129565 0.000212528 7.91629e-18)
(0.0129565 -0.000212536 8.45741e-18)
(0.0129495 -0.000637612 1.24511e-17)
(0.0129356 -0.00106272 1.69395e-17)
(0.0129146 -0.00148789 1.31973e-17)
(0.0128866 -0.00191313 9.80813e-18)
(0.0128516 -0.00233846 1.03196e-17)
(0.0128093 -0.00276389 1.15141e-17)
(0.0127599 -0.00318941 1.47989e-17)
(0.0116617 0.00985746 8.78044e-18)
(0.0111212 0.0101704 9.11468e-18)
(0.0113078 0.0097442 5.66331e-18)
(0.0114841 0.00931708 6.2952e-18)
(0.011651 0.00888843 7.10869e-18)
(0.0118087 0.00845848 6.30765e-18)
(0.0119573 0.00802744 6.92436e-18)
(0.012097 0.00759551 7.45328e-18)
(0.012228 0.00716285 8.2546e-18)
(0.0123504 0.00672961 1.15214e-17)
(0.0124643 0.00629593 1.1923e-17)
(0.0125699 0.00586193 8.88864e-18)
(0.0126674 0.0054277 8.5335e-18)
(0.0127568 0.00499333 8.39428e-18)
(0.0128383 0.00455888 5.57911e-18)
(0.012912 0.00412442 2.07008e-18)
(0.012978 0.00368998 3.81153e-18)
(0.0130365 0.00325559 5.74546e-18)
(0.0130874 0.00282127 1.03983e-18)
(0.0131309 0.00238704 6.63722e-19)
(0.013167 0.00195289 3.53842e-18)
(0.0131959 0.00151882 6.82564e-18)
(0.0132175 0.00108482 8.77023e-18)
(0.0132319 0.000650869 7.56326e-18)
(0.013239 0.00021695 8.33753e-18)
(0.013239 -0.000216958 9.61251e-18)
(0.0132319 -0.000650877 1.25372e-17)
(0.0132175 -0.00108483 1.61198e-17)
(0.0131959 -0.00151883 1.27927e-17)
(0.013167 -0.0019529 9.6788e-18)
(0.0131309 -0.00238704 9.61273e-18)