/*--------------------------------*- C++ -*----------------------------------*\
  =========                 |
  \\      /  F ield         | OpenFOAM: The Open Source CFD Toolbox
   \\    /   O peration     | Website:  https://openfoam.org
    \\  /    A nd           | Version:  7
     \\/     M anipulation  |
\*---------------------------------------------------------------------------*/
FoamFile
{
    version     2.0;
    format      ascii;
    class       volScalarField;
    location    "176000";
    object      strainRate;
}
// * * * * * * * * * * * * * * * * * * * * * * * * * * * * * * * * * * * * * //

dimensions      [0 0 -1 0 0 0 0];

internalField   nonuniform List<scalar> 
4814
(
0.0828272
0.0824525
0.0821152
0.0818153
0.0950981
0.0941664
0.0932878
0.0924456
0.0916402
0.0908718
0.0901404
0.0894459
0.0887885
0.0881686
0.0875869
0.0870435
0.0865386
0.0860724
0.0856449
0.0852562
0.0849063
0.0845953
0.0843231
0.0840898
0.0838954
0.0837399
0.0836232
0.0835453
0.0835063
0.0835063
0.0835453
0.0836232
0.0837399
0.0838954
0.0840898
0.0843231
0.0845953
0.0849063
0.0984216
0.0974552
0.0965436
0.0956698
0.0948342
0.0940369
0.093278
0.0925574
0.0918752
0.0912319
0.0906282
0.0900643
0.0895404
0.0890565
0.0886129
0.0882094
0.0878463
0.0875235
0.087241
0.0869989
0.0867971
0.0866357
0.0865145
0.0864337
0.0863932
0.0863932
0.0864337
0.0865145
0.0866357
0.0867971
0.0869989
0.087241
0.0875235
0.0878463
0.0882094
0.0886129
0.0890565
0.0895404
0.0900643
0.0906282
0.0912319
0.101925
0.100922
0.0999755
0.0990686
0.0982013
0.0973736
0.0965858
0.0958377
0.0951293
0.0944615
0.0938347
0.0932492
0.0927051
0.0922027
0.091742
0.0913231
0.090946
0.0906107
0.0903174
0.090066
0.0898565
0.0896888
0.089563
0.089479
0.089437
0.089437
0.089479
0.089563
0.0896888
0.0898565
0.090066
0.0903174
0.0906107
0.090946
0.0913231
0.091742
0.0922027
0.0927051
0.0932492
0.0938347
0.0944615
0.0951293
0.0958377
0.0965858
0.10562
0.104579
0.103596
0.102655
0.101754
0.100894
0.100076
0.0992991
0.0985633
0.0978695
0.0972184
0.0966101
0.096045
0.095523
0.0950443
0.0946091
0.0942173
0.093869
0.0935642
0.0933029
0.0930852
0.092911
0.0927803
0.0926931
0.0926494
0.0926494
0.0926931
0.0927803
0.092911
0.0930852
0.0933029
0.0935642
0.093869
0.0942173
0.0946091
0.0950443
0.095523
0.096045
0.0966101
0.0972184
0.0978695
0.0985633
0.0992991
0.100076
0.109522
0.108441
0.10742
0.106442
0.105506
0.104613
0.103762
0.102955
0.10219
0.101469
0.100793
0.10016
0.0995729
0.0990303
0.0985328
0.0980803
0.097673
0.0973109
0.0969941
0.0967225
0.0964961
0.0963151
0.0961791
0.0960884
0.0960431
0.0960431
0.0960884
0.0961791
0.0963151
0.0964961
0.0967225
0.0969941
0.0973109
0.097673
0.0980803
0.0985328
0.0990303
0.0995729
0.10016
0.100793
0.101469
0.10219
0.102955
0.103762
0.113645
0.112522
0.111461
0.110444
0.109472
0.108543
0.107659
0.10682
0.106025
0.105275
0.104571
0.103914
0.103303
0.102739
0.102221
0.101751
0.101327
0.100951
0.100621
0.100339
0.100103
0.0999148
0.0997734
0.0996791
0.0996319
0.0996319
0.0996791
0.0997734
0.0999148
0.100103
0.100339
0.100621
0.100951
0.101327
0.101751
0.102221
0.102739
0.103303
0.103914
0.104571
0.105275
0.106025
0.10682
0.107659
0.118006
0.116839
0.115736
0.114679
0.113667
0.112702
0.111783
0.11091
0.110083
0.109303
0.108571
0.107887
0.107251
0.106664
0.106126
0.105636
0.105195
0.104803
0.10446
0.104166
0.103921
0.103725
0.103578
0.10348
0.103431
0.103431
0.10348
0.103578
0.103725
0.103921
0.104166
0.10446
0.104803
0.105195
0.105636
0.106126
0.106664
0.107251
0.107887
0.108571
0.109303
0.110083
0.11091
0.111783
0.112702
0.122622
0.121409
0.120262
0.119162
0.118111
0.117106
0.11615
0.115241
0.114381
0.113569
0.112807
0.112095
0.111434
0.110823
0.110262
0.109752
0.109293
0.108885
0.108528
0.108222
0.107967
0.107763
0.10761
0.107508
0.107457
0.107457
0.107508
0.10761
0.107763
0.107967
0.108222
0.108528
0.108885
0.109293
0.109752
0.110262
0.110823
0.111434
0.112095
0.112807
0.113569
0.114381
0.115241
0.11615
0.117106
0.127513
0.126251
0.125058
0.123914
0.12282
0.121775
0.120779
0.119834
0.118938
0.118093
0.117299
0.116558
0.115869
0.115233
0.114649
0.114118
0.11364
0.113215
0.112843
0.112524
0.112259
0.112046
0.111886
0.11178
0.111727
0.111727
0.11178
0.111886
0.112046
0.112259
0.112524
0.112843
0.113215
0.11364
0.114118
0.114649
0.115233
0.115869
0.116558
0.117299
0.118093
0.118938
0.119834
0.120779
0.121775
0.132698
0.131386
0.130144
0.128954
0.127815
0.126727
0.125691
0.124706
0.123773
0.122893
0.122067
0.121295
0.120577
0.119914
0.119306
0.118753
0.118255
0.117812
0.117424
0.117092
0.116815
0.116594
0.116427
0.116316
0.116261
0.116261
0.116316
0.116427
0.116594
0.116815
0.117092
0.117424
0.117812
0.118255
0.118753
0.119306
0.119914
0.120577
0.121295
0.122067
0.122893
0.123773
0.124706
0.125691
0.126727
0.138201
0.136835
0.135543
0.134305
0.133119
0.131986
0.130907
0.129882
0.128909
0.127993
0.127132
0.126328
0.12558
0.124889
0.124255
0.123678
0.123159
0.122697
0.122293
0.121947
0.121658
0.121427
0.121254
0.121138
0.12108
0.12108
0.121138
0.121254
0.121427
0.121658
0.121947
0.122293
0.122697
0.123159
0.123678
0.124255
0.124889
0.12558
0.126328
0.127132
0.127993
0.128909
0.129882
0.130907
0.144043
0.142623
0.141278
0.139989
0.138755
0.137575
0.136451
0.135382
0.13437
0.133414
0.132517
0.131679
0.1309
0.130179
0.129518
0.128917
0.128376
0.127894
0.127473
0.127112
0.126811
0.12657
0.126389
0.126268
0.126208
0.126208
0.126268
0.126389
0.12657
0.126811
0.127112
0.127473
0.127894
0.128376
0.128917
0.129518
0.130179
0.1309
0.131679
0.132517
0.133414
0.13437
0.135382
0.136451
0.150251
0.148774
0.147375
0.146033
0.144747
0.143518
0.142347
0.141234
0.140179
0.139184
0.138249
0.137375
0.136562
0.135811
0.135122
0.134495
0.13393
0.133428
0.132989
0.132612
0.132298
0.132047
0.131858
0.131732
0.131669
0.131669
0.131732
0.131858
0.132047
0.132298
0.132612
0.132989
0.133428
0.13393
0.134495
0.135122
0.135811
0.136562
0.137375
0.138249
0.139184
0.140179
0.141234
0.142347
0.156852
0.155315
0.153859
0.152462
0.151124
0.149844
0.148624
0.147465
0.146365
0.145327
0.144353
0.143442
0.142594
0.141811
0.141093
0.140439
0.13985
0.139326
0.138867
0.138474
0.138147
0.137884
0.137688
0.137556
0.137491
0.137491
0.137556
0.137688
0.137884
0.138147
0.138474
0.138867
0.139326
0.13985
0.140439
0.141093
0.141811
0.142594
0.143442
0.144353
0.145327
0.146365
0.147465
0.148624
0.163873
0.162275
0.160761
0.159307
0.157914
0.156581
0.155311
0.154103
0.152957
0.151875
0.150859
0.14991
0.149026
0.148209
0.14746
0.146778
0.146163
0.145617
0.145139
0.144728
0.144386
0.144113
0.143907
0.14377
0.143702
0.143702
0.14377
0.143907
0.144113
0.144386
0.144728
0.145139
0.145617
0.146163
0.146778
0.14746
0.148209
0.149026
0.14991
0.150859
0.151875
0.152957
0.154103
0.155311
0.171345
0.169685
0.16811
0.166597
0.165147
0.16376
0.162437
0.161179
0.159985
0.158858
0.1578
0.156809
0.155888
0.155037
0.154255
0.153544
0.152903
0.152333
0.151834
0.151406
0.151049
0.150763
0.150549
0.150406
0.150334
0.150334
0.150406
0.150549
0.150763
0.151049
0.151406
0.151834
0.152333
0.152903
0.153544
0.154255
0.155037
0.155888
0.156809
0.1578
0.158858
0.159985
0.161179
0.162437
0.1793
0.177575
0.175938
0.174366
0.172857
0.171414
0.170036
0.168726
0.167483
0.166309
0.165206
0.164175
0.163215
0.162327
0.161512
0.16077
0.160102
0.159507
0.158987
0.15854
0.158168
0.15787
0.157646
0.157497
0.157422
0.157422
0.157497
0.157646
0.15787
0.158168
0.15854
0.158987
0.159507
0.160102
0.16077
0.161512
0.162327
0.163215
0.164175
0.165206
0.166309
0.167483
0.168726
0.170036
0.187769
0.185979
0.184278
0.182645
0.181077
0.179576
0.178143
0.17678
0.175486
0.174264
0.173115
0.172041
0.171041
0.170116
0.169266
0.168493
0.167796
0.167176
0.166633
0.166167
0.165779
0.165469
0.165235
0.16508
0.165002
0.165002
0.16508
0.165235
0.165469
0.165779
0.166167
0.166633
0.167176
0.167796
0.168493
0.169266
0.170116
0.171041
0.172041
0.173115
0.174264
0.175486
0.17678
0.178143
0.196786
0.19493
0.193166
0.19147
0.189841
0.188282
0.186792
0.185375
0.184029
0.182758
0.181563
0.180444
0.179403
0.17844
0.177555
0.17675
0.176024
0.175377
0.174812
0.174326
0.173921
0.173598
0.173354
0.173192
0.173111
0.173111
0.173192
0.173354
0.173598
0.173921
0.174326
0.174812
0.175377
0.176024
0.17675
0.177555
0.17844
0.179403
0.180444
0.181563
0.182758
0.184029
0.185375
0.186792
0.206384
0.204461
0.202634
0.200875
0.199186
0.197567
0.196021
0.194549
0.193151
0.19183
0.190587
0.189424
0.188341
0.187339
0.186418
0.185579
0.184824
0.184151
0.183562
0.183056
0.182634
0.182297
0.182044
0.181875
0.18179
0.18179
0.181875
0.182044
0.182297
0.182634
0.183056
0.183562
0.184151
0.184824
0.185579
0.186418
0.187339
0.188341
0.189424
0.190587
0.19183
0.193151
0.194549
0.196021
0.216594
0.214607
0.212716
0.210896
0.209147
0.207469
0.205866
0.204339
0.202888
0.201517
0.200227
0.199019
0.197894
0.196852
0.195895
0.195023
0.194237
0.193537
0.192924
0.192398
0.19196
0.191609
0.191345
0.191169
0.191081
0.191081
0.191169
0.191345
0.191609
0.19196
0.192398
0.192924
0.193537
0.194237
0.195023
0.195895
0.196852
0.197894
0.199019
0.200227
0.201517
0.202888
0.204339
0.205866
0.207469
0.227449
0.225399
0.223447
0.221566
0.219757
0.218022
0.216363
0.214782
0.213279
0.211858
0.210521
0.209268
0.208101
0.20702
0.206027
0.205121
0.204305
0.203578
0.202942
0.202395
0.201939
0.201574
0.2013
0.201118
0.201026
0.201026
0.201118
0.2013
0.201574
0.201939
0.202395
0.202942
0.203578
0.204305
0.205121
0.206027
0.20702
0.208101
0.209268
0.210521
0.211858
0.213279
0.214782
0.216363
0.218022
0.238975
0.236866
0.234855
0.232917
0.231051
0.22926
0.227546
0.225913
0.224359
0.22289
0.221506
0.22021
0.219001
0.217882
0.216853
0.215915
0.215069
0.214315
0.213655
0.213088
0.212615
0.212237
0.211952
0.211763
0.211668
0.211668
0.211763
0.211952
0.212237
0.212615
0.213088
0.213655
0.214315
0.215069
0.215915
0.216853
0.217882
0.219001
0.22021
0.221506
0.22289
0.224359
0.225913
0.227546
0.22926
0.251199
0.249034
0.246969
0.244976
0.243057
0.241213
0.239447
0.237765
0.236162
0.234647
0.233219
0.23188
0.230632
0.229476
0.228412
0.227442
0.226567
0.225787
0.225104
0.224517
0.224028
0.223636
0.223342
0.223146
0.223047
0.223047
0.223146
0.223342
0.223636
0.224028
0.224517
0.225104
0.225787
0.226567
0.227442
0.228412
0.229476
0.230632
0.23188
0.233219
0.234647
0.236162
0.237765
0.239447
0.241213
0.264147
0.261932
0.259817
0.257774
0.255804
0.25391
0.252096
0.250366
0.248718
0.24716
0.245691
0.244313
0.243027
0.241835
0.240739
0.239739
0.238836
0.238032
0.237326
0.236721
0.236216
0.235811
0.235507
0.235305
0.235203
0.235203
0.235305
0.235507
0.235811
0.236216
0.236721
0.237326
0.238032
0.238836
0.239739
0.240739
0.241835
0.243027
0.244313
0.245691
0.24716
0.248718
0.250366
0.252096
0.277891
0.275625
0.273457
0.271362
0.269339
0.267394
0.265528
0.263749
0.262061
0.260463
0.258955
0.257541
0.25622
0.254995
0.253868
0.252839
0.251911
0.251083
0.250357
0.249733
0.249213
0.248796
0.248484
0.248275
0.248171
0.248171
0.248275
0.248484
0.248796
0.249213
0.249733
0.250357
0.251083
0.251911
0.252839
0.253868
0.254995
0.25622
0.257541
0.258955
0.260463
0.262061
0.263749
0.265528
0.29277
0.290408
0.288145
0.285955
0.28384
0.281805
0.279852
0.277994
0.276264
0.274625
0.273079
0.271626
0.27027
0.269011
0.267852
0.266794
0.265838
0.264986
0.264238
0.263596
0.26306
0.262631
0.262309
0.262095
0.261988
0.261988
0.262095
0.262309
0.262631
0.26306
0.263596
0.264238
0.264986
0.265838
0.266794
0.267852
0.269011
0.27027
0.271626
0.273079
0.274625
0.276264
0.277994
0.279852
0.309146
0.306647
0.304248
0.301925
0.299682
0.297522
0.295449
0.29348
0.291672
0.28996
0.288343
0.286823
0.285404
0.284086
0.282873
0.281765
0.280764
0.279871
0.279088
0.278415
0.277853
0.277403
0.277069
0.27685
0.27674
0.27674
0.27685
0.277069
0.277403
0.277853
0.278415
0.279088
0.279871
0.280764
0.281765
0.282873
0.284086
0.285404
0.286823
0.288343
0.28996
0.291672
0.29348
0.295449
0.326832
0.324251
0.321767
0.31936
0.317033
0.314791
0.312638
0.310586
0.308669
0.306851
0.305135
0.303522
0.302015
0.300616
0.299327
0.29815
0.297087
0.296139
0.295306
0.294591
0.293994
0.293516
0.293164
0.292935
0.29282
0.29282
0.292935
0.293164
0.293516
0.293994
0.294591
0.295306
0.296139
0.297087
0.29815
0.299327
0.300616
0.302015
0.303522
0.305135
0.306851
0.308669
0.310586
0.312638
0.345453
0.342864
0.340367
0.337943
0.335595
0.333329
0.331151
0.329067
0.327085
0.325204
0.323427
0.321755
0.320192
0.318741
0.317403
0.316182
0.315077
0.314092
0.313227
0.312483
0.311863
0.311365
0.310996
0.310752
0.310631
0.310631
0.310752
0.310996
0.311365
0.311863
0.312483
0.313227
0.314092
0.315077
0.316182
0.317403
0.318741
0.320192
0.321755
0.323427
0.325204
0.327085
0.329067
0.33115
0.364782
0.362227
0.359756
0.357352
0.35502
0.352765
0.350594
0.348512
0.346527
0.34464
0.342855
0.341174
0.3396
0.338138
0.336789
0.335555
0.334439
0.333443
0.332568
0.331816
0.331187
0.330683
0.330306
0.330054
0.329928
0.329928
0.330054
0.330306
0.330683
0.331187
0.331816
0.332568
0.333443
0.334439
0.335555
0.336789
0.338138
0.3396
0.341174
0.342855
0.34464
0.346527
0.348512
0.350594
0.38453
0.382057
0.37966
0.377321
0.375047
0.372843
0.370717
0.368675
0.366723
0.364864
0.363102
0.361441
0.359885
0.358436
0.357098
0.355874
0.354765
0.353774
0.352904
0.352155
0.351528
0.351026
0.350649
0.350398
0.350272
0.350272
0.350398
0.350649
0.351026
0.351528
0.352155
0.352904
0.353774
0.354765
0.355874
0.357098
0.358436
0.359885
0.361441
0.363102
0.364864
0.366723
0.368675
0.370717
0.404309
0.401973
0.399701
0.397478
0.395311
0.393206
0.391171
0.389212
0.387334
0.385542
0.383841
0.382234
0.380727
0.379321
0.378022
0.376831
0.375752
0.374787
0.373938
0.373207
0.372595
0.372104
0.371736
0.37149
0.371367
0.371367
0.37149
0.371736
0.372104
0.372595
0.373207
0.373938
0.374787
0.375752
0.376831
0.378022
0.379321
0.380727
0.382234
0.383841
0.385542
0.387334
0.389212
0.391171
0.393206
0.423631
0.421488
0.419396
0.417343
0.415336
0.413382
0.411487
0.409658
0.4079
0.406219
0.404619
0.403106
0.401684
0.400356
0.399126
0.397998
0.396974
0.396057
0.39525
0.394555
0.393972
0.393505
0.393153
0.392919
0.392801
0.392801
0.392919
0.393153
0.393505
0.393972
0.394555
0.39525
0.396057
0.396974
0.397998
0.399126
0.400356
0.401684
0.403106
0.404619
0.406219
0.4079
0.409658
0.411487
0.413382
0.441948
0.440048
0.438187
0.436353
0.434556
0.432801
0.431095
0.429443
0.42785
0.426323
0.424868
0.423488
0.422189
0.420974
0.419847
0.418811
0.41787
0.417026
0.416283
0.415641
0.415104
0.414673
0.414348
0.41413
0.414022
0.414022
0.41413
0.414348
0.414673
0.415104
0.415641
0.416283
0.417026
0.41787
0.418811
0.419847
0.420974
0.422189
0.423488
0.424868
0.426323
0.42785
0.429443
0.431094
0.432801
0.458707
0.457087
0.455494
0.453919
0.45237
0.450853
0.449375
0.44794
0.446551
0.445216
0.443941
0.44273
0.441587
0.440517
0.439522
0.438607
0.437774
0.437027
0.436367
0.435798
0.43532
0.434936
0.434647
0.434454
0.434357
0.434357
0.434454
0.434647
0.434936
0.43532
0.435798
0.436367
0.437027
0.437774
0.438607
0.439522
0.440517
0.441587
0.44273
0.443941
0.445216
0.446551
0.44794
0.449375
0.450853
0.45237
0.473433
0.472109
0.470802
0.469505
0.468226
0.46697
0.465743
0.464548
0.463387
0.462269
0.461199
0.460181
0.459218
0.458314
0.457474
0.456699
0.455994
0.45536
0.4548
0.454316
0.45391
0.453583
0.453336
0.453171
0.453088
0.453088
0.453171
0.453336
0.453583
0.453909
0.454316
0.4548
0.45536
0.455994
0.456699
0.457474
0.458314
0.459218
0.46018
0.461199
0.462269
0.463387
0.464548
0.465743
0.46697
0.468226
0.485807
0.484772
0.483746
0.482723
0.481712
0.480718
0.479744
0.478794
0.477866
0.476971
0.476112
0.475294
0.47452
0.473793
0.473115
0.47249
0.471919
0.471406
0.470953
0.470561
0.470231
0.469966
0.469766
0.469631
0.469564
0.469564
0.469631
0.469766
0.469966
0.470231
0.470561
0.470953
0.471406
0.471919
0.47249
0.473115
0.473793
0.47452
0.475294
0.476112
0.476971
0.477866
0.478794
0.479744
0.480718
0.481712
0.482723
0.495725
0.494949
0.494176
0.493403
0.492637
0.491882
0.491143
0.490419
0.489709
0.489023
0.488365
0.487737
0.487142
0.486583
0.486062
0.48558
0.485141
0.484746
0.484396
0.484093
0.483839
0.483634
0.483479
0.483374
0.483322
0.483322
0.483374
0.483479
0.483634
0.483839
0.484093
0.484396
0.484746
0.485141
0.48558
0.486062
0.486583
0.487142
0.487737
0.488365
0.489023
0.489709
0.490419
0.491142
0.491882
0.492637
0.493403
0.5033
0.502739
0.502176
0.501611
0.501051
0.500498
0.499956
0.499425
0.498902
0.498396
0.49791
0.497447
0.497008
0.496595
0.496211
0.495855
0.495531
0.49524
0.494982
0.494758
0.494571
0.494419
0.494305
0.494227
0.494188
0.494188
0.494227
0.494305
0.494419
0.494571
0.494758
0.494982
0.49524
0.495531
0.495855
0.49621
0.496595
0.497008
0.497447
0.49791
0.498396
0.498902
0.499425
0.499956
0.500498
0.501051
0.501611
0.508826
0.508429
0.508026
0.507621
0.507218
0.506822
0.506434
0.506053
0.505675
0.50531
0.50496
0.504627
0.504312
0.504015
0.50374
0.503485
0.503254
0.503045
0.502861
0.502701
0.502567
0.50246
0.502377
0.502321
0.502293
0.502293
0.502321
0.502377
0.502459
0.502567
0.502701
0.502861
0.503045
0.503254
0.503485
0.50374
0.504015
0.504311
0.504627
0.50496
0.50531
0.505675
0.506053
0.506434
0.506822
0.507218
0.507621
0.512698
0.512417
0.512128
0.511835
0.511545
0.51126
0.510981
0.510707
0.510434
0.51017
0.509918
0.509678
0.509452
0.509241
0.509044
0.508863
0.508699
0.508551
0.508421
0.508308
0.508214
0.508137
0.508079
0.508039
0.508019
0.508019
0.508039
0.508079
0.508137
0.508214
0.508308
0.508421
0.508551
0.508699
0.508863
0.509044
0.509241
0.509452
0.509678
0.509918
0.51017
0.510434
0.510707
0.510981
0.51126
0.511545
0.511835
0.51534
0.515135
0.51492
0.514701
0.514484
0.514271
0.514064
0.513861
0.513657
0.51346
0.513272
0.513095
0.512928
0.512772
0.512628
0.512496
0.512377
0.512269
0.512175
0.512093
0.512025
0.51197
0.511928
0.511899
0.511884
0.511884
0.511899
0.511928
0.51197
0.512025
0.512093
0.512175
0.512269
0.512377
0.512496
0.512628
0.512772
0.512928
0.513095
0.513272
0.51346
0.513657
0.513861
0.514064
0.514271
0.514484
0.514701
0.51492
0.517136
0.516979
0.516808
0.516634
0.516461
0.516293
0.51613
0.515969
0.515807
0.51565
0.515502
0.515363
0.515232
0.515111
0.514999
0.514897
0.514804
0.514722
0.514649
0.514587
0.514535
0.514493
0.51446
0.514438
0.514426
0.514426
0.514438
0.51446
0.514493
0.514535
0.514587
0.514649
0.514722
0.514804
0.514896
0.514999
0.515111
0.515232
0.515363
0.515502
0.51565
0.515807
0.515969
0.516129
0.516293
0.516461
0.516633
0.516808
0.518397
0.518268
0.518123
0.517974
0.517827
0.517685
0.517546
0.51741
0.517272
0.517139
0.517013
0.516895
0.516785
0.516683
0.516589
0.516504
0.516427
0.516359
0.516299
0.516247
0.516204
0.51617
0.516143
0.516124
0.516114
0.516114
0.516124
0.516143
0.51617
0.516204
0.516247
0.516299
0.516359
0.516427
0.516504
0.516589
0.516683
0.516785
0.516895
0.517013
0.517139
0.517272
0.51741
0.517546
0.517685
0.517827
0.517974
0.518123
0.519349
0.519236
0.519106
0.518972
0.51884
0.518711
0.518587
0.518465
0.51834
0.518219
0.518106
0.518
0.517901
0.51781
0.517727
0.517651
0.517582
0.517521
0.517468
0.517423
0.517385
0.517354
0.51733
0.517313
0.517305
0.517305
0.517313
0.51733
0.517354
0.517385
0.517423
0.517468
0.517521
0.517582
0.517651
0.517726
0.51781
0.517901
0.518
0.518106
0.518219
0.518339
0.518465
0.518587
0.518711
0.51884
0.518972
0.519106
0.520139
0.520038
0.519917
0.519792
0.519668
0.519548
0.519432
0.519318
0.519201
0.519088
0.518982
0.518883
0.518791
0.518706
0.518628
0.518558
0.518494
0.518438
0.518389
0.518346
0.518311
0.518283
0.518261
0.518245
0.518237
0.518237
0.518245
0.518261
0.518283
0.518311
0.518346
0.518389
0.518438
0.518494
0.518558
0.518628
0.518706
0.518791
0.518883
0.518982
0.519088
0.519201
0.519318
0.519432
0.519548
0.519668
0.519792
0.519917
0.520855
0.520762
0.520647
0.520528
0.520411
0.520297
0.520187
0.520078
0.519967
0.519859
0.519758
0.519664
0.519576
0.519496
0.519422
0.519355
0.519295
0.519241
0.519195
0.519155
0.519122
0.519095
0.519074
0.519059
0.519051
0.519051
0.519059
0.519074
0.519095
0.519122
0.519155
0.519195
0.519241
0.519295
0.519355
0.519422
0.519496
0.519576
0.519664
0.519758
0.519859
0.519967
0.520078
0.520187
0.520297
0.520411
0.520528
0.520647
0.521538
0.521452
0.521343
0.52123
0.521118
0.521009
0.520903
0.5208
0.520693
0.52059
0.520493
0.520403
0.520319
0.520242
0.520172
0.520108
0.52005
0.519999
0.519955
0.519917
0.519885
0.519859
0.519839
0.519825
0.519818
0.519818
0.519825
0.519839
0.519859
0.519885
0.519917
0.519955
0.519999
0.52005
0.520108
0.520172
0.520242
0.520319
0.520403
0.520493
0.52059
0.520693
0.5208
0.520903
0.521009
0.521118
0.52123
0.521343
0.522205
0.522127
0.522024
0.521915
0.521808
0.521704
0.521604
0.521505
0.521402
0.521304
0.521211
0.521124
0.521044
0.52097
0.520903
0.520842
0.520787
0.520738
0.520696
0.520659
0.520629
0.520605
0.520585
0.520572
0.520565
0.520565
0.520572
0.520585
0.520605
0.520629
0.520659
0.520696
0.520738
0.520787
0.520842
0.520903
0.52097
0.521044
0.521124
0.521211
0.521304
0.521402
0.521505
0.521604
0.521704
0.521808
0.521915
0.522023
0.0950981
0.0984216
0.101925
0.10562
0.109522
0.113645
0.118006
0.122622
0.127513
0.132698
0.138201
0.144043
0.150251
0.156852
0.163873
0.171345
0.1793
0.187769
0.196786
0.206384
0.216594
0.227449
0.238975
0.251199
0.264147
0.277891
0.29277
0.309146
0.326832
0.345453
0.364782
0.38453
0.404309
0.423631
0.441948
0.458707
0.473433
0.485807
0.495725
0.5033
0.508826
0.512698
0.51534
0.517136
0.518397
0.519349
0.520139
0.520855
0.521538
0.522205
0.0941664
0.0974552
0.100922
0.104579
0.108441
0.112522
0.116839
0.121409
0.126251
0.131386
0.136835
0.142623
0.148774
0.155315
0.162275
0.169685
0.177575
0.185979
0.19493
0.204461
0.214607
0.225399
0.236866
0.249034
0.261932
0.275625
0.290408
0.306647
0.324251
0.342864
0.362227
0.382057
0.401973
0.421488
0.440048
0.457087
0.472109
0.484772
0.494949
0.502739
0.508429
0.512417
0.515135
0.516979
0.518268
0.519236
0.520038
0.520762
0.521452
0.522127
0.0932878
0.0965435
0.0999755
0.103596
0.10742
0.111461
0.115736
0.120262
0.125058
0.130144
0.135543
0.141278
0.147375
0.153859
0.160761
0.16811
0.175938
0.184278
0.193166
0.202634
0.212716
0.223447
0.234855
0.246969
0.259817
0.273457
0.288145
0.304248
0.321767
0.340367
0.359756
0.37966
0.399701
0.419396
0.438187
0.455494
0.470802
0.483746
0.494176
0.502176
0.508026
0.512128
0.51492
0.516808
0.518123
0.519106
0.519917
0.520647
0.521343
0.522024
0.0924456
0.0956698
0.0990686
0.102655
0.106442
0.110444
0.114679
0.119162
0.123914
0.128954
0.134305
0.139989
0.146033
0.152462
0.159307
0.166597
0.174366
0.182645
0.19147
0.200875
0.210896
0.221566
0.232917
0.244976
0.257774
0.271362
0.285955
0.301926
0.31936
0.337943
0.357352
0.377321
0.397478
0.417343
0.436353
0.453919
0.469505
0.482723
0.493403
0.501611
0.507621
0.511835
0.514701
0.516633
0.517974
0.518972
0.519792
0.520528
0.52123
0.521915
0.0916402
0.0948342
0.0982012
0.101754
0.105506
0.109472
0.113667
0.118111
0.12282
0.127815
0.133119
0.138755
0.144747
0.151124
0.157914
0.165147
0.172857
0.181077
0.189841
0.199186
0.209147
0.219757
0.231051
0.243057
0.255804
0.269339
0.28384
0.299682
0.317033
0.335595
0.35502
0.375047
0.395311
0.415336
0.434556
0.45237
0.468226
0.481712
0.492637
0.501051
0.507218
0.511545
0.514484
0.516461
0.517827
0.51884
0.519668
0.520411
0.521118
0.521808
0.0908718
0.0940369
0.0973736
0.100894
0.104613
0.108543
0.112702
0.117106
0.121775
0.126727
0.131986
0.137575
0.143518
0.149844
0.156581
0.16376
0.171414
0.179576
0.188282
0.197567
0.207469
0.218022
0.22926
0.241213
0.25391
0.267394
0.281805
0.297522
0.314791
0.333329
0.352765
0.372843
0.393206
0.413382
0.432801
0.450853
0.46697
0.480718
0.491882
0.500498
0.506822
0.51126
0.514271
0.516293
0.517685
0.518711
0.519548
0.520297
0.521009
0.521704
0.0901404
0.093278
0.0965858
0.100076
0.103762
0.107659
0.111783
0.11615
0.120779
0.125691
0.130907
0.136451
0.142347
0.148624
0.155311
0.162437
0.170036
0.178143
0.186792
0.196021
0.205866
0.216363
0.227546
0.239447
0.252096
0.265528
0.279852
0.295449
0.312638
0.331151
0.350594
0.370717
0.391171
0.411487
0.431095
0.449375
0.465743
0.479744
0.491143
0.499956
0.506434
0.510981
0.514064
0.51613
0.517546
0.518587
0.519432
0.520187
0.520903
0.521604
0.0894459
0.0925574
0.0958377
0.0992991
0.102955
0.10682
0.11091
0.115241
0.119834
0.124706
0.129882
0.135382
0.141234
0.147465
0.154103
0.161179
0.168726
0.17678
0.185375
0.194549
0.204339
0.214782
0.225913
0.237765
0.250366
0.263749
0.277994
0.29348
0.310586
0.329067
0.348512
0.368675
0.389212
0.409658
0.429443
0.44794
0.464548
0.478794
0.490419
0.499425
0.506053
0.510707
0.513861
0.515969
0.51741
0.518465
0.519318
0.520078
0.5208
0.521505
0.0887885
0.0918752
0.0951293
0.0985633
0.10219
0.106025
0.110083
0.114381
0.118938
0.123773
0.128909
0.13437
0.140179
0.146365
0.152957
0.159985
0.167483
0.175486
0.184029
0.193151
0.202888
0.213279
0.224359
0.236162
0.248718
0.262061
0.276264
0.291672
0.308669
0.327085
0.346527
0.366723
0.387334
0.4079
0.42785
0.446551
0.463387
0.477866
0.489709
0.498902
0.505675
0.510434
0.513657
0.515807
0.517272
0.51834
0.519201
0.519967
0.520693
0.521402
0.0881686
0.0912319
0.0944615
0.0978695
0.101469
0.105275
0.109303
0.113569
0.118093
0.122893
0.127993
0.133414
0.139184
0.145327
0.151875
0.158858
0.166309
0.174264
0.182758
0.19183
0.201517
0.211858
0.22289
0.234647
0.24716
0.260463
0.274625
0.28996
0.306851
0.325204
0.34464
0.364864
0.385542
0.406219
0.426324
0.445216
0.462269
0.476971
0.489023
0.498396
0.50531
0.51017
0.51346
0.515651
0.517139
0.518219
0.519088
0.519859
0.52059
0.521304
0.0875868
0.0906282
0.0938347
0.0972184
0.100793
0.104571
0.108571
0.112807
0.117299
0.122067
0.127132
0.132517
0.138249
0.144353
0.150859
0.1578
0.165206
0.173115
0.181563
0.190587
0.200227
0.210521
0.221506
0.233219
0.245691
0.258955
0.273079
0.288343
0.305135
0.323427
0.342855
0.363102
0.383841
0.404619
0.424868
0.443941
0.461199
0.476113
0.488365
0.49791
0.50496
0.509918
0.513272
0.515502
0.517013
0.518106
0.518982
0.519758
0.520493
0.521211
0.0870435
0.0900643
0.0932492
0.0966101
0.10016
0.103914
0.107887
0.112095
0.116558
0.121295
0.126328
0.131679
0.137375
0.143442
0.14991
0.156809
0.164175
0.172041
0.180444
0.189424
0.199019
0.209268
0.22021
0.23188
0.244313
0.257541
0.271626
0.286823
0.303522
0.321755
0.341174
0.361441
0.382234
0.403106
0.423488
0.44273
0.460181
0.475295
0.487737
0.497447
0.504627
0.509678
0.513095
0.515363
0.516895
0.518
0.518883
0.519664
0.520403
0.521124
0.0865386
0.0895404
0.0927051
0.096045
0.0995729
0.103303
0.107251
0.111434
0.115869
0.120577
0.12558
0.1309
0.136562
0.142594
0.149026
0.155888
0.163215
0.171041
0.179403
0.188341
0.197894
0.208101
0.219001
0.230632
0.243027
0.25622
0.27027
0.285404
0.302015
0.320192
0.3396
0.359885
0.380727
0.401684
0.422189
0.441587
0.459218
0.47452
0.487143
0.497008
0.504312
0.509453
0.512928
0.515232
0.516785
0.517901
0.518791
0.519577
0.520319
0.521044
0.0860724
0.0890565
0.0922027
0.095523
0.0990303
0.102739
0.106664
0.110823
0.115233
0.119914
0.124889
0.130179
0.135811
0.141811
0.148209
0.155037
0.162327
0.170116
0.17844
0.187339
0.196852
0.20702
0.217882
0.229476
0.241835
0.254995
0.269011
0.284086
0.300616
0.318741
0.338138
0.358436
0.379321
0.400356
0.420974
0.440517
0.458315
0.473793
0.486583
0.496595
0.504015
0.509241
0.512772
0.515111
0.516683
0.51781
0.518706
0.519496
0.520242
0.52097
0.0856449
0.0886129
0.091742
0.0950443
0.0985328
0.102221
0.106126
0.110262
0.114649
0.119306
0.124255
0.129518
0.135122
0.141093
0.14746
0.154255
0.161512
0.169266
0.177555
0.186418
0.195895
0.206027
0.216853
0.228412
0.240739
0.253868
0.267852
0.282873
0.299327
0.317403
0.336789
0.357098
0.378022
0.399126
0.419847
0.439522
0.457474
0.473115
0.486062
0.496211
0.50374
0.509044
0.512628
0.514999
0.516589
0.517727
0.518628
0.519422
0.520172
0.520903
0.0852562
0.0882094
0.0913231
0.0946091
0.0980803
0.101751
0.105636
0.109752
0.114118
0.118753
0.123678
0.128917
0.134495
0.140439
0.146778
0.153544
0.16077
0.168493
0.17675
0.185579
0.195023
0.205121
0.215915
0.227442
0.239739
0.252839
0.266794
0.281765
0.29815
0.316182
0.335555
0.355874
0.376831
0.397998
0.418811
0.438607
0.456699
0.47249
0.48558
0.495855
0.503485
0.508864
0.512496
0.514897
0.516504
0.517651
0.518558
0.519355
0.520108
0.520842
0.0849063
0.0878463
0.090946
0.0942173
0.097673
0.101327
0.105195
0.109293
0.11364
0.118255
0.123159
0.128376
0.13393
0.13985
0.146163
0.152903
0.160102
0.167796
0.176024
0.184824
0.194237
0.204305
0.215069
0.226567
0.238836
0.251911
0.265838
0.280764
0.297087
0.315077
0.334439
0.354765
0.375752
0.396974
0.41787
0.437774
0.455994
0.471919
0.485141
0.495531
0.503254
0.508699
0.512377
0.514804
0.516427
0.517582
0.518494
0.519295
0.52005
0.520787
0.0845953
0.0875234
0.0906107
0.0938689
0.0973109
0.100951
0.104803
0.108885
0.113215
0.117812
0.122697
0.127894
0.133428
0.139326
0.145617
0.152333
0.159507
0.167176
0.175377
0.184151
0.193537
0.203578
0.214315
0.225787
0.238032
0.251083
0.264986
0.279871
0.296139
0.314092
0.333443
0.353774
0.374787
0.396058
0.417026
0.437027
0.45536
0.471406
0.484746
0.49524
0.503045
0.508551
0.512269
0.514722
0.516359
0.517522
0.518438
0.519241
0.519999
0.520738
0.0843231
0.087241
0.0903174
0.0935642
0.096994
0.100621
0.10446
0.108528
0.112843
0.117424
0.122293
0.127473
0.132989
0.138867
0.145139
0.151834
0.158987
0.166633
0.174812
0.183562
0.192924
0.202942
0.213655
0.225104
0.237326
0.250357
0.264238
0.279088
0.295306
0.313227
0.332568
0.352904
0.373938
0.39525
0.416283
0.436367
0.4548
0.470953
0.484396
0.494982
0.502861
0.508421
0.512175
0.514649
0.516299
0.517468
0.518389
0.519195
0.519955
0.520696
0.0840898
0.0869989
0.090066
0.0933029
0.0967225
0.100339
0.104166
0.108222
0.112524
0.117092
0.121947
0.127112
0.132612
0.138474
0.144728
0.151406
0.15854
0.166167
0.174326
0.183056
0.192398
0.202395
0.213088
0.224517
0.236721
0.249733
0.263596
0.278415
0.294591
0.312483
0.331816
0.352155
0.373207
0.394555
0.415642
0.435798
0.454316
0.470561
0.484093
0.494758
0.502701
0.508308
0.512094
0.514587
0.516247
0.517423
0.518346
0.519155
0.519917
0.520659
0.0838954
0.0867971
0.0898564
0.0930852
0.0964961
0.100103
0.103921
0.107967
0.112259
0.116815