/*--------------------------------*- C++ -*----------------------------------*\
  =========                 |
  \\      /  F ield         | OpenFOAM: The Open Source CFD Toolbox
   \\    /   O peration     | Website:  https://openfoam.org
    \\  /    A nd           | Version:  7
     \\/     M anipulation  |
\*---------------------------------------------------------------------------*/
FoamFile
{
    version     2.0;
    format      ascii;
    class       volVectorField;
    location    "176000";
    object      vorticity;
}
// * * * * * * * * * * * * * * * * * * * * * * * * * * * * * * * * * * * * * //

dimensions      [0 0 -1 0 0 0 0];

internalField   nonuniform List<vector> 
4814
(
(-0.0269673 0.0783142 -1.1134e-17)
(-0.0243749 0.0787672 2.50087e-17)
(-0.0217893 0.0791715 3.12718e-18)
(-0.01921 0.0795281 -1.79618e-17)
(-0.0655377 0.068909 8.00408e-18)
(-0.0634147 0.0696123 -1.00087e-17)
(-0.0606479 0.0708833 4.34689e-18)
(-0.0578828 0.0720817 7.57373e-18)
(-0.0551212 0.0732092 3.74676e-17)
(-0.0523646 0.0742673 -1.07048e-17)
(-0.049614 0.0752578 -1.10124e-17)
(-0.0468701 0.0761825 -1.30364e-17)
(-0.0441333 0.0770431 -2.54594e-17)
(-0.041404 0.0778422 -4.16109e-17)
(-0.0386827 0.0785819 2.73037e-17)
(-0.0359697 0.0792638 -7.61117e-18)
(-0.033265 0.0798898 -8.52029e-18)
(-0.0305686 0.0804613 2.53319e-18)
(-0.0278802 0.0809799 -1.15033e-17)
(-0.0251995 0.081447 2.45073e-17)
(-0.022526 0.0818637 2.05286e-18)
(-0.0198592 0.0822312 -1.83399e-17)
(-0.0171984 0.0825506 -2.4576e-17)
(-0.0145431 0.0828227 2.95129e-18)
(-0.0118925 0.0830483 6.83084e-18)
(-0.00924569 0.0832279 -6.74411e-19)
(-0.00660193 0.0833621 -4.51336e-18)
(-0.00396031 0.0834514 7.93242e-18)
(-0.00131996 0.0834959 -1.46414e-18)
(0.00131997 0.0834959 1.70691e-17)
(0.00396032 0.0834514 6.99778e-18)
(0.00660194 0.0833621 1.90601e-17)
(0.00924569 0.0832279 3.75313e-18)
(0.0118925 0.0830483 1.32263e-17)
(0.0145431 0.0828227 2.32492e-17)
(0.0171984 0.0825506 6.86425e-18)
(0.0198592 0.0822312 -8.33731e-18)
(0.022526 0.0818637 -9.56861e-18)
(-0.0678478 0.0712985 6.06424e-18)
(-0.0656284 0.0720446 -1.30626e-17)
(-0.0627626 0.0733588 2.76295e-18)
(-0.0598989 0.0745978 3.88418e-18)
(-0.0570391 0.0757633 3.33612e-17)
(-0.0541847 0.0768568 -1.26207e-17)
(-0.0513367 0.0778802 -1.14801e-17)
(-0.048496 0.0788354 -1.44248e-17)
(-0.0456628 0.0797242 -2.71025e-17)
(-0.0428376 0.0805494 -4.75639e-17)
(-0.0400209 0.081313 2.44664e-17)
(-0.037213 0.0820169 -8.80136e-18)
(-0.0344139 0.0826629 -1.06554e-17)
(-0.0316236 0.0832527 6.63641e-20)
(-0.0288417 0.0837878 -1.07724e-17)
(-0.026068 0.0842696 2.50143e-17)
(-0.0233019 0.0846994 2.34512e-18)
(-0.0205429 0.0850785 -1.75575e-17)
(-0.0177903 0.0854078 -2.48853e-17)
(-0.0150434 0.0856884 2.00489e-18)
(-0.0123014 0.085921 4.33306e-18)
(-0.00956355 0.0861062 -1.39714e-18)
(-0.00682886 0.0862446 -5.47903e-18)
(-0.00409642 0.0863365 9.1597e-18)
(-0.00136532 0.0863824 -6.46951e-19)
(0.00136533 0.0863824 1.71554e-17)
(0.00409642 0.0863365 7.08167e-18)
(0.00682886 0.0862446 1.92812e-17)
(0.00956355 0.0861062 2.11296e-18)
(0.0123014 0.085921 1.12975e-17)
(0.0150434 0.0856884 2.26395e-17)
(0.0177903 0.0854078 5.41609e-18)
(0.0205429 0.0850785 -1.02639e-17)
(0.0233019 0.0846994 -1.14462e-17)
(0.026068 0.0842696 2.26904e-17)
(0.0288417 0.0837878 1.64203e-20)
(0.0316236 0.0832527 -2.40206e-17)
(0.0344139 0.0826629 -1.63058e-17)
(0.037213 0.0820169 -1.01897e-17)
(0.0400209 0.081313 3.12412e-17)
(0.0428376 0.0805494 -1.8441e-17)
(-0.0702827 0.073817 4.49894e-18)
(-0.0679618 0.0746084 -1.51304e-17)
(-0.0649917 0.0759683 3.18377e-18)
(-0.0620241 0.0772502 1.95317e-18)
(-0.0590608 0.0784557 3.43129e-17)
(-0.0561034 0.0795866 -1.17971e-17)
(-0.0531529 0.0806448 -1.09692e-17)
(-0.0502101 0.0816322 -1.35303e-17)
(-0.0472753 0.0825508 -2.78574e-17)
(-0.044349 0.0834035 -5.02478e-17)
(-0.0414317 0.0841924 2.5488e-17)
(-0.0385238 0.0849195 -6.7787e-18)
(-0.0356252 0.0855867 -1.00514e-17)
(-0.0327359 0.0861957 -2.02798e-18)
(-0.0298555 0.0867482 -9.81929e-18)
(-0.0269838 0.0872455 2.65185e-17)
(-0.02412 0.0876892 3.47228e-18)
(-0.0212638 0.0880804 -1.61328e-17)
(-0.0184143 0.0884203 -2.5767e-17)
(-0.0155709 0.0887098 1.11617e-18)
(-0.0127326 0.0889498 3.1574e-18)
(-0.00989868 0.0891409 -5.36552e-19)
(-0.00706812 0.0892836 -6.26678e-18)
(-0.00423993 0.0893785 8.96867e-18)
(-0.00141315 0.0894259 -1.29344e-18)
(0.00141315 0.0894259 1.71194e-17)
(0.00423993 0.0893785 6.98006e-18)
(0.00706812 0.0892837 1.90108e-17)
(0.00989868 0.0891409 7.29633e-19)
(0.0127326 0.0889498 1.008e-17)
(0.0155709 0.0887098 2.19982e-17)
(0.0184143 0.0884203 4.07062e-18)
(0.0212638 0.0880804 -1.051e-17)
(0.02412 0.0876892 -1.18815e-17)
(0.0269838 0.0872455 2.28819e-17)
(0.0298556 0.0867482 4.6637e-19)
(0.0327359 0.0861957 -2.52542e-17)
(0.0356252 0.0855867 -1.66845e-17)
(0.0385238 0.0849195 -1.05415e-17)
(0.0414318 0.0841924 3.14333e-17)
(0.044349 0.0834035 -2.02444e-17)
(0.0472753 0.0825508 -8.15914e-17)
(0.0502101 0.0816322 -9.56372e-18)
(0.0531529 0.0806448 -1.35418e-17)
(-0.0728514 0.076474 3.21319e-18)
(-0.0704235 0.0773131 -1.6289e-17)
(-0.0673434 0.0787214 4.18893e-18)
(-0.0642663 0.0800487 1.55724e-18)
(-0.061194 0.0812967 3.85072e-17)
(-0.0581279 0.0824671 -9.51468e-18)
(-0.0550693 0.083562 -9.4656e-18)
(-0.0520188 0.0845834 -1.1333e-17)
(-0.0489769 0.0855336 -2.8411e-17)
(-0.0459439 0.0864153 -5.08217e-17)
(-0.0429206 0.0872309 2.87694e-17)
(-0.0399071 0.0879826 -2.73808e-18)
(-0.0369036 0.0886722 -7.81963e-18)
(-0.0339098 0.0893016 -4.10135e-18)
(-0.0309255 0.0898724 -8.97362e-18)
(-0.0279502 0.0903862 2.82085e-17)
(-0.0249834 0.0908445 4.173e-18)
(-0.0220246 0.0912485 -1.47214e-17)
(-0.0190729 0.0915996 -2.67351e-17)
(-0.0161275 0.0918985 5.86075e-19)
(-0.0131877 0.0921463 2.94289e-18)
(-0.0102524 0.0923436 1.06853e-18)
(-0.00732063 0.092491 -6.80227e-18)
(-0.00439138 0.092589 8.20605e-18)
(-0.00146363 0.0926379 -2.75053e-18)
(0.00146363 0.0926379 1.70908e-17)
(0.00439138 0.092589 7.08695e-18)
(0.00732063 0.092491 1.85129e-17)
(0.0102524 0.0923436 -6.07962e-19)
(0.0131877 0.0921463 9.50016e-18)
(0.0161275 0.0918985 2.1378e-17)
(0.0190729 0.0915996 3.06224e-18)
(0.0220246 0.0912485 -9.60779e-18)
(0.0249835 0.0908445 -1.13331e-17)
(0.0279502 0.0903862 2.3379e-17)
(0.0309255 0.0898724 1.55954e-18)
(0.0339098 0.0893016 -2.69291e-17)
(0.0369036 0.0886722 -1.826e-17)
(0.0399071 0.0879826 -1.02558e-17)
(0.0429206 0.0872309 3.20404e-17)
(0.0459439 0.0864153 -2.13157e-17)
(0.0489769 0.0855336 -8.45358e-17)
(0.0520188 0.0845834 -9.02798e-18)
(0.0550693 0.083562 -1.48422e-17)
(-0.0755634 0.0792793 2.13053e-18)
(-0.0730227 0.0801692 -1.76489e-17)
(-0.0698268 0.0816287 5.17792e-18)
(-0.0666342 0.0830041 1.52707e-18)
(-0.0634468 0.0842969 4.32426e-17)
(-0.0602661 0.0855092 -7.18273e-18)
(-0.0570933 0.086643 -7.91508e-18)
(-0.0539292 0.0877005 -9.80454e-18)
(-0.0507741 0.088684 -2.957e-17)
(-0.0476286 0.0895965 -5.18423e-17)
(-0.0444932 0.0904405 3.17519e-17)
(-0.0413683 0.0912182 6.95631e-19)
(-0.0382539 0.0919315 -5.85289e-18)
(-0.0351498 0.0925824 -5.91704e-18)
(-0.0320557 0.0931727 -8.39753e-18)
(-0.0289711 0.0937039 2.98764e-17)
(-0.0258955 0.0941777 4.5354e-18)
(-0.0228283 0.0945954 -1.35659e-17)
(-0.0197686 0.0949581 -2.69697e-17)
(-0.0167156 0.0952671 5.0804e-19)
(-0.0136684 0.0955232 2.72677e-18)
(-0.010626 0.0957271 2.23536e-18)
(-0.00758738 0.0958794 -7.21156e-18)
(-0.00455138 0.0959806 8.10555e-18)
(-0.00151695 0.0960311 -4.21989e-18)
(0.00151696 0.0960311 1.72813e-17)
(0.00455139 0.0959806 7.84118e-18)
(0.00758739 0.0958794 1.81412e-17)
(0.010626 0.0957271 -1.9532e-18)
(0.0136684 0.0955232 9.00553e-18)
(0.0167156 0.0952671 2.09948e-17)
(0.0197686 0.0949581 2.10449e-18)
(0.0228283 0.0945954 -8.49926e-18)
(0.0258955 0.0941777 -1.04148e-17)
(0.0289711 0.0937039 2.42354e-17)
(0.0320557 0.0931727 3.39049e-18)
(0.0351498 0.0925824 -2.81308e-17)
(0.0382539 0.0919315 -2.0089e-17)
(0.0413683 0.0912182 -9.95404e-18)
(0.0444932 0.0904405 3.26999e-17)
(0.0476286 0.0895965 -2.18704e-17)
(0.0507741 0.088684 -8.81385e-17)
(0.0539292 0.0877005 -8.74611e-18)
(0.0570932 0.086643 -1.60179e-17)
(-0.0784294 0.0822438 1.30314e-18)
(-0.0757696 0.0831875 -1.98721e-17)
(-0.0724514 0.0847014 5.80678e-18)
(-0.0691369 0.0861278 1.38186e-18)
(-0.065828 0.0874684 4.72629e-17)
(-0.0625262 0.088725 -5.32951e-18)
(-0.0592328 0.0899001 -6.62528e-18)
(-0.0559488 0.0909959 -8.37801e-18)
(-0.0526741 0.0920147 -3.0084e-17)
(-0.0494097 0.0929599 -5.2658e-17)
(-0.0461559 0.093834 3.494e-17)
(-0.0429133 0.0946392 3.23882e-18)
(-0.0396816 0.0953777 -4.10218e-18)
(-0.0364609 0.0960515 -7.22884e-18)
(-0.0332507 0.0966624 -7.95421e-18)
(-0.0300506 0.0972121 3.07719e-17)
(-0.02686 0.0977023 4.84217e-18)
(-0.0236782 0.0981344 -1.24994e-17)
(-0.0205043 0.0985097 -2.66901e-17)
(-0.0173375 0.0988293 9.53875e-19)
(-0.0141768 0.0990942 2.38389e-18)
(-0.0110212 0.0993051 3.30179e-18)
(-0.00786948 0.0994626 -7.97238e-18)
(-0.00472058 0.0995672 8.59682e-18)
(-0.00157334 0.0996195 -5.74862e-18)
(0.00157335 0.0996195 1.74537e-17)
(0.00472059 0.0995672 9.1709e-18)
(0.00786948 0.0994626 1.80892e-17)
(0.0110212 0.0993051 -3.29372e-18)
(0.0141768 0.0990942 8.49455e-18)
(0.0173375 0.0988293 2.05773e-17)
(0.0205043 0.0985097 1.01091e-18)
(0.0236782 0.0981344 -7.41592e-18)
(0.02686 0.0977023 -9.24439e-18)
(0.0300506 0.0972121 2.49377e-17)
(0.0332507 0.0966624 5.43267e-18)
(0.0364609 0.0960515 -2.84313e-17)
(0.0396816 0.0953777 -2.14355e-17)
(0.0429133 0.0946392 -9.13139e-18)
(0.0461559 0.093834 3.36902e-17)
(0.0494097 0.0929599 -2.22749e-17)
(0.0526741 0.0920147 -9.07173e-17)
(0.0559488 0.0909959 -8.57496e-18)
(0.0592328 0.0899001 -1.68747e-17)
(-0.0814606 0.0853792 3.7831e-19)
(-0.0786752 0.0863803 -2.26979e-17)
(-0.0752278 0.087952 6.53008e-18)
(-0.0717846 0.0894326 1.06378e-18)
(-0.0683473 0.0908237 5.09848e-17)
(-0.0649176 0.0921275 -3.26228e-18)
(-0.0614968 0.0933464 -6.13653e-18)
(-0.0580858 0.0944829 -6.81095e-18)
(-0.0546848 0.0955393 -3.01468e-17)
(-0.0512945 0.0965192 -5.3396e-17)
(-0.0479156 0.0974253 3.80085e-17)
(-0.0445483 0.0982599 5.08696e-18)
(-0.0411927 0.0990252 -2.42164e-18)
(-0.0378486 0.0997232 -8.49981e-18)
(-0.0345156 0.100356 -7.64498e-18)
(-0.0311933 0.100925 3.11724e-17)
(-0.0278809 0.101433 5.39627e-18)
(-0.0245778 0.101881 -1.1611e-17)
(-0.0212831 0.102269 -2.63078e-17)
(-0.0179958 0.1026 1.79361e-18)
(-0.0147149 0.102874 1.97817e-18)
(-0.0114394 0.103093 4.52766e-18)
(-0.00816809 0.103256 -8.67017e-18)
(-0.00489969 0.103364 9.04774e-18)
(-0.00163304 0.103418 -7.17466e-18)
(0.00163304 0.103418 1.77616e-17)
(0.0048997 0.103364 1.05244e-17)
(0.0081681 0.103256 1.83179e-17)
(0.0114394 0.103093 -4.07214e-18)
(0.0147149 0.102874 7.71062e-18)
(0.0179958 0.1026 2.00024e-17)
(0.0212831 0.102269 9.8018e-20)
(0.0245778 0.101881 -6.65013e-18)
(0.0278809 0.101433 -7.5284e-18)
(0.0311933 0.100925 2.5717e-17)
(0.0345156 0.100356 6.9605e-18)
(0.0378486 0.0997232 -2.84411e-17)
(0.0411927 0.0990251 -2.22459e-17)
(0.0445483 0.0982599 -8.00477e-18)
(0.0479156 0.0974253 3.50211e-17)
(0.0512945 0.0965192 -2.23285e-17)
(0.0546848 0.0955393 -9.20852e-17)
(0.0580858 0.0944829 -7.29383e-18)
(0.0614968 0.0933464 -1.82293e-17)
(0.0649176 0.0921275 3.95495e-17)
(-0.0846693 0.0886981 -5.76094e-19)
(-0.0817511 0.0897603 -2.48784e-17)
(-0.0781673 0.0913935 7.21479e-18)
(-0.074588 0.0929318 3.23424e-19)
(-0.0710151 0.0943768 5.47714e-17)
(-0.0674501 0.0957308 -1.31449e-18)
(-0.0638944 0.0969964 -6.36881e-18)
(-0.0603492 0.0981762 -6.06375e-18)
(-0.0568145 0.0992727 -3.04852e-17)
(-0.0532911 0.10029 -5.395e-17)
(-0.0497796 0.10123 4.06834e-17)
(-0.0462805 0.102096 6.74961e-18)
(-0.0427936 0.102889 -1.3306e-18)
(-0.0393188 0.103613 -1.00311e-17)
(-0.0358558 0.104269 -7.31513e-18)
(-0.0324039 0.10486 3.12415e-17)
(-0.0289626 0.105386 5.93488e-18)
(-0.025531 0.10585 -1.03623e-17)
(-0.0221082 0.106253 -2.55161e-17)
(-0.0186933 0.106596 2.9516e-18)
(-0.0152851 0.10688 1.56638e-18)
(-0.0118826 0.107106 5.67109e-18)
(-0.00848452 0.107275 -9.14652e-18)
(-0.00508949 0.107387 9.55769e-18)
(-0.00169629 0.107443 -8.44331e-18)
(0.00169629 0.107443 1.79527e-17)
(0.00508949 0.107387 1.15267e-17)
(0.00848452 0.107275 1.88666e-17)
(0.0118826 0.107106 -4.36211e-18)
(0.0152851 0.10688 6.44251e-18)
(0.0186933 0.106596 1.94225e-17)
(0.0221082 0.106253 -4.70012e-19)
(0.025531 0.10585 -5.66199e-18)
(0.0289626 0.105386 -5.90649e-18)
(0.0324039 0.10486 2.63127e-17)
(0.0358558 0.104269 8.54244e-18)
(0.0393188 0.103613 -2.82952e-17)
(0.0427936 0.102889 -2.27702e-17)
(0.0462805 0.102096 -7.58807e-18)
(0.0497796 0.10123 3.65275e-17)
(0.0532911 0.10029 -2.16901e-17)
(0.0568145 0.0992727 -9.28661e-17)
(0.0603492 0.0981762 -5.18806e-18)
(0.0638944 0.0969964 -2.0188e-17)
(0.0674501 0.0957308 3.86488e-17)
(-0.0880688 0.0922142 -1.46905e-18)
(-0.0850102 0.0933416 -2.58246e-17)
(-0.0812822 0.0950405 7.45955e-18)
(-0.077559 0.0966403 -1.13959e-18)
(-0.0738425 0.0981427 5.8628e-17)
(-0.0701344 0.0995503 -1.09652e-19)
(-0.0664361 0.100866 -6.54662e-18)
(-0.0627487 0.102092 -5.43785e-18)
(-0.0590724 0.103231 -3.08227e-17)
(-0.055408 0.104287 -5.41332e-17)
(-0.0517561 0.105264 4.24295e-17)
(-0.0481172 0.106163 7.78803e-18)
(-0.0444912 0.106987 -7.07263e-19)
(-0.040878 0.107739 -1.1333e-17)
(-0.0372771 0.10842 -7.29879e-18)
(-0.0336879 0.109033 3.13275e-17)
(-0.0301098 0.109579 6.63913e-18)
(-0.026542 0.11006 -9.10362e-18)
(-0.0229834 0.110478 -2.43932e-17)
(-0.0194331 0.110834 4.33275e-18)
(-0.01589 0.111128 8.21266e-19)
(-0.0123528 0.111363 6.90569e-18)
(-0.00882016 0.111538 -9.36344e-18)
(-0.00529081 0.111655 9.91105e-18)
(-0.00176339 0.111713 -9.56997e-18)
(0.00176339 0.111713 1.81133e-17)
(0.00529081 0.111655 1.20373e-17)
(0.00882017 0.111538 1.94082e-17)
(0.0123528 0.111363 -4.42602e-18)
(0.01589 0.111128 4.85612e-18)
(0.0194331 0.110834 1.89739e-17)
(0.0229834 0.110478 -3.84069e-19)
(0.026542 0.11006 -5.29738e-18)
(0.0301098 0.109579 -5.09237e-18)
(0.0336879 0.109033 2.6875e-17)
(0.0372771 0.10842 9.89421e-18)
(0.040878 0.107739 -2.77479e-17)
(0.0444912 0.106987 -2.25314e-17)
(0.0481172 0.106163 -7.70595e-18)
(0.0517561 0.105264 3.73511e-17)
(0.055408 0.104287 -2.09167e-17)
(0.0590724 0.103231 -9.2844e-17)
(0.0627487 0.102092 -3.46781e-18)
(0.0664361 0.100866 -2.21521e-17)
(0.0701344 0.0995503 3.81357e-17)
(-0.0916732 0.0959422 -2.68889e-18)
(-0.0884661 0.0971394 -2.61822e-17)
(-0.0845856 0.0989083 7.22598e-18)
(-0.0807103 0.100574 -3.13403e-18)
(-0.0768419 0.102138 6.1799e-17)
(-0.0729822 0.103602 2.79538e-19)
(-0.0691327 0.104971 -6.42446e-18)
(-0.0652948 0.106246 -4.40796e-18)
(-0.0614684 0.107431 -3.0592e-17)
(-0.0576545 0.10853 -5.41665e-17)
(-0.0538539 0.109545 4.45752e-17)
(-0.0500667 0.11048 8.85011e-18)
(-0.0462932 0.111337 3.78793e-19)
(-0.0425331 0.112118 -1.21253e-17)
(-0.0387858 0.112826 -7.96951e-18)
(-0.035051 0.113462 3.17254e-17)
(-0.0313278 0.11403 7.50931e-18)
(-0.0276154 0.11453 -7.89991e-18)
(-0.0239127 0.114964 -2.29586e-17)
(-0.0202187 0.115333 5.39519e-18)
(-0.0165322 0.115639 -3.36579e-19)
(-0.0128519 0.115883 8.02287e-18)
(-0.00917655 0.116065 -9.12372e-18)
(-0.00550458 0.116186 1.03687e-17)
(-0.00183463 0.116246 -1.06382e-17)
(0.00183463 0.116246 1.81538e-17)
(0.00550458 0.116186 1.2162e-17)
(0.00917655 0.116065 1.99191e-17)
(0.0128519 0.115883 -4.33912e-18)
(0.0165322 0.115639 3.2978e-18)
(0.0202187 0.115333 1.84878e-17)
(0.0239127 0.114964 -4.05866e-19)
(0.0276154 0.11453 -5.07323e-18)
(0.0313278 0.11403 -4.47686e-18)
(0.035051 0.113462 2.77239e-17)
(0.0387858 0.112826 1.09664e-17)
(0.0425331 0.112118 -2.64279e-17)
(0.0462932 0.111337 -2.22253e-17)
(0.0500668 0.11048 -8.15347e-18)
(0.0538539 0.109545 3.7667e-17)
(0.0576545 0.10853 -2.00758e-17)
(0.0614684 0.107431 -9.20423e-17)
(0.0652948 0.106246 -1.80823e-18)
(0.0691327 0.104971 -2.45978e-17)
(0.0729822 0.103602 3.72058e-17)
(-0.0954978 0.0998978 -4.4049e-18)
(-0.0921337 0.10117 -2.58049e-17)
(-0.0880919 0.103014 6.80269e-18)
(-0.0840555 0.10475 -5.91516e-18)
(-0.0800262 0.106379 6.3685e-17)
(-0.076006 0.107905 9.82687e-19)
(-0.0719964 0.109331 -6.44296e-18)
(-0.0679989 0.110659 -3.57924e-18)
(-0.0640133 0.111893 -2.96513e-17)
(-0.0600409 0.113036 -5.39716e-17)
(-0.0560823 0.114093 4.69671e-17)
(-0.0521379 0.115066 9.43928e-18)
(-0.0482078 0.115958 1.63465e-18)
(-0.0442916 0.116771 -1.25225e-17)
(-0.0403891 0.117507 -9.29918e-18)
(-0.0364995 0.11817 3.28003e-17)
(-0.0326221 0.11876 8.18543e-18)
(-0.0287561 0.11928 -7.21258e-18)
(-0.0249003 0.119732 -2.11873e-17)
(-0.0210536 0.120116 6.2954e-18)
(-0.0172148 0.120434 -1.40441e-18)
(-0.0133825 0.120688 9.07912e-18)
(-0.00955535 0.120877 -8.72753e-18)
(-0.00573178 0.121003 1.08482e-17)
(-0.00191036 0.121065 -1.17633e-17)
(0.00191036 0.121065 1.8139e-17)
(0.00573179 0.121003 1.20152e-17)
(0.00955535 0.120877 1.99822e-17)
(0.0133825 0.120688 -4.1261e-18)
(0.0172148 0.120434 2.23232e-18)
(0.0210536 0.120116 1.77331e-17)
(0.0249003 0.119732 -5.77881e-19)
(0.0287561 0.11928 -4.57498e-18)
(0.0326221 0.11876 -4.05595e-18)
(0.0364995 0.11817 2.85944e-17)
(0.0403891 0.117507 1.17148e-17)
(0.0442916 0.116771 -2.46283e-17)
(0.0482078 0.115958 -2.16897e-17)
(0.0521379 0.115066 -8.8517e-18)
(0.0560823 0.114093 3.79225e-17)
(0.0600409 0.113036 -1.89867e-17)
(0.0640133 0.111893 -9.04629e-17)
(0.0679989 0.110659 -4.48048e-19)
(0.0719964 0.109331 -2.72089e-17)
(-0.0995591 0.104098 -6.19973e-18)
(-0.0960288 0.10545 -2.40889e-17)
(-0.0918163 0.107375 6.76232e-18)
(-0.0876094 0.109186 -9.40053e-18)
(-0.0834097 0.110886 6.51846e-17)
(-0.0792193 0.112477 1.26109e-18)
(-0.07504 0.113964 -7.09691e-18)
(-0.0708731 0.115349 -3.06608e-18)
(-0.0667187 0.116635 -2.8687e-17)
(-0.062578 0.117828 -5.3364e-17)
(-0.0584518 0.11893 4.92459e-17)
(-0.0543404 0.119944 9.33541e-18)
(-0.0502438 0.120873 2.73374e-18)
(-0.046162 0.12172 -1.328e-17)
(-0.0420943 0.122487 -1.11125e-17)
(-0.0380403 0.123177 3.49859e-17)
(-0.033999 0.123792 8.44668e-18)
(-0.0299696 0.124333 -6.70131e-18)
(-0.0259509 0.124804 -1.9422e-17)
(-0.0219418 0.125204 6.98709e-18)
(-0.0179409 0.125535 -2.35318e-18)
(-0.013947 0.125799 1.00948e-17)
(-0.00995836 0.125996 -8.38978e-18)
(-0.00597352 0.126127 1.1446e-17)
(-0.00199092 0.126192 -1.29548e-17)
(0.00199093 0.126192 1.80156e-17)
(0.00597353 0.126127 1.16305e-17)
(0.00995836 0.125996 1.96072e-17)
(0.013947 0.125799 -3.47739e-18)
(0.0179409 0.125535 1.57078e-18)
(0.0219418 0.125204 1.67405e-17)
(0.0259509 0.124804 -1.17395e-18)
(0.0299696 0.124333 -4.20866e-18)
(0.033999 0.123792 -3.51221e-18)
(0.0380403 0.123177 2.902e-17)
(0.0420943 0.122487 1.22638e-17)
(0.046162 0.12172 -2.3198e-17)
(0.0502438 0.120873 -2.04865e-17)
(0.0543404 0.119944 -9.59284e-18)
(0.0584518 0.11893 3.81144e-17)
(0.062578 0.117828 -1.74123e-17)
(0.0667187 0.116635 -8.86345e-17)
(0.0708731 0.115349 8.07914e-19)
(0.07504 0.113964 -2.98873e-17)
(-0.103875 0.108561 -7.44755e-18)
(-0.100168 0.11 -2.27302e-17)
(-0.0957753 0.11201 6.94079e-18)
(-0.0913878 0.113903 -1.30086e-17)
(-0.0870076 0.115678 6.6023e-17)
(-0.0826368 0.11734 1.15991e-18)
(-0.0782773 0.118893 -7.55979e-18)
(-0.0739308 0.120339 -3.1868e-18)
(-0.0695972 0.121682 -2.65029e-17)
(-0.0652777 0.122926 -5.21575e-17)
(-0.0609733 0.124076 5.1311e-17)
(-0.0566844 0.125135 9.08417e-18)
(-0.052411 0.126104 4.32815e-18)
(-0.0481529 0.126988 -1.41131e-17)
(-0.0439097 0.127788 -1.25211e-17)
(-0.0396806 0.128508 3.77962e-17)
(-0.0354649 0.129149 7.93377e-18)
(-0.0312617 0.129714 -5.80022e-18)
(-0.0270696 0.130205 -1.76855e-17)
(-0.0228876 0.130622 7.81445e-18)
(-0.0187142 0.130967 -2.90236e-18)
(-0.0145481 0.131243 1.07374e-17)
(-0.0103876 0.131448 -7.97309e-18)
(-0.00623097 0.131585 1.22688e-17)
(-0.00207673 0.131653 -1.40578e-17)
(0.00207673 0.131653 1.77861e-17)
(0.00623097 0.131585 1.09482e-17)
(0.0103876 0.131448 1.88349e-17)
(0.0145481 0.131243 -2.48294e-18)
(0.0187142 0.130967 1.23504e-18)
(0.0228876 0.130622 1.52304e-17)
(0.0270696 0.130205 -2.15206e-18)
(0.0312617 0.129714 -3.51517e-18)
(0.0354649 0.129149 -2.76102e-18)
(0.0396806 0.128508 2.97926e-17)
(0.0439097 0.127788 1.28983e-17)
(0.0481529 0.126988 -2.29062e-17)
(0.052411 0.126104 -1.92726e-17)
(0.0566844 0.125135 -9.86703e-18)
(0.0609733 0.124076 3.78401e-17)
(0.0652777 0.122926 -1.53375e-17)
(0.0695972 0.121682 -8.67896e-17)
(0.0739308 0.120339 2.33518e-18)
(0.0782773 0.118893 -3.24887e-17)
(-0.108463 0.113306 -7.58225e-18)
(-0.104571 0.114838 -2.27655e-17)
(-0.0999865 0.116942 5.88015e-18)
(-0.0954077 0.118921 -1.60915e-17)
(-0.0908361 0.120778 6.66979e-17)
(-0.0862739 0.122516 1.74434e-18)
(-0.0817234 0.124139 -7.2734e-18)
(-0.0771861 0.125651 -4.10522e-18)
(-0.0726621 0.127055 -2.27628e-17)
(-0.0681527 0.128356 -5.05193e-17)
(-0.063659 0.129558 5.31723e-17)
(-0.0591813 0.130664 9.16293e-18)
(-0.0547198 0.131677 6.43548e-18)
(-0.0502741 0.132601 -1.52601e-17)
(-0.045844 0.133437 -1.40234e-17)
(-0.0414286 0.134189 4.03814e-17)
(-0.0370272 0.134859 7.08242e-18)
(-0.0326387 0.135449 -4.53103e-18)
(-0.028262 0.135961 -1.58959e-17)
(-0.0238957 0.136397 8.6932e-18)
(-0.0195385 0.136758 -2.95022e-18)
(-0.0151889 0.137045 1.13075e-17)
(-0.0108451 0.13726 -7.44582e-18)
(-0.0065054 0.137402 1.31585e-17)
(-0.00216819 0.137473 -1.50372e-17)
(0.0021682 0.137473 1.75404e-17)
(0.00650541 0.137402 9.82183e-18)
(0.0108451 0.13726 1.77768e-17)
(0.0151889 0.137045 -1.41386e-18)
(0.0195385 0.136758 1.19464e-18)
(0.0238957 0.136397 1.35702e-17)
(0.028262 0.135961 -2.99984e-18)
(0.0326387 0.135449 -2.14865e-18)
(0.0370272 0.134859 -1.78465e-18)
(0.0414286 0.134189 3.11795e-17)
(0.045844 0.133437 1.30076e-17)
(0.0502741 0.132601 -2.31547e-17)
(0.0547198 0.131677 -1.73819e-17)
(0.0591813 0.130664 -1.04759e-17)
(0.063659 0.129558 3.69217e-17)
(0.0681527 0.128356 -1.27355e-17)
(0.0726621 0.127055 -8.44643e-17)
(0.0771861 0.125651 3.43389e-18)
(0.0817234 0.124139 -3.53505e-17)
(-0.113345 0.118353 -6.93521e-18)
(-0.109255 0.119986 -2.39571e-17)
(-0.104468 0.12219 4.26317e-18)
(-0.099687 0.124263 -1.89864e-17)
(-0.0949126 0.126208 6.72104e-17)
(-0.0901475 0.128028 2.00869e-18)
(-0.0853941 0.129728 -7.11106e-18)
(-0.0806543 0.131311 -5.22869e-18)
(-0.075928 0.13278 -1.88549e-17)
(-0.0712168 0.134143 -4.86252e-17)
(-0.0665216 0.135401 5.44258e-17)
(-0.0618431 0.136559 9.09066e-18)
(-0.0571813 0.137619 8.84353e-18)
(-0.052536 0.138586 -1.70279e-17)
(-0.0479067 0.139461 -1.61422e-17)
(-0.0432928 0.140248 4.25755e-17)
(-0.0386935 0.140949 6.43009e-18)
(-0.0341076 0.141566 -3.26198e-18)
(-0.029534 0.142102 -1.39807e-17)
(-0.0249712 0.142558 9.74508e-18)
(-0.0204179 0.142935 -2.77938e-18)
(-0.0158725 0.143236 1.19374e-17)
(-0.0113332 0.14346 -6.97894e-18)
(-0.0067982 0.14361 1.41706e-17)
(-0.00226578 0.143684 -1.57405e-17)
(0.00226578 0.143684 1.72818e-17)
(0.00679821 0.14361 8.27227e-18)
(0.0113332 0.14346 1.67781e-17)
(0.0158725 0.143236 -3.99584e-19)
(0.0204179 0.142935 1.14842e-18)
(0.0249712 0.142558 1.17626e-17)
(0.029534 0.142102 -3.92006e-18)
(0.0341076 0.141566 -7.10612e-19)
(0.0386935 0.140949 -5.85502e-19)
(0.0432928 0.140248 3.20267e-17)
(0.0479067 0.139461 1.28945e-17)
(0.052536 0.138586 -2.36452e-17)
(0.0571813 0.137619 -1.50897e-17)
(0.0618431 0.136559 -1.15014e-17)
(0.0665216 0.135401 3.57279e-17)
(0.0712168 0.134143 -9.19381e-18)
(0.075928 0.13278 -8.12964e-17)
(0.0806543 0.131311 4.46772e-18)
(0.0853941 0.129727 -3.82455e-17)
(-0.11854 0.123724 -6.12884e-18)
(-0.114241 0.125466 -2.5168e-17)
(-0.109241 0.127778 2.38612e-18)
(-0.104245 0.129953 -2.10504e-17)
(-0.0992555 0.131993 6.77898e-17)
(-0.0942751 0.133901 1.55296e-18)
(-0.0893064 0.135684 -6.59207e-18)
(-0.0843515 0.137344 -5.37771e-18)
(-0.0794102 0.138885 -1.53904e-17)
(-0.0744843 0.140314 -4.68517e-17)
(-0.069575 0.141633 5.61797e-17)
(-0.0646827 0.142847 8.64603e-18)
(-0.0598076 0.143959 1.11375e-17)
(-0.0549495 0.144972 -1.83241e-17)
(-0.050108 0.14589 -1.79089e-17)
(-0.0452825 0.146715 4.42943e-17)
(-0.0404721 0.147449 6.66978e-18)
(-0.0356756 0.148096 -1.21579e-18)
(-0.0308919 0.148658 -1.26394e-17)
(-0.0261194 0.149136 1.0377e-17)
(-0.0213568 0.149531 -2.50182e-18)
(-0.0166024 0.149846 1.29335e-17)
(-0.0118544 0.150082 -6.47876e-18)
(-0.00711086 0.150238 1.49027e-17)
(-0.00236998 0.150316 -1.63585e-17)
(0.00236999 0.150316 1.71876e-17)
(0.00711086 0.150238 6.4285e-18)
(0.0118544 0.150082 1.55466e-17)
(0.0166024 0.149846 3.93751e-19)
(0.0213568 0.149531 8.04818e-19)
(0.0261194 0.149136 9.76937e-18)
(0.0308919 0.148658 -4.95361e-18)
(0.0356756 0.148096 8.64153e-19)
(0.0404721 0.147449 1.65828e-18)
(0.0452825 0.146715 3.27559e-17)
(0.050108 0.14589 1.26659e-17)
(0.0549495 0.144972 -2.46653e-17)
(0.0598076 0.143959 -1.31333e-17)
(0.0646827 0.142847 -1.27939e-17)
(0.069575 0.141633 3.49624e-17)
(0.0744843 0.140314 -5.34208e-18)
(0.0794102 0.138885 -7.8649e-17)
(0.0843515 0.137344 5.5562e-18)
(0.0893064 0.135684 -4.09831e-17)
(-0.12407 0.129441 -5.14601e-18)
(-0.119551 0.131302 -2.68058e-17)
(-0.114324 0.133731 5.73968e-19)
(-0.109101 0.136016 -2.24176e-17)
(-0.103884 0.138158 6.81899e-17)
(-0.0986756 0.140163 -3.18169e-19)
(-0.0934784 0.142036 -6.34654e-18)
(-0.088295 0.14378 -3.86932e-18)
(-0.0831252 0.145399 -1.19602e-17)
(-0.077971 0.146899 -4.4785e-17)
(-0.0728336 0.148285 5.83137e-17)
(-0.0677137 0.14956 8.54024e-18)
(-0.0626114 0.150728 1.26147e-17)
(-0.0575266 0.151792 -1.92998e-17)
(-0.0524589 0.152755 -1.8574e-17)
(-0.0474076 0.153622 4.56539e-17)
(-0.0423719 0.154393 7.22063e-18)
(-0.0373507 0.155072 1.58923e-18)
(-0.0323426 0.155662 -1.15522e-17)
(-0.0273462 0.156164 1.05731e-17)
(-0.0223601 0.156579 -2.24186e-18)
(-0.0173824 0.15691 1.42205e-17)
(-0.0124114 0.157157 -5.97695e-18)
(-0.00744496 0.157321 1.53429e-17)
(-0.00248134 0.157403 -1.7001e-17)
(0.00248134 0.157403 1.72094e-17)
(0.00744497 0.157321 4.43543e-18)
(0.0124114 0.157157 1.41848e-17)
(0.0173824 0.15691 1.12246e-18)
(0.0223601 0.156579 5.79573e-19)
(0.0273462 0.156164 7.9662e-18)
(0.0323426 0.155662 -5.94764e-18)
(0.0373507 0.155072 2.62657e-18)
(0.0423719 0.154393 3.4008e-18)
(0.0474076 0.153622 3.36272e-17)
(0.0524589 0.152755 1.32804e-17)
(0.0575266 0.151792 -2.54515e-17)
(0.0626114 0.150728 -1.16177e-17)
(0.0677137 0.14956 -1.42956e-17)
(0.0728336 0.148285 3.43909e-17)
(0.077971 0.146899 -1.39561e-18)
(0.0831252 0.145399 -7.61622e-17)
(0.088295 0.14378 7.5868e-18)
(0.0934784 0.142036 -4.32953e-17)
(-0.129959 0.135528 -4.289e-18)
(-0.125207 0.137518 -2.85703e-17)
(-0.119741 0.140074 -1.0119e-18)
(-0.114277 0.142478 -2.33449e-17)
(-0.108819 0.144732 6.8538e-17)
(-0.103368 0.146842 -3.0141e-18)
(-0.0979287 0.148812 -6.49378e-18)
(-0.0925027 0.150647 -2.75028e-18)
(-0.0870901 0.15235 -9.67855e-18)
(-0.081693 0.153929 -4.28606e-17)
(-0.076313 0.155387 6.08787e-17)
(-0.0709507 0.156729 8.22304e-18)
(-0.0656063 0.157958 1.36159e-17)
(-0.0602798 0.159078 -1.9337e-17)
(-0.0549708 0.160091 -2.01437e-17)
(-0.0496786 0.161003 4.63743e-17)
(-0.0444025 0.161815 8.09047e-18)
(-0.0391412 0.162529 4.6634e-18)
(-0.0338934 0.16315 -1.02719e-17)
(-0.0286578 0.163678 1.05824e-17)
(-0.0234327 0.164115 -1.90784e-18)
(-0.0182164 0.164463 1.52829e-17)
(-0.0130069 0.164723 -5.58322e-18)
(-0.00780222 0.164895 1.57788e-17)
(-0.00260041 0.164981 -1.75262e-17)
(0.00260042 0.164981 1.70757e-17)
(0.00780222 0.164895 2.54609e-18)
(0.0130069 0.164723 1.30755e-17)
(0.0182164 0.164463 1.81582e-18)
(0.0234327 0.164115 7.65848e-19)
(0.0286578 0.163678 6.13249e-18)
(0.0338934 0.16315 -6.94681e-18)
(0.0391412 0.162529 4.19418e-18)
(0.0444025 0.161815 5.22277e-18)
(0.0496786 0.161003 3.37207e-17)
(0.0549708 0.160091 1.3136e-17)
(0.0602798 0.159078 -2.46504e-17)
(0.0656063 0.157958 -1.03992e-17)
(0.0709507 0.156729 -1.51472e-17)
(0.076313 0.155387 3.4894e-17)
(0.081693 0.153929 1.84469e-18)
(0.0870901 0.15235 -7.3419e-17)
(0.0925027 0.150647 1.03719e-17)
(0.0979287 0.148812 -4.54318e-17)
(-0.136229 0.142009 -3.27421e-18)
(-0.13123 0.144139 -3.07072e-17)
(-0.125512 0.146832 -1.87079e-18)
(-0.119794 0.149365 -2.28848e-17)
(-0.114081 0.151741 6.94025e-17)
(-0.108374 0.153965 -5.60112e-18)
(-0.102677 0.156041 -7.43198e-18)
(-0.0969934 0.157975 -1.24582e-18)
(-0.0913228 0.159771 -7.48556e-18)
(-0.0856676 0.161436 -4.10527e-17)
(-0.0800294 0.162974 6.37645e-17)
(-0.0744089 0.164388 7.89071e-18)
(-0.0688065 0.165684 1.46467e-17)
(-0.0632223 0.166864 -1.83728e-17)
(-0.0576558 0.167933 -2.18982e-17)
(-0.0521066 0.168894 4.64601e-17)
(-0.0465736 0.16975 9.31244e-18)
(-0.0410559 0.170504 7.55728e-18)
(-0.0355521 0.171158 -8.91542e-18)
(-0.0300607 0.171715 1.08622e-17)
(-0.0245801 0.172176 -1.69454e-18)
(-0.0191085 0.172543 1.62944e-17)
(-0.013644 0.172817 -5.26234e-18)
(-0.00818443 0.172999 1.60921e-17)
(-0.00272781 0.17309 -1.8008e-17)
(0.00272781 0.17309 1.67078e-17)
(0.00818444 0.172999 7.10217e-19)
(0.013644 0.172817 1.20783e-17)
(0.0191085 0.172543 2.33666e-18)
(0.0245801 0.172176 1.21184e-18)
(0.0300607 0.171715 4.61452e-18)
(0.0355521 0.171158 -8.35394e-18)
(0.0410559 0.170504 5.3442e-18)
(0.0465736 0.16975 8.19134e-18)
(0.0521066 0.168894 3.31205e-17)
(0.0576558 0.167933 1.1768e-17)
(0.0632223 0.166864 -2.33445e-17)
(0.0688065 0.165684 -8.53573e-18)
(0.0744089 0.164388 -1.55705e-17)
(0.0800294 0.162974 3.58642e-17)
(0.0856676 0.161436 4.57142e-18)
(0.0913228 0.159771 -7.1652e-17)
(0.0969934 0.157975 1.26698e-17)
(0.102677 0.156041 -4.82516e-17)
(-0.142903 0.148906 -1.00644e-18)
(-0.137645 0.15119 -3.29572e-17)
(-0.13166 0.154033 -2.61458e-18)
(-0.125674 0.156706 -2.27004e-17)
(-0.119691 0.159214 6.99561e-17)
(-0.113713 0.161562 -7.68555e-18)
(-0.107743 0.163755 -9.02348e-18)
(-0.101786 0.165798 4.75899e-19)
(-0.0958419 0.167695 -4.52983e-18)
(-0.0899123 0.169453 -3.88782e-17)
(-0.0839994 0.171078 6.61542e-17)
(-0.0781041 0.172572 8.07662e-18)
(-0.0722269 0.173941 1.60081e-17)
(-0.0663679 0.175189 -1.71349e-17)
(-0.0605268 0.176318 -2.2845e-17)
(-0.054703 0.177334 4.66951e-17)
(-0.0488959 0.178239 1.04359e-17)
(-0.0431042 0.179035 9.20769e-18)
(-0.0373266 0.179726 -7.78961e-18)
(-0.0315617 0.180315 1.13298e-17)
(-0.0258079 0.180802 -1.32698e-18)
(-0.0200632 0.18119 1.75818e-17)
(-0.0143258 0.181479 -4.95309e-18)
(-0.00859349 0.181672 1.63545e-17)
(-0.00286415 0.181768 -1.83406e-17)