/*--------------------------------*- C++ -*----------------------------------*\
  =========                 |
  \\      /  F ield         | OpenFOAM: The Open Source CFD Toolbox
   \\    /   O peration     | Website:  https://openfoam.org
    \\  /    A nd           | Version:  7
     \\/     M anipulation  |
\*---------------------------------------------------------------------------*/
FoamFile
{
    version     2.0;
    format      ascii;
    class       volScalarField;
    location    "24000";
    object      omega;
}
// * * * * * * * * * * * * * * * * * * * * * * * * * * * * * * * * * * * * * //

dimensions      [0 0 -1 0 0 0 0];

internalField   nonuniform List<scalar> 
1762
(
0.0210102
0.0210882
0.0211844
0.0213
0.0214365
0.0215951
0.0217773
0.0219846
0.0222181
0.0224784
0.0227676
0.0213576
0.021448
0.0215586
0.0216906
0.021845
0.0220228
0.0222249
0.0224519
0.0227034
0.0229774
0.0232722
0.0217623
0.0218646
0.0219892
0.0221368
0.0223083
0.0225041
0.0227247
0.02297
0.0232394
0.0235317
0.0238509
0.0222214
0.0223348
0.0224724
0.0226345
0.0228217
0.0230343
0.0232724
0.0235359
0.0238245
0.0241385
0.0244828
0.0227324
0.0228563
0.0230059
0.0231817
0.0233838
0.0236124
0.0238676
0.0241494
0.0244579
0.0247938
0.0251613
0.023293
0.0234267
0.0235877
0.0237763
0.0239927
0.0242368
0.0245088
0.0248088
0.0251368
0.0254935
0.0258825
0.0239008
0.0240437
0.0242156
0.0244165
0.0246465
0.0249057
0.0251939
0.0255114
0.0258582
0.0262345
0.0266434
0.0245534
0.0247051
0.0248872
0.0250999
0.025343
0.0256166
0.0259205
0.0262548
0.0266193
0.0270141
0.0274418
0.0252486
0.0254086
0.0256006
0.0258245
0.0260802
0.0263676
0.0266865
0.0270367
0.0274181
0.0278304
0.0282759
0.0259842
0.0261522
0.0263535
0.0265882
0.0268559
0.0271565
0.0274897
0.0278553
0.0282527
0.0286816
0.0291441
0.0267584
0.026934
0.0271443
0.0273893
0.0276685
0.0279818
0.0283287
0.0287088
0.0291217
0.0295665
0.0300452
0.0275695
0.0277523
0.0279713
0.0282261
0.0285165
0.0288419
0.029202
0.0295962
0.0300238
0.030484
0.0309785
0.028416
0.0286059
0.0288332
0.0290975
0.0293986
0.0297358
0.0301086
0.0305163
0.0309582
0.0314333
0.0319432
0.0292968
0.0294935
0.0297288
0.0300024
0.0303138
0.0306623
0.0310475
0.0314684
0.0319242
0.0324139
0.0329388
0.0304142
0.0306573
0.0309399
0.0312613
0.031621
0.0320182
0.032452
0.0329214
0.0334254
0.0339651
0.031618
0.0319094
0.0322407
0.0326112
0.0330202
0.0334667
0.0339496
0.0344677
0.035022
0.0326106
0.0329105
0.0332515
0.0336328
0.0340534
0.0345124
0.0350087
0.0355409
0.0361098
0.0336346
0.0339431
0.0342937
0.0346856
0.0351178
0.0355893
0.0360988
0.036645
0.0372286
0.0346902
0.0350071
0.0353673
0.0357697
0.0362135
0.0366974
0.0372202
0.0377805
0.0383788
0.0357774
0.0361028
0.0364724
0.0368854
0.0373408
0.0378372
0.0383734
0.0389479
0.0395612
0.0368965
0.0372303
0.0376096
0.0380332
0.0385002
0.0390093
0.039559
0.0401479
0.0407763
0.0383904
0.0387793
0.0392137
0.0396924
0.0402143
0.0407778
0.0413813
0.0420251
0.0395835
0.0399821
0.0404274
0.0409182
0.041453
0.0420305
0.042649
0.0433086
0.0337294
0.0347907
0.0358839
0.0370094
0.0381676
0.0393592
0.0405851
0.0418461
0.0431434
0.0444782
0.0458518
0.0249607
0.0256816
0.0264418
0.0272395
0.0280731
0.0289415
0.0298435
0.0307784
0.0317456
0.0327447
0.0337755
0.0348381
0.0359325
0.0370592
0.0382187
0.0394116
0.0406388
0.0419011
0.0431997
0.0445359
0.045911
0.0220644
0.0225603
0.0231068
0.0237013
0.0243414
0.0250246
0.0257489
0.0265122
0.0273129
0.0281494
0.0290206
0.0299253
0.0308628
0.0318326
0.0328342
0.0338676
0.0349326
0.0360296
0.0371588
0.0383208
0.0395163
0.040746
0.042011
0.0433123
0.0446512
0.0460291
0.0221314
0.0226339
0.0231865
0.0237867
0.0244322
0.0251206
0.0258498
0.0266178
0.0274229
0.0282638
0.0291391
0.0300478
0.0309893
0.0319629
0.0329684
0.0340054
0.0350742
0.0361749
0.0373079
0.0384737
0.0396729
0.0409066
0.0421755
0.0434809
0.0448239
0.0462061
0.0210102
0.0213576
0.0217623
0.0222214
0.0227324
0.023293
0.0239008
0.0245534
0.0252486
0.0259842
0.0267584
0.0275695
0.028416
0.0292968
0.0302109
0.0311576
0.0321363
0.0331467
0.0341888
0.0352625
0.0363682
0.0375061
0.0386769
0.0398813
0.04112
0.0423942
0.043705
0.0450536
0.0464414
0.0210882
0.021448
0.0218646
0.0223348
0.0228563
0.0234267
0.0240437
0.0247051
0.0254086
0.0261522
0.026934
0.0277524
0.0286059
0.0294935
0.0304142
0.0313673
0.0323523
0.033369
0.0344172
0.0354971
0.0366089
0.037753
0.0389301
0.0401407
0.0413859
0.0426667
0.0439842
0.0453396
0.0467346
0.0211844
0.0215587
0.0219892
0.0224724
0.0230059
0.0235877
0.0242156
0.0248873
0.0256006
0.0263536
0.0271443
0.0279713
0.0288332
0.0297288
0.0306573
0.0316181
0.0326106
0.0336347
0.0346902
0.0357774
0.0368965
0.038048
0.0392325
0.0404507
0.0417036
0.0429922
0.0443177
0.0456815
0.0470849
0.0213
0.0216906
0.0221368
0.0226345
0.0231817
0.0237764
0.0244165
0.0250999
0.0258245
0.0265882
0.0273893
0.0282262
0.0290976
0.0300024
0.0309399
0.0319094
0.0329105
0.0339431
0.0350072
0.0361028
0.0372304
0.0383904
0.0395835
0.0408105
0.0420723
0.0433701
0.0447049
0.0460782
0.0474915
0.0214365
0.021845
0.0223083
0.0228217
0.0233838
0.0239927
0.0246465
0.0253431
0.0260802
0.0268559
0.0276685
0.0285165
0.0293986
0.0303138
0.0312613
0.0322407
0.0332515
0.0342937
0.0353673
0.0364725
0.0376096
0.0387793
0.0399822
0.0412191
0.0424911
0.0437992
0.0451446
0.0465289
0.0479534
0.0215951
0.0220228
0.0225041
0.0230344
0.0236124
0.0242369
0.0249057
0.0256166
0.0263676
0.0271565
0.0279818
0.028842
0.0297358
0.0306624
0.031621
0.0326112
0.0336328
0.0346856
0.0357697
0.0368855
0.0380333
0.0392137
0.0404275
0.0416755
0.0429588
0.0442784
0.0456358
0.0470323
0.0484694
0.0217774
0.022225
0.0227247
0.0232725
0.0238676
0.0245089
0.0251939
0.0259206
0.0266865
0.0274898
0.0283287
0.029202
0.0301086
0.0310475
0.0320182
0.0330202
0.0340534
0.0351178
0.0362135
0.0373408
0.0385003
0.0396925
0.0409182
0.0421784
0.0434742
0.0448066
0.0461771
0.047587
0.0490381
0.0219846
0.0224519
0.02297
0.0235359
0.0241494
0.0248088
0.0255114
0.0262548
0.0270367
0.0278553
0.0287089
0.0295962
0.0305163
0.0314684
0.032452
0.0334667
0.0345125
0.0355893
0.0366974
0.0378372
0.0390093
0.0402143
0.041453
0.0427265
0.0440358
0.0453822
0.046767
0.0481917
0.049658
0.0222181
0.0227034
0.0232394
0.0238245
0.024458
0.0251369
0.0258582
0.0266194
0.0274181
0.0282527
0.0291217
0.0300238
0.0309582
0.0319242
0.0329215
0.0339496
0.0350087
0.0360988
0.0372202
0.0383735
0.0395591
0.0407778
0.0420305
0.0433183
0.0446422
0.0460036
0.0474039
0.0488446
0.0503274
0.0224785
0.0229774
0.0235317
0.0241385
0.0247938
0.0254935
0.0262345
0.0270141
0.0278304
0.0286816
0.0295665
0.030484
0.0314333
0.0324139
0.0334255
0.0344678
0.0355409
0.036645
0.0377805
0.038948
0.040148
0.0413813
0.042649
0.043952
0.0452916
0.0466692
0.048086
0.0495439
0.0510444
0.0227677
0.0232722
0.023851
0.0244829
0.0251614
0.0258825
0.0266435
0.0274419
0.0282759
0.0291441
0.0300453
0.0309785
0.0319432
0.0329388
0.0339651
0.0350221
0.0361098
0.0372286
0.0383789
0.0395612
0.0407764
0.0420252
0.0433086
0.0446278
0.0459841
0.0473788
0.0488133
0.0502895
0.0518089
0.0227677
0.0232722
0.023851
0.0244829
0.0251614
0.0258825
0.0266435
0.0274419
0.0282759
0.0291441
0.0300453
0.0309785
0.0319432
0.0329388
0.0339651
0.0350221
0.0361098
0.0372286
0.0383789
0.0395612
0.0407764
0.0420252
0.0433086
0.0446278
0.0459841
0.0473788
0.0488133
0.0502895
0.0518089
0.0224785
0.0229774
0.0235317
0.0241385
0.0247938
0.0254935
0.0262345
0.0270141
0.0278304
0.0286816
0.0295665
0.030484
0.0314333
0.0324139
0.0334255
0.0344678
0.0355409
0.036645
0.0377806
0.038948
0.040148
0.0413813
0.042649
0.043952
0.0452916
0.0466692
0.0480861
0.0495439
0.0510444
0.0222181
0.0227034
0.0232394
0.0238245
0.024458
0.0251369
0.0258582
0.0266194
0.0274182
0.0282527
0.0291217
0.0300238
0.0309582
0.0319243
0.0329215
0.0339496
0.0350087
0.0360988
0.0372203
0.0383735
0.0395591
0.0407778
0.0420305
0.0433183
0.0446422
0.0460036
0.0474039
0.0488446
0.0503274
0.0219846
0.0224519
0.02297
0.0235359
0.0241494
0.0248088
0.0255114
0.0262548
0.0270368
0.0278553
0.0287089
0.0295962
0.0305163
0.0314684
0.032452
0.0334667
0.0345125
0.0355893
0.0366974
0.0378372
0.0390093
0.0402143
0.0414531
0.0427265
0.0440358
0.0453822
0.046767
0.0481917
0.049658
0.0217774
0.022225
0.0227247
0.0232725
0.0238676
0.0245089
0.025194
0.0259206
0.0266865
0.0274898
0.0283287
0.029202
0.0301086
0.0310475
0.0320182
0.0330202
0.0340534
0.0351178
0.0362135
0.0373408
0.0385002
0.0396925
0.0409182
0.0421784
0.0434742
0.0448066
0.0461771
0.0475871
0.0490381
0.0215951
0.0220228
0.0225041
0.0230344
0.0236124
0.0242369
0.0249057
0.0256166
0.0263676
0.0271565
0.0279818
0.028842
0.0297358
0.0306624
0.031621
0.0326113
0.0336328
0.0346856
0.0357697
0.0368855
0.0380333
0.0392137
0.0404275
0.0416755
0.0429588
0.0442784
0.0456358
0.0470323
0.0484694
0.0214365
0.021845
0.0223083
0.0228218
0.0233838
0.0239927
0.0246465
0.0253431
0.0260802
0.0268559
0.0276685
0.0285165
0.0293986
0.0303138
0.0312613
0.0322407
0.0332515
0.0342937
0.0353673
0.0364725
0.0376096
0.0387793
0.0399822
0.0412191
0.0424911
0.0437992
0.0451446
0.0465289
0.0479534
0.0213
0.0216906
0.0221369
0.0226345
0.0231817
0.0237764
0.0244165
0.0250999
0.0258245
0.0265882
0.0273893
0.0282262
0.0290976
0.0300024
0.0309399
0.0319094
0.0329105
0.0339431
0.0350072
0.0361028
0.0372304
0.0383904
0.0395835
0.0408105
0.0420723
0.0433701
0.0447049
0.0460782
0.0474915
0.0211844
0.0215587
0.0219892
0.0224724
0.0230059
0.0235877
0.0242156
0.0248873
0.0256006
0.0263536
0.0271443
0.0279713
0.0288332
0.0297288
0.0306573
0.0316181
0.0326106
0.0336347
0.0346902
0.0357774
0.0368965
0.038048
0.0392325
0.0404507
0.0417036
0.0429922
0.0443177
0.0456815
0.0470849
0.0210882
0.021448
0.0218646
0.0223349
0.0228563
0.0234267
0.0240437
0.0247051
0.0254086
0.0261522
0.026934
0.0277524
0.0286059
0.0294935
0.0304142
0.0313673
0.0323523
0.033369
0.0344172
0.0354971
0.0366089
0.037753
0.0389301
0.0401407
0.0413859
0.0426667
0.0439842
0.0453396
0.0467346
0.0210102
0.0213576
0.0217623
0.0222214
0.0227324
0.023293
0.0239008
0.0245534
0.0252486
0.0259842
0.0267584
0.0275695
0.028416
0.0292968
0.0302109
0.0311576
0.0321363
0.0331467
0.0341888
0.0352625
0.0363682
0.0375061
0.0386769
0.0398813
0.04112
0.0423942
0.043705
0.0450536
0.0464414
0.0209493
0.0212866
0.0216815
0.0221314
0.0226339
0.0231865
0.0237868
0.0244322
0.0251206
0.0258498
0.0266178
0.027423
0.0282638
0.0291391
0.0300479
0.0309893
0.0319629
0.0329684
0.0340054
0.0350742
0.0361749
0.0373079
0.0384737
0.0396729
0.0409066
0.0421755
0.0434809
0.0448239
0.0462061
0.0209045
0.0212341
0.0216215
0.0220644
0.0225603
0.0231068
0.0237014
0.0243414
0.0250246
0.0257489
0.0265122
0.0273129
0.0281494
0.0290206
0.0299253
0.0308628
0.0318326
0.0328342
0.0338676
0.0349326
0.0360296
0.0371588
0.0383208
0.0395163
0.040746
0.042011
0.0433123
0.0446512
0.0460291
0.0208751
0.0211995
0.0215818
0.02202
0.0225115
0.0230539
0.0236445
0.0242809
0.0249607
0.0256816
0.0264418
0.0272395
0.0280731
0.0289415
0.0298435
0.0307784
0.0317456
0.0327447
0.0337755
0.0348381
0.0359325
0.0370592
0.0382187
0.0394116
0.0406388
0.0419011
0.0431997
0.0445359
0.045911
0.0208605
0.0211823
0.0215621
0.0219979
0.0224872
0.0230274
0.0236161
0.0242507
0.0249287
0.025648
0.0264066
0.0272028
0.028035
0.0289019
0.0298026
0.0307361
0.031702
0.0326999
0.0337294
0.0347907
0.0358839
0.0370094
0.0381676
0.0393593
0.0405851
0.0418461
0.0431434
0.0208605
0.0211823
0.0215621
0.0219978
0.0224872
0.0230274
0.0236161
0.0242507
0.0249287
0.025648
0.0264066
0.0272028
0.028035
0.0289019
0.0298026
0.0307361
0.031702
0.0326999
0.0337294
0.0347907
0.0358839
0.0370094
0.0381676
0.0393592
0.0405851
0.0418461
0.0431434
0.0208751
0.0211995
0.0215818
0.02202
0.0225115
0.0230539
0.0236445
0.0242809
0.0249607
0.0256816
0.0264418
0.0272395
0.0280731
0.0289415
0.0298435
0.0307784
0.0317456
0.0327447
0.0337755
0.0348381
0.0359325
0.0370592
0.0382187
0.0394116
0.0406388
0.0419011
0.0431997
0.0209045
0.0212341
0.0216215
0.0220644
0.0225603
0.0231068
0.0237013
0.0243414
0.0250246
0.0257489
0.0265122
0.0273129
0.0281494
0.0290206
0.0299253
0.0308628
0.0318326
0.0328342
0.0338676
0.0349326
0.0360296
0.0371588
0.0383208
0.0395163
0.040746
0.042011
0.0433123
0.0209493
0.0212866
0.0216815
0.0221314
0.0226339
0.0231865
0.0237867
0.0244322
0.0251206
0.0258498
0.0266178
0.027423
0.0282638
0.0291391
0.0300478
0.0309893
0.0319629
0.0329684
0.0340054
0.0350742
0.0361749
0.0373079
0.0384737
0.0396729
0.0409066
0.0421755
0.0434809
0.0210102
0.0213576
0.0217623
0.0222214
0.0227324
0.023293
0.0239008
0.0245534
0.0252486
0.0259842
0.0267584
0.0275695
0.028416
0.0292968
0.0302109
0.0311576
0.0321363
0.0331467
0.0341888
0.0352625
0.0363682
0.0375061
0.0386769
0.0398813
0.0210882
0.021448
0.0218646
0.0223348
0.0228563
0.0234267
0.0240437
0.0247051
0.0254086
0.0261522
0.026934
0.0277524
0.0286059
0.0294935
0.0304142
0.0313673
0.0323523
0.033369
0.0344172
0.0354971
0.0366089
0.037753
0.03893
0.0211844
0.0215586
0.0219892
0.0224724
0.0230059
0.0235877
0.0242156
0.0248873
0.0256006
0.0263536
0.0271443
0.0279713
0.0288332
0.0297288
0.0306573
0.0316181
0.0326106
0.0336347
0.0346902
0.0357774
0.0368965
0.038048
0.0392325
0.0213
0.0216906
0.0221368
0.0226345
0.0231817
0.0237763
0.0244165
0.0250999
0.0258245
0.0265882
0.0273893
0.0282262
0.0290976
0.0300024
0.0309399
0.0319094
0.0329105
0.0339431
0.0350072
0.0361028
0.0372304
0.0383904
0.0395835
0.0214365
0.021845
0.0223083
0.0228217
0.0233838
0.0239927
0.0246465
0.025343
0.0260802
0.0268559
0.0276685
0.0285165
0.0293986
0.0303138
0.0312613
0.0322407
0.0332515
0.0342937
0.0353673
0.0364724
0.0376096
0.0387793
0.0399822
0.0215951
0.0220228
0.0225041
0.0230343
0.0236124
0.0242369
0.0249057
0.0256166
0.0263676
0.0271565
0.0279818
0.0288419
0.0297358
0.0306623
0.031621
0.0326112
0.0336328
0.0346856
0.0357697
0.0368855
0.0380333
0.0392137
0.0404275
0.0217774
0.0222249
0.0227247
0.0232724
0.0238676
0.0245089
0.0251939
0.0259205
0.0266865
0.0274897
0.0283287
0.029202
0.0301086
0.0310475
0.0320182
0.0330202
0.0340534
0.0351178
0.0362135
0.0373408
0.0385002
0.0396924
0.0409182
0.0219846
0.0224519
0.02297
0.0235359
0.0241494
0.0248088
0.0255114
0.0262548
0.0270367
0.0278553
0.0287089
0.0295962
0.0305163
0.0314684
0.032452
0.0334667
0.0345124
0.0355893
0.0366974
0.0378372
0.0390093
0.0402143
0.041453
0.0222181
0.0227034
0.0232394
0.0238245
0.0244579
0.0251368
0.0258582
0.0266194
0.0274181
0.0282527
0.0291217
0.0300238
0.0309582
0.0319242
0.0329214
0.0339496
0.0350087
0.0360988
0.0372202
0.0383734
0.039559
0.0407778
0.0420305
0.0224784
0.0229774
0.0235317
0.0241385
0.0247938
0.0254935
0.0262345
0.0270141
0.0278304
0.0286816
0.0295665
0.030484
0.0314333
0.0324139
0.0334254
0.0344677
0.0355409
0.036645
0.0377805
0.0389479
0.0401479
0.0413813
0.042649
0.0227676
0.0232722
0.0238509
0.0244828
0.0251613
0.0258825
0.0266434
0.0274418
0.0282759
0.0291441
0.0300453
0.0309785
0.0319432
0.0329388
0.0339651
0.035022
0.0361098
0.0372286
0.0383788
0.0395612
0.0407763
0.0420251
0.0433086
0.0207612
0.0208279
0.0209111
0.0210123
0.021133
0.0212749
0.0214397
0.021629
0.0218447
0.02209
0.0223777
0.0205907
0.0206498
0.0207242
0.0208157
0.0209259
0.0210568
0.02121
0.0213873
0.0215906
0.0218219
0.02209
0.020453
0.0205046
0.0205704
0.0206524
0.0207524
0.0208725
0.0210145
0.0211804
0.0213719
0.0215906
0.0218447
0.020345
0.0203886
0.0204453
0.0205173
0.0206067
0.0207158
0.0208464
0.0210007
0.0211804
0.0213874
0.021629
0.0202648
0.0202997
0.0203468
0.0204084
0.0204869
0.0205846
0.0207037
0.0208464
0.0210145
0.02121
0.0214397
0.0202098
0.0202357
0.0202728
0.0203236
0.0203908
0.020477
0.0205846
0.0207158
0.0208725
0.0210568
0.0212749
0.020176
0.0201933
0.0202204
0.0202603
0.0203162
0.0203908
0.0204869
0.0206067
0.0207524
0.0209259
0.021133
0.0201578
0.0201681
0.0201862
0.0202157
0.0202603
0.0203236
0.0204084
0.0205173
0.0206524
0.0208157
0.0210123
0.0201487
0.0201547
0.0201658
0.0201862
0.0202204
0.0202728
0.0203468
0.0204453
0.0205704
0.0207243
0.0209111
0.0201439
0.0201478
0.0201547
0.0201681
0.0201933
0.0202357
0.0202997
0.0203886
0.0205046
0.0206498
0.0208279
0.0201406
0.0201439
0.0201487
0.0201578
0.020176
0.0202098
0.0202648
0.020345
0.020453
0.0205907
0.0207612
0.0201379
0.0201412
0.0201454
0.020152
0.0201655
0.0201925
0.02024
0.0203128
0.020414
0.0205455
0.0207096
0.0201359
0.0201392
0.0201432
0.0201488
0.0201594
0.0201816
0.0202232
0.0202903
0.0203861
0.0205128
0.020672
0.0201345
0.0201378
0.0201418
0.0201471
0.0201561
0.0201754
0.0202131
0.0202761
0.0203682
0.0204915
0.0206474
0.0201338
0.0201372
0.0201411
0.0201462
0.0201547
0.0201725
0.0202083
0.0202692
0.0203595
0.0204811
0.0206353
0.0201338
0.0201372
0.0201411
0.0201462
0.0201547
0.0201725
0.0202083
0.0202692
0.0203595
0.0204811
0.0206353
0.0201345
0.0201378
0.0201418
0.0201471
0.0201561
0.0201754
0.0202131
0.0202761
0.0203682
0.0204915
0.0206474
0.0201359
0.0201392
0.0201432
0.0201488
0.0201594
0.0201816
0.0202232
0.0202903
0.0203861
0.0205128
0.020672
0.0201379
0.0201412
0.0201454
0.020152
0.0201655
0.0201925
0.02024
0.0203128
0.020414
0.0205455
0.0207096
0.0201406
0.0201439
0.0201487
0.0201578
0.020176
0.0202098
0.0202648
0.020345
0.020453
0.0205907
0.0207612
0.0201439
0.0201478
0.0201547
0.0201681
0.0201933
0.0202357
0.0202997
0.0203886
0.0205046
0.0206498
0.0208279
0.0201487
0.0201547
0.0201658
0.0201862
0.0202204
0.0202728
0.0203468
0.0204453
0.0205704
0.0207242
0.0209111
0.0201578
0.0201681
0.0201862
0.0202157
0.0202603
0.0203236
0.0204084
0.0205173
0.0206524
0.0208157
0.0210123
0.020176
0.0201933
0.0202204
0.0202603
0.0203162
0.0203908
0.0204869
0.0206067
0.0207524
0.0209259
0.021133
0.0202098
0.0202357
0.0202728
0.0203236
0.0203908
0.020477
0.0205846
0.0207157
0.0208725
0.0210568
0.0212749
0.0202648
0.0202997
0.0203468
0.0204084
0.0204869
0.0205846
0.0207037
0.0208464
0.0210145
0.02121
0.0214397
0.020345
0.0203886
0.0204453
0.0205173
0.0206067
0.0207157
0.0208464
0.0210007
0.0211804
0.0213873
0.021629
0.020453
0.0205046
0.0205704
0.0206523
0.0207524
0.0208725
0.0210145
0.0211804
0.0213718
0.0215906
0.0218447
0.0205907
0.0206498
0.0207242
0.0208157
0.0209259
0.0210568
0.02121
0.0213873
0.0215906
0.0218219
0.02209
0.0207612
0.0208279
0.0209111
0.0210123
0.021133
0.0212749
0.0214397
0.021629
0.0218447
0.02209
0.0223777
)
;

boundaryField
{
    inlet
    {
        type            cyclic;
    }
    outlet
    {
        type            cyclic;
    }
    wall
    {
        type            fixedValue;
        value           nonuniform 0();
    }
    procBoundary7to4
    {
        type            processor;
        value           nonuniform List<scalar> 
34
(
0.0405851
0.0418461
0.0431434
0.0444782
0.0458518
0.0472659
0.0473265
0.0474476
0.0476289
0.04787
0.0481705
0.0485295
0.0489463
0.0494198
0.0499489
0.050532
0.0511676
0.0518541
0.0525895
0.0533736
0.0533736
0.0525895
0.0518541
0.0511676
0.050532
0.0499489
0.0494199
0.0489463
0.0485295
0.0481705
0.04787
0.0476289
0.0474476
0.0473265
)
;
    }
    procBoundary7to5
    {
        type            processor;
        value           nonuniform List<scalar> 
42
(
0.0302109
0.0302109
0.0313673
0.0313673
0.0323523
0.033369
0.0344172
0.0354971
0.0366089
0.038048
0.038048
0.0392325
0.0408105
0.0412191
0.0416755
0.0421784
0.0427265
0.0433183
0.043952
0.0446278
0.0444782
0.0458518
0.0444782
0.0444782
0.0445359
0.0446512
0.04112
0.0423942
0.0448239
0.043705
0.04112
0.0401407
0.0401407
0.0404507
0.0408105
0.0412191
0.0416755
0.0421784
0.0427265
0.0433183
0.043952
0.0446278
)
;
    }
    procBoundary7to6
    {
        type            processor;
        value           nonuniform List<scalar> 
72
(
0.0209493
0.0212866
0.0216815
0.0221314
0.0226339
0.0231865
0.0237867
0.0244322
0.0251206
0.0258498
0.0266178
0.0274229
0.0282638
0.0291391
0.0337294
0.0347907
0.0358839
0.0370094
0.0381676
0.0393592
0.0249287
0.025648
0.0264066
0.0272028
0.0280349
0.0289019
0.0298026
0.0307361
0.031702
0.0326998
0.0326998
0.02202
0.0225115
0.0230539
0.0236445
0.0242809
0.0242809
0.0216215
0.0209493
0.0212866
0.0216815
0.0216815
0.0207096
0.0205455
0.020414
0.0203128
0.02024
0.0201925
0.0201655
0.020152
0.0201454
0.0201412
0.0201379
0.0201352
0.0201332
0.0201319
0.0201312
0.0201312
0.0201318
0.0201332
0.0201352
0.0201379
0.0201412
0.0201454
0.020152
0.0201655
0.0201925
0.02024
0.0203128
0.020414
0.0205455
0.0207096
)
;
    }
}


// ************************************************************************* //
