/*--------------------------------*- C++ -*----------------------------------*\
  =========                 |
  \\      /  F ield         | OpenFOAM: The Open Source CFD Toolbox
   \\    /   O peration     | Website:  https://openfoam.org
    \\  /    A nd           | Version:  7
     \\/     M anipulation  |
\*---------------------------------------------------------------------------*/
FoamFile
{
    version     2.0;
    format      ascii;
    class       volScalarField;
    location    "72000";
    object      nut;
}
// * * * * * * * * * * * * * * * * * * * * * * * * * * * * * * * * * * * * * //

dimensions      [0 2 -1 0 0 0 0];

internalField   nonuniform List<scalar> 
4814
(
3.51687e-06
3.53518e-06
3.55163e-06
3.56614e-06
2.98712e-06
3.02269e-06
3.05662e-06
3.08977e-06
3.1221e-06
3.15356e-06
3.18399e-06
3.21319e-06
3.24131e-06
3.26779e-06
3.29296e-06
3.31705e-06
3.33954e-06
3.36053e-06
3.38008e-06
3.39798e-06
3.414e-06
3.42816e-06
3.44049e-06
3.45119e-06
3.46005e-06
3.46721e-06
3.47282e-06
3.47655e-06
3.47855e-06
3.47865e-06
3.47675e-06
3.47316e-06
3.46809e-06
3.46073e-06
3.45185e-06
3.44122e-06
3.42888e-06
3.41463e-06
2.86215e-06
2.89673e-06
2.92972e-06
2.96195e-06
2.9934e-06
3.02404e-06
3.0537e-06
3.08215e-06
3.10951e-06
3.13527e-06
3.15977e-06
3.18327e-06
3.20522e-06
3.22564e-06
3.24472e-06
3.2622e-06
3.27776e-06
3.29157e-06
3.30362e-06
3.31406e-06
3.32264e-06
3.32968e-06
3.33515e-06
3.33876e-06
3.34076e-06
3.34085e-06
3.33898e-06
3.33548e-06
3.33056e-06
3.32331e-06
3.3146e-06
3.30427e-06
3.29224e-06
3.27838e-06
3.26287e-06
3.24567e-06
3.22675e-06
3.20597e-06
3.18358e-06
3.16024e-06
3.13542e-06
2.7388e-06
2.77237e-06
2.80443e-06
2.83573e-06
2.86629e-06
2.89611e-06
2.92498e-06
2.95266e-06
2.97927e-06
3.00428e-06
3.0281e-06
3.05099e-06
3.07241e-06
3.09226e-06
3.11083e-06
3.12789e-06
3.14299e-06
3.15646e-06
3.16822e-06
3.17839e-06
3.18669e-06
3.19361e-06
3.19893e-06
3.20243e-06
3.20439e-06
3.2045e-06
3.20266e-06
3.19926e-06
3.19446e-06
3.18736e-06
3.17883e-06
3.16877e-06
3.15707e-06
3.14361e-06
3.12852e-06
3.11175e-06
3.09333e-06
3.07311e-06
3.05131e-06
3.02856e-06
3.0044e-06
2.97879e-06
2.95214e-06
2.9247e-06
2.61713e-06
2.64969e-06
2.68082e-06
2.71117e-06
2.74084e-06
2.76983e-06
2.79787e-06
2.82478e-06
2.85062e-06
2.87489e-06
2.89805e-06
2.92028e-06
2.94119e-06
2.96042e-06
2.97848e-06
2.99511e-06
3.00977e-06
3.02291e-06
3.03437e-06
3.04424e-06
3.05228e-06
3.05907e-06
3.06425e-06
3.06764e-06
3.06953e-06
3.06965e-06
3.06788e-06
3.06457e-06
3.05988e-06
3.05292e-06
3.0446e-06
3.03479e-06
3.02344e-06
3.01038e-06
2.9957e-06
2.97939e-06
2.96147e-06
2.94181e-06
2.92064e-06
2.89847e-06
2.87496e-06
2.85012e-06
2.82423e-06
2.79759e-06
2.49719e-06
2.52875e-06
2.55893e-06
2.58836e-06
2.61711e-06
2.64526e-06
2.67247e-06
2.69859e-06
2.72364e-06
2.74718e-06
2.76967e-06
2.79124e-06
2.8116e-06
2.83021e-06
2.84775e-06
2.86395e-06
2.87819e-06
2.891e-06
2.90212e-06
2.91172e-06
2.91948e-06
2.92612e-06
2.93115e-06
2.93446e-06
2.93627e-06
2.93638e-06
2.93471e-06
2.93147e-06
2.92688e-06
2.9201e-06
2.912e-06
2.90244e-06
2.89143e-06
2.87876e-06
2.86453e-06
2.84866e-06
2.83126e-06
2.81216e-06
2.79163e-06
2.77003e-06
2.74722e-06
2.72314e-06
2.69803e-06
2.67217e-06
2.37909e-06
2.40962e-06
2.43885e-06
2.46735e-06
2.49518e-06
2.52246e-06
2.54883e-06
2.57415e-06
2.5984e-06
2.62122e-06
2.64303e-06
2.66394e-06
2.68373e-06
2.70172e-06
2.71874e-06
2.73448e-06
2.74829e-06
2.76079e-06
2.77156e-06
2.78089e-06
2.78838e-06
2.79485e-06
2.79971e-06
2.80294e-06
2.80467e-06
2.80476e-06
2.80319e-06
2.80004e-06
2.79554e-06
2.78898e-06
2.78111e-06
2.7718e-06
2.7611e-06
2.74885e-06
2.73506e-06
2.71963e-06
2.70276e-06
2.68423e-06
2.66436e-06
2.64335e-06
2.62124e-06
2.59793e-06
2.5736e-06
2.54852e-06
2.26288e-06
2.29237e-06
2.32064e-06
2.34821e-06
2.37512e-06
2.40152e-06
2.42704e-06
2.45154e-06
2.475e-06
2.49707e-06
2.51819e-06
2.53846e-06
2.55764e-06
2.57504e-06
2.59153e-06
2.60679e-06
2.62017e-06
2.63234e-06
2.64275e-06
2.65181e-06
2.65905e-06
2.66532e-06
2.67003e-06
2.67317e-06
2.67483e-06
2.67489e-06
2.67344e-06
2.67038e-06
2.66596e-06
2.65962e-06
2.65198e-06
2.64294e-06
2.63255e-06
2.62071e-06
2.60737e-06
2.5924e-06
2.57607e-06
2.55808e-06
2.53888e-06
2.51849e-06
2.49709e-06
2.47453e-06
2.45101e-06
2.42673e-06
2.40146e-06
2.14864e-06
2.17707e-06
2.20437e-06
2.23102e-06
2.257e-06
2.28252e-06
2.30716e-06
2.33082e-06
2.35349e-06
2.37481e-06
2.39526e-06
2.41487e-06
2.43342e-06
2.45024e-06
2.46618e-06
2.48096e-06
2.4939e-06
2.50572e-06
2.51579e-06
2.52456e-06
2.53156e-06
2.53764e-06
2.54217e-06
2.54522e-06
2.54682e-06
2.54685e-06
2.5455e-06
2.54254e-06
2.53822e-06
2.53211e-06
2.52471e-06
2.51594e-06
2.50588e-06
2.49443e-06
2.48154e-06
2.46701e-06
2.45124e-06
2.43383e-06
2.41527e-06
2.39554e-06
2.37486e-06
2.35305e-06
2.33033e-06
2.30687e-06
2.28241e-06
2.03644e-06
2.0638e-06
2.09013e-06
2.11585e-06
2.14089e-06
2.1655e-06
2.18927e-06
2.2121e-06
2.23396e-06
2.25452e-06
2.2743e-06
2.29324e-06
2.31115e-06
2.32741e-06
2.34278e-06
2.35707e-06
2.36958e-06
2.38103e-06
2.39075e-06
2.39925e-06
2.406e-06
2.41186e-06
2.41624e-06
2.41918e-06
2.42073e-06
2.42075e-06
2.41947e-06
2.41663e-06
2.4124e-06
2.40651e-06
2.39936e-06
2.39088e-06
2.38114e-06
2.37009e-06
2.35764e-06
2.34356e-06
2.32836e-06
2.31155e-06
2.29363e-06
2.27456e-06
2.25461e-06
2.23356e-06
2.21164e-06
2.18899e-06
2.16537e-06
1.92635e-06
1.95266e-06
1.97799e-06
2.00277e-06
2.02687e-06
2.05056e-06
2.07346e-06
2.09544e-06
2.11649e-06
2.1363e-06
2.1554e-06
2.17367e-06
2.19091e-06
2.20662e-06
2.2214e-06
2.23521e-06
2.24728e-06
2.25834e-06
2.26774e-06
2.27596e-06
2.28246e-06
2.28808e-06
2.29231e-06
2.29515e-06
2.29664e-06
2.29667e-06
2.29544e-06
2.29273e-06
2.28859e-06
2.28293e-06
2.27602e-06
2.26784e-06
2.25844e-06
2.24776e-06
2.23576e-06
2.22214e-06
2.2075e-06
2.19132e-06
2.17403e-06
2.15563e-06
2.13644e-06
2.11613e-06
2.09501e-06
2.07318e-06
2.05043e-06
1.81844e-06
1.84371e-06
1.86805e-06
1.89187e-06
1.91502e-06
1.93777e-06
1.9598e-06
1.98093e-06
2.00117e-06
2.02023e-06
2.03865e-06
2.05621e-06
2.07282e-06
2.08796e-06
2.10215e-06
2.11547e-06
2.12711e-06
2.13775e-06
2.14682e-06
2.15477e-06
2.16102e-06
2.1664e-06
2.17048e-06
2.17323e-06
2.17465e-06
2.17468e-06
2.1735e-06
2.17091e-06
2.16688e-06
2.16146e-06
2.15479e-06
2.1469e-06
2.13783e-06
2.12755e-06
2.11598e-06
2.10284e-06
2.08876e-06
2.07321e-06
2.05656e-06
2.03885e-06
2.0204e-06
2.00085e-06
1.98054e-06
1.95954e-06
1.7128e-06
1.73702e-06
1.76037e-06
1.78323e-06
1.80542e-06
1.82723e-06
1.84838e-06
1.86865e-06
1.88808e-06
1.90639e-06
1.92411e-06
1.94098e-06
1.95693e-06
1.97152e-06
1.98512e-06
1.99793e-06
2.00915e-06
2.01936e-06
2.0281e-06
2.03575e-06
2.04177e-06
2.04692e-06
2.05084e-06
2.0535e-06
2.05486e-06
2.0549e-06
2.05376e-06
2.05126e-06
2.04736e-06
2.04219e-06
2.03575e-06
2.02816e-06
2.01941e-06
2.00955e-06
1.99841e-06
1.98577e-06
1.97224e-06
1.95731e-06
1.9413e-06
1.9243e-06
1.90659e-06
1.8878e-06
1.86831e-06
1.84813e-06
1.60951e-06
1.6327e-06
1.65504e-06
1.67694e-06
1.69816e-06
1.71903e-06
1.73929e-06
1.75869e-06
1.77733e-06
1.79489e-06
1.81188e-06
1.82806e-06
1.84335e-06
1.85738e-06
1.8704e-06
1.8827e-06
1.89348e-06
1.90326e-06
1.91167e-06
1.919e-06
1.92481e-06
1.92973e-06
1.9335e-06
1.93605e-06
1.93736e-06
1.9374e-06
1.93631e-06
1.93389e-06
1.93014e-06
1.9252e-06
1.919e-06
1.9117e-06
1.9033e-06
1.89385e-06
1.88313e-06
1.87101e-06
1.85802e-06
1.84372e-06
1.82836e-06
1.81207e-06
1.7951e-06
1.77708e-06
1.7584e-06
1.73905e-06
1.50868e-06
1.53082e-06
1.55215e-06
1.57308e-06
1.59334e-06
1.61325e-06
1.63261e-06
1.65117e-06
1.669e-06
1.68582e-06
1.70206e-06
1.71756e-06
1.73219e-06
1.74564e-06
1.75808e-06
1.76986e-06
1.7802e-06
1.78956e-06
1.79763e-06
1.80464e-06
1.81023e-06
1.81491e-06
1.81854e-06
1.821e-06
1.82224e-06
1.82228e-06
1.82124e-06
1.8189e-06
1.8153e-06
1.81059e-06
1.80463e-06
1.79763e-06
1.78958e-06
1.78054e-06
1.77025e-06
1.75866e-06
1.74621e-06
1.73254e-06
1.71784e-06
1.70226e-06
1.68602e-06
1.66878e-06
1.65091e-06
1.63241e-06
1.41037e-06
1.43145e-06
1.45179e-06
1.47174e-06
1.49105e-06
1.51e-06
1.52846e-06
1.54616e-06
1.56319e-06
1.57925e-06
1.59475e-06
1.60956e-06
1.62353e-06
1.63641e-06
1.64827e-06
1.65953e-06
1.6694e-06
1.67835e-06
1.68607e-06
1.69277e-06
1.69814e-06
1.70258e-06
1.70605e-06
1.70842e-06
1.70961e-06
1.70965e-06
1.70867e-06
1.70638e-06
1.70296e-06
1.69847e-06
1.69276e-06
1.68605e-06
1.67835e-06
1.66971e-06
1.65987e-06
1.64882e-06
1.6369e-06
1.62387e-06
1.60983e-06
1.59496e-06
1.57946e-06
1.563e-06
1.54595e-06
1.52829e-06
1.31468e-06
1.33471e-06
1.35405e-06
1.37301e-06
1.39138e-06
1.40938e-06
1.42693e-06
1.44378e-06
1.46e-06
1.47529e-06
1.49005e-06
1.50417e-06
1.51748e-06
1.52977e-06
1.54106e-06
1.55178e-06
1.5612e-06
1.56973e-06
1.57709e-06
1.58348e-06
1.58863e-06
1.59285e-06
1.59616e-06
1.59843e-06
1.59958e-06
1.5996e-06
1.59867e-06
1.59645e-06
1.5932e-06
1.58893e-06
1.58348e-06
1.57708e-06
1.56972e-06
1.56148e-06
1.55208e-06
1.54159e-06
1.5302e-06
1.5178e-06
1.50442e-06
1.49026e-06
1.47549e-06
1.45983e-06
1.4436e-06
1.42679e-06
1.2217e-06
1.24067e-06
1.25901e-06
1.27699e-06
1.29442e-06
1.31147e-06
1.32812e-06
1.34411e-06
1.35951e-06
1.37405e-06
1.38807e-06
1.40149e-06
1.41413e-06
1.42584e-06
1.43656e-06
1.44674e-06
1.45571e-06
1.46381e-06
1.47082e-06
1.4769e-06
1.48181e-06
1.48582e-06
1.48897e-06
1.49113e-06
1.49223e-06
1.49225e-06
1.49136e-06
1.48922e-06
1.48614e-06
1.4821e-06
1.4769e-06
1.47081e-06
1.4638e-06
1.45595e-06
1.447e-06
1.43705e-06
1.42621e-06
1.41444e-06
1.40172e-06
1.38827e-06
1.37424e-06
1.35938e-06
1.34397e-06
1.32801e-06
1.13153e-06
1.14943e-06
1.16678e-06
1.18378e-06
1.20028e-06
1.21639e-06
1.23213e-06
1.24727e-06
1.26184e-06
1.27561e-06
1.28891e-06
1.30163e-06
1.31358e-06
1.32471e-06
1.33487e-06
1.34451e-06
1.35303e-06
1.3607e-06
1.36735e-06
1.37313e-06
1.3778e-06
1.3816e-06
1.38458e-06
1.38664e-06
1.38768e-06
1.38771e-06
1.38685e-06
1.3848e-06
1.3819e-06
1.37808e-06
1.37314e-06
1.36735e-06
1.36069e-06
1.35324e-06
1.34474e-06
1.33533e-06
1.32504e-06
1.3139e-06
1.30183e-06
1.2891e-06
1.27581e-06
1.26173e-06
1.24715e-06
1.23204e-06
1.04423e-06
1.06109e-06
1.07745e-06
1.09347e-06
1.10904e-06
1.12422e-06
1.13906e-06
1.15335e-06
1.16709e-06
1.1801e-06
1.19268e-06
1.20469e-06
1.21597e-06
1.2265e-06
1.23611e-06
1.24521e-06
1.25328e-06
1.26052e-06
1.26681e-06
1.27229e-06
1.27671e-06
1.28031e-06
1.28312e-06
1.28507e-06
1.28606e-06
1.28609e-06
1.28527e-06
1.28332e-06
1.28057e-06
1.27698e-06
1.2723e-06
1.26682e-06
1.26051e-06
1.25346e-06
1.24541e-06
1.23653e-06
1.22679e-06
1.21627e-06
1.20486e-06
1.19285e-06
1.1803e-06
1.167e-06
1.15325e-06
1.13898e-06
9.59902e-07
9.75721e-07
9.91092e-07
1.00615e-06
1.02079e-06
1.03506e-06
1.04901e-06
1.06245e-06
1.07537e-06
1.08762e-06
1.09947e-06
1.11078e-06
1.1214e-06
1.13133e-06
1.14037e-06
1.14894e-06
1.15656e-06
1.16339e-06
1.1693e-06
1.17449e-06
1.17866e-06
1.18206e-06
1.1847e-06
1.18654e-06
1.18747e-06
1.18751e-06
1.18673e-06
1.18489e-06
1.18229e-06
1.17892e-06
1.17451e-06
1.16933e-06
1.16337e-06
1.15672e-06
1.14913e-06
1.14077e-06
1.13158e-06
1.12168e-06
1.11094e-06
1.09963e-06
1.08783e-06
1.07529e-06
1.06235e-06
1.04894e-06
8.78524e-07
8.93337e-07
9.0776e-07
9.21883e-07
9.35607e-07
9.48971e-07
9.62059e-07
9.74654e-07
9.8677e-07
9.9827e-07
1.00941e-06
1.02e-06
1.02998e-06
1.03931e-06
1.04779e-06
1.05583e-06
1.063e-06
1.06941e-06
1.07496e-06
1.07985e-06
1.08378e-06
1.08697e-06
1.08944e-06
1.09116e-06
1.09205e-06
1.09208e-06
1.09134e-06
1.08962e-06
1.08718e-06
1.084e-06
1.07987e-06
1.075e-06
1.06939e-06
1.06313e-06
1.056e-06
1.04815e-06
1.03952e-06
1.03023e-06
1.02014e-06
1.00954e-06
9.98472e-07
9.867e-07
9.74565e-07
9.61982e-07
9.48972e-07
7.99771e-07
8.13709e-07
8.27306e-07
8.40623e-07
8.5346e-07
8.65951e-07
8.78195e-07
8.8998e-07
9.01321e-07
9.12094e-07
9.22531e-07
9.32446e-07
9.41767e-07
9.50502e-07
9.58429e-07
9.65959e-07
9.72681e-07
9.78667e-07
9.83881e-07
9.88461e-07
9.92143e-07
9.95136e-07
9.97442e-07
9.99047e-07
9.99886e-07
9.99923e-07
9.99219e-07
9.9761e-07
9.95325e-07
9.92346e-07
9.88491e-07
9.83922e-07
9.78656e-07
9.72788e-07
9.66108e-07
9.58769e-07
9.50696e-07
9.42015e-07
9.32568e-07
9.22658e-07
9.12284e-07
9.0126e-07
8.89895e-07
8.7812e-07
8.65961e-07
7.20734e-07
7.34715e-07
7.48406e-07
7.61777e-07
7.73833e-07
7.85561e-07
7.97072e-07
8.08146e-07
8.18819e-07
8.28962e-07
8.38788e-07
8.48059e-07
8.56756e-07
8.64916e-07
8.72308e-07
8.79332e-07
8.8562e-07
8.91203e-07
8.96089e-07
9.00366e-07
9.0381e-07
9.06613e-07
9.08759e-07
9.10258e-07
9.11051e-07
9.11082e-07
9.1042e-07
9.0892e-07
9.06783e-07
9.03999e-07
9.00403e-07
8.96132e-07
8.91201e-07
8.85713e-07
8.79467e-07
8.72616e-07
8.65091e-07
8.56988e-07
8.48171e-07
8.38905e-07
8.29134e-07
8.1876e-07
8.08064e-07
7.97002e-07
7.85579e-07
6.41807e-07
6.54771e-07
6.67485e-07
6.79945e-07
6.92069e-07
7.03876e-07
7.15451e-07
7.26595e-07
7.37341e-07
7.47561e-07
7.57438e-07
7.66289e-07
7.74436e-07
7.82084e-07
7.89012e-07
7.95592e-07
8.01499e-07
8.0673e-07
8.11325e-07
8.15342e-07
8.18575e-07
8.21218e-07
8.23225e-07
8.24633e-07
8.25384e-07
8.25409e-07
8.24783e-07
8.23378e-07
8.2137e-07
8.18756e-07
8.15379e-07
8.1137e-07
8.06736e-07
8.01574e-07
7.95714e-07
7.89285e-07
7.82246e-07
7.74646e-07
7.66391e-07
7.57537e-07
7.47694e-07
7.37273e-07
7.26512e-07
7.15388e-07
7.03903e-07
5.66407e-07
5.78344e-07
5.90064e-07
6.01556e-07
6.12748e-07
6.23656e-07
6.34357e-07
6.44664e-07
6.54614e-07
6.64082e-07
6.73235e-07
6.81909e-07
6.90085e-07
6.97744e-07
7.04721e-07
7.11311e-07
7.17235e-07
7.22496e-07
7.27123e-07
7.31157e-07
7.34416e-07
7.37086e-07
7.39107e-07
7.40516e-07
7.41263e-07
7.41275e-07
7.40641e-07
7.39246e-07
7.37219e-07
7.34583e-07
7.31189e-07
7.27168e-07
7.22511e-07
7.17308e-07
7.11416e-07
7.04953e-07
6.97894e-07
6.90262e-07
6.82002e-07
6.73326e-07
6.642e-07
6.54549e-07
6.44587e-07
6.34302e-07
4.9484e-07
5.05735e-07
5.16447e-07
5.26957e-07
5.37206e-07
5.472e-07
5.57019e-07
5.66475e-07
5.75615e-07
5.84319e-07
5.92735e-07
6.00712e-07
6.0824e-07
6.15295e-07
6.21724e-07
6.278e-07
6.33262e-07
6.38117e-07
6.42387e-07
6.46114e-07
6.49124e-07
6.51588e-07
6.53455e-07
6.54756e-07
6.55449e-07
6.55456e-07
6.54869e-07
6.53586e-07
6.51709e-07
6.49274e-07
6.4614e-07
6.42431e-07
6.3813e-07
6.33328e-07
6.2789e-07
6.21934e-07
6.15431e-07
6.08401e-07
6.00797e-07
5.92815e-07
5.84419e-07
5.75554e-07
5.66403e-07
5.56967e-07
4.27425e-07
4.3727e-07
4.46964e-07
4.56483e-07
4.65778e-07
4.74847e-07
4.8377e-07
4.92367e-07
5.00683e-07
5.08614e-07
5.16278e-07
5.23548e-07
5.30423e-07
5.36862e-07
5.42736e-07
5.48286e-07
5.53279e-07
5.5772e-07
5.61628e-07
5.65041e-07
5.67797e-07
5.70054e-07
5.71764e-07
5.72957e-07
5.7359e-07
5.73593e-07
5.73054e-07
5.71885e-07
5.7016e-07
5.67934e-07
5.65064e-07
5.61671e-07
5.57736e-07
5.53338e-07
5.48365e-07
5.4292e-07
5.36984e-07
5.30566e-07
5.23628e-07
5.16349e-07
5.08698e-07
5.00628e-07
4.92301e-07
4.83725e-07
3.64489e-07
3.73283e-07
3.81952e-07
3.90475e-07
3.98812e-07
4.06951e-07
4.14968e-07
4.22701e-07
4.30185e-07
4.37332e-07
4.44238e-07
4.50796e-07
4.57005e-07
4.62823e-07
4.68132e-07
4.73153e-07
4.77671e-07
4.81691e-07
4.85231e-07
4.88324e-07
4.90822e-07
4.9287e-07
4.94421e-07
4.95503e-07
4.96073e-07
4.96076e-07
4.95586e-07
4.94531e-07
4.92961e-07
4.90945e-07
4.88346e-07
4.85272e-07
4.81708e-07
4.77719e-07
4.73221e-07
4.68296e-07
4.62929e-07
4.57131e-07
4.50868e-07
4.44301e-07
4.37404e-07
4.30136e-07
4.2264e-07
4.1493e-07
3.06355e-07
3.14104e-07
3.21753e-07
3.29285e-07
3.36661e-07
3.43871e-07
3.5098e-07
3.57846e-07
3.64497e-07
3.70855e-07
3.77002e-07
3.82844e-07
3.8838e-07
3.93575e-07
3.98315e-07
4.028e-07
4.06839e-07
4.10437e-07
4.13605e-07
4.16372e-07
4.1861e-07
4.20449e-07
4.21836e-07
4.22806e-07
4.23316e-07
4.23315e-07
4.22878e-07
4.21935e-07
4.20526e-07
4.18719e-07
4.16393e-07
4.13642e-07
4.10453e-07
4.0688e-07
4.02858e-07
3.9846e-07
3.93668e-07
3.88493e-07
3.82909e-07
3.77057e-07
3.70916e-07
3.64455e-07
3.57792e-07
3.5095e-07
2.5333e-07
2.6005e-07
2.66693e-07
2.73245e-07
2.79672e-07
2.85961e-07
2.92169e-07
2.98173e-07
3.03994e-07
3.09566e-07
3.14958e-07
3.20086e-07
3.24951e-07
3.2952e-07
3.33692e-07
3.37641e-07
3.41203e-07
3.44377e-07
3.47172e-07
3.49609e-07
3.51589e-07
3.53217e-07
3.54438e-07
3.55297e-07
3.55746e-07
3.55744e-07
3.55357e-07
3.54526e-07
3.5328e-07
3.51684e-07
3.49632e-07
3.47203e-07
3.44388e-07
3.41236e-07
3.37691e-07
3.33818e-07
3.29601e-07
3.25048e-07
3.20142e-07
3.15005e-07
3.09618e-07
3.03959e-07
2.98126e-07
2.92144e-07
2.05676e-07
2.11398e-07
2.17061e-07
2.22656e-07
2.28155e-07
2.33542e-07
2.38867e-07
2.44024e-07
2.4903e-07
2.53829e-07
2.58476e-07
2.629e-07
2.671e-07
2.7105e-07
2.74662e-07
2.78079e-07
2.81166e-07
2.8392e-07
2.86345e-07
2.88457e-07
2.90178e-07
2.91594e-07
2.92654e-07
2.93402e-07
2.9379e-07
2.93786e-07
2.93449e-07
2.92728e-07
2.91647e-07
2.90261e-07
2.88479e-07
2.8637e-07
2.83929e-07
2.81194e-07
2.78121e-07
2.74768e-07
2.7112e-07
2.67183e-07
2.62948e-07
2.58515e-07
2.5387e-07
2.49002e-07
2.43985e-07
2.38847e-07
1.63587e-07
1.68355e-07
1.7308e-07
1.77758e-07
1.82364e-07
1.86883e-07
1.91354e-07
1.95693e-07
1.99908e-07
2.03957e-07
2.0788e-07
2.1162e-07
2.15173e-07
2.18519e-07
2.21583e-07
2.24482e-07
2.27103e-07
2.29445e-07
2.31507e-07
2.33303e-07
2.34769e-07
2.35976e-07
2.36879e-07
2.37517e-07
2.37845e-07
2.37842e-07
2.37553e-07
2.36941e-07
2.3602e-07
2.3484e-07
2.33321e-07
2.31528e-07
2.29453e-07
2.27128e-07
2.24517e-07
2.21671e-07
2.18578e-07
2.15242e-07
2.11659e-07
2.07913e-07
2.0399e-07
1.99887e-07
1.95661e-07
1.91338e-07
1.27156e-07
1.3103e-07
1.34878e-07
1.38692e-07
1.42457e-07
1.46156e-07
1.4982e-07
1.53382e-07
1.56847e-07
1.60182e-07
1.63415e-07
1.66502e-07
1.69437e-07
1.72203e-07
1.74743e-07
1.77145e-07
1.79318e-07
1.81263e-07
1.82976e-07
1.84469e-07
1.85689e-07
1.86694e-07
1.87444e-07
1.87975e-07
1.88248e-07
1.88244e-07
1.88003e-07
1.87494e-07
1.86729e-07
1.85747e-07
1.84483e-07
1.82992e-07
1.81269e-07
1.79339e-07
1.77173e-07
1.74814e-07
1.72252e-07
1.69493e-07
1.66533e-07
1.63441e-07
1.60207e-07
1.5683e-07
1.53356e-07
1.49807e-07
1.46165e-07
9.63419e-08
9.94023e-08
1.02447e-07
1.05472e-07
1.08463e-07
1.11406e-07
1.14327e-07
1.17169e-07
1.19941e-07
1.22611e-07
1.25202e-07
1.2768e-07
1.30038e-07
1.32264e-07
1.3431e-07
1.36247e-07
1.37999e-07
1.3957e-07
1.40955e-07
1.42162e-07
1.43151e-07
1.43964e-07
1.44572e-07
1.45001e-07
1.45221e-07
1.45219e-07
1.45023e-07
1.4461e-07
1.43992e-07
1.43196e-07
1.42174e-07
1.40968e-07
1.39576e-07
1.38017e-07
1.36269e-07
1.34366e-07
1.32303e-07
1.30082e-07
1.27704e-07
1.25222e-07
1.22629e-07
1.19927e-07
1.1715e-07
1.14315e-07
1.11413e-07
7.09521e-08
7.32939e-08
7.56281e-08
7.79512e-08
8.02521e-08
8.25211e-08
8.47747e-08
8.69725e-08
8.91184e-08
9.11888e-08
9.32013e-08
9.51274e-08
9.69634e-08
9.86972e-08
1.00295e-07
1.01807e-07
1.03177e-07
1.04406e-07
1.0549e-07
1.06436e-07
1.07211e-07
1.07849e-07
1.08326e-07
1.08662e-07
1.08835e-07
1.08833e-07
1.08679e-07
1.08355e-07
1.07871e-07
1.07246e-07
1.06445e-07
1.055e-07
1.04411e-07
1.0319e-07
1.01824e-07
1.00338e-07
9.87277e-08
9.69968e-08
9.51457e-08
9.32162e-08
9.12032e-08
8.91077e-08
8.69579e-08
8.47658e-08
8.2525e-08
5.06366e-08
5.23657e-08
5.40922e-08
5.58133e-08
5.75209e-08
5.92079e-08
6.08855e-08
6.25247e-08
6.41269e-08
6.56756e-08
6.71825e-08
6.86267e-08
7.00051e-08
7.1308e-08
7.25105e-08
7.36488e-08
7.46815e-08
7.56091e-08
7.64276e-08
7.71418e-08
7.77286e-08
7.8211e-08
7.85718e-08
7.88258e-08
7.89561e-08
7.8955e-08
7.8838e-08
7.85937e-08
7.8227e-08
7.77541e-08
7.71489e-08
7.6435e-08
7.56127e-08
7.4692e-08
7.36616e-08
7.2542e-08
7.13308e-08
7.00297e-08
6.86403e-08
6.71935e-08
6.5686e-08
6.41192e-08
6.25137e-08
6.0879e-08
5.92104e-08
5.75085e-08
3.4901e-08
3.61281e-08
3.73551e-08
3.85802e-08
3.97977e-08
4.10025e-08
4.22021e-08
4.33759e-08
4.45249e-08
4.56371e-08
4.67205e-08
4.77601e-08
4.87534e-08
4.96933e-08
5.05621e-08
5.13847e-08
5.21318e-08
5.28034e-08
5.33965e-08
5.39143e-08
5.43402e-08
5.46903e-08
5.49523e-08
5.51366e-08
5.52311e-08
5.52303e-08
5.51453e-08
5.49679e-08
5.47018e-08
5.43584e-08
5.39195e-08
5.34019e-08
5.28061e-08
5.21393e-08
5.1394e-08
5.05844e-08
4.97096e-08
4.87709e-08
4.77698e-08
4.67283e-08
4.56444e-08
4.45195e-08
4.33681e-08
4.21973e-08
4.10041e-08
3.9789e-08
2.31409e-08
2.39742e-08
2.48086e-08
2.56428e-08
2.6473e-08
2.72958e-08
2.81159e-08
2.89195e-08
2.9707e-08
3.04703e-08
3.12146e-08
3.19296e-08
3.26134e-08
3.32611e-08
3.38606e-08
3.44284e-08
3.49445e-08
3.54089e-08
3.58192e-08
3.61776e-08
3.64727e-08
3.67152e-08
3.68969e-08
3.70246e-08
3.70901e-08
3.70896e-08
3.70306e-08
3.69076e-08
3.67233e-08
3.64852e-08
3.61813e-08
3.58231e-08
3.54108e-08
3.49497e-08
3.44348e-08
3.38758e-08
3.32723e-08
3.26253e-08
3.19362e-08
3.12199e-08
3.04752e-08
2.97033e-08
2.89142e-08
2.81126e-08
2.72967e-08
2.64672e-08
2.56377e-08
1.46903e-08
1.52293e-08
1.57694e-08
1.63101e-08
1.68489e-08
1.73834e-08
1.79167e-08
1.844e-08
1.89532e-08
1.94512e-08
1.99373e-08
2.04046e-08
2.0852e-08
2.1276e-08
2.1669e-08
2.20412e-08
2.23799e-08
2.26848e-08
2.29544e-08
2.31899e-08
2.33841e-08
2.35435e-08
2.36631e-08
2.37471e-08
2.37902e-08
2.37899e-08
2.3751e-08
2.36701e-08
2.35489e-08
2.33922e-08
2.31924e-08
2.29569e-08
2.26861e-08
2.23833e-08
2.20454e-08
2.16788e-08
2.12833e-08
2.08597e-08
2.04089e-08
1.99407e-08
1.94544e-08
1.89508e-08
1.84365e-08
1.79146e-08
1.73839e-08
1.68451e-08
1.63069e-08
8.87547e-09
9.20542e-09
9.53635e-09
9.86794e-09
1.01986e-08
1.0527e-08
1.08549e-08
1.11769e-08
1.1493e-08
1.18e-08
1.20998e-08
1.23884e-08
1.26647e-08
1.29268e-08
1.317e-08
1.34003e-08
1.36101e-08
1.3799e-08
1.39661e-08
1.41122e-08
1.42326e-08
1.43316e-08
1.44058e-08
1.44579e-08
1.44846e-08
1.44845e-08
1.44603e-08
1.44101e-08
1.43349e-08
1.42376e-08
1.41137e-08
1.39677e-08
1.37998e-08
1.36122e-08
1.3403e-08
1.3176e-08
1.29313e-08
1.26694e-08
1.2391e-08
1.21019e-08
1.18019e-08
1.14916e-08
1.11748e-08
1.08536e-08
1.05273e-08
1.01963e-08
9.86594e-09
5.06335e-09
5.25308e-09
5.44347e-09
5.63436e-09
5.82485e-09
6.01417e-09
6.20328e-09
6.38912e-09
6.57167e-09
6.74907e-09
6.9224e-09
7.08931e-09
7.24924e-09
7.40102e-09
7.5419e-09
7.67539e-09
7.797e-09
7.90658e-09
8.00357e-09
8.08831e-09
8.15826e-09
8.21571e-09
8.25883e-09
8.28909e-09
8.30459e-09
8.30451e-09
8.29049e-09
8.26133e-09
8.21764e-09
8.16115e-09
8.08923e-09
8.00449e-09
7.90709e-09
7.79824e-09
7.67693e-09
7.54538e-09
7.40362e-09
7.25197e-09
7.09083e-09
6.9236e-09
6.75016e-09
6.57083e-09
6.3879e-09
6.20251e-09
6.01431e-09
5.82354e-09
5.63321e-09
2.69835e-09
2.79974e-09
2.90151e-09
3.00358e-09
3.10547e-09
3.20678e-09
3.30801e-09
3.40753e-09
3.50533e-09
3.60041e-09
3.69333e-09
3.78284e-09
3.86864e-09
3.95009e-09
4.02572e-09
4.09739e-09
4.16271e-09
4.22158e-09
4.2737e-09
4.31923e-09
4.35684e-09
4.38772e-09
4.41091e-09
4.42718e-09
4.43551e-09
4.43547e-09
4.42793e-09
4.41225e-09
4.38876e-09
4.35839e-09
4.31973e-09
4.27419e-09
4.22186e-09
4.16338e-09
4.09823e-09
4.02759e-09
3.95149e-09
3.8701e-09
3.78366e-09
3.69397e-09
3.60098e-09
3.50488e-09
3.40688e-09
3.3076e-09
3.20685e-09
3.10477e-09
3.00296e-09
1.32305e-09
1.37265e-09
1.42242e-09
1.47234e-09
1.52219e-09
1.57175e-09
1.62129e-09
1.67e-09
1.71786e-09
1.76441e-09
1.8099e-09
1.85374e-09
1.89576e-09
1.93566e-09
1.97271e-09
2.00783e-09
2.03983e-09
2.06868e-09
2.09422e-09
2.11654e-09
2.13498e-09
2.15011e-09
2.16148e-09
2.16946e-09
2.17354e-09
2.17353e-09
2.16983e-09
2.16214e-09
2.15063e-09
2.13574e-09
2.11679e-09
2.09447e-09
2.06882e-09
2.04016e-09
2.00824e-09
1.97363e-09
1.93634e-09
1.89648e-09
1.85414e-09
1.81022e-09
1.76469e-09
1.71764e-09
1.66967e-09
1.62109e-09
1.57179e-09
1.52184e-09
1.47204e-09
1.42207e-09
5.83754e-10
6.05458e-10
6.27231e-10
6.49068e-10
6.70868e-10
6.92542e-10
7.14202e-10
7.35497e-10
7.56425e-10
7.76771e-10
7.96659e-10
8.1582e-10
8.34188e-10
8.51626e-10
8.67819e-10
8.83168e-10
8.97156e-10
9.09764e-10
9.20926e-10
9.3068e-10
9.38734e-10
9.45349e-10
9.50317e-10
9.53803e-10
9.55589e-10
9.55582e-10
9.53966e-10
9.50608e-10
9.45577e-10
9.39069e-10
9.3079e-10
9.21035e-10
9.09825e-10
8.97301e-10
8.8335e-10
8.68224e-10
8.5193e-10
8.34505e-10
8.15998e-10
7.96799e-10
7.76896e-10
7.56328e-10
7.35356e-10
7.14112e-10
6.92556e-10
6.70715e-10
6.48934e-10
6.27079e-10
2.24045e-10
2.3225e-10
2.40475e-10
2.48721e-10
2.56949e-10
2.65127e-10
2.73297e-10
2.81326e-10
2.89214e-10
2.96881e-10
3.04373e-10
3.1159e-10
3.18506e-10
3.2507e-10
3.31164e-10
3.36941e-10
3.42204e-10
3.46946e-10
3.51144e-10
3.54811e-10
3.57839e-10
3.60326e-10
3.62194e-10
3.63505e-10
3.64177e-10
3.64174e-10
3.63567e-10
3.62305e-10
3.60413e-10
3.57967e-10
3.54853e-10
3.51185e-10
3.46969e-10
3.42259e-10
3.3701e-10
3.31319e-10
3.25186e-10
3.18627e-10
3.11657e-10
3.04426e-10
2.96928e-10
2.89177e-10
2.81272e-10
2.73262e-10
2.65132e-10
2.56891e-10
2.4867e-10
2.40417e-10
7.08222e-11
7.33515e-11
7.58843e-11
7.84212e-11
8.09506e-11
8.34626e-11
8.5971e-11
8.84345e-11
9.0853e-11
9.32022e-11
9.5497e-11
9.77061e-11
9.98224e-11
1.0183e-10
1.03693e-10
1.05458e-10
1.07066e-10
1.08514e-10
1.09795e-10
1.10914e-10
1.11838e-10
1.12596e-10
1.13166e-10
1.13566e-10
1.13771e-10
1.13771e-10
1.13586e-10
1.13201e-10
1.12624e-10
1.11878e-10
1.10928e-10
1.09808e-10
1.08521e-10
1.07083e-10
1.0548e-10
1.03741e-10
1.01866e-10
9.98602e-11
9.77273e-11
9.55136e-11
9.32171e-11
9.08415e-11
8.84175e-11
8.59603e-11
8.34643e-11
8.09323e-11
7.8405e-11
7.5866e-11
1.67716e-11
1.73458e-11
1.79197e-11
1.84937e-11
1.90653e-11
1.96321e-11
2.01977e-11
2.07524e-11
2.12964e-11
2.18242e-11
2.23395e-11
2.2835e-11
2.33093e-11
2.3759e-11
2.41756e-11
2.45705e-11
2.49298e-11
2.52531e-11
2.5539e-11
2.57888e-11
2.59945e-11
2.61636e-11
2.62905e-11
2.63798e-11
2.64256e-11
2.64254e-11
2.63843e-11
2.62985e-11
2.61699e-11
2.60037e-11
2.57918e-11
2.5542e-11
2.52548e-11
2.49337e-11
2.45755e-11
2.41867e-11
2.37674e-11
2.33181e-11
2.28399e-11
2.23433e-11
2.18277e-11
2.12938e-11
2.07484e-11
2.01952e-11
1.96325e-11
1.9061e-11
1.84899e-11
1.79154e-11
2.48059e-12
2.55912e-12
2.63735e-12
2.71541e-12
2.79293e-12
2.86963e-12
2.94604e-12
3.0208e-12
3.09399e-12
3.16484e-12
3.23393e-12
3.30025e-12
3.36365e-12
3.42366e-12
3.47914e-12
3.53173e-12
3.5795e-12
3.62243e-12
3.66034e-12
3.69343e-12
3.72064e-12
3.74302e-12
3.75979e-12
3.77164e-12
3.77772e-12
3.77769e-12
3.77227e-12
3.76092e-12
3.7439e-12
3.72194e-12
3.69386e-12
3.66075e-12
3.62266e-12
3.58006e-12
3.53244e-12
3.48073e-12
3.42487e-12
3.36491e-12
3.30096e-12
3.23448e-12
3.16535e-12
3.09361e-12
3.02023e-12
2.94568e-12
2.86969e-12
2.79231e-12
2.71485e-12
2.63673e-12
1.53696e-13
1.57776e-13
1.61816e-13
1.65825e-13
1.69785e-13
1.73685e-13
1.77558e-13
1.8133e-13
1.85008e-13
1.88552e-13
1.92e-13
1.95299e-13
1.98444e-13
2.01412e-13
2.0414e-13
2.06731e-13
2.09073e-13
2.11173e-13
2.13021e-13
2.14634e-13
2.15952e-13
2.17039e-13
2.17852e-13
2.18431e-13
2.18729e-13
2.18727e-13
2.18467e-13
2.17916e-13
2.17089e-13
2.16027e-13
2.14658e-13
2.13045e-13
2.11185e-13
2.09105e-13
2.06771e-13
2.04232e-13
2.01481e-13
1.98517e-13
1.9534e-13
1.92033e-13
1.88581e-13
1.84985e-13
1.81296e-13
1.77537e-13
1.73689e-13
1.69748e-13
1.65791e-13
1.61778e-13
1.44299e-15
1.46575e-15
1.48789e-15
1.50959e-15
1.53077e-15
1.55136e-15
1.57176e-15
1.59137e-15
1.61034e-15
1.6284e-15
1.64595e-15
1.6626e-15
1.67839e-15
1.6932e-15
1.70657e-15
1.71941e-15
1.73087e-15
1.74105e-15
1.74994e-15
1.7577e-15
1.7639e-15
1.76908e-15
1.77292e-15
1.77577e-15
1.77725e-15
1.77724e-15
1.77604e-15
1.77342e-15
1.76947e-15
1.76448e-15
1.75788e-15
1.75011e-15
1.74114e-15
1.73111e-15
1.71972e-15
1.70731e-15
1.69376e-15
1.67899e-15
1.66294e-15
1.64622e-15
1.62865e-15
1.61015e-15
1.59109e-15
1.57158e-15
1.55141e-15
1.53044e-15
1.50931e-15
1.48756e-15
2.98712e-06
2.86216e-06
2.73881e-06
2.61715e-06
2.49725e-06
2.37915e-06
2.26294e-06
2.1487e-06
2.0365e-06
1.92641e-06
1.81852e-06
1.7129e-06
1.60964e-06
1.5088e-06
1.41049e-06
1.31479e-06
1.2218e-06
1.13161e-06
1.0443e-06
9.59946e-07
8.78547e-07
7.99782e-07
7.20745e-07
6.41816e-07
5.66418e-07
4.94849e-07
4.2743e-07
3.64491e-07
3.06355e-07
2.5333e-07
2.05677e-07
1.63588e-07
1.27157e-07
9.63423e-08
7.09527e-08
5.06372e-08
3.49015e-08
2.31412e-08
1.46905e-08
8.8756e-09
5.06342e-09
2.69839e-09
1.32307e-09
5.83763e-10
2.24048e-10
7.08232e-11
1.67718e-11
2.48063e-12
1.53698e-13
1.44301e-15
3.0228e-06
2.89683e-06
2.77247e-06
2.6498e-06
2.52887e-06
2.40975e-06
2.29252e-06
2.17724e-06
2.064e-06
1.95285e-06
1.84389e-06
1.7372e-06
1.63285e-06
1.53094e-06
1.43157e-06
1.33481e-06
1.24077e-06
1.14953e-06
1.06118e-06
9.75797e-07
8.93411e-07
8.13776e-07
7.34776e-07
6.54827e-07
5.78392e-07
5.05779e-07
4.37308e-07
3.73313e-07
3.14129e-07
2.60069e-07
2.11412e-07
1.68366e-07
1.31039e-07
9.94092e-08
7.32992e-08
5.23697e-08
3.61308e-08
2.39761e-08
1.52305e-08
9.20615e-09
5.2535e-09
2.79997e-09
1.37276e-09
6.05507e-10
2.32269e-10
7.33575e-11
1.73471e-11
2.55932e-12
1.57789e-13
1.46585e-15
3.05745e-06
2.93054e-06
2.80522e-06
2.68155e-06
2.55962e-06
2.4395e-06
2.32126e-06
2.20496e-06
2.0907e-06
1.97853e-06
1.86854e-06
1.76081e-06
1.65544e-06
1.55251e-06
1.4521e-06
1.35431e-06
1.25924e-06
1.16697e-06
1.07761e-06
9.91233e-07
9.07878e-07
8.27408e-07
7.48494e-07
6.67551e-07
5.90112e-07
5.16483e-07
4.4699e-07
3.81972e-07
3.21769e-07
2.66705e-07
2.1707e-07
1.73088e-07
1.34884e-07
1.02452e-07
7.56323e-08
5.40953e-08
3.73573e-08
2.48101e-08
1.57704e-08
9.537e-09
5.44385e-09
2.90171e-09
1.42252e-09
6.27276e-10
2.40493e-10
7.58897e-11
1.79209e-11
2.63753e-12
1.61826e-13
1.48798e-15
3.09093e-06
2.96314e-06
2.83692e-06
2.71234e-06
2.58948e-06
2.4684e-06
2.34918e-06
2.2319e-06
2.11664e-06
2.00348e-06
1.89249e-06
1.78377e-06
1.6774e-06
1.57347e-06
1.47206e-06
1.37328e-06
1.27722e-06
1.18398e-06
1.09363e-06
1.00629e-06
9.22008e-07
8.40729e-07
7.61869e-07
6.80028e-07
6.01622e-07
5.27011e-07
4.56528e-07
3.90515e-07
3.29317e-07
2.73271e-07
2.22678e-07
1.77777e-07
1.38708e-07
1.05485e-07
7.79609e-08
5.58205e-08
3.85854e-08
2.56464e-08
1.63125e-08
9.86937e-09
5.63519e-09
3.00402e-09
1.47256e-09
6.49165e-10
2.48758e-10
7.84328e-11
1.84964e-11
2.7158e-12
1.65848e-13
1.50979e-15
3.12323e-06
2.99456e-06
2.86745e-06
2.742e-06
2.61826e-06
2.49629e-06
2.37616e-06
2.25797e-06
2.14178e-06
2.0277e-06
1.91578e-06
1.80611e-06
1.6988e-06
1.59392e-06
1.49157e-06