/*--------------------------------*- C++ -*----------------------------------*\
  =========                 |
  \\      /  F ield         | OpenFOAM: The Open Source CFD Toolbox
   \\    /   O peration     | Website:  https://openfoam.org
    \\  /    A nd           | Version:  7
     \\/     M anipulation  |
\*---------------------------------------------------------------------------*/
FoamFile
{
    version     2.0;
    format      ascii;
    class       volScalarField;
    location    "24000";
    object      k;
}
// * * * * * * * * * * * * * * * * * * * * * * * * * * * * * * * * * * * * * //

dimensions      [0 2 -2 0 0 0 0];

internalField   nonuniform List<scalar> 
4782
(
1.02388e-06
1.01832e-06
1.01228e-06
1.00571e-06
9.98591e-07
9.90874e-07
9.82522e-07
9.73486e-07
9.6372e-07
9.53167e-07
1.02464e-06
1.02758e-06
1.03042e-06
1.03318e-06
1.03584e-06
1.03841e-06
1.04087e-06
1.04325e-06
1.04552e-06
1.04769e-06
1.04976e-06
1.05172e-06
1.05357e-06
1.05531e-06
1.05694e-06
1.05845e-06
1.05985e-06
1.06112e-06
1.06227e-06
1.06329e-06
1.06418e-06
1.06494e-06
1.06556e-06
1.06603e-06
1.06635e-06
1.06652e-06
1.06653e-06
1.06638e-06
1.06604e-06
1.06552e-06
1.06481e-06
1.0639e-06
1.06277e-06
1.06142e-06
1.05984e-06
1.05801e-06
1.05592e-06
1.05356e-06
1.05091e-06
1.04796e-06
1.04468e-06
1.04107e-06
1.03709e-06
1.03273e-06
1.02797e-06
1.02278e-06
1.01712e-06
1.01097e-06
1.0043e-06
9.97067e-07
9.89236e-07
9.80763e-07
9.71603e-07
9.61707e-07
9.51019e-07
1.02598e-06
1.02888e-06
1.03168e-06
1.0344e-06
1.03702e-06
1.03954e-06
1.04197e-06
1.0443e-06
1.04653e-06
1.04866e-06
1.05069e-06
1.0526e-06
1.05441e-06
1.05611e-06
1.0577e-06
1.05917e-06
1.06052e-06
1.06175e-06
1.06285e-06
1.06383e-06
1.06468e-06
1.06538e-06
1.06595e-06
1.06638e-06
1.06665e-06
1.06677e-06
1.06673e-06
1.06652e-06
1.06613e-06
1.06555e-06
1.06478e-06
1.06381e-06
1.06262e-06
1.0612e-06
1.05955e-06
1.05766e-06
1.0555e-06
1.05306e-06
1.05034e-06
1.04731e-06
1.04395e-06
1.04025e-06
1.03619e-06
1.03174e-06
1.02688e-06
1.02159e-06
1.01583e-06
1.00958e-06
1.00279e-06
9.95448e-07
9.87497e-07
9.789e-07
9.6961e-07
9.59578e-07
9.4875e-07
1.02732e-06
1.03018e-06
1.03294e-06
1.03561e-06
1.03819e-06
1.04067e-06
1.04306e-06
1.04535e-06
1.04754e-06
1.04962e-06
1.0516e-06
1.05348e-06
1.05524e-06
1.0569e-06
1.05844e-06
1.05986e-06
1.06117e-06
1.06235e-06
1.06341e-06
1.06434e-06
1.06514e-06
1.0658e-06
1.06632e-06
1.06669e-06
1.06692e-06
1.06699e-06
1.06689e-06
1.06662e-06
1.06617e-06
1.06554e-06
1.06471e-06
1.06367e-06
1.06242e-06
1.06093e-06
1.05922e-06
1.05725e-06
1.05501e-06
1.0525e-06
1.0497e-06
1.04659e-06
1.04315e-06
1.03936e-06
1.03521e-06
1.03067e-06
1.02572e-06
1.02032e-06
1.01446e-06
1.0081e-06
1.0012e-06
9.93735e-07
9.85661e-07
9.76935e-07
9.67512e-07
9.5734e-07
9.46367e-07
1.02866e-06
1.03147e-06
1.0342e-06
1.03683e-06
1.03936e-06
1.0418e-06
1.04414e-06
1.04639e-06
1.04853e-06
1.05057e-06
1.0525e-06
1.05433e-06
1.05605e-06
1.05766e-06
1.05915e-06
1.06053e-06
1.06179e-06
1.06292e-06
1.06393e-06
1.06481e-06
1.06556e-06
1.06617e-06
1.06664e-06
1.06696e-06
1.06714e-06
1.06715e-06
1.06699e-06
1.06667e-06
1.06616e-06
1.06546e-06
1.06457e-06
1.06346e-06
1.06214e-06
1.06059e-06
1.0588e-06
1.05676e-06
1.05445e-06
1.05186e-06
1.04897e-06
1.04578e-06
1.04225e-06
1.03838e-06
1.03413e-06
1.02949e-06
1.02444e-06
1.01894e-06
1.01297e-06
1.00649e-06
9.9948e-07
9.91892e-07
9.83691e-07
9.74832e-07
9.6527e-07
9.54954e-07
9.4383e-07
1.02866e-06
1.03147e-06
1.03419e-06
1.03682e-06
1.03936e-06
1.0418e-06
1.04414e-06
1.04638e-06
1.04853e-06
1.05057e-06
1.0525e-06
1.05433e-06
1.05605e-06
1.05766e-06
1.05915e-06
1.06053e-06
1.06179e-06
1.06292e-06
1.06393e-06
1.06481e-06
1.06556e-06
1.06617e-06
1.06664e-06
1.06696e-06
1.06713e-06
1.06715e-06
1.06699e-06
1.06667e-06
1.06616e-06
1.06546e-06
1.06456e-06
1.06346e-06
1.06214e-06
1.06059e-06
1.0588e-06
1.05675e-06
1.05445e-06
1.05186e-06
1.04897e-06
1.04578e-06
1.04225e-06
1.03838e-06
1.03413e-06
1.02949e-06
1.02444e-06
1.01894e-06
1.01297e-06
1.00649e-06
9.99477e-07
9.9189e-07
9.83688e-07
9.7483e-07
9.65268e-07
9.54952e-07
9.43829e-07
1.02731e-06
1.03017e-06
1.03293e-06
1.03561e-06
1.03818e-06
1.04067e-06
1.04305e-06
1.04534e-06
1.04753e-06
1.04961e-06
1.0516e-06
1.05347e-06
1.05524e-06
1.05689e-06
1.05843e-06
1.05986e-06
1.06116e-06
1.06235e-06
1.0634e-06
1.06433e-06
1.06513e-06
1.06579e-06
1.06631e-06
1.06669e-06
1.06691e-06
1.06698e-06
1.06688e-06
1.06661e-06
1.06617e-06
1.06553e-06
1.0647e-06
1.06366e-06
1.06241e-06
1.06093e-06
1.05921e-06
1.05724e-06
1.05501e-06
1.05249e-06
1.04969e-06
1.04658e-06
1.04314e-06
1.03936e-06
1.0352e-06
1.03066e-06
1.02571e-06
1.02031e-06
1.01445e-06
1.00809e-06
1.00119e-06
9.93727e-07
9.85653e-07
9.76928e-07
9.67505e-07
9.57334e-07
9.46361e-07
9.34528e-07
9.21772e-07
9.08027e-07
8.9322e-07
1.02597e-06
1.02886e-06
1.03167e-06
1.03438e-06
1.037e-06
1.03953e-06
1.04196e-06
1.04429e-06
1.04652e-06
1.04865e-06
1.05067e-06
1.05259e-06
1.0544e-06
1.0561e-06
1.05768e-06
1.05915e-06
1.0605e-06
1.06173e-06
1.06284e-06
1.06381e-06
1.06466e-06
1.06537e-06
1.06594e-06
1.06636e-06
1.06664e-06
1.06676e-06
1.06671e-06
1.0665e-06
1.06611e-06
1.06553e-06
1.06476e-06
1.06379e-06
1.0626e-06
1.06118e-06
1.05953e-06
1.05764e-06
1.05548e-06
1.05304e-06
1.05032e-06
1.04729e-06
1.04393e-06
1.04023e-06
1.03617e-06
1.03172e-06
1.02686e-06
1.02157e-06
1.01581e-06
1.00956e-06
1.00278e-06
9.95431e-07
9.87481e-07
9.78884e-07
9.69595e-07
9.59563e-07
9.48736e-07
9.37054e-07
9.24455e-07
9.10872e-07
8.96233e-07
8.80461e-07
1.02462e-06
1.02756e-06
1.0304e-06
1.03316e-06
1.03582e-06
1.03838e-06
1.04085e-06
1.04322e-06
1.04549e-06
1.04766e-06
1.04973e-06
1.05169e-06
1.05354e-06
1.05528e-06
1.05691e-06
1.05842e-06
1.05982e-06
1.06109e-06
1.06224e-06
1.06326e-06
1.06415e-06
1.06491e-06
1.06552e-06
1.06599e-06
1.06632e-06
1.06649e-06
1.0665e-06
1.06634e-06
1.066e-06
1.06549e-06
1.06477e-06
1.06386e-06
1.06273e-06
1.06138e-06
1.0598e-06
1.05797e-06
1.05588e-06
1.05352e-06
1.05087e-06
1.04791e-06
1.04464e-06
1.04102e-06
1.03705e-06
1.03269e-06
1.02792e-06
1.02273e-06
1.01707e-06
1.01092e-06
1.00425e-06
9.97015e-07
9.89183e-07
9.80709e-07
9.71549e-07
9.61651e-07
9.50963e-07
9.39426e-07
9.26978e-07
9.13552e-07
8.99075e-07
8.83471e-07
8.66658e-07
8.4855e-07
8.29057e-07
8.08087e-07
7.85547e-07
7.61342e-07
7.35383e-07
7.07587e-07
6.7788e-07
6.46208e-07
6.12536e-07
5.76854e-07
5.39117e-07
4.99347e-07
4.57704e-07
4.14489e-07
3.70152e-07
3.25307e-07
2.8073e-07
2.37331e-07
1.96086e-07
1.57943e-07
1.23711e-07
9.39639e-08
6.89743e-08
4.87141e-08
3.28955e-08
2.10436e-08
1.25755e-08
6.86753e-09
3.30508e-09
1.31404e-09
3.79596e-10
5.92533e-11
2.2949e-12
1.02328e-06
1.02626e-06
1.02914e-06
1.03193e-06
1.03463e-06
1.03723e-06
1.03974e-06
1.04215e-06
1.04446e-06
1.04667e-06
1.04878e-06
1.05078e-06
1.05267e-06
1.05445e-06
1.05612e-06
1.05768e-06
1.05912e-06
1.06043e-06
1.06162e-06
1.06269e-06
1.06362e-06
1.06442e-06
1.06508e-06
1.0656e-06
1.06597e-06
1.06619e-06
1.06625e-06
1.06615e-06
1.06586e-06
1.0654e-06
1.06474e-06
1.06389e-06
1.06282e-06
1.06153e-06
1.06001e-06
1.05825e-06
1.05623e-06
1.05393e-06
1.05136e-06
1.04848e-06
1.04528e-06
1.04175e-06
1.03786e-06
1.03359e-06
1.02891e-06
1.02381e-06
1.01825e-06
1.0122e-06
1.00564e-06
9.98516e-07
9.90799e-07
9.82446e-07
9.73411e-07
9.63644e-07
9.53091e-07
9.41695e-07
9.29394e-07
9.1612e-07
9.01801e-07
8.8636e-07
8.69715e-07
8.51779e-07
8.32461e-07
8.11669e-07
7.89307e-07
7.65281e-07
7.39496e-07
7.11868e-07
6.8232e-07
6.50792e-07
6.17246e-07
5.81667e-07
5.44018e-07
5.04302e-07
4.62663e-07
4.19388e-07
3.74916e-07
3.29852e-07
2.84969e-07
2.41178e-07
1.99472e-07
1.60822e-07
1.26069e-07
9.58168e-08
7.03677e-08
4.97131e-08
3.35747e-08
2.14779e-08
1.2833e-08
7.00603e-09
3.37003e-09
1.33875e-09
3.86154e-10
6.00908e-11
2.31187e-12
1.02196e-06
1.02497e-06
1.02789e-06
1.03072e-06
1.03345e-06
1.03609e-06
1.03864e-06
1.04109e-06
1.04344e-06
1.04568e-06
1.04783e-06
1.04987e-06
1.0518e-06
1.05362e-06
1.05533e-06
1.05693e-06
1.05841e-06
1.05977e-06
1.061e-06
1.06211e-06
1.06308e-06
1.06393e-06
1.06463e-06
1.0652e-06
1.06561e-06
1.06588e-06
1.06599e-06
1.06593e-06
1.0657e-06
1.06529e-06
1.06469e-06
1.06389e-06
1.06288e-06
1.06165e-06
1.06019e-06
1.05849e-06
1.05654e-06
1.05431e-06
1.05181e-06
1.049e-06
1.04588e-06
1.04243e-06
1.03862e-06
1.03443e-06
1.02984e-06
1.02483e-06
1.01937e-06
1.01342e-06
1.00695e-06
9.99938e-07
9.92333e-07
9.84096e-07
9.75181e-07
9.6554e-07
9.55118e-07
9.43859e-07
9.317e-07
9.18573e-07
9.04406e-07
8.89123e-07
8.7264e-07
8.54871e-07
8.35724e-07
8.15105e-07
7.92917e-07
7.69063e-07
7.43449e-07
7.15986e-07
6.86594e-07
6.55209e-07
6.21788e-07
5.86312e-07
5.48752e-07
5.09094e-07
4.67465e-07
4.24139e-07
3.79544e-07
3.34275e-07
2.89101e-07
2.44937e-07
2.02787e-07
1.63647e-07
1.28386e-07
9.76399e-08
7.17403e-08
5.0698e-08
3.42447e-08
2.19064e-08
1.30872e-08
7.14269e-09
3.43409e-09
1.3631e-09
3.92611e-10
6.09133e-11
2.32847e-12
1.02065e-06
1.0237e-06
1.02665e-06
1.02952e-06
1.03229e-06
1.03497e-06
1.03755e-06
1.04004e-06
1.04242e-06
1.04471e-06
1.04689e-06
1.04897e-06
1.05094e-06
1.0528e-06
1.05455e-06
1.05618e-06
1.0577e-06
1.0591e-06
1.06037e-06
1.06152e-06
1.06254e-06
1.06343e-06
1.06418e-06
1.06479e-06
1.06525e-06
1.06556e-06
1.06571e-06
1.0657e-06
1.06552e-06
1.06516e-06
1.06461e-06
1.06387e-06
1.06292e-06
1.06175e-06
1.06035e-06
1.05871e-06
1.05682e-06
1.05466e-06
1.05222e-06
1.04949e-06
1.04644e-06
1.04306e-06
1.03933e-06
1.03522e-06
1.03072e-06
1.02579e-06
1.02042e-06
1.01457e-06
1.0082e-06
1.00129e-06
9.93787e-07
9.85661e-07
9.76862e-07
9.67341e-07
9.57045e-07
9.45916e-07
9.33893e-07
9.20907e-07
9.06886e-07
8.91754e-07
8.75427e-07
8.57818e-07
8.38834e-07
8.18381e-07
7.96361e-07
7.72675e-07
7.47226e-07
7.19922e-07
6.90681e-07
6.59435e-07
6.26137e-07
5.90765e-07
5.53294e-07
5.13697e-07
4.72082e-07
4.28714e-07
3.84008e-07
3.38549e-07
2.93101e-07
2.48583e-07
2.0601e-07
1.66398e-07
1.30646e-07
9.94218e-08
7.30834e-08
5.16627e-08
3.49013e-08
2.23264e-08
1.33363e-08
7.27662e-09
3.49684e-09
1.38693e-09
3.98923e-10
6.1715e-11
2.34455e-12
1.01938e-06
1.02246e-06
1.02545e-06
1.02835e-06
1.03116e-06
1.03387e-06
1.03649e-06
1.03901e-06
1.04143e-06
1.04375e-06
1.04597e-06
1.04808e-06
1.05009e-06
1.05199e-06
1.05377e-06
1.05545e-06
1.057e-06
1.05844e-06
1.05976e-06
1.06094e-06
1.062e-06
1.06293e-06
1.06372e-06
1.06437e-06
1.06488e-06
1.06523e-06
1.06543e-06
1.06547e-06
1.06533e-06
1.06502e-06
1.06453e-06
1.06383e-06
1.06293e-06
1.06182e-06
1.06048e-06
1.0589e-06
1.05707e-06
1.05497e-06
1.0526e-06
1.04993e-06
1.04695e-06
1.04364e-06
1.03999e-06
1.03596e-06
1.03154e-06
1.02669e-06
1.02141e-06
1.01564e-06
1.00937e-06
1.00256e-06
9.95158e-07
9.87137e-07
9.78448e-07
9.69042e-07
9.58866e-07
9.47862e-07
9.35968e-07
9.23116e-07
9.09236e-07
8.94248e-07
8.78071e-07
8.60615e-07
8.41789e-07
8.21496e-07
7.99637e-07
7.76112e-07
7.50822e-07
7.23674e-07
6.9458e-07
6.63471e-07
6.30295e-07
5.95025e-07
5.57644e-07
5.18109e-07
4.76514e-07
4.33112e-07
3.88305e-07
3.4267e-07
2.96966e-07
2.52113e-07
2.09135e-07
1.69071e-07
1.32846e-07
1.01158e-07
7.4394e-08
5.26046e-08
3.55428e-08
2.27369e-08
1.35798e-08
7.4075e-09
3.55815e-09
1.4102e-09
4.05078e-10
6.24948e-11
2.36012e-12
1.01815e-06
1.02126e-06
1.02428e-06
1.02721e-06
1.03005e-06
1.0328e-06
1.03545e-06
1.038e-06
1.04046e-06
1.04281e-06
1.04507e-06
1.04722e-06
1.04926e-06
1.05119e-06
1.05302e-06
1.05473e-06
1.05632e-06
1.05779e-06
1.05915e-06
1.06037e-06
1.06147e-06
1.06244e-06
1.06327e-06
1.06396e-06
1.0645e-06
1.0649e-06
1.06514e-06
1.06522e-06
1.06514e-06
1.06487e-06
1.06442e-06
1.06378e-06
1.06293e-06
1.06187e-06
1.06058e-06
1.05906e-06
1.05729e-06
1.05525e-06
1.05294e-06
1.05034e-06
1.04742e-06
1.04418e-06
1.04059e-06
1.03664e-06
1.03229e-06
1.02753e-06
1.02233e-06
1.01665e-06
1.01046e-06
1.00374e-06
9.9644e-07
9.8852e-07
9.79937e-07
9.7064e-07
9.60578e-07
9.49693e-07
9.37923e-07
9.252e-07
9.11453e-07
8.96603e-07
8.80568e-07
8.6326e-07
8.44584e-07
8.24444e-07
8.0274e-07
7.7937e-07
7.54234e-07
7.27235e-07
6.98285e-07
6.67308e-07
6.3425e-07
5.99081e-07
5.6179e-07
5.22319e-07
4.80748e-07
4.37318e-07
3.92421e-07
3.46624e-07
3.00681e-07
2.55511e-07
2.12151e-07
1.71655e-07
1.34976e-07
1.02842e-07
7.56659e-08
5.35196e-08
3.61662e-08
2.31359e-08
1.38165e-08
7.53471e-09
3.61772e-09
1.4328e-09
4.11047e-10
6.32493e-11
2.3751e-12
1.01696e-06
1.0201e-06
1.02315e-06
1.02612e-06
1.02899e-06
1.03176e-06
1.03445e-06
1.03703e-06
1.03952e-06
1.04191e-06
1.0442e-06
1.04638e-06
1.04846e-06
1.05042e-06
1.05228e-06
1.05403e-06
1.05565e-06
1.05717e-06
1.05855e-06
1.05982e-06
1.06095e-06
1.06196e-06
1.06283e-06
1.06355e-06
1.06414e-06
1.06457e-06
1.06486e-06
1.06498e-06
1.06493e-06
1.06471e-06
1.06431e-06
1.06371e-06
1.06292e-06
1.0619e-06
1.06067e-06
1.0592e-06
1.05748e-06
1.0555e-06
1.05325e-06
1.05071e-06
1.04786e-06
1.04468e-06
1.04116e-06
1.03727e-06
1.033e-06
1.02831e-06
1.02319e-06
1.01759e-06
1.01149e-06
1.00486e-06
9.97646e-07
9.89822e-07
9.81337e-07
9.72144e-07
9.6219e-07
9.51417e-07
9.39764e-07
9.27163e-07
9.13542e-07
8.98823e-07
8.82923e-07
8.65753e-07
8.4722e-07
8.27226e-07
8.05669e-07
7.82448e-07
7.57458e-07
7.30602e-07
7.01789e-07
6.70939e-07
6.37996e-07
6.02925e-07
5.65718e-07
5.2631e-07
4.84766e-07
4.41315e-07
3.96338e-07
3.50394e-07
3.04228e-07
2.58762e-07
2.15041e-07
1.74136e-07
1.37025e-07
1.04464e-07
7.68923e-08
5.44026e-08
3.67681e-08
2.35213e-08
1.40451e-08
7.65756e-09
3.67522e-09
1.4546e-09
4.16799e-10
6.39742e-11
2.38941e-12
1.01582e-06
1.01899e-06
1.02207e-06
1.02506e-06
1.02796e-06
1.03077e-06
1.03349e-06
1.0361e-06
1.03862e-06
1.04104e-06
1.04336e-06
1.04557e-06
1.04768e-06
1.04968e-06
1.05157e-06
1.05335e-06
1.05501e-06
1.05656e-06
1.05798e-06
1.05928e-06
1.06045e-06
1.06149e-06
1.06239e-06
1.06316e-06
1.06378e-06
1.06426e-06
1.06458e-06
1.06474e-06
1.06473e-06
1.06456e-06
1.06419e-06
1.06364e-06
1.06289e-06
1.06192e-06
1.06074e-06
1.05932e-06
1.05765e-06
1.05572e-06
1.05353e-06
1.05104e-06
1.04825e-06
1.04513e-06
1.04168e-06
1.03786e-06
1.03365e-06
1.02903e-06
1.02398e-06
1.01846e-06
1.01244e-06
1.00588e-06
9.9876e-07
9.91025e-07
9.82634e-07
9.73538e-07
9.63685e-07
9.53017e-07
9.41473e-07
9.28986e-07
9.15484e-07
9.00888e-07
8.85115e-07
8.68076e-07
8.49677e-07
8.2982e-07
8.08402e-07
7.85319e-07
7.60468e-07
7.33747e-07
7.05064e-07
6.74337e-07
6.41503e-07
6.06526e-07
5.69393e-07
5.30046e-07
4.88532e-07
4.45067e-07
4.00022e-07
3.53945e-07
3.07577e-07
2.61838e-07
2.1778e-07
1.76492e-07
1.38974e-07
1.06009e-07
7.80622e-08
5.52455e-08
3.73431e-08
2.38895e-08
1.42635e-08
7.77491e-09
3.73012e-09
1.47539e-09
4.22277e-10
6.46619e-11
2.40281e-12
1.01473e-06
1.01793e-06
1.02104e-06
1.02406e-06
1.02699e-06
1.02983e-06
1.03257e-06
1.03521e-06
1.03776e-06
1.04021e-06
1.04256e-06
1.0448e-06
1.04694e-06
1.04897e-06
1.0509e-06
1.0527e-06
1.0544e-06
1.05597e-06
1.05743e-06
1.05876e-06
1.05996e-06
1.06104e-06
1.06198e-06
1.06278e-06
1.06343e-06
1.06394e-06
1.0643e-06
1.0645e-06
1.06453e-06
1.06439e-06
1.06407e-06
1.06356e-06
1.06285e-06
1.06193e-06
1.06079e-06
1.05941e-06
1.0578e-06
1.05592e-06
1.05377e-06
1.05134e-06
1.0486e-06
1.04554e-06
1.04215e-06
1.03839e-06
1.03424e-06
1.02969e-06
1.02471e-06
1.01926e-06
1.01331e-06
1.00683e-06
9.99791e-07
9.92139e-07
9.83835e-07
9.7483e-07
9.65071e-07
9.54502e-07
9.43061e-07
9.30681e-07
9.17289e-07
9.02809e-07
8.87155e-07
8.70239e-07
8.51967e-07
8.32239e-07
8.10952e-07
7.88002e-07
7.63282e-07
7.3669e-07
7.08131e-07
6.7752e-07
6.44792e-07
6.09906e-07
5.72846e-07
5.33558e-07
4.92078e-07
4.48604e-07
4.03499e-07
3.57301e-07
3.10747e-07
2.64754e-07
2.20382e-07
1.78732e-07
1.4083e-07
1.07482e-07
7.9179e-08
5.60508e-08
3.78926e-08
2.42415e-08
1.44724e-08
7.88709e-09
3.78259e-09
1.49526e-09
4.27503e-10
6.53167e-11
2.41552e-12
1.0137e-06
1.01693e-06
1.02006e-06
1.02311e-06
1.02607e-06
1.02893e-06
1.0317e-06
1.03437e-06
1.03695e-06
1.03942e-06
1.0418e-06
1.04407e-06
1.04624e-06
1.0483e-06
1.05025e-06
1.05209e-06
1.05381e-06
1.05542e-06
1.0569e-06
1.05826e-06
1.0595e-06
1.0606e-06
1.06157e-06
1.0624e-06
1.06309e-06
1.06364e-06
1.06403e-06
1.06426e-06
1.06433e-06
1.06422e-06
1.06394e-06
1.06347e-06
1.0628e-06
1.06192e-06
1.06082e-06
1.05949e-06
1.05792e-06
1.05609e-06
1.05399e-06
1.0516e-06
1.04892e-06
1.04591e-06
1.04257e-06
1.03887e-06
1.03478e-06
1.03029e-06
1.02537e-06
1.01998e-06
1.01411e-06
1.0077e-06
1.00073e-06
9.93158e-07
9.84935e-07
9.76015e-07
9.66345e-07
9.55868e-07
9.44523e-07
9.32243e-07
9.18956e-07
9.04583e-07
8.89042e-07
8.72242e-07
8.54088e-07
8.34481e-07
8.13318e-07
7.90491e-07
7.65895e-07
7.39425e-07
7.10983e-07
6.80482e-07
6.47854e-07
6.13055e-07
5.76065e-07
5.36835e-07
4.95388e-07
4.5191e-07
4.06752e-07
3.60447e-07
3.13721e-07
2.67495e-07
2.22831e-07
1.80845e-07
1.42583e-07
1.08875e-07
8.02358e-08
5.68134e-08
3.84133e-08
2.45751e-08
1.46703e-08
7.9934e-09
3.83229e-09
1.51406e-09
4.32447e-10
6.59346e-11
2.42744e-12
1.01273e-06
1.01598e-06
1.01914e-06
1.02222e-06
1.0252e-06
1.02808e-06
1.03088e-06
1.03358e-06
1.03618e-06
1.03868e-06
1.04108e-06
1.04338e-06
1.04557e-06
1.04766e-06
1.04964e-06
1.0515e-06
1.05325e-06
1.05489e-06
1.0564e-06
1.05779e-06
1.05905e-06
1.06019e-06
1.06119e-06
1.06205e-06
1.06277e-06
1.06334e-06
1.06376e-06
1.06403e-06
1.06413e-06
1.06406e-06
1.06381e-06
1.06337e-06
1.06274e-06
1.0619e-06
1.06084e-06
1.05955e-06
1.05802e-06
1.05623e-06
1.05418e-06
1.05184e-06
1.0492e-06
1.04624e-06
1.04295e-06
1.0393e-06
1.03527e-06
1.03084e-06
1.02597e-06
1.02065e-06
1.01484e-06
1.0085e-06
1.0016e-06
9.941e-07
9.85952e-07
9.77111e-07
9.67523e-07
9.57132e-07
9.45876e-07
9.33689e-07
9.20498e-07
9.06226e-07
8.90788e-07
8.74095e-07
8.56052e-07
8.36558e-07
8.15509e-07
7.92798e-07
7.68317e-07
7.4196e-07
7.13628e-07
6.83231e-07
6.50697e-07
6.1598e-07
5.79057e-07
5.39883e-07
4.98469e-07
4.5499e-07
4.09786e-07
3.63383e-07
3.16502e-07
2.7006e-07
2.25126e-07
1.82828e-07
1.4423e-07
1.10185e-07
8.12311e-08
5.75321e-08
3.89041e-08
2.48897e-08
1.48569e-08
8.09364e-09
3.87915e-09
1.53178e-09
4.37102e-10
6.65155e-11
2.43861e-12
1.01183e-06
1.0151e-06
1.01829e-06
1.02138e-06
1.02438e-06
1.02729e-06
1.03011e-06
1.03283e-06
1.03546e-06
1.03798e-06
1.04041e-06
1.04273e-06
1.04495e-06
1.04706e-06
1.04906e-06
1.05095e-06
1.05273e-06
1.05439e-06
1.05593e-06
1.05734e-06
1.05863e-06
1.05979e-06
1.06082e-06
1.06171e-06
1.06246e-06
1.06306e-06
1.06351e-06
1.0638e-06
1.06394e-06
1.0639e-06
1.06368e-06
1.06328e-06
1.06268e-06
1.06187e-06
1.06085e-06
1.05959e-06
1.0581e-06
1.05635e-06
1.05434e-06
1.05204e-06
1.04945e-06
1.04654e-06
1.04329e-06
1.03969e-06
1.03571e-06
1.03133e-06
1.02652e-06
1.02126e-06
1.0155e-06
1.00923e-06
1.00239e-06
9.94956e-07
9.86878e-07
9.78109e-07
9.68597e-07
9.58285e-07
9.47112e-07
9.3501e-07
9.21909e-07
9.07729e-07
8.92387e-07
8.75793e-07
8.57852e-07
8.38462e-07
8.17519e-07
7.94916e-07
7.70542e-07
7.44291e-07
7.16061e-07
6.8576e-07
6.53315e-07
6.18675e-07
5.81816e-07
5.42696e-07
5.01315e-07
4.57836e-07
4.12593e-07
3.66102e-07
3.1908e-07
2.72442e-07
2.2726e-07
1.84674e-07
1.45764e-07
1.11408e-07
8.21601e-08
5.82033e-08
3.93628e-08
2.51837e-08
1.50314e-08
8.18733e-09
3.92294e-09
1.54834e-09
4.41446e-10
6.70568e-11
2.44901e-12
1.011e-06
1.01429e-06
1.01749e-06
1.02061e-06
1.02363e-06
1.02656e-06
1.0294e-06
1.03215e-06
1.03479e-06
1.03734e-06
1.03979e-06
1.04213e-06
1.04437e-06
1.0465e-06
1.04853e-06
1.05044e-06
1.05224e-06
1.05392e-06
1.05549e-06
1.05693e-06
1.05824e-06
1.05943e-06
1.06048e-06
1.06139e-06
1.06216e-06
1.06279e-06
1.06327e-06
1.06359e-06
1.06375e-06
1.06374e-06
1.06355e-06
1.06318e-06
1.06261e-06
1.06184e-06
1.06084e-06
1.05963e-06
1.05817e-06
1.05646e-06
1.05448e-06
1.05222e-06
1.04967e-06
1.0468e-06
1.0436e-06
1.04004e-06
1.03611e-06
1.03177e-06
1.02701e-06
1.0218e-06
1.0161e-06
1.00988e-06
1.0031e-06
9.95725e-07
9.87711e-07
9.79008e-07
9.69564e-07
9.59324e-07
9.48226e-07
9.36202e-07
9.23182e-07
9.09086e-07
8.93832e-07
8.77328e-07
8.5948e-07
8.40186e-07
8.1934e-07
7.96834e-07
7.72559e-07
7.46404e-07
7.18268e-07
6.88057e-07
6.55693e-07
6.21125e-07
5.84325e-07
5.45255e-07
5.03906e-07
4.6043e-07
4.15154e-07
3.68586e-07
3.21438e-07
2.74623e-07
2.29216e-07
1.86369e-07
1.47175e-07
1.12533e-07
8.30159e-08
5.8822e-08
3.97857e-08
2.54549e-08
1.51923e-08
8.27373e-09
3.96331e-09
1.56359e-09
4.45446e-10
6.7554e-11
2.45849e-12
1.01024e-06
1.01355e-06
1.01677e-06
1.0199e-06
1.02295e-06
1.0259e-06
1.02875e-06
1.03152e-06
1.03418e-06
1.03675e-06
1.03922e-06
1.04158e-06
1.04384e-06
1.04599e-06
1.04804e-06
1.04997e-06
1.05179e-06
1.0535e-06
1.05508e-06
1.05654e-06
1.05788e-06
1.05909e-06
1.06016e-06
1.0611e-06
1.06189e-06
1.06254e-06
1.06305e-06
1.06339e-06
1.06358e-06
1.06359e-06
1.06343e-06
1.06308e-06
1.06254e-06
1.0618e-06
1.06084e-06
1.05965e-06
1.05822e-06
1.05655e-06
1.0546e-06
1.05238e-06
1.04986e-06
1.04703e-06
1.04387e-06
1.04035e-06
1.03646e-06
1.03217e-06
1.02745e-06
1.02228e-06
1.01663e-06
1.01046e-06
1.00374e-06
9.96419e-07
9.88462e-07
9.79819e-07
9.70438e-07
9.60263e-07
9.49232e-07
9.37279e-07
9.24332e-07
9.10313e-07
8.95137e-07
8.78715e-07
8.60951e-07
8.41743e-07
8.20985e-07
7.98568e-07
7.74381e-07
7.48314e-07
7.20263e-07
6.90133e-07
6.57844e-07
6.23342e-07
5.86597e-07
5.47574e-07
5.06255e-07
4.62783e-07
4.17479e-07
3.70843e-07
3.23582e-07
2.76608e-07
2.30999e-07
1.87914e-07
1.48464e-07
1.13561e-07
8.37983e-08
5.9388e-08
4.01728e-08
2.57031e-08
1.53396e-08
8.35283e-09
4.00026e-09
1.57755e-09
4.49104e-10
6.80082e-11
2.46714e-12
1.00955e-06
1.01288e-06
1.01612e-06
1.01927e-06
1.02233e-06
1.0253e-06
1.02817e-06
1.03095e-06
1.03363e-06
1.03622e-06
1.0387e-06
1.04109e-06
1.04336e-06
1.04554e-06
1.0476e-06
1.04955e-06
1.05139e-06
1.05311e-06
1.05472e-06
1.0562e-06
1.05755e-06
1.05878e-06
1.05988e-06
1.06083e-06
1.06165e-06
1.06232e-06
1.06284e-06
1.06321e-06
1.06342e-06
1.06346e-06
1.06332e-06
1.063e-06
1.06248e-06
1.06176e-06
1.06083e-06
1.05967e-06
1.05827e-06
1.05662e-06
1.05471e-06
1.05252e-06
1.05003e-06
1.04723e-06
1.0441e-06
1.04062e-06
1.03677e-06
1.03252e-06
1.02784e-06
1.02271e-06
1.01711e-06
1.01098e-06
1.0043e-06
9.97033e-07
9.89127e-07
9.80537e-07
9.71212e-07
9.61094e-07
9.50124e-07
9.38234e-07
9.25353e-07
9.11401e-07
8.96296e-07
8.79947e-07
8.62258e-07
8.43127e-07
8.22448e-07
8.00111e-07
7.76004e-07
7.50016e-07
7.22041e-07
6.91984e-07
6.59762e-07
6.25319e-07
5.88623e-07
5.49643e-07
5.08352e-07
4.64886e-07
4.19557e-07
3.72861e-07
3.25502e-07
2.78387e-07
2.32598e-07
1.89302e-07
1.49622e-07
1.14485e-07
8.45028e-08
5.98979e-08
4.05216e-08
2.59268e-08
1.54723e-08
8.4241e-09
4.03355e-09
1.59012e-09
4.52396e-10
6.84165e-11
2.4749e-12
1.00895e-06
1.01229e-06
1.01554e-06
1.01871e-06
1.02178e-06
1.02477e-06
1.02766e-06
1.03045e-06
1.03315e-06
1.03575e-06
1.03825e-06
1.04065e-06
1.04294e-06
1.04513e-06
1.04721e-06
1.04918e-06
1.05104e-06
1.05277e-06
1.0544e-06
1.05589e-06
1.05727e-06
1.05851e-06
1.05962e-06
1.0606e-06
1.06143e-06
1.06212e-06
1.06267e-06
1.06305e-06
1.06328e-06
1.06334e-06
1.06322e-06
1.06292e-06
1.06243e-06
1.06173e-06
1.06082e-06
1.05968e-06
1.05831e-06
1.05669e-06
1.0548e-06
1.05264e-06
1.05018e-06
1.04741e-06
1.04431e-06
1.04086e-06
1.03704e-06
1.03282e-06
1.02818e-06
1.02309e-06
1.01752e-06
1.01143e-06
1.0048e-06
9.97571e-07
9.89709e-07
9.81166e-07
9.71889e-07
9.61822e-07
9.50905e-07
9.3907e-07
9.26246e-07
9.12354e-07
8.97311e-07
8.81026e-07
8.63403e-07
8.4434e-07
8.2373e-07
8.01463e-07
7.77426e-07
7.51507e-07
7.236e-07
6.93607e-07
6.61445e-07
6.27055e-07
5.90403e-07
5.51462e-07
5.10196e-07
4.66735e-07
4.21386e-07
3.7464e-07
3.27194e-07
2.79957e-07
2.34011e-07
1.9053e-07
1.50646e-07
1.15304e-07
8.51268e-08
6.03497e-08
4.08307e-08
2.61251e-08
1.559e-08
8.4873e-09
4.06306e-09
1.60126e-09
4.55313e-10
6.87779e-11
2.48176e-12
1.00842e-06
1.01178e-06
1.01504e-06
1.01822e-06
1.02131e-06
1.02431e-06
1.02721e-06
1.03002e-06
1.03273e-06
1.03534e-06
1.03786e-06
1.04027e-06
1.04258e-06
1.04478e-06
1.04687e-06
1.04886e-06
1.05073e-06
1.05248e-06
1.05412e-06
1.05563e-06
1.05702e-06
1.05828e-06
1.0594e-06
1.0604e-06
1.06125e-06
1.06195e-06
1.06251e-06
1.06291e-06
1.06316e-06
1.06323e-06
1.06314e-06
1.06285e-06
1.06238e-06
1.0617e-06
1.06081e-06
1.0597e-06
1.05834e-06
1.05674e-06
1.05488e-06
1.05274e-06
1.0503e-06
1.04756e-06
1.04449e-06
1.04106e-06
1.03727e-06
1.03308e-06
1.02847e-06
1.02341e-06
1.01787e-06
1.01182e-06
1.00522e-06
9.98028e-07
9.90205e-07
9.81702e-07
9.72466e-07
9.62443e-07
9.51571e-07
9.39784e-07
9.27009e-07
9.13168e-07
8.98179e-07
8.81949e-07
8.64382e-07
8.45377e-07
8.24827e-07
8.02619e-07
7.78642e-07
7.52784e-07
7.24935e-07
6.94997e-07
6.62887e-07
6.28542e-07
5.91929e-07
5.53021e-07
5.11778e-07
4.68323e-07
4.22957e-07
3.76168e-07
3.2865e-07
2.81308e-07
2.35228e-07
1.91587e-07
1.5153e-07
1.16011e-07
8.5666e-08
6.07402e-08
4.1098e-08
2.62966e-08
1.56918e-08
8.54194e-09
4.08858e-09
1.61089e-09
4.57832e-10
6.90896e-11
2.48765e-12
1.00798e-06
1.01135e-06
1.01462e-06
1.01781e-06
1.02091e-06
1.02392e-06
1.02683e-06
1.02965e-06
1.03238e-06
1.035e-06
1.03753e-06
1.03995e-06
1.04227e-06
1.04448e-06
1.04659e-06
1.04858e-06
1.05047e-06
1.05223e-06
1.05388e-06
1.05541e-06
1.05681e-06
1.05808e-06
1.05922e-06
1.06022e-06
1.06109e-06
1.06181e-06
1.06238e-06
1.0628e-06
1.06305e-06
1.06315e-06
1.06306e-06
1.0628e-06
1.06234e-06
1.06168e-06
1.0608e-06
1.0597e-06
1.05837e-06
1.05679e-06
1.05494e-06
1.05282e-06
1.05041e-06
1.04769e-06
1.04463e-06
1.04123e-06
1.03746e-06
1.0333e-06
1.02871e-06
1.02368e-06
1.01817e-06
1.01215e-06
1.00557e-06
9.98414e-07
9.90623e-07
9.82153e-07
9.72952e-07
9.62966e-07
9.52132e-07
9.40384e-07
9.2765e-07
9.13852e-07
8.98906e-07
8.82722e-07
8.65203e-07
8.46247e-07
8.25746e-07
8.03589e-07
7.79663e-07
7.53855e-07
7.26055e-07
6.96164e-07
6.64097e-07
6.29791e-07
5.93211e-07
5.54331e-07
5.13107e-07
4.69657e-07
4.24278e-07
3.77454e-07
3.29875e-07
2.82446e-07
2.36253e-07
1.92479e-07
1.52275e-07
1.16607e-07
8.61207e-08
6.10697e-08
4.13235e-08
2.64413e-08
1.57777e-08
8.58805e-09
4.11011e-09
1.61901e-09
4.59957e-10
6.93527e-11
2.49264e-12
1.00763e-06
1.011e-06
1.01429e-06
1.01748e-06
1.02059e-06
1.02361e-06
1.02653e-06
1.02936e-06
1.03209e-06
1.03472e-06
1.03726e-06
1.03969e-06
1.04202e-06
1.04424e-06
1.04636e-06
1.04836e-06
1.05026e-06
1.05203e-06
1.05369e-06
1.05523e-06
1.05664e-06
1.05792e-06
1.05907e-06
1.06008e-06
1.06096e-06
1.06169e-06
1.06227e-06
1.0627e-06
1.06297e-06
1.06307e-06
1.063e-06
1.06275e-06
1.0623e-06
1.06165e-06
1.06079e-06
1.05971e-06
1.05839e-06
1.05682e-06
1.05499e-06
1.05289e-06
1.05049e-06
1.04778e-06
1.04475e-06
1.04136e-06
1.03761e-06
1.03347e-06
1.0289e-06
1.02389e-06
1.0184e-06
1.0124e-06
1.00585e-06
9.98716e-07
9.90951e-07
9.82508e-07
9.73335e-07
9.63378e-07
9.52574e-07
9.40858e-07
9.28157e-07
9.14394e-07
8.99484e-07
8.83337e-07
8.65856e-07
8.46939e-07
8.26477e-07
8.04361e-07
7.80475e-07
7.54707e-07
7.26946e-07
6.97093e-07
6.65061e-07
6.30785e-07
5.94232e-07
5.55375e-07
5.14167e-07
4.70721e-07
4.25332e-07
3.7848e-07
3.30853e-07
2.83355e-07
2.37073e-07
1.93193e-07
1.52872e-07
1.17085e-07
8.64856e-08
6.13342e-08
4.15046e-08
2.65575e-08
1.58467e-08
8.62509e-09
4.1274e-09
1.62554e-09
4.61663e-10
6.95633e-11
2.49661e-12
1.00736e-06
1.01074e-06
1.01403e-06
1.01724e-06
1.02035e-06
1.02337e-06
1.0263e-06
1.02914e-06
1.03188e-06
1.03452e-06
1.03706e-06
1.0395e-06
1.04183e-06
1.04406e-06
1.04619e-06
1.0482e-06
1.0501e-06
1.05188e-06
1.05355e-06
1.05509e-06
1.05651e-06
1.0578e-06
1.05896e-06
1.05998e-06
1.06086e-06
1.0616e-06
1.06219e-06
1.06263e-06
1.06291e-06
1.06302e-06
1.06296e-06
1.06271e-06
1.06227e-06
1.06164e-06
1.06079e-06
1.05971e-06
1.0584e-06
1.05685e-06
1.05503e-06
1.05294e-06
1.05055e-06
1.04786e-06
1.04484e-06
1.04147e-06
1.03773e-06
1.0336e-06
1.02905e-06
1.02405e-06
1.01858e-06
1.01259e-06
1.00606e-06
9.98946e-07
9.912e-07
9.82777e-07
9.73626e-07
9.6369e-07
9.5291e-07
9.41217e-07
9.28541e-07
9.14804e-07
8.99921e-07
8.83802e-07
8.6635e-07
8.47463e-07
8.27032e-07
8.04946e-07
7.81091e-07
7.55354e-07
7.27623e-07
6.97799e-07
6.65793e-07
6.31541e-07
5.95007e-07
5.56167e-07
5.14972e-07
4.71529e-07
4.26133e-07
3.7926e-07
3.31596e-07
2.84046e-07
2.37695e-07
1.93735e-07
1.53326e-07
1.17448e-07
8.67627e-08
6.1535e-08
4.16422e-08
2.66458e-08
1.58991e-08
8.65322e-09
4.14053e-09
1.63049e-09
4.62959e-10
6.97236e-11
2.49965e-12
1.00718e-06
1.01057e-06
1.01386e-06
1.01707e-06
1.02019e-06
1.02322e-06
1.02615e-06
1.02899e-06
1.03173e-06
1.03438e-06
1.03693e-06
1.03937e-06
1.04171e-06
1.04395e-06
1.04607e-06
1.04809e-06
1.04999e-06
1.05178e-06
1.05345e-06
1.055e-06
1.05642e-06
1.05772e-06
1.05888e-06
1.05991e-06
1.0608e-06
1.06155e-06
1.06214e-06
1.06258e-06
1.06287e-06
1.06298e-06
1.06293e-06
1.06269e-06
1.06226e-06
1.06163e-06
1.06078e-06
1.05972e-06
1.05842e-06
1.05687e-06
1.05506e-06
1.05297e-06
1.0506e-06
1.04791e-06
1.0449e-06
1.04154e-06
1.03781e-06
1.03369e-06
1.02915e-06
1.02416e-06
1.0187e-06
1.01273e-06
1.00621e-06
9.99105e-07
9.91372e-07
9.82962e-07
9.73825e-07
9.63904e-07
9.53139e-07
9.41462e-07
9.28803e-07
9.15083e-07
9.00217e-07
8.84117e-07
8.66684e-07
8.47815e-07
8.27404e-07
8.05339e-07
7.81504e-07
7.55786e-07
7.28076e-07
6.98269e-07
6.66281e-07
6.32044e-07
5.95524e-07
5.56695e-07
5.15508e-07
4.72067e-07
4.26666e-07
3.79779e-07
3.32092e-07
2.84507e-07
2.38111e-07
1.94096e-07
1.53628e-07
1.17691e-07
8.69478e-08
6.16692e-08
4.17341e-08
2.67048e-08
1.59341e-08
8.67202e-09
4.14931e-09
1.6338e-09
4.63825e-10
6.98307e-11
2.50168e-12
1.0071e-06
1.01048e-06
1.01378e-06
1.01699e-06
1.02012e-06
1.02314e-06
1.02608e-06
1.02892e-06
1.03167e-06
1.03432e-06
1.03686e-06
1.03931e-06
1.04165e-06
1.04389e-06
1.04602e-06
1.04804e-06
1.04995e-06
1.05174e-06
1.05341e-06
1.05496e-06
1.05639e-06
1.05769e-06
1.05885e-06
1.05988e-06
1.06077e-06
1.06152e-06
1.06212e-06
1.06256e-06
1.06285e-06
1.06297e-06
1.06292e-06
1.06268e-06
1.06226e-06
1.06163e-06
1.06079e-06
1.05972e-06
1.05843e-06
1.05688e-06
1.05508e-06
1.05299e-06
1.05062e-06
1.04794e-06
1.04493e-06
1.04158e-06
1.03785e-06
1.03374e-06
1.0292e-06
1.02422e-06
1.01877e-06
1.0128e-06
1.00629e-06
9.99189e-07
9.91462e-07
9.8306e-07
9.7393e-07
9.64016e-07
9.53258e-07
9.4159e-07
9.28939e-07
9.15227e-07
9.00371e-07
8.8428e-07
8.66856e-07
8.47998e-07
8.27597e-07
8.05541e-07