/*--------------------------------*- C++ -*----------------------------------*\
  =========                 |
  \\      /  F ield         | OpenFOAM: The Open Source CFD Toolbox
   \\    /   O peration     | Website:  https://openfoam.org
    \\  /    A nd           | Version:  7
     \\/     M anipulation  |
\*---------------------------------------------------------------------------*/
FoamFile
{
    version     2.0;
    format      ascii;
    class       volScalarField;
    location    "24000";
    object      nut;
}
// * * * * * * * * * * * * * * * * * * * * * * * * * * * * * * * * * * * * * //

dimensions      [0 2 -1 0 0 0 0];

internalField   nonuniform List<scalar> 
4782
(
4.51591e-06
4.3345e-06
4.15559e-06
3.97922e-06
3.80545e-06
3.63434e-06
3.46596e-06
3.30037e-06
3.13763e-06
2.97784e-06
1.45286e-05
1.4273e-05
1.40188e-05
1.37658e-05
1.35141e-05
1.32637e-05
1.30146e-05
1.27668e-05
1.25205e-05
1.22755e-05
1.2032e-05
1.179e-05
1.15494e-05
1.13104e-05
1.10728e-05
1.08368e-05
1.06023e-05
1.03693e-05
1.0138e-05
9.90829e-06
9.68023e-06
9.45383e-06
9.2291e-06
9.00451e-06
8.77763e-06
8.55098e-06
8.32581e-06
8.10266e-06
7.88177e-06
7.6632e-06
7.44694e-06
7.23297e-06
7.02124e-06
6.81172e-06
6.6044e-06
6.39926e-06
6.1963e-06
5.99552e-06
5.79693e-06
5.60055e-06
5.40639e-06
5.21449e-06
5.02488e-06
4.83758e-06
4.65265e-06
4.47011e-06
4.29003e-06
4.11243e-06
3.93739e-06
3.76494e-06
3.59516e-06
3.42809e-06
3.26382e-06
3.10241e-06
2.94393e-06
1.44279e-05
1.41734e-05
1.39202e-05
1.36683e-05
1.34176e-05
1.31683e-05
1.29202e-05
1.26736e-05
1.24283e-05
1.21845e-05
1.19422e-05
1.17013e-05
1.14619e-05
1.1224e-05
1.09876e-05
1.07527e-05
1.05194e-05
1.02877e-05
1.00576e-05
9.82904e-06
9.60219e-06
9.37699e-06
9.15346e-06
8.92814e-06
8.7017e-06
8.47608e-06
8.25222e-06
8.0305e-06
7.81108e-06
7.59399e-06
7.37919e-06
7.16666e-06
6.95636e-06
6.74825e-06
6.54232e-06
6.33857e-06
6.13698e-06
5.93756e-06
5.74033e-06
5.54531e-06
5.35251e-06
5.16196e-06
4.9737e-06
4.78776e-06
4.60418e-06
4.423e-06
4.24427e-06
4.06804e-06
3.89435e-06
3.72327e-06
3.55485e-06
3.38915e-06
3.22624e-06
3.06619e-06
2.90907e-06
1.43246e-05
1.40712e-05
1.38191e-05
1.35682e-05
1.33186e-05
1.30703e-05
1.28234e-05
1.25779e-05
1.23337e-05
1.20911e-05
1.18498e-05
1.16101e-05
1.13718e-05
1.11351e-05
1.08999e-05
1.06662e-05
1.04342e-05
1.02037e-05
9.97477e-06
9.74753e-06
9.52192e-06
9.29798e-06
9.07514e-06
8.84926e-06
8.62336e-06
8.39886e-06
8.17641e-06
7.95623e-06
7.73838e-06
7.52285e-06
7.30959e-06
7.09857e-06
6.88974e-06
6.68309e-06
6.4786e-06
6.27627e-06
6.07609e-06
5.87808e-06
5.68225e-06
5.48862e-06
5.29721e-06
5.10806e-06
4.9212e-06
4.73665e-06
4.55447e-06
4.37469e-06
4.19736e-06
4.02252e-06
3.85024e-06
3.68055e-06
3.51353e-06
3.34924e-06
3.18773e-06
3.02909e-06
2.87337e-06
1.42183e-05
1.3966e-05
1.37149e-05
1.34652e-05
1.32168e-05
1.29697e-05
1.2724e-05
1.24797e-05
1.22368e-05
1.19953e-05
1.17553e-05
1.15167e-05
1.12797e-05
1.10442e-05
1.08102e-05
1.05778e-05
1.03469e-05
1.01177e-05
9.89007e-06
9.66408e-06
9.43976e-06
9.21399e-06
8.98747e-06
8.76174e-06
8.53755e-06
8.31528e-06
8.09509e-06
7.87708e-06
7.66125e-06
7.4476e-06
7.23612e-06
7.0268e-06
6.81963e-06
6.61458e-06
6.41166e-06
6.21088e-06
6.01224e-06
5.81575e-06
5.62144e-06
5.42931e-06
5.23941e-06
5.05176e-06
4.86639e-06
4.68334e-06
4.50265e-06
4.32436e-06
4.14851e-06
3.97517e-06
3.80437e-06
3.63617e-06
3.47064e-06
3.30783e-06
3.1478e-06
2.99064e-06
2.8364e-06
1.42183e-05
1.39659e-05
1.37149e-05
1.34651e-05
1.32167e-05
1.29696e-05
1.27239e-05
1.24796e-05
1.22367e-05
1.19952e-05
1.17552e-05
1.15167e-05
1.12797e-05
1.10442e-05
1.08102e-05
1.05778e-05
1.0347e-05
1.01177e-05
9.89012e-06
9.66414e-06
9.43983e-06
9.21397e-06
8.98741e-06
8.76166e-06
8.53747e-06
8.3152e-06
8.09502e-06
7.87701e-06
7.66118e-06
7.44754e-06
7.23606e-06
7.02674e-06
6.81957e-06
6.61452e-06
6.4116e-06
6.21082e-06
6.01218e-06
5.81569e-06
5.62138e-06
5.42925e-06
5.23935e-06
5.0517e-06
4.86633e-06
4.68329e-06
4.5026e-06
4.32431e-06
4.14847e-06
3.97513e-06
3.80433e-06
3.63614e-06
3.47061e-06
3.3078e-06
3.14778e-06
2.99061e-06
2.83638e-06
1.43249e-05
1.40714e-05
1.38192e-05
1.35683e-05
1.33187e-05
1.30704e-05
1.28236e-05
1.25781e-05
1.2334e-05
1.20914e-05
1.18501e-05
1.16104e-05
1.13721e-05
1.11354e-05
1.09001e-05
1.06664e-05
1.04343e-05
1.02038e-05
9.97487e-06
9.7476e-06
9.52196e-06
9.298e-06
9.07492e-06
8.84897e-06
8.62305e-06
8.39857e-06
8.17614e-06
7.95598e-06
7.73815e-06
7.52263e-06
7.30938e-06
7.09836e-06
6.88954e-06
6.68289e-06
6.4784e-06
6.27607e-06
6.07589e-06
5.87788e-06
5.68206e-06
5.48843e-06
5.29703e-06
5.10788e-06
4.92102e-06
4.73649e-06
4.55431e-06
4.37454e-06
4.19722e-06
4.02239e-06
3.85011e-06
3.68044e-06
3.51343e-06
3.34915e-06
3.18765e-06
3.02902e-06
2.87332e-06
2.72063e-06
2.57102e-06
2.42459e-06
2.28139e-06
1.44281e-05
1.41736e-05
1.39204e-05
1.36684e-05
1.34178e-05
1.31684e-05
1.29204e-05
1.26738e-05
1.24286e-05
1.21848e-05
1.19424e-05
1.17015e-05
1.1462e-05
1.12241e-05
1.09876e-05
1.07527e-05
1.05194e-05
1.02876e-05
1.00575e-05
9.82896e-06
9.60208e-06
9.37685e-06
9.1533e-06
8.92777e-06
8.70126e-06
8.47564e-06
8.25178e-06
8.03009e-06
7.81068e-06
7.5936e-06
7.37881e-06
7.16629e-06
6.95599e-06
6.74788e-06
6.54196e-06
6.33821e-06
6.13663e-06
5.93722e-06
5.74e-06
5.54498e-06
5.35219e-06
5.16166e-06
4.97341e-06
4.78748e-06
4.60392e-06
4.42276e-06
4.24404e-06
4.06782e-06
3.89415e-06
3.72308e-06
3.55467e-06
3.38899e-06
3.22609e-06
3.06606e-06
2.90896e-06
2.75487e-06
2.60387e-06
2.45604e-06
2.31146e-06
2.17014e-06
1.45289e-05
1.42733e-05
1.40189e-05
1.37658e-05
1.3514e-05
1.32635e-05
1.30145e-05
1.27667e-05
1.25204e-05
1.22754e-05
1.20318e-05
1.17897e-05
1.15491e-05
1.13099e-05
1.10723e-05
1.08363e-05
1.06018e-05
1.03689e-05
1.01375e-05
9.90781e-06
9.67972e-06
9.45328e-06
9.22854e-06
9.00402e-06
8.77716e-06
8.55051e-06
8.32533e-06
8.10218e-06
7.88128e-06
7.66271e-06
7.44644e-06
7.23246e-06
7.02073e-06
6.81122e-06
6.6039e-06
6.39876e-06
6.1958e-06
5.99502e-06
5.79644e-06
5.60006e-06
5.40591e-06
5.21402e-06
5.02441e-06
4.83713e-06
4.6522e-06
4.46968e-06
4.2896e-06
4.11202e-06
3.93699e-06
3.76456e-06
3.59478e-06
3.42774e-06
3.26348e-06
3.10208e-06
2.94362e-06
2.78817e-06
2.63582e-06
2.48664e-06
2.34071e-06
2.19807e-06
2.05885e-06
1.92319e-06
1.79121e-06
1.66301e-06
1.5387e-06
1.41838e-06
1.30218e-06
1.19022e-06
1.08262e-06
9.79481e-07
8.80807e-07
7.85987e-07
6.90251e-07
5.97118e-07
5.09365e-07
4.27538e-07
3.52209e-07
2.83945e-07
2.23266e-07
1.7058e-07
1.26106e-07
8.97946e-08
6.12733e-08
3.98411e-08
2.4521e-08
1.41682e-08
7.60219e-09
3.73088e-09
1.63768e-09
6.21141e-10
1.9238e-10
4.40501e-11
6.14329e-12
3.38838e-13
2.48564e-15
1.46265e-05
1.43699e-05
1.41145e-05
1.38604e-05
1.36076e-05
1.3356e-05
1.31058e-05
1.2857e-05
1.26096e-05
1.23635e-05
1.21188e-05
1.18756e-05
1.16339e-05
1.13936e-05
1.11549e-05
1.09177e-05
1.0682e-05
1.04479e-05
1.02153e-05
9.98441e-06
9.75514e-06
9.5275e-06
9.30156e-06
9.07733e-06
8.85045e-06
8.62299e-06
8.39662e-06
8.17211e-06
7.94978e-06
7.72977e-06
7.51208e-06
7.29669e-06
7.08356e-06
6.87268e-06
6.664e-06
6.45752e-06
6.25322e-06
6.05112e-06
5.85121e-06
5.65352e-06
5.45806e-06
5.26485e-06
5.07394e-06
4.88535e-06
4.69911e-06
4.51528e-06
4.3339e-06
4.155e-06
3.97866e-06
3.80492e-06
3.63384e-06
3.46548e-06
3.29991e-06
3.1372e-06
2.97743e-06
2.82067e-06
2.667e-06
2.51652e-06
2.36929e-06
2.22537e-06
2.08485e-06
1.9479e-06
1.81463e-06
1.68515e-06
1.55957e-06
1.438e-06
1.32055e-06
1.20736e-06
1.09855e-06
9.94221e-07
8.94399e-07
7.98579e-07
7.02741e-07
6.08466e-07
5.19554e-07
4.3656e-07
3.60061e-07
2.90639e-07
2.28833e-07
1.75073e-07
1.29606e-07
9.24091e-08
6.31351e-08
4.10959e-08
2.53157e-08
1.46369e-08
7.85691e-09
3.8565e-09
1.69265e-09
6.41743e-10
1.98615e-10
4.54198e-11
6.31991e-12
3.46986e-13
2.52059e-15
1.47205e-05
1.44629e-05
1.42066e-05
1.39515e-05
1.36977e-05
1.34452e-05
1.3194e-05
1.29441e-05
1.26956e-05
1.24485e-05
1.22028e-05
1.19585e-05
1.17157e-05
1.14743e-05
1.12345e-05
1.09962e-05
1.07594e-05
1.05242e-05
1.02906e-05
1.00585e-05
9.82811e-06
9.59937e-06
9.37232e-06
9.14694e-06
8.92091e-06
8.69305e-06
8.46566e-06
8.23987e-06
8.01616e-06
7.79474e-06
7.57565e-06
7.35889e-06
7.14441e-06
6.93219e-06
6.7222e-06
6.51442e-06
6.30884e-06
6.10545e-06
5.90427e-06
5.70531e-06
5.50859e-06
5.31412e-06
5.12194e-06
4.93209e-06
4.7446e-06
4.55951e-06
4.37686e-06
4.19671e-06
4.0191e-06
3.84409e-06
3.67175e-06
3.50213e-06
3.3353e-06
3.17132e-06
3.01029e-06
2.85226e-06
2.69734e-06
2.54559e-06
2.39711e-06
2.25196e-06
2.11018e-06
1.97198e-06
1.83746e-06
1.70675e-06
1.57993e-06
1.45714e-06
1.33849e-06
1.22411e-06
1.11412e-06
1.00863e-06
9.07694e-07
8.10905e-07
7.14968e-07
6.19583e-07
5.29545e-07
4.45414e-07
3.67776e-07
2.97225e-07
2.34318e-07
1.79507e-07
1.33065e-07
9.4999e-08
6.49826e-08
4.23433e-08
2.61067e-08
1.51041e-08
8.111e-09
3.98187e-09
1.74752e-09
6.62304e-10
2.04833e-10
4.67846e-11
6.49553e-12
3.55055e-13
2.5549e-15
1.48113e-05
1.45528e-05
1.42955e-05
1.40394e-05
1.37847e-05
1.35312e-05
1.3279e-05
1.30281e-05
1.27786e-05
1.25305e-05
1.22838e-05
1.20385e-05
1.17946e-05
1.15522e-05
1.13113e-05
1.10719e-05
1.08341e-05
1.05978e-05
1.03631e-05
1.013e-05
9.89859e-06
9.66875e-06
9.4406e-06
9.21412e-06
8.98876e-06
8.76048e-06
8.53215e-06
8.30517e-06
8.08017e-06
7.85743e-06
7.63701e-06
7.41893e-06
7.20316e-06
6.98966e-06
6.77841e-06
6.56938e-06
6.36256e-06
6.15795e-06
5.95554e-06
5.75536e-06
5.55742e-06
5.36175e-06
5.16836e-06
4.97729e-06
4.78859e-06
4.60229e-06
4.41843e-06
4.23707e-06
4.05825e-06
3.88203e-06
3.70847e-06
3.53763e-06
3.36958e-06
3.20439e-06
3.04214e-06
2.8829e-06
2.72675e-06
2.57379e-06
2.4241e-06
2.27776e-06
2.13477e-06
1.99535e-06
1.85963e-06
1.72772e-06
1.59971e-06
1.47574e-06
1.35592e-06
1.24038e-06
1.12925e-06
1.02264e-06
9.20622e-07
8.22894e-07
7.2685e-07
6.30394e-07
5.39269e-07
4.5404e-07
3.75302e-07
3.03661e-07
2.39686e-07
1.83855e-07
1.36465e-07
9.75483e-08
6.68046e-08
4.35755e-08
2.68894e-08
1.55669e-08
8.36292e-09
4.10623e-09
1.80195e-09
6.82698e-10
2.10998e-10
4.81359e-11
6.66907e-12
3.62993e-13
2.58835e-15
1.48986e-05
1.46393e-05
1.43811e-05
1.41242e-05
1.38684e-05
1.3614e-05
1.33608e-05
1.3109e-05
1.28585e-05
1.26094e-05
1.23616e-05
1.21154e-05
1.18705e-05
1.16271e-05
1.13852e-05
1.11448e-05
1.0906e-05
1.06687e-05
1.04329e-05
1.01988e-05
9.9663e-06
9.73542e-06
9.50622e-06
9.27871e-06
9.05289e-06
8.8249e-06
8.59598e-06
8.36798e-06
8.14179e-06
7.91777e-06
7.69608e-06
7.47673e-06
7.2597e-06
7.04497e-06
6.83251e-06
6.62228e-06
6.41427e-06
6.20848e-06
6.0049e-06
5.80355e-06
5.60445e-06
5.40761e-06
5.21306e-06
5.02083e-06
4.83097e-06
4.6435e-06
4.45848e-06
4.27596e-06
4.09598e-06
3.91859e-06
3.74387e-06
3.57186e-06
3.40265e-06
3.23629e-06
3.07287e-06
2.91246e-06
2.75514e-06
2.60101e-06
2.45015e-06
2.30264e-06
2.15851e-06
2.01793e-06
1.88105e-06
1.74799e-06
1.61884e-06
1.49373e-06
1.37279e-06
1.25613e-06
1.1439e-06
1.03621e-06
9.33151e-07
8.34522e-07
7.38379e-07
6.4089e-07
5.48717e-07
4.62429e-07
3.82629e-07
3.09932e-07
2.44925e-07
1.88104e-07
1.39793e-07
1.00049e-07
6.85948e-08
4.47883e-08
2.76608e-08
1.60235e-08
8.61168e-09
4.22909e-09
1.85574e-09
7.02848e-10
2.17085e-10
4.9469e-11
6.83992e-12
3.70778e-13
2.62088e-15
1.49822e-05
1.47219e-05
1.44629e-05
1.42051e-05
1.39485e-05
1.36931e-05
1.34391e-05
1.31864e-05
1.29349e-05
1.26849e-05
1.24362e-05
1.2189e-05
1.19431e-05
1.16987e-05
1.14558e-05
1.12145e-05
1.09747e-05
1.07364e-05
1.04997e-05
1.02646e-05
1.00311e-05
9.79919e-06
9.56899e-06
9.34048e-06
9.11364e-06
8.88636e-06
8.65706e-06
8.42816e-06
8.20083e-06
7.9756e-06
7.75267e-06
7.5321e-06
7.31388e-06
7.09796e-06
6.88433e-06
6.67295e-06
6.46381e-06
6.25689e-06
6.05219e-06
5.84973e-06
5.64951e-06
5.45156e-06
5.2559e-06
5.06257e-06
4.8716e-06
4.68303e-06
4.4969e-06
4.31326e-06
4.13217e-06
3.95368e-06
3.77784e-06
3.60472e-06
3.43439e-06
3.26692e-06
3.10238e-06
2.94085e-06
2.78242e-06
2.62717e-06
2.47519e-06
2.32657e-06
2.18134e-06
2.03965e-06
1.90167e-06
1.76749e-06
1.63725e-06
1.51105e-06
1.38903e-06
1.27131e-06
1.15802e-06
1.0493e-06
9.45235e-07
8.45742e-07
7.49501e-07
6.51023e-07
5.57845e-07
4.70542e-07
3.89722e-07
3.16011e-07
2.5001e-07
1.92236e-07
1.43033e-07
1.02488e-07
7.0344e-08
4.59751e-08
2.84167e-08
1.64714e-08
8.85594e-09
4.3498e-09
1.9086e-09
7.22643e-10
2.23062e-10
5.07766e-11
7.00721e-12
3.78371e-13
2.65236e-15
1.50617e-05
1.48006e-05
1.45407e-05
1.4282e-05
1.40246e-05
1.37684e-05
1.35134e-05
1.32598e-05
1.30075e-05
1.27566e-05
1.25071e-05
1.22589e-05
1.20123e-05
1.1767e-05
1.15233e-05
1.1281e-05
1.10403e-05
1.08011e-05
1.05634e-05
1.03274e-05
1.0093e-05
9.86016e-06
9.62901e-06
9.39951e-06
9.17169e-06
8.94491e-06
8.7152e-06
8.48545e-06
8.25708e-06
8.03072e-06
7.80664e-06
7.58492e-06
7.36556e-06
7.14853e-06
6.9338e-06
6.72133e-06
6.51111e-06
6.30312e-06
6.09736e-06
5.89384e-06
5.69257e-06
5.49357e-06
5.29686e-06
5.10248e-06
4.91045e-06
4.72083e-06
4.53365e-06
4.34896e-06
4.16681e-06
3.98726e-06
3.81036e-06
3.63618e-06
3.46479e-06
3.29625e-06
3.13064e-06
2.96804e-06
2.80854e-06
2.65222e-06
2.49918e-06
2.3495e-06
2.20322e-06
2.06047e-06
1.92142e-06
1.78619e-06
1.6549e-06
1.52766e-06
1.4046e-06
1.28586e-06
1.17156e-06
1.06185e-06
9.56824e-07
8.56477e-07
7.59962e-07
6.60742e-07
5.66608e-07
4.78337e-07
3.96544e-07
3.21866e-07
2.54915e-07
1.96227e-07
1.46169e-07
1.04852e-07
7.20424e-08
4.71292e-08
2.91528e-08
1.69081e-08
9.09423e-09
4.4676e-09
1.96019e-09
7.41964e-10
2.28893e-10
5.2051e-11
7.16994e-12
3.85729e-13
2.6826e-15
1.51368e-05
1.4875e-05
1.46143e-05
1.43549e-05
1.40966e-05
1.38397e-05
1.3584e-05
1.33296e-05
1.30765e-05
1.28248e-05
1.25746e-05
1.23256e-05
1.20781e-05
1.18321e-05
1.15875e-05
1.13444e-05
1.11028e-05
1.08627e-05
1.06242e-05
1.03873e-05
1.0152e-05
9.91827e-06
9.6862e-06
9.45579e-06
9.22706e-06
9.00004e-06
8.77012e-06
8.53969e-06
8.31041e-06
8.08303e-06
7.85789e-06
7.6351e-06
7.41467e-06
7.19659e-06
6.98081e-06
6.76731e-06
6.55606e-06
6.34706e-06
6.14029e-06
5.93576e-06
5.73349e-06
5.53349e-06
5.33579e-06
5.14041e-06
4.94739e-06
4.75677e-06
4.56859e-06
4.3829e-06
4.19975e-06
4.0192e-06
3.84129e-06
3.66611e-06
3.4937e-06
3.32415e-06
3.15753e-06
2.99392e-06
2.8334e-06
2.67607e-06
2.52201e-06
2.37131e-06
2.22404e-06
2.08028e-06
1.94022e-06
1.80398e-06
1.67169e-06
1.54347e-06
1.41943e-06
1.29971e-06
1.18445e-06
1.07379e-06
9.6784e-07
8.66595e-07
7.6929e-07
6.69959e-07
5.74928e-07
4.85747e-07
4.0304e-07
3.27448e-07
2.59599e-07
2.00044e-07
1.49174e-07
1.07122e-07
7.36757e-08
4.8241e-08
2.98628e-08
1.73298e-08
9.32454e-09
4.58152e-09
2.01009e-09
7.60646e-10
2.34528e-10
5.32813e-11
7.32672e-12
3.92787e-13
2.71128e-15
1.5208e-05
1.49454e-05
1.46841e-05
1.44239e-05
1.4165e-05
1.39073e-05
1.36508e-05
1.33957e-05
1.31418e-05
1.28894e-05
1.26383e-05
1.23886e-05
1.21403e-05
1.18934e-05
1.1648e-05
1.14041e-05
1.11616e-05
1.09207e-05
1.06814e-05
1.04436e-05
1.02074e-05
9.97285e-06
9.73993e-06
9.50866e-06
9.2791e-06
9.05124e-06
8.82174e-06
8.59092e-06
8.36085e-06
8.13252e-06
7.90637e-06
7.68255e-06
7.4611e-06
7.24201e-06
7.02524e-06
6.81077e-06
6.59856e-06
6.38859e-06
6.18088e-06
5.9754e-06
5.77219e-06
5.57125e-06
5.3726e-06
5.17628e-06
4.98232e-06
4.79076e-06
4.60163e-06
4.415e-06
4.2309e-06
4.04939e-06
3.87054e-06
3.6944e-06
3.52104e-06
3.35053e-06
3.18296e-06
3.01839e-06
2.85691e-06
2.69862e-06
2.5436e-06
2.39195e-06
2.24374e-06
2.09902e-06
1.95801e-06
1.82083e-06
1.6876e-06
1.55844e-06
1.43347e-06
1.31284e-06
1.19667e-06
1.08512e-06
9.7829e-07
8.76197e-07
7.78149e-07
6.7872e-07
5.82842e-07
4.92802e-07
4.09228e-07
3.32772e-07
2.64071e-07
2.03694e-07
1.52051e-07
1.09297e-07
7.52437e-08
4.93097e-08
3.05462e-08
1.77361e-08
9.54657e-09
4.69139e-09
2.05822e-09
7.78666e-10
2.39961e-10
5.44665e-11
7.47751e-12
3.99553e-13
2.7386e-15
1.52749e-05
1.50117e-05
1.47496e-05
1.44887e-05
1.42291e-05
1.39707e-05
1.37135e-05
1.34577e-05
1.32032e-05
1.29499e-05
1.2698e-05
1.24475e-05
1.21985e-05
1.19509e-05
1.17047e-05
1.146e-05
1.12168e-05
1.09751e-05
1.0735e-05
1.04965e-05
1.02595e-05
1.00241e-05
9.79038e-06
9.5583e-06
9.32789e-06
9.09922e-06
8.87011e-06
8.63893e-06
8.40815e-06
8.17895e-06
7.95185e-06
7.72708e-06
7.50468e-06
7.28465e-06
7.06695e-06
6.85156e-06
6.63844e-06
6.42758e-06
6.21897e-06
6.01261e-06
5.8085e-06
5.60667e-06
5.40714e-06
5.20994e-06
5.01509e-06
4.82264e-06
4.63263e-06
4.44511e-06
4.26012e-06
4.07773e-06
3.89798e-06
3.72095e-06
3.5467e-06
3.3753e-06
3.20683e-06
3.04136e-06
2.87899e-06
2.7198e-06
2.56389e-06
2.41135e-06
2.26226e-06
2.11665e-06
1.97475e-06
1.83668e-06
1.70257e-06
1.57253e-06
1.44669e-06
1.3252e-06
1.20818e-06
1.09579e-06
9.88134e-07
8.85245e-07
7.86499e-07
6.86972e-07
5.90301e-07
4.99458e-07
4.15072e-07
3.37804e-07
2.68303e-07
2.07152e-07
1.54781e-07
1.11365e-07
7.67361e-08
5.03283e-08
3.11983e-08
1.81241e-08
9.75881e-09
4.79646e-09
2.10426e-09
7.959e-10
2.45155e-10
5.55986e-11
7.62132e-12
4.05985e-13
2.76437e-15
1.53368e-05
1.5073e-05
1.48103e-05
1.45488e-05
1.42885e-05
1.40294e-05
1.37716e-05
1.35151e-05
1.32599e-05
1.30059e-05
1.27534e-05
1.25023e-05
1.22526e-05
1.20043e-05
1.17574e-05
1.1512e-05
1.12681e-05
1.10257e-05
1.07848e-05
1.05455e-05
1.03078e-05
1.00717e-05
9.83729e-06
9.60449e-06
9.37336e-06
9.14393e-06
8.91517e-06
8.68366e-06
8.45221e-06
8.2222e-06
7.99423e-06
7.76857e-06
7.54528e-06
7.32437e-06
7.10581e-06
6.88956e-06
6.6756e-06
6.4639e-06
6.25446e-06
6.04727e-06
5.84235e-06
5.6397e-06
5.43935e-06
5.24132e-06
5.04566e-06
4.85239e-06
4.66156e-06
4.47322e-06
4.28741e-06
4.10419e-06
3.92362e-06
3.74576e-06
3.57068e-06
3.39845e-06
3.22915e-06
3.06285e-06
2.89964e-06
2.73962e-06
2.58288e-06
2.4295e-06
2.27959e-06
2.13315e-06
1.99041e-06
1.85152e-06
1.71658e-06
1.58572e-06
1.45908e-06
1.33678e-06
1.21897e-06
1.10579e-06
9.97363e-07
8.9373e-07
7.94333e-07
6.94715e-07
5.97303e-07
5.05707e-07
4.20563e-07
3.42537e-07
2.72288e-07
2.10412e-07
1.57357e-07
1.13319e-07
7.8148e-08
5.1293e-08
3.18167e-08
1.84924e-08
9.96037e-09
4.89629e-09
2.14801e-09
8.12274e-10
2.50088e-10
5.6673e-11
7.75762e-12
4.12065e-13
2.78859e-15
1.5394e-05
1.51296e-05
1.48664e-05
1.46043e-05
1.43435e-05
1.40838e-05
1.38254e-05
1.35683e-05
1.33124e-05
1.30579e-05
1.28047e-05
1.25529e-05
1.23025e-05
1.20535e-05
1.1806e-05
1.15599e-05
1.13154e-05
1.10724e-05
1.08308e-05
1.05909e-05
1.03525e-05
1.01158e-05
9.8806e-06
9.6471e-06
9.41529e-06
9.1852e-06
8.95676e-06
8.72495e-06
8.49292e-06
8.26217e-06
8.03341e-06
7.80694e-06
7.58284e-06
7.36113e-06
7.14177e-06
6.92473e-06
6.70999e-06
6.49752e-06
6.28731e-06
6.07935e-06
5.87367e-06
5.67026e-06
5.46915e-06
5.27037e-06
5.07395e-06
4.87992e-06
4.68833e-06
4.49923e-06
4.31266e-06
4.12868e-06
3.94735e-06
3.76873e-06
3.59288e-06
3.41989e-06
3.24981e-06
3.08275e-06
2.91877e-06
2.75798e-06
2.60047e-06
2.44633e-06
2.29564e-06
2.14845e-06
2.00494e-06
1.86528e-06
1.72958e-06
1.59797e-06
1.47057e-06
1.34753e-06
1.22899e-06
1.11508e-06
1.00594e-06
9.01619e-07
8.01621e-07
7.01922e-07
6.03823e-07
5.11529e-07
4.25681e-07
3.4695e-07
2.76006e-07
2.13457e-07
1.59766e-07
1.15148e-07
7.94715e-08
5.21985e-08
3.23976e-08
1.88387e-08
1.015e-08
4.99024e-09
2.18919e-09
8.27687e-10
2.5473e-10
5.76833e-11
7.88563e-12
4.1776e-13
2.81117e-15
1.54463e-05
1.51814e-05
1.49176e-05
1.4655e-05
1.43936e-05
1.41334e-05
1.38745e-05
1.36167e-05
1.33603e-05
1.31053e-05
1.28516e-05
1.25992e-05
1.23482e-05
1.20987e-05
1.18505e-05
1.16039e-05
1.13587e-05
1.1115e-05
1.08729e-05
1.06323e-05
1.03934e-05
1.0156e-05
9.92023e-06
9.68611e-06
9.45366e-06
9.22292e-06
8.9939e-06
8.76247e-06
8.53017e-06
8.29885e-06
8.06939e-06
7.84216e-06
7.6173e-06
7.39483e-06
7.17473e-06
6.95696e-06
6.7415e-06
6.52831e-06
6.3174e-06
6.10875e-06
5.90237e-06
5.69826e-06
5.49647e-06
5.29699e-06
5.09988e-06
4.90516e-06
4.71288e-06
4.52309e-06
4.33582e-06
4.15115e-06
3.96912e-06
3.78979e-06
3.61325e-06
3.43955e-06
3.26877e-06
3.101e-06
2.93632e-06
2.77482e-06
2.6166e-06
2.46175e-06
2.31037e-06
2.16248e-06
2.01827e-06
1.87791e-06
1.74151e-06
1.60921e-06
1.48112e-06
1.3574e-06
1.23818e-06
1.12361e-06
1.01382e-06
9.08864e-07
8.08314e-07
7.08532e-07
6.09807e-07
5.16877e-07
4.30387e-07
3.51012e-07
2.79432e-07
2.16265e-07
1.6199e-07
1.16839e-07
8.06967e-08
5.30376e-08
3.29365e-08
1.91602e-08
1.03262e-08
5.07756e-09
2.22746e-09
8.42012e-10
2.59043e-10
5.86214e-11
8.00433e-12
4.23026e-13
2.8319e-15
1.54935e-05
1.52282e-05
1.49639e-05
1.47008e-05
1.44389e-05
1.41782e-05
1.39188e-05
1.36605e-05
1.34037e-05
1.31481e-05
1.28938e-05
1.26409e-05
1.23894e-05
1.21393e-05
1.18906e-05
1.16434e-05
1.13977e-05
1.11535e-05
1.09109e-05
1.06698e-05
1.04302e-05
1.01923e-05
9.956e-06
9.72133e-06
9.48834e-06
9.25706e-06
9.02747e-06
8.79645e-06
8.56393e-06
8.3321e-06
8.102e-06
7.8741e-06
7.64854e-06
7.42539e-06
7.20461e-06
6.98618e-06
6.77007e-06
6.55624e-06
6.34469e-06
6.13541e-06
5.9284e-06
5.72367e-06
5.52125e-06
5.32116e-06
5.12342e-06
4.92808e-06
4.73517e-06
4.54475e-06
4.35686e-06
4.17155e-06
3.98889e-06
3.80894e-06
3.63176e-06
3.45742e-06
3.28601e-06
3.1176e-06
2.95228e-06
2.79014e-06
2.63128e-06
2.47579e-06
2.32377e-06
2.17525e-06
2.0304e-06
1.8894e-06
1.75237e-06
1.61944e-06
1.49073e-06
1.36639e-06
1.24655e-06
1.13138e-06
1.02099e-06
9.15464e-07
8.14414e-07
7.14562e-07
6.15266e-07
5.21757e-07
4.34681e-07
3.54722e-07
2.82563e-07
2.18834e-07
1.64027e-07
1.18389e-07
8.18207e-08
5.38082e-08
3.34317e-08
1.94558e-08
1.04883e-08
5.15792e-09
2.2627e-09
8.55198e-10
2.63012e-10
5.94842e-11
8.11339e-12
4.27855e-13
2.85084e-15
1.55357e-05
1.52699e-05
1.50053e-05
1.47418e-05
1.44795e-05
1.42183e-05
1.39584e-05
1.36997e-05
1.34423e-05
1.31863e-05
1.29315e-05
1.26782e-05
1.24262e-05
1.21756e-05
1.19265e-05
1.16788e-05
1.14327e-05
1.1188e-05
1.09449e-05
1.07033e-05
1.04633e-05
1.02249e-05
9.98813e-06
9.75299e-06
9.5195e-06
9.28769e-06
9.0576e-06
8.82681e-06
8.59407e-06
8.3618e-06
8.13115e-06
7.90265e-06
7.67649e-06
7.45273e-06
7.23136e-06
7.01234e-06
6.79565e-06
6.58125e-06
6.36913e-06
6.15929e-06
5.95172e-06
5.74643e-06
5.54345e-06
5.3428e-06
5.1445e-06
4.9486e-06
4.75514e-06
4.56415e-06
4.3757e-06
4.18983e-06
4.0066e-06
3.82608e-06
3.64833e-06
3.47343e-06
3.30145e-06
3.13247e-06
2.96658e-06
2.80387e-06
2.64443e-06
2.48837e-06
2.33578e-06
2.1867e-06
2.04129e-06
1.89972e-06
1.76212e-06
1.62862e-06
1.49935e-06
1.37445e-06
1.25407e-06
1.13835e-06
1.02744e-06
9.21393e-07
8.19894e-07
7.19974e-07
6.20168e-07
5.26141e-07
4.38543e-07
3.58059e-07
2.85382e-07
2.21149e-07
1.65864e-07
1.19788e-07
8.28359e-08
5.45048e-08
3.38798e-08
1.97235e-08
1.06351e-08
5.23075e-09
2.29463e-09
8.67147e-10
2.66608e-10
6.02654e-11
8.21205e-12
4.32214e-13
2.86787e-15
1.55729e-05
1.53068e-05
1.50418e-05
1.47779e-05
1.45152e-05
1.42537e-05
1.39934e-05
1.37343e-05
1.34765e-05
1.32201e-05
1.2965e-05
1.27113e-05
1.24589e-05
1.2208e-05
1.19584e-05
1.17103e-05
1.14637e-05
1.12185e-05
1.09749e-05
1.07329e-05
1.04924e-05
1.02536e-05
1.00163e-05
9.78073e-06
9.5468e-06
9.31458e-06
9.08409e-06
8.85353e-06
8.6206e-06
8.38794e-06
8.15681e-06
7.92779e-06
7.70111e-06
7.47682e-06
7.25493e-06
7.0354e-06
6.81819e-06
6.60329e-06
6.39067e-06
6.18033e-06
5.97226e-06
5.76649e-06
5.56301e-06
5.36187e-06
5.16308e-06
4.96669e-06
4.77273e-06
4.58125e-06
4.3923e-06
4.20594e-06
4.02221e-06
3.84119e-06
3.66295e-06
3.48754e-06
3.31506e-06
3.14558e-06
2.97918e-06
2.81597e-06
2.65603e-06
2.49947e-06
2.34637e-06
2.1968e-06
2.05088e-06
1.90881e-06
1.77071e-06
1.63672e-06
1.50696e-06
1.38157e-06
1.26071e-06
1.14451e-06
1.03312e-06
9.26628e-07
8.24735e-07
7.24758e-07
6.24502e-07
5.30018e-07
4.41959e-07
3.61013e-07
2.87878e-07
2.23199e-07
1.67492e-07
1.2103e-07
8.37376e-08
5.51239e-08
3.42783e-08
1.99617e-08
1.07658e-08
5.29559e-09
2.32307e-09
8.77788e-10
2.69809e-10
6.09608e-11
8.29979e-12
4.36085e-13
2.88294e-15
1.56047e-05
1.53383e-05
1.50729e-05
1.48087e-05
1.45457e-05
1.42839e-05
1.40233e-05
1.3764e-05
1.35059e-05
1.32491e-05
1.29936e-05
1.27395e-05
1.24867e-05
1.22354e-05
1.19855e-05
1.17371e-05
1.14901e-05
1.12446e-05
1.10007e-05
1.07583e-05
1.05175e-05
1.02783e-05
1.00407e-05
9.80471e-06
9.5704e-06
9.33779e-06
9.10691e-06
8.87656e-06
8.64348e-06
8.41047e-06
8.17893e-06
7.94946e-06
7.72232e-06
7.49758e-06
7.27524e-06
7.05526e-06
6.83762e-06
6.62229e-06
6.40924e-06
6.19847e-06
5.98998e-06
5.78377e-06
5.57988e-06
5.37831e-06
5.17909e-06
4.98228e-06
4.78789e-06
4.59599e-06
4.40661e-06
4.21982e-06
4.03567e-06
3.85422e-06
3.67554e-06
3.49971e-06
3.32679e-06
3.15688e-06
2.99005e-06
2.8264e-06
2.66603e-06
2.50904e-06
2.35551e-06
2.20551e-06
2.05916e-06
1.91665e-06
1.77813e-06
1.6437e-06
1.51352e-06
1.38771e-06
1.26643e-06
1.14982e-06
1.03803e-06
9.31143e-07
8.2891e-07
7.28879e-07
6.28238e-07
5.33362e-07
4.44907e-07
3.63563e-07
2.90034e-07
2.24972e-07
1.68901e-07
1.22104e-07
8.4519e-08
5.56609e-08
3.46242e-08
2.01686e-08
1.08794e-08
5.35194e-09
2.34778e-09
8.87035e-10
2.72591e-10
6.15646e-11
8.37593e-12
4.39438e-13
2.89594e-15
1.5631e-05
1.53642e-05
1.50986e-05
1.48342e-05
1.45709e-05
1.43089e-05
1.4048e-05
1.37884e-05
1.35302e-05
1.32731e-05
1.30174e-05
1.2763e-05
1.25101e-05
1.22585e-05
1.20083e-05
1.17596e-05
1.15123e-05
1.12666e-05
1.10224e-05
1.07797e-05
1.05386e-05
1.0299e-05
1.00611e-05
9.82486e-06
9.59025e-06
9.35734e-06
9.12613e-06
8.89584e-06
8.66258e-06
8.4293e-06
8.19741e-06
7.96758e-06
7.74006e-06
7.51495e-06
7.29223e-06
7.07189e-06
6.85388e-06
6.63819e-06
6.42478e-06
6.21365e-06
6.00481e-06
5.79825e-06
5.594e-06
5.39208e-06
5.19251e-06
4.99534e-06
4.80061e-06
4.60835e-06
4.41862e-06
4.23147e-06
4.04696e-06
3.86515e-06
3.68612e-06
3.50992e-06
3.33665e-06
3.16637e-06
2.99918e-06
2.83516e-06
2.67443e-06
2.51707e-06
2.36318e-06
2.21282e-06
2.0661e-06
1.92324e-06
1.78435e-06
1.64957e-06
1.51903e-06
1.39287e-06
1.27124e-06
1.15428e-06
1.04216e-06
9.34943e-07
8.32425e-07
7.32355e-07
6.31389e-07
5.36182e-07
4.47391e-07
3.65713e-07
2.91852e-07
2.26467e-07
1.7009e-07
1.23012e-07
8.51787e-08
5.61144e-08
3.49165e-08
2.03434e-08
1.09754e-08
5.3996e-09
2.36869e-09
8.94856e-10
2.74943e-10
6.20751e-11
8.44026e-12
4.42268e-13
2.90691e-15
1.56523e-05
1.53854e-05
1.51195e-05
1.48548e-05
1.45914e-05
1.43291e-05
1.4068e-05
1.38082e-05
1.35496e-05
1.32923e-05
1.30363e-05
1.27818e-05
1.25285e-05
1.22767e-05
1.20263e-05
1.17773e-05
1.15299e-05
1.12839e-05
1.10395e-05
1.07966e-05
1.05553e-05
1.03155e-05
1.00774e-05
9.84089e-06
9.60604e-06
9.37289e-06
9.14145e-06
8.91137e-06
8.67802e-06
8.44449e-06
8.21231e-06
7.98216e-06
7.75433e-06
7.5289e-06
7.30588e-06
7.08524e-06
6.86694e-06
6.65095e-06
6.43725e-06
6.22584e-06
6.01671e-06
5.80987e-06
5.60533e-06
5.40313e-06
5.20328e-06
5.00582e-06
4.8108e-06
4.61826e-06
4.42824e-06
4.2408e-06
4.05601e-06
3.87391e-06
3.69459e-06
3.5181e-06
3.34454e-06
3.17397e-06
3.00649e-06
2.84219e-06
2.68116e-06
2.52351e-06
2.36933e-06
2.21868e-06
2.07168e-06
1.92852e-06
1.78935e-06
1.65428e-06
1.52345e-06
1.39701e-06
1.27509e-06
1.15787e-06
1.04546e-06
9.37989e-07
8.35243e-07
7.35135e-07
6.33909e-07
5.38438e-07
4.49382e-07
3.67437e-07
2.93311e-07
2.27668e-07
1.71045e-07
1.23741e-07
8.57096e-08
5.64797e-08
3.51519e-08
2.04844e-08
1.10528e-08
5.43803e-09
2.38555e-09
9.01164e-10
2.7684e-10
6.24867e-11
8.49209e-12
4.44545e-13
2.91569e-15
1.56681e-05
1.5401e-05
1.5135e-05
1.48702e-05
1.46065e-05
1.4344e-05
1.40827e-05
1.38227e-05
1.3564e-05
1.33066e-05
1.30505e-05
1.27957e-05
1.25424e-05
1.22904e-05
1.20399e-05
1.17908e-05
1.15432e-05
1.1297e-05
1.10524e-05
1.08094e-05
1.05679e-05
1.0328e-05
1.00897e-05
9.85304e-06
9.61802e-06
9.38469e-06
9.15306e-06
8.92304e-06
8.68959e-06
8.45589e-06
8.22351e-06
7.99314e-06
7.76507e-06
7.53942e-06
7.31617e-06
7.0953e-06
6.87678e-06
6.66057e-06
6.44666e-06
6.23503e-06
6.02568e-06
5.81862e-06
5.61387e-06
5.41145e-06
5.21139e-06
5.01372e-06
4.81848e-06
4.62572e-06
4.43549e-06
4.24784e-06
4.06282e-06
3.88051e-06
3.70097e-06
3.52427e-06
3.35049e-06
3.1797e-06
3.01201e-06
2.84749e-06
2.68624e-06
2.52837e-06
2.37397e-06
2.22311e-06
2.07589e-06
1.93252e-06
1.79312e-06
1.65784e-06
1.5268e-06
1.40014e-06
1.27802e-06
1.16058e-06
1.04797e-06
9.40298e-07
8.3738e-07
7.37249e-07
6.35825e-07
5.40154e-07
4.50895e-07
3.68746e-07
2.94418e-07
2.28579e-07
1.7177e-07
1.24295e-07
8.61124e-08
5.67568e-08
3.53306e-08
2.05914e-08
1.11116e-08
5.46721e-09
2.39835e-09
9.05953e-10
2.7828e-10
6.27991e-11
8.53144e-12
4.46274e-13
2.92238e-15
1.5679e-05
1.54118e-05
1.51457e-05
1.48807e-05
1.46169e-05
1.43542e-05
1.40929e-05
1.38327e-05
1.35739e-05
1.33164e-05
1.30601e-05
1.28052e-05
1.25518e-05
1.22997e-05
1.2049e-05
1.17998e-05
1.1552e-05
1.13058e-05
1.1061e-05
1.08178e-05
1.05762e-05
1.03362e-05
1.00978e-05
9.86097e-06
9.62585e-06
9.39238e-06
9.16064e-06
8.93063e-06
8.69731e-06
8.46357e-06
8.23105e-06
8.00052e-06
7.77229e-06
7.54646e-06
7.32306e-06
7.10203e-06
6.88336e-06
6.66701e-06
6.45295e-06
6.24118e-06
6.03169e-06
5.82449e-06
5.6196e-06
5.41704e-06
5.21683e-06
5.01902e-06
4.82364e-06
4.63074e-06
4.44037e-06
4.25257e-06
4.06742e-06
3.88496e-06
3.70528e-06
3.52843e-06
3.3545e-06
3.18357e-06
3.01572e-06
2.85105e-06
2.68966e-06
2.53164e-06
2.3771e-06
2.22609e-06
2.07872e-06
1.9352e-06
1.79566e-06
1.66023e-06
1.52904e-06
1.40224e-06
1.27997e-06
1.16239e-06
1.04965e-06
9.41841e-07
8.38807e-07
7.38655e-07
6.371e-07
5.41296e-07
4.51902e-07
3.69619e-07
2.95157e-07
2.29188e-07
1.72254e-07
1.24665e-07
8.63818e-08
5.69422e-08
3.54503e-08
2.0663e-08
1.11509e-08
5.48676e-09
2.40692e-09
9.09162e-10
2.79244e-10
6.30084e-11
8.55778e-12
4.47431e-13
2.92684e-15
1.56846e-05
1.54173e-05
1.51512e-05
1.48862e-05
1.46224e-05
1.43598e-05
1.40984e-05
1.38383e-05
1.35794e-05
1.33217e-05
1.30654e-05
1.28104e-05
1.25568e-05
1.23046e-05
1.20538e-05
1.18045e-05
1.15567e-05
1.13104e-05
1.10656e-05
1.08223e-05
1.05806e-05
1.03405e-05
1.0102e-05
9.86515e-06
9.62995e-06
9.39644e-06
9.16462e-06
8.93451e-06
8.70115e-06
8.46735e-06
8.23477e-06
8.00417e-06
7.77588e-06
7.54999e-06
7.32651e-06
7.10541e-06
6.88667e-06
6.67024e-06
6.45611e-06
6.24427e-06
6.03471e-06
5.82744e-06
5.62248e-06
5.41985e-06
5.21958e-06
5.02169e-06
4.82625e-06
4.63327e-06
4.44283e-06
4.25496e-06
4.06974e-06
3.88721e-06
3.70745e-06
3.53053e-06
3.35653e-06
3.18552e-06
3.0176e-06
2.85286e-06
2.69139e-06
2.5333e-06
2.37868e-06
2.2276e-06
2.08016e-06
1.93656e-06
1.79694e-06
1.66144e-06