/*--------------------------------*- C++ -*----------------------------------*\
  =========                 |
  \\      /  F ield         | OpenFOAM: The Open Source CFD Toolbox
   \\    /   O peration     | Website:  https://openfoam.org
    \\  /    A nd           | Version:  7
     \\/     M anipulation  |
\*---------------------------------------------------------------------------*/
FoamFile
{
    version     2.0;
    format      ascii;
    class       volScalarField;
    location    "24000";
    object      omega;
}
// * * * * * * * * * * * * * * * * * * * * * * * * * * * * * * * * * * * * * //

dimensions      [0 0 -1 0 0 0 0];

internalField   nonuniform List<scalar> 
4782
(
0.222396
0.230188
0.238398
0.247056
0.256198
0.265858
0.276077
0.286901
0.298376
0.310558
0.070526
0.0719943
0.0735031
0.075054
0.076649
0.0782895
0.0799777
0.0817153
0.0835047
0.0853477
0.0872467
0.0892041
0.0912225
0.0933046
0.0954536
0.0976725
0.0999645
0.102333
0.104781
0.107314
0.109934
0.112646
0.115456
0.118368
0.121388
0.124523
0.127778
0.131161
0.134677
0.138334
0.142139
0.1461
0.150226
0.154526
0.159011
0.163692
0.168579
0.173687
0.179028
0.184618
0.190473
0.19661
0.203047
0.209805
0.216907
0.224376
0.232239
0.240523
0.24926
0.258485
0.268233
0.278546
0.289468
0.301048
0.31334
0.0711108
0.072592
0.074114
0.0756787
0.0772879
0.078943
0.0806464
0.0823999
0.0842054
0.086065
0.0879812
0.0899564
0.0919933
0.0940945
0.0962632
0.0985026
0.100816
0.103206
0.105677
0.108233
0.110878
0.113617
0.116454
0.119394
0.122443
0.125609
0.128896
0.132311
0.135862
0.139554
0.143396
0.147395
0.151561
0.155904
0.160433
0.165159
0.170094
0.175251
0.180645
0.18629
0.192202
0.198399
0.204899
0.211724
0.218896
0.226438
0.234377
0.242742
0.251563
0.260876
0.270719
0.28113
0.292157
0.303847
0.316255
0.0717173
0.0732116
0.0747475
0.0763265
0.0779504
0.079621
0.0813402
0.0831101
0.0849325
0.0868096
0.0887439
0.0907381
0.0927945
0.0949161
0.0971056
0.0993662
0.101701
0.104115
0.10661
0.109191
0.111861
0.114627
0.117491
0.120461
0.123541
0.126739
0.130059
0.133509
0.137095
0.140825
0.144706
0.148745
0.152953
0.157339
0.161913
0.166686
0.17167
0.176879
0.182327
0.188028
0.193999
0.200257
0.206823
0.213716
0.220959
0.228576
0.236594
0.245043
0.253953
0.26336
0.2733
0.283815
0.294951
0.306756
0.319285
0.0723478
0.0738562
0.0754067
0.0770006
0.0786396
0.0803255
0.0820607
0.0838471
0.0856864
0.0875814
0.0895344
0.0915479
0.0936243
0.0957664
0.0979772
0.10026
0.102619
0.105056
0.107576
0.110183
0.11288
0.115673
0.118568
0.121569
0.124683
0.127915
0.13127
0.134756
0.13838
0.142148
0.146069
0.15015
0.154402
0.158833
0.163454
0.168277
0.173314
0.178577
0.184082
0.189843
0.195876
0.2022
0.208835
0.2158
0.223119
0.230815
0.238917
0.247453
0.256455
0.265958
0.276
0.286623
0.297872
0.309797
0.322453
0.0723476
0.0738563
0.0754068
0.0770007
0.0786399
0.0803262
0.0820614
0.0838477
0.0856872
0.087582
0.0895347
0.0915479
0.0936241
0.0957663
0.0979773
0.10026
0.102618
0.105055
0.107575
0.110182
0.112879
0.115672
0.118567
0.121568
0.124682
0.127913
0.131269
0.134755
0.138379
0.142147
0.146067
0.150149
0.1544
0.158832
0.163454
0.168277
0.173315
0.178579
0.184083
0.189844
0.195878
0.202202
0.208837
0.215802
0.223121
0.230817
0.238919
0.247456
0.256458
0.265961
0.276003
0.286626
0.297875
0.309799
0.322456
0.0717153
0.0732101
0.0747464
0.0763255
0.0779493
0.0796199
0.0813387
0.0831079
0.08493
0.0868069
0.0887413
0.0907351
0.0927913
0.0949128
0.0971026
0.0993636
0.101699
0.104113
0.106608
0.109189
0.11186
0.114626
0.11749
0.12046
0.12354
0.126738
0.130059
0.133509
0.137095
0.140825
0.144706
0.148746
0.152955
0.157341
0.161915
0.166689
0.171674
0.176884
0.182332
0.188034
0.194006
0.200265
0.20683
0.213723
0.220966
0.228584
0.236603
0.245052
0.253962
0.263369
0.273309
0.283824
0.294959
0.306764
0.319294
0.332609
0.346776
0.361869
0.37797
0.0711088
0.07259
0.0741122
0.0756769
0.0772858
0.0789409
0.0806442
0.0823973
0.0842027
0.0860622
0.0879784
0.0899536
0.0919907
0.0940923
0.0962614
0.0985011
0.100814
0.103205
0.105676
0.108233
0.110878
0.113617
0.116454
0.119394
0.122444
0.12561
0.128898
0.132314
0.135865
0.139558
0.143401
0.147401
0.151567
0.15591
0.160439
0.165165
0.170101
0.175258
0.180652
0.186297
0.192208
0.198405
0.204905
0.21173
0.2189
0.226442
0.234381
0.242746
0.251568
0.260882
0.270724
0.281136
0.292164
0.303854
0.316263
0.329451
0.343483
0.358433
0.374382
0.391422
0.0705232
0.0719918
0.0735011
0.0750525
0.0766477
0.0782884
0.0799765
0.081714
0.0835034
0.0853465
0.0872458
0.0892038
0.091223
0.0933057
0.0954552
0.0976742
0.0999661
0.102335
0.104783
0.107316
0.109936
0.112649
0.115459
0.118372
0.121392
0.124527
0.127782
0.131165
0.134681
0.138337
0.142142
0.146104
0.15023
0.154531
0.159016
0.163697
0.168585
0.173693
0.179036
0.184627
0.190483
0.19662
0.203059
0.209819
0.216921
0.224391
0.232254
0.24054
0.249279
0.258505
0.268256
0.278571
0.289496
0.301078
0.313373
0.32644
0.340344
0.355159
0.370965
0.387854
0.405927
0.425298
0.446094
0.468464
0.492573
0.518617
0.546823
0.577457
0.610837
0.647348
0.687462
0.731769
0.781045
0.836262
0.898578
0.969478
1.05094
1.14567
1.25738
1.39132
1.55493
1.75893
2.01901
2.35847
2.81286
3.43827
4.32711
5.6404
7.67885
11.0563
17.1799
29.8306
61.7903
174.872
923.261
0.069961
0.0714171
0.0729136
0.0744517
0.0760334
0.0776604
0.0793342
0.081057
0.082831
0.0846583
0.0865414
0.0884822
0.0904835
0.0925479
0.0946785
0.0968779
0.0991498
0.101498
0.103925
0.106435
0.109032
0.111721
0.114506
0.117392
0.120384
0.12349
0.126715
0.130066
0.133549
0.137172
0.140942
0.144866
0.148955
0.153216
0.157659
0.162297
0.16714
0.172201
0.177494
0.183033
0.188834
0.194914
0.201293
0.20799
0.215026
0.222427
0.230217
0.238426
0.247084
0.256224
0.265884
0.276105
0.286929
0.298407
0.31059
0.323539
0.337319
0.352002
0.367669
0.384409
0.402323
0.421526
0.442143
0.464321
0.488225
0.514048
0.542014
0.572386
0.605478
0.64167
0.681426
0.72533
0.774138
0.828809
0.890499
0.960667
1.04126
1.13492
1.24531
1.37759
1.53907
1.74033
1.99682
2.33154
2.77961
3.39642
4.27327
5.56928
7.58164
10.9172
16.9677
29.4749
61.1012
173.179
917.194
0.069424
0.0708685
0.0723528
0.0738783
0.0754471
0.0770605
0.0787208
0.0804294
0.0821886
0.0840007
0.0858679
0.0877924
0.089777
0.0918244
0.0939369
0.0961178
0.0983704
0.100698
0.103104
0.105593
0.108168
0.110833
0.113593
0.116454
0.11942
0.122498
0.125694
0.129015
0.132468
0.136058
0.139794
0.143684
0.147736
0.15196
0.156364
0.16096
0.16576
0.170776
0.176021
0.18151
0.187259
0.193285
0.199606
0.206242
0.213216
0.22055
0.228271
0.236407
0.244988
0.254048
0.263623
0.273752
0.284481
0.295857
0.307934
0.32077
0.334429
0.348985
0.364516
0.381112
0.398874
0.417914
0.438359
0.460352
0.484058
0.509667
0.537401
0.567521
0.600338
0.636225
0.675642
0.71916
0.76752
0.821672
0.882766
0.952237
1.032
1.12465
1.2338
1.3645
1.52397
1.72262
1.9757
2.30591
2.74796
3.35657
4.22201
5.50154
7.48902
10.7846
16.7653
29.1356
60.4432
171.56
911.373
0.0689105
0.0703439
0.0718167
0.0733305
0.0748868
0.0764878
0.0781349
0.0798303
0.0815756
0.0833732
0.0852252
0.0871343
0.0891029
0.0911337
0.0932295
0.0953929
0.0976271
0.0999355
0.102322
0.10479
0.107343
0.109986
0.112724
0.11556
0.118501
0.121553
0.124721
0.128014
0.131437
0.134996
0.1387
0.142556
0.146573
0.15076
0.155127
0.159684
0.164442
0.169414
0.174614
0.180056
0.185755
0.191729
0.197996
0.204576
0.211489
0.218761
0.226416
0.234482
0.242989
0.251972
0.261464
0.271507
0.282144
0.293423
0.305398
0.318126
0.331671
0.346106
0.361508
0.377968
0.395585
0.41447
0.43475
0.456566
0.480083
0.505489
0.533005
0.562887
0.595442
0.631039
0.670133
0.713286
0.761222
0.814883
0.875411
0.944222
1.0232
1.11489
1.22285
1.35206
1.50962
1.7058
1.95565
2.2816
2.71792
3.31876
4.17334
5.4372
7.40103
10.6586
16.5729
28.8128
59.8168
170.017
905.808
0.0684213
0.0698437
0.0713054
0.0728078
0.0743527
0.0759418
0.0775765
0.079259
0.0809914
0.0827755
0.0846139
0.0865085
0.0884618
0.0904769
0.0925562
0.0947028
0.0969196
0.0992102
0.101578
0.104027
0.10656
0.109182
0.111898
0.114711
0.117628
0.120655
0.123797
0.127062
0.130456
0.133986
0.137659
0.141483
0.145467
0.149619
0.15395
0.158469
0.163189
0.168121
0.173278
0.178675
0.184328
0.190253
0.196468
0.202994
0.209851
0.217062
0.224654
0.232654
0.241091
0.249999
0.259415
0.269376
0.279926
0.291114
0.302992
0.315617
0.329054
0.343372
0.358653
0.374983
0.392461
0.411199
0.431322
0.452971
0.476308
0.501521
0.528826
0.558478
0.590784
0.626105
0.66489
0.707694
0.755227
0.808421
0.868416
0.936601
1.01483
1.10563
1.21248
1.34028
1.49604
1.68989
1.93668
2.25859
2.68951
3.28298
4.12728
5.37631
7.31771
10.5393
16.3906
28.5068
59.2225
168.55
900.504
0.0679575
0.0693702
0.0708215
0.0723131
0.0738469
0.0754245
0.0770475
0.078718
0.0804379
0.0822093
0.0840342
0.0859152
0.0878547
0.0898554
0.0919196
0.0940504
0.0962509
0.0985242
0.100874
0.103304
0.105819
0.108421
0.111116
0.113908
0.116803
0.119807
0.122925
0.126164
0.129531
0.133033
0.136678
0.140472
0.144425
0.148545
0.152841
0.157326
0.162008
0.166901
0.172018
0.177373
0.182982
0.188861
0.195027
0.201502
0.208305
0.21546
0.222992
0.230929
0.2393
0.248139
0.25748
0.267363
0.277831
0.288932
0.300717
0.313244
0.326577
0.340787
0.355951
0.372158
0.389505
0.408103
0.428075
0.449564
0.472729
0.497757
0.524864
0.554301
0.58637
0.62143
0.659924
0.702399
0.749552
0.802306
0.861795
0.929393
1.00693
1.09687
1.20267
1.32916
1.48323
1.67488
1.9188
2.23691
2.66273
3.24924
4.08384
5.31886
7.23909
10.4266
16.2184
28.2177
58.6607
167.162
895.469
0.0675197
0.0689229
0.0703647
0.0718468
0.0733703
0.0749374
0.0765497
0.078209
0.0799171
0.0816761
0.0834884
0.0853564
0.0872822
0.0892684
0.0913178
0.0934335
0.0956185
0.097876
0.100209
0.102622
0.105118
0.107702
0.110377
0.11315
0.116024
0.119006
0.1221
0.125316
0.128658
0.132134
0.135751
0.139518
0.143441
0.147531
0.151795
0.156246
0.160893
0.16575
0.170828
0.176143
0.181709
0.187543
0.193663
0.200089
0.20684
0.213941
0.221417
0.229294
0.237602
0.246374
0.255645
0.265455
0.275845
0.286863
0.298562
0.310998
0.324234
0.338342
0.353397
0.369488
0.386712
0.405178
0.42501
0.446348
0.469352
0.494206
0.521124
0.550356
0.582201
0.617016
0.655237
0.697405
0.744202
0.796544
0.855559
0.922604
0.999481
1.08863
1.19345
1.31869
1.47118
1.66078
1.902
2.21654
2.63756
3.21755
4.04302
5.26486
7.16518
10.3207
16.0565
27.9456
58.1315
165.853
890.708
0.0671093
0.0685037
0.0699362
0.0714087
0.0729226
0.0744794
0.0760813
0.0777296
0.0794264
0.0811738
0.0829738
0.0848292
0.0867422
0.0887152
0.0907508
0.0928522
0.0950224
0.0972647
0.099582
0.101979
0.104458
0.107024
0.109681
0.112435
0.115289
0.11825
0.121323
0.124516
0.127835
0.131287
0.134879
0.138619
0.142515
0.146576
0.150811
0.155231
0.159846
0.164669
0.169712
0.174989
0.180516
0.186308
0.192385
0.198765
0.205468
0.212518
0.21994
0.227761
0.23601
0.244719
0.253925
0.263665
0.273982
0.284924
0.296541
0.308891
0.322036
0.336046
0.350998
0.366979
0.384087
0.40243
0.422131
0.443329
0.466183
0.490876
0.517619
0.546661
0.578298
0.612885
0.650852
0.692732
0.739201
0.791161
0.849728
0.916253
0.992513
1.08092
1.18481
1.3089
1.45991
1.64758
1.88629
2.19748
2.61403
3.18789
4.00482
5.21432
7.09598
10.2215
15.9048
27.6906
57.6352
164.623
886.226
0.0667234
0.0681097
0.0695339
0.0709975
0.0725021
0.0740494
0.0756414
0.0772798
0.0789663
0.080703
0.082492
0.084336
0.0862369
0.0881978
0.0902211
0.0923097
0.0944664
0.0966944
0.0989973
0.101379
0.103842
0.106393
0.109033
0.111769
0.114605
0.117547
0.1206
0.123771
0.127068
0.130497
0.134065
0.13778
0.141649
0.145683
0.14989
0.15428
0.158864
0.163654
0.168664
0.173906
0.179396
0.18515
0.191186
0.197523
0.204182
0.211185
0.218558
0.226326
0.23452
0.243171
0.252316
0.261992
0.272241
0.283111
0.294652
0.306921
0.319981
0.333901
0.348758
0.364639
0.381639
0.399867
0.419444
0.44051
0.463222
0.487762
0.514341
0.543206
0.574648
0.609019
0.646746
0.688358
0.734522
0.786124
0.844273
0.910312
0.985999
1.07371
1.17675
1.29976
1.44939
1.63529
1.87165
2.17973
2.59211
3.16027
3.96924
5.16723
7.03149
10.129
15.7633
27.4527
57.1719
163.474
882.028
0.0663638
0.0677422
0.0691585
0.0706142
0.0721105
0.0736492
0.0752322
0.076861
0.0785379
0.0802649
0.0820441
0.0838778
0.085768
0.0877174
0.0897289
0.0918054
0.0939495
0.0961643
0.0984537
0.100821
0.10327
0.105805
0.10843
0.11115
0.113969
0.116893
0.119928
0.123079
0.126355
0.129763
0.133308
0.137
0.140846
0.144854
0.149035
0.153398
0.157954
0.162714
0.167692
0.172902
0.178358
0.184077
0.190075
0.196373
0.202991
0.209951
0.217278
0.224999
0.233143
0.241742
0.25083
0.260446
0.270632
0.281435
0.292905
0.305099
0.318079
0.331914
0.34668
0.362465
0.379363
0.397482
0.416944
0.437887
0.460467
0.484866
0.511292
0.539992
0.571254
0.605428
0.642935
0.6843
0.730181
0.781451
0.839212
0.904801
0.979956
1.06703
1.16928
1.2913
1.43965
1.6239
1.85809
2.16329
2.5718
3.13469
3.93627
5.12359
6.9717
10.0432
15.6321
27.232
56.7418
162.406
878.117
0.0660329
0.0674041
0.068813
0.0702611
0.0717496
0.0732806
0.0748554
0.0764759
0.078144
0.0798619
0.0816315
0.0834551
0.0853349
0.0872738
0.0892744
0.0913395
0.0934721
0.0956753
0.0979526
0.100307
0.102743
0.105264
0.107874
0.110578
0.113382
0.116289
0.119307
0.12244
0.125697
0.129085
0.13261
0.136281
0.140106
0.144091
0.148248
0.152586
0.157115
0.161849
0.166798
0.171978
0.177402
0.183087
0.189051
0.195312
0.201891
0.208811
0.216095
0.22377
0.231866
0.240414
0.249449
0.259008
0.269135
0.279876
0.29128
0.303405
0.316311
0.330069
0.344754
0.360451
0.377256
0.395276
0.414632
0.435461
0.457921
0.482189
0.508475
0.537021
0.568116
0.602105
0.639407
0.680542
0.726163
0.777129
0.834534
0.89971
0.974376
1.06086
1.16238
1.28348
1.43067
1.6134
1.8456
2.14815
2.5531
3.11112
3.90589
5.08338
6.91661
9.96417
15.5111
27.0285
56.3448
161.42
874.497
0.0657288
0.0670936
0.0684959
0.0699367
0.0714182
0.0729417
0.0745088
0.0761212
0.0777812
0.0794907
0.0812518
0.0830668
0.084938
0.0868676
0.0888587
0.0909135
0.0930352
0.0952271
0.0974926
0.0998351
0.102258
0.104767
0.107364
0.110055
0.112844
0.115736
0.118737
0.121854
0.125094
0.128463
0.13197
0.13562
0.139424
0.143388
0.147523
0.151838
0.156343
0.161051
0.165974
0.171126
0.176522
0.182177
0.188109
0.194337
0.200882
0.207764
0.21501
0.222644
0.230697
0.2392
0.248187
0.257696
0.267769
0.278452
0.289796
0.301856
0.314694
0.32838
0.342988
0.358603
0.375322
0.393251
0.41251
0.433236
0.455583
0.47973
0.505885
0.53429
0.565231
0.599052
0.636167
0.677091
0.722471
0.773157
0.830235
0.895034
0.969254
1.0552
1.15606
1.27633
1.42245
1.6038
1.83417
2.13431
2.536
3.08957
3.87811
5.04659
6.86619
9.89182
15.4004
26.842
55.9811
160.515
871.171
0.0654523
0.0668113
0.0682075
0.0696422
0.071117
0.0726337
0.074194
0.0757997
0.0774525
0.0791544
0.0809073
0.0827139
0.0845765
0.0864974
0.0884794
0.0905253
0.0926376
0.0948199
0.0970752
0.0994071
0.101819
0.104315
0.1069
0.109579
0.112355
0.115234
0.118221
0.121323
0.124547
0.1279
0.131389
0.135022
0.138807
0.142752
0.146866
0.15116
0.155644
0.16033
0.16523
0.170357
0.175726
0.181353
0.187256
0.193453
0.199965
0.206814
0.214024
0.221621
0.229635
0.238096
0.247038
0.256501
0.266526
0.277158
0.288447
0.300449
0.313227
0.326848
0.341387
0.35693
0.37357
0.391416
0.410585
0.431215
0.453459
0.477498
0.503534
0.531811
0.562612
0.596279
0.633224
0.673959
0.719124
0.769556
0.826338
0.890793
0.964608
1.05007
1.15033
1.26984
1.415
1.59508
1.82381
2.12175
2.52049
3.07001
3.85291
5.01321
6.82044
9.82615
15.2998
26.6727
55.6507
159.692
868.14
0.0652038
0.0665574
0.0679481
0.0693773
0.0708464
0.0723573
0.0739113
0.0755106
0.0771567
0.0788519
0.080598
0.0823975
0.0842527
0.0861661
0.08814
0.0901776
0.0922813
0.0944543
0.0967
0.0990222
0.101424
0.103911
0.106485
0.109151
0.111916
0.114782
0.117757
0.120845
0.124055
0.127394
0.130867
0.134485
0.138253
0.14218
0.146277
0.150552
0.155016
0.15968
0.164558
0.169661
0.175007
0.180609
0.186486
0.192656
0.199138
0.205957
0.213134
0.220697
0.228675
0.237098
0.246001
0.255421
0.265402
0.275987
0.287227
0.299177
0.3119
0.325462
0.339939
0.355416
0.371986
0.389756
0.408846
0.429391
0.451545
0.475485
0.501416
0.529578
0.560254
0.593782
0.630574
0.671135
0.716103
0.766307
0.822824
0.886971
0.960424
1.04545
1.14517
1.26401
1.40829
1.58726
1.8145
2.11047
2.50655
3.05245
3.83027
4.98322
6.77933
9.76713
15.2094
26.5204
55.3534
158.952
865.407
0.0649827
0.0663315
0.0677174
0.0691414
0.0706054
0.0721109
0.0736596
0.0752534
0.0768938
0.0785832
0.0803232
0.0821163
0.083965
0.0858714
0.0878381
0.0898678
0.0919637
0.0941289
0.0963663
0.0986796
0.101073
0.103549
0.106113
0.10877
0.111524
0.11438
0.117343
0.12042
0.123617
0.126942
0.130403
0.134006
0.137759
0.141672
0.145752
0.15001
0.154456
0.159102
0.163961
0.169044
0.174368
0.179948
0.185801
0.191946
0.198403
0.205194
0.212343
0.219877
0.227823
0.236213
0.245082
0.254466
0.264407
0.274951
0.286147
0.298051
0.310724
0.324232
0.338654
0.354071
0.370578
0.388281
0.407299
0.427767
0.44984
0.473692
0.499528
0.527588
0.558152
0.591557
0.628214
0.668623
0.713418
0.76342
0.819701
0.883577
0.956707
1.04134
1.14058
1.25882
1.40235
1.58031
1.80624
2.10047
2.4942
3.03688
3.81018
4.95661
6.74284
9.71474
15.1292
26.3852
55.0893
158.293
862.975
0.0647885
0.0661333
0.0675147
0.0689343
0.0703938
0.0718947
0.0734387
0.0750275
0.0766628
0.0783465
0.0800807
0.0818679
0.0837105
0.0856107
0.0875712
0.0895947
0.091684
0.0938424
0.0960731
0.0983792
0.100765
0.103233
0.10579
0.108438
0.111182
0.114028
0.116981
0.120047
0.123233
0.126547
0.129995
0.133585
0.137325
0.141224
0.14529
0.149533
0.153964
0.158594
0.163435
0.168502
0.173807
0.179368
0.185201
0.191325
0.19776
0.204527
0.211651
0.219158
0.227077
0.235438
0.244275
0.253627
0.263534
0.274041
0.2852
0.297063
0.309693
0.323156
0.337529
0.352895
0.369347
0.386991
0.405946
0.426347
0.448347
0.472122
0.497876
0.525846
0.556312
0.589611
0.626147
0.666422
0.711065
0.76089
0.816965
0.880602
0.95345
1.03775
1.13657
1.25429
1.39714
1.57424
1.79903
2.09173
2.4834
3.02327
3.79263
4.93336
6.71096
9.66896
15.059
26.2671
54.8583
157.717
860.843
0.064623
0.0659643
0.0673422
0.0687584
0.0702139
0.0717105
0.0732501
0.0748343
0.0764652
0.0781447
0.0798745
0.0816571
0.0834948
0.0853897
0.0873449
0.0893626
0.0914462
0.0935987
0.0958229
0.0981225
0.100501
0.102963
0.105511
0.108152
0.110888
0.113726
0.116671
0.119728
0.122904
0.126208
0.129645
0.133224
0.136953
0.14084
0.144894
0.149125
0.153542
0.158159
0.162986
0.168038
0.173327
0.178871
0.184687
0.190793
0.197209
0.203957
0.21106
0.218545
0.22644
0.234776
0.243588
0.252911
0.262788
0.273265
0.28439
0.296218
0.30881
0.322235
0.336565
0.351886
0.368291
0.385884
0.404786
0.42513
0.44707
0.47078
0.496463
0.524355
0.554738
0.587945
0.62438
0.664542
0.709055
0.758728
0.814625
0.878057
0.950665
1.03467
1.13314
1.25041
1.3927
1.56905
1.79285
2.08425
2.47417
3.01162
3.77761
4.91346
6.68367
9.62976
14.999
26.1658
54.6604
157.223
859.014
0.0644862
0.0658248
0.0671998
0.0686128
0.0700651
0.0715584
0.0730944
0.074675
0.0763018
0.0779771
0.0797029
0.0814813
0.0833145
0.085205
0.0871556
0.0891685
0.091247
0.0933939
0.0956126
0.0979067
0.10028
0.102736
0.105278
0.107912
0.110642
0.113473
0.116411
0.11946
0.122629
0.125924
0.129353
0.132923
0.136643
0.14052
0.144564
0.148785
0.153191
0.157796
0.162611
0.16765
0.172926
0.178457
0.184258
0.190348
0.196748
0.203478
0.210563
0.218028
0.225904
0.234219
0.243008
0.252308
0.262161
0.272612
0.283709
0.295508
0.30807
0.321462
0.335759
0.351044
0.36741
0.384962
0.40382
0.424117
0.446004
0.469658
0.495282
0.523109
0.55342
0.586549
0.622898
0.662964
0.707368
0.756915
0.812665
0.875928
0.948337
1.0321
1.13028
1.24718
1.38899
1.56472
1.78771
2.07802
2.46648
3.00193
3.76512
4.8969
6.66095
9.59713
14.949
26.0815
54.4956
156.811
857.488
0.0643757
0.0657118
0.0670845
0.0684951
0.0699449
0.0714355
0.072969
0.074547
0.0761714
0.0778438
0.0795667
0.0813418
0.0831719
0.0850591
0.0870059
0.0890154
0.09109
0.0932329
0.0954474
0.0977368
0.100105
0.102556
0.105094
0.107722
0.110447
0.113272
0.116204
0.119248
0.12241
0.125699
0.129122
0.132685
0.136397
0.140267
0.144303
0.148514
0.152912
0.157508
0.162313
0.167341
0.172608
0.178127
0.183916
0.189995
0.196382
0.203099
0.21017
0.217621
0.22548
0.233779
0.242551
0.251833
0.261666
0.272095
0.28317
0.294946
0.307483
0.320847
0.335115
0.35037
0.366704
0.384223
0.403046
0.423305
0.445153
0.468763
0.494339
0.522116
0.552372
0.585439
0.621719
0.661708
0.706026
0.755473
0.811106
0.874233
0.946483
1.03006
1.128
1.2446
1.38603
1.56126
1.78361
2.07305
2.46034
2.99419
3.75513
4.88366
6.64279
9.57105
14.909
26.0141
54.3638
156.482
856.267
0.0642935
0.0656281
0.066999
0.0684077
0.0698559
0.071345
0.0728766
0.0744526
0.0760747
0.0777449
0.0794652
0.0812377
0.083065
0.0849495
0.0868936
0.0889
0.0909714
0.0931113
0.0953225
0.0976088
0.0999737
0.102421
0.104954
0.107579
0.1103
0.113121
0.116048
0.119087
0.122245
0.125529
0.128946
0.132504
0.136211
0.140075
0.144104
0.148309
0.152701
0.157289
0.162088
0.167109
0.172367
0.177878
0.183659
0.189728
0.196106
0.202813
0.209873
0.217314
0.225162
0.233448
0.242207
0.251476
0.261294
0.271708
0.282766
0.294524
0.307042
0.320387
0.334634
0.349866
0.366177
0.38367
0.402464
0.422693
0.444509
0.468085
0.493625
0.521362
0.551575
0.584596
0.620826
0.660758
0.705011
0.754382
0.809927
0.872953
0.945083
1.02851
1.12628
1.24266
1.3838
1.55867
1.78053
2.06933
2.45573
2.98839
3.74764
4.87374
6.62918
9.5515
14.879
25.9636
54.265
156.235
855.35
0.0642377
0.065571
0.0669409
0.0683484
0.0697955
0.0712833
0.0728136
0.0743881
0.0760087
0.0776774
0.0793963
0.0811675
0.0829933
0.084876
0.0868184
0.088823
0.0908926
0.0930306
0.09524
0.0975242
0.0998869
0.102332
0.104863
0.107486
0.110203
0.113022
0.115946
0.118982
0.122136
0.125417
0.128831
0.132385
0.136088
0.139947
0.143973
0.148174
0.15256
0.157144
0.161937
0.166954
0.172207
0.177712
0.183487
0.18955
0.19592
0.20262
0.209674
0.217106
0.224946
0.233224
0.241974
0.251233
0.261041
0.271444
0.282491
0.294238
0.306743
0.320076
0.334309
0.349526
0.365822
0.383299
0.402076
0.422286
0.444081
0.467636
0.493152
0.520864
0.551049
0.58404
0.620236
0.66013
0.704341
0.753661
0.809147
0.872106
0.944155
1.02749
1.12514
1.24137
1.38233
1.55695
1.77848
2.06684
2.45267
2.98452
3.74266
4.86713
6.62012
9.53848
14.8591
25.9299
54.1992
156.07
854.739
0.0642094
0.0655421
0.0669112
0.068318
0.069764
0.0712506
0.0727798
0.0743534
0.0759733
0.0776413
0.0793596
0.0811303
0.0829554
0.0848375
0.0867791
0.0887829
0.0908517
0.0929886
0.0951968
0.0974801
0.0998418
0.102286
0.104816
0.107437
0.110154
0.112971
0.115893
0.118928
0.122081
0.12536
0.128772
0.132324
0.136026
0.139883
0.143907
0.148106
0.15249
0.157072
0.161863
0.166876
0.172126
0.177629
0.183401
0.18946
0.195828
0.202524
0.209573
0.217001
0.224836
0.233109
0.241854
0.251108
0.260912
0.27131
0.282352
0.294092
0.306591
0.319917
0.334143
0.349353
0.36564
0.383108
0.401876
0.422077
0.443863
0.467407
0.492911
0.520612
0.550784
0.58376
0.619939
0.659813
0.704002
0.753296
0.808753
0.871676
0.943687
1.02697
1.12456
1.24072
1.38158
1.55608
1.77746
2.0656
2.45114
2.98259
3.74017
4.86383
6.61559
9.53197
14.8491
25.9131
54.1662
155.988
854.433
0.0642091
0.0655414
0.0669101
0.0683168
0.0697628
0.0712496
0.0727789
0.0743526
0.0759725
0.0776404
0.0793587
0.0811293
0.0829543
0.0848362
0.0867774
0.0887808
0.0908493
0.0929861
0.0951945
0.0974775
0.099839
0.102282
0.104813
0.107434
0.11015
0.112968
0.115891
0.118925
0.122078
0.125357
0.128769
0.132323
0.136024
0.139882
0.143906
0.148105
0.152489
0.157071
0.161862
0.166876
0.172126
0.177629
0.183402
0.189462
0.19583
0.202527
0.209577
0.217006
0.224842
0.233115
0.241861
0.251115
0.260918
0.271315
0.282357
0.294096
0.306595
0.31992
0.334146
0.349356
0.365643
0.383112
0.40188
0.422081
0.443867
0.467411
0.492916
0.520615
0.550787
0.583763
0.619942
0.659818
0.704007
0.753302
0.80876
0.871684
0.943693
1.02698
1.12457
1.24073
1.38159
1.55609
1.77746
2.0656
2.45114
2.98259
3.74017
4.86383
6.61559
9.53197
14.8491
25.9131
54.1662
155.988
854.433
0.0642367
0.06557
0.0669395
0.0683467
0.0697934
0.0712809
0.0728108
0.0743852
0.0760057
0.0776744
0.0793931
0.0811639
0.0829893
0.0848718
0.0868137
0.0888181
0.0908878
0.0930258
0.0952353
0.0975194
0.0998822
0.102327
0.104859
0.107481
0.110199
0.113018
0.115942
0.118978
0.122133
0.125414
0.128827
0.132382
0.136085
0.139945
0.14397
0.148171
0.152558
0.157143
0.161936
0.166952
0.172204
0.17771
0.183486
0.189548
0.19592
0.20262
0.209674
0.217106
0.224946
0.233224
0.241974
0.251233
0.261042
0.271445
0.282493
0.294239
0.306745
0.320078
0.334311
0.349529
0.365824
0.383301
0.402078
0.422289
0.444085
0.46764
0.493155
0.520868
0.551054
0.584044
0.62024
0.660134
0.704344
0.753665
0.809151
0.872108
0.944157
1.02749
1.12514
1.24137
1.38233
1.55695
1.77848
2.06684
2.45267
2.98452
3.74266
4.86713
6.62012
9.53848
14.8591
25.9299
54.1992
156.07
854.739
0.0642922
0.0656263
0.0669969
0.0684052
0.0698528
0.0713413
0.0728725
0.074448
0.0760698
0.0777399
0.0794602
0.081233
0.0830605
0.0849451
0.0868892
0.0888959
0.0909679
0.093108
0.0953194
0.0976057
0.0999707
0.102418
0.104952
0.107577
0.110298
0.113119
0.116046
0.119085
0.122243
0.125527
0.128944
0.132502
0.136209
0.140072
0.144102
0.148307
0.152698
0.157286
0.162084
0.167105
0.172363
0.177875
0.183656
0.189724
0.196101
0.202809
0.209869
0.217309
0.225157
0.233443
0.242202
0.25147
0.261289
0.271703
0.282762
0.29452
0.307038
0.320383
0.33463
0.349862
0.366172
0.383665
0.40246
0.422689
0.444505
0.468082
0.493622
0.521361
0.551576
0.584599
0.62083
0.660763
0.705016
0.754387
0.809931
0.872956
0.945086
1.02851
1.12628
1.24266
1.3838
1.55867
1.78053
2.06933
2.45574
2.98839
3.74765
4.87374
6.62919
9.5515
14.879
25.9636
54.265
156.235
855.35
0.0643746
0.0657103
0.0670827
0.0684931
0.069943
0.0714337
0.0729671
0.074545
0.0761692
0.0778414
0.0795641
0.0813394
0.0831696
0.0850567
0.0870035
0.0890127
0.0910873
0.0932304
0.095445
0.0977349
0.100103
0.102554
0.105092
0.107721
0.110446
0.113271
0.116203
0.119247
0.12241
0.125698
0.129121
0.132684
0.136396
0.140265
0.144301
0.148513
0.15291
0.157506
0.162311
0.16734
0.172606
0.178125
0.183915
0.189993
0.19638
0.203097
0.210169
0.21762
0.22548
0.233778
0.242549
0.25183
0.261663
0.272092
0.283167
0.294941
0.307477
0.320842
0.33511
0.350364
0.366699
0.384218
0.40304
0.423298
0.445145
0.468756
0.494332
0.522109
0.552365
0.585432
0.621713
0.661701
0.706019
0.755465
0.811098
0.874226
0.946476
1.03005
1.12799
1.2446
1.38603
1.56126
1.78361
2.07305
2.46034
2.99419
3.75513
4.88366
6.64279
9.57105
14.909
26.0141
54.3638
156.482
856.267
0.0644857
0.0658239
0.0671986
0.0686114
0.0700635
0.0715568
0.0730929
0.0746736
0.0763008
0.0779763
0.0797021
0.0814802
0.0833133
0.0852038
0.0871542
0.0891674
0.0912461
0.0933932
0.0956122
0.0979064
0.100279
0.102735
0.105278
0.107912
0.110642
0.113473
0.11641
0.11946
0.122629
0.125924
0.129354
0.132924
0.136644
0.140521
0.144565
0.148785
0.153191
0.157796
0.16261
0.167649
0.172925
0.178456
0.184257
0.190347
0.196746
0.203477
0.210562
0.218028
0.225902
0.234217
0.243007
0.252308
0.262161
0.272611
0.283708
0.295508
0.30807
0.321462
0.335759
0.351043
0.367409
0.384961
0.403819
0.424116
0.446004
0.469658
0.495282
0.523111
0.553423
0.586552
0.622902
0.662968
0.707372
0.756918
0.812669
0.875931
0.94834
1.03211
1.13028
1.24718
1.38899
1.56472
1.78771
2.07803
2.46648
3.00193
3.76512
4.8969
6.66095
9.59713
14.949
26.0815
54.4956
156.811
857.488
0.0646258
0.0659671
0.067345
0.0687608
0.0702163
0.0717131
0.0732526
0.0748369
0.0764675
0.0781464
0.0798757
0.0816579
0.0834952
0.0853901
0.0873448
0.0893622
0.091445
0.0935967
0.0958205
0.0981197
0.100498
0.10296
0.105508
0.108149
0.110885
0.113723
0.116667
0.119725
0.122902
0.126206
0.129644
0.133224
0.136954
0.140841
0.144895
0.149125
0.153543
0.158159
0.162985
0.168036
0.173325
0.178869
0.184683
0.190788
0.197203
0.20395
0.211052
0.218537
0.226432
0.234768
0.243579
0.252903
0.262781
0.273258
0.284383
0.296211
0.308802
0.322226
0.336556
0.351877
0.368282
0.385876
0.404779
0.425124
0.447064
0.470773
0.496456
0.524349
0.554731
0.587937
0.624372
0.664534
0.709048
0.758721
0.814619
0.878052
0.95066
1.03467
1.13314
1.25041
1.39269
1.56904
1.79285
2.08425
2.47416
3.01162
3.77761
4.91346
6.68367
9.62976
14.999
26.1658
54.6604
157.223
859.014
0.0647925
0.0661376
0.0675194
0.0689392
0.0703985
0.071899
0.0734427
0.0750311
0.0766659
0.0783494
0.0800837
0.081871
0.0837131
0.0856131
0.0875734
0.0895967
0.0916856
0.0938436
0.0960739
0.0983799
0.100765
0.103234
0.10579
0.108437
0.111181
0.114027
0.11698
0.120046
0.123232
0.126546
0.129994
0.133584
0.137325
0.141223
0.14529
0.149533
0.153963
0.158593
0.163435
0.1685
0.173806
0.179366
0.185198
0.191322
0.197756
0.204524
0.211648
0.219155
0.227074
0.235435
0.244272
0.253624
0.263531
0.274038
0.285195
0.297058
0.309687
0.323151
0.337523
0.352889
0.369342
0.386987
0.405942
0.426344
0.448345
0.472122
0.497876
0.525846
0.556313
0.589611
0.626147
0.666423
0.711066
0.760891
0.816964
0.8806
0.953448
1.03774
1.13657
1.25429
1.39714
1.57424
1.79902
2.09172
2.4834
3.02327
3.79263
4.93336
6.71096
9.66896
15.059
26.2671
54.8583
157.717
860.843
0.0649876
0.0663366
0.0677224
0.0691468
0.0706108
0.0721165
0.0736652
0.0752588
0.076899
0.0785879
0.0803279
0.0821209
0.0839691
0.0858753
0.087842
0.0898716
0.0919676
0.0941325
0.0963701
0.0986834
0.101076
0.103553
0.106117
0.108773
0.111527
0.114382
0.117345
0.120421
0.123618
0.126943
0.130403
0.134006
0.137759
0.141671
0.145751
0.150008
0.154454
0.159099
0.163957
0.169041
0.174364
0.179943
0.185796
0.191941
0.198399
0.20519
0.21234
0.219874
0.22782
0.23621
0.245079
0.254463
0.264405
0.274948
0.286144
0.298047
0.310719
0.324228
0.338648
0.354065
0.370572
0.388275
0.407293
0.427762
0.449834
0.473687
0.499524
0.527583
0.558148
0.591554
0.62821
0.66862
0.713415
0.763417
0.819697
0.883572
0.956702
1.04133
1.14058
1.25882
1.40234
1.5803
1.80624
2.10046
2.49419
3.03687
3.81018
4.95661
6.74284
9.71474
15.1292
26.3852
55.0893
158.293
862.975
0.0652093
0.0665632
0.067954
0.0693835
0.0708528
0.0723636
0.0739176
0.075517
0.0771631
0.0788584
0.0806048
0.0824045
0.0842596
0.086173
0.0881469
0.0901842
0.0922877
0.0944606
0.096706
0.0990279
0.10143
0.103916
0.10649
0.109156
0.11192