/*--------------------------------*- C++ -*----------------------------------*\
  =========                 |
  \\      /  F ield         | OpenFOAM: The Open Source CFD Toolbox
   \\    /   O peration     | Website:  https://openfoam.org
    \\  /    A nd           | Version:  7
     \\/     M anipulation  |
\*---------------------------------------------------------------------------*/
FoamFile
{
    version     2.0;
    format      ascii;
    class       surfaceScalarField;
    location    "24000";
    object      phi;
}
// * * * * * * * * * * * * * * * * * * * * * * * * * * * * * * * * * * * * * //

dimensions      [0 3 -1 0 0 0 0];

internalField   nonuniform List<scalar> 
9414
(
4.41236e-23
6.2346e-24
4.49447e-23
5.98069e-24
4.63186e-23
5.89892e-24
4.7172e-23
6.02949e-24
-1.08857e-23
5.89459e-24
1.3755e-23
5.96107e-24
7.01106e-24
5.92125e-24
7.54098e-24
5.70017e-24
2.36932e-23
5.57396e-24
5.67056e-24
-7.42322e-23
1.63311e-23
-1.88017e-23
1.69166e-23
-1.69104e-23
1.50187e-23
-1.38026e-23
1.39847e-23
4.37557e-24
1.35701e-23
-6.72933e-23
1.18107e-23
-1.40073e-22
1.28352e-23
-9.17878e-23
1.36973e-23
-7.3331e-23
1.35386e-23
-9.09766e-24
1.38232e-23
-2.35169e-23
1.312e-23
-4.22332e-23
1.28026e-23
-6.87503e-23
1.25049e-23
-1.90063e-23
1.16593e-23
7.8273e-24
1.16656e-23
1.53245e-24
1.12671e-23
-3.36045e-24
1.14574e-23
-1.05324e-23
1.20649e-23
1.63814e-23
1.09759e-23
7.24995e-23
1.12393e-23
6.86317e-23
1.05793e-23
7.10005e-23
9.57994e-24
-1.48224e-23
8.79147e-24
-8.2678e-24
8.96804e-24
-4.44304e-24
9.35827e-24
5.76536e-23
9.56543e-24
1.18492e-22
8.7509e-24
1.21158e-22
7.71494e-24
6.60628e-23
7.22221e-24
1.00282e-22
7.46547e-24
1.33192e-22
7.25778e-24
1.34954e-22
7.09778e-24
1.0335e-22
7.01569e-24
7.09644e-23
6.42265e-24
6.99792e-23
6.10768e-24
7.13326e-23
6.32042e-24
6.98772e-23
6.12606e-24
6.87256e-23
6.09793e-24
6.38627e-23
5.99918e-24
5.70006e-23
5.65018e-24
3.90191e-23
4.98594e-24
4.72693e-23
5.34564e-24
5.46235e-23
5.02518e-24
3.85946e-23
4.64678e-24
-2.98382e-23
4.37552e-24
-3.07886e-23
4.52893e-24
-1.95986e-23
4.75231e-24
2.82694e-23
4.3838e-24
2.059e-23
4.00871e-24
-2.42387e-25
3.76857e-24
-2.26741e-23
3.49531e-24
-2.32383e-23
3.66664e-24
-2.23911e-23
3.52185e-24
1.51007e-23
3.25103e-24
3.02027e-24
-2.69022e-23
9.35997e-24
-8.20673e-23
7.61286e-24
-8.05777e-23
8.36569e-24
-7.44075e-23
8.45914e-24
-7.24299e-23
8.37522e-24
-1.15925e-22
8.65304e-24
-1.24762e-22
8.2232e-24
-1.20026e-22
8.06267e-24
-1.1319e-22
1.00765e-23
-1.41167e-22
9.2118e-24
-1.3664e-22
9.53815e-24
-1.36614e-22
9.47975e-24
-1.3381e-22
9.09446e-24
-9.39822e-23
9.04928e-24
-8.71697e-23
9.64007e-24
-8.15766e-23
9.3822e-24
-1.08998e-22
9.21893e-24
-1.6928e-22
9.06763e-24
-1.30225e-22
9.38092e-24
-1.24595e-22
8.62054e-24
-1.54926e-22
8.51248e-24
-1.39995e-22
8.07909e-24
-1.36104e-22
8.64151e-24
-1.33917e-22
8.99623e-24
-1.20674e-22
9.5025e-24
-1.22256e-22
9.60979e-24
-1.25133e-22
9.98637e-24
-3.85491e-23
1.05062e-23
-4.32752e-23
1.02724e-23
-4.43934e-23
1.01224e-23
-1.13466e-23
1.05414e-23
-1.23398e-23
9.72756e-24
-7.58404e-23
9.2958e-24
-1.53416e-23
8.96183e-24
-1.52155e-23
8.57944e-24
1.94717e-23
8.40933e-24
2.14593e-23
8.10541e-24
-4.3158e-23
7.95606e-24
-5.51226e-23
7.82893e-24
-1.804e-23
7.56126e-24
-1.96242e-23
7.46115e-24
-2.37039e-23
7.2721e-24
-1.41222e-23
6.78905e-24
-2.07811e-24
6.80312e-24
4.9002e-23
6.89731e-24
2.07703e-23
7.00948e-24
-6.1801e-24
6.94517e-24
-9.95774e-24
6.81034e-24
-5.44739e-24
7.02161e-24
-2.09244e-23
6.5818e-24
-1.95668e-23
6.56486e-24
-4.3834e-23
6.5252e-24
-4.42342e-23
6.60946e-24
-4.33265e-23
6.79453e-24
6.63626e-24
-2.0807e-22
8.63923e-24
-1.84954e-22
1.0188e-23
-1.76521e-22
9.72808e-24
-1.31732e-22
8.90457e-24
-9.09871e-23
8.40033e-24
-7.54841e-23
7.19903e-24
-5.45407e-23
6.94116e-24
-5.05273e-23
6.40103e-24
-1.36548e-22
6.07103e-24
-1.35392e-22
7.0125e-24
-1.32828e-22
6.88517e-24
-1.28109e-22
7.87413e-24
-8.64016e-23
8.53721e-24
-1.41893e-23
9.62939e-24
-4.76506e-23
9.67178e-24
-4.3942e-23
9.45806e-24
-4.06312e-23
1.0202e-23
-4.01106e-23
1.12386e-23
-3.86176e-23
1.10851e-23
-4.27128e-24
1.22922e-23
-9.38145e-24
1.21471e-23
4.03034e-23
1.31033e-23
3.34027e-23
1.23812e-23
1.38137e-23
1.22773e-23
-5.99714e-24
1.30876e-23
-2.73476e-23
1.29941e-23
-1.17391e-25
1.28077e-23
9.16571e-25
1.25502e-23
1.36997e-23
1.23776e-23
2.66411e-23
1.19011e-23
-5.4502e-23
1.18357e-23
1.47879e-23
1.19196e-23
-1.11067e-23
1.21598e-23
2.79813e-23
1.26899e-23
2.81819e-23
1.25231e-23
6.22342e-23
1.22302e-23
3.3579e-23
1.20455e-23
3.6175e-23
1.22372e-23
3.42019e-23
1.20831e-23
3.15855e-23
1.21632e-23
2.74382e-23
1.24592e-23
3.95263e-23
1.2137e-23
3.50006e-23
1.2041e-23
4.32269e-23
1.20801e-23
7.71613e-23
1.20938e-23
7.09668e-23
1.18431e-23
7.59979e-23
1.20827e-23
5.87343e-23
1.17447e-23
4.13553e-23
1.14642e-23
3.45334e-23
1.16146e-23
5.25899e-23
1.16002e-23
4.54704e-23
1.14252e-23
5.06766e-23
1.12691e-23
5.64223e-23
1.11858e-23
1.1172e-23
-8.22739e-23
9.86001e-24
-7.22593e-23
8.9514e-24
-1.04127e-22
9.41041e-24
-8.87683e-23
1.01753e-23
-9.87316e-23
1.07394e-23
-3.69144e-23
1.14832e-23
-7.16369e-24
1.09202e-23
-4.3823e-23
1.00063e-23
-8.0649e-23
9.94928e-24
-8.65907e-23
9.77044e-24
-3.53064e-23
1.15342e-23
1.46607e-23
1.27883e-23
4.66404e-24
1.23658e-23
-5.66664e-24
1.10435e-23
-2.52129e-23
1.0449e-23
-2.97164e-23
1.03554e-23
-9.62548e-23
1.05977e-23
-1.02591e-22
1.01074e-23
-1.11394e-22
1.07671e-23
-1.27079e-22
1.05967e-23
-1.49928e-22
1.08176e-23
-1.64495e-22
1.06496e-23
-1.68634e-22
1.121e-23
-1.35574e-22
1.08597e-23
-1.47168e-22
1.0217e-23
-1.4776e-22
9.83807e-24
-1.13398e-22
1.03933e-23
-1.11337e-22
9.66229e-24
-7.85138e-23
8.98144e-24
-1.21914e-22
8.77971e-24
-1.63376e-22
8.93289e-24
-1.31127e-22
9.12639e-24
-9.00391e-23
9.28646e-24
-1.66282e-22
8.4768e-24
-1.60984e-22
9.13206e-24
-1.31157e-22
9.82518e-24
-9.15432e-23
9.73497e-24
-1.46867e-22
9.465e-24
-1.68921e-22
9.50438e-24
-1.67697e-22
9.59807e-24
-1.5528e-22
9.7878e-24
-1.0699e-22
1.00015e-23
-7.52313e-23
1.00409e-23
-4.41715e-23
9.91155e-24
-4.05027e-23
9.38925e-24
-4.86395e-23
9.15135e-24
-8.05777e-23
8.64279e-24
-9.87972e-23
8.58418e-24
-8.37344e-23
8.90398e-24
-9.17528e-23
8.632e-24
-8.78826e-23
8.46447e-24
-8.22097e-23
8.44793e-24
-6.27294e-23
8.34062e-24
-7.93057e-23
8.20297e-24
7.91616e-24
-1.47087e-22
5.35505e-24
-1.46439e-22
6.71918e-24
-1.45164e-22
6.70302e-24
-1.43027e-22
6.89052e-24
-1.43434e-22
7.59825e-24
-1.74577e-22
7.89289e-24
-1.77516e-22
8.49589e-24
-1.90767e-22
8.79192e-24
-1.52197e-22
7.8664e-24
-8.64858e-23
9.14565e-24
-8.72514e-23
9.11027e-24
-1.24537e-22
8.38689e-24
-1.25388e-22
9.28789e-24
-1.26902e-22
1.00859e-23
-6.20149e-23
9.693e-24
-6.42434e-23
9.24769e-24
-3.17396e-23
7.98831e-24
-3.70563e-23
8.02497e-24
-4.20184e-23
8.09258e-24
1.62125e-23
8.34258e-24
-3.16975e-23
8.46606e-24
-2.37474e-24
8.09803e-24
-2.82733e-24
7.96202e-24
-3.75041e-23
8.33454e-24
-8.22469e-24
8.00502e-24
-2.68588e-23
8.18098e-24
-9.63812e-23
7.57376e-24
-1.04008e-22
8.09153e-24
-1.09476e-22
8.47255e-24
-2.59344e-23
8.64953e-24
-2.93281e-23
8.30983e-24
3.88806e-25
8.74444e-24
-1.47339e-23
8.90429e-24
3.57882e-23
9.80743e-24
2.63592e-23
9.51709e-24
-1.095e-23
9.21089e-24
-5.657e-24
9.0128e-24
1.96095e-23
8.75656e-24
4.99685e-23
8.74931e-24
1.35026e-23
8.62695e-24
1.14717e-23
7.9908e-24
-4.76803e-24
8.01152e-24
-1.84161e-23
7.71969e-24
-7.07392e-23
7.5646e-24
-6.84052e-23
7.4028e-24
-7.78231e-23
7.01227e-24
-4.98103e-23
7.05301e-24
-3.43601e-23
6.9979e-24
-2.90363e-23
6.38673e-24
-2.2806e-23
6.3438e-24
-1.63125e-23
6.19016e-24
-1.0578e-23
5.88528e-24
-1.72454e-23
5.73623e-24
-2.56983e-23
5.53627e-24
5.47234e-24
-5.17766e-23
1.30371e-23
-2.53943e-23
1.11005e-23
3.61731e-24
1.02832e-23
-1.46821e-23
1.05645e-23
-2.44744e-23
9.58101e-24
-3.33219e-23
9.24737e-24
-7.23732e-23
9.31273e-24
-7.74188e-23
1.06764e-23
-1.70794e-23
1.10297e-23
1.22828e-23
1.01083e-23
-5.72013e-24
1.01451e-23
-1.44428e-23
9.83873e-24
-5.78552e-23
9.13018e-24
-1.54034e-22
8.64575e-24
-1.57486e-22
9.18689e-24
-1.57197e-22
9.24543e-24
-1.421e-22
9.37659e-24
-1.40088e-22
9.33096e-24
-1.42324e-22
9.7862e-24
-1.59753e-22
9.55254e-24
-1.65101e-22
9.95302e-24
-1.69814e-22
9.9774e-24
-1.78353e-22
1.03368e-23
-1.87965e-22
1.0533e-23
-1.64776e-22
1.05161e-23
-1.35647e-22
1.09746e-23
-1.74425e-22
1.13326e-23
-1.16689e-22
1.18282e-23
-1.35879e-22
1.14358e-23
-8.63229e-23
1.12635e-23
-5.30548e-24
1.09757e-23
-9.42405e-24
1.06986e-23
-1.06636e-23
1.0087e-23
-6.47532e-23
9.51588e-24
-5.85171e-23
9.50739e-24
-1.15186e-22
8.76197e-24
-8.21199e-23
8.37726e-24
-6.38339e-23
7.92089e-24
-5.61701e-23
7.86469e-24
-4.89102e-23
7.97692e-24
-4.69574e-23
8.00752e-24
-5.85179e-23
7.67261e-24
-2.86447e-23
8.18291e-24
-5.41598e-23
7.83424e-24
-6.87714e-23
7.98234e-24
-4.48814e-23
8.17427e-24
-8.41237e-23
7.79217e-24
-6.32255e-23
7.86393e-24
-5.69027e-23
7.86215e-24
-2.61068e-23
7.78609e-24
-3.96185e-23
7.50453e-24
-6.88459e-24
7.39183e-24
-1.12394e-23
7.13056e-24
-1.71368e-23
6.97225e-24
-1.79212e-23
6.9968e-24
-7.63947e-24
6.90639e-24
1.06943e-23
6.96703e-24
1.16149e-23
6.91264e-24
6.80813e-24
-3.00049e-22
6.7672e-24
-2.36581e-22
7.4713e-24
-1.76177e-22
7.6507e-24
-1.74528e-22
7.19097e-24
-1.73981e-22
7.57655e-24
-1.33359e-22
7.62667e-24
-9.39644e-23
7.57055e-24
-1.58727e-22
7.09001e-24
-1.59166e-22
7.05675e-24
-1.26457e-22
8.07653e-24
-1.2733e-22
7.56163e-24
-1.26171e-22
7.84557e-24
-1.27643e-22
8.91899e-24
-1.30683e-22
9.75938e-24
-1.33973e-22
9.39472e-24
-1.35265e-22
1.08016e-23
-9.53886e-23
1.16787e-23
-3.51698e-23
1.19595e-23
-3.57086e-23
1.23478e-23
-4.00099e-23
1.23193e-23
-6.99697e-24
1.18293e-23
-4.63929e-23
1.18491e-23
-4.45752e-23
1.16411e-23
-4.20484e-23
1.21505e-23
-3.9519e-23
1.2192e-23
-3.94078e-24
1.2405e-23
-1.93415e-23
1.23034e-23
-8.72261e-23
1.10707e-23
-8.95663e-23
1.12672e-23
-8.93912e-23
1.14847e-23
-5.50012e-23
1.14349e-23
-5.33755e-23
1.10602e-23
-1.90071e-23
1.03341e-23
-8.36479e-23
1.02144e-23
-9.74089e-23
9.82997e-24
-1.39248e-22
9.42602e-24
-1.4492e-22
9.47456e-24
-8.75318e-23
9.29368e-24
-1.05326e-22
9.17936e-24
-9.33059e-23
8.90344e-24
-6.66149e-23
8.52899e-24
-8.28909e-23
8.06505e-24
-7.08359e-23
7.59234e-24
-1.00195e-22
7.1336e-24
-1.29249e-22
6.79656e-24
-1.29823e-22
6.78752e-24
-1.06308e-22
6.67417e-24
-1.06373e-22
6.59722e-24
-1.29519e-22
6.07908e-24
-1.03878e-22
5.97778e-24
-9.61165e-23
5.88209e-24
-9.23693e-23
5.54826e-24
-5.49414e-23
5.62973e-24
-2.06348e-24
5.46241e-24
4.55821e-24
5.03696e-24
2.389e-23
4.81849e-24
8.77075e-24
4.42981e-24
6.14495e-24
4.41924e-24
-2.01852e-23
4.16187e-24
4.07739e-24
-9.58864e-23
-1.99338e-24
-8.49908e-23
-8.80466e-25
-1.11871e-22
1.02353e-24
-1.0643e-22
1.77104e-24
-1.37671e-22
8.769e-25
-1.3155e-22
2.8805e-24
-1.27101e-22
2.86076e-24
-1.40047e-22
4.2149e-24
-1.8286e-22
4.96087e-24
-1.24538e-22
5.76951e-24
-5.38866e-23
6.23211e-24
-4.82233e-23
5.81863e-24
-7.94903e-23
5.65222e-24
-1.13013e-22
5.76133e-24
-1.43418e-22
6.49099e-24
-1.3342e-22
6.80005e-24
-1.229e-22
6.90202e-24
-1.11724e-22
6.03462e-24
-1.42364e-22
7.08208e-24
-1.97712e-22
6.85211e-24
-1.89404e-22
7.12689e-24
-1.84784e-22
6.93706e-24
-1.17718e-22
6.66784e-24
-1.20946e-22
5.7514e-24
-1.22787e-22
5.36725e-24
-1.91401e-22
4.81711e-24
-2.55987e-22
4.65051e-24
-2.56776e-22
5.57065e-24
-2.23168e-22
5.89952e-24
-2.21946e-22
5.25767e-24
-2.56859e-22
5.26637e-24
-2.57272e-22
5.4145e-24
-2.2319e-22
5.86193e-24
-1.8843e-22
6.27034e-24
-1.88744e-22
5.88977e-24
-1.89898e-22
5.999e-24
-1.53927e-22
6.88495e-24
-1.18767e-22
6.69278e-24
-1.173e-22
6.15357e-24
-1.12808e-22
5.54265e-24
-1.20032e-22
6.0706e-24
-1.14883e-22
5.60898e-24
-1.1245e-22
5.49191e-24
-1.10422e-22
5.77464e-24
-5.53589e-23
5.65554e-24
-8.01506e-23
5.34209e-24
-9.01764e-23
5.24482e-24
-1.09352e-22
5.17605e-24
-9.72439e-23
5.38576e-24
-1.04935e-22
5.48704e-24
-9.37354e-23
5.74003e-24
-9.32786e-23
5.90945e-24
-9.3825e-23
5.87711e-24
-7.38369e-23
5.95208e-24
-7.80079e-23
6.25468e-24
-9.02168e-23
6.18858e-24
-4.30319e-23
6.19009e-24
-6.62846e-23
6.09246e-24
-7.02523e-23
6.06493e-24
-7.60751e-23
6.02367e-24
-6.17123e-23
6.15031e-24
-3.44928e-23
6.21878e-24
8.40911e-24
6.18769e-24
-2.12579e-25
6.15522e-24
-1.13825e-23
6.36471e-24
1.51912e-23
6.32328e-24
7.60281e-24
6.18722e-24
5.10453e-23
6.17744e-24
4.54535e-23
6.08009e-24
6.48906e-23
6.01525e-24
5.63978e-23
5.90309e-24
3.13178e-23
5.81604e-24
5.80133e-23
5.58267e-24
4.49262e-23
5.468e-24
6.50564e-23
5.32868e-24
6.17253e-23
5.19796e-24
4.41454e-23
4.99947e-24
2.70389e-23
4.79293e-24
3.07322e-23
4.56905e-24
2.34936e-23
4.32586e-24
2.22534e-23
4.04874e-24
2.65002e-23
3.75652e-24
2.1501e-23
3.43057e-24
2.13647e-23
3.06189e-24
2.09374e-23
2.7018e-24
2.06071e-23
2.25193e-24
1.40179e-23
1.82435e-24
2.27808e-23
1.40511e-24
1.6451e-23
9.6932e-25
8.87177e-24
5.55527e-25
1.14243e-24
1.5519e-25
6.4269e-25
-2.39559e-25
-1.0568e-24
-6.0179e-25
-5.76653e-25
-9.70343e-25
-5.08077e-26
-1.28071e-22
4.53839e-24
-1.08068e-22
5.15059e-24
-1.17791e-22
5.90009e-24
-1.27255e-22
4.92327e-24
-6.42575e-23
6.79371e-24
-7.37591e-23
6.36488e-24
-3.97625e-23
7.13123e-24
-5.09313e-23
5.87047e-24
-6.20187e-23
5.479e-24
-3.23266e-23
5.46868e-24
-3.48391e-23
4.41996e-24
3.58961e-25
3.92173e-24
-1.10885e-25
4.02625e-24
5.36408e-25
3.11786e-24
-2.80343e-23
2.72546e-24
-2.34026e-23
2.09823e-24
-1.81351e-23
1.23397e-24
2.13512e-23
1.28461e-24
-6.60112e-24
-6.25609e-25
-8.83731e-23
-1.53846e-24
-7.69246e-23
-2.43679e-24
-1.30938e-22
-2.57467e-24
-1.20898e-22
-3.0007e-24
-1.12105e-22
-3.32682e-24
-1.03794e-22
-3.45514e-24
-9.59774e-23
-3.97818e-24
-8.44083e-23
-4.10182e-24
-1.33897e-22
-4.58839e-24
-1.86109e-22
-4.14377e-24
-1.78903e-22
-3.03174e-24
-1.43153e-22
-2.04614e-24
-1.52082e-22
-2.0021e-24
-1.52364e-22
-1.54852e-24
-2.1188e-22
-9.3314e-25
-1.7225e-22
-3.71628e-25
-2.00206e-22
5.0916e-25
-2.55407e-22
1.77426e-25
-2.83321e-22
6.43752e-25
-2.78236e-22
8.74399e-25
-2.75294e-22
1.58704e-24
-2.31916e-22
1.83043e-24
-2.37814e-22
1.42712e-24
-2.18181e-22
2.11903e-24
-1.87678e-22
1.82604e-24
-1.83939e-22
2.10043e-24
-1.93952e-22
2.18288e-24
-1.78175e-22
1.9662e-24
-1.74151e-22
2.14826e-24
-1.71323e-22
2.47816e-24
-1.07207e-22
2.81606e-24
-1.27365e-22
2.82842e-24
-1.24101e-22
3.05818e-24
-1.13404e-22
3.43955e-24
-1.33891e-22
3.73498e-24
-1.30916e-22
3.76643e-24
-1.03857e-22
3.8727e-24
-1.18598e-22
4.07033e-24
-9.19531e-23
4.25926e-24
-8.34142e-23
4.05391e-24
-5.42208e-23
4.24387e-24
-3.83911e-23
4.26405e-24
-2.37193e-23
4.21596e-24
-1.18197e-23
4.26554e-24
-1.74222e-24
4.47792e-24
-4.7003e-23
4.50384e-24
-4.54655e-23
4.63445e-24
-4.7236e-23
4.95806e-24
-4.95249e-23
5.04047e-24
-3.05506e-23
5.31417e-24
-3.82738e-23
5.26996e-24
-5.1324e-23
5.32815e-24
-7.50644e-23
5.26782e-24
-5.18816e-23
5.32206e-24
-3.13193e-23
5.34437e-24
-2.66718e-23
5.31322e-24
-2.87208e-23
5.15122e-24
-3.00878e-23
5.04097e-24
-1.59189e-23
4.8784e-24
-2.87802e-23
4.74341e-24
-1.75279e-23
4.58853e-24
-3.34882e-23
4.31807e-24
-2.03608e-23
4.07981e-24
-1.94647e-23
3.76474e-24
-1.89549e-23
3.44411e-24
-3.04816e-23
3.0497e-24
-2.32556e-23
2.67177e-24
-1.62895e-23
2.22914e-24
-1.26549e-23
1.78042e-24
-4.39759e-24
1.33949e-24
-5.19036e-24
8.74836e-25
-2.59176e-24
4.32323e-25
2.8232e-24
7.23573e-27
4.26377e-25
-3.94293e-25
5.36692e-25
-7.85534e-25
1.34928e-25
-5.28185e-25
-5.41573e-24
-5.44001e-23
-4.48624e-24
-1.02826e-22
-5.44811e-24
-9.36653e-23
-3.74939e-24
-1.14809e-22
-4.37761e-24
-1.0149e-22
-3.37112e-24
-1.28558e-22
-2.58877e-24
-1.55935e-22
-2.7221e-24
-1.81706e-22
-1.22739e-24
-1.7293e-22
-8.44542e-25
-1.63387e-22
-5.23396e-25
-9.02569e-23
-1.19368e-24
-1.27472e-22
-1.2063e-24
-2.14231e-22
-2.18029e-24
-2.06391e-22
-2.8396e-24
-2.31511e-22
-1.62308e-24
-1.92816e-22
-1.88243e-24
-2.80784e-22
-2.92215e-24
-2.44382e-22
-1.89826e-24
-2.40458e-22
-2.19049e-24
-2.38934e-22
-2.49831e-24
-2.35696e-22
-2.87347e-24
-2.30561e-22
-3.08567e-24
-1.88645e-22
-3.35264e-24
-1.86012e-22
-3.21737e-24
-1.53039e-22
-3.10687e-24
-1.56195e-22
-3.443e-24
-9.36015e-23
-3.17555e-24
-6.3391e-23
-3.23454e-24
-6.86315e-23
-3.54357e-24
-7.08241e-23
-4.19429e-24
-3.63763e-23
-4.54143e-24
-7.1802e-23
-5.03825e-24
-1.03818e-23
-5.05418e-24
-8.77095e-24
-6.05291e-24
-1.19443e-22
-6.66844e-24
-1.73382e-22
-6.2579e-24
-1.65761e-22
-5.61156e-24
-1.62041e-22
-5.42589e-24
-2.23976e-22
-5.60729e-24
-1.85926e-22
-5.19817e-24
-2.12769e-22
-4.93692e-24
-2.07139e-22
-4.58041e-24
-2.27639e-22
-4.42826e-24
-2.19542e-22
-4.3581e-24
-2.10005e-22
-3.91472e-24
-1.49167e-22
-3.46408e-24
-1.13716e-22
-3.30361e-24
-9.36345e-23
-3.56516e-24
-1.09776e-22
-3.64401e-24
-9.21087e-23
-3.37713e-24
-8.31164e-23
-3.13285e-24
-8.61104e-23
-3.15369e-24
-1.37163e-22
-3.20578e-24
-1.53141e-22
-3.03637e-24
-1.34455e-22
-2.94151e-24
-1.6087e-22
-2.79666e-24
-1.99248e-22
-2.89842e-24
-1.9035e-22
-2.63071e-24
-1.82512e-22
-2.50999e-24
-1.41637e-22
-2.31787e-24
-8.84996e-23
-2.54291e-24
-7.8016e-23
-2.73387e-24
-6.75325e-23
-2.87067e-24
-5.06712e-23
-3.06579e-24
-4.08724e-23
-3.11254e-24
-5.02269e-23
-3.14352e-24
-6.93401e-23
-3.40513e-24
-5.83402e-23
-3.36007e-24
-8.06469e-23
-3.2681e-24
-7.46257e-23
-3.17309e-24
-6.45006e-23
-3.08655e-24
-5.51936e-23
-3.03509e-24
-6.15412e-23
-2.93661e-24
-5.19624e-23
-2.85719e-24
-5.8308e-23
-2.70332e-24
-3.42518e-23
-2.65867e-24
-3.32543e-23
-2.56434e-24
-3.38427e-23
-2.53654e-24
-5.28114e-23
-2.46561e-24
-5.83494e-23
-2.35115e-24
-5.28869e-23
-2.27554e-24
-4.77376e-23
-2.17873e-24
-4.80469e-23
-2.17678e-24
-4.32021e-23
-2.14543e-24
-3.09062e-23
-2.11011e-24
-1.98891e-23
-2.14467e-24
-1.59778e-23
-2.16563e-24
-1.25005e-23
-2.19892e-24
-1.36375e-23
-2.23708e-24
-1.10347e-23
-2.27186e-24
-8.3309e-24
-2.32271e-24
-1.63996e-24
-2.39563e-24
-4.01746e-25
-2.55396e-24
-2.80702e-25
-1.20757e-23
5.5501e-25
-1.81453e-23
-1.53641e-24
-2.20275e-23
-3.29402e-24
-7.87632e-23
-5.77523e-24
-3.76693e-23
-5.84247e-24
-3.20253e-23
-6.18595e-24
-2.40697e-23
-7.33483e-24
-1.50495e-23
-8.26738e-24
-6.41974e-23
-9.0267e-24
-1.09068e-22
-9.28841e-24
-9.12412e-23
-8.79336e-24
-7.79479e-23
-9.34451e-24
-1.32773e-22
-9.69908e-24
-1.19574e-22
-9.68596e-24
-1.05988e-22
-9.37772e-24
-1.29473e-22
-9.01523e-24
-2.09702e-22
-8.90476e-24
-1.11851e-22
-7.78848e-24
-1.97266e-22
-8.16206e-24
-1.96657e-22
-7.1091e-24
-1.97861e-22
-6.22418e-24
-2.00203e-22
-5.05626e-24
-2.01485e-22
-4.12028e-24
-1.39737e-22
-3.83262e-24
-1.53703e-22
-3.30837e-24
-1.55191e-22
-3.57096e-24
-8.97789e-23
-3.47597e-24
-8.82355e-23
-2.96537e-24
-9.08862e-23
-3.30671e-24
-1.56652e-22
-3.17552e-24
-1.22812e-22
-3.01602e-24
-1.23185e-22
-3.82562e-24
-9.08663e-23
-3.85383e-24
-9.28265e-23
-4.29994e-24
-5.92269e-23
-4.28968e-24
-6.23677e-23
-4.38435e-24
-2.68155e-23
-4.61029e-24
6.16505e-24
-5.30318e-24
-5.73791e-23
-5.59838e-24
-2.21436e-23
-5.52306e-24
-1.52803e-23
-5.86306e-24
-4.22243e-23
-5.96291e-24
-7.03056e-23
-5.58706e-24
-6.29799e-23
-5.55236e-24
-7.00831e-23
-5.60401e-24
-6.20322e-23
-5.48672e-24
-9.28683e-23
-5.38501e-24
-9.87403e-23
-5.1074e-24
-9.34401e-23
-5.06033e-24
-9.86813e-23
-4.81585e-24
-8.45914e-23
-4.78209e-24
-7.14021e-23
-4.92016e-24
-7.72495e-23
-5.13832e-24
-7.36827e-23
-5.15729e-24
-6.87505e-23
-5.25308e-24
-6.89678e-23
-5.22182e-24
-9.40125e-23
-5.43778e-24
-6.34512e-23
-5.36519e-24
-8.05097e-23
-5.34563e-24
-1.09753e-22
-5.50762e-24
-9.35003e-23
-5.4359e-24
-9.15698e-23
-5.28884e-24
-8.71348e-23
-5.05579e-24
-8.36949e-23
-5.03515e-24
-5.14836e-23
-4.91758e-24
-5.88457e-23
-4.86243e-24
-5.10771e-23
-4.82097e-24
-5.16852e-23
-4.46571e-24
-3.15451e-23
-4.351e-24
-3.14192e-23
-4.24524e-24
-2.92033e-23
-4.10741e-24
-2.69726e-23
-3.93736e-24
-1.05808e-23
-3.7314e-24
-8.25012e-24
-3.5418e-24
-5.79326e-24
-3.36905e-24
-1.93605e-23
-3.20984e-24
-8.15856e-24
-2.9461e-24
-5.86663e-24
-2.75835e-24
2.21416e-24
-2.49465e-24
1.85439e-23
-2.35064e-24
2.22219e-23
-2.14607e-24
1.74755e-23
-2.00471e-24
1.70038e-23
-1.87361e-24
1.68476e-23
-1.72376e-24
5.10357e-24
-1.56142e-24
8.06143e-24
-1.4468e-24
3.75302e-24
-1.39167e-24
2.62231e-24
-1.31565e-24
3.77222e-24
-1.28312e-24
8.0188e-24
-1.27903e-24
6.83936e-24
-1.29629e-24
2.38185e-24
-1.3456e-24
2.06336e-25
-1.43995e-24
1.87634e-25
-1.62221e-24
2.05092e-26
-9.1998e-23
-5.29769e-24
-1.0702e-22
-3.47587e-24
-1.03427e-22
-2.34622e-24
-1.01731e-22
-3.36749e-24
-6.06799e-23
-3.6136e-24
-5.95798e-23
-4.4844e-24
-5.75309e-23
-3.84602e-24
-4.66196e-23
-4.82626e-24
-4.6347e-23
-6.81352e-24
-4.76568e-23
-7.16586e-24
-4.77964e-23
-9.11567e-24
-4.86784e-23
-9.44435e-24
-5.23153e-23
-9.41276e-24
-5.36696e-23
-9.98161e-24
-9.54665e-23
-9.98841e-24
-9.81926e-23
-1.01541e-23
-1.0206e-22
-1.00966e-23
-1.02292e-22
-1.06662e-23
-1.02703e-22
-1.0485e-23
-9.95747e-23
-1.0535e-23
-9.78503e-23
-1.04175e-23
-1.26776e-22
-1.02804e-23
-1.82217e-22
-1.06065e-23
-1.44847e-22
-1.05762e-23
-1.39692e-22
-1.07587e-23
-1.90052e-22
-1.09925e-23
-1.18003e-22
-1.01071e-23
-1.46082e-22
-1.05643e-23
-1.40933e-22
-1.0876e-23
-2.20582e-22
-1.11951e-23
-2.45915e-22
-1.11843e-23
-2.67435e-22
-1.0446e-23
-1.94347e-22
-1.05897e-23
-1.85052e-22
-1.05026e-23
-2.43037e-22
-1.00997e-23
-2.39762e-22
-9.62755e-24
-2.66012e-22
-9.31195e-24
-2.25602e-22
-9.61252e-24
-2.1853e-22
-9.49483e-24
-2.72305e-22
-9.02812e-24
-2.09683e-22
-8.45842e-24
-1.94624e-22
-8.2594e-24
-1.62494e-22
-8.42831e-24
-1.56154e-22
-8.30206e-24
-1.48934e-22
-8.10677e-24
-1.12851e-22
-8.01925e-24
-1.19801e-22
-7.88174e-24
-1.26754e-22
-7.61714e-24
-9.75728e-23
-7.3947e-24
-9.31749e-23
-7.5104e-24
-1.00194e-22
-7.68342e-24
-1.16923e-22
-7.49892e-24
-1.37393e-22
-7.05773e-24
-1.34216e-22
-7.04297e-24
-1.40311e-22
-6.83078e-24
-1.5128e-22
-6.56707e-24
-1.52322e-22
-6.05898e-24
-1.50319e-22
-5.9834e-24
-1.70732e-22
-5.98379e-24
-1.72817e-22
-5.76285e-24
-1.33352e-22
-5.48068e-24
-1.25225e-22
-5.41404e-24
-1.35256e-22
-5.268e-24
-1.27235e-22
-5.1556e-24
-1.11353e-22
-4.96083e-24
-8.17063e-23
-4.8124e-24
-5.03553e-23
-4.65734e-24
-4.16341e-23
-4.57462e-24
-4.16926e-23
-4.51754e-24
-4.47223e-23
-4.22642e-24
-1.52224e-23
-4.09364e-24
-1.55236e-23
-3.8783e-24
-2.58362e-23
-3.66578e-24
-3.12563e-24
-3.41943e-24
-2.63112e-24
-3.24969e-24
2.13202e-23
-3.05185e-24
1.37021e-23
-2.87572e-24
1.40986e-23
-2.63246e-24
8.26561e-24
-2.47301e-24
8.97449e-24
-2.2512e-24
-1.9846e-23
-2.12376e-24
-1.90114e-23
-1.94176e-24
-5.19244e-24
-1.75102e-24
-4.63983e-24
-1.66455e-24
-1.3873e-23
-1.59362e-24
-1.32141e-23
-1.524e-24
-5.51917e-24
-1.45915e-24
-4.4362e-24
-1.44453e-24
2.74807e-25
-1.45792e-24
3.90059e-24
-1.51022e-24
4.95181e-24
-1.59724e-24
4.13462e-25
-1.71745e-24
-1.61867e-24
-1.88854e-24
-5.46059e-25
-2.1636e-24
-1.65995e-25
-7.84454e-23
2.75059e-24
-8.45766e-23
2.32094e-24
-1.30406e-22
2.53402e-24
-1.789e-22
2.51378e-24
-9.3025e-23
2.70158e-24
-9.60773e-23
3.10257e-24
-1.58969e-22
1.57648e-24
-1.64189e-22
1.44777e-24
-1.73745e-22
1.52861e-24
-2.15566e-22
6.25052e-25
-1.5777e-22
4.48921e-25
-1.34468e-22
3.41731e-25
-1.1159e-22
-1.05529e-24
-8.04092e-23
-2.04251e-24
-8.13941e-23
-2.14533e-24
-7.14473e-23
-2.31554e-24
-7.46046e-23
-2.86895e-24
-4.49172e-23
-3.10216e-24
-5.22803e-23
-3.53198e-24
-2.01837e-23
-4.39867e-24
-2.28491e-23
-4.68106e-24
-1.15595e-23
-5.13711e-24
-1.39487e-23
-5.85812e-24
-1.87582e-23
-6.51726e-24
1.76748e-23
-6.7904e-24
1.4154e-23
-6.66028e-24
4.74551e-23
-6.87933e-24
4.34802e-23
-7.78144e-24
3.76625e-23
-8.10433e-24
3.03137e-23
-7.88199e-24
5.86104e-23
-8.50673e-24
5.08997e-23
-8.6553e-24
4.25798e-23
-8.64011e-24
1.00079e-22
-9.07674e-24
9.80104e-23
-9.33239e-24
3.62997e-23
-9.37301e-24
2.37202e-24
-9.9205e-24
3.24896e-23
-9.54986e-24
6.6451e-23
-9.4052e-24
6.43444e-23
-9.63076e-24
6.15551e-23
-9.71935e-24
2.53273e-23
-9.71636e-24
2.65061e-23
-9.84645e-24
5.89222e-23
-9.66559e-24
2.97952e-23
-9.75338e-24
1.68865e-23
-9.9058e-24
1.83157e-23
-9.85401e-24
-1.86151e-23
-9.9057e-24
-2.97365e-23
-1.0032e-23
-6.45515e-23
-9.9473e-24
-3.4783e-25
-9.70018e-24
-5.92532e-24
-9.88998e-24
-2.69151e-23
-9.90789e-24
-4.92665e-23
-9.76224e-24
-4.84204e-23
-9.66992e-24
-4.75774e-23
-9.77419e-24
-1.0543e-22
-9.70638e-24
-1.02361e-22
-9.42513e-24
-9.93251e-23
-9.09777e-24
-8.43703e-23
-8.73157e-24
-7.74982e-23
-8.55835e-24
-5.16464e-23
-8.27238e-24
-7.84084e-23
-8.22722e-24
-7.0997e-23
-8.21907e-24
-4.50836e-23
-7.9344e-24
-3.12245e-23
-7.66447e-24
-1.91377e-23
-7.4897e-24
-1.49048e-23
-7.16861e-24
-1.11308e-23
-6.9277e-24
-6.78182e-24
-6.65555e-24
-3.15301e-24
-6.47755e-24
8.68267e-24
-6.34919e-24
1.44061e-24
-6.18038e-24
-1.8647e-23
-5.99676e-24
1.32146e-25
-5.79834e-24
-1.21113e-23
-5.55079e-24
1.45725e-23
-5.30758e-24
1.78089e-23
-5.08294e-24
2.27434e-25
-4.82625e-24
1.9389e-24
-4.60019e-24
2.98427e-24
-4.31109e-24
4.17291e-24
-4.12427e-24
7.83392e-24
-3.93002e-24
8.58871e-24
-3.71368e-24
4.41232e-24
-3.54145e-24
8.39303e-24
-3.35232e-24
8.53328e-24
-3.18805e-24
6.22824e-24
-3.01948e-24
1.26061e-24
-2.88854e-24
-3.04625e-24
-2.73268e-24
2.03918e-24
-2.60455e-24
9.85001e-25
-2.49929e-24
-4.79497e-25
-2.45525e-24
7.11339e-27
-2.50808e-24
-1.40996e-25
-4.01933e-23
-1.4543e-23
-3.17493e-23
-1.38041e-23
-8.21492e-23
-1.29087e-23
-1.36586e-22
-1.1378e-23
-9.12031e-23
-9.70409e-24
-1.46725e-22
-1.03826e-23
-1.3862e-22
-9.40252e-24
-1.26158e-22
-9.33783e-24
-2.04473e-22
-8.73963e-24
-1.9283e-22
-6.16269e-24
-1.4758e-22
-6.34981e-24
-1.81351e-22
-5.26617e-24
-1.79937e-22
-5.44842e-24
-1.15144e-22
-5.29887e-24
-1.12376e-22
-5.23899e-24
-1.07143e-22
-6.0458e-24
-1.01089e-22
-6.18047e-24
-1.289e-22
-6.10165e-24
-1.21378e-22
-6.94303e-24
-1.16328e-22
-6.82115e-24
-1.12726e-22
-8.21515e-24
-1.73365e-22
-8.14214e-24
-1.68194e-22
-7.94717e-24
-1.60352e-22
-7.69116e-24
-1.55689e-22
-7.63223e-24
-1.8706e-22
-8.13781e-24
-1.8318e-22
-8.48302e-24
-2.18554e-22
-7.77576e-24
-2.17863e-22
-7.36377e-24
-2.16913e-22
-6.86385e-24
-2.16997e-22
-6.27236e-24
-1.75782e-22
-6.54082e-24
-1.80412e-22
-6.07969e-24
-1.55677e-22
-5.48433e-24
-1.31909e-22
-4.7707e-24
-1.71331e-22
-4.54131e-24
-1.19489e-22
-4.3237e-24
-6.75926e-23
-4.02225e-24
-7.59089e-23
-4.24264e-24
-5.05505e-23
-4.43041e-24
-1.16711e-22
-4.47972e-24
-1.23296e-22
-4.20549e-24
-4.11313e-23
-3.87123e-24
-1.16053e-23
-3.85156e-24
-4.95286e-23
-4.36195e-24
-3.98482e-23
-4.45728e-24
-1.40866e-23
-4.76767e-24
-4.11969e-23
-4.89616e-24
-4.09622e-23
-4.75478e-24
-4.0853e-23
-4.86824e-24
5.03724e-24
-5.10112e-24
-3.14369e-23
-5.09019e-24
-2.0635e-23
-5.07395e-24
-2.33172e-23
-4.89543e-24
-4.50045e-24
-4.65201e-24
-1.83164e-23
-4.40634e-24
2.22915e-23
-4.1954e-24
1.64558e-23
-4.12356e-24
1.20396e-23
-3.93555e-24
7.48128e-24
-3.97153e-24
4.23767e-24
-3.63793e-24
-3.18839e-23
-3.40999e-24
-3.53847e-23
-3.18762e-24
-9.01457e-24
-2.78315e-24
5.26128e-24
-2.64093e-24
3.11649e-23
-2.45436e-24
2.62585e-23
-2.31959e-24
2.26003e-23
-1.95678e-24
1.52595e-23
-1.75421e-24
2.12288e-23
-1.58674e-24
3.33394e-23
-1.43345e-24
9.73163e-24
-1.20259e-24
1.41544e-23
-9.90223e-25
1.04681e-23
-8.66414e-25
1.48875e-23
-6.56906e-25
2.79166e-23
-4.70218e-25
2.43371e-23
-3.56464e-25
2.75226e-23
-2.19308e-25
2.28759e-23
-1.03242e-25
6.23711e-24
5.59925e-26
1.17169e-24
9.03855e-26
-3.60485e-24
1.34651e-25
-7.93302e-24
1.88993e-25
-1.15422e-23
1.62267e-25
4.05359e-24
1.14764e-25
1.12505e-23
3.24577e-27
1.45832e-23
-1.91238e-25
1.18156e-23
-3.8642e-25
3.28759e-24
-6.63626e-25
-2.6242e-24
-9.66187e-25
-2.2011e-25
-1.36377e-24
-2.99471e-24
-1.86993e-24
-2.30411e-24
-2.53352e-24
1.75882e-25
-3.45385e-24
-3.86456e-26
-6.62961e-23
-7.30927e-24
-9.61294e-24
-8.13234e-24
-1.82779e-23
-9.09538e-24
-2.12169e-23
-9.91634e-24
-8.71581e-23
-1.08072e-23
-4.80057e-23
-9.74991e-24
-1.13766e-22
-9.80953e-24
-7.17521e-23
-1.00656e-23
-6.03562e-23
-1.06148e-23
-1.0889e-22
-1.11051e-23
-5.96031e-23
-1.13769e-23
-1.12082e-22
-1.13508e-23
-9.09248e-23
-1.10374e-23
-8.31055e-23
-1.0497e-23
-1.11368e-22
-1.09709e-23
-1.07014e-22
-1.01083e-23
-1.01368e-22
-1.05308e-23
-1.62379e-22
-1.06571e-23
-1.63322e-22
-8.82838e-24
-1.63314e-22
-8.32452e-24
-1.28052e-22
-7.51625e-24
-1.24961e-22
-7.7116e-24
-1.12361e-22
-6.72341e-24
-9.71769e-23
-6.04566e-24
-9.62108e-23
-5.68835e-24
-6.42907e-23
-4.76984e-24
2.36647e-23
-4.01157e-24
2.11766e-23
-3.80486e-24
4.96323e-23
-3.79443e-24
4.52003e-23
-4.35347e-24
8.43432e-24
-4.00573e-24
4.11395e-23
-3.75036e-24
7.80178e-23
-3.62822e-24
1.10548e-22
-3.75777e-24
7.54645e-23
-3.85224e-24
4.08228e-23
-4.74023e-24
4.19237e-23
-4.1369e-24
-1.54288e-23
-4.29918e-24
-1.29603e-23
-4.21895e-24
2.02407e-23
-3.63061e-24
5.31476e-23
-3.34846e-24
2.09181e-23
-3.03586e-24
1.69128e-23
-2.67219e-24
-1.87227e-23
-2.49015e-24
-2.20225e-23
-2.19652e-24
6.36001e-25
-1.98674e-24
2.2389e-23
-1.27485e-24
2.99197e-23
-9.45647e-25
2.65728e-23
-8.41205e-25
3.59464e-23
-7.1347e-25
4.55071e-23
-3.87672e-25
5.38225e-23
-1.09422e-25
7.05719e-23
3.07284e-25
1.11272e-22
3.24337e-25
1.06217e-22
5.38115e-25
1.03951e-22
7.85525e-25
6.68089e-23
9.57773e-25
8.84634e-23
1.30998e-24
8.58641e-23
1.39433e-24
1.02778e-22
1.542e-24
8.99245e-23
1.71224e-24
8.59769e-23
1.76964e-24
8.14722e-23
2.16619e-24
7.66745e-23
2.54379e-24
7.22313e-23
2.68031e-24
9.91804e-23
2.99625e-24
8.69344e-23
3.06791e-24
9.05836e-23
3.13644e-24
5.62238e-23
3.24698e-24
5.23163e-23
3.41063e-24
6.59305e-23
3.57894e-24
3.32805e-23
3.56692e-24
2.6544e-23
3.74494e-24
4.57027e-23
3.86982e-24
3.98951e-23
4.05308e-24
3.47645e-23
4.19492e-24
3.01369e-23
4.31433e-24
2.62318e-23
4.40846e-24
2.26996e-23
4.47543e-24
1.32149e-23
4.49782e-24
2.01737e-23
4.52969e-24
3.18794e-23
4.46199e-24
2.86738e-23
4.29859e-24
2.53006e-23
4.14609e-24
2.56698e-23
3.893e-24
2.21215e-23
3.59464e-24
1.89635e-23
3.22374e-24
1.57015e-23
2.80477e-24
1.80222e-23
2.31559e-24
1.06333e-23
1.73329e-24
7.6147e-24
1.05721e-24
5.42999e-24
2.69797e-25
3.42016e-24
-6.71036e-25
4.99094e-25
-1.85689e-24
4.3895e-25
4.45036e-23
-3.8971e-25
3.47605e-25
-1.64882e-24
-4.2418e-23
-2.17436e-24
-4.347e-23
-3.33519e-24
-4.39545e-23
-3.54576e-24
-7.58311e-23
-4.59879e-24
-1.37314e-22
-5.03344e-24
-1.33002e-22
-3.79195e-24
-1.31783e-22
-3.64061e-24
-1.31066e-22
-4.40635e-24
-1.3611e-22
-4.35705e-24
-1.09337e-22
-3.80021e-24
-7.26142e-23
-4.1413e-24
-7.76003e-23
-5.48566e-24
-2.57381e-23
-5.01062e-24
-3.36078e-23
-5.37468e-24