/*--------------------------------*- C++ -*----------------------------------*\
  =========                 |
  \\      /  F ield         | OpenFOAM: The Open Source CFD Toolbox
   \\    /   O peration     | Website:  https://openfoam.org
    \\  /    A nd           | Version:  7
     \\/     M anipulation  |
\*---------------------------------------------------------------------------*/
FoamFile
{
    version     2.0;
    format      ascii;
    class       volScalarField;
    location    "84000";
    object      strainRate;
}
// * * * * * * * * * * * * * * * * * * * * * * * * * * * * * * * * * * * * * //

dimensions      [0 0 -1 0 0 0 0];

internalField   nonuniform List<scalar> 
4825
(
0.0328102
0.0324961
0.0335187
0.0331993
0.0329133
0.0326377
0.0323715
0.0342458
0.0339208
0.0336292
0.0333476
0.0330763
0.0349924
0.0346615
0.034364
0.0340763
0.0337995
0.0357595
0.0354223
0.0351188
0.0348247
0.0345423
0.0365478
0.0362041
0.0358942
0.0355939
0.0353058
0.0373584
0.0370078
0.0366912
0.0363848
0.0360908
0.0381925
0.0378346
0.0375108
0.0371986
0.0368981
0.0390512
0.0386855
0.0383544
0.0380359
0.0377284
0.0399356
0.0395619
0.0392232
0.0388978
0.038583
0.0408468
0.0404653
0.0401186
0.0397855
0.0394631
0.0417861
0.0413967
0.0410415
0.0407002
0.0403699
0.0427547
0.0423573
0.0419934
0.0416433
0.0413051
0.0437544
0.0433484
0.0429755
0.0426164
0.0447867
0.0443715
0.0439894
0.0436211
0.0458533
0.0454284
0.0450365
0.0446589
0.0469558
0.0465207
0.0461188
0.0480961
0.0476504
0.0472381
0.0492761
0.0488192
0.0504979
0.0500291
0.0517634
0.0512825
0.0530751
0.0525815
0.0544353
0.0539285
0.055847
0.0239576
0.0237032
0.0234858
0.0232742
0.0230698
0.0228714
0.02268
0.0224952
0.0223186
0.0221489
0.0219865
0.0218334
0.02169
0.0215552
0.0214293
0.0213134
0.0212075
0.0211123
0.0210287
0.0209575
0.0244627
0.0242064
0.0239868
0.0237739
0.0235687
0.0233701
0.0231789
0.0229949
0.0228197
0.0226524
0.0224921
0.0223418
0.0222015
0.0220702
0.0219474
0.0218347
0.0217325
0.0216403
0.0215595
0.0214909
0.024977
0.0247181
0.0244955
0.0242803
0.0240732
0.023873
0.0236809
0.0234963
0.0233208
0.0231542
0.0229949
0.022846
0.0227069
0.0225775
0.0224566
0.022346
0.0222462
0.0221561
0.0220772
0.0220101
0.0255017
0.0252397
0.0250137
0.0247953
0.0245856
0.0243829
0.0241888
0.0240028
0.0238259
0.0236587
0.0234993
0.0233506
0.0232113
0.0230824
0.0229625
0.0228529
0.0227544
0.0226654
0.0225876
0.0225211
0.0260374
0.0257721
0.0255424
0.0253204
0.0251074
0.0249018
0.024705
0.0245168
0.0243379
0.024169
0.024009
0.0238593
0.0237189
0.0235894
0.0234698
0.0233602
0.0232619
0.0231737
0.0230961
0.0230295
0.0265847
0.0263158
0.0260825
0.0258567
0.0256397
0.0254309
0.025231
0.0250403
0.0248589
0.0246878
0.0245264
0.0243747
0.0242329
0.0241022
0.0239821
0.0238719
0.023773
0.0236849
0.0236071
0.0235402
0.0271443
0.0268714
0.0266345
0.0264046
0.0261835
0.0259711
0.0257681
0.0255744
0.0253904
0.0252168
0.0250531
0.0248989
0.0247555
0.0246231
0.0245017
0.0243909
0.0242909
0.0242024
0.0241239
0.0240567
0.0277165
0.0274393
0.0271986
0.0269648
0.0267396
0.0265235
0.0263169
0.0261202
0.0259333
0.0257568
0.0255906
0.0254334
0.0252881
0.0251537
0.0250307
0.0249189
0.0248178
0.0247284
0.0246491
0.0245814
0.0245237
0.0244789
0.0244449
0.0244228
0.0244125
0.024413
0.0244258
0.024449
0.0244837
0.0245296
0.0245859
0.0246531
0.0247322
0.0248225
0.024923
0.0283019
0.0280202
0.0277755
0.0275376
0.0273084
0.0270887
0.0268783
0.0266783
0.0264883
0.0263086
0.0261395
0.0259795
0.0258318
0.0256954
0.0255705
0.0254572
0.025355
0.0252644
0.0251844
0.0251157
0.0250572
0.0250114
0.024977
0.0249541
0.024944
0.0249446
0.0249574
0.0249808
0.0250162
0.0250627
0.0251195
0.0251877
0.0252675
0.0253588
0.0254604
0.0255746
0.0256997
0.028901
0.0286147
0.0283656
0.0281237
0.0278903
0.027667
0.0274528
0.0272493
0.0270559
0.0268726
0.0267006
0.026538
0.0263876
0.026249
0.0261221
0.0260069
0.0259034
0.0258116
0.0257308
0.0256609
0.0256018
0.025555
0.0255199
0.0254964
0.0254863
0.025487
0.0254998
0.0255238
0.0255597
0.0256067
0.0256645
0.0257335
0.0258143
0.0259066
0.0260098
0.0261257
0.0262535
0.026392
0.0295142
0.0292233
0.0289694
0.0287233
0.0284857
0.0282586
0.0280406
0.0278335
0.0276365
0.0274495
0.0272745
0.0271097
0.0269563
0.0268153
0.0266863
0.026569
0.0264641
0.0263708
0.026289
0.0262179
0.0261584
0.0261105
0.0260747
0.0260507
0.0260405
0.0260413
0.0260539
0.0260787
0.0261147
0.0261625
0.0262215
0.0262916
0.0263734
0.0264666
0.0265718
0.0266895
0.02682
0.026961
0.0271141
0.0272784
0.0301419
0.0298463
0.0295877
0.0293368
0.0290951
0.0288638
0.0286421
0.0284311
0.0282303
0.0280398
0.0278618
0.0276949
0.0275385
0.027395
0.0272636
0.0271444
0.0270378
0.0269428
0.0268594
0.0267873
0.0267276
0.0266788
0.026642
0.0266177
0.026607
0.0266079
0.0266205
0.0266459
0.026682
0.0267308
0.026791
0.0268623
0.0269453
0.0270397
0.0271468
0.0272666
0.0273997
0.0275434
0.0276992
0.027866
0.0280443
0.0282345
0.0307846
0.0304844
0.0302207
0.0299651
0.0297189
0.0294832
0.0292577
0.0290426
0.0288378
0.028644
0.0284629
0.0282939
0.0281347
0.0279884
0.0278547
0.0277334
0.0276248
0.027528
0.0274429
0.0273699
0.0273098
0.0272602
0.0272226
0.0271978
0.0271865
0.0271873
0.0272002
0.027226
0.0272621
0.0273119
0.0273734
0.0274462
0.0275303
0.0276264
0.0277354
0.0278574
0.0279928
0.0281395
0.028298
0.0284677
0.0286489
0.0288427
0.0290469
0.029261
0.0294866
0.0314427
0.031138
0.0308689
0.0306087
0.0303577
0.0301173
0.0298877
0.0296684
0.0294596
0.0292626
0.0290786
0.028907
0.0287452
0.028596
0.02846
0.0283366
0.0282256
0.0281267
0.02804
0.0279663
0.0279054
0.0278553
0.0278169
0.0277917
0.0277796
0.0277802
0.0277934
0.0278195
0.0278558
0.0279065
0.0279693
0.0280438
0.0281291
0.0282271
0.028338
0.0284623
0.0285999
0.0287496
0.0289108
0.0290835
0.0292678
0.0294652
0.0296731
0.0298908
0.0301201
0.0303603
0.0306109
0.0321169
0.0318074
0.0315328
0.0312679
0.031012
0.0307668
0.0305329
0.0303092
0.0300966
0.0298962
0.0297092
0.0295346
0.0293705
0.0292184
0.0290798
0.0289541
0.0288409
0.0287398
0.0286514
0.0285768
0.0285151
0.0284643
0.0284255
0.0284
0.0283871
0.0283875
0.0284008
0.028427
0.028464
0.0285152
0.0285792
0.0286554
0.0287423
0.0288423
0.0289552
0.0290819
0.0292215
0.0293742
0.0295382
0.0297141
0.0299018
0.0301026
0.0303143
0.030536
0.0307691
0.0310138
0.0312689
0.0315341
0.0318081
0.0321187
0.0328081
0.0324935
0.0322133
0.0319434
0.0316825
0.0314325
0.0311939
0.030966
0.0307495
0.0305457
0.0303555
0.0301775
0.0300108
0.0298561
0.0297147
0.0295865
0.0294711
0.0293678
0.0292779
0.029202
0.0291393
0.0290877
0.0290489
0.0290231
0.0290095
0.0290096
0.0290229
0.029049
0.029087
0.0291386
0.0292039
0.0292818
0.0293706
0.0294725
0.0295875
0.0297167
0.0298583
0.0300138
0.0301807
0.0303599
0.0305513
0.0307554
0.0309711
0.0311969
0.0314342
0.0316835
0.0319435
0.0322138
0.0324934
0.0328091
0.0335169
0.033197
0.0329111
0.0326357
0.0323698
0.0321149
0.0318716
0.0316393
0.031419
0.0312116
0.031018
0.0308363
0.0306668
0.0305096
0.0303654
0.0302347
0.030117
0.0300115
0.0299201
0.0298424
0.0297788
0.0297263
0.0296877
0.0296615
0.0296474
0.0296471
0.0296604
0.0296864
0.0297253
0.0297774
0.0298441
0.0299235
0.0300145
0.0301183
0.0302357
0.0303673
0.0305112
0.0306691
0.0308389
0.0310218
0.0312171
0.0314246
0.0316442
0.0318743
0.0321163
0.0323703
0.0326356
0.0329113
0.0331966
0.0335174
0.0342443
0.0339188
0.0336271
0.0333456
0.0330747
0.0328148
0.0325668
0.0323301
0.0321056
0.0318949
0.0316975
0.0315121
0.0313393
0.0311795
0.0310323
0.0308993
0.0307791
0.0306717
0.0305787
0.0304989
0.0304341
0.0303808
0.0303424
0.0303158
0.0303014
0.0303006
0.0303139
0.0303397
0.0303795
0.0304326
0.0305006
0.0305814
0.0306745
0.0307803
0.0309004
0.0310343
0.0311806
0.031341
0.031514
0.0317003
0.0318996
0.0321107
0.0323342
0.032569
0.0328161
0.033075
0.033346
0.0336273
0.0339185
0.0342445
0.034991
0.0346596
0.0343621
0.0340743
0.0337979
0.033533
0.0332801
0.033039
0.0328101
0.0325959
0.0323945
0.0322054
0.0320291
0.0318666
0.0317162
0.0315809
0.0314581
0.0313489
0.0312543
0.0311725
0.031106
0.0310523
0.0310136
0.0309867
0.030972
0.0309709
0.0309843
0.0310098
0.0310504
0.0311047
0.0311739
0.0312561
0.0313513
0.0314592
0.0315819
0.0317185
0.0318675
0.0320306
0.0322066
0.0323963
0.0325994
0.0328146
0.0330422
0.0332819
0.0335344
0.0337986
0.0340754
0.0343627
0.0346599
0.0349913
0.0357581
0.0354205
0.0351169
0.0348227
0.0345408
0.0342704
0.0340124
0.0337669
0.0335335
0.0333153
0.0331097
0.0329169
0.032737
0.0325715
0.032418
0.03228
0.0321548
0.0320438
0.0319474
0.0318638
0.0317954
0.0317414
0.0317021
0.0316748
0.0316596
0.0316587
0.0316722
0.0316974
0.0317388
0.0317944
0.0318648
0.0319483
0.0320456
0.0321557
0.0322812
0.0324206
0.0325724
0.0327386
0.0329177
0.0331106
0.0333174
0.0335369
0.033769
0.034014
0.0342719
0.0345419
0.0348248
0.035118
0.0354214
0.0357587
0.0365463
0.0362024
0.0358923
0.035592
0.0353043
0.035028
0.0347645
0.0345146
0.0342767
0.0340538
0.0338438
0.0336472
0.0334639
0.0332952
0.0331385
0.0329974
0.0328699
0.0327571
0.0326585
0.0325736
0.0325034
0.0324487
0.0324087
0.0323809
0.0323653
0.0323647
0.0323782
0.0324035
0.0324454
0.0325025
0.0325737
0.032659
0.0327583
0.032871
0.0329993
0.0331413
0.0332963
0.0334656
0.0336478
0.033844
0.0340546
0.0342786
0.0345154
0.0347659
0.0350295
0.0353055
0.0355947
0.0358941
0.0362041
0.0365476
0.0373569
0.0370061
0.0366893
0.0363831
0.0360893
0.0358069
0.0355376
0.0352831
0.0350404
0.0348125
0.0345979
0.0343973
0.0342107
0.0340383
0.0338787
0.0337341
0.0336044
0.0334897
0.0333887
0.0333025
0.0332307
0.0331751
0.0331342
0.0331061
0.0330901
0.0330896
0.0331031
0.033129
0.0331713
0.0332295
0.0333017
0.033389
0.0334904
0.0336058
0.0337369
0.0338814
0.0340397
0.0342122
0.0343979
0.0345976
0.0348121
0.0350407
0.0352824
0.0355388
0.035808
0.0360904
0.0363859
0.0366918
0.0370088
0.0373589
0.0381908
0.0378328
0.0375089
0.0371968
0.0368966
0.0366079
0.0363328
0.0360731
0.0358256
0.0355925
0.0353731
0.0351682
0.0349782
0.0348018
0.0346394
0.0344913
0.0343593
0.0342425
0.034139
0.0340513
0.0339783
0.0339215
0.0338795
0.033851
0.033835
0.0338345
0.0338477
0.0338746
0.0339177
0.0339763
0.03405
0.0341391
0.0342428
0.0343611
0.0344949
0.0346417
0.0348035
0.0349792
0.0351689
0.0353722
0.035591
0.0358243
0.0360712
0.0363336
0.0366087
0.0368976
0.0371994
0.0375122
0.0378364
0.0381936
0.0390494
0.0386836
0.0383524
0.0380342
0.0377269
0.0374321
0.0371512
0.0368858
0.0366334
0.036395
0.0361706
0.035961
0.0357673
0.0355868
0.0354216
0.0352701
0.0351357
0.0350166
0.0349107
0.0348212
0.0347468
0.0346889
0.0346457
0.0346168
0.0346009
0.0346002
0.0346131
0.0346412
0.0346852
0.0347442
0.0348197
0.0349101
0.0350164
0.0351377
0.0352741
0.0354235
0.0355886
0.0357677
0.0359616
0.036169
0.0363924
0.0366306
0.036883
0.0371516
0.0374328
0.037728
0.0380361
0.0383561
0.0386879
0.0390525
0.0399338
0.03956
0.0392212
0.0388962
0.0385816
0.0382807
0.0379939
0.0377223
0.0374648
0.0372208
0.0369912
0.0367769
0.036579
0.0363943
0.0362263
0.0360717
0.0359346
0.035813
0.0357047
0.0356131
0.0355374
0.0354782
0.0354339
0.0354043
0.0353885
0.0353876
0.0354003
0.0354296
0.0354747
0.0355342
0.0356116
0.0357034
0.0358123
0.0359366
0.0360755
0.0362278
0.0363961
0.0365788
0.0367769
0.036989
0.0372174
0.0374607
0.0377189
0.0379936
0.0382812
0.0385829
0.0388975
0.0392249
0.0395644
0.0399366
0.040845
0.0404633
0.0401165
0.0397839
0.0394618
0.0391544
0.0388619
0.0385836
0.0383207
0.038071
0.037836
0.0376172
0.0374146
0.0372258
0.0370546
0.036897
0.036757
0.0366327
0.0365221
0.0364283
0.036351
0.0362904
0.036245
0.0362145
0.0361987
0.0361976
0.0362104
0.0362408
0.036287
0.0363476
0.0364265
0.03652
0.0366314
0.0367587
0.0369004
0.0370557
0.0372272
0.037414
0.0376161
0.0378334
0.0380671
0.0383156
0.0385799
0.0388606
0.0391552
0.0394633
0.0397849
0.0401198
0.0404673
0.0408473
0.0417842
0.0413947
0.0410395
0.0406986
0.0403689
0.0400546
0.0397562
0.0394711
0.0392023
0.0389469
0.0387065
0.0384829
0.0382754
0.0380824
0.0379076
0.0377472
0.0376039
0.0374767
0.0373639
0.0372678
0.0371888
0.0371269
0.0370801
0.0370488
0.0370327
0.0370315
0.0370447
0.0370762
0.0371232
0.0371854
0.0372655
0.037361
0.0374748
0.0376051
0.0377497
0.0379085
0.0380834
0.0382744
0.0384807
0.0387034
0.0389423
0.0391966
0.0394671
0.0397541
0.0400558
0.0403709
0.0406996
0.0410422
0.0413979
0.0417861
0.0427529
0.0423553
0.0419913
0.0416417
0.0413043
0.0409829
0.0406778
0.040386
0.0401108
0.0398496
0.0396039
0.0393751
0.0391626
0.0389653
0.0387864
0.0386232
0.0384766
0.0383463
0.0382311
0.0381329
0.0380518
0.0379885
0.0379404
0.0379082
0.0378917
0.0378905
0.0379045
0.0379369
0.0379847
0.0380486
0.0381298
0.0382275
0.0383439
0.0384769
0.0386246
0.0387874
0.0389661
0.0391612
0.039372
0.0396001
0.0398442
0.0401048
0.0403818
0.0406755
0.0409843
0.0413069
0.041643
0.0419935
0.0423578
0.0427546
0.0437525
0.0433463
0.0429734
0.0426149
0.0422696
0.0419408
0.0416283
0.0413299
0.0410477
0.0407805
0.0405295
0.0402949
0.0400774
0.0398759
0.0396924
0.0395263
0.0393761
0.0392428
0.0391252
0.039025
0.0389413
0.0388767
0.0388273
0.0387943
0.0387772
0.0387759
0.0387909
0.0388241
0.0388728
0.0389386
0.0390209
0.039121
0.03924
0.0393755
0.0395266
0.0396936
0.0398766
0.0400759
0.0402914
0.0405251
0.0407745
0.0410417
0.0413255
0.041626
0.041942
0.0422726
0.0426164
0.0429751
0.0433484
0.0437541
0.0447848
0.0443694
0.0439873
0.0436196
0.0432662
0.0429298
0.0426091
0.042304
0.0420146
0.041741
0.0414845
0.0412439
0.0410213
0.0408155
0.040627
0.0404578
0.040304
0.0401675
0.0400476
0.0399452
0.0398589
0.0397926
0.0397421
0.0397082
0.0396905
0.0396892
0.0397052
0.0397389
0.039789
0.0398565
0.0399403
0.0400429
0.0401644
0.0403024
0.040457
0.0406284
0.040816
0.0410199
0.0412404
0.0414798
0.0417347
0.0420086
0.0422995
0.042607
0.0429304
0.0432692
0.0436215
0.0439888
0.0443713
0.0447863
0.0458512
0.0454261
0.0450345
0.0446575
0.0442957
0.0439513
0.0436219
0.0433098
0.0430131
0.0427326
0.0424701
0.0422237
0.0419957
0.0417855
0.041592
0.041419
0.0412618
0.0411218
0.0409996
0.0408947
0.0408061
0.0407378
0.0406864
0.0406514
0.0406331
0.0406318
0.0406486
0.0406828
0.0407345
0.0408038
0.0408895
0.0409945
0.0411184
0.0412591
0.0414175
0.0415935
0.0417859
0.0419946
0.0422203
0.0424657
0.0427264
0.043007
0.0433051
0.04362
0.0439511
0.0442984
0.0446597
0.045036
0.0454279
0.0458528
0.0469535
0.0465184
0.0461169
0.0457303
0.0453599
0.0450066
0.0446685
0.0443487
0.0440446
0.0437569
0.0434879
0.0432358
0.0430022
0.0427872
0.0425888
0.0424116
0.0422509
0.0421074
0.0419827
0.0418749
0.0417845
0.0417141
0.0416613
0.0416252
0.0416066
0.0416052
0.0416227
0.0416575
0.0417108
0.0417818
0.0418699
0.0419772
0.0421034
0.0422475
0.0424095
0.0425902
0.0427877
0.0430015
0.0432327
0.0434842
0.0437511
0.0440383
0.0443441
0.0446664
0.0450057
0.0453618
0.0457325
0.0461184
0.0465199
0.0469553
0.0480936
0.0476479
0.0472363
0.0468398
0.0464604
0.0460975
0.0457504
0.0454226
0.0451108
0.0448157
0.0445398
0.044282
0.0440424
0.0438224
0.0436191
0.0434374
0.0432731
0.0431259
0.0429986
0.0428877
0.0427955
0.0427228
0.0426684
0.0426314
0.0426124
0.0426111
0.0426291
0.0426646
0.0427193
0.0427922
0.0428828
0.0429926
0.0431211
0.043269
0.0434348
0.0436202
0.043823
0.0440421
0.0442792
0.0445367
0.0448105
0.0451044
0.0454181
0.0457482
0.0460961
0.0464613
0.0468418
0.0472379
0.0476492
0.0480957
0.0492734
0.0488166
0.0483943
0.0479876
0.0475987
0.0472257
0.0468697
0.0465334
0.0462134
0.0459109
0.0456278
0.045364
0.0451182
0.0448927
0.0446849
0.0444985
0.04433
0.0441791
0.0440487
0.0439349
0.0438408
0.0437657
0.0437094
0.0436717
0.0436523
0.0436514
0.0436695
0.043706
0.0437618
0.0438367
0.0439297
0.0440423
0.0441736
0.0443253
0.0444951
0.0446854
0.0448934
0.0451183
0.0453613
0.0456253
0.0459064
0.0462073
0.0465291
0.0468674
0.0472242
0.0475989
0.0479895
0.0483962
0.0488178
0.0492758
0.0504949
0.0500264
0.049593
0.0491755
0.0487768
0.0483936
0.0480283
0.047683
0.0473546
0.0470445
0.046754
0.0464837
0.0462316
0.0460001
0.0457879
0.0455965
0.0454235
0.0452687
0.0451349
0.0450183
0.0449221
0.0448446
0.0447863
0.0447477
0.044728
0.0447277
0.0447458
0.0447835
0.0448402
0.0449171
0.0450126
0.045128
0.0452627
0.0454183
0.0455923
0.0457874
0.0460008
0.0462317
0.046481
0.0467518
0.0470405
0.0473491
0.047679
0.0480258
0.0483919
0.0487766
0.0491778
0.0495954
0.0500277
0.0504976
0.0517603
0.0512796
0.0508345
0.0504058
0.0499966
0.0496031
0.0492283
0.0488735
0.0485364
0.0482187
0.0479204
0.0476433
0.0473845
0.0471468
0.04693
0.0467334
0.0465553
0.0463967
0.046259
0.0461399
0.0460414
0.0459614
0.0459009
0.0458615
0.0458413
0.0458416
0.04586
0.0458986
0.0459566
0.0460355
0.0461331
0.0462517
0.0463902
0.0465497
0.0467284
0.0469284
0.0471471
0.0473844
0.0476405
0.0479182
0.0482149
0.0485317
0.04887
0.0492259
0.0496014
0.0499965
0.0504086
0.0508374
0.0512811
0.051763
0.0530718
0.0525786
0.0521211
0.0516808
0.0512604
0.0508566
0.0504719
0.0501072
0.0497614
0.0494355
0.049129
0.0488447
0.048579
0.048335
0.0481129
0.0479109
0.0477275
0.047565
0.0474229
0.0473017
0.0472006
0.047118
0.0470555
0.0470152
0.0469945
0.0469951
0.0470141
0.0470533
0.0471131
0.0471938
0.0472935
0.0474155
0.0475581
0.0477219
0.0479054
0.0481104
0.0483347
0.0485786
0.0488419
0.0491267
0.0494318
0.0497573
0.0501041
0.0504696
0.050855
0.0512608
0.0516842
0.0521246
0.0525804
0.0530746
0.0544319
0.0539257
0.0534552
0.053003
0.0525706
0.0521563
0.0517613
0.0513863
0.0510316
0.050697
0.0503822
0.0500902
0.0498174
0.0495667
0.0493388
0.0491312
0.0489424
0.0487754
0.0486291
0.0485056
0.0484018
0.0483166
0.0482523
0.0482109
0.04819
0.0481903
0.0482102
0.0482499
0.0483117
0.0483939
0.0484961
0.0486217
0.0487684
0.0489369
0.0491256
0.0493357
0.0495657
0.0498165
0.0500875
0.0503796
0.0506935
0.0510279
0.0513837
0.0517591
0.0521548
0.0525719
0.0530068
0.0534595
0.0539279
0.0544349
0.0558435
0.0553236
0.0548396
0.0543749
0.05393
0.0535047
0.0530989
0.0527131
0.0523493
0.0520056
0.051682
0.0513822
0.051102
0.0508443
0.0506099
0.0503964
0.0502023
0.0500305
0.0498801
0.0497538
0.0496472
0.0495597
0.0494936
0.0494508
0.04943
0.0494297
0.0494505
0.0494909
0.0495545
0.0496384
0.0497434
0.0498726
0.0500235
0.050197
0.0503912
0.0506066
0.0508427
0.0511004
0.0513794
0.0516793
0.0520024
0.0523459
0.052711
0.0530968
0.0535034
0.053932
0.0543789
0.0548445
0.0553261
0.0558464
0.0573093
0.056775
0.0562772
0.0557992
0.0553414
0.0549043
0.0544873
0.0540902
0.053717
0.0533636
0.0530311
0.0527231
0.0524351
0.0521702
0.0519289
0.051709
0.0515097
0.0513326
0.0511786
0.0510489
0.0509393
0.0508497
0.0507817
0.0507377
0.0507168
0.0507159
0.0507374
0.0507789
0.0508441
0.0509298
0.0510377
0.0511707
0.0513261
0.0515047
0.0517043
0.0519253
0.0521679
0.0524327
0.05272
0.0530283
0.053361
0.0537139
0.0540888
0.0544854
0.0549034
0.0553437
0.0558034
0.0562822
0.0567778
0.0573119
0.058832
0.058283
0.0577707
0.0572785
0.0568077
0.0563581
0.0559294
0.0555207
0.0551374
0.0547738
0.0544321
0.0541156
0.0538195
0.053547
0.0532985
0.053072
0.0528673
0.0526849
0.0525271
0.0523934
0.0522807
0.052189
0.0521192
0.0520741
0.0520528
0.0520515
0.0520736
0.0521165
0.052183
0.0522706
0.0523817
0.0525188
0.0526789
0.0528623
0.0530675
0.0532943
0.0535439
0.0538163
0.054112
0.0544293
0.0547718
0.0551345
0.0555199
0.0559276
0.0563578
0.05681
0.0572833
0.0577757
0.0582856
0.0588344
0.0604146
0.0598503
0.0593231
0.0588162
0.0583317
0.0578693
0.0574284
0.0570075
0.0566136
0.0562393
0.0558881
0.0555624
0.055258
0.0549777
0.0547218
0.0544882
0.0542778
0.0540902
0.0539283
0.0537903
0.0536744
0.0535803
0.0535089
0.0534627
0.0534407
0.0534393
0.0534616
0.0535061
0.0535741
0.0536639
0.0537784
0.0539197
0.0540846
0.0542728
0.0544836
0.0547166
0.0549736
0.0552539
0.0555585
0.0558853
0.0562376
0.0566109
0.0570074
0.0574265
0.0578694
0.0583341
0.0588212
0.059328
0.0598528
0.0620604
0.0614802
0.0609374
0.0604154
0.0599166
0.0594411
0.0589873
0.0585539
0.0581484
0.0577632
0.0574022
0.0570666
0.0567539
0.0564654
0.0562017
0.0559609
0.0557443
0.0555517
0.0553853
0.0552428
0.0551233
0.0550266
0.0549539
0.0549063
0.0548835
0.0548823
0.0549045
0.0549505
0.0550203
0.0551126
0.0552308
0.0553764
0.0555462
0.0557392
0.0559557
0.0561955
0.0564602
0.0567488
0.0570624
0.0573995
0.0577618
0.0581463
0.0585542
0.0589854
0.0594413
0.0599193
0.0604204
0.0609423
0.0637729
0.0631761
0.0626174
0.0620798
0.0615659
0.0610767
0.0606096
0.0601633
0.0597453
0.0593491
0.0589775
0.0586314
0.0583102
0.0580132
0.0577414
0.057493
0.0572699
0.0570723
0.0569009
0.0567539
0.0566309
0.0565312
0.0564572
0.0564083
0.0563845
0.0563835
0.0564058
0.0564531
0.0565249
0.05662
0.056742
0.0568919
0.0570666
0.0572648
0.0574873
0.0577343
0.058007
0.0583043
0.0586273
0.058975
0.0593477
0.0597439
0.0601636
0.0606078
0.0610771
0.0615688
0.0620843
0.0655562
0.0649419
0.0643665
0.0638131
0.0632834
0.0627796
0.0622988
0.0618392
0.0614081
0.0610004
0.0606175
0.0602607
0.0599306
0.0596246
0.0593443
0.0590879
0.0588582
0.0586552
0.0584788
0.058327
0.0582004
0.0580977
0.0580221
0.0579718
0.0579472
0.0579463
0.0579688
0.0580175
0.0580914
0.0581897
0.0583154
0.0584696
0.0586493
0.058853
0.0590822
0.0593363
0.0596174
0.0599239
0.0602567
0.0606152
0.0609989
0.0614073
0.0618393
0.0622973
0.0627806
0.0632863
0.067414
0.0667817
0.0661889
0.065619
0.0650728
0.0645537
0.0640589
0.0635856
0.0631407
0.062721
0.0623261
0.0619583
0.0616186
0.0613032
0.0610139
0.0607494
0.0605127
0.060304
0.0601224
0.0599659
0.0598354
0.0597298
0.0596522
0.0596004
0.0595749
0.0595741
0.0595969
0.0596474
0.0597236
0.0598251
0.0599545
0.060113
0.0602978
0.0605077
0.0607438
0.0610054
0.0612952
0.0616114
0.0619544
0.0623237
0.0627192
0.0631404
0.0635853
0.0640574
0.0645555
0.0693508
0.0686998
0.0680889
0.0675018
0.0669386
0.0664032
0.0658938
0.0654063
0.0649472
0.0645148
0.0641074
0.0637281
0.0633784
0.063053
0.0627543
0.0624814
0.0622374
0.0620226
0.0618357
0.0616744
0.0615396
0.0614312
0.0613514
0.0612981
0.0612715
0.0612706
0.061294
0.0613465
0.0614254
0.06153
0.0616629
0.0618259
0.062016
0.0622328
0.062476
0.0627456
0.0630445
0.0633706
0.0637244
0.0641048
0.0645125
0.0649471
0.0654058
0.0658923
0.0664059
0.0713713
0.0707008
0.0700711
0.0694659
0.0688852
0.0683326
0.0678078
0.0673058
0.066832
0.066386
0.0659657
0.0655744
0.0652141
0.0648781
0.0645697
0.0642882
0.0640367
0.0638153
0.0636226
0.0634566
0.0633172
0.0632058
0.0631238
0.0630687
0.063041
0.0630399
0.0630643
0.063119
0.0632005
0.0633082
0.063445
0.0636126
0.0638084
0.0640323
0.0642829
0.064561
0.0648696
0.065206
0.0655709
0.0659627
0.0663831
0.0668317
0.067305
0.0678067
0.0683363
0.0734804
0.0727893
0.07214
0.0715159
0.0709175
0.070347
0.0698054
0.0692885
0.0687995
0.0683391
0.0679055
0.0675016
0.0671302
0.0667831
0.0664648
0.0661742
0.065915
0.0656865
0.0654875
0.0653167
0.0651725
0.0650583
0.0649737
0.0649166
0.0648877
0.0648867
0.0649124
0.0649692
0.0650531
0.0651642
0.0653053
0.0654776
0.0656795
0.0659107
0.066169
0.0664559
0.0667747
0.067122
0.0674984
0.0679021
0.068336
0.068799
0.0692875
0.0698052
0.070351
0.0756831
0.0749703
0.0743007
0.0736571
0.0730404
0.0724512
0.0718918
0.0713593
0.0708544
0.0703789
0.0699317
0.0695146
0.0691313
0.0687729
0.0684443
0.0681444
0.0678769
0.0676409
0.0674354
0.0672598
0.0671106
0.0669934
0.0669059
0.0668464
0.0668166
0.0668157
0.0668428
0.0669015
0.0669882
0.0671028
0.0672486
0.0674259
0.0676341
0.0678725
0.0681393
0.0684353
0.0687646
0.0691231
0.0695117
0.0699278
0.070376
0.0708539
0.0713581
0.0718929
0.072455
0.0779848
0.0772493
0.0765587
0.0758949
0.075259
0.0746504
0.0740725
0.0735234
0.0730018
0.0725106
0.0720494
0.0716185
0.0712228
0.0708525
0.0705134
0.0702039
0.0699277
0.0696836
0.0694714
0.0692909
0.0691366
0.0690162
0.0689255
0.0688632
0.0688328
0.0688319
0.0688606
0.068921
0.0690107
0.0691292
0.06928
0.0694628
0.0696774
0.069923
0.0701987
0.0705042
0.0708444
0.0712146
0.0716162
0.0720451
0.0725085
0.0730016
0.0735221
0.0740748
0.0746537
0.0803916
0.0796325
0.0789199
0.0782352
0.0775789
0.0769503
0.076353
0.0757866
0.0752474
0.0747402
0.0742643
0.0738191
0.0734103
0.0730278
0.0726775
0.0723585
0.0720727
0.0718204
0.0716012
0.0714153
0.0712557
0.0711319
0.0710379
0.0709726
0.0709416
0.0709404
0.070971
0.071033
0.0711261
0.0712491
0.0714049
0.0715936
0.0718147
0.0720678
0.0723529
0.072668
0.0730195
0.0734022
0.0738172
0.0742598
0.0747387
0.0752477
0.0757852
0.0763563
0.0769528
0.0829096
0.0821261
0.0813905
0.0806838
0.0800061
0.0793569
0.0787395
0.0781548
0.0775974
0.0770735
0.0765823
0.0761225
0.0756997
0.0753045
0.0749424
0.0746137
0.074318
0.0740573
0.0738307
0.0736387
0.0734735
0.0733462
0.0732486
0.0731807
0.0731487
0.0731474
0.0731798
0.0732436
0.0733401
0.0734681
0.0736292
0.0738239
0.0740518
0.0743128
0.0746074
0.0749329
0.0752959
0.0756918
0.0761205
0.0765779
0.0770723
0.077598
0.0781535
0.0787435
0.0855452
0.0847366
0.0839771
0.0832472
0.082547
0.0818767
0.0812384
0.0806343
0.0800584
0.0795169
0.0790097
0.0785348
0.0780973
0.0776889
0.0773142
0.0769756
0.0766696
0.0764005
0.0761662
0.0759672
0.0757966
0.0756651
0.0755639
0.0754939
0.0754603
0.075459
0.0754932
0.0755591
0.0756589
0.0757923
0.0759591
0.0761597
0.0763946
0.0766641
0.0769685
0.0773051
0.0776799
0.0780896
0.0785324
0.0790055
0.079516
0.0800591
0.0806338
0.0812427
0.0883051
0.0874708
0.0866866
0.0859325
0.0852087
0.0845166
0.0838566
0.0832317
0.0826371
0.0820772
0.0815534
0.0810627
0.0806096
0.0801875
0.0797997
0.0794507
0.0791342
0.0788565
0.0786142
0.0784074
0.0782315
0.0780954
0.0779902
0.0779186
0.0778831
0.0778821
0.0779178
0.0779863
0.078089
0.0782282
0.0784009
0.0786077
0.07885
0.0791285
0.0794429
0.0797914
0.0801784
0.0806022
0.0810596
0.0815495
0.0820766
0.0826382
0.0832328
0.0838608
0.091197
0.0903359
0.0895261
0.0887469
0.0879987
0.0872838
0.0866014
0.0859547
0.0853404
0.0847617
0.0842208
0.0837132
0.0832439
0.0828077
0.0811815
0.0809665
0.0807854
0.080644
0.0805349
0.0804617
0.0804242
0.0804233
0.0804607
0.080532
0.0806375
0.0807826
0.0809616
0.081175
0.0814251
0.0817131
0.082038
0.0823989
0.0827985
0.0832365
0.0837094
0.0842168
0.0847615
0.0853424
0.0859574
0.0866052
0.0847612
0.0851351
0.0855477
0.0860005
0.0864898
0.0870151
0.0875784
0.0881792
0.0888154
0.0894836
0.0911569
0.0918147
0.0925047
0.0239563
0.0244615
0.024976
0.0255009
0.0260371
0.0265851
0.0271452
0.0277179
0.0283036
0.0289025
0.0295152
0.0301422
0.0307843
0.0314423
0.0321166
0.0328079
0.0335168
0.0342441
0.0349908
0.0357579
0.0365466
0.0373576
0.0381919
0.0390505
0.0399345
0.0408455
0.0417847
0.0427536
0.0437534
0.0447856
0.045852
0.0469542
0.048094
0.0492735
0.0504948
0.0517599
0.0530713
0.0544313
0.0558425
0.0573077
0.0588299
0.0604123
0.0620582
0.0637711
0.0655548
0.0674132
0.0693504
0.0713711
0.0734801
0.0756828
0.0779845
0.080391
0.0829084
0.0855436
0.0883035
0.0911954
0.0242045
0.0247162
0.0252378
0.0257704
0.0263146
0.0268712
0.0274403
0.0280222
0.0286172
0.0292257
0.0298483
0.0304856
0.0311383
0.0318073
0.0324931
0.0331963
0.0339181
0.0346591
0.0354204
0.0362028
0.0370074
0.0378353
0.0386871
0.0395641
0.0404673
0.041398
0.0423579
0.0433485
0.0443712
0.0454278
0.0465197
0.0476488
0.048817
0.0500264
0.051279
0.0525774
0.053924
0.0553212
0.0567718
0.0582788
0.0598453
0.061475
0.0631712
0.0649376
0.0667778
0.0686961
0.070697
0.0727856
0.0749669
0.0772463
0.0796294
0.0821223
0.0847317
0.0874647
0.0903288
0.0266338
0.0271982
0.0277754
0.0283658
0.0289699
0.0295878
0.0302204
0.0308684
0.0315324
0.0322131
0.0329112
0.0336273
0.0343624
0.0351174
0.0358933
0.0366912
0.037512
0.0383566
0.039226
0.0401213
0.041044
0.0419957
0.0429776
0.0439912
0.0450381
0.0461199
0.0472385
0.0483959
0.049594
0.050835
0.0521214
0.0534556
0.0548398
0.0562766
0.0577691
0.0593206
0.0609343
0.0626137
0.0643625
0.0661847
0.0680842
0.0700656
0.0721337
0.0742938
0.0765511
0.0789115
0.081381
0.0839659
0.0866733
0.0895108
0.0264056
0.0269658
0.0275386
0.0281243
0.0287237
0.0293371
0.0299649
0.0306077
0.0312664
0.0319419
0.0326349
0.0333461
0.0340763
0.0348259
0.0355958
0.0363869
0.0372003
0.0380371
0.0388986
0.0397863
0.0407014
0.0416451
0.0426187
0.0436235
0.0446612
0.0457334
0.046842
0.047989
0.0491767
0.0504069
0.0516818
0.0530039
0.0543755
0.0557996
0.057279
0.0588166
0.0604155
0.0620792
0.0638115
0.0656164
0.067498
0.0694609
0.0715098
0.0736499
0.0758862
0.0782246
0.0806714
0.0832331
0.0859163
0.0887286
0.0261858
0.0267421
0.0273109
0.0278925
0.0284875
0.0290964
0.0297197
0.030358
0.0310121
0.0316826
0.0323703
0.0330761
0.0338007
0.0345445
0.0353084
0.0360932
0.0369001
0.0377304
0.0385851
0.0394656
0.040373
0.0413088
0.042274
0.0432702
0.0442989
0.0453618
0.0464607
0.0475979
0.0487752
0.0499948
0.0512589
0.0525696
0.0539296
0.0553412
0.0568075
0.0583316
0.0599166
0.0615661
0.0632835
0.0650727
0.0669379
0.0688835
0.070914
0.0730346
0.0752507
0.0775683
0.0799935
0.082533
0.0851935
0.0879821
0.0265271
0.0270922
0.0276698
0.0282608
0.0288658
0.029485
0.030119
0.0307687
0.0314347
0.0321176
0.0328182
0.0335373
0.0342754
0.0350333
0.0358119
0.0366126
0.0374363
0.0382842
0.0391577
0.040058
0.0409863
0.0419438
0.042932
0.0439524
0.0450068
0.0460971
0.047225
0.0483926
0.0496018
0.0508548
0.0521539
0.0535019
0.0549015
0.0563554
0.0578664
0.0594376
0.0610728
0.0627755
0.0645497
0.0663997
0.0683294
0.0703434
0.0724467
0.0746446
0.076943
0.0793481
0.0818663
0.0845046
0.0872701
0.0263213
0.0268831
0.0274573
0.0280444
0.0286451
0.0292601
0.02989
0.0305355
0.0311972
0.0318755
0.0325712
0.0332851
0.034018
0.0347708
0.0355442
0.0363393
0.0371568
0.0379981
0.0388644
0.0397573
0.0406783
0.0416286
0.0426097
0.0436227
0.0446692
0.045751
0.04687
0.0480282
0.0492275
0.0504702
0.0517587
0.0530957
0.0544839
0.0559259
0.0574246
0.0589831
0.0606048
0.0622933
0.0640525
0.0658866
0.0678
0.0697974
0.0718836
0.074064
0.0763443
0.0787304
0.0812289
0.0838465
0.0865904
0.026125
0.0266833
0.027254
0.0278376
0.028435
0.0290465
0.0296728
0.0303143
0.0309717
0.0316457
0.0323369
0.0330461
0.0337738
0.0345208
0.0352884
0.0360777
0.0368898
0.0377256
0.0385861
0.0394728
0.0403869
0.0413298
0.0423029
0.0433079
0.0443466
0.0454204
0.0465312
0.0476809
0.0488715
0.0501052
0.0513842
0.0527114
0.0540891
0.0555201
0.0570071
0.0585535
0.0601624
0.0618374
0.0635824
0.0654015
0.0672991
0.0692801
0.0713494
0.0735124
0.0757746
0.0781421