/*--------------------------------*- C++ -*----------------------------------*\
  =========                 |
  \\      /  F ield         | OpenFOAM: The Open Source CFD Toolbox
   \\    /   O peration     | Website:  https://openfoam.org
    \\  /    A nd           | Version:  7
     \\/     M anipulation  |
\*---------------------------------------------------------------------------*/
FoamFile
{
    version     2.0;
    format      ascii;
    class       volScalarField;
    location    "4000";
    object      p;
}
// * * * * * * * * * * * * * * * * * * * * * * * * * * * * * * * * * * * * * //

dimensions      [0 2 -2 0 0 0 0];

internalField   nonuniform List<scalar> 
1762
(
-9.56991e-19
-9.64392e-19
-9.54722e-19
-9.58844e-19
-9.20968e-19
-9.72996e-19
-9.67102e-19
-9.69028e-19
-1.00446e-18
-9.74977e-19
-9.75348e-19
-9.84111e-19
-9.5651e-19
-9.77229e-19
-9.53851e-19
-9.45409e-19
-9.56605e-19
-9.37458e-19
-9.37484e-19
-9.32888e-19
-9.46528e-19
-9.87163e-19
-9.41107e-19
-9.11308e-19
-9.0957e-19
-9.39045e-19
-9.4251e-19
-9.56112e-19
-9.60483e-19
-9.74703e-19
-9.61846e-19
-9.48163e-19
-9.74945e-19
-9.41276e-19
-9.74138e-19
-9.74698e-19
-9.11727e-19
-9.1453e-19
-9.57303e-19
-9.57234e-19
-9.62477e-19
-9.47269e-19
-9.62537e-19
-9.73796e-19
-9.3577e-19
-9.41218e-19
-9.49188e-19
-9.46073e-19
-9.47131e-19
-9.84044e-19
-9.6239e-19
-9.71154e-19
-9.60487e-19
-9.50323e-19
-9.71396e-19
-9.28274e-19
-9.41711e-19
-9.41394e-19
-9.43145e-19
-9.21388e-19
-9.49498e-19
-9.5922e-19
-9.60439e-19
-9.54952e-19
-9.65523e-19
-9.74922e-19
-9.39594e-19
-9.70995e-19
-9.44981e-19
-9.2281e-19
-9.42019e-19
-9.29744e-19
-9.50349e-19
-9.57889e-19
-9.64063e-19
-9.81358e-19
-9.73752e-19
-9.36894e-19
-9.70968e-19
-9.43535e-19
-9.45626e-19
-9.49235e-19
-9.50725e-19
-9.33771e-19
-9.63566e-19
-9.83554e-19
-9.74443e-19
-9.68904e-19
-9.35189e-19
-9.43625e-19
-9.43964e-19
-9.48564e-19
-9.24088e-19
-9.53635e-19
-9.72559e-19
-9.88612e-19
-9.66648e-19
-9.82162e-19
-9.74694e-19
-9.3177e-19
-9.22252e-19
-9.45012e-19
-9.50249e-19
-9.32832e-19
-9.47694e-19
-9.33756e-19
-9.82863e-19
-9.57901e-19
-9.61996e-19
-9.95477e-19
-9.34949e-19
-9.31544e-19
-9.39916e-19
-9.51573e-19
-9.85603e-19
-9.46947e-19
-9.23807e-19
-9.56532e-19
-9.51813e-19
-9.63251e-19
-9.97103e-19
-9.4151e-19
-9.64361e-19
-9.45742e-19
-9.43754e-19
-9.514e-19
-9.39736e-19
-9.60043e-19
-9.45687e-19
-9.58974e-19
-9.83424e-19
-9.93273e-19
-9.40383e-19
-9.70695e-19
-9.56425e-19
-9.29678e-19
-9.40781e-19
-9.27389e-19
-9.95763e-19
-9.594e-19
-9.33733e-19
-9.66366e-19
-9.73311e-19
-9.30587e-19
-9.66209e-19
-9.44363e-19
-9.42045e-19
-9.26116e-19
-9.4131e-19
-9.60685e-19
-9.54993e-19
-9.53046e-19
-9.5811e-19
-9.76385e-19
-9.40972e-19
-9.27429e-19
-9.33151e-19
-9.28377e-19
-9.50715e-19
-9.33878e-19
-9.55647e-19
-9.68207e-19
-9.4477e-19
-9.89444e-19
-9.31006e-19
-9.53378e-19
-9.34071e-19
-9.32564e-19
-9.34759e-19
-9.62038e-19
-9.80626e-19
-9.59642e-19
-9.76655e-19
-9.41392e-19
-9.60389e-19
-9.45275e-19
-9.38117e-19
-9.54464e-19
-9.8129e-19
-9.67254e-19
-9.63099e-19
-9.72177e-19
-9.60303e-19
-9.63897e-19
-9.54737e-19
-9.60809e-19
-9.58851e-19
-9.72609e-19
-9.40471e-19
-9.65167e-19
-9.71163e-19
-9.59525e-19
-9.69833e-19
-9.49891e-19
-9.62471e-19
-9.58867e-19
-9.84167e-19
-9.45702e-19
-9.61348e-19
-9.7213e-19
-9.6221e-19
-9.81352e-19
-9.38019e-19
-9.57097e-19
-9.53726e-19
-9.88753e-19
-9.80918e-19
-9.56572e-19
-9.66182e-19
-9.56869e-19
-9.83936e-19
-9.55521e-19
-9.65926e-19
-9.51341e-19
-9.72346e-19
-9.88139e-19
-9.64213e-19
-9.72741e-19
-9.66777e-19
-9.56226e-19
-9.58358e-19
-9.42344e-19
-9.67222e-19
-9.73615e-19
-9.66961e-19
-9.81353e-19
-9.56128e-19
-9.55382e-19
-9.63473e-19
-9.55701e-19
-9.74162e-19
-9.80332e-19
-9.67243e-19
-9.94074e-19
-8.78894e-19
-8.83447e-19
-9.01027e-19
-8.63735e-19
-8.7292e-19
-8.90642e-19
-8.83133e-19
-8.84556e-19
-8.80165e-19
-8.76349e-19
-8.72484e-19
-9.01764e-19
-8.98236e-19
-8.98659e-19
-8.79117e-19
-8.96083e-19
-9.15807e-19
-9.15497e-19
-8.94352e-19
-8.91126e-19
-9.04161e-19
-8.85514e-19
-8.80788e-19
-8.8216e-19
-8.78498e-19
-8.7545e-19
-8.79648e-19
-8.88901e-19
-8.69693e-19
-8.77149e-19
-8.74555e-19
-8.64038e-19
-9.10673e-19
-9.06903e-19
-9.0697e-19
-9.13288e-19
-9.54927e-19
-9.08137e-19
-9.0175e-19
-9.15927e-19
-8.96214e-19
-8.93612e-19
-8.76096e-19
-8.90284e-19
-8.87571e-19
-8.75136e-19
-8.99992e-19
-8.80305e-19
-9.00737e-19
-8.91429e-19
-8.9076e-19
-8.91809e-19
-8.95994e-19
-9.12179e-19
-9.16719e-19
-8.89034e-19
-8.74529e-19
-8.82859e-19
-9.42469e-19
-9.16032e-19
-9.3738e-19
-9.09046e-19
-9.10638e-19
-9.03259e-19
-8.94703e-19
-8.77186e-19
-8.74462e-19
-8.94982e-19
-8.99787e-19
-9.20281e-19
-9.15806e-19
-8.9518e-19
-8.92135e-19
-8.92837e-19
-9.11357e-19
-9.09244e-19
-8.92065e-19
-8.87036e-19
-8.89174e-19
-8.87533e-19
-8.81528e-19
-8.62886e-19
-8.86557e-19
-8.86326e-19
-8.96619e-19
-8.79225e-19
-9.2118e-19
-9.18237e-19
-9.15361e-19
-9.17938e-19
-9.09477e-19
-9.06075e-19
-9.03767e-19
-9.05561e-19
-9.04494e-19
-9.01129e-19
-9.0256e-19
-9.15561e-19
-9.05527e-19
-9.15727e-19
-8.93504e-19
-9.18078e-19
-9.22283e-19
-9.16968e-19
-8.98856e-19
-8.81253e-19
-8.98552e-19
-9.08342e-19
-8.95725e-19
-8.85243e-19
-9.00296e-19
-8.95984e-19
-9.0224e-19
-8.97645e-19
-9.11035e-19
-9.63618e-19
-8.89984e-19
-9.1121e-19
-9.09937e-19
-8.79364e-19
-8.76563e-19
-9.02204e-19
-9.23909e-19
-9.02771e-19
-8.79088e-19
-8.77691e-19
-8.82982e-19
-9.07955e-19
-9.01143e-19
-8.9265e-19
-8.83797e-19
-8.93136e-19
-8.81809e-19
-8.91182e-19
-8.96629e-19
-8.94445e-19
-8.93411e-19
-8.91061e-19
-8.89025e-19
-8.88529e-19
-8.77682e-19
-8.71534e-19
-9.14581e-19
-8.93552e-19
-9.62538e-19
-8.95354e-19
-9.12674e-19
-9.15841e-19
-9.08814e-19
-9.07705e-19
-9.05933e-19
-9.04242e-19
-9.09046e-19
-9.08291e-19
-9.07099e-19
-9.10111e-19
-9.32813e-19
-9.38642e-19
-9.38661e-19
-9.13384e-19
-9.10201e-19
-9.03805e-19
-9.06506e-19
-8.97186e-19
-8.80793e-19
-8.89097e-19
-8.85733e-19
-8.81096e-19
-8.98285e-19
-8.92794e-19
-8.89831e-19
-9.15886e-19
-9.19968e-19
-9.32815e-19
-9.53773e-19
-9.22131e-19
-9.16569e-19
-9.33118e-19
-9.08155e-19
-9.03986e-19
-9.01651e-19
-9.00034e-19
-9.09017e-19
-9.24958e-19
-9.13377e-19
-9.26021e-19
-9.08728e-19
-9.02326e-19
-8.9788e-19
-8.90824e-19
-8.78589e-19
-8.76872e-19
-8.86305e-19
-8.93424e-19
-9.03429e-19
-8.91227e-19
-9.00854e-19
-8.89396e-19
-8.8595e-19
-8.91716e-19
-9.58358e-19
-9.31372e-19
-9.31554e-19
-9.56578e-19
-9.19351e-19
-9.34972e-19
-9.14513e-19
-9.05802e-19
-9.29363e-19
-9.19011e-19
-8.64504e-19
-8.98217e-19
-9.08468e-19
-9.2314e-19
-9.31819e-19
-9.26722e-19
-9.06142e-19
-8.97405e-19
-9.00607e-19
-9.08988e-19
-8.96564e-19
-8.90334e-19
-8.85758e-19
-8.80474e-19
-8.63775e-19
-8.86114e-19
-8.80352e-19
-8.65332e-19
-8.77917e-19
-9.0485e-19
-9.23409e-19
-9.21405e-19
-9.21375e-19
-8.85653e-19
-9.13399e-19
-9.29775e-19
-9.05801e-19
-9.00295e-19
-9.03083e-19
-8.98535e-19
-9.07042e-19
-9.15939e-19
-9.08054e-19
-9.01507e-19
-9.18779e-19
-9.09617e-19
-8.92827e-19
-8.86398e-19
-8.867e-19
-8.81922e-19
-8.83862e-19
-8.82011e-19
-8.78036e-19
-8.73055e-19
-8.95168e-19
-8.84798e-19
-8.82078e-19
-8.81275e-19
-9.31048e-19
-9.46428e-19
-9.17606e-19
-9.20735e-19
-9.09516e-19
-9.06878e-19
-9.11638e-19
-9.24898e-19
-8.83723e-19
-9.21662e-19
-9.35702e-19
-8.94147e-19
-8.53497e-19
-8.96499e-19
-9.20836e-19
-9.18326e-19
-8.98238e-19
-8.92971e-19
-8.90282e-19
-8.9206e-19
-8.90298e-19
-9.02372e-19
-8.915e-19
-8.84475e-19
-8.72602e-19
-8.95411e-19
-8.96353e-19
-8.78312e-19
-8.70188e-19
-9.26564e-19
-9.57083e-19
-9.13979e-19
-9.19157e-19
-9.04022e-19
-9.08644e-19
-9.06342e-19
-8.96396e-19
-8.68234e-19
-8.69771e-19
-9.05395e-19
-9.13261e-19
-8.96677e-19
-9.00549e-19
-8.98639e-19
-8.90194e-19
-8.78726e-19
-8.84147e-19
-8.69627e-19
-8.63226e-19
-8.78539e-19
-8.82495e-19
-8.73754e-19
-8.62488e-19
-8.67257e-19
-8.63828e-19
-8.64258e-19
-8.6214e-19
-8.88264e-19
-8.91487e-19
-9.62788e-19
-9.29231e-19
-9.36086e-19
-9.17741e-19
-9.16669e-19
-9.02232e-19
-8.74768e-19
-8.91713e-19
-8.96301e-19
-9.08464e-19
-9.04572e-19
-9.21297e-19
-9.04432e-19
-8.90817e-19
-8.80433e-19
-8.97447e-19
-9.18789e-19
-9.0793e-19
-8.76016e-19
-8.7245e-19
-8.82975e-19
-8.73774e-19
-8.55195e-19
-8.59299e-19
-8.68667e-19
-8.61576e-19
-8.7723e-19
-8.71667e-19
-9.21715e-19
-9.53986e-19
-9.47371e-19
-9.28674e-19
-9.32506e-19
-9.09457e-19
-8.92682e-19
-8.95638e-19
-8.84921e-19
-9.03045e-19
-9.01164e-19
-8.80451e-19
-8.9638e-19
-9.04877e-19
-9.1801e-19
-9.02149e-19
-8.96132e-19
-9.00008e-19
-9.0018e-19
-9.018e-19
-8.91857e-19
-8.86116e-19
-8.80966e-19
-8.7948e-19
-8.74835e-19
-8.72011e-19
-8.6828e-19
-8.6373e-19
-8.54283e-19
-9.31924e-19
-9.15809e-19
-9.25433e-19
-9.30084e-19
-9.25965e-19
-9.17488e-19
-9.12156e-19
-9.12159e-19
-9.01195e-19
-8.77046e-19
-8.69598e-19
-8.7502e-19
-8.95556e-19
-8.92964e-19
-8.78958e-19
-8.90575e-19
-8.94076e-19
-8.95052e-19
-8.92374e-19
-8.85879e-19
-8.85162e-19
-8.81544e-19
-8.65297e-19
-8.66454e-19
-8.77082e-19
-8.85103e-19
-8.85332e-19
-9.02871e-19
-8.89011e-19
-9.31468e-19
-9.15809e-19
-9.35031e-19
-9.61071e-19
-9.32825e-19
-9.27207e-19
-9.23412e-19
-9.19952e-19
-9.13387e-19
-9.07446e-19
-8.80354e-19
-9.02172e-19
-9.13088e-19
-9.15089e-19
-9.22825e-19
-9.08841e-19
-9.01238e-19
-9.06053e-19
-9.03751e-19
-8.97048e-19
-9.01418e-19
-9.07664e-19
-9.25702e-19
-9.10363e-19
-8.95328e-19
-8.91979e-19
-8.81715e-19
-8.70724e-19
-8.83992e-19
-9.35213e-19
-9.54824e-19
-9.57943e-19
-9.37837e-19
-9.28611e-19
-9.2782e-19
-9.40206e-19
-9.40796e-19
-8.96922e-19
-9.13098e-19
-9.11709e-19
-9.16667e-19
-9.17344e-19
-9.15414e-19
-9.14475e-19
-9.10564e-19
-9.06767e-19
-9.03067e-19
-8.85302e-19
-8.98743e-19
-9.00192e-19
-9.09605e-19
-8.99761e-19
-8.93834e-19
-8.93289e-19
-8.91845e-19
-8.89602e-19
-9.03277e-19
-8.97868e-19
-9.3934e-19
-9.42862e-19
-9.51121e-19
-9.12412e-19
-9.23529e-19
-9.29694e-19
-9.2842e-19
-9.01572e-19
-9.11444e-19
-9.19742e-19
-8.96024e-19
-9.13172e-19
-8.94384e-19
-9.10146e-19
-9.15547e-19
-9.08447e-19
-9.10717e-19
-9.13774e-19
-9.22417e-19
-9.10963e-19
-9.1027e-19
-9.17711e-19
-9.16758e-19
-9.02045e-19
-8.95637e-19
-8.96916e-19
-8.91021e-19
-8.92375e-19
-8.91195e-19
-9.44814e-19
-9.4631e-19
-9.52878e-19
-9.56124e-19
-9.53102e-19
-9.03903e-19
-9.26625e-19
-9.28945e-19
-9.2746e-19
-9.04221e-19
-9.17773e-19
-9.2794e-19
-9.248e-19
-9.36001e-19
-9.19955e-19
-9.1651e-19
-9.1353e-19
-8.97431e-19
-8.95903e-19
-9.18117e-19
-9.31487e-19
-9.23735e-19
-9.02099e-19
-9.14722e-19
-9.09528e-19
-8.94159e-19
-8.99332e-19
-9.10892e-19
-8.9099e-19
-9.42135e-19
-9.43632e-19
-9.57865e-19
-9.4628e-19
-9.41512e-19
-9.1028e-19
-9.24087e-19
-9.06177e-19
-9.24521e-19
-9.32961e-19
-9.4345e-19
-9.37088e-19
-9.52677e-19
-9.35561e-19
-9.28121e-19
-9.23077e-19
-9.25405e-19
-9.22352e-19
-9.10186e-19
-9.129e-19
-9.05016e-19
-9.01839e-19
-9.01961e-19
-9.18111e-19
-9.36244e-19
-9.33101e-19
-9.20072e-19
-9.34438e-19
-9.31283e-19
-9.11675e-19
-9.45459e-19
-9.66269e-19
-9.51698e-19
-9.47364e-19
-9.70936e-19
-9.48778e-19
-9.62555e-19
-9.40113e-19
-9.29408e-19
-9.12178e-19
-9.27108e-19
-9.18917e-19
-9.44023e-19
-9.31781e-19
-9.05992e-19
-9.03908e-19
-9.3504e-19
-9.11867e-19
-9.15688e-19
-9.11379e-19
-9.14385e-19
-9.17335e-19
-9.03622e-19
-9.19214e-19
-9.14595e-19
-9.15699e-19
-8.98574e-19
-8.98007e-19
-9.15636e-19
-9.51151e-19
-9.65185e-19
-9.84925e-19
-9.43915e-19
-9.50224e-19
-9.45709e-19
-9.70096e-19
-9.45438e-19
-9.43634e-19
-9.43391e-19
-9.40861e-19
-9.42867e-19
-9.40754e-19
-9.38839e-19
-9.37272e-19
-9.3401e-19
-9.36826e-19
-9.36334e-19
-9.60644e-19
-9.36073e-19
-9.27969e-19
-9.21175e-19
-9.40402e-19
-9.28878e-19
-9.17629e-19
-9.30711e-19
-9.38879e-19
-9.12714e-19
-9.2281e-19
-9.56218e-19
-9.934e-19
-9.55211e-19
-9.16737e-19
-9.42958e-19
-9.26015e-19
-9.44929e-19
-9.3967e-19
-9.19959e-19
-9.42719e-19
-9.44391e-19
-9.43583e-19
-9.38964e-19
-9.40942e-19
-9.26787e-19
-9.40175e-19
-9.53634e-19
-9.43087e-19
-9.36551e-19
-9.273e-19
-9.34796e-19
-9.34953e-19
-9.37327e-19
-9.41362e-19
-9.30561e-19
-9.11193e-19
-9.28178e-19
-9.35239e-19
-9.52073e-19
-9.51737e-19
-9.56369e-19
-9.60193e-19
-9.57608e-19
-9.65651e-19
-9.58432e-19
-9.57024e-19
-9.59156e-19
-9.36309e-19
-9.52282e-19
-9.53853e-19
-9.54684e-19
-9.56407e-19
-9.55332e-19
-9.49175e-19
-9.45644e-19
-9.28949e-19
-9.35506e-19
-9.28342e-19
-9.34491e-19
-9.24662e-19
-9.35106e-19
-9.2277e-19
-9.29357e-19
-9.48286e-19
-9.35423e-19
-9.30749e-19
-9.4606e-19
-9.71256e-19
-9.57468e-19
-9.2038e-19
-9.57129e-19
-9.65023e-19
-9.63509e-19
-9.61779e-19
-9.39903e-19
-9.60051e-19
-9.69092e-19
-9.63929e-19
-9.65554e-19
-9.65024e-19
-9.44951e-19
-9.42522e-19
-9.60953e-19
-9.61764e-19
-9.53221e-19
-9.39642e-19
-9.54831e-19
-9.73745e-19
-9.70424e-19
-9.6269e-19
-9.69244e-19
-9.55429e-19
-9.45571e-19
-9.5993e-19
-9.70046e-19
-9.62522e-19
-9.63606e-19
-1.00385e-18
-9.7079e-19
-9.63292e-19
-9.63021e-19
-9.6331e-19
-9.44313e-19
-9.62648e-19
-9.4911e-19
-9.67099e-19
-9.64616e-19
-9.49219e-19
-9.54332e-19
-9.62249e-19
-9.41306e-19
-9.88086e-19
-9.70638e-19
-9.52094e-19
-9.60754e-19
-9.58548e-19
-9.64185e-19
-9.8536e-19
-9.592e-19
-9.67529e-19
-9.56788e-19
-9.5335e-19
-9.44234e-19
-9.50305e-19
-9.40479e-19
-9.55038e-19
-9.74365e-19
-1.03096e-18
-9.71672e-19
-9.63082e-19
-9.42198e-19
-9.67597e-19
-9.79903e-19
-9.9886e-19
-9.77048e-19
-9.60958e-19
-9.85083e-19
-1.00769e-18
-9.88328e-19
-9.68554e-19
-9.80957e-19
-9.85939e-19
-9.79349e-19
-9.81347e-19
-9.77884e-19
-9.78303e-19
-9.9162e-19
-9.79258e-19
-9.72879e-19
-9.68151e-19
-1.00823e-18
-1.01498e-18
-1.00992e-18
-9.76033e-19
-9.49186e-19
-9.59156e-19
-9.67856e-19
-9.68012e-19
-9.75772e-19
-9.73088e-19
-9.83473e-19
-9.85597e-19
-1.00733e-18
-9.80492e-19
-9.66305e-19
-9.866e-19
-9.90404e-19
-9.77281e-19
-1.0162e-18
-1.00132e-18
-9.999e-19
-9.70677e-19
-9.76575e-19
-9.77787e-19
-9.77009e-19
-9.76432e-19
-9.61615e-19
-9.67408e-19
-9.67029e-19
-9.80417e-19
-9.71059e-19
-9.70642e-19
-9.63618e-19
-9.69068e-19
-9.62304e-19
-9.41163e-19
-9.70031e-19
-9.77826e-19
-9.87445e-19
-1.01196e-18
-9.89162e-19
-9.87359e-19
-9.89216e-19
-9.94379e-19
-9.946e-19
-9.81725e-19
-1.00382e-18
-1.02956e-18
-1.02041e-18
-9.86986e-19
-1.00688e-18
-9.93575e-19
-9.88177e-19
-9.75127e-19
-9.89065e-19
-9.93727e-19
-1.0043e-18
-9.94542e-19
-1.00066e-18
-9.95258e-19
-9.94682e-19
-9.94956e-19
-1.02445e-18
-9.87304e-19
-1.00849e-18
-9.75281e-19
-9.58655e-19
-9.83579e-19
-9.86011e-19
-9.87799e-19
-9.88836e-19
-9.90033e-19
-1.00064e-18
-1.00083e-18
-9.89181e-19
-1.0177e-18
-9.90999e-19
-9.97686e-19
-9.96275e-19
-9.90683e-19
-9.75612e-19
-9.85403e-19
-9.91769e-19
-9.96541e-19
-9.85491e-19
-9.92101e-19
-9.68949e-19
-9.75404e-19
-9.77049e-19
-9.96483e-19
-1.01993e-18
-9.86389e-19
-9.82884e-19
-1.01261e-18
-9.85137e-19
-9.60902e-19
-9.87105e-19
-9.90037e-19
-9.7253e-19
-9.96594e-19
-1.00123e-18
-9.99438e-19
-9.99432e-19
-9.69492e-19
-1.0028e-18
-1.02221e-18
-1.01662e-18
-9.94676e-19
-9.98379e-19
-1.01624e-18
-9.82579e-19
-9.85702e-19
-9.98879e-19
-9.88076e-19
-9.88587e-19
-9.84561e-19
-9.73164e-19
-9.82946e-19
-9.84169e-19
-9.78149e-19
-9.90527e-19
-9.83228e-19
-9.86624e-19
-1.02117e-18
-9.98353e-19
-9.9511e-19
-1.00075e-18
-9.826e-19
-1.0056e-18
-1.03168e-18
-1.03151e-18
-1.01017e-18
-1.0071e-18
-1.01774e-18
-9.97248e-19
-9.90945e-19
-9.90851e-19
-9.85595e-19
-9.80152e-19
-9.81937e-19
-9.89309e-19
-9.69394e-19
-9.77108e-19
-9.66274e-19
-9.77103e-19
-9.88798e-19
-9.9049e-19
-9.88541e-19
-9.91402e-19
-9.94843e-19
-1.03858e-18
-1.00097e-18
-1.00109e-18
-1.02358e-18
-1.00246e-18
-1.0009e-18
-9.84601e-19
-9.98853e-19
-9.96463e-19
-9.83969e-19
-1.00801e-18
-9.87014e-19
-1.00577e-18
-9.94429e-19
-9.91243e-19
-9.89052e-19
-9.88969e-19
-9.99306e-19
-1.00412e-18
-9.82607e-19
-9.38986e-19
-9.73515e-19
-9.89309e-19
-1.02363e-18
-1.00027e-18
-1.02008e-18
-9.9304e-19
-9.98424e-19
-9.96513e-19
-9.92528e-19
-9.78592e-19
-9.77347e-19
-9.98871e-19
-1.00366e-18
-1.02059e-18
-1.01954e-18
-1.00009e-18
-9.9709e-19
-9.96529e-19
-1.01343e-18
-1.00966e-18
-9.90883e-19
-9.84371e-19
-9.85205e-19
-9.82511e-19
-9.77332e-19
-9.60644e-19
-9.70716e-19
-9.45986e-19
-9.92964e-19
-9.872e-19
-9.87251e-19
-9.95888e-19
-9.92937e-19
-9.95063e-19
-9.98095e-19
-1.00268e-18
-1.00343e-18
-1.00156e-18
-1.00565e-18
-1.02561e-18
-1.01623e-18
-1.02185e-18
-9.98817e-19
-1.02568e-18
-1.02489e-18
-1.01662e-18
-9.96696e-19
-9.78092e-19
-9.95204e-19
-1.0058e-18
-9.61374e-19
-9.74615e-19
-1.03333e-18
-9.58676e-19
-9.87698e-19
-9.83889e-19
-9.62343e-19
-9.66983e-19
-1.00117e-18
-1.02071e-18
-9.98495e-19
-9.73165e-19
-9.682e-19
-9.7871e-19
-1.00509e-18
-9.96501e-19
-9.86033e-19
-9.76979e-19
-9.85732e-19
-9.73627e-19
-9.82117e-19
-9.86637e-19
-9.83553e-19
-9.74148e-19
-9.49658e-19
-1.02073e-18
-9.56949e-19
-9.84889e-19
-9.93681e-19
-9.93044e-19
-9.97225e-19
-9.992e-19
-9.98092e-19
-1.00217e-18
-1.00024e-18
-9.97948e-19
-1.00209e-18
-1.02625e-18
-1.02343e-18
-1.01297e-18
-9.94029e-19
-9.93682e-19
-9.88173e-19
-9.90465e-19
-9.79732e-19
-9.60851e-19
-9.7385e-19
-9.7837e-19
-9.94456e-19
-1.01994e-18
-9.9591e-19
-9.97839e-19
-1.01938e-18
-9.98358e-19
-9.96845e-19
-9.95428e-19
-9.91715e-19
-9.98209e-19
-1.00911e-18
-9.99688e-19
-1.00705e-18
-9.90308e-19
-9.83539e-19
-9.79928e-19
-9.73578e-19
-9.61546e-19
-9.59e-19
-9.67723e-19
-9.74109e-19
-1.01922e-18
-9.90592e-19
-9.95169e-19
-1.02376e-18
-9.94882e-19
-1.02276e-18
-1.00448e-18
-9.99608e-19
-1.0255e-18
-1.01808e-18
-9.54855e-19
-9.90733e-19
-1.00355e-18
-1.02496e-18
-1.02217e-18
-1.00858e-18
-9.88791e-19
-9.80138e-19
-9.84401e-19
-9.94695e-19
-9.75161e-19
-9.708e-19
-9.67843e-19
-9.57371e-19
-9.80382e-19
-9.86906e-19
-9.84009e-19
-9.5897e-19
-9.97021e-19
-1.02196e-18
-1.00605e-18
-9.97873e-19
-1.00035e-18
-9.97136e-19
-1.0017e-18
-1.00986e-18
-1.00071e-18
-9.92609e-19
-1.01047e-18
-9.94067e-19
-9.70766e-19
-9.66811e-19
-9.68071e-19
-9.62874e-19
-9.6366e-19
-9.5991e-19
-9.75908e-19
-1.00021e-18
-9.77748e-19
-9.84551e-19
-9.80659e-19
-9.88503e-19
-1.00537e-18
-1.01877e-18
-9.76726e-19
-1.01351e-18
-1.02227e-18
-9.84053e-19
-9.46544e-19
-9.81195e-19
-1.00726e-18
-1.00473e-18
-9.82417e-19
-9.76131e-19
-9.74205e-19
-9.77482e-19
-9.78071e-19
-9.84242e-19
-9.67413e-19
-9.73786e-19
-1.00998e-18
-9.71875e-19
-9.80828e-19
-9.68016e-19
-9.85045e-19
-9.90603e-19
-9.83289e-19
-9.57522e-19
-9.64036e-19
-9.93961e-19
-9.99823e-19
-9.8391e-19
-9.87426e-19
-9.86228e-19
-9.79081e-19
-9.5883e-19
-9.65802e-19
-9.53223e-19
-9.48129e-19
-9.64352e-19
-9.69567e-19
-9.63081e-19
-9.38297e-19
-1.01522e-18
-9.86544e-19
-9.96416e-19
-9.8259e-19
-9.89912e-19
-9.80945e-19
-9.55529e-19
-9.75345e-19
-9.84561e-19
-9.89939e-19
-9.82265e-19
-1.00805e-18
-9.89768e-19
-9.75884e-19
-9.63991e-19
-9.78418e-19
-9.97655e-19
-9.94406e-19
-9.60602e-19
-9.55218e-19
-9.72549e-19
-9.70047e-19
-9.71608e-19
-1.00626e-18
-1.0058e-18
-9.84978e-19
-9.92721e-19
-9.80229e-19
-9.68297e-19
-9.69161e-19
-9.5902e-19
-9.76169e-19
-9.69974e-19
-9.54468e-19
-9.74742e-19
-9.86272e-19
-1.00412e-18
-9.84546e-19
-9.77e-19
-9.80992e-19
-9.82703e-19
-9.86041e-19
-9.79068e-19
-9.78087e-19
-9.7914e-19
-9.75933e-19
-9.72905e-19
-9.79179e-19
-9.74281e-19
-9.73629e-19
-9.70082e-19
-9.71073e-19
-9.7333e-19
-9.65109e-19
-9.42267e-19
-9.39969e-19
-9.45417e-19
-9.67039e-19
-9.65323e-19
-9.52721e-19
-9.64657e-19
-9.68723e-19
-9.69967e-19
-9.68462e-19
-9.63523e-19
-9.64695e-19
-9.62918e-19
-9.47682e-19
-9.17029e-19
-9.12995e-19
-9.22171e-19
-9.30191e-19
-9.34002e-19
-9.25381e-19
-9.55215e-19
-9.32478e-19
-9.23171e-19
-9.0465e-19
-9.25453e-19
-9.19504e-19
-8.77625e-19
-8.84219e-19
-9.25795e-19
-9.242e-19
-8.98279e-19
-9.28577e-19
-8.99399e-19
-9.28284e-19
-9.05357e-19
-9.06592e-19
-9.10348e-19
-9.05569e-19
-9.1173e-19
-9.15816e-19
-9.236e-19
-9.26716e-19
-9.61429e-19
-9.35302e-19
-9.37442e-19
-9.30451e-19
-9.34011e-19
-8.68467e-19
-9.06825e-19
-9.12028e-19
-8.8027e-19
-9.16841e-19
-9.2407e-19
-9.46134e-19
-9.40479e-19
-9.37332e-19
-8.97675e-19
-9.35727e-19
-9.03251e-19
-9.15002e-19
-9.16812e-19
-9.03601e-19
-9.16233e-19
-8.97798e-19
-9.65991e-19
-9.49605e-19
-9.62736e-19
-9.05941e-19
-9.38527e-19
-8.07928e-19
-9.08387e-19
-9.09154e-19
-8.5103e-19
-9.00408e-19
-9.22535e-19
-9.43521e-19
-9.42181e-19
-9.39447e-19
-9.0917e-19
-9.36678e-19
-8.91844e-19
-9.82066e-19
-9.30398e-19
-8.98839e-19
-8.64808e-19
-9.34699e-19
-9.41844e-19
-9.4784e-19
-9.55589e-19
-9.48554e-19
-9.42641e-19
-9.7746e-19
-9.42479e-19
-9.31424e-19
-9.71996e-19
-1.05618e-18
-9.64186e-19
-9.53727e-19
-9.57502e-19
-9.9402e-19
-9.89295e-19
-9.46923e-19
-1.11511e-18
-9.2442e-19
-9.06885e-19
-9.95023e-19
-1.1436e-18
-9.8922e-19
-1.02117e-18
-9.62157e-19
-9.57272e-19
-9.56906e-19
-9.47252e-19
-1.09322e-18
-9.19671e-19
-9.22653e-19
-1.0234e-18
-1.23859e-18
-1.01489e-18
-1.04334e-18
-9.70942e-19
-9.66083e-19
-9.63585e-19
-9.52578e-19
-9.62868e-19
-8.01168e-19
-8.32864e-19
-1.03854e-18
-1.33315e-18
-1.03185e-18
-9.56595e-19
-9.6546e-19
-1.01364e-18
-1.00966e-18
-9.62135e-19
-8.91095e-19
-4.2642e-19
-4.38694e-19
-9.13801e-19
-9.77335e-19
-9.64068e-19
-8.36662e-19
-9.15424e-19
-9.04116e-19
-9.59066e-19
-9.51624e-19
-8.63629e-19
-8.31628e-19
-8.3663e-19
-8.80939e-19
-5.35e-19
-6.54158e-19
-9.17311e-19
-8.56555e-19
-8.83055e-19
-9.45131e-19
-9.17666e-19
-1.09791e-18
-1.01129e-18
-9.43877e-19
-9.32e-19
-7.90759e-19
-6.55014e-19
-9.13318e-19
-8.5139e-19
-9.44438e-19
-9.66169e-19
-9.23768e-19
-1.58973e-18
-1.17175e-18
-9.95585e-19
-8.63092e-19
-5.80666e-19
-9.02283e-19
-8.17483e-19
-8.44225e-19
-9.79517e-19
-1.0296e-18
-9.91911e-19
-1.24085e-18
-1.46746e-18
-1.06646e-18
-9.47613e-19
-9.46992e-19
-1.32149e-18
-1.20185e-18
-9.87202e-19
-1.04704e-18
-1.00957e-18
-1.01139e-18
-1.01735e-18
-1.19673e-18
-1.10657e-18
-9.76759e-19
-8.8124e-19
-7.00344e-19
-9.75396e-19
-8.88672e-19
-9.91181e-19
-9.81653e-19
-9.42165e-19
-9.16176e-19
-1.44689e-18
-1.43773e-18
-1.03584e-18
-9.34536e-19
-8.90183e-19
-9.19385e-19
-9.50815e-19
-1.02992e-18
-9.90502e-19
-9.70034e-19
-8.48533e-19
-4.77267e-19
-4.6478e-19
-8.60261e-19
-1.0004e-18
-9.84157e-19
-8.3161e-19
-9.35726e-19
-9.43113e-19
-9.87277e-19
-9.77876e-19
-9.35988e-19
-9.08532e-19
-9.04749e-19
-9.90497e-19
-1.29781e-18
-1.02685e-18
-9.48335e-19
-9.80554e-19
-1.0315e-18
-1.0314e-18
-9.92113e-19
-1.08513e-18
-9.39051e-19
-9.3903e-19
-1.02663e-18
-1.24978e-18
-1.03792e-18
-1.07036e-18
-9.96108e-19
-9.89153e-19
-9.91121e-19
-9.83098e-19
-1.09797e-18
-9.49122e-19
-9.40348e-19
-1.02038e-18
-1.17967e-18
-1.01952e-18
-1.04928e-18
-9.89204e-19
-9.8456e-19
-9.86487e-19
-9.82027e-19
-9.23478e-19
-8.87365e-19
-9.00789e-19
-9.65127e-19
-1.10286e-18
-9.98273e-19
-9.82154e-19
-9.85082e-19
-1.02321e-18
-1.01876e-18
-9.82664e-19
-6.34692e-19
-6.76754e-19
-7.63288e-19
-8.33118e-19
-9.67016e-19
-9.77464e-19
-9.80958e-19
-9.79276e-19
-9.8809e-19
-9.86204e-19
-9.85704e-19
-9.32109e-19
-9.02362e-19
-9.17931e-19
-9.38668e-19
-9.55168e-19
-9.65581e-19
-1.00842e-18
-9.74635e-19
-9.72009e-19
-9.71861e-19
-9.74355e-19
-9.78448e-19
-8.6852e-19
-8.8322e-19
-9.50433e-19
-9.48665e-19
-9.21526e-19
-9.61795e-19
-9.34572e-19
-9.58312e-19
-9.37227e-19
-9.4823e-19
-9.50023e-19
-9.37064e-19
-9.42883e-19
-9.47114e-19
-9.5096e-19
-9.55219e-19
-9.94411e-19
-9.63717e-19
-9.66229e-19
-9.37469e-19
-9.66124e-19
-9.09985e-19
-9.42959e-19
-9.46205e-19
-9.10672e-19
-9.46929e-19
-9.58203e-19
-9.70257e-19
-9.67589e-19
-9.71172e-19
-9.44225e-19
-9.6698e-19
-9.01987e-19
-9.39017e-19
-9.44198e-19
-9.1324e-19
-9.4728e-19
-9.62442e-19
-1.00016e-18
-1.00037e-18
-9.9789e-19
-9.68686e-19
-9.92544e-19
-9.40241e-19
-9.46701e-19
-9.47855e-19
-9.46946e-19
-9.46812e-19
-9.62344e-19
-9.92756e-19
-9.72207e-19
-9.74394e-19
-9.50084e-19
-9.73218e-19
)
;

boundaryField
{
    inlet
    {
        type            cyclic;
    }
    outlet
    {
        type            cyclic;
    }
    wall
    {
        type            zeroGradient;
    }
    procBoundary7to4
    {
        type            processor;
        value           nonuniform List<scalar> 
34
(
-8.53954e-19
-8.58987e-19
-8.6079e-19
-8.61304e-19
-8.61458e-19
-8.68141e-19
-8.86066e-19
-8.95812e-19
-8.79586e-19
-8.93561e-19
-8.89524e-19
-8.88351e-19
-9.03219e-19
-8.81121e-19
-8.89901e-19
-8.82322e-19
-8.81106e-19
-8.60812e-19
-8.73412e-19
-8.65218e-19
-8.81771e-19
-8.82596e-19
-8.95198e-19
-8.85004e-19
-9.14119e-19
-9.01259e-19
-9.23772e-19
-9.31718e-19
-9.34997e-19
-9.61185e-19
-9.4594e-19
-9.7681e-19
-9.75856e-19
-1.00306e-18
)
;
    }
    procBoundary7to5
    {
        type            processor;
        value           nonuniform List<scalar> 
42
(
-9.43536e-19
-9.43536e-19
-9.55103e-19
-9.55103e-19
-9.65438e-19
-9.73124e-19
-9.62494e-19
-9.73496e-19
-9.64059e-19
-9.62138e-19
-9.62138e-19
-9.73718e-19
-9.43339e-19
-9.61372e-19
-9.70506e-19
-9.64568e-19
-9.90031e-19
-9.98561e-19
-9.69581e-19
-9.94966e-19
-9.7648e-19
-9.76213e-19
-9.7648e-19
-9.84719e-19
-9.75596e-19
-9.70921e-19
-9.89293e-19
-9.8015e-19
-9.8931e-19
-9.97308e-19
-9.89293e-19
-9.77233e-19
-9.77233e-19
-9.74501e-19
-9.81273e-19
-9.55482e-19
-9.54797e-19
-9.63204e-19
-9.49127e-19
-9.57017e-19
-9.79655e-19
-9.49081e-19
)
;
    }
    procBoundary7to6
    {
        type            processor;
        value           nonuniform List<scalar> 
72
(
-9.86559e-19
-9.57536e-19
-9.40516e-19
-9.16156e-19
-9.32125e-19
-9.12331e-19
-9.36124e-19
-9.36659e-19
-9.42343e-19
-9.44981e-19
-9.62192e-19
-9.66162e-19
-9.49116e-19
-9.42762e-19
-8.52626e-19
-8.63159e-19
-8.70292e-19
-8.78479e-19
-8.70401e-19
-8.72045e-19
-8.9106e-19
-8.70807e-19
-8.86519e-19
-8.86072e-19
-8.86748e-19
-8.78202e-19
-8.45755e-19
-8.74942e-19
-9.00581e-19
-8.97542e-19
-8.97542e-19
-9.05184e-19
-9.11475e-19
-9.05611e-19
-9.0573e-19
-9.31048e-19
-9.31048e-19
-9.1072e-19
-8.79947e-19
-9.04931e-19
-9.15541e-19
-9.15541e-19
-9.23398e-19
-9.61286e-19
-9.3799e-19
-9.73741e-19
-9.81425e-19
-1.09001e-18
-5.84179e-19
-9.94566e-19
-1.48338e-18
-1.44276e-18
-1.10739e-18
-1.03742e-18
-5.39841e-19
-1.00486e-18
-1.58288e-18
-1.53289e-18
-1.00632e-18
-5.13564e-19
-9.71071e-19
-1.04023e-18
-1.39685e-18
-1.41886e-18
-9.95547e-19
-8.79151e-19
-9.66638e-19
-1.07835e-18
-9.75333e-19
-9.79808e-19
-9.43678e-19
-9.53854e-19
)
;
    }
}


// ************************************************************************* //
