/*--------------------------------*- C++ -*----------------------------------*\
  =========                 |
  \\      /  F ield         | OpenFOAM: The Open Source CFD Toolbox
   \\    /   O peration     | Website:  https://openfoam.org
    \\  /    A nd           | Version:  7
     \\/     M anipulation  |
\*---------------------------------------------------------------------------*/
FoamFile
{
    version     2.0;
    format      ascii;
    class       volVectorField;
    location    "20000";
    object      vorticity;
}
// * * * * * * * * * * * * * * * * * * * * * * * * * * * * * * * * * * * * * //

dimensions      [0 0 -1 0 0 0 0];

internalField   nonuniform List<vector> 
4782
(
(-0.0404123 -0.0304276 1.16971e-17)
(-0.0416363 -0.0313465 1.06413e-17)
(-0.0428506 -0.032258 9.69922e-18)
(-0.0440551 -0.0331621 8.7489e-18)
(-0.0452494 -0.0340584 7.52516e-18)
(-0.0464335 -0.0349469 6.25592e-18)
(-0.0476073 -0.0358276 4.99992e-18)
(-0.0487706 -0.0367004 3.79639e-18)
(-0.0499233 -0.0375651 2.73385e-18)
(-0.0510654 -0.0384217 1.95635e-18)
(-0.00015518 -0.000130485 6.91018e-18)
(-0.000158481 -0.000133624 7.54388e-18)
(-0.000161278 -0.000136162 8.10737e-18)
(-0.000162484 -0.000137294 8.78259e-18)
(-0.000160929 -0.000136134 9.55629e-18)
(-0.000156442 -0.000132571 1.04429e-17)
(-0.000150433 -0.000127751 1.13746e-17)
(-0.000146135 -0.000124288 1.2141e-17)
(-0.000148632 -0.000126274 1.26797e-17)
(-0.000165495 -0.000139786 1.28299e-17)
(-0.000209432 -0.000175003 1.22911e-17)
(-0.000303986 -0.000250814 1.0798e-17)
(-0.000490781 -0.000400719 7.38114e-18)
(-0.00082995 -0.000673324 3.51952e-18)
(-0.00138111 -0.001117 5.47205e-19)
(-0.00216881 -0.00175163 3.71985e-19)
(-0.00316371 -0.00255319 3.91058e-18)
(-0.0043005 -0.00346861 9.5773e-18)
(-0.00551452 -0.00444562 1.33065e-17)
(-0.00676395 -0.00545063 1.50889e-17)
(-0.00802905 -0.00646786 1.55316e-17)
(-0.00930282 -0.00749178 1.54518e-17)
(-0.0105833 -0.00852089 1.53876e-17)
(-0.0118699 -0.00955466 1.52062e-17)
(-0.0131617 -0.0105925 1.50007e-17)
(-0.0144578 -0.0116335 1.50026e-17)
(-0.0157567 -0.0126767 1.50615e-17)
(-0.0170574 -0.013721 1.50245e-17)
(-0.0183585 -0.0147656 1.53552e-17)
(-0.0196588 -0.0158094 1.57963e-17)
(-0.0209574 -0.0168516 1.60316e-17)
(-0.0222532 -0.0178914 1.62324e-17)
(-0.0235454 -0.0189283 1.61549e-17)
(-0.0248332 -0.0199614 1.59369e-17)
(-0.026116 -0.0209904 1.55973e-17)
(-0.027393 -0.0220147 1.51818e-17)
(-0.0286639 -0.0230338 1.48158e-17)
(-0.029928 -0.0240474 1.43243e-17)
(-0.0311848 -0.0250551 1.34272e-17)
(-0.0324341 -0.0260565 1.22485e-17)
(-0.0336754 -0.0270515 1.11659e-17)
(-0.0349084 -0.0280397 1.02044e-17)
(-0.0361329 -0.0290209 9.00711e-18)
(-0.0373485 -0.029995 7.90299e-18)
(-0.038555 -0.0309616 6.80824e-18)
(-0.0397522 -0.0319207 5.76987e-18)
(-0.04094 -0.0328722 4.66763e-18)
(-0.0421181 -0.0338159 3.49437e-18)
(-0.0432865 -0.0347517 2.1723e-18)
(-0.044445 -0.0356794 9.56641e-19)
(-0.0455935 -0.036599 -1.55808e-19)
(-0.0467319 -0.0375105 -1.23578e-18)
(-0.0478601 -0.0384137 -2.39586e-18)
(-0.0489779 -0.0393085 -3.56423e-18)
(-0.0500853 -0.040195 -4.33739e-18)
(-0.000155367 -0.000137186 6.49664e-18)
(-0.000158159 -0.000139987 5.94727e-18)
(-0.000159959 -0.000141863 5.92258e-18)
(-0.000159816 -0.000141986 6.583e-18)
(-0.000156878 -0.000139639 7.55212e-18)
(-0.000151491 -0.000135134 8.18674e-18)
(-0.000145676 -0.000130215 8.64065e-18)
(-0.000143234 -0.000128152 9.41559e-18)
(-0.000149862 -0.000133829 1.1171e-17)
(-0.000174343 -0.000154745 1.35082e-17)
(-0.000232155 -0.000204114 1.47244e-17)
(-0.000351974 -0.000306455 1.27965e-17)
(-0.000581558 -0.000502767 8.2149e-18)
(-0.000982264 -0.000845953 3.24641e-18)
(-0.001603 -0.0013783 1.57335e-18)
(-0.00244838 -0.0021037 5.108e-18)
(-0.00347339 -0.00298306 1.22395e-17)
(-0.00461133 -0.00395874 1.80924e-17)
(-0.00580657 -0.00498299 2.06119e-17)
(-0.00702725 -0.0060286 2.08505e-17)
(-0.00825977 -0.00708407 2.00903e-17)
(-0.00949977 -0.00814571 1.96988e-17)
(-0.010746 -0.00921256 2.03783e-17)
(-0.0119979 -0.0102841 2.17743e-17)
(-0.0132546 -0.0113595 2.32171e-17)
(-0.0145149 -0.0124379 2.42777e-17)
(-0.0157775 -0.0135182 2.45004e-17)
(-0.0170413 -0.0145994 2.40855e-17)
(-0.0183051 -0.0156804 2.36672e-17)
(-0.0195678 -0.0167603 2.33982e-17)
(-0.0208284 -0.0178384 2.29686e-17)
(-0.022086 -0.0189137 2.20665e-17)
(-0.0233398 -0.0199858 2.09158e-17)
(-0.0245891 -0.0210538 1.97128e-17)
(-0.0258332 -0.0221173 1.8471e-17)
(-0.0270715 -0.0231758 1.72941e-17)
(-0.0283036 -0.0242289 1.61776e-17)
(-0.029529 -0.0252761 1.50464e-17)
(-0.0307472 -0.0263171 1.39867e-17)
(-0.0319579 -0.0273516 1.26524e-17)
(-0.0331607 -0.0283793 1.1163e-17)
(-0.0343554 -0.0293999 9.79573e-18)
(-0.0355416 -0.0304132 8.40168e-18)
(-0.0367192 -0.031419 7.21837e-18)
(-0.0378878 -0.0324172 6.12883e-18)
(-0.0390473 -0.0334075 5.04839e-18)
(-0.0401976 -0.0343898 3.78704e-18)
(-0.0413385 -0.035364 2.43053e-18)
(-0.0424699 -0.03633 9.98232e-19)
(-0.0435915 -0.0372877 -5.84362e-19)
(-0.0447035 -0.038237 -1.99687e-18)
(-0.0458055 -0.0391778 -3.21699e-18)
(-0.0468976 -0.04011 -4.22559e-18)
(-0.0479797 -0.0410336 -4.74877e-18)
(-0.0490516 -0.0419484 -5.05311e-18)
(-0.000154497 -0.000143616 -1.54685e-18)
(-0.000156819 -0.000146029 -2.68139e-18)
(-0.000157705 -0.000147082 -3.99292e-18)
(-0.00015635 -0.000146023 -5.70239e-18)
(-0.00015229 -0.000142446 -7.62932e-18)
(-0.000146457 -0.000137212 -9.85338e-18)
(-0.000141486 -0.000132736 -1.22013e-17)
(-0.000141739 -0.000133003 -1.45268e-17)
(-0.000153668 -0.000143887 -1.63388e-17)
(-0.000187728 -0.000174884 -1.72703e-17)
(-0.000263007 -0.000243335 -1.7288e-17)
(-0.000414003 -0.000380668 -1.66576e-17)
(-0.000693583 -0.000635244 -1.33333e-17)
(-0.00116029 -0.00106083 -7.25284e-18)
(-0.0018478 -0.00168838 2.29675e-18)
(-0.00274086 -0.00250372 1.28751e-17)
(-0.00378378 -0.00345558 2.27425e-17)
(-0.00491329 -0.00448591 3.03029e-17)
(-0.00608419 -0.00555352 3.5339e-17)
(-0.0072733 -0.00663743 3.8271e-17)
(-0.00847173 -0.00772961 3.9658e-17)
(-0.00967681 -0.00882773 4.02676e-17)
(-0.0108877 -0.00993107 4.04899e-17)
(-0.0121038 -0.011039 4.08285e-17)
(-0.0133241 -0.0121507 4.13638e-17)
(-0.0145474 -0.013265 4.19698e-17)
(-0.0157726 -0.014381 4.24453e-17)
(-0.0169984 -0.0154974 4.27144e-17)
(-0.0182238 -0.0166134 4.23535e-17)
(-0.0194477 -0.017728 4.16804e-17)
(-0.0206692 -0.0188403 4.08006e-17)
(-0.0218874 -0.0199496 3.95885e-17)
(-0.0231017 -0.0210552 3.82644e-17)
(-0.0243114 -0.0221565 3.69244e-17)
(-0.0255158 -0.023253 3.5243e-17)
(-0.0267144 -0.0243442 3.3373e-17)
(-0.0279068 -0.0254296 3.13866e-17)
(-0.0290925 -0.0265088 2.93973e-17)
(-0.030271 -0.0275816 2.75622e-17)
(-0.0314422 -0.0286475 2.57908e-17)
(-0.0326055 -0.0297063 2.40107e-17)
(-0.0337609 -0.0307577 2.21997e-17)
(-0.0349079 -0.0318015 2.05768e-17)
(-0.0360464 -0.0328376 1.88614e-17)
(-0.0371763 -0.0338656 1.72227e-17)
(-0.0382972 -0.0348856 1.56318e-17)
(-0.0394091 -0.0358972 1.39183e-17)
(-0.0405118 -0.0369005 1.21122e-17)
(-0.0416051 -0.0378952 1.01522e-17)
(-0.0426891 -0.0388813 8.11665e-18)
(-0.0437636 -0.0398587 5.82593e-18)
(-0.0448284 -0.0408274 3.36093e-18)
(-0.0458836 -0.0417872 1.37073e-18)
(-0.0469289 -0.042738 7.25064e-19)
(-0.0479644 -0.0436799 7.67408e-19)
(-0.000157444 -0.00014496 4.27657e-18)
(-0.000159057 -0.000146774 4.14198e-18)
(-0.000158833 -0.000146889 4.1649e-18)
(-0.000156175 -0.000144737 4.29644e-18)
(-0.000151092 -0.000140316 4.74715e-18)
(-0.000145165 -0.000135064 5.70233e-18)
(-0.000141699 -0.000132015 6.90041e-18)
(-0.000145754 -0.000135831 7.52097e-18)
(-0.00016495 -0.00015354 7.62319e-18)
(-0.000212329 -0.000197158 8.39323e-18)
(-0.000311988 -0.000288925 1.16604e-17)
(-0.000505326 -0.000467207 1.72621e-17)
(-0.000849171 -0.000785034 2.35403e-17)
(-0.00139523 -0.00129123 2.63459e-17)
(-0.00215869 -0.00200094 2.51065e-17)
(-0.00310582 -0.00288349 2.41437e-17)
(-0.00417457 -0.00388136 2.41648e-17)
(-0.00530751 -0.00494107 2.52726e-17)
(-0.00646912 -0.00602942 2.62362e-17)
(-0.00764311 -0.0071312 2.6736e-17)
(-0.00882386 -0.00824113 2.69787e-17)
(-0.0100098 -0.0093577 2.69589e-17)
(-0.0112003 -0.0104803 2.69734e-17)
(-0.0123945 -0.0116082 2.70157e-17)
(-0.0135916 -0.0127403 2.74716e-17)
(-0.0147902 -0.0138757 2.83203e-17)
(-0.0159894 -0.0150131 2.92186e-17)
(-0.0171879 -0.0161515 2.98547e-17)
(-0.0183848 -0.0172898 3.02686e-17)
(-0.0195791 -0.0184271 3.05613e-17)
(-0.0207699 -0.0195627 3.07909e-17)
(-0.0219566 -0.0206956 3.0694e-17)
(-0.0231383 -0.0218253 3.0484e-17)
(-0.0243146 -0.0229511 3.01785e-17)
(-0.0254848 -0.0240725 2.96359e-17)
(-0.0266486 -0.0251889 2.87845e-17)
(-0.0278054 -0.0262999 2.74074e-17)
(-0.0289549 -0.0274052 2.63877e-17)
(-0.0300967 -0.0285042 2.54794e-17)
(-0.0312306 -0.0295968 2.42441e-17)
(-0.0323562 -0.0306825 2.29646e-17)
(-0.0334733 -0.0317612 2.17089e-17)
(-0.0345818 -0.0328325 2.04173e-17)
(-0.0356813 -0.0338963 1.90087e-17)
(-0.0367719 -0.0349524 1.71888e-17)
(-0.0378532 -0.0360006 1.52702e-17)
(-0.0389252 -0.0370407 1.34632e-17)
(-0.0399877 -0.0380726 1.1609e-17)
(-0.0410408 -0.0390961 9.60794e-18)
(-0.0420842 -0.0401112 7.34016e-18)
(-0.043118 -0.0411178 4.95549e-18)
(-0.044142 -0.0421157 2.39768e-18)
(-0.0451562 -0.0431049 -3.25536e-19)
(-0.0461605 -0.0440852 -1.46364e-18)
(-0.0471549 -0.0450566 -1.37859e-18)
(-0.000144714 -0.000157665 5.16842e-18)
(-0.000146546 -0.000159307 6.01903e-18)
(-0.000146668 -0.000159111 6.85677e-18)
(-0.000144514 -0.000156478 7.51978e-18)
(-0.000140083 -0.000151414 7.89984e-18)
(-0.000134817 -0.0001455 8.28963e-18)
(-0.000131753 -0.000142043 8.55072e-18)
(-0.000135556 -0.000146104 8.68562e-18)
(-0.000153255 -0.000165308 9.37149e-18)
(-0.000196866 -0.000212697 1.26843e-17)
(-0.000288628 -0.000312366 1.95162e-17)
(-0.000466902 -0.000505711 3.01584e-17)
(-0.000784714 -0.000849552 3.97811e-17)
(-0.00129089 -0.00139559 4.45042e-17)
(-0.00200057 -0.00215902 4.20398e-17)
(-0.0028831 -0.00310611 3.55574e-17)
(-0.00388097 -0.00417482 2.93886e-17)
(-0.00494067 -0.00530773 2.47363e-17)
(-0.00602903 -0.0064693 2.11391e-17)
(-0.00713083 -0.00764328 1.79009e-17)
(-0.00824078 -0.008824 1.5131e-17)
(-0.00935737 -0.0100099 1.27865e-17)
(-0.01048 -0.0112004 1.10431e-17)
(-0.0116079 -0.0123946 9.94084e-18)
(-0.0127401 -0.0135916 9.48729e-18)
(-0.0138754 -0.0147903 9.46953e-18)
(-0.0150129 -0.0159894 9.65642e-18)
(-0.0161513 -0.0171879 9.81647e-18)
(-0.0172896 -0.0183848 1.01834e-17)
(-0.018427 -0.019579 1.08175e-17)
(-0.0195625 -0.0207699 1.17296e-17)
(-0.0206955 -0.0219565 1.25961e-17)
(-0.0218252 -0.0231382 1.33626e-17)
(-0.022951 -0.0243145 1.36712e-17)
(-0.0240724 -0.0254847 1.37483e-17)
(-0.0251888 -0.0266484 1.33794e-17)
(-0.0262999 -0.0278052 1.26104e-17)
(-0.0274051 -0.0289547 1.18026e-17)
(-0.0285042 -0.0300965 1.09076e-17)
(-0.0295968 -0.0312304 1.02648e-17)
(-0.0306825 -0.032356 9.66458e-18)
(-0.0317612 -0.0334731 8.78491e-18)
(-0.0328326 -0.0345816 7.60485e-18)
(-0.0338964 -0.0356811 6.36579e-18)
(-0.0349525 -0.0367716 4.85231e-18)
(-0.0360007 -0.0378529 3.18007e-18)
(-0.0370408 -0.0389249 1.65919e-18)
(-0.0380727 -0.0399875 2.58833e-19)
(-0.0390963 -0.0410406 -1.21855e-18)
(-0.0401114 -0.042084 -3.03093e-18)
(-0.041118 -0.0431178 -5.03041e-18)
(-0.0421159 -0.0441418 -7.28455e-18)
(-0.0431051 -0.045156 -9.53175e-18)
(-0.0440854 -0.0461603 -1.00968e-17)
(-0.0450568 -0.0471548 -9.59302e-18)
(-0.000143415 -0.000154723 5.75245e-18)
(-0.000145868 -0.000157148 6.12745e-18)
(-0.000146937 -0.000158115 6.65962e-18)
(-0.000145876 -0.000156816 7.31232e-18)
(-0.000142281 -0.000152787 7.97571e-18)
(-0.000137018 -0.000146963 8.37014e-18)
(-0.000132509 -0.000141985 8.31948e-18)
(-0.000132747 -0.000142227 7.92459e-18)
(-0.000143609 -0.000154146 7.37606e-18)
(-0.000174592 -0.0001882 7.39361e-18)
(-0.000243035 -0.000263476 8.0852e-18)
(-0.000380359 -0.000414463 9.2581e-18)
(-0.000634913 -0.000694017 1.10444e-17)
(-0.00106045 -0.00116066 1.53134e-17)
(-0.00168795 -0.00184809 2.20401e-17)
(-0.00250323 -0.00274106 2.84473e-17)
(-0.00345504 -0.00378389 3.38624e-17)
(-0.00448535 -0.00491334 3.54174e-17)
(-0.00555296 -0.00608418 3.54308e-17)
(-0.00663687 -0.00727326 3.45231e-17)
(-0.00772907 -0.00847166 3.28914e-17)
(-0.0088272 -0.00967671 3.14168e-17)
(-0.00993055 -0.0108876 3.03014e-17)
(-0.0110385 -0.0121037 2.96898e-17)
(-0.0121502 -0.0133239 2.96023e-17)
(-0.0132645 -0.0145472 3.01709e-17)
(-0.0143805 -0.0157724 3.09408e-17)
(-0.015497 -0.0169981 3.16669e-17)
(-0.016613 -0.0182235 3.22316e-17)
(-0.0177276 -0.0194474 3.23216e-17)
(-0.0188399 -0.0206688 3.21543e-17)
(-0.0199492 -0.0218871 3.21251e-17)
(-0.0210549 -0.0231014 3.18425e-17)
(-0.0221562 -0.024311 3.13084e-17)
(-0.0232527 -0.0255154 3.01626e-17)
(-0.0243439 -0.0267141 2.85618e-17)
(-0.0254294 -0.0279064 2.67073e-17)
(-0.0265086 -0.0290921 2.48523e-17)
(-0.0275814 -0.0302706 2.31814e-17)
(-0.0286473 -0.0314417 2.14841e-17)
(-0.0297061 -0.0326051 1.97575e-17)
(-0.0307576 -0.0337604 1.79287e-17)
(-0.0318014 -0.0349074 1.62865e-17)
(-0.0328375 -0.036046 1.46631e-17)
(-0.0338656 -0.0371758 1.31648e-17)
(-0.0348855 -0.0382967 1.17161e-17)
(-0.0358972 -0.0394086 1.04261e-17)
(-0.0369005 -0.0405113 8.81593e-18)
(-0.0378953 -0.0416047 7.11265e-18)
(-0.0388814 -0.0426887 5.6328e-18)
(-0.0398589 -0.0437631 3.95722e-18)
(-0.0408276 -0.0448281 2.16471e-18)
(-0.0417875 -0.0458833 4.02156e-19)
(-0.0427386 -0.0469289 -1.45677e-18)
(-0.0436807 -0.0479647 -3.34289e-18)
(-0.0446138 -0.0489908 -5.31657e-18)
(-0.045538 -0.050007 -7.37042e-18)
(-0.0464531 -0.0510133 -7.88295e-18)
(-0.0473592 -0.0520097 -7.33331e-18)
(-0.000137214 -0.000155912 6.80267e-18)
(-0.000140016 -0.000158882 7.10593e-18)
(-0.000141861 -0.000160783 7.53131e-18)
(-0.00014193 -0.000160676 8.28088e-18)
(-0.000139516 -0.000157721 9.37775e-18)
(-0.00013494 -0.000152286 1.08939e-17)
(-0.000129954 -0.000146407 1.25415e-17)
(-0.000127835 -0.000143901 1.38179e-17)
(-0.000133471 -0.000150476 1.4414e-17)
(-0.000154363 -0.000174914 1.42288e-17)
(-0.000203716 -0.000232692 1.36511e-17)
(-0.000306042 -0.000352471 1.09786e-17)
(-0.000502326 -0.000581993 7.03353e-18)
(-0.000845458 -0.000982599 3.78942e-18)
(-0.00137773 -0.00160321 3.9851e-18)
(-0.00210305 -0.00244844 9.75653e-18)
(-0.00298235 -0.00347333 1.91748e-17)
(-0.003958 -0.00461117 2.62385e-17)
(-0.00498224 -0.00580636 2.86402e-17)
(-0.00602785 -0.00702699 2.84097e-17)
(-0.00708332 -0.00825948 2.71034e-17)
(-0.00814498 -0.00949944 2.62633e-17)
(-0.00921184 -0.0107457 2.62222e-17)
(-0.0102834 -0.0119975 2.69284e-17)
(-0.0113588 -0.0132542 2.79781e-17)
(-0.0124372 -0.0145144 2.90437e-17)
(-0.0135175 -0.015777 2.97079e-17)
(-0.0145987 -0.0170408 2.98486e-17)
(-0.0156798 -0.0183046 2.95833e-17)
(-0.0167597 -0.0195672 2.96109e-17)
(-0.0178378 -0.0208278 2.94878e-17)
(-0.0189132 -0.0220854 2.86031e-17)
(-0.0199852 -0.0233391 2.72204e-17)
(-0.0210533 -0.0245884 2.57663e-17)
(-0.0221168 -0.0258325 2.41944e-17)
(-0.0231754 -0.0270708 2.25759e-17)
(-0.0242285 -0.0283029 2.11723e-17)
(-0.0252757 -0.0295283 2.0104e-17)
(-0.0263167 -0.0307465 1.90699e-17)
(-0.0273513 -0.0319572 1.78101e-17)
(-0.028379 -0.03316 1.6643e-17)
(-0.0293996 -0.0343546 1.54664e-17)
(-0.030413 -0.0355408 1.4145e-17)
(-0.0314188 -0.0367184 1.2847e-17)
(-0.032417 -0.037887 1.18899e-17)
(-0.0334073 -0.0390466 1.10796e-17)
(-0.0343897 -0.0401969 9.98151e-18)
(-0.035364 -0.0413378 8.81612e-18)
(-0.03633 -0.0424691 7.35977e-18)
(-0.0372878 -0.0435909 6.00826e-18)
(-0.0382371 -0.0447028 4.93854e-18)
(-0.039178 -0.045805 3.8752e-18)
(-0.0401104 -0.0468972 2.23075e-18)
(-0.0410341 -0.0479795 4.76095e-19)
(-0.0419493 -0.0490517 -1.3107e-18)
(-0.0428558 -0.0501139 -3.27335e-18)
(-0.0437537 -0.051166 -5.11454e-18)
(-0.0446428 -0.0522079 -6.86484e-18)
(-0.0455231 -0.0532396 -7.41545e-18)
(-0.0463946 -0.0542611 -7.02397e-18)
(-0.000130901 -0.000156977 -1.42023e-18)
(-0.000133827 -0.000160317 -8.46946e-19)
(-0.000136178 -0.000162979 -5.6188e-19)
(-0.000137148 -0.000163982 -7.26518e-19)
(-0.00013585 -0.00016221 -1.47898e-18)
(-0.000132174 -0.000157523 -3.0092e-18)
(-0.000127264 -0.000151341 -4.89599e-18)
(-0.000123736 -0.000146905 -6.94377e-18)
(-0.000125677 -0.000149296 -8.18176e-18)
(-0.000139161 -0.000166078 -8.18024e-18)
(-0.000174358 -0.000209943 -6.55453e-18)
(-0.000250146 -0.000304421 -2.944e-18)
(-0.000400014 -0.000491116 2.27832e-18)
(-0.00067256 -0.000830148 9.97435e-18)
(-0.00111616 -0.00138114 1.91438e-17)
(-0.00175071 -0.00216869 2.81062e-17)
(-0.00255223 -0.00316346 3.41938e-17)
(-0.00346763 -0.00430015 3.7798e-17)
(-0.00444464 -0.00551411 3.88915e-17)
(-0.00544966 -0.00676349 3.76717e-17)
(-0.0064669 -0.00802855 3.50211e-17)
(-0.00749083 -0.00930228 3.18281e-17)
(-0.00851995 -0.0105828 2.88513e-17)
(-0.00955373 -0.0118693 2.63406e-17)
(-0.0105916 -0.0131611 2.44559e-17)
(-0.0116326 -0.0144571 2.32875e-17)
(-0.0126758 -0.015756 2.23747e-17)
(-0.0137201 -0.0170566 2.1925e-17)
(-0.0147647 -0.0183576 2.21602e-17)
(-0.0158085 -0.0196579 2.26323e-17)
(-0.0168507 -0.0209564 2.28838e-17)
(-0.0178906 -0.0222522 2.28321e-17)
(-0.0189275 -0.0235444 2.2606e-17)
(-0.0199606 -0.0248322 2.21321e-17)
(-0.0209896 -0.0261149 2.13304e-17)
(-0.0220139 -0.027392 2.05317e-17)
(-0.0230331 -0.0286628 1.97529e-17)
(-0.0240467 -0.0299268 1.88922e-17)
(-0.0250544 -0.0311837 1.77749e-17)
(-0.0260559 -0.0324329 1.64131e-17)
(-0.027051 -0.0336742 1.50709e-17)
(-0.0280392 -0.0349072 1.37058e-17)
(-0.0290205 -0.0361316 1.2223e-17)
(-0.0299946 -0.0373472 1.10094e-17)
(-0.0309613 -0.0385537 9.94167e-18)
(-0.0319204 -0.039751 9.14866e-18)
(-0.0328719 -0.0409388 8.24096e-18)
(-0.0338156 -0.042117 6.98816e-18)
(-0.0347514 -0.0432854 5.76516e-18)
(-0.0356792 -0.0444439 4.79108e-18)
(-0.0365989 -0.0455924 3.99211e-18)
(-0.0375104 -0.0467309 3.19183e-18)
(-0.0384137 -0.0478591 2.16278e-18)
(-0.0393087 -0.0489772 9.85154e-19)
(-0.0401954 -0.050085 -1.8854e-19)
(-0.0410737 -0.0511824 -1.21208e-18)
(-0.0419437 -0.0522695 -2.29218e-18)
(-0.0428053 -0.0533462 -3.8347e-18)
(-0.0436585 -0.0544124 -5.22807e-18)
(-0.0445033 -0.0554683 -6.34669e-18)
(-0.0453397 -0.0565138 -7.35816e-18)
(-0.0461676 -0.0575489 -8.15558e-18)
(-0.0469872 -0.0585736 -9.26305e-18)
(-0.0477985 -0.059588 -1.00527e-17)
(-0.0486014 -0.060592 -1.0589e-17)
(-0.049396 -0.0615857 -1.14927e-17)
(-0.0501823 -0.0625691 -1.2372e-17)
(-0.0509604 -0.0635423 -1.33412e-17)
(-0.0517303 -0.0645053 -1.44913e-17)
(-0.052492 -0.0654582 -1.52478e-17)
(-0.0532456 -0.066401 -1.58893e-17)
(-0.0539911 -0.0673337 -1.70012e-17)
(-0.0547286 -0.0682564 -1.80278e-17)
(-0.055458 -0.0691692 -1.84872e-17)
(-0.0561796 -0.0700722 -1.86057e-17)
(-0.0568933 -0.0709653 -1.86861e-17)
(-0.0575992 -0.0718487 -1.90195e-17)
(-0.0582973 -0.0727224 -1.90643e-17)
(-0.0589877 -0.0735866 -1.88576e-17)
(-0.0596704 -0.0744412 -1.86158e-17)
(-0.0603456 -0.0752864 -1.80578e-17)
(-0.0610132 -0.0761222 -1.7339e-17)
(-0.0616734 -0.0769488 -1.66181e-17)
(-0.0623262 -0.0777661 -1.6196e-17)
(-0.0629716 -0.0785743 -1.60869e-17)
(-0.0636098 -0.0793734 -1.66154e-17)
(-0.0642409 -0.0801636 -1.76555e-17)
(-0.0648647 -0.0809449 -1.91004e-17)
(-0.0654815 -0.0817173 -2.12386e-17)
(-0.0660913 -0.0824811 -2.37833e-17)
(-0.0666942 -0.0832362 -2.73726e-17)
(-0.0672902 -0.0839827 -3.14214e-17)
(-0.0678795 -0.0847208 -3.48285e-17)
(-0.068462 -0.0854505 -3.6096e-17)
(-0.0690381 -0.0861722 -4.13561e-17)
(-0.000124571 -0.000157999 4.42148e-18)
(-0.000127479 -0.000161565 5.11879e-18)
(-0.000130126 -0.000164819 5.50714e-18)
(-0.000131774 -0.000166801 5.70777e-18)
(-0.000131456 -0.000166217 6.04545e-18)
(-0.000128749 -0.000162504 6.65092e-18)
(-0.000124277 -0.000156489 7.53446e-18)
(-0.000120039 -0.000150814 8.79209e-18)
(-0.00011944 -0.000149986 1.05343e-17)
(-0.0001275 -0.000160664 1.24016e-17)
(-0.000152199 -0.000193461 1.41194e-17)
(-0.000208037 -0.000267653 1.6165e-17)
(-0.000321701 -0.000418634 1.81479e-17)
(-0.000535659 -0.000702496 1.90949e-17)
(-0.000899683 -0.00118472 2.05519e-17)
(-0.00144598 -0.00190763 2.1799e-17)
(-0.00216636 -0.00286066 1.91327e-17)
(-0.00301626 -0.00398549 1.41622e-17)
(-0.00394192 -0.00521141 9.01812e-18)
(-0.00490374 -0.006486 5.2167e-18)
(-0.00588112 -0.0077818 2.30778e-18)
(-0.00686605 -0.00908808 3.78964e-19)
(-0.00785623 -0.0104017 -1.05679e-18)
(-0.00885101 -0.0117217 -2.51892e-18)
(-0.00984988 -0.0130474 -3.72062e-18)
(-0.0108521 -0.0143779 -4.29429e-18)
(-0.0118568 -0.0157119 -3.9057e-18)
(-0.0128629 -0.0170481 -2.44389e-18)
(-0.0138694 -0.0183851 -2.70834e-19)
(-0.0148756 -0.0197219 2.04905e-18)
(-0.0158804 -0.0210571 4.33707e-18)
(-0.0168832 -0.0223899 6.51132e-18)
(-0.0178833 -0.0237193 8.73494e-18)
(-0.0188801 -0.0250445 1.07056e-17)
(-0.019873 -0.0263648 1.24316e-17)
(-0.0208615 -0.0276794 1.38578e-17)
(-0.0218451 -0.0289878 1.45277e-17)
(-0.0228235 -0.0302895 1.46785e-17)
(-0.0237964 -0.0315839 1.45905e-17)
(-0.0247633 -0.0328706 1.4448e-17)
(-0.0257241 -0.0341494 1.4133e-17)
(-0.0266784 -0.0354197 1.36351e-17)
(-0.027626 -0.0366813 1.29534e-17)
(-0.0285668 -0.0379339 1.23194e-17)
(-0.0295005 -0.0391773 1.14034e-17)
(-0.030427 -0.0404113 1.01278e-17)
(-0.0313461 -0.0416355 8.99535e-18)
(-0.0322577 -0.04285 8.30628e-18)
(-0.0331618 -0.0440545 7.83205e-18)
(-0.0340581 -0.0452489 7.4035e-18)
(-0.0349466 -0.0464331 7.20173e-18)
(-0.0358273 -0.0476069 6.75551e-18)
(-0.0367001 -0.0487703 6.01435e-18)
(-0.0375649 -0.0499233 5.53464e-18)
(-0.0384217 -0.0510657 4.8818e-18)
(-0.0392705 -0.0521975 3.97961e-18)
(-0.0401112 -0.0533186 3.18323e-18)
(-0.0409438 -0.0544292 1.96411e-18)
(-0.0417683 -0.055529 7.13844e-19)
(-0.0425847 -0.0566181 -1.13151e-19)
(-0.043393 -0.0576966 -9.41366e-19)
(-0.0441932 -0.0587643 -2.01254e-18)
(-0.0449854 -0.0598214 -3.18887e-18)
(-0.0457694 -0.0608678 -4.56859e-18)
(-0.0465455 -0.0619036 -5.772e-18)
(-0.0473135 -0.0629288 -6.77521e-18)
(-0.0480735 -0.0639434 -8.03404e-18)
(-0.0488256 -0.0649475 -9.38847e-18)
(-0.0495697 -0.065941 -1.08146e-17)
(-0.0503059 -0.0669242 -1.21784e-17)
(-0.0510343 -0.0678969 -1.39764e-17)
(-0.0517549 -0.0688593 -1.55887e-17)
(-0.0524677 -0.0698114 -1.69382e-17)
(-0.0531728 -0.0707533 -1.84177e-17)
(-0.0538703 -0.071685 -1.95896e-17)
(-0.0545601 -0.0726066 -2.07123e-17)
(-0.0552424 -0.0735182 -2.19745e-17)
(-0.0559172 -0.0744199 -2.32256e-17)
(-0.0565845 -0.0753116 -2.39608e-17)
(-0.0572445 -0.0761936 -2.45911e-17)
(-0.0578971 -0.0770658 -2.53811e-17)
(-0.0585424 -0.0779283 -2.64022e-17)
(-0.0591805 -0.0787813 -2.75971e-17)
(-0.0598115 -0.0796248 -2.86005e-17)
(-0.0604354 -0.0804589 -2.99392e-17)
(-0.0610523 -0.0812836 -3.20185e-17)
(-0.0616622 -0.0820991 -3.413e-17)
(-0.0622653 -0.0829054 -3.69693e-17)
(-0.0628615 -0.0837026 -4.07954e-17)
(-0.0634509 -0.0844909 -4.47142e-17)
(-0.0640336 -0.0852702 -4.87315e-17)
(-0.0646097 -0.0860407 -5.25764e-17)
(-0.0651793 -0.0868024 -5.58775e-17)
(-0.0657424 -0.0875556 -8.69125e-17)
(-0.0662991 -0.0883004 -9.48752e-17)
(-0.000118256 -0.000159006 4.56953e-18)
(-0.000121054 -0.000162686 5.54418e-18)
(-0.000123838 -0.000166379 6.4243e-18)
(-0.000125965 -0.000169192 7.39043e-18)
(-0.000126464 -0.000169737 8.55652e-18)
(-0.000124705 -0.000167121 9.91791e-18)
(-0.000120888 -0.00016163 1.15115e-17)
(-0.000116455 -0.000155297 1.38307e-17)
(-0.000114199 -0.000152068 1.62882e-17)
(-0.000118326 -0.000157891 1.8756e-17)
(-0.000135237 -0.000181845 2.09179e-17)
(-0.000176126 -0.000239823 2.28478e-17)
(-0.000261937 -0.0003615 2.38689e-17)
(-0.000428403 -0.000597334 2.37908e-17)
(-0.000723146 -0.00101428 2.25159e-17)
(-0.00118637 -0.00166874 2.1211e-17)
(-0.00182482 -0.0025703 1.90172e-17)
(-0.00260529 -0.00367272 1.37541e-17)
(-0.00347565 -0.00490294 6.89854e-18)
(-0.00439151 -0.00619838 -4.81223e-19)
(-0.00532722 -0.00752261 -7.17832e-18)
(-0.00627182 -0.00885997 -1.23321e-17)
(-0.00722183 -0.0102054 -1.58372e-17)
(-0.00817637 -0.0115577 -1.79052e-17)
(-0.009135 -0.0129161 -1.88671e-17)
(-0.0100971 -0.0142798 -1.91855e-17)
(-0.0110618 -0.0156475 -1.87981e-17)
(-0.0120282 -0.0170179 -1.7677e-17)
(-0.0129953 -0.0183897 -1.61257e-17)
(-0.0139623 -0.0197615 -1.44709e-17)
(-0.0149283 -0.0211322 -1.30674e-17)
(-0.0158926 -0.0225008 -1.19674e-17)
(-0.0168544 -0.0238662 -1.08321e-17)
(-0.0178132 -0.0252275 -9.48666e-18)
(-0.0187684 -0.0265841 -8.24656e-18)
(-0.0197196 -0.0279351 -7.18575e-18)
(-0.0206662 -0.0292799 -6.11363e-18)
(-0.0216079 -0.0306179 -4.7993e-18)
(-0.0225443 -0.0319488 -3.36891e-18)
(-0.0234751 -0.0332719 -2.26327e-18)
(-0.0244001 -0.0345868 -1.16854e-18)
(-0.025319 -0.0358933 -3.86178e-19)
(-0.0262314 -0.037191 3.73165e-20)
(-0.0271374 -0.0384795 3.23818e-19)
(-0.0280366 -0.0397587 5.90362e-19)
(-0.0289288 -0.0410282 8.52504e-19)
(-0.0298141 -0.0422879 1.16312e-18)
(-0.0306921 -0.0435376 1.3578e-18)
(-0.0315629 -0.0447771 1.08342e-18)
(-0.0324263 -0.0460063 7.05358e-19)
(-0.0332823 -0.047225 6.40809e-19)
(-0.0341307 -0.0484332 7.32762e-19)
(-0.0349715 -0.0496307 7.00096e-19)
(-0.0358047 -0.0508175 5.41621e-19)
(-0.0366302 -0.0519935 -1.62869e-19)
(-0.0374479 -0.0531586 -8.42148e-19)
(-0.0382579 -0.0543129 -1.35607e-18)
(-0.0390602 -0.0554562 -1.79009e-18)
(-0.0398546 -0.0565885 -2.06303e-18)
(-0.0406413 -0.0577099 -2.50488e-18)
(-0.0414202 -0.0588203 -3.34335e-18)
(-0.0421912 -0.0599198 -4.16186e-18)
(-0.0429546 -0.0610083 -4.6425e-18)
(-0.0437101 -0.0620858 -5.31272e-18)
(-0.0444579 -0.0631524 -5.79318e-18)
(-0.045198 -0.0642081 -6.27873e-18)
(-0.0459304 -0.065253 -7.09093e-18)
(-0.0466551 -0.066287 -7.71725e-18)
(-0.0473722 -0.0673103 -8.14361e-18)
(-0.0480818 -0.0683228 -8.47492e-18)
(-0.0487837 -0.0693246 -8.90654e-18)
(-0.0494781 -0.0703158 -9.41434e-18)
(-0.0501651 -0.0712965 -9.7999e-18)
(-0.0508446 -0.0722666 -9.7299e-18)
(-0.0515168 -0.0732262 -9.31458e-18)
(-0.0521816 -0.0741755 -9.29474e-18)
(-0.0528391 -0.0751145 -9.26281e-18)
(-0.0534894 -0.0760432 -8.93651e-18)
(-0.0541325 -0.0769617 -8.40154e-18)
(-0.0547685 -0.0778702 -7.73109e-18)
(-0.0553975 -0.0787686 -7.03026e-18)
(-0.0560194 -0.0796571 -5.94541e-18)
(-0.0566344 -0.0805358 -5.08506e-18)
(-0.0572425 -0.0814047 -4.50281e-18)
(-0.0578438 -0.0822638 -4.02648e-18)
(-0.0584383 -0.0831134 -3.72064e-18)
(-0.0590261 -0.0839535 -3.96061e-18)
(-0.0596072 -0.0847841 -5.22551e-18)
(-0.0601818 -0.0856054 -7.09504e-18)
(-0.0607499 -0.0864174 -9.57455e-18)
(-0.0613115 -0.0872202 -1.29423e-17)
(-0.0618666 -0.0880139 -1.68835e-17)
(-0.0624155 -0.0887987 -2.12264e-17)
(-0.0629582 -0.0895746 -5.52005e-17)
(-0.0634948 -0.0903419 -6.40275e-17)
(-0.000111971 -0.000160009 -4.08954e-19)
(-0.000114602 -0.000163718 -1.21084e-18)
(-0.000117403 -0.000167717 -2.18103e-18)
(-0.000119837 -0.000171211 -3.03645e-18)
(-0.000120982 -0.000172785 -3.65298e-18)
(-0.00012009 -0.000171307 -4.2363e-18)
(-0.000117034 -0.000166593 -5.00522e-18)
(-0.000112769 -0.000160081 -6.13893e-18)
(-0.000109533 -0.000155148 -7.3285e-18)
(-0.000110864 -0.00015714 -8.22749e-18)
(-0.000122006 -0.000174004 -8.55842e-18)
(-0.000151713 -0.000219026 -8.21357e-18)
(-0.000216299 -0.000316939 -8.03467e-18)
(-0.000345032 -0.000511991 -8.95495e-18)
(-0.000581114 -0.000869219 -9.80658e-18)
(-0.000968561 -0.00145467 -7.40977e-18)
(-0.00152668 -0.00229738 -2.78377e-18)
(-0.00223513 -0.00336718 5.47479e-19)
(-0.00304654 -0.00459319 3.0742e-18)
(-0.00391362 -0.00590426 4.28285e-18)
(-0.00480578 -0.0072541 4.85226e-18)
(-0.00570869 -0.00862087 4.9053e-18)
(-0.00661737 -0.00999689 4.81638e-18)
(-0.00753051 -0.0113801 4.70527e-18)
(-0.00844767 -0.0127699 4.76097e-18)
(-0.00936834 -0.0141653 4.89771e-18)
(-0.0102918 -0.0155654 5.3398e-18)
(-0.0112171 -0.0169686 5.97726e-18)
(-0.0121434 -0.0183737 6.48862e-18)
(-0.0130698 -0.0197793 6.62178e-18)
(-0.0139955 -0.0211842 6.43095e-18)
(-0.0149197 -0.0225872 6.17318e-18)
(-0.0158418 -0.0239872 5.74521e-18)
(-0.0167612 -0.0253834 5.02282e-18)
(-0.0176772 -0.0267749 4.0819e-18)
(-0.0185895 -0.0281609 3.05179e-18)
(-0.0194976 -0.0295409 2.48643e-18)
(-0.0204011 -0.0309141 2.06148e-18)
(-0.0212996 -0.03228 1.46418e-18)
(-0.0221928 -0.0336382 9.2532e-19)
(-0.0230805 -0.0349882 5.30458e-19)
(-0.0239623 -0.0363297 1.47994e-19)
(-0.0248382 -0.0376622 -1.18261e-19)
(-0.0257078 -0.0389854 -1.21985e-19)
(-0.0265709 -0.0402991 -1.97608e-20)
(-0.0274275 -0.041603 -1.95151e-20)
(-0.0282774 -0.042897 -4.17918e-20)
(-0.0291205 -0.0441807 -3.34314e-19)
(-0.0299565 -0.045454 -7.01551e-19)
(-0.0307856 -0.0467169 -8.76922e-19)
(-0.0316075 -0.047969 -8.64243e-19)
(-0.0324222 -0.0492104 -1.3269e-18)
(-0.0332296 -0.0504409 -1.50302e-18)
(-0.0340297 -0.0516604 -1.38218e-18)
(-0.0348225 -0.0528688 -1.64854e-18)
(-0.0356078 -0.0540662 -2.06167e-18)
(-0.0363858 -0.0552524 -2.45791e-18)
(-0.0371563 -0.0564274 -2.39078e-18)
(-0.0379193 -0.0575912 -2.60317e-18)
(-0.0386748 -0.0587438 -3.16178e-18)
(-0.0394229 -0.0598852 -3.27473e-18)
(-0.0401636 -0.0610153 -3.5396e-18)
(-0.0408967 -0.0621341 -3.76118e-18)
(-0.0416225 -0.0632418 -3.83873e-18)
(-0.0423408 -0.0643382 -4.37932e-18)
(-0.0430517 -0.0654235 -4.95279e-18)
(-0.0437552 -0.0664976 -5.47576e-18)
(-0.0444513 -0.0675606 -5.81746e-18)
(-0.0451401 -0.0686126 -5.84107e-18)
(-0.0458217 -0.0696535 -5.77439e-18)
(-0.046496 -0.0706835 -5.2939e-18)
(-0.047163 -0.0717026 -4.71618e-18)
(-0.0478229 -0.0727108 -4.42746e-18)
(-0.0484757 -0.0737082 -4.00922e-18)
(-0.0491214 -0.0746949 -3.21417e-18)
(-0.04976 -0.0756709 -2.13074e-18)
(-0.0503916 -0.0766363 -1.23328e-18)
(-0.0510163 -0.0775913 -5.09474e-19)
(-0.0516341 -0.0785357 6.53952e-19)
(-0.0522451 -0.0794698 1.76905e-18)
(-0.0528493 -0.0803937 3.42215e-18)
(-0.0534467 -0.0813073 5.32159e-18)
(-0.0540375 -0.0822107 6.93103e-18)
(-0.0546216 -0.0831042 8.56174e-18)
(-0.0551992 -0.0839877 1.01653e-17)
(-0.0557703 -0.0848613 1.13843e-17)
(-0.056335 -0.0857251 1.19767e-17)
(-0.0568933 -0.0865793 1.17595e-17)
(-0.0574452 -0.0874238 1.07723e-17)
(-0.0579909 -0.0882588 9.13296e-18)
(-0.0585303 -0.0890843 6.47026e-18)
(-0.0590637 -0.0899005 3.01046e-18)
(-0.0595909 -0.0907075 -9.92203e-19)
(-0.0601122 -0.0915054 -2.01187e-17)
(-0.0606276 -0.0922944 -2.78714e-17)
(-0.000105726 -0.000161012 -1.71554e-18)
(-0.000108156 -0.000164687 -2.46236e-18)
(-0.000110886 -0.00016888 -3.43927e-18)
(-0.000113486 -0.00017291 -4.62099e-18)
(-0.000115111 -0.00017539 -5.90711e-18)
(-0.000114966 -0.00017503 -7.15091e-18)