/*--------------------------------*- C++ -*----------------------------------*\
  =========                 |
  \\      /  F ield         | OpenFOAM: The Open Source CFD Toolbox
   \\    /   O peration     | Website:  https://openfoam.org
    \\  /    A nd           | Version:  7
     \\/     M anipulation  |
\*---------------------------------------------------------------------------*/
FoamFile
{
    version     2.0;
    format      ascii;
    class       volScalarField;
    location    "120000";
    object      nu;
}
// * * * * * * * * * * * * * * * * * * * * * * * * * * * * * * * * * * * * * //

dimensions      [0 2 -1 0 0 0 0];

internalField   nonuniform List<scalar> 
4764
(
4.2376e-06
4.24863e-06
4.25864e-06
4.2676e-06
4.2755e-06
4.28231e-06
4.04666e-06
4.06486e-06
4.08239e-06
4.09923e-06
4.11533e-06
4.13064e-06
4.14513e-06
4.15876e-06
4.17147e-06
4.18326e-06
4.19409e-06
4.20391e-06
4.21271e-06
4.22046e-06
4.22714e-06
4.23274e-06
4.23724e-06
4.24062e-06
4.24288e-06
4.24401e-06
4.24401e-06
4.24288e-06
4.24062e-06
4.23724e-06
4.23274e-06
4.22714e-06
4.22046e-06
4.21271e-06
4.20391e-06
3.9952e-06
4.0132e-06
4.03052e-06
4.04709e-06
4.0629e-06
4.07793e-06
4.09216e-06
4.10553e-06
4.11802e-06
4.12959e-06
4.14021e-06
4.14985e-06
4.15848e-06
4.16609e-06
4.17265e-06
4.17814e-06
4.18256e-06
4.18588e-06
4.1881e-06
4.18921e-06
4.18921e-06
4.1881e-06
4.18588e-06
4.18256e-06
4.17814e-06
4.17265e-06
4.16609e-06
4.15848e-06
4.14985e-06
4.14021e-06
4.12959e-06
4.11802e-06
4.10553e-06
3.94375e-06
3.9617e-06
3.97897e-06
3.99537e-06
4.011e-06
4.02584e-06
4.03981e-06
4.05295e-06
4.0652e-06
4.07656e-06
4.08699e-06
4.09645e-06
4.10492e-06
4.11238e-06
4.11882e-06
4.12422e-06
4.12855e-06
4.1318e-06
4.13398e-06
4.13507e-06
4.13507e-06
4.13398e-06
4.1318e-06
4.12855e-06
4.12422e-06
4.11882e-06
4.11238e-06
4.10492e-06
4.09645e-06
4.08699e-06
4.07656e-06
4.0652e-06
4.05295e-06
4.03981e-06
4.02584e-06
4.011e-06
3.99537e-06
3.97897e-06
3.9617e-06
3.94375e-06
3.92508e-06
3.9058e-06
3.88596e-06
3.86551e-06
3.84274e-06
3.89243e-06
3.91026e-06
3.92741e-06
3.94376e-06
3.95933e-06
3.97409e-06
3.98791e-06
4.00089e-06
4.01299e-06
4.02416e-06
4.03439e-06
4.04368e-06
4.052e-06
4.05933e-06
4.06565e-06
4.07094e-06
4.07519e-06
4.07839e-06
4.08052e-06
4.08159e-06
4.08159e-06
4.08052e-06
4.07839e-06
4.07519e-06
4.07094e-06
4.06565e-06
4.05933e-06
4.052e-06
4.04368e-06
4.03439e-06
4.02416e-06
4.01299e-06
4.00089e-06
3.98791e-06
3.97409e-06
3.95933e-06
3.94376e-06
3.92741e-06
3.91026e-06
3.89243e-06
3.874e-06
3.85499e-06
3.83548e-06
3.81543e-06
3.79338e-06
3.84156e-06
3.85911e-06
3.87601e-06
3.89223e-06
3.90769e-06
3.92235e-06
3.93612e-06
3.94905e-06
3.9611e-06
3.97215e-06
3.98226e-06
3.99144e-06
3.99965e-06
4.00688e-06
4.01309e-06
4.01829e-06
4.02246e-06
4.0256e-06
4.02769e-06
4.02874e-06
4.02874e-06
4.02769e-06
4.0256e-06
4.02246e-06
4.01829e-06
4.01309e-06
4.00688e-06
3.99965e-06
3.99144e-06
3.98226e-06
3.97215e-06
3.9611e-06
3.94905e-06
3.93612e-06
3.92235e-06
3.90769e-06
3.89223e-06
3.87601e-06
3.85911e-06
3.84156e-06
3.82344e-06
3.80479e-06
3.78565e-06
3.76605e-06
3.74466e-06
3.7913e-06
3.80852e-06
3.82511e-06
3.84106e-06
3.85629e-06
3.87075e-06
3.88441e-06
3.89724e-06
3.90919e-06
3.9202e-06
3.93026e-06
3.9394e-06
3.94758e-06
3.95477e-06
3.96091e-06
3.96604e-06
3.97016e-06
3.97326e-06
3.97533e-06
3.97636e-06
3.97636e-06
3.97533e-06
3.97326e-06
3.97016e-06
3.96604e-06
3.96091e-06
3.95477e-06
3.94758e-06
3.9394e-06
3.93027e-06
3.9202e-06
3.90919e-06
3.89724e-06
3.88441e-06
3.87075e-06
3.85629e-06
3.84106e-06
3.82511e-06
3.80852e-06
3.7913e-06
3.77354e-06
3.75527e-06
3.73653e-06
3.71737e-06
3.69657e-06
3.74172e-06
3.75858e-06
3.77483e-06
3.79047e-06
3.80541e-06
3.8196e-06
3.83305e-06
3.84568e-06
3.85745e-06
3.86835e-06
3.87834e-06
3.8874e-06
3.89551e-06
3.90264e-06
3.90875e-06
3.91385e-06
3.91795e-06
3.92103e-06
3.92309e-06
3.92412e-06
3.92412e-06
3.92309e-06
3.92103e-06
3.91795e-06
3.91385e-06
3.90875e-06
3.90264e-06
3.89551e-06
3.8874e-06
3.87834e-06
3.86835e-06
3.85745e-06
3.84568e-06
3.83305e-06
3.8196e-06
3.80541e-06
3.79047e-06
3.77484e-06
3.75858e-06
3.74172e-06
3.72433e-06
3.70644e-06
3.6881e-06
3.66937e-06
3.6491e-06
3.69283e-06
3.70933e-06
3.72525e-06
3.74055e-06
3.75517e-06
3.76908e-06
3.78226e-06
3.79464e-06
3.80619e-06
3.81691e-06
3.82674e-06
3.83565e-06
3.84364e-06
3.85066e-06
3.85671e-06
3.86177e-06
3.86583e-06
3.86889e-06
3.87093e-06
3.87195e-06
3.87195e-06
3.87093e-06
3.86889e-06
3.86583e-06
3.86177e-06
3.85671e-06
3.85066e-06
3.84364e-06
3.83565e-06
3.82674e-06
3.81691e-06
3.80619e-06
3.79464e-06
3.78226e-06
3.76908e-06
3.75517e-06
3.74055e-06
3.72525e-06
3.70933e-06
3.69283e-06
3.6758e-06
3.65829e-06
3.64034e-06
3.62203e-06
3.60225e-06
3.64461e-06
3.66076e-06
3.67634e-06
3.69131e-06
3.70563e-06
3.71924e-06
3.73214e-06
3.74426e-06
3.75557e-06
3.76607e-06
3.77571e-06
3.78445e-06
3.79227e-06
3.79916e-06
3.80511e-06
3.81009e-06
3.81409e-06
3.81709e-06
3.8191e-06
3.8201e-06
3.8201e-06
3.8191e-06
3.81709e-06
3.81409e-06
3.81009e-06
3.80511e-06
3.79916e-06
3.79227e-06
3.78445e-06
3.77571e-06
3.76607e-06
3.75557e-06
3.74426e-06
3.73214e-06
3.71924e-06
3.70563e-06
3.69131e-06
3.67634e-06
3.66076e-06
3.64461e-06
3.62794e-06
3.6108e-06
3.59322e-06
3.5753e-06
3.55597e-06
3.59705e-06
3.61286e-06
3.62811e-06
3.64276e-06
3.65676e-06
3.67009e-06
3.6827e-06
3.69456e-06
3.70563e-06
3.7159e-06
3.72533e-06
3.73389e-06
3.74155e-06
3.7483e-06
3.75413e-06
3.759e-06
3.76292e-06
3.76587e-06
3.76784e-06
3.76882e-06
3.76882e-06
3.76784e-06
3.76587e-06
3.76292e-06
3.75901e-06
3.75413e-06
3.7483e-06
3.74155e-06
3.73389e-06
3.72533e-06
3.7159e-06
3.70563e-06
3.69456e-06
3.6827e-06
3.67009e-06
3.65676e-06
3.64276e-06
3.62811e-06
3.61286e-06
3.59705e-06
3.58072e-06
3.56393e-06
3.54672e-06
3.52917e-06
3.51027e-06
3.5501e-06
3.56559e-06
3.58052e-06
3.59486e-06
3.60857e-06
3.6216e-06
3.63394e-06
3.64555e-06
3.65638e-06
3.66643e-06
3.67565e-06
3.68402e-06
3.69152e-06
3.69812e-06
3.70382e-06
3.70859e-06
3.71243e-06
3.71531e-06
3.71724e-06
3.7182e-06
3.7182e-06
3.71724e-06
3.71531e-06
3.71243e-06
3.7086e-06
3.70382e-06
3.69812e-06
3.69152e-06
3.68402e-06
3.67565e-06
3.66643e-06
3.65638e-06
3.64555e-06
3.63394e-06
3.6216e-06
3.60857e-06
3.59486e-06
3.58052e-06
3.56559e-06
3.5501e-06
3.53411e-06
3.51766e-06
3.5008e-06
3.4836e-06
3.46511e-06
3.50375e-06
3.51892e-06
3.53354e-06
3.54758e-06
3.561e-06
3.57377e-06
3.58584e-06
3.5972e-06
3.6078e-06
3.61763e-06
3.62665e-06
3.63484e-06
3.64217e-06
3.64863e-06
3.65421e-06
3.65888e-06
3.66263e-06
3.66545e-06
3.66733e-06
3.66828e-06
3.66828e-06
3.66733e-06
3.66545e-06
3.66263e-06
3.65888e-06
3.65421e-06
3.64863e-06
3.64217e-06
3.63484e-06
3.62665e-06
3.61763e-06
3.6078e-06
3.5972e-06
3.58584e-06
3.57377e-06
3.561e-06
3.54758e-06
3.53354e-06
3.51892e-06
3.50375e-06
3.48808e-06
3.47196e-06
3.45543e-06
3.43858e-06
3.42047e-06
3.44261e-06
3.45797e-06
3.47283e-06
3.48716e-06
3.50091e-06
3.51405e-06
3.52655e-06
3.53837e-06
3.54948e-06
3.55986e-06
3.56948e-06
3.5783e-06
3.58632e-06
3.59349e-06
3.59981e-06
3.60527e-06
3.60983e-06
3.6135e-06
3.61626e-06
3.61811e-06
3.61903e-06
3.61903e-06
3.61811e-06
3.61626e-06
3.6135e-06
3.60983e-06
3.60527e-06
3.59981e-06
3.59349e-06
3.58632e-06
3.5783e-06
3.56948e-06
3.55986e-06
3.54948e-06
3.53837e-06
3.52655e-06
3.51405e-06
3.50091e-06
3.48716e-06
3.47283e-06
3.45797e-06
3.44261e-06
3.4268e-06
3.4106e-06
3.39408e-06
3.37635e-06
3.39767e-06
3.41272e-06
3.42729e-06
3.44133e-06
3.4548e-06
3.46768e-06
3.47991e-06
3.49149e-06
3.50237e-06
3.51253e-06
3.52195e-06
3.53059e-06
3.53843e-06
3.54545e-06
3.55164e-06
3.55698e-06
3.56145e-06
3.56504e-06
3.56774e-06
3.56954e-06
3.57044e-06
3.57044e-06
3.56954e-06
3.56774e-06
3.56504e-06
3.56145e-06
3.55698e-06
3.55164e-06
3.54545e-06
3.53843e-06
3.53059e-06
3.52195e-06
3.51253e-06
3.50237e-06
3.49149e-06
3.47991e-06
3.46768e-06
3.4548e-06
3.44133e-06
3.42729e-06
3.41272e-06
3.39767e-06
3.38217e-06
3.36629e-06
3.35008e-06
3.33271e-06
3.35324e-06
3.368e-06
3.38228e-06
3.39604e-06
3.40924e-06
3.42186e-06
3.43385e-06
3.44519e-06
3.45585e-06
3.4658e-06
3.47501e-06
3.48348e-06
3.49115e-06
3.49803e-06
3.50409e-06
3.50931e-06
3.51368e-06
3.5172e-06
3.51984e-06
3.5216e-06
3.52249e-06
3.52249e-06
3.5216e-06
3.51984e-06
3.5172e-06
3.51368e-06
3.50931e-06
3.50409e-06
3.49803e-06
3.49115e-06
3.48348e-06
3.47501e-06
3.4658e-06
3.45585e-06
3.44519e-06
3.43385e-06
3.42186e-06
3.40924e-06
3.39604e-06
3.38228e-06
3.368e-06
3.35324e-06
3.33804e-06
3.32246e-06
3.30656e-06
3.28955e-06
3.2944e-06
3.3093e-06
3.32378e-06
3.33778e-06
3.35127e-06
3.36421e-06
3.37657e-06
3.38832e-06
3.39943e-06
3.40987e-06
3.41962e-06
3.42865e-06
3.43693e-06
3.44445e-06
3.45119e-06
3.45712e-06
3.46223e-06
3.46651e-06
3.46995e-06
3.47254e-06
3.47427e-06
3.47513e-06
3.47513e-06
3.47427e-06
3.47254e-06
3.46995e-06
3.46651e-06
3.46223e-06
3.45712e-06
3.45119e-06
3.44445e-06
3.43694e-06
3.42865e-06
3.41962e-06
3.40987e-06
3.39943e-06
3.38832e-06
3.37657e-06
3.36421e-06
3.35127e-06
3.33778e-06
3.32378e-06
3.3093e-06
3.2944e-06
3.27911e-06
3.26351e-06
3.24684e-06
3.25122e-06
3.26584e-06
3.28004e-06
3.29377e-06
3.30699e-06
3.31968e-06
3.33179e-06
3.34331e-06
3.3542e-06
3.36443e-06
3.37398e-06
3.38283e-06
3.39094e-06
3.39831e-06
3.40491e-06
3.41071e-06
3.41572e-06
3.41992e-06
3.42328e-06
3.42582e-06
3.42751e-06
3.42836e-06
3.42836e-06
3.42751e-06
3.42582e-06
3.42328e-06
3.41992e-06
3.41572e-06
3.41072e-06
3.40491e-06
3.39831e-06
3.39094e-06
3.38283e-06
3.37398e-06
3.36443e-06
3.3542e-06
3.34331e-06
3.33179e-06
3.31968e-06
3.30699e-06
3.29377e-06
3.28004e-06
3.26584e-06
3.25122e-06
3.23623e-06
3.22091e-06
3.20458e-06
3.19379e-06
3.2085e-06
3.22284e-06
3.23676e-06
3.25023e-06
3.26319e-06
3.27563e-06
3.28751e-06
3.2988e-06
3.30947e-06
3.3195e-06
3.32886e-06
3.33752e-06
3.34548e-06
3.3527e-06
3.35916e-06
3.36485e-06
3.36976e-06
3.37386e-06
3.37716e-06
3.37964e-06
3.3813e-06
3.38213e-06
3.38213e-06
3.3813e-06
3.37964e-06
3.37716e-06
3.37386e-06
3.36976e-06
3.36485e-06
3.35916e-06
3.3527e-06
3.34548e-06
3.33752e-06
3.32886e-06
3.3195e-06
3.30947e-06
3.2988e-06
3.28751e-06
3.27563e-06
3.26319e-06
3.25023e-06
3.23676e-06
3.22284e-06
3.2085e-06
3.19379e-06
3.17876e-06
3.16275e-06
3.15178e-06
3.16621e-06
3.18028e-06
3.19394e-06
3.20714e-06
3.21986e-06
3.23205e-06
3.2437e-06
3.25476e-06
3.26522e-06
3.27505e-06
3.28423e-06
3.29272e-06
3.30052e-06
3.30759e-06
3.31392e-06
3.3195e-06
3.32431e-06
3.32833e-06
3.33156e-06
3.33399e-06
3.33562e-06
3.33643e-06
3.33643e-06
3.33562e-06
3.33399e-06
3.33156e-06
3.32833e-06
3.32431e-06
3.3195e-06
3.31392e-06
3.30759e-06
3.30052e-06
3.29272e-06
3.28423e-06
3.27505e-06
3.26522e-06
3.25476e-06
3.2437e-06
3.23205e-06
3.21986e-06
3.20714e-06
3.19394e-06
3.18028e-06
3.16621e-06
3.15178e-06
3.13703e-06
3.12134e-06
3.11019e-06
3.12435e-06
3.13816e-06
3.15155e-06
3.1645e-06
3.17697e-06
3.18893e-06
3.20035e-06
3.21119e-06
3.22145e-06
3.23108e-06
3.24008e-06
3.2484e-06
3.25604e-06
3.26298e-06
3.26918e-06
3.27465e-06
3.27936e-06
3.2833e-06
3.28647e-06
3.28885e-06
3.29044e-06
3.29124e-06
3.29124e-06
3.29044e-06
3.28885e-06
3.28647e-06
3.2833e-06
3.27936e-06
3.27465e-06
3.26918e-06
3.26298e-06
3.25604e-06
3.2484e-06
3.24008e-06
3.23108e-06
3.22145e-06
3.21119e-06
3.20035e-06
3.18893e-06
3.17697e-06
3.1645e-06
3.15155e-06
3.13815e-06
3.12435e-06
3.11019e-06
3.09571e-06
3.08034e-06
3.06901e-06
3.08291e-06
3.09645e-06
3.10959e-06
3.12229e-06
3.13452e-06
3.14624e-06
3.15744e-06
3.16807e-06
3.17813e-06
3.18757e-06
3.19639e-06
3.20455e-06
3.21204e-06
3.21883e-06
3.22492e-06
3.23027e-06
3.23489e-06
3.23875e-06
3.24186e-06
3.24419e-06
3.24575e-06
3.24653e-06
3.24653e-06
3.24575e-06
3.24419e-06
3.24186e-06
3.23875e-06
3.23489e-06
3.23027e-06
3.22492e-06
3.21883e-06
3.21204e-06
3.20455e-06
3.19639e-06
3.18757e-06
3.17813e-06
3.16807e-06
3.15744e-06
3.14624e-06
3.13452e-06
3.12229e-06
3.10959e-06
3.09645e-06
3.08291e-06
3.06901e-06
3.05481e-06
3.03973e-06
3.02823e-06
3.04187e-06
3.05515e-06
3.06804e-06
3.08049e-06
3.09249e-06
3.10398e-06
3.11496e-06
3.12539e-06
3.13524e-06
3.1445e-06
3.15315e-06
3.16115e-06
3.16849e-06
3.17515e-06
3.18111e-06
3.18636e-06
3.19089e-06
3.19467e-06
3.19772e-06
3.2e-06
3.20153e-06
3.2023e-06
3.2023e-06
3.20153e-06
3.2e-06
3.19772e-06
3.19467e-06
3.19089e-06
3.18636e-06
3.18111e-06
3.17515e-06
3.16849e-06
3.16115e-06
3.15315e-06
3.1445e-06
3.13524e-06
3.12539e-06
3.11496e-06
3.10398e-06
3.09249e-06
3.08049e-06
3.06804e-06
3.05515e-06
3.04187e-06
3.02823e-06
3.01429e-06
2.99952e-06
2.97416e-06
2.98784e-06
3.00122e-06
3.01425e-06
3.02689e-06
3.0391e-06
3.05086e-06
3.06214e-06
3.0729e-06
3.08312e-06
3.09279e-06
3.10187e-06
3.11034e-06
3.11818e-06
3.12538e-06
3.13191e-06
3.13775e-06
3.1429e-06
3.14733e-06
3.15105e-06
3.15403e-06
3.15627e-06
3.15777e-06
3.15852e-06
3.15852e-06
3.15777e-06
3.15627e-06
3.15403e-06
3.15105e-06
3.14733e-06
3.1429e-06
3.13775e-06
3.13191e-06
3.12538e-06
3.11818e-06
3.11034e-06
3.10187e-06
3.09279e-06
3.08312e-06
3.0729e-06
3.06214e-06
3.05086e-06
3.0391e-06
3.02689e-06
3.01425e-06
3.00122e-06
2.98784e-06
2.97416e-06
2.95969e-06
2.92022e-06
2.93441e-06
2.94783e-06
2.96095e-06
2.97373e-06
2.98613e-06
2.99811e-06
3.00964e-06
3.0207e-06
3.03125e-06
3.04127e-06
3.05074e-06
3.05965e-06
3.06795e-06
3.07564e-06
3.0827e-06
3.0891e-06
3.09482e-06
3.09987e-06
3.10422e-06
3.10785e-06
3.11078e-06
3.11297e-06
3.11444e-06
3.11518e-06
3.11518e-06
3.11444e-06
3.11297e-06
3.11078e-06
3.10786e-06
3.10422e-06
3.09987e-06
3.09483e-06
3.0891e-06
3.0827e-06
3.07564e-06
3.06795e-06
3.05965e-06
3.05074e-06
3.04127e-06
3.03125e-06
3.0207e-06
3.00964e-06
2.99811e-06
2.98613e-06
2.97373e-06
2.96095e-06
2.94783e-06
2.93441e-06
2.92022e-06
2.88112e-06
2.89503e-06
2.90819e-06
2.92107e-06
2.9336e-06
2.94576e-06
2.9575e-06
2.96881e-06
2.97965e-06
2.98999e-06
2.99982e-06
3.00911e-06
3.01783e-06
3.02597e-06
3.03351e-06
3.04043e-06
3.0467e-06
3.05232e-06
3.05726e-06
3.06152e-06
3.06509e-06
3.06795e-06
3.07011e-06
3.07155e-06
3.07227e-06
3.07227e-06
3.07155e-06
3.07011e-06
3.06795e-06
3.06509e-06
3.06152e-06
3.05726e-06
3.05232e-06
3.0467e-06
3.04043e-06
3.03351e-06
3.02597e-06
3.01783e-06
3.00911e-06
2.99982e-06
2.98999e-06
2.97965e-06
2.96881e-06
2.9575e-06
2.94575e-06
2.9336e-06
2.92106e-06
2.90819e-06
2.89502e-06
2.88112e-06
2.84237e-06
2.856e-06
2.86892e-06
2.88154e-06
2.89383e-06
2.90575e-06
2.91727e-06
2.92836e-06
2.93898e-06
2.94912e-06
2.95876e-06
2.96786e-06
2.97641e-06
2.9844e-06
2.99179e-06
2.99856e-06
3.00471e-06
3.01022e-06
3.01506e-06
3.01924e-06
3.02273e-06
3.02554e-06
3.02765e-06
3.02906e-06
3.02977e-06
3.02977e-06
3.02906e-06
3.02765e-06
3.02554e-06
3.02273e-06
3.01924e-06
3.01506e-06
3.01022e-06
3.00471e-06
2.99856e-06
2.99179e-06
2.9844e-06
2.97641e-06
2.96786e-06
2.95876e-06
2.94912e-06
2.93898e-06
2.92835e-06
2.91727e-06
2.90575e-06
2.89383e-06
2.88154e-06
2.86892e-06
2.856e-06
2.84237e-06
2.80397e-06
2.81733e-06
2.83e-06
2.84238e-06
2.85443e-06
2.86612e-06
2.87741e-06
2.88827e-06
2.89869e-06
2.90863e-06
2.91807e-06
2.927e-06
2.93538e-06
2.94321e-06
2.95045e-06
2.95709e-06
2.96312e-06
2.96851e-06
2.97326e-06
2.97736e-06
2.98078e-06
2.98353e-06
2.9856e-06
2.98698e-06
2.98768e-06
2.98768e-06
2.98698e-06
2.9856e-06
2.98353e-06
2.98078e-06
2.97736e-06
2.97326e-06
2.96851e-06
2.96312e-06
2.95709e-06
2.95045e-06
2.94321e-06
2.93538e-06
2.927e-06
2.91807e-06
2.90863e-06
2.89869e-06
2.88827e-06
2.87741e-06
2.86611e-06
2.85443e-06
2.84238e-06
2.82999e-06
2.81732e-06
2.80397e-06
2.76591e-06
2.779e-06
2.79142e-06
2.80356e-06
2.81538e-06
2.82683e-06
2.8379e-06
2.84855e-06
2.85876e-06
2.86851e-06
2.87776e-06
2.88651e-06
2.89473e-06
2.9024e-06
2.9095e-06
2.91601e-06
2.92191e-06
2.9272e-06
2.93185e-06
2.93586e-06
2.93922e-06
2.94192e-06
2.94395e-06
2.9453e-06
2.94598e-06
2.94598e-06
2.9453e-06
2.94395e-06
2.94192e-06
2.93922e-06
2.93587e-06
2.93185e-06
2.9272e-06
2.92191e-06
2.91601e-06
2.9095e-06
2.9024e-06
2.89473e-06
2.88651e-06
2.87776e-06
2.86851e-06
2.85876e-06
2.84855e-06
2.8379e-06
2.82683e-06
2.81538e-06
2.80356e-06
2.79142e-06
2.77899e-06
2.76591e-06
2.72819e-06
2.741e-06
2.75319e-06
2.76509e-06
2.77667e-06
2.7879e-06
2.79875e-06
2.80919e-06
2.8192e-06
2.82875e-06
2.83782e-06
2.84639e-06
2.85444e-06
2.86196e-06
2.86891e-06
2.87529e-06
2.88108e-06
2.88626e-06
2.89082e-06
2.89475e-06
2.89804e-06
2.90069e-06
2.90267e-06
2.904e-06
2.90466e-06
2.90466e-06
2.904e-06
2.90267e-06
2.90069e-06
2.89804e-06
2.89475e-06
2.89082e-06
2.88626e-06
2.88108e-06
2.87529e-06
2.86891e-06
2.86196e-06
2.85444e-06
2.84639e-06
2.83782e-06
2.82875e-06
2.8192e-06
2.80919e-06
2.79875e-06
2.7879e-06
2.77667e-06
2.76509e-06
2.75319e-06
2.741e-06
2.72819e-06
2.69079e-06
2.70334e-06
2.71529e-06
2.72695e-06
2.73831e-06
2.74931e-06
2.75994e-06
2.77017e-06
2.77998e-06
2.78933e-06
2.79822e-06
2.80662e-06
2.81451e-06
2.82188e-06
2.82869e-06
2.83495e-06
2.84062e-06
2.84569e-06
2.85016e-06
2.85401e-06
2.85724e-06
2.85983e-06
2.86177e-06
2.86307e-06
2.86372e-06
2.86372e-06
2.86307e-06
2.86177e-06
2.85983e-06
2.85724e-06
2.85401e-06
2.85016e-06
2.84569e-06
2.84062e-06
2.83495e-06
2.8287e-06
2.82188e-06
2.81451e-06
2.80662e-06
2.79822e-06
2.78933e-06
2.77998e-06
2.77017e-06
2.75994e-06
2.74931e-06
2.7383e-06
2.72695e-06
2.71529e-06
2.70334e-06
2.69079e-06
2.65371e-06
2.666e-06
2.67771e-06
2.68915e-06
2.70027e-06
2.71105e-06
2.72147e-06
2.73149e-06
2.7411e-06
2.75027e-06
2.75898e-06
2.76721e-06
2.77494e-06
2.78215e-06
2.78883e-06
2.79496e-06
2.80051e-06
2.80549e-06
2.80987e-06
2.81364e-06
2.8168e-06
2.81933e-06
2.82124e-06
2.82251e-06
2.82315e-06
2.82315e-06
2.82251e-06
2.82124e-06
2.81933e-06
2.8168e-06
2.81364e-06
2.80987e-06
2.80549e-06
2.80051e-06
2.79496e-06
2.78883e-06
2.78215e-06
2.77494e-06
2.76721e-06
2.75898e-06
2.75027e-06
2.7411e-06
2.73149e-06
2.72147e-06
2.71105e-06
2.70027e-06
2.68915e-06
2.67771e-06
2.666e-06
2.65371e-06
2.61695e-06
2.62898e-06
2.64046e-06
2.65166e-06
2.66256e-06
2.67313e-06
2.68333e-06
2.69315e-06
2.70256e-06
2.71154e-06
2.72007e-06
2.72813e-06
2.73571e-06
2.74278e-06
2.74932e-06
2.75532e-06
2.76076e-06
2.76563e-06
2.76992e-06
2.77362e-06
2.77671e-06
2.77919e-06
2.78106e-06
2.78231e-06
2.78293e-06
2.78293e-06
2.78231e-06
2.78106e-06
2.77919e-06
2.77671e-06
2.77362e-06
2.76992e-06
2.76563e-06
2.76076e-06
2.75532e-06
2.74932e-06
2.74278e-06
2.73571e-06
2.72813e-06
2.72007e-06
2.71154e-06
2.70256e-06
2.69315e-06
2.68333e-06
2.67313e-06
2.66256e-06
2.65166e-06
2.64046e-06
2.62898e-06
2.61694e-06
2.58049e-06
2.59228e-06
2.60352e-06
2.6145e-06
2.62517e-06
2.63552e-06
2.64551e-06
2.65513e-06
2.66435e-06
2.67314e-06
2.6815e-06
2.6894e-06
2.69681e-06
2.70374e-06
2.71014e-06
2.71602e-06
2.72135e-06
2.72612e-06
2.73032e-06
2.73394e-06
2.73697e-06
2.7394e-06
2.74123e-06
2.74245e-06
2.74307e-06
2.74307e-06
2.74245e-06
2.74123e-06
2.7394e-06
2.73697e-06
2.73394e-06
2.73032e-06
2.72612e-06
2.72135e-06
2.71602e-06
2.71014e-06
2.70374e-06
2.69681e-06
2.6894e-06
2.6815e-06
2.67314e-06
2.66435e-06
2.65513e-06
2.64551e-06
2.63552e-06
2.62517e-06
2.61449e-06
2.60352e-06
2.59228e-06
2.58049e-06
2.54434e-06
2.55588e-06
2.56689e-06
2.57764e-06
2.58809e-06
2.59823e-06
2.60801e-06
2.61743e-06
2.62646e-06
2.63507e-06
2.64325e-06
2.65099e-06
2.65825e-06
2.66503e-06
2.6713e-06
2.67706e-06
2.68228e-06
2.68695e-06
2.69106e-06
2.69461e-06
2.69757e-06
2.69995e-06
2.70174e-06
2.70294e-06
2.70354e-06
2.70354e-06
2.70294e-06
2.70174e-06
2.69995e-06
2.69757e-06
2.69461e-06
2.69106e-06
2.68695e-06
2.68228e-06
2.67706e-06
2.6713e-06
2.66503e-06
2.65825e-06
2.65099e-06
2.64325e-06
2.63507e-06
2.62646e-06
2.61743e-06
2.60801e-06
2.59823e-06
2.58809e-06
2.57764e-06
2.56689e-06
2.55588e-06
2.54434e-06
2.50849e-06
2.51978e-06
2.53056e-06
2.54109e-06
2.55132e-06
2.56124e-06
2.57083e-06
2.58005e-06
2.58888e-06
2.59732e-06
2.60533e-06
2.6129e-06
2.62001e-06
2.62665e-06
2.63279e-06
2.63842e-06
2.64353e-06
2.64811e-06
2.65213e-06
2.6556e-06
2.65851e-06
2.66084e-06
2.66259e-06
2.66376e-06
2.66435e-06
2.66435e-06
2.66376e-06
2.66259e-06
2.66084e-06
2.65851e-06
2.6556e-06
2.65213e-06
2.64811e-06
2.64353e-06
2.63842e-06
2.63279e-06
2.62665e-06
2.62001e-06
2.6129e-06
2.60533e-06
2.59732e-06
2.58888e-06
2.58005e-06
2.57083e-06
2.56124e-06
2.55132e-06
2.54109e-06
2.53056e-06
2.51978e-06
2.50849e-06
2.47293e-06
2.48398e-06
2.49454e-06
2.50484e-06
2.51486e-06
2.52457e-06
2.53395e-06
2.54297e-06
2.55162e-06
2.55988e-06
2.56772e-06
2.57513e-06
2.58209e-06
2.58858e-06
2.5946e-06
2.60011e-06
2.60511e-06
2.60959e-06
2.61353e-06
2.61693e-06
2.61977e-06
2.62205e-06
2.62377e-06
2.62491e-06
2.62549e-06
2.62549e-06
2.62491e-06
2.62377e-06
2.62205e-06
2.61977e-06
2.61693e-06
2.61353e-06
2.60959e-06
2.60511e-06
2.60011e-06
2.5946e-06
2.58858e-06
2.58209e-06
2.57513e-06
2.56772e-06
2.55988e-06
2.55162e-06
2.54297e-06
2.53395e-06
2.52457e-06
2.51486e-06
2.50484e-06
2.49454e-06
2.48398e-06
2.47293e-06
2.43766e-06
2.44847e-06
2.4588e-06
2.46888e-06
2.47869e-06
2.48819e-06
2.49737e-06
2.5062e-06
2.51466e-06
2.52274e-06
2.53041e-06
2.53766e-06
2.54448e-06
2.55083e-06
2.55672e-06
2.56211e-06
2.56701e-06
2.57139e-06
2.57524e-06
2.57857e-06
2.58135e-06
2.58358e-06
2.58526e-06
2.58638e-06
2.58695e-06
2.58695e-06
2.58638e-06
2.58526e-06
2.58358e-06
2.58135e-06
2.57857e-06
2.57524e-06
2.57139e-06
2.56701e-06
2.56211e-06
2.55672e-06
2.55083e-06
2.54448e-06
2.53766e-06
2.53041e-06
2.52274e-06
2.51466e-06
2.5062e-06
2.49737e-06
2.48819e-06
2.47869e-06
2.46888e-06
2.4588e-06
2.44847e-06
2.43766e-06
2.40267e-06
2.41324e-06
2.42336e-06
2.43322e-06
2.44281e-06
2.45211e-06
2.46108e-06
2.46972e-06
2.478e-06
2.48591e-06
2.49341e-06
2.50051e-06
2.50717e-06
2.51339e-06
2.51915e-06
2.52443e-06
2.52921e-06
2.5335e-06
2.53727e-06
2.54052e-06
2.54324e-06
2.54543e-06
2.54707e-06
2.54817e-06
2.54872e-06
2.54872e-06
2.54817e-06
2.54707e-06
2.54543e-06
2.54324e-06
2.54052e-06
2.53727e-06
2.5335e-06
2.52921e-06
2.52443e-06
2.51915e-06
2.51339e-06
2.50717e-06
2.50051e-06
2.49341e-06
2.48591e-06
2.478e-06
2.46972e-06
2.46108e-06
2.45211e-06
2.44281e-06
2.43322e-06
2.42336e-06
2.41324e-06
2.40267e-06
2.36797e-06
2.3783e-06
2.3882e-06
2.39784e-06
2.40722e-06
2.41631e-06
2.42509e-06
2.43354e-06
2.44164e-06
2.44937e-06
2.45671e-06
2.46365e-06
2.47017e-06
2.47625e-06
2.48188e-06
2.48704e-06
2.49173e-06
2.49592e-06
2.49961e-06
2.50279e-06
2.50545e-06
2.50759e-06
2.50919e-06
2.51027e-06
2.5108e-06
2.5108e-06
2.51027e-06
2.50919e-06
2.50759e-06
2.50545e-06
2.50279e-06
2.49961e-06
2.49592e-06
2.49173e-06
2.48704e-06
2.48188e-06
2.47625e-06
2.47017e-06
2.46365e-06
2.45671e-06
2.44937e-06
2.44164e-06
2.43354e-06
2.42509e-06
2.41631e-06
2.40722e-06
2.39784e-06
2.3882e-06
2.3783e-06
2.36797e-06
2.33355e-06
2.34365e-06
2.35332e-06
2.36275e-06
2.37192e-06
2.38081e-06
2.38939e-06
2.39765e-06
2.40557e-06
2.41312e-06
2.4203e-06
2.42709e-06
2.43346e-06
2.43941e-06
2.44491e-06
2.44996e-06
2.45454e-06
2.45864e-06
2.46225e-06
2.46535e-06
2.46796e-06
2.47005e-06
2.47162e-06
2.47267e-06
2.47319e-06
2.47319e-06
2.47267e-06
2.47162e-06
2.47005e-06
2.46796e-06
2.46535e-06
2.46225e-06
2.45864e-06
2.45454e-06
2.44996e-06
2.44491e-06
2.43941e-06
2.43346e-06
2.42709e-06
2.4203e-06
2.41312e-06
2.40557e-06
2.39765e-06
2.38939e-06
2.3808e-06
2.37192e-06
2.36275e-06
2.35332e-06
2.34365e-06
2.33355e-06
2.2994e-06
2.30926e-06
2.31872e-06
2.32793e-06
2.33689e-06
2.34558e-06
2.35397e-06
2.36204e-06
2.36978e-06
2.37717e-06
2.38418e-06
2.39081e-06
2.39704e-06
2.40286e-06
2.40824e-06
2.41317e-06
2.41765e-06
2.42165e-06
2.42518e-06
2.42822e-06
2.43076e-06
2.4328e-06
2.43434e-06
2.43537e-06
2.43588e-06
2.43588e-06
2.43537e-06
2.43434e-06
2.4328e-06
2.43076e-06
2.42822e-06
2.42518e-06
2.42165e-06
2.41765e-06
2.41317e-06
2.40824e-06
2.40286e-06
2.39704e-06
2.39081e-06
2.38418e-06
2.37717e-06
2.36978e-06
2.36204e-06
2.35397e-06
2.34558e-06
2.33689e-06
2.32793e-06
2.31872e-06
2.30926e-06
2.2994e-06
2.26552e-06
2.27515e-06
2.28439e-06
2.29339e-06
2.30215e-06
2.31063e-06
2.31883e-06
2.32672e-06
2.33428e-06
2.34149e-06
2.34835e-06
2.35483e-06
2.36091e-06
2.36659e-06
2.37185e-06
2.37667e-06
2.38105e-06
2.38496e-06
2.38841e-06
2.39138e-06
2.39386e-06
2.39586e-06
2.39736e-06
2.39836e-06
2.39886e-06
2.39886e-06
2.39836e-06
2.39736e-06
2.39586e-06
2.39386e-06
2.39138e-06
2.38841e-06
2.38496e-06
2.38105e-06
2.37667e-06
2.37185e-06
2.36659e-06
2.36091e-06
2.35483e-06
2.34835e-06
2.34149e-06
2.33428e-06
2.32672e-06
2.31883e-06
2.31063e-06
2.30215e-06
2.29339e-06
2.28439e-06
2.27515e-06
2.26552e-06
2.23191e-06
2.24132e-06
2.25034e-06
2.25913e-06
2.26768e-06
2.27596e-06
2.28397e-06
2.29167e-06
2.29905e-06
2.3061e-06
2.3128e-06
2.31912e-06
2.32507e-06
2.33062e-06
2.33575e-06
2.34046e-06
2.34473e-06
2.34856e-06
2.35192e-06
2.35482e-06
2.35725e-06
2.3592e-06
2.36066e-06
2.36164e-06
2.36213e-06
2.36213e-06
2.36164e-06
2.36066e-06
2.3592e-06
2.35725e-06
2.35482e-06
2.35192e-06
2.34856e-06
2.34473e-06
2.34046e-06
2.33575e-06
2.33062e-06
2.32507e-06
2.31912e-06
2.3128e-06
2.3061e-06
2.29905e-06
2.29167e-06
2.28397e-06
2.27596e-06
2.26768e-06
2.25913e-06
2.25034e-06
2.24132e-06
2.23191e-06
2.19857e-06
2.20775e-06
2.21655e-06
2.22513e-06
2.23348e-06
2.24156e-06
2.24938e-06
2.2569e-06
2.26411e-06
2.27099e-06
2.27752e-06
2.2837e-06
2.2895e-06
2.29492e-06
2.29994e-06
2.30453e-06
2.3087e-06
2.31244e-06
2.31572e-06
2.31855e-06
2.32092e-06
2.32282e-06
2.32426e-06
2.32521e-06
2.32569e-06
2.32569e-06
2.32521e-06
2.32426e-06
2.32282e-06
2.32092e-06
2.31855e-06
2.31572e-06
2.31244e-06
2.3087e-06
2.30453e-06
2.29994e-06
2.29492e-06
2.2895e-06
2.2837e-06
2.27752e-06
2.27099e-06
2.26411e-06
2.2569e-06
2.24938e-06
2.24156e-06
2.23348e-06
2.22513e-06
2.21655e-06
2.20775e-06
2.19857e-06
2.16549e-06
2.17444e-06
2.18304e-06
2.19141e-06
2.19955e-06
2.20744e-06
2.21506e-06
2.2224e-06
2.22943e-06
2.23615e-06
2.24253e-06
2.24855e-06
2.25422e-06
2.2595e-06
2.2644e-06
2.26888e-06
2.27295e-06
2.2766e-06
2.2798e-06
2.28256e-06
2.28488e-06
2.28673e-06
2.28813e-06
2.28906e-06
2.28953e-06
2.28953e-06
2.28906e-06
2.28813e-06
2.28673e-06
2.28488e-06
2.28256e-06
2.2798e-06
2.2766e-06
2.27295e-06
2.26888e-06
2.2644e-06
2.2595e-06
2.25422e-06
2.24855e-06
2.24253e-06
2.23615e-06
2.22943e-06
2.2224e-06
2.21506e-06
2.20744e-06
2.19955e-06
2.19141e-06
2.18304e-06
2.17444e-06
2.16549e-06
2.13268e-06
2.14141e-06
2.14979e-06
2.15795e-06
2.16589e-06
2.17358e-06
2.18101e-06
2.18817e-06
2.19503e-06
2.20158e-06
2.2078e-06
2.21368e-06
2.21921e-06
2.22436e-06
2.22913e-06
2.23351e-06
2.23748e-06
2.24103e-06
2.24416e-06
2.24686e-06
2.24911e-06
2.25092e-06
2.25229e-06
2.2532e-06
2.25365e-06
2.25365e-06
2.2532e-06
2.25229e-06
2.25092e-06
2.24911e-06
2.24686e-06
2.24416e-06
2.24103e-06
2.23748e-06
2.23351e-06
2.22913e-06
2.22436e-06
2.21921e-06
2.21368e-06
2.2078e-06
2.20158e-06
2.19503e-06
2.18817e-06
2.18101e-06
2.17358e-06
2.16589e-06
2.15795e-06
2.14979e-06
2.14141e-06
2.13268e-06
2.10014e-06
2.10864e-06
2.1168e-06
2.12476e-06
2.13249e-06
2.13999e-06
2.14724e-06
2.15421e-06
2.1609e-06
2.16728e-06
2.17335e-06
2.17908e-06
2.18447e-06
2.18949e-06
2.19415e-06
2.19841e-06
2.20228e-06
2.20575e-06
2.2088e-06
2.21142e-06
2.21362e-06
2.21539e-06
2.21672e-06
2.21761e-06
2.21805e-06
2.21805e-06
2.21761e-06
2.21672e-06
2.21539e-06
2.21362e-06
2.21142e-06
2.2088e-06
2.20575e-06
2.20228e-06
2.19841e-06
2.19415e-06
2.18949e-06
2.18447e-06
2.17908e-06
2.17335e-06
2.16728e-06
2.1609e-06
2.15421e-06
2.14724e-06
2.13999e-06
2.13249e-06
2.12476e-06
2.1168e-06
2.10864e-06
2.10014e-06
2.06786e-06
2.07613e-06
2.08409e-06
2.09183e-06
2.09937e-06
2.10667e-06
2.11373e-06
2.12052e-06
2.12704e-06
2.13326e-06
2.13917e-06
2.14475e-06
2.15e-06
2.1549e-06
2.15943e-06
2.16359e-06
2.16736e-06
2.17074e-06
2.17371e-06
2.17627e-06
2.17841e-06
2.18013e-06
2.18143e-06
2.18229e-06
2.18272e-06
2.18272e-06
2.18229e-06
2.18143e-06
2.18013e-06
2.17841e-06
2.17627e-06
2.17371e-06
2.17074e-06
2.16736e-06
2.16359e-06
2.15943e-06
2.1549e-06
2.15e-06
2.14475e-06
2.13917e-06
2.13326e-06
2.12704e-06
2.12052e-06
2.11373e-06
2.10667e-06
2.09937e-06
2.09183e-06
2.08409e-06
2.07613e-06
2.06786e-06
2.03584e-06
2.0439e-06
2.05164e-06
2.05917e-06
2.06651e-06
2.07362e-06
2.08049e-06
2.0871e-06
2.09345e-06
2.0995e-06
2.10526e-06
2.1107e-06
2.11581e-06
2.12058e-06
2.12499e-06
2.12904e-06
2.13271e-06
2.136e-06
2.13889e-06
2.14139e-06
2.14347e-06
2.14515e-06
2.14641e-06
2.14725e-06
2.14767e-06
2.14767e-06
2.14725e-06
2.14641e-06
2.14515e-06
2.14347e-06
2.14139e-06
2.13889e-06
2.136e-06
2.13271e-06
2.12904e-06
2.12499e-06
2.12058e-06
2.11581e-06
2.1107e-06
2.10526e-06
2.0995e-06
2.09345e-06
2.0871e-06
2.08049e-06
2.07362e-06
2.06651e-06
2.05917e-06
2.05164e-06
2.0439e-06
2.03584e-06
2.0041e-06
2.01193e-06
2.01945e-06
2.02678e-06
2.03392e-06
2.04084e-06
2.04752e-06
2.05395e-06
2.06013e-06
2.06602e-06
2.07162e-06
2.07691e-06
2.08188e-06
2.08653e-06
2.09082e-06
2.09476e-06
2.09833e-06
2.10153e-06
2.10435e-06
2.10678e-06
2.10881e-06
2.11044e-06
2.11167e-06
2.11249e-06
2.1129e-06
2.1129e-06
2.11249e-06
2.11167e-06
2.11044e-06
2.10881e-06
2.10678e-06
2.10435e-06
2.10153e-06
2.09833e-06
2.09476e-06
2.09082e-06
2.08653e-06
2.08188e-06
2.07691e-06
2.07162e-06
2.06602e-06
2.06013e-06
2.05395e-06
2.04752e-06
2.04084e-06
2.03392e-06
2.02678e-06
2.01945e-06
2.01193e-06
2.0041e-06
1.97262e-06
1.98023e-06
1.98754e-06
1.99467e-06
2.0016e-06
2.00832e-06
2.01482e-06
2.02108e-06
2.02708e-06
2.03281e-06
2.03825e-06
2.0434e-06
2.04823e-06
2.05275e-06
2.05693e-06
2.06076e-06
2.06423e-06
2.06734e-06
2.07008e-06
2.07244e-06
2.07442e-06
2.076e-06
2.0772e-06
2.07799e-06
2.07839e-06
2.07839e-06
2.07799e-06
2.0772e-06
2.076e-06
2.07442e-06
2.07244e-06
2.07008e-06
2.06734e-06
2.06423e-06
2.06076e-06
2.05693e-06
2.05275e-06
2.04823e-06
2.0434e-06
2.03825e-06
2.03281e-06
2.02708e-06
2.02108e-06
2.01482e-06
2.00832e-06
2.0016e-06
1.99467e-06
1.98754e-06
1.98023e-06
1.97262e-06
1.94143e-06
1.94881e-06
1.95591e-06
1.96283e-06
1.96956e-06
1.97609e-06
1.9824e-06
1.98848e-06
1.99431e-06
1.99987e-06
2.00516e-06
2.01016e-06
2.01486e-06
2.01925e-06
2.02331e-06
2.02703e-06
2.0304e-06
2.03343e-06
2.03609e-06
2.03838e-06
2.0403e-06
2.04184e-06
2.043e-06
2.04378e-06
2.04417e-06
2.04417e-06
2.04378e-06
2.043e-06
2.04184e-06