/*--------------------------------*- C++ -*----------------------------------*\
  =========                 |
  \\      /  F ield         | OpenFOAM: The Open Source CFD Toolbox
   \\    /   O peration     | Website:  https://openfoam.org
    \\  /    A nd           | Version:  7
     \\/     M anipulation  |
\*---------------------------------------------------------------------------*/
FoamFile
{
    version     2.0;
    format      ascii;
    class       surfaceScalarField;
    location    "124000";
    object      phi;
}
// * * * * * * * * * * * * * * * * * * * * * * * * * * * * * * * * * * * * * //

dimensions      [0 3 -1 0 0 0 0];

internalField   nonuniform List<scalar> 
9444
(
-4.84881e-23
-3.42262e-23
7.32253e-23
2.79465e-23
-4.66642e-23
-3.3231e-23
2.8474e-23
-2.39974e-23
-5.15881e-23
2.86307e-23
-6.06215e-23
-5.71808e-23
3.06174e-23
-3.90651e-23
-4.39427e-23
1.41575e-23
-6.88006e-23
-3.31362e-23
-6.12763e-24
-4.79895e-23
-2.01288e-23
-3.48833e-24
-4.48417e-23
-8.7022e-24
3.21321e-24
1.51038e-23
-4.10609e-24
1.80546e-23
-4.52695e-23
-4.00989e-23
2.64847e-23
-6.77161e-23
-4.6495e-23
5.55055e-23
-8.24851e-23
-4.11148e-23
4.0225e-23
-7.95589e-23
-3.17944e-23
2.92547e-23
-8.98115e-23
-1.89359e-23
3.4015e-23
-6.73093e-23
4.34291e-24
4.61143e-23
-1.38426e-23
1.20225e-23
7.23043e-24
-5.28823e-23
-2.11319e-24
-3.46722e-23
-6.17924e-23
-1.30366e-23
-5.23372e-23
-1.84774e-23
5.50811e-24
-5.85014e-23
-3.10264e-23
8.32326e-24
-7.11683e-23
-6.21844e-23
2.70687e-23
-7.44201e-23
6.23564e-23
-6.20799e-23
-6.72575e-23
-5.91512e-23
9.12157e-23
-9.67156e-23
-6.20321e-23
-3.99204e-23
-3.5607e-23
-4.85921e-23
-4.40091e-23
-3.43396e-23
-6.09591e-23
-7.41225e-23
-6.04056e-23
-5.40822e-23
-4.60843e-23
-3.91955e-23
-2.78516e-23
-3.30105e-23
-1.79112e-23
-4.10107e-23
-2.51386e-23
-5.59397e-23
-4.38807e-23
-6.58892e-23
-4.76476e-23
-7.51858e-23
-2.13775e-23
-6.94501e-23
-1.16114e-23
-5.4926e-23
-2.45602e-24
-3.10736e-23
-6.0976e-24
-9.92071e-23
-1.08291e-23
-6.1955e-23
2.27326e-23
-2.32609e-23
3.88966e-23
3.25712e-24
4.9265e-23
-1.32755e-23
4.20808e-23
4.64288e-23
-8.26289e-23
-2.92009e-23
1.19005e-22
-6.2783e-23
-1.5068e-23
-5.29336e-23
-3.06898e-23
-5.95979e-23
-2.83131e-23
-3.93986e-23
-9.8696e-24
-4.70775e-23
-4.68043e-23
-4.76055e-23
-4.74717e-23
-2.83033e-23
-5.49217e-23
-4.88625e-23
-7.03001e-23
-6.93861e-23
-7.91626e-23
-6.84119e-23
-5.46766e-23
-1.95153e-23
-1.92292e-23
-6.84805e-23
-3.58418e-23
-7.35779e-23
-6.4969e-24
-7.32627e-23
4.11198e-24
-3.72245e-23
2.32956e-23
-5.93363e-23
1.82017e-23
-5.56444e-23
3.20986e-23
-5.87551e-25
4.948e-23
6.70812e-24
5.18518e-23
7.57653e-24
4.2231e-23
3.16845e-23
-7.49852e-23
-2.94302e-23
8.51443e-23
-6.2195e-23
-1.70892e-23
-4.42422e-23
2.58105e-23
-1.43379e-23
1.68483e-23
-7.5744e-23
-1.52726e-23
-4.39347e-23
-8.07962e-24
-5.62362e-23
-2.50114e-23
-6.14616e-23
-3.91923e-23
-6.87598e-23
-5.6868e-23
-4.56534e-23
-2.74616e-23
-6.45401e-24
-1.94556e-23
-4.61313e-23
-4.47034e-23
-4.18113e-23
-4.58259e-23
-6.9533e-23
-5.72724e-23
-5.26625e-23
-1.5277e-23
-3.44036e-23
3.72453e-24
-3.94003e-23
3.08753e-23
-3.57704e-23
4.13771e-23
2.43915e-23
6.12351e-23
1.47796e-23
4.61805e-23
8.58192e-24
4.64885e-23
2.65754e-23
-6.37049e-23
-1.74463e-23
6.33559e-23
-1.25615e-23
1.50734e-24
-4.37157e-23
-9.74415e-24
-2.6312e-23
4.87836e-24
-5.39904e-23
1.43222e-23
-5.11833e-23
-2.92751e-24
-5.89322e-23
-4.70995e-24
-8.12378e-23
-2.22955e-24
-2.35522e-23
1.231e-23
-2.65051e-23
-7.21232e-24
-2.2993e-23
-8.26662e-24
-4.4121e-23
-1.56169e-23
-5.8897e-23
-3.02004e-23
-2.37227e-23
-2.72004e-23
-3.54907e-23
-2.49958e-24
1.76372e-23
2.12718e-23
-2.28844e-23
1.82692e-24
-1.91023e-24
1.60798e-23
1.50196e-23
3.07697e-23
3.65605e-23
7.70314e-24
-1.41559e-23
-3.09981e-23
-3.13988e-23
-4.79283e-23
-1.60025e-23
5.58269e-23
-3.56794e-23
-1.90074e-24
-4.13396e-23
7.03964e-24
-2.70963e-23
-1.12055e-23
-6.65159e-23
-1.02105e-23
-6.39935e-23
5.52157e-24
-4.9802e-23
-1.133e-23
-5.46919e-23
1.93432e-24
-5.23569e-23
2.43862e-23
-1.35335e-23
2.68899e-23
-2.78372e-23
1.88199e-23
-3.83678e-23
6.63725e-24
-5.32807e-23
-4.24611e-24
2.42622e-23
2.00125e-23
5.66738e-24
3.13592e-23
1.41686e-23
2.41959e-23
5.27619e-25
8.18381e-24
1.43964e-23
-1.2134e-23
-3.34435e-24
-2.91341e-23
9.81509e-24
-2.55269e-23
-1.84227e-23
-2.04643e-23
-1.52054e-23
-1.57093e-23
1.58178e-23
5.27428e-23
-3.24031e-23
1.74206e-23
-4.70204e-23
2.13469e-23
-2.47665e-23
3.84378e-23
-3.95753e-23
3.71897e-24
-8.4031e-23
-2.215e-23
-4.26522e-23
1.19199e-23
-2.83207e-23
-6.18251e-24
-5.02182e-23
-2.16322e-23
-1.52262e-23
-1.27322e-24
-2.20968e-23
2.40228e-23
-4.82249e-23
3.90946e-23
-2.08246e-23
4.27018e-23
5.05435e-23
7.63704e-23
1.58115e-23
7.81333e-23
-5.59737e-24
5.09665e-23
-2.89149e-24
1.63675e-25
-5.57924e-24
-1.44506e-23
-1.47017e-24
-3.49418e-23
1.66975e-23
-5.05234e-23
-8.95297e-24
-6.9756e-23
-5.02771e-23
-1.34114e-23
1.97979e-23
1.49985e-23
-2.19689e-23
3.00945e-23
-2.76775e-23
2.2637e-23
-5.41127e-23
-9.51204e-24
-5.19275e-23
-2.98156e-24
-4.41049e-23
3.28921e-23
-6.12495e-23
3.25952e-23
-4.47792e-23
5.26052e-23
-3.54954e-23
4.52314e-23
-2.44501e-24
4.46487e-23
5.75164e-24
1.11774e-23
-4.02597e-23
1.46234e-23
6.32507e-24
6.84511e-23
4.36175e-23
4.79658e-23
1.09858e-23
-1.39064e-23
-5.56239e-23
-1.13646e-23
-1.0014e-23
2.37469e-23
-2.68364e-23
1.24958e-23
-8.97037e-24
1.26073e-23
7.80951e-24
-1.38552e-25
1.42801e-23
-9.12876e-24
-1.98023e-24
-7.98744e-24
-2.05988e-24
-1.22396e-23
-3.05341e-23
3.70835e-24
-4.35734e-23
-3.03513e-23
-6.04672e-23
-5.01698e-24
-2.06735e-23
1.40306e-23
-4.74588e-23
-9.59839e-24
-4.47548e-23
-3.59912e-23
-5.25504e-23
-6.97259e-24
-2.07446e-23
1.77971e-23
-3.28298e-23
-1.45172e-23
3.25567e-25
-1.20042e-23
2.89333e-24
1.37121e-24
-1.9582e-23
1.70574e-23
-4.78999e-24
3.26166e-23
2.0804e-23
3.11171e-23
-1.8516e-23
1.58829e-23
-1.79863e-23
2.31591e-23
-1.60879e-23
1.8684e-23
-1.40822e-23
2.45364e-23
4.32445e-24
4.83404e-23
2.73645e-23
3.32603e-23
1.51948e-23
-3.31136e-24
-6.41191e-24
1.12822e-23
-6.11168e-23
-3.66777e-23
-4.32344e-23
-1.3681e-23
-5.18695e-23
-4.12463e-24
-3.75665e-23
-6.25182e-24
-8.66463e-23
-3.21732e-23
-2.7674e-23
-2.62055e-23
-4.14355e-23
-3.7865e-25
-4.84897e-23
1.24041e-23
-3.83055e-23
4.31419e-23
1.45941e-23
5.68993e-23
2.86124e-23
6.01641e-23
-2.09425e-24
3.82732e-23
-2.09173e-24
2.97928e-23
2.33461e-23
8.59999e-24
2.66355e-24
3.25802e-23
-2.05869e-23
4.45723e-23
-1.4362e-23
1.45531e-23
8.12911e-24
8.83449e-24
-9.32187e-24
-4.31654e-24
2.27442e-23
5.3337e-24
4.26848e-23
-2.85635e-23
-2.01768e-24
2.67148e-23
-4.16098e-23
-2.17594e-23
-4.07547e-23
-1.57049e-23
-4.0321e-23
-1.45064e-23
-4.99249e-23
6.30594e-24
-7.42836e-23
3.46152e-23
-2.48442e-23
4.58944e-23
-3.20079e-23
1.17449e-23
-2.77468e-23
1.58823e-23
-2.39105e-23
4.51002e-23
2.62511e-23
7.10357e-23
2.3623e-23
6.18951e-23
-1.80142e-24
5.75448e-23
-1.82392e-23
4.45174e-23
3.79425e-23
2.48677e-23
2.0422e-23
-2.63656e-23
-4.90056e-23
-1.30771e-23
-1.50025e-23
-2.03601e-23
2.384e-24
-4.84042e-24
-5.18357e-24
7.81957e-24
5.14373e-23
1.26266e-23
9.70223e-24
-3.72819e-23
-1.97042e-23
1.00915e-23
-3.2908e-23
7.04691e-24
-3.97699e-23
-1.22147e-23
-2.99185e-23
-3.317e-23
-3.64952e-23
-3.17405e-23
-6.23968e-23
-3.48079e-23
-3.74917e-23
-1.52377e-23
-2.1054e-23
-1.08822e-24
-1.62784e-23
1.38929e-23
3.41211e-25
2.44084e-23
1.83579e-23
4.51563e-23
2.49261e-23
5.17495e-23
-8.87837e-24
2.12278e-23
-2.89172e-23
-7.04633e-24
-1.30533e-24
4.38608e-24
3.69752e-23
4.07974e-24
-5.86329e-23
-4.4287e-23
-7.56295e-24
-1.80458e-24
1.06078e-23
4.44521e-23
4.56362e-24
2.10486e-23
4.99672e-23
3.30853e-23
5.79993e-24
-1.93602e-23
-2.31748e-24
3.6547e-23
-3.26487e-23
-1.42272e-23
-5.62528e-23
-1.88016e-24
-2.26648e-23
2.4613e-23
-4.71126e-23
-4.49983e-24
-4.70533e-23
-3.17416e-23
-5.53727e-23
-1.61371e-23
-1.44551e-23
1.33763e-24
-6.34105e-24
2.41896e-26
3.13209e-25
6.44542e-24
1.74599e-23
1.31916e-23
3.28929e-24
-3.83776e-24
-2.70228e-23
-1.99813e-23
-2.68067e-23
-1.68179e-23
-3.49703e-24
-1.13624e-23
1.17231e-23
-8.55764e-26
-2.88634e-23
2.13568e-24
2.44329e-23
1.18397e-23
-7.11137e-25
-4.95255e-24
1.82674e-23
9.11316e-24
3.1309e-23
2.38092e-23
3.13356e-23
-2.56206e-23
-4.68269e-25
2.48736e-23
-3.1993e-23
-1.22964e-23
-4.79145e-23
-3.46016e-23
-4.49242e-23
-1.94534e-23
-5.62485e-23
-2.43816e-23
-3.92779e-23
-2.70605e-23
-4.08021e-23
-2.4517e-23
-1.3698e-23
1.84355e-23
-1.11047e-23
3.92171e-23
1.49876e-24
3.2578e-23
6.34016e-24
-4.70021e-24
-3.14717e-24
-1.0023e-23
-2.30025e-23
-5.55287e-23
-2.42113e-23
-2.34289e-23
9.89599e-24
2.7405e-23
5.51239e-24
1.10686e-23
-1.13965e-23
-2.74521e-23
1.62848e-23
-9.24676e-24
1.13524e-23
5.13968e-24
2.19116e-23
7.35065e-25
4.06774e-23
-3.38801e-23
-2.21365e-23
1.42593e-23
-3.14245e-23
-1.41226e-23
-4.42027e-23
1.25437e-23
-5.5432e-23
-1.15927e-23
-5.67311e-23
-2.93289e-23
-4.74824e-23
-3.90999e-23
-1.81237e-23
-2.38135e-23
-3.60889e-24
-1.86653e-24
-3.27326e-24
-1.62633e-24
-1.41991e-23
3.25881e-23
1.89868e-24
4.88897e-23
-1.97486e-23
-3.07442e-24
-8.35542e-24
-2.82464e-23
7.17738e-24
3.13378e-24
9.27897e-24
2.80311e-23
-2.74733e-24
3.03187e-23
-3.58534e-24
2.81097e-23
2.28831e-23
2.18801e-23
9.67153e-24
2.58927e-23
-3.29164e-23
-1.45499e-23
2.68832e-23
-2.79266e-23
-2.11037e-23
-5.29196e-23
-5.21515e-23
-5.79686e-23
-1.12933e-23
-5.68813e-23
1.44847e-24
-3.60549e-23
3.66244e-23
-7.84725e-24
4.86901e-23
-1.43347e-23
-1.61998e-24
4.72573e-24
1.84183e-23
-6.34387e-24
2.78946e-23
-1.26863e-23
9.38009e-24
-2.91997e-23
2.92506e-24
1.12378e-23
2.01094e-23
2.04734e-23
2.66298e-23
1.15288e-23
3.66753e-23
-1.12661e-24
5.15578e-25
-1.27681e-23
-6.55552e-25
3.14514e-23
-3.63213e-23
-4.10609e-24
3.15821e-23
-3.72249e-23
-2.33915e-23
-2.31075e-23
-2.61704e-23
-5.85092e-23
-1.66995e-23
-2.8162e-23
1.14797e-23
-2.36373e-23
3.03773e-23
-2.63125e-23
5.11057e-23
-5.71076e-25
1.19081e-23
1.86406e-23
4.09481e-23
3.04706e-25
3.11469e-23
-7.50673e-24
5.64107e-23
-2.40336e-23
5.32457e-23
1.1959e-23
2.51336e-23
2.74621e-23
6.58831e-24
-1.62517e-24
5.40932e-25
-3.79055e-23
7.63248e-24
1.80188e-23
-4.56876e-23
-9.869e-24
-2.02824e-23
-1.04122e-23
-3.88897e-23
-3.97236e-23
-3.22979e-23
1.13424e-24
-1.61146e-23
1.28146e-23
-5.67991e-23
-4.1096e-25
1.65119e-23
3.58645e-23
1.09636e-23
6.08794e-24
1.52633e-23
2.68816e-23
-6.36505e-24
3.08419e-23
-2.87443e-23
3.04306e-23
1.02294e-23
-4.48104e-23
-3.02365e-23
1.04207e-23
-2.61806e-23
-2.92153e-23
-3.81905e-23
-2.10569e-24
-1.42188e-23
2.22776e-23
-2.29351e-23
7.95669e-24
-2.67785e-23
1.54261e-23
-2.63538e-23
-1.42608e-24
-1.31946e-23
2.18585e-23
2.68711e-23
7.81694e-24
2.07944e-23
2.66216e-23
-8.3871e-24
-3.91657e-23
-1.2262e-23
2.26465e-23
-2.20765e-23
-2.16785e-24
-2.54358e-23
4.98677e-24
-1.47363e-23
9.15985e-24
-2.47261e-23
1.65855e-23
-3.44648e-23
2.96949e-23
-1.65377e-23
2.65233e-23
-2.02902e-23
2.14678e-23
4.03957e-23
3.77039e-23
-3.72954e-23
-3.04601e-24
2.34888e-23
-1.46966e-23
1.65896e-23
-2.2672e-23
-8.07173e-24
-1.77938e-23
2.95507e-24
-1.41906e-23
6.25455e-24
-3.38878e-23
4.24929e-23
-7.28489e-24
9.19614e-23
-1.46889e-23
1.18375e-22
-3.22003e-23
-1.7738e-23
8.8853e-24
-2.24879e-23
5.41029e-24
-2.32086e-23
-2.7809e-24
-6.48836e-24
2.17728e-23
-6.42565e-24
5.31667e-24
-1.15995e-23
1.12335e-23
-1.16494e-24
7.24427e-23
-2.34273e-23
-6.41789e-24
1.25525e-23
-2.17526e-23
2.87571e-24
-1.90757e-23
-1.36755e-24
-1.74962e-23
2.32882e-23
7.15476e-25
1.63085e-23
4.78548e-24
2.23614e-24
-2.09836e-23
-5.88509e-24
1.18288e-23
-2.00784e-23
-4.53252e-24
-1.30145e-23
-2.20683e-23
-2.14504e-23
3.78146e-23
7.89367e-24
3.02601e-23
-1.23791e-24
-2.8129e-23
-6.9043e-23
6.39361e-24
-2.03107e-23
-1.43943e-23
-6.88219e-24
7.8531e-24
-1.56668e-23
-2.22247e-23
-6.67383e-24
2.18145e-23
-2.05945e-23
-3.1271e-23
2.4447e-23
-9.77902e-24
-2.63029e-23
-1.89199e-23
1.49873e-23
-5.92787e-24
1.6144e-23
-8.42823e-24
-2.07995e-23
3.3303e-23
-4.92694e-24
1.52753e-23
-1.43707e-23
-1.17138e-23
9.02516e-24
1.83764e-24
2.25941e-23
3.28805e-23
-1.10389e-23
-1.28552e-23
-7.09122e-24
-1.09152e-23
-4.47184e-26
6.49477e-24
1.50358e-23
-7.18888e-24
1.11849e-24
-8.76347e-24
-2.56393e-24
-3.03882e-25
6.5098e-24
-3.19515e-24
3.62299e-24
-9.32734e-24
-2.99462e-24
-1.21888e-23
4.23528e-24
-3.69409e-24
5.36167e-25
-4.59816e-24
4.54125e-24
-3.65813e-23
1.12607e-23
3.42077e-25
7.01834e-24
3.41232e-23
1.22814e-23
6.17786e-23
2.01315e-23
8.86204e-24
-3.76291e-23
2.86349e-23
-2.0184e-24
5.31766e-23
4.53046e-24
1.57122e-23
2.08572e-23
2.88284e-23
2.37582e-25
4.60554e-23
2.27279e-25
1.60981e-23
2.28082e-23
2.62514e-23
-1.89922e-24
5.47948e-23
-7.52247e-24
8.70604e-24
1.48936e-23
1.13043e-23
1.63328e-24
4.19693e-23
-1.55458e-23
8.46561e-24
1.34615e-23
4.0235e-23
-2.4854e-24
3.55972e-23
-2.63574e-23
1.24455e-23
4.48228e-23
3.04708e-23
2.32567e-24
2.57283e-23
-2.38462e-23
5.1011e-24
4.91889e-23
2.2428e-23
7.2086e-24
3.44565e-23
-1.34144e-23
3.36824e-24
6.0821e-23
6.19058e-23
4.4797e-24
4.18811e-23
-1.22992e-23
1.97531e-24
2.83549e-23
1.30086e-23
3.10432e-24
-1.87839e-23
2.80636e-24
4.85061e-23
5.51879e-23
-4.26322e-23
7.42081e-23
7.66246e-23
4.56521e-23
9.06743e-23
4.74605e-23
8.12855e-23
3.88199e-23
6.98044e-23
3.60322e-23
5.78563e-23
9.90089e-24
2.91855e-23
7.70111e-24
2.48133e-23
3.29107e-23
1.63762e-23
3.51083e-23
1.04433e-23
2.10558e-23
3.21988e-23
3.05454e-23
3.81097e-23
3.78371e-24
1.79968e-23
1.84331e-23
3.10693e-23
3.28259e-23
3.41666e-23
1.84091e-23
2.98556e-23
1.14919e-23
3.05221e-23
7.53543e-24
2.74857e-23
2.28631e-23
3.18152e-23
1.38462e-23
3.08925e-23
7.40386e-26
2.80837e-23
1.24545e-23
2.41325e-23
2.13012e-24
1.25613e-23
-1.02791e-24
9.402e-24
2.87489e-23
1.28984e-23
-5.50178e-24
1.14061e-23
-1.80594e-23
2.89145e-24
-3.4388e-23
9.75252e-25
-1.86784e-23
-4.39523e-24
-6.32094e-24
-3.48251e-24
9.68603e-25
-5.18707e-24
2.2796e-23
-1.63353e-23
-2.78012e-23
-2.78564e-23
-3.20858e-24
-2.37495e-23
-5.09037e-23
-2.75895e-23
-3.84376e-23
-2.05209e-23
-1.3198e-24
-1.44988e-23
1.42411e-23
-2.02438e-24
3.09291e-23
-6.15134e-24
2.23542e-23
-9.70401e-24
8.66849e-24
-4.67025e-24
-6.26783e-24
5.15099e-23
6.06901e-23
-4.32814e-23
7.75972e-23
1.07812e-22
3.2448e-23
7.51051e-23
3.80522e-23
7.3553e-23
1.95407e-23
2.32449e-23
2.71985e-23
4.51534e-23
8.31784e-24
4.77572e-23
-3.0878e-24
3.61946e-23
3.01244e-23
4.79835e-23
6.80507e-23
7.57475e-23
4.56283e-23
4.89507e-23
6.48639e-24
3.55398e-23
2.97008e-23
3.4699e-23
2.23467e-23
3.10036e-23
2.28178e-23
2.74559e-23
2.2433e-23
2.00551e-23
1.90567e-23
2.811e-23
1.50306e-23
3.90615e-23
3.01106e-23
2.00328e-23
4.37348e-24
1.69531e-23
-1.57839e-23
9.00687e-24
-5.82804e-24
1.09447e-23
-9.65675e-24
1.1005e-23
-1.77862e-23
1.15e-23
-1.37035e-23
5.76598e-24
-1.10883e-24
-3.33789e-24
-2.70143e-23
-1.25103e-23
-3.30138e-23
-8.96848e-24
-2.79707e-23
-6.89135e-24
-2.65901e-23
-7.07054e-24
-3.28945e-23
-4.03061e-24
-4.81261e-23
-1.89278e-24
1.14389e-23
-1.1808e-24
1.18622e-23
-5.00306e-24
-6.1175e-24
-9.03237e-24
4.83475e-23
-3.87227e-24
3.2347e-23
-8.02139e-24
5.31195e-24
-1.58494e-23
9.8899e-24
-1.29394e-23
1.14445e-23
-9.88197e-24
7.82374e-26
-1.0066e-23
-6.0091e-24
7.14509e-23
4.36565e-23
-4.43831e-23
5.70415e-23
6.05935e-23
5.20264e-23
7.23516e-23
-1.21766e-24
5.61785e-23
3.32332e-23
5.72512e-23
2.60771e-23
4.93621e-23
1.172e-23
5.96612e-23
9.48918e-24
3.87981e-23
6.39615e-23
5.69807e-23
4.07379e-23
5.11693e-23
4.48095e-23
4.4789e-23
2.86831e-23
4.46815e-23
1.40221e-23
4.83292e-23
4.03859e-23
3.82255e-23
-8.13943e-24
3.65868e-23
5.47227e-23
4.80566e-23
2.79943e-23
1.86704e-23
1.56522e-23
1.57641e-23
3.83587e-24
3.16333e-23
-2.2724e-24
1.65625e-23
-4.82055e-24
1.03303e-23
-4.91552e-24
1.0068e-23
9.15113e-25
3.18033e-24
-2.00626e-23
-5.85435e-24
-4.50084e-23
-2.72439e-24
-4.6713e-23
3.70366e-24
-1.80698e-23
-2.58482e-24
-1.33864e-23
-1.07381e-23
-6.89692e-24
-6.6752e-24
-5.50881e-24
-7.749e-24
1.01122e-24
-5.43858e-24
-2.47228e-23
-1.03372e-23
-2.1899e-23
-1.02741e-23
-1.1563e-23
-1.52959e-23
-7.77834e-25
-1.96938e-23
2.16244e-23
-2.5486e-23
5.24068e-24
-2.645e-23
1.32943e-23
-2.82768e-23
2.11572e-23
-1.87233e-23
-7.24065e-24
-1.84654e-23
4.88599e-23
-2.17058e-23
-2.19713e-23
7.78971e-23
8.07018e-23
-4.68135e-23
6.60354e-23
7.24405e-23
5.05006e-23
7.92311e-23
5.32708e-24
3.04439e-23
2.04645e-23
3.99475e-23
3.8454e-23
3.80622e-23
-7.34449e-24
3.67794e-23
4.41146e-23
5.74838e-23
3.22661e-23
6.71276e-23
2.77641e-23
5.41956e-23
3.08272e-23
3.96474e-23
5.0961e-23
2.44616e-23
-9.81448e-24
1.15068e-23
3.06385e-23
3.63827e-23
2.37932e-23
4.75283e-23
1.6529e-23
4.83271e-23
1.72778e-23
4.71147e-23
3.73243e-23
2.65824e-23
-2.47443e-23
3.45481e-24
-1.37139e-23
4.45795e-24
-1.4965e-23
7.9035e-24
-3.5596e-23
-4.57236e-24
-3.48108e-23
5.58966e-24
-4.68483e-23
4.81756e-24
-3.72456e-23
-7.92412e-24
-5.33689e-23
-1.1587e-23
-4.17535e-23
-6.746e-24
-2.83594e-24
-2.34683e-24
-2.87305e-23
-1.11694e-23
-2.04047e-23
-7.23351e-24
-9.27186e-24
-9.26738e-24
-3.30899e-23
-4.31005e-24
-6.40083e-23
-1.64434e-23
-6.01261e-23
-1.61419e-23
-3.57744e-23
-9.90324e-24
-1.37578e-23
-3.28321e-24
6.48876e-25
-5.38524e-24
5.51369e-23
6.10537e-24
4.11765e-23
6.84742e-25
2.97202e-23
-2.07058e-24
-1.53257e-23
-5.10069e-24
-2.10586e-25
6.36728e-23
5.5726e-23
-3.05254e-23
7.75841e-23
4.84665e-23
2.77996e-23
5.91972e-23
3.48339e-23
9.28844e-23
7.56268e-24
6.85118e-23
3.73031e-23
8.10939e-23
2.47078e-23
5.47012e-23
3.40755e-23
6.13193e-23
8.61038e-24
2.22921e-23
2.71184e-23
3.76606e-23
2.47189e-24
4.61624e-23
3.54758e-23
2.86475e-23
1.81435e-23
4.6092e-23
3.8432e-23
5.46383e-23
3.71721e-23
4.56181e-23
-3.24651e-25
4.30176e-23
-1.39971e-23
1.48529e-23
-1.27869e-24
1.85446e-23
-9.0449e-24
9.78079e-24
-2.03589e-23
1.17738e-23
-1.8024e-23
1.20657e-24
-2.06774e-23
-5.90719e-24
-4.05871e-23
-1.24583e-23
-5.44858e-23
-1.95844e-23
-5.83797e-23
-7.1029e-24
-3.9785e-23
-1.12034e-23
-5.93163e-23
-2.00486e-23
-3.18847e-23
-2.16823e-23
-1.36937e-23
-2.01499e-23
-3.20282e-23
-2.50517e-23
-7.06403e-24
-2.08727e-23
-6.41752e-23
-2.25209e-23
-4.68874e-23
-1.76758e-23
3.27594e-24
-1.15986e-23
5.26359e-24
-6.81815e-24
4.22061e-23
-2.59341e-24
3.86097e-23
-4.86151e-24
2.01081e-23
-9.31475e-24
3.20189e-23
-1.04885e-23
4.81259e-23
-6.23507e-24
1.9131e-23
-6.62925e-24
-8.73785e-24
4.98576e-23
8.63879e-23
-9.03682e-24
7.45825e-23
9.03642e-23
6.61433e-23
6.45471e-23
2.50073e-23
5.90629e-23
2.39183e-23
6.62992e-23
2.09283e-23
8.09538e-23
4.73666e-23
9.6112e-23
-1.04328e-23
4.97463e-23
3.09456e-23
5.13065e-23
5.00878e-23
8.73418e-23
-2.76428e-23
7.04567e-23
5.04369e-23
6.02389e-23
4.77763e-23
4.31443e-23
2.53129e-23
2.70261e-23
3.8202e-23
3.56798e-23
-3.42607e-23
2.248e-23
-3.20871e-23
1.05134e-23
-1.516e-23
4.84787e-25
-1.76819e-23
1.09624e-23
-3.02552e-23
1.95845e-23
-4.97342e-23
1.95259e-23
-2.16206e-23
2.23662e-24
-2.28194e-23
-1.45617e-23
-3.04501e-23
-1.72777e-23
-5.00082e-23
-3.16712e-23
-6.49698e-23
-3.45482e-23
-5.47914e-23
-2.74873e-23
-4.46929e-23
-2.39869e-23
-3.32108e-23
-2.84792e-23
2.47084e-24
-1.9569e-23
-3.9101e-23
-1.83356e-23
-4.42202e-23
-1.10239e-23
-8.46081e-24
-1.71346e-24
2.19845e-23
-3.77233e-25
8.73237e-24
5.94582e-24
4.60791e-24
1.56195e-24
6.69047e-24
2.36836e-24
3.03726e-23
7.35736e-24
4.12794e-23
9.2323e-24
7.23422e-23
3.55752e-24
3.62211e-23
-7.94866e-25
3.41983e-24
3.54117e-23
6.77349e-23
-1.31829e-23
6.02099e-23
7.04458e-23
6.45683e-23
6.5023e-23
4.21114e-23
7.30352e-23
2.70608e-23
7.20561e-23
3.26268e-23
6.96734e-23
6.16667e-24
5.04632e-23
-1.55303e-23
6.73265e-23
5.52036e-23
5.03357e-23
4.19378e-23
3.2612e-23
-3.43379e-23
2.50733e-23
2.81776e-23
3.78348e-23
2.30821e-23
5.11408e-23
2.57369e-23
3.08266e-23
1.81691e-23
7.15761e-24
-5.02808e-23
-1.95481e-24
-5.09934e-23
9.24523e-24
-3.99775e-24
3.16268e-23
4.35152e-26
1.00226e-23
-2.46935e-23
4.77971e-24
-8.46603e-23
-2.75708e-24
-8.23273e-23
-6.75895e-24
-4.51562e-23
-1.68216e-23
-8.79556e-23
-1.66182e-23
-6.27782e-23
-1.83447e-23
-3.43832e-23
-2.18284e-23
-4.97136e-23
-1.31415e-23
-6.65551e-23
-4.86775e-24
-5.53222e-26
1.48383e-24
2.81612e-23
-1.97831e-24
2.13135e-23
-6.69733e-24
-1.26281e-23
-4.62704e-24
2.82599e-23
-6.68821e-24
9.09428e-24
-1.14718e-23
1.67312e-23
-3.09422e-24
1.67726e-23
-5.98285e-24
2.40615e-23
-7.57452e-24
3.71061e-23
-6.12356e-24
1.72258e-23
-8.24949e-24
3.60392e-23
-1.443e-23
6.17494e-23
-1.76041e-23
-2.54846e-23
2.01035e-23
5.36292e-23
-2.17106e-23
4.02959e-23
5.27159e-23
6.98911e-23
4.54063e-23
5.28605e-23
7.62009e-23
2.1709e-23
8.37475e-23
1.5359e-23
6.0715e-23
2.17014e-23
3.87791e-23
-3.55142e-23
5.47208e-23
2.43234e-23
6.25921e-23
1.27524e-23
4.6949e-23
2.29801e-24
3.39565e-23
1.36109e-23
2.45755e-23
2.78275e-24
1.33147e-23
-1.68858e-23
1.10931e-23
-2.95064e-24
-1.91042e-25
-7.44015e-24
7.5768e-24
-3.08229e-23
-6.82401e-24
-2.57425e-23
-1.73037e-23
-1.75042e-23
5.17082e-24
-1.42034e-23
5.76273e-24
-1.04319e-22
-8.29863e-24
-9.88168e-23
-1.58187e-23
-7.21804e-23
-1.13471e-23
-8.13875e-23
-1.9193e-23
-7.27309e-23
-2.47932e-23
-1.694e-23
-2.14692e-24
-2.82519e-23
-2.36639e-24
-2.75549e-23
-3.53708e-24
-2.45109e-23
3.28998e-25
8.21646e-24
5.94187e-24
5.46736e-24
-5.38162e-25
7.23484e-24
-1.12385e-24
5.92794e-24
-5.29594e-24
3.25992e-23
-2.93774e-25
3.08706e-23
8.0591e-25
2.36371e-23
2.81206e-25
2.3118e-23
-3.19321e-24
1.44386e-23
1.52679e-24
-3.43012e-23
3.51562e-24
-1.15282e-23
-3.92448e-24
-1.34725e-23
-5.18117e-24
-1.01681e-23
1.7359e-23
-2.98069e-24
-3.42251e-23
2.99958e-23
4.34429e-23
8.16191e-23
6.41915e-23
5.95667e-23
8.4486e-23
1.3899e-23
4.87022e-23
-9.60595e-24
6.75209e-23
3.48833e-23
6.69253e-23
-2.82765e-23
5.04912e-23
-6.63782e-25
3.3163e-23
-2.71325e-24
5.67996e-23
1.69517e-24
3.31004e-23
-8.94009e-24
1.49268e-23
3.88054e-24
6.1561e-24
-4.24196e-23
8.2635e-24
-7.27314e-24
3.39e-24
-2.7951e-23
-6.55481e-24
-5.39549e-23
-2.21958e-23
-8.00119e-24
-1.40871e-23
-1.73366e-23
-2.96527e-23
-5.52853e-23
-5.01552e-23
-1.0751e-22
-4.55844e-23
-8.47373e-23
-2.93427e-23
-1.10567e-22
-2.22934e-23
-9.35855e-23
-4.51231e-24
-1.14089e-24
1.20016e-23
-2.24319e-23
1.02604e-23
-4.22259e-23
5.95319e-24
1.69842e-23
1.67304e-23
5.88057e-25
1.01723e-23
-2.47292e-24
8.62367e-24
-1.58326e-23
1.09954e-23
1.28138e-23
9.64345e-24
3.23672e-23
1.37743e-23
2.45884e-23
7.83457e-24
5.73712e-23
6.48e-24
1.89731e-23
9.51544e-25
1.69468e-23
6.58599e-24
2.40596e-23
3.91887e-24
-3.5966e-23
-6.89108e-24
-1.81828e-23
-1.12919e-23
-2.43885e-23
-1.85735e-23
-1.94122e-23
5.27446e-23
5.71818e-23
-4.35055e-23
3.93554e-23
5.76144e-23
8.87272e-23
8.27769e-23
3.51826e-23
5.90604e-23
2.22456e-23
4.29649e-23
-1.11627e-23
3.04977e-23
1.20145e-23
3.37087e-23
-3.09293e-23
2.0786e-23
2.79303e-23
4.51137e-23
-3.58867e-23
4.65917e-23
-3.64256e-23
2.92869e-23
-1.5992e-23
-1.21935e-24
-4.97852e-24
-8.16861e-24
-2.97502e-23
-1.41846e-23
-4.47393e-23
-6.98542e-24
-3.90445e-23
-6.43107e-24
-4.42947e-23
-1.03086e-23
-3.11598e-23
-2.29227e-23
-5.36525e-23
-3.24576e-23
-3.83542e-23
-1.91497e-23
-5.28103e-23
-2.10122e-23
-4.94246e-23
-2.41035e-23
-6.1816e-23
-9.78436e-24
-2.28697e-23
1.68528e-24
-1.57967e-23
-6.89726e-25
-9.36929e-24
-5.6667e-24
-7.61742e-24
-7.07474e-24
4.40066e-24
-3.4075e-24
1.56548e-24
1.39296e-24
-8.9296e-26
-1.96755e-24
8.32257e-24
-1.24683e-24
1.84841e-24
1.00723e-23
4.33794e-24
4.42807e-24
5.78603e-24
3.75742e-24
1.53642e-23
2.27137e-25
2.20199e-23
-7.0676e-24
3.34399e-23
-4.16638e-24
-3.75512e-23
-1.27795e-23
-6.56572e-23
-1.34107e-23
-7.63826e-23
-2.70862e-23
-7.17393e-23
-1.63016e-23
-1.23361e-23
6.05416e-23
7.90247e-23
-7.21422e-23
5.46311e-23
7.05613e-23
6.27698e-23
7.90497e-23
2.77636e-23
1.95619e-23
2.18612e-23
3.54009e-23
-2.94335e-24
4.22891e-23
-1.41699e-23
3.50192e-23
-4.96961e-24
5.99882e-24
2.11115e-23
1.24e-23
-5.27538e-23
-8.96742e-24
-7.08196e-23
-2.47524e-23
-4.55164e-23
-2.2231e-23
-1.93447e-23
-2.46364e-23
-8.86631e-24
-1.37677e-23
-4.81255e-23
-7.45015e-24
-1.72105e-23
1.66002e-24
-6.89629e-23
-1.90984e-24
-4.7765e-23
-6.00023e-24
-3.18063e-23
1.67731e-24
-3.01756e-23
-1.25236e-23
-3.58517e-23
-1.15834e-23
-7.18971e-24
-8.28817e-24
-3.5321e-23
-1.21991e-23
-2.59083e-23
-1.30476e-23
-5.02892e-23
-1.08907e-23
-2.32433e-23
-3.1652e-24
6.59807e-24
1.30474e-24
4.48034e-24
-1.00319e-23
5.22246e-24
-4.57542e-24
2.81665e-24
-4.86197e-24
3.04002e-23
2.7488e-24
-2.52808e-24
-3.99996e-24
3.11251e-24
-6.12365e-24
-2.22127e-23
-4.79927e-24
-1.22433e-23
-1.159e-23
1.9101e-23
-8.85559e-24
-4.90835e-23
-1.23455e-23
-8.36845e-23
-1.50946e-23
-9.38888e-23
6.08951e-25
-3.84657e-23
9.79488e-24
-1.18407e-23
3.30311e-24
1.70438e-24
5.46539e-23
9.15051e-23
-5.71376e-23
5.505e-23
7.45558e-23
2.6081e-23
3.29251e-23
5.22608e-23
6.66805e-23
3.08865e-23
6.81615e-23
7.79957e-24
5.70396e-23
-2.98917e-23
6.16795e-23
-7.23033e-24
5.29784e-23
5.97021e-25
7.50181e-24
-5.96908e-23
-2.18259e-23
-6.77618e-23
-2.33734e-23
-5.63282e-23
-2.80459e-23
-2.44819e-24
-1.147e-23
-1.95708e-25
-1.04816e-23
-6.36774e-24
8.33978e-24
-1.53189e-23
1.72901e-23
-6.65555e-23
6.42242e-24
-3.75968e-23
1.25149e-23
-4.63646e-23
9.14589e-24
-1.34166e-23
2.88533e-24
-2.49912e-23
-5.59509e-24
-2.64567e-23
-6.00387e-24
-2.48011e-23
-1.29067e-23
-2.18042e-23
-1.04119e-23
-2.227e-23
-1.34105e-23
-1.64898e-23
-1.78834e-23
-6.59921e-24
-1.11158e-23
2.13947e-23
-5.21872e-24
1.52794e-23
-8.57465e-24
1.82901e-23
-2.10467e-23
-5.75603e-24
-2.29803e-23
5.6477e-24
-1.85452e-23
9.70108e-24
-1.94045e-23
-5.15599e-23
-2.19957e-23
-1.34877e-23
-1.86961e-23
7.53835e-24
-2.57881e-23
-3.59699e-24
-2.3284e-23
4.01098e-23
-1.28882e-23
8.68337e-24
-1.45079e-23
-5.85157e-23
-1.85544e-23
-4.07176e-23
-1.20787e-23
-7.95175e-23
-1.24775e-23
-1.1599e-23
4.33947e-23
9.56654e-23
-4.46301e-23
3.18136e-23
8.53931e-23
4.63153e-23
8.96479e-23
5.7155e-23
6.12968e-23
4.02419e-23
7.79992e-23
1.39922e-23
6.98441e-23
-3.36526e-23
3.71476e-23
-6.21932e-23
1.00173e-23
-1.72334e-23
3.27823e-23
-4.40078e-23
7.07091e-24
-6.61538e-23
2.17294e-24
-3.15266e-23
6.75932e-24
6.75827e-24
2.30023e-23
5.04633e-23
1.78519e-23
2.05897e-23
-2.17722e-25
-3.45662e-23
-2.14967e-23
-4.0126e-23
-2.42141e-23
-3.73013e-23
-2.49318e-23
-7.58441e-23
-2.87687e-23
-4.28197e-23
-2.78893e-23
-2.7149e-23
-1.97065e-23
-3.68175e-23
-2.60707e-23
-3.0746e-23
-1.17044e-23
-2.6287e-23
-8.72407e-24
-3.47409e-23
-1.01765e-23
3.97134e-24
-1.17631e-23
1.02856e-23
-1.88429e-23
-1.83566e-23
-1.60314e-23
-1.66175e-23
-1.71121e-23
7.78221e-24
-1.18288e-23
-9.46314e-24
-1.03983e-23
1.25e-23
-2.84374e-24
-3.38925e-24
-8.38462e-24
-1.49237e-23
-1.18996e-23
-3.34036e-23
-6.9645e-24
2.13577e-23
-3.5604e-24
4.34691e-24
-5.41799e-24
-3.47302e-24
-6.27473e-24
-9.50086e-24
-8.49684e-24
-5.14778e-23
-8.32527e-24
-3.50911e-23
-5.63997e-24
-4.19006e-23
-5.298e-24
-5.59075e-23
-4.12265e-24
-2.98712e-24
3.18611e-23
1.06507e-22
-4.69757e-23
2.43049e-23
8.71253e-23
1.92022e-23
9.35688e-23
6.5677e-23
8.47414e-23
3.25914e-23
3.75113e-23
-1.19441e-23
-1.18896e-23
-6.78188e-23
-3.50192e-23
-4.43429e-23
-2.48691e-23
-4.02038e-23
1.3379e-23
-3.8761e-23
8.30111e-24
-5.39785e-23
2.14274e-23
-3.23199e-24
2.80952e-23
4.27861e-24
2.24753e-23
1.44441e-23
1.86971e-23
-1.09444e-23
-1.45862e-23
-4.12652e-23
-2.77736e-23
-2.6131e-23
-2.91578e-23
-5.28492e-23
-3.00833e-23
-6.91173e-23
-1.76283e-23
-9.04799e-24
4.00301e-24
-4.76268e-23
9.64892e-24
7.92473e-24
1.10723e-23
-6.5343e-24
-1.52797e-24
-3.91421e-23
-9.96238e-24
-7.21358e-24
-4.15691e-24
-2.32927e-23
3.97242e-24
4.10941e-23
6.76986e-24
-9.29989e-24
-4.75653e-24
2.20159e-23
-4.68879e-24
1.01116e-23
-2.12155e-23
2.00989e-23
-1.99775e-23
6.42379e-24
-3.21296e-23
-7.88134e-24
-3.33197e-23
-1.61198e-24
-1.81268e-23
-1.49051e-24
-9.11603e-24
-1.08389e-24
-7.20394e-24
-1.88174e-24
-3.42139e-24
-1.07764e-23
-4.22102e-25
-8.15299e-24
-5.25494e-24
-5.08759e-24
-7.47306e-24
-1.89026e-23
-5.53778e-24
-1.69281e-23
-4.90138e-24
-4.53304e-23
-9.18184e-24
-1.12885e-23
5.81556e-24
8.28613e-23
-5.74218e-23
1.17616e-23
7.09522e-23
4.01094e-24
8.90791e-23
2.10313e-23
6.33549e-23
4.45812e-24
4.53752e-23
-2.24249e-23
3.71875e-24
-6.06876e-23
-6.90313e-24
5.09537e-25
-1.51264e-23
-3.95516e-23
-1.56435e-23
-1.95314e-23
-1.57818e-23
-3.76995e-23
-3.47927e-23
-1.76997e-23
1.12125e-24
-9.15286e-25
6.31986e-26
-3.39296e-23
-1.43039e-23
-3.26311e-23
-1.69958e-23
-3.74411e-23
-1.72583e-23
-1.96803e-23
-4.72761e-24
-1.23414e-23
3.09723e-24
3.4663e-24
3.83282e-24
-4.12467e-24
-5.46508e-26
-1.1414e-23
6.15311e-24
-1.7196e-23
1.26733e-23
-3.60914e-23
1.48113e-23
-2.20995e-23
1.92443e-23
9.12818e-24
9.97699e-24
-3.47691e-24
1.19614e-23
-7.1219e-24
1.12017e-23
-1.56086e-23
1.00187e-23
-6.21889e-23
3.43091e-24
-8.75132e-24
7.95763e-24
-3.45977e-23
7.34298e-24
1.49604e-23
1.01544e-23
6.44199e-23
2.49467e-24
5.6344e-23
-5.71507e-24
5.74415e-23
-1.06079e-23
5.39865e-23
-9.99392e-24
5.17162e-23
-8.64704e-24
-2.70258e-23
-1.62343e-23
-2.02185e-23
-1.29616e-23
-8.74188e-24
-1.57471e-23
-2.57594e-23
-2.27452e-23
-5.57138e-23
-1.78666e-23
-9.13087e-23
-1.65858e-23
-7.98459e-23
-1.1843e-23
-7.50085e-24
-5.61918e-24
3.07418e-23
-1.69984e-23
1.10314e-23
4.5734e-23
-2.10927e-23
4.88554e-23
-3.93277e-24
4.24561e-23
-1.80323e-23
-1.01491e-23
-1.70103e-23
-5.86372e-24
-4.54498e-23
1.15922e-23
6.73329e-24
5.70456e-23
-2.13743e-23
1.90284e-23
-4.81272e-23
-4.19736e-24
1.03388e-23
-2.10275e-23
-2.07455e-23
-3.76189e-23
-1.23346e-23
-1.34449e-23
-2.0111e-23
-1.00518e-23
-3.69603e-23
-5.58837e-24
-2.22973e-24
-3.55204e-24
-1.28651e-24
-6.52837e-24
-3.953e-24
-4.37589e-24
-3.2592e-25
-5.21755e-24
-6.73705e-24
-3.79609e-27
7.34251e-24
-4.47558e-24
-1.56231e-23
-9.22615e-24
-3.67081e-23
-2.37749e-24
-2.47863e-23
9.26684e-24
3.74132e-24
2.24087e-23
-1.56714e-24
1.61595e-23
-4.95832e-24
1.48902e-23
-7.91963e-24
1.29543e-23
-1.89972e-23
1.2513e-23
-1.76303e-23
1.00558e-23
-1.81744e-23
5.58458e-24
-5.90099e-23
1.17288e-23
3.05104e-24
2.09389e-23
-1.72377e-23
1.81534e-23
4.20885e-23
2.12562e-23
1.97188e-23
1.29481e-23
7.65881e-24
5.48309e-24
-1.47914e-23
1.01246e-23
-2.79154e-23
8.76475e-24
-3.51024e-23
-3.70227e-25
5.12798e-23
-6.23476e-24
-4.50533e-23
-1.55085e-23
-3.60986e-24
-1.78639e-23
-8.75424e-25
-1.53419e-23
-1.00767e-23
3.2349e-24
6.51805e-23
2.72973e-23
1.06256e-23
1.11533e-22
-2.14942e-23
7.19042e-23