/*--------------------------------*- C++ -*----------------------------------*\
  =========                 |
  \\      /  F ield         | OpenFOAM: The Open Source CFD Toolbox
   \\    /   O peration     | Website:  https://openfoam.org
    \\  /    A nd           | Version:  7
     \\/     M anipulation  |
\*---------------------------------------------------------------------------*/
FoamFile
{
    version     2.0;
    format      ascii;
    class       volScalarField;
    location    "280000";
    object      omega;
}
// * * * * * * * * * * * * * * * * * * * * * * * * * * * * * * * * * * * * * //

dimensions      [0 0 -1 0 0 0 0];

internalField   nonuniform List<scalar> 
38500
(
0.021725
0.0215711
0.0214261
0.0212897
0.021162
0.0210426
0.0209312
0.0208275
0.0207313
0.0206423
0.0205603
0.0204851
0.0204164
0.020354
0.0202977
0.0202472
0.0202025
0.0201633
0.0201293
0.0201006
0.0200769
0.020058
0.020044
0.0200347
0.02003
0.02003
0.0200347
0.020044
0.020058
0.0200769
0.0201006
0.0201293
0.0201633
0.0202025
0.0202472
0.0202977
0.020354
0.0204164
0.0204851
0.0205603
0.0206423
0.0207313
0.0208275
0.0209312
0.0210426
0.021162
0.0212898
0.0214261
0.0215711
0.021725
0.0219883
0.0218363
0.0216891
0.021548
0.0214144
0.0212886
0.0211707
0.0210605
0.020958
0.020863
0.0207751
0.0206943
0.0206204
0.020553
0.0204921
0.0204374
0.0203888
0.020346
0.020309
0.0202776
0.0202516
0.0202309
0.0202155
0.0202053
0.0202002
0.0202002
0.0202053
0.0202155
0.0202309
0.0202516
0.0202776
0.020309
0.020346
0.0203888
0.0204374
0.0204921
0.020553
0.0206204
0.0206943
0.0207751
0.020863
0.020958
0.0210605
0.0211707
0.0212886
0.0214144
0.021548
0.0216891
0.0218364
0.0219884
0.0222797
0.0221199
0.0219678
0.0218219
0.0216829
0.0215513
0.0214273
0.021311
0.0212024
0.0211013
0.0210077
0.0209214
0.0208421
0.0207698
0.0207042
0.0206453
0.0205927
0.0205465
0.0205063
0.0204722
0.0204439
0.0204214
0.0204047
0.0203935
0.0203879
0.0203879
0.0203935
0.0204047
0.0204214
0.0204439
0.0204722
0.0205063
0.0205465
0.0205927
0.0206453
0.0207042
0.0207698
0.0208421
0.0209214
0.0210077
0.0211014
0.0212024
0.021311
0.0214273
0.0215513
0.0216829
0.0218219
0.0219678
0.0221199
0.0222798
0.0225892
0.0224209
0.0222618
0.0221101
0.0219654
0.0218282
0.0216984
0.0215763
0.0214619
0.0213552
0.021256
0.0211643
0.02108
0.0210029
0.0209329
0.0208698
0.0208134
0.0207637
0.0207206
0.0206838
0.0206534
0.0206291
0.020611
0.0205989
0.0205929
0.0205929
0.0205989
0.020611
0.0206291
0.0206534
0.0206838
0.0207206
0.0207637
0.0208134
0.0208698
0.0209329
0.0210029
0.02108
0.0211643
0.021256
0.0213552
0.0214619
0.0215763
0.0216984
0.0218282
0.0219654
0.0221101
0.0222619
0.0224209
0.0225892
0.0229144
0.0227382
0.0225717
0.0224132
0.0222625
0.0221194
0.0219839
0.0218561
0.0217362
0.021624
0.0215195
0.0214228
0.0213336
0.0212519
0.0211775
0.0211104
0.0210504
0.0209975
0.0209514
0.0209121
0.0208795
0.0208535
0.0208341
0.0208212
0.0208147
0.0208147
0.0208212
0.0208341
0.0208535
0.0208795
0.0209121
0.0209514
0.0209975
0.0210504
0.0211104
0.0211775
0.0212519
0.0213336
0.0214228
0.0215195
0.021624
0.0217362
0.0218561
0.0219839
0.0221194
0.0222625
0.0224132
0.0225717
0.0227382
0.0229144
0.0232544
0.0230707
0.0228969
0.0227315
0.0225744
0.0224252
0.0222839
0.0221505
0.0220251
0.0219076
0.0217981
0.0216964
0.0216025
0.0215163
0.0214378
0.0213669
0.0213034
0.0212472
0.0211983
0.0211566
0.0211219
0.0210943
0.0210736
0.0210599
0.021053
0.021053
0.0210599
0.0210736
0.0210943
0.0211219
0.0211566
0.0211983
0.0212472
0.0213034
0.0213669
0.0214378
0.0215163
0.0216025
0.0216964
0.0217981
0.0219076
0.0220251
0.0221505
0.0222839
0.0224252
0.0225744
0.0227316
0.0228969
0.0230707
0.0232544
0.0236085
0.0234177
0.0232368
0.0230646
0.0229009
0.0227456
0.0225984
0.0224594
0.0223286
0.0222059
0.0220914
0.0219849
0.0218865
0.021796
0.0217135
0.0216388
0.0215719
0.0215127
0.0214611
0.021417
0.0213803
0.0213511
0.0213292
0.0213147
0.0213074
0.0213074
0.0213147
0.0213292
0.0213511
0.0213803
0.021417
0.0214611
0.0215127
0.0215719
0.0216388
0.0217135
0.021796
0.0218865
0.0219849
0.0220914
0.0222059
0.0223286
0.0224594
0.0225984
0.0227456
0.0229009
0.0230646
0.0232368
0.0234177
0.0236085
0.0239761
0.0237784
0.0235907
0.0234119
0.0232418
0.0230803
0.0229273
0.0227827
0.0226465
0.0225187
0.0223992
0.0222881
0.0221852
0.0220906
0.0220042
0.0219259
0.0218557
0.0217935
0.0217392
0.0216928
0.0216543
0.0216235
0.0216005
0.0215851
0.0215775
0.0215775
0.0215851
0.0216005
0.0216235
0.0216543
0.0216928
0.0217392
0.0217935
0.0218557
0.0219259
0.0220042
0.0220906
0.0221852
0.0222881
0.0223992
0.0225187
0.0226465
0.0227827
0.0229273
0.0230803
0.0232418
0.0234119
0.0235907
0.0237784
0.0239762
0.0243569
0.0241525
0.0239582
0.0237729
0.0235966
0.023429
0.0232702
0.0231201
0.0229786
0.0228457
0.0227214
0.0226056
0.0224984
0.0223997
0.0223095
0.0222277
0.0221543
0.0220892
0.0220324
0.0219838
0.0219434
0.0219112
0.021887
0.0218709
0.0218628
0.0218628
0.0218709
0.021887
0.0219112
0.0219434
0.0219838
0.0220324
0.0220892
0.0221543
0.0222277
0.0223095
0.0223998
0.0224984
0.0226056
0.0227214
0.0228457
0.0229786
0.0231201
0.0232702
0.023429
0.0235966
0.023773
0.0239583
0.0241525
0.0243569
0.0247504
0.0245396
0.0243389
0.0241473
0.0239648
0.0237914
0.0236268
0.0234712
0.0233245
0.0231866
0.0230575
0.0229373
0.0228259
0.0227232
0.0226293
0.0225441
0.0224675
0.0223997
0.0223404
0.0222896
0.0222474
0.0222137
0.0221884
0.0221716
0.0221632
0.0221632
0.0221716
0.0221884
0.0222137
0.0222474
0.0222896
0.0223404
0.0223997
0.0224675
0.0225441
0.0226293
0.0227232
0.0228259
0.0229373
0.0230575
0.0231866
0.0233245
0.0234712
0.0236268
0.0237914
0.0239648
0.0241474
0.0243389
0.0245396
0.0247504
0.0251563
0.0249392
0.0247324
0.0245347
0.0243462
0.0241669
0.0239968
0.0238358
0.0236839
0.0235411
0.0234074
0.0232828
0.0231672
0.0230606
0.0229631
0.0228746
0.022795
0.0227244
0.0226627
0.0226098
0.0225659
0.0225307
0.0225044
0.0224868
0.0224781
0.0224781
0.0224868
0.0225044
0.0225307
0.0225659
0.0226098
0.0226627
0.0227244
0.022795
0.0228746
0.0229631
0.0230606
0.0231672
0.0232828
0.0234074
0.0235412
0.023684
0.0238358
0.0239968
0.024167
0.0243462
0.0245347
0.0247324
0.0249392
0.0251563
0.0255743
0.0253512
0.0251383
0.0249347
0.0247404
0.0245555
0.0243799
0.0242136
0.0240567
0.023909
0.0237708
0.0236418
0.0235221
0.0234117
0.0233107
0.0232189
0.0231363
0.0230631
0.022999
0.0229441
0.0228985
0.022862
0.0228346
0.0228163
0.0228072
0.0228072
0.0228163
0.0228346
0.022862
0.0228985
0.0229441
0.022999
0.0230631
0.0231363
0.0232189
0.0233107
0.0234117
0.0235221
0.0236418
0.0237708
0.0239091
0.0240567
0.0242136
0.0243799
0.0245555
0.0247404
0.0249347
0.0251383
0.0253512
0.0255743
0.0260043
0.0257752
0.0255564
0.025347
0.025147
0.0249566
0.0247756
0.0246042
0.0244423
0.02429
0.0241472
0.024014
0.0238903
0.0237762
0.0236717
0.0235767
0.0234913
0.0234154
0.0233491
0.0232922
0.0232449
0.023207
0.0231786
0.0231597
0.0231503
0.0231503
0.0231597
0.0231786
0.023207
0.0232449
0.0232922
0.0233491
0.0234154
0.0234913
0.0235767
0.0236717
0.0237762
0.0238903
0.024014
0.0241472
0.02429
0.0244423
0.0246042
0.0247756
0.0249566
0.0251471
0.025347
0.0255564
0.0257752
0.0260043
0.0264459
0.026211
0.0259865
0.0257714
0.0255659
0.02537
0.0251839
0.0250074
0.0248407
0.0246837
0.0245365
0.0243991
0.0242715
0.0241538
0.0240459
0.0239478
0.0238595
0.0237811
0.0237125
0.0236537
0.0236048
0.0235656
0.0235363
0.0235167
0.0235069
0.0235069
0.0235167
0.0235363
0.0235656
0.0236048
0.0236537
0.0237125
0.0237811
0.0238595
0.0239478
0.0240459
0.0241538
0.0242716
0.0243991
0.0245365
0.0246837
0.0248407
0.0250074
0.0251839
0.0253701
0.0255659
0.0257714
0.0259865
0.026211
0.0264459
0.0268991
0.0266584
0.0264283
0.0262077
0.0259967
0.0257956
0.0256043
0.0254229
0.0252514
0.0250899
0.0249384
0.0247969
0.0246655
0.0245442
0.024433
0.0243318
0.0242408
0.0241599
0.0240891
0.0240284
0.0239779
0.0239375
0.0239071
0.0238869
0.0238768
0.0238768
0.0238869
0.0239071
0.0239375
0.0239779
0.0240284
0.0240891
0.0241599
0.0242408
0.0243318
0.024433
0.0245442
0.0246655
0.0247969
0.0249384
0.0250899
0.0252514
0.0254229
0.0256043
0.0257956
0.0259968
0.0262077
0.0264283
0.0266585
0.0268991
0.0273635
0.0271173
0.0268816
0.0266556
0.0264394
0.026233
0.0260367
0.0258505
0.0256743
0.0255084
0.0253527
0.0252072
0.025072
0.0249472
0.0248327
0.0247286
0.0246348
0.0245515
0.0244786
0.024416
0.0243639
0.0243223
0.024291
0.0242702
0.0242598
0.0242598
0.0242702
0.024291
0.0243223
0.0243639
0.024416
0.0244786
0.0245515
0.0246348
0.0247286
0.0248327
0.0249472
0.025072
0.0252072
0.0253527
0.0255084
0.0256743
0.0258505
0.0260367
0.0262331
0.0264394
0.0266556
0.0268816
0.0271174
0.0273636
0.0278392
0.0275875
0.0273464
0.027115
0.0268936
0.0266822
0.0264809
0.0262899
0.0261092
0.0259389
0.025779
0.0256296
0.0254908
0.0253625
0.0252448
0.0251377
0.0250414
0.0249556
0.0248806
0.0248163
0.0247627
0.0247198
0.0246876
0.0246661
0.0246554
0.0246554
0.0246661
0.0246876
0.0247198
0.0247627
0.0248163
0.0248806
0.0249556
0.0250414
0.0251378
0.0252448
0.0253625
0.0254908
0.0256296
0.025779
0.0259389
0.0261092
0.0262899
0.0264809
0.0266822
0.0268936
0.027115
0.0273464
0.0275875
0.0278393
0.028326
0.0280689
0.0278224
0.0275858
0.0273592
0.0271428
0.0269367
0.026741
0.0265559
0.0263813
0.0262173
0.0260641
0.0259216
0.0257899
0.0256691
0.0255592
0.0254602
0.0253721
0.025295
0.0252289
0.0251738
0.0251298
0.0250967
0.0250746
0.0250636
0.0250636
0.0250746
0.0250967
0.0251298
0.0251738
0.0252289
0.025295
0.0253721
0.0254602
0.0255592
0.0256691
0.0257899
0.0259216
0.0260641
0.0262173
0.0263813
0.0265559
0.0267411
0.0269367
0.0271428
0.0273592
0.0275858
0.0278224
0.0280689
0.028326
0.0288238
0.0285613
0.0283095
0.0280677
0.0278361
0.0276148
0.027404
0.0272037
0.0270141
0.0268353
0.0266673
0.0265103
0.0263643
0.0262293
0.0261054
0.0259927
0.0258911
0.0258007
0.0257216
0.0256538
0.0255972
0.025552
0.025518
0.0254954
0.0254841
0.0254841
0.0254954
0.025518
0.025552
0.0255972
0.0256538
0.0257216
0.0258007
0.0258911
0.0259927
0.0261054
0.0262293
0.0263643
0.0265103
0.0266674
0.0268353
0.0270141
0.0272037
0.027404
0.0276148
0.0278361
0.0280678
0.0283095
0.0285613
0.0288238
0.0293325
0.0290647
0.0288077
0.0285608
0.0283242
0.0280981
0.0278826
0.0276778
0.0274838
0.0273009
0.027129
0.0269682
0.0268187
0.0266804
0.0265535
0.026438
0.0263339
0.0262413
0.0261602
0.0260907
0.0260327
0.0259863
0.0259514
0.0259282
0.0259166
0.0259166
0.0259282
0.0259514
0.0259863
0.0260327
0.0260907
0.0261602
0.0262413
0.0263339
0.026438
0.0265535
0.0266804
0.0268187
0.0269682
0.027129
0.0273009
0.0274838
0.0276778
0.0278826
0.0280981
0.0283242
0.0285609
0.0288078
0.0290648
0.0293325
0.0298521
0.0295791
0.0293169
0.029065
0.0288234
0.0285925
0.0283724
0.0281631
0.0279649
0.0277778
0.0276021
0.0274376
0.0272846
0.0271432
0.0270133
0.026895
0.0267885
0.0266936
0.0266106
0.0265394
0.02648
0.0264324
0.0263967
0.026373
0.0263611
0.0263611
0.026373
0.0263967
0.0264324
0.02648
0.0265394
0.0266106
0.0266936
0.0267885
0.026895
0.0270133
0.0271432
0.0272846
0.0274376
0.0276021
0.0277779
0.0279649
0.0281631
0.0283724
0.0285925
0.0288235
0.029065
0.0293169
0.0295791
0.0298521
0.0303826
0.0301043
0.029837
0.0295801
0.0293337
0.029098
0.0288733
0.0286596
0.0284572
0.0282661
0.0280865
0.0279184
0.027762
0.0276174
0.0274845
0.0273636
0.0272546
0.0271576
0.0270726
0.0269997
0.026939
0.0268903
0.0268538
0.0268294
0.0268173
0.0268173
0.0268294
0.0268538
0.0268903
0.026939
0.0269997
0.0270726
0.0271576
0.0272546
0.0273636
0.0274845
0.0276174
0.027762
0.0279184
0.0280865
0.0282661
0.0284572
0.0286596
0.0288733
0.029098
0.0293337
0.0295801
0.0298371
0.0301043
0.0303826
0.0309238
0.0306404
0.030368
0.0301061
0.0298549
0.0296146
0.0293853
0.0291673
0.0289606
0.0287656
0.0285821
0.0284105
0.0282507
0.028103
0.0279672
0.0278436
0.0277322
0.0276331
0.0275462
0.0274717
0.0274095
0.0273598
0.0273224
0.0272975
0.0272851
0.0272851
0.0272975
0.0273224
0.0273598
0.0274095
0.0274717
0.0275462
0.0276331
0.0277322
0.0278436
0.0279672
0.028103
0.0282507
0.0284105
0.0285821
0.0287656
0.0289607
0.0291673
0.0293853
0.0296146
0.0298549
0.0301061
0.0303681
0.0306404
0.0309238
0.0314759
0.0311874
0.0309099
0.0306431
0.0303871
0.0301421
0.0299083
0.029686
0.0294752
0.0292761
0.029089
0.0289138
0.0287507
0.0285998
0.0284612
0.028335
0.0282212
0.0281199
0.0280312
0.0279551
0.0278915
0.0278407
0.0278026
0.0277771
0.0277644
0.0277644
0.0277771
0.0278026
0.0278407
0.0278916
0.0279551
0.0280312
0.0281199
0.0282212
0.028335
0.0284612
0.0285998
0.0287507
0.0289138
0.029089
0.0292762
0.0294752
0.029686
0.0299083
0.0301421
0.0303871
0.0306431
0.03091
0.0311874
0.0314759
0.0320388
0.0317452
0.0314627
0.031191
0.0309302
0.0306805
0.0304423
0.0302157
0.0300008
0.0297978
0.0296069
0.0294282
0.0292619
0.0291079
0.0289665
0.0288376
0.0287215
0.0286181
0.0285275
0.0284498
0.0283849
0.028333
0.0282941
0.0282681
0.0282551
0.0282551
0.0282681
0.0282941
0.028333
0.0283849
0.0284498
0.0285275
0.0286181
0.0287215
0.0288377
0.0289665
0.0291079
0.0292619
0.0294282
0.0296069
0.0297978
0.0300008
0.0302157
0.0304423
0.0306805
0.0309302
0.031191
0.0314627
0.0317452
0.0320388
0.0326127
0.0323139
0.0320264
0.0317497
0.0314842
0.03123
0.0309873
0.0307564
0.0305374
0.0303306
0.030136
0.0299538
0.0297841
0.0296271
0.0294829
0.0293515
0.029233
0.0291275
0.0290351
0.0289558
0.0288896
0.0288367
0.0287969
0.0287704
0.0287571
0.0287571
0.0287704
0.0287969
0.0288367
0.0288896
0.0289558
0.0290351
0.0291275
0.029233
0.0293515
0.0294829
0.0296271
0.0297841
0.0299538
0.030136
0.0303306
0.0305374
0.0307564
0.0309873
0.03123
0.0314842
0.0317497
0.0320264
0.0323139
0.0326127
0.0331974
0.0328935
0.032601
0.0323195
0.0320492
0.0317904
0.0315433
0.0313081
0.0310851
0.0308743
0.0306761
0.0304904
0.0303175
0.0301575
0.0300105
0.0298765
0.0297557
0.0296482
0.0295539
0.029473
0.0294056
0.0293515
0.029311
0.0292839
0.0292704
0.0292704
0.0292839
0.029311
0.0293515
0.0294056
0.029473
0.0295539
0.0296482
0.0297557
0.0298765
0.0300105
0.0301575
0.0303175
0.0304904
0.0306761
0.0308743
0.0310851
0.0313081
0.0315433
0.0317904
0.0320492
0.0323195
0.032601
0.0328935
0.0331974
0.0337932
0.0334841
0.0331866
0.0329002
0.0326252
0.0323618
0.0321103
0.0318708
0.0316438
0.0314292
0.0312272
0.0310381
0.030862
0.030699
0.0305492
0.0304127
0.0302896
0.03018
0.0300839
0.0300015
0.0299327
0.0298776
0.0298363
0.0298087
0.0297949
0.0297949
0.0298087
0.0298363
0.0298776
0.0299327
0.0300015
0.0300839
0.03018
0.0302896
0.0304127
0.0305492
0.030699
0.030862
0.0310381
0.0312272
0.0314292
0.0316438
0.0318709
0.0321103
0.0323618
0.0326252
0.0329002
0.0331866
0.0334841
0.0337932
0.0344
0.0340858
0.0337833
0.033492
0.0332122
0.0329442
0.0326883
0.0324447
0.0322135
0.0319951
0.0317895
0.031597
0.0314176
0.0312516
0.031099
0.03096
0.0308346
0.0307229
0.0306251
0.0305411
0.030471
0.0304149
0.0303728
0.0303447
0.0303306
0.0303306
0.0303447
0.0303728
0.0304149
0.030471
0.0305411
0.0306251
0.0307229
0.0308346
0.03096
0.031099
0.0312516
0.0314176
0.031597
0.0317895
0.0319951
0.0322135
0.0324447
0.0326883
0.0329442
0.0332122
0.033492
0.0337833
0.0340858
0.0344
0.035018
0.0346987
0.0343911
0.0340949
0.0338104
0.0335378
0.0332775
0.0330296
0.0327944
0.0325721
0.0323629
0.0321669
0.0319843
0.0318153
0.03166
0.0315184
0.0313908
0.031277
0.0311774
0.0310919
0.0310205
0.0309633
0.0309205
0.0308918
0.0308775
0.0308775
0.0308918
0.0309205
0.0309633
0.0310205
0.0310919
0.0311774
0.031277
0.0313907
0.0315184
0.03166
0.0318153
0.0319843
0.0321669
0.0323629
0.0325721
0.0327944
0.0330296
0.0332775
0.0335378
0.0338104
0.0340949
0.0343911
0.0346987
0.035018
0.0356474
0.0353228
0.0350102
0.034709
0.0344197
0.0341426
0.0338778
0.0336257
0.0333864
0.0331603
0.0329474
0.032748
0.0325623
0.0323903
0.0322322
0.0320881
0.0319581
0.0318424
0.0317409
0.0316539
0.0315812
0.031523
0.0314794
0.0314502
0.0314357
0.0314357
0.0314502
0.0314794
0.031523
0.0315812
0.0316538
0.0317409
0.0318424
0.0319581
0.0320881
0.0322321
0.0323902
0.0325622
0.032748
0.0329474
0.0331603
0.0333864
0.0336257
0.0338778
0.0341426
0.0344197
0.034709
0.0350102
0.0353228
0.0356473
0.0362881
0.0359584
0.0356406
0.0353345
0.0350404
0.0347586
0.0344894
0.0342331
0.0339897
0.0337597
0.0335432
0.0333404
0.0331514
0.0329764
0.0328155
0.0326689
0.0325367
0.0324189
0.0323157
0.0322271
0.0321531
0.0320939
0.0320495
0.0320199
0.032005
0.032005
0.0320199
0.0320495
0.0320939
0.0321531
0.0322271
0.0323157
0.0324189
0.0325367
0.0326689
0.0328155
0.0329764
0.0331514
0.0333404
0.0335432
0.0337597
0.0339897
0.034233
0.0344894
0.0347586
0.0350404
0.0353345
0.0356406
0.0359583
0.0362881
0.0369404
0.0366054
0.0362825
0.0359715
0.0356726
0.0353861
0.0351125
0.0348518
0.0346044
0.0343705
0.0341504
0.0339441
0.0337519
0.0335739
0.0334102
0.0332611
0.0331266
0.0330068
0.0329018
0.0328116
0.0327364
0.0326762
0.0326309
0.0326008
0.0325857
0.0325857
0.0326008
0.0326309
0.0326762
0.0327364
0.0328116
0.0329018
0.0330068
0.0331266
0.0332611
0.0334102
0.0335739
0.0337518
0.0339441
0.0341503
0.0343705
0.0346044
0.0348518
0.0351124
0.0353861
0.0356726
0.0359715
0.0362825
0.0366054
0.0369404
0.0376045
0.0372642
0.0369361
0.03662
0.0363163
0.0360252
0.035747
0.035482
0.0352305
0.0349928
0.0347689
0.0345592
0.0343637
0.0341827
0.0340163
0.0338647
0.0337279
0.033606
0.0334992
0.0334075
0.033331
0.0332697
0.0332237
0.0331931
0.0331777
0.0331777
0.0331931
0.0332237
0.0332697
0.033331
0.0334075
0.0334992
0.033606
0.0337279
0.0338647
0.0340163
0.0341827
0.0343637
0.0345592
0.0347689
0.0349928
0.0352305
0.035482
0.035747
0.0360251
0.0363163
0.03662
0.0369361
0.0372642
0.0376045
0.0382805
0.0379348
0.0376015
0.0372803
0.0369717
0.0366759
0.0363932
0.0361239
0.0358683
0.0356266
0.035399
0.0351858
0.0349871
0.0348031
0.0346339
0.0344797
0.0343406
0.0342167
0.0341081
0.0340149
0.0339371
0.0338748
0.033828
0.0337968
0.0337812
0.0337812
0.0337968
0.033828
0.0338748
0.0339371
0.0340149
0.0341081
0.0342167
0.0343406
0.0344797
0.0346339
0.0348031
0.0349871
0.0351858
0.035399
0.0356266
0.0358683
0.0361239
0.0363931
0.0366758
0.0369717
0.0372803
0.0376015
0.0379348
0.0382805
0.0389686
0.0386174
0.0382788
0.0379526
0.037639
0.0373384
0.0370511
0.0367775
0.0365177
0.0362721
0.0360408
0.0358241
0.0356221
0.0354351
0.0352631
0.0351064
0.0349649
0.034839
0.0347286
0.0346338
0.0345547
0.0344913
0.0344438
0.0344121
0.0343962
0.0343962
0.0344121
0.0344438
0.0344913
0.0345547
0.0346338
0.0347286
0.034839
0.0349649
0.0351063
0.0352631
0.0354351
0.0356221
0.0358241
0.0360408
0.0362721
0.0365177
0.0367775
0.0370511
0.0373384
0.037639
0.0379526
0.0382788
0.0386174
0.0389685
0.0396689
0.0393123
0.0389684
0.0386369
0.0383184
0.038013
0.0377211
0.037443
0.0371791
0.0369295
0.0366944
0.0364742
0.0362689
0.0360788
0.035904
0.0357447
0.035601
0.0354729
0.0353607
0.0352644
0.035184
0.0351196
0.0350712
0.035039
0.0350229
0.0350229
0.035039
0.0350712
0.0351196
0.035184
0.0352644
0.0353607
0.0354729
0.035601
0.0357447
0.035904
0.0360788
0.0362689
0.0364742
0.0366944
0.0369295
0.0371791
0.037443
0.0377211
0.0380129
0.0383183
0.0386369
0.0389683
0.0393123
0.0396689
0.0403818
0.0400196
0.0396703
0.0393336
0.03901
0.0386997
0.0384032
0.0381207
0.0378525
0.0375989
0.0373601
0.0371363
0.0369277
0.0367345
0.0365569
0.036395
0.0362489
0.0361188
0.0360047
0.0359068
0.0358251
0.0357596
0.0357105
0.0356777
0.0356613
0.0356613
0.0356777
0.0357105
0.0357596
0.035825
0.0359068
0.0360047
0.0361187
0.0362489
0.0363949
0.0365568
0.0367345
0.0369276
0.0371362
0.03736
0.0375989
0.0378525
0.0381207
0.0384032
0.0386997
0.03901
0.0393336
0.0396702
0.0400196
0.0403818
0.0411074
0.0407396
0.0403848
0.0400428
0.0397141
0.0393989
0.0390977
0.0388107
0.0385382
0.0382805
0.0380379
0.0378105
0.0375985
0.0374022
0.0372217
0.0370572
0.0369088
0.0367766
0.0366607
0.0365611
0.0364781
0.0364116
0.0363617
0.0363284
0.0363117
0.0363117
0.0363284
0.0363617
0.0364116
0.0364781
0.0365611
0.0366606
0.0367765
0.0369088
0.0370572
0.0372217
0.0374022
0.0375985
0.0378104
0.0380378
0.0382805
0.0385382
0.0388107
0.0390977
0.0393989
0.039714
0.0400428
0.0403847
0.0407395
0.0411074
0.041846
0.0414724
0.0411121
0.0407648
0.0404308
0.0401107
0.0398047
0.0395131
0.0392363
0.0389746
0.038728
0.038497
0.0382817
0.0380822
0.0378989
0.0377317
0.0375809
0.0374465
0.0373288
0.0372277
0.0371433
0.0370757
0.037025
0.0369912
0.0369742
0.0369742
0.0369912
0.037025
0.0370757
0.0371433
0.0372277
0.0373288
0.0374465
0.0375809
0.0377317
0.0378988
0.0380822
0.0382816
0.038497
0.038728
0.0389745
0.0392363
0.0395131
0.0398047
0.0401107
0.0404308
0.0407647
0.0411121
0.0414724
0.041846
0.0425979
0.0422185
0.0418525
0.0414997
0.0411605
0.0408354
0.0405245
0.0402284
0.0399472
0.0396812
0.0394308
0.0391961
0.0389773
0.0387747
0.0385884
0.0384186
0.0382654
0.0381289
0.0380092
0.0379065
0.0378208
0.0377521
0.0377006
0.0376662
0.037649
0.037649
0.0376662
0.0377006
0.0377521
0.0378208
0.0379065
0.0380092
0.0381289
0.0382653
0.0384185
0.0385884
0.0387747
0.0389773
0.0391961
0.0394308
0.0396812
0.0399472
0.0402283
0.0405245
0.0408353
0.0411605
0.0414997
0.0418525
0.0422185
0.0425978
0.0433632
0.042978
0.0426062
0.0422479
0.0419034
0.0415731
0.0412574
0.0409565
0.0406709
0.0404008
0.0401463
0.0399079
0.0396857
0.0394799
0.0392906
0.0391181
0.0389624
0.0388238
0.0387022
0.0385979
0.0385108
0.038441
0.0383887
0.0383538
0.0383363
0.0383363
0.0383538
0.0383887
0.038441
0.0385108
0.0385978
0.0387022
0.0388237
0.0389624
0.039118
0.0392906
0.0394798
0.0396857
0.0399079
0.0401463
0.0404007
0.0406709
0.0409565
0.0412574
0.0415731
0.0419034
0.0422479
0.0426062
0.0429779
0.0433632
0.0441424
0.0437512
0.0433736
0.0430097
0.0426598
0.0423243
0.0420036
0.041698
0.0414078
0.0411334
0.0408749
0.0406328
0.040407
0.0401979
0.0400057
0.0398304
0.0396723
0.0395314
0.039408
0.039302
0.0392135
0.0391427
0.0390895
0.039054
0.0390363
0.0390363
0.039054
0.0390895
0.0391426
0.0392135
0.0393019
0.0394079
0.0395314
0.0396723
0.0398304
0.0400056
0.0401979
0.040407
0.0406327
0.0408749
0.0411334
0.0414078
0.0416979
0.0420035
0.0423242
0.0426597
0.0430097
0.0433736
0.0437511
0.0441424
0.0449357
0.0445384
0.0441549
0.0437852
0.0434298
0.043089
0.0427633
0.0424529
0.0421581
0.0418794
0.0416169
0.0413708
0.0411415
0.0409291
0.0407338
0.0405558
0.0403952
0.0402521
0.0401267
0.040019
0.0399292
0.0398572
0.0398032
0.0397672
0.0397491
0.0397491
0.0397672
0.0398032
0.0398572
0.0399292
0.040019
0.0401267
0.0402521
0.0403952
0.0405558
0.0407338
0.0409291
0.0411415
0.0413708
0.0416168
0.0418794
0.0421581
0.0424529
0.0427633
0.043089
0.0434298
0.0437852
0.0441549
0.0445383
0.0449357
0.0457435
0.0453399
0.0449504
0.0445749
0.0442139
0.0438678
0.0435369
0.0432216
0.0429222
0.042639
0.0423724
0.0421224
0.0418895
0.0416738
0.0414754
0.0412946
0.0411314
0.0409861
0.0408587
0.0407493
0.040658
0.0405849
0.0405301
0.0404935
0.0404752
0.0404752
0.0404935
0.0405301
0.0405849
0.040658
0.0407493
0.0408587
0.0409861
0.0411314
0.0412945
0.0414754
0.0416737
0.0418895
0.0421224
0.0423723
0.042639
0.0429222
0.0432216
0.0435369
0.0438678
0.0442139
0.0445749
0.0449504
0.0453399
0.0457435
0.046566
0.0461561
0.0457605
0.0453791
0.0450124
0.0446608
0.0443246
0.0440043
0.0437002
0.0434126
0.0431417
0.0428879
0.0426512
0.0424321
0.0422306
0.0420469
0.0418812
0.0417336
0.0416042
0.0414931
0.0414004
0.0413261
0.0412704
0.0412332
0.0412146
0.0412146
0.0412332
0.0412704
0.0413261
0.0414004
0.0414931
0.0416041
0.0417336
0.0418812
0.0420469
0.0422306
0.0424321
0.0426512
0.0428878
0.0431417
0.0434126
0.0437002
0.0440043
0.0443246
0.0446607
0.0450123
0.0453791
0.0457604
0.0461561
0.046566
0.0474037
0.0469873
0.0465854
0.046198
0.0458255
0.0454683
0.0451269
0.0448015
0.0444926
0.0442004
0.0439252
0.0436674
0.043427
0.0432044
0.0429997
0.0428131
0.0426448
0.0424949
0.0423634
0.0422506
0.0421564
0.042081
0.0420244
0.0419867
0.0419678
0.0419678
0.0419867
0.0420244
0.042081
0.0421564
0.0422506
0.0423634
0.0424949
0.0426448
0.0428131
0.0429997
0.0432044
0.043427
0.0436674
0.0439252
0.0442004
0.0444926
0.0448015
0.0451269
0.0454683
0.0458255
0.046198
0.0465854
0.0469873
0.0474037
0.0482568
0.0478338
0.0474256
0.047032
0.0466536
0.0462908
0.0459439
0.0456134
0.0452996
0.0450028
0.0447233
0.0444613
0.0442171
0.043991
0.0437831
0.0435936
0.0434226
0.0432703
0.0431368
0.0430222
0.0429265
0.0428499
0.0427924
0.0427541
0.0427349
0.0427349
0.0427541
0.0427924
0.0428499
0.0429265
0.0430221
0.0431368
0.0432703
0.0434226
0.0435936
0.0437831
0.043991
0.0442171
0.0444613
0.0447232
0.0450028
0.0452996
0.0456134
0.0459439
0.0462908
0.0466536
0.047032
0.0474256
0.0478338
0.0482568
0.0491259
0.0486962
0.0482814
0.0478816
0.0474972
0.0471285
0.0467762
0.0464404
0.0461216
0.04582
0.0455361
0.04527
0.045022
0.0447923
0.0445811
0.0443885
0.0442148
0.0440601
0.0439245
0.0438081
0.043711
0.0436332
0.0435748
0.0435358
0.0435163
0.0435163
0.0435358
0.0435748
0.0436332
0.0437109
0.0438081
0.0439245
0.0440601
0.0442148
0.0443885
0.044581
0.0447922
0.0450219
0.04527
0.0455361
0.04582
0.0461216
0.0464404
0.0467762
0.0471285
0.0474971
0.0478816
0.0482814
0.0486961
0.0491259
0.0500112
0.0495746
0.0491532
0.048747
0.0483565
0.047982
0.047624
0.0472828
0.0469589
0.0466526
0.0463641
0.0460938
0.0458418
0.0456085
0.0453939
0.0451983
0.0450219
0.0448648
0.044727
0.0446087
0.0445101
0.044431
0.0443717
0.0443322
0.0443124
0.0443124
0.0443322
0.0443717
0.044431
0.0445101
0.0446087
0.044727
0.0448647
0.0450219
0.0451983
0.0453939
0.0456084
0.0458418
0.0460938
0.0463641
0.0466526
0.0469589
0.0472828
0.0476239
0.0479819
0.0483564
0.048747
0.0491532
0.0495746
0.0500112
0.0509132
0.0504696
0.0500415
0.0496288
0.0492319
0.0488514
0.0484877
0.0481411
0.047812
0.0475008
0.0472077
0.046933
0.046677
0.04644
0.046222
0.0460233
0.0458441
0.0456845
0.0455445
0.0454244
0.0453242
0.0452439
0.0451837
0.0451435
0.0451234
0.0451234
0.0451435
0.0451836
0.0452439
0.0453242
0.0454244
0.0455445
0.0456845
0.0458441
0.0460233
0.046222
0.04644
0.046677
0.046933
0.0472077
0.0475007
0.047812
0.0481411
0.0484877
0.0488514
0.0492319
0.0496287
0.0500415
0.0504696
0.0509132
0.0518324
0.0513816
0.0509466
0.0505272
0.050124
0.0497373
0.0493677
0.0490156
0.0486812
0.0483649
0.0480672
0.0477881
0.047528
0.0472872
0.0470658
0.0468639
0.0466818
0.0465197
0.0463775
0.0462555
0.0461537
0.0460721
0.0460109
0.0459701
0.0459497
0.0459497
0.0459701
0.0460109
0.0460721
0.0461537
0.0462555
0.0463775
0.0465197
0.0466818
0.0468639
0.0470657
0.0472872
0.047528
0.0477881
0.0480672
0.0483649
0.0486812
0.0490155
0.0493677
0.0497373
0.0501239
0.0505272
0.0509466
0.0513816
0.0518324
0.0527691
0.0523111
0.051869
0.0514428
0.051033
0.0506401
0.0502645
0.0499067
0.0495669
0.0492456
0.048943
0.0486595
0.0483952
0.0481505
0.0479255
0.0477205
0.0475355
0.0473707
0.0472263
0.0471023
0.0469989
0.0469161
0.0468539
0.0468124
0.0467917
0.0467917
0.0468124
0.0468539
0.0469161
0.0469989
0.0471023
0.0472263
0.0473707
0.0475355
0.0477205
0.0479255
0.0481505
0.0483952
0.0486595
0.048943
0.0492456
0.0495669
0.0499067
0.0502645
0.0506401
0.051033
0.0514428
0.051869
0.0523111
0.0527691
0.0537239
0.0532584
0.0528091
0.052376
0.0519595
0.0515602
0.0511786
0.0508149
0.0504696
0.0501431
0.0498356
0.0495475
0.049279
0.0490303
0.0488017
0.0485934
0.0484055
0.0482381
0.0480913
0.0479654
0.0478603
0.0477761
0.047713
0.0476708
0.0476498
0.0476498
0.0476708
0.047713
0.0477761
0.0478603
0.0479654
0.0480913
0.048238
0.0484054
0.0485934
0.0488017
0.0490303
0.049279
0.0495475
0.0498356
0.0501431
0.0504696
0.0508149
0.0511786
0.0515602
0.0519595
0.052376
0.0528091
0.0532584
0.0537239
0.0546973
0.0542242
0.0537675
0.0533273
0.052904
0.0524982
0.0521102
0.0517406
0.0513897
0.0510579
0.0507454
0.0504526
0.0501798
0.0499271
0.0496948
0.0494831
0.0492922
0.0491221
0.048973
0.048845
0.0487383
0.0486528
0.0485886
0.0485458
0.0485244
0.0485244
0.0485458
0.0485886
0.0486527
0.0487382
0.048845
0.048973
0.049122
0.0492921
0.0494831
0.0496948
0.0499271
0.0501798
0.0504526
0.0507454
0.0510579
0.0513897
0.0517406
0.0521102
0.0524982
0.052904
0.0533272
0.0537675
0.0542242
0.0546973
0.0556898
0.0552088
0.0547446
0.0542971
0.0538669
0.0534544
0.0530601
0.0526844
0.0523277
0.0519905
0.0516729
0.0513753
0.051098
0.0508413
0.0506052
0.0503901
0.050196
0.0500232
0.0498717
0.0497417
0.0496332
0.0495463
0.0494811
0.0494376
0.0494159
0.0494159
0.0494376
0.0494811
0.0495463
0.0496332
0.0497417
0.0498717
0.0500232
0.050196
0.0503901
0.0506052
0.0508413
0.051098
0.0513753
0.0516729
0.0519905
0.0523277
0.0526844
0.0530601
0.0534544
0.0538669
0.0542971
0.0547446
0.0552088
0.0556898
0.0567019
0.0562129
0.055741
0.0552861
0.0548487
0.0544294
0.0540285
0.0536467
0.0532841
0.0529413
0.0526185
0.0523161
0.0520342
0.0517733
0.0515334
0.0513148
0.0511175
0.0509419
0.050788
0.0506559
0.0505456
0.0504573
0.0503911
0.0503469
0.0503248
0.0503248
0.0503469
0.0503911
0.0504573
0.0505456
0.0506558
0.050788
0.0509419
0.0511175
0.0513147
0.0515334
0.0517733
0.0520342
0.0523161
0.0526185
0.0529413
0.0532841
0.0536467
0.0540285
0.0544294
0.0548487
0.055286
0.055741
0.0562129
0.0567019
0.0577341
0.057237
0.0567572
0.0562946
0.05585
0.0554237
0.0550162
0.054628
0.0542594
0.0539109
0.0535828
0.0532754
0.0529889
0.0527236
0.0524798
0.0522576
0.0520572
0.0518787
0.0517223
0.051588
0.051476
0.0513862
0.0513189
0.051274
0.0512515
0.0512515
0.051274
0.0513189
0.0513862
0.0514759
0.051588
0.0517222
0.0518787
0.0520572
0.0522576
0.0524798
0.0527236
0.0529889
0.0532754
0.0535828
0.0539109
0.0542594
0.054628
0.0550162
0.0554237
0.05585
0.0562946
0.0567571
0.057237
0.0577341
0.0587871
0.0582816
0.0577937
0.0573234
0.0568713
0.0564378
0.0560235
0.0556288
0.0552541
0.0548998
0.0545662
0.0542537
0.0539625
0.0536929
0.053445
0.0532192
0.0530155
0.052834
0.052675
0.0525386
0.0524247
0.0523335
0.0522651
0.0522195
0.0521967
0.0521967
0.0522195
0.0522651
0.0523335
0.0524247
0.0525386
0.052675
0.052834
0.0530154
0.0532192
0.053445
0.0536929
0.0539625
0.0542537
0.0545662
0.0548998
0.0552541
0.0556288
0.0560235
0.0564378
0.0568713
0.0573234
0.0577937
0.0582816
0.0587871
0.0598615
0.0593474
0.0588512
0.058373
0.0579132
0.0574724
0.0570512
0.0566498
0.0562688
0.0559086
0.0555694
0.0552517
0.0549556
0.0546815
0.0544296
0.0542