/*--------------------------------*- C++ -*----------------------------------*\
  =========                 |
  \\      /  F ield         | OpenFOAM: The Open Source CFD Toolbox
   \\    /   O peration     | Website:  https://openfoam.org
    \\  /    A nd           | Version:  7
     \\/     M anipulation  |
\*---------------------------------------------------------------------------*/
FoamFile
{
    version     2.0;
    format      ascii;
    class       surfaceScalarField;
    location    "276000";
    object      phi;
}
// * * * * * * * * * * * * * * * * * * * * * * * * * * * * * * * * * * * * * //

dimensions      [0 3 -1 0 0 0 0];

internalField   nonuniform List<scalar> 
9540
(
-2.76178e-23
1.4927e-23
1.22838e-23
2.56088e-23
-2.52138e-23
1.8536e-23
2.50486e-23
-3.02975e-24
4.40007e-23
2.06256e-23
-2.41049e-23
3.1159e-25
5.06569e-24
-1.2424e-23
3.07272e-23
-4.65938e-24
1.84152e-23
1.29635e-23
4.55392e-23
4.9725e-23
-1.59577e-23
2.24459e-23
5.73124e-24
-1.36347e-23
2.98639e-23
-2.07454e-24
6.7025e-24
6.85731e-24
3.507e-23
6.095e-24
2.61514e-23
3.84578e-23
-1.59745e-23
4.58188e-23
2.76637e-24
-1.96761e-23
3.10803e-23
2.32192e-24
2.19185e-23
3.11331e-25
3.29606e-23
1.9954e-23
4.52108e-23
1.73824e-23
3.87815e-23
9.9918e-23
-2.85475e-23
-4.79342e-23
-3.74938e-24
-1.98444e-23
2.51383e-23
-7.47537e-24
5.1915e-23
1.07214e-23
3.69786e-23
1.02415e-23
4.89742e-23
3.13952e-23
5.9654e-23
1.40093e-23
7.0611e-23
9.31497e-24
9.65164e-23
3.71679e-23
-1.88958e-23
4.27553e-24
1.73132e-23
-9.04356e-24
1.96258e-23
-1.60823e-23
6.26851e-23
8.77465e-24
4.92112e-23
1.6987e-23
4.51058e-23
3.17735e-23
7.45211e-23
2.10353e-23
4.97471e-23
-1.23138e-23
2.81359e-23
-2.03577e-23
4.03543e-23
5.15126e-23
-6.612e-24
3.42012e-23
2.30314e-23
-5.47919e-24
5.82313e-23
-1.61144e-23
3.51841e-23
5.34224e-24
3.33215e-23
2.24652e-23
6.83208e-23
2.63236e-23
6.29272e-23
9.52419e-24
5.45368e-23
-1.15737e-23
3.71477e-23
-1.33734e-23
4.04506e-23
1.78795e-24
4.24004e-23
-9.77938e-24
2.6276e-23
2.27819e-24
4.58241e-23
1.61802e-23
3.50805e-23
-8.29828e-24
-2.5866e-24
5.17344e-23
1.82462e-23
-1.30829e-23
2.80999e-23
-1.48892e-23
3.62287e-23
3.25521e-24
4.09003e-23
2.01894e-23
5.68876e-23
2.19937e-23
5.69777e-23
-9.1815e-25
7.17139e-23
-1.01002e-23
3.49192e-23
-1.80206e-23
9.75599e-24
-2.73354e-24
2.7053e-23
1.04705e-24
2.00918e-23
-5.74177e-24
1.36517e-23
7.03415e-24
4.95371e-23
-1.64561e-23
4.48928e-23
-2.25136e-23
3.63792e-23
-2.42829e-23
3.37548e-23
-2.06714e-23
5.27762e-23
6.10706e-23
-2.77062e-24
4.34171e-23
1.37295e-23
-1.06625e-23
4.28102e-23
-1.50241e-23
3.37088e-23
3.45537e-24
6.52919e-23
1.74739e-23
5.0434e-23
2.30474e-23
5.24526e-23
-7.36794e-24
4.96273e-24
-1.05962e-23
3.00328e-23
-1.65789e-23
1.3803e-23
-9.36885e-24
2.00496e-23
-5.56742e-24
1.14738e-23
-3.55047e-24
8.07879e-24
6.98125e-24
3.42417e-23
-1.76063e-23
1.66684e-23
-1.55374e-23
6.58451e-23
-2.12074e-23
3.45369e-23
-2.29584e-23
6.05512e-23
-4.00366e-24
4.03037e-23
5.98834e-24
-1.15442e-23
-2.78409e-23
-6.79125e-24
4.16478e-23
1.36742e-23
-9.22059e-24
4.93715e-23
-8.93358e-24
3.03752e-23
-3.46213e-24
6.03422e-23
1.78663e-23
8.05233e-23
6.47902e-24
2.4642e-23
-4.42073e-24
-2.10254e-23
-1.3381e-23
-7.40436e-24
-1.58715e-23
1.17044e-23
-7.91551e-24
8.01787e-24
-7.041e-24
7.21551e-24
7.17895e-24
-8.49617e-24
1.38388e-24
-1.18237e-24
-9.746e-24
-2.20054e-23
-1.99008e-23
2.5775e-23
-1.51732e-23
2.66771e-23
-3.18549e-23
7.38938e-23
-1.3646e-23
1.77607e-23
2.30554e-25
-4.58763e-23
-1.84588e-23
-2.89062e-23
-8.16857e-24
1.28949e-23
-4.6538e-24
7.01077e-24
-2.58078e-23
-1.42376e-23
-4.11137e-23
-7.78721e-24
3.60545e-23
1.52997e-23
-1.27471e-23
5.99391e-23
-1.26154e-23
3.41666e-23
-1.67864e-24
5.5023e-23
7.75406e-24
6.41107e-23
2.40398e-24
6.55083e-23
-9.46862e-25
-1.87303e-23
-9.80989e-24
-7.34659e-25
-2.05032e-23
2.15609e-23
-1.23291e-23
1.76724e-24
-1.64574e-23
-2.97128e-23
7.27985e-24
7.90608e-24
-5.34018e-24
1.43879e-23
-5.77602e-24
-2.789e-23
-2.05685e-23
3.59872e-23
-9.67627e-24
1.35414e-23
-4.24141e-23
-2.43984e-23
-2.52163e-23
-4.22028e-24
1.76419e-24
-9.35e-24
-7.96711e-24
5.10201e-23
-1.18436e-23
2.38716e-23
-7.74504e-24
2.99663e-24
-3.23445e-23
-6.65424e-24
-2.59329e-24
2.47451e-24
-3.81644e-23
1.28479e-23
-1.09087e-22
6.7809e-23
-1.10365e-22
4.33867e-23
-5.58725e-23
4.64742e-23
4.3499e-23
1.61182e-25
1.61227e-23
1.78909e-23
-1.40209e-23
8.02834e-23
-7.46987e-24
6.16004e-23
-6.83842e-24
5.88894e-23
2.42903e-24
7.6207e-23
-1.10337e-23
7.54309e-23
-2.49851e-24
6.05387e-23
-1.05855e-23
5.86075e-24
-1.98023e-23
-7.02655e-24
-2.33092e-23
8.32459e-24
-1.04688e-23
2.69135e-24
4.9702e-24
-1.10255e-23
-1.59942e-23
-1.24306e-23
6.07398e-24
-1.44895e-23
-2.59805e-23
-2.3026e-23
-1.38557e-23
8.88037e-23
-4.37483e-23
-1.235e-24
-2.54356e-23
7.1182e-23
1.56557e-23
3.15477e-23
-1.1444e-23
1.67806e-23
-1.63922e-23
2.67105e-23
-5.7464e-24
7.20022e-23
-2.95975e-23
7.75279e-25
-1.40358e-25
3.49879e-23
-2.96749e-23
3.92253e-23
-1.11602e-22
-1.57681e-23
-1.09686e-22
3.59577e-23
-5.6962e-23
6.86934e-23
-8.80129e-23
6.6348e-23
-1.15013e-22
8.11129e-23
-1.07444e-22
8.9965e-23
3.89322e-23
8.90135e-24
8.32081e-23
1.95816e-23
-1.51998e-23
1.37234e-23
-8.25261e-24
5.4776e-23
-1.20824e-25
8.23853e-23
-4.11972e-25
7.32626e-23
-1.68191e-23
4.31187e-23
-6.92353e-24
4.93259e-24
-1.11405e-23
9.1294e-24
-2.47409e-23
-3.01633e-23
-1.85021e-23
6.80125e-24
-1.29784e-23
-2.36895e-25
-7.51874e-25
-2.04842e-23
-1.23082e-23
-5.60964e-24
4.95033e-24
7.31922e-24
-1.12961e-23
-3.88951e-23
-2.78802e-23
7.32803e-24
-3.14181e-23
1.97851e-24
-2.83197e-23
6.61e-23
1.30968e-23
8.32594e-23
-1.29192e-23
4.44087e-23
-9.76136e-24
3.40544e-23
-2.01634e-23
7.75592e-23
-2.25898e-23
-1.19685e-23
2.81548e-24
1.67383e-23
-3.85376e-23
-6.61038e-24
-1.00639e-22
5.06647e-23
-1.07337e-22
4.74925e-23
-5.42317e-23
8.32124e-23
-8.87997e-23
8.92637e-23
-1.12605e-22
9.35912e-23
-1.22091e-22
7.92622e-23
-1.17305e-22
1.15951e-22
-1.51356e-22
-8.12534e-23
-4.04195e-24
-1.04064e-24
7.9318e-23
1.5812e-23
-1.25392e-23
6.11672e-23
-9.97525e-24
5.07012e-23
-1.35306e-24
7.09691e-23
-5.14675e-24
3.44808e-23
-1.94213e-23
1.52146e-23
-6.41172e-24
2.21106e-23
-2.05898e-23
-1.57687e-23
-2.08309e-23
-2.68582e-23
-1.77968e-23
1.05498e-23
-1.7242e-23
4.00524e-23
3.7425e-24
5.14785e-23
-9.89863e-24
4.81371e-24
-4.67447e-24
2.75605e-24
-6.54436e-24
-3.22873e-23
-2.66989e-23
2.86418e-23
-2.70444e-23
3.26796e-24
-2.43619e-23
6.2934e-23
-2.95912e-24
7.21969e-23
-1.06126e-23
3.94082e-23
-2.02541e-24
2.6454e-23
-3.45764e-23
2.46794e-23
-1.64398e-23
4.59908e-23
-4.46517e-24
1.65683e-23
-2.61322e-23
2.08055e-23
-1.0326e-22
3.69411e-23
-1.00314e-22
3.97713e-23
-5.22431e-23
1.93077e-22
-8.77701e-23
1.18391e-22
-1.16526e-22
1.10871e-22
-1.15178e-22
6.67321e-23
-1.54249e-22
1.60096e-22
-1.81825e-22
4.4472e-23
3.08328e-23
9.97389e-25
6.93141e-23
1.59787e-23
-1.53743e-23
7.19591e-24
-1.00932e-23
5.11388e-23
-5.32314e-24
9.18351e-23
-1.14035e-23
3.75897e-23
-2.61795e-23
2.41568e-23
-1.99548e-23
1.5161e-23
-2.60306e-23
-1.21858e-23
-1.73933e-23
-1.61602e-23
-1.5529e-23
8.42831e-24
-1.38883e-23
3.56282e-23
-2.67184e-24
-2.28509e-24
-1.23739e-23
1.08572e-23
-1.16609e-23
4.52109e-24
-4.17827e-24
-3.67528e-23
-2.96e-23
-2.99563e-23
-1.85281e-23
-1.17453e-23
-2.21459e-23
-2.71936e-23
-8.14431e-24
-3.19407e-23
-1.0221e-23
4.03534e-23
-4.78721e-24
3.15624e-23
-3.01602e-23
6.07705e-23
-2.4178e-23
-3.60954e-23
-5.19545e-25
7.26507e-24
-1.9293e-23
3.75805e-23
-1.07883e-22
-6.56899e-23
-7.14683e-23
7.3099e-23
-6.65943e-23
1.1576e-22
-8.54771e-23
1.31724e-22
-1.28613e-22
5.74098e-23
-1.02648e-22
1.69817e-22
-1.77547e-22
1.36558e-22
-2.47213e-22
1.10123e-22
7.40115e-23
-9.49403e-24
6.25188e-23
1.69571e-23
-1.6569e-23
2.15109e-23
-3.98933e-24
3.13662e-23
-1.69326e-23
6.77228e-23
-1.81856e-23
-5.36625e-25
-2.32854e-23
1.94007e-23
-2.02572e-23
8.39757e-24
-2.32199e-23
-5.58431e-24
-1.58986e-23
2.05864e-23
-9.66083e-24
6.64375e-24
-1.96741e-23
6.16125e-24
2.52732e-24
4.46069e-23
-1.42059e-23
-5.14483e-24
-1.19078e-23
9.47526e-24
-6.08525e-24
-4.03037e-23
-2.30192e-23
-9.30695e-24
-2.46158e-23
-5.93344e-24
-2.40814e-23
-1.94832e-23
1.48982e-24
4.26702e-23
-1.32721e-23
5.15117e-23
1.96401e-24
1.33006e-23
-4.33638e-23
-4.93167e-23
-2.21047e-23
1.78519e-23
8.20528e-24
6.96107e-23
-3.53126e-23
3.12201e-24
-8.58418e-23
-1.28661e-23
-6.57244e-23
1.15492e-22
-6.17997e-23
1.14558e-22
-9.81234e-23
8.21187e-23
-1.12038e-22
6.00197e-23
-1.12502e-22
1.62182e-22
-1.81598e-22
1.18561e-22
-2.71982e-22
2.00531e-22
3.63523e-22
-8.50991e-24
6.79184e-23
1.94014e-23
-1.58313e-23
3.06853e-23
-3.69917e-24
5.02238e-23
-2.15688e-23
4.78359e-23
-1.71451e-23
-5.55316e-24
-2.63015e-23
2.00193e-23
-2.02435e-23
1.73747e-24
-1.77428e-23
1.51907e-24
-2.37735e-23
2.98162e-23
-1.0678e-23
-6.51206e-24
-1.27241e-23
5.05675e-23
-5.31135e-24
2.99981e-23
-1.46392e-23
2.3087e-24
-1.43841e-23
1.88507e-23
-8.06024e-24
-3.81043e-23
-1.69791e-23
2.55368e-24
-2.62765e-23
6.32557e-24
-1.42488e-23
6.5211e-23
3.17405e-24
6.28136e-23
-1.63813e-23
7.52112e-23
-9.20009e-24
8.04739e-24
-3.43938e-23
-2.18997e-23
-1.37181e-23
2.29959e-23
5.48684e-25
1.36312e-22
-3.65441e-23
4.36619e-23
-6.8771e-23
2.02604e-23
-6.6589e-23
1.19236e-22
-6.25911e-23
1.06232e-22
-1.01812e-22
1.14513e-22
-9.75649e-23
1.43566e-22
-1.19394e-22
1.80505e-22
-1.65461e-22
1.8479e-22
-2.62604e-22
3.01511e-22
4.5912e-22
-1.68035e-23
8.16608e-23
1.46888e-23
-1.37519e-23
5.64211e-23
-7.39177e-24
3.57263e-23
-3.2297e-23
-9.85358e-24
-1.77871e-23
1.8672e-23
-3.16777e-23
-4.76594e-24
-2.00971e-23
-3.72517e-24
-2.0611e-23
1.4102e-23
-2.49683e-23
3.96462e-23
-9.3936e-24
6.89198e-23
-1.25517e-23
8.88827e-23
-1.46157e-23
-1.36215e-23
-1.39917e-23
2.99666e-24
-1.88235e-23
2.07891e-23
-1.27652e-24
3.28037e-23
-2.3084e-23
2.73873e-23
-1.7328e-23
6.31061e-24
-1.30006e-23
2.81984e-23
7.66688e-24
4.90399e-23
-2.70505e-23
2.5033e-23
-1.10463e-23
8.43629e-23
-2.75998e-23
-9.07059e-24
1.3901e-24
9.3322e-23
-1.49534e-23
6.09446e-23
-3.46904e-23
6.25404e-23
-5.91745e-23
2.83675e-23
-6.69017e-23
3.3575e-23
-6.28618e-23
1.0251e-22
-9.59498e-23
1.4243e-22
-9.44784e-23
1.35514e-22
-1.14321e-22
1.95475e-22
-1.48226e-22
2.36169e-22
-1.98422e-22
3.53247e-22
4.82106e-22
-1.93042e-23
4.0577e-23
1.78231e-23
-2.23792e-23
5.69275e-23
-1.79869e-23
2.85864e-23
-2.85459e-23
1.72034e-24
-1.8677e-23
1.27546e-23
-3.20944e-23
1.44586e-23
-1.95445e-23
2.48168e-23
-1.87992e-23
5.98092e-23
-1.87578e-23
7.8741e-23
-1.1813e-23
1.09501e-22
-2.75341e-23
1.06672e-22
-1.51596e-23
8.46772e-24
-1.21493e-23
3.14012e-24
-1.53103e-23
1.76034e-23
-3.61929e-24
2.40126e-23
-2.34417e-23
4.67727e-23
-1.56286e-23
9.47866e-23
-1.05201e-23
1.15163e-22
2.92345e-24
1.24445e-22
-2.00849e-23
5.50471e-23
-2.22032e-23
8.48623e-23
-1.22517e-23
6.44205e-23
-4.23998e-24
8.75576e-23
-1.25841e-23
7.75588e-23
-3.66864e-23
6.37062e-23
-6.34435e-23
5.35154e-23
-5.52619e-23
1.06994e-22
-5.78364e-23
1.07667e-22
-9.82641e-23
1.02337e-22
-8.61216e-23
2.09773e-22
-1.06144e-22
2.12036e-22
-1.34688e-22
2.82439e-22
-1.45307e-22
4.61478e-22
4.84846e-22
-1.86911e-23
3.95531e-23
2.50497e-23
-2.44019e-23
6.63075e-23
-1.95956e-23
5.34116e-23
-2.71676e-23
9.17823e-24
-2.19932e-23
1.79214e-23
-2.74343e-23
-1.10164e-23
-1.51961e-23
2.63677e-23
-1.11106e-23
8.18668e-23
-1.54083e-23
8.98511e-23
-4.43898e-24
9.51905e-23
-3.76278e-23
5.03057e-23
-1.46396e-23
3.03851e-23
-1.12666e-23
3.56494e-23
-1.46994e-23
1.83176e-23
7.23046e-25
1.29388e-23
-1.5429e-23
6.11083e-23
-1.43688e-23
9.38465e-23
-8.9899e-24
1.15338e-22
-5.77097e-24
1.22908e-22
-1.57521e-23
8.9296e-23
-2.13048e-23
9.10168e-23
-1.19254e-23
5.62581e-23
-6.61211e-24
8.60914e-23
-1.30733e-23
8.36074e-23
-3.70902e-23
8.68289e-23
-5.86598e-23
8.15755e-23
-5.47194e-23
1.05189e-22
-5.66764e-23
1.06167e-22
-8.45257e-23
1.27784e-22
-8.37394e-23
2.04451e-22
-9.7036e-23
2.26177e-22
-1.14992e-22
3.17002e-22
-1.24475e-22
4.76511e-22
4.04526e-22
-2.27581e-23
4.32749e-23
2.25562e-23
-2.73708e-23
4.43762e-23
-1.801e-23
9.71295e-24
-2.18522e-23
5.0522e-23
-2.47803e-23
6.34141e-23
-2.35598e-23
2.4419e-23
-1.03599e-23
1.89254e-23
-1.29436e-23
9.70566e-23
-1.08224e-23
9.90569e-23
-1.60882e-23
1.11439e-22
-3.69676e-23
5.19071e-24
-1.82863e-23
6.22664e-23
-9.82406e-24
6.4761e-23
-1.89696e-23
-1.16693e-23
1.04534e-23
7.09782e-24
-1.07098e-23
-1.00526e-23
-1.30068e-23
9.91312e-23
-5.87882e-24
1.02741e-22
-1.22178e-23
4.72361e-23
-1.6529e-23
9.52635e-23
-2.49873e-23
1.01176e-22
-9.52725e-24
4.70959e-23
-6.31929e-24
8.47026e-23
-9.9108e-24
8.66278e-23
-3.90903e-23
1.20653e-22
-5.47997e-23
1.01841e-22
-5.65725e-23
1.09069e-22
-5.03762e-23
1.84932e-22
-7.94877e-23
1.57127e-22
-7.6493e-23
1.98148e-22
-8.61424e-23
2.35459e-22
-9.80662e-23
3.40131e-22
-1.175e-22
4.01135e-22
4.10755e-22
-2.14315e-23
1.4144e-23
1.801e-23
-2.83173e-23
5.41424e-23
-2.09128e-23
4.02946e-23
-2.17334e-23
5.67927e-23
-2.19863e-23
2.95629e-23
-2.61665e-23
2.8599e-23
-1.28783e-24
9.30419e-23
-1.09077e-23
2.80512e-23
-1.41912e-23
9.62855e-23
-2.49333e-23
4.32734e-23
-3.27956e-23
1.69321e-23
-1.56127e-23
8.73453e-23
-1.89902e-23
6.75243e-23
-1.89259e-23
-1.43954e-23
1.30291e-23
4.77279e-23
-4.39792e-24
3.77843e-23
-9.01476e-24
1.05118e-22
-1.36857e-23
1.06491e-22
-6.0148e-24
4.26589e-23
-1.47338e-23
1.03414e-22
-3.2002e-23
2.74918e-23
-2.97411e-24
1.04514e-22
-8.34074e-24
8.97051e-23
-2.7101e-24
8.62069e-23
-4.25984e-23
-3.42157e-23
-5.26658e-23
1.1077e-22
-4.94598e-23
1.03412e-22
-4.97573e-23
1.79886e-22
-7.96283e-23
9.32217e-23
-6.69011e-23
2.71209e-22
-7.69701e-23
2.46587e-22
-9.38255e-23
3.61706e-22
-1.06832e-22
4.07414e-22
-1.03417e-22
4.15944e-22
7.78984e-22
-1.79783e-23
1.56096e-23
1.63104e-23
-3.09344e-23
3.07015e-23
-1.73583e-23
2.73772e-23
-2.07904e-23
3.27679e-23
-2.46967e-23
2.56439e-23
-2.45683e-23
3.08252e-23
-1.31865e-23
8.69097e-23
-1.9976e-24
6.94405e-23
-2.71204e-23
3.46542e-23
-2.50441e-23
4.44685e-23
-2.74917e-23
2.91859e-23
-1.55906e-23
7.58169e-23
-2.91895e-23
5.0609e-23
-1.23117e-23
6.25393e-24
1.06477e-23
5.5836e-23
8.2944e-25
-4.74436e-24
-9.07659e-24
1.88176e-23
-2.30646e-23
2.5823e-23
4.82727e-24
1.03771e-22
-2.29322e-23
1.27502e-22
-2.64183e-23
1.21565e-22
-2.98508e-24
1.78662e-22
-8.84307e-24
9.78257e-23
-1.38186e-23
8.73138e-23
-2.89552e-23
-1.84736e-23
-5.4231e-23
4.74765e-23
-4.01449e-23
1.11225e-22
-5.67332e-23
1.09443e-22
-6.24581e-23
9.61756e-23
-6.71237e-23
2.39643e-22
-6.37389e-23
2.4064e-22
-8.89177e-23
3.41961e-22
-9.39244e-23
4.09787e-22
-8.6513e-23
4.99708e-22
7.46589e-22
-1.6293e-23
4.85552e-23
2.16193e-23
-3.11485e-23
4.11063e-23
-2.03685e-23
1.92512e-23
-2.40722e-23
4.03695e-23
-2.45349e-23
3.55215e-23
-1.57117e-23
2.65368e-23
-1.67725e-23
5.56711e-23
-1.88634e-24
5.4645e-23
-2.45853e-23
5.99696e-23
-2.26016e-23
7.84623e-23
-2.6099e-23
4.35115e-23
-1.99589e-23
7.41845e-23
-3.3586e-23
2.50821e-23
-9.87941e-24
1.14303e-22
7.98924e-24
1.15436e-22
2.27086e-24
3.55508e-26
-5.69341e-24
2.59069e-23
-1.70989e-23
3.32472e-23
6.45689e-24
1.07515e-22
-2.06398e-23
6.75975e-23
-2.20686e-23
1.17624e-22
-9.1251e-24
2.57015e-22
-1.30207e-23
1.04575e-22
-2.27526e-23
6.63382e-23
-2.35832e-23
-1.91671e-23
-4.40879e-23
6.57785e-23
-4.34743e-23
1.06807e-22
-5.19967e-23
1.20227e-22
-4.98578e-23
8.87134e-23
-6.29248e-23
2.5764e-22
-5.54434e-23
2.32692e-22
-8.5439e-23
2.7422e-22
-7.73478e-23
3.9557e-22
-7.8576e-23
4.07292e-22
-1.46588e-23
4.22406e-23
1.586e-23
-3.07959e-23
5.85784e-23
-1.83077e-23
1.08418e-23
-2.57656e-23
4.4599e-23
-2.14255e-23
4.722e-23
-1.57239e-23
2.77509e-23
-1.60408e-23
6.2162e-23
-3.99445e-24
1.25963e-22
-1.9729e-23
7.02708e-23
-2.29504e-23
8.45879e-23
-2.59443e-23
1.72564e-23
-2.37534e-23
7.82121e-23
-2.19989e-23
6.3716e-23
-1.37038e-23
7.68379e-23
-1.88802e-24
9.96456e-23
-8.40716e-25
4.74326e-23
-3.10721e-24
7.16586e-23
-1.08145e-23
3.65054e-23
3.0203e-24
9.12808e-23
-1.53183e-23
8.27213e-23
-1.0679e-23
1.04931e-22
-2.24262e-23
1.66947e-22
-1.8354e-23
9.83559e-23
-2.82139e-23
6.94663e-23
-1.88746e-23
6.20405e-23
-3.89649e-23
8.37975e-23
-4.37708e-23
1.14267e-22
-5.10947e-23
1.35936e-22
-3.89904e-23
7.79587e-23
-5.95227e-23
1.9218e-22
-4.94588e-23
2.27738e-22
-7.16232e-23
2.96355e-22
-6.69204e-23
3.83413e-22
3.50879e-22
-1.21765e-23
3.96575e-23
8.93683e-24
-3.69385e-23
3.9942e-23
-1.33409e-23
2.48133e-23
-2.65381e-23
1.85676e-23
-2.23015e-23
5.38643e-23
-1.13177e-23
2.96412e-23
-6.04347e-24
5.59388e-23
-1.14556e-23
9.5482e-23
-2.44289e-23
3.94322e-23
-2.61913e-23
8.63505e-23
-2.36261e-23
5.17601e-23
-2.3001e-23
7.99335e-23
-2.12935e-23
6.3188e-23
-1.15691e-23
6.85316e-23
-5.64112e-24
8.95061e-23
6.80768e-25
5.152e-23
-2.59509e-24
1.22563e-22
-9.58851e-24
4.19437e-23
3.36217e-24
6.4905e-23
-1.36737e-23
5.79651e-23
-7.52239e-24
8.88216e-23
-2.75041e-23
8.6042e-23
-2.26123e-23
9.31291e-23
-2.66734e-23
7.30039e-23
-1.71197e-23
5.06821e-23
-3.6333e-23
1.01284e-22
-4.19477e-23
1.20451e-22
-5.37321e-23
1.48146e-22
-2.96597e-23
1.4648e-22
-5.44833e-23
1.57846e-22
-4.34165e-23
2.20104e-22
-6.55012e-23
2.4064e-22
-6.3824e-23
3.44299e-22
3.29725e-22
-1.06528e-23
7.49417e-24
8.81462e-24
-3.73533e-23
-2.903e-23
-1.91454e-23
4.93439e-24
-2.57292e-23
2.27893e-23
-2.46399e-23
6.14992e-23
-8.13861e-24
1.10354e-22
-1.09193e-23
5.58643e-23
-1.40258e-23
1.33794e-22
-2.11236e-23
4.43789e-23
-2.68918e-23
9.03158e-23
-2.28894e-23
4.41233e-23
-2.41829e-23
8.44296e-23
-2.14329e-23
6.04542e-23
-1.38099e-23
3.26429e-23
-7.49899e-24
4.60151e-23
5.02396e-24
4.73523e-23
-8.63252e-24
9.53212e-23
-6.23569e-24
3.30914e-23
3.20935e-24
7.02447e-23
-1.01141e-23
6.54468e-23
-9.86013e-24
4.7606e-23
-2.36416e-23
9.15942e-23
-2.44615e-23
9.24483e-23
-2.82793e-23
9.56324e-23
-1.17009e-23
1.29825e-22
-3.73812e-23
4.51772e-23
-3.80397e-23
1.23221e-22
-5.34538e-23
8.02614e-23
-2.93958e-23
1.34226e-22
-4.87794e-23
1.89346e-22
-3.948e-23
2.20393e-22
-6.10205e-23
2.67604e-22
-6.04722e-23
3.45839e-22
3.08405e-22
-1.60709e-23
1.39832e-23
1.34087e-23
-3.59577e-23
-1.59894e-23
-1.71962e-23
7.57481e-23
-2.02033e-23
1.88434e-23
-2.28168e-23
8.97135e-23
-1.35674e-23
1.35872e-22
-8.34635e-24
4.72639e-23
-1.90081e-23
1.38899e-22
-1.99114e-23
1.2842e-22
-2.88276e-23
9.01433e-23
-1.92461e-23
4.12411e-23
-2.56304e-23
5.08031e-23
-2.12164e-23
8.66987e-23
-1.57525e-23
7.77617e-23
-6.19909e-24
4.31403e-23
7.7688e-24
4.14927e-23
-1.03548e-23
3.33901e-23
-6.59254e-24
2.39896e-23
4.05969e-24
1.3492e-23
-1.25489e-23
7.18361e-23
-7.0626e-24
1.68303e-22
-2.25416e-23
1.02603e-22
-2.42453e-23
9.47772e-23
-2.55029e-23
8.89535e-23
-1.7233e-23
1.27545e-22
-3.1381e-23
6.37544e-23
-4.13043e-23
1.31225e-22
-4.83412e-23
9.15734e-23
-2.52081e-23
1.24088e-22
-4.43895e-23
8.37206e-23
-3.69075e-23
2.27902e-22
-5.26383e-23
2.94049e-22
-5.95547e-23
3.08971e-22
-2.15559e-23
1.45122e-23
1.82108e-23
-2.766e-23
-1.40866e-23
-1.99929e-23
3.27811e-23
-1.90387e-23
3.67303e-23
-1.63227e-23
5.38052e-23
-1.80215e-23
9.35869e-23
-1.81363e-24
1.10533e-22
-2.00702e-23
6.50632e-23
-2.30016e-23
8.27235e-23
-2.81408e-23
8.77209e-23
-2.34491e-23
4.24873e-23
-2.24971e-23
4.56345e-23
-2.55643e-23
8.80239e-23
-1.71839e-23
7.64992e-23
-6.70399e-24
7.84514e-23
5.91027e-24
7.35926e-23
-1.09222e-23
3.26716e-23
-8.82952e-24
1.72387e-23
9.3811e-24
2.70723e-23
-4.71419e-24
7.57748e-23
-1.30932e-23
1.21643e-22
-2.20421e-23
1.06501e-22
-2.40872e-23
9.09072e-23
-2.36548e-23
8.5246e-23
-2.14153e-23
1.30826e-22
-2.68584e-23
7.60785e-23
-4.46443e-23
5.90725e-23
-4.51237e-23
9.66511e-23
-2.6848e-23
1.1896e-22
-3.25538e-23
1.07665e-22
-2.99638e-23
1.48049e-22
-5.28951e-23
2.38372e-22
3.14381e-22
-2.30603e-23
-1.48387e-23
1.90503e-23
-2.4604e-23
-1.24451e-23
-1.67634e-23
5.41558e-23
-1.89106e-23
3.88901e-23
-1.8472e-23
5.65752e-23
-1.20877e-23
1.29935e-22
-1.13287e-23
6.43686e-23
-1.75614e-23
2.11671e-23
-2.48071e-23
4.12485e-23
-2.99208e-23
8.24106e-23
-2.39176e-23
4.26635e-23
-2.17621e-23
3.89975e-23
-2.94518e-23
5.34594e-23
-1.62148e-23
6.99086e-23
-8.78414e-24
3.78883e-23
1.40124e-24
6.95384e-23
-9.75309e-24
4.90177e-23
-8.0975e-24
5.14979e-23
1.50002e-23
8.27817e-23
-2.89002e-24
8.66794e-23
-1.35111e-23
7.45697e-23
-2.40325e-23
1.09435e-22
-2.32569e-23
8.93171e-23
-2.18315e-23
8.01695e-23
-2.32322e-23
1.3433e-22
-2.99854e-23
9.09942e-23
-4.04453e-23
4.17036e-23
-4.45394e-23
9.7966e-23
-2.71099e-23
1.44942e-22
-2.84779e-23
1.59934e-22
-2.19174e-23
1.48884e-22
-4.56373e-23
1.92036e-22
-2.33445e-23
-4.85273e-23
2.09613e-23
-2.04329e-23
2.08101e-23
-2.16407e-23
5.03791e-23
-1.6575e-23
3.96209e-23
-1.09909e-23
5.21797e-23
-1.78634e-23
4.9554e-24
-1.39955e-23
5.33697e-23
-1.48213e-23
5.79616e-23
-2.36226e-23
-4.60332e-24
-3.53343e-23
4.92003e-23
-2.4253e-23
3.86971e-23
-2.11476e-23
3.58042e-23
-2.55373e-23
5.23646e-23
-1.84983e-23
7.07692e-23
-5.46313e-24
8.0529e-23
-6.5336e-25
6.98086e-23
-1.08376e-23
1.04266e-22
-3.81085e-24
4.61363e-23
1.51352e-23
6.19844e-23
-3.42277e-24
5.70059e-23
-1.07657e-23
6.79877e-23
-2.58333e-23
7.28812e-23
-2.29755e-23
8.39715e-23
-1.92605e-23
7.92233e-23
-2.40048e-23
1.46731e-22
-3.4748e-23
8.06858e-23
-3.54422e-23
7.90813e-23
-4.24425e-23
1.01671e-22
-2.46841e-23
1.28755e-22
-3.03187e-23
1.30511e-22
-1.98196e-23
1.42876e-22
1.55643e-22
-2.17738e-23
-3.90308e-23
2.45714e-23
-1.86996e-23
2.02996e-23
-1.68307e-23
4.88222e-23
-1.53585e-23
1.25321e-22
-1.67957e-23
8.5861e-23
-1.71715e-23
3.5203e-23
-1.49355e-23
1.68896e-23
-1.69868e-23
1.45665e-23
-1.91205e-23
-5.31697e-23
-3.64961e-23
2.3871e-23
-2.16768e-23
6.78656e-23
-2.1243e-23
3.41265e-23
-2.21265e-23
4.67493e-23
-1.61999e-23
6.47155e-23
-8.16138e-24
8.84881e-23
2.21916e-24
1.06234e-22
-1.4701e-23
8.25024e-23
-3.04314e-24
8.29102e-23
1.36488e-23
3.48656e-23
-2.45159e-24
5.81762e-23
-1.06472e-23
3.99793e-23
-2.42896e-23
3.12935e-23
-2.21199e-23
8.38495e-23
-1.61073e-23
8.04784e-23
-2.78515e-23
9.3253e-23
-3.49039e-23
8.72472e-23
-3.39045e-23
7.96104e-23
-4.02075e-23
7.00073e-23
-2.40717e-23
1.17247e-22
-2.99575e-23
5.96247e-23
-1.78665e-23
9.37737e-23
1.66589e-22
-2.02886e-23
-3.90062e-23
3.08611e-23
-1.68088e-23
1.87486e-23
-1.21661e-23
4.18606e-23
-1.74215e-23
8.88217e-23
-2.03522e-23
8.40883e-23
-1.85318e-23
1.10932e-22
-1.56359e-23
4.53915e-23
-2.51351e-23
2.15851e-23
-1.91193e-23
-6.59174e-23
-3.17384e-23
2.17315e-23
-2.37668e-23
5.75967e-23
-1.76454e-23
5.88036e-23
-2.24498e-23
5.42133e-23
-1.72448e-23
6.47109e-23
-2.50662e-24
9.05557e-23
-9.6251e-25
6.8753e-23
-1.31659e-23
9.62918e-23
-5.85243e-24
8.34552e-23
1.60644e-23
9.18398e-23
-3.64234e-24
6.74791e-23
-1.20066e-23
4.23016e-23
-2.08779e-23
6.67622e-23
-2.18549e-23
8.53038e-23
-1.68186e-23
8.30441e-23
-2.68122e-23
1.16955e-22
-3.43421e-23
5.22201e-23
-3.5811e-23
7.75208e-23
-3.72313e-23
9.84853e-23
-2.6765e-23
1.1576e-22
-2.82845e-23
4.63811e-23
-1.19987e-23
1.23045e-22
1.24193e-22
-2.21724e-23
2.42946e-24
3.34629e-23
-9.36414e-24
1.27712e-22
-8.70734e-24
4.51324e-23
-2.02666e-23
1.07967e-22
-2.05986e-23
4.18106e-23
-1.72295e-23
9.75059e-23
-1.66086e-23
4.93652e-23
-2.59252e-23
2.38094e-23
-1.57259e-23
-4.48078e-24
-2.87101e-23
2.20534e-23
-2.46875e-23
6.17319e-23
-1.94303e-23
8.90358e-23
-2.22932e-23
6.03809e-23
-1.57211e-23
6.2741e-23
-6.08332e-24
8.93505e-23
2.19713e-24
6.52883e-23
-1.37103e-23
7.17165e-23
-3.20704e-24
7.44798e-23
1.1744e-23
7.16481e-23
-6.11799e-24
7.54458e-23
-1.03173e-23
8.77392e-23
-2.00943e-23
4.26034e-23
-2.0456e-23
5.42697e-23
-1.55475e-23
9.11426e-23
-2.95454e-23
1.00967e-22
-3.26796e-23
5.9369e-23
-3.52369e-23
8.05981e-23
-3.67076e-23
9.011e-23
-3.04082e-23
1.13597e-22
-2.27594e-23
1.47704e-22
-9.84411e-24
1.43133e-22
1.16603e-22
-1.45343e-23
3.09583e-23
3.13526e-23
-1.05058e-23
1.61588e-22
-4.0175e-24
8.29843e-23
-2.51032e-23
-2.1905e-24
-2.02015e-23
7.99181e-23
-2.05693e-23
1.00663e-22
-1.93551e-23
4.64581e-23
-3.05927e-23
-5.19145e-24
-1.05614e-23
4.58031e-23
-2.61078e-23
-6.52837e-24
-2.25615e-23
5.06603e-23
-2.20582e-23
8.93997e-23
-2.20519e-23
6.34935e-23
-1.43036e-23
5.49419e-23
-4.76057e-24
1.24106e-22
-1.33025e-24
6.00903e-23
-1.39047e-23
8.69472e-23
-4.1772e-24
8.86098e-23
1.04994e-23
4.87275e-23
-3.87296e-24
8.03688e-23
-1.33453e-23
5.0612e-23
-2.03248e-23
5.05953e-23
-1.66066e-23
8.88e-23
-1.70065e-23
1.59988e-23
-3.09296e-23
3.98591e-23
-3.18737e-23
1.76472e-23
-3.33664e-23
7.89053e-23
-3.65608e-23
9.25081e-23
-2.78468e-23
1.05683e-22
-2.43991e-23
1.15328e-22
-7.66993e-24
1.28933e-22
1.13813e-22
-9.38094e-24
5.70968e-23
2.91188e-23
-1.27094e-23
1.31014e-22
-1.00634e-23
8.60001e-23
-2.1256e-23
6.66533e-23
-1.57251e-23
5.12476e-23
-2.31299e-23
3.99179e-23
-2.27691e-23
4.43474e-23
-2.51357e-23
7.11504e-23
-1.4822e-23
2.73072e-23
-2.47699e-23
-4.43042e-23
-1.93322e-23
3.51369e-23
-2.12523e-23
9.08326e-23
-2.42388e-23
5.95962e-23
-1.20369e-23
4.0514e-23
-6.675e-24
1.28565e-22
-2.07656e-24
2.10603e-23
-1.08865e-23
9.13022e-23
-8.54795e-24
4.17666e-23
1.25461e-23
1.10116e-22
-5.93313e-24
4.30489e-23
-1.34382e-23
5.24602e-23
-1.84467e-23
5.14014e-23
-1.98193e-23
6.89386e-23
-1.64924e-23
2.67387e-23
-3.09071e-23
6.37112e-23
-2.89658e-23
5.60129e-23
-3.20025e-23
8.50443e-23
-3.75065e-23
6.41458e-23
-2.50612e-23
1.28134e-22
-2.36009e-23
1.2064e-22
-6.81261e-24
1.5714e-22
6.97408e-23
-9.72796e-24
7.47797e-23
2.55973e-23
-1.2749e-23
1.05835e-22
-1.20176e-23
9.2242e-23
-2.03771e-23
9.54734e-23
-1.91057e-23
2.32271e-23
-2.43768e-23
1.83526e-23
-2.13064e-23
6.38616e-23
-2.59006e-23
-2.19579e-23
-2.07343e-23
1.87255e-23
-2.06475e-23
-4.97496e-24
-1.74569e-23
3.41577e-23
-2.60686e-23
1.65859e-23
-2.03997e-23
8.84664e-23
-1.07036e-23
3.41238e-23
-1.11247e-23
9.12838e-23
-7.18837e-25
1.44213e-23
-1.17691e-23
9.5928e-23
-6.01155e-24
3.89637e-23
1.04265e-23
1.17319e-22
-4.69658e-24
4.84255e-23
-1.35975e-23
3.20568e-23
-1.81803e-23
5.51812e-23
-2.11563e-23
7.18385e-23
-1.54557e-23
2.39707e-23
-3.03053e-23
4.63541e-23
-2.74853e-23
4.73261e-23
-3.19092e-23
9.06105e-23
-3.4795e-23
7.03593e-23
-2.46691e-23
2.12159e-22
-2.2798e-23
1.60101e-22
-1.02639e-23
1.77663e-22
9.74329e-23
-4.38214e-24
2.56586e-23
2.59215e-23
-1.44055e-23
7.62593e-23
-1.01473e-23
6.56131e-23
-2.50824e-23
4.69194e-23
-1.8671e-23
5.78503e-23
-2.51221e-23
7.31944e-23
-2.4577e-23
6.55157e-23
-2.39224e-23
-2.24637e-23
-2.26986e-23
2.56243e-23
-1.76957e-23
-1.14154e-23
-2.08073e-23
-1.26431e-23
-2.04421e-23
1.41524e-23
-2.14321e-23
4.73356e-23
-1.01622e-23
-4.47385e-24
-1.26814e-23
1.48478e-23
1.52167e-24
3.55069e-23
-1.41735e-23
1.13432e-22
-2.19234e-24
6.26938e-23
9.14075e-24
7.1672e-23
-6.36331e-24
2.59456e-23
-1.23858e-23
3.50293e-23
-1.83388e-23
6.19738e-23
-2.31143e-23
7.84974e-23
-1.48955e-23
1.76506e-23
-2.88531e-23
6.72051e-23
-2.57106e-23
8.10858e-23
-3.20409e-23
1.04481e-22
-2.83114e-23
9.89219e-23
-2.62257e-23
2.05029e-22
-2.30794e-23
1.58744e-22
-1.30837e-23
1.79851e-22
2.02073e-22
-5.67264e-25
1.61273e-22
2.92067e-23
-1.64097e-23
5.07065e-23
-9.24286e-24
9.88016e-23
-2.60782e-23
8.05078e-23
-1.81172e-23
5.68627e-23
-2.53159e-23
3.78392e-23
-2.69217e-23
1.08769e-22
-2.38636e-23
-2.97867e-23
-2.1483e-23
-5.01362e-23
-1.93579e-23
9.41674e-24
-1.95931e-23
3.09098e-23
-1.8807e-23
-3.40024e-23
-2.43477e-23
5.6921e-23
-1.29876e-23
-1.01632e-23
-9.76246e-24
5.51682e-23
3.80579e-24
2.16862e-23
-1.3524e-23
8.64001e-23
-4.30711e-24
9.17291e-23
8.81707e-24
1.09234e-22
-7.82728e-24
3.71405e-23
-1.10162e-23
3.4235e-23
-1.84901e-23
7.01805e-23
-2.44286e-23
7.93036e-23
-1.32109e-23
1.06408e-22
-2.78409e-23
7.08962e-23
-2.5139e-23
8.5198e-23
-3.04777e-23
1.17706e-22
-2.42066e-23
9.09238e-23
-2.72904e-23
2.06475e-22
-2.26035e-23
1.56423e-22
-9.9911e-24
1.63582e-22
1.7463e-22
-6.97513e-24
1.0208e-22
2.36263e-23
-1.34809e-23
8.43447e-23
-1.23237e-23
5.94167e-23
-2.48239e-23
2.00448e-23
-2.06434e-23
1.02646e-22
-2.31376e-23
2.13245e-24
-3.08345e-23
6.48385e-23
-2.78164e-23
5.21507e-25
-1.84943e-23
-8.95108e-24
-1.61544e-23
7.91324e-24
-2.00239e-23
3.91109e-23
-1.58757e-23
1.44477e-23
-2.60288e-23
-9.8658e-24
-1.10681e-23
-1.60584e-23
-7.54846e-24
5.36653e-23
5.87416e-24
5.27019e-23
-1.15073e-23
6.32219e-23
-7.09156e-24
8.54693e-23
6.9495e-24
9.69784e-23
-8.00272e-24
7.00647e-24
-7.58206e-24
2.90446e-23
-1.87281e-23
4.25913e-23
-2.18727e-23
8.27949e-23
-1.54001e-23
7.02548e-23
-2.6351e-23
8.59455e-23
-2.36785e-23
1.26541e-22
-3.03555e-23
1.24648e-22
-2.09e-23
1.00937e-22
-2.9341e-23
1.74565e-22
-2.34765e-23
1.51665e-22
-8.78303e-24
1.3913e-22
1.77183e-22
-3.5025e-24
1.39105e-22
2.42179e-23
-1.69062e-23
4.66377e-23
-1.35755e-23
4.78379e-23
-2.17556e-23
-2.97867e-24
-2.40548e-23
-2.14859e-23
-1.99355e-23
5.04212e-23
-3.51259e-23
3.27143e-23
-2.87942e-23
-5.63222e-24
-1.67522e-23
2.19203e-23
-1.4241e-23
7.74439e-24
-2.22775e-23
5.31325e-23
-1.73165e-23
1.89675e-23
-2.51838e-23
-2.98217e-23
-6.93339e-24
6.66256e-23
-6.995e-24
7.49263e-23
5.40349e-24
8.48428e-23
-9.22857e-24
7.00865e-23
-6.69553e-24
7.82085e-23
5.31198e-24
1.01614e-22
-8.46435e-24
-9.07791e-24
-6.98405e-24
1.10761e-22
-1.68271e-23
4.89602e-23
-2.28426e-23
5.06891e-23
-1.45496e-23
7.0331e-23
-2.4806e-23
5.61751e-23
-2.3359e-23
1.28671e-22
-3.01258e-23
1.32692e-22
-1.8716e-23
9.71124e-23
-2.95713e-23
1.47824e-22
-2.38313e-23
1.42982e-22
-7.19263e-24
1.5725e-22
2.04773e-22
-5.91749e-24
1.64265e-22
2.29059e-23
-1.82171e-23
3.5167e-24
-1.43293e-23
7.406e-23
-2.54009e-23
4.66552e-24
-2.22567e-23
2.75322e-23
-2.17865e-23
1.32133e-23
-3.39393e-23
1.24712e-23
-2.88144e-23
7.89413e-23
-1.52946e-23
1.11178e-22
-1.43776e-23
9.90646e-23
-1.84209e-23
9.00062e-23
-2.0541e-23
6.94749e-23
-1.81341e-23
7.37798e-23
-8.22906e-24
6.15377e-23
-8.78823e-24
7.40826e-23
4.38743e-24
7.11613e-23
-7.2486e-24
2.69066e-23
-7.40728e-24
7.95077e-23
2.48862e-24
1.30748e-22
-6.49546e-24
2.13552e-24
-9.02746e-24
7.51808e-23
-1.54764e-23
4.94711e-23
-2.21578e-23
2.12754e-23
-1.48652e-23
6.03371e-23
-2.12814e-23
5.70383e-23
-2.31761e-23
9.97218e-23
-3.10154e-23
1.52081e-22
-1.80147e-23
8.57544e-23
-2.89236e-23
1.57068e-22
-2.24323e-23
1.78983e-22
-6.4868e-24
1.71698e-22
2.62872e-22
-8.81336e-24
1.42442e-22
2.08306e-23
-2.15691e-23
4.41002e-23
-1.37339e-23
1.42837e-22
-2.88092e-23
2.79757e-23
-1.90528e-23
1.21057e-22
-2.3362e-23
6.08476e-23
-2.9094e-23
6.62514e-23
-2.75704e-23
9.0313e-23
-1.44148e-23
1.43833e-22