/*--------------------------------*- C++ -*----------------------------------*\
  =========                 |
  \\      /  F ield         | OpenFOAM: The Open Source CFD Toolbox
   \\    /   O peration     | Website:  https://openfoam.org
    \\  /    A nd           | Version:  7
     \\/     M anipulation  |
\*---------------------------------------------------------------------------*/
FoamFile
{
    version     2.0;
    format      ascii;
    class       volVectorField;
    location    "184000";
    object      U;
}
// * * * * * * * * * * * * * * * * * * * * * * * * * * * * * * * * * * * * * //

dimensions      [0 1 -1 0 0 0 0];

internalField   nonuniform List<vector> 
4844
(
(-5.95461e-19 3.21463e-18 -0.0151125)
(1.24538e-17 -4.06033e-19 -0.0151042)
(2.13225e-18 7.61344e-19 -0.015095)
(3.64497e-18 1.98934e-17 -0.0150783)
(9.76281e-18 2.19175e-18 -0.0150699)
(1.86133e-18 2.22597e-18 -0.0150606)
(2.76062e-18 1.24771e-18 -0.0150505)
(1.92751e-18 1.22015e-18 -0.0150397)
(1.96789e-18 1.00175e-18 -0.0150281)
(1.87902e-18 7.91866e-19 -0.0150158)
(9.53831e-19 8.2689e-19 -0.0150027)
(3.07025e-18 1.68218e-17 -0.0150436)
(6.47982e-18 2.02137e-18 -0.0150351)
(1.68282e-18 2.88872e-18 -0.0150257)
(2.71119e-18 1.70578e-18 -0.0150156)
(1.91803e-18 1.36974e-18 -0.0150046)
(1.99593e-18 9.85467e-19 -0.0149929)
(1.93341e-18 1.01047e-18 -0.0149805)
(1.01e-18 9.68042e-19 -0.0149673)
(9.12252e-19 1.30341e-18 -0.0149533)
(1.16157e-18 1.6072e-18 -0.0149387)
(7.01863e-19 4.50403e-19 -0.0149234)
(1.76343e-18 1.17087e-17 -0.0150085)
(4.56496e-18 1.81848e-18 -0.0149999)
(1.67647e-18 2.90523e-18 -0.0149905)
(2.59029e-18 1.86531e-18 -0.0149802)
(1.77766e-18 1.37828e-18 -0.0149692)
(1.97633e-18 8.63822e-19 -0.0149573)
(1.96178e-18 1.00853e-18 -0.0149448)
(1.01587e-18 8.63944e-19 -0.0149314)
(1.16374e-18 1.38544e-18 -0.0149174)
(1.0276e-18 1.61626e-18 -0.0149026)
(5.92145e-19 7.19928e-19 -0.0148872)
(4.20876e-19 7.08308e-19 -0.0148711)
(1.97093e-19 4.28723e-19 -0.0148544)
(5.9422e-19 -9.50828e-20 -0.0148371)
(4.41829e-19 1.41324e-19 -0.0148192)
(-3.16287e-19 6.14963e-19 -0.0148008)
(1.05393e-18 9.04247e-18 -0.014973)
(3.55574e-18 2.4326e-18 -0.0149643)
(1.70175e-18 3.02527e-18 -0.0149548)
(2.42967e-18 2.02746e-18 -0.0149444)
(1.58462e-18 1.24854e-18 -0.0149333)
(2.04152e-18 9.00599e-19 -0.0149214)
(1.86438e-18 8.05654e-19 -0.0149087)
(1.01381e-18 6.8131e-19 -0.0148952)
(1.2739e-18 1.24385e-18 -0.0148811)
(6.88292e-19 1.12184e-18 -0.0148662)
(6.02643e-19 9.26558e-19 -0.0148507)
(4.59675e-19 8.59492e-19 -0.0148344)
(1.9583e-19 4.1085e-19 -0.0148176)
(1.00936e-18 5.75036e-19 -0.0148002)
(2.28728e-19 -6.9519e-20 -0.0147822)
(-5.32288e-19 3.04311e-19 -0.0147636)
(7.97201e-19 7.72217e-18 -0.0149371)
(2.97333e-18 3.14278e-18 -0.0149283)
(1.69319e-18 3.32823e-18 -0.0149187)
(2.15218e-18 2.07274e-18 -0.0149083)
(1.48838e-18 1.42355e-18 -0.014897)
(2.14118e-18 1.15153e-18 -0.014885)
(1.76379e-18 7.11009e-19 -0.0148722)
(1.13361e-18 7.08447e-19 -0.0148586)
(1.29837e-18 1.21434e-18 -0.0148444)
(4.84281e-19 7.73957e-19 -0.0148294)
(7.00036e-19 9.98565e-19 -0.0148137)
(3.46448e-19 8.64994e-19 -0.0147974)
(3.19068e-19 3.36545e-19 -0.0147804)
(1.06655e-18 7.02917e-19 -0.0147629)
(-1.73831e-19 -1.81407e-19 -0.0147447)
(-5.37416e-19 1.14517e-19 -0.014726)
(2.499e-18 3.46972e-18 -0.0148919)
(1.49546e-18 3.43924e-18 -0.0148822)
(1.86081e-18 1.99945e-18 -0.0148717)
(1.56901e-18 1.74132e-18 -0.0148604)
(2.21017e-18 1.47533e-18 -0.0148482)
(1.76145e-18 9.46968e-19 -0.0148353)
(1.33023e-18 8.95765e-19 -0.0148217)
(1.28761e-18 1.2355e-18 -0.0148073)
(4.8434e-19 8.8724e-19 -0.0147922)
(7.91537e-19 1.09254e-18 -0.0147764)
(1.86633e-19 7.16209e-19 -0.01476)
(5.60358e-19 6.10278e-19 -0.0147429)
(5.54886e-19 9.19995e-20 -0.0147252)
(-5.14002e-19 -4.10837e-19 -0.014707)
(-3.4263e-19 1.34791e-19 -0.0146881)
(1.97309e-18 3.40601e-18 -0.0148551)
(1.21062e-18 3.25522e-18 -0.0148454)
(1.70082e-18 2.06885e-18 -0.0148347)
(1.66621e-18 1.93804e-18 -0.0148233)
(2.20064e-18 1.55351e-18 -0.0148111)
(1.75421e-18 1.15787e-18 -0.0147981)
(1.51817e-18 1.2624e-18 -0.0147844)
(1.19028e-18 1.07943e-18 -0.0147699)
(5.51196e-19 1.01472e-18 -0.0147547)
(7.97243e-19 1.2214e-18 -0.0147388)
(7.78292e-20 5.55477e-19 -0.0147222)
(4.52224e-19 5.46518e-19 -0.014705)
(-1.15993e-19 -4.6278e-19 -0.0146872)
(-5.52958e-19 -5.6564e-19 -0.0146688)
(-1.47024e-19 7.55235e-20 -0.0146499)
(1.40475e-18 3.19947e-18 -0.014818)
(1.00134e-18 3.06536e-18 -0.0148081)
(1.66185e-18 2.22395e-18 -0.0147974)
(1.74026e-18 2.16643e-18 -0.0147859)
(2.11924e-18 1.51434e-18 -0.0147736)
(1.78312e-18 1.16143e-18 -0.0147605)
(1.6432e-18 1.61129e-18 -0.0147467)
(9.26838e-19 7.653e-19 -0.0147321)
(6.34267e-19 1.06557e-18 -0.0147168)
(6.75291e-19 1.15186e-18 -0.0147008)
(-6.80228e-20 5.86877e-19 -0.0146841)
(-1.82605e-20 3.75244e-20 -0.0146668)
(-4.20014e-19 -7.07063e-19 -0.0146489)
(-3.02925e-19 -4.742e-19 -0.0146304)
(-1.39822e-19 -1.95689e-19 -0.0146114)
(2.35556e-19 5.00813e-18 -0.0147895)
(1.0127e-18 3.03129e-18 -0.0147804)
(9.22808e-19 3.00957e-18 -0.0147705)
(1.70711e-18 2.39107e-18 -0.0147598)
(1.82702e-18 2.53329e-18 -0.0147482)
(2.01702e-18 1.56441e-18 -0.0147358)
(1.85267e-18 1.1744e-18 -0.0147226)
(1.49409e-18 1.55222e-18 -0.0147086)
(6.9609e-19 5.43627e-19 -0.014694)
(7.31949e-19 1.04543e-18 -0.0146785)
(4.80177e-19 9.9666e-19 -0.0146624)
(-2.49219e-19 6.81608e-19 -0.0146457)
(-1.6155e-19 1.13542e-19 -0.0146283)
(-3.16339e-19 -5.89129e-19 -0.0146102)
(-3.53848e-20 -2.80033e-19 -0.0145917)
(-4.93203e-20 -3.76676e-19 -0.0145725)
(1.23363e-19 4.23158e-18 -0.0147517)
(7.75614e-19 2.90773e-18 -0.0147425)
(9.15239e-19 2.99932e-18 -0.0147325)
(1.84568e-18 2.62337e-18 -0.0147217)
(1.78638e-18 2.59863e-18 -0.01471)
(1.8606e-18 1.6252e-18 -0.0146976)
(1.84126e-18 1.19494e-18 -0.0146843)
(1.20722e-18 1.24215e-18 -0.0146703)
(6.52279e-19 5.78832e-19 -0.0146555)
(7.54959e-19 9.22005e-19 -0.01464)
(3.23936e-19 9.05307e-19 -0.0146238)
(-2.29064e-19 8.7074e-19 -0.0146069)
(3.62827e-20 6.14409e-19 -0.0145894)
(-4.99244e-20 -1.37172e-19 -0.0145713)
(1.81199e-19 -1.07621e-19 -0.0145526)
(1.91377e-19 -2.79162e-19 -0.0145333)
(9.9779e-20 3.78921e-18 -0.0147135)
(6.41272e-19 2.75386e-18 -0.0147043)
(9.60653e-19 2.86376e-18 -0.0146942)
(1.9068e-18 2.79448e-18 -0.0146833)
(1.5676e-18 2.35881e-18 -0.0146716)
(1.70153e-18 1.54236e-18 -0.014659)
(1.83512e-18 1.36952e-18 -0.0146457)
(1.00722e-18 1.07223e-18 -0.0146315)
(7.9289e-19 9.08551e-19 -0.0146167)
(8.0582e-19 9.29535e-19 -0.0146011)
(3.18641e-19 9.36109e-19 -0.0145848)
(-8.43355e-20 1.10288e-18 -0.0145678)
(7.45636e-20 7.76043e-19 -0.0145502)
(1.66463e-19 3.03628e-19 -0.014532)
(3.62777e-19 1.20011e-19 -0.0145132)
(4.80514e-19 7.25402e-21 -0.0144938)
(1.15138e-19 3.56396e-18 -0.0146749)
(5.09107e-19 2.63432e-18 -0.0146657)
(1.07629e-18 2.87347e-18 -0.0146556)
(1.8791e-18 2.73212e-18 -0.0146446)
(1.35538e-18 2.24544e-18 -0.0146328)
(1.66845e-18 1.50807e-18 -0.0146201)
(1.74289e-18 1.28551e-18 -0.0146067)
(8.94821e-19 1.00575e-18 -0.0145925)
(8.91926e-19 1.04107e-18 -0.0145775)
(7.51417e-19 8.83849e-19 -0.0145618)
(3.58546e-19 1.05604e-18 -0.0145455)
(-1.26374e-19 1.10186e-18 -0.0145284)
(1.27763e-19 9.09048e-19 -0.0145107)
(3.3095e-19 5.18022e-19 -0.0144924)
(6.84134e-19 4.93555e-19 -0.0144735)
(5.35235e-19 5.4056e-20 -0.014454)
(-8.74051e-19 2.44767e-18 -0.0146445)
(1.0739e-19 3.3168e-18 -0.014636)
(4.85433e-19 2.59014e-18 -0.0146267)
(1.31145e-18 3.29732e-18 -0.0146166)
(1.73474e-18 2.51786e-18 -0.0146055)
(1.19993e-18 2.16691e-18 -0.0145936)
(1.63541e-18 1.67995e-18 -0.0145809)
(1.48438e-18 8.99232e-19 -0.0145674)
(9.03893e-19 1.09672e-18 -0.0145531)
(8.15359e-19 8.75868e-19 -0.0145381)
(5.46998e-19 4.2081e-19 -0.0145223)
(3.96195e-19 1.14484e-18 -0.0145058)
(-2.65928e-19 8.34908e-19 -0.0144887)
(3.10825e-19 1.13618e-18 -0.0144709)
(4.56767e-19 6.19377e-19 -0.0144525)
(8.49535e-19 8.04738e-19 -0.0144335)
(2.92503e-19 -1.37308e-19 -0.0144139)
(-7.96726e-19 2.27664e-18 -0.0146053)
(1.33399e-19 3.14216e-18 -0.0145968)
(6.02255e-19 2.563e-18 -0.0145875)
(1.42411e-18 3.52221e-18 -0.0145772)
(1.43201e-18 2.21314e-18 -0.0145661)
(1.07379e-18 1.94759e-18 -0.0145542)
(1.53529e-18 1.74921e-18 -0.0145414)
(1.3006e-18 6.38861e-19 -0.0145278)
(9.73355e-19 1.23205e-18 -0.0145134)
(6.66373e-19 8.86737e-19 -0.0144983)
(3.64108e-19 -5.8109e-20 -0.0144824)
(3.72114e-19 1.02318e-18 -0.0144659)
(-3.47052e-19 6.50595e-19 -0.0144486)
(5.16451e-19 1.26486e-18 -0.0144307)
(4.60616e-19 5.62204e-19 -0.0144122)
(7.31648e-19 7.79407e-19 -0.0143932)
(8.88238e-20 -2.42638e-19 -0.0143735)
(-1.0061e-18 1.98546e-18 -0.0145734)
(-6.25341e-19 2.31647e-18 -0.0145658)
(1.99623e-19 3.01653e-18 -0.0145573)
(7.04761e-19 2.52465e-18 -0.0145478)
(1.31664e-18 3.23201e-18 -0.0145375)
(1.14426e-18 2.03291e-18 -0.0145264)
(9.71841e-19 1.65967e-18 -0.0145144)
(1.36488e-18 1.62019e-18 -0.0145015)
(1.21601e-18 5.64748e-19 -0.0144878)
(9.84455e-19 1.15215e-18 -0.0144734)
(5.08442e-19 9.97749e-19 -0.0144582)
(2.86836e-19 -2.41663e-19 -0.0144422)
(2.32334e-19 6.05677e-19 -0.0144256)
(-2.92674e-19 5.31631e-19 -0.0144083)
(5.81572e-19 1.21931e-18 -0.0143903)
(3.23816e-19 4.33518e-19 -0.0143717)
(4.51672e-19 5.34403e-19 -0.0143526)
(-1.41118e-20 -3.30768e-19 -0.0143329)
(-8.59808e-19 1.85803e-18 -0.0145336)
(-4.66343e-19 2.32366e-18 -0.0145259)
(2.16165e-19 2.91633e-18 -0.0145174)
(7.78998e-19 2.5851e-18 -0.0145079)
(1.01073e-18 2.35444e-18 -0.0144975)
(9.27801e-19 1.97259e-18 -0.0144863)
(9.14284e-19 1.55998e-18 -0.0144742)
(1.24843e-18 1.49194e-18 -0.0144613)
(1.32069e-18 8.94306e-19 -0.0144476)
(9.44865e-19 9.61716e-19 -0.0144331)
(3.20926e-19 1.01589e-18 -0.0144178)
(2.66533e-19 -1.32238e-19 -0.0144018)
(1.80053e-19 3.56477e-19 -0.014385)
(-2.64577e-19 3.03163e-19 -0.0143676)
(4.8111e-19 9.27857e-19 -0.0143496)
(1.26085e-19 2.64406e-19 -0.0143309)
(2.93774e-19 4.26669e-19 -0.0143117)
(1.02849e-19 -1.66476e-19 -0.0142919)
(-7.48151e-19 1.68276e-18 -0.0144934)
(-3.86422e-19 1.96525e-18 -0.0144858)
(3.06314e-19 2.8612e-18 -0.0144771)
(6.80786e-19 2.71818e-18 -0.0144676)
(7.27857e-19 1.70289e-18 -0.0144572)
(9.36593e-19 1.95196e-18 -0.0144459)
(8.97677e-19 1.54208e-18 -0.0144338)
(1.27237e-18 1.50916e-18 -0.0144208)
(1.41177e-18 1.25057e-18 -0.014407)
(7.48742e-19 7.08143e-19 -0.0143924)
(8.81712e-20 8.03018e-19 -0.0143771)
(3.34649e-19 6.34689e-20 -0.014361)
(2.99065e-19 5.49456e-19 -0.0143442)
(-5.01214e-20 4.93328e-19 -0.0143267)
(3.13668e-19 5.61919e-19 -0.0143085)
(-5.84886e-20 1.57044e-20 -0.0142898)
(3.95966e-19 5.15164e-19 -0.0142705)
(2.04024e-19 1.24143e-19 -0.0142506)
(-6.49762e-19 1.50762e-18 -0.014453)
(-1.65188e-19 2.11079e-18 -0.0144453)
(4.32532e-19 2.71897e-18 -0.0144366)
(5.25667e-19 2.66753e-18 -0.014427)
(6.82619e-19 1.7887e-18 -0.0144166)
(9.65338e-19 2.01757e-18 -0.0144052)
(8.05582e-19 1.31902e-18 -0.014393)
(1.28136e-18 1.41303e-18 -0.01438)
(1.19945e-18 1.07638e-18 -0.0143661)
(5.03008e-19 5.04801e-19 -0.0143515)
(-1.0313e-19 4.95404e-19 -0.014336)
(4.49834e-19 1.26321e-19 -0.0143199)
(4.52596e-19 6.34251e-19 -0.014303)
(1.6388e-19 9.1339e-19 -0.0142854)
(1.57906e-19 4.81597e-19 -0.0142672)
(-5.05603e-22 -2.02613e-20 -0.0142484)
(4.93416e-19 5.03989e-19 -0.014229)
(1.4764e-19 2.64473e-19 -0.014209)
(-4.2854e-19 1.43586e-18 -0.0144122)
(7.59744e-20 2.42079e-18 -0.0144044)
(4.26351e-19 2.60408e-18 -0.0143957)
(3.41621e-19 2.32166e-18 -0.0143861)
(6.40867e-19 1.77259e-18 -0.0143756)
(8.53096e-19 1.90162e-18 -0.0143642)
(6.80597e-19 1.12479e-18 -0.014352)
(1.22207e-18 1.23087e-18 -0.0143389)
(8.75125e-19 6.07718e-19 -0.0143249)
(3.06972e-19 3.2426e-19 -0.0143102)
(-1.30644e-19 4.52508e-19 -0.0142947)
(5.80448e-19 1.46457e-19 -0.0142785)
(4.4012e-19 4.03941e-19 -0.0142615)
(1.79733e-19 9.39955e-19 -0.0142439)
(1.3981e-19 5.82563e-19 -0.0142256)
(1.14251e-19 7.75084e-20 -0.0142067)
(4.70077e-19 3.96046e-19 -0.0141872)
(2.07373e-20 1.69825e-19 -0.0141672)
(-1.7662e-19 1.46205e-18 -0.0143711)
(2.14995e-19 2.33001e-18 -0.0143633)
(3.61894e-19 2.52548e-18 -0.0143546)
(1.83444e-19 2.16809e-18 -0.0143449)
(5.83473e-19 1.61109e-18 -0.0143344)
(7.65841e-19 1.79334e-18 -0.0143229)
(6.66069e-19 1.14737e-18 -0.0143106)
(1.13168e-18 1.12876e-18 -0.0142974)
(6.82962e-19 5.12819e-19 -0.0142834)
(2.83e-19 2.77891e-19 -0.0142686)
(3.97715e-21 6.0663e-19 -0.0142531)
(6.42397e-19 1.9371e-19 -0.0142368)
(3.74848e-19 1.378e-19 -0.0142197)
(1.34465e-19 7.93637e-19 -0.014202)
(1.13092e-19 6.44403e-19 -0.0141837)
(2.392e-19 2.1882e-19 -0.0141647)
(2.42217e-19 7.19239e-20 -0.0141452)
(-9.83921e-20 5.20045e-20 -0.0141251)
(1.04627e-19 1.65735e-18 -0.0143297)
(2.90588e-19 2.12725e-18 -0.0143219)
(2.96357e-19 2.32789e-18 -0.0143131)
(1.10643e-19 2.28748e-18 -0.0143034)
(6.11139e-19 1.76054e-18 -0.0142928)
(7.76565e-19 1.88142e-18 -0.0142813)
(7.72912e-19 1.57488e-18 -0.0142689)
(1.06327e-18 1.0601e-18 -0.0142557)
(6.58237e-19 6.8217e-19 -0.0142416)
(3.93737e-19 5.24615e-19 -0.0142268)
(1.11351e-19 7.6433e-19 -0.0142111)
(6.25847e-19 1.928e-19 -0.0141948)
(2.42638e-19 -1.80383e-19 -0.0141777)
(1.4924e-19 6.80801e-19 -0.0141599)
(1.70861e-19 7.06467e-19 -0.0141415)
(4.55909e-19 6.49294e-19 -0.0141224)
(7.55362e-20 -7.74678e-20 -0.0141028)
(-2.90598e-20 7.20914e-20 -0.0140826)
(2.55715e-19 1.55936e-18 -0.014288)
(2.97815e-19 1.9941e-18 -0.0142801)
(2.57191e-19 2.06515e-18 -0.0142713)
(7.87506e-20 2.24366e-18 -0.0142615)
(6.95936e-19 2.05983e-18 -0.0142509)
(8.37594e-19 1.98289e-18 -0.0142393)
(8.37423e-19 1.93988e-18 -0.0142269)
(9.48383e-19 1.09672e-18 -0.0142136)
(7.00755e-19 8.92217e-19 -0.0141995)
(5.73831e-19 8.82505e-19 -0.0141846)
(1.98179e-19 9.83329e-19 -0.0141689)
(4.53327e-19 8.5855e-20 -0.0141525)
(1.15076e-19 -5.10891e-19 -0.0141353)
(2.92577e-19 6.50585e-19 -0.0141175)
(2.49422e-19 6.81765e-19 -0.014099)
(5.34734e-19 8.51951e-19 -0.0140799)
(2.4407e-19 3.21297e-19 -0.0140602)
(-1.44265e-20 1.26279e-19 -0.0140399)
(2.8669e-19 1.24797e-18 -0.0142459)
(3.56198e-19 1.94535e-18 -0.014238)
(1.91019e-19 1.78261e-18 -0.0142292)
(9.72701e-20 2.15089e-18 -0.0142194)
(8.41487e-19 2.44502e-18 -0.0142087)
(8.29965e-19 1.98186e-18 -0.0141971)
(6.73522e-19 1.73658e-18 -0.0141846)
(9.306e-19 1.25906e-18 -0.0141713)
(8.28016e-19 1.14864e-18 -0.0141571)
(6.35602e-19 1.00576e-18 -0.0141421)
(2.62719e-19 1.37434e-18 -0.0141264)
(1.92562e-19 -6.32957e-20 -0.0141099)
(1.33998e-19 -6.78541e-19 -0.0140927)
(4.22449e-19 5.58369e-19 -0.0140748)
(3.44767e-19 7.40124e-19 -0.0140562)
(4.38845e-19 6.5972e-19 -0.014037)
(4.1168e-19 6.99004e-19 -0.0140173)
(-1.32202e-19 1.14953e-19 -0.013997)
(3.88864e-19 1.28503e-18 -0.0142036)
(3.77558e-19 1.85232e-18 -0.0141956)
(1.34692e-19 1.50701e-18 -0.0141868)
(1.91776e-19 1.92474e-18 -0.0141769)
(8.90643e-19 2.56686e-18 -0.0141662)
(6.50624e-19 1.88313e-18 -0.0141545)
(6.00843e-19 1.63169e-18 -0.014142)
(1.02386e-18 1.45914e-18 -0.0141286)
(8.56325e-19 1.32104e-18 -0.0141144)
(6.35311e-19 9.35137e-19 -0.0140994)
(2.40222e-19 1.59616e-18 -0.0140836)
(-4.00709e-20 -2.78033e-20 -0.014067)
(3.94003e-19 -4.61252e-19 -0.0140497)
(7.15139e-19 6.75191e-19 -0.0140317)
(4.87119e-19 9.12456e-19 -0.0140131)
(3.81567e-19 5.34409e-19 -0.0139939)
(3.03004e-19 6.67559e-19 -0.0139741)
(-2.03166e-19 1.71792e-19 -0.0139537)
(4.43864e-19 1.26193e-18 -0.0141609)
(3.28281e-19 1.69222e-18 -0.014153)
(7.5326e-20 1.35112e-18 -0.014144)
(2.5862e-19 1.64257e-18 -0.0141342)
(7.98227e-19 2.1821e-18 -0.0141234)
(5.14801e-19 1.70949e-18 -0.0141117)
(7.06065e-19 1.87586e-18 -0.0140991)
(1.02226e-18 1.47271e-18 -0.0140857)
(7.9886e-19 1.32525e-18 -0.0140714)
(6.47612e-19 9.4747e-19 -0.0140563)
(6.69418e-21 1.41737e-18 -0.0140405)
(-3.66932e-21 3.01745e-19 -0.0140238)
(8.92439e-19 3.61604e-20 -0.0140065)
(9.81346e-19 8.56271e-19 -0.0139885)
(5.65233e-19 1.11556e-18 -0.0139698)
(3.21541e-19 5.17768e-19 -0.0139505)
(-2.00362e-20 3.23053e-19 -0.0139306)
(-2.79191e-19 1.61892e-19 -0.0139102)
(4.1526e-19 1.27246e-18 -0.014118)
(2.87048e-19 1.48828e-18 -0.01411)
(7.41109e-20 1.36787e-18 -0.014101)
(3.81659e-19 1.71422e-18 -0.0140911)
(6.85464e-19 1.76742e-18 -0.0140803)
(4.96996e-19 1.60265e-18 -0.0140686)
(8.51638e-19 2.19086e-18 -0.0140559)
(8.84351e-19 1.28555e-18 -0.0140425)
(6.64948e-19 1.12754e-18 -0.0140281)
(5.63973e-19 8.41156e-19 -0.014013)
(-1.9223e-19 1.1531e-18 -0.0139971)
(1.68652e-19 6.17233e-19 -0.0139804)
(1.18182e-18 2.99628e-19 -0.013963)
(8.47664e-19 5.0427e-19 -0.0139449)
(3.61486e-19 9.11444e-19 -0.0139261)
(9.19038e-20 4.14278e-19 -0.0139068)
(-2.91779e-19 6.68452e-20 -0.0138868)
(-3.0634e-19 9.04723e-20 -0.0138663)
(3.806e-19 1.38534e-18 -0.0140747)
(3.0551e-19 1.6002e-18 -0.0140667)
(1.5578e-19 1.46853e-18 -0.0140577)
(4.76971e-19 1.90629e-18 -0.0140478)
(5.91372e-19 1.53972e-18 -0.0140369)
(5.32993e-19 1.38049e-18 -0.0140251)
(9.30619e-19 2.4342e-18 -0.0140124)
(6.24473e-19 1.02005e-18 -0.0139989)
(4.74084e-19 7.77497e-19 -0.0139845)
(4.00354e-19 5.37046e-19 -0.0139693)
(-2.50324e-19 1.07388e-18 -0.0139534)
(1.80961e-19 5.69465e-19 -0.0139366)
(1.22347e-18 3.34929e-19 -0.0139192)
(3.869e-19 -1.94671e-19 -0.013901)
(5.80739e-20 4.85132e-19 -0.0138822)
(-2.46054e-19 3.62718e-20 -0.0138628)
(-2.36627e-19 1.72067e-19 -0.0138428)
(-2.82539e-19 6.59413e-20 -0.0138222)
(3.44494e-19 1.38351e-18 -0.0140311)
(3.47446e-19 1.73869e-18 -0.0140231)
(1.52974e-19 1.39629e-18 -0.0140141)
(4.94379e-19 1.91947e-18 -0.0140041)
(5.47809e-19 1.64072e-18 -0.0139932)
(4.83319e-19 8.45138e-19 -0.0139814)
(9.30017e-19 2.45807e-18 -0.0139687)
(3.52661e-19 8.88411e-19 -0.0139551)
(3.79608e-19 6.66114e-19 -0.0139407)
(2.33594e-19 1.03373e-19 -0.0139254)
(-1.45601e-19 1.25135e-18 -0.0139094)
(2.27295e-19 5.85715e-19 -0.0138926)
(1.242e-18 4.84539e-19 -0.0138751)
(1.82199e-19 -4.17788e-19 -0.0138569)
(1.24938e-19 5.62938e-19 -0.013838)
(-3.63513e-19 -1.52241e-19 -0.0138185)
(-1.7971e-19 1.74357e-19 -0.0137985)
(-1.33962e-19 2.56785e-19 -0.0137779)
(3.25866e-19 1.16101e-18 -0.0139873)
(3.16989e-19 1.69438e-18 -0.0139792)
(1.528e-19 1.30435e-18 -0.0139701)
(5.03689e-19 1.70851e-18 -0.0139601)
(4.24439e-19 1.70847e-18 -0.0139492)
(4.49947e-19 4.71012e-19 -0.0139373)
(8.51561e-19 2.1144e-18 -0.0139246)
(1.61199e-19 8.73547e-19 -0.0139109)
(3.9036e-19 8.87748e-19 -0.0138965)
(2.5556e-19 8.45543e-21 -0.0138812)
(8.50445e-20 1.50001e-18 -0.0138651)
(3.25909e-19 7.26105e-19 -0.0138482)
(1.27582e-18 6.53264e-19 -0.0138307)
(3.10244e-19 -1.58811e-19 -0.0138124)
(2.53301e-19 7.59878e-19 -0.0137935)
(-3.77453e-19 -5.37973e-20 -0.013774)
(-3.72585e-19 -2.12475e-19 -0.0137538)
(-6.57664e-20 3.67434e-19 -0.0137332)
(1.49837e-19 1.13245e-18 -0.0139502)
(3.38468e-19 9.34005e-19 -0.0139431)
(3.22001e-19 1.54918e-18 -0.013935)
(1.10627e-19 1.2056e-18 -0.0139259)
(4.44128e-19 1.37599e-18 -0.0139158)
(3.18709e-19 1.73161e-18 -0.0139049)
(5.14391e-19 5.03283e-19 -0.013893)
(6.89511e-19 1.55633e-18 -0.0138802)
(5.87506e-22 6.92438e-19 -0.0138665)
(3.75019e-19 9.47055e-19 -0.013852)
(3.53448e-19 6.38779e-20 -0.0138367)
(2.07974e-19 1.59766e-18 -0.0138205)
(3.81918e-19 8.34907e-19 -0.0138036)
(1.22482e-18 6.40636e-19 -0.013786)
(4.02833e-19 6.35878e-20 -0.0137677)
(2.41969e-19 8.06741e-19 -0.0137487)
(-4.35785e-19 7.54478e-20 -0.0137291)
(-3.95122e-19 -3.38962e-19 -0.0137089)
(-2.13517e-19 6.3553e-20 -0.0136882)
(9.96059e-20 1.0403e-18 -0.0139057)
(3.95472e-19 9.55817e-19 -0.0138986)
(2.27121e-19 1.12304e-18 -0.0138905)
(1.56558e-20 9.18152e-19 -0.0138813)
(4.28489e-19 1.01216e-18 -0.0138713)
(2.42301e-19 1.67126e-18 -0.0138603)
(5.36082e-19 6.44194e-19 -0.0138483)
(5.28979e-19 1.17155e-18 -0.0138355)
(-6.29428e-20 6.32696e-19 -0.0138218)
(3.74696e-19 9.73359e-19 -0.0138072)
(3.94916e-19 -2.92943e-20 -0.0137918)
(1.68032e-19 1.31757e-18 -0.0137756)
(3.31362e-19 7.87172e-19 -0.0137587)
(1.16795e-18 6.12248e-19 -0.013741)
(4.7478e-19 2.07676e-19 -0.0137226)
(2.65243e-19 9.14914e-19 -0.0137036)
(-5.50142e-19 8.74625e-20 -0.013684)
(-1.36944e-19 -2.07555e-21 -0.0136637)
(-2.43113e-19 -1.10881e-19 -0.013643)
(-4.58571e-19 1.69315e-18 -0.0138671)
(6.78314e-20 1.08841e-18 -0.013861)
(4.19967e-19 1.13497e-18 -0.0138538)
(9.01224e-20 6.91677e-19 -0.0138456)
(-3.43621e-20 7.15101e-19 -0.0138365)
(4.44594e-19 7.61641e-19 -0.0138264)
(1.26643e-19 1.33026e-18 -0.0138154)
(4.93154e-19 5.89117e-19 -0.0138034)
(5.20003e-19 1.14252e-18 -0.0137905)
(1.98013e-20 7.93531e-19 -0.0137768)
(4.53422e-19 1.2228e-18 -0.0137621)
(4.3612e-19 4.60664e-20 -0.0137467)
(1.03977e-19 1.06141e-18 -0.0137305)
(2.68539e-19 5.98159e-19 -0.0137135)
(1.18908e-18 6.34091e-19 -0.0136957)
(5.40779e-19 3.29387e-19 -0.0136773)
(2.5757e-19 1.05105e-18 -0.0136582)
(-5.8699e-19 1.39857e-19 -0.0136385)
(1.3792e-19 2.95946e-19 -0.0136183)
(-2.5807e-19 -1.57912e-19 -0.0135974)
(-4.19738e-19 1.84823e-18 -0.0138221)
(6.78272e-20 1.2921e-18 -0.0138159)
(3.89647e-19 1.23197e-18 -0.0138087)
(4.40303e-20 8.17988e-19 -0.0138005)
(-8.99683e-21 7.02818e-19 -0.0137913)
(4.91858e-19 7.10181e-19 -0.0137812)
(4.42183e-20 1.13394e-18 -0.0137701)
(4.73205e-19 4.1461e-19 -0.0137581)
(6.15096e-19 1.27797e-18 -0.0137452)
(4.76064e-20 8.02206e-19 -0.0137314)
(5.37049e-19 1.47643e-18 -0.0137168)
(5.08979e-19 2.54391e-19 -0.0137013)
(1.72246e-19 1.11385e-18 -0.013685)
(3.2251e-19 6.19877e-19 -0.013668)
(1.2483e-18 6.72174e-19 -0.0136502)
(5.31202e-19 3.20524e-19 -0.0136317)
(1.67049e-19 1.03905e-18 -0.0136126)
(-3.19985e-19 5.80703e-19 -0.0135928)
(1.76615e-19 3.64623e-19 -0.0135725)
(-2.25741e-19 -5.76336e-20 -0.0135516)
(-4.10939e-19 1.65656e-18 -0.0137767)
(8.24907e-20 1.68001e-18 -0.0137705)
(3.32674e-19 1.10788e-18 -0.0137633)
(4.61166e-20 1.04851e-18 -0.0137551)
(-4.39995e-20 6.69133e-19 -0.0137459)
(4.57422e-19 4.31036e-19 -0.0137357)
(-1.02404e-20 1.06308e-18 -0.0137246)
(5.20056e-19 3.82048e-19 -0.0137126)
(5.88514e-19 1.10168e-18 -0.0136996)
(3.77438e-20 6.94896e-19 -0.0136858)
(5.57732e-19 1.50134e-18 -0.0136711)
(5.24477e-19 3.62569e-19 -0.0136556)
(1.97284e-19 1.10485e-18 -0.0136392)
(4.25713e-19 7.34903e-19 -0.0136221)
(1.32028e-18 8.00084e-19 -0.0136043)
(3.6511e-19 1.25538e-19 -0.0135858)
(1.94204e-19 1.05197e-18 -0.0135666)
(-9.29956e-20 9.53401e-19 -0.0135468)
(-2.66089e-20 1.66928e-19 -0.0135264)
(-1.24509e-19 9.07147e-20 -0.0135055)
(-3.72764e-19 1.51046e-18 -0.013731)
(1.07671e-19 1.97439e-18 -0.0137248)
(2.60762e-19 1.16232e-18 -0.0137176)
(-1.34523e-20 1.03139e-18 -0.0137093)
(-1.05278e-19 7.1575e-19 -0.0137001)
(4.547e-19 2.33379e-19 -0.0136899)
(3.31039e-20 1.08193e-18 -0.0136788)
(5.81772e-19 4.82411e-19 -0.0136667)
(5.2822e-19 8.90586e-19 -0.0136537)
(1.34686e-19 7.62395e-19 -0.0136398)
(4.89212e-19 1.32328e-18 -0.0136251)
(5.17359e-19 4.20335e-19 -0.0136095)
(2.6322e-19 1.1386e-18 -0.0135932)
(4.61973e-19 6.73219e-19 -0.013576)
(1.18899e-18 6.74442e-19 -0.0135581)
(2.72244e-19 2.94106e-20 -0.0135396)
(1.38933e-19 8.62506e-19 -0.0135203)
(-4.28489e-19 6.65568e-19 -0.0135005)
(-2.68853e-19 -5.41855e-20 -0.0134801)
(-7.49491e-20 1.20657e-19 -0.0134591)
(-3.15754e-19 1.51827e-18 -0.0136851)
(9.11536e-20 2.00729e-18 -0.0136788)
(2.3328e-19 1.49884e-18 -0.0136716)
(-6.51434e-20 1.03915e-18 -0.0136633)
(-1.10628e-19 9.01251e-19 -0.013654)
(5.45275e-19 3.56429e-19 -0.0136438)
(9.57366e-20 1.17252e-18 -0.0136326)
(7.71496e-19 9.86361e-19 -0.0136205)
(4.65383e-19 6.33991e-19 -0.0136075)
(2.35807e-19 8.99226e-19 -0.0135936)
(4.16321e-19 1.16649e-18 -0.0135788)
(5.7477e-19 5.02388e-19 -0.0135632)
(3.80397e-19 1.33899e-18 -0.0135468)
(4.401e-19 6.59976e-19 -0.0135296)
(1.01721e-18 4.39239e-19 -0.0135117)
(2.27101e-19 2.56111e-20 -0.0134931)
(-1.09273e-19 5.70105e-19 -0.0134738)
(-8.32865e-19 2.21438e-19 -0.0134539)
(-2.69581e-19 -1.36648e-19 -0.0134334)
(-9.05782e-20 7.02091e-20 -0.0134124)
(-3.10476e-19 1.54042e-18 -0.0136387)
(7.9336e-20 1.78313e-18 -0.0136325)
(1.76056e-19 1.66599e-18 -0.0136252)
(-1.52934e-19 1.01768e-18 -0.0136169)
(-1.20251e-19 1.01347e-18 -0.0136077)
(6.42293e-19 5.28748e-19 -0.0135974)
(1.658e-19 1.03649e-18 -0.0135862)
(8.87443e-19 1.43876e-18 -0.013574)
(2.82894e-19 3.0876e-19 -0.013561)
(3.557e-19 9.79641e-19 -0.013547)
(4.09924e-19 1.15203e-18 -0.0135322)
(6.50075e-19 5.54117e-19 -0.0135166)
(3.85099e-19 1.31233e-18 -0.0135001)
(4.93867e-19 8.31366e-19 -0.0134829)
(9.60737e-19 4.3993e-19 -0.0134649)
(3.10002e-20 -1.9338e-19 -0.0134462)
(-1.81635e-19 5.41611e-19 -0.0134269)
(-8.9526e-19 2.07233e-19 -0.013407)
(-2.28499e-19 -1.56344e-19 -0.0133864)
(-2.38745e-19 -1.61369e-19 -0.0133654)
(-3.30243e-19 1.5344e-18 -0.0135921)
(3.50584e-20 1.53316e-18 -0.0135858)
(8.70259e-20 1.56439e-18 -0.0135785)
(-2.41459e-19 9.08314e-19 -0.0135702)
(-1.06638e-19 1.08296e-18 -0.0135609)
(7.16031e-19 7.20716e-19 -0.0135507)
(1.63839e-19 7.6851e-19 -0.0135394)
(7.40302e-19 1.16332e-18 -0.0135273)
(2.09142e-19 2.08022e-19 -0.0135142)
(5.40037e-19 1.14213e-18 -0.0135002)
(3.63793e-19 1.07069e-18 -0.0134853)
(6.11308e-19 4.42527e-19 -0.0134696)
(3.00429e-19 1.10064e-18 -0.0134531)
(5.76273e-19 1.0119e-18 -0.0134358)
(8.70711e-19 5.04265e-19 -0.0134178)
(-1.20303e-19 -3.43718e-19 -0.0133991)
(-2.2125e-19 4.76169e-19 -0.0133797)
(-6.85663e-19 5.74441e-19 -0.0133597)
(-3.13034e-19 -2.81737e-19 -0.0133392)
(-1.58539e-19 -1.21441e-19 -0.0133181)
(-4.05166e-19 1.38875e-18 -0.0135452)
(6.31236e-20 1.64179e-18 -0.0135389)
(-3.68646e-20 1.31445e-18 -0.0135316)
(-3.4619e-19 6.66025e-19 -0.0135232)
(2.03085e-20 1.444e-18 -0.0135139)
(7.43653e-19 8.58709e-19 -0.0135036)
(1.32733e-19 6.29228e-19 -0.0134923)
(6.27692e-19 9.16016e-19 -0.0134801)
(2.50974e-19 1.89657e-19 -0.013467)
(6.72256e-19 1.23516e-18 -0.013453)
(2.84153e-19 1.04108e-18 -0.0134381)
(5.5996e-19 2.94965e-19 -0.0134223)
(3.27236e-19 9.96467e-19 -0.0134058)
(5.79096e-19 1.01787e-18 -0.0133885)
(7.73377e-19 5.82712e-19 -0.0133704)
(-1.3861e-19 -2.62536e-19 -0.0133517)
(-3.37178e-19 1.90677e-19 -0.0133322)
(-5.99364e-19 7.87496e-19 -0.0133122)
(-3.04007e-19 -2.44517e-19 -0.0132916)
(1.10857e-19 1.90967e-19 -0.0132704)
(-4.44049e-19 1.19605e-18 -0.0134979)
(9.37999e-20 1.90466e-18 -0.0134916)
(-1.94898e-19 1.21374e-18 -0.0134843)
(-3.27707e-19 5.00074e-19 -0.0134759)
(2.02714e-19 1.83697e-18 -0.0134666)
(7.57431e-19 1.16608e-18 -0.0134562)
(1.47746e-19 6.50162e-19 -0.0134449)
(7.00589e-19 1.16277e-18 -0.0134327)
(4.07349e-19 4.65134e-19 -0.0134195)
(8.32189e-19 1.36914e-18 -0.0134055)
(2.178e-19 1.03783e-18 -0.0133905)
(6.62406e-19 4.69667e-19 -0.0133748)
(4.42074e-19 1.09439e-18 -0.0133582)
(5.41185e-19 9.6107e-19 -0.0133408)
(6.99822e-19 6.63561e-19 -0.0133227)
(-2.06304e-19 -1.8545e-19 -0.0133039)
(-4.2014e-19 1.2084e-20 -0.0132844)
(-7.9653e-19 5.10244e-19 -0.0132643)
(-1.08781e-19 -6.0425e-20 -0.0132437)
(1.43066e-19 3.04444e-19 -0.0132225)
(-4.17982e-19 1.04267e-18 -0.0134503)
(8.9421e-20 1.77672e-18 -0.013444)
(-3.06877e-19 1.3755e-18 -0.0134366)
(-2.97747e-19 3.83284e-19 -0.0134283)
(3.30898e-19 1.88059e-18 -0.0134189)
(7.2776e-19 1.35239e-18 -0.0134085)
(1.56347e-19 6.51725e-19 -0.0133972)
(8.43366e-19 1.46187e-18 -0.0133849)
(5.21516e-19 6.58893e-19 -0.0133717)
(9.04347e-19 1.47513e-18 -0.0133576)
(1.05194e-19 9.30549e-19 -0.0133427)
(8.11841e-19 6.52023e-19 -0.0133269)
(4.79686e-19 1.11073e-18 -0.0133102)
(5.71665e-19 1.05551e-18 -0.0132928)
(6.10976e-19 7.31613e-19 -0.0132747)
(-1.95803e-19 9.27076e-21 -0.0132558)
(-3.47395e-19 1.03754e-19 -0.0132363)
(-7.43632e-19 5.43454e-19 -0.0132162)
(2.76498e-20 1.86973e-20 -0.0131955)
(-7.80954e-20 8.10968e-20 -0.0131742)
(-3.8297e-19 1.10223e-18 -0.0134024)
(4.84718e-20 1.37763e-18 -0.013396)
(-4.47119e-19 1.33859e-18 -0.0133887)
(-2.43986e-19 4.01448e-19 -0.0133803)
(4.60295e-19 1.8829e-18 -0.0133709)
(6.35442e-19 1.34244e-18 -0.0133605)
(1.96093e-19 6.58154e-19 -0.0133491)
(8.73779e-19 1.48207e-18 -0.0133368)
(4.65637e-19 4.99252e-19 -0.0133236)
(8.70929e-19 1.32459e-18 -0.0133095)
(3.99762e-20 8.87894e-19 -0.0132945)
(8.92078e-19 7.08189e-19 -0.0132786)
(4.39689e-19 9.71793e-19 -0.0132619)
(6.46081e-19 1.2047e-18 -0.0132445)
(5.98153e-19 8.96117e-19 -0.0132263)
(-2.02291e-19 1.47044e-19 -0.0132074)
(-2.23028e-19 2.51936e-19 -0.0131878)
(-5.24699e-19 8.19304e-19 -0.0131677)
(1.83444e-19 2.46916e-19 -0.0131469)
(-2.52391e-19 -1.30035e-19 -0.0131256)
(-3.72628e-19 1.21606e-18 -0.0133541)
(1.08324e-20 1.18403e-18 -0.0133478)
(-5.31028e-19 1.28464e-18 -0.0133404)
(-1.0739e-19 6.42535e-19 -0.013332)
(5.77767e-19 1.91733e-18 -0.0133225)
(5.31605e-19 1.28414e-18 -0.0133121)
(2.02363e-19 6.15387e-19 -0.0133007)
(8.09706e-19 1.31643e-18 -0.0132884)
(4.09553e-19 3.51397e-19 -0.0132752)
(8.60914e-19 1.19408e-18 -0.013261)
(5.52101e-20 9.59219e-19 -0.0132459)
(8.11289e-19 4.60018e-19 -0.01323)
(3.82316e-19 7.83686e-19 -0.0132133)
(6.80707e-19 1.21972e-18 -0.0131958)
(5.51436e-19 1.05579e-18 -0.0131776)
(-2.82798e-19 1.8647e-19 -0.0131587)
(-1.03285e-19 3.41011e-19 -0.0131391)
(-4.05209e-19 9.26635e-19 -0.0131188)
(3.05098e-19 4.71428e-19 -0.013098)
(-2.37544e-19 -6.64122e-20 -0.0130767)
(-3.17988e-19 1.20598e-18 -0.0133055)
(5.34696e-21 1.13392e-18 -0.0132991)
(-5.83341e-19 1.28982e-18 -0.0132917)
(4.02122e-20 9.44662e-19 -0.0132833)
(6.37625e-19 1.88391e-18 -0.0132739)
(4.24773e-19 1.27429e-18 -0.0132634)
(2.69321e-19 7.45365e-19 -0.013252)
(7.90344e-19 1.26526e-18 -0.0132396)
(4.17882e-19 3.28559e-19 -0.0132264)
(9.10631e-19 1.13233e-18 -0.0132122)
(8.81383e-20 1.1725e-18 -0.0131971)
(7.36826e-19 3.04493e-19 -0.0131811)
(3.21108e-19 5.05143e-19 -0.0131644)
(6.28626e-19 1.05818e-18 -0.0131469)
(3.38314e-19 9.17074e-19 -0.0131286)
(-3.57488e-19 2.11869e-19 -0.0131096)
(-2.37193e-21 4.07719e-19 -0.0130899)
(-3.78084e-19 9.23628e-19 -0.0130697)
(4.38356e-19 6.99815e-19 -0.0130488)
(-2.00997e-19 4.7619e-20 -0.0130275)
(-2.50378e-19 1.21547e-18 -0.0132566)
(-1.95567e-21 1.08614e-18 -0.0132502)
(-6.15388e-19 1.1862e-18 -0.0132427)
(1.46971e-19 1.07529e-18 -0.0132343)
(6.22299e-19 1.66438e-18 -0.0132248)
(4.58471e-19 1.56861e-18 -0.0132144)
(3.37609e-19 8.85264e-19 -0.0132029)
(7.69829e-19 1.29561e-18 -0.0131905)
(4.78108e-19 4.59068e-19 -0.0131772)
(1.00594e-18 1.1424e-18 -0.013163)
(2.15871e-19 1.53283e-18 -0.0131479)
(7.67245e-19 4.46678e-19 -0.0131319)