/*--------------------------------*- C++ -*----------------------------------*\
  =========                 |
  \\      /  F ield         | OpenFOAM: The Open Source CFD Toolbox
   \\    /   O peration     | Website:  https://openfoam.org
    \\  /    A nd           | Version:  7
     \\/     M anipulation  |
\*---------------------------------------------------------------------------*/
FoamFile
{
    version     2.0;
    format      ascii;
    class       volScalarField;
    location    "8000";
    object      omega;
}
// * * * * * * * * * * * * * * * * * * * * * * * * * * * * * * * * * * * * * //

dimensions      [0 0 -1 0 0 0 0];

internalField   nonuniform List<scalar> 
4814
(
0.197162
0.196257
0.195443
0.194723
0.226596
0.224397
0.222296
0.220281
0.218347
0.216499
0.21474
0.21307
0.211485
0.209998
0.2086
0.207298
0.206083
0.204961
0.203932
0.202994
0.202151
0.201404
0.200754
0.200195
0.19973
0.199355
0.199074
0.19889
0.198794
0.198794
0.198887
0.199076
0.19935
0.199725
0.200192
0.200747
0.201401
0.202144
0.234567
0.232285
0.230107
0.228017
0.226013
0.224095
0.22227
0.220538
0.218894
0.217352
0.215903
0.214552
0.21329
0.212127
0.211059
0.210086
0.209212
0.208438
0.207763
0.207183
0.206702
0.206313
0.20602
0.205829
0.20573
0.20573
0.205827
0.206022
0.206307
0.206697
0.207181
0.207757
0.208434
0.209205
0.210072
0.211039
0.212105
0.213273
0.214537
0.215897
0.217348
0.242964
0.240596
0.238337
0.236168
0.234088
0.232097
0.230204
0.228405
0.2267
0.225101
0.223598
0.222195
0.220884
0.219677
0.218569
0.217558
0.216652
0.215849
0.215148
0.214546
0.214047
0.213643
0.213339
0.213141
0.213039
0.213038
0.213139
0.213341
0.213638
0.214043
0.214546
0.215143
0.215846
0.216645
0.217546
0.218549
0.219655
0.220868
0.22218
0.223591
0.225098
0.226703
0.228411
0.230204
0.251819
0.24936
0.247015
0.244764
0.242605
0.240537
0.238571
0.236704
0.234933
0.233273
0.231713
0.230256
0.228894
0.227642
0.22649
0.22544
0.2245
0.223666
0.222938
0.222313
0.221795
0.221375
0.221059
0.220854
0.220747
0.220746
0.220851
0.221062
0.22137
0.221791
0.222314
0.222934
0.223663
0.224493
0.225428
0.22647
0.227618
0.228878
0.230241
0.231706
0.233272
0.234937
0.236711
0.238572
0.261166
0.258612
0.256177
0.253837
0.251596
0.249447
0.247404
0.245464
0.243625
0.241901
0.240281
0.238767
0.23735
0.236051
0.234853
0.233763
0.232786
0.231919
0.231163
0.230512
0.229975
0.229539
0.22921
0.228997
0.228887
0.228886
0.228994
0.229213
0.229534
0.229972
0.230515
0.23116
0.231916
0.232779
0.233751
0.234834
0.236026
0.237335
0.238751
0.240273
0.2419
0.243631
0.245473
0.247406
0.271043
0.268387
0.265857
0.263425
0.261096
0.258863
0.25674
0.254722
0.252811
0.25102
0.249336
0.247762
0.246288
0.244938
0.243692
0.242559
0.241544
0.240642
0.239855
0.239179
0.238622
0.238167
0.237826
0.237604
0.237491
0.237489
0.237601
0.237829
0.238163
0.238619
0.239183
0.239854
0.24064
0.241537
0.242546
0.243673
0.244912
0.246273
0.247745
0.249328
0.251019
0.252818
0.254732
0.256742
0.281489
0.278727
0.276096
0.273566
0.271146
0.268823
0.266616
0.264517
0.262529
0.260667
0.258916
0.257278
0.255745
0.254341
0.253045
0.251866
0.250811
0.249872
0.249053
0.24835
0.24777
0.247297
0.246942
0.246711
0.246594
0.246593
0.246708
0.246945
0.247294
0.247767
0.248354
0.249054
0.24987
0.250803
0.251853
0.253025
0.254314
0.25573
0.257261
0.258907
0.260667
0.262538
0.264527
0.266618
0.268801
0.292549
0.289676
0.286939
0.284306
0.281788
0.279371
0.277074
0.274891
0.272823
0.270885
0.269063
0.267357
0.265761
0.264301
0.262953
0.261725
0.260627
0.259648
0.258796
0.258065
0.257461
0.256968
0.256599
0.256359
0.256237
0.256236
0.256355
0.256602
0.256966
0.257458
0.258069
0.258798
0.259648
0.260618
0.26171
0.262932
0.264272
0.265747
0.267339
0.269053
0.270884
0.272832
0.2749
0.277076
0.279348
0.304272
0.301281
0.298432
0.295691
0.29307
0.290554
0.288163
0.285889
0.283737
0.28172
0.279821
0.278044
0.276382
0.274862
0.273458
0.272179
0.271036
0.270015
0.269128
0.268366
0.267738
0.267225
0.26684
0.266591
0.266464
0.266463
0.266586
0.266843
0.267224
0.267736
0.268372
0.269132
0.270017
0.271027
0.272165
0.273438
0.274833
0.276368
0.278027
0.279811
0.281717
0.283746
0.285899
0.288164
0.29053
0.316711
0.313597
0.310629
0.307774
0.305044
0.302424
0.299933
0.297563
0.295322
0.293221
0.291242
0.28939
0.287658
0.286074
0.284612
0.283279
0.282087
0.281023
0.280098
0.279304
0.278649
0.278116
0.277715
0.277455
0.277322
0.277321
0.27745
0.277716
0.278115
0.278648
0.279311
0.280103
0.281025
0.282078
0.283264
0.284592
0.286045
0.287644
0.289374
0.291232
0.293217
0.295332
0.297574
0.299933
0.302396
0.329926
0.326682
0.323589
0.320612
0.317767
0.315037
0.312441
0.309971
0.307636
0.305444
0.303381
0.301449
0.299643
0.297992
0.296468
0.295077
0.293834
0.292725
0.291759
0.290932
0.290249
0.289693
0.289276
0.289004
0.288866
0.288864
0.288999
0.289276
0.289694
0.290247
0.29094
0.291767
0.292729
0.293825
0.295062
0.296448
0.297963
0.29963
0.301434
0.30337
0.30544
0.307645
0.309981
0.31244
0.343984
0.3406
0.337375
0.334271
0.331303
0.328457
0.325749
0.323173
0.320738
0.318452
0.316298
0.314283
0.312399
0.310675
0.309086
0.307634
0.306337
0.30518
0.304171
0.303308
0.302595
0.302017
0.301582
0.301297
0.301153
0.301151
0.301292
0.301581
0.302018
0.302594
0.303318
0.304181
0.305185
0.306329
0.30762
0.309067
0.310648
0.312386
0.314269
0.316288
0.318447
0.320748
0.323184
0.325748
0.358955
0.355425
0.352059
0.34882
0.345723
0.342754
0.339928
0.337241
0.334699
0.332311
0.330063
0.327958
0.325992
0.324191
0.322534
0.321017
0.319662
0.318455
0.317401
0.316499
0.315754
0.315152
0.314697
0.3144
0.314249
0.314247
0.314394
0.314697
0.315153
0.315754
0.316511
0.317411
0.318461
0.319654
0.321004
0.322515
0.324166
0.325979
0.327945
0.330053
0.332305
0.334708
0.33725
0.339927
0.37492
0.371235
0.367722
0.364339
0.361105
0.358006
0.355055
0.352248
0.349595
0.3471
0.344751
0.342551
0.340497
0.338614
0.336884
0.335299
0.333883
0.332622
0.33152
0.330578
0.329799
0.329171
0.328696
0.328384
0.328227
0.328225
0.328378
0.328696
0.329172
0.329799
0.330592
0.331532
0.33263
0.333876
0.335287
0.336866
0.338592
0.340485
0.342539
0.34474
0.347093
0.349603
0.352257
0.355053
0.391972
0.388121
0.384451
0.380916
0.377537
0.374301
0.371217
0.368283
0.36551
0.362901
0.360446
0.358144
0.355999
0.354028
0.352221
0.350562
0.349082
0.347764
0.346611
0.345626
0.34481
0.344155
0.343659
0.343332
0.343167
0.343165
0.343325
0.343659
0.344157
0.344811
0.345641
0.346625
0.347773
0.349076
0.350552
0.352202
0.354008
0.355986
0.358133
0.360434
0.362893
0.365517
0.368291
0.371213
0.41021
0.406185
0.402346
0.398649
0.395117
0.391734
0.388509
0.385441
0.38254
0.379811
0.377242
0.374832
0.372589
0.370526
0.368635
0.3669
0.365351
0.363972
0.362766
0.361735
0.36088
0.360195
0.359677
0.359334
0.359161
0.359159
0.359326
0.359677
0.360198
0.360881
0.361751
0.36278
0.363983
0.365346
0.366892
0.368617
0.370507
0.372577
0.374822
0.377229
0.379802
0.382547
0.385448
0.388503
0.429748
0.425536
0.42152
0.417651
0.413954
0.410415
0.407041
0.40383
0.400794
0.397936
0.395245
0.392721
0.390373
0.388212
0.386232
0.384416
0.382793
0.381351
0.380086
0.379007
0.378111
0.377394
0.376851
0.376491
0.37631
0.376308
0.376484
0.376852
0.377397
0.378112
0.379023
0.380101
0.381362
0.38279
0.38441
0.386215
0.388195
0.390361
0.392713
0.395232
0.397926
0.400799
0.403835
0.407033
0.450716
0.446306
0.442098
0.438047
0.434173
0.430468
0.426934
0.423571
0.420391
0.417396
0.414575
0.41193
0.409471
0.407204
0.405129
0.403227
0.401525
0.400014
0.398689
0.397558
0.396616
0.395865
0.395298
0.394919
0.394729
0.394727
0.394911
0.395299
0.395868
0.396618
0.397573
0.398704
0.400026
0.401524
0.403223
0.405113
0.407189
0.409459
0.411923
0.414563
0.417385
0.420395
0.423575
0.426924
0.47326
0.468639
0.464227
0.459981
0.455918
0.452034
0.44833
0.444803
0.441469
0.438329
0.435369
0.432594
0.430015
0.427636
0.425459
0.423465
0.421679
0.420094
0.418705
0.417516
0.416529
0.41574
0.415147
0.414749
0.414549
0.414545
0.41474
0.415148
0.415745
0.416531
0.417532
0.418719
0.420107
0.421679
0.423462
0.425444
0.427623
0.430003
0.432588
0.435356
0.438315
0.441474
0.444806
0.448317
0.497551
0.492703
0.488074
0.483617
0.479351
0.475276
0.471387
0.467684
0.464186
0.460889
0.457779
0.454867
0.452159
0.44966
0.447375
0.445282
0.443406
0.441741
0.440283
0.439033
0.437996
0.437167
0.436545
0.436128
0.435917
0.435913
0.436118
0.436547
0.437173
0.437999
0.439048
0.440296
0.441755
0.443408
0.44528
0.44736
0.44965
0.452148
0.454862
0.457768
0.460873
0.46419
0.467689
0.471374
0.523787
0.518695
0.513829
0.509147
0.504662
0.50038
0.496292
0.492401
0.488725
0.485259
0.481989
0.478929
0.476081
0.473453
0.471051
0.468852
0.466877
0.465129
0.463596
0.46228
0.461191
0.460318
0.459665
0.459226
0.459004
0.459
0.459216
0.459667
0.460325
0.461193
0.462296
0.463607
0.465143
0.466883
0.468852
0.471036
0.473444
0.47607
0.478924
0.481978
0.485241
0.488728
0.492406
0.496279
0.500318
0.5522
0.546842
0.54172
0.536792
0.532069
0.527564
0.52326
0.519166
0.515296
0.511649
0.508205
0.504984
0.501987
0.499218
0.496691
0.494377
0.492297
0.490457
0.488842
0.487457
0.486309
0.48539
0.484704
0.484242
0.484008
0.484004
0.484232
0.484706
0.485399
0.486312
0.487473
0.488853
0.490471
0.492304
0.494379
0.496677
0.499211
0.501975
0.504979
0.508194
0.511629
0.5153
0.519171
0.523248
0.5275
0.583066
0.577418
0.572015
0.566819
0.561837
0.557088
0.552548
0.548233
0.544151
0.540306
0.536675
0.533278
0.530117
0.527197
0.524533
0.522095
0.519901
0.517962
0.516258
0.514797
0.513587
0.512617
0.511895
0.511408
0.511159
0.511156
0.511397
0.511896
0.512627
0.513589
0.514813
0.516268
0.517976
0.51991
0.522098
0.52452
0.527192
0.530106
0.533274
0.536664
0.540286
0.544156
0.548237
0.552536
0.557018
0.616716
0.610748
0.605036
0.599544
0.594278
0.589259
0.584461
0.579903
0.575589
0.571527
0.567689
0.564102
0.560761
0.557675
0.554861
0.552287
0.549969
0.54792
0.54612
0.544575
0.543299
0.542273
0.541511
0.540996
0.540732
0.540731
0.540985
0.54151
0.542283
0.5433
0.544592
0.54613
0.547934
0.54998
0.552292
0.55485
0.55767
0.560752
0.564097
0.567678
0.571506
0.575595
0.579906
0.584449
0.589183
0.653554
0.647229
0.641174
0.635352
0.629771
0.624452
0.619369
0.614541
0.609971
0.605666
0.601601
0.597804
0.594265
0.590997
0.588016
0.585291
0.582837
0.580668
0.578762
0.577125
0.575775
0.574688
0.573882
0.573336
0.573056
0.573057
0.573326
0.573879
0.5747
0.575775
0.577143
0.578772
0.580682
0.58285
0.585298
0.588006
0.590992
0.594256
0.597798
0.60159
0.605646
0.609977
0.614545
0.619357
0.694083
0.687355
0.680913
0.67472
0.668784
0.663129
0.657725
0.652596
0.647738
0.643163
0.638843
0.634812
0.631051
0.627581
0.624414
0.621521
0.618917
0.616613
0.614589
0.612851
0.611417
0.610265
0.609408
0.608828
0.60853
0.608532
0.608817
0.609403
0.610277
0.611419
0.612869
0.6146
0.616628
0.61893
0.62153
0.624405
0.627576
0.631044
0.634805
0.638833
0.643144
0.647744
0.6526
0.657714
0.738953
0.731763
0.724873
0.718253
0.711906
0.705867
0.700099
0.694627
0.689445
0.684561
0.679955
0.675657
0.671647
0.667947
0.664571
0.661489
0.658716
0.656261
0.654105
0.652252
0.650725
0.649496
0.648584
0.647965
0.647648
0.647652
0.647956
0.648578
0.64951
0.650726
0.65227
0.654117
0.656275
0.658731
0.6615
0.664564
0.667944
0.671643
0.675651
0.679946
0.684544
0.68945
0.694632
0.700089
0.788981
0.781256
0.773851
0.766738
0.759919
0.753435
0.747243
0.741371
0.73581
0.73057
0.725632
0.721024
0.716726
0.712759
0.709141
0.705842
0.702877
0.700248
0.697943
0.69596
0.694325
0.69301
0.692034
0.691371
0.691034
0.691038
0.691364
0.692028
0.693025
0.694327
0.695979
0.697954
0.700262
0.702894
0.705855
0.709136
0.712759
0.716723
0.721019
0.725624
0.730555
0.735815
0.741377
0.747233
0.845132
0.836796
0.828805
0.821128
0.813772
0.806772
0.800087
0.793751
0.78775
0.782096
0.776771
0.771805
0.767174
0.7629
0.759001
0.755449
0.752258
0.749426
0.746944
0.74481
0.74305
0.741633
0.740582
0.739869
0.739507
0.739512
0.739862
0.740576
0.741649
0.743053
0.74483
0.746957
0.749441
0.752275
0.755464
0.758997
0.762901
0.767173
0.7718
0.776767
0.782083
0.787754
0.793756
0.800077
0.908617
0.899571
0.890899
0.88257
0.874591
0.866996
0.859744
0.852871
0.846365
0.840236
0.834466
0.829088
0.824076
0.819448
0.815227
0.811381
0.807922
0.804853
0.802165
0.799856
0.797948
0.796412
0.795273
0.794502
0.794111
0.794117
0.794496
0.795268
0.796429
0.79795
0.799874
0.80218
0.80487
0.807942
0.811397
0.815227
0.819452
0.824077
0.829086
0.834465
0.840224
0.846367
0.852876
0.859734
0.98103
0.971144
0.961668
0.952572
0.943858
0.935562
0.927646
0.920145
0.913048
0.906361
0.900073
0.894212
0.888755
0.883716
0.879118
0.874928
0.871161
0.867816
0.864889
0.862376
0.860296
0.858622
0.857381
0.856542
0.856118
0.856125
0.85654
0.857379
0.858641
0.8603
0.862394
0.864906
0.867833
0.871181
0.874946
0.879122
0.883722
0.888758
0.894214
0.900073
0.906352
0.913047
0.920149
0.927636
1.0645
1.05361
1.04317
1.03315
1.02355
1.01442
1.00571
0.997456
0.989652
0.982302
0.975396
0.968961
0.962974
0.957446
0.952399
0.947804
0.94367
0.94
0.93679
0.934036
0.931751
0.929916
0.928554
0.927635
0.927172
0.927179
0.927635
0.928553
0.929934
0.931757
0.934053
0.936807
0.940018
0.94369
0.947822
0.952407
0.957455
0.96298
0.968965
0.975399
0.982296
0.989651
0.997459
1.0057
1.16195
1.14982
1.13819
1.12704
1.11637
1.10621
1.09654
1.08737
1.07871
1.07055
1.06289
1.05576
1.04913
1.04301
1.03742
1.03233
1.02775
1.02369
1.02014
1.01709
1.01456
1.01253
1.01102
1.01001
1.0095
1.0095
1.01001
1.01102
1.01255
1.01457
1.01711
1.02016
1.02371
1.02777
1.03235
1.03743
1.04302
1.04914
1.05577
1.0629
1.07055
1.0787
1.08737
1.09653
1.10615
1.27737
1.2637
1.2506
1.23805
1.22605
1.21462
1.20374
1.19344
1.18371
1.17455
1.16596
1.15797
1.15053
1.14368
1.13742
1.13172
1.1266
1.12205
1.11808
1.11467
1.11184
1.10957
1.10788
1.10675
1.10618
1.10618
1.10675
1.10788
1.10959
1.11185
1.11469
1.1181
1.12207
1.12662
1.13175
1.13744
1.1437
1.15055
1.15798
1.16597
1.17455
1.18371
1.19344
1.20373
1.21456
1.41638
1.40077
1.38582
1.37149
1.3578
1.34477
1.33238
1.32064
1.30957
1.29915
1.28939
1.2803
1.27187
1.26409
1.25698
1.25052
1.24471
1.23955
1.23504
1.23118
1.22797
1.2254
1.22348
1.2222
1.22156
1.22156
1.2222
1.22349
1.22542
1.22798
1.2312
1.23506
1.23957
1.24473
1.25054
1.257
1.26411
1.27188
1.28032
1.2894
1.29915
1.30957
1.32064
1.33237
1.34472
1.58689
1.5688
1.55148
1.53489
1.51905
1.50397
1.48964
1.47608
1.46329
1.45126
1.44
1.42952
1.41979
1.41083
1.40263
1.39519
1.3885
1.38257
1.37738
1.37294
1.36924
1.36628
1.36407
1.3626
1.36186
1.36187
1.36261
1.36408
1.3663
1.36925
1.37295
1.3774
1.38259
1.38852
1.39522
1.40266
1.41085
1.41981
1.42953
1.44001
1.45127
1.46329
1.47608
1.48964
1.50394
1.51903
1.80023
1.77895
1.75857
1.73907
1.72045
1.70272
1.6859
1.66997
1.65496
1.64085
1.62764
1.61534
1.60395
1.59345
1.58385
1.57514
1.56731
1.56036
1.55429
1.54909
1.54477
1.54131
1.53872
1.537
1.53614
1.53614
1.53701
1.53873
1.54132
1.54478
1.54911
1.55431
1.56038
1.56733
1.57516
1.58388
1.59347
1.60397
1.61536
1.62765
1.64085
1.65495
1.66997
1.68589
1.7027
1.72043
2.07281
2.04739
2.02305
1.99975
1.97751
1.95634
1.93625
1.91724
1.89932
1.88249
1.86674
1.85207
1.83849
1.82598
1.81453
1.80415
1.79483
1.78655
1.77932
1.77313
1.76798
1.76387
1.76079
1.75873
1.75771
1.75771
1.75874
1.7608
1.76388
1.768
1.77315
1.77934
1.78657
1.79485
1.80418
1.81456
1.826
1.83851
1.85209
1.86675
1.88249
1.89932
1.91724
1.93624
1.95632
1.97749
1.99973
2.42896
2.39811
2.36855
2.34026
2.31326
2.28756
2.26317
2.2401
2.21835
2.19792
2.17881
2.16101
2.14453
2.12935
2.11547
2.10288
2.09157
2.08153
2.07276
2.06526
2.05901
2.05402
2.05029
2.0478
2.04656
2.04656
2.04781
2.0503
2.05404
2.05903
2.06527
2.07278
2.08154
2.09159
2.1029
2.1155
2.12938
2.14455
2.16103
2.17882
2.19792
2.21835
2.2401
2.26317
2.28755
2.31325
2.34025
2.90566
2.86757
2.83108
2.79615
2.7628
2.73106
2.70093
2.67244
2.64557
2.62032
2.59671
2.57473
2.55437
2.53561
2.51846
2.5029
2.48893
2.47653
2.4657
2.45643
2.44871
2.44255
2.43793
2.43485
2.43332
2.43332
2.43486
2.43794
2.44256
2.44872
2.45644
2.46571
2.47654
2.48894
2.50292
2.51849
2.53564
2.55439
2.57475
2.59673
2.62033
2.64556
2.67243
2.70093
2.73105
2.76279
2.79614
3.56114
3.51326
3.46736
3.42342
3.38146
3.34152
3.3036
3.26773
3.2339
3.20211
3.17238
3.14469
3.11903
3.0954
3.07379
3.05418
3.03657
3.02095
3.0073
2.99561
2.98589
2.97812
2.9723
2.96842
2.96649
2.96649
2.96843
2.97231
2.97813
2.9859
2.99562
3.00731
3.02096
3.03659
3.0542
3.07381
3.09543
3.11905
3.1447
3.17239
3.20212
3.23389
3.26772
3.3036
3.34151
3.38146
3.42341
4.49135
4.42985
4.37088
4.3144
4.26046
4.20909
4.16032
4.11416
4.07063
4.02972
3.99144
3.95578
3.92274
3.8923
3.86446
3.8392
3.81651
3.79637
3.77878
3.76372
3.75119
3.74117
3.73367
3.72867
3.72618
3.72618
3.72868
3.73368
3.74118
3.7512
3.76373
3.77879
3.79638
3.81652
3.83922
3.86448
3.89232
3.92276
3.95579
3.99145
4.02972
4.07063
4.11416
4.16032
4.20909
4.26046
4.3144
5.86343
5.78233
5.70451
5.62997
5.55875
5.49092
5.4265
5.36551
5.30797
5.25389
5.20327
5.15612
5.11241
5.07214
5.03529
5.00186
4.97182
4.94516
4.92187
4.90193
4.88534
4.87208
4.86214
4.85552
4.85221
4.85221
4.85553
4.86215
4.87208
4.88535
4.90194
4.92188
4.94517
4.97183
5.00187
5.03531
5.07216
5.11242
5.15613
5.20328
5.2539
5.30797
5.3655
5.42649
5.49092
5.55875
5.62997
5.70451
7.98946
7.87878
7.77254
7.67073
7.57344
7.48073
7.39267
7.30927
7.23058
7.15659
7.08733
7.02278
6.96294
6.90779
6.85732
6.81153
6.77037
6.73384
6.70193
6.6746
6.65186
6.63368
6.62006
6.61098
6.60645
6.60645
6.61099
6.62006
6.63369
6.65187
6.67461
6.70193
6.73385
6.77038
6.81154
6.85734
6.9078
6.96295
7.02279
7.08733
7.1566
7.23058
7.30927
7.39266
7.48073
7.57344
7.67073
7.77253
11.506
11.3478
11.196
11.0504
10.9112
10.7785
10.6525
10.5331
10.4204
10.3144
10.2151
10.1226
10.0368
9.95769
9.8853
9.8196
9.76054
9.70812
9.66231
9.62309
9.59044
9.56434
9.54478
9.53175
9.52524
9.52524
9.53175
9.54478
9.56435
9.59045
9.6231
9.66232
9.70813
9.76055
9.8196
9.88531
9.9577
10.0368
10.1226
10.2151
10.3144
10.4204
10.5331
10.6525
10.7785
10.9112
11.0504
11.196
17.8703
17.6294
17.3979
17.1759
16.9636
16.7612
16.5688
16.3864
16.2142
16.0522
15.9005
15.759
15.6278
15.5068
15.396
15.2954
15.205
15.1247
15.0545
14.9945
14.9444
14.9045
14.8745
14.8545
14.8445
14.8445
14.8545
14.8745
14.9045
14.9444
14.9945
15.0545
15.1247
15.205
15.2954
15.396
15.5068
15.6278
15.759
15.9005
16.0522
16.2142
16.3864
16.5688
16.7612
16.9636
17.1759
17.3979
30.9903
30.5874
30.2
29.8283
29.4725
29.1332
28.8103
28.5043
28.2152
27.9431
27.6881
27.4502
27.2294
27.0259
26.8394
26.6701
26.5178
26.3826
26.2644
26.1631
26.0788
26.0114
25.9609
25.9272
25.9104
25.9104
25.9272
25.9609
26.0114
26.0788
26.1631
26.2644
26.3826
26.5178
26.6701
26.8394
27.0259
27.2294
27.4502
27.6881
27.9431
28.2152
28.5043
28.8103
29.1332
29.4725
29.8283
30.2
64.036
63.2578
62.5086
61.7891
61.1
60.442
59.8156
59.2213
58.6594
58.1302
57.6339
57.1706
56.7405
56.3436
55.9798
55.6494
55.3521
55.088
54.857
54.6591
54.4943
54.3625
54.2637
54.1978
54.1649
54.1649
54.1978
54.2637
54.3625
54.4943
54.6591
54.857
55.088
55.3521
55.6494
55.9799
56.3436
56.7405
57.1706
57.6339
58.1302
58.6594
59.2213
59.8156
60.442
61.1
61.7891
62.5086
180.373
178.471
176.636
174.872
173.179
171.56
170.016
168.55
167.162
165.852
164.623
163.474
162.406
161.42
160.515
159.692
158.951
158.293
157.716
157.222
156.811
156.481
156.234
156.07
155.988
155.988
156.07
156.234
156.481
156.811
157.222
157.716
158.293
158.951
159.692
160.515
161.42
162.406
163.474
164.623
165.852
167.162
168.55
170.016
171.56
173.179
174.872
176.636
942.845
936.097
929.566
923.261
917.194
911.373
905.807
900.504
895.469
890.708
886.226
882.028
878.117
874.497
871.171
868.14
865.407
862.975
860.843
859.014
857.488
856.267
855.35
854.739
854.433
854.433
854.739
855.35
856.267
857.488
859.014
860.843
862.975
865.407
868.14
871.171
874.497
878.117
882.028
886.226
890.708
895.469
900.504
905.807
911.373
917.194
923.261
929.566
0.226593
0.234563
0.24296
0.251815
0.261161
0.271037
0.281482
0.292542
0.304265
0.316705
0.32992
0.343976
0.358947
0.374913
0.391964
0.410201
0.429739
0.450706
0.473251
0.497544
0.523782
0.552196
0.583062
0.616712
0.65355
0.694079
0.738951
0.78898
0.845134
0.90862
0.981032
1.06451
1.16195
1.27737
1.41638
1.58689
1.80023
2.07281
2.42897
2.90566
3.56114
4.49135
5.86343
7.98946
11.506
17.8703
30.9903
64.036
180.373
942.845
0.224391
0.23228
0.24059
0.249354
0.258605
0.26838
0.278719
0.289666
0.301271
0.313586
0.32667
0.340588
0.355412
0.371224
0.388111
0.406174
0.425526
0.446296
0.468629
0.492695
0.518686
0.546835
0.577411
0.610742
0.647225
0.687353
0.731761
0.781255
0.836797
0.899573
0.971149
1.05361
1.14982
1.26371
1.40078
1.56881
1.77896
2.0474
2.39811
2.86758
3.51326
4.42986
5.78233
7.87878
11.3478
17.6294
30.5875
63.2578
178.471
936.097
0.222281
0.23009
0.238318
0.246995
0.256154
0.265833
0.276072
0.286913
0.298406
0.310602
0.323562
0.337348
0.352033
0.367695
0.384425
0.402322
0.421498
0.44208
0.464211
0.488058
0.513816
0.54171
0.572009
0.605035
0.641176
0.68092
0.724883
0.773864
0.828818
0.890914
0.961685
1.04318
1.13821
1.25062
1.38583
1.5515
1.75859
2.02306
2.36856
2.83109
3.46737
4.37089
5.70452
7.77254
11.196
17.3979
30.2
62.5086
176.636
929.566
0.22026
0.227994
0.236144
0.244738
0.253811
0.263399
0.273541
0.284282
0.295667
0.307751
0.320591
0.33425
0.348801
0.364322
0.380902
0.398639
0.417644
0.438043
0.459978
0.483616
0.509146
0.536794
0.566823
0.599552
0.635364
0.674735
0.718269
0.766755
0.821147
0.88259
0.952591
1.03317
1.12706
1.23807
1.37151
1.53491
1.73908
1.99976
2.34027
2.79616
3.42343
4.31441
5.62997
7.67073
11.0504
17.1759
29.8283
61.7891
174.872
923.261
0.218329
0.225992
0.234065
0.24258
0.251569
0.261068
0.271117
0.281759
0.293041
0.305016
0.31774
0.331278
0.3457
0.361084
0.377518
0.3951
0.41394
0.434164
0.455913
0.479349
0.504663
0.532075
0.561847
0.59429
0.629785
0.6688
0.711924
0.759939
0.813792
0.874613
0.943881
1.02358
1.1164
1.22607
1.35782
1.51907
1.72046
1.97752
2.31327
2.76281
3.38147
4.26047
5.55876
7.57344
10.9112
16.9636
29.4725
61.1
173.179
917.194
0.216484
0.224079
0.232081
0.240521
0.249431
0.258847
0.268807
0.279356
0.290539
0.30241
0.315023
0.328443
0.342741
0.357992
0.374285
0.391718
0.4104
0.430455
0.452023
0.475265
0.500369
0.527554
0.557078
0.58925
0.624445
0.663121
0.705861
0.753428
0.806764
0.866989
0.935557
1.01442
1.10622
1.21462
1.34477
1.50398
1.70273
1.95635
2.28757
2.73107
3.34153
4.2091
5.49093
7.48074
10.7785
16.7612
29.1332
60.442
171.56
911.373
0.214723
0.222254
0.230188
0.238555
0.24739
0.256725
0.266601
0.27706
0.288149
0.299919
0.312428
0.325736
0.339916
0.355042
0.371202
0.388493
0.407024
0.426918
0.448313
0.471372
0.496279
0.52325
0.552542
0.584458
0.619368
0.657727
0.700105
0.747251
0.800097
0.859755
0.927658
1.00572
1.09655
1.20375
1.33239
1.48965
1.68591
1.93626
2.26318
2.70094
3.30361
4.16033
5.4265
7.39267
10.6525
16.5688
28.8103
59.8156
170.016
905.807
0.213052
0.22052
0.22839
0.236689
0.245451
0.254711
0.264507
0.274882
0.285882
0.297558
0.309966
0.323169
0.337235
0.352243
0.368277
0.385433
0.403821
0.423561
0.444794
0.467678
0.492395
0.519161
0.548228
0.579898
0.614537
0.652591
0.694624
0.741369
0.793749
0.852872
0.920146
0.99746
1.08738
1.19344
1.32065
1.47609
1.66998
1.91725
2.24011
2.67244
3.26773
4.11417
5.36551
7.30928
10.5331
16.3864
28.5043
59.2213
168.55
900.504
0.211476
0.218885
0.226693
0.234928
0.243622
0.252809
0.262529
0.272823
0.283738
0.295323
0.307636
0.320738
0.334698
0.349592
0.365506
0.382535
0.400786
0.420381
0.441457
0.464172
0.48871
0.515282
0.544139
0.575578
0.60996
0.647728
0.689434
0.735802
0.787742
0.846359
0.913042
0.989649
1.07871
1.18371
1.30957
1.4633
1.65497
1.89933
2.21836
2.64558
3.23391
4.07064
5.30798
7.23058
10.4204
16.2142
28.2152
58.6594
167.162
895.469
0.209982
0.217336
0.225085
0.233258
0.241886
0.251004
0.260652
0.270869
0.281702
0.293203
0.305426
0.318433
0.332293
0.347081
0.362882
0.379791
0.397915
0.417373
0.438302
0.460861
0.485229
0.511617
0.540273
0.571493
0.605633
0.643132
0.684534
0.730547
0.782076
0.840219
0.906349
0.982295
1.07055
1.17455
1.29916
1.45127
1.64086
1.8825
2.19794
2.62034
3.20213
4.02973
5.2539
7.1566
10.3144
16.0522
27.9431
58.1302
165.852
890.708
0.208584
0.215885
0.223578
0.231692
0.240259
0.249313
0.258892
0.269038
0.279796
0.291217
0.303356
0.316275
0.33004
0.344727
0.360421
0.377216
0.39522
0.414551
0.435344
0.457757
0.481967
0.508184
0.536653
0.567668
0.601583
0.638829
0.679943
0.725622
0.776765
0.834466
0.900077
0.975405
1.06291
1.16598
1.28941
1.44002
1.62766
1.86676
2.17883
2.59674
3.1724
3.99146
5.20329
7.08734
10.2151
15.9005
27.6881
57.6339
164.623
886.226
0.207273
0.214526
0.222168
0.230228
0.238738
0.247733
0.257249
0.267329
0.278017
0.289364
0.301424
0.314258
0.327936
0.34253
0.358126
0.374817
0.392709
0.411919
0.432584
0.454858
0.478918
0.504975
0.533269
0.564092
0.597793
0.634799
0.675645
0.721012
0.771795
0.829081
0.894208
0.968961
1.05576
1.15797
1.28031
1.42953
1.61536
1.85209
2.16103
2.57475
3.1447
3.9558
5.15613
7.02279
10.1226
15.759
27.4502
57.1706
163.474
882.028
0.206061
0.21327
0.220866
0.228877
0.237336
0.246275
0.255733
0.265751
0.276374
0.287651
0.299638
0.312395
0.32599
0.340496
0.355997
0.372588
0.390373
0.40947
0.430014
0.452158
0.476081
0.501986
0.530118
0.560763
0.594269
0.631057
0.671655
0.716734
0.767182
0.824085
0.888764
0.962984
1.04914
1.15055
1.27188
1.41981
1.60397
1.83851
2.14455
2.55439
3.11905
3.92275
5.11242
6.96295
10.0368
15.6278
27.2294
56.7405
162.406
878.117
0.204943
0.212109
0.21966
0.227624
0.236032
0.244919
0.254322
0.264281
0.274842
0.286054
0.297973
0.310658
0.324177
0.338602
0.35402
0.37052
0.388208
0.407202
0.427636
0.449662
0.473458
0.499226
0.527208
0.557689
0.591011
0.627596
0.667964
0.712778
0.76292
0.819471
0.883739
0.957469
1.04303
1.1437
1.26411
1.41085
1.59347
1.826
2.12937
2.53563
3.09542
3.89232
5.07215
6.9078
9.9577
15.5068
27.0259
56.3436
161.42
874.497
0.203917
0.211046
0.218557
0.226479
0.234843
0.243683
0.253036
0.262942
0.273447
0.2846
0.296455
0.309074
0.322521
0.336872
0.352208
0.368624
0.386222
0.405121
0.425453
0.44737
0.471046
0.496686
0.524528
0.554856
0.588012
0.62441
0.664567
0.709136
0.758996
0.815223
0.879116
0.9524
1.03742
1.13743
1.25699
1.40265
1.58387
1.81455
2.11549
2.51848
3.07381
3.86447
5.0353
6.85733
9.88531
15.396
26.8394
55.9799
160.515
871.171
0.202984
0.210078
0.217552
0.225436
0.233759
0.242556
0.251864
0.261724
0.272179
0.283279
0.295078
0.307637
0.321022
0.335305
0.350571
0.366911
0.384428
0.40324
0.423478
0.445294
0.468864
0.494388
0.522104
0.552296
0.5853
0.621532
0.661502
0.705858
0.755465
0.811396
0.874944
0.947818
1.03234
1.13174
1.25053
1.39521
1.57515
1.80417
2.10289
2.50291
3.05419
3.83921
5.00186
6.81153
9.8196
15.2954
26.6701
55.6494
159.692
868.14
0.202142
0.209204
0.216644
0.224492
0.232778
0.241536
0.250802
0.260618
0.271027
0.282079
0.293827
0.306332
0.31966
0.333884
0.349085
0.365356
0.382801
0.401535
0.421691
0.44342
0.466894
0.492316
0.519921
0.54999
0.58286
0.618939
0.658737
0.702898
0.752278
0.807944
0.871182
0.943692
1.02778
1.12662
1.24473
1.38852
1.56732
1.79484
2.09158
2.48894
3.03658
3.81651
4.97182
6.77037
9.76055
15.205
26.5178
55.3521
158.951
865.407
0.201393
0.208427
0.215838
0.223656
0.23191
0.240634
0.249864
0.259642
0.270012
0.281021
0.292723
0.30518
0.318455
0.332623
0.347766
0.363976
0.381354
0.400018
0.420099
0.441748
0.465136
0.490465
0.51797
0.547929
0.580678
0.616624
0.656272
0.700262
0.749441
0.804872
0.867838
0.940023
1.02371
1.12208
1.23958
1.38259
1.56038
1.78657
2.08155
2.47654
3.02096
3.79638
4.94517
6.73385
9.70813
15.1247
26.3826
55.088
158.293
862.975
0.200738
0.207747
0.215133
0.222923
0.231148
0.239841
0.24904
0.258783
0.269117
0.280089
0.291753
0.304167
0.317398
0.33152
0.346613
0.362769
0.380091
0.398694
0.41871
0.440288
0.463602
0.48885
0.516268
0.546132
0.578776
0.614605
0.654121
0.697961
0.746963
0.802187
0.864913
0.936814
1.02016
1.1181
1.23507
1.3774
1.55431
1.77934
2.07278
2.46571
3.00731
3.77879
4.92188
6.70193
9.66232
15.0545
26.2644
54.857
157.716
860.843
0.200178
0.207167
0.214531
0.222298
0.230499
0.239167
0.248338
0.258053
0.268356
0.279295
0.290924
0.303302
0.316495
0.330576
0.345625
0.361735
0.379007
0.397558
0.417519
0.439038
0.462289
0.487468
0.51481
0.544592
0.577146
0.612876
0.65228
0.69599
0.744841
0.799887
0.862407
0.934065
1.01712
1.1147
1.23121
1.37296
1.54912
1.77316
2.06528
2.45645
2.99563
3.76373
4.90195
6.67461
9.6231
14.9945
26.1631
54.6591
157.222
859.014
0.199709
0.20668
0.214025
0.221772
0.229952
0.238598
0.247747
0.257437
0.267715
0.278628
0.290228
0.302576
0.315737
0.329785
0.344799
0.360872
0.378104
0.396612
0.416526
0.437996
0.461191
0.486313
0.513591
0.543303
0.57578
0.611424
0.650733
0.694335
0.743061
0.797959
0.860309
0.931767
1.01458
1.11186
1.22799
1.36926
1.54479
1.76801
2.05904
2.44873
2.98591
3.7512
4.88535
6.65187
9.59045
14.9445
26.0788
54.4943
156.811
857.488
0.199338
0.206295
0.213626
0.221358
0.229522
0.238151
0.247281
0.256953
0.26721
0.2781
0.289677
0.302
0.315135
0.329154
0.344138
0.360179
0.377379
0.395853
0.41573
0.437161
0.460315
0.48539
0.512619
0.542277
0.574694
0.61027
0.649504
0.693021
0.741646
0.796428
0.858642
0.929939
1.01256
1.1096
1.22543
1.36631
1.54134
1.76389
2.05405
2.44257
2.97814
3.74119
4.87209
6.63369
9.56435
14.9045
26.0114
54.3625
156.481
856.267
0.199058
0.206005
0.213325
0.221046
0.229198
0.237814
0.246931
0.256588
0.26683
0.277704
0.289264
0.301569
0.314684
0.328683
0.343645
0.359662
0.376836
0.395282
0.41513
0.436528
0.459648
0.484687
0.511877
0.541493
0.573864
0.609391
0.648568
0.69202
0.740571
0.795266
0.857379
0.928555
1.01103
1.10789
1.2235
1.36409
1.53874
1.76081
2.05031
2.43795
2.97232
3.73369
4.86216
6.62007
9.54479
14.8745
25.9609
54.2637
156.234
855.35
0.198868
0.205808
0.213121
0.220833
0.228976
0.237584
0.246691
0.256338
0.266569
0.277432
0.288981
0.301274
0.314377
0.328362
0.34331
0.359312
0.376471
0.394901
0.414731
0.436109
0.459208
0.484224
0.511389
0.540978
0.57332
0.608814
0.647955
0.691365
0.739865
0.794501
0.856546
0.927642
1.01002
1.10676
1.22222
1.36262
1.53702
1.75876
2.04782
2.43488