/*--------------------------------*- C++ -*----------------------------------*\
  =========                 |
  \\      /  F ield         | OpenFOAM: The Open Source CFD Toolbox
   \\    /   O peration     | Website:  https://openfoam.org
    \\  /    A nd           | Version:  7
     \\/     M anipulation  |
\*---------------------------------------------------------------------------*/
FoamFile
{
    version     2.0;
    format      ascii;
    class       volVectorField;
    location    "180000";
    object      U;
}
// * * * * * * * * * * * * * * * * * * * * * * * * * * * * * * * * * * * * * //

dimensions      [0 1 -1 0 0 0 0];

internalField   nonuniform List<vector> 
4782
(
(1.5017e-18 8.28272e-19 -0.0098468)
(1.5588e-18 7.0938e-19 -0.00975536)
(1.63634e-18 6.19648e-19 -0.00966192)
(1.64362e-18 6.68171e-19 -0.00956637)
(1.52451e-18 8.97435e-19 -0.00946859)
(1.41973e-18 1.06531e-18 -0.00936847)
(1.47075e-18 9.99203e-19 -0.00926588)
(1.50852e-18 9.457e-19 -0.00916068)
(1.47554e-18 1.00602e-18 -0.00905273)
(1.45484e-18 1.06821e-18 -0.00894187)
(6.72492e-19 1.20618e-18 -0.0127878)
(9.92995e-19 8.69434e-19 -0.0127362)
(1.09556e-18 8.08791e-19 -0.0126841)
(1.01217e-18 8.91591e-19 -0.0126317)
(8.88806e-19 1.02445e-18 -0.0125788)
(5.60236e-19 1.3967e-18 -0.0125256)
(2.63721e-19 1.75199e-18 -0.0124719)
(3.46334e-19 1.6097e-18 -0.0124177)
(5.33448e-19 1.33274e-18 -0.0123631)
(7.24746e-19 1.02605e-18 -0.0123081)
(9.0469e-19 7.39795e-19 -0.0122525)
(9.4396e-19 6.57138e-19 -0.0121965)
(8.28805e-19 7.71613e-19 -0.01214)
(6.77963e-19 9.30224e-19 -0.0120829)
(6.80479e-19 9.23304e-19 -0.0120252)
(7.69524e-19 8.50191e-19 -0.011967)
(8.66633e-19 7.84196e-19 -0.0119082)
(9.55056e-19 7.0539e-19 -0.0118487)
(1.11904e-18 5.13995e-19 -0.0117886)
(1.36197e-18 2.09918e-19 -0.0117279)
(1.46213e-18 6.00555e-20 -0.0116665)
(1.24654e-18 3.09774e-19 -0.0116043)
(8.74134e-19 7.52645e-19 -0.0115415)
(6.22683e-19 1.05135e-18 -0.011478)
(6.24706e-19 1.03163e-18 -0.0114137)
(8.58685e-19 7.20181e-19 -0.0113486)
(1.08943e-18 4.1065e-19 -0.0112827)
(1.20382e-18 2.62101e-19 -0.0112159)
(1.19211e-18 3.16278e-19 -0.0111483)
(1.10913e-18 4.68593e-19 -0.0110798)
(1.17162e-18 4.11862e-19 -0.0110103)
(1.36823e-18 1.98346e-19 -0.0109398)
(1.36859e-18 2.59312e-19 -0.0108684)
(1.20802e-18 5.10172e-19 -0.0107958)
(1.16285e-18 5.9092e-19 -0.0107222)
(1.25825e-18 4.89213e-19 -0.0106474)
(1.35938e-18 4.09183e-19 -0.0105713)
(1.33124e-18 4.81738e-19 -0.0104941)
(1.32473e-18 4.94745e-19 -0.0104155)
(1.37911e-18 3.98859e-19 -0.0103355)
(1.30968e-18 4.73366e-19 -0.0102542)
(1.22885e-18 5.4702e-19 -0.0101713)
(1.25949e-18 4.72282e-19 -0.0100868)
(1.16563e-18 5.51674e-19 -0.0100007)
(8.90379e-19 8.83204e-19 -0.00991281)
(7.2682e-19 1.07754e-18 -0.00982313)
(8.6328e-19 8.79322e-19 -0.00973153)
(1.06546e-18 5.70721e-19 -0.00963793)
(1.0764e-18 5.04536e-19 -0.00954221)
(8.33285e-19 7.62214e-19 -0.00944426)
(5.59256e-19 1.0709e-18 -0.00934397)
(4.19532e-19 1.20901e-18 -0.00924119)
(4.47978e-19 1.1025e-18 -0.00913581)
(6.26813e-19 7.98541e-19 -0.00902766)
(6.72415e-19 6.80151e-19 -0.0089166)
(8.35269e-19 1.25874e-18 -0.0127673)
(6.6331e-19 1.32768e-18 -0.0127156)
(4.2459e-19 1.44463e-18 -0.0126635)
(4.11691e-19 1.32997e-18 -0.012611)
(5.2489e-19 1.09714e-18 -0.0125581)
(5.51193e-19 1.00641e-18 -0.0125048)
(5.43362e-19 1.09159e-18 -0.0124511)
(5.26079e-19 1.21087e-18 -0.0123969)
(4.37762e-19 1.37076e-18 -0.0123422)
(2.78218e-19 1.57266e-18 -0.0122871)
(1.01802e-19 1.70691e-18 -0.0122315)
(2.60295e-20 1.69283e-18 -0.0121755)
(1.84886e-20 1.59768e-18 -0.0121188)
(1.39697e-19 1.4264e-18 -0.0120617)
(4.00076e-19 1.16852e-18 -0.012004)
(5.38048e-19 1.07426e-18 -0.0119456)
(3.75545e-19 1.33216e-18 -0.0118867)
(1.1506e-19 1.69197e-18 -0.0118272)
(3.21371e-20 1.7995e-18 -0.011767)
(6.59152e-20 1.72899e-18 -0.0117062)
(9.78583e-20 1.64559e-18 -0.0116447)
(1.78735e-20 1.72669e-18 -0.0115825)
(-6.15071e-20 1.86802e-18 -0.0115197)
(1.38499e-20 1.854e-18 -0.011456)
(1.75643e-19 1.73472e-18 -0.0113916)
(2.38776e-19 1.70571e-18 -0.0113265)
(2.9077e-19 1.61952e-18 -0.0112605)
(5.63064e-19 1.22446e-18 -0.0111936)
(8.24478e-19 8.47951e-19 -0.0111259)
(8.14731e-19 8.55153e-19 -0.0110573)
(7.82913e-19 8.8661e-19 -0.0109877)
(8.49847e-19 7.61109e-19 -0.0109172)
(7.88272e-19 7.64954e-19 -0.0108456)
(6.40066e-19 9.07496e-19 -0.0107729)
(6.51721e-19 8.56428e-19 -0.0106992)
(8.31955e-19 6.19331e-19 -0.0106243)
(8.26683e-19 5.99198e-19 -0.0105481)
(5.98123e-19 8.32926e-19 -0.0104707)
(4.2176e-19 1.00428e-18 -0.010392)
(4.01107e-19 9.81327e-19 -0.010312)
(4.35075e-19 8.78453e-19 -0.0102304)
(4.88246e-19 7.72046e-19 -0.0101474)
(4.67739e-19 7.51222e-19 -0.0100628)
(4.60596e-19 7.16611e-19 -0.00997652)
(5.398e-19 5.99254e-19 -0.00988851)
(5.75092e-19 5.68895e-19 -0.00979867)
(5.02452e-19 6.61418e-19 -0.00970691)
(4.22226e-19 7.3986e-19 -0.00961314)
(3.73942e-19 7.55803e-19 -0.00951725)
(2.78926e-19 8.23385e-19 -0.00941912)
(2.68481e-19 8.20131e-19 -0.00931863)
(2.05552e-19 9.0523e-19 -0.00921567)
(1.02652e-19 1.04628e-18 -0.00911008)
(1.41245e-19 9.95903e-19 -0.00900173)
(2.35153e-19 8.62261e-19 -0.00889046)
(-9.88029e-19 1.77103e-18 -0.0127462)
(-9.49283e-19 1.75607e-18 -0.0126944)
(-7.73821e-19 1.58765e-18 -0.0126423)
(-4.73246e-19 1.29246e-18 -0.0125898)
(-3.47779e-19 1.14792e-18 -0.0125368)
(-1.67802e-19 9.39405e-19 -0.0124835)
(1.47258e-20 7.66061e-19 -0.0124297)
(2.9583e-20 7.99803e-19 -0.0123755)
(-7.67398e-20 9.72446e-19 -0.0123208)
(-3.00433e-19 1.27289e-18 -0.0122656)
(-4.27915e-19 1.48058e-18 -0.01221)
(-3.74906e-19 1.51234e-18 -0.0121538)
(-8.96256e-20 1.30029e-18 -0.0120971)
(4.57252e-19 7.83432e-19 -0.0120399)
(8.53604e-19 4.11093e-19 -0.0119821)
(8.69043e-19 4.36814e-19 -0.0119237)
(7.74604e-19 6.03429e-19 -0.0118647)
(6.95472e-19 7.88392e-19 -0.0118051)
(6.79641e-19 9.11882e-19 -0.0117449)
(8.098e-19 8.6301e-19 -0.011684)
(1.02414e-18 7.14288e-19 -0.0116224)
(1.20187e-18 5.65171e-19 -0.0115601)
(1.27107e-18 5.46758e-19 -0.0114972)
(1.22327e-18 6.90751e-19 -0.0114335)
(1.12859e-18 8.73092e-19 -0.011369)
(9.44731e-19 1.1475e-18 -0.0113037)
(7.58472e-19 1.42408e-18 -0.0112377)
(7.95128e-19 1.44337e-18 -0.0111707)
(1.0474e-18 1.18025e-18 -0.0111029)
(1.16532e-18 1.04746e-18 -0.0110342)
(1.05194e-18 1.18157e-18 -0.0109645)
(9.3813e-19 1.28932e-18 -0.0108939)
(9.42934e-19 1.26765e-18 -0.0108222)
(9.61392e-19 1.25737e-18 -0.0107494)
(1.05783e-18 1.14383e-18 -0.0106755)
(1.21313e-18 9.30692e-19 -0.0106005)
(1.14229e-18 9.91916e-19 -0.0105243)
(1.01661e-18 1.13653e-18 -0.0104468)
(1.01808e-18 1.14172e-18 -0.0103679)
(1.01547e-18 1.1387e-18 -0.0102877)
(1.00649e-18 1.12135e-18 -0.010206)
(1.04593e-18 1.05404e-18 -0.0101229)
(1.10961e-18 9.59744e-19 -0.0100381)
(1.21797e-18 8.47489e-19 -0.00995167)
(1.30802e-18 7.6459e-19 -0.0098635)
(1.31518e-18 7.70518e-19 -0.00977349)
(1.2908e-18 8.11273e-19 -0.00968156)
(1.26237e-18 8.55875e-19 -0.00958761)
(1.15641e-18 9.71165e-19 -0.00949153)
(1.14268e-18 9.98811e-19 -0.00939321)
(1.2979e-18 8.36945e-19 -0.00929253)
(1.43427e-18 6.82748e-19 -0.00918936)
(1.44817e-18 6.79426e-19 -0.00908357)
(1.41909e-18 7.31063e-19 -0.008975)
(1.4698e-18 6.93946e-19 -0.00886351)
(3.57953e-19 8.74268e-19 -0.0127246)
(3.59947e-19 9.99448e-19 -0.0126728)
(4.00831e-19 1.08951e-18 -0.0126206)
(4.19016e-19 1.16471e-18 -0.012568)
(4.60282e-19 1.17979e-18 -0.0125151)
(6.96269e-19 9.54063e-19 -0.0124617)
(8.12036e-19 8.51914e-19 -0.0124078)
(7.34941e-19 9.55471e-19 -0.0123536)
(5.20728e-19 1.16374e-18 -0.0122988)
(3.85318e-19 1.34005e-18 -0.0122436)
(4.91003e-19 1.29121e-18 -0.0121879)
(7.74109e-19 1.07368e-18 -0.0121316)
(9.81114e-19 8.8711e-19 -0.0120749)
(9.79145e-19 8.67809e-19 -0.0120175)
(8.11284e-19 9.99757e-19 -0.0119597)
(7.0886e-19 1.08968e-18 -0.0119012)
(6.84378e-19 1.13206e-18 -0.0118421)
(5.83105e-19 1.27174e-18 -0.0117824)
(5.52056e-19 1.35196e-18 -0.0117221)
(6.13104e-19 1.34291e-18 -0.0116612)
(4.80176e-19 1.52597e-18 -0.0115995)
(2.23605e-19 1.82799e-18 -0.0115372)
(2.3994e-19 1.8264e-18 -0.0114741)
(3.01213e-19 1.76529e-18 -0.0114103)
(2.8077e-19 1.79901e-18 -0.0113458)
(2.64535e-19 1.85692e-18 -0.0112804)
(3.53637e-19 1.81263e-18 -0.0112143)
(5.37119e-19 1.64815e-18 -0.0111473)
(5.64677e-19 1.63542e-18 -0.0110793)
(4.23253e-19 1.80462e-18 -0.0110105)
(2.59979e-19 2.01511e-18 -0.0109408)
(2.89229e-19 2.03594e-18 -0.01087)
(4.85139e-19 1.871e-18 -0.0107982)
(4.50597e-19 1.95172e-18 -0.0107253)
(2.88459e-19 2.21528e-18 -0.0106513)
(4.43386e-19 2.12059e-18 -0.0105762)
(6.91185e-19 1.89771e-18 -0.0104998)
(6.73325e-19 1.97321e-18 -0.0104222)
(5.12046e-19 2.21386e-18 -0.0103432)
(3.50589e-19 2.45346e-18 -0.0102628)
(3.71481e-19 2.50184e-18 -0.010181)
(5.3604e-19 2.38819e-18 -0.0100977)
(7.88473e-19 2.175e-18 -0.0100128)
(1.09055e-18 1.87899e-18 -0.0099262)
(1.20485e-18 1.76027e-18 -0.00983786)
(1.18832e-18 1.76543e-18 -0.00974768)
(1.09665e-18 1.85739e-18 -0.00965558)
(9.0963e-19 2.07062e-18 -0.00956144)
(9.16943e-19 2.0905e-18 -0.00946517)
(1.02913e-18 1.99792e-18 -0.00936665)
(9.99055e-19 2.04689e-18 -0.00926576)
(9.67992e-19 2.0837e-18 -0.00916237)
(1.03224e-18 2.01053e-18 -0.00905636)
(1.12151e-18 1.90207e-18 -0.00894756)
(1.11853e-18 1.89083e-18 -0.00883583)
(-7.95761e-19 1.11062e-18 -0.0127246)
(-7.38137e-19 1.12415e-18 -0.0126728)
(-6.49523e-19 1.13905e-18 -0.0126206)
(-5.72628e-19 1.15385e-18 -0.012568)
(-5.61947e-19 1.25329e-18 -0.0125151)
(-4.19157e-19 1.21263e-18 -0.0124617)
(-2.91746e-19 1.13809e-18 -0.0124078)
(-5.26497e-19 1.36624e-18 -0.0123536)
(-6.06166e-19 1.47591e-18 -0.0122988)
(-3.97881e-19 1.37017e-18 -0.0122436)
(-1.69548e-19 1.30679e-18 -0.0121879)
(-2.16918e-19 1.44968e-18 -0.0121316)
(-4.76593e-19 1.72543e-18 -0.0120749)
(-3.75057e-19 1.62646e-18 -0.0120175)
(-4.60756e-21 1.23559e-18 -0.0119597)
(2.96107e-19 8.99199e-19 -0.0119012)
(3.6634e-19 7.66786e-19 -0.0118421)
(3.48675e-19 7.50451e-19 -0.0117824)
(4.18405e-19 6.81366e-19 -0.0117221)
(4.46075e-19 6.44357e-19 -0.0116612)
(3.98915e-19 6.48835e-19 -0.0115995)
(4.63455e-19 5.72319e-19 -0.0115372)
(4.52545e-19 5.73171e-19 -0.0114741)
(3.23553e-19 6.58746e-19 -0.0114103)
(3.50064e-19 6.00818e-19 -0.0113458)
(3.23233e-19 5.97203e-19 -0.0112804)
(5.09177e-20 8.32334e-19 -0.0112143)
(-1.49507e-19 9.91357e-19 -0.0111473)
(-2.04476e-20 8.32223e-19 -0.0110793)
(1.88306e-19 6.20109e-19 -0.0110105)
(2.91962e-19 5.35855e-19 -0.0109408)
(3.04151e-19 5.78409e-19 -0.01087)
(2.81471e-19 6.43742e-19 -0.0107982)
(5.45701e-19 4.22524e-19 -0.0107253)
(8.62387e-19 1.77575e-19 -0.0106513)
(8.09778e-19 2.67562e-19 -0.0105762)
(6.31894e-19 4.36487e-19 -0.0104998)
(6.21836e-19 4.45725e-19 -0.0104222)
(6.85732e-19 4.02036e-19 -0.0103432)
(7.21548e-19 3.99624e-19 -0.0102628)
(7.25008e-19 4.35969e-19 -0.010181)
(6.94661e-19 4.9158e-19 -0.0100977)
(5.30096e-19 6.60371e-19 -0.0100128)
(2.49369e-19 9.05516e-19 -0.0099262)
(2.38609e-20 1.06429e-18 -0.00983786)
(-5.94781e-20 1.0868e-18 -0.00974768)
(1.00303e-19 8.84964e-19 -0.00965558)
(3.15504e-19 6.40259e-19 -0.00956144)
(3.01957e-19 6.22218e-19 -0.00946517)
(1.94464e-19 6.86832e-19 -0.00936665)
(1.77245e-19 6.62939e-19 -0.00926576)
(1.77137e-19 6.20302e-19 -0.00916237)
(8.43183e-20 6.57205e-19 -0.00905636)
(-3.68864e-20 7.17185e-19 -0.00894756)
(-1.46223e-19 7.61747e-19 -0.00883583)
(3.09536e-19 5.88748e-19 -0.0127462)
(3.79556e-19 5.13657e-19 -0.0126944)
(4.28518e-19 4.79609e-19 -0.0126423)
(4.78502e-19 4.44655e-19 -0.0125898)
(5.18683e-19 4.34183e-19 -0.0125368)
(4.768e-19 5.0538e-19 -0.0124835)
(3.41332e-19 6.40931e-19 -0.0124297)
(2.94678e-19 7.27056e-19 -0.0123755)
(3.7459e-19 7.36556e-19 -0.0123208)
(7.10175e-19 5.27471e-19 -0.0122656)
(9.18877e-19 4.04734e-19 -0.01221)
(7.53783e-19 5.89791e-19 -0.0121538)
(4.58303e-19 9.14428e-19 -0.0120971)
(-1.64648e-20 1.41356e-18 -0.0120399)
(-4.34278e-19 1.82566e-18 -0.0119821)
(-5.53351e-19 1.93418e-18 -0.0119237)
(-3.71619e-19 1.76701e-18 -0.0118647)
(-1.26579e-19 1.56859e-18 -0.0118051)
(-5.40371e-20 1.515e-18 -0.0117449)
(-1.70393e-19 1.62426e-18 -0.011684)
(-3.41026e-19 1.788e-18 -0.0116224)
(-4.33921e-19 1.89341e-18 -0.0115601)
(-4.64454e-19 1.93986e-18 -0.0114972)
(-4.98713e-19 2.00826e-18 -0.0114335)
(-4.58982e-19 2.01215e-18 -0.011369)
(-3.10422e-19 1.92018e-18 -0.0113037)
(-1.48167e-19 1.83269e-18 -0.0112377)
(-7.73977e-20 1.83008e-18 -0.0111707)
(-2.7007e-21 1.78358e-18 -0.0111029)
(1.85804e-19 1.60681e-18 -0.0110342)
(4.94453e-19 1.33486e-18 -0.0109645)
(7.2999e-19 1.12896e-18 -0.0108939)
(7.16364e-19 1.15619e-18 -0.0108222)
(6.94508e-19 1.20862e-18 -0.0107494)
(6.17421e-19 1.27707e-18 -0.0106755)
(4.50288e-19 1.38006e-18 -0.0106005)
(3.97766e-19 1.36392e-18 -0.0105243)
(4.35407e-19 1.28011e-18 -0.0104468)
(4.60431e-19 1.21367e-18 -0.0103679)
(4.30825e-19 1.19374e-18 -0.0102877)
(3.93372e-19 1.18525e-18 -0.010206)
(3.64685e-19 1.17297e-18 -0.0101229)
(2.92565e-19 1.20621e-18 -0.0100381)
(1.24903e-19 1.34687e-18 -0.00995167)
(7.27146e-21 1.45504e-18 -0.0098635)
(5.98046e-20 1.4179e-18 -0.00977349)
(1.19147e-19 1.36892e-18 -0.00968156)
(1.34914e-19 1.33985e-18 -0.00958761)
(2.22786e-19 1.23797e-18 -0.00949153)
(2.90633e-19 1.1598e-18 -0.00939321)
(2.3775e-19 1.18725e-18 -0.00929253)
(1.68449e-19 1.22241e-18 -0.00918936)
(2.10635e-19 1.16353e-18 -0.00908357)
(3.05683e-19 1.07809e-18 -0.008975)
(2.83155e-19 1.10536e-18 -0.00886351)
(2.24761e-19 1.17483e-18 -0.00874892)
(3.25319e-19 1.10705e-18 -0.00863105)
(5.64851e-19 9.08155e-19 -0.00850973)
(7.08701e-19 7.78045e-19 -0.00838474)
(-9.83283e-19 2.12763e-18 -0.0127673)
(-7.44945e-19 1.91014e-18 -0.0127156)
(-6.13267e-19 1.76169e-18 -0.0126635)
(-5.15006e-19 1.65901e-18 -0.012611)
(-4.38914e-19 1.57476e-18 -0.0125581)
(-3.48124e-19 1.48829e-18 -0.0125048)
(-2.00134e-19 1.36717e-18 -0.0124511)
(-2.19243e-19 1.39498e-18 -0.0123969)
(-2.48518e-19 1.3969e-18 -0.0123422)
(-2.32158e-19 1.34297e-18 -0.0122871)
(-2.25423e-19 1.27732e-18 -0.0122315)
(-2.0565e-19 1.2421e-18 -0.0121755)
(-2.20048e-19 1.23703e-18 -0.0121188)
(-2.01964e-19 1.21654e-18 -0.0120617)
(-2.75265e-19 1.31016e-18 -0.012004)
(-3.003e-19 1.40799e-18 -0.0119456)
(-1.51741e-19 1.35979e-18 -0.0118867)
(-7.22334e-21 1.29005e-18 -0.0118272)
(1.03118e-19 1.2295e-18 -0.011767)
(2.19649e-19 1.15023e-18 -0.0117062)
(2.98003e-19 1.09035e-18 -0.0116447)
(3.97796e-19 1.01808e-18 -0.0115825)
(4.92577e-19 9.78419e-19 -0.0115197)
(5.19615e-19 1.03457e-18 -0.011456)
(5.81989e-19 1.07588e-18 -0.0113916)
(6.90994e-19 1.06636e-18 -0.0113265)
(5.77622e-19 1.19681e-18 -0.0112605)
(1.46047e-19 1.54085e-18 -0.0111936)
(-1.81905e-19 1.79768e-18 -0.0111259)
(-1.00131e-19 1.73393e-18 -0.0110573)
(8.71119e-20 1.57152e-18 -0.0109877)
(2.00017e-19 1.42257e-18 -0.0109172)
(3.80215e-19 1.19838e-18 -0.0108456)
(5.23849e-19 1.02441e-18 -0.0107729)
(2.73329e-19 1.17683e-18 -0.0106992)
(-2.58878e-19 1.5744e-18 -0.0106243)
(-4.92436e-19 1.73098e-18 -0.0105481)
(-3.46107e-19 1.5907e-18 -0.0104707)
(-2.17672e-19 1.48109e-18 -0.010392)
(-1.36454e-19 1.41212e-18 -0.010312)
(-5.27433e-20 1.3437e-18 -0.0102304)
(2.87942e-20 1.27762e-18 -0.0101474)
(1.32408e-19 1.19397e-18 -0.0100628)
(1.5813e-19 1.17798e-18 -0.00997652)
(1.03735e-19 1.2582e-18 -0.00988851)
(6.28457e-20 1.33886e-18 -0.00979867)
(7.54118e-20 1.35982e-18 -0.00970691)
(1.10502e-19 1.34334e-18 -0.00961314)
(1.11684e-19 1.34674e-18 -0.00951725)
(9.70046e-20 1.35807e-18 -0.00941912)
(7.41766e-20 1.38469e-18 -0.00931863)
(1.12385e-19 1.36204e-18 -0.00921567)
(3.09578e-19 1.21056e-18 -0.00911008)
(5.05395e-19 1.04723e-18 -0.00900173)
(6.16375e-19 9.48965e-19 -0.00889045)
(7.36404e-19 8.52604e-19 -0.00877609)
(8.3421e-19 7.87004e-19 -0.00865846)
(8.1409e-19 8.10255e-19 -0.00853737)
(7.21681e-19 8.70285e-19 -0.00841263)
(7.28558e-19 8.39455e-19 -0.008284)
(-9.42763e-19 1.18042e-19 -0.0127878)
(-1.05101e-18 2.97604e-19 -0.0127362)
(-9.45829e-19 3.01887e-19 -0.0126841)
(-7.88964e-19 2.39927e-19 -0.0126317)
(-6.99388e-19 2.29184e-19 -0.0125788)
(-6.62082e-19 2.50949e-19 -0.0125256)
(-6.46663e-19 3.14207e-19 -0.0124719)
(-7.7178e-19 4.74061e-19 -0.0124177)
(-9.68967e-19 7.0831e-19 -0.0123631)
(-8.38525e-19 6.86605e-19 -0.0123081)
(-4.99241e-19 5.21426e-19 -0.0122525)
(-4.28428e-19 5.42414e-19 -0.0121965)
(-6.58621e-19 8.15964e-19 -0.01214)
(-8.77409e-19 1.067e-18 -0.0120829)
(-8.32159e-19 1.12397e-18 -0.0120252)
(-7.37796e-19 1.14514e-18 -0.011967)
(-7.15077e-19 1.21003e-18 -0.0119082)
(-6.91738e-19 1.25963e-18 -0.0118487)
(-7.70983e-19 1.41035e-18 -0.0117886)
(-1.01459e-18 1.67617e-18 -0.0117279)
(-1.21311e-18 1.87177e-18 -0.0116665)
(-1.09908e-18 1.79574e-18 -0.0116043)
(-6.968e-19 1.48989e-18 -0.0115415)
(-4.2048e-19 1.27017e-18 -0.011478)
(-4.19499e-19 1.26716e-18 -0.0114137)
(-6.55626e-19 1.43455e-18 -0.0113486)
(-1.06508e-18 1.73525e-18 -0.0112827)
(-1.31783e-18 1.9358e-18 -0.0112159)
(-1.16635e-18 1.86197e-18 -0.0111483)
(-9.52163e-19 1.73596e-18 -0.0110798)
(-1.0316e-18 1.81787e-18 -0.0110103)
(-1.23115e-18 1.986e-18 -0.0109398)
(-1.19563e-18 1.97323e-18 -0.0108684)
(-9.96766e-19 1.80601e-18 -0.0107958)
(-8.77605e-19 1.69093e-18 -0.0107222)
(-8.5483e-19 1.66196e-18 -0.0106474)
(-7.2036e-19 1.57252e-18 -0.0105713)
(-4.01066e-19 1.33204e-18 -0.0104941)
(-2.04201e-19 1.15462e-18 -0.0104155)
(-1.77059e-19 1.10566e-18 -0.0103355)
(-1.72748e-19 1.07245e-18 -0.0102542)
(-1.7262e-19 1.05051e-18 -0.0101713)
(-2.0351e-19 1.03828e-18 -0.0100868)
(-9.92072e-20 9.12471e-19 -0.0100007)
(1.12936e-19 7.1244e-19 -0.00991281)
(9.73644e-20 6.97974e-19 -0.00982313)
(-1.69193e-19 8.9102e-19 -0.00973154)
(-4.09784e-19 1.05139e-18 -0.00963793)
(-4.26792e-19 1.03954e-18 -0.00954221)
(-2.92233e-19 9.16433e-19 -0.00944426)
(-2.14912e-19 8.48037e-19 -0.00934397)
(-2.19774e-19 8.47857e-19 -0.00924119)
(-2.58783e-19 8.66481e-19 -0.00913581)
(-3.32031e-19 8.98757e-19 -0.00902766)
(-3.00975e-19 8.48599e-19 -0.0089166)
(-1.46215e-19 6.93725e-19 -0.00880245)
(-2.16266e-20 5.51712e-19 -0.00868504)
(-1.09968e-19 5.72958e-19 -0.00856418)
(-2.83137e-19 6.63901e-19 -0.00843966)
(-3.37865e-19 6.66926e-19 -0.00831127)
(-2.26171e-19 5.39138e-19 -0.00817877)
(1.42871e-20 3.12053e-19 -0.00804193)
(2.11564e-19 1.3167e-19 -0.00790048)
(1.88739e-19 1.35044e-19 -0.00775415)
(1.07058e-19 1.77486e-19 -0.00760265)
(1.74738e-19 8.68249e-20 -0.00744569)
(3.13176e-19 -6.04854e-20 -0.00728294)
(3.82039e-19 -1.47781e-19 -0.00711409)
(4.19909e-19 -2.11026e-19 -0.00693882)
(4.58691e-19 -2.76014e-19 -0.00675678)
(4.3949e-19 -2.96713e-19 -0.00656764)
(3.52295e-19 -2.71078e-19 -0.00637103)
(2.67028e-19 -2.51676e-19 -0.00616635)
(2.33057e-19 -2.67933e-19 -0.00595274)
(2.28715e-19 -3.00386e-19 -0.00572956)
(2.55609e-19 -3.53565e-19 -0.00549645)
(2.38643e-19 -3.73558e-19 -0.00525323)
(1.43876e-19 -3.30411e-19 -0.00499992)
(5.49508e-20 -2.85064e-19 -0.00473685)
(-1.14788e-20 -2.46056e-19 -0.00446466)
(-5.16725e-20 -2.15344e-19 -0.00418436)
(-4.52812e-20 -2.10235e-19 -0.00389726)
(-2.15642e-20 -2.05857e-19 -0.00360496)
(-4.14263e-21 -1.82974e-19 -0.00330916)
(2.50418e-20 -1.5897e-19 -0.00301151)
(4.05124e-20 -1.1126e-19 -0.00271354)
(6.31339e-20 -5.37491e-20 -0.00241646)
(1.08919e-19 -4.0097e-21 -0.0021212)
(1.53081e-19 5.2273e-20 -0.00182841)
(1.72587e-19 1.29575e-19 -0.00153849)
(1.71583e-19 2.12302e-19 -0.00125165)
(1.79873e-19 2.68389e-19 -0.000968006)
(1.94532e-19 2.87995e-19 -0.000687572)
(2.0103e-19 2.68139e-19 -0.000410343)
(3.38893e-20 4.77905e-20 -0.000136295)
(-8.58569e-19 7.14643e-19 -0.0128077)
(-5.34211e-19 5.95859e-19 -0.0127561)
(-5.99282e-19 6.89156e-19 -0.0127041)
(-6.14402e-19 7.06365e-19 -0.0126517)
(-5.49699e-19 6.35543e-19 -0.0125989)
(-3.46248e-19 4.9645e-19 -0.0125457)
(-9.88105e-20 3.27089e-19 -0.0124921)
(-4.00034e-20 3.10869e-19 -0.012438)
(-2.8441e-20 3.36092e-19 -0.0123834)
(-3.05056e-20 3.53671e-19 -0.0123284)
(-3.00455e-20 3.16923e-19 -0.0122729)
(7.48606e-20 1.95457e-19 -0.012217)
(1.4984e-19 1.42923e-19 -0.0121605)
(9.46885e-20 1.96356e-19 -0.0121035)
(-8.29863e-21 2.55566e-19 -0.0120459)
(-1.59656e-19 3.326e-19 -0.0119877)
(-2.16742e-19 3.50964e-19 -0.0119289)
(-5.13759e-20 2.14646e-19 -0.0118695)
(1.25969e-19 4.99267e-20 -0.0118095)
(-5.08698e-20 1.59249e-19 -0.0117489)
(-4.37285e-19 4.47792e-19 -0.0116875)
(-6.50655e-19 6.21904e-19 -0.0116255)
(-7.1151e-19 6.591e-19 -0.0115627)
(-7.3055e-19 6.32716e-19 -0.0114993)
(-7.13298e-19 5.923e-19 -0.011435)
(-6.84719e-19 5.52964e-19 -0.01137)
(-6.67891e-19 5.49033e-19 -0.0113042)
(-7.3043e-19 6.49174e-19 -0.0112375)
(-8.44388e-19 8.10838e-19 -0.01117)
(-8.79732e-19 9.10111e-19 -0.0111016)
(-8.00835e-19 9.20376e-19 -0.0110322)
(-6.67909e-19 9.06345e-19 -0.0109618)
(-6.3744e-19 9.95656e-19 -0.0108904)
(-6.98062e-19 1.1608e-18 -0.010818)
(-8.19276e-19 1.37669e-18 -0.0107444)
(-9.77061e-19 1.60879e-18 -0.0106697)
(-1.02317e-18 1.73124e-18 -0.0105938)
(-1.14853e-18 1.87292e-18 -0.0105167)
(-1.23535e-18 1.96297e-18 -0.0104382)
(-1.12978e-18 1.90773e-18 -0.0103584)
(-9.3789e-19 1.7843e-18 -0.0102771)
(-8.64403e-19 1.74506e-18 -0.0101944)
(-9.20648e-19 1.79674e-18 -0.01011)
(-8.54457e-19 1.75706e-18 -0.010024)
(-7.39299e-19 1.65954e-18 -0.00993632)
(-5.91864e-19 1.52642e-18 -0.0098468)
(-5.69247e-19 1.49212e-18 -0.00975536)
(-6.09006e-19 1.54743e-18 -0.00966192)
(-4.91151e-19 1.51026e-18 -0.00956637)
(-2.92831e-19 1.41953e-18 -0.00946859)
(-1.32739e-19 1.34641e-18 -0.00936847)
(-9.89462e-20 1.36792e-18 -0.00926588)
(-6.73079e-20 1.40119e-18 -0.00916068)
(5.19186e-20 1.37428e-18 -0.00905273)
(1.37137e-19 1.36288e-18 -0.00894187)
(1.39854e-19 1.40067e-18 -0.00882793)
(1.70533e-19 1.40911e-18 -0.00871073)
(2.38519e-19 1.37892e-18 -0.00859008)
(3.20442e-19 1.34068e-18 -0.00846578)
(4.57081e-19 1.26475e-18 -0.00833762)
(6.11199e-19 1.17524e-18 -0.00820535)
(7.71925e-19 1.07979e-18 -0.00806873)
(9.62787e-19 9.58222e-19 -0.00792751)
(1.06564e-18 9.01199e-19 -0.0077814)
(9.18787e-19 1.03972e-18 -0.00763012)
(7.26608e-19 1.2128e-18 -0.00747336)
(7.11794e-19 1.24829e-18 -0.00731081)
(7.70207e-19 1.22411e-18 -0.00714214)
(8.09253e-19 1.20726e-18 -0.00696702)
(8.00443e-19 1.21291e-18 -0.00678511)
(7.08916e-19 1.27282e-18 -0.00659607)
(5.83106e-19 1.35651e-18 -0.00639953)
(5.46052e-19 1.37957e-18 -0.00619492)
(6.19922e-19 1.32059e-18 -0.0059814)
(7.34159e-19 1.22409e-18 -0.00575824)
(7.80134e-19 1.1696e-18 -0.00552507)
(7.92175e-19 1.13241e-18 -0.00528166)
(7.8041e-19 1.10904e-18 -0.00502803)
(7.66974e-19 1.08406e-18 -0.00476446)
(7.6866e-19 1.04269e-18 -0.00449157)
(7.28019e-19 1.02514e-18 -0.00421034)
(6.91433e-19 9.99191e-19 -0.0039221)
(6.60245e-19 9.66737e-19 -0.00362843)
(6.05843e-19 9.51214e-19 -0.00333106)
(5.32775e-19 9.47736e-19 -0.0030317)
(5.12291e-19 9.02609e-19 -0.00273189)
(5.35458e-19 8.29025e-19 -0.0024329)
(5.47058e-19 7.67348e-19 -0.00213569)
(5.41318e-19 7.15535e-19 -0.00184093)
(5.14491e-19 6.7187e-19 -0.00154904)
(4.73205e-19 6.26843e-19 -0.00126025)
(4.36498e-19 5.57882e-19 -0.000974659)
(3.74822e-19 4.74656e-19 -0.000692302)
(2.88228e-19 3.65899e-19 -0.000413168)
(7.23801e-20 9.34454e-20 -0.000137234)
(-1.09363e-19 -6.25507e-20 -0.012827)
(-4.47791e-19 1.70159e-19 -0.0127754)
(-8.4301e-19 4.48496e-19 -0.0127235)
(-1.07632e-18 6.44859e-19 -0.0126711)
(-1.01325e-18 6.75955e-19 -0.0126184)
(-8.28448e-19 6.32365e-19 -0.0125652)
(-6.94319e-19 5.95595e-19 -0.0125116)
(-6.52411e-19 6.09263e-19 -0.0124575)
(-9.33025e-19 7.95871e-19 -0.012403)
(-1.23237e-18 9.49442e-19 -0.0123481)
(-1.29584e-18 9.40854e-19 -0.0122926)
(-1.04328e-18 7.41458e-19 -0.0122367)
(-9.6848e-19 6.33767e-19 -0.0121803)
(-1.32011e-18 8.15097e-19 -0.0121233)
(-1.59169e-18 9.33628e-19 -0.0120658)
(-1.59894e-18 8.85774e-19 -0.0120077)
(-1.56579e-18 8.29121e-19 -0.011949)
(-1.70943e-18 8.7004e-19 -0.0118897)
(-1.81308e-18 8.6e-19 -0.0118297)
(-1.74794e-18 7.15901e-19 -0.0117691)
(-1.74217e-18 6.23312e-19 -0.0117079)
(-1.80318e-18 5.93378e-19 -0.0116459)
(-1.83777e-18 5.58521e-19 -0.0115832)
(-1.69893e-18 4.27355e-19 -0.0115198)
(-1.54405e-18 3.00826e-19 -0.0114557)
(-1.51529e-18 2.60142e-19 -0.0113908)
(-1.39184e-18 1.48041e-19 -0.011325)
(-1.13758e-18 -3.90653e-20 -0.0112584)
(-8.76147e-19 -2.0522e-19 -0.011191)
(-8.04601e-19 -2.38011e-19 -0.0111226)
(-8.9435e-19 -1.84703e-19 -0.0110533)
(-8.20242e-19 -2.5064e-19 -0.010983)
(-5.27434e-19 -4.56152e-19 -0.0109117)
(-2.17175e-19 -6.6313e-19 -0.0108394)
(-1.61019e-19 -6.99491e-19 -0.0107659)
(-5.13849e-19 -4.33644e-19 -0.0106913)
(-9.79918e-19 -6.41606e-20 -0.0106155)
(-1.17956e-18 1.44788e-19 -0.0105385)
(-1.20031e-18 2.41481e-19 -0.0104601)
(-1.25458e-18 3.42014e-19 -0.0103804)
(-1.28241e-18 4.28135e-19 -0.0102993)
(-1.29073e-18 4.88249e-19 -0.0102166)
(-1.33551e-18 5.83206e-19 -0.0101324)
(-1.4116e-18 6.95384e-19 -0.0100466)
(-1.45776e-18 7.84363e-19 -0.00995901)
(-1.44735e-18 8.34142e-19 -0.00986962)
(-1.17002e-18 6.87487e-19 -0.00977833)
(-7.41444e-19 4.29363e-19 -0.00968504)
(-4.97053e-19 2.90717e-19 -0.00958965)
(-4.47226e-19 2.8729e-19 -0.00949204)
(-4.83829e-19 3.38486e-19 -0.00939209)
(-3.97282e-19 2.97406e-19 -0.00928967)
(-3.22875e-19 2.67901e-19 -0.00918465)
(-4.81701e-19 3.9074e-19 -0.00907689)
(-6.90185e-19 5.37242e-19 -0.00896622)
(-7.51602e-19 5.8264e-19 -0.00885247)
(-8.26231e-19 6.41527e-19 -0.00873548)
(-9.74498e-19 7.47685e-19 -0.00861504)
(-1.05065e-18 8.04107e-19 -0.00849095)
(-1.05566e-18 8.10302e-19 -0.008363)
(-9.36825e-19 7.17085e-19 -0.00823094)
(-7.28781e-19 5.50925e-19 -0.00809455)
(-5.50362e-19 4.02934e-19 -0.00795354)
(-4.05891e-19 2.74513e-19 -0.00780765)
(-3.30888e-19 1.93937e-19 -0.00765658)
(-3.14009e-19 1.65279e-19 -0.00750002)
(-2.87832e-19 1.3261e-19 -0.00733766)
(-3.42764e-19 1.50592e-19 -0.00716917)
(-4.95789e-19 2.35991e-19 -0.00699421)
(-5.96891e-19 2.85695e-19 -0.00681243)
(-5.88487e-19 2.59549e-19 -0.00662348)
(-4.93585e-19 1.78257e-19 -0.006427)
(-3.6938e-19 8.07036e-20 -0.00622248)
(-3.70999e-19 6.96396e-20 -0.00600905)
(-4.53438e-19 1.12347e-19 -0.00578593)
(-4.65245e-19 1.03372e-19 -0.0055527)
(-4.31949e-19 6.15827e-20 -0.00530913)
(-4.02541e-19 2.13614e-20 -0.0050552)
(-4.14122e-19 1.40936e-20 -0.00479117)
(-4.94528e-19 6.31748e-20 -0.00451761)
(-5.67647e-19 1.16727e-19 -0.00423551)
(-5.42856e-19 1.09784e-19 -0.00394617)
(-4.69773e-19 7.61391e-20 -0.00365119)
(-4.3005e-19 7.23868e-20 -0.00335232)
(-4.07794e-19 9.236e-20 -0.0030513)
(-3.44078e-19 9.44133e-20 -0.00274971)
(-2.31277e-19 7.11284e-20 -0.00244887)
(-1.24603e-19 5.90175e-20 -0.00214977)
(-4.49221e-20 7.20288e-20 -0.0018531)
(2.1742e-21 1.08993e-19 -0.00155929)
(2.84953e-20 1.5632e-19 -0.0012686)
(5.83799e-20 1.86834e-19 -0.000981123)
(9.85756e-20 1.83332e-19 -0.000696897)
(1.10001e-19 1.61889e-19 -0.000415913)
(2.52816e-20 3.60281e-20 -0.000138147)
(-1.00042e-18 -1.0298e-19 -0.0128455)
(-9.69459e-19 -2.25737e-19 -0.012794)
(-9.3293e-19 -3.02511e-19 -0.0127421)
(-7.36229e-19 -4.5771e-19 -0.0126898)
(-5.07354e-19 -5.87567e-19 -0.0126371)
(-4.10946e-19 -6.41871e-19 -0.0125839)
(-3.3234e-19 -6.60802e-19 -0.0125304)
(-5.28309e-19 -5.25713e-19 -0.0124764)
(-9.7585e-19 -1.97647e-19 -0.0124219)
(-1.27105e-18 5.88165e-20 -0.012367)
(-1.18349e-18 7.56771e-20 -0.0123116)
(-1.06845e-18 5.82742e-20 -0.0122557)
(-1.02387e-18 4.90163e-20 -0.0121993)
(-1.03848e-18 8.00606e-20 -0.0121424)
(-1.11728e-18 1.6782e-19 -0.012085)
(-1.04949e-18 1.95661e-19 -0.0120269)
(-1.04454e-18 2.58163e-19 -0.0119683)
(-1.08834e-18 3.4021e-19 -0.0119091)
(-1.14074e-18 4.36769e-19 -0.0118492)
(-1.32098e-18 6.09805e-19 -0.0117886)
(-1.45065e-18 7.57938e-19 -0.0117274)
(-1.40573e-18 7.89422e-19 -0.0116656)
(-1.18538e-18 7.166e-19 -0.011603)
(-8.93658e-19 5.83438e-19 -0.0115396)
(-7.03062e-19 4.84117e-19 -0.0114756)
(-6.80264e-19 4.80696e-19 -0.0114107)
(-6.13023e-19 4.46016e-19 -0.011345)
(-3.92003e-19 3.17803e-19 -0.0112785)
(-2.87146e-19 2.41102e-19 -0.0112111)
(-4.91939e-19 3.36873e-19 -0.0111428)
(-7.01244e-19 4.18729e-19 -0.0110736)
(-6.21809e-19 3.14073e-19 -0.0110034)
(-5.08006e-19 1.88889e-19 -0.0109322)
(-5.67576e-19 1.59987e-19 -0.01086)
(-5.59292e-19 6.48161e-20 -0.0107866)
(-3.44596e-19 -1.60105e-19 -0.0107121)
(-7.55502e-20 -4.00903e-19 -0.0106364)
(-4.34844e-20 -4.63835e-19 -0.0105595)
(-3.04967e-19 -3.3456e-19 -0.0104812)
(-4.15917e-19 -3.07504e-19 -0.0104016)
(-3.91056e-19 -3.71523e-19 -0.0103206)
(-4.11128e-19 -3.92573e-19 -0.0102381)
(-4.61608e-19 -3.65761e-19 -0.010154)
(-4.96078e-19 -3.33847e-19 -0.0100683)
(-4.29892e-19 -3.59069e-19 -0.00998081)
(-4.3913e-19 -3.29228e-19 -0.00989155)
(-6.6114e-19 -1.57393e-19 -0.00980041)
(-8.72097e-19 -1.6323e-20 -0.00970726)
(-8.15669e-19 -6.38102e-20 -0.00961202)
(-6.70058e-19 -1.65783e-19 -0.00951456)
(-6.75143e-19 -1.71704e-19 -0.00941477)
(-7.43151e-19 -1.43325e-19 -0.00931253)
(-8.08171e-19 -1.32567e-19 -0.00920768)
(-9.33907e-19 -7.70328e-20 -0.00910009)
(-1.00962e-18 -4.79125e-20 -0.0089896)
(-9.95361e-19 -8.40874e-20 -0.00887605)
(-9.77734e-19 -1.25813e-19 -0.00875924)
(-9.63105e-19 -1.53907e-19 -0.008639)
(-9.14253e-19 -2.02698e-19 -0.00851512)
(-9.71874e-19 -1.91319e-19 -0.00838737)
(-1.12307e-18 -1.21124e-19 -0.00825552)
(-1.10718e-18 -1.58778e-19 -0.00811933)
(-9.65232e-19 -2.82974e-19 -0.00797854)
(-8.80069e-19 -3.77283e-19 -0.00783285)
(-8.53632e-19 -4.40099e-19 -0.00768198)
(-8.56272e-19 -4.83556e-19 -0.00752563)
(-8.97703e-19 -5.01256e-19 -0.00736345)
(-9.09442e-19 -5.34186e-19 -0.00719513)
(-8.58386e-19 -5.99969e-19 -0.00702032)
(-8.30903e-19 -6.42423e-19 -0.00683867)
(-8.28024e-19 -6.66515e-19 -0.00664982)
(-8.14475e-19 -6.92509e-19 -0.00645342)
(-8.13027e-19 -7.12838e-19 -0.00624898)
(-8.0847e-19 -7.35243e-19 -0.00603565)
(-7.86881e-19 -7.61826e-19 -0.00581256)
(-7.80615e-19 -7.685e-19 -0.00557929)
(-8.10833e-19 -7.46608e-19 -0.00533558)
(-8.0587e-19 -7.42748e-19 -0.00508138)
(-6.94936e-19 -8.03045e-19 -0.00481691)
(-5.59074e-19 -8.72127e-19 -0.00454273)
(-4.65173e-19 -9.02269e-19 -0.0042598)
(-4.46016e-19 -8.71275e-19 -0.00396941)
(-4.69234e-19 -8.03847e-19 -0.00367318)
(-4.86422e-19 -7.27491e-19 -0.00337286)
(-4.77213e-19 -6.54117e-19 -0.00307025)
(-4.45065e-19 -5.83761e-19 -0.00276695)
(-3.96595e-19 -5.12611e-19 -0.00246432)
(-3.24953e-19 -4.45764e-19 -0.00216339)
(-2.46906e-19 -3.74603e-19 -0.00186487)