/*--------------------------------*- C++ -*----------------------------------*\
  =========                 |
  \\      /  F ield         | OpenFOAM: The Open Source CFD Toolbox
   \\    /   O peration     | Website:  https://openfoam.org
    \\  /    A nd           | Version:  7
     \\/     M anipulation  |
\*---------------------------------------------------------------------------*/
FoamFile
{
    version     2.0;
    format      ascii;
    class       volVectorField;
    location    "180000";
    object      vorticity;
}
// * * * * * * * * * * * * * * * * * * * * * * * * * * * * * * * * * * * * * //

dimensions      [0 0 -1 0 0 0 0];

internalField   nonuniform List<vector> 
4782
(
(-0.0732092 -0.0551212 3.75363e-17)
(-0.0757633 -0.0570391 3.77237e-17)
(-0.0784557 -0.0590608 3.78426e-17)
(-0.0812967 -0.061194 3.82224e-17)
(-0.0842969 -0.0634468 3.84485e-17)
(-0.0874684 -0.065828 3.81433e-17)
(-0.0908237 -0.0683473 3.77307e-17)
(-0.0943768 -0.0710151 3.72713e-17)
(-0.0981427 -0.0738426 3.89635e-17)
(-0.102138 -0.0768419 4.26078e-17)
(-0.0229041 -0.0184636 1.40702e-17)
(-0.0233765 -0.0188421 1.64833e-17)
(-0.0238612 -0.0192304 1.76469e-17)
(-0.0243586 -0.0196291 1.75145e-17)
(-0.0248694 -0.0200384 1.73977e-17)
(-0.0253941 -0.0204588 1.71788e-17)
(-0.0259331 -0.0208909 1.69091e-17)
(-0.0264873 -0.021335 1.63863e-17)
(-0.0270571 -0.0217916 1.57701e-17)
(-0.0276432 -0.0222615 1.50333e-17)
(-0.0282476 -0.0227459 1.41976e-17)
(-0.0288741 -0.0232481 1.3583e-17)
(-0.0295257 -0.0237708 1.33427e-17)
(-0.0302019 -0.0243133 1.33578e-17)
(-0.0309008 -0.024874 1.33698e-17)
(-0.0316217 -0.0254523 1.41152e-17)
(-0.0323649 -0.0260485 1.49567e-17)
(-0.0331312 -0.0266632 1.54056e-17)
(-0.0339215 -0.0272971 1.53471e-17)
(-0.0347371 -0.0279513 1.46316e-17)
(-0.0355796 -0.0286268 1.36233e-17)
(-0.0364503 -0.029325 1.26302e-17)
(-0.0373509 -0.0300472 1.17833e-17)
(-0.0382832 -0.0307946 1.11198e-17)
(-0.0392488 -0.0315688 1.02863e-17)
(-0.0402498 -0.0323713 9.27018e-18)
(-0.0412881 -0.0332038 7.96074e-18)
(-0.0423659 -0.0340678 6.99016e-18)
(-0.0434855 -0.0349652 6.99614e-18)
(-0.0446492 -0.0358981 7.20156e-18)
(-0.0458596 -0.0368683 7.01948e-18)
(-0.0471195 -0.0378782 6.98763e-18)
(-0.0484318 -0.0389301 7.27482e-18)
(-0.0497997 -0.0400265 7.66018e-18)
(-0.0512266 -0.0411701 7.98992e-18)
(-0.052716 -0.0423639 8.3478e-18)
(-0.0542719 -0.0436109 8.97972e-18)
(-0.0558985 -0.0449145 9.41077e-18)
(-0.0576004 -0.0462784 8.69336e-18)
(-0.0593823 -0.0477064 7.38212e-18)
(-0.0612495 -0.0492028 6.3055e-18)
(-0.0632078 -0.0507721 5.15624e-18)
(-0.0652633 -0.0524192 3.48262e-18)
(-0.0674225 -0.0541494 2.25977e-18)
(-0.0696927 -0.0559686 1.32417e-18)
(-0.0720817 -0.0578828 4.78651e-19)
(-0.0745978 -0.0598989 -9.94744e-19)
(-0.0772502 -0.0620241 -3.13626e-18)
(-0.0800487 -0.0642664 -5.87897e-18)
(-0.0830041 -0.0666342 -8.55708e-18)
(-0.0861279 -0.0691369 -1.10062e-17)
(-0.0894326 -0.0717846 -1.39026e-17)
(-0.0929318 -0.074588 -1.76593e-17)
(-0.0966403 -0.077559 -1.94228e-17)
(-0.100574 -0.0807103 -1.9536e-17)
(-0.022512 -0.0193115 1.60965e-17)
(-0.022976 -0.0197078 1.56165e-17)
(-0.0234522 -0.0201145 1.36098e-17)
(-0.023941 -0.0205319 1.0769e-17)
(-0.0244429 -0.0209606 8.95796e-18)
(-0.0249584 -0.021401 8.43941e-18)
(-0.0254881 -0.0218535 9.73552e-18)
(-0.0260327 -0.0223187 1.17038e-17)
(-0.0265926 -0.0227972 1.33876e-17)
(-0.0271688 -0.0232895 1.43435e-17)
(-0.0277642 -0.0237984 1.4393e-17)
(-0.028383 -0.0243276 1.38486e-17)
(-0.0290262 -0.0248778 1.30864e-17)
(-0.029692 -0.0254474 1.31325e-17)
(-0.0303791 -0.0260353 1.37928e-17)
(-0.0310874 -0.0266412 1.45246e-17)
(-0.0318174 -0.0272656 1.54968e-17)
(-0.03257 -0.0279093 1.64335e-17)
(-0.0333463 -0.0285731 1.6502e-17)
(-0.0341477 -0.0292583 1.5708e-17)
(-0.0349755 -0.0299659 1.47639e-17)
(-0.0358312 -0.0306974 1.39487e-17)
(-0.0367165 -0.0314541 1.41777e-17)
(-0.0376329 -0.0322375 1.52026e-17)
(-0.0385824 -0.033049 1.62075e-17)
(-0.0395667 -0.0338902 1.69323e-17)
(-0.0405877 -0.0347628 1.62262e-17)
(-0.0416477 -0.0356687 1.43685e-17)
(-0.0427488 -0.0366097 1.23912e-17)
(-0.0438935 -0.0375879 1.11471e-17)
(-0.0450841 -0.0386054 1.0168e-17)
(-0.0463235 -0.0396645 8.5e-18)
(-0.0476145 -0.0407677 6.45336e-18)
(-0.0489602 -0.0419176 4.40738e-18)
(-0.0503639 -0.0431171 2.33041e-18)
(-0.0518293 -0.0443692 4.88903e-19)
(-0.0533601 -0.0456772 -8.58335e-19)
(-0.0549605 -0.0470446 -2.24191e-18)
(-0.056635 -0.0484752 -3.64108e-18)
(-0.0583882 -0.0499732 -5.4498e-18)
(-0.0602254 -0.0515429 -7.75119e-18)
(-0.0621522 -0.053189 -9.96259e-18)
(-0.0641746 -0.0549168 -1.21553e-17)
(-0.0662991 -0.0567318 -1.43097e-17)
(-0.0685328 -0.05864 -1.57916e-17)
(-0.0708833 -0.0606479 -1.63521e-17)
(-0.0733588 -0.0627626 -1.6682e-17)
(-0.0759683 -0.0649917 -1.80178e-17)
(-0.0787214 -0.0673435 -2.06245e-17)
(-0.0816287 -0.0698268 -2.29082e-17)
(-0.0847015 -0.0724514 -2.52526e-17)
(-0.087952 -0.0752278 -2.72793e-17)
(-0.0913935 -0.0781673 -2.87687e-17)
(-0.0950405 -0.0812822 -2.85111e-17)
(-0.0989083 -0.0845856 -2.75382e-17)
(-0.0220973 -0.0201556 1.05781e-17)
(-0.0225525 -0.0205695 1.24184e-17)
(-0.0230197 -0.0209943 1.18957e-17)
(-0.0234993 -0.0214304 9.5843e-18)
(-0.023992 -0.0218782 7.12738e-18)
(-0.0244981 -0.0223382 5.56543e-18)
(-0.0250184 -0.022811 5.13392e-18)
(-0.0255533 -0.0232972 5.66135e-18)
(-0.0261033 -0.0237975 6.32698e-18)
(-0.0266699 -0.0243137 7.44276e-18)
(-0.0272568 -0.0248493 9.04071e-18)
(-0.027867 -0.0254065 1.08806e-17)
(-0.0284999 -0.0259842 1.27987e-17)
(-0.0291536 -0.0265807 1.47657e-17)
(-0.0298275 -0.0271953 1.66247e-17)
(-0.0305219 -0.0278283 1.79737e-17)
(-0.0312376 -0.0284804 1.96201e-17)
(-0.0319756 -0.0291527 2.17251e-17)
(-0.032737 -0.0298462 2.37589e-17)
(-0.0335231 -0.0305622 2.55446e-17)
(-0.0343354 -0.0313019 2.68748e-17)
(-0.0351753 -0.0320666 2.77913e-17)
(-0.0360443 -0.0328579 2.88324e-17)
(-0.0369441 -0.0336772 3.05324e-17)
(-0.0378764 -0.034526 3.24748e-17)
(-0.038843 -0.035406 3.40967e-17)
(-0.0398458 -0.036319 3.56558e-17)
(-0.040887 -0.0372669 3.70763e-17)
(-0.0419686 -0.0382516 3.72372e-17)
(-0.043093 -0.0392752 3.6949e-17)
(-0.0442626 -0.04034 3.67485e-17)
(-0.0454802 -0.0414485 3.62297e-17)
(-0.0467486 -0.0426031 3.54807e-17)
(-0.0480707 -0.0438067 3.4961e-17)
(-0.04945 -0.0450623 3.40164e-17)
(-0.0508898 -0.046373 3.26768e-17)
(-0.052394 -0.0477422 3.12603e-17)
(-0.0539665 -0.0491737 3.02853e-17)
(-0.0556118 -0.0506714 2.97562e-17)
(-0.0573346 -0.0522395 2.89086e-17)
(-0.0591399 -0.0538828 2.78063e-17)
(-0.0610332 -0.0556062 2.66866e-17)
(-0.0630205 -0.057415 2.61782e-17)
(-0.0651081 -0.0593151 2.58209e-17)
(-0.0673028 -0.0613127 2.59085e-17)
(-0.0696123 -0.0634147 2.58028e-17)
(-0.0720446 -0.0656285 2.56722e-17)
(-0.0746084 -0.0679618 2.52367e-17)
(-0.0773132 -0.0704235 2.40904e-17)
(-0.0801692 -0.0730227 2.22219e-17)
(-0.0831876 -0.0757696 1.97543e-17)
(-0.0863803 -0.0786752 1.71856e-17)
(-0.0897603 -0.0817511 1.48644e-17)
(-0.0933416 -0.0850102 1.53845e-17)
(-0.0971394 -0.0884661 1.74608e-17)
(-0.022289 -0.0203641 2.45713e-17)
(-0.0227325 -0.0207972 2.77213e-17)
(-0.0231877 -0.0212416 3.01283e-17)
(-0.0236552 -0.0216976 3.11156e-17)
(-0.0241353 -0.0221657 3.13618e-17)
(-0.0246286 -0.0226463 3.07474e-17)
(-0.025136 -0.0231404 2.90706e-17)
(-0.0256601 -0.0236502 2.73644e-17)
(-0.0262034 -0.0241786 2.63366e-17)
(-0.0267659 -0.024726 2.6349e-17)
(-0.0273467 -0.0252918 2.70985e-17)
(-0.027946 -0.0258757 2.78233e-17)
(-0.0285642 -0.0264778 2.79869e-17)
(-0.029202 -0.0270983 2.75091e-17)
(-0.0298596 -0.0277378 2.67058e-17)
(-0.0305379 -0.0283968 2.59262e-17)
(-0.0312376 -0.0290763 2.56648e-17)
(-0.0319595 -0.0297772 2.61737e-17)
(-0.0327049 -0.0305005 2.69554e-17)
(-0.0334749 -0.0312475 2.76779e-17)
(-0.0342707 -0.0320195 2.84491e-17)
(-0.0350939 -0.0328177 2.87689e-17)
(-0.0359458 -0.0336436 2.85472e-17)
(-0.0368281 -0.0344988 2.76309e-17)
(-0.0377424 -0.0353849 2.71686e-17)
(-0.0386905 -0.0363036 2.75209e-17)
(-0.0396744 -0.0372567 2.79854e-17)
(-0.0406959 -0.0382462 2.77726e-17)
(-0.0417574 -0.0392741 2.74754e-17)
(-0.0428609 -0.0403426 2.75457e-17)
(-0.0440091 -0.0414542 2.78414e-17)
(-0.0452044 -0.0426112 2.81789e-17)
(-0.0464498 -0.0438165 2.85954e-17)
(-0.047748 -0.0450729 2.93848e-17)
(-0.0491025 -0.0463834 3.05095e-17)
(-0.0505165 -0.0477515 3.11553e-17)
(-0.0519939 -0.0491807 3.16117e-17)
(-0.0535385 -0.0506748 3.23946e-17)
(-0.0551547 -0.052238 3.32312e-17)
(-0.0568471 -0.0538747 3.45637e-17)
(-0.0586206 -0.0555898 3.57143e-17)
(-0.0604806 -0.0573885 3.69111e-17)
(-0.062433 -0.0592763 3.75241e-17)
(-0.0644839 -0.0612593 3.72993e-17)
(-0.0666401 -0.0633441 3.65557e-17)
(-0.068909 -0.0655377 3.54524e-17)
(-0.0712985 -0.0678479 3.42127e-17)
(-0.0738171 -0.0702827 3.36848e-17)
(-0.076474 -0.0728514 3.35121e-17)
(-0.0792793 -0.0755634 3.28062e-17)
(-0.0822438 -0.0784294 3.16121e-17)
(-0.0853792 -0.0814606 2.93388e-17)
(-0.0886981 -0.0846694 2.6009e-17)
(-0.0922143 -0.0880688 2.43856e-17)
(-0.0959422 -0.0916732 2.39003e-17)
(-0.0203641 -0.022289 1.8284e-17)
(-0.0207973 -0.0227325 1.96902e-17)
(-0.0212416 -0.0231877 2.06096e-17)
(-0.0216976 -0.0236552 2.12545e-17)
(-0.0221657 -0.0241353 2.17018e-17)
(-0.0226463 -0.0246286 2.14859e-17)
(-0.0231404 -0.025136 2.09658e-17)
(-0.0236503 -0.0256601 2.04347e-17)
(-0.0241786 -0.0262034 2.0432e-17)
(-0.024726 -0.0267659 2.16355e-17)
(-0.0252918 -0.0273467 2.33207e-17)
(-0.0258757 -0.027946 2.39781e-17)
(-0.0264778 -0.0285642 2.37754e-17)
(-0.0270983 -0.029202 2.29876e-17)
(-0.0277378 -0.0298596 2.15533e-17)
(-0.0283968 -0.0305379 1.97663e-17)
(-0.0290763 -0.0312376 1.77347e-17)
(-0.0297772 -0.0319595 1.60703e-17)
(-0.0305005 -0.0327049 1.49955e-17)
(-0.0312475 -0.0334749 1.39104e-17)
(-0.0320195 -0.0342707 1.24891e-17)
(-0.0328177 -0.0350939 1.10434e-17)
(-0.0336436 -0.0359458 9.58817e-18)
(-0.0344988 -0.0368281 7.90453e-18)
(-0.0353849 -0.0377424 6.14705e-18)
(-0.0363036 -0.0386905 4.04506e-18)
(-0.0372567 -0.0396744 1.94161e-18)
(-0.0382462 -0.0406959 -2.42159e-19)
(-0.0392741 -0.0417574 -1.91351e-18)
(-0.0403426 -0.0428609 -3.07553e-18)
(-0.0414542 -0.0440091 -3.52121e-18)
(-0.0426112 -0.0452044 -3.40688e-18)
(-0.0438165 -0.0464498 -3.26156e-18)
(-0.0450729 -0.047748 -3.12776e-18)
(-0.0463834 -0.0491025 -3.04955e-18)
(-0.0477515 -0.0505165 -3.60919e-18)
(-0.0491807 -0.0519939 -4.83203e-18)
(-0.0506748 -0.0535385 -6.40195e-18)
(-0.052238 -0.0551547 -7.70092e-18)
(-0.0538747 -0.0568471 -8.50341e-18)
(-0.0555899 -0.0586206 -9.24132e-18)
(-0.0573885 -0.0604806 -1.01776e-17)
(-0.0592763 -0.062433 -1.19559e-17)
(-0.0612593 -0.0644839 -1.47709e-17)
(-0.0633441 -0.0666401 -1.86273e-17)
(-0.0655377 -0.068909 -2.24578e-17)
(-0.0678479 -0.0712985 -2.55829e-17)
(-0.0702827 -0.0738171 -2.82481e-17)
(-0.0728514 -0.076474 -3.06545e-17)
(-0.0755634 -0.0792793 -3.33599e-17)
(-0.0784294 -0.0822438 -3.63972e-17)
(-0.0814606 -0.0853792 -4.01526e-17)
(-0.0846694 -0.0886982 -4.45038e-17)
(-0.0880688 -0.0922143 -4.81388e-17)
(-0.0916732 -0.0959422 -5.12177e-17)
(-0.0201556 -0.0220973 1.89943e-17)
(-0.0205695 -0.0225525 1.87867e-17)
(-0.0209943 -0.0230197 1.84907e-17)
(-0.0214304 -0.0234993 1.85679e-17)
(-0.0218782 -0.023992 1.90937e-17)
(-0.0223383 -0.0244981 1.98498e-17)
(-0.0228111 -0.0250183 2.07907e-17)
(-0.0232972 -0.0255533 2.21663e-17)
(-0.0237975 -0.0261033 2.364e-17)
(-0.0243137 -0.0266699 2.48157e-17)
(-0.0248493 -0.0272567 2.61415e-17)
(-0.0254065 -0.027867 2.70641e-17)
(-0.0259842 -0.0284999 2.75344e-17)
(-0.0265807 -0.0291536 2.81575e-17)
(-0.0271953 -0.0298275 2.84775e-17)
(-0.0278283 -0.0305219 2.81513e-17)
(-0.0284804 -0.0312376 2.78682e-17)
(-0.0291527 -0.0319756 2.79521e-17)
(-0.0298462 -0.032737 2.78198e-17)
(-0.0305622 -0.0335231 2.75422e-17)
(-0.0313019 -0.0343354 2.69904e-17)
(-0.0320666 -0.0351753 2.6552e-17)
(-0.0328579 -0.0360443 2.65212e-17)
(-0.0336772 -0.0369441 2.68136e-17)
(-0.034526 -0.0378764 2.72283e-17)
(-0.035406 -0.038843 2.78322e-17)
(-0.036319 -0.0398458 2.85189e-17)
(-0.0372669 -0.040887 2.92328e-17)
(-0.0382516 -0.0419686 2.89799e-17)
(-0.0392752 -0.043093 2.83295e-17)
(-0.04034 -0.0442626 2.78909e-17)
(-0.0414485 -0.0454802 2.77197e-17)
(-0.0426031 -0.0467486 2.74842e-17)
(-0.0438067 -0.0480707 2.72467e-17)
(-0.0450623 -0.04945 2.61473e-17)
(-0.046373 -0.0508898 2.40428e-17)
(-0.0477422 -0.052394 2.14474e-17)
(-0.0491737 -0.0539665 1.9121e-17)
(-0.0506714 -0.0556118 1.71768e-17)
(-0.0522395 -0.0573346 1.5122e-17)
(-0.0538828 -0.0591399 1.30755e-17)
(-0.0556062 -0.0610332 1.10292e-17)
(-0.057415 -0.0630205 9.5417e-18)
(-0.0593151 -0.0651081 8.54683e-18)
(-0.0613128 -0.0673028 8.02653e-18)
(-0.0634148 -0.0696123 7.56238e-18)
(-0.0656285 -0.0720446 6.99143e-18)
(-0.0679618 -0.0746084 5.71699e-18)
(-0.0704235 -0.0773132 4.34392e-18)
(-0.0730227 -0.0801692 2.72334e-18)
(-0.0757697 -0.0831876 6.31632e-19)
(-0.0786752 -0.0863803 -1.18704e-18)
(-0.0817511 -0.0897603 -2.63628e-18)
(-0.0850102 -0.0933416 -3.41513e-18)
(-0.0884661 -0.0971394 -3.79555e-18)
(-0.0921337 -0.10117 -4.21983e-18)
(-0.0960288 -0.10545 -4.55538e-18)
(-0.100168 -0.11 -4.92007e-18)
(-0.104571 -0.114838 -6.06062e-18)
(-0.0193115 -0.022512 1.98917e-17)
(-0.0197078 -0.022976 2.02427e-17)
(-0.0201145 -0.0234522 2.09535e-17)
(-0.0205319 -0.023941 2.17193e-17)
(-0.0209606 -0.0244428 2.24594e-17)
(-0.021401 -0.0249584 2.31693e-17)
(-0.0218535 -0.0254881 2.3854e-17)
(-0.0223187 -0.0260327 2.42713e-17)
(-0.0227972 -0.0265926 2.42859e-17)
(-0.0232895 -0.0271688 2.44286e-17)
(-0.0237984 -0.0277642 2.44607e-17)
(-0.0243276 -0.028383 2.44191e-17)
(-0.0248778 -0.0290262 2.45438e-17)
(-0.0254474 -0.029692 2.48662e-17)
(-0.0260353 -0.0303791 2.56259e-17)
(-0.0266412 -0.0310874 2.67932e-17)
(-0.0272656 -0.0318174 2.82938e-17)
(-0.0279093 -0.03257 2.91929e-17)
(-0.0285731 -0.0333463 2.97552e-17)
(-0.0292583 -0.0341477 3.02071e-17)
(-0.0299659 -0.0349755 3.00402e-17)
(-0.0306974 -0.0358312 2.97679e-17)
(-0.0314541 -0.0367165 3.03657e-17)
(-0.0322375 -0.0376329 3.19166e-17)
(-0.033049 -0.0385824 3.36104e-17)
(-0.0338902 -0.0395667 3.50764e-17)
(-0.0347628 -0.0405877 3.50016e-17)
(-0.0356687 -0.0416477 3.38676e-17)
(-0.0366098 -0.0427488 3.27098e-17)
(-0.0375879 -0.0438935 3.18877e-17)
(-0.0386054 -0.0450841 3.08407e-17)
(-0.0396645 -0.0463235 2.86373e-17)
(-0.0407677 -0.0476145 2.57289e-17)
(-0.0419176 -0.0489602 2.29601e-17)
(-0.0431171 -0.050364 2.0176e-17)
(-0.0443692 -0.0518293 1.74764e-17)
(-0.0456772 -0.0533601 1.55849e-17)
(-0.0470446 -0.0549605 1.45725e-17)
(-0.0484753 -0.056635 1.3912e-17)
(-0.0499732 -0.0583882 1.34741e-17)
(-0.0515429 -0.0602254 1.30277e-17)
(-0.053189 -0.0621522 1.25377e-17)
(-0.0549168 -0.0641746 1.21395e-17)
(-0.0567318 -0.0662991 1.22358e-17)
(-0.05864 -0.0685328 1.31662e-17)
(-0.060648 -0.0708833 1.42414e-17)
(-0.0627626 -0.0733588 1.48464e-17)
(-0.0649917 -0.0759683 1.51559e-17)
(-0.0673435 -0.0787214 1.45218e-17)
(-0.0698268 -0.0816287 1.31925e-17)
(-0.0724514 -0.0847015 1.18254e-17)
(-0.0752278 -0.087952 1.13667e-17)
(-0.0781673 -0.0913935 1.10894e-17)
(-0.0812822 -0.0950405 1.02136e-17)
(-0.0845856 -0.0989083 9.01368e-18)
(-0.0880919 -0.103014 8.42911e-18)
(-0.0918163 -0.107375 7.61957e-18)
(-0.0957753 -0.11201 5.79641e-18)
(-0.0999865 -0.116942 3.97974e-18)
(-0.104468 -0.12219 2.4912e-18)
(-0.0184636 -0.0229041 1.65169e-18)
(-0.0188421 -0.0233765 2.38229e-18)
(-0.0192304 -0.0238612 3.33341e-18)
(-0.0196291 -0.0243586 4.19827e-18)
(-0.0200384 -0.0248694 4.71124e-18)
(-0.0204588 -0.0253941 5.43291e-18)
(-0.0208909 -0.0259331 6.55963e-18)
(-0.021335 -0.0264873 7.65306e-18)
(-0.0217916 -0.0270571 8.92283e-18)
(-0.0222615 -0.0276432 1.04496e-17)
(-0.0227459 -0.0282476 1.19005e-17)
(-0.0232481 -0.0288741 1.33287e-17)
(-0.0237708 -0.0295257 1.45435e-17)
(-0.0243133 -0.0302019 1.56923e-17)
(-0.024874 -0.0309008 1.71019e-17)
(-0.0254523 -0.0316217 1.87734e-17)
(-0.0260486 -0.0323649 2.03238e-17)
(-0.0266632 -0.0331312 2.16768e-17)
(-0.0272971 -0.0339215 2.27928e-17)
(-0.0279513 -0.0347371 2.33659e-17)
(-0.0286268 -0.0355796 2.34184e-17)
(-0.029325 -0.0364503 2.31618e-17)
(-0.0300472 -0.0373509 2.29629e-17)
(-0.0307946 -0.0382831 2.28341e-17)
(-0.0315689 -0.0392488 2.24572e-17)
(-0.0323714 -0.0402498 2.18959e-17)
(-0.0332038 -0.0412881 2.13157e-17)
(-0.0340678 -0.0423659 2.1265e-17)
(-0.0349652 -0.0434855 2.21046e-17)
(-0.0358981 -0.0446492 2.29773e-17)
(-0.0368683 -0.0458596 2.33113e-17)
(-0.0378782 -0.0471195 2.33266e-17)
(-0.0389301 -0.0484318 2.35054e-17)
(-0.0400265 -0.0497997 2.331e-17)
(-0.0411701 -0.0512266 2.22643e-17)
(-0.0423639 -0.052716 2.14018e-17)
(-0.0436109 -0.0542719 2.10648e-17)
(-0.0449145 -0.0558985 2.02171e-17)
(-0.0462784 -0.0576004 1.84257e-17)
(-0.0477064 -0.0593823 1.63197e-17)
(-0.0492028 -0.0612495 1.41321e-17)
(-0.0507721 -0.0632078 1.21393e-17)
(-0.0524192 -0.0652633 9.91085e-18)
(-0.0541495 -0.0674225 7.79352e-18)
(-0.0559686 -0.0696927 6.36632e-18)
(-0.0578828 -0.0720817 5.46154e-18)
(-0.0598989 -0.0745978 3.78862e-18)
(-0.0620241 -0.0772502 2.20147e-18)
(-0.0642664 -0.0800487 9.64083e-19)
(-0.0666342 -0.0830041 -1.1858e-19)
(-0.069137 -0.0861279 -1.06611e-18)
(-0.0717846 -0.0894326 -1.67176e-18)
(-0.0745881 -0.0929318 -2.72573e-18)
(-0.0775591 -0.0966403 -4.42658e-18)
(-0.0807103 -0.100574 -6.47868e-18)
(-0.0840555 -0.10475 -9.53082e-18)
(-0.0876094 -0.109186 -1.31345e-17)
(-0.0913878 -0.113903 -1.72226e-17)
(-0.0954077 -0.118921 -2.07397e-17)
(-0.099687 -0.124263 -2.35923e-17)
(-0.104245 -0.129953 -2.64663e-17)
(-0.109101 -0.136016 -2.80559e-17)
(-0.114277 -0.142478 -2.90314e-17)
(-0.119794 -0.149365 -2.99844e-17)
(-0.125674 -0.156706 -3.07834e-17)
(-0.131939 -0.164528 -3.22709e-17)
(-0.13861 -0.172856 -3.4032e-17)
(-0.145705 -0.181715 -3.49175e-17)
(-0.153244 -0.191127 -3.5647e-17)
(-0.161244 -0.201116 -3.72215e-17)
(-0.169738 -0.211722 -3.86822e-17)
(-0.17886 -0.223113 -3.85942e-17)
(-0.188844 -0.235578 -3.763e-17)
(-0.199743 -0.249186 -3.73474e-17)
(-0.211359 -0.26369 -3.64486e-17)
(-0.223493 -0.27884 -3.31437e-17)
(-0.235975 -0.294427 -2.98749e-17)
(-0.248575 -0.31016 -2.55745e-17)
(-0.260993 -0.325666 -1.84344e-17)
(-0.272875 -0.340505 -7.72711e-18)
(-0.283854 -0.354217 5.67824e-18)
(-0.293596 -0.366384 2.0758e-17)
(-0.301857 -0.376703 3.91626e-17)
(-0.30853 -0.385041 5.848e-17)
(-0.313659 -0.391449 7.74447e-17)
(-0.317413 -0.396142 9.60908e-17)
(-0.320045 -0.399434 1.12534e-16)
(-0.321833 -0.401673 1.23722e-16)
(-0.323039 -0.403184 1.29055e-16)
(-0.323874 -0.404232 1.24079e-16)
(-0.324496 -0.405013 1.03941e-16)
(-0.325006 -0.405655 6.77594e-17)
(-0.325464 -0.406232 1.18383e-17)
(-0.3259 -0.406781 -2.73349e-16)
(-0.326326 -0.407318 -3.75284e-16)
(-0.0176124 -0.0232749 1.28681e-17)
(-0.017973 -0.0237551 1.36606e-17)
(-0.018343 -0.0242479 1.41592e-17)
(-0.0187228 -0.0247536 1.42673e-17)
(-0.0191127 -0.0252728 1.41874e-17)
(-0.0195133 -0.0258061 1.44041e-17)
(-0.0199248 -0.0263541 1.44735e-17)
(-0.0203478 -0.0269173 1.44012e-17)
(-0.0207828 -0.0274965 1.40445e-17)
(-0.0212302 -0.0280922 1.32616e-17)
(-0.0216908 -0.0287054 1.18702e-17)
(-0.022167 -0.0293393 1.05488e-17)
(-0.0226624 -0.0299987 9.74772e-18)
(-0.0231777 -0.0306841 9.00948e-18)
(-0.023711 -0.0313936 7.90207e-18)
(-0.0242617 -0.0321261 6.6539e-18)
(-0.0248296 -0.0328815 5.51135e-18)
(-0.0254152 -0.0336605 4.61108e-18)
(-0.026019 -0.0344639 3.40935e-18)
(-0.0266422 -0.035293 2.00769e-18)
(-0.0272856 -0.0361492 1.15772e-18)
(-0.0279506 -0.0370341 5.58821e-19)
(-0.0286382 -0.0379492 -1.79807e-19)
(-0.0293498 -0.0388963 -1.39257e-18)
(-0.0300869 -0.0398772 -2.41781e-18)
(-0.0308507 -0.040894 -3.26864e-18)
(-0.031643 -0.0419485 -3.46995e-18)
(-0.0324653 -0.0430431 -2.46259e-18)
(-0.0333194 -0.04418 -9.30736e-19)
(-0.034207 -0.0453616 1.24831e-18)
(-0.0351303 -0.0465907 4.09607e-18)
(-0.0360912 -0.0478699 7.49748e-18)
(-0.037092 -0.0492022 1.12929e-17)
(-0.0381351 -0.050591 1.48391e-17)
(-0.0392231 -0.0520395 1.86141e-17)
(-0.0403587 -0.0535515 2.24873e-17)
(-0.041545 -0.055131 2.56186e-17)
(-0.0427851 -0.0567822 2.75144e-17)
(-0.0440826 -0.0585097 2.82269e-17)
(-0.045441 -0.0603185 2.90911e-17)
(-0.0468644 -0.0622139 2.9933e-17)
(-0.0483572 -0.0642017 3.03821e-17)
(-0.049924 -0.066288 3.08145e-17)
(-0.0515698 -0.0684798 3.0708e-17)
(-0.0533003 -0.0707842 2.98095e-17)
(-0.0551212 -0.0732092 2.85599e-17)
(-0.0570391 -0.0757633 2.80845e-17)
(-0.0590609 -0.0784558 2.88707e-17)
(-0.061194 -0.0812967 3.10723e-17)
(-0.0634468 -0.084297 3.42618e-17)
(-0.065828 -0.0874684 3.71551e-17)
(-0.0683473 -0.0908237 4.0022e-17)
(-0.0710151 -0.0943768 4.28465e-17)
(-0.0738426 -0.0981428 4.52771e-17)
(-0.0768419 -0.102138 4.70881e-17)
(-0.0800263 -0.106379 4.8238e-17)
(-0.0834098 -0.110886 4.8622e-17)
(-0.0870076 -0.115678 4.79999e-17)
(-0.0908361 -0.120778 4.72581e-17)
(-0.0949126 -0.126208 4.71928e-17)
(-0.0992555 -0.131993 4.7171e-17)
(-0.103884 -0.138158 4.7098e-17)
(-0.108819 -0.144732 4.64589e-17)
(-0.114081 -0.151741 4.5421e-17)
(-0.119691 -0.159215 4.55625e-17)
(-0.125671 -0.16718 4.5511e-17)
(-0.132041 -0.175666 4.4589e-17)
(-0.13882 -0.184698 4.34864e-17)
(-0.146028 -0.1943 4.0794e-17)
(-0.15368 -0.204495 3.57862e-17)
(-0.161806 -0.21532 2.99743e-17)
(-0.17051 -0.226918 2.48672e-17)
(-0.18002 -0.239587 1.99929e-17)
(-0.190437 -0.253464 1.49025e-17)
(-0.20158 -0.268309 8.75117e-18)
(-0.213241 -0.283845 4.54484e-19)
(-0.225262 -0.299862 -8.82668e-18)
(-0.237426 -0.316069 -1.83287e-17)
(-0.249446 -0.332086 -2.69032e-17)
(-0.260982 -0.347459 -3.50703e-17)
(-0.271674 -0.361708 -4.2883e-17)
(-0.28119 -0.37439 -4.95766e-17)
(-0.289283 -0.385179 -5.4473e-17)
(-0.295837 -0.393919 -5.81452e-17)
(-0.300884 -0.400651 -6.20077e-17)
(-0.304583 -0.405587 -6.40262e-17)
(-0.307176 -0.40905 -6.39327e-17)
(-0.308936 -0.411404 -6.76887e-17)
(-0.31012 -0.412988 -7.81235e-17)
(-0.310936 -0.414084 -9.49968e-17)
(-0.31154 -0.414896 -1.21472e-16)
(-0.312033 -0.415561 -1.63483e-16)
(-0.312475 -0.416158 -2.24166e-16)
(-0.312896 -0.416726 -4.57465e-16)
(-0.313307 -0.417281 -5.53057e-16)
(-0.0167585 -0.0236249 6.67885e-18)
(-0.0171013 -0.0241125 7.11508e-18)
(-0.0174529 -0.0246129 7.34092e-18)
(-0.0178139 -0.0251264 7.8174e-18)
(-0.0181845 -0.0256536 8.41511e-18)
(-0.0185651 -0.026195 8.75136e-18)
(-0.0189561 -0.0267513 9.29618e-18)
(-0.0193581 -0.0273231 9.83944e-18)
(-0.0197713 -0.027911 1.01066e-17)
(-0.0201964 -0.0285157 9.64167e-18)
(-0.0206339 -0.0291381 8.63546e-18)
(-0.0210852 -0.0297801 7.47411e-18)
(-0.0215535 -0.0304461 5.68049e-18)
(-0.022041 -0.0311389 3.4362e-18)
(-0.0225468 -0.0318578 1.26812e-18)
(-0.0230698 -0.032601 -4.17644e-19)
(-0.0236093 -0.0333678 -2.11083e-18)
(-0.0241658 -0.0341588 -4.22618e-18)
(-0.0247397 -0.0349745 -6.67707e-18)
(-0.0253319 -0.0358163 -9.28687e-18)
(-0.0259433 -0.0366855 -1.15242e-17)
(-0.026575 -0.0375836 -1.3617e-17)
(-0.0272282 -0.0385124 -1.5477e-17)
(-0.0279041 -0.0394735 -1.68903e-17)
(-0.0286041 -0.0404688 -1.7967e-17)
(-0.0293295 -0.0415003 -1.92662e-17)
(-0.0300817 -0.0425701 -2.03762e-17)
(-0.0308625 -0.0436804 -2.10116e-17)
(-0.0316733 -0.0448336 -2.13246e-17)
(-0.032516 -0.046032 -2.12072e-17)
(-0.0333924 -0.0472785 -2.18868e-17)
(-0.0343045 -0.0485758 -2.31297e-17)
(-0.0352544 -0.049927 -2.37722e-17)
(-0.0362445 -0.0513352 -2.37939e-17)
(-0.0372771 -0.052804 -2.36409e-17)
(-0.038355 -0.0543372 -2.34579e-17)
(-0.0394808 -0.0559387 -2.23932e-17)
(-0.0406578 -0.0576129 -2.00973e-17)
(-0.041889 -0.0593644 -1.72899e-17)
(-0.0431782 -0.0611982 -1.43307e-17)
(-0.044529 -0.0631199 -1.12046e-17)
(-0.0459456 -0.0651352 -8.35922e-18)
(-0.0474325 -0.0672504 -5.82978e-18)
(-0.0489944 -0.0694725 -3.57695e-18)
(-0.0506365 -0.0718088 -1.54267e-18)
(-0.0523646 -0.0742673 2.90529e-19)
(-0.0541847 -0.0768568 2.22267e-18)
(-0.0561034 -0.0795867 3.32011e-18)
(-0.0581279 -0.0824671 3.95054e-18)
(-0.0602661 -0.0855092 4.80489e-18)
(-0.0625262 -0.088725 5.56128e-18)
(-0.0649176 -0.0921275 6.73963e-18)
(-0.0674501 -0.0957308 7.46046e-18)
(-0.0701344 -0.0995503 7.92749e-18)
(-0.0729822 -0.103602 8.26103e-18)
(-0.076006 -0.107905 8.46719e-18)
(-0.0792193 -0.112477 8.39823e-18)
(-0.0826368 -0.11734 8.23686e-18)
(-0.086274 -0.122516 8.21504e-18)
(-0.0901475 -0.128028 7.56927e-18)
(-0.0942752 -0.133901 6.13893e-18)
(-0.0986756 -0.140163 4.10275e-18)
(-0.103368 -0.146842 1.97635e-18)
(-0.108374 -0.153965 -6.25818e-19)
(-0.113713 -0.161562 -3.33796e-18)
(-0.119405 -0.169664 -5.33821e-18)
(-0.125473 -0.178298 -7.50374e-18)
(-0.131933 -0.187493 -9.30174e-18)
(-0.138805 -0.197273 -1.10569e-17)
(-0.146105 -0.207662 -1.31235e-17)
(-0.153857 -0.218695 -1.4726e-17)
(-0.162141 -0.230487 -1.559e-17)
(-0.171178 -0.243346 -1.57288e-17)
(-0.181107 -0.257475 -1.53107e-17)
(-0.191764 -0.272644 -1.47451e-17)
(-0.202938 -0.288548 -1.54853e-17)
(-0.21448 -0.304977 -1.51164e-17)
(-0.226186 -0.321639 -1.33207e-17)
(-0.237783 -0.338148 -9.55101e-18)
(-0.248945 -0.354039 -2.44074e-18)
(-0.25932 -0.368812 4.88732e-18)
(-0.268582 -0.382001 1.42837e-17)
(-0.276482 -0.393253 2.52014e-17)
(-0.282896 -0.402392 3.84625e-17)
(-0.287845 -0.409445 5.35887e-17)
(-0.291475 -0.414623 6.88857e-17)
(-0.294021 -0.418257 8.28961e-17)
(-0.295747 -0.420725 9.40161e-17)
(-0.296904 -0.422383 1.00494e-16)
(-0.297699 -0.423525 9.9138e-17)
(-0.298285 -0.424369 8.67901e-17)
(-0.298761 -0.425057 5.81099e-17)
(-0.299186 -0.425673 9.69645e-18)
(-0.299591 -0.426259 -1.51814e-16)
(-0.299986 -0.426831 -2.25244e-16)
(-0.0159026 -0.0239545 -1.22692e-18)
(-0.0162275 -0.0244492 -3.32627e-18)
(-0.0165609 -0.0249566 -5.82975e-18)
(-0.016903 -0.0254775 -8.14778e-18)
(-0.0172542 -0.0260121 -9.6206e-18)
(-0.0176149 -0.0265612 -1.01934e-17)
(-0.0179855 -0.0271254 -1.03555e-17)
(-0.0183665 -0.0277052 -1.04472e-17)
(-0.0187581 -0.0283014 -1.01952e-17)
(-0.0191609 -0.0289146 -9.86923e-18)
(-0.0195755 -0.0295456 -9.57983e-18)
(-0.0200023 -0.0301953 -9.39017e-18)
(-0.020444 -0.0308675 -9.50137e-18)
(-0.0209039 -0.0315672 -9.45175e-18)
(-0.0213823 -0.0322947 -8.86949e-18)
(-0.0218773 -0.0330476 -8.07481e-18)
(-0.0223886 -0.033825 -7.68945e-18)
(-0.0229159 -0.034627 -7.22331e-18)
(-0.0234598 -0.0354542 -6.48375e-18)
(-0.0240211 -0.0363079 -5.72055e-18)
(-0.0246005 -0.0371892 -4.67492e-18)
(-0.0251991 -0.0380998 -3.23801e-18)
(-0.0258179 -0.0390414 -1.86495e-18)
(-0.0264582 -0.0400156 -8.51329e-19)
(-0.0271213 -0.0410244 1.81399e-19)
(-0.0278083 -0.0420697 7.71013e-19)
(-0.0285208 -0.0431538 1.22532e-18)
(-0.0292601 -0.0442789 1.71915e-18)
(-0.0300279 -0.0454472 1.731e-18)
(-0.0308258 -0.0466614 9.98728e-19)
(-0.0316556 -0.0479242 -3.06977e-19)
(-0.0325191 -0.0492384 -1.90975e-18)
(-0.0334184 -0.050607 -3.41431e-18)
(-0.0343557 -0.0520335 -5.21562e-18)
(-0.0353333 -0.0535213 -7.79521e-18)
(-0.0363536 -0.0550741 -1.05202e-17)
(-0.0374193 -0.0566961 -1.22843e-17)
(-0.0385333 -0.0583917 -1.34406e-17)
(-0.0396988 -0.0601656 -1.45554e-17)
(-0.040919 -0.0620228 -1.57185e-17)
(-0.0421976 -0.0639689 -1.69196e-17)
(-0.0435384 -0.0660098 -1.78793e-17)
(-0.0449457 -0.0681519 -1.80051e-17)
(-0.0464241 -0.0704021 -1.70559e-17)
(-0.0479784 -0.0727681 -1.58413e-17)
(-0.049614 -0.0752578 -1.44015e-17)
(-0.0513368 -0.0778802 -1.31138e-17)
(-0.0531529 -0.0806448 -1.28798e-17)
(-0.0550693 -0.083562 -1.29316e-17)
(-0.0570933 -0.086643 -1.33304e-17)
(-0.0592329 -0.0899001 -1.383e-17)
(-0.0614968 -0.0933465 -1.48452e-17)
(-0.0638945 -0.0969965 -1.58648e-17)
(-0.0664361 -0.100866 -1.70329e-17)
(-0.0691328 -0.104971 -1.83929e-17)
(-0.0719964 -0.109331 -1.95958e-17)
(-0.07504 -0.113964 -2.04944e-17)
(-0.0782773 -0.118893 -2.14875e-17)
(-0.0817234 -0.124139 -2.23392e-17)
(-0.0853941 -0.129728 -2.3284e-17)
(-0.0893065 -0.135684 -2.44085e-17)
(-0.0934784 -0.142036 -2.58492e-17)
(-0.0979288 -0.148812 -2.7776e-17)
(-0.102677 -0.156041 -2.99776e-17)
(-0.107743 -0.163755 -3.27647e-17)
(-0.113148 -0.171984 -3.51943e-17)
(-0.11891 -0.180758 -3.67982e-17)
(-0.125049 -0.190105 -3.78138e-17)
(-0.131582 -0.200053 -3.79299e-17)
(-0.138525 -0.210626 -3.76124e-17)
(-0.145899 -0.221854 -3.62582e-17)
(-0.153761 -0.233827 -3.44465e-17)
(-0.162324 -0.246863 -3.17989e-17)
(-0.17176 -0.26123 -2.8041e-17)
(-0.181921 -0.276705 -2.32418e-17)
(-0.192594 -0.292957 -1.72905e-17)
(-0.203639 -0.309778 -1.01016e-17)
(-0.214865 -0.326876 -1.4934e-18)
(-0.226015 -0.343859 8.4174e-18)
(-0.236776 -0.36025 1.9522e-17)
(-0.246807 -0.375532 3.41051e-17)
(-0.255788 -0.389216 5.04013e-17)
(-0.263469 -0.400923 6.81147e-17)
(-0.269721 -0.410454 8.8214e-17)
(-0.274553 -0.417825 1.09027e-16)
(-0.278103 -0.423243 1.29124e-16)
(-0.280592 -0.427048 1.48338e-16)
(-0.282279 -0.42963 1.65449e-16)
(-0.283406 -0.43136 1.76722e-16)
(-0.284178 -0.432548 1.78602e-16)
(-0.284743 -0.433422 1.69064e-16)
(-0.285201 -0.434132 1.4377e-16)
(-0.285609 -0.434767 9.34465e-17)
(-0.285997 -0.43537 8.76884e-17)
(-0.286376 -0.435959 3.15904e-17)
(-0.0150451 -0.0242643 -2.09493e-18)
(-0.0153522 -0.0247655 -3.95845e-18)
(-0.0156672 -0.0252796 -5.61285e-18)
(-0.0159905 -0.0258073 -7.58121e-18)
(-0.0163224 -0.0263489 -9.40817e-18)
(-0.0166633 -0.0269052 -1.12644e-17)
(-0.0170135 -0.0274767 -1.37489e-17)
(-0.0173734 -0.028064 -1.64784e-17)
(-0.0177435 -0.0286679 -1.92085e-17)
(-0.0181241 -0.029289 -2.1707e-17)
(-0.0185157 -0.029928 -2.38982e-17)
(-0.0189188 -0.0305859 -2.56255e-17)
(-0.0193351 -0.0312653 -2.72083e-17)
(-0.0197675 -0.0319707 -2.84819e-17)
(-0.0202177 -0.0327046 -2.92864e-17)
(-0.0206848 -0.033466 -3.00726e-17)
(-0.0211676 -0.034253 -3.05263e-17)
(-0.0216658 -0.0350654 -3.06572e-17)
(-0.0221799 -0.0359035 -3.08469e-17)
(-0.0227103 -0.0367683 -3.03732e-17)
(-0.0232578 -0.0376611 -2.96342e-17)
(-0.0238234 -0.0385835 -2.88904e-17)
(-0.024408 -0.039537 -2.83024e-17)
(-0.0250129 -0.0405234 -2.82316e-17)
(-0.0256391 -0.0415448 -2.85188e-17)
(-0.0262879 -0.0426032 -2.81775e-17)
(-0.0269607 -0.0437006 -2.7414e-17)
(-0.0276588 -0.0448394 -2.72888e-17)
(-0.0283838 -0.0460219 -2.76988e-17)
(-0.0291371 -0.0472508 -2.79933e-17)
(-0.0299204 -0.0485287 -2.79769e-17)
(-0.0307356 -0.0498586 -2.75331e-17)
(-0.0315846 -0.0512436 -2.6423e-17)
(-0.0324693 -0.0526869 -2.58488e-17)
(-0.0333921 -0.0541923 -2.48957e-17)
(-0.0343551 -0.0557635 -2.4176e-17)
(-0.035361 -0.0574045 -2.44596e-17)
(-0.0364125 -0.05912 -2.53343e-17)