/*--------------------------------*- C++ -*----------------------------------*\
  =========                 |
  \\      /  F ield         | OpenFOAM: The Open Source CFD Toolbox
   \\    /   O peration     | Website:  https://openfoam.org
    \\  /    A nd           | Version:  7
     \\/     M anipulation  |
\*---------------------------------------------------------------------------*/
FoamFile
{
    version     2.0;
    format      ascii;
    class       volVectorField;
    location    "208000";
    object      U;
}
// * * * * * * * * * * * * * * * * * * * * * * * * * * * * * * * * * * * * * //

dimensions      [0 1 -1 0 0 0 0];

internalField   nonuniform List<vector> 
4844
(
(-7.38075e-19 2.68385e-18 -0.0151465)
(1.64786e-17 -1.65044e-18 -0.0151378)
(3.19533e-18 4.45599e-19 -0.0151283)
(4.879e-18 2.5678e-17 -0.0151109)
(1.26066e-17 2.05593e-18 -0.0151021)
(2.86501e-18 2.10293e-18 -0.0150925)
(3.41312e-18 1.11525e-18 -0.015082)
(2.10906e-18 1.37121e-18 -0.0150708)
(2.28146e-18 9.486e-19 -0.0150588)
(2.25287e-18 6.74439e-19 -0.015046)
(1.32479e-18 5.90925e-19 -0.0150324)
(3.93145e-18 2.1093e-17 -0.0150748)
(8.35995e-18 2.25188e-18 -0.015066)
(2.57261e-18 3.04137e-18 -0.0150563)
(3.30992e-18 1.46645e-18 -0.0150458)
(2.14002e-18 1.49908e-18 -0.0150344)
(2.33804e-18 1.1153e-18 -0.0150223)
(2.26212e-18 9.03774e-19 -0.0150094)
(1.2924e-18 6.24057e-19 -0.0149958)
(1.16152e-18 9.64234e-19 -0.0149814)
(1.42252e-18 1.2398e-18 -0.0149664)
(9.48963e-19 -7.52377e-21 -0.0149506)
(2.29532e-18 1.44755e-17 -0.0150384)
(5.85959e-18 2.23283e-18 -0.0150295)
(2.41179e-18 3.09014e-18 -0.0150198)
(3.17086e-18 1.69869e-18 -0.0150092)
(2.05402e-18 1.40165e-18 -0.0149978)
(2.33576e-18 1.10991e-18 -0.0149856)
(2.16389e-18 9.59153e-19 -0.0149726)
(1.21168e-18 4.68737e-19 -0.0149588)
(1.29289e-18 8.00445e-19 -0.0149444)
(1.23532e-18 1.16166e-18 -0.0149292)
(8.40499e-19 2.43902e-19 -0.0149133)
(7.44776e-19 3.1466e-19 -0.0148968)
(5.74046e-19 -5.44422e-19 -0.0148796)
(9.42517e-19 -6.97636e-19 -0.0148619)
(4.50734e-19 -4.87718e-19 -0.0148436)
(-1.21312e-19 -1.29301e-19 -0.0148246)
(1.33741e-18 1.08387e-17 -0.0150017)
(4.46321e-18 2.84293e-18 -0.0149927)
(2.28694e-18 3.22679e-18 -0.0149829)
(2.96955e-18 1.8947e-18 -0.0149722)
(1.88846e-18 1.19867e-18 -0.0149607)
(2.34912e-18 1.04168e-18 -0.0149484)
(1.92247e-18 7.24064e-19 -0.0149354)
(1.05293e-18 2.88215e-19 -0.0149216)
(1.32292e-18 5.18767e-19 -0.014907)
(9.08859e-19 5.60905e-19 -0.0148917)
(8.32113e-19 3.80136e-19 -0.0148758)
(6.94301e-19 4.77199e-19 -0.0148591)
(6.73774e-19 -2.68825e-19 -0.0148419)
(1.15873e-18 -3.59726e-19 -0.014824)
(1.6376e-19 -7.69355e-19 -0.0148056)
(-2.58549e-19 -3.1427e-19 -0.0147865)
(9.44744e-19 8.85584e-18 -0.0149646)
(3.63818e-18 3.45677e-18 -0.0149556)
(2.18138e-18 3.5385e-18 -0.0149457)
(2.65168e-18 2.01156e-18 -0.0149349)
(1.82939e-18 1.42869e-18 -0.0149234)
(2.35103e-18 1.15451e-18 -0.014911)
(1.66904e-18 5.75687e-19 -0.0148979)
(1.11015e-18 4.08604e-19 -0.0148839)
(1.33082e-18 5.0415e-19 -0.0148693)
(6.89643e-19 1.35641e-19 -0.0148539)
(9.29671e-19 4.12305e-19 -0.0148379)
(6.18279e-19 3.93901e-19 -0.0148211)
(9.07064e-19 1.52272e-19 -0.0148038)
(9.20182e-19 -3.98901e-19 -0.0147858)
(-1.22174e-19 -9.08465e-19 -0.0147673)
(-2.06678e-19 -4.78262e-19 -0.0147482)
(3.01814e-18 3.6594e-18 -0.0149181)
(1.87689e-18 3.50005e-18 -0.0149081)
(2.34561e-18 1.96823e-18 -0.0148973)
(1.8926e-18 1.80463e-18 -0.0148857)
(2.29351e-18 1.36518e-18 -0.0148732)
(1.59216e-18 7.40301e-19 -0.01486)
(1.21181e-18 6.27182e-19 -0.014846)
(1.28609e-18 6.15687e-19 -0.0148313)
(7.15795e-19 2.20995e-19 -0.0148158)
(1.01605e-18 4.63938e-19 -0.0147996)
(4.81852e-19 1.14625e-19 -0.0147828)
(9.68516e-19 4.01699e-19 -0.0147654)
(5.1017e-19 -5.72935e-19 -0.0147473)
(-2.70872e-19 -1.03211e-18 -0.0147287)
(8.78327e-22 -4.87445e-19 -0.0147095)
(2.30618e-18 3.61525e-18 -0.0148803)
(1.54456e-18 3.22947e-18 -0.0148702)
(2.19183e-18 2.00206e-18 -0.0148594)
(1.9133e-18 1.92071e-18 -0.0148477)
(2.1557e-18 1.36102e-18 -0.0148351)
(1.4822e-18 8.84344e-19 -0.0148218)
(1.28732e-18 8.22915e-19 -0.0148078)
(1.26441e-18 6.71696e-19 -0.0147929)
(7.79391e-19 3.80729e-19 -0.0147774)
(9.69916e-19 5.17741e-19 -0.0147611)
(4.83673e-19 8.80306e-20 -0.0147442)
(8.21388e-19 2.31189e-19 -0.0147267)
(1.31401e-19 -5.74187e-19 -0.0147085)
(-2.06267e-19 -9.62399e-19 -0.0146898)
(1.77471e-19 -4.66112e-19 -0.0146705)
(1.66122e-18 3.4977e-18 -0.0148421)
(1.28344e-18 3.05329e-18 -0.0148321)
(2.11103e-18 2.1166e-18 -0.0148211)
(1.8627e-18 1.99567e-18 -0.0148093)
(1.95919e-18 1.21793e-18 -0.0147967)
(1.41527e-18 8.19158e-19 -0.0147834)
(1.38634e-18 1.07488e-18 -0.0147692)
(1.00439e-18 3.39049e-19 -0.0147543)
(7.99835e-19 4.68969e-19 -0.0147386)
(8.74368e-19 3.62451e-19 -0.0147223)
(5.0419e-19 2.70916e-19 -0.0147053)
(3.95719e-19 -2.08479e-19 -0.0146877)
(-1.33847e-19 -7.25656e-19 -0.0146694)
(-8.38859e-20 -9.04197e-19 -0.0146506)
(1.29426e-19 -6.88919e-19 -0.0146312)
(2.29013e-19 5.7532e-18 -0.014813)
(1.14091e-18 3.3712e-18 -0.0148037)
(1.15359e-18 3.01955e-18 -0.0147935)
(2.0974e-18 2.25676e-18 -0.0147825)
(1.77435e-18 2.09146e-18 -0.0147707)
(1.79038e-18 1.24668e-18 -0.014758)
(1.42962e-18 8.21088e-19 -0.0147446)
(1.21902e-18 9.85753e-19 -0.0147303)
(7.53779e-19 4.64228e-20 -0.0147153)
(8.79231e-19 4.82222e-19 -0.0146996)
(7.69436e-19 2.46654e-19 -0.0146832)
(3.51213e-19 2.58216e-19 -0.0146661)
(8.56169e-20 -3.6723e-19 -0.0146484)
(-2.37904e-19 -7.56699e-19 -0.01463)
(5.13996e-20 -7.93617e-19 -0.0146111)
(7.61955e-20 -1.10607e-18 -0.0145917)
(6.24613e-20 4.81459e-18 -0.0147742)
(8.08908e-19 3.21438e-18 -0.0147649)
(1.08769e-18 3.03394e-18 -0.0147547)
(2.05136e-18 2.33571e-18 -0.0147436)
(1.61552e-18 2.01725e-18 -0.0147317)
(1.66562e-18 1.32577e-18 -0.014719)
(1.41141e-18 9.57868e-19 -0.0147055)
(1.01856e-18 8.60034e-19 -0.0146912)
(7.47646e-19 1.04403e-19 -0.0146761)
(9.11158e-19 4.27479e-19 -0.0146603)
(7.09831e-19 2.67558e-19 -0.0146438)
(2.73034e-19 3.66514e-19 -0.0146266)
(5.57815e-20 -1.43682e-19 -0.0146088)
(-7.11699e-20 -5.20742e-19 -0.0145904)
(2.56427e-19 -4.81627e-19 -0.0145714)
(1.39412e-19 -1.25112e-18 -0.0145518)
(-2.3652e-20 4.26153e-18 -0.0147352)
(5.75797e-19 2.95027e-18 -0.0147258)
(1.02392e-18 2.87421e-18 -0.0147156)
(1.95677e-18 2.35277e-18 -0.0147044)
(1.42609e-18 1.85086e-18 -0.0146925)
(1.5716e-18 1.32104e-18 -0.0146797)
(1.44159e-18 1.18281e-18 -0.0146661)
(8.87246e-19 8.95204e-19 -0.0146517)
(8.6248e-19 4.63982e-19 -0.0146365)
(1.01538e-18 5.37939e-19 -0.0146207)
(7.5291e-19 3.84185e-19 -0.0146041)
(2.90874e-19 5.35801e-19 -0.0145868)
(1.43831e-19 2.09426e-19 -0.0145689)
(1.66442e-19 -1.35886e-19 -0.0145504)
(3.80613e-19 -2.0149e-19 -0.0145313)
(3.5893e-19 -1.0411e-18 -0.0145117)
(-9.92328e-20 3.94965e-18 -0.0146959)
(3.63824e-19 2.73856e-18 -0.0146864)
(1.06146e-18 2.89804e-18 -0.0146761)
(1.85107e-18 2.30971e-18 -0.0146649)
(1.26302e-18 1.79044e-18 -0.0146529)
(1.5169e-18 1.18712e-18 -0.01464)
(1.30784e-18 1.02393e-18 -0.0146264)
(7.68172e-19 8.28835e-19 -0.0146119)
(9.73717e-19 6.43491e-19 -0.0145967)
(1.0611e-18 6.82862e-19 -0.0145808)
(7.71877e-19 5.45963e-19 -0.0145641)
(2.61577e-19 5.89621e-19 -0.0145468)
(2.21657e-19 4.24291e-19 -0.0145288)
(3.24062e-19 1.1456e-19 -0.0145102)
(6.21014e-19 2.29941e-19 -0.014491)
(6.64973e-19 -5.60939e-19 -0.0144713)
(-1.2752e-18 2.99536e-18 -0.0146648)
(-2.09903e-19 3.63795e-18 -0.0146562)
(2.86235e-19 2.62319e-18 -0.0146467)
(1.19037e-18 3.18644e-18 -0.0146364)
(1.64158e-18 2.12601e-18 -0.0146251)
(1.1239e-18 1.83036e-18 -0.014613)
(1.44461e-18 1.30159e-18 -0.0146001)
(1.11092e-18 6.71752e-19 -0.0145864)
(7.73697e-19 8.54304e-19 -0.0145719)
(9.38084e-19 4.96812e-19 -0.0145566)
(8.67381e-19 2.56429e-19 -0.0145405)
(7.46083e-19 6.1015e-19 -0.0145238)
(1.00962e-19 4.02241e-19 -0.0145064)
(2.81188e-19 5.63365e-19 -0.0144884)
(4.68422e-19 2.09062e-19 -0.0144697)
(8.69158e-19 5.50791e-19 -0.0144504)
(6.443e-19 -3.59537e-19 -0.0144306)
(-1.20627e-18 2.86315e-18 -0.0146249)
(-2.53393e-19 3.41809e-18 -0.0146163)
(3.73192e-19 2.75548e-18 -0.0146067)
(1.20463e-18 3.26217e-18 -0.0145963)
(1.36037e-18 1.86933e-18 -0.014585)
(1.05506e-18 1.7549e-18 -0.0145729)
(1.39863e-18 1.5174e-18 -0.0145599)
(1.00629e-18 6.15478e-19 -0.0145461)
(8.17242e-19 9.5892e-19 -0.0145315)
(8.18456e-19 5.23115e-19 -0.0145162)
(5.96125e-19 -3.41715e-19 -0.0145001)
(6.67335e-19 4.54569e-19 -0.0144833)
(-5.07191e-20 1.80306e-19 -0.0144658)
(4.73669e-19 7.32318e-19 -0.0144476)
(5.4226e-19 1.91819e-19 -0.0144289)
(7.49549e-19 4.75256e-19 -0.0144096)
(3.59697e-19 -4.87136e-19 -0.0143897)
(-1.46064e-18 2.31159e-18 -0.0145924)
(-1.09846e-18 2.66212e-18 -0.0145847)
(-2.40452e-19 3.2566e-18 -0.014576)
(4.60104e-19 2.88886e-18 -0.0145664)
(9.90525e-19 2.92504e-18 -0.014556)
(1.11762e-18 1.74705e-18 -0.0145446)
(1.01559e-18 1.61989e-18 -0.0145324)
(1.26015e-18 1.46492e-18 -0.0145194)
(8.4767e-19 4.04003e-19 -0.0145055)
(8.25723e-19 9.48733e-19 -0.0144909)
(6.80187e-19 6.76679e-19 -0.0144754)
(4.89015e-19 -5.15665e-19 -0.0144593)
(6.14511e-19 2.39151e-19 -0.0144424)
(1.20419e-20 1.38129e-19 -0.0144249)
(5.77812e-19 7.76466e-19 -0.0144067)
(4.77946e-19 1.68627e-19 -0.0143878)
(4.98108e-19 2.40035e-19 -0.0143684)
(2.45049e-19 -5.3325e-19 -0.0143485)
(-1.33602e-18 2.32942e-18 -0.0145519)
(-1.02569e-18 2.484e-18 -0.0145441)
(-1.60709e-19 3.12773e-18 -0.0145355)
(4.52854e-19 2.92826e-18 -0.0145258)
(7.67812e-19 2.57093e-18 -0.0145153)
(1.04307e-18 1.88742e-18 -0.0145039)
(9.89197e-19 1.58091e-18 -0.0144917)
(1.0636e-18 1.38608e-18 -0.0144786)
(8.96607e-19 6.36356e-19 -0.0144647)
(8.80869e-19 8.52807e-19 -0.0144499)
(5.24985e-19 7.59213e-19 -0.0144345)
(5.23584e-19 -3.50499e-19 -0.0144182)
(6.4653e-19 1.62934e-19 -0.0144013)
(7.50985e-20 1.15168e-19 -0.0143837)
(4.86633e-19 5.25433e-19 -0.0143654)
(3.7399e-19 1.09052e-19 -0.0143465)
(4.63347e-19 3.14044e-19 -0.014327)
(3.06749e-19 -3.80652e-19 -0.014307)
(-1.21834e-18 2.25555e-18 -0.0145111)
(-9.09412e-19 2.48841e-18 -0.0145033)
(-4.54971e-20 3.15225e-18 -0.0144946)
(4.34581e-19 3.00585e-18 -0.014485)
(5.98089e-19 2.2991e-18 -0.0144744)
(1.01303e-18 2.07896e-18 -0.014463)
(9.40774e-19 1.63768e-18 -0.0144506)
(1.06229e-18 1.46906e-18 -0.0144375)
(1.11058e-18 1.23827e-18 -0.0144235)
(8.09289e-19 8.1879e-19 -0.0144087)
(3.34671e-19 6.64471e-19 -0.0143932)
(5.8699e-19 -1.67686e-19 -0.0143769)
(7.49044e-19 3.06338e-19 -0.0143599)
(1.81769e-19 2.62889e-19 -0.0143422)
(3.23272e-19 2.10256e-19 -0.0143238)
(3.03232e-19 -5.8577e-20 -0.0143049)
(5.56838e-19 4.50541e-19 -0.0142854)
(3.16219e-19 -1.15336e-19 -0.0142653)
(-1.08491e-18 2.15499e-18 -0.0144701)
(-7.49214e-19 2.54218e-18 -0.0144622)
(5.78503e-20 3.08836e-18 -0.0144535)
(2.866e-19 2.92387e-18 -0.0144438)
(4.70978e-19 2.15586e-18 -0.0144332)
(9.92515e-19 2.07644e-18 -0.0144217)
(8.6793e-19 1.54857e-18 -0.0144093)
(1.05886e-18 1.4222e-18 -0.0143961)
(9.80082e-19 1.14811e-18 -0.0143821)
(6.35221e-19 7.60708e-19 -0.0143672)
(1.31845e-19 4.8764e-19 -0.0143516)
(7.40171e-19 2.00228e-20 -0.0143353)
(8.72252e-19 4.0403e-19 -0.0143182)
(2.75011e-19 5.67242e-19 -0.0143004)
(2.77202e-19 2.07729e-19 -0.014282)
(4.42605e-19 4.79408e-22 -0.014263)
(6.08848e-19 4.7876e-19 -0.0142434)
(1.97978e-19 -5.24153e-20 -0.0142232)
(-9.12792e-19 2.1018e-18 -0.0144287)
(-5.74492e-19 2.73785e-18 -0.0144208)
(7.07748e-20 2.94936e-18 -0.014412)
(8.14772e-20 2.49212e-18 -0.0144023)
(3.51878e-19 1.94883e-18 -0.0143917)
(8.4468e-19 1.8537e-18 -0.0143801)
(7.54962e-19 1.44786e-18 -0.0143677)
(9.51811e-19 1.25665e-18 -0.0143545)
(7.54199e-19 7.86231e-19 -0.0143404)
(4.95345e-19 6.56357e-19 -0.0143255)
(1.03326e-19 4.92871e-19 -0.0143098)
(9.17313e-19 1.87486e-19 -0.0142934)
(8.29615e-19 2.54954e-19 -0.0142762)
(2.9392e-19 6.60745e-19 -0.0142584)
(3.66905e-19 3.79524e-19 -0.0142399)
(6.33963e-19 1.84083e-19 -0.0142209)
(4.00189e-19 2.6725e-19 -0.0142012)
(-4.52524e-20 -1.60939e-19 -0.014181)
(-6.76375e-19 2.07917e-18 -0.0143871)
(-4.57233e-19 2.73432e-18 -0.0143792)
(-2.96626e-20 2.84761e-18 -0.0143703)
(-1.175e-19 2.32195e-18 -0.0143605)
(2.75692e-19 1.78856e-18 -0.0143499)
(7.73092e-19 1.62699e-18 -0.0143383)
(7.71053e-19 1.54777e-18 -0.0143258)
(8.65579e-19 1.20795e-18 -0.0143125)
(6.02653e-19 6.22385e-19 -0.0142984)
(4.96567e-19 7.18546e-19 -0.0142834)
(2.08414e-19 7.02601e-19 -0.0142677)
(9.54455e-19 2.32408e-19 -0.0142512)
(7.80223e-19 1.26387e-19 -0.014234)
(2.47344e-19 5.57715e-19 -0.0142161)
(4.36839e-19 4.76565e-19 -0.0141976)
(5.10668e-19 7.966e-20 -0.0141784)
(-3.36356e-21 -1.16164e-19 -0.0141587)
(-1.73482e-19 -3.00971e-19 -0.0141384)
(-4.80975e-19 1.93003e-18 -0.0143451)
(-4.30737e-19 2.45253e-18 -0.0143372)
(-9.64864e-20 2.66637e-18 -0.0143283)
(-9.69471e-20 2.73888e-18 -0.0143185)
(2.68867e-19 1.95981e-18 -0.0143078)
(8.08459e-19 1.71894e-18 -0.0142961)
(7.98899e-19 1.70369e-18 -0.0142836)
(7.32855e-19 1.19132e-18 -0.0142703)
(5.92439e-19 6.76288e-19 -0.0142561)
(5.29089e-19 7.174e-19 -0.0142411)
(2.99608e-19 9.46715e-19 -0.0142253)
(9.57e-19 2.74218e-19 -0.0142088)
(6.85774e-19 -2.74368e-20 -0.0141915)
(2.47491e-19 4.91771e-19 -0.0141735)
(4.51519e-19 5.52209e-19 -0.0141549)
(4.77925e-19 2.30557e-19 -0.0141357)
(-7.33531e-20 -1.17404e-19 -0.0141159)
(-8.93985e-20 -2.59756e-19 -0.0140956)
(-3.96313e-19 1.5373e-18 -0.0143029)
(-3.79421e-19 2.25894e-18 -0.0142949)
(-6.05674e-20 2.40655e-18 -0.014286)
(-1.2861e-19 2.82807e-18 -0.0142762)
(1.9202e-19 2.05834e-18 -0.0142654)
(8.72059e-19 1.89559e-18 -0.0142537)
(7.75709e-19 1.82088e-18 -0.0142412)
(6.47384e-19 1.21438e-18 -0.0142278)
(6.63352e-19 9.68971e-19 -0.0142135)
(5.83772e-19 7.73686e-19 -0.0141985)
(3.74138e-19 1.08662e-18 -0.0141826)
(8.302e-19 2.44115e-19 -0.014166)
(5.8663e-19 -1.98784e-19 -0.0141487)
(3.19934e-19 4.64072e-19 -0.0141307)
(4.63463e-19 4.92444e-19 -0.014112)
(5.51964e-19 4.64825e-19 -0.0140928)
(1.2252e-19 3.3543e-19 -0.0140729)
(-4.31917e-20 -1.6301e-19 -0.0140525)
(-3.86435e-19 1.15615e-18 -0.0142604)
(-2.70534e-19 2.19367e-18 -0.0142524)
(-8.7946e-20 2.127e-18 -0.0142434)
(-2.60239e-19 2.42783e-18 -0.0142335)
(2.36341e-19 2.29424e-18 -0.0142227)
(8.94543e-19 1.92769e-18 -0.014211)
(6.57851e-19 1.73027e-18 -0.0141984)
(6.56943e-19 1.41585e-18 -0.014185)
(7.81927e-19 1.26011e-18 -0.0141707)
(5.86733e-19 7.96994e-19 -0.0141556)
(3.37667e-19 1.17231e-18 -0.0141397)
(6.76955e-19 1.83175e-19 -0.014123)
(5.86806e-19 -2.46273e-19 -0.0141056)
(3.426e-19 3.57627e-19 -0.0140876)
(4.72498e-19 4.6312e-19 -0.0140689)
(4.1294e-19 2.43219e-19 -0.0140495)
(2.80715e-19 7.0544e-19 -0.0140296)
(-1.07846e-19 -9.00257e-20 -0.0140091)
(-3.1901e-19 1.04699e-18 -0.0142175)
(-1.69194e-19 2.11223e-18 -0.0142095)
(-1.5529e-19 1.86383e-18 -0.0142006)
(-3.01615e-19 2.02312e-18 -0.0141906)
(2.57889e-19 2.31905e-18 -0.0141798)
(7.69873e-19 1.83367e-18 -0.014168)
(6.33462e-19 1.73878e-18 -0.0141554)
(7.8856e-19 1.68776e-18 -0.0141419)
(8.03949e-19 1.5281e-18 -0.0141276)
(5.82935e-19 8.79217e-19 -0.0141124)
(3.65622e-19 1.31658e-18 -0.0140964)
(4.66927e-19 4.98572e-20 -0.0140797)
(7.40623e-19 -1.55466e-20 -0.0140623)
(5.13292e-19 4.76137e-19 -0.0140442)
(5.82998e-19 6.37144e-19 -0.0140254)
(3.43678e-19 9.76899e-20 -0.014006)
(5.49246e-20 4.77636e-19 -0.013986)
(-1.08986e-19 4.51839e-20 -0.0139655)
(-1.82873e-19 1.16973e-18 -0.0141744)
(-1.18721e-19 1.98859e-18 -0.0141664)
(-2.48674e-19 1.67051e-18 -0.0141574)
(-3.05277e-19 1.79748e-18 -0.0141474)
(2.20184e-19 2.08033e-18 -0.0141366)
(7.05956e-19 1.65413e-18 -0.0141248)
(7.65109e-19 2.0104e-18 -0.0141121)
(8.32959e-19 1.81115e-18 -0.0140985)
(7.57696e-19 1.58017e-18 -0.0140841)
(6.68278e-19 1.13569e-18 -0.0140689)
(2.15838e-19 1.33504e-18 -0.0140529)
(4.30333e-19 1.43607e-19 -0.0140362)
(1.07196e-18 3.10224e-19 -0.0140187)
(7.25674e-19 7.03722e-19 -0.0140005)
(5.95481e-19 7.62346e-19 -0.0139817)
(2.63981e-19 1.71277e-19 -0.0139622)
(-2.40751e-19 1.29485e-19 -0.0139422)
(-7.659e-20 5.76729e-20 -0.0139216)
(-7.66757e-20 1.36867e-18 -0.014131)
(-1.20312e-19 1.84516e-18 -0.014123)
(-2.96492e-19 1.59206e-18 -0.0141139)
(-2.26062e-19 1.83119e-18 -0.014104)
(2.19538e-19 2.00881e-18 -0.014093)
(7.06912e-19 1.53814e-18 -0.0140812)
(8.6801e-19 2.14122e-18 -0.0140685)
(7.20006e-19 1.65773e-18 -0.0140549)
(6.20386e-19 1.40701e-18 -0.0140405)
(5.86936e-19 1.09919e-18 -0.0140252)
(2.15382e-20 1.15023e-18 -0.0140092)
(5.62843e-19 3.98358e-19 -0.0139923)
(1.23146e-18 4.34209e-19 -0.0139748)
(5.21399e-19 3.65111e-19 -0.0139566)
(3.27117e-19 4.85506e-19 -0.0139377)
(1.08508e-19 1.31614e-19 -0.0139182)
(-3.64559e-19 2.77947e-20 -0.0138981)
(-1.74581e-20 6.27635e-20 -0.0138775)
(-1.08916e-19 1.44339e-18 -0.0140874)
(-1.26712e-19 1.79443e-18 -0.0140793)
(-3.04313e-19 1.54797e-18 -0.0140702)
(-1.4623e-19 1.88006e-18 -0.0140602)
(1.89154e-19 1.91475e-18 -0.0140492)
(7.08053e-19 1.38576e-18 -0.0140374)
(8.98919e-19 2.19594e-18 -0.0140246)
(5.23692e-19 1.42488e-18 -0.014011)
(5.01109e-19 1.22596e-18 -0.0139965)
(3.93424e-19 7.96246e-19 -0.0139812)
(-8.55221e-20 1.06986e-18 -0.0139651)
(5.19796e-19 2.71888e-19 -0.0139482)
(1.23899e-18 5.09629e-19 -0.0139306)
(1.57044e-19 -9.55939e-20 -0.0139123)
(2.47224e-19 3.63284e-19 -0.0138934)
(-2.01025e-19 -2.0225e-19 -0.0138738)
(-2.56216e-19 1.61178e-19 -0.0138537)
(1.21894e-19 1.52183e-19 -0.013833)
(-1.66092e-19 1.40577e-18 -0.0140434)
(-1.30438e-19 1.75608e-18 -0.0140353)
(-3.17269e-19 1.49342e-18 -0.0140262)
(-8.14422e-20 1.92029e-18 -0.0140161)
(1.74789e-19 1.95856e-18 -0.0140052)
(6.85947e-19 1.08702e-18 -0.0139932)
(9.5123e-19 2.2903e-18 -0.0139804)
(3.87946e-19 1.38301e-18 -0.0139668)
(4.24847e-19 1.22019e-18 -0.0139522)
(1.85767e-19 4.48153e-19 -0.0139369)
(-6.79723e-20 1.18293e-18 -0.0139207)
(4.93451e-19 1.5054e-19 -0.0139038)
(1.19985e-18 4.99797e-19 -0.0138862)
(7.48953e-20 -1.5038e-19 -0.0138678)
(3.48004e-19 5.85544e-19 -0.0138489)
(-3.07784e-19 -2.90778e-19 -0.0138292)
(-1.68715e-20 3.27837e-19 -0.013809)
(1.72577e-19 2.50441e-19 -0.0137883)
(-1.9801e-19 1.34367e-18 -0.0139991)
(-1.36856e-19 1.71046e-18 -0.013991)
(-3.06575e-19 1.43868e-18 -0.0139819)
(-1.79159e-20 1.85799e-18 -0.0139718)
(1.82095e-19 2.23148e-18 -0.0139608)
(6.83017e-19 8.6381e-19 -0.0139488)
(9.52308e-19 2.15035e-18 -0.013936)
(1.86577e-19 1.22654e-18 -0.0139223)
(3.53295e-19 1.3092e-18 -0.0139077)
(1.16142e-19 3.23035e-19 -0.0138923)
(9.30272e-21 1.32119e-18 -0.0138761)
(6.01631e-19 3.55343e-19 -0.0138591)
(1.14685e-18 4.69019e-19 -0.0138414)
(7.08678e-20 -1.37833e-19 -0.0138231)
(4.62168e-19 7.72148e-19 -0.013804)
(-2.55504e-19 -1.30851e-19 -0.0137844)
(4.0938e-20 3.09848e-19 -0.0137641)
(1.17545e-19 2.28624e-19 -0.0137433)
(-5.03212e-19 1.66754e-18 -0.0139618)
(-2.13969e-19 1.25279e-18 -0.0139546)
(-1.61146e-19 1.56648e-18 -0.0139464)
(-3.57894e-19 1.23415e-18 -0.0139373)
(3.26803e-20 1.62424e-18 -0.0139272)
(1.89134e-19 2.46891e-18 -0.0139161)
(7.06864e-19 9.36392e-19 -0.0139041)
(8.39011e-19 1.82137e-18 -0.0138912)
(-3.36437e-20 8.87062e-19 -0.0138775)
(2.57876e-19 1.22027e-18 -0.0138629)
(1.75005e-19 4.63242e-19 -0.0138474)
(8.86837e-21 1.22433e-18 -0.0138312)
(7.048e-19 5.57752e-19 -0.0138142)
(1.05355e-18 4.64062e-19 -0.0137964)
(1.39342e-19 -5.18862e-20 -0.013778)
(5.10734e-19 8.61059e-19 -0.0137589)
(-3.21378e-19 -8.89486e-20 -0.0137392)
(8.24413e-20 2.85329e-19 -0.0137189)
(-3.90931e-20 3.20525e-20 -0.013698)
(-5.61582e-19 1.4742e-18 -0.0139169)
(-2.21309e-19 1.23415e-18 -0.0139097)
(-2.50319e-19 1.27344e-18 -0.0139015)
(-3.86115e-19 1.08603e-18 -0.0138924)
(1.10838e-19 1.29639e-18 -0.0138822)
(1.39548e-19 2.37999e-18 -0.0138711)
(7.18147e-19 1.11251e-18 -0.0138591)
(7.16935e-19 1.64094e-18 -0.0138462)
(-1.2841e-19 8.55378e-19 -0.0138324)
(1.96967e-19 1.04892e-18 -0.0138178)
(1.9682e-19 5.05658e-19 -0.0138023)
(-6.41065e-20 1.037e-18 -0.013786)
(6.39866e-19 4.36946e-19 -0.0137689)
(9.88569e-19 4.60637e-19 -0.0137511)
(2.68609e-19 1.20282e-19 -0.0137326)
(4.77614e-19 8.77217e-19 -0.0137135)
(-4.37602e-19 -1.26032e-19 -0.0136937)
(1.92079e-19 4.14858e-19 -0.0136734)
(-9.35504e-20 -9.15904e-20 -0.0136525)
(-8.11506e-19 1.66757e-18 -0.013878)
(-5.93016e-19 1.33661e-18 -0.0138718)
(-2.3896e-19 1.22646e-18 -0.0138646)
(-3.37418e-19 9.83656e-19 -0.0138564)
(-4.01e-19 1.00345e-18 -0.0138472)
(1.56146e-19 1.01533e-18 -0.013837)
(4.39897e-20 1.99924e-18 -0.0138259)
(6.66412e-19 1.04202e-18 -0.0138138)
(6.64188e-19 1.60523e-18 -0.0138009)
(-1.2992e-19 1.01406e-18 -0.013787)
(2.7517e-19 1.27638e-18 -0.0137723)
(1.64884e-19 4.65449e-19 -0.0137568)
(-3.87045e-20 1.06874e-18 -0.0137405)
(5.42478e-19 2.12616e-19 -0.0137234)
(1.0094e-18 5.04478e-19 -0.0137055)
(3.63776e-19 2.43596e-19 -0.013687)
(4.43853e-19 9.62485e-19 -0.0136678)
(-4.6544e-19 -8.78297e-20 -0.013648)
(4.27518e-19 6.59906e-19 -0.0136276)
(-2.42852e-20 8.45995e-21 -0.0136067)
(-7.65889e-19 1.85052e-18 -0.0138326)
(-6.40015e-19 1.44098e-18 -0.0138264)
(-2.95234e-19 1.11892e-18 -0.0138191)
(-4.18968e-19 7.90749e-19 -0.0138109)
(-4.12579e-19 8.81934e-19 -0.0138017)
(2.52871e-19 9.79009e-19 -0.0137915)
(-2.07402e-20 1.75233e-18 -0.0137803)
(6.09031e-19 8.17913e-19 -0.0137683)
(6.43238e-19 1.55546e-18 -0.0137553)
(-1.68922e-19 9.5987e-19 -0.0137414)
(3.62899e-19 1.52428e-18 -0.0137266)
(2.04328e-19 6.317e-19 -0.0137111)
(-2.56423e-20 1.12529e-18 -0.0136947)
(5.42479e-19 2.02034e-19 -0.0136775)
(1.06249e-18 5.41459e-19 -0.0136597)
(3.67497e-19 2.2602e-19 -0.0136411)
(3.32836e-19 9.19978e-19 -0.0136218)
(-1.29962e-19 4.03677e-19 -0.013602)
(3.86477e-19 5.63728e-19 -0.0135815)
(2.32864e-20 1.64392e-19 -0.0135605)
(-7.70966e-19 1.58408e-18 -0.0137869)
(-6.64138e-19 1.68163e-18 -0.0137807)
(-4.09607e-19 9.34954e-19 -0.0137734)
(-4.51784e-19 7.37037e-19 -0.0137651)
(-4.05549e-19 7.29266e-19 -0.0137559)
(2.71261e-19 7.06678e-19 -0.0137457)
(-7.72873e-20 1.63741e-18 -0.0137345)
(5.85897e-19 7.02096e-19 -0.0137224)
(5.57541e-19 1.344e-18 -0.0137093)
(-2.12018e-19 8.55909e-19 -0.0136954)
(3.34732e-19 1.40585e-18 -0.0136806)
(1.09719e-19 5.56648e-19 -0.013665)
(-6.53507e-20 1.10518e-18 -0.0136486)
(6.73573e-19 3.7917e-19 -0.0136314)
(1.1023e-18 6.15586e-19 -0.0136135)
(3.36873e-19 2.14623e-19 -0.0135949)
(2.33957e-19 7.09531e-19 -0.0135756)
(8.8797e-20 7.81766e-19 -0.0135557)
(1.77714e-20 1.61873e-19 -0.0135352)
(1.66663e-20 2.1892e-19 -0.0135141)
(-7.90557e-19 1.31562e-18 -0.0137409)
(-6.86861e-19 1.83861e-18 -0.0137346)
(-4.98535e-19 9.50707e-19 -0.0137273)
(-4.6069e-19 7.98448e-19 -0.0137191)
(-4.38701e-19 6.77446e-19 -0.0137098)
(3.05939e-19 4.53591e-19 -0.0136995)
(-4.20229e-20 1.61207e-18 -0.0136883)
(6.72098e-19 9.30978e-19 -0.0136762)
(4.62642e-19 1.10414e-18 -0.0136631)
(-1.64539e-19 9.45779e-19 -0.0136492)
(2.10058e-19 1.18073e-18 -0.0136344)
(3.34453e-20 4.52854e-19 -0.0136187)
(1.07245e-20 1.14657e-18 -0.0136022)
(7.21591e-19 4.03836e-19 -0.013585)
(1.01903e-18 5.20509e-19 -0.013567)
(3.59864e-19 3.37226e-19 -0.0135483)
(3.46693e-20 3.86947e-19 -0.013529)
(-2.18839e-19 4.88673e-19 -0.013509)
(-1.37014e-19 3.75941e-20 -0.0134885)
(2.27992e-20 2.10578e-19 -0.0134674)
(-8.05768e-19 1.26965e-18 -0.0136946)
(-7.01872e-19 1.83433e-18 -0.0136883)
(-5.30863e-19 1.24252e-18 -0.013681)
(-4.78153e-19 8.57741e-19 -0.0136727)
(-4.23246e-19 7.7713e-19 -0.0136634)
(4.79061e-19 6.64655e-19 -0.0136531)
(4.73043e-20 1.64747e-18 -0.0136419)
(7.94014e-19 1.35148e-18 -0.0136297)
(3.39264e-19 8.71276e-19 -0.0136166)
(-1.20227e-19 1.04414e-18 -0.0136026)
(1.33646e-19 1.05638e-18 -0.0135878)
(1.2405e-19 6.04716e-19 -0.0135721)
(7.78731e-20 1.25908e-18 -0.0135556)
(6.9569e-19 3.78892e-19 -0.0135383)
(9.50255e-19 3.95275e-19 -0.0135203)
(2.89705e-19 3.56234e-19 -0.0135015)
(-1.96183e-19 1.60182e-19 -0.0134821)
(-5.49945e-19 5.6156e-20 -0.0134621)
(-7.24036e-20 7.06204e-20 -0.0134416)
(-5.33938e-20 1.49883e-19 -0.0134204)
(-8.23281e-19 1.25017e-18 -0.0136479)
(-7.29132e-19 1.61436e-18 -0.0136417)
(-5.59645e-19 1.48809e-18 -0.0136343)
(-5.36318e-19 8.62908e-19 -0.013626)
(-3.79554e-19 8.6202e-19 -0.0136167)
(6.55928e-19 9.07979e-19 -0.0136064)
(9.5646e-20 1.55526e-18 -0.0135951)
(7.83865e-19 1.49498e-18 -0.0135829)
(1.4786e-19 5.57577e-19 -0.0135698)
(-6.49871e-20 1.096e-18 -0.0135557)
(1.53351e-19 1.10583e-18 -0.0135409)
(2.09812e-19 7.05527e-19 -0.0135251)
(5.13146e-20 1.20117e-18 -0.0135086)
(8.79979e-19 7.47475e-19 -0.0134912)
(9.07693e-19 3.65264e-19 -0.0134732)
(7.83311e-20 1.83593e-19 -0.0134544)
(-1.18929e-19 4.08371e-19 -0.013435)
(-3.77274e-19 2.99089e-19 -0.0134149)
(-1.02002e-19 -2.57228e-20 -0.0133943)
(-1.05099e-19 9.2789e-20 -0.0133731)
(-8.96841e-19 1.09815e-18 -0.013601)
(-7.39942e-19 1.36563e-18 -0.0135947)
(-6.08512e-19 1.51595e-18 -0.0135874)
(-6.21089e-19 7.60368e-19 -0.013579)
(-2.99196e-19 9.85349e-19 -0.0135697)
(7.7269e-19 1.03589e-18 -0.0135593)
(5.73971e-20 1.29751e-18 -0.013548)
(6.23681e-19 1.30046e-18 -0.0135358)
(4.51924e-21 3.09078e-19 -0.0135226)
(5.17678e-20 1.16473e-18 -0.0135086)
(1.43654e-19 1.09546e-18 -0.0134936)
(1.57801e-19 6.12367e-19 -0.0134779)
(7.88493e-20 1.13578e-18 -0.0134613)
(1.10539e-18 1.16318e-18 -0.0134439)
(9.0204e-19 5.80784e-19 -0.0134258)
(-6.56654e-20 -1.30332e-21 -0.013407)
(-4.29249e-20 4.57136e-19 -0.0133875)
(-4.31811e-20 8.73297e-19 -0.0133674)
(-6.7194e-20 7.30205e-20 -0.0133467)
(4.95794e-20 2.36443e-19 -0.0133255)
(-9.53158e-19 8.68829e-19 -0.0135538)
(-7.1624e-19 1.24462e-18 -0.0135474)
(-7.2286e-19 1.25163e-18 -0.0135401)
(-7.10184e-19 5.43245e-19 -0.0135317)
(-1.54818e-19 1.24222e-18 -0.0135223)
(8.18875e-19 1.09428e-18 -0.013512)
(-2.15038e-20 1.05444e-18 -0.0135006)
(4.39353e-19 9.82824e-19 -0.0134884)
(-2.76158e-20 2.24243e-19 -0.0134752)
(1.82912e-19 1.26342e-18 -0.0134611)
(4.42017e-20 9.80487e-19 -0.0134461)
(1.14099e-19 4.63661e-19 -0.0134303)
(2.27886e-19 1.18528e-18 -0.0134137)
(1.08838e-18 1.10943e-18 -0.0133963)
(7.99163e-19 6.99736e-19 -0.0133781)
(-1.33427e-19 7.46199e-20 -0.0133592)
(-1.43045e-19 1.7915e-19 -0.0133397)
(6.47666e-22 9.40264e-19 -0.0133196)
(-1.10337e-19 8.53123e-20 -0.0132989)
(2.90448e-19 5.35019e-19 -0.0132776)
(-1.01695e-18 6.00382e-19 -0.0135062)
(-6.93696e-19 1.22747e-18 -0.0134998)
(-8.49774e-19 1.0236e-18 -0.0134925)
(-6.81488e-19 4.7186e-19 -0.0134841)
(2.59258e-20 1.51958e-18 -0.0134747)
(8.44399e-19 1.25459e-18 -0.0134643)
(-7.92576e-20 9.84839e-19 -0.0134529)
(4.0495e-19 1.04342e-18 -0.0134406)
(5.82009e-20 3.03945e-19 -0.0134274)
(3.18231e-19 1.39784e-18 -0.0134133)
(-4.96108e-20 9.13829e-19 -0.0133983)
(2.53871e-19 6.44186e-19 -0.0133824)
(3.64899e-19 1.28466e-18 -0.0133657)
(9.92157e-19 9.92741e-19 -0.0133483)
(6.37952e-19 6.43807e-19 -0.0133301)
(-1.85123e-19 1.34542e-19 -0.0133112)
(-9.27862e-20 1.76234e-19 -0.0132916)
(-1.55447e-19 7.7078e-19 -0.0132714)
(-1.17457e-19 4.59828e-20 -0.0132507)
(2.84569e-19 5.71873e-19 -0.0132294)
(-1.03514e-18 4.27818e-19 -0.0134583)
(-6.48604e-19 1.20815e-18 -0.0134519)
(-9.03845e-19 1.09297e-18 -0.0134445)
(-6.16311e-19 4.52249e-19 -0.0134361)
(1.61419e-19 1.58413e-18 -0.0134267)
(8.04599e-19 1.27466e-18 -0.0134163)
(-1.29067e-19 8.91045e-19 -0.0134049)
(5.01879e-19 1.39393e-18 -0.0133926)
(1.04021e-19 3.47496e-19 -0.0133793)
(3.4498e-19 1.34566e-18 -0.0133651)
(-8.6e-20 9.16783e-19 -0.0133501)
(4.30422e-19 8.33242e-19 -0.0133342)
(3.5682e-19 1.18246e-18 -0.0133175)
(9.67114e-19 1.02438e-18 -0.0133)
(5.89924e-19 8.01159e-19 -0.0132818)
(-1.96429e-19 2.44833e-19 -0.0132628)
(5.83861e-20 3.36529e-19 -0.0132432)
(-2.96393e-19 6.07711e-19 -0.013223)
(-5.23315e-20 1.22529e-19 -0.0132022)
(-1.57532e-20 2.14371e-19 -0.0131808)
(-1.00645e-18 4.98095e-19 -0.01341)
(-5.98608e-19 1.1216e-18 -0.0134037)
(-9.43806e-19 1.27374e-18 -0.0133963)
(-5.45838e-19 5.14475e-19 -0.0133878)
(2.65863e-19 1.56526e-18 -0.0133784)
(6.68903e-19 1.02837e-18 -0.0133679)
(-1.19888e-19 8.22905e-19 -0.0133565)
(5.11069e-19 1.48841e-18 -0.0133442)
(3.65739e-20 2.29248e-19 -0.0133309)
(2.79394e-19 1.04968e-18 -0.0133167)
(-8.43183e-20 9.41011e-19 -0.0133016)
(4.69931e-19 8.4026e-19 -0.0132857)
(2.54573e-19 9.26088e-19 -0.0132689)
(9.95067e-19 1.06022e-18 -0.0132514)
(6.17367e-19 1.03523e-18 -0.0132331)
(-1.15501e-19 4.74717e-19 -0.0132141)
(1.80857e-19 5.24377e-19 -0.0131945)
(-2.80011e-19 7.07311e-19 -0.0131742)
(5.73497e-20 2.89584e-19 -0.0131533)
(-1.42169e-19 -2.84969e-20 -0.0131319)
(-9.4183e-19 6.37325e-19 -0.0133615)
(-5.52328e-19 1.02111e-18 -0.0133551)
(-9.61884e-19 1.40099e-18 -0.0133477)
(-4.89285e-19 5.71778e-19 -0.0133392)
(3.28738e-19 1.58092e-18 -0.0133297)
(5.34455e-19 7.79711e-19 -0.0133193)
(-9.37356e-20 7.52866e-19 -0.0133078)
(4.22985e-19 1.37072e-18 -0.0132955)
(-5.60153e-20 1.0244e-19 -0.0132821)
(2.52846e-19 8.06207e-19 -0.0132679)
(-3.02677e-20 1.01242e-18 -0.0132528)
(4.58674e-19 7.64423e-19 -0.0132368)
(2.63614e-19 8.4606e-19 -0.01322)
(1.01658e-18 1.01409e-18 -0.0132024)
(6.03349e-19 1.19508e-18 -0.0131841)
(-1.27294e-19 5.84228e-19 -0.0131651)
(2.59768e-19 6.22166e-19 -0.0131454)
(-1.41755e-19 9.30795e-19 -0.0131251)
(2.62444e-19 6.28328e-19 -0.0131042)
(-8.14828e-20 2.15719e-20 -0.0130827)
(-8.78364e-19 6.76802e-19 -0.0133126)
(-5.1865e-19 8.72907e-19 -0.0133062)
(-1.02212e-18 1.37008e-18 -0.0132987)
(-4.30639e-19 6.47049e-19 -0.0132902)
(3.75372e-19 1.56511e-18 -0.0132808)
(4.49046e-19 7.45033e-19 -0.0132703)
(-9.66123e-20 5.73627e-19 -0.0132588)
(3.45711e-19 1.27772e-18 -0.0132464)
(-1.08498e-19 5.91861e-20 -0.013233)
(3.14138e-19 6.98535e-19 -0.0132188)
(1.78843e-20 1.07498e-18 -0.0132036)
(4.45491e-19 7.19233e-19 -0.0131876)
(2.13654e-19 6.67133e-19 -0.0131708)
(9.18985e-19 7.74048e-19 -0.0131532)
(3.53545e-19 9.56824e-19 -0.0131348)
(-2.94601e-19 4.42646e-19 -0.0131157)
(3.1105e-19 6.57664e-19 -0.013096)
(-2.72627e-19 7.68304e-19 -0.0130756)
(3.28399e-19 7.86575e-19 -0.0130547)
(-4.56476e-20 1.07031e-19 -0.0130332)
(-8.23087e-19 7.47094e-19 -0.0132633)
(-4.98784e-19 7.14787e-19 -0.0132569)
(-1.01752e-18 1.43163e-18 -0.0132494)
(-3.54697e-19 7.55266e-19 -0.0132409)
(3.76386e-19 1.44451e-18 -0.0132314)
(4.50448e-19 1.02975e-18 -0.0132209)
(-8.24998e-20 4.91046e-19 -0.0132094)
(3.54443e-19 1.36668e-18 -0.013197)
(-9.8519e-20 1.62202e-19 -0.0131836)