/*--------------------------------*- C++ -*----------------------------------*\
  =========                 |
  \\      /  F ield         | OpenFOAM: The Open Source CFD Toolbox
   \\    /   O peration     | Website:  https://openfoam.org
    \\  /    A nd           | Version:  7
     \\/     M anipulation  |
\*---------------------------------------------------------------------------*/
FoamFile
{
    version     2.0;
    format      ascii;
    class       volScalarField;
    location    "200000";
    object      nut;
}
// * * * * * * * * * * * * * * * * * * * * * * * * * * * * * * * * * * * * * //

dimensions      [0 2 -1 0 0 0 0];

internalField   nonuniform List<scalar> 
4764
(
1.23636e-05
1.24018e-05
1.24365e-05
1.24674e-05
1.24946e-05
1.25179e-05
1.16716e-05
1.17384e-05
1.18024e-05
1.18635e-05
1.19216e-05
1.19765e-05
1.20282e-05
1.20767e-05
1.21217e-05
1.21632e-05
1.22013e-05
1.22357e-05
1.22664e-05
1.22934e-05
1.23167e-05
1.23361e-05
1.23517e-05
1.23634e-05
1.23712e-05
1.23751e-05
1.23751e-05
1.23712e-05
1.23634e-05
1.23517e-05
1.23361e-05
1.23167e-05
1.22934e-05
1.22664e-05
1.22357e-05
1.14747e-05
1.1541e-05
1.16045e-05
1.16652e-05
1.17229e-05
1.17774e-05
1.18288e-05
1.18769e-05
1.19216e-05
1.19629e-05
1.20007e-05
1.20349e-05
1.20654e-05
1.20923e-05
1.21154e-05
1.21347e-05
1.21502e-05
1.21618e-05
1.21696e-05
1.21735e-05
1.21735e-05
1.21696e-05
1.21618e-05
1.21502e-05
1.21347e-05
1.21154e-05
1.20923e-05
1.20655e-05
1.20349e-05
1.20007e-05
1.19629e-05
1.19216e-05
1.18769e-05
1.1278e-05
1.13438e-05
1.14069e-05
1.14671e-05
1.15243e-05
1.15785e-05
1.16295e-05
1.16773e-05
1.17217e-05
1.17627e-05
1.18002e-05
1.18342e-05
1.18646e-05
1.18912e-05
1.19142e-05
1.19334e-05
1.19488e-05
1.19603e-05
1.19681e-05
1.19719e-05
1.19719e-05
1.19681e-05
1.19603e-05
1.19488e-05
1.19334e-05
1.19142e-05
1.18912e-05
1.18646e-05
1.18342e-05
1.18002e-05
1.17627e-05
1.17217e-05
1.16773e-05
1.16295e-05
1.15785e-05
1.15243e-05
1.14671e-05
1.14069e-05
1.13438e-05
1.1278e-05
1.12095e-05
1.11385e-05
1.10651e-05
1.09894e-05
1.09111e-05
1.10815e-05
1.11468e-05
1.12094e-05
1.12692e-05
1.1326e-05
1.13798e-05
1.14304e-05
1.14778e-05
1.15219e-05
1.15626e-05
1.15999e-05
1.16336e-05
1.16638e-05
1.16903e-05
1.17131e-05
1.17321e-05
1.17474e-05
1.17589e-05
1.17666e-05
1.17704e-05
1.17704e-05
1.17666e-05
1.17589e-05
1.17474e-05
1.17321e-05
1.17131e-05
1.16903e-05
1.16638e-05
1.16336e-05
1.15999e-05
1.15627e-05
1.15219e-05
1.14778e-05
1.14304e-05
1.13798e-05
1.1326e-05
1.12692e-05
1.12094e-05
1.11468e-05
1.10815e-05
1.10136e-05
1.09432e-05
1.08704e-05
1.07953e-05
1.0714e-05
1.08854e-05
1.09502e-05
1.10123e-05
1.10715e-05
1.11279e-05
1.11813e-05
1.12315e-05
1.12786e-05
1.13223e-05
1.13628e-05
1.13997e-05
1.14332e-05
1.14632e-05
1.14895e-05
1.15121e-05
1.1531e-05
1.15462e-05
1.15576e-05
1.15652e-05
1.1569e-05
1.1569e-05
1.15652e-05
1.15576e-05
1.15462e-05
1.1531e-05
1.15121e-05
1.14895e-05
1.14632e-05
1.14332e-05
1.13998e-05
1.13628e-05
1.13223e-05
1.12786e-05
1.12315e-05
1.11813e-05
1.11279e-05
1.10715e-05
1.10123e-05
1.09502e-05
1.08854e-05
1.08181e-05
1.07482e-05
1.0676e-05
1.06016e-05
1.05161e-05
1.06897e-05
1.07539e-05
1.08154e-05
1.08742e-05
1.09301e-05
1.0983e-05
1.10329e-05
1.10796e-05
1.1123e-05
1.11631e-05
1.11998e-05
1.1233e-05
1.12627e-05
1.12888e-05
1.13113e-05
1.13301e-05
1.13452e-05
1.13565e-05
1.1364e-05
1.13678e-05
1.13678e-05
1.1364e-05
1.13565e-05
1.13452e-05
1.13301e-05
1.13113e-05
1.12888e-05
1.12627e-05
1.1233e-05
1.11998e-05
1.11631e-05
1.1123e-05
1.10796e-05
1.10329e-05
1.0983e-05
1.09301e-05
1.08742e-05
1.08154e-05
1.07539e-05
1.06897e-05
1.06229e-05
1.05537e-05
1.04821e-05
1.04067e-05
1.03181e-05
1.04943e-05
1.0558e-05
1.0619e-05
1.06772e-05
1.07327e-05
1.07851e-05
1.08346e-05
1.08809e-05
1.09239e-05
1.09637e-05
1.10001e-05
1.10331e-05
1.10625e-05
1.10884e-05
1.11107e-05
1.11294e-05
1.11443e-05
1.11556e-05
1.11631e-05
1.11668e-05
1.11668e-05
1.11631e-05
1.11556e-05
1.11443e-05
1.11294e-05
1.11107e-05
1.10885e-05
1.10626e-05
1.10331e-05
1.10001e-05
1.09637e-05
1.09239e-05
1.08809e-05
1.08346e-05
1.07851e-05
1.07327e-05
1.06772e-05
1.0619e-05
1.0558e-05
1.04943e-05
1.04281e-05
1.0358e-05
1.02848e-05
1.02084e-05
1.01205e-05
1.02975e-05
1.03625e-05
1.04229e-05
1.04807e-05
1.05356e-05
1.05876e-05
1.06366e-05
1.06825e-05
1.07252e-05
1.07646e-05
1.08007e-05
1.08334e-05
1.08627e-05
1.08883e-05
1.09105e-05
1.09289e-05
1.09438e-05
1.09549e-05
1.09624e-05
1.09661e-05
1.09661e-05
1.09624e-05
1.09549e-05
1.09438e-05
1.09289e-05
1.09105e-05
1.08883e-05
1.08627e-05
1.08334e-05
1.08008e-05
1.07647e-05
1.07252e-05
1.06825e-05
1.06366e-05
1.05876e-05
1.05356e-05
1.04807e-05
1.04229e-05
1.03625e-05
1.02975e-05
1.02298e-05
1.01592e-05
1.00858e-05
1.00095e-05
9.92343e-06
1.00978e-05
1.01629e-05
1.02248e-05
1.02838e-05
1.03389e-05
1.03904e-05
1.0439e-05
1.04845e-05
1.05268e-05
1.05659e-05
1.06017e-05
1.06341e-05
1.06631e-05
1.06886e-05
1.07105e-05
1.07288e-05
1.07435e-05
1.07546e-05
1.0762e-05
1.07657e-05
1.07657e-05
1.0762e-05
1.07546e-05
1.07435e-05
1.07288e-05
1.07105e-05
1.06886e-05
1.06631e-05
1.06341e-05
1.06017e-05
1.05659e-05
1.05268e-05
1.04845e-05
1.0439e-05
1.03905e-05
1.03389e-05
1.02838e-05
1.02248e-05
1.01629e-05
1.00978e-05
1.003e-05
9.95957e-06
9.88664e-06
9.81112e-06
9.72717e-06
9.89748e-06
9.96222e-06
1.00242e-05
1.00833e-05
1.01392e-05
1.01919e-05
1.02414e-05
1.02869e-05
1.03289e-05
1.03676e-05
1.04031e-05
1.04352e-05
1.04639e-05
1.04891e-05
1.05109e-05
1.0529e-05
1.05436e-05
1.05546e-05
1.05619e-05
1.05655e-05
1.05655e-05
1.05619e-05
1.05546e-05
1.05436e-05
1.0529e-05
1.05109e-05
1.04891e-05
1.04639e-05
1.04352e-05
1.04031e-05
1.03676e-05
1.03289e-05
1.02869e-05
1.02414e-05
1.01919e-05
1.01392e-05
1.00833e-05
1.00242e-05
9.96222e-06
9.89748e-06
9.83009e-06
9.76034e-06
9.68821e-06
9.61373e-06
9.53184e-06
9.69753e-06
9.7616e-06
9.82315e-06
9.88186e-06
9.93764e-06
9.99038e-06
1.004e-05
1.00861e-05
1.0129e-05
1.01684e-05
1.02046e-05
1.02367e-05
1.02651e-05
1.02901e-05
1.03116e-05
1.03296e-05
1.03441e-05
1.03549e-05
1.03622e-05
1.03658e-05
1.03658e-05
1.03622e-05
1.03549e-05
1.03441e-05
1.03296e-05
1.03116e-05
1.02901e-05
1.02651e-05
1.02367e-05
1.02046e-05
1.01684e-05
1.0129e-05
1.00862e-05
1.004e-05
9.99038e-06
9.93764e-06
9.88186e-06
9.82315e-06
9.7616e-06
9.69753e-06
9.63091e-06
9.56203e-06
9.49087e-06
9.41755e-06
9.33752e-06
9.49849e-06
9.56174e-06
9.62255e-06
9.68061e-06
9.73589e-06
9.78824e-06
9.8375e-06
9.88359e-06
9.92643e-06
9.96594e-06
1.00021e-05
1.00346e-05
1.00636e-05
1.0089e-05
1.01109e-05
1.01292e-05
1.01439e-05
1.0155e-05
1.01624e-05
1.01661e-05
1.01661e-05
1.01624e-05
1.0155e-05
1.01439e-05
1.01292e-05
1.01109e-05
1.0089e-05
1.00636e-05
1.00346e-05
1.00021e-05
9.96594e-06
9.92643e-06
9.88359e-06
9.8375e-06
9.78824e-06
9.73589e-06
9.68061e-06
9.62254e-06
9.56174e-06
9.49849e-06
9.4328e-06
9.36487e-06
9.29476e-06
9.22264e-06
9.14425e-06
9.23589e-06
9.30061e-06
9.36296e-06
9.4229e-06
9.48019e-06
9.53477e-06
9.5865e-06
9.63521e-06
9.68089e-06
9.72339e-06
9.76261e-06
9.79847e-06
9.83092e-06
9.85989e-06
9.88534e-06
9.90724e-06
9.92556e-06
9.94026e-06
9.95131e-06
9.95868e-06
9.96238e-06
9.96238e-06
9.95868e-06
9.95131e-06
9.94026e-06
9.92556e-06
9.90725e-06
9.88534e-06
9.85989e-06
9.83092e-06
9.79848e-06
9.76261e-06
9.72339e-06
9.68089e-06
9.63521e-06
9.5865e-06
9.53477e-06
9.48018e-06
9.4229e-06
9.36296e-06
9.30061e-06
9.23588e-06
9.16895e-06
9.09991e-06
9.02895e-06
8.95205e-06
9.04022e-06
9.10397e-06
9.1654e-06
9.22443e-06
9.28088e-06
9.33468e-06
9.38568e-06
9.43374e-06
9.47883e-06
9.52082e-06
9.55959e-06
9.59505e-06
9.62719e-06
9.65593e-06
9.68118e-06
9.70291e-06
9.72109e-06
9.73567e-06
9.74663e-06
9.75395e-06
9.75762e-06
9.75762e-06
9.75395e-06
9.74663e-06
9.73567e-06
9.72109e-06
9.70291e-06
9.68118e-06
9.65593e-06
9.6272e-06
9.59505e-06
9.55959e-06
9.52083e-06
9.47884e-06
9.43374e-06
9.38568e-06
9.33468e-06
9.28088e-06
9.22443e-06
9.1654e-06
9.10397e-06
9.04021e-06
8.97428e-06
8.90629e-06
8.83645e-06
8.7609e-06
8.84577e-06
8.90856e-06
8.96907e-06
9.0272e-06
9.08279e-06
9.13578e-06
9.18602e-06
9.23338e-06
9.27782e-06
9.31921e-06
9.35744e-06
9.39243e-06
9.42417e-06
9.45255e-06
9.4775e-06
9.49898e-06
9.51694e-06
9.53135e-06
9.54218e-06
9.54942e-06
9.55304e-06
9.55304e-06
9.54942e-06
9.54219e-06
9.53135e-06
9.51694e-06
9.49898e-06
9.4775e-06
9.45255e-06
9.42417e-06
9.39243e-06
9.35745e-06
9.31922e-06
9.27782e-06
9.23338e-06
9.18602e-06
9.13578e-06
9.08279e-06
9.0272e-06
8.96907e-06
8.90856e-06
8.84577e-06
8.78082e-06
8.71385e-06
8.64508e-06
8.57081e-06
8.58852e-06
8.6525e-06
8.71435e-06
8.77395e-06
8.83119e-06
8.88594e-06
8.93812e-06
8.98759e-06
9.03423e-06
9.078e-06
9.11878e-06
9.15644e-06
9.19092e-06
9.2222e-06
9.25018e-06
9.27479e-06
9.29597e-06
9.31368e-06
9.32789e-06
9.33858e-06
9.34572e-06
9.34929e-06
9.34929e-06
9.34572e-06
9.33858e-06
9.3279e-06
9.31368e-06
9.29597e-06
9.27479e-06
9.25019e-06
9.2222e-06
9.19093e-06
9.15644e-06
9.11878e-06
9.078e-06
9.03424e-06
8.98759e-06
8.93812e-06
8.88594e-06
8.83119e-06
8.77395e-06
8.71435e-06
8.6525e-06
8.58851e-06
8.52254e-06
8.45479e-06
8.38174e-06
8.39733e-06
8.46036e-06
8.5213e-06
8.58e-06
8.63638e-06
8.6903e-06
8.74168e-06
8.79039e-06
8.83633e-06
8.87943e-06
8.91957e-06
8.95667e-06
8.99064e-06
9.02145e-06
9.04901e-06
9.07325e-06
9.09412e-06
9.11157e-06
9.12558e-06
9.13611e-06
9.14314e-06
9.14666e-06
9.14666e-06
9.14314e-06
9.13611e-06
9.12558e-06
9.11157e-06
9.09412e-06
9.07325e-06
9.04901e-06
9.02145e-06
8.99064e-06
8.95667e-06
8.91958e-06
8.87943e-06
8.83633e-06
8.79039e-06
8.74168e-06
8.6903e-06
8.63638e-06
8.58e-06
8.52129e-06
8.46036e-06
8.39732e-06
8.33233e-06
8.26557e-06
8.19369e-06
8.14317e-06
8.20721e-06
8.26932e-06
8.32935e-06
8.38718e-06
8.44271e-06
8.49582e-06
8.54642e-06
8.59439e-06
8.63964e-06
8.68207e-06
8.72161e-06
8.75814e-06
8.7916e-06
8.82194e-06
8.84908e-06
8.87295e-06
8.89351e-06
8.9107e-06
8.92449e-06
8.93487e-06
8.94179e-06
8.94526e-06
8.94526e-06
8.9418e-06
8.93487e-06
8.9245e-06
8.9107e-06
8.89351e-06
8.87295e-06
8.84908e-06
8.82194e-06
8.7916e-06
8.75814e-06
8.72161e-06
8.68208e-06
8.63964e-06
8.59439e-06
8.54642e-06
8.49582e-06
8.44271e-06
8.38718e-06
8.32935e-06
8.26932e-06
8.20721e-06
8.14317e-06
8.07737e-06
8.00664e-06
7.95504e-06
8.01815e-06
8.07934e-06
8.13848e-06
8.19546e-06
8.25015e-06
8.30247e-06
8.3523e-06
8.39955e-06
8.44411e-06
8.48591e-06
8.52484e-06
8.56082e-06
8.59378e-06
8.62365e-06
8.65038e-06
8.67389e-06
8.69414e-06
8.71107e-06
8.72466e-06
8.73487e-06
8.7417e-06
8.74511e-06
8.74511e-06
8.7417e-06
8.73488e-06
8.72466e-06
8.71107e-06
8.69414e-06
8.67389e-06
8.65038e-06
8.62366e-06
8.59378e-06
8.56082e-06
8.52484e-06
8.48591e-06
8.44412e-06
8.39955e-06
8.3523e-06
8.30247e-06
8.25015e-06
8.19546e-06
8.13848e-06
8.07934e-06
8.01814e-06
7.95504e-06
7.89019e-06
7.82059e-06
7.76793e-06
7.83011e-06
7.8904e-06
7.94866e-06
8.00479e-06
8.05867e-06
8.1102e-06
8.15929e-06
8.20583e-06
8.24972e-06
8.29088e-06
8.32923e-06
8.36467e-06
8.39713e-06
8.42656e-06
8.45288e-06
8.47603e-06
8.49597e-06
8.51265e-06
8.52604e-06
8.5361e-06
8.54282e-06
8.54619e-06
8.54619e-06
8.54282e-06
8.5361e-06
8.52604e-06
8.51265e-06
8.49597e-06
8.47603e-06
8.45288e-06
8.42656e-06
8.39713e-06
8.36467e-06
8.32923e-06
8.29089e-06
8.24972e-06
8.20583e-06
8.15929e-06
8.1102e-06
8.05867e-06
8.00479e-06
7.94866e-06
7.8904e-06
7.83011e-06
7.76793e-06
7.70401e-06
7.63554e-06
7.58183e-06
7.64309e-06
7.70248e-06
7.75988e-06
7.81516e-06
7.86824e-06
7.919e-06
7.96735e-06
8.01319e-06
8.05642e-06
8.09697e-06
8.13473e-06
8.16964e-06
8.20162e-06
8.2306e-06
8.25652e-06
8.27933e-06
8.29897e-06
8.3154e-06
8.32859e-06
8.3385e-06
8.34512e-06
8.34844e-06
8.34844e-06
8.34512e-06
8.3385e-06
8.32859e-06
8.3154e-06
8.29897e-06
8.27933e-06
8.25653e-06
8.2306e-06
8.20162e-06
8.16964e-06
8.13473e-06
8.09697e-06
8.05642e-06
8.01319e-06
7.96735e-06
7.919e-06
7.86824e-06
7.81516e-06
7.75988e-06
7.70248e-06
7.64309e-06
7.58183e-06
7.51885e-06
7.45149e-06
7.39675e-06
7.45709e-06
7.51559e-06
7.57212e-06
7.62657e-06
7.67884e-06
7.72883e-06
7.77645e-06
7.8216e-06
7.86419e-06
7.90412e-06
7.94132e-06
7.9757e-06
8.0072e-06
8.03575e-06
8.06129e-06
8.08375e-06
8.1031e-06
8.11928e-06
8.13227e-06
8.14204e-06
8.14856e-06
8.15182e-06
8.15182e-06
8.14856e-06
8.14204e-06
8.13227e-06
8.11928e-06
8.1031e-06
8.08375e-06
8.06129e-06
8.03575e-06
8.00721e-06
7.97571e-06
7.94132e-06
7.90412e-06
7.86419e-06
7.8216e-06
7.77645e-06
7.72883e-06
7.67884e-06
7.62657e-06
7.57211e-06
7.51559e-06
7.45709e-06
7.39675e-06
7.3347e-06
7.26844e-06
7.15158e-06
7.21269e-06
7.27211e-06
7.32972e-06
7.38538e-06
7.439e-06
7.49047e-06
7.5397e-06
7.5866e-06
7.63106e-06
7.673e-06
7.71233e-06
7.74897e-06
7.78284e-06
7.81386e-06
7.84198e-06
7.86713e-06
7.88926e-06
7.90831e-06
7.92425e-06
7.93705e-06
7.94667e-06
7.9531e-06
7.95631e-06
7.95631e-06
7.9531e-06
7.94667e-06
7.93705e-06
7.92425e-06
7.90831e-06
7.88926e-06
7.86713e-06
7.84198e-06
7.81386e-06
7.78284e-06
7.74897e-06
7.71233e-06
7.673e-06
7.63106e-06
7.5866e-06
7.5397e-06
7.49047e-06
7.439e-06
7.38538e-06
7.32971e-06
7.27211e-06
7.21269e-06
7.15158e-06
7.08643e-06
6.90545e-06
6.9695e-06
7.02967e-06
7.08817e-06
7.14488e-06
7.19967e-06
7.25246e-06
7.30314e-06
7.35161e-06
7.39778e-06
7.44156e-06
7.48286e-06
7.52159e-06
7.55767e-06
7.59102e-06
7.62157e-06
7.64926e-06
7.67403e-06
7.69583e-06
7.71459e-06
7.7303e-06
7.7429e-06
7.75238e-06
7.75871e-06
7.76187e-06
7.76187e-06
7.75871e-06
7.75238e-06
7.7429e-06
7.7303e-06
7.7146e-06
7.69583e-06
7.67404e-06
7.64927e-06
7.62157e-06
7.59102e-06
7.55767e-06
7.52159e-06
7.48286e-06
7.44156e-06
7.39778e-06
7.35161e-06
7.30313e-06
7.25246e-06
7.19967e-06
7.14487e-06
7.08817e-06
7.02966e-06
6.9695e-06
6.90545e-06
6.72553e-06
6.78848e-06
6.8477e-06
6.90528e-06
6.96108e-06
7.01501e-06
7.06696e-06
7.11684e-06
7.16455e-06
7.21e-06
7.2531e-06
7.29376e-06
7.33189e-06
7.36741e-06
7.40025e-06
7.43033e-06
7.4576e-06
7.48199e-06
7.50345e-06
7.52193e-06
7.5374e-06
7.54981e-06
7.55914e-06
7.56537e-06
7.56849e-06
7.56849e-06
7.56537e-06
7.55914e-06
7.54981e-06
7.5374e-06
7.52193e-06
7.50345e-06
7.48199e-06
7.4576e-06
7.43033e-06
7.40025e-06
7.36741e-06
7.33189e-06
7.29376e-06
7.2531e-06
7.21e-06
7.16455e-06
7.11684e-06
7.06696e-06
7.01501e-06
6.96108e-06
6.90527e-06
6.8477e-06
6.78848e-06
6.72553e-06
6.5467e-06
6.60854e-06
6.66681e-06
6.72345e-06
6.77835e-06
6.83141e-06
6.88252e-06
6.9316e-06
6.97855e-06
7.02327e-06
7.06569e-06
7.1057e-06
7.14323e-06
7.1782e-06
7.21052e-06
7.24014e-06
7.26698e-06
7.291e-06
7.31212e-06
7.33032e-06
7.34555e-06
7.35777e-06
7.36696e-06
7.37309e-06
7.37617e-06
7.37617e-06
7.37309e-06
7.36696e-06
7.35777e-06
7.34555e-06
7.33032e-06
7.31213e-06
7.291e-06
7.26699e-06
7.24014e-06
7.21053e-06
7.1782e-06
7.14324e-06
7.10571e-06
7.06569e-06
7.02328e-06
6.97855e-06
6.9316e-06
6.88252e-06
6.83141e-06
6.77835e-06
6.72345e-06
6.6668e-06
6.60854e-06
6.5467e-06
6.36898e-06
6.42971e-06
6.48701e-06
6.54272e-06
6.59671e-06
6.64888e-06
6.69915e-06
6.74743e-06
6.79361e-06
6.83761e-06
6.87934e-06
6.91871e-06
6.95564e-06
6.99005e-06
7.02186e-06
7.051e-06
7.07742e-06
7.10106e-06
7.12185e-06
7.13976e-06
7.15475e-06
7.16678e-06
7.17582e-06
7.18187e-06
7.18489e-06
7.18489e-06
7.18187e-06
7.17582e-06
7.16678e-06
7.15475e-06
7.13976e-06
7.12185e-06
7.10106e-06
7.07743e-06
7.05101e-06
7.02186e-06
6.99005e-06
6.95564e-06
6.91871e-06
6.87934e-06
6.83761e-06
6.79361e-06
6.74743e-06
6.69915e-06
6.64888e-06
6.59671e-06
6.54272e-06
6.48701e-06
6.42971e-06
6.36897e-06
6.19239e-06
6.25201e-06
6.30835e-06
6.3631e-06
6.41617e-06
6.46746e-06
6.51689e-06
6.56435e-06
6.60976e-06
6.65303e-06
6.69407e-06
6.7328e-06
6.76912e-06
6.80297e-06
6.83426e-06
6.86294e-06
6.88893e-06
6.91218e-06
6.93265e-06
6.95027e-06
6.96502e-06
6.97685e-06
6.98576e-06
6.9917e-06
6.99468e-06
6.99468e-06
6.9917e-06
6.98576e-06
6.97685e-06
6.96502e-06
6.95027e-06
6.93265e-06
6.91219e-06
6.88893e-06
6.86294e-06
6.83426e-06
6.80297e-06
6.76912e-06
6.7328e-06
6.69408e-06
6.65303e-06
6.60976e-06
6.56435e-06
6.51689e-06
6.46746e-06
6.41617e-06
6.3631e-06
6.30834e-06
6.25201e-06
6.19239e-06
6.01697e-06
6.07548e-06
6.13083e-06
6.18463e-06
6.23678e-06
6.28718e-06
6.33574e-06
6.38239e-06
6.42703e-06
6.46957e-06
6.50991e-06
6.54799e-06
6.5837e-06
6.61698e-06
6.64776e-06
6.67596e-06
6.70152e-06
6.72439e-06
6.74452e-06
6.76186e-06
6.77636e-06
6.78801e-06
6.79676e-06
6.80261e-06
6.80554e-06
6.80554e-06
6.80261e-06
6.79676e-06
6.78801e-06
6.77636e-06
6.76186e-06
6.74452e-06
6.7244e-06
6.70153e-06
6.67596e-06
6.64776e-06
6.61698e-06
6.5837e-06
6.54799e-06
6.50991e-06
6.46957e-06
6.42703e-06
6.38239e-06
6.33574e-06
6.28718e-06
6.23678e-06
6.18463e-06
6.13083e-06
6.07548e-06
6.01697e-06
5.84275e-06
5.90014e-06
5.9545e-06
6.00734e-06
6.05855e-06
6.10805e-06
6.15576e-06
6.20158e-06
6.24544e-06
6.28724e-06
6.32688e-06
6.3643e-06
6.3994e-06
6.43212e-06
6.46237e-06
6.49009e-06
6.51522e-06
6.53771e-06
6.5575e-06
6.57454e-06
6.58881e-06
6.60026e-06
6.60887e-06
6.61462e-06
6.6175e-06
6.6175e-06
6.61462e-06
6.60887e-06
6.60026e-06
6.58881e-06
6.57454e-06
6.5575e-06
6.53771e-06
6.51523e-06
6.49009e-06
6.46237e-06
6.43212e-06
6.3994e-06
6.3643e-06
6.32688e-06
6.28724e-06
6.24544e-06
6.20158e-06
6.15576e-06
6.10805e-06
6.05855e-06
6.00734e-06
5.9545e-06
5.90014e-06
5.84275e-06
5.66977e-06
5.72603e-06
5.77939e-06
5.83125e-06
5.88152e-06
5.93012e-06
5.97696e-06
6.02195e-06
6.06502e-06
6.10607e-06
6.14502e-06
6.18177e-06
6.21625e-06
6.24839e-06
6.27812e-06
6.30536e-06
6.33006e-06
6.35216e-06
6.37161e-06
6.38836e-06
6.40238e-06
6.41363e-06
6.42209e-06
6.42775e-06
6.43058e-06
6.43058e-06
6.42775e-06
6.42209e-06
6.41363e-06
6.40238e-06
6.38836e-06
6.37161e-06
6.35216e-06
6.33006e-06
6.30536e-06
6.27812e-06
6.2484e-06
6.21626e-06
6.18177e-06
6.14502e-06
6.10607e-06
6.06502e-06
6.02195e-06
5.97696e-06
5.93012e-06
5.88152e-06
5.83125e-06
5.77939e-06
5.72603e-06
5.66977e-06
5.49805e-06
5.55318e-06
5.60553e-06
5.65641e-06
5.70573e-06
5.75341e-06
5.79937e-06
5.84354e-06
5.88581e-06
5.92611e-06
5.96434e-06
6.00043e-06
6.03429e-06
6.06585e-06
6.09504e-06
6.1218e-06
6.14606e-06
6.16777e-06
6.18687e-06
6.20333e-06
6.2171e-06
6.22816e-06
6.23647e-06
6.24202e-06
6.2448e-06
6.2448e-06
6.24202e-06
6.23647e-06
6.22816e-06
6.2171e-06
6.20333e-06
6.18687e-06
6.16777e-06
6.14606e-06
6.1218e-06
6.09505e-06
6.06585e-06
6.03429e-06
6.00043e-06
5.96434e-06
5.92611e-06
5.88581e-06
5.84354e-06
5.79937e-06
5.75341e-06
5.70573e-06
5.65641e-06
5.60553e-06
5.55318e-06
5.49805e-06
5.32764e-06
5.38164e-06
5.43296e-06
5.48285e-06
5.53121e-06
5.57797e-06
5.62305e-06
5.66637e-06
5.70784e-06
5.74738e-06
5.78489e-06
5.82031e-06
5.85354e-06
5.88452e-06
5.91317e-06
5.93944e-06
5.96326e-06
5.98457e-06
6.00333e-06
6.01949e-06
6.03301e-06
6.04386e-06
6.05203e-06
6.05748e-06
6.06021e-06
6.06021e-06
6.05748e-06
6.05203e-06
6.04386e-06
6.03301e-06
6.01949e-06
6.00333e-06
5.98457e-06
5.96326e-06
5.93944e-06
5.91318e-06
5.88452e-06
5.85354e-06
5.82031e-06
5.78489e-06
5.74738e-06
5.70784e-06
5.66637e-06
5.62305e-06
5.57797e-06
5.53121e-06
5.48285e-06
5.43296e-06
5.38164e-06
5.32764e-06
5.15857e-06
5.21143e-06
5.26172e-06
5.3106e-06
5.358e-06
5.40382e-06
5.44801e-06
5.49048e-06
5.53115e-06
5.56992e-06
5.60671e-06
5.64144e-06
5.67404e-06
5.70443e-06
5.73255e-06
5.75832e-06
5.78169e-06
5.8026e-06
5.82101e-06
5.83686e-06
5.85014e-06
5.86079e-06
5.8688e-06
5.87416e-06
5.87683e-06
5.87683e-06
5.87416e-06
5.8688e-06
5.86079e-06
5.85014e-06
5.83687e-06
5.82101e-06
5.8026e-06
5.78169e-06
5.75832e-06
5.73255e-06
5.70444e-06
5.67404e-06
5.64145e-06
5.60671e-06
5.56992e-06
5.53115e-06
5.49048e-06
5.44801e-06
5.40382e-06
5.35799e-06
5.3106e-06
5.26172e-06
5.21143e-06
5.15857e-06
4.99089e-06
5.0426e-06
5.09185e-06
5.13972e-06
5.18613e-06
5.23102e-06
5.27431e-06
5.31593e-06
5.35577e-06
5.39377e-06
5.42983e-06
5.46388e-06
5.49584e-06
5.52563e-06
5.5532e-06
5.57847e-06
5.60139e-06
5.6219e-06
5.63995e-06
5.6555e-06
5.66852e-06
5.67897e-06
5.68683e-06
5.69208e-06
5.69471e-06
5.69471e-06
5.69208e-06
5.68683e-06
5.67897e-06
5.66852e-06
5.6555e-06
5.63995e-06
5.6219e-06
5.60139e-06
5.57847e-06
5.5532e-06
5.52564e-06
5.49584e-06
5.46388e-06
5.42983e-06
5.39377e-06
5.35577e-06
5.31593e-06
5.27431e-06
5.23102e-06
5.18613e-06
5.13972e-06
5.09185e-06
5.0426e-06
4.99089e-06
4.82463e-06
4.87519e-06
4.92339e-06
4.97023e-06
5.01566e-06
5.0596e-06
5.10199e-06
5.14274e-06
5.18176e-06
5.21898e-06
5.2543e-06
5.28765e-06
5.31897e-06
5.34816e-06
5.37517e-06
5.39994e-06
5.4224e-06
5.4425e-06
5.4602e-06
5.47544e-06
5.4882e-06
5.49845e-06
5.50615e-06
5.5113e-06
5.51387e-06
5.51387e-06
5.5113e-06
5.50615e-06
5.49845e-06
5.4882e-06
5.47544e-06
5.4602e-06
5.4425e-06
5.4224e-06
5.39994e-06
5.37517e-06
5.34816e-06
5.31897e-06
5.28766e-06
5.2543e-06
5.21898e-06
5.18176e-06
5.14274e-06
5.10199e-06
5.0596e-06
5.01566e-06
4.97023e-06
4.92338e-06
4.87518e-06
4.82463e-06
4.65985e-06
4.70924e-06
4.75638e-06
4.80219e-06
4.84662e-06
4.88961e-06
4.93108e-06
4.97096e-06
5.00915e-06
5.04558e-06
5.08016e-06
5.11281e-06
5.14347e-06
5.17206e-06
5.19851e-06
5.22277e-06
5.24477e-06
5.26446e-06
5.28179e-06
5.29672e-06
5.30922e-06
5.31926e-06
5.32681e-06
5.33185e-06
5.33437e-06
5.33437e-06
5.33185e-06
5.32681e-06
5.31926e-06
5.30922e-06
5.29672e-06
5.28179e-06
5.26446e-06
5.24477e-06
5.22277e-06
5.19851e-06
5.17206e-06
5.14347e-06
5.11281e-06
5.08016e-06
5.04558e-06
5.00915e-06
4.97096e-06
4.93108e-06
4.88961e-06
4.84662e-06
4.80219e-06
4.75637e-06
4.70924e-06
4.65984e-06
4.49658e-06
4.5448e-06
4.59087e-06
4.63564e-06
4.67907e-06
4.72109e-06
4.76164e-06
4.80063e-06
4.83799e-06
4.87362e-06
4.90745e-06
4.9394e-06
4.96939e-06
4.99737e-06
5.02326e-06
5.047e-06
5.06853e-06
5.0878e-06
5.10477e-06
5.11939e-06
5.13163e-06
5.14146e-06
5.14884e-06
5.15378e-06
5.15625e-06
5.15625e-06
5.15378e-06
5.14884e-06
5.14146e-06
5.13163e-06
5.11939e-06
5.10477e-06
5.0878e-06
5.06853e-06
5.047e-06
5.02326e-06
4.99737e-06
4.96939e-06
4.9394e-06
4.90745e-06
4.87362e-06
4.83799e-06
4.80063e-06
4.76164e-06
4.72109e-06
4.67907e-06
4.63564e-06
4.59086e-06
4.5448e-06
4.49657e-06
4.33487e-06
4.38192e-06
4.4269e-06
4.47062e-06
4.51304e-06
4.5541e-06
4.59371e-06
4.63182e-06
4.66832e-06
4.70315e-06
4.73622e-06
4.76746e-06
4.79679e-06
4.82414e-06
4.84946e-06
4.87268e-06
4.89374e-06
4.91259e-06
4.92919e-06
4.9435e-06
4.95547e-06
4.96508e-06
4.97231e-06
4.97714e-06
4.97956e-06
4.97956e-06
4.97714e-06
4.97231e-06
4.96508e-06
4.95547e-06
4.9435e-06
4.92919e-06
4.91259e-06
4.89374e-06
4.87268e-06
4.84946e-06
4.82414e-06
4.79679e-06
4.76746e-06
4.73622e-06
4.70315e-06
4.66832e-06
4.63182e-06
4.59371e-06
4.5541e-06
4.51304e-06
4.47062e-06
4.4269e-06
4.38192e-06
4.33487e-06
4.17478e-06
4.22065e-06
4.26454e-06
4.3072e-06
4.3486e-06
4.38867e-06
4.42735e-06
4.46456e-06
4.50021e-06
4.53422e-06
4.56653e-06
4.59704e-06
4.6257e-06
4.65243e-06
4.67717e-06
4.69986e-06
4.72045e-06
4.73888e-06
4.7551e-06
4.76908e-06
4.78079e-06
4.79019e-06
4.79725e-06
4.80197e-06
4.80434e-06
4.80434e-06
4.80197e-06
4.79725e-06
4.79019e-06
4.78079e-06
4.76909e-06
4.7551e-06
4.73888e-06
4.72045e-06
4.69986e-06
4.67717e-06
4.65243e-06
4.6257e-06
4.59704e-06
4.56653e-06
4.53423e-06
4.50021e-06
4.46456e-06
4.42735e-06
4.38867e-06
4.3486e-06
4.3072e-06
4.26453e-06
4.22065e-06
4.17478e-06
4.01635e-06
4.06103e-06
4.10382e-06
4.14541e-06
4.18578e-06
4.22487e-06
4.2626e-06
4.2989e-06
4.33369e-06
4.36689e-06
4.39842e-06
4.42821e-06
4.45618e-06
4.48228e-06
4.50644e-06
4.5286e-06
4.54871e-06
4.5667e-06
4.58255e-06
4.59621e-06
4.60764e-06
4.61682e-06
4.62373e-06
4.62834e-06
4.63065e-06
4.63065e-06
4.62834e-06
4.62373e-06
4.61682e-06
4.60764e-06
4.59621e-06
4.58255e-06
4.56671e-06
4.54871e-06
4.5286e-06
4.50644e-06
4.48228e-06
4.45618e-06
4.42821e-06
4.39842e-06
4.36689e-06
4.33369e-06
4.2989e-06
4.2626e-06
4.22487e-06
4.18578e-06
4.14541e-06
4.10382e-06
4.06103e-06
4.01635e-06
3.85965e-06
3.90313e-06
3.94481e-06
3.98532e-06
4.02466e-06
4.06275e-06
4.09953e-06
4.13491e-06
4.16883e-06
4.2012e-06
4.23195e-06
4.261e-06
4.28829e-06
4.31376e-06
4.33733e-06
4.35895e-06
4.37857e-06
4.39613e-06
4.4116e-06
4.42493e-06
4.43609e-06
4.44505e-06
4.45179e-06
4.45629e-06
4.45854e-06
4.45854e-06
4.45629e-06
4.45179e-06
4.44505e-06
4.43609e-06
4.42493e-06
4.4116e-06
4.39613e-06
4.37857e-06
4.35895e-06
4.33733e-06
4.31376e-06
4.2883e-06
4.26101e-06
4.23195e-06
4.20121e-06
4.16883e-06
4.13491e-06
4.09953e-06
4.06275e-06
4.02466e-06
3.98532e-06
3.94481e-06
3.90313e-06
3.85965e-06
3.70472e-06
3.74701e-06
3.78756e-06
3.82699e-06
3.86527e-06
3.90236e-06
3.93818e-06
3.97265e-06
4.00569e-06
4.03723e-06
4.06718e-06
4.09549e-06
4.12209e-06
4.14691e-06
4.16989e-06
4.19096e-06
4.21009e-06
4.22722e-06
4.2423e-06
4.2553e-06
4.26618e-06
4.27492e-06
4.28149e-06
4.28588e-06
4.28807e-06
4.28807e-06
4.28588e-06
4.28149e-06
4.27492e-06
4.26618e-06
4.2553e-06
4.2423e-06
4.22722e-06
4.21009e-06
4.19097e-06
4.16989e-06
4.14691e-06
4.12209e-06
4.0955e-06
4.06718e-06
4.03723e-06
4.00569e-06
3.97265e-06
3.93818e-06
3.90236e-06
3.86527e-06
3.82699e-06
3.78756e-06
3.74701e-06
3.70472e-06
3.55163e-06
3.59271e-06
3.63213e-06
3.67047e-06
3.7077e-06
3.74377e-06
3.77862e-06
3.81216e-06
3.84432e-06
3.87501e-06
3.90418e-06
3.93174e-06
3.95763e-06
3.9818e-06
4.00418e-06
4.02471e-06
4.04334e-06
4.06002e-06
4.07472e-06
4.08738e-06
4.09798e-06
4.10649e-06
4.1129e-06
4.11717e-06
4.11931e-06
4.11931e-06
4.11717e-06
4.1129e-06
4.10649e-06
4.09798e-06
4.08738e-06
4.07472e-06
4.06002e-06
4.04334e-06
4.02471e-06
4.00418e-06
3.9818e-06
3.95764e-06
3.93174e-06
3.90418e-06
3.87501e-06
3.84432e-06
3.81216e-06
3.77862e-06
3.74377e-06
3.7077e-06
3.67047e-06
3.63213e-06
3.59271e-06
3.55163e-06
3.40044e-06
3.4403e-06
3.47858e-06
3.51582e-06
3.55199e-06
3.58705e-06
3.62092e-06
3.65352e-06
3.68478e-06
3.71463e-06
3.74299e-06
3.7698e-06
3.79499e-06
3.8185e-06
3.84027e-06
3.86025e-06
3.87838e-06
3.89461e-06
3.90891e-06
3.92124e-06
3.93156e-06
3.93984e-06
3.94607e-06
3.95023e-06
3.95232e-06
3.95232e-06
3.95023e-06
3.94607e-06
3.93984e-06
3.93156e-06
3.92124e-06
3.90891e-06
3.89461e-06
3.87838e-06
3.86025e-06
3.84027e-06
3.8185e-06
3.79499e-06
3.7698e-06
3.74299e-06
3.71463e-06
3.68478e-06
3.65352e-06
3.62092e-06
3.58705e-06
3.55199e-06
3.51582e-06
3.47858e-06
3.4403e-06
3.40044e-06
3.25122e-06
3.28986e-06
3.32699e-06
3.36312e-06
3.39822e-06
3.43225e-06
3.46513e-06
3.49679e-06
3.52716e-06
3.55615e-06
3.5837e-06
3.60974e-06
3.63422e-06
3.65707e-06
3.67823e-06
3.69764e-06
3.71527e-06
3.73105e-06
3.74495e-06
3.75694e-06
3.76697e-06
3.77503e-06
3.78109e-06
3.78513e-06
3.78716e-06
3.78716e-06
3.78513e-06
3.78109e-06
3.77503e-06
3.76697e-06
3.75694e-06
3.74495e-06
3.73105e-06
3.71527e-06
3.69765e-06
3.67823e-06
3.65707e-06
3.63422e-06
3.60974e-06
3.5837e-06
3.55615e-06
3.52716e-06
3.49679e-06
3.46513e-06
3.43225e-06
3.39822e-06
3.36312e-06
3.32699e-06
3.28986e-06
3.25122e-06
3.10403e-06
3.14144e-06
3.17742e-06
3.21243e-06
3.24646e-06
3.27945e-06
3.31134e-06
3.34205e-06
3.37151e-06
3.39963e-06
3.42637e-06
3.45164e-06
3.4754e-06
3.49758e-06
3.51812e-06
3.53697e-06
3.55409e-06
3.56941e-06
3.58292e-06
3.59455e-06
3.6043e-06
3.61212e-06
3.61801e-06
3.62194e-06
3.62391e-06
3.62391e-06
3.62194e-06
3.61801e-06
3.61212e-06
3.6043e-06
3.59455e-06
3.58292e-06
3.56942e-06
3.55409e-06
3.53698e-06
3.51812e-06
3.49758e-06
3.4754e-06
3.45164e-06
3.42637e-06
3.39963e-06
3.37151e-06
3.34205e-06
3.31134e-06
3.27945e-06
3.24646e-06
3.21243e-06
3.17742e-06
3.14144e-06
3.10403e-06
2.95895e-06
2.99513e-06
3.02994e-06
3.06383e-06
3.09677e-06
3.12872e-06
3.15961e-06
3.18937e-06
3.2179e-06
3.24516e-06
3.27107e-06
3.29557e-06
3.3186e-06
3.34011e-06
3.36003e-06
3.37831e-06
3.39491e-06
3.40978e-06
3.42287e-06
3.43416e-06
3.44362e-06
3.45121e-06
3.45692e-06
3.46073e-06
3.46264e-06
3.46264e-06
3.46073e-06
3.45692e-06
3.45121e-06
3.44362e-06
3.43416e-06
3.42287e-06
3.40978e-06
3.39491e-06
3.37831e-06
3.36003e-06
3.34011e-06
3.3186e-06
3.29557e-06
3.27107e-06
3.24516e-06
3.2179e-06
3.18937e-06
3.15961e-06
3.12872e-06
3.09677e-06
3.06383e-06
3.02994e-06
2.99513e-06
2.95895e-06
2.81605e-06
2.85099e-06
2.88463e-06
2.91739e-06
2.94924e-06
2.98014e-06
3.01003e-06
3.03881e-06
3.06643e-06
3.09281e-06
3.11789e-06
3.14161e-06
3.16391e-06
3.18473e-06
3.20402e-06
3.22173e-06
3.23781e-06
3.25221e-06
3.2649e-06
3.27584e-06
3.285e-06
3.29235e-06
3.29788e-06
3.30158e-06
3.30343e-06
3.30343e-06
3.30158e-06
3.29788e-06
3.29235e-06
3.285e-06
3.27584e-06
3.2649e-06
3.25221e-06
3.23781e-06
3.22173e-06
3.20402e-06
3.18473e-06
3.16391e-06
3.14161e-06
3.11789e-06
3.09281e-06
3.06643e-06
3.03881e-06
3.01003e-06
2.98014e-06
2.94924e-06
2.91739e-06
2.88463e-06
2.85099e-06
2.81605e-06
2.67541e-06
2.70911e-06
2.74157e-06
2.77319e-06
2.80395e-06
2.8338e-06
2.86267e-06
2.89048e-06
2.91717e-06
2.94266e-06
2.9669e-06
2.98984e-06
3.0114e-06
3.03154e-06
3.05019e-06
3.06732e-06
3.08288e-06
3.09681e-06
3.10909e-06
3.11967e-06
3.12853e-06
3.13565e-06
3.141e-06
3.14458e-06
3.14636e-06
3.14636e-06
3.14458e-06
3.141e-06
3.13565e-06
3.12853e-06
3.11967e-06
3.10909e-06
3.09681e-06
3.08288e-06
3.06732e-06
3.0502e-06
3.03154e-06
3.0114e-06
2.98984e-06
2.9669e-06
2.94266e-06
2.91717e-06
2.89048e-06
2.86267e-06
2.83379e-06
2.80395e-06
2.77319e-06
2.74157e-06
2.70911e-06
2.67541e-06
2.53712e-06
2.56957e-06
2.60085e-06
2.63132e-06
2.66098e-06
2.68976e-06
2.71761e-06
2.74445e-06
2.7702e-06
2.7948e-06
2.8182e-06
2.84034e-06
2.86116e-06
2.88061e-06
2.89863e-06
2.91517e-06
2.93019e-06
2.94366e-06
2.95552e-06
2.96574e-06
2.97431e-06
2.98118e-06
2.98635e-06
2.98981e-06
2.99154e-06
2.99154e-06
2.98981e-06
2.98635e-06
2.98118e-06
2.97431e-06
2.96574e-06
2.95552e-06
2.94366e-06
2.9302e-06
2.91517e-06
2.89863e-06
2.88061e-06
2.86116e-06
2.84034e-06
2.8182e-06
2.7948e-06
2.7702e-06
2.74445e-06
2.71761e-06
2.68976e-06
2.66098e-06
2.63132e-06
2.60085e-06
2.56957e-06
2.53712e-06
2.40126e-06
2.43246e-06
2.46255e-06
2.49187e-06
2.52042e-06
2.54813e-06
2.57496e-06
2.60081e-06
2.62562e-06
2.64933e-06
2.67188e-06
2.69322e-06
2.71329e-06
2.73204e-06
2.74941e-06
2.76537e-06
2.77986e-06
2.79284e-06
2.80428e-06
2.81415e-06
2.82241e-06
2.82905e-06
2.83404e-06
2.83737e-06
2.83903e-06
2.83903e-06
2.83737e-06
2.83404e-06