/*--------------------------------*- C++ -*----------------------------------*\
  =========                 |
  \\      /  F ield         | OpenFOAM: The Open Source CFD Toolbox
   \\    /   O peration     | Website:  https://openfoam.org
    \\  /    A nd           | Version:  7
     \\/     M anipulation  |
\*---------------------------------------------------------------------------*/
FoamFile
{
    version     2.0;
    format      ascii;
    class       volScalarField;
    location    "16000";
    object      nut;
}
// * * * * * * * * * * * * * * * * * * * * * * * * * * * * * * * * * * * * * //

dimensions      [0 2 -1 0 0 0 0];

internalField   nonuniform List<scalar> 
1762
(
1.19189e-05
1.20619e-05
1.21971e-05
1.23242e-05
1.24427e-05
1.25522e-05
1.26523e-05
1.27424e-05
1.28222e-05
1.28913e-05
1.29493e-05
1.29961e-05
1.15724e-05
1.17134e-05
1.18467e-05
1.1972e-05
1.20889e-05
1.21969e-05
1.22957e-05
1.23847e-05
1.24635e-05
1.25317e-05
1.25891e-05
1.26353e-05
1.12276e-05
1.13665e-05
1.14978e-05
1.16212e-05
1.17364e-05
1.1843e-05
1.19404e-05
1.20282e-05
1.2106e-05
1.21733e-05
1.223e-05
1.22756e-05
1.08849e-05
1.10215e-05
1.11507e-05
1.12722e-05
1.13857e-05
1.14906e-05
1.15866e-05
1.16731e-05
1.17498e-05
1.18163e-05
1.18721e-05
1.19172e-05
1.05442e-05
1.06785e-05
1.08055e-05
1.0925e-05
1.10367e-05
1.114e-05
1.12345e-05
1.13197e-05
1.13953e-05
1.14607e-05
1.15158e-05
1.15602e-05
1.02058e-05
1.03378e-05
1.04626e-05
1.058e-05
1.06897e-05
1.07913e-05
1.08843e-05
1.09681e-05
1.10425e-05
1.11069e-05
1.11611e-05
1.12048e-05
9.86998e-06
9.99943e-06
1.01219e-05
1.02372e-05
1.0345e-05
1.04448e-05
1.05361e-05
1.06186e-05
1.06917e-05
1.07551e-05
1.08084e-05
1.08514e-05
9.53675e-06
9.66367e-06
9.78375e-06
9.89684e-06
1.00026e-05
1.01006e-05
1.01903e-05
1.02713e-05
1.03431e-05
1.04054e-05
1.04578e-05
9.20632e-06
9.33064e-06
9.44827e-06
9.55909e-06
9.66277e-06
9.75886e-06
9.84686e-06
9.92632e-06
9.99682e-06
1.0058e-05
1.01094e-05
8.87886e-06
9.00051e-06
9.11563e-06
9.22413e-06
9.32567e-06
9.41982e-06
9.50607e-06
9.58397e-06
9.6531e-06
9.71307e-06
9.76355e-06
8.55451e-06
8.67343e-06
8.78598e-06
8.89211e-06
8.99146e-06
9.08362e-06
9.16808e-06
9.24438e-06
9.3121e-06
9.37086e-06
9.42034e-06
8.23342e-06
8.34955e-06
8.45949e-06
8.56319e-06
8.66031e-06
8.75043e-06
8.83305e-06
8.90771e-06
8.97398e-06
9.0315e-06
9.07995e-06
7.91575e-06
8.02904e-06
8.1363e-06
8.23754e-06
8.33238e-06
8.42042e-06
8.50116e-06
8.57413e-06
8.63893e-06
8.69518e-06
8.74256e-06
7.60162e-06
7.71202e-06
7.81658e-06
7.91529e-06
8.00782e-06
8.09374e-06
8.17255e-06
8.24381e-06
8.3071e-06
8.36204e-06
8.40834e-06
7.29118e-06
7.39866e-06
7.50046e-06
7.59662e-06
7.68678e-06
7.77054e-06
7.8474e-06
7.91692e-06
7.97865e-06
8.03227e-06
8.07745e-06
6.98458e-06
7.08908e-06
7.1881e-06
7.28166e-06
7.36943e-06
7.45099e-06
7.52586e-06
7.59359e-06
7.65375e-06
7.70602e-06
7.75006e-06
6.68195e-06
6.78344e-06
6.87963e-06
6.97056e-06
7.0559e-06
7.13524e-06
7.20808e-06
7.274e-06
7.33256e-06
7.38344e-06
7.42633e-06
6.38341e-06
6.48186e-06
6.57519e-06
6.66347e-06
6.74635e-06
6.82342e-06
6.89422e-06
6.95829e-06
7.01522e-06
7.0647e-06
7.10641e-06
6.08912e-06
6.18449e-06
6.27494e-06
6.36053e-06
6.44091e-06
6.5157e-06
6.58441e-06
6.64662e-06
6.7019e-06
6.74995e-06
6.79047e-06
5.79919e-06
5.89146e-06
5.979e-06
6.06187e-06
6.13974e-06
6.21221e-06
6.27882e-06
6.33913e-06
6.39275e-06
6.43935e-06
6.47866e-06
5.51376e-06
5.6029e-06
5.68751e-06
5.76765e-06
5.84298e-06
5.91311e-06
5.97759e-06
6.03599e-06
6.08791e-06
6.13305e-06
6.17113e-06
5.23297e-06
5.31896e-06
5.40062e-06
5.478e-06
5.55077e-06
5.61854e-06
5.68087e-06
5.73733e-06
5.78754e-06
5.8312e-06
5.86805e-06
4.95694e-06
5.03977e-06
5.11846e-06
5.19307e-06
5.26326e-06
5.32865e-06
5.3888e-06
5.44332e-06
5.49179e-06
5.53396e-06
5.56955e-06
4.68581e-06
4.76547e-06
4.84117e-06
4.91299e-06
4.98058e-06
5.04358e-06
5.10154e-06
5.15409e-06
5.20082e-06
5.24148e-06
5.2758e-06
4.41972e-06
4.49619e-06
4.5689e-06
4.63792e-06
4.7029e-06
4.76348e-06
4.81924e-06
4.8698e-06
4.91479e-06
4.95393e-06
4.15881e-06
4.23208e-06
4.30179e-06
4.36799e-06
4.43036e-06
4.48851e-06
4.54206e-06
4.59062e-06
4.63384e-06
4.67144e-06
3.90322e-06
3.97328e-06
4.03999e-06
4.10337e-06
4.16311e-06
4.21883e-06
4.27014e-06
4.3167e-06
4.35814e-06
4.3942e-06
3.65309e-06
3.71995e-06
3.78365e-06
3.84421e-06
3.90131e-06
3.95458e-06
4.00367e-06
4.0482e-06
4.08785e-06
4.12237e-06
3.40858e-06
3.47225e-06
3.53294e-06
3.59067e-06
3.64513e-06
3.69595e-06
3.74279e-06
3.7853e-06
3.82316e-06
3.85612e-06
3.16985e-06
3.23032e-06
3.28801e-06
3.34291e-06
3.39472e-06
3.44309e-06
3.48769e-06
3.52817e-06
3.56423e-06
3.59563e-06
2.93707e-06
2.99436e-06
3.04904e-06
3.10112e-06
3.15029e-06
3.1962e-06
3.23854e-06
3.27699e-06
3.31125e-06
3.34109e-06
2.71042e-06
2.76453e-06
2.81622e-06
2.86548e-06
2.912e-06
2.95546e-06
2.99555e-06
3.03196e-06
3.06442e-06
3.09269e-06
2.49008e-06
2.54103e-06
2.58974e-06
2.63618e-06
2.68007e-06
2.72108e-06
2.75892e-06
2.7933e-06
2.82395e-06
2.85065e-06
2.27626e-06
2.32406e-06
2.3698e-06
2.41344e-06
2.4547e-06
2.49326e-06
2.52886e-06
2.56121e-06
2.59006e-06
2.6152e-06
2.06918e-06
2.11386e-06
2.15665e-06
2.19749e-06
2.23613e-06
2.27226e-06
2.30561e-06
2.33594e-06
2.36299e-06
2.38657e-06
1.86908e-06
1.91066e-06
1.95051e-06
1.98858e-06
2.02461e-06
2.05831e-06
2.08944e-06
2.11774e-06
2.143e-06
2.16502e-06
1.67623e-06
1.71474e-06
1.75168e-06
1.78698e-06
1.82042e-06
1.8517e-06
1.88061e-06
1.90691e-06
1.93038e-06
1.95085e-06
1.49092e-06
1.52639e-06
1.56044e-06
1.59301e-06
1.62386e-06
1.65275e-06
1.67945e-06
1.70375e-06
1.72545e-06
1.74438e-06
1.3135e-06
1.34596e-06
1.37714e-06
1.407e-06
1.43529e-06
1.4618e-06
1.48631e-06
1.50863e-06
1.52856e-06
1.54595e-06
1.14436e-06
1.17384e-06
1.20219e-06
1.22934e-06
1.2551e-06
1.27925e-06
1.30159e-06
1.32194e-06
1.34012e-06
1.35599e-06
9.83953e-07
1.01048e-06
1.03602e-06
1.06051e-06
1.08376e-06
1.10557e-06
1.12575e-06
1.14415e-06
1.16059e-06
1.17495e-06
8.32811e-07
8.56425e-07
8.79196e-07
9.01047e-07
9.21807e-07
9.41294e-07
9.59347e-07
9.75807e-07
9.90532e-07
1.00339e-06
6.91584e-07
7.12325e-07
7.32353e-07
7.51594e-07
7.69894e-07
7.87087e-07
8.03029e-07
8.17574e-07
8.30594e-07
8.41974e-07
5.61059e-07
5.78965e-07
5.96283e-07
6.12946e-07
6.28814e-07
6.43739e-07
6.57593e-07
6.70244e-07
6.81579e-07
6.91492e-07
4.42182e-07
4.57298e-07
4.71947e-07
4.86067e-07
4.99535e-07
5.12222e-07
5.24013e-07
5.34794e-07
5.44463e-07
5.52926e-07
3.36077e-07
3.48462e-07
3.60493e-07
3.72117e-07
3.83227e-07
3.93714e-07
4.03477e-07
4.12417e-07
4.20444e-07
4.2748e-07
2.43996e-07
2.5374e-07
2.63235e-07
2.72436e-07
2.81254e-07
2.89597e-07
2.97382e-07
3.04524e-07
3.10949e-07
3.16589e-07
1.67163e-07
1.74418e-07
1.81514e-07
1.88415e-07
1.95052e-07
2.01351e-07
2.07244e-07
2.12666e-07
2.17554e-07
2.21852e-07
1.06446e-07
1.11459e-07
1.16384e-07
1.21195e-07
1.2584e-07
1.30265e-07
1.34419e-07
1.38253e-07
1.41718e-07
1.44773e-07
6.18554e-08
6.49944e-08
6.80932e-08
7.11339e-08
7.40829e-08
7.6904e-08
7.95628e-08
8.20245e-08
8.42569e-08
8.62303e-08
3.20921e-08
3.38239e-08
3.55413e-08
3.72341e-08
3.8883e-08
4.04669e-08
4.19652e-08
4.33574e-08
4.46239e-08
4.57465e-08
1.44706e-08
1.52859e-08
1.60972e-08
1.69e-08
1.76847e-08
1.84412e-08
1.91591e-08
1.98281e-08
2.04383e-08
2.09806e-08
5.4661e-09
5.78073e-09
6.09449e-09
6.40569e-09
6.71064e-09
7.00524e-09
7.28545e-09
7.54711e-09
7.78622e-09
7.99904e-09
1.63237e-09
1.72611e-09
1.81963e-09
1.91246e-09
2.00349e-09
2.09152e-09
2.1753e-09
2.25361e-09
2.32522e-09
2.389e-09
3.47134e-10
3.66476e-10
3.8574e-10
4.04845e-10
4.23564e-10
4.4165e-10
4.58854e-10
4.74922e-10
4.89609e-10
5.02684e-10
4.24813e-11
4.46794e-11
4.68596e-11
4.90145e-11
5.11196e-11
5.31477e-11
5.50721e-11
5.68653e-11
5.8501e-11
5.99546e-11
1.82739e-12
1.90631e-12
1.98384e-12
2.0599e-12
2.13368e-12
2.2043e-12
2.2709e-12
2.33264e-12
2.38867e-12
2.43826e-12
8.10357e-15
8.30538e-15
8.49888e-15
8.68549e-15
8.86371e-15
9.03183e-15
9.18832e-15
9.33162e-15
9.46029e-15
9.57309e-15
1.30549e-05
1.30667e-05
1.30667e-05
1.30549e-05
1.30313e-05
1.2996e-05
1.29493e-05
1.28913e-05
1.28222e-05
1.27424e-05
1.26523e-05
1.25523e-05
1.24428e-05
1.23242e-05
1.21972e-05
1.20619e-05
1.19189e-05
1.26935e-05
1.27052e-05
1.27051e-05
1.26934e-05
1.26701e-05
1.26353e-05
1.25891e-05
1.25317e-05
1.24635e-05
1.23847e-05
1.22957e-05
1.2197e-05
1.20889e-05
1.1972e-05
1.18467e-05
1.17134e-05
1.15724e-05
1.2333e-05
1.23446e-05
1.23445e-05
1.2333e-05
1.231e-05
1.22755e-05
1.22299e-05
1.21733e-05
1.2106e-05
1.20282e-05
1.19404e-05
1.1843e-05
1.17365e-05
1.16213e-05
1.14978e-05
1.13665e-05
1.12277e-05
1.18721e-05
1.19171e-05
1.19511e-05
1.19738e-05
1.19852e-05
1.19852e-05
1.19738e-05
1.1951e-05
1.19171e-05
1.18721e-05
1.18162e-05
1.17498e-05
1.16732e-05
1.15866e-05
1.14907e-05
1.13857e-05
1.12722e-05
1.11507e-05
1.10215e-05
1.08849e-05
1.15158e-05
1.15601e-05
1.15936e-05
1.1616e-05
1.16272e-05
1.16272e-05
1.1616e-05
1.15936e-05
1.15601e-05
1.15157e-05
1.14607e-05
1.13952e-05
1.13197e-05
1.12345e-05
1.114e-05
1.10367e-05
1.09251e-05
1.08056e-05
1.06785e-05
1.05442e-05
1.11611e-05
1.12048e-05
1.12378e-05
1.12599e-05
1.12709e-05
1.12709e-05
1.12598e-05
1.12378e-05
1.12048e-05
1.11611e-05
1.11069e-05
1.10425e-05
1.09682e-05
1.08843e-05
1.07913e-05
1.06898e-05
1.058e-05
1.04626e-05
1.03378e-05
1.02059e-05
1.08084e-05
1.08514e-05
1.08838e-05
1.09055e-05
1.09164e-05
1.09164e-05
1.09055e-05
1.08838e-05
1.08514e-05
1.08084e-05
1.07551e-05
1.06917e-05
1.06186e-05
1.05362e-05
1.04448e-05
1.0345e-05
1.02372e-05
1.01219e-05
9.99947e-06
9.87e-06
1.04578e-05
1.05e-05
1.05319e-05
1.05533e-05
1.0564e-05
1.0564e-05
1.05533e-05
1.05319e-05
1.05e-05
1.04577e-05
1.04054e-05
1.03431e-05
1.02713e-05
1.01903e-05
1.01006e-05
1.00026e-05
9.89687e-06
9.78378e-06
9.6637e-06
9.53677e-06
1.01094e-05
1.01509e-05
1.01822e-05
1.02032e-05
1.02137e-05
1.02137e-05
1.02032e-05
1.01822e-05
1.01509e-05
1.01094e-05
1.0058e-05
9.99681e-06
9.92635e-06
9.84688e-06
9.75887e-06
9.66282e-06
9.55912e-06
9.4483e-06
9.33067e-06
9.20635e-06
9.76355e-06
9.80425e-06
9.835e-06
9.85559e-06
9.86591e-06
9.8659e-06
9.85559e-06
9.83499e-06
9.80425e-06
9.76354e-06
9.71306e-06
9.6531e-06
9.584e-06
9.50609e-06
9.41983e-06
9.32572e-06
9.22416e-06
9.11566e-06
9.00053e-06
8.87888e-06
9.42033e-06
9.46023e-06
9.49037e-06
9.51055e-06
9.52067e-06
9.52066e-06
9.51055e-06
9.49037e-06
9.46023e-06
9.42032e-06
9.37085e-06
9.31209e-06
9.2444e-06
9.16809e-06
9.08363e-06
8.99151e-06
8.89213e-06
8.78601e-06
8.67345e-06
8.55453e-06
9.07994e-06
9.11901e-06
9.14852e-06
9.1683e-06
9.17821e-06
9.1782e-06
9.16829e-06
9.14852e-06
9.11901e-06
9.07993e-06
9.0315e-06
8.97398e-06
8.90773e-06
8.83306e-06
8.75045e-06
8.66037e-06
8.56321e-06
8.45952e-06
8.34957e-06
8.23343e-06
8.74255e-06
8.78077e-06
8.80964e-06
8.82899e-06
8.83869e-06
8.83868e-06
8.82898e-06
8.80964e-06
8.78076e-06
8.74254e-06
8.69517e-06
8.63893e-06
8.57415e-06
8.50117e-06
8.42043e-06
8.33243e-06
8.23756e-06
8.13633e-06
8.02905e-06
7.91575e-06
8.40833e-06
8.44568e-06
8.4739e-06
8.4928e-06
8.50228e-06
8.50227e-06
8.4928e-06
8.47389e-06
8.44567e-06
8.40832e-06
8.36204e-06
8.30709e-06
8.24383e-06
8.17256e-06
8.09375e-06
8.00787e-06
7.91532e-06
7.81661e-06
7.71204e-06
7.60162e-06
8.07744e-06
8.1139e-06
8.14145e-06
8.15991e-06
8.16916e-06
8.16915e-06
8.1599e-06
8.14144e-06
8.11389e-06
8.07743e-06
8.03226e-06
7.97865e-06
7.91692e-06
7.84741e-06
7.77056e-06
7.68684e-06
7.59664e-06
7.50049e-06
7.39867e-06
7.29119e-06
7.75005e-06
7.7856e-06
7.81247e-06
7.83047e-06
7.83949e-06
7.83948e-06
7.83046e-06
7.81246e-06
7.78559e-06
7.75005e-06
7.70601e-06
7.65375e-06
7.59359e-06
7.52587e-06
7.45101e-06
7.36948e-06
7.28168e-06
7.18812e-06
7.08909e-06
6.98458e-06
7.42632e-06
7.46095e-06
7.48711e-06
7.50465e-06
7.51343e-06
7.51342e-06
7.50464e-06
7.4871e-06
7.46094e-06
7.42632e-06
7.38344e-06
7.33256e-06
7.274e-06
7.20809e-06
7.13525e-06
7.05596e-06
6.97059e-06
6.87965e-06
6.78344e-06
6.68195e-06
7.10641e-06
7.14009e-06
7.16554e-06
7.1826e-06
7.19115e-06
7.19114e-06
7.18259e-06
7.16554e-06
7.14008e-06
7.10641e-06
7.0647e-06
7.01522e-06
6.95828e-06
6.89422e-06
6.82344e-06
6.7464e-06
6.66349e-06
6.57522e-06
6.48186e-06
6.38341e-06
6.79047e-06
6.82319e-06
6.84791e-06
6.8645e-06
6.8728e-06
6.87279e-06
6.86449e-06
6.84791e-06
6.82318e-06
6.79047e-06
6.74996e-06
6.7019e-06
6.64661e-06
6.58441e-06
6.51572e-06
6.44097e-06
6.36055e-06
6.27496e-06
6.18449e-06
6.08911e-06
6.47866e-06
6.51041e-06
6.53439e-06
6.55049e-06
6.55854e-06
6.55854e-06
6.55048e-06
6.53439e-06
6.51039e-06
6.47866e-06
6.43936e-06
6.39274e-06
6.33912e-06
6.27882e-06
6.21223e-06
6.1398e-06
6.06189e-06
5.97902e-06
5.89146e-06
5.79918e-06
6.17113e-06
6.2019e-06
6.22514e-06
6.24073e-06
6.24853e-06
6.24853e-06
6.24072e-06
6.22513e-06
6.20188e-06
6.17114e-06
6.13306e-06
6.0879e-06
6.03598e-06
5.97759e-06
5.91313e-06
5.84303e-06
5.76767e-06
5.68753e-06
5.6029e-06
5.51376e-06
5.86804e-06
5.89781e-06
5.92029e-06
5.93538e-06
5.94293e-06
5.94293e-06
5.93537e-06
5.92029e-06
5.89779e-06
5.86805e-06
5.83121e-06
5.78753e-06
5.73732e-06
5.68086e-06
5.61856e-06
5.55082e-06
5.47802e-06
5.40063e-06
5.31896e-06
5.23296e-06
5.56954e-06
5.5983e-06
5.62003e-06
5.6346e-06
5.6419e-06
5.64189e-06
5.63459e-06
5.62002e-06
5.59829e-06
5.56955e-06
5.53397e-06
5.49178e-06
5.4433e-06
5.3888e-06
5.32867e-06
5.2633e-06
5.19309e-06
5.11847e-06
5.03977e-06
4.95693e-06
5.2758e-06
5.30353e-06
5.32449e-06
5.33855e-06
5.34559e-06
5.34558e-06
5.33854e-06
5.32449e-06
5.30352e-06
5.27581e-06
5.2415e-06
5.20081e-06
5.15407e-06
5.10154e-06
5.0436e-06
4.98063e-06
4.91301e-06
4.84118e-06
4.76546e-06
4.68581e-06
4.98696e-06
5.01366e-06
5.03385e-06
5.04738e-06
5.05416e-06
5.05416e-06
5.04737e-06
5.03384e-06
5.01366e-06
4.98697e-06
4.95394e-06
4.91477e-06
4.86979e-06
4.81924e-06
4.7635e-06
4.70294e-06
4.63793e-06
4.56891e-06
4.49618e-06
4.41972e-06
4.70319e-06
4.72886e-06
4.74826e-06
4.76126e-06
4.76778e-06
4.76778e-06
4.76125e-06
4.74825e-06
4.72885e-06
4.7032e-06
4.67145e-06
4.63382e-06
4.59061e-06
4.54205e-06
4.48853e-06
4.43039e-06
4.36801e-06
4.3018e-06
4.23207e-06
4.1588e-06
4.42465e-06
4.44927e-06
4.46789e-06
4.48036e-06
4.48662e-06
4.48662e-06
4.48035e-06
4.46788e-06
4.44927e-06
4.42466e-06
4.39421e-06
4.35813e-06
4.31669e-06
4.27014e-06
4.21884e-06
4.16314e-06
4.10339e-06
4.04e-06
3.97328e-06
3.90321e-06
4.15151e-06
4.17509e-06
4.1929e-06
4.20485e-06
4.21084e-06
4.21084e-06
4.20484e-06
4.1929e-06
4.17508e-06
4.15152e-06
4.12238e-06
4.08784e-06
4.04819e-06
4.00366e-06
3.9546e-06
3.90134e-06
3.84423e-06
3.78366e-06
3.71995e-06
3.65308e-06
3.88395e-06
3.90647e-06
3.92349e-06
3.9349e-06
3.94063e-06
3.94062e-06
3.93489e-06
3.92349e-06
3.90646e-06
3.88396e-06
3.85613e-06
3.82315e-06
3.78529e-06
3.74278e-06
3.69596e-06
3.64515e-06
3.59068e-06
3.53295e-06
3.47224e-06
3.40857e-06
3.62215e-06
3.6436e-06
3.65982e-06
3.6707e-06
3.67616e-06
3.67615e-06
3.67069e-06
3.65983e-06
3.6436e-06
3.62216e-06
3.59563e-06
3.56422e-06
3.52816e-06
3.48768e-06
3.44311e-06
3.39474e-06
3.34292e-06
3.28802e-06
3.23032e-06
3.16985e-06
3.36629e-06
3.38668e-06
3.4021e-06
3.41244e-06
3.41763e-06
3.41762e-06
3.41243e-06
3.4021e-06
3.38668e-06
3.3663e-06
3.34109e-06
3.31124e-06
3.27699e-06
3.23854e-06
3.19622e-06
3.1503e-06
3.10113e-06
3.04905e-06
2.99436e-06
2.93707e-06
3.11657e-06
3.1359e-06
3.15052e-06
3.16032e-06
3.16524e-06
3.16523e-06
3.16031e-06
3.15052e-06
3.1359e-06
3.11659e-06
3.0927e-06
3.06442e-06
3.03196e-06
2.99555e-06
2.95547e-06
2.91201e-06
2.86549e-06
2.81623e-06
2.76453e-06
2.71041e-06
2.87322e-06
2.89148e-06
2.90529e-06
2.91455e-06
2.9192e-06
2.9192e-06
2.91455e-06
2.90529e-06
2.89148e-06
2.87323e-06
2.85066e-06
2.82394e-06
2.7933e-06
2.75892e-06
2.72109e-06
2.68008e-06
2.63619e-06
2.58975e-06
2.54103e-06
2.49007e-06
2.63645e-06
2.65364e-06
2.66665e-06
2.67537e-06
2.67975e-06
2.67975e-06
2.67537e-06
2.66665e-06
2.65364e-06
2.63645e-06
2.6152e-06
2.59005e-06
2.56121e-06
2.52886e-06
2.49327e-06
2.45471e-06
2.41345e-06
2.36982e-06
2.32406e-06
2.27625e-06
2.4065e-06
2.42263e-06
2.43483e-06
2.44302e-06
2.44713e-06
2.44713e-06
2.44301e-06
2.43484e-06
2.42263e-06
2.40651e-06
2.38657e-06
2.36298e-06
2.33594e-06
2.30561e-06
2.27226e-06
2.23613e-06
2.1975e-06
2.15666e-06
2.11386e-06
2.06917e-06
2.18364e-06
2.19871e-06
2.21011e-06
2.21776e-06
2.2216e-06
2.2216e-06
2.21776e-06
2.21012e-06
2.19871e-06
2.18365e-06
2.16503e-06
2.143e-06
2.11775e-06
2.08944e-06
2.05832e-06
2.02461e-06
1.98859e-06
1.95052e-06
1.91066e-06
1.86907e-06
1.96816e-06
1.98217e-06
1.99278e-06
1.9999e-06
2.00347e-06
2.00347e-06
1.99989e-06
1.99278e-06
1.98217e-06
1.96817e-06
1.95086e-06
1.93038e-06
1.90691e-06
1.88061e-06
1.85171e-06
1.82042e-06
1.78699e-06
1.75169e-06
1.71474e-06
1.67622e-06
1.76038e-06
1.77334e-06
1.78315e-06
1.78974e-06
1.79305e-06
1.79305e-06
1.78974e-06
1.78316e-06
1.77334e-06
1.76039e-06
1.74438e-06
1.72545e-06
1.70375e-06
1.67945e-06
1.65275e-06
1.62386e-06
1.59302e-06
1.56045e-06
1.52639e-06
1.49092e-06
1.56067e-06
1.57258e-06
1.5816e-06
1.58766e-06
1.5907e-06
1.5907e-06
1.58765e-06
1.58161e-06
1.57258e-06
1.56067e-06
1.54595e-06
1.52856e-06
1.50863e-06
1.48631e-06
1.4618e-06
1.43529e-06
1.407e-06
1.37715e-06
1.34596e-06
1.3135e-06
1.36942e-06
1.38029e-06
1.38853e-06
1.39406e-06
1.39684e-06
1.39684e-06
1.39406e-06
1.38854e-06
1.38029e-06
1.36942e-06
1.35599e-06
1.34012e-06
1.32194e-06
1.30159e-06
1.27925e-06
1.25511e-06
1.22935e-06
1.20219e-06
1.17384e-06
1.14436e-06
1.1871e-06
1.19695e-06
1.20441e-06
1.20942e-06
1.21194e-06
1.21194e-06
1.20942e-06
1.20442e-06
1.19695e-06
1.18711e-06
1.17495e-06
1.16059e-06
1.14415e-06
1.12575e-06
1.10557e-06
1.08376e-06
1.06052e-06
1.03603e-06
1.01048e-06
9.83951e-07
1.01428e-06
1.02311e-06
1.0298e-06
1.03429e-06
1.03655e-06
1.03655e-06
1.03429e-06
1.0298e-06
1.02311e-06
1.01429e-06
1.0034e-06
9.9053e-07
9.75809e-07
9.59348e-07
9.41297e-07
9.21809e-07
9.01053e-07
8.792e-07
8.56428e-07
8.32809e-07
8.51614e-07
8.5943e-07
8.65355e-07
8.69335e-07
8.71333e-07
8.71333e-07
8.69332e-07
8.65359e-07
8.59432e-07
8.51618e-07
8.41976e-07
8.30594e-07
8.17576e-07
8.0303e-07
7.8709e-07
7.69895e-07
7.51599e-07
7.32356e-07
7.12328e-07
6.91583e-07
6.99895e-07
7.0671e-07
7.11879e-07
7.15351e-07
7.17095e-07
7.17095e-07
7.15349e-07
7.11883e-07
7.06711e-07
6.99897e-07
6.91493e-07
6.81578e-07
6.70246e-07
6.57593e-07
6.43742e-07
6.28815e-07
6.1295e-07
5.96285e-07
5.78967e-07
5.61058e-07
5.60106e-07
5.65933e-07
5.70354e-07
5.73325e-07
5.74818e-07
5.74818e-07
5.73324e-07
5.70357e-07
5.65934e-07
5.60108e-07
5.52928e-07
5.44462e-07
5.34795e-07
5.24014e-07
5.12224e-07
4.99536e-07
4.8607e-07
4.71949e-07
4.573e-07
4.42181e-07
4.33454e-07
4.38307e-07
4.41991e-07
4.44467e-07
4.45712e-07
4.45712e-07
4.44466e-07
4.41993e-07
4.38308e-07
4.33456e-07
4.27481e-07
4.20444e-07
4.12417e-07
4.03477e-07
3.93716e-07
3.83229e-07
3.7212e-07
3.60495e-07
3.48463e-07
3.36077e-07
3.21384e-07
3.25282e-07
3.28245e-07
3.30237e-07
3.31239e-07
3.31239e-07
3.30237e-07
3.28247e-07
3.25283e-07
3.21385e-07
3.1659e-07
3.10949e-07
3.04525e-07
2.97382e-07
2.89598e-07
2.81255e-07
2.72438e-07
2.63236e-07
2.53741e-07
2.43996e-07
2.25513e-07
2.28493e-07
2.3076e-07
2.32286e-07
2.33053e-07
2.33054e-07
2.32285e-07
2.30761e-07
2.28494e-07
2.25514e-07
2.21853e-07
2.17553e-07
2.12666e-07
2.07245e-07
2.01352e-07
1.95053e-07
1.88417e-07
1.81515e-07
1.74419e-07
1.67163e-07
1.4738e-07
1.49506e-07
1.51126e-07
1.52216e-07
1.52765e-07
1.52766e-07
1.52216e-07
1.51126e-07
1.49507e-07
1.47381e-07
1.44774e-07
1.41718e-07
1.38253e-07
1.34419e-07
1.30265e-07
1.2584e-07
1.21196e-07
1.16384e-07
1.11459e-07
1.06445e-07
8.79182e-08
8.92973e-08
9.03492e-08
9.10586e-08
9.14159e-08
9.1416e-08
9.10585e-08
9.03497e-08
8.92975e-08
8.79185e-08
8.62306e-08
8.42568e-08
8.20246e-08
7.95629e-08
7.69044e-08
7.40832e-08
7.11345e-08
6.80935e-08
6.49947e-08
6.18553e-08
4.67089e-08
4.74969e-08
4.80988e-08
4.85052e-08
4.871e-08
4.87101e-08
4.85051e-08
4.80991e-08
4.7497e-08
4.67091e-08
4.57466e-08
4.46238e-08
4.33575e-08
4.19653e-08
4.04671e-08
3.88832e-08
3.72345e-08
3.55414e-08
3.38241e-08
3.2092e-08
2.14464e-08
2.18285e-08
2.21207e-08
2.23182e-08
2.24178e-08
2.24178e-08
2.23182e-08
2.21208e-08
2.18285e-08
2.14465e-08
2.09806e-08
2.04383e-08
1.98281e-08
1.91591e-08
1.84413e-08
1.76848e-08
1.69001e-08
1.60973e-08
1.52859e-08
1.44705e-08
8.18213e-09
8.33248e-09
8.44759e-09
8.52544e-09
8.56472e-09
8.56473e-09
8.52542e-09
8.44764e-09
8.33251e-09
8.18217e-09
7.99906e-09
7.78621e-09
7.54712e-09
7.28546e-09
7.00528e-09
6.71067e-09
6.40575e-09
6.09452e-09
5.78076e-09
5.46609e-09
2.4439e-09
2.489e-09
2.52355e-09
2.54692e-09
2.55872e-09
2.55872e-09
2.54692e-09
2.52357e-09
2.48901e-09
2.44391e-09
2.389e-09
2.32522e-09
2.25361e-09
2.17531e-09
2.09153e-09
2.0035e-09
1.91247e-09
1.81964e-09
1.72612e-09
1.63237e-09
5.13935e-10
5.23177e-10
5.30253e-10
5.3504e-10
5.37455e-10
5.37456e-10
5.35039e-10
5.30256e-10
5.23178e-10
5.13938e-10
5.02685e-10
4.89608e-10
4.74923e-10
4.58854e-10
4.41652e-10
4.23566e-10
4.04849e-10
3.85742e-10
3.66477e-10
3.47133e-10
6.12034e-11
6.22279e-11
6.30117e-11
6.35415e-11
6.38086e-11
6.38087e-11
6.35413e-11
6.30121e-11
6.22281e-11
6.12037e-11
5.99547e-11
5.85009e-11
5.68654e-11
5.50722e-11
5.3148e-11
5.11198e-11
4.90149e-11
4.68598e-11
4.46796e-11
4.24812e-11
2.4807e-12
2.51542e-12
2.54192e-12
2.5598e-12
2.56881e-12
2.56882e-12
2.5598e-12
2.54194e-12
2.51543e-12
2.48072e-12
2.43826e-12
2.38867e-12
2.33264e-12
2.27091e-12
2.20431e-12
2.13369e-12
2.05992e-12
1.98385e-12
1.90632e-12
1.82739e-12
9.66887e-15
9.74669e-15
9.8058e-15
9.84553e-15
9.86552e-15
9.86553e-15
9.84552e-15
9.80586e-15
9.74672e-15
9.66891e-15
9.57311e-15
9.46029e-15
9.33163e-15
9.18833e-15
9.03187e-15
8.86374e-15
8.68556e-15
8.49892e-15
8.30542e-15
8.10355e-15
)
;

boundaryField
{
    inlet
    {
        type            cyclic;
    }
    outlet
    {
        type            cyclic;
    }
    wall
    {
        type            fixedValue;
        value           uniform 1e-30;
    }
    procBoundary3to0
    {
        type            processor;
        value           nonuniform List<scalar> 
32
(
4.3942e-06
4.12237e-06
3.85612e-06
3.59562e-06
3.34108e-06
3.09269e-06
2.85065e-06
2.6152e-06
2.38657e-06
2.16502e-06
1.95085e-06
1.74437e-06
1.54595e-06
1.35599e-06
1.17495e-06
1.00339e-06
8.41973e-07
6.91491e-07
5.52926e-07
4.2748e-07
3.16589e-07
2.21852e-07
1.44773e-07
8.62302e-08
4.57464e-08
2.09805e-08
7.99903e-09
2.38899e-09
5.02683e-10
5.99544e-11
2.43825e-12
9.57307e-15
)
;
    }
    procBoundary3to1
    {
        type            processor;
        value           nonuniform List<scalar> 
23
(
1.18162e-05
1.14607e-05
1.11069e-05
1.07551e-05
1.04054e-05
1.0058e-05
9.71307e-06
9.37086e-06
9.0315e-06
8.69517e-06
8.36204e-06
8.03227e-06
7.70601e-06
7.38344e-06
7.0647e-06
6.74995e-06
6.43935e-06
6.13305e-06
5.8312e-06
5.53396e-06
5.24148e-06
4.95392e-06
4.67144e-06
)
;
    }
    procBoundary3to2
    {
        type            processor;
        value           nonuniform List<scalar> 
60
(
1.30314e-05
1.26702e-05
1.231e-05
1.19511e-05
1.15936e-05
1.12378e-05
1.08838e-05
1.05e-05
1.05e-05
1.01509e-05
9.80429e-06
9.46026e-06
9.11904e-06
8.7808e-06
8.4457e-06
8.11392e-06
7.78562e-06
7.46096e-06
7.14011e-06
6.82321e-06
6.51042e-06
6.20191e-06
5.89782e-06
5.59831e-06
5.30354e-06
4.98696e-06
4.98696e-06
4.70319e-06
4.42466e-06
4.15152e-06
3.88396e-06
3.62215e-06
3.36629e-06
3.11658e-06
2.87322e-06
2.63645e-06
2.4065e-06
2.18364e-06
1.96816e-06
1.76039e-06
1.56067e-06
1.36942e-06
1.18711e-06
1.01429e-06
8.51615e-07
6.99895e-07
5.60107e-07
4.33455e-07
3.21385e-07
2.25513e-07
1.47381e-07
8.79183e-08
4.6709e-08
2.14464e-08
8.18215e-09
2.4439e-09
5.13937e-10
6.12036e-11
2.48071e-12
9.66889e-15
)
;
    }
    procBoundary3to4
    {
        type            processor;
        value           nonuniform List<scalar> 
13
(
1.34171e-05
1.34291e-05
1.34291e-05
1.34171e-05
1.33933e-05
1.33576e-05
1.33104e-05
1.30313e-05
1.26701e-05
1.223e-05
1.22756e-05
1.231e-05
1.231e-05
)
;
    }
    procBoundary3to5
    {
        type            processor;
        value           nonuniform List<scalar> 
22
(
1.2267e-05
1.2412e-05
1.2549e-05
1.26778e-05
1.27978e-05
1.29087e-05
1.30099e-05
1.31011e-05
1.31819e-05
1.32517e-05
1.33104e-05
1.33577e-05
1.32517e-05
1.31818e-05
1.31012e-05
1.301e-05
1.29087e-05
1.27978e-05
1.26778e-05
1.2549e-05
1.2412e-05
1.2267e-05
)
;
    }
}


// ************************************************************************* //
