/*--------------------------------*- C++ -*----------------------------------*\
  =========                 |
  \\      /  F ield         | OpenFOAM: The Open Source CFD Toolbox
   \\    /   O peration     | Website:  https://openfoam.org
    \\  /    A nd           | Version:  7
     \\/     M anipulation  |
\*---------------------------------------------------------------------------*/
FoamFile
{
    version     2.0;
    format      ascii;
    class       volScalarField;
    location    "144000";
    object      nut;
}
// * * * * * * * * * * * * * * * * * * * * * * * * * * * * * * * * * * * * * //

dimensions      [0 2 -1 0 0 0 0];

internalField   nonuniform List<scalar> 
4838
(
2.98466e-05
2.987e-05
2.98915e-05
2.99109e-05
2.99282e-05
2.99435e-05
2.9957e-05
2.99688e-05
2.99792e-05
2.99881e-05
2.99958e-05
3.00024e-05
3.00079e-05
3.00126e-05
3.00165e-05
3.00197e-05
3.00223e-05
3.00244e-05
3.00261e-05
3.00274e-05
3.00284e-05
3.00292e-05
3.00297e-05
3.003e-05
3.00302e-05
3.00302e-05
3.003e-05
3.00297e-05
3.00292e-05
3.00284e-05
3.00274e-05
3.00261e-05
3.00244e-05
3.00223e-05
3.00197e-05
3.00165e-05
3.00126e-05
3.00079e-05
3.00024e-05
2.99958e-05
2.99881e-05
2.99792e-05
2.99688e-05
2.9957e-05
2.99435e-05
2.99282e-05
2.99109e-05
2.98915e-05
2.987e-05
2.98466e-05
2.98065e-05
2.98308e-05
2.98538e-05
2.98752e-05
2.98948e-05
2.99125e-05
2.99284e-05
2.99425e-05
2.9955e-05
2.9966e-05
2.99756e-05
2.99839e-05
2.99911e-05
2.99973e-05
3.00025e-05
3.0007e-05
3.00107e-05
3.00138e-05
3.00163e-05
3.00183e-05
3.00199e-05
3.00211e-05
3.0022e-05
3.00226e-05
3.00229e-05
3.00229e-05
3.00226e-05
3.0022e-05
3.00211e-05
3.00199e-05
3.00183e-05
3.00163e-05
3.00138e-05
3.00107e-05
3.0007e-05
3.00025e-05
2.99973e-05
2.99911e-05
2.99839e-05
2.99756e-05
2.9966e-05
2.9955e-05
2.99425e-05
2.99284e-05
2.99125e-05
2.98948e-05
2.98752e-05
2.98538e-05
2.98308e-05
2.98065e-05
2.97563e-05
2.9784e-05
2.98095e-05
2.98332e-05
2.98551e-05
2.98752e-05
2.98935e-05
2.99099e-05
2.99247e-05
2.99378e-05
2.99494e-05
2.99597e-05
2.99687e-05
2.99765e-05
2.99832e-05
2.9989e-05
2.9994e-05
2.99981e-05
3.00016e-05
3.00044e-05
3.00067e-05
3.00085e-05
3.00098e-05
3.00106e-05
3.0011e-05
3.0011e-05
3.00106e-05
3.00098e-05
3.00085e-05
3.00067e-05
3.00044e-05
3.00016e-05
2.99981e-05
2.9994e-05
2.9989e-05
2.99832e-05
2.99765e-05
2.99687e-05
2.99597e-05
2.99494e-05
2.99378e-05
2.99247e-05
2.99099e-05
2.98935e-05
2.98752e-05
2.98551e-05
2.98332e-05
2.98095e-05
2.9784e-05
2.97563e-05
2.96995e-05
2.97307e-05
2.97592e-05
2.97856e-05
2.981e-05
2.98325e-05
2.98531e-05
2.98718e-05
2.98888e-05
2.99041e-05
2.99178e-05
2.993e-05
2.99408e-05
2.99503e-05
2.99586e-05
2.99659e-05
2.99721e-05
2.99774e-05
2.99818e-05
2.99855e-05
2.99885e-05
2.99908e-05
2.99925e-05
2.99936e-05
2.99942e-05
2.99942e-05
2.99936e-05
2.99925e-05
2.99908e-05
2.99885e-05
2.99855e-05
2.99818e-05
2.99774e-05
2.99721e-05
2.99659e-05
2.99586e-05
2.99503e-05
2.99408e-05
2.993e-05
2.99178e-05
2.99041e-05
2.98888e-05
2.98718e-05
2.98531e-05
2.98325e-05
2.981e-05
2.97856e-05
2.97592e-05
2.97307e-05
2.96995e-05
2.96366e-05
2.96711e-05
2.97028e-05
2.9732e-05
2.97591e-05
2.97841e-05
2.98071e-05
2.98282e-05
2.98474e-05
2.98649e-05
2.98807e-05
2.98948e-05
2.99075e-05
2.99187e-05
2.99286e-05
2.99372e-05
2.99448e-05
2.99512e-05
2.99567e-05
2.99613e-05
2.9965e-05
2.99679e-05
2.997e-05
2.99714e-05
2.99721e-05
2.99721e-05
2.99714e-05
2.997e-05
2.99679e-05
2.9965e-05
2.99613e-05
2.99567e-05
2.99512e-05
2.99448e-05
2.99372e-05
2.99286e-05
2.99187e-05
2.99075e-05
2.98948e-05
2.98807e-05
2.98649e-05
2.98474e-05
2.98282e-05
2.98071e-05
2.97841e-05
2.97591e-05
2.9732e-05
2.97027e-05
2.96711e-05
2.96366e-05
2.95676e-05
2.96053e-05
2.96401e-05
2.96723e-05
2.97022e-05
2.97298e-05
2.97553e-05
2.97788e-05
2.98003e-05
2.982e-05
2.98378e-05
2.98539e-05
2.98684e-05
2.98814e-05
2.98929e-05
2.9903e-05
2.99118e-05
2.99195e-05
2.9926e-05
2.99315e-05
2.99359e-05
2.99394e-05
2.9942e-05
2.99437e-05
2.99446e-05
2.99446e-05
2.99437e-05
2.9942e-05
2.99394e-05
2.99359e-05
2.99315e-05
2.9926e-05
2.99195e-05
2.99118e-05
2.9903e-05
2.98929e-05
2.98814e-05
2.98684e-05
2.98539e-05
2.98378e-05
2.982e-05
2.98003e-05
2.97788e-05
2.97553e-05
2.97298e-05
2.97022e-05
2.96723e-05
2.96401e-05
2.96053e-05
2.95676e-05
2.94927e-05
2.95335e-05
2.95714e-05
2.96065e-05
2.96392e-05
2.96695e-05
2.96976e-05
2.97235e-05
2.97473e-05
2.97692e-05
2.97891e-05
2.98072e-05
2.98236e-05
2.98383e-05
2.98514e-05
2.9863e-05
2.98732e-05
2.9882e-05
2.98896e-05
2.9896e-05
2.99012e-05
2.99053e-05
2.99083e-05
2.99103e-05
2.99113e-05
2.99113e-05
2.99103e-05
2.99083e-05
2.99053e-05
2.99012e-05
2.9896e-05
2.98896e-05
2.9882e-05
2.98732e-05
2.9863e-05
2.98514e-05
2.98383e-05
2.98236e-05
2.98072e-05
2.97891e-05
2.97692e-05
2.97473e-05
2.97235e-05
2.96976e-05
2.96695e-05
2.96392e-05
2.96065e-05
2.95713e-05
2.95335e-05
2.94927e-05
2.94119e-05
2.94558e-05
2.94966e-05
2.95347e-05
2.95702e-05
2.96033e-05
2.96339e-05
2.96623e-05
2.96884e-05
2.97125e-05
2.97346e-05
2.97546e-05
2.97729e-05
2.97893e-05
2.9804e-05
2.98171e-05
2.98286e-05
2.98387e-05
2.98473e-05
2.98546e-05
2.98606e-05
2.98653e-05
2.98688e-05
2.98711e-05
2.98723e-05
2.98723e-05
2.98711e-05
2.98688e-05
2.98653e-05
2.98606e-05
2.98546e-05
2.98473e-05
2.98387e-05
2.98286e-05
2.98171e-05
2.9804e-05
2.97893e-05
2.97729e-05
2.97546e-05
2.97346e-05
2.97125e-05
2.96884e-05
2.96623e-05
2.96339e-05
2.96033e-05
2.95702e-05
2.95347e-05
2.94966e-05
2.94558e-05
2.94119e-05
2.93253e-05
2.93722e-05
2.9416e-05
2.9457e-05
2.94953e-05
2.9531e-05
2.95642e-05
2.95951e-05
2.96236e-05
2.96499e-05
2.9674e-05
2.96961e-05
2.97162e-05
2.97344e-05
2.97507e-05
2.97653e-05
2.97782e-05
2.97894e-05
2.97991e-05
2.98073e-05
2.9814e-05
2.98194e-05
2.98234e-05
2.9826e-05
2.98273e-05
2.98273e-05
2.9826e-05
2.98234e-05
2.98194e-05
2.9814e-05
2.98073e-05
2.97991e-05
2.97894e-05
2.97782e-05
2.97653e-05
2.97507e-05
2.97344e-05
2.97162e-05
2.96961e-05
2.9674e-05
2.96499e-05
2.96236e-05
2.9595e-05
2.95642e-05
2.9531e-05
2.94953e-05
2.9457e-05
2.9416e-05
2.93722e-05
2.93253e-05
2.92331e-05
2.92829e-05
2.93296e-05
2.93734e-05
2.94144e-05
2.94528e-05
2.94886e-05
2.95219e-05
2.95527e-05
2.95813e-05
2.96075e-05
2.96316e-05
2.96535e-05
2.96735e-05
2.96914e-05
2.97075e-05
2.97217e-05
2.97341e-05
2.97449e-05
2.9754e-05
2.97615e-05
2.97675e-05
2.97719e-05
2.97748e-05
2.97763e-05
2.97763e-05
2.97748e-05
2.97719e-05
2.97675e-05
2.97615e-05
2.9754e-05
2.97449e-05
2.97341e-05
2.97217e-05
2.97075e-05
2.96914e-05
2.96734e-05
2.96535e-05
2.96316e-05
2.96075e-05
2.95812e-05
2.95527e-05
2.95219e-05
2.94886e-05
2.94528e-05
2.94144e-05
2.93734e-05
2.93296e-05
2.92829e-05
2.92331e-05
2.91353e-05
2.9188e-05
2.92374e-05
2.9284e-05
2.93278e-05
2.93688e-05
2.94071e-05
2.94428e-05
2.9476e-05
2.95067e-05
2.9535e-05
2.95611e-05
2.95849e-05
2.96065e-05
2.96261e-05
2.96436e-05
2.96592e-05
2.96728e-05
2.96846e-05
2.96947e-05
2.97029e-05
2.97095e-05
2.97144e-05
2.97177e-05
2.97193e-05
2.97193e-05
2.97177e-05
2.97144e-05
2.97095e-05
2.97029e-05
2.96947e-05
2.96846e-05
2.96728e-05
2.96592e-05
2.96436e-05
2.96261e-05
2.96065e-05
2.95849e-05
2.95611e-05
2.9535e-05
2.95067e-05
2.9476e-05
2.94428e-05
2.94071e-05
2.93688e-05
2.93278e-05
2.9284e-05
2.92374e-05
2.9188e-05
2.91353e-05
2.90321e-05
2.90875e-05
2.91397e-05
2.9189e-05
2.92354e-05
2.92789e-05
2.93197e-05
2.93578e-05
2.93933e-05
2.94262e-05
2.94567e-05
2.94847e-05
2.95103e-05
2.95337e-05
2.95548e-05
2.95738e-05
2.95907e-05
2.96055e-05
2.96184e-05
2.96293e-05
2.96383e-05
2.96455e-05
2.96509e-05
2.96544e-05
2.96562e-05
2.96562e-05
2.96544e-05
2.96509e-05
2.96455e-05
2.96383e-05
2.96293e-05
2.96184e-05
2.96055e-05
2.95907e-05
2.95738e-05
2.95548e-05
2.95337e-05
2.95103e-05
2.94847e-05
2.94567e-05
2.94262e-05
2.93933e-05
2.93578e-05
2.93197e-05
2.92789e-05
2.92354e-05
2.9189e-05
2.91397e-05
2.90875e-05
2.90321e-05
2.89235e-05
2.89816e-05
2.90365e-05
2.90884e-05
2.91374e-05
2.91835e-05
2.92267e-05
2.92671e-05
2.93049e-05
2.93399e-05
2.93724e-05
2.94024e-05
2.94298e-05
2.94549e-05
2.94776e-05
2.9498e-05
2.95162e-05
2.95322e-05
2.95461e-05
2.95579e-05
2.95677e-05
2.95755e-05
2.95813e-05
2.95851e-05
2.95871e-05
2.95871e-05
2.95851e-05
2.95813e-05
2.95755e-05
2.95677e-05
2.95579e-05
2.95461e-05
2.95322e-05
2.95162e-05
2.9498e-05
2.94776e-05
2.94549e-05
2.94298e-05
2.94023e-05
2.93724e-05
2.93399e-05
2.93049e-05
2.92671e-05
2.92267e-05
2.91835e-05
2.91374e-05
2.90884e-05
2.90365e-05
2.89816e-05
2.89234e-05
2.88096e-05
2.88704e-05
2.89279e-05
2.89824e-05
2.90339e-05
2.90824e-05
2.9128e-05
2.91708e-05
2.92107e-05
2.92479e-05
2.92824e-05
2.93142e-05
2.93435e-05
2.93702e-05
2.93945e-05
2.94163e-05
2.94358e-05
2.9453e-05
2.94679e-05
2.94806e-05
2.94911e-05
2.94995e-05
2.95057e-05
2.95099e-05
2.95119e-05
2.95119e-05
2.95099e-05
2.95057e-05
2.94995e-05
2.94911e-05
2.94806e-05
2.94679e-05
2.9453e-05
2.94358e-05
2.94163e-05
2.93945e-05
2.93702e-05
2.93435e-05
2.93142e-05
2.92824e-05
2.92479e-05
2.92107e-05
2.91708e-05
2.9128e-05
2.90824e-05
2.90339e-05
2.89824e-05
2.89279e-05
2.88704e-05
2.88096e-05
2.86906e-05
2.8754e-05
2.88141e-05
2.8871e-05
2.8925e-05
2.89759e-05
2.90239e-05
2.90689e-05
2.9111e-05
2.91502e-05
2.91867e-05
2.92204e-05
2.92514e-05
2.92797e-05
2.93055e-05
2.93288e-05
2.93495e-05
2.93678e-05
2.93837e-05
2.93973e-05
2.94085e-05
2.94175e-05
2.94242e-05
2.94286e-05
2.94309e-05
2.94309e-05
2.94286e-05
2.94242e-05
2.94175e-05
2.94085e-05
2.93973e-05
2.93837e-05
2.93678e-05
2.93495e-05
2.93288e-05
2.93055e-05
2.92797e-05
2.92514e-05
2.92204e-05
2.91867e-05
2.91502e-05
2.9111e-05
2.90688e-05
2.90238e-05
2.89759e-05
2.8925e-05
2.8871e-05
2.8814e-05
2.8754e-05
2.86906e-05
2.85667e-05
2.86325e-05
2.86951e-05
2.87545e-05
2.88108e-05
2.88641e-05
2.89143e-05
2.89615e-05
2.90057e-05
2.9047e-05
2.90853e-05
2.91209e-05
2.91536e-05
2.91836e-05
2.92109e-05
2.92355e-05
2.92575e-05
2.92769e-05
2.92938e-05
2.93082e-05
2.93201e-05
2.93297e-05
2.93368e-05
2.93415e-05
2.93439e-05
2.93439e-05
2.93415e-05
2.93368e-05
2.93297e-05
2.93201e-05
2.93082e-05
2.92938e-05
2.92769e-05
2.92575e-05
2.92355e-05
2.92108e-05
2.91836e-05
2.91536e-05
2.91209e-05
2.90853e-05
2.9047e-05
2.90057e-05
2.89615e-05
2.89143e-05
2.88641e-05
2.88108e-05
2.87545e-05
2.8695e-05
2.86325e-05
2.85667e-05
2.84378e-05
2.85061e-05
2.8571e-05
2.86328e-05
2.86915e-05
2.8747e-05
2.87994e-05
2.88487e-05
2.8895e-05
2.89383e-05
2.89785e-05
2.90158e-05
2.90503e-05
2.90818e-05
2.91105e-05
2.91365e-05
2.91597e-05
2.91802e-05
2.91981e-05
2.92133e-05
2.9226e-05
2.92361e-05
2.92436e-05
2.92486e-05
2.92511e-05
2.92511e-05
2.92486e-05
2.92436e-05
2.92361e-05
2.9226e-05
2.92133e-05
2.91981e-05
2.91802e-05
2.91597e-05
2.91365e-05
2.91105e-05
2.90818e-05
2.90503e-05
2.90158e-05
2.89785e-05
2.89383e-05
2.8895e-05
2.88487e-05
2.87994e-05
2.8747e-05
2.86915e-05
2.86328e-05
2.8571e-05
2.85061e-05
2.84378e-05
2.83042e-05
2.83749e-05
2.84421e-05
2.85062e-05
2.85671e-05
2.86248e-05
2.86794e-05
2.87308e-05
2.87791e-05
2.88242e-05
2.88663e-05
2.89054e-05
2.89414e-05
2.89745e-05
2.90047e-05
2.90319e-05
2.90563e-05
2.90779e-05
2.90967e-05
2.91128e-05
2.91261e-05
2.91367e-05
2.91447e-05
2.915e-05
2.91526e-05
2.91526e-05
2.915e-05
2.91447e-05
2.91367e-05
2.91261e-05
2.91128e-05
2.90967e-05
2.90779e-05
2.90563e-05
2.90319e-05
2.90047e-05
2.89745e-05
2.89414e-05
2.89054e-05
2.88663e-05
2.88242e-05
2.87791e-05
2.87308e-05
2.86794e-05
2.86248e-05
2.85671e-05
2.85062e-05
2.84421e-05
2.83749e-05
2.83042e-05
2.8166e-05
2.82389e-05
2.83084e-05
2.83747e-05
2.84378e-05
2.84977e-05
2.85543e-05
2.86077e-05
2.86579e-05
2.8705e-05
2.87489e-05
2.87896e-05
2.88273e-05
2.88618e-05
2.88934e-05
2.89219e-05
2.89475e-05
2.89701e-05
2.89898e-05
2.90067e-05
2.90207e-05
2.90318e-05
2.90402e-05
2.90458e-05
2.90485e-05
2.90485e-05
2.90458e-05
2.90402e-05
2.90318e-05
2.90207e-05
2.90067e-05
2.89898e-05
2.89701e-05
2.89475e-05
2.89219e-05
2.88934e-05
2.88618e-05
2.88273e-05
2.87896e-05
2.87489e-05
2.8705e-05
2.86579e-05
2.86077e-05
2.85543e-05
2.84976e-05
2.84378e-05
2.83747e-05
2.83084e-05
2.82389e-05
2.8166e-05
2.81701e-05
2.82385e-05
2.83037e-05
2.83656e-05
2.84243e-05
2.84797e-05
2.85318e-05
2.85806e-05
2.86263e-05
2.86687e-05
2.87078e-05
2.87439e-05
2.87768e-05
2.88065e-05
2.88332e-05
2.88569e-05
2.88775e-05
2.88951e-05
2.89098e-05
2.89215e-05
2.89302e-05
2.8936e-05
2.89389e-05
2.89389e-05
2.8936e-05
2.89302e-05
2.89215e-05
2.89098e-05
2.88951e-05
2.88775e-05
2.88569e-05
2.88332e-05
2.88065e-05
2.87768e-05
2.87439e-05
2.87078e-05
2.86686e-05
2.86263e-05
2.85806e-05
2.85318e-05
2.84797e-05
2.84243e-05
2.83656e-05
2.83037e-05
2.82385e-05
2.817e-05
2.80984e-05
2.80233e-05
2.80977e-05
2.8165e-05
2.82289e-05
2.82895e-05
2.83468e-05
2.84007e-05
2.84513e-05
2.84986e-05
2.85426e-05
2.85833e-05
2.86207e-05
2.86549e-05
2.86859e-05
2.87137e-05
2.87384e-05
2.87598e-05
2.87782e-05
2.87935e-05
2.88057e-05
2.88148e-05
2.88209e-05
2.88239e-05
2.88239e-05
2.88209e-05
2.88148e-05
2.88057e-05
2.87935e-05
2.87782e-05
2.87598e-05
2.87384e-05
2.87137e-05
2.86859e-05
2.86549e-05
2.86207e-05
2.85833e-05
2.85426e-05
2.84986e-05
2.84513e-05
2.84007e-05
2.83468e-05
2.82895e-05
2.82289e-05
2.81649e-05
2.80977e-05
2.80272e-05
2.79534e-05
2.78762e-05
2.80875e-05
2.815e-05
2.82091e-05
2.82648e-05
2.83172e-05
2.83661e-05
2.84116e-05
2.84538e-05
2.84926e-05
2.85281e-05
2.85602e-05
2.85891e-05
2.86146e-05
2.8637e-05
2.86561e-05
2.8672e-05
2.86847e-05
2.86942e-05
2.87005e-05
2.87036e-05
2.87037e-05
2.87005e-05
2.86942e-05
2.86847e-05
2.8672e-05
2.86561e-05
2.8637e-05
2.86146e-05
2.85891e-05
2.85602e-05
2.8528e-05
2.84926e-05
2.84538e-05
2.84116e-05
2.83661e-05
2.83171e-05
2.82648e-05
2.82091e-05
2.815e-05
2.80875e-05
2.80216e-05
2.79524e-05
2.78799e-05
2.78041e-05
2.77248e-05
2.8006e-05
2.80669e-05
2.81243e-05
2.81783e-05
2.82287e-05
2.82758e-05
2.83194e-05
2.83595e-05
2.83962e-05
2.84295e-05
2.84594e-05
2.84859e-05
2.8509e-05
2.85288e-05
2.85453e-05
2.85585e-05
2.85683e-05
2.85749e-05
2.85782e-05
2.85782e-05
2.85749e-05
2.85683e-05
2.85585e-05
2.85453e-05
2.85288e-05
2.8509e-05
2.84859e-05
2.84594e-05
2.84295e-05
2.83962e-05
2.83595e-05
2.83194e-05
2.82758e-05
2.82287e-05
2.81782e-05
2.81243e-05
2.80669e-05
2.8006e-05
2.79416e-05
2.78739e-05
2.78028e-05
2.77283e-05
2.76505e-05
2.75693e-05
2.79201e-05
2.79792e-05
2.80347e-05
2.80868e-05
2.81352e-05
2.81802e-05
2.82216e-05
2.82595e-05
2.82939e-05
2.83248e-05
2.83522e-05
2.83761e-05
2.83966e-05
2.84137e-05
2.84273e-05
2.84375e-05
2.84443e-05
2.84477e-05
2.84477e-05
2.84443e-05
2.84375e-05
2.84273e-05
2.84137e-05
2.83966e-05
2.83761e-05
2.83522e-05
2.83248e-05
2.82939e-05
2.82595e-05
2.82216e-05
2.81802e-05
2.81352e-05
2.80868e-05
2.80347e-05
2.79792e-05
2.79201e-05
2.78575e-05
2.77914e-05
2.77219e-05
2.76489e-05
2.75726e-05
2.74929e-05
2.74098e-05
2.78868e-05
2.79402e-05
2.79901e-05
2.80364e-05
2.8079e-05
2.81181e-05
2.81535e-05
2.81854e-05
2.82137e-05
2.82384e-05
2.82595e-05
2.82771e-05
2.82912e-05
2.83018e-05
2.83088e-05
2.83123e-05
2.83123e-05
2.83088e-05
2.83018e-05
2.82912e-05
2.82771e-05
2.82595e-05
2.82384e-05
2.82137e-05
2.81854e-05
2.81535e-05
2.81181e-05
2.8079e-05
2.80364e-05
2.79901e-05
2.79402e-05
2.78868e-05
2.78297e-05
2.7769e-05
2.77047e-05
2.7637e-05
2.75657e-05
2.74909e-05
2.74128e-05
2.73313e-05
2.72463e-05
2.77893e-05
2.78405e-05
2.78881e-05
2.79319e-05
2.79721e-05
2.80086e-05
2.80414e-05
2.80705e-05
2.80959e-05
2.81177e-05
2.81359e-05
2.81504e-05
2.81612e-05
2.81685e-05
2.81721e-05
2.81721e-05
2.81685e-05
2.81612e-05
2.81504e-05
2.81359e-05
2.81177e-05
2.80959e-05
2.80705e-05
2.80414e-05
2.80086e-05
2.79721e-05
2.79319e-05
2.78881e-05
2.78405e-05
2.77893e-05
2.77344e-05
2.76758e-05
2.76136e-05
2.75478e-05
2.74784e-05
2.74054e-05
2.73289e-05
2.72491e-05
2.71658e-05
2.70791e-05
2.78216e-05
2.78591e-05
2.78928e-05
2.79227e-05
2.79489e-05
2.79713e-05
2.79899e-05
2.80049e-05
2.80161e-05
2.80235e-05
2.80272e-05
2.80272e-05
2.80235e-05
2.8016e-05
2.80049e-05
2.79899e-05
2.79713e-05
2.79489e-05
2.79227e-05
2.78928e-05
2.78591e-05
2.78216e-05
2.77804e-05
2.77354e-05
2.76866e-05
2.76341e-05
2.75778e-05
2.75178e-05
2.74541e-05
2.73868e-05
2.73158e-05
2.72412e-05
2.71631e-05
2.70816e-05
2.69966e-05
2.69082e-05
2.77974e-05
2.78204e-05
2.78395e-05
2.78548e-05
2.78663e-05
2.7874e-05
2.78778e-05
2.78778e-05
2.7874e-05
2.78663e-05
2.78548e-05
2.78395e-05
2.78204e-05
2.77974e-05
2.77705e-05
2.77398e-05
2.77052e-05
2.76668e-05
2.76246e-05
2.75785e-05
2.75285e-05
2.74747e-05
2.74171e-05
2.73558e-05
2.72906e-05
2.72218e-05
2.71493e-05
2.70732e-05
2.69935e-05
2.69103e-05
2.68238e-05
2.67338e-05
2.76847e-05
2.77004e-05
2.77122e-05
2.77201e-05
2.7724e-05
2.7724e-05
2.77201e-05
2.77122e-05
2.77004e-05
2.76847e-05
2.76651e-05
2.76415e-05
2.7614e-05
2.75825e-05
2.75471e-05
2.75078e-05
2.74645e-05
2.74174e-05
2.73663e-05
2.73113e-05
2.72524e-05
2.71898e-05
2.71233e-05
2.7053e-05
2.6979e-05
2.69014e-05
2.68202e-05
2.67356e-05
2.66475e-05
2.65559e-05
2.75659e-05
2.75659e-05
2.75618e-05
2.75538e-05
2.75417e-05
2.75257e-05
2.75055e-05
2.74814e-05
2.74533e-05
2.74211e-05
2.73849e-05
2.73447e-05
2.73005e-05
2.72523e-05
2.72001e-05
2.71439e-05
2.70839e-05
2.70199e-05
2.69521e-05
2.68805e-05
2.68051e-05
2.67261e-05
2.66435e-05
2.65573e-05
2.64678e-05
2.63747e-05
2.73625e-05
2.73419e-05
2.73172e-05
2.72885e-05
2.72556e-05
2.72186e-05
2.71776e-05
2.71325e-05
2.70833e-05
2.703e-05
2.69728e-05
2.69116e-05
2.68464e-05
2.67773e-05
2.67044e-05
2.66277e-05
2.65473e-05
2.64633e-05
2.63757e-05
2.62847e-05
2.61902e-05
2.71197e-05
2.70862e-05
2.70485e-05
2.70066e-05
2.69606e-05
2.69105e-05
2.68562e-05
2.67979e-05
2.67356e-05
2.66693e-05
2.6599e-05
2.65248e-05
2.64469e-05
2.63651e-05
2.62798e-05
2.61909e-05
2.60985e-05
2.60027e-05
2.68746e-05
2.68319e-05
2.67851e-05
2.6734e-05
2.66788e-05
2.66195e-05
2.65561e-05
2.64887e-05
2.64172e-05
2.63419e-05
2.62627e-05
2.61797e-05
2.60931e-05
2.60029e-05
2.59093e-05
2.58121e-05
2.6697e-05
2.66536e-05
2.66059e-05
2.6554e-05
2.64979e-05
2.64376e-05
2.63732e-05
2.63047e-05
2.62322e-05
2.61557e-05
2.60753e-05
2.59912e-05
2.59033e-05
2.58119e-05
2.5717e-05
2.56187e-05
2.65159e-05
2.64718e-05
2.64233e-05
2.63706e-05
2.63136e-05
2.62524e-05
2.6187e-05
2.61175e-05
2.60439e-05
2.59663e-05
2.58848e-05
2.57996e-05
2.57106e-05
2.5618e-05
2.55219e-05
2.54224e-05
2.61839e-05
2.6126e-05
2.60639e-05
2.59976e-05
2.59271e-05
2.58525e-05
2.57739e-05
2.56914e-05
2.5605e-05
2.55149e-05
2.54212e-05
2.53241e-05
2.52234e-05
2.56581e-05
2.55786e-05
2.5495e-05
2.54076e-05
2.53165e-05
2.52218e-05
2.51236e-05
2.50219e-05
2.52075e-05
2.51154e-05
2.50197e-05
2.49205e-05
2.48178e-05
3.00297e-05
3.003e-05
3.00302e-05
3.00302e-05
3.003e-05
3.00297e-05
3.00292e-05
3.00284e-05
3.00274e-05
3.00261e-05
3.00244e-05
3.00223e-05
3.00197e-05
3.00165e-05
3.00126e-05
3.00079e-05
3.00024e-05
2.99958e-05
2.99881e-05
2.99792e-05
2.99689e-05
2.9957e-05
2.99435e-05
2.99282e-05
2.99109e-05
2.98915e-05
2.987e-05
2.98466e-05
3.00221e-05
3.00226e-05
3.00229e-05
3.00229e-05
3.00226e-05
3.0022e-05
3.00212e-05
3.00199e-05
3.00183e-05
3.00163e-05
3.00138e-05
3.00107e-05
3.0007e-05
3.00025e-05
2.99973e-05
2.99911e-05
2.99839e-05
2.99756e-05
2.9966e-05
2.9955e-05
2.99425e-05
2.99284e-05
2.99126e-05
2.98948e-05
2.98752e-05
2.98538e-05
2.98308e-05
2.98065e-05
3.00098e-05
3.00106e-05
3.0011e-05
3.0011e-05
3.00106e-05
3.00098e-05
3.00085e-05
3.00067e-05
3.00045e-05
3.00016e-05
2.99982e-05
2.9994e-05
2.9989e-05
2.99832e-05
2.99765e-05
2.99687e-05
2.99597e-05
2.99494e-05
2.99378e-05
2.99247e-05
2.99099e-05
2.98935e-05
2.98752e-05
2.98551e-05
2.98332e-05
2.98095e-05
2.9784e-05
2.97563e-05
2.99925e-05
2.99937e-05
2.99942e-05
2.99942e-05
2.99937e-05
2.99925e-05
2.99908e-05
2.99885e-05
2.99855e-05
2.99818e-05
2.99774e-05
2.99721e-05
2.99659e-05
2.99587e-05
2.99503e-05
2.99408e-05
2.993e-05
2.99178e-05
2.99041e-05
2.98888e-05
2.98718e-05
2.98531e-05
2.98325e-05
2.981e-05
2.97856e-05
2.97592e-05
2.97307e-05
2.96995e-05
2.997e-05
2.99715e-05
2.99722e-05
2.99722e-05
2.99715e-05
2.997e-05
2.99679e-05
2.9965e-05
2.99613e-05
2.99567e-05
2.99512e-05
2.99448e-05
2.99373e-05
2.99286e-05
2.99187e-05
2.99075e-05
2.98948e-05
2.98807e-05
2.98649e-05
2.98474e-05
2.98282e-05
2.98071e-05
2.97841e-05
2.97591e-05
2.9732e-05
2.97028e-05
2.96711e-05
2.96366e-05
2.9942e-05
2.99438e-05
2.99446e-05
2.99446e-05
2.99438e-05
2.9942e-05
2.99394e-05
2.99359e-05
2.99315e-05
2.9926e-05
2.99195e-05
2.99119e-05
2.9903e-05
2.98929e-05
2.98814e-05
2.98684e-05
2.98539e-05
2.98378e-05
2.982e-05
2.98003e-05
2.97788e-05
2.97553e-05
2.97298e-05
2.97022e-05
2.96723e-05
2.96401e-05
2.96053e-05
2.95676e-05
2.99084e-05
2.99104e-05
2.99114e-05
2.99114e-05
2.99104e-05
2.99084e-05
2.99053e-05
2.99012e-05
2.9896e-05
2.98896e-05
2.9882e-05
2.98732e-05
2.9863e-05
2.98514e-05
2.98383e-05
2.98236e-05
2.98072e-05
2.97891e-05
2.97692e-05
2.97474e-05
2.97235e-05
2.96976e-05
2.96695e-05
2.96392e-05
2.96065e-05
2.95714e-05
2.95335e-05
2.94927e-05
2.98688e-05
2.98712e-05
2.98723e-05
2.98723e-05
2.98712e-05
2.98688e-05
2.98653e-05
2.98606e-05
2.98546e-05
2.98473e-05
2.98387e-05
2.98287e-05
2.98171e-05
2.9804e-05
2.97893e-05
2.97729e-05
2.97547e-05
2.97346e-05
2.97125e-05
2.96885e-05
2.96623e-05
2.96339e-05
2.96033e-05
2.95703e-05
2.95347e-05
2.94966e-05
2.94558e-05
2.94119e-05
2.98234e-05
2.9826e-05
2.98273e-05
2.98273e-05
2.9826e-05
2.98234e-05
2.98194e-05
2.98141e-05
2.98073e-05
2.97991e-05
2.97894e-05
2.97782e-05
2.97653e-05
2.97507e-05
2.97344e-05
2.97162e-05
2.96961e-05
2.9674e-05
2.96499e-05
2.96236e-05
2.95951e-05
2.95642e-05
2.9531e-05
2.94953e-05
2.9457e-05
2.9416e-05
2.93722e-05
2.93253e-05
2.97719e-05
2.97749e-05
2.97763e-05
2.97763e-05
2.97749e-05
2.97719e-05
2.97675e-05
2.97615e-05
2.9754e-05
2.97449e-05
2.97342e-05
2.97217e-05
2.97075e-05
2.96914e-05
2.96735e-05
2.96535e-05
2.96316e-05
2.96075e-05
2.95813e-05
2.95527e-05
2.95219e-05
2.94886e-05
2.94528e-05
2.94144e-05
2.93734e-05
2.93296e-05
2.92829e-05
2.92331e-05
2.97144e-05
2.97177e-05
2.97193e-05
2.97193e-05
2.97177e-05
2.97144e-05
2.97095e-05
2.9703e-05
2.96947e-05
2.96847e-05
2.96729e-05
2.96592e-05
2.96436e-05
2.96261e-05
2.96066e-05
2.95849e-05
2.95611e-05
2.95351e-05
2.95067e-05
2.9476e-05
2.94428e-05
2.94071e-05
2.93688e-05
2.93278e-05
2.9284e-05
2.92374e-05
2.9188e-05
2.91353e-05
2.96509e-05
2.96544e-05
2.96562e-05
2.96562e-05
2.96544e-05
2.96509e-05
2.96455e-05
2.96384e-05
2.96293e-05
2.96184e-05
2.96055e-05
2.95907e-05
2.95738e-05
2.95548e-05
2.95337e-05
2.95103e-05
2.94847e-05
2.94567e-05
2.94262e-05
2.93933e-05
2.93579e-05
2.93198e-05
2.9279e-05
2.92354e-05
2.9189e-05
2.91397e-05
2.90875e-05
2.90321e-05
2.95813e-05
2.95852e-05
2.95871e-05
2.95871e-05
2.95852e-05
2.95813e-05
2.95755e-05
2.95677e-05
2.95579e-05
2.95461e-05
2.95322e-05
2.95162e-05
2.9498e-05
2.94776e-05
2.94549e-05
2.94298e-05
2.94024e-05
2.93724e-05
2.934e-05
2.93049e-05
2.92672e-05
2.92267e-05
2.91835e-05
2.91374e-05
2.90884e-05
2.90365e-05
2.89816e-05
2.89235e-05
2.95057e-05
2.95099e-05
2.9512e-05
2.9512e-05
2.95099e-05
2.95057e-05
2.94995e-05
2.94911e-05
2.94806e-05
2.94679e-05
2.9453e-05
2.94358e-05
2.94163e-05
2.93945e-05
2.93702e-05
2.93435e-05
2.93142e-05
2.92824e-05
2.92479e-05
2.92107e-05
2.91708e-05
2.9128e-05
2.90824e-05
2.90339e-05
2.89824e-05
2.89279e-05
2.88704e-05
2.88096e-05
2.93973e-05
2.93838e-05
2.93679e-05
2.93495e-05
2.93288e-05
2.93055e-05
2.92798e-05
2.92514e-05
2.92204e-05
2.91867e-05
2.91502e-05
2.9111e-05
2.90689e-05
2.90239e-05
2.89759e-05
2.8925e-05
2.8871e-05
2.88141e-05
2.8754e-05
2.86906e-05
2.9047e-05
2.90057e-05
2.89615e-05
2.89143e-05
2.88641e-05
2.88108e-05
2.87545e-05
2.86951e-05
2.86325e-05
2.85667e-05
2.8747e-05
2.86915e-05
2.86328e-05
2.8571e-05
2.85061e-05
2.84378e-05
2.84421e-05
2.83749e-05
2.83042e-05
2.42162e-05
2.40002e-05
2.3782e-05
2.75078e-05
2.73447e-05
2.71776e-05
2.70066e-05
2.68319e-05
2.66536e-05
2.64718e-05
2.62865e-05
2.6098e-05
2.59063e-05
2.57116e-05
2.55138e-05
2.53132e-05
2.51099e-05
2.49039e-05
2.46953e-05
2.44843e-05
2.42709e-05
2.40553e-05
2.38374e-05
2.80086e-05
2.78591e-05
2.77052e-05
2.75471e-05
2.73849e-05
2.72186e-05
2.70485e-05
2.68746e-05
2.6697e-05
2.65159e-05
2.63313e-05
2.61434e-05
2.59524e-05
2.57582e-05
2.5561e-05
2.53609e-05
2.51581e-05
2.49525e-05
2.47444e-05
2.45338e-05
2.43208e-05
2.41055e-05
2.3888e-05
2.80414e-05
2.78928e-05
2.77398e-05
2.75825e-05
2.74211e-05
2.72556e-05
2.70862e-05
2.6913e-05
2.67361e-05
2.65556e-05
2.63717e-05
2.61844e-05
2.59939e-05
2.58002e-05
2.56036e-05
2.5404e-05
2.52016e-05
2.49965e-05
2.47887e-05
2.45785e-05
2.43659e-05
2.41509e-05
2.39337e-05
2.80705e-05
2.79227e-05
2.77705e-05
2.7614e-05
2.74533e-05
2.72885e-05
2.71197e-05
2.69472e-05
2.67709e-05
2.6591e-05
2.64076e-05
2.62208e-05
2.60308e-05
2.58377e-05
2.56414e-05
2.54423e-05
2.52403e-05
2.50356e-05
2.48282e-05
2.46183e-05
2.4406e-05
2.41913e-05
2.39744e-05
2.80959e-05
2.79489e-05
2.77974e-05
2.76415e-05
2.74814e-05
2.73172e-05
2.71491e-05
2.69771e-05
2.68013e-05
2.66219e-05
2.64391e-05
2.62528e-05
2.60632e-05
2.58705e-05
2.56747e-05
2.54759e-05
2.52743e-05
2.50699e-05
2.48628e-05
2.46533e-05
2.44412e-05
2.42268e-05
2.40101e-05
2.99315e-05
2.9896e-05
2.98546e-05
2.98073e-05
2.9754e-05
2.96947e-05
2.96293e-05
2.95579e-05
2.94806e-05
2.93973e-05
2.93082e-05
2.92133e-05
2.91128e-05
2.90067e-05
2.88951e-05
2.87782e-05
2.86561e-05
2.85289e-05
2.83966e-05
2.82595e-05
2.81177e-05
2.79713e-05
2.78204e-05
2.76651e-05
2.75055e-05
2.73419e-05
2.71743e-05
2.70027e-05
2.68274e-05
2.66485e-05
2.64661e-05
2.62802e-05
2.6091e-05
2.58986e-05
2.57032e-05
2.55047e-05
2.53034e-05
2.50993e-05
2.48926e-05
2.46832e-05
2.44714e-05
2.42573e-05
2.40408e-05
2.9936e-05
2.99012e-05
2.98606e-05
2.98141e-05
2.97615e-05
2.9703e-05
2.96384e-05
2.95677e-05
2.94911e-05
2.94086e-05
2.93202e-05
2.9226e-05
2.91261e-05
2.90207e-05
2.89098e-05
2.87935e-05
2.8672e-05
2.85453e-05
2.84137e-05
2.82771e-05
2.81359e-05
2.79899e-05
2.78395e-05
2.76847e-05
2.75257e-05
2.73624e-05
2.71952e-05
2.70241e-05
2.68492e-05
2.66707e-05
2.64886e-05
2.6303e-05
2.61142e-05
2.59221e-05
2.5727e-05
2.55288e-05
2.53277e-05
2.51239e-05
2.49174e-05
2.47083e-05
2.44967e-05
2.42827e-05
2.40664e-05
2.99395e-05
2.99053e-05
2.98653e-05
2.98194e-05
2.97675e-05
2.97095e-05
2.96455e-05
2.95755e-05
2.94995e-05
2.94175e-05
2.93297e-05
2.92361e-05
2.91368e-05
2.90319e-05
2.89215e-05
2.88057e-05
2.86847e-05
2.85585e-05
2.84273e-05
2.82912e-05
2.81504e-05
2.80049e-05
2.78548e-05
2.77004e-05
2.75417e-05
2.73789e-05
2.7212e-05
2.70412e-05
2.68667e-05
2.66884e-05
2.65066e-05
2.63213e-05
2.61327e-05
2.59409e-05
2.5746e-05
2.55481e-05
2.53472e-05
2.51436e-05
2.49373e-05
2.47283e-05
2.45169e-05
2.43031e-05
2.40869e-05
3.00297e-05
3.00221e-05
3.00098e-05
2.99925e-05
2.997e-05
2.9942e-05
2.99084e-05
2.98688e-05
2.98234e-05
2.97719e-05
2.97144e-05
2.96509e-05
2.95813e-05
2.95057e-05
2.94242e-05
2.93368e-05
2.92436e-05
2.91447e-05
2.90402e-05
2.89302e-05
2.88148e-05
2.86942e-05
2.85683e-05
2.84375e-05
2.83018e-05
2.81612e-05
2.8016e-05
2.78663e-05
2.77122e-05
2.75538e-05
2.73912e-05
2.72246e-05
2.70541e-05
2.68797e-05
2.67017e-05
2.65201e-05
2.63351e-05
2.61467e-05
2.5955e-05
2.57603e-05
2.55625e-05
2.53619e-05
2.51584e-05
2.49522e-05
2.47434e-05
2.45321e-05
2.43184e-05
2.41023e-05
3.003e-05
3.00226e-05
3.00106e-05
2.99937e-05
2.99715e-05
2.99438e-05
2.99104e-05
2.98712e-05
2.9826e-05
2.97749e-05
2.97177e-05
2.96544e-05
2.95852e-05
2.95099e-05
2.94287e-05
2.93415e-05
2.92486e-05
2.915e-05
2.90458e-05
2.8936e-05
2.88209e-05
2.87005e-05
2.85749e-05
2.84443e-05
2.83088e-05
2.81685e-05
2.80235e-05
2.7874e-05
2.77201e-05
2.75618e-05
2.73994e-05
2.7233e-05
2.70626e-05
2.68884e-05
2.67106e-05
2.65291e-05
2.63442e-05
2.6156e-05
2.59645e-05
2.57698e-05
2.55722e-05
2.53716e-05
2.51682e-05
2.49621e-05
2.47534e-05
2.45422e-05
2.43286e-05
2.41126e-05
3.00302e-05
3.00229e-05
3.0011e-05
2.99942e-05
2.99721e-05
2.99446e-05
2.99114e-05
2.98723e-05
2.98273e-05
2.97763e-05
2.97193e-05
2.96562e-05
2.95871e-05
2.9512e-05
2.94309e-05
2.93439e-05
2.92511e-05
2.91527e-05
2.90486e-05
2.89389e-05
2.88239e-05
2.87036e-05
2.85782e-05
2.84477e-05
2.83123e-05
2.81721e-05
2.80272e-05
2.78778e-05
2.7724e-05
2.75659e-05
2.74035e-05
2.72372e-05
2.70669e-05
2.68928e-05
2.6715e-05
2.65336e-05
2.63488e-05
2.61606e-05
2.59692e-05
2.57746e-05
2.5577e-05
2.53765e-05
2.51732e-05
2.49671e-05
2.47584e-05
2.45473e-05
2.43337e-05
2.41178e-05
3.00302e-05
3.00229e-05
3.0011e-05
2.99942e-05
2.99721e-05
2.99446e-05
2.99114e-05
2.98723e-05
2.98273e-05
2.97763e-05
2.97193e-05
2.96562e-05
2.95871e-05
2.95119e-05
2.94309e-05
2.93439e-05
2.92511e-05
2.91526e-05
2.90485e-05
2.89389e-05
2.88239e-05
2.87036e-05
2.85782e-05
2.84477e-05
2.83123e-05
2.81721e-05
2.80272e-05
2.78778e-05
2.7724e-05
2.75659e-05
2.74035e-05
2.72372e-05
2.70669e-05
2.68928e-05
2.6715e-05
2.65336e-05
2.63488e-05
2.61606e-05
2.59692e-05
2.57746e-05
2.5577e-05
2.53765e-05
2.51732e-05
2.49671e-05
2.47584e-05
2.45473e-05
2.43337e-05
2.41178e-05
3.003e-05
3.00226e-05
3.00106e-05
2.99937e-05
2.99714e-05
2.99437e-05
2.99104e-05
2.98711e-05
2.9826e-05
2.97749e-05
2.97177e-05
2.96544e-05
2.95851e-05
2.95099e-05
2.94286e-05
2.93415e-05
2.92486e-05
2.915e-05
2.90458e-05
2.8936e-05
2.88209e-05
2.87005e-05
2.85749e-05
2.84443e-05
2.83088e-05
2.81685e-05
2.80235e-05
2.7874e-05
2.77201e-05
2.75618e-05
2.73994e-05
2.7233e-05
2.70626e-05
2.68884e-05
2.67106e-05
2.65291e-05
2.63442e-05
2.6156e-05
2.59645e-05
2.57698e-05
2.55722e-05
2.53716e-05
2.51682e-05
2.49621e-05
2.47534e-05
2.45422e-05
2.43286e-05
2.41126e-05
3.00297e-05
3.0022e-05
3.00098e-05
2.99925e-05
2.997e-05
2.9942e-05
2.99083e-05
2.98688e-05
2.98234e-05
2.97719e-05
2.97144e-05
2.96509e-05
2.95813e-05
2.95057e-05
2.94242e-05
2.93368e-05
2.92436e-05
2.91447e-05
2.90402e-05
2.89302e-05
2.88148e-05
2.86942e-05
2.85683e-05
2.84375e-05
2.83018e-05
2.81612e-05
2.8016e-05
2.78663e-05
2.77122e-05
2.75538e-05
2.73912e-05
2.72246e-05
2.70541e-05
2.68797e-05
2.67017e-05
2.65201e-05
2.63351e-05
2.61467e-05
2.5955e-05
2.57603e-05
2.55625e-05
2.53619e-05
2.51584e-05
2.49522e-05
2.47434e-05
2.45321e-05
2.43184e-05
2.41023e-05
3.00292e-05
3.00212e-05
3.00085e-05
2.99908e-05
2.99679e-05
2.99394e-05
2.99053e-05
2.98653e-05