/*--------------------------------*- C++ -*----------------------------------*\
  =========                 |
  \\      /  F ield         | OpenFOAM: The Open Source CFD Toolbox
   \\    /   O peration     | Website:  https://openfoam.org
    \\  /    A nd           | Version:  7
     \\/     M anipulation  |
\*---------------------------------------------------------------------------*/
FoamFile
{
    version     2.0;
    format      ascii;
    class       volScalarField;
    location    "32000";
    object      strainRate;
}
// * * * * * * * * * * * * * * * * * * * * * * * * * * * * * * * * * * * * * //

dimensions      [0 0 -1 0 0 0 0];

internalField   nonuniform List<scalar> 
4844
(
6.56451e-05
6.5845e-05
6.60728e-05
6.60035e-05
6.6119e-05
6.62691e-05
6.65076e-05
6.66606e-05
6.67903e-05
6.69074e-05
6.71546e-05
6.64073e-05
6.6447e-05
6.65193e-05
6.66072e-05
6.67084e-05
6.68102e-05
6.69572e-05
6.72925e-05
6.79014e-05
6.84492e-05
6.90973e-05
6.68837e-05
6.68154e-05
6.68321e-05
6.68363e-05
6.69213e-05
6.70561e-05
6.73208e-05
6.77209e-05
6.81895e-05
6.87431e-05
6.9423e-05
7.03153e-05
7.10778e-05
7.1799e-05
7.24494e-05
7.33995e-05
6.74445e-05
6.7341e-05
6.7292e-05
6.73042e-05
6.74345e-05
6.76664e-05
6.80295e-05
6.84607e-05
6.88316e-05
6.93705e-05
7.00056e-05
7.06831e-05
7.13765e-05
7.20432e-05
7.26177e-05
7.34887e-05
6.81849e-05
6.80922e-05
6.80244e-05
6.80627e-05
6.82465e-05
6.85521e-05
6.89457e-05
6.93712e-05
6.97657e-05
7.02912e-05
7.08783e-05
7.1388e-05
7.20036e-05
7.26092e-05
7.31386e-05
7.40221e-05
6.89744e-05
6.8949e-05
6.90328e-05
6.92532e-05
6.95866e-05
6.99869e-05
7.04099e-05
7.0842e-05
7.13577e-05
7.19002e-05
7.23873e-05
7.29529e-05
7.35173e-05
7.40407e-05
7.49856e-05
6.99134e-05
6.99603e-05
7.01078e-05
7.03649e-05
7.07141e-05
7.11181e-05
7.15479e-05
7.20072e-05
7.25168e-05
7.30359e-05
7.3535e-05
7.40788e-05
7.46284e-05
7.5176e-05
7.61913e-05
7.08828e-05
7.10311e-05
7.12499e-05
7.15451e-05
7.19105e-05
7.23225e-05
7.27649e-05
7.3242e-05
7.37506e-05
7.4265e-05
7.47808e-05
7.53233e-05
7.58811e-05
7.64696e-05
7.75465e-05
7.18283e-05
7.19144e-05
7.21673e-05
7.24493e-05
7.2781e-05
7.31654e-05
7.35905e-05
7.40483e-05
7.4539e-05
7.50524e-05
7.55739e-05
7.61071e-05
7.66621e-05
7.72439e-05
7.78798e-05
7.90056e-05
7.29098e-05
7.30679e-05
7.33773e-05
7.37044e-05
7.40686e-05
7.44743e-05
7.49164e-05
7.53909e-05
7.58949e-05
7.64183e-05
7.69539e-05
7.75065e-05
7.80833e-05
7.86984e-05
7.93818e-05
8.05455e-05
7.4179e-05
7.43354e-05
7.46544e-05
7.50132e-05
7.54065e-05
7.58348e-05
7.62963e-05
7.67886e-05
7.73075e-05
7.78456e-05
7.83996e-05
7.89748e-05
7.95797e-05
8.02324e-05
8.09607e-05
8.21544e-05
7.55081e-05
7.56529e-05
7.59855e-05
7.63727e-05
7.67936e-05
7.72457e-05
7.77282e-05
7.82396e-05
7.87757e-05
7.9332e-05
7.99079e-05
8.05089e-05
8.11458e-05
8.18374e-05
8.26073e-05
8.38258e-05
7.70758e-05
7.67573e-05
7.69924e-05
7.73615e-05
7.77802e-05
7.82293e-05
7.87062e-05
7.9211e-05
7.97428e-05
8.02985e-05
8.08759e-05
8.14764e-05
8.21061e-05
8.27773e-05
8.35076e-05
8.4316e-05
8.5556e-05
7.78646e-05
7.79971e-05
7.83594e-05
7.87806e-05
7.9235e-05
7.97135e-05
8.02161e-05
8.07443e-05
8.12979e-05
8.18755e-05
8.24766e-05
8.31039e-05
8.37646e-05
8.44711e-05
8.52393e-05
8.60836e-05
8.73433e-05
7.9346e-05
7.88796e-05
7.93082e-05
7.97706e-05
8.02463e-05
8.07381e-05
8.12468e-05
8.17759e-05
8.23284e-05
8.29053e-05
8.35066e-05
8.41334e-05
8.47895e-05
8.54827e-05
8.62251e-05
8.70302e-05
8.79085e-05
8.91868e-05
8.0175e-05
8.01855e-05
8.07131e-05
8.12407e-05
8.1764e-05
8.22917e-05
8.28304e-05
8.33865e-05
8.39641e-05
8.45656e-05
8.51923e-05
8.58464e-05
8.65329e-05
8.72597e-05
8.8038e-05
8.8879e-05
8.97899e-05
9.10864e-05
8.14057e-05
8.16739e-05
8.2215e-05
8.27782e-05
8.33382e-05
8.38982e-05
8.4466e-05
8.50489e-05
8.56524e-05
8.62796e-05
8.6933e-05
8.7616e-05
8.8334e-05
8.9095e-05
8.9909e-05
9.0785e-05
9.17274e-05
9.3042e-05
8.29655e-05
8.3279e-05
8.38062e-05
8.43853e-05
8.4972e-05
8.55601e-05
8.61553e-05
8.67648e-05
8.73945e-05
8.80483e-05
8.87297e-05
8.94426e-05
9.01929e-05
9.09884e-05
9.18378e-05
9.27479e-05
9.3721e-05
9.50536e-05
8.46555e-05
8.49652e-05
8.54758e-05
8.60612e-05
8.6667e-05
8.72793e-05
8.79001e-05
8.85357e-05
8.91918e-05
8.98729e-05
9.05829e-05
9.13265e-05
9.21097e-05
9.29397e-05
9.38239e-05
9.47673e-05
9.57706e-05
9.71214e-05
8.64023e-05
8.67141e-05
8.72155e-05
8.78042e-05
8.84244e-05
8.90573e-05
8.97019e-05
9.03628e-05
9.10453e-05
9.17541e-05
9.24933e-05
9.32681e-05
9.40842e-05
9.49485e-05
9.5867e-05
9.68432e-05
9.78762e-05
9.92458e-05
8.81914e-05
8.85219e-05
8.90228e-05
8.96138e-05
9.02449e-05
9.08955e-05
9.15619e-05
9.22472e-05
9.29559e-05
9.36924e-05
9.44612e-05
9.52673e-05
9.61164e-05
9.70147e-05
9.79671e-05
9.89759e-05
0.000100039
0.000101429
9.0041e-05
9.03978e-05
9.08999e-05
9.14911e-05
9.21295e-05
9.27947e-05
9.34811e-05
9.41897e-05
9.4924e-05
9.56882e-05
9.64866e-05
9.73242e-05
9.82064e-05
9.91388e-05
0.000100125
0.000101167
0.000102261
0.000103674
9.19911e-05
9.2359e-05
9.28525e-05
9.34376e-05
9.4079e-05
9.47557e-05
9.54599e-05
9.61906e-05
9.69502e-05
9.7742e-05
9.85702e-05
9.94397e-05
0.000100356
0.000101323
0.000102344
0.000103421
0.000104549
0.000105986
9.40884e-05
9.44217e-05
9.48852e-05
9.54546e-05
9.60936e-05
9.67788e-05
9.7499e-05
9.82509e-05
9.90354e-05
9.98551e-05
0.000100714
0.000101616
0.000102567
0.00010357
0.000104629
0.000105743
0.000106907
0.000108375
9.63596e-05
9.659e-05
9.69981e-05
9.75417e-05
9.81738e-05
9.88649e-05
9.95997e-05
0.000100372
0.000101182
0.000102031
0.000102921
0.000103858
0.000104846
0.000105888
0.000106987
0.000108142
0.000109346
0.000110846
9.87804e-05
9.88493e-05
9.91855e-05
9.96976e-05
0.00010032
0.000101016
0.000101765
0.000102559
0.000103395
0.000104274
0.000105199
0.000106173
0.0001072
0.000108285
0.000109427
0.000110624
0.00011187
0.000113402
0.000101262
0.000101169
0.000101438
0.000101921
0.000102535
0.000103236
0.000104
0.000104817
0.000105681
0.000106592
0.000107554
0.000108567
0.000109637
0.000110765
0.000111951
0.000113191
0.000114475
0.000116035
0.000103685
0.000103514
0.000103747
0.000104211
0.000104822
0.000105531
0.000106312
0.000107153
0.000108047
0.000108993
0.000109993
0.000111048
0.00011216
0.000113331
0.000114557
0.000115834
0.000117148
0.000118724
0.000105975
0.000105866
0.000106107
0.000106571
0.000107186
0.000107906
0.000108707
0.000109574
0.000110499
0.00011148
0.000112517
0.000113611
0.000114762
0.000115969
0.000117228
0.00011853
0.00011986
0.000121437
0.000108431
0.00010815
0.000108225
0.000108521
0.000109003
0.00010963
0.000110366
0.000111188
0.00011208
0.000113035
0.000114048
0.000115117
0.000116242
0.000117422
0.000118654
0.000119931
0.000121243
0.000122574
0.000124137
0.000109953
0.000110312
0.000110611
0.000110989
0.000111506
0.000112152
0.000112906
0.000113747
0.000114661
0.000115639
0.000116676
0.000117768
0.000118913
0.000120109
0.00012135
0.00012263
0.000123937
0.000125259
0.000126808
0.000112401
0.000111776
0.000112544
0.000113037
0.000113509
0.000114069
0.000114738
0.000115507
0.000116362
0.000117291
0.000118283
0.000119332
0.000120434
0.000121586
0.000122783
0.000124023
0.000125298
0.000126601
0.000127923
0.000129482
0.000113886
0.000113968
0.00011487
0.000115507
0.000116066
0.000116669
0.000117359
0.000118139
0.000119001
0.000119934
0.000120928
0.000121979
0.00012308
0.00012423
0.000125426
0.000126666
0.000127948
0.000129272
0.000130637
0.000132266
0.00011587
0.000116359
0.000117276
0.000118004
0.000118632
0.000119273
0.000119979
0.000120764
0.000121625
0.000122555
0.000123546
0.000124594
0.000125696
0.000126852
0.000128063
0.000129333
0.000130667
0.000132073
0.00013356
0.000135353
0.000118277
0.000118843
0.000119725
0.0001205
0.000121178
0.000121848
0.000122566
0.000123354
0.000124214
0.000125144
0.000126141
0.000127201
0.000128327
0.000129523
0.000130798
0.000132161
0.000133627
0.00013521
0.000136925
0.000138991
0.000120824
0.000121356
0.000122186
0.000122976
0.000123689
0.000124386
0.000125122
0.000125923
0.000126799
0.000127751
0.000128783
0.000129896
0.0001311
0.000132403
0.000133821
0.000135371
0.000137072
0.00013894
0.000140981
0.000143394
0.000123398
0.000123881
0.000124662
0.000125456
0.000126201
0.000126937
0.000127711
0.000128555
0.000129484
0.000130506
0.000131631
0.000132867
0.000134227
0.000135727
0.000137385
0.000139219
0.000141245
0.000143466
0.000145862
0.000148587
0.000126015
0.000126475
0.000127226
0.000128036
0.000128831
0.000129633
0.000130487
0.000131424
0.000132465
0.000133627
0.000134921
0.000136362
0.000137965
0.000139745
0.000141716
0.000143885
0.000146248
0.000148775
0.000151398
0.000154202
0.00012881
0.000129285
0.000130044
0.0001309
0.000131779
0.000132693
0.000133681
0.000134774
0.000135997
0.000137369
0.000138903
0.000140613
0.000142507
0.00014459
0.000146858
0.000149291
0.000151843
0.000154429
0.000156912
0.000159307
0.000132008
0.000132541
0.000133353
0.000134296
0.000135301
0.000136375
0.000137549
0.00013885
0.000140301
0.000141919
0.00014371
0.000145677
0.000147809
0.000150087
0.00015247
0.000154891
0.00015725
0.000159396
0.000161129
0.000162424
0.000135862
0.000136489
0.000137393
0.000138455
0.000139613
0.00014087
0.000142243
0.000143752
0.000145408
0.000147217
0.000149167
0.000151235
0.000153381
0.000155543
0.000157634
0.000159535
0.000161094
0.00016212
0.000162403
0.000161967
0.000140528
0.000141258
0.000142258
0.000143433
0.000144722
0.000146117
0.00014762
0.000149232
0.000150944
0.00015274
0.000154578
0.000156401
0.000158129
0.000159659
0.000160866
0.000161604
0.000161712
0.000161033
0.000159455
0.000157171
0.000145875
0.000146664
0.000147704
0.000148909
0.000150214
0.000151596
0.000153031
0.000154495
0.000155954
0.000157359
0.000158641
0.00015971
0.000160459
0.000160774
0.000160534
0.000159629
0.000157976
0.000155556
0.000152464
0.000149167
0.000151274
0.000152007
0.00015294
0.000153992
0.000155088
0.000156178
0.000157214
0.000158147
0.00015892
0.000159464
0.000159694
0.00015952
0.000158855
0.000157627
0.000155793
0.000153362
0.000150417
0.000147155
0.000143939
0.000141548
0.000155497
0.000155983
0.000156584
0.000157216
0.000157797
0.000158248
0.000158509
0.000158521
0.000158227
0.000157567
0.000156482
0.000154934
0.000152917
0.000150468
0.000147688
0.000144766
0.00014199
0.000139799
0.000138843
0.000140287
0.000156919
0.000156955
0.000156995
0.000156957
0.000156762
0.000156324
0.000155594
0.00015454
0.000153137
0.000151377
0.00014928
0.000146912
0.000144397
0.00014192
0.000139761
0.00013831
0.00013809
0.000139834
0.000144607
0.000154288
0.000154246
0.000153733
0.000153127
0.000152361
0.000151377
0.000150126
0.000148611
0.000146848
0.000144885
0.000142806
0.000140746
0.000138905
0.00013756
0.000137077
0.000137955
0.000140864
0.000146721
0.000156838
0.000173199
0.000199322
0.00014761
0.000146692
0.000145655
0.000144462
0.000143087
0.000141595
0.000140055
0.000138551
0.000137223
0.000136285
0.000136012
0.000136777
0.000139071
0.000143557
0.000151144
0.000163107
0.000181299
0.000208413
0.000248538
0.00030857
0.000139461
0.000138593
0.000137702
0.000136789
0.00013586
0.000135194
0.000134919
0.000135204
0.00013631
0.000138655
0.000142753
0.000149286
0.000159198
0.000173831
0.000195078
0.000225639
0.000269501
0.000332214
0.00042169
0.000549883
0.000134723
0.000134652
0.000134823
0.000135286
0.000136069
0.000137809
0.000140704
0.000145078
0.000151421
0.000160588
0.000173619
0.000191927
0.000217513
0.000253285
0.000303262
0.00037293
0.000470007
0.00060404
0.00078695
0.00103409
0.000140823
0.000142679
0.000145316
0.000148878
0.000153428
0.000160224
0.000169646
0.0001824
0.000199505
0.000222811
0.000254556
0.000297728
0.000356445
0.000436477
0.000545153
0.000691405
0.00088656
0.00114192
0.00146882
0.0018791
0.000169849
0.000175718
0.000183489
0.000193536
0.000206104
0.000223508
0.000246677
0.000277192
0.000317183
0.000370483
0.000441506
0.000535722
0.000660046
0.000823377
0.00103539
0.00130573
0.00164494
0.00205979
0.00255386
0.00312923
0.000246139
0.000260576
0.000279334
0.000303338
0.000333595
0.000373657
0.000425883
0.000493371
0.000579932
0.000692115
0.000836763
0.00102118
0.0012534
0.00154253
0.00189619
0.00231932
0.00281542
0.00338321
0.00401757
0.00471332
0.000422837
0.000455294
0.000496921
0.00054964
0.000615922
0.000700428
0.000807595
0.000942032
0.00110891
0.00131595
0.00157062
0.0018789
0.00224601
0.0026765
0.00317206
0.00373124
0.00435009
0.00502256
0.00574054
0.00649922
0.00117773
0.00133325
0.00152329
0.00175247
0.00202549
0.00234783
0.00272406
0.00315635
0.00364529
0.00418976
0.00478675
0.00543188
0.00611885
0.00684173
0.00759404
0.00837526
0.00336212
0.00378524
0.00425758
0.00477823
0.00534508
0.00595455
0.00660264
0.00728547
0.00799795
0.00873624
0.00949628
0.0102816
7.90627e-05
7.81871e-05
7.94544e-05
7.88269e-05
8.02159e-05
7.96097e-05
8.13414e-05
8.06067e-05
8.06163e-05
8.26693e-05
8.17718e-05
8.14344e-05
8.41331e-05
8.31132e-05
8.25003e-05
8.30024e-05
8.57065e-05
8.45952e-05
8.38754e-05
8.38564e-05
8.73783e-05
8.62035e-05
8.54313e-05
8.50158e-05
8.91421e-05
8.79256e-05
8.71118e-05
8.64955e-05
8.66399e-05
9.09927e-05
8.97512e-05
8.89133e-05
8.82142e-05
8.79177e-05
9.29244e-05
9.16701e-05
9.08256e-05
9.01387e-05
8.97219e-05
9.49313e-05
9.36707e-05
9.28287e-05
9.21838e-05
9.18906e-05
9.7008e-05
9.57421e-05
9.48998e-05
9.42826e-05
9.40901e-05
9.91513e-05
9.78764e-05
9.70217e-05
9.63917e-05
9.6172e-05
0.000101362
0.000100071
9.91875e-05
9.8503e-05
9.81275e-05
9.84488e-05
0.000103642
0.000102327
0.0001014
0.000100633
0.000100058
9.98032e-05
0.000106
0.000104652
0.000103668
0.000102804
0.00010205
0.000101354
0.000102205
0.000108436
0.000107049
0.000106002
0.000105036
0.000104126
0.000103203
0.000103155
0.000104031
0.000110948
0.000109517
0.000108403
0.00010734
0.000106298
0.000105239
0.000104538
0.000104815
0.000105348
0.000113519
0.000112046
0.000110865
0.000109713
0.000108562
0.000107398
0.0001064
0.000106043
0.000106166
0.000106251
0.000116121
0.00011461
0.00011337
0.000112141
0.000110902
0.000109654
0.000108506
0.000107791
0.000107432
0.000107373
0.00011872
0.000117183
0.000115895
0.000114604
0.000113297
0.000111984
0.000110751
0.000109826
0.000109215
0.000108897
0.0001213
0.000119747
0.000118429
0.000117095
0.000115739
0.000114381
0.000113097
0.000112047
0.000111289
0.000110847
0.00012389
0.00012233
0.000120995
0.000119637
0.000118255
0.000116871
0.000115557
0.000114434
0.000113586
0.000113059
0.000126604
0.000125027
0.00012368
0.000122312
0.000120921
0.000119529
0.000118203
0.000117042
0.000116134
0.000115535
0.000129653
0.000128026
0.00012665
0.000125271
0.000123877
0.000122487
0.000121162
0.000119985
0.000119039
0.000118378
0.000133327
0.000131588
0.000130139
0.000128718
0.000127305
0.000125913
0.000124589
0.000123406
0.000122436
0.000121725
0.000137912
0.000135979
0.000134379
0.000132851
0.000131373
0.000129946
0.000128605
0.000127406
0.000126412
0.000125659
0.000143527
0.000141321
0.000139471
0.000137743
0.000136118
0.00013459
0.000133182
0.000131934
0.000130894
0.000130089
0.000149886
0.000147378
0.000145196
0.000143166
0.000141292
0.000139571
0.000138015
0.000136652
0.000135513
0.000134614
0.000156056
0.000153332
0.000150816
0.000148429
0.000146223
0.000144214
0.000142417
0.00014085
0.000139532
0.000138461
0.000161307
0.000158619
0.000155927
0.00015325
0.000150714
0.000148376
0.00014627
0.00014442
0.000142836
0.000141506
7.8875e-05
7.92099e-05
7.99515e-05
8.1101e-05
8.24722e-05
8.39806e-05
8.55904e-05
8.7287e-05
8.90642e-05
9.09182e-05
9.28459e-05
9.4844e-05
9.69095e-05
9.90413e-05
0.000101241
0.000103512
0.000105862
0.000108296
0.000110813
0.0001134
0.000116029
0.000118664
0.000121275
0.00012387
0.000126533
0.000129456
0.00013293
0.000137278
0.000142692
0.000148977
0.000155258
0.000160778
7.80784e-05
7.84663e-05
7.91903e-05
8.02869e-05
8.16039e-05
8.30687e-05
8.46442e-05
8.63108e-05
8.80581e-05
8.98802e-05
9.17733e-05
9.37346e-05
9.57619e-05
9.78538e-05
0.000100011
0.000102237
0.000104538
0.000106922
0.000109393
0.00011195
0.000114576
0.000117241
0.000119905
0.000122537
0.000125151
0.000127838
0.000130799
0.000134338
0.000138788
0.000144349
0.000150827
0.000157293
0.000162859
7.74191e-05
7.78561e-05
7.8602e-05
7.96914e-05
8.09821e-05
8.24118e-05
8.39501e-05
8.55802e-05
8.72919e-05
8.90789e-05
9.09366e-05
9.28619e-05
9.48522e-05
9.69059e-05
9.90225e-05
0.000101204
0.000103455
0.000105783
0.000108196
0.0001107
0.00011329
0.000115948
0.000118642
0.00012133
0.000123982
0.00012661
0.000129298
0.000132228
0.000135667
0.00013992
0.000145215
0.000151546
0.000158469
0.000164946
0.000169267
0.000169349
0.00016373
0.000153946
7.67548e-05
7.72136e-05
7.79776e-05
7.9073e-05
8.03565e-05
8.17684e-05
8.32815e-05
8.4882e-05
8.65617e-05
8.83154e-05
9.01393e-05
9.20303e-05
9.39861e-05
9.60045e-05
9.80846e-05
0.000100227
0.000102434
0.000104712
0.000107069
0.000109516
0.000112055
0.000114681
0.000117371
0.000120087
0.000122783
0.000125426
0.00012803
0.000130696
0.000133635
0.000137167
0.000141655
0.000147365
0.00015423
0.000161551
0.000167744
0.000170444
0.000167348
0.000158794
7.61383e-05
7.65944e-05
7.73593e-05
7.84529e-05
7.97299e-05
8.11293e-05
8.26243e-05
8.4202e-05
8.58552e-05
8.75798e-05
8.93728e-05
9.12319e-05
9.31552e-05
9.51409e-05
9.71874e-05
9.92943e-05
0.000101463
0.000103698
0.000106007
0.0001084
0.000110886
0.000113466
0.000116128
0.000118843
0.000121562
0.000124235
0.000126839
0.000129417
0.000132121
0.000135237
0.000139147
0.000144229
0.000150642
0.000158012
0.000165086
0.000169605
0.000168851
0.000162144
7.55807e-05
7.60237e-05
7.67773e-05
7.78587e-05
7.9122e-05
8.05057e-05
8.19825e-05
8.3539e-05
8.51684e-05
8.68668e-05
8.86318e-05
9.04615e-05
9.23546e-05
9.43094e-05
9.63247e-05
9.83995e-05
0.000100534
0.000102732
0.000104999
0.000107345
0.00010978
0.000112311
0.000114934
0.000117626
0.000120345
0.000123039
0.000125663
0.000128226
0.00013083
0.000133706
0.000137205
0.000141721
0.000147522
0.000154477
0.000161735
0.000167522
0.000169393
0.000165272
0.00015612
7.50749e-05
7.55059e-05
7.62441e-05
7.73069e-05
7.85498e-05
7.9912e-05
8.13663e-05
8.28995e-05
8.45044e-05
8.61772e-05
8.79153e-05
8.97172e-05
9.15817e-05
9.35075e-05
9.54935e-05
9.75384e-05
9.96423e-05
0.000101807
0.000104038
0.000106342
0.000108733
0.000111217
0.000113796
0.000116457
0.000119162
0.000121861
0.000124502
0.000127067
0.000129621
0.000132348
0.000135566
0.000139677
0.000145025
0.000151661
0.00015901
0.000165579
0.000168989
0.000166748
0.000158839
7.4616e-05
7.5041e-05
7.57643e-05
7.6805e-05
7.80221e-05
7.93571e-05
8.07839e-05
8.22898e-05
8.38678e-05
8.55137e-05
8.72249e-05
8.89996e-05
9.08365e-05
9.27346e-05
9.46927e-05
9.67096e-05
9.87848e-05
0.000100919
0.000103117
0.000105386
0.000107736
0.000110178
0.000112716
0.000115342
0.000118026
0.00012072
0.000123369
0.000125938
0.000128463
0.000131089
0.000134105
0.000137907
0.00014289
0.000149232
0.000156573
0.000163662
0.000168242
0.000167597
0.000161008
7.42133e-05
7.46385e-05
7.5345e-05
7.63577e-05
7.75419e-05
7.88429e-05
8.02369e-05
8.17116e-05
8.32602e-05
8.48779e-05
8.65616e-05
8.83094e-05
9.01196e-05
9.19912e-05
9.39228e-05
9.59132e-05
9.79616e-05
0.000100068
0.000102237
0.000104473
0.000106787
0.00010919
0.00011169
0.000114281
0.000116941
0.000119625
0.000122276
0.000124849
0.000127356
0.000129911
0.000132771
0.000136321
0.000140986
0.000147039
0.000154291
0.000161716
0.000167224
0.000168006
0.000162811
7.38992e-05
7.43256e-05
7.50019e-05
7.59697e-05
7.71068e-05
7.83644e-05
7.97199e-05
8.11607e-05
8.26786e-05
8.4268e-05
8.59249e-05
8.76466e-05
8.94314e-05
9.12777e-05
9.31844e-05
9.515e-05
9.71735e-05
9.92547e-05
0.000101396
0.000103603
0.000105885
0.000108253
0.000110716
0.000113275
0.000115909
0.00011858
0.00012123
0.000123806
0.000126303
0.000128807
0.000131545
0.000134884
0.000139265
0.000145029
0.000152129
0.000159743
0.000165973
0.000168012
0.000164228
7.37686e-05
7.4182e-05
7.47547e-05
7.56365e-05
7.67021e-05
7.79061e-05
7.9221e-05
8.0629e-05
8.21185e-05
8.36817e-05
8.53137e-05
8.70113e-05
8.87723e-05
9.05953e-05
9.24787e-05
9.44213e-05
9.64217e-05
9.84795e-05
0.000100596
0.000102777
0.000105029
0.000107366
0.000109796
0.000112322
0.000114931
0.000117586
0.000120233
0.000122813
0.000125306
0.000127774
0.000130417
0.00013358
0.000137707
0.000143189
0.000150093
0.000157779
0.000164545
0.000167659
0.000165234
7.44488e-05
7.47445e-05
7.53326e-05
7.62912e-05
7.7446e-05
7.87312e-05
8.0115e-05
8.15814e-05
8.31218e-05
8.47311e-05
8.64063e-05
8.81452e-05
8.99464e-05
9.18083e-05
9.37296e-05
9.57088e-05
9.77451e-05
9.98394e-05
0.000101996
0.000104222
0.000106529
0.000108929
0.000111426
0.000114009
0.000116648
0.000119289
0.000121872
0.000124365
0.00012681
0.00012938
0.000132397
0.000136301
0.000141516
0.000148199
0.000155867
0.000163012
0.000167016
0.000165846
7.50882e-05
7.53691e-05
7.60366e-05
7.7072e-05
7.83004e-05
7.96485e-05
8.10865e-05
8.26012e-05
8.41865e-05
8.58388e-05
8.75558e-05
8.93359e-05
9.11773e-05
9.30786e-05
9.50381e-05
9.70546e-05
9.91285e-05
0.000101263
0.000103466
0.000105747
0.000108118
0.000110587
0.000113146
0.000115767
0.000118401
0.000120987
0.000123481
0.000125912
0.000128427
0.000131325
0.000135036
0.000140005
0.000146458
0.000154046
0.000161439
0.000166162
0.000166112
7.52304e-05
7.55209e-05
7.60379e-05
7.69223e-05
7.80278e-05
7.92894e-05
8.06679e-05
8.214e-05
8.36924e-05
8.53176e-05
8.70108e-05
8.87692e-05
9.05905e-05
9.24725e-05
9.44133e-05
9.64114e-05
9.84666e-05
0.000100581
0.000102762
0.00010502
0.000107366
0.000109808
0.000112343
0.000114948
0.000117573
0.000120159
0.000122657
0.00012508
0.000127554
0.000130356
0.000133903
0.00013865
0.000144877
0.000152345
0.000159884
0.000165169
0.000166093
7.58258e-05
7.61296e-05
7.67824e-05
7.77878e-05
7.89859e-05
8.03122e-05
8.17395e-05
8.32542e-05
8.48479e-05
8.65149e-05
8.82506e-05
9.00516e-05
9.1915e-05
9.38382e-05
9.58191e-05
9.78569e-05
9.99536e-05
0.000102115
0.000104351
0.000106673
0.000109092
0.000111605
0.000114192
0.000116808
0.000119393
0.000121895
0.000124314
0.000126757
0.000129483
0.000132891
0.000137443
0.000143456
0.00015078
0.000158389
0.000164104
0.000165855
7.5958e-05
7.6309e-05
7.6838e-05
7.77048e-05
7.87829e-05
8.0022e-05
8.13893e-05
8.28622e-05
8.44249e-05
8.60671e-05
8.77817e-05
8.95638e-05
9.14096e-05
9.33162e-05
9.52809e-05
9.73026e-05
9.93826e-05
0.000101526
0.000103743
0.000106044
0.00010844
0.000110932
0.000113502
0.000116108
0.000118691
0.000121196
0.000123613
0.000126036
0.0001287
0.000131994
0.000136375
0.000142191
0.000149364
0.000156987
0.000163023
0.00016546
7.67431e-05
7.70136e-05
7.75826e-05
7.85423e-05
7.97226e-05
8.10551e-05
8.25031e-05
8.40451e-05
8.56684e-05
8.73653e-05
8.91303e-05
9.09599e-05
9.28507e-05
9.48e-05
9.68066e-05
9.88711e-05
0.000100998
0.000103197
0.000105479
0.000107855
0.000110327
0.000112881
0.000115477
0.000118057
0.000120563
0.00012298
0.000125387
0.000128004
0.000131202
0.000135438
0.000141077
0.000148099
0.0001557
0.000161968
0.000164967
7.74193e-05
7.76855e-05
7.83701e-05
7.94577e-05
8.07596e-05
8.21926e-05
8.37208e-05
8.53287e-05
8.70089e-05
8.87572e-05
9.05703e-05
9.24453e-05
9.43794e-05
9.63711e-05
9.84207e-05
0.000100532
0.000102714
0.000104979
0.000107336
0.000109791
0.000112329
0.000114914
0.00011749
0.000119998
0.000122416
0.000124811
0.000127391
0.000130512
0.000134623
0.000140107
0.000146986
0.000154542
0.000160973
0.000164424
7.7439e-05
7.77503e-05
7.83833e-05
7.93907e-05
8.06208e-05
8.1999e-05
8.34871e-05
8.50646e-05
8.67204e-05
8.8448e-05
9.02427e-05
9.2101e-05
9.40196e-05
9.59965e-05
9.80318e-05
0.000100129
0.000102296
0.000104544
0.000106885
0.000109323
0.000111846
0.000114422
0.000116993
0.000119501
0.00012192
0.000124307
0.000126858
0.000129916
0.000133925
0.000139275
0.000146024
0.000153521
0.000160065
0.000163874
7.72944e-05
7.77016e-05
7.83657e-05
7.93566e-05
8.0547e-05
8.18798e-05
8.33259e-05
8.4868e-05
8.64949e-05
8.81986e-05
8.99732e-05
9.1814e-05
9.37171e-05
9.56798e-05
9.77015e-05
9.97852e-05
0.000101938
0.000104172
0.000106498
0.000108922
0.000111433
0.000113999
0.000116566
0.000119074
0.000121493
0.000123875
0.000126403
0.000129411
0.000133337
0.000138574
0.000145208
0.000152644
0.000159261
0.000163349
7.72426e-05
7.77095e-05
7.83533e-05
7.93162e-05
8.04708e-05
8.17708e-05
8.31884e-05
8.47056e-05
8.63103e-05
8.79942e-05
8.97513e-05
9.15765e-05
9.34656e-05
9.54157e-05
9.74256e-05
9.94979e-05
0.00010164
0.000103862
0.000106176
0.000108587
0.000111088
0.000113645
0.000116208
0.000118715
0.000121135
0.000123513
0.000126024
0.000128994
0.000132852
0.000137997
0.000144535
0.000151913
0.000158575
0.000162876
7.80529e-05
7.8472e-05
7.92334e-05
8.03441e-05
8.16394e-05
8.30537e-05
8.45621e-05
8.61542e-05
8.78242e-05
8.95679e-05
9.13809e-05
9.32591e-05
9.51993e-05
9.72002e-05
9.92637e-05
0.000101397
0.00010361
0.000105914
0.000108316
0.000110808
0.00011336
0.000115919
0.000118426
0.000120846
0.000123222
0.000125721
0.000128661
0.000132468
0.000137541
0.000144001
0.000151328
0.000158017
0.000162475
7.83007e-05
7.87425e-05
7.94025e-05
8.04093e-05
8.16209e-05
8.2981e-05
8.4457e-05
8.60293e-05
8.7686e-05
8.94194e-05
9.1224e-05
9.30949e-05
9.50286e-05
9.70236e-05
9.90814e-05
0.000101209
0.000103415
0.000105714
0.00010811
0.000110596
0.000113143
0.0001157
0.000118207
0.000120628
0.000123002
0.000125492
0.000128411
0.000132181
0.000137202
0.000143602
0.000150889
0.000157594
0.000162162
7.92872e-05
7.96989e-05
8.04663e-05
8.15986e-05
8.29279e-05
8.43851e-05
8.59423e-05
8.75869e-05
8.93112e-05
9.1109e-05
9.29752e-05
9.49053e-05
9.68972e-05
9.89523e-05
0.000101077
0.00010328
0.000105575
0.000107967
0.00011045
0.000112995
0.00011555
0.000118057
0.000120479
0.000122853
0.000125338
0.000128244
0.000131989
0.000136975
0.000143337
0.000150595
0.000157309
0.000161947
7.96682e-05
8.00927e-05
8.07441e-05
8.17548e-05
8.29855e-05
8.43801e-05
8.59031e-05
8.75308e-05
8.92473e-05
9.10416e-05
9.2906e-05
9.48352e-05
9.68263e-05
9.88807e-05
0.000101004
0.000103207
0.0001055
0.000107891
0.000110373
0.000112917
0.000115473
0.00011798
0.000120402
0.000122776
0.000125259
0.000128158
0.000131892
0.000136861
0.000143203
0.000150448
0.000157164
0.000161837
8.06999e-05
8.10707e-05
8.18317e-05
8.29926e-05
8.43744e-05
8.58975e-05
8.75256e-05
8.92413e-05
9.10343e-05
9.28976e-05
9.48261e-05
9.68172e-05
9.88718e-05
0.000100996
0.000103199
0.000105493
0.000107885
0.000110367
0.000112912
0.000115468
0.000117976
0.000120399
0.000122772
0.000125255
0.000128155
0.000131889
0.000136857
0.0001432
0.000150445
0.000157163
0.000161836
8.0976e-05
8.1347e-05
8.20538e-05
8.3155e-05
8.44926e-05
8.59878e-05
8.76e-05
8.93069e-05
9.10951e-05
9.29559e-05
9.48833e-05
9.68742e-05
9.89293e-05
0.000101054
0.000103259
0.000105555
0.000107949
0.000110434
0.00011298
0.000115538
0.000118046
0.000120469
0.000122843
0.000125328
0.000128234
0.00013198
0.000136966
0.000143329
0.000150588
0.000157304
0.000161944
8.11172e-05
8.15284e-05
8.22463e-05
8.33403e-05
8.46629e-05
8.61428e-05
8.77425e-05
8.94405e-05
9.1223e-05
9.30805e-05
9.50065e-05
9.69973e-05
9.90534e-05
0.00010118
0.000103388
0.000105688
0.000108085
0.000110573
0.000113123
0.000115682
0.00011819
0.000120612
0.000122987
0.000125478
0.000128397
0.000132167
0.000137187
0.000143589
0.000150878
0.000157586
0.000162158
8.12306e-05
8.16749e-05
8.24162e-05
8.35232e-05
8.4851e-05
8.63315e-05
8.79296e-05
8.96256e-05
9.14067e-05
9.32637e-05
9.51902e-05
9.71824e-05
9.9241e-05
0.000101371
0.000103583
0.000105888
0.000108292
0.000110785
0.000113339
0.0001159
0.000118408
0.00012083
0.000123206
0.000125704
0.000128644
0.00013245
0.000137523
0.000143984
0.000151314
0.000158009
0.000162472
8.1366e-05
8.18319e-05
8.25934e-05
8.37171e-05
8.50575e-05
8.65468e-05
8.81513e-05
8.98521e-05
9.16372e-05
9.34979e-05
9.54281e-05
9.74245e-05
9.94879e-05
0.000101624
0.000103843
0.000106155
0.000108566
0.000111067
0.000113626
0.00011619
0.000118699
0.000121119
0.000123497
0.000126007
0.000128975
0.000132832
0.000137977
0.000144516
0.000151898
0.000158566
0.000162874
8.15421e-05
8.20217e-05
8.27991e-05
8.39381e-05
8.52923e-05
8.67936e-05
8.84084e-05
9.01182e-05
9.19112e-05
9.37793e-05
9.57166e-05
9.77202e-05
9.97912e-05
0.000101936
0.000104164
0.000106486
0.000108908
0.000111418
0.000113984
0.000116551
0.00011906
0.000121478
0.000123859
0.000126385
0.000129391
0.000133315
0.000138551
0.000145188
0.000152629
0.000159253
0.000163349
8.17639e-05
8.22536e-05
8.30439e-05
8.41966e-05
8.55642e-05
8.70783e-05
8.8705e-05
9.04259e-05
9.22295e-05
9.41075e-05
9.60545e-05
9.80678e-05
0.000100149
0.000102304
0.000104545
0.00010688
0.000109315
0.000111837
0.000114411
0.000116982
0.00011949
0.000121907
0.000124293
0.00012684
0.000129895
0.000133902
0.000139251
0.000146002
0.000153506
0.000160058
0.000163876
8.20315e-05
8.253e-05
8.3332e-05
8.44977e-05
8.58785e-05
8.74055e-05
8.9045e-05
9.07783e-05
9.25939e-05
9.44837e-05
9.64424e-05
9.84676e-05
0.000100561
0.00010273
0.000104985
0.000107336
0.000109786
0.000112321
0.000114905
0.000117481
0.000119987
0.000122403
0.000124796
0.000127372
0.000130489
0.000134598
0.000140081
0.000146963
0.000154526
0.000160968
0.000164428
8.23432e-05
8.28505e-05
8.36643e-05
8.4843e-05
8.62371e-05
8.77777e-05
8.94305e-05
9.11772e-05
9.30061e-05
9.49091e-05
9.6881e-05
9.89199e-05
0.000101028
0.000103213
0.000105485
0.000107854
0.000110322
0.000112872
0.000115467
0.000118046
0.000120551
0.000122967
0.00012537
0.000127983
0.000131177
0.000135409
0.000141047
0.000148074
0.000155683
0.000161963
0.000164973
8.26969e-05
8.32137e-05
8.40399e-05
8.52324e-05
8.66405e-05
8.81953e-05
8.98625e-05
9.16235e-05
9.34668e-05
9.53843e-05
9.7371e-05
9.94253e-05
0.00010155
0.000103753
0.000106044
0.000108434
0.000110922
0.000113489
0.000116094
0.000118677
0.00012118
0.000123596
0.000126014
0.000128674
0.000131963
0.000136341
0.000142157
0.000149336
0.00015697
0.000163019
0.000165468
8.30907e-05
8.36179e-05
8.44575e-05
8.56647e-05
8.70879e-05
8.86579e-05
9.03406e-05
9.21172e-05
9.39761e-05
9.59095e-05
9.79125e-05
9.99839e-05
0.000102127
0.00010435
0.000106663
0.000109076
0.000111586
0.000114171
0.000116787
0.000119372
0.000121873
0.00012429
0.00012673
0.000129451
0.000132855
0.000137403
0.000143418
0.000150749
0.000158371
0.000164101
0.000165864
8.35227e-05
8.40614e-05