/*--------------------------------*- C++ -*----------------------------------*\
  =========                 |
  \\      /  F ield         | OpenFOAM: The Open Source CFD Toolbox
   \\    /   O peration     | Website:  https://openfoam.org
    \\  /    A nd           | Version:  7
     \\/     M anipulation  |
\*---------------------------------------------------------------------------*/
FoamFile
{
    version     2.0;
    format      ascii;
    class       volScalarField;
    location    "96000";
    object      p;
}
// * * * * * * * * * * * * * * * * * * * * * * * * * * * * * * * * * * * * * //

dimensions      [0 2 -2 0 0 0 0];

internalField   nonuniform List<scalar> 
4814
(
-1.46229e-18
-1.45827e-18
-1.4566e-18
-1.45311e-18
-1.46774e-18
-1.46359e-18
-1.46293e-18
-1.45878e-18
-1.45473e-18
-1.4541e-18
-1.4595e-18
-1.45606e-18
-1.46418e-18
-1.45865e-18
-1.47181e-18
-1.46117e-18
-1.46281e-18
-1.4553e-18
-1.46421e-18
-1.45609e-18
-1.45876e-18
-1.45043e-18
-1.45732e-18
-1.44861e-18
-1.44977e-18
-1.44248e-18
-1.44294e-18
-1.43588e-18
-1.43548e-18
-1.43111e-18
-1.43048e-18
-1.42713e-18
-1.42493e-18
-1.41876e-18
-1.41497e-18
-1.41246e-18
-1.41761e-18
-1.41273e-18
-1.47189e-18
-1.46126e-18
-1.46326e-18
-1.45571e-18
-1.45541e-18
-1.45969e-18
-1.45577e-18
-1.45321e-18
-1.46532e-18
-1.45765e-18
-1.47181e-18
-1.45673e-18
-1.46679e-18
-1.45719e-18
-1.46404e-18
-1.45551e-18
-1.4585e-18
-1.45097e-18
-1.4564e-18
-1.44858e-18
-1.45009e-18
-1.44302e-18
-1.44297e-18
-1.43589e-18
-1.43415e-18
-1.43097e-18
-1.43158e-18
-1.42726e-18
-1.42285e-18
-1.41842e-18
-1.41679e-18
-1.41248e-18
-1.41659e-18
-1.41233e-18
-1.41346e-18
-1.40959e-18
-1.40986e-18
-1.39951e-18
-1.40569e-18
-1.40347e-18
-1.40018e-18
-1.47056e-18
-1.46291e-18
-1.46086e-18
-1.45468e-18
-1.4553e-18
-1.45859e-18
-1.45543e-18
-1.45369e-18
-1.46164e-18
-1.45811e-18
-1.47014e-18
-1.45669e-18
-1.46896e-18
-1.45713e-18
-1.46237e-18
-1.45437e-18
-1.45804e-18
-1.44879e-18
-1.45609e-18
-1.4477e-18
-1.44965e-18
-1.44403e-18
-1.44277e-18
-1.43667e-18
-1.43552e-18
-1.43028e-18
-1.43028e-18
-1.42739e-18
-1.42349e-18
-1.41835e-18
-1.41778e-18
-1.41352e-18
-1.41749e-18
-1.41245e-18
-1.41456e-18
-1.41145e-18
-1.4131e-18
-1.39653e-18
-1.40816e-18
-1.40523e-18
-1.40067e-18
-1.40554e-18
-1.41057e-18
-1.40458e-18
-1.46614e-18
-1.4651e-18
-1.45952e-18
-1.45856e-18
-1.45617e-18
-1.45605e-18
-1.45958e-18
-1.45662e-18
-1.4601e-18
-1.46153e-18
-1.46913e-18
-1.45908e-18
-1.46481e-18
-1.45622e-18
-1.46285e-18
-1.45319e-18
-1.45791e-18
-1.44812e-18
-1.45457e-18
-1.44914e-18
-1.44979e-18
-1.44318e-18
-1.44208e-18
-1.43558e-18
-1.4361e-18
-1.42853e-18
-1.4298e-18
-1.42752e-18
-1.42463e-18
-1.41903e-18
-1.41721e-18
-1.41527e-18
-1.41815e-18
-1.41227e-18
-1.41591e-18
-1.41248e-18
-1.41199e-18
-1.40268e-18
-1.40632e-18
-1.40569e-18
-1.40135e-18
-1.40846e-18
-1.40718e-18
-1.40205e-18
-1.46851e-18
-1.46262e-18
-1.46128e-18
-1.45779e-18
-1.45797e-18
-1.45162e-18
-1.45782e-18
-1.45284e-18
-1.46181e-18
-1.45966e-18
-1.46946e-18
-1.4606e-18
-1.46332e-18
-1.45702e-18
-1.46718e-18
-1.45424e-18
-1.45609e-18
-1.44967e-18
-1.45467e-18
-1.44898e-18
-1.44969e-18
-1.44487e-18
-1.44245e-18
-1.43449e-18
-1.43594e-18
-1.42959e-18
-1.42935e-18
-1.42739e-18
-1.42449e-18
-1.41942e-18
-1.41741e-18
-1.41493e-18
-1.41707e-18
-1.41356e-18
-1.4145e-18
-1.41071e-18
-1.4087e-18
-1.40388e-18
-1.40752e-18
-1.40665e-18
-1.40345e-18
-1.40692e-18
-1.40902e-18
-1.40402e-18
-1.46864e-18
-1.46042e-18
-1.4601e-18
-1.45855e-18
-1.45598e-18
-1.45577e-18
-1.45757e-18
-1.45124e-18
-1.46617e-18
-1.4585e-18
-1.46939e-18
-1.45935e-18
-1.46507e-18
-1.45773e-18
-1.46512e-18
-1.45273e-18
-1.4578e-18
-1.44866e-18
-1.45555e-18
-1.44731e-18
-1.44938e-18
-1.44377e-18
-1.44433e-18
-1.43512e-18
-1.43557e-18
-1.43084e-18
-1.42967e-18
-1.42653e-18
-1.42511e-18
-1.42103e-18
-1.41636e-18
-1.41483e-18
-1.41777e-18
-1.41283e-18
-1.41586e-18
-1.41291e-18
-1.40671e-18
-1.40233e-18
-1.40775e-18
-1.40614e-18
-1.40427e-18
-1.40253e-18
-1.41061e-18
-1.40361e-18
-1.46809e-18
-1.46389e-18
-1.46214e-18
-1.45861e-18
-1.45472e-18
-1.45541e-18
-1.45678e-18
-1.45322e-18
-1.46266e-18
-1.45823e-18
-1.46988e-18
-1.45974e-18
-1.46899e-18
-1.455e-18
-1.46272e-18
-1.45287e-18
-1.45616e-18
-1.4476e-18
-1.45503e-18
-1.44709e-18
-1.45009e-18
-1.4434e-18
-1.44403e-18
-1.43569e-18
-1.43499e-18
-1.43157e-18
-1.42901e-18
-1.42518e-18
-1.42524e-18
-1.41993e-18
-1.41727e-18
-1.41592e-18
-1.41777e-18
-1.41401e-18
-1.416e-18
-1.41459e-18
-1.41027e-18
-1.40363e-18
-1.40752e-18
-1.4047e-18
-1.40271e-18
-1.40443e-18
-1.41001e-18
-1.40325e-18
-1.40714e-18
-1.467e-18
-1.46407e-18
-1.46336e-18
-1.45654e-18
-1.45673e-18
-1.45325e-18
-1.45705e-18
-1.4551e-18
-1.46077e-18
-1.4586e-18
-1.47103e-18
-1.45818e-18
-1.4657e-18
-1.45482e-18
-1.46443e-18
-1.45177e-18
-1.45885e-18
-1.4491e-18
-1.45435e-18
-1.44753e-18
-1.4501e-18
-1.44253e-18
-1.44448e-18
-1.43645e-18
-1.43539e-18
-1.43274e-18
-1.42885e-18
-1.42671e-18
-1.42492e-18
-1.41956e-18
-1.4172e-18
-1.41625e-18
-1.41802e-18
-1.41207e-18
-1.41568e-18
-1.41178e-18
-1.41001e-18
-1.40346e-18
-1.4108e-18
-1.40375e-18
-1.40279e-18
-1.40673e-18
-1.40889e-18
-1.40241e-18
-1.40979e-18
-1.46624e-18
-1.46456e-18
-1.46251e-18
-1.45755e-18
-1.45727e-18
-1.45134e-18
-1.45545e-18
-1.45301e-18
-1.46087e-18
-1.45846e-18
-1.4692e-18
-1.46031e-18
-1.46358e-18
-1.45878e-18
-1.4646e-18
-1.45223e-18
-1.45948e-18
-1.45026e-18
-1.45651e-18
-1.44839e-18
-1.44947e-18
-1.44257e-18
-1.44358e-18
-1.43624e-18
-1.43556e-18
-1.43204e-18
-1.42962e-18
-1.42703e-18
-1.42485e-18
-1.41964e-18
-1.41782e-18
-1.41449e-18
-1.41623e-18
-1.41244e-18
-1.4138e-18
-1.41053e-18
-1.40716e-18
-1.40392e-18
-1.4083e-18
-1.40686e-18
-1.40407e-18
-1.4064e-18
-1.40996e-18
-1.40474e-18
-1.41032e-18
-1.46703e-18
-1.4624e-18
-1.46147e-18
-1.45905e-18
-1.4559e-18
-1.45266e-18
-1.45554e-18
-1.45202e-18
-1.46198e-18
-1.45881e-18
-1.46728e-18
-1.45936e-18
-1.46454e-18
-1.45849e-18
-1.4646e-18
-1.45282e-18
-1.46094e-18
-1.44886e-18
-1.45552e-18
-1.4467e-18
-1.44922e-18
-1.44326e-18
-1.44477e-18
-1.43578e-18
-1.4355e-18
-1.43112e-18
-1.42946e-18
-1.42644e-18
-1.42343e-18
-1.42005e-18
-1.41921e-18
-1.41556e-18
-1.41708e-18
-1.41155e-18
-1.41467e-18
-1.41086e-18
-1.40782e-18
-1.40368e-18
-1.40708e-18
-1.40835e-18
-1.40432e-18
-1.40542e-18
-1.41081e-18
-1.40471e-18
-1.40905e-18
-1.46556e-18
-1.46234e-18
-1.46222e-18
-1.45926e-18
-1.45707e-18
-1.45413e-18
-1.45711e-18
-1.45343e-18
-1.46109e-18
-1.45794e-18
-1.46601e-18
-1.45978e-18
-1.46358e-18
-1.4574e-18
-1.46099e-18
-1.45244e-18
-1.46037e-18
-1.45005e-18
-1.45538e-18
-1.44567e-18
-1.44945e-18
-1.44346e-18
-1.44376e-18
-1.43497e-18
-1.43558e-18
-1.43098e-18
-1.43085e-18
-1.42663e-18
-1.42382e-18
-1.42087e-18
-1.41982e-18
-1.41549e-18
-1.41586e-18
-1.41261e-18
-1.41685e-18
-1.41412e-18
-1.4089e-18
-1.40384e-18
-1.40774e-18
-1.40747e-18
-1.40561e-18
-1.40594e-18
-1.40967e-18
-1.4019e-18
-1.47004e-18
-1.46466e-18
-1.46065e-18
-1.45897e-18
-1.45648e-18
-1.45228e-18
-1.45611e-18
-1.45467e-18
-1.45872e-18
-1.45996e-18
-1.46712e-18
-1.45838e-18
-1.46446e-18
-1.45567e-18
-1.46133e-18
-1.45276e-18
-1.4585e-18
-1.44902e-18
-1.45542e-18
-1.44612e-18
-1.45015e-18
-1.44287e-18
-1.44293e-18
-1.43521e-18
-1.43599e-18
-1.43159e-18
-1.43072e-18
-1.42638e-18
-1.42494e-18
-1.42101e-18
-1.41999e-18
-1.41508e-18
-1.41725e-18
-1.41372e-18
-1.41698e-18
-1.41508e-18
-1.41206e-18
-1.40512e-18
-1.41091e-18
-1.40693e-18
-1.40322e-18
-1.40747e-18
-1.40768e-18
-1.40514e-18
-1.47074e-18
-1.46575e-18
-1.46019e-18
-1.45516e-18
-1.45798e-18
-1.45224e-18
-1.45725e-18
-1.45434e-18
-1.46044e-18
-1.45907e-18
-1.46815e-18
-1.4588e-18
-1.46692e-18
-1.45804e-18
-1.46325e-18
-1.45333e-18
-1.45705e-18
-1.44899e-18
-1.45509e-18
-1.44671e-18
-1.45014e-18
-1.44301e-18
-1.44309e-18
-1.43573e-18
-1.43558e-18
-1.43185e-18
-1.43039e-18
-1.42697e-18
-1.42448e-18
-1.42041e-18
-1.41975e-18
-1.4156e-18
-1.41789e-18
-1.41384e-18
-1.41651e-18
-1.41355e-18
-1.41033e-18
-1.40376e-18
-1.41066e-18
-1.4063e-18
-1.4039e-18
-1.40565e-18
-1.40895e-18
-1.40335e-18
-1.46928e-18
-1.46332e-18
-1.46002e-18
-1.45714e-18
-1.45765e-18
-1.45381e-18
-1.45634e-18
-1.45245e-18
-1.46087e-18
-1.4571e-18
-1.46724e-18
-1.45904e-18
-1.46658e-18
-1.45741e-18
-1.46368e-18
-1.45393e-18
-1.45739e-18
-1.45093e-18
-1.45331e-18
-1.44744e-18
-1.44925e-18
-1.44281e-18
-1.44246e-18
-1.43519e-18
-1.43519e-18
-1.43199e-18
-1.43049e-18
-1.42672e-18
-1.42485e-18
-1.42002e-18
-1.41882e-18
-1.41576e-18
-1.41622e-18
-1.41323e-18
-1.41516e-18
-1.41316e-18
-1.40975e-18
-1.40418e-18
-1.41036e-18
-1.40569e-18
-1.40582e-18
-1.40583e-18
-1.40866e-18
-1.40349e-18
-1.46951e-18
-1.46123e-18
-1.46105e-18
-1.45739e-18
-1.45855e-18
-1.45287e-18
-1.45473e-18
-1.45529e-18
-1.46066e-18
-1.45618e-18
-1.4669e-18
-1.46e-18
-1.46466e-18
-1.45499e-18
-1.46493e-18
-1.45202e-18
-1.45776e-18
-1.45289e-18
-1.45387e-18
-1.44685e-18
-1.44842e-18
-1.44279e-18
-1.44345e-18
-1.43484e-18
-1.43453e-18
-1.43103e-18
-1.43069e-18
-1.42627e-18
-1.42482e-18
-1.41962e-18
-1.4189e-18
-1.41552e-18
-1.41489e-18
-1.41321e-18
-1.41709e-18
-1.4121e-18
-1.41201e-18
-1.40581e-18
-1.40818e-18
-1.40545e-18
-1.40702e-18
-1.40581e-18
-1.40812e-18
-1.40469e-18
-1.46894e-18
-1.46423e-18
-1.46001e-18
-1.45959e-18
-1.45908e-18
-1.45557e-18
-1.45463e-18
-1.45657e-18
-1.46197e-18
-1.45682e-18
-1.46729e-18
-1.46005e-18
-1.46669e-18
-1.45418e-18
-1.46366e-18
-1.45219e-18
-1.4573e-18
-1.45143e-18
-1.45396e-18
-1.4471e-18
-1.4484e-18
-1.44275e-18
-1.44282e-18
-1.43524e-18
-1.43418e-18
-1.43067e-18
-1.43022e-18
-1.42736e-18
-1.42471e-18
-1.42076e-18
-1.41976e-18
-1.41595e-18
-1.41752e-18
-1.41421e-18
-1.41501e-18
-1.41087e-18
-1.41234e-18
-1.40399e-18
-1.40785e-18
-1.40623e-18
-1.4069e-18
-1.4044e-18
-1.40751e-18
-1.40589e-18
-1.46874e-18
-1.46431e-18
-1.45985e-18
-1.45982e-18
-1.45785e-18
-1.45484e-18
-1.45683e-18
-1.4554e-18
-1.4621e-18
-1.45505e-18
-1.46672e-18
-1.46024e-18
-1.46499e-18
-1.45735e-18
-1.46388e-18
-1.45148e-18
-1.45828e-18
-1.45026e-18
-1.45371e-18
-1.44732e-18
-1.4498e-18
-1.4427e-18
-1.44195e-18
-1.43477e-18
-1.43498e-18
-1.43068e-18
-1.43025e-18
-1.42767e-18
-1.42507e-18
-1.42073e-18
-1.42042e-18
-1.41634e-18
-1.41713e-18
-1.4136e-18
-1.41687e-18
-1.41011e-18
-1.40977e-18
-1.406e-18
-1.40828e-18
-1.41006e-18
-1.40796e-18
-1.40363e-18
-1.40828e-18
-1.40266e-18
-1.46904e-18
-1.46387e-18
-1.46027e-18
-1.45868e-18
-1.45895e-18
-1.45437e-18
-1.45673e-18
-1.45449e-18
-1.45949e-18
-1.45625e-18
-1.46605e-18
-1.45968e-18
-1.46559e-18
-1.45745e-18
-1.46406e-18
-1.45225e-18
-1.45838e-18
-1.45179e-18
-1.45332e-18
-1.44768e-18
-1.44921e-18
-1.44217e-18
-1.44303e-18
-1.43437e-18
-1.43522e-18
-1.43067e-18
-1.43091e-18
-1.42697e-18
-1.42525e-18
-1.42051e-18
-1.42043e-18
-1.41688e-18
-1.41568e-18
-1.41371e-18
-1.41612e-18
-1.41186e-18
-1.40949e-18
-1.40652e-18
-1.4101e-18
-1.40931e-18
-1.40691e-18
-1.40538e-18
-1.40888e-18
-1.40273e-18
-1.46956e-18
-1.46345e-18
-1.4619e-18
-1.45668e-18
-1.45724e-18
-1.45513e-18
-1.45699e-18
-1.45493e-18
-1.45901e-18
-1.45804e-18
-1.46561e-18
-1.4592e-18
-1.46699e-18
-1.45613e-18
-1.46369e-18
-1.45276e-18
-1.45817e-18
-1.45219e-18
-1.45348e-18
-1.4467e-18
-1.44927e-18
-1.44181e-18
-1.44288e-18
-1.43414e-18
-1.43521e-18
-1.43065e-18
-1.4306e-18
-1.4269e-18
-1.42543e-18
-1.42019e-18
-1.4209e-18
-1.41697e-18
-1.41689e-18
-1.41345e-18
-1.4155e-18
-1.41198e-18
-1.4113e-18
-1.40598e-18
-1.41018e-18
-1.40935e-18
-1.40579e-18
-1.40488e-18
-1.40866e-18
-1.40415e-18
-1.46915e-18
-1.46334e-18
-1.46159e-18
-1.45734e-18
-1.45463e-18
-1.4537e-18
-1.45636e-18
-1.45485e-18
-1.46043e-18
-1.4582e-18
-1.46696e-18
-1.46058e-18
-1.465e-18
-1.45497e-18
-1.46248e-18
-1.45287e-18
-1.45816e-18
-1.45223e-18
-1.45341e-18
-1.44665e-18
-1.44928e-18
-1.44186e-18
-1.44276e-18
-1.4349e-18
-1.43505e-18
-1.43062e-18
-1.43048e-18
-1.427e-18
-1.42569e-18
-1.42062e-18
-1.42034e-18
-1.41661e-18
-1.41647e-18
-1.41292e-18
-1.41508e-18
-1.41251e-18
-1.41231e-18
-1.40733e-18
-1.40903e-18
-1.40817e-18
-1.4043e-18
-1.40543e-18
-1.4083e-18
-1.40353e-18
-1.46845e-18
-1.46353e-18
-1.45977e-18
-1.45973e-18
-1.4568e-18
-1.45355e-18
-1.45537e-18
-1.45539e-18
-1.46009e-18
-1.45683e-18
-1.46719e-18
-1.45973e-18
-1.46536e-18
-1.45652e-18
-1.46167e-18
-1.45189e-18
-1.45795e-18
-1.4502e-18
-1.45386e-18
-1.44699e-18
-1.44858e-18
-1.44197e-18
-1.44226e-18
-1.43504e-18
-1.43507e-18
-1.43058e-18
-1.43095e-18
-1.427e-18
-1.42523e-18
-1.42168e-18
-1.42031e-18
-1.41609e-18
-1.41664e-18
-1.41297e-18
-1.41453e-18
-1.41334e-18
-1.41136e-18
-1.40757e-18
-1.41007e-18
-1.40766e-18
-1.40593e-18
-1.40556e-18
-1.4075e-18
-1.40514e-18
-1.40898e-18
-1.46827e-18
-1.46407e-18
-1.46073e-18
-1.4582e-18
-1.45815e-18
-1.45308e-18
-1.45586e-18
-1.45536e-18
-1.45925e-18
-1.45623e-18
-1.46646e-18
-1.45872e-18
-1.46458e-18
-1.45706e-18
-1.46234e-18
-1.45332e-18
-1.45716e-18
-1.45042e-18
-1.45345e-18
-1.44752e-18
-1.44983e-18
-1.44173e-18
-1.4422e-18
-1.43507e-18
-1.43598e-18
-1.43068e-18
-1.43118e-18
-1.42692e-18
-1.4247e-18
-1.42064e-18
-1.41949e-18
-1.41716e-18
-1.41737e-18
-1.41387e-18
-1.41369e-18
-1.41321e-18
-1.411e-18
-1.4074e-18
-1.41048e-18
-1.40818e-18
-1.4065e-18
-1.40562e-18
-1.40735e-18
-1.40479e-18
-1.4087e-18
-1.46782e-18
-1.46451e-18
-1.46221e-18
-1.45886e-18
-1.45767e-18
-1.4516e-18
-1.45647e-18
-1.45481e-18
-1.45956e-18
-1.45671e-18
-1.46588e-18
-1.4595e-18
-1.46619e-18
-1.45604e-18
-1.46242e-18
-1.45255e-18
-1.45695e-18
-1.4506e-18
-1.45293e-18
-1.44748e-18
-1.44938e-18
-1.44171e-18
-1.44209e-18
-1.43523e-18
-1.43572e-18
-1.43091e-18
-1.43103e-18
-1.42783e-18
-1.42542e-18
-1.42062e-18
-1.4197e-18
-1.41719e-18
-1.41771e-18
-1.41457e-18
-1.41492e-18
-1.41256e-18
-1.41171e-18
-1.40715e-18
-1.41015e-18
-1.40911e-18
-1.40675e-18
-1.405e-18
-1.40831e-18
-1.40349e-18
-1.41062e-18
-1.46859e-18
-1.46487e-18
-1.46194e-18
-1.45839e-18
-1.45847e-18
-1.4521e-18
-1.45694e-18
-1.45434e-18
-1.45924e-18
-1.45602e-18
-1.46465e-18
-1.4595e-18
-1.46591e-18
-1.45552e-18
-1.46239e-18
-1.45257e-18
-1.45736e-18
-1.45075e-18
-1.45334e-18
-1.44669e-18
-1.44993e-18
-1.4413e-18
-1.44222e-18
-1.435e-18
-1.43519e-18
-1.43075e-18
-1.43104e-18
-1.42767e-18
-1.42567e-18
-1.42044e-18
-1.42078e-18
-1.41669e-18
-1.41694e-18
-1.41407e-18
-1.41444e-18
-1.41244e-18
-1.4116e-18
-1.40782e-18
-1.41026e-18
-1.4098e-18
-1.40707e-18
-1.40552e-18
-1.40883e-18
-1.40292e-18
-1.41053e-18
-1.46945e-18
-1.46352e-18
-1.46115e-18
-1.45859e-18
-1.45758e-18
-1.45275e-18
-1.45573e-18
-1.45461e-18
-1.45916e-18
-1.45539e-18
-1.46563e-18
-1.45974e-18
-1.4652e-18
-1.45589e-18
-1.46193e-18
-1.45143e-18
-1.45765e-18
-1.45024e-18
-1.45311e-18
-1.44717e-18
-1.44993e-18
-1.44159e-18
-1.44194e-18
-1.43497e-18
-1.43491e-18
-1.4308e-18
-1.4312e-18
-1.42715e-18
-1.4255e-18
-1.42075e-18
-1.42049e-18
-1.41684e-18
-1.41755e-18
-1.41379e-18
-1.41517e-18
-1.41224e-18
-1.41172e-18
-1.40838e-18
-1.40949e-18
-1.40861e-18
-1.40771e-18
-1.40621e-18
-1.40909e-18
-1.40448e-18
-1.46909e-18
-1.46397e-18
-1.46172e-18
-1.45808e-18
-1.45738e-18
-1.45375e-18
-1.45587e-18
-1.45492e-18
-1.45936e-18
-1.45653e-18
-1.46615e-18
-1.45989e-18
-1.46582e-18
-1.45606e-18
-1.46138e-18
-1.45076e-18
-1.45688e-18
-1.44979e-18
-1.45373e-18
-1.44639e-18
-1.4488e-18
-1.44191e-18
-1.44149e-18
-1.43499e-18
-1.43506e-18
-1.43049e-18
-1.43102e-18
-1.42686e-18
-1.42548e-18
-1.42117e-18
-1.4209e-18
-1.41636e-18
-1.41767e-18
-1.41425e-18
-1.41642e-18
-1.41232e-18
-1.4119e-18
-1.40878e-18
-1.40961e-18
-1.40787e-18
-1.40781e-18
-1.40622e-18
-1.40824e-18
-1.40463e-18
-1.46923e-18
-1.46325e-18
-1.46141e-18
-1.45734e-18
-1.45725e-18
-1.45407e-18
-1.45694e-18
-1.45408e-18
-1.45869e-18
-1.45475e-18
-1.46459e-18
-1.46082e-18
-1.46645e-18
-1.45703e-18
-1.4618e-18
-1.45157e-18
-1.45669e-18
-1.45037e-18
-1.4537e-18
-1.44594e-18
-1.4491e-18
-1.44142e-18
-1.44179e-18
-1.43493e-18
-1.43509e-18
-1.43071e-18
-1.43093e-18
-1.42703e-18
-1.42573e-18
-1.42103e-18
-1.42124e-18
-1.4166e-18
-1.41722e-18
-1.41441e-18
-1.41557e-18
-1.41226e-18
-1.41099e-18
-1.40754e-18
-1.40941e-18
-1.40874e-18
-1.40702e-18
-1.40672e-18
-1.40832e-18
-1.40417e-18
-1.46899e-18
-1.46292e-18
-1.46142e-18
-1.45841e-18
-1.4582e-18
-1.45366e-18
-1.45608e-18
-1.4538e-18
-1.45855e-18
-1.45591e-18
-1.46501e-18
-1.46085e-18
-1.46586e-18
-1.45584e-18
-1.46218e-18
-1.45206e-18
-1.45648e-18
-1.45072e-18
-1.4537e-18
-1.44648e-18
-1.44911e-18
-1.4415e-18
-1.44179e-18
-1.43466e-18
-1.43518e-18
-1.43053e-18
-1.43092e-18
-1.42712e-18
-1.42547e-18
-1.42127e-18
-1.42088e-18
-1.41688e-18
-1.41728e-18
-1.41475e-18
-1.41464e-18
-1.41225e-18
-1.41215e-18
-1.40746e-18
-1.40947e-18
-1.40884e-18
-1.40619e-18
-1.40641e-18
-1.40816e-18
-1.40463e-18
-1.469e-18
-1.4642e-18
-1.46146e-18
-1.45822e-18
-1.45863e-18
-1.45325e-18
-1.45654e-18
-1.45469e-18
-1.45872e-18
-1.45608e-18
-1.46556e-18
-1.46096e-18
-1.46604e-18
-1.4553e-18
-1.46199e-18
-1.4519e-18
-1.4563e-18
-1.45127e-18
-1.45408e-18
-1.44704e-18
-1.44903e-18
-1.44167e-18
-1.44204e-18
-1.43493e-18
-1.43505e-18
-1.43065e-18
-1.43061e-18
-1.42696e-18
-1.42553e-18
-1.42155e-18
-1.42055e-18
-1.4169e-18
-1.41765e-18
-1.41441e-18
-1.41488e-18
-1.41248e-18
-1.41245e-18
-1.40759e-18
-1.40971e-18
-1.40906e-18
-1.40673e-18
-1.4061e-18
-1.40782e-18
-1.40408e-18
-1.46915e-18
-1.46403e-18
-1.4616e-18
-1.45877e-18
-1.45846e-18
-1.45282e-18
-1.45631e-18
-1.45406e-18
-1.45865e-18
-1.45633e-18
-1.46562e-18
-1.46036e-18
-1.4661e-18
-1.45616e-18
-1.46122e-18
-1.45184e-18
-1.45654e-18
-1.45115e-18
-1.45367e-18
-1.44743e-18
-1.44908e-18
-1.44113e-18
-1.44207e-18
-1.43477e-18
-1.43544e-18
-1.43069e-18
-1.43085e-18
-1.4268e-18
-1.42577e-18
-1.42158e-18
-1.42024e-18
-1.41702e-18
-1.41745e-18
-1.41437e-18
-1.41517e-18
-1.41257e-18
-1.41168e-18
-1.40726e-18
-1.41045e-18
-1.40891e-18
-1.40666e-18
-1.40609e-18
-1.40852e-18
-1.40414e-18
-1.46996e-18
-1.46388e-18
-1.46267e-18
-1.45836e-18
-1.45826e-18
-1.45367e-18
-1.45605e-18
-1.45437e-18
-1.45859e-18
-1.45664e-18
-1.46512e-18
-1.45923e-18
-1.46542e-18
-1.45604e-18
-1.46157e-18
-1.45177e-18
-1.45629e-18
-1.45109e-18
-1.45365e-18
-1.44738e-18
-1.44929e-18
-1.44114e-18
-1.44214e-18
-1.43482e-18
-1.43537e-18
-1.43072e-18
-1.43108e-18
-1.42694e-18
-1.42575e-18
-1.42135e-18
-1.4203e-18
-1.41699e-18
-1.41782e-18
-1.41461e-18
-1.41552e-18
-1.41215e-18
-1.41178e-18
-1.40722e-18
-1.40988e-18
-1.40922e-18
-1.40712e-18
-1.40596e-18
-1.40829e-18
-1.40453e-18
-1.46969e-18
-1.46442e-18
-1.46186e-18
-1.45784e-18
-1.45835e-18
-1.45376e-18
-1.45653e-18
-1.45396e-18
-1.45922e-18
-1.45634e-18
-1.46495e-18
-1.45941e-18
-1.46488e-18
-1.45541e-18
-1.46168e-18
-1.45149e-18
-1.45632e-18
-1.45152e-18
-1.45372e-18
-1.44732e-18
-1.44927e-18
-1.44118e-18
-1.4421e-18
-1.43498e-18
-1.43552e-18
-1.43082e-18
-1.43102e-18
-1.42691e-18
-1.42546e-18
-1.42116e-18
-1.42073e-18
-1.41713e-18
-1.41742e-18
-1.41465e-18
-1.41539e-18
-1.41208e-18
-1.41247e-18
-1.40835e-18
-1.40996e-18
-1.40922e-18
-1.40733e-18
-1.40563e-18
-1.40796e-18
-1.40496e-18
-1.46869e-18
-1.46422e-18
-1.46112e-18
-1.4579e-18
-1.45804e-18
-1.4536e-18
-1.45657e-18
-1.45385e-18
-1.4587e-18
-1.45627e-18
-1.46486e-18
-1.4594e-18
-1.46479e-18
-1.45584e-18
-1.46111e-18
-1.45132e-18
-1.45671e-18
-1.45098e-18
-1.45381e-18
-1.44675e-18
-1.44906e-18
-1.44091e-18
-1.44195e-18
-1.43489e-18
-1.43535e-18
-1.43102e-18
-1.43117e-18
-1.42708e-18
-1.42513e-18
-1.42121e-18
-1.42097e-18
-1.41723e-18
-1.4179e-18
-1.41447e-18
-1.4151e-18
-1.41253e-18
-1.41229e-18
-1.40873e-18
-1.41018e-18
-1.40905e-18
-1.40745e-18
-1.40605e-18
-1.40838e-18
-1.40535e-18
-1.40928e-18
-1.4687e-18
-1.46388e-18
-1.46144e-18
-1.45832e-18
-1.45845e-18
-1.45301e-18
-1.45679e-18
-1.45372e-18
-1.45863e-18
-1.45603e-18
-1.46413e-18
-1.45896e-18
-1.4655e-18
-1.45634e-18
-1.4616e-18
-1.45168e-18
-1.45674e-18
-1.45047e-18
-1.45387e-18
-1.44645e-18
-1.44885e-18
-1.44086e-18
-1.44204e-18
-1.43486e-18
-1.43546e-18
-1.43104e-18
-1.43093e-18
-1.42688e-18
-1.42544e-18
-1.42134e-18
-1.4212e-18
-1.41732e-18
-1.41806e-18
-1.41447e-18
-1.41509e-18
-1.41187e-18
-1.41192e-18
-1.40801e-18
-1.41051e-18
-1.40941e-18
-1.40768e-18
-1.40614e-18
-1.40869e-18
-1.4043e-18
-1.40933e-18
-1.46904e-18
-1.46411e-18
-1.46133e-18
-1.45814e-18
-1.45838e-18
-1.45285e-18
-1.45662e-18
-1.45408e-18
-1.45836e-18
-1.45623e-18
-1.46442e-18
-1.45915e-18
-1.46543e-18
-1.45606e-18
-1.46191e-18
-1.45147e-18
-1.45648e-18
-1.45052e-18
-1.45362e-18
-1.44685e-18
-1.44885e-18
-1.44111e-18
-1.44201e-18
-1.43493e-18
-1.43566e-18
-1.43094e-18
-1.4309e-18
-1.4269e-18
-1.42526e-18
-1.42133e-18
-1.42092e-18
-1.41748e-18
-1.41778e-18
-1.4149e-18
-1.41548e-18
-1.41188e-18
-1.41162e-18
-1.40813e-18
-1.41063e-18
-1.4091e-18
-1.40754e-18
-1.40627e-18
-1.4085e-18
-1.40441e-18
-1.40945e-18
-1.46949e-18
-1.46401e-18
-1.46126e-18
-1.45802e-18
-1.45794e-18
-1.45321e-18
-1.45668e-18
-1.45371e-18
-1.45898e-18
-1.45636e-18
-1.46498e-18
-1.45896e-18
-1.46506e-18
-1.4558e-18
-1.46232e-18
-1.45176e-18
-1.45669e-18
-1.45091e-18
-1.45365e-18
-1.44708e-18
-1.44904e-18
-1.44104e-18
-1.442e-18
-1.43496e-18
-1.43559e-18
-1.43096e-18
-1.43086e-18
-1.42678e-18
-1.42546e-18
-1.42152e-18
-1.4207e-18
-1.41752e-18
-1.41766e-18
-1.41478e-18
-1.41512e-18
-1.41219e-18
-1.41169e-18
-1.40837e-18
-1.41074e-18
-1.40882e-18
-1.4075e-18
-1.40577e-18
-1.40869e-18
-1.40442e-18
-1.40933e-18
-1.40254e-18
-1.46916e-18
-1.46412e-18
-1.46186e-18
-1.4583e-18
-1.45844e-18
-1.45363e-18
-1.45624e-18
-1.45403e-18
-1.45907e-18
-1.45639e-18
-1.46469e-18
-1.45949e-18
-1.46526e-18
-1.45562e-18
-1.46178e-18
-1.45183e-18
-1.45661e-18
-1.45084e-18
-1.45391e-18
-1.44707e-18
-1.4492e-18
-1.44101e-18
-1.44204e-18
-1.43484e-18
-1.43535e-18
-1.43085e-18
-1.43085e-18
-1.42685e-18
-1.42563e-18
-1.42147e-18
-1.42073e-18
-1.41746e-18
-1.41784e-18
-1.4149e-18
-1.41479e-18
-1.4125e-18
-1.4118e-18
-1.40806e-18
-1.40985e-18
-1.4087e-18
-1.40744e-18
-1.40618e-18
-1.40827e-18
-1.40503e-18
-1.40897e-18
-1.40249e-18
-1.46901e-18
-1.46463e-18
-1.462e-18
-1.45835e-18
-1.45819e-18
-1.45373e-18
-1.45615e-18
-1.45433e-18
-1.45863e-18
-1.45644e-18
-1.4646e-18
-1.45939e-18
-1.46515e-18
-1.45601e-18
-1.46148e-18
-1.45146e-18
-1.45667e-18
-1.45082e-18
-1.45378e-18
-1.44718e-18
-1.44907e-18
-1.44123e-18
-1.44207e-18
-1.43497e-18
-1.43528e-18
-1.43076e-18
-1.43074e-18
-1.42674e-18
-1.42541e-18
-1.42131e-18
-1.42083e-18
-1.41731e-18
-1.41786e-18
-1.41485e-18
-1.41533e-18
-1.41211e-18
-1.41195e-18
-1.40815e-18
-1.40981e-18
-1.40879e-18
-1.40724e-18
-1.40665e-18
-1.40792e-18
-1.40522e-18
-1.40894e-18
-1.40265e-18
-1.40691e-18
-1.46897e-18
-1.46438e-18
-1.46196e-18
-1.45822e-18
-1.45812e-18
-1.45322e-18
-1.45632e-18
-1.45416e-18
-1.45863e-18
-1.45667e-18
-1.46441e-18
-1.45919e-18
-1.46509e-18
-1.45597e-18
-1.46188e-18
-1.4516e-18
-1.45688e-18
-1.45081e-18
-1.45375e-18
-1.44698e-18
-1.44896e-18
-1.4412e-18
-1.44191e-18
-1.43502e-18
-1.43532e-18
-1.43084e-18
-1.43078e-18
-1.42682e-18
-1.42532e-18
-1.42131e-18
-1.42081e-18
-1.41735e-18
-1.41797e-18
-1.41464e-18
-1.41522e-18
-1.41169e-18
-1.41204e-18
-1.40833e-18
-1.4103e-18
-1.40887e-18
-1.40744e-18
-1.40679e-18
-1.40793e-18
-1.40508e-18
-1.40944e-18
-1.40279e-18
-1.40698e-18
-1.46923e-18
-1.46445e-18
-1.46172e-18
-1.45844e-18
-1.4581e-18
-1.45338e-18
-1.4563e-18
-1.45394e-18
-1.459e-18
-1.45708e-18
-1.46435e-18
-1.45935e-18
-1.46496e-18
-1.45606e-18
-1.46173e-18
-1.45202e-18
-1.45676e-18
-1.451e-18
-1.4538e-18
-1.44678e-18
-1.44914e-18
-1.44101e-18
-1.44191e-18
-1.43502e-18
-1.43541e-18
-1.43093e-18
-1.43084e-18
-1.42685e-18
-1.42537e-18
-1.4214e-18
-1.42074e-18
-1.41737e-18
-1.41782e-18
-1.41476e-18
-1.41491e-18
-1.41194e-18
-1.41188e-18
-1.40826e-18
-1.41023e-18
-1.40872e-18
-1.40751e-18
-1.40646e-18
-1.40819e-18
-1.40525e-18
-1.40926e-18
-1.40291e-18
-1.40662e-18
-1.46903e-18
-1.46417e-18
-1.46156e-18
-1.45805e-18
-1.45842e-18
-1.45391e-18
-1.45646e-18
-1.45409e-18
-1.45902e-18
-1.45665e-18
-1.46425e-18
-1.45955e-18
-1.46512e-18
-1.45589e-18
-1.46152e-18
-1.45172e-18
-1.45682e-18
-1.45091e-18
-1.45374e-18
-1.44692e-18
-1.4491e-18
-1.44106e-18
-1.44206e-18
-1.43504e-18
-1.43546e-18
-1.43088e-18
-1.43089e-18
-1.42674e-18
-1.42531e-18
-1.42139e-18
-1.42072e-18
-1.4175e-18
-1.4177e-18
-1.41464e-18
-1.41536e-18
-1.41208e-18
-1.41195e-18
-1.4083e-18
-1.41011e-18
-1.40884e-18
-1.40776e-18
-1.40636e-18
-1.40808e-18
-1.4054e-18
-1.40874e-18
-1.40277e-18
-1.40697e-18
-1.46915e-18
-1.46403e-18
-1.46172e-18
-1.45822e-18
-1.45855e-18
-1.45389e-18
-1.45645e-18
-1.45453e-18
-1.45887e-18
-1.45673e-18
-1.4642e-18
-1.45954e-18
-1.46515e-18
-1.45586e-18
-1.46156e-18
-1.45152e-18
-1.45673e-18
-1.45082e-18
-1.4537e-18
-1.44707e-18
-1.44913e-18
-1.44103e-18
-1.44207e-18
-1.43511e-18
-1.43544e-18
-1.43088e-18
-1.43083e-18
-1.42675e-18
-1.42544e-18
-1.42128e-18
-1.4207e-18
-1.4175e-18
-1.41792e-18
-1.41464e-18
-1.41554e-18
-1.41199e-18
-1.41208e-18
-1.40838e-18
-1.40996e-18
-1.40888e-18
-1.40766e-18
-1.40642e-18
-1.40784e-18
-1.40518e-18
-1.40874e-18
-1.40266e-18
-1.40679e-18
-1.46927e-18
-1.46438e-18
-1.46183e-18
-1.45841e-18
-1.45834e-18
-1.45372e-18
-1.45658e-18
-1.45428e-18
-1.45864e-18
-1.45671e-18
-1.46421e-18
-1.45938e-18
-1.46504e-18
-1.456e-18
-1.46149e-18
-1.45197e-18
-1.45673e-18
-1.45073e-18
-1.45363e-18
-1.44711e-18
-1.44898e-18
-1.4411e-18
-1.44204e-18
-1.43513e-18
-1.43538e-18
-1.43089e-18
-1.4308e-18
-1.42677e-18
-1.42548e-18
-1.42134e-18
-1.42069e-18
-1.41756e-18
-1.41807e-18
-1.41468e-18
-1.41498e-18
-1.41197e-18
-1.41198e-18
-1.40828e-18
-1.41024e-18
-1.4089e-18
-1.40754e-18
-1.40668e-18
-1.40811e-18
-1.40495e-18
-1.40881e-18
-1.4027e-18
-1.40661e-18
-1.40077e-18
-1.46921e-18
-1.4643e-18
-1.46169e-18
-1.4582e-18
-1.45841e-18
-1.4537e-18
-1.45657e-18
-1.45434e-18
-1.45851e-18
-1.45646e-18
-1.46422e-18
-1.4593e-18
-1.46476e-18
-1.45605e-18
-1.46154e-18
-1.45186e-18
-1.45694e-18
-1.4508e-18
-1.45362e-18
-1.4469e-18
-1.44897e-18
-1.4411e-18
-1.44208e-18
-1.43508e-18
-1.43539e-18
-1.4309e-18
-1.43079e-18
-1.42673e-18
-1.42541e-18
-1.42144e-18
-1.42092e-18
-1.41757e-18
-1.41806e-18
-1.41454e-18
-1.41493e-18
-1.41182e-18
-1.41192e-18
-1.40842e-18
-1.41026e-18
-1.40876e-18
-1.40775e-18
-1.40692e-18
-1.40805e-18
-1.405e-18
-1.4089e-18
-1.40235e-18
-1.40682e-18
-1.40102e-18
-1.469e-18
-1.46428e-18
-1.46184e-18
-1.45807e-18
-1.45824e-18
-1.45353e-18
-1.45649e-18
-1.45433e-18
-1.45877e-18
-1.45665e-18
-1.46405e-18
-1.45927e-18
-1.46468e-18
-1.45605e-18
-1.4617e-18
-1.45181e-18
-1.45692e-18
-1.45081e-18
-1.45365e-18
-1.44695e-18
-1.44906e-18
-1.44114e-18
-1.44211e-18
-1.43501e-18
-1.43544e-18
-1.43091e-18
-1.43082e-18
-1.42667e-18
-1.42535e-18
-1.42138e-18
-1.42089e-18
-1.41755e-18
-1.4181e-18
-1.41472e-18
-1.41508e-18
-1.41184e-18
-1.41186e-18
-1.40835e-18
-1.41024e-18
-1.40882e-18
-1.40758e-18
-1.40664e-18
-1.4081e-18
-1.40511e-18
-1.40909e-18
-1.40259e-18
-1.40688e-18
-1.40076e-18
-1.46938e-18
-1.46441e-18
-1.46163e-18
-1.45805e-18
-1.45834e-18
-1.45352e-18
-1.45641e-18
-1.4542e-18
-1.45889e-18
-1.45666e-18
-1.46418e-18
-1.45933e-18
-1.46475e-18
-1.45606e-18
-1.46158e-18
-1.45181e-18
-1.45684e-18
-1.45079e-18
-1.45373e-18
-1.447e-18
-1.4491e-18
-1.44112e-18
-1.44209e-18
-1.43508e-18
-1.43545e-18
-1.43091e-18
-1.43082e-18
-1.42673e-18
-1.4254e-18
-1.42135e-18
-1.42081e-18
-1.41747e-18
-1.41812e-18
-1.4148e-18
-1.41508e-18
-1.41192e-18
-1.41192e-18
-1.40839e-18
-1.41013e-18
-1.40878e-18
-1.40772e-18
-1.4065e-18
-1.4082e-18
-1.40522e-18
-1.40908e-18
-1.40269e-18
-1.40679e-18
-1.40093e-18
-1.46941e-18
-1.46443e-18
-1.46162e-18
-1.45817e-18
-1.45853e-18
-1.45365e-18
-1.45644e-18
-1.45417e-18
-1.45889e-18
-1.45661e-18
-1.46406e-18
-1.45928e-18
-1.46484e-18
-1.45611e-18
-1.46157e-18
-1.45175e-18
-1.45694e-18
-1.4508e-18
-1.45374e-18
-1.44701e-18
-1.44902e-18
-1.44103e-18
-1.44202e-18
-1.43506e-18
-1.43545e-18
-1.43091e-18
-1.43082e-18
-1.42678e-18
-1.42545e-18
-1.42143e-18
-1.42081e-18
-1.41746e-18
-1.41808e-18
-1.41475e-18
-1.41517e-18
-1.41189e-18
-1.41194e-18
-1.4083e-18
-1.41014e-18
-1.40886e-18
-1.40777e-18
-1.40636e-18
-1.40821e-18
-1.40524e-18
-1.40897e-18
-1.4025e-18
-1.40676e-18
-1.40088e-18
-1.4693e-18
-1.46446e-18
-1.46175e-18
-1.4582e-18
-1.45834e-18
-1.45375e-18
-1.45653e-18
-1.45429e-18
-1.45882e-18
-1.45668e-18
-1.46411e-18
-1.45922e-18
-1.46478e-18
-1.45608e-18
-1.46165e-18
-1.45182e-18
-1.4569e-18
-1.4509e-18
-1.45374e-18
-1.447e-18
-1.44899e-18
-1.441e-18
-1.44202e-18
-1.43501e-18
-1.43545e-18
-1.43091e-18
-1.4308e-18
-1.42676e-18
-1.42546e-18
-1.42148e-18
-1.42082e-18
-1.41748e-18
-1.41804e-18
-1.41474e-18
-1.41514e-18
-1.41181e-18
-1.41193e-18
-1.40839e-18
-1.41024e-18
-1.40877e-18
-1.40771e-18
-1.40649e-18
-1.40816e-18
-1.40513e-18
-1.40888e-18
-1.40268e-18
-1.40678e-18
-1.40073e-18
-1.46918e-18
-1.46435e-18
-1.46182e-18
-1.45825e-18
-1.45827e-18
-1.45361e-18
-1.45652e-18
-1.45429e-18
-1.45882e-18
-1.45671e-18
-1.4641e-18
-1.45922e-18
-1.4647e-18
-1.45606e-18
-1.46167e-18
-1.45178e-18
-1.45684e-18
-1.45092e-18
-1.45372e-18
-1.44699e-18
-1.44898e-18
-1.44103e-18
-1.44206e-18
-1.43501e-18
-1.43545e-18
-1.43091e-18
-1.4308e-18
-1.42674e-18
-1.42542e-18
-1.42148e-18
-1.42083e-18
-1.41749e-18
-1.41805e-18
-1.41477e-18
-1.4152e-18
-1.41182e-18
-1.41191e-18
-1.40843e-18
-1.41024e-18
-1.40877e-18
-1.40768e-18
-1.40652e-18
-1.40813e-18
-1.40512e-18
-1.40901e-18
-1.4027e-18
-1.40673e-18
-1.40071e-18
-1.46923e-18
-1.46434e-18
-1.46174e-18
-1.45826e-18
-1.4583e-18
-1.45362e-18
-1.45648e-18
-1.45427e-18
-1.45883e-18
-1.4567e-18
-1.46409e-18
-1.45925e-18
-1.4647e-18
-1.45605e-18
-1.46167e-18
-1.45179e-18
-1.4568e-18
-1.45087e-18
-1.4537e-18
-1.44697e-18
-1.44898e-18
-1.44102e-18
-1.44207e-18
-1.43501e-18
-1.43545e-18
-1.4309e-18
-1.43081e-18
-1.42675e-18
-1.42542e-18
-1.42147e-18
-1.42082e-18
-1.41751e-18
-1.4181e-18
-1.41482e-18
-1.41518e-18
-1.41181e-18
-1.41194e-18
-1.40839e-18
-1.4102e-18
-1.40876e-18
-1.40767e-18
-1.40651e-18
-1.40815e-18
-1.40517e-18
-1.40901e-18
-1.40267e-18
-1.40669e-18
-1.40083e-18
-1.47623e-18
-1.47184e-18
-1.47269e-18
-1.47677e-18
-1.47419e-18
-1.47398e-18
-1.47444e-18
-1.47546e-18
-1.47614e-18
-1.47517e-18
-1.47658e-18
-1.47224e-18
-1.47167e-18
-1.47316e-18
-1.47306e-18
-1.47374e-18
-1.47407e-18
-1.47397e-18
-1.47356e-18
-1.4741e-18
-1.47484e-18