/*--------------------------------*- C++ -*----------------------------------*\
  =========                 |
  \\      /  F ield         | OpenFOAM: The Open Source CFD Toolbox
   \\    /   O peration     | Website:  https://openfoam.org
    \\  /    A nd           | Version:  7
     \\/     M anipulation  |
\*---------------------------------------------------------------------------*/
FoamFile
{
    version     2.0;
    format      ascii;
    class       volVectorField;
    location    "96000";
    object      vorticity;
}
// * * * * * * * * * * * * * * * * * * * * * * * * * * * * * * * * * * * * * //

dimensions      [0 0 -1 0 0 0 0];

internalField   nonuniform List<vector> 
4814
(
(-0.0267075 0.0775493 -9.17309e-18)
(-0.0241417 0.0780024 2.23104e-17)
(-0.0215817 0.0784051 4.52645e-18)
(-0.0190278 0.0787635 -1.56293e-17)
(-0.0648186 0.0681511 8.57677e-18)
(-0.0627272 0.0688546 -8.01083e-18)
(-0.0599986 0.0701196 5.77404e-18)
(-0.0572706 0.0713122 8.70056e-18)
(-0.0545435 0.072433 4.22209e-17)
(-0.0518195 0.0734847 -4.15758e-18)
(-0.049101 0.0744692 -7.90677e-18)
(-0.0463889 0.0753889 -9.33672e-18)
(-0.0436831 0.0762454 -2.0467e-17)
(-0.0409843 0.0770418 -3.12447e-17)
(-0.0382929 0.0777811 2.70094e-17)
(-0.0356086 0.0784616 -2.83007e-18)
(-0.0329339 0.0790861 -6.74614e-18)
(-0.0302666 0.0796553 4.93699e-18)
(-0.0276052 0.0801712 -9.5014e-18)
(-0.0249527 0.0806383 2.16882e-17)
(-0.0223063 0.0810539 3.36882e-18)
(-0.0196663 0.0814235 -1.52025e-17)
(-0.0170319 0.0817439 -2.24129e-17)
(-0.0144033 0.0820163 4.49887e-18)
(-0.0117787 0.0822415 1.18374e-17)
(-0.00915705 0.0824225 3.8981e-18)
(-0.0065386 0.0825561 -7.64436e-19)
(-0.00392227 0.0826453 8.96847e-18)
(-0.00130774 0.0826887 -5.16641e-18)
(0.00130595 0.0826886 1.15324e-17)
(0.00392043 0.0826454 2.11916e-18)
(0.00653648 0.0825556 1.10021e-17)
(0.00915489 0.0824191 2.2533e-18)
(0.0117768 0.0822399 1.40383e-17)
(0.0144028 0.0820126 2.22684e-17)
(0.0170333 0.0817375 2.72979e-18)
(0.019668 0.0814159 -8.12567e-18)
(0.0223073 0.081048 -4.85561e-18)
(-0.0670814 0.0704914 8.9963e-18)
(-0.0648963 0.0712382 -7.42855e-18)
(-0.0620714 0.0725465 8.63616e-18)
(-0.0592477 0.07378 9.00107e-18)
(-0.0564249 0.0749386 4.37532e-17)
(-0.0536053 0.0760255 -5.36026e-19)
(-0.0507915 0.0770425 -4.53948e-18)
(-0.0479845 0.0779925 -6.99535e-18)
(-0.0451845 0.0788774 -1.82077e-17)
(-0.042392 0.0797005 -3.13702e-17)
(-0.0396075 0.0804644 2.9206e-17)
(-0.03683 0.0811665 -9.07133e-19)
(-0.0340626 0.0818108 -8.1111e-18)
(-0.0313034 0.0823985 2.83663e-18)
(-0.0285502 0.0829307 -9.12115e-18)
(-0.0258062 0.0834124 2.17361e-17)
(-0.023069 0.0838419 3.39644e-18)
(-0.0203384 0.0842231 -1.41362e-17)
(-0.0176137 0.0845534 -2.19806e-17)
(-0.0148952 0.0848343 5.62515e-18)
(-0.0121809 0.0850671 1.27467e-17)
(-0.00946959 0.0852532 6.47037e-18)
(-0.00676177 0.0853911 6.82738e-19)
(-0.00405618 0.0854833 1.0021e-17)
(-0.0013524 0.0855277 -5.16677e-18)
(0.0013506 0.0855275 1.17954e-17)
(0.00405432 0.0854833 2.54939e-18)
(0.00675954 0.0853907 1.06047e-17)
(0.00946739 0.0852499 8.55672e-19)
(0.012179 0.0850656 1.30765e-17)
(0.0148947 0.0848317 2.31986e-17)
(0.0176151 0.0845478 3.17179e-18)
(0.0203401 0.0842157 -6.16724e-18)
(0.0230699 0.0838358 -2.57942e-18)
(0.0258056 0.0834062 2.54874e-17)
(0.0285493 0.0829245 4.51689e-19)
(0.0313008 0.0823902 -2.27862e-17)
(0.0340605 0.0818036 -1.50891e-17)
(0.0368287 0.081161 -6.10871e-18)
(0.0396062 0.0804603 2.76001e-17)
(0.0423927 0.0797004 -2.00541e-17)
(-0.0694632 0.0729549 8.17605e-18)
(-0.0671796 0.0737475 -8.9796e-18)
(-0.0642534 0.0751013 9.35864e-18)
(-0.0613292 0.0763781 7.74818e-18)
(-0.0584058 0.0775768 4.50313e-17)
(-0.0554857 0.0787007 1.50731e-18)
(-0.0525716 0.0797522 -2.43074e-18)
(-0.0496648 0.0807342 -4.86384e-18)
(-0.0467656 0.0816492 -1.81877e-17)
(-0.0438746 0.0825007 -3.30151e-17)
(-0.0409919 0.0832903 3.11605e-17)
(-0.0381165 0.0840156 1.38794e-18)
(-0.0352515 0.0846806 -8.11372e-18)
(-0.0323954 0.085288 8.86687e-19)
(-0.0295456 0.0858376 -7.97845e-18)
(-0.0267053 0.0863346 2.24728e-17)
(-0.0238724 0.0867787 3.99951e-18)
(-0.0210463 0.087172 -1.26073e-17)
(-0.0182266 0.0875126 -2.16473e-17)
(-0.0154133 0.087803 5.79496e-18)
(-0.0126045 0.0880437 1.21321e-17)
(-0.00979885 0.0882352 7.26133e-18)
(-0.00699684 0.0883775 3.87392e-19)
(-0.00419723 0.088473 1.03918e-17)
(-0.00139947 0.0885187 -5.28344e-18)
(0.00139765 0.0885182 1.19829e-17)
(0.00419537 0.0884728 2.68665e-18)
(0.00699451 0.0883772 1.01336e-17)
(0.00979661 0.088232 -4.85684e-19)
(0.0126026 0.0880422 1.16976e-17)
(0.0154129 0.0878013 2.25879e-17)
(0.018228 0.0875082 2.61929e-18)
(0.021048 0.087165 -4.92317e-18)
(0.0238733 0.0867725 -2.28002e-18)
(0.0267047 0.0863287 2.8485e-17)
(0.0295445 0.0858311 3.76484e-18)
(0.0323926 0.0852791 -2.17274e-17)
(0.0352493 0.0846732 -1.51471e-17)
(0.038115 0.0840094 -6.83442e-18)
(0.0409907 0.0832859 2.88646e-17)
(0.0438757 0.0825008 -2.1652e-17)
(0.0467683 0.0816526 -6.95423e-17)
(0.0496688 0.0807386 -9.01445e-18)
(0.0525755 0.0797554 -9.8544e-18)
(-0.0719721 0.0755498 6.5613e-18)
(-0.0695849 0.0763907 -1.23998e-17)
(-0.0665522 0.0777928 8.38398e-18)
(-0.0635221 0.0791153 6.02243e-18)
(-0.0604929 0.0803565 4.68376e-17)
(-0.057467 0.0815196 2.00804e-18)
(-0.0544474 0.0826076 -1.94717e-18)
(-0.0514355 0.0836236 -3.22705e-18)
(-0.048432 0.0845707 -2.0274e-17)
(-0.0454371 0.0854519 -3.55633e-17)
(-0.042451 0.0862688 3.24384e-17)
(-0.0394726 0.0870188 4.11031e-18)
(-0.0365046 0.0877055 -7.0452e-18)
(-0.0335467 0.0883343 -8.20739e-19)
(-0.030595 0.0889022 -6.73223e-18)
(-0.0276531 0.0894154 2.34182e-17)
(-0.0247193 0.0898747 4.37642e-18)
(-0.0217926 0.0902806 -1.1492e-17)
(-0.0188727 0.0906324 -2.16767e-17)
(-0.0159595 0.0909327 5.37374e-18)
(-0.0130511 0.0911818 1.07444e-17)
(-0.010146 0.0913791 7.25657e-18)
(-0.00724468 0.0915261 -9.59524e-19)
(-0.00434593 0.0916249 1.03235e-17)
(-0.0014491 0.0916724 -5.70177e-18)
(0.00144724 0.0916716 1.21589e-17)
(0.00434407 0.0916245 2.94052e-18)
(0.00724224 0.0915258 9.77586e-18)
(0.0101437 0.091376 -1.83347e-18)
(0.0130494 0.0911805 1.02652e-17)
(0.0159592 0.0909318 2.09832e-17)
(0.0188742 0.0906293 1.47412e-18)
(0.0217944 0.0902743 -4.04564e-18)
(0.0247202 0.0898684 -2.86764e-18)
(0.0276525 0.0894095 2.94259e-17)
(0.0305936 0.0888951 5.58858e-18)
(0.0335435 0.0883245 -2.22763e-17)
(0.0365026 0.0876982 -1.49764e-17)
(0.039471 0.0870118 -5.76305e-18)
(0.04245 0.0862641 3.00183e-17)
(0.0454388 0.0854525 -2.1556e-17)
(0.0484352 0.0845746 -7.26398e-17)
(0.0514401 0.083629 -7.1442e-18)
(0.0544514 0.0826112 -8.6091e-18)
(-0.0746167 0.0782851 5.44743e-18)
(-0.0721202 0.0791769 -1.59983e-17)
(-0.0689755 0.0806304 7.68219e-18)
(-0.0658339 0.0820011 5.00548e-18)
(-0.0626936 0.0832874 4.92516e-17)
(-0.0595563 0.084492 2.54134e-18)
(-0.0564257 0.0856189 -1.81742e-18)
(-0.0533031 0.086671 -2.53731e-18)
(-0.0501896 0.0876521 -2.27986e-17)
(-0.0470852 0.0885649 -3.78335e-17)
(-0.0439901 0.0894105 3.31748e-17)
(-0.0409032 0.0901868 6.65159e-18)
(-0.0378265 0.0908967 -6.00051e-18)
(-0.0347613 0.0915482 -2.25122e-18)
(-0.0317023 0.0921356 -5.82731e-18)
(-0.0286532 0.092666 2.43499e-17)
(-0.0256129 0.0931412 4.65447e-18)
(-0.02258 0.0935602 -1.07805e-17)
(-0.0195544 0.0939241 -2.18586e-17)
(-0.0165358 0.094235 4.75108e-18)
(-0.0135224 0.0944928 9.31229e-18)
(-0.0105123 0.0946965 7.42268e-18)
(-0.00750621 0.0948487 -2.10687e-18)
(-0.00450282 0.0949507 1.04578e-17)
(-0.00150146 0.0950003 -6.37209e-18)
(0.00149955 0.0949994 1.26725e-17)
(0.00450096 0.0949501 3.87963e-18)
(0.00750367 0.0948482 9.6739e-18)
(0.0105101 0.0946936 -3.03969e-18)
(0.0135208 0.0944918 9.02425e-18)
(0.0165356 0.0942348 1.93711e-17)
(0.019556 0.0939225 1.09536e-19)
(0.0225819 0.0935551 -3.42286e-18)
(0.0256138 0.093135 -2.91562e-18)
(0.0286525 0.0926598 2.93294e-17)
(0.0317004 0.0921278 6.41096e-18)
(0.0347577 0.0915374 -2.3323e-17)
(0.0378247 0.0908895 -1.53439e-17)
(0.0409014 0.0901791 -4.0514e-18)
(0.0439895 0.0894058 3.11351e-17)
(0.0470876 0.088566 -2.06469e-17)
(0.0501932 0.0876565 -7.36347e-17)
(0.0533082 0.0866773 -5.60745e-18)
(0.0564297 0.085623 -8.3787e-18)
(-0.0774059 0.0811699 4.94245e-18)
(-0.0747945 0.0821158 -1.91216e-17)
(-0.0715321 0.0836239 7.20121e-18)
(-0.068273 0.0850457 4.32775e-18)
(-0.0650155 0.0863798 5.10996e-17)
(-0.0617609 0.0876286 3.19574e-18)
(-0.0585134 0.0887969 -1.20983e-18)
(-0.0552743 0.0898876 -2.28063e-18)
(-0.0520449 0.0909048 -2.4254e-17)
(-0.048825 0.0918509 -3.97274e-17)
(-0.0456148 0.092727 3.40695e-17)
(-0.0424135 0.0935311 8.63484e-18)
(-0.0392223 0.094266 -4.69722e-18)
(-0.0360437 0.0949416 -3.24601e-18)
(-0.0328714 0.0955496 -4.69089e-18)
(-0.0297092 0.0960985 2.5029e-17)
(-0.0265566 0.0965904 4.8403e-18)
(-0.0234114 0.0970232 -1.01462e-17)
(-0.0202742 0.0974003 -2.17232e-17)
(-0.0171444 0.0977221 4.32114e-18)
(-0.0140201 0.0979894 8.22084e-18)
(-0.0108992 0.0982 7.66716e-18)
(-0.00778241 0.0983577 -3.34151e-18)
(-0.0046685 0.0984631 1.07508e-17)
(-0.00155674 0.0985149 -7.22414e-18)
(0.00155478 0.0985142 1.32977e-17)
(0.00466663 0.0984622 5.26749e-18)
(0.00777976 0.0983568 9.74921e-18)
(0.010897 0.0981972 -4.13388e-18)
(0.0140186 0.0979886 7.77891e-18)
(0.0171443 0.0977227 1.8012e-17)
(0.020276 0.0973999 -1.48638e-18)
(0.0234135 0.0970197 -3.1272e-18)
(0.0265574 0.0965843 -2.87002e-18)
(0.0297083 0.0960919 2.87127e-17)
(0.0328691 0.0955412 7.45344e-18)
(0.0360397 0.0949296 -2.38589e-17)
(0.0392207 0.094259 -1.62022e-17)
(0.0424115 0.093523 -2.8319e-18)
(0.0456145 0.0927222 3.21928e-17)
(0.0488278 0.0918523 -2.00048e-17)
(0.0520488 0.0909094 -7.36895e-17)
(0.0552798 0.0898945 -4.98284e-18)
(0.0585174 0.0888015 -9.00963e-18)
(-0.0803495 0.0842142 4.0256e-18)
(-0.0776174 0.0852181 -2.12878e-17)
(-0.074231 0.0867841 7.67774e-18)
(-0.0708479 0.08826 3.62797e-18)
(-0.0674671 0.089645 5.27398e-17)
(-0.064089 0.0909409 4.04838e-18)
(-0.0607183 0.0921533 -1.40399e-18)
(-0.0573563 0.0932851 -1.94848e-18)
(-0.0540045 0.0943406 -2.52141e-17)
(-0.0506629 0.0953224 -4.15146e-17)
(-0.0473313 0.0962308 3.50641e-17)
(-0.044009 0.0970643 1.02997e-17)
(-0.040697 0.0978261 -3.53332e-18)
(-0.0373986 0.0985271 -4.02759e-18)
(-0.0341068 0.0991572 -3.9417e-18)
(-0.0308253 0.0997259 2.55171e-17)
(-0.0275538 0.100236 5.28198e-18)
(-0.0242901 0.100683 -9.4138e-18)
(-0.021035 0.101074 -2.16304e-17)
(-0.0177876 0.101408 4.29556e-18)
(-0.014546 0.101685 7.32547e-18)
(-0.0113081 0.101903 8.22071e-18)
(-0.00807434 0.102067 -4.44053e-18)
(-0.00484361 0.102176 1.10369e-17)
(-0.00161514 0.10223 -8.18055e-18)
(0.00161313 0.102229 1.38923e-17)
(0.00484171 0.102175 6.63031e-18)
(0.0080716 0.102065 1.00165e-17)
(0.0113059 0.1019 -4.99786e-18)
(0.0145447 0.101684 6.28918e-18)
(0.0177876 0.101409 1.67109e-17)
(0.0210369 0.101075 -2.88144e-18)
(0.0242924 0.100681 -2.83625e-18)
(0.0275545 0.10023 -2.59338e-18)
(0.030824 0.0997186 2.82539e-17)
(0.0341042 0.0991483 8.41156e-18)
(0.0373944 0.0985142 -2.41703e-17)
(0.0406956 0.0978193 -1.7138e-17)
(0.044007 0.0970559 -2.16842e-18)
(0.0473312 0.0962257 3.34574e-17)
(0.050666 0.0953236 -1.97406e-17)
(0.0540089 0.0943454 -7.40394e-17)
(0.057362 0.0932924 -4.22372e-18)
(0.0607222 0.0921582 -1.01103e-17)
(0.0640899 0.0909431 3.1571e-17)
(-0.0834578 0.0874288 3.19566e-18)
(-0.0805988 0.0884946 -2.28923e-17)
(-0.0770818 0.0901223 8.56149e-18)
(-0.0735681 0.0916557 2.50403e-18)
(-0.0700573 0.0930948 5.48836e-17)
(-0.066549 0.094441 5.09273e-18)
(-0.0630485 0.0957006 -1.89729e-18)
(-0.059557 0.0968763 -1.65014e-18)
(-0.056076 0.0979726 -2.63531e-17)
(-0.0526059 0.0989924 -4.28256e-17)
(-0.049146 0.0999351 3.6201e-17)
(-0.0456959 0.1008 1.19511e-17)
(-0.0422565 0.101591 -3.01004e-18)
(-0.0388314 0.102318 -5.31572e-18)
(-0.0354133 0.102972 -3.61208e-18)
(-0.0320056 0.103562 2.56547e-17)
(-0.0286086 0.104091 5.47164e-18)
(-0.0252196 0.104554 -8.18413e-18)
(-0.0218398 0.10496 -2.1293e-17)
(-0.0184678 0.105306 4.75558e-18)
(-0.0151024 0.105594 6.28697e-18)
(-0.0117407 0.10582 8.75522e-18)
(-0.00838315 0.10599 -5.44291e-18)
(-0.00502885 0.106103 1.13298e-17)
(-0.00167689 0.106159 -9.08089e-18)
(0.00167483 0.106159 1.43052e-17)
(0.00502687 0.106102 7.54437e-18)
(0.00838032 0.105988 1.04317e-17)
(0.0117385 0.105818 -5.50068e-18)
(0.0151012 0.105593 4.77536e-18)
(0.018468 0.105307 1.55077e-17)
(0.0218417 0.104961 -3.88071e-18)
(0.0252219 0.104553 -2.25186e-18)
(0.0286091 0.104085 -2.02931e-18)
(0.032004 0.103554 2.80796e-17)
(0.0354104 0.102963 9.44807e-18)
(0.038827 0.102305 -2.45235e-17)
(0.0422553 0.101584 -1.82743e-17)
(0.0456939 0.100791 -2.22707e-18)
(0.0491462 0.0999297 3.45476e-17)
(0.0526091 0.0989931 -1.9435e-17)
(0.0560806 0.0979774 -7.39588e-17)
(0.0595627 0.0968836 -2.62934e-18)
(0.0630523 0.0957056 -1.16942e-17)
(0.0665502 0.0944441 3.15895e-17)
(-0.086742 0.0908251 2.20998e-18)
(-0.0837493 0.0919571 -2.43432e-17)
(-0.0800949 0.0936505 8.77473e-18)
(-0.0764435 0.0952452 9.54542e-19)
(-0.0727958 0.0967422 5.77523e-17)
(-0.0691503 0.0981421 5.99031e-18)
(-0.0655128 0.0994521 -2.31457e-18)
(-0.0618846 0.100675 -1.26721e-18)
(-0.0582672 0.101815 -2.72872e-17)
(-0.0546614 0.102875 -4.32189e-17)
(-0.0510659 0.103854 3.76967e-17)
(-0.0474808 0.104752 1.28033e-17)
(-0.0439067 0.105575 -2.62772e-18)
(-0.0403474 0.10633 -6.31587e-18)
(-0.036796 0.10701 -3.27635e-18)
(-0.0332548 0.107622 2.54954e-17)
(-0.0297251 0.108171 5.71581e-18)
(-0.0262035 0.108652 -7.1029e-18)
(-0.0226916 0.109074 -2.04358e-17)
(-0.0191879 0.109433 5.47609e-18)
(-0.0156913 0.109732 5.25656e-18)
(-0.0121986 0.109967 9.30833e-18)
(-0.00871007 0.110144 -6.0657e-18)
(-0.00522495 0.110261 1.13918e-17)
(-0.00174225 0.11032 -9.957e-18)
(0.00174014 0.11032 1.44935e-17)
(0.00522286 0.110259 7.99179e-18)
(0.00870714 0.110141 1.10109e-17)
(0.0121964 0.109965 -5.85108e-18)
(0.0156902 0.109731 3.01474e-18)
(0.0191883 0.109435 1.47588e-17)
(0.0226935 0.109075 -4.4531e-18)
(0.0262057 0.108652 -1.85299e-18)
(0.0297252 0.108165 -1.68975e-18)
(0.033253 0.107614 2.75532e-17)
(0.0367928 0.107001 1.03765e-17)
(0.040343 0.106317 -2.45232e-17)
(0.0439055 0.105567 -1.90624e-17)
(0.0474789 0.104744 -2.99285e-18)
(0.0510663 0.103849 3.51445e-17)
(0.0546645 0.102875 -1.86471e-17)
(0.0582719 0.101819 -7.36968e-17)
(0.0618903 0.100682 -8.51623e-19)
(0.0655165 0.0994572 -1.33921e-17)
(0.0691516 0.098146 3.16906e-17)
(-0.0902139 0.0944153 1.19683e-18)
(-0.0870801 0.0956178 -2.50751e-17)
(-0.0832812 0.0973816 8.56238e-18)
(-0.0794848 0.0990417 -8.20531e-19)
(-0.0756926 0.100601 6.01129e-17)
(-0.0719026 0.102058 6.2018e-18)
(-0.0681204 0.103422 -2.99013e-18)
(-0.064348 0.104695 -7.24408e-19)
(-0.0605866 0.105881 -2.76199e-17)
(-0.0568374 0.106985 -4.28732e-17)
(-0.0530984 0.108003 3.97632e-17)
(-0.0493706 0.108938 1.30372e-17)
(-0.0456541 0.109793 -2.22208e-18)
(-0.0419528 0.110579 -7.02101e-18)
(-0.0382603 0.111286 -3.41965e-18)
(-0.0345779 0.111923 2.53826e-17)
(-0.0309076 0.112493 6.32502e-18)
(-0.0272458 0.112993 -5.95915e-18)
(-0.0235939 0.113431 -1.91625e-17)
(-0.0199507 0.113804 6.01264e-18)
(-0.0163152 0.114116 4.15128e-18)
(-0.0126837 0.114361 9.83872e-18)
(-0.00905641 0.114544 -6.34513e-18)
(-0.00543271 0.114666 1.14836e-17)
(-0.0018115 0.114727 -1.08042e-17)
(0.00180931 0.114727 1.45119e-17)
(0.00543048 0.114664 8.16167e-18)
(0.0090534 0.11454 1.15968e-17)
(0.0126816 0.114358 -6.15479e-18)
(0.0163143 0.114115 1.21039e-18)
(0.0199514 0.113807 1.40134e-17)
(0.0235959 0.113433 -5.01918e-18)
(0.0272478 0.112993 -1.35788e-18)
(0.0309075 0.112487 -1.69523e-18)
(0.0345758 0.111914 2.69662e-17)
(0.038257 0.111277 1.12604e-17)
(0.0419485 0.110565 -2.37866e-17)
(0.045653 0.109785 -1.93253e-17)
(0.0493688 0.108929 -3.75801e-18)
(0.0530993 0.107998 3.57462e-17)
(0.0568402 0.106984 -1.79235e-17)
(0.0605913 0.105885 -7.30555e-17)
(0.0643536 0.104702 4.51698e-19)
(0.0681241 0.103427 -1.54021e-17)
(0.0719039 0.102062 3.20877e-17)
(-0.0938857 0.0982121 3.19262e-19)
(-0.0906033 0.0994899 -2.38588e-17)
(-0.0866521 0.101329 9.0218e-18)
(-0.0827029 0.103059 -3.18736e-18)
(-0.0787587 0.104685 6.1341e-17)
(-0.0748163 0.106204 6.58717e-18)
(-0.0708814 0.107625 -3.21899e-18)
(-0.0669567 0.108952 -1.33817e-19)
(-0.0630431 0.110189 -2.69638e-17)
(-0.0591422 0.111339 -4.22446e-17)
(-0.0552515 0.112398 4.16295e-17)
(-0.0513729 0.113372 1.33518e-17)
(-0.0475056 0.114263 -1.46378e-18)
(-0.043654 0.115081 -7.49882e-18)
(-0.0398121 0.115818 -4.27935e-18)
(-0.0359801 0.11648 2.59258e-17)
(-0.0321609 0.117074 6.69131e-18)
(-0.0283507 0.117595 -5.1806e-18)
(-0.0245505 0.118051 -1.77789e-17)
(-0.0207594 0.118438 6.47698e-18)
(-0.0169765 0.118764 3.31703e-18)
(-0.013198 0.119019 1.06168e-17)
(-0.00942361 0.11921 -6.45694e-18)
(-0.00565297 0.119337 1.15157e-17)
(-0.00188492 0.1194 -1.17021e-17)
(0.00188264 0.1194 1.43829e-17)
(0.00565058 0.119334 8.10785e-18)
(0.00942053 0.119205 1.19963e-17)
(0.0131961 0.119016 -6.39389e-18)
(0.0169758 0.118763 -3.58415e-19)
(0.0207603 0.118442 1.32204e-17)
(0.0245525 0.118053 -5.46296e-18)
(0.0283525 0.117595 -9.29873e-19)
(0.0321606 0.117069 -1.86945e-18)
(0.035978 0.116472 2.68759e-17)
(0.0398088 0.115809 1.18458e-17)
(0.0436499 0.115067 -2.22411e-17)
(0.0475046 0.114255 -1.94793e-17)
(0.0513712 0.113363 -4.38281e-18)
(0.0552528 0.112393 3.61119e-17)
(0.0591447 0.111336 -1.72256e-17)
(0.0630478 0.110192 -7.15244e-17)
(0.066962 0.108959 1.5891e-18)
(0.070885 0.107631 -1.76791e-17)
(-0.0977705 0.102229 -7.12274e-19)
(-0.0943315 0.103587 -2.15207e-17)
(-0.09022 0.105507 1.04118e-17)
(-0.0861099 0.107312 -6.07359e-18)
(-0.0820052 0.109009 6.20371e-17)
(-0.0779024 0.110595 7.01184e-18)
(-0.0738062 0.112078 -3.1021e-18)
(-0.0697206 0.113463 6.86522e-20)
(-0.0656462 0.114753 -2.52681e-17)
(-0.0615847 0.115952 -4.14555e-17)
(-0.0575339 0.117057 4.38544e-17)
(-0.0534955 0.118072 1.37526e-17)
(-0.0494686 0.119002 -7.16043e-19)
(-0.0454577 0.119854 -8.00911e-18)
(-0.0414577 0.120623 -5.8322e-18)
(-0.0374673 0.121314 2.74251e-17)
(-0.0334901 0.121933 7.0957e-18)
(-0.0295226 0.122476 -4.57374e-18)
(-0.0255653 0.122951 -1.65095e-17)
(-0.0216173 0.123354 6.74773e-18)
(-0.0176781 0.123694 2.92858e-18)
(-0.0137436 0.12396 1.15299e-17)
(-0.00981317 0.124159 -6.54348e-18)
(-0.00588665 0.124292 1.1633e-17)
(-0.00196281 0.124358 -1.25611e-17)
(0.00196043 0.124357 1.42042e-17)
(0.00588409 0.124289 7.78589e-18)
(0.00981006 0.124154 1.20077e-17)
(0.0137418 0.123957 -6.4797e-18)
(0.0176776 0.123693 -1.37687e-18)
(0.0216184 0.123359 1.2271e-17)
(0.0255673 0.122954 -6.24142e-18)
(0.0295243 0.122477 -6.09951e-19)
(0.0334896 0.121927 -1.58333e-18)
(0.0374652 0.121306 2.70716e-17)
(0.0414542 0.120615 1.1763e-17)
(0.045454 0.119842 -2.10596e-17)
(0.0494677 0.118994 -1.93455e-17)
(0.053494 0.118064 -5.29394e-18)
(0.0575353 0.117052 3.65641e-17)
(0.061587 0.115949 -1.63819e-17)
(0.0656508 0.114756 -6.97641e-17)
(0.0697256 0.113469 2.84741e-18)
(0.0738096 0.112083 -1.99026e-17)
(-0.101882 0.106479 -1.85274e-18)
(-0.0982776 0.107924 -2.00979e-17)
(-0.0939974 0.10993 1.18072e-17)
(-0.0897179 0.111817 -9.66792e-18)
(-0.0854442 0.11359 6.24642e-17)
(-0.0811721 0.115248 7.96368e-18)
(-0.0769058 0.116797 -3.07599e-18)
(-0.0726503 0.118244 5.89658e-20)
(-0.0684058 0.119592 -2.27901e-17)
(-0.0641746 0.120844 -3.99135e-17)
(-0.0599544 0.121998 4.56447e-17)
(-0.0557468 0.123058 1.39473e-17)
(-0.0515509 0.124029 4.24487e-19)
(-0.0473713 0.124918 -8.66577e-18)
(-0.0432037 0.125722 -7.44047e-18)
(-0.0390454 0.126443 2.97221e-17)
(-0.0349008 0.127089 7.39375e-18)
(-0.0307664 0.127656 -3.51644e-18)
(-0.0266424 0.128152 -1.4845e-17)
(-0.022528 0.128573 7.10803e-18)
(-0.0184227 0.128927 2.74552e-18)
(-0.0143227 0.129206 1.22495e-17)
(-0.0102267 0.129414 -6.52404e-18)
(-0.00613471 0.129552 1.20554e-17)
(-0.00204551 0.129621 -1.33297e-17)
(0.00204302 0.12962 1.38136e-17)
(0.00613199 0.129549 7.21522e-18)
(0.0102236 0.129408 1.17637e-17)
(0.0143211 0.129203 -6.26962e-18)
(0.0184225 0.128926 -2.10082e-18)
(0.0225294 0.128578 1.09429e-17)
(0.0266445 0.128156 -7.15867e-18)
(0.0307679 0.127658 -8.99425e-20)
(0.0349001 0.127084 -1.24919e-18)
(0.0390433 0.126435 2.73601e-17)
(0.0432001 0.125714 1.16287e-17)
(0.0473679 0.124907 -2.10553e-17)
(0.0515502 0.124021 -1.86943e-17)
(0.0557455 0.12305 -6.18645e-18)
(0.0599557 0.121992 3.63083e-17)
(0.0641767 0.12084 -1.5172e-17)
(0.0684104 0.119594 -6.75747e-17)
(0.0726549 0.118249 3.81335e-18)
(0.076909 0.116802 -2.14886e-17)
(-0.106233 0.110977 -2.12458e-18)
(-0.102455 0.112516 -1.90461e-17)
(-0.0979977 0.114615 1.18309e-17)
(-0.0935398 0.116588 -1.32023e-17)
(-0.0890879 0.118444 6.34809e-17)
(-0.0846374 0.120179 9.12811e-18)
(-0.0801918 0.1218 -2.9282e-18)
(-0.0757567 0.123314 -3.67587e-19)
(-0.0713324 0.124723 -2.00489e-17)
(-0.0669216 0.126033 -3.77029e-17)
(-0.0625224 0.12724 4.69534e-17)
(-0.0581357 0.128349 1.4132e-17)
(-0.0537609 0.129364 2.4197e-18)
(-0.0494024 0.130293 -9.64115e-18)
(-0.045057 0.131135 -9.48556e-18)
(-0.0407209 0.131888 3.21009e-17)
(-0.0363987 0.132564 7.28328e-18)
(-0.0320872 0.133157 -1.93249e-18)
(-0.0277862 0.133675 -1.28518e-17)
(-0.0234953 0.134116 7.52386e-18)
(-0.0192136 0.134486 2.86575e-18)
(-0.0149379 0.134778 1.27632e-17)
(-0.010666 0.134995 -6.41575e-18)
(-0.0063982 0.135139 1.26823e-17)
(-0.00213334 0.135211 -1.39829e-17)
(0.00213073 0.13521 1.33543e-17)
(0.00639532 0.135135 6.4047e-18)
(0.0106629 0.13499 1.12926e-17)
(0.0149363 0.134775 -5.98375e-18)
(0.0192137 0.134485 -2.74467e-18)
(0.0234968 0.134121 9.45558e-18)
(0.0277884 0.13368 -8.0548e-18)
(0.0320885 0.13316 8.51435e-19)
(0.0363977 0.132559 -5.47507e-19)
(0.0407187 0.131881 2.80126e-17)
(0.0450533 0.131127 1.16368e-17)
(0.0493994 0.130283 -2.15556e-17)
(0.0537602 0.129356 -1.75306e-17)
(0.0581344 0.12834 -6.86338e-18)
(0.0625236 0.127233 3.54179e-17)
(0.0669238 0.126028 -1.32011e-17)
(0.0713369 0.124725 -6.48478e-17)
(0.0757608 0.123318 4.58212e-18)
(0.0801946 0.121805 -2.31403e-17)
(-0.110838 0.115737 -8.49782e-19)
(-0.106878 0.117378 -1.9041e-17)
(-0.102234 0.119576 1.051e-17)
(-0.0975889 0.121643 -1.55905e-17)
(-0.0929492 0.123588 6.489e-17)
(-0.0883107 0.125406 1.00197e-17)
(-0.0836761 0.127105 -3.34509e-18)
(-0.0790513 0.128691 -7.03261e-19)
(-0.074437 0.130167 -1.66989e-17)
(-0.0698364 0.131539 -3.53494e-17)
(-0.0652478 0.132803 4.83794e-17)
(-0.0606713 0.133964 1.44743e-17)
(-0.056107 0.135028 4.38378e-18)
(-0.051559 0.136001 -1.1266e-17)
(-0.0470251 0.136883 -1.13497e-17)
(-0.0425003 0.137672 3.40549e-17)
(-0.0379898 0.138379 6.75887e-18)
(-0.0334903 0.139001 -2.6077e-19)
(-0.0290014 0.139543 -1.10043e-17)
(-0.024523 0.140006 8.0127e-18)
(-0.020054 0.140392 3.02499e-18)
(-0.0155915 0.140699 1.31637e-17)
(-0.0111328 0.140926 -6.23647e-18)
(-0.00667823 0.141076 1.34533e-17)
(-0.00222668 0.141152 -1.43783e-17)
(0.00222395 0.141151 1.28942e-17)
(0.0066752 0.141073 5.20115e-18)
(0.0111298 0.140921 1.0705e-17)
(0.01559 0.140696 -5.71187e-18)
(0.0200544 0.140391 -3.29859e-18)
(0.0245248 0.140011 7.98355e-18)
(0.0290037 0.139549 -8.77898e-18)
(0.0334914 0.139004 2.04684e-18)
(0.0379886 0.138375 6.83351e-19)
(0.0424983 0.137666 2.90799e-17)
(0.0470212 0.136874 1.19837e-17)
(0.0515565 0.135991 -2.20857e-17)
(0.0561064 0.13502 -1.59088e-17)
(0.06067 0.133956 -7.6706e-18)
(0.0652487 0.132796 3.43239e-17)
(0.0698385 0.131533 -1.01261e-17)
(0.0744413 0.130168 -6.1859e-17)
(0.0790548 0.128694 5.84753e-18)
(0.0836782 0.127108 -2.56081e-17)
(-0.115712 0.120774 7.17071e-19)
(-0.111561 0.122525 -1.92162e-17)
(-0.106721 0.12483 9.24625e-18)
(-0.101879 0.126999 -1.70832e-17)
(-0.0970411 0.129039 6.56155e-17)
(-0.0922046 0.130947 9.85543e-18)
(-0.0873707 0.13273 -3.49416e-18)
(-0.0825458 0.134394 -2.11497e-19)
(-0.0777309 0.135943 -1.33057e-17)
(-0.0729296 0.137382 -3.27434e-17)
(-0.0681407 0.138709 5.01481e-17)
(-0.0633634 0.139927 1.46981e-17)
(-0.0585984 0.141043 5.5017e-18)
(-0.0538495 0.142063 -1.21014e-17)
(-0.0491157 0.142989 -1.28147e-17)
(-0.0443909 0.143817 3.58179e-17)
(-0.0396804 0.144559 6.62073e-18)
(-0.0349813 0.145212 1.76765e-18)
(-0.0302931 0.145781 -9.37259e-18)
(-0.0256154 0.146266 8.2777e-18)
(-0.0209473 0.14667 3.1405e-18)
(-0.0162863 0.146994 1.39493e-17)
(-0.0116291 0.147231 -6.00914e-18)
(-0.00697594 0.147389 1.40119e-17)
(-0.00232592 0.147467 -1.46623e-17)
(0.00232305 0.147467 1.25622e-17)
(0.00697278 0.147384 3.83889e-18)
(0.0116261 0.147227 9.91589e-18)
(0.016285 0.14699 -5.41955e-18)
(0.020948 0.14667 -3.90278e-18)
(0.0256174 0.146271 6.63074e-18)
(0.0302953 0.145787 -9.56412e-18)
(0.0349823 0.145215 3.29281e-18)
(0.0396792 0.144556 2.42123e-18)
(0.044389 0.143812 3.00811e-17)
(0.0491117 0.14298 1.19046e-17)
(0.0538475 0.142054 -2.25945e-17)
(0.0585977 0.141034 -1.47651e-17)
(0.0633621 0.139918 -8.83951e-18)
(0.0681415 0.138701 3.40799e-17)
(0.0729318 0.137376 -6.7107e-18)
(0.077735 0.135943 -5.90777e-17)
(0.0825487 0.134396 6.94805e-18)
(0.087372 0.132733 -2.73463e-17)
(-0.120869 0.126103 2.46105e-18)
(-0.116518 0.127972 -1.89091e-17)
(-0.111472 0.130394 9.02267e-18)
(-0.106423 0.132672 -1.72821e-17)
(-0.101377 0.134815 6.63675e-17)
(-0.0963319 0.136821 8.8633e-18)
(-0.091288 0.138694 -3.13876e-18)
(-0.0862522 0.140443 8.73928e-19)
(-0.0812257 0.142071 -1.00073e-17)
(-0.0762125 0.143583 -3.03097e-17)
(-0.0712115 0.144977 5.20888e-17)
(-0.0662218 0.146257 1.49973e-17)
(-0.0612444 0.147431 6.4047e-18)
(-0.0562826 0.148502 -1.24822e-17)
(-0.0513367 0.149476 -1.37213e-17)
(-0.0463998 0.150347 3.68626e-17)
(-0.0414771 0.151127 7.05648e-18)
(-0.0365662 0.151813 3.86582e-18)
(-0.0316661 0.152411 -7.6102e-18)
(-0.0267768 0.152921 8.58591e-18)
(-0.0218972 0.153346 3.44535e-18)
(-0.017025 0.153686 1.49327e-17)
(-0.0121568 0.153935 -5.67448e-18)
(-0.00729253 0.154101 1.43797e-17)
(-0.00243146 0.154184 -1.49207e-17)
(0.00242844 0.154183 1.24034e-17)
(0.00728928 0.154097 2.54454e-18)
(0.0121539 0.153932 9.14984e-18)
(0.0170238 0.153682 -5.11334e-18)
(0.021898 0.153345 -4.51314e-18)
(0.0267789 0.152926 5.16053e-18)
(0.0316683 0.152417 -1.02919e-17)
(0.036567 0.151817 4.67582e-18)
(0.0414758 0.151124 3.91374e-18)
(0.046398 0.150342 3.05744e-17)
(0.0513326 0.149467 1.20297e-17)
(0.056281 0.148495 -2.27334e-17)
(0.0612435 0.147422 -1.40087e-17)
(0.0662206 0.146249 -1.01247e-17)
(0.0712122 0.144969 3.43661e-17)
(0.0762146 0.143576 -3.03783e-18)
(0.0812295 0.14207 -5.67614e-17)
(0.0862545 0.140444 8.47436e-18)
(0.0912887 0.138696 -2.8572e-17)
(-0.126322 0.131738 4.1504e-18)
(-0.121762 0.133736 -1.88373e-17)
(-0.116501 0.136283 8.90163e-18)
(-0.111235 0.13868 -1.70385e-17)
(-0.10597 0.140933 6.6811e-17)
(-0.100705 0.143045 7.63812e-18)
(-0.0954406 0.145017 -2.81046e-18)
(-0.0901824 0.146858 2.09708e-18)
(-0.0849329 0.148572 -7.63623e-18)
(-0.0796959 0.150163 -2.79999e-17)
(-0.0744708 0.151631 5.44931e-17)
(-0.0692563 0.152978 1.50764e-17)
(-0.0640543 0.154215 7.69791e-18)
(-0.0588671 0.155342 -1.22724e-17)
(-0.0536962 0.156368 -1.47402e-17)
(-0.0485345 0.157286 3.74066e-17)
(-0.0433865 0.158107 7.84354e-18)
(-0.0382507 0.15883 5.8181e-18)
(-0.0331257 0.15946 -5.79562e-18)
(-0.0280115 0.159997 8.97287e-18)
(-0.0229071 0.160444 4.1438e-18)
(-0.0178105 0.160802 1.57117e-17)
(-0.012718 0.161065 -5.4062e-18)
(-0.00762921 0.161239 1.47771e-17)
(-0.0025437 0.161326 -1.51814e-17)
(0.00254053 0.161325 1.21757e-17)
(0.00762589 0.161235 1.49333e-18)
(0.0127151 0.161062 8.48154e-18)
(0.0178094 0.160798 -4.93991e-18)
(0.0229082 0.160443 -4.8863e-18)
(0.0280138 0.160002 3.61274e-18)
(0.0331279 0.159466 -1.09786e-17)
(0.0382514 0.158834 6.01652e-18)
(0.0433853 0.158105 6.10211e-18)
(0.0485326 0.157282 3.0393e-17)
(0.0536921 0.156359 1.19582e-17)
(0.0588658 0.155336 -2.18625e-17)
(0.0640532 0.154206 -1.27105e-17)
(0.0692555 0.15297 -1.07679e-17)
(0.0744714 0.151623 3.52248e-17)
(0.0796979 0.150156 1.56993e-19)
(0.0849365 0.14857 -5.47699e-17)
(0.0901843 0.146858 1.03167e-17)
(0.0954408 0.145018 -2.99539e-17)
(-0.132085 0.137692 6.20089e-18)
(-0.127306 0.13983 -1.90861e-17)
(-0.12182 0.142512 9.54874e-18)
(-0.116327 0.145038 -1.6032e-17)
(-0.110832 0.147412 6.70536e-17)
(-0.105338 0.149638 6.0669e-18)
(-0.0998403 0.151716 -2.81693e-18)
(-0.0943482 0.153657 3.32531e-18)
(-0.0888639 0.155465 -5.15864e-18)
(-0.083391 0.157143 -2.51046e-17)
(-0.0779289 0.158691 5.69566e-17)
(-0.0724772 0.160112 1.53095e-17)
(-0.0670374 0.161417 9.1688e-18)
(-0.0616116 0.162606 -1.14532e-17)
(-0.0562024 0.163688 -1.5388e-17)
(-0.0508023 0.164657 3.75883e-17)
(-0.0454154 0.165523 9.04463e-18)
(-0.0400409 0.166288 7.64368e-18)
(-0.0346772 0.166953 -3.93489e-18)
(-0.0293241 0.167519 9.37331e-18)
(-0.0239808 0.16799 4.77585e-18)
(-0.0186456 0.168368 1.66192e-17)
(-0.0133146 0.168646 -5.21428e-18)
(-0.00798721 0.16883 1.50994e-17)
(-0.00266307 0.168922 -1.52883e-17)
(0.00265972 0.16892 1.19285e-17)
(0.00798385 0.168825 6.35196e-19)
(0.0133118 0.168644 7.79698e-18)
(0.0186446 0.168364 -4.84823e-18)
(0.0239821 0.167989 -4.97772e-18)
(0.0293265 0.167523 2.15559e-18)
(0.0346792 0.166958 -1.20856e-17)
(0.0400415 0.166292 7.22189e-18)
(0.0454142 0.165523 8.89527e-18)
(0.0508004 0.164654 2.9645e-17)
(0.0561984 0.16368 1.15656e-17)
(0.0616107 0.1626 -2.0628e-17)
(0.0670362 0.161408 -1.08278e-17)
(0.0724766 0.160105 -1.07522e-17)
(0.0779295 0.158682 3.63826e-17)
(0.0833926 0.157135 2.8667e-18)
(0.0888674 0.155462 -5.25801e-17)
(0.0943498 0.153657 1.19935e-17)
(0.0998404 0.151717 -3.16644e-17)
(-0.13817 0.143977 9.0146e-18)
(-0.133162 0.146267 -1.9593e-17)
(-0.127442 0.149096 9.81647e-18)
(-0.121711 0.15176 -1.54512e-17)
(-0.115977 0.154265 6.8192e-17)
(-0.11024 0.156615 5.2778e-18)
(-0.104499 0.15881 -3.52682e-18)
(-0.098761 0.16086 4.35027e-18)
(-0.0930296 0.16277 -2.30415e-18)
(-0.087308 0.164543 -2.19898e-17)
(-0.081596 0.166177 5.90885e-17)
(-0.0758939 0.16768 1.62104e-17)
(-0.0702028 0.16906 1.10012e-17)
(-0.0645247 0.170316 -1.0621e-17)
(-0.0588633 0.171461 -1.57703e-17)
(-0.0532105 0.172486 3.72168e-17)
(-0.0475704 0.173401 1.05965e-17)
(-0.0419426 0.17421 9.31371e-18)
(-0.0363257 0.174914 -2.44064e-18)
(-0.0307189 0.175512 9.99486e-18)
(-0.0251219 0.17601 5.41527e-18)
(-0.0195332 0.176409 1.78395e-17)
(-0.0139488 0.176704 -5.14473e-18)
(-0.00836778 0.176899 1.52901e-17)
(-0.00278997 0.176996 -1.51209e-17)
(0.00278644 0.176994 1.15773e-17)