/*--------------------------------*- C++ -*----------------------------------*\
  =========                 |
  \\      /  F ield         | OpenFOAM: The Open Source CFD Toolbox
   \\    /   O peration     | Website:  https://openfoam.org
    \\  /    A nd           | Version:  7
     \\/     M anipulation  |
\*---------------------------------------------------------------------------*/
FoamFile
{
    version     2.0;
    format      ascii;
    class       volVectorField;
    location    "56000";
    object      vorticity;
}
// * * * * * * * * * * * * * * * * * * * * * * * * * * * * * * * * * * * * * //

dimensions      [0 0 -1 0 0 0 0];

internalField   nonuniform List<vector> 
1762
(
(0.0243295 -0.0102741 -1.9701e-17)
(0.0239806 -0.0116444 -4.05204e-18)
(0.0235842 -0.0130135 5.44706e-18)
(0.0231391 -0.0143804 -1.39178e-17)
(0.0226437 -0.0157437 -1.79477e-17)
(0.0220966 -0.0171016 7.59393e-18)
(0.0214892 -0.0184592 -6.93978e-19)
(0.0215204 -0.0191105 1.36616e-17)
(0.0251488 -0.0106133 -1.97108e-17)
(0.0247879 -0.0120293 -5.15627e-18)
(0.0243779 -0.0134444 6.76881e-18)
(0.0239173 -0.0148574 -1.33642e-17)
(0.0234046 -0.016267 -1.86222e-17)
(0.0228382 -0.0176712 8.73217e-18)
(0.0222097 -0.019075 -7.97281e-19)
(0.0222141 -0.0197759 1.26679e-17)
(0.0272783 -0.000730287 -7.1541e-18)
(0.0272335 -0.00219098 -8.31948e-18)
(0.0271437 -0.00365203 1.02307e-17)
(0.0270086 -0.00511362 1.08419e-17)
(0.0268276 -0.00657586 -2.38589e-18)
(0.0266001 -0.00803881 2.12833e-17)
(0.0263251 -0.00950235 -9.4756e-19)
(0.0260015 -0.0109662 -1.96796e-17)
(0.0256283 -0.01243 -8.15132e-18)
(0.0252041 -0.013893 8.39292e-18)
(0.0247275 -0.0153541 -1.16263e-17)
(0.0241968 -0.0168119 -1.75064e-17)
(0.0236106 -0.0182644 1.00305e-17)
(0.0229601 -0.0197164 -1.08675e-18)
(0.0229371 -0.0204686 9.52692e-18)
(0.0280707 0.00377389 1.91054e-17)
(0.0281635 0.00226406 1.88876e-17)
(0.0282098 0.000754642 -7.07518e-18)
(0.0282098 -0.00075464 -7.06719e-18)
(0.0281635 -0.00226406 -8.46587e-18)
(0.0280707 -0.00377389 1.11322e-17)
(0.0279311 -0.00528435 1.21519e-17)
(0.027744 -0.0067956 -9.05887e-19)
(0.0275088 -0.00830769 1.94114e-17)
(0.0272244 -0.00982057 -1.28512e-18)
(0.0268899 -0.011334 -1.87462e-17)
(0.0265039 -0.0128475 -1.22996e-17)
(0.026065 -0.0143604 9.20034e-18)
(0.0255718 -0.0158716 -9.19263e-18)
(0.0250225 -0.0173797 -1.5532e-17)
(0.0244155 -0.0188826 1.20079e-17)
(0.0237422 -0.0203849 -1.724e-18)
(0.0236911 -0.0211905 5.96463e-18)
(0.029037 0.00390093 2.11572e-17)
(0.0291329 0.00234024 1.99759e-17)
(0.0291807 0.000780029 -7.52911e-18)
(0.0291807 -0.000780026 -6.46194e-18)
(0.0291329 -0.00234024 -8.65765e-18)
(0.029037 -0.00390092 1.08888e-17)
(0.0288927 -0.00546234 1.26497e-17)
(0.0286993 -0.00702468 -1.20318e-19)
(0.0284562 -0.00858803 1.75361e-17)
(0.0281622 -0.0101524 -1.94797e-18)
(0.0278162 -0.0117174 -1.70242e-17)
(0.0274169 -0.0132828 -1.60394e-17)
(0.0269628 -0.0148478 9.15681e-18)
(0.0264523 -0.0164114 -7.89171e-18)
(0.0258837 -0.017972 -1.38709e-17)
(0.0252552 -0.0195275 1.44481e-17)
(0.0245582 -0.0210824 -2.09027e-18)
(0.0244782 -0.0219433 1.86928e-18)
(0.0300451 0.00403348 2.23515e-17)
(0.0301442 0.00241973 2.13166e-17)
(0.0301937 0.000806518 -8.02823e-18)
(0.0301937 -0.000806515 -5.40738e-18)
(0.0301442 -0.00241973 -8.59012e-18)
(0.0300451 -0.00403348 9.77009e-18)
(0.029896 -0.00564806 1.23428e-17)
(0.0296961 -0.00726372 -4.54361e-19)
(0.0294447 -0.00888057 1.59743e-17)
(0.0291407 -0.0104986 -2.31766e-18)
(0.0287828 -0.0121176 -1.44691e-17)
(0.0283697 -0.0137372 -1.84567e-17)
(0.0278999 -0.0153566 8.95974e-18)
(0.0273715 -0.0169748 -6.62608e-18)
(0.0267828 -0.0185903 -1.26622e-17)
(0.0261319 -0.0202008 1.64844e-17)
(0.0254103 -0.0218107 -2.08796e-18)
(0.0253005 -0.0227291 -1.77051e-18)
(0.031098 0.00417191 2.30107e-17)
(0.0312004 0.00250275 2.30914e-17)
(0.0312515 0.000834181 -8.97538e-18)
(0.0312515 -0.000834178 -4.35207e-18)
(0.0312004 -0.00250274 -7.93893e-18)
(0.031098 -0.00417191 8.80142e-18)
(0.0309438 -0.00584203 1.20026e-17)
(0.0307371 -0.00751338 -8.01131e-19)
(0.0304772 -0.00918612 1.44314e-17)
(0.0301628 -0.0108603 -2.99051e-18)
(0.0297926 -0.0125356 -1.19082e-17)
(0.0293652 -0.0142118 -1.98984e-17)
(0.0288789 -0.0158882 8.58106e-18)
(0.0283318 -0.0175635 -4.49635e-18)
(0.0277222 -0.0192363 -1.15265e-17)
(0.0270481 -0.0209044 1.73751e-17)
(0.0263007 -0.0225718 -2.45212e-18)
(0.0261603 -0.0235502 -3.918e-18)
(0.0321984 0.00431663 2.27338e-17)
(0.0323043 0.00258952 2.51875e-17)
(0.0323571 0.000863099 -9.63509e-18)
(0.0323571 -0.000863096 -3.81599e-18)
(0.0323043 -0.00258952 -7.75462e-18)
(0.0321984 -0.00431663 8.20832e-18)
(0.032039 -0.00604481 1.19991e-17)
(0.0318254 -0.00777439 -1.10256e-18)
(0.0315565 -0.00950557 1.26224e-17)
(0.0312313 -0.0112384 -4.47305e-18)
(0.0308483 -0.0129727 -9.4835e-18)
(0.030406 -0.0147082 -2.02187e-17)
(0.0299026 -0.016444 8.00501e-18)
(0.0293362 -0.0181791 -2.73245e-18)
(0.0287048 -0.019912 -1.01237e-17)
(0.0280064 -0.0216403 1.80416e-17)
(0.0272322 -0.023368 -2.71446e-18)
(0.0270601 -0.0244088 -6.42441e-18)
(0.0333499 0.00446805 2.18786e-17)
(0.0334593 0.00268032 2.69932e-17)
(0.0335139 0.000893356 -9.19991e-18)
(0.0335139 -0.000893353 -3.0029e-18)
(0.0334593 -0.00268032 -8.21109e-18)
(0.0333499 -0.00446805 6.70809e-18)
(0.033185 -0.00625699 1.2063e-17)
(0.0329641 -0.00804751 -6.56032e-19)
(0.032686 -0.00983985 1.12588e-17)
(0.0323495 -0.0116341 -5.62734e-18)
(0.0319532 -0.0134301 -7.62315e-18)
(0.0314953 -0.0152276 -2.0901e-17)
(0.0309741 -0.0170257 8.27181e-18)
(0.0303875 -0.0188235 -2.17024e-18)
(0.0297334 -0.0206193 -8.73408e-18)
(0.0290097 -0.0224107 1.95005e-17)
(0.0282075 -0.0242016 -2.7495e-18)
(0.0280026 -0.0253077 -9.19263e-18)
(0.0345558 0.00462665 2.10116e-17)
(0.034669 0.00277543 2.82169e-17)
(0.0347254 0.000925047 -7.56007e-18)
(0.0347254 -0.000925044 -1.87433e-18)
(0.034669 -0.00277542 -9.50316e-18)
(0.0345558 -0.00462665 4.89376e-18)
(0.0343853 -0.00647923 1.24546e-17)
(0.0341567 -0.00833359 -2.13666e-19)
(0.033869 -0.01019 9.59357e-18)
(0.0335208 -0.0120486 -6.10066e-18)
(0.0331106 -0.0139093 -6.07262e-18)
(0.0326365 -0.0157718 -2.23081e-17)
(0.0320967 -0.0176353 9.81725e-18)
(0.0314891 -0.0194987 -2.76103e-18)
(0.0308112 -0.0213604 -7.76838e-18)
(0.030061 -0.023218 2.22966e-17)
(0.0292297 -0.0250752 -2.43738e-18)
(0.0289909 -0.0262494 -1.28286e-17)
(0.03582 0.00479294 2.02165e-17)
(0.0359371 0.00287513 2.87194e-17)
(0.0359955 0.000958272 -5.3048e-18)
(0.0359955 -0.000958269 -3.50192e-19)
(0.0359371 -0.00287513 -1.11921e-17)
(0.03582 -0.00479293 3.29929e-18)
(0.0356436 -0.00671225 1.31579e-17)
(0.0354071 -0.00863354 -5.09992e-19)
(0.0351093 -0.0105572 7.29849e-18)
(0.0347489 -0.0124833 -6.00141e-18)
(0.0343242 -0.0144118 -4.24348e-18)
(0.0338333 -0.0163425 -2.41956e-17)
(0.0332741 -0.0182745 1.17991e-17)
(0.0326444 -0.0202068 -4.3647e-18)
(0.0319418 -0.0221378 -8.1558e-18)
(0.0311639 -0.0240649 2.66293e-17)
(0.030302 -0.0259917 -8.36491e-19)
(0.030028 -0.0272372 -1.59897e-17)
(0.0369641 0.0069568 -1.19468e-17)
(0.0371467 0.00496745 1.96439e-17)
(0.0372679 0.00297978 2.87022e-17)
(0.0373283 0.000993142 -3.26965e-18)
(0.0373283 -0.000993139 1.2209e-18)
(0.0372679 -0.00297977 -1.28543e-17)
(0.0371467 -0.00496745 2.04321e-18)
(0.0369641 -0.0069568 1.41511e-17)
(0.0367194 -0.00894836 -1.05198e-18)
(0.0364111 -0.0109425 4.89894e-18)
(0.0360379 -0.0129395 -5.39109e-18)
(0.0355981 -0.0149393 -2.48828e-18)
(0.0350896 -0.0169415 -2.64029e-17)
(0.0345101 -0.0189455 1.40463e-17)
(0.0338574 -0.0209503 -6.30571e-18)
(0.0331289 -0.0229539 -1.01909e-17)
(0.032322 -0.0249541 3.08018e-17)
(0.0314281 -0.0269541 1.57337e-18)
(0.0311175 -0.0282743 -1.70456e-17)
(0.0383515 0.00721375 -1.10677e-17)
(0.0385405 0.0051508 1.99061e-17)
(0.0386659 0.00308972 2.86387e-17)
(0.0387285 0.00102978 -1.86268e-18)
(0.0387285 -0.00102977 2.30511e-18)
(0.0386659 -0.00308971 -1.46795e-17)
(0.0385405 -0.0051508 1.01585e-18)
(0.0383515 -0.00721374 1.49566e-17)
(0.0380981 -0.00927914 -1.37116e-18)
(0.0377789 -0.0113474 2.47437e-18)
(0.0373924 -0.0134189 -4.34151e-18)
(0.0369367 -0.0154935 -7.28272e-19)
(0.0364097 -0.017571 -2.85271e-17)
(0.0358091 -0.0196508 1.57318e-17)
(0.0351322 -0.0217316 -8.9283e-18)
(0.0343765 -0.0238118 -1.33464e-17)
(0.0335394 -0.0258887 3.43134e-17)
(0.0326118 -0.0279658 3.48533e-18)
(0.0322632 -0.0293643 -1.64306e-17)
(0.0398107 0.007484 -1.06674e-17)
(0.0400064 0.00534365 2.13802e-17)
(0.0401363 0.00320534 2.94085e-17)
(0.040201 0.00106831 -1.29936e-18)
(0.040201 -0.0010683 2.53142e-18)
(0.0401363 -0.00320534 -1.68025e-17)
(0.0400064 -0.00534365 1.65317e-19)
(0.0398107 -0.007484 1.56456e-17)
(0.0395482 -0.00962705 -2.01955e-18)
(0.0392175 -0.0117733 6.1881e-19)
(0.038817 -0.0139232 -2.85809e-18)
(0.0383448 -0.0160766 1.05222e-18)
(0.0377985 -0.0182333 -2.95346e-17)
(0.0371756 -0.0203927 1.8113e-17)
(0.0364735 -0.0225536 -1.26379e-17)
(0.0356893 -0.0247143 -1.70519e-17)
(0.0348203 -0.0268722 3.62939e-17)
(0.0338575 -0.0290304 3.77051e-18)
(0.0334692 -0.0305111 -1.41699e-17)
(0.041347 0.00776856 -1.07071e-17)
(0.0415498 0.00554671 2.30823e-17)
(0.0416843 0.0033271 3.05342e-17)
(0.0417514 0.00110888 -1.40582e-18)
(0.0417514 -0.00110887 2.54032e-18)
(0.0416843 -0.00332709 -1.86704e-17)
(0.0415498 -0.00554671 -1.01549e-18)
(0.041347 -0.00776856 1.58776e-17)
(0.041075 -0.00999341 -3.48153e-18)
(0.0407324 -0.0122218 -4.44678e-19)
(0.0403173 -0.0144542 -9.95755e-19)
(0.0398276 -0.0166906 2.52422e-18)
(0.0392611 -0.0189307 -2.96461e-17)
(0.0386149 -0.0211741 2.14583e-17)
(0.0378863 -0.0234194 -1.57419e-17)
(0.0370722 -0.025665 -1.92169e-17)
(0.0361698 -0.0279082 3.6243e-17)
(0.0351699 -0.030152 3.11097e-18)
(0.0347401 -0.0317192 -1.13906e-17)
(0.0429666 0.00806856 -1.03699e-17)
(0.0431767 0.00576077 2.47592e-17)
(0.0433161 0.00345544 3.10527e-17)
(0.0433857 0.00115164 -1.89895e-18)
(0.0433857 -0.00115164 2.68172e-18)
(0.0433161 -0.00345544 -2.03241e-17)
(0.0431767 -0.00576077 -2.52864e-18)
(0.0429666 -0.00806856 1.62081e-17)
(0.0426846 -0.0103796 -5.61118e-18)
(0.0423294 -0.0126946 -2.23282e-18)
(0.0418989 -0.015014 1.18393e-18)
(0.041391 -0.0173379 3.70672e-18)
(0.0408032 -0.0196661 -2.96984e-17)
(0.0401326 -0.021998 2.48796e-17)
(0.0393761 -0.0243324 -1.88155e-17)
(0.0385306 -0.0266676 -2.06976e-17)
(0.037593 -0.0290007 3.52968e-17)
(0.036554 -0.0313349 1.51666e-18)
(0.0360808 -0.0329931 -7.92729e-18)
(0.0446759 0.00838519 -9.70438e-18)
(0.0448937 0.0059867 2.60422e-17)
(0.0450383 0.0035909 3.07445e-17)
(0.0451104 0.00119678 -2.18497e-18)
(0.0451104 -0.00119678 3.49273e-18)
(0.0450383 -0.0035909 -2.17556e-17)
(0.0448937 -0.00598669 -4.69494e-18)
(0.0446759 -0.00838519 1.66545e-17)
(0.0443835 -0.0107873 -7.20749e-18)
(0.044015 -0.0131937 -5.05964e-18)
(0.0435684 -0.015605 2.92373e-18)
(0.0430413 -0.0180213 5.70362e-18)
(0.0424311 -0.0204424 -2.9891e-17)
(0.0417347 -0.0228678 2.74106e-17)
(0.0409489 -0.0252963 -2.13051e-17)
(0.0400703 -0.0277261 -2.26268e-17)
(0.0390957 -0.0301543 3.36744e-17)
(0.0380157 -0.0325839 -4.75514e-19)
(0.037497 -0.0343381 -3.90583e-18)
(0.0464821 0.00871979 -9.14809e-18)
(0.0467081 0.00622545 2.67575e-17)
(0.0468581 0.00373405 3.08874e-17)
(0.0469329 0.00124448 -1.91692e-18)
(0.0469329 -0.00124448 4.35002e-18)
(0.0468581 -0.00373405 -2.28284e-17)
(0.0467081 -0.00622544 -7.48997e-18)
(0.0464821 -0.00871979 1.71045e-17)
(0.0461787 -0.0112181 -7.99377e-18)
(0.0457963 -0.0137212 -8.10295e-18)
(0.0453327 -0.0162296 3.84009e-18)
(0.0447855 -0.0187435 8.00029e-18)
(0.0441517 -0.021263 -2.97118e-17)
(0.0434282 -0.0237872 2.96081e-17)
(0.0426116 -0.0263152 -2.25151e-17)
(0.0416981 -0.028845 -2.41592e-17)
(0.0406844 -0.0313738 3.19018e-17)
(0.039561 -0.0339044 -1.75753e-18)
(0.0389946 -0.0357599 -6.65042e-20)
(0.0483933 0.00907385 -8.7398e-18)
(0.0486279 0.00647807 2.74079e-17)
(0.0487836 0.00388552 3.1695e-17)
(0.0488612 0.00129495 -1.44904e-18)
(0.0488612 -0.00129495 4.67297e-18)
(0.0487836 -0.00388552 -2.33283e-17)
(0.0486279 -0.00647807 -1.06467e-17)
(0.0483933 -0.00907385 1.72703e-17)
(0.0480783 -0.011674 -8.03674e-18)
(0.0476812 -0.0142793 -1.12686e-17)
(0.0471997 -0.0168905 3.83004e-18)
(0.0466312 -0.0195079 1.02855e-17)
(0.0459726 -0.0221313 -2.89984e-17)
(0.0452206 -0.0247603 3.15918e-17)
(0.0443713 -0.0273936 -2.33262e-17)
(0.043421 -0.0300293 -2.53235e-17)
(0.0423661 -0.0326646 3.02066e-17)
(0.0411968 -0.0353021 -3.44497e-18)
(0.0405802 -0.0372648 3.58889e-18)
(0.0504182 0.009449 -8.45708e-18)
(0.0506619 0.00674574 2.80042e-17)
(0.0508236 0.004046 3.31797e-17)
(0.0509042 0.00134842 -8.99527e-19)
(0.0509042 -0.00134842 4.34281e-18)
(0.0508236 -0.004046 -2.29935e-17)
(0.0506619 -0.00674574 -1.34164e-17)
(0.0504182 -0.009449 1.64758e-17)
(0.050091 -0.012157 -7.43113e-18)
(0.0496784 -0.0148707 -1.43008e-17)
(0.049178 -0.0175908 3.09381e-18)
(0.0485871 -0.0203178 1.25001e-17)
(0.0479023 -0.0230515 -2.81038e-17)
(0.04712 -0.0257914 3.34646e-17)
(0.0462363 -0.0285364 -2.44878e-17)
(0.0452472 -0.0312845 -2.60277e-17)
(0.0441486 -0.0340328 2.83357e-17)
(0.0429308 -0.0367837 -5.84656e-18)
(0.0422612 -0.0388598 7.46925e-18)
(0.0525666 0.00984704 -8.45051e-18)
(0.0528199 0.00702974 2.77856e-17)
(0.0529879 0.00421627 3.50604e-17)
(0.0530716 0.00140516 -2.50377e-19)
(0.0530716 -0.00140516 3.42385e-18)
(0.0529879 -0.00421627 -2.22981e-17)
(0.0528199 -0.00702974 -1.53363e-17)
(0.0525666 -0.00984704 1.47915e-17)
(0.0522265 -0.0126695 -6.62521e-18)
(0.0517975 -0.0154982 -1.70421e-17)
(0.0512772 -0.018334 1.82032e-18)
(0.0506625 -0.0211772 1.45563e-17)
(0.04995 -0.024028 -2.70177e-17)
(0.0491358 -0.0268858 3.55053e-17)
(0.0482157 -0.0297493 -2.55684e-17)
(0.0471853 -0.0326166 -2.67346e-17)
(0.0460405 -0.0354848 2.69846e-17)
(0.0447713 -0.0383563 -8.38159e-18)
(0.0440459 -0.0405526 1.14705e-17)
(0.0548493 0.01027 -8.53389e-18)
(0.0551128 0.0073315 2.68693e-17)
(0.0552875 0.00439719 3.67232e-17)
(0.0553746 0.00146544 4.05813e-19)
(0.0553746 -0.00146544 2.24545e-18)
(0.0552875 -0.00439719 -2.17e-17)
(0.0551128 -0.0073315 -1.6618e-17)
(0.0548493 -0.01027 1.35203e-17)
(0.0544955 -0.0132141 -6.11756e-18)
(0.0540493 -0.016165 -2.02804e-17)
(0.0535078 -0.0191236 6.53616e-19)
(0.0528679 -0.0220905 1.65699e-17)
(0.0521261 -0.0250657 -2.63544e-17)
(0.051278 -0.0280487 3.77626e-17)
(0.0503193 -0.0310383 -2.57649e-17)
(0.0492453 -0.0340325 -2.82061e-17)
(0.0480515 -0.0370282 2.64704e-17)
(0.0467277 -0.0400278 -1.14001e-17)
(0.0459432 -0.0423518 1.4272e-17)
(0.0572785 0.0107201 -8.80183e-18)
(0.0575527 0.00765263 2.56528e-17)
(0.0577345 0.00458972 3.79286e-17)
(0.0578251 0.00152959 7.30058e-19)
(0.0578251 -0.00152959 1.03375e-18)
(0.0577345 -0.00458971 -2.10568e-17)
(0.0575527 -0.00765262 -1.73165e-17)
(0.0572785 -0.0107201 1.26363e-17)
(0.0569102 -0.0137936 -6.06285e-18)
(0.0564455 -0.0168746 -2.44067e-17)
(0.0558816 -0.0199641 1.60672e-19)
(0.0552151 -0.0230625 1.93529e-17)
(0.0544421 -0.0261702 -2.62182e-17)
(0.0535581 -0.0292865 3.96858e-17)
(0.0525584 -0.0324103 -2.48178e-17)
(0.0514381 -0.0355395 -2.99996e-17)
(0.0501922 -0.038671 2.53128e-17)
(0.0488104 -0.0418071 -1.20925e-17)
(0.0479632 -0.0442669 1.55475e-17)
(0.0598675 0.0111998 -8.48487e-18)
(0.0601531 0.00799489 2.46495e-17)
(0.0603425 0.00479491 3.83396e-17)
(0.0604369 0.00159796 5.91771e-19)
(0.0604369 -0.00159796 -2.16707e-19)
(0.0603425 -0.00479491 -2.0233e-17)
(0.0601531 -0.00799489 -1.7545e-17)
(0.0598675 -0.0111998 1.21959e-17)
(0.0594838 -0.0144113 -6.33402e-18)
(0.0589996 -0.017631 -2.91656e-17)
(0.0584119 -0.0208599 5.19632e-20)
(0.057717 -0.0240987 2.21821e-17)
(0.0569109 -0.0273475 -2.66802e-17)
(0.0559887 -0.030606 4.16531e-17)
(0.0549455 -0.0338729 -2.2587e-17)
(0.0537758 -0.0371461 -3.15999e-17)
(0.0524745 -0.0404224 2.26262e-17)
(0.0510309 -0.043704 -1.09852e-17)
(0.0501171 -0.0463086 1.60932e-17)
(0.0626314 0.0117119 -7.52458e-18)
(0.0629292 0.00836028 2.33886e-17)
(0.0631266 0.00501398 3.77936e-17)
(0.063225 0.00167096 3.53876e-19)
(0.063225 -0.00167096 -1.02277e-18)
(0.0631266 -0.00501398 -1.91762e-17)
(0.0629292 -0.00836028 -1.72492e-17)
(0.0626314 -0.0117119 1.18402e-17)
(0.0622314 -0.0150708 -6.92076e-18)
(0.0617264 -0.0184385 -3.38733e-17)
(0.0611133 -0.0218163 -6.43105e-19)
(0.0603883 -0.0252049 2.5292e-17)
(0.0595468 -0.0286046 -2.83578e-17)
(0.058584 -0.0320149 4.33475e-17)
(0.0574943 -0.0354346 -1.92763e-17)
(0.0562721 -0.0388616 -3.18791e-17)
(0.0549118 -0.0422926 2.00042e-17)
(0.0534022 -0.0457297 -1.00753e-17)
(0.0524175 -0.0484887 1.7725e-17)
(0.0655872 0.0122596 -6.46548e-18)
(0.065898 0.00875105 2.18022e-17)
(0.066104 0.00524825 3.67319e-17)
(0.0662067 0.00174902 4.32389e-19)
(0.0662067 -0.00174902 -1.53473e-18)
(0.066104 -0.00524825 -1.80187e-17)
(0.065898 -0.00875105 -1.62644e-17)
(0.0655873 -0.0122596 1.13714e-17)
(0.0651697 -0.0157761 -7.87927e-18)
(0.0646426 -0.0193021 -3.82943e-17)
(0.0640024 -0.0228391 -2.27956e-18)
(0.0632452 -0.026388 2.76611e-17)
(0.0623661 -0.029949 -3.07474e-17)
(0.0613598 -0.0335218 4.50697e-17)
(0.0602206 -0.037105 -1.55372e-17)
(0.0589423 -0.0406966 -3.22307e-17)
(0.0575188 -0.044293 1.74395e-17)
(0.0559388 -0.0478965 -8.83864e-18)
(0.0548784 -0.0508205 2.17169e-17)
(0.0687539 0.0128464 -4.92164e-18)
(0.0690785 0.00916969 2.04942e-17)
(0.0692937 0.00549924 3.5244e-17)
(0.0694009 0.00183264 5.52619e-19)
(0.0694009 -0.00183264 -1.82293e-18)
(0.0692937 -0.00549924 -1.70142e-17)
(0.0690785 -0.00916969 -1.48387e-17)
(0.0687539 -0.0128464 1.06054e-17)
(0.0683177 -0.0165317 -8.71145e-18)
(0.0677669 -0.0202274 -4.20185e-17)
(0.0670978 -0.023935 -4.06664e-18)
(0.0663061 -0.0276556 2.94295e-17)
(0.0653868 -0.0313895 -3.43831e-17)
(0.0643341 -0.0351363 4.64057e-17)
(0.0631418 -0.0388948 -1.07447e-17)
(0.0618035 -0.0426627 -3.37091e-17)
(0.0603125 -0.0464365 1.40038e-17)
(0.058657 -0.0502183 -9.25851e-18)
(0.0575156 -0.053319 2.62599e-17)
(0.0721529 0.0134763 -3.21412e-18)
(0.0724923 0.00961905 1.94241e-17)
(0.0727173 0.00576864 3.36628e-17)
(0.0728294 0.00192241 6.45891e-19)
(0.0728294 -0.00192241 -1.97201e-18)
(0.0727173 -0.00576864 -1.6165e-17)
(0.0724923 -0.00961905 -1.30396e-17)
(0.0721529 -0.0134763 9.28786e-18)
(0.0716966 -0.0173428 -9.5666e-18)
(0.0711204 -0.0212206 -4.45813e-17)
(0.0704204 -0.0251114 -5.686e-18)
(0.0695918 -0.0290163 3.15363e-17)
(0.0686293 -0.0329358 -3.87127e-17)
(0.0675269 -0.0368695 4.70903e-17)
(0.0662778 -0.0408161 -6.30857e-18)
(0.064875 -0.0447734 -3.59012e-17)
(0.0633116 -0.0487376 9.6615e-18)
(0.0615752 -0.0527107 -9.80263e-18)
(0.060347 -0.0560011 3.04811e-17)
(0.0753307 0.0182151 -1.59056e-17)
(0.0758084 0.0141537 -1.16317e-18)
(0.0761638 0.0101023 1.83847e-17)
(0.0763993 0.00605837 3.18746e-17)
(0.0765167 0.00201895 6.08694e-19)
(0.0765167 -0.00201895 -2.3278e-18)
(0.0763993 -0.00605837 -1.52872e-17)
(0.0761638 -0.0101023 -1.08626e-17)
(0.0758084 -0.0141537 8.21433e-18)
(0.0753307 -0.0182151 -1.11705e-17)
(0.0747272 -0.0222888 -4.6309e-17)
(0.0739939 -0.0263766 -6.4433e-18)
(0.0731257 -0.0304798 3.34566e-17)
(0.0721168 -0.0345989 -4.26332e-17)
(0.0709609 -0.0387336 4.79685e-17)
(0.0696507 -0.0428826 -2.29915e-18)
(0.0681788 -0.0470435 -3.78e-17)
(0.0665375 -0.0512125 5.42657e-18)
(0.064714 -0.0553915 -9.88241e-18)
(0.0633925 -0.0588857 3.44399e-17)
(0.0792472 0.0191552 -1.39941e-17)
(0.079748 0.0148837 1.01733e-18)
(0.0801206 0.0106232 1.69465e-17)
(0.0803674 0.00637062 3.02099e-17)
(0.0804904 0.00212299 3.68352e-19)
(0.0804904 -0.00212299 -3.13551e-18)
(0.0803674 -0.00637062 -1.40417e-17)
(0.0801206 -0.0106232 -8.39218e-18)
(0.079748 -0.0148837 7.62348e-18)
(0.0792472 -0.0191552 -1.3452e-17)
(0.0786143 -0.02344 -4.79232e-17)
(0.0778452 -0.0277402 -6.58691e-18)
(0.0769343 -0.0320571 3.45542e-17)
(0.0758755 -0.0363914 -4.61482e-17)
(0.074662 -0.0407427 4.92054e-17)
(0.073286 -0.0451098 3.50021e-18)
(0.0717396 -0.0494902 -3.93278e-17)
(0.0700144 -0.0538799 4.68078e-19)
(0.068097 -0.0582807 -1.01381e-17)
(0.0666749 -0.0619944 3.77056e-17)
(0.0834772 0.0201706 -1.29472e-17)
(0.084003 0.0156722 3.11702e-18)
(0.0843941 0.0111857 1.50146e-17)
(0.0846532 0.00670787 2.90158e-17)
(0.0847823 0.00223536 1.85426e-19)
(0.0847823 -0.00223536 -4.53359e-18)
(0.0846532 -0.00670787 -1.28822e-17)
(0.0843941 -0.0111857 -5.95861e-18)
(0.084003 -0.0156722 7.6138e-18)
(0.0834772 -0.0201706 -1.52693e-17)
(0.0828127 -0.0246834 -4.9905e-17)
(0.0820048 -0.0292129 -7.35261e-18)
(0.0810478 -0.0337606 3.51428e-17)
(0.0799352 -0.0383273 -4.91812e-17)
(0.0786594 -0.0429126 5.00068e-17)
(0.0772124 -0.0475153 9.21907e-18)
(0.0755854 -0.0521327 -3.95557e-17)
(0.0737696 -0.0567607 -4.74278e-18)
(0.0717508 -0.061401 -1.04411e-17)
(0.07022 -0.0653515 4.05635e-17)
(0.0880562 0.0212697 -1.12654e-17)
(0.0886091 0.0165258 4.56984e-18)
(0.0890202 0.0117947 1.23574e-17)
(0.0892926 0.00707296 2.82776e-17)
(0.0894283 0.002357 -1.25026e-19)
(0.0894283 -0.002357 -6.14281e-18)
(0.0892926 -0.00707296 -1.16911e-17)
(0.0890202 -0.0117947 -3.93848e-18)
(0.0886091 -0.0165258 7.66294e-18)
(0.0880562 -0.0212697 -1.63128e-17)
(0.0873574 -0.0260294 -5.10039e-17)
(0.0865076 -0.0308072 -8.81598e-18)
(0.0855007 -0.0356047 3.56277e-17)
(0.0843297 -0.0404229 -5.13269e-17)
(0.0829866 -0.0452615 4.92673e-17)
(0.0814626 -0.0501192 1.44783e-17)
(0.0797484 -0.0549931 -3.90161e-17)
(0.0778344 -0.059879 -1.01078e-17)
(0.0757057 -0.0647783 -1.11321e-17)
(0.0740571 -0.0689849 4.26825e-17)
(0.093025 0.0224625 -9.17152e-18)
(0.0936072 0.017452 5.20579e-18)
(0.0940401 0.0124555 9.58595e-18)
(0.0943269 0.00746911 2.79545e-17)
(0.0944697 0.002489 -4.29903e-19)
(0.0944697 -0.002489 -7.55274e-18)
(0.0943269 -0.00746912 -1.03812e-17)
(0.0940401 -0.0124555 -2.38552e-18)
(0.0936072 -0.017452 7.48771e-18)
(0.093025 -0.0224625 -1.64844e-17)
(0.0922889 -0.0274899 -5.08286e-17)
(0.0913936 -0.0325371 -1.04586e-17)
(0.0903325 -0.0376057 3.54506e-17)
(0.089098 -0.0426968 -5.34674e-17)
(0.0876817 -0.0478101 4.81735e-17)
(0.0860742 -0.0529443 1.8705e-17)
(0.0842652 -0.0580964 -3.79162e-17)
(0.0822444 -0.0632619 -1.40894e-17)
(0.0799963 -0.0684421 -1.26101e-17)
(0.0782196 -0.0729264 4.35899e-17)
(0.09843 0.0237599 -7.98498e-18)
(0.0990443 0.0184596 5.14496e-18)
(0.099501 0.0131743 6.68088e-18)
(0.0998034 0.00790008 2.73114e-17)
(0.0999541 0.0026326 -7.78303e-19)
(0.0999541 -0.0026326 -8.4943e-18)
(0.0998034 -0.00790008 -8.92723e-18)
(0.099501 -0.0131743 -1.59565e-18)
(0.0990444 -0.0184596 7.00684e-18)
(0.09843 -0.0237599 -1.60896e-17)
(0.0976533 -0.0290787 -4.96183e-17)
(0.0967084 -0.0344188 -1.14491e-17)
(0.0955882 -0.0397822 3.48302e-17)
(0.0942847 -0.0451701 -5.5692e-17)
(0.0927886 -0.0505822 4.83698e-17)
(0.0910899 -0.056017 2.18485e-17)
(0.0891777 -0.0614715 -3.65033e-17)
(0.0870407 -0.066941 -1.66074e-17)
(0.0846624 -0.0724263 -1.44173e-17)
(0.0827459 -0.0772121 4.54619e-17)
(0.104325 0.025175 -7.97205e-18)
(0.104975 0.0195586 4.4368e-18)
(0.105457 0.0139584 3.95732e-18)
(0.105777 0.00837013 2.61311e-17)
(0.105936 0.00278922 -1.08481e-18)
(0.105936 -0.00278922 -9.19528e-18)
(0.105777 -0.00837013 -7.65257e-18)
(0.105457 -0.0139584 -9.05336e-19)
(0.104975 -0.0195586 5.88002e-18)
(0.104325 -0.025175 -1.65333e-17)
(0.103504 -0.0308115 -4.80247e-17)
(0.102505 -0.036471 -1.10598e-17)
(0.10132 -0.0421559 3.49979e-17)
(0.0999409 -0.0478673 -5.80828e-17)
(0.0983576 -0.053605 4.82998e-17)
(0.0965592 -0.0593675 2.3795e-17)
(0.094534 -0.0651516 -3.52729e-17)
(0.0922699 -0.0709521 -1.76056e-17)
(0.0897493 -0.0767697 -1.71749e-17)
(0.0876798 -0.0818836 4.65482e-17)
(0.110773 0.0267226 -8.4176e-18)
(0.11146 0.0207605 3.14003e-18)
(0.111971 0.0148159 9.24384e-19)
(0.11231 0.00888424 2.4102e-17)
(0.112479 0.00296052 -1.30156e-18)
(0.112479 -0.00296053 -9.59239e-18)
(0.11231 -0.00888424 -6.68725e-18)
(0.111971 -0.0148159 -1.30141e-19)
(0.11146 -0.0207605 4.47767e-18)
(0.110773 -0.0267226 -1.73322e-17)
(0.109903 -0.0327065 -4.70005e-17)
(0.108844 -0.0387153 -1.01156e-17)
(0.107588 -0.0447516 3.63799e-17)
(0.106126 -0.0508166 -6.05182e-17)
(0.104447 -0.0569101 4.80399e-17)
(0.102539 -0.0630306 2.66386e-17)
(0.10039 -0.0691746 -3.51276e-17)
(0.097986 -0.0753365 -1.7715e-17)
(0.0953093 -0.0815168 -1.96398e-17)
(0.0930717 -0.0869888 4.61142e-17)
(0.117844 0.02842 -8.87867e-18)
(0.118574 0.0220787 8.52081e-19)
(0.119117 0.0157564 -2.72702e-18)
(0.119476 0.00944815 2.13528e-17)
(0.119655 0.00314842 -1.3672e-18)
(0.119655 -0.00314842 -9.78151e-18)
(0.119476 -0.00944815 -5.97673e-18)
(0.119117 -0.0157564 4.68838e-19)
(0.118574 -0.0220787 2.65851e-18)
(0.117844 -0.02842 -1.76037e-17)
(0.11692 -0.0347848 -4.60729e-17)
(0.115796 -0.0411766 -9.90866e-18)
(0.114461 -0.047598 3.80622e-17)
(0.112908 -0.0540505 -6.19239e-17)
(0.111123 -0.060534 4.74939e-17)
(0.109095 -0.0670465 2.96979e-17)
(0.106809 -0.0735845 -3.35862e-17)
(0.104251 -0.0801421 -1.54434e-17)
(0.101403 -0.0867191 -2.13729e-17)
(0.0989795 -0.0925826 4.40844e-17)
(0.125623 0.0302873 -9.80664e-18)
(0.1264 0.023529 -1.57502e-18)
(0.126978 0.0167912 -6.71148e-18)
(0.12736 0.0100685 1.8258e-17)
(0.127551 0.00335514 -1.64892e-18)
(0.127551 -0.00335515 -9.71419e-18)
(0.12736 -0.0100685 -5.44167e-18)
(0.126978 -0.0167912 5.28437e-19)
(0.1264 -0.023529 4.59633e-19)
(0.125623 -0.0302873 -1.75913e-17)
(0.124639 -0.0370709 -4.3686e-17)
(0.123442 -0.0438837 -1.0187e-17)
(0.122021 -0.0507285 3.93506e-17)
(0.120366 -0.0576069 -6.21794e-17)
(0.118464 -0.0645186 4.68436e-17)
(0.116302 -0.0714617 3.14066e-17)
(0.113865 -0.0784322 -3.17888e-17)
(0.111138 -0.0854237 -1.19066e-17)
(0.108098 -0.0924356 -2.34105e-17)
(0.10547 -0.0987282 4.03039e-17)
(0.134207 0.0323476 -1.13497e-17)
(0.135036 0.0251293 -4.0501e-18)
(0.135653 0.0179331 -1.05439e-17)
(0.136061 0.0107532 1.52892e-17)
(0.136264 0.00358328 -2.51192e-18)
(0.136264 -0.00358328 -9.41172e-18)
(0.136061 -0.0107532 -4.4503e-18)
(0.135653 -0.0179331 5.48695e-19)
(0.135036 -0.0251293 -1.44841e-18)
(0.134207 -0.0323476 -1.75257e-17)
(0.133157 -0.0395932 -4.03094e-17)
(0.131878 -0.0468703 -1.00512e-17)
(0.13036 -0.0541818 4.05407e-17)
(0.128592 -0.0615294 -6.14338e-17)
(0.12656 -0.0689129 4.57362e-17)
(0.124249 -0.07633 3.20734e-17)
(0.121644 -0.0837764 -2.95593e-17)
(0.118728 -0.0912451 -7.82774e-18)
(0.115477 -0.0987348 -2.53599e-17)
(0.11262 -0.105499 3.58831e-17)
(0.143708 0.0346282 -1.30066e-17)
(0.144597 0.0269008 -6.50286e-18)
(0.145257 0.0191972 -1.41154e-17)
(0.145693 0.0115112 1.22052e-17)
(0.145911 0.00383585 -3.9642e-18)
(0.145911 -0.00383585 -9.35663e-18)
(0.145693 -0.0115112 -3.37559e-18)
(0.145257 -0.0191972 1.07105e-18)
(0.144597 -0.0269008 -2.63555e-18)
(0.143708 -0.0346282 -1.81332e-17)
(0.142583 -0.0423849 -3.70252e-17)
(0.141214 -0.0501754 -9.41889e-18)
(0.139588 -0.0580029 4.06442e-17)
(0.137693 -0.065869 -5.86067e-17)
(0.135515 -0.0737734 4.46849e-17)
(0.133038 -0.0817137 3.11171e-17)
(0.130245 -0.0896849 -2.57772e-17)
(0.127117 -0.0976794 -3.41733e-18)
(0.12363 -0.105695 -2.71382e-17)
(0.120518 -0.112977 3.38894e-17)
(0.154258 0.0371606 -1.44607e-17)
(0.155213 0.0288681 -9.42073e-18)
(0.155923 0.0206012 -1.78274e-17)
(0.156392 0.012353 8.67837e-18)
(0.156626 0.00411638 -6.1287e-18)
(0.156626 -0.00411638 -9.8207e-18)
(0.156392 -0.012353 -2.4263e-18)
(0.155923 -0.0206012 2.4158e-18)
(0.155213 -0.0288681 -3.92131e-18)
(0.154258 -0.0371606 -1.90995e-17)
(0.15305 -0.0454844 -3.2832e-17)
(0.151577 -0.0538444 -7.38065e-18)
(0.149829 -0.0622439 4.00866e-17)
(0.147792 -0.0706844 -5.54319e-17)
(0.14545 -0.0791656 4.45256e-17)
(0.142786 -0.0876846 2.97896e-17)
(0.139781 -0.0962359 -2.29844e-17)
(0.136416 -0.104811 -5.58374e-19)
(0.132664 -0.113407 -2.77864e-17)
(0.129264 -0.121261 3.18269e-17)
(0.166011 0.0399814 -1.60935e-17)
(0.167041 0.0310598 -1.20844e-17)
(0.167806 0.0221654 -2.12749e-17)
(0.168313 0.013291 4.54705e-18)
(0.168565 0.00442895 -9.31445e-18)
(0.168565 -0.00442896 -1.09527e-17)
(0.168313 -0.013291 -1.84532e-18)
(0.167806 -0.0221654 4.17162e-18)
(0.167041 -0.0310598 -4.59689e-18)
(0.166011 -0.0399814 -2.00721e-17)
(0.164706 -0.0489364 -2.89158e-17)
(0.163117 -0.0579298 -4.26549e-18)
(0.161231 -0.066965 3.86633e-17)
(0.159032 -0.0760437 -5.29216e-17)
(0.156504 -0.0851649 4.52296e-17)
(0.153628 -0.0943256 2.91238e-17)
(0.150384 -0.103519 -2.06779e-17)
(0.14675 -0.112737 8.36196e-19)
(0.142699 -0.121973 -2.59385e-17)
(0.138974 -0.130457 2.88601e-17)
(0.179141 0.0431328 -1.75911e-17)
(0.180258 0.0335087 -1.49081e-17)
(0.181087 0.0239134 -2.42897e-17)
(0.181637 0.0143393 -1.41868e-19)
(0.18191 0.00477831 -1.37905e-17)
(0.18191 -0.00477832 -1.2482e-17)
(0.181637 -0.0143393 -1.38415e-18)
(0.181087 -0.0239134 5.70859e-18)
(0.180258 -0.0335087 -4.81564e-18)
(0.179141 -0.0431328 -1.9872e-17)
(0.177727 -0.0527922 -2.38915e-17)
(0.176005 -0.062492 -1.37398e-18)
(0.17396 -0.0722356 3.62904e-17)
(0.171576 -0.0820245 -5.04313e-17)
(0.168835 -0.0918575 4.62419e-17)
(0.165717 -0.101731 2.90445e-17)
(0.1622 -0.111637 -1.84913e-17)
(0.158261 -0.121565 3.26442e-18)
(0.15387 -0.131509 -2.37979e-17)
(0.149775 -0.140689 2.64007e-17)
(0.19385 0.0466631 -1.89664e-17)
(0.195067 0.0362526 -1.75097e-17)
(0.195971 0.0258723 -2.76671e-17)
(0.196569 0.0155142 -5.64718e-18)
(0.196867 0.00516987 -1.93727e-17)
(0.196867 -0.00516987 -1.38646e-17)
(0.196569 -0.0155142 -9.1347e-19)
(0.195971 -0.0258723 6.752e-18)
(0.195067 -0.0362526 -3.86941e-18)
(0.19385 -0.0466631 -1.91328e-17)
(0.192309 -0.0571103 -1.78723e-17)
(0.190433 -0.0675995 2.30718e-18)
(0.188205 -0.078134 3.38966e-17)
(0.185608 -0.0887148 -4.63346e-17)
(0.182622 -0.0993401 4.57565e-17)
(0.179226 -0.110005 2.80494e-17)
(0.175396 -0.120701 -1.77803e-17)
(0.171107 -0.131416 6.02588e-18)
(0.166327 -0.142142 -1.94695e-17)
(0.161808 -0.152089 2.50691e-17)
(0.210362 0.0506259 -1.91941e-17)
(0.211695 0.0393336 -2.0095e-17)
(0.212686 0.0280722 -3.20415e-17)
(0.213342 0.0168339 -1.21735e-17)
(0.213668 0.00560971 -2.59207e-17)
(0.213668 -0.00560971 -1.52145e-17)
(0.213342 -0.0168339 -4.07564e-19)
(0.212686 -0.0280722 7.18122e-18)
(0.211695 -0.0393336 -2.23711e-18)
(0.210362 -0.0506258 -1.73896e-17)
(0.208673 -0.0619558 -1.08526e-17)
(0.206617 -0.0733284 6.8581e-18)
(0.204175 -0.0847466 3.17204e-17)
(0.20133 -0.0962109 -4.12382e-17)
(0.19806 -0.107719 4.30504e-17)
(0.194342 -0.119263 2.58921e-17)
(0.190149 -0.130835 -1.59603e-17)