/*--------------------------------*- C++ -*----------------------------------*\
  =========                 |
  \\      /  F ield         | OpenFOAM: The Open Source CFD Toolbox
   \\    /   O peration     | Website:  https://openfoam.org
    \\  /    A nd           | Version:  7
     \\/     M anipulation  |
\*---------------------------------------------------------------------------*/
FoamFile
{
    version     2.0;
    format      ascii;
    class       volScalarField;
    location    "44000";
    object      nu;
}
// * * * * * * * * * * * * * * * * * * * * * * * * * * * * * * * * * * * * * //

dimensions      [0 2 -1 0 0 0 0];

internalField   nonuniform List<scalar> 
4844
(
0.001
0.001
0.001
0.001
0.001
0.001
0.001
0.001
0.001
0.001
0.001
0.001
0.001
0.001
0.001
0.001
0.001
0.001
0.001
0.001
0.001
0.001
0.001
0.001
0.001
0.001
0.001
0.001
0.001
0.001
0.001
0.001
0.001
0.001
0.001
0.001
0.001
0.001
0.001
0.001
0.001
0.001
0.001
0.001
0.001
0.001
0.001
0.001
0.001
0.001
0.001
0.001
0.001
0.001
0.001
0.001
0.001
0.001
0.001
0.001
0.001
0.001
0.001
0.001
0.001
0.001
0.001
0.001
0.001
0.001
0.001
0.001
0.001
0.001
0.001
0.001
0.001
0.001
0.001
0.001
0.001
0.001
0.001
0.001
0.000997722
0.001
0.001
0.001
0.001
0.001
0.001
0.001
0.001
0.001
0.001
0.001
0.001
0.001
0.001
0.000990336
0.001
0.001
0.001
0.001
0.001
0.001
0.001
0.001
0.001
0.001
0.001
0.000999724
0.00099643
0.000991687
0.000979477
0.001
0.001
0.001
0.001
0.001
0.001
0.001
0.001
0.001
0.001
0.000998325
0.000995307
0.000991362
0.000985931
0.00097882
0.000966042
0.001
0.001
0.001
0.001
0.001
0.001
0.001
0.000998992
0.000996405
0.000993245
0.00098927
0.000984442
0.000978586
0.000971763
0.000963606
0.00095085
0.001
0.001
0.001
0.001
0.000998819
0.000996526
0.000993783
0.000990406
0.000986289
0.00098151
0.000976201
0.000970237
0.000963375
0.000955735
0.000947169
0.00093458
0.000998801
0.00099774
0.000995692
0.00099326
0.000990234
0.000986589
0.000982406
0.000977758
0.000972684
0.000967043
0.000960946
0.000954276
0.000946869
0.000938801
0.000930103
0.000917725
0.000989099
0.000990984
0.000988819
0.000985569
0.000981819
0.000977709
0.000973214
0.000968253
0.000962914
0.00095724
0.000951101
0.000944525
0.000937425
0.000929719
0.000921459
0.000912744
0.000900609
0.000981058
0.000979719
0.000976392
0.000972333
0.000967838
0.00096308
0.000958041
0.000952631
0.000946894
0.000940842
0.000934391
0.000927516
0.00092016
0.000912297
0.000903972
0.000895293
0.000883427
0.000968715
0.000969948
0.000966297
0.000962074
0.000957438
0.00095249
0.000947331
0.000941939
0.000936249
0.000930265
0.00092397
0.00091731
0.000910246
0.000902745
0.000894809
0.000886487
0.000877872
0.000866296
0.000957782
0.00095603
0.000951467
0.000946672
0.000941645
0.000936408
0.000930991
0.000925369
0.000919494
0.000913343
0.000906887
0.000900086
0.000892904
0.000885326
0.000877371
0.000869088
0.000860558
0.000849281
0.000943731
0.000940472
0.000935692
0.000930613
0.000925351
0.00091993
0.000914349
0.000908577
0.000902574
0.000896308
0.000889743
0.000882849
0.000875598
0.00086799
0.000860049
0.000851829
0.000843398
0.000832423
0.000927519
0.000924031
0.000919303
0.000914137
0.000908765
0.000903242
0.000897563
0.000891697
0.000885609
0.000879264
0.000872629
0.000865677
0.000858395
0.000850787
0.000842886
0.000834742
0.000826423
0.000815746
0.000910579
0.000907134
0.000902531
0.000897395
0.000892005
0.000886446
0.000880722
0.000874806
0.000868668
0.000862275
0.000855599
0.000848621
0.000841334
0.000833751
0.000825907
0.000817853
0.000809653
0.000799267
0.000893429
0.000889997
0.000885519
0.00088048
0.000875143
0.000869606
0.000863882
0.000857953
0.000851795
0.000845382
0.000838692
0.000831711
0.000824443
0.000816905
0.000809133
0.000801177
0.000793104
0.000783
0.000876147
0.000872687
0.000868346
0.000863456
0.000858232
0.000852766
0.000847082
0.000841174
0.000835024
0.000828616
0.000821934
0.000814975
0.000807744
0.000800266
0.000792577
0.000784728
0.000776786
0.000766954
0.000858632
0.000855202
0.000851055
0.000846374
0.000841315
0.000835965
0.000830357
0.000824498
0.000818382
0.000812001
0.00080535
0.000798429
0.000791253
0.000783848
0.000776251
0.000768515
0.000760704
0.000751134
0.000840758
0.000837537
0.000833693
0.000829287
0.00082444
0.000819241
0.000813739
0.000807954
0.000801894
0.00079556
0.000788956
0.000782091
0.000774982
0.000767658
0.00076016
0.000752539
0.000744859
0.000735536
0.000822493
0.000819754
0.000816337
0.000812262
0.000807659
0.000802636
0.00079726
0.000791568
0.00078558
0.00077931
0.000772768
0.00076597
0.000758937
0.000751702
0.000744305
0.000736798
0.000729243
0.000720152
0.000804
0.000802008
0.000799097
0.000795376
0.000791028
0.00078619
0.000780951
0.000775363
0.00076946
0.000763264
0.000756794
0.00075007
0.000743119
0.000735974
0.000728677
0.00072128
0.000713842
0.000704966
0.000785677
0.000784532
0.000782107
0.000778711
0.0007746
0.000769941
0.000764838
0.000759358
0.000753545
0.000747429
0.000741035
0.000734389
0.00072752
0.000720464
0.000713263
0.000705968
0.000698637
0.000689959
0.000768075
0.00076757
0.000765488
0.000762338
0.00075842
0.000753915
0.000748938
0.000743562
0.000737837
0.000731801
0.000725484
0.000718916
0.000712127
0.000705155
0.000698044
0.000690842
0.000683609
0.000675113
0.000751672
0.000751295
0.000749322
0.0007463
0.000742512
0.000738127
0.000733256
0.000727973
0.000722332
0.000716372
0.000710129
0.000703634
0.000696921
0.000690029
0.000683
0.000675886
0.000668744
0.000660421
0.000736595
0.000735743
0.000733628
0.000730609
0.000726881
0.000722575
0.000717786
0.000712582
0.000707014
0.000701126
0.000694952
0.000688527
0.000681886
0.000675069
0.000668121
0.000661093
0.000654043
0.000645895
0.000723127
0.000722546
0.000720807
0.000718364
0.000715242
0.00071151
0.000707245
0.000702513
0.000697371
0.000691869
0.000686045
0.000679938
0.000673581
0.000667013
0.000660274
0.000653411
0.000646477
0.000639532
0.000631571
0.000711789
0.000708962
0.000706298
0.000703445
0.000700153
0.00069637
0.000692112
0.000687417
0.000682327
0.000676883
0.000671122
0.000665083
0.0006588
0.000652312
0.000645663
0.0006389
0.000632079
0.000625264
0.000617518
0.000698854
0.000699511
0.000695392
0.00069202
0.000688772
0.000685287
0.000681427
0.000677157
0.000672487
0.000667442
0.000662057
0.000656365
0.000650403
0.000644207
0.000637818
0.000631281
0.000624645
0.000617969
0.000611321
0.000603827
0.0006877
0.000686061
0.000681635
0.000677824
0.000674262
0.000670599
0.00066666
0.000662375
0.000657728
0.000652734
0.000647417
0.000641809
0.000635943
0.000629858
0.000623595
0.000617202
0.000610729
0.000604238
0.0005978
0.000590601
0.000674774
0.000671961
0.000667644
0.00066364
0.000659873
0.000656078
0.000652078
0.000647788
0.000643177
0.000638248
0.000633018
0.000627516
0.000621774
0.000615832
0.000609731
0.00060352
0.000597251
0.000590985
0.000584797
0.000577927
0.000660473
0.000657545
0.000653494
0.000649479
0.00064562
0.000641753
0.000637727
0.000633456
0.000628903
0.000624062
0.000618946
0.000613579
0.000607994
0.000602228
0.000596324
0.00059033
0.000584297
0.000578288
0.000572373
0.000565842
0.00064579
0.000643076
0.000639337
0.000635432
0.00063158
0.000627704
0.000623695
0.000619475
0.000615008
0.000610283
0.000605307
0.000600104
0.000594703
0.000589141
0.000583459
0.000577701
0.000571917
0.000566166
0.000560517
0.000554297
0.000631271
0.000628806
0.000625376
0.000621651
0.00061788
0.000614054
0.000610101
0.000605964
0.000601608
0.000597021
0.000592207
0.000587185
0.000581982
0.000576632
0.00057117
0.000565638
0.00056008
0.000554549
0.000549108
0.000543117
0.000617241
0.000614978
0.00061183
0.000608314
0.000604672
0.000600937
0.000597072
0.000593039
0.00058881
0.000584368
0.000579716
0.000574869
0.00056985
0.000564687
0.000559409
0.000554048
0.000548644
0.000543242
0.000537897
0.000531995
0.000603912
0.000601797
0.000598891
0.000595585
0.000592093
0.000588468
0.000584702
0.000580775
0.000576663
0.000572348
0.000567829
0.000563118
0.000558232
0.000553189
0.000548008
0.000542714
0.000537338
0.00053192
0.000526507
0.000520505
0.000591397
0.000589389
0.00058668
0.000583558
0.000580205
0.000576681
0.000573001
0.000569153
0.00056512
0.000560878
0.000556427
0.000551774
0.000546924
0.000541886
0.00053667
0.000531291
0.000525775
0.000520158
0.000514479
0.000508167
0.000579682
0.000577742
0.000575176
0.000572193
0.000568941
0.000565483
0.000561844
0.000558018
0.000553989
0.000549732
0.000545247
0.000540533
0.000535586
0.000530403
0.000524987
0.000519348
0.00051351
0.000507506
0.000501376
0.000494571
0.000568568
0.000566654
0.000564169
0.000561262
0.00055805
0.000554597
0.000550932
0.000547044
0.000542916
0.000538529
0.000533883
0.000528969
0.000523772
0.000518284
0.000512505
0.000506448
0.00050014
0.000493619
0.000486924
0.000479535
0.000557629
0.000555692
0.00055322
0.000550317
0.000547073
0.000543555
0.000539783
0.000535735
0.000531397
0.000526761
0.00052183
0.000516585
0.000511008
0.000505091
0.000498843
0.000492286
0.00048546
0.000478413
0.000471183
0.000463273
0.000546217
0.000544203
0.000541677
0.000538713
0.000535373
0.00053173
0.000527778
0.000523489
0.000518853
0.000513888
0.000508592
0.000502941
0.000496924
0.000490549
0.000483841
0.000476845
0.000469618
0.000462218
0.000454677
0.000446507
0.000533534
0.000531396
0.000528764
0.0005257
0.00052224
0.000518444
0.000514278
0.00050972
0.00050477
0.000499478
0.000493829
0.000487806
0.000481421
0.000474708
0.000467722
0.000460535
0.000453227
0.000445861
0.000438448
0.000430477
0.000518813
0.000516526
0.000513771
0.000510613
0.000507076
0.000503163
0.000498819
0.000494055
0.000488895
0.000483403
0.000477549
0.00047134
0.000464826
0.00045808
0.000451193
0.000444265
0.000437395
0.000430645
0.000423983
0.000416836
0.000501579
0.000499164
0.000496319
0.000493136
0.000489652
0.000485733
0.000481337
0.00047655
0.000471434
0.000466015
0.000460255
0.000454211
0.000447984
0.000441689
0.000435451
0.000429398
0.000423635
0.000418209
0.000413034
0.000407432
0.00048195
0.000479485
0.000476644
0.000473565
0.00047035
0.000466607
0.000462383
0.00045787
0.000453193
0.000448247
0.000443014
0.000437626
0.000432238
0.000427004
0.000422077
0.000417598
0.000413671
0.000410314
0.000407372
0.000404045
0.000460861
0.000458484
0.0004558
0.000452996
0.000450305
0.000446967
0.000443211
0.000439346
0.000435598
0.000431591
0.000427396
0.000423231
0.000419295
0.000415773
0.00041283
0.000410609
0.000409193
0.000408558
0.000408474
0.000408031
0.000440106
0.000437999
0.000435665
0.000433317
0.000431368
0.000428677
0.00042572
0.000422889
0.000420554
0.000417937
0.000415291
0.000412903
0.000411001
0.000409776
0.00040939
0.000409963
0.000411537
0.000414014
0.000417076
0.000419767
0.000422168
0.000420533
0.000418757
0.000417034
0.000415905
0.000414081
0.00041224
0.000410772
0.000410207
0.00040934
0.000408665
0.000408502
0.000409066
0.000410531
0.000413022
0.000416599
0.000421206
0.000426622
0.000432402
0.000437628
0.00040992
0.000408946
0.000407929
0.000406973
0.0004065
0.00040573
0.000405266
0.000405375
0.000406665
0.000407731
0.00040927
0.000411544
0.00041471
0.00041887
0.000424057
0.000430192
0.000437034
0.00044414
0.000450861
0.000456392
0.000406309
0.000406152
0.000406068
0.000406007
0.00040568
0.000406103
0.000407173
0.000408901
0.000411659
0.000414571
0.000418228
0.000422719
0.000428057
0.00043419
0.000440959
0.000448028
0.000454845
0.000460635
0.000464489
0.000465751
0.000413031
0.0004138
0.000414758
0.000415678
0.000415625
0.000417279
0.00041984
0.000422958
0.000426016
0.000430229
0.000435291
0.000440976
0.000447044
0.000453171
0.000458879
0.000463466
0.000466009
0.000465433
0.000460733
0.000451525
0.000436363
0.000439003
0.000442565
0.000446308
0.000448614
0.00045276
0.000457429
0.000461961
0.000465756
0.000468129
0.000468259
0.00046515
0.00045774
0.000445085
0.000426673
0.000402795
0.000472907
0.000474312
0.000475215
0.000474548
0.000471395
0.000464856
0.000454049
0.000438173
0.000416705
0.000389587
0.000357488
0.000321646
0.000972055
0.00097956
0.000966881
0.000973205
0.000958036
0.000964771
0.000945971
0.000954026
0.000955952
0.000932018
0.000941432
0.000945901
0.000916876
0.000927187
0.000933597
0.000933639
0.000900928
0.000911727
0.000918941
0.000922294
0.000884419
0.000895364
0.000902883
0.000908512
0.000867538
0.00087838
0.000885972
0.000892534
0.000894998
0.000850445
0.000861022
0.000868486
0.000875182
0.000879745
0.000833281
0.000843513
0.000850721
0.000857035
0.000861865
0.000816173
0.000826043
0.000832973
0.000838822
0.000842812
0.000799227
0.000808767
0.000815486
0.000821047
0.000824488
0.000782531
0.000791799
0.000798421
0.000803974
0.000807596
0.000766159
0.000775218
0.000781852
0.000787635
0.000792045
0.000793464
0.000750168
0.000759074
0.000765798
0.000771937
0.000777291
0.000781265
0.000734599
0.000743396
0.00075025
0.000756769
0.000762922
0.00076877
0.000768304
0.00071947
0.000728188
0.000735182
0.000742039
0.000748807
0.000755599
0.000759005
0.000757758
0.000704759
0.00071342
0.000720544
0.000727667
0.000734861
0.000742156
0.000748172
0.000749804
0.000749132
0.000690389
0.000699008
0.000706243
0.000713558
0.000721019
0.000728605
0.000735691
0.000740006
0.000741409
0.000741771
0.000676213
0.000684795
0.000692116
0.000699558
0.000707167
0.000714893
0.000722368
0.000728096
0.00073162
0.000732896
0.000662008
0.000670544
0.000677922
0.000685434
0.000693104
0.000700863
0.000708424
0.000714834
0.000719473
0.000722024
0.000647492
0.000655951
0.000663347
0.000670875
0.000678538
0.000686255
0.000693766
0.000700446
0.000705665
0.000708956
0.000632369
0.000640691
0.000648047
0.000655534
0.000663132
0.000670747
0.000678142
0.000684873
0.00069038
0.00069418
0.000616405
0.000624503
0.00063174
0.000639116
0.000646585
0.000654046
0.000661279
0.000667942
0.000673574
0.000677754
0.000599538
0.000607301
0.000614321
0.000621501
0.000628771
0.000636019
0.000643044
0.000649566
0.000655217
0.000659665
0.000581978
0.000589292
0.000595989
0.000602884
0.000609878
0.000616849
0.000623615
0.000629937
0.000635525
0.000640124
0.00056429
0.000571061
0.000577346
0.000583876
0.000590525
0.00059716
0.000603616
0.000609687
0.000615142
0.00061978
0.000547397
0.000553587
0.000559416
0.000565535
0.000571793
0.000578055
0.000584166
0.00058995
0.00059522
0.000599812
0.000532497
0.000538158
0.000543559
0.000549277
0.00055515
0.000561039
0.000566804
0.000572295
0.000577362
0.000581869
0.000520875
0.000526185
0.000531277
0.000536682
0.000542237
0.000547812
0.00055328
0.000558518
0.000563407
0.000567849
0.000512149
0.000517418
0.000522403
0.000527648
0.000533011
0.000538376
0.000543638
0.000548696
0.000553463
0.000557878
0.000973243
0.000968347
0.000959434
0.000947005
0.000932626
0.000917143
0.000900998
0.000884435
0.000867611
0.000850644
0.000833634
0.00081667
0.000799832
0.000783191
0.000766812
0.00075075
0.000735053
0.000719751
0.000704844
0.000690288
0.000675983
0.000661762
0.0006474
0.000632637
0.000617238
0.000601068
0.000584196
0.000566998
0.000550213
0.000534943
0.000522524
0.000512771
0.000983988
0.000978739
0.000969945
0.00095779
0.00094361
0.000928203
0.000912047
0.000895438
0.00087856
0.000861539
0.000844467
0.000827421
0.000810464
0.000793656
0.000777051
0.000760702
0.000744657
0.000728955
0.000713619
0.000698645
0.00068399
0.000669564
0.000655224
0.00064079
0.000626067
0.00061089
0.000595183
0.00057902
0.000562692
0.000546737
0.000531948
0.000519347
0.000508523
0.000990423
0.000985306
0.000976628
0.000964677
0.000950751
0.000935587
0.000919633
0.000903181
0.000886428
0.00086951
0.000852526
0.000835549
0.000818638
0.000801843
0.00078521
0.000768781
0.000752598
0.000736699
0.000721112
0.000705853
0.000690915
0.00067626
0.000661819
0.000647491
0.000633161
0.000618721
0.0006041
0.000589297
0.000574392
0.000559529
0.000544865
0.000530478
0.000516306
0.000502108
0.000487681
0.000473185
0.000459318
0.000446155
0.000995939
0.000991509
0.000983214
0.000971512
0.000957784
0.000942791
0.000926985
0.000910658
0.000894007
0.000877175
0.000860262
0.000843345
0.000826481
0.000809715
0.000793085
0.000776627
0.000760372
0.000744351
0.000728592
0.000713115
0.000697932
0.00068304
0.000668419
0.000654036
0.000639842
0.000625781
0.000611795
0.000597822
0.000583794
0.000569622
0.000555191
0.00054037
0.00052505
0.000509235
0.000493157
0.000477387
0.000462865
0.000449615
0.00099992
0.000996854
0.00098939
0.000978184
0.000964742
0.000949916
0.000934217
0.000917967
0.000901379
0.000884599
0.000867733
0.000850857
0.000834027
0.000817286
0.000800668
0.000784201
0.00076791
0.000751817
0.000735946
0.000720315
0.000704945
0.00068985
0.000675043
0.000660529
0.000646306
0.000632357
0.000618642
0.000605083
0.000591555
0.000577873
0.000563803
0.000549097
0.000533577
0.000517248
0.000500424
0.000483826
0.000468569
0.000454773
0.001
0.001
0.000994746
0.000984578
0.000971599
0.000956974
0.000941363
0.000925155
0.000908592
0.000891833
0.000874986
0.000858127
0.000841312
0.000824583
0.00080797
0.000791497
0.000775184
0.000759047
0.000743102
0.000727368
0.000711863
0.000696613
0.000681645
0.000666987
0.000652663
0.000638678
0.000625011
0.000611592
0.000598287
0.000584897
0.000571164
0.000556818
0.000541641
0.000525558
0.000508735
0.000491635
0.000475032
0.000459979
0.000446485
0.001
0.001
0.000998431
0.000990106
0.000978013
0.000963788
0.000948343
0.000932196
0.000915652
0.000898894
0.000882044
0.000865181
0.000848363
0.000831629
0.000815009
0.000798525
0.00078219
0.000766019
0.000750022
0.000734214
0.000718614
0.000703249
0.000688153
0.000673365
0.00065892
0.000644842
0.00063112
0.000617696
0.000604444
0.000591167
0.000577601
0.000563459
0.000548491
0.000532579
0.000515836
0.00049869
0.000481915
0.000466596
0.000452789
0.001
0.001
0.001
0.00099428
0.000983593
0.000970083
0.000954982
0.000938987
0.000922501
0.000905758
0.000888903
0.000872027
0.000855192
0.00083844
0.000821801
0.000805294
0.000788933
0.000772727
0.000756685
0.000740819
0.000725147
0.000709695
0.000694499
0.000679603
0.000665049
0.000650866
0.000637053
0.000623557
0.00061026
0.000596968
0.000583421
0.000569329
0.000554442
0.000538637
0.000522022
0.00050502
0.000488401
0.000473227
0.000459478
0.001
0.001
0.001
0.00099734
0.000988311
0.000975714
0.000961118
0.000945397
0.000929049
0.000912367
0.000895528
0.000878645
0.000861792
0.000845015
0.000828347
0.000811809
0.000795414
0.000779169
0.000763083
0.000747165
0.000731431
0.000715909
0.000700634
0.000685651
0.000671005
0.000656727
0.000642818
0.000629229
0.000615842
0.000602465
0.000588846
0.000574702
0.000559795
0.00054402
0.000527502
0.000510678
0.000494313
0.000479443
0.000465956
0.001
0.001
0.001
0.000999653
0.000992153
0.0009806
0.000966676
0.000951358
0.000935235
0.000918667
0.000901877
0.000885004
0.000868139
0.000851339
0.00083464
0.000818066
0.000801631
0.000785343
0.000769209
0.000753239
0.000737448
0.000721863
0.000706521
0.000691467
0.000676745
0.000662387
0.000648393
0.00063471
0.00062122
0.000607732
0.000593995
0.000579738
0.000564742
0.000548927
0.00053245
0.00051577
0.00049966
0.000485138
0.000472008
0.001
0.001
0.001
0.001
0.000995125
0.000985001
0.000971844
0.000956945
0.000941059
0.000924625
0.000907905
0.000891063
0.000874201
0.000857385
0.000840659
0.00082405
0.000807573
0.000791239
0.000775055
0.000759031
0.000743183
0.000727539
0.000712136
0.00069702
0.000682234
0.000667809
0.000653742
0.000639977
0.00062639
0.000612785
0.000598914
0.000584516
0.000569389
0.000553483
0.000536988
0.000520399
0.000504507
0.000490322
0.00047758
0.001
0.001
0.001
0.000997733
0.000988963
0.000976544
0.000962077
0.000946457
0.00093019
0.000913572
0.000896784
0.000879943
0.000863125
0.000846379
0.000829738
0.000813221
0.000796841
0.000780606
0.000764528
0.000748623
0.000732921
0.00071746
0.000702286
0.000687444
0.000672963
0.000658836
0.000645001
0.000631327
0.000617615
0.000603612
0.000589063
0.000573784
0.000557752
0.000541195
0.000524645
0.000508921
0.000495037
0.000482676
0.001
0.001
0.000999769
0.000992174
0.000980524
0.000966584
0.000951322
0.000935291
0.000918823
0.000902124
0.000885327
0.000868522
0.000851768
0.000835103
0.000818551
0.000802128
0.000785845
0.000769713
0.000753753
0.000737993
0.000722476
0.000707248
0.000692354
0.000677824
0.000663646
0.000649754
0.000636008
0.000622201
0.000608076
0.000593379
0.000577941
0.000561764
0.000545113
0.000528559
0.000512955
0.000499329
0.000487324
0.001
0.001
0.001
0.000994069
0.000983571
0.00097038
0.0009556
0.000939883
0.000923616
0.000907043
0.000890317
0.000873545
0.000856796
0.000840117
0.000823538
0.000807078
0.00079075
0.000774569
0.000758555
0.00074274
0.000727168
0.000711888
0.000696947
0.000682373
0.000668152
0.000654212
0.000640407
0.000626519
0.000612284
0.000597451
0.000581856
0.000565527
0.000548761
0.000532171
0.000516646
0.000503233
0.00049155
0.001
0.001
0.000995709
0.000986125
0.000973574
0.000959286
0.000943936
0.000927926
0.000911517
0.000894889
0.000878167
0.000861436
0.000844753
0.000828156
0.000811667
0.000795301
0.000779075
0.000763012
0.000747146
0.000731522
0.000716193
0.000701207
0.000686593
0.000672335
0.000658356
0.000644502
0.000630546
0.000616217
0.000601259
0.000585516
0.000569035
0.000552144
0.000535495
0.000520015
0.000506775
0.000495376
0.001
0.001
0.000996173
0.000987535
0.000975936
0.000962369
0.000947498
0.000931785
0.000915554
0.000899029
0.000882364
0.000865661
0.000848985
0.00083238
0.000815871
0.000799476
0.000783213
0.000767108
0.000751195
0.000735524
0.000720149
0.000705121
0.00069047
0.00067618
0.000662169
0.000648276
0.000634264
0.000619854
0.000604785
0.000588905
0.000572277
0.000555259
0.000538536
0.000523074
0.000509972
0.000498821
0.000998194
0.000995533
0.000988883
0.000978279
0.000965276
0.000950737
0.00093523
0.000919135
0.000902703
0.000886101
0.000869438
0.000852785
0.000836186
0.00081967
0.000803256
0.000786966
0.000770826
0.000754873
0.000739159
0.000723743
0.000708677
0.000693994
0.000679675
0.000665638
0.000651712
0.000637655
0.000623176
0.00060801
0.000592007
0.000575242
0.000558097
0.000541292
0.000525829
0.000512834
0.000501896
0.000993109
0.000988807
0.000980142
0.00096783
0.000953543
0.000938169
0.000922184
0.000905852
0.000889335
0.000872737
0.000856128
0.000839553
0.000823046
0.000806627
0.00079032
0.000774153
0.000758168
0.000742417
0.000726964
0.000711865
0.000697152
0.000682809
0.000668749
0.000654798
0.000640704
0.000626168
0.000610918
0.000594805
0.000577914
0.000560649
0.000543761
0.000528283
0.00051537
0.000504612
0.000992127
0.000988148
0.000980266
0.000968774
0.000955134
0.000940217
0.000924541
0.000908419
0.000892047
0.000875549
0.000859008
0.000842476
0.000825991
0.000809579
0.000793265
0.000777081
0.00076107
0.000745289
0.000729804
0.000714675
0.000699936
0.000685572
0.000671494
0.000657523
0.000643398
0.000628815
0.000613494
0.000597285
0.000580282
0.000562907
0.000545936
0.000530435
0.000517583
0.000506975
0.000991603
0.000987477
0.000979879
0.000968931
0.00095589
0.0009415
0.000926234
0.00091041
0.000894244
0.000877886
0.000861437
0.000844964
0.000828513
0.000812116
0.000795801
0.000779605
0.000763574
0.000747769
0.000732256
0.0007171
0.000702339
0.000687957
0.000673863
0.000659876
0.000645728
0.000631106
0.000615725
0.000599435
0.000582334
0.00056486
0.000547813
0.000532284
0.000519477
0.000508991
0.000990362
0.00098619
0.000979109
0.000968751
0.000956296
0.000942393
0.000927504
0.000911961
0.000896001
0.00087979
0.000863442
0.000847036
0.000830623
0.000814244
0.000797933
0.000781728
0.00076568
0.000749852
0.000734315
0.000719136
0.000704355
0.000689956
0.00067585
0.000661849
0.000647682
0.00063303
0.000617601
0.000601243
0.000584059
0.0005665
0.000549385
0.000533828
0.000521052
0.000510663
0.000982857
0.000977512
0.000968704
0.000956813
0.000943191
0.000928523
0.000913181
0.000897392
0.000881313
0.000865058
0.000848712
0.000832334
0.000815971
0.00079966
0.000783447
0.000767383
0.000751535
0.000735976
0.000720777
0.000705977
0.000691565
0.000677447
0.000663436
0.000649254
0.000634578
0.000619111
0.000602699
0.000585449
0.00056782
0.000550648
0.000535064
0.00052231
0.000511996
0.000979786
0.000974758
0.000967015
0.000956131
0.000943281
0.000929115
0.000914075
0.000898467
0.000882499
0.000866313
0.000850007
0.000833651
0.000817294
0.00080098
0.000784756
0.000768676
0.00075281
0.000737232
0.000722015
0.0007072
0.000692776
0.000678649
0.000664629
0.000650437
0.000635742
0.000620247
0.000603795
0.000586495
0.000568813
0.000551596
0.000535991
0.000523251
0.000512991
0.000970303
0.000964478
0.000955374
0.000943269
0.000929469
0.000914652
0.000899192
0.000883318
0.000867187
0.000850908
0.00083456
0.000818202
0.00080188
0.000785643
0.000769549
0.000753667
0.000738075
0.000722843
0.000708016
0.000693583
0.000679449
0.000665424
0.000651224
0.000636518
0.000621004
0.000604525
0.000587191
0.000569473
0.000552226
0.000536605
0.000523874
0.000513649
0.000966495
0.000961069
0.000953124
0.0009421
0.000929094
0.000914744
0.000899517
0.000883744
0.000867649
0.00085138
0.000835031
0.000818667
0.000802338
0.000786092
0.000769988
0.000754097
0.000738494
0.000723254
0.00070842
0.000693981
0.000679843
0.000665814
0.000651611
0.000636899
0.000621376
0.000604883
0.000587533
0.000569797
0.000552535
0.000536906
0.000524179
0.000513971
0.000956355
0.000950442
0.000941149
0.000928735
0.000914569
0.000899407
0.000883669
0.0008676
0.00085135
0.000835014
0.000818656
0.00080233
0.000786085
0.00076998
0.000754087
0.000738483
0.000723241
0.000708405
0.000693965
0.000679827
0.000665798
0.000651595
0.000636883
0.00062136
0.000604868
0.000587518
0.000569783
0.000552521
0.000536892
0.000524165
0.000513959
0.000953374
0.000947731
0.000939036
0.000927198
0.000913446
0.000898542
0.000882957
0.000866977
0.000850781
0.00083448
0.000818147
0.000801838
0.000785606
0.000769513
0.000753629
0.000738033
0.000722798
0.000707969
0.000693533
0.000679398
0.000665373
0.000651173
0.000636469
0.000620956
0.000604478
0.000587146
0.00056943
0.000552184
0.000536564
0.000523834
0.00051361
0.000951207
0.000945416
0.000936823
0.000925217
0.000911722
0.000897041
0.000881627
0.000865771
0.000849662
0.000833422
0.000817134
0.000800859
0.000784656
0.000768586
0.000752723
0.000737145
0.000721926
0.00070711
0.000692684
0.000678557
0.000664539
0.000650349
0.000635657
0.000620165
0.000603716
0.000586418
0.000568739
0.000551524
0.000535921
0.000523183
0.000512925
0.000949319
0.000943297
0.00093462
0.000923048
0.000909652
0.000895097
0.000879805
0.000864056
0.000848035
0.000831865
0.000815633
0.000799405
0.000783241
0.000767206
0.000751374
0.000735824
0.000720629
0.000705832
0.000691422
0.000677307
0.0006633
0.000649123
0.000634452
0.00061899
0.000602583
0.000585338
0.000567713
0.000550545
0.000534964
0.000522214
0.000511903
0.000947401
0.000941154
0.000932338
0.000920708
0.00090732
0.000892811
0.000877586
0.000861909
0.000845958
0.000829851
0.000813676
0.000797498
0.00078138
0.000765387
0.000749594
0.000734079
0.000718914
0.000704142
0.000689752
0.000675653
0.000661661
0.000647503
0.000632858
0.000617438
0.000601088
0.000583911
0.000566358
0.000549249
0.000533696
0.000520926
0.000510542
0.000945283
0.000938833
0.000929868
0.00091815
0.000904723
0.000890215
0.000875015
0.000859379
0.000843475
0.000827419
0.000811293
0.000795164
0.000779093
0.000763146
0.000747396
0.000731922
0.000716792
0.000702049
0.000687683
0.000673603
0.000659629
0.000645494
0.000630885
0.000615516
0.000599237
0.000582146
0.00056468
0.000547641
0.000532119
0.000519319
0.000508839
0.000942868
0.000936235
0.000927127
0.000915314
0.000901832
0.000887302
0.000872105
0.000856488
0.000840614
0.000824595
0.000808511
0.000792426
0.000776401
0.0007605
0.000744796
0.000729364
0.000714273
0.000699563
0.000685223
0.000671165
0.000657213
0.000643107
0.00062854
0.000613235
0.000597041
0.000580051
0.000562687
0.000545727
0.000530235
0.000517392
0.000506793
0.000940097
0.000933297
0.000924061
0.000912157
0.000898619
0.000884059
0.000868853
0.000853242
0.000837386
0.000821395
0.000805345
0.000789299
0.000773318
0.000757463
0.000741806
0.000726419
0.000711368
0.000696693
0.000682382
0.000668349
0.000654423
0.000640351
0.000625837
0.000610607
0.000594512
0.000577638
0.000560387
0.000543512
0.000528047
0.000515146
0.000504398
0.000936941
0.000929992
0.00092064
0.000908656
0.000895064
0.000880471
0.000865251
0.00084964
0.000833796
0.000817825
0.000801804
0.000785796
0.000769856
0.000754048
0.000738438
0.000723097
0.000708089
0.000693451
0.00067917
0.000665165
0.00065127
0.00063724
0.000622787
0.000607645
0.000591663
0.000574918
0.000557791
0.000541004
0.000525556
0.000512576
0.000501652
0.000933399
0.000926316
0.00091686
0.000904799
0.000891155
0.000876529
0.000861291
0.000845677
0.000829841
0.000813888
0.000797895
0.000781922
0.000766025
0.000750263
0.000734701
0.000719409
0.000704445
0.000689846
0.000675599
0.000661626
0.000647767
0.000633787
0.000619406
0.000604364
0.00058851
0.000571905
0.000554909
0.000538207
0.000522765
0.000509682
0.00049855
0.000929506
0.000922287
0.000912721
0.000900582
0.000886883
0.000872222
0.000856966
0.000841348
0.000825519
0.000809585
0.00079362
0.000777683
0.00076183
0.000746117
0.000730607
0.000715364
0.000700447
0.000685889
0.00067168
0.000657744
0.000643928
0.000630007
0.000615711
0.000600782
0.000585068
0.000568614
0.00055175
0.000535127
0.000519673
0.000506459
0.000495085
0.000925284
0.000917906
0.000908218
0.000895994
0.000882239
0.000867544
0.00085227
0.000836648
0.000820829
0.000804916
0.000788981
0.000773085
0.000757279
0.000741618
0.000726163
0.000710974
0.000696107
0.000681595
0.000667427
0.000653534
0.00063977
0.000625919
0.000611719
0.000596918
0.000581355
0.000565058
0.000548326
0.00053177
0.00051628
0.000502904
0.000491256
0.000920693
0.000913152
0.000903338
0.000891027
0.000877216
0.000862487
0.000847198
0.000831576
0.00081577
0.000799882
0.000783984
0.000768134
0.000752381
0.000736779
0.000721384
0.000706253
0.000691441
0.000676978
0.000662857
0.000649014
0.000635311
0.000621542
0.000607452
0.000592791
0.00057739
0.000561252
0.000544645
0.000528139
0.000512586
0.000499013
0.000487061
0.000915703
0.000908004
0.000898068
0.000885673
0.000871807
0.000857047
0.000841747
0.000826131
0.000810345
0.000794491
0.000778639
0.000762843
0.000747152