/*--------------------------------*- C++ -*----------------------------------*\
  =========                 |
  \\      /  F ield         | OpenFOAM: The Open Source CFD Toolbox
   \\    /   O peration     | Website:  https://openfoam.org
    \\  /    A nd           | Version:  7
     \\/     M anipulation  |
\*---------------------------------------------------------------------------*/
FoamFile
{
    version     2.0;
    format      ascii;
    class       volVectorField;
    location    "44000";
    object      vorticity;
}
// * * * * * * * * * * * * * * * * * * * * * * * * * * * * * * * * * * * * * //

dimensions      [0 0 -1 0 0 0 0];

internalField   nonuniform List<vector> 
4844
(
(0.000113791 -4.22509e-05 -1.65127e-19)
(0.000112695 -4.60271e-05 3.97359e-18)
(0.000111466 -4.98564e-05 8.3134e-19)
(0.000115012 -4.25385e-05 2.05115e-18)
(0.000113823 -4.63156e-05 1.34022e-17)
(0.000112497 -5.01738e-05 4.82851e-18)
(0.000111161 -5.39898e-05 4.08184e-18)
(0.000109704 -5.7699e-05 1.13966e-18)
(0.000108169 -6.13232e-05 -1.08161e-18)
(0.000106588 -6.48295e-05 -1.92426e-18)
(0.000105008 -6.82047e-05 -1.37113e-18)
(0.000116277 -4.28074e-05 -3.92617e-19)
(0.000114995 -4.65785e-05 7.44296e-18)
(0.000113575 -5.0459e-05 4.12483e-18)
(0.000112095 -5.42806e-05 3.10789e-18)
(0.000110582 -5.8002e-05 2.82388e-19)
(0.000108997 -6.16419e-05 -2.03606e-18)
(0.00010736 -6.51686e-05 -2.75222e-18)
(0.000105695 -6.85688e-05 -2.64048e-18)
(0.000104092 -7.18224e-05 -2.17132e-18)
(0.000102426 -7.48919e-05 -1.47601e-18)
(0.000100762 -7.78284e-05 -1.95485e-18)
(0.000117521 -4.30657e-05 -8.26578e-19)
(0.000116134 -4.68064e-05 5.17346e-18)
(0.000114649 -5.07067e-05 3.16975e-18)
(0.000113077 -5.4549e-05 2.41075e-18)
(0.000111501 -5.8303e-05 7.57841e-20)
(0.000109866 -6.19613e-05 -2.04258e-18)
(0.000108178 -6.55007e-05 -2.5537e-18)
(0.000106435 -6.89119e-05 -2.68421e-18)
(0.000104687 -7.21411e-05 -2.74169e-18)
(0.000102952 -7.52065e-05 -1.9163e-18)
(0.000101198 -7.81473e-05 -2.03839e-18)
(9.95312e-05 -8.09311e-05 -2.15591e-18)
(9.78235e-05 -8.34968e-05 -3.37302e-18)
(9.61039e-05 -8.58927e-05 -3.85794e-18)
(9.4387e-05 -8.8107e-05 -4.43695e-18)
(0.000101219 -8.15229e-05 -3.63713e-18)
(0.000118585 -4.32757e-05 -1.07479e-18)
(0.000117174 -4.69794e-05 3.80717e-18)
(0.000115626 -5.09175e-05 2.56742e-18)
(0.000114021 -5.47985e-05 2.27916e-18)
(0.000112394 -5.85826e-05 -9.68795e-20)
(0.000110711 -6.22591e-05 -1.76498e-18)
(0.000108973 -6.58105e-05 -2.24207e-18)
(0.000107183 -6.92221e-05 -2.67357e-18)
(0.000105338 -7.24424e-05 -2.72329e-18)
(0.000103531 -7.55141e-05 -1.88758e-18)
(0.000101693 -7.84483e-05 -1.71853e-18)
(9.98799e-05 -8.11822e-05 -2.29527e-18)
(9.81145e-05 -8.37215e-05 -3.88276e-18)
(9.63443e-05 -8.60917e-05 -3.86522e-18)
(9.45891e-05 -8.82683e-05 -5.24212e-18)
(0.000101103 -8.18634e-05 -4.78463e-18)
(0.000119479 -4.34421e-05 -1.2851e-18)
(0.000118079 -4.71253e-05 2.49109e-18)
(0.000116504 -5.10926e-05 1.90755e-18)
(0.000114869 -5.50122e-05 2.09896e-18)
(0.000113197 -5.88222e-05 -1.11098e-19)
(0.000111469 -6.25143e-05 -1.848e-18)
(0.000109685 -6.60747e-05 -2.12829e-18)
(0.000107846 -6.94864e-05 -2.30233e-18)
(0.000105963 -7.27183e-05 -2.32713e-18)
(0.000104092 -7.57944e-05 -2.01491e-18)
(0.000102201 -7.8715e-05 -1.4453e-18)
(0.000100291 -8.14212e-05 -2.13759e-18)
(9.84592e-05 -8.39529e-05 -3.64639e-18)
(9.66383e-05 -8.63018e-05 -3.89849e-18)
(9.48608e-05 -8.84423e-05 -5.14665e-18)
(0.000101098 -8.22415e-05 -4.61955e-18)
(0.000118856 -4.72353e-05 1.42441e-18)
(0.000117274 -5.12408e-05 1.22516e-18)
(0.000115617 -5.51903e-05 1.28319e-18)
(0.000113907 -5.90213e-05 -4.52963e-19)
(0.000112137 -6.27258e-05 -1.8072e-18)
(0.000110309 -6.62924e-05 -2.09407e-18)
(0.000108427 -6.97045e-05 -2.47672e-18)
(0.000106501 -7.29426e-05 -2.17765e-18)
(0.000104576 -7.60192e-05 -1.80804e-18)
(0.000102631 -7.89269e-05 -1.59575e-18)
(0.00010068 -8.16337e-05 -2.04425e-18)
(9.87932e-05 -8.41582e-05 -2.76903e-18)
(9.69216e-05 -8.6489e-05 -3.79846e-18)
(9.51344e-05 -8.86129e-05 -4.89765e-18)
(0.000101332 -8.27707e-05 -4.21577e-18)
(0.000119524 -4.73223e-05 1.05103e-18)
(0.000117938 -5.136e-05 7.42458e-19)
(0.000116263 -5.53334e-05 6.74272e-19)
(0.00011452 -5.91795e-05 -8.89109e-19)
(0.000112711 -6.28927e-05 -2.3224e-18)
(0.000110842 -6.6463e-05 -2.36285e-18)
(0.000108918 -6.9874e-05 -2.60385e-18)
(0.00010695 -7.31138e-05 -2.47489e-18)
(0.000104976 -7.61881e-05 -1.70666e-18)
(0.000102981 -7.90839e-05 -1.41864e-18)
(0.000100988 -8.17878e-05 -1.95118e-18)
(9.90643e-05 -8.43099e-05 -2.45837e-18)
(9.72331e-05 -8.66844e-05 -3.61806e-18)
(9.55195e-05 -8.89465e-05 -4.62334e-18)
(0.000101902 -8.3616e-05 -4.77987e-18)
(0.000120071 -4.74019e-05 6.56074e-19)
(0.000118496 -5.14529e-05 6.85505e-20)
(0.000116806 -5.54414e-05 -8.70603e-20)
(0.000115033 -5.92962e-05 -1.25454e-18)
(0.000113187 -6.30141e-05 -2.82623e-18)
(0.000111281 -6.65856e-05 -2.88952e-18)
(0.000109317 -6.99929e-05 -2.83246e-18)
(0.000107306 -7.32304e-05 -2.72256e-18)
(0.000105291 -7.63007e-05 -1.79755e-18)
(0.000103299 -7.921e-05 -1.76494e-18)
(0.000101346 -8.19621e-05 -1.55295e-18)
(9.94832e-05 -8.45793e-05 -2.33178e-18)
(9.7823e-05 -8.71451e-05 -3.46766e-18)
(9.63256e-05 -8.97203e-05 -4.65835e-18)
(0.000102817 -8.48072e-05 -6.37246e-18)
(0.000121875 -4.36923e-05 -2.60811e-19)
(0.000120519 -4.74514e-05 6.554e-19)
(0.00011895 -5.15197e-05 -6.01451e-19)
(0.000117247 -5.55134e-05 -1.02766e-18)
(0.000115445 -5.93706e-05 -1.80786e-18)
(0.000113562 -6.30892e-05 -3.33336e-18)
(0.000111623 -6.66595e-05 -3.42295e-18)
(0.000109654 -7.00738e-05 -3.17382e-18)
(0.000107677 -7.33431e-05 -3.04309e-18)
(0.000105707 -7.64722e-05 -2.05238e-18)
(0.000103826 -7.94903e-05 -2.13342e-18)
(0.000102043 -8.23996e-05 -1.27057e-18)
(0.000100373 -8.5235e-05 -2.04807e-18)
(9.88861e-05 -8.80513e-05 -3.13989e-18)
(9.75805e-05 -9.09145e-05 -4.85006e-18)
(0.000104032 -8.62493e-05 -7.47222e-18)
(0.000122229 -4.36602e-05 2.25802e-19)
(0.000120883 -4.74908e-05 4.64591e-19)
(0.000119303 -5.15579e-05 -9.86696e-19)
(0.000117585 -5.55483e-05 -1.839e-18)
(0.000115793 -5.9415e-05 -2.56674e-18)
(0.000113946 -6.3159e-05 -4.08045e-18)
(0.000112053 -6.67726e-05 -3.8124e-18)
(0.000110174 -7.0266e-05 -3.25626e-18)
(0.00010835 -7.36534e-05 -3.38369e-18)
(0.000106559 -7.69358e-05 -2.71298e-18)
(0.000104845 -8.01299e-05 -2.25139e-18)
(0.000103232 -8.32331e-05 -9.59734e-19)
(0.000101739 -8.6285e-05 -1.63218e-18)
(0.000100358 -8.9304e-05 -2.60063e-18)
(9.91182e-05 -9.23563e-05 -4.71189e-18)
(0.000105488 -8.78784e-05 -7.23612e-18)
(0.000122607 -4.36233e-05 8.40063e-19)
(0.000121238 -4.75261e-05 2.55253e-19)
(0.000119693 -5.16021e-05 -1.45216e-18)
(0.000118029 -5.56259e-05 -2.5535e-18)
(0.000116337 -5.95594e-05 -3.02387e-18)
(0.000114636 -6.33941e-05 -4.65368e-18)
(0.000112914 -6.71246e-05 -4.18481e-18)
(0.000111203 -7.07617e-05 -3.03741e-18)
(0.000109536 -7.43011e-05 -3.66919e-18)
(0.000107914 -7.7746e-05 -3.4431e-18)
(0.000106331 -8.10977e-05 -2.29717e-18)
(0.000104817 -8.43638e-05 -5.99308e-19)
(0.000103403 -8.75825e-05 -1.21407e-18)
(0.000102075 -9.0767e-05 -1.99322e-18)
(0.000100843 -9.39572e-05 -4.25692e-18)
(0.000107128 -8.96483e-05 -6.59394e-18)
(0.000123199 -4.36365e-05 1.14983e-18)
(0.000121853 -4.7648e-05 1.72553e-19)
(0.000120442 -5.17948e-05 -1.66793e-18)
(0.000118942 -5.59118e-05 -3.18264e-18)
(0.000117406 -5.99592e-05 -3.15373e-18)
(0.000115858 -6.39143e-05 -5.0396e-18)
(0.000114298 -6.7776e-05 -4.49248e-18)
(0.000112727 -7.1546e-05 -2.75328e-18)
(0.000111156 -7.52133e-05 -3.98342e-18)
(0.000109618 -7.8789e-05 -4.07857e-18)
(0.000108106 -8.22748e-05 -2.17712e-18)
(0.000106646 -8.56838e-05 -1.6581e-19)
(0.000105264 -8.90442e-05 -1.0781e-18)
(0.000103952 -9.23678e-05 -1.52998e-18)
(0.000102705 -9.56735e-05 -3.65066e-18)
(0.000108905 -9.15261e-05 -6.00101e-18)
(0.000125777 -3.99917e-05 2.92042e-18)
(0.000124244 -4.37755e-05 1.53301e-18)
(0.000122998 -4.79658e-05 -8.45551e-20)
(0.000121727 -5.22185e-05 -1.86191e-18)
(0.000120387 -5.64417e-05 -3.32604e-18)
(0.000118979 -6.05955e-05 -2.9448e-18)
(0.000117527 -6.46576e-05 -5.04339e-18)
(0.000116052 -6.863e-05 -4.7964e-18)
(0.000114554 -7.25109e-05 -2.57923e-18)
(0.000113043 -7.6293e-05 -3.98716e-18)
(0.000111547 -7.9986e-05 -4.59714e-18)
(0.000110072 -8.35948e-05 -2.21796e-18)
(0.000108639 -8.71339e-05 -3.11506e-20)
(0.000107264 -9.06223e-05 -1.1771e-18)
(0.000105946 -9.40687e-05 -1.32618e-18)
(0.000104672 -9.74819e-05 -2.96719e-18)
(0.000110789 -9.34901e-05 -5.17795e-18)
(0.000126884 -4.00834e-05 3.66337e-18)
(0.000125731 -4.41192e-05 1.64174e-18)
(0.00012461 -4.84609e-05 -2.94218e-19)
(0.000123436 -5.28145e-05 -1.93771e-18)
(0.000122187 -5.71322e-05 -3.27577e-18)
(0.000120858 -6.13804e-05 -2.86511e-18)
(0.000119468 -6.55414e-05 -4.74284e-18)
(0.000118041 -6.96149e-05 -4.89391e-18)
(0.000116583 -7.35982e-05 -2.52828e-18)
(0.000115106 -7.74887e-05 -3.56997e-18)
(0.000113633 -8.12934e-05 -5.06018e-18)
(0.000112176 -8.502e-05 -2.43571e-18)
(0.000110751 -8.86814e-05 -3.56733e-20)
(0.000109369 -9.22899e-05 -1.47655e-18)
(0.000108033 -9.58507e-05 -1.4374e-18)
(0.000106729 -9.93688e-05 -2.39814e-18)
(0.000112763 -9.55269e-05 -4.37102e-18)
(0.000129709 -3.6556e-05 2.56668e-18)
(0.000128399 -4.0351e-05 4.1262e-18)
(0.000127515 -4.46291e-05 1.56776e-18)
(0.000126508 -4.90764e-05 -5.64566e-19)
(0.000125407 -5.35229e-05 -1.83297e-18)
(0.000124216 -5.79289e-05 -2.77828e-18)
(0.000122938 -6.22667e-05 -2.84556e-18)
(0.000121589 -6.65223e-05 -4.64102e-18)
(0.000120192 -7.06929e-05 -5.00515e-18)
(0.000118757 -7.47761e-05 -2.6142e-18)
(0.0001173 -7.87723e-05 -2.6893e-18)
(0.000115838 -8.26872e-05 -5.01597e-18)
(0.000114387 -8.6529e-05 -2.98486e-18)
(0.000112959 -9.03081e-05 -4.45249e-19)
(0.000111563 -9.40322e-05 -1.69211e-18)
(0.000110201 -9.77036e-05 -1.36083e-18)
(0.000108865 -0.000101326 -1.89038e-18)
(0.000114817 -9.76291e-05 -3.7027e-18)
(0.000131249 -3.67676e-05 2.57109e-18)
(0.000130311 -4.08101e-05 4.09296e-18)
(0.000129533 -4.52464e-05 1.35726e-18)
(0.000128605 -4.97795e-05 -6.33321e-19)
(0.000127559 -5.4312e-05 -1.68688e-18)
(0.000126409 -5.88032e-05 -2.33429e-18)
(0.000125164 -6.32289e-05 -2.55043e-18)
(0.000123844 -6.75772e-05 -4.32928e-18)
(0.000122466 -7.18438e-05 -4.95496e-18)
(0.000121046 -7.60271e-05 -2.83076e-18)
(0.000119599 -8.01288e-05 -1.84138e-18)
(0.000118141 -8.41537e-05 -4.50043e-18)
(0.000116688 -8.81095e-05 -3.28848e-18)
(0.00011525 -9.20039e-05 -1.07657e-18)
(0.000113835 -9.58416e-05 -2.05575e-18)
(0.000112445 -9.96223e-05 -1.25998e-18)
(0.000111074 -0.00010335 -1.26552e-18)
(0.000116945 -9.97931e-05 -3.08528e-18)
(0.000133261 -3.71165e-05 2.18887e-18)
(0.000132497 -4.1396e-05 3.56082e-18)
(0.000131744 -4.59362e-05 9.88948e-19)
(0.000130862 -5.05497e-05 -4.41836e-19)
(0.000129852 -5.51644e-05 -1.27557e-18)
(0.00012873 -5.97397e-05 -1.97953e-18)
(0.00012751 -6.42532e-05 -2.4539e-18)
(0.000126208 -6.8694e-05 -4.36201e-18)
(0.000124843 -7.30573e-05 -4.66638e-18)
(0.000123431 -7.73419e-05 -2.56249e-18)
(0.000121989 -8.15498e-05 -1.20395e-18)
(0.000120531 -8.56854e-05 -4.04376e-18)
(0.000119071 -8.97549e-05 -3.22783e-18)
(0.000117618 -9.37637e-05 -1.28464e-18)
(0.00011618 -9.77141e-05 -2.21802e-18)
(0.00011476 -0.000101604 -1.38205e-18)
(0.000113354 -0.000105437 -8.02319e-19)
(0.000119144 -0.000102018 -2.42296e-18)
(0.000135645 -3.75795e-05 1.62285e-18)
(0.000134885 -4.2043e-05 2.94542e-18)
(0.000134123 -4.66785e-05 6.55758e-19)
(0.000133257 -5.13738e-05 -4.61631e-20)
(0.000132268 -5.60702e-05 -8.94022e-19)
(0.000131164 -6.07299e-05 -1.77278e-18)
(0.000129959 -6.5332e-05 -2.27661e-18)
(0.00012867 -6.98663e-05 -4.4084e-18)
(0.000127314 -7.43278e-05 -4.41532e-18)
(0.000125906 -7.87153e-05 -2.14997e-18)
(0.000124464 -8.30309e-05 -8.00203e-19)
(0.000123002 -8.7278e-05 -3.91099e-18)
(0.000121531 -9.14615e-05 -3.2514e-18)
(0.000120061 -9.55846e-05 -1.13985e-18)
(0.000118598 -9.96479e-05 -2.05128e-18)
(0.000117146 -0.000103648 -1.64252e-18)
(0.000115702 -0.000107587 -7.18285e-19)
(0.000121414 -0.000104303 -1.56495e-18)
(0.000138217 -3.8112e-05 7.87932e-19)
(0.000137431 -4.2728e-05 2.16073e-18)
(0.000136647 -4.7463e-05 4.59334e-19)
(0.00013578 -5.2244e-05 5.27666e-19)
(0.000134799 -5.70237e-05 -5.09518e-19)
(0.000133704 -6.17692e-05 -1.59706e-18)
(0.000132508 -6.64615e-05 -2.14013e-18)
(0.000131226 -7.10908e-05 -4.47145e-18)
(0.000129873 -7.56523e-05 -4.10467e-18)
(0.000128467 -8.01447e-05 -1.73905e-18)
(0.000127022 -8.45695e-05 -5.954e-19)
(0.000125551 -8.89293e-05 -3.97032e-18)
(0.000124067 -9.32274e-05 -3.38218e-18)
(0.000122576 -9.74654e-05 -1.0062e-18)
(0.000121086 -0.000101642 -1.81988e-18)
(0.000119602 -0.000105753 -1.72306e-18)
(0.000118119 -0.000109799 -7.26695e-19)
(0.000123755 -0.000106648 -8.58945e-19)
(0.000140915 -3.86942e-05 -1.83593e-19)
(0.000140113 -4.34463e-05 1.39092e-18)
(0.000139307 -4.82852e-05 3.0111e-19)
(0.000138427 -5.31559e-05 1.10943e-18)
(0.000137442 -5.80216e-05 -1.51138e-19)
(0.000136348 -6.2855e-05 -1.45958e-18)
(0.000135154 -6.76395e-05 -1.96518e-18)
(0.000133873 -7.23659e-05 -4.33815e-18)
(0.000132521 -7.70295e-05 -3.73296e-18)
(0.000131112 -8.16287e-05 -1.50037e-18)
(0.00012966 -8.61642e-05 -4.64851e-19)
(0.000128179 -9.0638e-05 -3.9983e-18)
(0.000126678 -9.50516e-05 -3.57802e-18)
(0.000125165 -9.94054e-05 -1.04593e-18)
(0.000123646 -0.000103697 -1.71948e-18)
(0.000122127 -0.00010792 -1.63524e-18)
(0.000120605 -0.000112073 -3.83888e-19)
(0.000126165 -0.000109056 -2.64211e-19)
(0.000143735 -3.93211e-05 -1.27178e-18)
(0.00014293 -4.41998e-05 6.98555e-19)
(0.000142099 -4.91439e-05 3.10692e-19)
(0.000141197 -5.41071e-05 1.69312e-18)
(0.000140198 -5.90616e-05 1.70212e-19)
(0.000139096 -6.39855e-05 -1.42361e-18)
(0.000137896 -6.88646e-05 -1.69484e-18)
(0.000136612 -7.36904e-05 -3.95394e-18)
(0.000135255 -7.84582e-05 -3.33079e-18)
(0.00013384 -8.31662e-05 -1.25009e-18)
(0.000132379 -8.78143e-05 -2.14939e-19)
(0.000130884 -9.24034e-05 -3.74451e-18)
(0.000129364 -9.69338e-05 -3.82773e-18)
(0.000127826 -0.000101405 -1.31299e-18)
(0.000126278 -0.000105812 -1.74872e-18)
(0.000124723 -0.000110148 -1.46323e-18)
(0.00012316 -0.000114411 3.15971e-19)
(0.000128647 -0.000111527 2.53288e-19)
(0.000146706 -3.99948e-05 -2.31732e-18)
(0.000145891 -4.4991e-05 -7.03504e-20)
(0.000145025 -5.00382e-05 2.36634e-19)
(0.00014409 -5.50955e-05 2.02007e-18)
(0.000143066 -6.01416e-05 5.13753e-19)
(0.000141947 -6.5159e-05 -1.34047e-18)
(0.000140736 -7.01354e-05 -1.5194e-18)
(0.000139442 -7.50632e-05 -3.51654e-18)
(0.000138077 -7.99377e-05 -3.05948e-18)
(0.000136652 -8.47566e-05 -9.79167e-19)
(0.000135179 -8.95191e-05 2.87069e-19)
(0.000133667 -9.42251e-05 -3.16575e-18)
(0.000132125 -9.88737e-05 -4.12798e-18)
(0.000130561 -0.000103463 -1.76244e-18)
(0.000128981 -0.000107987 -1.88919e-18)
(0.00012739 -0.000112439 -1.50218e-18)
(0.000125786 -0.000116813 1.09502e-18)
(0.000131201 -0.000114063 8.82844e-19)
(0.000149863 -4.07175e-05 -3.14197e-18)
(0.000149009 -4.58187e-05 -8.59854e-19)
(0.000148089 -5.09653e-05 1.70419e-19)
(0.000147106 -5.61184e-05 1.89801e-18)
(0.000146046 -6.12595e-05 5.92075e-19)
(0.000144902 -6.63738e-05 -1.09245e-18)
(0.000143673 -7.1451e-05 -1.48818e-18)
(0.000142365 -7.64837e-05 -3.23146e-18)
(0.000140987 -8.14674e-05 -2.91361e-18)
(0.000139549 -8.63994e-05 -7.35395e-19)
(0.000138059 -9.12783e-05 1.08473e-18)
(0.000136528 -9.61029e-05 -2.40988e-18)
(0.000134963 -0.000100872 -4.55542e-18)
(0.000133371 -0.000105581 -2.31737e-18)
(0.000131758 -0.000110224 -1.90676e-18)
(0.000130129 -0.000114793 -1.67006e-18)
(0.000128483 -0.000119282 1.65892e-18)
(0.00013383 -0.000116666 1.84519e-18)
(0.000153233 -4.14834e-05 -3.6671e-18)
(0.000152288 -4.66751e-05 -1.55405e-18)
(0.000151286 -5.19198e-05 1.47748e-19)
(0.000150241 -5.71722e-05 1.4689e-18)
(0.000149135 -6.24127e-05 5.07923e-19)
(0.000147958 -6.76283e-05 -7.20563e-19)
(0.000146706 -7.28098e-05 -1.60527e-18)
(0.000145379 -7.79508e-05 -3.13013e-18)
(0.000143985 -8.30465e-05 -2.65775e-18)
(0.00014253 -8.80942e-05 -4.4451e-19)
(0.000141022 -9.30918e-05 2.02538e-18)
(0.00013947 -9.80373e-05 -1.57001e-18)
(0.000137879 -0.000102928 -4.99322e-18)
(0.000136258 -0.00010776 -2.78306e-18)
(0.000134611 -0.000112525 -1.82332e-18)
(0.000132944 -0.000117214 -1.76341e-18)
(0.000131257 -0.00012182 1.83896e-18)
(0.000136537 -0.00011934 2.87526e-18)
(0.000156807 -4.22721e-05 -4.05619e-18)
(0.000155712 -4.75462e-05 -1.98733e-18)
(0.000154605 -5.28942e-05 3.31199e-19)
(0.000153486 -5.82524e-05 1.04575e-18)
(0.000152328 -6.35985e-05 2.60108e-19)
(0.000151114 -6.89206e-05 -5.69354e-19)
(0.000149833 -7.4211e-05 -1.85534e-18)
(0.000148485 -7.94638e-05 -3.03155e-18)
(0.000147071 -8.46749e-05 -2.26917e-18)
(0.000145596 -8.98412e-05 -9.4144e-20)
(0.000144068 -9.49601e-05 2.89109e-18)
(0.000142493 -0.000100029 -8.51222e-19)
(0.000140876 -0.000105045 -5.3323e-18)
(0.000139224 -0.000110001 -2.90782e-18)
(0.000137543 -0.000114892 -1.55141e-18)
(0.000135839 -0.000119704 -1.5672e-18)
(0.000134111 -0.000124432 1.771e-18)
(0.000139327 -0.000122091 3.07941e-18)
(0.000160526 -4.30471e-05 -4.26921e-18)
(0.000159243 -4.84157e-05 -2.25168e-18)
(0.000158024 -5.38814e-05 4.49374e-19)
(0.000156829 -5.93556e-05 8.30901e-19)
(0.000155619 -6.48149e-05 1.81073e-19)
(0.000154365 -7.02495e-05 -8.46003e-19)
(0.000153055 -7.56536e-05 -2.24694e-18)
(0.000151682 -8.10227e-05 -2.81375e-18)
(0.000150246 -8.63529e-05 -1.98281e-18)
(0.000148751 -9.16411e-05 2.10706e-19)
(0.0001472 -9.68846e-05 3.45539e-18)
(0.000145601 -0.00010208 -5.94953e-19)
(0.000143957 -0.000107224 -5.61533e-18)
(0.000142276 -0.00011231 -2.78366e-18)
(0.000140561 -0.000117329 -1.1928e-18)
(0.00013882 -0.00012227 -1.19445e-18)
(0.000137053 -0.000127124 1.74166e-18)
(0.000142209 -0.000124926 2.56548e-18)
(0.000164281 -4.37671e-05 -4.42819e-18)
(0.000162831 -4.92729e-05 -2.35379e-18)
(0.000161518 -5.48777e-05 4.81347e-19)
(0.00016026 -6.048e-05 8.06393e-19)
(0.000159001 -6.60608e-05 3.70067e-19)
(0.00015771 -7.16146e-05 -1.54295e-18)
(0.00015637 -7.7138e-05 -2.61549e-18)
(0.000154972 -8.2628e-05 -2.14032e-18)
(0.000153513 -8.80816e-05 -1.69884e-18)
(0.000151996 -9.34958e-05 3.10203e-19)
(0.000150423 -9.88678e-05 3.68088e-18)
(0.000148799 -0.000104194 -6.5742e-19)
(0.000147129 -0.00010947 -5.67573e-18)
(0.000145418 -0.000114689 -2.58407e-18)
(0.000143671 -0.000119842 -1.01802e-18)
(0.000141894 -0.000124917 -9.59394e-19)
(0.000140088 -0.000129903 1.76429e-18)
(0.000145188 -0.00012785 2.14174e-18)
(0.000167952 -4.44183e-05 -4.53473e-18)
(0.00016643 -5.01205e-05 -2.42152e-18)
(0.000165068 -5.58847e-05 4.23005e-19)
(0.000163767 -6.16265e-05 8.6305e-19)
(0.000162471 -6.73372e-05 8.7944e-19)
(0.000161148 -7.3017e-05 -2.36763e-18)
(0.00015978 -7.86656e-05 -3.06343e-18)
(0.000158358 -8.42818e-05 -1.17385e-18)
(0.000156877 -8.98635e-05 -1.20832e-18)
(0.000155338 -9.54084e-05 2.94406e-19)
(0.000153743 -0.000100913 3.71289e-18)
(0.000152095 -0.000106375 -7.09491e-19)
(0.000150399 -0.000111788 -5.26224e-18)
(0.000148659 -0.000117145 -2.01303e-18)
(0.00014688 -0.000122438 -7.91743e-19)
(0.000145068 -0.000127651 -8.85813e-19)
(0.000143225 -0.000132775 1.43479e-18)
(0.000148271 -0.000130871 1.96352e-18)
(0.000171465 -4.50595e-05 -4.71598e-18)
(0.000170015 -5.09755e-05 -2.59309e-18)
(0.000168662 -5.69098e-05 2.83868e-19)
(0.000167346 -6.27991e-05 9.05053e-19)
(0.000166027 -6.86469e-05 1.61336e-18)
(0.00016468 -7.44592e-05 -3.11994e-18)
(0.000163289 -8.02391e-05 -3.63032e-18)
(0.000161845 -8.59871e-05 -2.65086e-19)
(0.000160344 -9.17023e-05 -6.06414e-19)
(0.000158784 -9.7383e-05 2.16225e-19)
(0.000157167 -0.000103026 3.56124e-18)
(0.000155496 -0.000108628 -7.40898e-19)
(0.000153774 -0.000114183 -4.66651e-18)
(0.000152006 -0.000119684 -1.23368e-18)
(0.000150195 -0.000125121 -2.64767e-19)
(0.000148349 -0.000130478 -5.19312e-19)
(0.000146467 -0.000135744 7.33249e-19)
(0.000151459 -0.000133991 1.49504e-18)
(0.000176048 -4.02638e-05 -2.98835e-18)
(0.000174857 -4.57339e-05 -4.89289e-18)
(0.000173594 -5.18625e-05 -2.78683e-18)
(0.000172304 -5.79638e-05 -1.25906e-20)
(0.000171001 -6.4004e-05 7.10094e-19)
(0.000169676 -6.99946e-05 2.4e-18)
(0.000168314 -7.59455e-05 -3.39738e-18)
(0.000166905 -8.18626e-05 -4.04294e-18)
(0.000165443 -8.77482e-05 2.8427e-19)
(0.000163922 -9.36026e-05 -2.96468e-19)
(0.000162342 -9.94243e-05 7.34483e-20)
(0.000160704 -0.000105211 3.37232e-18)
(0.00015901 -0.000110958 -7.26731e-19)
(0.000157262 -0.000116661 -4.11773e-18)
(0.000155464 -0.00012231 -5.59316e-19)
(0.000153621 -0.000127895 3.88914e-19)
(0.000151737 -0.0001334 1.76902e-19)
(0.000149813 -0.00013881 1.64079e-19)
(0.000154748 -0.000137205 7.63019e-19)
(0.000178898 -4.07214e-05 -3.02492e-18)
(0.000178239 -4.65073e-05 -5.09082e-18)
(0.000177203 -5.2802e-05 -2.87325e-18)
(0.000176009 -5.90581e-05 -4.42078e-19)
(0.000174743 -6.5249e-05 2.11034e-19)
(0.000173425 -7.1386e-05 2.93602e-18)
(0.000172057 -7.74808e-05 -3.39229e-18)
(0.000170636 -8.35407e-05 -4.15948e-18)
(0.000169157 -8.95696e-05 7.22536e-19)
(0.000167619 -9.55685e-05 -1.82791e-19)
(0.00016602 -0.000101537 -1.59595e-19)
(0.00016436 -0.000107471 3.14117e-18)
(0.000162641 -0.000113369 -7.35924e-19)
(0.000160865 -0.000119222 -3.70749e-18)
(0.000159035 -0.000125023 3.83607e-21)
(0.000157154 -0.000130758 1.17944e-18)
(0.000155227 -0.000136411 9.14869e-19)
(0.000153254 -0.000141965 3.80281e-20)
(0.000158124 -0.000140503 4.73055e-19)
(0.00018335 -3.61266e-05 8.78703e-19)
(0.000182072 -4.13084e-05 -2.84637e-18)
(0.000181729 -4.73877e-05 -5.06479e-18)
(0.000180891 -5.38035e-05 -2.66218e-18)
(0.000179803 -6.0202e-05 -8.53813e-19)
(0.000178586 -6.65415e-05 -4.82592e-19)
(0.000177285 -7.28272e-05 3.15591e-18)
(0.000175918 -7.907e-05 -3.4294e-18)
(0.000174489 -8.52778e-05 -4.23717e-18)
(0.000172996 -9.1455e-05 1.00249e-18)
(0.00017144 -9.76031e-05 -7.64045e-20)
(0.00016982 -0.000103722 -1.89399e-19)
(0.000168136 -0.000109808 3.02351e-18)
(0.000166388 -0.000115858 -8.66214e-19)
(0.000164579 -0.000121864 -3.48921e-18)
(0.00016271 -0.000127817 4.98265e-19)
(0.000160784 -0.000133701 2.09307e-18)
(0.000158805 -0.000139499 1.43924e-18)
(0.000156772 -0.000145191 2.6481e-20)
(0.000161563 -0.000143865 8.55915e-19)
(0.000186362 -3.65367e-05 7.60712e-19)
(0.000185659 -4.20653e-05 -2.375e-18)
(0.000185402 -4.83469e-05 -4.78894e-18)
(0.000184703 -5.48701e-05 -2.37786e-18)
(0.000183711 -6.14019e-05 -1.21808e-18)
(0.000182546 -6.7887e-05 -1.20119e-18)
(0.000181267 -7.43226e-05 3.26148e-18)
(0.000179904 -8.07165e-05 -3.57386e-18)
(0.000178468 -8.70759e-05 -4.38584e-18)
(0.000176961 -9.34051e-05 1.00131e-18)
(0.000175384 -9.97058e-05 -1.38512e-19)
(0.000173739 -0.000105978 -1.26364e-21)
(0.000172025 -0.000112218 3.16932e-18)
(0.000170242 -0.00011842 -9.69079e-19)
(0.000168391 -0.000124578 -3.34281e-18)
(0.000166473 -0.000130679 9.03735e-19)
(0.00016449 -0.000136708 2.7764e-18)
(0.000162446 -0.000142644 1.8556e-18)
(0.000160339 -0.000148464 3.50116e-20)
(0.000165035 -0.000147263 1.4076e-18)
(0.000189971 -3.70663e-05 5.78355e-19)
(0.000189562 -4.29415e-05 -1.77903e-18)
(0.000189292 -4.93686e-05 -4.28705e-18)
(0.00018867 -5.59993e-05 -2.18859e-18)
(0.000187751 -6.26596e-05 -1.49522e-18)
(0.000186631 -6.92878e-05 -1.90386e-18)
(0.000185374 -7.58734e-05 3.28308e-18)
(0.000184014 -8.242e-05 -3.73287e-18)
(0.000182568 -8.89331e-05 -4.44162e-18)
(0.000181042 -9.54162e-05 8.1884e-19)
(0.000179441 -0.000101871 -4.92411e-19)
(0.000177763 -0.000108296 2.10944e-19)
(0.00017601 -0.000114689 3.54592e-18)
(0.000174181 -0.000121042 -9.33777e-19)
(0.000172276 -0.000127347 -3.06379e-18)
(0.000170297 -0.000133591 1.33928e-18)
(0.000168244 -0.000139756 2.97074e-18)
(0.00016612 -0.00014582 1.98937e-18)
(0.000163924 -0.000151755 -1.80766e-19)
(0.000168509 -0.000150669 1.43279e-18)
(0.000194122 -3.77106e-05 2.82096e-19)
(0.000193726 -4.38768e-05 -1.2848e-18)
(0.000193396 -5.04403e-05 -3.43498e-18)
(0.000192802 -5.71843e-05 -1.94921e-18)
(0.000191927 -6.39717e-05 -1.72616e-18)
(0.000190839 -7.0741e-05 -2.70138e-18)
(0.000189596 -7.74757e-05 3.11354e-18)
(0.000188234 -8.41751e-05 -3.78398e-18)
(0.000186773 -9.0842e-05 -4.29952e-18)
(0.000185222 -9.74788e-05 6.70808e-19)
(0.000183586 -0.000104086 -9.79002e-19)
(0.000181866 -0.000110663 2.67133e-19)
(0.000180063 -0.000117204 3.97215e-18)
(0.000178176 -0.000123703 -7.05782e-19)
(0.000176205 -0.000130148 -2.59862e-18)
(0.000174151 -0.000136527 2.01209e-18)
(0.000172014 -0.000142819 2.94491e-18)
(0.000169798 -0.000149 1.81898e-18)
(0.000167501 -0.000155041 -5.28593e-19)
(0.000171962 -0.000154062 9.9447e-19)
(0.00019857 -3.84273e-05 1.4183e-19)
(0.000198097 -4.4843e-05 -9.86419e-19)
(0.000197688 -5.1549e-05 -2.56016e-18)
(0.000197081 -5.84138e-05 -1.65274e-18)
(0.000196222 -6.5329e-05 -1.92104e-18)
(0.00019515 -7.22378e-05 -3.58784e-18)
(0.00019391 -7.91197e-05 2.64555e-18)
(0.000192538 -8.59701e-05 -3.64424e-18)
(0.000191053 -9.27889e-05 -3.98547e-18)
(0.000189467 -9.9577e-05 4.85568e-19)
(0.000187787 -0.000106334 -1.46058e-18)
(0.000186014 -0.000113058 1.33261e-19)
(0.00018415 -0.000119742 4.4876e-18)
(0.000182193 -0.00012638 -1.42959e-19)
(0.000180144 -0.000132959 -2.02228e-18)
(0.000178005 -0.000139465 2.86322e-18)
(0.000175776 -0.000145878 3.18299e-18)
(0.000173462 -0.00015217 1.48311e-18)
(0.000171063 -0.000158313 -1.16691e-18)
(0.0001754 -0.000157444 3.86617e-19)
(0.000203168 -3.91871e-05 1.88436e-19)
(0.000202608 -4.5824e-05 -9.50443e-19)
(0.000202114 -5.26803e-05 -1.83194e-18)
(0.000201469 -5.96726e-05 -1.26899e-18)
(0.000200601 -6.6717e-05 -2.16014e-18)
(0.000199526 -7.37635e-05 -4.46464e-18)
(0.000198277 -8.07899e-05 1.89385e-18)
(0.000196884 -8.7788e-05 -3.44079e-18)
(0.000195366 -9.47551e-05 -3.49855e-18)
(0.000193736 -0.000101691 2.21685e-19)
(0.000192003 -0.000108593 -1.84271e-18)
(0.000190169 -0.000115459 -1.92464e-19)
(0.000188235 -0.000122282 4.93099e-18)
(0.000186202 -0.000129055 7.90527e-19)
(0.000184072 -0.000135764 -1.23632e-18)
(0.000181846 -0.000142396 3.66986e-18)
(0.000179529 -0.000148929 3.76495e-18)
(0.000177125 -0.000155338 1.50603e-18)
(0.000174638 -0.000161593 -1.95184e-18)
(0.00017887 -0.000160854 -2.82799e-19)
(0.000207815 -3.99682e-05 4.03092e-19)
(0.000207182 -4.68069e-05 -1.14352e-18)
(0.000206604 -5.38179e-05 -1.31808e-18)
(0.000205905 -6.09426e-05 -1.01767e-18)
(0.00020501 -6.81172e-05 -2.62229e-18)
(0.000203916 -7.52996e-05 -5.21213e-18)
(0.000202647 -8.24672e-05 1.14727e-18)
(0.000201224 -8.96092e-05 -3.28003e-18)
(0.000199667 -9.67209e-05 -3.15388e-18)
(0.000197989 -0.0001038 -2.12734e-19)
(0.000196199 -0.000110846 -1.95619e-18)
(0.000194302 -0.000117852 -5.39033e-19)
(0.0001923 -0.000124813 4.97247e-18)
(0.000190195 -0.000131721 1.794e-18)
(0.000187992 -0.000138566 -2.03691e-20)
(0.000185694 -0.000145332 4.21168e-18)
(0.000183308 -0.000152003 4.01983e-18)
(0.000180842 -0.000158551 1.93917e-18)
(0.0001783 -0.00016495 -2.44794e-18)
(0.000182474 -0.000164382 -6.76644e-19)
(0.000212429 -4.07531e-05 6.0833e-19)
(0.00021174 -4.77793e-05 -1.45561e-18)
(0.000211085 -5.49458e-05 -8.24179e-19)
(0.000210325 -6.22057e-05 -9.27327e-19)
(0.000209391 -6.95113e-05 -3.31258e-18)
(0.00020827 -7.68282e-05 -5.70337e-18)
(0.000206974 -8.41344e-05 5.93778e-19)
(0.00020552 -9.14176e-05 -3.2643e-18)
(0.000203923 -9.86721e-05 -3.09899e-18)
(0.0002022 -0.000105896 -6.60094e-19)
(0.000200361 -0.000113085 -1.78179e-18)
(0.000198412 -0.000120236 -7.98001e-19)
(0.000196356 -0.000127343 4.69587e-18)
(0.0001942 -0.0001344 2.47128e-18)
(0.000191951 -0.000141398 1.54311e-18)
(0.000189616 -0.000148327 4.89078e-18)
(0.000187203 -0.000155169 3.69844e-18)
(0.000184723 -0.000161903 1.97578e-18)
(0.000182184 -0.000168504 -2.89616e-18)
(0.000186374 -0.000168169 -6.3315e-19)
(0.000216948 -4.15294e-05 6.34614e-19)
(0.000216218 -4.87318e-05 -1.73469e-18)
(0.000215496 -5.60522e-05 -2.75269e-19)
(0.00021468 -6.34491e-05 -1.20533e-18)
(0.000213705 -7.08872e-05 -4.15437e-18)
(0.000212557 -7.8339e-05 -5.81792e-18)
(0.000211237 -8.57838e-05 3.16076e-19)
(0.000209758 -9.32093e-05 -3.27922e-18)
(0.000208135 -0.00010061 -3.2612e-18)
(0.000206385 -0.000107984 -1.0333e-18)
(0.000204519 -0.000115328 -1.48042e-18)
(0.000202544 -0.000122638 -1.02897e-18)
(0.000200468 -0.000129912 4.56981e-18)
(0.000198301 -0.000137146 3.118e-18)
(0.000196054 -0.000144336 3.11634e-18)
(0.000193737 -0.000151474 5.73896e-18)
(0.000191361 -0.000158548 3.36023e-18)
(0.000188938 -0.000165538 1.73602e-18)
(0.000186476 -0.000172425 -3.63184e-18)
(0.000190777 -0.000172405 -5.50682e-19)
(0.000221355 -4.22925e-05 4.27922e-19)
(0.000220596 -4.96629e-05 -2.0496e-18)
(0.000219824 -5.7136e-05 4.01293e-19)
(0.000218962 -6.46728e-05 -1.67369e-18)
(0.000217959 -7.22475e-05 -5.16618e-18)
(0.000216794 -7.98383e-05 -5.8284e-18)
(0.000215465 -8.74269e-05 4.7513e-20)
(0.000213982 -9.50028e-05 -3.36974e-18)
(0.00021236 -0.000102562 -3.42446e-18)
(0.000210616 -0.000110103 -1.28721e-18)
(0.000208761 -0.000117624 -1.17467e-18)
(0.000206806 -0.000125122 -1.42271e-18)
(0.000204763 -0.0001326 4.42044e-18)
(0.000202645 -0.000140059 3.82974e-18)
(0.000200467 -0.000147498 4.84264e-18)
(0.000198241 -0.000154914 6.76361e-18)
(0.000195978 -0.000162298 3.12942e-18)
(0.000193691 -0.000169634 1.5597e-18)
(0.000191389 -0.000176909 -4.36534e-18)
(0.000195905 -0.000177295 -5.39175e-19)
(0.000225703 -4.30509e-05 -3.63963e-20)
(0.000224931 -5.05859e-05 -2.41849e-18)
(0.00022413 -5.82139e-05 1.24958e-18)
(0.000223246 -6.58975e-05 -2.05788e-18)
(0.000222234 -7.3618e-05 -6.17377e-18)
(0.000221075 -8.13585e-05 -5.81133e-18)
(0.000219764 -8.91041e-05 -3.02633e-19)
(0.000218311 -9.68483e-05 -3.56121e-18)
(0.000216732 -0.00010459 -3.62052e-18)
(0.000215042 -0.000112328 -1.61063e-18)
(0.000213253 -0.000120061 -1.01372e-18)
(0.000211379 -0.000127792 -1.88504e-18)
(0.000209435 -0.000135528 4.10745e-18)
(0.000207438 -0.000143275 4.48421e-18)
(0.000205403 -0.000151036 6.80494e-18)
(0.000203344 -0.000158811 7.98384e-18)
(0.000201269 -0.000166594 3.05016e-18)
(0.00019919 -0.000174372 1.5526e-18)
(0.000197113 -0.000182135 -4.70605e-18)
(0.000201932 -0.000183007 -3.50024e-19)
(0.000230151 -4.38313e-05 -6.99249e-19)
(0.000229388 -5.1535e-05 -2.90892e-18)
(0.000228585 -5.93271e-05 2.08348e-18)