/*--------------------------------*- C++ -*----------------------------------*\
  =========                 |
  \\      /  F ield         | OpenFOAM: The Open Source CFD Toolbox
   \\    /   O peration     | Website:  https://openfoam.org
    \\  /    A nd           | Version:  7
     \\/     M anipulation  |
\*---------------------------------------------------------------------------*/
FoamFile
{
    version     2.0;
    format      ascii;
    class       volScalarField;
    location    "32000";
    object      strainRate;
}
// * * * * * * * * * * * * * * * * * * * * * * * * * * * * * * * * * * * * * //

dimensions      [0 0 -1 0 0 0 0];

internalField   nonuniform List<scalar> 
4844
(
0.00733541
0.00737614
0.00742078
0.00750012
0.00754126
0.00758635
0.00763531
0.00768812
0.00774466
0.00780486
0.00786861
0.00766683
0.00770839
0.00775396
0.00780345
0.00785682
0.00791396
0.00797478
0.0080392
0.00810715
0.00817858
0.00825332
0.0078356
0.00787762
0.00792368
0.00797372
0.00802766
0.00808542
0.0081469
0.00821203
0.00828074
0.00835295
0.00842851
0.00850735
0.00858935
0.00867437
0.00876229
0.00890531
0.0080065
0.00804901
0.00809559
0.00814618
0.00820071
0.00825911
0.00832127
0.00838715
0.00845665
0.00852967
0.00860609
0.00868583
0.00876877
0.00885474
0.00894369
0.00908624
0.00817962
0.00822263
0.00826976
0.00832091
0.00837606
0.00843511
0.00849797
0.00856461
0.00863493
0.00870879
0.00878612
0.00886679
0.00895068
0.00903765
0.00912766
0.00926985
0.00839857
0.00844625
0.008498
0.00855377
0.00861349
0.0086771
0.00874451
0.00881566
0.00889039
0.00896865
0.00905027
0.00913515
0.00922317
0.00931425
0.0094562
0.00857692
0.00862516
0.00867752
0.00873395
0.00879436
0.00885871
0.00892693
0.00899893
0.00907456
0.00915376
0.00923636
0.00932227
0.00941139
0.00950358
0.00964537
0.00875777
0.00880657
0.00885955
0.00891666
0.00897779
0.00904292
0.00911197
0.00918482
0.00926139
0.00934155
0.00942515
0.00951213
0.00960238
0.00969572
0.00983742
0.00889618
0.00894122
0.00899057
0.00904421
0.00910198
0.00916386
0.0092298
0.00929971
0.00937344
0.00945096
0.0095321
0.00961674
0.00970483
0.00979622
0.00989075
0.0100325
0.00908175
0.00912732
0.00917727
0.00923156
0.00929002
0.00935268
0.00941944
0.00949023
0.0095649
0.00964337
0.00972555
0.00981127
0.00990047
0.00999303
0.0100888
0.0102306
0.00927004
0.00931618
0.00936676
0.00942169
0.00948088
0.00954433
0.00961194
0.00968363
0.00975926
0.00983874
0.00992196
0.0100088
0.0100992
0.0101929
0.01029
0.010432
0.00946116
0.0095079
0.0095591
0.00961471
0.00967466
0.00973892
0.0098074
0.00988
0.00995661
0.0100371
0.0101214
0.0102095
0.010301
0.010396
0.0104943
0.0106367
0.00961235
0.0096552
0.00970255
0.0097544
0.00981073
0.00987144
0.00993654
0.0100059
0.0100795
0.0101571
0.0102387
0.0103241
0.0104133
0.0105061
0.0106024
0.0107021
0.0108448
0.00980889
0.00985228
0.00990024
0.00995276
0.0100098
0.0100713
0.0101373
0.0102076
0.0102821
0.0103608
0.0104435
0.01053
0.0106205
0.0107146
0.0108122
0.0109132
0.0110564
0.00996939
0.0100086
0.0100525
0.0101011
0.0101543
0.0102121
0.0102745
0.0103413
0.0104125
0.0104881
0.0105678
0.0106516
0.0107394
0.0108311
0.0109265
0.0110255
0.0111279
0.0112716
0.0101718
0.0102115
0.0102559
0.0103051
0.0103591
0.0104176
0.0104809
0.0105486
0.0106208
0.0106974
0.0107782
0.0108632
0.0109522
0.0110452
0.011142
0.0112424
0.0113463
0.0114906
0.0103774
0.0104176
0.0104627
0.0105126
0.0105672
0.0106266
0.0106907
0.0107594
0.0108326
0.0109102
0.0109922
0.0110784
0.0111687
0.011263
0.0113612
0.0114631
0.0115684
0.0117134
0.0105865
0.0106272
0.0106729
0.0107235
0.0107789
0.0108391
0.0109041
0.0109738
0.011048
0.0111267
0.0112099
0.0112973
0.0113889
0.0114846
0.0115842
0.0116876
0.0117945
0.0119402
0.0107991
0.0108404
0.0108867
0.010938
0.0109942
0.0110553
0.0111212
0.0111918
0.0112671
0.011347
0.0114313
0.01152
0.011613
0.0117101
0.0118112
0.0119161
0.0120246
0.0121712
0.0110154
0.0110572
0.0111042
0.0111562
0.0112132
0.0112752
0.011342
0.0114137
0.0114901
0.0115711
0.0116567
0.0117467
0.0118411
0.0119396
0.0120423
0.0121487
0.0122589
0.0124064
0.0112354
0.0112778
0.0113254
0.0113782
0.011436
0.0114989
0.0115668
0.0116395
0.011717
0.0117992
0.0118861
0.0119775
0.0120733
0.0121733
0.0122775
0.0123856
0.0124974
0.0126459
0.0114593
0.0115023
0.0115507
0.0116042
0.0116629
0.0117267
0.0117956
0.0118694
0.0119481
0.0120315
0.0121197
0.0122124
0.0123097
0.0124113
0.0125171
0.0126269
0.0127404
0.0128899
0.0116873
0.0117309
0.01178
0.0118343
0.0118938
0.0119586
0.0120285
0.0121035
0.0121833
0.012268
0.0123576
0.0124518
0.0125505
0.0126537
0.0127612
0.0128727
0.012988
0.0131387
0.0119194
0.0119637
0.0120135
0.0120686
0.0121291
0.0121948
0.0122658
0.0123419
0.012423
0.012509
0.0125999
0.0126956
0.0127959
0.0129008
0.0130099
0.0131231
0.0132403
0.0133922
0.0121559
0.0122009
0.0122514
0.0123074
0.0123688
0.0124355
0.0125076
0.0125848
0.0126672
0.0127546
0.0128469
0.0129441
0.013046
0.0131525
0.0132634
0.0133784
0.0134975
0.0136507
0.0123969
0.0124426
0.0124939
0.0125507
0.0126131
0.0126808
0.012754
0.0128325
0.0129161
0.0130049
0.0130987
0.0131974
0.013301
0.0134092
0.0135218
0.0136387
0.0137597
0.0139144
0.0126425
0.0126889
0.012741
0.0127987
0.0128621
0.0129309
0.0130052
0.0130849
0.0131699
0.0132601
0.0133554
0.0134557
0.013561
0.0136709
0.0137854
0.0139043
0.0140272
0.0141834
0.0128928
0.01294
0.0129929
0.0130516
0.0131159
0.0131858
0.0132613
0.0133423
0.0134287
0.0135203
0.0136172
0.0137192
0.0138262
0.0139379
0.0140543
0.0141751
0.0143002
0.0144579
0.0131482
0.0131961
0.0132499
0.0133095
0.0133749
0.0134459
0.0135225
0.0136048
0.0136927
0.0137858
0.0138843
0.013988
0.0140967
0.0142103
0.0143287
0.0144515
0.0145787
0.0147381
0.0133658
0.0134086
0.0134574
0.013512
0.0135725
0.013639
0.0137112
0.013789
0.0138727
0.013962
0.0140567
0.0141568
0.0142623
0.0143728
0.0144884
0.0146087
0.0147337
0.014863
0.0150241
0.0136309
0.0136744
0.0137239
0.0137794
0.013841
0.0139085
0.0139819
0.0140611
0.0141461
0.0142369
0.0143332
0.014435
0.0145422
0.0146547
0.0147722
0.0148947
0.0150218
0.0151533
0.0153162
0.0138637
0.0139015
0.0139457
0.013996
0.0140524
0.014115
0.0141836
0.0142582
0.0143388
0.0144252
0.0145175
0.0146155
0.014719
0.0148281
0.0149425
0.0150621
0.0151867
0.015316
0.0154499
0.0156146
0.0141393
0.0141778
0.0142226
0.0142737
0.0143311
0.0143947
0.0144645
0.0145404
0.0146223
0.0147102
0.014804
0.0149037
0.0150091
0.0151201
0.0152365
0.0153582
0.0154849
0.0156165
0.0157527
0.0159195
0.0144207
0.0144598
0.0145054
0.0145573
0.0146157
0.0146804
0.0147514
0.0148285
0.0149119
0.0150013
0.0150967
0.0151982
0.0153055
0.0154183
0.0155368
0.0156607
0.0157897
0.0159235
0.0160622
0.016231
0.0147082
0.0147479
0.0147942
0.014847
0.0149064
0.0149722
0.0150444
0.0151229
0.0152077
0.0152987
0.0153959
0.0154991
0.0156082
0.0157231
0.0158437
0.0159698
0.0161011
0.0162374
0.0163786
0.0165495
0.0150019
0.0150423
0.0150893
0.0151431
0.0152034
0.0152704
0.0153439
0.0154238
0.0155101
0.0156027
0.0157016
0.0158066
0.0159177
0.0160346
0.0161574
0.0162858
0.0164195
0.0165583
0.016702
0.0168753
0.015302
0.0153431
0.0153909
0.0154456
0.015507
0.0155751
0.01565
0.0157313
0.0158192
0.0159134
0.0160141
0.016121
0.0162341
0.0163532
0.0164782
0.0166089
0.0167451
0.0168865
0.0170328
0.0172084
0.0156089
0.0156507
0.0156993
0.015755
0.0158175
0.0158868
0.015963
0.0160457
0.0161352
0.0162311
0.0163336
0.0164425
0.0165577
0.016679
0.0168063
0.0169394
0.0170781
0.0172222
0.0173712
0.0175492
0.0159227
0.0159652
0.0160147
0.0160714
0.016135
0.0162055
0.0162831
0.0163674
0.0164584
0.0165561
0.0166605
0.0167714
0.0168887
0.0170123
0.0171419
0.0172775
0.0174189
0.0175657
0.0177176
0.017898
0.0162436
0.016287
0.0163374
0.016395
0.0164598
0.0165316
0.0166106
0.0166964
0.016789
0.0168886
0.0169949
0.0171079
0.0172274
0.0173533
0.0174854
0.0176236
0.0177676
0.0179172
0.018072
0.0182551
0.016572
0.0166162
0.0166675
0.0167262
0.0167921
0.0168653
0.0169457
0.0170331
0.0171275
0.0172289
0.0173372
0.0174524
0.0175742
0.0177024
0.0178371
0.0179778
0.0181246
0.0182771
0.018435
0.0186208
0.0169081
0.0169531
0.0170054
0.0170652
0.0171323
0.0172069
0.0172888
0.0173778
0.0174739
0.0175773
0.0176877
0.017805
0.0179292
0.0180599
0.0181971
0.0183406
0.0184902
0.0186457
0.0188067
0.0189954
0.0172523
0.0172981
0.0173514
0.0174122
0.0174806
0.0175567
0.01764
0.0177308
0.0178288
0.017934
0.0180465
0.0181661
0.0182927
0.018426
0.0185659
0.0187122
0.0188648
0.0190233
0.0191875
0.0193791
0.0176047
0.0176514
0.0177057
0.0177677
0.0178374
0.0179149
0.0179998
0.0180923
0.0181923
0.0182995
0.0184142
0.0185361
0.0186651
0.018801
0.0189437
0.0190929
0.0192485
0.0194102
0.0195777
0.0197723
0.0179658
0.0180134
0.0180687
0.0181319
0.018203
0.0182819
0.0183685
0.0184628
0.0185647
0.018674
0.018791
0.0189153
0.0190468
0.0191854
0.0193309
0.0194831
0.0196418
0.0198069
0.0199777
0.0201755
0.0183358
0.0183843
0.0184407
0.0185051
0.0185777
0.0186581
0.0187464
0.0188425
0.0189464
0.0190579
0.0191772
0.0193039
0.019438
0.0195794
0.0197279
0.0198832
0.0200451
0.0202135
0.0203879
0.0205889
0.0187151
0.0187645
0.018822
0.0188877
0.0189617
0.0190437
0.0191338
0.0192319
0.0193378
0.0194515
0.0195732
0.0197025
0.0198392
0.0199835
0.020135
0.0202935
0.0204588
0.0206306
0.0208086
0.0210131
0.0191041
0.0191544
0.0192131
0.0192802
0.0193556
0.0194392
0.019531
0.0196311
0.0197392
0.0198552
0.0199793
0.0201112
0.0202507
0.020398
0.0205527
0.0207145
0.0208832
0.0210586
0.0212403
0.0214483
0.0195031
0.0195544
0.0196142
0.0196827
0.0197597
0.019845
0.0199386
0.0200407
0.0201509
0.0202694
0.0203961
0.0205307
0.0206731
0.0208234
0.0209813
0.0211464
0.0213187
0.0214978
0.0216833
0.021895
0.0199125
0.0199648
0.0200259
0.0200958
0.0201743
0.0202613
0.0203568
0.020461
0.0205735
0.0206945
0.0208238
0.0209611
0.0211065
0.0212601
0.0214212
0.0215899
0.0217659
0.0219487
0.0221383
0.0223536
0.0203328
0.0203861
0.0204485
0.0205197
0.0205999
0.0206887
0.0207862
0.0208925
0.0210074
0.0211309
0.0212629
0.0214031
0.0215516
0.0217084
0.021873
0.0220454
0.022225
0.0224119
0.0226055
0.0228247
0.0207644
0.0208187
0.0208824
0.0209551
0.021037
0.0211276
0.0212271
0.0213356
0.021453
0.0215791
0.0217139
0.021857
0.0220086
0.0221688
0.0223371
0.0225132
0.0226967
0.0228877
0.0230855
0.0233087
0.0212076
0.0212631
0.0213281
0.0214023
0.0214859
0.0215784
0.0216801
0.0217908
0.0219108
0.0220396
0.0221772
0.0223234
0.0224783
0.0226419
0.0228139
0.0229939
0.0231815
0.0233766
0.0235787
0.0238062
0.0216632
0.0217198
0.0217862
0.0218619
0.0219472
0.0220417
0.0221455
0.0222586
0.0223813
0.0225129
0.0226534
0.0228028
0.022961
0.0231283
0.023304
0.023488
0.0236797
0.0238792
0.0240858
0.0243177
0.0224215
0.022518
0.022624
0.0227397
0.0228649
0.0229994
0.0231429
0.0232956
0.0234574
0.0236283
0.023808
0.023996
0.0241921
0.024396
0.0246073
0.0248438
0.0233624
0.0234998
0.0236465
0.0238026
0.0239681
0.0241428
0.0243264
0.0245187
0.0247192
0.0249277
0.0251438
0.025385
0.0096446
0.00950284
0.00983664
0.0096949
0.0100317
0.00988989
0.0102298
0.0100879
0.00999209
0.0104312
0.0102891
0.010192
0.0106358
0.0104934
0.010395
0.0103
0.0108439
0.0107011
0.0106014
0.010505
0.0110554
0.0109122
0.0108111
0.0107134
0.0112706
0.0111269
0.0110244
0.0109253
0.0108298
0.0114895
0.0113452
0.0112412
0.0111407
0.0110438
0.0117123
0.0115673
0.0114618
0.0113599
0.0112616
0.0119391
0.0117933
0.0116863
0.0115828
0.0114831
0.01217
0.0120233
0.0119147
0.0118097
0.0117085
0.0124051
0.0122575
0.0121473
0.0120407
0.011938
0.0126446
0.012496
0.0123841
0.0122759
0.0121716
0.0120714
0.0128886
0.012739
0.0126253
0.0125154
0.0124096
0.0123079
0.0131373
0.0129866
0.0128711
0.0127595
0.012652
0.0125487
0.0124498
0.0133908
0.0132388
0.0131216
0.0130083
0.0128991
0.0127941
0.0126937
0.0125979
0.0136492
0.013496
0.0133769
0.0132618
0.0131509
0.0130443
0.0129423
0.0128449
0.0127525
0.0139129
0.0137582
0.0136372
0.0135203
0.0134075
0.0132993
0.0131956
0.0130967
0.0130028
0.012914
0.0141818
0.0140257
0.0139027
0.0137839
0.0136693
0.0135593
0.0134539
0.0133534
0.013258
0.0131678
0.0144562
0.0142985
0.0141736
0.0140527
0.0139363
0.0138245
0.0137174
0.0136153
0.0135182
0.0134266
0.0147363
0.014577
0.0144499
0.0143271
0.0142087
0.014095
0.0139862
0.0138824
0.0137838
0.0136905
0.0150223
0.0148613
0.014732
0.0146071
0.0144867
0.0143711
0.0142604
0.0141549
0.0140547
0.0139598
0.0153144
0.0151515
0.01502
0.0148929
0.0147705
0.0146529
0.0145404
0.0144331
0.0143311
0.0142347
0.0156127
0.0154479
0.0153141
0.0151848
0.0150603
0.0149407
0.0148262
0.014717
0.0146134
0.0145153
0.0159175
0.0157507
0.0156145
0.0154829
0.0153562
0.0152345
0.0151181
0.015007
0.0149016
0.0148019
0.0162289
0.0160601
0.0159215
0.0157876
0.0156586
0.0155348
0.0154162
0.0153032
0.015196
0.0150946
0.0165473
0.0163764
0.0162352
0.0160989
0.0159676
0.0158415
0.0157209
0.0156059
0.0154968
0.0153937
0.0168729
0.0166997
0.016556
0.0164172
0.0162834
0.0161551
0.0160323
0.0159153
0.0158043
0.0156993
0.017206
0.0170304
0.016884
0.0167427
0.0166065
0.0164758
0.0163508
0.0162317
0.0161186
0.0160118
0.0175468
0.0173688
0.0172197
0.0170757
0.0169369
0.0168038
0.0166765
0.0165552
0.01644
0.0163313
0.00964467
0.00983669
0.0100317
0.0102299
0.0104313
0.0106359
0.010844
0.0110555
0.0112707
0.0114896
0.0117124
0.0119391
0.01217
0.0124051
0.0126446
0.0128886
0.0131373
0.0133908
0.0136493
0.013913
0.0141819
0.0144564
0.0147365
0.0150224
0.0153145
0.0156127
0.0159175
0.0162291
0.0165475
0.0168732
0.0172062
0.017547
0.00950286
0.00969497
0.00989
0.010088
0.0102892
0.0104936
0.0107013
0.0109124
0.011127
0.0113453
0.0115674
0.0117934
0.0120234
0.0122576
0.0124961
0.012739
0.0129865
0.0132388
0.013496
0.0137583
0.0140258
0.0142987
0.0145771
0.0148614
0.0151517
0.0154482
0.015751
0.0160605
0.0163768
0.0167002
0.017031
0.0173693
0.0177155
0.00941071
0.00960165
0.0097955
0.00999234
0.0101922
0.0103953
0.0106017
0.0108114
0.0110246
0.0112415
0.0114621
0.0116865
0.011915
0.0121475
0.0123843
0.0126255
0.0128712
0.0131217
0.0133769
0.0136372
0.0139027
0.0141736
0.01445
0.0147321
0.0150202
0.0153143
0.0156148
0.0159219
0.0162357
0.0165566
0.0168848
0.0172204
0.0175639
0.0179154
0.0182754
0.018644
0.0190216
0.0194087
0.0093216
0.00951144
0.00970415
0.00989979
0.0100985
0.0103003
0.0105054
0.0107138
0.0109257
0.0111411
0.0113603
0.0115832
0.0118102
0.0120412
0.0122764
0.0125159
0.0127599
0.0130085
0.013262
0.0135204
0.0137839
0.0140528
0.0143272
0.0146072
0.0148931
0.0151851
0.0154833
0.015788
0.0160995
0.0164179
0.0167434
0.0170764
0.0174171
0.0177659
0.0181229
0.0184884
0.0188629
0.0192467
0.00923568
0.00942446
0.00961608
0.00981061
0.0100081
0.0102087
0.0104126
0.0106197
0.0108303
0.0110444
0.0112622
0.0114837
0.0117091
0.0119386
0.0121722
0.0124102
0.0126525
0.0128995
0.0131512
0.0134079
0.0136696
0.0139365
0.0142089
0.0144869
0.0147707
0.0150606
0.0153566
0.0156591
0.0159682
0.0162842
0.0166074
0.0169378
0.0172759
0.017622
0.0179762
0.0183388
0.0187103
0.019091
0.00915314
0.00934091
0.00953146
0.00972489
0.00992129
0.0101208
0.0103234
0.0105293
0.0107387
0.0109515
0.0111679
0.0113881
0.0116121
0.0118401
0.0120722
0.0123086
0.0125494
0.0127948
0.0130449
0.0132998
0.0135597
0.0138249
0.0140954
0.0143715
0.0146533
0.0149411
0.015235
0.0155353
0.0158422
0.016156
0.0164767
0.0168047
0.0171403
0.0174838
0.0178353
0.0181953
0.018564
0.0189417
0.0193289
0.00907403
0.00926082
0.00945037
0.00964276
0.00983811
0.0100365
0.010238
0.0104427
0.0106508
0.0108624
0.0110776
0.0112964
0.0115191
0.0117458
0.0119765
0.0122114
0.0124507
0.0126945
0.012943
0.0131963
0.0134546
0.013718
0.0139867
0.014261
0.0145409
0.0148267
0.0151187
0.0154169
0.0157217
0.0160332
0.0163517
0.0166774
0.0170106
0.0173516
0.0177007
0.018058
0.018424
0.018799
0.0191833
0.00899843
0.0091843
0.00937291
0.00956434
0.00975866
0.00995598
0.0101564
0.01036
0.010567
0.0107774
0.0109914
0.011209
0.0114304
0.0116557
0.0118851
0.0121187
0.0123566
0.0125989
0.0128459
0.0130976
0.0133543
0.0136161
0.0138831
0.0141556
0.0144337
0.0147177
0.0150078
0.0153041
0.0156068
0.0159163
0.0162326
0.0165561
0.0168871
0.0172257
0.0175723
0.0179272
0.0182906
0.018663
0.0190446
0.00892648
0.00911148
0.0092992
0.0094897
0.00968307
0.00987939
0.0100788
0.0102814
0.0104873
0.0106966
0.0109094
0.0111259
0.0113461
0.0115702
0.0117983
0.0120305
0.012267
0.012508
0.0127536
0.0130039
0.0132591
0.0135193
0.0137847
0.0140555
0.014332
0.0146142
0.0149024
0.0151968
0.0154977
0.0158052
0.0161195
0.0164409
0.0167698
0.0171062
0.0174505
0.017803
0.018164
0.0185338
0.0189129
0.00885828
0.00904243
0.00922928
0.00941891
0.0096114
0.00980682
0.0100053
0.0102069
0.0104118
0.01062
0.0108318
0.0110472
0.0112663
0.0114892
0.0117161
0.0119471
0.0121823
0.012422
0.0126662
0.0129151
0.0131689
0.0134276
0.0136915
0.0139608
0.0142357
0.0145163
0.0148028
0.0150954
0.0153944
0.0157
0.0160124
0.0163319
0.0166588
0.0169931
0.0173354
0.0176857
0.0180445
0.018412
0.0187887
0.00879391
0.0089773
0.00916337
0.00935217
0.0095438
0.00973835
0.00993593
0.0101366
0.0103406
0.0105479
0.0107587
0.010973
0.011191
0.0114128
0.0116386
0.0118684
0.0121025
0.0123409
0.0125839
0.0128315
0.0130839
0.0133413
0.0136037
0.0138716
0.0141449
0.0144239
0.0147089
0.0149999
0.0152972
0.0156011
0.0159117
0.0162294
0.0165542
0.0168867
0.0172269
0.0175752
0.0179319
0.0182973
0.0186718
0.00891612
0.00910144
0.00928947
0.00948032
0.00967408
0.00987084
0.0100707
0.0102738
0.0104802
0.01069
0.0109034
0.0111204
0.0113412
0.0115659
0.0117947
0.0120277
0.012265
0.0125067
0.0127531
0.0130043
0.0132603
0.0135215
0.0137879
0.0140598
0.0143374
0.0146208
0.0149103
0.0152061
0.0155084
0.0158174
0.0161333
0.0164564
0.016787
0.0171254
0.0174718
0.0178266
0.0181899
0.0185622
0.00904358
0.0092309
0.00942103
0.00961405
0.00981004
0.0100091
0.0102114
0.0104169
0.0106259
0.0108384
0.0110545
0.0112744
0.0114982
0.0117259
0.0119579
0.0121941
0.0124347
0.01268
0.0129299
0.0131848
0.0134447
0.0137099
0.0139805
0.0142568
0.0145389
0.014827
0.0151214
0.0154221
0.0157296
0.0160439
0.0163654
0.0166944
0.017031
0.0173756
0.0177284
0.0180899
0.0184603
0.00898998
0.00917661
0.00936605
0.00955837
0.00975365
0.00995199
0.0101535
0.0103583
0.0105665
0.0107781
0.0109934
0.0112125
0.0114353
0.0116622
0.0118932
0.0121284
0.012368
0.0126122
0.0128611
0.0131149
0.0133737
0.0136377
0.0139071
0.0141821
0.014463
0.0147498
0.0150428
0.0153422
0.0156483
0.0159612
0.0162812
0.0166086
0.0169437
0.0172866
0.0176377
0.0179974
0.018366
0.00912663
0.00931544
0.00950712
0.00970173
0.0098994
0.0101002
0.0103043
0.0105118
0.0107227
0.0109372
0.0111554
0.0113774
0.0116035
0.0118336
0.0120679
0.0123067
0.0125499
0.0127978
0.0130506
0.0133084
0.0135713
0.0138397
0.0141136
0.0143933
0.0146789
0.0149707
0.0152689
0.0155736
0.0158851
0.0162037
0.0165297
0.0168632
0.0172047
0.0175543
0.0179125
0.0182794
0.00908107
0.0092693
0.00946037
0.00965438
0.00985143
0.0100516
0.0102551
0.0104618
0.0106721
0.0108859
0.0111034
0.0113247
0.0115499
0.0117793
0.0120128
0.0122507
0.0124931
0.0127401
0.012992
0.0132488
0.0135108
0.0137782
0.0140511
0.0143298
0.0146143
0.014905
0.015202
0.0155055
0.0158159
0.0161332
0.0164578
0.01679
0.0171301
0.0174783
0.017835
0.0182004
0.00922755
0.00941813
0.00961162
0.00980812
0.0100077
0.0102106
0.0104168
0.0106264
0.0108396
0.0110564
0.0112771
0.0115016
0.0117302
0.011963
0.0122001
0.0124417
0.012688
0.0129391
0.0131951
0.0134563
0.0137227
0.0139947
0.0142724
0.0145559
0.0148456
0.0151415
0.015444
0.0157533
0.0160695
0.0163931
0.0167241
0.017063
0.0174099
0.0177653
0.0181294
0.0093804
0.00957345
0.00976949
0.00996864
0.010171
0.0103766
0.0105856
0.0107982
0.0110145
0.0112346
0.0114586
0.0116865
0.0119187
0.0121551
0.0123961
0.0126416
0.012892
0.0131473
0.0134077
0.0136733
0.0139445
0.0142214
0.014504
0.0147928
0.0150878
0.0153893
0.0156976
0.0160129
0.0163354
0.0166654
0.0170032
0.0173491
0.0177033
0.0180663
0.00934737
0.00953999
0.00973559
0.00993427
0.0101361
0.0103413
0.0105499
0.010762
0.0109778
0.0111973
0.0114208
0.0116482
0.0118798
0.0121157
0.0123561
0.012601
0.0128507
0.0131053
0.0133651
0.0136301
0.0139006
0.0141767
0.0144586
0.0147465
0.0150408
0.0153415
0.0156489
0.0159633
0.0162849
0.016614
0.0169508
0.0172958
0.017649
0.0180109
0.00931902
0.00951125
0.00970645
0.00990473
0.0101062
0.010311
0.0105192
0.0107309
0.0109462
0.0111653
0.0113883
0.0116153
0.0118464
0.0120818
0.0123217
0.0125661
0.0128153
0.0130694
0.0133285
0.0135929
0.0138627
0.0141382
0.0144196
0.0147069
0.0150004
0.0153004
0.0156072
0.0159208
0.0162417
0.01657
0.016906
0.0172501
0.0176025
0.0179636
0.00929528
0.00948721
0.00968213
0.00988011
0.0100813
0.0102857
0.0104936
0.0107049
0.0109199
0.0111386
0.0113612
0.0115878
0.0118185
0.0120535
0.0122929
0.0125369
0.0127857
0.0130393
0.013298
0.0135619
0.0138312
0.0141062
0.014387
0.0146738
0.0149668
0.0152662
0.0155723
0.0158854
0.0162056
0.0165333
0.0168687
0.0172121
0.0175637
0.017924
0.00946796
0.00966262
0.00986035
0.0100613
0.0102655
0.010473
0.0106841
0.0108988
0.0111172
0.0113395
0.0115658
0.0117962
0.0120308
0.0122699
0.0125135
0.0127619
0.0130152
0.0132735
0.0135371
0.0138061
0.0140806
0.0143609
0.0146473
0.0149398
0.0152388
0.0155445
0.015857
0.0161768
0.0165039
0.0168387
0.0171816
0.0175327
0.0178925
0.00945351
0.00964798
0.00984553
0.0100462
0.0102502
0.0104576
0.0106684
0.0108829
0.0111011
0.0113232
0.0115493
0.0117794
0.0120138
0.0122526
0.012496
0.0127441
0.0129971
0.0132551
0.0135184
0.0137871
0.0140613
0.0143414
0.0146274
0.0149196
0.0152183
0.0155236
0.0158358
0.0161552
0.0164819
0.0168163
0.0171587
0.0175094
0.0178687
0.0096382
0.00983562
0.0100362
0.0102401
0.0104473
0.010658
0.0108723
0.0110904
0.0113123
0.0115382
0.0117682
0.0120025
0.0122412
0.0124844
0.0127323
0.0129851
0.0132429
0.013506
0.0137745
0.0140485
0.0143284
0.0146142
0.0149061
0.0152046
0.0155097
0.0158216
0.0161407
0.0164672
0.0168014
0.0171435
0.0174939
0.0178529
0.00963328
0.00983064
0.0100312
0.0102349
0.0104421
0.0106528
0.010867
0.011085
0.0113068
0.0115327
0.0117626
0.0119968
0.0122354
0.0124785
0.0127264
0.0129791
0.0132368
0.0134998
0.0137682
0.0140421
0.0143218
0.0146075
0.0148994
0.0151978
0.0155027
0.0158146
0.0161336
0.0164599
0.0167939
0.0171359
0.0174861
0.017845
0.00983058
0.0100311
0.0102349
0.0104421
0.0106527
0.010867
0.011085
0.0113068
0.0115326
0.0117626
0.0119967
0.0122353
0.0124785
0.0127263
0.0129791
0.0132368
0.0134998
0.0137681
0.0140421
0.0143218
0.0146075
0.0148994
0.0151978
0.0155028
0.0158146
0.0161336
0.01646
0.016794
0.017136
0.0174863
0.0178451
0.00983551
0.0100361
0.01024
0.0104472
0.010658
0.0108723
0.0110903
0.0113122
0.0115381
0.0117681
0.0120024
0.012241
0.0124843
0.0127322
0.012985
0.0132429
0.0135059
0.0137744
0.0140484
0.0143283
0.0146141
0.0149062
0.0152047
0.0155098
0.0158217
0.0161409
0.0164674
0.0168016
0.0171437
0.0174941
0.0178531
0.00984538
0.0100461
0.0102501
0.0104575
0.0106684
0.0108828
0.011101
0.0113231
0.0115491
0.0117792
0.0120137
0.0122525
0.0124959
0.012744
0.012997
0.013255
0.0135183
0.013787
0.0140613
0.0143414
0.0146275
0.0149197
0.0152184
0.0155237
0.0158359
0.0161553
0.016482
0.0168165
0.017159
0.0175097
0.017869
0.00986012
0.0100611
0.0102653
0.0104729
0.010684
0.0108987
0.0111171
0.0113393
0.0115656
0.0117959
0.0120306
0.0122696
0.0125133
0.0127617
0.013015
0.0132734
0.0135369
0.0138059
0.0140805
0.0143609
0.0146473
0.0149399
0.0152389
0.0155446
0.0158573
0.016177
0.0165042
0.016839
0.0171818
0.0175329
0.0178927
0.0098798
0.010081
0.0102855
0.0104933
0.0107047
0.0109196
0.0111384
0.0113609
0.0115875
0.0118182
0.0120532
0.0122926
0.0125366
0.0127854
0.013039
0.0132977
0.0135616
0.0138311
0.0141061
0.0143869
0.0146738
0.0149668
0.0152663
0.0155724
0.0158855
0.0162058
0.0165335
0.0168689
0.0172123
0.017564
0.0179244
0.00990436
0.0101059
0.0103107
0.0105188
0.0107305
0.0109458
0.0111649
0.0113879
0.0116148
0.011846
0.0120814
0.0123213
0.0125657
0.0128149
0.013069
0.0133282
0.0135926
0.0138625
0.014138
0.0144194
0.0147068
0.0150004
0.0153004
0.0156072
0.0159209
0.0162418
0.0165702
0.0169063
0.0172504
0.0176029
0.017964
0.00993378
0.0101356
0.0103408
0.0105494
0.0107615
0.0109772
0.0111967
0.0114202
0.0116476
0.0118793
0.0121152
0.0123556
0.0126006
0.0128503
0.0131049
0.0133647
0.0136298
0.0139003
0.0141764
0.0144584
0.0147464
0.0150407
0.0153415
0.015649
0.0159635
0.0162851
0.0166142
0.0169511
0.017296
0.0176493
0.0180113
0.00996799
0.0101703
0.0103759
0.010585
0.0107976
0.0110138
0.0112339
0.0114578
0.0116858
0.011918
0.0121546
0.0123955
0.0126411
0.0128915
0.0131468
0.0134073
0.013673
0.0139442
0.0142211
0.0145038
0.0147926
0.0150878
0.0153894
0.0156978
0.0160131
0.0163356
0.0166657
0.0170035
0.0173494
0.0177037
0.0180667
0.010007
0.0102098
0.010416
0.0106256
0.0108387
0.0110556
0.0112762
0.0115008
0.0117295
0.0119623
0.0121995
0.0124412
0.0126875
0.0129386
0.0131946
0.0134558
0.0137223
0.0139944
0.0142721
0.0145557
0.0148455
0.0151415
0.015444
0.0157533
0.0160697
0.0163933
0.0167244
0.0170633
0.0174103
0.0177658
0.01813
0.0100508
0.0102542
0.010461
0.0106712
0.0108849
0.0111024
0.0113238
0.0115491
0.0117785
0.012012
0.01225
0.0124924
0.0127395
0.0129914
0.0132483
0.0135104
0.0137778
0.0140508
0.0143294
0.014614
0.0149047
0.0152018
0.0155054
0.0158158
0.0161333
0.016458
0.0167903
0.0171305
0.0174788
0.0178355
0.018201
0.0100993
0.0103034
0.0105108
0.0107217
0.0109362
0.0111545
0.0113766
0.0116026
0.0118328
0.0120672
0.012306
0.0125492
0.0127972
0.01305
0.0133079
0.0135709
0.0138393
0.0141132
0.0143929
0.0146786
0.0149704
0.0152687
0.0155735
0.0158851
0.0162038
0.0165298
0.0168634
0.0172049
0.0175546
0.0179127
0.0182797
0.0101526
0.0103573
0.0105655
0.0107772
0.0109925
0.0112115
0.0114344
0.0116613
0.0118924
0.0121277
0.0123673
0.0126115
0.0128605
0.0131143
0.0133731
0.0136372
0.0139067
0.0141818
0.0144627
0.0147495
0.0150425
0.015342
0.0156481
0.015961
0.0162811
0.0166085
0.0169437
0.0172867
0.0176379
0.0179977
0.0183663
0.0102104
0.010416
0.010625
0.0108375
0.0110536
0.0112735
0.0114973
0.0117251
0.0119571
0.0121934
0.0124341
0.0126793
0.0129293
0.0131843
0.0134443
0.0137095
0.0139802
0.0142565
0.0145386
0.0148268
0.0151211
0.0154219
0.0157294
0.0160438
0.0163653
0.0166943
0.017031
0.0173756
0.0177286
0.0180901
0.0184605
0.0102728
0.0104792
0.0106891
0.0109025
0.0111195
0.0113403
0.0115651
0.0117939
0.012027
0.0122643
0.0125061
0.0127525
0.0130037
0.0132598
0.0135211
0.0137876
0.0140596
0.0143372
0.0146207
0.0149102
0.015206
0.0155083
0.0158173
0.0161332
0.0164564
0.0167871
0.0171256
0.017472
0.0178267
0.01819
0.0185624
0.0103397
0.010547
0.0107578
0.0109721
0.0111902
0.0114121
0.0116379
0.0118678
0.0121019
0.0123404
0.0125834
0.012831
0.0130835
0.0133409
0.0136034
0.0138713
0.0141447
0.0144237
0.0147087
0.0149997
0.0152971
0.015601
0.0159116
0.0162293
0.0165543
0.0168867
0.017227
0.0175753
0.0179321
0.0182975
0.018672
0.0104109
0.0106192
0.0108311
0.0110465
0.0112656
0.0114885
0.0117155
0.0119465
0.0121819
0.0124216
0.0126658
0.0129148
0.0131685
0.0134273
0.0136913
0.0139606
0.0142355
0.0145161
0.0148027
0.0150954
0.0153944
0.0157
0.0160124
0.0163319
0.0166587
0.0169931
0.0173354
0.0176858
0.0180446
0.0184122
0.018789
0.0104865
0.0106958
0.0109087
0.0111252
0.0113455
0.0115696
0.0117978
0.0120302
0.0122668
0.0125078
0.0127534
0.0130037
0.0132589
0.0135191
0.0137846
0.0140555
0.014332
0.0146142
0.0149025
0.0151969
0.0154977
0.0158051
0.0161194
0.0164409
0.0167697
0.0171061
0.0174505
0.0178031
0.0181642
0.0185341
0.0189133
0.0105663
0.0107767
0.0109907
0.0112084
0.0114299
0.0116553
0.0118848
0.0121185
0.0123564
0.0125988
0.0128458
0.0130976
0.0133543
0.0136162
0.0138833
0.0141558
0.014434
0.0147179
0.0150079
0.0153042
0.0156069
0.0159163
0.0162327
0.0165562
0.0168871
0.0172258
0.0175723
0.0179272
0.0182907
0.0186632
0.0190449
0.0106501
0.0108618
0.011077
0.011296
0.0115187
0.0117454
0.0119762
0.0122113
0.0124507
0.0126946
0.0129431
0.0131964
0.0134548
0.0137182
0.013987
0.0142613
0.0145412
0.0148271
0.015119
0.0154172
0.015722
0.0160335
0.0163519
0.0166776
0.0170108
0.0173518
0.0177008
0.0180582
0.0184242
0.0187992
0.0191836
0.010738
0.0109509
0.0111674
0.0113876
0.0116117
0.0118398
0.012072
0.0123085
0.0125494
0.0127948
0.013045
0.0133
0.01356
0.0138252
0.0140958
0.0143719
0.0146537
0.0149415
0.0152355
0.0155358
0.0158427
0.0161563
0.016477
0.016805
0.0171406
0.0174841
0.0178356
0.0181956
0.0185643
0.0189421
0.0193294
0.0108297
0.0110438
0.0112617
0.0114833
0.0117088
0.0119383
0.012172
0.01241
0.0126525
0.0128995
0.0131514
0.0134081
0.0136699
0.013937
0.0142094
0.0144874
0.0147713
0.0150611
0.0153571
0.0156596
0.0159687
0.0162847
0.0166078
0.0169383
0.0172765
0.0176225
0.0179767
0.0183395
0.0187111
0.0190918
0.019482
0.010925
0.0111406
0.0113598
0.0115828
0.0118098
0.0120408
0.0122761
0.0125157
0.0127598
0.0130086
0.0132622
0.0135207
0.0137844
0.0140533
0.0143278
0.0146078
0.0148937
0.0151857
0.0154839
0.0157887
0.0161001
0.0164185
0.0167441
0.0170771
0.0174179
0.0177666
0.0181237
0.0184894
0.0188639
0.0192478
0.0196412
0.0200446
0.0204582
0.0208826
0.0213182
0.011024
0.0112409
0.0114616
0.0116861
0.0119146
0.0121473
0.0123841
0.0126254
0.0128712
0.0131218
0.0133772
0.0136376
0.0139032
0.0141741
0.0144506
0.0147328
0.0150209
0.0153151
0.0156156
0.0159227
0.0162366
0.0165574
0.0168856
0.0172213
0.0175648
0.0179163
0.0182763
0.018645
0.0190226
0.0194096
0.0198062
0.0202129
0.02063
0.021058
0.0214972
0.0111265
0.0113448
0.011567
0.011793
0.0120231
0.0122573
0.0124959
0.0127389
0.0129866
0.0132389
0.0134962
0.0137586
0.0140262
0.0142991
0.0145777
0.0148621
0.0151524
0.0154489
0.0157518
0.0160614
0.0163778
0.0167013
0.0170321
0.0173706
0.0177169
0.0180714
0.0184343
0.018806
0.0191868
0.019577
0.019977
0.0203872
0.0208078
0.0212395
0.0216825
0.0112701
0.0114891
0.011712
0.0119388
0.0121697
0.0124049
0.0126445
0.0128886
0.0131374
0.013391
0.0136496
0.0139133
0.0141823
0.0144569
0.0147371
0.0150231
0.0153153
0.0156137
0.0159185
0.0162302
0.0165487
0.0168744
0.0172076
0.0175485
0.0178973
0.0182544
0.01862
0.0189945
0.0193783
0.0197716
0.0201748
0.0205882
0.0210123
0.0214474
0.0218942
0.01127
0.011489
0.0117119
0.0119387
0.0121697
0.0124049
0.0126444
0.0128885
0.0131373
0.0133909
0.0136495
0.0139133
0.0141823
0.0144568
0.014737
0.0150231
0.0153152
0.0156136