/*--------------------------------*- C++ -*----------------------------------*\
  =========                 |
  \\      /  F ield         | OpenFOAM: The Open Source CFD Toolbox
   \\    /   O peration     | Website:  https://openfoam.org
    \\  /    A nd           | Version:  7
     \\/     M anipulation  |
\*---------------------------------------------------------------------------*/
FoamFile
{
    version     2.0;
    format      ascii;
    class       volVectorField;
    location    "196000";
    object      U;
}
// * * * * * * * * * * * * * * * * * * * * * * * * * * * * * * * * * * * * * //

dimensions      [0 1 -1 0 0 0 0];

internalField   nonuniform List<vector> 
4850
(
(-2.98507e-19 -1.04702e-19 -0.0154299)
(-2.45118e-19 -1.44864e-19 -0.0154446)
(-4.41353e-19 -4.77918e-20 -0.0154012)
(-3.57564e-19 6.05469e-20 -0.0154161)
(-9.52972e-20 2.32406e-19 -0.0154305)
(-2.85479e-19 -2.27128e-20 -0.0153719)
(-4.84098e-19 1.05194e-19 -0.0153871)
(-1.50923e-19 1.53562e-19 -0.0154018)
(-1.48807e-19 3.98701e-19 -0.0154159)
(-5.85592e-20 3.41111e-19 -0.0154294)
(-1.95883e-19 -4.34977e-20 -0.0153421)
(-4.59926e-19 8.37126e-20 -0.0153576)
(-1.51974e-19 1.6521e-19 -0.0153725)
(-2.22516e-19 4.18066e-19 -0.0153868)
(-2.36398e-20 2.99042e-19 -0.0154006)
(9.32902e-20 6.845e-19 -0.0154138)
(-1.79692e-19 -3.80902e-20 -0.0153117)
(-5.37024e-19 1.13304e-19 -0.0153274)
(-2.3138e-19 2.56151e-19 -0.0153426)
(-2.73938e-19 5.1044e-19 -0.0153572)
(-1.48026e-19 4.19297e-19 -0.0153712)
(1.84097e-19 6.71806e-19 -0.0153847)
(8.9779e-20 8.08632e-19 -0.0153975)
(-1.66626e-19 -1.01124e-19 -0.0152808)
(-4.36433e-19 6.7837e-20 -0.0152968)
(-3.39474e-19 5.02769e-19 -0.0153122)
(-2.18135e-19 3.09955e-19 -0.015327)
(-2.30781e-19 4.24318e-19 -0.0153413)
(1.61548e-19 6.70981e-19 -0.0153549)
(1.58147e-19 8.22786e-19 -0.015368)
(4.51332e-20 9.03829e-19 -0.0153804)
(-3.41034e-19 6.62012e-19 -0.0153922)
(-1.97221e-19 -1.65774e-19 -0.0152494)
(-3.65193e-19 1.68899e-19 -0.0152656)
(-4.69674e-19 5.75931e-19 -0.0152812)
(-2.95347e-19 1.89267e-19 -0.0152963)
(-1.99021e-19 4.62307e-19 -0.0153108)
(1.80566e-19 7.40815e-19 -0.0153247)
(1.72785e-19 9.23418e-19 -0.0153379)
(8.41872e-21 5.92107e-19 -0.0153506)
(-2.70589e-19 4.29736e-20 -0.0153626)
(-3.48579e-19 1.0057e-19 -0.0153739)
(-2.43632e-19 2.99035e-20 -0.0152175)
(-2.90826e-19 3.75266e-19 -0.0152339)
(-4.55262e-19 4.7565e-19 -0.0152497)
(-5.30147e-19 4.64705e-19 -0.015265)
(-2.46097e-19 5.2577e-19 -0.0152797)
(1.28136e-19 9.18631e-19 -0.0152938)
(9.24261e-20 8.86477e-19 -0.0153073)
(-9.19643e-20 3.07957e-19 -0.0153202)
(-3.38401e-19 -6.99951e-21 -0.0153324)
(-2.99532e-19 1.21948e-19 -0.0153439)
(-1.06867e-19 4.53526e-19 -0.0153548)
(-1.41267e-21 6.7938e-19 -0.0153649)
(3.11416e-19 6.65741e-19 -0.0153744)
(4.45584e-20 3.84639e-19 -0.0153832)
(-4.01693e-19 3.2166e-19 -0.0151851)
(-3.03136e-19 3.84978e-19 -0.0152017)
(-2.89025e-19 2.61766e-19 -0.0152178)
(-4.70351e-19 2.71344e-19 -0.0152333)
(-2.69205e-19 4.7047e-19 -0.0152482)
(1.71589e-19 8.46677e-19 -0.0152625)
(8.07207e-21 7.00204e-19 -0.0152762)
(-2.06247e-19 1.78298e-19 -0.0152892)
(-3.93023e-19 5.97798e-20 -0.0153016)
(-2.62367e-19 1.63804e-19 -0.0153133)
(-3.30145e-20 3.91265e-19 -0.0153244)
(1.06999e-20 4.72489e-19 -0.0153347)
(1.74974e-19 6.26299e-19 -0.0153444)
(3.71956e-20 3.01764e-19 -0.0153533)
(-4.6932e-19 4.46323e-19 -0.0153615)
(-6.42525e-19 3.93673e-19 -0.015369)
(-9.44431e-19 5.75605e-19 -0.0153758)
(-6.59645e-19 1.01731e-18 -0.0153818)
(-4.74088e-19 4.04971e-19 -0.0151522)
(-4.51019e-19 4.03048e-19 -0.0151691)
(-3.61255e-19 1.27463e-19 -0.0151853)
(-3.20944e-19 3.06681e-20 -0.015201)
(-2.14634e-19 4.50144e-19 -0.0152161)
(2.69798e-19 5.65001e-19 -0.0152306)
(6.34097e-20 3.64929e-19 -0.0152445)
(-2.81377e-19 1.16966e-19 -0.0152577)
(-4.18947e-19 1.21535e-20 -0.0152703)
(-2.88376e-19 1.21441e-19 -0.0152822)
(-1.74255e-20 2.62574e-19 -0.0152934)
(1.41983e-19 2.32845e-19 -0.0153039)
(1.56662e-19 7.28731e-19 -0.0153137)
(3.86849e-21 4.39259e-19 -0.0153228)
(-5.07894e-19 7.17139e-19 -0.0153312)
(-6.25885e-19 4.35937e-19 -0.0153388)
(-8.77498e-19 6.91685e-19 -0.0153457)
(-7.11272e-19 7.83599e-19 -0.0153518)
(1.28404e-19 5.41661e-19 -0.0153572)
(-3.63569e-20 8.39144e-19 -0.0153618)
(-4.49705e-19 3.50488e-19 -0.0151189)
(-5.29882e-19 3.77715e-19 -0.015136)
(-4.91675e-19 9.26755e-20 -0.0151524)
(-3.76009e-19 9.53092e-20 -0.0151683)
(-2.13895e-19 3.54626e-19 -0.0151836)
(1.7173e-19 4.93668e-19 -0.0151983)
(2.61205e-19 -1.53213e-19 -0.0152123)
(-2.511e-19 1.16095e-20 -0.0152258)
(-4.40203e-19 -2.56153e-20 -0.0152385)
(-3.08757e-19 1.54832e-19 -0.0152506)
(-8.23205e-20 2.17829e-19 -0.015262)
(2.24752e-19 1.80306e-19 -0.0152726)
(2.55248e-19 6.13262e-19 -0.0152826)
(1.02501e-19 2.78744e-19 -0.0152918)
(-5.24545e-19 8.1836e-19 -0.0153003)
(-6.8723e-19 4.44539e-19 -0.015308)
(-8.27203e-19 5.00357e-19 -0.015315)
(-8.19844e-19 5.31372e-19 -0.0153212)
(9.97508e-20 2.4456e-19 -0.0153267)
(1.26027e-19 6.4689e-19 -0.0153314)
(-2.99445e-21 9.15111e-19 -0.0153353)
(5.33775e-19 1.03796e-18 -0.0153384)
(5.284e-20 6.50093e-19 -0.0153408)
(1.61374e-21 1.36951e-20 -0.0153423)
(-3.4723e-19 2.38718e-19 -0.0150852)
(-6.04145e-19 3.89138e-19 -0.0151024)
(-5.72362e-19 5.34304e-20 -0.015119)
(-4.89613e-19 2.50401e-19 -0.0151351)
(-2.34424e-19 3.95911e-19 -0.0151506)
(-9.49139e-20 4.95108e-19 -0.0151655)
(1.89234e-19 -3.04792e-19 -0.0151797)
(-7.79262e-20 1.2098e-21 -0.0151933)
(-4.27677e-19 2.06322e-20 -0.0152062)
(-3.28132e-19 9.44555e-20 -0.0152184)
(-1.22875e-19 6.81259e-20 -0.01523)
(2.03457e-19 2.34152e-19 -0.0152408)
(2.62833e-19 4.32068e-19 -0.0152509)
(2.62233e-19 1.13618e-19 -0.0152602)
(-3.77772e-19 7.04726e-19 -0.0152688)
(-8.32779e-19 5.50132e-19 -0.0152767)
(-8.53038e-19 4.34851e-19 -0.0152838)
(-9.52151e-19 4.91855e-19 -0.0152901)
(7.76122e-20 5.01232e-19 -0.0152957)
(2.47948e-19 1.20721e-18 -0.0153004)
(-1.11161e-21 8.88813e-19 -0.0153044)
(4.50411e-19 7.36289e-19 -0.0153076)
(-1.01381e-19 3.52049e-19 -0.01531)
(-5.36808e-20 2.74553e-19 -0.0153116)
(3.79291e-19 5.5545e-19 -0.0153124)
(-1.59622e-18 9.63897e-19 -0.0153124)
(-2.85497e-18 9.71729e-19 -0.0153116)
(-1.21305e-18 7.51866e-19 -0.01531)
(-3.88347e-19 8.28516e-19 -0.0153076)
(-4.17116e-19 2.48753e-19 -0.015051)
(-6.16172e-19 4.26893e-19 -0.0150684)
(-7.01836e-19 1.61631e-19 -0.0150852)
(-6.26948e-19 5.06669e-19 -0.0151015)
(-3.89567e-19 5.87421e-19 -0.0151171)
(-3.23515e-19 5.60674e-19 -0.0151322)
(-9.96994e-20 4.2644e-20 -0.0151466)
(-9.98966e-20 1.89998e-19 -0.0151603)
(-4.37641e-19 2.24049e-20 -0.0151734)
(-3.66951e-19 -4.21102e-20 -0.0151858)
(-1.45532e-19 4.06918e-20 -0.0151975)
(2.15277e-19 3.22022e-19 -0.0152085)
(1.96203e-19 4.35028e-19 -0.0152187)
(2.95983e-19 2.36571e-19 -0.0152282)
(-1.45187e-19 4.47071e-19 -0.0152369)
(-9.05404e-19 8.12252e-19 -0.0152449)
(-9.37279e-19 5.53085e-19 -0.0152521)
(-1.00687e-18 7.94341e-19 -0.0152585)
(1.69897e-19 1.12142e-18 -0.0152641)
(2.65395e-19 1.12066e-18 -0.0152689)
(-2.1287e-19 8.79959e-19 -0.0152729)
(2.94684e-19 9.78734e-19 -0.0152762)
(-1.51504e-19 4.16741e-19 -0.0152786)
(5.52368e-20 7.57231e-19 -0.0152802)
(5.44795e-19 8.50335e-19 -0.015281)
(-1.61332e-18 7.61681e-19 -0.015281)
(-2.95994e-18 9.83245e-19 -0.0152802)
(-1.17947e-18 1.39729e-18 -0.0152786)
(-3.69238e-19 1.28715e-18 -0.0152762)
(-1.12143e-18 1.40017e-18 -0.0152729)
(-1.31491e-18 9.32324e-19 -0.0152689)
(-1.62036e-18 4.09962e-19 -0.0152641)
(-5.71957e-19 4.57465e-19 -0.0150164)
(-5.06212e-19 2.34025e-19 -0.015034)
(-7.10503e-19 2.31847e-19 -0.015051)
(-6.76761e-19 6.20215e-19 -0.0150674)
(-5.07665e-19 7.24885e-19 -0.0150832)
(-4.74848e-19 5.37079e-19 -0.0150984)
(-3.12722e-19 2.2991e-19 -0.015113)
(-1.75576e-19 2.64965e-19 -0.0151269)
(-4.8661e-19 -1.23867e-19 -0.0151402)
(-4.03999e-19 -8.41008e-20 -0.0151527)
(-2.03753e-19 2.07827e-19 -0.0151645)
(2.02295e-19 4.16559e-19 -0.0151756)
(1.55051e-19 4.74789e-19 -0.015186)
(1.92689e-19 4.63027e-19 -0.0151956)
(9.47485e-20 2.57853e-19 -0.0152044)
(-8.3598e-19 8.71961e-19 -0.0152125)
(-9.56778e-19 5.32099e-19 -0.0152198)
(-1.00225e-18 1.21893e-18 -0.0152263)
(-4.84425e-20 1.46205e-18 -0.015232)
(2.30237e-19 7.37395e-19 -0.0152369)
(-6.64396e-20 9.50878e-19 -0.015241)
(1.84762e-19 1.32188e-18 -0.0152443)
(-2.31209e-19 6.70231e-19 -0.0152467)
(1.04289e-19 1.03118e-18 -0.0152484)
(3.77146e-19 7.69084e-19 -0.0152492)
(-1.68035e-18 4.46733e-19 -0.0152492)
(-2.73887e-18 8.74361e-19 -0.0152484)
(-1.05627e-18 1.87209e-18 -0.0152467)
(-4.30212e-19 1.49761e-18 -0.0152443)
(-1.24229e-18 1.60131e-18 -0.015241)
(-1.50896e-18 1.30344e-18 -0.0152369)
(-1.97764e-18 1.52616e-18 -0.015232)
(-1.56848e-18 -5.23157e-19 -0.0152263)
(-4.87169e-18 1.87211e-18 -0.0152198)
(-8.0095e-19 5.21126e-19 -0.0149814)
(-4.37044e-19 -3.08357e-20 -0.0149992)
(-5.7581e-19 1.64102e-19 -0.0150163)
(-6.28447e-19 6.3211e-19 -0.0150329)
(-5.04117e-19 5.44924e-19 -0.0150489)
(-5.12711e-19 2.99149e-19 -0.0150643)
(-4.11164e-19 1.93986e-19 -0.015079)
(-2.25257e-19 8.87934e-20 -0.0150931)
(-4.91668e-19 -2.89627e-19 -0.0151065)
(-3.76347e-19 -3.82719e-20 -0.0151191)
(-2.37966e-19 3.71617e-19 -0.0151311)
(1.11445e-19 6.45143e-19 -0.0151423)
(1.31577e-19 5.79838e-19 -0.0151528)
(6.62833e-20 6.55702e-19 -0.0151625)
(2.05092e-19 1.02773e-19 -0.0151715)
(-6.85866e-19 5.68908e-19 -0.0151797)
(-8.37199e-19 4.5549e-19 -0.0151871)
(-8.14633e-19 1.12566e-18 -0.0151936)
(-2.0709e-19 1.31751e-18 -0.0151994)
(7.03284e-20 8.92999e-19 -0.0152044)
(5.29242e-20 9.1632e-19 -0.0152085)
(1.5275e-19 1.16968e-18 -0.0152118)
(-3.2199e-19 7.80805e-19 -0.0152143)
(7.45472e-20 9.54242e-19 -0.015216)
(2.75808e-19 7.55506e-19 -0.0152168)
(-1.70378e-18 5.88873e-19 -0.0152168)
(-2.48215e-18 9.44774e-19 -0.015216)
(-9.12118e-19 2.12517e-18 -0.0152143)
(-5.65228e-19 1.76174e-18 -0.0152118)
(-1.37046e-18 1.78417e-18 -0.0152085)
(-1.51097e-18 1.44173e-18 -0.0152044)
(-2.32168e-18 2.34058e-18 -0.0151994)
(-1.7683e-18 2.85153e-19 -0.0151936)
(-6.82895e-18 1.90691e-18 -0.0151871)
(-9.76676e-19 4.38137e-19 -0.0149461)
(-5.76973e-19 -8.74075e-20 -0.014964)
(-4.32133e-19 1.54597e-19 -0.0149813)
(-6.28647e-19 6.48883e-19 -0.014998)
(-4.54793e-19 1.98668e-19 -0.0150142)
(-4.91662e-19 8.59002e-20 -0.0150297)
(-4.76054e-19 1.06792e-19 -0.0150446)
(-2.79027e-19 -6.61556e-20 -0.0150588)
(-5.2272e-19 -2.92978e-19 -0.0150723)
(-2.90732e-19 -3.06393e-20 -0.0150851)
(-1.86028e-19 4.95059e-19 -0.0150972)
(1.73448e-20 9.119e-19 -0.0151086)
(8.58355e-20 6.10801e-19 -0.0151192)
(-9.06747e-20 5.95802e-19 -0.015129)
(1.85807e-19 -5.49188e-20 -0.0151381)
(-4.98413e-19 2.2781e-19 -0.0151464)
(-7.40714e-19 2.93612e-19 -0.0151538)
(-6.30538e-19 4.72221e-19 -0.0151605)
(-1.33346e-19 6.38689e-19 -0.0151663)
(4.62467e-21 9.66204e-19 -0.0151714)
(6.42516e-20 8.10925e-19 -0.0151756)
(1.688e-19 8.02173e-19 -0.0151789)
(-3.58634e-19 7.90697e-19 -0.0151814)
(7.56158e-20 8.75732e-19 -0.0151831)
(2.0643e-19 7.96196e-19 -0.015184)
(-1.72964e-18 3.72895e-19 -0.015184)
(-2.20437e-18 1.24835e-18 -0.0151831)
(-7.54356e-19 2.04804e-18 -0.0151814)
(-6.95308e-19 1.81068e-18 -0.0151789)
(-1.59905e-18 1.42543e-18 -0.0151756)
(-1.45986e-18 1.71006e-18 -0.0151714)
(-2.54014e-18 2.52019e-18 -0.0151663)
(-2.18313e-18 1.30456e-18 -0.0151605)
(-1.05186e-17 2.2483e-18 -0.0151538)
(-9.81305e-19 3.73694e-19 -0.0149103)
(-7.56005e-19 -6.74417e-20 -0.0149284)
(-3.45203e-19 1.44968e-19 -0.0149458)
(-6.18755e-19 5.55091e-19 -0.0149627)
(-4.83995e-19 -9.61218e-20 -0.014979)
(-4.91555e-19 3.98208e-20 -0.0149947)
(-5.31478e-19 6.61987e-20 -0.0150097)
(-3.57042e-19 -1.08917e-19 -0.0150241)
(-6.06654e-19 -1.66851e-19 -0.0150377)
(-1.80348e-19 -1.17956e-19 -0.0150507)
(-3.37702e-20 5.09355e-19 -0.0150629)
(7.42403e-20 6.18142e-19 -0.0150744)
(2.25654e-20 4.38189e-19 -0.0150851)
(-2.07685e-19 4.31284e-19 -0.015095)
(1.10131e-19 -1.20217e-19 -0.0151042)
(-3.72622e-19 -2.38e-20 -0.0151126)
(-7.43894e-19 1.79313e-19 -0.0151201)
(-6.16816e-19 1.20255e-19 -0.0151269)
(5.64564e-20 3.6169e-19 -0.0151328)
(8.53197e-20 1.13951e-18 -0.0151379)
(-1.26356e-20 7.36723e-19 -0.0151421)
(1.88632e-19 6.15352e-19 -0.0151455)
(-3.16322e-19 7.22189e-19 -0.0151481)
(4.72906e-20 1.10153e-18 -0.0151498)
(4.89437e-20 7.50174e-19 -0.0151506)
(-1.64266e-18 2.66255e-19 -0.0151506)
(-1.87644e-18 1.72491e-18 -0.0151498)
(-7.60581e-19 1.80399e-18 -0.0151481)
(-1.00778e-18 1.5985e-18 -0.0151455)
(-1.69366e-18 9.99331e-19 -0.0151421)
(-1.22473e-18 2.00653e-18 -0.0151379)
(-2.75298e-18 2.3637e-18 -0.0151328)
(-2.65229e-18 2.26595e-18 -0.0151269)
(-1.35253e-17 4.93734e-18 -0.0151201)
(-1.00742e-18 3.27317e-19 -0.0148742)
(-8.82214e-19 -1.60949e-19 -0.0148924)
(-3.29815e-19 1.86725e-19 -0.01491)
(-5.26138e-19 2.71323e-19 -0.014927)
(-5.27014e-19 -2.24068e-19 -0.0149434)
(-4.92954e-19 8.08969e-20 -0.0149593)
(-5.5591e-19 -5.9783e-20 -0.0149744)
(-4.45915e-19 -1.2294e-20 -0.0149889)
(-7.42393e-19 -4.55297e-20 -0.0150027)
(-1.99937e-19 -6.2902e-20 -0.0150158)
(-3.69257e-20 5.83001e-19 -0.0150281)
(1.54795e-19 2.23296e-19 -0.0150397)
(9.77356e-20 3.14061e-19 -0.0150506)
(-3.1129e-19 3.32435e-19 -0.0150606)
(-7.58939e-21 -1.42281e-19 -0.0150699)
(-3.12262e-19 7.90988e-20 -0.0150783)
(-7.03977e-19 1.43111e-19 -0.015086)
(-6.83058e-19 4.16453e-19 -0.0150928)
(1.80177e-19 7.7297e-19 -0.0150988)
(1.01423e-19 1.36721e-18 -0.0151039)
(-1.59297e-19 7.16958e-19 -0.0151082)
(1.80119e-19 4.82135e-19 -0.0151116)
(-1.76194e-19 6.4039e-19 -0.0151142)
(4.58798e-20 1.39407e-18 -0.0151159)
(-1.58772e-19 7.46678e-19 -0.0151168)
(-1.44151e-18 5.70438e-19 -0.0151168)
(-1.66395e-18 1.90409e-18 -0.0151159)
(-9.16209e-19 1.64685e-18 -0.0151142)
(-1.23027e-18 1.49916e-18 -0.0151116)
(-1.62044e-18 1.26456e-18 -0.0151082)
(-1.10136e-18 2.09795e-18 -0.0151039)
(-2.80267e-18 2.29949e-18 -0.0150988)
(-2.2588e-18 3.04727e-18 -0.0150928)
(-9.88605e-18 6.49605e-18 -0.015086)
(-9.01029e-19 1.22067e-19 -0.0148377)
(-1.0528e-18 -1.35211e-19 -0.014856)
(-4.31947e-19 2.74004e-19 -0.0148737)
(-4.25924e-19 -6.35827e-20 -0.0148909)
(-5.87323e-19 -1.8575e-19 -0.0149075)
(-4.88813e-19 2.18874e-20 -0.0149234)
(-5.96644e-19 -3.94241e-20 -0.0149387)
(-4.7521e-19 1.03332e-19 -0.0149534)
(-8.37369e-19 3.15514e-20 -0.0149673)
(-3.10738e-19 3.19254e-19 -0.0149805)
(-1.74613e-19 8.78795e-19 -0.014993)
(1.07843e-19 -1.24736e-20 -0.0150047)
(1.53744e-19 2.21464e-19 -0.0150156)
(-4.0459e-19 3.35728e-19 -0.0150258)
(-1.14339e-19 1.5748e-19 -0.0150351)
(-3.19483e-19 3.26569e-19 -0.0150437)
(-6.5795e-19 2.33971e-19 -0.0150514)
(-5.93048e-19 6.25331e-19 -0.0150583)
(2.36224e-19 1.15656e-18 -0.0150643)
(7.50214e-20 1.13923e-18 -0.0150695)
(-4.09553e-19 9.0698e-19 -0.0150738)
(1.39426e-19 5.61307e-19 -0.0150773)
(2.58377e-20 7.82018e-19 -0.0150799)
(6.40093e-20 1.29791e-18 -0.0150817)
(-3.12672e-19 8.11682e-19 -0.0150825)
(-1.27465e-18 7.5858e-19 -0.0150825)
(-1.5635e-18 1.49618e-18 -0.0150817)
(-1.03876e-18 1.60948e-18 -0.0150799)
(-1.33408e-18 1.57843e-18 -0.0150773)
(-1.53107e-18 1.70877e-18 -0.0150738)
(-1.04416e-18 2.16883e-18 -0.0150695)
(-2.64832e-18 2.57684e-18 -0.0150643)
(-1.73861e-18 3.7263e-18 -0.0150583)
(-6.51182e-18 5.86229e-18 -0.0150514)
(-6.60761e-19 -2.40722e-19 -0.0148008)
(-1.15527e-18 -1.94942e-20 -0.0148193)
(-6.21747e-19 3.22175e-19 -0.0148372)
(-4.10759e-19 -2.55153e-19 -0.0148545)
(-6.36039e-19 -7.32748e-20 -0.0148712)
(-4.49826e-19 -4.36448e-20 -0.0148873)
(-6.50099e-19 5.77265e-20 -0.0149027)
(-6.19036e-19 4.03211e-19 -0.0149174)
(-9.32727e-19 3.30021e-19 -0.0149315)
(-4.24937e-19 8.62428e-19 -0.0149448)
(-4.68453e-19 1.11071e-18 -0.0149574)
(-7.83606e-20 -1.27062e-19 -0.0149692)
(3.05682e-19 1.44779e-19 -0.0149802)
(-3.74818e-19 3.82726e-19 -0.0149905)
(-2.15816e-19 4.21779e-19 -0.0149999)
(-3.52807e-19 4.30176e-19 -0.0150086)
(-7.32994e-19 6.58179e-19 -0.0150164)
(-5.2622e-19 8.34463e-19 -0.0150233)
(2.18626e-19 1.41023e-18 -0.0150294)
(9.29129e-20 8.66463e-19 -0.0150347)
(-4.70123e-19 1.15848e-18 -0.015039)
(6.94294e-20 7.02821e-19 -0.0150426)
(8.14673e-20 9.82209e-19 -0.0150452)
(5.99026e-20 9.93591e-19 -0.015047)
(-4.08385e-19 9.596e-19 -0.0150478)
(-1.2617e-18 8.47495e-19 -0.0150478)
(-1.4592e-18 1.3536e-18 -0.015047)
(-1.00122e-18 1.57227e-18 -0.0150452)
(-1.33419e-18 1.70539e-18 -0.0150426)
(-1.43277e-18 2.18236e-18 -0.015039)
(-9.73541e-19 2.35832e-18 -0.0150347)
(-2.36531e-18 2.91553e-18 -0.0150294)
(-1.3898e-18 4.50444e-18 -0.0150233)
(-4.77129e-18 4.9819e-18 -0.0150164)
(-5.18926e-19 -3.76635e-19 -0.0147636)
(-1.0681e-18 -4.7187e-22 -0.0147822)
(-6.11449e-19 -8.03507e-21 -0.0148002)
(-5.30518e-19 -2.18822e-19 -0.0148176)
(-6.8216e-19 1.03602e-20 -0.0148345)
(-4.90081e-19 -1.94667e-20 -0.0148507)
(-5.60003e-19 1.58433e-19 -0.0148662)
(-6.28647e-19 6.525e-19 -0.0148811)
(-1.01643e-18 5.83222e-19 -0.0148953)
(-4.96361e-19 1.1764e-18 -0.0149087)
(-6.08234e-19 7.88256e-19 -0.0149214)
(-4.99291e-19 2.19609e-19 -0.0149333)
(3.34099e-19 2.36119e-19 -0.0149445)
(-2.59755e-19 2.30111e-19 -0.0149548)
(-1.7238e-19 2.47035e-19 -0.0149643)
(-2.38007e-19 3.91134e-19 -0.0149731)
(-7.1219e-19 1.02207e-18 -0.0149809)
(-5.43273e-19 1.24956e-18 -0.0149879)
(1.34053e-19 1.53038e-18 -0.0149941)
(3.11646e-20 9.36147e-19 -0.0149994)
(-5.39828e-19 1.18309e-18 -0.0150038)
(1.42253e-20 6.60062e-19 -0.0150074)
(1.13814e-19 1.00672e-18 -0.01501)
(5.81611e-20 8.95938e-19 -0.0150118)
(-4.12895e-19 1.18864e-18 -0.0150127)
(-1.20953e-18 1.09275e-18 -0.0150127)
(-1.38469e-18 1.61403e-18 -0.0150118)
(-1.00479e-18 1.72722e-18 -0.01501)
(-1.22911e-18 1.83859e-18 -0.0150074)
(-1.32629e-18 2.52826e-18 -0.0150038)
(-9.45875e-19 2.49477e-18 -0.0149994)
(-1.97453e-18 3.17475e-18 -0.0149941)
(-1.24726e-18 4.86373e-18 -0.0149879)
(-3.86813e-18 4.52424e-18 -0.0149809)
(-4.82179e-19 -3.03212e-19 -0.0147261)
(-1.04839e-18 -1.1461e-19 -0.0147448)
(-5.71487e-19 -2.39461e-19 -0.0147629)
(-6.23781e-19 4.15441e-20 -0.0147805)
(-7.28287e-19 7.30082e-20 -0.0147974)
(-5.6198e-19 9.032e-20 -0.0148138)
(-5.29148e-19 2.29929e-19 -0.0148294)
(-4.16759e-19 3.58839e-19 -0.0148444)
(-9.83607e-19 6.62845e-19 -0.0148587)
(-5.72463e-19 1.1172e-18 -0.0148722)
(-5.8997e-19 3.51209e-19 -0.014885)
(-7.13632e-19 5.57606e-19 -0.0148971)
(1.07281e-19 5.53135e-19 -0.0149083)
(-2.54773e-19 1.9177e-20 -0.0149187)
(-1.27172e-19 1.11169e-19 -0.0149283)
(-9.41693e-21 2.41323e-19 -0.0149371)
(-5.27295e-19 1.07512e-18 -0.0149451)
(-5.37786e-19 1.34765e-18 -0.0149521)
(9.46296e-20 1.11731e-18 -0.0149584)
(-3.65935e-20 1.0273e-18 -0.0149637)
(-5.96614e-19 9.59664e-19 -0.0149682)
(-4.7286e-20 6.42726e-19 -0.0149718)
(1.6424e-19 8.97194e-19 -0.0149744)
(1.19238e-19 9.22413e-19 -0.0149762)
(-3.76104e-19 1.18328e-18 -0.0149771)
(-1.18424e-18 1.28395e-18 -0.0149771)
(-1.30928e-18 1.73103e-18 -0.0149762)
(-9.81841e-19 2.17065e-18 -0.0149744)
(-1.15791e-18 1.85269e-18 -0.0149718)
(-1.26029e-18 2.70145e-18 -0.0149682)
(-9.073e-19 2.52299e-18 -0.0149637)
(-1.61905e-18 3.4173e-18 -0.0149584)
(-1.30821e-18 4.48587e-18 -0.0149521)
(-3.33675e-18 4.26807e-18 -0.0149451)
(-3.83529e-19 -3.04829e-19 -0.0146882)
(-1.05346e-18 -1.0062e-19 -0.014707)
(-6.69559e-19 -1.37978e-19 -0.0147252)
(-6.74755e-19 1.62133e-19 -0.0147429)
(-8.03667e-19 1.1601e-19 -0.01476)
(-5.73092e-19 3.69807e-20 -0.0147765)
(-6.39636e-19 3.36586e-19 -0.0147922)
(-2.0147e-19 1.06353e-19 -0.0148073)
(-9.01132e-19 8.38482e-19 -0.0148217)
(-5.84523e-19 8.21759e-19 -0.0148354)
(-6.26894e-19 1.97417e-19 -0.0148483)
(-7.68068e-19 7.24243e-19 -0.0148604)
(-1.08144e-19 7.03125e-19 -0.0148717)
(-3.72236e-19 -9.55484e-21 -0.0148822)
(-2.10491e-19 4.28134e-19 -0.0148919)
(1.59984e-19 2.05358e-19 -0.0149008)
(-3.27801e-19 1.11487e-18 -0.0149088)
(-5.92396e-19 1.15234e-18 -0.014916)
(1.07442e-19 6.37101e-19 -0.0149222)
(-4.3083e-20 1.19844e-18 -0.0149276)
(-6.70346e-19 6.3837e-19 -0.0149321)
(-7.12603e-20 6.61277e-19 -0.0149357)
(2.13605e-19 8.41834e-19 -0.0149384)
(1.55341e-19 8.5618e-19 -0.0149403)
(-3.09343e-19 5.74758e-19 -0.0149412)
(-1.09572e-18 1.17734e-18 -0.0149412)
(-1.1531e-18 1.79631e-18 -0.0149403)
(-1.00512e-18 2.48492e-18 -0.0149384)
(-1.16043e-18 1.82588e-18 -0.0149357)
(-1.15877e-18 2.95725e-18 -0.0149321)
(-8.44569e-19 2.55656e-18 -0.0149276)
(-1.39048e-18 3.64166e-18 -0.0149222)
(-1.45359e-18 4.06499e-18 -0.014916)
(-2.80973e-18 4.23068e-18 -0.0149088)
(8.27532e-19 7.25524e-18 -0.0149008)
(-2.39095e-19 -3.57783e-19 -0.0146499)
(-9.96245e-19 -1.2952e-19 -0.0146689)
(-6.90981e-19 -1.85595e-19 -0.0146873)
(-6.31906e-19 1.39969e-19 -0.0147051)
(-7.72252e-19 -8.08075e-20 -0.0147222)
(-5.11552e-19 -5.77736e-20 -0.0147388)
(-7.72305e-19 5.09584e-19 -0.0147547)
(-1.58095e-19 1.57303e-19 -0.0147699)
(-7.70285e-19 7.57774e-19 -0.0147844)
(-6.57989e-19 5.3282e-19 -0.0147982)
(-5.91641e-19 1.68013e-19 -0.0148111)
(-7.66653e-19 8.15351e-19 -0.0148234)
(-2.17174e-19 4.59179e-19 -0.0148348)
(-3.75832e-19 -4.48588e-20 -0.0148454)
(-2.27375e-19 4.12719e-19 -0.0148552)
(2.17749e-19 2.44002e-19 -0.0148641)
(-7.86176e-20 6.8351e-19 -0.0148722)
(-6.69397e-19 7.94759e-19 -0.0148794)
(1.23068e-19 6.875e-19 -0.0148857)
(-4.89207e-20 1.3042e-18 -0.0148911)
(-8.22915e-19 8.1218e-19 -0.0148957)
(-8.78167e-20 1.15943e-18 -0.0148993)
(2.22717e-19 8.75777e-19 -0.014902)
(2.50754e-20 6.85448e-19 -0.0149039)
(-2.78124e-19 -1.28197e-19 -0.0149048)
(-8.35706e-19 1.02422e-18 -0.0149048)
(-9.50523e-19 1.41289e-18 -0.0149039)
(-1.06502e-18 2.06692e-18 -0.014902)
(-1.12302e-18 1.61277e-18 -0.0148993)
(-1.07487e-18 3.04226e-18 -0.0148957)
(-8.15276e-19 2.50067e-18 -0.0148911)
(-1.31768e-18 3.22197e-18 -0.0148857)
(-1.51246e-18 3.97665e-18 -0.0148794)
(-2.19337e-18 4.53182e-18 -0.0148722)
(7.71688e-19 6.95942e-18 -0.0148641)
(-2.12945e-19 -2.78072e-19 -0.0146114)
(-8.97985e-19 -1.9409e-19 -0.0146304)
(-6.45918e-19 -3.05045e-19 -0.0146489)
(-6.32171e-19 6.97933e-20 -0.0146668)
(-7.23085e-19 -3.11922e-19 -0.0146841)
(-3.75005e-19 -1.01346e-19 -0.0147008)
(-6.93132e-19 3.33401e-19 -0.0147168)
(-2.63801e-19 3.19752e-19 -0.0147321)
(-5.68957e-19 4.35701e-19 -0.0147467)
(-7.39506e-19 4.99351e-19 -0.0147606)
(-5.75452e-19 1.95092e-19 -0.0147737)
(-7.58137e-19 6.60073e-19 -0.014786)
(-3.36395e-19 1.85114e-19 -0.0147975)
(-4.75489e-19 1.09864e-19 -0.0148082)
(-2.221e-19 4.64631e-19 -0.014818)
(2.05229e-19 2.44795e-19 -0.014827)
(1.05146e-19 1.82707e-19 -0.0148351)
(-5.14951e-19 4.77038e-19 -0.0148424)
(1.30693e-19 1.22022e-18 -0.0148488)
(2.92059e-20 1.22139e-18 -0.0148542)
(-8.39399e-19 1.25085e-18 -0.0148588)
(-2.35733e-19 1.99638e-18 -0.0148625)
(3.13547e-20 9.44689e-19 -0.0148652)
(-2.03963e-19 7.38829e-19 -0.0148671)
(-2.16317e-19 -1.50967e-19 -0.014868)
(-6.31212e-19 9.88674e-19 -0.014868)
(-9.05223e-19 1.10617e-18 -0.0148671)
(-1.07841e-18 1.57944e-18 -0.0148652)
(-9.69767e-19 1.26828e-18 -0.0148625)
(-9.73661e-19 2.75493e-18 -0.0148588)
(-9.47244e-19 2.33484e-18 -0.0148542)
(-1.25177e-18 2.52762e-18 -0.0148488)
(-1.26147e-18 4.04165e-18 -0.0148424)
(-1.70726e-18 4.60035e-18 -0.0148351)
(5.15015e-19 6.29423e-18 -0.014827)
(-2.9155e-19 -7.78684e-20 -0.0145725)
(-9.60968e-19 -1.25006e-19 -0.0145917)
(-6.18944e-19 -3.90565e-19 -0.0146103)
(-5.76112e-19 -3.6197e-20 -0.0146283)
(-8.21216e-19 -3.08986e-19 -0.0146457)
(-3.17886e-19 -1.65255e-19 -0.0146625)
(-4.89184e-19 5.16308e-20 -0.0146786)
(-4.1465e-19 6.34812e-19 -0.014694)
(-5.17808e-19 3.77647e-19 -0.0147087)
(-8.03764e-19 5.58476e-19 -0.0147226)
(-5.87878e-19 1.59777e-19 -0.0147358)
(-7.58005e-19 5.24685e-19 -0.0147482)
(-4.1424e-19 2.16909e-19 -0.0147598)
(-4.8802e-19 4.3284e-19 -0.0147705)
(-3.68109e-19 7.10685e-19 -0.0147805)
(6.62429e-20 2.51723e-19 -0.0147895)
(7.82814e-20 4.68746e-19 -0.0147977)
(-2.89463e-19 4.65814e-19 -0.014805)
(2.00409e-19 1.48048e-18 -0.0148115)
(4.81025e-20 9.31383e-19 -0.014817)
(-6.39135e-19 1.20726e-18 -0.0148216)
(-3.35698e-19 2.04875e-18 -0.0148253)
(-2.28036e-19 9.20879e-19 -0.0148281)
(-3.7835e-19 7.84464e-19 -0.0148299)
(-2.34015e-19 2.90902e-19 -0.0148309)
(-4.67527e-19 1.08954e-18 -0.0148309)
(-8.40102e-19 1.3159e-18 -0.0148299)
(-1.11801e-18 1.64223e-18 -0.0148281)
(-8.46728e-19 1.1945e-18 -0.0148253)
(-9.00268e-19 2.25677e-18 -0.0148216)
(-1.06051e-18 2.18888e-18 -0.014817)
(-1.03986e-18 2.31594e-18 -0.0148115)
(-1.01672e-18 3.94425e-18 -0.014805)
(-1.56359e-18 3.98394e-18 -0.0147977)
(-2.13818e-19 2.41722e-20 -0.0145334)
(-9.51996e-19 -2.10911e-19 -0.0145526)
(-7.29848e-19 -3.83727e-19 -0.0145713)
(-4.85464e-19 -1.64325e-19 -0.0145894)
(-9.11637e-19 -2.65303e-19 -0.0146069)
(-3.69829e-19 -1.37892e-19 -0.0146238)
(-3.64178e-19 9.87524e-20 -0.01464)
(-4.53287e-19 8.57783e-19 -0.0146555)
(-5.45074e-19 3.69891e-19 -0.0146703)
(-8.63498e-19 5.28301e-19 -0.0146843)
(-6.24035e-19 1.41564e-19 -0.0146976)
(-7.68023e-19 5.17124e-19 -0.0147101)
(-4.89322e-19 3.0163e-19 -0.0147217)
(-4.44048e-19 3.81554e-19 -0.0147326)
(-3.86001e-19 5.01556e-19 -0.0147426)
(1.8106e-20 4.00025e-19 -0.0147517)
(2.74268e-20 8.97163e-19 -0.01476)
(-2.20489e-19 5.23519e-19 -0.0147673)
(2.73656e-19 1.12898e-18 -0.0147738)
(6.35711e-20 5.25987e-19 -0.0147794)
(-4.45681e-19 8.48039e-19 -0.014784)
(-3.25223e-19 1.33117e-18 -0.0147877)
(-4.12467e-19 8.32886e-19 -0.0147905)
(-4.48609e-19 6.34709e-19 -0.0147924)
(-1.65798e-19 7.40334e-19 -0.0147933)
(-3.3914e-19 1.18788e-18 -0.0147933)
(-7.88141e-19 1.52016e-18 -0.0147924)
(-1.1943e-18 1.67863e-18 -0.0147905)
(-8.35914e-19 1.36188e-18 -0.0147877)
(-8.59201e-19 1.7125e-18 -0.014784)
(-1.06163e-18 2.13483e-18 -0.0147794)
(-8.24983e-19 2.29137e-18 -0.0147738)
(-1.00115e-18 3.45407e-18 -0.0147673)
(-1.50141e-18 3.30085e-18 -0.01476)
(-2.07927e-19 7.15095e-20 -0.0144939)
(-7.13429e-19 -5.60429e-19 -0.0145132)
(-8.08425e-19 -3.51273e-19 -0.014532)
(-4.71811e-19 -1.84939e-19 -0.0145502)
(-9.56904e-19 -2.21485e-19 -0.0145678)
(-5.23232e-19 1.13005e-19 -0.0145848)
(-2.67808e-19 1.54189e-19 -0.0146011)
(-4.17646e-19 7.9776e-19 -0.0146167)
(-5.32137e-19 2.31647e-19 -0.0146316)
(-8.6835e-19 4.43418e-19 -0.0146457)
(-6.54986e-19 1.58655e-19 -0.0146591)
(-7.52443e-19 4.5503e-19 -0.0146716)
(-5.9563e-19 3.74204e-19 -0.0146834)
(-4.28273e-19 2.60656e-19 -0.0146943)
(-3.24867e-19 2.42109e-19 -0.0147043)
(9.12229e-20 3.98404e-19 -0.0147135)
(4.28836e-20 8.06064e-19 -0.0147218)
(-2.37879e-19 3.90057e-19 -0.0147292)
(3.05446e-19 7.12177e-19 -0.0147358)
(7.6239e-20 2.41596e-19 -0.0147414)
(-3.41466e-19 7.25238e-19 -0.014746)
(-2.72676e-19 8.11797e-19 -0.0147498)
(-4.84355e-19 8.3196e-19 -0.0147526)
(-4.59385e-19 9.21914e-19 -0.0147545)
(-1.02395e-19 1.13762e-18 -0.0147554)
(-2.59803e-19 9.59164e-19 -0.0147554)
(-7.4869e-19 1.62151e-18 -0.0147545)
(-1.27112e-18 1.37708e-18 -0.0147526)
(-8.78804e-19 1.54614e-18 -0.0147498)
(-8.22239e-19 1.52088e-18 -0.014746)
(-9.67935e-19 2.11835e-18 -0.0147414)
(-7.08975e-19 2.34057e-18 -0.0147358)
(-1.03226e-18 3.05774e-18 -0.0147292)
(-1.36615e-18 3.04415e-18 -0.0147218)
(-3.01379e-19 8.07453e-20 -0.0144541)
(-4.92664e-19 -9.33138e-19 -0.0144735)
(-8.60189e-19 -2.06744e-19 -0.0144924)
(-5.44557e-19 -4.43502e-20 -0.0145107)
(-8.72759e-19 -2.86741e-19 -0.0145284)
(-6.43362e-19 2.25568e-19 -0.0145455)
(-2.79543e-19 2.24225e-19 -0.0145619)
(-4.14833e-19 8.36328e-19 -0.0145776)
(-6.10643e-19 3.39643e-19 -0.0145925)
(-8.73148e-19 4.20775e-19 -0.0146067)
(-7.075e-19 1.99369e-19 -0.0146202)
(-6.78171e-19 2.88115e-19 -0.0146328)
(-7.05107e-19 5.154e-19 -0.0146446)
(-4.8913e-19 1.50787e-19 -0.0146556)
(-3.50193e-19 1.8326e-19 -0.0146657)
(1.57491e-19 3.11202e-19 -0.014675)
(1.28669e-19 4.29258e-19 -0.0146833)
(-2.35233e-19 2.25895e-19 -0.0146908)
(3.32815e-19 3.36022e-19 -0.0146974)
(1.23336e-19 2.77651e-19 -0.014703)
(-2.88157e-19 9.12569e-19 -0.0147077)
(-2.74066e-19 7.5626e-19 -0.0147115)
(-4.17129e-19 8.89728e-19 -0.0147143)
(-4.19715e-19 1.1819e-18 -0.0147162)
(-1.96933e-19 1.41507e-18 -0.0147172)
(-2.30046e-19 6.98745e-19 -0.0147172)
(-7.30072e-19 1.5838e-18 -0.0147162)
(-1.34675e-18 1.02577e-18 -0.0147143)
(-8.54136e-19 1.43729e-18 -0.0147115)
(-8.15461e-19 1.18757e-18 -0.0147077)
(-8.90174e-19 2.00628e-18 -0.014703)
(-5.95424e-19 2.46523e-18 -0.0146974)
(-1.01082e-18 3.07622e-18 -0.0146908)
(-1.21171e-18 2.94571e-18 -0.0146833)
(-3.21581e-19 -9.46316e-20 -0.014414)
(-3.6547e-19 -1.08187e-18 -0.0144335)
(-8.03476e-19 -6.04236e-20 -0.0144525)
(-5.95482e-19 -9.13949e-20 -0.0144709)
(-8.21878e-19 -4.03751e-19 -0.0144887)
(-6.59035e-19 3.22041e-19 -0.0145058)
(-2.74626e-19 3.67003e-19 -0.0145223)
(-3.55208e-19 7.74933e-19 -0.0145381)
(-7.22926e-19 4.59059e-19 -0.0145532)
(-9.19995e-19 3.89615e-19 -0.0145674)
(-7.36706e-19 7.81334e-20 -0.014581)
(-5.66552e-19 6.44485e-20 -0.0145937)
(-7.49309e-19 5.05862e-19 -0.0146056)
(-5.68699e-19 1.08237e-19 -0.0146166)
(-4.14264e-19 3.59976e-19 -0.0146268)
(9.30778e-20 4.30302e-19 -0.0146361)
(1.4346e-19 2.54988e-19 -0.0146445)
(-2.57566e-19 1.42338e-19 -0.014652)
(3.71936e-19 2.46779e-19 -0.0146586)
(2.38206e-19 5.25189e-19 -0.0146643)
(-2.383e-19 1.03262e-18 -0.014669)
(-3.16426e-19 8.6606e-19 -0.0146728)
(-3.88629e-19 8.63358e-19 -0.0146757)
(-3.44049e-19 1.05177e-18 -0.0146776)
(-2.93941e-19 1.47903e-18 -0.0146785)
(-2.47939e-19 6.719e-19 -0.0146785)
(-7.37534e-19 1.21457e-18 -0.0146776)
(-1.43105e-18 9.28546e-19 -0.0146757)
(-9.15504e-19 1.26143e-18 -0.0146728)
(-7.87288e-19 8.94397e-19 -0.014669)
(-6.82195e-19 1.746e-18 -0.0146643)
(-4.62892e-19 2.37941e-18 -0.0146586)
(-1.02895e-18 3.06811e-18 -0.014652)
(-2.21301e-19 -3.83036e-19 -0.0143736)
(-3.68682e-19 -1.02882e-18 -0.0143932)
(-6.70558e-19 -9.3555e-20 -0.0144123)
(-4.36906e-19 -4.39253e-19 -0.0144308)
(-7.16463e-19 -4.50119e-19 -0.0144487)
(-6.90879e-19 4.2226e-19 -0.0144659)
(-2.68262e-19 2.93174e-19 -0.0144825)
(-1.7157e-19 4.65223e-19 -0.0144983)
(-6.06006e-19 1.93106e-19 -0.0145135)
(-9.5822e-19 2.49026e-19 -0.0145278)
(-7.76903e-19 -1.11329e-19 -0.0145414)
(-4.51113e-19 -1.18797e-19 -0.0145542)
(-6.68724e-19 3.01883e-19 -0.0145661)
(-6.2445e-19 1.71024e-19 -0.0145773)
(-3.75206e-19 2.40696e-19 -0.0145875)
(7.26724e-21 5.04966e-19 -0.0145969)
(4.25034e-20 4.32697e-19 -0.0146053)
(-2.89895e-19 2.82811e-19 -0.0146129)
(3.81268e-19 5.52791e-19 -0.0146195)
(3.35162e-19 6.84403e-19 -0.0146252)