/*--------------------------------*- C++ -*----------------------------------*\
  =========                 |
  \\      /  F ield         | OpenFOAM: The Open Source CFD Toolbox
   \\    /   O peration     | Website:  https://openfoam.org
    \\  /    A nd           | Version:  7
     \\/     M anipulation  |
\*---------------------------------------------------------------------------*/
FoamFile
{
    version     2.0;
    format      ascii;
    class       volScalarField;
    location    "8000";
    object      nut;
}
// * * * * * * * * * * * * * * * * * * * * * * * * * * * * * * * * * * * * * //

dimensions      [0 2 -1 0 0 0 0];

internalField   nonuniform List<scalar> 
4825
(
1.35091e-15
1.35414e-15
1.34343e-15
1.34662e-15
1.34968e-15
1.35269e-15
1.35559e-15
1.33598e-15
1.33912e-15
1.34215e-15
1.34516e-15
1.34807e-15
1.32851e-15
1.33163e-15
1.33464e-15
1.33764e-15
1.34056e-15
1.32103e-15
1.32413e-15
1.32713e-15
1.33013e-15
1.33305e-15
1.31352e-15
1.3166e-15
1.3196e-15
1.32259e-15
1.32551e-15
1.30597e-15
1.30904e-15
1.31204e-15
1.31501e-15
1.31794e-15
1.29838e-15
1.30144e-15
1.30443e-15
1.30739e-15
1.31031e-15
1.29074e-15
1.29379e-15
1.29677e-15
1.29971e-15
1.30261e-15
1.28305e-15
1.28608e-15
1.28905e-15
1.29196e-15
1.29482e-15
1.27532e-15
1.27832e-15
1.28126e-15
1.28413e-15
1.28696e-15
1.26752e-15
1.2705e-15
1.27339e-15
1.27622e-15
1.27902e-15
1.25968e-15
1.26262e-15
1.26545e-15
1.26823e-15
1.27103e-15
1.25178e-15
1.25467e-15
1.25742e-15
1.26016e-15
1.24382e-15
1.24667e-15
1.24932e-15
1.25203e-15
1.23581e-15
1.2386e-15
1.24115e-15
1.24388e-15
1.22773e-15
1.23047e-15
1.23293e-15
1.21957e-15
1.22227e-15
1.2247e-15
1.21134e-15
1.21401e-15
1.20301e-15
1.20568e-15
1.1946e-15
1.19729e-15
1.18609e-15
1.18884e-15
1.17752e-15
1.18036e-15
1.16891e-15
1.45236e-15
1.45513e-15
1.45782e-15
1.46041e-15
1.46291e-15
1.46531e-15
1.46761e-15
1.46981e-15
1.47191e-15
1.47392e-15
1.47586e-15
1.47774e-15
1.47951e-15
1.48117e-15
1.48272e-15
1.48415e-15
1.48546e-15
1.48667e-15
1.48778e-15
1.48885e-15
1.44579e-15
1.44856e-15
1.45126e-15
1.45387e-15
1.45638e-15
1.4588e-15
1.46111e-15
1.46332e-15
1.46543e-15
1.46745e-15
1.4694e-15
1.47127e-15
1.47304e-15
1.4747e-15
1.47625e-15
1.47769e-15
1.47901e-15
1.48022e-15
1.48135e-15
1.48242e-15
1.43922e-15
1.442e-15
1.44471e-15
1.44733e-15
1.44986e-15
1.45228e-15
1.45461e-15
1.45683e-15
1.45895e-15
1.46098e-15
1.46293e-15
1.4648e-15
1.46657e-15
1.46823e-15
1.46979e-15
1.47123e-15
1.47255e-15
1.47377e-15
1.4749e-15
1.47594e-15
1.43262e-15
1.43542e-15
1.43815e-15
1.44078e-15
1.44332e-15
1.44575e-15
1.44809e-15
1.45032e-15
1.45246e-15
1.4545e-15
1.45645e-15
1.45832e-15
1.46009e-15
1.46175e-15
1.46331e-15
1.46475e-15
1.46608e-15
1.4673e-15
1.46841e-15
1.4694e-15
1.42599e-15
1.42882e-15
1.43155e-15
1.4342e-15
1.43675e-15
1.43919e-15
1.44154e-15
1.44379e-15
1.44593e-15
1.44798e-15
1.44994e-15
1.45181e-15
1.45358e-15
1.45524e-15
1.4568e-15
1.45824e-15
1.45957e-15
1.46078e-15
1.46187e-15
1.4628e-15
1.41932e-15
1.42217e-15
1.42492e-15
1.42758e-15
1.43014e-15
1.4326e-15
1.43496e-15
1.43721e-15
1.43937e-15
1.44143e-15
1.44339e-15
1.44526e-15
1.44703e-15
1.4487e-15
1.45026e-15
1.4517e-15
1.45302e-15
1.45422e-15
1.45527e-15
1.45614e-15
1.41259e-15
1.41547e-15
1.41824e-15
1.42091e-15
1.42349e-15
1.42596e-15
1.42833e-15
1.43059e-15
1.43276e-15
1.43483e-15
1.4368e-15
1.43867e-15
1.44044e-15
1.44211e-15
1.44367e-15
1.44511e-15
1.44642e-15
1.4476e-15
1.44863e-15
1.44944e-15
1.40582e-15
1.40872e-15
1.41151e-15
1.4142e-15
1.41678e-15
1.41927e-15
1.42165e-15
1.42393e-15
1.4261e-15
1.42818e-15
1.43016e-15
1.43203e-15
1.43381e-15
1.43547e-15
1.43703e-15
1.43847e-15
1.43977e-15
1.44094e-15
1.44193e-15
1.44269e-15
1.4431e-15
1.44363e-15
1.44412e-15
1.4445e-15
1.44474e-15
1.44483e-15
1.44478e-15
1.44458e-15
1.44425e-15
1.44377e-15
1.44317e-15
1.44244e-15
1.44159e-15
1.44063e-15
1.43956e-15
1.399e-15
1.40192e-15
1.40473e-15
1.40743e-15
1.41003e-15
1.41253e-15
1.41492e-15
1.41721e-15
1.41939e-15
1.42148e-15
1.42346e-15
1.42534e-15
1.42712e-15
1.42879e-15
1.43034e-15
1.43177e-15
1.43307e-15
1.43422e-15
1.43518e-15
1.43592e-15
1.43633e-15
1.43682e-15
1.43728e-15
1.43764e-15
1.43787e-15
1.43796e-15
1.4379e-15
1.43771e-15
1.43737e-15
1.4369e-15
1.43629e-15
1.43556e-15
1.43471e-15
1.43374e-15
1.43265e-15
1.4314e-15
1.4301e-15
1.39212e-15
1.39507e-15
1.3979e-15
1.40062e-15
1.40323e-15
1.40573e-15
1.40813e-15
1.41043e-15
1.41263e-15
1.41472e-15
1.41671e-15
1.4186e-15
1.42037e-15
1.42204e-15
1.4236e-15
1.42502e-15
1.42631e-15
1.42745e-15
1.42839e-15
1.42911e-15
1.42955e-15
1.43002e-15
1.43044e-15
1.43078e-15
1.43101e-15
1.43109e-15
1.43104e-15
1.43084e-15
1.4305e-15
1.43003e-15
1.42942e-15
1.42869e-15
1.42783e-15
1.42685e-15
1.42575e-15
1.42447e-15
1.42313e-15
1.42164e-15
1.3852e-15
1.38816e-15
1.39101e-15
1.39374e-15
1.39636e-15
1.39888e-15
1.40129e-15
1.4036e-15
1.40581e-15
1.40791e-15
1.4099e-15
1.4118e-15
1.41358e-15
1.41525e-15
1.4168e-15
1.41822e-15
1.4195e-15
1.42062e-15
1.42155e-15
1.42227e-15
1.42274e-15
1.42319e-15
1.4236e-15
1.42393e-15
1.42414e-15
1.42422e-15
1.42416e-15
1.42396e-15
1.42362e-15
1.42315e-15
1.42254e-15
1.4218e-15
1.42094e-15
1.41995e-15
1.41883e-15
1.41753e-15
1.41616e-15
1.41462e-15
1.41298e-15
1.4113e-15
1.37822e-15
1.3812e-15
1.38406e-15
1.38681e-15
1.38944e-15
1.39197e-15
1.3944e-15
1.39672e-15
1.39893e-15
1.40104e-15
1.40304e-15
1.40494e-15
1.40672e-15
1.40839e-15
1.40994e-15
1.41136e-15
1.41264e-15
1.41375e-15
1.41467e-15
1.41539e-15
1.41589e-15
1.41634e-15
1.41674e-15
1.41705e-15
1.41725e-15
1.41732e-15
1.41726e-15
1.41706e-15
1.41672e-15
1.41624e-15
1.41563e-15
1.41489e-15
1.41402e-15
1.41303e-15
1.41188e-15
1.41058e-15
1.40918e-15
1.40761e-15
1.40592e-15
1.40419e-15
1.40231e-15
1.40037e-15
1.37118e-15
1.37418e-15
1.37706e-15
1.37982e-15
1.38247e-15
1.38501e-15
1.38744e-15
1.38977e-15
1.392e-15
1.39411e-15
1.39612e-15
1.39802e-15
1.39981e-15
1.40148e-15
1.40303e-15
1.40445e-15
1.40572e-15
1.40682e-15
1.40774e-15
1.40846e-15
1.409e-15
1.40946e-15
1.40984e-15
1.41014e-15
1.41033e-15
1.4104e-15
1.41033e-15
1.41012e-15
1.40978e-15
1.4093e-15
1.40869e-15
1.40795e-15
1.40707e-15
1.40606e-15
1.40491e-15
1.4036e-15
1.40217e-15
1.40058e-15
1.39886e-15
1.39709e-15
1.39516e-15
1.39318e-15
1.39103e-15
1.38883e-15
1.38652e-15
1.3641e-15
1.36711e-15
1.37e-15
1.37277e-15
1.37544e-15
1.37799e-15
1.38043e-15
1.38277e-15
1.38501e-15
1.38713e-15
1.38915e-15
1.39105e-15
1.39284e-15
1.39452e-15
1.39606e-15
1.39748e-15
1.39874e-15
1.39984e-15
1.40076e-15
1.40149e-15
1.40206e-15
1.40252e-15
1.4029e-15
1.40319e-15
1.40337e-15
1.40343e-15
1.40336e-15
1.40315e-15
1.40281e-15
1.40233e-15
1.40171e-15
1.40096e-15
1.40008e-15
1.39906e-15
1.39789e-15
1.39657e-15
1.39512e-15
1.39352e-15
1.39179e-15
1.38998e-15
1.38802e-15
1.386e-15
1.38381e-15
1.38158e-15
1.37923e-15
1.37672e-15
1.37417e-15
1.35696e-15
1.35998e-15
1.36288e-15
1.36567e-15
1.36834e-15
1.37091e-15
1.37337e-15
1.37571e-15
1.37796e-15
1.38009e-15
1.38211e-15
1.38402e-15
1.38582e-15
1.38749e-15
1.38904e-15
1.39045e-15
1.39171e-15
1.39281e-15
1.39373e-15
1.39448e-15
1.39506e-15
1.39553e-15
1.39591e-15
1.39619e-15
1.39637e-15
1.39642e-15
1.39635e-15
1.39614e-15
1.39579e-15
1.39531e-15
1.39469e-15
1.39393e-15
1.39304e-15
1.39201e-15
1.39083e-15
1.38951e-15
1.38804e-15
1.38643e-15
1.38468e-15
1.38284e-15
1.38087e-15
1.37881e-15
1.37659e-15
1.37433e-15
1.37195e-15
1.3694e-15
1.3668e-15
1.36404e-15
1.36122e-15
1.3583e-15
1.34977e-15
1.3528e-15
1.35571e-15
1.35851e-15
1.3612e-15
1.36377e-15
1.36624e-15
1.3686e-15
1.37085e-15
1.37299e-15
1.37502e-15
1.37693e-15
1.37873e-15
1.38041e-15
1.38196e-15
1.38337e-15
1.38463e-15
1.38573e-15
1.38666e-15
1.38741e-15
1.38801e-15
1.3885e-15
1.38887e-15
1.38915e-15
1.38932e-15
1.38937e-15
1.38929e-15
1.38907e-15
1.38872e-15
1.38824e-15
1.38761e-15
1.38685e-15
1.38595e-15
1.38492e-15
1.38373e-15
1.38239e-15
1.38092e-15
1.37929e-15
1.37754e-15
1.37568e-15
1.37368e-15
1.3716e-15
1.36937e-15
1.36707e-15
1.36466e-15
1.36209e-15
1.35945e-15
1.35664e-15
1.35379e-15
1.35084e-15
1.34253e-15
1.34556e-15
1.34848e-15
1.35129e-15
1.35399e-15
1.35658e-15
1.35905e-15
1.36142e-15
1.36368e-15
1.36583e-15
1.36787e-15
1.36979e-15
1.37159e-15
1.37327e-15
1.37482e-15
1.37623e-15
1.37749e-15
1.37859e-15
1.37953e-15
1.38029e-15
1.38091e-15
1.3814e-15
1.38178e-15
1.38206e-15
1.38222e-15
1.38227e-15
1.38218e-15
1.38196e-15
1.38161e-15
1.38112e-15
1.38049e-15
1.37972e-15
1.37882e-15
1.37777e-15
1.37658e-15
1.37523e-15
1.37374e-15
1.37211e-15
1.37035e-15
1.36847e-15
1.36646e-15
1.36435e-15
1.36211e-15
1.35979e-15
1.35735e-15
1.35476e-15
1.35208e-15
1.34925e-15
1.34637e-15
1.3434e-15
1.33523e-15
1.33827e-15
1.3412e-15
1.34402e-15
1.34673e-15
1.34932e-15
1.35181e-15
1.35419e-15
1.35646e-15
1.35862e-15
1.36066e-15
1.36259e-15
1.3644e-15
1.36608e-15
1.36763e-15
1.36904e-15
1.3703e-15
1.3714e-15
1.37234e-15
1.37312e-15
1.37375e-15
1.37425e-15
1.37464e-15
1.37492e-15
1.37507e-15
1.37511e-15
1.37502e-15
1.3748e-15
1.37444e-15
1.37395e-15
1.37331e-15
1.37254e-15
1.37163e-15
1.37057e-15
1.36937e-15
1.36802e-15
1.36652e-15
1.36488e-15
1.36311e-15
1.36122e-15
1.3592e-15
1.35707e-15
1.35482e-15
1.35247e-15
1.35001e-15
1.3474e-15
1.3447e-15
1.34185e-15
1.33895e-15
1.33596e-15
1.32788e-15
1.33092e-15
1.33386e-15
1.33669e-15
1.33941e-15
1.34202e-15
1.34451e-15
1.3469e-15
1.34918e-15
1.35135e-15
1.3534e-15
1.35533e-15
1.35714e-15
1.35883e-15
1.36038e-15
1.36179e-15
1.36306e-15
1.36416e-15
1.36511e-15
1.3659e-15
1.36654e-15
1.36705e-15
1.36744e-15
1.36772e-15
1.36787e-15
1.36791e-15
1.36781e-15
1.36759e-15
1.36723e-15
1.36673e-15
1.36609e-15
1.36531e-15
1.36439e-15
1.36332e-15
1.36211e-15
1.36075e-15
1.35925e-15
1.3576e-15
1.35582e-15
1.35392e-15
1.35189e-15
1.34975e-15
1.34748e-15
1.34512e-15
1.34263e-15
1.34001e-15
1.33728e-15
1.33443e-15
1.33151e-15
1.32851e-15
1.32048e-15
1.32352e-15
1.32646e-15
1.3293e-15
1.33203e-15
1.33465e-15
1.33716e-15
1.33956e-15
1.34184e-15
1.34402e-15
1.34608e-15
1.34801e-15
1.34983e-15
1.35152e-15
1.35308e-15
1.35449e-15
1.35576e-15
1.35687e-15
1.35782e-15
1.35862e-15
1.35927e-15
1.35979e-15
1.36019e-15
1.36046e-15
1.36062e-15
1.36065e-15
1.36055e-15
1.36032e-15
1.35995e-15
1.35945e-15
1.35881e-15
1.35802e-15
1.3571e-15
1.35602e-15
1.35481e-15
1.35344e-15
1.35193e-15
1.35027e-15
1.34849e-15
1.34657e-15
1.34454e-15
1.34238e-15
1.3401e-15
1.33772e-15
1.33521e-15
1.33258e-15
1.32983e-15
1.32697e-15
1.32404e-15
1.32103e-15
1.31302e-15
1.31606e-15
1.31902e-15
1.32186e-15
1.3246e-15
1.32723e-15
1.32975e-15
1.33216e-15
1.33445e-15
1.33663e-15
1.3387e-15
1.34064e-15
1.34247e-15
1.34416e-15
1.34572e-15
1.34713e-15
1.3484e-15
1.34952e-15
1.35048e-15
1.35129e-15
1.35195e-15
1.35248e-15
1.35288e-15
1.35316e-15
1.35331e-15
1.35334e-15
1.35324e-15
1.353e-15
1.35263e-15
1.35212e-15
1.35147e-15
1.35068e-15
1.34975e-15
1.34867e-15
1.34744e-15
1.34607e-15
1.34455e-15
1.34289e-15
1.3411e-15
1.33918e-15
1.33713e-15
1.33496e-15
1.33268e-15
1.33028e-15
1.32775e-15
1.3251e-15
1.32234e-15
1.31947e-15
1.31653e-15
1.31352e-15
1.30551e-15
1.30856e-15
1.31151e-15
1.31437e-15
1.31712e-15
1.31975e-15
1.32228e-15
1.3247e-15
1.327e-15
1.32919e-15
1.33127e-15
1.33322e-15
1.33504e-15
1.33674e-15
1.3383e-15
1.33973e-15
1.341e-15
1.34212e-15
1.34309e-15
1.34391e-15
1.34458e-15
1.34511e-15
1.34552e-15
1.34579e-15
1.34595e-15
1.34597e-15
1.34587e-15
1.34563e-15
1.34525e-15
1.34474e-15
1.34409e-15
1.34329e-15
1.34235e-15
1.34126e-15
1.34003e-15
1.33865e-15
1.33712e-15
1.33546e-15
1.33366e-15
1.33173e-15
1.32967e-15
1.3275e-15
1.3252e-15
1.32278e-15
1.32024e-15
1.31758e-15
1.31481e-15
1.31194e-15
1.30899e-15
1.30597e-15
1.29795e-15
1.301e-15
1.30396e-15
1.30682e-15
1.30958e-15
1.31222e-15
1.31476e-15
1.31719e-15
1.3195e-15
1.3217e-15
1.32378e-15
1.32574e-15
1.32757e-15
1.32927e-15
1.33084e-15
1.33226e-15
1.33354e-15
1.33467e-15
1.33564e-15
1.33647e-15
1.33715e-15
1.33769e-15
1.3381e-15
1.33838e-15
1.33853e-15
1.33855e-15
1.33844e-15
1.3382e-15
1.33782e-15
1.33731e-15
1.33665e-15
1.33584e-15
1.3349e-15
1.3338e-15
1.33256e-15
1.33118e-15
1.32964e-15
1.32797e-15
1.32617e-15
1.32423e-15
1.32216e-15
1.31998e-15
1.31767e-15
1.31524e-15
1.31268e-15
1.31001e-15
1.30723e-15
1.30435e-15
1.3014e-15
1.29838e-15
1.29033e-15
1.29338e-15
1.29635e-15
1.29922e-15
1.30198e-15
1.30464e-15
1.30719e-15
1.30962e-15
1.31194e-15
1.31415e-15
1.31624e-15
1.3182e-15
1.32004e-15
1.32175e-15
1.32332e-15
1.32475e-15
1.32603e-15
1.32716e-15
1.32814e-15
1.32898e-15
1.32966e-15
1.33021e-15
1.33062e-15
1.33091e-15
1.33106e-15
1.33108e-15
1.33097e-15
1.33072e-15
1.33034e-15
1.32982e-15
1.32915e-15
1.32834e-15
1.32739e-15
1.32629e-15
1.32504e-15
1.32365e-15
1.32211e-15
1.32043e-15
1.31862e-15
1.31668e-15
1.3146e-15
1.31241e-15
1.31009e-15
1.30764e-15
1.30508e-15
1.30239e-15
1.2996e-15
1.29672e-15
1.29376e-15
1.29074e-15
1.28267e-15
1.28572e-15
1.28869e-15
1.29156e-15
1.29433e-15
1.297e-15
1.29956e-15
1.302e-15
1.30433e-15
1.30655e-15
1.30864e-15
1.31061e-15
1.31246e-15
1.31417e-15
1.31575e-15
1.31718e-15
1.31847e-15
1.31961e-15
1.32059e-15
1.32143e-15
1.32213e-15
1.32268e-15
1.3231e-15
1.32338e-15
1.32353e-15
1.32355e-15
1.32344e-15
1.32319e-15
1.32281e-15
1.32228e-15
1.32161e-15
1.32079e-15
1.31983e-15
1.31872e-15
1.31747e-15
1.31607e-15
1.31453e-15
1.31284e-15
1.31102e-15
1.30907e-15
1.30699e-15
1.30479e-15
1.30245e-15
1.3e-15
1.29742e-15
1.29472e-15
1.29193e-15
1.28904e-15
1.28608e-15
1.28306e-15
1.27495e-15
1.278e-15
1.28097e-15
1.28385e-15
1.28663e-15
1.28931e-15
1.29187e-15
1.29433e-15
1.29667e-15
1.29889e-15
1.30099e-15
1.30297e-15
1.30482e-15
1.30654e-15
1.30812e-15
1.30956e-15
1.31085e-15
1.312e-15
1.31299e-15
1.31384e-15
1.31454e-15
1.3151e-15
1.31552e-15
1.3158e-15
1.31596e-15
1.31598e-15
1.31586e-15
1.31561e-15
1.31522e-15
1.31468e-15
1.31401e-15
1.31319e-15
1.31222e-15
1.31111e-15
1.30985e-15
1.30844e-15
1.30689e-15
1.3052e-15
1.30337e-15
1.30141e-15
1.29932e-15
1.29711e-15
1.29477e-15
1.2923e-15
1.28971e-15
1.287e-15
1.2842e-15
1.28131e-15
1.27835e-15
1.27533e-15
1.26718e-15
1.27023e-15
1.27321e-15
1.27609e-15
1.27888e-15
1.28156e-15
1.28413e-15
1.2866e-15
1.28895e-15
1.29118e-15
1.29329e-15
1.29528e-15
1.29713e-15
1.29886e-15
1.30044e-15
1.30189e-15
1.30318e-15
1.30433e-15
1.30534e-15
1.30619e-15
1.30689e-15
1.30746e-15
1.30788e-15
1.30817e-15
1.30833e-15
1.30835e-15
1.30823e-15
1.30797e-15
1.30758e-15
1.30704e-15
1.30636e-15
1.30553e-15
1.30456e-15
1.30344e-15
1.30217e-15
1.30076e-15
1.2992e-15
1.2975e-15
1.29567e-15
1.2937e-15
1.29161e-15
1.28938e-15
1.28703e-15
1.28455e-15
1.28195e-15
1.27923e-15
1.27643e-15
1.27353e-15
1.27057e-15
1.26755e-15
1.25937e-15
1.26241e-15
1.26539e-15
1.26828e-15
1.27107e-15
1.27376e-15
1.27634e-15
1.27882e-15
1.28118e-15
1.28342e-15
1.28553e-15
1.28753e-15
1.28939e-15
1.29112e-15
1.29271e-15
1.29416e-15
1.29547e-15
1.29662e-15
1.29763e-15
1.29849e-15
1.2992e-15
1.29977e-15
1.3002e-15
1.30049e-15
1.30064e-15
1.30066e-15
1.30054e-15
1.30028e-15
1.29988e-15
1.29934e-15
1.29865e-15
1.29782e-15
1.29684e-15
1.29572e-15
1.29444e-15
1.29302e-15
1.29146e-15
1.28975e-15
1.28791e-15
1.28594e-15
1.28384e-15
1.2816e-15
1.27924e-15
1.27675e-15
1.27414e-15
1.27141e-15
1.2686e-15
1.26571e-15
1.26275e-15
1.25972e-15
1.2515e-15
1.25455e-15
1.25752e-15
1.26041e-15
1.26321e-15
1.26591e-15
1.2685e-15
1.27098e-15
1.27335e-15
1.2756e-15
1.27773e-15
1.27973e-15
1.2816e-15
1.28333e-15
1.28493e-15
1.28639e-15
1.2877e-15
1.28886e-15
1.28987e-15
1.29074e-15
1.29145e-15
1.29203e-15
1.29246e-15
1.29275e-15
1.29291e-15
1.29293e-15
1.2928e-15
1.29254e-15
1.29214e-15
1.29159e-15
1.2909e-15
1.29006e-15
1.28908e-15
1.28794e-15
1.28666e-15
1.28524e-15
1.28367e-15
1.28196e-15
1.28011e-15
1.27812e-15
1.27601e-15
1.27377e-15
1.2714e-15
1.2689e-15
1.26628e-15
1.26355e-15
1.26073e-15
1.25784e-15
1.25488e-15
1.25185e-15
1.24359e-15
1.24663e-15
1.24961e-15
1.2525e-15
1.25531e-15
1.25801e-15
1.26061e-15
1.2631e-15
1.26548e-15
1.26773e-15
1.26987e-15
1.27187e-15
1.27375e-15
1.27549e-15
1.2771e-15
1.27856e-15
1.27987e-15
1.28104e-15
1.28206e-15
1.28293e-15
1.28366e-15
1.28423e-15
1.28467e-15
1.28497e-15
1.28512e-15
1.28514e-15
1.28501e-15
1.28475e-15
1.28434e-15
1.28379e-15
1.28309e-15
1.28225e-15
1.28126e-15
1.28012e-15
1.27883e-15
1.2774e-15
1.27582e-15
1.27411e-15
1.27225e-15
1.27026e-15
1.26814e-15
1.26589e-15
1.26351e-15
1.261e-15
1.25837e-15
1.25564e-15
1.25282e-15
1.24993e-15
1.24697e-15
1.24392e-15
1.23563e-15
1.23867e-15
1.24164e-15
1.24454e-15
1.24735e-15
1.25006e-15
1.25267e-15
1.25517e-15
1.25755e-15
1.25982e-15
1.26196e-15
1.26397e-15
1.26586e-15
1.2676e-15
1.26921e-15
1.27068e-15
1.272e-15
1.27318e-15
1.2742e-15
1.27508e-15
1.27581e-15
1.27639e-15
1.27683e-15
1.27713e-15
1.27728e-15
1.2773e-15
1.27717e-15
1.27691e-15
1.2765e-15
1.27594e-15
1.27524e-15
1.27439e-15
1.27339e-15
1.27224e-15
1.27095e-15
1.26951e-15
1.26793e-15
1.2662e-15
1.26434e-15
1.26235e-15
1.26022e-15
1.25796e-15
1.25557e-15
1.25306e-15
1.25042e-15
1.24768e-15
1.24487e-15
1.24198e-15
1.23901e-15
1.23595e-15
1.22763e-15
1.23067e-15
1.23364e-15
1.23654e-15
1.23935e-15
1.24207e-15
1.24468e-15
1.24719e-15
1.24958e-15
1.25185e-15
1.254e-15
1.25602e-15
1.25791e-15
1.25967e-15
1.26128e-15
1.26275e-15
1.26408e-15
1.26526e-15
1.26629e-15
1.26717e-15
1.26791e-15
1.2685e-15
1.26894e-15
1.26924e-15
1.2694e-15
1.26941e-15
1.26928e-15
1.26901e-15
1.2686e-15
1.26804e-15
1.26733e-15
1.26648e-15
1.26547e-15
1.26432e-15
1.26302e-15
1.26158e-15
1.25999e-15
1.25826e-15
1.25639e-15
1.25438e-15
1.25225e-15
1.24999e-15
1.24759e-15
1.24507e-15
1.24242e-15
1.23969e-15
1.23688e-15
1.23399e-15
1.23101e-15
1.22791e-15
1.21959e-15
1.22262e-15
1.22559e-15
1.22849e-15
1.2313e-15
1.23403e-15
1.23665e-15
1.23916e-15
1.24156e-15
1.24384e-15
1.24599e-15
1.24802e-15
1.24992e-15
1.25168e-15
1.2533e-15
1.25478e-15
1.25611e-15
1.2573e-15
1.25833e-15
1.25922e-15
1.25996e-15
1.26055e-15
1.261e-15
1.2613e-15
1.26146e-15
1.26147e-15
1.26134e-15
1.26107e-15
1.26065e-15
1.26009e-15
1.25938e-15
1.25852e-15
1.25751e-15
1.25635e-15
1.25505e-15
1.25359e-15
1.252e-15
1.25026e-15
1.24838e-15
1.24637e-15
1.24423e-15
1.24196e-15
1.23956e-15
1.23703e-15
1.23439e-15
1.23165e-15
1.22884e-15
1.22595e-15
1.22295e-15
1.21981e-15
1.21151e-15
1.21453e-15
1.2175e-15
1.2204e-15
1.22322e-15
1.22594e-15
1.22857e-15
1.23109e-15
1.2335e-15
1.23578e-15
1.23795e-15
1.23998e-15
1.24188e-15
1.24365e-15
1.24528e-15
1.24676e-15
1.2481e-15
1.24929e-15
1.25033e-15
1.25122e-15
1.25196e-15
1.25256e-15
1.25301e-15
1.25331e-15
1.25347e-15
1.25349e-15
1.25336e-15
1.25308e-15
1.25266e-15
1.25209e-15
1.25137e-15
1.25051e-15
1.24949e-15
1.24833e-15
1.24702e-15
1.24557e-15
1.24396e-15
1.24222e-15
1.24034e-15
1.23832e-15
1.23617e-15
1.2339e-15
1.23149e-15
1.22896e-15
1.22631e-15
1.22357e-15
1.22076e-15
1.21785e-15
1.21482e-15
1.21164e-15
1.20339e-15
1.2064e-15
1.20937e-15
1.21227e-15
1.21509e-15
1.21782e-15
1.22045e-15
1.22298e-15
1.22539e-15
1.22768e-15
1.22985e-15
1.23189e-15
1.2338e-15
1.23557e-15
1.23721e-15
1.23869e-15
1.24004e-15
1.24123e-15
1.24228e-15
1.24318e-15
1.24392e-15
1.24452e-15
1.24498e-15
1.24528e-15
1.24544e-15
1.24545e-15
1.24532e-15
1.24505e-15
1.24462e-15
1.24405e-15
1.24333e-15
1.24246e-15
1.24144e-15
1.24027e-15
1.23896e-15
1.23749e-15
1.23589e-15
1.23414e-15
1.23225e-15
1.23023e-15
1.22807e-15
1.22579e-15
1.22338e-15
1.22085e-15
1.2182e-15
1.21545e-15
1.21263e-15
1.2097e-15
1.20662e-15
1.20338e-15
1.19522e-15
1.19823e-15
1.20119e-15
1.20409e-15
1.20692e-15
1.20965e-15
1.21229e-15
1.21482e-15
1.21724e-15
1.21954e-15
1.22172e-15
1.22377e-15
1.22568e-15
1.22746e-15
1.2291e-15
1.23059e-15
1.23194e-15
1.23314e-15
1.23419e-15
1.23509e-15
1.23584e-15
1.23644e-15
1.2369e-15
1.23721e-15
1.23737e-15
1.23738e-15
1.23725e-15
1.23697e-15
1.23654e-15
1.23596e-15
1.23524e-15
1.23436e-15
1.23334e-15
1.23217e-15
1.23085e-15
1.22938e-15
1.22777e-15
1.22601e-15
1.22412e-15
1.22209e-15
1.21993e-15
1.21765e-15
1.21523e-15
1.21269e-15
1.21004e-15
1.20728e-15
1.20444e-15
1.20146e-15
1.19833e-15
1.19502e-15
1.18701e-15
1.19001e-15
1.19297e-15
1.19588e-15
1.1987e-15
1.20145e-15
1.20409e-15
1.20663e-15
1.20906e-15
1.21136e-15
1.21355e-15
1.2156e-15
1.21752e-15
1.2193e-15
1.22095e-15
1.22245e-15
1.2238e-15
1.225e-15
1.22606e-15
1.22696e-15
1.22772e-15
1.22833e-15
1.22878e-15
1.22909e-15
1.22925e-15
1.22927e-15
1.22913e-15
1.22885e-15
1.22842e-15
1.22784e-15
1.22711e-15
1.22623e-15
1.2252e-15
1.22403e-15
1.2227e-15
1.22123e-15
1.21961e-15
1.21785e-15
1.21595e-15
1.21392e-15
1.21175e-15
1.20946e-15
1.20704e-15
1.2045e-15
1.20183e-15
1.19905e-15
1.19617e-15
1.19314e-15
1.18994e-15
1.18656e-15
1.17875e-15
1.18175e-15
1.18471e-15
1.18761e-15
1.19045e-15
1.19319e-15
1.19585e-15
1.19839e-15
1.20083e-15
1.20314e-15
1.20533e-15
1.20739e-15
1.20932e-15
1.21111e-15
1.21276e-15
1.21426e-15
1.21562e-15
1.21683e-15
1.21789e-15
1.2188e-15
1.21956e-15
1.22017e-15
1.22063e-15
1.22094e-15
1.2211e-15
1.22111e-15
1.22098e-15
1.22069e-15
1.22026e-15
1.21968e-15
1.21894e-15
1.21806e-15
1.21703e-15
1.21584e-15
1.21452e-15
1.21304e-15
1.21141e-15
1.20965e-15
1.20774e-15
1.2057e-15
1.20353e-15
1.20124e-15
1.19881e-15
1.19625e-15
1.19356e-15
1.19075e-15
1.18781e-15
1.1847e-15
1.18142e-15
1.17799e-15
1.17043e-15
1.17342e-15
1.17639e-15
1.1793e-15
1.18214e-15
1.1849e-15
1.18756e-15
1.19011e-15
1.19256e-15
1.19488e-15
1.19708e-15
1.19915e-15
1.20108e-15
1.20288e-15
1.20454e-15
1.20605e-15
1.20741e-15
1.20862e-15
1.20969e-15
1.2106e-15
1.21136e-15
1.21198e-15
1.21244e-15
1.21275e-15
1.21291e-15
1.21292e-15
1.21279e-15
1.2125e-15
1.21207e-15
1.21148e-15
1.21074e-15
1.20985e-15
1.20881e-15
1.20763e-15
1.20629e-15
1.20481e-15
1.20318e-15
1.2014e-15
1.19949e-15
1.19744e-15
1.19526e-15
1.19296e-15
1.19053e-15
1.18796e-15
1.18524e-15
1.18235e-15
1.17933e-15
1.17614e-15
1.17279e-15
1.16933e-15
1.16205e-15
1.16504e-15
1.16801e-15
1.17092e-15
1.17378e-15
1.17654e-15
1.17922e-15
1.18178e-15
1.18424e-15
1.18657e-15
1.18878e-15
1.19086e-15
1.19281e-15
1.19461e-15
1.19627e-15
1.19779e-15
1.19916e-15
1.20038e-15
1.20145e-15
1.20236e-15
1.20313e-15
1.20375e-15
1.20421e-15
1.20452e-15
1.20469e-15
1.2047e-15
1.20456e-15
1.20427e-15
1.20383e-15
1.20324e-15
1.2025e-15
1.20161e-15
1.20056e-15
1.19937e-15
1.19803e-15
1.19654e-15
1.1949e-15
1.19311e-15
1.19119e-15
1.18914e-15
1.18695e-15
1.18464e-15
1.18219e-15
1.1796e-15
1.17683e-15
1.17385e-15
1.17073e-15
1.16745e-15
1.16404e-15
1.16059e-15
1.1536e-15
1.15659e-15
1.15956e-15
1.16249e-15
1.16535e-15
1.16813e-15
1.17082e-15
1.1734e-15
1.17587e-15
1.17821e-15
1.18043e-15
1.18252e-15
1.18448e-15
1.1863e-15
1.18797e-15
1.1895e-15
1.19087e-15
1.1921e-15
1.19317e-15
1.19409e-15
1.19486e-15
1.19548e-15
1.19594e-15
1.19626e-15
1.19642e-15
1.19643e-15
1.1963e-15
1.19601e-15
1.19556e-15
1.19497e-15
1.19422e-15
1.19332e-15
1.19227e-15
1.19107e-15
1.18972e-15
1.18822e-15
1.18657e-15
1.18478e-15
1.18284e-15
1.18078e-15
1.17858e-15
1.17626e-15
1.17379e-15
1.17117e-15
1.16834e-15
1.16523e-15
1.162e-15
1.15864e-15
1.15521e-15
1.15182e-15
1.14508e-15
1.14807e-15
1.15105e-15
1.15399e-15
1.15686e-15
1.15965e-15
1.16235e-15
1.16495e-15
1.16743e-15
1.16979e-15
1.17203e-15
1.17413e-15
1.1761e-15
1.17793e-15
1.17961e-15
1.18115e-15
1.18253e-15
1.18376e-15
1.18484e-15
1.18577e-15
1.18654e-15
1.18716e-15
1.18763e-15
1.18795e-15
1.18811e-15
1.18813e-15
1.18799e-15
1.18769e-15
1.18725e-15
1.18665e-15
1.1859e-15
1.18499e-15
1.18393e-15
1.18272e-15
1.18136e-15
1.17985e-15
1.17819e-15
1.17638e-15
1.17444e-15
1.17236e-15
1.17015e-15
1.16781e-15
1.16533e-15
1.16267e-15
1.15976e-15
1.15649e-15
1.15315e-15
1.14974e-15
1.14632e-15
1.1365e-15
1.13949e-15
1.14247e-15
1.14541e-15
1.1483e-15
1.1511e-15
1.15382e-15
1.15643e-15
1.15893e-15
1.16131e-15
1.16356e-15
1.16567e-15
1.16766e-15
1.1695e-15
1.1712e-15
1.17275e-15
1.17414e-15
1.17538e-15
1.17646e-15
1.17739e-15
1.17817e-15
1.1788e-15
1.17927e-15
1.17959e-15
1.17975e-15
1.17977e-15
1.17962e-15
1.17933e-15
1.17888e-15
1.17828e-15
1.17752e-15
1.1766e-15
1.17553e-15
1.17431e-15
1.17294e-15
1.17142e-15
1.16975e-15
1.16793e-15
1.16597e-15
1.16388e-15
1.16165e-15
1.15929e-15
1.15678e-15
1.15408e-15
1.15108e-15
1.14763e-15
1.1442e-15
1.14078e-15
1.12787e-15
1.13085e-15
1.13383e-15
1.13677e-15
1.13967e-15
1.14249e-15
1.14522e-15
1.14784e-15
1.15036e-15
1.15275e-15
1.15502e-15
1.15715e-15
1.15914e-15
1.161e-15
1.16271e-15
1.16427e-15
1.16568e-15
1.16692e-15
1.16801e-15
1.16895e-15
1.16974e-15
1.17037e-15
1.17084e-15
1.17116e-15
1.17133e-15
1.17134e-15
1.1712e-15
1.1709e-15
1.17045e-15
1.16984e-15
1.16907e-15
1.16815e-15
1.16707e-15
1.16584e-15
1.16446e-15
1.16292e-15
1.16124e-15
1.15941e-15
1.15743e-15
1.15532e-15
1.15308e-15
1.1507e-15
1.14816e-15
1.1454e-15
1.14231e-15
1.13867e-15
1.1352e-15
1.11921e-15
1.12217e-15
1.12514e-15
1.12808e-15
1.13098e-15
1.13381e-15
1.13655e-15
1.13919e-15
1.14171e-15
1.14412e-15
1.1464e-15
1.14854e-15
1.15055e-15
1.15242e-15
1.15414e-15
1.15572e-15
1.15713e-15
1.15839e-15
1.15949e-15
1.16044e-15
1.16123e-15
1.16186e-15
1.16234e-15
1.16267e-15
1.16284e-15
1.16285e-15
1.1627e-15
1.1624e-15
1.16194e-15
1.16133e-15
1.16055e-15
1.15962e-15
1.15854e-15
1.15729e-15
1.1559e-15
1.15435e-15
1.15265e-15
1.15081e-15
1.14882e-15
1.1467e-15
1.14444e-15
1.14204e-15
1.13946e-15
1.13665e-15
1.13345e-15
1.12968e-15
1.11055e-15
1.11348e-15
1.11643e-15
1.11936e-15
1.12225e-15
1.12508e-15
1.12782e-15
1.13047e-15
1.133e-15
1.13542e-15
1.13771e-15
1.13986e-15
1.14188e-15
1.14376e-15
1.14549e-15
1.14707e-15
1.1485e-15
1.14977e-15
1.15088e-15
1.15184e-15
1.15263e-15
1.15328e-15
1.15376e-15
1.15409e-15
1.15426e-15
1.15427e-15
1.15412e-15
1.15382e-15
1.15335e-15
1.15273e-15
1.15195e-15
1.15102e-15
1.14992e-15
1.14867e-15
1.14726e-15
1.1457e-15
1.144e-15
1.14214e-15
1.14014e-15
1.13801e-15
1.13573e-15
1.13331e-15
1.1307e-15
1.12783e-15
1.12454e-15
1.10193e-15
1.10482e-15
1.10773e-15
1.11064e-15
1.11351e-15
1.11633e-15
1.11907e-15
1.12171e-15
1.12424e-15
1.12666e-15
1.12896e-15
1.13112e-15
1.13314e-15
1.13502e-15
1.13675e-15
1.13833e-15
1.13977e-15
1.14105e-15
1.14218e-15
1.14315e-15
1.14395e-15
1.1446e-15
1.14509e-15
1.14542e-15
1.14559e-15
1.1456e-15
1.14545e-15
1.14514e-15
1.14468e-15
1.14405e-15
1.14327e-15
1.14232e-15
1.14122e-15
1.13996e-15
1.13855e-15
1.13699e-15
1.13528e-15
1.13341e-15
1.13141e-15
1.12926e-15
1.12698e-15
1.12455e-15
1.12191e-15
1.11899e-15
1.1156e-15
1.0934e-15
1.09623e-15
1.09909e-15
1.10196e-15
1.1048e-15
1.10759e-15
1.11031e-15
1.11294e-15
1.11546e-15
1.11788e-15
1.12016e-15
1.12232e-15
1.12434e-15
1.12621e-15
1.12793e-15
1.12951e-15
1.13096e-15
1.13225e-15
1.1334e-15
1.13437e-15
1.13519e-15
1.13584e-15
1.13633e-15
1.13666e-15
1.13683e-15
1.13684e-15
1.13669e-15
1.13638e-15
1.13591e-15
1.13528e-15
1.13449e-15
1.13355e-15
1.13244e-15
1.13118e-15
1.12978e-15
1.12822e-15
1.12651e-15
1.12464e-15
1.12264e-15
1.12049e-15
1.11821e-15
1.11577e-15
1.11312e-15
1.11015e-15
1.10668e-15
1.085e-15
1.08775e-15
1.09055e-15
1.09337e-15
1.09616e-15
1.09891e-15
1.1016e-15
1.1042e-15
1.1067e-15
1.10909e-15
1.11137e-15
1.11351e-15
1.11551e-15
1.11737e-15
1.11906e-15
1.12063e-15
1.12207e-15
1.12338e-15
1.12455e-15
1.12553e-15
1.12635e-15
1.127e-15
1.1275e-15
1.12783e-15
1.128e-15
1.12801e-15
1.12786e-15
1.12755e-15
1.12708e-15
1.12645e-15
1.12566e-15
1.12471e-15
1.12361e-15
1.12236e-15
1.12097e-15
1.11942e-15
1.11772e-15
1.11587e-15
1.11387e-15
1.11173e-15
1.10946e-15
1.10704e-15
1.10438e-15
1.10139e-15
1.09784e-15
1.07674e-15
1.07942e-15
1.08215e-15
1.0849e-15
1.08763e-15
1.09033e-15
1.09297e-15
1.09553e-15
1.098e-15
1.10036e-15
1.1026e-15
1.10472e-15
1.1067e-15
1.10853e-15
1.11017e-15
1.11173e-15
1.11316e-15
1.11447e-15
1.11566e-15
1.11666e-15
1.11748e-15
1.11813e-15
1.11862e-15
1.11895e-15
1.11912e-15
1.11913e-15
1.11898e-15
1.11867e-15
1.11821e-15
1.11758e-15
1.11679e-15
1.11585e-15
1.11475e-15
1.11352e-15
1.11217e-15
1.11064e-15
1.10896e-15
1.10712e-15
1.10514e-15
1.10303e-15
1.10078e-15
1.09839e-15
1.09575e-15
1.09274e-15
1.08914e-15
1.06864e-15
1.07124e-15
1.07389e-15
1.07657e-15
1.07925e-15
1.08189e-15
1.08447e-15
1.08698e-15
1.0894e-15
1.09172e-15
1.09393e-15
1.09601e-15
1.09795e-15
1.09974e-15
1.10133e-15
1.10286e-15
1.10428e-15
1.10558e-15
1.1068e-15
1.10779e-15
1.10861e-15
1.10926e-15
1.10975e-15
1.11008e-15
1.11025e-15
1.11026e-15
1.11011e-15
1.1098e-15
1.10934e-15
1.10871e-15
1.10793e-15
1.107e-15
1.10593e-15
1.10472e-15
1.10341e-15
1.10192e-15
1.10026e-15
1.09845e-15
1.09651e-15
1.09443e-15
1.09222e-15
1.08988e-15
1.08726e-15
1.08426e-15
1.08063e-15
1.06065e-15
1.06319e-15
1.06578e-15
1.0684e-15
1.07101e-15
1.0736e-15
1.07612e-15
1.07858e-15
1.08095e-15
1.08322e-15
1.08538e-15
1.08742e-15
1.08933e-15
1.09107e-15
1.0926e-15
1.09409e-15
1.09548e-15
1.09678e-15
1.09801e-15
1.099e-15
1.09981e-15
1.10046e-15
1.10094e-15
1.10126e-15
1.10143e-15
1.10144e-15
1.10129e-15
1.10099e-15
1.10053e-15
1.09992e-15
1.09915e-15
1.09824e-15
1.09718e-15
1.09601e-15
1.09476e-15
1.09331e-15
1.09169e-15
1.08991e-15
1.088e-15
1.08596e-15
1.0838e-15
1.08152e-15
1.07894e-15
1.07598e-15
1.07237e-15
1.05268e-15
1.0552e-15
1.05776e-15
1.06034e-15
1.06291e-15
1.06544e-15
1.06793e-15
1.07034e-15
1.07266e-15
1.07489e-15
1.07701e-15
1.079e-15
1.08086e-15
1.08256e-15
1.08403e-15
1.08549e-15
1.08686e-15
1.08813e-15
1.08936e-15
1.09034e-15
1.09115e-15
1.09178e-15
1.09226e-15
1.09257e-15
1.09274e-15
1.09275e-15
1.09261e-15
1.09231e-15
1.09186e-15
1.09126e-15
1.0905e-15
1.08961e-15
1.08858e-15
1.08744e-15
1.08626e-15
1.08485e-15
1.08326e-15
1.08153e-15
1.07966e-15
1.07766e-15
1.07555e-15
1.07334e-15
1.0708e-15
1.06787e-15
1.0446e-15
1.04714e-15
1.04971e-15
1.05229e-15
1.05485e-15
1.05737e-15
1.05984e-15
1.06222e-15
1.06452e-15
1.06671e-15
1.06879e-15
1.07075e-15
1.07258e-15
1.07425e-15
1.07569e-15
1.07712e-15
1.07846e-15
1.0797e-15
1.08091e-15
1.08188e-15
1.08267e-15
1.08329e-15
1.08376e-15
1.08407e-15
1.08424e-15
1.08425e-15
1.08411e-15
1.08381e-15
1.08337e-15
1.08278e-15
1.08205e-15
1.08117e-15
1.08017e-15
1.07906e-15
1.07794e-15
1.07656e-15
1.07501e-15
1.07331e-15
1.07148e-15
1.06952e-15
1.06744e-15
1.06529e-15
1.06278e-15
1.0599e-15
1.03618e-15
1.03882e-15
1.04147e-15
1.04411e-15
1.04672e-15
1.04928e-15
1.05176e-15
1.05415e-15