/*--------------------------------*- C++ -*----------------------------------*\
  =========                 |
  \\      /  F ield         | OpenFOAM: The Open Source CFD Toolbox
   \\    /   O peration     | Website:  https://openfoam.org
    \\  /    A nd           | Version:  7
     \\/     M anipulation  |
\*---------------------------------------------------------------------------*/
FoamFile
{
    version     2.0;
    format      ascii;
    class       volScalarField;
    location    "224000";
    object      p;
}
// * * * * * * * * * * * * * * * * * * * * * * * * * * * * * * * * * * * * * //

dimensions      [0 2 -2 0 0 0 0];

internalField   nonuniform List<scalar> 
4825
(
-1.86989e-18
-1.86397e-18
-1.86663e-18
-1.86217e-18
-1.87434e-18
-1.86509e-18
-1.88777e-18
-1.86779e-18
-1.85788e-18
-1.87594e-18
-1.8587e-18
-1.885e-18
-1.86577e-18
-1.86089e-18
-1.86929e-18
-1.85722e-18
-1.8786e-18
-1.87462e-18
-1.87664e-18
-1.87283e-18
-1.86393e-18
-1.88271e-18
-1.88666e-18
-1.86992e-18
-1.886e-18
-1.86909e-18
-1.88734e-18
-1.87619e-18
-1.85969e-18
-1.87521e-18
-1.86838e-18
-1.88717e-18
-1.86835e-18
-1.85847e-18
-1.87421e-18
-1.86315e-18
-1.88853e-18
-1.86839e-18
-1.84978e-18
-1.87664e-18
-1.85751e-18
-1.88425e-18
-1.87869e-18
-1.84567e-18
-1.87709e-18
-1.86248e-18
-1.87958e-18
-1.88402e-18
-1.85475e-18
-1.86916e-18
-1.8615e-18
-1.88285e-18
-1.87776e-18
-1.86514e-18
-1.8778e-18
-1.86558e-18
-1.88353e-18
-1.87148e-18
-1.87312e-18
-1.88132e-18
-1.86636e-18
-1.88115e-18
-1.87769e-18
-1.86812e-18
-1.87982e-18
-1.86441e-18
-1.873e-18
-1.86531e-18
-1.87677e-18
-1.86533e-18
-1.87682e-18
-1.85683e-18
-1.87676e-18
-1.85984e-18
-1.8697e-18
-1.86258e-18
-1.87258e-18
-1.87533e-18
-1.86628e-18
-1.87875e-18
-1.86669e-18
-1.86708e-18
-1.87022e-18
-1.86775e-18
-1.87375e-18
-1.87043e-18
-1.87232e-18
-1.87461e-18
-1.86114e-18
-1.86915e-18
-1.87265e-18
-1.83743e-18
-1.83618e-18
-1.83929e-18
-1.8234e-18
-1.8581e-18
-1.84087e-18
-1.83429e-18
-1.82867e-18
-1.82501e-18
-1.82639e-18
-1.83159e-18
-1.83221e-18
-1.83465e-18
-1.81595e-18
-1.81864e-18
-1.79645e-18
-1.8283e-18
-1.80662e-18
-1.81928e-18
-1.79871e-18
-1.83047e-18
-1.8289e-18
-1.83721e-18
-1.83559e-18
-1.85008e-18
-1.83768e-18
-1.83944e-18
-1.82946e-18
-1.82045e-18
-1.82607e-18
-1.82888e-18
-1.83049e-18
-1.83088e-18
-1.81381e-18
-1.82642e-18
-1.81109e-18
-1.83013e-18
-1.81427e-18
-1.8289e-18
-1.7987e-18
-1.83689e-18
-1.84198e-18
-1.84225e-18
-1.83622e-18
-1.85125e-18
-1.84373e-18
-1.84488e-18
-1.83024e-18
-1.82801e-18
-1.82584e-18
-1.82627e-18
-1.82047e-18
-1.82208e-18
-1.81776e-18
-1.82794e-18
-1.82166e-18
-1.83024e-18
-1.81383e-18
-1.82997e-18
-1.80586e-18
-1.84683e-18
-1.84426e-18
-1.84068e-18
-1.83903e-18
-1.83944e-18
-1.84126e-18
-1.84113e-18
-1.83471e-18
-1.83822e-18
-1.82423e-18
-1.82113e-18
-1.82414e-18
-1.8232e-18
-1.81983e-18
-1.83545e-18
-1.82197e-18
-1.83249e-18
-1.8138e-18
-1.82669e-18
-1.80774e-18
-1.84773e-18
-1.83595e-18
-1.83773e-18
-1.83644e-18
-1.83984e-18
-1.84156e-18
-1.83626e-18
-1.82666e-18
-1.84201e-18
-1.82372e-18
-1.82402e-18
-1.82379e-18
-1.82981e-18
-1.82405e-18
-1.83553e-18
-1.82567e-18
-1.83556e-18
-1.81149e-18
-1.82438e-18
-1.80744e-18
-1.84409e-18
-1.83927e-18
-1.8257e-18
-1.82711e-18
-1.84024e-18
-1.84342e-18
-1.82496e-18
-1.82865e-18
-1.84527e-18
-1.83341e-18
-1.82289e-18
-1.82194e-18
-1.82459e-18
-1.82238e-18
-1.82947e-18
-1.82339e-18
-1.8355e-18
-1.80817e-18
-1.82294e-18
-1.81459e-18
-1.84727e-18
-1.835e-18
-1.83163e-18
-1.83972e-18
-1.83834e-18
-1.83276e-18
-1.82893e-18
-1.83027e-18
-1.83868e-18
-1.83107e-18
-1.8255e-18
-1.82135e-18
-1.82749e-18
-1.82976e-18
-1.84244e-18
-1.8233e-18
-1.84049e-18
-1.81574e-18
-1.82215e-18
-1.81196e-18
-1.84074e-18
-1.85225e-18
-1.827e-18
-1.83443e-18
-1.84434e-18
-1.83378e-18
-1.83399e-18
-1.83045e-18
-1.83519e-18
-1.82738e-18
-1.83192e-18
-1.83095e-18
-1.82394e-18
-1.83414e-18
-1.84035e-18
-1.82491e-18
-1.82683e-18
-1.81713e-18
-1.83101e-18
-1.81165e-18
-1.80507e-18
-1.80256e-18
-1.80055e-18
-1.81204e-18
-1.82204e-18
-1.81036e-18
-1.80385e-18
-1.82543e-18
-1.80909e-18
-1.82221e-18
-1.81814e-18
-1.84052e-18
-1.84e-18
-1.8323e-18
-1.84585e-18
-1.82901e-18
-1.84359e-18
-1.81924e-18
-1.83166e-18
-1.83804e-18
-1.83068e-18
-1.85435e-18
-1.83176e-18
-1.83845e-18
-1.82216e-18
-1.83064e-18
-1.84058e-18
-1.82905e-18
-1.82955e-18
-1.83755e-18
-1.82866e-18
-1.81882e-18
-1.8166e-18
-1.83541e-18
-1.81362e-18
-1.80708e-18
-1.80872e-18
-1.80594e-18
-1.80492e-18
-1.81604e-18
-1.80757e-18
-1.81085e-18
-1.82324e-18
-1.81332e-18
-1.81909e-18
-1.82367e-18
-1.83959e-18
-1.8442e-18
-1.835e-18
-1.84261e-18
-1.83978e-18
-1.83878e-18
-1.8426e-18
-1.84459e-18
-1.82199e-18
-1.83029e-18
-1.84208e-18
-1.84943e-18
-1.86044e-18
-1.8299e-18
-1.85482e-18
-1.82025e-18
-1.83189e-18
-1.82649e-18
-1.82999e-18
-1.82867e-18
-1.8339e-18
-1.82727e-18
-1.82861e-18
-1.81556e-18
-1.82411e-18
-1.81647e-18
-1.8127e-18
-1.80721e-18
-1.80865e-18
-1.80656e-18
-1.81575e-18
-1.81478e-18
-1.81368e-18
-1.82162e-18
-1.81454e-18
-1.82372e-18
-1.82501e-18
-1.8351e-18
-1.84355e-18
-1.82832e-18
-1.84861e-18
-1.8429e-18
-1.83381e-18
-1.83445e-18
-1.8425e-18
-1.84489e-18
-1.82656e-18
-1.82638e-18
-1.86093e-18
-1.837e-18
-1.85377e-18
-1.82185e-18
-1.84864e-18
-1.81982e-18
-1.84726e-18
-1.8224e-18
-1.83729e-18
-1.82516e-18
-1.82807e-18
-1.82068e-18
-1.82853e-18
-1.81782e-18
-1.82092e-18
-1.82044e-18
-1.80818e-18
-1.80428e-18
-1.81141e-18
-1.80791e-18
-1.81696e-18
-1.81431e-18
-1.81498e-18
-1.82419e-18
-1.81661e-18
-1.82848e-18
-1.82484e-18
-1.83071e-18
-1.8397e-18
-1.83853e-18
-1.84632e-18
-1.84478e-18
-1.83496e-18
-1.8355e-18
-1.83072e-18
-1.83506e-18
-1.83879e-18
-1.84071e-18
-1.83315e-18
-1.82667e-18
-1.8552e-18
-1.83372e-18
-1.847e-18
-1.8151e-18
-1.84983e-18
-1.82431e-18
-1.84016e-18
-1.82119e-18
-1.8451e-18
-1.81889e-18
-1.83123e-18
-1.825e-18
-1.82886e-18
-1.82471e-18
-1.82533e-18
-1.81716e-18
-1.80352e-18
-1.80612e-18
-1.80812e-18
-1.8077e-18
-1.81843e-18
-1.8125e-18
-1.81732e-18
-1.8196e-18
-1.81571e-18
-1.82479e-18
-1.83318e-18
-1.83626e-18
-1.83239e-18
-1.84343e-18
-1.83929e-18
-1.84187e-18
-1.83585e-18
-1.8317e-18
-1.82795e-18
-1.83706e-18
-1.86081e-18
-1.838e-18
-1.84571e-18
-1.83201e-18
-1.83603e-18
-1.82276e-18
-1.84455e-18
-1.82856e-18
-1.84964e-18
-1.83003e-18
-1.8462e-18
-1.8206e-18
-1.84363e-18
-1.81666e-18
-1.83558e-18
-1.81799e-18
-1.84208e-18
-1.83273e-18
-1.83305e-18
-1.82159e-18
-1.82005e-18
-1.8165e-18
-1.80471e-18
-1.81042e-18
-1.8037e-18
-1.80847e-18
-1.82148e-18
-1.81048e-18
-1.81968e-18
-1.81645e-18
-1.82192e-18
-1.82362e-18
-1.82553e-18
-1.83943e-18
-1.83836e-18
-1.84492e-18
-1.83588e-18
-1.83674e-18
-1.8367e-18
-1.83281e-18
-1.82495e-18
-1.83509e-18
-1.86187e-18
-1.8388e-18
-1.86933e-18
-1.85348e-18
-1.87959e-18
-1.84357e-18
-1.83719e-18
-1.84037e-18
-1.82537e-18
-1.8407e-18
-1.82509e-18
-1.85419e-18
-1.84051e-18
-1.84113e-18
-1.80878e-18
-1.83606e-18
-1.81607e-18
-1.83776e-18
-1.8331e-18
-1.83538e-18
-1.8329e-18
-1.83744e-18
-1.81709e-18
-1.82336e-18
-1.81966e-18
-1.80673e-18
-1.80763e-18
-1.80395e-18
-1.81027e-18
-1.82622e-18
-1.81778e-18
-1.81862e-18
-1.81314e-18
-1.82083e-18
-1.82246e-18
-1.82744e-18
-1.84167e-18
-1.83802e-18
-1.84792e-18
-1.84922e-18
-1.83773e-18
-1.83761e-18
-1.82436e-18
-1.82523e-18
-1.82921e-18
-1.85914e-18
-1.83254e-18
-1.86208e-18
-1.84054e-18
-1.88269e-18
-1.86646e-18
-1.87957e-18
-1.84165e-18
-1.83518e-18
-1.83686e-18
-1.83089e-18
-1.84215e-18
-1.83137e-18
-1.8407e-18
-1.84234e-18
-1.8462e-18
-1.8184e-18
-1.82714e-18
-1.82057e-18
-1.84162e-18
-1.83004e-18
-1.8396e-18
-1.82696e-18
-1.8375e-18
-1.81329e-18
-1.83522e-18
-1.81699e-18
-1.80244e-18
-1.80497e-18
-1.80879e-18
-1.81184e-18
-1.8278e-18
-1.81639e-18
-1.82011e-18
-1.8168e-18
-1.81868e-18
-1.81885e-18
-1.82913e-18
-1.83466e-18
-1.841e-18
-1.8403e-18
-1.84952e-18
-1.83965e-18
-1.8352e-18
-1.82643e-18
-1.82899e-18
-1.8288e-18
-1.85164e-18
-1.8359e-18
-1.86296e-18
-1.84887e-18
-1.87984e-18
-1.86919e-18
-1.86936e-18
-1.85614e-18
-1.88914e-18
-1.86885e-18
-1.83991e-18
-1.83193e-18
-1.83582e-18
-1.8245e-18
-1.85547e-18
-1.83262e-18
-1.84722e-18
-1.84987e-18
-1.85876e-18
-1.82957e-18
-1.82216e-18
-1.82096e-18
-1.84724e-18
-1.82896e-18
-1.83245e-18
-1.81476e-18
-1.83825e-18
-1.81925e-18
-1.83001e-18
-1.81074e-18
-1.80851e-18
-1.79877e-18
-1.81121e-18
-1.80484e-18
-1.82399e-18
-1.81352e-18
-1.81698e-18
-1.81794e-18
-1.81777e-18
-1.82336e-18
-1.82498e-18
-1.83954e-18
-1.84053e-18
-1.8432e-18
-1.85726e-18
-1.84967e-18
-1.83876e-18
-1.82943e-18
-1.83275e-18
-1.83844e-18
-1.84845e-18
-1.83259e-18
-1.8495e-18
-1.83892e-18
-1.87893e-18
-1.86591e-18
-1.86756e-18
-1.85492e-18
-1.88427e-18
-1.87006e-18
-1.83721e-18
-1.82851e-18
-1.83842e-18
-1.83219e-18
-1.84909e-18
-1.8332e-18
-1.85158e-18
-1.83775e-18
-1.85233e-18
-1.82411e-18
-1.83096e-18
-1.81507e-18
-1.8513e-18
-1.83214e-18
-1.83275e-18
-1.8182e-18
-1.83397e-18
-1.8234e-18
-1.82195e-18
-1.81357e-18
-1.81114e-18
-1.80156e-18
-1.81162e-18
-1.80327e-18
-1.82314e-18
-1.81742e-18
-1.82446e-18
-1.81674e-18
-1.82026e-18
-1.82438e-18
-1.82646e-18
-1.84112e-18
-1.84237e-18
-1.84933e-18
-1.85485e-18
-1.84918e-18
-1.8434e-18
-1.82984e-18
-1.83873e-18
-1.83405e-18
-1.85381e-18
-1.84133e-18
-1.85385e-18
-1.83621e-18
-1.86529e-18
-1.85675e-18
-1.85586e-18
-1.85303e-18
-1.87683e-18
-1.87553e-18
-1.83682e-18
-1.82371e-18
-1.83789e-18
-1.82713e-18
-1.84671e-18
-1.82983e-18
-1.8452e-18
-1.84111e-18
-1.84786e-18
-1.8215e-18
-1.82755e-18
-1.80834e-18
-1.84147e-18
-1.83148e-18
-1.83332e-18
-1.82333e-18
-1.84172e-18
-1.82159e-18
-1.81872e-18
-1.81855e-18
-1.81041e-18
-1.80856e-18
-1.81007e-18
-1.80465e-18
-1.82279e-18
-1.82449e-18
-1.8275e-18
-1.81996e-18
-1.82271e-18
-1.82427e-18
-1.83459e-18
-1.83947e-18
-1.84522e-18
-1.84164e-18
-1.85039e-18
-1.84641e-18
-1.83784e-18
-1.83098e-18
-1.83575e-18
-1.82927e-18
-1.84721e-18
-1.845e-18
-1.85641e-18
-1.8507e-18
-1.85355e-18
-1.84986e-18
-1.8656e-18
-1.8485e-18
-1.87546e-18
-1.86998e-18
-1.8344e-18
-1.82734e-18
-1.83008e-18
-1.82717e-18
-1.83943e-18
-1.8304e-18
-1.84475e-18
-1.84981e-18
-1.85183e-18
-1.82285e-18
-1.83919e-18
-1.82326e-18
-1.83478e-18
-1.82274e-18
-1.83861e-18
-1.82563e-18
-1.841e-18
-1.82176e-18
-1.82003e-18
-1.81906e-18
-1.80844e-18
-1.8063e-18
-1.80867e-18
-1.80786e-18
-1.82273e-18
-1.82917e-18
-1.825e-18
-1.81839e-18
-1.82173e-18
-1.82969e-18
-1.82794e-18
-1.83783e-18
-1.83913e-18
-1.83609e-18
-1.85074e-18
-1.84488e-18
-1.8357e-18
-1.83528e-18
-1.82513e-18
-1.82079e-18
-1.84328e-18
-1.84283e-18
-1.8559e-18
-1.85043e-18
-1.86531e-18
-1.85715e-18
-1.87903e-18
-1.84876e-18
-1.87021e-18
-1.86012e-18
-1.84162e-18
-1.84268e-18
-1.83332e-18
-1.83348e-18
-1.84239e-18
-1.8317e-18
-1.83789e-18
-1.84086e-18
-1.85185e-18
-1.81792e-18
-1.8335e-18
-1.82424e-18
-1.83525e-18
-1.82809e-18
-1.82762e-18
-1.82407e-18
-1.83866e-18
-1.81827e-18
-1.81683e-18
-1.8175e-18
-1.81532e-18
-1.80174e-18
-1.81632e-18
-1.80626e-18
-1.82283e-18
-1.82274e-18
-1.82481e-18
-1.81218e-18
-1.82404e-18
-1.82735e-18
-1.82454e-18
-1.83748e-18
-1.83991e-18
-1.85041e-18
-1.84586e-18
-1.85122e-18
-1.83789e-18
-1.83412e-18
-1.82452e-18
-1.82965e-18
-1.84197e-18
-1.83827e-18
-1.8601e-18
-1.85313e-18
-1.86635e-18
-1.85298e-18
-1.8757e-18
-1.8525e-18
-1.85576e-18
-1.85992e-18
-1.85195e-18
-1.83562e-18
-1.84598e-18
-1.83852e-18
-1.8467e-18
-1.82843e-18
-1.84199e-18
-1.83299e-18
-1.84497e-18
-1.82751e-18
-1.8283e-18
-1.81614e-18
-1.84366e-18
-1.82997e-18
-1.83221e-18
-1.82883e-18
-1.83033e-18
-1.81671e-18
-1.81032e-18
-1.81269e-18
-1.81456e-18
-1.80563e-18
-1.81764e-18
-1.80976e-18
-1.82431e-18
-1.82079e-18
-1.82377e-18
-1.81892e-18
-1.832e-18
-1.82624e-18
-1.82865e-18
-1.84172e-18
-1.83833e-18
-1.84936e-18
-1.84637e-18
-1.8446e-18
-1.84317e-18
-1.8265e-18
-1.83134e-18
-1.83828e-18
-1.83875e-18
-1.84098e-18
-1.86685e-18
-1.84578e-18
-1.87317e-18
-1.85475e-18
-1.8763e-18
-1.84298e-18
-1.86386e-18
-1.85856e-18
-1.84192e-18
-1.82618e-18
-1.83552e-18
-1.83798e-18
-1.8471e-18
-1.84065e-18
-1.85595e-18
-1.84307e-18
-1.86538e-18
-1.83348e-18
-1.83843e-18
-1.81937e-18
-1.83966e-18
-1.82834e-18
-1.83682e-18
-1.82477e-18
-1.83322e-18
-1.82051e-18
-1.81901e-18
-1.80904e-18
-1.81289e-18
-1.80475e-18
-1.81708e-18
-1.81284e-18
-1.82826e-18
-1.82312e-18
-1.82069e-18
-1.81763e-18
-1.82379e-18
-1.8283e-18
-1.83798e-18
-1.84073e-18
-1.83981e-18
-1.84638e-18
-1.84686e-18
-1.83915e-18
-1.84106e-18
-1.83053e-18
-1.83158e-18
-1.83183e-18
-1.83231e-18
-1.82295e-18
-1.8518e-18
-1.83994e-18
-1.86148e-18
-1.8538e-18
-1.87557e-18
-1.8539e-18
-1.86804e-18
-1.86612e-18
-1.83401e-18
-1.82375e-18
-1.83567e-18
-1.83004e-18
-1.84976e-18
-1.84192e-18
-1.85439e-18
-1.84197e-18
-1.85888e-18
-1.82191e-18
-1.83181e-18
-1.82623e-18
-1.83619e-18
-1.82216e-18
-1.83528e-18
-1.82472e-18
-1.8289e-18
-1.82085e-18
-1.82235e-18
-1.80737e-18
-1.81682e-18
-1.80786e-18
-1.81464e-18
-1.81557e-18
-1.82817e-18
-1.82754e-18
-1.82305e-18
-1.81728e-18
-1.82109e-18
-1.83024e-18
-1.83762e-18
-1.83765e-18
-1.83792e-18
-1.85318e-18
-1.84104e-18
-1.84111e-18
-1.83916e-18
-1.83431e-18
-1.82543e-18
-1.82864e-18
-1.83774e-18
-1.8331e-18
-1.85545e-18
-1.84314e-18
-1.85665e-18
-1.85039e-18
-1.87027e-18
-1.85486e-18
-1.87134e-18
-1.86975e-18
-1.83392e-18
-1.81494e-18
-1.83912e-18
-1.82291e-18
-1.84556e-18
-1.82638e-18
-1.84801e-18
-1.83737e-18
-1.85844e-18
-1.82965e-18
-1.83909e-18
-1.82962e-18
-1.83629e-18
-1.81777e-18
-1.83516e-18
-1.8213e-18
-1.83116e-18
-1.81576e-18
-1.82483e-18
-1.81066e-18
-1.81991e-18
-1.80432e-18
-1.81551e-18
-1.8117e-18
-1.82403e-18
-1.82451e-18
-1.8307e-18
-1.82104e-18
-1.81729e-18
-1.83005e-18
-1.83419e-18
-1.83568e-18
-1.84113e-18
-1.85184e-18
-1.85095e-18
-1.84201e-18
-1.84574e-18
-1.836e-18
-1.82862e-18
-1.83274e-18
-1.83599e-18
-1.84272e-18
-1.86263e-18
-1.84698e-18
-1.86764e-18
-1.85385e-18
-1.86861e-18
-1.85338e-18
-1.88197e-18
-1.86719e-18
-1.84452e-18
-1.81174e-18
-1.8405e-18
-1.82752e-18
-1.84198e-18
-1.82476e-18
-1.84826e-18
-1.83955e-18
-1.85867e-18
-1.83778e-18
-1.83831e-18
-1.82138e-18
-1.84399e-18
-1.82745e-18
-1.83342e-18
-1.8259e-18
-1.83481e-18
-1.81038e-18
-1.82135e-18
-1.81251e-18
-1.81705e-18
-1.80042e-18
-1.81241e-18
-1.81079e-18
-1.82222e-18
-1.82143e-18
-1.8301e-18
-1.82151e-18
-1.82376e-18
-1.83209e-18
-1.83189e-18
-1.83889e-18
-1.84213e-18
-1.84548e-18
-1.85667e-18
-1.84479e-18
-1.84723e-18
-1.83246e-18
-1.83987e-18
-1.82338e-18
-1.83834e-18
-1.8387e-18
-1.86202e-18
-1.8513e-18
-1.8718e-18
-1.85484e-18
-1.86937e-18
-1.8544e-18
-1.88494e-18
-1.85794e-18
-1.85058e-18
-1.82174e-18
-1.83344e-18
-1.82773e-18
-1.84586e-18
-1.83065e-18
-1.85497e-18
-1.83933e-18
-1.8554e-18
-1.82929e-18
-1.82659e-18
-1.82289e-18
-1.84497e-18
-1.83464e-18
-1.83497e-18
-1.822e-18
-1.83271e-18
-1.81383e-18
-1.82439e-18
-1.80898e-18
-1.81556e-18
-1.8003e-18
-1.81264e-18
-1.81074e-18
-1.82164e-18
-1.82137e-18
-1.83079e-18
-1.81871e-18
-1.82903e-18
-1.83112e-18
-1.83261e-18
-1.83593e-18
-1.84105e-18
-1.84731e-18
-1.86058e-18
-1.84426e-18
-1.84587e-18
-1.82968e-18
-1.83499e-18
-1.84015e-18
-1.84389e-18
-1.8415e-18
-1.85581e-18
-1.84913e-18
-1.87137e-18
-1.84492e-18
-1.87301e-18
-1.86178e-18
-1.87367e-18
-1.8552e-18
-1.84501e-18
-1.83307e-18
-1.84287e-18
-1.83304e-18
-1.84663e-18
-1.83844e-18
-1.85019e-18
-1.84368e-18
-1.8577e-18
-1.82961e-18
-1.83609e-18
-1.82606e-18
-1.84335e-18
-1.83553e-18
-1.83568e-18
-1.82188e-18
-1.82193e-18
-1.8209e-18
-1.82164e-18
-1.81436e-18
-1.81236e-18
-1.79776e-18
-1.81408e-18
-1.81561e-18
-1.81919e-18
-1.8181e-18
-1.83075e-18
-1.8238e-18
-1.82924e-18
-1.83221e-18
-1.83329e-18
-1.83299e-18
-1.83794e-18
-1.85106e-18
-1.84967e-18
-1.8445e-18
-1.83368e-18
-1.82966e-18
-1.82717e-18
-1.83266e-18
-1.84245e-18
-1.84404e-18
-1.85194e-18
-1.84366e-18
-1.86068e-18
-1.85075e-18
-1.86972e-18
-1.85309e-18
-1.8683e-18
-1.85635e-18
-1.83934e-18
-1.84155e-18
-1.8471e-18
-1.83464e-18
-1.84667e-18
-1.84101e-18
-1.84962e-18
-1.84037e-18
-1.85657e-18
-1.8295e-18
-1.83184e-18
-1.83477e-18
-1.8391e-18
-1.83035e-18
-1.84053e-18
-1.82159e-18
-1.8203e-18
-1.82384e-18
-1.82204e-18
-1.81357e-18
-1.81037e-18
-1.80087e-18
-1.81169e-18
-1.81233e-18
-1.82086e-18
-1.81973e-18
-1.83499e-18
-1.82965e-18
-1.82847e-18
-1.82729e-18
-1.83499e-18
-1.83302e-18
-1.84076e-18
-1.84794e-18
-1.84893e-18
-1.84182e-18
-1.83846e-18
-1.83558e-18
-1.82133e-18
-1.83411e-18
-1.84408e-18
-1.84057e-18
-1.85763e-18
-1.84772e-18
-1.86363e-18
-1.85372e-18
-1.86879e-18
-1.84993e-18
-1.86527e-18
-1.85807e-18
-1.84601e-18
-1.83754e-18
-1.8453e-18
-1.83354e-18
-1.85458e-18
-1.83378e-18
-1.8536e-18
-1.83681e-18
-1.85065e-18
-1.8271e-18
-1.8296e-18
-1.83456e-18
-1.84682e-18
-1.82991e-18
-1.84275e-18
-1.82402e-18
-1.82061e-18
-1.81891e-18
-1.82549e-18
-1.80876e-18
-1.81345e-18
-1.80169e-18
-1.81145e-18
-1.81e-18
-1.82065e-18
-1.82607e-18
-1.84044e-18
-1.82941e-18
-1.82871e-18
-1.83023e-18
-1.84073e-18
-1.83786e-18
-1.85046e-18
-1.84692e-18
-1.84436e-18
-1.84306e-18
-1.84121e-18
-1.83079e-18
-1.82499e-18
-1.8346e-18
-1.84682e-18
-1.84466e-18
-1.86501e-18
-1.84516e-18
-1.86924e-18
-1.84918e-18
-1.87112e-18
-1.85165e-18
-1.86775e-18
-1.85576e-18
-1.84168e-18
-1.83576e-18
-1.84232e-18
-1.83585e-18
-1.84634e-18
-1.84086e-18
-1.84703e-18
-1.84722e-18
-1.85909e-18
-1.8316e-18
-1.83887e-18
-1.82369e-18
-1.84128e-18
-1.83104e-18
-1.83564e-18
-1.82333e-18
-1.82089e-18
-1.81979e-18
-1.82529e-18
-1.81058e-18
-1.81961e-18
-1.80027e-18
-1.82014e-18
-1.80754e-18
-1.81952e-18
-1.82341e-18
-1.83342e-18
-1.82417e-18
-1.82891e-18
-1.82814e-18
-1.83682e-18
-1.84049e-18
-1.84564e-18
-1.85464e-18
-1.83791e-18
-1.84718e-18
-1.83823e-18
-1.83566e-18
-1.83708e-18
-1.82976e-18
-1.83964e-18
-1.84222e-18
-1.86085e-18
-1.8502e-18
-1.86061e-18
-1.85415e-18
-1.8706e-18
-1.85952e-18
-1.86909e-18
-1.86288e-18
-1.84578e-18
-1.82836e-18
-1.84273e-18
-1.83008e-18
-1.84024e-18
-1.84304e-18
-1.8509e-18
-1.84188e-18
-1.85516e-18
-1.83469e-18
-1.83976e-18
-1.82445e-18
-1.84802e-18
-1.82389e-18
-1.83552e-18
-1.82348e-18
-1.82594e-18
-1.81674e-18
-1.82533e-18
-1.81208e-18
-1.81931e-18
-1.80224e-18
-1.81466e-18
-1.80866e-18
-1.8243e-18
-1.82746e-18
-1.83637e-18
-1.82652e-18
-1.83014e-18
-1.82788e-18
-1.83687e-18
-1.83922e-18
-1.84659e-18
-1.85012e-18
-1.84175e-18
-1.84384e-18
-1.83807e-18
-1.82995e-18
-1.83581e-18
-1.83236e-18
-1.83784e-18
-1.8467e-18
-1.86083e-18
-1.85026e-18
-1.86068e-18
-1.86393e-18
-1.87593e-18
-1.85691e-18
-1.87701e-18
-1.85779e-18
-1.83884e-18
-1.83388e-18
-1.83841e-18
-1.83467e-18
-1.84162e-18
-1.8433e-18
-1.8526e-18
-1.84238e-18
-1.85443e-18
-1.82724e-18
-1.84832e-18
-1.82757e-18
-1.84631e-18
-1.82629e-18
-1.83567e-18
-1.82159e-18
-1.82539e-18
-1.81636e-18
-1.82752e-18
-1.81048e-18
-1.81645e-18
-1.80478e-18
-1.81138e-18
-1.80762e-18
-1.8244e-18
-1.82663e-18
-1.83665e-18
-1.82679e-18
-1.82952e-18
-1.83413e-18
-1.84172e-18
-1.83224e-18
-1.84662e-18
-1.84627e-18
-1.8473e-18
-1.84674e-18
-1.83794e-18
-1.82932e-18
-1.83047e-18
-1.82737e-18
-1.8495e-18
-1.84502e-18
-1.85645e-18
-1.85101e-18
-1.8622e-18
-1.86203e-18
-1.87145e-18
-1.85849e-18
-1.87342e-18
-1.85464e-18
-1.84491e-18
-1.83745e-18
-1.84229e-18
-1.84761e-18
-1.8435e-18
-1.84438e-18
-1.85811e-18
-1.84083e-18
-1.85733e-18
-1.82305e-18
-1.83977e-18
-1.82929e-18
-1.83998e-18
-1.82741e-18
-1.83376e-18
-1.82648e-18
-1.82686e-18
-1.81949e-18
-1.82721e-18
-1.80771e-18
-1.8143e-18
-1.80708e-18
-1.81761e-18
-1.80916e-18
-1.82654e-18
-1.82104e-18
-1.83809e-18
-1.82597e-18
-1.82982e-18
-1.83185e-18
-1.84624e-18
-1.83115e-18
-1.84449e-18
-1.84524e-18
-1.84767e-18
-1.8483e-18
-1.8415e-18
-1.83504e-18
-1.83169e-18
-1.83274e-18
-1.85395e-18
-1.84274e-18
-1.85323e-18
-1.84569e-18
-1.86246e-18
-1.84922e-18
-1.85919e-18
-1.85621e-18
-1.87334e-18
-1.85656e-18
-1.83659e-18
-1.8382e-18
-1.83947e-18
-1.85513e-18
-1.84799e-18
-1.84665e-18
-1.8567e-18
-1.83627e-18
-1.85485e-18
-1.82877e-18
-1.84293e-18
-1.82442e-18
-1.83808e-18
-1.82558e-18
-1.8334e-18
-1.82802e-18
-1.82015e-18
-1.82011e-18
-1.82352e-18
-1.80974e-18
-1.81095e-18
-1.81329e-18
-1.82213e-18
-1.81224e-18
-1.8243e-18
-1.81805e-18
-1.83477e-18
-1.8282e-18
-1.82737e-18
-1.83176e-18
-1.84135e-18
-1.8371e-18
-1.8462e-18
-1.84925e-18
-1.84486e-18
-1.84489e-18
-1.84455e-18
-1.83838e-18
-1.83783e-18
-1.82561e-18
-1.8519e-18
-1.84026e-18
-1.85651e-18
-1.84512e-18
-1.86123e-18
-1.85191e-18
-1.85211e-18
-1.85951e-18
-1.86919e-18
-1.86993e-18
-1.84037e-18
-1.83895e-18
-1.83526e-18
-1.84312e-18
-1.8506e-18
-1.85011e-18
-1.85958e-18
-1.84686e-18
-1.85463e-18
-1.83001e-18
-1.8437e-18
-1.82823e-18
-1.84678e-18
-1.82492e-18
-1.83543e-18
-1.8255e-18
-1.82248e-18
-1.82023e-18
-1.82369e-18
-1.81023e-18
-1.81218e-18
-1.80845e-18
-1.81815e-18
-1.81548e-18
-1.82456e-18
-1.82031e-18
-1.83174e-18
-1.83125e-18
-1.82989e-18
-1.83479e-18
-1.83759e-18
-1.83876e-18
-1.84388e-18
-1.84922e-18
-1.8461e-18
-1.84469e-18
-1.84493e-18
-1.83355e-18
-1.83328e-18
-1.82755e-18
-1.84493e-18
-1.84331e-18
-1.85383e-18
-1.84077e-18
-1.85763e-18
-1.85448e-18
-1.86774e-18
-1.8649e-18
-1.8652e-18
-1.86632e-18
-1.84449e-18
-1.84184e-18
-1.8383e-18
-1.83945e-18
-1.84935e-18
-1.84823e-18
-1.85828e-18
-1.84057e-18
-1.85822e-18
-1.83392e-18
-1.8408e-18
-1.83561e-18
-1.84384e-18
-1.82526e-18
-1.83985e-18
-1.82385e-18
-1.82387e-18
-1.8194e-18
-1.82626e-18
-1.80653e-18
-1.81658e-18
-1.80623e-18
-1.81615e-18
-1.81364e-18
-1.82674e-18
-1.82147e-18
-1.82843e-18
-1.82934e-18
-1.83052e-18
-1.83289e-18
-1.83658e-18
-1.83678e-18
-1.84426e-18
-1.84971e-18
-1.8473e-18
-1.8427e-18
-1.84276e-18
-1.83617e-18
-1.83149e-18
-1.83143e-18
-1.84087e-18
-1.84489e-18
-1.86619e-18
-1.84487e-18
-1.85687e-18
-1.85471e-18
-1.86697e-18
-1.86631e-18
-1.86635e-18
-1.86106e-18
-1.84231e-18
-1.84596e-18
-1.84212e-18
-1.83239e-18
-1.84907e-18
-1.84969e-18
-1.85341e-18
-1.84647e-18
-1.85956e-18
-1.82887e-18
-1.84411e-18
-1.83452e-18
-1.83426e-18
-1.82398e-18
-1.84014e-18
-1.82599e-18
-1.82792e-18
-1.81804e-18
-1.82334e-18
-1.80787e-18
-1.81671e-18
-1.80779e-18
-1.81695e-18
-1.81254e-18
-1.82467e-18
-1.82205e-18
-1.83141e-18
-1.82878e-18
-1.83113e-18
-1.83232e-18
-1.8409e-18
-1.83651e-18
-1.84729e-18
-1.84853e-18
-1.84501e-18
-1.83851e-18
-1.83981e-18
-1.84308e-18
-1.83184e-18
-1.82738e-18
-1.85244e-18
-1.845e-18
-1.86335e-18
-1.84988e-18
-1.85794e-18
-1.85482e-18
-1.8735e-18
-1.86263e-18
-1.86458e-18
-1.86033e-18
-1.8307e-18
-1.84098e-18
-1.83391e-18
-1.83062e-18
-1.84683e-18
-1.85529e-18
-1.86006e-18
-1.85337e-18
-1.85832e-18
-1.82814e-18
-1.85228e-18
-1.82952e-18
-1.83133e-18
-1.82548e-18
-1.84415e-18
-1.82795e-18
-1.82987e-18
-1.8187e-18
-1.82111e-18
-1.81457e-18
-1.81658e-18
-1.80872e-18
-1.81744e-18
-1.81173e-18
-1.82711e-18
-1.8225e-18
-1.83272e-18
-1.83122e-18
-1.83217e-18
-1.83385e-18
-1.83748e-18
-1.84215e-18
-1.84647e-18
-1.84697e-18
-1.84408e-18
-1.83303e-18
-1.83689e-18
-1.84745e-18
-1.83469e-18
-1.82525e-18
-1.85224e-18
-1.84488e-18
-1.86462e-18
-1.84412e-18
-1.85407e-18
-1.85726e-18
-1.87353e-18
-1.86636e-18
-1.87158e-18
-1.87303e-18
-1.84167e-18
-1.84517e-18
-1.82579e-18
-1.84098e-18
-1.8414e-18
-1.85299e-18
-1.85843e-18
-1.84719e-18
-1.85366e-18
-1.83155e-18
-1.84148e-18
-1.82102e-18
-1.84157e-18
-1.81786e-18
-1.83616e-18
-1.82717e-18
-1.82724e-18
-1.81838e-18
-1.82198e-18
-1.81342e-18
-1.8174e-18
-1.81119e-18
-1.81678e-18
-1.81031e-18
-1.82543e-18
-1.82281e-18
-1.83198e-18
-1.83017e-18
-1.83148e-18
-1.83704e-18
-1.84007e-18
-1.84345e-18
-1.84868e-18
-1.84632e-18
-1.84832e-18
-1.84145e-18
-1.84703e-18
-1.83512e-18
-1.8425e-18
-1.83875e-18
-1.84859e-18
-1.84576e-18
-1.85958e-18
-1.84854e-18
-1.85815e-18
-1.86323e-18
-1.86639e-18
-1.87688e-18
-1.87239e-18
-1.8666e-18
-1.84842e-18
-1.8415e-18
-1.83758e-18
-1.84688e-18
-1.84367e-18
-1.85444e-18
-1.85615e-18
-1.84669e-18
-1.85218e-18
-1.83298e-18
-1.84842e-18
-1.8247e-18
-1.845e-18
-1.82619e-18
-1.83145e-18
-1.8259e-18
-1.82389e-18
-1.82004e-18
-1.82252e-18
-1.81217e-18
-1.81914e-18
-1.80679e-18
-1.81624e-18
-1.81334e-18
-1.82562e-18
-1.823e-18
-1.83219e-18
-1.83079e-18
-1.83665e-18
-1.83391e-18
-1.84388e-18
-1.84262e-18
-1.84674e-18
-1.84731e-18
-1.85006e-18
-1.84129e-18
-1.84637e-18
-1.82986e-18
-1.84491e-18
-1.83542e-18
-1.84922e-18
-1.84609e-18
-1.85564e-18
-1.85231e-18
-1.8614e-18
-1.85982e-18
-1.86332e-18
-1.86849e-18
-1.87479e-18
-1.86418e-18
-1.84854e-18
-1.84886e-18
-1.84513e-18
-1.84605e-18
-1.84937e-18
-1.84755e-18
-1.84799e-18
-1.84406e-18
-1.859e-18
-1.8333e-18
-1.84016e-18
-1.82674e-18
-1.83769e-18
-1.82887e-18
-1.83592e-18
-1.82339e-18
-1.82021e-18
-1.81916e-18
-1.82564e-18
-1.81161e-18
-1.82102e-18
-1.80847e-18
-1.82078e-18
-1.8137e-18
-1.82802e-18
-1.82308e-18
-1.83209e-18
-1.82885e-18
-1.83767e-18
-1.8336e-18
-1.84276e-18
-1.83845e-18
-1.85063e-18
-1.84744e-18
-1.85147e-18
-1.83775e-18
-1.84713e-18
-1.83583e-18
-1.84423e-18
-1.83398e-18
-1.84714e-18
-1.83944e-18
-1.85227e-18
-1.85352e-18
-1.86986e-18
-1.85205e-18
-1.86901e-18
-1.8626e-18
-1.87296e-18
-1.86038e-18
-1.84564e-18
-1.84955e-18
-1.84439e-18
-1.83702e-18
-1.85229e-18
-1.84901e-18
-1.85576e-18
-1.84291e-18
-1.85572e-18
-1.83535e-18
-1.83859e-18
-1.82695e-18
-1.83829e-18
-1.83098e-18
-1.83524e-18
-1.82125e-18
-1.82992e-18
-1.81173e-18
-1.82401e-18
-1.81127e-18
-1.81981e-18
-1.80991e-18
-1.82094e-18
-1.81306e-18
-1.82565e-18
-1.82304e-18
-1.83168e-18
-1.82806e-18
-1.8343e-18
-1.83319e-18
-1.8426e-18
-1.84273e-18
-1.85337e-18
-1.83739e-18
-1.85179e-18
-1.83568e-18
-1.8396e-18
-1.83914e-18
-1.84211e-18
-1.83238e-18
-1.84447e-18
-1.84346e-18
-1.85894e-18
-1.84868e-18
-1.86352e-18
-1.85196e-18
-1.87011e-18
-1.86793e-18
-1.86746e-18
-1.8447e-18
-1.84345e-18
-1.83986e-18
-1.83833e-18
-1.84797e-18
-1.85231e-18
-1.86278e-18
-1.84898e-18
-1.85469e-18
-1.83914e-18
-1.8458e-18
-1.82657e-18
-1.83548e-18
-1.82425e-18
-1.8367e-18
-1.82293e-18
-1.82895e-18
-1.81574e-18
-1.82742e-18
-1.81475e-18
-1.82278e-18
-1.81155e-18
-1.82246e-18
-1.81465e-18
-1.82465e-18
-1.82331e-18
-1.83178e-18
-1.8272e-18
-1.83225e-18
-1.83029e-18
-1.83931e-18
-1.84446e-18
-1.85309e-18
-1.84239e-18
-1.84798e-18
-1.83784e-18
-1.84291e-18
-1.8396e-18
-1.84367e-18
-1.83455e-18
-1.84076e-18
-1.8465e-18
-1.85907e-18
-1.8476e-18
-1.86057e-18
-1.85706e-18
-1.8721e-18
-1.87087e-18
-1.84271e-18
-1.84083e-18
-1.84363e-18
-1.85011e-18
-1.84793e-18
-1.85208e-18
-1.863e-18
-1.85174e-18
-1.85346e-18
-1.83615e-18
-1.84769e-18
-1.82599e-18
-1.83986e-18
-1.82407e-18
-1.83796e-18
-1.82834e-18
-1.82618e-18
-1.8191e-18
-1.82703e-18
-1.81644e-18
-1.82428e-18
-1.8118e-18
-1.82095e-18
-1.81608e-18
-1.82573e-18
-1.82349e-18
-1.83159e-18
-1.8247e-18
-1.8303e-18
-1.82932e-18
-1.83728e-18
-1.84652e-18
-1.84709e-18
-1.84717e-18
-1.84474e-18
-1.84219e-18
-1.84273e-18
-1.83533e-18
-1.8422e-18
-1.84314e-18
-1.84444e-18
-1.84598e-18
-1.85861e-18
-1.84598e-18
-1.85931e-18
-1.85663e-18
-1.86324e-18
-1.85392e-18
-1.83897e-18
-1.84141e-18
-1.84951e-18
-1.84636e-18
-1.85442e-18
-1.85437e-18
-1.85212e-18
-1.86032e-18
-1.84172e-18
-1.84067e-18
-1.82478e-18
-1.84095e-18
-1.81945e-18
-1.83861e-18
-1.82899e-18
-1.82658e-18
-1.8165e-18
-1.82717e-18
-1.81447e-18
-1.82242e-18
-1.81304e-18
-1.81919e-18
-1.81543e-18
-1.82805e-18
-1.82475e-18
-1.83152e-18
-1.82757e-18
-1.83346e-18
-1.83024e-18
-1.83876e-18
-1.8432e-18
-1.84698e-18
-1.84111e-18
-1.84425e-18
-1.838e-18
-1.8476e-18
-1.83791e-18
-1.84347e-18
-1.84703e-18
-1.83934e-18
-1.83822e-18
-1.85759e-18
-1.85883e-18
-1.86303e-18
-1.86024e-18
-1.84469e-18
-1.83885e-18
-1.83229e-18
-1.8479e-18
-1.8495e-18
-1.84981e-18
-1.85992e-18
-1.85093e-18
-1.85092e-18
-1.83404e-18
-1.84134e-18
-1.82336e-18
-1.83666e-18
-1.82554e-18
-1.83418e-18
-1.82352e-18
-1.82779e-18
-1.81226e-18
-1.82863e-18
-1.81504e-18
-1.81996e-18
-1.81682e-18
-1.8183e-18
-1.81505e-18
-1.8274e-18
-1.82706e-18
-1.8323e-18
-1.82802e-18
-1.83397e-18
-1.83181e-18
-1.84101e-18
-1.83995e-18
-1.84808e-18
-1.83848e-18
-1.848e-18
-1.83678e-18
-1.84159e-18
-1.84634e-18
-1.84623e-18
-1.83972e-18
-1.84844e-18
-1.84752e-18
-1.85745e-18
-1.85339e-18
-1.8649e-18
-1.83641e-18
-1.83624e-18
-1.83139e-18
-1.84318e-18
-1.84685e-18
-1.83691e-18
-1.86332e-18
-1.85153e-18
-1.84508e-18
-1.83621e-18
-1.83668e-18
-1.82396e-18
-1.83742e-18
-1.82545e-18
-1.83329e-18
-1.82399e-18
-1.82689e-18
-1.81533e-18
-1.82917e-18
-1.81621e-18
-1.81948e-18
-1.81412e-18
-1.82309e-18
-1.81568e-18
-1.82911e-18
-1.82515e-18
-1.832e-18
-1.82614e-18
-1.83604e-18
-1.83739e-18
-1.8433e-18
-1.84229e-18
-1.84742e-18
-1.84247e-18
-1.84923e-18
-1.83955e-18
-1.84198e-18
-1.83804e-18
-1.83941e-18
-1.84271e-18
-1.85012e-18
-1.85367e-18
-1.85814e-18
-1.84539e-18
-1.87636e-18
-1.8414e-18
-1.8473e-18
-1.84267e-18
-1.84915e-18
-1.84468e-18
-1.84598e-18
-1.8637e-18
-1.85208e-18
-1.84939e-18
-1.84403e-18
-1.83904e-18
-1.8193e-18
-1.83653e-18
-1.82014e-18
-1.82999e-18
-1.82583e-18
-1.82537e-18
-1.8167e-18
-1.82878e-18
-1.81908e-18
-1.81981e-18
-1.811e-18
-1.82311e-18
-1.81763e-18
-1.82722e-18
-1.82431e-18
-1.83181e-18
-1.82861e-18
-1.84107e-18
-1.83584e-18
-1.83861e-18
-1.84307e-18
-1.84685e-18
-1.84338e-18
-1.84544e-18
-1.84182e-18
-1.84823e-18
-1.83529e-18
-1.84391e-18
-1.84021e-18
-1.84244e-18
-1.84931e-18
-1.85892e-18
-1.84651e-18
-1.86814e-18
-1.84285e-18
-1.84693e-18
-1.84578e-18
-1.8544e-18
-1.84807e-18
-1.84923e-18
-1.86041e-18
-1.85678e-18
-1.85823e-18
-1.84183e-18
-1.83401e-18
-1.82871e-18
-1.83445e-18
-1.82727e-18
-1.83293e-18
-1.82115e-18
-1.82934e-18
-1.8197e-18
-1.82818e-18
-1.81497e-18
-1.81694e-18
-1.81503e-18
-1.82145e-18
-1.82017e-18
-1.82653e-18
-1.82523e-18
-1.83205e-18
-1.83237e-18
-1.83962e-18
-1.83644e-18
-1.84086e-18
-1.83952e-18
-1.84273e-18
-1.84171e-18
-1.84714e-18
-1.83826e-18
-1.84342e-18
-1.83815e-18
-1.84415e-18
-1.84445e-18
-1.83946e-18
-1.84149e-18
-1.85456e-18
-1.85019e-18
-1.86732e-18
-1.84261e-18
-1.84458e-18
-1.83931e-18
-1.84573e-18
-1.85306e-18
-1.85099e-18
-1.85385e-18
-1.85413e-18
-1.85699e-18
-1.83891e-18
-1.8402e-18
-1.82706e-18
-1.8381e-18
-1.82716e-18
-1.83347e-18
-1.81995e-18
-1.82876e-18
-1.8197e-18
-1.82739e-18
-1.81259e-18
-1.81699e-18
-1.81467e-18
-1.81809e-18
-1.81797e-18
-1.82698e-18
-1.82821e-18
-1.83233e-18
-1.83067e-18
-1.83613e-18
-1.83342e-18
-1.84133e-18
-1.83813e-18
-1.84012e-18
-1.84003e-18
-1.84361e-18
-1.83818e-18
-1.84472e-18
-1.83844e-18
-1.84163e-18
-1.83925e-18