/*--------------------------------*- C++ -*----------------------------------*\
  =========                 |
  \\      /  F ield         | OpenFOAM: The Open Source CFD Toolbox
   \\    /   O peration     | Website:  https://openfoam.org
    \\  /    A nd           | Version:  7
     \\/     M anipulation  |
\*---------------------------------------------------------------------------*/
FoamFile
{
    version     2.0;
    format      ascii;
    class       volScalarField;
    location    "0";
    object      p;
}
// * * * * * * * * * * * * * * * * * * * * * * * * * * * * * * * * * * * * * //

dimensions      [0 2 -2 0 0 0 0];

internalField   nonuniform List<scalar> 
1762
(
9.0848e-21
3.55841e-20
6.65557e-20
7.22189e-20
7.05313e-20
8.03489e-20
1.10962e-19
1.22897e-19
1.18127e-19
1.23379e-19
1.24961e-19
1.14499e-19
4.61397e-21
3.58811e-20
6.46858e-20
8.66153e-20
6.98632e-20
9.4282e-20
1.07453e-19
1.46226e-19
1.10506e-19
1.35654e-19
1.15554e-19
1.2054e-19
1.38139e-20
4.65447e-20
6.12455e-20
8.21512e-20
7.3705e-20
1.04553e-19
1.08878e-19
1.27589e-19
1.12639e-19
1.3772e-19
1.31141e-19
1.1354e-19
9.5912e-21
4.55025e-20
6.28941e-20
7.31797e-20
7.84571e-20
9.78238e-20
1.1002e-19
1.23917e-19
1.29703e-19
1.36808e-19
1.41271e-19
1.29016e-19
1.83491e-20
4.31015e-20
7.12011e-20
7.44559e-20
8.61827e-20
1.03131e-19
1.16159e-19
1.25559e-19
1.22463e-19
1.41099e-19
1.37712e-19
1.40259e-19
1.92522e-20
5.02468e-20
7.004e-20
8.04149e-20
9.20004e-20
1.08364e-19
1.27138e-19
1.25713e-19
1.21689e-19
1.50649e-19
1.39166e-19
1.34389e-19
1.56225e-20
4.9587e-20
6.7471e-20
8.61966e-20
9.44297e-20
1.11834e-19
1.23696e-19
1.32354e-19
1.30149e-19
1.50827e-19
1.43747e-19
1.35031e-19
1.34687e-20
4.60935e-20
7.10352e-20
9.04498e-20
8.7393e-20
1.16844e-19
1.26639e-19
1.32688e-19
1.33324e-19
1.48234e-19
1.43463e-19
2.42717e-20
4.86522e-20
7.90237e-20
9.78943e-20
9.21581e-20
1.23494e-19
1.32612e-19
1.26951e-19
1.31596e-19
1.42882e-19
1.41891e-19
2.9012e-20
5.68099e-20
8.11639e-20
1.02542e-19
9.19373e-20
1.28771e-19
1.28215e-19
1.2272e-19
1.31323e-19
1.51404e-19
1.43647e-19
3.49079e-20
5.50161e-20
7.90643e-20
9.89068e-20
1.05472e-19
1.21394e-19
1.39926e-19
1.32998e-19
1.29447e-19
1.52703e-19
1.4994e-19
4.34247e-20
6.00499e-20
7.43219e-20
1.05174e-19
1.10194e-19
1.23996e-19
1.48801e-19
1.34454e-19
1.30157e-19
1.54275e-19
1.50537e-19
4.27972e-20
7.02822e-20
7.22161e-20
1.10189e-19
1.11987e-19
1.22309e-19
1.45488e-19
1.3438e-19
1.40264e-19
1.51927e-19
1.54111e-19
3.4615e-20
7.40097e-20
7.89407e-20
1.07558e-19
1.08363e-19
1.13877e-19
1.38589e-19
1.36826e-19
1.41919e-19
1.56541e-19
1.56464e-19
3.28039e-20
6.28538e-20
8.1475e-20
1.01432e-19
1.07358e-19
1.19736e-19
1.32127e-19
1.47015e-19
1.35516e-19
1.58531e-19
1.58964e-19
3.4637e-20
6.30756e-20
7.53078e-20
9.43464e-20
1.13829e-19
1.22912e-19
1.4105e-19
1.48238e-19
1.41797e-19
1.64554e-19
1.56417e-19
3.8746e-20
6.93585e-20
7.64493e-20
1.00741e-19
1.16557e-19
1.23466e-19
1.43649e-19
1.4955e-19
1.47646e-19
1.63158e-19
1.59099e-19
3.81937e-20
6.75569e-20
7.85891e-20
1.09384e-19
1.12174e-19
1.22699e-19
1.52306e-19
1.4968e-19
1.43454e-19
1.58301e-19
1.59381e-19
4.32613e-20
6.48057e-20
8.16565e-20
1.02005e-19
1.14765e-19
1.24122e-19
1.46945e-19
1.45127e-19
1.46303e-19
1.56067e-19
1.59786e-19
4.18869e-20
6.216e-20
7.36134e-20
9.71104e-20
1.11706e-19
1.23143e-19
1.41916e-19
1.50977e-19
1.51308e-19
1.63187e-19
1.60288e-19
3.60057e-20
5.22296e-20
6.99956e-20
9.45753e-20
1.08754e-19
1.22136e-19
1.38202e-19
1.46721e-19
1.47143e-19
1.61227e-19
1.58558e-19
2.8881e-20
6.00265e-20
7.47417e-20
9.95147e-20
1.14342e-19
1.23266e-19
1.44296e-19
1.5128e-19
1.47343e-19
1.5835e-19
1.63475e-19
3.76665e-20
6.41926e-20
6.82209e-20
9.82754e-20
1.14676e-19
1.25317e-19
1.50302e-19
1.53677e-19
1.4638e-19
1.61955e-19
1.64052e-19
4.47899e-20
6.69094e-20
7.29811e-20
8.97646e-20
1.12049e-19
1.2421e-19
1.47167e-19
1.54033e-19
1.44278e-19
1.61425e-19
1.64633e-19
3.84144e-20
6.63407e-20
7.56491e-20
9.91582e-20
1.12932e-19
1.29873e-19
1.39321e-19
1.53003e-19
1.53488e-19
1.59994e-19
4.48509e-20
5.95299e-20
7.72452e-20
9.5823e-20
1.10502e-19
1.32099e-19
1.37384e-19
1.50651e-19
1.52763e-19
1.63562e-19
4.17004e-20
5.99372e-20
7.16965e-20
9.57503e-20
1.09468e-19
1.27043e-19
1.40518e-19
1.50285e-19
1.5481e-19
1.69508e-19
4.67228e-20
6.12039e-20
7.61345e-20
8.49081e-20
1.19376e-19
1.26137e-19
1.40901e-19
1.45926e-19
1.54489e-19
1.70001e-19
3.99793e-20
5.99624e-20
7.38289e-20
8.39403e-20
1.19787e-19
1.25217e-19
1.41314e-19
1.47323e-19
1.54579e-19
1.65829e-19
3.51373e-20
6.39192e-20
7.20218e-20
8.77438e-20
1.11749e-19
1.25928e-19
1.43003e-19
1.50337e-19
1.52117e-19
1.6236e-19
3.68903e-20
6.59052e-20
7.17933e-20
9.0601e-20
1.10329e-19
1.25807e-19
1.39467e-19
1.49233e-19
1.48891e-19
1.64447e-19
3.82435e-20
6.42312e-20
7.5609e-20
8.84749e-20
1.09735e-19
1.26076e-19
1.36843e-19
1.46658e-19
1.52375e-19
1.68168e-19
3.12511e-20
6.19615e-20
7.49935e-20
8.85672e-20
1.16475e-19
1.28192e-19
1.37289e-19
1.48317e-19
1.53429e-19
1.66569e-19
3.32486e-20
6.05131e-20
7.47459e-20
9.10362e-20
1.12847e-19
1.28463e-19
1.36995e-19
1.51013e-19
1.53322e-19
1.66232e-19
3.35955e-20
5.8512e-20
7.48335e-20
9.43853e-20
1.0804e-19
1.27048e-19
1.35664e-19
1.49499e-19
1.55966e-19
1.66006e-19
3.24308e-20
5.78619e-20
7.36504e-20
9.50655e-20
1.11467e-19
1.26051e-19
1.35683e-19
1.4973e-19
1.56152e-19
1.65193e-19
3.54532e-20
5.54815e-20
7.22038e-20
9.17747e-20
1.11054e-19
1.23864e-19
1.3506e-19
1.53143e-19
1.5249e-19
1.63843e-19
3.44868e-20
5.69007e-20
7.82816e-20
9.32864e-20
1.10677e-19
1.2386e-19
1.37444e-19
1.53735e-19
1.53527e-19
1.63857e-19
3.44145e-20
5.95983e-20
7.23374e-20
9.63807e-20
1.1061e-19
1.26681e-19
1.35704e-19
1.52045e-19
1.56517e-19
1.63348e-19
2.98417e-20
6.01385e-20
7.57442e-20
9.30426e-20
1.08681e-19
1.25617e-19
1.35927e-19
1.49925e-19
1.54661e-19
1.64303e-19
3.30403e-20
6.14079e-20
7.9212e-20
9.48599e-20
1.09116e-19
1.26153e-19
1.38184e-19
1.49756e-19
1.54721e-19
1.6342e-19
3.14697e-20
5.87419e-20
7.48465e-20
9.39985e-20
1.09639e-19
1.26909e-19
1.35457e-19
1.51084e-19
1.53779e-19
1.6139e-19
3.20264e-20
5.69008e-20
7.63999e-20
9.6178e-20
1.08897e-19
1.25603e-19
1.35502e-19
1.51443e-19
1.53693e-19
1.61985e-19
3.24764e-20
5.7295e-20
7.66326e-20
9.6375e-20
1.09762e-19
1.27146e-19
1.36814e-19
1.5073e-19
1.5458e-19
1.62364e-19
3.21902e-20
5.77626e-20
7.44784e-20
9.50347e-20
1.1017e-19
1.2702e-19
1.36329e-19
1.50087e-19
1.55398e-19
1.61731e-19
3.12734e-20
5.68259e-20
7.59015e-20
9.80783e-20
1.10182e-19
1.25181e-19
1.36424e-19
1.50257e-19
1.54835e-19
1.62315e-19
3.11583e-20
5.7006e-20
7.57542e-20
9.69687e-20
1.10187e-19
1.26436e-19
1.37695e-19
1.50259e-19
1.54571e-19
1.61663e-19
3.00785e-20
5.66001e-20
7.53222e-20
9.60461e-20
1.10187e-19
1.27128e-19
1.36679e-19
1.50824e-19
1.54561e-19
1.61098e-19
3.04089e-20
5.73568e-20
7.62602e-20
9.67087e-20
1.10113e-19
1.26726e-19
1.36733e-19
1.50219e-19
1.54474e-19
1.61048e-19
3.08093e-20
5.67213e-20
7.5428e-20
9.70729e-20
1.09979e-19
1.26249e-19
1.3646e-19
1.49883e-19
1.54391e-19
1.61288e-19
3.0487e-20
5.62675e-20
7.5535e-20
9.63054e-20
1.10046e-19
1.26525e-19
1.36993e-19
1.49768e-19
1.54199e-19
1.61526e-19
3.03108e-20
5.63134e-20
7.57927e-20
9.67571e-20
1.10052e-19
1.26775e-19
1.36794e-19
1.50151e-19
1.54551e-19
1.61104e-19
3.04334e-20
5.64614e-20
7.54206e-20
9.69966e-20
1.09967e-19
1.27001e-19
1.36807e-19
1.50107e-19
1.54481e-19
1.60977e-19
3.02582e-20
5.61364e-20
7.55594e-20
9.70714e-20
1.09798e-19
1.2724e-19
1.36867e-19
1.50137e-19
1.54399e-19
1.61169e-19
3.02045e-20
5.59456e-20
7.58222e-20
9.68533e-20
1.09848e-19
1.26781e-19
1.36967e-19
1.50007e-19
1.54459e-19
1.6097e-19
3.0224e-20
5.60911e-20
7.56679e-20
9.69582e-20
1.09819e-19
1.27005e-19
1.37026e-19
1.49908e-19
1.54485e-19
1.60918e-19
3.02802e-20
5.59852e-20
7.56135e-20
9.69494e-20
1.09795e-19
1.26926e-19
1.36924e-19
1.49999e-19
1.54492e-19
1.60877e-19
3.02044e-20
5.59617e-20
7.55981e-20
9.69116e-20
1.09931e-19
1.26842e-19
1.36826e-19
1.50072e-19
1.54465e-19
1.6087e-19
-1.35195e-19
-1.56354e-19
-1.67509e-19
-1.69356e-19
-1.78263e-19
-1.79851e-19
-1.92428e-19
-1.7052e-19
-1.98817e-19
-1.7803e-19
-1.82878e-19
-1.52808e-19
-1.23306e-19
-1.23963e-19
-8.23527e-20
-6.23855e-20
-3.92604e-20
-1.42596e-19
-1.61393e-19
-1.65764e-19
-1.634e-19
-1.76747e-19
-1.83158e-19
-1.88388e-19
-1.84595e-19
-1.94934e-19
-1.81182e-19
-1.75181e-19
-1.49586e-19
-1.16713e-19
-1.27677e-19
-8.70723e-20
-5.2364e-20
-2.19842e-20
-1.45694e-19
-1.6659e-19
-1.76897e-19
-1.62717e-19
-1.75402e-19
-1.86406e-19
-1.86435e-19
-1.83662e-19
-1.86229e-19
-1.80543e-19
-1.73371e-19
-1.6246e-19
-1.12995e-19
-1.28725e-19
-7.77011e-20
-5.45412e-20
-2.72587e-20
-1.24107e-19
-1.35468e-19
-1.46373e-19
-1.41148e-19
-1.59459e-19
-1.7582e-19
-1.70393e-19
-1.75883e-19
-1.75669e-19
-1.84588e-19
-1.77388e-19
-1.93614e-19
-1.86902e-19
-1.69937e-19
-1.51591e-19
-1.16785e-19
-1.15549e-19
-7.996e-20
-5.50792e-20
-1.92669e-20
-1.29502e-19
-1.28353e-19
-1.46975e-19
-1.4665e-19
-1.55986e-19
-1.78609e-19
-1.63876e-19
-1.76448e-19
-1.80521e-19
-1.86506e-19
-1.75989e-19
-1.90989e-19
-1.84793e-19
-1.69974e-19
-1.51344e-19
-1.26593e-19
-1.0656e-19
-9.35647e-20
-5.411e-20
-2.59186e-20
-1.28838e-19
-1.32834e-19
-1.46201e-19
-1.50165e-19
-1.54054e-19
-1.7016e-19
-1.62112e-19
-1.77138e-19
-1.83545e-19
-1.85306e-19
-1.70861e-19
-1.87109e-19
-1.82882e-19
-1.79949e-19
-1.54462e-19
-1.21442e-19
-1.13845e-19
-8.63784e-20
-5.29909e-20
-1.83732e-20
-1.23973e-19
-1.32148e-19
-1.42318e-19
-1.50305e-19
-1.55257e-19
-1.65588e-19
-1.61667e-19
-1.77945e-19
-1.81659e-19
-1.84395e-19
-1.68632e-19
-1.94983e-19
-1.84227e-19
-1.73965e-19
-1.57596e-19
-1.14473e-19
-1.19651e-19
-7.47266e-20
-3.94994e-20
-6.46668e-21
-1.24567e-19
-1.33051e-19
-1.41766e-19
-1.53688e-19
-1.56345e-19
-1.67755e-19
-1.56122e-19
-1.75717e-19
-1.73448e-19
-1.79009e-19
-1.69008e-19
-1.88975e-19
-1.88677e-19
-1.74475e-19
-1.65684e-19
-1.14743e-19
-1.22916e-19
-7.69212e-20
-3.83938e-20
7.55226e-22
-1.28775e-19
-1.30818e-19
-1.36504e-19
-1.55552e-19
-1.5884e-19
-1.68632e-19
-1.5652e-19
-1.69171e-19
-1.74675e-19
-1.77087e-19
-1.705e-19
-1.8956e-19
-1.87073e-19
-1.76427e-19
-1.77159e-19
-1.23269e-19
-1.23807e-19
-8.78771e-20
-4.31776e-20
5.22818e-21
-1.28913e-19
-1.34671e-19
-1.41849e-19
-1.4996e-19
-1.56605e-19
-1.63682e-19
-1.59622e-19
-1.72011e-19
-1.75915e-19
-1.72311e-19
-1.65574e-19
-1.9191e-19
-1.76641e-19
-1.72238e-19
-1.71287e-19
-1.11823e-19
-1.29507e-19
-9.14252e-20
-4.35459e-20
8.54409e-21
-1.2216e-19
-1.35457e-19
-1.48534e-19
-1.48979e-19
-1.52929e-19
-1.63457e-19
-1.59464e-19
-1.70435e-19
-1.7426e-19
-1.80986e-19
-1.61825e-19
-1.87391e-19
-1.75085e-19
-1.73906e-19
-1.64809e-19
-1.15507e-19
-1.17247e-19
-9.07641e-20
-3.69633e-20
3.83109e-21
-1.21708e-19
-1.34791e-19
-1.52313e-19
-1.45081e-19
-1.47812e-19
-1.63412e-19
-1.63474e-19
-1.68984e-19
-1.76943e-19
-1.78245e-19
-1.74838e-19
-1.84855e-19
-1.80541e-19
-1.85501e-19
-1.63153e-19
-1.14351e-19
-1.24965e-19
-8.21702e-20
-3.45288e-20
-4.67217e-21
-1.18829e-19
-1.35503e-19
-1.4219e-19
-1.43987e-19
-1.55386e-19
-1.62133e-19
-1.61674e-19
-1.74586e-19
-1.7401e-19
-1.79836e-19
-1.7479e-19
-1.86715e-19
-1.78837e-19
-1.83334e-19
-1.65917e-19
-1.2075e-19
-1.30328e-19
-8.18585e-20
-4.12637e-20
3.97313e-21
-1.17691e-19
-1.34941e-19
-1.4337e-19
-1.48316e-19
-1.55929e-19
-1.59587e-19
-1.584e-19
-1.71949e-19
-1.75196e-19
-1.76045e-19
-1.73196e-19
-1.84669e-19
-1.71659e-19
-1.77427e-19
-1.67555e-19
-1.17177e-19
-1.19063e-19
-8.14977e-20
-5.04274e-20
4.80706e-21
-1.15535e-19
-1.35827e-19
-1.44559e-19
-1.45805e-19
-1.53814e-19
-1.55816e-19
-1.55058e-19
-1.74835e-19
-1.77713e-19
-1.69733e-19
-1.71493e-19
-1.77643e-19
-1.77608e-19
-1.74434e-19
-1.68239e-19
-1.13196e-19
-1.14848e-19
-8.48963e-20
-4.19759e-20
8.33342e-21
-1.20148e-19
-1.44607e-19
-1.4449e-19
-1.45899e-19
-1.5181e-19
-1.56085e-19
-1.54213e-19
-1.69994e-19
-1.77675e-19
-1.63498e-19
-1.72367e-19
-1.78564e-19
-1.74486e-19
-1.80437e-19
-1.68082e-19
-1.16322e-19
-1.1475e-19
-8.33827e-20
-4.35678e-20
7.1421e-21
-1.18534e-19
-1.48327e-19
-1.45677e-19
-1.47217e-19
-1.48599e-19
-1.56403e-19
-1.53226e-19
-1.64086e-19
-1.7531e-19
-1.72353e-19
-1.70724e-19
-1.79552e-19
-1.75091e-19
-1.81495e-19
-1.67038e-19
-1.20155e-19
-1.18522e-19
-7.83819e-20
-4.75796e-20
2.66025e-21
-1.18332e-19
-1.44853e-19
-1.46799e-19
-1.47262e-19
-1.49124e-19
-1.54334e-19
-1.55852e-19
-1.65738e-19
-1.75595e-19
-1.72373e-19
-1.65366e-19
-1.70891e-19
-1.75588e-19
-1.85102e-19
-1.6509e-19
-1.18777e-19
-1.21316e-19
-8.04297e-20
-4.46994e-20
7.08907e-22
-1.18283e-19
-1.40489e-19
-1.51509e-19
-1.46089e-19
-1.52009e-19
-1.5235e-19
-1.54728e-19
-1.66143e-19
-1.75984e-19
-1.71235e-19
-1.65991e-19
-1.79035e-19
-1.72506e-19
-1.79488e-19
-1.64557e-19
-1.18212e-19
-1.19786e-19
-7.89748e-20
-3.97212e-20
-5.57015e-21
-1.18403e-19
-1.41e-19
-1.50383e-19
-1.42518e-19
-1.51345e-19
-1.52745e-19
-1.58243e-19
-1.6538e-19
-1.79975e-19
-1.70136e-19
-1.75696e-19
-1.79052e-19
-1.72842e-19
-1.81014e-19
-1.62009e-19
-1.1731e-19
-1.11938e-19
-8.5249e-20
-3.91997e-20
-3.13082e-21
-1.20931e-19
-1.38204e-19
-1.47152e-19
-1.40055e-19
-1.5189e-19
-1.56509e-19
-1.58237e-19
-1.65716e-19
-1.76115e-19
-1.68953e-19
-1.76151e-19
-1.78023e-19
-1.64174e-19
-1.78272e-19
-1.60805e-19
-1.23774e-19
-1.07691e-19
-8.07802e-20
-3.22613e-20
2.84093e-21
-1.18087e-19
-1.39952e-19
-1.47438e-19
-1.44153e-19
-1.51362e-19
-1.57974e-19
-1.58192e-19
-1.64918e-19
-1.72493e-19
-1.66609e-19
-1.73351e-19
-1.78215e-19
-1.73918e-19
-1.80113e-19
-1.59762e-19
-1.27798e-19
-1.15153e-19
-8.2799e-20
-4.28923e-20
9.15645e-21
-1.19704e-19
-1.40684e-19
-1.44578e-19
-1.4377e-19
-1.49776e-19
-1.58366e-19
-1.58104e-19
-1.63067e-19
-1.72274e-19
-1.65316e-19
-1.72761e-19
-1.77402e-19
-1.74922e-19
-1.83114e-19
-1.66055e-19
-1.28504e-19
-1.13367e-19
-7.52394e-20
-4.33081e-20
-2.93289e-22
-1.20363e-19
-1.384e-19
-1.49111e-19
-1.43351e-19
-1.50301e-19
-1.57761e-19
-1.57987e-19
-1.6332e-19
-1.70092e-19
-1.70171e-19
-1.69117e-19
-1.787e-19
-1.71764e-19
-1.78097e-19
-1.66768e-19
-1.25574e-19
-1.09302e-19
-8.30004e-20
-4.42571e-20
-7.97294e-21
-1.19125e-19
-1.38246e-19
-1.4756e-19
-1.42866e-19
-1.51814e-19
-1.57217e-19
-1.57842e-19
-1.64565e-19
-1.67012e-19
-1.71884e-19
-1.69506e-19
-1.81049e-19
-1.71092e-19
-1.74314e-19
-1.62765e-19
-1.26444e-19
-1.15923e-19
-8.44385e-20
-4.32811e-20
-1.59978e-21
-1.19005e-19
-1.37671e-19
-1.4614e-19
-1.42805e-19
-1.53299e-19
-1.60148e-19
-1.57667e-19
-1.63353e-19
-1.65962e-19
-1.71159e-19
-1.76085e-19
-1.77197e-19
-1.6989e-19
-1.73103e-19
-1.66552e-19
-1.26212e-19
-1.09492e-19
-8.31288e-20
-3.68912e-20
-5.27983e-21
-1.23232e-19
-1.38589e-19
-1.46251e-19
-1.42667e-19
-1.51906e-19
-1.58291e-19
-1.5935e-19
-1.63143e-19
-1.63989e-19
-1.65754e-19
-1.7545e-19
-1.78636e-19
-1.67743e-19
-1.76574e-19
-1.65835e-19
-1.23606e-19
-1.08685e-19
-7.88532e-20
-3.98417e-20
-1.54831e-21
-1.17887e-19
-1.33583e-19
-1.4367e-19
-1.443e-19
-1.5057e-19
-1.59738e-19
-1.5867e-19
-1.64329e-19
-1.63905e-19
-1.66858e-19
-1.75771e-19
-1.77397e-19
-1.67356e-19
-1.73808e-19
-1.61325e-19
-1.26195e-19
-1.0321e-19
-8.50458e-20
-4.35316e-20
-3.40151e-21
-1.19865e-19
-1.32751e-19
-1.45212e-19
-1.42298e-19
-1.48815e-19
-1.57632e-19
-1.58867e-19
-1.62847e-19
-1.61597e-19
-1.66136e-19
-1.72611e-19
-1.75818e-19
-1.69934e-19
-1.68647e-19
-1.59623e-19
-1.30749e-19
-1.06682e-19
-8.07796e-20
-3.9714e-20
-6.44024e-21
-1.21878e-19
-1.31098e-19
-1.44206e-19
-1.4375e-19
-1.48824e-19
-1.5864e-19
-1.56471e-19
-1.61868e-19
-1.64038e-19
-1.65435e-19
-1.68301e-19
-1.72224e-19
-1.72402e-19
-1.7117e-19
-1.59299e-19
-1.29412e-19
-1.03982e-19
-7.79221e-20
-4.54759e-20
-8.29432e-22
-1.20237e-19
-1.31136e-19
-1.42885e-19
-1.44297e-19
-1.49637e-19
-1.59253e-19
-1.57024e-19
-1.62175e-19
-1.6475e-19
-1.67218e-19
-1.71492e-19
-1.68366e-19
-1.68331e-19
-1.68443e-19
-1.61047e-19
-1.28495e-19
-1.09168e-19
-7.71172e-20
-4.19295e-20
-1.78135e-21
-1.21921e-19
-1.32364e-19
-1.43649e-19
-1.42411e-19
-1.51199e-19
-1.59495e-19
-1.57925e-19
-1.62483e-19
-1.63052e-19
-1.65365e-19
-1.75779e-19
-1.7247e-19
-1.64018e-19
-1.6893e-19
-1.57858e-19
-1.26419e-19
-1.06708e-19
-7.96918e-20
-4.25634e-20
-8.48293e-21
-1.1754e-19
-1.32016e-19
-1.42133e-19
-1.44015e-19
-1.51548e-19
-1.59384e-19
-1.58383e-19
-1.6318e-19
-1.61794e-19
-1.66217e-19
-1.7313e-19
-1.75688e-19
-1.67303e-19
-1.67231e-19
-1.55969e-19
-1.32032e-19
-1.04366e-19
-7.79203e-20
-3.96302e-20
-4.86258e-21
-1.15963e-19
-1.28019e-19
-1.40708e-19
-1.43685e-19
-1.5151e-19
-1.58199e-19
-1.59172e-19
-1.64244e-19
-1.64979e-19
-1.68861e-19
-1.72786e-19
-1.74108e-19
-1.68992e-19
-1.65641e-19
-1.57028e-19
-1.27276e-19
-1.05576e-19
-7.7629e-20
-3.81513e-20
-6.73951e-21
-1.14871e-19
-1.28071e-19
-1.40796e-19
-1.44416e-19
-1.51474e-19
-1.58862e-19
-1.57071e-19
-1.63152e-19
-1.66257e-19
-1.70347e-19
-1.72816e-19
-1.74005e-19
-1.67152e-19
-1.63787e-19
-1.60155e-19
-1.25374e-19
-1.04427e-19
-7.87014e-20
-3.60531e-20
-5.35411e-21
-1.19287e-19
-1.30158e-19
-1.41252e-19
-1.4374e-19
-1.51778e-19
-1.58847e-19
-1.57756e-19
-1.63475e-19
-1.65447e-19
-1.65703e-19
-1.72174e-19
-1.72933e-19
-1.67695e-19
-1.62667e-19
-1.54139e-19
-1.30268e-19
-1.06527e-19
-7.50565e-20
-3.55586e-20
-5.2761e-21
-1.1712e-19
-1.2956e-19
-1.42043e-19
-1.44706e-19
-1.52397e-19
-1.58533e-19
-1.58063e-19
-1.63146e-19
-1.65327e-19
-1.677e-19
-1.71578e-19
-1.70329e-19
-1.69162e-19
-1.62553e-19
-1.51233e-19
-1.28784e-19
-1.05511e-19
-7.4003e-20
-3.38674e-20
-1.07887e-20
-1.16649e-19
-1.29301e-19
-1.40343e-19
-1.45301e-19
-1.51119e-19
-1.58255e-19
-1.58028e-19
-1.64706e-19
-1.65212e-19
-1.6806e-19
-1.7348e-19
-1.72108e-19
-1.68763e-19
-1.65157e-19
-1.50868e-19
-1.27955e-19
-1.03111e-19
-7.90493e-20
-3.70219e-20
-8.8331e-21
-1.15958e-19
-1.30242e-19
-1.39631e-19
-1.44082e-19
-1.5049e-19
-1.57713e-19
-1.59162e-19
-1.63841e-19
-1.64504e-19
-1.6869e-19
-1.72385e-19
-1.74391e-19
-1.66943e-19
-1.62524e-19
-1.52807e-19
-1.28292e-19
-1.01375e-19
-7.24236e-20
-3.80963e-20
-7.53871e-21
-1.16461e-19
-1.30591e-19
-1.39531e-19
-1.43765e-19
-1.51584e-19
-1.57498e-19
-1.59383e-19
-1.64157e-19
-1.64664e-19
-1.68173e-19
-1.72181e-19
-1.72445e-19
-1.66575e-19
-1.63292e-19
-1.50926e-19
-1.26224e-19
-1.02358e-19
-7.54825e-20
-3.91031e-20
-4.56831e-21
-1.18304e-19
-1.29072e-19
-1.38915e-19
-1.42651e-19
-1.51016e-19
-1.57573e-19
-1.59586e-19
-1.65003e-19
-1.6534e-19
-1.66623e-19
-1.70942e-19
-1.71402e-19
-1.65178e-19
-1.64556e-19
-1.51467e-19
-1.27784e-19
-1.05034e-19
-7.8892e-20
-4.07754e-20
-9.63097e-21
-1.19087e-19
-1.27639e-19
-1.38602e-19
-1.42599e-19
-1.51497e-19
-1.57909e-19
-1.59263e-19
-1.63794e-19
-1.65222e-19
-1.66655e-19
-1.6978e-19
-1.70679e-19
-1.66295e-19
-1.60436e-19
-1.53443e-19
-1.26641e-19
-1.02286e-19
-7.43755e-20
-3.75366e-20
-8.12356e-21
-1.17983e-19
-1.27706e-19
-1.38326e-19
-1.42299e-19
-1.50283e-19
-1.57282e-19
-1.5919e-19
-1.62901e-19
-1.65822e-19
-1.66446e-19
-1.71152e-19
-1.70823e-19
-1.67929e-19
-1.58847e-19
-1.50823e-19
-1.24888e-19
-1.03791e-19
-7.55927e-20
-3.66204e-20
-8.62888e-21
-1.17208e-19
-1.28101e-19
-1.37413e-19
-1.42567e-19
-1.50489e-19
-1.56818e-19
-1.5923e-19
-1.64296e-19
-1.66279e-19
-1.67235e-19
-1.71239e-19
-1.71618e-19
-1.67419e-19
-1.60461e-19
-1.49891e-19
-1.24488e-19
-1.03147e-19
-7.50215e-20
-3.75457e-20
-1.03098e-20
-1.18272e-19
-1.27748e-19
-1.37299e-19
-1.42602e-19
-1.50683e-19
-1.56707e-19
-1.59365e-19
-1.64978e-19
-1.66707e-19
-1.67141e-19
-1.70507e-19
-1.72163e-19
-1.67856e-19
-1.60376e-19
-1.49348e-19
-1.24691e-19
-1.01214e-19
-7.35583e-20
-3.91315e-20
-1.06115e-20
-1.18911e-19
-1.27997e-19
-1.36818e-19
-1.42533e-19
-1.50769e-19
-1.56418e-19
-1.59582e-19
-1.6504e-19
-1.65858e-19
-1.66188e-19
-1.71065e-19
-1.70985e-19
-1.67147e-19
-1.59473e-19
-1.47592e-19
-1.25505e-19
-1.03794e-19
-7.48484e-20
-3.85108e-20
-9.89255e-21
-1.18919e-19
-1.28138e-19
-1.37091e-19
-1.42464e-19
-1.50674e-19
-1.56156e-19
-1.59687e-19
-1.64752e-19
-1.65697e-19
-1.66005e-19
-1.70188e-19
-1.70774e-19
-1.66244e-19
-1.59923e-19
-1.48345e-19
-1.2625e-19
-1.02414e-19
-7.39505e-20
-3.91156e-20
-1.0188e-20
-1.19441e-19
-1.27621e-19
-1.37105e-19
-1.42396e-19
-1.50592e-19
-1.56327e-19
-1.597e-19
-1.64577e-19
-1.65955e-19
-1.65992e-19
-1.69872e-19
-1.70827e-19
-1.66676e-19
-1.59334e-19
-1.49433e-19
-1.25647e-19
-1.01162e-19
-7.40967e-20
-3.87135e-20
-9.5485e-21
-1.19584e-19
-1.27663e-19
-1.36758e-19
-1.42476e-19
-1.50447e-19
-1.56043e-19
-1.59488e-19
-1.65011e-19
-1.65387e-19
-1.65901e-19
-1.70022e-19
-1.70596e-19
-1.66292e-19
-1.58523e-19
-1.48358e-19
-1.25237e-19
-1.01111e-19
-7.47737e-20
-3.91241e-20
-9.43448e-21
-1.19551e-19
-1.2737e-19
-1.36651e-19
-1.42347e-19
-1.50519e-19
-1.56057e-19
-1.59625e-19
-1.65014e-19
-1.65663e-19
-1.65878e-19
-1.70356e-19
-1.70332e-19
-1.65444e-19
-1.58364e-19
-1.476e-19
-1.25052e-19
-1.01916e-19
-7.41998e-20
-3.89813e-20
-9.95281e-21
-1.19381e-19
-1.27282e-19
-1.36562e-19
-1.42286e-19
-1.50469e-19
-1.56189e-19
-1.59743e-19
-1.64791e-19
-1.65734e-19
-1.66081e-19
-1.70514e-19
-1.70247e-19
-1.65512e-19
-1.59038e-19
-1.47964e-19
-1.25023e-19
-1.01397e-19
-7.43637e-20
-3.89214e-20
-1.01704e-20
-1.19668e-19
-1.27356e-19
-1.36644e-19
-1.42256e-19
-1.50531e-19
-1.56102e-19
-1.59921e-19
-1.64498e-19
-1.65644e-19
-1.65796e-19
-1.69876e-19
-1.70278e-19
-1.65722e-19
-1.58971e-19
-1.47644e-19
-1.24949e-19
-1.01371e-19
-7.45423e-20
-3.91587e-20
-1.02391e-20
-1.19614e-19
-1.27528e-19
-1.36654e-19
-1.42315e-19
-1.50587e-19
-1.56029e-19
-1.59875e-19
-1.64449e-19
-1.655e-19
-1.65698e-19
-1.69741e-19
-1.70113e-19
-1.65755e-19
-1.58446e-19
-1.47228e-19
-1.24629e-19
-1.01578e-19
-7.40706e-20
-3.95188e-20
-1.03921e-20
-1.19437e-19
-1.27446e-19
-1.36554e-19
-1.42267e-19
-1.50678e-19
-1.55968e-19
-1.59891e-19
-1.64563e-19
-1.65549e-19
-1.65872e-19
-1.69949e-19
-1.70033e-19
-1.65842e-19
-1.58256e-19
-1.47157e-19
-1.24642e-19
-1.01744e-19
-7.41865e-20
-3.91155e-20
-1.01167e-20
-1.19667e-19
-1.27503e-19
-1.36475e-19
-1.42183e-19
-1.50612e-19
-1.5591e-19
-1.59952e-19
-1.64575e-19
-1.65526e-19
-1.66006e-19
-1.69714e-19
-1.7008e-19
-1.6554e-19
-1.58544e-19
-1.46974e-19
-1.25046e-19
-1.01449e-19
-7.43776e-20
-3.88656e-20
-1.0222e-20
-1.19835e-19
-1.27449e-19
-1.3638e-19
-1.42244e-19
-1.50588e-19
-1.55916e-19
-1.59915e-19
-1.64595e-19
-1.65593e-19
-1.65993e-19
-1.69712e-19
-1.7003e-19
-1.65466e-19
-1.58729e-19
-1.47223e-19
-1.25012e-19
-1.01521e-19
-7.42684e-20
-3.90435e-20
-1.0277e-20
-1.19874e-19
-1.27377e-19
-1.36378e-19
-1.42291e-19
-1.50582e-19
-1.55928e-19
-1.59889e-19
-1.64562e-19
-1.65631e-19
-1.65935e-19
-1.69729e-19
-1.70103e-19
-1.65532e-19
-1.58485e-19
-1.47235e-19
-1.24822e-19
-1.01471e-19
-7.42004e-20
-3.90453e-20
-1.02815e-20
-1.19829e-19
-1.27476e-19
-1.36419e-19
-1.42293e-19
-1.50573e-19
-1.55924e-19
-1.59903e-19
-1.64539e-19
-1.65585e-19
-1.65882e-19
-1.69716e-19
-1.70114e-19
-1.65611e-19
-1.58424e-19
-1.47094e-19
-1.24821e-19
-1.01421e-19
-7.42021e-20
-3.90265e-20
-1.02892e-20
)
;

boundaryField
{
    inlet
    {
        type            cyclic;
    }
    outlet
    {
        type            cyclic;
    }
    wall
    {
        type            zeroGradient;
    }
    procBoundary3to0
    {
        type            processor;
        value           nonuniform List<scalar> 
32
(
-1.12884e-19
-1.14389e-19
-1.20001e-19
-1.23548e-19
-1.21495e-19
-1.17369e-19
-1.1815e-19
-1.18013e-19
-1.17731e-19
-1.18003e-19
-1.18781e-19
-1.18472e-19
-1.18646e-19
-1.17598e-19
-1.18345e-19
-1.20197e-19
-1.19627e-19
-1.19338e-19
-1.20118e-19
-1.19632e-19
-1.20425e-19
-1.21164e-19
-1.21267e-19
-1.21105e-19
-1.20963e-19
-1.21415e-19
-1.21563e-19
-1.21387e-19
-1.2159e-19
-1.21646e-19
-1.21689e-19
-1.21694e-19
)
;
    }
    procBoundary3to1
    {
        type            processor;
        value           nonuniform List<scalar> 
23
(
-1.29037e-19
-1.28033e-19
-1.21147e-19
-1.23209e-19
-1.29212e-19
-1.32883e-19
-1.23827e-19
-1.21696e-19
-1.2037e-19
-1.22611e-19
-1.17468e-19
-1.15874e-19
-1.09837e-19
-1.10899e-19
-1.15094e-19
-1.17508e-19
-1.10205e-19
-1.13937e-19
-1.19362e-19
-1.16908e-19
-1.18331e-19
-1.21408e-19
-1.18866e-19
)
;
    }
    procBoundary3to2
    {
        type            processor;
        value           nonuniform List<scalar> 
60
(
1.14761e-19
1.18179e-19
1.16299e-19
1.11059e-19
1.10849e-19
1.13686e-19
1.22806e-19
1.35599e-19
1.35599e-19
1.43508e-19
1.41944e-19
1.41741e-19
1.44276e-19
1.4806e-19
1.52922e-19
1.54845e-19
1.48781e-19
1.48986e-19
1.55153e-19
1.6106e-19
1.6101e-19
1.64389e-19
1.63301e-19
1.62275e-19
1.64403e-19
1.65633e-19
1.65633e-19
1.65621e-19
1.61763e-19
1.6704e-19
1.65023e-19
1.63848e-19
1.65505e-19
1.63871e-19
1.67958e-19
1.69292e-19
1.70544e-19
1.65984e-19
1.68055e-19
1.68473e-19
1.69152e-19
1.68674e-19
1.66891e-19
1.66197e-19
1.67419e-19
1.68334e-19
1.67327e-19
1.66771e-19
1.6678e-19
1.66382e-19
1.66234e-19
1.66161e-19
1.66322e-19
1.66051e-19
1.66121e-19
1.66312e-19
1.6609e-19
1.65933e-19
1.65886e-19
1.65917e-19
)
;
    }
    procBoundary3to4
    {
        type            processor;
        value           nonuniform List<scalar> 
13
(
-1.4017e-19
-1.49792e-19
-1.68596e-19
-1.6376e-19
-1.83857e-19
-1.72597e-19
-1.93809e-19
-1.3655e-19
-1.35032e-19
-1.33186e-19
-1.48095e-19
-1.39044e-19
-1.39044e-19
)
;
    }
    procBoundary3to5
    {
        type            processor;
        value           nonuniform List<scalar> 
22
(
6.78546e-21
3.94465e-20
5.81891e-20
6.38048e-20
6.97977e-20
8.36087e-20
1.0784e-19
1.10196e-19
1.16706e-19
1.30602e-19
1.30006e-19
1.08907e-19
-1.87494e-19
-1.98938e-19
-1.76728e-19
-1.82434e-19
-1.50785e-19
-1.25121e-19
-1.19466e-19
-8.42879e-20
-6.58993e-20
-3.55061e-20
)
;
    }
}


// ************************************************************************* //
