/*--------------------------------*- C++ -*----------------------------------*\
  =========                 |
  \\      /  F ield         | OpenFOAM: The Open Source CFD Toolbox
   \\    /   O peration     | Website:  https://openfoam.org
    \\  /    A nd           | Version:  7
     \\/     M anipulation  |
\*---------------------------------------------------------------------------*/
FoamFile
{
    version     2.0;
    format      ascii;
    class       surfaceScalarField;
    location    "196000";
    object      phi;
}
// * * * * * * * * * * * * * * * * * * * * * * * * * * * * * * * * * * * * * //

dimensions      [0 3 -1 0 0 0 0];

internalField   nonuniform List<scalar> 
9414
(
2.30728e-23
1.45597e-23
1.07844e-23
1.42434e-23
2.02221e-23
1.42311e-23
2.69978e-23
1.44471e-23
-5.51576e-23
1.41869e-23
-1.64183e-23
1.41564e-23
-1.3709e-23
1.402e-23
-1.23169e-23
1.3565e-23
1.41803e-23
1.31979e-23
1.32211e-23
-3.95879e-23
1.98699e-23
-1.71508e-24
2.07928e-23
2.74922e-24
1.83627e-23
7.37971e-24
1.7614e-23
2.68621e-23
1.76963e-23
-6.6656e-23
1.60443e-23
-1.15197e-22
1.89194e-23
-5.40339e-23
1.98163e-23
-3.60985e-23
1.93326e-23
9.49802e-24
1.94317e-23
2.46991e-24
1.88628e-23
-2.6838e-24
1.85051e-23
-4.36014e-23
1.80322e-23
-2.42093e-24
1.70073e-23
5.1527e-24
1.76375e-23
8.32547e-24
1.7965e-23
6.3049e-24
1.88176e-23
2.45224e-24
2.00876e-23
1.33874e-23
1.90239e-23
9.45348e-23
1.94824e-23
6.0983e-23
1.8651e-23
6.65576e-23
1.73862e-23
-7.28479e-23
1.66064e-23
-6.70804e-23
1.71768e-23
-5.99913e-23
1.78792e-23
2.38724e-23
1.83318e-23
1.09914e-22
1.73625e-23
9.9601e-23
1.60834e-23
3.60625e-23
1.55728e-23
6.33804e-23
1.59401e-23
1.11701e-22
1.58187e-23
1.22207e-22
1.59029e-23
9.44639e-23
1.59728e-23
6.5575e-23
1.5581e-23
7.35116e-23
1.554e-23
8.41104e-23
1.60569e-23
8.51547e-23
1.59621e-23
8.5101e-23
1.59682e-23
8.1519e-23
1.59138e-23
8.0781e-23
1.5576e-23
5.0549e-23
1.44842e-23
6.10508e-23
1.47528e-23
5.50778e-23
1.41986e-23
3.1363e-23
1.35993e-23
-2.52312e-23
1.33311e-23
-3.65491e-23
1.35348e-23
-2.25819e-23
1.38145e-23
3.70637e-23
1.33142e-23
3.46604e-25
1.27841e-23
-3.94783e-23
1.25142e-23
-5.20864e-23
1.22219e-23
-5.7724e-23
1.23232e-23
-6.35706e-23
1.20707e-23
6.53158e-24
1.16708e-23
1.128e-23
-9.99386e-24
1.61039e-23
-1.15003e-22
1.34581e-23
-6.11741e-23
1.48404e-23
-4.04261e-23
1.41926e-23
-2.67736e-23
1.37667e-23
-1.9546e-24
1.43048e-23
-6.14692e-23
1.32202e-23
-5.2583e-23
1.35314e-23
-4.91408e-23
1.66887e-23
-8.81126e-23
1.57936e-23
-9.17943e-23
1.63973e-23
-9.18044e-23
1.65264e-23
-9.09647e-23
1.61214e-23
-2.51761e-23
1.65523e-23
-2.56582e-23
1.78893e-23
-2.1254e-23
1.79312e-23
-5.7341e-23
1.81267e-23
-1.32296e-22
1.82566e-23
-1.18175e-22
1.9012e-23
-1.14622e-22
1.87248e-23
-1.78904e-22
1.91844e-23
-1.36874e-22
1.94436e-23
-1.33829e-22
2.02268e-23
-1.27555e-22
2.0841e-23
-1.1502e-22
2.14065e-23
-1.19164e-22
2.13071e-23
-1.24744e-22
2.14896e-23
-2.13084e-23
2.15003e-23
-3.35917e-23
2.05599e-23
-4.79669e-23
2.0114e-23
9.15417e-24
2.05842e-23
-3.53764e-24
1.96691e-23
-5.24667e-23
1.91849e-23
3.47447e-23
1.86081e-23
2.10184e-23
1.79711e-23
4.33707e-23
1.76432e-23
3.35514e-23
1.70701e-23
-4.03969e-23
1.6749e-23
-4.76719e-23
1.63977e-23
-6.05888e-23
1.58097e-23
-5.97773e-23
1.56878e-23
-5.80506e-23
1.53993e-23
-5.20222e-23
1.48101e-23
7.79772e-25
1.48532e-23
8.88908e-23
1.4925e-23
4.88437e-23
1.49109e-23
6.99787e-24
1.47022e-23
-5.75519e-24
1.43831e-23
-5.94639e-24
1.45157e-23
-3.0611e-23
1.38708e-23
-6.02738e-23
1.36851e-23
-8.1813e-23
1.34828e-23
-8.8882e-23
1.33707e-23
-9.06182e-23
1.33139e-23
1.28887e-23
-2.32927e-22
2.43898e-23
-2.07476e-22
2.57044e-23
-2.15753e-22
2.42678e-23
-1.30989e-22
2.3106e-23
-3.98167e-23
2.25977e-23
-4.07978e-24
2.0728e-23
2.12251e-23
1.98103e-23
2.02736e-23
1.85262e-23
-1.10687e-22
1.74036e-23
-1.0685e-22
1.82584e-23
-1.03111e-22
1.76556e-23
-9.87511e-23
1.79941e-23
-1.52335e-23
1.79366e-23
1.05366e-22
1.87545e-23
4.02169e-23
1.79009e-23
4.10646e-23
1.67485e-23
3.72576e-23
1.74766e-23
3.28109e-23
1.8657e-23
2.48182e-23
1.8382e-23
5.27318e-23
1.98389e-23
5.05456e-23
1.93639e-23
6.32545e-23
2.03102e-23
5.90652e-23
1.96744e-23
1.64598e-23
1.98084e-23
-3.08269e-23
2.13405e-23
-6.28052e-23
2.19056e-23
-7.65576e-23
2.25121e-23
-8.58759e-23
2.31615e-23
-3.01662e-23
2.40365e-23
-2.06437e-24
2.38203e-23
-5.69454e-23
2.38941e-23
1.42232e-23
2.38528e-23
-2.50128e-23
2.41128e-23
4.09028e-23
2.47382e-23
3.64268e-23
2.44747e-23
4.82233e-23
2.42059e-23
1.19954e-23
2.40782e-23
6.66361e-24
2.41279e-23
-7.45097e-25
2.35835e-23
-1.53983e-23
2.32801e-23
-3.11979e-23
2.33464e-23
-3.28439e-24
2.27814e-23
-1.71996e-23
2.24089e-23
1.46165e-23
2.22854e-23
5.80535e-23
2.19807e-23
5.23428e-23
2.13602e-23
6.04169e-23
2.14956e-23
4.82287e-23
2.09171e-23
4.29998e-23
2.03849e-23
2.68387e-23
2.04278e-23
3.93944e-23
2.02324e-23
3.95764e-23
1.99243e-23
4.18562e-23
1.96424e-23
5.32534e-23
1.94836e-23
1.94934e-23
-1.43241e-22
3.33453e-23
-1.47588e-22
3.21327e-23
-1.53125e-22
3.29542e-23
-8.95131e-23
3.37119e-23
-7.80047e-23
3.32068e-23
7.36117e-25
3.24896e-23
6.30526e-23
3.02879e-23
6.4126e-24
2.76409e-23
-4.41491e-23
2.61433e-23
-5.93201e-23
2.44208e-23
-3.39505e-23
2.53239e-23
2.27729e-23
2.63477e-23
6.66246e-23
2.54746e-23
6.45372e-23
2.27563e-23
2.17481e-23
2.1599e-23
7.73907e-23
2.14789e-23
-9.02476e-24
2.12584e-23
-1.5171e-23
2.01836e-23
-2.50403e-23
2.05354e-23
-7.18398e-23
1.99586e-23
-9.03894e-23
2.01677e-23
-1.03709e-22
1.97015e-23
-1.11265e-22
2.01416e-23
-6.21081e-23
1.94548e-23
-7.31007e-23
1.84084e-23
-7.49127e-23
1.75034e-23
-5.53195e-23
1.77062e-23
-4.92097e-23
1.66958e-23
-4.88127e-23
1.57382e-23
-1.16704e-22
1.57685e-23
-1.48786e-22
1.59026e-23
-9.62001e-23
1.60257e-23
-4.77064e-23
1.6136e-23
-1.25051e-22
1.50894e-23
-1.07896e-22
1.55469e-23
-8.41788e-23
1.60062e-23
-8.49107e-23
1.57191e-23
-1.89509e-22
1.5501e-23
-2.43151e-22
1.58777e-23
-2.50262e-22
1.63081e-23
-2.23303e-22
1.691e-23
-1.58861e-22
1.74463e-23
-1.14311e-22
1.77518e-23
-8.52271e-23
1.77399e-23
-8.26445e-23
1.73553e-23
-6.72576e-23
1.73109e-23
-1.09098e-22
1.66743e-23
-1.43424e-22
1.6587e-23
-1.04495e-22
1.69419e-23
-1.3917e-22
1.64262e-23
-1.32405e-22
1.6116e-23
-1.24859e-22
1.59524e-23
-1.02842e-22
1.56431e-23
-1.10327e-22
1.52346e-23
1.46414e-23
-1.54697e-22
1.98702e-23
-1.53354e-22
2.14786e-23
-1.57385e-22
2.11973e-23
-1.64205e-22
2.17793e-23
-1.74628e-22
2.25584e-23
-2.22709e-22
2.27782e-23
-2.22413e-22
2.32774e-23
-2.54296e-22
2.33838e-23
-2.17257e-22
2.21521e-23
-1.33966e-22
2.44119e-23
-1.31552e-22
2.48731e-23
-1.68823e-22
2.43043e-23
-1.73981e-22
2.56674e-23
-1.13328e-22
2.65518e-23
-4.30838e-23
2.54457e-23
-3.64882e-23
2.43583e-23
4.87041e-24
2.2041e-23
6.3104e-24
2.16818e-23
4.56962e-24
2.12879e-23
7.97303e-23
2.11268e-23
4.65679e-24
2.08247e-23
4.22767e-23
2.01127e-23
4.12849e-23
1.96839e-23
2.1757e-24
1.99621e-23
2.25853e-23
1.9293e-23
-1.33718e-23
1.92581e-23
-5.79512e-23
1.8146e-23
-5.86025e-23
1.84077e-23
-4.58358e-23
1.8463e-23
-4.86144e-24
1.80519e-23
-3.42521e-24
1.74751e-23
3.70816e-23
1.7555e-23
1.7076e-23
1.72822e-23
5.84116e-23
1.80018e-23
5.42982e-23
1.74017e-23
3.95727e-23
1.67667e-23
2.47514e-23
1.63064e-23
6.91672e-23
1.60171e-23
1.05941e-22
1.59687e-23
7.9964e-23
1.57592e-23
8.83092e-23
1.4875e-23
8.25241e-23
1.47862e-23
4.97016e-23
1.4258e-23
1.00918e-23
1.39764e-23
1.15354e-23
1.3536e-23
-2.26295e-23
1.28161e-23
8.89767e-24
1.27213e-23
1.5657e-23
1.25163e-23
1.09446e-23
1.16351e-23
7.40142e-24
1.14503e-23
4.8932e-24
1.11834e-23
4.56093e-24
1.07246e-23
-2.09803e-23
1.05476e-23
-2.95438e-23
1.03523e-23
1.04323e-23
-6.93991e-23
2.78165e-23
-4.77646e-23
2.56207e-23
2.45636e-23
2.51797e-23
-1.98868e-23
2.46967e-23
-3.91087e-23
2.30036e-23
-5.1472e-23
2.21771e-23
-9.97336e-23
2.22369e-23
-9.77762e-23
2.4498e-23
2.84448e-23
2.53092e-23
6.29855e-23
2.38553e-23
4.07019e-23
2.42862e-23
3.61805e-23
2.41273e-23
-4.73248e-23
2.32248e-23
-1.43667e-22
2.29885e-23
-1.48348e-22
2.37719e-23
-1.55667e-22
2.39376e-23
-1.23356e-22
2.42812e-23
-1.27776e-22
2.41411e-23
-1.31302e-22
2.40946e-23
-1.51687e-22
2.32403e-23
-1.55546e-22
2.32524e-23
-1.5572e-22
2.27496e-23
-1.57001e-22
2.28499e-23
-1.5805e-22
2.27458e-23
-1.41454e-22
2.23206e-23
-1.29984e-22
2.2685e-23
-1.51137e-22
2.3268e-23
-8.69866e-23
2.38118e-23
-1.26774e-22
2.30288e-23
-5.73283e-23
2.27613e-23
1.33533e-23
2.22041e-23
1.21767e-23
2.18761e-23
1.0967e-23
2.11548e-23
-6.74292e-23
2.03368e-23
-7.29672e-23
2.03526e-23
-1.13588e-22
1.93507e-23
-5.89587e-23
1.84725e-23
-4.38387e-23
1.7401e-23
-4.95099e-23
1.6979e-23
-5.45866e-23
1.66206e-23
-5.88898e-23
1.6177e-23
-7.23105e-23
1.53525e-23
-3.81218e-23
1.56807e-23
-7.94168e-23
1.49176e-23
-1.03835e-22
1.4803e-23
-7.79219e-23
1.48468e-23
-1.29872e-22
1.41605e-23
-1.08652e-22
1.4164e-23
-1.07581e-22
1.40428e-23
-5.37956e-23
1.3945e-23
-7.35347e-23
1.36463e-23
-1.09582e-23
1.35198e-23
-1.497e-23
1.31076e-23
1.26976e-23
1.28134e-23
-1.72096e-23
1.25843e-23
-1.19209e-23
1.22971e-23
9.32419e-24
1.22566e-23
2.91174e-24
1.21073e-23
1.19604e-23
-3.26786e-22
2.02529e-23
-2.54701e-22
2.0567e-23
-2.16717e-22
2.02642e-23
-2.25236e-22
1.96338e-23
-2.36895e-22
2.00782e-23
-1.63058e-22
2.09703e-23
-8.53048e-23
2.09618e-23
-1.80959e-22
1.97804e-23
-1.86815e-22
1.89159e-23
-1.1447e-22
2.01143e-23
-1.25326e-22
1.87826e-23
-1.32902e-22
1.90704e-23
-1.3801e-22
2.03972e-23
-1.39576e-22
2.12551e-23
-1.38335e-22
2.04632e-23
-1.35683e-22
2.18304e-23
-8.50009e-23
2.24574e-23
-6.59758e-23
2.22552e-23
-6.3018e-23
2.27938e-23
-5.72319e-23
2.29835e-23
-1.45648e-23
2.24586e-23
-2.92402e-23
2.25149e-23
-3.13491e-23
2.19648e-23
-3.55836e-23
2.2249e-23
-3.85358e-23
2.19548e-23
2.14951e-23
2.19243e-23
7.56365e-24
2.1723e-23
-1.05069e-22
1.96811e-23
-1.02293e-22
1.96438e-23
-1.10794e-22
1.98255e-23
-7.31511e-23
1.97435e-23
-6.44271e-23
1.93019e-23
-3.17237e-23
1.84177e-23
-8.90874e-23
1.82511e-23
-1.1529e-22
1.76633e-23
-1.78593e-22
1.71933e-23
-1.77164e-22
1.74699e-23
-8.53051e-23
1.72388e-23
-1.46232e-22
1.69841e-23
-1.39422e-22
1.67343e-23
-9.07267e-23
1.63545e-23
-9.86129e-23
1.60557e-23
-9.3362e-23
1.55745e-23
-1.38812e-22
1.51021e-23
-1.55586e-22
1.47943e-23
-1.62065e-22
1.48069e-23
-1.09629e-22
1.46553e-23
-1.15839e-22
1.44462e-23
-1.338e-22
1.36845e-23
-7.53182e-23
1.35121e-23
-7.69928e-23
1.32042e-23
-8.00938e-23
1.26479e-23
-3.40177e-23
1.26272e-23
1.31014e-23
1.23078e-23
1.04195e-23
1.17691e-23
3.70778e-23
1.15098e-23
2.71235e-23
1.094e-23
3.33785e-23
1.08044e-23
2.572e-24
1.02925e-23
1.00055e-23
-1.22932e-22
6.96882e-24
-1.22288e-22
8.31325e-24
-1.59148e-22
1.11281e-23
-1.58068e-22
1.22793e-23
-1.42722e-22
1.1369e-23
-1.49993e-22
1.37577e-23
-1.59002e-22
1.37347e-23
-1.98599e-22
1.50352e-23
-1.96611e-22
1.61034e-23
-1.32311e-22
1.62277e-23
-1.68257e-23
1.64597e-23
-2.00445e-23
1.49988e-23
-7.61746e-23
1.43451e-23
-1.3082e-22
1.42668e-23
-1.6059e-22
1.51661e-23
-1.52776e-22
1.53824e-23
-1.46337e-22
1.53646e-23
-1.41867e-22
1.40225e-23
-1.55131e-22
1.53205e-23
-2.37133e-22
1.46534e-23
-2.4087e-22
1.50149e-23
-2.40169e-22
1.46981e-23
-1.66366e-22
1.4369e-23
-1.63164e-22
1.32849e-23
-1.56945e-22
1.28467e-23
-1.94425e-22
1.21482e-23
-3.26862e-22
1.15169e-23
-3.21649e-22
1.29481e-23
-2.49872e-22
1.34865e-23
-2.41832e-22
1.29459e-23
-2.81384e-22
1.31696e-23
-2.7495e-22
1.35404e-23
-2.5427e-22
1.4297e-23
-2.10958e-22
1.52133e-23
-2.04289e-22
1.49234e-23
-2.01405e-22
1.49991e-23
-1.85966e-22
1.59055e-23
-1.46678e-22
1.55457e-23
-1.4936e-22
1.46714e-23
-1.54954e-22
1.37518e-23
-1.17258e-22
1.4257e-23
-1.2151e-22
1.31987e-23
-1.25462e-22
1.28295e-23
-1.29354e-22
1.29591e-23
-6.45792e-23
1.26076e-23
-1.07652e-22
1.20002e-23
-1.27019e-22
1.16837e-23
-1.6248e-22
1.15076e-23
-1.24494e-22
1.16846e-23
-1.41373e-22
1.16066e-23
-1.29391e-22
1.17611e-23
-1.32452e-22
1.17945e-23
-1.31768e-22
1.15597e-23
-8.88428e-23
1.14615e-23
-8.8333e-23
1.15517e-23
-1.1851e-22
1.11645e-23
-5.94411e-23
1.09706e-23
-8.84928e-23
1.06198e-23
-8.91777e-23
1.04331e-23
-8.90462e-23
1.02152e-23
-6.93376e-23
1.0189e-23
-2.44704e-23
1.0128e-23
1.74914e-23
9.92895e-24
-5.20488e-25
9.79795e-24
-2.64496e-23
9.98256e-24
1.0065e-23
9.87229e-24
1.0906e-23
9.64096e-24
4.77887e-23
9.54977e-24
4.82452e-23
9.41133e-24
5.73169e-23
9.30972e-24
5.82523e-23
9.16702e-24
4.67528e-23
9.02516e-24
8.97651e-23
8.67034e-24
5.70869e-23
8.40921e-24
8.43729e-23
8.12623e-24
8.28091e-23
7.87768e-24
6.33207e-23
7.57245e-24
4.53361e-23
7.30399e-24
4.83886e-23
7.05439e-24
3.07344e-23
6.80979e-24
2.67603e-23
6.58978e-24
3.02117e-23
6.43048e-24
2.17583e-23
6.27504e-24
1.9716e-23
6.11884e-24
1.76513e-23
6.02389e-24
1.53565e-23
5.8631e-24
8.40481e-24
5.74285e-24
1.69019e-23
5.62486e-24
1.11642e-23
5.44584e-24
4.81321e-24
5.20396e-24
-1.85474e-24
4.86278e-24
-1.59777e-24
4.36587e-24
-3.05776e-24
3.71441e-24
-7.52648e-25
2.86003e-24
6.16943e-25
-1.39016e-22
1.70915e-23
-9.54852e-23
1.81965e-23
-1.27392e-22
1.87714e-23
-1.55628e-22
1.82767e-23
-4.90347e-23
2.11586e-23
-6.85664e-23
2.03834e-23
-5.97469e-23
2.10297e-23
-7.38284e-23
1.97453e-23
-9.66262e-23
1.96022e-23
-2.98807e-23
2.07772e-23
-4.52089e-23
1.99461e-23
2.40344e-23
1.99428e-23
1.79907e-23
1.97973e-23
1.03805e-23
1.75696e-23
-3.27386e-23
1.60906e-23
-3.97343e-23
1.44123e-23
-4.58846e-23
1.27209e-23
9.87887e-24
1.21099e-23
-3.18103e-23
9.44056e-24
-1.08516e-22
8.13442e-24
-1.00433e-22
6.62117e-24
-1.65274e-22
6.18875e-24
-1.53965e-22
5.50472e-24
-1.45865e-22
4.96827e-24
-1.39853e-22
4.45361e-24
-1.30896e-22
3.57026e-24
-8.59152e-23
3.29916e-24
-1.66209e-22
2.45616e-24
-1.87997e-22
2.67501e-24
-1.76369e-22
3.28006e-24
-1.35519e-22
3.8392e-24
-1.38883e-22
3.32756e-24
-1.281e-22
3.27294e-24
-2.27334e-22
3.61061e-24
-2.03267e-22
4.02626e-24
-2.59165e-22
4.99706e-24
-3.29784e-22
4.78931e-24
-3.75892e-22
5.60369e-24
-3.65518e-22
6.17006e-24
-3.60682e-22
7.28089e-24
-3.1573e-22
8.03698e-24
-2.93349e-22
7.95944e-24
-2.80398e-22
9.08781e-24
-2.3757e-22
8.97228e-24
-2.39248e-22
9.46335e-24
-2.55455e-22
9.70999e-24
-2.17081e-22
9.5699e-24
-2.14931e-22
9.80255e-24
-2.10473e-22
1.02152e-23
-1.26758e-22
1.06585e-23
-1.59157e-22
1.05708e-23
-1.54974e-22
1.07065e-23
-1.4301e-22
1.10202e-23
-1.76828e-22
1.12405e-23
-1.80141e-22
1.11125e-23
-1.38218e-22
1.11245e-23
-1.70524e-22
1.12561e-23
-1.14854e-22
1.1358e-23
-1.13562e-22
1.08989e-23
-8.19986e-23
1.0961e-23
-5.47646e-23
1.08213e-23
-3.95635e-23
1.05584e-23
-1.10103e-23
1.03442e-23
4.8071e-24
1.02868e-23
-5.76671e-23
9.98475e-24
-5.59475e-23
9.84472e-24
-5.37055e-23
9.94149e-24
-5.10646e-23
9.72721e-24
-2.14582e-23
9.75307e-24
-3.67863e-23
9.37199e-24
-5.36408e-23
9.18151e-24
-7.91801e-23
8.89326e-24
-7.15198e-23
8.7573e-24
-6.17276e-23
8.65114e-24
-5.14644e-23
8.55463e-24
-4.91291e-23
8.31992e-24
-4.05088e-23
8.15802e-24
-1.96195e-23
7.95627e-24
-4.18083e-23
7.82213e-24
-3.06815e-23
7.72202e-24
-4.17541e-23
7.52742e-24
-3.22536e-23
7.40704e-24
-3.00372e-23
7.26078e-24
-2.85164e-23
7.14684e-24
-3.7797e-23
6.97388e-24
-2.81443e-23
6.83735e-24
-1.95225e-23
6.61636e-24
-1.55832e-23
6.3628e-24
-1.02875e-23
6.05477e-24
-1.08437e-23
5.6202e-24
-5.29818e-24
5.07323e-24
1.91023e-24
4.35938e-24
1.59132e-26
3.45882e-24
6.31164e-25
2.3583e-24
8.9983e-25
1.04688e-23
3.82737e-24
-7.96169e-23
3.5219e-24
-1.11063e-22
1.20064e-24
-1.05233e-22
1.81331e-24
-1.42063e-22
5.98428e-25
-1.42806e-22
1.52467e-24
-1.81732e-22
2.32979e-24
-2.09483e-22
2.02531e-24
-1.88771e-22
3.38514e-24
-1.78719e-22
3.02662e-24
-1.65603e-22
2.23774e-24
-1.09582e-22
6.28887e-25
-2.18008e-22
2.66652e-25
-3.16448e-22
1.11861e-25
-2.99622e-22
5.59031e-26
-3.12501e-22
2.14685e-24
-2.87625e-22
2.07299e-24
-3.54797e-22
1.47417e-24
-3.04029e-22
2.57725e-24
-2.96423e-22
2.26954e-24
-2.93357e-22
1.97086e-24
-2.85617e-22
1.54969e-24
-2.78347e-22
1.3885e-24
-2.5778e-22
1.05969e-24
-2.47022e-22
1.51604e-24
-1.97396e-22
1.72164e-24
-1.82603e-22
1.32753e-24
-1.30683e-22
1.57271e-24
-1.04335e-22
1.78902e-24
-9.50636e-23
1.89367e-24
-8.70025e-23
1.57654e-24
-3.82526e-23
1.4462e-24
-5.15436e-23
1.1655e-24
2.31733e-23
1.09122e-24
2.59001e-23
-1.37059e-25
-7.71367e-23
-1.0062e-24
-1.48786e-22
-7.47442e-25
-1.50057e-22
-3.27267e-25
-1.52696e-22
-3.12934e-25
-1.90888e-22
-6.29476e-25
-1.51348e-22
-4.48828e-25
-1.83269e-22
-3.585e-25
-1.79037e-22
-1.78464e-25
-2.23724e-22
-1.9977e-25
-2.16657e-22
-2.40442e-25
-2.08287e-22
1.88765e-25
-1.381e-22
6.5569e-25
-1.00703e-22
8.24114e-25
-7.96928e-23
4.70458e-25
-1.27844e-22
3.42811e-25
-1.30709e-22
6.20619e-25
-1.24637e-22
8.73356e-25
-1.34304e-22
7.2791e-25
-2.15417e-22
5.5331e-25
-2.25493e-22
6.93433e-25
-1.90515e-22
6.93043e-25
-2.3566e-22
7.41382e-25
-2.79128e-22
5.21387e-25
-2.6246e-22
7.5961e-25
-2.47897e-22
7.9799e-25
-1.90475e-22
9.69159e-25
-1.45537e-22
6.09186e-25
-1.31551e-22
4.21588e-25
-1.19544e-22
2.83852e-25
-9.4312e-23
6.462e-26
-8.23205e-23
2.44373e-26
-9.27112e-23
-3.09837e-26
-1.13864e-22
-4.2953e-25
-1.00858e-22
-4.32363e-25
-1.08399e-22
-3.73593e-25
-8.56534e-23
-3.59559e-25
-7.62735e-23
-4.00668e-25
-6.70485e-23
-4.76921e-25
-6.45712e-23
-4.89816e-25
-5.26816e-23
-5.44576e-25
-6.54117e-23
-4.96476e-25
-3.68031e-23
-5.55294e-25
-3.41944e-23
-5.09758e-25
-3.37578e-23
-5.18759e-25
-5.72274e-23
-4.28756e-25
-7.04609e-23
-2.49057e-25
-6.24101e-23
-5.27776e-26
-5.52036e-23
2.05024e-25
-5.89091e-23
3.86932e-25
-5.28361e-23
6.56489e-25
-3.54606e-23
9.71697e-25
-1.91334e-23
1.20439e-24
-1.50851e-23
1.42965e-24
-1.11768e-23
1.60655e-24
-1.26668e-23
1.71874e-24
-9.86909e-24
1.73631e-24
-7.70867e-24
1.61616e-24
-7.14192e-25
1.34676e-24
-5.57259e-25
8.64296e-25
3.25168e-25
-4.49126e-23
-3.81117e-24
-3.83702e-23
-5.10914e-24
-3.72105e-23
-5.90342e-24
-6.3368e-23
-7.9847e-24
-2.49843e-23
-7.8944e-24
-1.81016e-23
-7.63373e-24
-1.11958e-23
-8.30933e-24
-1.01952e-23
-8.87822e-24
-5.22552e-23
-8.97055e-24
-1.48007e-22
-8.95932e-24
-1.12926e-22
-7.56765e-24
-1.23108e-22
-8.11756e-24
-1.60153e-22
-8.11732e-24
-1.61194e-22
-8.28589e-24
-1.60985e-22
-7.86241e-24
-1.96613e-22
-7.62599e-24
-2.78747e-22
-7.74815e-24
-1.9493e-22
-6.63556e-24
-2.75166e-22
-7.03569e-24
-2.72677e-22
-6.07061e-24
-2.65231e-22
-5.33662e-24
-2.58489e-22
-4.27174e-24
-2.531e-22
-3.5478e-24
-1.74469e-22
-3.7307e-24
-2.04851e-22
-3.3092e-24
-1.9209e-22
-3.76415e-24
-1.06451e-22
-3.37228e-24
-9.02166e-23
-2.53162e-24
-7.95058e-23
-2.84108e-24
-1.41438e-22
-2.65794e-24
-1.19871e-22
-2.19579e-24
-1.08555e-22
-2.99167e-24
-9.00987e-23
-2.81616e-24
-8.37703e-23
-3.10447e-24
-6.72757e-23
-2.8758e-24
-6.60478e-23
-2.5792e-24
-4.68998e-23
-2.58842e-24
2.12927e-23
-2.94289e-24
-4.59329e-23
-3.15419e-24
-5.23588e-24
-2.94011e-24
1.46899e-23
-3.34326e-24
-3.50616e-23
-3.49683e-24
-6.12545e-23
-3.04367e-24
-5.31189e-23
-3.14927e-24
-6.58802e-23
-3.30292e-24
-5.87845e-23
-3.24007e-24
-9.00681e-23
-3.10389e-24
-9.99083e-23
-2.92357e-24
-9.23894e-23
-2.90375e-24
-1.19904e-22
-2.64208e-24
-1.16372e-22
-2.53146e-24
-1.13987e-22
-2.64723e-24
-1.13764e-22
-2.80612e-24
-1.07349e-22
-2.76296e-24
-9.88668e-23
-2.79791e-24
-9.25942e-23
-2.74485e-24
-1.29786e-22
-3.02607e-24
-9.29396e-23
-2.9229e-24
-1.1585e-22
-2.93439e-24
-1.38587e-22
-3.2117e-24
-1.2027e-22
-3.2251e-24
-1.03387e-22
-3.2042e-24
-1.03474e-22
-3.1445e-24
-1.04311e-22
-3.33381e-24
-6.66818e-23
-3.3897e-24
-9.24108e-23
-3.56261e-24
-1.00368e-22
-3.73789e-24
-9.2338e-23
-3.50824e-24
-7.37388e-23
-3.61068e-24
-7.56692e-23
-3.71301e-24
-7.58082e-23
-3.74099e-24
-7.40215e-23
-3.75643e-24
-6.26078e-23
-3.73253e-24
-5.95268e-23
-3.71814e-24
-5.36279e-23
-3.70481e-24
-7.08176e-23
-3.70196e-24
-4.91899e-23
-3.53943e-24
-4.46531e-23
-3.46188e-24
-3.29338e-23
-3.246e-24
-1.51053e-23
-3.13709e-24
-5.65727e-24
-2.91029e-24
-1.66509e-23
-2.70218e-24
-1.40033e-23
-2.43819e-24
-1.02559e-23
-2.10829e-24
-1.75485e-23
-1.72066e-24
-1.05694e-23
-1.33771e-24
-1.60318e-23
-9.98897e-25
-1.40329e-23
-6.18355e-25
-8.81349e-24
-2.93393e-25
-1.51548e-24
-2.4325e-26
2.30096e-25
1.6091e-25
-1.75418e-24
2.27958e-25
-2.67669e-24
1.35914e-25
2.78578e-26
-1.56567e-25
3.72839e-25
-1.40528e-22
-5.04011e-24
-1.60012e-22
-3.31037e-24
-1.57553e-22
-2.30183e-24
-1.53593e-22
-3.74183e-24
-6.71957e-23
-2.89872e-24
-6.21848e-23
-4.90717e-24
-6.67304e-23
-4.89124e-24
-4.39214e-23
-6.30949e-24
-5.05713e-23
-9.14634e-24
-5.67352e-23
-9.88073e-24
-6.26e-23
-1.23173e-23
-6.65034e-23
-1.27832e-23
-7.20841e-23
-1.25245e-23
-7.44938e-23
-1.28768e-23
-1.59104e-22
-1.25094e-23
-1.66881e-22
-1.18593e-23
-1.5254e-22
-1.13659e-23
-1.59897e-22
-1.18418e-23
-1.6705e-22
-1.16492e-23
-1.7429e-22
-1.16335e-23
-1.65771e-22
-1.11302e-23
-2.08375e-22
-1.06962e-23
-2.84844e-22
-1.06266e-23
-2.16023e-22
-1.00531e-23
-2.11904e-22
-9.97979e-24
-2.245e-22
-9.73807e-24
-1.40563e-22
-8.85587e-24
-1.66931e-22
-9.65669e-24
-1.5824e-22
-1.02166e-23
-2.02641e-22
-1.07804e-23
-2.54111e-22
-1.12603e-23
-2.68666e-22
-1.06772e-23
-1.86996e-22
-1.12478e-23
-1.74444e-22
-1.13784e-23
-2.33786e-22
-1.11575e-23
-2.23227e-22
-1.09684e-23
-2.48159e-22
-1.08238e-23
-2.25666e-22
-1.13219e-23
-2.07706e-22
-1.10724e-23
-2.8878e-22
-1.04571e-23
-2.05388e-22
-9.66851e-24
-1.9737e-22
-9.37997e-24
-1.70789e-22
-9.4499e-24
-1.53888e-22
-9.11372e-24
-1.42682e-22
-8.80422e-24
-8.2549e-23
-8.66067e-24
-1.15432e-22
-8.40301e-24
-1.00712e-22
-7.9132e-24
-6.83174e-23
-7.59236e-24
-6.77882e-23
-7.83059e-24
-1.00279e-22
-8.12141e-24
-1.33428e-22
-7.94014e-24
-1.65001e-22
-7.46705e-24
-1.60414e-22
-7.51121e-24
-1.94418e-22
-7.447e-24
-2.05751e-22
-7.22835e-24
-1.98632e-22
-6.72234e-24
-2.04712e-22
-6.79916e-24
-2.37444e-22
-6.91178e-24
-2.28466e-22
-6.72149e-24
-1.90904e-22
-6.50483e-24
-1.80535e-22
-6.50854e-24
-1.84863e-22
-6.41665e-24
-1.62474e-22
-6.34347e-24
-1.48006e-22
-6.19817e-24
-1.16209e-22
-6.07832e-24
-8.40343e-23
-5.93852e-24
-6.60325e-23
-5.86932e-24
-5.97033e-23
-5.85755e-24
-4.33486e-23
-5.56973e-24
-2.05176e-23
-5.52977e-24
-2.08248e-23
-5.35693e-24
-4.19195e-23
-5.18803e-24
-1.27083e-23
-4.94991e-24
-1.54879e-23
-4.82133e-24
1.5291e-23
-4.63568e-24
2.80019e-24
-4.4812e-24
6.99912e-24
-4.21521e-24
2.46785e-24
-4.02922e-24
1.59999e-24
-3.74236e-24
-2.32169e-23
-3.52059e-24
-2.42408e-23
-3.2009e-24
-1.2678e-23
-2.80944e-24
-1.33183e-23
-2.48486e-24
-1.81716e-23
-2.12586e-24
-1.711e-23
-1.73493e-24
-7.5946e-24
-1.31452e-24
-6.45708e-24
-9.41855e-25
4.13846e-25
-6.09294e-25
4.89959e-24
-3.66878e-25
5.75719e-24
-2.33741e-25
1.99486e-25
-2.25339e-25
-1.75585e-24
-3.86918e-25
-8.55921e-25
-7.6595e-25
2.21743e-25
-1.16326e-22
-2.21456e-24
-1.21042e-22
-2.70251e-24
-1.64137e-22
-2.84315e-24
-1.60126e-22
-2.79578e-24
-1.30934e-22
-2.85033e-24
-1.46795e-22
-1.68257e-24
-1.96684e-22
-3.10602e-24
-2.10488e-22
-3.50616e-24
-2.16206e-22
-3.78969e-24
-2.6013e-22
-4.14238e-24
-2.00095e-22
-3.86392e-24
-1.64263e-22
-3.61722e-24
-1.1623e-22
-4.29582e-24
-7.1707e-23
-4.55386e-24
-6.83679e-23
-4.4127e-24
-1.00289e-22
-4.37585e-24
-1.09007e-22
-4.41048e-24
-1.02577e-22
-4.01069e-24
-1.12994e-22
-3.8979e-24
-5.616e-23
-4.2656e-24
-6.53571e-23
-4.18053e-24
-3.38365e-23
-4.19616e-24
-3.9169e-23
-4.85093e-24
-4.33976e-23
-5.42406e-24
3.20335e-23
-5.65759e-24
-6.79685e-24
-5.71763e-24
3.63e-23
-5.5681e-24
3.77454e-23
-6.38786e-24
3.73071e-23
-6.53661e-24
3.4523e-23
-6.10358e-24
6.75339e-23
-6.77334e-24
6.31679e-23
-6.84527e-24
6.67433e-23
-6.57277e-24
1.30963e-22
-6.98372e-24
1.15274e-22
-7.12394e-24
5.84031e-23
-7.04984e-24
3.38513e-23
-7.80379e-24
8.63006e-23
-7.63614e-24
1.19468e-22
-7.74861e-24
1.05989e-22
-8.16826e-24
9.83655e-23
-8.29087e-24
5.84315e-23
-8.31418e-24
5.49881e-23
-8.58255e-24
8.63331e-23
-8.68066e-24
4.82701e-23
-9.11934e-24
5.8882e-23
-9.44162e-24
5.88961e-23
-9.76285e-24
1.64006e-23
-1.02022e-23
-1.97217e-23
-1.07422e-23
-5.67453e-23
-1.09207e-23
2.43859e-23
-1.08994e-23
4.26026e-25
-1.12744e-23
-2.46527e-23
-1.13372e-23
-7.87905e-23
-1.12951e-23
-7.01369e-23
-1.12134e-23
-6.2802e-23
-1.13536e-23
-1.42797e-22
-1.13616e-23
-1.34544e-22
-1.11193e-23
-1.27082e-22
-1.08364e-23
-1.13839e-22
-1.05121e-23
-1.07459e-22
-1.0415e-23
-7.51074e-23
-1.0167e-23
-1.01172e-22
-1.01996e-23
-9.80785e-23
-1.03166e-23
-6.74756e-23
-1.00964e-23
-5.24786e-23
-9.92126e-24
-3.9187e-23
-9.89278e-24
-3.81107e-23
-9.67934e-24
-3.69347e-23
-9.57093e-24
-3.52008e-23
-9.38553e-24
-3.28764e-23
-9.31454e-24
-2.0361e-23
-9.30533e-24
-2.28774e-23
-9.2371e-24
-5.16638e-23
-9.13734e-24
-2.61777e-23
-8.99854e-24
-4.47368e-23
-8.78525e-24
-8.74121e-24
-8.53182e-24
-3.02357e-24
-8.27194e-24
-2.41191e-23
-7.95282e-24
-1.92497e-23
-7.62914e-24
-1.42551e-23
-7.18627e-24
-8.81858e-24
-6.81494e-24
-4.07786e-24
-6.37583e-24
5.09083e-25
-5.84762e-24
-7.14724e-24
-5.32697e-24
1.42785e-24
-4.73513e-24
4.35518e-24
-4.16633e-24
-7.62705e-25
-3.5989e-24
-4.4717e-24
-3.09115e-24
-6.36118e-24
-2.61085e-24
-3.40542e-25
-2.24408e-24
-2.77957e-25
-1.9888e-24
-1.29411e-24
-1.90033e-24
-8.56332e-26
-1.99319e-24
1.7708e-25
-1.16539e-22
-1.30349e-23
-1.19891e-22
-1.18566e-23
-1.47817e-22
-1.09612e-23
-1.72052e-22
-9.65e-24
-1.32706e-22
-9.00441e-24
-2.15798e-22
-9.90043e-24
-2.11588e-22
-8.52574e-24
-2.10455e-22
-8.83786e-24
-2.35638e-22
-8.40579e-24
-2.3206e-22
-6.64666e-24
-1.94196e-22
-7.24825e-24
-1.75733e-22
-5.21597e-24
-1.72009e-22
-6.33148e-24
-1.3164e-22
-6.84519e-24
-1.22363e-22
-7.0017e-24
-1.09464e-22
-8.13374e-24
-9.88099e-23
-8.47977e-24
-1.53482e-22
-8.5193e-24
-1.41185e-22
-9.57004e-24
-1.31007e-22
-9.39526e-24
-1.17844e-22
-1.11314e-23
-1.86631e-22
-1.12366e-23
-1.80174e-22
-1.12883e-23
-1.75397e-22
-1.07329e-23
-1.71762e-22
-9.97663e-24
-1.80924e-22
-1.00069e-23
-1.76123e-22
-1.00134e-23
-2.18392e-22
-8.87117e-24
-2.1972e-22
-8.1288e-24
-2.20356e-22
-7.30502e-24
-2.22994e-22
-6.33241e-24
-1.53942e-22
-6.50536e-24
-1.64276e-22
-6.07874e-24
-1.42028e-22
-5.41154e-24
-1.25801e-22
-4.74094e-24
-1.80064e-22
-4.68213e-24
-1.33281e-22
-4.55969e-24
-5.63296e-23
-4.33394e-24
-4.90188e-23
-4.71043e-24
2.7452e-25
-5.24318e-24
-8.36285e-23
-5.59444e-24
-9.50405e-23
-5.60171e-24
-4.9532e-23
-5.41018e-24
-2.23159e-23
-5.34463e-24
-4.10435e-23
-5.80647e-24
-5.48007e-23
-5.94813e-24
-2.89264e-23
-6.26548e-24
-6.69792e-23
-6.34587e-24
-7.2397e-23
-6.07985e-24
-7.73962e-23
-6.15002e-24
6.33603e-24
-6.36896e-24
-3.45541e-23
-6.43116e-24
-4.88411e-23
-6.52491e-24
-5.10972e-23
-6.29398e-24
-1.90004e-23
-6.03699e-24
-5.33163e-23
-5.82038e-24
-1.16959e-23
-5.59183e-24
-1.55369e-23
-5.50607e-24
-1.84593e-23
-5.25295e-24
-2.14443e-23
-5.30376e-24
-2.54468e-23
-4.84772e-24
-5.64121e-23
-4.58532e-24
-6.13381e-23
-4.38121e-24
-2.53125e-23
-3.95835e-24
-7.18355e-24
-3.85826e-24
2.20437e-23
-3.69392e-24
1.49755e-23
-3.62661e-24
9.02005e-24
-3.31852e-24
1.75165e-23
-3.19456e-24
2.42152e-23
-3.12168e-24
4.31273e-23
-3.05953e-24
1.56289e-23
-2.9254e-24
2.72169e-23
-2.82895e-24
1.9853e-23
-2.83975e-24
2.27906e-23
-2.73522e-24
4.90178e-23
-2.63202e-24
4.2067e-23
-2.61088e-24
3.91181e-23
-2.53253e-24
3.37852e-23
-2.44146e-24
7.00622e-24
-2.25079e-24
1.92991e-24
-2.14686e-24
-3.06014e-24
-1.96372e-24
-7.76119e-24
-1.72418e-24
-1.2208e-23
-1.52541e-24
8.10833e-24
-1.29764e-24
1.48637e-23
-1.09785e-24
2.19403e-23
-9.64784e-25
1.99348e-23
-8.16922e-25
8.32122e-24
-7.6449e-25
1.76768e-24
-7.41671e-25
3.95515e-24
-8.39534e-25
-7.71364e-25
-1.05809e-24
-2.98868e-25
-1.41121e-24
2.78718e-26
-1.90802e-24
9.80092e-26
-1.00913e-22
-6.43054e-24
-7.33715e-23
-8.34595e-24
-7.19217e-23
-9.46533e-24
-7.20565e-23
-9.48709e-24
-1.01932e-22
-9.8533e-24
-6.5449e-23
-9.09288e-24
-1.88458e-22
-8.86896e-24
-1.45671e-22
-9.09276e-24
-1.4551e-22
-9.5609e-24
-1.37186e-22
-9.91292e-24
-4.43235e-23
-1.11102e-23
-1.56088e-22
-1.22421e-23
-1.08674e-22
-1.22939e-23
-1.03642e-22
-1.19679e-23
-1.36219e-22
-1.24978e-23
-1.32386e-22
-1.20181e-23
-1.2477e-22
-1.3143e-23
-2.0238e-22
-1.34221e-23
-2.02217e-22
-1.10911e-23
-1.91937e-22
-1.0381e-23
-1.6523e-22
-9.20682e-24
-1.75006e-22
-9.21925e-24
-1.17142e-22
-7.74279e-24
-6.34486e-23
-7.19742e-24
-7.37496e-23
-7.50394e-24
-2.05203e-23
-6.79185e-24
6.80029e-23
-6.27316e-24
6.19998e-23
-5.84024e-24
9.57585e-23
-5.68955e-24
9.40004e-23
-6.19529e-24
4.69417e-23
-5.66679e-24
6.96329e-23
-5.25356e-24
1.29776e-22
-4.81574e-24
1.47268e-22
-4.71103e-24
8.87536e-23
-4.39386e-24
5.15361e-23
-4.96159e-24
4.248e-23
-3.87394e-24
-1.29528e-23
-3.96767e-24
-2.65331e-23
-3.77402e-24
2.00104e-23
-3.28204e-24
3.75716e-23
-3.19134e-24
1.50107e-23
-2.86971e-24
3.3675e-25
-2.60933e-24
-2.47271e-23
-2.55681e-24
-3.4975e-23
-2.40939e-24
-6.86997e-24
-2.29813e-24
2.17731e-23
-1.59912e-24
3.36071e-23
-1.37511e-24
2.94803e-23
-1.39293e-24
4.14584e-23
-1.38452e-24
4.88504e-23
-1.12368e-24
6.63693e-23
-8.82256e-25
1.00027e-22
-5.07428e-25
1.45354e-22
-6.83092e-25
1.42911e-22
-4.4646e-25
1.42936e-22
-1.34685e-25
9.60017e-23
5.61964e-26
1.31538e-22
4.81056e-25
1.25807e-22
5.14409e-25
1.65018e-22
6.2117e-25
1.31056e-22
6.70412e-25
1.24133e-22
6.11898e-25
1.16978e-22
9.95341e-25
1.10065e-22
1.32213e-24
1.017e-22
1.33583e-24
1.19625e-22
1.5531e-24
9.20711e-23
1.55357e-24
1.00547e-22
1.55793e-24
7.44293e-23
1.61279e-24
7.14904e-23
1.68891e-24
7.61144e-23
1.75694e-24
2.72228e-23
1.62393e-24
2.27466e-23
1.73575e-24
4.8716e-23
1.81134e-24
4.41318e-23
1.94426e-24
3.70934e-23
2.00028e-24
2.98341e-23
2.02933e-24
2.39574e-23
2.04559e-24
1.80316e-23
2.05242e-24
1.0282e-23
2.04985e-24
2.12862e-23
2.09524e-24
3.01408e-23
2.09724e-24
2.53868e-23
2.04756e-24
2.1131e-23
2.07858e-24
2.24174e-23
2.05263e-24
1.88535e-23
2.03092e-24
1.5806e-23
1.96958e-24
1.29449e-23
1.88542e-24
1.65039e-23
1.74395e-24
8.45563e-24
1.51021e-24
6.08338e-24
1.18474e-24
3.85367e-24
7.56196e-25
2.52459e-24
2.24623e-25
3.92524e-25
-4.08126e-25
4.98784e-25
-5.59854e-23
4.97192e-24
-9.91568e-23
3.46862e-24
-8.73584e-23
3.32325e-24
-9.90254e-23
-3.04856e-25
-1.05908e-22
-9.83159e-25
-9.65891e-23
-2.61848e-24
-2.18884e-22
-3.44346e-24
-2.16939e-22
-1.23554e-24
-2.1777e-22
-5.61386e-25
-2.07902e-22
-1.07109e-24
-1.99129e-22
-9.06533e-25
-1.573e-22
-5.20044e-25
-9.12683e-23
-1.54964e-24
-8.02064e-23
-3.50114e-24
-6.14539e-23
-3.54293e-24
-7.84253e-23
-3.84247e-24
-2.71085e-23
-3.1511e-24
1.16669e-23
-2.6741e-24
6.38831e-24
-3.06415e-24
7.71634e-24
-2.88299e-24
-9.65909e-24