/*--------------------------------*- C++ -*----------------------------------*\
  =========                 |
  \\      /  F ield         | OpenFOAM: The Open Source CFD Toolbox
   \\    /   O peration     | Website:  https://openfoam.org
    \\  /    A nd           | Version:  7
     \\/     M anipulation  |
\*---------------------------------------------------------------------------*/
FoamFile
{
    version     2.0;
    format      ascii;
    class       volVectorField;
    location    "24000";
    object      vorticity;
}
// * * * * * * * * * * * * * * * * * * * * * * * * * * * * * * * * * * * * * //

dimensions      [0 0 -1 0 0 0 0];

internalField   nonuniform List<vector> 
1762
(
(0.0243283 -0.0102736 -2.01649e-17)
(0.0239794 -0.0116438 -4.44262e-18)
(0.023583 -0.0130128 3.27182e-18)
(0.0231379 -0.0143797 -1.61701e-17)
(0.0226426 -0.0157429 -1.60477e-17)
(0.0220955 -0.0171008 8.49936e-18)
(0.0214881 -0.0184583 -4.11134e-19)
(0.0215193 -0.0191096 1.54263e-17)
(0.0251475 -0.0106127 -2.0699e-17)
(0.0247867 -0.0120287 -5.87161e-18)
(0.0243767 -0.0134437 5.36024e-18)
(0.0239161 -0.0148567 -1.47196e-17)
(0.0234034 -0.0162662 -1.64183e-17)
(0.0228371 -0.0176703 9.11203e-18)
(0.0222086 -0.0190741 -1.20844e-18)
(0.022213 -0.0197749 1.40488e-17)
(0.027277 -0.000730251 -8.55124e-18)
(0.0272322 -0.00219088 -7.56932e-18)
(0.0271424 -0.00365185 1.11985e-17)
(0.0270073 -0.00511336 6.73165e-18)
(0.0268263 -0.00657554 -3.67203e-18)
(0.0265988 -0.00803841 2.24456e-17)
(0.0263237 -0.00950188 -2.69184e-18)
(0.0260002 -0.0109657 -2.07375e-17)
(0.025627 -0.0124294 -8.76635e-18)
(0.0252029 -0.0138923 7.64438e-18)
(0.0247262 -0.0153533 -1.25688e-17)
(0.0241956 -0.016811 -1.55149e-17)
(0.0236094 -0.0182635 1.07328e-17)
(0.0229589 -0.0197154 -9.91484e-19)
(0.0229359 -0.0204676 1.12056e-17)
(0.0280693 0.0037737 2.06049e-17)
(0.0281621 0.00226395 1.89731e-17)
(0.0282084 0.000754605 -8.50843e-18)
(0.0282084 -0.000754603 -7.9213e-18)
(0.0281621 -0.00226395 -6.83209e-18)
(0.0280693 -0.0037737 1.32645e-17)
(0.0279297 -0.00528409 8.83441e-18)
(0.0277427 -0.00679526 -2.65777e-18)
(0.0275074 -0.00830728 2.02676e-17)
(0.0272231 -0.00982008 -3.46036e-18)
(0.0268885 -0.0113334 -1.98824e-17)
(0.0265026 -0.0128469 -1.23774e-17)
(0.0260637 -0.0143597 8.73747e-18)
(0.0255705 -0.0158708 -1.04568e-17)
(0.0250213 -0.0173789 -1.38902e-17)
(0.0244143 -0.0188817 1.38354e-17)
(0.023741 -0.0203839 -7.14273e-19)
(0.0236899 -0.0211894 8.12857e-18)
(0.0290356 0.00390073 2.25953e-17)
(0.0291314 0.00234013 1.95269e-17)
(0.0291792 0.00077999 -8.53858e-18)
(0.0291792 -0.000779988 -7.06226e-18)
(0.0291314 -0.00234013 -7.03567e-18)
(0.0290356 -0.00390073 1.35071e-17)
(0.0288913 -0.00546207 1.01342e-17)
(0.0286979 -0.00702433 -1.71971e-18)
(0.0284547 -0.0085876 1.82525e-17)
(0.0281608 -0.0101519 -4.65822e-18)
(0.0278148 -0.0117169 -1.83365e-17)
(0.0274155 -0.0132822 -1.54739e-17)
(0.0269614 -0.0148471 8.84929e-18)
(0.026451 -0.0164106 -9.13521e-18)
(0.0258824 -0.0179711 -1.25931e-17)
(0.0252539 -0.0195265 1.70621e-17)
(0.024557 -0.0210813 -9.32913e-19)
(0.0244769 -0.0219422 4.1287e-18)
(0.0300437 0.00403328 2.37153e-17)
(0.0301427 0.00241961 2.01919e-17)
(0.0301922 0.000806478 -8.91979e-18)
(0.0301922 -0.000806476 -6.06695e-18)
(0.0301427 -0.00241961 -7.47967e-18)
(0.0300437 -0.00403328 1.23795e-17)
(0.0298945 -0.00564778 1.04794e-17)
(0.0296947 -0.00726336 -1.5098e-18)
(0.0294432 -0.00888013 1.62711e-17)
(0.0291392 -0.0104981 -5.33359e-18)
(0.0287814 -0.012117 -1.59952e-17)
(0.0283683 -0.0137365 -1.75279e-17)
(0.0278985 -0.0153559 8.42446e-18)
(0.0273701 -0.016974 -7.79148e-18)
(0.0267815 -0.0185893 -1.16266e-17)
(0.0261306 -0.0201998 1.94425e-17)
(0.025409 -0.0218096 -9.89005e-19)
(0.0252992 -0.022728 5.3834e-19)
(0.0310964 0.00417171 2.43936e-17)
(0.0311988 0.00250262 2.15634e-17)
(0.0312499 0.00083414 -9.71581e-18)
(0.0312499 -0.000834138 -5.04376e-18)
(0.0311988 -0.00250262 -7.35437e-18)
(0.0310964 -0.00417171 1.14306e-17)
(0.0309423 -0.00584175 1.06125e-17)
(0.0307356 -0.00751301 -1.24559e-18)
(0.0304757 -0.00918567 1.41426e-17)
(0.0301613 -0.0108597 -6.40249e-18)
(0.0297911 -0.012535 -1.33348e-17)
(0.0293637 -0.0142111 -1.83124e-17)
(0.0288774 -0.0158874 7.16559e-18)
(0.0283304 -0.0175626 -6.43916e-18)
(0.0277209 -0.0192354 -1.02933e-17)
(0.0270467 -0.0209033 2.0777e-17)
(0.0262994 -0.0225707 -1.93499e-18)
(0.026159 -0.023549 -2.2457e-18)
(0.0321969 0.00431642 2.42012e-17)
(0.0323027 0.0025894 2.36507e-17)
(0.0323555 0.000863056 -9.93328e-18)
(0.0323555 -0.000863055 -4.32113e-18)
(0.0323027 -0.0025894 -7.59806e-18)
(0.0321969 -0.00431641 1.07977e-17)
(0.0320375 -0.00604451 1.10483e-17)
(0.0318238 -0.00777401 -9.79751e-19)
(0.031555 -0.0095051 1.2018e-17)
(0.0312298 -0.0112378 -7.87361e-18)
(0.0308468 -0.0129721 -1.07612e-17)
(0.0304045 -0.0147074 -1.83769e-17)
(0.0299011 -0.0164432 6.21213e-18)
(0.0293347 -0.0181782 -5.4247e-18)
(0.0287034 -0.019911 -8.47431e-18)
(0.028005 -0.0216392 2.20949e-17)
(0.0272309 -0.0233668 -2.96609e-18)
(0.0270587 -0.0244076 -5.52575e-18)
(0.0333482 0.00446784 2.34118e-17)
(0.0334577 0.00268019 2.56332e-17)
(0.0335123 0.000893312 -8.94589e-18)
(0.0335123 -0.000893311 -3.29126e-18)
(0.0334577 -0.00268019 -8.4705e-18)
(0.0333482 -0.00446783 9.23885e-18)
(0.0331834 -0.00625668 1.15441e-17)
(0.0329624 -0.00804712 -2.04312e-19)
(0.0326844 -0.00983937 1.01889e-17)
(0.0323479 -0.0116335 -9.06304e-18)
(0.0319516 -0.0134295 -8.50839e-18)
(0.0314938 -0.0152268 -1.89703e-17)
(0.0309726 -0.0170249 6.22887e-18)
(0.030386 -0.0188226 -5.42878e-18)
(0.0297319 -0.0206183 -7.18906e-18)
(0.0290082 -0.0224096 2.36887e-17)
(0.0282062 -0.0242004 -3.28071e-18)
(0.0280013 -0.0253064 -8.68251e-18)
(0.0345541 0.00462643 2.25296e-17)
(0.0346673 0.00277529 2.69684e-17)
(0.0347238 0.000925001 -6.72408e-18)
(0.0347238 -0.000925 -1.89642e-18)
(0.0346673 -0.00277529 -1.0151e-17)
(0.0345541 -0.00462642 7.10667e-18)
(0.0343836 -0.00647892 1.22042e-17)
(0.034155 -0.00833318 8.6994e-19)
(0.0338673 -0.0101895 8.22368e-18)
(0.0335191 -0.012048 -9.81897e-18)
(0.0331089 -0.0139087 -6.57911e-18)
(0.0326349 -0.015771 -2.03289e-17)
(0.0320952 -0.0176344 7.77247e-18)
(0.0314875 -0.0194977 -6.36082e-18)
(0.0308097 -0.0213594 -6.33397e-18)
(0.0300596 -0.0232169 2.65178e-17)
(0.0292283 -0.025074 -3.05974e-18)
(0.0289895 -0.0262482 -1.24613e-17)
(0.0358182 0.0047927 2.20778e-17)
(0.0359353 0.00287499 2.73919e-17)
(0.0359938 0.000958225 -4.41489e-18)
(0.0359938 -0.000958224 -2.5581e-19)
(0.0359354 -0.00287499 -1.20864e-17)
(0.0358182 -0.0047927 5.24799e-18)
(0.0356419 -0.00671192 1.31271e-17)
(0.0354054 -0.00863312 9.19253e-19)
(0.0351076 -0.0105566 5.83372e-18)
(0.0347472 -0.0124827 -9.70723e-18)
(0.0343225 -0.0144111 -4.05177e-18)
(0.0338316 -0.0163417 -2.23073e-17)
(0.0332725 -0.0182736 9.63881e-18)
(0.0326428 -0.0202058 -7.55968e-18)
(0.0319402 -0.0221367 -6.64602e-18)
(0.0311624 -0.0240637 3.10396e-17)
(0.0303005 -0.0259905 -1.59149e-18)
(0.0300265 -0.0272359 -1.5957e-17)
(0.0369624 0.00695647 -1.2595e-17)
(0.0371449 0.00496721 2.19875e-17)
(0.0372661 0.00297963 2.72181e-17)
(0.0373265 0.000993093 -2.65091e-18)
(0.0373265 -0.000993092 1.40246e-18)
(0.0372661 -0.00297963 -1.36844e-17)
(0.0371449 -0.00496721 3.65777e-18)
(0.0369624 -0.00695646 1.42368e-17)
(0.0367176 -0.00894793 6.78962e-19)
(0.0364094 -0.010942 3.67479e-18)
(0.0360362 -0.0129389 -8.70991e-18)
(0.0355964 -0.0149386 -2.27202e-18)
(0.0350879 -0.0169407 -2.43797e-17)
(0.0345084 -0.0189446 1.16463e-17)
(0.0338557 -0.0209492 -9.21918e-18)
(0.0331273 -0.0229528 -8.84617e-18)
(0.0323205 -0.0249529 3.50179e-17)
(0.0314266 -0.0269528 5.09874e-19)
(0.031116 -0.0282729 -1.71925e-17)
(0.0383497 0.0072134 -1.19812e-17)
(0.0385386 0.00515056 2.24618e-17)
(0.0386641 0.00308957 2.72466e-17)
(0.0387266 0.00102973 -1.56624e-18)
(0.0387266 -0.00102972 2.42082e-18)
(0.0386641 -0.00308956 -1.50881e-17)
(0.0385386 -0.00515055 2.32886e-18)
(0.0383497 -0.0072134 1.52169e-17)
(0.0380962 -0.00927869 5.09211e-19)
(0.0377771 -0.0113469 1.35962e-18)
(0.0373906 -0.0134182 -7.30323e-18)
(0.0369349 -0.0154928 -8.03924e-19)
(0.036408 -0.0175702 -2.62753e-17)
(0.0358073 -0.0196498 1.35672e-17)
(0.0351305 -0.0217305 -1.18202e-17)
(0.0343749 -0.0238106 -1.19039e-17)
(0.0335378 -0.0258875 3.80467e-17)
(0.0326103 -0.0279645 2.38266e-18)
(0.0322616 -0.0293629 -1.613e-17)
(0.0398088 0.00748364 -1.17409e-17)
(0.0400045 0.00534339 2.35125e-17)
(0.0401343 0.00320519 2.80482e-17)
(0.0401991 0.00106825 -1.09215e-18)
(0.0401991 -0.00106825 2.75112e-18)
(0.0401343 -0.00320519 -1.67859e-17)
(0.0400045 -0.00534339 9.47124e-19)
(0.0398088 -0.00748364 1.58381e-17)
(0.0395463 -0.00962659 8.98057e-20)
(0.0392156 -0.0117728 -5.59802e-19)
(0.0388152 -0.0139225 -5.62606e-18)
(0.0383429 -0.0160758 6.62255e-19)
(0.0377967 -0.0182324 -2.74649e-17)
(0.0371738 -0.0203917 1.63677e-17)
(0.0364718 -0.0225525 -1.50238e-17)
(0.0356876 -0.0247132 -1.58295e-17)
(0.0348187 -0.0268709 3.93536e-17)
(0.0338559 -0.0290291 2.93044e-18)
(0.0334676 -0.0305097 -1.34938e-17)
(0.0413451 0.00776819 -1.17577e-17)
(0.0415478 0.00554644 2.50379e-17)
(0.0416824 0.00332694 2.92399e-17)
(0.0417495 0.00110882 -9.60237e-19)
(0.0417494 -0.00110882 2.7724e-18)
(0.0416824 -0.00332694 -1.83511e-17)
(0.0415478 -0.00554644 -5.48112e-19)
(0.0413451 -0.00776819 1.5947e-17)
(0.0410731 -0.00999293 -9.05456e-19)
(0.0407305 -0.0122212 -1.79727e-18)
(0.0403154 -0.0144535 -3.56917e-18)
(0.0398257 -0.0166898 1.75908e-18)
(0.0392592 -0.0189299 -2.75353e-17)
(0.0386131 -0.0211731 1.98892e-17)
(0.0378845 -0.0234183 -1.75601e-17)
(0.0370705 -0.0256638 -1.87272e-17)
(0.0361681 -0.0279069 3.90073e-17)
(0.0351682 -0.0301506 1.53036e-18)
(0.0347384 -0.0317177 -1.03617e-17)
(0.0429645 0.00806817 -1.15666e-17)
(0.0431747 0.00576049 2.70457e-17)
(0.0433141 0.00345528 2.99673e-17)
(0.0433836 0.00115159 -1.01691e-18)
(0.0433836 -0.00115159 2.82388e-18)
(0.0433141 -0.00345528 -1.98753e-17)
(0.0431747 -0.00576049 -2.06664e-18)
(0.0429646 -0.00806817 1.62714e-17)
(0.0426826 -0.0103791 -2.62305e-18)
(0.0423274 -0.012694 -3.58531e-18)
(0.0418969 -0.0150133 -1.07909e-18)
(0.0413891 -0.0173371 2.66967e-18)
(0.0408013 -0.0196652 -2.76341e-17)
(0.0401307 -0.021997 2.33622e-17)
(0.0393742 -0.0243313 -1.95014e-17)
(0.0385288 -0.0266663 -2.04544e-17)
(0.0375912 -0.0289994 3.79935e-17)
(0.0365523 -0.0313334 -6.26677e-20)
(0.0360792 -0.0329915 -6.72534e-18)
(0.0446738 0.00838479 -1.106e-17)
(0.0448916 0.00598641 2.85331e-17)
(0.0450362 0.00359073 2.99376e-17)
(0.0451083 0.00119672 -9.02095e-19)
(0.0451083 -0.00119672 3.47842e-18)
(0.0450362 -0.00359073 -2.13582e-17)
(0.0448916 -0.00598641 -4.40368e-18)
(0.0446738 -0.00838479 1.671e-17)
(0.0443814 -0.0107868 -3.86397e-18)
(0.0440129 -0.0131931 -5.89324e-18)
(0.0435663 -0.0156043 1.03433e-18)
(0.0430393 -0.0180204 4.47019e-18)
(0.0424291 -0.0204415 -2.80093e-17)
(0.0417328 -0.0228668 2.59639e-17)
(0.040947 -0.0252951 -2.10787e-17)
(0.0400685 -0.0277248 -2.1987e-17)
(0.0390939 -0.0301529 3.58709e-17)
(0.0380139 -0.0325824 -1.21049e-18)
(0.0374953 -0.0343365 -3.18745e-18)
(0.0464799 0.00871939 -1.04002e-17)
(0.046706 0.00622516 2.92913e-17)
(0.046856 0.00373388 3.02474e-17)
(0.0469307 0.00124442 -3.95749e-19)
(0.0469307 -0.00124442 4.1974e-18)
(0.046856 -0.00373388 -2.24683e-17)
(0.046706 -0.00622515 -7.49285e-18)
(0.04648 -0.00871939 1.73147e-17)
(0.0461766 -0.0112176 -4.40007e-18)
(0.0457942 -0.0137205 -8.49795e-18)
(0.0453306 -0.0162288 2.39822e-18)
(0.0447834 -0.0187427 6.53375e-18)
(0.0441497 -0.021262 -2.78589e-17)
(0.0434262 -0.0237861 2.84383e-17)
(0.0426096 -0.026314 -2.20029e-17)
(0.0416962 -0.0288437 -2.32249e-17)
(0.0406825 -0.0313724 3.25645e-17)
(0.0395591 -0.0339028 -3.34107e-18)
(0.0389928 -0.0357582 5.11495e-19)
(0.048391 0.00907343 -9.89687e-18)
(0.0486257 0.00647777 3.01098e-17)
(0.0487813 0.00388534 3.11747e-17)
(0.0488589 0.00129489 1.37852e-19)
(0.0488589 -0.00129489 4.57218e-18)
(0.0487813 -0.00388534 -2.31733e-17)
(0.0486257 -0.00647777 -1.08831e-17)
(0.0483911 -0.00907343 1.77704e-17)
(0.0480761 -0.0116734 -4.05601e-18)
(0.047679 -0.0142786 -1.17232e-17)
(0.0471976 -0.0168897 2.91221e-18)
(0.0466291 -0.0195069 8.52195e-18)
(0.0459705 -0.0221303 -2.71014e-17)
(0.0452185 -0.0247591 3.07858e-17)
(0.0443693 -0.0273923 -2.25261e-17)
(0.0434191 -0.0300279 -2.38134e-17)
(0.0423641 -0.0326631 2.93967e-17)
(0.0411949 -0.0353005 -5.73215e-18)
(0.0405783 -0.0372631 4.43681e-18)
(0.0504159 0.00944856 -9.3616e-18)
(0.0506596 0.00674543 3.07189e-17)
(0.0508212 0.00404581 3.26799e-17)
(0.0509018 0.00134836 6.66688e-19)
(0.0509018 -0.00134836 4.37012e-18)
(0.0508212 -0.00404581 -2.30898e-17)
(0.0506596 -0.00674543 -1.36423e-17)
(0.0504159 -0.00944856 1.74837e-17)
(0.0500887 -0.0121564 -3.5887e-18)
(0.0496761 -0.01487 -1.52341e-17)
(0.0491758 -0.01759 2.78115e-18)
(0.0485849 -0.0203168 1.06484e-17)
(0.0479001 -0.0230505 -2.62073e-17)
(0.0471179 -0.0257903 3.31446e-17)
(0.0462342 -0.0285351 -2.27619e-17)
(0.0452451 -0.0312831 -2.43147e-17)
(0.0441466 -0.0340312 2.75629e-17)
(0.0429288 -0.0367821 -8.32228e-18)
(0.0422593 -0.038858 8.44362e-18)
(0.0525642 0.00984659 -9.34152e-18)
(0.0528175 0.00702942 3.04607e-17)
(0.0529855 0.00421608 3.46445e-17)
(0.0530692 0.00140509 1.4571e-18)
(0.0530692 -0.00140509 3.73299e-18)
(0.0529855 -0.00421608 -2.24188e-17)
(0.0528175 -0.00702942 -1.54813e-17)
(0.0525642 -0.00984659 1.61339e-17)
(0.0522241 -0.0126689 -3.23319e-18)
(0.0517952 -0.0154975 -1.81321e-17)
(0.0512749 -0.0183331 2.01327e-18)
(0.0506602 -0.0211763 1.26292e-17)
(0.0499477 -0.0240269 -2.56079e-17)
(0.0491335 -0.0268845 3.53612e-17)
(0.0482135 -0.0297479 -2.30987e-17)
(0.0471832 -0.0326152 -2.53582e-17)
(0.0460385 -0.0354832 2.71557e-17)
(0.0447693 -0.0383546 -1.17095e-17)
(0.0440439 -0.0405508 1.22649e-17)
(0.0548469 0.0102695 -9.79268e-18)
(0.0551103 0.00733117 2.93287e-17)
(0.055285 0.00439699 3.66093e-17)
(0.0553721 0.00146537 2.28296e-18)
(0.0553721 -0.00146538 2.83788e-18)
(0.055285 -0.00439699 -2.17957e-17)
(0.0551103 -0.00733117 -1.64153e-17)
(0.0548469 -0.0102695 1.49363e-17)
(0.0544931 -0.0132135 -2.84098e-18)
(0.0540468 -0.0161643 -2.11999e-17)
(0.0535054 -0.0191228 1.39931e-18)
(0.0528656 -0.0220895 1.45707e-17)
(0.0521237 -0.0250646 -2.56433e-17)
(0.0512757 -0.0280475 3.77615e-17)
(0.0503171 -0.0310369 -2.30486e-17)
(0.0492431 -0.0340309 -2.66617e-17)
(0.0480494 -0.0370265 2.69952e-17)
(0.0467256 -0.040026 -1.49891e-17)
(0.0459411 -0.0423499 1.47666e-17)
(0.0572759 0.0107196 -1.02845e-17)
(0.0575501 0.00765228 2.76523e-17)
(0.0577319 0.00458951 3.83148e-17)
(0.0578225 0.00152952 2.95137e-18)
(0.0578225 -0.00152952 1.90515e-18)
(0.0577319 -0.00458951 -2.12135e-17)
(0.0575501 -0.00765228 -1.68321e-17)
(0.0572759 -0.0107196 1.40843e-17)
(0.0569077 -0.013793 -2.83278e-18)
(0.056443 -0.0168738 -2.48436e-17)
(0.0558792 -0.0199632 1.2694e-18)
(0.0552127 -0.0230615 1.73455e-17)
(0.0544396 -0.026169 -2.63407e-17)
(0.0535557 -0.0292852 3.97426e-17)
(0.0525561 -0.0324088 -2.14438e-17)
(0.0514358 -0.0355379 -2.80553e-17)
(0.05019 -0.0386693 2.58805e-17)
(0.0488082 -0.0418052 -1.66026e-17)
(0.047961 -0.044265 1.51776e-17)
(0.0598648 0.0111993 -1.02461e-17)
(0.0601504 0.00799453 2.62212e-17)
(0.0603398 0.0047947 3.922e-17)
(0.0604342 0.00159789 3.33969e-18)
(0.0604342 -0.00159789 9.03214e-19)
(0.0603398 -0.0047947 -2.04678e-17)
(0.0601505 -0.00799453 -1.67938e-17)
(0.0598648 -0.0111993 1.32716e-17)
(0.0594812 -0.0144107 -3.34934e-18)
(0.058997 -0.0176302 -2.86958e-17)
(0.0584093 -0.0208589 1.06827e-18)
(0.0577145 -0.0240976 1.9853e-17)
(0.0569084 -0.0273463 -2.75003e-17)
(0.0559862 -0.0306047 4.15242e-17)
(0.054943 -0.0338714 -1.86289e-17)
(0.0537735 -0.0371445 -2.90426e-17)
(0.0524722 -0.0404206 2.37552e-17)
(0.0510287 -0.0437021 -1.57956e-17)
(0.0501149 -0.0463066 1.52203e-17)
(0.0626287 0.0117114 -9.20181e-18)
(0.0629265 0.00835992 2.5043e-17)
(0.0631239 0.00501376 3.91019e-17)
(0.0632223 0.00167088 3.55604e-18)
(0.0632223 -0.00167088 2.87494e-19)
(0.0631239 -0.00501376 -1.94268e-17)
(0.0629265 -0.00835992 -1.60873e-17)
(0.0626287 -0.0117114 1.24173e-17)
(0.0622287 -0.0150701 -4.11004e-18)
(0.0617237 -0.0184377 -3.24671e-17)
(0.0611107 -0.0218153 5.54069e-19)
(0.0603857 -0.0252038 2.22091e-17)
(0.0595442 -0.0286033 -2.95544e-17)
(0.0585814 -0.0320135 4.31355e-17)
(0.0574918 -0.0354331 -1.49273e-17)
(0.0562697 -0.0388599 -2.90946e-17)
(0.0549094 -0.0422908 2.12227e-17)
(0.0533999 -0.0457277 -1.44463e-17)
(0.0524152 -0.0484866 1.66089e-17)
(0.0655844 0.0122591 -7.96206e-18)
(0.0658951 0.00875067 2.38231e-17)
(0.0661011 0.00524802 3.85193e-17)
(0.0662038 0.00174894 4.09852e-18)
(0.0662038 -0.00174894 -1.25793e-19)
(0.0661011 -0.00524802 -1.83398e-17)
(0.0658951 -0.00875067 -1.47313e-17)
(0.0655844 -0.0122591 1.13663e-17)
(0.0651669 -0.0157754 -4.92177e-18)
(0.0646398 -0.0193013 -3.5739e-17)
(0.0639997 -0.0228381 -8.56163e-19)
(0.0632425 -0.0263869 2.45908e-17)
(0.0623634 -0.0299477 -3.20915e-17)
(0.0613572 -0.0335203 4.46652e-17)
(0.060218 -0.0371034 -1.09045e-17)
(0.0589397 -0.0406948 -2.99586e-17)
(0.0575164 -0.0442911 1.80046e-17)
(0.0559364 -0.0478944 -1.34715e-17)
(0.054876 -0.0508183 2.03473e-17)
(0.068751 0.0128459 -6.64771e-18)
(0.0690755 0.0091693 2.27875e-17)
(0.0692907 0.005499 3.76207e-17)
(0.0693979 0.00183256 4.64745e-18)
(0.0693979 -0.00183257 -4.33691e-19)
(0.0692907 -0.005499 -1.72541e-17)
(0.0690756 -0.0091693 -1.29215e-17)
(0.068751 -0.0128459 9.90461e-18)
(0.0683148 -0.016531 -5.58424e-18)
(0.067764 -0.0202265 -3.82209e-17)
(0.0670949 -0.023934 -2.43524e-18)
(0.0663033 -0.0276544 2.66067e-17)
(0.065384 -0.0313882 -3.54008e-17)
(0.0643313 -0.0351348 4.6081e-17)
(0.0631391 -0.0388931 -6.07476e-18)
(0.0618008 -0.0426609 -3.12341e-17)
(0.0603099 -0.0464345 1.44658e-17)
(0.0586545 -0.0502161 -1.41986e-17)
(0.0575132 -0.0533168 2.56102e-17)
(0.0721498 0.0134757 -5.14777e-18)
(0.0724892 0.00961864 2.17074e-17)
(0.0727142 0.00576839 3.66824e-17)
(0.0728263 0.00192232 5.00156e-18)
(0.0728263 -0.00192233 -6.1699e-19)
(0.0727142 -0.00576839 -1.60243e-17)
(0.0724893 -0.00961864 -1.06586e-17)
(0.0721498 -0.0134757 8.32255e-18)
(0.0716936 -0.017342 -6.45519e-18)
(0.0711174 -0.0212197 -3.99783e-17)
(0.0704174 -0.0251103 -3.22593e-18)
(0.0695889 -0.0290151 2.8686e-17)
(0.0686264 -0.0329344 -3.91274e-17)
(0.067524 -0.0368679 4.7183e-17)
(0.066275 -0.0408144 -9.47518e-19)
(0.0648723 -0.0447715 -3.33855e-17)
(0.0633089 -0.0487355 9.89786e-18)
(0.0615726 -0.0527085 -1.43599e-17)
(0.0603444 -0.0559987 2.98482e-17)
(0.0753275 0.0182143 -1.18068e-17)
(0.0758052 0.0141531 -3.31114e-18)
(0.0761606 0.0101019 2.05357e-17)
(0.0763961 0.00605811 3.56743e-17)
(0.0765134 0.00201886 5.16552e-18)
(0.0765134 -0.00201886 -1.01425e-18)
(0.0763961 -0.00605812 -1.45499e-17)
(0.0761606 -0.0101019 -7.9763e-18)
(0.0758052 -0.0141531 7.18014e-18)
(0.0753275 -0.0182143 -8.07017e-18)
(0.0747241 -0.0222878 -4.15685e-17)
(0.0739908 -0.0263755 -3.24079e-18)
(0.0731226 -0.0304785 3.07918e-17)
(0.0721138 -0.0345975 -4.32088e-17)
(0.0709579 -0.038732 4.83753e-17)
(0.0696478 -0.0428808 4.19021e-18)
(0.0681759 -0.0470415 -3.55143e-17)
(0.0665347 -0.0512104 4.82942e-18)
(0.0647113 -0.0553892 -1.4163e-17)
(0.0633898 -0.0588832 3.25598e-17)
(0.0792438 0.0191544 -1.23237e-17)
(0.0797447 0.0148831 -1.23834e-18)
(0.0801172 0.0106227 1.90487e-17)
(0.0803641 0.00637035 3.47445e-17)
(0.080487 0.0021229 5.21078e-18)
(0.0804871 -0.0021229 -1.88911e-18)
(0.0803641 -0.00637036 -1.25844e-17)
(0.0801172 -0.0106227 -5.20872e-18)
(0.0797447 -0.0148831 6.59671e-18)
(0.0792438 -0.0191544 -9.86066e-18)
(0.0786111 -0.023439 -4.33517e-17)
(0.0778419 -0.027739 -2.95332e-18)
(0.0769311 -0.0320557 3.21536e-17)
(0.0758723 -0.0363898 -4.71898e-17)
(0.0746589 -0.040741 4.94663e-17)
(0.073283 -0.0451079 1.01227e-17)
(0.0717365 -0.0494881 -3.72463e-17)
(0.0700114 -0.0538777 -5.35754e-21)
(0.0680942 -0.0582782 -1.45608e-17)
(0.0666721 -0.0619918 3.53655e-17)
(0.0834737 0.0201697 -1.11584e-17)
(0.0839995 0.0156716 6.66804e-19)
(0.0843906 0.0111852 1.71329e-17)
(0.0846497 0.00670759 3.43492e-17)
(0.0847787 0.00223526 5.4497e-18)
(0.0847787 -0.00223527 -3.41113e-18)
(0.0846497 -0.0067076 -1.0806e-17)
(0.0843906 -0.0111852 -2.33155e-18)
(0.0839995 -0.0156716 7.10978e-18)
(0.0834737 -0.0201697 -1.11116e-17)
(0.0828092 -0.0246824 -4.58266e-17)
(0.0820014 -0.0292117 -3.4108e-18)
(0.0810444 -0.0337592 3.28939e-17)
(0.0799318 -0.0383257 -5.05663e-17)
(0.0786561 -0.0429108 5.03201e-17)
(0.0772092 -0.0475133 1.58243e-17)
(0.0755823 -0.0521305 -3.77237e-17)
(0.0737665 -0.0567584 -4.72333e-18)
(0.0717478 -0.0613984 -1.4752e-17)
(0.0702171 -0.0653488 3.82944e-17)
(0.0880526 0.0212689 -8.38705e-18)
(0.0886055 0.0165251 1.95046e-18)
(0.0890165 0.0117942 1.45271e-17)
(0.0892889 0.00707266 3.44801e-17)
(0.0894246 0.0023569 5.65663e-18)
(0.0894246 -0.00235691 -5.09737e-18)
(0.0892889 -0.00707267 -9.00227e-18)
(0.0890166 -0.0117942 2.17125e-19)
(0.0886055 -0.0165251 7.76237e-18)
(0.0880526 -0.0212689 -1.17252e-17)
(0.0873538 -0.0260283 -4.72127e-17)
(0.086504 -0.0308059 -4.93735e-18)
(0.0854972 -0.0356033 3.30335e-17)
(0.0843262 -0.0404212 -5.29964e-17)
(0.0829832 -0.0452596 5.08554e-17)
(0.0814593 -0.0501171 2.1033e-17)
(0.0797451 -0.0549908 -3.71056e-17)
(0.0778311 -0.0598765 -9.90945e-18)
(0.0757025 -0.0647756 -1.54884e-17)
(0.074054 -0.0689821 4.17811e-17)
(0.0930211 0.0224615 -5.25281e-18)
(0.0936034 0.0174513 2.84646e-18)
(0.0940362 0.012455 1.1895e-17)
(0.094323 0.0074688 3.48776e-17)
(0.0944658 0.0024889 6.00369e-18)
(0.0944658 -0.0024889 -6.57166e-18)
(0.094323 -0.00746881 -7.23122e-18)
(0.0940363 -0.012455 2.27699e-18)
(0.0936034 -0.0174513 7.61319e-18)
(0.0930211 -0.0224615 -1.14727e-17)
(0.0922851 -0.0274888 -4.73161e-17)
(0.0913898 -0.0325357 -6.29121e-18)
(0.0903287 -0.0376041 3.30904e-17)
(0.0890944 -0.042695 -5.50074e-17)
(0.0876781 -0.0478081 5.08235e-17)
(0.0860706 -0.0529421 2.4939e-17)
(0.0842617 -0.058094 -3.54797e-17)
(0.082241 -0.0632593 -1.35796e-17)
(0.079993 -0.0684393 -1.75173e-17)
(0.0782164 -0.0729234 4.34843e-17)
(0.098426 0.0237589 -2.59992e-18)
(0.0990403 0.0184589 2.90181e-18)
(0.0994969 0.0131738 9.41139e-18)
(0.0997993 0.00789975 3.47773e-17)
(0.09995 0.00263249 6.2435e-18)
(0.09995 -0.00263249 -7.36316e-18)
(0.0997993 -0.00789975 -5.27244e-18)
(0.0994969 -0.0131738 3.78806e-18)
(0.0990403 -0.0184588 7.07722e-18)
(0.098426 -0.0237589 -1.07116e-17)
(0.0976493 -0.0290775 -4.64217e-17)
(0.0967044 -0.0344174 -6.80476e-18)
(0.0955843 -0.0397806 3.2661e-17)
(0.0942808 -0.0451682 -5.74396e-17)
(0.0927848 -0.0505801 5.13369e-17)
(0.0910861 -0.0560147 2.85532e-17)
(0.089174 -0.061469 -3.38464e-17)
(0.087037 -0.0669382 -1.62936e-17)
(0.0846589 -0.0724233 -1.94449e-17)
(0.0827425 -0.0772089 4.38736e-17)
(0.104321 0.025174 -1.74596e-18)
(0.10497 0.0195578 2.23127e-18)
(0.105453 0.0139578 7.20642e-18)
(0.105772 0.00836978 3.40795e-17)
(0.105932 0.0027891 6.38563e-18)
(0.105932 -0.00278911 -7.84027e-18)
(0.105772 -0.00836979 -3.38092e-18)
(0.105453 -0.0139578 5.27777e-18)
(0.10497 -0.0195577 6.44708e-18)
(0.104321 -0.025174 -1.06403e-17)
(0.1035 -0.0308102 -4.50746e-17)
(0.102501 -0.0364695 -5.21696e-18)
(0.101316 -0.0421542 3.30017e-17)
(0.0999368 -0.0478653 -6.07173e-17)
(0.0983535 -0.0536028 5.15386e-17)
(0.0965552 -0.0593651 3.16466e-17)
(0.0945301 -0.0651489 -3.24602e-17)
(0.092266 -0.0709491 -1.61052e-17)
(0.0897455 -0.0767665 -2.13684e-17)
(0.0876761 -0.0818802 4.33761e-17)
(0.110768 0.0267215 -2.49609e-18)
(0.111456 0.0207596 8.4277e-19)
(0.111967 0.0148153 4.9665e-18)
(0.112305 0.00888387 3.27328e-17)
(0.112474 0.0029604 6.49413e-18)
(0.112474 -0.00296041 -8.1264e-18)
(0.112305 -0.00888388 -1.78965e-18)
(0.111967 -0.0148153 6.64444e-18)
(0.111456 -0.0207596 5.45202e-18)
(0.110768 -0.0267215 -1.10998e-17)
(0.109898 -0.0327051 -4.37319e-17)
(0.108839 -0.0387137 -2.39134e-18)
(0.107584 -0.0447497 3.50111e-17)
(0.106121 -0.0508145 -6.40174e-17)
(0.104442 -0.0569078 5.18034e-17)
(0.102535 -0.063028 3.51575e-17)
(0.100386 -0.0691717 -3.18833e-17)
(0.0979819 -0.0753334 -1.49158e-17)
(0.0953052 -0.0815134 -2.37205e-17)
(0.0930678 -0.0869852 4.24523e-17)
(0.117839 0.0284189 -3.39295e-18)
(0.118569 0.0220778 -1.32096e-18)
(0.119112 0.0157558 2.20314e-18)
(0.119471 0.00944776 3.09363e-17)
(0.11965 0.00314829 6.78051e-18)
(0.11965 -0.0031483 -8.37972e-18)
(0.119471 -0.00944776 -3.81571e-19)
(0.119112 -0.0157558 7.7347e-18)
(0.118569 -0.0220778 3.90098e-18)
(0.117839 -0.0284189 -1.07256e-17)
(0.116915 -0.0347833 -4.1627e-17)
(0.115791 -0.0411748 -1.06483e-18)
(0.114457 -0.047596 3.74706e-17)
(0.112903 -0.0540482 -6.57878e-17)
(0.111118 -0.0605314 5.17161e-17)
(0.10909 -0.0670437 3.78842e-17)
(0.106804 -0.0735814 -3.06841e-17)
(0.104247 -0.0801387 -1.31966e-17)
(0.101398 -0.0867154 -2.54896e-17)
(0.0989753 -0.0925786 4.00831e-17)
(0.125618 0.030286 -3.98844e-18)
(0.126395 0.023528 -3.55258e-18)
(0.126972 0.0167905 -8.62268e-19)
(0.127355 0.0100681 2.89372e-17)
(0.127545 0.003355 6.94431e-18)
(0.127545 -0.00335501 -8.68661e-18)
(0.127355 -0.0100681 1.13209e-18)
(0.126972 -0.0167905 8.28011e-18)
(0.126395 -0.023528 2.19335e-18)
(0.125618 -0.030286 -9.79445e-18)
(0.124634 -0.0370693 -3.83349e-17)
(0.123437 -0.0438818 -5.7248e-19)
(0.122016 -0.0507264 3.89737e-17)
(0.120361 -0.0576044 -6.5994e-17)
(0.118459 -0.0645158 5.15415e-17)
(0.116297 -0.0714587 3.96693e-17)
(0.11386 -0.0784288 -2.90936e-17)
(0.111133 -0.08542 -9.98767e-18)
(0.108094 -0.0924316 -2.7275e-17)
(0.105465 -0.0987239 3.68122e-17)
(0.134201 0.0323462 -4.77547e-18)
(0.135031 0.0251282 -5.97652e-18)
(0.135647 0.0179323 -3.81252e-18)
(0.136055 0.0107527 2.70162e-17)
(0.136258 0.00358312 6.76139e-18)
(0.136258 -0.00358313 -8.92382e-18)
(0.136055 -0.0107527 3.13423e-18)
(0.135647 -0.0179323 8.31276e-18)
(0.135031 -0.0251282 1.74052e-19)
(0.134201 -0.0323462 -8.90651e-18)
(0.133151 -0.0395915 -3.42026e-17)
(0.131872 -0.0468683 9.82608e-19)
(0.130355 -0.0541795 4.00319e-17)
(0.128587 -0.0615267 -6.61606e-17)
(0.126555 -0.0689099 5.14183e-17)
(0.124244 -0.0763267 4.07511e-17)
(0.121639 -0.0837727 -2.74143e-17)
(0.118722 -0.091241 -5.30953e-18)
(0.115472 -0.0987304 -2.87683e-17)
(0.112615 -0.105494 3.32075e-17)
(0.143702 0.0346267 -6.01844e-18)
(0.14459 0.0268996 -7.80353e-18)
(0.14525 0.0191964 -6.58354e-18)
(0.145687 0.0115107 2.49774e-17)
(0.145905 0.00383568 6.18844e-18)
(0.145905 -0.00383569 -9.6413e-18)
(0.145687 -0.0115107 5.02259e-18)
(0.14525 -0.0191964 8.99638e-18)
(0.14459 -0.0268996 -9.92029e-19)
(0.143702 -0.0346267 -8.67475e-18)
(0.142577 -0.0423831 -2.99374e-17)
(0.141207 -0.0501732 3.43613e-18)
(0.139582 -0.0580003 4.05064e-17)
(0.137687 -0.065866 -6.42335e-17)
(0.135509 -0.0737701 5.17908e-17)
(0.133032 -0.08171 4.00031e-17)
(0.130239 -0.0896808 -2.48164e-17)
(0.127111 -0.0976749 -7.13573e-19)
(0.123625 -0.10569 -2.96696e-17)
(0.120512 -0.112972 3.05874e-17)
(0.154251 0.0371589 -7.55243e-18)
(0.155206 0.0288668 -1.02029e-17)
(0.155916 0.0206002 -9.23485e-18)
(0.156385 0.0123525 2.26361e-17)
(0.156619 0.00411619 5.12682e-18)
(0.156619 -0.0041162 -1.09662e-17)
(0.156385 -0.0123525 6.79034e-18)
(0.155916 -0.0206002 1.05027e-17)
(0.155206 -0.0288668 -2.36974e-18)
(0.154251 -0.0371589 -8.45049e-18)
(0.153043 -0.0454824 -2.45299e-17)
(0.15157 -0.0538419 6.34649e-18)
(0.149823 -0.062241 4.00247e-17)
(0.147785 -0.0706811 -6.12648e-17)
(0.145443 -0.0791619 5.23917e-17)
(0.142779 -0.0876805 3.93734e-17)
(0.139775 -0.0962314 -2.24059e-17)
(0.136409 -0.104806 2.58044e-18)
(0.132658 -0.113402 -3.04917e-17)
(0.129258 -0.121255 2.81916e-17)
(0.166003 0.0399795 -9.29764e-18)
(0.167033 0.0310583 -1.28155e-17)
(0.167799 0.0221643 -1.18604e-17)
(0.168305 0.0132904 1.96493e-17)
(0.168557 0.00442874 3.40344e-18)
(0.168557 -0.00442875 -1.3047e-17)
(0.168305 -0.0132904 8.03319e-18)
(0.167799 -0.0221643 1.24581e-17)
(0.167033 -0.0310583 -3.47983e-18)
(0.166003 -0.0399795 -7.84359e-18)
(0.164699 -0.0489341 -1.92233e-17)
(0.16311 -0.057927 1.00488e-17)
(0.161223 -0.0669618 3.83771e-17)
(0.159024 -0.07604 -5.90609e-17)
(0.156496 -0.0851608 5.37748e-17)
(0.15362 -0.094321 3.89104e-17)
(0.150376 -0.103514 -2.09936e-17)
(0.146743 -0.112731 3.65375e-18)
(0.142692 -0.121967 -2.94633e-17)
(0.138967 -0.13045 2.56673e-17)
(0.179132 0.0431307 -1.11694e-17)
(0.180249 0.0335071 -1.55542e-17)
(0.181079 0.0239122 -1.45614e-17)
(0.181628 0.0143386 1.581e-17)
(0.181901 0.00477807 5.63389e-19)
(0.181901 -0.00477808 -1.58842e-17)
(0.181628 -0.0143386 9.04988e-18)
(0.181079 -0.0239122 1.46567e-17)
(0.180249 -0.0335071 -4.30567e-18)
(0.179132 -0.0431307 -6.83101e-18)
(0.177718 -0.0527896 -1.32595e-17)
(0.175996 -0.0624888 1.37371e-17)
(0.173951 -0.072232 3.67478e-17)
(0.171567 -0.0820203 -5.72071e-17)
(0.168826 -0.0918528 5.59804e-17)
(0.165709 -0.101725 3.94524e-17)
(0.162192 -0.111631 -1.83879e-17)
(0.158253 -0.121558 5.01087e-18)
(0.153862 -0.131502 -2.75301e-17)
(0.149767 -0.140681 2.31221e-17)
(0.19384 0.0466606 -1.32014e-17)
(0.195057 0.0362507 -1.8274e-17)
(0.19596 0.0258709 -1.77378e-17)
(0.196559 0.0155134 1.09617e-17)
(0.196856 0.0051696 -3.25298e-18)
(0.196856 -0.00516961 -1.90284e-17)
(0.196559 -0.0155134 1.00379e-17)
(0.19596 -0.0258709 1.63856e-17)
(0.195057 -0.0362507 -4.3249e-18)
(0.19384 -0.0466606 -4.79269e-18)
(0.192299 -0.0571072 -6.55823e-18)
(0.190423 -0.0675959 1.72521e-17)
(0.188195 -0.0781297 3.46724e-17)
(0.185598 -0.0887099 -5.37347e-17)
(0.182612 -0.0993346 5.84159e-17)
(0.179216 -0.109999 3.88254e-17)
(0.175386 -0.120694 -1.62091e-17)
(0.171097 -0.131409 8.72353e-18)
(0.166317 -0.142134 -2.41272e-17)
(0.161798 -0.152079 1.9149e-17)
(0.210349 0.0506229 -1.50918e-17)
(0.211683 0.0393313 -2.08045e-17)
(0.212674 0.0280706 -2.21027e-17)
(0.21333 0.0168329 5.12982e-18)
(0.213656 0.00560938 -8.11187e-18)
(0.213656 -0.00560939 -2.2812e-17)
(0.21333 -0.0168329 1.14341e-17)
(0.212674 -0.0280706 1.76009e-17)
(0.211683 -0.0393313 -4.0039e-18)
(0.210349 -0.0506229 -1.35388e-18)
(0.208661 -0.0619522 9.52365e-19)
(0.206604 -0.0733241 2.05654e-17)
(0.204163 -0.0847416 3.21007e-17)
(0.201318 -0.0962051 -4.90069e-17)
(0.198048 -0.107712 5.79078e-17)
(0.19433 -0.119256 3.60988e-17)
(0.190137 -0.130827 -1.40706e-17)