/*--------------------------------*- C++ -*----------------------------------*\
  =========                 |
  \\      /  F ield         | OpenFOAM: The Open Source CFD Toolbox
   \\    /   O peration     | Website:  https://openfoam.org
    \\  /    A nd           | Version:  7
     \\/     M anipulation  |
\*---------------------------------------------------------------------------*/
FoamFile
{
    version     2.0;
    format      ascii;
    class       volScalarField;
    location    "92000";
    object      k;
}
// * * * * * * * * * * * * * * * * * * * * * * * * * * * * * * * * * * * * * //

dimensions      [0 2 -2 0 0 0 0];

internalField   nonuniform List<scalar> 
4850
(
2.25307e-07
2.25144e-07
2.25658e-07
2.25463e-07
2.25297e-07
2.26159e-07
2.25862e-07
2.25641e-07
2.25464e-07
2.25311e-07
2.26991e-07
2.26485e-07
2.26124e-07
2.25858e-07
2.25655e-07
2.25491e-07
2.28443e-07
2.27569e-07
2.26932e-07
2.26473e-07
2.26139e-07
2.25891e-07
2.25699e-07
2.30873e-07
2.29452e-07
2.28363e-07
2.2755e-07
2.26955e-07
2.26521e-07
2.26203e-07
2.25964e-07
2.25777e-07
2.34568e-07
2.32478e-07
2.3078e-07
2.29438e-07
2.28407e-07
2.27633e-07
2.2706e-07
2.26637e-07
2.26322e-07
2.26085e-07
2.3962e-07
2.36846e-07
2.34473e-07
2.32487e-07
2.3087e-07
2.29587e-07
2.28592e-07
2.27836e-07
2.27267e-07
2.2684e-07
2.26517e-07
2.26271e-07
2.26082e-07
2.25931e-07
2.4593e-07
2.42543e-07
2.3953e-07
2.36893e-07
2.3463e-07
2.32734e-07
2.31179e-07
2.29932e-07
2.28952e-07
2.28192e-07
2.27609e-07
2.27162e-07
2.26821e-07
2.26557e-07
2.26352e-07
2.26193e-07
2.26067e-07
2.25965e-07
2.53271e-07
2.49396e-07
2.45847e-07
2.42634e-07
2.39766e-07
2.37255e-07
2.35094e-07
2.3327e-07
2.31759e-07
2.30528e-07
2.29542e-07
2.28761e-07
2.28148e-07
2.2767e-07
2.27297e-07
2.27007e-07
2.2678e-07
2.26602e-07
2.26461e-07
2.26352e-07
2.61408e-07
2.57161e-07
2.53199e-07
2.49529e-07
2.46159e-07
2.43113e-07
2.40392e-07
2.38001e-07
2.35931e-07
2.34167e-07
2.32686e-07
2.31458e-07
2.30455e-07
2.29643e-07
2.28992e-07
2.28473e-07
2.28061e-07
2.27736e-07
2.27481e-07
2.27284e-07
2.27134e-07
2.27024e-07
2.26946e-07
2.26896e-07
2.70191e-07
2.65643e-07
2.61353e-07
2.57331e-07
2.53577e-07
2.50112e-07
2.46932e-07
2.44054e-07
2.41483e-07
2.39209e-07
2.37228e-07
2.35521e-07
2.34068e-07
2.32846e-07
2.31829e-07
2.3099e-07
2.30305e-07
2.29751e-07
2.29308e-07
2.2896e-07
2.28691e-07
2.2849e-07
2.28346e-07
2.28255e-07
2.2821e-07
2.28211e-07
2.28258e-07
2.28352e-07
2.28498e-07
2.79507e-07
2.74715e-07
2.70154e-07
2.65848e-07
2.61788e-07
2.57999e-07
2.54471e-07
2.51217e-07
2.48244e-07
2.45545e-07
2.43129e-07
2.40982e-07
2.39098e-07
2.37463e-07
2.36057e-07
2.3486e-07
2.33852e-07
2.33016e-07
2.3233e-07
2.31778e-07
2.31343e-07
2.31012e-07
2.30773e-07
2.30618e-07
2.30543e-07
2.30545e-07
2.30623e-07
2.30781e-07
2.31024e-07
2.31359e-07
2.31798e-07
2.32354e-07
2.89263e-07
2.84269e-07
2.79489e-07
2.74948e-07
2.70639e-07
2.66589e-07
2.62784e-07
2.59237e-07
2.5596e-07
2.52936e-07
2.50178e-07
2.47679e-07
2.45434e-07
2.43439e-07
2.41682e-07
2.40149e-07
2.38827e-07
2.37705e-07
2.36765e-07
2.35992e-07
2.35373e-07
2.34895e-07
2.34545e-07
2.34317e-07
2.34206e-07
2.34208e-07
2.34324e-07
2.34557e-07
2.34913e-07
2.35399e-07
2.36024e-07
2.368e-07
2.37742e-07
2.38868e-07
2.99382e-07
2.94222e-07
2.89265e-07
2.84528e-07
2.80018e-07
2.75754e-07
2.7172e-07
2.67937e-07
2.64415e-07
2.61138e-07
2.58122e-07
2.55356e-07
2.52834e-07
2.50561e-07
2.48521e-07
2.46712e-07
2.45124e-07
2.43754e-07
2.42587e-07
2.41612e-07
2.40821e-07
2.40205e-07
2.39748e-07
2.39448e-07
2.39302e-07
2.39305e-07
2.39458e-07
2.39765e-07
2.40229e-07
2.40859e-07
2.41657e-07
2.42635e-07
2.43803e-07
2.45178e-07
3.09798e-07
3.04502e-07
2.99399e-07
2.9451e-07
2.89835e-07
2.85393e-07
2.81177e-07
2.77199e-07
2.73479e-07
2.69994e-07
2.66765e-07
2.63792e-07
2.61052e-07
2.58564e-07
2.56311e-07
2.54296e-07
2.52503e-07
2.5094e-07
2.49593e-07
2.48455e-07
2.47525e-07
2.46795e-07
2.46249e-07
2.45889e-07
2.45712e-07
2.45718e-07
2.45901e-07
2.46271e-07
2.46826e-07
2.47573e-07
2.48511e-07
2.49651e-07
2.50998e-07
2.52567e-07
3.20456e-07
3.15047e-07
3.09832e-07
3.04822e-07
3.00013e-07
2.95429e-07
2.91064e-07
2.86925e-07
2.8304e-07
2.79388e-07
2.75985e-07
2.72841e-07
2.69926e-07
2.6726e-07
2.64839e-07
2.62659e-07
2.6071e-07
2.58998e-07
2.57514e-07
2.56257e-07
2.55221e-07
2.54405e-07
2.53789e-07
2.53387e-07
2.53186e-07
2.53192e-07
2.53401e-07
2.53816e-07
2.54444e-07
2.55278e-07
2.5632e-07
2.57582e-07
2.59066e-07
2.60783e-07
3.31311e-07
3.25813e-07
3.20509e-07
3.15407e-07
3.10487e-07
3.05792e-07
3.01298e-07
2.97033e-07
2.93019e-07
2.89229e-07
2.85683e-07
2.82397e-07
2.79336e-07
2.76529e-07
2.73973e-07
2.71659e-07
2.69581e-07
2.67747e-07
2.66153e-07
2.648e-07
2.63681e-07
2.62795e-07
2.62127e-07
2.61688e-07
2.61469e-07
2.6148e-07
2.61708e-07
2.62158e-07
2.62841e-07
2.63743e-07
2.64871e-07
2.6623e-07
2.67825e-07
2.69661e-07
3.42314e-07
3.36753e-07
3.3138e-07
3.26204e-07
3.21202e-07
3.16416e-07
3.11824e-07
3.07455e-07
3.03333e-07
2.9943e-07
2.95773e-07
2.9237e-07
2.89193e-07
2.86271e-07
2.83606e-07
2.81183e-07
2.78998e-07
2.77065e-07
2.7538e-07
2.73949e-07
2.72761e-07
2.71813e-07
2.71108e-07
2.70641e-07
2.70404e-07
2.70417e-07
2.70666e-07
2.71143e-07
2.71867e-07
2.72829e-07
2.74028e-07
2.75467e-07
2.77151e-07
2.79085e-07
3.53431e-07
3.47832e-07
3.42406e-07
3.3717e-07
3.3211e-07
3.27248e-07
3.22586e-07
3.18132e-07
3.13922e-07
3.09932e-07
3.06187e-07
3.02685e-07
2.99418e-07
2.96404e-07
2.93646e-07
2.91135e-07
2.88866e-07
2.86853e-07
2.85091e-07
2.83592e-07
2.82348e-07
2.81355e-07
2.8062e-07
2.80125e-07
2.79875e-07
2.79886e-07
2.80154e-07
2.80658e-07
2.81416e-07
2.82422e-07
2.83679e-07
2.85189e-07
2.86946e-07
2.88961e-07
3.64641e-07
3.59008e-07
3.53552e-07
3.48275e-07
3.43172e-07
3.38254e-07
3.3353e-07
3.29015e-07
3.2474e-07
3.2068e-07
3.16866e-07
3.13284e-07
3.09946e-07
3.06858e-07
3.04025e-07
3.01446e-07
2.99107e-07
2.97022e-07
2.95202e-07
2.93648e-07
2.92357e-07
2.91327e-07
2.90563e-07
2.90051e-07
2.8979e-07
2.89799e-07
2.9008e-07
2.9061e-07
2.91397e-07
2.92439e-07
2.93743e-07
2.95314e-07
2.97128e-07
2.99207e-07
3.75909e-07
3.70262e-07
3.6479e-07
3.59487e-07
3.54347e-07
3.49387e-07
3.44624e-07
3.40063e-07
3.35731e-07
3.31624e-07
3.27752e-07
3.24112e-07
3.2072e-07
3.17574e-07
3.14674e-07
3.12041e-07
3.09646e-07
3.07507e-07
3.05643e-07
3.04043e-07
3.02716e-07
3.01653e-07
3.0087e-07
3.00335e-07
3.00069e-07
3.00078e-07
3.00371e-07
3.00914e-07
3.01726e-07
3.02804e-07
3.04145e-07
3.05761e-07
3.07628e-07
3.0976e-07
3.87226e-07
3.81573e-07
3.76087e-07
3.70771e-07
3.65615e-07
3.60625e-07
3.55827e-07
3.51239e-07
3.46867e-07
3.42716e-07
3.388e-07
3.35124e-07
3.31683e-07
3.28493e-07
3.25546e-07
3.22867e-07
3.20435e-07
3.1825e-07
3.16353e-07
3.14715e-07
3.1336e-07
3.12269e-07
3.11465e-07
3.10918e-07
3.10647e-07
3.10653e-07
3.10955e-07
3.11515e-07
3.12346e-07
3.13454e-07
3.14824e-07
3.1647e-07
3.18378e-07
3.20551e-07
3.22985e-07
3.98572e-07
3.92923e-07
3.8743e-07
3.82103e-07
3.76942e-07
3.71931e-07
3.67117e-07
3.62504e-07
3.58104e-07
3.5393e-07
3.49982e-07
3.46272e-07
3.42804e-07
3.39573e-07
3.36597e-07
3.33876e-07
3.31416e-07
3.292e-07
3.27272e-07
3.2561e-07
3.24226e-07
3.23119e-07
3.22302e-07
3.21742e-07
3.2146e-07
3.2147e-07
3.21783e-07
3.22355e-07
3.23202e-07
3.24326e-07
3.25727e-07
3.27398e-07
3.29336e-07
3.31543e-07
3.34006e-07
4.09934e-07
4.04285e-07
3.98804e-07
3.93476e-07
3.88311e-07
3.83292e-07
3.78473e-07
3.73844e-07
3.69425e-07
3.65238e-07
3.61258e-07
3.57525e-07
3.54038e-07
3.50785e-07
3.47787e-07
3.45036e-07
3.42549e-07
3.40315e-07
3.38365e-07
3.36684e-07
3.35277e-07
3.34158e-07
3.33324e-07
3.32752e-07
3.32466e-07
3.32481e-07
3.32799e-07
3.33379e-07
3.34238e-07
3.35374e-07
3.368e-07
3.3849e-07
3.40452e-07
3.42685e-07
3.4518e-07
4.21291e-07
4.15656e-07
4.10184e-07
4.0487e-07
3.99702e-07
3.94689e-07
3.89863e-07
3.85237e-07
3.80805e-07
3.76608e-07
3.7261e-07
3.68862e-07
3.65364e-07
3.62097e-07
3.59077e-07
3.56304e-07
3.53808e-07
3.5156e-07
3.49586e-07
3.47891e-07
3.46474e-07
3.45346e-07
3.44501e-07
3.43916e-07
3.43627e-07
3.43644e-07
3.43961e-07
3.44545e-07
3.45423e-07
3.46567e-07
3.48006e-07
3.49719e-07
3.51698e-07
3.53942e-07
4.32633e-07
4.27023e-07
4.21567e-07
4.16276e-07
4.11111e-07
4.06107e-07
4.01282e-07
3.96655e-07
3.92224e-07
3.88018e-07
3.84013e-07
3.80259e-07
3.76751e-07
3.73483e-07
3.70452e-07
3.67659e-07
3.65154e-07
3.62893e-07
3.60911e-07
3.59196e-07
3.57773e-07
3.5664e-07
3.55789e-07
3.55199e-07
3.54906e-07
3.54926e-07
3.55245e-07
3.5583e-07
3.56717e-07
3.57871e-07
3.59323e-07
3.61044e-07
3.63044e-07
3.65294e-07
4.43951e-07
4.38376e-07
4.3294e-07
4.27672e-07
4.22524e-07
4.17534e-07
4.12714e-07
4.08094e-07
4.03668e-07
3.99452e-07
3.9545e-07
3.91699e-07
3.88187e-07
3.84914e-07
3.81877e-07
3.79077e-07
3.76562e-07
3.74302e-07
3.72305e-07
3.70583e-07
3.69157e-07
3.68011e-07
3.67159e-07
3.66573e-07
3.66274e-07
3.66299e-07
3.66613e-07
3.67202e-07
3.6809e-07
3.69259e-07
3.70712e-07
3.72448e-07
3.74457e-07
3.76713e-07
4.55244e-07
4.49697e-07
4.44294e-07
4.3905e-07
4.33919e-07
4.28949e-07
4.24146e-07
4.19539e-07
4.15122e-07
4.10903e-07
4.06907e-07
4.03154e-07
3.99644e-07
3.96371e-07
3.93335e-07
3.90538e-07
3.8801e-07
3.85753e-07
3.83756e-07
3.82028e-07
3.80603e-07
3.79447e-07
3.78597e-07
3.78003e-07
3.77707e-07
3.7773e-07
3.78039e-07
3.7863e-07
3.79529e-07
3.80709e-07
3.82161e-07
3.83908e-07
3.85915e-07
3.88181e-07
4.66503e-07
4.60988e-07
4.5562e-07
4.50399e-07
4.45298e-07
4.40351e-07
4.35568e-07
4.3098e-07
4.26577e-07
4.22357e-07
4.1837e-07
4.14622e-07
4.11118e-07
4.07851e-07
4.04819e-07
4.02026e-07
3.99491e-07
3.97231e-07
3.95236e-07
3.9351e-07
3.92082e-07
3.90925e-07
3.90074e-07
3.89478e-07
3.89184e-07
3.89208e-07
3.89513e-07
3.90101e-07
3.91002e-07
3.92192e-07
3.93649e-07
3.95398e-07
3.97408e-07
4.7771e-07
4.72238e-07
4.66902e-07
4.6171e-07
4.5664e-07
4.5172e-07
4.4697e-07
4.42397e-07
4.38013e-07
4.33801e-07
4.29828e-07
4.26088e-07
4.22586e-07
4.19328e-07
4.16305e-07
4.13518e-07
4.10987e-07
4.08729e-07
4.06739e-07
4.05015e-07
4.03579e-07
4.02429e-07
4.01572e-07
4.00982e-07
4.00688e-07
4.00706e-07
4.01016e-07
4.01599e-07
4.02502e-07
4.03693e-07
4.0515e-07
4.06903e-07
4.08923e-07
4.88869e-07
4.83441e-07
4.7814e-07
4.72985e-07
4.67939e-07
4.63058e-07
4.58335e-07
4.5378e-07
4.49421e-07
4.45226e-07
4.41271e-07
4.37543e-07
4.34046e-07
4.30802e-07
4.27781e-07
4.25003e-07
4.22477e-07
4.20224e-07
4.18241e-07
4.1653e-07
4.15087e-07
4.13945e-07
4.13087e-07
4.1249e-07
4.12205e-07
4.1222e-07
4.12526e-07
4.13107e-07
4.14005e-07
4.15197e-07
4.1666e-07
4.18407e-07
4.99959e-07
4.94579e-07
4.89326e-07
4.84205e-07
4.79193e-07
4.74347e-07
4.69654e-07
4.6513e-07
4.60792e-07
4.56623e-07
4.52679e-07
4.48968e-07
4.45488e-07
4.42254e-07
4.39236e-07
4.36478e-07
4.33956e-07
4.31713e-07
4.2974e-07
4.28033e-07
4.26594e-07
4.25453e-07
4.24595e-07
4.23999e-07
4.23714e-07
4.23726e-07
4.2403e-07
4.24616e-07
4.25509e-07
4.26703e-07
4.28159e-07
4.29909e-07
5.10984e-07
5.05654e-07
5.00442e-07
4.95373e-07
4.90395e-07
4.85588e-07
4.8093e-07
4.76429e-07
4.72117e-07
4.67974e-07
4.64055e-07
4.60363e-07
4.56893e-07
4.53674e-07
4.5067e-07
4.47926e-07
4.45416e-07
4.43188e-07
4.41215e-07
4.39516e-07
4.38079e-07
4.3694e-07
4.36086e-07
4.35497e-07
4.35214e-07
4.35224e-07
4.35525e-07
4.36113e-07
4.37001e-07
4.38189e-07
4.39645e-07
4.414e-07
5.21932e-07
5.16657e-07
5.1149e-07
5.06471e-07
5.01534e-07
4.96774e-07
4.92145e-07
4.87678e-07
4.83397e-07
4.79279e-07
4.7539e-07
4.7172e-07
4.68262e-07
4.65053e-07
4.62072e-07
4.59337e-07
4.56847e-07
4.54638e-07
4.52669e-07
4.50968e-07
4.49542e-07
4.4841e-07
4.4756e-07
4.46975e-07
4.46695e-07
4.46702e-07
4.47001e-07
4.4759e-07
4.48472e-07
4.49655e-07
4.51107e-07
4.52859e-07
5.32787e-07
5.27569e-07
5.2246e-07
5.1749e-07
5.12603e-07
5.07887e-07
5.03289e-07
4.98869e-07
4.94615e-07
4.90531e-07
4.86666e-07
4.83022e-07
4.79586e-07
4.76392e-07
4.73435e-07
4.70711e-07
4.68241e-07
4.66046e-07
4.6408e-07
4.6239e-07
4.60974e-07
4.5984e-07
4.58997e-07
4.58423e-07
4.58138e-07
4.58154e-07
4.58448e-07
4.59038e-07
4.59912e-07
4.61092e-07
4.62537e-07
4.6428e-07
5.43538e-07
5.38392e-07
5.33342e-07
5.2842e-07
5.2359e-07
5.1892e-07
5.14362e-07
5.09984e-07
5.0577e-07
5.01721e-07
4.97883e-07
4.94271e-07
4.90857e-07
4.87681e-07
4.8475e-07
4.8204e-07
4.7959e-07
4.77405e-07
4.7545e-07
4.73772e-07
4.72357e-07
4.71233e-07
4.70388e-07
4.69825e-07
4.69545e-07
4.69559e-07
4.69858e-07
4.70449e-07
4.71313e-07
4.72482e-07
4.73926e-07
4.75653e-07
5.54185e-07
5.49114e-07
5.44127e-07
5.39262e-07
5.34488e-07
5.29862e-07
5.25353e-07
5.21023e-07
5.16845e-07
5.12831e-07
5.09033e-07
5.05447e-07
5.02066e-07
4.9891e-07
4.96011e-07
4.93314e-07
4.90885e-07
4.88705e-07
4.8677e-07
4.85096e-07
4.83693e-07
4.8258e-07
4.81735e-07
4.81172e-07
4.80896e-07
4.80919e-07
4.81222e-07
4.81804e-07
4.82665e-07
4.83824e-07
4.85265e-07
4.8697e-07
5.64719e-07
5.5972e-07
5.54806e-07
5.50004e-07
5.45288e-07
5.40712e-07
5.36255e-07
5.31969e-07
5.27839e-07
5.23861e-07
5.20108e-07
5.16552e-07
5.13204e-07
5.10071e-07
5.07198e-07
5.04523e-07
5.0212e-07
4.99948e-07
4.98023e-07
4.96364e-07
4.94972e-07
4.93872e-07
4.93026e-07
4.92465e-07
4.92193e-07
4.92216e-07
4.92521e-07
4.93105e-07
4.93962e-07
4.9511e-07
4.96539e-07
4.9823e-07
5.75126e-07
5.70211e-07
5.6537e-07
5.6063e-07
5.55982e-07
5.51452e-07
5.47056e-07
5.42811e-07
5.38734e-07
5.34801e-07
5.31088e-07
5.27574e-07
5.24254e-07
5.21152e-07
5.18303e-07
5.15658e-07
5.13285e-07
5.11122e-07
5.09209e-07
5.07566e-07
5.06184e-07
5.05092e-07
5.04253e-07
5.03694e-07
5.03427e-07
5.03451e-07
5.03758e-07
5.04344e-07
5.05193e-07
5.06331e-07
5.07748e-07
5.09415e-07
5.85405e-07
5.80574e-07
5.75813e-07
5.71142e-07
5.66553e-07
5.6208e-07
5.57749e-07
5.53548e-07
5.4952e-07
5.45632e-07
5.41964e-07
5.38495e-07
5.35215e-07
5.32146e-07
5.29323e-07
5.26709e-07
5.24363e-07
5.22219e-07
5.20317e-07
5.18692e-07
5.17322e-07
5.1624e-07
5.15407e-07
5.14851e-07
5.14588e-07
5.14612e-07
5.14923e-07
5.155e-07
5.16349e-07
5.17477e-07
5.18872e-07
5.20524e-07
5.95567e-07
5.90813e-07
5.86126e-07
5.81526e-07
5.77005e-07
5.72588e-07
5.68319e-07
5.64163e-07
5.60187e-07
5.56354e-07
5.52735e-07
5.49306e-07
5.46076e-07
5.43041e-07
5.40249e-07
5.37666e-07
5.35344e-07
5.33227e-07
5.31338e-07
5.29724e-07
5.28373e-07
5.27297e-07
5.26477e-07
5.25924e-07
5.25668e-07
5.2569e-07
5.25997e-07
5.26575e-07
5.27423e-07
5.28538e-07
5.29912e-07
5.31537e-07
6.05635e-07
6.00936e-07
5.96322e-07
5.9178e-07
5.87326e-07
5.82972e-07
5.78761e-07
5.74657e-07
5.7073e-07
5.6696e-07
5.63384e-07
5.60007e-07
5.56821e-07
5.53828e-07
5.51072e-07
5.4852e-07
5.46228e-07
5.4413e-07
5.42261e-07
5.40661e-07
5.39331e-07
5.3826e-07
5.37454e-07
5.36904e-07
5.36646e-07
5.36675e-07
5.36979e-07
5.37556e-07
5.38394e-07
5.39496e-07
5.40847e-07
5.42454e-07
6.15609e-07
6.10957e-07
6.06408e-07
6.01925e-07
5.97524e-07
5.93227e-07
5.89072e-07
5.85027e-07
5.81152e-07
5.77436e-07
5.73914e-07
5.7059e-07
5.6745e-07
5.64501e-07
5.61783e-07
5.59262e-07
5.56995e-07
5.54925e-07
5.53077e-07
5.51491e-07
5.50175e-07
5.4912e-07
5.4832e-07
5.47779e-07
5.47521e-07
5.47549e-07
5.47859e-07
5.48426e-07
5.49261e-07
5.50351e-07
5.51678e-07
5.53265e-07
6.25484e-07
6.20885e-07
6.16395e-07
6.1197e-07
6.07622e-07
6.03373e-07
5.99262e-07
5.95276e-07
5.9145e-07
5.87789e-07
5.84319e-07
5.81051e-07
5.77958e-07
5.75052e-07
5.72366e-07
5.69885e-07
5.67637e-07
5.65597e-07
5.63777e-07
5.62208e-07
5.60905e-07
5.59859e-07
5.59074e-07
5.58541e-07
5.58285e-07
5.5831e-07
5.58618e-07
5.59184e-07
5.60008e-07
5.61085e-07
5.62395e-07
5.63961e-07
6.35251e-07
6.30713e-07
6.26279e-07
6.21915e-07
6.17619e-07
6.13417e-07
6.09354e-07
6.05418e-07
6.01636e-07
5.98025e-07
5.94602e-07
5.9139e-07
5.88333e-07
5.85479e-07
5.82817e-07
5.80375e-07
5.7816e-07
5.7614e-07
5.74357e-07
5.72803e-07
5.71516e-07
5.70476e-07
5.69709e-07
5.69182e-07
5.68931e-07
5.68953e-07
5.6926e-07
5.69821e-07
5.70627e-07
5.71699e-07
5.72991e-07
5.74528e-07
6.44898e-07
6.40421e-07
6.36051e-07
6.31753e-07
6.27512e-07
6.23358e-07
6.19353e-07
6.15464e-07
6.11718e-07
6.0815e-07
6.04774e-07
6.0161e-07
5.98591e-07
5.95779e-07
5.93145e-07
5.9074e-07
5.8855e-07
5.86557e-07
5.84804e-07
5.83273e-07
5.82003e-07
5.80967e-07
5.80212e-07
5.79695e-07
5.79451e-07
5.79471e-07
5.79769e-07
5.80326e-07
5.81122e-07
5.82187e-07
5.83463e-07
6.54408e-07
6.50003e-07
6.45704e-07
6.41471e-07
6.37299e-07
6.33195e-07
6.29245e-07
6.25405e-07
6.21704e-07
6.18181e-07
6.1485e-07
6.11727e-07
6.08738e-07
6.05964e-07
6.03352e-07
6.00981e-07
5.98815e-07
5.96854e-07
5.9512e-07
5.93618e-07
5.92356e-07
5.91332e-07
5.90587e-07
5.90073e-07
5.89837e-07
5.89862e-07
5.90152e-07
5.90706e-07
5.91482e-07
5.92542e-07
5.93801e-07
6.63778e-07
6.59448e-07
6.55227e-07
6.51059e-07
6.46961e-07
6.42915e-07
6.39021e-07
6.35233e-07
6.31588e-07
6.28111e-07
6.24827e-07
6.21743e-07
6.18791e-07
6.16048e-07
6.13462e-07
6.11116e-07
6.0898e-07
6.07037e-07
6.05329e-07
6.03843e-07
6.02596e-07
6.0158e-07
6.00838e-07
6.00332e-07
6.00097e-07
6.00127e-07
6.00418e-07
6.00963e-07
6.01727e-07
6.02776e-07
6.72993e-07
6.68748e-07
6.64602e-07
6.60512e-07
6.56486e-07
6.52507e-07
6.48668e-07
6.44943e-07
6.4135e-07
6.37931e-07
6.34689e-07
6.31652e-07
6.28734e-07
6.26027e-07
6.23475e-07
6.21148e-07
6.19043e-07
6.17124e-07
6.15442e-07
6.13963e-07
6.12731e-07
6.11729e-07
6.1099e-07
6.10489e-07
6.10256e-07
6.10291e-07
6.10583e-07
6.11113e-07
6.11871e-07
6.12905e-07
6.82047e-07
6.77894e-07
6.73828e-07
6.6982e-07
6.65863e-07
6.61954e-07
6.58182e-07
6.54515e-07
6.50985e-07
6.47629e-07
6.44432e-07
6.41441e-07
6.38559e-07
6.35893e-07
6.33375e-07
6.31077e-07
6.29007e-07
6.27112e-07
6.25452e-07
6.23986e-07
6.22771e-07
6.21782e-07
6.21046e-07
6.20549e-07
6.20317e-07
6.20349e-07
6.20643e-07
6.21158e-07
6.21919e-07
6.22932e-07
6.90935e-07
6.86874e-07
6.82899e-07
6.78969e-07
6.75085e-07
6.71254e-07
6.67552e-07
6.63948e-07
6.60481e-07
6.57193e-07
6.54044e-07
6.51099e-07
6.4826e-07
6.45634e-07
6.43158e-07
6.40893e-07
6.38855e-07
6.36991e-07
6.35356e-07
6.33902e-07
6.32698e-07
6.31722e-07
6.30991e-07
6.30507e-07
6.30276e-07
6.30305e-07
6.30593e-07
6.31102e-07
6.31856e-07
6.32857e-07
6.99661e-07
6.95692e-07
6.91802e-07
6.8796e-07
6.84145e-07
6.80398e-07
6.76764e-07
6.73231e-07
6.6983e-07
6.66606e-07
6.63514e-07
6.60614e-07
6.57826e-07
6.55246e-07
6.52812e-07
6.50583e-07
6.48581e-07
6.46748e-07
6.45135e-07
6.43701e-07
6.42509e-07
6.41547e-07
6.40822e-07
6.40351e-07
6.40121e-07
6.40147e-07
6.40423e-07
6.40932e-07
6.41679e-07
6.42668e-07
7.0822e-07
7.04343e-07
7.0054e-07
6.96782e-07
6.93045e-07
6.89383e-07
6.85819e-07
6.82358e-07
6.79022e-07
6.75861e-07
6.72831e-07
6.69984e-07
6.67247e-07
6.6471e-07
6.62327e-07
6.60134e-07
6.58166e-07
6.56364e-07
6.54784e-07
6.53368e-07
6.52192e-07
6.51244e-07
6.50526e-07
6.50069e-07
6.49831e-07
6.49856e-07
6.50129e-07
6.50637e-07
6.51367e-07
6.52353e-07
7.16613e-07
7.12828e-07
7.09111e-07
7.05441e-07
7.01781e-07
6.98205e-07
6.9471e-07
6.91322e-07
6.88053e-07
6.84949e-07
6.81991e-07
6.79201e-07
6.76513e-07
6.74023e-07
6.71693e-07
6.69538e-07
6.67599e-07
6.65836e-07
6.64285e-07
6.62886e-07
6.61735e-07
6.608e-07
6.60092e-07
6.59644e-07
6.59403e-07
6.59428e-07
6.59697e-07
6.60205e-07
6.60916e-07
6.61892e-07
7.24837e-07
7.21143e-07
7.17514e-07
7.13926e-07
7.1035e-07
7.06854e-07
7.03435e-07
7.00114e-07
6.96918e-07
6.93875e-07
6.90988e-07
6.88252e-07
6.8562e-07
6.83172e-07
6.80894e-07
6.78786e-07
6.7688e-07
6.75148e-07
6.73628e-07
6.72252e-07
6.71121e-07
6.70201e-07
6.69501e-07
6.69064e-07
6.68826e-07
6.68853e-07
6.69118e-07
6.69625e-07
6.70316e-07
6.71276e-07
7.32887e-07
7.29283e-07
7.25743e-07
7.22237e-07
7.18742e-07
7.15327e-07
7.11985e-07
7.08737e-07
7.05614e-07
7.02633e-07
6.99811e-07
6.97132e-07
6.94561e-07
6.92158e-07
6.89933e-07
6.87873e-07
6.85994e-07
6.84301e-07
6.82812e-07
6.8146e-07
6.8035e-07
6.79445e-07
6.78754e-07
6.78322e-07
6.78092e-07
6.78123e-07
6.78382e-07
6.78884e-07
6.79559e-07
6.80506e-07
7.40769e-07
7.37254e-07
7.33796e-07
7.30374e-07
7.26963e-07
7.23632e-07
7.20365e-07
7.1719e-07
7.1414e-07
7.11221e-07
7.0846e-07
7.05838e-07
7.03334e-07
7.00977e-07
6.98805e-07
6.96787e-07
6.94944e-07
6.93284e-07
6.91828e-07
6.90503e-07
6.89409e-07
6.88527e-07
6.87844e-07
6.8742e-07
6.87196e-07
6.87232e-07
6.87483e-07
6.87976e-07
6.88638e-07
6.89568e-07
7.48477e-07
7.45056e-07
7.41681e-07
7.38342e-07
7.35014e-07
7.31767e-07
7.28575e-07
7.25472e-07
7.22495e-07
7.19638e-07
7.16938e-07
7.14369e-07
7.1193e-07
7.09626e-07
7.075e-07
7.05525e-07
7.03718e-07
7.02092e-07
7.0067e-07
6.99378e-07
6.98295e-07
6.97436e-07
6.96767e-07
6.96353e-07
6.96131e-07
6.96175e-07
6.96417e-07
6.96895e-07
6.9755e-07
6.98459e-07
7.56017e-07
7.52684e-07
7.49397e-07
7.46143e-07
7.42894e-07
7.39726e-07
7.36613e-07
7.33583e-07
7.30679e-07
7.27884e-07
7.25239e-07
7.22728e-07
7.20356e-07
7.18104e-07
7.16017e-07
7.14093e-07
7.12323e-07
7.10722e-07
7.09338e-07
7.08077e-07
7.07009e-07
7.06169e-07
7.05519e-07
7.05111e-07
7.04895e-07
7.04942e-07
7.05174e-07
7.05639e-07
7.06291e-07
7.07176e-07
7.63391e-07
7.60143e-07
7.56938e-07
7.53769e-07
7.50603e-07
7.47515e-07
7.44481e-07
7.41522e-07
7.38684e-07
7.35957e-07
7.33362e-07
7.30916e-07
7.28603e-07
7.26403e-07
7.24362e-07
7.22483e-07
7.20755e-07
7.19181e-07
7.17829e-07
7.16597e-07
7.15551e-07
7.14724e-07
7.14091e-07
7.13691e-07
7.13487e-07
7.13531e-07
7.1376e-07
7.14212e-07
7.14859e-07
7.15717e-07
7.70591e-07
7.67435e-07
7.64306e-07
7.61221e-07
7.58143e-07
7.55135e-07
7.52172e-07
7.49282e-07
7.46516e-07
7.43851e-07
7.41312e-07
7.38932e-07
7.36673e-07
7.3453e-07
7.32535e-07
7.30694e-07
7.29008e-07
7.27467e-07
7.2615e-07
7.24938e-07
7.23921e-07
7.23107e-07
7.22491e-07
7.22099e-07
7.21897e-07
7.21948e-07
7.22165e-07
7.22613e-07
7.23248e-07
7.24081e-07
7.7762e-07
7.74553e-07
7.71506e-07
7.68505e-07
7.65507e-07
7.62579e-07
7.59693e-07
7.56871e-07
7.5417e-07
7.51568e-07
7.49091e-07
7.46777e-07
7.44571e-07
7.42484e-07
7.40535e-07
7.38733e-07
7.37083e-07
7.35579e-07
7.34293e-07
7.33106e-07
7.32109e-07
7.31317e-07
7.3071e-07
7.30335e-07
7.30133e-07
7.30186e-07
7.30397e-07
7.30842e-07
7.31463e-07
7.32273e-07
7.84483e-07
7.81504e-07
7.78539e-07
7.75617e-07
7.72702e-07
7.69848e-07
7.67039e-07
7.64283e-07
7.61647e-07
7.59113e-07
7.56697e-07
7.54444e-07
7.52297e-07
7.5026e-07
7.48362e-07
7.46599e-07
7.44985e-07
7.43517e-07
7.42258e-07
7.41101e-07
7.40124e-07
7.39354e-07
7.38755e-07
7.3839e-07
7.38194e-07
7.38244e-07
7.38455e-07
7.3889e-07
7.39497e-07
7.40286e-07
7.91175e-07
7.88282e-07
7.85399e-07
7.82555e-07
7.79728e-07
7.76943e-07
7.7421e-07
7.71524e-07
7.68953e-07
7.66487e-07
7.64131e-07
7.61934e-07
7.59846e-07
7.57863e-07
7.56011e-07
7.54293e-07
7.52715e-07
7.5128e-07
7.50045e-07
7.48923e-07
7.47966e-07
7.47211e-07
7.46625e-07
7.46273e-07
7.4608e-07
7.4613e-07
7.46338e-07
7.46758e-07
7.47358e-07
7.48128e-07
7.97696e-07
7.94888e-07
7.92092e-07
7.89327e-07
7.8658e-07
7.8387e-07
7.81207e-07
7.78589e-07
7.76088e-07
7.7369e-07
7.71393e-07
7.69246e-07
7.67218e-07
7.65289e-07
7.63488e-07
7.61808e-07
7.60267e-07
7.58871e-07
7.57662e-07
7.56571e-07
7.55626e-07
7.54894e-07
7.5432e-07
7.53976e-07
7.53791e-07
7.53837e-07
7.54047e-07
7.54453e-07
7.55045e-07
7.55797e-07
8.04051e-07
8.01328e-07
7.98613e-07
7.95931e-07
7.93259e-07
7.90629e-07
7.88036e-07
7.85485e-07
7.83054e-07
7.80716e-07
7.78484e-07
7.76382e-07
7.74412e-07
7.72536e-07
7.70789e-07
7.6915e-07
7.67646e-07
7.66281e-07
7.65106e-07
7.64041e-07
7.63113e-07
7.62399e-07
7.61841e-07
7.615e-07
7.61327e-07
7.6137e-07
7.61583e-07
7.61974e-07
7.62559e-07
7.63287e-07
8.10236e-07
8.07601e-07
8.04966e-07
8.02363e-07
7.9977e-07
7.97221e-07
7.94692e-07
7.9221e-07
7.89849e-07
7.87572e-07
7.85398e-07
7.83347e-07
7.81436e-07
7.79613e-07
7.77912e-07
7.76314e-07
7.74848e-07
7.73519e-07
7.72373e-07
7.71339e-07
7.70426e-07
7.6973e-07
7.69182e-07
7.68851e-07
7.6869e-07
7.68731e-07
7.6894e-07
7.69322e-07
7.699e-07
7.70606e-07
8.16254e-07
8.13703e-07
8.11152e-07
8.08623e-07
8.06108e-07
8.0364e-07
8.0118e-07
7.98765e-07
7.96475e-07
7.94256e-07
7.92142e-07
7.90141e-07
7.88283e-07
7.86513e-07
7.8486e-07
7.833e-07
7.81878e-07
7.80583e-07
7.79468e-07
7.78458e-07
7.77565e-07
7.76883e-07
7.76348e-07
7.76023e-07
7.75878e-07
7.75918e-07
7.76117e-07
7.76495e-07
7.77062e-07
7.77753e-07
8.22106e-07
8.19638e-07
8.1717e-07
8.14714e-07
8.12277e-07
8.09886e-07
8.075e-07
8.05149e-07
8.02926e-07
8.00764e-07
7.98709e-07
7.96764e-07
7.94955e-07
7.93235e-07
7.91636e-07
7.90114e-07
7.8873e-07
7.87473e-07
7.86386e-07
7.854e-07
7.8453e-07
7.83863e-07
7.83341e-07
7.83022e-07
7.82887e-07
7.82927e-07
7.83123e-07
7.83496e-07
7.84046e-07
7.84721e-07
8.23021e-07
8.20636e-07
8.18272e-07
8.15959e-07
8.13645e-07
8.11358e-07
8.09202e-07
8.07101e-07
8.05106e-07
8.03216e-07
8.01455e-07
7.99787e-07
7.91322e-07
7.90671e-07
7.90155e-07
7.89842e-07
7.89723e-07
7.89756e-07
7.8995e-07
7.90323e-07
7.90852e-07
7.91518e-07
2.21885e-07
2.21856e-07
2.21834e-07
2.2182e-07
2.21813e-07
2.21812e-07
2.21819e-07
2.21833e-07
2.21853e-07
2.21881e-07
2.222e-07
2.22164e-07
2.22136e-07
2.22114e-07
2.22099e-07
2.22092e-07
2.22091e-07
2.22098e-07
2.22112e-07
2.22133e-07
2.22161e-07
2.22195e-07
2.22237e-07
2.22286e-07
2.22342e-07
2.22405e-07
2.22474e-07
2.2255e-07
2.22632e-07
2.22721e-07
2.22817e-07
2.22577e-07
2.22527e-07
2.22484e-07
2.22447e-07
2.22418e-07
2.22396e-07
2.22382e-07
2.22374e-07
2.22374e-07
2.2238e-07
2.22394e-07
2.22415e-07
2.22444e-07
2.22479e-07
2.22521e-07
2.22571e-07
2.22627e-07
2.2269e-07
2.2276e-07
2.22836e-07
2.2292e-07
2.23009e-07
2.23105e-07
2.23208e-07
2.23317e-07
2.23431e-07
2.23552e-07
2.23059e-07
2.22987e-07
2.22922e-07
2.22865e-07
2.22814e-07
2.2277e-07
2.22734e-07
2.22704e-07
2.22682e-07
2.22667e-07
2.2266e-07
2.22659e-07
2.22666e-07
2.2268e-07
2.22701e-07
2.2273e-07
2.22765e-07
2.22808e-07
2.22858e-07
2.22915e-07
2.22978e-07
2.23049e-07
2.23126e-07
2.2321e-07
2.233e-07
2.23397e-07
2.235e-07
2.2361e-07
2.23725e-07
2.23847e-07
2.23974e-07
2.24108e-07
2.24247e-07
2.23515e-07
2.23429e-07
2.23351e-07
2.23278e-07
2.23213e-07
2.23155e-07
2.23104e-07
2.2306e-07
2.23023e-07
2.22993e-07
2.22971e-07
2.22956e-07
2.22948e-07
2.22948e-07
2.22954e-07
2.22969e-07
2.2299e-07
2.23019e-07
2.23055e-07
2.23098e-07
2.23148e-07
2.23205e-07
2.23269e-07
2.2334e-07
2.23418e-07
2.23502e-07
2.23593e-07
2.23691e-07
2.23795e-07
2.23905e-07
2.24021e-07
2.24144e-07
2.24272e-07
2.24406e-07
2.24546e-07
2.24692e-07
2.24843e-07
2.25001e-07
2.24003e-07
2.23903e-07
2.2381e-07
2.23724e-07
2.23645e-07
2.23572e-07
2.23506e-07
2.23448e-07
2.23396e-07
2.23352e-07
2.23315e-07
2.23285e-07
2.23262e-07
2.23247e-07
2.23239e-07
2.23239e-07
2.23246e-07
2.2326e-07
2.23282e-07
2.23311e-07
2.23347e-07
2.2339e-07
2.23441e-07
2.23498e-07
2.23563e-07
2.23634e-07
2.23713e-07
2.23798e-07
2.23889e-07
2.23987e-07
2.24092e-07
2.24203e-07
2.2432e-07
2.24443e-07
2.24572e-07
2.24707e-07
2.24847e-07
2.24993e-07
2.25145e-07
2.25307e-07
2.24408e-07
2.24302e-07
2.24202e-07
2.24108e-07
2.24021e-07
2.23941e-07
2.23868e-07
2.23802e-07
2.23743e-07
2.23691e-07
2.23646e-07
2.23609e-07
2.23579e-07
2.23556e-07
2.23541e-07
2.23533e-07
2.23532e-07
2.23539e-07
2.23554e-07
2.23576e-07
2.23605e-07
2.23641e-07
2.23685e-07
2.23736e-07
2.23794e-07
2.23859e-07
2.23931e-07
2.24009e-07
2.24095e-07
2.24187e-07
2.24286e-07
2.24391e-07
2.24503e-07
2.2462e-07
2.24744e-07
2.24873e-07
2.25009e-07
2.2515e-07
2.25298e-07
2.25463e-07
2.25658e-07
2.24823e-07
2.24709e-07
2.24602e-07
2.24502e-07
2.24408e-07
2.24321e-07
2.2424e-07
2.24167e-07
2.241e-07
2.24041e-07
2.23988e-07
2.23943e-07
2.23906e-07
2.23875e-07
2.23852e-07
2.23837e-07
2.23829e-07
2.23829e-07
2.23836e-07
2.2385e-07
2.23872e-07
2.23902e-07
2.23938e-07
2.23982e-07
2.24033e-07
2.24092e-07
2.24157e-07
2.24229e-07
2.24309e-07
2.24395e-07
2.24487e-07
2.24587e-07
2.24692e-07
2.24805e-07
2.24922e-07
2.25047e-07
2.25176e-07
2.25314e-07
2.25466e-07
2.25642e-07
2.25862e-07
2.26158e-07
2.25246e-07
2.25127e-07
2.25012e-07
2.24905e-07
2.24804e-07
2.24709e-07
2.24622e-07
2.24541e-07
2.24467e-07
2.244e-07
2.2434e-07
2.24288e-07
2.24243e-07
2.24205e-07
2.24174e-07
2.24151e-07
2.24135e-07
2.24127e-07
2.24127e-07
2.24134e-07
2.24149e-07
2.24171e-07
2.24201e-07
2.24238e-07
2.24282e-07
2.24333e-07
2.24392e-07
2.24457e-07
2.2453e-07
2.2461e-07
2.24696e-07
2.24789e-07
2.24889e-07
2.24995e-07
2.25109e-07
2.25226e-07
2.25353e-07
2.25494e-07
2.25657e-07
2.25858e-07
2.26123e-07
2.26485e-07
2.2699e-07
2.25723e-07
2.25568e-07
2.25435e-07
2.25317e-07
2.25209e-07
2.25108e-07
2.25013e-07
2.24925e-07
2.24844e-07
2.24769e-07
2.24702e-07
2.24642e-07
2.24589e-07
2.24544e-07
2.24506e-07
2.24475e-07
2.24452e-07
2.24436e-07
2.24428e-07
2.24427e-07
2.24435e-07
2.24449e-07
2.24472e-07
2.24502e-07
2.24539e-07
2.24583e-07
2.24635e-07
2.24693e-07
2.2476e-07
2.24833e-07
2.24913e-07
2.24999e-07
2.25094e-07
2.25193e-07
2.25299e-07
2.25416e-07
2.25548e-07
2.25701e-07
2.25891e-07
2.26138e-07
2.26471e-07
2.2693e-07
2.27567e-07
2.28443e-07
2.26225e-07
2.25984e-07
2.25796e-07
2.2565e-07
2.25525e-07
2.25415e-07
2.25318e-07
2.25229e-07
2.25149e-07
2.25073e-07
2.25005e-07
2.24945e-07
2.24893e-07
2.24848e-07
2.24809e-07
2.24778e-07
2.24754e-07
2.24738e-07
2.2473e-07
2.2473e-07
2.24737e-07
2.24752e-07
2.24775e-07
2.24805e-07
2.24843e-07
2.24887e-07
2.24938e-07
2.24997e-07
2.25064e-07
2.25138e-07
2.25217e-07
2.25304e-07
2.254e-07
2.25508e-07
2.25632e-07
2.25776e-07
2.25962e-07
2.262e-07
2.26517e-07
2.26951e-07
2.27546e-07
2.28359e-07
2.29449e-07
2.30872e-07
2.2766e-07
2.27081e-07
2.26654e-07
2.26336e-07
2.26099e-07
2.25914e-07
2.25767e-07
2.25648e-07
2.25546e-07
2.25457e-07
2.25379e-07
2.2531e-07
2.2525e-07
2.25198e-07
2.25153e-07
2.25114e-07
2.25082e-07
2.25058e-07
2.25042e-07
2.25034e-07
2.25034e-07
2.25041e-07
2.25056e-07
2.25079e-07
2.2511e-07
2.25148e-07
2.25192e-07
2.25243e-07
2.25302e-07
2.25369e-07
2.25446e-07
2.25534e-07
2.25634e-07
2.25752e-07
2.25897e-07
2.26081e-07
2.26315e-07
2.2663e-07
2.27052e-07
2.27626e-07
2.284e-07
2.29432e-07
2.30775e-07
2.32476e-07
2.34567e-07
2.3091e-07
2.29617e-07
2.28614e-07
2.2785e-07
2.27276e-07
2.26847e-07
2.26524e-07
2.26279e-07
2.2609e-07
2.25938e-07
2.25816e-07
2.2572e-07
2.25638e-07
2.25569e-07
2.2551e-07
2.2546e-07
2.2542e-07
2.25388e-07
2.25364e-07
2.25348e-07
2.2534e-07
2.2534e-07