/*--------------------------------*- C++ -*----------------------------------*\
  =========                 |
  \\      /  F ield         | OpenFOAM: The Open Source CFD Toolbox
   \\    /   O peration     | Website:  https://openfoam.org
    \\  /    A nd           | Version:  7
     \\/     M anipulation  |
\*---------------------------------------------------------------------------*/
FoamFile
{
    version     2.0;
    format      ascii;
    class       volVectorField;
    location    "136000";
    object      vorticity;
}
// * * * * * * * * * * * * * * * * * * * * * * * * * * * * * * * * * * * * * //

dimensions      [0 0 -1 0 0 0 0];

internalField   nonuniform List<vector> 
4850
(
(0.00597278 0.00404891 7.48005e-18)
(0.00512205 0.00471335 1.645e-17)
(0.00614306 0.00422192 7.86164e-18)
(0.00530186 0.00487701 1.64473e-17)
(0.00534152 0.0046482 1.38019e-17)
(0.00631296 0.00439506 1.32443e-17)
(0.00548149 0.00504049 1.70889e-17)
(0.00552627 0.00480632 1.46582e-17)
(0.00556501 0.00457582 1.31434e-17)
(0.00560019 0.00434658 1.16293e-17)
(0.00648264 0.00456842 1.86722e-17)
(0.00566106 0.0052039 1.81168e-17)
(0.00571092 0.00496431 1.50467e-17)
(0.00575468 0.00472813 1.34702e-17)
(0.00579472 0.00449308 1.21125e-17)
(0.00583117 0.0042593 8.52465e-18)
(0.00665227 0.00474206 1.90185e-17)
(0.0058407 0.00536736 2.00209e-17)
(0.0058956 0.00512227 1.51398e-17)
(0.00594432 0.00488036 1.33979e-17)
(0.00598916 0.00463944 1.18433e-17)
(0.00603024 0.00439965 7.68111e-18)
(0.00606773 0.00416111 6.37648e-18)
(0.00682199 0.00491607 1.70779e-17)
(0.00602053 0.00553098 2.01083e-17)
(0.00608042 0.00528033 1.46114e-17)
(0.00613406 0.00503262 1.33085e-17)
(0.00618365 0.00478576 1.1071e-17)
(0.00622931 0.00453991 6.40686e-18)
(0.00627121 0.00429518 5.13855e-18)
(0.00630948 0.00405168 6.94248e-18)
(0.0063443 0.00380949 1.04337e-17)
(0.00699195 0.00509054 1.74239e-17)
(0.00620067 0.00569487 1.74623e-17)
(0.00626551 0.00543858 1.38566e-17)
(0.00632402 0.00518501 1.2881e-17)
(0.00637831 0.00493217 9.99685e-18)
(0.00642851 0.0046802 4.91378e-18)
(0.00647476 0.00442922 4.71769e-18)
(0.00651721 0.00417935 8.64673e-18)
(0.00655602 0.00393066 1.26658e-17)
(0.00659135 0.00368324 1.04859e-17)
(0.00716227 0.00526553 1.89966e-17)
(0.00638123 0.00585914 1.3659e-17)
(0.006451 0.00559713 1.29814e-17)
(0.00651434 0.00533763 1.28181e-17)
(0.00657329 0.00507874 9.6613e-18)
(0.00662797 0.0048206 4.41806e-18)
(0.00667853 0.00456333 4.87687e-18)
(0.0067251 0.00430704 9.66497e-18)
(0.00676785 0.00405182 1.2581e-17)
(0.00680693 0.00379775 1.074e-17)
(0.00684251 0.00354488 9.98089e-18)
(0.00687475 0.00329325 1.02249e-17)
(0.00690382 0.00304288 8.54047e-18)
(0.00692989 0.00279377 1.04091e-17)
(0.0073331 0.00544115 1.75097e-17)
(0.00656232 0.00602389 1.14959e-17)
(0.00663699 0.00575609 1.22987e-17)
(0.00670513 0.0054906 1.22865e-17)
(0.0067687 0.0052256 8.66735e-18)
(0.00682783 0.00496123 4.03096e-18)
(0.00688265 0.00469761 5.32089e-18)
(0.0069333 0.00443485 1.01454e-17)
(0.00697994 0.00417305 1.21088e-17)
(0.00702272 0.00391229 1.11091e-17)
(0.00706181 0.00365262 1.07804e-17)
(0.00709735 0.00339408 1.12192e-17)
(0.00712952 0.00313671 9.99179e-18)
(0.00715848 0.00288049 1.16172e-17)
(0.00718437 0.00262543 1.30772e-17)
(0.00720736 0.00237149 1.23414e-17)
(0.00722759 0.00211862 1.40595e-17)
(0.00724519 0.00186676 1.03509e-17)
(0.00750455 0.00561747 1.22504e-17)
(0.00674406 0.00618921 1.12475e-17)
(0.0068236 0.00591555 1.17702e-17)
(0.0068965 0.005644 1.15062e-17)
(0.00696466 0.00537282 7.76425e-18)
(0.0070282 0.00510216 4.5445e-18)
(0.00708724 0.00483214 6.18851e-18)
(0.00714193 0.00456287 1.01178e-17)
(0.00719243 0.00429444 1.1838e-17)
(0.00723887 0.00402695 1.12409e-17)
(0.00728141 0.00376044 1.07948e-17)
(0.00732022 0.00349497 1.08067e-17)
(0.00735545 0.00323056 9.71407e-18)
(0.00738725 0.00296721 1.13885e-17)
(0.00741577 0.00270494 1.31245e-17)
(0.00744117 0.00244369 1.26493e-17)
(0.00746359 0.00218345 1.40994e-17)
(0.00748314 0.00192414 1.22028e-17)
(0.00749997 0.0016657 5.66686e-18)
(0.00751418 0.00140803 5.04164e-18)
(0.00767674 0.00579458 7.08536e-18)
(0.00692656 0.00635522 1.07442e-17)
(0.00701094 0.00607561 1.16793e-17)
(0.00708858 0.00579794 1.07966e-17)
(0.0071613 0.00552051 7.02495e-18)
(0.0072292 0.0052435 5.65631e-18)
(0.00729244 0.00496701 7.20258e-18)
(0.00735113 0.00469117 9.74031e-18)
(0.00740544 0.00441607 1.15941e-17)
(0.0074555 0.0041418 1.11847e-17)
(0.00750147 0.00386842 1.07119e-17)
(0.0075435 0.00359597 9.76295e-18)
(0.00758174 0.00332449 8.82755e-18)
(0.00761635 0.003054 1.00712e-17)
(0.00764747 0.00278448 1.25921e-17)
(0.00767525 0.00251592 1.33138e-17)
(0.00769982 0.00224828 1.4354e-17)
(0.0077213 0.00198151 1.3636e-17)
(0.00773982 0.00171555 6.6642e-18)
(0.00775549 0.00145031 5.17847e-18)
(0.0077684 0.00118571 5.57051e-18)
(0.00777862 0.000921648 3.66046e-18)
(0.00778623 0.000658009 5.7609e-18)
(0.00779127 0.000394678 3.70851e-18)
(0.0078498 0.00597256 6.04513e-18)
(0.00710992 0.006522 9.64365e-18)
(0.00719913 0.00623638 1.16153e-17)
(0.00728148 0.0059525 9.81572e-18)
(0.00735872 0.00566876 7.09578e-18)
(0.00743098 0.00538533 7.42764e-18)
(0.00749837 0.00510232 7.36045e-18)
(0.00756103 0.00481985 8.6144e-18)
(0.00761911 0.00453803 1.07558e-17)
(0.00767276 0.00425693 1.11499e-17)
(0.00772212 0.00397662 1.10583e-17)
(0.00776733 0.00369717 9.3651e-18)
(0.00780856 0.00341859 8.66659e-18)
(0.00784594 0.00314091 8.88394e-18)
(0.00787962 0.00286412 1.1226e-17)
(0.00790974 0.00258822 1.33992e-17)
(0.00793643 0.00231317 1.44674e-17)
(0.00795982 0.00203893 1.44941e-17)
(0.00798001 0.00176543 6.63482e-18)
(0.00799712 0.00149261 4.07436e-18)
(0.00801123 0.00122038 5.91682e-18)
(0.00802242 0.000948652 5.28625e-18)
(0.00803076 0.000677318 8.24086e-18)
(0.00803629 0.000406272 5.99195e-18)
(0.00803905 0.000135401 2.67344e-18)
(0.00803905 -0.000135411 1.89167e-17)
(0.00803629 -0.000406282 3.05561e-17)
(0.00803076 -0.000677327 1.93738e-17)
(0.00802242 -0.000948661 1.28119e-17)
(0.00802384 0.0061515 8.29078e-18)
(0.00729424 0.00668966 8.20388e-18)
(0.00738827 0.00639793 1.11732e-17)
(0.00747531 0.00610778 8.92182e-18)
(0.00755706 0.00581766 6.87435e-18)
(0.00763363 0.00552774 8.22753e-18)
(0.00770515 0.00523814 7.44511e-18)
(0.00777175 0.00494899 7.95615e-18)
(0.00783358 0.00466038 1.05552e-17)
(0.00789078 0.00437241 1.15116e-17)
(0.00794349 0.00408513 1.10611e-17)
(0.00799186 0.00379862 8.76315e-18)
(0.00803604 0.0035129 8.45746e-18)
(0.00807616 0.003228 7.7165e-18)
(0.00811237 0.00294392 9.78991e-18)
(0.00814481 0.00266065 1.34861e-17)
(0.0081736 0.00237816 1.46082e-17)
(0.00819886 0.00209642 1.41489e-17)
(0.0082207 0.00181538 5.54125e-18)
(0.00823922 0.00153496 3.04843e-18)
(0.00825452 0.00125509 6.0374e-18)
(0.00826667 0.000975682 5.97469e-18)
(0.00827572 0.000696645 8.79624e-18)
(0.00828173 0.000417876 5.79183e-18)
(0.00828473 0.00013927 2.89461e-18)
(0.00828473 -0.00013928 1.97176e-17)
(0.00828173 -0.000417886 3.22364e-17)
(0.00827572 -0.000696654 2.15048e-17)
(0.00826667 -0.000975691 1.56629e-17)
(0.00825453 -0.0012551 1.88939e-17)
(0.00823923 -0.00153497 1.55797e-17)
(0.0082207 -0.00181539 1.44951e-17)
(0.00819896 0.00633149 1.12747e-17)
(0.00747964 0.00685829 7.79548e-18)
(0.00757847 0.00656038 1.04813e-17)
(0.00767019 0.00626387 7.79433e-18)
(0.00775642 0.0059673 6.77931e-18)
(0.00783728 0.00567082 8.91949e-18)
(0.0079129 0.00537457 8.2509e-18)
(0.00798342 0.00507867 8.14799e-18)
(0.00804897 0.00478322 1.08384e-17)
(0.00810969 0.00448831 1.14365e-17)
(0.00816572 0.00419402 1.07531e-17)
(0.00821722 0.0039004 8.4499e-18)
(0.00826432 0.0036075 8.09078e-18)
(0.00830715 0.00331534 6.95087e-18)
(0.00834587 0.00302392 8.35339e-18)
(0.00838059 0.00273325 1.3098e-17)
(0.00841145 0.0024433 1.43899e-17)
(0.00843856 0.00215404 1.30043e-17)
(0.00846203 0.00186543 5.16936e-18)
(0.00848196 0.00157739 3.00819e-18)
(0.00849843 0.00128986 5.33053e-18)
(0.00851151 0.00100276 5.98102e-18)
(0.00852128 0.000716004 8.6865e-18)
(0.00852776 0.000429499 4.61272e-18)
(0.00853099 0.000143146 2.54104e-18)
(0.00853099 -0.000143156 1.92548e-17)
(0.00852776 -0.000429509 3.15248e-17)
(0.00852128 -0.000716014 2.15594e-17)
(0.00851152 -0.00100277 1.67202e-17)
(0.00849843 -0.00128987 2.13116e-17)
(0.00848196 -0.00157739 2.01248e-17)
(0.00846204 -0.00186543 2.11009e-17)
(0.00843857 -0.00215405 3.13052e-17)
(0.00841146 -0.00244331 4.02574e-17)
(0.00837529 0.00651262 1.26233e-17)
(0.00766621 0.00702798 9.18916e-18)
(0.00776984 0.00672381 9.44004e-18)
(0.00786621 0.00642087 7.1658e-18)
(0.00795691 0.00611777 7.75178e-18)
(0.00804205 0.00581466 9.97328e-18)
(0.00812175 0.00551169 9.20234e-18)
(0.00819616 0.00520897 8.62961e-18)
(0.0082654 0.00490661 1.10157e-17)
(0.00832962 0.00460471 1.09912e-17)
(0.00838895 0.00430335 1.05182e-17)
(0.00844355 0.00400257 8.26379e-18)
(0.00849354 0.00370244 7.63989e-18)
(0.00853906 0.00340298 7.04624e-18)
(0.00858025 0.00310419 7.44836e-18)
(0.00861724 0.00280608 1.20572e-17)
(0.00865015 0.00250864 1.32029e-17)
(0.00867909 0.00221183 1.14944e-17)
(0.00870417 0.00191561 5.3416e-18)
(0.00872548 0.00161992 3.47159e-18)
(0.00874311 0.00132471 4.58164e-18)
(0.00875712 0.0010299 5.91051e-18)
(0.00876758 0.000735409 8.79737e-18)
(0.00877453 0.000441149 3.9846e-18)
(0.00877799 0.000147031 1.91637e-18)
(0.00877799 -0.000147041 1.79551e-17)
(0.00877453 -0.000441159 2.86576e-17)
(0.00876758 -0.000735419 1.99289e-17)
(0.00875712 -0.00102991 1.73466e-17)
(0.00874311 -0.00132472 2.19609e-17)
(0.00872548 -0.00161993 2.07707e-17)
(0.00870417 -0.00191561 2.40711e-17)
(0.00867909 -0.00221183 4.032e-17)
(0.00865015 -0.00250864 6.83892e-17)
(0.00855292 0.00669497 1.16004e-17)
(0.00785407 0.00719884 1.06323e-17)
(0.00796248 0.00688831 8.44788e-18)
(0.0080635 0.00657886 6.90334e-18)
(0.00815865 0.00626915 8.56949e-18)
(0.00824805 0.00595934 1.09234e-17)
(0.00833181 0.00564957 1.02566e-17)
(0.00841009 0.00533996 9.28476e-18)
(0.008483 0.00503064 1.10426e-17)
(0.0085507 0.00472169 1.02751e-17)
(0.00861331 0.00441319 9.95848e-18)
(0.00867097 0.00410521 7.89949e-18)
(0.00872383 0.00379779 7.4402e-18)
(0.00877202 0.00349098 8.04333e-18)
(0.00881567 0.00318477 7.14518e-18)
(0.0088549 0.00287919 1.07298e-17)
(0.00888984 0.00257421 1.20651e-17)
(0.00892059 0.00226981 1.05454e-17)
(0.00894726 0.00196596 5.37031e-18)
(0.00896994 0.0016626 3.76557e-18)
(0.00898871 0.00135968 4.46399e-18)
(0.00900364 0.00105713 5.74922e-18)
(0.00901479 0.000754873 8.51633e-18)
(0.00902219 0.000452835 3.40625e-18)
(0.00902589 0.000150927 1.72713e-18)
(0.00902589 -0.000150937 1.71262e-17)
(0.00902219 -0.000452845 2.5696e-17)
(0.00901479 -0.000754883 1.78081e-17)
(0.00900364 -0.00105714 1.75646e-17)
(0.00898871 -0.00135969 2.17312e-17)
(0.00896994 -0.00166261 1.96312e-17)
(0.00894726 -0.00196596 2.3152e-17)
(0.00892059 -0.00226982 4.24198e-17)
(0.00888984 -0.00257421 1.00183e-16)
(0.00873197 0.00687864 1.00226e-17)
(0.0080433 0.00737096 1.16816e-17)
(0.0081565 0.00705398 7.9018e-18)
(0.00826216 0.00673794 6.78351e-18)
(0.00836175 0.00642154 9.62296e-18)
(0.00845539 0.00610494 1.1346e-17)
(0.00854321 0.0057883 1.08406e-17)
(0.00862534 0.00547174 9.7436e-18)
(0.00870191 0.00515537 1.09038e-17)
(0.00877305 0.0048393 9.5278e-18)
(0.00883892 0.00452361 9.28834e-18)
(0.00889964 0.00420836 8.14799e-18)
(0.00895535 0.00389361 7.90147e-18)
(0.00900618 0.00357939 9.06056e-18)
(0.00905226 0.00326572 7.08224e-18)
(0.00909371 0.00295261 9.54835e-18)
(0.00913066 0.00264006 1.14562e-17)
(0.0091632 0.00232803 1.02282e-17)
(0.00919144 0.00201651 4.48471e-18)
(0.00921548 0.00170544 3.27807e-18)
(0.00923538 0.00139478 4.83583e-18)
(0.00925122 0.00108446 5.59024e-18)
(0.00926305 0.00077441 7.72725e-18)
(0.00927091 0.000464563 2.73459e-18)
(0.00927484 0.000154837 2.1437e-18)
(0.00927484 -0.000154848 1.58937e-17)
(0.00927091 -0.000464573 2.25323e-17)
(0.00926305 -0.00077442 1.64591e-17)
(0.00925122 -0.00108447 1.78038e-17)
(0.00923538 -0.00139479 2.09444e-17)
(0.00921548 -0.00170545 1.87194e-17)
(0.00919144 -0.00201652 2.35067e-17)
(0.0091632 -0.00232804 4.41939e-17)
(0.00913066 -0.00264006 1.18192e-16)
(0.00891254 0.00706371 9.91124e-18)
(0.00823403 0.00754442 1.29823e-17)
(0.00835201 0.00722092 7.44456e-18)
(0.0084623 0.00689819 7.57948e-18)
(0.00856633 0.00657501 1.08853e-17)
(0.0086642 0.00625155 1.10848e-17)
(0.00875606 0.00592796 1.13722e-17)
(0.00884202 0.00560437 9.98625e-18)
(0.00892223 0.00528089 1.10144e-17)
(0.00899681 0.00495763 9.19434e-18)
(0.00906591 0.00463468 8.9967e-18)
(0.00912967 0.0043121 8.63443e-18)
(0.00918821 0.00398996 7.8884e-18)
(0.00924166 0.00366828 9.36272e-18)
(0.00929015 0.00334709 7.17359e-18)
(0.00933381 0.00302641 8.17782e-18)
(0.00937275 0.00270623 1.05619e-17)
(0.00940707 0.00238653 9.55203e-18)
(0.00943688 0.0020673 3.15787e-18)
(0.00946225 0.00174848 2.93758e-18)
(0.00948327 0.00143003 5.93619e-18)
(0.00950001 0.00111191 5.34797e-18)
(0.00951252 0.000794032 6.07293e-18)
(0.00952083 0.000476342 2.5725e-18)
(0.00952498 0.000158765 3.51553e-18)
(0.00952498 -0.000158775 1.4203e-17)
(0.00952083 -0.000476352 1.97456e-17)
(0.00951252 -0.000794042 1.60647e-17)
(0.00950001 -0.00111192 1.80715e-17)
(0.00948328 -0.00143004 1.99805e-17)
(0.00946225 -0.00174849 1.72347e-17)
(0.00943688 -0.0020673 2.21977e-17)
(0.00940707 -0.00238654 3.95833e-17)
(0.00937275 -0.00270623 9.99641e-17)
(0.00909473 0.00725027 1.03515e-17)
(0.00842634 0.00771933 1.43153e-17)
(0.00854911 0.0073892 7.97162e-18)
(0.00866404 0.0070597 8.52438e-18)
(0.00877249 0.00672966 1.05693e-17)
(0.00887459 0.00639925 1.08721e-17)
(0.00897047 0.00606863 1.16372e-17)
(0.00906026 0.00573793 9.73875e-18)
(0.00914409 0.00540727 1.12146e-17)
(0.0092221 0.00507675 8.23223e-18)
(0.00929442 0.00474647 8.38041e-18)
(0.0093612 0.00441649 9.70716e-18)
(0.00942255 0.00408689 8.01043e-18)
(0.00947861 0.00375769 9.25427e-18)
(0.0095295 0.00342893 6.8332e-18)
(0.00957535 0.00310062 6.94919e-18)
(0.00961626 0.00277276 9.40063e-18)
(0.00965235 0.00244535 8.05514e-18)
(0.0096837 0.00211835 2.11625e-18)
(0.00971041 0.00179174 3.55351e-18)
(0.00973254 0.00146547 7.72428e-18)
(0.00975017 0.00113949 5.19515e-18)
(0.00976334 0.000813751 3.82816e-18)
(0.0097721 0.000488179 2.44447e-18)
(0.00977648 0.000162711 4.68527e-18)
(0.00977648 -0.000162722 1.25572e-17)
(0.0097721 -0.00048819 1.76798e-17)
(0.00976334 -0.000813761 1.55583e-17)
(0.00975017 -0.0011395 1.74776e-17)
(0.00973254 -0.00146548 1.91211e-17)
(0.00971041 -0.00179175 1.66902e-17)
(0.0096837 -0.00211836 2.14292e-17)
(0.00965235 -0.00244535 3.53237e-17)
(0.00961626 -0.00277277 7.37839e-17)
(0.00927866 0.00743843 1.04687e-17)
(0.00862034 0.00789578 1.43191e-17)
(0.00874791 0.00755892 8.67627e-18)
(0.00886747 0.00722256 9.37262e-18)
(0.00898035 0.00688557 1.00301e-17)
(0.00908667 0.00654813 1.07325e-17)
(0.00918657 0.00621039 1.13403e-17)
(0.00928018 0.0058725 9.35397e-18)
(0.00936762 0.00553457 1.11621e-17)
(0.00944905 0.00519672 6.81227e-18)
(0.00952458 0.00485903 8.56619e-18)
(0.00959435 0.0045216 1.1146e-17)
(0.0096585 0.00418446 7.24992e-18)
(0.00971716 0.00384768 8.61146e-18)
(0.00977044 0.00351128 6.5256e-18)
(0.00981846 0.00317529 6.12037e-18)
(0.00986134 0.0028397 8.08255e-18)
(0.00989917 0.00250451 6.809e-18)
(0.00993206 0.00216971 1.75114e-18)
(0.00996008 0.00183525 3.82009e-18)
(0.00998332 0.00150111 8.65599e-18)
(0.0100018 0.00116724 5.30784e-18)
(0.0100157 0.000833581 2.4498e-18)
(0.0100249 0.000500082 2.17501e-18)
(0.0100295 0.00016668 5.30354e-18)
(0.0100295 -0.000166691 1.20874e-17)
(0.0100249 -0.000500093 1.62845e-17)
(0.0100157 -0.000833591 1.45485e-17)
(0.0100018 -0.00116725 1.67232e-17)
(0.00998332 -0.00150112 1.81133e-17)
(0.00996009 -0.00183526 1.58379e-17)
(0.00993206 -0.00216971 2.05085e-17)
(0.00989917 -0.00250452 2.96177e-17)
(0.00986134 -0.0028397 4.99811e-17)
(0.00946442 0.00762826 1.06136e-17)
(0.00881614 0.00807386 1.38732e-17)
(0.00894851 0.00773018 1.02464e-17)
(0.00907271 0.00738686 9.83843e-18)
(0.00919001 0.00704283 9.39647e-18)
(0.00930056 0.00669826 1.02098e-17)
(0.00940448 0.00635332 1.0342e-17)
(0.0095019 0.00600815 8.14291e-18)
(0.00959295 0.00566288 1.04035e-17)
(0.00967777 0.00531761 5.96515e-18)
(0.0097565 0.00497245 9.91925e-18)
(0.00982927 0.00462747 1.2472e-17)
(0.00989621 0.00428274 6.58829e-18)
(0.00995744 0.00393831 7.98574e-18)
(0.0100131 0.00359421 5.97315e-18)
(0.0100633 0.00325046 4.64178e-18)
(0.0101081 0.00290708 6.76009e-18)
(0.0101477 0.00256406 6.11122e-18)
(0.0101821 0.00222139 2.19447e-18)
(0.0102114 0.00187904 4.34125e-18)
(0.0102358 0.00153697 9.12594e-18)
(0.0102552 0.00119515 5.44682e-18)
(0.0102697 0.000853534 1.96457e-18)
(0.0102793 0.000512059 2.13062e-18)
(0.0102841 0.000170673 5.45038e-18)
(0.0102841 -0.000170684 1.1714e-17)
(0.0102793 -0.00051207 1.51629e-17)
(0.0102697 -0.000853544 1.35233e-17)
(0.0102552 -0.00119516 1.53237e-17)
(0.0102358 -0.00153698 1.70396e-17)
(0.0102114 -0.00187905 1.50711e-17)
(0.0101821 -0.0022214 1.87755e-17)
(0.0101477 -0.00256407 2.46401e-17)
(0.0101081 -0.00290709 3.49333e-17)
(0.00965213 0.00781988 1.02858e-17)
(0.00901384 0.00825367 1.33662e-17)
(0.00915103 0.00790307 1.10586e-17)
(0.00927986 0.00755269 9.24044e-18)
(0.0094016 0.00720152 8.82564e-18)
(0.00951637 0.00684974 9.83004e-18)
(0.0096243 0.0064975 9.60406e-18)
(0.00972553 0.00614497 7.67585e-18)
(0.00982019 0.00579226 9.73839e-18)
(0.00990841 0.0054395 6.17262e-18)
(0.00999032 0.00508678 1.09036e-17)
(0.0100661 0.00473418 1.26628e-17)
(0.0101358 0.00438178 6.78702e-18)
(0.0101996 0.00402962 8.2212e-18)
(0.0102576 0.00367775 5.34188e-18)
(0.0103099 0.00332619 3.20147e-18)
(0.0103567 0.00297495 5.61129e-18)
(0.010398 0.00262404 5.69591e-18)
(0.010434 0.00227344 2.66453e-18)
(0.0104646 0.00192313 4.51653e-18)
(0.01049 0.00157308 9.65416e-18)
(0.0105103 0.00122326 5.7088e-18)
(0.0105254 0.000873622 1.50101e-18)
(0.0105355 0.000524116 1.55443e-18)
(0.0105405 0.000174693 5.22942e-18)
(0.0105405 -0.000174703 1.16536e-17)
(0.0105355 -0.000524127 1.43019e-17)
(0.0105254 -0.000873632 1.28108e-17)
(0.0105103 -0.00122327 1.41351e-17)
(0.01049 -0.00157309 1.60167e-17)
(0.0104646 -0.00192314 1.42613e-17)
(0.010434 -0.00227344 1.71733e-17)
(0.010398 -0.00262404 2.10275e-17)
(0.0103567 -0.00297496 2.57873e-17)
(0.00984188 0.00801337 8.99957e-18)
(0.00921355 0.00843531 1.27071e-17)
(0.00935557 0.00807768 1.11206e-17)
(0.00948905 0.00772014 8.77963e-18)
(0.00961523 0.00736173 9.12567e-18)
(0.00973423 0.00700264 9.84849e-18)
(0.00984617 0.00664301 9.04632e-18)
(0.00995121 0.00628302 7.13197e-18)
(0.0100495 0.00592279 8.77078e-18)
(0.0101411 0.00556244 7.45066e-18)
(0.0102262 0.00520208 1.12385e-17)
(0.0103049 0.00484178 1.18227e-17)
(0.0103774 0.00448163 7.31563e-18)
(0.0104438 0.00412168 8.70726e-18)
(0.0105041 0.00376196 4.69453e-18)
(0.0105586 0.00340251 2.02642e-18)
(0.0106073 0.00304335 4.49147e-18)
(0.0106503 0.00268447 5.99915e-18)
(0.0106878 0.00232588 3.03147e-18)
(0.0107197 0.00196755 4.15881e-18)
(0.0107462 0.00160946 9.96808e-18)
(0.0107674 0.00125157 5.70393e-18)
(0.0107832 0.000893857 1.14295e-18)
(0.0107937 0.000536262 1.23421e-18)
(0.0107989 0.000178742 4.80805e-18)
(0.0107989 -0.000178753 1.11182e-17)
(0.0107937 -0.000536272 1.31475e-17)
(0.0107832 -0.000893867 1.23585e-17)
(0.0107674 -0.00125158 1.35e-17)
(0.0107462 -0.00160947 1.52086e-17)
(0.0107197 -0.00196756 1.33934e-17)
(0.0106878 -0.00232589 1.59395e-17)
(0.0106503 -0.00268448 1.86044e-17)
(0.0106073 -0.00304335 1.96176e-17)
(0.0105586 -0.00340251 4.24743e-18)
(0.0100338 0.00820883 6.17363e-18)
(0.00941537 0.00861887 1.16647e-17)
(0.00956223 0.0082541 1.11328e-17)
(0.00970039 0.00788931 8.38109e-18)
(0.00983101 0.00752356 9.60685e-18)
(0.00995424 0.00715704 9.54762e-18)
(0.0100702 0.00678994 8.75073e-18)
(0.010179 0.00642239 6.97333e-18)
(0.0102809 0.00605455 8.41423e-18)
(0.0103759 0.00568652 8.60036e-18)
(0.0104642 0.00531843 1.02255e-17)
(0.0105459 0.00495035 1.08827e-17)
(0.0106211 0.00458236 8.47168e-18)
(0.0106901 0.00421452 8.88463e-18)
(0.0107528 0.00384688 3.91243e-18)
(0.0108094 0.00347947 1.32105e-18)
(0.01086 0.00311231 3.85841e-18)
(0.0109048 0.0027454 6.33733e-18)
(0.0109437 0.00237874 2.81096e-18)
(0.010977 0.00201233 3.85242e-18)
(0.0110045 0.00164613 9.84879e-18)
(0.0110265 0.00128011 5.31573e-18)
(0.011043 0.000914251 1.49482e-18)
(0.0110539 0.000548502 2.15835e-18)
(0.0110594 0.000182823 4.48887e-18)
(0.0110594 -0.000182833 9.66832e-18)
(0.0110539 -0.000548513 1.18691e-17)
(0.011043 -0.000914261 1.19406e-17)
(0.0110265 -0.00128012 1.22696e-17)
(0.0110045 -0.00164613 1.39329e-17)
(0.010977 -0.00201233 1.29287e-17)
(0.0109437 -0.00237875 1.48407e-17)
(0.0109048 -0.00274541 1.67912e-17)
(0.01086 -0.00311231 1.52391e-17)
(0.0108094 -0.00347947 4.39276e-18)
(0.010228 0.00840637 3.76365e-18)
(0.00961942 0.00880446 1.05939e-17)
(0.00977114 0.00843244 1.12886e-17)
(0.00991397 0.00806027 8.09917e-18)
(0.0100491 0.00768708 9.93668e-18)
(0.0101765 0.00731305 8.69727e-18)
(0.0102965 0.00693835 8.56924e-18)
(0.0104092 0.00656315 6.99639e-18)
(0.0105146 0.0061876 8.3598e-18)
(0.010613 0.0058118 8.81452e-18)
(0.0107045 0.00543588 9.35226e-18)
(0.0107892 0.00505993 1.07845e-17)
(0.0108672 0.00468402 9.54213e-18)
(0.0109386 0.00430822 8.33513e-18)
(0.0110037 0.00393257 3.29022e-18)
(0.0110625 0.00355712 1.58797e-18)
(0.011115 0.00318188 3.48746e-18)
(0.0111615 0.00280686 5.60712e-18)
(0.0112019 0.00243207 2.03776e-18)
(0.0112364 0.00205749 3.61445e-18)
(0.0112651 0.0016831 8.77911e-18)
(0.0112879 0.00130889 5.08803e-18)
(0.011305 0.000934816 2.82525e-18)
(0.0113164 0.000560846 3.79475e-18)
(0.0113221 0.000186938 4.47551e-18)
(0.0113221 -0.000186948 8.0464e-18)
(0.0113164 -0.000560856 1.07992e-17)
(0.011305 -0.000934827 1.17569e-17)
(0.0112879 -0.0013089 1.11588e-17)
(0.0112651 -0.00168311 1.22913e-17)
(0.0112364 -0.00205749 1.23637e-17)
(0.0112019 -0.00243207 1.3357e-17)
(0.0111615 -0.00280686 1.45972e-17)
(0.011115 -0.00318188 1.22515e-17)
(0.0110625 -0.00355712 5.02516e-18)
(0.0104245 0.00860607 2.89883e-18)
(0.00982579 0.00899216 9.79429e-18)
(0.00998241 0.00861278 1.13563e-17)
(0.0101299 0.00823314 7.58685e-18)
(0.0102695 0.00785239 1.01171e-17)
(0.0104012 0.00747073 8.3873e-18)
(0.0105252 0.00708834 8.06087e-18)
(0.0106417 0.00670539 6.64865e-18)
(0.0107508 0.00632202 8.20783e-18)
(0.0108526 0.00593836 8.65692e-18)
(0.0109472 0.00555452 9.10733e-18)
(0.0110349 0.0051706 1.05684e-17)
(0.0111156 0.00478667 9.49755e-18)
(0.0111896 0.00440282 7.21455e-18)
(0.011257 0.00401908 3.40625e-18)
(0.0113179 0.0036355 2.47642e-18)
(0.0113724 0.00325209 3.20546e-18)
(0.0114206 0.00286889 4.33145e-18)
(0.0114625 0.00248588 1.15356e-18)
(0.0114983 0.00210306 3.43367e-18)
(0.011528 0.00172041 7.26265e-18)
(0.0115517 0.00133793 5.23477e-18)
(0.0115695 0.000955566 4.74122e-18)
(0.0115813 0.000573299 5.21014e-18)
(0.0115872 0.000191089 4.29979e-18)
(0.0115872 -0.0001911 6.73238e-18)
(0.0115813 -0.00057331 9.95822e-18)
(0.0115695 -0.000955577 1.18426e-17)
(0.0115517 -0.00133794 1.02925e-17)
(0.011528 -0.00172042 1.0732e-17)
(0.0114983 -0.00210306 1.19668e-17)
(0.0114625 -0.00248588 1.13218e-17)
(0.0114206 -0.00286889 1.23003e-17)
(0.0113724 -0.00325209 1.04667e-17)
(0.0106235 0.00880805 3.33102e-18)
(0.0100346 0.00918209 9.98509e-18)
(0.0101961 0.00879523 1.16854e-17)
(0.0103484 0.00840799 7.05897e-18)
(0.0104924 0.00801957 1.01313e-17)
(0.0106284 0.00763017 8.46627e-18)
(0.0107565 0.00723998 6.7151e-18)
(0.0108768 0.00684917 6.08638e-18)
(0.0109895 0.00645788 8.10154e-18)
(0.0110946 0.00606625 8.704e-18)
(0.0111925 0.00567439 9.07319e-18)
(0.0112831 0.0052824 1.02043e-17)
(0.0113666 0.00489037 9.43925e-18)
(0.0114432 0.00449837 6.57277e-18)
(0.0115129 0.00410645 3.7722e-18)
(0.0115759 0.00371465 2.59429e-18)
(0.0116323 0.003323 2.72762e-18)
(0.0116822 0.00293151 3.69093e-18)
(0.0117256 0.0025402 9.48051e-19)
(0.0117627 0.00214906 3.56149e-18)
(0.0117935 0.00175808 6.00551e-18)
(0.0118181 0.00136724 5.33109e-18)
(0.0118365 0.000976511 6.03536e-18)
(0.0118487 0.000585869 5.93047e-18)
(0.0118548 0.00019528 3.89658e-18)
(0.0118548 -0.000195291 5.75712e-18)
(0.0118487 -0.00058588 9.36301e-18)
(0.0118365 -0.000976522 1.21808e-17)
(0.0118181 -0.00136725 1.01677e-17)
(0.0117935 -0.00175809 9.4302e-18)
(0.0117627 -0.00214907 1.12366e-17)
(0.0117256 -0.00254021 9.73986e-18)
(0.0116822 -0.00293152 1.0662e-17)
(0.0116323 -0.003323 9.00638e-18)
(0.0108251 0.00901242 4.08293e-18)
(0.010246 0.00937435 1.08395e-17)
(0.0104125 0.00897988 1.13726e-17)
(0.0105694 0.00858493 6.55605e-18)
(0.010718 0.00818872 1.00963e-17)
(0.0108583 0.00779147 8.14545e-18)
(0.0109904 0.00739337 5.57322e-18)
(0.0111145 0.00699458 6.16679e-18)
(0.0112308 0.00659527 8.063e-18)
(0.0113394 0.00619556 8.90562e-18)
(0.0114404 0.00579558 9.00049e-18)
(0.011534 0.00539542 9.88834e-18)
(0.0116203 0.00499518 9.29175e-18)
(0.0116995 0.00459493 6.15434e-18)
(0.0117715 0.00419473 4.04331e-18)
(0.0118367 0.00379462 2.21509e-18)
(0.011895 0.00339463 2.88614e-18)
(0.0119465 0.00299478 4.0296e-18)
(0.0119915 0.00259508 1.08862e-18)
(0.0120298 0.00219553 3.53549e-18)
(0.0120617 0.00179612 5.04376e-18)
(0.0120871 0.00139684 4.98342e-18)
(0.0121061 0.000997665 6.30075e-18)
(0.0121188 0.000598564 6.1603e-18)
(0.0121251 0.000199512 3.80178e-18)
(0.0121251 -0.000199524 5.13172e-18)
(0.0121188 -0.000598575 8.92878e-18)
(0.0121061 -0.000997676 1.21632e-17)
(0.0120871 -0.00139685 9.98417e-18)
(0.0120617 -0.00179613 8.52997e-18)
(0.0120298 -0.00219554 1.02525e-17)
(0.0119915 -0.00259509 8.5955e-18)
(0.0119465 -0.00299478 9.3067e-18)
(0.011895 -0.00339463 9.33006e-18)
(0.0110295 0.00921927 4.19676e-18)
(0.01046 0.00956904 1.15836e-17)
(0.0106315 0.00916684 1.03321e-17)
(0.0107932 0.00876405 5.92681e-18)
(0.0109463 0.00835994 9.86736e-18)
(0.0110909 0.00795472 7.7767e-18)
(0.0112271 0.00754858 5.15298e-18)
(0.0113551 0.00714171 6.09749e-18)
(0.011475 0.00673425 7.55681e-18)
(0.011587 0.00632636 8.9276e-18)
(0.0116912 0.00591814 9.02363e-18)
(0.0117878 0.00550971 9.55452e-18)
(0.0118769 0.00510116 8.90159e-18)
(0.0119585 0.00469256 6.31756e-18)
(0.012033 0.00428398 4.444e-18)
(0.0121002 0.00387546 1.8196e-18)
(0.0121604 0.00346703 2.934e-18)
(0.0122137 0.00305872 4.05749e-18)
(0.0122601 0.00265054 1.10575e-18)
(0.0122998 0.00224249 3.11367e-18)
(0.0123327 0.00183457 4.32221e-18)
(0.012359 0.00142676 4.65172e-18)
(0.0123786 0.00101904 6.1951e-18)
(0.0123917 0.000611391 5.80125e-18)
(0.0123983 0.000203788 4.00374e-18)
(0.0123983 -0.0002038 4.88913e-18)
(0.0123917 -0.000611403 8.70511e-18)
(0.0123786 -0.00101905 1.23158e-17)
(0.012359 -0.00142677 9.7293e-18)
(0.0123327 -0.00183458 7.7831e-18)
(0.0122998 -0.0022425 8.85353e-18)
(0.0122601 -0.00265054 7.70306e-18)
(0.0122137 -0.00305872 8.28804e-18)
(0.0121604 -0.00346703 1.02447e-17)
(0.0112366 0.00942872 5.10662e-18)
(0.0106769 0.00976626 1.15468e-17)
(0.0108533 0.00935621 8.70411e-18)
(0.0110198 0.00894546 6.13026e-18)
(0.0111775 0.00853331 9.48866e-18)
(0.0113264 0.00812 7.21706e-18)
(0.0114667 0.00770571 4.48341e-18)
(0.0115986 0.00729063 5.15279e-18)
(0.0117221 0.00687491 7.06083e-18)
(0.0118376 0.00645871 9.45899e-18)
(0.011945 0.00604215 9.32272e-18)
(0.0120445 0.00562533 9.10098e-18)
(0.0121364 0.00520836 8.41978e-18)
(0.0122206 0.00479131 6.75669e-18)
(0.0122974 0.00437424 4.54381e-18)
(0.0123668 0.00395721 1.51551e-18)
(0.0124289 0.00354024 3.25217e-18)
(0.0124839 0.00312337 4.42307e-18)
(0.0125318 0.00270661 8.80104e-19)
(0.0125727 0.00228997 1.91909e-18)
(0.0126067 0.00187343 3.52349e-18)
(0.0126338 0.00145699 4.56804e-18)
(0.0126541 0.00104064 6.12877e-18)
(0.0126676 0.000624358 5.35081e-18)
(0.0126744 0.000208111 4.5529e-18)
(0.0126744 -0.000208123 4.99331e-18)
(0.0126676 -0.000624369 8.60392e-18)
(0.0126541 -0.00104066 1.26335e-17)
(0.0126338 -0.00145701 9.4545e-18)
(0.0126067 -0.00187344 7.11206e-18)
(0.0125727 -0.00228997 7.03845e-18)
(0.0125318 -0.00270662 6.61925e-18)
(0.0124839 -0.00312337 9.07544e-18)
(0.0114467 0.00964088 6.93916e-18)
(0.0108966 0.00996614 1.11722e-17)
(0.0110781 0.00954809 7.82937e-18)
(0.0112494 0.00912925 6.64559e-18)
(0.0114117 0.00870894 8.62119e-18)
(0.0115649 0.0082874 6.2697e-18)
(0.0117093 0.00786483 4.74858e-18)
(0.0118451 0.00744142 4.93343e-18)
(0.0119723 0.00701733 6.57925e-18)
(0.0120912 0.0065927 1.01047e-17)
(0.0122018 0.00616768 9.99257e-18)
(0.0123044 0.00574236 8.43979e-18)
(0.012399 0.00531685 7.87918e-18)
(0.0124858 0.00489124 6.95854e-18)
(0.0125649 0.00446557 4.36321e-18)
(0.0126365 0.00403992 1.73557e-18)
(0.0127005 0.00361431 3.65418e-18)
(0.0127572 0.00318877 4.44015e-18)
(0.0128066 0.00276333 2.3765e-19)
(0.0128488 0.00233798 7.31137e-19)
(0.0128839 0.00191274 2.86682e-18)
(0.0129118 0.00148758 4.77584e-18)
(0.0129328 0.0010625 6.22318e-18)
(0.0129467 0.000637471 4.85077e-18)
(0.0129537 0.000212482 4.8878e-18)
(0.0129537 -0.000212494 5.71548e-18)
(0.0129467 -0.000637483 8.54471e-18)
(0.0129328 -0.00106251 1.23763e-17)
(0.0129118 -0.00148759 9.29206e-18)
(0.0128839 -0.00191275 6.86292e-18)
(0.0128488 -0.00233799 5.79234e-18)
(0.0128066 -0.00276333 5.53568e-18)
(0.0127572 -0.00318877 1.02397e-17)
(0.0116598 0.00985586 9.19345e-18)
(0.0111193 0.0101688 1.01822e-17)
(0.0113059 0.00974259 7.31432e-18)
(0.0114821 0.00931552 6.72221e-18)
(0.011649 0.00888692 7.48189e-18)
(0.0118066 0.00845703 6.14515e-18)
(0.0119552 0.00802605 5.80232e-18)
(0.0120948 0.00759417 4.59855e-18)
(0.0122257 0.00716157 6.19242e-18)
(0.0123481 0.0067284 1.0213e-17)
(0.0124619 0.00629479 1.03084e-17)
(0.0125675 0.00586086 8.02989e-18)
(0.0126649 0.0054267 7.42915e-18)
(0.0127543 0.00499239 6.83131e-18)
(0.0128358 0.00455802 4.10932e-18)
(0.0129094 0.00412363 1.71957e-18)
(0.0129754 0.00368927 3.66712e-18)
(0.0130338 0.00325496 4.33346e-18)
(0.0130847 0.00282073 -1.10413e-19)
(0.0131282 0.00238658 1.58629e-19)
(0.0131643 0.00195251 2.37541e-18)
(0.0131931 0.00151852 4.73087e-18)
(0.0132147 0.00108461 6.23177e-18)
(0.0132291 0.000650739 4.40269e-18)
(0.0132363 0.000216905 5.19384e-18)
(0.0132363 -0.000216918 6.84748e-18)
(0.0132291 -0.000650752 8.53712e-18)
(0.0132147 -0.00108462 1.15322e-17)
(0.0131932 -0.00151854 8.85184e-18)
(0.0131643 -0.00195252 6.78139e-18)