/*--------------------------------*- C++ -*----------------------------------*\
  =========                 |
  \\      /  F ield         | OpenFOAM: The Open Source CFD Toolbox
   \\    /   O peration     | Website:  https://openfoam.org
    \\  /    A nd           | Version:  7
     \\/     M anipulation  |
\*---------------------------------------------------------------------------*/
FoamFile
{
    version     2.0;
    format      ascii;
    class       volScalarField;
    location    "80000";
    object      strainRate;
}
// * * * * * * * * * * * * * * * * * * * * * * * * * * * * * * * * * * * * * //

dimensions      [0 0 -1 0 0 0 0];

internalField   nonuniform List<scalar> 
4838
(
3.84763e-05
3.75344e-05
3.69847e-05
3.60845e-05
3.49807e-05
3.37608e-05
3.24634e-05
3.11107e-05
2.97174e-05
2.82945e-05
2.68514e-05
2.53961e-05
2.39366e-05
2.24809e-05
2.10377e-05
1.96166e-05
1.82293e-05
1.689e-05
1.56162e-05
1.443e-05
1.3359e-05
1.24366e-05
1.17012e-05
1.11918e-05
1.09416e-05
1.0969e-05
1.12721e-05
1.18287e-05
1.2604e-05
1.35584e-05
1.46545e-05
1.586e-05
1.71484e-05
1.84985e-05
1.98936e-05
2.13201e-05
2.27669e-05
2.42245e-05
2.56843e-05
2.71387e-05
2.85797e-05
2.99991e-05
3.13878e-05
3.27346e-05
3.40246e-05
3.52358e-05
3.63292e-05
3.72229e-05
3.77678e-05
3.86513e-05
4.47924e-05
4.15587e-05
4.11294e-05
4.02988e-05
3.91829e-05
3.78911e-05
3.64892e-05
3.50165e-05
3.34973e-05
3.19481e-05
3.03811e-05
2.88065e-05
2.72336e-05
2.56719e-05
2.41312e-05
2.26228e-05
2.11599e-05
1.97581e-05
1.84366e-05
1.72183e-05
1.61308e-05
1.52056e-05
1.44768e-05
1.39772e-05
1.37334e-05
1.37596e-05
1.40543e-05
1.46004e-05
1.53698e-05
1.63289e-05
1.7444e-05
1.86842e-05
2.0023e-05
2.14381e-05
2.29111e-05
2.44268e-05
2.59727e-05
2.75378e-05
2.91123e-05
3.06872e-05
3.2253e-05
3.37998e-05
3.53154e-05
3.67832e-05
3.8179e-05
3.94638e-05
4.05718e-05
4.13969e-05
4.18182e-05
4.50434e-05
4.68584e-05
4.29596e-05
4.23974e-05
4.17142e-05
4.08172e-05
3.97324e-05
3.85041e-05
3.71713e-05
3.57637e-05
3.43037e-05
3.28087e-05
3.12931e-05
2.97702e-05
2.82524e-05
2.67528e-05
2.52853e-05
2.38654e-05
2.25106e-05
2.12413e-05
2.00805e-05
1.9054e-05
1.81898e-05
1.75161e-05
1.70586e-05
1.68369e-05
1.68615e-05
1.7131e-05
1.76333e-05
1.83471e-05
1.92459e-05
2.03015e-05
2.14863e-05
2.27749e-05
2.4145e-05
2.55767e-05
2.70531e-05
2.85591e-05
3.0081e-05
3.16062e-05
3.31223e-05
3.46164e-05
3.60741e-05
3.7478e-05
3.88062e-05
4.00289e-05
4.11077e-05
4.19989e-05
4.26795e-05
4.32405e-05
4.7138e-05
4.92737e-05
4.51796e-05
4.43565e-05
4.35964e-05
4.27476e-05
4.17653e-05
4.06519e-05
3.94278e-05
3.81167e-05
3.67406e-05
3.53186e-05
3.38676e-05
3.24033e-05
3.09405e-05
2.94945e-05
2.8081e-05
2.67169e-05
2.5421e-05
2.42134e-05
2.31166e-05
2.21541e-05
2.13502e-05
2.07284e-05
2.0309e-05
2.01072e-05
2.01305e-05
2.03783e-05
2.08411e-05
2.15025e-05
2.23415e-05
2.33343e-05
2.44567e-05
2.56853e-05
2.69983e-05
2.83757e-05
2.97995e-05
3.12531e-05
3.27209e-05
3.41883e-05
3.56403e-05
3.70618e-05
3.8436e-05
3.97438e-05
4.09639e-05
4.20728e-05
4.30508e-05
4.38964e-05
4.46573e-05
4.54836e-05
4.95861e-05
5.19508e-05
4.78069e-05
4.67851e-05
4.58927e-05
4.49992e-05
4.40367e-05
4.29788e-05
4.18252e-05
4.05882e-05
3.92843e-05
3.79308e-05
3.65449e-05
3.51429e-05
3.37411e-05
3.23557e-05
3.10035e-05
2.97023e-05
2.84708e-05
2.73288e-05
2.62972e-05
2.53975e-05
2.46508e-05
2.40765e-05
2.36913e-05
2.3507e-05
2.35296e-05
2.37585e-05
2.41862e-05
2.47998e-05
2.55821e-05
2.6513e-05
2.75714e-05
2.87359e-05
2.9986e-05
3.13021e-05
3.26659e-05
3.40599e-05
3.54679e-05
3.68736e-05
3.82613e-05
3.96148e-05
4.09174e-05
4.2152e-05
4.33025e-05
4.43573e-05
4.53175e-05
4.62104e-05
4.71061e-05
4.81332e-05
5.22901e-05
5.48171e-05
5.06787e-05
4.95187e-05
4.85045e-05
4.75359e-05
4.65476e-05
4.55019e-05
4.43851e-05
4.31984e-05
4.19514e-05
4.06578e-05
3.93328e-05
3.79923e-05
3.66525e-05
3.53299e-05
3.40417e-05
3.28053e-05
3.16393e-05
3.05625e-05
2.95944e-05
2.87541e-05
2.806e-05
2.75287e-05
2.71739e-05
2.70052e-05
2.70274e-05
2.72399e-05
2.76367e-05
2.82073e-05
2.89373e-05
2.98096e-05
3.08056e-05
3.19062e-05
3.30922e-05
3.43447e-05
3.56459e-05
3.69782e-05
3.83251e-05
3.96703e-05
4.09978e-05
4.22922e-05
4.35385e-05
4.47237e-05
4.58386e-05
4.68826e-05
4.78703e-05
4.88401e-05
4.98593e-05
5.10259e-05
5.51798e-05
5.78119e-05
5.37075e-05
5.24519e-05
5.13409e-05
5.02977e-05
4.92667e-05
4.82094e-05
4.71059e-05
4.595e-05
4.47454e-05
4.35015e-05
4.22309e-05
4.09479e-05
3.96678e-05
3.84068e-05
3.71813e-05
3.60086e-05
3.49062e-05
3.38919e-05
3.29833e-05
3.21979e-05
3.15517e-05
3.1059e-05
3.07312e-05
3.05763e-05
3.05983e-05
3.07966e-05
3.11663e-05
3.16985e-05
3.2381e-05
3.31992e-05
3.41366e-05
3.5176e-05
3.62995e-05
3.74897e-05
3.87291e-05
4.0001e-05
4.1289e-05
4.25775e-05
4.38515e-05
4.50969e-05
4.63017e-05
4.74569e-05
4.85596e-05
4.96164e-05
5.06482e-05
5.16941e-05
5.28109e-05
5.40738e-05
5.81955e-05
6.08859e-05
5.68349e-05
5.55142e-05
5.43311e-05
5.32251e-05
5.21504e-05
5.10721e-05
4.99687e-05
4.88305e-05
4.76567e-05
4.64532e-05
4.52298e-05
4.39988e-05
4.27744e-05
4.15714e-05
4.04056e-05
3.92932e-05
3.82507e-05
3.72945e-05
3.6441e-05
3.57056e-05
3.51026e-05
3.46442e-05
3.43404e-05
3.41978e-05
3.42198e-05
3.44058e-05
3.47517e-05
3.52498e-05
3.58898e-05
3.66587e-05
3.75421e-05
3.85242e-05
3.9589e-05
4.07199e-05
4.19007e-05
4.31155e-05
4.43489e-05
4.55861e-05
4.68135e-05
4.80193e-05
4.9194e-05
5.03324e-05
5.14358e-05
5.25146e-05
5.35911e-05
5.47007e-05
5.58903e-05
5.7219e-05
6.12889e-05
6.40005e-05
6.00181e-05
5.86553e-05
5.74213e-05
5.62671e-05
5.5155e-05
5.4055e-05
5.29464e-05
5.18182e-05
5.06673e-05
4.94967e-05
4.8314e-05
4.71295e-05
4.59557e-05
4.48063e-05
4.36959e-05
4.26395e-05
4.16523e-05
4.07497e-05
3.99463e-05
3.92561e-05
3.86918e-05
3.8264e-05
3.79815e-05
3.78499e-05
3.7872e-05
3.80473e-05
3.83723e-05
3.88404e-05
3.94424e-05
4.01669e-05
4.1001e-05
4.19307e-05
4.2941e-05
4.4017e-05
4.51434e-05
4.63055e-05
4.74889e-05
4.86803e-05
4.98677e-05
5.1041e-05
5.21934e-05
5.33223e-05
5.44315e-05
5.55328e-05
5.66475e-05
5.78062e-05
5.90476e-05
6.04194e-05
6.44225e-05
6.71255e-05
6.32239e-05
6.18374e-05
6.05702e-05
5.93818e-05
5.82414e-05
5.71233e-05
5.6009e-05
5.48876e-05
5.37548e-05
5.2612e-05
5.14647e-05
5.03216e-05
4.91937e-05
4.80932e-05
4.70335e-05
4.60284e-05
4.50919e-05
4.4238e-05
4.348e-05
4.28305e-05
4.23008e-05
4.19004e-05
4.16367e-05
4.15149e-05
4.15373e-05
4.17034e-05
4.20101e-05
4.24516e-05
4.30197e-05
4.37044e-05
4.44941e-05
4.5376e-05
4.63366e-05
4.73621e-05
4.84386e-05
4.95525e-05
5.06907e-05
5.18413e-05
5.29937e-05
5.41397e-05
5.52744e-05
5.63969e-05
5.75122e-05
5.86321e-05
5.97758e-05
6.09695e-05
6.22452e-05
6.36425e-05
6.7567e-05
7.02368e-05
6.64264e-05
6.5031e-05
6.37452e-05
6.25356e-05
6.13763e-05
6.02458e-05
5.91281e-05
5.80131e-05
5.68961e-05
5.57776e-05
5.46618e-05
5.35559e-05
5.24695e-05
5.14137e-05
5.04003e-05
4.9442e-05
4.85516e-05
4.77419e-05
4.70249e-05
4.64119e-05
4.59132e-05
4.55372e-05
4.52905e-05
4.51775e-05
4.52003e-05
4.53584e-05
4.5649e-05
4.60669e-05
4.66049e-05
4.7254e-05
4.80036e-05
4.88422e-05
4.97576e-05
5.07371e-05
5.1768e-05
5.2838e-05
5.39352e-05
5.50489e-05
5.61702e-05
5.72921e-05
5.84111e-05
5.95274e-05
6.06464e-05
6.17791e-05
6.29423e-05
6.41585e-05
6.54544e-05
6.68632e-05
7.06997e-05
7.33146e-05
6.96043e-05
6.82124e-05
6.69206e-05
6.57008e-05
6.45317e-05
6.33952e-05
6.22778e-05
6.11703e-05
6.00686e-05
5.89726e-05
5.78856e-05
5.68137e-05
5.57653e-05
5.47501e-05
5.37791e-05
5.28635e-05
5.20151e-05
5.12454e-05
5.05655e-05
4.99855e-05
4.95146e-05
4.91605e-05
4.8929e-05
4.88239e-05
4.88472e-05
4.89984e-05
4.92749e-05
4.96719e-05
5.01831e-05
5.08001e-05
5.15136e-05
5.23131e-05
5.31873e-05
5.41249e-05
5.51141e-05
5.61439e-05
5.72035e-05
5.82836e-05
5.93762e-05
6.04758e-05
6.15795e-05
6.26882e-05
6.38072e-05
6.49463e-05
6.61203e-05
6.73481e-05
6.86525e-05
7.00616e-05
7.38026e-05
7.63428e-05
7.274e-05
7.13622e-05
7.00749e-05
6.88549e-05
6.76844e-05
6.65482e-05
6.54351e-05
6.43376e-05
6.32518e-05
6.21775e-05
6.11176e-05
6.00773e-05
5.9064e-05
5.80864e-05
5.71543e-05
5.62778e-05
5.54678e-05
5.47345e-05
5.40881e-05
5.3538e-05
5.30922e-05
5.27578e-05
5.254e-05
5.24423e-05
5.24662e-05
5.26113e-05
5.28752e-05
5.32537e-05
5.37408e-05
5.43291e-05
5.501e-05
5.57739e-05
5.66106e-05
5.75097e-05
5.84607e-05
5.94534e-05
6.04783e-05
6.15269e-05
6.25925e-05
6.36703e-05
6.4758e-05
6.58569e-05
6.69717e-05
6.81112e-05
6.92879e-05
7.05182e-05
7.18215e-05
7.32218e-05
7.68616e-05
7.93071e-05
7.58186e-05
7.4464e-05
7.31905e-05
7.19791e-05
7.08146e-05
6.96848e-05
6.85806e-05
6.74956e-05
6.6427e-05
6.53746e-05
6.43409e-05
6.33307e-05
6.23504e-05
6.14078e-05
6.05117e-05
5.96713e-05
5.88965e-05
5.81966e-05
5.75808e-05
5.70577e-05
5.66347e-05
5.63182e-05
5.61129e-05
5.60218e-05
5.60465e-05
5.61863e-05
5.64392e-05
5.68011e-05
5.72666e-05
5.7829e-05
5.84802e-05
5.92116e-05
6.0014e-05
6.08776e-05
6.17931e-05
6.27512e-05
6.37435e-05
6.47623e-05
6.58017e-05
6.68575e-05
6.79281e-05
6.90145e-05
7.01209e-05
7.1255e-05
7.24276e-05
7.36527e-05
7.49468e-05
7.63308e-05
7.98651e-05
8.21949e-05
7.88273e-05
7.75037e-05
7.6252e-05
7.50571e-05
7.39057e-05
7.2788e-05
7.16969e-05
7.06277e-05
6.9578e-05
6.85481e-05
6.75405e-05
6.65594e-05
6.56106e-05
6.4701e-05
6.38386e-05
6.30319e-05
6.22896e-05
6.16204e-05
6.10327e-05
6.05344e-05
6.01323e-05
5.98321e-05
5.96382e-05
5.95534e-05
5.95788e-05
5.97141e-05
5.99571e-05
6.03041e-05
6.07502e-05
6.12889e-05
6.19131e-05
6.26147e-05
6.33853e-05
6.4216e-05
6.50983e-05
6.60239e-05
6.6985e-05
6.7975e-05
6.89885e-05
7.00219e-05
7.10736e-05
7.21447e-05
7.32388e-05
7.43624e-05
7.55249e-05
7.67382e-05
7.80167e-05
7.93783e-05
8.28038e-05
8.49938e-05
8.17549e-05
8.04686e-05
7.92456e-05
7.80751e-05
7.69431e-05
7.58428e-05
7.47692e-05
7.3719e-05
7.26904e-05
7.16841e-05
7.07029e-05
6.97505e-05
6.88322e-05
6.79542e-05
6.71238e-05
6.63488e-05
6.56369e-05
6.49963e-05
6.44345e-05
6.3959e-05
6.3576e-05
6.32909e-05
6.31075e-05
6.30285e-05
6.30549e-05
6.31862e-05
6.34205e-05
6.37541e-05
6.41825e-05
6.46997e-05
6.5299e-05
6.59731e-05
6.6714e-05
6.75138e-05
6.83648e-05
6.92592e-05
7.01903e-05
7.11521e-05
7.21396e-05
7.31497e-05
7.4181e-05
7.52341e-05
7.63122e-05
7.74209e-05
7.85681e-05
7.97642e-05
8.10215e-05
8.23556e-05
8.56702e-05
8.7687e-05
8.45919e-05
8.33471e-05
8.21583e-05
8.10204e-05
7.99141e-05
7.88362e-05
7.77844e-05
7.67565e-05
7.57513e-05
7.47702e-05
7.3816e-05
7.28925e-05
7.20042e-05
7.11569e-05
7.03573e-05
6.96123e-05
6.89292e-05
6.83153e-05
6.77778e-05
6.73234e-05
6.69582e-05
6.6687e-05
6.65136e-05
6.64401e-05
6.64676e-05
6.65955e-05
6.68218e-05
6.71434e-05
6.75556e-05
6.80531e-05
6.86294e-05
6.92778e-05
6.99909e-05
7.07615e-05
7.15824e-05
7.24469e-05
7.33487e-05
7.42824e-05
7.52437e-05
7.62295e-05
7.72385e-05
7.82712e-05
7.93301e-05
8.04199e-05
8.15475e-05
8.27217e-05
8.39532e-05
8.52557e-05
8.84579e-05
9.01545e-05
8.72623e-05
8.61315e-05
8.49765e-05
8.38822e-05
8.28072e-05
8.17561e-05
8.07303e-05
7.97288e-05
7.87496e-05
7.77951e-05
7.68691e-05
7.5975e-05
7.51168e-05
7.42996e-05
7.35298e-05
7.28139e-05
7.21583e-05
7.15697e-05
7.10549e-05
7.06204e-05
7.02718e-05
7.00138e-05
6.98497e-05
6.97815e-05
6.98102e-05
6.99352e-05
7.01546e-05
7.04652e-05
7.08627e-05
7.13419e-05
7.18969e-05
7.25211e-05
7.32079e-05
7.39505e-05
7.47425e-05
7.55778e-05
7.64508e-05
7.73565e-05
7.8291e-05
7.92514e-05
8.02365e-05
8.12464e-05
8.22832e-05
8.33508e-05
8.4455e-05
8.56034e-05
8.68053e-05
8.80728e-05
9.11617e-05
9.24182e-05
8.96887e-05
8.87e-05
8.76878e-05
8.66514e-05
8.56118e-05
8.45914e-05
8.35959e-05
8.26252e-05
8.16748e-05
8.07488e-05
7.98524e-05
7.89887e-05
7.8161e-05
7.73737e-05
7.66332e-05
7.59456e-05
7.53167e-05
7.47524e-05
7.42592e-05
7.38434e-05
7.35106e-05
7.32651e-05
7.31099e-05
7.3047e-05
7.3077e-05
7.31996e-05
7.34128e-05
7.37136e-05
7.40976e-05
7.45599e-05
7.50948e-05
7.56962e-05
7.63579e-05
7.70736e-05
7.78375e-05
7.8644e-05
7.94883e-05
8.03659e-05
8.1273e-05
8.22071e-05
8.31667e-05
8.41518e-05
8.51639e-05
8.62063e-05
8.72839e-05
8.84032e-05
8.95723e-05
9.08018e-05
9.37773e-05
9.10354e-05
9.01626e-05
8.92515e-05
8.8322e-05
8.73314e-05
8.63703e-05
8.54366e-05
8.45176e-05
8.36216e-05
8.27566e-05
8.1925e-05
8.11286e-05
8.03709e-05
7.96596e-05
7.90002e-05
7.83976e-05
7.78567e-05
7.73842e-05
7.69862e-05
7.66686e-05
7.64353e-05
7.62889e-05
7.6231e-05
7.62626e-05
7.63833e-05
7.65912e-05
7.6883e-05
7.72546e-05
7.77012e-05
7.82174e-05
7.87972e-05
7.94348e-05
8.01243e-05
8.08606e-05
8.16388e-05
8.24544e-05
8.33036e-05
8.41828e-05
8.50895e-05
8.60221e-05
8.69805e-05
8.79657e-05
8.89803e-05
9.00286e-05
9.1116e-05
9.22496e-05
9.34388e-05
9.6301e-05
9.2416e-05
9.16095e-05
9.08177e-05
8.99703e-05
8.90421e-05
8.81547e-05
8.72692e-05
8.64045e-05
8.5573e-05
8.47756e-05
8.40119e-05
8.32837e-05
8.26015e-05
8.19707e-05
8.13944e-05
8.08763e-05
8.04239e-05
8.00432e-05
7.97403e-05
7.9519e-05
7.93814e-05
7.93286e-05
7.9362e-05
7.94814e-05
7.96847e-05
7.99686e-05
8.03289e-05
8.07609e-05
8.12596e-05
8.18189e-05
8.24331e-05
8.30971e-05
8.38061e-05
8.45561e-05
8.5343e-05
8.61634e-05
8.7014e-05
8.78924e-05
8.87968e-05
8.97268e-05
9.06831e-05
9.16678e-05
9.26844e-05
9.37375e-05
9.48334e-05
9.59802e-05
9.87296e-05
9.3082e-05
9.2384e-05
9.16036e-05
9.07736e-05
8.99216e-05
8.9088e-05
8.82929e-05
8.75328e-05
8.68038e-05
8.61042e-05
8.54514e-05
8.485e-05
8.43008e-05
8.38051e-05
8.33724e-05
8.30084e-05
8.27203e-05
8.25113e-05
8.23826e-05
8.23349e-05
8.23703e-05
8.2489e-05
8.26887e-05
8.29657e-05
8.33155e-05
8.37342e-05
8.42165e-05
8.47564e-05
8.53481e-05
8.59869e-05
8.66689e-05
8.73907e-05
8.81488e-05
8.89401e-05
8.97615e-05
9.06107e-05
9.14857e-05
9.23859e-05
9.33116e-05
9.42644e-05
9.52472e-05
9.62641e-05
9.73203e-05
9.84231e-05
0.00010106
9.45741e-05
9.39307e-05
9.3217e-05
9.24721e-05
9.16626e-05
9.09078e-05
9.01887e-05
8.94979e-05
8.88241e-05
8.82014e-05
8.76312e-05
8.71107e-05
8.66364e-05
8.62238e-05
8.58762e-05
8.5603e-05
8.54071e-05
8.52877e-05
8.5245e-05
8.52827e-05
8.54015e-05
8.55986e-05
8.58696e-05
8.62101e-05
8.66166e-05
8.70839e-05
8.76054e-05
8.81754e-05
8.87895e-05
8.94446e-05
9.01381e-05
9.08672e-05
9.1629e-05
9.24207e-05
9.32399e-05
9.40845e-05
9.49536e-05
9.58471e-05
9.67664e-05
9.77138e-05
9.86926e-05
9.97076e-05
0.000100765
0.000103291
9.60434e-05
9.54216e-05
9.48037e-05
9.41234e-05
9.34092e-05
9.2735e-05
9.20891e-05
9.14343e-05
9.08435e-05
9.0307e-05
8.98183e-05
8.93633e-05
8.89722e-05
8.86401e-05
8.83828e-05
8.82011e-05
8.80921e-05
8.80538e-05
8.80942e-05
8.82139e-05
8.84097e-05
8.8676e-05
8.90078e-05
8.94035e-05
8.98574e-05
9.03618e-05
9.0911e-05
9.15006e-05
9.21288e-05
9.27942e-05
9.34941e-05
9.42261e-05
9.49876e-05
9.5776e-05
9.65893e-05
9.74262e-05
9.82863e-05
9.91706e-05
0.000100081
0.00010102
0.000101993
0.000103003
0.00010542
9.69084e-05
9.63502e-05
9.57187e-05
9.50909e-05
9.44994e-05
9.39297e-05
9.33689e-05
9.28692e-05
9.24187e-05
9.19773e-05
9.1612e-05
9.12936e-05
9.10536e-05
9.08882e-05
9.0791e-05
9.07558e-05
9.07993e-05
9.09213e-05
9.11172e-05
9.13802e-05
9.17036e-05
9.20902e-05
9.25329e-05
9.30215e-05
9.3551e-05
9.41164e-05
9.47179e-05
9.53551e-05
9.60258e-05
9.67276e-05
9.74585e-05
9.82157e-05
9.89969e-05
9.98005e-05
0.000100626
0.000101474
0.000102346
0.000103245
0.000104174
0.000105137
0.000107444
9.83675e-05
9.77987e-05
9.72164e-05
9.66742e-05
9.61933e-05
9.56973e-05
9.5235e-05
9.4832e-05
9.44741e-05
9.41387e-05
9.38286e-05
9.36091e-05
9.34626e-05
9.33799e-05
9.33447e-05
9.33925e-05
9.35182e-05
9.37159e-05
9.39773e-05
9.42921e-05
9.46717e-05
9.5106e-05
9.55805e-05
9.60918e-05
9.66331e-05
9.72082e-05
9.78175e-05
9.84587e-05
9.91303e-05
9.98302e-05
0.000100556
0.000101304
0.000102074
0.000102864
0.000103675
0.000104508
0.000105364
0.000106248
0.000107163
0.000109363
9.82358e-05
9.77909e-05
9.73655e-05
9.70059e-05
9.67357e-05
9.64732e-05
9.62425e-05
9.60426e-05
9.5918e-05
9.5855e-05
9.58126e-05
9.58675e-05
9.59987e-05
9.62e-05
9.64626e-05
9.67665e-05
9.71426e-05
9.75725e-05
9.80341e-05
9.85299e-05
9.90467e-05
9.95959e-05
0.000100178
0.00010079
0.000101431
0.000102099
0.000102793
0.000103508
0.000104243
0.000104997
0.000105769
0.000106562
0.000107376
0.000108215
0.000109081
0.000111174
9.87691e-05
9.85664e-05
9.8421e-05
9.82716e-05
9.81694e-05
9.81347e-05
9.81573e-05
9.82183e-05
9.83564e-05
9.85631e-05
9.88316e-05
9.91184e-05
9.94969e-05
9.9928e-05
0.000100377
0.000100862
0.000101353
0.000101877
0.000102433
0.000103016
0.000103626
0.000104263
0.000104925
0.000105607
0.000106306
0.000107022
0.000107756
0.000108508
0.000109279
0.000110072
0.000110888
0.000112877
0.000100377
0.000100264
0.000100182
0.000100175
0.000100265
0.000100361
0.000100506
0.000100718
0.000101
0.000101345
0.000101728
0.000102168
0.000102602
0.000103085
0.000103546
0.000104049
0.00010458
0.000105133
0.000105712
0.000106318
0.000106948
0.000107596
0.000108259
0.000108938
0.000109633
0.000110343
0.00011107
0.000111816
0.000112583
0.000114468
0.000102149
0.000102267
0.000102416
0.000102631
0.000102929
0.000103334
0.000103748
0.000104207
0.000104709
0.000105197
0.00010562
0.000106107
0.000106616
0.000107137
0.000107686
0.000108261
0.000108859
0.000109474
0.000110099
0.000110741
0.000111397
0.000112065
0.000112748
0.000113447
0.000114163
0.000115946
0.000105094
0.000105527
0.000106009
0.000106581
0.000107116
0.000107573
0.000108049
0.000108538
0.000109025
0.000109543
0.000110088
0.000110655
0.000111237
0.000111824
0.000112428
0.000113046
0.000113671
0.000114309
0.000114962
0.000115628
0.000117309
0.000108228
0.000108821
0.000109383
0.000109872
0.000110342
0.000110791
0.000111279
0.000111795
0.000112332
0.000112881
0.000113428
0.000113996
0.000114576
0.000115157
0.000115751
0.000116359
0.000116974
0.000118554
0.000111069
0.000111577
0.000112027
0.000112428
0.000112889
0.000113376
0.000113884
0.000114403
0.000114906
0.000115441
0.000115985
0.00011652
0.000117071
0.000117633
0.000118198
0.000119679
0.000112573
0.000113065
0.000113496
0.000113935
0.000114368
0.000114827
0.000115307
0.000115798
0.000116252
0.000116758
0.00011727
0.000117755
0.000118265
0.000118784
0.000119296
0.000120679
0.000113887
0.000114319
0.000114724
0.000115193
0.000115617
0.000116048
0.000116498
0.000116969
0.000117466
0.000117943
0.000118426
0.000118856
0.000119329
0.000119805
0.000120265
0.000121552
0.000116222
0.000116624
0.000117023
0.000117443
0.000117896
0.000118427
0.000118893
0.000119353
0.000119825
0.000120257
0.000120694
0.0001211
0.000122292
0.000119157
0.000119598
0.000120034
0.000120535
0.000120943
0.000121339
0.000121685
0.000122788
0.000121015
0.000121378
0.000121739
0.000122016
0.000123048
1.165e-05
1.11364e-05
1.08224e-05
1.07711e-05
1.09985e-05
1.14921e-05
1.22208e-05
1.3145e-05
1.42244e-05
1.54237e-05
1.67135e-05
1.80704e-05
1.9476e-05
2.09156e-05
2.23773e-05
2.3851e-05
2.53279e-05
2.67999e-05
2.8259e-05
2.96968e-05
3.11041e-05
3.24696e-05
3.37784e-05
3.50081e-05
3.61199e-05
3.70316e-05
3.7579e-05
3.83553e-05
1.44058e-05
1.38961e-05
1.35923e-05
1.35465e-05
1.37721e-05
1.42593e-05
1.49835e-05
1.59116e-05
1.70081e-05
1.82398e-05
1.95776e-05
2.09973e-05
2.24791e-05
2.40066e-05
2.55662e-05
2.71466e-05
2.87375e-05
3.03294e-05
3.19129e-05
3.34775e-05
3.50109e-05
3.64963e-05
3.79092e-05
3.92097e-05
4.03308e-05
4.11638e-05
4.15806e-05
4.47149e-05
1.74101e-05
1.6937e-05
1.66627e-05
1.66244e-05
1.68332e-05
1.72828e-05
1.79551e-05
1.88241e-05
1.98608e-05
2.10359e-05
2.23223e-05
2.36958e-05
2.51354e-05
2.6623e-05
2.81425e-05
2.96798e-05
3.12216e-05
3.27552e-05
3.42673e-05
3.57431e-05
3.7165e-05
3.85103e-05
3.97488e-05
4.08409e-05
4.17411e-05
4.24241e-05
4.29772e-05
4.67628e-05
2.05879e-05
2.01504e-05
1.99003e-05
1.98674e-05
2.00608e-05
2.0476e-05
2.10992e-05
2.19099e-05
2.2884e-05
2.39961e-05
2.52215e-05
2.65371e-05
2.79216e-05
2.9356e-05
3.08228e-05
3.23059e-05
3.37899e-05
3.52594e-05
3.66988e-05
3.80908e-05
3.9416e-05
4.06521e-05
4.17749e-05
4.27635e-05
4.36148e-05
4.43748e-05
4.51914e-05
4.91818e-05
2.39046e-05
2.34981e-05
2.32683e-05
2.32393e-05
2.34186e-05
2.38029e-05
2.43811e-05
2.51367e-05
2.60494e-05
2.70972e-05
2.82579e-05
2.95098e-05
3.08324e-05
3.22063e-05
3.36133e-05
3.50363e-05
3.64584e-05
3.78634e-05
3.92343e-05
4.05541e-05
4.18049e-05
4.297e-05
4.40369e-05
4.50055e-05
4.59019e-05
4.67954e-05
4.78136e-05
5.18597e-05
2.73268e-05
2.69476e-05
2.67348e-05
2.67087e-05
2.68755e-05
2.72323e-05
2.777e-05
2.84748e-05
2.93295e-05
3.0315e-05
3.14113e-05
3.25985e-05
3.3857e-05
3.51679e-05
3.6513e-05
3.78747e-05
3.92361e-05
4.05804e-05
4.18916e-05
4.31543e-05
4.43546e-05
4.54827e-05
4.65372e-05
4.75318e-05
4.85042e-05
4.95211e-05
5.06805e-05
5.47258e-05
3.08274e-05
3.04718e-05
3.02734e-05
3.02495e-05
3.04052e-05
3.07379e-05
3.12396e-05
3.18984e-05
3.26995e-05
3.36262e-05
3.46609e-05
3.57854e-05
3.69813e-05
3.82305e-05
3.95151e-05
4.08179e-05
4.21225e-05
4.34129e-05
4.46745e-05
4.58946e-05
4.70638e-05
4.81786e-05
4.92448e-05
5.02827e-05
5.13309e-05
5.24462e-05
5.3704e-05
5.77197e-05
3.43814e-05
3.40458e-05
3.38595e-05
3.38375e-05
3.39837e-05
3.42954e-05
3.47654e-05
3.53831e-05
3.61353e-05
3.70079e-05
3.79852e-05
3.90508e-05
4.01876e-05
4.13785e-05
4.26064e-05
4.38548e-05
4.51081e-05
4.63518e-05
4.75731e-05
4.87623e-05
4.99138e-05
5.10283e-05
5.21159e-05
5.31983e-05
5.43106e-05
5.54999e-05
5.68256e-05
6.0792e-05
3.79655e-05
3.76465e-05
3.74703e-05
3.745e-05
3.75884e-05
3.78825e-05
3.83251e-05
3.89062e-05
3.96142e-05
4.04373e-05
4.1362e-05
4.23735e-05
4.3456e-05
4.45933e-05
4.57694e-05
4.69687e-05
4.81768e-05
4.93804e-05
5.05688e-05
5.17349e-05
5.28763e-05
5.39963e-05
5.51062e-05
5.62268e-05
5.73889e-05
5.86312e-05
6.0002e-05
6.39038e-05
4.15573e-05
4.12517e-05
4.10842e-05
4.10659e-05
4.11984e-05
4.14781e-05
4.18976e-05
4.24467e-05
4.31143e-05
4.38923e-05
4.47695e-05
4.57322e-05
4.67656e-05
4.78545e-05
4.8984e-05
5.01396e-05
5.13079e-05
5.2477e-05
5.36377e-05
5.47855e-05
5.59204e-05
5.70467e-05
5.81754e-05
5.93255e-05
6.05234e-05
6.18015e-05
6.31998e-05
6.70247e-05
4.51349e-05
4.48401e-05
4.46806e-05
4.46652e-05
4.47939e-05
4.50625e-05
4.54634e-05
4.5985e-05
4.66143e-05
4.73516e-05
4.81865e-05
4.91057e-05
5.00953e-05
5.11409e-05
5.22288e-05
5.33457e-05
5.44793e-05
5.56182e-05
5.67539e-05
5.78859e-05
5.90154e-05
6.01466e-05
6.12887e-05
6.24591e-05
6.36808e-05
6.49805e-05
6.63923e-05
7.01302e-05
4.86764e-05
4.83908e-05
4.824e-05
4.82287e-05
4.83555e-05
4.86164e-05
4.90041e-05
4.95041e-05
5.00925e-05
5.07942e-05
5.15925e-05
5.24737e-05
5.34242e-05
5.44311e-05
5.54819e-05
5.65648e-05
5.76681e-05
5.87802e-05
5.9891e-05
6.10084e-05
6.21331e-05
6.32669e-05
6.44162e-05
6.55984e-05
6.68336e-05
6.81433e-05
6.95572e-05
7.32001e-05
5.21023e-05
5.18388e-05
5.17006e-05
5.16956e-05
5.1822e-05
5.20777e-05
5.2458e-05
5.29487e-05
5.35341e-05
5.42006e-05
5.49687e-05
5.58167e-05
5.67323e-05
5.77042e-05
5.87216e-05
5.97744e-05
6.0852e-05
6.19407e-05
6.30217e-05
6.41275e-05
6.52482e-05
6.63824e-05
6.75313e-05
6.87185e-05
6.99594e-05
7.12693e-05
7.26761e-05
7.62177e-05
5.53485e-05
5.51083e-05
5.49928e-05
5.49966e-05
5.51231e-05
5.53734e-05
5.57505e-05
5.6244e-05
5.68433e-05
5.75107e-05
5.82542e-05
5.90729e-05
5.99568e-05
6.08964e-05
6.18831e-05
6.29088e-05
6.39657e-05
6.504e-05
6.61279e-05
6.72196e-05
6.83387e-05
6.94718e-05
7.06091e-05
7.17984e-05
7.30394e-05
7.43397e-05
7.57327e-05
7.91681e-05
5.99921e-05
6.06597e-05
6.13843e-05
6.2177e-05
6.30313e-05
6.39405e-05
6.48979e-05
6.58978e-05
6.69386e-05
6.80117e-05
6.91149e-05
7.02194e-05
7.13384e-05
7.24747e-05
7.3636e-05
7.482e-05
7.60588e-05
7.73366e-05
7.87128e-05
8.20384e-05
7.19553e-05
7.30642e-05
7.4182e-05
7.5329e-05
7.65161e-05
7.77201e-05
7.89594e-05
8.02536e-05
8.16039e-05
8.48167e-05
7.92281e-05
8.04406e-05
8.16833e-05
8.29921e-05
8.43411e-05
8.7435e-05
8.55397e-05
8.68708e-05
8.98371e-05
0.000129963
0.000160904
0.000245001
0.000102866
0.000104863
0.000106838
0.000108742
0.000110533
0.000112213
0.000113783
0.000115242
0.000116588
0.000117821
0.000118939
0.000119938
0.000120815
0.000121563
0.000122174
0.000122631
0.000122916
0.000127339
0.000149802
0.000215543
9.56906e-05
9.79469e-05
0.000100173
0.000102334
0.000104421
0.000106434
0.000108351
0.000110164
0.000111869
0.000113464
0.000114948
0.000116318
0.000117572
0.000118709
0.000119724
0.000120615
0.000121376
0.000122003
0.000122488
0.000122824
0.00012557
0.000141655
0.000193649
9.50943e-05
9.7367e-05
9.96482e-05
0.000101878
0.000104015
0.000106055
0.000107995
0.000109831
0.000111559
0.000113177
0.000114684
0.000116078
0.000117357
0.000118519
0.000119562
0.000120485
0.000121283
0.000121952
0.00012249
0.000122888
0.00012433
0.00013558
0.000177239
9.45804e-05
9.68871e-05
9.92079e-05
0.000101478
0.000103648
0.000105716
0.00010768
0.000109537
0.000111287
0.000112926
0.000114455
0.000115871
0.000117174
0.000118362
0.000119434
0.00012039
0.000121227
0.000121946
0.000122546
0.000123027
0.000123558
0.000131252
0.000165104
9.41465e-05
9.6503e-05
9.88576e-05
0.000101153
0.000103344
0.000105432
0.000107414
0.000109288
0.000111055
0.000112712
0.000114257
0.000115691
0.000117012
0.000118218
0.000119308
0.000120281
0.000121133
0.000121863
0.000122467
0.000122938
0.000123269
0.000129082
0.000156783
2.92494e-05
3.25797e-05
3.60325e-05
3.95496e-05
4.3096e-05
4.66541e-05
5.02085e-05
5.37455e-05
5.72529e-05
6.072e-05
6.41374e-05
6.74964e-05
7.07892e-05
7.40085e-05
7.71469e-05
8.01971e-05
8.31511e-05
8.5999e-05
8.87264e-05
9.13234e-05
9.38163e-05
9.62513e-05
9.86274e-05
0.000100917
0.000103112
0.000105207
0.000107199
0.000109085
0.000110864
0.000112533
0.000114092
0.000115539
0.000116872
0.000118091
0.000119194
0.000120177
0.000121039
0.000121775
0.000122381
0.000122851
0.000123173
0.000127766
0.00015082
2.83811e-05
3.17799e-05
3.5297e-05
3.88656e-05
4.24541e-05
4.6048e-05
4.96331e-05
5.31967e-05
5.67273e-05
6.02145e-05
6.36491e-05
6.70228e-05
7.0328e-05
7.35575e-05
7.67047e-05
7.9763e-05
8.27264e-05
8.55893e-05
8.83476e-05
9.10013e-05
9.35611e-05
9.60363e-05
9.84253e-05
0.000100723
0.000102925
0.000105028
0.000107028
0.000108923
0.00011071
0.000112389
0.000113958
0.000115416
0.00011676
0.00011799
0.000119103
0.000120098
0.00012097
0.000121717
0.000122333
0.000122814
0.000123151
0.000126825
0.000146398
2.76601e-05
3.11163e-05
3.46837e-05
3.82935e-05
4.1917e-05
4.55411e-05
4.91525e-05
5.2739e-05
5.62894e-05
5.97939e-05
6.32437e-05
6.66306e-05
6.99476e-05
7.31881e-05
7.63462e-05
7.94167e-05
8.23951e-05
8.5278e-05
8.80638e-05
9.07525e-05
9.33463e-05
9.58467e-05
9.82532e-05
0.000100564
0.000102776
0.000104887
0.000106894
0.000108797
0.000110592
0.000112279
0.000113857
0.000115323
0.000116676
0.000117915
0.000119039
0.000120043
0.000120927
0.000121686
0.000122315
0.00012281
0.000123162
0.000126146
0.000143146
1.16318e-05
1.43763e-05
1.73766e-05
2.05269e-05
2.37708e-05
2.71269e-05
3.06314e-05
3.42287e-05
3.78609e-05
4.1508e-05
4.5154e-05
4.87851e-05
5.23889e-05
5.59547e-05
5.94727e-05
6.29345e-05
6.63324e-05
6.96596e-05
7.29103e-05
7.6079e-05
7.91615e-05
8.2154e-05
8.50538e-05
8.78592e-05
9.05691e-05
9.31833e-05
9.57012e-05
9.81217e-05
0.000100443
0.000102664
0.000104783
0.000106797
0.000108706
0.000110508
0.000112202
0.000113785
0.000115258
0.000116619
0.000117866
0.000118998
0.000120011
0.000120904
0.000121673
0.000122314
0.00012282
0.000123186
0.000125675
0.000140855
1.1139e-05
1.38798e-05
1.69035e-05
2.00844e-05
2.33781e-05
2.67922e-05
3.03264e-05
3.39325e-05
3.75774e-05
4.12384e-05
4.48978e-05
4.85411e-05
5.21561e-05
5.57318e-05
5.92587e-05
6.27287e-05
6.61343e-05
6.94691e-05
7.27275e-05
7.59046e-05
7.89964e-05
8.19995e-05
8.49111e-05
8.77293e-05
9.04524e-05
9.3079e-05
9.5608e-05
9.80379e-05
0.000100367
0.000102595
0.000104719
0.000106738
0.000108652
0.000110458
0.000112156
0.000113744
0.000115221
0.000116587
0.000117839
0.000118976
0.000119996
0.000120896
0.000121672
0.00012232
0.000122835
0.000123209
0.000125379
0.000139396
1.0852e-05
1.35953e-05
1.66431e-05
1.98521e-05
2.31885e-05
2.66381e-05
3.01846e-05
3.37967e-05
3.74467e-05
4.11129e-05
4.47774e-05
4.84257e-05
5.20453e-05
5.56252e-05
5.91561e-05
6.26298e-05
6.60392e-05
6.93779e-05
7.26406e-05
7.58226e-05
7.89199e-05
8.19291e-05
8.48476e-05
8.76729e-05
9.0403e-05
9.30363e-05
9.55711e-05
9.80061e-05
0.00010034
0.00010257
0.000104697
0.000106719
0.000108634
0.000110442
0.000112141
0.000113731
0.000115211
0.000116578
0.000117832
0.000118972
0.000119994
0.000120897
0.000121676
0.000122327
0.000122846
0.000123225
0.000125239
0.00013869
1.08291e-05
1.35749e-05
1.66294e-05
1.98496e-05
2.32024e-05
2.66646e-05
3.02137e-05
3.38237e-05
3.74704e-05
4.11334e-05
4.47951e-05
4.84411e-05
5.20585e-05
5.56368e-05
5.91663e-05
6.2639e-05
6.60477e-05
6.93862e-05
7.26492e-05
7.58319e-05
7.89305e-05
8.19414e-05
8.48619e-05
8.76893e-05
9.04215e-05
9.30566e-05
9.55929e-05
9.80287e-05
0.000100363
0.000102593
0.00010472
0.00010674
0.000108655
0.000110461
0.000112159
0.000113748
0.000115226
0.000116592
0.000117845
0.000118983
0.000120003
0.000120905
0.000121683
0.000122333
0.000122851
0.000123228
0.000125244
0.000138702
1.10854e-05
1.38294e-05
1.68685e-05
2.00782e-05
2.34242e-05
2.68785e-05
3.04167e-05
3.40141e-05
3.76482e-05
4.12993e-05
4.49503e-05
4.85866e-05
5.21956e-05
5.57662e-05
5.9289e-05
6.27557e-05
6.61591e-05
6.94929e-05
7.27518e-05
7.59311e-05
7.90266e-05
8.20349e-05
8.4953e-05
8.77781e-05
9.0508e-05
9.31406e-05
9.56742e-05
9.8107e-05
0.000100438
0.000102665
0.000104787
0.000106804
0.000108714
0.000110516
0.00011221
0.000113794
0.000115267
0.000116628
0.000117876
0.000119009
0.000120024
0.00012092
0.000121692
0.000122337
0.000122848
0.000123219
0.000125394
0.000139432
1.16061e-05
1.4346e-05
1.73499e-05
2.0529e-05
2.38482e-05
2.72775e-05
3.0791e-05
3.43647e-05
3.79767e-05
4.16074e-05
4.52401e-05
4.88599e-05
5.24539e-05
5.60112e-05
5.95219e-05
6.29777e-05
6.63712e-05
6.9696e-05
7.29466e-05
7.61182e-05
7.92066e-05
8.22081e-05
8.51196e-05
8.79383e-05
9.06619e-05
9.32882e-05
9.58153e-05
9.82416e-05
0.000100566
0.000102786
0.000104901
0.000106911
0.000108814
0.000110608
0.000112294
0.00011387
0.000115335
0.000116688
0.000117928
0.000119052
0.000120059
0.000120945
0.000121707
0.000122342
0.000122843
0.000123202
0.0001257
0.000140917
1.23585e-05
1.50975e-05
1.80522e-05
2.11854e-05
2.44623e-05