/*--------------------------------*- C++ -*----------------------------------*\
  =========                 |
  \\      /  F ield         | OpenFOAM: The Open Source CFD Toolbox
   \\    /   O peration     | Website:  https://openfoam.org
    \\  /    A nd           | Version:  7
     \\/     M anipulation  |
\*---------------------------------------------------------------------------*/
FoamFile
{
    version     2.0;
    format      ascii;
    class       volScalarField;
    location    "244000";
    object      strainRate;
}
// * * * * * * * * * * * * * * * * * * * * * * * * * * * * * * * * * * * * * //

dimensions      [0 0 -1 0 0 0 0];

internalField   nonuniform List<scalar> 
4838
(
0.00197544
0.00186931
0.00179383
0.00169698
0.00159029
0.0014792
0.00136631
0.00125305
0.00114045
0.00102951
0.000921445
0.00081781
0.000720416
0.000631099
0.00055137
0.000482147
0.000423607
0.00037523
0.000336266
0.000305626
0.00028206
0.000264375
0.00025186
0.000243915
0.000240064
0.000240064
0.000243915
0.000251861
0.000264376
0.00028206
0.000305626
0.000336267
0.00037523
0.000423607
0.000482148
0.000551371
0.0006311
0.000720417
0.000817811
0.000921446
0.00102951
0.00114045
0.00125305
0.00136631
0.0014792
0.00159029
0.00169698
0.00179383
0.00186931
0.00197545
0.00257527
0.00224998
0.00215483
0.00204991
0.00193594
0.00181678
0.00169568
0.00157484
0.0014557
0.00133926
0.00122634
0.00111775
0.00101442
0.000917389
0.000827771
0.000746562
0.000674498
0.000611948
0.000558914
0.000515089
0.000479902
0.000452662
0.000432801
0.000419862
0.00041349
0.00041349
0.000419862
0.000432801
0.000452662
0.000479902
0.00051509
0.000558915
0.000611948
0.000674498
0.000746563
0.000827772
0.000917389
0.00101442
0.00111775
0.00122634
0.00133926
0.0014557
0.00157484
0.00169568
0.00181678
0.00193594
0.00204991
0.00215483
0.00224998
0.00257527
0.00295944
0.00255892
0.00243177
0.00231639
0.0022029
0.00208828
0.00197261
0.00185697
0.00174255
0.00163034
0.00152117
0.00141571
0.00131461
0.00121854
0.00112825
0.00104452
0.000968101
0.000899663
0.000839682
0.000788444
0.000746039
0.0007124
0.000687374
0.000670803
0.000662555
0.000662555
0.000670803
0.000687374
0.0007124
0.00074604
0.000788444
0.000839683
0.000899664
0.000968102
0.00104452
0.00112825
0.00121854
0.00131461
0.00141571
0.00152117
0.00163035
0.00174255
0.00185698
0.00197261
0.00208828
0.0022029
0.00231639
0.00243178
0.00255892
0.00295944
0.00325941
0.00286375
0.00272026
0.00259098
0.00247063
0.00235482
0.00224135
0.00212957
0.00201968
0.00191222
0.00180779
0.00170696
0.00161026
0.00151821
0.00143132
0.00135016
0.00127531
0.00120737
0.00114688
0.00109432
0.00105009
0.00101447
0.000987639
0.000969702
0.00096072
0.00096072
0.000969702
0.000987639
0.00101447
0.00105009
0.00109432
0.00114688
0.00120737
0.00127531
0.00135016
0.00143132
0.00151821
0.00161026
0.00170696
0.00180779
0.00191223
0.00201969
0.00212957
0.00224135
0.00235483
0.00247063
0.00259099
0.00272026
0.00286375
0.00325942
0.00353603
0.0031551
0.00300999
0.00287398
0.00274702
0.00262716
0.00251239
0.00240144
0.00229378
0.00218937
0.00208848
0.00199146
0.00189872
0.00181069
0.00172778
0.00165041
0.00157904
0.00151412
0.00145612
0.00140549
0.00136263
0.00132792
0.00130163
0.00128399
0.00127513
0.00127513
0.00128399
0.00130163
0.00132792
0.00136263
0.00140549
0.00145612
0.00151412
0.00157904
0.00165041
0.00172778
0.00181069
0.00189872
0.00199146
0.00208848
0.00218937
0.00229378
0.00240144
0.00251239
0.00262716
0.00274702
0.00287398
0.00300999
0.00315511
0.00353603
0.00380318
0.00343535
0.00329312
0.00315635
0.00302648
0.0029035
0.00278659
0.00267485
0.00256761
0.00246458
0.00236572
0.0022712
0.00218128
0.00209628
0.00201654
0.0019424
0.00187423
0.0018124
0.00175726
0.00170919
0.00166852
0.00163558
0.00161062
0.00159386
0.00158545
0.00158545
0.00159386
0.00161062
0.00163558
0.00166852
0.00170919
0.00175726
0.0018124
0.00187423
0.0019424
0.00201654
0.00209628
0.00218128
0.0022712
0.00236572
0.00246458
0.00256761
0.00267485
0.00278659
0.0029035
0.00302648
0.00315635
0.00329312
0.00343535
0.00380318
0.00406422
0.00370797
0.00356889
0.00343381
0.0033039
0.00317982
0.00306161
0.00294895
0.00284146
0.00273884
0.00264098
0.00254791
0.00245977
0.0023768
0.00229926
0.00222743
0.00216163
0.00210213
0.00204925
0.00200328
0.00196448
0.00193311
0.00190938
0.00189346
0.00188547
0.00188547
0.00189346
0.00190938
0.00193311
0.00196448
0.00200328
0.00204925
0.00210213
0.00216163
0.00222744
0.00229926
0.0023768
0.00245977
0.00254791
0.00264098
0.00273884
0.00284146
0.00294896
0.00306161
0.00317982
0.0033039
0.00343381
0.0035689
0.00370797
0.00406423
0.00432062
0.00397506
0.00383862
0.00370571
0.00357707
0.00345338
0.003335
0.00322203
0.00311437
0.0030119
0.00291454
0.00282231
0.00273529
0.00265365
0.00257759
0.00250735
0.00244317
0.00238531
0.00233401
0.00228953
0.00225207
0.00222184
0.00219901
0.00218371
0.00217604
0.00217604
0.00218371
0.00219901
0.00222184
0.00225207
0.00228953
0.00233401
0.00238531
0.00244317
0.00250735
0.00257759
0.00265365
0.00273529
0.00282231
0.00291454
0.0030119
0.00311437
0.00322203
0.00333501
0.00345338
0.00357708
0.00370571
0.00383862
0.00397506
0.00432062
0.00457331
0.00423784
0.00410355
0.00397267
0.00384569
0.00372311
0.00360535
0.00349269
0.00338524
0.00328304
0.0031861
0.00309446
0.00300822
0.00292751
0.00285249
0.00278336
0.00272033
0.00266362
0.00261344
0.00256999
0.00253347
0.00250404
0.00248183
0.00246697
0.00245951
0.00245951
0.00246697
0.00248183
0.00250404
0.00253347
0.00256999
0.00261344
0.00266362
0.00272033
0.00278336
0.00285249
0.00292751
0.00300823
0.00309447
0.0031861
0.00328304
0.00338524
0.0034927
0.00360536
0.00372311
0.00384569
0.00397268
0.00410356
0.00423785
0.00457332
0.00482298
0.00449708
0.0043646
0.0042355
0.00411014
0.00398891
0.00387218
0.00376026
0.00365337
0.00355166
0.00345522
0.00336415
0.00327856
0.00319858
0.00312436
0.00305608
0.00299392
0.00293807
0.00288871
0.00284604
0.0028102
0.00278134
0.00275959
0.00274504
0.00273774
0.00273774
0.00274504
0.00275959
0.00278134
0.0028102
0.00284604
0.00288871
0.00293807
0.00299392
0.00305608
0.00312436
0.00319858
0.00327856
0.00336415
0.00345522
0.00355166
0.00365338
0.00376027
0.00387219
0.00398892
0.00411015
0.00423551
0.00436461
0.00449708
0.00482298
0.00507013
0.00475329
0.00462239
0.00449486
0.00437099
0.00425111
0.00413554
0.00402457
0.00391847
0.00381743
0.00372161
0.00363116
0.0035462
0.00346688
0.00339335
0.00332578
0.00326433
0.00320917
0.00316048
0.00311841
0.00308311
0.0030547
0.0030333
0.00301898
0.00301181
0.00301181
0.00301899
0.0030333
0.0030547
0.00308311
0.00311841
0.00316048
0.00320917
0.00326433
0.00332578
0.00339335
0.00346688
0.0035462
0.00363116
0.00372162
0.00381743
0.00391848
0.00402458
0.00413554
0.00425111
0.00437099
0.00449486
0.0046224
0.0047533
0.00507013
0.00531516
0.00500692
0.0048774
0.00475125
0.00462872
0.00451011
0.00439569
0.00428575
0.00418055
0.00408029
0.00398519
0.0038954
0.00381109
0.00373241
0.00365953
0.00359259
0.00353176
0.00347721
0.00342908
0.00338752
0.00335266
0.00332463
0.00330352
0.0032894
0.00328233
0.00328233
0.0032894
0.00330352
0.00332463
0.00335266
0.00338752
0.00342908
0.00347721
0.00353176
0.00359259
0.00365953
0.00373241
0.00381109
0.0038954
0.00398519
0.00408029
0.00418055
0.00428576
0.0043957
0.00451011
0.00462873
0.00475125
0.00487741
0.00500692
0.00531517
0.00555842
0.00525829
0.00513001
0.00500507
0.00488376
0.00476631
0.00465299
0.00454406
0.00443976
0.00434034
0.00424599
0.00415691
0.00407326
0.00399523
0.00392296
0.00385662
0.00379636
0.00374235
0.00369472
0.00365362
0.00361916
0.00359145
0.00357059
0.00355664
0.00354966
0.00354966
0.00355664
0.00357059
0.00359145
0.00361916
0.00365362
0.00369472
0.00374235
0.00379637
0.00385662
0.00392296
0.00399523
0.00407327
0.00415691
0.004246
0.00434034
0.00443977
0.00454406
0.00465299
0.00476631
0.00488376
0.00500508
0.00513001
0.0052583
0.00555842
0.00580018
0.00550773
0.00538053
0.00525668
0.00513644
0.00502005
0.00490774
0.00479977
0.00469637
0.00459777
0.00450419
0.00441581
0.00433284
0.00425543
0.00418376
0.00411799
0.00405828
0.00400476
0.0039576
0.0039169
0.0038828
0.00385538
0.00383475
0.00382095
0.00381405
0.00381405
0.00382095
0.00383475
0.00385538
0.0038828
0.0039169
0.0039576
0.00400477
0.00405828
0.00411799
0.00418376
0.00425543
0.00433284
0.00441582
0.00450419
0.00459777
0.00469637
0.00479977
0.00490774
0.00502005
0.00513645
0.00525669
0.00538054
0.00550773
0.00580019
0.00604071
0.00575548
0.00562925
0.00550637
0.00538709
0.00527164
0.00516026
0.00505317
0.00495062
0.00485281
0.00475997
0.00467229
0.00458997
0.00451317
0.00444209
0.00437686
0.00431765
0.00426461
0.00421787
0.00417756
0.00414378
0.00411663
0.0040962
0.00408255
0.00407571
0.00407571
0.00408255
0.0040962
0.00411663
0.00414378
0.00417756
0.00421787
0.00426461
0.00431766
0.00437686
0.00444209
0.00451318
0.00458997
0.00467229
0.00475997
0.00485281
0.00495062
0.00505318
0.00516026
0.00527165
0.0053871
0.00550638
0.00562926
0.00575549
0.00604072
0.00628023
0.00600181
0.00587643
0.0057544
0.00563598
0.00552138
0.00541082
0.00530455
0.00520277
0.0051057
0.00501356
0.00492655
0.00484485
0.00476865
0.00469811
0.0046334
0.00457468
0.00452208
0.00447573
0.00443577
0.00440229
0.00437539
0.00435515
0.00434163
0.00433485
0.00433485
0.00434163
0.00435515
0.0043754
0.00440229
0.00443577
0.00447573
0.00452208
0.00457468
0.00463341
0.00469811
0.00476865
0.00484485
0.00492655
0.00501357
0.00510571
0.00520277
0.00530455
0.00541083
0.00552138
0.00563598
0.00575441
0.00587643
0.00600182
0.00628024
0.00651896
0.00624694
0.0061223
0.00600102
0.00588335
0.0057695
0.00565969
0.00555414
0.00545307
0.00535668
0.0052652
0.0051788
0.00509769
0.00502204
0.00495203
0.00488781
0.00482953
0.00477734
0.00473137
0.00469173
0.00465854
0.00463187
0.0046118
0.00459839
0.00459167
0.00459167
0.00459839
0.0046118
0.00463187
0.00465854
0.00469174
0.00473137
0.00477734
0.00482953
0.00488781
0.00495203
0.00502205
0.00509769
0.00517881
0.0052652
0.00535669
0.00545307
0.00555415
0.0056597
0.0057695
0.00588335
0.00600103
0.0061223
0.00624695
0.00651896
0.00675709
0.0064911
0.00636708
0.00624646
0.00612944
0.00601625
0.0059071
0.0058022
0.00570176
0.00560599
0.0055151
0.00542928
0.00534871
0.00527357
0.00520404
0.00514027
0.00508242
0.00503061
0.00498498
0.00494565
0.0049127
0.00488624
0.00486634
0.00485303
0.00484637
0.00484637
0.00485303
0.00486634
0.00488625
0.00491271
0.00494565
0.00498498
0.00503061
0.00508242
0.00514028
0.00520405
0.00527358
0.00534871
0.00542928
0.00551511
0.005606
0.00570176
0.0058022
0.0059071
0.00601626
0.00612945
0.00624646
0.00636709
0.0064911
0.0067571
0.00699481
0.00673447
0.006611
0.00649092
0.00637447
0.00626185
0.00615327
0.00604894
0.00594907
0.00585385
0.0057635
0.00567819
0.00559811
0.00552345
0.00545436
0.00539101
0.00533353
0.00528208
0.00523677
0.00519771
0.005165
0.00513873
0.00511897
0.00510577
0.00509916
0.00509916
0.00510577
0.00511897
0.00513873
0.005165
0.00519771
0.00523677
0.00528208
0.00533354
0.00539101
0.00545436
0.00552345
0.00559812
0.00567819
0.0057635
0.00585386
0.00594907
0.00604895
0.00615328
0.00626186
0.00637448
0.00649093
0.00661101
0.00673448
0.00699482
0.00685424
0.00673463
0.00661865
0.00650652
0.00639843
0.00629459
0.00619521
0.00610048
0.0060106
0.00592575
0.00584612
0.00577188
0.00570319
0.00564021
0.00558309
0.00553195
0.00548692
0.00544812
0.00541563
0.00538953
0.0053699
0.00535679
0.00535022
0.00535022
0.00535679
0.0053699
0.00538953
0.00541563
0.00544812
0.00548693
0.00553195
0.00558309
0.00564021
0.00570319
0.00577188
0.00584612
0.00592575
0.0060106
0.00610049
0.00619522
0.0062946
0.00639844
0.00650652
0.00661866
0.00673464
0.00685425
0.00697728
0.00723231
0.00697776
0.00686218
0.00675045
0.00664277
0.00653936
0.00644039
0.00634608
0.00625661
0.00617217
0.00609293
0.00601906
0.00595073
0.00588809
0.00583128
0.00578043
0.00573566
0.00569708
0.00566478
0.00563884
0.00561933
0.0056063
0.00559977
0.00559977
0.0056063
0.00561934
0.00563885
0.00566478
0.00569708
0.00573566
0.00578043
0.00583128
0.00588809
0.00595073
0.00601906
0.00609293
0.00617217
0.00625662
0.00634609
0.0064404
0.00653936
0.00664278
0.00675045
0.00686219
0.00697777
0.00709701
0.00721968
0.00746974
0.00699383
0.0068865
0.00678343
0.00668482
0.00659086
0.00650174
0.00641764
0.00633874
0.0062652
0.00619718
0.00613484
0.0060783
0.00602771
0.00598317
0.00594479
0.00591266
0.00588686
0.00586746
0.0058545
0.00584801
0.00584801
0.0058545
0.00586746
0.00588687
0.00591266
0.00594479
0.00598317
0.00602771
0.00607831
0.00613484
0.00619719
0.00626521
0.00633874
0.00641765
0.00650175
0.00659086
0.00668482
0.00678343
0.00688651
0.00699384
0.00710525
0.00722052
0.00733947
0.00746186
0.00770727
0.00712979
0.007027
0.00692867
0.006835
0.00674618
0.00666237
0.00658375
0.00651049
0.00644274
0.00638065
0.00632436
0.00627398
0.00622964
0.00619144
0.00615946
0.00613379
0.00611448
0.00610158
0.00609512
0.00609512
0.00610158
0.00611448
0.00613379
0.00615946
0.00619144
0.00622964
0.00627398
0.00632436
0.00638066
0.00644275
0.0065105
0.00658376
0.00666237
0.00674618
0.00683501
0.00692868
0.007027
0.0071298
0.00723687
0.00734803
0.00746307
0.0075818
0.00770401
0.00794505
0.00727025
0.00717214
0.0070787
0.00699011
0.00690653
0.00682815
0.00675512
0.0066876
0.00662572
0.00656963
0.00651944
0.00647527
0.00643722
0.00640537
0.00637981
0.00636058
0.00634773
0.0063413
0.0063413
0.00634773
0.00636058
0.00637981
0.00640538
0.00643722
0.00647528
0.00651945
0.00656964
0.00662573
0.00668761
0.00675513
0.00682816
0.00690654
0.00699011
0.00707871
0.00717215
0.00727026
0.00737284
0.00747972
0.0075907
0.00770559
0.00782418
0.00794627
0.00818325
0.00732213
0.00723371
0.00715032
0.00707213
0.00699928
0.00693194
0.00687024
0.00681431
0.00676428
0.00672025
0.00668233
0.00665059
0.00662511
0.00660595
0.00659315
0.00658674
0.00658674
0.00659315
0.00660595
0.00662511
0.00665059
0.00668233
0.00672025
0.00676428
0.00681432
0.00687024
0.00693194
0.00699929
0.00707213
0.00715033
0.00723372
0.00732214
0.00741541
0.00751336
0.00761581
0.00772257
0.00783344
0.00794824
0.00806678
0.00818883
0.008422
0.00747718
0.00739391
0.00731585
0.00724314
0.00717594
0.00711437
0.00705858
0.00700867
0.00696475
0.00692693
0.00689528
0.00686988
0.00685077
0.00683801
0.00683162
0.00683162
0.00683801
0.00685077
0.00686988
0.00689529
0.00692694
0.00696476
0.00700867
0.00705858
0.00711438
0.00717594
0.00724315
0.00731586
0.00739392
0.00747718
0.00756548
0.00765865
0.0077565
0.00785887
0.00796557
0.00807641
0.00819119
0.00830974
0.00843183
0.00866145
0.00741977
0.00735831
0.00730261
0.00725279
0.00720896
0.00717122
0.00713964
0.00711429
0.00709523
0.0070825
0.00707613
0.00707613
0.0070825
0.00709523
0.00711429
0.00713964
0.00717122
0.00720897
0.0072528
0.00730261
0.00735831
0.00741978
0.00748689
0.0075595
0.00763748
0.00772067
0.0078089
0.00790201
0.00799984
0.00810219
0.0082089
0.00831976
0.0084346
0.00855323
0.00867542
0.00890175
0.00745305
0.00741536
0.00738383
0.00735852
0.00733949
0.00732678
0.00732042
0.00732042
0.00732678
0.00733949
0.00735852
0.00738383
0.00741536
0.00745305
0.00749682
0.00754658
0.00760222
0.00766362
0.00773068
0.00780324
0.00788118
0.00796434
0.00805256
0.00814568
0.00824353
0.00834593
0.0084527
0.00856367
0.00867863
0.0087974
0.00891977
0.00914303
0.00762802
0.00760274
0.00758373
0.00757104
0.00756468
0.00756469
0.00757104
0.00758374
0.00760274
0.00762803
0.00765953
0.00769719
0.00774092
0.00779065
0.00784626
0.00790764
0.00797468
0.00804724
0.00812518
0.00820837
0.00829663
0.00838981
0.00848774
0.00859024
0.00869715
0.00880827
0.00892342
0.0090424
0.00916502
0.00938543
0.00780908
0.00780908
0.00781543
0.00782812
0.00784712
0.00787239
0.00790389
0.00794154
0.00798526
0.00803498
0.0080906
0.00815199
0.00821906
0.00829165
0.00836965
0.0084529
0.00854125
0.00863455
0.00873261
0.00883528
0.00894238
0.00905372
0.00916912
0.00928838
0.00941131
0.00962909
0.0081171
0.0081486
0.00818626
0.00823
0.00827975
0.0083354
0.00839684
0.00846397
0.00853664
0.00861474
0.00869811
0.0087866
0.00888006
0.00897831
0.0090812
0.00918855
0.00930017
0.00941588
0.00953548
0.00965878
0.00987413
0.0084753
0.0085251
0.00858082
0.00864235
0.00870957
0.00878236
0.0088606
0.00894413
0.00903281
0.00912648
0.00922499
0.00932815
0.0094358
0.00954776
0.00966384
0.00978385
0.00990759
0.0101207
0.00882701
0.00888866
0.00895601
0.00902897
0.00910738
0.00919112
0.00928004
0.00937398
0.00947278
0.00957627
0.00968428
0.00979664
0.00991315
0.0100336
0.0101579
0.0103689
0.00907413
0.00913592
0.00920345
0.0092766
0.00935524
0.00943923
0.00952843
0.00962269
0.00972183
0.00982571
0.00993414
0.0100469
0.0101639
0.010285
0.0104098
0.0106189
0.00932232
0.0093843
0.00945203
0.00952542
0.00960432
0.00968861
0.00977814
0.00987275
0.0099723
0.0100766
0.0101855
0.0102988
0.0104164
0.010538
0.0106634
0.0108709
0.00977556
0.00985477
0.00993939
0.0100293
0.0101243
0.0102243
0.0103291
0.0104385
0.0105524
0.0106706
0.0107928
0.0109189
0.0111248
0.010478
0.0105834
0.0106934
0.0108079
0.0109267
0.0110496
0.0111765
0.011381
0.0110653
0.0111848
0.0113085
0.0114362
0.0116395
0.000251861
0.000243916
0.000240065
0.000240065
0.000243915
0.000251861
0.000264376
0.00028206
0.000305627
0.000336267
0.00037523
0.000423607
0.000482148
0.000551371
0.000631099
0.000720416
0.00081781
0.000921445
0.00102951
0.00114045
0.00125305
0.00136631
0.0014792
0.00159029
0.00169698
0.00179383
0.00186931
0.00197544
0.000432803
0.000419863
0.00041349
0.00041349
0.000419863
0.000432802
0.000452663
0.000479903
0.00051509
0.000558915
0.000611948
0.000674498
0.000746562
0.000827771
0.000917389
0.00101442
0.00111775
0.00122634
0.00133926
0.0014557
0.00157484
0.00169568
0.00181678
0.00193594
0.00204991
0.00215483
0.00224998
0.00257527
0.000687375
0.000670804
0.000662556
0.000662556
0.000670804
0.000687375
0.000712401
0.00074604
0.000788444
0.000839682
0.000899663
0.000968102
0.00104452
0.00112825
0.00121854
0.00131461
0.00141571
0.00152117
0.00163034
0.00174255
0.00185697
0.00197261
0.00208828
0.0022029
0.00231638
0.00243177
0.00255892
0.00295944
0.000987641
0.000969703
0.000960721
0.000960721
0.000969703
0.00098764
0.00101447
0.00105009
0.00109432
0.00114688
0.00120737
0.00127531
0.00135016
0.00143132
0.0015182
0.00161026
0.00170696
0.00180779
0.00191222
0.00201968
0.00212957
0.00224135
0.00235482
0.00247063
0.00259098
0.00272026
0.00286375
0.00325941
0.00130163
0.00128399
0.00127513
0.00127513
0.00128399
0.00130163
0.00132792
0.00136263
0.00140549
0.00145612
0.00151412
0.00157904
0.00165041
0.00172778
0.00181069
0.00189872
0.00199146
0.00208848
0.00218937
0.00229378
0.00240144
0.00251238
0.00262716
0.00274702
0.00287397
0.00300999
0.0031551
0.00353603
0.00161062
0.00159386
0.00158545
0.00158545
0.00159386
0.00161062
0.00163558
0.00166852
0.00170919
0.00175726
0.0018124
0.00187423
0.0019424
0.00201654
0.00209628
0.00218128
0.0022712
0.00236572
0.00246458
0.00256761
0.00267485
0.00278659
0.0029035
0.00302648
0.00315635
0.00329312
0.00343535
0.00380318
0.00190938
0.00189346
0.00188547
0.00188547
0.00189346
0.00190938
0.00193311
0.00196448
0.00200327
0.00204925
0.00210213
0.00216162
0.00222743
0.00229926
0.0023768
0.00245977
0.0025479
0.00264098
0.00273884
0.00284146
0.00294895
0.00306161
0.00317982
0.0033039
0.00343381
0.00356889
0.00370796
0.00406422
0.00219901
0.00218371
0.00217604
0.00217604
0.00218371
0.00219901
0.00222184
0.00225207
0.00228953
0.00233401
0.0023853
0.00244316
0.00250734
0.00257759
0.00265365
0.00273529
0.00282231
0.00291454
0.00301189
0.00311436
0.00322203
0.003335
0.00345338
0.00357707
0.00370571
0.00383862
0.00397506
0.00432062
0.00248183
0.00246697
0.00245951
0.00245951
0.00246697
0.00248183
0.00250404
0.00253347
0.00256999
0.00261344
0.00266361
0.00272032
0.00278335
0.00285248
0.00292751
0.00300822
0.00309446
0.0031861
0.00328304
0.00338524
0.00349269
0.00360535
0.00372311
0.00384569
0.00397267
0.00410355
0.00423784
0.00457331
0.00275959
0.00274503
0.00273774
0.00273774
0.00274503
0.00275959
0.00278134
0.0028102
0.00284603
0.00288871
0.00293806
0.00299391
0.00305607
0.00312436
0.00319858
0.00327856
0.00336415
0.00345522
0.00355166
0.00365337
0.00376026
0.00387218
0.00398891
0.00411014
0.0042355
0.0043646
0.00449708
0.00482298
0.0030333
0.00301898
0.00301181
0.00301181
0.00301898
0.0030333
0.0030547
0.0030831
0.00311841
0.00316048
0.00320917
0.00326432
0.00332577
0.00339335
0.00346688
0.0035462
0.00363115
0.00372161
0.00381743
0.00391847
0.00402457
0.00413553
0.00425111
0.00437099
0.00449486
0.00462239
0.00475329
0.00507013
0.00330352
0.0032894
0.00328233
0.00328233
0.0032894
0.00330352
0.00332463
0.00335266
0.00338751
0.00342907
0.0034772
0.00353176
0.00359259
0.00365952
0.00373241
0.00381109
0.00389539
0.00398518
0.00408029
0.00418054
0.00428575
0.00439569
0.00451011
0.00462872
0.00475124
0.0048774
0.00500692
0.00531516
0.00357059
0.00355664
0.00354965
0.00354965
0.00355664
0.00357058
0.00359145
0.00361915
0.00365361
0.00369472
0.00374235
0.00379636
0.00385661
0.00392295
0.00399522
0.00407326
0.0041569
0.00424599
0.00434034
0.00443976
0.00454405
0.00465298
0.0047663
0.00488375
0.00500507
0.00513001
0.00525829
0.00555842
0.00383474
0.00382095
0.00381404
0.00381404
0.00382095
0.00383474
0.00385538
0.00388279
0.00391689
0.00395759
0.00400476
0.00405827
0.00411799
0.00418376
0.00425542
0.00433283
0.00441581
0.00450418
0.00459777
0.00469636
0.00479976
0.00490774
0.00502004
0.00513644
0.00525668
0.00538053
0.00550773
0.00580018
0.00417755
0.00421787
0.00426461
0.00431765
0.00437686
0.00444208
0.00451317
0.00458996
0.00467228
0.00475996
0.00485281
0.00495061
0.00505317
0.00516026
0.00527164
0.00538709
0.00550637
0.00562925
0.00575548
0.00604071
0.0051057
0.00520276
0.00530454
0.00541082
0.00552137
0.00563597
0.0057544
0.00587642
0.00600181
0.00628023
0.0057695
0.00588335
0.00600102
0.0061223
0.00624694
0.00651896
0.00636708
0.0064911
0.00675709
0.0123035
0.0125771
0.0128538
0.00790765
0.008152
0.00839685
0.00864235
0.00888866
0.00913593
0.00938431
0.00963394
0.00988497
0.0101375
0.0103918
0.0106479
0.010906
0.0111662
0.0114287
0.0116936
0.0119611
0.0122313
0.0125043
0.0127804
0.00711438
0.00735832
0.00760222
0.00784626
0.0080906
0.00833541
0.00858083
0.00882702
0.00907414
0.00932234
0.00957175
0.00982254
0.0100748
0.0103288
0.0105846
0.0108423
0.0111021
0.0113642
0.0116286
0.0118956
0.0121653
0.0124378
0.0127133
0.00705859
0.00730262
0.00754658
0.00779065
0.00803499
0.00827976
0.00852511
0.00877121
0.0090182
0.00926624
0.00951547
0.00976604
0.0100181
0.0102718
0.0105273
0.0107847
0.0110442
0.0113058
0.0115699
0.0118364
0.0121057
0.0123777
0.0126527
0.00700868
0.0072528
0.00749683
0.00774093
0.00798527
0.00823001
0.00847531
0.00872133
0.00896821
0.00921612
0.00946519
0.00971558
0.00996743
0.0102209
0.0104761
0.0107332
0.0109924
0.0112537
0.0115174
0.0117836
0.0120524
0.012324
0.0125986
0.00696476
0.00720897
0.00745306
0.0076972
0.00794154
0.00818627
0.00843153
0.00867748
0.00892427
0.00917206
0.00942099
0.00967123
0.0099229
0.0101762
0.0104312
0.010688
0.0109469
0.011208
0.0114714
0.0117372
0.0120057
0.0122769
0.0125511
0.00170919
0.00200328
0.00228953
0.00257
0.00284604
0.00311841
0.00338752
0.00365362
0.00391691
0.00417756
0.00443577
0.00469174
0.00494565
0.00519771
0.00544812
0.00569709
0.00594479
0.00619145
0.00643723
0.00668233
0.00692694
0.00717123
0.00741537
0.00765954
0.0079039
0.00814861
0.00839383
0.00863973
0.00888645
0.00913414
0.00938297
0.00963307
0.00988459
0.0101377
0.0103925
0.0106491
0.0109078
0.0111687
0.0114318
0.0116974
0.0119655
0.0122364
0.0125102
0.00166852
0.00196448
0.00225207
0.00253348
0.0028102
0.00308311
0.00335267
0.00361916
0.0038828
0.00414378
0.0044023
0.00465854
0.00491271
0.00516501
0.00541563
0.00566479
0.00591267
0.00615947
0.00640538
0.0066506
0.00689529
0.00713965
0.00738384
0.00762804
0.00787241
0.00811711
0.00836231
0.00860816
0.00885482
0.00910244
0.00935117
0.00960116
0.00985256
0.0101055
0.0103602
0.0106167
0.0108751
0.0111358
0.0113987
0.011664
0.011932
0.0122026
0.0124761
0.00163558
0.00193311
0.00222184
0.00250404
0.00278135
0.00305471
0.00332464
0.00359145
0.00385539
0.00411664
0.0043754
0.00463187
0.00488625
0.00513874
0.00538954
0.00563885
0.00588687
0.0061338
0.00637982
0.00662512
0.00686989
0.0071143
0.00735853
0.00760276
0.00784713
0.00809184
0.00833702
0.00858284
0.00882945
0.00907701
0.00932567
0.00957557
0.00982687
0.0100797
0.0103342
0.0105906
0.0108489
0.0111094
0.0113722
0.0116373
0.011905
0.0121755
0.0124488
0.000251861
0.000432803
0.000687376
0.000987642
0.00130164
0.00161062
0.00190938
0.00219901
0.00248184
0.00275959
0.0030333
0.00330352
0.00357059
0.00383475
0.00409621
0.00435516
0.0046118
0.00486634
0.00511898
0.00536991
0.00561934
0.00586747
0.00611449
0.00636059
0.00660596
0.00685078
0.00709524
0.0073395
0.00758375
0.00782814
0.00807283
0.008318
0.0085638
0.00881038
0.0090579
0.0093065
0.00955634
0.00980757
0.0100603
0.0103148
0.010571
0.0108293
0.0110896
0.0113522
0.0116172
0.0118848
0.0121551
0.0124283
0.000243916
0.000419863
0.000670805
0.000969705
0.00128399
0.00159387
0.00189346
0.00218371
0.00246697
0.00274504
0.00301899
0.00328941
0.00355665
0.00382096
0.00408255
0.00434163
0.00459839
0.00485304
0.00510577
0.00535679
0.00560631
0.00585451
0.00610159
0.00634774
0.00659316
0.00683802
0.00708251
0.00732679
0.00757105
0.00781545
0.00806015
0.00830531
0.00855109
0.00879765
0.00904514
0.0092937
0.0095435
0.00979468
0.0100474
0.0103018
0.010558
0.0108161
0.0110764
0.0113389
0.0116038
0.0118713
0.0121415
0.0124146
0.000240065
0.000413491
0.000662557
0.000960723
0.00127514
0.00158545
0.00188547
0.00217604
0.00245952
0.00273775
0.00301182
0.00328233
0.00354966
0.00381405
0.00407571
0.00433486
0.00459168
0.00484638
0.00509916
0.00535023
0.00559978
0.00584802
0.00609513
0.00634131
0.00658675
0.00683163
0.00707614
0.00732043
0.0075647
0.0078091
0.0080538
0.00829895
0.00854473
0.00879128
0.00903875
0.0092873
0.00953708
0.00978823
0.0100409
0.0102953
0.0105514
0.0108095
0.0110698
0.0113323
0.0115971
0.0118646
0.0121347
0.0124077
0.000240065
0.000413491
0.000662557
0.000960723
0.00127514
0.00158545
0.00188547
0.00217604
0.00245952
0.00273775
0.00301182
0.00328233
0.00354966
0.00381405
0.00407571
0.00433486
0.00459168
0.00484638
0.00509916
0.00535023
0.00559978
0.00584802
0.00609513
0.00634131
0.00658675
0.00683163
0.00707614
0.00732043
0.0075647
0.0078091
0.0080538
0.00829895
0.00854473
0.00879128
0.00903875
0.0092873
0.00953708
0.00978823
0.0100409
0.0102953
0.0105514
0.0108095
0.0110698
0.0113323
0.0115971
0.0118646
0.0121347
0.0124077
0.000243916
0.000419863
0.000670804
0.000969704
0.00128399
0.00159387
0.00189346
0.00218371
0.00246697
0.00274504
0.00301899
0.00328941
0.00355665
0.00382096
0.00408255
0.00434163
0.00459839
0.00485304
0.00510577
0.00535679
0.00560631
0.00585451
0.00610159
0.00634774
0.00659316
0.00683802
0.00708251
0.0073268
0.00757105
0.00781545
0.00806015
0.00830531
0.00855109
0.00879765
0.00904514
0.0092937
0.0095435
0.00979468
0.0100474
0.0103018
0.010558
0.0108161
0.0110764
0.0113389
0.0116038
0.0118713
0.0121415
0.0124146
0.000251861
0.000432803
0.000687376
0.000987641
0.00130164
0.00161062
0.00190938
0.00219901
0.00248184
0.00275959
0.0030333
0.00330352
0.00357059
0.00383475
0.00409621
0.00435516
0.0046118
0.00486634
0.00511898
0.00536991
0.00561934
0.00586747
0.00611449
0.00636059
0.00660596
0.00685078
0.00709524
0.0073395
0.00758375
0.00782814
0.00807284
0.008318
0.0085638
0.00881038
0.0090579
0.0093065
0.00955634
0.00980757
0.0100603
0.0103148
0.010571
0.0108293
0.0110896
0.0113522
0.0116172
0.0118848
0.0121551
0.0124283
0.000264376
0.000452663
0.000712402
0.00101447
0.00132792
0.00163558
0.00193311
0.00222184
0.00250404
0.00278135
0.0030547
0.00332464
0.00359145
0.00385539
0.00411664
0.0043754
0.00463187
0.00488625
0.00513874
0.00538954
0.00563885
0.00588687
0.0061338
0.00637982
0.00662512
0.00686989
0.0071143
0.00735853
0.00760276
0.00784714
0.00809184
0.00833702
0.00858284
0.00882945
0.00907701
0.00932567
0.00957557
0.00982687
0.0100797
0.0103342
0.0105906
0.0108489
0.0111094
0.0113722
0.0116373
0.011905
0.0121755
0.0124488
0.00028206
0.000479903
0.000746041
0.00105009
0.00136264
0.00166852
0.00196448
0.00225207
0.00253347
0.0028102
0.00308311
0.00335267
0.00361916
0.0038828
0.00414378
0.0044023
0.00465854
0.00491271
0.00516501
0.00541563
0.00566479
0.00591267
0.00615947
0.00640538
0.0066506
0.00689529
0.00713965
0.00738384
0.00762804
0.00787241
0.00811711
0.00836231
0.00860816
0.00885482
0.00910244
0.00935117
0.00960116
0.00985256
0.0101055
0.0103602
0.0106167
0.0108751
0.0111358
0.0113987
0.011664
0.011932
0.0122026
0.0124761
0.000305627
0.000515091
0.000788446
0.00109432
0.00140549
0.00170919
0.00200328
0.00228953
0.00257
0.00284604
0.00311841
0.00338752
0.00365362
0.0039169
0.00417756
0.00443577
0.00469174
0.00494565
0.00519771
0.00544812
0.00569709
0.00594479
0.00619145
0.00643723
0.00668234
0.00692694
0.00717123
0.00741537
0.00765954
0.0079039
0.00814861
0.00839384
0.00863973
0.00888645
0.00913415
0.00938297
0.00963307
0.00988459
0.0101377
0.0103925
0.0106491
0.0109078
0.0111687
0.0114318
0.0116974
0.0119655
0.0122364
0.0125102
0.000336267
0.000558916
0.000839684
0.00114688
0.00145612
0.00175726
0.00204925
0.00233402
0.00261344
0.00288872
0.00316048
0.00342908
0.00369472
0.0039576
0.00421787
0.00447574
0.00473138
0.00498499
0.00523677
0.00548693
0.00573567
0.00598317
0.00622965
0.00647528
0.00672026
0.00696477
0.00720898
0.00745306
0.0076972
0.00794155
0.00818627
0.00843153
0.00867748
0.00892427
0.00917206
0.009421
0.00967123
0.0099229
0.0101762
0.0104312
0.010688
0.0109469
0.011208
0.0114714
0.0117372
0.0120057
0.0122769
0.0125511
0.000375231
0.000611949
0.000899665
0.00120737
0.00151412
0.0018124
0.00210213
0.00238531
0.00266362
0.00293807
0.00320917
0.00347721
0.00374235
0.00400477
0.00426462
0.00452208
0.00477735
0.00503061
0.00528208
0.00553196
0.00578043
0.00602771
0.00627399
0.00651945
0.00676429
0.00700868
0.0072528
0.00749683
0.00774093
0.00798527
0.00823002
0.00847532
0.00872133
0.00896821
0.00921612
0.00946519
0.00971558
0.00996743
0.0102209
0.0104761
0.0107332
0.0109924
0.0112537
0.0115174
0.0117836
0.0120524