/*--------------------------------*- C++ -*----------------------------------*\
  =========                 |
  \\      /  F ield         | OpenFOAM: The Open Source CFD Toolbox
   \\    /   O peration     | Website:  https://openfoam.org
    \\  /    A nd           | Version:  7
     \\/     M anipulation  |
\*---------------------------------------------------------------------------*/
FoamFile
{
    version     2.0;
    format      ascii;
    class       volScalarField;
    location    "232000";
    object      nut;
}
// * * * * * * * * * * * * * * * * * * * * * * * * * * * * * * * * * * * * * //

dimensions      [0 2 -1 0 0 0 0];

internalField   nonuniform List<scalar> 
4850
(
2.80244e-05
2.80995e-05
2.78773e-05
2.79545e-05
2.80283e-05
2.77259e-05
2.78051e-05
2.7881e-05
2.79535e-05
2.80227e-05
2.75703e-05
2.76516e-05
2.77294e-05
2.78039e-05
2.7875e-05
2.79427e-05
2.74108e-05
2.74939e-05
2.75736e-05
2.765e-05
2.77229e-05
2.77925e-05
2.78586e-05
2.72473e-05
2.73323e-05
2.74138e-05
2.7492e-05
2.75667e-05
2.7638e-05
2.77058e-05
2.77701e-05
2.78307e-05
2.70801e-05
2.71668e-05
2.72501e-05
2.733e-05
2.74064e-05
2.74794e-05
2.75488e-05
2.76147e-05
2.76769e-05
2.77355e-05
2.69092e-05
2.69976e-05
2.70825e-05
2.71641e-05
2.72422e-05
2.73168e-05
2.73878e-05
2.74552e-05
2.75189e-05
2.75789e-05
2.76352e-05
2.76877e-05
2.77365e-05
2.77815e-05
2.67347e-05
2.68248e-05
2.69113e-05
2.69945e-05
2.70742e-05
2.71503e-05
2.72228e-05
2.72916e-05
2.73568e-05
2.74182e-05
2.74758e-05
2.75295e-05
2.75795e-05
2.76256e-05
2.76679e-05
2.77063e-05
2.77409e-05
2.77716e-05
2.65568e-05
2.66484e-05
2.67365e-05
2.68212e-05
2.69024e-05
2.698e-05
2.7054e-05
2.71243e-05
2.71908e-05
2.72535e-05
2.73123e-05
2.73673e-05
2.74184e-05
2.74656e-05
2.75088e-05
2.75482e-05
2.75836e-05
2.7615e-05
2.76425e-05
2.76661e-05
2.63756e-05
2.64687e-05
2.65582e-05
2.66444e-05
2.67271e-05
2.68061e-05
2.68815e-05
2.69531e-05
2.70209e-05
2.70849e-05
2.71449e-05
2.72011e-05
2.72533e-05
2.73015e-05
2.73457e-05
2.73859e-05
2.74221e-05
2.74543e-05
2.74824e-05
2.75066e-05
2.75267e-05
2.75428e-05
2.75548e-05
2.75629e-05
2.61911e-05
2.62856e-05
2.63766e-05
2.64642e-05
2.65482e-05
2.66286e-05
2.67054e-05
2.67783e-05
2.68473e-05
2.69125e-05
2.69738e-05
2.7031e-05
2.70842e-05
2.71334e-05
2.71786e-05
2.72196e-05
2.72566e-05
2.72895e-05
2.73182e-05
2.73429e-05
2.73635e-05
2.73799e-05
2.73922e-05
2.74005e-05
2.74046e-05
2.74046e-05
2.74005e-05
2.73922e-05
2.73799e-05
2.60036e-05
2.60994e-05
2.61918e-05
2.62807e-05
2.63661e-05
2.64478e-05
2.65258e-05
2.65999e-05
2.66702e-05
2.67365e-05
2.67989e-05
2.68572e-05
2.69114e-05
2.69616e-05
2.70076e-05
2.70495e-05
2.70872e-05
2.71207e-05
2.71501e-05
2.71752e-05
2.71962e-05
2.7213e-05
2.72256e-05
2.7234e-05
2.72382e-05
2.72382e-05
2.7234e-05
2.72256e-05
2.7213e-05
2.71962e-05
2.71753e-05
2.71501e-05
2.5813e-05
2.59101e-05
2.60038e-05
2.6094e-05
2.61806e-05
2.62636e-05
2.63428e-05
2.64181e-05
2.64896e-05
2.6557e-05
2.66204e-05
2.66798e-05
2.6735e-05
2.6786e-05
2.68329e-05
2.68755e-05
2.69139e-05
2.69481e-05
2.6978e-05
2.70037e-05
2.70251e-05
2.70422e-05
2.70551e-05
2.70636e-05
2.70679e-05
2.70679e-05
2.70636e-05
2.70551e-05
2.70422e-05
2.70251e-05
2.70037e-05
2.69781e-05
2.69481e-05
2.6914e-05
2.56195e-05
2.57179e-05
2.58128e-05
2.59042e-05
2.5992e-05
2.60762e-05
2.61566e-05
2.62331e-05
2.63056e-05
2.63741e-05
2.64385e-05
2.64988e-05
2.6555e-05
2.66069e-05
2.66545e-05
2.66979e-05
2.6737e-05
2.67718e-05
2.68023e-05
2.68284e-05
2.68502e-05
2.68676e-05
2.68807e-05
2.68894e-05
2.68938e-05
2.68938e-05
2.68894e-05
2.68807e-05
2.68676e-05
2.68502e-05
2.68284e-05
2.68023e-05
2.67718e-05
2.6737e-05
2.54232e-05
2.55228e-05
2.56188e-05
2.57114e-05
2.58004e-05
2.58857e-05
2.59672e-05
2.60448e-05
2.61183e-05
2.61879e-05
2.62533e-05
2.63145e-05
2.63715e-05
2.64242e-05
2.64727e-05
2.65168e-05
2.65565e-05
2.65919e-05
2.66229e-05
2.66495e-05
2.66716e-05
2.66893e-05
2.67027e-05
2.67115e-05
2.6716e-05
2.6716e-05
2.67115e-05
2.67027e-05
2.66894e-05
2.66716e-05
2.66495e-05
2.66229e-05
2.65919e-05
2.65565e-05
2.52242e-05
2.53249e-05
2.54221e-05
2.55158e-05
2.56058e-05
2.56922e-05
2.57748e-05
2.58534e-05
2.5928e-05
2.59985e-05
2.60648e-05
2.61269e-05
2.61847e-05
2.62383e-05
2.62874e-05
2.63322e-05
2.63726e-05
2.64085e-05
2.644e-05
2.6467e-05
2.64895e-05
2.65075e-05
2.6521e-05
2.65301e-05
2.65346e-05
2.65346e-05
2.65301e-05
2.6521e-05
2.65075e-05
2.64895e-05
2.6467e-05
2.644e-05
2.64085e-05
2.63726e-05
2.50227e-05
2.51244e-05
2.52226e-05
2.53173e-05
2.54085e-05
2.54958e-05
2.55794e-05
2.5659e-05
2.57345e-05
2.58059e-05
2.58732e-05
2.59361e-05
2.59948e-05
2.6049e-05
2.60989e-05
2.61443e-05
2.61853e-05
2.62217e-05
2.62537e-05
2.62811e-05
2.63039e-05
2.63222e-05
2.6336e-05
2.63451e-05
2.63497e-05
2.63497e-05
2.63451e-05
2.6336e-05
2.63222e-05
2.63039e-05
2.62811e-05
2.62537e-05
2.62218e-05
2.61853e-05
2.48186e-05
2.49213e-05
2.50205e-05
2.51162e-05
2.52083e-05
2.52967e-05
2.53812e-05
2.54617e-05
2.55382e-05
2.56104e-05
2.56785e-05
2.57423e-05
2.58017e-05
2.58566e-05
2.59072e-05
2.59532e-05
2.59947e-05
2.60317e-05
2.60641e-05
2.60919e-05
2.61151e-05
2.61336e-05
2.61476e-05
2.61569e-05
2.61615e-05
2.61615e-05
2.61569e-05
2.61476e-05
2.61336e-05
2.61151e-05
2.60919e-05
2.60641e-05
2.60317e-05
2.59948e-05
2.46121e-05
2.47157e-05
2.48159e-05
2.49125e-05
2.50056e-05
2.50949e-05
2.51803e-05
2.52617e-05
2.5339e-05
2.54121e-05
2.54809e-05
2.55454e-05
2.56056e-05
2.56612e-05
2.57124e-05
2.5759e-05
2.58011e-05
2.58385e-05
2.58713e-05
2.58995e-05
2.5923e-05
2.59418e-05
2.59559e-05
2.59653e-05
2.597e-05
2.597e-05
2.59653e-05
2.59559e-05
2.59418e-05
2.5923e-05
2.58995e-05
2.58713e-05
2.58385e-05
2.58011e-05
2.44033e-05
2.45078e-05
2.46088e-05
2.47064e-05
2.48003e-05
2.48904e-05
2.49767e-05
2.50589e-05
2.5137e-05
2.52109e-05
2.52805e-05
2.53458e-05
2.54066e-05
2.54629e-05
2.55146e-05
2.55618e-05
2.56044e-05
2.56423e-05
2.56755e-05
2.5704e-05
2.57278e-05
2.57469e-05
2.57612e-05
2.57707e-05
2.57755e-05
2.57755e-05
2.57707e-05
2.57612e-05
2.57469e-05
2.57278e-05
2.5704e-05
2.56755e-05
2.56423e-05
2.56044e-05
2.41922e-05
2.42976e-05
2.43995e-05
2.44978e-05
2.45926e-05
2.46835e-05
2.47706e-05
2.48536e-05
2.49325e-05
2.50071e-05
2.50774e-05
2.51433e-05
2.52048e-05
2.52617e-05
2.5314e-05
2.53617e-05
2.54048e-05
2.54431e-05
2.54767e-05
2.55056e-05
2.55296e-05
2.55489e-05
2.55634e-05
2.5573e-05
2.55778e-05
2.55778e-05
2.5573e-05
2.55634e-05
2.55489e-05
2.55296e-05
2.55056e-05
2.54767e-05
2.54431e-05
2.54048e-05
2.39791e-05
2.40852e-05
2.41878e-05
2.4287e-05
2.43825e-05
2.44742e-05
2.4562e-05
2.46458e-05
2.47254e-05
2.48007e-05
2.48717e-05
2.49383e-05
2.50003e-05
2.50578e-05
2.51107e-05
2.51589e-05
2.52024e-05
2.52411e-05
2.52751e-05
2.53042e-05
2.53286e-05
2.5348e-05
2.53627e-05
2.53724e-05
2.53773e-05
2.53773e-05
2.53724e-05
2.53627e-05
2.53481e-05
2.53286e-05
2.53042e-05
2.52751e-05
2.52411e-05
2.52024e-05
2.51589e-05
2.37639e-05
2.38707e-05
2.39741e-05
2.4074e-05
2.41702e-05
2.42626e-05
2.43512e-05
2.44356e-05
2.45159e-05
2.45918e-05
2.46635e-05
2.47306e-05
2.47932e-05
2.48513e-05
2.49047e-05
2.49533e-05
2.49972e-05
2.50364e-05
2.50707e-05
2.51001e-05
2.51247e-05
2.51444e-05
2.51592e-05
2.5169e-05
2.5174e-05
2.5174e-05
2.5169e-05
2.51592e-05
2.51444e-05
2.51247e-05
2.51001e-05
2.50707e-05
2.50364e-05
2.49973e-05
2.49533e-05
2.35468e-05
2.36543e-05
2.37583e-05
2.38588e-05
2.39557e-05
2.40489e-05
2.4138e-05
2.42231e-05
2.4304e-05
2.43806e-05
2.44528e-05
2.45205e-05
2.45837e-05
2.46422e-05
2.46961e-05
2.47452e-05
2.47895e-05
2.4829e-05
2.48636e-05
2.48934e-05
2.49182e-05
2.4938e-05
2.4953e-05
2.49629e-05
2.49679e-05
2.49679e-05
2.49629e-05
2.4953e-05
2.4938e-05
2.49182e-05
2.48934e-05
2.48636e-05
2.4829e-05
2.47895e-05
2.47452e-05
2.33278e-05
2.34359e-05
2.35405e-05
2.36417e-05
2.37392e-05
2.38329e-05
2.39227e-05
2.40084e-05
2.40899e-05
2.41671e-05
2.42398e-05
2.43081e-05
2.43717e-05
2.44307e-05
2.4485e-05
2.45346e-05
2.45793e-05
2.46191e-05
2.4654e-05
2.4684e-05
2.4709e-05
2.47291e-05
2.47442e-05
2.47542e-05
2.47592e-05
2.47592e-05
2.47542e-05
2.47442e-05
2.47291e-05
2.47091e-05
2.4684e-05
2.4654e-05
2.46191e-05
2.45793e-05
2.3107e-05
2.32156e-05
2.33209e-05
2.34226e-05
2.35207e-05
2.3615e-05
2.37054e-05
2.37916e-05
2.38736e-05
2.39513e-05
2.40246e-05
2.40933e-05
2.41575e-05
2.42169e-05
2.42716e-05
2.43215e-05
2.43666e-05
2.44067e-05
2.4442e-05
2.44722e-05
2.44974e-05
2.45177e-05
2.45328e-05
2.4543e-05
2.4548e-05
2.4548e-05
2.4543e-05
2.45328e-05
2.45177e-05
2.44974e-05
2.44722e-05
2.4442e-05
2.44068e-05
2.43666e-05
2.28845e-05
2.29937e-05
2.30994e-05
2.32017e-05
2.33003e-05
2.33952e-05
2.3486e-05
2.35728e-05
2.36553e-05
2.37335e-05
2.38072e-05
2.38764e-05
2.3941e-05
2.40009e-05
2.4056e-05
2.41062e-05
2.41516e-05
2.41921e-05
2.42275e-05
2.4258e-05
2.42834e-05
2.43038e-05
2.43191e-05
2.43293e-05
2.43344e-05
2.43344e-05
2.43293e-05
2.43191e-05
2.43038e-05
2.42834e-05
2.4258e-05
2.42276e-05
2.41921e-05
2.41516e-05
2.26604e-05
2.27701e-05
2.28763e-05
2.2979e-05
2.30782e-05
2.31735e-05
2.32648e-05
2.3352e-05
2.3435e-05
2.35137e-05
2.35878e-05
2.36575e-05
2.37224e-05
2.37827e-05
2.38381e-05
2.38887e-05
2.39344e-05
2.39751e-05
2.40109e-05
2.40415e-05
2.40671e-05
2.40877e-05
2.41031e-05
2.41134e-05
2.41185e-05
2.41185e-05
2.41134e-05
2.41031e-05
2.40877e-05
2.40672e-05
2.40415e-05
2.40109e-05
2.39752e-05
2.39344e-05
2.24348e-05
2.25449e-05
2.26515e-05
2.27547e-05
2.28543e-05
2.295e-05
2.30418e-05
2.31294e-05
2.32129e-05
2.32919e-05
2.33665e-05
2.34365e-05
2.35018e-05
2.35624e-05
2.36182e-05
2.36691e-05
2.37151e-05
2.37561e-05
2.3792e-05
2.38229e-05
2.38487e-05
2.38693e-05
2.38848e-05
2.38952e-05
2.39003e-05
2.39003e-05
2.38952e-05
2.38848e-05
2.38693e-05
2.38487e-05
2.38229e-05
2.3792e-05
2.37561e-05
2.22078e-05
2.23182e-05
2.24252e-05
2.25288e-05
2.26287e-05
2.27249e-05
2.2817e-05
2.29051e-05
2.29889e-05
2.30683e-05
2.31433e-05
2.32136e-05
2.32793e-05
2.33402e-05
2.33963e-05
2.34475e-05
2.34937e-05
2.35349e-05
2.35711e-05
2.36021e-05
2.36281e-05
2.36488e-05
2.36644e-05
2.36748e-05
2.36801e-05
2.36801e-05
2.36748e-05
2.36644e-05
2.36488e-05
2.36281e-05
2.36021e-05
2.35711e-05
2.35349e-05
2.19794e-05
2.20901e-05
2.21974e-05
2.23013e-05
2.24016e-05
2.24981e-05
2.25906e-05
2.2679e-05
2.27632e-05
2.2843e-05
2.29182e-05
2.29889e-05
2.30549e-05
2.31161e-05
2.31725e-05
2.32239e-05
2.32704e-05
2.33118e-05
2.33481e-05
2.33794e-05
2.34054e-05
2.34263e-05
2.3442e-05
2.34525e-05
2.34577e-05
2.34577e-05
2.34525e-05
2.3442e-05
2.34263e-05
2.34055e-05
2.33794e-05
2.33482e-05
2.17496e-05
2.18606e-05
2.19683e-05
2.20725e-05
2.21731e-05
2.22699e-05
2.23627e-05
2.24514e-05
2.25359e-05
2.2616e-05
2.26915e-05
2.27625e-05
2.28288e-05
2.28902e-05
2.29468e-05
2.29985e-05
2.30452e-05
2.30868e-05
2.31233e-05
2.31547e-05
2.31809e-05
2.32019e-05
2.32177e-05
2.32282e-05
2.32334e-05
2.32334e-05
2.32282e-05
2.32177e-05
2.32019e-05
2.31809e-05
2.31547e-05
2.31233e-05
2.15187e-05
2.16299e-05
2.17378e-05
2.18423e-05
2.19431e-05
2.20402e-05
2.21333e-05
2.22223e-05
2.2307e-05
2.23874e-05
2.24632e-05
2.25344e-05
2.26009e-05
2.26626e-05
2.27195e-05
2.27714e-05
2.28182e-05
2.286e-05
2.28967e-05
2.29282e-05
2.29545e-05
2.29756e-05
2.29914e-05
2.3002e-05
2.30073e-05
2.30073e-05
2.3002e-05
2.29915e-05
2.29756e-05
2.29545e-05
2.29282e-05
2.28967e-05
2.12866e-05
2.1398e-05
2.15061e-05
2.16108e-05
2.17119e-05
2.18092e-05
2.19025e-05
2.19917e-05
2.20767e-05
2.21573e-05
2.22333e-05
2.23048e-05
2.23715e-05
2.24334e-05
2.24905e-05
2.25425e-05
2.25896e-05
2.26315e-05
2.26683e-05
2.27e-05
2.27264e-05
2.27476e-05
2.27635e-05
2.27741e-05
2.27794e-05
2.27794e-05
2.27741e-05
2.27635e-05
2.27476e-05
2.27264e-05
2.27e-05
2.26684e-05
2.10535e-05
2.11651e-05
2.12733e-05
2.13782e-05
2.14794e-05
2.15769e-05
2.16704e-05
2.17598e-05
2.1845e-05
2.19258e-05
2.2002e-05
2.20737e-05
2.21406e-05
2.22027e-05
2.22599e-05
2.23121e-05
2.23593e-05
2.24014e-05
2.24383e-05
2.24701e-05
2.24966e-05
2.25178e-05
2.25338e-05
2.25444e-05
2.25498e-05
2.25498e-05
2.25444e-05
2.25338e-05
2.25178e-05
2.24966e-05
2.24701e-05
2.24384e-05
2.08194e-05
2.0931e-05
2.10394e-05
2.11444e-05
2.12458e-05
2.13434e-05
2.14371e-05
2.15267e-05
2.1612e-05
2.16929e-05
2.17693e-05
2.18411e-05
2.19082e-05
2.19705e-05
2.20278e-05
2.20802e-05
2.21275e-05
2.21697e-05
2.22068e-05
2.22386e-05
2.22652e-05
2.22865e-05
2.23025e-05
2.23132e-05
2.23186e-05
2.23186e-05
2.23132e-05
2.23025e-05
2.22865e-05
2.22652e-05
2.22386e-05
2.22068e-05
2.05843e-05
2.0696e-05
2.08045e-05
2.09095e-05
2.1011e-05
2.11088e-05
2.12026e-05
2.12923e-05
2.13777e-05
2.14588e-05
2.15354e-05
2.16073e-05
2.16745e-05
2.17369e-05
2.17944e-05
2.18469e-05
2.18943e-05
2.19366e-05
2.19738e-05
2.20057e-05
2.20323e-05
2.20537e-05
2.20697e-05
2.20805e-05
2.20858e-05
2.20858e-05
2.20805e-05
2.20697e-05
2.20537e-05
2.20323e-05
2.20057e-05
2.19738e-05
2.03484e-05
2.04601e-05
2.05686e-05
2.06737e-05
2.07753e-05
2.08731e-05
2.0967e-05
2.10568e-05
2.11423e-05
2.12235e-05
2.13002e-05
2.13722e-05
2.14395e-05
2.1502e-05
2.15596e-05
2.16122e-05
2.16597e-05
2.17021e-05
2.17393e-05
2.17713e-05
2.1798e-05
2.18194e-05
2.18355e-05
2.18463e-05
2.18516e-05
2.18516e-05
2.18463e-05
2.18355e-05
2.18194e-05
2.1798e-05
2.17713e-05
2.17393e-05
2.01118e-05
2.02234e-05
2.03319e-05
2.0437e-05
2.05386e-05
2.06365e-05
2.07304e-05
2.08203e-05
2.09059e-05
2.09871e-05
2.10638e-05
2.1136e-05
2.12034e-05
2.12659e-05
2.13236e-05
2.13762e-05
2.14238e-05
2.14663e-05
2.15036e-05
2.15356e-05
2.15624e-05
2.15838e-05
2.16e-05
2.16107e-05
2.16161e-05
2.16161e-05
2.16107e-05
2.16e-05
2.15838e-05
2.15624e-05
2.15356e-05
2.15036e-05
1.98744e-05
1.9986e-05
2.00944e-05
2.01995e-05
2.03011e-05
2.03989e-05
2.04929e-05
2.05828e-05
2.06684e-05
2.07497e-05
2.08265e-05
2.08986e-05
2.09661e-05
2.10287e-05
2.10864e-05
2.11391e-05
2.11868e-05
2.12293e-05
2.12666e-05
2.12987e-05
2.13255e-05
2.1347e-05
2.13631e-05
2.13739e-05
2.13793e-05
2.13793e-05
2.13739e-05
2.13631e-05
2.1347e-05
2.13255e-05
2.12987e-05
2.12666e-05
1.96363e-05
1.97478e-05
1.98562e-05
1.99612e-05
2.00628e-05
2.01606e-05
2.02545e-05
2.03443e-05
2.043e-05
2.05113e-05
2.05881e-05
2.06603e-05
2.07277e-05
2.07904e-05
2.08481e-05
2.09009e-05
2.09486e-05
2.09911e-05
2.10285e-05
2.10606e-05
2.10874e-05
2.11089e-05
2.11251e-05
2.11358e-05
2.11412e-05
2.11412e-05
2.11358e-05
2.11251e-05
2.11089e-05
2.10874e-05
2.10606e-05
2.10285e-05
1.93977e-05
1.95091e-05
1.96173e-05
1.97223e-05
1.98237e-05
1.99214e-05
2.00153e-05
2.01051e-05
2.01907e-05
2.0272e-05
2.03488e-05
2.04209e-05
2.04884e-05
2.05511e-05
2.06088e-05
2.06616e-05
2.07093e-05
2.07519e-05
2.07892e-05
2.08214e-05
2.08482e-05
2.08697e-05
2.08859e-05
2.08967e-05
2.09021e-05
2.09021e-05
2.08967e-05
2.08859e-05
2.08697e-05
2.08482e-05
2.08214e-05
2.07892e-05
1.91585e-05
1.92698e-05
1.93778e-05
1.94826e-05
1.9584e-05
1.96816e-05
1.97754e-05
1.98651e-05
1.99507e-05
2.00319e-05
2.01086e-05
2.01808e-05
2.02482e-05
2.03108e-05
2.03686e-05
2.04214e-05
2.04691e-05
2.05116e-05
2.0549e-05
2.05811e-05
2.0608e-05
2.06295e-05
2.06457e-05
2.06565e-05
2.06619e-05
2.06619e-05
2.06565e-05
2.06457e-05
2.06295e-05
2.0608e-05
2.05811e-05
2.0549e-05
1.89189e-05
1.90299e-05
1.91378e-05
1.92425e-05
1.93436e-05
1.94411e-05
1.95348e-05
1.96244e-05
1.97099e-05
1.9791e-05
1.98677e-05
1.99398e-05
2.00072e-05
2.00698e-05
2.01275e-05
2.01802e-05
2.02279e-05
2.02705e-05
2.03078e-05
2.034e-05
2.03668e-05
2.03883e-05
2.04045e-05
2.04153e-05
2.04207e-05
2.04207e-05
2.04153e-05
2.04045e-05
2.03883e-05
2.03668e-05
2.034e-05
2.03078e-05
1.8679e-05
1.87897e-05
1.88974e-05
1.90018e-05
1.91028e-05
1.92001e-05
1.92936e-05
1.93831e-05
1.94684e-05
1.95494e-05
1.9626e-05
1.9698e-05
1.97654e-05
1.98279e-05
1.98856e-05
1.99383e-05
1.99859e-05
2.00284e-05
2.00658e-05
2.00979e-05
2.01247e-05
2.01462e-05
2.01624e-05
2.01732e-05
2.01786e-05
2.01786e-05
2.01732e-05
2.01624e-05
2.01462e-05
2.01247e-05
2.00979e-05
2.00658e-05
1.84386e-05
1.85491e-05
1.86565e-05
1.87607e-05
1.88615e-05
1.89586e-05
1.90519e-05
1.91412e-05
1.92264e-05
1.93073e-05
1.93837e-05
1.94556e-05
1.95229e-05
1.95853e-05
1.96429e-05
1.96956e-05
1.97432e-05
1.97856e-05
1.9823e-05
1.9855e-05
1.98818e-05
1.99033e-05
1.99195e-05
1.99302e-05
1.99356e-05
1.99356e-05
1.99302e-05
1.99195e-05
1.99033e-05
1.98818e-05
1.9855e-05
1.8198e-05
1.83082e-05
1.84153e-05
1.85192e-05
1.86198e-05
1.87166e-05
1.88097e-05
1.88989e-05
1.89839e-05
1.90646e-05
1.91409e-05
1.92127e-05
1.92798e-05
1.93421e-05
1.93996e-05
1.94522e-05
1.94997e-05
1.95421e-05
1.95794e-05
1.96114e-05
1.96382e-05
1.96597e-05
1.96758e-05
1.96866e-05
1.96919e-05
1.96919e-05
1.96866e-05
1.96758e-05
1.96597e-05
1.96382e-05
1.96114e-05
1.79572e-05
1.8067e-05
1.81738e-05
1.82775e-05
1.83777e-05
1.84743e-05
1.85672e-05
1.86561e-05
1.87408e-05
1.88214e-05
1.88975e-05
1.89691e-05
1.90361e-05
1.90983e-05
1.91557e-05
1.92082e-05
1.92556e-05
1.9298e-05
1.93352e-05
1.93672e-05
1.93939e-05
1.94153e-05
1.94314e-05
1.94422e-05
1.94476e-05
1.94476e-05
1.94422e-05
1.94314e-05
1.94153e-05
1.93939e-05
1.77163e-05
1.78257e-05
1.79321e-05
1.80354e-05
1.81353e-05
1.82317e-05
1.83243e-05
1.84129e-05
1.84974e-05
1.85778e-05
1.86537e-05
1.87251e-05
1.8792e-05
1.8854e-05
1.89113e-05
1.89637e-05
1.9011e-05
1.90533e-05
1.90904e-05
1.91223e-05
1.9149e-05
1.91704e-05
1.91864e-05
1.91972e-05
1.92025e-05
1.92025e-05
1.91972e-05
1.91864e-05
1.91704e-05
1.9149e-05
1.74752e-05
1.75842e-05
1.76903e-05
1.77932e-05
1.78928e-05
1.79888e-05
1.80811e-05
1.81694e-05
1.82537e-05
1.83338e-05
1.84095e-05
1.84807e-05
1.85474e-05
1.86093e-05
1.86664e-05
1.87186e-05
1.87659e-05
1.8808e-05
1.8845e-05
1.88769e-05
1.89035e-05
1.89249e-05
1.89409e-05
1.89516e-05
1.8957e-05
1.8957e-05
1.89516e-05
1.89409e-05
1.89249e-05
1.89035e-05
1.72341e-05
1.73427e-05
1.74483e-05
1.75509e-05
1.76501e-05
1.77457e-05
1.78376e-05
1.79257e-05
1.80097e-05
1.80895e-05
1.8165e-05
1.8236e-05
1.83024e-05
1.83642e-05
1.84211e-05
1.84732e-05
1.85203e-05
1.85623e-05
1.85993e-05
1.8631e-05
1.86576e-05
1.86789e-05
1.86949e-05
1.87055e-05
1.87109e-05
1.87109e-05
1.87055e-05
1.86949e-05
1.86789e-05
1.86576e-05
1.69931e-05
1.71012e-05
1.72063e-05
1.73084e-05
1.74072e-05
1.75025e-05
1.75941e-05
1.76818e-05
1.77655e-05
1.7845e-05
1.79202e-05
1.7991e-05
1.80572e-05
1.81187e-05
1.81755e-05
1.82274e-05
1.82743e-05
1.83163e-05
1.83531e-05
1.83848e-05
1.84112e-05
1.84325e-05
1.84484e-05
1.84591e-05
1.84644e-05
1.84644e-05
1.84591e-05
1.84484e-05
1.84325e-05
1.84112e-05
1.6752e-05
1.68596e-05
1.69644e-05
1.7066e-05
1.71643e-05
1.72592e-05
1.73504e-05
1.74378e-05
1.75211e-05
1.76003e-05
1.76752e-05
1.77457e-05
1.78117e-05
1.7873e-05
1.79296e-05
1.79813e-05
1.80281e-05
1.80699e-05
1.81066e-05
1.81381e-05
1.81645e-05
1.81857e-05
1.82016e-05
1.82122e-05
1.82175e-05
1.82175e-05
1.82122e-05
1.82016e-05
1.81857e-05
1.81645e-05
1.65112e-05
1.66182e-05
1.67224e-05
1.68236e-05
1.69215e-05
1.70159e-05
1.71067e-05
1.71937e-05
1.72766e-05
1.73555e-05
1.74301e-05
1.75003e-05
1.7566e-05
1.76271e-05
1.76835e-05
1.7735e-05
1.77816e-05
1.78232e-05
1.78598e-05
1.78913e-05
1.79175e-05
1.79386e-05
1.79545e-05
1.79651e-05
1.79703e-05
1.79703e-05
1.79651e-05
1.79545e-05
1.79386e-05
1.79175e-05
1.62704e-05
1.63769e-05
1.64806e-05
1.65813e-05
1.66787e-05
1.67726e-05
1.6863e-05
1.69495e-05
1.70321e-05
1.71107e-05
1.71849e-05
1.72548e-05
1.73203e-05
1.73811e-05
1.74372e-05
1.74885e-05
1.75349e-05
1.75764e-05
1.76128e-05
1.76441e-05
1.76703e-05
1.76913e-05
1.77071e-05
1.77177e-05
1.77229e-05
1.77229e-05
1.77177e-05
1.77071e-05
1.76913e-05
1.76703e-05
1.603e-05
1.61359e-05
1.6239e-05
1.63391e-05
1.6436e-05
1.65295e-05
1.66193e-05
1.67055e-05
1.67877e-05
1.68658e-05
1.69397e-05
1.70093e-05
1.70744e-05
1.71349e-05
1.71908e-05
1.72419e-05
1.72881e-05
1.73294e-05
1.73657e-05
1.73969e-05
1.7423e-05
1.74439e-05
1.74596e-05
1.74701e-05
1.74753e-05
1.74753e-05
1.74701e-05
1.74596e-05
1.74439e-05
1.7423e-05
1.57897e-05
1.5895e-05
1.59976e-05
1.60971e-05
1.61935e-05
1.62864e-05
1.63758e-05
1.64615e-05
1.65432e-05
1.6621e-05
1.66945e-05
1.67637e-05
1.68285e-05
1.68888e-05
1.69444e-05
1.69952e-05
1.70412e-05
1.70823e-05
1.71184e-05
1.71495e-05
1.71755e-05
1.71963e-05
1.72119e-05
1.72224e-05
1.72276e-05
1.72276e-05
1.72224e-05
1.72119e-05
1.71963e-05
1.71755e-05
1.55498e-05
1.56545e-05
1.57564e-05
1.58554e-05
1.59512e-05
1.60436e-05
1.61325e-05
1.62176e-05
1.6299e-05
1.63763e-05
1.64494e-05
1.65183e-05
1.65827e-05
1.66427e-05
1.6698e-05
1.67486e-05
1.67944e-05
1.68352e-05
1.68712e-05
1.69021e-05
1.69279e-05
1.69487e-05
1.69642e-05
1.69746e-05
1.69798e-05
1.69798e-05
1.69746e-05
1.69642e-05
1.69487e-05
1.69279e-05
1.53103e-05
1.54143e-05
1.55156e-05
1.56139e-05
1.57091e-05
1.5801e-05
1.58893e-05
1.5974e-05
1.60548e-05
1.61317e-05
1.62044e-05
1.62729e-05
1.6337e-05
1.63966e-05
1.64517e-05
1.6502e-05
1.65475e-05
1.65882e-05
1.66239e-05
1.66547e-05
1.66804e-05
1.6701e-05
1.67165e-05
1.67269e-05
1.67321e-05
1.67321e-05
1.67269e-05
1.67165e-05
1.6701e-05
1.66804e-05
1.50712e-05
1.51745e-05
1.52751e-05
1.53728e-05
1.54674e-05
1.55587e-05
1.56465e-05
1.57306e-05
1.5811e-05
1.58874e-05
1.59597e-05
1.60277e-05
1.60915e-05
1.61507e-05
1.62055e-05
1.62555e-05
1.63008e-05
1.63412e-05
1.63768e-05
1.64074e-05
1.6433e-05
1.64535e-05
1.64689e-05
1.64792e-05
1.64843e-05
1.64843e-05
1.64792e-05
1.64689e-05
1.64535e-05
1.6433e-05
1.48326e-05
1.49352e-05
1.50351e-05
1.51321e-05
1.52261e-05
1.53167e-05
1.5404e-05
1.54876e-05
1.55674e-05
1.56433e-05
1.57151e-05
1.57828e-05
1.58461e-05
1.59051e-05
1.59594e-05
1.60092e-05
1.60542e-05
1.60944e-05
1.61298e-05
1.61602e-05
1.61856e-05
1.6206e-05
1.62213e-05
1.62316e-05
1.62367e-05
1.62367e-05
1.62316e-05
1.62213e-05
1.6206e-05
1.61856e-05
1.45945e-05
1.46963e-05
1.47955e-05
1.48919e-05
1.49851e-05
1.50752e-05
1.51618e-05
1.52448e-05
1.53241e-05
1.53995e-05
1.54709e-05
1.55381e-05
1.56011e-05
1.56596e-05
1.57136e-05
1.57631e-05
1.58078e-05
1.58478e-05
1.58829e-05
1.59132e-05
1.59384e-05
1.59587e-05
1.59739e-05
1.59841e-05
1.59892e-05
1.59892e-05
1.59841e-05
1.59739e-05
1.59587e-05
1.59384e-05
1.43569e-05
1.4458e-05
1.45564e-05
1.46521e-05
1.47447e-05
1.48341e-05
1.49201e-05
1.50025e-05
1.50812e-05
1.51561e-05
1.5227e-05
1.52938e-05
1.53563e-05
1.54145e-05
1.54681e-05
1.55172e-05
1.55617e-05
1.56014e-05
1.56363e-05
1.56664e-05
1.56915e-05
1.57116e-05
1.57268e-05
1.57369e-05
1.5742e-05
1.5742e-05
1.57369e-05
1.57268e-05
1.57116e-05
1.56915e-05
1.412e-05
1.42202e-05
1.43179e-05
1.44128e-05
1.45047e-05
1.45935e-05
1.46788e-05
1.47606e-05
1.48388e-05
1.49131e-05
1.49835e-05
1.50498e-05
1.51119e-05
1.51696e-05
1.5223e-05
1.52717e-05
1.53159e-05
1.53554e-05
1.539e-05
1.54199e-05
1.54448e-05
1.54648e-05
1.54799e-05
1.54899e-05
1.5495e-05
1.5495e-05
1.54899e-05
1.54799e-05
1.54648e-05
1.54448e-05
1.38837e-05
1.39831e-05
1.408e-05
1.41742e-05
1.42654e-05
1.43534e-05
1.44381e-05
1.45193e-05
1.45968e-05
1.46706e-05
1.47405e-05
1.48063e-05
1.48679e-05
1.49252e-05
1.49782e-05
1.50266e-05
1.50705e-05
1.51096e-05
1.51441e-05
1.51737e-05
1.51985e-05
1.52184e-05
1.52333e-05
1.52433e-05
1.52483e-05
1.52483e-05
1.52433e-05
1.52333e-05
1.52184e-05
1.51985e-05
1.3648e-05
1.37466e-05
1.38428e-05
1.39361e-05
1.40266e-05
1.41139e-05
1.41979e-05
1.42784e-05
1.43554e-05
1.44286e-05
1.44979e-05
1.45632e-05
1.46244e-05
1.46813e-05
1.47338e-05
1.47819e-05
1.48254e-05
1.48643e-05
1.48985e-05
1.49279e-05
1.49525e-05
1.49723e-05
1.49871e-05
1.4997e-05
1.5002e-05
1.5002e-05
1.4997e-05
1.49871e-05
1.49723e-05
1.49525e-05
1.34131e-05
1.35109e-05
1.36062e-05
1.36988e-05
1.37884e-05
1.3875e-05
1.39583e-05
1.40382e-05
1.41145e-05
1.41871e-05
1.42559e-05
1.43207e-05
1.43814e-05
1.44378e-05
1.449e-05
1.45377e-05
1.45809e-05
1.46195e-05
1.46534e-05
1.46826e-05
1.4707e-05
1.47266e-05
1.47413e-05
1.47512e-05
1.47561e-05
1.47561e-05
1.47512e-05
1.47413e-05
1.47266e-05
1.4707e-05
1.3176e-05
1.32758e-05
1.33703e-05
1.34621e-05
1.3551e-05
1.36368e-05
1.37194e-05
1.37986e-05
1.38743e-05
1.39463e-05
1.40145e-05
1.40787e-05
1.41389e-05
1.41949e-05
1.42466e-05
1.4294e-05
1.43368e-05
1.43751e-05
1.44088e-05
1.44377e-05
1.4462e-05
1.44814e-05
1.4496e-05
1.45058e-05
1.45107e-05
1.45107e-05
1.45058e-05
1.4496e-05
1.44814e-05
1.4462e-05
1.29365e-05
1.30416e-05
1.31352e-05
1.32262e-05
1.33143e-05
1.33993e-05
1.34811e-05
1.35596e-05
1.36347e-05
1.3706e-05
1.37737e-05
1.38374e-05
1.3897e-05
1.39526e-05
1.40039e-05
1.40508e-05
1.40933e-05
1.41313e-05
1.41647e-05
1.41934e-05
1.42175e-05
1.42367e-05
1.42512e-05
1.42609e-05
1.42658e-05
1.42658e-05
1.42609e-05
1.42512e-05
1.42367e-05
1.42175e-05
1.2901e-05
1.29911e-05
1.30783e-05
1.31625e-05
1.32436e-05
1.33214e-05
1.33958e-05
1.34665e-05
1.35335e-05
1.35967e-05
1.36558e-05
1.37109e-05
1.39735e-05
1.39926e-05
1.4007e-05
1.40166e-05
1.40214e-05
1.40214e-05
1.40166e-05
1.4007e-05
1.39926e-05
1.39735e-05
2.94099e-05
2.94189e-05
2.94255e-05
2.943e-05
2.94322e-05
2.94322e-05
2.943e-05
2.94255e-05
2.94188e-05
2.94099e-05
2.93095e-05
2.93215e-05
2.9331e-05
2.93381e-05
2.93429e-05
2.93452e-05
2.93452e-05
2.93429e-05
2.93381e-05
2.9331e-05
2.93215e-05
2.93095e-05
2.92951e-05
2.92782e-05
2.92588e-05
2.92368e-05
2.92121e-05
2.91849e-05
2.91549e-05
2.91222e-05
2.90866e-05
2.91815e-05
2.91994e-05
2.92146e-05
2.92273e-05
2.92374e-05
2.92449e-05
2.92499e-05
2.92524e-05
2.92524e-05
2.92499e-05
2.92449e-05
2.92374e-05
2.92273e-05
2.92146e-05
2.91994e-05
2.91815e-05
2.9161e-05
2.91378e-05
2.91118e-05
2.90831e-05
2.90515e-05
2.90171e-05
2.89798e-05
2.89395e-05
2.88963e-05
2.885e-05
2.88006e-05
2.90059e-05
2.90332e-05
2.90576e-05
2.90792e-05
2.9098e-05
2.91141e-05
2.91274e-05
2.9138e-05
2.9146e-05
2.91513e-05
2.91539e-05
2.91539e-05
2.91513e-05
2.9146e-05
2.9138e-05
2.91274e-05
2.91141e-05
2.9098e-05
2.90792e-05
2.90576e-05
2.90332e-05
2.90059e-05
2.89758e-05
2.89427e-05
2.89066e-05
2.88676e-05
2.88255e-05
2.87803e-05
2.8732e-05
2.86806e-05
2.8626e-05
2.85683e-05
2.85074e-05
2.88285e-05
2.88631e-05
2.88946e-05
2.89232e-05
2.89487e-05
2.89714e-05
2.89911e-05
2.90079e-05
2.90219e-05
2.90331e-05
2.90415e-05
2.9047e-05
2.90498e-05
2.90498e-05
2.9047e-05
2.90415e-05
2.90331e-05
2.90219e-05
2.90079e-05
2.89911e-05
2.89714e-05
2.89487e-05
2.89231e-05
2.88946e-05
2.88631e-05
2.88285e-05
2.87908e-05
2.87501e-05
2.87062e-05
2.86591e-05
2.86089e-05
2.85555e-05
2.84988e-05
2.84389e-05
2.83759e-05
2.83096e-05
2.82401e-05
2.81671e-05
2.86275e-05
2.86699e-05
2.87091e-05
2.87451e-05
2.8778e-05
2.88078e-05
2.88345e-05
2.88581e-05
2.88787e-05
2.88964e-05
2.8911e-05
2.89227e-05
2.89314e-05
2.89373e-05
2.89402e-05
2.89402e-05
2.89373e-05
2.89314e-05
2.89227e-05
2.8911e-05
2.88963e-05
2.88787e-05
2.88581e-05
2.88345e-05
2.88078e-05
2.8778e-05
2.87451e-05
2.8709e-05
2.86698e-05
2.86274e-05
2.85818e-05
2.8533e-05
2.84808e-05
2.84254e-05
2.83668e-05
2.83048e-05
2.82396e-05
2.81712e-05
2.80995e-05
2.80244e-05
2.84525e-05
2.84998e-05
2.85438e-05
2.85845e-05
2.86219e-05
2.86561e-05
2.86871e-05
2.87149e-05
2.87396e-05
2.87611e-05
2.87794e-05
2.87947e-05
2.88069e-05
2.8816e-05
2.88221e-05
2.88252e-05
2.88252e-05
2.88221e-05
2.8816e-05
2.88069e-05
2.87947e-05
2.87794e-05
2.8761e-05
2.87396e-05
2.87149e-05
2.86871e-05
2.86561e-05
2.86219e-05
2.85845e-05
2.85438e-05
2.84998e-05
2.84525e-05
2.84019e-05
2.83479e-05
2.82906e-05
2.823e-05
2.81661e-05
2.80988e-05
2.80283e-05
2.79545e-05
2.78773e-05
2.8266e-05
2.83183e-05
2.83672e-05
2.84128e-05
2.84549e-05
2.84938e-05
2.85292e-05
2.85614e-05
2.85902e-05
2.86158e-05
2.86382e-05
2.86573e-05
2.86732e-05
2.86858e-05
2.86954e-05
2.87017e-05
2.87048e-05
2.87048e-05
2.87017e-05
2.86953e-05
2.86858e-05
2.86732e-05
2.86573e-05
2.86382e-05
2.86158e-05
2.85902e-05
2.85614e-05
2.85292e-05
2.84937e-05
2.84549e-05
2.84128e-05
2.83672e-05
2.83183e-05
2.8266e-05
2.82102e-05
2.81511e-05
2.80886e-05
2.80227e-05
2.79535e-05
2.7881e-05
2.78051e-05
2.77259e-05
2.8068e-05
2.81254e-05
2.81794e-05
2.82299e-05
2.82769e-05
2.83205e-05
2.83606e-05
2.83973e-05
2.84306e-05
2.84605e-05
2.8487e-05
2.85102e-05
2.853e-05
2.85465e-05
2.85597e-05
2.85695e-05
2.85761e-05
2.85794e-05
2.85794e-05
2.85761e-05
2.85695e-05
2.85596e-05
2.85465e-05
2.853e-05
2.85102e-05
2.8487e-05
2.84605e-05
2.84306e-05
2.83973e-05
2.83606e-05
2.83205e-05
2.82769e-05
2.82299e-05
2.81794e-05
2.81254e-05
2.8068e-05
2.80071e-05
2.79427e-05
2.7875e-05
2.78038e-05
2.77294e-05
2.76516e-05
2.75703e-05
2.78586e-05
2.79212e-05
2.79803e-05
2.80359e-05
2.80879e-05
2.81364e-05
2.81813e-05
2.82227e-05
2.82606e-05
2.8295e-05
2.83259e-05
2.83533e-05
2.83773e-05
2.83978e-05
2.84148e-05
2.84284e-05
2.84387e-05
2.84455e-05
2.84489e-05
2.84489e-05
2.84455e-05
2.84387e-05
2.84284e-05
2.84148e-05
2.83978e-05
2.83773e-05
2.83533e-05
2.83259e-05
2.8295e-05
2.82606e-05
2.82227e-05
2.81813e-05
2.81363e-05
2.80879e-05
2.80358e-05
2.79803e-05
2.79212e-05
2.78586e-05
2.77925e-05
2.77229e-05
2.765e-05
2.75736e-05
2.74939e-05
2.74108e-05
2.77058e-05
2.77701e-05
2.78307e-05
2.78878e-05
2.79413e-05
2.79912e-05
2.80375e-05
2.80802e-05
2.81192e-05
2.81547e-05
2.81865e-05
2.82148e-05
2.82395e-05
2.82607e-05
2.82783e-05
2.82923e-05
2.83029e-05
2.83099e-05
2.83134e-05
2.83134e-05
2.83099e-05
2.83029e-05
2.82923e-05
2.82783e-05
2.82606e-05
2.82395e-05
2.82148e-05
2.81865e-05
2.81546e-05
2.81192e-05
2.80801e-05
2.80375e-05
2.79912e-05
2.79413e-05
2.78878e-05
2.78307e-05
2.777e-05
2.77058e-05
2.7638e-05
2.75667e-05
2.7492e-05
2.74138e-05
2.73323e-05
2.72473e-05
2.74794e-05
2.75488e-05
2.76147e-05
2.76769e-05
2.77355e-05
2.77904e-05
2.78416e-05
2.78892e-05
2.7933e-05
2.79732e-05
2.80097e-05
2.80424e-05
2.80716e-05
2.8097e-05
2.81188e-05
2.8137e-05
2.81515e-05
2.81623e-05
2.81696e-05
2.81732e-05
2.81732e-05
2.81696e-05
2.81623e-05
2.81515e-05
2.8137e-05
2.81188e-05
2.8097e-05
2.80716e-05
2.80424e-05
2.80096e-05
2.79732e-05
2.7933e-05
2.78892e-05
2.78416e-05
2.77904e-05
2.77355e-05
2.76769e-05
2.76147e-05
2.75488e-05
2.74794e-05
2.74064e-05
2.733e-05
2.72501e-05
2.71668e-05
2.70801e-05
2.72422e-05
2.73168e-05
2.73878e-05
2.74552e-05
2.75189e-05
2.75789e-05
2.76352e-05
2.76877e-05
2.77365e-05
2.77815e-05
2.78227e-05
2.78602e-05
2.78939e-05
2.79238e-05
2.79499e-05
2.79724e-05
2.7991e-05
2.80059e-05
2.80171e-05
2.80246e-05
2.80283e-05
2.80283e-05
2.80246e-05