/*--------------------------------*- C++ -*----------------------------------*\
  =========                 |
  \\      /  F ield         | OpenFOAM: The Open Source CFD Toolbox
   \\    /   O peration     | Website:  https://openfoam.org
    \\  /    A nd           | Version:  7
     \\/     M anipulation  |
\*---------------------------------------------------------------------------*/
FoamFile
{
    version     2.0;
    format      ascii;
    class       volScalarField;
    location    "232000";
    object      p;
}
// * * * * * * * * * * * * * * * * * * * * * * * * * * * * * * * * * * * * * //

dimensions      [0 2 -2 0 0 0 0];

internalField   nonuniform List<scalar> 
4850
(
-8.121e-19
-7.99143e-19
-8.1332e-19
-7.96837e-19
-8.10836e-19
-8.23114e-19
-8.1068e-19
-8.1026e-19
-8.09437e-19
-8.15877e-19
-8.15055e-19
-8.09326e-19
-8.1075e-19
-8.16487e-19
-8.09946e-19
-8.15796e-19
-8.15599e-19
-8.09641e-19
-7.98594e-19
-8.1663e-19
-8.04872e-19
-8.12396e-19
-8.06933e-19
-8.25376e-19
-8.13019e-19
-8.02036e-19
-8.21527e-19
-8.12609e-19
-7.99921e-19
-8.15792e-19
-8.16295e-19
-8.35875e-19
-8.05508e-19
-8.07636e-19
-8.10557e-19
-8.0802e-19
-8.07876e-19
-8.02515e-19
-8.20942e-19
-8.29883e-19
-8.1822e-19
-8.12204e-19
-7.97887e-19
-8.05613e-19
-8.20377e-19
-8.12228e-19
-8.03773e-19
-8.08081e-19
-8.1585e-19
-8.16835e-19
-8.15764e-19
-8.1304e-19
-8.2661e-19
-8.14321e-19
-8.18296e-19
-8.35007e-19
-7.98845e-19
-8.07672e-19
-8.12685e-19
-8.16623e-19
-8.06153e-19
-8.12809e-19
-8.17058e-19
-8.13955e-19
-8.19465e-19
-8.13072e-19
-8.17186e-19
-8.22865e-19
-8.05713e-19
-8.12429e-19
-8.16858e-19
-8.22528e-19
-8.25044e-19
-8.26935e-19
-8.06428e-19
-8.08755e-19
-8.05986e-19
-8.04656e-19
-8.06805e-19
-8.14424e-19
-8.29891e-19
-8.12666e-19
-8.16523e-19
-8.10982e-19
-8.13718e-19
-8.14708e-19
-8.12817e-19
-8.19194e-19
-8.10668e-19
-8.2108e-19
-8.28014e-19
-8.3109e-19
-8.35878e-19
-8.53795e-19
-8.07066e-19
-8.11777e-19
-8.05991e-19
-8.07328e-19
-8.02317e-19
-8.19798e-19
-8.25574e-19
-8.19297e-19
-8.13059e-19
-8.09957e-19
-8.14071e-19
-8.09788e-19
-8.23282e-19
-8.23551e-19
-8.24914e-19
-8.17492e-19
-8.31741e-19
-8.2884e-19
-8.31613e-19
-8.4053e-19
-8.44948e-19
-8.69818e-19
-8.82468e-19
-8.57869e-19
-8.06299e-19
-8.1104e-19
-8.04556e-19
-8.05437e-19
-8.02347e-19
-8.07424e-19
-8.05721e-19
-8.12959e-19
-8.14886e-19
-8.13138e-19
-8.19643e-19
-8.03953e-19
-8.18492e-19
-8.12422e-19
-8.2588e-19
-8.15164e-19
-8.39289e-19
-8.25812e-19
-8.14331e-19
-8.28275e-19
-8.46288e-19
-8.54561e-19
-8.69205e-19
-8.467e-19
-8.73962e-19
-8.96773e-19
-8.78128e-19
-8.64815e-19
-9.0234e-19
-7.97221e-19
-8.15508e-19
-7.95978e-19
-8.06925e-19
-8.01083e-19
-8.09595e-19
-7.93173e-19
-8.09423e-19
-8.19972e-19
-8.12009e-19
-8.06536e-19
-8.06356e-19
-8.2152e-19
-8.02839e-19
-8.37658e-19
-8.05747e-19
-8.25647e-19
-8.10944e-19
-8.09113e-19
-8.50248e-19
-8.44194e-19
-8.38332e-19
-8.64197e-19
-8.4822e-19
-8.7965e-19
-9.16628e-19
-8.85005e-19
-8.6788e-19
-9.03894e-19
-9.13515e-19
-9.06847e-19
-9.30601e-19
-7.87366e-19
-8.26175e-19
-8.05533e-19
-8.00087e-19
-8.04894e-19
-8.22282e-19
-8.09262e-19
-8.15605e-19
-8.20157e-19
-8.10778e-19
-8.09724e-19
-8.05484e-19
-8.1728e-19
-8.02354e-19
-8.39372e-19
-8.32168e-19
-8.25376e-19
-8.22222e-19
-8.12115e-19
-8.4716e-19
-8.47982e-19
-8.55988e-19
-8.62165e-19
-8.62735e-19
-8.89833e-19
-8.98813e-19
-8.83053e-19
-8.71335e-19
-9.05111e-19
-9.16255e-19
-9.20932e-19
-9.31712e-19
-9.46852e-19
-1.05404e-18
-7.98902e-19
-8.07709e-19
-8.05989e-19
-8.11043e-19
-8.14496e-19
-8.20963e-19
-7.99028e-19
-8.19506e-19
-8.14843e-19
-8.10665e-19
-8.05328e-19
-7.93325e-19
-8.15074e-19
-8.08874e-19
-8.24056e-19
-8.29739e-19
-8.24429e-19
-8.34343e-19
-8.34598e-19
-8.45425e-19
-8.50039e-19
-8.73738e-19
-8.61362e-19
-8.66144e-19
-8.80999e-19
-9.08623e-19
-8.80418e-19
-8.82629e-19
-9.05092e-19
-9.20361e-19
-9.28131e-19
-9.59384e-19
-9.29663e-19
-1.11132e-18
-8.05187e-19
-8.08574e-19
-8.06748e-19
-8.13685e-19
-8.1036e-19
-8.16597e-19
-8.08811e-19
-8.14169e-19
-8.14975e-19
-8.10596e-19
-8.10347e-19
-8.11019e-19
-8.17897e-19
-8.145e-19
-8.19127e-19
-8.37287e-19
-8.25964e-19
-8.44939e-19
-8.43987e-19
-8.45177e-19
-8.48461e-19
-8.64881e-19
-8.73885e-19
-8.6217e-19
-8.80932e-19
-9.17686e-19
-8.66714e-19
-9.00993e-19
-9.11845e-19
-9.31232e-19
-9.20186e-19
-9.84143e-19
-9.48545e-19
-1.16304e-18
-8.07261e-19
-8.07861e-19
-8.05808e-19
-8.18041e-19
-8.13305e-19
-8.11618e-19
-8.08088e-19
-8.10251e-19
-8.02299e-19
-8.09245e-19
-8.17466e-19
-8.08607e-19
-8.22625e-19
-8.16196e-19
-8.17453e-19
-8.28209e-19
-8.24886e-19
-8.29433e-19
-8.15141e-19
-8.44483e-19
-8.44644e-19
-8.68242e-19
-8.5759e-19
-8.47474e-19
-8.88436e-19
-8.88324e-19
-8.65122e-19
-8.96361e-19
-9.22292e-19
-9.20299e-19
-9.31669e-19
-9.85877e-19
-9.55602e-19
-1.15104e-18
-8.14521e-19
-8.08102e-19
-7.99685e-19
-8.2494e-19
-8.05505e-19
-8.14738e-19
-8.09181e-19
-8.08167e-19
-8.08556e-19
-8.02382e-19
-8.06012e-19
-8.10362e-19
-8.17416e-19
-8.16675e-19
-8.14488e-19
-8.21579e-19
-8.25287e-19
-8.15058e-19
-8.08265e-19
-8.48496e-19
-8.4228e-19
-8.61472e-19
-8.67909e-19
-8.50814e-19
-8.76364e-19
-8.79248e-19
-8.80799e-19
-8.92661e-19
-9.10767e-19
-9.0215e-19
-9.35866e-19
-9.70046e-19
-9.51496e-19
-1.15338e-18
-8.23851e-19
-7.96365e-19
-8.03436e-19
-8.30962e-19
-7.98821e-19
-8.19669e-19
-8.04626e-19
-8.08241e-19
-8.08329e-19
-7.86774e-19
-8.04447e-19
-8.16729e-19
-8.16291e-19
-8.14921e-19
-8.02412e-19
-8.23229e-19
-8.20097e-19
-8.28762e-19
-8.22336e-19
-8.6258e-19
-8.30902e-19
-8.5166e-19
-8.50657e-19
-8.73138e-19
-8.73359e-19
-8.80937e-19
-8.94538e-19
-8.93077e-19
-9.08879e-19
-9.11277e-19
-9.34656e-19
-9.62868e-19
-9.46208e-19
-1.11302e-18
-8.21759e-19
-8.07997e-19
-8.04468e-19
-8.17648e-19
-8.02192e-19
-8.14477e-19
-8.02602e-19
-8.03803e-19
-7.98705e-19
-7.90709e-19
-8.13865e-19
-7.97161e-19
-8.15146e-19
-8.17393e-19
-8.13448e-19
-8.2355e-19
-8.08162e-19
-8.18939e-19
-8.16386e-19
-8.51872e-19
-8.42313e-19
-8.40305e-19
-8.57937e-19
-8.68e-19
-8.7438e-19
-8.76605e-19
-8.79886e-19
-8.9339e-19
-9.11613e-19
-9.04336e-19
-9.32673e-19
-9.60049e-19
-9.35618e-19
-1.06959e-18
-8.05492e-19
-8.12481e-19
-8.04308e-19
-8.10923e-19
-7.98855e-19
-8.12646e-19
-8.03446e-19
-8.15222e-19
-8.07027e-19
-7.97089e-19
-8.36781e-19
-7.88661e-19
-8.05822e-19
-8.20381e-19
-8.1738e-19
-8.22696e-19
-8.22576e-19
-8.28599e-19
-8.32507e-19
-8.50326e-19
-8.47377e-19
-8.51228e-19
-8.6124e-19
-8.63521e-19
-8.71009e-19
-8.74676e-19
-8.78951e-19
-8.88062e-19
-9.05581e-19
-9.14767e-19
-9.33321e-19
-9.57425e-19
-9.54288e-19
-1.04952e-18
-8.0443e-19
-8.18229e-19
-8.07725e-19
-8.06754e-19
-8.01852e-19
-8.06382e-19
-8.05938e-19
-8.16801e-19
-8.05687e-19
-8.06349e-19
-8.32186e-19
-7.98826e-19
-8.04307e-19
-8.20751e-19
-8.0785e-19
-8.32166e-19
-8.26111e-19
-8.33406e-19
-8.49002e-19
-8.46915e-19
-8.51337e-19
-8.48912e-19
-8.60715e-19
-8.63294e-19
-8.78008e-19
-8.75141e-19
-8.79782e-19
-8.76758e-19
-9.05784e-19
-9.13956e-19
-9.30677e-19
-9.54007e-19
-9.68616e-19
-1.01747e-18
-8.09143e-19
-8.12705e-19
-8.02669e-19
-8.14731e-19
-8.08432e-19
-8.13027e-19
-7.99822e-19
-8.1386e-19
-8.07374e-19
-8.14972e-19
-8.18548e-19
-7.98685e-19
-8.13614e-19
-8.13158e-19
-8.05651e-19
-8.16514e-19
-8.27736e-19
-8.37079e-19
-8.34029e-19
-8.45048e-19
-8.58575e-19
-8.328e-19
-8.58978e-19
-8.63829e-19
-9.01622e-19
-8.818e-19
-8.81614e-19
-8.92625e-19
-9.13484e-19
-9.04767e-19
-9.27256e-19
-9.54268e-19
-9.53904e-19
-9.94197e-19
-9.39671e-19
-8.0407e-19
-8.20604e-19
-8.06622e-19
-8.19808e-19
-8.0668e-19
-8.12308e-19
-8.07408e-19
-8.01445e-19
-8.18856e-19
-8.0563e-19
-8.14909e-19
-8.07938e-19
-8.22582e-19
-8.04399e-19
-8.10555e-19
-8.26898e-19
-8.41196e-19
-8.47275e-19
-8.17625e-19
-8.47504e-19
-8.35373e-19
-8.26868e-19
-8.57555e-19
-8.64906e-19
-8.77902e-19
-8.92941e-19
-8.84382e-19
-9.06957e-19
-9.03517e-19
-9.24784e-19
-9.25704e-19
-9.64957e-19
-9.48162e-19
-9.73903e-19
-9.44734e-19
-7.90238e-19
-8.19558e-19
-8.07711e-19
-8.11586e-19
-8.12003e-19
-8.12477e-19
-8.19762e-19
-8.02951e-19
-8.1297e-19
-7.98616e-19
-8.15139e-19
-8.12091e-19
-8.19332e-19
-7.99895e-19
-8.09391e-19
-8.23502e-19
-8.3001e-19
-8.38497e-19
-8.26704e-19
-8.573e-19
-8.39941e-19
-8.37109e-19
-8.56663e-19
-8.67641e-19
-8.63603e-19
-8.8128e-19
-8.81033e-19
-8.96356e-19
-8.97731e-19
-9.23812e-19
-9.24174e-19
-9.6133e-19
-9.44319e-19
-9.88521e-19
-9.58128e-19
-7.98235e-19
-8.15926e-19
-8.04736e-19
-8.17328e-19
-8.08159e-19
-8.11858e-19
-8.11952e-19
-7.94986e-19
-8.07514e-19
-8.03988e-19
-8.17485e-19
-8.10695e-19
-8.07673e-19
-8.14704e-19
-8.1928e-19
-8.1675e-19
-8.16553e-19
-8.31926e-19
-8.32946e-19
-8.51978e-19
-8.4492e-19
-8.6512e-19
-8.56868e-19
-8.65266e-19
-8.51594e-19
-8.76432e-19
-8.78213e-19
-8.92066e-19
-8.9152e-19
-9.30381e-19
-9.20634e-19
-9.45801e-19
-9.47371e-19
-9.81921e-19
-8.04365e-19
-8.2904e-19
-7.99363e-19
-8.20561e-19
-8.09979e-19
-8.09551e-19
-8.0803e-19
-8.12813e-19
-8.14978e-19
-8.07593e-19
-8.08698e-19
-8.11152e-19
-8.12802e-19
-8.18202e-19
-8.23268e-19
-8.18974e-19
-8.19492e-19
-8.33594e-19
-8.3708e-19
-8.58565e-19
-8.4449e-19
-8.68996e-19
-8.5532e-19
-8.63131e-19
-8.57901e-19
-8.80914e-19
-8.78578e-19
-8.961e-19
-8.78831e-19
-9.22096e-19
-9.17726e-19
-9.39898e-19
-9.53444e-19
-9.62035e-19
-8.07689e-19
-8.3422e-19
-8.04833e-19
-8.15814e-19
-8.11004e-19
-7.98693e-19
-8.11851e-19
-8.08736e-19
-8.08101e-19
-8.08192e-19
-8.10891e-19
-8.13772e-19
-8.10904e-19
-8.19458e-19
-8.28115e-19
-8.27175e-19
-8.36381e-19
-8.34215e-19
-8.39298e-19
-8.46836e-19
-8.40037e-19
-8.54848e-19
-8.53727e-19
-8.60205e-19
-8.52332e-19
-8.90192e-19
-8.79047e-19
-9.05915e-19
-8.88494e-19
-9.18938e-19
-9.16476e-19
-9.34992e-19
-9.4225e-19
-9.50357e-19
-8.04996e-19
-8.23069e-19
-7.95826e-19
-8.14602e-19
-8.12741e-19
-8.00712e-19
-8.06291e-19
-8.11222e-19
-7.92649e-19
-8.0825e-19
-8.10811e-19
-8.19127e-19
-8.08057e-19
-8.1422e-19
-8.20845e-19
-8.21151e-19
-8.39019e-19
-8.3418e-19
-8.41309e-19
-8.41119e-19
-8.29172e-19
-8.48984e-19
-8.53522e-19
-8.63091e-19
-8.61701e-19
-8.78325e-19
-8.8216e-19
-8.94112e-19
-8.93204e-19
-9.25571e-19
-9.17407e-19
-9.3123e-19
-9.39762e-19
-9.4644e-19
-8.07204e-19
-8.15825e-19
-8.14038e-19
-8.25852e-19
-8.15241e-19
-8.14047e-19
-7.96635e-19
-8.28219e-19
-8.12612e-19
-8.09529e-19
-8.14439e-19
-8.15605e-19
-8.16428e-19
-8.1551e-19
-8.1858e-19
-8.15691e-19
-8.24605e-19
-8.32998e-19
-8.27017e-19
-8.40818e-19
-8.43053e-19
-8.4894e-19
-8.52822e-19
-8.6273e-19
-8.64939e-19
-8.72139e-19
-8.9506e-19
-8.87961e-19
-8.90405e-19
-9.10498e-19
-9.205e-19
-9.38598e-19
-9.33186e-19
-8.14367e-19
-8.11549e-19
-8.07735e-19
-8.22448e-19
-8.12688e-19
-8.11848e-19
-8.14084e-19
-8.21823e-19
-8.18785e-19
-8.12449e-19
-8.12196e-19
-8.14161e-19
-8.22696e-19
-8.16491e-19
-8.27314e-19
-8.23958e-19
-8.27212e-19
-8.26899e-19
-8.23635e-19
-8.43559e-19
-8.48023e-19
-8.51216e-19
-8.51584e-19
-8.60991e-19
-8.65577e-19
-8.68784e-19
-8.91708e-19
-8.87265e-19
-8.8389e-19
-9.00776e-19
-9.12473e-19
-9.43839e-19
-9.38651e-19
-8.13913e-19
-8.05585e-19
-8.08204e-19
-8.14936e-19
-8.09113e-19
-8.25485e-19
-8.10805e-19
-8.08366e-19
-8.18697e-19
-8.19028e-19
-8.09912e-19
-8.14182e-19
-8.19865e-19
-8.18051e-19
-8.22746e-19
-8.23315e-19
-8.28088e-19
-8.29357e-19
-8.32622e-19
-8.47633e-19
-8.44808e-19
-8.55768e-19
-8.51641e-19
-8.59706e-19
-8.66329e-19
-8.6373e-19
-8.72314e-19
-8.86505e-19
-8.88027e-19
-9.10143e-19
-9.11042e-19
-9.31685e-19
-8.08699e-19
-8.14738e-19
-8.08706e-19
-8.02632e-19
-8.03561e-19
-8.13231e-19
-8.06765e-19
-8.12152e-19
-8.15219e-19
-8.2027e-19
-8.06691e-19
-8.10114e-19
-8.11613e-19
-8.18996e-19
-8.24683e-19
-8.20264e-19
-8.3529e-19
-8.25543e-19
-8.32396e-19
-8.43066e-19
-8.46548e-19
-8.53429e-19
-8.50673e-19
-8.58562e-19
-8.69875e-19
-8.67919e-19
-8.72984e-19
-8.88881e-19
-8.90376e-19
-9.1102e-19
-9.11922e-19
-9.22744e-19
-8.00095e-19
-8.0868e-19
-8.05303e-19
-8.1357e-19
-8.09503e-19
-8.065e-19
-7.97682e-19
-8.14059e-19
-8.07811e-19
-8.12924e-19
-8.12183e-19
-7.9837e-19
-8.18775e-19
-8.22018e-19
-8.25384e-19
-8.31599e-19
-8.34443e-19
-8.32437e-19
-8.27923e-19
-8.4114e-19
-8.40032e-19
-8.45924e-19
-8.52833e-19
-8.57163e-19
-8.66475e-19
-8.71475e-19
-8.74742e-19
-8.78442e-19
-8.89142e-19
-9.03485e-19
-8.98052e-19
-9.23955e-19
-7.95618e-19
-7.91739e-19
-8.06292e-19
-8.21147e-19
-8.13686e-19
-8.06272e-19
-8.06293e-19
-8.11881e-19
-8.01712e-19
-8.1177e-19
-8.16616e-19
-8.01824e-19
-8.21185e-19
-8.23081e-19
-8.25856e-19
-8.25418e-19
-8.35928e-19
-8.33552e-19
-8.33939e-19
-8.40383e-19
-8.35038e-19
-8.48231e-19
-8.55159e-19
-8.57365e-19
-8.69345e-19
-8.6923e-19
-8.74468e-19
-8.79372e-19
-8.8762e-19
-8.91683e-19
-8.9571e-19
-9.14522e-19
-7.90978e-19
-7.98499e-19
-7.99308e-19
-8.24382e-19
-8.02664e-19
-8.0921e-19
-8.06743e-19
-8.18684e-19
-7.98099e-19
-8.20452e-19
-8.18488e-19
-8.16285e-19
-8.17262e-19
-8.18314e-19
-8.20782e-19
-8.2814e-19
-8.32529e-19
-8.36364e-19
-8.31719e-19
-8.42443e-19
-8.44182e-19
-8.45202e-19
-8.44291e-19
-8.60692e-19
-8.69216e-19
-8.70478e-19
-8.74227e-19
-8.81963e-19
-8.8642e-19
-9.01284e-19
-8.98068e-19
-9.13253e-19
-7.82705e-19
-8.24188e-19
-8.02696e-19
-8.10109e-19
-7.95333e-19
-8.2002e-19
-8.08246e-19
-8.14401e-19
-8.04764e-19
-8.24985e-19
-8.18438e-19
-8.20893e-19
-8.19203e-19
-8.19186e-19
-8.26768e-19
-8.31043e-19
-8.33012e-19
-8.39766e-19
-8.22764e-19
-8.43173e-19
-8.41861e-19
-8.44286e-19
-8.4185e-19
-8.56924e-19
-8.65808e-19
-8.62024e-19
-8.7371e-19
-8.84735e-19
-8.76893e-19
-8.98746e-19
-8.95269e-19
-9.13767e-19
-7.85317e-19
-8.16379e-19
-8.04656e-19
-8.12171e-19
-8.0945e-19
-8.16329e-19
-8.12296e-19
-8.27834e-19
-8.13246e-19
-8.12683e-19
-8.23254e-19
-8.29483e-19
-8.13597e-19
-8.25048e-19
-8.348e-19
-8.24785e-19
-8.31301e-19
-8.31665e-19
-8.28216e-19
-8.41631e-19
-8.43066e-19
-8.43715e-19
-8.47607e-19
-8.55513e-19
-8.68937e-19
-8.61992e-19
-8.73246e-19
-8.77512e-19
-8.7107e-19
-8.92376e-19
-8.92879e-19
-9.01169e-19
-7.90736e-19
-8.20359e-19
-8.05329e-19
-8.1841e-19
-8.01095e-19
-8.13463e-19
-8.02282e-19
-8.15428e-19
-8.15357e-19
-8.12735e-19
-8.19016e-19
-8.24664e-19
-8.24658e-19
-8.27272e-19
-8.31213e-19
-8.19401e-19
-8.33712e-19
-8.20218e-19
-8.37958e-19
-8.46466e-19
-8.38792e-19
-8.4293e-19
-8.49335e-19
-8.51924e-19
-8.62299e-19
-8.58916e-19
-8.7324e-19
-8.71102e-19
-8.81944e-19
-8.94817e-19
-8.93657e-19
-8.91419e-19
-7.79733e-19
-8.1785e-19
-8.00802e-19
-8.17425e-19
-7.98376e-19
-8.1564e-19
-7.96514e-19
-8.12844e-19
-8.1566e-19
-8.17715e-19
-8.14914e-19
-8.2738e-19
-8.24568e-19
-8.22256e-19
-8.23223e-19
-8.21453e-19
-8.3965e-19
-8.21512e-19
-8.29982e-19
-8.41382e-19
-8.3747e-19
-8.43826e-19
-8.49474e-19
-8.44271e-19
-8.56627e-19
-8.60212e-19
-8.72457e-19
-8.76688e-19
-8.87086e-19
-8.94455e-19
-8.96293e-19
-8.99877e-19
-7.97446e-19
-8.04325e-19
-8.08442e-19
-8.16644e-19
-8.04245e-19
-8.14468e-19
-8.11885e-19
-8.11197e-19
-8.08852e-19
-8.19311e-19
-8.17165e-19
-8.16705e-19
-8.28027e-19
-8.15374e-19
-8.26164e-19
-8.16901e-19
-8.38726e-19
-8.28367e-19
-8.32693e-19
-8.44448e-19
-8.33757e-19
-8.46539e-19
-8.50273e-19
-8.57135e-19
-8.62308e-19
-8.57383e-19
-8.72175e-19
-8.81826e-19
-8.92321e-19
-8.92635e-19
-8.9701e-19
-8.97835e-19
-7.90475e-19
-8.11999e-19
-8.03574e-19
-8.16783e-19
-8.17591e-19
-8.05269e-19
-8.2169e-19
-8.06452e-19
-8.03163e-19
-8.16242e-19
-8.17604e-19
-8.12549e-19
-8.24008e-19
-8.10726e-19
-8.35445e-19
-8.15971e-19
-8.32599e-19
-8.28979e-19
-8.3495e-19
-8.43519e-19
-8.26981e-19
-8.42679e-19
-8.56161e-19
-8.55809e-19
-8.68501e-19
-8.62255e-19
-8.72193e-19
-8.76265e-19
-8.91016e-19
-8.88826e-19
-8.89107e-19
-8.90716e-19
-7.90551e-19
-8.12579e-19
-7.96146e-19
-8.08925e-19
-7.98893e-19
-8.06645e-19
-8.15889e-19
-7.97853e-19
-7.93264e-19
-8.05201e-19
-8.06255e-19
-8.1277e-19
-8.09273e-19
-8.17796e-19
-8.40078e-19
-8.21786e-19
-8.32887e-19
-8.2905e-19
-8.30111e-19
-8.37054e-19
-8.37602e-19
-8.40737e-19
-8.5753e-19
-8.53777e-19
-8.61768e-19
-8.66148e-19
-8.74266e-19
-8.7191e-19
-8.8373e-19
-8.84926e-19
-8.86444e-19
-8.89179e-19
-7.92718e-19
-8.05016e-19
-7.95795e-19
-8.12531e-19
-7.91368e-19
-8.04457e-19
-8.06429e-19
-8.08882e-19
-8.06432e-19
-8.11878e-19
-8.13442e-19
-8.13516e-19
-8.16217e-19
-8.20612e-19
-8.38265e-19
-8.22581e-19
-8.25434e-19
-8.33976e-19
-8.31884e-19
-8.39562e-19
-8.37669e-19
-8.41531e-19
-8.48007e-19
-8.52855e-19
-8.57038e-19
-8.62936e-19
-8.7858e-19
-8.70265e-19
-8.82254e-19
-8.8791e-19
-8.85477e-19
-8.98194e-19
-7.90824e-19
-8.13299e-19
-8.10726e-19
-8.17824e-19
-8.13899e-19
-8.16264e-19
-8.13674e-19
-8.13165e-19
-8.14042e-19
-8.18682e-19
-8.24017e-19
-8.12486e-19
-8.17947e-19
-8.19413e-19
-8.38159e-19
-8.24109e-19
-8.31265e-19
-8.2927e-19
-8.28088e-19
-8.32421e-19
-8.35743e-19
-8.47254e-19
-8.42085e-19
-8.55353e-19
-8.59038e-19
-8.60946e-19
-8.60443e-19
-8.64222e-19
-8.86192e-19
-8.87896e-19
-8.90506e-19
-9.06152e-19
-7.95985e-19
-8.01369e-19
-8.02185e-19
-8.08733e-19
-8.09548e-19
-8.16716e-19
-8.19124e-19
-8.10752e-19
-8.1639e-19
-8.23733e-19
-8.2044e-19
-8.17274e-19
-8.21533e-19
-8.15784e-19
-8.34633e-19
-8.34475e-19
-8.44147e-19
-8.22948e-19
-8.39019e-19
-8.32099e-19
-8.33429e-19
-8.43753e-19
-8.40325e-19
-8.46646e-19
-8.59436e-19
-8.60764e-19
-8.6896e-19
-8.65669e-19
-8.72789e-19
-8.86186e-19
-8.89839e-19
-8.99995e-19
-7.99049e-19
-8.04361e-19
-8.04809e-19
-8.04821e-19
-8.1144e-19
-8.02782e-19
-8.21624e-19
-8.15849e-19
-8.18653e-19
-8.1789e-19
-8.16885e-19
-8.1834e-19
-8.27175e-19
-8.22522e-19
-8.36946e-19
-8.2462e-19
-8.35435e-19
-8.19844e-19
-8.4106e-19
-8.29766e-19
-8.42196e-19
-8.39329e-19
-8.39765e-19
-8.47593e-19
-8.58736e-19
-8.63536e-19
-8.68064e-19
-8.60025e-19
-8.78948e-19
-8.91524e-19
-8.90497e-19
-8.0462e-19
-8.07629e-19
-7.94804e-19
-8.08556e-19
-8.12451e-19
-8.02246e-19
-8.17055e-19
-8.14117e-19
-8.13089e-19
-8.18505e-19
-8.26081e-19
-8.14261e-19
-8.26897e-19
-8.20316e-19
-8.25992e-19
-8.20312e-19
-8.29614e-19
-8.29603e-19
-8.38126e-19
-8.24757e-19
-8.41852e-19
-8.36438e-19
-8.43721e-19
-8.48377e-19
-8.56723e-19
-8.72749e-19
-8.66135e-19
-8.58066e-19
-8.74005e-19
-8.89324e-19
-8.86513e-19
-8.0243e-19
-8.05212e-19
-8.08861e-19
-8.0646e-19
-8.06168e-19
-8.08493e-19
-8.25889e-19
-8.10782e-19
-8.15192e-19
-8.158e-19
-8.31203e-19
-8.2352e-19
-8.17983e-19
-8.16021e-19
-8.2679e-19
-8.1542e-19
-8.24257e-19
-8.24531e-19
-8.34618e-19
-8.26436e-19
-8.39326e-19
-8.33017e-19
-8.52522e-19
-8.47399e-19
-8.54395e-19
-8.66893e-19
-8.67483e-19
-8.63038e-19
-8.78716e-19
-8.92724e-19
-8.10034e-19
-7.8726e-19
-8.22853e-19
-8.01494e-19
-8.04396e-19
-8.13994e-19
-8.20462e-19
-8.11377e-19
-8.14292e-19
-8.20329e-19
-8.24735e-19
-8.16989e-19
-8.21538e-19
-8.22164e-19
-8.30075e-19
-8.14473e-19
-8.24043e-19
-8.19107e-19
-8.38196e-19
-8.27202e-19
-8.40801e-19
-8.33254e-19
-8.51253e-19
-8.4592e-19
-8.58155e-19
-8.60054e-19
-8.70603e-19
-8.68647e-19
-8.72423e-19
-8.86281e-19
-8.00995e-19
-7.87118e-19
-8.06822e-19
-7.97303e-19
-7.94738e-19
-8.10369e-19
-8.1569e-19
-8.13017e-19
-8.08708e-19
-8.14137e-19
-8.25004e-19
-8.13116e-19
-8.19011e-19
-8.17143e-19
-8.26541e-19
-8.17157e-19
-8.27517e-19
-8.2206e-19
-8.38312e-19
-8.23858e-19
-8.44677e-19
-8.29344e-19
-8.52513e-19
-8.4684e-19
-8.56087e-19
-8.57603e-19
-8.6644e-19
-8.58432e-19
-8.68891e-19
-8.77927e-19
-7.94136e-19
-8.00788e-19
-7.95107e-19
-8.01746e-19
-8.05591e-19
-8.08718e-19
-8.08259e-19
-8.05629e-19
-8.07367e-19
-8.15396e-19
-8.17032e-19
-8.16164e-19
-8.27446e-19
-8.16327e-19
-8.28313e-19
-8.23597e-19
-8.30043e-19
-8.25649e-19
-8.42695e-19
-8.25288e-19
-8.40763e-19
-8.31608e-19
-8.5337e-19
-8.45627e-19
-8.57413e-19
-8.56422e-19
-8.64528e-19
-8.64443e-19
-8.74629e-19
-8.76572e-19
-7.94389e-19
-7.95576e-19
-7.96427e-19
-8.00163e-19
-8.13399e-19
-8.07351e-19
-8.03972e-19
-8.08561e-19
-8.02805e-19
-8.21392e-19
-8.04808e-19
-8.12654e-19
-8.35082e-19
-8.19195e-19
-8.26185e-19
-8.17522e-19
-8.28429e-19
-8.25376e-19
-8.36283e-19
-8.23949e-19
-8.40859e-19
-8.2814e-19
-8.49312e-19
-8.43685e-19
-8.62229e-19
-8.54907e-19
-8.65973e-19
-8.69981e-19
-8.82104e-19
-8.77235e-19
-7.87346e-19
-7.97569e-19
-8.04866e-19
-8.02698e-19
-8.08666e-19
-8.01563e-19
-8.0528e-19
-8.07394e-19
-8.07733e-19
-8.21181e-19
-8.16964e-19
-8.07231e-19
-8.15882e-19
-8.25633e-19
-8.21712e-19
-8.18208e-19
-8.37711e-19
-8.27585e-19
-8.36744e-19
-8.24527e-19
-8.40556e-19
-8.32401e-19
-8.46298e-19
-8.42365e-19
-8.60492e-19
-8.54222e-19
-8.67657e-19
-8.69192e-19
-8.78207e-19
-8.85544e-19
-8.0502e-19
-7.98185e-19
-8.06357e-19
-7.96402e-19
-8.13073e-19
-7.9694e-19
-8.03682e-19
-8.10634e-19
-8.03519e-19
-8.11388e-19
-8.16043e-19
-8.15852e-19
-8.21648e-19
-8.2368e-19
-8.27505e-19
-8.1808e-19
-8.34742e-19
-8.26171e-19
-8.37952e-19
-8.21172e-19
-8.42574e-19
-8.37294e-19
-8.48363e-19
-8.43217e-19
-8.55242e-19
-8.51376e-19
-8.5653e-19
-8.71081e-19
-8.74427e-19
-8.91506e-19
-7.92303e-19
-8.01246e-19
-7.92916e-19
-7.93531e-19
-8.1836e-19
-8.07309e-19
-8.07797e-19
-8.10031e-19
-8.01788e-19
-8.08962e-19
-8.18091e-19
-8.21251e-19
-8.37541e-19
-8.24599e-19
-8.27903e-19
-8.15647e-19
-8.36989e-19
-8.24094e-19
-8.34334e-19
-8.15117e-19
-8.42578e-19
-8.34329e-19
-8.4806e-19
-8.44921e-19
-8.53503e-19
-8.4681e-19
-8.53917e-19
-8.73327e-19
-8.70229e-19
-8.89717e-19
-7.93335e-19
-7.93605e-19
-7.98807e-19
-8.06671e-19
-8.17654e-19
-8.04583e-19
-8.1045e-19
-8.05592e-19
-7.95383e-19
-8.07905e-19
-8.14632e-19
-8.20478e-19
-8.34326e-19
-8.22163e-19
-8.3446e-19
-8.24959e-19
-8.38896e-19
-8.28418e-19
-8.4171e-19
-8.1332e-19
-8.43754e-19
-8.32112e-19
-8.41176e-19
-8.37644e-19
-8.5515e-19
-8.48992e-19
-8.59505e-19
-8.76284e-19
-8.75338e-19
-8.97571e-19
-8.03604e-19
-8.0643e-19
-8.09978e-19
-8.08595e-19
-8.2319e-19
-8.11007e-19
-8.14802e-19
-8.04172e-19
-8.00883e-19
-8.05659e-19
-8.11266e-19
-8.09719e-19
-8.22143e-19
-8.25973e-19
-8.34578e-19
-8.32019e-19
-8.38746e-19
-8.26316e-19
-8.41863e-19
-8.19543e-19
-8.42027e-19
-8.3068e-19
-8.34785e-19
-8.39658e-19
-8.58937e-19
-8.47795e-19
-8.61999e-19
-8.76948e-19
-8.78236e-19
-8.92355e-19
-8.13173e-19
-8.09657e-19
-8.09001e-19
-8.11472e-19
-8.13077e-19
-8.07352e-19
-8.09953e-19
-8.0937e-19
-8.08845e-19
-8.02098e-19
-8.05408e-19
-8.13837e-19
-8.22755e-19
-8.28185e-19
-8.41932e-19
-8.30411e-19
-8.39182e-19
-8.24788e-19
-8.37609e-19
-8.20154e-19
-8.3858e-19
-8.31573e-19
-8.38186e-19
-8.35641e-19
-8.55265e-19
-8.52788e-19
-8.65826e-19
-8.79411e-19
-8.77922e-19
-8.94991e-19
-8.13696e-19
-8.03505e-19
-8.06597e-19
-8.07669e-19
-8.12685e-19
-8.06207e-19
-8.02568e-19
-7.99623e-19
-8.08773e-19
-7.99685e-19
-8.076e-19
-8.13799e-19
-8.27533e-19
-8.30126e-19
-8.41738e-19
-8.32333e-19
-8.40288e-19
-8.21125e-19
-8.35665e-19
-8.18333e-19
-8.34557e-19
-8.32048e-19
-8.37697e-19
-8.37881e-19
-8.55041e-19
-8.4765e-19
-8.641e-19
-8.79544e-19
-8.79808e-19
-8.95784e-19
-8.09699e-19
-8.07646e-19
-7.95098e-19
-7.97167e-19
-8.11224e-19
-8.06389e-19
-7.87331e-19
-7.98946e-19
-8.09151e-19
-8.07527e-19
-8.05813e-19
-8.12218e-19
-8.23156e-19
-8.27771e-19
-8.36749e-19
-8.29698e-19
-8.39448e-19
-8.15216e-19
-8.35989e-19
-8.23694e-19
-8.32472e-19
-8.33635e-19
-8.3331e-19
-8.31484e-19
-8.60937e-19
-8.51375e-19
-8.61071e-19
-8.76053e-19
-8.82575e-19
-8.89331e-19
-8.12414e-19
-8.04221e-19
-8.01544e-19
-8.09917e-19
-8.07688e-19
-7.93876e-19
-7.89829e-19
-7.98307e-19
-8.03249e-19
-8.03407e-19
-8.06485e-19
-8.11863e-19
-8.24286e-19
-8.34594e-19
-8.49509e-19
-8.29302e-19
-8.43522e-19
-8.21478e-19
-8.34546e-19
-8.19073e-19
-8.30622e-19
-8.299e-19
-8.34362e-19
-8.34993e-19
-8.66497e-19
-8.55855e-19
-8.566e-19
-8.75515e-19
-8.75956e-19
-8.82217e-19
-8.0414e-19
-8.19823e-19
-7.99971e-19
-8.04796e-19
-8.12254e-19
-7.94161e-19
-7.94549e-19
-7.96518e-19
-7.9886e-19
-7.97937e-19
-8.12261e-19
-8.21776e-19
-8.18924e-19
-8.38576e-19
-8.47304e-19
-8.30653e-19
-8.288e-19
-8.21473e-19
-8.43078e-19
-8.2038e-19
-8.31753e-19
-8.24756e-19
-8.32861e-19
-8.37635e-19
-8.61244e-19
-8.52064e-19
-8.58297e-19
-8.80749e-19
-8.79808e-19
-8.83649e-19
-7.93307e-19
-8.13279e-19
-7.96658e-19
-8.02202e-19
-8.04646e-19
-7.91405e-19
-8.14454e-19
-7.96087e-19
-8.01024e-19
-7.90876e-19
-8.10327e-19
-8.29293e-19
-8.23402e-19
-8.35034e-19
-8.45755e-19
-8.34212e-19
-8.2218e-19
-8.19422e-19
-8.46134e-19
-8.23401e-19
-8.33337e-19
-8.32287e-19
-8.36661e-19
-8.33257e-19
-8.54303e-19
-8.49229e-19
-8.63459e-19
-8.80017e-19
-8.8089e-19
-8.81652e-19
-8.07791e-19
-8.15074e-19
-8.00378e-19
-8.00971e-19
-8.08683e-19
-8.1037e-19
-8.1874e-19
-7.939e-19
-8.14872e-19
-7.89563e-19
-8.10954e-19
-8.14455e-19
-8.23588e-19
-8.35385e-19
-8.40932e-19
-8.32625e-19
-8.3203e-19
-8.16681e-19
-8.33717e-19
-8.25571e-19
-8.37732e-19
-8.31886e-19
-8.39317e-19
-8.34748e-19
-8.51954e-19
-8.56221e-19
-8.65931e-19
-8.77121e-19
-8.80684e-19
-8.87765e-19
-8.08538e-19
-8.17336e-19
-8.03766e-19
-7.9711e-19
-8.27557e-19
-8.00559e-19
-8.12587e-19
-7.84519e-19
-8.05898e-19
-7.89697e-19
-8.24483e-19
-8.09706e-19
-8.31215e-19
-8.3212e-19
-8.33981e-19
-8.2583e-19
-8.30747e-19
-8.17005e-19
-8.28369e-19
-8.28489e-19
-8.32378e-19
-8.28635e-19
-8.42218e-19
-8.35699e-19
-8.51215e-19
-8.54127e-19
-8.67071e-19
-8.79515e-19
-8.81669e-19
-8.9309e-19
-8.05629e-19
-8.13939e-19
-8.09406e-19
-7.97401e-19
-8.21836e-19
-7.95007e-19
-8.06142e-19
-7.76661e-19
-8.06403e-19
-7.94854e-19
-8.16736e-19
-8.07917e-19
-8.39199e-19
-8.25173e-19
-8.36021e-19
-8.30007e-19
-8.299e-19
-8.21731e-19
-8.30823e-19
-8.26294e-19
-8.27268e-19
-8.30016e-19
-8.38041e-19
-8.3488e-19
-8.50779e-19
-8.51829e-19
-8.69461e-19
-8.75874e-19
-8.79937e-19
-8.90275e-19
-8.13315e-19
-8.0488e-19
-8.11511e-19
-7.93454e-19
-8.11229e-19
-7.87535e-19
-8.07806e-19
-7.91866e-19
-8.01705e-19
-7.90744e-19
-8.20681e-19
-8.0286e-19
-8.30961e-19
-8.25104e-19
-8.46952e-19
-8.38909e-19
-8.32926e-19
-8.18641e-19
-8.24934e-19
-8.26466e-19
-8.28339e-19
-8.32485e-19
-8.32928e-19
-8.34879e-19
-8.51918e-19
-8.50426e-19
-8.73309e-19
-8.73572e-19
-8.84255e-19
-8.8935e-19
-8.11948e-19
-8.09769e-19
-8.15228e-19
-7.96024e-19
-8.08682e-19
-7.85202e-19
-8.12476e-19
-8.01615e-19
-7.9754e-19
-7.7867e-19
-8.13532e-19
-8.01738e-19
-8.31942e-19
-8.40125e-19
-8.4025e-19
-8.37974e-19
-8.36092e-19
-8.13942e-19
-8.27709e-19
-8.30269e-19
-8.30559e-19
-8.28917e-19
-8.31487e-19
-8.35772e-19
-8.54661e-19
-8.57036e-19
-8.71515e-19
-8.71083e-19
-8.84996e-19
-8.8892e-19
-8.09746e-19
-8.08661e-19
-8.1122e-19
-7.99148e-19
-8.11509e-19
-7.93667e-19
-8.01371e-19
-8.02863e-19
-8.00802e-19
-7.86977e-19
-8.06199e-19
-8.06896e-19
-8.3334e-19
-8.36075e-19
-8.43226e-19
-8.32269e-19
-8.37241e-19
-8.10954e-19
-8.41443e-19
-8.2808e-19
-8.27991e-19
-8.253e-19
-8.34818e-19
-8.36352e-19
-8.54115e-19
-8.54902e-19
-8.72464e-19
-8.74336e-19
-8.83543e-19
-8.85338e-19
-8.09831e-19
-7.90269e-19
-8.26317e-19
-7.95825e-19
-8.10202e-19
-8.11093e-19
-8.11195e-19
-7.99233e-19
-8.02831e-19
-8.0797e-19
-8.3635e-19
-8.34343e-19
-8.33787e-19
-8.17927e-19
-8.35884e-19
-8.28309e-19
-8.50368e-19
-8.51275e-19
-8.68986e-19
-8.75037e-19
-8.82267e-19
-8.89273e-19
-7.95775e-19
-7.94989e-19
-7.95466e-19
-7.97978e-19
-8.08364e-19
-7.96364e-19
-8.06528e-19
-8.12625e-19
-7.92927e-19
-8.15229e-19
-7.81651e-19
-7.91868e-19
-7.83225e-19
-7.97438e-19
-7.82768e-19
-7.86007e-19
-8.02441e-19
-8.19951e-19
-7.98858e-19
-7.99963e-19
-8.09955e-19
-7.97796e-19
-7.9251e-19
-8.02569e-19
-7.8447e-19
-8.00245e-19
-7.88314e-19
-8.04656e-19
-8.00719e-19
-7.97497e-19
-8.13304e-19
-7.89195e-19
-7.9772e-19
-7.90137e-19
-7.97857e-19
-8.05908e-19
-8.19299e-19
-7.92621e-19
-7.91057e-19
-8.12157e-19
-8.27941e-19
-7.86277e-19
-8.1116e-19
-8.24445e-19
-7.89866e-19
-8.09182e-19
-8.00764e-19
-7.83991e-19
-8.04977e-19
-8.12786e-19
-7.98461e-19
-7.85562e-19
-7.78992e-19
-8.03175e-19
-8.09435e-19
-7.96956e-19
-7.85515e-19
-7.85077e-19
-8.00756e-19
-7.86633e-19
-7.78369e-19
-7.94241e-19
-8.10587e-19
-7.90772e-19
-8.03399e-19
-8.008e-19
-7.99012e-19
-7.85565e-19
-7.84672e-19
-7.87135e-19
-8.02692e-19
-7.94438e-19
-7.94645e-19
-7.92375e-19
-7.97201e-19
-8.01865e-19
-7.95224e-19
-8.02959e-19
-8.15892e-19
-8.0036e-19
-7.86729e-19
-7.97106e-19
-7.86639e-19
-7.97513e-19
-8.02644e-19
-7.93166e-19
-8.24567e-19
-7.88213e-19
-8.03208e-19
-7.9804e-19
-8.07623e-19
-7.63496e-19
-7.85865e-19
-8.00058e-19
-7.88912e-19
-7.85018e-19
-8.06327e-19
-8.12749e-19
-7.76945e-19
-7.83603e-19
-8.03615e-19
-7.92553e-19
-8.04611e-19
-8.04995e-19
-8.00565e-19
-7.97407e-19
-8.02956e-19
-8.27217e-19
-8.01789e-19
-8.00574e-19
-7.94976e-19
-7.76607e-19
-8.15917e-19
-8.05181e-19
-7.87184e-19
-7.94653e-19
-8.03797e-19
-8.10585e-19
-7.88292e-19
-8.05113e-19
-8.18098e-19
-8.16024e-19
-8.02059e-19
-8.03768e-19
-8.08492e-19
-8.31373e-19
-8.05392e-19
-7.99363e-19
-8.20207e-19
-7.79867e-19
-7.87152e-19
-7.78999e-19
-8.05548e-19
-7.88328e-19
-7.87565e-19
-7.76721e-19
-7.93337e-19
-8.1001e-19
-7.84197e-19
-7.89724e-19
-7.88774e-19
-7.83616e-19
-8.04745e-19
-8.03583e-19
-8.2872e-19
-8.03935e-19
-8.11078e-19
-8.14547e-19
-8.11894e-19
-8.05013e-19
-7.85844e-19
-7.96659e-19
-8.14585e-19
-8.01157e-19
-7.95249e-19
-7.86375e-19
-7.99879e-19
-7.916e-19
-8.02287e-19
-8.15354e-19
-8.32637e-19
-8.31145e-19
-8.09065e-19
-8.10681e-19
-8.15172e-19
-8.1576e-19
-8.09224e-19
-8.15097e-19
-8.12358e-19
-7.70324e-19
-7.74774e-19
-7.77403e-19
-7.75872e-19
-7.94097e-19
-7.86045e-19
-7.82245e-19
-7.84418e-19
-7.88328e-19
-8.09043e-19
-7.78189e-19
-7.91216e-19
-7.7611e-19
-7.94046e-19
-8.21667e-19
-8.06587e-19
-8.31253e-19
-8.04679e-19
-8.12774e-19
-8.19796e-19
-8.04959e-19
-8.17979e-19
-7.87684e-19
-8.01403e-19
-7.90864e-19
-7.99349e-19
-8.00485e-19
-7.87787e-19
-8.04545e-19
-7.97401e-19
-8.15975e-19
-8.1038e-19
-8.15737e-19
-8.16809e-19
-8.15007e-19
-8.15344e-19
-8.08511e-19
-8.03675e-19
-8.08681e-19
-8.19044e-19
-8.31426e-19
-7.54175e-19
-7.66143e-19
-7.77848e-19
-7.73602e-19
-7.68718e-19
-8.00005e-19
-7.86176e-19
-7.74342e-19
-7.87635e-19
-7.77407e-19
-8.05251e-19
-7.88514e-19
-7.95761e-19
-8.17466e-19
-8.00753e-19
-8.10375e-19
-8.23771e-19
-8.09147e-19
-7.99541e-19
-8.21956e-19
-7.81326e-19
-8.02945e-19
-8.18144e-19
-7.98357e-19
-8.03457e-19
-7.97053e-19
-7.94005e-19
-8.08096e-19
-8.03888e-19
-8.09915e-19
-7.89449e-19
-8.08268e-19
-8.06415e-19
-7.96104e-19
-8.06061e-19
-8.07297e-19
-8.18359e-19
-8.07044e-19
-8.0039e-19
-8.11776e-19
-8.21259e-19
-8.0495e-19
-7.71718e-19
-7.55018e-19
-7.6736e-19
-7.64868e-19