/*--------------------------------*- C++ -*----------------------------------*\
  =========                 |
  \\      /  F ield         | OpenFOAM: The Open Source CFD Toolbox
   \\    /   O peration     | Website:  https://openfoam.org
    \\  /    A nd           | Version:  7
     \\/     M anipulation  |
\*---------------------------------------------------------------------------*/
FoamFile
{
    version     2.0;
    format      ascii;
    class       volScalarField;
    location    "4000";
    object      nut;
}
// * * * * * * * * * * * * * * * * * * * * * * * * * * * * * * * * * * * * * //

dimensions      [0 2 -1 0 0 0 0];

internalField   nonuniform List<scalar> 
4844
(
1.41372e-15
1.41272e-15
1.41166e-15
1.41013e-15
1.40915e-15
1.40811e-15
1.40695e-15
1.40578e-15
1.40453e-15
1.40321e-15
1.40182e-15
1.40654e-15
1.40559e-15
1.40457e-15
1.40345e-15
1.40229e-15
1.40105e-15
1.39974e-15
1.39836e-15
1.39684e-15
1.39533e-15
1.39376e-15
1.40296e-15
1.40204e-15
1.40105e-15
1.39996e-15
1.39881e-15
1.39759e-15
1.39629e-15
1.3949e-15
1.3934e-15
1.39187e-15
1.39027e-15
1.38857e-15
1.38689e-15
1.38516e-15
1.38339e-15
1.38159e-15
1.39935e-15
1.39849e-15
1.39753e-15
1.39648e-15
1.39534e-15
1.39413e-15
1.39283e-15
1.39144e-15
1.38994e-15
1.3884e-15
1.38679e-15
1.38509e-15
1.38338e-15
1.38164e-15
1.37986e-15
1.37807e-15
1.39571e-15
1.39494e-15
1.39402e-15
1.39298e-15
1.39186e-15
1.39065e-15
1.38935e-15
1.38796e-15
1.38647e-15
1.38492e-15
1.3833e-15
1.38161e-15
1.37988e-15
1.37813e-15
1.37635e-15
1.37456e-15
1.39136e-15
1.39048e-15
1.38947e-15
1.38836e-15
1.38715e-15
1.38585e-15
1.38445e-15
1.38297e-15
1.38142e-15
1.37979e-15
1.3781e-15
1.37637e-15
1.37461e-15
1.37283e-15
1.37104e-15
1.38778e-15
1.38692e-15
1.38593e-15
1.38482e-15
1.38362e-15
1.38232e-15
1.38092e-15
1.37944e-15
1.37789e-15
1.37626e-15
1.37456e-15
1.37283e-15
1.37106e-15
1.36928e-15
1.36748e-15
1.38418e-15
1.38334e-15
1.38235e-15
1.38126e-15
1.38005e-15
1.37875e-15
1.37736e-15
1.37588e-15
1.37432e-15
1.37269e-15
1.371e-15
1.36926e-15
1.36749e-15
1.3657e-15
1.36389e-15
1.38127e-15
1.38057e-15
1.37973e-15
1.37875e-15
1.37766e-15
1.37646e-15
1.37516e-15
1.37376e-15
1.37228e-15
1.37072e-15
1.36909e-15
1.36739e-15
1.36566e-15
1.36388e-15
1.36208e-15
1.36026e-15
1.37767e-15
1.37694e-15
1.37609e-15
1.37511e-15
1.37402e-15
1.37282e-15
1.37152e-15
1.37013e-15
1.36864e-15
1.36708e-15
1.36545e-15
1.36376e-15
1.36201e-15
1.36023e-15
1.35842e-15
1.35659e-15
1.37401e-15
1.37327e-15
1.37241e-15
1.37144e-15
1.37035e-15
1.36915e-15
1.36785e-15
1.36645e-15
1.36497e-15
1.36341e-15
1.36177e-15
1.36008e-15
1.35833e-15
1.35654e-15
1.35472e-15
1.35287e-15
1.37031e-15
1.36957e-15
1.36871e-15
1.36773e-15
1.36664e-15
1.36544e-15
1.36414e-15
1.36274e-15
1.36126e-15
1.35969e-15
1.35806e-15
1.35636e-15
1.35461e-15
1.35281e-15
1.35098e-15
1.34911e-15
1.36721e-15
1.36657e-15
1.36583e-15
1.36496e-15
1.36398e-15
1.36289e-15
1.36169e-15
1.36039e-15
1.35899e-15
1.35751e-15
1.35594e-15
1.3543e-15
1.3526e-15
1.35084e-15
1.34904e-15
1.34719e-15
1.34531e-15
1.36346e-15
1.36281e-15
1.36205e-15
1.36118e-15
1.3602e-15
1.3591e-15
1.3579e-15
1.3566e-15
1.3552e-15
1.35371e-15
1.35214e-15
1.3505e-15
1.34879e-15
1.34703e-15
1.34522e-15
1.34336e-15
1.34146e-15
1.36039e-15
1.35969e-15
1.35901e-15
1.35824e-15
1.35737e-15
1.35638e-15
1.35528e-15
1.35407e-15
1.35277e-15
1.35136e-15
1.34988e-15
1.3483e-15
1.34666e-15
1.34495e-15
1.34317e-15
1.34135e-15
1.33948e-15
1.33756e-15
1.35659e-15
1.35588e-15
1.35518e-15
1.3544e-15
1.35351e-15
1.35251e-15
1.35141e-15
1.3502e-15
1.34889e-15
1.34749e-15
1.346e-15
1.34442e-15
1.34277e-15
1.34105e-15
1.33927e-15
1.33744e-15
1.33555e-15
1.33362e-15
1.35275e-15
1.35204e-15
1.35131e-15
1.35051e-15
1.34961e-15
1.34861e-15
1.3475e-15
1.34629e-15
1.34498e-15
1.34357e-15
1.34207e-15
1.34049e-15
1.33884e-15
1.33712e-15
1.33533e-15
1.33348e-15
1.33158e-15
1.32963e-15
1.34886e-15
1.34814e-15
1.3474e-15
1.34658e-15
1.34567e-15
1.34466e-15
1.34355e-15
1.34233e-15
1.34102e-15
1.33961e-15
1.33811e-15
1.33652e-15
1.33486e-15
1.33313e-15
1.33133e-15
1.32948e-15
1.32756e-15
1.3256e-15
1.34492e-15
1.3442e-15
1.34344e-15
1.34261e-15
1.34169e-15
1.34068e-15
1.33955e-15
1.33833e-15
1.33701e-15
1.3356e-15
1.33409e-15
1.33251e-15
1.33084e-15
1.3291e-15
1.3273e-15
1.32543e-15
1.3235e-15
1.32151e-15
1.34093e-15
1.34021e-15
1.33944e-15
1.3386e-15
1.33767e-15
1.33664e-15
1.33552e-15
1.33429e-15
1.33296e-15
1.33154e-15
1.33004e-15
1.32844e-15
1.32677e-15
1.32502e-15
1.32321e-15
1.32133e-15
1.31938e-15
1.31738e-15
1.33688e-15
1.33617e-15
1.33539e-15
1.33454e-15
1.3336e-15
1.33257e-15
1.33143e-15
1.3302e-15
1.32887e-15
1.32745e-15
1.32593e-15
1.32433e-15
1.32265e-15
1.3209e-15
1.31907e-15
1.31718e-15
1.31522e-15
1.31321e-15
1.33279e-15
1.33208e-15
1.3313e-15
1.33044e-15
1.32949e-15
1.32845e-15
1.3273e-15
1.32607e-15
1.32473e-15
1.3233e-15
1.32178e-15
1.32018e-15
1.31849e-15
1.31673e-15
1.31489e-15
1.31298e-15
1.31101e-15
1.30898e-15
1.32864e-15
1.32793e-15
1.32715e-15
1.32629e-15
1.32533e-15
1.32428e-15
1.32313e-15
1.32189e-15
1.32054e-15
1.31911e-15
1.31758e-15
1.31597e-15
1.31428e-15
1.31251e-15
1.31066e-15
1.30874e-15
1.30675e-15
1.30471e-15
1.32444e-15
1.32374e-15
1.32296e-15
1.32208e-15
1.32112e-15
1.32006e-15
1.31891e-15
1.31766e-15
1.31631e-15
1.31487e-15
1.31334e-15
1.31172e-15
1.31002e-15
1.30824e-15
1.30638e-15
1.30445e-15
1.30245e-15
1.30038e-15
1.32018e-15
1.31949e-15
1.31871e-15
1.31783e-15
1.31687e-15
1.3158e-15
1.31464e-15
1.31338e-15
1.31203e-15
1.31058e-15
1.30904e-15
1.30742e-15
1.30571e-15
1.30392e-15
1.30205e-15
1.3001e-15
1.29809e-15
1.29601e-15
1.31586e-15
1.31519e-15
1.31441e-15
1.31353e-15
1.31256e-15
1.31149e-15
1.31032e-15
1.30906e-15
1.3077e-15
1.30625e-15
1.3047e-15
1.30307e-15
1.30135e-15
1.29955e-15
1.29767e-15
1.29571e-15
1.29368e-15
1.29159e-15
1.31147e-15
1.31082e-15
1.31006e-15
1.30918e-15
1.3082e-15
1.30713e-15
1.30596e-15
1.30469e-15
1.30332e-15
1.30186e-15
1.30031e-15
1.29867e-15
1.29694e-15
1.29513e-15
1.29324e-15
1.29127e-15
1.28923e-15
1.28712e-15
1.30702e-15
1.3064e-15
1.30565e-15
1.30478e-15
1.3038e-15
1.30272e-15
1.30154e-15
1.30027e-15
1.29889e-15
1.29743e-15
1.29587e-15
1.29422e-15
1.29248e-15
1.29066e-15
1.28876e-15
1.28678e-15
1.28472e-15
1.2826e-15
1.30252e-15
1.30193e-15
1.30119e-15
1.30032e-15
1.29934e-15
1.29826e-15
1.29708e-15
1.2958e-15
1.29442e-15
1.29294e-15
1.29138e-15
1.28972e-15
1.28798e-15
1.28614e-15
1.28423e-15
1.28224e-15
1.28017e-15
1.27802e-15
1.29829e-15
1.29798e-15
1.29742e-15
1.29668e-15
1.29582e-15
1.29484e-15
1.29375e-15
1.29256e-15
1.29127e-15
1.28989e-15
1.28841e-15
1.28684e-15
1.28517e-15
1.28342e-15
1.28158e-15
1.27965e-15
1.27764e-15
1.27556e-15
1.2734e-15
1.29376e-15
1.29341e-15
1.29285e-15
1.29212e-15
1.29126e-15
1.29028e-15
1.28919e-15
1.288e-15
1.2867e-15
1.28531e-15
1.28383e-15
1.28224e-15
1.28057e-15
1.27881e-15
1.27696e-15
1.27502e-15
1.273e-15
1.2709e-15
1.26873e-15
1.28971e-15
1.28921e-15
1.28881e-15
1.28824e-15
1.28752e-15
1.28666e-15
1.28567e-15
1.28458e-15
1.28338e-15
1.28208e-15
1.28068e-15
1.27919e-15
1.2776e-15
1.27592e-15
1.27415e-15
1.27229e-15
1.27034e-15
1.26831e-15
1.26619e-15
1.26401e-15
1.28513e-15
1.28462e-15
1.28417e-15
1.28359e-15
1.28286e-15
1.282e-15
1.28101e-15
1.27992e-15
1.27872e-15
1.27741e-15
1.27601e-15
1.2745e-15
1.27291e-15
1.27122e-15
1.26944e-15
1.26756e-15
1.2656e-15
1.26356e-15
1.26144e-15
1.25924e-15
1.28052e-15
1.27999e-15
1.2795e-15
1.2789e-15
1.27816e-15
1.27729e-15
1.27631e-15
1.27521e-15
1.274e-15
1.27269e-15
1.27128e-15
1.26977e-15
1.26816e-15
1.26646e-15
1.26467e-15
1.26279e-15
1.26082e-15
1.25876e-15
1.25663e-15
1.25441e-15
1.27586e-15
1.27531e-15
1.27478e-15
1.27416e-15
1.27341e-15
1.27254e-15
1.27155e-15
1.27044e-15
1.26923e-15
1.26791e-15
1.2665e-15
1.26498e-15
1.26337e-15
1.26166e-15
1.25986e-15
1.25797e-15
1.25598e-15
1.25392e-15
1.25176e-15
1.24954e-15
1.27114e-15
1.27057e-15
1.27001e-15
1.26937e-15
1.26861e-15
1.26774e-15
1.26674e-15
1.26563e-15
1.26441e-15
1.26309e-15
1.26166e-15
1.26014e-15
1.25852e-15
1.2568e-15
1.25499e-15
1.25309e-15
1.2511e-15
1.24902e-15
1.24685e-15
1.24461e-15
1.26637e-15
1.26579e-15
1.2652e-15
1.26454e-15
1.26377e-15
1.26288e-15
1.26188e-15
1.26076e-15
1.25954e-15
1.25821e-15
1.25678e-15
1.25525e-15
1.25362e-15
1.25189e-15
1.25007e-15
1.24816e-15
1.24616e-15
1.24407e-15
1.24189e-15
1.23963e-15
1.26153e-15
1.26094e-15
1.26034e-15
1.25965e-15
1.25887e-15
1.25798e-15
1.25697e-15
1.25585e-15
1.25462e-15
1.25328e-15
1.25185e-15
1.25031e-15
1.24867e-15
1.24693e-15
1.2451e-15
1.24318e-15
1.24117e-15
1.23906e-15
1.23687e-15
1.2346e-15
1.25664e-15
1.25604e-15
1.25542e-15
1.25472e-15
1.25393e-15
1.25302e-15
1.25201e-15
1.25088e-15
1.24965e-15
1.2483e-15
1.24686e-15
1.24531e-15
1.24367e-15
1.24192e-15
1.24008e-15
1.23815e-15
1.23612e-15
1.23401e-15
1.2318e-15
1.22951e-15
1.25169e-15
1.25109e-15
1.25045e-15
1.24974e-15
1.24893e-15
1.24802e-15
1.24699e-15
1.24586e-15
1.24462e-15
1.24327e-15
1.24182e-15
1.24026e-15
1.23861e-15
1.23686e-15
1.23501e-15
1.23306e-15
1.23103e-15
1.2289e-15
1.22668e-15
1.22438e-15
1.24668e-15
1.24608e-15
1.24542e-15
1.2447e-15
1.24388e-15
1.24296e-15
1.24193e-15
1.24079e-15
1.23954e-15
1.23819e-15
1.23673e-15
1.23516e-15
1.2335e-15
1.23174e-15
1.22988e-15
1.22792e-15
1.22587e-15
1.22373e-15
1.2215e-15
1.21919e-15
1.24161e-15
1.24101e-15
1.24035e-15
1.23961e-15
1.23878e-15
1.23785e-15
1.23681e-15
1.23566e-15
1.23441e-15
1.23305e-15
1.23158e-15
1.23001e-15
1.22833e-15
1.22656e-15
1.22469e-15
1.22273e-15
1.22067e-15
1.21852e-15
1.21628e-15
1.21395e-15
1.23649e-15
1.23589e-15
1.23521e-15
1.23447e-15
1.23363e-15
1.23269e-15
1.23164e-15
1.23048e-15
1.22922e-15
1.22785e-15
1.22638e-15
1.2248e-15
1.22312e-15
1.22134e-15
1.21946e-15
1.21748e-15
1.21541e-15
1.21325e-15
1.211e-15
1.20866e-15
1.23133e-15
1.23072e-15
1.23004e-15
1.22927e-15
1.22843e-15
1.22748e-15
1.22642e-15
1.22526e-15
1.22399e-15
1.22261e-15
1.22113e-15
1.21954e-15
1.21785e-15
1.21606e-15
1.21417e-15
1.21218e-15
1.2101e-15
1.20793e-15
1.20567e-15
1.20333e-15
1.22611e-15
1.2255e-15
1.22481e-15
1.22404e-15
1.22318e-15
1.22222e-15
1.22115e-15
1.21998e-15
1.2187e-15
1.21732e-15
1.21582e-15
1.21423e-15
1.21253e-15
1.21073e-15
1.20883e-15
1.20683e-15
1.20474e-15
1.20256e-15
1.20029e-15
1.19794e-15
1.22085e-15
1.22023e-15
1.21954e-15
1.21876e-15
1.21789e-15
1.21691e-15
1.21584e-15
1.21466e-15
1.21337e-15
1.21198e-15
1.21048e-15
1.20887e-15
1.20716e-15
1.20535e-15
1.20344e-15
1.20144e-15
1.19934e-15
1.19715e-15
1.19487e-15
1.1925e-15
1.21554e-15
1.21492e-15
1.21421e-15
1.21342e-15
1.21255e-15
1.21156e-15
1.21048e-15
1.20929e-15
1.208e-15
1.20659e-15
1.20508e-15
1.20346e-15
1.20175e-15
1.19993e-15
1.19801e-15
1.196e-15
1.19389e-15
1.19169e-15
1.1894e-15
1.18701e-15
1.21016e-15
1.20954e-15
1.20883e-15
1.20803e-15
1.20715e-15
1.20616e-15
1.20507e-15
1.20387e-15
1.20257e-15
1.20116e-15
1.19964e-15
1.19801e-15
1.19629e-15
1.19446e-15
1.19253e-15
1.19051e-15
1.18839e-15
1.18618e-15
1.18387e-15
1.18144e-15
1.2047e-15
1.20408e-15
1.20336e-15
1.20256e-15
1.20168e-15
1.20069e-15
1.19959e-15
1.19839e-15
1.19708e-15
1.19567e-15
1.19414e-15
1.19251e-15
1.19077e-15
1.18893e-15
1.187e-15
1.18496e-15
1.18283e-15
1.18061e-15
1.17828e-15
1.1758e-15
1.19914e-15
1.19851e-15
1.19779e-15
1.19699e-15
1.19613e-15
1.19514e-15
1.19404e-15
1.19283e-15
1.19153e-15
1.19011e-15
1.18858e-15
1.18694e-15
1.18519e-15
1.18334e-15
1.1814e-15
1.17935e-15
1.17721e-15
1.17497e-15
1.17261e-15
1.17007e-15
1.19344e-15
1.19281e-15
1.19209e-15
1.19129e-15
1.19046e-15
1.18948e-15
1.18837e-15
1.18716e-15
1.18588e-15
1.18447e-15
1.18293e-15
1.18128e-15
1.17952e-15
1.17767e-15
1.17571e-15
1.17365e-15
1.1715e-15
1.16924e-15
1.16685e-15
1.16424e-15
1.18761e-15
1.18697e-15
1.18625e-15
1.18545e-15
1.18466e-15
1.18368e-15
1.18258e-15
1.18137e-15
1.18013e-15
1.17871e-15
1.17717e-15
1.17551e-15
1.17375e-15
1.17188e-15
1.16991e-15
1.16784e-15
1.16567e-15
1.1634e-15
1.16097e-15
1.15831e-15
1.18165e-15
1.18102e-15
1.18029e-15
1.1795e-15
1.17874e-15
1.17776e-15
1.17665e-15
1.17544e-15
1.17424e-15
1.17283e-15
1.17128e-15
1.16961e-15
1.16784e-15
1.16596e-15
1.16398e-15
1.1619e-15
1.15972e-15
1.15742e-15
1.15496e-15
1.15227e-15
1.17564e-15
1.175e-15
1.17427e-15
1.17347e-15
1.17271e-15
1.17172e-15
1.1706e-15
1.1694e-15
1.16822e-15
1.16681e-15
1.16525e-15
1.16358e-15
1.16179e-15
1.1599e-15
1.15791e-15
1.15582e-15
1.15362e-15
1.1513e-15
1.14882e-15
1.14613e-15
1.16662e-15
1.16562e-15
1.1645e-15
1.16329e-15
1.1621e-15
1.16068e-15
1.15911e-15
1.15743e-15
1.15564e-15
1.15374e-15
1.15174e-15
1.14963e-15
1.14742e-15
1.14508e-15
1.14259e-15
1.13993e-15
1.15593e-15
1.15449e-15
1.15292e-15
1.15122e-15
1.14942e-15
1.14751e-15
1.1455e-15
1.14338e-15
1.14115e-15
1.1388e-15
1.1363e-15
1.13369e-15
1.36405e-15
1.36593e-15
1.36033e-15
1.36217e-15
1.35661e-15
1.35842e-15
1.35287e-15
1.35467e-15
1.3564e-15
1.34911e-15
1.3509e-15
1.35264e-15
1.34532e-15
1.34711e-15
1.34887e-15
1.35068e-15
1.34149e-15
1.3433e-15
1.34506e-15
1.34685e-15
1.33762e-15
1.33944e-15
1.34122e-15
1.34299e-15
1.33372e-15
1.33555e-15
1.33734e-15
1.33912e-15
1.34089e-15
1.32976e-15
1.33161e-15
1.33342e-15
1.3352e-15
1.33697e-15
1.32577e-15
1.32763e-15
1.32945e-15
1.33123e-15
1.333e-15
1.32172e-15
1.3236e-15
1.32543e-15
1.32721e-15
1.32897e-15
1.31763e-15
1.31952e-15
1.32136e-15
1.32314e-15
1.32487e-15
1.31349e-15
1.31539e-15
1.31724e-15
1.31902e-15
1.32072e-15
1.3093e-15
1.31121e-15
1.31307e-15
1.31484e-15
1.31653e-15
1.31805e-15
1.30506e-15
1.30699e-15
1.30885e-15
1.31063e-15
1.3123e-15
1.31384e-15
1.30077e-15
1.30271e-15
1.30458e-15
1.30636e-15
1.30804e-15
1.3096e-15
1.31118e-15
1.29644e-15
1.29839e-15
1.30027e-15
1.30206e-15
1.30375e-15
1.30533e-15
1.30689e-15
1.30862e-15
1.29205e-15
1.29401e-15
1.2959e-15
1.2977e-15
1.29941e-15
1.30101e-15
1.30259e-15
1.30427e-15
1.30607e-15
1.28761e-15
1.28958e-15
1.29149e-15
1.29331e-15
1.29503e-15
1.29666e-15
1.29825e-15
1.29991e-15
1.30167e-15
1.30356e-15
1.28312e-15
1.28511e-15
1.28703e-15
1.28886e-15
1.2906e-15
1.29226e-15
1.29388e-15
1.29554e-15
1.29727e-15
1.29912e-15
1.27858e-15
1.28059e-15
1.28253e-15
1.28437e-15
1.28614e-15
1.28782e-15
1.28947e-15
1.29113e-15
1.29285e-15
1.29467e-15
1.274e-15
1.27603e-15
1.27798e-15
1.27984e-15
1.28163e-15
1.28334e-15
1.28501e-15
1.28668e-15
1.2884e-15
1.29019e-15
1.26938e-15
1.27142e-15
1.27339e-15
1.27527e-15
1.27707e-15
1.27881e-15
1.2805e-15
1.28219e-15
1.2839e-15
1.28567e-15
1.26471e-15
1.26676e-15
1.26875e-15
1.27065e-15
1.27247e-15
1.27423e-15
1.27594e-15
1.27764e-15
1.27936e-15
1.28111e-15
1.25997e-15
1.26205e-15
1.26405e-15
1.26597e-15
1.26782e-15
1.26959e-15
1.27132e-15
1.27304e-15
1.27475e-15
1.27649e-15
1.25517e-15
1.25726e-15
1.25928e-15
1.26122e-15
1.26308e-15
1.26488e-15
1.26663e-15
1.26835e-15
1.27007e-15
1.27179e-15
1.25026e-15
1.25238e-15
1.25441e-15
1.25637e-15
1.25825e-15
1.26007e-15
1.26184e-15
1.26357e-15
1.26529e-15
1.267e-15
1.24523e-15
1.24737e-15
1.24942e-15
1.2514e-15
1.2533e-15
1.25513e-15
1.25692e-15
1.25866e-15
1.26039e-15
1.26209e-15
1.24007e-15
1.24222e-15
1.2443e-15
1.24629e-15
1.24821e-15
1.25006e-15
1.25186e-15
1.25362e-15
1.25534e-15
1.25704e-15
1.2348e-15
1.23697e-15
1.23906e-15
1.24107e-15
1.24301e-15
1.24488e-15
1.24669e-15
1.24846e-15
1.25018e-15
1.25188e-15
1.22947e-15
1.23165e-15
1.23375e-15
1.23578e-15
1.23774e-15
1.23962e-15
1.24145e-15
1.24322e-15
1.24496e-15
1.24665e-15
1.36409e-15
1.36038e-15
1.35667e-15
1.35295e-15
1.34919e-15
1.3454e-15
1.34158e-15
1.33771e-15
1.3338e-15
1.32985e-15
1.32585e-15
1.3218e-15
1.31771e-15
1.31357e-15
1.30938e-15
1.30515e-15
1.30086e-15
1.29652e-15
1.29214e-15
1.2877e-15
1.28321e-15
1.27867e-15
1.27409e-15
1.26946e-15
1.26478e-15
1.26005e-15
1.25525e-15
1.25036e-15
1.24535e-15
1.24021e-15
1.23497e-15
1.22965e-15
1.36605e-15
1.36233e-15
1.35862e-15
1.3549e-15
1.35115e-15
1.34738e-15
1.34356e-15
1.3397e-15
1.33581e-15
1.33186e-15
1.32788e-15
1.32385e-15
1.31977e-15
1.31565e-15
1.31147e-15
1.30725e-15
1.30298e-15
1.29866e-15
1.29429e-15
1.28987e-15
1.2854e-15
1.28088e-15
1.2763e-15
1.27169e-15
1.26702e-15
1.2623e-15
1.25753e-15
1.25269e-15
1.24776e-15
1.24273e-15
1.23758e-15
1.23232e-15
1.227e-15
1.36797e-15
1.36426e-15
1.36055e-15
1.35683e-15
1.35309e-15
1.34932e-15
1.34551e-15
1.34166e-15
1.33777e-15
1.33384e-15
1.32987e-15
1.32585e-15
1.32178e-15
1.31767e-15
1.31351e-15
1.3093e-15
1.30504e-15
1.30074e-15
1.29638e-15
1.29198e-15
1.28752e-15
1.28301e-15
1.27846e-15
1.27385e-15
1.26919e-15
1.26449e-15
1.25974e-15
1.25493e-15
1.25007e-15
1.24513e-15
1.24012e-15
1.23504e-15
1.22986e-15
1.22459e-15
1.21923e-15
1.21378e-15
1.20825e-15
1.20269e-15
1.36984e-15
1.36614e-15
1.36244e-15
1.35873e-15
1.35499e-15
1.35122e-15
1.34742e-15
1.34358e-15
1.3397e-15
1.33577e-15
1.3318e-15
1.32779e-15
1.32373e-15
1.31963e-15
1.31548e-15
1.31128e-15
1.30704e-15
1.30274e-15
1.2984e-15
1.29401e-15
1.28956e-15
1.28507e-15
1.28052e-15
1.27593e-15
1.27128e-15
1.26659e-15
1.26184e-15
1.25705e-15
1.25221e-15
1.24731e-15
1.24236e-15
1.23733e-15
1.23223e-15
1.22701e-15
1.22167e-15
1.2162e-15
1.21064e-15
1.20501e-15
1.37166e-15
1.36797e-15
1.36428e-15
1.36057e-15
1.35684e-15
1.35308e-15
1.34928e-15
1.34544e-15
1.34156e-15
1.33765e-15
1.33368e-15
1.32968e-15
1.32563e-15
1.32153e-15
1.31739e-15
1.3132e-15
1.30896e-15
1.30467e-15
1.30034e-15
1.29596e-15
1.29152e-15
1.28704e-15
1.28251e-15
1.27792e-15
1.27328e-15
1.2686e-15
1.26386e-15
1.25907e-15
1.25424e-15
1.24936e-15
1.24442e-15
1.23943e-15
1.23436e-15
1.22919e-15
1.2239e-15
1.21846e-15
1.2129e-15
1.20727e-15
1.37343e-15
1.36974e-15
1.36606e-15
1.36236e-15
1.35863e-15
1.35487e-15
1.35107e-15
1.34724e-15
1.34337e-15
1.33945e-15
1.3355e-15
1.3315e-15
1.32745e-15
1.32336e-15
1.31922e-15
1.31504e-15
1.31081e-15
1.30653e-15
1.3022e-15
1.29783e-15
1.2934e-15
1.28893e-15
1.2844e-15
1.27983e-15
1.2752e-15
1.27052e-15
1.26578e-15
1.261e-15
1.25618e-15
1.2513e-15
1.24638e-15
1.24141e-15
1.23637e-15
1.23124e-15
1.226e-15
1.22063e-15
1.21512e-15
1.2095e-15
1.20383e-15
1.37514e-15
1.37146e-15
1.36777e-15
1.36407e-15
1.36035e-15
1.35659e-15
1.3528e-15
1.34897e-15
1.3451e-15
1.34119e-15
1.33724e-15
1.33324e-15
1.3292e-15
1.32512e-15
1.32098e-15
1.31681e-15
1.31258e-15
1.30831e-15
1.30399e-15
1.29962e-15
1.2952e-15
1.29073e-15
1.28621e-15
1.28164e-15
1.27702e-15
1.27235e-15
1.26762e-15
1.26285e-15
1.25802e-15
1.25315e-15
1.24824e-15
1.24328e-15
1.23825e-15
1.23314e-15
1.22792e-15
1.22258e-15
1.21709e-15
1.21149e-15
1.20583e-15
1.37679e-15
1.3731e-15
1.36942e-15
1.36572e-15
1.362e-15
1.35824e-15
1.35445e-15
1.35062e-15
1.34676e-15
1.34285e-15
1.3389e-15
1.33491e-15
1.33087e-15
1.32679e-15
1.32266e-15
1.31849e-15
1.31427e-15
1.31e-15
1.30568e-15
1.30132e-15
1.29691e-15
1.29244e-15
1.28793e-15
1.28337e-15
1.27875e-15
1.27408e-15
1.26936e-15
1.26459e-15
1.25978e-15
1.25491e-15
1.25001e-15
1.24505e-15
1.24003e-15
1.23493e-15
1.22972e-15
1.22439e-15
1.21892e-15
1.21334e-15
1.20769e-15
1.37837e-15
1.37468e-15
1.37099e-15
1.36729e-15
1.36357e-15
1.35981e-15
1.35602e-15
1.35219e-15
1.34833e-15
1.34442e-15
1.34048e-15
1.33649e-15
1.33246e-15
1.32838e-15
1.32425e-15
1.32008e-15
1.31587e-15
1.3116e-15
1.30729e-15
1.30293e-15
1.29852e-15
1.29407e-15
1.28956e-15
1.285e-15
1.28039e-15
1.27573e-15
1.27101e-15
1.26625e-15
1.26144e-15
1.25658e-15
1.25168e-15
1.24672e-15
1.24171e-15
1.23662e-15
1.23142e-15
1.2261e-15
1.22064e-15
1.21507e-15
1.20943e-15
1.37989e-15
1.37619e-15
1.37249e-15
1.36878e-15
1.36505e-15
1.36129e-15
1.3575e-15
1.35367e-15
1.34981e-15
1.34591e-15
1.34197e-15
1.33798e-15
1.33395e-15
1.32988e-15
1.32576e-15
1.32159e-15
1.31738e-15
1.31312e-15
1.30881e-15
1.30446e-15
1.30005e-15
1.2956e-15
1.2911e-15
1.28654e-15
1.28194e-15
1.27728e-15
1.27257e-15
1.26781e-15
1.26301e-15
1.25815e-15
1.25326e-15
1.24831e-15
1.2433e-15
1.23821e-15
1.23302e-15
1.22771e-15
1.22226e-15
1.21669e-15
1.21106e-15
1.38132e-15
1.3776e-15
1.37389e-15
1.37017e-15
1.36643e-15
1.36267e-15
1.35888e-15
1.35506e-15
1.3512e-15
1.3473e-15
1.34336e-15
1.33938e-15
1.33535e-15
1.33128e-15
1.32717e-15
1.323e-15
1.3188e-15
1.31454e-15
1.31024e-15
1.30589e-15
1.30149e-15
1.29704e-15
1.29254e-15
1.28799e-15
1.28339e-15
1.27874e-15
1.27404e-15
1.26928e-15
1.26448e-15
1.25963e-15
1.25474e-15
1.2498e-15
1.24479e-15
1.23971e-15
1.23453e-15
1.22922e-15
1.22378e-15
1.21822e-15
1.21259e-15
1.37889e-15
1.37516e-15
1.37144e-15
1.36771e-15
1.36395e-15
1.36017e-15
1.35635e-15
1.35249e-15
1.3486e-15
1.34466e-15
1.34068e-15
1.33666e-15
1.33259e-15
1.32848e-15
1.32432e-15
1.32012e-15
1.31587e-15
1.31157e-15
1.30722e-15
1.30283e-15
1.29838e-15
1.29389e-15
1.28935e-15
1.28475e-15
1.2801e-15
1.2754e-15
1.27065e-15
1.26586e-15
1.26101e-15
1.25613e-15
1.25119e-15
1.24619e-15
1.24112e-15
1.23594e-15
1.23064e-15
1.2252e-15
1.21965e-15
1.21403e-15
1.37637e-15
1.37263e-15
1.36889e-15
1.36514e-15
1.36136e-15
1.35754e-15
1.35369e-15
1.3498e-15
1.34586e-15
1.34189e-15
1.33787e-15
1.33381e-15
1.3297e-15
1.32555e-15
1.32135e-15
1.3171e-15
1.31281e-15
1.30846e-15
1.30407e-15
1.29963e-15
1.29514e-15
1.2906e-15
1.28601e-15
1.28137e-15
1.27668e-15
1.27193e-15
1.26714e-15
1.2623e-15
1.25742e-15
1.25248e-15
1.24749e-15
1.24243e-15
1.23726e-15
1.23196e-15
1.22653e-15
1.22098e-15
1.21537e-15
1.37758e-15
1.3738e-15
1.37003e-15
1.36626e-15
1.36247e-15
1.35865e-15
1.35479e-15
1.3509e-15
1.34697e-15
1.343e-15
1.33899e-15
1.33493e-15
1.33083e-15
1.32668e-15
1.32248e-15
1.31824e-15
1.31395e-15
1.30961e-15
1.30522e-15
1.30079e-15
1.2963e-15
1.29177e-15
1.28718e-15
1.28254e-15
1.27785e-15
1.27311e-15
1.26832e-15
1.26349e-15
1.25861e-15
1.25368e-15
1.2487e-15
1.24364e-15
1.23847e-15
1.23318e-15
1.22776e-15
1.22221e-15
1.2166e-15
1.37485e-15
1.37107e-15
1.36728e-15
1.36348e-15
1.35966e-15
1.35581e-15
1.35192e-15
1.34799e-15
1.34402e-15
1.34001e-15
1.33596e-15
1.33186e-15
1.32771e-15
1.32352e-15
1.31928e-15
1.31499e-15
1.31066e-15
1.30628e-15
1.30185e-15
1.29737e-15
1.29283e-15
1.28825e-15
1.28362e-15
1.27893e-15
1.27419e-15
1.26941e-15
1.26458e-15
1.2597e-15
1.25478e-15
1.2498e-15
1.24475e-15
1.23959e-15
1.2343e-15
1.22888e-15
1.22335e-15
1.21774e-15
1.37589e-15
1.37206e-15
1.36825e-15
1.36443e-15
1.36059e-15
1.35673e-15
1.35284e-15
1.34892e-15
1.34495e-15
1.34094e-15
1.33689e-15
1.33279e-15
1.32865e-15
1.32446e-15
1.32023e-15
1.31595e-15
1.31162e-15
1.30724e-15
1.30281e-15
1.29833e-15
1.2938e-15
1.28922e-15
1.28459e-15
1.27991e-15
1.27518e-15
1.2704e-15
1.26557e-15
1.2607e-15
1.25578e-15
1.25081e-15
1.24576e-15
1.2406e-15
1.23533e-15
1.22991e-15
1.22438e-15
1.21878e-15
1.37292e-15
1.36909e-15
1.36526e-15
1.36142e-15
1.35757e-15
1.35368e-15
1.34975e-15
1.34579e-15
1.34178e-15
1.33773e-15
1.33364e-15
1.3295e-15
1.32531e-15
1.32108e-15
1.3168e-15
1.31247e-15
1.3081e-15
1.30367e-15
1.2992e-15
1.29468e-15
1.2901e-15
1.28547e-15
1.28079e-15
1.27606e-15
1.27129e-15
1.26646e-15
1.2616e-15
1.25668e-15
1.25171e-15
1.24667e-15
1.24152e-15
1.23625e-15
1.23083e-15
1.22531e-15
1.21971e-15
1.36985e-15
1.366e-15
1.36217e-15
1.35831e-15
1.35442e-15
1.3505e-15
1.34654e-15
1.34253e-15
1.33849e-15
1.33439e-15
1.33026e-15
1.32607e-15
1.32184e-15
1.31756e-15
1.31324e-15
1.30887e-15
1.30444e-15
1.29997e-15
1.29545e-15
1.29088e-15
1.28625e-15
1.28158e-15
1.27685e-15
1.27208e-15
1.26726e-15
1.26239e-15
1.25748e-15
1.25252e-15
1.24747e-15
1.24233e-15
1.23706e-15
1.23166e-15
1.22613e-15
1.22054e-15
1.3706e-15
1.36673e-15
1.36287e-15
1.359e-15
1.3551e-15
1.35117e-15
1.3472e-15
1.3432e-15
1.33915e-15
1.33506e-15
1.33092e-15
1.32674e-15
1.32251e-15
1.31823e-15
1.31391e-15
1.30954e-15
1.30512e-15
1.30065e-15
1.29613e-15
1.29156e-15
1.28694e-15
1.28227e-15
1.27754e-15
1.27277e-15
1.26795e-15
1.26309e-15
1.25819e-15
1.25322e-15
1.24818e-15
1.24304e-15
1.23778e-15
1.23238e-15
1.22686e-15
1.22127e-15
1.37126e-15
1.36738e-15
1.3635e-15
1.35961e-15
1.3557e-15
1.35176e-15
1.34778e-15
1.34377e-15
1.33972e-15
1.33563e-15
1.33149e-15
1.32731e-15
1.32308e-15
1.31881e-15
1.31448e-15
1.31011e-15
1.3057e-15
1.30123e-15
1.29671e-15
1.29214e-15
1.28753e-15
1.28285e-15
1.27813e-15
1.27336e-15
1.26855e-15
1.26369e-15
1.25879e-15
1.25383e-15
1.24879e-15
1.24366e-15
1.2384e-15
1.233e-15
1.22748e-15
1.22189e-15
1.37182e-15
1.36791e-15
1.36402e-15
1.36011e-15
1.35619e-15
1.35225e-15
1.34827e-15
1.34425e-15
1.3402e-15
1.3361e-15
1.33197e-15
1.32778e-15
1.32356e-15
1.31928e-15
1.31496e-15
1.31059e-15
1.30618e-15
1.30171e-15
1.2972e-15
1.29263e-15
1.28801e-15
1.28334e-15
1.27863e-15
1.27386e-15
1.26905e-15
1.26419e-15
1.25929e-15
1.25433e-15
1.2493e-15
1.24417e-15
1.23891e-15
1.23351e-15
1.228e-15
1.22241e-15
1.3683e-15
1.3644e-15
1.36049e-15
1.35657e-15
1.35263e-15
1.34865e-15
1.34463e-15
1.34058e-15
1.33648e-15
1.33234e-15
1.32816e-15
1.32393e-15
1.31966e-15
1.31534e-15
1.31098e-15
1.30656e-15
1.3021e-15
1.29758e-15
1.29302e-15
1.2884e-15
1.28374e-15
1.27902e-15
1.27425e-15
1.26944e-15
1.26459e-15
1.25969e-15
1.25473e-15
1.2497e-15
1.24457e-15
1.23932e-15
1.23393e-15
1.22841e-15
1.22283e-15
1.36866e-15
1.36472e-15
1.3608e-15
1.35686e-15
1.35291e-15
1.34892e-15
1.34491e-15
1.34085e-15
1.33676e-15
1.33262e-15
1.32844e-15
1.32421e-15
1.31994e-15
1.31563e-15
1.31126e-15
1.30685e-15
1.30239e-15
1.29787e-15
1.29331e-15
1.2887e-15
1.28403e-15
1.27931e-15
1.27455e-15
1.26974e-15
1.26489e-15
1.25999e-15
1.25504e-15
1.25001e-15
1.24488e-15
1.23963e-15
1.23424e-15
1.22873e-15
1.22314e-15
1.36491e-15
1.36097e-15
1.35703e-15
1.35308e-15
1.3491e-15
1.34508e-15
1.34103e-15
1.33694e-15
1.3328e-15
1.32862e-15
1.3244e-15
1.32013e-15
1.31581e-15
1.31145e-15
1.30704e-15
1.30258e-15
1.29807e-15
1.2935e-15
1.28889e-15
1.28423e-15
1.27951e-15
1.27475e-15
1.26994e-15
1.26509e-15
1.26019e-15
1.25524e-15
1.25021e-15
1.24509e-15
1.23984e-15
1.23444e-15
1.22893e-15
1.22336e-15
1.36507e-15
1.3611e-15
1.35714e-15
1.35317e-15
1.34918e-15
1.34516e-15
1.34111e-15
1.33702e-15
1.33288e-15
1.32871e-15
1.32449e-15
1.32022e-15
1.3159e-15
1.31154e-15
1.30713e-15
1.30267e-15
1.29816e-15
1.2936e-15
1.28899e-15
1.28433e-15
1.27961e-15
1.27485e-15
1.27004e-15
1.26519e-15
1.26029e-15
1.25534e-15
1.25032e-15
1.24519e-15
1.23994e-15
1.23455e-15
1.22904e-15
1.22346e-15
1.36108e-15
1.35711e-15
1.35314e-15
1.34916e-15
1.34515e-15
1.3411e-15
1.33701e-15
1.33288e-15
1.3287e-15
1.32448e-15
1.32021e-15
1.3159e-15
1.31154e-15
1.30713e-15
1.30267e-15
1.29816e-15
1.2936e-15
1.28899e-15
1.28433e-15
1.27961e-15
1.27485e-15
1.27004e-15
1.26519e-15
1.2603e-15
1.25535e-15
1.25032e-15
1.2452e-15
1.23994e-15
1.23455e-15
1.22905e-15
1.22347e-15
1.36105e-15
1.35705e-15
1.35307e-15
1.34908e-15
1.34506e-15
1.34101e-15
1.33692e-15
1.33278e-15
1.32861e-15
1.32439e-15
1.32012e-15
1.31581e-15
1.31145e-15
1.30704e-15
1.30258e-15
1.29807e-15
1.29351e-15
1.2889e-15
1.28423e-15
1.27952e-15
1.27476e-15
1.26995e-15
1.2651e-15
1.2602e-15
1.25525e-15
1.25022e-15
1.2451e-15
1.23985e-15
1.23446e-15
1.22895e-15
1.22337e-15
1.36091e-15
1.35691e-15
1.35292e-15
1.34892e-15
1.34489e-15
1.34083e-15
1.33674e-15
1.33261e-15
1.32843e-15
1.32421e-15
1.31994e-15
1.31562e-15
1.31126e-15
1.30685e-15
1.30239e-15
1.29788e-15
1.29332e-15
1.28871e-15
1.28404e-15
1.27933e-15
1.27457e-15
1.26976e-15
1.26491e-15
1.26001e-15
1.25506e-15
1.25003e-15
1.2449e-15
1.23965e-15
1.23426e-15
1.22875e-15
1.22317e-15
1.36067e-15
1.35667e-15
1.35267e-15
1.34867e-15
1.34464e-15
1.34057e-15
1.33648e-15
1.33234e-15
1.32816e-15
1.32393e-15
1.31966e-15
1.31535e-15
1.31098e-15
1.30657e-15
1.30211e-15
1.2976e-15
1.29304e-15
1.28842e-15
1.28376e-15
1.27904e-15
1.27428e-15
1.26947e-15
1.26462e-15
1.25972e-15
1.25476e-15
1.24973e-15
1.24461e-15
1.23935e-15
1.23396e-15
1.22845e-15
1.22286e-15
1.36033e-15
1.35632e-15
1.35233e-15
1.34832e-15
1.34429e-15
1.34022e-15
1.33612e-15
1.33198e-15
1.3278e-15
1.32357e-15
1.3193e-15
1.31498e-15
1.31061e-15
1.3062e-15
1.30174e-15
1.29722e-15
1.29266e-15
1.28804e-15
1.28338e-15
1.27866e-15
1.27389e-15
1.26908e-15
1.26423e-15
1.25933e-15
1.25437e-15
1.24934e-15
1.24421e-15
1.23895e-15
1.23356e-15
1.22804e-15
1.22246e-15
1.35989e-15
1.35588e-15
1.35188e-15
1.34787e-15
1.34384e-15
1.33977e-15
1.33567e-15
1.33153e-15
1.32734e-15
1.32311e-15
1.31884e-15
1.31452e-15
1.31015e-15
1.30573e-15
1.30127e-15
1.29675e-15
1.29219e-15
1.28757e-15
1.2829e-15
1.27818e-15
1.27341e-15
1.2686e-15
1.26374e-15
1.25884e-15
1.25388e-15
1.24885e-15
1.24371e-15
1.23845e-15
1.23306e-15
1.22754e-15
1.22195e-15
1.35935e-15
1.35534e-15
1.35134e-15
1.34733e-15
1.3433e-15
1.33923e-15
1.33513e-15
1.33098e-15
1.32679e-15
1.32256e-15
1.31829e-15
1.31396e-15
1.30959e-15
1.30517e-15
1.30071e-15
1.29619e-15
1.29162e-15
1.287e-15
1.28233e-15
1.27761e-15
1.27284e-15
1.26802e-15
1.26316e-15
1.25826e-15
1.25329e-15
1.24826e-15
1.24312e-15
1.23786e-15
1.23246e-15
1.22694e-15
1.22135e-15
1.35871e-15
1.35471e-15
1.35071e-15
1.3467e-15
1.34266e-15
1.33859e-15
1.33449e-15
1.33034e-15
1.32615e-15
1.32192e-15
1.31764e-15
1.31331e-15
1.30894e-15
1.30452e-15
1.30005e-15
1.29553e-15
1.29096e-15
1.28634e-15
1.28166e-15
1.27694e-15
1.27217e-15
1.26735e-15
1.26249e-15
1.25758e-15
1.25261e-15
1.24757e-15
1.24243e-15
1.23716e-15
1.23176e-15
1.22623e-15
1.22064e-15
1.35798e-15
1.35398e-15
1.34998e-15
1.34597e-15
1.34193e-15
1.33786e-15
1.33376e-15
1.32961e-15
1.32542e-15
1.32118e-15
1.3169e-15
1.31257e-15
1.3082e-15
1.30377e-15
1.2993e-15
1.29478e-15
1.29021e-15
1.28558e-15
1.2809e-15
1.27618e-15
1.2714e-15
1.26658e-15
1.26171e-15
1.2568e-15
1.25183e-15
1.24679e-15
1.24164e-15
1.23637e-15
1.23096e-15
1.22543e-15
1.21984e-15
1.35716e-15
1.35316e-15
1.34916e-15
1.34515e-15
1.34111e-15
1.33704e-15
1.33293e-15
1.32878e-15
1.32459e-15
1.32035e-15
1.31607e-15
1.31174e-15
1.30736e-15
1.30294e-15
1.29846e-15
1.29394e-15
1.28936e-15
1.28473e-15
1.28005e-15
1.27532e-15
1.27054e-15
1.26572e-15
1.26085e-15
1.25593e-15
1.25096e-15
1.24591e-15
1.24076e-15
1.23548e-15
1.23007e-15
1.22454e-15
1.21894e-15
1.35625e-15
1.35225e-15
1.34825e-15
1.34424e-15
1.3402e-15
1.33613e-15
1.33202e-15
1.32787e-15
1.32367e-15
1.31943e-15
1.31515e-15
1.31081e-15
1.30643e-15
1.30201e-15
1.29753e-15
1.293e-15
1.28842e-15
1.28379e-15
1.27911e-15
1.27437e-15
1.26959e-15
1.26476e-15
1.25989e-15
1.25497e-15
1.24999e-15
1.24494e-15
1.23978e-15
1.2345e-15
1.22908e-15