/*--------------------------------*- C++ -*----------------------------------*\
  =========                 |
  \\      /  F ield         | OpenFOAM: The Open Source CFD Toolbox
   \\    /   O peration     | Website:  https://openfoam.org
    \\  /    A nd           | Version:  7
     \\/     M anipulation  |
\*---------------------------------------------------------------------------*/
FoamFile
{
    version     2.0;
    format      ascii;
    class       volVectorField;
    location    "4000";
    object      vorticity;
}
// * * * * * * * * * * * * * * * * * * * * * * * * * * * * * * * * * * * * * //

dimensions      [0 0 -1 0 0 0 0];

internalField   nonuniform List<vector> 
4844
(
(6.05154e-05 -2.5554e-05 1.06379e-19)
(5.98449e-05 -2.75825e-05 -1.49458e-18)
(5.9096e-05 -2.96868e-05 -5.94736e-19)
(6.08551e-05 -2.55917e-05 7.18418e-19)
(6.00913e-05 -2.76111e-05 -8.11427e-20)
(5.92452e-05 -2.97273e-05 -1.4487e-19)
(5.8466e-05 -3.17713e-05 -3.25149e-19)
(5.75775e-05 -3.36692e-05 -7.56248e-19)
(5.66494e-05 -3.54668e-05 -1.0373e-18)
(5.57334e-05 -3.7132e-05 -1.10163e-18)
(5.50337e-05 -3.87534e-05 -9.71042e-19)
(6.12789e-05 -2.56114e-05 4.62899e-19)
(6.04344e-05 -2.7623e-05 -6.93167e-19)
(5.94992e-05 -2.974e-05 -5.47514e-19)
(5.85505e-05 -3.17511e-05 -5.89473e-19)
(5.76137e-05 -3.36269e-05 -9.21162e-19)
(5.66558e-05 -3.54169e-05 -1.22352e-18)
(5.57395e-05 -3.71453e-05 -1.27326e-18)
(5.50148e-05 -3.88983e-05 -1.06955e-18)
(5.4619e-05 -4.06083e-05 -1.01605e-18)
(5.41964e-05 -4.21369e-05 -9.89981e-19)
(5.38926e-05 -4.36456e-05 -8.63512e-19)
(6.1807e-05 -2.56523e-05 2.95826e-19)
(6.08471e-05 -2.76314e-05 -1.07544e-18)
(5.98521e-05 -2.97366e-05 -8.38435e-19)
(5.88057e-05 -3.17347e-05 -8.081e-19)
(5.78375e-05 -3.36307e-05 -1.00154e-18)
(5.68912e-05 -3.54623e-05 -1.31999e-18)
(5.60545e-05 -3.72942e-05 -1.36261e-18)
(5.53011e-05 -3.91372e-05 -1.06694e-18)
(5.4694e-05 -4.08202e-05 -1.09344e-18)
(5.42409e-05 -4.23793e-05 -1.04604e-18)
(5.38961e-05 -4.39784e-05 -9.15331e-19)
(5.38401e-05 -4.55661e-05 -7.65116e-19)
(5.37134e-05 -4.69655e-05 -8.92908e-19)
(5.35558e-05 -4.82853e-05 -9.81588e-19)
(5.33798e-05 -4.94607e-05 -7.51525e-19)
(5.80067e-05 -4.54808e-05 -7.25764e-19)
(6.24181e-05 -2.57426e-05 1.66571e-19)
(6.14443e-05 -2.76437e-05 -1.23031e-18)
(6.03555e-05 -2.97625e-05 -9.23965e-19)
(5.92955e-05 -3.17949e-05 -8.95993e-19)
(5.83445e-05 -3.37499e-05 -1.03114e-18)
(5.74637e-05 -3.56751e-05 -1.34034e-18)
(5.66833e-05 -3.7601e-05 -1.3648e-18)
(5.59308e-05 -3.94721e-05 -1.05808e-18)
(5.51739e-05 -4.11477e-05 -1.11516e-18)
(5.46458e-05 -4.27645e-05 -1.03183e-18)
(5.41958e-05 -4.43988e-05 -9.1628e-19)
(5.38801e-05 -4.58938e-05 -8.10395e-19)
(5.36815e-05 -4.72378e-05 -9.56133e-19)
(5.34749e-05 -4.85037e-05 -1.04072e-18)
(5.32568e-05 -4.95866e-05 -8.89933e-19)
(5.77613e-05 -4.56398e-05 -9.24998e-19)
(6.31714e-05 -2.5917e-05 1.36509e-19)
(6.22507e-05 -2.77149e-05 -1.05486e-18)
(6.11277e-05 -2.98517e-05 -8.25724e-19)
(6.00608e-05 -3.19559e-05 -8.75371e-19)
(5.91259e-05 -3.39973e-05 -1.00814e-18)
(5.82872e-05 -3.601e-05 -1.35364e-18)
(5.75036e-05 -3.79885e-05 -1.34398e-18)
(5.67312e-05 -3.98757e-05 -1.05719e-18)
(5.59636e-05 -4.16048e-05 -1.06935e-18)
(5.53671e-05 -4.32791e-05 -9.69168e-19)
(5.48427e-05 -4.49102e-05 -9.05968e-19)
(5.43226e-05 -4.63382e-05 -8.14154e-19)
(5.40084e-05 -4.76669e-05 -9.42225e-19)
(5.37373e-05 -4.88892e-05 -1.01143e-18)
(5.3492e-05 -4.99191e-05 -8.85034e-19)
(5.79416e-05 -4.60777e-05 -8.83616e-19)
(6.31634e-05 -2.78172e-05 -7.34783e-19)
(6.2074e-05 -3.00083e-05 -6.37265e-19)
(6.10271e-05 -3.21956e-05 -8.04031e-19)
(6.00944e-05 -3.4323e-05 -9.57004e-19)
(5.92503e-05 -3.64042e-05 -1.32162e-18)
(5.84455e-05 -3.84234e-05 -1.28738e-18)
(5.76544e-05 -4.03387e-05 -1.07e-18)
(5.68947e-05 -4.21301e-05 -1.01645e-18)
(5.62466e-05 -4.38507e-05 -8.93695e-19)
(5.56557e-05 -4.54782e-05 -8.94159e-19)
(5.50836e-05 -4.69219e-05 -7.96076e-19)
(5.46797e-05 -4.82587e-05 -8.70688e-19)
(5.43529e-05 -4.94654e-05 -9.06172e-19)
(5.4095e-05 -5.04942e-05 -8.14954e-19)
(5.85203e-05 -4.68e-05 -7.71589e-19)
(6.41075e-05 -2.79556e-05 -4.17536e-19)
(6.30865e-05 -3.02112e-05 -4.53092e-19)
(6.20839e-05 -3.24854e-05 -7.37819e-19)
(6.11593e-05 -3.46928e-05 -9.27988e-19)
(6.03013e-05 -3.68341e-05 -1.282e-18)
(5.94755e-05 -3.88947e-05 -1.24308e-18)
(5.86709e-05 -4.08499e-05 -1.07885e-18)
(5.79102e-05 -4.26984e-05 -9.62398e-19)
(5.72232e-05 -4.44579e-05 -8.14446e-19)
(5.65854e-05 -4.60985e-05 -8.46423e-19)
(5.59964e-05 -4.75801e-05 -7.82547e-19)
(5.55351e-05 -4.89397e-05 -8.4806e-19)
(5.51699e-05 -5.01591e-05 -7.9499e-19)
(5.4909e-05 -5.12276e-05 -7.71631e-19)
(5.93125e-05 -4.76896e-05 -8.56319e-19)
(6.50472e-05 -2.8156e-05 -1.50415e-19)
(6.41368e-05 -3.04633e-05 -3.0301e-19)
(6.31921e-05 -3.28166e-05 -6.95639e-19)
(6.22832e-05 -3.5095e-05 -9.01129e-19)
(6.14159e-05 -3.72924e-05 -1.23472e-18)
(6.05751e-05 -3.93981e-05 -1.21097e-18)
(5.97602e-05 -4.13999e-05 -1.04732e-18)
(5.899e-05 -4.33e-05 -9.12123e-19)
(5.82736e-05 -4.50971e-05 -7.69794e-19)
(5.76051e-05 -4.67658e-05 -7.94942e-19)
(5.7003e-05 -4.82908e-05 -7.13145e-19)
(5.65067e-05 -4.96848e-05 -8.17147e-19)
(5.6118e-05 -5.09404e-05 -7.14688e-19)
(5.58569e-05 -5.20742e-05 -8.07808e-19)
(6.023e-05 -4.8685e-05 -1.00653e-18)
(6.66955e-05 -2.66642e-05 3.589e-19)
(6.60418e-05 -2.83842e-05 5.09297e-20)
(6.52333e-05 -3.07699e-05 -2.16559e-19)
(6.43433e-05 -3.31865e-05 -6.7228e-19)
(6.34532e-05 -3.55262e-05 -8.42525e-19)
(6.25829e-05 -3.77772e-05 -1.18359e-18)
(6.17329e-05 -3.99313e-05 -1.19877e-18)
(6.09095e-05 -4.19828e-05 -9.97055e-19)
(6.01261e-05 -4.39314e-05 -8.51718e-19)
(5.93872e-05 -4.57684e-05 -7.4795e-19)
(5.86983e-05 -4.74756e-05 -7.31169e-19)
(5.80823e-05 -4.90466e-05 -6.07146e-19)
(5.75641e-05 -5.04852e-05 -7.499e-19)
(5.71612e-05 -5.17945e-05 -6.51654e-19)
(5.68976e-05 -5.30065e-05 -8.48656e-19)
(6.12306e-05 -4.97538e-05 -1.07462e-18)
(6.77847e-05 -2.67789e-05 4.57361e-19)
(6.71511e-05 -2.86794e-05 1.69135e-19)
(6.63904e-05 -3.11263e-05 -1.65736e-19)
(6.55387e-05 -3.35909e-05 -6.59214e-19)
(6.46657e-05 -3.5985e-05 -7.79224e-19)
(6.37968e-05 -3.82884e-05 -1.13272e-18)
(6.29418e-05 -4.0493e-05 -1.16164e-18)
(6.21108e-05 -4.25953e-05 -9.14747e-19)
(6.13142e-05 -4.45918e-05 -8.00039e-19)
(6.05582e-05 -4.64725e-05 -7.51852e-19)
(5.98541e-05 -4.82248e-05 -6.75851e-19)
(5.92248e-05 -4.98455e-05 -5.15381e-19)
(5.86917e-05 -5.13373e-05 -6.5235e-19)
(5.82785e-05 -5.27118e-05 -5.95273e-19)
(5.80082e-05 -5.4007e-05 -8.38065e-19)
(6.22943e-05 -5.08786e-05 -1.03015e-18)
(6.91009e-05 -2.68851e-05 5.25547e-19)
(6.83759e-05 -2.90189e-05 2.06313e-19)
(6.76094e-05 -3.15134e-05 -1.59393e-19)
(6.67791e-05 -3.40247e-05 -6.14905e-19)
(6.59199e-05 -3.64704e-05 -6.79432e-19)
(6.50547e-05 -3.88257e-05 -1.07745e-18)
(6.41974e-05 -4.10821e-05 -1.11772e-18)
(6.33597e-05 -4.32357e-05 -8.37448e-19)
(6.25516e-05 -4.52814e-05 -7.68795e-19)
(6.1782e-05 -4.72095e-05 -7.47774e-19)
(6.10658e-05 -4.90117e-05 -6.22492e-19)
(6.04245e-05 -5.06864e-05 -4.43259e-19)
(5.988e-05 -5.22386e-05 -5.64706e-19)
(5.94572e-05 -5.3685e-05 -5.30303e-19)
(5.91754e-05 -5.50639e-05 -7.79637e-19)
(6.34106e-05 -5.20499e-05 -9.38639e-19)
(7.04689e-05 -2.70233e-05 5.95918e-19)
(6.96543e-05 -2.93589e-05 2.43211e-19)
(6.88782e-05 -3.19219e-05 -1.80317e-19)
(6.80624e-05 -3.44846e-05 -5.74504e-19)
(6.72152e-05 -3.69817e-05 -5.80051e-19)
(6.6355e-05 -3.9389e-05 -1.01648e-18)
(6.54969e-05 -4.1698e-05 -1.0648e-18)
(6.46536e-05 -4.39038e-05 -7.6497e-19)
(6.3836e-05 -4.60003e-05 -7.68989e-19)
(6.30556e-05 -4.79794e-05 -7.59274e-19)
(6.2329e-05 -4.98355e-05 -5.62711e-19)
(6.16772e-05 -5.15687e-05 -3.85716e-19)
(6.11225e-05 -5.31866e-05 -5.14508e-19)
(6.0689e-05 -5.47084e-05 -4.80551e-19)
(6.03914e-05 -5.61698e-05 -6.93471e-19)
(6.45741e-05 -5.32623e-05 -8.05798e-19)
(7.28259e-05 -2.53546e-05 1.05975e-18)
(7.17193e-05 -2.71844e-05 6.48071e-19)
(7.09451e-05 -2.97141e-05 2.32589e-19)
(7.01848e-05 -3.23526e-05 -2.00991e-19)
(6.93858e-05 -3.49695e-05 -4.97764e-19)
(6.8551e-05 -3.75184e-05 -4.80606e-19)
(6.76968e-05 -3.99783e-05 -9.45573e-19)
(6.6839e-05 -4.23405e-05 -1.026e-18)
(6.59913e-05 -4.45995e-05 -7.0494e-19)
(6.51659e-05 -4.6749e-05 -7.4879e-19)
(6.43767e-05 -4.87824e-05 -8.04888e-19)
(6.36409e-05 -5.06959e-05 -5.37924e-19)
(6.29795e-05 -5.24915e-05 -3.48184e-19)
(6.24147e-05 -5.4179e-05 -4.84702e-19)
(6.19685e-05 -5.57779e-05 -4.35973e-19)
(6.16518e-05 -5.73197e-05 -6.13441e-19)
(6.57818e-05 -5.45126e-05 -6.77216e-19)
(7.35703e-05 -2.5302e-05 1.14708e-18)
(7.29116e-05 -2.74432e-05 6.38717e-19)
(7.22462e-05 -3.01054e-05 1.87426e-19)
(7.15252e-05 -3.28091e-05 -1.94333e-19)
(7.07483e-05 -3.54797e-05 -3.93657e-19)
(6.99272e-05 -3.80806e-05 -4.20349e-19)
(6.90797e-05 -4.05934e-05 -8.66298e-19)
(6.82231e-05 -4.30097e-05 -9.93042e-19)
(6.73721e-05 -4.53232e-05 -6.68237e-19)
(6.65404e-05 -4.75279e-05 -6.90945e-19)
(6.57435e-05 -4.96183e-05 -8.58677e-19)
(6.49994e-05 -5.15926e-05 -5.6687e-19)
(6.43287e-05 -5.3454e-05 -3.45737e-19)
(6.37532e-05 -5.52137e-05 -4.95317e-19)
(6.32923e-05 -5.68903e-05 -3.96611e-19)
(6.29541e-05 -5.85107e-05 -5.43578e-19)
(6.70319e-05 -5.57992e-05 -5.62841e-19)
(7.5706e-05 -2.36908e-05 9.62802e-19)
(7.45364e-05 -2.53852e-05 1.15699e-18)
(7.41433e-05 -2.78072e-05 5.84567e-19)
(7.3577e-05 -3.05362e-05 1.12491e-19)
(7.29025e-05 -3.32941e-05 -1.88375e-19)
(7.21508e-05 -3.6016e-05 -2.7415e-19)
(7.13442e-05 -3.86685e-05 -3.71331e-19)
(7.05042e-05 -4.12348e-05 -7.88128e-19)
(6.96494e-05 -4.37058e-05 -9.69913e-19)
(6.87959e-05 -4.60753e-05 -6.52089e-19)
(6.7959e-05 -4.83373e-05 -5.78803e-19)
(6.71552e-05 -5.04876e-05 -8.55119e-19)
(6.64032e-05 -5.25254e-05 -6.40544e-19)
(6.57232e-05 -5.44554e-05 -4.15741e-19)
(6.51358e-05 -5.62892e-05 -5.40563e-19)
(6.46584e-05 -5.80434e-05 -3.54154e-19)
(6.42971e-05 -5.9741e-05 -5.00397e-19)
(6.83238e-05 -5.71214e-05 -4.87787e-19)
(7.64642e-05 -2.36683e-05 9.9856e-19)
(7.57864e-05 -2.56515e-05 1.07915e-18)
(7.5459e-05 -2.82319e-05 5.25205e-19)
(7.49568e-05 -3.10042e-05 8.46645e-20)
(7.4323e-05 -3.38083e-05 -1.63375e-19)
(7.35956e-05 -3.65789e-05 -1.9678e-19)
(7.28035e-05 -3.92826e-05 -3.42959e-19)
(7.1971e-05 -4.19026e-05 -7.25191e-19)
(7.11183e-05 -4.44294e-05 -9.36379e-19)
(7.02629e-05 -4.68563e-05 -6.44567e-19)
(6.94215e-05 -4.91777e-05 -4.49739e-19)
(6.86114e-05 -5.13903e-05 -7.97533e-19)
(6.78515e-05 -5.34943e-05 -6.78415e-19)
(6.71617e-05 -5.54952e-05 -4.91641e-19)
(6.65613e-05 -5.74042e-05 -5.85453e-19)
(6.60659e-05 -5.92361e-05 -3.27696e-19)
(6.56801e-05 -6.10097e-05 -4.62671e-19)
(6.96571e-05 -5.84792e-05 -4.37232e-19)
(7.766e-05 -2.37793e-05 9.21708e-19)
(7.72114e-05 -2.60324e-05 9.82409e-19)
(7.68718e-05 -2.86932e-05 4.57432e-19)
(7.63982e-05 -3.15045e-05 1.05182e-19)
(7.57929e-05 -3.4351e-05 -1.12565e-19)
(7.50858e-05 -3.71685e-05 -1.39737e-19)
(7.43068e-05 -3.99231e-05 -3.1784e-19)
(7.34813e-05 -4.25973e-05 -6.93887e-19)
(7.26308e-05 -4.51809e-05 -8.79473e-19)
(7.17739e-05 -4.76668e-05 -6.17944e-19)
(7.09282e-05 -5.00497e-05 -3.42231e-19)
(7.01119e-05 -5.23268e-05 -7.50312e-19)
(6.9344e-05 -5.44992e-05 -6.98006e-19)
(6.86438e-05 -5.65728e-05 -5.18335e-19)
(6.80292e-05 -5.85581e-05 -5.8166e-19)
(6.75145e-05 -6.04675e-05 -3.3435e-19)
(6.71035e-05 -6.23165e-05 -4.29981e-19)
(7.10322e-05 -5.98731e-05 -4.09393e-19)
(7.92097e-05 -2.40047e-05 7.90602e-19)
(7.87567e-05 -2.64512e-05 8.79308e-19)
(7.83765e-05 -2.91784e-05 3.88399e-19)
(7.7906e-05 -3.20317e-05 1.56975e-19)
(7.73163e-05 -3.49204e-05 -5.49286e-20)
(7.66242e-05 -3.77844e-05 -1.05044e-19)
(7.58559e-05 -4.05901e-05 -2.99124e-19)
(7.50364e-05 -4.33192e-05 -6.95088e-19)
(7.41878e-05 -4.59608e-05 -8.23346e-19)
(7.33294e-05 -4.85073e-05 -5.58784e-19)
(7.24797e-05 -5.09536e-05 -2.64633e-19)
(7.16572e-05 -5.32974e-05 -7.28739e-19)
(7.08808e-05 -5.55403e-05 -7.37686e-19)
(7.01693e-05 -5.76882e-05 -5.01396e-19)
(6.95394e-05 -5.97505e-05 -5.25561e-19)
(6.90044e-05 -6.17375e-05 -3.58351e-19)
(6.85675e-05 -6.36615e-05 -3.99832e-19)
(7.24495e-05 -6.13036e-05 -3.39469e-19)
(8.08884e-05 -2.42896e-05 6.4436e-19)
(8.03867e-05 -2.68837e-05 7.65716e-19)
(7.99617e-05 -2.96807e-05 3.55571e-19)
(7.94803e-05 -3.25818e-05 2.15606e-19)
(7.88961e-05 -3.55147e-05 -1.24931e-20)
(7.82132e-05 -3.84261e-05 -8.12751e-20)
(7.74528e-05 -4.12837e-05 -2.85836e-19)
(7.6638e-05 -4.40687e-05 -6.9371e-19)
(7.57907e-05 -4.67696e-05 -7.75205e-19)
(7.49306e-05 -4.93783e-05 -5.00519e-19)
(7.40766e-05 -5.18899e-05 -2.03824e-19)
(7.32476e-05 -5.43025e-05 -7.09643e-19)
(7.24622e-05 -5.66177e-05 -7.81801e-19)
(7.17385e-05 -5.88412e-05 -4.88252e-19)
(7.10924e-05 -6.09813e-05 -4.7102e-19)
(7.05361e-05 -6.30462e-05 -3.94957e-19)
(7.0073e-05 -6.50453e-05 -3.79863e-19)
(7.39096e-05 -6.27718e-05 -2.38686e-19)
(8.26147e-05 -2.46086e-05 4.73028e-19)
(8.20795e-05 -2.73258e-05 6.5688e-19)
(8.16178e-05 -3.0198e-05 3.73502e-19)
(8.11197e-05 -3.31525e-05 2.9953e-19)
(8.05337e-05 -3.61328e-05 1.57333e-20)
(7.9855e-05 -3.90933e-05 -7.32436e-20)
(7.90994e-05 -4.20039e-05 -2.76853e-19)
(7.82877e-05 -4.48461e-05 -6.67348e-19)
(7.74408e-05 -4.76077e-05 -7.04752e-19)
(7.65785e-05 -5.02805e-05 -4.62571e-19)
(7.57199e-05 -5.28593e-05 -1.57086e-19)
(7.48838e-05 -5.53424e-05 -6.78303e-19)
(7.40887e-05 -5.77317e-05 -8.01254e-19)
(7.3352e-05 -6.00321e-05 -4.88567e-19)
(7.26887e-05 -6.22509e-05 -4.30936e-19)
(7.21105e-05 -6.4394e-05 -4.1787e-19)
(7.16208e-05 -6.64686e-05 -3.67089e-19)
(7.54136e-05 -6.42788e-05 -1.76159e-19)
(8.43732e-05 -2.49538e-05 3.09749e-19)
(8.3829e-05 -2.7781e-05 5.47782e-19)
(8.33407e-05 -3.0731e-05 3.73684e-19)
(8.28239e-05 -3.37431e-05 3.91074e-19)
(8.22306e-05 -3.67739e-05 5.8225e-20)
(8.15515e-05 -3.97856e-05 -7.70676e-20)
(8.07976e-05 -4.2751e-05 -2.51003e-19)
(7.99871e-05 -4.56519e-05 -6.19888e-19)
(7.91395e-05 -4.84758e-05 -6.39354e-19)
(7.82743e-05 -5.12142e-05 -4.25862e-19)
(7.74105e-05 -5.38621e-05 -9.62556e-20)
(7.65668e-05 -5.64177e-05 -6.18523e-19)
(7.57613e-05 -5.88826e-05 -8.18784e-19)
(7.50107e-05 -6.12613e-05 -5.09906e-19)
(7.43294e-05 -6.35595e-05 -3.95914e-19)
(7.37286e-05 -6.57816e-05 -3.91134e-19)
(7.32121e-05 -6.79322e-05 -3.12919e-19)
(7.69623e-05 -6.58256e-05 -1.37751e-19)
(8.61851e-05 -2.53283e-05 1.38803e-19)
(8.56446e-05 -2.82554e-05 4.44496e-19)
(8.5133e-05 -3.12818e-05 3.66488e-19)
(8.45944e-05 -3.43536e-05 4.51471e-19)
(8.39887e-05 -3.74376e-05 1.02886e-19)
(8.33046e-05 -4.05028e-05 -9.61524e-20)
(8.25492e-05 -4.35249e-05 -2.19441e-19)
(8.17377e-05 -4.64862e-05 -5.44823e-19)
(8.08882e-05 -4.93741e-05 -5.97227e-19)
(8.00192e-05 -5.21801e-05 -3.89229e-19)
(7.91496e-05 -5.48989e-05 4.75963e-22)
(7.82975e-05 -5.75287e-05 -5.11407e-19)
(7.74808e-05 -6.00708e-05 -8.48131e-19)
(7.67154e-05 -6.25291e-05 -5.77112e-19)
(7.60153e-05 -6.49078e-05 -3.99251e-19)
(7.53914e-05 -6.72097e-05 -3.69005e-19)
(7.48478e-05 -6.94372e-05 -2.04192e-19)
(7.85567e-05 -6.74137e-05 -5.90875e-20)
(8.80972e-05 -2.57401e-05 -1.19689e-20)
(8.75467e-05 -2.87533e-05 3.39465e-19)
(8.70019e-05 -3.18514e-05 3.52365e-19)
(8.64341e-05 -3.49838e-05 4.46477e-19)
(8.581e-05 -3.81237e-05 1.30283e-19)
(8.51162e-05 -4.1245e-05 -1.1672e-19)
(8.43559e-05 -4.43258e-05 -2.20099e-19)
(8.35413e-05 -4.73495e-05 -4.70889e-19)
(8.26883e-05 -5.03033e-05 -5.64368e-19)
(8.18146e-05 -5.31787e-05 -3.66469e-19)
(8.09382e-05 -5.59703e-05 1.29254e-19)
(8.00771e-05 -5.86761e-05 -3.56081e-19)
(7.92483e-05 -6.12971e-05 -8.87438e-19)
(7.84674e-05 -6.38362e-05 -6.80084e-19)
(7.77477e-05 -6.62965e-05 -4.18735e-19)
(7.71002e-05 -6.86791e-05 -3.73611e-19)
(7.65293e-05 -7.09846e-05 -1.04369e-19)
(8.01979e-05 -6.90443e-05 7.23028e-20)
(9.0166e-05 -2.61933e-05 -1.38811e-19)
(8.95565e-05 -2.92733e-05 2.50416e-19)
(8.89547e-05 -3.24385e-05 3.48729e-19)
(8.83459e-05 -3.5633e-05 3.95641e-19)
(8.76962e-05 -3.88317e-05 1.28312e-19)
(8.69879e-05 -4.20118e-05 -1.25107e-19)
(8.62194e-05 -4.51539e-05 -2.50358e-19)
(8.53993e-05 -4.8242e-05 -4.20563e-19)
(8.45413e-05 -5.12638e-05 -5.16805e-19)
(8.36617e-05 -5.42105e-05 -3.50901e-19)
(8.27777e-05 -5.70768e-05 2.52785e-19)
(8.19066e-05 -5.98604e-05 -1.99725e-19)
(8.10649e-05 -6.25618e-05 -9.19374e-19)
(8.02676e-05 -6.51832e-05 -7.66153e-19)
(7.95278e-05 -6.77264e-05 -4.36122e-19)
(7.88562e-05 -7.0191e-05 -3.70156e-19)
(7.82578e-05 -7.25755e-05 -4.11323e-20)
(8.18872e-05 -7.07186e-05 1.94934e-19)
(9.24293e-05 -2.66749e-05 -2.46454e-19)
(9.16838e-05 -2.98057e-05 1.92974e-19)
(9.09942e-05 -3.3039e-05 3.6086e-19)
(9.03311e-05 -3.62995e-05 3.40849e-19)
(8.96487e-05 -3.95608e-05 1.14833e-19)
(8.89212e-05 -4.28032e-05 -1.48974e-19)
(8.81412e-05 -4.60092e-05 -3.01902e-19)
(8.73133e-05 -4.91641e-05 -3.74604e-19)
(8.64487e-05 -5.2256e-05 -4.49514e-19)
(8.5562e-05 -5.52761e-05 -3.29546e-19)
(8.46694e-05 -5.8219e-05 3.72029e-19)
(8.37874e-05 -6.10822e-05 -6.9596e-20)
(8.29319e-05 -6.38658e-05 -9.60107e-19)
(8.21176e-05 -6.65709e-05 -8.11523e-19)
(8.13569e-05 -6.91984e-05 -4.32239e-19)
(8.06608e-05 -7.17463e-05 -3.46149e-19)
(8.00346e-05 -7.42113e-05 -4.42644e-21)
(8.36256e-05 -7.24382e-05 2.22693e-19)
(9.48694e-05 -2.71465e-05 -3.13592e-19)
(9.3916e-05 -3.03346e-05 1.63672e-19)
(9.31155e-05 -3.36473e-05 3.76786e-19)
(9.23882e-05 -3.69813e-05 3.06924e-19)
(9.16675e-05 -4.03104e-05 1.02467e-19)
(9.09168e-05 -4.36189e-05 -2.13017e-19)
(9.01225e-05 -4.6892e-05 -3.6879e-19)
(8.92847e-05 -5.01162e-05 -3.23509e-19)
(8.84118e-05 -5.32804e-05 -3.95786e-19)
(8.75168e-05 -5.6376e-05 -3.21709e-19)
(8.66145e-05 -5.93976e-05 4.38175e-19)
(8.57208e-05 -6.23423e-05 1.56748e-21)
(8.48508e-05 -6.52097e-05 -9.94231e-19)
(8.40185e-05 -6.80003e-05 -8.33378e-19)
(8.32365e-05 -7.07135e-05 -4.1447e-19)
(8.25153e-05 -7.33461e-05 -2.97109e-19)
(8.1861e-05 -7.5893e-05 2.70893e-20)
(8.54143e-05 -7.42042e-05 1.79261e-19)
(9.73935e-05 -2.75526e-05 -3.34805e-19)
(9.62183e-05 -3.08458e-05 1.51709e-19)
(9.53059e-05 -3.42592e-05 3.83958e-19)
(9.4513e-05 -3.76767e-05 2.99958e-19)
(9.37516e-05 -4.10798e-05 1.0914e-19)
(9.29753e-05 -4.44587e-05 -3.01957e-19)
(9.21644e-05 -4.78022e-05 -4.26636e-19)
(9.13148e-05 -5.10987e-05 -2.35308e-19)
(9.04322e-05 -5.43376e-05 -3.62012e-19)
(8.95275e-05 -5.7511e-05 -3.40818e-19)
(8.86146e-05 -6.06132e-05 4.55741e-19)
(8.77082e-05 -6.36414e-05 1.69894e-20)
(8.68228e-05 -6.65945e-05 -9.94521e-19)
(8.5972e-05 -6.94721e-05 -8.27787e-19)
(8.51678e-05 -7.22728e-05 -4.08754e-19)
(8.44212e-05 -7.49916e-05 -2.67686e-19)
(8.37383e-05 -7.7622e-05 4.05772e-20)
(8.72545e-05 -7.6018e-05 1.60478e-19)
(9.98613e-05 -2.78638e-05 -3.02471e-19)
(9.8545e-05 -3.13374e-05 1.6011e-19)
(9.75492e-05 -3.48741e-05 3.94636e-19)
(9.66994e-05 -3.83854e-05 3.06413e-19)
(9.58991e-05 -4.18689e-05 1.37529e-19)
(9.50966e-05 -4.53228e-05 -3.86678e-19)
(9.42676e-05 -4.87403e-05 -4.74937e-19)
(9.34047e-05 -5.21118e-05 -1.3539e-19)
(9.25111e-05 -5.54281e-05 -3.20434e-19)
(9.15957e-05 -5.86815e-05 -3.77132e-19)
(9.06712e-05 -6.18666e-05 4.41755e-19)
(8.97512e-05 -6.49803e-05 2.07955e-20)
(8.88496e-05 -6.8021e-05 -9.51315e-19)
(8.79794e-05 -7.09875e-05 -7.72653e-19)
(8.71525e-05 -7.38772e-05 -3.71274e-19)
(8.63797e-05 -7.6684e-05 -2.37378e-19)
(8.56678e-05 -7.93993e-05 -2.30736e-20)
(8.91471e-05 -7.78806e-05 1.53301e-19)
(0.000102155 -2.81496e-05 -2.55069e-19)
(0.00010086 -3.18237e-05 1.65664e-19)
(9.98307e-05 -3.54958e-05 3.90665e-19)
(9.89414e-05 -3.91084e-05 3.10527e-19)
(9.81079e-05 -4.2678e-05 1.94694e-19)
(9.72803e-05 -4.62115e-05 -4.43984e-19)
(9.64328e-05 -4.97065e-05 -5.04051e-19)
(9.55557e-05 -5.31561e-05 -5.00022e-20)
(9.46498e-05 -5.65524e-05 -2.66346e-19)
(9.37227e-05 -5.98883e-05 -4.15883e-19)
(9.27855e-05 -6.31585e-05 3.78463e-19)
(9.1851e-05 -6.63598e-05 1.51321e-20)
(9.09324e-05 -6.94901e-05 -8.8134e-19)
(9.00421e-05 -7.25473e-05 -6.97198e-19)
(8.91918e-05 -7.55279e-05 -3.08245e-19)
(8.83923e-05 -7.84242e-05 -1.5005e-19)
(8.76507e-05 -8.12261e-05 -1.12459e-19)
(9.10933e-05 -7.97934e-05 1.0739e-19)
(0.000105454 -2.54567e-05 -2.90465e-19)
(0.000104278 -2.84545e-05 -2.21339e-19)
(0.000103149 -3.23278e-05 1.83242e-19)
(0.000102141 -3.61309e-05 3.72472e-19)
(0.000101234 -3.9848e-05 2.74331e-19)
(0.000100376 -4.3508e-05 2.58153e-19)
(9.9526e-05 -4.71251e-05 -4.52077e-19)
(9.86604e-05 -5.07012e-05 -5.01696e-19)
(9.77684e-05 -5.42321e-05 -8.4668e-21)
(9.68496e-05 -5.77111e-05 -2.4306e-19)
(9.59098e-05 -6.1132e-05 -4.37321e-19)
(9.4959e-05 -6.44897e-05 3.10628e-19)
(9.40092e-05 -6.77807e-05 2.98277e-21)
(9.30727e-05 -7.10025e-05 -8.19746e-19)
(9.21615e-05 -7.41525e-05 -6.29322e-19)
(9.12871e-05 -7.72257e-05 -2.26991e-19)
(9.04602e-05 -8.02134e-05 -2.86619e-20)
(8.96881e-05 -8.31034e-05 -1.9028e-19)
(9.30942e-05 -8.17574e-05 3.16638e-20)
(0.000106812 -2.55395e-05 -2.46802e-19)
(0.000106323 -2.88614e-05 -1.96817e-19)
(0.000105425 -3.28683e-05 2.13948e-19)
(0.00010448 -3.67863e-05 3.51738e-19)
(0.000103575 -4.06068e-05 1.90198e-19)
(0.000102701 -4.43601e-05 2.8749e-19)
(0.000101833 -4.80643e-05 -4.2966e-19)
(0.000100951 -5.17249e-05 -4.59787e-19)
(0.000100044 -5.53401e-05 2.25627e-20)
(9.91113e-05 -5.89047e-05 -2.41387e-19)
(9.8158e-05 -6.24132e-05 -4.53275e-19)
(9.71929e-05 -6.58607e-05 2.36487e-19)
(9.62268e-05 -6.92437e-05 -3.27883e-20)
(9.52716e-05 -7.25592e-05 -7.75266e-19)
(9.43387e-05 -7.58038e-05 -5.69908e-19)
(9.34394e-05 -7.89716e-05 -1.25947e-19)
(9.25844e-05 -8.20524e-05 1.14882e-19)
(9.17813e-05 -8.50323e-05 -2.13489e-19)
(9.51512e-05 -8.3774e-05 -3.4906e-20)
(0.000109838 -2.3309e-05 2.44573e-19)
(0.000108472 -2.57549e-05 -1.7133e-19)
(0.000108395 -2.93752e-05 -1.64621e-19)
(0.000107712 -3.34511e-05 2.48207e-19)
(0.00010685 -3.74672e-05 3.38138e-19)
(0.000105964 -4.13878e-05 1.01092e-19)
(0.000105084 -4.52357e-05 2.86177e-19)
(0.000104202 -4.90299e-05 -4.17808e-19)
(0.000103304 -5.27783e-05 -4.10485e-19)
(0.000102382 -5.64808e-05 4.3985e-20)
(0.000101436 -6.01338e-05 -2.43305e-19)
(0.000100468 -6.37323e-05 -4.40816e-19)
(9.9488e-05 -6.72721e-05 1.89369e-19)
(9.85049e-05 -7.07494e-05 -8.96697e-20)
(9.75301e-05 -7.41608e-05 -7.66767e-19)
(9.65748e-05 -7.75021e-05 -5.2876e-19)
(9.56499e-05 -8.07664e-05 -2.14664e-20)
(9.47661e-05 -8.39422e-05 2.28823e-19)
(9.39316e-05 -8.7014e-05 -1.89365e-19)
(9.72658e-05 -8.58451e-05 -1.77287e-20)
(0.000111109 -2.33866e-05 3.20492e-19)
(0.000110517 -2.6161e-05 -8.23013e-20)
(0.000110557 -2.99531e-05 -1.21129e-19)
(0.000110036 -3.40764e-05 2.80675e-19)
(0.00010926 -3.81773e-05 3.29195e-19)
(0.000108403 -4.21935e-05 1.74108e-20)
(0.000107524 -4.61364e-05 2.75028e-19)
(0.000106632 -5.00229e-05 -4.18104e-19)
(0.00010572 -5.38618e-05 -3.67845e-19)
(0.000104785 -5.76546e-05 5.66349e-20)
(0.000103824 -6.13987e-05 -2.46909e-19)
(0.000102842 -6.509e-05 -3.96606e-19)
(0.000101845 -6.87245e-05 1.7729e-19)
(0.000100844 -7.22983e-05 -1.418e-19)
(9.98493e-05 -7.58078e-05 -7.68622e-19)
(9.88708e-05 -7.9248e-05 -4.91076e-19)
(9.79196e-05 -8.26111e-05 6.67246e-20)
(9.70066e-05 -8.58841e-05 3.00012e-19)
(9.61406e-05 -8.90504e-05 -1.73919e-19)
(9.94405e-05 -8.79731e-05 3.64698e-20)
(0.00011297 -2.35796e-05 3.51723e-19)
(0.000112795 -2.66918e-05 1.45819e-20)
(0.000112834 -3.05743e-05 -6.55667e-20)
(0.00011242 -3.47416e-05 2.83537e-19)
(0.00011172 -3.89184e-05 3.11394e-19)
(0.000110896 -4.3026e-05 -6.30739e-20)
(0.000110024 -4.70637e-05 2.58346e-19)
(0.000109125 -5.10443e-05 -4.31904e-19)
(0.000108201 -5.49764e-05 -3.39588e-19)
(0.000107252 -5.88623e-05 5.3698e-20)
(0.000106277 -6.27003e-05 -2.72262e-19)
(0.000105279 -6.6487e-05 -3.49125e-19)
(0.000104266 -7.02186e-05 1.88724e-19)
(0.000103247 -7.38914e-05 -1.76714e-19)
(0.000102231 -7.75013e-05 -7.55072e-19)
(0.000101228 -8.10427e-05 -4.46639e-19)
(0.00010025 -8.45068e-05 1.192e-19)
(9.93077e-05 -8.78798e-05 3.37199e-19)
(9.84106e-05 -9.11436e-05 -1.78371e-19)
(0.000101678 -9.01611e-05 5.28222e-20)
(0.000115377 -2.38878e-05 3.35499e-19)
(0.000115247 -2.72702e-05 1.08036e-19)
(0.000115238 -3.12279e-05 2.54026e-20)
(0.000114882 -3.54431e-05 2.95249e-19)
(0.000114241 -3.96913e-05 2.98615e-19)
(0.000113449 -4.38872e-05 -1.51909e-19)
(0.000112585 -4.80193e-05 2.34055e-19)
(0.000111682 -5.20957e-05 -4.32688e-19)
(0.000110749 -5.61233e-05 -3.04221e-19)
(0.000109786 -6.01049e-05 5.17482e-20)
(0.000108797 -6.40394e-05 -3.02663e-19)
(0.000107783 -6.79241e-05 -3.18183e-19)
(0.000106753 -7.17555e-05 2.01854e-19)
(0.000105714 -7.55298e-05 -2.05739e-19)
(0.000104676 -7.92426e-05 -7.27553e-19)
(0.000103649 -8.28876e-05 -3.70024e-19)
(0.000102644 -8.64555e-05 1.52254e-19)
(0.000101672 -8.99315e-05 3.41433e-19)
(0.000100744 -9.32967e-05 -2.03324e-19)
(0.000103981 -9.24128e-05 1.81746e-20)
(0.000118046 -2.42647e-05 3.26653e-19)
(0.000117844 -2.78685e-05 1.74978e-19)
(0.000117767 -3.19072e-05 1.09304e-19)
(0.000117434 -3.61775e-05 3.0587e-19)
(0.000116834 -4.04963e-05 2.80929e-19)
(0.000116069 -4.47787e-05 -2.51065e-19)
(0.000115215 -4.90053e-05 1.89666e-19)
(0.000114309 -5.31787e-05 -4.12401e-19)
(0.000113366 -5.73042e-05 -2.48643e-19)
(0.000112391 -6.1384e-05 5.5276e-20)
(0.000111386 -6.54177e-05 -3.31161e-19)
(0.000110356 -6.9403e-05 -3.17635e-19)
(0.000109307 -7.33369e-05 2.38017e-19)
(0.000108248 -7.72154e-05 -1.92076e-19)
(0.000107188 -8.10338e-05 -6.89897e-19)
(0.000106136 -8.47853e-05 -2.66927e-19)
(0.000105104 -8.84599e-05 2.21456e-19)
(0.000104103 -9.20424e-05 3.50824e-19)
(0.000103145 -9.55132e-05 -2.457e-19)
(0.000106353 -9.47312e-05 -4.6761e-20)
(0.000120859 -2.46861e-05 3.63194e-19)
(0.00012057 -2.84789e-05 2.20174e-19)
(0.000120422 -3.26088e-05 1.745e-19)
(0.000120085 -3.69428e-05 3.12523e-19)
(0.000119511 -4.13338e-05 2.35914e-19)
(0.000118766 -4.57024e-05 -3.5321e-19)
(0.000117919 -5.00237e-05 1.24762e-19)
(0.000117011 -5.42957e-05 -3.87067e-19)
(0.000116058 -5.8521e-05 -1.92516e-19)
(0.000115069 -6.27016e-05 4.13999e-20)
(0.000114049 -6.68372e-05 -3.40871e-19)
(0.000113002 -7.09262e-05 -3.48601e-19)
(0.000111935 -7.49655e-05 2.58281e-19)
(0.000110856 -7.89511e-05 -1.45168e-19)
(0.000109773 -8.28781e-05 -6.29051e-19)
(0.000108696 -8.67391e-05 -1.83883e-19)
(0.000107635 -9.05238e-05 3.08846e-19)
(0.000106605 -9.42165e-05 4.26532e-19)
(0.000105617 -9.77964e-05 -2.65431e-19)
(0.000108795 -9.71186e-05 -1.18609e-19)
(0.000123774 -2.51402e-05 4.11337e-19)
(0.000123417 -2.91012e-05 2.46417e-19)
(0.000123199 -3.33309e-05 2.37821e-19)
(0.000122843 -3.77371e-05 3.17184e-19)
(0.000122278 -4.22037e-05 1.56663e-19)
(0.000121547 -4.66596e-05 -4.43762e-19)
(0.000120706 -5.10769e-05 6.24464e-20)
(0.000119794 -5.54491e-05 -3.67159e-19)
(0.000118831 -5.97764e-05 -1.56985e-19)
(0.000117828 -6.40603e-05 -6.8356e-21)
(0.000116792 -6.83008e-05 -3.30479e-19)
(0.000115728 -7.24966e-05 -3.82261e-19)
(0.000114642 -7.66445e-05 2.43855e-19)
(0.000113541 -8.07405e-05 -8.41742e-20)
(0.000112435 -8.47792e-05 -5.16833e-19)
(0.000111332 -8.87531e-05 -1.31806e-19)
(0.000110244 -9.26514e-05 3.36586e-19)
(0.000109183 -9.64575e-05 5.35261e-19)
(0.000108162 -0.000100149 -2.40994e-19)
(0.000111307 -9.95743e-05 -1.57179e-19)
(0.000126778 -2.56211e-05 4.56698e-19)
(0.000126373 -2.97367e-05 2.62302e-19)
(0.000126093 -3.40727e-05 3.08544e-19)
(0.00012571 -3.85591e-05 3.01958e-19)
(0.000125144 -4.31058e-05 4.69295e-20)
(0.000124418 -4.76514e-05 -5.01044e-19)
(0.00012358 -5.21666e-05 2.31457e-20)
(0.000122664 -5.66409e-05 -3.50366e-19)
(0.000121691 -6.10725e-05 -1.4433e-19)
(0.000120673 -6.54626e-05 -5.83054e-20)
(0.00011962 -6.98115e-05 -2.9659e-19)
(0.000118539 -7.41175e-05 -4.24702e-19)
(0.000117433 -7.83775e-05 1.91386e-19)
(0.000116311 -8.25872e-05 -3.37471e-20)
(0.000115181 -8.67412e-05 -3.67342e-19)
(0.000114052 -9.08314e-05 -7.04774e-20)
(0.000112934 -9.48465e-05 3.1505e-19)
(0.000111841 -9.87683e-05 6.25181e-19)
(0.000110783 -0.000102571 -1.948e-19)
(0.000113886 -0.000102094 -1.59625e-19)
(0.000129864 -2.61245e-05 4.93702e-19)
(0.000129428 -3.03859e-05 2.62019e-19)
(0.000129094 -3.48325e-05 3.90753e-19)
(0.000128679 -3.94063e-05 2.60196e-19)
(0.000128104 -4.40385e-05 -9.55007e-20)
(0.000127381 -4.86775e-05 -5.2701e-19)
(0.000126545 -5.3293e-05 -3.05017e-21)
(0.000125624 -5.78718e-05 -3.38262e-19)
(0.000124639 -6.24103e-05 -1.43556e-19)
(0.000123607 -6.69102e-05 -8.75773e-20)
(0.000122539 -7.13713e-05 -2.33496e-19)
(0.000121439 -7.57913e-05 -4.7593e-19)
(0.000120314 -8.0167e-05 1.40913e-19)
(0.00011917 -8.44939e-05 3.73079e-20)
(0.000118015 -8.87665e-05 -2.10096e-19)
(0.000116858 -9.29764e-05 -1.42792e-20)
(0.000115709 -9.71109e-05 2.7755e-19)
(0.000114579 -0.000101149 6.71433e-19)
(0.000113477 -0.00010506 -1.85037e-19)
(0.000116525 -0.000104671 -1.51196e-19)
(0.000133016 -2.6646e-05 5.01946e-19)
(0.000132559 -3.1047e-05 2.54149e-19)
(0.00013218 -3.56071e-05 4.87833e-19)
(0.000131735 -4.02749e-05 1.91617e-19)
(0.00013115 -4.49985e-05 -2.62828e-19)
(0.000130429 -4.97352e-05 -5.36012e-19)
(0.000129593 -5.44543e-05 -3.68307e-20)
(0.000128668 -5.91402e-05 -3.40275e-19)
(0.000127672 -6.3789e-05 -1.50053e-19)
(0.000126628 -6.84028e-05 -1.05912e-19)
(0.000125545 -7.29801e-05 -1.71981e-19)
(0.000124428 -7.75179e-05 -5.46615e-19)
(0.000123283 -8.20126e-05 7.82553e-20)
(0.000122115 -8.64601e-05 1.23068e-19)
(0.000120934 -9.08545e-05 -2.05257e-20)
(0.000119748 -9.51867e-05 4.35607e-20)
(0.000118566 -9.94423e-05 2.50906e-19)
(0.000117396 -0.000103596 7.26221e-19)
(0.000116241 -0.000107608 -2.07206e-19)
(0.000119221 -0.000107296 -1.9099e-19)
(0.000136208 -2.71802e-05 4.84944e-19)
(0.000135736 -3.17159e-05 2.33577e-19)
(0.000135321 -3.63916e-05 6.02145e-19)
(0.000134853 -4.11592e-05 1.24854e-19)
(0.000134261 -4.59805e-05 -4.38647e-19)
(0.000133543 -5.08196e-05 -5.46401e-19)
(0.00013271 -5.56453e-05 -9.33494e-20)
(0.000131783 -6.04416e-05 -3.49182e-19)
(0.00013078 -6.52046e-05 -1.62516e-19)
(0.000129727 -6.99369e-05 -1.32304e-19)
(0.000128631 -7.46344e-05 -1.28339e-19)
(0.000127497 -7.92931e-05 -6.12515e-19)
(0.000126331 -8.39099e-05 7.18808e-21)
(0.000125139 -8.84807e-05 1.90078e-19)
(0.000123931 -9.29994e-05 1.86427e-19)
(0.000122713 -9.74559e-05 1.10206e-19)
(0.000121494 -0.000101833 2.28828e-19)
(0.000120279 -0.0001061 8.15487e-19)
(0.000119067 -0.000110208 -1.75946e-19)
(0.00012197 -0.000109964 -2.16313e-19)
(0.000139411 -2.77218e-05 4.60539e-19)
(0.000138929 -3.23883e-05 1.94157e-19)
(0.000138488 -3.7181e-05 6.91948e-19)