/*--------------------------------*- C++ -*----------------------------------*\
  =========                 |
  \\      /  F ield         | OpenFOAM: The Open Source CFD Toolbox
   \\    /   O peration     | Website:  https://openfoam.org
    \\  /    A nd           | Version:  7
     \\/     M anipulation  |
\*---------------------------------------------------------------------------*/
FoamFile
{
    version     2.0;
    format      ascii;
    class       volScalarField;
    location    "220000";
    object      nu;
}
// * * * * * * * * * * * * * * * * * * * * * * * * * * * * * * * * * * * * * //

dimensions      [0 2 -1 0 0 0 0];

internalField   nonuniform List<scalar> 
4844
(
1.46247e-05
1.45368e-05
1.44419e-05
1.42768e-05
1.4193e-05
1.41025e-05
1.40059e-05
1.39035e-05
1.37959e-05
1.36835e-05
1.35668e-05
1.39443e-05
1.38643e-05
1.37779e-05
1.36855e-05
1.35876e-05
1.34847e-05
1.33771e-05
1.32654e-05
1.31499e-05
1.30312e-05
1.29096e-05
1.36261e-05
1.35495e-05
1.34668e-05
1.33785e-05
1.32848e-05
1.31862e-05
1.30831e-05
1.2976e-05
1.28652e-05
1.27513e-05
1.26346e-05
1.25155e-05
1.23945e-05
1.22719e-05
1.2148e-05
1.19586e-05
1.33209e-05
1.32477e-05
1.31685e-05
1.30838e-05
1.2994e-05
1.28994e-05
1.28006e-05
1.26977e-05
1.25914e-05
1.2482e-05
1.23698e-05
1.22553e-05
1.21388e-05
1.20208e-05
1.19016e-05
1.17212e-05
1.30281e-05
1.29578e-05
1.28819e-05
1.28006e-05
1.27145e-05
1.26237e-05
1.25287e-05
1.24299e-05
1.23277e-05
1.22225e-05
1.21145e-05
1.20043e-05
1.18922e-05
1.17785e-05
1.16635e-05
1.14916e-05
1.26791e-05
1.26063e-05
1.25282e-05
1.24454e-05
1.23582e-05
1.22669e-05
1.21718e-05
1.20735e-05
1.19722e-05
1.18682e-05
1.1762e-05
1.16539e-05
1.15443e-05
1.14334e-05
1.12692e-05
1.24109e-05
1.23408e-05
1.22658e-05
1.21862e-05
1.21023e-05
1.20144e-05
1.19229e-05
1.18281e-05
1.17305e-05
1.16303e-05
1.15279e-05
1.14236e-05
1.13177e-05
1.12107e-05
1.10538e-05
1.21524e-05
1.2085e-05
1.20128e-05
1.19361e-05
1.18553e-05
1.17706e-05
1.16824e-05
1.15911e-05
1.14969e-05
1.14002e-05
1.13013e-05
1.12006e-05
1.10984e-05
1.09949e-05
1.08449e-05
1.1963e-05
1.1903e-05
1.18381e-05
1.17686e-05
1.16947e-05
1.16167e-05
1.15351e-05
1.145e-05
1.13619e-05
1.12709e-05
1.11776e-05
1.10821e-05
1.09847e-05
1.08859e-05
1.07858e-05
1.06421e-05
1.172e-05
1.16622e-05
1.15996e-05
1.15325e-05
1.14613e-05
1.13861e-05
1.13073e-05
1.12251e-05
1.114e-05
1.10521e-05
1.09619e-05
1.08696e-05
1.07754e-05
1.06798e-05
1.05829e-05
1.04452e-05
1.14851e-05
1.14294e-05
1.1369e-05
1.13043e-05
1.12355e-05
1.11629e-05
1.10867e-05
1.10074e-05
1.09251e-05
1.08401e-05
1.07528e-05
1.06635e-05
1.05723e-05
1.04797e-05
1.03859e-05
1.02538e-05
1.12579e-05
1.12041e-05
1.11458e-05
1.10833e-05
1.10168e-05
1.09466e-05
1.0873e-05
1.07963e-05
1.07167e-05
1.06345e-05
1.055e-05
1.04634e-05
1.03752e-05
1.02855e-05
1.01945e-05
1.00677e-05
1.10854e-05
1.10379e-05
1.09859e-05
1.09296e-05
1.08691e-05
1.08049e-05
1.0737e-05
1.06658e-05
1.05915e-05
1.05144e-05
1.04348e-05
1.0353e-05
1.02691e-05
1.01836e-05
1.00966e-05
1.00084e-05
9.88654e-06
1.08706e-05
1.08247e-05
1.07744e-05
1.07199e-05
1.06615e-05
1.05993e-05
1.05336e-05
1.04647e-05
1.03927e-05
1.03181e-05
1.02409e-05
1.01616e-05
1.00803e-05
9.99733e-06
9.91293e-06
9.82737e-06
9.71012e-06
1.07023e-05
1.06623e-05
1.06179e-05
1.05693e-05
1.05166e-05
1.046e-05
1.03997e-05
1.03361e-05
1.02693e-05
1.01996e-05
1.01272e-05
1.00524e-05
9.97547e-06
9.89661e-06
9.81609e-06
9.73416e-06
9.65107e-06
9.53821e-06
1.04989e-05
1.04602e-05
1.04172e-05
1.03701e-05
1.03191e-05
1.02642e-05
1.02059e-05
1.01442e-05
1.00795e-05
1.00119e-05
9.94164e-06
9.86907e-06
9.79438e-06
9.71782e-06
9.63963e-06
9.56005e-06
9.47933e-06
9.3706e-06
1.03014e-05
1.02639e-05
1.02223e-05
1.01766e-05
1.01271e-05
1.0074e-05
1.00174e-05
9.9576e-06
9.89479e-06
9.82919e-06
9.76104e-06
9.69059e-06
9.61805e-06
9.54369e-06
9.46772e-06
9.39038e-06
9.31192e-06
9.20709e-06
1.01094e-05
1.00731e-05
1.00327e-05
9.98848e-06
9.94048e-06
9.88894e-06
9.83405e-06
9.77602e-06
9.71505e-06
9.65136e-06
9.58518e-06
9.51674e-06
9.44626e-06
9.37399e-06
9.30014e-06
9.22495e-06
9.14863e-06
9.0475e-06
9.92271e-06
9.88752e-06
9.84837e-06
9.80543e-06
9.75886e-06
9.70885e-06
9.65556e-06
9.59921e-06
9.53999e-06
9.47813e-06
9.41382e-06
9.34731e-06
9.2788e-06
9.20852e-06
9.1367e-06
9.06355e-06
8.98929e-06
8.89165e-06
9.74105e-06
9.70689e-06
9.6689e-06
9.62723e-06
9.58202e-06
9.53345e-06
9.48169e-06
9.42695e-06
9.36941e-06
9.30928e-06
9.24677e-06
9.18208e-06
9.11545e-06
9.04708e-06
8.97719e-06
8.906e-06
8.83372e-06
8.73939e-06
9.56415e-06
9.53099e-06
9.4941e-06
9.45362e-06
9.40971e-06
9.36252e-06
9.31223e-06
9.25902e-06
9.20308e-06
9.1446e-06
9.0838e-06
9.02088e-06
8.95604e-06
8.88949e-06
8.82146e-06
8.75214e-06
8.68174e-06
8.59055e-06
9.39178e-06
9.35957e-06
9.32373e-06
9.2844e-06
9.24172e-06
9.19585e-06
9.14695e-06
9.09521e-06
9.0408e-06
8.98391e-06
8.92475e-06
8.8635e-06
8.80038e-06
8.73558e-06
8.66932e-06
8.6018e-06
8.53321e-06
8.44501e-06
9.22373e-06
9.19242e-06
9.15759e-06
9.11935e-06
9.07785e-06
9.03324e-06
8.98568e-06
8.93534e-06
8.88239e-06
8.82703e-06
8.76943e-06
8.70979e-06
8.64831e-06
8.58519e-06
8.52064e-06
8.45483e-06
8.38798e-06
8.30261e-06
9.05979e-06
9.02935e-06
8.99548e-06
8.95829e-06
8.91792e-06
8.87452e-06
8.82824e-06
8.77924e-06
8.72769e-06
8.67378e-06
8.61768e-06
8.55958e-06
8.49969e-06
8.43818e-06
8.37525e-06
8.3111e-06
8.24592e-06
8.16325e-06
8.89978e-06
8.87018e-06
8.83722e-06
8.80104e-06
8.76175e-06
8.7195e-06
8.67444e-06
8.62673e-06
8.57653e-06
8.52401e-06
8.46935e-06
8.41274e-06
8.35435e-06
8.29439e-06
8.23303e-06
8.17047e-06
8.1069e-06
8.0268e-06
8.74353e-06
8.71472e-06
8.68264e-06
8.64742e-06
8.60917e-06
8.56803e-06
8.52414e-06
8.47767e-06
8.42875e-06
8.37757e-06
8.3243e-06
8.26911e-06
8.21218e-06
8.1537e-06
8.09385e-06
8.03282e-06
7.97079e-06
7.89314e-06
8.59087e-06
8.56282e-06
8.53158e-06
8.49728e-06
8.46003e-06
8.41995e-06
8.37719e-06
8.3319e-06
8.28423e-06
8.23433e-06
8.18239e-06
8.12856e-06
8.07304e-06
8.01599e-06
7.95759e-06
7.89803e-06
7.83749e-06
7.76218e-06
8.44164e-06
8.41432e-06
8.3839e-06
8.35048e-06
8.31418e-06
8.27513e-06
8.23345e-06
8.1893e-06
8.14282e-06
8.09416e-06
8.04349e-06
7.99099e-06
7.93681e-06
7.88113e-06
7.82414e-06
7.766e-06
7.70689e-06
7.63381e-06
8.2957e-06
8.26908e-06
8.23944e-06
8.20687e-06
8.17149e-06
8.13342e-06
8.09279e-06
8.04973e-06
8.00439e-06
7.95693e-06
7.9075e-06
7.85625e-06
7.80337e-06
7.74902e-06
7.69338e-06
7.63661e-06
7.57888e-06
7.50794e-06
8.17582e-06
8.15292e-06
8.12698e-06
8.09808e-06
8.06633e-06
8.03183e-06
7.99471e-06
7.95508e-06
7.91308e-06
7.86885e-06
7.82253e-06
7.77428e-06
7.72426e-06
7.67263e-06
7.61956e-06
7.56522e-06
7.50977e-06
7.45338e-06
7.38448e-06
8.03549e-06
8.01317e-06
7.98787e-06
7.9597e-06
7.92874e-06
7.89509e-06
7.85888e-06
7.82021e-06
7.77923e-06
7.73606e-06
7.69085e-06
7.64375e-06
7.59491e-06
7.54449e-06
7.49265e-06
7.43957e-06
7.38539e-06
7.3303e-06
7.26335e-06
7.91689e-06
7.89809e-06
7.87632e-06
7.85166e-06
7.82417e-06
7.79397e-06
7.76115e-06
7.72581e-06
7.68808e-06
7.64808e-06
7.60593e-06
7.56179e-06
7.5158e-06
7.46809e-06
7.41884e-06
7.3682e-06
7.31633e-06
7.26339e-06
7.20954e-06
7.14447e-06
7.78185e-06
7.76351e-06
7.74228e-06
7.71821e-06
7.6914e-06
7.66193e-06
7.6299e-06
7.59541e-06
7.55857e-06
7.51952e-06
7.47837e-06
7.43526e-06
7.39033e-06
7.34373e-06
7.2956e-06
7.24611e-06
7.19542e-06
7.14367e-06
7.09103e-06
7.02776e-06
7.64953e-06
7.63164e-06
7.61092e-06
7.58744e-06
7.56127e-06
7.53251e-06
7.50124e-06
7.46757e-06
7.4316e-06
7.39346e-06
7.35327e-06
7.31116e-06
7.26726e-06
7.22172e-06
7.17469e-06
7.12631e-06
7.07675e-06
7.02617e-06
6.9747e-06
6.91315e-06
7.51984e-06
7.50238e-06
7.48216e-06
7.45924e-06
7.43369e-06
7.40561e-06
7.37508e-06
7.3422e-06
7.30707e-06
7.26982e-06
7.23055e-06
7.1894e-06
7.14651e-06
7.102e-06
7.05602e-06
7.00873e-06
6.96027e-06
6.9108e-06
6.86047e-06
6.80058e-06
7.39268e-06
7.37563e-06
7.35589e-06
7.33351e-06
7.30857e-06
7.28115e-06
7.25133e-06
7.21921e-06
7.1849e-06
7.1485e-06
7.11013e-06
7.06992e-06
7.02799e-06
6.98448e-06
6.93952e-06
6.89328e-06
6.84588e-06
6.7975e-06
6.74828e-06
6.68998e-06
7.26795e-06
7.25131e-06
7.23203e-06
7.21018e-06
7.18582e-06
7.15903e-06
7.12991e-06
7.09853e-06
7.065e-06
7.02943e-06
6.99193e-06
6.95262e-06
6.91163e-06
6.86908e-06
6.82512e-06
6.77989e-06
6.73354e-06
6.68621e-06
6.63805e-06
6.5813e-06
7.14558e-06
7.12933e-06
7.1105e-06
7.08915e-06
7.06536e-06
7.03919e-06
7.01073e-06
6.98007e-06
6.9473e-06
6.91254e-06
6.87588e-06
6.83745e-06
6.79736e-06
6.75575e-06
6.71276e-06
6.66851e-06
6.62316e-06
6.57685e-06
6.52974e-06
6.47446e-06
7.02548e-06
7.0096e-06
6.99121e-06
6.97036e-06
6.94711e-06
6.92154e-06
6.89372e-06
6.86376e-06
6.83173e-06
6.79774e-06
6.7619e-06
6.72432e-06
6.68512e-06
6.64442e-06
6.60235e-06
6.55906e-06
6.51469e-06
6.46938e-06
6.42327e-06
6.36943e-06
6.90757e-06
6.89206e-06
6.87409e-06
6.85371e-06
6.83099e-06
6.806e-06
6.77882e-06
6.74952e-06
6.71821e-06
6.68498e-06
6.64993e-06
6.61318e-06
6.57483e-06
6.53501e-06
6.49386e-06
6.4515e-06
6.40807e-06
6.36372e-06
6.3186e-06
6.26614e-06
6.79179e-06
6.77663e-06
6.75907e-06
6.73915e-06
6.71695e-06
6.69252e-06
6.66594e-06
6.6373e-06
6.60668e-06
6.57419e-06
6.53991e-06
6.50395e-06
6.46644e-06
6.42749e-06
6.38721e-06
6.34575e-06
6.30325e-06
6.25984e-06
6.21568e-06
6.16455e-06
6.67806e-06
6.66325e-06
6.64608e-06
6.62661e-06
6.6049e-06
6.58102e-06
6.55503e-06
6.52703e-06
6.49709e-06
6.4653e-06
6.43177e-06
6.3966e-06
6.35989e-06
6.32177e-06
6.28236e-06
6.24178e-06
6.20017e-06
6.15768e-06
6.11445e-06
6.06461e-06
6.56632e-06
6.55184e-06
6.53505e-06
6.51602e-06
6.4948e-06
6.47144e-06
6.44603e-06
6.41864e-06
6.38936e-06
6.35827e-06
6.32546e-06
6.29105e-06
6.25513e-06
6.21783e-06
6.17925e-06
6.13952e-06
6.09878e-06
6.05718e-06
6.01486e-06
5.96627e-06
6.45651e-06
6.44235e-06
6.42594e-06
6.40733e-06
6.38657e-06
6.36373e-06
6.33888e-06
6.31209e-06
6.28344e-06
6.25303e-06
6.22093e-06
6.18726e-06
6.15211e-06
6.11559e-06
6.07783e-06
6.03893e-06
5.99905e-06
5.95831e-06
5.91687e-06
5.8695e-06
6.34856e-06
6.33472e-06
6.31867e-06
6.30047e-06
6.28017e-06
6.25783e-06
6.23353e-06
6.20732e-06
6.17929e-06
6.14953e-06
6.11813e-06
6.08517e-06
6.05077e-06
6.01502e-06
5.97805e-06
5.93997e-06
5.90091e-06
5.86102e-06
5.82045e-06
5.77425e-06
6.24243e-06
6.22889e-06
6.2132e-06
6.1954e-06
6.17554e-06
6.15369e-06
6.12991e-06
6.10427e-06
6.07685e-06
6.04773e-06
6.01699e-06
5.98474e-06
5.95106e-06
5.91607e-06
5.87987e-06
5.84258e-06
5.80433e-06
5.76526e-06
5.72553e-06
5.68048e-06
6.13806e-06
6.12481e-06
6.10946e-06
6.09205e-06
6.07263e-06
6.05126e-06
6.02799e-06
6.00291e-06
5.97607e-06
5.94757e-06
5.91749e-06
5.88592e-06
5.85296e-06
5.8187e-06
5.78325e-06
5.74673e-06
5.70927e-06
5.671e-06
5.6321e-06
5.58816e-06
6.03539e-06
6.02244e-06
6.00743e-06
5.99039e-06
5.97139e-06
5.95048e-06
5.92772e-06
5.90317e-06
5.87691e-06
5.84902e-06
5.81958e-06
5.78867e-06
5.7564e-06
5.72285e-06
5.68815e-06
5.65238e-06
5.61569e-06
5.5782e-06
5.5401e-06
5.49725e-06
5.93439e-06
5.92172e-06
5.90703e-06
5.89037e-06
5.87178e-06
5.85132e-06
5.82904e-06
5.80502e-06
5.77932e-06
5.75202e-06
5.7232e-06
5.69295e-06
5.66135e-06
5.62851e-06
5.59452e-06
5.55949e-06
5.52355e-06
5.48683e-06
5.44951e-06
5.40772e-06
5.83501e-06
5.82261e-06
5.80824e-06
5.79194e-06
5.77375e-06
5.75372e-06
5.73193e-06
5.70842e-06
5.68326e-06
5.65654e-06
5.62833e-06
5.59871e-06
5.56778e-06
5.53562e-06
5.50233e-06
5.46802e-06
5.43281e-06
5.39683e-06
5.36028e-06
5.31953e-06
5.7372e-06
5.72507e-06
5.71101e-06
5.69505e-06
5.67725e-06
5.65766e-06
5.63633e-06
5.61332e-06
5.5887e-06
5.56254e-06
5.53493e-06
5.50593e-06
5.47564e-06
5.44414e-06
5.41155e-06
5.37794e-06
5.34345e-06
5.3082e-06
5.27239e-06
5.23266e-06
5.64092e-06
5.62905e-06
5.61529e-06
5.59968e-06
5.58226e-06
5.56309e-06
5.54221e-06
5.51969e-06
5.49559e-06
5.46999e-06
5.44295e-06
5.41456e-06
5.3849e-06
5.35406e-06
5.32213e-06
5.28922e-06
5.25542e-06
5.22088e-06
5.1858e-06
5.14708e-06
5.54613e-06
5.53452e-06
5.52105e-06
5.50577e-06
5.48873e-06
5.46996e-06
5.44953e-06
5.42749e-06
5.4039e-06
5.37883e-06
5.35236e-06
5.32457e-06
5.29553e-06
5.26532e-06
5.23406e-06
5.20181e-06
5.16871e-06
5.13486e-06
5.10048e-06
5.06276e-06
5.4528e-06
5.44143e-06
5.42826e-06
5.41331e-06
5.39662e-06
5.37826e-06
5.35826e-06
5.33668e-06
5.31359e-06
5.28905e-06
5.26314e-06
5.23592e-06
5.20749e-06
5.17791e-06
5.14729e-06
5.1157e-06
5.08327e-06
5.0501e-06
5.01641e-06
4.97966e-06
5.30591e-06
5.28793e-06
5.26836e-06
5.24724e-06
5.22463e-06
5.20061e-06
5.17524e-06
5.14859e-06
5.12075e-06
5.09178e-06
5.0618e-06
5.03086e-06
4.99909e-06
4.96658e-06
4.93355e-06
4.89777e-06
5.137e-06
5.11348e-06
5.08864e-06
5.06255e-06
5.03529e-06
5.00692e-06
4.97755e-06
4.94725e-06
4.91612e-06
4.88427e-06
4.85187e-06
4.81701e-06
1.10538e-05
1.12107e-05
1.08449e-05
1.09949e-05
1.06422e-05
1.07858e-05
1.04452e-05
1.05829e-05
1.06798e-05
1.02538e-05
1.03859e-05
1.04797e-05
1.00677e-05
1.01945e-05
1.02855e-05
1.03752e-05
9.88654e-06
1.00084e-05
1.00966e-05
1.01836e-05
9.71012e-06
9.82737e-06
9.91294e-06
9.99733e-06
9.53821e-06
9.65108e-06
9.73416e-06
9.81609e-06
9.89661e-06
9.3706e-06
9.47933e-06
9.56005e-06
9.63963e-06
9.71782e-06
9.20709e-06
9.31192e-06
9.39039e-06
9.46772e-06
9.54369e-06
9.0475e-06
9.14864e-06
9.22495e-06
9.30014e-06
9.37399e-06
8.89165e-06
8.9893e-06
9.06355e-06
9.1367e-06
9.20852e-06
8.73939e-06
8.83372e-06
8.906e-06
8.9772e-06
9.04709e-06
8.59056e-06
8.68174e-06
8.75214e-06
8.82146e-06
8.8895e-06
8.95604e-06
8.44501e-06
8.53322e-06
8.6018e-06
8.66933e-06
8.73559e-06
8.80038e-06
8.30262e-06
8.38799e-06
8.45484e-06
8.52064e-06
8.5852e-06
8.64832e-06
8.7098e-06
8.16325e-06
8.24593e-06
8.31111e-06
8.37526e-06
8.43818e-06
8.49969e-06
8.55959e-06
8.61768e-06
8.0268e-06
8.1069e-06
8.17048e-06
8.23304e-06
8.29439e-06
8.35436e-06
8.41274e-06
8.46936e-06
8.52401e-06
7.89314e-06
7.97079e-06
8.03283e-06
8.09386e-06
8.1537e-06
8.21218e-06
8.26911e-06
8.3243e-06
8.37758e-06
8.42876e-06
7.76218e-06
7.83749e-06
7.89804e-06
7.9576e-06
8.01599e-06
8.07304e-06
8.12857e-06
8.18239e-06
8.23434e-06
8.28423e-06
7.63381e-06
7.70689e-06
7.766e-06
7.82414e-06
7.88113e-06
7.93681e-06
7.99099e-06
8.0435e-06
8.09416e-06
8.14282e-06
7.50794e-06
7.57889e-06
7.63661e-06
7.69338e-06
7.74903e-06
7.80338e-06
7.85626e-06
7.9075e-06
7.95694e-06
8.0044e-06
7.38448e-06
7.45339e-06
7.50978e-06
7.56522e-06
7.61957e-06
7.67264e-06
7.72427e-06
7.77429e-06
7.82253e-06
7.86885e-06
7.26335e-06
7.3303e-06
7.3854e-06
7.43957e-06
7.49266e-06
7.54449e-06
7.59491e-06
7.64375e-06
7.69086e-06
7.73607e-06
7.14447e-06
7.20954e-06
7.26339e-06
7.31633e-06
7.3682e-06
7.41884e-06
7.4681e-06
7.5158e-06
7.5618e-06
7.60594e-06
7.02776e-06
7.09104e-06
7.14367e-06
7.19542e-06
7.24612e-06
7.29561e-06
7.34373e-06
7.39033e-06
7.43526e-06
7.47837e-06
6.91316e-06
6.9747e-06
7.02617e-06
7.07676e-06
7.12632e-06
7.17469e-06
7.22173e-06
7.26727e-06
7.31116e-06
7.35327e-06
6.80059e-06
6.86047e-06
6.9108e-06
6.96027e-06
7.00873e-06
7.05602e-06
7.102e-06
7.14651e-06
7.18941e-06
7.23056e-06
6.68999e-06
6.74828e-06
6.79751e-06
6.84589e-06
6.89328e-06
6.93953e-06
6.98448e-06
7.02799e-06
7.06992e-06
7.11014e-06
6.5813e-06
6.63805e-06
6.68621e-06
6.73354e-06
6.7799e-06
6.82513e-06
6.86909e-06
6.91163e-06
6.95263e-06
6.99194e-06
6.47447e-06
6.52974e-06
6.57685e-06
6.62316e-06
6.66851e-06
6.71276e-06
6.75576e-06
6.79737e-06
6.83745e-06
6.87588e-06
1.10538e-05
1.08449e-05
1.06422e-05
1.04452e-05
1.02538e-05
1.00677e-05
9.88654e-06
9.71012e-06
9.53821e-06
9.3706e-06
9.20709e-06
9.0475e-06
8.89165e-06
8.73939e-06
8.59056e-06
8.44501e-06
8.30262e-06
8.16325e-06
8.0268e-06
7.89314e-06
7.76218e-06
7.63381e-06
7.50794e-06
7.38448e-06
7.26335e-06
7.14447e-06
7.02776e-06
6.91316e-06
6.80059e-06
6.68999e-06
6.5813e-06
6.47447e-06
1.12107e-05
1.09949e-05
1.07858e-05
1.05829e-05
1.03859e-05
1.01945e-05
1.00084e-05
9.82737e-06
9.65108e-06
9.47933e-06
9.31192e-06
9.14864e-06
8.9893e-06
8.83372e-06
8.68174e-06
8.53322e-06
8.38799e-06
8.24593e-06
8.1069e-06
7.97079e-06
7.83749e-06
7.70689e-06
7.57889e-06
7.45339e-06
7.3303e-06
7.20954e-06
7.09104e-06
6.9747e-06
6.86047e-06
6.74828e-06
6.63805e-06
6.52974e-06
6.42327e-06
1.13177e-05
1.10984e-05
1.08859e-05
1.06798e-05
1.04797e-05
1.02855e-05
1.00966e-05
9.91293e-06
9.73416e-06
9.56005e-06
9.39039e-06
9.22495e-06
9.06355e-06
8.906e-06
8.75214e-06
8.6018e-06
8.45484e-06
8.31111e-06
8.17048e-06
8.03283e-06
7.89804e-06
7.766e-06
7.63661e-06
7.50978e-06
7.3854e-06
7.26339e-06
7.14367e-06
7.02617e-06
6.9108e-06
6.79751e-06
6.68621e-06
6.57685e-06
6.46938e-06
6.36373e-06
6.25984e-06
6.15768e-06
6.05718e-06
5.95831e-06
1.14236e-05
1.12006e-05
1.09847e-05
1.07754e-05
1.05723e-05
1.03752e-05
1.01836e-05
9.99733e-06
9.81609e-06
9.63963e-06
9.46772e-06
9.30014e-06
9.1367e-06
8.9772e-06
8.82146e-06
8.66933e-06
8.52064e-06
8.37525e-06
8.23304e-06
8.09386e-06
7.95759e-06
7.82414e-06
7.69338e-06
7.56522e-06
7.43957e-06
7.31633e-06
7.19542e-06
7.07676e-06
6.96027e-06
6.84589e-06
6.73354e-06
6.62316e-06
6.51469e-06
6.40807e-06
6.30325e-06
6.20017e-06
6.09879e-06
5.99905e-06
1.15279e-05
1.13014e-05
1.10821e-05
1.08696e-05
1.06635e-05
1.04634e-05
1.02692e-05
1.00803e-05
9.89661e-06
9.71782e-06
9.54369e-06
9.37399e-06
9.20852e-06
9.04708e-06
8.8895e-06
8.73559e-06
8.5852e-06
8.43818e-06
8.29439e-06
8.1537e-06
8.01599e-06
7.88113e-06
7.74903e-06
7.61957e-06
7.49266e-06
7.3682e-06
7.24611e-06
7.12632e-06
7.00873e-06
6.89328e-06
6.77989e-06
6.66851e-06
6.55906e-06
6.4515e-06
6.34575e-06
6.24178e-06
6.13952e-06
6.03893e-06
1.16303e-05
1.14002e-05
1.11776e-05
1.09619e-05
1.07528e-05
1.055e-05
1.0353e-05
1.01616e-05
9.97548e-06
9.79438e-06
9.61806e-06
9.44627e-06
9.2788e-06
9.11545e-06
8.95604e-06
8.80038e-06
8.64832e-06
8.49969e-06
8.35436e-06
8.21218e-06
8.07304e-06
7.93681e-06
7.80338e-06
7.67264e-06
7.54449e-06
7.41884e-06
7.2956e-06
7.17469e-06
7.05602e-06
6.93953e-06
6.82513e-06
6.71276e-06
6.60236e-06
6.49386e-06
6.38721e-06
6.28236e-06
6.17925e-06
6.07783e-06
5.97805e-06
1.17305e-05
1.14969e-05
1.12709e-05
1.10521e-05
1.08401e-05
1.06345e-05
1.04348e-05
1.02409e-05
1.00524e-05
9.86907e-06
9.69059e-06
9.51674e-06
9.34731e-06
9.18209e-06
9.02088e-06
8.8635e-06
8.70979e-06
8.55959e-06
8.41274e-06
8.26911e-06
8.12857e-06
7.99099e-06
7.85626e-06
7.72427e-06
7.59491e-06
7.4681e-06
7.34373e-06
7.22172e-06
7.102e-06
6.98448e-06
6.86909e-06
6.75576e-06
6.64442e-06
6.53502e-06
6.42749e-06
6.32178e-06
6.21783e-06
6.11559e-06
6.01502e-06
1.18281e-05
1.15911e-05
1.13619e-05
1.114e-05
1.09251e-05
1.07167e-05
1.05144e-05
1.03181e-05
1.01272e-05
9.94165e-06
9.76105e-06
9.58518e-06
9.41383e-06
9.24677e-06
9.0838e-06
8.92475e-06
8.76943e-06
8.61768e-06
8.46935e-06
8.3243e-06
8.18239e-06
8.0435e-06
7.9075e-06
7.77429e-06
7.64375e-06
7.5158e-06
7.39033e-06
7.26726e-06
7.14651e-06
7.02799e-06
6.91163e-06
6.79736e-06
6.68512e-06
6.57483e-06
6.46644e-06
6.3599e-06
6.25514e-06
6.15211e-06
6.05077e-06
1.19229e-05
1.16824e-05
1.145e-05
1.12251e-05
1.10074e-05
1.07963e-05
1.05915e-05
1.03927e-05
1.01996e-05
1.00119e-05
9.82919e-06
9.65136e-06
9.47813e-06
9.30928e-06
9.14461e-06
8.98392e-06
8.82703e-06
8.67378e-06
8.52401e-06
8.37758e-06
8.23434e-06
8.09416e-06
7.95693e-06
7.82253e-06
7.69085e-06
7.5618e-06
7.43526e-06
7.31116e-06
7.18941e-06
7.06992e-06
6.95263e-06
6.83745e-06
6.72432e-06
6.61318e-06
6.50396e-06
6.3966e-06
6.29105e-06
6.18726e-06
6.08517e-06
1.20144e-05
1.17706e-05
1.15351e-05
1.13073e-05
1.10867e-05
1.0873e-05
1.06658e-05
1.04647e-05
1.02693e-05
1.00795e-05
9.89479e-06
9.71505e-06
9.54e-06
9.36941e-06
9.20308e-06
9.0408e-06
8.8824e-06
8.72769e-06
8.57653e-06
8.42876e-06
8.28423e-06
8.14282e-06
8.0044e-06
7.86885e-06
7.73606e-06
7.60594e-06
7.47837e-06
7.35327e-06
7.23056e-06
7.11014e-06
6.99194e-06
6.87588e-06
6.7619e-06
6.64993e-06
6.53991e-06
6.43177e-06
6.32547e-06
6.22093e-06
6.11813e-06
1.21023e-05
1.18553e-05
1.16167e-05
1.13861e-05
1.11629e-05
1.09466e-05
1.0737e-05
1.05336e-05
1.03361e-05
1.01442e-05
9.9576e-06
9.77602e-06
9.59921e-06
9.42695e-06
9.25902e-06
9.09521e-06
8.93534e-06
8.77924e-06
8.62673e-06
8.47767e-06
8.3319e-06
8.1893e-06
8.04973e-06
7.91308e-06
7.77923e-06
7.64808e-06
7.51952e-06
7.39346e-06
7.26982e-06
7.1485e-06
7.02943e-06
6.91254e-06
6.79774e-06
6.68498e-06
6.57419e-06
6.4653e-06
6.35827e-06
6.25303e-06
6.14953e-06
1.19361e-05
1.16947e-05
1.14613e-05
1.12355e-05
1.10168e-05
1.08049e-05
1.05993e-05
1.03997e-05
1.02059e-05
1.00174e-05
9.83406e-06
9.65556e-06
9.4817e-06
9.31223e-06
9.14696e-06
8.98569e-06
8.82824e-06
8.67444e-06
8.52415e-06
8.3772e-06
8.23345e-06
8.09279e-06
7.95508e-06
7.82022e-06
7.68808e-06
7.55858e-06
7.4316e-06
7.30707e-06
7.1849e-06
7.065e-06
6.9473e-06
6.83173e-06
6.71821e-06
6.60669e-06
6.49709e-06
6.38936e-06
6.28345e-06
6.1793e-06
1.17686e-05
1.15325e-05
1.13043e-05
1.10833e-05
1.08691e-05
1.06615e-05
1.046e-05
1.02642e-05
1.0074e-05
9.88895e-06
9.70885e-06
9.53345e-06
9.36252e-06
9.19585e-06
9.03325e-06
8.87452e-06
8.7195e-06
8.56803e-06
8.41995e-06
8.27513e-06
8.13342e-06
7.99471e-06
7.85888e-06
7.72581e-06
7.59541e-06
7.46757e-06
7.3422e-06
7.21922e-06
7.09853e-06
6.98007e-06
6.86376e-06
6.74952e-06
6.6373e-06
6.52703e-06
6.41865e-06
6.3121e-06
6.20732e-06
1.18381e-05
1.15996e-05
1.1369e-05
1.11458e-05
1.09296e-05
1.072e-05
1.05166e-05
1.03191e-05
1.01271e-05
9.94049e-06
9.75887e-06
9.58202e-06
9.40971e-06
9.24172e-06
9.07786e-06
8.91792e-06
8.76175e-06
8.60917e-06
8.46003e-06
8.31418e-06
8.17149e-06
8.03184e-06
7.89509e-06
7.76115e-06
7.6299e-06
7.50124e-06
7.37508e-06
7.25133e-06
7.12991e-06
7.01073e-06
6.89373e-06
6.77882e-06
6.66594e-06
6.55504e-06
6.44604e-06
6.33889e-06
6.23353e-06
1.16622e-05
1.14294e-05
1.12041e-05
1.09859e-05
1.07744e-05
1.05693e-05
1.03701e-05
1.01766e-05
9.98848e-06
9.80543e-06
9.62723e-06
9.45362e-06
9.2844e-06
9.11936e-06
8.95829e-06
8.80104e-06
8.64742e-06
8.49728e-06
8.35048e-06
8.20687e-06
8.06633e-06
7.92874e-06
7.79397e-06
7.66193e-06
7.53251e-06
7.40561e-06
7.28115e-06
7.15904e-06
7.03919e-06
6.92154e-06
6.806e-06
6.69252e-06
6.58102e-06
6.47145e-06
6.36374e-06
6.25784e-06
1.172e-05
1.14851e-05
1.12579e-05
1.10379e-05
1.08247e-05
1.06179e-05
1.04172e-05
1.02223e-05
1.00327e-05
9.84837e-06
9.66891e-06
9.4941e-06
9.32373e-06
9.15759e-06
8.99548e-06
8.83722e-06
8.68264e-06
8.53159e-06
8.3839e-06
8.23944e-06
8.09808e-06
7.9597e-06
7.82418e-06
7.6914e-06
7.56128e-06
7.4337e-06
7.30857e-06
7.18582e-06
7.06536e-06
6.94711e-06
6.83099e-06
6.71695e-06
6.6049e-06
6.4948e-06
6.38657e-06
6.28017e-06
1.1536e-05
1.13071e-05
1.10854e-05
1.08706e-05
1.06623e-05
1.04602e-05
1.02639e-05
1.00731e-05
9.88752e-06
9.7069e-06
9.53099e-06
9.35957e-06
9.19243e-06
9.02936e-06
8.87018e-06
8.71472e-06
8.56282e-06
8.41432e-06
8.26908e-06
8.12698e-06
7.98788e-06
7.85166e-06
7.71822e-06
7.58744e-06
7.45924e-06
7.33352e-06
7.21018e-06
7.08916e-06
6.97036e-06
6.85371e-06
6.73916e-06
6.62661e-06
6.51602e-06
6.40733e-06
6.30047e-06
1.13513e-05
1.11281e-05
1.09119e-05
1.07023e-05
1.04989e-05
1.03014e-05
1.01094e-05
9.92272e-06
9.74105e-06
9.56415e-06
9.39178e-06
9.22373e-06
9.05979e-06
8.89979e-06
8.74353e-06
8.59087e-06
8.44164e-06
8.2957e-06
8.15292e-06
8.01317e-06
7.87633e-06
7.74228e-06
7.61092e-06
7.48216e-06
7.35589e-06
7.23204e-06
7.1105e-06
6.99121e-06
6.87409e-06
6.75907e-06
6.64608e-06
6.53506e-06
6.42594e-06
6.31867e-06
1.13905e-05
1.1166e-05
1.09485e-05
1.07376e-05
1.05331e-05
1.03345e-05
1.01415e-05
9.95383e-06
9.77124e-06
9.59345e-06
9.42024e-06
9.25138e-06
9.08668e-06
8.92594e-06
8.76898e-06
8.61564e-06
8.46576e-06
8.3192e-06
8.17582e-06
8.03549e-06
7.8981e-06
7.76352e-06
7.63164e-06
7.50238e-06
7.37564e-06
7.25131e-06
7.12933e-06
7.00961e-06
6.89207e-06
6.77664e-06
6.66325e-06
6.55184e-06
6.44235e-06
6.33472e-06
1.14244e-05
1.11987e-05
1.09801e-05
1.07682e-05
1.05627e-05
1.03631e-05
1.01692e-05
9.98074e-06
9.79734e-06
9.61878e-06
9.44484e-06
9.27529e-06
9.10991e-06
8.94853e-06
8.79096e-06
8.63704e-06
8.4866e-06
8.3395e-06
8.1956e-06
8.05477e-06
7.91689e-06
7.78185e-06
7.64953e-06
7.51984e-06
7.39268e-06
7.26796e-06
7.14558e-06
7.02548e-06
6.90758e-06
6.79179e-06
6.67806e-06
6.56632e-06
6.45651e-06
6.34856e-06
1.14529e-05
1.12262e-05
1.10067e-05
1.07939e-05
1.05875e-05
1.03872e-05
1.01925e-05
1.00033e-05
9.81925e-06
9.64005e-06
9.46549e-06
9.29535e-06
9.12941e-06
8.96749e-06
8.80941e-06
8.65499e-06
8.50408e-06
8.35652e-06
8.21219e-06
8.07094e-06
7.93266e-06
7.79723e-06
7.66454e-06
7.53448e-06
7.40697e-06
7.28191e-06
7.15921e-06
7.03879e-06
6.92058e-06
6.8045e-06
6.69048e-06
6.57846e-06
6.46837e-06
6.36016e-06
1.12483e-05
1.10281e-05
1.08146e-05
1.06075e-05
1.04065e-05
1.02113e-05
1.00215e-05
9.83689e-06
9.65716e-06
9.48211e-06
9.31149e-06
9.1451e-06
8.98275e-06
8.82425e-06
8.66943e-06
8.51814e-06
8.37022e-06
8.22553e-06
8.08394e-06
7.94534e-06
7.80959e-06
7.6766e-06
7.54625e-06
7.41846e-06
7.29312e-06
7.17016e-06
7.04949e-06
6.93103e-06
6.81471e-06
6.70046e-06
6.58821e-06
6.47791e-06
6.36949e-06
1.1265e-05
1.10442e-05
1.08302e-05
1.06226e-05
1.04211e-05
1.02254e-05
1.00352e-05
9.85018e-06
9.67006e-06
9.49462e-06
9.32365e-06
9.15692e-06
8.99424e-06
8.83542e-06
8.68031e-06
8.52873e-06
8.38053e-06
8.23558e-06
8.09374e-06
7.95488e-06
7.8189e-06
7.68568e-06
7.55511e-06
7.4271e-06
7.30156e-06
7.1784e-06
7.05754e-06
6.93889e-06
6.82239e-06
6.70797e-06
6.59555e-06
6.48509e-06
6.3765e-06
1.1055e-05
1.08406e-05
1.06327e-05
1.04309e-05
1.02349e-05
1.00444e-05
9.85906e-06
9.67868e-06
9.503e-06
9.33178e-06
9.16482e-06
9.00192e-06
8.8429e-06
8.68758e-06
8.53581e-06
8.38742e-06
8.24229e-06
8.10028e-06
7.96126e-06
7.82512e-06
7.69175e-06
7.56103e-06
7.43289e-06
7.30721e-06
7.18391e-06
7.06292e-06
6.94415e-06
6.82753e-06
6.71299e-06
6.60046e-06
6.48988e-06
6.38119e-06
1.10604e-05
1.08458e-05
1.06378e-05
1.04358e-05
1.02396e-05
1.0049e-05
9.86352e-06
9.68301e-06
9.50719e-06
9.33586e-06
9.16878e-06
9.00577e-06
8.84664e-06
8.69122e-06
8.53935e-06
8.39088e-06
8.24566e-06
8.10356e-06
7.96446e-06
7.82824e-06
7.69479e-06
7.564e-06
7.43578e-06
7.31003e-06
7.18667e-06
7.06562e-06
6.94678e-06
6.8301e-06
6.7155e-06
6.60292e-06
6.49229e-06
6.38354e-06
1.08458e-05
1.06378e-05
1.04358e-05
1.02396e-05
1.0049e-05
9.86352e-06
9.68301e-06
9.50719e-06
9.33586e-06
9.16878e-06
9.00577e-06
8.84664e-06
8.69122e-06
8.53935e-06
8.39088e-06
8.24566e-06
8.10356e-06
7.96446e-06
7.82824e-06
7.69479e-06
7.564e-06
7.43578e-06
7.31003e-06
7.18667e-06
7.06562e-06
6.94678e-06
6.8301e-06
6.7155e-06
6.60292e-06
6.49228e-06
6.38354e-06
1.08406e-05
1.06327e-05
1.04309e-05
1.02349e-05
1.00444e-05
9.85906e-06
9.67868e-06
9.503e-06
9.33178e-06
9.16482e-06
9.00192e-06
8.8429e-06
8.68758e-06
8.53581e-06
8.38742e-06
8.24229e-06
8.10028e-06
7.96127e-06
7.82512e-06
7.69175e-06
7.56104e-06
7.43289e-06
7.30721e-06
7.18391e-06
7.06292e-06
6.94415e-06
6.82753e-06
6.71299e-06
6.60046e-06
6.48988e-06
6.38119e-06
1.08302e-05
1.06226e-05
1.04211e-05
1.02254e-05
1.00352e-05
9.85018e-06
9.67006e-06
9.49462e-06
9.32365e-06
9.15692e-06
8.99424e-06
8.83543e-06
8.68031e-06
8.52873e-06
8.38053e-06
8.23558e-06
8.09374e-06
7.95488e-06
7.8189e-06
7.68568e-06
7.55511e-06
7.4271e-06
7.30156e-06
7.1784e-06
7.05754e-06
6.93889e-06
6.82239e-06
6.70797e-06
6.59555e-06
6.48509e-06
6.3765e-06
1.08146e-05
1.06075e-05
1.04065e-05
1.02113e-05
1.00215e-05
9.83689e-06
9.65716e-06
9.48211e-06
9.31149e-06
9.1451e-06
8.98275e-06
8.82425e-06
8.66943e-06
8.51814e-06
8.37022e-06
8.22553e-06
8.08394e-06
7.94534e-06
7.80959e-06
7.6766e-06
7.54625e-06
7.41846e-06
7.29312e-06
7.17016e-06
7.04949e-06
6.93103e-06
6.81471e-06
6.70046e-06
6.58821e-06
6.47791e-06
6.36949e-06
1.07939e-05
1.05875e-05
1.03872e-05
1.01925e-05
1.00033e-05
9.81925e-06
9.64005e-06
9.46549e-06
9.29535e-06
9.12941e-06
8.96749e-06
8.80941e-06
8.65499e-06
8.50408e-06
8.35652e-06
8.21219e-06
8.07094e-06
7.93266e-06
7.79723e-06
7.66454e-06
7.53448e-06
7.40697e-06
7.28191e-06
7.15921e-06
7.03879e-06
6.92058e-06
6.8045e-06
6.69048e-06
6.57846e-06
6.46837e-06
6.36016e-06
1.07682e-05
1.05627e-05
1.03631e-05
1.01692e-05
9.98074e-06
9.79734e-06
9.61879e-06
9.44484e-06
9.27529e-06
9.10991e-06
8.94853e-06
8.79096e-06
8.63704e-06
8.4866e-06
8.3395e-06
8.1956e-06
8.05477e-06
7.9169e-06
7.78185e-06
7.64954e-06
7.51984e-06
7.39268e-06
7.26796e-06
7.14558e-06
7.02548e-06
6.90758e-06
6.79179e-06
6.67806e-06
6.56632e-06
6.45651e-06
6.34856e-06
1.07376e-05
1.05331e-05
1.03345e-05
1.01415e-05
9.95383e-06
9.77124e-06
9.59345e-06
9.42024e-06
9.25138e-06
9.08668e-06
8.92594e-06
8.76898e-06
8.61564e-06
8.46576e-06
8.3192e-06
8.17582e-06
8.03549e-06
7.8981e-06
7.76352e-06
7.63165e-06
7.50238e-06
7.37564e-06
7.25131e-06
7.12933e-06
7.00961e-06
6.89207e-06
6.77664e-06
6.66325e-06
6.55184e-06
6.44235e-06
6.33472e-06
1.07023e-05
1.04989e-05
1.03014e-05
1.01094e-05
9.92272e-06
9.74105e-06
9.56415e-06
9.39178e-06
9.22373e-06
9.05979e-06
8.89979e-06
8.74353e-06
8.59087e-06
8.44164e-06
8.2957e-06
8.15292e-06
8.01317e-06
7.87633e-06
7.74228e-06
7.61092e-06
7.48216e-06
7.35589e-06
7.23204e-06
7.1105e-06
6.99121e-06
6.87409e-06
6.75907e-06
6.64608e-06
6.53506e-06
6.42594e-06
6.31867e-06
1.06623e-05
1.04602e-05
1.02639e-05
1.00731e-05
9.88752e-06
9.7069e-06
9.53099e-06
9.35957e-06
9.19243e-06
9.02936e-06
8.87018e-06
8.71472e-06
8.56282e-06
8.41432e-06
8.26909e-06
8.12698e-06
7.98788e-06
7.85166e-06
7.71822e-06
7.58744e-06
7.45924e-06
7.33352e-06
7.21018e-06
7.08916e-06
6.97036e-06
6.85371e-06
6.73915e-06
6.62661e-06
6.51602e-06
6.40733e-06
6.30047e-06
1.0618e-05
1.04172e-05
1.02223e-05
1.00327e-05
9.84838e-06
9.66891e-06
9.4941e-06
9.32374e-06
9.15759e-06
8.99548e-06
8.83722e-06
8.68265e-06
8.53159e-06
8.3839e-06
8.23944e-06
8.09808e-06
7.9597e-06
7.82418e-06
7.6914e-06
7.56128e-06
7.4337e-06
7.30857e-06
7.18582e-06
7.06536e-06
6.94711e-06
6.83099e-06
6.71695e-06
6.6049e-06
6.4948e-06
6.38657e-06
6.28017e-06
1.05693e-05
1.03701e-05
1.01766e-05
9.98848e-06
9.80544e-06
9.62723e-06
9.45363e-06
9.2844e-06
9.11936e-06
8.9583e-06
8.80104e-06
8.64742e-06
8.49728e-06
8.35048e-06
8.20687e-06
8.06633e-06
7.92874e-06
7.79397e-06
7.66193e-06
7.53251e-06
7.40561e-06
7.28115e-06
7.15904e-06
7.03919e-06
6.92154e-06
6.806e-06
6.69252e-06
6.58102e-06
6.47145e-06