/*--------------------------------*- C++ -*----------------------------------*\
  =========                 |
  \\      /  F ield         | OpenFOAM: The Open Source CFD Toolbox
   \\    /   O peration     | Website:  https://openfoam.org
    \\  /    A nd           | Version:  7
     \\/     M anipulation  |
\*---------------------------------------------------------------------------*/
FoamFile
{
    version     2.0;
    format      ascii;
    class       volVectorField;
    location    "260000";
    object      vorticity;
}
// * * * * * * * * * * * * * * * * * * * * * * * * * * * * * * * * * * * * * //

dimensions      [0 0 -1 0 0 0 0];

internalField   nonuniform List<vector> 
4825
(
(0.0241354 0.0221658 1.94261e-17)
(0.0239921 0.0218783 2.01214e-17)
(0.0246287 0.0226464 2.06052e-17)
(0.0244982 0.0223384 2.19717e-17)
(0.0249585 0.0214011 2.57567e-17)
(0.0253942 0.0204589 9.9687e-18)
(0.0258063 0.0195134 1.1591e-17)
(0.0251361 0.0231405 2.01821e-17)
(0.0250185 0.0228112 2.27825e-17)
(0.0254883 0.0218536 2.78806e-17)
(0.0259333 0.020891 1.27816e-17)
(0.0263542 0.0199249 1.24714e-17)
(0.0256601 0.0236503 1.89803e-17)
(0.0255534 0.0232973 2.31911e-17)
(0.0260328 0.0223188 2.81358e-17)
(0.0264874 0.0213351 1.39291e-17)
(0.0269175 0.0203479 1.23242e-17)
(0.0262034 0.0241787 1.8438e-17)
(0.0261034 0.0237976 2.41269e-17)
(0.0265928 0.0227973 2.70158e-17)
(0.0270572 0.0217917 1.45438e-17)
(0.0274966 0.0207829 1.15325e-17)
(0.0267659 0.024726 1.90715e-17)
(0.02667 0.0243138 2.52932e-17)
(0.0271689 0.0232896 2.58281e-17)
(0.0276434 0.0222616 1.5697e-17)
(0.0280923 0.0212303 1.0616e-17)
(0.0273467 0.0252918 2.05562e-17)
(0.0272568 0.0248493 2.60091e-17)
(0.0277643 0.0237985 2.46833e-17)
(0.0282477 0.0227459 1.7095e-17)
(0.0287055 0.0216909 9.18697e-18)
(0.027946 0.0258758 2.16812e-17)
(0.027867 0.0254065 2.608e-17)
(0.0283831 0.0243276 2.37829e-17)
(0.0288742 0.0232481 1.83718e-17)
(0.0293395 0.0221671 7.86205e-18)
(0.0285643 0.0264779 2.18153e-17)
(0.0284999 0.0259843 2.62186e-17)
(0.0290263 0.0248779 2.33741e-17)
(0.0295258 0.0237708 2.00002e-17)
(0.0299988 0.0226625 6.97333e-18)
(0.029202 0.0270984 2.09928e-17)
(0.0291536 0.0265807 2.62697e-17)
(0.029692 0.0254474 2.37041e-17)
(0.0302019 0.0243133 2.17188e-17)
(0.0306842 0.0231777 5.72637e-18)
(0.0298597 0.0277378 1.93676e-17)
(0.0298275 0.0271953 2.60357e-17)
(0.0303791 0.0260353 2.47129e-17)
(0.0309008 0.024874 2.31989e-17)
(0.0313936 0.0237111 4.13947e-18)
(0.030538 0.0283968 1.72667e-17)
(0.030522 0.0278283 2.55625e-17)
(0.0310874 0.0266412 2.58692e-17)
(0.0316217 0.0254523 2.46425e-17)
(0.0321261 0.0242617 3.76824e-18)
(0.0312376 0.0290763 1.5333e-17)
(0.0312377 0.0284805 2.52341e-17)
(0.0318174 0.0272657 2.69722e-17)
(0.0323649 0.0260486 2.59412e-17)
(0.0328816 0.0248296 4.12511e-18)
(0.0319596 0.0297772 1.38553e-17)
(0.0319756 0.0291527 2.52538e-17)
(0.0325701 0.0279093 2.73412e-17)
(0.0331312 0.0266632 2.65736e-17)
(0.032705 0.0305006 1.32337e-17)
(0.032737 0.0298463 2.53333e-17)
(0.0333464 0.0285732 2.67306e-17)
(0.0339215 0.0272971 2.841e-17)
(0.033475 0.0312476 1.27407e-17)
(0.0335232 0.0305622 2.51089e-17)
(0.0341478 0.0292583 2.49697e-17)
(0.0347372 0.0279513 3.05203e-17)
(0.0342708 0.0320195 1.17936e-17)
(0.0343355 0.0313019 2.4554e-17)
(0.0349756 0.029966 2.56224e-17)
(0.035094 0.0328178 1.10367e-17)
(0.0351754 0.0320667 2.41082e-17)
(0.0358313 0.0306975 2.78511e-17)
(0.0359459 0.0336437 9.90104e-18)
(0.0360444 0.032858 2.3601e-17)
(0.0368282 0.0344989 7.7832e-18)
(0.0369442 0.0336772 2.32698e-17)
(0.0377425 0.035385 5.13526e-18)
(0.0378765 0.0345261 2.22255e-17)
(0.0386906 0.0363037 1.83029e-18)
(0.0388431 0.0354061 2.40851e-17)
(0.0396745 0.0372568 5.17543e-19)
(0.0398459 0.0363191 2.79149e-17)
(0.040696 0.0382463 -6.67837e-20)
(-0.0162285 0.0180702 1.22724e-17)
(-0.0162109 0.0177608 3.86783e-18)
(-0.0155344 0.0180891 4.94561e-18)
(-0.0148551 0.0183999 -3.87237e-18)
(-0.014173 0.0186939 1.83507e-19)
(-0.0134885 0.0189717 -5.15168e-19)
(-0.0128021 0.0192334 -7.82786e-18)
(-0.0121141 0.0194795 -5.62598e-18)
(-0.0114247 0.0197103 -7.46937e-18)
(-0.0107343 0.019926 -8.35024e-18)
(-0.0100431 0.0201269 -6.83478e-18)
(-0.00935134 0.0203133 -7.06413e-18)
(-0.00865908 0.0204854 3.01213e-18)
(-0.00796651 0.0206433 5.57441e-18)
(-0.00727374 0.0207874 -1.90763e-18)
(-0.00658085 0.0209178 -1.33023e-17)
(-0.00588793 0.0210347 -1.43107e-17)
(-0.00519501 0.0211381 -1.52459e-17)
(-0.00450214 0.0212284 -9.93265e-18)
(-0.00380933 0.0213055 -6.25332e-18)
(-0.016563 0.0184101 1.20733e-17)
(-0.0165294 0.0181109 4.1469e-18)
(-0.0158394 0.0184463 4.38841e-18)
(-0.0151465 0.0187638 -4.57231e-18)
(-0.0144509 0.0190641 1.27492e-18)
(-0.0137528 0.0193478 -1.74092e-20)
(-0.0130528 0.0196152 -6.91165e-18)
(-0.0123511 0.0198665 -5.24787e-18)
(-0.0116481 0.0201022 -6.37912e-18)
(-0.0109441 0.0203225 -7.06134e-18)
(-0.0102393 0.0205277 -7.29721e-18)
(-0.00953384 0.020718 -7.52189e-18)
(-0.00882798 0.0208937 3.02441e-18)
(-0.00812182 0.021055 5.2592e-18)
(-0.00741547 0.0212021 -1.77074e-18)
(-0.00670903 0.0213352 -1.25112e-17)
(-0.00600257 0.0214546 -1.24181e-17)
(-0.00529613 0.0215602 -1.34432e-17)
(-0.00458974 0.0216523 -8.70166e-18)
(-0.00388343 0.0217311 -5.19958e-18)
(-0.0169048 0.0187578 1.03007e-17)
(-0.016855 0.0184688 4.97731e-18)
(-0.0161512 0.0188115 5.31658e-18)
(-0.0154445 0.0191358 -4.19914e-18)
(-0.014735 0.0194426 2.19512e-18)
(-0.014023 0.0197323 5.81233e-20)
(-0.013309 0.0200054 -6.56562e-18)
(-0.0125933 0.0202621 -6.21583e-18)
(-0.0118764 0.0205028 -5.96321e-18)
(-0.0111584 0.0207277 -6.01656e-18)
(-0.0104397 0.0209372 -7.83686e-18)
(-0.00972034 0.0211316 -7.77886e-18)
(-0.00900057 0.021311 2.40326e-18)
(-0.00828052 0.0214756 3.81877e-18)
(-0.0075603 0.0216259 -2.52938e-18)
(-0.00684001 0.0217618 -1.22227e-17)
(-0.0061197 0.0218836 -1.14046e-17)
(-0.00539944 0.0219914 -1.27828e-17)
(-0.00467924 0.0220855 -8.83149e-18)
(-0.00395914 0.0221658 -4.68593e-18)
(-0.0172543 0.0191136 8.57712e-18)
(-0.0171881 0.0188349 6.14802e-18)
(-0.0164702 0.0191849 6.82041e-18)
(-0.0157493 0.0195162 -3.52552e-18)
(-0.0150255 0.0198296 2.84257e-18)
(-0.0142992 0.0201255 4.69987e-20)
(-0.013571 0.0204043 -6.84958e-18)
(-0.0128411 0.0206665 -8.01186e-18)
(-0.0121098 0.0209123 -5.81226e-18)
(-0.0113776 0.021142 -5.34427e-18)
(-0.0106446 0.0213559 -8.79551e-18)
(-0.009911 0.0215543 -7.83617e-18)
(-0.00917701 0.0217375 1.65549e-18)
(-0.00844275 0.0219056 2.40253e-18)
(-0.00770835 0.0220589 -3.27034e-18)
(-0.00697388 0.0221977 -1.21119e-17)
(-0.00623943 0.022322 -1.09009e-17)
(-0.00550503 0.0224321 -1.27646e-17)
(-0.00477072 0.0225281 -9.71625e-18)
(-0.00403651 0.0226101 -4.46373e-18)
(-0.0176118 0.0194778 7.86273e-18)
(-0.0175288 0.0192094 7.40928e-18)
(-0.0167965 0.019567 8.56644e-18)
(-0.0160611 0.0199054 -3.51905e-18)
(-0.0153227 0.0202254 3.13913e-18)
(-0.0145818 0.0205276 1.72409e-19)
(-0.0138389 0.0208124 -7.33367e-18)
(-0.0130944 0.0210801 -9.97815e-18)
(-0.0123486 0.0213311 -6.02581e-18)
(-0.0116017 0.0215656 -5.21416e-18)
(-0.0108541 0.021784 -9.68069e-18)
(-0.010106 0.0219866 -7.36042e-18)
(-0.00935743 0.0221736 1.18273e-18)
(-0.00860864 0.0223452 1.4903e-18)
(-0.00785972 0.0225018 -3.4766e-18)
(-0.00711077 0.0226434 -1.15365e-17)
(-0.00636184 0.0227703 -1.03401e-17)
(-0.00561299 0.0228827 -1.28756e-17)
(-0.00486425 0.0229806 -1.0605e-17)
(-0.00411562 0.0230644 -4.06973e-18)
(-0.0179775 0.0198506 7.62117e-18)
(-0.0178776 0.0195928 8.35453e-18)
(-0.0171304 0.0199581 1.02158e-17)
(-0.0163801 0.0203037 -4.40116e-18)
(-0.0156268 0.0206305 3.64152e-18)
(-0.014871 0.0209391 2.17033e-19)
(-0.0141131 0.0212299 -8.47996e-18)
(-0.0133536 0.0215033 -1.1373e-17)
(-0.0125928 0.0217595 -6.1219e-18)
(-0.011831 0.021999 -5.23862e-18)
(-0.0110685 0.022222 -1.04386e-17)
(-0.0103054 0.0224288 -6.91202e-18)
(-0.00954198 0.0226197 9.3171e-19)
(-0.00877832 0.0227949 6.50985e-19)
(-0.00801455 0.0229547 -3.31523e-18)
(-0.00725077 0.0230992 -1.06537e-17)
(-0.00648704 0.0232288 -9.85836e-18)
(-0.00572341 0.0233434 -1.31335e-17)
(-0.0049599 0.0234434 -1.14938e-17)
(-0.00419653 0.0235289 -3.63656e-18)
(-0.0183519 0.0202325 7.31647e-18)
(-0.0182346 0.0199852 8.94852e-18)
(-0.0174723 0.0203584 1.17636e-17)
(-0.0167067 0.0207113 -5.24427e-18)
(-0.0159381 0.0210451 4.25025e-18)
(-0.015167 0.0213603 -2.63871e-19)
(-0.0143938 0.0216573 -9.66682e-18)
(-0.0136189 0.0219364 -1.15034e-17)
(-0.0128428 0.022198 -6.04411e-18)
(-0.0120657 0.0224425 -5.7197e-18)
(-0.0112879 0.0226702 -1.161e-17)
(-0.0105095 0.0228813 -6.49776e-18)
(-0.00973083 0.0230761 7.09486e-19)
(-0.00895194 0.023255 -2.22239e-20)
(-0.00817298 0.0234181 -2.71181e-18)
(-0.00739402 0.0235656 -9.57315e-18)
(-0.00661514 0.0236978 -9.60903e-18)
(-0.00583638 0.0238148 -1.36989e-17)
(-0.00505777 0.0239169 -1.20827e-17)
(-0.00427931 0.0240041 -3.06718e-18)
(-0.0187351 0.0206236 6.65872e-18)
(-0.0186002 0.0203872 9.67666e-18)
(-0.0178224 0.0207683 1.36101e-17)
(-0.0170412 0.0211288 -5.37078e-18)
(-0.0162569 0.0214697 4.47702e-18)
(-0.01547 0.0217915 -1.26914e-18)
(-0.0146811 0.0220948 -1.04389e-17)
(-0.0138905 0.0223798 -1.12715e-17)
(-0.0130987 0.0226469 -6.01664e-18)
(-0.0123059 0.0228965 -6.44562e-18)
(-0.0115124 0.0231289 -1.31388e-17)
(-0.0107184 0.0233444 -5.76945e-18)
(-0.00992414 0.0235433 7.20875e-19)
(-0.00912966 0.0237259 1.06809e-19)
(-0.00833513 0.0238923 -2.20029e-18)
(-0.00754064 0.0240429 -8.40079e-18)
(-0.00674625 0.0241778 -9.37693e-18)
(-0.00595201 0.0242973 -1.46574e-17)
(-0.00515793 0.0244014 -1.27559e-17)
(-0.00436402 0.0244904 -2.68391e-18)
(-0.00357029 0.0245643 -6.42918e-18)
(-0.00277671 0.0246234 -4.2962e-18)
(-0.00198327 0.0246676 -5.14371e-18)
(-0.00118992 0.024697 -1.18937e-17)
(-0.000396632 0.0247117 -1.54988e-18)
(0.000396636 0.0247117 1.05919e-17)
(0.00118992 0.024697 2.33065e-18)
(0.00198327 0.0246676 6.94001e-18)
(0.00277672 0.0246234 6.84147e-18)
(0.0035703 0.0245643 5.10565e-18)
(0.00436403 0.0244904 -3.63752e-20)
(0.00515793 0.0244014 -2.54973e-18)
(0.00595201 0.0242973 6.47266e-18)
(0.00674626 0.0241778 2.79006e-18)
(0.00754065 0.0240429 -3.45939e-18)
(-0.0191276 0.0210245 6.19918e-18)
(-0.0189748 0.020799 1.07469e-17)
(-0.018181 0.0211883 1.49187e-17)
(-0.0173838 0.0215564 -5.44823e-18)
(-0.0165834 0.0219046 3.78001e-18)
(-0.0157804 0.0222332 -2.50314e-18)
(-0.0149754 0.0225428 -1.03015e-17)
(-0.0141687 0.0228338 -1.06669e-17)
(-0.0133608 0.0231066 -5.7125e-18)
(-0.0125519 0.0233614 -6.57365e-18)
(-0.0117424 0.0235987 -1.43107e-17)
(-0.0109324 0.0238187 -5.22939e-18)
(-0.0101221 0.0240217 5.18234e-19)
(-0.00931163 0.024208 1.03719e-18)
(-0.00850116 0.0243779 -2.11576e-18)
(-0.00769076 0.0245316 -7.57839e-18)
(-0.00688049 0.0246693 -9.19052e-18)
(-0.00607038 0.0247911 -1.52982e-17)
(-0.00526047 0.0248974 -1.34379e-17)
(-0.00445075 0.0249882 -2.70064e-18)
(-0.00364123 0.0250637 -5.39498e-18)
(-0.00283187 0.0251239 -4.34828e-18)
(-0.00202266 0.025169 -4.19165e-18)
(-0.00121355 0.0251991 -1.00123e-17)
(-0.000404508 0.0252141 -5.97488e-19)
(0.000404512 0.0252141 1.06099e-17)
(0.00121355 0.0251991 3.12218e-18)
(0.00202266 0.025169 7.76315e-18)
(0.00283188 0.0251239 7.50972e-18)
(0.00364123 0.0250637 5.6641e-18)
(0.00445076 0.0249882 -1.59817e-19)
(0.00526048 0.0248974 -2.72159e-18)
(0.00607039 0.0247911 5.33361e-18)
(0.00688049 0.0246692 1.26517e-18)
(0.00769077 0.0245316 -4.61552e-18)
(0.00850117 0.0243779 -2.47998e-18)
(0.00931163 0.024208 6.79259e-19)
(-0.0195297 0.0214355 5.79718e-18)
(-0.0193586 0.021221 1.13518e-17)
(-0.0185485 0.0216186 1.58045e-17)
(-0.0177348 0.0219946 -5.54236e-18)
(-0.0169179 0.0223501 3.02336e-18)
(-0.0160984 0.0226857 -2.32352e-18)
(-0.0152769 0.0230019 -9.4945e-18)
(-0.0144537 0.023299 -1.06213e-17)
(-0.0136293 0.0235775 -5.32528e-18)
(-0.012804 0.0238376 -6.74398e-18)
(-0.011978 0.0240798 -1.49301e-17)
(-0.0111515 0.0243044 -5.07751e-18)
(-0.0103248 0.0245116 -1.98001e-19)
(-0.00949801 0.0247018 2.54031e-18)
(-0.00867122 0.0248752 -1.96869e-18)
(-0.00784452 0.025032 -7.50405e-18)
(-0.00701797 0.0251725 -9.35166e-18)
(-0.00619162 0.0252969 -1.52328e-17)
(-0.00536549 0.0254054 -1.41558e-17)
(-0.00453958 0.025498 -3.00518e-18)
(-0.00371387 0.025575 -4.55025e-18)
(-0.00288836 0.0256365 -4.88003e-18)
(-0.00206299 0.0256825 -4.08825e-18)
(-0.00123775 0.0257132 -9.29647e-18)
(-0.000412573 0.0257285 -8.22509e-19)
(0.000412578 0.0257285 9.77772e-18)
(0.00123775 0.0257132 3.78576e-18)
(0.002063 0.0256825 8.41525e-18)
(0.00288836 0.0256365 7.40233e-18)
(0.00371388 0.025575 6.19888e-18)
(0.00453958 0.025498 3.90196e-19)
(0.00536549 0.0254054 -2.37895e-18)
(0.00619163 0.0252969 4.04142e-18)
(0.00701798 0.0251725 2.18964e-19)
(0.00784452 0.025032 -5.27347e-18)
(0.00867122 0.0248752 -3.0433e-18)
(0.00949802 0.0247018 -3.73941e-20)
(0.0103248 0.0245116 6.31538e-19)
(-0.0199418 0.0218569 5.9207e-18)
(-0.0197522 0.0216537 1.15788e-17)
(-0.0189253 0.0220598 1.62044e-17)
(-0.0180947 0.0224437 -5.45408e-18)
(-0.0172608 0.0228068 3.09892e-18)
(-0.0164244 0.0231495 -1.61524e-18)
(-0.0155859 0.0234724 -9.28459e-18)
(-0.0147458 0.0237757 -1.08435e-17)
(-0.0139044 0.02406 -5.00703e-18)
(-0.0130622 0.0243256 -7.49538e-18)
(-0.0122193 0.0245729 -1.50118e-17)
(-0.0113761 0.0248021 -5.35816e-18)
(-0.0105326 0.0250136 -7.26111e-19)
(-0.00968899 0.0252077 4.10373e-18)
(-0.00884545 0.0253847 -1.97378e-18)
(-0.00800205 0.0255448 -7.53467e-18)
(-0.00715883 0.0256882 -9.47205e-18)
(-0.00631584 0.0258151 -1.4958e-17)
(-0.00547308 0.0259257 -1.47637e-17)
(-0.00463058 0.0260203 -2.90089e-18)
(-0.0037883 0.0260989 -3.96893e-18)
(-0.00294622 0.0261616 -5.7779e-18)
(-0.00210432 0.0262085 -4.42055e-18)
(-0.00126254 0.0262398 -9.4613e-18)
(-0.000420836 0.0262554 -1.66501e-18)
(0.000420841 0.0262554 8.7235e-18)
(0.00126254 0.0262398 4.29307e-18)
(0.00210432 0.0262085 8.86067e-18)
(0.00294623 0.0261616 6.90095e-18)
(0.0037883 0.0260989 6.58214e-18)
(0.00463058 0.0260203 1.19184e-18)
(0.00547309 0.0259257 -1.56143e-18)
(0.00631584 0.0258151 2.79989e-18)
(0.00715883 0.0256882 -2.74382e-19)
(0.00800205 0.0255448 -5.01837e-18)
(0.00884546 0.0253847 -3.17465e-18)
(0.00968899 0.0252077 -5.8237e-20)
(0.0105326 0.0250136 5.29767e-20)
(0.0113761 0.0248021 -6.38236e-18)
(0.0122193 0.0245729 -1.58336e-17)
(-0.0203642 0.0222891 7.07959e-18)
(-0.0201557 0.0220974 1.11235e-17)
(-0.0193116 0.0225121 1.62614e-17)
(-0.0184637 0.0229043 -4.61831e-18)
(-0.0176124 0.023275 3.87559e-18)
(-0.0167586 0.023625 -1.15431e-18)
(-0.0159027 0.0239547 -1.00617e-17)
(-0.0150452 0.0242644 -1.1602e-17)
(-0.0141865 0.0245547 -4.17814e-18)
(-0.0133269 0.0248259 -7.87918e-18)
(-0.0124668 0.0250783 -1.4867e-17)
(-0.0116062 0.0253123 -6.21101e-18)
(-0.0107455 0.0255282 -1.2889e-18)
(-0.00988473 0.0257263 5.06813e-18)
(-0.00902404 0.0259069 -2.10685e-18)
(-0.0081635 0.0260702 -7.59873e-18)
(-0.00730319 0.0262166 -9.45819e-18)
(-0.00644314 0.0263461 -1.44619e-17)
(-0.00558335 0.026459 -1.49998e-17)
(-0.00472383 0.0265555 -2.75982e-18)
(-0.00386457 0.0266357 -3.58587e-18)
(-0.00300553 0.0266996 -6.38594e-18)
(-0.00214667 0.0267475 -4.46491e-18)
(-0.00128794 0.0267794 -9.75083e-18)
(-0.000429304 0.0267954 -2.36789e-18)
(0.000429309 0.0267954 8.12232e-18)
(0.00128795 0.0267794 5.18193e-18)
(0.00214667 0.0267475 9.34944e-18)
(0.00300553 0.0266996 6.33237e-18)
(0.00386457 0.0266357 6.74585e-18)
(0.00472384 0.0265555 1.33558e-18)
(0.00558336 0.026459 -6.73737e-19)
(0.00644314 0.0263461 2.12309e-18)
(0.0073032 0.0262166 -6.70522e-19)
(0.00816351 0.0260702 -4.22772e-18)
(0.00902404 0.0259069 -3.19205e-18)
(0.00988473 0.0257263 2.71756e-19)
(0.0107455 0.0255282 -2.84054e-19)
(0.0116062 0.0253123 -7.671e-18)
(0.0124668 0.0250783 -1.82502e-17)
(0.0133269 0.0248259 4.6084e-18)
(0.0141865 0.0245547 4.15974e-18)
(-0.0207974 0.0227326 8.32573e-18)
(-0.0205696 0.0225526 1.01378e-17)
(-0.0197079 0.0229762 1.68384e-17)
(-0.0188422 0.0233766 -3.23066e-18)
(-0.0179731 0.0237553 4.60635e-18)
(-0.0171014 0.0241127 -5.56163e-19)
(-0.0162276 0.0244493 -1.15778e-17)
(-0.0153523 0.0247656 -1.22871e-17)
(-0.0144758 0.025062 -2.89331e-18)
(-0.0135984 0.0253388 -8.04925e-18)
(-0.0127205 0.0255965 -1.48527e-17)
(-0.0118423 0.0258354 -7.23383e-18)
(-0.0109638 0.0260557 -2.16591e-18)
(-0.0100854 0.0262579 5.4392e-18)
(-0.00920714 0.0264423 -1.96581e-18)
(-0.00832904 0.026609 -7.52328e-18)
(-0.00745121 0.0267583 -9.1727e-18)
(-0.00657366 0.0268905 -1.40277e-17)
(-0.0056964 0.0270057 -1.53881e-17)
(-0.00481945 0.0271041 -2.78385e-18)
(-0.00394276 0.0271859 -3.24828e-18)
(-0.00306632 0.0272512 -6.688e-18)
(-0.00219008 0.0273001 -4.42049e-18)
(-0.00131399 0.0273326 -1.00578e-17)
(-0.000437985 0.0273489 -3.07471e-18)
(0.000437989 0.0273489 7.84841e-18)
(0.00131399 0.0273326 6.28618e-18)
(0.00219009 0.0273001 9.80785e-18)
(0.00306633 0.0272512 5.75212e-18)
(0.00394277 0.0271859 7.21151e-18)
(0.00481945 0.0271041 1.38515e-18)
(0.00569641 0.0270057 -4.34177e-19)
(0.00657366 0.0268905 1.53583e-18)
(0.00745121 0.0267583 -1.24949e-18)
(0.00832905 0.026609 -3.30806e-18)
(0.00920714 0.0264423 -2.76296e-18)
(0.0100854 0.0262579 3.48948e-19)
(0.0109638 0.0260557 -2.98557e-19)
(0.0118423 0.0258354 -8.00481e-18)
(0.0127205 0.0255965 -1.94142e-17)
(0.0135984 0.0253388 3.47123e-18)
(0.0144758 0.025062 3.48043e-18)
(0.0153523 0.0247656 5.2923e-18)
(0.0162276 0.0244493 1.09556e-17)
(0.0171014 0.0241127 1.90983e-17)
(-0.0212417 0.0231879 9.44053e-18)
(-0.0209944 0.0230198 9.23725e-18)
(-0.0201146 0.0234523 1.74031e-17)
(-0.0192305 0.0238613 -2.38387e-18)
(-0.0183431 0.024248 5.03914e-18)
(-0.017453 0.024613 7.15666e-20)
(-0.0165609 0.0249568 -1.33147e-17)
(-0.0156673 0.0252798 -1.29674e-17)
(-0.0147725 0.0255824 -1.79664e-18)
(-0.0138769 0.025865 -7.83558e-18)
(-0.0129808 0.0261281 -1.51083e-17)
(-0.0120843 0.0263719 -8.5839e-18)
(-0.0111878 0.0265969 -3.1984e-18)
(-0.0102913 0.0268032 6.23538e-18)
(-0.00939494 0.0269914 -1.05185e-18)
(-0.00849883 0.0271615 -7.72453e-18)
(-0.00760301 0.0273139 -9.21349e-18)
(-0.00670751 0.0274488 -1.36518e-17)
(-0.00581235 0.0275663 -1.56613e-17)
(-0.0049175 0.0276668 -2.72939e-18)
(-0.00402296 0.0277502 -2.90825e-18)
(-0.00312868 0.0278169 -6.93412e-18)
(-0.00223461 0.0278667 -4.30956e-18)
(-0.0013407 0.0278999 -1.00387e-17)
(-0.000446887 0.0279165 -3.80283e-18)
(0.000446892 0.0279165 7.79718e-18)
(0.0013407 0.0278999 7.48501e-18)
(0.00223461 0.0278667 1.01869e-17)
(0.00312868 0.0278169 5.15293e-18)
(0.00402296 0.0277502 7.58878e-18)
(0.00491751 0.0276668 1.5749e-18)
(0.00581235 0.0275663 -2.08596e-19)
(0.00670752 0.0274488 1.20794e-18)
(0.00760302 0.0273139 -2.15608e-18)
(0.00849883 0.0271615 -2.70441e-18)
(0.00939495 0.0269914 -1.83435e-18)
(0.0102913 0.0268032 3.45763e-19)
(0.0111878 0.0265968 -4.37927e-19)
(0.0120843 0.0263719 -7.7228e-18)
(0.0129808 0.0261281 -1.91997e-17)
(0.0138769 0.025865 2.51537e-18)
(0.0147725 0.0255824 2.92835e-18)
(0.0156673 0.0252798 5.14326e-18)
(0.0165609 0.0249568 1.06745e-17)
(0.017453 0.024613 1.77684e-17)
(0.0183431 0.024248 1.93785e-17)
(0.0192305 0.0238613 2.09625e-17)
(-0.0216977 0.0236553 1.03697e-17)
(-0.0214305 0.0234995 8.97126e-18)
(-0.020532 0.0239411 1.75536e-17)
(-0.0196292 0.0243588 -1.77525e-18)
(-0.0187229 0.0247537 5.32521e-18)
(-0.017814 0.0251265 1.03109e-18)
(-0.0169031 0.0254776 -1.49016e-17)
(-0.0159906 0.0258074 -1.40991e-17)
(-0.015077 0.0261164 -1.23726e-18)
(-0.0141627 0.026405 -7.06189e-18)
(-0.0132479 0.0266735 -1.5242e-17)
(-0.0123328 0.0269225 -1.01685e-17)
(-0.0114176 0.0271521 -3.90904e-18)
(-0.0105025 0.0273627 7.28678e-18)
(-0.00958764 0.0275547 -1.72914e-19)
(-0.00867303 0.0277284 -7.83235e-18)
(-0.00775876 0.0278839 -9.38709e-18)
(-0.00684485 0.0280215 -1.34047e-17)
(-0.0059313 0.0281415 -1.56057e-17)
(-0.0050181 0.028244 -2.64256e-18)
(-0.00410523 0.0283291 -2.729e-18)
(-0.00319264 0.0283971 -7.22925e-18)
(-0.00228029 0.028448 -3.92675e-18)
(-0.0013681 0.0284819 -9.61211e-18)
(-0.000456021 0.0284988 -4.59583e-18)
(0.000456025 0.0284988 7.68913e-18)
(0.00136811 0.0284819 8.61371e-18)
(0.00228029 0.028448 1.06317e-17)
(0.00319265 0.0283971 4.568e-18)
(0.00410523 0.0283291 8.01851e-18)
(0.00501811 0.028244 1.94159e-18)
(0.0059313 0.0281415 -1.6851e-19)
(0.00684485 0.0280215 1.07809e-18)
(0.00775877 0.0278839 -2.93379e-18)
(0.00867304 0.0277284 -2.61925e-18)
(0.00958764 0.0275547 -8.1895e-19)
(0.0105025 0.0273627 3.01926e-19)
(0.0114176 0.0271521 -9.88829e-19)
(0.0123328 0.0269224 -7.50025e-18)
(0.0132479 0.0266735 -1.81053e-17)
(0.0141627 0.026405 1.79894e-18)
(0.015077 0.0261164 2.21128e-18)
(0.0159906 0.0258074 5.25614e-18)
(0.016903 0.0254776 9.97326e-18)
(0.017814 0.0251265 1.67061e-17)
(0.0187229 0.0247537 1.84854e-17)
(0.0196292 0.0243588 2.1373e-17)
(0.020532 0.0239411 8.38555e-18)
(0.0214305 0.0234995 6.45514e-18)
(0.0216977 0.0236553 3.09978e-17)
(-0.0221658 0.0241354 1.09257e-17)
(-0.0218783 0.0239921 9.19466e-18)
(-0.0209607 0.024443 1.77674e-17)
(-0.0200385 0.0248695 -9.10268e-19)
(-0.0191128 0.025273 5.70599e-18)
(-0.0181845 0.0256537 2.09537e-18)
(-0.0172543 0.0260123 -1.5916e-17)
(-0.0163225 0.0263491 -1.55475e-17)
(-0.0153897 0.0266646 -1.04429e-18)
(-0.0144561 0.0269592 -6.06161e-18)
(-0.013522 0.0272334 -1.53934e-17)
(-0.0125878 0.0274875 -1.13345e-17)
(-0.0116535 0.0277219 -3.9673e-18)
(-0.0107193 0.027937 8.27109e-18)
(-0.00978542 0.0281329 5.24064e-19)
(-0.00885183 0.0283102 -8.25284e-18)
(-0.00791862 0.0284689 -9.95377e-18)
(-0.0069858 0.0286093 -1.28565e-17)
(-0.00605338 0.0287318 -1.5381e-17)
(-0.00512135 0.0288363 -3.1601e-18)
(-0.00418967 0.0289232 -2.64089e-18)
(-0.00325829 0.0289926 -7.39094e-18)
(-0.00232717 0.0290445 -3.30384e-18)
(-0.00139622 0.0290791 -8.90686e-18)
(-0.000465394 0.0290963 -5.39743e-18)
(0.000465399 0.0290963 7.54593e-18)
(0.00139623 0.0290791 9.72031e-18)
(0.00232717 0.0290445 1.09731e-17)
(0.0032583 0.0289926 3.69208e-18)
(0.00418967 0.0289232 8.57403e-18)
(0.00512135 0.0288363 2.60541e-18)
(0.00605339 0.0287317 6.31639e-21)
(0.00698581 0.0286093 9.85022e-19)
(0.00791863 0.0284689 -3.59499e-18)
(0.00885184 0.0283102 -2.76729e-18)
(0.00978542 0.0281329 -2.20029e-19)
(0.0107193 0.027937 -1.02071e-19)
(0.0116535 0.0277219 -1.57039e-18)
(0.0125878 0.0274875 -7.06248e-18)
(0.013522 0.0272334 -1.66108e-17)
(0.0144561 0.0269592 1.13751e-18)
(0.0153897 0.0266646 1.29845e-18)
(0.0163225 0.0263491 5.33031e-18)
(0.0172543 0.0260123 9.50392e-18)
(0.0181845 0.0256537 1.60101e-17)
(0.0191128 0.025273 1.69984e-17)
(0.0200385 0.0248695 2.07454e-17)
(0.0209607 0.024443 7.60848e-18)
(0.0218783 0.0239921 5.4651e-18)
(0.0221658 0.0241354 3.14918e-17)
(-0.0226465 0.0246287 1.10872e-17)
(-0.0223384 0.0244982 9.45245e-18)
(-0.0214011 0.0249585 1.79947e-17)
(-0.020459 0.0253942 1.14093e-19)
(-0.0195134 0.0258063 6.56104e-18)
(-0.0185652 0.0261952 2.77406e-18)
(-0.017615 0.0265614 -1.62822e-17)
(-0.0166634 0.0269054 -1.71348e-17)
(-0.0157107 0.0272276 -1.15102e-18)
(-0.0147573 0.0275284 -5.60751e-18)
(-0.0138036 0.0278084 -1.59591e-17)
(-0.0128496 0.0280678 -1.15195e-17)
(-0.0118957 0.0283071 -3.58763e-18)
(-0.010942 0.0285266 8.49283e-18)
(-0.0099885 0.0287266 4.97392e-19)
(-0.00903542 0.0289075 -8.42481e-18)
(-0.00808276 0.0290695 -9.80835e-18)
(-0.00713053 0.0292128 -1.2323e-17)
(-0.00617873 0.0293377 -1.54755e-17)
(-0.00522735 0.0294445 -3.90431e-18)
(-0.00427636 0.0295331 -2.64202e-18)
(-0.00332569 0.0296039 -7.49599e-18)
(-0.0023753 0.0296569 -2.47771e-18)
(-0.0014251 0.0296921 -8.08164e-18)
(-0.000475017 0.0297098 -6.2553e-18)
(0.000475022 0.0297098 7.32503e-18)
(0.0014251 0.0296921 1.10548e-17)
(0.0023753 0.0296569 1.13175e-17)
(0.0033257 0.0296039 2.50423e-18)
(0.00427636 0.0295331 9.04566e-18)
(0.00522736 0.0294445 3.59735e-18)
(0.00617873 0.0293377 3.55364e-19)
(0.00713053 0.0292128 8.82893e-19)
(0.00808276 0.0290695 -3.93611e-18)
(0.00903542 0.0289075 -2.69801e-18)
(0.0099885 0.0287266 -1.08293e-19)
(0.010942 0.0285266 -9.45485e-19)
(0.0118957 0.0283071 -2.15979e-18)
(0.0128496 0.0280678 -6.3376e-18)
(0.0138036 0.0278084 -1.54353e-17)
(0.0147573 0.0275284 1.6431e-19)
(0.0157107 0.0272276 -2.55624e-21)
(0.0166634 0.0269053 5.19149e-18)
(0.017615 0.0265614 1.02634e-17)
(0.0185652 0.0261952 1.61758e-17)
(0.0195134 0.0258063 1.50596e-17)
(0.0204589 0.0253942 1.9851e-17)
(0.0214011 0.0249585 7.32623e-18)
(0.0223384 0.0244982 4.98049e-18)
(0.0226464 0.0246287 3.07206e-17)
(-0.0231405 0.0251361 1.11091e-17)
(-0.0228112 0.0250185 1.00822e-17)
(-0.0218536 0.0254883 1.84524e-17)
(-0.020891 0.0259333 1.19407e-18)
(-0.0199249 0.0263542 7.01302e-18)
(-0.0189562 0.0267515 3.13822e-18)
(-0.0179856 0.0271256 -1.67661e-17)
(-0.0170136 0.0274768 -1.9207e-17)
(-0.0160405 0.0278059 -1.79908e-18)
(-0.0150668 0.0281131 -5.46118e-18)
(-0.0140928 0.028399 -1.65355e-17)
(-0.0131186 0.0286639 -1.13018e-17)
(-0.0121445 0.0289081 -2.86375e-18)
(-0.0111706 0.0291322 8.18774e-18)
(-0.0101971 0.0293364 -2.22765e-19)
(-0.00922399 0.029521 -8.33714e-18)
(-0.00825134 0.0296863 -8.8349e-18)
(-0.00727917 0.0298326 -1.17862e-17)
(-0.00630747 0.0299601 -1.58779e-17)
(-0.00533623 0.030069 -4.73866e-18)
(-0.00436539 0.0301595 -2.79699e-18)
(-0.00339492 0.0302317 -7.67581e-18)
(-0.00242473 0.0302858 -1.88759e-18)
(-0.00145475 0.0303217 -7.23114e-18)
(-0.000484901 0.0303397 -6.84845e-18)
(0.000484905 0.0303397 7.34143e-18)
(0.00145475 0.0303217 1.24889e-17)
(0.00242473 0.0302858 1.13948e-17)
(0.00339492 0.0302317 1.13251e-18)
(0.0043654 0.0301595 9.47848e-18)
(0.00533623 0.030069 4.80164e-18)
(0.00630747 0.0299601 9.69154e-19)
(0.00727917 0.0298326 9.33247e-19)
(0.00825134 0.0296863 -4.00414e-18)
(0.00922399 0.029521 -2.74121e-18)
(0.0101971 0.0293364 -2.1944e-19)
(0.0111706 0.0291322 -1.68434e-18)
(0.0121445 0.0289081 -2.5302e-18)
(0.0131186 0.0286638 -5.6675e-18)
(0.0140928 0.028399 -1.43883e-17)
(0.0150668 0.0281131 -8.40878e-19)
(0.0160405 0.0278059 -2.37284e-18)
(0.0170136 0.0274768 4.59746e-18)
(0.0179856 0.0271256 1.06878e-17)
(0.0189562 0.0267515 1.68844e-17)
(0.0199249 0.0263542 1.32535e-17)
(0.020891 0.0259333 1.93749e-17)
(0.0218536 0.0254883 7.93752e-18)
(0.0228112 0.0250185 5.62036e-18)
(0.0231405 0.0251361 2.94479e-17)
(-0.0236503 0.0256602 1.0577e-17)
(-0.0232973 0.0255534 1.10745e-17)
(-0.0223188 0.0260328 1.89648e-17)
(-0.0213351 0.0264874 2.36888e-18)
(-0.0203479 0.0269175 7.03662e-18)
(-0.0193582 0.0273233 3.29904e-18)
(-0.0183665 0.0277054 -1.6931e-17)
(-0.0173735 0.0280642 -2.13754e-17)
(-0.0163795 0.0284003 -2.87706e-18)
(-0.0153849 0.028714 -5.35507e-18)
(-0.01439 0.0290059 -1.72359e-17)
(-0.013395 0.0292763 -1.08796e-17)
(-0.0124002 0.0295257 -1.6824e-18)
(-0.0114056 0.0297545 7.50374e-18)
(-0.0104114 0.0299629 -1.3685e-18)
(-0.00941775 0.0301514 -7.67351e-18)
(-0.00842456 0.0303201 -7.45217e-18)
(-0.0074319 0.0304694 -1.16582e-17)
(-0.00643975 0.0305995 -1.62531e-17)
(-0.00544809 0.0307107 -5.32548e-18)
(-0.00445687 0.030803 -3.03535e-18)
(-0.00346604 0.0308767 -8.07005e-18)
(-0.00247552 0.0309319 -1.67067e-18)
(-0.00148522 0.0309686 -6.27771e-18)
(-0.000495055 0.0309869 -6.89992e-18)
(0.00049506 0.0309869 7.76213e-18)
(0.00148522 0.0309686 1.37011e-17)
(0.00247552 0.0309319 1.13831e-17)
(0.00346604 0.0308767 -1.74194e-19)
(0.00445688 0.030803 9.89505e-18)
(0.00544809 0.0307107 6.1096e-18)
(0.00643975 0.0305995 1.49929e-18)
(0.0074319 0.0304694 7.22184e-19)
(0.00842457 0.0303201 -3.83424e-18)
(0.00941775 0.0301514 -2.56184e-18)
(0.0104114 0.0299629 -4.30886e-19)
(0.0114056 0.0297545 -2.3852e-18)
(0.0124002 0.0295257 -2.67718e-18)
(0.013395 0.0292763 -5.12663e-18)
(0.01439 0.0290059 -1.33317e-17)
(0.0153849 0.028714 -1.0905e-18)
(0.0163795 0.0284003 -5.30919e-18)
(0.0173735 0.0280642 3.57317e-18)
(0.0183665 0.0277054 1.05636e-17)
(0.0193581 0.0273233 1.74002e-17)
(0.0203479 0.0269175 1.18219e-17)
(0.0213351 0.0264874 1.88359e-17)
(0.0223188 0.0260328 9.5907e-18)
(0.0232973 0.0255534 7.1811e-18)
(0.0236503 0.0256602 2.78633e-17)
(-0.0241787 0.0262034 1.03398e-17)
(-0.0237976 0.0261034 1.26303e-17)
(-0.0227973 0.0265928 1.91708e-17)
(-0.0217918 0.0270572 3.70351e-18)
(-0.0207829 0.0274966 7.02627e-18)
(-0.0197714 0.0279112 3.50122e-18)
(-0.0187582 0.0283016 -1.67006e-17)
(-0.0177435 0.028668 -2.34365e-17)
(-0.016728 0.0290113 -4.67849e-18)
(-0.0157119 0.0293317 -4.90642e-18)
(-0.0146955 0.0296298 -1.77271e-17)
(-0.0136792 0.029906 -1.04917e-17)
(-0.012663 0.0301606 -5.11252e-19)
(-0.0116472 0.0303941 7.24629e-18)
(-0.0106318 0.0306069 -2.45818e-18)
(-0.00961692 0.0307993 -6.86478e-18)
(-0.00860262 0.0309715 -5.70225e-18)
(-0.00758889 0.0311239 -1.19856e-17)
(-0.00657571 0.0312567 -1.66953e-17)
(-0.00556307 0.0313702 -5.71243e-18)
(-0.0045509 0.0314644 -3.42134e-18)
(-0.00353914 0.0315396 -8.60309e-18)
(-0.00252772 0.0315959 -1.67847e-18)
(-0.00151653 0.0316334 -5.29452e-18)
(-0.000505492 0.0316521 -6.55175e-18)
(0.000505497 0.0316521 8.45478e-18)
(0.00151654 0.0316334 1.44383e-17)
(0.00252772 0.0315959 1.12853e-17)
(0.00353915 0.0315396 -1.20084e-18)
(0.0045509 0.0314644 1.00936e-17)
(0.00556307 0.0313702 7.31957e-18)
(0.00657572 0.0312567 1.91831e-18)
(0.00758889 0.0311239 1.07279e-19)
(0.00860262 0.0309715 -3.40933e-18)
(0.00961692 0.0307993 -2.04609e-18)
(0.0106318 0.0306069 -8.04129e-19)
(0.0116472 0.0303941 -3.17228e-18)
(0.012663 0.0301606 -2.8245e-18)
(0.0136792 0.029906 -4.9877e-18)
(0.0146955 0.0296298 -1.24087e-17)
(0.0157119 0.0293317 -3.30609e-19)
(0.016728 0.0290113 -7.82138e-18)
(0.0177435 0.028668 2.27669e-18)
(0.0187582 0.0283016 1.03536e-17)
(0.0197714 0.0279112 1.71749e-17)
(0.0207829 0.0274966 1.07775e-17)
(0.0217917 0.0270572 1.81852e-17)
(0.0227973 0.0265928 1.09665e-17)
(0.0237976 0.0261034 9.2288e-18)
(0.0241787 0.0262034 2.7027e-17)
(-0.024726 0.0267659 1.17142e-17)
(-0.0243138 0.02667 1.40266e-17)
(-0.0232896 0.027169 1.88289e-17)
(-0.0222616 0.0276434 5.0781e-18)
(-0.0212303 0.0280923 6.91831e-18)
(-0.0201965 0.0285159 3.35085e-18)
(-0.019161 0.0289148 -1.60107e-17)
(-0.0181241 0.0292891 -2.54499e-17)
(-0.0170864 0.0296398 -6.8608e-18)
(-0.0160482 0.029967 -4.02317e-18)
(-0.0150098 0.0302714 -1.80662e-17)
(-0.0139714 0.0305535 -1.09033e-17)
(-0.0129333 0.0308135 6.88619e-19)
(-0.0118956 0.0310519 7.10974e-18)
(-0.0108583 0.0312692 -3.57851e-18)
(-0.00982172 0.0314656 -5.5506e-18)