/*--------------------------------*- C++ -*----------------------------------*\
  =========                 |
  \\      /  F ield         | OpenFOAM: The Open Source CFD Toolbox
   \\    /   O peration     | Website:  https://openfoam.org
    \\  /    A nd           | Version:  7
     \\/     M anipulation  |
\*---------------------------------------------------------------------------*/
FoamFile
{
    version     2.0;
    format      ascii;
    class       volScalarField;
    location    "124000";
    object      p;
}
// * * * * * * * * * * * * * * * * * * * * * * * * * * * * * * * * * * * * * //

dimensions      [0 2 -2 0 0 0 0];

internalField   nonuniform List<scalar> 
4850
(
-1.74557e-18
-1.73041e-18
-1.74422e-18
-1.72817e-18
-1.74485e-18
-1.75523e-18
-1.74413e-18
-1.74306e-18
-1.74344e-18
-1.74792e-18
-1.74587e-18
-1.74218e-18
-1.74539e-18
-1.75026e-18
-1.74116e-18
-1.75016e-18
-1.74878e-18
-1.74532e-18
-1.73273e-18
-1.75109e-18
-1.73677e-18
-1.74758e-18
-1.74532e-18
-1.76116e-18
-1.74968e-18
-1.73491e-18
-1.75407e-18
-1.74609e-18
-1.73637e-18
-1.75609e-18
-1.75962e-18
-1.77676e-18
-1.73898e-18
-1.74346e-18
-1.74457e-18
-1.7387e-18
-1.74222e-18
-1.73946e-18
-1.76026e-18
-1.77072e-18
-1.75774e-18
-1.74956e-18
-1.73175e-18
-1.74467e-18
-1.75615e-18
-1.74536e-18
-1.73909e-18
-1.74539e-18
-1.7549e-18
-1.75694e-18
-1.75375e-18
-1.75023e-18
-1.76748e-18
-1.75123e-18
-1.7519e-18
-1.76916e-18
-1.7346e-18
-1.74871e-18
-1.75049e-18
-1.75415e-18
-1.74238e-18
-1.75051e-18
-1.75602e-18
-1.75404e-18
-1.75853e-18
-1.75193e-18
-1.75753e-18
-1.75991e-18
-1.74427e-18
-1.74848e-18
-1.75287e-18
-1.75537e-18
-1.75777e-18
-1.75218e-18
-1.74302e-18
-1.74766e-18
-1.74488e-18
-1.74089e-18
-1.74336e-18
-1.74958e-18
-1.76858e-18
-1.75312e-18
-1.75658e-18
-1.75114e-18
-1.75465e-18
-1.75416e-18
-1.75355e-18
-1.75885e-18
-1.74853e-18
-1.75399e-18
-1.7602e-18
-1.75819e-18
-1.76098e-18
-1.77321e-18
-1.74452e-18
-1.74918e-18
-1.74616e-18
-1.74444e-18
-1.7398e-18
-1.75437e-18
-1.76172e-18
-1.76034e-18
-1.754e-18
-1.75117e-18
-1.756e-18
-1.7509e-18
-1.76659e-18
-1.76404e-18
-1.76481e-18
-1.75259e-18
-1.76447e-18
-1.75717e-18
-1.75419e-18
-1.75846e-18
-1.75739e-18
-1.77331e-18
-1.78205e-18
-1.75131e-18
-1.74493e-18
-1.74653e-18
-1.74397e-18
-1.74266e-18
-1.74137e-18
-1.74386e-18
-1.74182e-18
-1.75579e-18
-1.75656e-18
-1.75516e-18
-1.7628e-18
-1.74603e-18
-1.75997e-18
-1.75347e-18
-1.76609e-18
-1.75172e-18
-1.77309e-18
-1.75575e-18
-1.73449e-18
-1.74488e-18
-1.75507e-18
-1.75864e-18
-1.76675e-18
-1.73411e-18
-1.75639e-18
-1.77154e-18
-1.74852e-18
-1.7282e-18
-1.75503e-18
-1.73541e-18
-1.75061e-18
-1.73585e-18
-1.74336e-18
-1.73957e-18
-1.74729e-18
-1.73052e-18
-1.75268e-18
-1.76207e-18
-1.75468e-18
-1.75169e-18
-1.75196e-18
-1.76403e-18
-1.7444e-18
-1.77865e-18
-1.74348e-18
-1.76132e-18
-1.74401e-18
-1.73097e-18
-1.76573e-18
-1.75449e-18
-1.74332e-18
-1.76052e-18
-1.73375e-18
-1.76231e-18
-1.79094e-18
-1.75637e-18
-1.73172e-18
-1.75826e-18
-1.76107e-18
-1.74093e-18
-1.74987e-18
-1.72613e-18
-1.76224e-18
-1.74439e-18
-1.73756e-18
-1.7461e-18
-1.7611e-18
-1.74909e-18
-1.7578e-18
-1.76242e-18
-1.7537e-18
-1.75695e-18
-1.7524e-18
-1.76058e-18
-1.74404e-18
-1.77924e-18
-1.77006e-18
-1.76009e-18
-1.7539e-18
-1.73717e-18
-1.76203e-18
-1.75407e-18
-1.75614e-18
-1.75781e-18
-1.74995e-18
-1.77374e-18
-1.77257e-18
-1.75644e-18
-1.73582e-18
-1.7607e-18
-1.76356e-18
-1.75551e-18
-1.74717e-18
-1.75312e-18
-1.82034e-18
-1.73618e-18
-1.74412e-18
-1.74459e-18
-1.751e-18
-1.7567e-18
-1.76053e-18
-1.73862e-18
-1.76119e-18
-1.75726e-18
-1.75308e-18
-1.75556e-18
-1.74227e-18
-1.75878e-18
-1.75049e-18
-1.76326e-18
-1.76578e-18
-1.75816e-18
-1.76528e-18
-1.76024e-18
-1.75956e-18
-1.75696e-18
-1.77439e-18
-1.75157e-18
-1.7541e-18
-1.76237e-18
-1.78501e-18
-1.75194e-18
-1.74748e-18
-1.76187e-18
-1.76827e-18
-1.759e-18
-1.77417e-18
-1.7348e-18
-1.85208e-18
-1.74148e-18
-1.74469e-18
-1.74507e-18
-1.75597e-18
-1.75189e-18
-1.75652e-18
-1.74761e-18
-1.75576e-18
-1.75763e-18
-1.75381e-18
-1.75963e-18
-1.75953e-18
-1.76142e-18
-1.75607e-18
-1.75774e-18
-1.77398e-18
-1.75873e-18
-1.77565e-18
-1.76881e-18
-1.76044e-18
-1.75601e-18
-1.76734e-18
-1.76777e-18
-1.75175e-18
-1.76472e-18
-1.79681e-18
-1.73681e-18
-1.77175e-18
-1.76985e-18
-1.7811e-18
-1.74737e-18
-1.80004e-18
-1.75016e-18
-1.87193e-18
-1.74276e-18
-1.74338e-18
-1.74348e-18
-1.7607e-18
-1.75431e-18
-1.75177e-18
-1.74822e-18
-1.75207e-18
-1.74542e-18
-1.75238e-18
-1.76432e-18
-1.7576e-18
-1.76546e-18
-1.75527e-18
-1.75524e-18
-1.76354e-18
-1.75636e-18
-1.75833e-18
-1.74024e-18
-1.76047e-18
-1.75495e-18
-1.77292e-18
-1.7548e-18
-1.73898e-18
-1.77425e-18
-1.77167e-18
-1.73701e-18
-1.7651e-18
-1.78059e-18
-1.76707e-18
-1.76074e-18
-1.79861e-18
-1.75619e-18
-1.84385e-18
-1.74921e-18
-1.74278e-18
-1.7364e-18
-1.76374e-18
-1.74587e-18
-1.75484e-18
-1.75034e-18
-1.75033e-18
-1.75222e-18
-1.74498e-18
-1.75095e-18
-1.75584e-18
-1.75931e-18
-1.75548e-18
-1.75165e-18
-1.75581e-18
-1.75786e-18
-1.745e-18
-1.73409e-18
-1.76457e-18
-1.75262e-18
-1.76363e-18
-1.76773e-18
-1.74385e-18
-1.76396e-18
-1.76282e-18
-1.75792e-18
-1.76061e-18
-1.76726e-18
-1.74961e-18
-1.76658e-18
-1.78459e-18
-1.75649e-18
-1.87101e-18
-1.76008e-18
-1.73266e-18
-1.73934e-18
-1.76867e-18
-1.73868e-18
-1.75953e-18
-1.74428e-18
-1.75063e-18
-1.75301e-18
-1.73102e-18
-1.74775e-18
-1.75932e-18
-1.75707e-18
-1.75323e-18
-1.73924e-18
-1.75868e-18
-1.75143e-18
-1.75709e-18
-1.7469e-18
-1.77807e-18
-1.74172e-18
-1.75557e-18
-1.74898e-18
-1.76973e-18
-1.76241e-18
-1.765e-18
-1.77214e-18
-1.76054e-18
-1.76571e-18
-1.75774e-18
-1.76701e-18
-1.78078e-18
-1.75526e-18
-1.86349e-18
-1.75727e-18
-1.7433e-18
-1.73936e-18
-1.75442e-18
-1.74175e-18
-1.75429e-18
-1.74285e-18
-1.74645e-18
-1.74489e-18
-1.73402e-18
-1.7555e-18
-1.7398e-18
-1.75489e-18
-1.75503e-18
-1.74967e-18
-1.75818e-18
-1.73816e-18
-1.746e-18
-1.74063e-18
-1.76899e-18
-1.75361e-18
-1.74578e-18
-1.7564e-18
-1.76426e-18
-1.76441e-18
-1.76143e-18
-1.75633e-18
-1.76042e-18
-1.76872e-18
-1.75055e-18
-1.76675e-18
-1.78053e-18
-1.74649e-18
-1.84426e-18
-1.74083e-18
-1.74689e-18
-1.73785e-18
-1.7466e-18
-1.73853e-18
-1.75241e-18
-1.74399e-18
-1.75786e-18
-1.75299e-18
-1.73932e-18
-1.77638e-18
-1.72931e-18
-1.74451e-18
-1.75728e-18
-1.7531e-18
-1.75697e-18
-1.75317e-18
-1.75672e-18
-1.75436e-18
-1.76636e-18
-1.7592e-18
-1.75818e-18
-1.76167e-18
-1.76003e-18
-1.76189e-18
-1.76068e-18
-1.75673e-18
-1.75727e-18
-1.76571e-18
-1.76321e-18
-1.76933e-18
-1.77998e-18
-1.7658e-18
-1.83513e-18
-1.74008e-18
-1.75176e-18
-1.73952e-18
-1.74107e-18
-1.74213e-18
-1.74618e-18
-1.74418e-18
-1.75929e-18
-1.75239e-18
-1.7473e-18
-1.772e-18
-1.74015e-18
-1.7443e-18
-1.75932e-18
-1.74322e-18
-1.76627e-18
-1.75717e-18
-1.76073e-18
-1.77089e-18
-1.76412e-18
-1.76377e-18
-1.75764e-18
-1.76275e-18
-1.76024e-18
-1.76954e-18
-1.76275e-18
-1.75891e-18
-1.74823e-18
-1.76922e-18
-1.76478e-18
-1.76876e-18
-1.77835e-18
-1.78057e-18
-1.80927e-18
-1.74592e-18
-1.74536e-18
-1.7346e-18
-1.74966e-18
-1.7478e-18
-1.75067e-18
-1.73748e-18
-1.75617e-18
-1.75364e-18
-1.75405e-18
-1.7583e-18
-1.74103e-18
-1.75482e-18
-1.75136e-18
-1.74038e-18
-1.74846e-18
-1.75931e-18
-1.76385e-18
-1.75608e-18
-1.76341e-18
-1.77146e-18
-1.74375e-18
-1.7624e-18
-1.76123e-18
-1.79349e-18
-1.76916e-18
-1.76197e-18
-1.76615e-18
-1.78077e-18
-1.75802e-18
-1.76754e-18
-1.7826e-18
-1.77002e-18
-1.7934e-18
-1.73102e-18
-1.73842e-18
-1.75187e-18
-1.73811e-18
-1.75528e-18
-1.74607e-18
-1.75001e-18
-1.74619e-18
-1.74372e-18
-1.7683e-18
-1.74673e-18
-1.75432e-18
-1.74931e-18
-1.7629e-18
-1.74232e-18
-1.74452e-18
-1.75858e-18
-1.77141e-18
-1.77345e-18
-1.73968e-18
-1.76721e-18
-1.74852e-18
-1.74059e-18
-1.76217e-18
-1.76266e-18
-1.77036e-18
-1.78033e-18
-1.76592e-18
-1.78247e-18
-1.77106e-18
-1.78008e-18
-1.76804e-18
-1.79728e-18
-1.76664e-18
-1.77707e-18
-1.74469e-18
-1.72305e-18
-1.74908e-18
-1.73828e-18
-1.74773e-18
-1.74977e-18
-1.74986e-18
-1.75939e-18
-1.74475e-18
-1.76049e-18
-1.74091e-18
-1.75609e-18
-1.75288e-18
-1.75904e-18
-1.73766e-18
-1.74473e-18
-1.75493e-18
-1.75934e-18
-1.76421e-18
-1.74834e-18
-1.77654e-18
-1.7546e-18
-1.74997e-18
-1.76218e-18
-1.76555e-18
-1.75654e-18
-1.76896e-18
-1.76148e-18
-1.77195e-18
-1.766e-18
-1.77908e-18
-1.76818e-18
-1.79591e-18
-1.76535e-18
-1.79408e-18
-1.76401e-18
-1.73039e-18
-1.7433e-18
-1.73395e-18
-1.75232e-18
-1.74457e-18
-1.74854e-18
-1.75254e-18
-1.73605e-18
-1.75431e-18
-1.74689e-18
-1.75981e-18
-1.75107e-18
-1.74692e-18
-1.75224e-18
-1.75382e-18
-1.74775e-18
-1.74519e-18
-1.75725e-18
-1.75398e-18
-1.77112e-18
-1.76075e-18
-1.77992e-18
-1.76329e-18
-1.76532e-18
-1.745e-18
-1.76459e-18
-1.75957e-18
-1.76802e-18
-1.76116e-18
-1.78541e-18
-1.76609e-18
-1.78096e-18
-1.77114e-18
-1.79054e-18
-1.73437e-18
-1.75359e-18
-1.72688e-18
-1.75493e-18
-1.74514e-18
-1.74513e-18
-1.74768e-18
-1.75472e-18
-1.76202e-18
-1.75072e-18
-1.75037e-18
-1.75103e-18
-1.75157e-18
-1.75571e-18
-1.75712e-18
-1.74938e-18
-1.74968e-18
-1.75863e-18
-1.75727e-18
-1.77772e-18
-1.76123e-18
-1.78444e-18
-1.7624e-18
-1.76533e-18
-1.75373e-18
-1.76968e-18
-1.76067e-18
-1.77247e-18
-1.75077e-18
-1.7787e-18
-1.76466e-18
-1.77575e-18
-1.77815e-18
-1.77703e-18
-1.73793e-18
-1.75956e-18
-1.73251e-18
-1.7481e-18
-1.74495e-18
-1.73284e-18
-1.75073e-18
-1.74911e-18
-1.75416e-18
-1.75129e-18
-1.7519e-18
-1.75307e-18
-1.74923e-18
-1.75719e-18
-1.76126e-18
-1.75661e-18
-1.76636e-18
-1.75896e-18
-1.76045e-18
-1.76625e-18
-1.75754e-18
-1.76959e-18
-1.76109e-18
-1.7625e-18
-1.74847e-18
-1.77952e-18
-1.76174e-18
-1.78257e-18
-1.75933e-18
-1.77651e-18
-1.76502e-18
-1.77375e-18
-1.77009e-18
-1.77083e-18
-1.73347e-18
-1.74855e-18
-1.7236e-18
-1.74524e-18
-1.74558e-18
-1.73507e-18
-1.74477e-18
-1.75184e-18
-1.73858e-18
-1.75121e-18
-1.75114e-18
-1.75776e-18
-1.74591e-18
-1.75043e-18
-1.75325e-18
-1.75141e-18
-1.76944e-18
-1.75848e-18
-1.76323e-18
-1.76079e-18
-1.74753e-18
-1.76347e-18
-1.76092e-18
-1.76557e-18
-1.75811e-18
-1.76831e-18
-1.76538e-18
-1.77116e-18
-1.76373e-18
-1.78367e-18
-1.76763e-18
-1.77299e-18
-1.77032e-18
-1.77165e-18
-1.73409e-18
-1.74096e-18
-1.73969e-18
-1.75491e-18
-1.74703e-18
-1.74832e-18
-1.7349e-18
-1.76875e-18
-1.75692e-18
-1.75231e-18
-1.75399e-18
-1.75352e-18
-1.75384e-18
-1.75041e-18
-1.75005e-18
-1.74652e-18
-1.75405e-18
-1.75649e-18
-1.74974e-18
-1.76064e-18
-1.76238e-18
-1.76346e-18
-1.76217e-18
-1.76551e-18
-1.76167e-18
-1.76279e-18
-1.77869e-18
-1.76542e-18
-1.76122e-18
-1.77092e-18
-1.77244e-18
-1.78357e-18
-1.76803e-18
-1.74e-18
-1.73621e-18
-1.73117e-18
-1.75e-18
-1.74351e-18
-1.7439e-18
-1.75214e-18
-1.76227e-18
-1.76201e-18
-1.75518e-18
-1.75087e-18
-1.75124e-18
-1.75987e-18
-1.75017e-18
-1.75754e-18
-1.75329e-18
-1.75397e-18
-1.74915e-18
-1.74521e-18
-1.76329e-18
-1.76667e-18
-1.7658e-18
-1.76089e-18
-1.76405e-18
-1.76264e-18
-1.76016e-18
-1.77576e-18
-1.76516e-18
-1.75537e-18
-1.76332e-18
-1.766e-18
-1.79021e-18
-1.77561e-18
-1.74039e-18
-1.72988e-18
-1.73103e-18
-1.74108e-18
-1.73922e-18
-1.75694e-18
-1.74901e-18
-1.74673e-18
-1.75908e-18
-1.76195e-18
-1.74752e-18
-1.75028e-18
-1.7551e-18
-1.75051e-18
-1.75159e-18
-1.75136e-18
-1.75237e-18
-1.75205e-18
-1.75311e-18
-1.76722e-18
-1.76307e-18
-1.77052e-18
-1.76099e-18
-1.763e-18
-1.7637e-18
-1.75596e-18
-1.7588e-18
-1.76486e-18
-1.76036e-18
-1.77472e-18
-1.76596e-18
-1.78178e-18
-1.73408e-18
-1.73865e-18
-1.73059e-18
-1.72737e-18
-1.73319e-18
-1.74379e-18
-1.74361e-18
-1.75228e-18
-1.75676e-18
-1.76402e-18
-1.74296e-18
-1.7452e-18
-1.74711e-18
-1.75032e-18
-1.75391e-18
-1.74727e-18
-1.76095e-18
-1.74876e-18
-1.75175e-18
-1.76258e-18
-1.76459e-18
-1.76853e-18
-1.76013e-18
-1.76209e-18
-1.76747e-18
-1.76101e-18
-1.75999e-18
-1.76752e-18
-1.76371e-18
-1.77581e-18
-1.7678e-18
-1.77571e-18
-1.72436e-18
-1.73235e-18
-1.72793e-18
-1.73868e-18
-1.7389e-18
-1.73774e-18
-1.73344e-18
-1.75211e-18
-1.74849e-18
-1.75431e-18
-1.74858e-18
-1.73235e-18
-1.75286e-18
-1.75204e-18
-1.755e-18
-1.75746e-18
-1.75958e-18
-1.75426e-18
-1.74585e-18
-1.7607e-18
-1.75801e-18
-1.76161e-18
-1.76239e-18
-1.76091e-18
-1.76619e-18
-1.76555e-18
-1.76244e-18
-1.76114e-18
-1.76374e-18
-1.76857e-18
-1.75645e-18
-1.77889e-18
-1.71865e-18
-1.71526e-18
-1.72945e-18
-1.74656e-18
-1.74301e-18
-1.73799e-18
-1.74111e-18
-1.74787e-18
-1.74168e-18
-1.74925e-18
-1.7529e-18
-1.73642e-18
-1.75422e-18
-1.75155e-18
-1.75609e-18
-1.75193e-18
-1.76075e-18
-1.75602e-18
-1.75194e-18
-1.76025e-18
-1.753e-18
-1.76475e-18
-1.7648e-18
-1.76119e-18
-1.77126e-18
-1.76239e-18
-1.76276e-18
-1.76432e-18
-1.76358e-18
-1.75689e-18
-1.75438e-18
-1.77036e-18
-1.71254e-18
-1.71994e-18
-1.72284e-18
-1.75004e-18
-1.73206e-18
-1.74135e-18
-1.74081e-18
-1.75432e-18
-1.73594e-18
-1.75397e-18
-1.75274e-18
-1.7476e-18
-1.74951e-18
-1.74671e-18
-1.75203e-18
-1.75513e-18
-1.7571e-18
-1.75961e-18
-1.74936e-18
-1.76289e-18
-1.76204e-18
-1.76104e-18
-1.75398e-18
-1.76428e-18
-1.76997e-18
-1.76245e-18
-1.763e-18
-1.76763e-18
-1.76387e-18
-1.77007e-18
-1.75673e-18
-1.76876e-18
-1.70442e-18
-1.74707e-18
-1.72656e-18
-1.73417e-18
-1.72485e-18
-1.75072e-18
-1.74159e-18
-1.7478e-18
-1.74092e-18
-1.75804e-18
-1.75092e-18
-1.75061e-18
-1.74909e-18
-1.74701e-18
-1.75758e-18
-1.75838e-18
-1.75725e-18
-1.76406e-18
-1.73947e-18
-1.76459e-18
-1.75962e-18
-1.75975e-18
-1.75156e-18
-1.76007e-18
-1.76586e-18
-1.75435e-18
-1.76295e-18
-1.77148e-18
-1.75777e-18
-1.76744e-18
-1.75346e-18
-1.76938e-18
-1.70856e-18
-1.74083e-18
-1.72894e-18
-1.73618e-18
-1.73747e-18
-1.74559e-18
-1.74509e-18
-1.75877e-18
-1.74807e-18
-1.7452e-18
-1.7541e-18
-1.75741e-18
-1.74319e-18
-1.75195e-18
-1.76559e-18
-1.75247e-18
-1.755e-18
-1.75569e-18
-1.74498e-18
-1.76271e-18
-1.76062e-18
-1.75904e-18
-1.75735e-18
-1.75799e-18
-1.76859e-18
-1.75619e-18
-1.76291e-18
-1.7656e-18
-1.75388e-18
-1.7609e-18
-1.75194e-18
-1.75732e-18
-1.71514e-18
-1.7446e-18
-1.73007e-18
-1.74214e-18
-1.72973e-18
-1.743e-18
-1.73309e-18
-1.74547e-18
-1.74925e-18
-1.74283e-18
-1.74838e-18
-1.75058e-18
-1.75235e-18
-1.75285e-18
-1.76246e-18
-1.74748e-18
-1.75843e-18
-1.74265e-18
-1.75582e-18
-1.76771e-18
-1.75608e-18
-1.75834e-18
-1.75925e-18
-1.75345e-18
-1.76178e-18
-1.75491e-18
-1.76313e-18
-1.76077e-18
-1.76354e-18
-1.76468e-18
-1.75133e-18
-1.75017e-18
-1.70521e-18
-1.74015e-18
-1.72429e-18
-1.74057e-18
-1.72784e-18
-1.74549e-18
-1.72369e-18
-1.74167e-18
-1.74548e-18
-1.74522e-18
-1.74118e-18
-1.75093e-18
-1.75245e-18
-1.74789e-18
-1.75367e-18
-1.7499e-18
-1.7653e-18
-1.74427e-18
-1.74849e-18
-1.76328e-18
-1.75434e-18
-1.75953e-18
-1.75974e-18
-1.74448e-18
-1.75603e-18
-1.75812e-18
-1.76401e-18
-1.76657e-18
-1.76955e-18
-1.76569e-18
-1.7572e-18
-1.75789e-18
-1.72401e-18
-1.72808e-18
-1.73075e-18
-1.73886e-18
-1.73306e-18
-1.74484e-18
-1.73869e-18
-1.73884e-18
-1.73662e-18
-1.74598e-18
-1.74222e-18
-1.74109e-18
-1.75468e-18
-1.74067e-18
-1.75443e-18
-1.74576e-18
-1.76711e-18
-1.75151e-18
-1.75133e-18
-1.76569e-18
-1.74999e-18
-1.7628e-18
-1.76117e-18
-1.75719e-18
-1.76164e-18
-1.75572e-18
-1.7651e-18
-1.77227e-18
-1.77588e-18
-1.7652e-18
-1.76067e-18
-1.75522e-18
-1.71834e-18
-1.73878e-18
-1.7265e-18
-1.73778e-18
-1.74426e-18
-1.73644e-18
-1.74792e-18
-1.73296e-18
-1.7307e-18
-1.74215e-18
-1.74141e-18
-1.73755e-18
-1.74968e-18
-1.73544e-18
-1.76168e-18
-1.74526e-18
-1.76046e-18
-1.75248e-18
-1.75331e-18
-1.76458e-18
-1.7423e-18
-1.75805e-18
-1.76799e-18
-1.7587e-18
-1.76777e-18
-1.76299e-18
-1.7663e-18
-1.76757e-18
-1.77593e-18
-1.7626e-18
-1.75538e-18
-1.74907e-18
-1.71806e-18
-1.73911e-18
-1.71965e-18
-1.73013e-18
-1.72533e-18
-1.73731e-18
-1.74302e-18
-1.72492e-18
-1.71902e-18
-1.73042e-18
-1.7287e-18
-1.73837e-18
-1.73584e-18
-1.74176e-18
-1.76425e-18
-1.74999e-18
-1.76038e-18
-1.75293e-18
-1.74951e-18
-1.76016e-18
-1.75335e-18
-1.75543e-18
-1.76886e-18
-1.75915e-18
-1.76249e-18
-1.76971e-18
-1.76933e-18
-1.76427e-18
-1.77028e-18
-1.7597e-18
-1.75184e-18
-1.74647e-18
-1.71991e-18
-1.73306e-18
-1.71982e-18
-1.73523e-18
-1.71928e-18
-1.73502e-18
-1.73261e-18
-1.7365e-18
-1.73199e-18
-1.73478e-18
-1.73586e-18
-1.73983e-18
-1.74207e-18
-1.74369e-18
-1.76024e-18
-1.74998e-18
-1.75275e-18
-1.75826e-18
-1.75354e-18
-1.76524e-18
-1.75355e-18
-1.75566e-18
-1.76073e-18
-1.76061e-18
-1.75877e-18
-1.76652e-18
-1.77427e-18
-1.76383e-18
-1.77074e-18
-1.76353e-18
-1.75166e-18
-1.75757e-18
-1.71769e-18
-1.74131e-18
-1.73509e-18
-1.74172e-18
-1.74161e-18
-1.747e-18
-1.73857e-18
-1.74152e-18
-1.73947e-18
-1.73918e-18
-1.74614e-18
-1.73973e-18
-1.74324e-18
-1.74155e-18
-1.7593e-18
-1.75098e-18
-1.75849e-18
-1.75396e-18
-1.75333e-18
-1.75802e-18
-1.75134e-18
-1.7608e-18
-1.75467e-18
-1.76381e-18
-1.76303e-18
-1.76505e-18
-1.75992e-18
-1.75915e-18
-1.77865e-18
-1.76419e-18
-1.75732e-18
-1.7675e-18
-1.7225e-18
-1.72964e-18
-1.72847e-18
-1.7337e-18
-1.73721e-18
-1.74643e-18
-1.74234e-18
-1.73852e-18
-1.74182e-18
-1.74321e-18
-1.74215e-18
-1.7441e-18
-1.74632e-18
-1.73853e-18
-1.75135e-18
-1.76103e-18
-1.77141e-18
-1.74789e-18
-1.76443e-18
-1.75646e-18
-1.74835e-18
-1.75837e-18
-1.75457e-18
-1.75752e-18
-1.76542e-18
-1.76562e-18
-1.77041e-18
-1.76182e-18
-1.76828e-18
-1.76283e-18
-1.75876e-18
-1.76497e-18
-1.72669e-18
-1.73301e-18
-1.72972e-18
-1.73065e-18
-1.74066e-18
-1.73191e-18
-1.74432e-18
-1.74331e-18
-1.74425e-18
-1.73765e-18
-1.73805e-18
-1.74348e-18
-1.75145e-18
-1.74277e-18
-1.75179e-18
-1.75136e-18
-1.76296e-18
-1.74489e-18
-1.76675e-18
-1.75331e-18
-1.75761e-18
-1.75501e-18
-1.75252e-18
-1.75925e-18
-1.76652e-18
-1.76923e-18
-1.76996e-18
-1.75883e-18
-1.77496e-18
-1.76961e-18
-1.7597e-18
-1.73175e-18
-1.73686e-18
-1.72137e-18
-1.73508e-18
-1.74335e-18
-1.73099e-18
-1.7388e-18
-1.74159e-18
-1.73905e-18
-1.73981e-18
-1.74655e-18
-1.73796e-18
-1.74923e-18
-1.73978e-18
-1.74307e-18
-1.74771e-18
-1.75756e-18
-1.75294e-18
-1.76423e-18
-1.74777e-18
-1.7574e-18
-1.75331e-18
-1.75651e-18
-1.76094e-18
-1.76621e-18
-1.77933e-18
-1.76846e-18
-1.75784e-18
-1.76967e-18
-1.76685e-18
-1.75765e-18
-1.73208e-18
-1.73525e-18
-1.73685e-18
-1.73352e-18
-1.73747e-18
-1.737e-18
-1.74765e-18
-1.73859e-18
-1.74162e-18
-1.7385e-18
-1.75085e-18
-1.74592e-18
-1.7385e-18
-1.73469e-18
-1.74547e-18
-1.74232e-18
-1.75284e-18
-1.7475e-18
-1.7614e-18
-1.74908e-18
-1.75621e-18
-1.7513e-18
-1.76674e-18
-1.76098e-18
-1.76556e-18
-1.77447e-18
-1.77014e-18
-1.76223e-18
-1.77305e-18
-1.76917e-18
-1.74212e-18
-1.71983e-18
-1.75222e-18
-1.72889e-18
-1.73633e-18
-1.74243e-18
-1.74334e-18
-1.73979e-18
-1.74129e-18
-1.74278e-18
-1.7465e-18
-1.73837e-18
-1.74021e-18
-1.73838e-18
-1.74843e-18
-1.74113e-18
-1.75198e-18
-1.74132e-18
-1.76596e-18
-1.74956e-18
-1.75712e-18
-1.75158e-18
-1.76679e-18
-1.75902e-18
-1.76944e-18
-1.76713e-18
-1.77354e-18
-1.7689e-18
-1.76605e-18
-1.76303e-18
-1.73419e-18
-1.71923e-18
-1.73769e-18
-1.72476e-18
-1.72763e-18
-1.73885e-18
-1.74076e-18
-1.7423e-18
-1.73642e-18
-1.73625e-18
-1.7427e-18
-1.73357e-18
-1.73588e-18
-1.73234e-18
-1.74282e-18
-1.74229e-18
-1.75508e-18
-1.74456e-18
-1.7675e-18
-1.74597e-18
-1.7601e-18
-1.74793e-18
-1.77086e-18
-1.76097e-18
-1.76915e-18
-1.7657e-18
-1.76962e-18
-1.75841e-18
-1.76069e-18
-1.75628e-18
-1.72713e-18
-1.73387e-18
-1.72752e-18
-1.72891e-18
-1.73666e-18
-1.73719e-18
-1.73523e-18
-1.73603e-18
-1.73593e-18
-1.7371e-18
-1.73651e-18
-1.73591e-18
-1.74243e-18
-1.72889e-18
-1.74071e-18
-1.74593e-18
-1.75754e-18
-1.74797e-18
-1.77382e-18
-1.74863e-18
-1.75648e-18
-1.75054e-18
-1.77314e-18
-1.76066e-18
-1.77086e-18
-1.76553e-18
-1.76789e-18
-1.76277e-18
-1.76482e-18
-1.75635e-18
-1.72723e-18
-1.72974e-18
-1.72898e-18
-1.72825e-18
-1.74436e-18
-1.73722e-18
-1.73264e-18
-1.73873e-18
-1.7324e-18
-1.74248e-18
-1.72449e-18
-1.73194e-18
-1.74813e-18
-1.73056e-18
-1.7359e-18
-1.73732e-18
-1.75626e-18
-1.74701e-18
-1.76699e-18
-1.75001e-18
-1.75644e-18
-1.74753e-18
-1.77223e-18
-1.76099e-18
-1.77615e-18
-1.76507e-18
-1.76948e-18
-1.76681e-18
-1.77079e-18
-1.75691e-18
-1.72157e-18
-1.73143e-18
-1.73761e-18
-1.7314e-18
-1.74116e-18
-1.73137e-18
-1.73405e-18
-1.73744e-18
-1.73856e-18
-1.7429e-18
-1.73669e-18
-1.72628e-18
-1.72993e-18
-1.73579e-18
-1.72985e-18
-1.73701e-18
-1.76339e-18
-1.74798e-18
-1.76604e-18
-1.75199e-18
-1.75696e-18
-1.75221e-18
-1.76969e-18
-1.76034e-18
-1.77641e-18
-1.76405e-18
-1.77131e-18
-1.76463e-18
-1.76698e-18
-1.76358e-18
-1.73922e-18
-1.73178e-18
-1.74083e-18
-1.72549e-18
-1.74438e-18
-1.72663e-18
-1.73394e-18
-1.74054e-18
-1.73592e-18
-1.73356e-18
-1.73583e-18
-1.73474e-18
-1.73653e-18
-1.73264e-18
-1.7336e-18
-1.73604e-18
-1.75878e-18
-1.74631e-18
-1.76623e-18
-1.75036e-18
-1.75928e-18
-1.7575e-18
-1.77253e-18
-1.76173e-18
-1.77183e-18
-1.76235e-18
-1.76193e-18
-1.76508e-18
-1.76344e-18
-1.76929e-18
-1.72679e-18
-1.7359e-18
-1.72936e-18
-1.72273e-18
-1.74999e-18
-1.73955e-18
-1.73811e-18
-1.74116e-18
-1.73613e-18
-1.7327e-18
-1.73931e-18
-1.74011e-18
-1.75183e-18
-1.73083e-18
-1.73295e-18
-1.73155e-18
-1.75971e-18
-1.74356e-18
-1.76044e-18
-1.74646e-18
-1.76049e-18
-1.75495e-18
-1.77189e-18
-1.76382e-18
-1.77087e-18
-1.75892e-18
-1.75977e-18
-1.7657e-18
-1.7597e-18
-1.76572e-18
-1.72952e-18
-1.72934e-18
-1.73595e-18
-1.73697e-18
-1.75108e-18
-1.7381e-18
-1.74215e-18
-1.73786e-18
-1.73069e-18
-1.73152e-18
-1.73729e-18
-1.73941e-18
-1.74684e-18
-1.7269e-18
-1.73807e-18
-1.7389e-18
-1.76066e-18
-1.74971e-18
-1.76567e-18
-1.74454e-18
-1.76233e-18
-1.75313e-18
-1.76498e-18
-1.75687e-18
-1.77198e-18
-1.76081e-18
-1.76458e-18
-1.76671e-18
-1.76272e-18
-1.77299e-18
-1.73887e-18
-1.74034e-18
-1.74663e-18
-1.73974e-18
-1.75843e-18
-1.74578e-18
-1.74641e-18
-1.73748e-18
-1.73611e-18
-1.73022e-18
-1.73404e-18
-1.72888e-18
-1.73301e-18
-1.72899e-18
-1.73646e-18
-1.74411e-18
-1.75983e-18
-1.74793e-18
-1.76641e-18
-1.74983e-18
-1.76081e-18
-1.75206e-18
-1.7588e-18
-1.76048e-18
-1.77532e-18
-1.7608e-18
-1.76657e-18
-1.7665e-18
-1.76386e-18
-1.76852e-18
-1.74774e-18
-1.7417e-18
-1.74677e-18
-1.74318e-18
-1.75033e-18
-1.74352e-18
-1.74275e-18
-1.74229e-18
-1.74434e-18
-1.72735e-18
-1.72837e-18
-1.73191e-18
-1.73192e-18
-1.72931e-18
-1.74036e-18
-1.74214e-18
-1.76122e-18
-1.74664e-18
-1.76268e-18
-1.75007e-18
-1.75852e-18
-1.75331e-18
-1.76116e-18
-1.75534e-18
-1.77121e-18
-1.76432e-18
-1.77011e-18
-1.76776e-18
-1.76199e-18
-1.77176e-18
-1.7478e-18
-1.73488e-18
-1.74313e-18
-1.74098e-18
-1.75071e-18
-1.74379e-18
-1.73914e-18
-1.73351e-18
-1.74358e-18
-1.72404e-18
-1.72942e-18
-1.73094e-18
-1.73634e-18
-1.72924e-18
-1.73769e-18
-1.74376e-18
-1.76221e-18
-1.74312e-18
-1.76119e-18
-1.74832e-18
-1.75531e-18
-1.75415e-18
-1.75981e-18
-1.75783e-18
-1.77057e-18
-1.75923e-18
-1.76703e-18
-1.76638e-18
-1.76243e-18
-1.77452e-18
-1.74224e-18
-1.73809e-18
-1.73068e-18
-1.73189e-18
-1.75144e-18
-1.74536e-18
-1.72772e-18
-1.73366e-18
-1.74359e-18
-1.73206e-18
-1.72792e-18
-1.72855e-18
-1.7317e-18
-1.72608e-18
-1.73112e-18
-1.73964e-18
-1.76156e-18
-1.73861e-18
-1.76195e-18
-1.75411e-18
-1.75372e-18
-1.75613e-18
-1.756e-18
-1.75312e-18
-1.77736e-18
-1.7631e-18
-1.76289e-18
-1.76243e-18
-1.76376e-18
-1.76876e-18
-1.74348e-18
-1.73491e-18
-1.73622e-18
-1.74572e-18
-1.75024e-18
-1.73423e-18
-1.73274e-18
-1.73369e-18
-1.7376e-18
-1.72929e-18
-1.72895e-18
-1.72745e-18
-1.73261e-18
-1.73321e-18
-1.74301e-18
-1.73786e-18
-1.7661e-18
-1.74482e-18
-1.75956e-18
-1.75034e-18
-1.75208e-18
-1.75285e-18
-1.75763e-18
-1.75704e-18
-1.78247e-18
-1.76652e-18
-1.75748e-18
-1.75981e-18
-1.75567e-18
-1.76242e-18
-1.73639e-18
-1.75304e-18
-1.73387e-18
-1.74291e-18
-1.75599e-18
-1.7344e-18
-1.7376e-18
-1.7324e-18
-1.73459e-18
-1.72506e-18
-1.73384e-18
-1.73787e-18
-1.72714e-18
-1.7361e-18
-1.74082e-18
-1.73786e-18
-1.75229e-18
-1.74477e-18
-1.76831e-18
-1.75025e-18
-1.7531e-18
-1.7482e-18
-1.75545e-18
-1.7589e-18
-1.77683e-18
-1.76186e-18
-1.7584e-18
-1.76265e-18
-1.7592e-18
-1.76339e-18
-1.72558e-18
-1.74665e-18
-1.72972e-18
-1.74128e-18
-1.74984e-18
-1.73266e-18
-1.75776e-18
-1.73355e-18
-1.737e-18
-1.71917e-18
-1.7311e-18
-1.74469e-18
-1.73024e-18
-1.73264e-18
-1.73886e-18
-1.74e-18
-1.74566e-18
-1.74263e-18
-1.77154e-18
-1.75223e-18
-1.75561e-18
-1.75622e-18
-1.75857e-18
-1.7526e-18
-1.76952e-18
-1.75826e-18
-1.7617e-18
-1.76048e-18
-1.75991e-18
-1.76108e-18
-1.73876e-18
-1.74732e-18
-1.73487e-18
-1.74099e-18
-1.75422e-18
-1.75359e-18
-1.76132e-18
-1.73156e-18
-1.75242e-18
-1.71773e-18
-1.73087e-18
-1.72937e-18
-1.73037e-18
-1.73295e-18
-1.7345e-18
-1.73692e-18
-1.75456e-18
-1.73975e-18
-1.76064e-18
-1.75361e-18
-1.76197e-18
-1.75518e-18
-1.76059e-18
-1.75349e-18
-1.76683e-18
-1.76328e-18
-1.76253e-18
-1.75833e-18
-1.75929e-18
-1.76691e-18
-1.73956e-18
-1.74843e-18
-1.73834e-18
-1.73929e-18
-1.77228e-18
-1.74465e-18
-1.75462e-18
-1.7223e-18
-1.74536e-18
-1.71647e-18
-1.74466e-18
-1.72789e-18
-1.73792e-18
-1.72954e-18
-1.72768e-18
-1.731e-18
-1.75407e-18
-1.74108e-18
-1.75682e-18
-1.75587e-18
-1.75856e-18
-1.7526e-18
-1.76288e-18
-1.75388e-18
-1.76586e-18
-1.75936e-18
-1.76217e-18
-1.75987e-18
-1.75979e-18
-1.77201e-18
-1.73676e-18
-1.74386e-18
-1.74394e-18
-1.74057e-18
-1.76599e-18
-1.74115e-18
-1.74889e-18
-1.71441e-18
-1.74436e-18
-1.72008e-18
-1.73965e-18
-1.72828e-18
-1.74578e-18
-1.72359e-18
-1.7307e-18
-1.73336e-18
-1.7507e-18
-1.74669e-18
-1.75963e-18
-1.75306e-18
-1.75415e-18
-1.75464e-18
-1.75813e-18
-1.75253e-18
-1.76532e-18
-1.75527e-18
-1.76319e-18
-1.75513e-18
-1.75877e-18
-1.76783e-18
-1.74456e-18
-1.73474e-18
-1.74592e-18
-1.73777e-18
-1.75603e-18
-1.73583e-18
-1.75125e-18
-1.72812e-18
-1.73848e-18
-1.7155e-18
-1.74503e-18
-1.72565e-18
-1.73741e-18
-1.72315e-18
-1.73984e-18
-1.74147e-18
-1.7515e-18
-1.74209e-18
-1.75305e-18
-1.75257e-18
-1.75471e-18
-1.75782e-18
-1.75243e-18
-1.75203e-18
-1.76654e-18
-1.75207e-18
-1.76578e-18
-1.75142e-18
-1.76254e-18
-1.76553e-18
-1.74342e-18
-1.74169e-18
-1.74939e-18
-1.74274e-18
-1.75284e-18
-1.7322e-18
-1.75546e-18
-1.73627e-18
-1.73222e-18
-1.70277e-18
-1.73702e-18
-1.72719e-18
-1.74044e-18
-1.73884e-18
-1.73357e-18
-1.74207e-18
-1.75391e-18
-1.73592e-18
-1.75404e-18
-1.75565e-18
-1.75765e-18
-1.7551e-18
-1.75154e-18
-1.75242e-18
-1.76957e-18
-1.75678e-18
-1.76289e-18
-1.74722e-18
-1.7604e-18
-1.76368e-18
-1.74262e-18
-1.74147e-18
-1.74961e-18
-1.74619e-18
-1.75491e-18
-1.74059e-18
-1.74293e-18
-1.73701e-18
-1.73591e-18
-1.7101e-18
-1.7288e-18
-1.73177e-18
-1.7449e-18
-1.73548e-18
-1.73778e-18
-1.73786e-18
-1.75452e-18
-1.73265e-18
-1.76605e-18
-1.75393e-18
-1.75589e-18
-1.75244e-18
-1.75533e-18
-1.75246e-18
-1.76962e-18
-1.75148e-18
-1.7629e-18
-1.74963e-18
-1.7573e-18
-1.75869e-18
-1.75003e-18
-1.73793e-18
-1.76875e-18
-1.74288e-18
-1.75141e-18
-1.74453e-18
-1.74692e-18
-1.72115e-18
-1.72448e-18
-1.73259e-18
-1.7509e-18
-1.73428e-18
-1.76249e-18
-1.74617e-18
-1.75566e-18
-1.74387e-18
-1.7645e-18
-1.74448e-18
-1.75869e-18
-1.74923e-18
-1.75438e-18
-1.76118e-18
-1.69146e-18
-1.69277e-18
-1.69309e-18
-1.69499e-18
-1.70631e-18
-1.69342e-18
-1.70655e-18
-1.71625e-18
-1.69208e-18
-1.72135e-18
-1.67476e-18
-1.68601e-18
-1.68087e-18
-1.69485e-18
-1.67997e-18
-1.68301e-18
-1.69815e-18
-1.71776e-18
-1.69835e-18
-1.69834e-18
-1.71098e-18
-1.6999e-18
-1.692e-18
-1.70633e-18
-1.6921e-18
-1.71164e-18
-1.69947e-18
-1.72143e-18
-1.71579e-18
-1.71677e-18
-1.73267e-18
-1.68578e-18
-1.6916e-18
-1.68438e-18
-1.68927e-18
-1.69962e-18
-1.71611e-18
-1.68935e-18
-1.68693e-18
-1.70428e-18
-1.72351e-18
-1.68884e-18
-1.70951e-18
-1.72407e-18
-1.6944e-18
-1.71038e-18
-1.70831e-18
-1.69516e-18
-1.71343e-18
-1.72314e-18
-1.71581e-18
-1.7026e-18
-1.7048e-18
-1.72363e-18
-1.72815e-18
-1.7144e-18
-1.70338e-18
-1.70886e-18
-1.69845e-18
-1.68072e-18
-1.66748e-18
-1.68532e-18
-1.69963e-18
-1.68398e-18
-1.69346e-18
-1.69305e-18
-1.69254e-18
-1.68268e-18
-1.68087e-18
-1.68349e-18
-1.6973e-18
-1.69243e-18
-1.69757e-18
-1.69617e-18
-1.70034e-18
-1.70768e-18
-1.70465e-18
-1.70938e-18
-1.72326e-18
-1.71559e-18
-1.70431e-18
-1.70922e-18
-1.70739e-18
-1.71729e-18
-1.72083e-18
-1.71598e-18
-1.74423e-18
-1.71473e-18
-1.72883e-18
-1.72417e-18
-1.7358e-18
-1.66214e-18
-1.67326e-18
-1.68832e-18
-1.67987e-18
-1.67387e-18
-1.69326e-18
-1.70012e-18
-1.67232e-18
-1.67652e-18
-1.69415e-18
-1.68441e-18
-1.69749e-18
-1.6983e-18
-1.69392e-18
-1.69124e-18
-1.69911e-18
-1.7285e-18
-1.70234e-18
-1.70135e-18
-1.70171e-18
-1.68744e-18
-1.71997e-18
-1.71529e-18
-1.7059e-18
-1.7134e-18
-1.72001e-18
-1.72526e-18
-1.70878e-18
-1.72408e-18
-1.73975e-18
-1.73683e-18
-1.72473e-18
-1.72741e-18
-1.73611e-18
-1.76062e-18
-1.73116e-18
-1.72524e-18
-1.74934e-18
-1.68468e-18
-1.68699e-18
-1.67678e-18
-1.69574e-18
-1.67898e-18
-1.67712e-18
-1.6691e-18
-1.6814e-18
-1.69426e-18
-1.67579e-18
-1.67917e-18
-1.67855e-18
-1.67684e-18
-1.69228e-18
-1.69275e-18
-1.7178e-18
-1.69488e-18
-1.70716e-18
-1.71175e-18
-1.7116e-18
-1.70468e-18
-1.69128e-18
-1.70514e-18
-1.72086e-18
-1.71255e-18
-1.71145e-18
-1.70492e-18
-1.71657e-18
-1.71133e-18
-1.72082e-18
-1.73328e-18
-1.75587e-18
-1.75436e-18
-1.73178e-18
-1.73514e-18
-1.74498e-18
-1.74237e-18
-1.7359e-18
-1.74311e-18
-1.7426e-18
-1.67919e-18
-1.67804e-18
-1.67738e-18
-1.67134e-18
-1.68654e-18
-1.67544e-18
-1.6657e-18
-1.674e-18
-1.67685e-18
-1.69036e-18
-1.66997e-18
-1.68037e-18
-1.66372e-18
-1.67954e-18
-1.70388e-18
-1.69472e-18
-1.71542e-18
-1.69441e-18
-1.70403e-18
-1.71478e-18
-1.70277e-18
-1.71394e-18
-1.69128e-18
-1.70743e-18
-1.70587e-18
-1.71139e-18
-1.7153e-18
-1.70317e-18
-1.71998e-18
-1.71466e-18
-1.73214e-18
-1.72581e-18
-1.73755e-18
-1.74076e-18
-1.74026e-18
-1.74267e-18
-1.73622e-18
-1.7302e-18
-1.73642e-18
-1.74919e-18
-1.76107e-18
-1.66694e-18
-1.6747e-18
-1.68185e-18
-1.67388e-18
-1.66447e-18
-1.69418e-18
-1.67541e-18
-1.66115e-18
-1.67738e-18
-1.66513e-18
-1.68877e-18
-1.67653e-18
-1.6814e-18
-1.69544e-18
-1.6825e-18
-1.69369e-18
-1.70587e-18
-1.69465e-18
-1.68909e-18
-1.70719e-18
-1.68137e-18
-1.69959e-18
-1.71221e-18
-1.70058e-18
-1.70889e-18
-1.70544e-18
-1.70112e-18
-1.71912e-18
-1.71863e-18
-1.7239e-18
-1.70554e-18
-1.72354e-18
-1.72359e-18
-1.71811e-18
-1.72759e-18
-1.73196e-18
-1.74517e-18
-1.73294e-18
-1.72957e-18
-1.73988e-18
-1.75072e-18
-1.73463e-18
-1.6906e-18
-1.66674e-18
-1.67574e-18
-1.66649e-18
-1.67383e-18