/*--------------------------------*- C++ -*----------------------------------*\
  =========                 |
  \\      /  F ield         | OpenFOAM: The Open Source CFD Toolbox
   \\    /   O peration     | Website:  https://openfoam.org
    \\  /    A nd           | Version:  7
     \\/     M anipulation  |
\*---------------------------------------------------------------------------*/
FoamFile
{
    version     2.0;
    format      ascii;
    class       volVectorField;
    location    "272000";
    object      vorticity;
}
// * * * * * * * * * * * * * * * * * * * * * * * * * * * * * * * * * * * * * //

dimensions      [0 0 -1 0 0 0 0];

internalField   nonuniform List<vector> 
4782
(
(-0.0732094 -0.0551214 3.31434e-17)
(-0.0757635 -0.0570393 2.78305e-17)
(-0.078456 -0.059061 2.7467e-17)
(-0.0812969 -0.0611942 3.12413e-17)
(-0.0842972 -0.063447 3.51724e-17)
(-0.0874687 -0.0658283 3.78428e-17)
(-0.090824 -0.0683476 4.00533e-17)
(-0.0943772 -0.0710153 4.25062e-17)
(-0.0981431 -0.0738428 4.16943e-17)
(-0.102138 -0.0768422 3.93328e-17)
(-0.0229043 -0.0184637 1.69114e-17)
(-0.0233766 -0.0188422 1.5707e-17)
(-0.0238613 -0.0192305 1.64296e-17)
(-0.0243588 -0.0196292 1.81093e-17)
(-0.0248696 -0.0200385 1.87439e-17)
(-0.0253942 -0.020459 1.87297e-17)
(-0.0259333 -0.020891 1.89033e-17)
(-0.0264874 -0.0213351 1.87827e-17)
(-0.0270572 -0.0217918 1.81758e-17)
(-0.0276434 -0.0222616 1.72994e-17)
(-0.0282478 -0.022746 1.6104e-17)
(-0.0288742 -0.0232482 1.50054e-17)
(-0.0295258 -0.0237708 1.43222e-17)
(-0.030202 -0.0243133 1.38327e-17)
(-0.0309008 -0.024874 1.36556e-17)
(-0.0316217 -0.0254523 1.43073e-17)
(-0.032365 -0.0260486 1.50555e-17)
(-0.0331312 -0.0266632 1.56361e-17)
(-0.0339215 -0.0272971 1.55727e-17)
(-0.0347372 -0.0279513 1.49246e-17)
(-0.0355797 -0.0286269 1.39356e-17)
(-0.0364504 -0.0293251 1.30049e-17)
(-0.037351 -0.0300473 1.21415e-17)
(-0.0382833 -0.0307947 1.11124e-17)
(-0.0392489 -0.0315689 1.01365e-17)
(-0.0402499 -0.0323714 8.92542e-18)
(-0.0412882 -0.0332038 7.39822e-18)
(-0.042366 -0.0340679 6.50443e-18)
(-0.0434856 -0.0349653 6.44149e-18)
(-0.0446493 -0.0358982 6.56603e-18)
(-0.0458597 -0.0368684 6.47187e-18)
(-0.0471196 -0.0378783 6.58131e-18)
(-0.048432 -0.0389302 6.9788e-18)
(-0.0497999 -0.0400266 7.38233e-18)
(-0.0512267 -0.0411702 7.45135e-18)
(-0.0527162 -0.042364 7.63729e-18)
(-0.0542721 -0.043611 7.92264e-18)
(-0.0558987 -0.0449147 7.86495e-18)
(-0.0576006 -0.0462785 6.96393e-18)
(-0.0593825 -0.0477066 5.43451e-18)
(-0.0612497 -0.049203 3.66747e-18)
(-0.063208 -0.0507722 1.8617e-18)
(-0.0652635 -0.0524194 -1.71619e-19)
(-0.0674227 -0.0541496 -1.79744e-18)
(-0.069693 -0.0559688 -2.95672e-18)
(-0.0720819 -0.057883 -3.75055e-18)
(-0.0745981 -0.0598991 -4.85369e-18)
(-0.0772505 -0.0620243 -6.47393e-18)
(-0.080049 -0.0642666 -8.78653e-18)
(-0.0830044 -0.0666344 -1.02154e-17)
(-0.0861282 -0.0691372 -1.05097e-17)
(-0.0894329 -0.0717848 -1.12655e-17)
(-0.0929322 -0.0745883 -1.26752e-17)
(-0.0966407 -0.0775593 -1.68174e-17)
(-0.100574 -0.0807106 -2.18574e-17)
(-0.0225121 -0.0193116 1.90173e-17)
(-0.0229762 -0.0197079 1.60254e-17)
(-0.0234523 -0.0201146 1.38963e-17)
(-0.0239411 -0.020532 1.28395e-17)
(-0.024443 -0.0209607 1.2288e-17)
(-0.0249585 -0.0214011 1.21998e-17)
(-0.0254883 -0.0218536 1.31409e-17)
(-0.0260328 -0.0223188 1.50643e-17)
(-0.0265928 -0.0227973 1.65627e-17)
(-0.027169 -0.0232896 1.71958e-17)
(-0.0277643 -0.0237985 1.71006e-17)
(-0.0283831 -0.0243276 1.62013e-17)
(-0.0290263 -0.0248779 1.49704e-17)
(-0.029692 -0.0254474 1.46632e-17)
(-0.0303791 -0.0260353 1.52476e-17)
(-0.0310874 -0.0266412 1.6155e-17)
(-0.0318175 -0.0272657 1.69707e-17)
(-0.0325701 -0.0279093 1.74189e-17)
(-0.0333464 -0.0285732 1.73103e-17)
(-0.0341478 -0.0292583 1.66382e-17)
(-0.0349756 -0.029966 1.59465e-17)
(-0.0358313 -0.0306975 1.55234e-17)
(-0.0367166 -0.0314542 1.56392e-17)
(-0.037633 -0.0322376 1.63081e-17)
(-0.0385825 -0.033049 1.67915e-17)
(-0.0395668 -0.0338903 1.67991e-17)
(-0.0405879 -0.0347629 1.58377e-17)
(-0.0416479 -0.0356688 1.40491e-17)
(-0.042749 -0.0366099 1.24985e-17)
(-0.0438936 -0.037588 1.16963e-17)
(-0.0450842 -0.0386055 1.07828e-17)
(-0.0463236 -0.0396646 9.2693e-18)
(-0.0476146 -0.0407678 7.34329e-18)
(-0.0489603 -0.0419177 5.32149e-18)
(-0.0503641 -0.0431172 3.33419e-18)
(-0.0518295 -0.0443693 1.7083e-18)
(-0.0533603 -0.0456773 5.75738e-19)
(-0.0549607 -0.0470448 -9.0943e-19)
(-0.0566351 -0.0484754 -2.77088e-18)
(-0.0583884 -0.0499734 -5.18758e-18)
(-0.0602256 -0.051543 -7.7054e-18)
(-0.0621524 -0.0531892 -9.9906e-18)
(-0.0641748 -0.054917 -1.22661e-17)
(-0.0662994 -0.056732 -1.412e-17)
(-0.068533 -0.0586402 -1.49919e-17)
(-0.0708835 -0.0606481 -1.53166e-17)
(-0.073359 -0.0627628 -1.57253e-17)
(-0.0759685 -0.0649919 -1.66086e-17)
(-0.0787217 -0.0673437 -1.87274e-17)
(-0.081629 -0.069827 -2.07484e-17)
(-0.0847017 -0.0724517 -2.14671e-17)
(-0.0879523 -0.0752281 -2.02239e-17)
(-0.0913939 -0.0781676 -1.86134e-17)
(-0.0950408 -0.0812825 -2.03712e-17)
(-0.0989087 -0.0845859 -2.43291e-17)
(-0.0220974 -0.0201557 6.59634e-18)
(-0.0225526 -0.0205696 5.50988e-18)
(-0.0230198 -0.0209944 4.60876e-18)
(-0.0234995 -0.0214305 3.42129e-18)
(-0.0239921 -0.0218783 2.94552e-18)
(-0.0244982 -0.0223384 3.13517e-18)
(-0.0250185 -0.0228112 3.45357e-18)
(-0.0255534 -0.0232973 4.63209e-18)
(-0.0261035 -0.0237976 6.65958e-18)
(-0.02667 -0.0243138 8.53135e-18)
(-0.0272568 -0.0248493 1.01466e-17)
(-0.027867 -0.0254065 1.17477e-17)
(-0.0284999 -0.0259843 1.36175e-17)
(-0.0291536 -0.0265807 1.57775e-17)
(-0.0298276 -0.0271953 1.74909e-17)
(-0.030522 -0.0278283 1.89398e-17)
(-0.0312377 -0.0284805 2.05569e-17)
(-0.0319756 -0.0291527 2.25683e-17)
(-0.032737 -0.0298463 2.46221e-17)
(-0.0335232 -0.0305622 2.64336e-17)
(-0.0343355 -0.0313019 2.80571e-17)
(-0.0351754 -0.0320667 2.93835e-17)
(-0.0360444 -0.032858 3.0726e-17)
(-0.0369442 -0.0336772 3.24139e-17)
(-0.0378765 -0.0345261 3.43492e-17)
(-0.0388431 -0.0354061 3.62039e-17)
(-0.039846 -0.0363191 3.744e-17)
(-0.0408871 -0.037267 3.83319e-17)
(-0.0419687 -0.0382517 3.83475e-17)
(-0.0430931 -0.0392753 3.79156e-17)
(-0.0442628 -0.0403401 3.73074e-17)
(-0.0454804 -0.0414486 3.64137e-17)
(-0.0467487 -0.0426033 3.56409e-17)
(-0.0480709 -0.0438069 3.53945e-17)
(-0.0494501 -0.0450624 3.46743e-17)
(-0.05089 -0.0463731 3.3244e-17)
(-0.0523941 -0.0477424 3.20293e-17)
(-0.0539667 -0.0491738 3.11045e-17)
(-0.055612 -0.0506715 3.03096e-17)
(-0.0573348 -0.0522397 2.9481e-17)
(-0.0591401 -0.053883 2.82823e-17)
(-0.0610334 -0.0556064 2.71186e-17)
(-0.0630207 -0.0574152 2.64274e-17)
(-0.0651083 -0.0593153 2.57174e-17)
(-0.0673031 -0.0613129 2.56647e-17)
(-0.0696126 -0.063415 2.55026e-17)
(-0.0720448 -0.0656287 2.50486e-17)
(-0.0746086 -0.067962 2.40779e-17)
(-0.0773134 -0.0704237 2.29377e-17)
(-0.0801695 -0.073023 2.19577e-17)
(-0.0831878 -0.0757699 2.09413e-17)
(-0.0863806 -0.0786755 2.06766e-17)
(-0.0897606 -0.0817514 2.10131e-17)
(-0.093342 -0.0850105 1.991e-17)
(-0.0971398 -0.0884664 1.76953e-17)
(-0.0222891 -0.0203642 2.07382e-17)
(-0.0227326 -0.0207974 2.21329e-17)
(-0.0231879 -0.0212417 2.38575e-17)
(-0.0236553 -0.0216977 2.51651e-17)
(-0.0241354 -0.0221658 2.58378e-17)
(-0.0246287 -0.0226465 2.57548e-17)
(-0.0251361 -0.0231405 2.51431e-17)
(-0.0256602 -0.0236503 2.44044e-17)
(-0.0262034 -0.0241787 2.39573e-17)
(-0.0267659 -0.024726 2.43935e-17)
(-0.0273467 -0.0252918 2.58224e-17)
(-0.027946 -0.0258758 2.70718e-17)
(-0.0285643 -0.0264779 2.74845e-17)
(-0.029202 -0.0270984 2.72306e-17)
(-0.0298597 -0.0277378 2.63678e-17)
(-0.030538 -0.0283968 2.55759e-17)
(-0.0312376 -0.0290763 2.52438e-17)
(-0.0319596 -0.0297772 2.54399e-17)
(-0.032705 -0.0305006 2.61525e-17)
(-0.033475 -0.0312476 2.69858e-17)
(-0.0342708 -0.0320196 2.78525e-17)
(-0.035094 -0.0328178 2.80804e-17)
(-0.0359459 -0.0336437 2.793e-17)
(-0.0368282 -0.0344989 2.78071e-17)
(-0.0377425 -0.035385 2.79309e-17)
(-0.0386906 -0.0363037 2.82865e-17)
(-0.0396745 -0.0372568 2.86164e-17)
(-0.0406961 -0.0382463 2.81169e-17)
(-0.0417575 -0.0392742 2.73389e-17)
(-0.0428611 -0.0403428 2.69357e-17)
(-0.0440092 -0.0414543 2.7002e-17)
(-0.0452046 -0.0426114 2.71664e-17)
(-0.0464499 -0.0438166 2.72965e-17)
(-0.0477482 -0.045073 2.7709e-17)
(-0.0491026 -0.0463836 2.85728e-17)
(-0.0505167 -0.0477517 2.91077e-17)
(-0.051994 -0.0491808 2.90693e-17)
(-0.0535387 -0.050675 2.94689e-17)
(-0.0551549 -0.0522382 3.01396e-17)
(-0.0568473 -0.0538749 3.11799e-17)
(-0.0586208 -0.05559 3.23355e-17)
(-0.0604808 -0.0573887 3.31143e-17)
(-0.0624332 -0.0592765 3.34298e-17)
(-0.0644841 -0.0612595 3.30344e-17)
(-0.0666404 -0.0633443 3.16607e-17)
(-0.0689093 -0.065538 3.03857e-17)
(-0.0712987 -0.0678481 2.97649e-17)
(-0.0738173 -0.070283 2.98707e-17)
(-0.0764742 -0.0728516 3.00311e-17)
(-0.0792796 -0.0755637 3.00798e-17)
(-0.0822441 -0.0784297 3.00408e-17)
(-0.0853795 -0.0814609 2.92294e-17)
(-0.0886985 -0.0846697 2.73162e-17)
(-0.0922146 -0.0880691 2.38954e-17)
(-0.0959426 -0.0916735 1.9414e-17)
(-0.0203642 -0.0222891 1.46495e-17)
(-0.0207974 -0.0227326 1.5579e-17)
(-0.0212417 -0.0231879 1.66824e-17)
(-0.0216977 -0.0236553 1.78561e-17)
(-0.0221658 -0.0241354 1.90465e-17)
(-0.0226465 -0.0246287 1.97217e-17)
(-0.0231405 -0.0251361 1.9873e-17)
(-0.0236504 -0.0256602 1.94238e-17)
(-0.0241787 -0.0262034 1.91529e-17)
(-0.024726 -0.0267659 2.04512e-17)
(-0.0252918 -0.0273467 2.27528e-17)
(-0.0258758 -0.027946 2.38953e-17)
(-0.0264779 -0.0285643 2.39274e-17)
(-0.0270984 -0.029202 2.31497e-17)
(-0.0277378 -0.0298597 2.14629e-17)
(-0.0283969 -0.030538 1.96351e-17)
(-0.0290763 -0.0312376 1.80034e-17)
(-0.0297772 -0.0319596 1.65482e-17)
(-0.0305006 -0.032705 1.5472e-17)
(-0.0312476 -0.033475 1.43241e-17)
(-0.0320196 -0.0342708 1.27739e-17)
(-0.0328178 -0.035094 1.11795e-17)
(-0.0336437 -0.0359459 9.7724e-18)
(-0.0344989 -0.0368282 8.15711e-18)
(-0.035385 -0.0377425 6.49316e-18)
(-0.0363037 -0.0386906 4.70678e-18)
(-0.0372568 -0.0396745 2.74401e-18)
(-0.0382463 -0.0406961 4.62115e-19)
(-0.0392742 -0.0417575 -1.4129e-18)
(-0.0403428 -0.0428611 -2.4128e-18)
(-0.0414543 -0.0440092 -2.74239e-18)
(-0.0426114 -0.0452046 -2.87656e-18)
(-0.0438166 -0.0464499 -2.79331e-18)
(-0.045073 -0.0477482 -2.74657e-18)
(-0.0463836 -0.0491026 -2.82815e-18)
(-0.0477517 -0.0505167 -3.67352e-18)
(-0.0491808 -0.051994 -5.2066e-18)
(-0.050675 -0.0535387 -6.56284e-18)
(-0.0522382 -0.0551549 -7.69728e-18)
(-0.0538749 -0.0568473 -8.52444e-18)
(-0.05559 -0.0586208 -9.20949e-18)
(-0.0573887 -0.0604808 -1.0305e-17)
(-0.0592765 -0.0624332 -1.20488e-17)
(-0.0612595 -0.0644841 -1.4418e-17)
(-0.0633443 -0.0666404 -1.80145e-17)
(-0.065538 -0.0689093 -2.17589e-17)
(-0.0678481 -0.0712987 -2.45447e-17)
(-0.070283 -0.0738173 -2.69338e-17)
(-0.0728516 -0.0764742 -2.91324e-17)
(-0.0755637 -0.0792796 -3.15604e-17)
(-0.0784297 -0.0822441 -3.43392e-17)
(-0.0814609 -0.0853795 -3.77388e-17)
(-0.0846697 -0.0886985 -4.16779e-17)
(-0.0880691 -0.0922146 -4.58851e-17)
(-0.0916735 -0.0959426 -5.08516e-17)
(-0.0201557 -0.0220974 1.85459e-17)
(-0.0205696 -0.0225526 1.8252e-17)
(-0.0209944 -0.0230198 1.7061e-17)
(-0.0214305 -0.0234995 1.62026e-17)
(-0.0218783 -0.0239921 1.62825e-17)
(-0.0223384 -0.0244982 1.65967e-17)
(-0.0228112 -0.0250185 1.69248e-17)
(-0.0232973 -0.0255534 1.79597e-17)
(-0.0237976 -0.0261035 1.95691e-17)
(-0.0243138 -0.02667 2.09723e-17)
(-0.0248493 -0.0272568 2.23918e-17)
(-0.0254065 -0.027867 2.35423e-17)
(-0.0259843 -0.0284999 2.46435e-17)
(-0.0265807 -0.0291536 2.55021e-17)
(-0.0271953 -0.0298275 2.6231e-17)
(-0.0278283 -0.030522 2.63984e-17)
(-0.0284805 -0.0312377 2.65249e-17)
(-0.0291527 -0.0319756 2.71339e-17)
(-0.0298463 -0.032737 2.71008e-17)
(-0.0305622 -0.0335232 2.67401e-17)
(-0.0313019 -0.0343355 2.64944e-17)
(-0.0320667 -0.0351754 2.62683e-17)
(-0.032858 -0.0360444 2.60166e-17)
(-0.0336773 -0.0369442 2.62656e-17)
(-0.0345261 -0.0378765 2.6731e-17)
(-0.0354061 -0.0388431 2.74839e-17)
(-0.0363191 -0.039846 2.82927e-17)
(-0.037267 -0.0408871 2.90125e-17)
(-0.0382517 -0.0419687 2.94468e-17)
(-0.0392753 -0.0430931 2.98816e-17)
(-0.0403402 -0.0442628 3.00872e-17)
(-0.0414486 -0.0454804 2.99404e-17)
(-0.0426033 -0.0467487 2.96202e-17)
(-0.0438069 -0.0480709 2.92295e-17)
(-0.0450624 -0.0494501 2.79726e-17)
(-0.0463731 -0.05089 2.59513e-17)
(-0.0477424 -0.0523941 2.33747e-17)
(-0.0491738 -0.0539667 2.09832e-17)
(-0.0506715 -0.055612 1.91308e-17)
(-0.0522397 -0.0573348 1.72118e-17)
(-0.053883 -0.0591401 1.54206e-17)
(-0.0556064 -0.0610334 1.34579e-17)
(-0.0574152 -0.0630207 1.17015e-17)
(-0.0593153 -0.0651083 1.04756e-17)
(-0.0613129 -0.0673031 9.65309e-18)
(-0.063415 -0.0696126 8.80145e-18)
(-0.0656287 -0.0720448 7.76698e-18)
(-0.0679621 -0.0746086 6.27095e-18)
(-0.0704237 -0.0773134 4.55963e-18)
(-0.073023 -0.0801695 2.38011e-18)
(-0.0757699 -0.0831879 -3.08648e-19)
(-0.0786755 -0.0863806 -2.94911e-18)
(-0.0817514 -0.0897606 -4.97501e-18)
(-0.0850105 -0.093342 -6.48859e-18)
(-0.0884664 -0.0971398 -6.94297e-18)
(-0.092134 -0.10117 -6.73711e-18)
(-0.0960291 -0.105451 -6.51072e-18)
(-0.100169 -0.11 -6.86869e-18)
(-0.104571 -0.114838 -7.79271e-18)
(-0.0193116 -0.0225121 2.01594e-17)
(-0.0197079 -0.0229762 2.1756e-17)
(-0.0201146 -0.0234523 2.20616e-17)
(-0.020532 -0.0239411 2.1683e-17)
(-0.0209607 -0.024443 2.16046e-17)
(-0.0214011 -0.0249585 2.15808e-17)
(-0.0218536 -0.0254883 2.16488e-17)
(-0.0223188 -0.0260328 2.17548e-17)
(-0.0227973 -0.0265928 2.17209e-17)
(-0.0232896 -0.027169 2.15741e-17)
(-0.0237985 -0.0277643 2.12409e-17)
(-0.0243276 -0.0283831 2.12899e-17)
(-0.0248779 -0.0290263 2.15474e-17)
(-0.0254475 -0.029692 2.2152e-17)
(-0.0260353 -0.0303791 2.32943e-17)
(-0.0266413 -0.0310874 2.48155e-17)
(-0.0272657 -0.0318174 2.66018e-17)
(-0.0279093 -0.0325701 2.7856e-17)
(-0.0285732 -0.0333464 2.868e-17)
(-0.0292583 -0.0341478 2.92148e-17)
(-0.029966 -0.0349756 2.92981e-17)
(-0.0306975 -0.0358313 2.90731e-17)
(-0.0314542 -0.0367166 2.96869e-17)
(-0.0322376 -0.037633 3.1318e-17)
(-0.033049 -0.0385825 3.298e-17)
(-0.0338903 -0.0395668 3.47217e-17)
(-0.0347629 -0.0405879 3.54242e-17)
(-0.0356688 -0.0416479 3.47187e-17)
(-0.0366099 -0.042749 3.34506e-17)
(-0.037588 -0.0438936 3.26179e-17)
(-0.0386055 -0.0450843 3.13728e-17)
(-0.0396646 -0.0463236 2.89011e-17)
(-0.0407678 -0.0476146 2.60588e-17)
(-0.0419177 -0.0489603 2.33129e-17)
(-0.0431172 -0.0503641 2.06337e-17)
(-0.0443693 -0.0518295 1.84275e-17)
(-0.0456773 -0.0533603 1.70318e-17)
(-0.0470448 -0.0549607 1.61906e-17)
(-0.0484754 -0.0566351 1.56166e-17)
(-0.0499734 -0.0583884 1.50496e-17)
(-0.051543 -0.0602256 1.44337e-17)
(-0.0531892 -0.0621524 1.40087e-17)
(-0.054917 -0.0641748 1.37682e-17)
(-0.056732 -0.0662994 1.33634e-17)
(-0.0586402 -0.0685331 1.36259e-17)
(-0.0606481 -0.0708835 1.45832e-17)
(-0.0627628 -0.073359 1.48437e-17)
(-0.0649919 -0.0759685 1.45431e-17)
(-0.0673437 -0.0787217 1.33572e-17)
(-0.069827 -0.081629 1.24911e-17)
(-0.0724517 -0.0847018 1.15971e-17)
(-0.0752281 -0.0879523 1.06206e-17)
(-0.0781676 -0.0913939 1.03128e-17)
(-0.0812825 -0.0950408 9.69099e-18)
(-0.0845859 -0.0989087 8.31423e-18)
(-0.0880922 -0.103014 7.67094e-18)
(-0.0918167 -0.107375 7.38144e-18)
(-0.0957757 -0.112011 6.32342e-18)
(-0.0999869 -0.116942 3.34524e-18)
(-0.104469 -0.12219 1.2471e-19)
(-0.0184637 -0.0229043 7.37574e-19)
(-0.0188422 -0.0233766 2.43907e-18)
(-0.0192305 -0.0238613 3.49536e-18)
(-0.0196292 -0.0243588 3.8397e-18)
(-0.0200385 -0.0248696 4.15209e-18)
(-0.020459 -0.0253942 4.84418e-18)
(-0.020891 -0.0259333 5.57705e-18)
(-0.0213351 -0.0264874 6.52217e-18)
(-0.0217918 -0.0270572 8.01056e-18)
(-0.0222616 -0.0276434 9.79826e-18)
(-0.022746 -0.0282478 1.12785e-17)
(-0.0232482 -0.0288742 1.26064e-17)
(-0.0237708 -0.0295258 1.38243e-17)
(-0.0243133 -0.0302019 1.49165e-17)
(-0.024874 -0.0309008 1.58664e-17)
(-0.0254524 -0.0316217 1.72114e-17)
(-0.0260486 -0.032365 1.86927e-17)
(-0.0266632 -0.0331312 2.00237e-17)
(-0.0272971 -0.0339215 2.12834e-17)
(-0.0279513 -0.0347372 2.20275e-17)
(-0.0286269 -0.0355797 2.20155e-17)
(-0.0293251 -0.0364504 2.16974e-17)
(-0.0300473 -0.037351 2.13203e-17)
(-0.0307947 -0.0382833 2.10642e-17)
(-0.0315689 -0.0392489 2.08023e-17)
(-0.0323714 -0.0402499 2.01956e-17)
(-0.0332038 -0.0412882 1.93748e-17)
(-0.0340679 -0.042366 1.89601e-17)
(-0.0349653 -0.0434856 1.92807e-17)
(-0.0358982 -0.0446493 1.97648e-17)
(-0.0368684 -0.0458597 2.00703e-17)
(-0.0378783 -0.0471196 1.99807e-17)
(-0.0389302 -0.048432 1.96745e-17)
(-0.0400266 -0.0497999 1.9411e-17)
(-0.0411703 -0.0512267 1.86457e-17)
(-0.042364 -0.0527162 1.80354e-17)
(-0.043611 -0.0542721 1.79474e-17)
(-0.0449147 -0.0558987 1.7322e-17)
(-0.0462785 -0.0576006 1.58216e-17)
(-0.0477066 -0.0593825 1.40396e-17)
(-0.049203 -0.0612497 1.22653e-17)
(-0.0507723 -0.063208 1.04395e-17)
(-0.0524194 -0.0652635 8.4275e-18)
(-0.0541496 -0.0674227 6.78683e-18)
(-0.0559688 -0.069693 5.30078e-18)
(-0.057883 -0.0720819 3.99324e-18)
(-0.0598991 -0.0745981 2.8206e-18)
(-0.0620243 -0.0772505 2.004e-18)
(-0.0642666 -0.080049 1.26565e-18)
(-0.0666344 -0.0830044 4.50773e-19)
(-0.0691372 -0.0861282 -4.07927e-19)
(-0.0717849 -0.0894329 -8.53598e-19)
(-0.0745883 -0.0929322 -1.60374e-18)
(-0.0775593 -0.0966407 -3.34755e-18)
(-0.0807106 -0.100574 -5.41023e-18)
(-0.0840558 -0.10475 -7.84546e-18)
(-0.0876098 -0.109186 -1.10145e-17)
(-0.0913882 -0.113903 -1.48629e-17)
(-0.0954081 -0.118921 -1.87009e-17)
(-0.0996874 -0.124263 -2.16373e-17)
(-0.104245 -0.129953 -2.37743e-17)
(-0.109102 -0.136016 -2.51589e-17)
(-0.114278 -0.142478 -2.56082e-17)
(-0.119795 -0.149366 -2.59898e-17)
(-0.125675 -0.156707 -2.78651e-17)
(-0.13194 -0.164529 -3.00685e-17)
(-0.13861 -0.172857 -3.1389e-17)
(-0.145706 -0.181716 -3.21638e-17)
(-0.153245 -0.191129 -3.35133e-17)
(-0.161246 -0.201118 -3.4232e-17)
(-0.16974 -0.211724 -3.45799e-17)
(-0.178862 -0.223115 -3.56376e-17)
(-0.188846 -0.235581 -3.67807e-17)
(-0.199745 -0.249189 -3.67907e-17)
(-0.211362 -0.263693 -3.49063e-17)
(-0.223496 -0.278844 -3.26203e-17)
(-0.235979 -0.294431 -2.95284e-17)
(-0.248579 -0.310165 -2.4849e-17)
(-0.260997 -0.325672 -1.91709e-17)
(-0.272881 -0.340512 -1.0688e-17)
(-0.283861 -0.354224 8.3449e-19)
(-0.293603 -0.366392 1.51412e-17)
(-0.301864 -0.376712 3.08546e-17)
(-0.308539 -0.385051 4.69622e-17)
(-0.313668 -0.39146 6.41156e-17)
(-0.317422 -0.396154 8.23876e-17)
(-0.320054 -0.399446 1.01034e-16)
(-0.321843 -0.401685 1.17871e-16)
(-0.323049 -0.403196 1.34255e-16)
(-0.323884 -0.404244 1.49889e-16)
(-0.324505 -0.405025 1.63218e-16)
(-0.325015 -0.405667 1.76688e-16)
(-0.325473 -0.406244 1.90946e-16)
(-0.325909 -0.406793 -4.82227e-16)
(-0.326335 -0.40733 -5.65787e-16)
(-0.0176125 -0.023275 1.20825e-17)
(-0.0179731 -0.0237553 1.26096e-17)
(-0.0183431 -0.024248 1.26355e-17)
(-0.0187229 -0.0247537 1.23282e-17)
(-0.0191128 -0.025273 1.21682e-17)
(-0.0195134 -0.0258063 1.22793e-17)
(-0.0199249 -0.0263542 1.19526e-17)
(-0.0203479 -0.0269175 1.16018e-17)
(-0.0207829 -0.0274966 1.14855e-17)
(-0.0212303 -0.0280923 1.09818e-17)
(-0.0216909 -0.0287055 1.01702e-17)
(-0.0221671 -0.0293395 9.39483e-18)
(-0.0226625 -0.0299988 8.88381e-18)
(-0.0231777 -0.0306842 8.33366e-18)
(-0.0237111 -0.0313936 7.23841e-18)
(-0.0242617 -0.0321261 6.23653e-18)
(-0.0248296 -0.0328816 5.48376e-18)
(-0.0254152 -0.0336605 4.54753e-18)
(-0.0260191 -0.034464 3.31178e-18)
(-0.0266422 -0.0352931 2.15635e-18)
(-0.0272857 -0.0361493 1.31127e-18)
(-0.0279506 -0.0370342 5.46693e-19)
(-0.0286383 -0.0379493 -4.11918e-19)
(-0.0293499 -0.0388964 -1.7083e-18)
(-0.0300869 -0.0398773 -2.9109e-18)
(-0.0308508 -0.0408941 -3.8179e-18)
(-0.0316431 -0.0419487 -3.88422e-18)
(-0.0324654 -0.0430432 -2.44201e-18)
(-0.0333195 -0.0441801 -4.58725e-19)
(-0.0342071 -0.0453618 1.90152e-18)
(-0.0351304 -0.0465908 4.90633e-18)
(-0.0360913 -0.04787 8.04845e-18)
(-0.0370921 -0.0492024 1.15131e-17)
(-0.0381352 -0.0505911 1.52108e-17)
(-0.0392232 -0.0520397 1.89545e-17)
(-0.0403589 -0.0535517 2.25233e-17)
(-0.0415451 -0.0551312 2.52022e-17)
(-0.0427853 -0.0567824 2.68612e-17)
(-0.0440827 -0.0585099 2.77933e-17)
(-0.0454411 -0.0603187 2.86801e-17)
(-0.0468645 -0.0622141 2.97191e-17)
(-0.0483573 -0.0642019 3.04431e-17)
(-0.0499241 -0.0662883 3.08966e-17)
(-0.05157 -0.06848 3.134e-17)
(-0.0533005 -0.0707844 3.09155e-17)
(-0.0551214 -0.0732094 3.00446e-17)
(-0.0570393 -0.0757635 2.94602e-17)
(-0.0590611 -0.078456 3.03602e-17)
(-0.0611942 -0.081297 3.2985e-17)
(-0.063447 -0.0842972 3.62303e-17)
(-0.0658283 -0.0874687 3.91009e-17)
(-0.0683476 -0.090824 4.19166e-17)
(-0.0710153 -0.0943772 4.49758e-17)
(-0.0738428 -0.0981431 4.79525e-17)
(-0.0768422 -0.102138 5.00663e-17)
(-0.0800266 -0.106379 5.10227e-17)
(-0.0834101 -0.110886 5.17219e-17)
(-0.087008 -0.115679 5.22762e-17)
(-0.0908365 -0.120778 5.24363e-17)
(-0.094913 -0.126208 5.24475e-17)
(-0.0992559 -0.131993 5.25125e-17)
(-0.103885 -0.138159 5.2604e-17)
(-0.10882 -0.144733 5.26381e-17)
(-0.114081 -0.151742 5.21829e-17)
(-0.119692 -0.159215 5.22729e-17)
(-0.125671 -0.167181 5.28273e-17)
(-0.132041 -0.175667 5.29416e-17)
(-0.138821 -0.1847 5.18744e-17)
(-0.146029 -0.194301 4.89056e-17)
(-0.153681 -0.204496 4.54262e-17)
(-0.161807 -0.215322 4.05798e-17)
(-0.170512 -0.22692 3.54563e-17)
(-0.180022 -0.23959 3.1777e-17)
(-0.190439 -0.253466 2.70813e-17)
(-0.201582 -0.268312 2.08521e-17)
(-0.213243 -0.283848 1.35402e-17)
(-0.225265 -0.299866 6.23637e-18)
(-0.23743 -0.316074 -1.41668e-18)
(-0.24945 -0.332092 -9.04787e-18)
(-0.260987 -0.347465 -1.77095e-17)
(-0.27168 -0.361715 -2.69096e-17)
(-0.281196 -0.374399 -3.51086e-17)
(-0.28929 -0.385189 -4.35039e-17)
(-0.295845 -0.39393 -5.31054e-17)
(-0.300893 -0.400662 -6.38641e-17)
(-0.304592 -0.405598 -7.5972e-17)
(-0.307185 -0.409062 -8.85886e-17)
(-0.308946 -0.411416 -1.04724e-16)
(-0.310129 -0.413 -1.25023e-16)
(-0.310945 -0.414096 -1.50421e-16)
(-0.311549 -0.414909 -1.83397e-16)
(-0.312042 -0.415574 -2.218e-16)
(-0.312485 -0.416171 -2.68268e-16)
(-0.312905 -0.416739 -6.73642e-16)
(-0.313316 -0.417294 -7.77986e-16)
(-0.0167586 -0.023625 5.73149e-18)
(-0.0171014 -0.0241127 6.0723e-18)
(-0.017453 -0.024613 6.87871e-18)
(-0.017814 -0.0251265 7.85839e-18)
(-0.0181846 -0.0256537 8.78135e-18)
(-0.0185652 -0.0261952 9.40652e-18)
(-0.0189562 -0.0267515 9.90341e-18)
(-0.0193582 -0.0273233 1.0287e-17)
(-0.0197714 -0.0279112 1.0161e-17)
(-0.0201965 -0.0285159 9.23525e-18)
(-0.020634 -0.0291382 8.05557e-18)
(-0.0210853 -0.0297803 6.83713e-18)
(-0.0215536 -0.0304462 5.14457e-18)
(-0.022041 -0.031139 3.17477e-18)
(-0.0225469 -0.0318579 1.15785e-18)
(-0.0230698 -0.032601 -4.09943e-19)
(-0.0236094 -0.0333679 -1.92827e-18)
(-0.0241658 -0.0341588 -4.10558e-18)
(-0.0247397 -0.0349746 -6.50928e-18)
(-0.0253319 -0.0358164 -8.93751e-18)
(-0.0259433 -0.0366856 -1.1221e-17)
(-0.026575 -0.0375837 -1.32893e-17)
(-0.0272282 -0.0385125 -1.48814e-17)
(-0.0279042 -0.0394736 -1.60358e-17)
(-0.0286041 -0.0404689 -1.68974e-17)
(-0.0293295 -0.0415004 -1.77447e-17)
(-0.0300818 -0.0425702 -1.8669e-17)
(-0.0308626 -0.0436805 -1.94599e-17)
(-0.0316734 -0.0448337 -1.97891e-17)
(-0.0325161 -0.0460322 -1.99748e-17)
(-0.0333925 -0.0472787 -2.07934e-17)
(-0.0343046 -0.048576 -2.18298e-17)
(-0.0352545 -0.0499271 -2.27209e-17)
(-0.0362446 -0.0513354 -2.30395e-17)
(-0.0372773 -0.0528042 -2.31064e-17)
(-0.0383551 -0.0543374 -2.27986e-17)
(-0.039481 -0.0559389 -2.15601e-17)
(-0.0406579 -0.0576131 -1.94625e-17)
(-0.0418892 -0.0593646 -1.67425e-17)
(-0.0431783 -0.0611984 -1.39329e-17)
(-0.0445291 -0.0631201 -1.14254e-17)
(-0.0459457 -0.0651354 -9.36249e-18)
(-0.0474326 -0.0672506 -7.12746e-18)
(-0.0489945 -0.0694727 -5.26879e-18)
(-0.0506367 -0.071809 -3.51821e-18)
(-0.0523648 -0.0742676 -1.59828e-18)
(-0.0541849 -0.0768571 4.96241e-19)
(-0.0561036 -0.0795869 2.25617e-18)
(-0.0581281 -0.0824674 3.45512e-18)
(-0.0602663 -0.0855095 4.71929e-18)
(-0.0625265 -0.0887253 5.70162e-18)
(-0.0649178 -0.0921278 6.91027e-18)
(-0.0674503 -0.0957312 8.23585e-18)
(-0.0701346 -0.0995506 9.01059e-18)
(-0.0729824 -0.103603 9.57128e-18)
(-0.0760063 -0.107905 9.99271e-18)
(-0.0792196 -0.112478 1.06095e-17)
(-0.0826371 -0.117341 1.11976e-17)
(-0.0862743 -0.122516 1.1607e-17)
(-0.0901479 -0.128028 1.12642e-17)
(-0.0942756 -0.133902 1.01077e-17)
(-0.0986761 -0.140164 8.29682e-18)
(-0.103369 -0.146842 5.85499e-18)
(-0.108374 -0.153965 3.42855e-18)
(-0.113713 -0.161563 1.17467e-18)
(-0.119406 -0.169665 -8.34824e-19)
(-0.125473 -0.178299 -2.65747e-18)
(-0.131934 -0.187494 -4.48811e-18)
(-0.138806 -0.197275 -6.11928e-18)
(-0.146106 -0.207664 -7.45806e-18)
(-0.153858 -0.218697 -8.62023e-18)
(-0.162143 -0.230489 -8.86897e-18)
(-0.171179 -0.243349 -7.85364e-18)
(-0.181108 -0.257478 -6.08548e-18)
(-0.191766 -0.272647 -4.49832e-18)
(-0.20294 -0.288551 -3.29547e-18)
(-0.214483 -0.304981 -1.4805e-18)
(-0.226189 -0.321644 7.18755e-20)
(-0.237787 -0.338154 2.31096e-18)
(-0.248949 -0.354046 7.32204e-18)
(-0.259326 -0.36882 1.4212e-17)
(-0.268589 -0.38201 2.20448e-17)
(-0.276489 -0.393263 2.90048e-17)
(-0.282904 -0.402402 3.56201e-17)
(-0.287852 -0.409456 4.17278e-17)
(-0.291483 -0.414634 4.73237e-17)
(-0.29403 -0.418269 5.10992e-17)
(-0.295756 -0.420737 5.16305e-17)
(-0.296913 -0.422395 4.93995e-17)
(-0.297708 -0.423538 4.20079e-17)
(-0.298293 -0.424381 2.75337e-17)
(-0.29877 -0.425069 4.28675e-18)
(-0.299195 -0.425686 -3.10543e-17)
(-0.2996 -0.426271 -2.69e-16)
(-0.299995 -0.426844 -3.37147e-16)
(-0.0159027 -0.0239547 -1.4746e-18)
(-0.0162276 -0.0244493 -3.41497e-18)
(-0.016561 -0.0249568 -4.98823e-18)
(-0.0169031 -0.0254776 -6.27779e-18)
(-0.0172543 -0.0260123 -7.49258e-18)
(-0.017615 -0.0265614 -8.09084e-18)
(-0.0179856 -0.0271256 -8.63053e-18)
(-0.0183666 -0.0277054 -9.10386e-18)
(-0.0187582 -0.0283016 -9.2679e-18)
(-0.019161 -0.0289148 -9.17037e-18)
(-0.0195756 -0.0295457 -8.92737e-18)
(-0.0200024 -0.0301954 -8.81095e-18)
(-0.0204441 -0.0308676 -9.07682e-18)
(-0.020904 -0.0315673 -9.35141e-18)
(-0.0213823 -0.0322947 -9.01497e-18)
(-0.0218774 -0.0330476 -8.23236e-18)
(-0.0223886 -0.033825 -7.62019e-18)
(-0.0229159 -0.034627 -7.22008e-18)
(-0.0234599 -0.0354543 -6.641e-18)
(-0.0240211 -0.0363079 -5.70372e-18)
(-0.0246005 -0.0371893 -4.49774e-18)
(-0.0251991 -0.0380999 -3.05011e-18)
(-0.025818 -0.0390414 -1.5342e-18)
(-0.0264583 -0.0400157 -3.98659e-19)
(-0.0271213 -0.0410245 6.40767e-19)
(-0.0278084 -0.0420699 1.20689e-18)
(-0.0285208 -0.043154 1.54128e-18)
(-0.0292602 -0.044279 1.57148e-18)
(-0.030028 -0.0454474 1.34093e-18)
(-0.0308259 -0.0466616 5.96921e-19)
(-0.0316557 -0.0479243 -9.10035e-19)
(-0.0325192 -0.0492385 -2.81115e-18)
(-0.0334185 -0.0506072 -4.47485e-18)
(-0.0343558 -0.0520337 -6.312e-18)
(-0.0353334 -0.0535214 -8.58987e-18)
(-0.0363537 -0.0550743 -1.10261e-17)
(-0.0374194 -0.0566963 -1.28214e-17)
(-0.0385335 -0.0583919 -1.41406e-17)
(-0.0396989 -0.0601658 -1.52263e-17)
(-0.0409191 -0.062023 -1.65037e-17)
(-0.0421977 -0.0639691 -1.74764e-17)
(-0.0435385 -0.06601 -1.80807e-17)
(-0.0449458 -0.0681521 -1.78181e-17)
(-0.0464242 -0.0704024 -1.67249e-17)
(-0.0479785 -0.0727683 -1.53362e-17)
(-0.0496142 -0.0752581 -1.37513e-17)
(-0.0513369 -0.0778805 -1.22376e-17)
(-0.0531531 -0.0806451 -1.14944e-17)
(-0.0550695 -0.0835623 -1.11489e-17)
(-0.0570935 -0.0866433 -1.08374e-17)
(-0.0592331 -0.0899004 -1.05715e-17)
(-0.061497 -0.0933468 -1.12497e-17)
(-0.0638947 -0.0969968 -1.25776e-17)
(-0.0664363 -0.100866 -1.35338e-17)
(-0.069133 -0.104971 -1.40361e-17)
(-0.0719967 -0.109331 -1.45178e-17)
(-0.0750403 -0.113964 -1.50323e-17)
(-0.0782776 -0.118893 -1.56083e-17)
(-0.0817237 -0.12414 -1.58164e-17)
(-0.0853945 -0.129728 -1.60792e-17)
(-0.0893069 -0.135685 -1.63604e-17)
(-0.0934789 -0.142036 -1.66666e-17)
(-0.0979293 -0.148812 -1.71516e-17)
(-0.102678 -0.156042 -1.84575e-17)
(-0.107744 -0.163756 -2.05169e-17)
(-0.113148 -0.171985 -2.20805e-17)
(-0.118911 -0.180759 -2.35495e-17)
(-0.12505 -0.190107 -2.45676e-17)
(-0.131583 -0.200055 -2.35738e-17)
(-0.138526 -0.210627 -2.17494e-17)
(-0.1459 -0.221856 -1.91496e-17)
(-0.153763 -0.233829 -1.53689e-17)
(-0.162325 -0.246866 -1.08127e-17)
(-0.171761 -0.261233 -5.57235e-18)
(-0.181923 -0.276708 3.31164e-19)
(-0.192596 -0.292961 6.8878e-18)
(-0.203642 -0.309783 1.44265e-17)
(-0.214869 -0.326881 2.25207e-17)
(-0.226019 -0.343865 3.17966e-17)
(-0.23678 -0.360257 4.23534e-17)
(-0.246813 -0.37554 5.24858e-17)
(-0.255794 -0.389225 6.09175e-17)
(-0.263476 -0.400933 6.88028e-17)
(-0.269728 -0.410465 7.64205e-17)
(-0.274561 -0.417837 8.25806e-17)
(-0.278111 -0.423256 8.57095e-17)
(-0.280601 -0.427061 8.54146e-17)
(-0.282287 -0.429642 8.2077e-17)
(-0.283415 -0.431373 7.54856e-17)
(-0.284186 -0.432561 6.64468e-17)
(-0.284752 -0.433435 5.54217e-17)
(-0.28521 -0.434145 4.1512e-17)
(-0.285618 -0.43478 2.28925e-17)
(-0.286006 -0.435383 -1.18753e-16)
(-0.286384 -0.435972 -1.61001e-16)
(-0.0150452 -0.0242644 -4.50387e-18)
(-0.0153523 -0.0247656 -6.24478e-18)
(-0.0156673 -0.0252798 -7.34935e-18)
(-0.0159906 -0.0258074 -8.67235e-18)
(-0.0163225 -0.0263491 -1.02088e-17)
(-0.0166634 -0.0269054 -1.21228e-17)
(-0.0170136 -0.0274768 -1.4637e-17)
(-0.0173735 -0.0280642 -1.72824e-17)
(-0.0177435 -0.028668 -1.99186e-17)
(-0.0181242 -0.0292891 -2.21515e-17)
(-0.0185158 -0.0299282 -2.40631e-17)
(-0.0189189 -0.0305861 -2.54563e-17)
(-0.0193352 -0.0312654 -2.68197e-17)
(-0.0197676 -0.0319708 -2.8053e-17)
(-0.0202178 -0.0327047 -2.89639e-17)
(-0.0206848 -0.033466 -2.97944e-17)
(-0.0211676 -0.0342531 -3.03961e-17)
(-0.0216659 -0.0350654 -3.0932e-17)
(-0.0221799 -0.0359036 -3.11133e-17)
(-0.0227103 -0.0367684 -3.0281e-17)
(-0.0232578 -0.0376612 -2.94217e-17)
(-0.0238234 -0.0385835 -2.88099e-17)
(-0.0244081 -0.039537 -2.84059e-17)
(-0.0250129 -0.0405235 -2.84779e-17)
(-0.0256391 -0.0415449 -2.88211e-17)
(-0.026288 -0.0426033 -2.87071e-17)
(-0.0269608 -0.0437007 -2.8085e-17)
(-0.0276589 -0.0448395 -2.7735e-17)
(-0.0283838 -0.046022 -2.77705e-17)
(-0.0291372 -0.0472509 -2.79455e-17)
(-0.0299205 -0.0485289 -2.74459e-17)
(-0.0307357 -0.0498588 -2.63643e-17)
(-0.0315847 -0.0512437 -2.52407e-17)
(-0.0324694 -0.0526871 -2.43842e-17)
(-0.0333922 -0.0541925 -2.31537e-17)
(-0.0343552 -0.0557636 -2.27078e-17)
(-0.0353611 -0.0574047 -2.29895e-17)
(-0.0364126 -0.0591202 -2.35844e-17)
(-0.0375125 -0.0609148 -2.38769e-17)