/*--------------------------------*- C++ -*----------------------------------*\
  =========                 |
  \\      /  F ield         | OpenFOAM: The Open Source CFD Toolbox
   \\    /   O peration     | Website:  https://openfoam.org
    \\  /    A nd           | Version:  7
     \\/     M anipulation  |
\*---------------------------------------------------------------------------*/
FoamFile
{
    version     2.0;
    format      ascii;
    class       volScalarField;
    location    "52000";
    object      k;
}
// * * * * * * * * * * * * * * * * * * * * * * * * * * * * * * * * * * * * * //

dimensions      [0 2 -2 0 0 0 0];

internalField   nonuniform List<scalar> 
4782
(
3.06872e-07
3.01626e-07
2.95984e-07
2.89939e-07
2.8349e-07
2.76641e-07
2.69393e-07
2.61746e-07
2.53707e-07
2.45282e-07
2.23819e-07
2.30821e-07
2.37663e-07
2.44343e-07
2.50867e-07
2.57217e-07
2.63397e-07
2.69384e-07
2.75173e-07
2.80749e-07
2.86095e-07
2.91206e-07
2.96091e-07
3.00737e-07
3.05153e-07
3.09337e-07
3.13285e-07
3.16987e-07
3.20448e-07
3.23664e-07
3.26625e-07
3.29333e-07
3.31786e-07
3.3398e-07
3.35912e-07
3.37577e-07
3.38972e-07
3.40083e-07
3.40914e-07
3.41452e-07
3.41692e-07
3.41627e-07
3.41253e-07
3.40569e-07
3.3957e-07
3.38248e-07
3.36592e-07
3.346e-07
3.32266e-07
3.29578e-07
3.26528e-07
3.23112e-07
3.19327e-07
3.15164e-07
3.10616e-07
3.05683e-07
3.00357e-07
2.94635e-07
2.88512e-07
2.81994e-07
2.75075e-07
2.67762e-07
2.60058e-07
2.51965e-07
2.43492e-07
2.26684e-07
2.3361e-07
2.40375e-07
2.46986e-07
2.53438e-07
2.59715e-07
2.65817e-07
2.71733e-07
2.77436e-07
2.82914e-07
2.88163e-07
2.93178e-07
2.97968e-07
3.02522e-07
3.06848e-07
3.10932e-07
3.14784e-07
3.1839e-07
3.21757e-07
3.24881e-07
3.2775e-07
3.30368e-07
3.32732e-07
3.34838e-07
3.36676e-07
3.38241e-07
3.39536e-07
3.40549e-07
3.41275e-07
3.41708e-07
3.4185e-07
3.41693e-07
3.41227e-07
3.40451e-07
3.39355e-07
3.37931e-07
3.36172e-07
3.34074e-07
3.31634e-07
3.2884e-07
3.25686e-07
3.22166e-07
3.18278e-07
3.14017e-07
3.09377e-07
3.04355e-07
2.98945e-07
2.93144e-07
2.86952e-07
2.80362e-07
2.73375e-07
2.65997e-07
2.58229e-07
2.50081e-07
2.41561e-07
2.2953e-07
2.36373e-07
2.43062e-07
2.49593e-07
2.55961e-07
2.62159e-07
2.68176e-07
2.73999e-07
2.79604e-07
2.84979e-07
2.90132e-07
2.95061e-07
2.99764e-07
3.04229e-07
3.08455e-07
3.12439e-07
3.1619e-07
3.19703e-07
3.22977e-07
3.25999e-07
3.28766e-07
3.31284e-07
3.33546e-07
3.3555e-07
3.3729e-07
3.38755e-07
3.39948e-07
3.40864e-07
3.41498e-07
3.41839e-07
3.41882e-07
3.41627e-07
3.41063e-07
3.4019e-07
3.38994e-07
3.37477e-07
3.35626e-07
3.3344e-07
3.30907e-07
3.28027e-07
3.24794e-07
3.21195e-07
3.17225e-07
3.12885e-07
3.08163e-07
3.03057e-07
2.97566e-07
2.91684e-07
2.85409e-07
2.78741e-07
2.7168e-07
2.64229e-07
2.56397e-07
2.48191e-07
2.3962e-07
2.32482e-07
2.39254e-07
2.45874e-07
2.52326e-07
2.58605e-07
2.64703e-07
2.70617e-07
2.76334e-07
2.81828e-07
2.87104e-07
2.92157e-07
2.96987e-07
3.01581e-07
3.05939e-07
3.10058e-07
3.13945e-07
3.17598e-07
3.21006e-07
3.24174e-07
3.27099e-07
3.2977e-07
3.32192e-07
3.34353e-07
3.36249e-07
3.37883e-07
3.39244e-07
3.40335e-07
3.41142e-07
3.41669e-07
3.4191e-07
3.41858e-07
3.4151e-07
3.40852e-07
3.39879e-07
3.38591e-07
3.36975e-07
3.35027e-07
3.32739e-07
3.30105e-07
3.27125e-07
3.23793e-07
3.20097e-07
3.16031e-07
3.11591e-07
3.06777e-07
3.01584e-07
2.96005e-07
2.90043e-07
2.8369e-07
2.76947e-07
2.6982e-07
2.62308e-07
2.5442e-07
2.4616e-07
2.37542e-07
2.32461e-07
2.39238e-07
2.45852e-07
2.52298e-07
2.58582e-07
2.64694e-07
2.70613e-07
2.76335e-07
2.81837e-07
2.87111e-07
2.92155e-07
2.96977e-07
3.01565e-07
3.05928e-07
3.10054e-07
3.1394e-07
3.17586e-07
3.20995e-07
3.24158e-07
3.27079e-07
3.29746e-07
3.32164e-07
3.34322e-07
3.36222e-07
3.37854e-07
3.3922e-07
3.40308e-07
3.41121e-07
3.41646e-07
3.4188e-07
3.41815e-07
3.41454e-07
3.40784e-07
3.39804e-07
3.38503e-07
3.3688e-07
3.34929e-07
3.32644e-07
3.30018e-07
3.27039e-07
3.23708e-07
3.20017e-07
3.15957e-07
3.11522e-07
3.06712e-07
3.01519e-07
2.95944e-07
2.89979e-07
2.83629e-07
2.76893e-07
2.69768e-07
2.62259e-07
2.54373e-07
2.46118e-07
2.37502e-07
2.2944e-07
2.36295e-07
2.42996e-07
2.49527e-07
2.55896e-07
2.62095e-07
2.68103e-07
2.73907e-07
2.79503e-07
2.8487e-07
2.90016e-07
2.94926e-07
2.9961e-07
3.04066e-07
3.08291e-07
3.12285e-07
3.16043e-07
3.19555e-07
3.22827e-07
3.25847e-07
3.2862e-07
3.31144e-07
3.33405e-07
3.35408e-07
3.37149e-07
3.38617e-07
3.39805e-07
3.40718e-07
3.41342e-07
3.41681e-07
3.4172e-07
3.41454e-07
3.40885e-07
3.40006e-07
3.3881e-07
3.37292e-07
3.35446e-07
3.33258e-07
3.30728e-07
3.2785e-07
3.24618e-07
3.21026e-07
3.17067e-07
3.12732e-07
3.08015e-07
3.02913e-07
2.97421e-07
2.91542e-07
2.8527e-07
2.78608e-07
2.71554e-07
2.64114e-07
2.56292e-07
2.48097e-07
2.39532e-07
2.30611e-07
2.21352e-07
2.11771e-07
2.01888e-07
2.26574e-07
2.33497e-07
2.40269e-07
2.46876e-07
2.53312e-07
2.59582e-07
2.65676e-07
2.7157e-07
2.77262e-07
2.82727e-07
2.8797e-07
2.92979e-07
2.9776e-07
3.02313e-07
3.06635e-07
3.10723e-07
3.14567e-07
3.18173e-07
3.21537e-07
3.24657e-07
3.2753e-07
3.30153e-07
3.32514e-07
3.34617e-07
3.36458e-07
3.38023e-07
3.39316e-07
3.40332e-07
3.41067e-07
3.41514e-07
3.41662e-07
3.41505e-07
3.41045e-07
3.40269e-07
3.39176e-07
3.37762e-07
3.36019e-07
3.33935e-07
3.31503e-07
3.28723e-07
3.25583e-07
3.22077e-07
3.18204e-07
3.13959e-07
3.0933e-07
3.04314e-07
2.98911e-07
2.93113e-07
2.86919e-07
2.80332e-07
2.73349e-07
2.65975e-07
2.58211e-07
2.50067e-07
2.41549e-07
2.32668e-07
2.23438e-07
2.13881e-07
2.04017e-07
1.93869e-07
2.23681e-07
2.30692e-07
2.37553e-07
2.44248e-07
2.50775e-07
2.57129e-07
2.633e-07
2.69278e-07
2.75059e-07
2.80628e-07
2.85976e-07
2.911e-07
2.95998e-07
3.00659e-07
3.05082e-07
3.09264e-07
3.13203e-07
3.16906e-07
3.2037e-07
3.23583e-07
3.26551e-07
3.2927e-07
3.31727e-07
3.3392e-07
3.35851e-07
3.37509e-07
3.38897e-07
3.4001e-07
3.40835e-07
3.41367e-07
3.41608e-07
3.41553e-07
3.41195e-07
3.40521e-07
3.39526e-07
3.38204e-07
3.36547e-07
3.34549e-07
3.32204e-07
3.2951e-07
3.26462e-07
3.23052e-07
3.19269e-07
3.15112e-07
3.10571e-07
3.05645e-07
3.00326e-07
2.94611e-07
2.88496e-07
2.81981e-07
2.75065e-07
2.67752e-07
2.60043e-07
2.5195e-07
2.43476e-07
2.34633e-07
2.25437e-07
2.15903e-07
2.06055e-07
1.95913e-07
1.85507e-07
1.74855e-07
1.63994e-07
1.52977e-07
1.41873e-07
1.30759e-07
1.19715e-07
1.08828e-07
9.81876e-08
8.78833e-08
7.80003e-08
6.86171e-08
5.98021e-08
5.16107e-08
4.40842e-08
3.72478e-08
3.11109e-08
2.56674e-08
2.08979e-08
1.67716e-08
1.32484e-08
1.0282e-08
7.82176e-09
5.81472e-09
4.2077e-09
2.94837e-09
1.98639e-09
1.2741e-09
7.6703e-10
4.24163e-10
2.08133e-10
8.5327e-11
2.59945e-11
4.51644e-12
2.19693e-13
2.20843e-07
2.27923e-07
2.34852e-07
2.41614e-07
2.48218e-07
2.54658e-07
2.60916e-07
2.66983e-07
2.72856e-07
2.78519e-07
2.83962e-07
2.89179e-07
2.94158e-07
2.98907e-07
3.03424e-07
3.07698e-07
3.11735e-07
3.15534e-07
3.19091e-07
3.22404e-07
3.25469e-07
3.28284e-07
3.30835e-07
3.3312e-07
3.35141e-07
3.36888e-07
3.38362e-07
3.3956e-07
3.40474e-07
3.41102e-07
3.41436e-07
3.41466e-07
3.41191e-07
3.40606e-07
3.39703e-07
3.38472e-07
3.3691e-07
3.35013e-07
3.32772e-07
3.30181e-07
3.27227e-07
3.23909e-07
3.20216e-07
3.16143e-07
3.11687e-07
3.06841e-07
3.01603e-07
2.95965e-07
2.8993e-07
2.83491e-07
2.76648e-07
2.69402e-07
2.61757e-07
2.53718e-07
2.45297e-07
2.365e-07
2.27341e-07
2.1784e-07
2.08013e-07
1.97888e-07
1.87487e-07
1.76833e-07
1.65955e-07
1.5491e-07
1.43765e-07
1.32595e-07
1.2148e-07
1.10509e-07
9.97736e-08
8.93631e-08
7.93651e-08
6.986e-08
6.09195e-08
5.26024e-08
4.49519e-08
3.79963e-08
3.17469e-08
2.61996e-08
2.13362e-08
1.71263e-08
1.35304e-08
1.05017e-08
7.98918e-09
5.93918e-09
4.29757e-09
3.01109e-09
2.02838e-09
1.3008e-09
7.82897e-10
4.32778e-10
2.12246e-10
8.69385e-11
2.64457e-11
4.58087e-12
2.21376e-13
2.18139e-07
2.25297e-07
2.32295e-07
2.39129e-07
2.45809e-07
2.52316e-07
2.58658e-07
2.64813e-07
2.70769e-07
2.76522e-07
2.82059e-07
2.87361e-07
2.92437e-07
2.97285e-07
3.01893e-07
3.06258e-07
3.10391e-07
3.14287e-07
3.17936e-07
3.21334e-07
3.24487e-07
3.27382e-07
3.30016e-07
3.32392e-07
3.34499e-07
3.3634e-07
3.37909e-07
3.39196e-07
3.402e-07
3.40912e-07
3.41331e-07
3.41452e-07
3.41263e-07
3.40764e-07
3.39942e-07
3.38791e-07
3.37311e-07
3.35493e-07
3.33333e-07
3.30822e-07
3.27954e-07
3.24716e-07
3.21108e-07
3.17117e-07
3.12744e-07
3.07982e-07
3.02823e-07
2.97261e-07
2.91294e-07
2.84921e-07
2.78139e-07
2.70955e-07
2.63367e-07
2.55385e-07
2.47011e-07
2.38259e-07
2.29142e-07
2.19673e-07
2.09873e-07
1.99765e-07
1.89373e-07
1.78721e-07
1.67835e-07
1.56769e-07
1.45588e-07
1.34366e-07
1.23188e-07
1.12141e-07
1.01315e-07
9.08038e-08
8.06959e-08
7.10744e-08
6.20131e-08
5.3574e-08
4.58035e-08
3.87317e-08
3.23725e-08
2.67235e-08
2.17678e-08
1.74759e-08
1.38083e-08
1.07183e-08
8.15427e-09
6.0619e-09
4.3862e-09
3.07294e-09
2.06979e-09
1.32711e-09
7.98537e-10
4.41267e-10
2.16296e-10
8.85244e-11
2.68892e-11
4.64402e-12
2.23016e-13
2.15464e-07
2.22692e-07
2.29763e-07
2.36672e-07
2.43416e-07
2.50003e-07
2.56414e-07
2.62653e-07
2.68699e-07
2.74536e-07
2.8015e-07
2.85541e-07
2.90706e-07
2.95642e-07
3.00347e-07
3.04809e-07
3.09027e-07
3.12998e-07
3.16728e-07
3.20213e-07
3.23451e-07
3.26439e-07
3.29164e-07
3.31632e-07
3.33838e-07
3.3577e-07
3.37433e-07
3.38813e-07
3.39907e-07
3.40707e-07
3.41217e-07
3.41423e-07
3.41326e-07
3.40913e-07
3.40184e-07
3.39126e-07
3.37732e-07
3.36002e-07
3.33923e-07
3.31493e-07
3.28701e-07
3.25544e-07
3.2201e-07
3.18094e-07
3.13794e-07
3.091e-07
3.04005e-07
2.98507e-07
2.92605e-07
2.86293e-07
2.79574e-07
2.72448e-07
2.64918e-07
2.56987e-07
2.48659e-07
2.39948e-07
2.30865e-07
2.21427e-07
2.11651e-07
2.01561e-07
1.9118e-07
1.80534e-07
1.69644e-07
1.58559e-07
1.47345e-07
1.36076e-07
1.24837e-07
1.13715e-07
1.02804e-07
9.21957e-08
8.19814e-08
7.22475e-08
6.30704e-08
5.45141e-08
4.66275e-08
3.94438e-08
3.29788e-08
2.72316e-08
2.21867e-08
1.78153e-08
1.40783e-08
1.09288e-08
8.31475e-09
6.18121e-09
4.47237e-09
3.13308e-09
2.11005e-09
1.3527e-09
8.13736e-10
4.49513e-10
2.20227e-10
9.00621e-11
2.73183e-11
4.70479e-12
2.24568e-13
2.12807e-07
2.20081e-07
2.27209e-07
2.34183e-07
2.41002e-07
2.4766e-07
2.54143e-07
2.60454e-07
2.66583e-07
2.72517e-07
2.78239e-07
2.8373e-07
2.88982e-07
2.94004e-07
2.98793e-07
3.03347e-07
3.07655e-07
3.11725e-07
3.15554e-07
3.1913e-07
3.22451e-07
3.25523e-07
3.28333e-07
3.30877e-07
3.33152e-07
3.35162e-07
3.369e-07
3.38355e-07
3.39528e-07
3.40414e-07
3.41009e-07
3.41306e-07
3.41292e-07
3.40968e-07
3.40321e-07
3.39352e-07
3.38047e-07
3.36401e-07
3.34404e-07
3.32052e-07
3.29343e-07
3.26263e-07
3.22806e-07
3.18966e-07
3.14735e-07
3.10114e-07
3.05091e-07
2.99662e-07
2.93828e-07
2.87582e-07
2.80926e-07
2.7386e-07
2.66387e-07
2.58506e-07
2.50228e-07
2.4156e-07
2.32516e-07
2.23109e-07
2.13355e-07
2.0328e-07
1.9291e-07
1.82269e-07
1.71374e-07
1.60273e-07
1.4903e-07
1.37721e-07
1.26427e-07
1.15238e-07
1.04246e-07
9.35466e-08
8.32323e-08
7.33908e-08
6.41019e-08
5.54323e-08
4.74333e-08
4.01408e-08
3.35724e-08
2.77294e-08
2.25973e-08
1.81481e-08
1.43431e-08
1.11353e-08
8.4722e-09
6.29828e-09
4.55693e-09
3.19209e-09
2.14954e-09
1.37779e-09
8.28643e-10
4.57599e-10
2.24081e-10
9.15687e-11
2.77383e-11
4.7642e-12
2.26084e-13
2.10294e-07
2.17637e-07
2.24824e-07
2.3185e-07
2.38723e-07
2.45437e-07
2.51988e-07
2.5837e-07
2.64573e-07
2.70585e-07
2.7638e-07
2.81956e-07
2.87304e-07
2.92422e-07
2.97299e-07
3.01933e-07
3.06323e-07
3.10466e-07
3.14369e-07
3.18021e-07
3.21426e-07
3.24573e-07
3.27459e-07
3.30079e-07
3.32439e-07
3.34533e-07
3.36358e-07
3.37899e-07
3.39153e-07
3.40122e-07
3.40793e-07
3.41159e-07
3.41215e-07
3.40962e-07
3.40385e-07
3.39485e-07
3.38255e-07
3.36688e-07
3.34771e-07
3.32496e-07
3.29857e-07
3.26852e-07
3.23475e-07
3.19712e-07
3.15557e-07
3.11005e-07
3.06049e-07
3.00691e-07
2.94925e-07
2.88748e-07
2.82158e-07
2.75151e-07
2.67733e-07
2.59905e-07
2.51676e-07
2.43051e-07
2.34044e-07
2.24668e-07
2.14942e-07
2.04884e-07
1.94523e-07
1.83886e-07
1.7299e-07
1.6188e-07
1.50616e-07
1.39271e-07
1.27928e-07
1.16676e-07
1.0561e-07
9.48255e-08
8.44181e-08
7.44775e-08
6.50842e-08
5.63081e-08
4.82032e-08
4.08076e-08
3.41412e-08
2.82068e-08
2.29914e-08
1.84678e-08
1.45975e-08
1.13338e-08
8.62357e-09
6.41086e-09
4.63824e-09
3.24884e-09
2.18753e-09
1.40192e-09
8.42973e-10
4.65369e-10
2.27782e-10
9.30136e-11
2.81403e-11
4.82076e-12
2.27501e-13
2.07826e-07
2.15229e-07
2.22486e-07
2.29593e-07
2.36534e-07
2.43318e-07
2.49939e-07
2.56393e-07
2.6266e-07
2.6873e-07
2.74598e-07
2.80249e-07
2.85665e-07
2.9084e-07
2.95772e-07
3.00471e-07
3.04934e-07
3.09158e-07
3.13142e-07
3.16872e-07
3.20346e-07
3.2357e-07
3.26532e-07
3.29236e-07
3.31679e-07
3.33849e-07
3.35747e-07
3.37363e-07
3.38691e-07
3.39732e-07
3.40482e-07
3.40935e-07
3.41077e-07
3.40911e-07
3.40421e-07
3.39604e-07
3.38457e-07
3.36968e-07
3.35129e-07
3.32933e-07
3.30372e-07
3.27445e-07
3.2414e-07
3.20449e-07
3.16372e-07
3.11902e-07
3.07028e-07
3.01745e-07
2.96048e-07
2.89935e-07
2.83408e-07
2.76461e-07
2.69101e-07
2.61329e-07
2.53147e-07
2.44563e-07
2.35589e-07
2.26237e-07
2.16527e-07
2.06481e-07
1.96126e-07
1.85486e-07
1.74584e-07
1.63459e-07
1.52169e-07
1.40787e-07
1.29395e-07
1.18083e-07
1.06946e-07
9.60795e-08
8.55806e-08
7.55411e-08
6.60453e-08
5.71647e-08
4.89564e-08
4.14598e-08
3.46973e-08
2.86735e-08
2.33767e-08
1.87803e-08
1.48464e-08
1.15278e-08
8.77162e-09
6.52096e-09
4.71776e-09
3.30433e-09
2.22467e-09
1.42552e-09
8.56982e-10
4.72963e-10
2.31399e-10
9.44256e-11
2.8533e-11
4.87604e-12
2.28898e-13
2.05517e-07
2.12981e-07
2.2029e-07
2.27452e-07
2.3446e-07
2.41302e-07
2.47984e-07
2.5449e-07
2.60813e-07
2.66943e-07
2.72865e-07
2.78574e-07
2.84059e-07
2.89303e-07
2.94306e-07
2.99075e-07
3.03607e-07
3.07901e-07
3.11944e-07
3.15742e-07
3.19284e-07
3.22575e-07
3.25611e-07
3.28388e-07
3.30902e-07
3.33149e-07
3.35125e-07
3.36816e-07
3.38228e-07
3.39345e-07
3.40172e-07
3.40695e-07
3.40909e-07
3.40805e-07
3.40384e-07
3.39639e-07
3.38563e-07
3.37143e-07
3.35377e-07
3.33254e-07
3.3077e-07
3.2792e-07
3.24689e-07
3.21072e-07
3.17066e-07
3.12666e-07
3.0786e-07
3.02642e-07
2.97008e-07
2.9096e-07
2.84489e-07
2.776e-07
2.7029e-07
2.6256e-07
2.54415e-07
2.45867e-07
2.36927e-07
2.27607e-07
2.17926e-07
2.07903e-07
1.9756e-07
1.86926e-07
1.76026e-07
1.64893e-07
1.53584e-07
1.42171e-07
1.30738e-07
1.19374e-07
1.08174e-07
9.72344e-08
8.66539e-08
7.65269e-08
6.69388e-08
5.7963e-08
4.96588e-08
4.2069e-08
3.52177e-08
2.9111e-08
2.37381e-08
1.90738e-08
1.50801e-08
1.17103e-08
8.91083e-09
6.62451e-09
4.79257e-09
3.35653e-09
2.2596e-09
1.4477e-09
8.70152e-10
4.80099e-10
2.34794e-10
9.57489e-11
2.89e-11
4.92728e-12
2.30151e-13
2.03272e-07
2.10791e-07
2.18158e-07
2.25366e-07
2.32412e-07
2.39302e-07
2.46032e-07
2.52598e-07
2.58981e-07
2.65173e-07
2.7116e-07
2.76935e-07
2.82485e-07
2.87804e-07
2.9289e-07
2.97742e-07
3.02347e-07
3.06705e-07
3.10812e-07
3.14678e-07
3.18296e-07
3.21665e-07
3.24772e-07
3.27621e-07
3.302e-07
3.32512e-07
3.34546e-07
3.36303e-07
3.37778e-07
3.38958e-07
3.39844e-07
3.40431e-07
3.40714e-07
3.40685e-07
3.4034e-07
3.39672e-07
3.38666e-07
3.37322e-07
3.35628e-07
3.33574e-07
3.31155e-07
3.28369e-07
3.25208e-07
3.2166e-07
3.17717e-07
3.13372e-07
3.08626e-07
3.03472e-07
2.97905e-07
2.91917e-07
2.85505e-07
2.78668e-07
2.71407e-07
2.63727e-07
2.5563e-07
2.47127e-07
2.38223e-07
2.28932e-07
2.19271e-07
2.09259e-07
1.98926e-07
1.88297e-07
1.77396e-07
1.66253e-07
1.54927e-07
1.43486e-07
1.32012e-07
1.20597e-07
1.09337e-07
9.83289e-08
8.76729e-08
7.74638e-08
6.77884e-08
5.87228e-08
5.03287e-08
4.26505e-08
3.57145e-08
2.95286e-08
2.40833e-08
1.93541e-08
1.53035e-08
1.18846e-08
9.04385e-09
6.72346e-09
4.86405e-09
3.40641e-09
2.29298e-09
1.4689e-09
8.8273e-10
4.86912e-10
2.38034e-10
9.70112e-11
2.92496e-11
4.976e-12
2.31337e-13
2.01123e-07
2.08674e-07
2.16085e-07
2.2335e-07
2.3045e-07
2.37395e-07
2.4418e-07
2.50788e-07
2.57226e-07
2.63483e-07
2.69549e-07
2.75407e-07
2.81033e-07
2.86419e-07
2.91562e-07
2.96471e-07
3.01134e-07
3.05547e-07
3.09719e-07
3.13646e-07
3.17326e-07
3.20754e-07
3.23927e-07
3.26842e-07
3.29495e-07
3.31873e-07
3.33981e-07
3.35813e-07
3.37356e-07
3.38606e-07
3.39565e-07
3.40227e-07
3.40587e-07
3.4063e-07
3.4035e-07
3.39742e-07
3.38797e-07
3.37509e-07
3.35877e-07
3.33888e-07
3.31533e-07
3.28805e-07
3.25697e-07
3.22201e-07
3.1831e-07
3.14024e-07
3.09329e-07
3.04219e-07
2.98691e-07
2.92744e-07
2.86375e-07
2.79583e-07
2.72368e-07
2.64731e-07
2.56676e-07
2.48207e-07
2.39336e-07
2.30076e-07
2.20445e-07
2.10457e-07
2.00141e-07
1.89525e-07
1.78633e-07
1.67491e-07
1.56153e-07
1.4469e-07
1.33186e-07
1.21729e-07
1.10417e-07
9.93467e-08
8.86207e-08
7.83343e-08
6.85779e-08
5.94294e-08
5.09519e-08
4.31922e-08
3.6178e-08
2.99187e-08
2.44061e-08
1.96163e-08
1.55125e-08
1.20478e-08
9.16844e-09
6.81615e-09
4.93101e-09
3.45313e-09
2.32424e-09
1.48875e-09
8.94508e-10
4.93289e-10
2.41065e-10
9.81904e-11
2.95755e-11
5.02116e-12
2.32413e-13
1.99196e-07
2.06783e-07
2.14232e-07
2.21535e-07
2.28686e-07
2.35682e-07
2.42519e-07
2.49181e-07
2.55664e-07
2.61972e-07
2.6808e-07
2.73974e-07
2.79639e-07
2.85074e-07
2.90277e-07
2.95244e-07
2.99973e-07
3.04462e-07
3.08709e-07
3.12702e-07
3.16448e-07
3.19933e-07
3.23163e-07
3.26134e-07
3.28841e-07
3.31282e-07
3.33452e-07
3.35338e-07
3.36936e-07
3.38246e-07
3.39265e-07
3.39979e-07
3.40389e-07
3.40482e-07
3.40259e-07
3.39706e-07
3.38815e-07
3.37587e-07
3.36007e-07
3.34068e-07
3.31769e-07
3.29101e-07
3.26052e-07
3.22619e-07
3.18796e-07
3.1457e-07
3.09939e-07
3.04893e-07
2.99432e-07
2.93552e-07
2.87244e-07
2.80507e-07
2.73341e-07
2.65747e-07
2.57729e-07
2.49293e-07
2.40448e-07
2.31211e-07
2.21598e-07
2.11623e-07
2.01316e-07
1.90702e-07
1.7981e-07
1.68661e-07
1.57309e-07
1.45824e-07
1.34289e-07
1.22791e-07
1.11428e-07
1.00301e-07
8.95096e-08
7.9153e-08
6.9321e-08
6.00944e-08
5.15386e-08
4.3702e-08
3.66142e-08
3.02859e-08
2.471e-08
1.98633e-08
1.57095e-08
1.22017e-08
9.28587e-09
6.90353e-09
4.99414e-09
3.49719e-09
2.35372e-09
1.50746e-09
9.05609e-10
4.99299e-10
2.4392e-10
9.93011e-11
2.98823e-11
5.0636e-12
2.33421e-13
1.97409e-07
2.05035e-07
2.12527e-07
2.19864e-07
2.27052e-07
2.34086e-07
2.40952e-07
2.47644e-07
2.54169e-07
2.60518e-07
2.66683e-07
2.72635e-07
2.78372e-07
2.83872e-07
2.89141e-07
2.94165e-07
2.98944e-07
3.03474e-07
3.07764e-07
3.11811e-07
3.15601e-07
3.19141e-07
3.22427e-07
3.25455e-07
3.28222e-07
3.30714e-07
3.32935e-07
3.34872e-07
3.36529e-07
3.37891e-07
3.38961e-07
3.39734e-07
3.40196e-07
3.40342e-07
3.40165e-07
3.39665e-07
3.38828e-07
3.37653e-07
3.36133e-07
3.34254e-07
3.32009e-07
3.2939e-07
3.26394e-07
3.2301e-07
3.19234e-07
3.1506e-07
3.10475e-07
3.05479e-07
3.00067e-07
2.94233e-07
2.8797e-07
2.81278e-07
2.74159e-07
2.66609e-07
2.58637e-07
2.50244e-07
2.41439e-07
2.32235e-07
2.22647e-07
2.12694e-07
2.02401e-07
1.91795e-07
1.80904e-07
1.69751e-07
1.58388e-07
1.46884e-07
1.35322e-07
1.23789e-07
1.12382e-07
1.01201e-07
9.03498e-08
7.99266e-08
7.00249e-08
6.07256e-08
5.20962e-08
4.41869e-08
3.70291e-08
3.06351e-08
2.49989e-08
2.00981e-08
1.58966e-08
1.23478e-08
9.39742e-09
6.98652e-09
5.05409e-09
3.53902e-09
2.3817e-09
1.52523e-09
9.16148e-10
5.05004e-10
2.46631e-10
1.00356e-10
3.01738e-11
5.10405e-12
2.344e-13
1.95703e-07
2.03371e-07
2.10905e-07
2.18284e-07
2.25501e-07
2.32565e-07
2.39469e-07
2.4621e-07
2.52784e-07
2.59172e-07
2.65364e-07
2.71357e-07
2.77135e-07
2.82685e-07
2.88001e-07
2.9308e-07
2.9792e-07
3.02519e-07
3.06866e-07
3.10967e-07
3.1481e-07
3.18402e-07
3.2174e-07
3.24819e-07
3.27636e-07
3.30187e-07
3.32459e-07
3.34446e-07
3.36146e-07
3.37552e-07
3.38667e-07
3.39486e-07
3.39994e-07
3.40185e-07
3.40054e-07
3.39599e-07
3.38807e-07
3.3767e-07
3.36188e-07
3.34352e-07
3.32154e-07
3.29586e-07
3.26642e-07
3.23306e-07
3.19578e-07
3.15444e-07
3.10903e-07
3.05949e-07
3.00577e-07
2.9478e-07
2.88556e-07
2.81903e-07
2.74818e-07
2.67305e-07
2.59365e-07
2.51001e-07
2.42224e-07
2.33047e-07
2.23485e-07
2.13553e-07
2.03278e-07
1.92687e-07
1.8181e-07
1.70664e-07
1.59301e-07
1.47787e-07
1.36206e-07
1.24646e-07
1.13203e-07
1.01979e-07
9.10763e-08
8.05968e-08
7.06344e-08
6.12725e-08
5.25798e-08
4.46082e-08
3.73904e-08
3.09398e-08
2.52514e-08
2.03036e-08
1.60607e-08
1.24761e-08
9.49538e-09
7.05944e-09
5.10679e-09
3.5758e-09
2.40631e-09
1.54085e-09
9.25409e-10
5.10013e-10
2.49008e-10
1.01278e-10
3.04272e-11
5.13867e-12
2.35178e-13
1.94178e-07
2.01876e-07
2.09441e-07
2.16864e-07
2.24127e-07
2.31237e-07
2.38178e-07
2.44958e-07
2.51562e-07
2.57993e-07
2.6423e-07
2.70273e-07
2.76104e-07
2.81711e-07
2.87074e-07
2.92202e-07
2.97083e-07
3.01714e-07
3.06104e-07
3.1025e-07
3.14138e-07
3.17776e-07
3.21151e-07
3.24268e-07
3.27123e-07
3.29703e-07
3.32013e-07
3.34038e-07
3.35782e-07
3.37232e-07
3.38391e-07
3.39243e-07
3.39792e-07
3.4003e-07
3.39951e-07
3.39548e-07
3.38813e-07
3.37739e-07
3.36317e-07
3.34542e-07
3.32399e-07
3.2988e-07
3.26985e-07
3.23699e-07
3.20021e-07
3.15937e-07
3.11447e-07
3.06545e-07
3.01219e-07
2.95463e-07
2.89281e-07
2.82664e-07
2.75616e-07
2.68133e-07
2.60219e-07
2.51879e-07
2.4312e-07
2.33956e-07
2.24403e-07
2.14481e-07
2.04213e-07
1.93622e-07
1.82741e-07
1.71589e-07
1.60214e-07
1.48682e-07
1.37076e-07
1.25484e-07
1.14001e-07
1.02732e-07
9.17803e-08
8.12467e-08
7.12257e-08
6.1803e-08
5.30484e-08
4.50159e-08
3.77394e-08
3.12339e-08
2.54949e-08
2.05017e-08
1.62187e-08
1.25995e-08
9.58961e-09
7.12957e-09
5.15746e-09
3.61115e-09
2.42996e-09
1.55586e-09
9.34315e-10
5.14833e-10
2.51297e-10
1.02168e-10
3.06728e-11
5.17265e-12
2.35995e-13
1.92835e-07
2.00556e-07
2.08146e-07
2.15584e-07
2.22875e-07
2.30013e-07
2.36994e-07
2.43815e-07
2.50457e-07
2.56929e-07
2.6321e-07
2.69297e-07
2.75177e-07
2.80822e-07
2.86226e-07
2.91385e-07
2.96307e-07
3.00991e-07
3.05422e-07
3.096e-07
3.13531e-07
3.17211e-07
3.20628e-07
3.23787e-07
3.26684e-07
3.29306e-07
3.31658e-07
3.33726e-07
3.35504e-07
3.36997e-07
3.38196e-07
3.39098e-07
3.39695e-07
3.39973e-07
3.39935e-07
3.39572e-07
3.38878e-07
3.37846e-07
3.36461e-07
3.34716e-07
3.3261e-07
3.30134e-07
3.27275e-07
3.24031e-07
3.20388e-07
3.16345e-07
3.11895e-07
3.07025e-07
3.01731e-07
2.96006e-07
2.89847e-07
2.83256e-07
2.76233e-07
2.68776e-07
2.6089e-07
2.52579e-07
2.43847e-07
2.34709e-07
2.25177e-07
2.15271e-07
2.05013e-07
1.9443e-07
1.83553e-07
1.72403e-07
1.61021e-07
1.49478e-07
1.37853e-07
1.26237e-07
1.14724e-07
1.03416e-07
9.24193e-08
8.18363e-08
7.17627e-08
6.22846e-08
5.34742e-08
4.53865e-08
3.8057e-08
3.15015e-08
2.57167e-08
2.0682e-08
1.63626e-08
1.27119e-08
9.67547e-09
7.19346e-09
5.20362e-09
3.64337e-09
2.45152e-09
1.56955e-09
9.42431e-10
5.19226e-10
2.53384e-10
1.02979e-10
3.08968e-11
5.20368e-12
2.3675e-13
1.91628e-07
1.99376e-07
2.06982e-07
2.14449e-07
2.21768e-07
2.28934e-07
2.35944e-07
2.42792e-07
2.49465e-07
2.55955e-07
2.62255e-07
2.68363e-07
2.74263e-07
2.7994e-07
2.85384e-07
2.9059e-07
2.95558e-07
3.00285e-07
3.04769e-07
3.08997e-07
3.12978e-07
3.16697e-07
3.20163e-07
3.23362e-07
3.26299e-07
3.28961e-07
3.31344e-07
3.33452e-07
3.3528e-07
3.36822e-07
3.38066e-07
3.39013e-07
3.39649e-07
3.39969e-07
3.39973e-07
3.39648e-07
3.38986e-07
3.37979e-07
3.3662e-07
3.34909e-07
3.32829e-07
3.30381e-07
3.27556e-07
3.24346e-07
3.20737e-07
3.16728e-07
3.12305e-07
3.07469e-07
3.02206e-07
2.96519e-07
2.90397e-07
2.83838e-07
2.76841e-07
2.6941e-07
2.61544e-07
2.53248e-07
2.44532e-07
2.35405e-07
2.25881e-07
2.15981e-07
2.05728e-07
1.95148e-07
1.84271e-07
1.73118e-07
1.61732e-07
1.50177e-07
1.38533e-07
1.26891e-07
1.15348e-07
1.04006e-07
9.29702e-08
8.23446e-08
7.22252e-08
6.27002e-08
5.3842e-08
4.57071e-08
3.8332e-08
3.17334e-08
2.59088e-08
2.08384e-08
1.64874e-08
1.28095e-08
9.75e-09
7.24894e-09
5.24372e-09
3.67135e-09
2.47024e-09
1.58143e-09
9.49477e-10
5.23038e-10
2.55194e-10
1.03682e-10
3.10904e-11
5.23032e-12
2.3738e-13
1.90591e-07
1.9836e-07
2.05998e-07
2.13497e-07
2.20837e-07
2.28013e-07
2.35032e-07
2.41891e-07
2.48583e-07
2.55104e-07
2.61445e-07
2.67596e-07
2.7354e-07
2.79252e-07
2.84733e-07
2.89968e-07
2.94966e-07
2.99724e-07
3.0423e-07
3.08492e-07
3.12498e-07
3.16244e-07
3.19736e-07
3.22972e-07
3.25946e-07
3.28647e-07
3.3107e-07
3.3321e-07
3.35063e-07
3.36632e-07
3.37903e-07
3.38878e-07
3.39543e-07
3.39891e-07
3.39925e-07
3.39629e-07
3.38996e-07
3.38018e-07
3.36696e-07
3.35022e-07
3.3298e-07
3.30564e-07
3.27764e-07
3.24573e-07
3.20984e-07
3.16993e-07
3.12595e-07
3.07781e-07
3.02546e-07
2.96879e-07
2.90779e-07
2.84246e-07
2.77276e-07
2.69866e-07
2.62019e-07
2.53743e-07
2.45046e-07
2.35939e-07
2.26436e-07
2.16552e-07
2.06311e-07
1.95741e-07
1.84868e-07
1.73714e-07
1.62324e-07
1.5076e-07
1.39104e-07
1.27444e-07
1.15878e-07
1.04507e-07
9.34389e-08
8.2777e-08
7.26196e-08
6.30549e-08
5.41569e-08
4.59821e-08
3.85681e-08
3.19326e-08
2.6074e-08
2.09729e-08
1.65947e-08
1.28934e-08
9.8141e-09
7.29666e-09
5.2782e-09
3.69541e-09
2.48633e-09
1.59164e-09
9.55533e-10
5.26313e-10
2.56748e-10
1.04285e-10
3.12563e-11
5.2531e-12
2.37913e-13
1.89788e-07
1.97583e-07
2.05239e-07
2.12748e-07
2.20102e-07
2.27294e-07
2.34331e-07
2.41209e-07
2.47911e-07
2.54445e-07
2.60801e-07
2.66968e-07
2.72919e-07
2.7865e-07
2.84149e-07
2.89401e-07
2.94415e-07
2.99177e-07
3.03696e-07
3.07968e-07
3.11993e-07
3.15765e-07
3.19281e-07
3.22529e-07
3.25515e-07
3.28233e-07
3.30678e-07
3.32839e-07
3.34717e-07
3.36308e-07
3.37605e-07
3.38604e-07
3.39297e-07
3.39673e-07
3.39723e-07
3.39449e-07
3.38842e-07
3.37897e-07
3.36605e-07
3.34959e-07
3.32951e-07
3.30566e-07
3.27803e-07
3.24655e-07
3.21107e-07
3.17158e-07
3.12796e-07
3.08012e-07
3.02802e-07
2.97165e-07
2.91096e-07
2.84589e-07
2.7764e-07
2.70251e-07
2.62423e-07
2.54166e-07
2.45487e-07
2.36392e-07
2.26895e-07
2.17018e-07
2.06783e-07
1.96217e-07
1.85344e-07
1.74192e-07
1.628e-07
1.51231e-07
1.39565e-07
1.27891e-07
1.16309e-07
1.04918e-07
9.38242e-08
8.31343e-08
7.29457e-08
6.33483e-08
5.44169e-08
4.6209e-08
3.8763e-08
3.20972e-08
2.62106e-08
2.1084e-08
1.66835e-08
1.29628e-08
9.86712e-09
7.33613e-09
5.30672e-09
3.71531e-09
2.49965e-09
1.60009e-09
9.60541e-10
5.29021e-10
2.58032e-10
1.04783e-10
3.1393e-11
5.27177e-12
2.3834e-13
1.89082e-07
1.96881e-07
2.04553e-07
2.12087e-07
2.19464e-07
2.26678e-07
2.33736e-07
2.40634e-07
2.47368e-07
2.53921e-07
2.60298e-07
2.66475e-07
2.72449e-07
2.78204e-07
2.83717e-07
2.88995e-07
2.94025e-07
2.98805e-07
3.03342e-07
3.07624e-07
3.11659e-07
3.15442e-07
3.1897e-07
3.2224e-07
3.25246e-07
3.27978e-07
3.30438e-07
3.32622e-07
3.34524e-07
3.36132e-07
3.37441e-07
3.38451e-07
3.39157e-07
3.39552e-07
3.39631e-07
3.39377e-07
3.38793e-07
3.37869e-07
3.36593e-07
3.34962e-07
3.32962e-07
3.30591e-07
3.27842e-07
3.24706e-07
3.21175e-07
3.17242e-07
3.129e-07
3.08141e-07
3.02954e-07
2.97339e-07
2.91286e-07
2.84798e-07
2.77868e-07
2.705e-07
2.62697e-07
2.5446e-07
2.45794e-07
2.36715e-07
2.27237e-07
2.17374e-07
2.07148e-07
1.96585e-07
1.85715e-07
1.74563e-07
1.63168e-07
1.51595e-07
1.39923e-07
1.28239e-07
1.16641e-07
1.05233e-07
9.41217e-08
8.34098e-08
7.31981e-08
6.35756e-08
5.4618e-08
4.63843e-08
3.89136e-08
3.22244e-08
2.63161e-08
2.117e-08
1.67522e-08
1.30166e-08
9.9082e-09
7.36672e-09
5.32883e-09
3.73074e-09
2.50997e-09
1.60664e-09
9.64419e-10
5.31116e-10
2.59025e-10
1.05167e-10
3.14981e-11
5.28596e-12
2.38645e-13
1.88571e-07
1.9639e-07
2.04072e-07
2.11608e-07
2.19e-07
2.26242e-07
2.33318e-07
2.40236e-07
2.4698e-07
2.53546e-07
2.59925e-07
2.66108e-07
2.72089e-07
2.77853e-07
2.83387e-07
2.88675e-07
2.93716e-07
2.98517e-07
3.03065e-07
3.0737e-07
3.11426e-07
3.15222e-07
3.18755e-07
3.22029e-07
3.25042e-07
3.27787e-07
3.30261e-07
3.32458e-07
3.34374e-07
3.36004e-07
3.37335e-07
3.38369e-07
3.39093e-07
3.39508e-07
3.39599e-07
3.39368e-07
3.38798e-07
3.37891e-07
3.36631e-07
3.35018e-07
3.33037e-07
3.30686e-07
3.27951e-07
3.24831e-07
3.2131e-07
3.17388e-07
3.13058e-07
3.08306e-07
3.03126e-07
2.97518e-07
2.91478e-07
2.84998e-07
2.7808e-07
2.7072e-07
2.62924e-07
2.54693e-07
2.46037e-07
2.36964e-07
2.2749e-07
2.17633e-07
2.07412e-07
1.96855e-07
1.85993e-07
1.74847e-07
1.63453e-07
1.51879e-07
1.402e-07
1.28509e-07
1.16901e-07
1.0548e-07
9.43521e-08
8.36224e-08
7.33915e-08
6.37497e-08
5.47723e-08
4.6519e-08
3.90292e-08
3.2322e-08
2.63971e-08
2.1236e-08
1.68049e-08
1.30578e-08
9.93968e-09
7.39015e-09
5.34576e-09
3.74255e-09
2.51787e-09
1.61165e-09
9.67388e-10
5.3272e-10
2.59785e-10
1.05461e-10
3.15786e-11
5.29688e-12
2.38886e-13
1.88178e-07
1.96001e-07
2.03698e-07
2.11247e-07
2.18653e-07
2.25898e-07
2.32977e-07
2.39886e-07
2.46633e-07
2.53201e-07
2.59593e-07
2.65799e-07
2.71792e-07
2.77568e-07
2.83114e-07
2.88415e-07
2.93467e-07
2.9828e-07
3.02851e-07
3.07167e-07
3.11235e-07
3.15044e-07
3.18598e-07
3.21895e-07
3.24921e-07
3.27681e-07
3.30163e-07
3.32361e-07
3.34278e-07
3.35911e-07
3.37244e-07
3.38279e-07
3.39012e-07
3.39426e-07
3.39523e-07
3.39297e-07
3.38739e-07
3.37842e-07
3.36593e-07
3.34982e-07
3.33009e-07
3.30666e-07
3.27944e-07
3.24836e-07
3.21334e-07
3.17423e-07
3.13103e-07
3.0836e-07
3.03189e-07
2.9759e-07
2.91557e-07
2.85087e-07
2.7818e-07
2.70833e-07
2.63046e-07
2.54822e-07
2.46173e-07
2.37108e-07
2.27639e-07
2.17786e-07
2.0757e-07
1.97015e-07
1.86153e-07
1.75008e-07
1.63618e-07
1.52042e-07
1.40363e-07
1.28669e-07
1.17055e-07
1.05627e-07
9.44907e-08
8.37513e-08
7.35097e-08
6.38563e-08
5.48676e-08
4.66023e-08
3.91009e-08
3.23827e-08
2.64477e-08
2.12773e-08
1.68379e-08
1.30836e-08
9.95945e-09
7.40488e-09
5.35641e-09
3.74998e-09
2.52284e-09
1.6148e-09
9.69256e-10
5.33729e-10
2.60262e-10
1.05646e-10
3.16287e-11
5.30355e-12
2.39018e-13
1.87961e-07
1.9578e-07
2.03474e-07
2.1102e-07
2.18411e-07
2.25639e-07
2.32713e-07
2.39626e-07
2.46375e-07
2.52954e-07
2.59356e-07
2.65571e-07
2.71572e-07
2.77354e-07
2.82905e-07
2.88219e-07
2.93284e-07
2.98098e-07
3.0267e-07
3.06996e-07
3.11074e-07
3.14901e-07
3.18464e-07
3.2176e-07
3.24795e-07
3.27554e-07
3.30044e-07
3.32259e-07
3.34185e-07
3.35817e-07
3.37159e-07
3.38203e-07
3.38945e-07
3.39369e-07
3.39469e-07
3.39245e-07
3.3869e-07
3.37796e-07
3.36556e-07
3.34955e-07
3.32992e-07
3.30658e-07
3.27947e-07
3.24842e-07
3.21344e-07
3.17443e-07
3.13134e-07
3.08402e-07
3.03248e-07
2.9766e-07
2.9164e-07
2.85179e-07
2.78275e-07
2.70929e-07
2.63146e-07
2.54932e-07
2.46288e-07
2.37225e-07
2.27758e-07
2.17906e-07
2.07693e-07
1.97143e-07
1.86283e-07
1.75138e-07
1.63744e-07