/*--------------------------------*- C++ -*----------------------------------*\
  =========                 |
  \\      /  F ield         | OpenFOAM: The Open Source CFD Toolbox
   \\    /   O peration     | Website:  https://openfoam.org
    \\  /    A nd           | Version:  7
     \\/     M anipulation  |
\*---------------------------------------------------------------------------*/
FoamFile
{
    version     2.0;
    format      ascii;
    class       volScalarField;
    location    "36000";
    object      k;
}
// * * * * * * * * * * * * * * * * * * * * * * * * * * * * * * * * * * * * * //

dimensions      [0 2 -2 0 0 0 0];

internalField   nonuniform List<scalar> 
1777
(
1.31625e-06
1.31354e-06
1.31083e-06
1.30812e-06
1.30547e-06
1.30291e-06
1.3005e-06
1.29827e-06
1.29625e-06
1.29447e-06
1.32049e-06
1.31797e-06
1.31544e-06
1.31291e-06
1.31042e-06
1.30802e-06
1.30575e-06
1.30365e-06
1.30175e-06
1.30007e-06
1.32423e-06
1.32191e-06
1.31957e-06
1.31722e-06
1.3149e-06
1.31265e-06
1.31053e-06
1.30856e-06
1.30678e-06
1.3052e-06
1.32748e-06
1.32535e-06
1.3232e-06
1.32103e-06
1.31888e-06
1.31679e-06
1.31482e-06
1.31298e-06
1.31131e-06
1.30984e-06
1.33021e-06
1.32828e-06
1.32632e-06
1.32433e-06
1.32235e-06
1.32043e-06
1.3186e-06
1.3169e-06
1.31535e-06
1.31398e-06
1.3324e-06
1.33067e-06
1.32891e-06
1.3271e-06
1.3253e-06
1.32354e-06
1.32186e-06
1.3203e-06
1.31887e-06
1.31761e-06
1.33404e-06
1.33251e-06
1.33095e-06
1.32933e-06
1.32771e-06
1.32611e-06
1.32459e-06
1.32316e-06
1.32186e-06
1.3207e-06
1.3351e-06
1.33379e-06
1.33242e-06
1.33099e-06
1.32955e-06
1.32813e-06
1.32676e-06
1.32547e-06
1.3243e-06
1.32325e-06
1.33557e-06
1.33446e-06
1.3333e-06
1.33207e-06
1.33081e-06
1.32956e-06
1.32835e-06
1.32721e-06
1.32616e-06
1.32522e-06
1.33542e-06
1.33452e-06
1.33357e-06
1.33254e-06
1.33146e-06
1.33039e-06
1.32934e-06
1.32834e-06
1.32742e-06
1.3266e-06
1.33461e-06
1.33394e-06
1.3332e-06
1.33237e-06
1.33148e-06
1.33059e-06
1.3297e-06
1.32885e-06
1.32806e-06
1.32735e-06
1.33313e-06
1.33268e-06
1.33215e-06
1.33153e-06
1.33084e-06
1.33012e-06
1.32941e-06
1.32871e-06
1.32806e-06
1.32746e-06
1.33092e-06
1.33071e-06
1.3304e-06
1.32999e-06
1.3295e-06
1.32897e-06
1.32843e-06
1.32788e-06
1.32737e-06
1.32689e-06
1.32797e-06
1.32799e-06
1.32792e-06
1.32772e-06
1.32744e-06
1.3271e-06
1.32673e-06
1.32634e-06
1.32596e-06
1.32561e-06
1.32423e-06
1.32449e-06
1.32465e-06
1.32468e-06
1.3246e-06
1.32446e-06
1.32426e-06
1.32404e-06
1.32381e-06
1.32358e-06
1.31965e-06
1.32015e-06
1.32056e-06
1.32081e-06
1.32096e-06
1.32101e-06
1.321e-06
1.32094e-06
1.32086e-06
1.32075e-06
1.31418e-06
1.31494e-06
1.31559e-06
1.31608e-06
1.31645e-06
1.31671e-06
1.31689e-06
1.317e-06
1.31706e-06
1.31709e-06
1.30776e-06
1.30879e-06
1.3097e-06
1.31043e-06
1.31103e-06
1.3115e-06
1.31187e-06
1.31216e-06
1.31238e-06
1.31254e-06
1.30034e-06
1.30165e-06
1.30282e-06
1.3038e-06
1.30463e-06
1.30533e-06
1.3059e-06
1.30637e-06
1.30674e-06
1.30704e-06
1.29185e-06
1.29344e-06
1.29488e-06
1.29613e-06
1.2972e-06
1.29812e-06
1.2989e-06
1.29955e-06
1.30009e-06
1.30054e-06
1.28221e-06
1.28409e-06
1.28582e-06
1.28733e-06
1.28866e-06
1.28981e-06
1.2908e-06
1.29165e-06
1.29236e-06
1.29295e-06
1.27132e-06
1.27352e-06
1.27554e-06
1.27733e-06
1.27892e-06
1.28031e-06
1.28152e-06
1.28257e-06
1.28346e-06
1.2842e-06
1.25911e-06
1.26162e-06
1.26395e-06
1.26603e-06
1.26789e-06
1.26953e-06
1.27098e-06
1.27223e-06
1.2733e-06
1.2742e-06
1.24546e-06
1.31625e-06
1.32049e-06
1.32423e-06
1.32748e-06
1.33021e-06
1.3324e-06
1.33404e-06
1.3351e-06
1.33557e-06
1.33542e-06
1.33461e-06
1.33313e-06
1.33092e-06
1.32797e-06
1.32423e-06
1.31965e-06
1.31418e-06
1.30776e-06
1.30034e-06
1.29185e-06
1.28221e-06
1.27132e-06
1.25911e-06
1.24546e-06
1.31354e-06
1.31797e-06
1.32191e-06
1.32535e-06
1.32828e-06
1.33067e-06
1.33251e-06
1.33379e-06
1.33446e-06
1.33452e-06
1.33394e-06
1.33268e-06
1.33071e-06
1.32799e-06
1.32449e-06
1.32015e-06
1.31494e-06
1.30879e-06
1.30165e-06
1.29344e-06
1.28409e-06
1.27352e-06
1.26162e-06
1.24831e-06
1.31083e-06
1.31544e-06
1.31957e-06
1.3232e-06
1.32632e-06
1.32891e-06
1.33095e-06
1.33242e-06
1.3333e-06
1.33357e-06
1.3332e-06
1.33215e-06
1.3304e-06
1.32792e-06
1.32465e-06
1.32056e-06
1.31559e-06
1.3097e-06
1.30282e-06
1.29488e-06
1.28582e-06
1.27554e-06
1.26395e-06
1.25095e-06
1.30812e-06
1.31291e-06
1.31722e-06
1.32103e-06
1.32433e-06
1.3271e-06
1.32933e-06
1.33099e-06
1.33207e-06
1.33254e-06
1.33237e-06
1.33153e-06
1.32999e-06
1.32772e-06
1.32468e-06
1.32081e-06
1.31608e-06
1.31043e-06
1.3038e-06
1.29613e-06
1.28733e-06
1.27733e-06
1.26603e-06
1.25333e-06
1.30547e-06
1.31042e-06
1.3149e-06
1.31888e-06
1.32235e-06
1.3253e-06
1.32771e-06
1.32955e-06
1.33081e-06
1.33146e-06
1.33148e-06
1.33084e-06
1.32951e-06
1.32744e-06
1.3246e-06
1.32096e-06
1.31645e-06
1.31103e-06
1.30463e-06
1.2972e-06
1.28866e-06
1.27892e-06
1.26789e-06
1.25547e-06
1.30291e-06
1.30802e-06
1.31265e-06
1.31679e-06
1.32043e-06
1.32354e-06
1.32611e-06
1.32813e-06
1.32956e-06
1.33039e-06
1.33059e-06
1.33012e-06
1.32897e-06
1.3271e-06
1.32446e-06
1.32101e-06
1.31671e-06
1.3115e-06
1.30533e-06
1.29812e-06
1.28981e-06
1.28031e-06
1.26953e-06
1.25738e-06
1.3005e-06
1.30575e-06
1.31053e-06
1.31482e-06
1.3186e-06
1.32186e-06
1.32459e-06
1.32676e-06
1.32835e-06
1.32934e-06
1.3297e-06
1.32941e-06
1.32843e-06
1.32673e-06
1.32426e-06
1.321e-06
1.31689e-06
1.31187e-06
1.3059e-06
1.2989e-06
1.2908e-06
1.28152e-06
1.27098e-06
1.25906e-06
1.29827e-06
1.30365e-06
1.30856e-06
1.31298e-06
1.3169e-06
1.3203e-06
1.32316e-06
1.32547e-06
1.32721e-06
1.32834e-06
1.32885e-06
1.32871e-06
1.32788e-06
1.32634e-06
1.32404e-06
1.32094e-06
1.317e-06
1.31216e-06
1.30637e-06
1.29955e-06
1.29165e-06
1.28257e-06
1.27223e-06
1.26052e-06
1.29625e-06
1.30175e-06
1.30678e-06
1.31132e-06
1.31535e-06
1.31887e-06
1.32186e-06
1.3243e-06
1.32616e-06
1.32742e-06
1.32806e-06
1.32806e-06
1.32737e-06
1.32596e-06
1.32381e-06
1.32086e-06
1.31706e-06
1.31238e-06
1.30674e-06
1.3001e-06
1.29236e-06
1.28346e-06
1.2733e-06
1.26178e-06
1.29447e-06
1.30007e-06
1.3052e-06
1.30984e-06
1.31398e-06
1.31761e-06
1.32071e-06
1.32325e-06
1.32522e-06
1.3266e-06
1.32735e-06
1.32746e-06
1.32689e-06
1.32561e-06
1.32358e-06
1.32075e-06
1.31709e-06
1.31254e-06
1.30704e-06
1.30054e-06
1.29295e-06
1.2842e-06
1.2742e-06
1.26284e-06
1.29295e-06
1.29864e-06
1.30385e-06
1.30858e-06
1.31281e-06
1.31653e-06
1.31971e-06
1.32235e-06
1.32441e-06
1.32588e-06
1.32673e-06
1.32694e-06
1.32647e-06
1.32529e-06
1.32336e-06
1.32065e-06
1.3171e-06
1.31266e-06
1.30728e-06
1.30089e-06
1.29342e-06
1.2848e-06
1.27493e-06
1.26372e-06
1.29172e-06
1.29747e-06
1.30275e-06
1.30755e-06
1.31185e-06
1.31564e-06
1.3189e-06
1.32161e-06
1.32375e-06
1.32529e-06
1.32622e-06
1.32651e-06
1.32612e-06
1.32502e-06
1.32318e-06
1.32055e-06
1.31709e-06
1.31274e-06
1.30745e-06
1.30116e-06
1.29379e-06
1.28527e-06
1.27551e-06
1.2644e-06
1.29077e-06
1.29658e-06
1.30192e-06
1.30677e-06
1.31112e-06
1.31497e-06
1.31828e-06
1.32104e-06
1.32324e-06
1.32484e-06
1.32583e-06
1.32618e-06
1.32585e-06
1.32481e-06
1.32303e-06
1.32047e-06
1.31707e-06
1.31279e-06
1.30757e-06
1.30135e-06
1.29406e-06
1.28562e-06
1.27594e-06
1.26491e-06
1.29014e-06
1.29598e-06
1.30135e-06
1.30624e-06
1.31063e-06
1.31451e-06
1.31786e-06
1.32066e-06
1.3229e-06
1.32454e-06
1.32557e-06
1.32595e-06
1.32566e-06
1.32467e-06
1.32293e-06
1.32041e-06
1.31706e-06
1.31282e-06
1.30765e-06
1.30148e-06
1.29424e-06
1.28585e-06
1.27622e-06
1.26525e-06
1.28982e-06
1.29568e-06
1.30107e-06
1.30597e-06
1.31038e-06
1.31428e-06
1.31765e-06
1.32047e-06
1.32272e-06
1.32438e-06
1.32543e-06
1.32584e-06
1.32557e-06
1.3246e-06
1.32288e-06
1.32038e-06
1.31705e-06
1.31284e-06
1.30769e-06
1.30154e-06
1.29433e-06
1.28596e-06
1.27636e-06
1.26542e-06
1.28982e-06
1.29568e-06
1.30107e-06
1.30597e-06
1.31038e-06
1.31428e-06
1.31765e-06
1.32047e-06
1.32272e-06
1.32438e-06
1.32543e-06
1.32584e-06
1.32557e-06
1.3246e-06
1.32288e-06
1.32038e-06
1.31705e-06
1.31284e-06
1.30769e-06
1.30154e-06
1.29433e-06
1.28596e-06
1.27636e-06
1.26542e-06
1.29014e-06
1.29598e-06
1.30135e-06
1.30624e-06
1.31063e-06
1.31451e-06
1.31786e-06
1.32066e-06
1.3229e-06
1.32454e-06
1.32557e-06
1.32595e-06
1.32566e-06
1.32467e-06
1.32293e-06
1.32041e-06
1.31706e-06
1.31282e-06
1.30765e-06
1.30148e-06
1.29424e-06
1.28585e-06
1.27622e-06
1.26525e-06
1.29077e-06
1.29658e-06
1.30192e-06
1.30677e-06
1.31112e-06
1.31497e-06
1.31828e-06
1.32104e-06
1.32324e-06
1.32484e-06
1.32583e-06
1.32618e-06
1.32585e-06
1.32481e-06
1.32303e-06
1.32047e-06
1.31707e-06
1.31279e-06
1.30757e-06
1.30135e-06
1.29406e-06
1.28562e-06
1.27594e-06
1.26491e-06
1.29172e-06
1.29747e-06
1.30275e-06
1.30755e-06
1.31185e-06
1.31564e-06
1.3189e-06
1.32161e-06
1.32375e-06
1.32529e-06
1.32622e-06
1.32651e-06
1.32612e-06
1.32502e-06
1.32318e-06
1.32055e-06
1.31709e-06
1.31274e-06
1.30745e-06
1.30116e-06
1.29379e-06
1.28527e-06
1.27551e-06
1.2644e-06
1.24081e-06
1.24952e-06
1.25782e-06
1.26571e-06
1.27318e-06
1.28021e-06
1.28681e-06
1.29295e-06
1.29864e-06
1.30385e-06
1.30858e-06
1.31281e-06
1.31653e-06
1.31971e-06
1.32235e-06
1.32441e-06
1.32588e-06
1.32673e-06
1.32694e-06
1.32647e-06
1.32529e-06
1.32336e-06
1.32065e-06
1.3171e-06
1.31266e-06
1.30728e-06
1.30089e-06
1.29342e-06
1.2848e-06
1.27493e-06
1.26372e-06
1.2429e-06
1.25153e-06
1.25975e-06
1.26756e-06
1.27494e-06
1.2819e-06
1.28841e-06
1.29447e-06
1.30007e-06
1.3052e-06
1.30984e-06
1.31398e-06
1.31761e-06
1.3207e-06
1.32325e-06
1.32522e-06
1.3266e-06
1.32735e-06
1.32746e-06
1.32689e-06
1.32561e-06
1.32358e-06
1.32075e-06
1.31709e-06
1.31254e-06
1.30704e-06
1.30054e-06
1.29295e-06
1.2842e-06
1.2742e-06
1.26284e-06
1.24536e-06
1.2539e-06
1.26202e-06
1.26974e-06
1.27702e-06
1.28388e-06
1.29029e-06
1.29625e-06
1.30175e-06
1.30678e-06
1.31131e-06
1.31535e-06
1.31887e-06
1.32186e-06
1.3243e-06
1.32616e-06
1.32742e-06
1.32806e-06
1.32806e-06
1.32737e-06
1.32596e-06
1.32381e-06
1.32086e-06
1.31706e-06
1.31238e-06
1.30674e-06
1.3001e-06
1.29236e-06
1.28346e-06
1.2733e-06
1.26178e-06
1.24816e-06
1.25659e-06
1.26461e-06
1.27221e-06
1.27938e-06
1.28612e-06
1.29242e-06
1.29827e-06
1.30365e-06
1.30856e-06
1.31298e-06
1.3169e-06
1.3203e-06
1.32316e-06
1.32547e-06
1.32721e-06
1.32834e-06
1.32885e-06
1.32871e-06
1.32788e-06
1.32634e-06
1.32404e-06
1.32094e-06
1.317e-06
1.31216e-06
1.30637e-06
1.29955e-06
1.29165e-06
1.28257e-06
1.27223e-06
1.26052e-06
1.25127e-06
1.25958e-06
1.26747e-06
1.27495e-06
1.282e-06
1.28861e-06
1.29478e-06
1.3005e-06
1.30575e-06
1.31053e-06
1.31482e-06
1.3186e-06
1.32186e-06
1.32459e-06
1.32676e-06
1.32835e-06
1.32934e-06
1.3297e-06
1.32941e-06
1.32843e-06
1.32673e-06
1.32426e-06
1.321e-06
1.31689e-06
1.31187e-06
1.3059e-06
1.2989e-06
1.2908e-06
1.28152e-06
1.27098e-06
1.25906e-06
1.25465e-06
1.26282e-06
1.27058e-06
1.27792e-06
1.28483e-06
1.2913e-06
1.29733e-06
1.30291e-06
1.30802e-06
1.31265e-06
1.31679e-06
1.32043e-06
1.32354e-06
1.32611e-06
1.32813e-06
1.32956e-06
1.33039e-06
1.33059e-06
1.33012e-06
1.32897e-06
1.3271e-06
1.32446e-06
1.32101e-06
1.31671e-06
1.3115e-06
1.30533e-06
1.29812e-06
1.28981e-06
1.28031e-06
1.26953e-06
1.25738e-06
1.25825e-06
1.26627e-06
1.27389e-06
1.28108e-06
1.28784e-06
1.29416e-06
1.30004e-06
1.30547e-06
1.31042e-06
1.3149e-06
1.31888e-06
1.32235e-06
1.3253e-06
1.3277e-06
1.32955e-06
1.33081e-06
1.33146e-06
1.33148e-06
1.33084e-06
1.3295e-06
1.32744e-06
1.3246e-06
1.32096e-06
1.31645e-06
1.31103e-06
1.30463e-06
1.2972e-06
1.28866e-06
1.27892e-06
1.26789e-06
1.25547e-06
1.26203e-06
1.26989e-06
1.27735e-06
1.28438e-06
1.29098e-06
1.29715e-06
1.30286e-06
1.30812e-06
1.31291e-06
1.31722e-06
1.32103e-06
1.32433e-06
1.3271e-06
1.32933e-06
1.33099e-06
1.33207e-06
1.33254e-06
1.33237e-06
1.33153e-06
1.32999e-06
1.32772e-06
1.32468e-06
1.32081e-06
1.31608e-06
1.31043e-06
1.3038e-06
1.29613e-06
1.28733e-06
1.27733e-06
1.26603e-06
1.25333e-06
1.26592e-06
1.27362e-06
1.28091e-06
1.28777e-06
1.29421e-06
1.3002e-06
1.30574e-06
1.31083e-06
1.31544e-06
1.31957e-06
1.3232e-06
1.32632e-06
1.32891e-06
1.33095e-06
1.33242e-06
1.3333e-06
1.33357e-06
1.3332e-06
1.33215e-06
1.3304e-06
1.32792e-06
1.32465e-06
1.32056e-06
1.31559e-06
1.3097e-06
1.30282e-06
1.29488e-06
1.28582e-06
1.27554e-06
1.26395e-06
1.25095e-06
1.26989e-06
1.27742e-06
1.28453e-06
1.29121e-06
1.29746e-06
1.30328e-06
1.30864e-06
1.31354e-06
1.31797e-06
1.32191e-06
1.32535e-06
1.32828e-06
1.33067e-06
1.33251e-06
1.33379e-06
1.33446e-06
1.33452e-06
1.33394e-06
1.33268e-06
1.33071e-06
1.32799e-06
1.32449e-06
1.32015e-06
1.31494e-06
1.30879e-06
1.30165e-06
1.29344e-06
1.28409e-06
1.27352e-06
1.26162e-06
1.24831e-06
1.27392e-06
1.28126e-06
1.28818e-06
1.29468e-06
1.30075e-06
1.30637e-06
1.31154e-06
1.31625e-06
1.32049e-06
1.32423e-06
1.32748e-06
1.33021e-06
1.3324e-06
1.33404e-06
1.3351e-06
1.33557e-06
1.33542e-06
1.33461e-06
1.33313e-06
1.33092e-06
1.32797e-06
1.32423e-06
1.31965e-06
1.31418e-06
1.30776e-06
1.30034e-06
1.29185e-06
1.28221e-06
1.27132e-06
1.25911e-06
1.24546e-06
1.27392e-06
1.28126e-06
1.28818e-06
1.29468e-06
1.30075e-06
1.30637e-06
1.31154e-06
1.31625e-06
1.32049e-06
1.32423e-06
1.32748e-06
1.33021e-06
1.3324e-06
1.33404e-06
1.3351e-06
1.33557e-06
1.33542e-06
1.33461e-06
1.33313e-06
1.33092e-06
1.32797e-06
1.32423e-06
1.31965e-06
1.31418e-06
1.30776e-06
1.30034e-06
1.29185e-06
1.28221e-06
1.27132e-06
1.25911e-06
1.24546e-06
1.26989e-06
1.27742e-06
1.28452e-06
1.29121e-06
1.29746e-06
1.30328e-06
1.30864e-06
1.31354e-06
1.31797e-06
1.32191e-06
1.32535e-06
1.32828e-06
1.33067e-06
1.33251e-06
1.33379e-06
1.33446e-06
1.33452e-06
1.33394e-06
1.33268e-06
1.33071e-06
1.32799e-06
1.32449e-06
1.32015e-06
1.31494e-06
1.30879e-06
1.30165e-06
1.29344e-06
1.28409e-06
1.27352e-06
1.26162e-06
1.24831e-06
1.26592e-06
1.27362e-06
1.28091e-06
1.28777e-06
1.29421e-06
1.3002e-06
1.30574e-06
1.31083e-06
1.31544e-06
1.31957e-06
1.3232e-06
1.32632e-06
1.32891e-06
1.33095e-06
1.33242e-06
1.3333e-06
1.33357e-06
1.3332e-06
1.33215e-06
1.3304e-06
1.32792e-06
1.32465e-06
1.32056e-06
1.31559e-06
1.3097e-06
1.30282e-06
1.29488e-06
1.28582e-06
1.27554e-06
1.26395e-06
1.25095e-06
1.26203e-06
1.26989e-06
1.27735e-06
1.28438e-06
1.29098e-06
1.29715e-06
1.30286e-06
1.30812e-06
1.31291e-06
1.31722e-06
1.32103e-06
1.32433e-06
1.3271e-06
1.32933e-06
1.33099e-06
1.33207e-06
1.33254e-06
1.33237e-06
1.33153e-06
1.32999e-06
1.32772e-06
1.32468e-06
1.32081e-06
1.31608e-06
1.31043e-06
1.3038e-06
1.29613e-06
1.28733e-06
1.27733e-06
1.26603e-06
1.25333e-06
1.25825e-06
1.26627e-06
1.27389e-06
1.28108e-06
1.28784e-06
1.29416e-06
1.30004e-06
1.30547e-06
1.31042e-06
1.3149e-06
1.31888e-06
1.32235e-06
1.3253e-06
1.3277e-06
1.32955e-06
1.33081e-06
1.33146e-06
1.33148e-06
1.33084e-06
1.3295e-06
1.32744e-06
1.3246e-06
1.32096e-06
1.31645e-06
1.31103e-06
1.30463e-06
1.2972e-06
1.28866e-06
1.27892e-06
1.26789e-06
1.25547e-06
1.25465e-06
1.26282e-06
1.27058e-06
1.27792e-06
1.28483e-06
1.2913e-06
1.29733e-06
1.30291e-06
1.30802e-06
1.31265e-06
1.31679e-06
1.32043e-06
1.32354e-06
1.32611e-06
1.32813e-06
1.32956e-06
1.33039e-06
1.33059e-06
1.33012e-06
1.32897e-06
1.3271e-06
1.32446e-06
1.32101e-06
1.31671e-06
1.3115e-06
1.30533e-06
1.29812e-06
1.28981e-06
1.28031e-06
1.26953e-06
1.25738e-06
1.25127e-06
1.25958e-06
1.26747e-06
1.27495e-06
1.282e-06
1.28861e-06
1.29478e-06
1.3005e-06
1.30575e-06
1.31053e-06
1.31482e-06
1.3186e-06
1.32186e-06
1.32459e-06
1.32676e-06
1.32835e-06
1.32934e-06
1.3297e-06
1.32941e-06
1.32843e-06
1.32673e-06
1.32426e-06
1.321e-06
1.31689e-06
1.31187e-06
1.3059e-06
1.2989e-06
1.2908e-06
1.28152e-06
1.27098e-06
1.25906e-06
1.24816e-06
1.25659e-06
1.26461e-06
1.27221e-06
1.27938e-06
1.28612e-06
1.29242e-06
1.29827e-06
1.30365e-06
1.30856e-06
1.31298e-06
1.3169e-06
1.3203e-06
1.32316e-06
1.32547e-06
1.32721e-06
1.32834e-06
1.32885e-06
1.32871e-06
1.32788e-06
1.32634e-06
1.32404e-06
1.32094e-06
1.317e-06
1.31216e-06
1.30637e-06
1.29955e-06
1.29165e-06
1.28257e-06
1.27223e-06
1.26052e-06
1.24536e-06
1.2539e-06
1.26202e-06
1.26974e-06
1.27702e-06
1.28388e-06
1.29029e-06
1.29625e-06
1.30175e-06
1.30678e-06
1.31131e-06
1.31535e-06
1.31887e-06
1.32186e-06
1.3243e-06
1.32616e-06
1.32742e-06
1.32806e-06
1.32806e-06
1.32737e-06
1.32596e-06
1.32381e-06
1.32086e-06
1.31706e-06
1.31238e-06
1.30674e-06
1.3001e-06
1.29236e-06
1.28346e-06
1.2733e-06
1.26178e-06
1.2429e-06
1.25153e-06
1.25975e-06
1.26756e-06
1.27494e-06
1.2819e-06
1.28841e-06
1.29447e-06
1.30007e-06
1.3052e-06
1.30984e-06
1.31398e-06
1.31761e-06
1.3207e-06
1.32325e-06
1.32522e-06
1.3266e-06
1.32735e-06
1.32746e-06
1.32689e-06
1.32561e-06
1.32358e-06
1.32075e-06
1.31709e-06
1.31254e-06
1.30704e-06
1.30054e-06
1.29295e-06
1.2842e-06
1.2742e-06
1.26284e-06
1.24081e-06
1.24952e-06
1.25782e-06
1.26571e-06
1.27318e-06
1.28021e-06
1.28681e-06
1.29295e-06
1.29864e-06
1.30385e-06
1.30858e-06
1.31281e-06
1.31653e-06
1.31971e-06
1.32235e-06
1.32441e-06
1.32588e-06
1.32673e-06
1.32694e-06
1.32647e-06
1.32529e-06
1.32336e-06
1.32065e-06
1.3171e-06
1.31266e-06
1.30728e-06
1.30089e-06
1.29342e-06
1.2848e-06
1.27493e-06
1.26372e-06
1.2391e-06
1.24788e-06
1.25625e-06
1.2642e-06
1.27174e-06
1.27884e-06
1.2855e-06
1.29172e-06
1.29747e-06
1.30275e-06
1.30755e-06
1.31185e-06
1.31564e-06
1.3189e-06
1.32161e-06
1.32375e-06
1.32529e-06
1.32622e-06
1.32651e-06
1.32612e-06
1.32502e-06
1.32318e-06
1.32055e-06
1.31709e-06
1.31274e-06
1.30745e-06
1.30116e-06
1.29379e-06
1.28527e-06
1.27551e-06
1.2644e-06
1.23781e-06
1.24663e-06
1.25505e-06
1.26306e-06
1.27064e-06
1.27779e-06
1.28451e-06
1.29077e-06
1.29658e-06
1.30192e-06
1.30677e-06
1.31112e-06
1.31497e-06
1.31828e-06
1.32104e-06
1.32324e-06
1.32484e-06
1.32583e-06
1.32618e-06
1.32585e-06
1.32481e-06
1.32303e-06
1.32047e-06
1.31707e-06
1.31279e-06
1.30757e-06
1.30135e-06
1.29406e-06
1.28562e-06
1.27594e-06
1.26491e-06
1.23694e-06
1.2458e-06
1.25425e-06
1.26229e-06
1.2699e-06
1.27709e-06
1.28384e-06
1.29014e-06
1.29598e-06
1.30135e-06
1.30624e-06
1.31063e-06
1.31451e-06
1.31786e-06
1.32066e-06
1.3229e-06
1.32454e-06
1.32557e-06
1.32595e-06
1.32566e-06
1.32467e-06
1.32293e-06
1.32041e-06
1.31706e-06
1.31282e-06
1.30765e-06
1.30148e-06
1.29424e-06
1.28585e-06
1.27622e-06
1.26525e-06
1.2365e-06
1.24538e-06
1.25385e-06
1.2619e-06
1.26953e-06
1.27674e-06
1.2835e-06
1.28982e-06
1.29568e-06
1.30107e-06
1.30597e-06
1.31038e-06
1.31428e-06
1.31765e-06
1.32047e-06
1.32272e-06
1.32438e-06
1.32543e-06
1.32584e-06
1.32557e-06
1.3246e-06
1.32288e-06
1.32038e-06
1.31705e-06
1.31284e-06
1.30769e-06
1.30154e-06
1.29433e-06
1.28596e-06
1.27636e-06
1.26542e-06
1.2365e-06
1.24538e-06
1.25385e-06
1.2619e-06
1.26953e-06
1.27674e-06
1.2835e-06
1.28982e-06
1.29568e-06
1.30107e-06
1.30597e-06
1.31038e-06
1.31428e-06
1.31765e-06
1.32047e-06
1.32272e-06
1.32438e-06
1.32543e-06
1.32584e-06
1.32557e-06
1.3246e-06
1.32288e-06
1.32038e-06
1.31705e-06
1.31284e-06
1.30769e-06
1.30154e-06
1.29433e-06
1.28596e-06
1.27636e-06
1.26542e-06
1.23694e-06
1.2458e-06
1.25425e-06
1.26229e-06
1.2699e-06
1.27709e-06
1.28384e-06
1.29014e-06
1.29598e-06
1.30135e-06
1.30624e-06
1.31063e-06
1.31451e-06
1.31786e-06
1.32066e-06
1.3229e-06
1.32454e-06
1.32557e-06
1.32595e-06
1.32566e-06
1.32467e-06
1.32293e-06
1.32041e-06
1.31706e-06
1.31282e-06
1.30765e-06
1.30148e-06
1.29424e-06
1.28585e-06
1.27622e-06
1.26525e-06
1.23781e-06
1.24663e-06
1.25505e-06
1.26306e-06
1.27064e-06
1.27779e-06
1.28451e-06
1.29077e-06
1.29658e-06
1.30192e-06
1.30677e-06
1.31112e-06
1.31497e-06
1.31828e-06
1.32104e-06
1.32324e-06
1.32484e-06
1.32583e-06
1.32618e-06
1.32585e-06
1.32481e-06
1.32303e-06
1.32047e-06
1.31707e-06
1.31279e-06
1.30757e-06
1.30135e-06
1.29406e-06
1.28562e-06
1.27594e-06
1.26491e-06
1.25244e-06
1.2391e-06
1.24788e-06
1.25625e-06
1.2642e-06
1.27174e-06
1.27884e-06
1.2855e-06
1.29172e-06
1.29747e-06
1.30275e-06
1.30755e-06
1.31185e-06
1.31564e-06
1.3189e-06
1.32161e-06
1.32375e-06
1.32529e-06
1.32622e-06
1.32651e-06
1.32612e-06
1.32502e-06
1.32318e-06
1.32055e-06
1.31709e-06
1.31274e-06
1.30745e-06
1.30116e-06
1.29379e-06
1.28527e-06
1.27551e-06
1.2644e-06
1.25184e-06
1.24081e-06
1.24952e-06
1.25782e-06
1.26571e-06
1.27318e-06
1.28021e-06
1.28681e-06
1.29295e-06
1.29864e-06
1.30385e-06
1.30858e-06
1.31281e-06
1.31653e-06
1.31971e-06
1.32235e-06
1.32441e-06
1.32588e-06
1.32673e-06
1.32694e-06
1.32647e-06
1.32529e-06
1.32336e-06
1.32065e-06
1.3171e-06
1.31266e-06
1.30728e-06
1.30089e-06
1.29342e-06
1.2848e-06
1.27493e-06
1.26372e-06
1.25104e-06
1.2429e-06
1.25153e-06
1.25975e-06
1.26756e-06
1.27494e-06
1.2819e-06
1.28841e-06
1.29447e-06
1.30007e-06
1.3052e-06
1.30984e-06
1.31398e-06
1.31761e-06
1.3207e-06
1.32325e-06
1.32522e-06
1.3266e-06
1.32735e-06
1.32746e-06
1.32689e-06
1.32561e-06
1.32358e-06
1.32075e-06
1.31709e-06
1.31254e-06
1.30704e-06
1.30054e-06
1.29295e-06
1.2842e-06
1.2742e-06
1.26284e-06
1.25003e-06
1.24536e-06
1.2539e-06
1.26202e-06
1.26973e-06
1.27702e-06
1.28388e-06
1.29029e-06
1.29625e-06
1.30175e-06
1.30678e-06
1.31131e-06
1.31535e-06
1.31887e-06
1.32186e-06
1.3243e-06
1.32616e-06
1.32742e-06
1.32806e-06
1.32806e-06
1.32737e-06
1.32596e-06
1.32381e-06
1.32086e-06
1.31706e-06
1.31238e-06
1.30674e-06
1.3001e-06
1.29236e-06
1.28346e-06
1.2733e-06
1.26178e-06
1.2488e-06
1.24816e-06
1.25659e-06
1.26461e-06
1.27221e-06
1.27938e-06
1.28612e-06
1.29242e-06
1.29827e-06
1.30365e-06
1.30856e-06
1.31298e-06
1.3169e-06
1.3203e-06
1.32316e-06
1.32547e-06
1.32721e-06
1.32834e-06
1.32885e-06
1.32871e-06
1.32788e-06
1.32634e-06
1.32404e-06
1.32094e-06
1.317e-06
1.31216e-06
1.30637e-06
1.29955e-06
1.29165e-06
1.28257e-06
1.27223e-06
1.26052e-06
1.24734e-06
1.25127e-06
1.25958e-06
1.26747e-06
1.27495e-06
1.282e-06
1.28861e-06
1.29478e-06
1.3005e-06
1.30575e-06
1.31053e-06
1.31482e-06
1.3186e-06
1.32186e-06
1.32459e-06
1.32676e-06
1.32835e-06
1.32934e-06
1.3297e-06
1.32941e-06
1.32843e-06
1.32673e-06
1.32426e-06
1.321e-06
1.31689e-06
1.31187e-06
1.3059e-06
1.2989e-06
1.2908e-06
1.28152e-06
1.27098e-06
)
;

boundaryField
{
    inlet
    {
        type            cyclic;
    }
    outlet
    {
        type            cyclic;
    }
    wall
    {
        type            fixedValue;
        value           nonuniform 0();
    }
    procBoundary1to0
    {
        type            processor;
        value           nonuniform List<scalar> 
59
(
1.24831e-06
1.25095e-06
1.25333e-06
1.25547e-06
1.25738e-06
1.25906e-06
1.26052e-06
1.26178e-06
1.26284e-06
1.24831e-06
1.23025e-06
1.23025e-06
1.23344e-06
1.23642e-06
1.23912e-06
1.24155e-06
1.24373e-06
1.24565e-06
1.24734e-06
1.2488e-06
1.25003e-06
1.25104e-06
1.25184e-06
1.25244e-06
1.25284e-06
1.25303e-06
1.25303e-06
1.25284e-06
1.25244e-06
1.25184e-06
1.25104e-06
1.25003e-06
1.2488e-06
1.24734e-06
1.24565e-06
1.24373e-06
1.24155e-06
1.23912e-06
1.23642e-06
1.23344e-06
1.23025e-06
1.23025e-06
1.23344e-06
1.23642e-06
1.23912e-06
1.24155e-06
1.24373e-06
1.24565e-06
1.24734e-06
1.2488e-06
1.25003e-06
1.25104e-06
1.25184e-06
1.25244e-06
1.25284e-06
1.25303e-06
1.25303e-06
1.25284e-06
1.25284e-06
)
;
    }
    procBoundary1to2
    {
        type            processor;
        value           nonuniform List<scalar> 
39
(
1.23839e-06
1.2377e-06
1.23678e-06
1.23562e-06
1.23421e-06
1.25906e-06
1.23255e-06
1.24565e-06
1.25465e-06
1.26282e-06
1.27058e-06
1.27792e-06
1.28483e-06
1.2913e-06
1.29733e-06
1.30291e-06
1.30802e-06
1.31265e-06
1.31679e-06
1.32043e-06
1.32354e-06
1.32611e-06
1.32813e-06
1.32956e-06
1.33039e-06
1.33059e-06
1.33012e-06
1.32897e-06
1.3271e-06
1.32446e-06
1.32101e-06
1.31671e-06
1.3115e-06
1.30533e-06
1.29812e-06
1.28981e-06
1.28031e-06
1.25906e-06
1.26953e-06
)
;
    }
    procBoundary1to3
    {
        type            processor;
        value           nonuniform List<scalar> 
23
(
1.29295e-06
1.29864e-06
1.30385e-06
1.30858e-06
1.31281e-06
1.31653e-06
1.31971e-06
1.32235e-06
1.32441e-06
1.32588e-06
1.32673e-06
1.32694e-06
1.32647e-06
1.32529e-06
1.32336e-06
1.32065e-06
1.3171e-06
1.31266e-06
1.30728e-06
1.30089e-06
1.29342e-06
1.2848e-06
1.27493e-06
)
;
    }
    procBoundary1to4
    {
        type            processor;
        value           nonuniform List<scalar> 
61
(
1.31154e-06
1.30864e-06
1.30574e-06
1.30286e-06
1.30004e-06
1.29733e-06
1.29478e-06
1.29242e-06
1.29029e-06
1.28841e-06
1.31154e-06
1.30864e-06
1.30574e-06
1.30286e-06
1.30004e-06
1.29733e-06
1.29478e-06
1.29242e-06
1.29029e-06
1.28841e-06
1.28681e-06
1.2855e-06
1.28451e-06
1.28384e-06
1.2835e-06
1.2835e-06
1.28384e-06
1.28451e-06
1.2391e-06
1.24788e-06
1.25625e-06
1.2642e-06
1.27174e-06
1.27884e-06
1.2855e-06
1.2855e-06
1.23169e-06
1.23387e-06
1.23642e-06
1.23933e-06
1.24256e-06
1.24607e-06
1.24982e-06
1.25375e-06
1.25781e-06
1.26196e-06
1.26617e-06
1.26617e-06
1.26196e-06
1.25781e-06
1.25375e-06
1.24982e-06
1.24607e-06
1.24256e-06
1.23933e-06
1.23642e-06
1.23387e-06
1.23169e-06
1.22992e-06
1.22858e-06
1.22768e-06
)
;
    }
    procBoundary1to5
    {
        type            processor;
        value           nonuniform List<scalar> 10(1.22723e-06 1.22723e-06 1.22768e-06 1.22858e-06 1.22992e-06 1.23169e-06 1.23387e-06 1.23642e-06 1.23933e-06 1.24256e-06);
    }
}


// ************************************************************************* //
