/*--------------------------------*- C++ -*----------------------------------*\
  =========                 |
  \\      /  F ield         | OpenFOAM: The Open Source CFD Toolbox
   \\    /   O peration     | Website:  https://openfoam.org
    \\  /    A nd           | Version:  7
     \\/     M anipulation  |
\*---------------------------------------------------------------------------*/
FoamFile
{
    version     2.0;
    format      ascii;
    class       volVectorField;
    location    "36000";
    object      vorticity;
}
// * * * * * * * * * * * * * * * * * * * * * * * * * * * * * * * * * * * * * //

dimensions      [0 0 -1 0 0 0 0];

internalField   nonuniform List<vector> 
1777
(
(-0.0244088 0.02706 -9.49347e-18)
(-0.0233679 0.0272321 -1.71531e-17)
(-0.0216402 0.0280063 7.68257e-19)
(-0.0199119 0.0287047 -1.76558e-17)
(-0.018179 0.0293361 4.36446e-18)
(-0.0164439 0.0299025 2.00592e-17)
(-0.0147081 0.0304059 -5.58651e-18)
(-0.0129727 0.0308482 -1.01153e-17)
(-0.0112384 0.0312312 8.32938e-18)
(-0.00950554 0.0315564 3.85549e-18)
(-0.0253076 0.0280025 -1.50093e-17)
(-0.0242015 0.0282074 -1.91925e-17)
(-0.0224106 0.0290095 1.79693e-18)
(-0.0206192 0.0297333 -1.48445e-17)
(-0.0188234 0.0303874 1.00369e-17)
(-0.0170257 0.030974 2.3445e-17)
(-0.0152275 0.0314952 -6.25334e-18)
(-0.0134301 0.031953 -8.08126e-18)
(-0.0116341 0.0323494 9.55437e-18)
(-0.00983982 0.0326858 4.89654e-18)
(-0.0262493 0.0289908 -1.696e-17)
(-0.0250751 0.0292296 -2.03579e-17)
(-0.0232179 0.0300609 1.36385e-18)
(-0.0213603 0.0308111 -1.33798e-17)
(-0.0194986 0.0314889 1.23909e-17)
(-0.0176352 0.0320966 2.58559e-17)
(-0.0157717 0.0326364 -6.9321e-18)
(-0.0139093 0.0331104 -6.18749e-18)
(-0.0120486 0.0335206 1.07224e-17)
(-0.01019 0.0338688 4.37788e-18)
(-0.0272371 0.0300279 -1.60933e-17)
(-0.0259916 0.0303019 -2.09119e-17)
(-0.0240648 0.0311638 8.58148e-19)
(-0.0221377 0.0319417 -1.33198e-17)
(-0.0202067 0.0326443 1.23896e-17)
(-0.0182744 0.033274 2.77348e-17)
(-0.0163424 0.0338332 -7.84618e-18)
(-0.0144118 0.0343241 -4.37796e-18)
(-0.0124832 0.0347488 1.12752e-17)
(-0.0105571 0.0351092 2.79436e-18)
(-0.0282742 0.0311174 -1.33397e-17)
(-0.026954 0.031428 -2.13979e-17)
(-0.024954 0.0323219 1.10809e-18)
(-0.0229539 0.0331287 -1.35233e-17)
(-0.0209502 0.0338573 1.24187e-17)
(-0.0189455 0.03451 2.96269e-17)
(-0.0169414 0.0350894 -8.84296e-18)
(-0.0149392 0.035598 -3.32006e-18)
(-0.0129395 0.0360378 1.13969e-17)
(-0.0109425 0.036411 1.78523e-18)
(-0.0293642 0.032263 -8.75273e-18)
(-0.0279657 0.0326117 -2.30761e-17)
(-0.0258887 0.0335392 1.17678e-19)
(-0.0238117 0.0343764 -1.29688e-17)
(-0.0217315 0.0351321 1.30818e-17)
(-0.0196507 0.0358089 3.12728e-17)
(-0.017571 0.0364096 -9.37448e-18)
(-0.0154935 0.0369366 -2.88186e-18)
(-0.0134188 0.0373922 1.15153e-17)
(-0.0113474 0.0377787 1.30372e-18)
(-0.030511 0.033469 -3.73585e-18)
(-0.0290303 0.0338574 -2.6176e-17)
(-0.0268721 0.0348202 -1.80718e-18)
(-0.0247142 0.0356892 -1.17465e-17)
(-0.0225535 0.0364734 1.27983e-17)
(-0.0203926 0.0371755 3.2404e-17)
(-0.0182332 0.0377983 -8.84406e-18)
(-0.0160765 0.0383446 -3.3105e-18)
(-0.0139231 0.0388169 1.1783e-17)
(-0.0117733 0.0392174 1.15599e-18)
(-0.031719 0.0347399 2.28325e-19)
(-0.0301519 0.0351698 -3.03508e-17)
(-0.0279081 0.0361696 -3.16522e-18)
(-0.0256649 0.0370721 -9.61353e-18)
(-0.0234194 0.0378861 1.19711e-17)
(-0.021174 0.0386148 3.36502e-17)
(-0.0189307 0.0392609 -6.51392e-18)
(-0.0166905 0.0398275 -4.46621e-18)
(-0.0144541 0.0403171 1.13816e-17)
(-0.0122218 0.0407322 1.37301e-18)
(-0.0329929 0.0360807 3.19655e-18)
(-0.0313347 0.0365539 -3.35073e-17)
(-0.0290006 0.0375928 -4.25674e-18)
(-0.0266675 0.0385304 -7.50694e-18)
(-0.0243324 0.0393759 1.05362e-17)
(-0.0219979 0.0401324 3.50481e-17)
(-0.0196661 0.040803 -3.72711e-18)
(-0.0173379 0.0413909 -4.81809e-18)
(-0.015014 0.0418988 1.07553e-17)
(-0.0126946 0.0423292 1.27601e-18)
(-0.0343379 0.0374969 4.75473e-18)
(-0.0325838 0.0380155 -3.55103e-17)
(-0.0301542 0.0390955 -5.99489e-18)
(-0.027726 0.0400702 -6.59138e-18)
(-0.0252962 0.0409488 9.035e-18)
(-0.0228678 0.0417346 3.58326e-17)
(-0.0204424 0.042431 -1.45207e-19)
(-0.0180212 0.0430412 -3.51089e-18)
(-0.0156049 0.0435682 9.49966e-18)
(-0.0131937 0.0440148 7.76261e-19)
(-0.0357597 0.0389944 5.2816e-18)
(-0.0339042 0.0395608 -3.65361e-17)
(-0.0313737 0.0406842 -7.42288e-18)
(-0.0288449 0.0416979 -6.5036e-18)
(-0.0263151 0.0426114 9.20299e-18)
(-0.0237872 0.0434281 3.68551e-17)
(-0.0212629 0.0441516 4.49272e-18)
(-0.0187435 0.0447853 -1.24921e-18)
(-0.0162295 0.0453325 7.46948e-18)
(-0.0137211 0.0457961 3.17346e-19)
(-0.0372646 0.04058 6.05364e-18)
(-0.035302 0.0411966 -3.7693e-17)
(-0.0326645 0.0423659 -8.48061e-18)
(-0.0300292 0.0434209 -5.95897e-18)
(-0.0273935 0.0443712 1.06994e-17)
(-0.0247602 0.0452204 3.8155e-17)
(-0.0221312 0.0459725 9.41425e-18)
(-0.0195078 0.0466311 4.85991e-19)
(-0.0168904 0.0471996 4.89981e-18)
(-0.0142792 0.047681 -1.31733e-19)
(-0.0388596 0.0422611 7.48368e-18)
(-0.0367836 0.0429306 -3.8942e-17)
(-0.0340326 0.0441484 -9.47665e-18)
(-0.0312844 0.045247 -4.53396e-18)
(-0.0285363 0.0462362 1.1797e-17)
(-0.0257914 0.0471198 3.96191e-17)
(-0.0230514 0.0479021 1.37396e-17)
(-0.0203177 0.0485869 1.0858e-18)
(-0.0175908 0.0491779 2.11188e-18)
(-0.0148706 0.0496782 -1.5914e-18)
(-0.0405525 0.0440457 9.26363e-18)
(-0.0383562 0.0447712 -4.02772e-17)
(-0.0354847 0.0460404 -9.68552e-18)
(-0.0326165 0.0471852 -3.69187e-18)
(-0.0297492 0.0482155 1.21293e-17)
(-0.0268857 0.0491356 4.10469e-17)
(-0.0240279 0.0499498 1.6884e-17)
(-0.0211772 0.0506623 1.23906e-18)
(-0.0183339 0.051277 -1.23945e-18)
(-0.0154981 0.0517973 -2.96308e-18)
(-0.0423517 0.045943 1.07257e-17)
(-0.0400277 0.0467276 -4.25575e-17)
(-0.037028 0.0480514 -9.96893e-18)
(-0.0340324 0.0492452 -4.48584e-18)
(-0.0310382 0.0503191 1.2634e-17)
(-0.0280486 0.0512778 4.22574e-17)
(-0.0250657 0.0521259 1.89932e-17)
(-0.0220905 0.0528678 1.3626e-18)
(-0.0191236 0.0535076 -4.51625e-18)
(-0.0161649 0.0540491 -3.75698e-18)
(-0.0442668 0.047963 1.21077e-17)
(-0.0418069 0.0488102 -4.42515e-17)
(-0.0386709 0.0501921 -1.13397e-17)
(-0.0355394 0.0514379 -5.91482e-18)
(-0.0324102 0.0525583 1.37133e-17)
(-0.0292864 0.0535579 4.24989e-17)
(-0.0261701 0.0544419 2.03702e-17)
(-0.0230625 0.0552149 2.53015e-18)
(-0.019964 0.0558814 -7.64111e-18)
(-0.0168746 0.0564453 -4.61626e-18)
(-0.0463084 0.0501169 1.37714e-17)
(-0.0437039 0.0510307 -4.43775e-17)
(-0.0404223 0.0524744 -1.35906e-17)
(-0.037146 0.0537756 -6.98257e-18)
(-0.0338728 0.0549453 1.48278e-17)
(-0.0306059 0.0559885 4.21193e-17)
(-0.0273474 0.0569107 2.15824e-17)
(-0.0240986 0.0577168 3.9496e-18)
(-0.0208598 0.0584117 -1.04808e-17)
(-0.0176309 0.0589994 -5.59353e-18)
(-0.0484885 0.0524173 1.74424e-17)
(-0.0457296 0.053402 -4.32196e-17)
(-0.0422925 0.0549116 -1.60034e-17)
(-0.0388615 0.0562719 -7.10711e-18)
(-0.0354345 0.0574941 1.61044e-17)
(-0.0320148 0.0585838 4.13146e-17)
(-0.0286045 0.0595466 2.2347e-17)
(-0.0252048 0.0603881 4.57575e-18)
(-0.0218162 0.0611131 -1.37481e-17)
(-0.0184385 0.0617262 -6.49402e-18)
(-0.0508203 0.0548782 2.51129e-17)
(-0.0478963 0.0559386 -4.12362e-17)
(-0.0442929 0.0575186 -2.0437e-17)
(-0.0406964 0.0589421 -7.82415e-18)
(-0.0371049 0.0602204 1.72447e-17)
(-0.0335217 0.0613596 3.99731e-17)
(-0.0299489 0.0623659 2.25194e-17)
(-0.0263879 0.063245 4.63755e-18)
(-0.0228391 0.0640022 -1.70913e-17)
(-0.0193021 0.0646424 -6.60792e-18)
(-0.0533189 0.0575154 3.55251e-17)
(-0.0502181 0.0586568 -3.9818e-17)
(-0.0464364 0.0603123 -2.6943e-17)
(-0.0426626 0.0618033 -1.02668e-17)
(-0.0388947 0.0631416 1.81052e-17)
(-0.0351362 0.0643339 3.81693e-17)
(-0.0313894 0.0653866 2.10902e-17)
(-0.0276555 0.0663059 4.801e-18)
(-0.023935 0.0670976 -1.92248e-17)
(-0.0202273 0.0677666 -6.63539e-18)
(-0.0560009 0.0603468 4.70855e-17)
(-0.0527105 0.061575 -3.71034e-17)
(-0.0487374 0.0633114 -3.27495e-17)
(-0.0447732 0.0648748 -1.39631e-17)
(-0.040816 0.0662776 1.86347e-17)
(-0.0368694 0.0675266 3.55656e-17)
(-0.0329357 0.0686291 1.79214e-17)
(-0.0290162 0.0695916 5.96625e-18)
(-0.0251113 0.0704202 -2.0369e-17)
(-0.0212205 0.0711202 -7.0102e-18)
(-0.0588855 0.0633923 5.70501e-17)
(-0.0553913 0.0647138 -3.82323e-17)
(-0.0512124 0.0665373 -2.38021e-17)
(-0.0470434 0.0681786 -1.62939e-17)
(-0.0428825 0.0696505 2.54097e-17)
(-0.0387335 0.0709607 3.43597e-17)
(-0.0345988 0.0721166 1.6167e-17)
(-0.0304797 0.0731254 9.77137e-18)
(-0.0263765 0.0739936 -2.15319e-17)
(-0.0222887 0.074727 -7.91052e-18)
(-0.0619942 0.0666747 4.67196e-17)
(-0.0582805 0.0680968 -4.28999e-17)
(-0.0538797 0.0700141 -5.56889e-18)
(-0.04949 0.0717393 -1.71017e-17)
(-0.0451097 0.0732858 3.80031e-17)
(-0.0407426 0.0746617 3.59915e-17)
(-0.0363912 0.0758753 1.62165e-17)
(-0.032057 0.076934 1.41268e-17)
(-0.0277401 0.0778449 -2.2396e-17)
(-0.0234399 0.0786141 -8.94894e-18)
(-0.0653513 0.0702198 2.73642e-17)
(-0.02706 0.0244087 -1.67643e-17)
(-0.0280025 0.0253076 -1.94681e-17)
(-0.0289908 0.0262493 -2.11813e-17)
(-0.0300279 0.0272371 -2.16153e-17)
(-0.0311174 0.0282742 -2.06186e-17)
(-0.032263 0.0293642 -1.8132e-17)
(-0.033469 0.030511 -1.43444e-17)
(-0.0347399 0.031719 -1.03977e-17)
(-0.0360807 0.0329929 -6.97317e-18)
(-0.0374969 0.0343379 -4.82476e-18)
(-0.0389944 0.0357597 -4.04196e-18)
(-0.04058 0.0372646 -3.31155e-18)
(-0.0422611 0.0388596 -1.82582e-18)
(-0.0440457 0.0405525 -6.04411e-19)
(-0.045943 0.0423517 -6.19494e-19)
(-0.047963 0.0442668 -9.4039e-19)
(-0.0501169 0.0463084 -1.57008e-18)
(-0.0524173 0.0484885 -1.57653e-18)
(-0.0548782 0.0508203 2.07133e-18)
(-0.0575154 0.0533188 7.70921e-18)
(-0.0603468 0.0560009 1.30056e-17)
(-0.0633923 0.0588855 1.76061e-17)
(-0.0666747 0.0619942 1.74417e-17)
(-0.0702198 0.0653513 1.30239e-17)
(-0.0272321 0.0233679 -1.46681e-17)
(-0.0282074 0.0242015 -1.72711e-17)
(-0.0292296 0.0250751 -1.80509e-17)
(-0.0303019 0.0259916 -1.86937e-17)
(-0.031428 0.026954 -1.96888e-17)
(-0.0326117 0.0279657 -2.1193e-17)
(-0.0338574 0.0290303 -2.39781e-17)
(-0.0351698 0.0301519 -2.78738e-17)
(-0.0365539 0.0313347 -3.18855e-17)
(-0.0380155 0.0325838 -3.5498e-17)
(-0.0395608 0.0339042 -3.88194e-17)
(-0.0411966 0.035302 -4.18134e-17)
(-0.0429306 0.0367836 -4.47097e-17)
(-0.0447712 0.0383562 -4.8309e-17)
(-0.0467276 0.0400276 -5.17483e-17)
(-0.0488102 0.0418069 -5.42162e-17)
(-0.0510307 0.0437039 -5.51326e-17)
(-0.053402 0.0457296 -5.47867e-17)
(-0.0559386 0.0478963 -5.36539e-17)
(-0.0586568 0.0502181 -5.29173e-17)
(-0.061575 0.0527105 -5.08043e-17)
(-0.0647138 0.0553913 -4.71688e-17)
(-0.0680968 0.0582805 -4.84728e-17)
(-0.0717505 0.0614008 -5.33021e-17)
(-0.0280063 0.0216402 4.23593e-19)
(-0.0290095 0.0224106 -1.30074e-18)
(-0.0300609 0.0232179 -2.6485e-18)
(-0.0311638 0.0240648 -3.03045e-18)
(-0.0323219 0.024954 -2.84422e-18)
(-0.0335392 0.0258887 -3.36515e-18)
(-0.0348202 0.0268721 -4.50556e-18)
(-0.0361696 0.0279081 -5.94601e-18)
(-0.0375928 0.0290006 -7.69479e-18)
(-0.0390955 0.0301542 -9.56679e-18)
(-0.0406842 0.0313737 -1.15404e-17)
(-0.0423659 0.0326645 -1.28624e-17)
(-0.0441484 0.0340326 -1.29132e-17)
(-0.0460404 0.0354847 -1.12462e-17)
(-0.0480514 0.037028 -7.97114e-18)
(-0.0501921 0.0386708 -4.79295e-18)
(-0.0524744 0.0404223 -1.15234e-18)
(-0.0549116 0.0422924 2.7961e-18)
(-0.0575186 0.0442929 4.97808e-18)
(-0.0603123 0.0464364 6.53746e-18)
(-0.0633114 0.0487374 7.69628e-18)
(-0.0665373 0.0512124 8.88878e-18)
(-0.0700141 0.0538797 1.03978e-17)
(-0.0737693 0.0567606 1.10242e-17)
(-0.0287047 0.0199119 -2.18834e-17)
(-0.0297333 0.0206192 -2.12489e-17)
(-0.0308111 0.0213603 -2.0492e-17)
(-0.0319417 0.0221377 -2.04286e-17)
(-0.0331287 0.0229539 -2.1174e-17)
(-0.0343764 0.0238117 -2.20894e-17)
(-0.0356892 0.0247142 -2.18273e-17)
(-0.0370721 0.0256649 -2.0398e-17)
(-0.0385304 0.0266675 -1.88618e-17)
(-0.0400702 0.027726 -1.78641e-17)
(-0.0416979 0.0288449 -1.82111e-17)
(-0.0434209 0.0300292 -1.78525e-17)
(-0.045247 0.0312844 -1.63231e-17)
(-0.0471852 0.0326165 -1.58435e-17)
(-0.0492452 0.0340324 -1.66101e-17)
(-0.0514379 0.0355394 -1.77122e-17)
(-0.0537756 0.037146 -1.84271e-17)
(-0.0562719 0.0388615 -1.8448e-17)
(-0.0589421 0.0406964 -1.92491e-17)
(-0.0618033 0.0426626 -2.10067e-17)
(-0.0648748 0.0447732 -2.39833e-17)
(-0.0681786 0.0470434 -2.68893e-17)
(-0.0717393 0.04949 -2.74259e-17)
(-0.0755852 0.0521325 -2.55417e-17)
(-0.0293361 0.018179 9.10289e-18)
(-0.0303874 0.0188234 1.2515e-17)
(-0.0314889 0.0194986 1.44638e-17)
(-0.0326443 0.0202067 1.55869e-17)
(-0.0338572 0.0209502 1.66149e-17)
(-0.0351321 0.0217315 1.73898e-17)
(-0.0364734 0.0225535 1.76425e-17)
(-0.0378861 0.0234194 1.67789e-17)
(-0.0393759 0.0243324 1.50692e-17)
(-0.0409488 0.0252962 1.36385e-17)
(-0.0426114 0.0263151 1.31233e-17)
(-0.0443711 0.0273935 1.38926e-17)
(-0.0462362 0.0285363 1.45792e-17)
(-0.0482155 0.0297492 1.47373e-17)
(-0.0503191 0.0310382 1.46809e-17)
(-0.0525583 0.0324102 1.56864e-17)
(-0.0549453 0.0338728 1.74143e-17)
(-0.0574941 0.0354345 1.98498e-17)
(-0.0602204 0.0371049 2.21873e-17)
(-0.0631416 0.0388947 2.46289e-17)
(-0.0662776 0.040816 2.77273e-17)
(-0.0696505 0.0428825 3.09277e-17)
(-0.0732858 0.0451097 3.47616e-17)
(-0.0772122 0.0475152 3.9024e-17)
(-0.0299025 0.0164439 2.41417e-17)
(-0.030974 0.0170257 2.61575e-17)
(-0.0320966 0.0176352 2.78456e-17)
(-0.033274 0.0182744 2.97175e-17)
(-0.03451 0.0189455 3.23725e-17)
(-0.0358089 0.0196507 3.48007e-17)
(-0.0371755 0.0203926 3.68352e-17)
(-0.0386148 0.021174 3.88215e-17)
(-0.0401324 0.0219979 4.12471e-17)
(-0.0417346 0.0228678 4.35589e-17)
(-0.0434281 0.0237872 4.58162e-17)
(-0.0452204 0.0247602 4.8271e-17)
(-0.0471198 0.0257914 5.12064e-17)
(-0.0491356 0.0268857 5.44465e-17)
(-0.0512778 0.0280486 5.78604e-17)
(-0.0535579 0.0292864 6.00103e-17)
(-0.0559885 0.0306059 6.11032e-17)
(-0.0585838 0.0320148 6.21295e-17)
(-0.0613596 0.0335217 6.29447e-17)
(-0.0643339 0.0351362 6.35918e-17)
(-0.0675266 0.0368694 6.37046e-17)
(-0.0709607 0.0387335 6.31369e-17)
(-0.0746617 0.0407426 6.33255e-17)
(-0.0786592 0.0429125 6.47903e-17)
(-0.0304059 0.0147081 -3.20694e-18)
(-0.0314952 0.0152275 -4.08087e-18)
(-0.0326364 0.0157717 -5.53441e-18)
(-0.0338332 0.0163424 -7.31042e-18)
(-0.0350894 0.0169414 -8.88733e-18)
(-0.0364096 0.017571 -9.7028e-18)
(-0.0377983 0.0182332 -9.09142e-18)
(-0.0392609 0.0189307 -6.87111e-18)
(-0.040803 0.0196661 -3.76282e-18)
(-0.042431 0.0204424 -1.25052e-19)
(-0.0441516 0.0212629 4.32479e-18)
(-0.0459725 0.0221312 9.23225e-18)
(-0.0479021 0.0230514 1.3588e-17)
(-0.0499498 0.0240279 1.70654e-17)
(-0.0521259 0.0250657 1.97178e-17)
(-0.0544419 0.0261701 2.16142e-17)
(-0.0569107 0.0273474 2.38653e-17)
(-0.0595466 0.0286045 2.62848e-17)
(-0.0623659 0.0299489 2.84809e-17)
(-0.0653866 0.0313894 2.91794e-17)
(-0.0686291 0.0329357 2.86592e-17)
(-0.0721166 0.0345988 2.71157e-17)
(-0.0758753 0.0363912 2.49838e-17)
(-0.0799349 0.0383272 2.21354e-17)
(-0.0308482 0.0129727 -1.12177e-17)
(-0.031953 0.0134301 -1.04463e-17)
(-0.0331104 0.0139093 -1.00324e-17)
(-0.034324 0.0144118 -9.38556e-18)
(-0.035598 0.0149392 -9.19783e-18)
(-0.0369365 0.0154935 -9.67714e-18)
(-0.0383446 0.0160765 -1.00026e-17)
(-0.0398275 0.0166905 -1.07452e-17)
(-0.0413909 0.0173379 -1.1549e-17)
(-0.0430412 0.0180212 -1.09315e-17)
(-0.0447853 0.0187435 -9.43884e-18)
(-0.0466311 0.0195078 -8.04881e-18)
(-0.0485869 0.0203177 -7.15402e-18)
(-0.0506623 0.0211772 -6.39638e-18)
(-0.0528678 0.0220905 -5.28189e-18)
(-0.0552149 0.0230625 -3.05673e-18)
(-0.0577168 0.0240986 -5.09057e-19)
(-0.0603881 0.0252048 1.75415e-18)
(-0.063245 0.0263879 3.65037e-18)
(-0.0663059 0.0276555 5.3829e-18)
(-0.0695916 0.0290162 7.96172e-18)
(-0.0731254 0.0304797 1.07244e-17)
(-0.076934 0.032057 1.2373e-17)
(-0.0810475 0.0337605 1.2809e-17)
(-0.0312312 0.0112384 9.24856e-18)
(-0.0323494 0.0116341 1.01496e-17)
(-0.0335206 0.0120486 1.07783e-17)
(-0.0347488 0.0124832 1.08887e-17)
(-0.0360378 0.0129395 1.12588e-17)
(-0.0373922 0.0134188 1.18137e-17)
(-0.0388169 0.0139231 1.25379e-17)
(-0.0403171 0.0144541 1.28992e-17)
(-0.0418988 0.015014 1.31487e-17)
(-0.0435682 0.0156049 1.23163e-17)
(-0.0453325 0.0162295 1.07447e-17)
(-0.0471996 0.0168904 8.50367e-18)
(-0.0491779 0.0175908 5.91549e-18)
(-0.051277 0.0183339 2.67384e-18)
(-0.0535076 0.0191236 -6.627e-19)
(-0.0558814 0.019964 -3.35129e-18)
(-0.0584117 0.0208598 -6.38257e-18)
(-0.0611131 0.0218162 -9.36735e-18)
(-0.0640022 0.0228391 -1.24097e-17)
(-0.0670976 0.023935 -1.54526e-17)
(-0.0704201 0.0251113 -1.75933e-17)
(-0.0739936 0.0263765 -1.84329e-17)
(-0.0778449 0.0277401 -1.83305e-17)
(-0.0820045 0.0292128 -1.7847e-17)
(-0.0315564 0.00950553 5.38527e-18)
(-0.0326858 0.00983982 5.1271e-18)
(-0.0338688 0.01019 3.96226e-18)
(-0.0351092 0.0105571 2.23064e-18)
(-0.036411 0.0109425 8.70453e-19)
(-0.0377787 0.0113474 4.32367e-19)
(-0.0392174 0.0117733 5.68059e-19)
(-0.0407322 0.0122218 1.08624e-18)
(-0.0423292 0.0126946 1.47746e-18)
(-0.0440148 0.0131937 1.47074e-18)
(-0.0457961 0.0137211 8.97527e-19)
(-0.047681 0.0142792 -6.19888e-20)
(-0.0496782 0.0148706 -1.44935e-18)
(-0.0517973 0.0154981 -2.82039e-18)
(-0.0540491 0.0161649 -3.77792e-18)
(-0.0564453 0.0168746 -4.38259e-18)
(-0.0589994 0.0176309 -5.0852e-18)
(-0.0617262 0.0184384 -5.33727e-18)
(-0.0646424 0.0193021 -5.11369e-18)
(-0.0677666 0.0202273 -5.42305e-18)
(-0.0711202 0.0212205 -6.91573e-18)
(-0.074727 0.0222887 -9.00277e-18)
(-0.0786141 0.0234399 -1.09052e-17)
(-0.0828124 0.0246833 -1.28794e-17)
(-0.0318253 0.00777436 -3.08979e-17)
(-0.0329639 0.00804748 -3.07434e-17)
(-0.0341565 0.00833356 -3.0782e-17)
(-0.0354069 0.00863351 -3.02405e-17)
(-0.0367192 0.00894833 -2.946e-17)
(-0.0380979 0.0092791 -2.87841e-17)
(-0.039548 0.00962702 -2.88413e-17)
(-0.0410749 0.00999338 -2.8943e-17)
(-0.0426845 0.0103796 -2.89714e-17)
(-0.0443833 0.0107872 -2.88409e-17)
(-0.0461785 0.0112181 -2.8695e-17)
(-0.0480781 0.0116739 -2.84796e-17)
(-0.0500908 0.0121569 -2.81629e-17)
(-0.0522263 0.0126694 -2.65945e-17)
(-0.0544953 0.013214 -2.37952e-17)
(-0.05691 0.0137936 -2.03794e-17)
(-0.0594836 0.0144113 -1.73146e-17)
(-0.0622312 0.0150708 -1.41234e-17)
(-0.0651695 0.015776 -1.09853e-17)
(-0.0683175 0.0165317 -8.16713e-18)
(-0.0716964 0.0173427 -5.42354e-18)
(-0.0753304 0.018215 -3.45258e-18)
(-0.0792469 0.0191551 -3.03519e-18)
(-0.0834769 0.0201705 -2.98266e-18)
(-0.0320389 0.00604479 -1.19353e-17)
(-0.0331849 0.00625697 -1.36219e-17)
(-0.0343851 0.00647921 -1.48004e-17)
(-0.0356434 0.00671222 -1.46333e-17)
(-0.036964 0.00695678 -1.32752e-17)
(-0.0383514 0.00721372 -1.17038e-17)
(-0.0398105 0.00748397 -1.08227e-17)
(-0.0413469 0.00776854 -1.0393e-17)
(-0.0429664 0.00806853 -9.96074e-18)
(-0.0446757 0.00838516 -9.23714e-18)
(-0.0464819 0.00871976 -8.14869e-18)
(-0.0483931 0.00907382 -7.06943e-18)
(-0.050418 0.00944897 -6.09177e-18)
(-0.0525664 0.009847 -5.53864e-18)
(-0.0548491 0.0102699 -5.24968e-18)
(-0.0572783 0.01072 -4.97414e-18)
(-0.0598673 0.0111997 -4.05958e-18)
(-0.0626312 0.0117119 -2.324e-18)
(-0.065587 0.0122596 -3.04654e-19)
(-0.0687537 0.0128464 2.01851e-18)
(-0.0721527 0.0134762 4.29656e-18)
(-0.0758082 0.0141536 7.04401e-18)
(-0.0797478 0.0148837 9.475e-18)
(-0.0840028 0.0156722 1.10815e-17)
(-0.0321983 0.00431661 2.44781e-17)
(-0.0333497 0.00446803 2.42659e-17)
(-0.0345556 0.00462663 2.3222e-17)
(-0.0358198 0.00479292 2.18376e-17)
(-0.0371465 0.00496743 2.10043e-17)
(-0.0385403 0.00515079 2.11103e-17)
(-0.0400062 0.00534363 2.24309e-17)
(-0.0415496 0.00554669 2.40082e-17)
(-0.0431765 0.00576075 2.55282e-17)
(-0.0448936 0.00598667 2.67228e-17)
(-0.046708 0.00622542 2.74197e-17)
(-0.0486277 0.00647805 2.83269e-17)
(-0.0506617 0.00674572 2.9146e-17)
(-0.0528197 0.00702971 2.9196e-17)
(-0.0551126 0.00733148 2.86841e-17)
(-0.0575525 0.0076526 2.80908e-17)
(-0.0601529 0.00799486 2.78127e-17)
(-0.062929 0.00836025 2.75431e-17)
(-0.0658978 0.00875102 2.72866e-17)
(-0.0690783 0.00916966 2.71014e-17)
(-0.0724921 0.00961902 2.67911e-17)
(-0.0761636 0.0101023 2.62627e-17)
(-0.0801203 0.0106231 2.53775e-17)
(-0.0843938 0.0111857 2.40501e-17)
(-0.0323042 0.00258951 1.67183e-17)
(-0.0334592 0.00268031 1.93352e-17)
(-0.0346688 0.00277541 2.18278e-17)
(-0.0359369 0.00287512 2.34004e-17)
(-0.0372677 0.00297976 2.44193e-17)
(-0.0386658 0.0030897 2.51182e-17)
(-0.0401361 0.00320533 2.56664e-17)
(-0.0416842 0.00332708 2.56837e-17)
(-0.043316 0.00345543 2.50271e-17)
(-0.0450382 0.00359089 2.40993e-17)
(-0.046858 0.00373404 2.36693e-17)
(-0.0487834 0.0038855 2.37142e-17)
(-0.0508234 0.00404598 2.44645e-17)
(-0.0529877 0.00421625 2.57075e-17)
(-0.0552873 0.00439717 2.71094e-17)
(-0.0577343 0.0045897 2.79878e-17)
(-0.0603423 0.0047949 2.79344e-17)
(-0.0631264 0.00501396 2.70604e-17)
(-0.0661038 0.00524823 2.59499e-17)
(-0.0692935 0.00549922 2.49783e-17)
(-0.0727171 0.00576862 2.44527e-17)
(-0.0763991 0.00605835 2.403e-17)
(-0.0803672 0.0063706 2.31649e-17)
(-0.0846529 0.00670785 2.18832e-17)
(-0.032357 0.000863093 -1.28235e-17)
(-0.0335138 0.000893351 -1.2245e-17)
(-0.0347253 0.000925041 -1.01652e-17)
(-0.0359954 0.000958267 -7.66223e-18)
(-0.0373282 0.000993136 -5.51721e-18)
(-0.0387284 0.00102977 -4.3099e-18)
(-0.0402009 0.0010683 -4.30983e-18)
(-0.0417513 0.00110887 -5.12619e-18)
(-0.0433855 0.00115164 -6.71634e-18)
(-0.0451103 0.00119678 -8.37911e-18)
(-0.0469327 0.00124447 -9.59015e-18)
(-0.048861 0.00129494 -1.04598e-17)
(-0.050904 0.00134842 -1.07926e-17)
(-0.0530715 0.00140515 -1.05618e-17)
(-0.0553744 0.00146544 -9.82668e-18)
(-0.0578249 0.00152959 -8.8491e-18)
(-0.0604367 0.00159796 -7.87604e-18)
(-0.0632248 0.00167095 -6.77169e-18)
(-0.0662064 0.00174901 -5.18502e-18)
(-0.0694007 0.00183264 -3.2159e-18)
(-0.0728292 0.0019224 -9.82927e-19)
(-0.0765164 0.00201894 1.26922e-18)
(-0.0804902 0.00212298 1.54594e-18)
(-0.084782 0.00223535 2.88374e-20)
(-0.032357 -0.000863095 -6.80214e-19)
(-0.0335138 -0.000893352 -7.2722e-19)
(-0.0347253 -0.000925043 -4.44779e-19)
(-0.0359954 -0.000958268 4.63216e-19)
(-0.0373282 -0.000993138 1.54195e-18)
(-0.0387284 -0.00102977 2.60251e-18)
(-0.0402009 -0.0010683 3.6326e-18)
(-0.0417513 -0.00110887 5.13748e-18)
(-0.0433855 -0.00115164 6.85179e-18)
(-0.0451102 -0.00119678 8.6226e-18)
(-0.0469327 -0.00124447 1.0276e-17)
(-0.048861 -0.00129494 1.173e-17)
(-0.050904 -0.00134842 1.2557e-17)
(-0.0530715 -0.00140515 1.28694e-17)
(-0.0553744 -0.00146544 1.28051e-17)
(-0.0578249 -0.00152959 1.29491e-17)
(-0.0604367 -0.00159796 1.33527e-17)
(-0.0632248 -0.00167095 1.39888e-17)
(-0.0662064 -0.00174901 1.46843e-17)
(-0.0694007 -0.00183264 1.53479e-17)
(-0.0728292 -0.0019224 1.59682e-17)
(-0.0765164 -0.00201894 1.61989e-17)
(-0.0804902 -0.00212298 1.44318e-17)
(-0.084782 -0.00223535 1.11636e-17)
(-0.0323042 -0.00258951 -4.22183e-18)
(-0.0334592 -0.00268031 -6.55515e-18)
(-0.0346688 -0.00277542 -7.83256e-18)
(-0.0359369 -0.00287512 -8.42338e-18)
(-0.0372677 -0.00297976 -8.84636e-18)
(-0.0386658 -0.0030897 -9.27798e-18)
(-0.0401361 -0.00320533 -9.61224e-18)
(-0.0416842 -0.00332708 -9.62624e-18)
(-0.043316 -0.00345543 -9.33929e-18)
(-0.0450382 -0.00359089 -8.84488e-18)
(-0.046858 -0.00373404 -8.07325e-18)
(-0.0487834 -0.0038855 -7.05912e-18)
(-0.0508234 -0.00404598 -5.34233e-18)
(-0.0529877 -0.00421626 -3.30052e-18)
(-0.0552873 -0.00439718 -1.68291e-18)
(-0.0577343 -0.0045897 -5.97457e-19)
(-0.0603423 -0.0047949 4.75908e-19)
(-0.0631264 -0.00501396 1.60472e-18)
(-0.0661038 -0.00524823 2.76644e-18)
(-0.0692935 -0.00549922 3.8867e-18)
(-0.0727171 -0.00576862 5.07923e-18)
(-0.0763991 -0.00605835 6.5183e-18)
(-0.0803672 -0.0063706 6.90785e-18)
(-0.0846529 -0.00670785 6.34118e-18)
(-0.0321983 -0.00431661 1.45282e-17)
(-0.0333497 -0.00446803 1.14207e-17)
(-0.0345556 -0.00462663 9.9553e-18)
(-0.0358198 -0.00479292 9.80505e-18)
(-0.0371465 -0.00496743 9.96127e-18)
(-0.0385403 -0.00515079 9.95333e-18)
(-0.0400062 -0.00534363 9.80658e-18)
(-0.0415496 -0.00554669 9.20977e-18)
(-0.0431765 -0.00576075 8.18398e-18)
(-0.0448936 -0.00598667 6.09466e-18)
(-0.046708 -0.00622542 2.82402e-18)
(-0.0486277 -0.00647805 -5.56289e-19)
(-0.0506617 -0.00674572 -3.27245e-18)
(-0.0528197 -0.00702972 -5.01857e-18)
(-0.0551126 -0.00733148 -6.08782e-18)
(-0.0575525 -0.0076526 -6.45714e-18)
(-0.0601529 -0.00799486 -6.07405e-18)
(-0.062929 -0.00836026 -4.96103e-18)
(-0.0658978 -0.00875102 -3.00249e-18)
(-0.0690783 -0.00916966 -4.90782e-19)
(-0.0724921 -0.00961902 2.63063e-18)
(-0.0761636 -0.0101023 6.35702e-18)
(-0.0801203 -0.0106231 8.69728e-18)
(-0.0843938 -0.0111857 9.75865e-18)
(-0.0320389 -0.00604479 8.46015e-18)
(-0.0331849 -0.00625697 7.49036e-18)
(-0.0343851 -0.00647921 8.57961e-18)
(-0.0356434 -0.00671222 1.10734e-17)
(-0.036964 -0.00695678 1.36434e-17)
(-0.0383514 -0.00721372 1.57346e-17)
(-0.0398105 -0.00748397 1.6986e-17)
(-0.0413469 -0.00776854 1.74022e-17)
(-0.0429664 -0.00806853 1.77781e-17)
(-0.0446757 -0.00838516 1.80624e-17)
(-0.0464819 -0.00871976 1.83709e-17)
(-0.0483931 -0.00907382 1.84178e-17)
(-0.050418 -0.00944897 1.77234e-17)
(-0.0525664 -0.00984701 1.60807e-17)
(-0.0548491 -0.0102699 1.47589e-17)
(-0.0572783 -0.01072 1.40235e-17)
(-0.0598673 -0.0111998 1.37941e-17)
(-0.0626312 -0.0117119 1.393e-17)
(-0.065587 -0.0122596 1.42001e-17)
(-0.0687537 -0.0128464 1.41952e-17)
(-0.0721527 -0.0134762 1.37719e-17)
(-0.0758082 -0.0141537 1.35297e-17)
(-0.0797478 -0.0148837 1.21173e-17)
(-0.0840028 -0.0156722 1.00103e-17)
(-0.0251022 -0.00616219 -3.78577e-18)
(-0.0259477 -0.00636489 -6.16365e-18)
(-0.0268275 -0.00657584 -5.46929e-18)
(-0.0277439 -0.00679557 -3.09243e-18)
(-0.0286992 -0.00702465 -6.91531e-19)
(-0.029696 -0.00726369 8.64851e-19)
(-0.030737 -0.00751335 1.81711e-18)
(-0.0318253 -0.00777436 2.52456e-18)
(-0.0329639 -0.00804748 3.4222e-18)
(-0.0341566 -0.00833356 4.2879e-18)
(-0.0354069 -0.00863351 4.66341e-18)
(-0.0367192 -0.00894833 4.73656e-18)
(-0.0380979 -0.0092791 4.84505e-18)
(-0.039548 -0.00962702 4.67352e-18)
(-0.0410749 -0.00999337 3.85428e-18)
(-0.0426845 -0.0103796 2.73175e-18)
(-0.0443833 -0.0107872 2.04399e-18)
(-0.0461785 -0.0112181 1.99026e-18)
(-0.0480781 -0.0116739 2.31579e-18)
(-0.0500908 -0.0121569 2.84618e-18)
(-0.0522263 -0.0126694 3.57525e-18)
(-0.0544953 -0.013214 4.3216e-18)
(-0.05691 -0.0137936 4.52813e-18)
(-0.0594836 -0.0144113 4.198e-18)
(-0.0622312 -0.0150708 3.86635e-18)
(-0.0651695 -0.015776 3.65859e-18)
(-0.0683175 -0.0165317 3.49226e-18)
(-0.0716964 -0.0173427 3.47453e-18)
(-0.0753305 -0.018215 3.32765e-18)
(-0.0792469 -0.0191551 1.00398e-19)
(-0.0834769 -0.0201705 -4.87057e-18)
(-0.0248893 -0.00753263 2.34591e-17)
(-0.0257276 -0.00778065 2.05095e-17)
(-0.0266 -0.00803878 1.81418e-17)
(-0.0275087 -0.00830766 1.69433e-17)
(-0.0284561 -0.008588 1.60679e-17)
(-0.0294446 -0.00888054 1.5544e-17)
(-0.0304771 -0.00918609 1.47825e-17)
(-0.0315564 -0.00950553 1.33746e-17)
(-0.0326858 -0.00983982 1.19825e-17)
(-0.0338688 -0.01019 1.03455e-17)
(-0.0351092 -0.0105571 8.33026e-18)
(-0.036411 -0.0109425 5.95935e-18)
(-0.0377787 -0.0113474 3.36572e-18)
(-0.0392174 -0.0117733 9.76896e-19)
(-0.0407322 -0.0122218 -7.51983e-19)
(-0.0423292 -0.0126946 -2.11861e-18)
(-0.0440148 -0.0131937 -3.90206e-18)
(-0.0457961 -0.0137211 -6.34981e-18)
(-0.047681 -0.0142792 -9.04538e-18)
(-0.0496782 -0.0148706 -1.20046e-17)
(-0.0517973 -0.0154981 -1.47063e-17)
(-0.0540491 -0.0161649 -1.81741e-17)
(-0.0564453 -0.0168746 -2.25004e-17)
(-0.0589994 -0.0176309 -2.69647e-17)
(-0.0617262 -0.0184384 -3.13664e-17)
(-0.0646424 -0.0193021 -3.49446e-17)
(-0.0677666 -0.0202273 -3.69647e-17)
(-0.0711202 -0.0212205 -3.78395e-17)
(-0.074727 -0.0222887 -3.83008e-17)
(-0.0786141 -0.0234399 -4.11343e-17)
(-0.0828124 -0.0246833 -4.66252e-17)
(-0.0246319 -0.00890336 2.38917e-18)
(-0.0254615 -0.00919685 4.4163e-19)
(-0.0263249 -0.00950232 -4.95533e-19)
(-0.0272243 -0.00982053 -1.16639e-18)
(-0.028162 -0.0101523 -2.41739e-18)
(-0.0291406 -0.0104986 -3.1928e-18)
(-0.0301626 -0.0108602 -4.06886e-18)
(-0.0312312 -0.0112384 -5.4277e-18)
(-0.0323494 -0.0116341 -6.56952e-18)
(-0.0335206 -0.0120486 -7.43572e-18)
(-0.0347488 -0.0124832 -7.79093e-18)
(-0.0360378 -0.0129395 -7.34824e-18)
(-0.0373922 -0.0134188 -6.06461e-18)
(-0.0388169 -0.0139231 -4.41135e-18)
(-0.0403171 -0.0144541 -2.7241e-18)
(-0.0418988 -0.015014 -1.33402e-18)
(-0.0435682 -0.0156049 -3.2277e-19)
(-0.0453325 -0.0162295 4.8917e-19)
(-0.0471996 -0.0168904 7.86424e-19)
(-0.0491779 -0.0175908 6.25219e-19)
(-0.051277 -0.0183339 -9.88508e-20)
(-0.0535076 -0.0191236 -3.02147e-19)
(-0.0558814 -0.019964 3.81508e-19)
(-0.0584117 -0.0208598 1.1078e-18)
(-0.0611131 -0.0218162 1.23648e-18)
(-0.0640022 -0.0228391 2.74836e-19)
(-0.0670976 -0.023935 -3.29996e-20)
(-0.0704202 -0.0251113 9.33436e-19)
(-0.0739936 -0.0263765 2.18087e-18)
(-0.0778449 -0.0277401 5.09943e-19)
(-0.0820045 -0.0292128 -3.61525e-18)
(-0.0243294 -0.0102741 -8.13744e-18)
(-0.0251487 -0.0106132 -9.11541e-18)
(-0.0260014 -0.0109662 -8.77189e-18)
(-0.0268898 -0.0113339 -7.6216e-18)
(-0.0278161 -0.0117174 -6.26314e-18)
(-0.0287827 -0.0121176 -4.04016e-18)
(-0.0297925 -0.0125356 -1.62224e-18)
(-0.0308482 -0.0129727 3.65647e-19)
(-0.031953 -0.0134301 1.68384e-18)
(-0.0331104 -0.0139093 2.92149e-18)
(-0.0343241 -0.0144118 4.68733e-18)
(-0.035598 -0.0149392 6.49577e-18)
(-0.0369366 -0.0154935 8.00278e-18)
(-0.0383446 -0.0160765 9.32596e-18)
(-0.0398275 -0.0166905 1.05227e-17)
(-0.0413909 -0.0173379 1.1835e-17)
(-0.0430412 -0.0180212 1.38059e-17)
(-0.0447853 -0.0187435 1.59615e-17)
(-0.0466311 -0.0195078 1.80138e-17)
(-0.0485869 -0.0203177 2.00113e-17)
(-0.0506623 -0.0211772 2.20941e-17)
(-0.0528678 -0.0220905 2.43512e-17)
(-0.0552149 -0.0230625 2.76076e-17)
(-0.0577168 -0.0240986 3.14405e-17)
(-0.0603881 -0.0252048 3.54412e-17)
(-0.063245 -0.0263879 3.85172e-17)
(-0.0663059 -0.0276555 4.11323e-17)
(-0.0695916 -0.0290162 4.37907e-17)
(-0.0731254 -0.0304797 4.62643e-17)
(-0.076934 -0.032057 4.59317e-17)
(-0.0810475 -0.0337605 4.31294e-17)
(-0.0239805 -0.0116443 3.87979e-18)
(-0.0247878 -0.0120293 8.01821e-19)
(-0.0256282 -0.01243 -2.46397e-18)
(-0.0265038 -0.0128475 -5.50417e-18)
(-0.0274168 -0.0132828 -8.3179e-18)
(-0.0283696 -0.0137371 -1.04185e-17)
(-0.0293651 -0.0142118 -1.15575e-17)
(-0.0304059 -0.0147081 -1.18258e-17)
(-0.0314952 -0.0152275 -1.25597e-17)
(-0.0326364 -0.0157717 -1.40334e-17)