/*--------------------------------*- C++ -*----------------------------------*\
  =========                 |
  \\      /  F ield         | OpenFOAM: The Open Source CFD Toolbox
   \\    /   O peration     | Website:  https://openfoam.org
    \\  /    A nd           | Version:  7
     \\/     M anipulation  |
\*---------------------------------------------------------------------------*/
FoamFile
{
    version     2.0;
    format      ascii;
    class       volScalarField;
    location    "4000";
    object      nu;
}
// * * * * * * * * * * * * * * * * * * * * * * * * * * * * * * * * * * * * * //

dimensions      [0 2 -1 0 0 0 0];

internalField   nonuniform List<scalar> 
4782
(
2.28097e-06
2.24795e-06
2.2152e-06
2.18272e-06
2.1505e-06
2.11853e-06
2.08682e-06
2.05537e-06
2.02416e-06
1.9932e-06
4.12226e-06
4.0705e-06
4.0194e-06
3.96893e-06
3.91907e-06
3.86982e-06
3.82115e-06
3.77306e-06
3.72553e-06
3.67855e-06
3.63211e-06
3.58618e-06
3.54077e-06
3.49587e-06
3.45145e-06
3.40751e-06
3.36405e-06
3.32105e-06
3.27849e-06
3.23639e-06
3.19471e-06
3.15346e-06
3.11263e-06
3.0722e-06
3.03218e-06
2.99255e-06
2.95331e-06
2.91444e-06
2.87595e-06
2.83782e-06
2.80005e-06
2.76264e-06
2.72557e-06
2.68884e-06
2.65244e-06
2.61637e-06
2.58062e-06
2.54519e-06
2.51007e-06
2.47525e-06
2.44073e-06
2.40651e-06
2.37258e-06
2.33893e-06
2.30557e-06
2.27248e-06
2.23966e-06
2.2071e-06
2.17482e-06
2.14279e-06
2.11102e-06
2.0795e-06
2.04823e-06
2.01721e-06
1.98643e-06
4.1014e-06
4.05003e-06
3.99929e-06
3.94918e-06
3.89968e-06
3.85077e-06
3.80244e-06
3.75468e-06
3.70748e-06
3.66082e-06
3.61469e-06
3.56908e-06
3.52398e-06
3.47937e-06
3.43525e-06
3.3916e-06
3.34842e-06
3.3057e-06
3.26343e-06
3.22159e-06
3.18019e-06
3.1392e-06
3.09863e-06
3.05847e-06
3.0187e-06
2.97932e-06
2.94033e-06
2.90171e-06
2.86347e-06
2.82558e-06
2.78805e-06
2.75087e-06
2.71403e-06
2.67753e-06
2.64136e-06
2.60552e-06
2.56999e-06
2.53478e-06
2.49987e-06
2.46527e-06
2.43097e-06
2.39696e-06
2.36323e-06
2.32979e-06
2.29663e-06
2.26375e-06
2.23113e-06
2.19878e-06
2.16669e-06
2.13486e-06
2.10328e-06
2.07196e-06
2.04089e-06
2.01006e-06
1.97948e-06
4.08014e-06
4.02915e-06
3.97878e-06
3.92904e-06
3.8799e-06
3.83134e-06
3.78336e-06
3.73593e-06
3.68906e-06
3.64272e-06
3.59691e-06
3.55161e-06
3.50682e-06
3.46252e-06
3.4187e-06
3.37534e-06
3.33245e-06
3.29002e-06
3.24803e-06
3.20647e-06
3.16534e-06
3.12462e-06
3.08432e-06
3.04442e-06
3.00491e-06
2.96579e-06
2.92705e-06
2.88869e-06
2.85069e-06
2.81305e-06
2.77576e-06
2.73882e-06
2.70221e-06
2.66595e-06
2.63001e-06
2.59439e-06
2.55909e-06
2.52411e-06
2.48942e-06
2.45504e-06
2.42096e-06
2.38717e-06
2.35366e-06
2.32043e-06
2.28748e-06
2.2548e-06
2.22239e-06
2.19025e-06
2.15836e-06
2.12674e-06
2.09536e-06
2.06424e-06
2.03336e-06
2.00273e-06
1.97235e-06
4.0563e-06
4.00581e-06
3.95593e-06
3.90665e-06
3.85796e-06
3.80985e-06
3.7623e-06
3.7153e-06
3.66884e-06
3.62291e-06
3.5775e-06
3.53258e-06
3.48816e-06
3.44423e-06
3.40077e-06
3.35777e-06
3.31522e-06
3.27313e-06
3.23147e-06
3.19023e-06
3.14942e-06
3.10902e-06
3.06903e-06
3.02943e-06
2.99022e-06
2.95139e-06
2.91294e-06
2.87486e-06
2.83713e-06
2.79977e-06
2.76275e-06
2.72607e-06
2.68974e-06
2.65373e-06
2.61805e-06
2.58268e-06
2.54763e-06
2.51289e-06
2.47845e-06
2.44431e-06
2.41046e-06
2.3769e-06
2.34363e-06
2.31063e-06
2.27791e-06
2.24545e-06
2.21327e-06
2.18134e-06
2.14967e-06
2.11826e-06
2.0871e-06
2.05619e-06
2.02553e-06
1.99511e-06
1.96494e-06
4.0563e-06
4.0058e-06
3.95592e-06
3.90664e-06
3.85795e-06
3.80984e-06
3.76229e-06
3.7153e-06
3.66884e-06
3.62291e-06
3.57749e-06
3.53258e-06
3.48816e-06
3.44422e-06
3.40076e-06
3.35777e-06
3.31522e-06
3.27313e-06
3.23146e-06
3.19023e-06
3.14942e-06
3.10902e-06
3.06903e-06
3.02943e-06
2.99022e-06
2.95139e-06
2.91294e-06
2.87486e-06
2.83713e-06
2.79977e-06
2.76275e-06
2.72607e-06
2.68973e-06
2.65372e-06
2.61804e-06
2.58267e-06
2.54762e-06
2.51288e-06
2.47844e-06
2.4443e-06
2.41046e-06
2.3769e-06
2.34362e-06
2.31062e-06
2.2779e-06
2.24545e-06
2.21326e-06
2.18134e-06
2.14967e-06
2.11826e-06
2.0871e-06
2.05619e-06
2.02553e-06
1.99511e-06
1.96494e-06
4.08013e-06
4.02914e-06
3.97877e-06
3.92902e-06
3.87988e-06
3.83132e-06
3.78334e-06
3.73592e-06
3.68905e-06
3.64271e-06
3.5969e-06
3.5516e-06
3.50681e-06
3.4625e-06
3.41868e-06
3.37533e-06
3.33245e-06
3.29001e-06
3.24802e-06
3.20646e-06
3.16533e-06
3.12461e-06
3.08431e-06
3.04441e-06
3.00491e-06
2.96579e-06
2.92705e-06
2.88868e-06
2.85068e-06
2.81304e-06
2.77575e-06
2.73881e-06
2.7022e-06
2.66594e-06
2.63e-06
2.59438e-06
2.55908e-06
2.52409e-06
2.48941e-06
2.45503e-06
2.42095e-06
2.38716e-06
2.35365e-06
2.32042e-06
2.28747e-06
2.2548e-06
2.22239e-06
2.19024e-06
2.15836e-06
2.12673e-06
2.09536e-06
2.06424e-06
2.03336e-06
2.00273e-06
1.97235e-06
1.94221e-06
1.91231e-06
1.88265e-06
1.85325e-06
4.10139e-06
4.05001e-06
3.99928e-06
3.94917e-06
3.89966e-06
3.85075e-06
3.80243e-06
3.75467e-06
3.70746e-06
3.6608e-06
3.61467e-06
3.56906e-06
3.52396e-06
3.47935e-06
3.43523e-06
3.39159e-06
3.34841e-06
3.30569e-06
3.26341e-06
3.22157e-06
3.18017e-06
3.13918e-06
3.09861e-06
3.05845e-06
3.01868e-06
2.97931e-06
2.94031e-06
2.9017e-06
2.86345e-06
2.82556e-06
2.78803e-06
2.75085e-06
2.71401e-06
2.67751e-06
2.64134e-06
2.6055e-06
2.56997e-06
2.53476e-06
2.49986e-06
2.46526e-06
2.43096e-06
2.39695e-06
2.36323e-06
2.32979e-06
2.29663e-06
2.26375e-06
2.23113e-06
2.19878e-06
2.16669e-06
2.13486e-06
2.10329e-06
2.07196e-06
2.04089e-06
2.01006e-06
1.97948e-06
1.94914e-06
1.91905e-06
1.8892e-06
1.85959e-06
1.83024e-06
4.12223e-06
4.07048e-06
4.01938e-06
3.96891e-06
3.91905e-06
3.8698e-06
3.82114e-06
3.77304e-06
3.72551e-06
3.67853e-06
3.63209e-06
3.58616e-06
3.54075e-06
3.49585e-06
3.45143e-06
3.40749e-06
3.36403e-06
3.32102e-06
3.27847e-06
3.23636e-06
3.19468e-06
3.15343e-06
3.1126e-06
3.07218e-06
3.03215e-06
2.99252e-06
2.95328e-06
2.91442e-06
2.87593e-06
2.8378e-06
2.80003e-06
2.76262e-06
2.72555e-06
2.68882e-06
2.65243e-06
2.61636e-06
2.58061e-06
2.54518e-06
2.51006e-06
2.47524e-06
2.44073e-06
2.40651e-06
2.37257e-06
2.33893e-06
2.30556e-06
2.27247e-06
2.23966e-06
2.2071e-06
2.17482e-06
2.14279e-06
2.11102e-06
2.0795e-06
2.04823e-06
2.01721e-06
1.98643e-06
1.9559e-06
1.92562e-06
1.89558e-06
1.86578e-06
1.83623e-06
1.80694e-06
1.77791e-06
1.74914e-06
1.72065e-06
1.69246e-06
1.66458e-06
1.63703e-06
1.60986e-06
1.58309e-06
1.55679e-06
1.531e-06
1.50582e-06
1.48133e-06
1.45765e-06
1.43493e-06
1.41331e-06
1.39298e-06
1.37414e-06
1.35696e-06
1.34163e-06
1.32828e-06
1.31696e-06
1.30767e-06
1.30027e-06
1.29457e-06
1.29029e-06
1.28714e-06
1.28483e-06
1.2831e-06
1.28175e-06
1.28063e-06
1.27965e-06
1.27876e-06
1.27795e-06
1.27723e-06
4.14259e-06
4.09047e-06
4.03901e-06
3.98818e-06
3.93798e-06
3.88839e-06
3.83939e-06
3.79097e-06
3.74312e-06
3.69582e-06
3.64907e-06
3.60284e-06
3.55713e-06
3.51193e-06
3.46722e-06
3.423e-06
3.37925e-06
3.33597e-06
3.29315e-06
3.25077e-06
3.20883e-06
3.16732e-06
3.12623e-06
3.08555e-06
3.04528e-06
3.0054e-06
2.96591e-06
2.92681e-06
2.88808e-06
2.84972e-06
2.81172e-06
2.77407e-06
2.73678e-06
2.69982e-06
2.6632e-06
2.62692e-06
2.59095e-06
2.5553e-06
2.51997e-06
2.48495e-06
2.45022e-06
2.4158e-06
2.38166e-06
2.34781e-06
2.31425e-06
2.28096e-06
2.24794e-06
2.2152e-06
2.18272e-06
2.1505e-06
2.11853e-06
2.08682e-06
2.05537e-06
2.02416e-06
1.9932e-06
1.96248e-06
1.93201e-06
1.90178e-06
1.8718e-06
1.84207e-06
1.8126e-06
1.78338e-06
1.75442e-06
1.72575e-06
1.69736e-06
1.66929e-06
1.64155e-06
1.61418e-06
1.58721e-06
1.5607e-06
1.5347e-06
1.5093e-06
1.48458e-06
1.46067e-06
1.43769e-06
1.41582e-06
1.39522e-06
1.3761e-06
1.35865e-06
1.34305e-06
1.32944e-06
1.31789e-06
1.30839e-06
1.30081e-06
1.29497e-06
1.29059e-06
1.28737e-06
1.285e-06
1.28324e-06
1.28187e-06
1.28074e-06
1.27975e-06
1.27886e-06
1.27804e-06
1.27731e-06
4.16238e-06
4.1099e-06
4.05809e-06
4.00691e-06
3.95637e-06
3.90645e-06
3.85713e-06
3.80839e-06
3.76022e-06
3.71262e-06
3.66556e-06
3.61904e-06
3.57303e-06
3.52754e-06
3.48256e-06
3.43806e-06
3.39404e-06
3.35049e-06
3.3074e-06
3.26476e-06
3.22256e-06
3.1808e-06
3.13946e-06
3.09854e-06
3.05802e-06
3.0179e-06
2.97818e-06
2.93884e-06
2.89988e-06
2.86129e-06
2.82306e-06
2.78519e-06
2.74767e-06
2.7105e-06
2.67366e-06
2.63716e-06
2.60098e-06
2.56513e-06
2.52959e-06
2.49436e-06
2.45943e-06
2.42481e-06
2.39047e-06
2.35643e-06
2.32267e-06
2.28919e-06
2.25598e-06
2.22304e-06
2.19037e-06
2.15797e-06
2.12582e-06
2.09392e-06
2.06228e-06
2.03089e-06
1.99975e-06
1.96886e-06
1.93821e-06
1.9078e-06
1.87765e-06
1.84774e-06
1.81808e-06
1.78868e-06
1.75955e-06
1.73069e-06
1.70213e-06
1.67387e-06
1.64594e-06
1.61838e-06
1.59122e-06
1.56451e-06
1.5383e-06
1.51268e-06
1.48775e-06
1.4636e-06
1.44039e-06
1.41826e-06
1.39741e-06
1.37803e-06
1.36031e-06
1.34445e-06
1.33059e-06
1.31881e-06
1.3091e-06
1.30135e-06
1.29537e-06
1.29088e-06
1.28759e-06
1.28518e-06
1.28338e-06
1.28199e-06
1.28085e-06
1.27985e-06
1.27895e-06
1.27813e-06
1.27739e-06
4.18157e-06
4.12873e-06
4.07657e-06
4.02507e-06
3.9742e-06
3.92395e-06
3.8743e-06
3.82525e-06
3.77678e-06
3.72888e-06
3.68153e-06
3.63471e-06
3.58843e-06
3.54266e-06
3.49739e-06
3.45262e-06
3.40834e-06
3.36453e-06
3.32118e-06
3.27829e-06
3.23584e-06
3.19383e-06
3.15225e-06
3.11108e-06
3.07033e-06
3.02998e-06
2.99002e-06
2.95046e-06
2.91127e-06
2.87246e-06
2.83402e-06
2.79593e-06
2.7582e-06
2.72082e-06
2.68377e-06
2.64707e-06
2.61069e-06
2.57463e-06
2.53889e-06
2.50346e-06
2.46834e-06
2.43352e-06
2.39899e-06
2.36476e-06
2.33081e-06
2.29714e-06
2.26375e-06
2.23063e-06
2.19778e-06
2.16519e-06
2.13286e-06
2.10079e-06
2.06897e-06
2.03741e-06
2.00609e-06
1.97502e-06
1.9442e-06
1.91362e-06
1.8833e-06
1.85322e-06
1.82339e-06
1.79382e-06
1.76451e-06
1.73548e-06
1.70674e-06
1.6783e-06
1.65019e-06
1.62245e-06
1.5951e-06
1.56819e-06
1.54179e-06
1.51597e-06
1.49082e-06
1.46645e-06
1.44301e-06
1.42064e-06
1.39954e-06
1.3799e-06
1.36193e-06
1.34582e-06
1.33171e-06
1.3197e-06
1.30979e-06
1.30187e-06
1.29576e-06
1.29117e-06
1.2878e-06
1.28534e-06
1.28352e-06
1.28211e-06
1.28095e-06
1.27995e-06
1.27904e-06
1.27821e-06
1.27746e-06
4.20006e-06
4.14689e-06
4.0944e-06
4.04257e-06
3.99138e-06
3.94082e-06
3.89087e-06
3.84152e-06
3.79275e-06
3.74456e-06
3.69692e-06
3.64983e-06
3.60326e-06
3.55722e-06
3.51169e-06
3.46666e-06
3.42212e-06
3.37806e-06
3.33446e-06
3.29132e-06
3.24863e-06
3.20638e-06
3.16456e-06
3.12316e-06
3.08218e-06
3.04161e-06
3.00143e-06
2.96165e-06
2.92224e-06
2.88322e-06
2.84456e-06
2.80627e-06
2.76834e-06
2.73075e-06
2.69351e-06
2.6566e-06
2.62002e-06
2.58377e-06
2.54784e-06
2.51222e-06
2.47691e-06
2.44191e-06
2.4072e-06
2.37278e-06
2.33865e-06
2.3048e-06
2.27123e-06
2.23793e-06
2.20491e-06
2.17215e-06
2.13965e-06
2.1074e-06
2.07542e-06
2.04368e-06
2.0122e-06
1.98096e-06
1.94997e-06
1.91923e-06
1.88874e-06
1.85849e-06
1.8285e-06
1.79876e-06
1.76929e-06
1.74009e-06
1.71118e-06
1.68257e-06
1.65429e-06
1.62637e-06
1.59884e-06
1.57175e-06
1.54516e-06
1.51914e-06
1.49378e-06
1.4692e-06
1.44554e-06
1.42295e-06
1.40161e-06
1.38173e-06
1.36351e-06
1.34715e-06
1.3328e-06
1.32057e-06
1.31047e-06
1.30239e-06
1.29614e-06
1.29145e-06
1.28801e-06
1.28551e-06
1.28365e-06
1.28222e-06
1.28105e-06
1.28004e-06
1.27912e-06
1.27829e-06
1.27754e-06
4.21784e-06
4.16434e-06
4.11152e-06
4.05937e-06
4.00787e-06
3.95701e-06
3.90676e-06
3.85713e-06
3.80808e-06
3.7596e-06
3.71169e-06
3.66433e-06
3.61751e-06
3.57121e-06
3.52542e-06
3.48014e-06
3.43535e-06
3.39104e-06
3.3472e-06
3.30382e-06
3.2609e-06
3.21842e-06
3.17638e-06
3.13476e-06
3.09356e-06
3.05276e-06
3.01237e-06
2.97238e-06
2.93277e-06
2.89354e-06
2.85468e-06
2.81619e-06
2.77805e-06
2.74027e-06
2.70284e-06
2.66574e-06
2.62897e-06
2.59254e-06
2.55642e-06
2.52062e-06
2.48513e-06
2.44995e-06
2.41506e-06
2.38047e-06
2.34616e-06
2.31214e-06
2.2784e-06
2.24494e-06
2.21175e-06
2.17882e-06
2.14615e-06
2.11375e-06
2.0816e-06
2.0497e-06
2.01806e-06
1.98666e-06
1.95551e-06
1.92461e-06
1.89396e-06
1.86355e-06
1.8334e-06
1.80351e-06
1.77387e-06
1.74452e-06
1.71544e-06
1.68667e-06
1.65823e-06
1.63014e-06
1.60243e-06
1.57517e-06
1.54839e-06
1.52219e-06
1.49664e-06
1.47186e-06
1.44798e-06
1.42517e-06
1.4036e-06
1.38349e-06
1.36503e-06
1.34843e-06
1.33386e-06
1.32142e-06
1.31113e-06
1.30288e-06
1.29651e-06
1.29172e-06
1.28821e-06
1.28566e-06
1.28378e-06
1.28233e-06
1.28115e-06
1.28013e-06
1.2792e-06
1.27836e-06
1.27761e-06
4.23484e-06
4.18102e-06
4.12789e-06
4.07544e-06
4.02365e-06
3.97249e-06
3.92196e-06
3.87205e-06
3.82272e-06
3.77398e-06
3.72581e-06
3.67819e-06
3.63111e-06
3.58456e-06
3.53853e-06
3.493e-06
3.44797e-06
3.40343e-06
3.35936e-06
3.31576e-06
3.27262e-06
3.22992e-06
3.18765e-06
3.14582e-06
3.10441e-06
3.06341e-06
3.02282e-06
2.98262e-06
2.94281e-06
2.90339e-06
2.86434e-06
2.82565e-06
2.78733e-06
2.74936e-06
2.71174e-06
2.67446e-06
2.63752e-06
2.60091e-06
2.56462e-06
2.52864e-06
2.49298e-06
2.45762e-06
2.42257e-06
2.38781e-06
2.35334e-06
2.31916e-06
2.28526e-06
2.25163e-06
2.21828e-06
2.1852e-06
2.15237e-06
2.11981e-06
2.08751e-06
2.05546e-06
2.02366e-06
1.99211e-06
1.96081e-06
1.92976e-06
1.89895e-06
1.86839e-06
1.83809e-06
1.80804e-06
1.77826e-06
1.74875e-06
1.71952e-06
1.69059e-06
1.66199e-06
1.63374e-06
1.60587e-06
1.57843e-06
1.55149e-06
1.5251e-06
1.49937e-06
1.4744e-06
1.45032e-06
1.4273e-06
1.40552e-06
1.38518e-06
1.36649e-06
1.34967e-06
1.33488e-06
1.32224e-06
1.31176e-06
1.30336e-06
1.29686e-06
1.29198e-06
1.28841e-06
1.28581e-06
1.2839e-06
1.28243e-06
1.28124e-06
1.28021e-06
1.27928e-06
1.27843e-06
1.27768e-06
4.25102e-06
4.19689e-06
4.14347e-06
4.09073e-06
4.03865e-06
3.98722e-06
3.93642e-06
3.88623e-06
3.83665e-06
3.78765e-06
3.73922e-06
3.69136e-06
3.64404e-06
3.59725e-06
3.55098e-06
3.50523e-06
3.45998e-06
3.41521e-06
3.37093e-06
3.32711e-06
3.28375e-06
3.24085e-06
3.19838e-06
3.15635e-06
3.11474e-06
3.07354e-06
3.03275e-06
2.99236e-06
2.95236e-06
2.91275e-06
2.87352e-06
2.83465e-06
2.79615e-06
2.758e-06
2.72021e-06
2.68276e-06
2.64564e-06
2.60886e-06
2.5724e-06
2.53626e-06
2.50044e-06
2.46492e-06
2.42971e-06
2.39479e-06
2.36016e-06
2.32583e-06
2.29177e-06
2.25799e-06
2.22449e-06
2.19125e-06
2.15828e-06
2.12557e-06
2.09312e-06
2.06092e-06
2.02898e-06
1.99728e-06
1.96584e-06
1.93464e-06
1.90369e-06
1.87299e-06
1.84254e-06
1.81235e-06
1.78242e-06
1.75276e-06
1.72339e-06
1.69432e-06
1.66556e-06
1.63716e-06
1.60914e-06
1.58154e-06
1.55443e-06
1.52788e-06
1.50197e-06
1.47682e-06
1.45255e-06
1.42933e-06
1.40734e-06
1.38679e-06
1.36789e-06
1.35086e-06
1.33586e-06
1.32302e-06
1.31237e-06
1.30383e-06
1.29721e-06
1.29224e-06
1.2886e-06
1.28595e-06
1.28401e-06
1.28253e-06
1.28133e-06
1.28029e-06
1.27935e-06
1.2785e-06
1.27774e-06
4.26632e-06
4.21191e-06
4.15821e-06
4.10519e-06
4.05284e-06
4.00115e-06
3.95009e-06
3.89965e-06
3.84982e-06
3.80058e-06
3.75191e-06
3.70381e-06
3.65626e-06
3.60925e-06
3.56277e-06
3.5168e-06
3.47133e-06
3.42635e-06
3.38186e-06
3.33784e-06
3.29428e-06
3.25117e-06
3.20851e-06
3.16629e-06
3.12449e-06
3.08311e-06
3.04214e-06
3.00156e-06
2.96139e-06
2.9216e-06
2.88219e-06
2.84315e-06
2.80448e-06
2.76617e-06
2.72821e-06
2.6906e-06
2.65332e-06
2.61638e-06
2.57976e-06
2.54347e-06
2.50749e-06
2.47182e-06
2.43645e-06
2.40138e-06
2.36661e-06
2.33212e-06
2.29792e-06
2.264e-06
2.23035e-06
2.19697e-06
2.16386e-06
2.13101e-06
2.09842e-06
2.06609e-06
2.034e-06
2.00217e-06
1.97059e-06
1.93926e-06
1.90817e-06
1.87733e-06
1.84675e-06
1.81642e-06
1.78636e-06
1.75656e-06
1.72705e-06
1.69784e-06
1.66894e-06
1.64039e-06
1.61223e-06
1.58448e-06
1.55722e-06
1.53051e-06
1.50444e-06
1.47911e-06
1.45467e-06
1.43126e-06
1.40908e-06
1.38833e-06
1.36923e-06
1.35199e-06
1.3368e-06
1.32377e-06
1.31296e-06
1.30427e-06
1.29753e-06
1.29248e-06
1.28877e-06
1.28609e-06
1.28412e-06
1.28263e-06
1.28141e-06
1.28036e-06
1.27942e-06
1.27857e-06
1.2778e-06
4.28071e-06
4.22603e-06
4.17207e-06
4.11879e-06
4.06619e-06
4.01424e-06
3.96294e-06
3.91226e-06
3.8622e-06
3.81272e-06
3.76383e-06
3.71551e-06
3.66775e-06
3.62052e-06
3.57383e-06
3.52765e-06
3.48198e-06
3.43681e-06
3.39212e-06
3.34791e-06
3.30417e-06
3.26087e-06
3.21803e-06
3.17563e-06
3.13365e-06
3.09209e-06
3.05095e-06
3.01021e-06
2.96987e-06
2.92992e-06
2.89035e-06
2.85115e-06
2.81232e-06
2.77385e-06
2.73573e-06
2.69797e-06
2.66054e-06
2.62344e-06
2.58668e-06
2.55024e-06
2.51411e-06
2.4783e-06
2.44279e-06
2.40758e-06
2.37266e-06
2.33804e-06
2.3037e-06
2.26964e-06
2.23586e-06
2.20235e-06
2.1691e-06
2.13612e-06
2.1034e-06
2.07093e-06
2.03872e-06
2.00676e-06
1.97505e-06
1.94359e-06
1.91238e-06
1.88141e-06
1.8507e-06
1.82025e-06
1.79005e-06
1.76013e-06
1.73049e-06
1.70115e-06
1.67212e-06
1.64344e-06
1.61513e-06
1.58725e-06
1.55984e-06
1.53298e-06
1.50675e-06
1.48127e-06
1.45666e-06
1.43308e-06
1.41072e-06
1.38978e-06
1.37049e-06
1.35306e-06
1.33768e-06
1.32449e-06
1.31351e-06
1.30469e-06
1.29785e-06
1.29271e-06
1.28894e-06
1.28622e-06
1.28423e-06
1.28271e-06
1.28149e-06
1.28044e-06
1.27949e-06
1.27863e-06
1.27786e-06
4.29415e-06
4.23922e-06
4.185e-06
4.13148e-06
4.07864e-06
4.02647e-06
3.97494e-06
3.92404e-06
3.87375e-06
3.82407e-06
3.77497e-06
3.72644e-06
3.67847e-06
3.63105e-06
3.58416e-06
3.53779e-06
3.49193e-06
3.44657e-06
3.4017e-06
3.35731e-06
3.31339e-06
3.26993e-06
3.22691e-06
3.18434e-06
3.1422e-06
3.10048e-06
3.05918e-06
3.01828e-06
2.97778e-06
2.93767e-06
2.89795e-06
2.8586e-06
2.81962e-06
2.781e-06
2.74274e-06
2.70483e-06
2.66726e-06
2.63003e-06
2.59312e-06
2.55654e-06
2.52028e-06
2.48433e-06
2.44869e-06
2.41335e-06
2.37831e-06
2.34355e-06
2.30909e-06
2.2749e-06
2.24099e-06
2.20736e-06
2.17399e-06
2.14089e-06
2.10805e-06
2.07546e-06
2.04313e-06
2.01105e-06
1.97922e-06
1.94764e-06
1.9163e-06
1.88522e-06
1.85439e-06
1.82382e-06
1.7935e-06
1.76346e-06
1.7337e-06
1.70423e-06
1.67509e-06
1.64628e-06
1.61785e-06
1.58983e-06
1.56229e-06
1.53529e-06
1.50892e-06
1.48329e-06
1.45852e-06
1.43478e-06
1.41225e-06
1.39114e-06
1.37167e-06
1.35407e-06
1.33852e-06
1.32516e-06
1.31403e-06
1.30509e-06
1.29814e-06
1.29292e-06
1.2891e-06
1.28634e-06
1.28433e-06
1.2828e-06
1.28156e-06
1.2805e-06
1.27955e-06
1.27869e-06
1.27791e-06
4.30661e-06
4.25144e-06
4.19699e-06
4.14325e-06
4.09019e-06
4.03779e-06
3.98605e-06
3.93495e-06
3.88446e-06
3.83457e-06
3.78528e-06
3.73656e-06
3.6884e-06
3.64079e-06
3.59372e-06
3.54718e-06
3.50114e-06
3.45561e-06
3.41058e-06
3.36602e-06
3.32193e-06
3.27831e-06
3.23513e-06
3.1924e-06
3.15011e-06
3.10824e-06
3.06679e-06
3.02574e-06
2.9851e-06
2.94485e-06
2.90498e-06
2.8655e-06
2.82638e-06
2.78762e-06
2.74923e-06
2.71118e-06
2.67348e-06
2.63612e-06
2.59909e-06
2.56238e-06
2.52599e-06
2.48992e-06
2.45416e-06
2.41869e-06
2.38353e-06
2.34866e-06
2.31407e-06
2.27977e-06
2.24575e-06
2.21199e-06
2.17851e-06
2.1453e-06
2.11234e-06
2.07964e-06
2.0472e-06
2.01501e-06
1.98307e-06
1.95138e-06
1.91994e-06
1.88875e-06
1.85781e-06
1.82712e-06
1.7967e-06
1.76655e-06
1.73667e-06
1.7071e-06
1.67783e-06
1.64891e-06
1.62036e-06
1.59223e-06
1.56456e-06
1.53744e-06
1.51093e-06
1.48516e-06
1.46025e-06
1.43636e-06
1.41368e-06
1.39241e-06
1.37277e-06
1.355e-06
1.33929e-06
1.32578e-06
1.31452e-06
1.30545e-06
1.29841e-06
1.29312e-06
1.28925e-06
1.28646e-06
1.28442e-06
1.28287e-06
1.28163e-06
1.28056e-06
1.27961e-06
1.27874e-06
1.27796e-06
4.31805e-06
4.26266e-06
4.208e-06
4.15404e-06
4.10078e-06
4.04819e-06
3.99625e-06
3.94495e-06
3.89428e-06
3.84421e-06
3.79474e-06
3.74584e-06
3.69751e-06
3.64973e-06
3.6025e-06
3.55579e-06
3.50959e-06
3.46391e-06
3.41871e-06
3.37401e-06
3.32977e-06
3.286e-06
3.24268e-06
3.19981e-06
3.15737e-06
3.11536e-06
3.07377e-06
3.03259e-06
2.99181e-06
2.95143e-06
2.91143e-06
2.87182e-06
2.83257e-06
2.7937e-06
2.75518e-06
2.71701e-06
2.67919e-06
2.64171e-06
2.60456e-06
2.56773e-06
2.53123e-06
2.49505e-06
2.45917e-06
2.4236e-06
2.38832e-06
2.35334e-06
2.31864e-06
2.28423e-06
2.2501e-06
2.21625e-06
2.18266e-06
2.14934e-06
2.11628e-06
2.08348e-06
2.05093e-06
2.01864e-06
1.9866e-06
1.95481e-06
1.92327e-06
1.89197e-06
1.86093e-06
1.83015e-06
1.79963e-06
1.76937e-06
1.7394e-06
1.70972e-06
1.68035e-06
1.65132e-06
1.62267e-06
1.59442e-06
1.56665e-06
1.5394e-06
1.51278e-06
1.48688e-06
1.46184e-06
1.43782e-06
1.41499e-06
1.39357e-06
1.37379e-06
1.35587e-06
1.34001e-06
1.32636e-06
1.31497e-06
1.3058e-06
1.29867e-06
1.29331e-06
1.28939e-06
1.28656e-06
1.2845e-06
1.28295e-06
1.28169e-06
1.28062e-06
1.27966e-06
1.27879e-06
1.27801e-06
4.32843e-06
4.27284e-06
4.21799e-06
4.16385e-06
4.1104e-06
4.05763e-06
4.00551e-06
3.95404e-06
3.9032e-06
3.85296e-06
3.80332e-06
3.75427e-06
3.70578e-06
3.65785e-06
3.61046e-06
3.5636e-06
3.51726e-06
3.47143e-06
3.4261e-06
3.38125e-06
3.33688e-06
3.29297e-06
3.24952e-06
3.20652e-06
3.16395e-06
3.12182e-06
3.0801e-06
3.0388e-06
2.9979e-06
2.9574e-06
2.91728e-06
2.87755e-06
2.83819e-06
2.7992e-06
2.76057e-06
2.72229e-06
2.68436e-06
2.64677e-06
2.60952e-06
2.57259e-06
2.53598e-06
2.49969e-06
2.46372e-06
2.42804e-06
2.39267e-06
2.35759e-06
2.3228e-06
2.28829e-06
2.25406e-06
2.22011e-06
2.18643e-06
2.15301e-06
2.11986e-06
2.08697e-06
2.05433e-06
2.02194e-06
1.98981e-06
1.95792e-06
1.92629e-06
1.89491e-06
1.86378e-06
1.8329e-06
1.80229e-06
1.77194e-06
1.74187e-06
1.7121e-06
1.68264e-06
1.65352e-06
1.62476e-06
1.59642e-06
1.56854e-06
1.54119e-06
1.51446e-06
1.48845e-06
1.46329e-06
1.43914e-06
1.41618e-06
1.39463e-06
1.37471e-06
1.35665e-06
1.34066e-06
1.32688e-06
1.31538e-06
1.30611e-06
1.2989e-06
1.29348e-06
1.28951e-06
1.28666e-06
1.28458e-06
1.28301e-06
1.28175e-06
1.28067e-06
1.27971e-06
1.27883e-06
1.27805e-06
4.33774e-06
4.28197e-06
4.22694e-06
4.17263e-06
4.11901e-06
4.06608e-06
4.0138e-06
3.96217e-06
3.91117e-06
3.86079e-06
3.811e-06
3.7618e-06
3.71317e-06
3.66511e-06
3.61758e-06
3.57059e-06
3.52413e-06
3.47817e-06
3.43271e-06
3.38774e-06
3.34324e-06
3.29922e-06
3.25565e-06
3.21253e-06
3.16985e-06
3.1276e-06
3.08577e-06
3.04436e-06
3.00335e-06
2.96274e-06
2.92252e-06
2.88269e-06
2.84322e-06
2.80413e-06
2.7654e-06
2.72702e-06
2.689e-06
2.65131e-06
2.61396e-06
2.57694e-06
2.54024e-06
2.50386e-06
2.46779e-06
2.43202e-06
2.39656e-06
2.36139e-06
2.32651e-06
2.29192e-06
2.2576e-06
2.22357e-06
2.1898e-06
2.1563e-06
2.12306e-06
2.09008e-06
2.05736e-06
2.02489e-06
1.99268e-06
1.96071e-06
1.929e-06
1.89753e-06
1.86632e-06
1.83537e-06
1.80467e-06
1.77424e-06
1.74409e-06
1.71423e-06
1.68469e-06
1.65548e-06
1.62664e-06
1.59821e-06
1.57024e-06
1.54279e-06
1.51596e-06
1.48985e-06
1.46459e-06
1.44033e-06
1.41725e-06
1.39558e-06
1.37554e-06
1.35736e-06
1.34125e-06
1.32736e-06
1.31575e-06
1.30639e-06
1.29911e-06
1.29363e-06
1.28963e-06
1.28674e-06
1.28464e-06
1.28307e-06
1.2818e-06
1.28072e-06
1.27975e-06
1.27887e-06
1.27809e-06
4.34594e-06
4.29001e-06
4.23483e-06
4.18036e-06
4.1266e-06
4.07352e-06
4.0211e-06
3.96934e-06
3.91821e-06
3.86769e-06
3.81777e-06
3.76845e-06
3.7197e-06
3.67151e-06
3.62386e-06
3.57675e-06
3.53017e-06
3.4841e-06
3.43853e-06
3.39345e-06
3.34884e-06
3.30471e-06
3.26104e-06
3.21781e-06
3.17503e-06
3.13268e-06
3.09076e-06
3.04925e-06
3.00815e-06
2.96745e-06
2.92714e-06
2.88721e-06
2.84766e-06
2.80848e-06
2.76966e-06
2.7312e-06
2.69308e-06
2.65531e-06
2.61788e-06
2.58077e-06
2.54399e-06
2.50753e-06
2.47137e-06
2.43553e-06
2.39999e-06
2.36474e-06
2.32979e-06
2.29511e-06
2.26072e-06
2.22661e-06
2.19277e-06
2.15919e-06
2.12588e-06
2.09283e-06
2.06004e-06
2.0275e-06
1.99521e-06
1.96317e-06
1.93138e-06
1.89985e-06
1.86856e-06
1.83753e-06
1.80676e-06
1.77626e-06
1.74604e-06
1.71611e-06
1.68649e-06
1.65721e-06
1.62829e-06
1.59978e-06
1.57173e-06
1.5442e-06
1.51729e-06
1.49109e-06
1.46573e-06
1.44137e-06
1.4182e-06
1.39643e-06
1.37628e-06
1.35799e-06
1.34177e-06
1.32778e-06
1.31608e-06
1.30664e-06
1.29929e-06
1.29376e-06
1.28972e-06
1.28682e-06
1.2847e-06
1.28312e-06
1.28185e-06
1.28076e-06
1.27979e-06
1.27891e-06
1.27812e-06
4.353e-06
4.29694e-06
4.24163e-06
4.18703e-06
4.13315e-06
4.07994e-06
4.02741e-06
3.97552e-06
3.92427e-06
3.87364e-06
3.82362e-06
3.77418e-06
3.72532e-06
3.67703e-06
3.62928e-06
3.58207e-06
3.53538e-06
3.48921e-06
3.44354e-06
3.39837e-06
3.35367e-06
3.30944e-06
3.26568e-06
3.22237e-06
3.1795e-06
3.13706e-06
3.09506e-06
3.05346e-06
3.01228e-06
2.9715e-06
2.93111e-06
2.8911e-06
2.85148e-06
2.81222e-06
2.77332e-06
2.73479e-06
2.6966e-06
2.65875e-06
2.62125e-06
2.58407e-06
2.54722e-06
2.51069e-06
2.47447e-06
2.43855e-06
2.40294e-06
2.36763e-06
2.3326e-06
2.29787e-06
2.26341e-06
2.22923e-06
2.19532e-06
2.16168e-06
2.12831e-06
2.09519e-06
2.06234e-06
2.02973e-06
1.99738e-06
1.96528e-06
1.93344e-06
1.90184e-06
1.87049e-06
1.8394e-06
1.80857e-06
1.77801e-06
1.74773e-06
1.71773e-06
1.68805e-06
1.6587e-06
1.62972e-06
1.60114e-06
1.57302e-06
1.54542e-06
1.51843e-06
1.49215e-06
1.46672e-06
1.44228e-06
1.41902e-06
1.39715e-06
1.37691e-06
1.35853e-06
1.34222e-06
1.32814e-06
1.31637e-06
1.30686e-06
1.29945e-06
1.29388e-06
1.28981e-06
1.28688e-06
1.28476e-06
1.28316e-06
1.28188e-06
1.28079e-06
1.27982e-06
1.27894e-06
1.27815e-06
4.35892e-06
4.30275e-06
4.24732e-06
4.19262e-06
4.13862e-06
4.08532e-06
4.03268e-06
3.9807e-06
3.92935e-06
3.87863e-06
3.82851e-06
3.77898e-06
3.73003e-06
3.68165e-06
3.63381e-06
3.58651e-06
3.53975e-06
3.49349e-06
3.44774e-06
3.40249e-06
3.35771e-06
3.31341e-06
3.26957e-06
3.22618e-06
3.18324e-06
3.14074e-06
3.09866e-06
3.05699e-06
3.01574e-06
2.97489e-06
2.93443e-06
2.89436e-06
2.85467e-06
2.81535e-06
2.77639e-06
2.73779e-06
2.69954e-06
2.66163e-06
2.62406e-06
2.58683e-06
2.54992e-06
2.51332e-06
2.47705e-06
2.44108e-06
2.40541e-06
2.37004e-06
2.33496e-06
2.30017e-06
2.26566e-06
2.23143e-06
2.19747e-06
2.16377e-06
2.13034e-06
2.09718e-06
2.06427e-06
2.03161e-06
1.99921e-06
1.96706e-06
1.93516e-06
1.90351e-06
1.87211e-06
1.84097e-06
1.81009e-06
1.77947e-06
1.74913e-06
1.71909e-06
1.68935e-06
1.65995e-06
1.63091e-06
1.60227e-06
1.5741e-06
1.54644e-06
1.51939e-06
1.49305e-06
1.46754e-06
1.44303e-06
1.4197e-06
1.39776e-06
1.37744e-06
1.35899e-06
1.3426e-06
1.32845e-06
1.3166e-06
1.30704e-06
1.29958e-06
1.29398e-06
1.28988e-06
1.28694e-06
1.2848e-06
1.2832e-06
1.28192e-06
1.28082e-06
1.27985e-06
1.27896e-06
1.27817e-06
4.36367e-06
4.3074e-06
4.25189e-06
4.1971e-06
4.14302e-06
4.08963e-06
4.03691e-06
3.98485e-06
3.93343e-06
3.88263e-06
3.83243e-06
3.78283e-06
3.73381e-06
3.68535e-06
3.63745e-06
3.59008e-06
3.54325e-06
3.49693e-06
3.45111e-06
3.40579e-06
3.36096e-06
3.3166e-06
3.2727e-06
3.22925e-06
3.18625e-06
3.14369e-06
3.10155e-06
3.05983e-06
3.01852e-06
2.97762e-06
2.93711e-06
2.89698e-06
2.85724e-06
2.81786e-06
2.77885e-06
2.7402e-06
2.7019e-06
2.66395e-06
2.62633e-06
2.58904e-06
2.55208e-06
2.51545e-06
2.47912e-06
2.4431e-06
2.40739e-06
2.37198e-06
2.33685e-06
2.30202e-06
2.26746e-06
2.23319e-06
2.19918e-06
2.16545e-06
2.13197e-06
2.09877e-06
2.06581e-06
2.03312e-06
2.00067e-06
1.96848e-06
1.93654e-06
1.90485e-06
1.87341e-06
1.84223e-06
1.8113e-06
1.78064e-06
1.75027e-06
1.72018e-06
1.6904e-06
1.66095e-06
1.63187e-06
1.60319e-06
1.57496e-06
1.54726e-06
1.52016e-06
1.49377e-06
1.46821e-06
1.44364e-06
1.42025e-06
1.39825e-06
1.37787e-06
1.35935e-06
1.3429e-06
1.32869e-06
1.3168e-06
1.30718e-06
1.29969e-06
1.29406e-06
1.28994e-06
1.28698e-06
1.28484e-06
1.28323e-06
1.28194e-06
1.28085e-06
1.27987e-06
1.27898e-06
1.27819e-06
4.36724e-06
4.3109e-06
4.25532e-06
4.20046e-06
4.14632e-06
4.09287e-06
4.04009e-06
3.98797e-06
3.93648e-06
3.88563e-06
3.83538e-06
3.78572e-06
3.73665e-06
3.68814e-06
3.64018e-06
3.59277e-06
3.54588e-06
3.49951e-06
3.45365e-06
3.40828e-06
3.3634e-06
3.31899e-06
3.27505e-06
3.23156e-06
3.18852e-06
3.14591e-06
3.10373e-06
3.06197e-06
3.02062e-06
2.97967e-06
2.93912e-06
2.89895e-06
2.85917e-06
2.81975e-06
2.7807e-06
2.74202e-06
2.70368e-06
2.66569e-06
2.62803e-06
2.59071e-06
2.55372e-06
2.51704e-06
2.48068e-06
2.44463e-06
2.40889e-06
2.37344e-06
2.33828e-06
2.30341e-06
2.26882e-06
2.23451e-06
2.20047e-06
2.1667e-06
2.1332e-06
2.09996e-06
2.06698e-06
2.03425e-06
2.00177e-06
1.96955e-06
1.93758e-06
1.90585e-06
1.87438e-06
1.84317e-06
1.81222e-06
1.78153e-06
1.75112e-06
1.721e-06
1.69119e-06
1.66171e-06
1.63259e-06
1.60388e-06
1.57562e-06
1.54788e-06
1.52074e-06
1.49431e-06
1.46871e-06
1.4441e-06
1.42067e-06
1.39862e-06
1.3782e-06
1.35963e-06
1.34313e-06
1.32888e-06
1.31694e-06
1.30729e-06
1.29977e-06
1.29412e-06
1.28998e-06
1.28701e-06
1.28486e-06
1.28325e-06
1.28196e-06
1.28087e-06
1.27989e-06
1.279e-06
1.27821e-06
4.36963e-06
4.31325e-06
4.25762e-06
4.20272e-06
4.14853e-06
4.09503e-06
4.04221e-06
3.99005e-06
3.93853e-06
3.88763e-06
3.83734e-06
3.78765e-06
3.73854e-06
3.69e-06
3.64201e-06
3.59456e-06
3.54764e-06
3.50124e-06
3.45534e-06
3.40995e-06
3.36503e-06
3.32059e-06
3.27662e-06
3.2331e-06
3.19003e-06
3.14739e-06
3.10518e-06
3.06339e-06
3.02201e-06
2.98104e-06
2.94046e-06
2.90027e-06
2.86046e-06
2.82102e-06
2.78194e-06
2.74323e-06
2.70487e-06
2.66685e-06
2.62917e-06
2.59183e-06
2.55481e-06
2.51811e-06
2.48173e-06
2.44565e-06
2.40988e-06
2.37441e-06
2.33923e-06
2.30434e-06
2.26973e-06
2.2354e-06
2.20134e-06
2.16755e-06
2.13402e-06
2.10076e-06
2.06776e-06
2.03501e-06
2.00251e-06
1.97026e-06
1.93827e-06
1.90653e-06
1.87504e-06
1.8438e-06
1.81282e-06
1.78212e-06
1.75168e-06
1.72154e-06
1.69171e-06
1.66221e-06
1.63307e-06
1.60433e-06
1.57605e-06
1.54829e-06
1.52113e-06
1.49467e-06
1.46904e-06
1.44441e-06
1.42094e-06
1.39887e-06
1.37841e-06
1.35981e-06
1.34329e-06
1.329e-06
1.31704e-06
1.30737e-06
1.29983e-06
1.29416e-06
1.29001e-06
1.28704e-06
1.28488e-06
1.28326e-06
1.28197e-06
1.28088e-06
1.2799e-06
1.27901e-06
1.27822e-06
4.37083e-06
4.31443e-06
4.25877e-06
4.20385e-06
4.14964e-06
4.09612e-06
4.04328e-06
3.9911e-06
3.93955e-06
3.88864e-06
3.83833e-06
3.78861e-06
3.73948e-06
3.69092e-06
3.64291e-06
3.59545e-06
3.54851e-06
3.5021e-06
3.45619e-06
3.41077e-06
3.36585e-06
3.32139e-06
3.27741e-06
3.23387e-06
3.19079e-06
3.14814e-06
3.10591e-06
3.06411e-06
3.02272e-06
2.98173e-06
2.94113e-06
2.90093e-06
2.8611e-06
2.82165e-06
2.78256e-06
2.74383e-06
2.70546e-06
2.66743e-06
2.62974e-06
2.59238e-06
2.55535e-06
2.51864e-06
2.48225e-06
2.44616e-06
2.41038e-06
2.3749e-06
2.33971e-06
2.3048e-06
2.27018e-06
2.23584e-06
2.20177e-06
2.16797e-06
2.13443e-06
2.10116e-06
2.06815e-06
2.03539e-06
2.00288e-06
1.97062e-06
1.93862e-06
1.90687e-06
1.87536e-06
1.84412e-06
1.81313e-06
1.78241e-06
1.75197e-06