/*--------------------------------*- C++ -*----------------------------------*\
  =========                 |
  \\      /  F ield         | OpenFOAM: The Open Source CFD Toolbox
   \\    /   O peration     | Website:  https://openfoam.org
    \\  /    A nd           | Version:  7
     \\/     M anipulation  |
\*---------------------------------------------------------------------------*/
FoamFile
{
    version     2.0;
    format      ascii;
    class       volScalarField;
    location    "192000";
    object      k;
}
// * * * * * * * * * * * * * * * * * * * * * * * * * * * * * * * * * * * * * //

dimensions      [0 2 -2 0 0 0 0];

internalField   nonuniform List<scalar> 
4814
(
1.24966e-06
1.25005e-06
1.25038e-06
1.25068e-06
1.23208e-06
1.23359e-06
1.23495e-06
1.23621e-06
1.23737e-06
1.23845e-06
1.23946e-06
1.24038e-06
1.24123e-06
1.24201e-06
1.24272e-06
1.24337e-06
1.24397e-06
1.24452e-06
1.24501e-06
1.24545e-06
1.24585e-06
1.24619e-06
1.2465e-06
1.24675e-06
1.24696e-06
1.24713e-06
1.24726e-06
1.24734e-06
1.24738e-06
1.24738e-06
1.24734e-06
1.24726e-06
1.24713e-06
1.24696e-06
1.24675e-06
1.2465e-06
1.24619e-06
1.24585e-06
1.22539e-06
1.22703e-06
1.22853e-06
1.22992e-06
1.23121e-06
1.23241e-06
1.23353e-06
1.23457e-06
1.23552e-06
1.2364e-06
1.2372e-06
1.23795e-06
1.23863e-06
1.23925e-06
1.23981e-06
1.24032e-06
1.24077e-06
1.24117e-06
1.24152e-06
1.24181e-06
1.24206e-06
1.24225e-06
1.2424e-06
1.24249e-06
1.24254e-06
1.24254e-06
1.24249e-06
1.2424e-06
1.24225e-06
1.24206e-06
1.24181e-06
1.24152e-06
1.24117e-06
1.24077e-06
1.24032e-06
1.23981e-06
1.23925e-06
1.23863e-06
1.23795e-06
1.2372e-06
1.2364e-06
1.21807e-06
1.21985e-06
1.22149e-06
1.22301e-06
1.22443e-06
1.22576e-06
1.227e-06
1.22816e-06
1.22922e-06
1.2302e-06
1.2311e-06
1.23194e-06
1.2327e-06
1.2334e-06
1.23404e-06
1.23462e-06
1.23513e-06
1.23558e-06
1.23598e-06
1.23631e-06
1.23659e-06
1.23681e-06
1.23697e-06
1.23708e-06
1.23713e-06
1.23713e-06
1.23708e-06
1.23697e-06
1.23681e-06
1.23659e-06
1.23631e-06
1.23598e-06
1.23558e-06
1.23513e-06
1.23462e-06
1.23404e-06
1.2334e-06
1.2327e-06
1.23194e-06
1.2311e-06
1.2302e-06
1.22922e-06
1.22816e-06
1.227e-06
1.21007e-06
1.212e-06
1.21379e-06
1.21545e-06
1.21701e-06
1.21847e-06
1.21983e-06
1.22111e-06
1.22228e-06
1.22337e-06
1.22438e-06
1.2253e-06
1.22616e-06
1.22694e-06
1.22766e-06
1.2283e-06
1.22888e-06
1.22938e-06
1.22983e-06
1.2302e-06
1.23052e-06
1.23077e-06
1.23095e-06
1.23107e-06
1.23113e-06
1.23113e-06
1.23107e-06
1.23095e-06
1.23077e-06
1.23052e-06
1.2302e-06
1.22983e-06
1.22938e-06
1.22888e-06
1.2283e-06
1.22766e-06
1.22694e-06
1.22616e-06
1.2253e-06
1.22438e-06
1.22337e-06
1.22228e-06
1.22111e-06
1.21983e-06
1.20136e-06
1.20345e-06
1.20538e-06
1.20719e-06
1.20889e-06
1.21048e-06
1.21198e-06
1.21338e-06
1.21467e-06
1.21587e-06
1.21698e-06
1.21801e-06
1.21896e-06
1.21983e-06
1.22062e-06
1.22133e-06
1.22197e-06
1.22254e-06
1.22303e-06
1.22345e-06
1.2238e-06
1.22408e-06
1.22429e-06
1.22442e-06
1.22449e-06
1.22449e-06
1.22442e-06
1.22429e-06
1.22408e-06
1.2238e-06
1.22345e-06
1.22303e-06
1.22254e-06
1.22197e-06
1.22133e-06
1.22062e-06
1.21983e-06
1.21896e-06
1.21801e-06
1.21698e-06
1.21587e-06
1.21467e-06
1.21338e-06
1.21198e-06
1.19188e-06
1.19413e-06
1.19622e-06
1.19818e-06
1.20003e-06
1.20176e-06
1.2034e-06
1.20492e-06
1.20634e-06
1.20765e-06
1.20887e-06
1.21001e-06
1.21105e-06
1.21201e-06
1.21288e-06
1.21367e-06
1.21438e-06
1.215e-06
1.21555e-06
1.21601e-06
1.2164e-06
1.21671e-06
1.21694e-06
1.21709e-06
1.21716e-06
1.21716e-06
1.21709e-06
1.21694e-06
1.21671e-06
1.2164e-06
1.21601e-06
1.21555e-06
1.215e-06
1.21438e-06
1.21367e-06
1.21288e-06
1.21201e-06
1.21105e-06
1.21001e-06
1.20887e-06
1.20765e-06
1.20634e-06
1.20492e-06
1.2034e-06
1.18159e-06
1.18401e-06
1.18626e-06
1.18837e-06
1.19037e-06
1.19226e-06
1.19403e-06
1.19569e-06
1.19724e-06
1.19867e-06
1.20001e-06
1.20124e-06
1.20239e-06
1.20344e-06
1.20439e-06
1.20526e-06
1.20604e-06
1.20673e-06
1.20733e-06
1.20784e-06
1.20827e-06
1.2086e-06
1.20886e-06
1.20902e-06
1.20911e-06
1.20911e-06
1.20902e-06
1.20886e-06
1.2086e-06
1.20827e-06
1.20784e-06
1.20733e-06
1.20673e-06
1.20604e-06
1.20526e-06
1.20439e-06
1.20344e-06
1.20239e-06
1.20124e-06
1.20001e-06
1.19867e-06
1.19724e-06
1.19569e-06
1.19403e-06
1.19226e-06
1.17043e-06
1.17302e-06
1.17544e-06
1.17772e-06
1.17987e-06
1.18191e-06
1.18383e-06
1.18563e-06
1.18731e-06
1.18887e-06
1.19032e-06
1.19167e-06
1.19291e-06
1.19406e-06
1.19511e-06
1.19605e-06
1.1969e-06
1.19766e-06
1.19831e-06
1.19888e-06
1.19934e-06
1.19971e-06
1.19999e-06
1.20017e-06
1.20026e-06
1.20026e-06
1.20017e-06
1.19999e-06
1.19971e-06
1.19934e-06
1.19888e-06
1.19831e-06
1.19766e-06
1.1969e-06
1.19605e-06
1.19511e-06
1.19406e-06
1.19291e-06
1.19167e-06
1.19032e-06
1.18887e-06
1.18731e-06
1.18563e-06
1.18383e-06
1.18191e-06
1.15833e-06
1.1611e-06
1.16369e-06
1.16614e-06
1.16846e-06
1.17066e-06
1.17274e-06
1.17468e-06
1.17649e-06
1.17818e-06
1.17976e-06
1.18122e-06
1.18258e-06
1.18382e-06
1.18496e-06
1.18599e-06
1.18692e-06
1.18774e-06
1.18845e-06
1.18907e-06
1.18957e-06
1.18998e-06
1.19028e-06
1.19048e-06
1.19058e-06
1.19058e-06
1.19048e-06
1.19028e-06
1.18998e-06
1.18957e-06
1.18907e-06
1.18845e-06
1.18774e-06
1.18692e-06
1.18599e-06
1.18496e-06
1.18382e-06
1.18258e-06
1.18122e-06
1.17976e-06
1.17818e-06
1.17649e-06
1.17468e-06
1.17273e-06
1.17066e-06
1.14523e-06
1.14819e-06
1.15097e-06
1.15359e-06
1.15609e-06
1.15845e-06
1.16068e-06
1.16278e-06
1.16473e-06
1.16656e-06
1.16826e-06
1.16984e-06
1.17131e-06
1.17266e-06
1.17389e-06
1.17501e-06
1.17601e-06
1.1769e-06
1.17768e-06
1.17835e-06
1.1789e-06
1.17934e-06
1.17967e-06
1.17989e-06
1.17999e-06
1.17999e-06
1.17989e-06
1.17967e-06
1.17934e-06
1.1789e-06
1.17835e-06
1.17768e-06
1.1769e-06
1.17601e-06
1.17501e-06
1.17389e-06
1.17266e-06
1.17131e-06
1.16984e-06
1.16826e-06
1.16656e-06
1.16473e-06
1.16278e-06
1.16068e-06
1.15845e-06
1.13107e-06
1.13422e-06
1.13718e-06
1.13999e-06
1.14266e-06
1.1452e-06
1.14759e-06
1.14985e-06
1.15195e-06
1.15391e-06
1.15575e-06
1.15746e-06
1.15904e-06
1.1605e-06
1.16183e-06
1.16304e-06
1.16413e-06
1.16509e-06
1.16593e-06
1.16665e-06
1.16725e-06
1.16773e-06
1.16808e-06
1.16832e-06
1.16844e-06
1.16844e-06
1.16832e-06
1.16808e-06
1.16773e-06
1.16725e-06
1.16665e-06
1.16593e-06
1.16509e-06
1.16413e-06
1.16304e-06
1.16183e-06
1.1605e-06
1.15904e-06
1.15746e-06
1.15575e-06
1.15391e-06
1.15195e-06
1.14984e-06
1.14759e-06
1.11575e-06
1.11911e-06
1.12227e-06
1.12527e-06
1.12812e-06
1.13083e-06
1.1334e-06
1.13582e-06
1.13807e-06
1.14018e-06
1.14216e-06
1.144e-06
1.1457e-06
1.14727e-06
1.1487e-06
1.15001e-06
1.15118e-06
1.15222e-06
1.15313e-06
1.1539e-06
1.15455e-06
1.15507e-06
1.15545e-06
1.1557e-06
1.15583e-06
1.15583e-06
1.1557e-06
1.15545e-06
1.15507e-06
1.15455e-06
1.1539e-06
1.15313e-06
1.15222e-06
1.15118e-06
1.15001e-06
1.1487e-06
1.14727e-06
1.1457e-06
1.144e-06
1.14216e-06
1.14018e-06
1.13807e-06
1.13582e-06
1.1334e-06
1.09922e-06
1.10278e-06
1.10614e-06
1.10934e-06
1.11238e-06
1.11528e-06
1.11802e-06
1.1206e-06
1.12302e-06
1.12529e-06
1.1274e-06
1.12937e-06
1.1312e-06
1.13289e-06
1.13443e-06
1.13583e-06
1.13709e-06
1.13821e-06
1.13919e-06
1.14003e-06
1.14072e-06
1.14128e-06
1.14169e-06
1.14197e-06
1.1421e-06
1.1421e-06
1.14197e-06
1.14169e-06
1.14128e-06
1.14072e-06
1.14003e-06
1.13919e-06
1.13821e-06
1.13709e-06
1.13583e-06
1.13443e-06
1.13289e-06
1.1312e-06
1.12937e-06
1.1274e-06
1.12528e-06
1.12302e-06
1.1206e-06
1.11802e-06
1.08136e-06
1.08514e-06
1.08872e-06
1.09212e-06
1.09536e-06
1.09844e-06
1.10137e-06
1.10413e-06
1.10671e-06
1.10913e-06
1.11139e-06
1.11351e-06
1.11546e-06
1.11727e-06
1.11893e-06
1.12043e-06
1.12178e-06
1.12298e-06
1.12403e-06
1.12493e-06
1.12568e-06
1.12627e-06
1.12672e-06
1.12701e-06
1.12716e-06
1.12716e-06
1.12701e-06
1.12672e-06
1.12627e-06
1.12568e-06
1.12493e-06
1.12403e-06
1.12298e-06
1.12178e-06
1.12043e-06
1.11893e-06
1.11727e-06
1.11546e-06
1.1135e-06
1.11139e-06
1.10913e-06
1.10671e-06
1.10413e-06
1.10137e-06
1.06211e-06
1.06611e-06
1.0699e-06
1.07351e-06
1.07695e-06
1.08023e-06
1.08334e-06
1.08628e-06
1.08904e-06
1.09162e-06
1.09404e-06
1.09629e-06
1.09839e-06
1.10032e-06
1.10209e-06
1.1037e-06
1.10515e-06
1.10643e-06
1.10755e-06
1.10852e-06
1.10932e-06
1.10996e-06
1.11044e-06
1.11075e-06
1.11091e-06
1.11091e-06
1.11075e-06
1.11044e-06
1.10996e-06
1.10932e-06
1.10852e-06
1.10755e-06
1.10643e-06
1.10515e-06
1.1037e-06
1.10209e-06
1.10032e-06
1.09839e-06
1.09629e-06
1.09404e-06
1.09162e-06
1.08904e-06
1.08628e-06
1.08334e-06
1.04135e-06
1.04558e-06
1.04959e-06
1.05341e-06
1.05706e-06
1.06055e-06
1.06385e-06
1.06698e-06
1.06991e-06
1.07266e-06
1.07524e-06
1.07764e-06
1.07987e-06
1.08194e-06
1.08383e-06
1.08554e-06
1.08709e-06
1.08846e-06
1.08966e-06
1.09069e-06
1.09155e-06
1.09223e-06
1.09274e-06
1.09308e-06
1.09325e-06
1.09325e-06
1.09308e-06
1.09274e-06
1.09223e-06
1.09155e-06
1.09069e-06
1.08966e-06
1.08846e-06
1.08709e-06
1.08554e-06
1.08383e-06
1.08194e-06
1.07987e-06
1.07764e-06
1.07524e-06
1.07266e-06
1.06991e-06
1.06698e-06
1.06385e-06
1.01899e-06
1.02345e-06
1.02768e-06
1.03173e-06
1.0356e-06
1.03928e-06
1.04279e-06
1.04611e-06
1.04922e-06
1.05214e-06
1.05488e-06
1.05744e-06
1.05982e-06
1.06201e-06
1.06402e-06
1.06585e-06
1.0675e-06
1.06896e-06
1.07024e-06
1.07134e-06
1.07226e-06
1.07299e-06
1.07353e-06
1.07389e-06
1.07407e-06
1.07407e-06
1.07389e-06
1.07353e-06
1.07299e-06
1.07225e-06
1.07134e-06
1.07024e-06
1.06896e-06
1.0675e-06
1.06585e-06
1.06402e-06
1.06201e-06
1.05982e-06
1.05744e-06
1.05488e-06
1.05214e-06
1.04922e-06
1.04611e-06
1.04279e-06
9.94922e-07
9.99615e-07
1.00408e-06
1.00835e-06
1.01243e-06
1.01633e-06
1.02004e-06
1.02355e-06
1.02685e-06
1.02995e-06
1.03286e-06
1.03557e-06
1.0381e-06
1.04043e-06
1.04257e-06
1.04451e-06
1.04626e-06
1.04782e-06
1.04918e-06
1.05035e-06
1.05132e-06
1.0521e-06
1.05268e-06
1.05306e-06
1.05326e-06
1.05326e-06
1.05306e-06
1.05268e-06
1.0521e-06
1.05132e-06
1.05035e-06
1.04918e-06
1.04782e-06
1.04626e-06
1.04451e-06
1.04257e-06
1.04043e-06
1.0381e-06
1.03557e-06
1.03286e-06
1.02995e-06
1.02685e-06
1.02355e-06
1.02004e-06
9.6904e-07
9.7397e-07
9.78668e-07
9.83164e-07
9.87468e-07
9.91579e-07
9.95495e-07
9.99205e-07
1.00269e-06
1.00597e-06
1.00904e-06
1.01192e-06
1.01459e-06
1.01707e-06
1.01933e-06
1.0214e-06
1.02326e-06
1.02491e-06
1.02636e-06
1.0276e-06
1.02863e-06
1.02945e-06
1.03007e-06
1.03048e-06
1.03068e-06
1.03068e-06
1.03048e-06
1.03007e-06
1.02945e-06
1.02863e-06
1.0276e-06
1.02636e-06
1.02491e-06
1.02326e-06
1.0214e-06
1.01933e-06
1.01707e-06
1.01459e-06
1.01192e-06
1.00904e-06
1.00597e-06
1.00269e-06
9.99205e-07
9.95495e-07
9.41236e-07
9.46403e-07
9.51333e-07
9.56056e-07
9.60581e-07
9.64907e-07
9.6903e-07
9.72939e-07
9.76613e-07
9.80073e-07
9.83322e-07
9.86361e-07
9.89188e-07
9.91802e-07
9.94201e-07
9.96385e-07
9.98352e-07
1.0001e-06
1.00163e-06
1.00295e-06
1.00404e-06
1.00492e-06
1.00557e-06
1.006e-06
1.00622e-06
1.00622e-06
1.006e-06
1.00557e-06
1.00492e-06
1.00404e-06
1.00295e-06
1.00163e-06
1.0001e-06
9.98352e-07
9.96384e-07
9.94201e-07
9.91802e-07
9.89188e-07
9.86361e-07
9.83322e-07
9.80073e-07
9.76613e-07
9.72939e-07
9.6903e-07
9.11406e-07
9.16806e-07
9.21966e-07
9.26914e-07
9.31659e-07
9.36198e-07
9.40529e-07
9.44637e-07
9.48501e-07
9.52143e-07
9.55565e-07
9.58767e-07
9.61748e-07
9.64504e-07
9.67036e-07
9.69341e-07
9.71418e-07
9.73266e-07
9.74884e-07
9.76272e-07
9.77429e-07
9.78354e-07
9.79045e-07
9.79503e-07
9.79731e-07
9.79731e-07
9.79503e-07
9.79045e-07
9.78354e-07
9.77429e-07
9.76272e-07
9.74884e-07
9.73266e-07
9.71417e-07
9.6934e-07
9.67036e-07
9.64504e-07
9.61748e-07
9.58767e-07
9.55565e-07
9.52143e-07
9.48501e-07
9.44637e-07
9.40528e-07
9.36199e-07
8.79449e-07
8.85078e-07
8.90461e-07
8.95629e-07
9.00589e-07
9.05339e-07
9.09873e-07
9.14179e-07
9.18231e-07
9.22053e-07
9.25647e-07
9.29011e-07
9.32144e-07
9.35044e-07
9.37707e-07
9.40133e-07
9.4232e-07
9.44266e-07
9.45971e-07
9.47434e-07
9.48653e-07
9.49629e-07
9.50357e-07
9.50839e-07
9.5108e-07
9.5108e-07
9.50839e-07
9.50357e-07
9.49629e-07
9.48653e-07
9.47434e-07
9.45971e-07
9.44266e-07
9.4232e-07
9.40133e-07
9.37707e-07
9.35044e-07
9.32144e-07
9.29011e-07
9.25647e-07
9.22053e-07
9.18231e-07
9.14178e-07
9.09873e-07
9.05339e-07
8.45277e-07
8.51123e-07
8.56721e-07
8.621e-07
8.67268e-07
8.72221e-07
8.76953e-07
8.8145e-07
8.85685e-07
8.89683e-07
8.93445e-07
8.96969e-07
9.00252e-07
9.03292e-07
9.06085e-07
9.08631e-07
9.10926e-07
9.1297e-07
9.1476e-07
9.16297e-07
9.17578e-07
9.18603e-07
9.19368e-07
9.19876e-07
9.20129e-07
9.20129e-07
9.19876e-07
9.19368e-07
9.18603e-07
9.17578e-07
9.16297e-07
9.1476e-07
9.12969e-07
9.10926e-07
9.08631e-07
9.06085e-07
9.03292e-07
9.00252e-07
8.96969e-07
8.93445e-07
8.89683e-07
8.85685e-07
8.8145e-07
8.76953e-07
8.72221e-07
8.08816e-07
8.14863e-07
8.20661e-07
8.2624e-07
8.31603e-07
8.36748e-07
8.41668e-07
8.46347e-07
8.50758e-07
8.54924e-07
8.58848e-07
8.62525e-07
8.65953e-07
8.69128e-07
8.72047e-07
8.74709e-07
8.77109e-07
8.79247e-07
8.81122e-07
8.8273e-07
8.84072e-07
8.85145e-07
8.85947e-07
8.86479e-07
8.86744e-07
8.86744e-07
8.86479e-07
8.85947e-07
8.85145e-07
8.84072e-07
8.8273e-07
8.81121e-07
8.79247e-07
8.77109e-07
8.74709e-07
8.72047e-07
8.69128e-07
8.65953e-07
8.62525e-07
8.58848e-07
8.54924e-07
8.50757e-07
8.46347e-07
8.41667e-07
8.36748e-07
7.70012e-07
7.76241e-07
7.8222e-07
7.87978e-07
7.9352e-07
7.98842e-07
8.03935e-07
8.08783e-07
8.13357e-07
8.17681e-07
8.21756e-07
8.25577e-07
8.29141e-07
8.32444e-07
8.35483e-07
8.38254e-07
8.40755e-07
8.42983e-07
8.44936e-07
8.46614e-07
8.48013e-07
8.49133e-07
8.49969e-07
8.50524e-07
8.50802e-07
8.50802e-07
8.50524e-07
8.49969e-07
8.49133e-07
8.48013e-07
8.46614e-07
8.44936e-07
8.42983e-07
8.40755e-07
8.38254e-07
8.35483e-07
8.32444e-07
8.29141e-07
8.25577e-07
8.21755e-07
8.17681e-07
8.13356e-07
8.08782e-07
8.03934e-07
7.28841e-07
7.35224e-07
7.41358e-07
7.47273e-07
7.52972e-07
7.58449e-07
7.63695e-07
7.68694e-07
7.73414e-07
7.7788e-07
7.82092e-07
7.86044e-07
7.89732e-07
7.93153e-07
7.96301e-07
7.99173e-07
8.01766e-07
8.04078e-07
8.06105e-07
8.07846e-07
8.09299e-07
8.10462e-07
8.1133e-07
8.11907e-07
8.12195e-07
8.12195e-07
8.11907e-07
8.1133e-07
8.10461e-07
8.09298e-07
8.07846e-07
8.06105e-07
8.04077e-07
8.01766e-07
7.99173e-07
7.96301e-07
7.93153e-07
7.89732e-07
7.86044e-07
7.82092e-07
7.7788e-07
7.73414e-07
7.68694e-07
7.63695e-07
6.85298e-07
6.91804e-07
6.98063e-07
7.04107e-07
7.09936e-07
7.15544e-07
7.20921e-07
7.26049e-07
7.30893e-07
7.3548e-07
7.39809e-07
7.43875e-07
7.47671e-07
7.51194e-07
7.54438e-07
7.574e-07
7.60075e-07
7.6246e-07
7.64553e-07
7.66351e-07
7.67851e-07
7.69053e-07
7.69951e-07
7.70547e-07
7.70844e-07
7.70844e-07
7.70547e-07
7.69951e-07
7.69053e-07
7.67851e-07
7.6635e-07
7.64553e-07
7.6246e-07
7.60075e-07
7.574e-07
7.54438e-07
7.51194e-07
7.47671e-07
7.43874e-07
7.39809e-07
7.3548e-07
7.30893e-07
7.26049e-07
7.20921e-07
6.39327e-07
6.45931e-07
6.52294e-07
6.58445e-07
6.64385e-07
6.70106e-07
6.75597e-07
6.80837e-07
6.85779e-07
6.90463e-07
6.94887e-07
6.99045e-07
7.02931e-07
7.06539e-07
7.09863e-07
7.129e-07
7.15644e-07
7.18091e-07
7.2024e-07
7.22086e-07
7.23628e-07
7.24863e-07
7.25785e-07
7.26398e-07
7.26704e-07
7.26704e-07
7.26398e-07
7.25785e-07
7.24863e-07
7.23628e-07
7.22086e-07
7.2024e-07
7.18091e-07
7.15644e-07
7.129e-07
7.09863e-07
7.06539e-07
7.02931e-07
6.99045e-07
6.94887e-07
6.90463e-07
6.85779e-07
6.80837e-07
6.75597e-07
5.91004e-07
5.97658e-07
6.0408e-07
6.10296e-07
6.16306e-07
6.22102e-07
6.27671e-07
6.32991e-07
6.3801e-07
6.42772e-07
6.47274e-07
6.51509e-07
6.55469e-07
6.59149e-07
6.62541e-07
6.65642e-07
6.68445e-07
6.70947e-07
6.73144e-07
6.75033e-07
6.7661e-07
6.77874e-07
6.78817e-07
6.79442e-07
6.79755e-07
6.79755e-07
6.79442e-07
6.78817e-07
6.77874e-07
6.7661e-07
6.75033e-07
6.73144e-07
6.70947e-07
6.68445e-07
6.65642e-07
6.62541e-07
6.59149e-07
6.55469e-07
6.51509e-07
6.47274e-07
6.42772e-07
6.3801e-07
6.32991e-07
6.27671e-07
5.40573e-07
5.47207e-07
5.53619e-07
5.59836e-07
5.65857e-07
5.7167e-07
5.77263e-07
5.82612e-07
5.87668e-07
5.92469e-07
5.97013e-07
6.01291e-07
6.05296e-07
6.09019e-07
6.12455e-07
6.15596e-07
6.18439e-07
6.20977e-07
6.23206e-07
6.25124e-07
6.26726e-07
6.2801e-07
6.28968e-07
6.29603e-07
6.2992e-07
6.2992e-07
6.29603e-07
6.28968e-07
6.2801e-07
6.26726e-07
6.25124e-07
6.23206e-07
6.20977e-07
6.18439e-07
6.15596e-07
6.12455e-07
6.09019e-07
6.05296e-07
6.01291e-07
5.97013e-07
5.92469e-07
5.87667e-07
5.82612e-07
5.77263e-07
4.88437e-07
4.94964e-07
5.01283e-07
5.07422e-07
5.13375e-07
5.19133e-07
5.2468e-07
5.29994e-07
5.35026e-07
5.3981e-07
5.44343e-07
5.48616e-07
5.52618e-07
5.56344e-07
5.59784e-07
5.62932e-07
5.65782e-07
5.68329e-07
5.70567e-07
5.72493e-07
5.74103e-07
5.75394e-07
5.76357e-07
5.76996e-07
5.77316e-07
5.77316e-07
5.76996e-07
5.76357e-07
5.75394e-07
5.74103e-07
5.72493e-07
5.70567e-07
5.68329e-07
5.65782e-07
5.62932e-07
5.59784e-07
5.56344e-07
5.52618e-07
5.48615e-07
5.44343e-07
5.3981e-07
5.35025e-07
5.29994e-07
5.2468e-07
4.35177e-07
4.41495e-07
4.47624e-07
4.53589e-07
4.59385e-07
4.65e-07
4.70419e-07
4.75618e-07
4.8055e-07
4.85248e-07
4.89704e-07
4.93909e-07
4.97853e-07
5.01527e-07
5.04923e-07
5.08034e-07
5.10853e-07
5.13373e-07
5.15589e-07
5.17497e-07
5.19093e-07
5.20373e-07
5.21329e-07
5.21963e-07
5.2228e-07
5.2228e-07
5.21963e-07
5.21329e-07
5.20373e-07
5.19093e-07
5.17497e-07
5.15589e-07
5.13373e-07
5.10853e-07
5.08034e-07
5.04923e-07
5.01527e-07
4.97852e-07
4.93908e-07
4.89704e-07
4.85248e-07
4.8055e-07
4.75618e-07
4.70419e-07
3.81562e-07
3.87559e-07
3.93389e-07
3.99076e-07
4.04613e-07
4.09986e-07
4.15181e-07
4.20174e-07
4.24922e-07
4.2945e-07
4.33752e-07
4.37816e-07
4.41634e-07
4.45194e-07
4.48489e-07
4.51509e-07
4.54249e-07
4.567e-07
4.58857e-07
4.60715e-07
4.6227e-07
4.63518e-07
4.64451e-07
4.6507e-07
4.65379e-07
4.65379e-07
4.6507e-07
4.64451e-07
4.63518e-07
4.6227e-07
4.60715e-07
4.58857e-07
4.567e-07
4.54248e-07
4.51509e-07
4.48489e-07
4.45194e-07
4.41633e-07
4.37816e-07
4.33751e-07
4.2945e-07
4.24921e-07
4.20174e-07
4.15181e-07
4.09986e-07
3.28537e-07
3.341e-07
3.39521e-07
3.44819e-07
3.49989e-07
3.55016e-07
3.59886e-07
3.64576e-07
3.69045e-07
3.73315e-07
3.77377e-07
3.81221e-07
3.84837e-07
3.88213e-07
3.91341e-07
3.94212e-07
3.96818e-07
3.99153e-07
4.01208e-07
4.02981e-07
4.04464e-07
4.05655e-07
4.06546e-07
4.07138e-07
4.07434e-07
4.07434e-07
4.07138e-07
4.06546e-07
4.05655e-07
4.04464e-07
4.02981e-07
4.01208e-07
3.99152e-07
3.96818e-07
3.94212e-07
3.91341e-07
3.88213e-07
3.84837e-07
3.81221e-07
3.77377e-07
3.73315e-07
3.69045e-07
3.64576e-07
3.59886e-07
3.55016e-07
2.77181e-07
2.82205e-07
2.87112e-07
2.91919e-07
2.96619e-07
3.012e-07
3.05646e-07
3.09936e-07
3.14033e-07
3.17955e-07
3.21692e-07
3.25235e-07
3.28571e-07
3.31691e-07
3.34585e-07
3.37244e-07
3.39661e-07
3.41828e-07
3.43738e-07
3.45385e-07
3.46765e-07
3.47874e-07
3.48704e-07
3.49255e-07
3.49531e-07
3.49531e-07
3.49255e-07
3.48704e-07
3.47874e-07
3.46765e-07
3.45385e-07
3.43737e-07
3.41828e-07
3.39661e-07
3.37244e-07
3.34585e-07
3.31691e-07
3.28571e-07
3.25234e-07
3.21692e-07
3.17955e-07
3.14033e-07
3.09936e-07
3.05646e-07
3.012e-07
2.28623e-07
2.33025e-07
2.37333e-07
2.41563e-07
2.45708e-07
2.49755e-07
2.53692e-07
2.57499e-07
2.61142e-07
2.64636e-07
2.67971e-07
2.71137e-07
2.74123e-07
2.7692e-07
2.79518e-07
2.81908e-07
2.84082e-07
2.86033e-07
2.87754e-07
2.8924e-07
2.90486e-07
2.91487e-07
2.92237e-07
2.92736e-07
2.92985e-07
2.92985e-07
2.92736e-07
2.92237e-07
2.91487e-07
2.90486e-07
2.8924e-07
2.87754e-07
2.86033e-07
2.84082e-07
2.81908e-07
2.79518e-07
2.7692e-07
2.74123e-07
2.71137e-07
2.67971e-07
2.64636e-07
2.61142e-07
2.57499e-07
2.53692e-07
2.49756e-07
2.45708e-07
1.8393e-07
1.87658e-07
1.91314e-07
1.94911e-07
1.98443e-07
2.01899e-07
2.05267e-07
2.08529e-07
2.11659e-07
2.14665e-07
2.17539e-07
2.20272e-07
2.22854e-07
2.25275e-07
2.27526e-07
2.296e-07
2.31489e-07
2.33186e-07
2.34684e-07
2.35979e-07
2.37065e-07
2.37938e-07
2.38592e-07
2.39027e-07
2.39245e-07
2.39245e-07
2.39027e-07
2.38592e-07
2.37937e-07
2.37065e-07
2.35979e-07
2.34684e-07
2.33186e-07
2.31489e-07
2.296e-07
2.27526e-07
2.25275e-07
2.22854e-07
2.20272e-07
2.17539e-07
2.14665e-07
2.11659e-07
2.08529e-07
2.05267e-07
2.01899e-07
1.98443e-07
1.43983e-07
1.47026e-07
1.50014e-07
1.52961e-07
1.55859e-07
1.587e-07
1.61474e-07
1.64165e-07
1.66752e-07
1.6924e-07
1.71624e-07
1.73893e-07
1.76039e-07
1.78055e-07
1.79932e-07
1.81663e-07
1.8324e-07
1.84659e-07
1.85913e-07
1.86997e-07
1.87907e-07
1.88639e-07
1.89188e-07
1.89553e-07
1.89736e-07
1.89736e-07
1.89553e-07
1.89188e-07
1.88639e-07
1.87907e-07
1.86997e-07
1.85913e-07
1.84659e-07
1.8324e-07
1.81663e-07
1.79932e-07
1.78055e-07
1.76039e-07
1.73893e-07
1.71624e-07
1.6924e-07
1.66752e-07
1.64165e-07
1.61474e-07
1.587e-07
1.55859e-07
1.52961e-07
1.09376e-07
1.11762e-07
1.1411e-07
1.16427e-07
1.18711e-07
1.20952e-07
1.23144e-07
1.25274e-07
1.27325e-07
1.293e-07
1.31194e-07
1.33e-07
1.3471e-07
1.36318e-07
1.37817e-07
1.392e-07
1.40462e-07
1.41598e-07
1.42603e-07
1.43472e-07
1.44202e-07
1.44789e-07
1.4523e-07
1.45523e-07
1.4567e-07
1.4567e-07
1.45523e-07
1.4523e-07
1.44789e-07
1.44202e-07
1.43472e-07
1.42603e-07
1.41598e-07
1.40462e-07
1.392e-07
1.37817e-07
1.36318e-07
1.3471e-07
1.33e-07
1.31194e-07
1.293e-07
1.27325e-07
1.25274e-07
1.23144e-07
1.20952e-07
1.18711e-07
1.16427e-07
8.03619e-08
8.21552e-08
8.39209e-08
8.56664e-08
8.73883e-08
8.90808e-08
9.07375e-08
9.23496e-08
9.39032e-08
9.54016e-08
9.68399e-08
9.82126e-08
9.9514e-08
1.00738e-07
1.01881e-07
1.02936e-07
1.039e-07
1.04767e-07
1.05535e-07
1.062e-07
1.06758e-07
1.07208e-07
1.07545e-07
1.0777e-07
1.07883e-07
1.07883e-07
1.0777e-07
1.07545e-07
1.07208e-07
1.06758e-07
1.062e-07
1.05535e-07
1.04767e-07
1.039e-07
1.02936e-07
1.01881e-07
1.00738e-07
9.95139e-08
9.82126e-08
9.68399e-08
9.54015e-08
9.39031e-08
9.23496e-08
9.07375e-08
8.90808e-08
8.73882e-08
8.56664e-08
5.68578e-08
5.81443e-08
5.94119e-08
6.0666e-08
6.19042e-08
6.31224e-08
6.43158e-08
6.54781e-08
6.65992e-08
6.76814e-08
6.8721e-08
6.97139e-08
7.06559e-08
7.15428e-08
7.23707e-08
7.31361e-08
7.38352e-08
7.44651e-08
7.50228e-08
7.55058e-08
7.59116e-08
7.62385e-08
7.64839e-08
7.66475e-08
7.67293e-08
7.67293e-08
7.66475e-08
7.64839e-08
7.62385e-08
7.59116e-08
7.55057e-08
7.50228e-08
7.44651e-08
7.38352e-08
7.3136e-08
7.23707e-08
7.15428e-08
7.06558e-08
6.97139e-08
6.8721e-08
6.76814e-08
6.65992e-08
6.54781e-08
6.43158e-08
6.31224e-08
6.19042e-08
6.0666e-08
3.8499e-08
3.93756e-08
4.02393e-08
4.10944e-08
4.19391e-08
4.27706e-08
4.35857e-08
4.43799e-08
4.51464e-08
4.58867e-08
4.65982e-08
4.72781e-08
4.79234e-08
4.85313e-08
4.9099e-08
4.9624e-08
5.01038e-08
5.05362e-08
5.09191e-08
5.12508e-08
5.15297e-08
5.17542e-08
5.19229e-08
5.20353e-08
5.20916e-08
5.20916e-08
5.20353e-08
5.19229e-08
5.17542e-08
5.15296e-08
5.12508e-08
5.09191e-08
5.05362e-08
5.01038e-08
4.9624e-08
4.9099e-08
4.85313e-08
4.79234e-08
4.72781e-08
4.65982e-08
4.58867e-08
4.51464e-08
4.43799e-08
4.35857e-08
4.27706e-08
4.19391e-08
4.10944e-08
2.47223e-08
2.52847e-08
2.58388e-08
2.63875e-08
2.69297e-08
2.74635e-08
2.7987e-08
2.84972e-08
2.89897e-08
2.94655e-08
2.9923e-08
3.03602e-08
3.07753e-08
3.11664e-08
3.15318e-08
3.18697e-08
3.21786e-08
3.2457e-08
3.27037e-08
3.29173e-08
3.3097e-08
3.32417e-08
3.33503e-08
3.34228e-08
3.3459e-08
3.3459e-08
3.34228e-08
3.33503e-08
3.32416e-08
3.3097e-08
3.29173e-08
3.27037e-08
3.2457e-08
3.21786e-08
3.18697e-08
3.15318e-08
3.11664e-08
3.07753e-08
3.03602e-08
2.99229e-08
2.94655e-08
2.89897e-08
2.84971e-08
2.79869e-08
2.74635e-08
2.69296e-08
2.63875e-08
2.58388e-08
1.48511e-08
1.51864e-08
1.55166e-08
1.58435e-08
1.61666e-08
1.64847e-08
1.67967e-08
1.71007e-08
1.73943e-08
1.76779e-08
1.79505e-08
1.82111e-08
1.84586e-08
1.86918e-08
1.89096e-08
1.91111e-08
1.92953e-08
1.94613e-08
1.96084e-08
1.97358e-08
1.98429e-08
1.99292e-08
1.99941e-08
2.00372e-08
2.00589e-08
2.00589e-08
2.00372e-08
1.99941e-08
1.99292e-08
1.98429e-08
1.97358e-08
1.96084e-08
1.94613e-08
1.92953e-08
1.91111e-08
1.89096e-08
1.86918e-08
1.84586e-08
1.82111e-08
1.79505e-08
1.76778e-08
1.73943e-08
1.71007e-08
1.67967e-08
1.64848e-08
1.61666e-08
1.58435e-08
1.55166e-08
8.16929e-09
8.35092e-09
8.52965e-09
8.70659e-09
8.8814e-09
9.0535e-09
9.22223e-09
9.38666e-09
9.54537e-09
9.69867e-09
9.84606e-09
9.98692e-09
1.01206e-08
1.02466e-08
1.03643e-08
1.04732e-08
1.05727e-08
1.06624e-08
1.07419e-08
1.08107e-08
1.08686e-08
1.09152e-08
1.09502e-08
1.09735e-08
1.09852e-08
1.09852e-08
1.09735e-08
1.09502e-08
1.09152e-08
1.08686e-08
1.08107e-08
1.07419e-08
1.06624e-08
1.05727e-08
1.04732e-08
1.03643e-08
1.02466e-08
1.01206e-08
9.98691e-09
9.84605e-09
9.69867e-09
9.54537e-09
9.38666e-09
9.22223e-09
9.05351e-09
8.8814e-09
8.70659e-09
8.52965e-09
3.97313e-09
4.05922e-09
4.14383e-09
4.22755e-09
4.31023e-09
4.3916e-09
4.47134e-09
4.54901e-09
4.62395e-09
4.6963e-09
4.76584e-09
4.83229e-09
4.89535e-09
4.95476e-09
5.01024e-09
5.06154e-09
5.10843e-09
5.15068e-09
5.18811e-09
5.22053e-09
5.24778e-09
5.26973e-09
5.28621e-09
5.29719e-09
5.30269e-09
5.30269e-09
5.29719e-09
5.28621e-09
5.26973e-09
5.24778e-09
5.22053e-09
5.18811e-09
5.15068e-09
5.10843e-09
5.06154e-09
5.01024e-09
4.95476e-09
4.89535e-09
4.83229e-09
4.76584e-09
4.6963e-09
4.62394e-09
4.54901e-09
4.47133e-09
4.3916e-09
4.31023e-09
4.22755e-09
4.14383e-09
1.6058e-09
1.6391e-09
1.67177e-09
1.70407e-09
1.73593e-09
1.76727e-09
1.79796e-09
1.82784e-09
1.85663e-09
1.88441e-09
1.9111e-09
1.93659e-09
1.96077e-09
1.98353e-09
2.00478e-09
2.02443e-09
2.04238e-09
2.05855e-09
2.07286e-09
2.08526e-09
2.09568e-09
2.10407e-09
2.11037e-09
2.11457e-09
2.11667e-09
2.11667e-09
2.11457e-09
2.11037e-09
2.10407e-09
2.09568e-09
2.08526e-09
2.07286e-09
2.05855e-09
2.04238e-09
2.02443e-09
2.00478e-09
1.98353e-09
1.96077e-09
1.93659e-09
1.9111e-09
1.88441e-09
1.85663e-09
1.82784e-09
1.79796e-09
1.76727e-09
1.73593e-09
1.70406e-09
1.67177e-09
4.77393e-10
4.865e-10
4.95408e-10
5.042e-10
5.12862e-10
5.21368e-10
5.29688e-10
5.37775e-10
5.45555e-10
5.53054e-10
5.60249e-10
5.67114e-10
5.7362e-10
5.79741e-10
5.8545e-10
5.90724e-10
5.95539e-10
5.99875e-10
6.03712e-10
6.07033e-10
6.09823e-10
6.12069e-10
6.13754e-10
6.14876e-10
6.15437e-10
6.15437e-10
6.14875e-10
6.13754e-10
6.12069e-10
6.09823e-10
6.07033e-10
6.03712e-10
5.99875e-10
5.95539e-10
5.90724e-10
5.8545e-10
5.79741e-10
5.7362e-10
5.67114e-10
5.60249e-10
5.53053e-10
5.45555e-10
5.37774e-10
5.29688e-10
5.21369e-10
5.12862e-10
5.04199e-10
4.95408e-10
7.90242e-11
8.0263e-11
8.14665e-11
8.265e-11
8.38124e-11
8.49506e-11
8.60606e-11
8.71362e-11
8.81668e-11
8.91575e-11
9.01061e-11
9.10093e-11
9.18636e-11
9.26659e-11
9.34131e-11
9.41022e-11
9.47306e-11
9.52956e-11
9.57951e-11
9.6227e-11
9.65896e-11
9.68812e-11
9.70997e-11
9.72449e-11
9.73175e-11
9.73175e-11
9.72449e-11
9.70997e-11
9.68812e-11
9.65896e-11
9.6227e-11
9.57951e-11
9.52956e-11
9.47306e-11
9.41022e-11
9.34131e-11
9.26659e-11
9.18636e-11
9.10093e-11
9.01061e-11
8.91575e-11
8.81667e-11
8.71362e-11
8.60605e-11
8.49506e-11
8.38124e-11
8.265e-11
8.14665e-11
3.47131e-12
3.50048e-12
3.52816e-12
3.55512e-12
3.58142e-12
3.60701e-12
3.63181e-12
3.65566e-12
3.67821e-12
3.69977e-12
3.72031e-12
3.7398e-12
3.75816e-12
3.77535e-12
3.79131e-12
3.80599e-12
3.81934e-12
3.83131e-12
3.84188e-12
3.85099e-12
3.85863e-12
3.86477e-12
3.86934e-12
3.87235e-12
3.87386e-12
3.87386e-12
3.87235e-12
3.86934e-12
3.86477e-12
3.85863e-12
3.85099e-12
3.84187e-12
3.83131e-12
3.81934e-12
3.80599e-12
3.79131e-12
3.77535e-12
3.75816e-12
3.7398e-12
3.72031e-12
3.69977e-12
3.67821e-12
3.65566e-12
3.63181e-12
3.60701e-12
3.58142e-12
3.55512e-12
3.52816e-12
1.23208e-06
1.22539e-06
1.21807e-06
1.21007e-06
1.20136e-06
1.19188e-06
1.18159e-06
1.17043e-06
1.15833e-06
1.14523e-06
1.13107e-06
1.11575e-06
1.09922e-06
1.08136e-06
1.06211e-06
1.04135e-06
1.01899e-06
9.94923e-07
9.6904e-07
9.41236e-07
9.11406e-07
8.79449e-07
8.45277e-07
8.08816e-07
7.70012e-07
7.28841e-07
6.85298e-07
6.39327e-07
5.91004e-07
5.40573e-07
4.88437e-07
4.35177e-07
3.81562e-07
3.28537e-07
2.77181e-07
2.28623e-07
1.8393e-07
1.43983e-07
1.09376e-07
8.03619e-08
5.68578e-08
3.8499e-08
2.47223e-08
1.48511e-08
8.16929e-09
3.97313e-09
1.6058e-09
4.77393e-10
7.90242e-11
3.47131e-12
1.23359e-06
1.22703e-06
1.21985e-06
1.212e-06
1.20345e-06
1.19413e-06
1.18401e-06
1.17302e-06
1.1611e-06
1.14819e-06
1.13422e-06
1.11911e-06
1.10278e-06
1.08514e-06
1.06611e-06
1.04558e-06
1.02345e-06
9.99615e-07
9.7397e-07
9.46403e-07
9.16806e-07
8.85078e-07
8.51123e-07
8.14863e-07
7.76241e-07
7.35224e-07
6.91804e-07
6.45931e-07
5.97658e-07
5.47207e-07
4.94964e-07
4.41495e-07
3.87559e-07
3.341e-07
2.82205e-07
2.33025e-07
1.87658e-07
1.47026e-07
1.11762e-07
8.21552e-08
5.81443e-08
3.93756e-08
2.52847e-08
1.51864e-08
8.35092e-09
4.05922e-09
1.6391e-09
4.865e-10
8.0263e-11
3.50048e-12
1.23495e-06
1.22853e-06
1.22149e-06
1.21379e-06
1.20538e-06
1.19622e-06
1.18626e-06
1.17544e-06
1.16369e-06
1.15097e-06
1.13718e-06
1.12227e-06
1.10614e-06
1.08872e-06
1.0699e-06
1.04959e-06
1.02768e-06
1.00408e-06
9.78668e-07
9.51333e-07
9.21966e-07
8.90461e-07
8.56721e-07
8.20661e-07
7.8222e-07
7.41358e-07
6.98063e-07
6.52294e-07
6.0408e-07
5.53619e-07
5.01283e-07
4.47624e-07
3.93389e-07
3.39521e-07
2.87112e-07
2.37333e-07
1.91314e-07
1.50014e-07
1.1411e-07
8.39209e-08
5.94119e-08
4.02393e-08
2.58388e-08
1.55166e-08
8.52965e-09
4.14383e-09
1.67177e-09
4.95408e-10
8.14665e-11
3.52816e-12
1.23621e-06
1.22992e-06
1.22301e-06
1.21545e-06
1.20719e-06
1.19818e-06
1.18837e-06
1.17772e-06
1.16614e-06
1.15359e-06
1.13999e-06
1.12527e-06
1.10934e-06
1.09212e-06
1.07351e-06
1.05341e-06
1.03173e-06
1.00835e-06
9.83164e-07
9.56056e-07
9.26914e-07
8.95629e-07
8.621e-07
8.2624e-07
7.87978e-07
7.47273e-07
7.04107e-07
6.58445e-07
6.10296e-07
5.59836e-07
5.07422e-07
4.53589e-07
3.99076e-07
3.44819e-07
2.91919e-07
2.41563e-07
1.94911e-07
1.52961e-07
1.16427e-07
8.56664e-08
6.0666e-08
4.10944e-08
2.63875e-08
1.58435e-08
8.70659e-09
4.22755e-09
1.70407e-09
5.042e-10
8.265e-11
3.55512e-12
1.23737e-06
1.23121e-06
1.22443e-06
1.21701e-06
1.20889e-06
1.20003e-06
1.19037e-06
1.17987e-06
1.16846e-06
1.15609e-06
1.14266e-06
1.12812e-06
1.11238e-06