/*--------------------------------*- C++ -*----------------------------------*\
  =========                 |
  \\      /  F ield         | OpenFOAM: The Open Source CFD Toolbox
   \\    /   O peration     | Website:  https://openfoam.org
    \\  /    A nd           | Version:  7
     \\/     M anipulation  |
\*---------------------------------------------------------------------------*/
FoamFile
{
    version     2.0;
    format      ascii;
    class       volScalarField;
    location    "8000";
    object      k;
}
// * * * * * * * * * * * * * * * * * * * * * * * * * * * * * * * * * * * * * //

dimensions      [0 2 -2 0 0 0 0];

internalField   nonuniform List<scalar> 
1762
(
1.28297e-06
1.27973e-06
1.27651e-06
1.27331e-06
1.2702e-06
1.26723e-06
1.26442e-06
1.26184e-06
1.25951e-06
1.25746e-06
1.2557e-06
1.25428e-06
1.28853e-06
1.28547e-06
1.28243e-06
1.2794e-06
1.27645e-06
1.27363e-06
1.27097e-06
1.26851e-06
1.26629e-06
1.26434e-06
1.26266e-06
1.26131e-06
1.29363e-06
1.29076e-06
1.2879e-06
1.28505e-06
1.28225e-06
1.27959e-06
1.27706e-06
1.27473e-06
1.27263e-06
1.27077e-06
1.26918e-06
1.26789e-06
1.29827e-06
1.29559e-06
1.29292e-06
1.29023e-06
1.28761e-06
1.28509e-06
1.28271e-06
1.28051e-06
1.27852e-06
1.27676e-06
1.27526e-06
1.27403e-06
1.30244e-06
1.29995e-06
1.29746e-06
1.29495e-06
1.29249e-06
1.29013e-06
1.2879e-06
1.28583e-06
1.28395e-06
1.28229e-06
1.28087e-06
1.27972e-06
1.30612e-06
1.30382e-06
1.30152e-06
1.29919e-06
1.2969e-06
1.2947e-06
1.29261e-06
1.29067e-06
1.28891e-06
1.28735e-06
1.28601e-06
1.28493e-06
1.3093e-06
1.3072e-06
1.30509e-06
1.30294e-06
1.30082e-06
1.29878e-06
1.29683e-06
1.29502e-06
1.29338e-06
1.29192e-06
1.29067e-06
1.28966e-06
1.31197e-06
1.31007e-06
1.30814e-06
1.30618e-06
1.30423e-06
1.30235e-06
1.30056e-06
1.29888e-06
1.29735e-06
1.296e-06
1.29484e-06
1.3141e-06
1.3124e-06
1.31067e-06
1.30889e-06
1.30712e-06
1.3054e-06
1.30376e-06
1.30222e-06
1.30081e-06
1.29956e-06
1.29849e-06
1.31569e-06
1.31419e-06
1.31266e-06
1.31106e-06
1.30946e-06
1.30791e-06
1.30642e-06
1.30502e-06
1.30374e-06
1.30259e-06
1.30161e-06
1.3167e-06
1.31541e-06
1.31407e-06
1.31267e-06
1.31125e-06
1.30987e-06
1.30854e-06
1.30727e-06
1.30611e-06
1.30508e-06
1.30418e-06
1.31712e-06
1.31604e-06
1.3149e-06
1.31369e-06
1.31246e-06
1.31125e-06
1.31007e-06
1.30895e-06
1.30791e-06
1.30699e-06
1.30619e-06
1.31691e-06
1.31605e-06
1.31511e-06
1.31411e-06
1.31306e-06
1.31202e-06
1.31101e-06
1.31003e-06
1.30912e-06
1.30831e-06
1.3076e-06
1.31606e-06
1.31541e-06
1.31469e-06
1.31389e-06
1.31302e-06
1.31217e-06
1.31132e-06
1.31049e-06
1.30971e-06
1.30901e-06
1.3084e-06
1.31453e-06
1.31411e-06
1.3136e-06
1.313e-06
1.31233e-06
1.31166e-06
1.31098e-06
1.31031e-06
1.30965e-06
1.30907e-06
1.30856e-06
1.31229e-06
1.31209e-06
1.31181e-06
1.31142e-06
1.31095e-06
1.31046e-06
1.30995e-06
1.30944e-06
1.30892e-06
1.30845e-06
1.30804e-06
1.3093e-06
1.30934e-06
1.30928e-06
1.30911e-06
1.30884e-06
1.30854e-06
1.30821e-06
1.30785e-06
1.30747e-06
1.30712e-06
1.30681e-06
1.30552e-06
1.3058e-06
1.30597e-06
1.30602e-06
1.30596e-06
1.30586e-06
1.30571e-06
1.30551e-06
1.30527e-06
1.30504e-06
1.30484e-06
1.30091e-06
1.30143e-06
1.30184e-06
1.30212e-06
1.30228e-06
1.30238e-06
1.3024e-06
1.30237e-06
1.30228e-06
1.30218e-06
1.30208e-06
1.29541e-06
1.29619e-06
1.29684e-06
1.29736e-06
1.29774e-06
1.29804e-06
1.29825e-06
1.2984e-06
1.29845e-06
1.29848e-06
1.29849e-06
1.28897e-06
1.29001e-06
1.29092e-06
1.29169e-06
1.29229e-06
1.2928e-06
1.29321e-06
1.29353e-06
1.29373e-06
1.29389e-06
1.29402e-06
1.28152e-06
1.28284e-06
1.28402e-06
1.28503e-06
1.28587e-06
1.28659e-06
1.28721e-06
1.2877e-06
1.28807e-06
1.28837e-06
1.28861e-06
1.27301e-06
1.27461e-06
1.27606e-06
1.27734e-06
1.27841e-06
1.27936e-06
1.28018e-06
1.28087e-06
1.28139e-06
1.28183e-06
1.2822e-06
1.26335e-06
1.26525e-06
1.26698e-06
1.26852e-06
1.26985e-06
1.27103e-06
1.27206e-06
1.27294e-06
1.27364e-06
1.27422e-06
1.27471e-06
1.25246e-06
1.25467e-06
1.25669e-06
1.25851e-06
1.2601e-06
1.26152e-06
1.26277e-06
1.26385e-06
1.26472e-06
1.26545e-06
1.24025e-06
1.24277e-06
1.2451e-06
1.2472e-06
1.24907e-06
1.25073e-06
1.25221e-06
1.25349e-06
1.25455e-06
1.25544e-06
1.2266e-06
1.22945e-06
1.2321e-06
1.2345e-06
1.23665e-06
1.23857e-06
1.24028e-06
1.24178e-06
1.24303e-06
1.24408e-06
1.2114e-06
1.2146e-06
1.21758e-06
1.22029e-06
1.22273e-06
1.22492e-06
1.22688e-06
1.2286e-06
1.23004e-06
1.23126e-06
1.19452e-06
1.19808e-06
1.2014e-06
1.20444e-06
1.20719e-06
1.20965e-06
1.21187e-06
1.21381e-06
1.21546e-06
1.21686e-06
1.17581e-06
1.17975e-06
1.18342e-06
1.1868e-06
1.18987e-06
1.19262e-06
1.19511e-06
1.19729e-06
1.19915e-06
1.20073e-06
1.15509e-06
1.15943e-06
1.16348e-06
1.16721e-06
1.17061e-06
1.17367e-06
1.17643e-06
1.17886e-06
1.18094e-06
1.18272e-06
1.13219e-06
1.13694e-06
1.14138e-06
1.14548e-06
1.14923e-06
1.1526e-06
1.15565e-06
1.15834e-06
1.16066e-06
1.16264e-06
1.1069e-06
1.11208e-06
1.11692e-06
1.12141e-06
1.12551e-06
1.12922e-06
1.13257e-06
1.13553e-06
1.13809e-06
1.14028e-06
1.07898e-06
1.0846e-06
1.08987e-06
1.09475e-06
1.09924e-06
1.10329e-06
1.10695e-06
1.1102e-06
1.11301e-06
1.11541e-06
1.04817e-06
1.05426e-06
1.05996e-06
1.06526e-06
1.07013e-06
1.07454e-06
1.07853e-06
1.08208e-06
1.08515e-06
1.08778e-06
1.01418e-06
1.02075e-06
1.02691e-06
1.03264e-06
1.03791e-06
1.0427e-06
1.04702e-06
1.05087e-06
1.05422e-06
1.05708e-06
9.76705e-07
9.83773e-07
9.90396e-07
9.96563e-07
1.00225e-06
1.00742e-06
1.01209e-06
1.01626e-06
1.01989e-06
1.02299e-06
9.35406e-07
9.42974e-07
9.50069e-07
9.56684e-07
9.62791e-07
9.6835e-07
9.73387e-07
9.77876e-07
9.81795e-07
9.85149e-07
8.89931e-07
8.97998e-07
9.05565e-07
9.12629e-07
9.19157e-07
9.25113e-07
9.30511e-07
9.35328e-07
9.39541e-07
9.43148e-07
8.39931e-07
8.48478e-07
8.56507e-07
8.6401e-07
8.70955e-07
8.77302e-07
8.83058e-07
8.88199e-07
8.92705e-07
8.96566e-07
7.85083e-07
7.94077e-07
8.02539e-07
8.10455e-07
8.17795e-07
8.24515e-07
8.30617e-07
8.36071e-07
8.40861e-07
8.44967e-07
7.25138e-07
7.34521e-07
7.43361e-07
7.51642e-07
7.59337e-07
7.66392e-07
7.72811e-07
7.78553e-07
7.83603e-07
7.87939e-07
6.60004e-07
6.69675e-07
6.78805e-07
6.87371e-07
6.95351e-07
7.0268e-07
7.09361e-07
7.15345e-07
7.20614e-07
7.25149e-07
5.89852e-07
5.99662e-07
6.08944e-07
6.17674e-07
6.25826e-07
6.33331e-07
6.40185e-07
6.46336e-07
6.5176e-07
6.56437e-07
5.1528e-07
5.25017e-07
5.34254e-07
5.42968e-07
5.51128e-07
5.58664e-07
5.65558e-07
5.71761e-07
5.77241e-07
5.81974e-07
4.37511e-07
4.46893e-07
4.55822e-07
4.64277e-07
4.72219e-07
4.79579e-07
4.86331e-07
4.92422e-07
4.97816e-07
5.02483e-07
3.58584e-07
3.67267e-07
3.75565e-07
3.83456e-07
3.90897e-07
3.9782e-07
4.04191e-07
4.09956e-07
4.15076e-07
4.19517e-07
2.81417e-07
2.8904e-07
2.96358e-07
3.0335e-07
3.09974e-07
3.16161e-07
3.21878e-07
3.27069e-07
3.31692e-07
3.35714e-07
2.09592e-07
2.15848e-07
2.21882e-07
2.27676e-07
2.33191e-07
2.38365e-07
2.43165e-07
2.4754e-07
2.51449e-07
2.54861e-07
1.46719e-07
1.51447e-07
1.56027e-07
1.60446e-07
1.64671e-07
1.68652e-07
1.72359e-07
1.75751e-07
1.78792e-07
1.81453e-07
9.55161e-08
9.8762e-08
1.01917e-07
1.04973e-07
1.07905e-07
1.10677e-07
1.13268e-07
1.15646e-07
1.17784e-07
1.19659e-07
5.7061e-08
5.90569e-08
6.10008e-08
6.28888e-08
6.47049e-08
6.64266e-08
6.80392e-08
6.95223e-08
7.08583e-08
7.20329e-08
3.06471e-08
3.17262e-08
3.27779e-08
3.38006e-08
3.47856e-08
3.57207e-08
3.65976e-08
3.7405e-08
3.81331e-08
3.87739e-08
1.4277e-08
1.47726e-08
1.52552e-08
1.57247e-08
1.61769e-08
1.66063e-08
1.7009e-08
1.73799e-08
1.77145e-08
1.80089e-08
5.38698e-09
5.56685e-09
5.74169e-09
5.91158e-09
6.07512e-09
6.23026e-09
6.3757e-09
6.50955e-09
6.63022e-09
6.73638e-09
1.42656e-09
1.4704e-09
1.51285e-09
1.554e-09
1.59353e-09
1.63095e-09
1.66597e-09
1.69815e-09
1.72711e-09
1.75256e-09
1.88401e-10
1.93112e-10
1.97634e-10
2.01994e-10
2.06163e-10
2.10091e-10
2.13752e-10
2.17104e-10
2.2011e-10
2.22743e-10
5.19603e-12
5.2621e-12
5.32382e-12
5.38256e-12
5.43816e-12
5.48996e-12
5.53789e-12
5.58138e-12
5.62004e-12
5.65366e-12
1.25243e-06
1.25207e-06
1.25204e-06
1.25241e-06
1.25315e-06
1.25424e-06
1.25567e-06
1.25744e-06
1.2595e-06
1.26186e-06
1.26444e-06
1.26725e-06
1.27023e-06
1.27333e-06
1.27652e-06
1.27974e-06
1.28298e-06
1.25954e-06
1.2592e-06
1.25917e-06
1.25952e-06
1.26023e-06
1.26126e-06
1.26263e-06
1.26432e-06
1.26628e-06
1.26852e-06
1.27098e-06
1.27365e-06
1.27648e-06
1.27942e-06
1.28244e-06
1.28548e-06
1.28853e-06
1.26622e-06
1.26588e-06
1.26587e-06
1.2662e-06
1.26687e-06
1.26785e-06
1.26915e-06
1.27076e-06
1.27262e-06
1.27475e-06
1.27708e-06
1.27961e-06
1.28229e-06
1.28507e-06
1.28792e-06
1.29077e-06
1.29364e-06
1.27525e-06
1.274e-06
1.27307e-06
1.27245e-06
1.27213e-06
1.27211e-06
1.27243e-06
1.27306e-06
1.274e-06
1.27522e-06
1.27675e-06
1.27851e-06
1.28052e-06
1.28273e-06
1.28511e-06
1.28764e-06
1.29026e-06
1.29293e-06
1.2956e-06
1.29828e-06
1.28086e-06
1.27969e-06
1.27881e-06
1.27822e-06
1.27792e-06
1.2779e-06
1.2782e-06
1.2788e-06
1.27968e-06
1.28084e-06
1.28228e-06
1.28394e-06
1.28584e-06
1.28792e-06
1.29015e-06
1.29253e-06
1.29498e-06
1.29748e-06
1.29997e-06
1.30245e-06
1.28601e-06
1.2849e-06
1.28407e-06
1.28352e-06
1.28324e-06
1.28322e-06
1.28351e-06
1.28407e-06
1.28489e-06
1.28599e-06
1.28734e-06
1.2889e-06
1.29068e-06
1.29262e-06
1.29472e-06
1.29694e-06
1.29922e-06
1.30154e-06
1.30384e-06
1.30613e-06
1.29067e-06
1.28963e-06
1.28886e-06
1.28834e-06
1.28807e-06
1.28807e-06
1.28833e-06
1.28885e-06
1.28963e-06
1.29065e-06
1.29191e-06
1.29337e-06
1.29503e-06
1.29684e-06
1.29879e-06
1.30086e-06
1.30297e-06
1.30511e-06
1.30723e-06
1.30932e-06
1.29483e-06
1.29387e-06
1.29315e-06
1.29267e-06
1.29242e-06
1.29241e-06
1.29266e-06
1.29314e-06
1.29387e-06
1.29482e-06
1.29599e-06
1.29734e-06
1.29889e-06
1.30056e-06
1.30236e-06
1.30427e-06
1.3062e-06
1.30817e-06
1.31009e-06
1.31199e-06
1.29848e-06
1.29759e-06
1.29693e-06
1.29648e-06
1.29626e-06
1.29625e-06
1.29648e-06
1.29693e-06
1.29759e-06
1.29847e-06
1.29955e-06
1.3008e-06
1.30223e-06
1.30376e-06
1.30541e-06
1.30716e-06
1.30891e-06
1.31069e-06
1.31243e-06
1.31412e-06
1.30161e-06
1.30079e-06
1.30018e-06
1.29977e-06
1.29956e-06
1.29956e-06
1.29977e-06
1.30018e-06
1.30078e-06
1.3016e-06
1.30259e-06
1.30373e-06
1.30503e-06
1.30643e-06
1.30793e-06
1.30951e-06
1.31108e-06
1.31268e-06
1.31421e-06
1.3157e-06
1.30418e-06
1.30344e-06
1.30288e-06
1.30251e-06
1.30232e-06
1.30232e-06
1.30251e-06
1.30288e-06
1.30343e-06
1.30417e-06
1.30507e-06
1.30611e-06
1.30728e-06
1.30854e-06
1.30988e-06
1.31129e-06
1.31269e-06
1.31409e-06
1.31543e-06
1.31671e-06
1.30619e-06
1.30552e-06
1.30502e-06
1.30469e-06
1.30452e-06
1.30452e-06
1.30469e-06
1.30502e-06
1.30551e-06
1.30618e-06
1.30698e-06
1.30791e-06
1.30896e-06
1.31007e-06
1.31126e-06
1.3125e-06
1.31371e-06
1.31492e-06
1.31605e-06
1.31713e-06
1.3076e-06
1.30701e-06
1.30657e-06
1.30628e-06
1.30613e-06
1.30613e-06
1.30627e-06
1.30657e-06
1.30701e-06
1.30759e-06
1.3083e-06
1.30912e-06
1.31004e-06
1.31101e-06
1.31203e-06
1.3131e-06
1.31413e-06
1.31514e-06
1.31606e-06
1.31692e-06
1.3084e-06
1.30789e-06
1.30751e-06
1.30726e-06
1.30713e-06
1.30712e-06
1.30725e-06
1.30751e-06
1.30788e-06
1.30839e-06
1.309e-06
1.30971e-06
1.3105e-06
1.31132e-06
1.31218e-06
1.31307e-06
1.31391e-06
1.31471e-06
1.31542e-06
1.31607e-06
1.30856e-06
1.30813e-06
1.30781e-06
1.30759e-06
1.30748e-06
1.30747e-06
1.30759e-06
1.3078e-06
1.30811e-06
1.30855e-06
1.30906e-06
1.30965e-06
1.3103e-06
1.31097e-06
1.31167e-06
1.31238e-06
1.31302e-06
1.31362e-06
1.31411e-06
1.31453e-06
1.30803e-06
1.30769e-06
1.30743e-06
1.30726e-06
1.30717e-06
1.30716e-06
1.30725e-06
1.30743e-06
1.30768e-06
1.30803e-06
1.30844e-06
1.30891e-06
1.30943e-06
1.30995e-06
1.31048e-06
1.311e-06
1.31144e-06
1.31183e-06
1.3121e-06
1.31229e-06
1.30681e-06
1.30655e-06
1.30635e-06
1.30622e-06
1.30615e-06
1.30614e-06
1.30621e-06
1.30635e-06
1.30653e-06
1.30681e-06
1.30712e-06
1.30746e-06
1.30784e-06
1.3082e-06
1.30856e-06
1.30889e-06
1.30913e-06
1.3093e-06
1.30934e-06
1.3093e-06
1.30483e-06
1.30466e-06
1.30452e-06
1.30444e-06
1.30439e-06
1.30438e-06
1.30443e-06
1.30452e-06
1.30465e-06
1.30484e-06
1.30504e-06
1.30526e-06
1.3055e-06
1.3057e-06
1.30588e-06
1.30602e-06
1.30604e-06
1.30599e-06
1.3058e-06
1.30552e-06
1.30208e-06
1.30199e-06
1.30192e-06
1.30188e-06
1.30185e-06
1.30184e-06
1.30187e-06
1.30191e-06
1.30197e-06
1.30208e-06
1.30218e-06
1.30227e-06
1.30236e-06
1.3024e-06
1.30239e-06
1.30234e-06
1.30214e-06
1.30187e-06
1.30143e-06
1.3009e-06
1.29849e-06
1.29849e-06
1.29848e-06
1.29849e-06
1.29848e-06
1.29848e-06
1.29848e-06
1.29848e-06
1.29847e-06
1.29849e-06
1.29848e-06
1.29844e-06
1.29838e-06
1.29825e-06
1.29806e-06
1.2978e-06
1.29738e-06
1.29687e-06
1.29619e-06
1.2954e-06
1.29402e-06
1.29411e-06
1.29417e-06
1.29422e-06
1.29423e-06
1.29423e-06
1.29421e-06
1.29417e-06
1.29409e-06
1.29402e-06
1.2939e-06
1.29372e-06
1.29351e-06
1.2932e-06
1.29282e-06
1.29234e-06
1.29171e-06
1.29095e-06
1.29001e-06
1.28896e-06
1.28861e-06
1.28879e-06
1.28892e-06
1.28902e-06
1.28905e-06
1.28905e-06
1.28901e-06
1.28892e-06
1.28878e-06
1.28861e-06
1.28838e-06
1.28805e-06
1.28768e-06
1.2872e-06
1.28662e-06
1.28592e-06
1.28505e-06
1.28404e-06
1.28284e-06
1.28152e-06
1.28219e-06
1.28248e-06
1.28268e-06
1.28282e-06
1.28288e-06
1.28288e-06
1.28281e-06
1.28268e-06
1.28246e-06
1.2822e-06
1.28184e-06
1.28137e-06
1.28084e-06
1.28017e-06
1.27939e-06
1.27847e-06
1.27736e-06
1.27609e-06
1.27461e-06
1.273e-06
1.2747e-06
1.27509e-06
1.27537e-06
1.27556e-06
1.27564e-06
1.27564e-06
1.27554e-06
1.27536e-06
1.27507e-06
1.27471e-06
1.27423e-06
1.27362e-06
1.27292e-06
1.27205e-06
1.27106e-06
1.2699e-06
1.26854e-06
1.267e-06
1.26524e-06
1.26335e-06
1.26606e-06
1.26655e-06
1.26691e-06
1.26715e-06
1.26725e-06
1.26725e-06
1.26713e-06
1.2669e-06
1.26654e-06
1.26607e-06
1.26547e-06
1.2647e-06
1.26382e-06
1.26276e-06
1.26154e-06
1.26015e-06
1.25853e-06
1.25671e-06
1.25466e-06
1.25246e-06
1.25618e-06
1.25677e-06
1.25721e-06
1.2575e-06
1.25764e-06
1.25763e-06
1.25749e-06
1.25721e-06
1.25676e-06
1.25619e-06
1.25545e-06
1.25453e-06
1.25347e-06
1.2522e-06
1.25076e-06
1.24912e-06
1.24723e-06
1.24512e-06
1.24276e-06
1.24024e-06
1.24496e-06
1.24566e-06
1.24618e-06
1.24653e-06
1.24669e-06
1.24669e-06
1.24651e-06
1.24618e-06
1.24565e-06
1.24497e-06
1.24409e-06
1.24301e-06
1.24176e-06
1.24028e-06
1.2386e-06
1.2367e-06
1.23453e-06
1.23212e-06
1.22945e-06
1.22659e-06
1.23228e-06
1.2331e-06
1.23371e-06
1.23411e-06
1.2343e-06
1.2343e-06
1.23409e-06
1.23371e-06
1.23309e-06
1.2323e-06
1.23127e-06
1.23002e-06
1.22858e-06
1.22687e-06
1.22495e-06
1.22278e-06
1.22032e-06
1.2176e-06
1.2146e-06
1.21139e-06
1.21803e-06
1.21897e-06
1.21966e-06
1.22012e-06
1.22035e-06
1.22034e-06
1.22011e-06
1.21966e-06
1.21896e-06
1.21804e-06
1.21687e-06
1.21544e-06
1.2138e-06
1.21186e-06
1.20968e-06
1.20723e-06
1.20446e-06
1.20142e-06
1.19808e-06
1.19451e-06
1.20205e-06
1.20312e-06
1.2039e-06
1.20443e-06
1.20469e-06
1.20468e-06
1.20441e-06
1.20391e-06
1.20311e-06
1.20207e-06
1.20074e-06
1.19914e-06
1.19727e-06
1.1951e-06
1.19265e-06
1.1899e-06
1.18682e-06
1.18345e-06
1.17974e-06
1.17579e-06
1.1842e-06
1.18539e-06
1.18628e-06
1.18686e-06
1.18715e-06
1.18714e-06
1.18685e-06
1.18628e-06
1.18538e-06
1.18422e-06
1.18273e-06
1.18093e-06
1.17885e-06
1.17642e-06
1.1737e-06
1.17064e-06
1.16723e-06
1.16351e-06
1.15942e-06
1.15508e-06
1.16428e-06
1.1656e-06
1.16659e-06
1.16724e-06
1.16757e-06
1.16756e-06
1.16723e-06
1.1666e-06
1.1656e-06
1.1643e-06
1.16264e-06
1.16065e-06
1.15834e-06
1.15564e-06
1.15263e-06
1.14925e-06
1.1455e-06
1.14141e-06
1.13694e-06
1.13218e-06
1.1421e-06
1.14356e-06
1.14466e-06
1.14537e-06
1.14574e-06
1.14573e-06
1.14536e-06
1.14466e-06
1.14355e-06
1.14212e-06
1.14028e-06
1.13808e-06
1.13553e-06
1.13256e-06
1.12925e-06
1.12553e-06
1.12143e-06
1.11695e-06
1.11208e-06
1.10689e-06
1.11742e-06
1.11902e-06
1.12023e-06
1.12102e-06
1.12142e-06
1.12142e-06
1.12101e-06
1.12023e-06
1.11901e-06
1.11743e-06
1.11542e-06
1.11299e-06
1.1102e-06
1.10695e-06
1.10331e-06
1.09926e-06
1.09478e-06
1.0899e-06
1.0846e-06
1.07897e-06
1.08997e-06
1.09173e-06
1.09305e-06
1.09392e-06
1.09436e-06
1.09436e-06
1.09391e-06
1.09306e-06
1.09172e-06
1.08999e-06
1.08778e-06
1.08513e-06
1.08208e-06
1.07853e-06
1.07456e-06
1.07015e-06
1.06529e-06
1.05999e-06
1.05426e-06
1.04816e-06
1.05948e-06
1.06138e-06
1.06283e-06
1.06378e-06
1.06426e-06
1.06426e-06
1.06377e-06
1.06284e-06
1.06138e-06
1.05949e-06
1.05709e-06
1.0542e-06
1.05087e-06
1.04702e-06
1.04271e-06
1.03793e-06
1.03266e-06
1.02694e-06
1.02076e-06
1.01417e-06
1.02559e-06
1.02766e-06
1.02923e-06
1.03027e-06
1.03079e-06
1.03079e-06
1.03025e-06
1.02924e-06
1.02766e-06
1.02561e-06
1.023e-06
1.01987e-06
1.01626e-06
1.0121e-06
1.00743e-06
1.00226e-06
9.96587e-07
9.90428e-07
9.83775e-07
9.76699e-07
9.87955e-07
9.90196e-07
9.91887e-07
9.93016e-07
9.93579e-07
9.93583e-07
9.93002e-07
9.91903e-07
9.90198e-07
9.87971e-07
9.85155e-07
9.81779e-07
9.77877e-07
9.7339e-07
9.68368e-07
9.62803e-07
9.5671e-07
9.50101e-07
9.42978e-07
9.35401e-07
9.46167e-07
9.4858e-07
9.50401e-07
9.51619e-07
9.52225e-07
9.52229e-07
9.51603e-07
9.50418e-07
9.48585e-07
9.46183e-07
9.43155e-07
9.39526e-07
9.35331e-07
9.30514e-07
9.25129e-07
9.1917e-07
9.12656e-07
9.05595e-07
8.98005e-07
8.89926e-07
8.99799e-07
9.02384e-07
9.04334e-07
9.05641e-07
9.06291e-07
9.06294e-07
9.05624e-07
9.04352e-07
9.02389e-07
8.99815e-07
8.96575e-07
8.92692e-07
8.88204e-07
8.83062e-07
8.77316e-07
8.70968e-07
8.64037e-07
8.56536e-07
8.48489e-07
8.39925e-07
8.48407e-07
8.51162e-07
8.5324e-07
8.54634e-07
8.55326e-07
8.55326e-07
8.54615e-07
8.53258e-07
8.51167e-07
8.48425e-07
8.44977e-07
8.4085e-07
8.36078e-07
8.30619e-07
8.24528e-07
8.17808e-07
8.10482e-07
8.02563e-07
7.9409e-07
7.85076e-07
7.91573e-07
7.94486e-07
7.96683e-07
7.98158e-07
7.9889e-07
7.98889e-07
7.98139e-07
7.96702e-07
7.94491e-07
7.91589e-07
7.87949e-07
7.83594e-07
7.7856e-07
7.72812e-07
7.66406e-07
7.59349e-07
7.5167e-07
7.43381e-07
7.34535e-07
7.25132e-07
7.28949e-07
7.31997e-07
7.343e-07
7.35844e-07
7.36613e-07
7.3661e-07
7.35827e-07
7.34319e-07
7.32003e-07
7.28965e-07
7.25156e-07
7.20608e-07
7.15351e-07
7.09362e-07
7.02695e-07
6.95363e-07
6.874e-07
6.78822e-07
6.6969e-07
6.59998e-07
6.6036e-07
6.63508e-07
6.6589e-07
6.67484e-07
6.68281e-07
6.68279e-07
6.6747e-07
6.65908e-07
6.63514e-07
6.60373e-07
6.56443e-07
6.51754e-07
6.4634e-07
6.40186e-07
6.33345e-07
6.25837e-07
6.17701e-07
6.08958e-07
5.99676e-07
5.89846e-07
5.85951e-07
5.89144e-07
5.91564e-07
5.93181e-07
5.93991e-07
5.93992e-07
5.9317e-07
5.91581e-07
5.8915e-07
5.85962e-07
5.81982e-07
5.77236e-07
5.71765e-07
5.6556e-07
5.58676e-07
5.5114e-07
5.42994e-07
5.34267e-07
5.25029e-07
5.15274e-07
5.06413e-07
5.09571e-07
5.11967e-07
5.13568e-07
5.14371e-07
5.14373e-07
5.1356e-07
5.11982e-07
5.09577e-07
5.06421e-07
5.02491e-07
4.97811e-07
4.92426e-07
4.86333e-07
4.79591e-07
4.72231e-07
4.64299e-07
4.55834e-07
4.46903e-07
4.37506e-07
4.23263e-07
4.26278e-07
4.28568e-07
4.30099e-07
4.30868e-07
4.3087e-07
4.30093e-07
4.28581e-07
4.26283e-07
4.23269e-07
4.19523e-07
4.15072e-07
4.09959e-07
4.04193e-07
3.9783e-07
3.90908e-07
3.83475e-07
3.75575e-07
3.67276e-07
3.58579e-07
3.39114e-07
3.41858e-07
3.43943e-07
3.45339e-07
3.46041e-07
3.46042e-07
3.45334e-07
3.43954e-07
3.41862e-07
3.3912e-07
3.3572e-07
3.31689e-07
3.27071e-07
3.21879e-07
3.1617e-07
3.09982e-07
3.03366e-07
2.96366e-07
2.89048e-07
2.81413e-07
2.57752e-07
2.6009e-07
2.61869e-07
2.63061e-07
2.63662e-07
2.63663e-07
2.63058e-07
2.61877e-07
2.60094e-07
2.57757e-07
2.54866e-07
2.51447e-07
2.47541e-07
2.43166e-07
2.38372e-07
2.33197e-07
2.27688e-07
2.21888e-07
2.15854e-07
2.09589e-07
1.83714e-07
1.85547e-07
1.86943e-07
1.87879e-07
1.88351e-07
1.88352e-07
1.87877e-07
1.86949e-07
1.85549e-07
1.83717e-07
1.81457e-07
1.7879e-07
1.75752e-07
1.7236e-07
1.68657e-07
1.64676e-07
1.60455e-07
1.56032e-07
1.51451e-07
1.46717e-07
1.21256e-07
1.22553e-07
1.23542e-07
1.24206e-07
1.24541e-07
1.24542e-07
1.24205e-07
1.23546e-07
1.22555e-07
1.21258e-07
1.19662e-07
1.17783e-07
1.15647e-07
1.13269e-07
1.10681e-07
1.07908e-07
1.04979e-07
1.0192e-07
9.87648e-08
9.55149e-08
7.30342e-08
7.38485e-08
7.44702e-08
7.4888e-08
7.50989e-08
7.50991e-08
7.4887e-08
7.44726e-08
7.38496e-08
7.30356e-08
7.20342e-08
7.08577e-08
6.95227e-08
6.80396e-08
6.64288e-08
6.47068e-08
6.28924e-08
6.10027e-08
5.90586e-08
5.70602e-08
3.93206e-08
3.97655e-08
4.01054e-08
4.03339e-08
4.04492e-08
4.04493e-08
4.03333e-08
4.01067e-08
3.97661e-08
3.93213e-08
3.87746e-08
3.81328e-08
3.74052e-08
3.65978e-08
3.57219e-08
3.47867e-08
3.38026e-08
3.27789e-08
3.17271e-08
3.06467e-08
1.82602e-08
1.84648e-08
1.86211e-08
1.87261e-08
1.87792e-08
1.87792e-08
1.87259e-08
1.86217e-08
1.8465e-08
1.82606e-08
1.80093e-08
1.77143e-08
1.738e-08
1.70091e-08
1.66068e-08
1.61774e-08
1.57256e-08
1.52557e-08
1.4773e-08
1.42769e-08
6.82693e-09
6.90061e-09
6.95691e-09
6.99475e-09
7.01385e-09
7.01387e-09
6.99465e-09
6.95714e-09
6.90072e-09
6.82706e-09
6.7365e-09
6.63016e-09
6.50959e-09
6.37574e-09
6.23047e-09
6.0753e-09
5.91193e-09
5.74187e-09
5.56701e-09
5.38691e-09
1.77425e-09
1.79188e-09
1.80534e-09
1.81438e-09
1.81895e-09
1.81895e-09
1.81436e-09
1.8054e-09
1.7919e-09
1.77428e-09
1.75259e-09
1.7271e-09
1.69816e-09
1.66598e-09
1.631e-09
1.59357e-09
1.55409e-09
1.51289e-09
1.47044e-09
1.42654e-09
2.24982e-10
2.26797e-10
2.28183e-10
2.29112e-10
2.29581e-10
2.29582e-10
2.29109e-10
2.2819e-10
2.26801e-10
2.24986e-10
2.22748e-10
2.20108e-10
2.17105e-10
2.13754e-10
2.10097e-10
2.06169e-10
2.02006e-10
1.9764e-10
1.93118e-10
1.88399e-10
5.68212e-12
5.70504e-12
5.72257e-12
5.73426e-12
5.74019e-12
5.7402e-12
5.73419e-12
5.72275e-12
5.70512e-12
5.68222e-12
5.65376e-12
5.61999e-12
5.58141e-12
5.53792e-12
5.49014e-12
5.43832e-12
5.38286e-12
5.32397e-12
5.26225e-12
5.19596e-12
)
;

boundaryField
{
    inlet
    {
        type            cyclic;
    }
    outlet
    {
        type            cyclic;
    }
    wall
    {
        type            fixedValue;
        value           uniform 1e-30;
    }
    procBoundary3to0
    {
        type            processor;
        value           nonuniform List<scalar> 
32
(
1.24408e-06
1.23126e-06
1.21686e-06
1.20073e-06
1.18271e-06
1.16263e-06
1.14027e-06
1.11541e-06
1.08777e-06
1.05708e-06
1.02299e-06
9.85144e-07
9.43143e-07
8.9656e-07
8.44962e-07
7.87934e-07
7.25144e-07
6.56432e-07
5.8197e-07
5.02479e-07
4.19513e-07
3.35711e-07
2.54858e-07
1.81451e-07
1.19658e-07
7.20321e-08
3.87735e-08
1.80087e-08
6.7363e-09
1.75254e-09
2.22741e-10
5.6536e-12
)
;
    }
    procBoundary3to1
    {
        type            processor;
        value           nonuniform List<scalar> 
23
(
1.27675e-06
1.28228e-06
1.28734e-06
1.29192e-06
1.29599e-06
1.29955e-06
1.30259e-06
1.30507e-06
1.30698e-06
1.3083e-06
1.30901e-06
1.30906e-06
1.30845e-06
1.30712e-06
1.30504e-06
1.30217e-06
1.29848e-06
1.29389e-06
1.28836e-06
1.28183e-06
1.27421e-06
1.26545e-06
1.25543e-06
)
;
    }
    procBoundary3to2
    {
        type            processor;
        value           nonuniform List<scalar> 
60
(
1.25319e-06
1.26026e-06
1.2669e-06
1.27309e-06
1.27883e-06
1.28409e-06
1.28887e-06
1.29389e-06
1.29389e-06
1.29762e-06
1.30081e-06
1.30346e-06
1.30554e-06
1.30703e-06
1.30791e-06
1.30814e-06
1.3077e-06
1.30656e-06
1.30467e-06
1.302e-06
1.2985e-06
1.29412e-06
1.28881e-06
1.28249e-06
1.2751e-06
1.26607e-06
1.26607e-06
1.25618e-06
1.24496e-06
1.23229e-06
1.21803e-06
1.20206e-06
1.1842e-06
1.16429e-06
1.1421e-06
1.11742e-06
1.08998e-06
1.05948e-06
1.0256e-06
9.8796e-07
9.46172e-07
8.99804e-07
8.48412e-07
7.91578e-07
7.28954e-07
6.60365e-07
5.85955e-07
5.06417e-07
4.23266e-07
3.39118e-07
2.57755e-07
1.83716e-07
1.21258e-07
7.30351e-08
3.93211e-08
1.82605e-08
6.82701e-09
1.77427e-09
2.24985e-10
5.68218e-12
)
;
    }
    procBoundary3to4
    {
        type            processor;
        value           nonuniform List<scalar> 
13
(
1.24489e-06
1.24451e-06
1.24449e-06
1.24487e-06
1.24564e-06
1.24678e-06
1.24828e-06
1.25317e-06
1.26024e-06
1.26918e-06
1.26786e-06
1.26688e-06
1.26688e-06
)
;
    }
    procBoundary3to5
    {
        type            processor;
        value           nonuniform List<scalar> 
22
(
1.27698e-06
1.27355e-06
1.27015e-06
1.26678e-06
1.26351e-06
1.26039e-06
1.25745e-06
1.25474e-06
1.2523e-06
1.25015e-06
1.24832e-06
1.24683e-06
1.25013e-06
1.25229e-06
1.25476e-06
1.25746e-06
1.26041e-06
1.26354e-06
1.2668e-06
1.27016e-06
1.27356e-06
1.27699e-06
)
;
    }
}


// ************************************************************************* //
