/*--------------------------------*- C++ -*----------------------------------*\
  =========                 |
  \\      /  F ield         | OpenFOAM: The Open Source CFD Toolbox
   \\    /   O peration     | Website:  https://openfoam.org
    \\  /    A nd           | Version:  7
     \\/     M anipulation  |
\*---------------------------------------------------------------------------*/
FoamFile
{
    version     2.0;
    format      ascii;
    class       volScalarField;
    location    "8000";
    object      strainRate;
}
// * * * * * * * * * * * * * * * * * * * * * * * * * * * * * * * * * * * * * //

dimensions      [0 0 -1 0 0 0 0];

internalField   nonuniform List<scalar> 
1762
(
0.0328027
0.032296
0.0318547
0.0314426
0.0310619
0.0307136
0.0303986
0.0301175
0.0298707
0.0296588
0.0294819
0.0293401
0.0339376
0.0334149
0.0329582
0.0325319
0.0321381
0.031778
0.0314524
0.0311619
0.0309069
0.0306879
0.0305051
0.0303587
0.0351239
0.0345844
0.0341114
0.0336701
0.0332626
0.0328901
0.0325533
0.0322529
0.0319892
0.0317627
0.0315738
0.0314225
0.0363651
0.0358078
0.0353176
0.0348606
0.0344386
0.0340529
0.0337044
0.0333935
0.0331207
0.0328864
0.0326909
0.0325345
0.0376649
0.0370887
0.0365804
0.0361068
0.0356696
0.0352701
0.0349092
0.0345873
0.0343048
0.0340622
0.0338599
0.0336979
0.0390273
0.0384311
0.0379039
0.0374127
0.0369594
0.0365454
0.0361713
0.0358378
0.0355451
0.0352939
0.0350843
0.0349165
0.0404568
0.0398395
0.0392921
0.0387824
0.0383122
0.0378828
0.037495
0.0371492
0.0368457
0.0365852
0.036368
0.0361941
0.0419582
0.0413184
0.0407498
0.0402207
0.0397326
0.0392869
0.0388844
0.0385257
0.0382108
0.0379407
0.0377154
0.0435366
0.042873
0.0422821
0.0417323
0.0412254
0.0407624
0.0403446
0.0399721
0.0396452
0.0393648
0.0391309
0.0451977
0.044509
0.0438945
0.0433229
0.042796
0.0423149
0.0418806
0.0414937
0.0411541
0.0408627
0.0406198
0.046948
0.0462326
0.0455931
0.0449984
0.0444503
0.04395
0.0434984
0.043096
0.042743
0.0424401
0.0421875
0.0487942
0.0480505
0.0473845
0.0467654
0.0461949
0.0456742
0.0452041
0.0447855
0.0444182
0.044103
0.0438402
0.050744
0.0499701
0.0492761
0.048631
0.0480368
0.0474944
0.0470048
0.0465689
0.0461864
0.0458582
0.0455845
0.0528055
0.0519997
0.0512758
0.0506033
0.0499839
0.0494185
0.0489081
0.0484537
0.0480552
0.0477131
0.0474279
0.0549881
0.0541482
0.0533926
0.052691
0.0520447
0.0514549
0.0509224
0.0504483
0.0500328
0.049676
0.0493785
0.0573017
0.0564256
0.0556363
0.0549036
0.0542289
0.0536129
0.053057
0.052562
0.0521283
0.0517558
0.0514453
0.0597575
0.0588428
0.0580178
0.057252
0.0565469
0.0559032
0.0553222
0.054805
0.0543518
0.0539627
0.0536382
0.0623682
0.0614123
0.0605491
0.059748
0.0590105
0.0583372
0.0577295
0.0571885
0.0567146
0.0563077
0.0559684
0.0651473
0.0641475
0.0632436
0.0624049
0.0616328
0.0609278
0.0602917
0.0597253
0.0592292
0.0588033
0.058448
0.0681105
0.0670638
0.0661163
0.0652373
0.0644283
0.0636896
0.0630229
0.0624293
0.0619095
0.0614632
0.0610909
0.071275
0.070178
0.069184
0.0682619
0.0674134
0.0666384
0.065939
0.0653163
0.0647711
0.0643031
0.0639125
0.0746601
0.0735092
0.0724654
0.0714971
0.0706062
0.0697924
0.0690579
0.0684039
0.0678315
0.0673401
0.06693
0.0782874
0.0770788
0.0759815
0.0749637
0.0740272
0.0731717
0.0723997
0.0717121
0.0711105
0.070594
0.0701627
0.0821814
0.0809108
0.0797561
0.078685
0.0776996
0.0767993
0.0759869
0.0752632
0.0746301
0.0740865
0.0736327
0.0863696
0.0850324
0.083816
0.0826877
0.0816494
0.080701
0.0798451
0.0790825
0.0784153
0.0778427
0.0908833
0.0894745
0.0881915
0.0870014
0.0859063
0.084906
0.0840031
0.0831986
0.0824948
0.0818907
0.0957577
0.0942718
0.092917
0.0916604
0.0905038
0.0894477
0.0884939
0.0876443
0.0869008
0.0862627
0.101033
0.099464
0.0980319
0.0967033
0.0954802
0.0943637
0.093355
0.0924565
0.0916701
0.0909953
0.106756
0.105097
0.103581
0.102174
0.100879
0.0996973
0.0986293
0.0976779
0.0968451
0.0961304
0.112978
0.111221
0.109615
0.108124
0.106751
0.105498
0.104366
0.103357
0.102474
0.101716
0.119759
0.117897
0.116193
0.114611
0.113154
0.111823
0.110621
0.10955
0.108612
0.107807
0.127169
0.125194
0.123383
0.121702
0.120153
0.118739
0.117461
0.116322
0.115325
0.114469
0.135287
0.133188
0.131263
0.129474
0.127825
0.12632
0.124959
0.123747
0.122685
0.121773
0.144204
0.141972
0.139921
0.138016
0.136258
0.134654
0.133204
0.131912
0.130779
0.129807
0.154024
0.151649
0.149463
0.14743
0.145555
0.143844
0.142296
0.140917
0.139707
0.13867
0.164869
0.162338
0.160006
0.157836
0.155834
0.154006
0.152353
0.150878
0.149586
0.148476
0.176876
0.174178
0.171688
0.169371
0.167231
0.165277
0.163509
0.161932
0.160549
0.159362
0.190199
0.187324
0.184665
0.182189
0.179902
0.177812
0.175921
0.174233
0.172752
0.171481
0.205013
0.20195
0.199113
0.196469
0.194024
0.191789
0.189766
0.187959
0.186374
0.185012
0.221506
0.218249
0.215225
0.212404
0.209795
0.207406
0.205244
0.203312
0.201615
0.200158
0.239872
0.23642
0.233207
0.230206
0.227427
0.224881
0.222574
0.220512
0.218699
0.217142
0.260298
0.256658
0.25326
0.250083
0.247136
0.244433
0.241982
0.239789
0.237859
0.236201
0.282925
0.27912
0.275556
0.272218
0.269116
0.266268
0.263679
0.261362
0.259321
0.257565
0.307798
0.303873
0.300183
0.296718
0.293491
0.290522
0.28782
0.285396
0.283259
0.281417
0.334773
0.330806
0.327058
0.323528
0.320233
0.317191
0.314417
0.311924
0.309722
0.307821
0.363399
0.359506
0.355809
0.352311
0.349035
0.346001
0.343225
0.340725
0.338511
0.336595
0.392789
0.389127
0.385624
0.382295
0.379162
0.37625
0.373576
0.371159
0.369013
0.367151
0.421559
0.418303
0.415163
0.412162
0.409325
0.406674
0.404231
0.402013
0.400037
0.398318
0.447964
0.445267
0.442641
0.440118
0.437719
0.435466
0.433381
0.431481
0.429782
0.428298
0.470309
0.468246
0.466215
0.464253
0.462379
0.460613
0.458972
0.457471
0.456123
0.454942
0.487525
0.48606
0.484599
0.483182
0.481827
0.480545
0.479353
0.478259
0.477275
0.476411
0.499569
0.498577
0.497568
0.496589
0.495654
0.49477
0.493948
0.493195
0.492517
0.491921
0.507346
0.506665
0.505956
0.505268
0.504615
0.504
0.503431
0.502911
0.502444
0.502034
0.512206
0.511702
0.51116
0.510637
0.510143
0.50968
0.509255
0.508868
0.508521
0.508217
0.515394
0.514983
0.514525
0.514085
0.513671
0.513284
0.51293
0.512609
0.512322
0.512072
0.517748
0.517388
0.516975
0.516576
0.516203
0.515854
0.515536
0.515249
0.514991
0.514767
0.519668
0.519343
0.518956
0.518584
0.518235
0.517909
0.517613
0.517345
0.517105
0.516896
0.521291
0.520993
0.520626
0.520273
0.519942
0.519633
0.519353
0.519099
0.518872
0.518674
0.0291632
0.0291277
0.0291279
0.0291634
0.0292343
0.0293406
0.0294823
0.029659
0.0298709
0.0301175
0.0303985
0.0307135
0.0310618
0.0314426
0.0318547
0.0322961
0.0328027
0.030176
0.0301393
0.0301394
0.0301762
0.0302494
0.0303592
0.0305055
0.0306882
0.030907
0.0311619
0.0314523
0.0317779
0.032138
0.0325319
0.0329581
0.0334149
0.0339376
0.0312336
0.0311957
0.0311958
0.0312337
0.0313094
0.0314229
0.0315743
0.031763
0.0319893
0.0322528
0.0325531
0.0328899
0.0332625
0.03367
0.0341112
0.0345843
0.0351239
0.0326912
0.0325348
0.0324174
0.032339
0.0322999
0.0323
0.0323392
0.0324175
0.0325349
0.0326914
0.0328867
0.0331208
0.0333935
0.0337042
0.0340528
0.0344385
0.0348603
0.0353174
0.0358076
0.036365
0.0338601
0.0336983
0.0335768
0.0334957
0.0334552
0.0334552
0.0334958
0.0335768
0.0336984
0.0338604
0.0340625
0.0343049
0.0345872
0.0349089
0.0352699
0.0356695
0.0361065
0.0365802
0.0370884
0.0376648
0.0350845
0.0349169
0.034791
0.034707
0.0346651
0.0346651
0.0347071
0.0347911
0.034917
0.0350848
0.0352941
0.0355453
0.0358377
0.0361711
0.0365452
0.0369593
0.0374123
0.0379036
0.0384308
0.0390271
0.0363682
0.0361945
0.036064
0.035977
0.0359334
0.0359334
0.035977
0.036064
0.0361945
0.0363685
0.0365855
0.0368459
0.037149
0.0374947
0.0378827
0.0383121
0.0387821
0.0392918
0.039839
0.0404565
0.0377155
0.0375353
0.0373999
0.0373097
0.0372645
0.0372645
0.0373096
0.0374
0.0375353
0.0377157
0.0379409
0.038211
0.0385255
0.0388842
0.0392868
0.0397324
0.0402203
0.0407495
0.0413178
0.0419578
0.0391311
0.0389439
0.0388034
0.0387097
0.0386628
0.0386628
0.0387096
0.0388034
0.038944
0.0391312
0.039365
0.0396454
0.0399719
0.0403443
0.0407624
0.0412252
0.041732
0.0422818
0.0428725
0.0435362
0.0406199
0.0404255
0.0402795
0.0401822
0.0401334
0.0401334
0.0401821
0.0402795
0.0404255
0.0406201
0.040863
0.0411542
0.0414934
0.0418804
0.0423148
0.0427958
0.0433226
0.0438942
0.0445085
0.0451974
0.0421876
0.0419855
0.0418337
0.0417325
0.0416818
0.0416818
0.0417324
0.0418337
0.0419856
0.0421878
0.0424404
0.0427431
0.0430958
0.0434982
0.0439499
0.0444501
0.0449981
0.0455927
0.0462321
0.0469477
0.0438403
0.04363
0.0434721
0.0433667
0.043314
0.043314
0.0433667
0.0434721
0.0436301
0.0438406
0.0441034
0.0444182
0.0447852
0.045204
0.0456741
0.0461946
0.0467651
0.0473841
0.04805
0.048794
0.0455846
0.0453656
0.0452012
0.0450915
0.0450366
0.0450365
0.0450915
0.0452012
0.0453657
0.0455849
0.0458586
0.0461864
0.0465686
0.0470048
0.0474943
0.0480364
0.0486307
0.0492757
0.0499697
0.0507438
0.047428
0.0471997
0.0470283
0.046914
0.0468568
0.0468568
0.046914
0.0470285
0.0471999
0.0474283
0.0477136
0.0480552
0.0484535
0.0489081
0.0494183
0.0499834
0.0506029
0.0512754
0.0519993
0.0528053
0.0493786
0.0491405
0.0489617
0.0488424
0.0487828
0.0487828
0.0488424
0.0489619
0.0491407
0.0493789
0.0496764
0.0500327
0.0504482
0.0509224
0.0514546
0.0520441
0.0526905
0.0533923
0.0541479
0.0549879
0.0514454
0.0511968
0.0510101
0.0508855
0.0508233
0.0508234
0.0508856
0.0510103
0.051197
0.0514457
0.0517562
0.0521282
0.052562
0.053057
0.0536127
0.0542281
0.0549031
0.055636
0.0564253
0.0573015
0.0536383
0.0533785
0.0531834
0.0530532
0.0529882
0.0529883
0.0530533
0.0531836
0.0533788
0.0536386
0.053963
0.0543517
0.0548051
0.0553223
0.0559029
0.0565461
0.0572515
0.0580175
0.0588427
0.0597575
0.0559685
0.0556966
0.0554927
0.0553565
0.0552885
0.0552886
0.0553566
0.0554929
0.055697
0.0559687
0.0563079
0.0567146
0.0571887
0.0577296
0.0583369
0.0590096
0.0597474
0.0605487
0.0614122
0.0623682
0.0584481
0.0581635
0.0579501
0.0578074
0.0577363
0.0577363
0.0578075
0.0579503
0.0581639
0.0584482
0.0588034
0.0592292
0.0597256
0.0602918
0.0609275
0.0616317
0.0624042
0.0632433
0.0641475
0.0651475
0.061091
0.0607927
0.0605692
0.0604197
0.0603452
0.0603452
0.0604198
0.0605695
0.0607932
0.0610911
0.0614633
0.0619096
0.0624297
0.063023
0.0636891
0.0644271
0.0652367
0.066116
0.0670638
0.0681107
0.0639126
0.0635996
0.0633652
0.0632084
0.0631304
0.0631303
0.0632085
0.0633655
0.0636002
0.0639126
0.064303
0.0647713
0.0653169
0.0659392
0.0666378
0.067412
0.0682612
0.0691837
0.070178
0.0712752
0.06693
0.0666014
0.0663552
0.0661907
0.0661088
0.0661088
0.0661909
0.0663556
0.066602
0.06693
0.06734
0.0678319
0.0684047
0.0690582
0.0697918
0.0706047
0.0714964
0.0724651
0.0735093
0.0746602
0.0701628
0.0698174
0.0695584
0.0693857
0.0692995
0.0692996
0.0693859
0.0695589
0.0698179
0.0701628
0.0705937
0.0711109
0.0717131
0.0724
0.0731711
0.0740256
0.0749629
0.0759812
0.077079
0.0782875
0.0736327
0.0732692
0.0729967
0.0728149
0.0727243
0.0727244
0.0728151
0.0729972
0.0732696
0.0736327
0.0740862
0.0746305
0.0752642
0.0759872
0.0767987
0.0776979
0.0786843
0.0797558
0.0809111
0.0821815
0.0773646
0.0769816
0.0766943
0.0765029
0.0764075
0.0764076
0.0765032
0.0766949
0.0769819
0.0773646
0.0778423
0.0784159
0.0790836
0.0798454
0.0807003
0.0816477
0.0826868
0.0838157
0.0850328
0.0863697
0.0813864
0.0809823
0.0806793
0.0804774
0.0803768
0.0803769
0.0804777
0.0806798
0.0809826
0.0813863
0.0818904
0.0824954
0.0831997
0.0840034
0.0849053
0.0859045
0.0870006
0.0881912
0.0894748
0.0908834
0.0857301
0.0853032
0.0849831
0.08477
0.0846637
0.0846639
0.0847704
0.0849837
0.0853035
0.0857299
0.0862624
0.0869014
0.0876453
0.0884943
0.0894467
0.0905021
0.0916595
0.0929167
0.0942721
0.0957579
0.0904321
0.0899805
0.0896421
0.0894167
0.0893041
0.0893044
0.0894171
0.0896426
0.0899807
0.0904317
0.090995
0.0916708
0.0924575
0.0933553
0.0943625
0.0954786
0.0967025
0.0980315
0.0994644
0.101034
0.095534
0.0950556
0.0946973
0.0944586
0.0943393
0.0943398
0.094459
0.0946977
0.0950558
0.0955335
0.0961301
0.0968456
0.0976788
0.0986295
0.099696
0.100878
0.102174
0.10358
0.105097
0.106756
0.101084
0.100576
0.100196
0.0999432
0.0998166
0.0998171
0.0999436
0.100197
0.100576
0.101083
0.101716
0.102474
0.103358
0.104366
0.105497
0.10675
0.108124
0.109614
0.111222
0.112978
0.107136
0.106597
0.106194
0.105925
0.10579
0.105791
0.105925
0.106194
0.106597
0.107135
0.107807
0.108613
0.109551
0.110621
0.111822
0.113153
0.114611
0.116192
0.117898
0.11976
0.113754
0.113182
0.112752
0.112467
0.112324
0.112324
0.112467
0.112753
0.113182
0.113753
0.114468
0.115325
0.116322
0.117461
0.118737
0.120152
0.121701
0.123382
0.125194
0.12717
0.121013
0.120403
0.119946
0.119641
0.119489
0.119489
0.119642
0.119946
0.120403
0.121012
0.121773
0.122685
0.123747
0.124959
0.126318
0.127824
0.129473
0.131261
0.133189
0.135287
0.128996
0.128346
0.127858
0.127534
0.127371
0.127371
0.127534
0.127858
0.128346
0.128995
0.129807
0.13078
0.131912
0.133204
0.134653
0.136258
0.138015
0.13992
0.141972
0.144204
0.137803
0.13711
0.136589
0.136242
0.136068
0.136068
0.136242
0.136589
0.13711
0.137802
0.138669
0.139708
0.140916
0.142296
0.143843
0.145555
0.147429
0.149461
0.151649
0.154025
0.14755
0.146809
0.146252
0.145881
0.145695
0.145695
0.145881
0.146251
0.146809
0.147549
0.148476
0.149587
0.150878
0.152352
0.154005
0.155834
0.157835
0.160004
0.162338
0.16487
0.158371
0.157577
0.156981
0.156584
0.156385
0.156384
0.156584
0.15698
0.157577
0.158369
0.159361
0.16055
0.161932
0.163508
0.165276
0.167231
0.16937
0.171686
0.174178
0.176876
0.170419
0.16957
0.168931
0.168505
0.168292
0.168292
0.168506
0.16893
0.169569
0.170418
0.171481
0.172753
0.174232
0.17592
0.177811
0.179902
0.182188
0.184663
0.187324
0.190199
0.183875
0.182965
0.18228
0.181823
0.181595
0.181595
0.181824
0.182279
0.182963
0.183874
0.185012
0.186374
0.187958
0.189765
0.191788
0.194024
0.196467
0.199111
0.20195
0.205013
0.19894
0.197965
0.197232
0.196742
0.196498
0.196497
0.196743
0.19723
0.197964
0.198939
0.200157
0.201616
0.203311
0.205243
0.207406
0.209795
0.212402
0.215223
0.218248
0.221506
0.21584
0.214797
0.214013
0.213488
0.213227
0.213227
0.21349
0.214011
0.214795
0.215838
0.217141
0.218699
0.22051
0.222573
0.22488
0.227427
0.230204
0.233205
0.236419
0.239873
0.234813
0.233701
0.232865
0.232305
0.232026
0.232026
0.232307
0.232862
0.2337
0.234811
0.236199
0.237859
0.239787
0.241981
0.244433
0.247136
0.250081
0.253259
0.256656
0.260298
0.256094
0.254915
0.254028
0.253435
0.253138
0.253139
0.253436
0.254026
0.254914
0.256093
0.257563
0.259321
0.261361
0.263679
0.266267
0.269117
0.272216
0.275555
0.279118
0.282925
0.279874
0.278636
0.277704
0.27708
0.276768
0.276768
0.277081
0.277701
0.278635
0.279873
0.281416
0.283259
0.285395
0.287819
0.290522
0.293492
0.296716
0.300183
0.303871
0.307798
0.306226
0.304945
0.30398
0.303334
0.303011
0.30301
0.303334
0.303977
0.304944
0.306225
0.307819
0.309721
0.311923
0.314417
0.317191
0.320233
0.323527
0.327058
0.330804
0.334773
0.334986
0.333692
0.332715
0.332062
0.331734
0.331734
0.332062
0.332713
0.33369
0.334985
0.336594
0.33851
0.340724
0.343225
0.346001
0.349035
0.352311
0.355809
0.359506
0.363399
0.365583
0.364321
0.363367
0.362729
0.362408
0.362408
0.362728
0.363365
0.36432
0.365583
0.36715
0.369012
0.371158
0.373576
0.37625
0.379163
0.382295
0.385625
0.389126
0.392789
0.396866
0.395695
0.394809
0.394215
0.393917
0.393916
0.394214
0.394807
0.395694
0.396867
0.398317
0.400036
0.402013
0.404231
0.406675
0.409326
0.412164
0.415165
0.418303
0.421559
0.427042
0.426026
0.425256
0.42474
0.42448
0.42448
0.424739
0.425256
0.426025
0.427042
0.428297
0.429781
0.431481
0.433381
0.435468
0.437721
0.44012
0.442644
0.445267
0.447964
0.453941
0.453129
0.452513
0.4521
0.451892
0.451891
0.452098
0.452513
0.453128
0.453942
0.454942
0.456121
0.45747
0.458972
0.460615
0.462382
0.464256
0.466218
0.468247
0.470309
0.475676
0.47508
0.474629
0.474325
0.474172
0.474171
0.474323
0.474629
0.47508
0.475678
0.476411
0.477273
0.478259
0.479353
0.480548
0.481831
0.483187
0.484603
0.486062
0.487524
0.491415
0.491004
0.490694
0.490485
0.49038
0.490379
0.490483
0.490695
0.491005
0.491417
0.491921
0.492515
0.493195
0.493949
0.494773
0.495658
0.496594
0.497572
0.498578
0.499569
0.501686
0.501405
0.501193
0.501051
0.500979
0.500979
0.501049
0.501194
0.501405
0.501688
0.502034
0.502442
0.502911
0.503432
0.504003
0.504619
0.505274
0.50596
0.506667
0.507346
0.507961
0.507754
0.507599
0.507495
0.507442
0.507442
0.507493
0.5076
0.507754
0.507963
0.508218
0.508519
0.508867
0.509255
0.509683
0.510147
0.510643
0.511165
0.511704
0.512205
0.511861
0.511691
0.511564
0.511479
0.511437
0.511436
0.511477
0.511566
0.511692
0.511863
0.512072
0.51232
0.512609
0.51293
0.513287
0.513675
0.514091
0.51453
0.514985
0.515393
0.514578
0.514427
0.514314
0.514239
0.5142
0.5142
0.514236
0.514316
0.514427
0.514581
0.514768
0.51499
0.515248
0.515537
0.515858
0.516207
0.516582
0.516979
0.51739
0.517747
0.516721
0.516579
0.516475
0.516404
0.516369
0.516369
0.516402
0.516476
0.51658
0.516723
0.516897
0.517103
0.517345
0.517614
0.517913
0.518239
0.51859
0.518961
0.519345
0.519668
0.518508
0.518374
0.518275
0.518209
0.518175
0.518175
0.518207
0.518277
0.518375
0.51851
0.518675
0.51887
0.519099
0.519353
0.519637
0.519946
0.520279
0.520631
0.520995
0.521291
)
;

boundaryField
{
    inlet
    {
        type            cyclic;
    }
    outlet
    {
        type            cyclic;
    }
    wall
    {
        type            calculated;
        value           nonuniform List<scalar> 
30
(
0.519326
0.519196
0.5191
0.519035
0.519003
0.519002
0.519033
0.519101
0.519197
0.519328
0.519488
0.519679
0.519901
0.520149
0.520425
0.520726
0.52105
0.521392
0.521746
0.522029
0.52203
0.521744
0.521388
0.521044
0.520722
0.520421
0.520148
0.519901
0.51968
0.519488
)
;
    }
    procBoundary3to0
    {
        type            processor;
        value           nonuniform List<scalar> 
32
(
0.0862627
0.0909952
0.0961304
0.101716
0.107807
0.114469
0.121773
0.129807
0.13867
0.148476
0.159362
0.171481
0.185012
0.200158
0.217142
0.2362
0.257564
0.281417
0.30782
0.336595
0.367151
0.398317
0.428297
0.454941
0.476409
0.49192
0.502032
0.508215
0.51207
0.514766
0.516895
0.518672
)
;
    }
    procBoundary3to1
    {
        type            processor;
        value           nonuniform List<scalar> 
23
(
0.0328866
0.0340624
0.035294
0.0365854
0.0379408
0.039365
0.0408629
0.0424402
0.0441031
0.0458583
0.0477133
0.0496761
0.0517559
0.0539628
0.0563078
0.0588034
0.0614633
0.0643032
0.0673402
0.0705941
0.0740866
0.0778427
0.0818907
)
;
    }
    procBoundary3to2
    {
        type            processor;
        value           nonuniform List<scalar> 
60
(
0.0292338
0.0302489
0.0313089
0.032417
0.0335764
0.0347907
0.0360637
0.0375349
0.0375349
0.0389436
0.0404252
0.0419852
0.0436297
0.0453654
0.0471995
0.0491403
0.0511966
0.0533783
0.0556965
0.0581633
0.0607926
0.0635995
0.0666013
0.0698172
0.0732691
0.0773645
0.0773645
0.0813863
0.08573
0.0904319
0.0955338
0.101083
0.107136
0.113754
0.121012
0.128996
0.137803
0.14755
0.158371
0.170419
0.183875
0.19894
0.21584
0.234813
0.256094
0.279874
0.306226
0.334986
0.365584
0.396867
0.427043
0.453942
0.475678
0.491417
0.501688
0.507963
0.511863
0.51458
0.516723
0.51851
)
;
    }
    procBoundary3to4
    {
        type            processor;
        value           nonuniform List<scalar> 
13
(
0.0281925
0.0281582
0.0281583
0.0281927
0.0282614
0.0283644
0.0285016
0.0292341
0.0302492
0.0315741
0.0314228
0.0313093
0.0313093
)
;
    }
    procBoundary3to5
    {
        type            processor;
        value           nonuniform List<scalar> 
22
(
0.031716
0.0312244
0.0307978
0.0303993
0.0300309
0.0296938
0.0293889
0.0291168
0.0288778
0.0286726
0.0285012
0.0283639
0.0286728
0.028878
0.0291168
0.0293889
0.0296938
0.0300309
0.0303993
0.0307978
0.0312245
0.0317161
)
;
    }
}


// ************************************************************************* //
