/*--------------------------------*- C++ -*----------------------------------*\
  =========                 |
  \\      /  F ield         | OpenFOAM: The Open Source CFD Toolbox
   \\    /   O peration     | Website:  https://openfoam.org
    \\  /    A nd           | Version:  7
     \\/     M anipulation  |
\*---------------------------------------------------------------------------*/
FoamFile
{
    version     2.0;
    format      ascii;
    class       surfaceScalarField;
    location    "84000";
    object      phi;
}
// * * * * * * * * * * * * * * * * * * * * * * * * * * * * * * * * * * * * * //

dimensions      [0 3 -1 0 0 0 0];

internalField   nonuniform List<scalar> 
9474
(
2.59278e-24
-1.84816e-24
1.64882e-24
-8.19033e-23
4.57698e-24
8.46608e-23
-1.75999e-23
1.3167e-24
9.97666e-24
8.30539e-25
-1.5397e-24
8.33823e-23
-7.19624e-25
6.24984e-23
-2.47715e-24
3.34815e-23
1.15255e-24
1.70474e-22
5.56845e-24
1.80476e-22
8.24288e-24
-5.87224e-23
9.90936e-24
1.02848e-23
1.04525e-23
-9.92906e-23
5.929e-24
6.78986e-23
2.70365e-24
1.2692e-23
5.99479e-24
8.5644e-23
2.09663e-24
-1.31937e-22
7.10713e-24
4.06097e-23
2.40186e-24
-9.71865e-24
1.9338e-24
-8.12632e-23
4.17289e-24
2.03772e-23
9.14389e-24
-3.15704e-23
4.11137e-24
-1.02015e-22
5.32746e-25
-1.33055e-22
-5.87594e-25
-1.00004e-23
-2.12205e-24
-2.83459e-24
-2.06958e-24
-1.1044e-22
-4.57517e-24
-1.34925e-23
-3.67887e-24
-1.39339e-22
-6.29852e-24
-5.52647e-23
-6.2156e-24
-4.40206e-23
-8.81916e-24
-6.53513e-23
-6.30425e-24
-5.17933e-23
-8.60264e-24
-2.43061e-23
-5.90995e-24
6.7783e-23
1.53316e-24
1.02106e-22
-7.78099e-25
6.05059e-23
9.75998e-24
1.31718e-24
-7.21456e-24
4.37317e-25
-1.22959e-24
1.26422e-22
-8.09985e-25
2.91611e-23
-2.22868e-24
5.13932e-23
1.20846e-24
1.52212e-22
4.72937e-24
1.10895e-22
8.10814e-24
2.72404e-24
9.86241e-24
4.73996e-23
1.06167e-23
-1.04543e-22
6.16604e-24
3.46437e-23
2.07453e-24
-6.46167e-24
5.94168e-24
1.14128e-22
2.13507e-24
-1.69966e-22
7.04989e-24
2.18626e-23
2.25261e-24
-2.4601e-23
1.72699e-24
-9.54304e-23
4.30045e-24
-2.00855e-23
8.85301e-24
-5.71915e-23
4.11849e-24
-1.02683e-22
8.31847e-25
-1.29266e-22
-7.51312e-25
-5.44737e-24
-2.2475e-24
1.16063e-23
-2.09615e-24
-1.05487e-22
-4.63982e-24
8.75872e-25
-3.60076e-24
-1.01091e-22
-6.04842e-24
-5.28223e-23
-6.41201e-24
-8.36745e-23
-8.53122e-24
-6.28068e-23
-6.18149e-24
-1.5909e-23
-8.20829e-24
-2.32561e-23
-5.8193e-24
5.1417e-23
1.47797e-24
1.33094e-22
-9.38136e-25
5.71699e-23
-2.4606e-24
1.21675e-23
-8.47903e-25
4.77822e-23
4.9004e-24
9.42421e-23
4.65303e-24
2.66046e-23
6.65579e-24
5.07648e-23
-6.08894e-25
-1.71314e-23
1.51502e-24
4.96121e-23
1.02237e-22
1.2921e-24
-3.29671e-23
4.43881e-25
-1.4972e-24
6.81729e-23
-9.17928e-25
3.07669e-23
-2.02256e-24
8.80148e-23
8.42021e-25
1.5515e-22
4.35175e-24
4.57852e-23
7.83206e-24
1.81299e-23
9.5306e-24
8.06857e-23
1.10753e-23
-6.50005e-23
6.31039e-24
7.77673e-23
1.79409e-24
-1.88996e-23
5.82774e-24
1.40535e-22
2.21027e-24
-1.66376e-22
6.76673e-24
-1.85238e-23
2.21626e-24
-3.75669e-23
1.25731e-24
-1.01502e-22
4.3109e-24
-1.91935e-23
8.79353e-24
-5.27855e-23
4.05826e-24
-9.8922e-23
1.19291e-24
-8.96303e-23
-7.7427e-25
-4.09901e-23
-2.51203e-24
-1.4556e-23
-2.04013e-24
-1.00544e-22
-4.60778e-24
-2.77383e-23
-3.67933e-24
-9.93473e-23
-5.92293e-24
-4.94419e-23
-6.49928e-24
-8.0919e-23
-8.07376e-24
-6.20964e-23
-6.17529e-24
-1.4699e-23
-7.85181e-24
1.52576e-23
-5.51182e-24
4.98552e-23
1.17053e-24
1.27445e-22
-9.23806e-25
6.74513e-23
-2.39601e-24
4.97368e-23
-8.03193e-25
4.74544e-23
5.13143e-24
1.02584e-22
4.44219e-24
-5.78903e-24
6.80734e-24
1.0582e-22
-7.8609e-25
-5.20543e-23
1.69926e-24
1.91445e-23
1.02195e-23
9.50583e-23
6.39424e-24
5.97863e-23
-1.26024e-24
-5.03955e-23
-1.68062e-24
1.75949e-24
-4.21695e-23
8.39316e-25
-1.43069e-24
3.41161e-23
-4.47207e-25
6.44969e-23
-2.23235e-24
5.09618e-23
1.90516e-25
1.59876e-22
4.61931e-24
6.35608e-24
7.85501e-24
2.02327e-23
9.13486e-24
4.63737e-23
1.14975e-23
-8.01946e-23
6.05996e-24
8.73404e-23
1.7078e-24
-2.17486e-23
5.25195e-24
1.33499e-22
2.50217e-24
-1.64159e-22
6.75553e-24
-8.01126e-24
1.97434e-24
-3.95618e-23
9.01156e-25
-7.14141e-23
4.20356e-24
-1.07426e-23
8.59249e-24
-1.81881e-23
4.37835e-24
-9.75737e-23
1.21318e-24
-8.59185e-23
-9.08177e-25
-3.15792e-23
-2.52934e-24
-1.74234e-23
-2.14549e-24
-8.62978e-23
-4.442e-24
-1.73667e-23
-3.81527e-24
-9.87556e-23
-5.75845e-24
-1.27877e-23
-6.63067e-24
-7.92811e-23
-7.61819e-24
-6.46626e-23
-5.99218e-24
-1.53481e-23
-7.77146e-24
-3.78121e-24
-5.13779e-24
2.70507e-23
9.03647e-25
1.24157e-22
-7.39919e-25
6.97539e-23
-2.42587e-24
5.02171e-23
-8.09866e-25
1.33079e-24
4.9466e-24
1.14222e-22
4.99436e-24
-3.82759e-23
6.16403e-24
6.87597e-23
-7.08436e-25
-2.23301e-23
2.17711e-24
1.17819e-23
1.08033e-23
8.40816e-23
6.18214e-24
5.17999e-24
-1.35808e-24
-4.01387e-23
-1.66121e-23
1.49588e-24
-4.89455e-23
6.27854e-25
-1.14187e-24
1.92746e-24
-5.91585e-25
2.88173e-23
-2.19055e-24
6.71858e-23
-5.71568e-25
6.63981e-23
4.74611e-24
6.41361e-23
7.60129e-24
3.4172e-23
9.07007e-24
4.76285e-23
1.17926e-23
-4.02373e-23
6.21112e-24
9.06246e-23
1.56553e-24
-3.58984e-23
4.59502e-24
9.49446e-23
2.63738e-24
-1.27118e-22
6.72825e-24
4.27979e-23
1.72944e-24
-5.66593e-23
7.2025e-25
-5.94465e-23
4.41603e-24
2.9226e-23
8.32179e-24
-5.05259e-23
4.48138e-24
-5.87054e-23
1.30443e-24
-9.8717e-23
-9.31631e-25
-1.93618e-23
-2.50137e-24
-3.99826e-23
-2.20682e-24
-6.92011e-23
-4.3343e-24
6.33054e-24
-3.79131e-24
-9.64638e-23
-5.77413e-24
2.82323e-23
-6.78475e-24
-5.76105e-23
-7.23875e-24
-6.41177e-23
-5.91675e-24
-2.05237e-23
-7.6804e-24
-9.07618e-24
-4.70094e-24
3.02211e-23
6.07721e-25
1.24556e-22
-5.54994e-25
8.48581e-23
-2.89852e-24
1.6866e-23
-7.62164e-25
-1.10703e-24
4.96431e-24
9.27744e-23
5.30724e-24
-3.66314e-23
6.14738e-24
4.4543e-23
-9.16453e-25
-2.294e-23
2.5946e-24
1.54965e-23
1.07109e-23
7.74677e-23
6.48409e-24
-3.95584e-23
-1.1652e-24
-2.81948e-23
-5.55427e-23
1.38894e-24
-5.38096e-23
5.20906e-25
-6.6831e-25
3.3274e-23
-6.94539e-25
2.86413e-23
-2.42798e-24
5.4955e-23
-6.97382e-25
9.84137e-23
4.34629e-24
5.0244e-23
7.58564e-24
4.24342e-23
9.03941e-24
6.25751e-23
1.18712e-23
-8.88965e-23
6.47533e-24
2.50944e-23
1.19057e-24
-4.89353e-23
4.40894e-24
7.55e-23
2.69366e-24
-9.20213e-23
6.69462e-24
3.57575e-23
1.78592e-24
-7.61609e-23
5.98237e-25
-2.29602e-23
4.22437e-24
1.75389e-23
8.39594e-24
-2.45965e-23
4.29484e-24
-5.14501e-23
1.5853e-24
-8.20232e-23
-1.17575e-24
-1.15051e-23
-2.34237e-24
-2.55425e-23
-2.30405e-24
-9.74941e-23
-4.3364e-24
1.28475e-23
-3.59052e-24
-9.28958e-23
-5.87853e-24
2.8854e-23
-6.99789e-24
-5.65937e-23
-6.9181e-24
-5.3228e-23
-5.67295e-24
-1.90924e-23
-7.62419e-24
-4.35473e-23
-4.32137e-24
4.96848e-23
4.76696e-25
8.17503e-23
-6.70527e-25
6.08175e-23
-3.03118e-24
1.63598e-23
-6.71481e-25
5.12123e-24
4.59758e-24
8.61624e-23
5.4509e-24
-3.84619e-23
6.17738e-24
3.32331e-23
-9.61728e-25
7.51937e-24
2.72911e-24
5.07735e-24
1.06294e-23
1.16472e-22
6.94234e-24
2.41485e-23
-1.12165e-24
-5.82722e-23
-6.14264e-23
1.54003e-24
-5.921e-23
6.02606e-25
-4.56462e-25
5.15936e-25
-5.34039e-25
2.97293e-23
-2.55498e-24
6.08508e-23
-1.08975e-24
1.00741e-22
4.05423e-24
4.3549e-23
7.68903e-24
4.94171e-23
8.71395e-24
5.2186e-23
1.21892e-23
-3.71917e-23
6.46699e-24
6.35938e-23
8.68671e-25
-5.95127e-23
4.32707e-24
6.68658e-23
2.59056e-24
-1.60344e-22
6.41655e-24
2.27092e-23
1.98706e-24
-8.31847e-23
2.92051e-25
-2.20126e-23
4.09629e-24
6.76511e-23
8.16814e-24
1.62267e-23
4.28254e-24
-4.80127e-23
1.70557e-24
-7.86827e-23
-1.31207e-24
-4.10361e-23
-2.31551e-24
-1.79788e-23
-2.26916e-24
-1.06669e-22
-4.38557e-24
2.25505e-23
-3.39952e-24
-7.29609e-23
-5.97992e-24
3.19431e-23
-7.19651e-24
-6.5855e-23
-6.64463e-24
-2.17592e-23
-5.65063e-24
-5.70871e-23
-7.25153e-24
-4.47418e-23
-4.16037e-24
3.73122e-23
4.04319e-25
6.0813e-23
-4.92776e-25
5.60502e-23
-3.18364e-24
-6.13324e-24
-6.43925e-25
3.72926e-23
4.80617e-24
8.63062e-23
5.3478e-24
-3.79402e-23
6.14199e-24
3.70753e-23
-9.9211e-25
2.55411e-23
2.8536e-24
3.37414e-23
1.09649e-23
1.06586e-22
6.70052e-24
2.78159e-23
-8.68104e-25
-8.42108e-23
-1.23583e-24
-2.65001e-23
5.75356e-25
1.63913e-24
-5.02234e-23
5.98043e-25
-1.99033e-25
3.24428e-24
-8.23519e-25
-2.84456e-23
-2.4421e-24
6.6387e-23
-1.64114e-24
7.24024e-23
4.13686e-24
5.27941e-23
7.64516e-24
5.90502e-23
8.39796e-24
8.25454e-23
1.23351e-23
-2.43415e-24
6.36194e-24
5.3803e-23
3.90853e-25
-8.78663e-23
4.04662e-24
7.39773e-23
2.58248e-24
-1.70878e-22
6.31229e-24
2.33013e-23
1.93675e-24
-9.54178e-23
3.56476e-25
-3.21222e-23
4.10527e-24
6.58955e-23
7.87865e-24
6.40031e-23
4.38721e-24
-4.14515e-23
1.7164e-24
-9.09798e-23
-1.39452e-24
-7.62953e-23
-2.38647e-24
6.25629e-24
-2.11918e-24
-9.47125e-23
-4.38317e-24
-9.02163e-24
-3.24751e-24
-6.62017e-23
-6.18981e-24
3.1084e-24
-7.14531e-24
-7.58608e-23
-6.68499e-24
-2.04967e-23
-5.40372e-24
-5.54968e-23
-7.02156e-24
-4.19904e-23
-4.08921e-24
6.01789e-23
2.88915e-25
5.7629e-23
-7.15207e-25
2.25753e-23
-3.04174e-24
3.28985e-23
-8.19498e-25
4.31762e-23
4.89935e-24
1.01289e-22
5.516e-24
-2.48597e-23
6.32749e-24
4.16831e-23
-9.94659e-25
-2.70897e-23
3.09078e-24
5.53716e-23
1.1232e-23
1.30324e-22
6.59142e-24
-2.86367e-23
-6.70938e-25
-1.24113e-22
-1.05774e-24
-2.7244e-23
-3.37682e-23
1.72095e-24
-4.04578e-23
6.59592e-25
-1.80071e-26
-9.59751e-24
-7.72509e-25
-8.37278e-23
-2.5287e-24
4.1742e-23
-2.03051e-24
1.03631e-22
4.24005e-24
1.05632e-22
7.41068e-24
5.43006e-23
8.59934e-24
8.25063e-23
1.21441e-23
2.99409e-23
6.27331e-24
5.50519e-23
5.59892e-25
-1.33231e-22
3.46286e-24
5.35487e-23
3.01191e-24
-1.31294e-22
5.99061e-24
-1.78241e-23
2.02699e-24
-9.92906e-23
4.06276e-25
-2.84912e-23
4.02151e-24
5.84534e-23
7.51875e-24
5.32924e-23
4.26322e-24
-7.37214e-23
1.61574e-24
-8.88383e-23
-1.2175e-24
-6.73174e-23
-2.49256e-24
4.14443e-24
-2.17559e-24
-7.96568e-23
-4.2376e-24
-3.84543e-23
-3.19743e-24
-5.88611e-23
-6.35707e-24
-8.50992e-24
-7.0494e-24
-7.76588e-23
-6.68079e-24
-2.16625e-23
-5.15184e-24
-5.35306e-23
-6.78844e-24
-3.92893e-23
-4.06704e-24
5.77511e-23
2.22171e-25
5.45196e-23
-4.52324e-25
5.64507e-23
-3.02923e-24
4.87061e-24
-1.01215e-24
7.29296e-23
4.90488e-24
1.25128e-22
5.8178e-24
8.5354e-24
6.10928e-24
2.48977e-24
-8.37698e-25
-5.0578e-23
2.92907e-24
8.2824e-23
1.12675e-23
1.26417e-22
6.60061e-24
-5.00038e-23
-3.70669e-25
-1.17461e-22
-1.22358e-24
-2.82199e-23
-5.50695e-23
1.61791e-24
6.14133e-24
5.22608e-25
2.14614e-26
2.28145e-23
-4.19371e-25
-7.89814e-23
-2.84332e-24
4.39483e-23
-2.16216e-24
1.03853e-22
4.11193e-24
1.26095e-22
7.2914e-24
5.01783e-23
8.5535e-24
9.72365e-23
1.19947e-23
2.94864e-23
5.91009e-24
2.40487e-23
1.59355e-25
-1.30901e-22
3.22656e-24
6.28385e-23
2.9995e-24
-1.01601e-22
6.25189e-24
-2.8852e-23
1.82349e-24
-1.11013e-22
6.43279e-25
6.38679e-24
3.89419e-24
2.38198e-23
7.2691e-24
7.73647e-23
4.13442e-24
-5.93548e-23
1.64842e-24
-8.15942e-23
-1.15089e-24
-5.82658e-23
-2.43397e-24
1.11095e-23
-2.37028e-24
-1.10266e-22
-3.97014e-24
-3.02047e-23
-3.15339e-24
-5.67311e-23
-6.52739e-24
-5.26544e-24
-6.96291e-24
-4.30756e-23
-6.74393e-24
-8.07403e-24
-4.8984e-24
-2.54094e-23
-6.50059e-24
-3.61475e-23
-4.08515e-24
4.88507e-23
2.14633e-25
8.725e-23
-4.99809e-25
3.85577e-23
-2.91051e-24
5.7552e-24
-1.00258e-24
5.7768e-23
4.67614e-24
1.24886e-22
5.6418e-24
1.90239e-23
6.16048e-24
4.53017e-23
-1.7006e-25
-3.41403e-23
2.96295e-24
7.64458e-23
1.10859e-23
1.43653e-22
6.85952e-24
-3.91418e-23
-2.58038e-25
-1.26984e-22
-1.26257e-24
-4.30385e-23
1.7185e-24
3.75017e-23
5.61398e-25
4.81551e-26
6.75618e-24
-3.28952e-25
-8.88474e-23
-2.71198e-24
6.26317e-23
-2.37586e-24
7.24118e-23
4.06728e-24
1.02721e-22
7.02373e-24
4.50318e-23
8.4149e-24
1.06615e-22
1.20852e-23
2.57593e-23
5.6782e-24
4.22979e-23
3.7097e-27
-1.26739e-22
3.11966e-24
6.0196e-23
2.83151e-24
-8.40485e-23
6.02084e-24
-2.61873e-23
1.96334e-24
-8.14763e-23
5.67167e-25
7.31743e-24
3.93409e-24
-1.23203e-23
6.9103e-24
5.81555e-23
3.95885e-24
-6.93308e-23
1.77124e-24
-4.23463e-23
-1.16145e-24
-5.06347e-23
-2.47879e-24
1.36725e-23
-2.49409e-24
-1.04598e-22
-3.75779e-24
-2.47492e-23
-3.0943e-24
-5.55111e-23
-6.57202e-24
-3.00143e-24
-6.94695e-24
-3.5276e-23
-6.72942e-24
-5.34609e-24
-4.64857e-24
-7.90766e-24
-6.35365e-24
-7.23133e-23
-3.95429e-24
3.32048e-23
1.60826e-25
8.01217e-23
-4.11351e-25
6.14389e-23
-2.72152e-24
1.30503e-23
-1.08064e-24
4.96126e-23
4.68689e-24
1.22601e-22
5.72661e-24
3.71833e-23
5.98951e-24
5.76886e-23
1.69184e-26
-3.26874e-23
2.99445e-24
7.17797e-23
1.07459e-23
1.11481e-22
6.84006e-24
-2.93237e-23
4.79139e-26
-1.48994e-22
-3.00926e-23
1.62611e-24
6.77444e-24
1.58614e-25
-9.09874e-26
-2.42681e-23
-2.63115e-26
-7.02282e-23
-2.68775e-24
7.79282e-24
-2.71203e-24
1.00378e-22
4.03701e-24
1.54584e-22
6.99471e-24
6.60292e-23
8.02157e-24
1.01121e-22
1.19704e-23
9.13673e-23
5.45229e-24
-8.40539e-24
-1.8416e-25
-7.99517e-23
3.18429e-24
5.80493e-23
2.6223e-24
-5.21497e-23
6.06333e-24
-4.92151e-23
1.82066e-24
-4.89822e-23
5.24882e-25
7.94885e-24
4.03232e-24
-3.1476e-23
6.73482e-24
8.37417e-23
3.77241e-24
-6.99011e-23
1.69686e-24
-2.18538e-23
-1.24262e-24
-5.81392e-23
-2.52422e-24
1.68151e-23
-2.57353e-24
-8.46513e-23
-3.60892e-24
-1.82412e-23
-2.9913e-24
-7.51274e-23
-6.57043e-24
-1.53733e-23
-6.94878e-24
-3.95235e-23
-6.64607e-24
8.04037e-24
-4.6274e-24
-5.35146e-24
-6.0029e-24
-8.38749e-23
-3.78201e-24
1.47782e-23
1.94508e-25
7.57636e-23
-4.07353e-25
4.48703e-23
-2.75702e-24
9.68092e-24
-1.11838e-24
2.97024e-23
4.75485e-24
7.93351e-23
5.59017e-24
4.06618e-23
5.86317e-24
1.44092e-23
4.87374e-26
-5.08158e-23
2.89083e-24
4.17298e-23
1.09396e-23
1.5199e-22
6.71353e-24
-7.96456e-23
5.06135e-25
-1.42124e-22
-7.36895e-23
1.61933e-24
-9.08766e-24
3.94443e-26
-1.07429e-25
-2.5326e-23
-1.5019e-25
-6.52066e-23
-2.52087e-24
3.67458e-23
-2.86633e-24
5.69603e-23
3.97806e-24
1.93891e-22
6.82277e-24
4.23408e-23
8.0387e-24
1.13208e-22
1.16415e-23
8.77699e-23
5.41271e-24
-3.71674e-24
-5.77336e-25
-1.07503e-22
3.08246e-24
5.63794e-23
2.65448e-24
-4.75751e-23
6.06961e-24
-5.95743e-23
1.68891e-24
-5.88006e-23
4.1214e-25
1.00531e-23
4.01056e-24
-8.08852e-24
6.50737e-24
1.102e-22
3.8259e-24
-9.09153e-23
1.57252e-24
-2.0247e-23
-1.23195e-24
-6.41474e-23
-2.58542e-24
1.89555e-23
-2.64232e-24
-8.3076e-23
-3.51809e-24
-3.38514e-23
-2.85746e-24
-7.89208e-23
-6.59844e-24
-3.73572e-23
-6.88872e-24
-3.37165e-23
-6.59253e-24
-3.00017e-24
-4.65117e-24
1.34683e-23
-5.70035e-24
-8.04121e-23
-3.6933e-24
1.07842e-23
1.65966e-25
7.13302e-23
-3.55227e-25
1.75608e-23
-2.74262e-24
4.83609e-24
-1.21844e-24
6.08181e-24
4.80014e-24
7.86784e-23
5.41217e-24
3.15629e-23
5.81684e-24
1.13132e-23
3.83889e-25
-5.66899e-23
2.88379e-24
5.80228e-23
1.07236e-23
1.48645e-22
6.83809e-24
-5.34735e-23
6.15634e-25
-1.66423e-22
-2.64374e-23
1.59389e-24
-3.67847e-23
1.99056e-25
2.45865e-26
-3.91287e-23
5.80948e-26
-3.27139e-23
-2.47687e-24
3.79161e-23
-2.75836e-24
5.59433e-23
3.77906e-24
1.88165e-22
6.6759e-24
6.49138e-23
8.27622e-24
1.66065e-22
1.12393e-23
8.44493e-23
5.31009e-24
-1.71131e-25
-5.92553e-25
-1.03244e-22
2.65243e-24
3.95088e-23
2.51297e-24
-4.32602e-23
6.15657e-24
-7.11696e-23
1.59816e-24
-5.24453e-23
4.11141e-25
-4.3139e-25
4.06991e-24
-2.12559e-24
6.1392e-24
9.30196e-23
3.76599e-24
-6.49663e-23
1.52212e-24
-2.02505e-23
-1.2062e-24
-5.69305e-23
-2.66626e-24
2.01759e-23
-2.77568e-24
-6.5583e-23
-3.43461e-24
-3.13112e-23
-2.79222e-24
-8.4233e-23
-6.44654e-24
-6.01859e-23
-6.89772e-24
-3.95149e-23
-6.44643e-24
3.42659e-24
-4.70437e-24
5.90861e-24
-5.54126e-24
-7.58483e-23
-3.38486e-24
6.14787e-24
4.55823e-26
6.84548e-23
-2.43397e-25
4.51931e-23
-2.84606e-24
3.25167e-24
-1.24624e-24
3.24185e-23
4.78956e-24
6.13039e-23
5.4839e-24
2.62878e-23
5.93044e-24
9.96968e-24
5.64435e-25
-6.2756e-23
2.94987e-24
8.58637e-23
1.04957e-23
1.44227e-22
6.55329e-24
-5.71509e-23
9.35068e-25
-1.59941e-22
-5.57575e-23
1.37708e-24
-6.40073e-23
2.66515e-25
4.18628e-25
-2.7654e-23
1.35936e-25
-5.79838e-23
-2.42268e-24
3.94697e-23
-3.02277e-24
2.92495e-23
3.63885e-24
1.81456e-22
6.89209e-24
8.56872e-23
7.87893e-24
1.63926e-22
1.08356e-23
6.72412e-23
5.24522e-24
3.84732e-24
-6.83492e-25
-1.24892e-22
2.45294e-24
5.21424e-23
2.4591e-24
-4.07677e-23
6.22564e-24
-4.92508e-23
1.4526e-24
-7.50651e-23
4.47521e-25
-2.63112e-23
4.06746e-24
-1.04841e-23
5.88991e-24
6.53669e-23
3.59121e-24
-8.22829e-23
1.51588e-24
-5.67069e-24
-1.22551e-24
-3.61007e-23
-2.63227e-24
4.47736e-24
-2.96459e-24
-8.06673e-23
-3.34514e-24
-2.97749e-23
-2.76338e-24
-7.21006e-23
-6.24677e-24
-5.50606e-23
-6.9244e-24
-4.30722e-23
-6.33702e-24
2.25839e-23
-4.70714e-24
1.39309e-23
-5.30195e-24
-4.28671e-23
-3.19265e-24
1.90256e-23
1.30274e-26
8.20491e-23
-2.26264e-25
7.47729e-23
-2.67822e-24
1.80026e-23
-1.54836e-24
1.26002e-23
5.06839e-24
7.31868e-23
5.40355e-24
2.26414e-23
5.62426e-24
2.40667e-23
9.8997e-25
-5.62522e-23
2.82963e-24
1.13467e-22
1.03753e-23
1.40596e-22
6.55208e-24
-3.33045e-23
1.16845e-24
-1.54131e-22
-5.70693e-23
1.63984e-24
-6.49082e-23
4.67593e-25
2.72741e-25
-5.35121e-23
3.93756e-25
-3.47452e-23
-2.53015e-24
1.65304e-23
-3.09646e-24
5.03618e-24
3.37741e-24
1.35346e-22
6.80629e-24
6.44138e-23
7.59201e-24
1.207e-22
1.06476e-23
6.41402e-23
4.82734e-24
9.48105e-24
-8.77935e-25
-1.06917e-22
2.47104e-24
4.93033e-23
2.4158e-24
-6.81948e-23
6.14922e-24
-1.36922e-23
1.3638e-24
-9.50739e-23
4.03158e-25
-1.07529e-23
3.95765e-24
-6.11998e-24
5.76471e-24
3.60381e-23
3.47961e-24
-8.34834e-23
1.51429e-24
-6.50101e-24
-1.28097e-24
-1.81782e-23
-2.72919e-24
2.86632e-24
-3.01433e-24
-7.96104e-23
-3.32619e-24
-4.32001e-23
-2.70932e-24
-4.77387e-23
-6.11427e-24
-5.079e-23
-6.77311e-24
-2.95939e-23
-6.34068e-24
1.41582e-23
-4.57162e-24
1.90423e-23
-5.12711e-24
-3.85538e-23
-3.03294e-24
1.7602e-23
1.20519e-25
7.7597e-23
-2.96267e-25
4.50063e-23
-2.78348e-24
1.99268e-24
-1.44373e-24
9.28373e-24
5.17374e-24
9.81326e-23
5.14147e-24
4.62294e-24
5.59419e-24
5.50024e-23
1.32984e-24
-3.59377e-23
2.91417e-24
1.43551e-22
1.00456e-23
1.09018e-22
6.58281e-24
-3.92262e-23
1.62136e-24
-1.23453e-22
-7.08339e-23
1.66393e-24
-6.5496e-23
5.87965e-25
3.85277e-25
-6.5261e-23
5.01974e-25
-2.4218e-23
-2.59537e-24
-1.83568e-23
-3.04182e-24
-5.90821e-24
3.5769e-24
9.29715e-23
6.66599e-24
4.49801e-23
7.54769e-24
1.07184e-22
1.03281e-23
3.58736e-23
4.76985e-24
4.22659e-23
-9.35155e-25
-1.02081e-22
2.09857e-24
3.30571e-23
2.55078e-24
-5.3168e-23
5.89644e-24
-2.95022e-23
1.32365e-24
-8.6625e-23
4.48162e-25
1.76646e-23
3.72747e-24
-1.12233e-23
5.69923e-24
6.01739e-23
3.4041e-24
-8.56831e-23
1.54718e-24
-7.0065e-24
-1.39652e-24
-2.89749e-23
-2.84846e-24
-1.31911e-23
-3.03638e-24
-4.99664e-23
-3.19966e-24
-4.22884e-23
-2.70647e-24
-5.09314e-23
-5.96647e-24
-4.79416e-23
-6.70731e-24
-1.91983e-23
-6.29502e-24
7.09786e-24
-4.47956e-24
2.03979e-23
-4.89997e-24
-5.05163e-23
-2.85404e-24
3.34276e-24
4.85546e-26
7.37843e-23
-3.95337e-25
2.93026e-23
-2.67594e-24
-6.47425e-25
-1.5178e-24
-1.7918e-23
5.09503e-24
1.51067e-22
5.35469e-24
1.41142e-23
5.65561e-24
6.41448e-23
1.61847e-24
-3.17315e-23
2.54448e-24
9.55763e-23
9.85361e-24
8.00781e-23
6.61686e-24
-5.88636e-24
1.54579e-24
-1.18372e-22
-4.69413e-23
1.62657e-24
-1.00353e-22
7.02028e-25
6.73793e-25
-7.68912e-23
4.58056e-25
1.08739e-24
-2.53843e-24
-4.8973e-23
-3.04285e-24
-2.75997e-23
3.62002e-24
8.62409e-23
6.47208e-24
4.1197e-23
7.4033e-24
1.1729e-22
1.02957e-23
5.997e-23
4.4488e-24
4.839e-23
-1.25037e-24
-9.71873e-23
2.0008e-24
3.14487e-23
2.45422e-24
-3.89186e-23
5.8076e-24
-4.03674e-23
1.38207e-24
-1.13814e-22
2.96683e-25
6.14116e-24
3.67569e-24
-3.32223e-23
5.37225e-24
2.77899e-23
3.39315e-24
-7.31412e-23
1.54286e-24
-2.04303e-23
-1.44258e-24
-1.31588e-23
-2.85278e-24
-1.62058e-23
-3.18747e-24
-6.07809e-23
-3.0691e-24
-3.19213e-23
-2.6717e-24
-5.23818e-23
-5.76718e-24
-4.5258e-23
-6.71634e-24
-3.48815e-23
-6.18818e-24
1.3146e-23
-4.44358e-24
1.98578e-23
-4.75883e-24
-4.96343e-23
-2.63327e-24
-1.20538e-23
-6.99547e-27
5.72022e-23
-3.659e-25
6.60536e-23
-2.66293e-24
-1.81717e-24
-1.32723e-24
-1.78238e-23
4.92409e-24
1.38669e-22
5.42697e-24
4.92673e-23
5.77485e-24
5.30227e-23
1.78464e-24
-2.82572e-23
2.35922e-24
9.93057e-23
9.86383e-24
7.67293e-23
6.36423e-24
-2.40372e-23
1.84323e-24
-1.27291e-22
-4.68544e-23
1.49268e-24
-1.00408e-22
8.42894e-25
9.29706e-25
-7.90754e-23
3.3423e-25
2.44634e-24
-2.55891e-24
-4.49852e-23
-3.21883e-24
-3.62529e-23
3.67222e-24
7.87625e-23
6.46359e-24
3.68194e-23
7.28381e-24
9.9649e-23
1.03364e-23
6.10555e-23
4.13325e-24
2.09931e-23
-1.59294e-24
-9.1103e-23
1.94485e-24
4.24956e-23
2.20454e-24
-3.95755e-23
5.75087e-24
-3.85706e-23
1.45065e-24
-1.31906e-22
2.21441e-25
-6.07276e-24
3.63026e-24
-4.18316e-23
5.19009e-24
3.44387e-24
3.20428e-24
-6.20941e-23
1.60793e-24
-2.10441e-23
-1.53629e-24
-1.06944e-23
-2.88654e-24
-1.85624e-23
-3.24275e-24
-5.83012e-23
-2.99682e-24
-1.22191e-23
-2.60198e-24
-5.18784e-23
-5.63751e-24
-4.28523e-23
-6.64626e-24
-2.63937e-23
-6.12972e-24
1.81347e-23
-4.38037e-24
1.94427e-23
-4.59104e-24
-4.05517e-23
-2.42371e-24
-2.61337e-23
6.87341e-26
4.31344e-23
-4.68837e-25
5.24902e-23
-2.69582e-24
-4.7754e-24
-1.14226e-24
-1.69015e-23
4.96271e-24
1.53545e-22
5.29188e-24
4.84336e-23
5.82815e-24
5.57665e-23
1.98174e-24
-2.31484e-23
2.20831e-24
9.12083e-23
9.75781e-24
9.54559e-23
6.15585e-24
3.15926e-23
2.13158e-24
-1.2523e-22
-4.40602e-23
1.55468e-24
-9.75777e-23
1.06988e-24
9.86917e-25
-7.935e-23
4.13613e-25
-1.74002e-23
-2.82766e-24
-1.89701e-23
-3.14378e-24
1.05118e-23
3.67682e-24
6.02338e-23
6.46951e-24
-2.62148e-24
7.08395e-24
9.93337e-23
9.97636e-24
2.80332e-23
4.07572e-24
5.39067e-24
-1.66874e-24
-8.50225e-23
1.65409e-24
3.98365e-23
2.18923e-24
-7.93632e-24
5.57388e-24
-3.0385e-23
1.50784e-24
-1.27228e-22
1.09369e-25
-4.4541e-23
3.61034e-24
-5.82228e-23
4.98222e-24
-2.47705e-23
3.17664e-24
-6.26795e-23
1.63084e-24
-3.13028e-23
-1.6596e-24
-1.01898e-23
-2.9701e-24
-8.81378e-24
-3.23584e-24
-6.75796e-23
-2.97546e-24
-2.43044e-23
-2.52458e-24
-5.30904e-23
-5.50452e-24
-4.23951e-23
-6.52857e-24
-1.48975e-23
-6.08761e-24
2.1731e-23
-4.2338e-24
8.47916e-24
-4.51841e-24
-4.03641e-23
-2.25235e-24
-3.03122e-24
1.6915e-25
2.82741e-23
-5.93972e-25
6.25179e-23
-2.64491e-24
1.96603e-23
-9.58517e-25
-3.97019e-24
4.94062e-24
1.58246e-22
5.21222e-24
2.43826e-23
5.72404e-24
3.43936e-23
2.04466e-24
-1.84347e-23
2.0005e-24
6.99692e-23
9.87798e-24
9.73313e-23
6.1016e-24
2.48245e-23
2.35368e-24
-1.23847e-22
-5.49655e-24
1.74353e-24
-7.15932e-23
1.32329e-24
1.0419e-24
-7.79237e-23
6.19903e-25
9.61872e-24
-2.85783e-24
-5.83769e-23
-3.19351e-24
1.07645e-23
3.54161e-24
5.41376e-23
6.55806e-24
2.50848e-23
6.87268e-24
7.68448e-23
9.73831e-24
1.76993e-23
3.87208e-24
-9.92687e-24
-1.9456e-24
-1.00029e-22
1.52898e-24
6.94746e-23
2.15604e-24
1.19784e-24
5.35106e-24
-1.63843e-23
1.44023e-24
-1.2246e-22
5.91745e-26
-2.27206e-23
3.39061e-24
-7.18594e-23
4.99236e-24
3.67597e-24
3.09613e-24
-6.27151e-23
1.58832e-24
-3.42942e-23
-1.65523e-24
2.15919e-24
-3.08839e-24
-8.74179e-24
-3.21581e-24
-6.91923e-23
-2.93393e-24
-2.69077e-23
-2.46062e-24
-4.71521e-23
-5.31088e-24
-4.30986e-23
-6.45325e-24
-1.4327e-23
-6.09315e-24
2.28489e-23
-4.11511e-24
6.7764e-24
-4.45561e-24
-5.28421e-23
-2.06867e-24
-1.60326e-23
2.3205e-25
3.42236e-23
-5.86136e-25
4.66077e-23
-2.62401e-24
4.58068e-23
-7.0687e-25
-6.25247e-24
4.80024e-24
1.56363e-22
5.11057e-24
4.33163e-23
5.73158e-24
2.28114e-23
2.14776e-24
-3.4283e-23
2.13614e-24
8.55928e-23
9.7782e-24
1.1341e-22
5.93671e-24
2.95176e-23
2.66608e-24
-9.92128e-23
-2.71036e-25
-3.08641e-23
-1.6492e-23
1.78267e-24
-3.85171e-23
1.48734e-24
1.15996e-24
-6.51388e-23
5.45966e-25
1.19793e-23
-2.74834e-24
-4.90776e-23
-3.46559e-24
1.13163e-23
3.45638e-24
5.53098e-23
6.53173e-24
1.98164e-23
6.641e-24
4.40213e-23
9.67829e-24
9.57145e-24
3.74689e-24
-3.57726e-24
-2.04035e-24
-6.84037e-23
1.40844e-24
9.91664e-23
2.05909e-24
8.18934e-24
5.16521e-24
-3.84176e-23
1.46661e-24
-1.28027e-22
-8.4334e-26
-5.75633e-23
3.44296e-24
-5.21164e-23
4.83395e-24
-2.53858e-24
3.0561e-24
-6.15345e-23
1.659e-24
-3.68974e-23
-1.78538e-24
-1.9063e-23
-3.18309e-24
-1.23527e-23
-3.23259e-24
-5.93439e-23
-2.85028e-24
-2.2774e-23
-2.41228e-24
-6.90844e-23
-5.10836e-24
-4.25153e-23
-6.36947e-24
-1.93345e-23
-6.04258e-24
2.28073e-23
-4.05956e-24
2.60341e-23
-4.36231e-24
-3.95222e-23
-1.81412e-24
-1.1765e-23
2.33814e-25
1.91789e-23
-5.92637e-25
3.2804e-23
-2.73649e-24
3.56675e-23
-5.89982e-25
3.0534e-23
4.74705e-24
1.39848e-22
4.97718e-24
6.63873e-23
5.75787e-24
2.78075e-23
2.25793e-24
-5.41424e-23
1.98512e-24
7.78119e-23
9.60216e-24
1.20906e-22
5.79809e-24
4.05339e-23
2.90083e-24
-5.51217e-23
2.29703e-26
-4.45274e-23
-7.70061e-24
1.93082e-24
-1.51802e-23
1.63047e-24
1.41355e-24
-9.78824e-23
5.39826e-25
-1.8909e-23
-2.77669e-24
-9.81024e-23
-3.4822e-24
1.26164e-23
3.69534e-24
6.89446e-23
6.30907e-24
1.7322e-23
6.49628e-24
2.4526e-23
9.41646e-24
1.77418e-23
3.39704e-24
-3.05938e-24
-2.07388e-24
-7.19425e-23
1.28959e-24
9.46741e-23
1.79255e-24
3.68817e-24
5.09402e-24
-2.92537e-23
1.36045e-24
-1.24243e-22
-1.55229e-25
-7.85125e-23
3.31289e-24
-5.4526e-23
4.55879e-24
7.40126e-24
2.99596e-24
-4.94879e-23
1.66668e-24
-5.0146e-23
-1.83841e-24
-7.56479e-24
-3.3134e-24
-1.02923e-23
-3.21731e-24
-5.34131e-23
-2.81434e-24
-4.26686e-23
-2.29727e-24
-7.65569e-23
-4.95049e-24
-3.52332e-23
-6.24037e-24
-1.43691e-23
-5.99938e-24
1.49859e-23
-3.99648e-24
1.63439e-23
-4.23178e-24
-3.82312e-23
-1.63813e-24
-7.55428e-24
4.14273e-25
8.03125e-24
-5.19109e-25
8.86397e-24
-2.67581e-24
2.5994e-23
-5.88768e-25
4.01849e-23
4.80435e-24
1.45866e-22
4.80738e-24
4.80257e-23
5.71147e-24
4.19451e-23
2.5114e-24
-5.05707e-23
1.95391e-24
8.76435e-23
9.58636e-24
9.26114e-23
5.77892e-24
2.50264e-23
3.0174e-24
-5.60258e-23
2.06244e-25
-2.87278e-23
-4.72917e-23
1.75169e-24
4.70852e-24
1.71658e-24
1.41503e-24
-1.4274e-22
4.68028e-25
-5.14011e-24
-2.70998e-24
-8.92719e-23
-3.75499e-24
-1.81085e-23
3.60619e-24
5.84199e-23
6.26916e-24
1.92927e-23
6.45575e-24
3.03909e-23
9.24151e-24
1.95653e-23
3.18312e-24
-8.08781e-24
-2.09108e-24
-4.26604e-23
1.1557e-24
1.13953e-22
1.58303e-24
-5.79471e-25
4.92089e-24
-2.13859e-23
1.27505e-24
-1.15816e-22
-2.3553e-25
-8.66919e-23
3.2134e-24
-5.57304e-23
4.48425e-24
7.96047e-24
2.7755e-24
-4.56011e-23
1.76192e-24
-5.50644e-23
-1.95387e-24
-2.80705e-23
-3.3477e-24
8.46376e-25
-3.32392e-24
-5.37593e-23
-2.74353e-24
-4.15856e-23
-2.13617e-24
-7.66915e-23
-4.79325e-24
-3.62231e-23
-6.09744e-24
-8.98688e-24
-5.94826e-24
1.52611e-24
-3.90156e-24
1.64626e-23
-4.07866e-24
-3.13639e-23
-1.52327e-24
-1.28004e-23
4.65866e-25
1.68538e-23
-4.75941e-25
5.35886e-24
-2.57797e-24
2.70816e-23
-4.86772e-25
4.94632e-23
4.73084e-24
1.3902e-22
4.72799e-24
6.26852e-23
5.56974e-24
2.54131e-23
2.72086e-24
-7.83609e-23
1.85313e-24
3.07363e-23
9.50303e-24
8.41287e-23
5.63578e-24
2.64015e-23
3.0258e-24
-5.50322e-23
5.46555e-25
-1.93556e-23
1.75363e-24
-7.88477e-24
1.73098e-24
1.70433e-24
-9.63624e-23
6.21324e-25
1.17894e-24
-2.69638e-24
-9.91491e-23
-3.63725e-24
5.04441e-24
3.51155e-24
8.11872e-23
6.28155e-24
1.83012e-23
6.18375e-24
1.4373e-23
8.99965e-24
1.75428e-23
3.05021e-24
-1.61643e-23
-2.17353e-24
-3.52666e-23
8.9197e-25
1.0948e-22
1.43565e-24
1.28963e-23
4.78514e-24
-2.35058e-23
1.11769e-24
-1.13263e-22
-2.1584e-25
-9.76359e-23
3.05875e-24
-6.86003e-23
4.36011e-24
1.94656e-23
2.60818e-24
-3.32006e-23
1.72445e-24
-7.14585e-23
-1.92472e-24
-4.71005e-23
-3.46133e-24
2.98983e-24
-3.381e-24
-6.8046e-23
-2.67479e-24
-4.21802e-23
-1.97653e-24
-5.76685e-23
-4.61788e-24
-4.8556e-23
-5.99757e-24
-1.24056e-23
-5.8685e-24
-1.74119e-24
-3.80656e-24
1.6955e-23
-3.9846e-24
-2.6896e-23
-1.35871e-24
-1.78642e-23
5.57868e-25
1.45197e-23
-4.1654e-25
8.31953e-24
-2.45557e-24
4.80564e-23
-4.36097e-25
8.35968e-23
4.6401e-24
1.30015e-22
4.59812e-24
7.71838e-23
5.47971e-24
1.73965e-23
2.84421e-24
-5.43024e-23
1.9228e-24
3.14547e-23
9.45265e-24
1.06128e-22
5.61773e-24
7.56449e-24
3.08233e-24
-6.1974e-23
-1.80763e-23
1.8936e-24
8.47309e-24
1.89763e-24
1.69863e-24
-9.46056e-23
6.28613e-25
-1.40088e-23
-2.6154e-24
-8.37569e-23
-3.67383e-24
1.90947e-23
3.42314e-24
6.11555e-23
6.04666e-24
1.69654e-23
6.05946e-24
-1.09438e-23
8.89375e-24
1.51554e-23
2.99148e-24
-3.56141e-23
-2.26374e-24
-5.69063e-23
7.2816e-25
1.15202e-22
1.24281e-24
-1.89675e-24
4.5601e-24
-2.69206e-23
9.78519e-25
-7.74356e-23
-2.46773e-25
-8.91098e-23
3.02264e-24
-7.05421e-23
4.26344e-24
2.54345e-23
2.35883e-24
-3.21699e-23
1.70476e-24
-4.53281e-23
-1.84733e-24
-4.61549e-23
-3.61444e-24
-2.72656e-23
-3.41015e-24
-3.61781e-23
-2.5606e-24
-4.53154e-23
-1.88357e-24
-5.83287e-23
-4.42294e-24
-3.61928e-23
-5.87498e-24
-5.52298e-24
-5.77457e-24
-6.66042e-24
-3.67499e-24
1.85602e-23
-3.90637e-24
-1.66343e-23
-1.26722e-24
-1.76447e-23
7.02808e-25
2.28185e-23
-4.02257e-25
1.48168e-24
-2.36841e-24
4.66153e-23
-4.45358e-25
6.28e-23
4.67124e-24
1.25751e-22
4.41355e-24
8.12709e-23
5.39266e-24
-1.26093e-25
2.99846e-24
-5.45449e-23
1.85462e-24
4.28693e-23
9.34266e-24
7.34323e-23
5.50907e-24
-2.03135e-23
3.27153e-24
-2.80106e-23
-2.92094e-23
1.8333e-24
5.07342e-24
1.97052e-24
1.80922e-24
-7.71597e-23
7.2278e-25
-3.20327e-23
-2.57412e-24
-5.90287e-23
-3.61271e-24
4.02851e-23
3.42144e-24
5.28599e-23
5.79676e-24
1.64436e-23
5.89442e-24
-1.29634e-23
8.75195e-24
1.77518e-23
2.82845e-24
-2.15928e-23
-2.13737e-24
-1.16176e-23
5.39656e-25
7.59012e-23
1.10929e-24
-1.66532e-23
4.47773e-24
-3.13987e-23
8.48048e-25
-7.74803e-23
-3.33155e-25
-9.15793e-23
2.96641e-24
-5.18625e-23
4.10342e-24
2.63849e-23
2.12081e-24
-3.23329e-23
1.67795e-24
-1.61375e-23
-1.91623e-24
-4.35347e-23
-3.59828e-24
-2.40083e-23
-3.50958e-24
-3.93608e-23
-2.44389e-24
-4.89325e-23
-1.75681e-24
-4.81977e-23
-4.24975e-24
-4.16096e-23
-5.74755e-24
2.25556e-24
-5.63734e-24
-7.99658e-24
-3.5735e-24
1.93715e-23
-3.76675e-24
-9.17188e-24
-1.16077e-24
-2.78505e-23
8.02868e-25
3.03723e-23
-2.92033e-25
2.33834e-24
-2.36589e-24
2.60293e-23
-3.36711e-25
5.0434e-23
4.57054e-24
1.25664e-22
4.16461e-24
8.57906e-23
5.34042e-24
1.82103e-24
3.14345e-24
-2.5856e-23
1.70612e-24
4.57382e-23
9.23258e-24
6.36815e-23
5.56315e-24
-2.47087e-23
3.26552e-24