/*--------------------------------*- C++ -*----------------------------------*\
  =========                 |
  \\      /  F ield         | OpenFOAM: The Open Source CFD Toolbox
   \\    /   O peration     | Website:  https://openfoam.org
    \\  /    A nd           | Version:  7
     \\/     M anipulation  |
\*---------------------------------------------------------------------------*/
FoamFile
{
    version     2.0;
    format      ascii;
    class       surfaceScalarField;
    location    "188000";
    object      phi;
}
// * * * * * * * * * * * * * * * * * * * * * * * * * * * * * * * * * * * * * //

dimensions      [0 3 -1 0 0 0 0];

internalField   nonuniform List<scalar> 
9375
(
-1.07252e-23
8.63504e-23
-6.93713e-24
1.14268e-22
-8.18328e-24
4.83817e-23
-4.6172e-24
1.00878e-22
-9.97416e-24
-3.94418e-23
5.17902e-23
-2.64439e-24
1.02899e-22
4.29185e-24
-3.87965e-23
-4.8198e-24
-5.13789e-24
-1.43957e-23
7.03002e-23
-2.73317e-24
7.94945e-23
-8.95197e-24
6.64211e-23
-8.50151e-24
8.92866e-23
-1.72245e-23
3.0019e-23
-1.05308e-23
1.0417e-22
-8.83141e-24
8.19986e-23
-8.24326e-24
1.875e-22
-6.84752e-24
1.21737e-22
-6.18572e-24
2.47678e-23
-9.71015e-24
1.79866e-23
-1.50492e-23
6.47677e-23
-1.64508e-23
1.29163e-22
-9.2115e-24
1.15531e-22
-1.02398e-23
1.35664e-22
-4.96041e-24
7.89831e-23
-1.52695e-23
2.93855e-23
-1.93797e-23
9.21642e-23
-1.98372e-23
5.45958e-23
-1.46447e-23
9.8613e-24
-4.54066e-24
1.38228e-22
-5.18187e-24
1.52531e-22
-2.69716e-24
1.8911e-22
-3.48971e-24
1.71523e-23
2.70308e-24
7.76425e-23
8.25367e-23
-4.25633e-24
1.27116e-22
5.22782e-24
-3.61027e-23
-4.28743e-24
-1.12204e-23
-1.42605e-23
5.51119e-23
-2.3483e-24
8.44568e-23
-8.59797e-24
1.0418e-22
-8.0687e-24
1.61744e-22
-1.56862e-23
4.5683e-23
-1.14103e-23
6.45881e-23
-6.93161e-24
1.36125e-22
-8.46731e-24
1.62789e-22
-9.68123e-24
6.70911e-23
-5.05092e-24
3.10905e-23
-9.03512e-24
1.96569e-23
-1.42685e-23
3.49581e-23
-1.52156e-23
1.4567e-22
-9.9951e-24
6.23674e-23
-9.73357e-24
1.29108e-22
-5.62758e-24
1.14929e-22
-1.44014e-23
3.00623e-23
-2.05941e-23
5.0206e-23
-1.99253e-23
1.16543e-23
-1.34275e-23
-5.80249e-24
-3.81464e-24
1.42655e-22
-5.2229e-24
1.48774e-22
-5.64421e-24
1.1221e-22
-2.65064e-24
2.46549e-23
2.63396e-24
3.36265e-23
9.85198e-24
6.55736e-23
8.63216e-24
1.16773e-23
5.64381e-26
5.37202e-23
-1.16049e-24
6.3805e-23
1.35323e-22
-5.30239e-24
1.97127e-22
5.99146e-24
-2.98932e-23
-2.87224e-24
-4.38291e-23
-1.34978e-23
6.92513e-23
-1.65321e-24
7.58436e-23
-6.83579e-24
7.48119e-23
-9.99496e-24
1.52494e-22
-1.52437e-23
1.04728e-22
-1.04257e-23
1.37177e-22
-7.16132e-24
7.25876e-23
-8.95903e-24
1.53098e-22
-1.14057e-23
5.64795e-23
-4.33624e-24
3.25564e-23
-8.59742e-24
4.14066e-23
-1.28032e-23
1.01668e-23
-1.5068e-23
1.35694e-22
-1.02258e-23
7.1395e-23
-8.90262e-24
1.97054e-22
-6.80275e-24
1.12612e-22
-1.42485e-23
3.12749e-23
-2.17255e-23
-3.58616e-23
-1.95297e-23
-1.53485e-24
-1.14262e-23
-1.63022e-23
-3.09021e-24
1.22696e-22
-7.11634e-24
9.50771e-23
-5.95077e-24
1.02559e-22
-2.87915e-24
3.25785e-23
3.25803e-24
6.49445e-23
9.53814e-24
1.85419e-22
9.23157e-24
-4.70593e-23
7.96531e-25
5.79673e-23
2.80388e-25
5.71507e-23
3.63907e-24
8.02807e-23
5.12607e-24
-1.13919e-23
-1.49577e-24
2.50499e-23
-7.08181e-24
-7.09059e-23
-1.97255e-25
-2.88513e-24
-4.22952e-24
5.12056e-23
-8.90269e-24
7.54229e-23
-8.25597e-24
8.28468e-23
1.06063e-24
1.38025e-22
-4.7635e-24
1.48063e-22
-9.02545e-25
4.87995e-23
-1.14008e-23
-2.03814e-23
-8.25579e-23
-8.21804e-24
1.71398e-22
5.95981e-24
6.35359e-24
-1.07675e-24
-4.12626e-23
-1.26186e-23
8.89092e-23
-1.7259e-24
1.55882e-22
-4.53378e-24
7.45035e-23
-9.93362e-24
8.06932e-23
-1.48809e-23
8.76765e-23
-1.09628e-23
8.26797e-23
-6.22585e-24
1.20441e-22
-9.91919e-24
1.87434e-22
-1.24427e-23
2.41811e-23
-3.40483e-24
2.77352e-23
-8.45202e-24
9.97894e-23
-1.13279e-23
-2.58225e-23
-1.4589e-23
6.11241e-23
-9.1036e-24
1.14498e-22
-9.80237e-24
1.63801e-22
-7.44328e-24
1.42532e-22
-1.55956e-23
2.77193e-23
-2.15853e-23
-4.06291e-23
-1.95661e-23
-1.57801e-23
-8.92531e-24
1.03362e-22
-3.48363e-24
1.14803e-22
-8.37908e-24
8.95723e-23
-5.72485e-24
1.44187e-22
-2.92907e-24
3.58402e-23
5.15381e-24
7.84109e-23
6.2655e-24
1.07143e-22
1.13256e-23
7.7893e-24
7.10385e-25
-5.53722e-23
5.77762e-25
8.43296e-23
2.9005e-24
3.75996e-23
4.66014e-24
-3.69787e-23
-1.48478e-24
4.27872e-23
-6.73155e-24
-7.15865e-23
1.73554e-24
-1.71681e-23
-4.54465e-24
5.21929e-23
-6.47768e-24
8.69017e-23
-8.55969e-24
7.82833e-23
9.99704e-25
1.30632e-22
-5.65873e-24
8.51375e-23
-3.62713e-24
4.95397e-23
-1.14346e-23
6.35624e-23
-4.75252e-23
-8.52303e-24
1.73229e-22
5.34729e-24
8.5216e-23
1.23691e-25
-3.70109e-23
-1.10211e-23
1.37195e-22
-3.93861e-24
1.55725e-22
-4.81566e-24
1.09449e-22
-8.55835e-24
1.60345e-22
-1.53017e-23
9.62706e-23
-1.11837e-23
7.20901e-23
-5.55423e-24
1.03319e-22
-1.04244e-23
1.50022e-22
-1.20824e-23
7.06773e-23
-3.07624e-24
6.41407e-23
-8.66437e-24
1.36695e-22
-1.10687e-23
-3.28957e-23
-1.23882e-23
6.63699e-23
-8.93807e-24
6.86626e-23
-9.72833e-24
1.21089e-22
-8.66783e-24
1.34303e-22
-1.67498e-23
2.18007e-23
-2.18288e-23
-4.33728e-23
-1.75541e-23
-2.99044e-23
-8.55538e-24
9.70721e-23
-3.71006e-24
2.12179e-23
-8.8523e-24
8.43671e-23
-5.58626e-24
1.82643e-22
-2.97102e-24
6.11634e-24
5.57544e-24
1.19848e-22
4.21364e-24
1.10714e-22
1.02075e-23
2.20296e-23
3.28383e-24
-4.83528e-23
2.60019e-26
1.08711e-23
2.99241e-24
2.53825e-23
5.93256e-24
-5.2427e-23
-1.37629e-24
2.43475e-23
-5.4922e-24
-6.80443e-23
3.37591e-24
-3.23175e-23
-4.87743e-24
6.889e-23
-4.30142e-24
7.85781e-23
-8.27447e-24
7.91342e-23
8.73562e-25
1.50557e-22
-6.46241e-24
5.64094e-23
-3.34312e-24
8.37628e-23
-1.27493e-23
6.78306e-23
-4.90646e-23
-1.01364e-23
1.79747e-22
4.92102e-24
8.54228e-23
1.80457e-24
-2.90133e-23
-9.52557e-24
7.4299e-23
-2.97144e-24
7.01093e-23
-3.81344e-24
3.48629e-23
-9.25676e-24
1.7973e-22
-1.46379e-23
1.08734e-22
-1.02622e-23
6.81634e-23
-5.62477e-24
1.0862e-22
-1.00045e-23
1.53081e-22
-1.29786e-23
3.21773e-23
-2.04992e-24
5.3887e-23
-9.36504e-24
1.22296e-22
-1.09781e-23
-4.69044e-23
-1.0203e-23
1.35747e-22
-9.08525e-24
7.67788e-23
-9.41447e-24
8.88582e-23
-9.78762e-24
1.27973e-22
-1.75541e-23
-2.27269e-23
-2.22082e-23
-4.32697e-23
-1.5617e-23
3.55814e-23
-9.30319e-24
1.30808e-22
-2.78646e-24
3.98897e-23
-8.64125e-24
8.15512e-23
-6.48648e-24
1.40488e-22
-2.96986e-24
-1.73557e-24
5.92179e-24
1.16155e-22
3.75546e-24
1.05878e-22
8.88935e-24
3.95365e-23
3.24419e-24
-1.24978e-23
6.60392e-25
1.22959e-23
1.94059e-24
1.88372e-23
6.3553e-24
-4.59634e-23
-1.15521e-24
2.14224e-23
-7.41836e-24
-2.21139e-23
5.17815e-24
8.04577e-23
-4.65555e-24
9.8175e-23
-3.23121e-24
6.76721e-23
-7.71396e-24
8.25496e-23
4.44044e-25
1.39655e-22
-6.65014e-24
6.13399e-23
-4.65713e-24
8.09575e-23
-1.30907e-23
7.55597e-23
-8.37777e-23
-9.74846e-24
7.05904e-23
5.14949e-24
8.6216e-23
2.27805e-24
-2.36549e-23
-9.3244e-24
5.49767e-23
-2.71335e-24
9.58164e-23
-2.29459e-24
6.79843e-23
-1.04343e-23
1.26382e-22
-1.43805e-23
1.19819e-22
-1.00886e-23
5.76351e-23
-5.49621e-24
9.82971e-23
-1.04767e-23
1.15369e-22
-1.27893e-23
6.91505e-23
-1.60105e-24
4.62947e-23
-9.71407e-24
1.42331e-22
-9.78918e-24
3.09743e-23
-9.55615e-24
1.33178e-22
-9.69711e-24
4.45576e-23
-8.74824e-24
8.14009e-23
-1.12577e-23
8.18333e-23
-1.76288e-23
-6.3251e-23
-2.14844e-23
-2.58002e-23
-1.4965e-23
1.07846e-22
-1.01496e-23
1.69468e-22
-2.07649e-24
2.25564e-23
-9.06622e-24
4.14264e-23
-6.7792e-24
9.15458e-23
-2.5731e-24
-1.27065e-23
6.90926e-24
1.49692e-22
2.47783e-24
7.11295e-23
8.34139e-24
1.474e-22
3.45694e-24
-5.67629e-25
1.41115e-24
5.70412e-23
9.12041e-25
1.56309e-23
6.96633e-24
-1.48685e-23
5.51897e-26
3.93547e-23
-6.06976e-24
-3.52952e-23
5.40992e-24
1.30565e-22
-4.65694e-24
8.94948e-23
-3.90156e-24
6.38615e-23
-7.85248e-24
1.22093e-22
1.66704e-25
1.71043e-22
-6.93207e-24
6.29509e-23
-5.32719e-24
7.2386e-23
-1.44519e-23
7.85456e-23
-1.3161e-22
-9.71694e-24
1.22086e-22
5.06081e-24
1.17251e-22
2.08659e-24
-2.08636e-23
-8.59478e-24
8.93018e-23
-1.80633e-24
8.9708e-23
-8.36192e-25
4.89381e-23
-9.85236e-24
8.57653e-23
-1.53428e-23
1.71386e-22
-9.25287e-24
1.43275e-22
-5.82889e-24
8.92538e-23
-1.02742e-23
1.50381e-22
-1.32785e-23
8.09384e-23
-3.65815e-25
7.27348e-23
-9.19212e-24
1.15062e-22
-9.80341e-24
2.54452e-23
-9.65625e-24
9.2528e-23
-9.56227e-24
4.74877e-23
-8.87798e-24
4.67436e-23
-1.2379e-23
7.78965e-23
-1.71386e-23
-7.03749e-23
-2.00126e-23
-2.26009e-23
-1.46817e-23
1.11363e-22
-1.12151e-23
1.77015e-22
-1.56192e-24
1.3273e-22
-9.75124e-24
3.5984e-23
-6.61875e-24
8.99378e-23
-2.36185e-24
-4.29129e-23
6.50773e-24
1.36917e-22
3.88067e-24
2.67446e-23
6.32199e-24
1.04026e-22
4.07949e-24
1.34536e-23
1.14181e-24
2.72359e-23
7.36563e-25
-2.04316e-23
7.16611e-24
1.1012e-23
-5.18153e-25
-1.98355e-23
-4.09712e-24
3.86745e-23
6.25871e-24
1.17381e-22
-5.17823e-24
9.0024e-23
-2.11083e-24
5.77796e-23
-8.30871e-24
4.92191e-23
-3.40199e-25
1.64127e-22
-7.17777e-24
5.08488e-23
-5.2733e-24
5.97623e-23
-1.51759e-23
4.65682e-24
-1.34703e-22
-9.02037e-24
1.52624e-22
5.07567e-24
1.18984e-22
3.44974e-24
-1.75931e-23
-8.21813e-24
7.07698e-23
-1.87435e-24
1.03993e-22
4.22706e-25
6.45482e-23
-8.34059e-24
9.61853e-23
-1.60685e-23
1.90902e-22
-1.0151e-23
1.61638e-22
-5.68619e-24
8.64274e-23
-9.87841e-24
1.04808e-22
-1.3986e-23
5.46087e-23
-2.44874e-26
1.48972e-22
-8.41738e-24
9.01372e-23
-9.98127e-24
-9.07942e-24
-8.93957e-24
8.88887e-23
-9.87052e-24
2.96539e-23
-8.64878e-24
4.82004e-23
-1.36931e-23
7.33266e-23
-1.64214e-23
-7.57342e-23
-1.82586e-23
2.6478e-23
-1.45226e-23
1.13988e-22
-1.11148e-23
1.75378e-22
-2.95554e-24
1.16647e-22
-1.06955e-23
-2.93842e-24
-6.71043e-24
1.15502e-22
-1.62565e-24
-6.88892e-23
6.34375e-24
1.2018e-22
4.87305e-24
3.00446e-24
5.4511e-24
2.44071e-23
4.0244e-24
2.24232e-23
8.36735e-25
-5.85234e-24
1.76976e-24
-5.83104e-23
5.82324e-24
-2.27499e-23
1.70566e-24
6.165e-23
-3.70304e-24
-1.73797e-23
5.70412e-24
1.29004e-22
-5.16599e-24
6.11537e-23
-1.76983e-24
4.82599e-23
-8.51772e-24
2.85375e-23
-1.94961e-24
1.52352e-22
-6.25874e-24
4.04099e-23
-5.91115e-24
1.61506e-23
-1.63061e-23
-1.06803e-22
-1.47486e-22
-7.98221e-24
1.66227e-22
4.61831e-24
1.2382e-22
4.25556e-24
1.13966e-22
-8.501e-24
8.52759e-23
-2.30315e-24
9.68422e-23
2.05591e-24
1.11804e-22
-8.41005e-24
4.77985e-23
-1.60777e-23
1.72085e-22
-1.07769e-23
1.20402e-22
-5.9591e-24
8.60403e-23
-9.4692e-24
1.03084e-22
-1.37103e-23
1.5071e-23
-3.78816e-25
1.70683e-22
-8.48326e-24
9.85344e-23
-9.80745e-24
-2.33982e-23
-8.99653e-24
8.9517e-23
-9.74414e-24
3.25099e-23
-8.18442e-24
4.66694e-23
-1.49258e-23
5.36432e-23
-1.52868e-23
-7.96552e-23
-1.70099e-23
3.9432e-23
-1.46894e-23
1.09259e-22
-1.06466e-23
1.86818e-22
-4.46174e-24
7.38173e-23
-1.09587e-23
-8.17726e-24
-7.6777e-24
9.93981e-23
-3.76145e-25
-5.49381e-23
6.17239e-24
1.07834e-22
5.54122e-24
6.09705e-23
4.74202e-24
-8.60566e-24
4.0304e-24
3.07861e-23
5.67615e-25
-3.34426e-23
1.53194e-24
-7.75785e-24
8.1721e-24
-2.58787e-23
1.44897e-24
-1.48241e-23
-1.91483e-24
-2.49593e-23
5.34499e-24
1.08441e-22
-5.22383e-24
2.72068e-23
-1.11797e-24
1.57408e-23
-7.80319e-24
-2.62281e-23
-1.28806e-24
1.80885e-22
-7.10711e-24
-4.77157e-24
-7.64019e-24
1.00417e-23
-1.59012e-23
-6.02031e-23
-9.72458e-23
-7.41429e-24
2.23537e-22
4.78627e-24
1.73446e-22
4.24282e-24
1.01736e-22
-8.26453e-24
5.1199e-23
-1.58679e-24
8.53005e-23
2.41274e-24
1.13415e-22
-7.56352e-24
7.24726e-23
-1.65439e-23
1.46206e-22
-1.12793e-23
6.76942e-23
-6.14329e-24
9.12413e-23
-9.29142e-24
1.06259e-22
-1.2555e-23
5.06182e-24
-3.05267e-25
1.48661e-22
-9.05204e-24
8.96632e-23
-9.20917e-24
-4.71436e-23
-8.82325e-24
8.80948e-23
-9.45883e-24
7.15904e-23
-8.23987e-24
1.06486e-23
-1.57821e-23
-1.79649e-23
-1.40604e-23
-4.00415e-23
-1.60511e-23
3.11405e-23
-1.43884e-23
9.795e-23
-1.1536e-23
1.68503e-22
-5.12057e-24
6.09113e-23
-1.14417e-23
-5.52607e-23
-7.86198e-24
7.82974e-23
-6.17224e-25
1.93142e-24
7.12413e-24
1.75531e-22
4.19393e-24
5.12558e-23
4.94198e-24
5.43367e-23
3.60858e-24
4.02204e-23
1.33148e-24
5.24886e-23
7.07768e-25
-9.44081e-24
8.94306e-24
-6.18725e-24
2.18318e-24
-3.37232e-23
-8.61243e-25
-3.03595e-23
4.79959e-24
4.55533e-23
-4.41953e-24
2.53337e-23
-2.64081e-24
4.33748e-23
-5.89926e-24
-7.95347e-23
-2.35718e-24
1.71794e-22
-7.27609e-24
-1.6328e-24
-8.21745e-24
3.76534e-24
-1.49105e-23
-5.64072e-23
-1.06641e-22
-7.45067e-24
2.21537e-22
4.89294e-24
2.53127e-22
3.78963e-24
1.02488e-22
-7.05051e-24
6.13043e-23
-1.65848e-24
7.5374e-23
3.69446e-24
1.17096e-22
-7.40757e-24
5.83067e-24
-1.73851e-23
1.43367e-22
-1.04371e-23
5.72919e-23
-6.50082e-24
9.7204e-23
-9.45349e-24
1.12141e-22
-1.1934e-23
3.95576e-23
-3.98349e-25
1.35771e-22
-1.01432e-23
8.25433e-23
-8.26288e-24
-3.28365e-23
-8.48513e-24
1.25811e-22
-1.01293e-23
7.24107e-23
-8.83868e-24
5.23886e-24
-1.52093e-23
-1.51905e-23
-1.37224e-23
-2.69662e-23
-1.47424e-23
7.53194e-23
-1.42847e-23
8.82303e-23
-1.23999e-23
1.15569e-22
-5.96348e-24
5.92973e-23
-1.11095e-23
-2.02534e-23
-7.0721e-24
1.30818e-22
2.98843e-26
5.27927e-23
6.27787e-24
2.3547e-22
4.68163e-24
4.8262e-23
3.87484e-24
4.98383e-23
4.51415e-24
4.82225e-23
7.02796e-25
3.30612e-23
-4.45538e-25
-3.15914e-23
9.73367e-24
6.41298e-23
2.7087e-24
-3.1753e-23
-4.34357e-25
-2.89083e-23
6.35839e-24
4.64583e-23
-5.34642e-24
2.56167e-23
-2.60952e-24
-3.90568e-23
-4.61401e-24
-1.34205e-23
-3.06591e-24
1.85357e-22
-8.06586e-24
1.70611e-24
-8.8299e-24
1.78957e-23
-1.53891e-23
-5.28258e-23
-3.30195e-23
-5.45628e-24
2.28547e-23
-6.26186e-24
2.88655e-22
3.95038e-24
1.70876e-22
4.12699e-24
1.01543e-22
-6.33295e-24
4.33827e-23
-1.78099e-24
1.13455e-22
3.62531e-24
1.96751e-22
-6.37518e-24
-1.33442e-23
-1.7888e-23
9.68273e-23
-9.82721e-24
2.00615e-23
-5.84066e-24
2.48628e-23
-9.91064e-24
1.23146e-22
-1.14764e-23
4.89853e-23
6.14634e-26
1.98825e-22
-1.07618e-23
9.30609e-23
-6.87977e-24
4.05702e-23
-8.75355e-24
1.37243e-22
-1.0486e-23
7.49001e-23
-9.2439e-24
8.15581e-23
-1.48134e-23
-1.3892e-23
-1.30481e-23
-1.5784e-23
-1.40924e-23
3.54031e-23
-1.48301e-23
4.24772e-24
-1.27397e-23
7.437e-23
-6.56655e-24
5.2367e-23
-1.07377e-23
-4.98088e-23
-6.50916e-24
8.29478e-23
6.35542e-25
2.29285e-23
4.90127e-24
1.75799e-22
4.90945e-24
1.10473e-22
3.18931e-24
4.83048e-23
4.73502e-24
5.77841e-23
-2.51054e-25
8.03549e-23
-1.32068e-25
-1.3067e-23
9.17261e-24
5.4677e-23
3.3245e-24
-9.12094e-23
1.07312e-24
-4.41749e-23
6.66858e-24
8.78943e-23
-5.89095e-24
3.30836e-23
-2.1457e-24
4.80348e-23
-4.39117e-24
-9.15078e-23
-3.66072e-24
1.81637e-22
-9.57978e-24
6.96261e-24
-9.07857e-24
1.06606e-22
-1.63247e-23
-4.73369e-23
-4.28783e-23
-4.22849e-24
5.67543e-23
-6.56157e-24
2.3927e-22
4.34534e-24
2.45443e-22
3.76503e-24
1.06343e-22
-5.44897e-24
4.91871e-23
-6.91962e-25
1.06401e-22
1.57753e-24
1.89699e-22
-5.5782e-24
-6.24133e-24
-1.77119e-23
9.86597e-23
-1.04417e-23
1.20738e-23
-4.6257e-24
2.04892e-23
-1.03864e-23
1.38335e-22
-1.04397e-23
1.16877e-22
-3.25134e-25
1.79073e-22
-1.08128e-23
8.48598e-23
-6.34819e-24
1.9028e-23
-9.20302e-24
9.67244e-23
-9.68285e-24
1.02263e-22
-1.07116e-23
5.08375e-23
-1.41112e-23
2.39089e-23
-1.2676e-23
3.02408e-23
-1.40364e-23
7.19575e-23
-1.48432e-23
4.42373e-23
-1.26612e-23
1.08553e-22
-7.38338e-24
4.48078e-23
-1.08014e-23
-4.43757e-23
-5.53339e-24
1.46685e-22
8.17612e-25
1.03344e-23
5.27437e-24
1.53638e-22
4.24729e-24
6.60485e-23
3.66136e-24
7.60314e-23
3.89036e-24
6.69102e-23
3.58667e-25
7.23254e-23
-3.48525e-25
-1.8054e-23
8.68089e-24
4.54788e-23
3.76482e-24
-8.04773e-23
2.33967e-24
-2.90128e-23
6.46089e-24
5.39083e-23
-5.20722e-24
-4.26502e-23
-3.14974e-24
1.93489e-24
-2.74921e-24
-2.73358e-23
-3.73869e-24
1.79256e-22
-8.64284e-24
-5.99408e-24
-1.00826e-23
5.20838e-23
-1.60175e-23
-4.69038e-23
-5.18167e-23
-4.2003e-24
1.28779e-22
-5.58796e-24
2.51705e-22
3.41139e-24
2.40691e-22
3.59725e-24
1.11166e-22
-4.36074e-24
4.29804e-23
-9.79765e-25
9.60319e-23
1.37702e-24
1.80366e-22
-5.77722e-24
-1.72689e-24
-1.7981e-23
3.87298e-23
-1.05075e-23
3.86276e-23
-3.63626e-24
7.59995e-23
-1.03147e-23
8.93868e-23
-1.01878e-23
1.04222e-22
-3.69849e-25
1.56994e-22
-1.07849e-23
4.32855e-23
-5.95743e-24
7.76258e-24
-9.13487e-24
2.25841e-23
-9.54131e-24
1.0103e-22
-1.14137e-23
5.20012e-23
-1.37089e-23
3.03299e-23
-1.25319e-23
5.39832e-23
-1.37898e-23
4.88303e-23
-1.47945e-23
1.27574e-23
-1.28172e-23
9.59896e-23
-7.7545e-24
4.28189e-23
-1.03092e-23
-6.59909e-25
-5.45842e-24
1.28872e-22
1.09371e-24
-7.08978e-24
4.21256e-24
1.29693e-22
5.01632e-24
5.75766e-23
3.27347e-24
9.12812e-23
4.37642e-24
7.82013e-23
-4.16166e-26
1.03018e-22
-1.84763e-25
9.14921e-24
8.29685e-24
3.94457e-23
4.04989e-24
-6.76251e-23
4.27845e-24
3.26976e-23
5.93246e-24
4.06574e-23
-4.97988e-24
-3.7158e-23
-3.01122e-24
-6.28605e-24
-1.50792e-24
-3.19057e-23
-4.0919e-24
9.85594e-23
-9.73718e-24
-8.35712e-23
-9.54191e-24
6.26713e-23
-1.75962e-23
-8.62927e-23
-3.04971e-23
-1.45029e-23
2.7652e-22
-3.55739e-24
1.29133e-22
-4.85869e-24
2.62246e-22
2.67228e-24
2.33819e-22
3.50687e-24
1.12151e-22
-3.74537e-24
4.8459e-23
6.64516e-25
8.83775e-23
8.63074e-25
1.62042e-22
-6.23783e-24
4.56132e-25
-1.72909e-23
5.58964e-23
-1.04493e-23
3.01035e-23
-2.76354e-24
1.29685e-22
-9.36978e-24
1.32886e-22
-9.70159e-24
9.60173e-23
-3.73439e-25
1.58488e-22
-1.11407e-23
8.55132e-24
-6.17704e-24
-8.6306e-25
-8.15523e-24
2.47648e-23
-9.4102e-24
1.05604e-22
-1.20802e-23
3.59885e-23
-1.29441e-23
4.87381e-23
-1.28442e-23
6.59313e-23
-1.35281e-23
1.72402e-23
-1.48125e-23
1.59657e-23
-1.30962e-23
9.26666e-23
-7.83084e-24
4.44506e-23
-9.82112e-24
-1.54684e-23
-5.91871e-24
1.29751e-22
1.48064e-24
3.93218e-23
3.49959e-24
1.37613e-22
4.76545e-24
9.69218e-23
3.13982e-24
9.16066e-23
4.08636e-24
4.89715e-23
-2.18934e-25
1.6523e-22
-5.69852e-25
2.21629e-23
8.14578e-24
7.31955e-23
4.78245e-24
-5.7826e-23
3.86651e-24
3.41859e-23
5.57445e-24
2.86459e-23
-4.6815e-24
-3.27354e-23
-2.74846e-24
-1.34338e-23
-1.94817e-24
-3.54468e-23
-3.37316e-24
5.9391e-23
-9.58743e-24
-8.53516e-23
-9.83458e-24
1.4668e-22
-1.75919e-23
-8.57412e-23
1.90839e-23
-1.43825e-23
2.73296e-22
-3.88719e-24
2.06629e-22
-4.48744e-24
2.71009e-22
1.68633e-24
2.30137e-22
3.37137e-24
1.26467e-22
-3.24865e-24
3.83841e-23
7.80542e-25
1.593e-22
1.30246e-24
1.55336e-22
-7.03194e-24
5.85897e-24
-1.59463e-23
7.00101e-23
-1.02583e-23
2.34468e-23
-2.22825e-24
1.8416e-22
-9.87258e-24
7.49654e-23
-9.4783e-24
8.78683e-23
-1.17328e-24
1.60324e-22
-1.12675e-23
3.41918e-24
-6.14476e-24
5.86782e-23
-7.29525e-24
2.86093e-23
-9.13396e-24
1.1331e-22
-1.26047e-23
2.13873e-23
-1.21017e-23
7.20682e-23
-1.37363e-23
8.24315e-24
-1.28751e-23
1.59981e-23
-1.48363e-23
-4.77227e-23
-1.31636e-23
1.05702e-22
-8.25439e-24
4.97812e-23
-9.14063e-24
-1.52654e-23
-6.07109e-24
3.70248e-23
1.79972e-24
8.48758e-23
3.6946e-24
1.26891e-22
4.92335e-24
9.49825e-23
3.54833e-24
9.47701e-23
4.10511e-24
1.22567e-23
-6.09913e-25
1.61125e-22
-1.25482e-24
3.11892e-23
8.03355e-24
7.07871e-23
5.08507e-24
-1.15758e-22
4.16427e-24
2.15756e-23
5.65539e-24
2.04761e-23
-4.76063e-24
-3.30206e-23
-1.82735e-24
-2.01907e-23
-2.14328e-24
-3.80587e-23
-3.37324e-24
1.24718e-22
-8.58735e-24
-8.4807e-23
-1.00812e-23
1.31417e-22
-1.8565e-23
-9.44267e-23
7.21508e-23
-1.92322e-23
-1.05476e-23
-1.43912e-23
1.51634e-22
-3.77634e-24
2.01683e-22
-3.91309e-24
2.8013e-22
8.15804e-25
2.15956e-22
4.03164e-24
1.98381e-22
-2.42116e-24
4.33701e-23
6.77223e-25
1.48755e-22
-8.16848e-27
1.0845e-22
-7.11155e-24
7.90381e-24
-1.57803e-23
8.23796e-23
-9.49427e-24
8.30656e-23
-2.79192e-24
2.17261e-22
-9.716e-24
4.84347e-23
-8.5523e-24
1.31107e-22
-2.03778e-24
1.27649e-22
-1.08872e-23
1.01627e-23
-6.41051e-24
5.3912e-23
-6.53168e-24
5.46966e-23
-9.18502e-24
3.74649e-23
-1.26668e-23
-3.99654e-23
-1.21105e-23
6.64184e-23
-1.39542e-23
9.02517e-24
-1.29735e-23
6.30402e-23
-1.41319e-23
-5.05543e-23
-1.34395e-23
1.10304e-22
-8.18752e-24
7.67021e-23
-9.67425e-24
-9.97463e-24
-5.08697e-24
2.36326e-23
1.75555e-24
7.29119e-23
3.89484e-24
1.20089e-22
4.10236e-24
9.15526e-23
4.21783e-24
1.37506e-22
4.22412e-24
4.69813e-24
-2.84469e-25
1.16214e-22
-1.04468e-24
4.08766e-23
7.3837e-24
6.91937e-23
6.29322e-24
-3.03219e-23
4.26448e-24
-3.93968e-23
5.46736e-24
8.02187e-23
-4.97492e-24
-3.18511e-23
-1.97575e-24
-2.49254e-23
-1.37453e-24
-4.26338e-23
-3.54529e-24
1.18423e-22
-7.96226e-24
3.90716e-23
-1.09845e-23
1.38905e-22
-1.77454e-23
-8.95467e-23
7.83162e-23
-1.92507e-23
-1.72637e-23
-1.23441e-23
1.47337e-22
-3.65717e-24
1.30012e-22
-3.74644e-24
2.47099e-22
9.18257e-25
1.41841e-22
4.11884e-24
1.2925e-22
-1.6969e-24
4.55538e-23
2.60479e-25
1.37429e-22
7.93466e-27
8.65339e-23
-6.75163e-24
1.41351e-23
-1.51207e-23
1.53258e-23
-8.22125e-24
7.89728e-23
-3.83706e-24
2.15535e-22
-9.87922e-24
1.82403e-23
-8.23453e-24
1.29076e-22
-2.36813e-24
1.13193e-22
-1.06567e-23
1.58488e-23
-6.44573e-24
5.02799e-23
-6.48459e-24
9.38623e-23
-9.22788e-24
4.52896e-23
-1.22613e-23
-3.28462e-23
-1.21584e-23
4.27513e-23
-1.3633e-23
7.75904e-24
-1.36086e-23
5.96775e-23
-1.3307e-23
-5.11664e-23
-1.3684e-23
7.40615e-23
-8.39002e-24
7.94611e-23
-1.01737e-23
-4.19077e-23
-4.10062e-24
1.18149e-23
1.76616e-24
6.69629e-23
4.02592e-24
1.14944e-22
4.59909e-24
8.69882e-23
3.94057e-24
1.51908e-22
4.0065e-24
-8.02023e-24
-3.71438e-25
1.11051e-22
-1.36015e-24
6.5618e-23
6.75703e-24
1.24684e-22
6.49119e-24
9.78186e-24
5.66903e-24
-1.73848e-23
4.64815e-24
8.01681e-23
-4.9719e-24
1.13672e-23
-2.20672e-24
4.50702e-23
-7.31788e-25
-8.78751e-24
-3.36648e-24
1.13756e-22
-8.50505e-24
4.09012e-23
-1.16998e-23
1.53626e-22
-1.77599e-23
-4.64775e-23
2.75058e-23
-1.8949e-23
-2.28797e-23
-1.20136e-23
1.40712e-22
-3.16874e-24
1.3001e-22
-3.93487e-24
2.51679e-22
4.77982e-25
1.56454e-22
4.69537e-24
1.2575e-22
-1.27524e-24
-2.23307e-23
-5.01171e-26
1.33975e-22
1.54844e-25
7.94224e-23
-6.89836e-24
-6.12982e-23
-1.39819e-23
2.3677e-23
-7.41053e-24
7.53305e-23
-4.84188e-24
1.74966e-22
-8.85555e-24
2.61034e-23
-8.17341e-24
1.70983e-22
-2.21365e-24
9.06964e-23
-1.06688e-23
2.41727e-24
-6.00799e-24
9.46278e-23
-6.81889e-24
9.25945e-23
-9.33167e-24
5.19521e-23
-1.20113e-23
-2.60185e-23
-1.18835e-23
3.40076e-23
-1.34407e-23
-3.95125e-24
-1.40515e-23
5.68026e-23
-1.2768e-23
1.08085e-23
-1.35726e-23
8.68087e-23
-8.93085e-24
9.63868e-23
-1.03135e-23
-3.02155e-23
-3.56154e-24
6.95306e-23
1.93645e-24
5.72127e-23
3.96988e-24
1.10862e-22
3.78878e-24
4.50422e-23
3.63138e-24
1.51399e-22
3.96683e-24
-1.73889e-23
3.53722e-25
1.02506e-22
-1.80735e-24
4.64382e-24
6.46348e-24
1.59553e-22
6.15525e-24
1.37107e-23
6.72646e-24
-1.53882e-23
5.16729e-24
8.2696e-23
-5.51642e-24
-2.13514e-23
-1.87715e-24
3.99235e-23
1.628e-25
5.45293e-23
-2.77436e-24
1.09786e-22
-8.8536e-24
4.37809e-23
-1.2514e-23
8.86381e-23
-1.91631e-23
1.64442e-24
8.07962e-23
-1.86342e-23
-4.61766e-23
-1.13278e-23
1.86351e-22
-2.31277e-24
1.33438e-22
-4.50456e-24
1.96364e-22
5.08326e-25
1.73068e-22
5.22229e-24
1.38669e-22
-1.09845e-24
-1.65059e-23
-1.10759e-26
1.8123e-22
-5.5664e-25
6.40807e-23
-6.99325e-24
-9.86362e-23
-1.28369e-23
2.85986e-23
-7.19312e-24
1.10495e-22
-5.11178e-24
1.76445e-22
-8.85204e-24
2.54809e-23
-8.07814e-24
1.24516e-22
-2.57468e-24
8.2475e-23
-9.93555e-24
1.37636e-23
-6.17255e-24
1.39301e-22
-6.62739e-24
8.62267e-23
-9.67005e-24
5.93242e-23
-1.19852e-23
-1.78881e-23
-1.15526e-23
2.06727e-23
-1.32125e-23
1.94251e-23
-1.39127e-23
6.06436e-23
-1.27222e-23
8.63014e-24
-1.3626e-23
7.58307e-23
-9.43861e-24
1.0149e-22
-9.94757e-24
-2.01409e-23
-3.48542e-24
4.95783e-23
2.53178e-24
8.66162e-23
3.58793e-24
1.07057e-22
3.91635e-24
5.32958e-23
2.94429e-24
1.57375e-22
4.15916e-24
-2.78446e-23
1.63369e-24
1.15553e-22
-1.62659e-24
9.03699e-24
5.59769e-24
1.77735e-22
7.1535e-24
8.7284e-23
6.90995e-24
-5.24966e-23
4.591e-24
2.47014e-23
-4.49636e-24
-5.58957e-23
-1.7424e-24
3.70372e-23
9.25415e-26
8.93671e-23
-2.17986e-24
1.02665e-22
-9.82955e-24
-2.69396e-23
-1.21005e-23
1.02939e-22
-1.94065e-23
5.12547e-23
7.26309e-23
-1.83824e-23
1.16285e-23
-1.07253e-23
2.78309e-22
-1.73778e-24
1.3505e-22
-4.21517e-24
2.04295e-22
4.31623e-25
1.00982e-22
4.96121e-24
8.743e-23
-8.19021e-25
-4.88947e-23
3.46046e-25
1.85355e-22
-1.60153e-24
-1.43698e-23
-5.92366e-24
-1.33084e-22
-1.17575e-23
7.81965e-23
-6.49927e-24
1.05963e-22
-6.07928e-24
1.07896e-22
-8.60538e-24
-1.72474e-23
-8.21487e-24
5.86999e-23
-2.56391e-24
7.13478e-23
-8.97954e-24
2.55677e-23
-6.54312e-24
1.00273e-22
-6.51955e-24
8.38086e-23
-1.00222e-23
6.69841e-23
-1.20171e-23
-1.07716e-23
-1.10204e-23
1.11808e-23
-1.31231e-23
3.32672e-24
-1.37957e-23
6.45242e-23
-1.26909e-23
8.98693e-24
-1.35807e-23
5.31882e-23
-9.54804e-24
1.09859e-22
-1.01896e-23
-1.14447e-23
-2.72331e-24
7.19217e-23
2.16392e-24
7.57588e-23
3.93467e-24
1.02565e-22
3.97021e-24
4.70139e-23
2.70309e-24
1.78938e-22
3.9062e-24
6.26306e-23
2.19119e-24
1.36996e-22
-1.51765e-24
-5.59057e-23
4.81016e-24
2.27899e-22
6.99331e-24
1.04095e-22
7.46572e-24
-4.63089e-23
5.25459e-24
4.82883e-23
-4.5081e-24
-1.2136e-22
-1.46019e-24
1.06559e-22
1.26837e-25
8.72574e-23
-2.55466e-24
9.53439e-23
-9.4882e-24
-9.77727e-23
-1.18538e-23
1.09828e-22
-1.99367e-23
4.74912e-24
3.69628e-23
-2.54247e-23
8.33303e-23
-1.69753e-23
1.42105e-22
-1.14378e-23
2.80274e-22
-1.07282e-24
2.03843e-22
-4.55024e-24
1.48533e-22
-2.57157e-25
1.06782e-22
5.76151e-24
1.10652e-22
6.09576e-25
-4.00614e-23
-3.02809e-25
2.30192e-22
-2.41305e-24
-1.45948e-23
-4.52206e-24
-7.13475e-23
-1.18308e-23
8.66012e-23
-6.40854e-24
1.71705e-22
-6.49766e-24
1.12896e-22
-8.89246e-24
-5.8714e-23
-7.45686e-24
5.35499e-23
-2.37795e-24
2.60254e-23
-8.36094e-24
3.89086e-23
-6.89696e-24
1.04159e-22
-6.31468e-24
8.53997e-23
-1.04818e-23
5.40275e-24
-1.20224e-23
-8.91083e-24
-1.05421e-23
7.36227e-23
-1.2971e-23
1.36508e-24
-1.38427e-23
6.73663e-23
-1.25705e-23
1.08558e-23
-1.34715e-23
6.50794e-23
-9.79453e-24
1.12176e-22
-9.87868e-24
-4.47262e-23
-2.73802e-24
6.35325e-23
2.4975e-24
6.89189e-23
3.70673e-24
9.95464e-23
4.24283e-24
4.49246e-23
2.74247e-24
1.85901e-22
3.72091e-24
1.17009e-23
1.50429e-24
9.96829e-23
3.71144e-25
-4.75019e-23
4.82217e-24
2.33012e-22
5.59362e-24
1.02268e-22
7.64589e-24
-7.79482e-23
4.80829e-24
6.36112e-23
-3.15509e-24
-1.10869e-22
-7.7378e-25
1.04079e-22
-3.79528e-25
1.26092e-22
-3.02051e-24
1.45411e-23
-8.77806e-24
-8.80098e-23
-1.19646e-23
-2.80525e-24
-2.02602e-23
2.04866e-23
3.0342e-23
-1.84363e-23
1.00528e-22
-2.4172e-23
1.53013e-22
-1.73589e-23
1.33469e-22
-1.14061e-23
2.66671e-22
-1.37938e-24
2.18797e-22
-4.74156e-24
9.01461e-23
6.26943e-26
1.06225e-22
6.38314e-24
1.02781e-22
1.27019e-24
-3.11929e-23
-5.77718e-25
2.41858e-22
-2.75886e-24
-5.18916e-23
-3.80134e-24
-1.70457e-23
-1.10456e-23
2.33811e-23
-7.14096e-24
1.02601e-22
-6.80971e-24
1.56595e-22
-8.87255e-24
-6.0662e-23
-6.67157e-24
4.73509e-23
-1.68352e-24
2.37505e-23
-8.08603e-24
5.28556e-23
-6.65993e-24
1.10161e-22
-6.81332e-24
8.84053e-23
-1.02866e-23
2.40757e-23
-1.1608e-23
5.5342e-23
-1.06307e-23
6.85484e-23
-1.28193e-23
-9.44662e-25
-1.38455e-23
6.90836e-23
-1.25583e-23
1.35707e-23
-1.33159e-23
6.64499e-24
-1.03859e-23
7.98554e-23
-9.62059e-24
-3.61379e-23
-2.56914e-24
2.3132e-23
2.27244e-24
5.80731e-23
4.03851e-24
9.94546e-23
4.13278e-24
4.54769e-23
2.30759e-24
1.55608e-22
3.44421e-24
2.03384e-23
1.90082e-24
9.91616e-23
1.39397e-24
3.3083e-23
4.04067e-24
1.56794e-22
5.42731e-24
1.0074e-22
7.66902e-24
-1.09978e-22
4.85029e-24
7.9053e-23
-2.35326e-24
-1.06235e-22
-3.37741e-25
3.88243e-23
-1.24955e-24
1.24233e-22
-3.08486e-24
-2.11534e-24
-9.04831e-24
-6.31833e-23
-1.10698e-23
7.68281e-24
-2.08509e-23
-2.82293e-23
6.62985e-24
-1.81016e-23
2.17356e-23
-2.37084e-23
8.37537e-23
-1.80642e-23
1.26981e-22
-1.07932e-23
2.69764e-22
-2.22531e-24
2.18652e-22
-4.24639e-24
1.02659e-22
-1.08084e-25
1.82711e-22
7.06394e-24
1.67826e-22
1.35856e-24
-2.59513e-23
-1.37408e-24
2.55058e-22
-2.2592e-24
-5.3435e-23
-3.85814e-24
-2.56786e-23
-1.0019e-23
3.03356e-23
-7.31068e-24
3.81363e-23
-7.91455e-24
1.10537e-22
-8.9391e-24
-6.88296e-23
-6.11854e-24
8.91333e-23
-1.16757e-24
-1.92625e-23
-7.63412e-24
6.82636e-23
-6.71702e-24
1.1379e-22
-7.34075e-24
2.68817e-23
-9.62418e-24
2.84396e-23
-1.18253e-23
1.70385e-23
-1.03979e-23
6.68927e-23
-1.27537e-23
-4.09851e-23
-1.38737e-23
7.08309e-23
-1.28287e-23
1.74726e-23
-1.30452e-23
9.45601e-24
-1.04999e-23
2.38883e-23
-9.65336e-24
-2.68281e-23
-2.66486e-24
1.82408e-23
2.86623e-24
8.8447e-23
4.00005e-24
5.46033e-23
4.47471e-24
1.30756e-24
1.8154e-24
1.03757e-22
3.60317e-24
2.14676e-23
2.6631e-24
5.74416e-23
1.52272e-24
5.42105e-23
3.62812e-24
1.24027e-22
5.1831e-24
1.58569e-22
7.99905e-24
-1.00671e-22
5.53414e-24
9.27917e-23
-1.59424e-24
-3.20365e-23
2.63996e-25
3.99534e-23
-2.43203e-24
5.36212e-23
-3.14624e-24
2.5025e-23
-9.10874e-24
-1.19151e-22
-1.06991e-23
1.18571e-23
-2.05841e-23
-4.71008e-23
6.54051e-23
-1.73061e-23
1.85976e-23
1.48889e-23
-2.33538e-23
1.89869e-23
-1.82856e-23
1.06946e-22
-1.03571e-23
3.41001e-22
-3.00687e-24
1.5633e-22
-3.91453e-24
9.09122e-23
-5.16914e-25
1.41311e-22
7.86366e-24
1.96239e-22
2.46083e-24
-3.49094e-23
-2.39967e-24
2.70368e-22
-2.27112e-24
5.50997e-25
-3.4305e-24
-1.12831e-23
-9.29874e-24
3.86425e-23
-6.43434e-24
3.65605e-23
-8.92888e-24
1.16114e-22
-8.08564e-24
-7.5099e-23
-6.28332e-24
4.69797e-23
-2.1484e-25
4.93753e-23
-7.15592e-24
8.29144e-23
-7.10189e-24
1.18408e-22
-7.35518e-24
3.39684e-23
-9.20009e-24
3.49769e-23
-1.18589e-23
2.38623e-23
-1.04966e-23
9.00434e-23
-1.24344e-23
-4.40603e-23
-1.39271e-23
7.33871e-23
-1.30474e-23
1.78294e-23
-1.33524e-23
1.11738e-23
-1.01373e-23
2.59007e-23
-9.97345e-24
-1.52593e-23
-1.99499e-24
1.5402e-23
2.77821e-24
7.62153e-23
3.62464e-24
3.9008e-23
4.56375e-24
7.22103e-23
1.63678e-24
5.02536e-23
2.699e-24
4.08361e-23
3.26331e-24
5.39189e-23
1.75726e-24
6.55339e-23
3.38313e-24
1.26398e-22
5.08893e-24
1.54375e-22
8.1586e-24
-9.15061e-23
5.61835e-24
1.14998e-22
-1.75807e-24
-6.54058e-23
1.0047e-24
7.36541e-23
-2.30861e-24
6.57889e-23
-3.721e-24
6.08233e-23
-8.49977e-24
-1.53545e-22
-1.09793e-23
-1.88951e-23
-2.06734e-23
1.96403e-23
1.47099e-22
-1.7139e-23
1.46712e-24
1.53672e-23
-2.261e-23
2.67989e-23
-1.77953e-23
1.07763e-22
-1.12258e-23
3.41869e-22
-2.58567e-24
1.99184e-22
-3.36645e-24
3.55627e-23
-3.5368e-25
1.40881e-22