/*--------------------------------*- C++ -*----------------------------------*\
  =========                 |
  \\      /  F ield         | OpenFOAM: The Open Source CFD Toolbox
   \\    /   O peration     | Website:  https://openfoam.org
    \\  /    A nd           | Version:  7
     \\/     M anipulation  |
\*---------------------------------------------------------------------------*/
FoamFile
{
    version     2.0;
    format      ascii;
    class       surfaceScalarField;
    location    "28000";
    object      phi;
}
// * * * * * * * * * * * * * * * * * * * * * * * * * * * * * * * * * * * * * //

dimensions      [0 3 -1 0 0 0 0];

internalField   nonuniform List<scalar> 
9444
(
-1.13264e-23
-1.56606e-23
2.06256e-23
1.56155e-23
-1.17363e-23
-9.71679e-24
1.14521e-23
-5.04986e-24
-1.45254e-23
9.00731e-24
-1.97292e-23
-2.06529e-23
4.80216e-24
-1.01631e-23
-1.99063e-23
1.01095e-23
-1.59246e-23
-2.07908e-23
9.4953e-24
-9.16465e-24
-1.48926e-23
1.0406e-23
-7.79581e-24
-1.32658e-23
1.13939e-23
2.34205e-24
-1.41626e-23
1.19197e-23
-6.80053e-24
-1.64173e-23
1.11394e-23
-5.65423e-24
-1.53027e-23
1.82363e-23
-6.14266e-24
-1.47386e-23
1.28297e-23
-7.43072e-24
-1.36802e-23
1.04528e-23
-1.23848e-23
-1.18184e-23
1.28517e-23
-8.14881e-24
-8.14373e-24
1.92134e-23
-1.70359e-24
-7.92342e-24
8.57641e-24
-1.16152e-23
-7.24653e-24
-1.5754e-25
-2.15643e-23
-9.33439e-24
-3.38682e-24
-1.01269e-23
-1.04826e-23
-1.43122e-24
-8.3347e-24
-1.10601e-23
-4.34827e-24
-1.61405e-23
-3.7077e-24
-5.934e-24
2.35845e-24
-2.04672e-24
-9.63422e-24
-2.30623e-23
2.11142e-23
-2.49861e-23
-2.39202e-23
-1.39173e-23
-1.54684e-23
-1.76027e-23
-1.71363e-23
-1.28774e-23
-2.0672e-23
-1.04583e-23
-1.70024e-23
-9.34241e-24
-1.81868e-23
-8.63938e-24
-1.7901e-23
-4.13885e-24
-1.90749e-23
-6.24873e-24
-1.79555e-23
-4.64308e-24
-1.95332e-23
-4.09349e-25
-2.01308e-23
-5.53758e-24
-1.42653e-23
-6.97611e-24
-1.37668e-23
-6.02488e-24
-1.26883e-23
-2.55083e-24
-1.43592e-23
-1.50637e-23
-1.32329e-23
-2.21937e-23
-1.26917e-23
-1.23997e-23
-9.94019e-24
4.84194e-24
4.42639e-24
-7.51098e-24
2.78161e-24
2.06814e-24
-1.33061e-23
-1.96421e-23
2.10637e-23
-1.14965e-23
-1.4201e-23
-1.26258e-23
-1.65517e-23
-1.83374e-23
-1.17556e-23
-9.34984e-24
-8.34632e-24
-7.25671e-24
-2.04226e-23
-1.05045e-23
-1.87911e-23
-1.05034e-23
-2.07165e-23
-6.03882e-24
-2.09882e-23
-1.12496e-23
-2.4059e-23
-8.69115e-24
-1.87531e-23
7.91097e-24
-8.83108e-24
-7.08309e-24
-1.86036e-23
-1.11851e-23
-8.80083e-24
-1.19583e-23
-1.09859e-23
-2.53597e-24
-7.22876e-24
-1.04639e-23
-8.0525e-24
-2.04402e-23
-5.29869e-24
8.4079e-24
-3.3658e-25
8.36933e-25
3.96787e-24
-7.0267e-24
5.05618e-24
5.62438e-24
-1.15971e-23
-2.04336e-23
1.45643e-23
-9.64462e-24
-1.66558e-23
-4.35766e-24
-3.48125e-24
-1.02796e-23
-1.02838e-23
-2.3134e-23
-1.39566e-23
-3.64489e-24
-6.8778e-24
-9.54348e-24
-1.37548e-23
-1.29053e-23
-1.87824e-23
-1.162e-23
-2.65682e-23
-7.6199e-24
-1.75847e-23
5.33336e-24
-1.75078e-23
-1.04406e-23
-2.6518e-23
2.4088e-24
-2.48626e-23
-1.35206e-23
-2.98157e-23
-7.19718e-24
-1.67621e-23
-4.989e-24
-1.23e-23
-7.6604e-24
-9.98035e-24
-1.45025e-23
-2.1833e-24
1.46486e-23
9.47862e-24
2.44305e-24
2.46564e-24
-4.00241e-24
2.48991e-24
1.99385e-24
-9.9877e-24
-1.55528e-23
1.0505e-23
5.78341e-24
-1.34691e-23
-9.16288e-24
-1.95896e-23
-7.28619e-24
-1.42171e-23
-1.35488e-23
-8.93735e-24
-8.5685e-24
-1.04708e-23
-1.08188e-23
-1.21812e-23
-2.17332e-23
-1.18054e-23
5.82176e-25
-7.03064e-24
-5.2663e-24
-1.423e-23
-2.35184e-24
-1.56377e-23
-5.7263e-24
-1.63762e-23
-4.72638e-24
-1.92925e-23
-1.98029e-25
-1.65374e-23
-5.96523e-24
-1.10955e-23
-2.64993e-25
-6.98133e-24
3.575e-24
-6.0972e-24
2.04512e-24
-5.47087e-24
3.27444e-24
2.90721e-25
5.90508e-25
-4.45522e-24
-7.16323e-24
-9.27065e-24
-1.16318e-23
-8.65291e-24
-1.85122e-23
5.47091e-24
-3.84684e-24
-1.60128e-23
-8.3931e-24
-1.43093e-23
-4.69626e-24
-1.82091e-23
-1.46703e-23
-1.68634e-23
-1.2561e-23
-1.20055e-23
-7.89024e-24
-1.96617e-23
-1.13929e-23
-1.4404e-23
-9.81143e-24
-1.08033e-23
-3.04501e-24
-1.07906e-23
-4.42618e-24
-9.77557e-24
-3.74018e-24
-1.41323e-23
-2.12994e-24
-1.54761e-23
1.05836e-23
-1.14421e-23
1.39599e-24
-1.08845e-23
5.13083e-24
-8.09619e-24
4.79404e-24
-9.38725e-24
6.15473e-24
-1.2932e-23
-3.08723e-24
-1.49773e-23
-2.86736e-24
-1.20855e-23
-1.13468e-23
-4.26097e-24
-4.4351e-24
-1.4141e-25
-9.0601e-24
3.27603e-24
-4.04628e-24
-8.92078e-24
-7.47286e-24
-7.82357e-24
-3.19502e-24
-2.74677e-24
-6.85055e-24
-1.21687e-23
-1.90001e-23
-1.8944e-23
-2.21597e-24
-6.33963e-24
-3.39102e-24
-1.53085e-23
-7.00351e-24
-2.50185e-23
-1.58699e-24
-1.77987e-23
-3.95583e-24
-9.02277e-24
-5.32111e-24
-1.01278e-23
3.33088e-24
-3.723e-24
1.06302e-23
-4.74885e-25
6.39139e-24
-2.02788e-24
3.28415e-24
-5.23691e-24
3.80008e-24
-1.26621e-23
1.98869e-24
-1.31468e-23
-1.61539e-24
-1.39543e-23
3.72124e-24
-1.60778e-23
-1.06045e-23
-2.69102e-23
-1.54794e-23
2.38819e-25
-1.01617e-23
-5.25487e-24
-4.61926e-26
-7.20715e-24
-1.73553e-24
-7.56322e-24
-1.23023e-23
-2.14887e-23
-8.69697e-24
-1.36554e-23
-2.5599e-24
3.00236e-24
-9.89915e-24
2.10632e-26
-1.27743e-23
-1.90672e-24
-1.45412e-24
-8.12918e-25
-1.60957e-24
-6.64698e-24
-9.94998e-25
-6.7039e-24
1.63679e-24
-3.3262e-24
2.67238e-24
8.50606e-24
3.05397e-24
2.38772e-24
7.3545e-24
1.23893e-24
-5.21056e-24
-6.28255e-24
4.8003e-24
-3.26409e-24
2.07741e-24
-9.64576e-24
-2.0088e-24
-1.68481e-23
-4.28943e-24
-1.95392e-23
2.27767e-24
-1.67466e-23
-1.51762e-23
2.04746e-24
-1.61821e-23
-1.25033e-23
-1.47228e-24
-1.39886e-23
-1.03712e-23
-2.83017e-23
-9.25041e-24
-1.78322e-23
6.44073e-24
-1.15792e-23
-7.63219e-24
-2.10878e-23
-1.02282e-23
-3.63101e-23
-8.24065e-24
-2.44764e-23
-9.96387e-27
-1.13464e-23
-2.06441e-24
-1.20519e-23
-5.26043e-25
-1.97501e-23
9.77432e-24
-1.21879e-23
-6.8827e-24
-1.43933e-23
3.45359e-24
-4.41687e-24
1.48776e-24
-4.99056e-24
-7.09398e-25
-3.23822e-24
-4.71102e-25
-2.9223e-24
-1.14961e-24
-7.36092e-24
-4.6898e-24
-1.08779e-23
-1.25881e-24
-9.62222e-24
3.46683e-24
-4.2987e-24
-4.6887e-24
3.4249e-24
-2.04171e-23
-3.96697e-26
-1.37532e-23
-2.96925e-23
-7.79313e-24
-2.27016e-23
-5.38228e-24
-1.59905e-23
2.21134e-24
-1.65942e-23
-2.26274e-23
-3.57097e-23
9.90944e-25
-2.08523e-23
2.27824e-24
-1.3135e-23
-2.85458e-25
-1.53653e-23
-8.23488e-24
-8.21295e-24
6.57092e-24
4.70794e-24
1.07593e-23
1.12017e-24
2.35745e-24
-2.41593e-24
3.27847e-24
-3.52159e-24
6.8516e-24
-5.01155e-24
1.7657e-24
3.1326e-24
-3.23494e-24
1.55365e-25
-4.99392e-24
-6.84802e-24
-4.65661e-24
-1.0002e-23
1.85821e-24
-7.14656e-24
4.35528e-24
-4.88467e-24
6.02119e-24
-4.10405e-24
-1.69236e-23
6.79556e-24
-7.15651e-24
-2.4419e-23
-4.74909e-24
-2.08905e-23
2.89354e-25
-1.44203e-23
-7.82873e-24
-7.52579e-24
-7.60167e-24
-2.51704e-24
1.4898e-24
-6.13974e-25
1.50278e-24
-9.20793e-24
2.47523e-24
-1.18612e-23
2.6369e-24
-9.63492e-24
3.66002e-24
-9.11626e-24
9.58868e-24
-3.59614e-24
3.30391e-24
2.14118e-24
2.81014e-25
-4.58758e-25
1.04528e-23
-1.16441e-24
1.54944e-24
-2.96369e-24
-1.05951e-23
-3.58837e-24
-5.81104e-24
-1.27544e-23
-1.5431e-24
-1.00191e-23
1.04976e-24
-2.48645e-24
1.18923e-23
-2.4642e-25
4.51216e-24
-7.53521e-24
-2.27252e-23
-1.69957e-25
-2.73516e-24
-1.22366e-23
-1.82329e-24
-1.9978e-23
3.90848e-24
-2.31106e-23
-7.41648e-24
-2.50771e-23
-5.96614e-24
-1.95981e-23
-1.04108e-24
-1.87835e-23
1.83666e-24
-1.03119e-23
9.75682e-25
-1.26671e-23
5.18553e-24
-1.45553e-23
6.09077e-24
-1.00708e-23
1.1878e-23
-1.1486e-23
1.68537e-25
-5.45363e-24
3.54085e-25
-1.31315e-23
7.14068e-24
-8.59539e-24
3.18189e-24
-1.21176e-23
-1.84273e-23
-1.73591e-23
-4.40906e-24
-2.80901e-24
2.59574e-24
9.46626e-24
4.45913e-24
2.86844e-24
1.43545e-23
7.74121e-24
9.7721e-24
2.29527e-25
-3.55381e-24
1.19073e-23
-4.19469e-24
-1.58377e-23
-6.72776e-24
-1.63895e-23
4.33141e-24
-4.47718e-24
-7.02978e-24
-1.75925e-23
-4.65042e-24
-1.69957e-23
-3.69091e-24
-1.65989e-23
-1.87281e-24
-2.18224e-23
1.33002e-24
-1.87214e-23
1.97465e-24
-1.6625e-23
2.75076e-24
-1.22829e-23
1.43024e-23
-1.3115e-23
-5.73709e-24
-2.33482e-23
3.01578e-24
-1.87352e-23
3.03858e-24
-1.03074e-23
1.37469e-24
-1.41162e-23
-7.68529e-24
-9.75644e-24
4.23607e-24
-3.30135e-24
-4.74705e-25
1.40832e-24
9.34133e-24
6.67385e-24
1.33509e-23
8.64988e-24
6.95752e-24
-6.58522e-24
-1.78445e-25
5.03933e-24
-7.99511e-24
-1.02291e-23
-1.06009e-24
-1.17336e-23
-3.2902e-24
-1.72745e-23
-2.03561e-24
-2.07298e-23
-4.21953e-24
-2.87993e-23
-4.31775e-24
-1.61105e-23
9.0177e-25
-1.01639e-23
3.78466e-25
-3.81898e-24
3.56967e-24
-3.35843e-24
3.02278e-24
-1.41463e-23
8.11902e-24
-1.8835e-23
-4.02401e-24
-5.02196e-23
8.8418e-24
-3.0912e-23
2.48621e-24
-1.55509e-23
1.43485e-24
-1.29528e-23
5.05792e-25
-1.88803e-23
6.50551e-24
-6.93841e-24
3.66638e-24
3.58146e-24
7.92705e-24
5.63514e-24
1.20016e-23
-1.17572e-23
-2.25449e-23
5.31709e-25
-3.69112e-24
-1.09284e-23
-3.41613e-24
1.58084e-24
-6.9144e-24
-1.09795e-23
-4.62376e-24
-1.96862e-23
7.94358e-25
-3.66069e-23
-2.03498e-24
-2.56658e-23
4.46251e-24
-1.6298e-23
3.73108e-24
-1.68569e-23
-2.22997e-25
-9.40267e-27
-1.03142e-24
1.4682e-23
-8.43614e-24
-9.54761e-24
4.80437e-24
-2.47767e-23
1.80449e-23
-7.44272e-24
6.6365e-24
-6.30228e-24
1.5823e-24
-5.20669e-24
6.61961e-24
-4.71573e-24
1.09695e-23
2.32258e-24
5.9603e-24
4.88171e-24
-6.71826e-24
-1.67673e-23
4.52259e-24
-9.36498e-25
-1.48956e-23
-8.25068e-24
-2.50705e-23
-9.34429e-24
-1.01853e-23
-1.09545e-23
-6.68299e-24
7.96542e-24
4.5103e-24
2.34579e-24
-6.21823e-24
2.81257e-25
-9.40182e-24
8.03733e-24
-7.00095e-24
7.51402e-24
-1.72326e-24
-9.98289e-24
-6.20619e-24
-1.55583e-23
-2.57874e-24
1.44189e-23
9.70091e-24
1.7893e-23
3.40174e-24
7.81274e-24
4.10205e-24
1.46074e-24
-6.89403e-24
9.34449e-24
-1.19026e-24
1.29629e-23
-6.77781e-24
-1.69206e-23
7.39082e-24
-3.75377e-24
-1.4243e-23
2.7067e-24
-1.42091e-23
-9.93997e-24
-1.54163e-23
-8.76976e-25
-9.06386e-24
4.51873e-24
-2.49254e-24
2.74443e-24
5.72514e-25
2.35635e-24
-1.07289e-23
1.44008e-23
2.29669e-25
1.05142e-23
1.87856e-24
-4.29033e-24
-7.45112e-25
-1.12135e-23
1.99124e-23
9.39703e-24
9.96982e-24
1.80113e-23
1.25964e-24
5.15321e-24
4.65443e-24
-3.30261e-24
-1.74092e-23
5.57535e-24
-5.81412e-24
-8.79093e-24
1.14803e-24
-1.00931e-23
-5.53908e-24
-2.68174e-23
-2.91966e-24
-1.0984e-23
5.35482e-24
-8.54206e-24
-7.29552e-24
-1.64555e-23
8.62547e-24
-4.60065e-24
1.42141e-23
5.9079e-24
9.42762e-24
5.25052e-24
6.34728e-24
1.15257e-23
-1.40412e-23
9.66237e-25
8.77884e-24
1.22369e-26
-4.97451e-24
6.506e-24
8.39211e-25
-1.22172e-23
-7.83003e-24
-4.29566e-24
4.62498e-24
2.62677e-24
5.44251e-25
-4.48369e-24
3.58825e-25
-3.47926e-24
2.61761e-24
-1.28131e-23
7.24416e-24
-5.92679e-24
1.58553e-23
-1.2151e-23
1.27141e-23
4.63178e-24
1.10559e-24
-2.11651e-24
-8.21648e-24
5.81916e-24
2.06076e-24
-6.96843e-24
-4.08099e-24
2.42665e-24
4.17263e-24
-2.95659e-24
-1.98122e-25
-3.58989e-25
-4.23394e-24
9.16851e-25
4.72685e-24
-2.55028e-24
3.96052e-24
-4.18447e-24
2.42367e-23
5.08601e-24
-2.16873e-24
-1.50188e-23
4.47253e-24
6.68868e-24
-6.87953e-24
-6.73112e-24
-2.07632e-23
2.95686e-24
-1.21829e-23
2.19597e-24
-8.90223e-25
-4.95919e-24
9.78305e-24
7.21577e-24
2.27787e-23
7.8543e-24
2.938e-23
-7.6122e-25
-9.49213e-24
2.04625e-24
1.02463e-24
-8.13737e-24
-5.51896e-24
-1.39569e-23
1.0217e-23
9.42894e-24
4.66387e-24
2.74539e-24
7.96162e-25
2.49272e-25
7.27326e-24
1.76127e-23
-3.1061e-25
-1.27042e-23
3.28666e-24
1.50195e-25
-5.59412e-24
1.29216e-24
-1.41932e-23
5.4061e-24
1.63287e-24
5.48287e-24
1.1566e-23
3.59679e-24
2.98159e-24
1.0538e-24
-1.10721e-23
4.33931e-24
-1.4368e-24
4.62007e-25
5.9146e-24
-7.64726e-24
6.59976e-24
-1.23578e-25
6.69526e-24
-1.27389e-24
1.02021e-23
1.92896e-24
-5.59076e-24
3.51329e-24
-2.00025e-24
3.16125e-24
3.94202e-24
2.07601e-24
9.45177e-24
-1.29338e-23
8.04576e-24
6.10365e-24
1.66365e-24
-2.1756e-25
9.06633e-24
-1.0305e-24
3.50743e-24
-1.06133e-24
4.54948e-24
1.40118e-23
1.14979e-23
7.09312e-24
1.48467e-23
1.3353e-23
-3.7042e-24
4.95879e-24
1.98483e-24
6.06585e-24
3.59508e-24
3.94078e-24
9.88752e-24
1.28714e-23
-3.17659e-24
-1.271e-25
2.1354e-24
7.18251e-25
2.16873e-24
4.16226e-24
5.30404e-24
-7.75908e-25
3.94984e-24
-4.42884e-24
-2.00195e-25
2.76318e-24
2.03784e-24
8.4982e-26
5.7451e-24
-9.71333e-24
-1.11283e-24
3.79843e-24
1.17917e-24
-1.83111e-24
6.63028e-24
-1.34052e-23
4.28635e-25
5.20707e-25
3.0347e-24
-3.61923e-24
8.46967e-24
1.7959e-23
1.32312e-24
1.02339e-23
5.31612e-24
-6.19638e-25
-8.66358e-24
1.05714e-23
-7.59717e-25
1.1602e-23
-1.05066e-24
4.76012e-25
2.5656e-24
5.48285e-24
6.21468e-25
1.47833e-23
-5.17512e-24
4.80713e-25
-6.21338e-24
-4.97925e-26
-1.66894e-24
2.4633e-23
-6.21404e-24
-1.66564e-24
-6.4244e-24
-1.13199e-23
-2.33751e-24
-3.1077e-24
-8.57394e-24
-3.20412e-24
-7.94326e-24
1.66933e-23
-2.65987e-24
-5.21858e-24
-1.18328e-23
-1.97219e-25
5.25699e-24
1.07668e-23
-3.35348e-25
-1.33777e-23
-1.06573e-23
-1.35973e-24
8.02046e-24
6.06713e-24
1.41213e-24
-1.00011e-23
-6.77908e-24
-5.90598e-25
9.20181e-24
2.12377e-23
5.29902e-25
-5.1997e-24
-6.87324e-24
3.69636e-26
-9.04108e-24
-1.30358e-23
-4.27974e-25
-9.49391e-24
1.80085e-25
4.20986e-24
1.28087e-23
-5.14563e-24
8.56599e-24
1.55831e-23
1.86222e-24
1.96373e-23
2.05287e-24
1.59156e-23
7.10183e-25
1.00189e-23
-1.77848e-24
5.83113e-24
-6.01849e-24
5.67839e-25
-1.10565e-23
-1.53516e-24
1.05293e-24
9.11742e-25
2.50742e-25
-2.6531e-24
-4.97674e-24
7.30414e-24
3.94663e-24
1.47034e-23
-3.53492e-24
2.06699e-24
9.93689e-24
5.44807e-24
-1.36076e-24
3.18569e-24
-3.38677e-24
6.02291e-24
-4.69416e-24
8.95592e-24
-9.09419e-24
9.49718e-24
-6.37594e-25
1.31344e-23
-8.58731e-24
1.48802e-23
-1.33568e-23
1.28415e-23
-2.11929e-24
1.23381e-23
-4.27527e-24
8.95875e-24
-3.5046e-24
9.54187e-24
2.52817e-23
1.2658e-23
7.14331e-24
6.46934e-24
7.2199e-24
4.88814e-25
-1.15822e-23
-4.34116e-24
-2.77397e-24
-3.39065e-24
1.78243e-24
-2.15309e-24
5.62496e-24
-2.95892e-24
1.57638e-23
-7.56029e-24
-2.94128e-23
-1.26823e-23
-2.75348e-23
-5.94462e-24
-1.44656e-23
-5.41832e-24
-1.64253e-23
-3.74793e-24
-2.90648e-23
-5.80402e-24
-2.30878e-23
-1.81597e-24
-1.47049e-23
-2.97925e-24
-1.56632e-23
-3.55476e-24
-2.16729e-23
-1.68928e-24
1.76515e-25
2.85834e-24
1.10999e-23
-4.419e-24
9.45838e-24
2.162e-23
-4.68573e-24
9.63329e-24
-3.17132e-24
1.1904e-23
-6.24192e-24
-1.87362e-24
-2.15685e-24
6.14089e-24
-9.91406e-24
4.78054e-24
-1.07986e-23
1.64461e-24
-3.59494e-24
6.64692e-24
1.3646e-23
2.02292e-23
1.03073e-23
1.11045e-23
-1.26279e-23
4.56084e-24
1.39419e-24
7.5757e-24
3.95726e-24
6.36876e-24
3.92241e-24
5.65867e-24
5.16426e-24
3.95995e-24
2.84264e-24
1.14485e-23
8.40745e-25
1.28431e-23
8.97275e-24
4.10134e-24
-1.52198e-23
9.2838e-25
-1.63574e-23
3.26299e-24
-7.95929e-24
7.17182e-24
-5.45855e-24
1.02474e-23
-5.3593e-24
1.384e-23
-4.27363e-24
9.16809e-24
3.09336e-25
3.4422e-24
-1.28865e-23
1.13637e-25
-1.74703e-24
2.0794e-24
-6.35812e-24
5.16494e-25
-8.45908e-24
-6.56761e-26
-1.16184e-23
1.09269e-24
-1.77204e-23
2.18406e-24
1.2733e-23
3.96051e-25
-6.98732e-24
-4.27551e-24
-2.71719e-24
-5.61876e-24
-9.71105e-24
-5.24145e-24
-1.0475e-23
-4.16118e-24
-2.08872e-23
-5.58836e-24
-1.94045e-23
-2.45822e-24
-2.15296e-23
3.23179e-25
-7.88674e-24
2.15988e-24
3.99905e-24
5.86922e-24
2.2103e-24
-3.3048e-24
8.56009e-25
4.60325e-24
5.74653e-25
8.15889e-24
-1.61116e-23
1.60387e-24
-2.79493e-24
6.9708e-24
-6.45999e-24
5.47532e-24
-1.05361e-23
1.013e-23
-7.85388e-24
5.55048e-24
1.17027e-23
9.49139e-24
3.07181e-24
6.1708e-24
5.44797e-24
4.95851e-24
-9.63232e-25
8.89351e-24
-4.43094e-24
1.31235e-23
1.21165e-23
4.33425e-24
-7.6724e-24
6.50514e-24
2.19869e-23
1.02827e-23
-2.12382e-24
-2.21243e-24
-3.08215e-24
4.61354e-25
-5.31211e-24
9.31042e-24
-5.54805e-24
5.29195e-24
-4.45509e-24
5.14569e-24
-1.30022e-24
8.9491e-24
8.00539e-24
5.22667e-24
-1.40965e-23
-6.14981e-25
-2.16871e-23
1.6811e-24
-2.22095e-23
4.94385e-24
-8.07363e-24
1.99556e-24
-3.64221e-24
-2.08909e-24
3.31809e-25
-1.56503e-24
1.24324e-24
-2.79968e-24
3.93221e-24
-3.67645e-24
-2.46127e-23
-6.9425e-24
-1.72437e-23
-4.97511e-24
-1.41866e-23
-6.87685e-24
-1.04362e-23
-8.0171e-24
-4.24545e-24
-9.84735e-24
-1.33922e-23
-9.61623e-24
-9.59465e-24
-9.6696e-24
-4.81692e-24
-4.74809e-24
-1.39819e-23
-3.83318e-24
1.09041e-23
-4.86611e-24
-3.44921e-24
5.7644e-24
5.52754e-24
-4.83858e-24
1.55423e-24
6.11508e-24
-4.5359e-24
8.14491e-24
-1.22623e-23
-1.75481e-24
-6.58291e-24
-5.86136e-25
-1.80775e-24
1.47025e-24
-1.62805e-23
-2.0002e-24
-6.622e-25
2.84893e-24
-1.28839e-24
7.47971e-24
-1.37334e-24
1.84839e-24
4.60209e-24
-4.17911e-24
1.02765e-23
-3.23324e-24
-2.43266e-23
1.238e-24
9.11677e-24
1.04819e-23
1.90798e-24
1.23217e-23
1.78466e-24
1.8511e-23
1.3018e-24
1.98985e-23
1.24949e-23
1.02875e-23
-1.27265e-23
-3.85791e-25
-6.41693e-24
-5.38949e-26
1.26183e-24
1.11712e-24
-1.98069e-23
-4.47296e-24
-1.47811e-23
2.70263e-24
-2.00498e-23
2.27417e-24
-1.68703e-23
-2.70646e-24
-2.81643e-23
-2.29833e-24
-2.27038e-23
-1.87399e-24
-6.93414e-24
-1.67248e-24
-1.5429e-23
-6.36242e-24
-1.23861e-23
-7.64703e-24
-9.01208e-24
-7.8502e-24
-2.07838e-23
-6.355e-24
-3.2296e-23
-9.46027e-24
-3.213e-23
-9.98712e-24
-2.53525e-23
-6.27766e-24
-1.92568e-23
-3.83923e-24
-1.32235e-23
-2.3409e-24
1.45873e-23
2.8773e-24
9.1623e-24
3.35448e-24
8.2951e-25
4.65438e-24
-5.61677e-26
6.03077e-24
5.47882e-24
4.81981e-24
-3.27815e-24
1.10386e-24
3.40571e-24
-2.45799e-24
-1.00056e-23
6.62832e-27
-6.14841e-24
1.26468e-23
-8.74201e-24
4.61735e-24
-5.48314e-24
5.75627e-24
-1.03689e-23
3.29952e-24
-4.20203e-24
3.2356e-24
-1.19861e-23
-8.68187e-24
-5.48396e-24
-7.66597e-24
1.74675e-24
-3.54929e-24
1.49161e-23
-4.0856e-24
-1.61617e-23
-5.84645e-24
8.63531e-24
3.15284e-24
1.9768e-23
4.93315e-24
-1.68384e-24
4.28417e-24
-1.35387e-23
-3.25062e-24
-5.555e-24
3.08388e-24
-6.1011e-24
1.51132e-24
-8.38463e-24
2.50534e-24
-4.40789e-24
-2.26151e-25
-6.84436e-24
1.59587e-25
-1.84154e-23
-4.6041e-24
-2.69998e-23
-8.80688e-24
-2.48585e-23
-3.6107e-24
-3.26265e-23
-3.92683e-24
-3.81226e-23
-7.37225e-24
-2.53815e-23
-7.48216e-24
-2.54451e-23
-6.37258e-24
-1.61675e-23
-6.63539e-24
-1.54975e-23
-7.0025e-24
-2.96858e-23
-7.0517e-24
-3.43565e-23
-5.19243e-24
-6.13748e-24
-1.10664e-24
-1.43588e-23
4.99085e-25
1.49875e-23
3.29883e-24
6.037e-24
8.8279e-25
1.57602e-23
-1.77928e-24
1.72156e-23
-2.71413e-24
1.81322e-23
1.45943e-24
-1.48957e-23
8.69473e-25
1.4065e-24
5.75702e-24
1.43419e-23
7.63269e-24
3.072e-24
7.49516e-24
3.75892e-24
1.2744e-24
-1.05018e-23
-3.14357e-24
-7.54152e-24
3.65809e-25
-6.90656e-24
3.12317e-24
-9.87706e-24
1.84114e-25
-2.13326e-23
-7.13915e-24
-1.1216e-23
-7.07911e-24
2.48815e-24
1.14425e-23
-4.49697e-24
5.66308e-24
5.5796e-24
7.01096e-25
3.97924e-24
1.68544e-24
1.31583e-23
1.81078e-24
1.89522e-23
2.78619e-26
-1.01432e-23
-8.50248e-25
-1.08995e-23
-2.73713e-24
-6.91138e-24
-6.5028e-25
-8.1277e-24
1.88568e-25
-1.13272e-23
2.62305e-24
-1.47104e-23
3.25606e-24
-1.8349e-23
-6.11129e-24
-1.66409e-23
-1.09711e-23
-1.81858e-23
-1.10366e-23
-2.2856e-23
-1.39564e-23
-4.63828e-23
-1.79424e-23
-3.74307e-23
-1.22864e-23
-3.33342e-23
-9.72764e-24
-2.83592e-23
-9.26408e-24
-1.37725e-23
-3.51802e-24
-2.92724e-23
-5.94373e-24
-2.7231e-23
-5.379e-24
-1.39544e-23
-3.08796e-24
1.82098e-24
-1.41795e-24
-4.8593e-24
2.89839e-24
-9.72294e-24
2.59419e-24
-1.71804e-23
3.98419e-24
1.23432e-23
7.361e-24
3.98012e-23
6.19562e-24
2.89464e-23
2.17031e-24
1.1045e-23
9.35576e-25
1.8703e-24
-9.12268e-25
1.22006e-23
2.77303e-24
2.85909e-24
6.31875e-24
2.18027e-24
-1.21317e-25
-5.51321e-24
3.27048e-25
-1.00898e-23
9.95711e-25
-1.14072e-23
6.58231e-25
-1.6775e-23
-3.16469e-24
-2.53496e-23
2.17601e-24
4.43626e-24
-1.47658e-24
-2.25012e-24
-6.02864e-24
-1.17671e-23
-2.69559e-24
8.07134e-24
9.01229e-25
2.8687e-24
5.11331e-24
3.15221e-24
-1.19657e-24
1.79195e-23
-4.1769e-24
-1.14133e-23
-1.25213e-23
-7.96126e-24
-1.0444e-23
-1.10802e-23
-6.60164e-24
-6.62802e-24
-1.07618e-23
-1.01845e-23
-9.77867e-24
-3.80714e-23
-8.13429e-24
-3.67401e-23
-1.10187e-23
-2.27886e-23
-1.76263e-23
-3.52816e-23
-1.5021e-23
-4.19655e-23
-1.4319e-23
-2.8221e-23
-1.21303e-23
-3.42295e-23
-7.60931e-24
-3.81303e-23
-2.52545e-24
-9.65058e-24
1.13058e-24
-2.09957e-23
1.20936e-24
-2.15927e-23
1.37768e-24
-1.95873e-23
5.68352e-24
6.7927e-24
6.50126e-24
7.48377e-24
5.74278e-24
8.64617e-25
4.99156e-24
1.36194e-24
3.28502e-24
1.12511e-24
2.80395e-24
5.2153e-24
3.94307e-24
1.64962e-23
3.98609e-24
1.55486e-23
-1.73875e-25
1.07544e-23
-2.67284e-24
-5.90077e-24
-7.51173e-24
3.91077e-25
-2.90239e-24
-3.31312e-24
1.28357e-25
3.60751e-24
-4.78877e-24
-2.96801e-24
2.00937e-24
-1.29278e-23
7.98333e-24
-1.52997e-23
-3.7374e-25
-1.39335e-23
-3.89326e-24
-3.07058e-23
1.68226e-24
-8.96967e-25
5.33926e-24
-4.46375e-24
-2.24216e-24
-3.29406e-24
-1.82448e-24
-5.50372e-25
-4.29959e-24
-4.56501e-24
-8.97474e-24
-6.18121e-24
-1.09454e-23
2.73971e-25
-1.59983e-23
-4.2822e-24
-1.59691e-23
-1.27407e-23
-2.44013e-23
-1.00012e-23
-2.73881e-23
-5.01044e-24
-1.85022e-23
-1.05245e-24
-1.34702e-23
-5.43288e-23
-1.97385e-23
-5.50568e-23
-1.51267e-23
-2.60716e-23
-7.39526e-24
-3.39e-23
-8.65492e-24
-3.79566e-23
-9.97146e-24
-2.06927e-23
-5.12012e-24
-2.22489e-23
-4.44932e-24
-2.00057e-23
-3.00667e-24
-1.30005e-23
-2.4298e-24
-2.10569e-23
-1.55487e-24
-1.49485e-23
-6.29184e-25
-6.44668e-24
8.20861e-25
2.28771e-24
-2.89325e-25
-3.06391e-24
1.11787e-25
1.67268e-24
1.95953e-24
3.01409e-24
2.89603e-24
4.0016e-24
1.98893e-24
8.03416e-25
3.40383e-24
-1.84638e-23
3.67977e-24
-8.99379e-24
2.49993e-24
-1.86068e-23
2.23173e-24
3.05711e-24
-8.68971e-24
-1.96659e-23
-4.29566e-24
-7.8207e-24
-6.80473e-24
6.07408e-24
-2.87793e-24
1.46889e-24
5.1684e-24
-1.79231e-23
-1.02057e-23
-2.11763e-23
4.82322e-24
-1.03294e-23
3.29827e-24
-2.57268e-23
-5.87444e-24
-1.2754e-23
-1.16718e-23
-9.50727e-24
-7.13008e-24
-6.40814e-24
-6.61523e-24
-1.13204e-23
-9.70259e-24
-7.697e-24
-1.40777e-23
-2.34337e-23
-1.48105e-23
-6.95757e-24
-2.25937e-23
-2.239e-23
-1.94049e-23
-2.20776e-23
-1.60422e-23
-4.74717e-24
-1.01458e-23
1.96253e-25
-1.18139e-23
-2.36356e-23
-2.38266e-23
-3.44955e-23
-2.25291e-23
-3.31484e-23
-1.9889e-23
-3.93787e-23
-1.92399e-23
-4.23124e-23
-1.52395e-23
-2.67676e-23
-8.88834e-24
-2.15241e-23
-3.77979e-24
-1.97859e-23
-3.51828e-24
-8.79142e-24
1.6232e-25
-1.10051e-23
-3.97713e-26
-1.18443e-23
6.86693e-25
-1.66863e-23
3.85972e-24
-4.10427e-24
4.62305e-24
1.58967e-24
6.26865e-24
-2.03343e-25
5.00414e-24
1.64747e-23
4.89439e-24
3.79269e-24
2.84461e-24
-5.55257e-26
4.93056e-24
-2.15006e-24
3.57386e-24
-9.87777e-24
2.04399e-24
-1.30838e-23
2.6248e-24
-1.46029e-24
2.92037e-24
3.19041e-24
-1.90092e-24
-4.84032e-24
2.99912e-25
-5.96474e-24
-6.06398e-24
1.06082e-23
-1.6851e-24
-9.50544e-24
-5.98883e-24
-8.57092e-24
-9.02304e-24
-2.46033e-23
-1.05182e-23
-2.24944e-23
-1.61063e-24
-2.66837e-23
1.30204e-25
-6.56707e-24
7.27894e-24
-1.11378e-23
7.13081e-24
-1.74252e-23
-2.63526e-24
-1.85056e-23
-1.1845e-23
-1.7421e-23
-1.48854e-23
-3.28836e-23
-1.67594e-23
-8.78011e-24
-1.11819e-23
-1.37731e-23
-1.81707e-23
-1.39374e-23
-2.06887e-23
-5.64161e-24
-2.34147e-23
-2.76339e-23
-2.72461e-23
-2.03749e-23
-1.8043e-23
-2.74117e-23
-2.00129e-23
-2.77624e-23
-2.40271e-23
-3.10615e-23
-1.73573e-23
-1.81633e-23
-8.75881e-24
-1.64424e-23
-4.77607e-24
-1.55265e-23
-3.75879e-24
-1.11043e-23
-7.04168e-24
-6.81499e-24
-3.74444e-24
-5.97925e-24
7.59214e-26
-2.32263e-24
1.03092e-24
-3.39532e-24
3.73471e-24
-5.62442e-24
7.65048e-24
-1.51087e-24
6.23153e-24
-3.73613e-24
6.81366e-24
8.3249e-25
4.28603e-24
3.32056e-24
1.74224e-24
4.23405e-24
4.25864e-24
-8.61349e-24
2.3697e-24
-3.42172e-24
4.85896e-24
-1.42093e-23
8.22121e-25
-1.7975e-23
4.87481e-24
6.45065e-24
-2.03294e-24
-4.92446e-25
-6.21101e-24
-4.23681e-24
-6.34436e-24
5.12641e-24
-8.75241e-24
-1.02588e-23
-1.77369e-23
-8.22633e-24
-1.00074e-23
-1.70638e-23
-2.66624e-24
-2.41359e-23
-1.23161e-24
-2.06796e-23
-5.45138e-24
-9.99342e-24
-2.96848e-24
-2.43777e-23
-1.40956e-23
-2.92265e-23
-1.45812e-23
-2.87164e-23
-1.49266e-23
-2.41451e-23
-1.7721e-23
-2.04124e-23
-7.14955e-24
-2.42353e-23
3.79557e-25
-9.1527e-24
1.70984e-24
-1.90548e-23
-4.04255e-24
-1.61462e-23
-1.47263e-23
-1.55294e-23
-1.10015e-23
-2.31126e-23
-1.10666e-23
-3.25698e-23
-1.16408e-23
-1.06722e-23
-6.32699e-24
-1.15475e-23
-6.89856e-24
-7.56254e-24
-9.03882e-24
-2.12242e-23
-9.71373e-24
-3.1355e-23
-6.77071e-24
-6.45758e-25
7.38466e-25
-1.07202e-24
-2.04988e-24
1.71719e-24
-1.45066e-24
9.42413e-24
-1.12891e-24
4.16297e-24
2.44999e-24
-4.5992e-24
2.49094e-26
1.15934e-24
-3.06008e-25
-2.46498e-23
-6.13945e-25
-1.40537e-23
-1.1863e-24
8.5304e-24
8.26134e-25
-1.53957e-23
-1.89375e-24
-2.83089e-24
2.08281e-24
-4.21419e-24
9.26436e-24
2.64594e-24
1.16808e-23
1.2974e-23
1.07264e-23
7.6005e-24
-4.50256e-24
2.49721e-24
-8.46112e-25
-6.97244e-24
-4.75057e-24
7.55159e-25
-1.21629e-23
-1.4003e-24
-1.7215e-24
-4.82302e-24
4.03127e-24
-1.28651e-23
2.30019e-24
-2.64888e-23
1.06893e-23
-2.25564e-23
1.14714e-23
-2.09171e-23
-5.19672e-24
-2.30295e-23
-3.96016e-24
-3.16266e-23
-8.2935e-24
-3.77867e-23
-1.04408e-23
-1.0044e-23
-6.28071e-24
-1.09514e-23
-8.22473e-24
-1.47218e-23
1.42952e-25
-1.88366e-23
2.57035e-24
-3.9483e-23
-2.73721e-24
-1.23874e-23
-3.82241e-24
-1.25297e-23
-9.59382e-24
-2.13444e-23
-1.29762e-23
-2.02184e-23
-1.16906e-23
-1.6349e-23
-8.89389e-24
-1.35494e-23
-1.03443e-23
-1.44511e-23
-8.57855e-24
-1.44076e-23
-8.81724e-24
-9.99547e-24
-7.38747e-24
-5.0859e-25
-7.44419e-24
-3.0012e-24
-8.98857e-24
3.79593e-24
-6.87462e-24
1.73873e-23
-1.15259e-23
-8.08584e-24
-1.04108e-23
-1.37267e-24
-5.35823e-24
4.05104e-25
-3.11927e-24
-2.20934e-23
-2.68783e-24
-4.47657e-24
2.42379e-25
-7.90359e-25
-7.47917e-25
3.3592e-23
2.81464e-24
5.08167e-23
3.6282e-24
2.33248e-23
4.32957e-25
6.29426e-24
-6.92601e-25
-1.94541e-23
1.7455e-24
-2.33808e-23
1.02197e-27
-2.05122e-24
-5.95063e-24
5.08585e-24
1.87851e-24
-1.13043e-23
1.40754e-24
5.81706e-24
1.01927e-23
4.57563e-24
-6.71279e-24
-1.95709e-24
8.452e-24
-5.12327e-24
6.05677e-24
-2.38495e-23
-9.80275e-24
-4.21811e-23
-7.9705e-24
-1.69702e-23
8.21241e-24
-2.67695e-23
-2.0857e-25
-3.60624e-23
-1.72351e-24
-3.48553e-23
2.04354e-24
-1.24113e-23
1.0534e-23
6.6465e-24
8.19819e-24
-8.65623e-24
-3.38045e-24
-3.32704e-23
-1.15465e-23
-3.98677e-23
-9.58524e-24
-2.39638e-23
-7.69736e-24
-2.71866e-23
-1.33458e-23
-2.27247e-23
-1.77434e-23
-1.55185e-23
-1.54444e-23
-1.82911e-23
-1.98959e-23
-1.58462e-23
-1.24168e-23
-1.67926e-23
-1.00295e-23
-1.03111e-23
-1.23126e-23
-1.67099e-23
-1.10697e-23
-1.1839e-23
-7.04814e-24
-4.95506e-24
-4.24578e-24
-6.13366e-24
-5.4679e-24
1.78591e-23
2.40728e-24
5.79288e-24
1.23592e-24
1.15234e-23
4.27956e-24
3.40983e-24
4.83143e-24
-2.46816e-24
3.41616e-24
-7.2417e-24
5.70248e-24
2.10338e-23
7.29481e-24
2.05287e-23
5.68995e-24
2.14902e-23
3.77414e-24
2.11029e-23
2.08931e-24
8.86806e-24
4.28388e-25
-2.676e-23
-1.07206e-24
-2.62794e-23
9.35806e-25
-1.33214e-23
2.30634e-24
3.50005e-24
-7.00959e-24
7.86019e-24
1.38348e-24
-7.7323e-24
6.6105e-25
-7.77131e-24
4.00078e-24
1.51328e-23
8.77994e-24
-3.9173e-24
-9.59737e-24
-1.80812e-23
-1.63835e-23
-2.62657e-23
-1.48631e-23
-2.91851e-23
-8.73111e-24
-2.6809e-23
-6.42103e-24
-2.64887e-23
-2.52406e-24
-3.21485e-23
1.24454e-24
-2.22856e-23
7.92492e-25
-1.8554e-23
1.13817e-24
-1.68056e-23
2.93469e-24
-2.33996e-23
-1.08889e-23
-3.08e-23
-1.32606e-23
-2.98708e-23
-1.02408e-23
-4.18471e-23
-1.41267e-23
-4.00613e-23
-1.19551e-23
-1.56403e-23
-2.20662e-24
-3.05474e-23
1.32218e-24
2.63998e-24
3.79004e-24
-7.21559e-24
-3.34248e-24
-2.8232e-23
-5.91818e-24
2.45961e-25
-1.1674e-24
-3.95021e-24
1.66437e-25
5.62067e-24
-2.5456e-25
-8.66897e-24
-2.44279e-24
2.83861e-23
-4.16453e-24
9.36696e-24
-1.39687e-23
1.70418e-23
-9.64543e-24
1.95286e-23
-1.19665e-23
-1.54924e-24
-1.12809e-23
4.03045e-24
-4.73386e-24
7.06077e-24
-7.23318e-25
8.41784e-24
2.60331e-25
5.92482e-24
2.4268e-24
7.94375e-24
4.4321e-24
8.46673e-24
2.46767e-24
3.41008e-24
1.67286e-24
-1.17908e-23
3.18357e-24
-1.8836e-23
5.74304e-24
-8.64373e-24
5.33402e-24
2.50235e-24
-1.19344e-23
-1.46956e-24
-3.72711e-25
-8.75532e-24
-3.88928e-24
-5.02713e-24
-2.29083e-24
3.92157e-25
1.09724e-24
-7.99228e-24
-9.03579e-25
-1.79176e-23
-7.38825e-24
-2.63527e-23
-1.09443e-23
-2.78738e-23
-1.60383e-23
-2.16868e-23
-3.29573e-24
-2.31167e-23
-5.06767e-24
-3.17512e-23
-7.57717e-24
-2.37301e-23
-1.01101e-23
-1.59865e-23
-9.07775e-24
-3.59996e-23
-1.62619e-23
-2.83178e-23
-1.53516e-23
-2.52994e-23
-1.5014e-23
-3.62062e-23
-1.11087e-23
-3.49559e-23
-3.94781e-24
-1.07615e-23
2.75989e-24
-1.33747e-23
1.2322e-24
-1.48694e-23
2.39689e-24
-1.52877e-23
2.70593e-24
-1.8579e-23
1.49832e-24
-1.37671e-23
5.26386e-24
-2.5029e-24
2.63244e-24
-4.82976e-24
4.5367e-24
-1.10037e-23
4.99347e-24
-1.99048e-23
5.64118e-24
-2.03978e-23
6.15129e-24
1.78845e-23
7.91948e-24
1.4716e-24
4.19195e-24
2.52474e-23
4.36187e-24
2.79245e-23
2.00344e-25
2.70883e-23
-3.24034e-24
3.0784e-23
-5.26183e-24
3.17465e-23
-4.75635e-24
3.04094e-23
-4.09027e-24
-1.17691e-24
-6.13246e-24
1.30292e-25
-4.78896e-24
4.0133e-24
-6.05499e-24
7.49481e-25
-8.72598e-24
-2.2176e-23
-9.70716e-24
-4.3541e-23
-1.0504e-23
-6.4278e-23
-8.88818e-24
-5.08666e-24
-1.30842e-23
-1.46712e-23
3.87505e-24
-9.47801e-24
-8.04623e-24
-3.96367e-24
2.72776e-24
-4.24148e-24
-1.19634e-24
-1.32716e-23
-8.95177e-24
-1.74423e-23
-6.57791e-24
-2.76525e-23
-2.07452e-24
-1.37531e-23
1.03001e-23
-1.96296e-23
-1.71704e-24
-3.09497e-23
-1.00434e-23
-3.79369e-23
-1.29231e-23
-2.56564e-23
-1.12054e-23
-2.51562e-23
-8.12595e-24
-3.22881e-23
-1.0531e-23
-3.27188e-23
-1.20449e-23
-1.69742e-23
-1.11818e-23
-2.01236e-23
-7.9793e-24
-1.89509e-23
-7.74733e-24
-1.41888e-23
-3.91343e-24
-1.68586e-23
-1.22354e-25
-1.44666e-23
-6.60937e-25
-2.37453e-23
-1.36608e-24
-1.22628e-23
2.16743e-24
-1.29284e-23
8.44714e-24
-3.65839e-24
1.1014e-23
-1.33254e-24
5.70891e-24
-3.61983e-24
7.3773e-24
-4.6435e-24
7.38038e-24
-3.03774e-24
6.66387e-24
2.85854e-24
4.44987e-24
5.07636e-24
1.29469e-24
-8.16544e-24
2.76989e-24
1.3668e-24
3.77903e-24
-6.37602e-24
2.76367e-24
2.06348e-23
3.74177e-24
1.52689e-23
8.2112e-25
1.56254e-23
-1.25396e-24
3.57006e-24
1.5473e-25
-6.36575e-24
-5.48427e-25
-6.32781e-24
-3.77507e-24
4.83226e-24
-6.65981e-24
-3.2341e-23