/*--------------------------------*- C++ -*----------------------------------*\
  =========                 |
  \\      /  F ield         | OpenFOAM: The Open Source CFD Toolbox
   \\    /   O peration     | Website:  https://openfoam.org
    \\  /    A nd           | Version:  7
     \\/     M anipulation  |
\*---------------------------------------------------------------------------*/
FoamFile
{
    version     2.0;
    format      ascii;
    class       volScalarField;
    location    "252000";
    object      nut;
}
// * * * * * * * * * * * * * * * * * * * * * * * * * * * * * * * * * * * * * //

dimensions      [0 2 -1 0 0 0 0];

internalField   nonuniform List<scalar> 
4814
(
4.67727e-06
4.69996e-06
4.72055e-06
4.73898e-06
4.01644e-06
4.06112e-06
4.1039e-06
4.1455e-06
4.18587e-06
4.22496e-06
4.26269e-06
4.29899e-06
4.33378e-06
4.36698e-06
4.39851e-06
4.4283e-06
4.45628e-06
4.48238e-06
4.50654e-06
4.5287e-06
4.5488e-06
4.5668e-06
4.58265e-06
4.59631e-06
4.60774e-06
4.61692e-06
4.62382e-06
4.62843e-06
4.63074e-06
4.63074e-06
4.62843e-06
4.62382e-06
4.61692e-06
4.60774e-06
4.59631e-06
4.58265e-06
4.5668e-06
4.5488e-06
3.85973e-06
3.90322e-06
3.94489e-06
3.98541e-06
4.02474e-06
4.06283e-06
4.09961e-06
4.135e-06
4.16892e-06
4.20129e-06
4.23204e-06
4.26109e-06
4.28838e-06
4.31385e-06
4.33742e-06
4.35904e-06
4.37866e-06
4.39622e-06
4.41169e-06
4.42502e-06
4.43618e-06
4.44514e-06
4.45188e-06
4.45638e-06
4.45863e-06
4.45863e-06
4.45638e-06
4.45188e-06
4.44514e-06
4.43618e-06
4.42502e-06
4.41169e-06
4.39622e-06
4.37866e-06
4.35904e-06
4.33742e-06
4.31385e-06
4.28838e-06
4.26109e-06
4.23204e-06
4.20129e-06
3.7048e-06
3.74709e-06
3.78764e-06
3.82707e-06
3.86536e-06
3.90244e-06
3.93826e-06
3.97273e-06
4.00577e-06
4.03731e-06
4.06727e-06
4.09558e-06
4.12218e-06
4.147e-06
4.16997e-06
4.19105e-06
4.21018e-06
4.22731e-06
4.24239e-06
4.25539e-06
4.26627e-06
4.27501e-06
4.28158e-06
4.28597e-06
4.28816e-06
4.28816e-06
4.28597e-06
4.28158e-06
4.27501e-06
4.26627e-06
4.25539e-06
4.24239e-06
4.22731e-06
4.21018e-06
4.19105e-06
4.16997e-06
4.147e-06
4.12218e-06
4.09558e-06
4.06727e-06
4.03731e-06
4.00577e-06
3.97273e-06
3.93826e-06
3.55171e-06
3.59278e-06
3.6322e-06
3.67054e-06
3.70778e-06
3.74385e-06
3.7787e-06
3.81224e-06
3.8444e-06
3.87509e-06
3.90426e-06
3.93182e-06
3.95772e-06
3.98189e-06
4.00426e-06
4.02479e-06
4.04343e-06
4.06011e-06
4.0748e-06
4.08746e-06
4.09807e-06
4.10658e-06
4.11298e-06
4.11726e-06
4.1194e-06
4.1194e-06
4.11726e-06
4.11298e-06
4.10658e-06
4.09807e-06
4.08746e-06
4.0748e-06
4.06011e-06
4.04342e-06
4.02479e-06
4.00426e-06
3.98189e-06
3.95772e-06
3.93182e-06
3.90426e-06
3.87509e-06
3.8444e-06
3.81224e-06
3.7787e-06
3.40051e-06
3.44038e-06
3.47866e-06
3.5159e-06
3.55207e-06
3.58712e-06
3.62099e-06
3.6536e-06
3.68486e-06
3.71471e-06
3.74307e-06
3.76988e-06
3.79507e-06
3.81858e-06
3.84035e-06
3.86033e-06
3.87846e-06
3.89469e-06
3.90899e-06
3.92132e-06
3.93164e-06
3.93992e-06
3.94615e-06
3.95032e-06
3.9524e-06
3.9524e-06
3.95032e-06
3.94615e-06
3.93992e-06
3.93164e-06
3.92132e-06
3.90899e-06
3.89469e-06
3.87846e-06
3.86033e-06
3.84035e-06
3.81858e-06
3.79507e-06
3.76988e-06
3.74307e-06
3.71471e-06
3.68486e-06
3.6536e-06
3.62099e-06
3.25129e-06
3.28993e-06
3.32706e-06
3.36319e-06
3.39829e-06
3.43232e-06
3.46521e-06
3.49687e-06
3.52723e-06
3.55622e-06
3.58377e-06
3.60982e-06
3.6343e-06
3.65714e-06
3.67831e-06
3.69772e-06
3.71535e-06
3.73113e-06
3.74503e-06
3.75702e-06
3.76705e-06
3.77511e-06
3.78117e-06
3.78521e-06
3.78724e-06
3.78724e-06
3.78521e-06
3.78117e-06
3.77511e-06
3.76705e-06
3.75702e-06
3.74503e-06
3.73113e-06
3.71535e-06
3.69772e-06
3.67831e-06
3.65714e-06
3.6343e-06
3.60982e-06
3.58377e-06
3.55622e-06
3.52723e-06
3.49687e-06
3.46521e-06
3.1041e-06
3.14151e-06
3.17749e-06
3.2125e-06
3.24653e-06
3.27952e-06
3.31141e-06
3.34212e-06
3.37158e-06
3.39971e-06
3.42644e-06
3.45172e-06
3.47547e-06
3.49765e-06
3.5182e-06
3.53705e-06
3.55416e-06
3.56949e-06
3.58299e-06
3.59463e-06
3.60438e-06
3.6122e-06
3.61809e-06
3.62202e-06
3.62398e-06
3.62398e-06
3.62202e-06
3.61808e-06
3.6122e-06
3.60438e-06
3.59463e-06
3.58299e-06
3.56949e-06
3.55416e-06
3.53705e-06
3.5182e-06
3.49765e-06
3.47547e-06
3.45171e-06
3.42644e-06
3.3997e-06
3.37158e-06
3.34212e-06
3.31141e-06
3.27952e-06
2.95901e-06
2.99519e-06
3.03001e-06
3.06389e-06
3.09684e-06
3.12879e-06
3.15968e-06
3.18943e-06
3.21797e-06
3.24523e-06
3.27114e-06
3.29564e-06
3.31867e-06
3.34018e-06
3.3601e-06
3.37838e-06
3.39498e-06
3.40985e-06
3.42294e-06
3.43423e-06
3.44369e-06
3.45128e-06
3.45699e-06
3.4608e-06
3.46271e-06
3.46271e-06
3.4608e-06
3.45699e-06
3.45128e-06
3.44369e-06
3.43423e-06
3.42294e-06
3.40985e-06
3.39498e-06
3.37838e-06
3.3601e-06
3.34018e-06
3.31867e-06
3.29564e-06
3.27114e-06
3.24523e-06
3.21797e-06
3.18943e-06
3.15968e-06
3.12879e-06
2.81611e-06
2.85105e-06
2.8847e-06
2.91745e-06
2.9493e-06
2.98021e-06
3.01009e-06
3.03888e-06
3.0665e-06
3.09288e-06
3.11796e-06
3.14168e-06
3.16398e-06
3.1848e-06
3.20409e-06
3.2218e-06
3.23788e-06
3.25228e-06
3.26497e-06
3.27591e-06
3.28507e-06
3.29242e-06
3.29796e-06
3.30165e-06
3.3035e-06
3.3035e-06
3.30165e-06
3.29795e-06
3.29242e-06
3.28507e-06
3.27591e-06
3.26497e-06
3.25228e-06
3.23788e-06
3.2218e-06
3.20409e-06
3.1848e-06
3.16398e-06
3.14167e-06
3.11796e-06
3.09288e-06
3.0665e-06
3.03888e-06
3.01009e-06
2.98021e-06
2.67547e-06
2.70917e-06
2.74163e-06
2.77325e-06
2.80401e-06
2.83386e-06
2.86273e-06
2.89054e-06
2.91723e-06
2.94273e-06
2.96697e-06
2.9899e-06
3.01146e-06
3.0316e-06
3.05026e-06
3.06739e-06
3.08294e-06
3.09688e-06
3.10915e-06
3.11974e-06
3.1286e-06
3.13572e-06
3.14107e-06
3.14464e-06
3.14643e-06
3.14643e-06
3.14464e-06
3.14107e-06
3.13572e-06
3.1286e-06
3.11974e-06
3.10915e-06
3.09688e-06
3.08294e-06
3.06739e-06
3.05026e-06
3.0316e-06
3.01146e-06
2.9899e-06
2.96697e-06
2.94273e-06
2.91723e-06
2.89054e-06
2.86273e-06
2.83386e-06
2.53718e-06
2.56963e-06
2.60091e-06
2.63138e-06
2.66103e-06
2.68982e-06
2.71767e-06
2.74451e-06
2.77026e-06
2.79487e-06
2.81826e-06
2.8404e-06
2.86122e-06
2.88067e-06
2.89869e-06
2.91523e-06
2.93026e-06
2.94372e-06
2.95558e-06
2.96581e-06
2.97437e-06
2.98125e-06
2.98642e-06
2.98987e-06
2.9916e-06
2.9916e-06
2.98987e-06
2.98642e-06
2.98125e-06
2.97437e-06
2.96581e-06
2.95558e-06
2.94372e-06
2.93026e-06
2.91523e-06
2.89869e-06
2.88067e-06
2.86122e-06
2.8404e-06
2.81826e-06
2.79487e-06
2.77026e-06
2.74451e-06
2.71767e-06
2.40131e-06
2.43251e-06
2.4626e-06
2.49193e-06
2.52047e-06
2.54819e-06
2.57501e-06
2.60087e-06
2.62568e-06
2.64939e-06
2.67194e-06
2.69327e-06
2.71335e-06
2.7321e-06
2.74947e-06
2.76543e-06
2.77992e-06
2.7929e-06
2.80434e-06
2.81421e-06
2.82247e-06
2.82911e-06
2.8341e-06
2.83743e-06
2.8391e-06
2.8391e-06
2.83743e-06
2.8341e-06
2.82911e-06
2.82247e-06
2.81421e-06
2.80434e-06
2.7929e-06
2.77992e-06
2.76543e-06
2.74947e-06
2.7321e-06
2.71335e-06
2.69327e-06
2.67194e-06
2.64939e-06
2.62568e-06
2.60087e-06
2.57501e-06
2.26797e-06
2.29791e-06
2.32681e-06
2.35498e-06
2.38241e-06
2.40906e-06
2.43485e-06
2.45971e-06
2.48358e-06
2.50638e-06
2.52808e-06
2.54861e-06
2.56793e-06
2.58598e-06
2.60271e-06
2.61807e-06
2.63202e-06
2.64453e-06
2.65555e-06
2.66505e-06
2.67301e-06
2.6794e-06
2.6842e-06
2.68741e-06
2.68902e-06
2.68902e-06
2.68741e-06
2.6842e-06
2.6794e-06
2.67301e-06
2.66505e-06
2.65555e-06
2.64453e-06
2.63202e-06
2.61807e-06
2.60271e-06
2.58598e-06
2.56793e-06
2.54861e-06
2.52808e-06
2.50638e-06
2.48358e-06
2.45971e-06
2.43485e-06
2.13725e-06
2.16593e-06
2.19363e-06
2.22065e-06
2.24696e-06
2.27253e-06
2.29728e-06
2.32115e-06
2.34406e-06
2.36596e-06
2.38679e-06
2.40652e-06
2.42508e-06
2.44242e-06
2.4585e-06
2.47326e-06
2.48667e-06
2.49869e-06
2.50929e-06
2.51842e-06
2.52607e-06
2.53222e-06
2.53684e-06
2.53993e-06
2.54147e-06
2.54147e-06
2.53993e-06
2.53684e-06
2.53222e-06
2.52607e-06
2.51842e-06
2.50929e-06
2.49869e-06
2.48667e-06
2.47326e-06
2.4585e-06
2.44242e-06
2.42508e-06
2.40652e-06
2.38679e-06
2.36596e-06
2.34406e-06
2.32115e-06
2.29728e-06
2.00925e-06
2.03667e-06
2.06317e-06
2.08902e-06
2.11421e-06
2.1387e-06
2.16241e-06
2.18528e-06
2.20723e-06
2.22822e-06
2.24819e-06
2.2671e-06
2.2849e-06
2.30153e-06
2.31695e-06
2.33111e-06
2.34398e-06
2.35551e-06
2.36568e-06
2.37444e-06
2.38179e-06
2.38769e-06
2.39212e-06
2.39508e-06
2.39656e-06
2.39656e-06
2.39508e-06
2.39212e-06
2.38768e-06
2.38179e-06
2.37444e-06
2.36568e-06
2.35551e-06
2.34398e-06
2.33111e-06
2.31695e-06
2.30153e-06
2.2849e-06
2.2671e-06
2.24819e-06
2.22822e-06
2.20723e-06
2.18528e-06
2.16241e-06
1.88407e-06
1.91023e-06
1.93553e-06
1.96021e-06
1.98428e-06
2.00768e-06
2.03035e-06
2.05221e-06
2.0732e-06
2.09327e-06
2.11238e-06
2.13047e-06
2.1475e-06
2.16341e-06
2.17817e-06
2.19173e-06
2.20405e-06
2.2151e-06
2.22483e-06
2.23323e-06
2.24026e-06
2.24591e-06
2.25016e-06
2.25299e-06
2.25441e-06
2.25441e-06
2.25299e-06
2.25016e-06
2.24591e-06
2.24026e-06
2.23323e-06
2.22483e-06
2.2151e-06
2.20405e-06
2.19173e-06
2.17817e-06
2.16341e-06
2.1475e-06
2.13047e-06
2.11238e-06
2.09327e-06
2.0732e-06
2.05221e-06
2.03035e-06
1.76183e-06
1.78672e-06
1.81081e-06
1.83433e-06
1.85727e-06
1.87958e-06
1.9012e-06
1.92206e-06
1.94208e-06
1.96124e-06
1.97947e-06
1.99674e-06
2.013e-06
2.0282e-06
2.0423e-06
2.05525e-06
2.06702e-06
2.07757e-06
2.08687e-06
2.09489e-06
2.10162e-06
2.10701e-06
2.11107e-06
2.11378e-06
2.11514e-06
2.11514e-06
2.11378e-06
2.11107e-06
2.10701e-06
2.10162e-06
2.09489e-06
2.08687e-06
2.07757e-06
2.06702e-06
2.05525e-06
2.0423e-06
2.0282e-06
2.013e-06
1.99674e-06
1.97947e-06
1.96124e-06
1.94208e-06
1.92206e-06
1.9012e-06
1.64262e-06
1.66626e-06
1.68915e-06
1.7115e-06
1.73331e-06
1.75453e-06
1.7751e-06
1.79494e-06
1.81401e-06
1.83224e-06
1.8496e-06
1.86604e-06
1.88153e-06
1.89601e-06
1.90944e-06
1.92178e-06
1.933e-06
1.94306e-06
1.95192e-06
1.95957e-06
1.96598e-06
1.97113e-06
1.975e-06
1.97758e-06
1.97887e-06
1.97887e-06
1.97758e-06
1.975e-06
1.97113e-06
1.96598e-06
1.95957e-06
1.95192e-06
1.94306e-06
1.933e-06
1.92178e-06
1.90944e-06
1.89601e-06
1.88153e-06
1.86604e-06
1.8496e-06
1.83224e-06
1.814e-06
1.79494e-06
1.7751e-06
1.52659e-06
1.54896e-06
1.57065e-06
1.59184e-06
1.61252e-06
1.63265e-06
1.65216e-06
1.671e-06
1.68909e-06
1.7064e-06
1.72288e-06
1.73851e-06
1.75322e-06
1.76698e-06
1.77974e-06
1.79147e-06
1.80213e-06
1.81169e-06
1.82012e-06
1.8274e-06
1.83349e-06
1.83839e-06
1.84207e-06
1.84452e-06
1.84575e-06
1.84575e-06
1.84452e-06
1.84206e-06
1.83838e-06
1.83349e-06
1.8274e-06
1.82012e-06
1.81169e-06
1.80213e-06
1.79147e-06
1.77974e-06
1.76698e-06
1.75322e-06
1.73851e-06
1.72288e-06
1.7064e-06
1.68909e-06
1.671e-06
1.65216e-06
1.41383e-06
1.43496e-06
1.45544e-06
1.47547e-06
1.49502e-06
1.51406e-06
1.53253e-06
1.55035e-06
1.56747e-06
1.58386e-06
1.59947e-06
1.61426e-06
1.6282e-06
1.64124e-06
1.65333e-06
1.66445e-06
1.67455e-06
1.68362e-06
1.69161e-06
1.69851e-06
1.70429e-06
1.70893e-06
1.71242e-06
1.71475e-06
1.71591e-06
1.71591e-06
1.71475e-06
1.71242e-06
1.70893e-06
1.70429e-06
1.69851e-06
1.69161e-06
1.68362e-06
1.67455e-06
1.66445e-06
1.65333e-06
1.64124e-06
1.6282e-06
1.61426e-06
1.59947e-06
1.58386e-06
1.56747e-06
1.55035e-06
1.53253e-06
1.30448e-06
1.32436e-06
1.34365e-06
1.36252e-06
1.38095e-06
1.3989e-06
1.41632e-06
1.43313e-06
1.44929e-06
1.46475e-06
1.47949e-06
1.49346e-06
1.50662e-06
1.51893e-06
1.53036e-06
1.54086e-06
1.55041e-06
1.55898e-06
1.56653e-06
1.57305e-06
1.57852e-06
1.5829e-06
1.5862e-06
1.5884e-06
1.58951e-06
1.58951e-06
1.5884e-06
1.5862e-06
1.5829e-06
1.57852e-06
1.57305e-06
1.56653e-06
1.55898e-06
1.55041e-06
1.54086e-06
1.53036e-06
1.51893e-06
1.50662e-06
1.49346e-06
1.47949e-06
1.46475e-06
1.44929e-06
1.43313e-06
1.41632e-06
1.39891e-06
1.19867e-06
1.21732e-06
1.23542e-06
1.25314e-06
1.27045e-06
1.28731e-06
1.30368e-06
1.31949e-06
1.33468e-06
1.34922e-06
1.36309e-06
1.37623e-06
1.38862e-06
1.40021e-06
1.41097e-06
1.42086e-06
1.42986e-06
1.43793e-06
1.44504e-06
1.45118e-06
1.45633e-06
1.46047e-06
1.46358e-06
1.46565e-06
1.46669e-06
1.46669e-06
1.46565e-06
1.46358e-06
1.46047e-06
1.45633e-06
1.45118e-06
1.44504e-06
1.43793e-06
1.42986e-06
1.42086e-06
1.41097e-06
1.40021e-06
1.38862e-06
1.37623e-06
1.36309e-06
1.34922e-06
1.33468e-06
1.31949e-06
1.30368e-06
1.28731e-06
1.09653e-06
1.11395e-06
1.13087e-06
1.14744e-06
1.16364e-06
1.17943e-06
1.19476e-06
1.20957e-06
1.2238e-06
1.23743e-06
1.25042e-06
1.26274e-06
1.27436e-06
1.28523e-06
1.29532e-06
1.3046e-06
1.31304e-06
1.32062e-06
1.3273e-06
1.33306e-06
1.3379e-06
1.34178e-06
1.3447e-06
1.34665e-06
1.34762e-06
1.34762e-06
1.34665e-06
1.3447e-06
1.34178e-06
1.3379e-06
1.33306e-06
1.3273e-06
1.32062e-06
1.31304e-06
1.3046e-06
1.29532e-06
1.28523e-06
1.27436e-06
1.26274e-06
1.25042e-06
1.23742e-06
1.2238e-06
1.20957e-06
1.19476e-06
1.17943e-06
9.98175e-07
1.01438e-06
1.03014e-06
1.04558e-06
1.06068e-06
1.0754e-06
1.08969e-06
1.10351e-06
1.11679e-06
1.1295e-06
1.14163e-06
1.15314e-06
1.16399e-06
1.17414e-06
1.18357e-06
1.19225e-06
1.20014e-06
1.20722e-06
1.21346e-06
1.21885e-06
1.22337e-06
1.227e-06
1.22973e-06
1.23155e-06
1.23247e-06
1.23247e-06
1.23155e-06
1.22973e-06
1.227e-06
1.22337e-06
1.21885e-06
1.21346e-06
1.20722e-06
1.20014e-06
1.19225e-06
1.18357e-06
1.17414e-06
1.16399e-06
1.15314e-06
1.14163e-06
1.1295e-06
1.11679e-06
1.10351e-06
1.08969e-06
1.0754e-06
9.03703e-07
9.18718e-07
9.33331e-07
9.47654e-07
9.61668e-07
9.75338e-07
9.88619e-07
1.00145e-06
1.01379e-06
1.0256e-06
1.03688e-06
1.04758e-06
1.05766e-06
1.06711e-06
1.07588e-06
1.08396e-06
1.0913e-06
1.09789e-06
1.1037e-06
1.10872e-06
1.11293e-06
1.11631e-06
1.11885e-06
1.12055e-06
1.1214e-06
1.1214e-06
1.12055e-06
1.11885e-06
1.11631e-06
1.11293e-06
1.10872e-06
1.1037e-06
1.09789e-06
1.0913e-06
1.08396e-06
1.07588e-06
1.06711e-06
1.05766e-06
1.04758e-06
1.03688e-06
1.0256e-06
1.01379e-06
1.00145e-06
9.88619e-07
8.13079e-07
8.26944e-07
8.40452e-07
8.53699e-07
8.66669e-07
8.79325e-07
8.91627e-07
9.03517e-07
9.14923e-07
9.25852e-07
9.36282e-07
9.46184e-07
9.55523e-07
9.64271e-07
9.72397e-07
9.79874e-07
9.86677e-07
9.92784e-07
9.98173e-07
1.00283e-06
1.00673e-06
1.00986e-06
1.01222e-06
1.01379e-06
1.01457e-06
1.01457e-06
1.01379e-06
1.01222e-06
1.00986e-06
1.00673e-06
1.00283e-06
9.98173e-07
9.92784e-07
9.86677e-07
9.79874e-07
9.72397e-07
9.64271e-07
9.55523e-07
9.46183e-07
9.36282e-07
9.25852e-07
9.14922e-07
9.03517e-07
8.91627e-07
7.25651e-07
7.38498e-07
7.51032e-07
7.63336e-07
7.75389e-07
7.8716e-07
7.98607e-07
8.09663e-07
8.2017e-07
8.30242e-07
8.39858e-07
8.4899e-07
8.57606e-07
8.65679e-07
8.7318e-07
8.80084e-07
8.86367e-07
8.92008e-07
8.96987e-07
9.01286e-07
9.04892e-07
9.07789e-07
9.09964e-07
9.11412e-07
9.12137e-07
9.12137e-07
9.11412e-07
9.09964e-07
9.07789e-07
9.04892e-07
9.01286e-07
8.96987e-07
8.92008e-07
8.86367e-07
8.80084e-07
8.7318e-07
8.65679e-07
8.57606e-07
8.4899e-07
8.39858e-07
8.30242e-07
8.2017e-07
8.09663e-07
7.98607e-07
6.35521e-07
6.48292e-07
6.60793e-07
6.73066e-07
6.8509e-07
6.96831e-07
7.08249e-07
7.19183e-07
7.28892e-07
7.38206e-07
7.47102e-07
7.55554e-07
7.63533e-07
7.71011e-07
7.77962e-07
7.84362e-07
7.90188e-07
7.9542e-07
8.00039e-07
8.04029e-07
8.07375e-07
8.10064e-07
8.12072e-07
8.13402e-07
8.14067e-07
8.14067e-07
8.13402e-07
8.12072e-07
8.10064e-07
8.07375e-07
8.04028e-07
8.00039e-07
7.9542e-07
7.90188e-07
7.84362e-07
7.77962e-07
7.71011e-07
7.63533e-07
7.55554e-07
7.47102e-07
7.38205e-07
7.28892e-07
7.19183e-07
7.08249e-07
5.49219e-07
5.60821e-07
5.72191e-07
5.83364e-07
5.94321e-07
6.05027e-07
6.15447e-07
6.2553e-07
6.35185e-07
6.4445e-07
6.533e-07
6.61707e-07
6.69642e-07
6.77079e-07
6.8399e-07
6.90353e-07
6.96144e-07
7.01345e-07
7.05935e-07
7.099e-07
7.13225e-07
7.15898e-07
7.17821e-07
7.19045e-07
7.19657e-07
7.19657e-07
7.19045e-07
7.17821e-07
7.15898e-07
7.13225e-07
7.099e-07
7.05935e-07
7.01344e-07
6.96144e-07
6.90353e-07
6.8399e-07
6.77079e-07
6.69642e-07
6.61707e-07
6.533e-07
6.44449e-07
6.35185e-07
6.2553e-07
6.15447e-07
4.67901e-07
4.78314e-07
4.88532e-07
4.98586e-07
5.08453e-07
5.18104e-07
5.27504e-07
5.3661e-07
5.4534e-07
5.53724e-07
5.61738e-07
5.69356e-07
5.7655e-07
5.83295e-07
5.89568e-07
5.95344e-07
6.00604e-07
6.05329e-07
6.09501e-07
6.13106e-07
6.16129e-07
6.1856e-07
6.20382e-07
6.21594e-07
6.22201e-07
6.22201e-07
6.21594e-07
6.20382e-07
6.1856e-07
6.16129e-07
6.13105e-07
6.09501e-07
6.05329e-07
6.00604e-07
5.95344e-07
5.89568e-07
5.83295e-07
5.7655e-07
5.69356e-07
5.61738e-07
5.53724e-07
5.4534e-07
5.36609e-07
5.27504e-07
3.92118e-07
4.01327e-07
4.10378e-07
4.19294e-07
4.28055e-07
4.36634e-07
4.44998e-07
4.53108e-07
4.60896e-07
4.68382e-07
4.75543e-07
4.82354e-07
4.88792e-07
4.94832e-07
5.00451e-07
5.05629e-07
5.10346e-07
5.14585e-07
5.18329e-07
5.21565e-07
5.2428e-07
5.26463e-07
5.28101e-07
5.29191e-07
5.29736e-07
5.29736e-07
5.29191e-07
5.28101e-07
5.26463e-07
5.2428e-07
5.21565e-07
5.18329e-07
5.14585e-07
5.10346e-07
5.05629e-07
5.00451e-07
4.94832e-07
4.88792e-07
4.82354e-07
4.75543e-07
4.68382e-07
4.60896e-07
4.53108e-07
4.44998e-07
3.22436e-07
3.30438e-07
3.38316e-07
3.46088e-07
3.53734e-07
3.61231e-07
3.6855e-07
3.75654e-07
3.82487e-07
3.89062e-07
3.95357e-07
4.01351e-07
4.0702e-07
4.12342e-07
4.17298e-07
4.21867e-07
4.26032e-07
4.29776e-07
4.33085e-07
4.35946e-07
4.38347e-07
4.40279e-07
4.41728e-07
4.42693e-07
4.43176e-07
4.43176e-07
4.42693e-07
4.41728e-07
4.40279e-07
4.38347e-07
4.35946e-07
4.33085e-07
4.29776e-07
4.26032e-07
4.21867e-07
4.17298e-07
4.12342e-07
4.0702e-07
4.01351e-07
3.95357e-07
3.89062e-07
3.82487e-07
3.75654e-07
3.6855e-07
2.59408e-07
2.66215e-07
2.72929e-07
2.79563e-07
2.861e-07
2.92518e-07
2.98792e-07
3.04892e-07
3.10768e-07
3.16428e-07
3.21855e-07
3.27026e-07
3.31922e-07
3.36522e-07
3.40809e-07
3.44765e-07
3.48372e-07
3.51618e-07
3.54488e-07
3.5697e-07
3.59054e-07
3.60731e-07
3.61991e-07
3.62829e-07
3.63249e-07
3.63249e-07
3.62829e-07
3.6199e-07
3.60731e-07
3.59054e-07
3.5697e-07
3.54488e-07
3.51618e-07
3.48372e-07
3.44765e-07
3.40809e-07
3.36522e-07
3.31922e-07
3.27026e-07
3.21855e-07
3.16428e-07
3.10768e-07
3.04892e-07
2.98792e-07
2.92518e-07
2.03526e-07
2.09171e-07
2.14749e-07
2.20271e-07
2.25721e-07
2.31082e-07
2.3633e-07
2.4144e-07
2.46371e-07
2.51128e-07
2.55694e-07
2.60051e-07
2.6418e-07
2.68064e-07
2.71686e-07
2.75031e-07
2.78085e-07
2.80834e-07
2.83266e-07
2.85371e-07
2.87139e-07
2.88562e-07
2.89632e-07
2.90344e-07
2.90701e-07
2.90701e-07
2.90344e-07
2.89631e-07
2.88562e-07
2.87139e-07
2.85371e-07
2.83266e-07
2.80834e-07
2.78085e-07
2.75031e-07
2.71686e-07
2.68064e-07
2.6418e-07
2.60051e-07
2.55694e-07
2.51128e-07
2.46371e-07
2.4144e-07
2.3633e-07
2.31082e-07
1.55157e-07
1.59698e-07
1.64194e-07
1.68654e-07
1.73065e-07
1.7741e-07
1.81672e-07
1.85829e-07
1.89848e-07
1.93731e-07
1.97463e-07
2.01028e-07
2.04412e-07
2.07598e-07
2.10573e-07
2.13323e-07
2.15835e-07
2.18099e-07
2.20103e-07
2.21838e-07
2.23297e-07
2.24471e-07
2.25354e-07
2.25943e-07
2.26238e-07
2.26238e-07
2.25943e-07
2.25354e-07
2.24471e-07
2.23297e-07
2.21838e-07
2.20103e-07
2.18099e-07
2.15835e-07
2.13323e-07
2.10573e-07
2.07598e-07
2.04412e-07
2.01028e-07
1.97463e-07
1.93731e-07
1.89848e-07
1.85829e-07
1.81672e-07
1.7741e-07
1.14471e-07
1.17995e-07
1.21493e-07
1.24969e-07
1.28414e-07
1.31814e-07
1.35156e-07
1.3842e-07
1.41583e-07
1.44643e-07
1.47589e-07
1.50407e-07
1.53086e-07
1.55611e-07
1.57971e-07
1.60156e-07
1.62153e-07
1.63955e-07
1.65551e-07
1.66933e-07
1.68096e-07
1.69033e-07
1.69738e-07
1.70208e-07
1.70444e-07
1.70444e-07
1.70208e-07
1.69738e-07
1.69033e-07
1.68096e-07
1.66933e-07
1.6555e-07
1.63955e-07
1.62153e-07
1.60156e-07
1.57971e-07
1.55611e-07
1.53086e-07
1.50407e-07
1.47589e-07
1.44643e-07
1.41583e-07
1.3842e-07
1.35156e-07
1.31814e-07
1.28414e-07
8.13733e-08
8.39976e-08
8.66078e-08
8.92073e-08
9.17885e-08
9.43411e-08
9.68543e-08
9.93143e-08
1.01702e-07
1.04016e-07
1.06248e-07
1.08386e-07
1.1042e-07
1.12341e-07
1.14139e-07
1.15805e-07
1.17329e-07
1.18705e-07
1.19925e-07
1.20983e-07
1.21874e-07
1.22592e-07
1.23132e-07
1.23492e-07
1.23673e-07
1.23673e-07
1.23492e-07
1.23132e-07
1.22591e-07
1.21874e-07
1.20983e-07
1.19925e-07
1.18705e-07
1.17329e-07
1.15805e-07
1.14139e-07
1.12341e-07
1.1042e-07
1.08386e-07
1.06248e-07
1.04016e-07
1.01702e-07
9.93143e-08
9.68543e-08
9.43412e-08
9.17884e-08
5.54669e-08
5.73301e-08
5.9187e-08
6.10402e-08
6.28837e-08
6.47104e-08
6.65121e-08
6.8279e-08
6.9997e-08
7.16651e-08
7.32759e-08
7.48217e-08
7.62946e-08
7.76872e-08
7.8992e-08
8.02021e-08
8.13111e-08
8.23128e-08
8.32019e-08
8.39734e-08
8.4623e-08
8.51469e-08
8.55413e-08
8.58047e-08
8.59366e-08
8.59366e-08
8.58047e-08
8.55413e-08
8.51469e-08
8.4623e-08
8.39734e-08
8.32019e-08
8.23128e-08
8.13111e-08
8.02021e-08
7.89919e-08
7.76872e-08
7.62946e-08
7.48217e-08
7.32759e-08
7.16651e-08
6.9997e-08
6.82789e-08
6.65121e-08
6.47104e-08
6.28837e-08
6.10401e-08
3.60563e-08
3.73095e-08
3.85608e-08
3.98117e-08
4.10584e-08
4.22959e-08
4.35186e-08
4.47196e-08
4.58894e-08
4.70269e-08
4.81271e-08
4.91842e-08
5.01929e-08
5.11477e-08
5.20434e-08
5.2875e-08
5.36378e-08
5.43275e-08
5.49401e-08
5.54721e-08
5.59202e-08
5.62818e-08
5.65542e-08
5.67361e-08
5.68273e-08
5.68273e-08
5.67361e-08
5.65542e-08
5.62818e-08
5.59202e-08
5.54721e-08
5.49401e-08
5.43275e-08
5.36378e-08
5.2875e-08
5.20434e-08
5.11477e-08
5.01929e-08
4.91842e-08
4.8127e-08
4.70269e-08
4.58894e-08
4.47195e-08
4.35186e-08
4.2296e-08
4.10584e-08
3.98117e-08
2.22091e-08
2.30021e-08
2.3795e-08
2.45889e-08
2.53813e-08
2.61691e-08
2.69485e-08
2.77153e-08
2.84633e-08
2.91916e-08
2.98969e-08
3.05754e-08
3.12236e-08
3.18379e-08
3.24147e-08
3.29507e-08
3.34429e-08
3.38882e-08
3.4284e-08
3.46279e-08
3.49178e-08
3.51519e-08
3.53282e-08
3.5446e-08
3.5505e-08
3.5505e-08
3.5446e-08
3.53282e-08
3.51518e-08
3.49178e-08
3.46279e-08
3.4284e-08
3.38882e-08
3.34429e-08
3.29507e-08
3.24147e-08
3.18379e-08
3.12236e-08
3.05754e-08
2.98968e-08
2.91916e-08
2.84633e-08
2.77153e-08
2.69485e-08
2.61691e-08
2.53813e-08
2.45889e-08
1.28589e-08
1.3327e-08
1.37955e-08
1.42652e-08
1.47346e-08
1.52018e-08
1.56646e-08
1.61204e-08
1.65656e-08
1.69995e-08
1.74202e-08
1.78253e-08
1.82127e-08
1.85801e-08
1.89254e-08
1.92466e-08
1.95417e-08
1.98088e-08
2.00465e-08
2.0253e-08
2.04272e-08
2.05679e-08
2.06739e-08
2.07448e-08
2.07803e-08
2.07803e-08
2.07448e-08
2.06739e-08
2.05679e-08
2.04272e-08
2.0253e-08
2.00464e-08
1.98088e-08
1.95417e-08
1.92466e-08
1.89254e-08
1.85801e-08
1.82127e-08
1.78253e-08
1.74202e-08
1.69995e-08
1.65656e-08
1.61204e-08
1.56646e-08
1.52018e-08
1.47346e-08
1.42652e-08
6.92449e-09
7.17947e-09
7.43489e-09
7.69119e-09
7.94755e-09
8.20292e-09
8.45611e-09
8.70568e-09
8.94963e-09
9.18762e-09
9.41849e-09
9.64101e-09
9.85393e-09
1.0056e-08
1.02461e-08
1.04229e-08
1.05855e-08
1.07328e-08
1.08638e-08
1.09778e-08
1.10739e-08
1.11516e-08
1.12101e-08
1.12492e-08
1.12689e-08
1.12688e-08
1.12492e-08
1.12101e-08
1.11516e-08
1.10739e-08
1.09778e-08
1.08638e-08
1.07328e-08
1.05855e-08
1.04229e-08
1.02461e-08
1.0056e-08
9.85393e-09
9.64101e-09
9.41849e-09
9.18761e-09
8.94963e-09
8.70568e-09
8.45611e-09
8.20292e-09
7.94755e-09
7.69119e-09
3.41686e-09
3.54319e-09
3.66977e-09
3.79686e-09
3.92403e-09
4.05078e-09
4.17652e-09
4.30052e-09
4.42178e-09
4.54014e-09
4.65502e-09
4.76579e-09
4.87183e-09
4.97251e-09
5.06723e-09
5.15542e-09
5.23651e-09
5.30999e-09
5.37539e-09
5.43228e-09
5.48027e-09
5.51905e-09
5.54829e-09
5.56784e-09
5.57764e-09
5.57764e-09
5.56784e-09
5.54829e-09
5.51905e-09
5.48027e-09
5.43227e-09
5.37539e-09
5.30999e-09
5.23651e-09
5.15541e-09
5.06723e-09
4.97251e-09
4.87183e-09
4.76579e-09
4.65502e-09
4.54014e-09
4.42178e-09
4.30051e-09
4.17652e-09
4.05079e-09
3.92403e-09
3.79686e-09
3.66977e-09
1.51165e-09
1.56733e-09
1.62312e-09
1.67914e-09
1.7352e-09
1.79109e-09
1.84654e-09
1.90122e-09
1.95472e-09
2.00694e-09
2.05763e-09
2.10652e-09
2.15333e-09
2.19778e-09
2.23961e-09
2.27855e-09
2.31437e-09
2.34683e-09
2.37573e-09
2.40087e-09
2.42208e-09
2.43922e-09
2.45214e-09
2.46078e-09
2.46511e-09
2.46511e-09
2.46078e-09
2.45214e-09
2.43921e-09
2.42208e-09
2.40087e-09
2.37573e-09
2.34683e-09
2.31437e-09
2.27855e-09
2.23961e-09
2.19778e-09
2.15333e-09
2.10652e-09
2.05763e-09
2.00694e-09
1.95472e-09
1.90122e-09
1.84653e-09
1.79109e-09
1.7352e-09
1.67914e-09
1.62312e-09
5.79799e-10
6.00894e-10
6.22018e-10
6.43223e-10
6.64441e-10
6.85588e-10
7.06565e-10
7.27251e-10
7.47482e-10
7.67227e-10
7.86393e-10
8.04875e-10
8.22568e-10
8.39369e-10
8.55178e-10
8.69896e-10
8.83431e-10
8.95697e-10
9.06615e-10
9.16113e-10
9.24127e-10
9.30603e-10
9.35485e-10
9.38749e-10
9.40385e-10
9.40385e-10
9.38749e-10
9.35485e-10
9.30602e-10
9.24127e-10
9.16113e-10
9.06615e-10
8.95697e-10
8.83431e-10
8.69895e-10
8.55177e-10
8.39369e-10
8.22568e-10
8.04874e-10
7.86392e-10
7.67227e-10
7.47481e-10
7.27251e-10
7.06565e-10
6.85588e-10
6.64441e-10
6.43222e-10
6.22018e-10
1.8255e-10
1.89036e-10
1.95526e-10
2.02035e-10
2.08545e-10
2.15028e-10
2.21456e-10
2.27792e-10
2.33983e-10
2.40024e-10
2.45884e-10
2.51533e-10
2.56939e-10
2.6207e-10
2.66897e-10
2.71389e-10
2.75519e-10
2.79261e-10
2.82591e-10
2.85488e-10
2.87931e-10
2.89905e-10
2.91393e-10
2.92388e-10
2.92886e-10
2.92886e-10
2.92388e-10
2.91393e-10
2.89905e-10
2.87931e-10
2.85487e-10
2.82591e-10
2.79261e-10
2.75519e-10
2.71389e-10
2.66897e-10
2.6207e-10
2.56939e-10
2.51533e-10
2.45884e-10
2.40024e-10
2.33983e-10
2.27791e-10
2.21456e-10
2.15029e-10
2.08545e-10
2.02035e-10
1.95526e-10
4.28822e-11
4.43439e-11
4.58036e-11
4.72658e-11
4.87264e-11
5.01794e-11
5.16184e-11
5.3035e-11
5.4418e-11
5.57658e-11
5.70722e-11
5.83305e-11
5.95337e-11
6.06749e-11
6.17476e-11
6.27455e-11
6.36623e-11
6.44926e-11
6.52311e-11
6.58732e-11
6.64147e-11
6.68521e-11
6.71817e-11
6.74019e-11
6.75123e-11
6.75123e-11
6.74019e-11
6.71817e-11
6.68521e-11
6.64147e-11
6.58732e-11
6.52311e-11
6.44926e-11
6.36623e-11
6.27454e-11
6.17476e-11
6.06749e-11
5.95337e-11
5.83305e-11
5.70722e-11
5.57657e-11
5.44179e-11
5.3035e-11
5.16184e-11
5.01795e-11
4.87264e-11
4.72658e-11
4.58035e-11
6.24951e-12
6.44647e-12
6.64253e-12
6.83847e-12
7.03374e-12
7.22758e-12
7.41916e-12
7.60737e-12
7.7907e-12
7.96905e-12
8.14164e-12
8.3076e-12
8.46606e-12
8.61615e-12
8.75706e-12
8.88797e-12
9.00813e-12
9.11685e-12
9.21346e-12
9.2974e-12
9.36814e-12
9.42525e-12
9.46826e-12
9.49699e-12
9.51138e-12
9.51138e-12
9.49699e-12
9.46826e-12
9.42525e-12
9.36814e-12
9.2974e-12
9.21346e-12
9.11684e-12
9.00813e-12
8.88797e-12
8.75706e-12
8.61615e-12
8.46605e-12
8.3076e-12
8.14164e-12
7.96905e-12
7.7907e-12
7.60736e-12
7.41915e-12
7.22759e-12
7.03373e-12
6.83846e-12
6.64253e-12
3.76077e-13
3.86008e-13
3.95827e-13
4.05591e-13
4.15277e-13
4.24851e-13
4.34273e-13
4.43489e-13
4.52425e-13
4.61086e-13
4.69438e-13
4.77443e-13
4.85064e-13
4.92262e-13
4.99002e-13
5.05248e-13
5.1097e-13
5.16136e-13
5.20719e-13
5.24695e-13
5.28042e-13
5.3074e-13
5.3277e-13
5.34124e-13
5.34802e-13
5.34802e-13
5.34124e-13
5.3277e-13
5.3074e-13
5.28042e-13
5.24695e-13
5.20719e-13
5.16136e-13
5.1097e-13
5.05248e-13
4.99002e-13
4.92262e-13
4.85064e-13
4.77443e-13
4.69438e-13
4.61086e-13
4.52425e-13
4.43489e-13
4.34272e-13
4.24851e-13
4.15277e-13
4.05591e-13
3.95826e-13
3.32049e-15
3.37228e-15
3.42258e-15
3.47203e-15
3.5206e-15
3.56815e-15
3.61453e-15
3.65946e-15
3.70251e-15
3.74389e-15
3.78351e-15
3.82123e-15
3.85692e-15
3.89042e-15
3.92163e-15
3.95041e-15
3.97664e-15
4.00024e-15
4.0211e-15
4.03913e-15
4.05427e-15
4.06645e-15
4.07557e-15
4.08163e-15
4.08467e-15
4.08467e-15
4.08163e-15
4.07557e-15
4.06645e-15
4.05427e-15
4.03913e-15
4.0211e-15
4.00024e-15
3.97664e-15
3.9504e-15
3.92163e-15
3.89042e-15
3.85692e-15
3.82123e-15
3.78351e-15
3.74389e-15
3.70251e-15
3.65946e-15
3.61453e-15
3.56815e-15
3.5206e-15
3.47203e-15
3.42258e-15
4.01644e-06
3.85973e-06
3.7048e-06
3.55171e-06
3.40051e-06
3.25129e-06
3.1041e-06
2.95901e-06
2.81611e-06
2.67547e-06
2.53718e-06
2.40131e-06
2.26797e-06
2.13725e-06
2.00925e-06
1.88407e-06
1.76183e-06
1.64262e-06
1.52659e-06
1.41383e-06
1.30448e-06
1.19867e-06
1.09653e-06
9.98175e-07
9.03703e-07
8.13079e-07
7.25651e-07
6.35521e-07
5.49219e-07
4.67901e-07
3.92118e-07
3.22436e-07
2.59408e-07
2.03526e-07
1.55157e-07
1.14471e-07
8.13733e-08
5.54669e-08
3.60563e-08
2.22091e-08
1.28589e-08
6.92449e-09
3.41686e-09
1.51165e-09
5.798e-10
1.8255e-10
4.28822e-11
6.24951e-12
3.76077e-13
3.32049e-15
4.06112e-06
3.90322e-06
3.74709e-06
3.59278e-06
3.44038e-06
3.28993e-06
3.14151e-06
2.99519e-06
2.85105e-06
2.70917e-06
2.56963e-06
2.43251e-06
2.29791e-06
2.16593e-06
2.03667e-06
1.91023e-06
1.78672e-06
1.66626e-06
1.54896e-06
1.43496e-06
1.32436e-06
1.21732e-06
1.11395e-06
1.01438e-06
9.18718e-07
8.26944e-07
7.38498e-07
6.48292e-07
5.60821e-07
4.78314e-07
4.01327e-07
3.30438e-07
2.66215e-07
2.09171e-07
1.59698e-07
1.17995e-07
8.39976e-08
5.73301e-08
3.73095e-08
2.30021e-08
1.3327e-08
7.17947e-09
3.54319e-09
1.56733e-09
6.00894e-10
1.89036e-10
4.43439e-11
6.44647e-12
3.86008e-13
3.37228e-15
4.1039e-06
3.94489e-06
3.78764e-06
3.6322e-06
3.47866e-06
3.32706e-06
3.17749e-06
3.03001e-06
2.8847e-06
2.74163e-06
2.60091e-06
2.4626e-06
2.32681e-06
2.19363e-06
2.06317e-06
1.93553e-06
1.81081e-06
1.68915e-06
1.57065e-06
1.45544e-06
1.34365e-06
1.23542e-06
1.13087e-06
1.03014e-06
9.33331e-07
8.40452e-07
7.51032e-07
6.60793e-07
5.72191e-07
4.88532e-07
4.10378e-07
3.38316e-07
2.72929e-07
2.14749e-07
1.64194e-07
1.21493e-07
8.66078e-08
5.9187e-08
3.85608e-08
2.3795e-08
1.37955e-08
7.43489e-09
3.66977e-09
1.62312e-09
6.22018e-10
1.95526e-10
4.58036e-11
6.64253e-12
3.95827e-13
3.42258e-15
4.1455e-06
3.98541e-06
3.82707e-06
3.67054e-06
3.5159e-06
3.36319e-06
3.2125e-06
3.06389e-06
2.91745e-06
2.77325e-06
2.63138e-06
2.49193e-06
2.35498e-06
2.22065e-06
2.08902e-06
1.96021e-06
1.83433e-06
1.7115e-06
1.59184e-06
1.47547e-06
1.36252e-06
1.25314e-06
1.14744e-06
1.04558e-06
9.47654e-07
8.53699e-07
7.63336e-07
6.73066e-07
5.83364e-07
4.98585e-07
4.19294e-07
3.46088e-07
2.79563e-07
2.20271e-07
1.68654e-07
1.24969e-07
8.92073e-08
6.10401e-08
3.98117e-08
2.45889e-08
1.42652e-08
7.69119e-09
3.79686e-09
1.67914e-09
6.43222e-10
2.02035e-10
4.72658e-11
6.83847e-12
4.05591e-13
3.47203e-15
4.18587e-06
4.02474e-06
3.86536e-06
3.70778e-06
3.55207e-06
3.39829e-06
3.24653e-06
3.09684e-06
2.9493e-06
2.80401e-06
2.66103e-06
2.52047e-06