/*--------------------------------*- C++ -*----------------------------------*\
  =========                 |
  \\      /  F ield         | OpenFOAM: The Open Source CFD Toolbox
   \\    /   O peration     | Website:  https://openfoam.org
    \\  /    A nd           | Version:  7
     \\/     M anipulation  |
\*---------------------------------------------------------------------------*/
FoamFile
{
    version     2.0;
    format      ascii;
    class       volVectorField;
    location    "252000";
    object      vorticity;
}
// * * * * * * * * * * * * * * * * * * * * * * * * * * * * * * * * * * * * * //

dimensions      [0 0 -1 0 0 0 0];

internalField   nonuniform List<vector> 
4814
(
(-0.0269674 0.0783144 -5.93578e-18)
(-0.0243749 0.0787675 2.8769e-17)
(-0.0217893 0.0791717 5.27567e-18)
(-0.0192101 0.0795283 -1.63341e-17)
(-0.0655379 0.0689092 1.21003e-17)
(-0.0634149 0.0696125 -6.28001e-18)
(-0.0606481 0.0708835 7.81543e-18)
(-0.057883 0.0720819 9.08878e-18)
(-0.0551214 0.0732094 4.23581e-17)
(-0.0523647 0.0742675 -5.41467e-18)
(-0.0496141 0.075258 -3.49267e-18)
(-0.0468703 0.0761827 -8.8711e-18)
(-0.0441334 0.0770434 -2.12818e-17)
(-0.0414041 0.0778425 -3.69484e-17)
(-0.0386828 0.0785821 3.1979e-17)
(-0.0359698 0.079264 7.21335e-19)
(-0.0332651 0.07989 -4.72281e-18)
(-0.0305687 0.0804615 5.24335e-18)
(-0.0278803 0.0809802 -4.66291e-18)
(-0.0251995 0.0814472 3.08235e-17)
(-0.022526 0.0818639 7.16763e-18)
(-0.0198592 0.0822315 -1.44027e-17)
(-0.0171985 0.0825508 -2.56549e-17)
(-0.0145432 0.0828229 4.86731e-18)
(-0.0118925 0.0830485 8.47695e-18)
(-0.00924572 0.0832282 3.81679e-18)
(-0.00660195 0.0833624 -1.24047e-18)
(-0.00396033 0.0834516 1.1596e-17)
(-0.00131997 0.0834961 8.31923e-19)
(0.00131997 0.0834961 1.64884e-17)
(0.00396033 0.0834516 8.67948e-18)
(0.00660196 0.0833624 1.64232e-17)
(0.00924572 0.0832282 7.18971e-18)
(0.0118925 0.0830485 1.62804e-17)
(0.0145432 0.0828229 2.7333e-17)
(0.0171985 0.0825508 7.7396e-18)
(0.0198592 0.0822315 -6.74282e-18)
(0.022526 0.0818639 -5.40581e-18)
(-0.067848 0.0712987 1.135e-17)
(-0.0656286 0.0720448 -8.36295e-18)
(-0.0627628 0.073359 5.86837e-18)
(-0.0598991 0.074598 6.03933e-18)
(-0.0570393 0.0757635 4.24894e-17)
(-0.0541848 0.076857 -2.74997e-18)
(-0.0513369 0.0778804 -1.4543e-18)
(-0.0484962 0.0788356 -6.84825e-18)
(-0.0456629 0.0797245 -2.03585e-17)
(-0.0428377 0.0805496 -4.03003e-17)
(-0.040021 0.0813132 3.44834e-17)
(-0.0372131 0.0820172 4.64098e-18)
(-0.034414 0.0826632 -3.75952e-18)
(-0.0316237 0.083253 4.72731e-18)
(-0.0288418 0.083788 -3.50003e-18)
(-0.0260681 0.0842698 3.21354e-17)
(-0.023302 0.0846997 8.19775e-18)
(-0.020543 0.0850787 -1.24755e-17)
(-0.0177903 0.0854081 -2.48766e-17)
(-0.0150434 0.0856886 6.53214e-18)
(-0.0123015 0.0859212 7.71648e-18)
(-0.00956358 0.0861064 4.53288e-18)
(-0.00682888 0.0862448 -1.54416e-18)
(-0.00409643 0.0863368 1.28697e-17)
(-0.00136533 0.0863827 2.30004e-18)
(0.00136533 0.0863827 1.70089e-17)
(0.00409644 0.0863368 8.85199e-18)
(0.00682888 0.0862448 1.66789e-17)
(0.00956358 0.0861064 7.42115e-18)
(0.0123015 0.0859212 1.7085e-17)
(0.0150434 0.0856886 2.8948e-17)
(0.0177903 0.0854081 1.0131e-17)
(0.020543 0.0850787 -3.41891e-18)
(0.023302 0.0846996 -4.13031e-18)
(0.0260681 0.0842698 2.65177e-17)
(0.0288418 0.083788 -3.14544e-18)
(0.0316237 0.083253 -2.60253e-17)
(0.034414 0.0826632 -1.60326e-17)
(0.0372131 0.0820171 -6.15415e-18)
(0.040021 0.0813132 2.89028e-17)
(0.0428377 0.0805496 -2.29788e-17)
(-0.0702829 0.0738173 1.05811e-17)
(-0.067962 0.0746086 -9.79907e-18)
(-0.0649919 0.0759685 6.03056e-18)
(-0.0620243 0.0772504 4.94812e-18)
(-0.059061 0.078456 4.42291e-17)
(-0.0561036 0.0795869 -6.69092e-19)
(-0.0531531 0.080645 -5.60601e-20)
(-0.0502103 0.0816324 -5.13071e-18)
(-0.0472754 0.0825511 -2.08071e-17)
(-0.0443491 0.0834037 -4.28922e-17)
(-0.0414319 0.0841926 3.55942e-17)
(-0.0385239 0.0849198 6.83758e-18)
(-0.0356253 0.085587 -2.75071e-18)
(-0.032736 0.086196 3.46507e-18)
(-0.0298556 0.0867484 -2.67166e-18)
(-0.0269838 0.0872458 3.2938e-17)
(-0.0241201 0.0876895 8.52454e-18)
(-0.0212638 0.0880807 -1.07497e-17)
(-0.0184144 0.0884205 -2.50841e-17)
(-0.0155709 0.0887101 6.48119e-18)
(-0.0127326 0.08895 6.59734e-18)
(-0.00989871 0.0891411 5.4533e-18)
(-0.00706814 0.0892839 -1.88453e-18)
(-0.00423994 0.0893788 1.33022e-17)
(-0.00141316 0.0894261 2.57598e-18)
(0.00141316 0.0894261 1.77384e-17)
(0.00423994 0.0893788 9.27987e-18)
(0.00706814 0.0892839 1.6719e-17)
(0.00989871 0.0891411 6.86433e-18)
(0.0127326 0.08895 1.60869e-17)
(0.0155709 0.0887101 2.81987e-17)
(0.0184144 0.0884205 9.62913e-18)
(0.0212638 0.0880807 -2.2544e-18)
(0.0241201 0.0876895 -4.18155e-18)
(0.0269838 0.0872458 2.81997e-17)
(0.0298556 0.0867484 -9.57717e-19)
(0.032736 0.086196 -2.51852e-17)
(0.0356253 0.085587 -1.51846e-17)
(0.0385239 0.0849198 -5.88968e-18)
(0.0414319 0.0841926 2.95757e-17)
(0.0443491 0.0834037 -2.44857e-17)
(0.0472754 0.0825511 -7.7203e-17)
(0.0502103 0.0816324 -9.66244e-18)
(0.0531531 0.080645 -9.64672e-18)
(-0.0728516 0.0764742 1.0083e-17)
(-0.0704237 0.0773134 -1.12089e-17)
(-0.0673436 0.0787217 7.40846e-18)
(-0.0642665 0.080049 4.6882e-18)
(-0.0611942 0.0812969 4.80781e-17)
(-0.0581281 0.0824673 6.9473e-19)
(-0.0550694 0.0835622 6.98197e-19)
(-0.052019 0.0845837 -3.62694e-18)
(-0.048977 0.0855338 -2.21667e-17)
(-0.0459441 0.0864155 -4.42072e-17)
(-0.0429207 0.0872312 3.65974e-17)
(-0.0399072 0.0879829 8.54064e-18)
(-0.0369037 0.0886725 -1.46928e-18)
(-0.0339099 0.0893018 1.21529e-18)
(-0.0309255 0.0898726 -2.02316e-18)
(-0.0279503 0.0903865 3.40315e-17)
(-0.0249835 0.0908448 8.61942e-18)
(-0.0220246 0.0912488 -9.42741e-18)
(-0.0190729 0.0915998 -2.57299e-17)
(-0.0161276 0.0918988 5.53108e-18)
(-0.0131877 0.0921466 5.46483e-18)
(-0.0102524 0.0923439 6.44852e-18)
(-0.00732065 0.0924913 -2.29028e-18)
(-0.0043914 0.0925892 1.34583e-17)
(-0.00146363 0.0926381 2.10958e-18)
(0.00146364 0.0926381 1.8483e-17)
(0.0043914 0.0925892 9.95931e-18)
(0.00732065 0.0924913 1.66272e-17)
(0.0102524 0.0923439 5.6923e-18)
(0.0131877 0.0921466 1.44029e-17)
(0.0161276 0.0918988 2.64335e-17)
(0.0190729 0.0915998 7.48536e-18)
(0.0220247 0.0912488 -2.3301e-18)
(0.0249835 0.0908448 -4.89837e-18)
(0.0279503 0.0903865 2.82944e-17)
(0.0309255 0.0898726 1.89573e-19)
(0.0339099 0.0893018 -2.63409e-17)
(0.0369037 0.0886725 -1.59339e-17)
(0.0399072 0.0879829 -5.16394e-18)
(0.0429207 0.0872312 3.06473e-17)
(0.0459441 0.0864155 -2.53239e-17)
(0.048977 0.0855338 -7.91432e-17)
(0.052019 0.0845837 -7.36491e-18)
(0.0550694 0.0835622 -9.11136e-18)
(-0.0755637 0.0792795 9.76505e-18)
(-0.0730229 0.0801694 -1.30885e-17)
(-0.069827 0.0816289 8.37138e-18)
(-0.0666344 0.0830043 4.47348e-18)
(-0.063447 0.0842972 5.24988e-17)
(-0.0602662 0.0855095 2.19354e-18)
(-0.0570934 0.0866433 1.52355e-18)
(-0.0539293 0.0877008 -2.57179e-18)
(-0.0507742 0.0886843 -2.31214e-17)
(-0.0476287 0.0895968 -4.53439e-17)
(-0.0444933 0.0904408 3.82913e-17)
(-0.0413684 0.0912184 1.04606e-17)
(-0.038254 0.0919318 -1.29537e-19)
(-0.0351499 0.0925827 -9.88113e-19)
(-0.0320557 0.0931729 -1.38069e-18)
(-0.0289712 0.0937042 3.54082e-17)
(-0.0258956 0.094178 8.79705e-18)
(-0.0228284 0.0945956 -8.85531e-18)
(-0.0197687 0.0949584 -2.59841e-17)
(-0.0167157 0.0952674 4.97285e-18)
(-0.0136685 0.0955235 4.38095e-18)
(-0.0106261 0.0957274 7.36627e-18)
(-0.00758741 0.0958797 -2.65902e-18)
(-0.0045514 0.0959809 1.40364e-17)
(-0.00151696 0.0960314 1.51962e-18)
(0.00151696 0.0960314 1.93088e-17)
(0.0045514 0.0959809 1.09121e-17)
(0.00758741 0.0958797 1.64182e-17)
(0.0106261 0.0957274 4.45552e-18)
(0.0136685 0.0955235 1.3167e-17)
(0.0167157 0.0952674 2.49826e-17)
(0.0197687 0.0949584 5.53801e-18)
(0.0228284 0.0945956 -1.99617e-18)
(0.0258956 0.094178 -5.05792e-18)
(0.0289712 0.0937042 2.7704e-17)
(0.0320557 0.0931729 1.02598e-18)
(0.0351499 0.0925827 -2.816e-17)
(0.038254 0.0919318 -1.74796e-17)
(0.0413684 0.0912184 -4.37339e-18)
(0.0444934 0.0904408 3.15853e-17)
(0.0476287 0.0895968 -2.56222e-17)
(0.0507742 0.0886843 -8.09555e-17)
(0.0539293 0.0877008 -6.31178e-18)
(0.0570934 0.0866433 -1.01633e-17)
(-0.0784296 0.082244 9.47707e-18)
(-0.0757699 0.0831878 -1.50207e-17)
(-0.0724516 0.0847017 9.05881e-18)
(-0.0691371 0.0861281 4.86218e-18)
(-0.0658282 0.0874686 5.67475e-17)
(-0.0625264 0.0887253 3.57811e-18)
(-0.059233 0.0899003 2.61303e-18)
(-0.0559489 0.0909962 -1.85889e-18)
(-0.0526743 0.092015 -2.35998e-17)
(-0.0494098 0.0929602 -4.66289e-17)
(-0.0461561 0.0938343 4.06384e-17)
(-0.0429134 0.0946395 1.23556e-17)
(-0.0396817 0.095378 8.11421e-19)
(-0.036461 0.0960518 -2.55261e-18)
(-0.0332508 0.0966627 -1.05099e-18)
(-0.0300507 0.0972124 3.61833e-17)
(-0.0268601 0.0977026 9.24691e-18)
(-0.0236782 0.0981347 -8.33848e-18)
(-0.0205044 0.09851 -2.60503e-17)
(-0.0173375 0.0988296 4.73267e-18)
(-0.0141768 0.0990945 3.45318e-18)
(-0.0110212 0.0993054 8.4411e-18)
(-0.0078695 0.0994629 -3.26134e-18)
(-0.0047206 0.0995675 1.48491e-17)
(-0.00157335 0.0996197 8.04238e-19)
(0.00157335 0.0996197 1.99812e-17)
(0.0047206 0.0995675 1.20927e-17)
(0.00786951 0.0994629 1.64252e-17)
(0.0110212 0.0993054 3.37064e-18)
(0.0141768 0.0990945 1.2002e-17)
(0.0173375 0.0988296 2.3701e-17)
(0.0205044 0.09851 3.9016e-18)
(0.0236783 0.0981347 -1.31941e-18)
(0.0268601 0.0977026 -4.78566e-18)
(0.0300507 0.0972124 2.77019e-17)
(0.0332508 0.0966627 2.35406e-18)
(0.036461 0.0960518 -2.90089e-17)
(0.0396817 0.095378 -1.90965e-17)
(0.0429134 0.0946395 -3.8858e-18)
(0.0461561 0.0938343 3.27786e-17)
(0.0494098 0.0929602 -2.56357e-17)
(0.0526743 0.092015 -8.28115e-17)
(0.0559489 0.0909961 -6.34813e-18)
(0.059233 0.0899003 -1.14306e-17)
(-0.0814609 0.0853795 8.66823e-18)
(-0.0786754 0.0863805 -1.69148e-17)
(-0.075228 0.0879522 1.03155e-17)
(-0.0717848 0.0894329 5.06512e-18)
(-0.0683475 0.090824 6.08189e-17)
(-0.0649178 0.0921278 5.38597e-18)
(-0.061497 0.0933467 2.6504e-18)
(-0.058086 0.0944832 -9.34925e-19)
(-0.0546849 0.0955396 -2.39875e-17)
(-0.0512947 0.0965195 -4.84573e-17)
(-0.0479157 0.0974256 4.27641e-17)
(-0.0445485 0.0982602 1.3927e-17)
(-0.0411928 0.0990254 1.78282e-18)
(-0.0378487 0.0997235 -3.76196e-18)
(-0.0345157 0.100356 -1.01767e-18)
(-0.0311934 0.100926 3.6896e-17)
(-0.027881 0.101433 1.02309e-17)
(-0.0245779 0.101881 -7.41763e-18)
(-0.0212831 0.102269 -2.60047e-17)
(-0.0179958 0.1026 4.99359e-18)
(-0.014715 0.102875 2.71899e-18)
(-0.0114395 0.103093 9.73072e-18)
(-0.00816812 0.103256 -3.79621e-18)
(-0.00489971 0.103364 1.54659e-17)
(-0.00163304 0.103418 -6.48868e-21)
(0.00163305 0.103418 2.06115e-17)
(0.00489971 0.103364 1.33492e-17)
(0.00816812 0.103256 1.66983e-17)
(0.0114395 0.103093 2.61096e-18)
(0.014715 0.102875 1.06167e-17)
(0.0179958 0.1026 2.28006e-17)
(0.0212831 0.102269 2.69911e-18)
(0.0245779 0.101881 -7.03447e-19)
(0.027881 0.101433 -4.05458e-18)
(0.0311934 0.100926 2.80969e-17)
(0.0345157 0.100356 3.12541e-18)
(0.0378487 0.0997235 -2.95766e-17)
(0.0411929 0.0990254 -2.02446e-17)
(0.0445485 0.0982602 -3.49391e-18)
(0.0479157 0.0974256 3.41967e-17)
(0.0512947 0.0965195 -2.56484e-17)
(0.0546849 0.0955396 -8.39654e-17)
(0.058086 0.0944832 -5.43671e-18)
(0.061497 0.0933467 -1.28e-17)
(0.0649178 0.0921278 3.63393e-17)
(-0.0846696 0.0886984 7.79849e-18)
(-0.0817514 0.0897606 -1.89352e-17)
(-0.0781676 0.0913938 1.17817e-17)
(-0.0745883 0.0929321 4.2219e-18)
(-0.0710153 0.0943771 6.4462e-17)
(-0.0674503 0.0957311 7.11236e-18)
(-0.0638946 0.0969967 2.17156e-18)
(-0.0603494 0.0981765 -4.71709e-19)
(-0.0568147 0.099273 -2.38486e-17)
(-0.0532912 0.10029 -4.89485e-17)
(-0.0497798 0.10123 4.4781e-17)
(-0.0462806 0.102096 1.59079e-17)
(-0.0427937 0.10289 2.38061e-18)
(-0.0393189 0.103614 -5.3863e-18)
(-0.0358559 0.10427 -5.32417e-19)
(-0.032404 0.10486 3.72068e-17)
(-0.0289627 0.105386 1.08467e-17)
(-0.0255311 0.10585 -6.17288e-18)
(-0.0221083 0.106253 -2.54581e-17)
(-0.0186933 0.106596 5.74071e-18)
(-0.0152852 0.10688 2.16189e-18)
(-0.0118827 0.107106 1.09917e-17)
(-0.00848455 0.107275 -4.20365e-18)
(-0.0050895 0.107387 1.59897e-17)
(-0.0016963 0.107443 -8.60169e-19)
(0.0016963 0.107443 2.11519e-17)
(0.00508951 0.107387 1.4256e-17)
(0.00848455 0.107275 1.73305e-17)
(0.0118827 0.107106 2.3234e-18)
(0.0152852 0.10688 9.0113e-18)
(0.0186934 0.106596 2.23167e-17)
(0.0221083 0.106253 1.82426e-18)
(0.0255311 0.10585 -2.85635e-20)
(0.0289627 0.105386 -3.46116e-18)
(0.032404 0.10486 2.8352e-17)
(0.0358559 0.10427 3.78884e-18)
(0.0393189 0.103614 -3.00165e-17)
(0.0427937 0.10289 -2.12899e-17)
(0.0462806 0.102096 -3.65793e-18)
(0.0497798 0.10123 3.55968e-17)
(0.0532912 0.10029 -2.49017e-17)
(0.0568147 0.099273 -8.46358e-17)
(0.0603494 0.0981765 -3.58968e-18)
(0.0638946 0.0969967 -1.45879e-17)
(0.0674503 0.0957311 3.71553e-17)
(-0.0880691 0.0922146 7.09366e-18)
(-0.0850104 0.0933419 -2.02741e-17)
(-0.0812824 0.0950408 1.29678e-17)
(-0.0775593 0.0966406 2.53573e-18)
(-0.0738428 0.0981431 6.79678e-17)
(-0.0701346 0.0995506 8.53107e-18)
(-0.0664363 0.100866 1.92285e-18)
(-0.0627489 0.102092 1.96457e-19)
(-0.0590726 0.103231 -2.39214e-17)
(-0.0554081 0.104288 -4.83927e-17)
(-0.0517563 0.105264 4.68594e-17)
(-0.0481174 0.106163 1.73777e-17)
(-0.0444914 0.106987 3.10426e-18)
(-0.0408781 0.107739 -6.86227e-18)
(-0.0372772 0.10842 1.42572e-19)
(-0.033688 0.109033 3.72289e-17)
(-0.0301099 0.109579 1.10795e-17)
(-0.0265421 0.11006 -5.16546e-18)
(-0.0229835 0.110478 -2.41935e-17)
(-0.0194332 0.110834 6.93965e-18)
(-0.01589 0.111129 1.32896e-18)
(-0.0123528 0.111363 1.22491e-17)
(-0.00882019 0.111539 -4.30419e-18)
(-0.00529083 0.111655 1.63212e-17)
(-0.00176339 0.111713 -1.689e-18)
(0.0017634 0.111713 2.15321e-17)
(0.00529083 0.111655 1.48785e-17)
(0.00882019 0.111539 1.82329e-17)
(0.0123528 0.111363 2.13448e-18)
(0.01589 0.111129 7.2639e-18)
(0.0194332 0.110834 2.2065e-17)
(0.0229835 0.110478 1.49907e-18)
(0.0265421 0.11006 6.4766e-19)
(0.0301099 0.109579 -3.09556e-18)
(0.033688 0.109033 2.84712e-17)
(0.0372772 0.10842 4.38978e-18)
(0.0408781 0.107739 -2.97617e-17)
(0.0444914 0.106987 -2.17472e-17)
(0.0481174 0.106163 -4.36364e-18)
(0.0517563 0.105264 3.59697e-17)
(0.0554081 0.104288 -2.35774e-17)
(0.0590726 0.103231 -8.44979e-17)
(0.0627489 0.102092 -2.12204e-18)
(0.0664363 0.100866 -1.6634e-17)
(0.0701346 0.0995506 3.77503e-17)
(-0.0916735 0.0959425 6.36491e-18)
(-0.0884664 0.0971397 -2.0387e-17)
(-0.0845859 0.0989087 1.36496e-17)
(-0.0807106 0.100574 6.56806e-19)
(-0.0768421 0.102138 7.1113e-17)
(-0.0729824 0.103603 9.39171e-18)
(-0.069133 0.104971 1.93844e-18)
(-0.065295 0.106247 1.20266e-18)
(-0.0614686 0.107432 -2.40818e-17)
(-0.0576547 0.10853 -4.76795e-17)
(-0.053854 0.109545 4.95229e-17)
(-0.0500669 0.11048 1.81438e-17)
(-0.0462934 0.111337 4.52659e-18)
(-0.0425332 0.112118 -7.65575e-18)
(-0.038786 0.112826 1.45453e-20)
(-0.0350511 0.113463 3.77248e-17)
(-0.0313279 0.11403 1.18581e-17)
(-0.0276154 0.11453 -3.97172e-18)
(-0.0239128 0.114964 -2.24055e-17)
(-0.0202187 0.115334 8.18041e-18)
(-0.0165322 0.11564 4.71164e-20)
(-0.012852 0.115884 1.35667e-17)
(-0.00917658 0.116066 -3.93541e-18)
(-0.00550459 0.116186 1.66066e-17)
(-0.00183464 0.116247 -2.52301e-18)
(0.00183464 0.116247 2.18173e-17)
(0.0055046 0.116186 1.52849e-17)
(0.00917658 0.116066 1.91598e-17)
(0.012852 0.115884 2.16814e-18)
(0.0165322 0.11564 5.41898e-18)
(0.0202187 0.115334 2.18853e-17)
(0.0239128 0.114964 1.37616e-18)
(0.0276154 0.11453 1.4396e-18)
(0.0313279 0.11403 -2.74416e-18)
(0.0350511 0.113463 2.84595e-17)
(0.038786 0.112826 5.42895e-18)
(0.0425332 0.112118 -2.88235e-17)
(0.0462934 0.111337 -2.13766e-17)
(0.0500669 0.11048 -4.88771e-18)
(0.053854 0.109545 3.59466e-17)
(0.0576547 0.10853 -2.25356e-17)
(0.0614686 0.107432 -8.39667e-17)
(0.065295 0.106247 -5.18235e-19)
(0.069133 0.104971 -1.93549e-17)
(0.0729824 0.103603 3.7999e-17)
(-0.0954981 0.0998982 5.37658e-18)
(-0.092134 0.10117 -1.97783e-17)
(-0.0880922 0.103014 1.43366e-17)
(-0.0840558 0.10475 -1.32557e-18)
(-0.0800265 0.106379 7.37292e-17)
(-0.0760062 0.107905 1.05699e-17)
(-0.0719966 0.109331 2.19602e-18)
(-0.0679991 0.110659 2.22915e-18)
(-0.0640135 0.111893 -2.35881e-17)
(-0.0600411 0.113037 -4.69252e-17)
(-0.0560825 0.114094 5.23351e-17)
(-0.0521381 0.115067 1.89537e-17)
(-0.0482079 0.115958 5.85576e-18)
(-0.0442918 0.116771 -8.02452e-18)
(-0.0403892 0.117508 -9.9451e-19)
(-0.0364996 0.11817 3.92106e-17)
(-0.0326222 0.11876 1.28269e-17)
(-0.0287562 0.11928 -3.35835e-18)
(-0.0249003 0.119732 -2.02454e-17)
(-0.0210536 0.120116 9.36998e-18)
(-0.0172148 0.120435 -1.16324e-18)
(-0.0133825 0.120688 1.50824e-17)
(-0.00955538 0.120877 -3.43891e-18)
(-0.0057318 0.121003 1.68837e-17)
(-0.00191036 0.121066 -3.41953e-18)
(0.00191037 0.121066 2.18773e-17)
(0.00573181 0.121003 1.56446e-17)
(0.00955538 0.120877 1.98474e-17)
(0.0133825 0.120688 2.63365e-18)
(0.0172148 0.120435 4.12637e-18)
(0.0210536 0.120116 2.16845e-17)
(0.0249003 0.119732 1.24019e-18)
(0.0287562 0.11928 1.72778e-18)
(0.0326222 0.11876 -2.66322e-18)
(0.0364996 0.11817 2.82027e-17)
(0.0403892 0.117508 6.25348e-18)
(0.0442918 0.116771 -2.77617e-17)
(0.0482079 0.115958 -2.11442e-17)
(0.0521381 0.115067 -5.48564e-18)
(0.0560825 0.114094 3.64024e-17)
(0.0600411 0.113037 -2.19464e-17)
(0.0640135 0.111893 -8.31546e-17)
(0.0679991 0.110659 1.28225e-18)
(0.0719966 0.109331 -2.22421e-17)
(-0.0995595 0.104098 4.09052e-18)
(-0.0960291 0.105451 -1.75905e-17)
(-0.0918166 0.107375 1.50783e-17)
(-0.0876097 0.109186 -3.93472e-18)
(-0.08341 0.110886 7.64961e-17)
(-0.0792196 0.112478 1.18858e-17)
(-0.0750402 0.113964 2.51397e-18)
(-0.0708733 0.115349 3.27409e-18)
(-0.066719 0.116636 -2.20866e-17)
(-0.0625782 0.117828 -4.59714e-17)
(-0.058452 0.11893 5.52101e-17)
(-0.0543405 0.119944 1.9581e-17)
(-0.050244 0.120873 7.3823e-18)
(-0.0461621 0.12172 -8.39371e-18)
(-0.0420944 0.122488 -2.46663e-18)
(-0.0380404 0.123177 4.20484e-17)
(-0.0339991 0.123792 1.35977e-17)
(-0.0299697 0.124334 -2.98331e-18)
(-0.025951 0.124804 -1.80636e-17)
(-0.0219418 0.125204 1.03221e-17)
(-0.017941 0.125536 -1.84636e-18)
(-0.013947 0.125799 1.65901e-17)
(-0.0099584 0.125997 -3.11119e-18)
(-0.00597354 0.126127 1.72903e-17)
(-0.00199093 0.126193 -4.31369e-18)
(0.00199093 0.126193 2.1944e-17)
(0.00597355 0.126127 1.58454e-17)
(0.0099584 0.125997 2.01888e-17)
(0.013947 0.125799 3.56632e-18)
(0.017941 0.125536 3.51492e-18)
(0.0219418 0.125204 2.13589e-17)
(0.025951 0.124804 7.85924e-19)
(0.0299697 0.124334 2.07974e-18)
(0.0339991 0.123792 -2.20387e-18)
(0.0380404 0.123177 2.79077e-17)
(0.0420944 0.122487 6.33628e-18)
(0.0461621 0.12172 -2.71036e-17)
(0.050244 0.120873 -2.10692e-17)
(0.0543405 0.119944 -6.15891e-18)
(0.058452 0.11893 3.71954e-17)
(0.0625782 0.117828 -2.13377e-17)
(0.066719 0.116636 -8.17111e-17)
(0.0708733 0.115349 2.34304e-18)
(0.0750402 0.113964 -2.54274e-17)
(-0.103875 0.108561 3.9328e-18)
(-0.100169 0.11 -1.60199e-17)
(-0.0957757 0.112011 1.5297e-17)
(-0.0913881 0.113903 -7.48026e-18)
(-0.0870079 0.115678 7.85629e-17)
(-0.0826371 0.117341 1.2843e-17)
(-0.0782776 0.118893 3.19662e-18)
(-0.0739311 0.120339 3.29109e-18)
(-0.0695974 0.121682 -1.94186e-17)
(-0.0652779 0.122927 -4.40135e-17)
(-0.0609735 0.124077 5.73898e-17)
(-0.0566846 0.125135 1.98124e-17)
(-0.0524112 0.126105 9.42878e-18)
(-0.0481531 0.126988 -9.07611e-18)
(-0.0439098 0.127789 -3.62909e-18)
(-0.0396807 0.128509 4.55701e-17)
(-0.0354651 0.12915 1.39472e-17)
(-0.0312618 0.129715 -1.99653e-18)
(-0.0270697 0.130205 -1.57442e-17)
(-0.0228877 0.130622 1.11782e-17)
(-0.0187143 0.130968 -2.25813e-18)
(-0.0145481 0.131243 1.78067e-17)
(-0.0103876 0.131449 -2.85689e-18)
(-0.00623099 0.131585 1.80953e-17)
(-0.00207673 0.131653 -4.98526e-18)
(0.00207674 0.131653 2.18145e-17)
(0.006231 0.131585 1.56847e-17)
(0.0103876 0.131449 2.03732e-17)
(0.0145481 0.131243 4.84866e-18)
(0.0187143 0.130968 3.15348e-18)
(0.0228877 0.130622 2.06548e-17)
(0.0270697 0.130205 3.4426e-19)
(0.0312618 0.129715 2.93388e-18)
(0.0354651 0.12915 -1.69319e-18)
(0.0396807 0.128509 2.8499e-17)
(0.0439098 0.127789 6.46845e-18)
(0.0481531 0.126988 -2.73278e-17)
(0.0524112 0.126105 -2.07552e-17)
(0.0566846 0.125135 -7.39537e-18)
(0.0609735 0.124077 3.72324e-17)
(0.0652779 0.122927 -1.9963e-17)
(0.0695974 0.121682 -8.01134e-17)
(0.073931 0.120339 3.38713e-18)
(0.0782776 0.118893 -2.83244e-17)
(-0.108464 0.113306 4.7446e-18)
(-0.104571 0.114838 -1.51993e-17)
(-0.0999868 0.116942 1.46089e-17)
(-0.095408 0.118921 -1.05661e-17)
(-0.0908364 0.120778 8.01375e-17)
(-0.0862743 0.122516 1.39454e-17)
(-0.0817237 0.124139 4.17798e-18)
(-0.0771864 0.125651 3.21601e-18)
(-0.0726624 0.127055 -1.57625e-17)
(-0.068153 0.128356 -4.16587e-17)
(-0.0636592 0.129559 5.91028e-17)
(-0.0591815 0.130665 2.00404e-17)
(-0.05472 0.131678 1.17944e-17)
(-0.0502743 0.132601 -1.03602e-17)
(-0.0458441 0.133438 -4.97631e-18)
(-0.0414287 0.13419 4.87005e-17)
(-0.0370273 0.134859 1.40697e-17)
(-0.0326388 0.135449 -5.15178e-19)
(-0.0282621 0.135962 -1.34334e-17)
(-0.0238958 0.136397 1.1819e-17)
(-0.0195386 0.136758 -2.26801e-18)
(-0.0151889 0.137046 1.88293e-17)
(-0.0108451 0.13726 -2.51825e-18)
(-0.00650543 0.137403 1.91103e-17)
(-0.0021682 0.137474 -5.40773e-18)
(0.0021682 0.137474 2.16361e-17)
(0.00650543 0.137403 1.51456e-17)
(0.0108451 0.13726 2.01904e-17)
(0.0151889 0.137046 6.23463e-18)
(0.0195386 0.136758 2.87284e-18)
(0.0238958 0.136397 1.95201e-17)
(0.0282621 0.135962 1.2545e-19)
(0.0326388 0.135449 3.83304e-18)
(0.0370273 0.134859 -9.74619e-19)
(0.0414287 0.13419 2.94204e-17)
(0.0458441 0.133438 6.27825e-18)
(0.0502743 0.132601 -2.82786e-17)
(0.05472 0.131678 -2.00132e-17)
(0.0591815 0.130665 -8.41483e-18)
(0.0636592 0.129559 3.65508e-17)
(0.068153 0.128356 -1.78355e-17)
(0.0726624 0.127055 -7.79932e-17)
(0.0771864 0.125651 3.8173e-18)
(0.0817237 0.124139 -3.12411e-17)
(-0.113345 0.118353 5.63886e-18)
(-0.109255 0.119987 -1.517e-17)
(-0.104469 0.12219 1.37049e-17)
(-0.0996874 0.124263 -1.29686e-17)
(-0.0949129 0.126208 8.17733e-17)
(-0.0901478 0.128028 1.44727e-17)
(-0.0853944 0.129728 4.84124e-18)
(-0.0806546 0.131311 3.58046e-18)
(-0.0759283 0.132781 -1.13273e-17)
(-0.071217 0.134143 -3.91653e-17)
(-0.0665219 0.135402 6.13014e-17)
(-0.0618433 0.136559 2.07307e-17)
(-0.0571815 0.13762 1.40799e-17)
(-0.0525361 0.138586 -1.15512e-17)
(-0.0479069 0.139462 -6.32802e-18)
(-0.043293 0.140248 5.12896e-17)
(-0.0386936 0.140949 1.39307e-17)
(-0.0341077 0.141567 1.59803e-18)
(-0.0295341 0.142102 -1.13321e-17)
(-0.0249713 0.142558 1.25573e-17)
(-0.020418 0.142936 -2.23966e-18)
(-0.0158725 0.143237 1.98744e-17)
(-0.0113332 0.143461 -1.99643e-18)
(-0.00679823 0.14361 2.02401e-17)
(-0.00226579 0.143684 -5.53074e-18)
(0.00226579 0.143684 2.13989e-17)
(0.00679823 0.14361 1.40293e-17)
(0.0113332 0.143461 1.98191e-17)
(0.0158725 0.143237 7.77741e-18)
(0.020418 0.142936 2.78085e-18)
(0.0249713 0.142558 1.85158e-17)
(0.0295341 0.142102 -2.63288e-19)
(0.0341077 0.141567 4.69535e-18)
(0.0386936 0.140949 -4.32094e-19)
(0.043293 0.140248 3.08608e-17)
(0.0479069 0.139462 6.62653e-18)
(0.0525361 0.138586 -2.97983e-17)
(0.0571815 0.13762 -1.85701e-17)
(0.0618433 0.136559 -9.25546e-18)
(0.0665219 0.135402 3.53783e-17)
(0.071217 0.134143 -1.49643e-17)
(0.0759283 0.132781 -7.55565e-17)
(0.0806546 0.131311 3.99139e-18)
(0.0853944 0.129728 -3.40448e-17)
(-0.11854 0.123725 6.77347e-18)
(-0.114242 0.125467 -1.55532e-17)
(-0.109241 0.127779 1.32019e-17)
(-0.104245 0.129953 -1.46322e-17)
(-0.0992559 0.131993 8.30029e-17)
(-0.0942755 0.133902 1.40236e-17)
(-0.0893068 0.135685 5.79382e-18)
(-0.0843519 0.137345 4.43106e-18)
(-0.0794106 0.138886 -7.03806e-18)
(-0.0744846 0.140314 -3.63839e-17)
(-0.0695752 0.141634 6.40238e-17)
(-0.0646829 0.142848 2.12013e-17)
(-0.0598078 0.14396 1.59139e-17)
(-0.0549497 0.144973 -1.21265e-17)
(-0.0501082 0.14589 -7.46712e-18)
(-0.0452827 0.146715 5.34559e-17)
(-0.0404722 0.14745 1.47305e-17)
(-0.0356758 0.148097 4.81738e-18)
(-0.030892 0.148658 -9.83531e-18)
(-0.0261195 0.149136 1.32324e-17)
(-0.0213569 0.149532 -1.99639e-18)
(-0.0166025 0.149847 2.11154e-17)
(-0.0118544 0.150082 -1.52715e-18)
(-0.00711088 0.150238 2.11561e-17)
(-0.00236999 0.150316 -5.5723e-18)
(0.00237 0.150316 2.13551e-17)
(0.00711089 0.150238 1.26282e-17)
(0.0118544 0.150082 1.93466e-17)
(0.0166025 0.149847 9.38344e-18)
(0.0213569 0.149532 2.86369e-18)
(0.0261195 0.149136 1.74419e-17)
(0.030892 0.148658 -1.0045e-18)
(0.0356758 0.148097 5.88001e-18)
(0.0404722 0.14745 9.9439e-19)
(0.0452827 0.146715 3.23456e-17)
(0.0501082 0.14589 6.86151e-18)
(0.0549497 0.144973 -3.10681e-17)
(0.0598078 0.14396 -1.76065e-17)
(0.0646829 0.142848 -1.1291e-17)
(0.0695752 0.141634 3.45758e-17)
(0.0744846 0.140314 -1.11591e-17)
(0.0794106 0.138886 -7.34624e-17)
(0.0843519 0.137345 5.30799e-18)
(0.0893068 0.135685 -3.67677e-17)
(-0.124071 0.129442 8.46483e-18)
(-0.119552 0.131303 -1.57266e-17)
(-0.114325 0.133732 1.28403e-17)
(-0.109102 0.136016 -1.44144e-17)
(-0.103885 0.138159 8.46037e-17)
(-0.098676 0.140164 1.27804e-17)
(-0.0934788 0.142036 5.85908e-18)
(-0.0882953 0.14378 6.32387e-18)
(-0.0831255 0.145399 -3.19361e-18)
(-0.0779713 0.1469 -3.37034e-17)
(-0.0728339 0.148286 6.66828e-17)
(-0.067714 0.149561 2.17899e-17)
(-0.0626116 0.150728 1.70747e-17)
(-0.0575268 0.151792 -1.22249e-17)
(-0.0524591 0.152756 -7.88451e-18)
(-0.0474078 0.153622 5.51037e-17)
(-0.0423721 0.154394 1.61714e-17)
(-0.0373508 0.155073 8.15868e-18)
(-0.0323427 0.155663 -8.25549e-18)
(-0.0273463 0.156164 1.35753e-17)
(-0.0223601 0.15658 -1.37681e-18)
(-0.0173825 0.156911 2.27077e-17)
(-0.0124114 0.157158 -1.2288e-18)
(-0.00744499 0.157322 2.16097e-17)
(-0.00248135 0.157404 -5.64721e-18)
(0.00248135 0.157404 2.15396e-17)
(0.007445 0.157322 1.13062e-17)
(0.0124114 0.157158 1.88876e-17)
(0.0173825 0.156911 1.09402e-17)
(0.0223601 0.15658 2.83511e-18)
(0.0273463 0.156164 1.61811e-17)
(0.0323427 0.155663 -1.3462e-18)
(0.0373508 0.155073 7.53118e-18)
(0.0423721 0.154394 2.39234e-18)
(0.0474078 0.153622 3.29173e-17)
(0.0524591 0.152756 6.90106e-18)
(0.0575268 0.151792 -3.17283e-17)
(0.0626116 0.150728 -1.75205e-17)
(0.067714 0.149561 -1.32029e-17)
(0.0728339 0.148286 3.4049e-17)
(0.0779713 0.1469 -7.25565e-18)
(0.0831255 0.145399 -7.11771e-17)
(0.0882953 0.14378 7.25751e-18)
(0.0934788 0.142036 -3.96033e-17)
(-0.12996 0.135529 1.1322e-17)
(-0.125207 0.137519 -1.64882e-17)
(-0.119741 0.140075 1.29397e-17)
(-0.114278 0.142478 -1.40166e-17)
(-0.108819 0.144732 8.64994e-17)
(-0.103369 0.146842 1.15983e-17)
(-0.0979292 0.148812 6.03996e-18)
(-0.0925031 0.150647 8.31977e-18)
(-0.0870904 0.152351 -4.67812e-19)
(-0.0816934 0.15393 -3.14734e-17)
(-0.0763134 0.155388 7.02462e-17)
(-0.070951 0.15673 2.216e-17)
(-0.0656066 0.157959 1.85289e-17)
(-0.06028 0.159078 -1.1317e-17)
(-0.054971 0.160092 -8.86488e-18)
(-0.0496788 0.161003 5.55879e-17)
(-0.0444026 0.161815 1.77766e-17)
(-0.0391413 0.16253 1.12618e-17)
(-0.0338936 0.16315 -6.29175e-18)
(-0.0286579 0.163678 1.41678e-17)
(-0.0234328 0.164115 -6.01698e-19)
(-0.0182164 0.164463 2.42474e-17)
(-0.0130069 0.164723 -8.87676e-19)
(-0.00780225 0.164896 2.20007e-17)
(-0.00260042 0.164982 -5.71754e-18)
(0.00260043 0.164982 2.17014e-17)
(0.00780226 0.164896 1.02724e-17)
(0.0130069 0.164723 1.84572e-17)
(0.0182164 0.164463 1.227e-17)
(0.0234328 0.164115 3.01892e-18)
(0.0286579 0.163678 1.5221e-17)
(0.0338936 0.16315 -1.62221e-18)
(0.0391413 0.16253 9.24602e-18)
(0.0444026 0.161815 4.3785e-18)
(0.0496788 0.161003 3.26013e-17)
(0.054971 0.160092 6.14653e-18)
(0.06028 0.159078 -3.20286e-17)
(0.0656066 0.157959 -1.73414e-17)
(0.070951 0.15673 -1.41793e-17)
(0.0763134 0.155388 3.44277e-17)
(0.0816934 0.15393 -4.71253e-18)
(0.0870904 0.152351 -6.97139e-17)
(0.0925031 0.150647 8.7808e-18)
(0.0979292 0.148812 -4.19658e-17)
(-0.136229 0.142009 1.5019e-17)
(-0.131231 0.14414 -1.77699e-17)
(-0.125512 0.146833 1.34857e-17)
(-0.119795 0.149366 -1.33451e-17)
(-0.114081 0.151742 8.78539e-17)
(-0.108374 0.153965 1.04217e-17)
(-0.102678 0.156042 6.31469e-18)
(-0.0969939 0.157976 1.08144e-17)
(-0.0913232 0.159772 2.12054e-18)
(-0.085668 0.161437 -2.87606e-17)
(-0.0800297 0.162974 7.38306e-17)
(-0.0744092 0.164389 2.28761e-17)
(-0.0688068 0.165685 2.03213e-17)
(-0.0632226 0.166865 -9.83809e-18)
(-0.0576561 0.167934 -9.94918e-18)
(-0.0521068 0.168895 5.57664e-17)
(-0.0465738 0.169751 1.95164e-17)
(-0.0410561 0.170505 1.43641e-17)
(-0.0355522 0.171159 -4.68486e-18)
(-0.0300608 0.171716 1.49157e-17)
(-0.0245802 0.172176 1.21223e-20)
(-0.0191086 0.172543 2.60011e-17)
(-0.0136441 0.172817 -4.64151e-19)
(-0.00818447 0.172999 2.22763e-17)
(-0.00272782 0.17309 -5.75923e-18)
(0.00272782 0.17309 2.18123e-17)
(0.00818447 0.172999 9.36152e-18)
(0.0136441 0.172817 1.8062e-17)
(0.0191086 0.172543 1.35604e-17)
(0.0245802 0.172176 3.59883e-18)
(0.0300608 0.171716 1.44591e-17)
(0.0355523 0.171159 -2.70944e-18)
(0.0410561 0.170505 1.05052e-17)
(0.0465738 0.169751 7.3475e-18)
(0.0521068 0.168895 3.17347e-17)
(0.0576561 0.167934 5.19183e-18)
(0.0632226 0.166865 -3.20564e-17)
(0.0688069 0.165685 -1.62852e-17)
(0.0744092 0.164389 -1.46175e-17)
(0.0800297 0.162974 3.51493e-17)
(0.085668 0.161437 -2.70791e-18)
(0.0913232 0.159772 -6.84352e-17)
(0.0969939 0.157976 1.00668e-17)
(0.102678 0.156042 -4.46672e-17)
(-0.142904 0.148907 1.80349e-17)
(-0.137646 0.15119 -1.94644e-17)
(-0.131661 0.154033 1.27332e-17)
(-0.125675 0.156707 -1.178e-17)
(-0.119691 0.159215 8.93918e-17)
(-0.113713 0.161563 9.52084e-18)
(-0.107744 0.163756 5.73411e-18)
(-0.101787 0.165799 1.33068e-17)
(-0.0958423 0.167695 5.05375e-18)
(-0.0899127 0.169454 -2.58881e-17)
(-0.0839998 0.171079 7.69686e-17)
(-0.0781045 0.172573 2.40359e-17)
(-0.0722272 0.173942 2.21865e-17)
(-0.0663682 0.17519 -8.24641e-18)
(-0.060527 0.176319 -1.04482e-17)
(-0.0547033 0.177335 5.67197e-17)
(-0.0488961 0.178239 2.13753e-17)
(-0.0431044 0.179036 1.69494e-17)
(-0.0373268 0.179727 -3.58241e-18)
(-0.0315619 0.180315 1.53886e-17)
(-0.025808 0.180803 5.73101e-19)
(-0.0200633 0.181191 2.79851e-17)
(-0.0143259 0.18148 5.32306e-21)
(-0.00859353 0.181673 2.24278e-17)
(-0.00286417 0.181769 -5.538e-18)
(0.00286417 0.181769 2.1753e-17)
(0.00859353 0.181673 8.60261e-18)
(0.0143259 0.18148 1.79047e-17)
(0.0200633 0.181191 1.45531e-17)
(0.025808 0.180803 4.47438e-18)