/*--------------------------------*- C++ -*----------------------------------*\
  =========                 |
  \\      /  F ield         | OpenFOAM: The Open Source CFD Toolbox
   \\    /   O peration     | Website:  https://openfoam.org
    \\  /    A nd           | Version:  7
     \\/     M anipulation  |
\*---------------------------------------------------------------------------*/
FoamFile
{
    version     2.0;
    format      ascii;
    class       volScalarField;
    location    "224000";
    object      strainRate;
}
// * * * * * * * * * * * * * * * * * * * * * * * * * * * * * * * * * * * * * //

dimensions      [0 0 -1 0 0 0 0];

internalField   nonuniform List<scalar> 
4838
(
0.00197521
0.00186907
0.00179358
0.00169672
0.00159002
0.00147892
0.00136601
0.00125275
0.00114013
0.00102918
0.000921113
0.000817478
0.000720089
0.000630783
0.000551071
0.000481869
0.000423351
0.000374997
0.000336055
0.000305433
0.000281882
0.000264209
0.000251704
0.000243766
0.000239918
0.000239918
0.000243766
0.000251704
0.000264209
0.000281882
0.000305434
0.000336055
0.000374997
0.000423351
0.000481869
0.000551072
0.000630784
0.00072009
0.000817479
0.000921114
0.00102918
0.00114014
0.00125275
0.00136602
0.00147892
0.00159002
0.00169672
0.00179358
0.00186907
0.00197521
0.002575
0.00224973
0.00215457
0.00204964
0.00193566
0.00181649
0.00169538
0.00157453
0.00145538
0.00133894
0.00122601
0.00111741
0.00101407
0.000917042
0.000827428
0.000746226
0.000674172
0.000611635
0.000558615
0.000514803
0.000479628
0.000452397
0.000432545
0.000419611
0.000413242
0.000413242
0.000419611
0.000432545
0.000452398
0.000479628
0.000514803
0.000558615
0.000611635
0.000674173
0.000746227
0.000827429
0.000917043
0.00101407
0.00111741
0.00122601
0.00133894
0.00145538
0.00157453
0.00169538
0.00181649
0.00193566
0.00204964
0.00215457
0.00224973
0.00257501
0.00295918
0.00255868
0.00243153
0.00231613
0.00220264
0.00208801
0.00197233
0.00185668
0.00174225
0.00163004
0.00152085
0.00141538
0.00131427
0.0012182
0.0011279
0.00104417
0.000967749
0.000899312
0.000839334
0.0007881
0.0007457
0.000712065
0.000687042
0.000670474
0.000662228
0.000662228
0.000670474
0.000687042
0.000712065
0.0007457
0.0007881
0.000839334
0.000899313
0.00096775
0.00104417
0.0011279
0.0012182
0.00131427
0.00141538
0.00152085
0.00163004
0.00174225
0.00185669
0.00197233
0.00208801
0.00220264
0.00231613
0.00243153
0.00255868
0.00295919
0.00325917
0.00286352
0.00272003
0.00259074
0.00247038
0.00235457
0.00224108
0.0021293
0.0020194
0.00191193
0.00180749
0.00170665
0.00160995
0.00151788
0.00143099
0.00134982
0.00127497
0.00120702
0.00114652
0.00109397
0.00104973
0.00101411
0.00098728
0.000969343
0.000960361
0.000960361
0.000969343
0.00098728
0.00101411
0.00104973
0.00109397
0.00114652
0.00120702
0.00127497
0.00134982
0.00143099
0.00151788
0.00160995
0.00170666
0.0018075
0.00191194
0.0020194
0.0021293
0.00224109
0.00235457
0.00247038
0.00259074
0.00272003
0.00286352
0.00325918
0.0035358
0.00315489
0.00300977
0.00287375
0.00274679
0.00262691
0.00251213
0.00240118
0.00229351
0.0021891
0.0020882
0.00199117
0.00189843
0.00181039
0.00172747
0.0016501
0.00157872
0.00151379
0.00145579
0.00140515
0.00136229
0.00132757
0.00130128
0.00128364
0.00127478
0.00127478
0.00128364
0.00130128
0.00132757
0.00136229
0.00140515
0.00145579
0.00151379
0.00157872
0.0016501
0.00172747
0.00181039
0.00189843
0.00199117
0.0020882
0.0021891
0.00229351
0.00240118
0.00251214
0.00262692
0.00274679
0.00287375
0.00300977
0.00315489
0.00353581
0.00380297
0.00343515
0.0032929
0.00315613
0.00302626
0.00290327
0.00278636
0.0026746
0.00256736
0.00246432
0.00236546
0.00227094
0.00218101
0.002096
0.00201625
0.00194211
0.00187393
0.00181209
0.00175695
0.00170887
0.0016682
0.00163525
0.0016103
0.00159354
0.00158512
0.00158512
0.00159354
0.0016103
0.00163525
0.0016682
0.00170887
0.00175695
0.00181209
0.00187394
0.00194211
0.00201625
0.002096
0.00218101
0.00227094
0.00236546
0.00246433
0.00256737
0.00267461
0.00278636
0.00290327
0.00302626
0.00315614
0.00329291
0.00343515
0.00380297
0.00406402
0.00370777
0.0035687
0.00343361
0.00330369
0.0031796
0.00306139
0.00294873
0.00284123
0.0027386
0.00264073
0.00254765
0.00245952
0.00237654
0.00229899
0.00222716
0.00216135
0.00210185
0.00204897
0.00200299
0.00196418
0.00193281
0.00190908
0.00189316
0.00188517
0.00188517
0.00189316
0.00190908
0.00193281
0.00196418
0.00200299
0.00204897
0.00210185
0.00216135
0.00222716
0.00229899
0.00237654
0.00245952
0.00254766
0.00264073
0.0027386
0.00284123
0.00294873
0.00306139
0.0031796
0.00330369
0.00343361
0.0035687
0.00370777
0.00406403
0.00432043
0.00397488
0.00383843
0.00370551
0.00357687
0.00345318
0.00333479
0.00322181
0.00311414
0.00301167
0.00291431
0.00282207
0.00273505
0.0026534
0.00257734
0.00250709
0.00244291
0.00238504
0.00233375
0.00228926
0.0022518
0.00222156
0.00219873
0.00218343
0.00217576
0.00217576
0.00218343
0.00219873
0.00222156
0.0022518
0.00228926
0.00233375
0.00238504
0.00244291
0.00250709
0.00257734
0.00265341
0.00273505
0.00282208
0.00291431
0.00301167
0.00311415
0.00322181
0.0033348
0.00345318
0.00357688
0.00370552
0.00383843
0.00397488
0.00432044
0.00457314
0.00423767
0.00410337
0.00397249
0.0038455
0.00372291
0.00360516
0.00349249
0.00338503
0.00328282
0.00318588
0.00309424
0.003008
0.00292728
0.00285225
0.00278312
0.00272008
0.00266337
0.00261319
0.00256974
0.00253322
0.00250378
0.00248158
0.00246671
0.00245925
0.00245926
0.00246671
0.00248158
0.00250378
0.00253322
0.00256974
0.00261319
0.00266337
0.00272008
0.00278312
0.00285225
0.00292728
0.003008
0.00309424
0.00318588
0.00328283
0.00338504
0.00349249
0.00360516
0.00372292
0.0038455
0.00397249
0.00410338
0.00423767
0.00457314
0.00482281
0.00449691
0.00436443
0.00423533
0.00410997
0.00398873
0.00387199
0.00376007
0.00365318
0.00355146
0.00345501
0.00336394
0.00327835
0.00319836
0.00312414
0.00305585
0.00299369
0.00293783
0.00288848
0.0028458
0.00280996
0.0027811
0.00275935
0.00274479
0.0027375
0.0027375
0.00274479
0.00275935
0.0027811
0.00280996
0.0028458
0.00288848
0.00293783
0.00299369
0.00305585
0.00312414
0.00319836
0.00327835
0.00336394
0.00345501
0.00355146
0.00365318
0.00376007
0.003872
0.00398873
0.00410997
0.00423533
0.00436444
0.00449692
0.00482282
0.00506997
0.00475314
0.00462223
0.00449469
0.00437082
0.00425093
0.00413536
0.00402439
0.00391829
0.00381724
0.00372142
0.00363096
0.003546
0.00346667
0.00339314
0.00332556
0.00326411
0.00320895
0.00316026
0.00311819
0.00308288
0.00305448
0.00303307
0.00301876
0.00301158
0.00301158
0.00301876
0.00303307
0.00305448
0.00308288
0.00311819
0.00316026
0.00320895
0.00326411
0.00332557
0.00339314
0.00346668
0.003546
0.00363096
0.00372142
0.00381724
0.00391829
0.0040244
0.00413536
0.00425094
0.00437083
0.0044947
0.00462224
0.00475314
0.00506997
0.00531501
0.00500677
0.00487725
0.00475109
0.00462856
0.00450994
0.00439553
0.00428558
0.00418037
0.00408011
0.003985
0.00389521
0.0038109
0.00373222
0.00365933
0.00359239
0.00353156
0.003477
0.00342887
0.00338731
0.00335245
0.00332442
0.00330331
0.00328919
0.00328212
0.00328212
0.00328919
0.00330331
0.00332442
0.00335245
0.00338731
0.00342887
0.003477
0.00353156
0.00359239
0.00365933
0.00373222
0.0038109
0.00389521
0.003985
0.00408011
0.00418037
0.00428559
0.00439553
0.00450995
0.00462857
0.00475109
0.00487726
0.00500678
0.00531502
0.00555828
0.00525815
0.00512986
0.00500493
0.0048836
0.00476615
0.00465283
0.00454389
0.0044396
0.00434017
0.00424582
0.00415673
0.00407308
0.00399504
0.00392277
0.00385643
0.00379617
0.00374216
0.00369452
0.00365342
0.00361896
0.00359125
0.00357039
0.00355644
0.00354945
0.00354945
0.00355644
0.00357039
0.00359125
0.00361896
0.00365342
0.00369453
0.00374216
0.00379617
0.00385643
0.00392277
0.00399505
0.00407309
0.00415673
0.00424582
0.00434017
0.0044396
0.0045439
0.00465283
0.00476615
0.00488361
0.00500493
0.00512987
0.00525816
0.00555828
0.00580005
0.00550759
0.00538039
0.00525654
0.0051363
0.0050199
0.00490759
0.00479961
0.00469621
0.00459761
0.00450402
0.00441564
0.00433266
0.00425526
0.00418358
0.00411781
0.00405809
0.00400458
0.00395741
0.00391671
0.00388261
0.00385519
0.00383456
0.00382076
0.00381385
0.00381385
0.00382076
0.00383456
0.00385519
0.00388261
0.00391671
0.00395741
0.00400458
0.0040581
0.00411781
0.00418359
0.00425526
0.00433267
0.00441565
0.00450402
0.00459761
0.00469621
0.00479962
0.00490759
0.0050199
0.0051363
0.00525655
0.0053804
0.0055076
0.00580005
0.00604058
0.00575536
0.00562912
0.00550624
0.00538696
0.0052715
0.00516012
0.00505303
0.00495047
0.00485266
0.00475981
0.00467213
0.0045898
0.00451301
0.00444192
0.00437669
0.00431748
0.00426444
0.0042177
0.00417738
0.0041436
0.00411645
0.00409602
0.00408237
0.00407553
0.00407553
0.00408237
0.00409602
0.00411645
0.0041436
0.00417738
0.0042177
0.00426444
0.00431749
0.00437669
0.00444192
0.00451301
0.00458981
0.00467213
0.00475981
0.00485266
0.00495047
0.00505303
0.00516012
0.00527151
0.00538696
0.00550624
0.00562913
0.00575536
0.00604059
0.00628011
0.00600169
0.0058763
0.00575427
0.00563585
0.00552124
0.00541069
0.00530441
0.00520262
0.00510556
0.00501341
0.0049264
0.00484469
0.00476849
0.00469795
0.00463324
0.00457451
0.00452191
0.00447557
0.0044356
0.00440212
0.00437522
0.00435498
0.00434145
0.00433468
0.00433468
0.00434145
0.00435498
0.00437523
0.00440212
0.0044356
0.00447557
0.00452191
0.00457452
0.00463324
0.00469795
0.00476849
0.0048447
0.0049264
0.00501342
0.00510556
0.00520263
0.00530441
0.00541069
0.00552125
0.00563585
0.00575428
0.00587631
0.0060017
0.00628012
0.00651884
0.00624683
0.00612218
0.0060009
0.00588322
0.00576937
0.00565956
0.00555401
0.00545293
0.00535655
0.00526506
0.00517866
0.00509755
0.00502189
0.00495188
0.00488765
0.00482938
0.00477719
0.00473121
0.00469157
0.00465838
0.0046317
0.00461164
0.00459823
0.00459151
0.00459151
0.00459823
0.00461164
0.00463171
0.00465838
0.00469158
0.00473122
0.00477719
0.00482938
0.00488766
0.00495188
0.0050219
0.00509755
0.00517866
0.00526506
0.00535655
0.00545294
0.00555401
0.00565957
0.00576938
0.00588323
0.00600091
0.00612219
0.00624684
0.00651885
0.00675698
0.00649099
0.00636697
0.00624634
0.00612932
0.00601613
0.00590697
0.00580207
0.00570163
0.00560586
0.00551497
0.00542914
0.00534857
0.00527343
0.0052039
0.00514013
0.00508227
0.00503046
0.00498483
0.0049455
0.00491255
0.00488609
0.00486618
0.00485288
0.00484622
0.00484622
0.00485288
0.00486618
0.00488609
0.00491255
0.0049455
0.00498483
0.00503046
0.00508227
0.00514013
0.0052039
0.00527344
0.00534857
0.00542915
0.00551497
0.00560587
0.00570164
0.00580208
0.00590698
0.00601614
0.00612933
0.00624635
0.00636698
0.006491
0.00675699
0.00699471
0.00673437
0.00661089
0.00649081
0.00637436
0.00626174
0.00615316
0.00604882
0.00594895
0.00585373
0.00576337
0.00567806
0.00559798
0.00552332
0.00545423
0.00539087
0.0053334
0.00528194
0.00523662
0.00519756
0.00516486
0.00513859
0.00511883
0.00510562
0.00509901
0.00509901
0.00510562
0.00511883
0.00513859
0.00516486
0.00519757
0.00523663
0.00528194
0.0053334
0.00539087
0.00545423
0.00552332
0.00559799
0.00567806
0.00576337
0.00585373
0.00594895
0.00604883
0.00615316
0.00626174
0.00637437
0.00649082
0.0066109
0.00673438
0.00699472
0.00685414
0.00673452
0.00661855
0.00650641
0.00639832
0.00629448
0.0061951
0.00610036
0.00601048
0.00592563
0.00584599
0.00577175
0.00570306
0.00564008
0.00558296
0.00553182
0.00548679
0.00544798
0.00541549
0.0053894
0.00536977
0.00535665
0.00535009
0.00535009
0.00535665
0.00536977
0.0053894
0.00541549
0.00544798
0.00548679
0.00553182
0.00558296
0.00564009
0.00570307
0.00577175
0.005846
0.00592563
0.00601048
0.00610037
0.0061951
0.00629449
0.00639833
0.00650642
0.00661855
0.00673453
0.00685415
0.00697718
0.00723221
0.00697766
0.00686208
0.00675034
0.00664267
0.00653925
0.00644028
0.00634597
0.0062565
0.00617205
0.00609281
0.00601894
0.00595061
0.00588797
0.00583115
0.0057803
0.00573553
0.00569695
0.00566465
0.00563871
0.0056192
0.00560617
0.00559964
0.00559964
0.00560617
0.0056192
0.00563872
0.00566465
0.00569695
0.00573553
0.0057803
0.00583116
0.00588797
0.00595061
0.00601895
0.00609281
0.00617206
0.0062565
0.00634598
0.00644029
0.00653925
0.00664267
0.00675035
0.00686208
0.00697767
0.00709691
0.00721958
0.00746965
0.00699374
0.0068864
0.00678332
0.00668471
0.00659075
0.00650163
0.00641753
0.00633863
0.00626509
0.00619707
0.00613472
0.00607818
0.00602759
0.00598305
0.00594467
0.00591254
0.00588674
0.00586734
0.00585437
0.00584788
0.00584789
0.00585438
0.00586734
0.00588674
0.00591254
0.00594467
0.00598305
0.00602759
0.00607819
0.00613472
0.00619707
0.00626509
0.00633863
0.00641754
0.00650164
0.00659076
0.00668472
0.00678333
0.0068864
0.00699374
0.00710515
0.00722043
0.00733938
0.00746177
0.00770718
0.0071297
0.0070269
0.00692857
0.0068349
0.00674607
0.00666226
0.00658365
0.00651038
0.00644263
0.00638054
0.00632424
0.00627387
0.00622953
0.00619132
0.00615935
0.00613367
0.00611436
0.00610146
0.006095
0.006095
0.00610146
0.00611436
0.00613367
0.00615935
0.00619133
0.00622953
0.00627387
0.00632425
0.00638055
0.00644264
0.00651039
0.00658365
0.00666227
0.00674608
0.00683491
0.00692858
0.00702691
0.0071297
0.00723678
0.00734794
0.00746298
0.00758171
0.00770392
0.00794497
0.00727015
0.00717205
0.0070786
0.00699001
0.00690644
0.00682805
0.00675502
0.0066875
0.00662562
0.00656952
0.00651934
0.00647516
0.00643711
0.00640526
0.0063797
0.00636047
0.00634762
0.00634119
0.00634119
0.00634762
0.00636047
0.0063797
0.00640527
0.00643712
0.00647517
0.00651934
0.00656953
0.00662562
0.0066875
0.00675503
0.00682806
0.00690644
0.00699001
0.00707861
0.00717205
0.00727016
0.00737275
0.00747963
0.00759062
0.0077055
0.0078241
0.00794619
0.00818317
0.00732204
0.00723362
0.00715023
0.00707203
0.00699918
0.00693184
0.00687014
0.00681421
0.00676418
0.00672015
0.00668222
0.00665048
0.006625
0.00660584
0.00659304
0.00658664
0.00658664
0.00659304
0.00660584
0.00662501
0.00665049
0.00668222
0.00672015
0.00676418
0.00681421
0.00687014
0.00693184
0.00699919
0.00707204
0.00715024
0.00723363
0.00732205
0.00741532
0.00751328
0.00761572
0.00772248
0.00783336
0.00794816
0.0080667
0.00818875
0.00842192
0.00747709
0.00739382
0.00731576
0.00724305
0.00717584
0.00711428
0.00705848
0.00700857
0.00696466
0.00692683
0.00689518
0.00686978
0.00685067
0.00683791
0.00683152
0.00683152
0.00683791
0.00685067
0.00686978
0.00689519
0.00692684
0.00696466
0.00700858
0.00705849
0.00711428
0.00717585
0.00724306
0.00731577
0.00739383
0.00747709
0.00756539
0.00765856
0.00775642
0.00785879
0.00796549
0.00807633
0.00819112
0.00830966
0.00843175
0.00866138
0.00741968
0.00735821
0.00730251
0.0072527
0.00720887
0.00717112
0.00713954
0.00711419
0.00709513
0.0070824
0.00707603
0.00707603
0.0070824
0.00709513
0.0071142
0.00713955
0.00717113
0.00720887
0.0072527
0.00730252
0.00735822
0.00741969
0.0074868
0.00755942
0.00763739
0.00772058
0.00780881
0.00790193
0.00799976
0.00810211
0.00820882
0.00831969
0.00843453
0.00855316
0.00867535
0.00890168
0.00745296
0.00741527
0.00738374
0.00735843
0.0073394
0.00732669
0.00732033
0.00732033
0.00732669
0.0073394
0.00735843
0.00738374
0.00741527
0.00745297
0.00749673
0.00754649
0.00760213
0.00766354
0.00773059
0.00780316
0.0078811
0.00796426
0.00805248
0.0081456
0.00824345
0.00834585
0.00845263
0.00856359
0.00867856
0.00879733
0.0089197
0.00914296
0.00762794
0.00760265
0.00758365
0.00757095
0.0075646
0.0075646
0.00757095
0.00758365
0.00760266
0.00762794
0.00765944
0.0076971
0.00774084
0.00779056
0.00784617
0.00790756
0.0079746
0.00804716
0.00812511
0.00820829
0.00829655
0.00838973
0.00848766
0.00859017
0.00869708
0.0088082
0.00892335
0.00904234
0.00916495
0.00938537
0.007809
0.007809
0.00781535
0.00782804
0.00784704
0.00787231
0.00790381
0.00794145
0.00798518
0.0080349
0.00809052
0.00815192
0.00821898
0.00829158
0.00836958
0.00845283
0.00854118
0.00863448
0.00873254
0.00883521
0.00894231
0.00905365
0.00916905
0.00928832
0.00941124
0.00962902
0.00811702
0.00814852
0.00818618
0.00822993
0.00827967
0.00833532
0.00839677
0.00846389
0.00853657
0.00861467
0.00869804
0.00878653
0.00887999
0.00897825
0.00908114
0.00918848
0.0093001
0.00941581
0.00953542
0.00965872
0.00987407
0.00847523
0.00852503
0.00858075
0.00864227
0.0087095
0.00878229
0.00886053
0.00894406
0.00903274
0.00912642
0.00922492
0.00932809
0.00943574
0.0095477
0.00966378
0.00978379
0.00990753
0.0101206
0.00882694
0.00888859
0.00895595
0.0090289
0.00910732
0.00919106
0.00927998
0.00937392
0.00947272
0.00957621
0.00968422
0.00979658
0.00991309
0.0100336
0.0101578
0.0103689
0.00907406
0.00913586
0.00920339
0.00927654
0.00935518
0.00943917
0.00952837
0.00962263
0.00972177
0.00982565
0.00993408
0.0100469
0.0101639
0.0102849
0.0104097
0.0106189
0.00932226
0.00938423
0.00945197
0.00952536
0.00960426
0.00968855
0.00977808
0.00987269
0.00997224
0.0100765
0.0101855
0.0102988
0.0104163
0.0105379
0.0106633
0.0108708
0.0097755
0.00985471
0.00993934
0.0100292
0.0101243
0.0102243
0.0103291
0.0104385
0.0105524
0.0106705
0.0107928
0.0109189
0.0111248
0.010478
0.0105833
0.0106933
0.0108078
0.0109266
0.0110496
0.0111764
0.0113809
0.0110652
0.0111848
0.0113085
0.0114361
0.0116394
0.000251705
0.000243766
0.000239919
0.000239919
0.000243766
0.000251705
0.00026421
0.000281883
0.000305434
0.000336055
0.000374997
0.000423351
0.000481869
0.000551071
0.000630783
0.000720089
0.000817478
0.000921113
0.00102918
0.00114013
0.00125275
0.00136601
0.00147892
0.00159002
0.00169672
0.00179358
0.00186907
0.00197521
0.000432546
0.000419612
0.000413243
0.000413243
0.000419612
0.000432545
0.000452398
0.000479628
0.000514803
0.000558615
0.000611635
0.000674172
0.000746226
0.000827428
0.000917043
0.00101407
0.00111741
0.00122601
0.00133894
0.00145538
0.00157453
0.00169538
0.00181649
0.00193566
0.00204964
0.00215457
0.00224973
0.002575
0.000687044
0.000670475
0.000662229
0.000662229
0.000670475
0.000687043
0.000712065
0.0007457
0.0007881
0.000839334
0.000899312
0.000967749
0.00104417
0.0011279
0.0012182
0.00131427
0.00141538
0.00152085
0.00163003
0.00174225
0.00185668
0.00197233
0.00208801
0.00220264
0.00231613
0.00243153
0.00255868
0.00295918
0.000987282
0.000969344
0.000960362
0.000960362
0.000969343
0.000987281
0.00101411
0.00104973
0.00109397
0.00114652
0.00120702
0.00127497
0.00134982
0.00143099
0.00151788
0.00160995
0.00170665
0.00180749
0.00191193
0.0020194
0.00212929
0.00224108
0.00235457
0.00247038
0.00259074
0.00272002
0.00286352
0.00325917
0.00130128
0.00128364
0.00127478
0.00127478
0.00128364
0.00130128
0.00132757
0.00136229
0.00140515
0.00145579
0.00151379
0.00157872
0.0016501
0.00172747
0.00181039
0.00189843
0.00199117
0.0020882
0.0021891
0.00229351
0.00240118
0.00251213
0.00262691
0.00274678
0.00287374
0.00300977
0.00315489
0.0035358
0.0016103
0.00159354
0.00158512
0.00158512
0.00159354
0.0016103
0.00163525
0.0016682
0.00170887
0.00175695
0.00181209
0.00187393
0.00194211
0.00201625
0.002096
0.00218101
0.00227093
0.00236546
0.00246432
0.00256736
0.0026746
0.00278635
0.00290327
0.00302626
0.00315613
0.0032929
0.00343514
0.00380297
0.00190908
0.00189316
0.00188517
0.00188517
0.00189316
0.00190908
0.00193281
0.00196418
0.00200298
0.00204896
0.00210185
0.00216135
0.00222716
0.00229899
0.00237654
0.00245951
0.00254765
0.00264073
0.0027386
0.00284122
0.00294872
0.00306139
0.0031796
0.00330369
0.0034336
0.00356869
0.00370777
0.00406402
0.00219873
0.00218343
0.00217576
0.00217576
0.00218343
0.00219873
0.00222156
0.00225179
0.00228926
0.00233375
0.00238504
0.00244291
0.00250709
0.00257734
0.0026534
0.00273505
0.00282207
0.00291431
0.00301167
0.00311414
0.00322181
0.00333479
0.00345317
0.00357687
0.00370551
0.00383843
0.00397488
0.00432043
0.00248158
0.00246671
0.00245925
0.00245925
0.00246671
0.00248157
0.00250378
0.00253321
0.00256974
0.00261319
0.00266337
0.00272008
0.00278311
0.00285225
0.00292727
0.00300799
0.00309424
0.00318588
0.00328282
0.00338503
0.00349249
0.00360515
0.00372291
0.0038455
0.00397249
0.00410337
0.00423767
0.00457314
0.00275935
0.00274479
0.0027375
0.0027375
0.00274479
0.00275935
0.0027811
0.00280996
0.0028458
0.00288848
0.00293783
0.00299368
0.00305585
0.00312413
0.00319836
0.00327834
0.00336394
0.00345501
0.00355145
0.00365317
0.00376007
0.00387199
0.00398873
0.00410996
0.00423533
0.00436443
0.00449691
0.00482281
0.00303307
0.00301875
0.00301158
0.00301158
0.00301875
0.00303307
0.00305447
0.00308288
0.00311818
0.00316025
0.00320895
0.00326411
0.00332556
0.00339314
0.00346667
0.00354599
0.00363096
0.00372142
0.00381724
0.00391828
0.00402439
0.00413536
0.00425093
0.00437082
0.00449469
0.00462223
0.00475314
0.00506997
0.0033033
0.00328919
0.00328211
0.00328211
0.00328918
0.0033033
0.00332442
0.00335245
0.0033873
0.00342886
0.003477
0.00353155
0.00359238
0.00365932
0.00373221
0.00381089
0.00389521
0.003985
0.00408011
0.00418037
0.00428558
0.00439552
0.00450994
0.00462856
0.00475109
0.00487725
0.00500677
0.00531501
0.00357038
0.00355644
0.00354945
0.00354945
0.00355644
0.00357038
0.00359124
0.00361895
0.00365341
0.00369452
0.00374215
0.00379617
0.00385642
0.00392277
0.00399504
0.00407308
0.00415673
0.00424581
0.00434017
0.00443959
0.00454389
0.00465282
0.00476615
0.0048836
0.00500492
0.00512986
0.00525815
0.00555828
0.00383455
0.00382076
0.00381385
0.00381385
0.00382076
0.00383455
0.00385519
0.0038826
0.00391671
0.0039574
0.00400457
0.00405809
0.00411781
0.00418358
0.00425525
0.00433266
0.00441564
0.00450402
0.0045976
0.00469621
0.00479961
0.00490759
0.0050199
0.0051363
0.00525654
0.00538039
0.00550759
0.00580005
0.00417737
0.00421769
0.00426443
0.00431748
0.00437669
0.00444191
0.004513
0.0045898
0.00467213
0.00475981
0.00485265
0.00495046
0.00505302
0.00516011
0.0052715
0.00538695
0.00550624
0.00562912
0.00575536
0.00604058
0.00510555
0.00520262
0.0053044
0.00541068
0.00552124
0.00563584
0.00575427
0.0058763
0.00600169
0.00628011
0.00576937
0.00588322
0.0060009
0.00612218
0.00624683
0.00651884
0.00636697
0.00649099
0.00675698
0.0123034
0.0125771
0.0128537
0.00790756
0.00815192
0.00839678
0.00864228
0.0088886
0.00913587
0.00938424
0.00963388
0.00988491
0.0101375
0.0103918
0.0106479
0.010906
0.0111662
0.0114287
0.0116936
0.011961
0.0122312
0.0125043
0.0127803
0.00711429
0.00735823
0.00760213
0.00784618
0.00809052
0.00833533
0.00858076
0.00882695
0.00907407
0.00932227
0.00957169
0.00982248
0.0100748
0.0103288
0.0105845
0.0108423
0.0111021
0.0113641
0.0116286
0.0118956
0.0121652
0.0124378
0.0127132
0.00705849
0.00730252
0.0075465
0.00779057
0.00803491
0.00827968
0.00852504
0.00877114
0.00901813
0.00926617
0.00951541
0.00976599
0.0100181
0.0102717
0.0105272
0.0107846
0.0110441
0.0113058
0.0115698
0.0118364
0.0121056
0.0123776
0.0126526
0.00700858
0.00725271
0.00749674
0.00774085
0.00798519
0.00822994
0.00847524
0.00872126
0.00896815
0.00921605
0.00946513
0.00971552
0.00996737
0.0102208
0.0104761
0.0107332
0.0109923
0.0112537
0.0115174
0.0117836
0.0120524
0.012324
0.0125985
0.00696467
0.00720888
0.00745297
0.00769711
0.00794146
0.00818619
0.00843145
0.0086774
0.0089242
0.00917199
0.00942093
0.00967117
0.00992284
0.0101761
0.0104311
0.010688
0.0109469
0.0112079
0.0114713
0.0117372
0.0120057
0.0122769
0.012551
0.00170888
0.00200299
0.00228926
0.00256975
0.0028458
0.00311819
0.00338731
0.00365342
0.00391672
0.00417738
0.00443561
0.00469158
0.0049455
0.00519757
0.00544799
0.00569696
0.00594467
0.00619133
0.00643712
0.00668223
0.00692684
0.00717113
0.00741528
0.00765945
0.00790382
0.00814853
0.00839376
0.00863966
0.00888638
0.00913408
0.0093829
0.009633
0.00988453
0.0101376
0.0103924
0.0106491
0.0109078
0.0111686
0.0114317
0.0116973
0.0119655
0.0122364
0.0125102
0.00166821
0.00196419
0.0022518
0.00253322
0.00280996
0.00308289
0.00335246
0.00361896
0.00388261
0.0041436
0.00440213
0.00465838
0.00491256
0.00516486
0.0054155
0.00566466
0.00591254
0.00615935
0.00640527
0.00665049
0.00689519
0.00713955
0.00738375
0.00762795
0.00787232
0.00811703
0.00836224
0.00860809
0.00885475
0.00910238
0.00935111
0.0096011
0.0098525
0.0101055
0.0103601
0.0106166
0.0108751
0.0111357
0.0113986
0.011664
0.0119319
0.0122026
0.0124761
0.00163526
0.00193281
0.00222157
0.00250379
0.00278111
0.00305448
0.00332442
0.00359125
0.0038552
0.00411646
0.00437523
0.00463171
0.0048861
0.0051386
0.0053894
0.00563872
0.00588675
0.00613368
0.0063797
0.00662501
0.00686979
0.0071142
0.00735844
0.00760267
0.00784705
0.00809176
0.00833694
0.00858277
0.00882938
0.00907695
0.00932561
0.00957551
0.00982681
0.0100797
0.0103342
0.0105905
0.0108489
0.0111094
0.0113721
0.0116373
0.011905
0.0121755
0.0124488
0.000251705
0.000432546
0.000687045
0.000987283
0.00130129
0.0016103
0.00190908
0.00219873
0.00248158
0.00275935
0.00303308
0.00330331
0.00357039
0.00383456
0.00409603
0.00435499
0.00461164
0.00486619
0.00511883
0.00536977
0.00561921
0.00586734
0.00611437
0.00636047
0.00660585
0.00685068
0.00709514
0.00733941
0.00758366
0.00782805
0.00807276
0.00831793
0.00856373
0.00881031
0.00905783
0.00930644
0.00955628
0.00980751
0.0100603
0.0103147
0.010571
0.0108292
0.0110896
0.0113522
0.0116172
0.0118848
0.0121551
0.0124282
0.000243767
0.000419613
0.000670476
0.000969345
0.00128364
0.00159354
0.00189316
0.00218343
0.00246671
0.0027448
0.00301876
0.00328919
0.00355644
0.00382077
0.00408237
0.00434146
0.00459823
0.00485289
0.00510563
0.00535666
0.00560618
0.00585438
0.00610147
0.00634763
0.00659305
0.00683792
0.00708241
0.0073267
0.00757096
0.00781536
0.00806007
0.00830523
0.00855102
0.00879758
0.00904507
0.00929364
0.00954344
0.00979462
0.0100473
0.0103017
0.0105579
0.0108161
0.0110763
0.0113389
0.0116038
0.0118713
0.0121415
0.0124145
0.000239919
0.000413243
0.00066223
0.000960363
0.00127478
0.00158512
0.00188517
0.00217576
0.00245926
0.0027375
0.00301159
0.00328212
0.00354946
0.00381386
0.00407553
0.00433468
0.00459151
0.00484622
0.00509902
0.00535009
0.00559965
0.00584789
0.00609501
0.0063412
0.00658665
0.00683153
0.00707604
0.00732034
0.00756461
0.00780901
0.00805372
0.00829888
0.00854465
0.00879121
0.00903868
0.00928724
0.00953702
0.00978817
0.0100409
0.0102952
0.0105514
0.0108095
0.0110697
0.0113322
0.0115971
0.0118645
0.0121347
0.0124077
0.000239919
0.000413243
0.00066223
0.000960363
0.00127478
0.00158512
0.00188517
0.00217576
0.00245926
0.0027375
0.00301159
0.00328212
0.00354946
0.00381386
0.00407553
0.00433468
0.00459151
0.00484622
0.00509902
0.00535009
0.00559965
0.00584789
0.00609501
0.0063412
0.00658665
0.00683153
0.00707604
0.00732034
0.00756461
0.00780901
0.00805372
0.00829888
0.00854465
0.00879121
0.00903868
0.00928724
0.00953702
0.00978817
0.0100409
0.0102952
0.0105514
0.0108095
0.0110697
0.0113322
0.0115971
0.0118645
0.0121347
0.0124077
0.000243767
0.000419612
0.000670476
0.000969345
0.00128364
0.00159354
0.00189316
0.00218343
0.00246671
0.0027448
0.00301876
0.00328919
0.00355644
0.00382077
0.00408237
0.00434146
0.00459823
0.00485288
0.00510563
0.00535666
0.00560618
0.00585438
0.00610147
0.00634763
0.00659305
0.00683792
0.00708241
0.0073267
0.00757097
0.00781536
0.00806007
0.00830523
0.00855102
0.00879758
0.00904507
0.00929364
0.00954344
0.00979462
0.0100473
0.0103017
0.0105579
0.0108161
0.0110763
0.0113389
0.0116038
0.0118713
0.0121415
0.0124145
0.000251705
0.000432546
0.000687044
0.000987282
0.00130129
0.0016103
0.00190908
0.00219873
0.00248158
0.00275935
0.00303308
0.00330331
0.00357039
0.00383456
0.00409603
0.00435499
0.00461164
0.00486619
0.00511883
0.00536977
0.00561921
0.00586734
0.00611437
0.00636048
0.00660585
0.00685068
0.00709514
0.00733941
0.00758366
0.00782805
0.00807276
0.00831793
0.00856373
0.00881031
0.00905783
0.00930644
0.00955628
0.00980751
0.0100603
0.0103147
0.010571
0.0108292
0.0110896
0.0113522
0.0116172
0.0118848
0.0121551
0.0124282
0.00026421
0.000452399
0.000712066
0.00101411
0.00132757
0.00163526
0.00193281
0.00222157
0.00250378
0.0027811
0.00305448
0.00332442
0.00359125
0.0038552
0.00411646
0.00437523
0.00463171
0.0048861
0.00513859
0.0053894
0.00563872
0.00588675
0.00613368
0.00637971
0.00662501
0.00686979
0.00711421
0.00735844
0.00760267
0.00784705
0.00809176
0.00833694
0.00858277
0.00882938
0.00907695
0.00932561
0.00957551
0.00982681
0.0100797
0.0103342
0.0105905
0.0108489
0.0111094
0.0113721
0.0116373
0.011905
0.0121755
0.0124488
0.000281883
0.000479629
0.000745701
0.00104974
0.00136229
0.0016682
0.00196419
0.0022518
0.00253322
0.00280996
0.00308288
0.00335245
0.00361896
0.00388261
0.0041436
0.00440213
0.00465838
0.00491256
0.00516486
0.0054155
0.00566466
0.00591255
0.00615935
0.00640527
0.00665049
0.00689519
0.00713956
0.00738375
0.00762795
0.00787233
0.00811703
0.00836224
0.00860809
0.00885476
0.00910238
0.00935111
0.0096011
0.0098525
0.0101055
0.0103601
0.0106166
0.0108751
0.0111357
0.0113986
0.011664
0.0119319
0.0122026
0.0124761
0.000305434
0.000514804
0.000788101
0.00109397
0.00140515
0.00170887
0.00200299
0.00228926
0.00256974
0.0028458
0.00311819
0.00338731
0.00365342
0.00391672
0.00417738
0.00443561
0.00469158
0.0049455
0.00519757
0.00544799
0.00569696
0.00594467
0.00619133
0.00643712
0.00668223
0.00692684
0.00717114
0.00741528
0.00765946
0.00790382
0.00814853
0.00839376
0.00863966
0.00888638
0.00913408
0.0093829
0.009633
0.00988453
0.0101376
0.0103924
0.0106491
0.0109078
0.0111686
0.0114317
0.0116973
0.0119655
0.0122364
0.0125102
0.000336055
0.000558616
0.000839335
0.00114652
0.00145579
0.00175695
0.00204897
0.00233375
0.00261319
0.00288848
0.00316026
0.00342887
0.00369453
0.00395741
0.0042177
0.00447557
0.00473122
0.00498484
0.00523663
0.0054868
0.00573554
0.00598305
0.00622954
0.00647517
0.00672016
0.00696467
0.00720888
0.00745297
0.00769711
0.00794147
0.00818619
0.00843145
0.00867741
0.0089242
0.00917199
0.00942093
0.00967117
0.00992284
0.0101761
0.0104311
0.010688
0.0109469
0.0112079
0.0114713
0.0117372
0.0120057
0.0122769
0.012551
0.000374997
0.000611636
0.000899314
0.00120702
0.0015138
0.00181209
0.00210185
0.00238505
0.00266337
0.00293784
0.00320896
0.003477
0.00374216
0.00400458
0.00426444
0.00452192
0.00477719
0.00503047
0.00528194
0.00553182
0.00578031
0.00602759
0.00627388
0.00651935
0.00676419
0.00700858
0.00725271
0.00749674
0.00774085
0.00798519
0.00822994
0.00847524
0.00872126
0.00896815
0.00921605
0.00946513
0.00971552
0.00996737
0.0102208
0.0104761
0.0107332
0.0109923
0.0112537
0.0115174
0.0117836
0.0120524