/*--------------------------------*- C++ -*----------------------------------*\
  =========                 |
  \\      /  F ield         | OpenFOAM: The Open Source CFD Toolbox
   \\    /   O peration     | Website:  https://openfoam.org
    \\  /    A nd           | Version:  7
     \\/     M anipulation  |
\*---------------------------------------------------------------------------*/
FoamFile
{
    version     2.0;
    format      ascii;
    class       volScalarField;
    location    "8000";
    object      nut;
}
// * * * * * * * * * * * * * * * * * * * * * * * * * * * * * * * * * * * * * //

dimensions      [0 2 -1 0 0 0 0];

internalField   nonuniform List<scalar> 
4782
(
4.30856e-06
4.13387e-06
3.9615e-06
3.79154e-06
3.6241e-06
3.45929e-06
3.29719e-06
3.13787e-06
2.98144e-06
2.82793e-06
1.4022e-05
1.37739e-05
1.35271e-05
1.32815e-05
1.30371e-05
1.27941e-05
1.25523e-05
1.23119e-05
1.20728e-05
1.18351e-05
1.15989e-05
1.1364e-05
1.11306e-05
1.08986e-05
1.06682e-05
1.04392e-05
1.02117e-05
9.98579e-06
9.76141e-06
9.53752e-06
9.31101e-06
9.08456e-06
8.85949e-06
8.6364e-06
8.41547e-06
8.19678e-06
7.98028e-06
7.76591e-06
7.55364e-06
7.34349e-06
7.13541e-06
6.92935e-06
6.7253e-06
6.52331e-06
6.32337e-06
6.12549e-06
5.92967e-06
5.73593e-06
5.5443e-06
5.35477e-06
5.16739e-06
4.98221e-06
4.79929e-06
4.61863e-06
4.4403e-06
4.26433e-06
4.09074e-06
3.91958e-06
3.75091e-06
3.58482e-06
3.42134e-06
3.26059e-06
3.10261e-06
2.94751e-06
2.79532e-06
1.3924e-05
1.3677e-05
1.34312e-05
1.31866e-05
1.29433e-05
1.27013e-05
1.24606e-05
1.22212e-05
1.19832e-05
1.17466e-05
1.15115e-05
1.12778e-05
1.10455e-05
1.08147e-05
1.05853e-05
1.03575e-05
1.01311e-05
9.9064e-06
9.68323e-06
9.45843e-06
9.23232e-06
9.00691e-06
8.78319e-06
8.56156e-06
8.3421e-06
8.12482e-06
7.90971e-06
7.69677e-06
7.48593e-06
7.27719e-06
7.07053e-06
6.86588e-06
6.66324e-06
6.46263e-06
6.26404e-06
6.06746e-06
5.87291e-06
5.68043e-06
5.49006e-06
5.30181e-06
5.1157e-06
4.93176e-06
4.75007e-06
4.57065e-06
4.39354e-06
4.2188e-06
4.04647e-06
3.87661e-06
3.70928e-06
3.5445e-06
3.38234e-06
3.22289e-06
3.06623e-06
2.91245e-06
2.7616e-06
1.38235e-05
1.35776e-05
1.33329e-05
1.30895e-05
1.28473e-05
1.26063e-05
1.23667e-05
1.21283e-05
1.18914e-05
1.16558e-05
1.14217e-05
1.11891e-05
1.09579e-05
1.07282e-05
1.05e-05
1.02734e-05
1.00483e-05
9.82469e-06
9.60221e-06
9.37662e-06
9.15094e-06
8.92661e-06
8.70424e-06
8.48411e-06
8.26624e-06
8.05061e-06
7.83714e-06
7.62575e-06
7.41639e-06
7.20904e-06
7.00368e-06
6.80034e-06
6.59901e-06
6.3997e-06
6.2024e-06
6.00715e-06
5.81394e-06
5.62282e-06
5.4338e-06
5.24692e-06
5.06222e-06
4.8797e-06
4.6994e-06
4.52138e-06
4.34566e-06
4.17229e-06
4.00133e-06
3.83283e-06
3.66683e-06
3.50341e-06
3.34261e-06
3.18451e-06
3.0292e-06
2.87678e-06
2.72728e-06
1.37201e-05
1.34753e-05
1.32316e-05
1.29892e-05
1.27482e-05
1.25084e-05
1.227e-05
1.20328e-05
1.17971e-05
1.15628e-05
1.13299e-05
1.10984e-05
1.08684e-05
1.06399e-05
1.04129e-05
1.01874e-05
9.96323e-06
9.73677e-06
9.51031e-06
9.28488e-06
9.06104e-06
8.83908e-06
8.61913e-06
8.40119e-06
8.18533e-06
7.97155e-06
7.75982e-06
7.55009e-06
7.34235e-06
7.13659e-06
6.93284e-06
6.73108e-06
6.53129e-06
6.33347e-06
6.13767e-06
5.94388e-06
5.75211e-06
5.56243e-06
5.37488e-06
5.18949e-06
5.00627e-06
4.82524e-06
4.6464e-06
4.46981e-06
4.29551e-06
4.12359e-06
3.95407e-06
3.78702e-06
3.6225e-06
3.46055e-06
3.30123e-06
3.14461e-06
2.99076e-06
2.83978e-06
2.69172e-06
1.37199e-05
1.3475e-05
1.32313e-05
1.29889e-05
1.27477e-05
1.25079e-05
1.22695e-05
1.20324e-05
1.17967e-05
1.15624e-05
1.13296e-05
1.10981e-05
1.08682e-05
1.06398e-05
1.04128e-05
1.01874e-05
9.96326e-06
9.73682e-06
9.51034e-06
9.28493e-06
9.0611e-06
8.83915e-06
8.61919e-06
8.40131e-06
8.18547e-06
7.97165e-06
7.75986e-06
7.55011e-06
7.34233e-06
7.13651e-06
6.93266e-06
6.73081e-06
6.53094e-06
6.33308e-06
6.13724e-06
5.94344e-06
5.75172e-06
5.56209e-06
5.37457e-06
5.18917e-06
5.00594e-06
4.82492e-06
4.64611e-06
4.46955e-06
4.2953e-06
4.1234e-06
3.95392e-06
3.78689e-06
3.62238e-06
3.46045e-06
3.30114e-06
3.14452e-06
2.99068e-06
2.83972e-06
2.69167e-06
1.38234e-05
1.35773e-05
1.33325e-05
1.30889e-05
1.28466e-05
1.26057e-05
1.23661e-05
1.21279e-05
1.1891e-05
1.16555e-05
1.14214e-05
1.11887e-05
1.09576e-05
1.07279e-05
1.04997e-05
1.0273e-05
1.00479e-05
9.82429e-06
9.60165e-06
9.37595e-06
9.15023e-06
8.9259e-06
8.70351e-06
8.48335e-06
8.26546e-06
8.0498e-06
7.83628e-06
7.62486e-06
7.41547e-06
7.20812e-06
7.00274e-06
6.79933e-06
6.59795e-06
6.39862e-06
6.20135e-06
6.00614e-06
5.813e-06
5.62191e-06
5.43292e-06
5.24607e-06
5.06141e-06
4.87895e-06
4.69875e-06
4.5208e-06
4.34516e-06
4.17186e-06
4.00096e-06
3.83252e-06
3.6666e-06
3.50325e-06
3.34251e-06
3.18447e-06
3.02918e-06
2.87671e-06
2.72714e-06
2.58054e-06
2.43699e-06
2.29657e-06
2.15928e-06
1.39234e-05
1.36763e-05
1.34305e-05
1.3186e-05
1.29427e-05
1.27007e-05
1.246e-05
1.22206e-05
1.19826e-05
1.1746e-05
1.15108e-05
1.12771e-05
1.10448e-05
1.0814e-05
1.05846e-05
1.03568e-05
1.01305e-05
9.90569e-06
9.68246e-06
9.4575e-06
9.23128e-06
9.00581e-06
8.78201e-06
8.56031e-06
8.34085e-06
8.12359e-06
7.9085e-06
7.6956e-06
7.48483e-06
7.2761e-06
7.06939e-06
6.86467e-06
6.66199e-06
6.46133e-06
6.26274e-06
6.06623e-06
5.8718e-06
5.67943e-06
5.48914e-06
5.30099e-06
5.11498e-06
4.93115e-06
4.74952e-06
4.57018e-06
4.39315e-06
4.2185e-06
4.04626e-06
3.87647e-06
3.70917e-06
3.54445e-06
3.38234e-06
3.22292e-06
3.06626e-06
2.91242e-06
2.76147e-06
2.61349e-06
2.46855e-06
2.32675e-06
2.18812e-06
2.05277e-06
1.40209e-05
1.37728e-05
1.35259e-05
1.32803e-05
1.30359e-05
1.27928e-05
1.25511e-05
1.23106e-05
1.20716e-05
1.18339e-05
1.15975e-05
1.13626e-05
1.11291e-05
1.08971e-05
1.06666e-05
1.04376e-05
1.02101e-05
9.98422e-06
9.75987e-06
9.53607e-06
9.30966e-06
9.08331e-06
8.85825e-06
8.63507e-06
8.41405e-06
8.19523e-06
7.97866e-06
7.76431e-06
7.55212e-06
7.34202e-06
7.13402e-06
6.92809e-06
6.72422e-06
6.52236e-06
6.32249e-06
6.12465e-06
5.92887e-06
5.73516e-06
5.54354e-06
5.35407e-06
5.16677e-06
4.98165e-06
4.79875e-06
4.61812e-06
4.43981e-06
4.26386e-06
4.09034e-06
3.91926e-06
3.75067e-06
3.58463e-06
3.42119e-06
3.26043e-06
3.10241e-06
2.94723e-06
2.79494e-06
2.64562e-06
2.49937e-06
2.35623e-06
2.21626e-06
2.07954e-06
1.94624e-06
1.81647e-06
1.69031e-06
1.56786e-06
1.44923e-06
1.33452e-06
1.22384e-06
1.11731e-06
1.01502e-06
9.17054e-07
8.23223e-07
7.31724e-07
6.38642e-07
5.50462e-07
4.67682e-07
3.90825e-07
3.20425e-07
2.56993e-07
2.00975e-07
1.52686e-07
1.12239e-07
7.94804e-08
5.39551e-08
3.49196e-08
2.14063e-08
1.23283e-08
6.59828e-09
3.23228e-09
1.41706e-09
5.3705e-10
1.66264e-10
3.80624e-11
5.30782e-12
2.92751e-13
2.14755e-15
1.41156e-05
1.38666e-05
1.36187e-05
1.33721e-05
1.31267e-05
1.28826e-05
1.26397e-05
1.23982e-05
1.21581e-05
1.19192e-05
1.16818e-05
1.14458e-05
1.12112e-05
1.09781e-05
1.07465e-05
1.05163e-05
1.02877e-05
1.00607e-05
9.8351e-06
9.61115e-06
9.38511e-06
9.15814e-06
8.93205e-06
8.70762e-06
8.48524e-06
8.26502e-06
8.04704e-06
7.83129e-06
7.61772e-06
7.40629e-06
7.19695e-06
6.98964e-06
6.78438e-06
6.58118e-06
6.38002e-06
6.1809e-06
5.98385e-06
5.78891e-06
5.5961e-06
5.40543e-06
5.2169e-06
5.03056e-06
4.84642e-06
4.66453e-06
4.48496e-06
4.30773e-06
4.13292e-06
3.96056e-06
3.79072e-06
3.62342e-06
3.45873e-06
3.29672e-06
3.13744e-06
2.98098e-06
2.82744e-06
2.67686e-06
2.52933e-06
2.38495e-06
2.24374e-06
2.10577e-06
1.97121e-06
1.84017e-06
1.71274e-06
1.58904e-06
1.46917e-06
1.35324e-06
1.24135e-06
1.13363e-06
1.03018e-06
9.31097e-07
8.36305e-07
7.44744e-07
6.50547e-07
5.6124e-07
4.77318e-07
3.99314e-07
3.2777e-07
2.63215e-07
2.06113e-07
1.56801e-07
1.15419e-07
8.18366e-08
5.56195e-08
3.60333e-08
2.2107e-08
1.27393e-08
6.82073e-09
3.34164e-09
1.46481e-09
5.54924e-10
1.7167e-10
3.92497e-11
5.46094e-12
2.99819e-13
2.17795e-15
1.42065e-05
1.39565e-05
1.37077e-05
1.34602e-05
1.32138e-05
1.29688e-05
1.2725e-05
1.24825e-05
1.22413e-05
1.20016e-05
1.17631e-05
1.15261e-05
1.12905e-05
1.10563e-05
1.08237e-05
1.05926e-05
1.03629e-05
1.01347e-05
9.90817e-06
9.68315e-06
9.45827e-06
9.23104e-06
9.00397e-06
8.77833e-06
8.55463e-06
8.33315e-06
8.11392e-06
7.89689e-06
7.682e-06
7.46923e-06
7.25857e-06
7.04996e-06
6.84339e-06
6.63887e-06
6.43638e-06
6.23592e-06
6.03756e-06
5.84131e-06
5.6472e-06
5.45525e-06
5.26548e-06
5.07787e-06
4.8925e-06
4.70938e-06
4.52858e-06
4.35015e-06
4.17414e-06
4.00055e-06
3.82945e-06
3.6609e-06
3.49497e-06
3.33171e-06
3.1712e-06
3.01353e-06
2.85877e-06
2.707e-06
2.5583e-06
2.41273e-06
2.27036e-06
2.13119e-06
1.99543e-06
1.86318e-06
1.73456e-06
1.60967e-06
1.48861e-06
1.3715e-06
1.25846e-06
1.14959e-06
1.04501e-06
9.44821e-07
8.48996e-07
7.56762e-07
6.62172e-07
5.71777e-07
4.86755e-07
4.07641e-07
3.34989e-07
2.6934e-07
2.11179e-07
1.60865e-07
1.18564e-07
8.41718e-08
5.7272e-08
3.71406e-08
2.28046e-08
1.3149e-08
7.04261e-09
3.45077e-09
1.51247e-09
5.72759e-10
1.7706e-10
4.04323e-11
5.61313e-12
3.06815e-13
2.20777e-15
1.42946e-05
1.40437e-05
1.3794e-05
1.35455e-05
1.32982e-05
1.30522e-05
1.28074e-05
1.25639e-05
1.23218e-05
1.2081e-05
1.18416e-05
1.16036e-05
1.1367e-05
1.11318e-05
1.08981e-05
1.06659e-05
1.04352e-05
1.02061e-05
9.97844e-06
9.75242e-06
9.528e-06
9.30079e-06
9.07303e-06
8.84636e-06
8.62146e-06
8.39864e-06
8.17805e-06
7.95967e-06
7.74352e-06
7.5295e-06
7.31763e-06
7.10783e-06
6.90011e-06
6.69444e-06
6.49083e-06
6.28926e-06
6.08974e-06
5.89232e-06
5.697e-06
5.50382e-06
5.31279e-06
5.12396e-06
4.93736e-06
4.75303e-06
4.57103e-06
4.39138e-06
4.21413e-06
4.03932e-06
3.86703e-06
3.69728e-06
3.53017e-06
3.36574e-06
3.20407e-06
3.04524e-06
2.8893e-06
2.73634e-06
2.58644e-06
2.43968e-06
2.29615e-06
2.15583e-06
2.01891e-06
1.88552e-06
1.75574e-06
1.62969e-06
1.50748e-06
1.38921e-06
1.27502e-06
1.16503e-06
1.05934e-06
9.58069e-07
8.61192e-07
7.68044e-07
6.73377e-07
5.81941e-07
4.95863e-07
4.15688e-07
3.41976e-07
2.7528e-07
2.16102e-07
1.64824e-07
1.21635e-07
8.64564e-08
5.8892e-08
3.82282e-08
2.34909e-08
1.35526e-08
7.26133e-09
3.55839e-09
1.55947e-09
5.90343e-10
1.8237e-10
4.15959e-11
5.76248e-12
3.13642e-13
2.23644e-15
1.4379e-05
1.41273e-05
1.38768e-05
1.36275e-05
1.33793e-05
1.31324e-05
1.28867e-05
1.26424e-05
1.23993e-05
1.21576e-05
1.19172e-05
1.16782e-05
1.14407e-05
1.12045e-05
1.09698e-05
1.07367e-05
1.0505e-05
1.02748e-05
1.00462e-05
9.81912e-06
9.59367e-06
9.36741e-06
9.13932e-06
8.9117e-06
8.68559e-06
8.46152e-06
8.23966e-06
8.02003e-06
7.80264e-06
7.58743e-06
7.37439e-06
7.16349e-06
6.95465e-06
6.74784e-06
6.54308e-06
6.34039e-06
6.13978e-06
5.94127e-06
5.74486e-06
5.55057e-06
5.35845e-06
5.16851e-06
4.98077e-06
4.79528e-06
4.61209e-06
4.43126e-06
4.25282e-06
4.07682e-06
3.90334e-06
3.73242e-06
3.56414e-06
3.39857e-06
3.23576e-06
3.07577e-06
2.91869e-06
2.7646e-06
2.61358e-06
2.4657e-06
2.32103e-06
2.17961e-06
2.04157e-06
1.90705e-06
1.77617e-06
1.64901e-06
1.5257e-06
1.40636e-06
1.29109e-06
1.18003e-06
1.07328e-06
9.70968e-07
8.73085e-07
7.79055e-07
6.84302e-07
5.9186e-07
5.0476e-07
4.23555e-07
3.48812e-07
2.81098e-07
2.20931e-07
1.68712e-07
1.24655e-07
8.8707e-08
6.04904e-08
3.93028e-08
2.41698e-08
1.39522e-08
7.47805e-09
3.66508e-09
1.60607e-09
6.07775e-10
1.87632e-10
4.27477e-11
5.91009e-12
3.20367e-13
2.26454e-15
1.44599e-05
1.42073e-05
1.39559e-05
1.37058e-05
1.34568e-05
1.3209e-05
1.29625e-05
1.27173e-05
1.24734e-05
1.22308e-05
1.19896e-05
1.17497e-05
1.15112e-05
1.12742e-05
1.10386e-05
1.08044e-05
1.05718e-05
1.03407e-05
1.01111e-05
9.8831e-06
9.65666e-06
9.43136e-06
9.20301e-06
8.97452e-06
8.74733e-06
8.52203e-06
8.29886e-06
8.07793e-06
7.85929e-06
7.64289e-06
7.42866e-06
7.21659e-06
7.00663e-06
6.79873e-06
6.59287e-06
6.3891e-06
6.18744e-06
5.98789e-06
5.79041e-06
5.59502e-06
5.40177e-06
5.21072e-06
5.02192e-06
4.8354e-06
4.65117e-06
4.46925e-06
4.28972e-06
4.11264e-06
3.93809e-06
3.76612e-06
3.59678e-06
3.43011e-06
3.2662e-06
3.10513e-06
2.94697e-06
2.79179e-06
2.63968e-06
2.49072e-06
2.34497e-06
2.20248e-06
2.06335e-06
1.92776e-06
1.79581e-06
1.66761e-06
1.54326e-06
1.42287e-06
1.30656e-06
1.19446e-06
1.08669e-06
9.83367e-07
8.84519e-07
7.89656e-07
6.94828e-07
6.01424e-07
5.13348e-07
4.31158e-07
3.55428e-07
2.86736e-07
2.25615e-07
1.7249e-07
1.27596e-07
9.0902e-08
6.20518e-08
4.03542e-08
2.48349e-08
1.4344e-08
7.69077e-09
3.76983e-09
1.65184e-09
6.24891e-10
1.92796e-10
4.38769e-11
6.05452e-12
3.26921e-13
2.29169e-15
1.45369e-05
1.42835e-05
1.40313e-05
1.37803e-05
1.35305e-05
1.32819e-05
1.30345e-05
1.27884e-05
1.25436e-05
1.23002e-05
1.20582e-05
1.18174e-05
1.15781e-05
1.13402e-05
1.11037e-05
1.08687e-05
1.06352e-05
1.04032e-05
1.01727e-05
9.94376e-06
9.71641e-06
9.49064e-06
9.26257e-06
9.03355e-06
8.80544e-06
8.57905e-06
8.35478e-06
8.13279e-06
7.9131e-06
7.69568e-06
7.48046e-06
7.26735e-06
7.05632e-06
6.84739e-06
6.64053e-06
6.43578e-06
6.23314e-06
6.03257e-06
5.83407e-06
5.63768e-06
5.44343e-06
5.25138e-06
5.06154e-06
4.87397e-06
4.68871e-06
4.50583e-06
4.32535e-06
4.14732e-06
3.97178e-06
3.79878e-06
3.62842e-06
3.46074e-06
3.29582e-06
3.13374e-06
2.97454e-06
2.81831e-06
2.66512e-06
2.51507e-06
2.36823e-06
2.22468e-06
2.08448e-06
1.94783e-06
1.81483e-06
1.68559e-06
1.56021e-06
1.4388e-06
1.32148e-06
1.2084e-06
1.09966e-06
9.95371e-07
8.95587e-07
7.99904e-07
7.0499e-07
6.10656e-07
5.21642e-07
4.38502e-07
3.61821e-07
2.92189e-07
2.30154e-07
1.76156e-07
1.30454e-07
9.30389e-08
6.35744e-08
4.13808e-08
2.54851e-08
1.47275e-08
7.89906e-09
3.87246e-09
1.69668e-09
6.41658e-10
1.97852e-10
4.49817e-11
6.19561e-12
3.33304e-13
2.318e-15
1.46099e-05
1.43558e-05
1.41029e-05
1.38511e-05
1.36005e-05
1.33512e-05
1.31031e-05
1.28563e-05
1.26108e-05
1.23666e-05
1.21238e-05
1.18823e-05
1.16421e-05
1.14034e-05
1.11661e-05
1.09303e-05
1.06959e-05
1.04631e-05
1.02318e-05
1.0002e-05
9.7738e-06
9.54718e-06
9.31953e-06
9.0901e-06
8.86115e-06
8.63379e-06
8.40851e-06
8.18544e-06
7.96465e-06
7.7461e-06
7.52979e-06
7.31566e-06
7.10364e-06
6.8937e-06
6.68585e-06
6.48007e-06
6.27639e-06
6.0748e-06
5.87533e-06
5.67798e-06
5.48281e-06
5.28985e-06
5.0991e-06
4.9106e-06
4.72442e-06
4.54061e-06
4.35917e-06
4.18016e-06
4.00364e-06
3.82968e-06
3.65833e-06
3.48966e-06
3.32373e-06
3.16061e-06
3.00037e-06
2.84312e-06
2.68894e-06
2.53792e-06
2.39013e-06
2.24562e-06
2.10444e-06
1.96679e-06
1.8328e-06
1.70258e-06
1.57623e-06
1.45385e-06
1.33559e-06
1.22157e-06
1.11191e-06
1.00671e-06
9.06053e-07
8.09616e-07
7.14633e-07
6.19427e-07
5.29524e-07
4.45489e-07
3.67915e-07
2.97396e-07
2.34492e-07
1.79665e-07
1.33193e-07
9.50907e-08
6.50386e-08
4.23696e-08
2.61122e-08
1.50978e-08
8.10033e-09
3.97166e-09
1.74003e-09
6.57865e-10
2.02737e-10
4.60479e-11
6.33147e-12
3.39424e-13
2.34293e-15
1.46789e-05
1.44241e-05
1.41704e-05
1.3918e-05
1.36667e-05
1.34167e-05
1.31679e-05
1.29204e-05
1.26741e-05
1.24292e-05
1.21856e-05
1.19434e-05
1.17025e-05
1.1463e-05
1.12249e-05
1.09883e-05
1.07531e-05
1.05195e-05
1.02873e-05
1.00566e-05
9.82761e-06
9.60016e-06
9.37301e-06
9.14335e-06
8.91378e-06
8.68553e-06
8.4592e-06
8.23503e-06
8.01315e-06
7.79358e-06
7.57628e-06
7.36118e-06
7.14824e-06
6.93739e-06
6.72864e-06
6.52199e-06
6.31741e-06
6.11493e-06
5.91453e-06
5.71624e-06
5.52014e-06
5.32625e-06
5.13461e-06
4.94521e-06
4.75809e-06
4.57333e-06
4.39095e-06
4.21104e-06
4.03363e-06
3.85877e-06
3.6865e-06
3.51689e-06
3.35002e-06
3.18598e-06
3.02482e-06
2.86666e-06
2.71154e-06
2.55958e-06
2.41084e-06
2.2654e-06
2.12328e-06
1.98471e-06
1.84979e-06
1.71865e-06
1.59138e-06
1.46811e-06
1.34895e-06
1.23403e-06
1.12349e-06
1.01745e-06
9.15978e-07
8.18838e-07
7.23796e-07
6.2777e-07
5.37034e-07
4.52155e-07
3.7373e-07
3.02367e-07
2.3864e-07
1.83025e-07
1.35821e-07
9.7061e-08
6.64466e-08
4.33217e-08
2.67167e-08
1.5455e-08
8.2946e-09
4.06746e-09
1.78189e-09
6.73514e-10
2.07451e-10
4.7076e-11
6.4623e-12
3.45299e-13
2.36672e-15
1.47434e-05
1.4488e-05
1.42337e-05
1.39806e-05
1.37287e-05
1.3478e-05
1.32285e-05
1.29802e-05
1.27332e-05
1.24875e-05
1.22431e-05
1.20001e-05
1.17585e-05
1.15184e-05
1.12796e-05
1.10422e-05
1.08063e-05
1.0572e-05
1.03391e-05
1.01078e-05
9.87799e-06
9.64975e-06
9.4228e-06
9.19276e-06
8.96252e-06
8.73352e-06
8.50645e-06
8.28159e-06
8.05898e-06
7.83861e-06
7.62049e-06
7.40454e-06
7.19071e-06
6.97898e-06
6.76932e-06
6.56173e-06
6.35622e-06
6.1528e-06
5.95153e-06
5.7524e-06
5.55543e-06
5.36067e-06
5.16812e-06
4.97781e-06
4.7898e-06
4.60414e-06
4.42086e-06
4.23999e-06
4.06161e-06
3.8858e-06
3.71262e-06
3.54214e-06
3.37441e-06
3.20952e-06
3.04753e-06
2.88852e-06
2.73258e-06
2.57978e-06
2.4302e-06
2.28392e-06
2.14096e-06
2.00155e-06
1.86579e-06
1.7338e-06
1.60569e-06
1.48157e-06
1.36157e-06
1.24582e-06
1.13446e-06
1.0276e-06
9.25344e-07
8.27523e-07
7.32414e-07
6.3562e-07
5.44102e-07
4.58435e-07
3.79219e-07
3.07067e-07
2.42566e-07
1.86208e-07
1.38313e-07
9.89326e-08
6.77862e-08
4.42286e-08
2.72931e-08
1.57959e-08
8.48017e-09
4.159e-09
1.8219e-09
6.88468e-10
2.11955e-10
4.80572e-11
6.58695e-12
3.50877e-13
2.38912e-15
1.48028e-05
1.45468e-05
1.42919e-05
1.40382e-05
1.37857e-05
1.35343e-05
1.32842e-05
1.30353e-05
1.27877e-05
1.25414e-05
1.22965e-05
1.20528e-05
1.18106e-05
1.15698e-05
1.13303e-05
1.10923e-05
1.08557e-05
1.06206e-05
1.0387e-05
1.0155e-05
9.92449e-06
9.69559e-06
9.4683e-06
9.23845e-06
9.00781e-06
8.77819e-06
8.55039e-06
8.32472e-06
8.10129e-06
7.88009e-06
7.66106e-06
7.4442e-06
7.22949e-06
7.0169e-06
6.80644e-06
6.59805e-06
6.39174e-06
6.18754e-06
5.98544e-06
5.78547e-06
5.58769e-06
5.39212e-06
5.19876e-06
5.00769e-06
4.81893e-06
4.63251e-06
4.44849e-06
4.26691e-06
4.08784e-06
3.91134e-06
3.73747e-06
3.56627e-06
3.39778e-06
3.23209e-06
3.06928e-06
2.90942e-06
2.75261e-06
2.59895e-06
2.44852e-06
2.30139e-06
2.1576e-06
2.01734e-06
1.88076e-06
1.74795e-06
1.61903e-06
1.49412e-06
1.37334e-06
1.25681e-06
1.14468e-06
1.03708e-06
9.34098e-07
8.35656e-07
7.40487e-07
6.4297e-07
5.50722e-07
4.64315e-07
3.84359e-07
3.11473e-07
2.46252e-07
1.89202e-07
1.4066e-07
1.00698e-07
6.90511e-08
4.50861e-08
2.78388e-08
1.61189e-08
8.65609e-09
4.2458e-09
1.85985e-09
7.02649e-10
2.16223e-10
4.89866e-11
6.70484e-12
3.56135e-13
2.41009e-15
1.48578e-05
1.46013e-05
1.43459e-05
1.40916e-05
1.38385e-05
1.35866e-05
1.33359e-05
1.30865e-05
1.28383e-05
1.25914e-05
1.23458e-05
1.21015e-05
1.18587e-05
1.16172e-05
1.13771e-05
1.11384e-05
1.09013e-05
1.06656e-05
1.04314e-05
1.01987e-05
9.96753e-06
9.73795e-06
9.50997e-06
9.28063e-06
9.04982e-06
8.81962e-06
8.59105e-06
8.36454e-06
8.14028e-06
7.91831e-06
7.69854e-06
7.48093e-06
7.26543e-06
7.05203e-06
6.84073e-06
6.63155e-06
6.42448e-06
6.21956e-06
6.01679e-06
5.81617e-06
5.61771e-06
5.42143e-06
5.22734e-06
5.0355e-06
4.84597e-06
4.65881e-06
4.47405e-06
4.29174e-06
4.11196e-06
3.93474e-06
3.76012e-06
3.58816e-06
3.41895e-06
3.25255e-06
3.08904e-06
2.92849e-06
2.77098e-06
2.6166e-06
2.46545e-06
2.31761e-06
2.1731e-06
2.0321e-06
1.89475e-06
1.76119e-06
1.63152e-06
1.50588e-06
1.38438e-06
1.26714e-06
1.15431e-06
1.04601e-06
9.42349e-07
8.43316e-07
7.48057e-07
6.49896e-07
5.56964e-07
4.69864e-07
3.89209e-07
3.15628e-07
2.49727e-07
1.92026e-07
1.42875e-07
1.02365e-07
7.02464e-08
4.58971e-08
2.83551e-08
1.64248e-08
8.82272e-09
4.32806e-09
1.89581e-09
7.16087e-10
2.20267e-10
4.98666e-11
6.81639e-12
3.61106e-13
2.42992e-15
1.49083e-05
1.46513e-05
1.43954e-05
1.41406e-05
1.3887e-05
1.36345e-05
1.33832e-05
1.31332e-05
1.28845e-05
1.26371e-05
1.2391e-05
1.21462e-05
1.19027e-05
1.16607e-05
1.142e-05
1.11807e-05
1.09429e-05
1.07066e-05
1.04718e-05
1.02386e-05
1.00069e-05
9.7768e-06
9.54825e-06
9.31948e-06
9.0885e-06
8.85783e-06
8.62859e-06
8.40131e-06
8.17618e-06
7.95328e-06
7.73262e-06
7.51422e-06
7.29804e-06
7.08399e-06
6.87205e-06
6.66224e-06
6.45452e-06
6.24889e-06
6.04542e-06
5.84413e-06
5.64502e-06
5.44808e-06
5.25336e-06
5.06088e-06
4.8707e-06
4.68284e-06
4.49737e-06
4.31436e-06
4.13386e-06
3.95592e-06
3.7806e-06
3.60795e-06
3.43806e-06
3.27098e-06
3.10678e-06
2.94554e-06
2.78735e-06
2.63231e-06
2.4805e-06
2.332e-06
2.18685e-06
2.04521e-06
1.90723e-06
1.77303e-06
1.64272e-06
1.51643e-06
1.39427e-06
1.27639e-06
1.16292e-06
1.05398e-06
9.49686e-07
8.50045e-07
7.54255e-07
6.56042e-07
5.62511e-07
4.74804e-07
3.93538e-07
3.19346e-07
2.52844e-07
1.94563e-07
1.4487e-07
1.0387e-07
7.13283e-08
4.66324e-08
2.88241e-08
1.67029e-08
8.97437e-09
4.40294e-09
1.92855e-09
7.28319e-10
2.23945e-10
5.06658e-11
6.91738e-12
3.65572e-13
2.44727e-15
1.49538e-05
1.46963e-05
1.444e-05
1.41848e-05
1.39308e-05
1.36778e-05
1.34262e-05
1.31757e-05
1.29265e-05
1.26785e-05
1.24318e-05
1.21865e-05
1.19425e-05
1.16999e-05
1.14587e-05
1.12189e-05
1.09806e-05
1.07438e-05
1.05085e-05
1.02747e-05
1.00424e-05
9.81171e-06
9.58261e-06
9.35435e-06
9.12321e-06
8.89199e-06
8.66209e-06
8.43409e-06
8.20828e-06
7.98469e-06
7.76337e-06
7.54425e-06
7.32735e-06
7.11265e-06
6.90012e-06
6.68975e-06
6.48153e-06
6.27544e-06
6.07146e-06
5.86963e-06
5.66994e-06
5.47247e-06
5.27722e-06
5.08421e-06
4.89347e-06
4.70505e-06
4.51904e-06
4.33548e-06
4.1544e-06
3.97586e-06
3.79993e-06
3.62667e-06
3.45616e-06
3.28844e-06
3.12359e-06
2.9617e-06
2.80285e-06
2.64713e-06
2.49465e-06
2.34551e-06
2.19974e-06
2.05745e-06
1.91882e-06
1.784e-06
1.65307e-06
1.52616e-06
1.40339e-06
1.28491e-06
1.17084e-06
1.06132e-06
9.56468e-07
8.56284e-07
7.60011e-07
6.61742e-07
5.67653e-07
4.79383e-07
3.97549e-07
3.22793e-07
2.55735e-07
1.96919e-07
1.46723e-07
1.05269e-07
7.23342e-08
4.73164e-08
2.92605e-08
1.69617e-08
9.11558e-09
4.47269e-09
1.95905e-09
7.39713e-10
2.27372e-10
5.14102e-11
7.01146e-12
3.69736e-13
2.46358e-15
1.49946e-05
1.47367e-05
1.44799e-05
1.42243e-05
1.39697e-05
1.37164e-05
1.34642e-05
1.32132e-05
1.29635e-05
1.2715e-05
1.24679e-05
1.22221e-05
1.19777e-05
1.17347e-05
1.14931e-05
1.12529e-05
1.10142e-05
1.0777e-05
1.05412e-05
1.0307e-05
1.00743e-05
9.84322e-06
9.61369e-06
9.38569e-06
9.15434e-06
8.92271e-06
8.69232e-06
8.46381e-06
8.23744e-06
8.01331e-06
7.79143e-06
7.57181e-06
7.35437e-06
7.13908e-06
6.92596e-06
6.71502e-06
6.50624e-06
6.2996e-06
6.09506e-06
5.89263e-06
5.69239e-06
5.49435e-06
5.29853e-06
5.10496e-06
4.91368e-06
4.72475e-06
4.53822e-06
4.35409e-06
4.17243e-06
3.99331e-06
3.81679e-06
3.64295e-06
3.47186e-06
3.30359e-06
3.13822e-06
2.97583e-06
2.81647e-06
2.66026e-06
2.50727e-06
2.35761e-06
2.21131e-06
2.06847e-06
1.92931e-06
1.79392e-06
1.66243e-06
1.53498e-06
1.41168e-06
1.29266e-06
1.17807e-06
1.06802e-06
9.6265e-07
8.61962e-07
7.65246e-07
6.66903e-07
5.72311e-07
4.83531e-07
4.01184e-07
3.25917e-07
2.58357e-07
1.99055e-07
1.48404e-07
1.06538e-07
7.32473e-08
4.79377e-08
2.96571e-08
1.71972e-08
9.24406e-09
4.53617e-09
1.98681e-09
7.50083e-10
2.30489e-10
5.20875e-11
7.09698e-12
3.73517e-13
2.47839e-15
1.50308e-05
1.47725e-05
1.45154e-05
1.42594e-05
1.40044e-05
1.37507e-05
1.34981e-05
1.32467e-05
1.29966e-05
1.27478e-05
1.25004e-05
1.22542e-05
1.20094e-05
1.1766e-05
1.1524e-05
1.12834e-05
1.10442e-05
1.08066e-05
1.05703e-05
1.03357e-05
1.01025e-05
9.87096e-06
9.64094e-06
9.41255e-06
9.18121e-06
8.94922e-06
8.71829e-06
8.48926e-06
8.26247e-06
8.038e-06
7.81581e-06
7.59589e-06
7.37816e-06
7.16255e-06
6.94904e-06
6.73763e-06
6.5283e-06
6.32107e-06
6.11595e-06
5.91299e-06
5.71221e-06
5.51364e-06
5.31734e-06
5.12331e-06
4.93157e-06
4.74217e-06
4.55514e-06
4.37055e-06
4.18844e-06
4.00888e-06
3.8319e-06
3.65761e-06
3.48604e-06
3.31728e-06
3.15139e-06
2.98846e-06
2.82859e-06
2.67184e-06
2.51832e-06
2.36813e-06
2.22133e-06
2.07801e-06
1.93836e-06
1.8025e-06
1.67056e-06
1.54263e-06
1.41884e-06
1.29935e-06
1.18429e-06
1.07378e-06
9.67965e-07
8.66846e-07
7.69755e-07
6.7138e-07
5.76357e-07
4.87139e-07
4.04351e-07
3.28641e-07
2.60645e-07
2.00924e-07
1.49878e-07
1.07652e-07
7.405e-08
4.84845e-08
3.00065e-08
1.74047e-08
9.35736e-09
4.59216e-09
2.0113e-09
7.5923e-10
2.33238e-10
5.2684e-11
7.1722e-12
3.7683e-13
2.4912e-15
1.50615e-05
1.4803e-05
1.45456e-05
1.42893e-05
1.40341e-05
1.37801e-05
1.35273e-05
1.32756e-05
1.30252e-05
1.2776e-05
1.25281e-05
1.22816e-05
1.20364e-05
1.17927e-05
1.15502e-05
1.13093e-05
1.10697e-05
1.08316e-05
1.0595e-05
1.03599e-05
1.01264e-05
9.89446e-06
9.66408e-06
9.43533e-06
9.20388e-06
8.9717e-06
8.74057e-06
8.51122e-06
8.284e-06
8.05909e-06
7.83652e-06
7.61623e-06
7.39811e-06
7.18212e-06
6.96822e-06
6.7564e-06
6.54668e-06
6.33907e-06
6.13363e-06
5.93038e-06
5.72928e-06
5.53034e-06
5.3336e-06
5.13909e-06
4.94686e-06
4.75699e-06
4.56954e-06
4.38454e-06
4.20205e-06
4.02207e-06
3.84468e-06
3.66996e-06
3.49798e-06
3.32879e-06
3.16247e-06
2.99912e-06
2.83883e-06
2.6817e-06
2.52781e-06
2.37723e-06
2.23005e-06
2.08633e-06
1.94626e-06
1.80997e-06
1.67759e-06
1.54925e-06
1.42506e-06
1.30517e-06
1.1897e-06
1.0788e-06
9.72587e-07
8.71092e-07
7.73675e-07
6.75262e-07
5.79873e-07
4.90277e-07
4.07106e-07
3.31011e-07
2.62636e-07
2.02548e-07
1.51158e-07
1.0862e-07
7.47479e-08
4.89601e-08
3.03106e-08
1.75854e-08
9.45604e-09
4.64094e-09
2.03264e-09
7.67199e-10
2.35633e-10
5.32035e-11
7.23766e-12
3.7971e-13
2.50231e-15
1.50866e-05
1.48278e-05
1.45702e-05
1.43136e-05
1.40582e-05
1.38039e-05
1.35508e-05
1.3299e-05
1.30484e-05
1.2799e-05
1.25509e-05
1.23041e-05
1.20587e-05
1.18146e-05
1.15719e-05
1.13306e-05
1.10908e-05
1.08525e-05
1.06156e-05
1.03803e-05
1.01464e-05
9.91413e-06
9.68345e-06
9.45442e-06
9.22294e-06
8.99056e-06
8.75914e-06
8.52948e-06
8.30197e-06
8.07675e-06
7.85379e-06
7.63307e-06
7.41452e-06
7.19806e-06
6.98371e-06
6.7715e-06
6.56144e-06
6.35353e-06
6.14779e-06
5.94421e-06
5.74281e-06
5.54358e-06
5.34657e-06
5.15183e-06
4.95937e-06
4.76925e-06
4.58152e-06
4.3962e-06
4.21335e-06
4.03304e-06
3.85535e-06
3.68034e-06
3.50803e-06
3.33851e-06
3.17186e-06
3.00818e-06
2.84755e-06
2.69006e-06
2.53579e-06
2.38485e-06
2.23731e-06
2.09322e-06
1.9528e-06
1.81617e-06
1.68346e-06
1.55478e-06
1.43025e-06
1.31003e-06
1.19424e-06
1.08302e-06
9.76495e-07
8.74689e-07
7.76996e-07
6.78546e-07
5.82841e-07
4.92925e-07
4.0943e-07
3.33013e-07
2.64318e-07
2.03921e-07
1.52241e-07
1.0944e-07
7.53388e-08
4.9363e-08
3.05683e-08
1.77385e-08
9.53969e-09
4.68229e-09
2.05072e-09
7.73955e-10
2.37663e-10
5.36438e-11
7.29313e-12
3.82149e-13
2.51175e-15
1.51069e-05
1.4848e-05
1.45901e-05
1.43333e-05
1.40777e-05
1.38232e-05
1.35699e-05
1.33178e-05
1.30668e-05
1.28172e-05
1.25689e-05
1.23219e-05
1.20761e-05
1.18318e-05
1.15889e-05
1.13474e-05
1.11074e-05
1.08688e-05
1.06317e-05
1.03962e-05
1.01622e-05
9.92978e-06
9.69894e-06
9.46966e-06
9.23854e-06
9.00604e-06
8.7743e-06
8.54428e-06
8.31637e-06
8.09075e-06
7.86747e-06
7.64648e-06
7.42772e-06
7.21109e-06
6.99656e-06
6.78413e-06
6.57383e-06
6.36568e-06
6.15964e-06
5.95575e-06
5.754e-06
5.55445e-06
5.35714e-06
5.1621e-06
4.96938e-06
4.77901e-06
4.59103e-06
4.40548e-06
4.2224e-06
4.04184e-06
3.86387e-06
3.68856e-06
3.51596e-06
3.34618e-06
3.17928e-06
3.01534e-06
2.85445e-06
2.69671e-06
2.54221e-06
2.39102e-06
2.24321e-06
2.09883e-06
1.9581e-06
1.82118e-06
1.68818e-06
1.55921e-06
1.43442e-06
1.31392e-06
1.19786e-06
1.08637e-06
9.79589e-07
8.77532e-07
7.79623e-07
6.81143e-07
5.85183e-07
4.95012e-07
4.11262e-07
3.3459e-07
2.65646e-07
2.05007e-07
1.53098e-07
1.1009e-07
7.58079e-08
4.96832e-08
3.07732e-08
1.78605e-08
9.60632e-09
4.71524e-09
2.06514e-09
7.79338e-10
2.39279e-10
5.39942e-11
7.3372e-12
3.84079e-13
2.51909e-15
1.51217e-05
1.48625e-05
1.46045e-05
1.43476e-05
1.40918e-05
1.38371e-05
1.35837e-05
1.33314e-05
1.30805e-05
1.28308e-05
1.25823e-05
1.23352e-05
1.20895e-05
1.1845e-05
1.1602e-05
1.13604e-05
1.11202e-05
1.08814e-05
1.06443e-05
1.04085e-05
1.01743e-05
9.94176e-06
9.71075e-06
9.48131e-06
9.25017e-06
9.01755e-06
8.78564e-06
8.55545e-06
8.3274e-06
8.10163e-06
7.87811e-06
7.65681e-06
7.43769e-06
7.2208e-06
7.0061e-06
6.79356e-06
6.58315e-06
6.37487e-06
6.16871e-06
5.96469e-06
5.76282e-06
5.5631e-06
5.36559e-06
5.17034e-06
4.97738e-06
4.78677e-06
4.59856e-06
4.41276e-06
4.22942e-06
4.04863e-06
3.87045e-06
3.69493e-06
3.52214e-06
3.35214e-06
3.18503e-06
3.02087e-06
2.85976e-06
2.70179e-06
2.54705e-06
2.39565e-06
2.24764e-06
2.10307e-06
1.96217e-06
1.82506e-06
1.69186e-06
1.56269e-06
1.43768e-06
1.31697e-06
1.2007e-06
1.08901e-06
9.8202e-07
8.79763e-07
7.81679e-07
6.83177e-07
5.87023e-07
4.96653e-07
4.12703e-07
3.35831e-07
2.66689e-07
2.05858e-07
1.5377e-07
1.10598e-07
7.61744e-08
4.99331e-08
3.09331e-08
1.79555e-08
9.65825e-09
4.74091e-09
2.07637e-09
7.83533e-10
2.4054e-10
5.42677e-11
7.37166e-12
3.85597e-13
2.52503e-15
1.51321e-05
1.48729e-05
1.46147e-05
1.43577e-05
1.41017e-05
1.38468e-05
1.35932e-05
1.33408e-05
1.30897e-05
1.28398e-05
1.25913e-05
1.23441e-05
1.20982e-05
1.18536e-05
1.16105e-05
1.13688e-05
1.11285e-05
1.08897e-05
1.06523e-05
1.04165e-05
1.01823e-05
9.94956e-06
9.71843e-06
9.48891e-06
9.25823e-06
9.02572e-06
8.79368e-06
8.56319e-06
8.33482e-06
8.10875e-06
7.88502e-06
7.66359e-06
7.44437e-06
7.22736e-06
7.01252e-06
6.79982e-06
6.58925e-06
6.38082e-06
6.17448e-06
5.97026e-06
5.76821e-06
5.56837e-06
5.37079e-06
5.17547e-06
4.98246e-06
4.79176e-06
4.60343e-06
4.41749e-06
4.23401e-06
4.05308e-06
3.87475e-06
3.6991e-06
3.52619e-06
3.35608e-06
3.18884e-06
3.02453e-06
2.86328e-06
2.70517e-06
2.55029e-06
2.39873e-06
2.25058e-06
2.10586e-06
1.9648e-06
1.82755e-06
1.69421e-06
1.5649e-06
1.43976e-06
1.31892e-06
1.20252e-06
1.09069e-06
9.83565e-07
8.8118e-07
7.82985e-07
6.8447e-07
5.88194e-07
4.97698e-07
4.13621e-07
3.36623e-07
2.67356e-07
2.06405e-07
1.54201e-07
1.10925e-07
7.64106e-08
5.00945e-08
3.10365e-08
1.80171e-08
9.69191e-09
4.75757e-09
2.08365e-09
7.86254e-10
2.41357e-10
5.44447e-11
7.3939e-12
3.86569e-13
2.52871e-15
1.51375e-05
1.48782e-05
1.46201e-05
1.4363e-05
1.4107e-05
1.38522e-05
1.35986e-05
1.33462e-05
1.3095e-05
1.28451e-05
1.25964e-05
1.2349e-05
1.2103e-05
1.18583e-05
1.16151e-05
1.13733e-05
1.1133e-05
1.08941e-05
1.06567e-05
1.04209e-05
1.01865e-05
9.95378e-06
9.72261e-06
9.49302e-06
9.26229e-06
9.02971e-06
8.79762e-06
8.56716e-06
8.33882e-06
8.1127e-06
7.88885e-06
7.66729e-06
7.44793e-06
7.23079e-06
7.01579e-06
6.80295e-06
6.59228e-06
6.38376e-06
6.17739e-06
5.97313e-06
5.77105e-06
5.57117e-06
5.37352e-06
5.17811e-06
4.98499e-06
4.79424e-06
4.60587e-06
4.41991e-06
4.23644e-06
4.05549e-06
3.87714e-06
3.70143e-06
3.52843e-06
3.35823e-06
3.19091e-06
3.02656e-06
2.86525e-06
2.70706e-06
2.55209e-06
2.40046e-06
2.25225e-06
2.10747e-06
1.96635e-06
1.82902e-06