/*--------------------------------*- C++ -*----------------------------------*\
  =========                 |
  \\      /  F ield         | OpenFOAM: The Open Source CFD Toolbox
   \\    /   O peration     | Website:  https://openfoam.org
    \\  /    A nd           | Version:  7
     \\/     M anipulation  |
\*---------------------------------------------------------------------------*/
FoamFile
{
    version     2.0;
    format      ascii;
    class       volScalarField;
    location    "184000";
    object      omega;
}
// * * * * * * * * * * * * * * * * * * * * * * * * * * * * * * * * * * * * * //

dimensions      [0 0 -1 0 0 0 0];

internalField   nonuniform List<scalar> 
4850
(
0.0287831
0.0285227
0.0292911
0.0290243
0.0287687
0.0298124
0.0295391
0.0292772
0.0290261
0.0287859
0.0303466
0.0300671
0.029799
0.0295418
0.0292956
0.0290606
0.0308935
0.0306079
0.0303338
0.0300706
0.0298186
0.0295779
0.0293487
0.0314531
0.0311615
0.0308814
0.0306124
0.0303546
0.0301083
0.0298737
0.029651
0.0294401
0.0320252
0.0317276
0.0314417
0.0311669
0.0309035
0.0306518
0.0304119
0.030184
0.0299682
0.0297647
0.0326098
0.0323063
0.0320146
0.0317341
0.0314652
0.0312081
0.030963
0.03073
0.0305093
0.0303012
0.0301056
0.0299228
0.0297527
0.0295955
0.0332066
0.0328974
0.0325999
0.0323139
0.0320396
0.0317771
0.0315268
0.0312889
0.0310635
0.0308507
0.0306508
0.0304638
0.0302898
0.030129
0.0299814
0.0298471
0.029726
0.0296184
0.0338158
0.0335008
0.0331977
0.0329062
0.0326264
0.0323587
0.0321034
0.0318605
0.0316304
0.0314131
0.0312089
0.0310179
0.0308401
0.0306757
0.0305248
0.0303874
0.0302636
0.0301534
0.030057
0.0299742
0.0344372
0.0341165
0.0338078
0.0335108
0.0332257
0.0329529
0.0326925
0.0324448
0.03221
0.0319883
0.0317799
0.0315848
0.0314033
0.0312354
0.0310812
0.0309408
0.0308143
0.0307017
0.0306031
0.0305185
0.0304479
0.0303915
0.0303491
0.0303209
0.0350709
0.0347445
0.0344303
0.0341278
0.0338375
0.0335595
0.0332941
0.0330417
0.0328023
0.0325762
0.0323636
0.0321646
0.0319793
0.0318079
0.0316505
0.0315072
0.031378
0.031263
0.0311623
0.0310759
0.0310038
0.0309461
0.0309028
0.030874
0.0308595
0.0308595
0.030874
0.0309028
0.0309461
0.0357169
0.0353849
0.0350651
0.0347572
0.0344616
0.0341785
0.0339083
0.033651
0.0334071
0.0331767
0.0329599
0.032757
0.0325681
0.0323933
0.0322327
0.0320865
0.0319546
0.0318373
0.0317345
0.0316463
0.0315727
0.0315138
0.0314696
0.0314401
0.0314254
0.0314254
0.0314401
0.0314696
0.0315138
0.0315727
0.0316463
0.0317345
0.0363752
0.0360375
0.0357122
0.035399
0.0350981
0.03481
0.0345348
0.0342729
0.0340245
0.0337897
0.0335689
0.0333621
0.0331696
0.0329914
0.0328277
0.0326785
0.0325441
0.0324244
0.0323195
0.0322296
0.0321545
0.0320944
0.0320493
0.0320193
0.0320042
0.0320042
0.0320193
0.0320493
0.0320944
0.0321545
0.0322295
0.0323195
0.0324244
0.0325441
0.0370458
0.0367026
0.0363718
0.0360532
0.0357471
0.0354539
0.0351739
0.0349073
0.0346544
0.0344153
0.0341904
0.0339798
0.0337837
0.0336021
0.0334353
0.0332833
0.0331463
0.0330243
0.0329174
0.0328257
0.0327491
0.0326879
0.0326419
0.0326112
0.0325959
0.0325959
0.0326112
0.0326419
0.0326879
0.0327491
0.0328257
0.0329174
0.0330243
0.0331463
0.037729
0.0373801
0.0370438
0.0367198
0.0364085
0.0361103
0.0358254
0.0355541
0.0352968
0.0350535
0.0348245
0.0346101
0.0344104
0.0342255
0.0340556
0.0339008
0.0337612
0.0336369
0.033528
0.0334345
0.0333566
0.0332941
0.0332473
0.033216
0.0332004
0.0332004
0.033216
0.0332473
0.0332941
0.0333566
0.0334345
0.033528
0.0336369
0.0337612
0.0384247
0.0380701
0.0377283
0.037399
0.0370825
0.0367792
0.0364895
0.0362136
0.0359517
0.0357042
0.0354712
0.035253
0.0350497
0.0348615
0.0346886
0.034531
0.0343888
0.0342623
0.0341513
0.0340562
0.0339767
0.0339132
0.0338654
0.0338336
0.0338177
0.0338177
0.0338336
0.0338654
0.0339131
0.0339767
0.0340561
0.0341513
0.0342622
0.0343888
0.0391331
0.0387729
0.0384255
0.0380908
0.0377691
0.0374608
0.0371662
0.0368856
0.0366193
0.0363675
0.0361305
0.0359086
0.0357017
0.0355102
0.0353342
0.0351738
0.0350291
0.0349003
0.0347874
0.0346905
0.0346097
0.0345449
0.0344963
0.0344639
0.0344477
0.0344477
0.0344639
0.0344963
0.0345449
0.0346096
0.0346905
0.0347874
0.0349003
0.0350291
0.0398544
0.0394884
0.0391355
0.0387953
0.0384684
0.038155
0.0378556
0.0375703
0.0372996
0.0370436
0.0368026
0.0365768
0.0363664
0.0361716
0.0359925
0.0358294
0.0356822
0.0355511
0.0354362
0.0353376
0.0352553
0.0351894
0.03514
0.035107
0.0350905
0.0350905
0.035107
0.03514
0.0351894
0.0352553
0.0353376
0.0354362
0.0355511
0.0356821
0.0405886
0.0402169
0.0398583
0.0395128
0.0391806
0.0388621
0.0385578
0.0382678
0.0379926
0.0377324
0.0374874
0.0372578
0.0370439
0.0368458
0.0366637
0.0364977
0.036348
0.0362147
0.0360978
0.0359975
0.0359138
0.0358468
0.0357965
0.0357629
0.0357461
0.0357461
0.0357629
0.0357965
0.0358468
0.0359138
0.0359975
0.0360978
0.0362146
0.036348
0.041336
0.0409585
0.0405943
0.0402432
0.0399057
0.0395822
0.0392729
0.0389783
0.0386986
0.0384341
0.038185
0.0379517
0.0377342
0.0375328
0.0373477
0.0371789
0.0370267
0.0368911
0.0367723
0.0366702
0.0365851
0.036517
0.0364658
0.0364317
0.0364146
0.0364146
0.0364317
0.0364658
0.036517
0.0365851
0.0366702
0.0367722
0.0368911
0.0370266
0.0420968
0.0417134
0.0413435
0.0409869
0.0406441
0.0403154
0.0400012
0.0397018
0.0394176
0.0391488
0.0388957
0.0386585
0.0384375
0.0382328
0.0380446
0.0378731
0.0377183
0.0375805
0.0374597
0.0373559
0.0372694
0.0372001
0.0371481
0.0371134
0.037096
0.037096
0.0371134
0.0371481
0.0372001
0.0372694
0.0373559
0.0374596
0.0375804
0.0377183
0.0428711
0.0424818
0.0421062
0.041744
0.0413958
0.0410619
0.0407427
0.0404386
0.0401498
0.0398767
0.0396195
0.0393785
0.0391539
0.0389459
0.0387546
0.0385803
0.038423
0.0382829
0.0381601
0.0380547
0.0379667
0.0378963
0.0378434
0.0378081
0.0377905
0.0377905
0.0378081
0.0378434
0.0378963
0.0379667
0.0380547
0.0381601
0.0382829
0.038423
0.0385802
0.0436593
0.043264
0.0428825
0.0425147
0.0421611
0.0418219
0.0414977
0.0411888
0.0408954
0.040618
0.0403567
0.0401118
0.0398836
0.0396722
0.0394779
0.0393007
0.0391409
0.0389985
0.0388738
0.0387666
0.0386772
0.0386056
0.0385519
0.0385161
0.0384981
0.0384981
0.0385161
0.0385519
0.0386056
0.0386772
0.0387666
0.0388737
0.0389985
0.0391409
0.0393007
0.0444616
0.0440602
0.0436728
0.0432993
0.0429401
0.0425957
0.0422664
0.0419526
0.0416546
0.0413728
0.0411074
0.0408586
0.0406268
0.040412
0.0402146
0.0400346
0.0398722
0.0397275
0.0396007
0.0394919
0.0394011
0.0393283
0.0392737
0.0392373
0.0392191
0.0392191
0.0392373
0.0392737
0.0393283
0.039401
0.0394919
0.0396007
0.0397275
0.0398721
0.0400345
0.0452782
0.0448707
0.0444773
0.044098
0.0437332
0.0433834
0.043049
0.0427303
0.0424276
0.0421414
0.0418718
0.0416191
0.0413836
0.0411654
0.0409648
0.040782
0.040617
0.0404701
0.0403412
0.0402307
0.0401384
0.0400645
0.040009
0.039972
0.0399535
0.0399535
0.039972
0.040009
0.0400645
0.0401384
0.0402306
0.0403412
0.04047
0.040617
0.0461094
0.0456956
0.0452962
0.044911
0.0445406
0.0441854
0.0438457
0.0435221
0.0432147
0.0429239
0.0426501
0.0423934
0.0421542
0.0419326
0.0417289
0.0415432
0.0413756
0.0412263
0.0410955
0.0409831
0.0408894
0.0408143
0.040758
0.0407204
0.0407016
0.0407016
0.0407204
0.040758
0.0408143
0.0408894
0.0409831
0.0410954
0.0412263
0.0413755
0.0469556
0.0465355
0.0461299
0.0457388
0.0453626
0.0450019
0.0446569
0.0443282
0.044016
0.0437207
0.0434426
0.0431819
0.042939
0.0427139
0.042507
0.0423183
0.0421481
0.0419965
0.0418636
0.0417495
0.0416543
0.041578
0.0415208
0.0414826
0.0414635
0.0414635
0.0414826
0.0415208
0.041578
0.0416543
0.0417495
0.0418636
0.0419965
0.0421481
0.0478171
0.0473905
0.0469786
0.0465815
0.0461995
0.0458331
0.0454828
0.045149
0.0448319
0.044532
0.0442496
0.0439848
0.0437381
0.0435095
0.0432993
0.0431077
0.0429349
0.0427809
0.0426459
0.04253
0.0424333
0.0423559
0.0422977
0.042259
0.0422396
0.0422396
0.042259
0.0422977
0.0423559
0.0424333
0.04253
0.0426459
0.0427809
0.0429348
0.0486942
0.048261
0.0478428
0.0474394
0.0470515
0.0466795
0.0463237
0.0459847
0.0456627
0.0453582
0.0450713
0.0448024
0.0445518
0.0443197
0.0441062
0.0439117
0.0437361
0.0435797
0.0434426
0.0433249
0.0432267
0.0431481
0.043089
0.0430497
0.04303
0.04303
0.0430497
0.043089
0.0431481
0.0432267
0.0433249
0.0434426
0.0435797
0.0495873
0.0491474
0.0487227
0.0483131
0.0479191
0.0475413
0.04718
0.0468357
0.0465087
0.0461994
0.0459081
0.045635
0.0453805
0.0451448
0.044928
0.0447304
0.0445521
0.0443933
0.044254
0.0441345
0.0440348
0.0439549
0.043895
0.043855
0.043835
0.043835
0.043855
0.043895
0.0439549
0.0440348
0.0441345
0.044254
0.0443932
0.0504968
0.0500501
0.0496187
0.0492027
0.0488026
0.0484189
0.048052
0.0477023
0.0473702
0.0470561
0.0467602
0.0464829
0.0462244
0.045985
0.0457649
0.0455642
0.0453831
0.0452218
0.0450805
0.0449591
0.0448578
0.0447767
0.0447158
0.0446752
0.0446549
0.0446549
0.0446752
0.0447158
0.0447767
0.0448578
0.044959
0.0450804
0.0514231
0.0509693
0.0505312
0.0501088
0.0497024
0.0493127
0.0489401
0.0485849
0.0482476
0.0479286
0.0476281
0.0473464
0.0470839
0.0468408
0.0466172
0.0464134
0.0462295
0.0460657
0.0459222
0.0457989
0.0456961
0.0456137
0.0455519
0.0455106
0.04549
0.04549
0.0455106
0.0455518
0.0456137
0.045696
0.0457989
0.0459221
0.0523665
0.0519057
0.0514607
0.0510316
0.0506189
0.0502231
0.0498446
0.0494838
0.0491413
0.0488172
0.048512
0.048226
0.0479594
0.0477124
0.0474854
0.0472784
0.0470917
0.0469253
0.0467795
0.0466543
0.0465499
0.0464663
0.0464035
0.0463616
0.0463406
0.0463406
0.0463616
0.0464035
0.0464662
0.0465499
0.0466543
0.0467795
0.0533277
0.0528596
0.0524076
0.0519717
0.0515525
0.0511504
0.0507659
0.0503995
0.0500516
0.0497224
0.0494124
0.0491219
0.0488511
0.0486003
0.0483697
0.0481595
0.0479699
0.047801
0.0476529
0.0475258
0.0474197
0.0473347
0.047271
0.0472285
0.0472072
0.0472072
0.0472285
0.047271
0.0473347
0.0474197
0.0475257
0.0476528
0.0543069
0.0538314
0.0533722
0.0529294
0.0525036
0.0520951
0.0517046
0.0513324
0.050979
0.0506446
0.0503298
0.0500347
0.0497596
0.0495049
0.0492707
0.0490572
0.0488646
0.048693
0.0485426
0.0484135
0.0483058
0.0482195
0.0481548
0.0481116
0.04809
0.04809
0.0481116
0.0481548
0.0482195
0.0483058
0.0484135
0.0485426
0.0553048
0.0548217
0.0543552
0.0539053
0.0534727
0.0530578
0.052661
0.0522829
0.0519239
0.0515842
0.0512644
0.0509646
0.0506852
0.0504265
0.0501886
0.0499717
0.0497761
0.0496019
0.0494491
0.049318
0.0492086
0.049121
0.0490553
0.0490114
0.0489895
0.0489895
0.0490114
0.0490553
0.049121
0.0492086
0.049318
0.0494491
0.0563218
0.055831
0.055357
0.0548999
0.0544603
0.0540387
0.0536356
0.0532515
0.0528867
0.0525417
0.0522168
0.0519122
0.0516284
0.0513656
0.0511239
0.0509037
0.050705
0.050528
0.0503729
0.0502397
0.0501286
0.0500396
0.0499728
0.0499283
0.049906
0.049906
0.0499283
0.0499728
0.0500396
0.0501286
0.0502397
0.0503728
0.0573585
0.0568597
0.056378
0.0559136
0.0554669
0.0550386
0.054629
0.0542387
0.0538681
0.0535175
0.0531874
0.052878
0.0525897
0.0523227
0.0520772
0.0518534
0.0516516
0.0514718
0.0513142
0.051179
0.0510661
0.0509758
0.0509079
0.0508627
0.05084
0.05084
0.0508627
0.0509079
0.0509757
0.0510661
0.051179
0.0513142
0.0584154
0.0579085
0.057419
0.056947
0.0564931
0.0560578
0.0556416
0.055245
0.0548684
0.0545122
0.0541767
0.0538624
0.0535695
0.0532982
0.0530488
0.0528215
0.0526164
0.0524338
0.0522737
0.0521363
0.0520217
0.0519299
0.051861
0.051815
0.0517921
0.0517921
0.051815
0.051861
0.0519299
0.0520217
0.0521363
0.0522737
0.0594931
0.0589779
0.0584803
0.0580006
0.0575393
0.0570969
0.0566739
0.0562709
0.0558881
0.0555262
0.0551853
0.0548659
0.0545683
0.0542926
0.0540393
0.0538083
0.0536
0.0534145
0.0532518
0.0531123
0.0529958
0.0529026
0.0528326
0.0527859
0.0527625
0.0527625
0.0527859
0.0528326
0.0529025
0.0529958
0.0531122
0.0532518
0.0605922
0.0600685
0.0595627
0.0590751
0.0586062
0.0581565
0.0577266
0.057317
0.056928
0.0565601
0.0562137
0.0558892
0.0555867
0.0553066
0.0550491
0.0548145
0.0546028
0.0544143
0.0542491
0.0541073
0.0539889
0.0538942
0.0538231
0.0537757
0.0537519
0.0537519
0.0537757
0.0538231
0.0538942
0.0539889
0.0541072
0.054249
0.0617134
0.0611809
0.0606668
0.0601711
0.0596944
0.0592372
0.0588002
0.0583838
0.0579885
0.0576146
0.0572625
0.0569326
0.0566252
0.0563406
0.0560789
0.0558405
0.0556254
0.0554338
0.055266
0.0551219
0.0550017
0.0549054
0.0548332
0.054785
0.0547609
0.0547609
0.054785
0.0548332
0.0549054
0.0550016
0.0551219
0.0552659
0.0628573
0.0623159
0.0617931
0.0612891
0.0608044
0.0603397
0.0598954
0.0594721
0.0590702
0.0586901
0.0583322
0.0579969
0.0576845
0.0573952
0.0571293
0.0568869
0.0566683
0.0564737
0.0563031
0.0561567
0.0560345
0.0559367
0.0558633
0.0558143
0.0557898
0.0557898
0.0558143
0.0558633
0.0559367
0.0560345
0.0561566
0.0563031
0.0640246
0.063474
0.0629424
0.0624299
0.0619371
0.0614645
0.0610128
0.0605824
0.0601738
0.0597874
0.0594235
0.0590827
0.0587651
0.058471
0.0582007
0.0579544
0.0577322
0.0575344
0.057361
0.0572122
0.0570881
0.0569887
0.0569141
0.0568643
0.0568394
0.0568394
0.0568643
0.0569141
0.0569887
0.0570881
0.0572122
0.057361
0.065216
0.064656
0.0641153
0.0635941
0.0630929
0.0626124
0.062153
0.0617154
0.0612999
0.060907
0.0605371
0.0601905
0.0598677
0.0595687
0.0592939
0.0590435
0.0588177
0.0586166
0.0584404
0.0582892
0.058163
0.0580619
0.0579861
0.0579356
0.0579103
0.0579103
0.0579356
0.0579861
0.0580619
0.058163
0.0582891
0.0584404
0.0664323
0.0658627
0.0653127
0.0647825
0.0642728
0.0637841
0.0633169
0.0628718
0.0624492
0.0620497
0.0616735
0.0613212
0.0609929
0.0606889
0.0604095
0.060155
0.0599254
0.059721
0.0595419
0.0593881
0.0592599
0.0591572
0.0590801
0.0590287
0.059003
0.059003
0.0590287
0.0590801
0.0591571
0.0592598
0.0593881
0.0676742
0.0670947
0.0665352
0.0659959
0.0654774
0.0649802
0.064505
0.0640523
0.0636225
0.0632162
0.0628336
0.0624753
0.0621414
0.0618323
0.0615483
0.0612895
0.061056
0.0608482
0.0606661
0.0605098
0.0603794
0.060275
0.0601966
0.0601444
0.0601182
0.0601182
0.0601444
0.0601966
0.060275
0.0603794
0.0605097
0.0689427
0.068353
0.0677837
0.067235
0.0667074
0.0662016
0.0657182
0.0652576
0.0648205
0.0644071
0.0640181
0.0636536
0.063314
0.0629997
0.0627108
0.0624476
0.0622103
0.0619989
0.0618138
0.0616548
0.0615222
0.0614161
0.0613364
0.0612833
0.0612567
0.0612567
0.0612833
0.0613364
0.0614161
0.0615222
0.0702384
0.0696383
0.069059
0.0685006
0.0679638
0.0674492
0.0669573
0.0664887
0.0660439
0.0656234
0.0652276
0.0648569
0.0645115
0.0641918
0.063898
0.0636303
0.0633889
0.063174
0.0629856
0.062824
0.0626892
0.0625813
0.0625002
0.0624462
0.0624192
0.0624192
0.0624462
0.0625002
0.0625812
0.0626892
0.0715624
0.0709515
0.0703619
0.0697937
0.0692473
0.0687236
0.0682231
0.0677462
0.0672937
0.0668658
0.0664631
0.0660859
0.0657346
0.0654093
0.0651104
0.0648381
0.0645926
0.064374
0.0641825
0.0640181
0.063881
0.0637712
0.0636888
0.0636339
0.0636064
0.0636064
0.0636339
0.0636888
0.0637712
0.063881
0.0729154
0.0722936
0.0716934
0.071115
0.0705589
0.0700259
0.0695164
0.0690311
0.0685706
0.0681352
0.0677254
0.0673416
0.0669841
0.0666532
0.0663491
0.0660721
0.0658223
0.0655999
0.0654051
0.0652379
0.0650984
0.0649868
0.064903
0.0648471
0.0648191
0.0648191
0.0648471
0.0649029
0.0649867
0.0650984
0.0742986
0.0736655
0.0730545
0.0724656
0.0718995
0.0713568
0.0708382
0.0703443
0.0698755
0.0694324
0.0690153
0.0686248
0.0682609
0.0679242
0.0676148
0.0673329
0.0670788
0.0668525
0.0666543
0.0664842
0.0663423
0.0662287
0.0661435
0.0660866
0.0660582
0.0660582
0.0660866
0.0661435
0.0662287
0.0663423
0.0757129
0.0750682
0.074446
0.0738464
0.07327
0.0727175
0.0721895
0.0716866
0.0712094
0.0707584
0.0703338
0.0699363
0.069566
0.0692233
0.0689084
0.0686216
0.068363
0.0681327
0.067931
0.0677579
0.0676136
0.067498
0.0674113
0.0673534
0.0673245
0.0673245
0.0673534
0.0674113
0.067498
0.0676136
0.0771593
0.0765027
0.075869
0.0752584
0.0746714
0.0741088
0.0735712
0.0730592
0.0725733
0.0721141
0.0716819
0.0712772
0.0709002
0.0705514
0.0702309
0.0699389
0.0696757
0.0694414
0.0692361
0.06906
0.0689131
0.0687955
0.0687072
0.0686483
0.0686189
0.0686189
0.0686483
0.0687072
0.0687955
0.0689131
0.078639
0.0779702
0.0773247
0.0767027
0.0761049
0.0755319
0.0749843
0.0744629
0.0739681
0.0735005
0.0730604
0.0726484
0.0722646
0.0719095
0.0715832
0.071286
0.0710181
0.0707796
0.0705706
0.0703913
0.0702418
0.0701221
0.0700323
0.0699724
0.0699424
0.0699424
0.0699723
0.0700323
0.0701221
0.0702418
0.0801531
0.0794717
0.0788141
0.0781804
0.0775714
0.0769877
0.07643
0.0758989
0.075395
0.0749187
0.0744706
0.0740509
0.0736602
0.0732986
0.0729663
0.0726638
0.072391
0.0721482
0.0719355
0.0717529
0.0716007
0.0714789
0.0713874
0.0713264
0.0712959
0.0712959
0.0713264
0.0713874
0.0714789
0.0716007
0.0817028
0.0810084
0.0803383
0.0796927
0.0790722
0.0784775
0.0779093
0.0773683
0.0768549
0.0763698
0.0759134
0.075486
0.075088
0.0747197
0.0743814
0.0740733
0.0737955
0.0735483
0.0733317
0.0731459
0.0729909
0.0728668
0.0727737
0.0727116
0.0726806
0.0726806
0.0727116
0.0727737
0.0728668
0.0729909
0.0832894
0.0825816
0.0818987
0.0812408
0.0806084
0.0800024
0.0794235
0.0788722
0.0783492
0.0778549
0.0773899
0.0769546
0.0765492
0.0761741
0.0758295
0.0755157
0.0752328
0.074981
0.0747604
0.0745712
0.0744134
0.074287
0.0741922
0.074129
0.0740974
0.0740974
0.074129
0.0741922
0.074287
0.0744134
0.084914
0.0841926
0.0834965
0.0828259
0.0821813
0.0815637
0.0809737
0.0804119
0.0798789
0.0793753
0.0789015
0.078458
0.078045
0.0776628
0.0773118
0.0769921
0.076704
0.0764475
0.0762228
0.0760301
0.0758693
0.0757406
0.0756441
0.0755797
0.0755475
0.0755475
0.0755797
0.0756441
0.0757406
0.0758693
0.0865783
0.0858427
0.0851331
0.0844493
0.0837923
0.0831627
0.0825613
0.0819886
0.0814455
0.0809322
0.0804494
0.0799973
0.0795765
0.0791871
0.0788295
0.0785038
0.0782102
0.0779489
0.07772
0.0775237
0.0773599
0.0772288
0.0771305
0.0770649
0.0770321
0.0770321
0.0770649
0.0771305
0.0772288
0.0773599
0.0882834
0.0875334
0.0868097
0.0861125
0.0854426
0.0848007
0.0841875
0.0836038
0.0830501
0.0825269
0.0820347
0.081574
0.0811451
0.0807483
0.0803838
0.0800519
0.0797528
0.0794865
0.0792533
0.0790533
0.0788864
0.0787529
0.0786527
0.0785858
0.0785524
0.0785524
0.0785858
0.0786527
0.0787529
0.0788864
0.090031
0.089266
0.088528
0.087817
0.0871338
0.0864792
0.0858539
0.0852587
0.0846941
0.0841607
0.083659
0.0831894
0.0827522
0.0823477
0.0819762
0.0816379
0.081333
0.0810617
0.080824
0.0806201
0.0804501
0.080314
0.0802119
0.0801438
0.0801097
0.0801097
0.0801438
0.0802119
0.080314
0.0804501
0.0918226
0.0910423
0.0902894
0.0895641
0.0888672
0.0881996
0.0875619
0.0869549
0.0863791
0.0858352
0.0853236
0.0848448
0.084399
0.0839867
0.0836079
0.0832631
0.0829523
0.0826757
0.0824335
0.0822256
0.0820523
0.0819136
0.0818096
0.0817401
0.0817054
0.0817054
0.0817401
0.0818095
0.0819136
0.0820523
0.0936599
0.0928637
0.0920956
0.0913556
0.0906446
0.0899635
0.089313
0.0886938
0.0881066
0.0875518
0.0870301
0.0865418
0.0860872
0.0856667
0.0852805
0.0849289
0.0846121
0.0843301
0.0840831
0.0838712
0.0836946
0.0835532
0.0834471
0.0833763
0.0833409
0.0833409
0.0833763
0.0834471
0.0835532
0.0836946
0.0955446
0.0947321
0.0939481
0.093193
0.0924675
0.0917725
0.0911088
0.0904771
0.0898781
0.0893122
0.08878
0.0882819
0.0878182
0.0873894
0.0869956
0.086637
0.0863139
0.0860263
0.0857745
0.0855584
0.0853783
0.0852341
0.0851259
0.0850538
0.0850177
0.0850177
0.0850538
0.0851259
0.0852341
0.0853783
0.0974784
0.0966491
0.0958489
0.0950782
0.0943377
0.0936284
0.0929511
0.0923065
0.0916953
0.0911179
0.0905749
0.0900667
0.0895938
0.0891563
0.0887546
0.0883888
0.0880592
0.0877659
0.0875091
0.0872888
0.087105
0.086958
0.0868476
0.0867741
0.0867373
0.0867373
0.0867741
0.0868476
0.086958
0.087105
0.0994633
0.0986167
0.0977998
0.0970129
0.096257
0.095533
0.0948417
0.0941838
0.0935599
0.0929707
0.0924166
0.0918981
0.0914155
0.0909691
0.0905593
0.0901861
0.0898499
0.0895507
0.0892886
0.0890639
0.0888765
0.0887265
0.0886139
0.0885389
0.0885013
0.0885013
0.0885389
0.0886139
0.0887265
0.0888765
0.101501
0.100637
0.0998026
0.0989991
0.0982273
0.0974881
0.0967823
0.0961107
0.0954739
0.0948725
0.0943069
0.0937777
0.0932852
0.0928296
0.0924114
0.0920306
0.0916875
0.0913822
0.0911149
0.0908855
0.0906943
0.0905413
0.0904265
0.0903499
0.0903116
0.0903116
0.0903499
0.0904265
0.0905413
0.0906943
0.103594
0.102712
0.10186
0.101039
0.100251
0.0994957
0.098775
0.0980893
0.0974391
0.0968251
0.0962477
0.0957075
0.0952047
0.0947397
0.0943128
0.0939242
0.093574
0.0932624
0.0929896
0.0927556
0.0925604
0.0924042
0.0922871
0.0922089
0.0921698
0.0921698
0.0922089
0.0922871
0.0924042
0.0925604
0.103973
0.103134
0.102329
0.101558
0.100822
0.100122
0.0994575
0.0988305
0.098241
0.0976894
0.097176
0.0967013
0.0944766
0.0943172
0.0941976
0.0941179
0.094078
0.094078
0.0941179
0.0941976
0.0943172
0.0944766
0.0238307
0.0237967
0.0237713
0.0237544
0.0237459
0.0237459
0.0237544
0.0237713
0.0237967
0.0238307
0.0242042
0.0241594
0.0241236
0.0240968
0.024079
0.0240701
0.0240701
0.024079
0.0240968
0.0241236
0.0241594
0.0242042
0.0242582
0.0243213
0.0243938
0.0244756
0.0245669
0.0246677
0.0247782
0.0248985
0.0250286
0.0246759
0.0246097
0.0245531
0.0245061
0.0244685
0.0244404
0.0244216
0.0244123
0.0244123
0.0244216
0.0244404
0.0244685
0.0245061
0.0245531
0.0246097
0.0246759
0.0247517
0.0248374
0.0249328
0.0250382
0.0251536
0.0252791
0.0254148
0.0255606
0.0257168
0.0258834
0.0260603
0.0253157
0.0252161
0.0251268
0.0250476
0.0249785
0.0249194
0.0248702
0.0248309
0.0248015
0.0247819
0.0247721
0.0247721
0.0247819
0.0248015
0.0248309
0.0248702
0.0249194
0.0249785
0.0250476
0.0251268
0.0252161
0.0253157
0.0254255
0.0255456
0.0256761
0.0258171
0.0259686
0.0261307
0.0263033
0.0264865
0.0266803
0.0268847
0.0270995
0.0259537
0.025829
0.0257149
0.0256114
0.0255185
0.0254361
0.0253641
0.0253026
0.0252513
0.0252104
0.0251797
0.0251593
0.0251491
0.0251491
0.0251593
0.0251797
0.0252104
0.0252513
0.0253026
0.0253641
0.0254361
0.0255185
0.0256114
0.0257149
0.025829
0.0259537
0.0260891
0.0262353
0.0263922
0.02656
0.0267385
0.0269278
0.0271279
0.0273387
0.0275602
0.0277922
0.0280347
0.0282884
0.0266688
0.0265176
0.0263775
0.0262483
0.0261301
0.0260228
0.0259264
0.0258409
0.0257661
0.0257022
0.0256489
0.0256064
0.0255745
0.0255532
0.0255426
0.0255426
0.0255532
0.0255745
0.0256064
0.0256489
0.0257022
0.0257661
0.0258409
0.0259264
0.0260228
0.0261301
0.0262483
0.0263775
0.0265177
0.0266689
0.0268311
0.0270043
0.0271886
0.0273839
0.0275901
0.0278072
0.0280351
0.0282736
0.0285227
0.0287831
0.0272847
0.0271174
0.0269613
0.0268165
0.026683
0.0265608
0.0264498
0.02635
0.0262615
0.026184
0.0261178
0.0260626
0.0260185
0.0259854
0.0259634
0.0259523
0.0259523
0.0259634
0.0259854
0.0260185
0.0260626
0.0261178
0.0261841
0.0262615
0.02635
0.0264498
0.0265608
0.026683
0.0268165
0.0269613
0.0271174
0.0272848
0.0274634
0.0276532
0.0278543
0.0280665
0.0282897
0.0285238
0.0287687
0.0290243
0.0292911
0.0279368
0.0277529
0.0275806
0.0274198
0.0272705
0.0271328
0.0270066
0.026892
0.026789
0.0266975
0.0266175
0.0265489
0.0264919
0.0264462
0.026412
0.0263892
0.0263778
0.0263778
0.0263892
0.026412
0.0264462
0.0264919
0.0265489
0.0266175
0.0266975
0.026789
0.0268921
0.0270066
0.0271328
0.0272705
0.0274198
0.0275806
0.0277529
0.0279368
0.0281321
0.0283388
0.0285567
0.0287859
0.0290261
0.0292773
0.0295391
0.0298124
0.0286248
0.0284242
0.0282353
0.0280581
0.0278926
0.027739
0.0275972
0.0274673
0.0273492
0.0272429
0.0271485
0.027066
0.0269953
0.0269364
0.0268893
0.0268539
0.0268304
0.0268186
0.0268186
0.0268304
0.0268539
0.0268893
0.0269364
0.0269953
0.027066
0.0271486
0.0272429
0.0273492
0.0274673
0.0275972
0.027739
0.0278926
0.0280581
0.0282353
0.0284242
0.0286248
0.028837
0.0290606
0.0292956
0.0295418
0.029799
0.0300671
0.0303466
0.0293487
0.0291312
0.0289254
0.0287315
0.0285496
0.0283796
0.0282217
0.028076
0.0279423
0.0278208
0.0277115
0.0276143
0.0275293
0.0274565
0.0273958
0.0273472
0.0273108
0.0272866
0.0272744
0.0272744
0.0272866
0.0273108
0.0273472
0.0273958
0.0274565
0.0275293
0.0276143
0.0277115
0.0278208
0.0279423
0.028076
0.0282218
0.0283796
0.0285496
0.0287315
0.0289254
0.0291312
0.0293487
0.0295779
0.0298186
0.0300706
0.0303338
0.0306079
0.0308935
0.0298738
0.029651
0.0294402
0.0292414
0.0290548
0.0288805
0.0287184
0.0285688
0.0284315
0.0283067
0.0281943
0.0280945
0.0280071
0.0279321
0.0278697
0.0278198
0.0277823
0.0277574
0.0277449
0.0277449
0.0277574
0.0277823
0.0278198
0.0278697
0.0279321
0.0280071
0.0280945
0.0281944
0.0283067
0.0284315
0.0285688
0.0287185
0.0288805
0.0290548
0.0292414
0.0294402
0.029651
0.0298738
0.0301084
0.0303546
0.0306124
0.0308814
0.0311615
0.0314531
0.0306518
0.0304119
0.030184
0.0299682
0.0297647
0.0295736
0.0293949
0.0292289
0.0290754
0.0289346
0.0288065
0.0286912
0.0285887
0.0284989
0.028422
0.0283579
0.0283066
0.0282681
0.0282425
0.0282296
0.0282296
0.0282425
0.0282681
0.0283066
0.0283579
0.028422
0.028499
0.0285887
0.0286912
0.0288066
0.0289346
0.0290754
0.0292289
0.0293949
0.0295736
0.0297647
0.0299682
0.030184
0.0304119
0.0306518
0.0309036
0.0311669
0.0314417
0.0317276
0.0320253
0.0314652
0.0312081
0.030963
0.03073
0.0305094
0.0303012
0.0301056
0.0299228
0.0297527
0.0295955
0.0294513
0.0293201
0.0292019
0.0290968
0.0290047
0.0289258
0.02886
0.0288074
0.0287679
0.0287416
0.0287284
0.0287285
0.0287416
0.0287679
0.0288074
0.0288601
0.0289258
0.0290047
0.0290968
0.0292019
0.0293201
0.0294513
0.0295956
0.0297527
0.0299228
0.0301056
0.0303012
0.0305094
0.03073
0.030963
0.0312081
0.0314653
0.0317342
0.0320146
0.0323063
0.0326098
0.0320395
0.0317771
0.0315268
0.0312889
0.0310635
0.0308507
0.0306508
0.0304638
0.0302899
0.0301291
0.0299814
0.0298471
0.0297261
0.0296184
0.0295241
0.0294433
0.0293759
0.029322
0.0292815
0.0292546
0.0292411
0.0292411
0.0292546
0.0292815
0.029322
0.0293759
0.0294433
0.0295242
0.0296184
0.0297261
0.0298471
0.0299814
0.0301291
0.0302899
0.0304638
0.0306508
0.0308508
0.0310635
0.0312889
0.0315269
0.0317772
0.0320396
0.0323139
0.0325999
0.0328974
0.0332066
0.0329061
0.0326264
0.0323587
0.0321034
0.0318605
0.0316304
0.0314132
0.0312089
0.0310179
0.0308401
0.0306757
0.0305248
0.0303874
0.0302636
0.0301535
0.030057
0.0299743
0.0299053
0.0298501
0.0298087
0.0297811
0.0297673
0.0297673
0.0297811
0.0298087
0.0298501
0.0299053
0.0299743
0.030057
0.0301535
0.0302636
0.0303874
0.0305248
0.0306757
0.0308401
0.0310179
0.031209
0.0314132
0.0316304
0.0318606
0.0321034
0.0323588
0.0326264
0.0329062
0.0331977
0.0335008
0.0338158
0.0335108
0.0332257
0.0329529
0.0326925
0.0324448
0.03221
0.0319883
0.0317799
0.0315848
0.0314033
0.0312354
0.0310812
0.0309408
0.0308143
0.0307017
0.0306031
0.0305185
0.030448
0.0303915
0.0303492
0.0303209
0.0303068
0.0303068
0.030321
0.0303492
0.0303916
0.030448
0.0305185
0.0306031
0.0307017
0.0308143
0.0309408
0.0310812
0.0312354
0.0314033
0.0315849
0.0317799
0.0319884
0.0322101
0.0324449
0.0326925
0.0329529
0.0332258
0.0335108
0.0338078
0.0341165
0.0344372
0.0341278
0.0338374
0.0335595
0.0332941
0.0330417
0.0328023
0.0325762
0.0323636
0.0321646
0.0319793
0.031808
0.0316506
0.0315072
0.031378
0.031263
0.0311623
0.0310759
0.0310039
0.0309462
0.0309029
0.030874
0.0308596
0.0308596
0.030874
0.0309029
0.0309462
0.0310039
0.0310759
0.0311623
0.0312631
0.031378
0.0315072
0.0316506
0.031808
0.0319794
0.0321646
0.0323636
0.0325763
0.0328023
0.0330417
0.0332942
0.0335595
0.0338375
0.0341279
0.0344303
0.0347445
0.0350709
0.0347572
0.0344616
0.0341785
0.0339082
0.033651
0.0334071
0.0331767
0.03296
0.032757
0.0325681
0.0323933
0.0322328
0.0320865
0.0319547
0.0318373
0.0317345
0.0316463
0.0315727
0.0315139
0.0314697
0.0314402
0.0314255
0.0314255
0.0314402
0.0314697
0.0315139
0.0315728
0.0316463
0.0317345
0.0318373
0.0319547
0.0320865
0.0322328
0.0323933
0.0325682
0.0327571
0.03296
0.0331767
0.0334072
0.0336511
0.0339083
0.0341786
0.0344616
0.0347572
0.0350651
0.0353849
0.0357169
0.035399
0.0350981
0.03481
0.0345348
0.0342729
0.0340245
0.0337897
0.0335689
0.0333621
0.0331696
0.0329914
0.0328277
0.0326786
0.0325441
0.0324244
0.0323196
0.0322296
0.0321545
0.0320945
0.0320494
0.0320193
0.0320043
0.0320043
0.0320193
0.0320494
0.0320945
0.0321546
0.0322296
0.0323196
0.0324245
0.0325441
0.0326786
0.0328277
0.0329914
0.0331696
0.0333622
0.0335689
0.0337898
0.0340245
0.034273
0.0345349
0.03481
0.0350982
0.035399
0.0357122
0.0360375
0.0363752
0.0360531
0.0357471
0.0354539
0.0351739
0.0349073
0.0346543
0.0344153
0.0341904
0.0339798
0.0337837
0.0336021
0.0334353
0.0332834
0.0331463
0.0330243
0.0329174
0.0328257
0.0327492
0.0326879
0.032642
0.0326113
0.032596
0.032596
0.0326113
0.032642
0.0326879
0.0327492
0.0328257
0.0329175
0.0330243
0.0331463
0.0332834
0.0334353
0.0336022
0.0337837
0.0339799
0.0341905
0.0344154
0.0346544
0.0349073
0.0351739
0.0354539
0.0357471
0.0360532
0.0363718
0.0367026
0.0370459
0.0367198
0.0364085
0.0361103
0.0358254
0.0355541
0.0352967
0.0350535
0.0348245
0.0346101
0.0344104
0.0342255
0.0340556
0.0339008
0.0337612
0.033637
0.033528
0.0334346
0.0333566
0.0332942
0.0332473
0.0332161
0.0332005
0.0332005
0.0332161
0.0332473
0.0332942
0.0333566
0.0334346
0.0335281
0.033637
0.0337613
0.0339009
0.0340556
0.0342255
0.0344104
0.0346102
0.0348246
0.0350535
0.0352968
0.0355542
0.0358254
0.0361103
0.0364086
0.0367198
0.0370438
0.0373801
0.037729
0.0373989
0.0370825
0.0367792
0.0364895
0.0362135
0.0359517
0.0357042
0.0354712
0.035253
0.0350497
0.0348615
0.0346886
0.034531
0.0343889
0.0342623
0.0341514
0.0340562
0.0339768
0.0339132
0.0338655
0.0338337
0.0338177
0.0338177
0.0338337
0.0338655
0.0339132
0.0339768
0.0340562
0.0341514
0.0342623
0.0343889
0.034531
0.0346886
0.0348616
0.0350498
0.0352531
0.0354713
0.0357042
0.0359518
0.0362136
0.0364895
0.0367793
0.0370825
0.037399
0.0377283
0.0380701
0.0384247
0.0380907
0.037769
0.0374607
0.0371661
0.0368856
0.0366193
0.0363675
0.0361305
0.0359086
0.0357017
0.0355102
0.0353342
0.0351738
0.0350292
0.0349003
0.0347874
0.0346905
0.0346097
0.034545
0.0344964
0.034464
0.0344478
0.0344478
0.034464
0.0344964
0.034545
0.0346097
0.0346906
0.0347875
0.0349004
0.0350292
0.0351738
0.0353342
0.0355103
0.0357018
0.0359086
0.0361306
0.0363676
0.0366193
0.0368856
0.0371662
0.0374608
0.0377691
0.0380908
0.0384255
0.0387729
0.0391331
0.0387953
0.0384684
0.038155
0.0378555
0.0375703