/*--------------------------------*- C++ -*----------------------------------*\
  =========                 |
  \\      /  F ield         | OpenFOAM: The Open Source CFD Toolbox
   \\    /   O peration     | Website:  https://openfoam.org
    \\  /    A nd           | Version:  7
     \\/     M anipulation  |
\*---------------------------------------------------------------------------*/
FoamFile
{
    version     2.0;
    format      ascii;
    class       volVectorField;
    location    "236000";
    object      vorticity;
}
// * * * * * * * * * * * * * * * * * * * * * * * * * * * * * * * * * * * * * //

dimensions      [0 0 -1 0 0 0 0];

internalField   nonuniform List<vector> 
4825
(
(0.0241354 0.0221658 1.90188e-17)
(0.023992 0.0218783 1.78269e-17)
(0.0246287 0.0226464 1.80834e-17)
(0.0244982 0.0223383 1.79161e-17)
(0.0249585 0.0214011 2.24199e-17)
(0.0253942 0.0204589 8.23681e-18)
(0.0258062 0.0195133 1.27261e-17)
(0.0251361 0.0231405 1.80495e-17)
(0.0250184 0.0228111 1.82256e-17)
(0.0254882 0.0218536 2.38165e-17)
(0.0259332 0.020891 1.05205e-17)
(0.0263542 0.0199249 1.33499e-17)
(0.0256601 0.0236503 1.82751e-17)
(0.0255534 0.0232973 1.92884e-17)
(0.0260328 0.0223188 2.39711e-17)
(0.0264874 0.0213351 1.18854e-17)
(0.0269174 0.0203479 1.3139e-17)
(0.0262034 0.0241786 1.88553e-17)
(0.0261034 0.0237976 2.10407e-17)
(0.0265927 0.0227972 2.31133e-17)
(0.0270572 0.0217917 1.25953e-17)
(0.0274966 0.0207829 1.25596e-17)
(0.0267659 0.024726 1.97766e-17)
(0.02667 0.0243138 2.2627e-17)
(0.0271689 0.0232896 2.2027e-17)
(0.0276433 0.0222616 1.38067e-17)
(0.0280923 0.0212303 1.23106e-17)
(0.0273467 0.0252918 2.13323e-17)
(0.0272568 0.0248493 2.38293e-17)
(0.0277643 0.0237984 2.11976e-17)
(0.0282477 0.0227459 1.52556e-17)
(0.0287055 0.0216908 1.17272e-17)
(0.027946 0.0258758 2.2661e-17)
(0.027867 0.0254065 2.43586e-17)
(0.0283831 0.0243276 2.05676e-17)
(0.0288741 0.0232481 1.66895e-17)
(0.0293394 0.022167 1.08288e-17)
(0.0285643 0.0264779 2.26786e-17)
(0.0284999 0.0259843 2.44505e-17)
(0.0290263 0.0248778 2.04602e-17)
(0.0295258 0.0237708 1.85032e-17)
(0.0299988 0.0226625 1.00711e-17)
(0.029202 0.0270984 2.16231e-17)
(0.0291536 0.0265807 2.44396e-17)
(0.029692 0.0254474 2.10885e-17)
(0.0302019 0.0243133 2.02532e-17)
(0.0306842 0.0231777 8.94893e-18)
(0.0298597 0.0277378 1.98989e-17)
(0.0298275 0.0271953 2.41783e-17)
(0.0303791 0.0260353 2.24264e-17)
(0.0309008 0.024874 2.21417e-17)
(0.0313936 0.023711 6.8664e-18)
(0.0305379 0.0283968 1.77334e-17)
(0.030522 0.0278283 2.3703e-17)
(0.0310874 0.0266412 2.39876e-17)
(0.0316217 0.0254523 2.39972e-17)
(0.0321261 0.0242617 5.961e-18)
(0.0312376 0.0290763 1.56421e-17)
(0.0312377 0.0284805 2.3892e-17)
(0.0318174 0.0272657 2.59046e-17)
(0.0323649 0.0260486 2.5308e-17)
(0.0328816 0.0248296 5.84886e-18)
(0.0319596 0.0297772 1.42105e-17)
(0.0319756 0.0291527 2.41802e-17)
(0.03257 0.0279093 2.7248e-17)
(0.0331312 0.0266632 2.59555e-17)
(0.032705 0.0305006 1.33884e-17)
(0.032737 0.0298462 2.41938e-17)
(0.0333464 0.0285731 2.75322e-17)
(0.0339215 0.0272971 2.77212e-17)
(0.0334749 0.0312476 1.2432e-17)
(0.0335232 0.0305622 2.42216e-17)
(0.0341477 0.0292583 2.71621e-17)
(0.0347372 0.0279513 2.96691e-17)
(0.0342708 0.0320195 1.10028e-17)
(0.0343355 0.0313019 2.41485e-17)
(0.0349755 0.029966 2.74133e-17)
(0.0350939 0.0328178 1.02106e-17)
(0.0351754 0.0320667 2.44227e-17)
(0.0358313 0.0306975 2.80329e-17)
(0.0359459 0.0336437 9.65901e-18)
(0.0360444 0.032858 2.49371e-17)
(0.0368281 0.0344989 8.77547e-18)
(0.0369442 0.0336772 2.58951e-17)
(0.0377425 0.035385 7.95763e-18)
(0.0378765 0.034526 2.69416e-17)
(0.0386906 0.0363037 7.25727e-18)
(0.0388431 0.0354061 2.76096e-17)
(0.0396744 0.0372568 4.83412e-18)
(0.0398459 0.0363191 2.76414e-17)
(0.040696 0.0382463 1.0209e-18)
(-0.0162285 0.0180702 9.87042e-18)
(-0.0162109 0.0177608 1.25929e-18)
(-0.0155344 0.0180891 2.20338e-18)
(-0.014855 0.0183999 -3.02246e-18)
(-0.0141729 0.0186939 1.22386e-18)
(-0.0134885 0.0189716 -3.58789e-19)
(-0.0128021 0.0192334 -7.89464e-18)
(-0.012114 0.0194795 -7.34379e-18)
(-0.0114247 0.0197103 -8.59242e-18)
(-0.0107343 0.019926 -8.88702e-18)
(-0.0100431 0.0201269 -8.37663e-18)
(-0.00935132 0.0203133 -6.4936e-18)
(-0.00865907 0.0204853 1.50293e-18)
(-0.0079665 0.0206433 1.09213e-18)
(-0.00727373 0.0207874 -4.72853e-18)
(-0.00658085 0.0209178 -1.44679e-17)
(-0.00588792 0.0210346 -1.45375e-17)
(-0.00519501 0.0211381 -1.46149e-17)
(-0.00450213 0.0212283 -8.86029e-18)
(-0.00380932 0.0213055 -6.4677e-18)
(-0.0165629 0.0184101 9.676e-18)
(-0.0165294 0.0181108 2.59504e-18)
(-0.0158394 0.0184463 3.55832e-18)
(-0.0151465 0.0187637 -2.98719e-18)
(-0.0144508 0.0190641 2.32722e-18)
(-0.0137528 0.0193478 -1.09416e-18)
(-0.0130527 0.0196151 -8.34662e-18)
(-0.0123511 0.0198665 -8.04955e-18)
(-0.0116481 0.0201022 -8.64011e-18)
(-0.0109441 0.0203225 -8.24462e-18)
(-0.0102392 0.0205277 -9.18125e-18)
(-0.00953382 0.020718 -7.06088e-18)
(-0.00882796 0.0208937 1.50723e-18)
(-0.00812181 0.021055 1.7176e-19)
(-0.00741546 0.0212021 -5.17742e-18)
(-0.00670903 0.0213352 -1.40257e-17)
(-0.00600256 0.0214545 -1.3101e-17)
(-0.00529612 0.0215602 -1.36332e-17)
(-0.00458973 0.0216523 -8.81062e-18)
(-0.00388342 0.021731 -5.96545e-18)
(-0.0169048 0.0187578 7.81548e-18)
(-0.016855 0.0184687 3.89293e-18)
(-0.0161512 0.0188114 4.54241e-18)
(-0.0154445 0.0191357 -2.60305e-18)
(-0.0147349 0.0194426 3.43599e-18)
(-0.0140229 0.0197323 -7.20297e-19)
(-0.013309 0.0200053 -7.90239e-18)
(-0.0125933 0.0202621 -9.16276e-18)
(-0.0118764 0.0205027 -8.74798e-18)
(-0.0111584 0.0207277 -7.1733e-18)
(-0.0104397 0.0209372 -9.40886e-18)
(-0.00972033 0.0211315 -7.28783e-18)
(-0.00900056 0.0213109 1.24862e-18)
(-0.00828051 0.0214756 -1.02731e-18)
(-0.00756029 0.0216258 -5.76695e-18)
(-0.00684 0.0217617 -1.36533e-17)
(-0.0061197 0.0218835 -1.18615e-17)
(-0.00539943 0.0219914 -1.29211e-17)
(-0.00467924 0.0220854 -9.12407e-18)
(-0.00395913 0.0221658 -5.35036e-18)
(-0.0172543 0.0191136 6.44788e-18)
(-0.0171881 0.0188348 5.38802e-18)
(-0.0164701 0.0191849 5.14808e-18)
(-0.0157493 0.0195162 -2.58564e-18)
(-0.0150255 0.0198295 4.44583e-18)
(-0.0142992 0.0201255 3.16221e-19)
(-0.0135709 0.0204043 -7.43376e-18)
(-0.012841 0.0206665 -1.07003e-17)
(-0.0121098 0.0209122 -8.7061e-18)
(-0.0113776 0.021142 -5.93347e-18)
(-0.0106446 0.0213559 -9.83456e-18)
(-0.00991099 0.0215543 -7.62834e-18)
(-0.009177 0.0217374 9.82982e-19)
(-0.00844274 0.0219056 -1.87059e-18)
(-0.00770834 0.0220589 -6.2416e-18)
(-0.00697387 0.0221977 -1.34797e-17)
(-0.00623942 0.022322 -1.07828e-17)
(-0.00550502 0.0224321 -1.22949e-17)
(-0.00477071 0.0225281 -9.78522e-18)
(-0.00403651 0.0226101 -4.64146e-18)
(-0.0176118 0.0194778 6.11976e-18)
(-0.0175288 0.0192094 6.80845e-18)
(-0.0167964 0.019567 6.15248e-18)
(-0.016061 0.0199054 -3.11285e-18)
(-0.0153227 0.0202254 5.11112e-18)
(-0.0145818 0.0205276 1.47746e-18)
(-0.0138389 0.0208124 -7.52596e-18)
(-0.0130944 0.0210801 -1.2536e-17)
(-0.0123486 0.0213311 -9.00997e-18)
(-0.0116017 0.0215656 -5.13881e-18)
(-0.0108541 0.021784 -1.06022e-17)
(-0.010106 0.0219866 -7.87133e-18)
(-0.00935742 0.0221736 9.23566e-19)
(-0.00860863 0.0223452 -2.30515e-18)
(-0.00785971 0.0225017 -6.18096e-18)
(-0.00711076 0.0226434 -1.30862e-17)
(-0.00636183 0.0227703 -9.79675e-18)
(-0.00561298 0.0228826 -1.20158e-17)
(-0.00486424 0.0229806 -1.06368e-17)
(-0.00411562 0.0230643 -3.69949e-18)
(-0.0179775 0.0198506 5.73426e-18)
(-0.0178775 0.0195927 7.79322e-18)
(-0.0171304 0.019958 7.39067e-18)
(-0.0163801 0.0203036 -4.22504e-18)
(-0.0156268 0.0206305 5.61729e-18)
(-0.014871 0.0209391 2.30675e-18)
(-0.0141131 0.0212299 -8.18597e-18)
(-0.0133536 0.0215033 -1.39334e-17)
(-0.0125928 0.0217595 -9.21905e-18)
(-0.011831 0.021999 -4.76948e-18)
(-0.0110685 0.022222 -1.15573e-17)
(-0.0103054 0.0224288 -7.79403e-18)
(-0.00954197 0.0226197 9.23104e-19)
(-0.00877831 0.0227949 -2.45912e-18)
(-0.00801454 0.0229546 -5.90028e-18)
(-0.00725076 0.0230992 -1.2535e-17)
(-0.00648704 0.0232287 -9.02793e-18)
(-0.0057234 0.0233434 -1.21682e-17)
(-0.0049599 0.0234434 -1.14081e-17)
(-0.00419653 0.0235289 -2.66959e-18)
(-0.0183518 0.0202324 5.09212e-18)
(-0.0182346 0.0199852 7.95217e-18)
(-0.0174722 0.0203583 8.06874e-18)
(-0.0167067 0.0207113 -5.13278e-18)
(-0.0159381 0.0210451 6.44692e-18)
(-0.0151669 0.0213603 2.30109e-18)
(-0.0143937 0.0216572 -9.17845e-18)
(-0.0136189 0.0219364 -1.41256e-17)
(-0.0128428 0.022198 -9.27108e-18)
(-0.0120657 0.0224425 -4.78882e-18)
(-0.0112879 0.0226701 -1.27618e-17)
(-0.0105095 0.0228812 -7.29923e-18)
(-0.00973082 0.0230761 9.41379e-19)
(-0.00895193 0.0232549 -2.39037e-18)
(-0.00817297 0.023418 -5.62895e-18)
(-0.00739401 0.0235656 -1.17426e-17)
(-0.00661514 0.0236978 -8.49963e-18)
(-0.00583638 0.0238148 -1.28003e-17)
(-0.00505776 0.0239169 -1.2015e-17)
(-0.0042793 0.0240041 -1.80027e-18)
(-0.0187351 0.0206236 4.44408e-18)
(-0.0186002 0.0203872 7.8511e-18)
(-0.0178223 0.0207683 9.00818e-18)
(-0.0170411 0.0211288 -5.82592e-18)
(-0.0162568 0.0214697 6.85234e-18)
(-0.01547 0.0217915 1.48104e-18)
(-0.0146811 0.0220947 -9.87424e-18)
(-0.0138905 0.0223797 -1.3789e-17)
(-0.0130987 0.0226469 -9.06383e-18)
(-0.0123059 0.0228965 -5.05927e-18)
(-0.0115124 0.0231289 -1.42763e-17)
(-0.0107184 0.0233444 -6.4615e-18)
(-0.00992412 0.0235433 1.08864e-18)
(-0.00912965 0.0237258 -1.97888e-18)
(-0.00833512 0.0238923 -5.219e-18)
(-0.00754063 0.0240429 -1.09811e-17)
(-0.00674625 0.0241778 -8.16198e-18)
(-0.005952 0.0242972 -1.36405e-17)
(-0.00515792 0.0244014 -1.26008e-17)
(-0.00436402 0.0244904 -1.30057e-18)
(-0.00357029 0.0245643 -7.0122e-18)
(-0.00277671 0.0246234 -5.87188e-18)
(-0.00198327 0.0246676 -4.80157e-18)
(-0.00118992 0.024697 -1.14923e-17)
(-0.000396631 0.0247117 -1.61378e-18)
(0.000396636 0.0247117 8.98839e-18)
(0.00118992 0.024697 2.32371e-19)
(0.00198327 0.0246676 3.99185e-18)
(0.00277672 0.0246234 4.71056e-18)
(0.00357029 0.0245643 5.00911e-18)
(0.00436402 0.0244904 -5.73853e-19)
(0.00515793 0.0244014 -3.63979e-18)
(0.005952 0.0242972 7.08774e-18)
(0.00674625 0.0241778 2.95047e-19)
(0.00754064 0.0240429 -5.70073e-18)
(-0.0191276 0.0210245 4.20742e-18)
(-0.0189748 0.020799 7.68215e-18)
(-0.018181 0.0211883 9.65051e-18)
(-0.0173838 0.0215564 -6.15081e-18)
(-0.0165834 0.0219045 6.48249e-18)
(-0.0157804 0.0222332 1.24249e-19)
(-0.0149754 0.0225428 -9.44579e-18)
(-0.0141687 0.0228338 -1.31461e-17)
(-0.0133608 0.0231065 -8.57109e-18)
(-0.0125519 0.0233614 -5.3802e-18)
(-0.0117424 0.0235986 -1.55681e-17)
(-0.0109324 0.0238186 -5.84908e-18)
(-0.0101221 0.0240216 9.96354e-19)
(-0.00931162 0.024208 -9.12024e-19)
(-0.00850115 0.0243779 -4.98061e-18)
(-0.00769075 0.0245315 -1.05168e-17)
(-0.00688048 0.0246692 -8.02738e-18)
(-0.00607038 0.0247911 -1.42374e-17)
(-0.00526046 0.0248974 -1.33896e-17)
(-0.00445075 0.0249882 -1.42893e-18)
(-0.00364122 0.0250637 -6.35595e-18)
(-0.00283187 0.0251239 -6.22552e-18)
(-0.00202265 0.025169 -4.58703e-18)
(-0.00121355 0.025199 -1.09622e-17)
(-0.000404507 0.025214 -2.0693e-18)
(0.000404512 0.025214 8.16744e-18)
(0.00121355 0.025199 1.00048e-18)
(0.00202266 0.025169 4.79e-18)
(0.00283187 0.0251239 4.73631e-18)
(0.00364123 0.0250637 5.09142e-18)
(0.00445075 0.0249882 -1.13925e-18)
(0.00526047 0.0248974 -4.86007e-18)
(0.00607038 0.0247911 5.6251e-18)
(0.00688049 0.0246692 -1.23996e-18)
(0.00769076 0.0245315 -7.19806e-18)
(0.00850116 0.0243778 -3.85314e-19)
(0.00931162 0.024208 2.6781e-18)
(-0.0195297 0.0214354 3.72312e-18)
(-0.0193586 0.021221 7.7553e-18)
(-0.0185485 0.0216186 1.04286e-17)
(-0.0177348 0.0219946 -6.46718e-18)
(-0.0169179 0.0223501 5.9022e-18)
(-0.0160984 0.0226857 5.91041e-21)
(-0.0152769 0.0230019 -8.39991e-18)
(-0.0144537 0.023299 -1.31834e-17)
(-0.0136293 0.0235774 -8.13628e-18)
(-0.0128039 0.0238376 -5.69215e-18)
(-0.0119779 0.0240798 -1.60455e-17)
(-0.0111515 0.0243044 -5.41503e-18)
(-0.0103248 0.0245116 4.71745e-19)
(-0.009498 0.0247018 9.63439e-19)
(-0.00867121 0.0248752 -4.90429e-18)
(-0.00784451 0.025032 -1.09166e-17)
(-0.00701796 0.0251725 -7.97788e-18)
(-0.00619162 0.0252969 -1.39207e-17)
(-0.00536548 0.0254053 -1.41481e-17)
(-0.00453957 0.025498 -1.92897e-18)
(-0.00371387 0.025575 -5.7914e-18)
(-0.00288835 0.0256365 -6.4022e-18)
(-0.00206299 0.0256825 -4.1968e-18)
(-0.00123775 0.0257131 -1.02077e-17)
(-0.000412573 0.0257284 -2.3034e-18)
(0.000412577 0.0257284 7.49154e-18)
(0.00123775 0.0257131 2.25276e-18)
(0.002063 0.0256825 5.65312e-18)
(0.00288836 0.0256365 4.25653e-18)
(0.00371387 0.025575 5.47346e-18)
(0.00453958 0.025498 -3.55403e-19)
(0.00536549 0.0254053 -4.53643e-18)
(0.00619162 0.0252969 4.91141e-18)
(0.00701797 0.0251725 -2.06903e-18)
(0.00784451 0.025032 -8.02812e-18)
(0.00867121 0.0248752 -6.89121e-19)
(0.00949801 0.0247018 3.21643e-18)
(0.0103248 0.0245116 7.96335e-19)
(-0.0199417 0.0218568 3.45822e-18)
(-0.0197521 0.0216537 8.04721e-18)
(-0.0189253 0.0220597 1.10209e-17)
(-0.0180947 0.0224437 -6.35893e-18)
(-0.0172608 0.0228068 6.31922e-18)
(-0.0164244 0.0231495 1.18758e-18)
(-0.0155859 0.0234723 -8.11944e-18)
(-0.0147458 0.0237757 -1.37768e-17)
(-0.0139044 0.02406 -7.86144e-18)
(-0.0130622 0.0243256 -6.29804e-18)
(-0.0122193 0.0245729 -1.62068e-17)
(-0.011376 0.0248021 -5.45524e-18)
(-0.0105326 0.0250136 2.12081e-20)
(-0.00968898 0.0252077 2.82909e-18)
(-0.00884544 0.0253847 -5.14009e-18)
(-0.00800204 0.0255447 -1.14413e-17)
(-0.00715882 0.0256881 -7.86162e-18)
(-0.00631583 0.0258151 -1.33758e-17)
(-0.00547308 0.0259257 -1.49498e-17)
(-0.00463057 0.0260203 -2.29655e-18)
(-0.00378829 0.0260988 -5.35017e-18)
(-0.00294622 0.0261615 -6.654e-18)
(-0.00210432 0.0262085 -3.76438e-18)
(-0.00126254 0.0262398 -9.45502e-18)
(-0.000420836 0.0262554 -2.17389e-18)
(0.00042084 0.0262554 7.01121e-18)
(0.00126254 0.0262398 3.58766e-18)
(0.00210432 0.0262085 6.44065e-18)
(0.00294622 0.0261615 3.37524e-18)
(0.0037883 0.0260988 5.92583e-18)
(0.00463057 0.0260203 1.07732e-18)
(0.00547308 0.0259257 -3.27676e-18)
(0.00631583 0.0258151 4.46298e-18)
(0.00715883 0.0256881 -2.34112e-18)
(0.00800204 0.0255447 -8.00019e-18)
(0.00884545 0.0253847 -9.36285e-19)
(0.00968898 0.0252077 3.44559e-18)
(0.0105326 0.0250136 8.34334e-19)
(0.0113761 0.0248021 -8.41931e-18)
(0.0122193 0.0245729 -1.53486e-17)
(-0.0203642 0.0222891 4.09173e-18)
(-0.0201557 0.0220974 7.90669e-18)
(-0.0193116 0.0225121 1.11371e-17)
(-0.0184637 0.0229042 -5.57385e-18)
(-0.0176124 0.023275 7.51022e-18)
(-0.0167586 0.023625 2.31943e-18)
(-0.0159027 0.0239546 -8.74634e-18)
(-0.0150452 0.0242644 -1.49254e-17)
(-0.0141865 0.0245547 -7.22615e-18)
(-0.0133269 0.0248259 -6.65751e-18)
(-0.0124668 0.0250783 -1.63042e-17)
(-0.0116062 0.0253122 -6.0811e-18)
(-0.0107455 0.0255281 -5.09385e-19)
(-0.00988472 0.0257263 4.09813e-18)
(-0.00902402 0.0259069 -5.4776e-18)
(-0.00816349 0.0260702 -1.19168e-17)
(-0.00730319 0.0262165 -7.75633e-18)
(-0.00644313 0.0263461 -1.27509e-17)
(-0.00558335 0.026459 -1.55517e-17)
(-0.00472383 0.0265555 -2.48398e-18)
(-0.00386456 0.0266356 -4.98961e-18)
(-0.00300552 0.0266996 -6.89284e-18)
(-0.00214667 0.0267475 -3.29956e-18)
(-0.00128794 0.0267794 -8.92139e-18)
(-0.000429303 0.0267953 -2.16418e-18)
(0.000429308 0.0267953 6.49334e-18)
(0.00128795 0.0267794 4.93194e-18)
(0.00214667 0.0267475 7.23982e-18)
(0.00300553 0.0266996 2.56468e-18)
(0.00386457 0.0266356 6.28521e-18)
(0.00472383 0.0265554 1.87142e-18)
(0.00558335 0.026459 -2.16025e-18)
(0.00644314 0.0263461 4.24335e-18)
(0.00730319 0.0262165 -2.62197e-18)
(0.0081635 0.0260702 -7.49236e-18)
(0.00902403 0.0259069 -1.0749e-18)
(0.00988472 0.0257262 3.41964e-18)
(0.0107455 0.0255281 8.46139e-19)
(0.0116062 0.0253122 -1.02307e-17)
(0.0124668 0.0250782 -1.87512e-17)
(0.0133269 0.0248258 4.45182e-18)
(0.0141865 0.0245547 4.3139e-18)
(-0.0207973 0.0227326 5.14121e-18)
(-0.0205696 0.0225526 7.10227e-18)
(-0.0197079 0.0229761 1.16619e-17)
(-0.0188422 0.0233766 -4.32516e-18)
(-0.0179731 0.0237552 8.52588e-18)
(-0.0171013 0.0241126 2.60006e-18)
(-0.0162276 0.0244493 -1.05017e-17)
(-0.0153523 0.0247656 -1.5805e-17)
(-0.0144758 0.025062 -5.9842e-18)
(-0.0135984 0.0253388 -6.62997e-18)
(-0.0127205 0.0255965 -1.63755e-17)
(-0.0118422 0.0258353 -6.97735e-18)
(-0.0109638 0.0260557 -1.34011e-18)
(-0.0100854 0.0262579 4.52525e-18)
(-0.00920713 0.0264422 -5.30864e-18)
(-0.00832903 0.0266089 -1.18768e-17)
(-0.0074512 0.0267583 -7.46031e-18)
(-0.00657365 0.0268904 -1.19854e-17)
(-0.0056964 0.0270057 -1.61922e-17)
(-0.00481944 0.0271041 -2.64497e-18)
(-0.00394276 0.0271859 -4.63142e-18)
(-0.00306632 0.0272512 -7.26347e-18)
(-0.00219008 0.0273001 -3.06378e-18)
(-0.00131399 0.0273326 -8.51631e-18)
(-0.000437984 0.0273489 -2.34562e-18)
(0.000437989 0.0273489 6.05037e-18)
(0.00131399 0.0273326 6.38451e-18)
(0.00219009 0.0273001 8.17316e-18)
(0.00306633 0.0272512 1.82291e-18)
(0.00394276 0.0271859 6.65071e-18)
(0.00481944 0.0271041 2.25031e-18)
(0.0056964 0.0270057 -1.66621e-18)
(0.00657365 0.0268904 4.12517e-18)
(0.0074512 0.0267583 -3.22701e-18)
(0.00832904 0.0266089 -6.79491e-18)
(0.00920713 0.0264422 -8.69888e-19)
(0.0100854 0.0262579 3.24878e-18)
(0.0109638 0.0260557 7.26004e-19)
(0.0118422 0.0258353 -1.05937e-17)
(0.0127205 0.0255965 -1.99889e-17)
(0.0135984 0.0253388 2.51751e-18)
(0.0144758 0.025062 3.29198e-18)
(0.0153523 0.0247656 5.73607e-18)
(0.0162276 0.0244493 8.92425e-18)
(0.0171013 0.0241126 1.99007e-17)
(-0.0212417 0.0231878 6.31072e-18)
(-0.0209944 0.0230198 6.54808e-18)
(-0.0201146 0.0234523 1.19376e-17)
(-0.0192305 0.0238613 -3.18677e-18)
(-0.0183431 0.024248 9.10354e-18)
(-0.017453 0.024613 2.72322e-18)
(-0.0165609 0.0249568 -1.22487e-17)
(-0.0156673 0.0252797 -1.63747e-17)
(-0.0147725 0.0255824 -4.62091e-18)
(-0.0138769 0.025865 -6.13738e-18)
(-0.0129808 0.026128 -1.67548e-17)
(-0.0120843 0.0263719 -8.37014e-18)
(-0.0111878 0.0265968 -2.3386e-18)
(-0.0102913 0.0268032 5.30564e-18)
(-0.00939493 0.0269913 -4.48253e-18)
(-0.00849882 0.0271615 -1.18577e-17)
(-0.007603 0.0273139 -7.4612e-18)
(-0.00670751 0.0274487 -1.1493e-17)
(-0.00581234 0.0275663 -1.67552e-17)
(-0.0049175 0.0276667 -2.66292e-18)
(-0.00402295 0.0277502 -4.2033e-18)
(-0.00312867 0.0278168 -7.6582e-18)
(-0.00223461 0.0278667 -2.95234e-18)
(-0.0013407 0.0278999 -8.14857e-18)
(-0.000446887 0.0279165 -2.63673e-18)
(0.000446892 0.0279165 5.91621e-18)
(0.0013407 0.0278999 7.76099e-18)
(0.00223461 0.0278667 8.82071e-18)
(0.00312868 0.0278168 1.12982e-18)
(0.00402296 0.0277502 7.04311e-18)
(0.0049175 0.0276667 2.61427e-18)
(0.00581234 0.0275663 -1.51761e-18)
(0.00670751 0.0274487 4.05594e-18)
(0.00760301 0.0273139 -4.19169e-18)
(0.00849882 0.0271615 -6.62303e-18)
(0.00939493 0.0269913 -3.66695e-20)
(0.0102913 0.0268032 2.90724e-18)
(0.0111878 0.0265968 3.33132e-19)
(0.0120843 0.0263719 -1.01252e-17)
(0.0129808 0.026128 -1.95028e-17)
(0.0138769 0.025865 1.62422e-18)
(0.0147725 0.0255824 2.74341e-18)
(0.0156673 0.0252797 5.16601e-18)
(0.0165609 0.0249568 7.02849e-18)
(0.017453 0.024613 1.64827e-17)
(0.0183431 0.024248 1.93819e-17)
(0.0192305 0.0238613 1.84134e-17)
(-0.0216977 0.0236553 7.01844e-18)
(-0.0214305 0.0234994 6.54419e-18)
(-0.020532 0.0239411 1.19761e-17)
(-0.0196292 0.0243587 -2.28481e-18)
(-0.0187229 0.0247537 9.53843e-18)
(-0.0178139 0.0251265 3.30006e-18)
(-0.016903 0.0254776 -1.34706e-17)
(-0.0159906 0.0258074 -1.75934e-17)
(-0.015077 0.0261164 -3.85563e-18)
(-0.0141627 0.0264049 -5.39157e-18)
(-0.0132478 0.0266735 -1.71537e-17)
(-0.0123328 0.0269224 -9.56507e-18)
(-0.0114176 0.027152 -2.95221e-18)
(-0.0105025 0.0273627 6.25757e-18)
(-0.00958762 0.0275547 -3.39869e-18)
(-0.00867302 0.0277283 -1.17698e-17)
(-0.00775876 0.0278839 -7.72348e-18)
(-0.00684484 0.0280215 -1.12435e-17)
(-0.00593129 0.0281415 -1.69679e-17)
(-0.0050181 0.0282439 -2.6812e-18)
(-0.00410523 0.0283291 -3.83243e-18)
(-0.00319264 0.0283971 -8.30405e-18)
(-0.00228028 0.028448 -2.84714e-18)
(-0.0013681 0.0284818 -7.49825e-18)
(-0.00045602 0.0284988 -3.02008e-18)
(0.000456025 0.0284988 5.76028e-18)
(0.0013681 0.0284818 8.95973e-18)
(0.00228029 0.028448 9.50402e-18)
(0.00319264 0.0283971 4.65925e-19)
(0.00410523 0.0283291 7.30252e-18)
(0.0050181 0.0282439 3.12293e-18)
(0.0059313 0.0281415 -1.58967e-18)
(0.00684485 0.0280215 3.89445e-18)
(0.00775876 0.0278838 -5.04282e-18)
(0.00867303 0.0277283 -6.95662e-18)
(0.00958763 0.0275547 8.16616e-19)
(0.0105025 0.0273627 2.36681e-18)
(0.0114176 0.027152 -2.77755e-19)
(0.0123328 0.0269224 -9.43457e-18)
(0.0132478 0.0266735 -1.84262e-17)
(0.0141627 0.0264049 1.38913e-18)
(0.015077 0.0261164 2.24152e-18)
(0.0159906 0.0258074 4.45983e-18)
(0.016903 0.0254776 6.11297e-18)
(0.0178139 0.0251265 1.47201e-17)
(0.0187229 0.0247537 1.75179e-17)
(0.0196291 0.0243587 1.77242e-17)
(0.020532 0.0239411 1.02525e-17)
(0.0214305 0.0234994 9.22033e-18)
(0.0216977 0.0236553 3.1114e-17)
(-0.0221658 0.0241354 7.76675e-18)
(-0.0218783 0.0239921 6.79395e-18)
(-0.0209607 0.0244429 1.22872e-17)
(-0.0200385 0.0248695 -1.48793e-18)
(-0.0191128 0.0252729 9.53738e-18)
(-0.0181845 0.0256537 4.06106e-18)
(-0.0172543 0.0260122 -1.42957e-17)
(-0.0163225 0.026349 -1.8827e-17)
(-0.0153896 0.0266646 -3.43355e-18)
(-0.0144561 0.0269592 -4.70612e-18)
(-0.013522 0.0272334 -1.76213e-17)
(-0.0125878 0.0274875 -1.01789e-17)
(-0.0116535 0.0277219 -3.0285e-18)
(-0.0107193 0.0279369 7.10611e-18)
(-0.00978541 0.0281329 -2.33882e-18)
(-0.00885182 0.0283101 -1.1955e-17)
(-0.00791861 0.0284688 -8.49992e-18)
(-0.0069858 0.0286093 -1.08737e-17)
(-0.00605338 0.0287317 -1.68007e-17)
(-0.00512134 0.0288363 -3.20765e-18)
(-0.00418966 0.0289232 -3.55534e-18)
(-0.00325829 0.0289925 -8.73183e-18)
(-0.00232716 0.0290445 -2.43763e-18)
(-0.00139622 0.029079 -6.69047e-18)
(-0.000465394 0.0290963 -3.73954e-18)
(0.000465398 0.0290963 5.41246e-18)
(0.00139623 0.029079 1.00489e-17)
(0.00232717 0.0290445 1.01047e-17)
(0.00325829 0.0289925 -3.41027e-19)
(0.00418967 0.0289232 7.59142e-18)
(0.00512135 0.0288363 3.75051e-18)
(0.00605338 0.0287317 -1.52347e-18)
(0.0069858 0.0286093 3.70811e-18)
(0.00791862 0.0284688 -6.01006e-18)
(0.00885183 0.0283101 -7.37625e-18)
(0.00978541 0.0281329 1.38013e-18)
(0.0107193 0.0279369 1.64196e-18)
(0.0116535 0.0277219 -7.27794e-19)
(0.0125878 0.0274875 -8.30157e-18)
(0.013522 0.0272334 -1.72104e-17)
(0.0144561 0.0269592 1.22992e-18)
(0.0153896 0.0266646 1.79674e-18)
(0.0163225 0.026349 3.85093e-18)
(0.0172543 0.0260122 5.98524e-18)
(0.0181845 0.0256537 1.45371e-17)
(0.0191128 0.0252729 1.63647e-17)
(0.0200385 0.0248695 1.78101e-17)
(0.0209607 0.0244429 7.69752e-18)
(0.0218783 0.0239921 6.11593e-18)
(0.0221658 0.0241354 3.00413e-17)
(-0.0226464 0.0246287 8.14072e-18)
(-0.0223383 0.0244982 6.93836e-18)
(-0.0214011 0.0249585 1.28991e-17)
(-0.0204589 0.0253942 -5.70232e-19)
(-0.0195133 0.0258062 9.58256e-18)
(-0.0185651 0.0261951 4.73819e-18)
(-0.017615 0.0265614 -1.47535e-17)
(-0.0166634 0.0269053 -2.02213e-17)
(-0.0157107 0.0272275 -3.3423e-18)
(-0.0147573 0.0275284 -4.66416e-18)
(-0.0138035 0.0278083 -1.80949e-17)
(-0.0128496 0.0280678 -1.00432e-17)
(-0.0118957 0.0283071 -2.84071e-18)
(-0.0109419 0.0285265 7.42916e-18)
(-0.00998849 0.0287266 -2.0706e-18)
(-0.00903541 0.0289075 -1.19989e-17)
(-0.00808275 0.0290694 -8.64891e-18)
(-0.00713052 0.0292128 -1.03387e-17)
(-0.00617872 0.0293377 -1.69131e-17)
(-0.00522735 0.0294444 -3.91628e-18)
(-0.00427635 0.0295331 -3.42509e-18)
(-0.00332569 0.0296039 -9.17427e-18)
(-0.00237529 0.0296568 -1.84187e-18)
(-0.0014251 0.0296921 -5.91346e-18)
(-0.000475017 0.0297097 -4.60355e-18)
(0.000475022 0.0297097 5.19492e-18)
(0.0014251 0.0296921 1.13365e-17)
(0.0023753 0.0296568 1.06113e-17)
(0.00332569 0.0296039 -1.23425e-18)
(0.00427636 0.0295331 7.75896e-18)
(0.00522735 0.0294444 4.71549e-18)
(0.00617873 0.0293377 -1.19354e-18)
(0.00713052 0.0292128 3.27192e-18)
(0.00808275 0.0290694 -6.56582e-18)
(0.00903541 0.0289074 -7.62004e-18)
(0.00998849 0.0287266 1.49381e-18)
(0.0109419 0.0285265 6.5235e-19)
(0.0118957 0.028307 -1.16444e-18)
(0.0128496 0.0280678 -7.19904e-18)
(0.0138035 0.0278083 -1.60295e-17)
(0.0147573 0.0275284 8.56112e-19)
(0.0157107 0.0272275 7.80812e-19)
(0.0166634 0.0269053 3.21885e-18)
(0.017615 0.0265614 6.87289e-18)
(0.0185651 0.0261951 1.57723e-17)
(0.0195133 0.0258062 1.54129e-17)
(0.0204589 0.0253942 1.83137e-17)
(0.0214011 0.0249585 8.07972e-18)
(0.0223383 0.0244982 5.33711e-18)
(0.0226464 0.0246287 2.95558e-17)
(-0.0231405 0.0251361 8.04674e-18)
(-0.0228111 0.0250184 7.52559e-18)
(-0.0218536 0.0254882 1.36746e-17)
(-0.020891 0.0259333 4.64851e-19)
(-0.0199249 0.0263542 9.61415e-18)
(-0.0189562 0.0267514 5.11962e-18)
(-0.0179856 0.0271255 -1.53107e-17)
(-0.0170136 0.0274768 -2.20249e-17)
(-0.0160405 0.0278059 -3.72416e-18)
(-0.0150668 0.0281131 -5.09232e-18)
(-0.0140928 0.0283989 -1.86437e-17)
(-0.0131186 0.0286638 -9.11407e-18)
(-0.0121445 0.0289081 -2.06669e-18)
(-0.0111706 0.0291321 7.01968e-18)
(-0.0101971 0.0293363 -2.5556e-18)
(-0.00922398 0.029521 -1.1787e-17)
(-0.00825133 0.0296863 -8.00753e-18)
(-0.00727916 0.0298326 -9.76623e-18)
(-0.00630746 0.0299601 -1.73333e-17)
(-0.00533622 0.030069 -4.6445e-18)
(-0.00436539 0.0301595 -3.49208e-18)
(-0.00339491 0.0302317 -9.73822e-18)
(-0.00242473 0.0302857 -1.27159e-18)
(-0.00145475 0.0303217 -5.02911e-18)
(-0.0004849 0.0303397 -5.37024e-18)
(0.000484905 0.0303397 5.20319e-18)
(0.00145475 0.0303217 1.25652e-17)
(0.00242473 0.0302857 1.09109e-17)
(0.00339492 0.0302317 -2.11486e-18)
(0.00436539 0.0301595 7.85312e-18)
(0.00533622 0.030069 5.86639e-18)
(0.00630747 0.0299601 -5.09612e-19)
(0.00727916 0.0298326 2.8356e-18)
(0.00825134 0.0296863 -6.71265e-18)
(0.00922398 0.029521 -7.66424e-18)
(0.0101971 0.0293363 1.17103e-18)
(0.0111706 0.0291321 -2.94588e-19)
(0.0121445 0.0289081 -1.289e-18)
(0.0131186 0.0286638 -6.23844e-18)
(0.0140928 0.0283989 -1.5254e-17)
(0.0150668 0.0281131 4.90018e-19)
(0.0160405 0.0278059 -8.61812e-19)
(0.0170136 0.0274768 2.13193e-18)
(0.0179856 0.0271255 7.71983e-18)
(0.0189562 0.0267514 1.80412e-17)
(0.0199249 0.0263542 1.4059e-17)
(0.020891 0.0259333 1.87799e-17)
(0.0218536 0.0254882 1.00611e-17)
(0.0228111 0.0250184 6.36581e-18)
(0.0231405 0.0251361 2.90732e-17)
(-0.0236503 0.0256601 7.75345e-18)
(-0.0232973 0.0255534 8.90371e-18)
(-0.0223188 0.0260328 1.42105e-17)
(-0.0213351 0.0264874 1.68697e-18)
(-0.0203479 0.0269174 9.46545e-18)
(-0.0193581 0.0273232 5.22773e-18)
(-0.0183665 0.0277054 -1.56153e-17)
(-0.0173735 0.0280642 -2.37451e-17)
(-0.0163795 0.0284002 -4.62052e-18)
(-0.0153849 0.028714 -5.49381e-18)
(-0.01439 0.0290058 -1.93857e-17)
(-0.013395 0.0292763 -8.00913e-18)
(-0.0124002 0.0295257 -8.03788e-19)
(-0.0114056 0.0297544 6.25701e-18)
(-0.0104114 0.0299629 -3.61555e-18)
(-0.00941774 0.0301513 -1.10007e-17)
(-0.00842456 0.0303201 -6.79728e-18)
(-0.00743189 0.0304694 -9.78517e-18)
(-0.00643974 0.0305995 -1.77804e-17)
(-0.00544808 0.0307106 -5.24186e-18)
(-0.00445687 0.030803 -3.6654e-18)
(-0.00346604 0.0308767 -1.02736e-17)
(-0.00247551 0.0309318 -9.94526e-19)
(-0.00148522 0.0309685 -4.03817e-18)
(-0.000495055 0.0309869 -5.65265e-18)
(0.00049506 0.0309869 5.51344e-18)
(0.00148522 0.0309685 1.34527e-17)
(0.00247552 0.0309318 1.1042e-17)
(0.00346604 0.0308767 -3.01437e-18)
(0.00445687 0.030803 7.94732e-18)
(0.00544809 0.0307106 7.046e-18)
(0.00643974 0.0305995 2.68198e-19)
(0.00743189 0.0304694 2.06734e-18)
(0.00842456 0.0303201 -6.53715e-18)
(0.00941774 0.0301513 -7.16904e-18)
(0.0104114 0.0299629 5.37852e-19)
(0.0114056 0.0297544 -1.16608e-18)
(0.0124002 0.0295257 -1.05462e-18)
(0.013395 0.0292763 -5.6553e-18)
(0.01439 0.0290058 -1.45084e-17)
(0.0153849 0.028714 7.13063e-19)
(0.0163795 0.0284002 -3.09976e-18)
(0.0173735 0.0280641 8.10463e-19)
(0.0183665 0.0277054 7.80101e-18)
(0.0193581 0.0273232 1.97943e-17)
(0.0203479 0.0269174 1.29838e-17)
(0.0213351 0.0264874 1.91132e-17)
(0.0223188 0.0260328 1.26656e-17)
(0.0232973 0.0255534 8.09195e-18)
(0.0236503 0.0256601 2.80939e-17)
(-0.0241786 0.0262034 7.35789e-18)
(-0.0237976 0.0261034 1.05325e-17)
(-0.0227973 0.0265927 1.45732e-17)
(-0.0217917 0.0270572 3.04603e-18)
(-0.0207829 0.0274966 9.47621e-18)
(-0.0197714 0.0279111 5.08031e-18)
(-0.0187582 0.0283015 -1.53979e-17)
(-0.0177435 0.028668 -2.54374e-17)
(-0.016728 0.0290113 -6.10536e-18)
(-0.0157119 0.0293317 -5.6637e-18)
(-0.0146955 0.0296298 -2.01269e-17)
(-0.0136792 0.0299059 -7.45583e-18)
(-0.012663 0.0301606 5.51237e-19)
(-0.0116472 0.0303941 5.98066e-18)
(-0.0106318 0.0306069 -4.77384e-18)
(-0.0096169 0.0307993 -9.62858e-18)
(-0.00860261 0.0309715 -5.07564e-18)
(-0.00758888 0.0311239 -1.04506e-17)
(-0.00657571 0.0312567 -1.81426e-17)
(-0.00556306 0.0313701 -5.60493e-18)
(-0.0045509 0.0314644 -3.82927e-18)
(-0.00353914 0.0315396 -1.08177e-17)
(-0.00252771 0.0315959 -9.4946e-19)
(-0.00151653 0.0316333 -2.97165e-18)
(-0.000505492 0.0316521 -5.5333e-18)
(0.000505497 0.0316521 6.06381e-18)
(0.00151653 0.0316333 1.38758e-17)
(0.00252772 0.0315959 1.10593e-17)
(0.00353914 0.0315396 -3.74289e-18)
(0.0045509 0.0314644 7.98344e-18)
(0.00556306 0.0313701 8.13357e-18)
(0.00657571 0.0312567 8.79339e-19)
(0.00758888 0.0311239 9.34315e-19)
(0.00860261 0.0309715 -6.24055e-18)
(0.00961691 0.0307993 -6.23104e-18)
(0.0106318 0.0306069 -2.07136e-19)
(0.0116472 0.0303941 -1.78696e-18)
(0.012663 0.0301606 -8.60235e-19)
(0.0136792 0.0299059 -6.02115e-18)
(0.0146955 0.0296298 -1.37549e-17)
(0.0157119 0.0293317 1.81608e-18)
(0.016728 0.0290113 -5.52486e-18)
(0.0177435 0.028668 -5.58086e-19)
(0.0187582 0.0283015 7.6494e-18)
(0.0197714 0.0279111 2.03899e-17)
(0.0207828 0.0274966 1.23941e-17)
(0.0217917 0.0270572 1.86344e-17)
(0.0227972 0.0265927 1.50006e-17)
(0.0237976 0.0261034 9.95442e-18)
(0.0241786 0.0262034 2.75683e-17)
(-0.024726 0.0267659 7.93436e-18)
(-0.0243138 0.02667 1.23003e-17)
(-0.0232896 0.0271689 1.47154e-17)
(-0.0222616 0.0276434 4.6962e-18)
(-0.0212303 0.0280923 9.52313e-18)
(-0.0201965 0.0285159 4.66029e-18)
(-0.019161 0.0289147 -1.5266e-17)
(-0.0181241 0.0292891 -2.72405e-17)
(-0.0170864 0.0296397 -7.8814e-18)
(-0.0160482 0.029967 -5.32193e-18)
(-0.0150098 0.0302714 -2.05006e-17)
(-0.0139714 0.0305534 -7.29327e-18)
(-0.0129333 0.0308134 2.11812e-18)
(-0.0118956 0.0310519 5.81219e-18)
(-0.0108583 0.0312691 -6.04681e-18)
(-0.00982171 0.0314655 -7.88562e-18)