/*--------------------------------*- C++ -*----------------------------------*\
  =========                 |
  \\      /  F ield         | OpenFOAM: The Open Source CFD Toolbox
   \\    /   O peration     | Website:  https://openfoam.org
    \\  /    A nd           | Version:  7
     \\/     M anipulation  |
\*---------------------------------------------------------------------------*/
FoamFile
{
    version     2.0;
    format      ascii;
    class       volScalarField;
    location    "28000";
    object      p;
}
// * * * * * * * * * * * * * * * * * * * * * * * * * * * * * * * * * * * * * //

dimensions      [0 2 -2 0 0 0 0];

internalField   nonuniform List<scalar> 
1768
(
2.03518e-19
1.9403e-19
2.12859e-19
1.97455e-19
1.32997e-19
1.82216e-19
1.52143e-19
1.75433e-19
2.18641e-19
2.11581e-19
2.0785e-19
2.26429e-19
1.53926e-19
1.49293e-19
1.41104e-19
1.36225e-19
1.37591e-19
1.48406e-19
1.44689e-19
1.74973e-19
1.6743e-19
1.8486e-19
1.99776e-19
1.94003e-19
2.09551e-19
2.35397e-19
1.79962e-19
1.41837e-19
1.30805e-19
1.51426e-19
1.44538e-19
1.49841e-19
1.48941e-19
1.65138e-19
1.55163e-19
1.72768e-19
1.96811e-19
2.16234e-19
2.30723e-19
2.38736e-19
1.51927e-19
1.29607e-19
1.3472e-19
1.71114e-19
1.49304e-19
1.5251e-19
1.49939e-19
1.50287e-19
1.58812e-19
1.80757e-19
1.94957e-19
2.0755e-19
2.31253e-19
2.2439e-19
1.48271e-19
1.51477e-19
1.71188e-19
1.71877e-19
1.3059e-19
1.39127e-19
1.39832e-19
1.42328e-19
1.22867e-19
1.69868e-19
1.69572e-19
1.66376e-19
1.50472e-19
1.64644e-19
1.70034e-19
1.6971e-19
1.93464e-19
2.072e-19
2.16851e-19
2.10217e-19
1.64626e-19
1.37325e-19
1.72855e-19
1.41435e-19
1.29547e-19
1.40801e-19
1.27829e-19
1.38501e-19
1.30043e-19
1.57023e-19
1.41057e-19
1.52757e-19
1.36238e-19
1.70208e-19
1.62462e-19
1.64811e-19
1.93732e-19
2.07409e-19
2.05568e-19
2.24858e-19
1.56899e-19
1.33678e-19
1.56188e-19
1.54429e-19
1.43565e-19
1.27566e-19
1.49668e-19
1.37886e-19
1.13127e-19
1.6048e-19
1.46872e-19
1.43687e-19
1.42743e-19
1.81857e-19
1.81804e-19
1.65439e-19
1.96343e-19
2.09943e-19
2.10346e-19
2.33252e-19
1.41117e-19
1.33099e-19
1.42987e-19
1.40109e-19
1.66811e-19
1.36933e-19
1.39455e-19
1.39417e-19
1.14025e-19
1.45106e-19
1.33046e-19
1.34518e-19
1.34319e-19
1.71423e-19
1.75652e-19
1.77579e-19
2.01323e-19
2.23283e-19
2.11702e-19
2.18419e-19
1.37434e-19
1.30221e-19
1.40814e-19
1.22004e-19
1.61214e-19
1.34146e-19
1.21453e-19
1.26101e-19
1.34041e-19
1.27407e-19
1.26218e-19
1.69352e-19
1.47728e-19
1.74347e-19
1.87515e-19
1.77738e-19
1.80152e-19
2.23026e-19
2.01684e-19
2.05417e-19
1.27983e-19
1.33335e-19
1.41906e-19
1.39631e-19
1.46902e-19
1.29538e-19
1.35688e-19
1.04319e-19
1.213e-19
1.35121e-19
1.14057e-19
1.68423e-19
1.29776e-19
1.61869e-19
1.84839e-19
1.76423e-19
1.88631e-19
2.04976e-19
1.8068e-19
2.26961e-19
1.18243e-19
1.43413e-19
1.43796e-19
1.47775e-19
1.60373e-19
1.14199e-19
1.45214e-19
1.19033e-19
1.09107e-19
1.46292e-19
1.18576e-19
1.69608e-19
1.2915e-19
1.59009e-19
1.61172e-19
1.64683e-19
1.88169e-19
1.91985e-19
2.09952e-19
2.20569e-19
1.27045e-19
1.40251e-19
1.37838e-19
1.31438e-19
1.55843e-19
1.15422e-19
1.20713e-19
1.2367e-19
1.24225e-19
1.32279e-19
1.07177e-19
1.32615e-19
1.21233e-19
1.59152e-19
1.53975e-19
1.75032e-19
1.8183e-19
2.01801e-19
2.0743e-19
2.23712e-19
1.27268e-19
1.2386e-19
1.47226e-19
1.27983e-19
1.49376e-19
1.20037e-19
1.27497e-19
1.20596e-19
1.15581e-19
1.21923e-19
1.14304e-19
1.30812e-19
1.3174e-19
1.6344e-19
1.6753e-19
1.86435e-19
2.0515e-19
2.12631e-19
2.03869e-19
2.13724e-19
1.21615e-19
1.27325e-19
1.30806e-19
1.28587e-19
1.40107e-19
1.0655e-19
1.27885e-19
1.25016e-19
1.0635e-19
1.20413e-19
1.11629e-19
1.2292e-19
1.39207e-19
1.55227e-19
1.79367e-19
1.75196e-19
1.9904e-19
2.02211e-19
1.91303e-19
2.12533e-19
1.29214e-19
1.31152e-19
1.29319e-19
1.28113e-19
1.27667e-19
1.10171e-19
1.22921e-19
1.30645e-19
1.01965e-19
1.27985e-19
1.0739e-19
1.29181e-19
1.24887e-19
1.61013e-19
1.78784e-19
1.61952e-19
2.02062e-19
2.00466e-19
1.98044e-19
2.05526e-19
1.24274e-19
1.14963e-19
1.34381e-19
1.27569e-19
1.43908e-19
1.25274e-19
1.18572e-19
1.31911e-19
1.0065e-19
1.11182e-19
9.99358e-20
1.30246e-19
1.14886e-19
1.61074e-19
1.66913e-19
1.72656e-19
1.94253e-19
1.98865e-19
1.96819e-19
1.9883e-19
1.27284e-19
1.16823e-19
1.34268e-19
1.25447e-19
1.35404e-19
1.25963e-19
1.13084e-19
1.29615e-19
8.31552e-20
1.03173e-19
9.63521e-20
1.34485e-19
1.21105e-19
1.50507e-19
1.62161e-19
1.81894e-19
1.94673e-19
1.97807e-19
2.02127e-19
2.12215e-19
1.44177e-19
1.10935e-19
1.2937e-19
1.22292e-19
1.28315e-19
1.26807e-19
1.05948e-19
1.18475e-19
9.43932e-20
1.03765e-19
9.63963e-20
1.22275e-19
1.24285e-19
1.48045e-19
1.63571e-19
1.64998e-19
1.95749e-19
1.96702e-19
2.06949e-19
2.18858e-19
1.28837e-19
1.20764e-19
1.32267e-19
1.18379e-19
1.34206e-19
1.34948e-19
1.22216e-19
1.22465e-19
1.03314e-19
9.28366e-20
9.43406e-20
1.18218e-19
1.2598e-19
1.46175e-19
1.65818e-19
1.72301e-19
2.05074e-19
1.88654e-19
2.11534e-19
2.06767e-19
1.0424e-19
1.28993e-19
1.24558e-19
1.30823e-19
1.28605e-19
1.43551e-19
1.1904e-19
1.27517e-19
9.32149e-20
8.77908e-20
8.47781e-20
1.15125e-19
1.26889e-19
1.44392e-19
1.68767e-19
1.77846e-19
1.98427e-19
1.9713e-19
2.23773e-19
2.12854e-19
1.01379e-19
1.3833e-19
1.22297e-19
1.43214e-19
1.28226e-19
1.42169e-19
1.20161e-19
1.22852e-19
8.78924e-20
8.28228e-20
7.96041e-20
1.13049e-19
1.27438e-19
1.42276e-19
1.72468e-19
1.76562e-19
1.93188e-19
1.91794e-19
2.13678e-19
2.18008e-19
1.07438e-19
1.21984e-19
1.23883e-19
1.39794e-19
1.43654e-19
1.31168e-19
1.25722e-19
1.26014e-19
8.70693e-20
8.38048e-20
7.26376e-20
1.1191e-19
1.3379e-19
1.39437e-19
1.59829e-19
1.74667e-19
1.94895e-19
1.91229e-19
2.04767e-19
2.17226e-19
1.12167e-19
1.33814e-19
1.41229e-19
1.37033e-19
1.42762e-19
1.36909e-19
1.19644e-19
1.25301e-19
8.47003e-20
6.82978e-20
5.76831e-20
1.11541e-19
1.29355e-19
1.35967e-19
1.64892e-19
1.66866e-19
1.92046e-19
2.01216e-19
2.13163e-19
2.1656e-19
1.1074e-19
1.35313e-19
1.32121e-19
1.34003e-19
1.4766e-19
1.43011e-19
1.18209e-19
1.26599e-19
8.69229e-20
6.95375e-20
6.76752e-20
1.07217e-19
1.25528e-19
1.42643e-19
1.71044e-19
1.74839e-19
1.90026e-19
2.05288e-19
2.21703e-19
2.26633e-19
1.16166e-19
1.32731e-19
1.43711e-19
1.35857e-19
1.37399e-19
1.49697e-19
1.20756e-19
1.3513e-19
9.35843e-20
7.01929e-20
6.48453e-20
1.14587e-19
1.27204e-19
1.48656e-19
1.72692e-19
1.76721e-19
1.88068e-19
2.03823e-19
2.19749e-19
2.20313e-19
1.18611e-19
1.37904e-19
1.45538e-19
1.52577e-19
1.42304e-19
1.47462e-19
1.26709e-19
1.35302e-19
8.91219e-20
5.98272e-20
7.5423e-20
1.12717e-19
1.28461e-19
1.49175e-19
1.75099e-19
1.78256e-19
1.80757e-19
2.02384e-19
2.13199e-19
2.03428e-19
1.27738e-19
1.40998e-19
1.47353e-19
1.44879e-19
1.41592e-19
1.51168e-19
1.21467e-19
1.37478e-19
8.92925e-20
6.83703e-20
8.48158e-20
1.0656e-19
1.34552e-19
1.49494e-19
1.834e-19
1.79775e-19
1.8822e-19
2.01383e-19
2.1773e-19
2.0629e-19
1.18153e-19
1.48962e-19
1.49459e-19
1.56542e-19
1.40448e-19
1.51207e-19
1.34266e-19
1.36924e-19
9.34739e-20
8.53235e-20
8.87873e-20
9.03926e-20
1.21091e-19
1.49143e-19
1.77926e-19
1.80823e-19
1.85409e-19
2.00298e-19
2.28059e-19
2.1323e-19
1.30616e-19
1.46253e-19
1.37449e-19
1.59215e-19
1.52569e-19
1.47403e-19
1.319e-19
1.37883e-19
9.64677e-20
9.1996e-20
8.30671e-20
7.3623e-20
1.12844e-19
1.53621e-19
1.78293e-19
1.81783e-19
1.91998e-19
2.08469e-19
2.44339e-19
2.28795e-19
1.31865e-19
1.44387e-19
1.49528e-19
1.71655e-19
1.416e-19
1.53155e-19
1.33529e-19
1.44868e-19
9.83528e-20
9.8752e-20
8.67748e-20
8.38045e-20
1.14117e-19
1.53811e-19
1.84017e-19
1.82501e-19
2.02926e-19
2.01732e-19
2.2901e-19
2.33941e-19
1.3556e-19
1.51355e-19
1.65197e-19
1.72105e-19
1.38628e-19
1.57335e-19
1.40971e-19
1.39848e-19
8.98809e-20
1.05779e-19
9.91229e-20
9.72353e-20
1.24189e-19
1.5431e-19
1.81374e-19
1.82539e-19
2.00495e-19
2.03458e-19
2.23857e-19
2.25191e-19
1.29087e-19
1.53949e-19
1.57259e-19
1.84275e-19
1.45158e-19
1.62311e-19
1.41306e-19
1.38482e-19
9.31138e-20
1.00097e-19
9.32048e-20
9.16847e-20
1.29428e-19
1.54916e-19
1.79519e-19
1.77636e-19
1.98559e-19
2.00207e-19
2.2824e-19
2.20756e-19
1.44937e-19
1.52946e-19
1.6138e-19
1.76812e-19
1.58517e-19
1.68139e-19
1.36956e-19
1.42477e-19
9.92834e-20
1.03634e-19
9.36928e-20
9.38405e-20
1.30477e-19
1.55568e-19
1.78402e-19
1.85266e-19
2.01531e-19
2.09348e-19
2.33432e-19
2.22248e-19
1.47092e-19
1.58003e-19
1.73315e-19
1.82454e-19
1.66794e-19
1.62464e-19
1.52525e-19
1.32998e-19
1.08367e-19
1.0963e-19
1.04345e-19
9.28885e-20
1.33857e-19
1.58411e-19
1.79812e-19
1.88223e-19
2.02535e-19
2.09404e-19
2.26726e-19
2.27224e-19
1.44025e-19
1.5502e-19
1.8702e-19
1.80626e-19
1.66673e-19
1.67035e-19
1.59882e-19
1.33987e-19
1.16663e-19
1.19798e-19
1.06621e-19
9.48083e-20
1.33384e-19
1.61302e-19
1.85592e-19
1.86834e-19
2.01637e-19
2.07155e-19
2.32889e-19
2.25618e-19
1.41538e-19
1.44086e-19
2.0105e-19
1.94417e-19
1.68221e-19
1.61911e-19
1.57662e-19
1.44594e-19
1.12496e-19
1.12292e-19
9.8777e-20
9.75372e-20
1.37131e-19
1.44993e-19
1.49018e-19
2.02841e-19
2.02637e-19
1.67499e-19
1.7016e-19
1.49954e-19
1.64866e-19
1.11699e-19
1.20812e-19
9.0815e-20
1.09054e-19
1.40247e-19
1.6105e-19
1.56655e-19
1.9654e-19
1.967e-19
1.67924e-19
1.7863e-19
1.47399e-19
1.46684e-19
1.13506e-19
1.22429e-19
1.06606e-19
1.04857e-19
1.38806e-19
1.28777e-19
1.02412e-19
1.1612e-19
1.27921e-19
1.26992e-19
1.31278e-19
1.42658e-19
1.27615e-19
1.206e-19
1.25706e-19
1.16637e-19
1.19225e-19
1.13076e-19
9.28166e-20
1.04151e-19
1.23857e-19
1.20648e-19
1.2378e-19
1.10953e-19
1.13835e-19
1.13853e-19
1.15849e-19
1.10305e-19
1.25198e-19
1.12977e-19
1.11599e-19
1.09555e-19
1.21525e-19
1.12883e-19
1.13777e-19
1.19927e-19
1.27445e-19
1.29093e-19
1.18279e-19
1.42161e-19
1.52374e-19
1.5238e-19
1.47834e-19
1.44642e-19
1.42563e-19
1.24979e-19
1.27026e-19
1.41923e-19
1.37109e-19
1.32616e-19
1.49211e-19
1.3627e-19
1.44279e-19
1.36938e-19
1.31876e-19
1.26695e-19
1.37557e-19
1.26291e-19
1.25637e-19
1.29132e-19
1.27527e-19
1.23375e-19
1.16892e-19
1.21038e-19
1.24276e-19
1.16402e-19
1.14791e-19
1.16337e-19
1.09183e-19
1.13236e-19
1.26131e-19
1.22126e-19
1.14328e-19
1.36737e-19
1.36614e-19
1.56705e-19
1.59516e-19
1.53987e-19
1.55505e-19
1.49549e-19
1.45996e-19
1.3543e-19
1.447e-19
1.39457e-19
1.27366e-19
1.25825e-19
1.34732e-19
1.35221e-19
1.46111e-19
1.51569e-19
1.53197e-19
1.45e-19
1.64257e-19
1.48937e-19
1.44956e-19
1.41828e-19
1.41385e-19
1.55495e-19
1.48116e-19
1.37461e-19
1.50825e-19
1.52652e-19
1.4131e-19
1.38822e-19
1.29253e-19
1.30996e-19
1.47142e-19
1.73903e-19
1.54038e-19
1.63225e-19
1.74062e-19
1.64234e-19
1.47875e-19
1.63116e-19
1.58184e-19
1.55643e-19
1.53508e-19
1.51401e-19
1.5131e-19
1.59203e-19
1.62372e-19
1.4975e-19
1.37684e-19
1.41909e-19
1.45599e-19
1.49405e-19
1.47492e-19
1.39918e-19
1.51444e-19
1.43463e-19
1.44382e-19
1.37859e-19
1.43394e-19
1.35167e-19
1.44702e-19
1.39109e-19
1.42891e-19
1.38548e-19
1.37687e-19
1.43708e-19
1.5334e-19
1.52044e-19
1.61859e-19
1.4506e-19
1.47246e-19
1.52099e-19
1.6101e-19
1.67622e-19
1.47265e-19
1.52646e-19
1.57269e-19
1.48917e-19
1.51739e-19
1.48778e-19
1.40793e-19
1.42855e-19
1.4409e-19
1.60174e-19
1.55836e-19
1.61806e-19
1.68033e-19
1.56069e-19
1.71436e-19
1.80593e-19
1.7339e-19
1.67312e-19
1.65936e-19
1.62965e-19
1.66027e-19
1.69182e-19
1.72705e-19
1.76571e-19
1.79458e-19
1.75793e-19
1.90191e-19
1.87462e-19
1.80894e-19
1.91995e-19
1.78223e-19
1.65217e-19
1.65523e-19
1.65323e-19
1.57581e-19
1.49213e-19
1.44781e-19
1.66642e-19
1.60462e-19
1.59171e-19
1.62229e-19
1.63871e-19
1.59522e-19
1.68289e-19
1.76111e-19
1.74375e-19
1.74218e-19
1.73203e-19
1.69288e-19
1.7479e-19
1.73889e-19
1.82482e-19
1.75673e-19
1.68562e-19
1.77036e-19
1.92677e-19
1.75923e-19
1.64199e-19
1.86856e-19
1.7862e-19
1.77298e-19
1.81534e-19
1.86325e-19
1.86841e-19
1.95934e-19
1.8195e-19
1.87835e-19
1.89919e-19
1.82769e-19
1.93069e-19
1.98929e-19
2.00965e-19
1.9962e-19
2.04499e-19
1.91212e-19
2.02242e-19
2.04437e-19
2.00717e-19
2.04102e-19
2.12227e-19
1.9645e-19
1.9712e-19
1.99729e-19
2.08097e-19
2.1152e-19
1.86785e-19
1.90582e-19
2.11001e-19
1.93718e-19
1.85894e-19
1.85293e-19
1.83955e-19
1.74331e-19
1.68964e-19
1.73212e-19
1.86152e-19
1.84019e-19
1.81295e-19
1.88784e-19
1.89254e-19
1.94648e-19
1.99178e-19
1.92494e-19
2.00604e-19
2.07945e-19
2.04971e-19
2.06726e-19
2.03472e-19
2.08626e-19
2.10869e-19
2.08298e-19
2.19551e-19
2.20643e-19
2.12268e-19
1.94402e-19
2.13326e-19
2.12403e-19
1.89682e-19
2.09238e-19
2.14708e-19
1.94363e-19
1.98982e-19
2.05409e-19
2.07343e-19
2.06941e-19
2.23468e-19
2.11828e-19
1.97061e-19
2.07836e-19
2.08217e-19
2.10012e-19
2.13296e-19
2.11947e-19
2.05874e-19
2.15837e-19
2.2079e-19
2.21335e-19
2.2282e-19
2.25165e-19
2.37448e-19
2.37452e-19
2.3616e-19
2.3153e-19
2.25329e-19
2.31292e-19
2.33595e-19
2.34903e-19
1.7922e-19
1.94491e-19
1.8385e-19
1.76093e-19
1.85075e-19
1.89725e-19
1.91801e-19
1.77412e-19
1.93611e-19
2.00355e-19
1.9143e-19
1.99223e-19
2.00067e-19
1.99551e-19
1.97634e-19
2.10704e-19
2.10861e-19
2.09992e-19
2.23613e-19
2.16427e-19
2.08611e-19
2.09276e-19
2.13047e-19
2.19945e-19
2.30059e-19
2.30653e-19
2.28646e-19
2.22348e-19
2.31655e-19
2.22954e-19
2.22967e-19
1.9184e-19
1.98998e-19
2.11101e-19
2.07003e-19
2.1802e-19
2.10123e-19
2.04639e-19
2.07312e-19
2.12713e-19
2.14046e-19
2.11309e-19
2.10442e-19
2.1672e-19
2.18167e-19
2.26732e-19
2.42848e-19
2.33793e-19
2.42728e-19
2.3843e-19
2.36034e-19
2.35272e-19
2.45224e-19
2.46559e-19
2.39907e-19
2.47685e-19
2.45261e-19
2.37077e-19
2.39341e-19
2.49754e-19
2.60305e-19
2.45161e-19
1.99638e-19
1.61855e-19
1.58107e-19
1.66215e-19
2.0387e-19
2.06173e-19
2.07225e-19
2.01313e-19
1.93762e-19
1.89564e-19
2.0176e-19
2.0574e-19
2.08729e-19
2.10745e-19
2.11921e-19
2.12474e-19
2.16916e-19
2.0944e-19
2.05383e-19
2.09669e-19
2.27317e-19
2.4865e-19
2.41479e-19
2.25105e-19
2.3499e-19
2.39866e-19
2.44425e-19
2.44966e-19
2.47593e-19
2.4433e-19
2.54068e-19
2.2157e-19
2.0477e-19
2.20724e-19
2.20478e-19
2.27467e-19
2.15726e-19
2.06427e-19
2.18594e-19
2.2585e-19
2.16484e-19
2.16003e-19
2.16422e-19
2.17549e-19
2.19345e-19
2.10201e-19
2.17716e-19
2.24633e-19
2.26283e-19
2.23386e-19
2.21045e-19
2.3861e-19
2.46592e-19
2.45217e-19
2.39472e-19
2.3848e-19
2.41778e-19
2.42829e-19
2.45816e-19
2.44779e-19
2.4574e-19
2.50473e-19
1.94005e-19
1.88619e-19
2.03061e-19
2.05586e-19
2.05311e-19
2.01709e-19
2.10411e-19
2.0419e-19
2.03099e-19
2.13038e-19
2.1662e-19
2.15228e-19
2.13936e-19
2.12211e-19
2.2185e-19
2.31705e-19
2.25495e-19
2.24596e-19
2.28408e-19
2.31601e-19
2.34497e-19
2.36802e-19
2.42733e-19
2.47934e-19
2.44462e-19
2.45683e-19
2.44843e-19
2.43852e-19
2.40566e-19
2.46699e-19
2.48674e-19
2.27168e-19
2.20517e-19
2.15394e-19
2.1737e-19
2.18011e-19
2.17428e-19
2.17512e-19
2.16666e-19
2.16071e-19
2.0221e-19
1.93112e-19
2.12778e-19
2.18937e-19
2.12695e-19
2.23433e-19
2.27948e-19
2.32014e-19
2.36458e-19
2.46854e-19
2.48215e-19
2.45805e-19
2.5895e-19
2.5948e-19
2.43038e-19
2.40296e-19
2.46117e-19
2.54052e-19
2.56115e-19
2.56614e-19
2.57574e-19
2.62608e-19
2.25897e-19
2.3588e-19
2.26265e-19
2.25231e-19
2.24474e-19
2.24472e-19
2.19439e-19
2.26973e-19
2.28276e-19
2.29899e-19
2.31384e-19
2.27122e-19
2.27676e-19
2.27226e-19
2.30323e-19
2.27223e-19
2.22792e-19
2.30663e-19
2.41626e-19
2.43202e-19
2.40334e-19
2.41387e-19
2.45956e-19
2.49945e-19
2.53443e-19
2.58554e-19
2.24699e-19
2.26276e-19
2.19154e-19
2.31269e-19
2.36019e-19
2.34281e-19
2.25975e-19
2.34964e-19
2.37082e-19
2.38305e-19
2.38535e-19
2.38334e-19
2.43522e-19
2.4894e-19
2.44776e-19
2.50771e-19
2.47418e-19
2.44816e-19
2.46794e-19
2.48422e-19
2.49715e-19
2.53088e-19
2.56429e-19
2.61697e-19
2.59245e-19
2.60691e-19
2.22533e-19
2.34434e-19
2.37472e-19
2.40754e-19
2.44368e-19
2.48114e-19
2.59025e-19
2.5372e-19
2.62266e-19
2.66446e-19
2.54854e-19
2.49631e-19
2.50244e-19
2.50774e-19
2.55756e-19
2.6049e-19
2.51105e-19
2.61168e-19
2.62657e-19
2.64814e-19
2.5914e-19
2.62646e-19
2.66535e-19
2.62899e-19
2.63509e-19
2.62336e-19
2.47442e-19
2.58628e-19
2.50844e-19
2.43944e-19
2.49455e-19
2.48085e-19
2.46351e-19
2.42415e-19
2.54629e-19
2.65669e-19
2.59396e-19
2.53458e-19
2.58728e-19
2.6937e-19
2.69826e-19
2.55653e-19
2.41246e-19
2.49859e-19
2.5325e-19
2.47239e-19
2.44722e-19
2.51995e-19
2.5033e-19
2.52092e-19
2.6118e-19
2.66115e-19
2.37915e-19
2.4736e-19
2.56179e-19
2.65366e-19
2.56326e-19
2.5473e-19
2.72473e-19
2.67193e-19
2.62875e-19
2.64567e-19
2.60414e-19
2.50257e-19
2.60836e-19
2.81426e-19
2.77316e-19
2.6887e-19
2.56185e-19
2.53362e-19
2.59803e-19
2.52143e-19
2.40581e-19
2.55016e-19
2.54643e-19
2.53579e-19
2.58427e-19
2.62136e-19
2.76987e-19
2.68543e-19
2.6656e-19
2.7611e-19
2.70189e-19
2.65589e-19
2.61438e-19
2.71878e-19
2.72701e-19
2.65025e-19
2.53542e-19
2.65025e-19
2.55276e-19
2.69708e-19
2.5826e-19
2.53975e-19
2.62594e-19
2.7795e-19
2.69469e-19
2.678e-19
2.66302e-19
2.65061e-19
2.64021e-19
2.62482e-19
2.60751e-19
2.58793e-19
2.51665e-19
2.43617e-19
2.53361e-19
2.53077e-19
2.3887e-19
2.45315e-19
2.61417e-19
2.62038e-19
2.62979e-19
2.6453e-19
2.66222e-19
2.67594e-19
2.55677e-19
2.60944e-19
2.5972e-19
2.63099e-19
2.6051e-19
2.6321e-19
2.60698e-19
2.62954e-19
2.60665e-19
2.58845e-19
2.66347e-19
2.65347e-19
2.58052e-19
2.62841e-19
2.62627e-19
2.62413e-19
2.61463e-19
2.60444e-19
2.84409e-19
2.61096e-19
2.68155e-19
2.76349e-19
2.70092e-19
2.59874e-19
2.65634e-19
2.71434e-19
2.63044e-19
2.6477e-19
2.62121e-19
2.55581e-19
2.58007e-19
2.47071e-19
2.37072e-19
2.67378e-19
2.71223e-19
2.57502e-19
2.57223e-19
2.63565e-19
2.62789e-19
2.45144e-19
2.37687e-19
2.48997e-19
2.63507e-19
2.61918e-19
2.55222e-19
2.57841e-19
2.55493e-19
2.43318e-19
2.50686e-19
2.48624e-19
2.48347e-19
2.41575e-19
2.47699e-19
2.44821e-19
2.51964e-19
2.45387e-19
2.57061e-19
2.49778e-19
2.59272e-19
2.80817e-19
2.71666e-19
2.6418e-19
2.57542e-19
2.61259e-19
2.54908e-19
2.62874e-19
2.70769e-19
2.56506e-19
2.57852e-19
2.5091e-19
2.60421e-19
2.50669e-19
2.68673e-19
2.55743e-19
2.43149e-19
2.60442e-19
2.58621e-19
2.56803e-19
2.54663e-19
2.56384e-19
2.46092e-19
2.55777e-19
2.69802e-19
2.59215e-19
2.67815e-19
2.71375e-19
2.72473e-19
2.82822e-19
2.48001e-19
2.51525e-19
2.47202e-19
2.54518e-19
2.60169e-19
2.66884e-19
2.74945e-19
2.66205e-19
2.58334e-19
2.67382e-19
2.72344e-19
2.57024e-19
2.67945e-19
2.68946e-19
2.7008e-19
2.76125e-19
2.75147e-19
2.71925e-19
2.81569e-19
2.41068e-19
2.5662e-19
2.70854e-19
2.58284e-19
2.50561e-19
2.65812e-19
2.61445e-19
2.61696e-19
2.61192e-19
2.43313e-19
2.67101e-19
2.68665e-19
2.64972e-19
2.65671e-19
2.78163e-19
2.81227e-19
2.79512e-19
2.8208e-19
2.80314e-19
2.81511e-19
2.7567e-19
2.9142e-19
2.89667e-19
2.7851e-19
2.75986e-19
2.75196e-19
2.75617e-19
2.75986e-19
2.71229e-19
2.77695e-19
2.84002e-19
2.77933e-19
2.72285e-19
2.78507e-19
2.91487e-19
2.90766e-19
2.84134e-19
2.69392e-19
2.7638e-19
2.77915e-19
2.66358e-19
2.72928e-19
2.70255e-19
2.53925e-19
2.71113e-19
2.92475e-19
2.85733e-19
2.90843e-19
2.80295e-19
2.85645e-19
2.85423e-19
2.84954e-19
2.77365e-19
2.90544e-19
2.76236e-19
2.77023e-19
2.75024e-19
2.733e-19
2.73311e-19
2.72548e-19
2.92496e-19
2.8265e-19
2.93498e-19
2.88643e-19
2.85475e-19
2.81558e-19
2.93464e-19
2.88535e-19
2.94252e-19
2.99302e-19
2.97259e-19
2.95642e-19
2.85274e-19
2.88408e-19
2.91103e-19
2.83096e-19
2.63251e-19
2.74715e-19
2.71974e-19
2.62591e-19
2.64007e-19
2.76189e-19
2.80391e-19
2.95588e-19
3.00372e-19
3.0207e-19
2.94562e-19
3.14675e-19
3.0017e-19
2.96899e-19
2.94453e-19
2.9463e-19
3.09438e-19
3.00646e-19
2.8656e-19
2.82926e-19
2.74372e-19
2.73168e-19
2.72185e-19
2.73272e-19
2.82303e-19
2.86557e-19
2.74899e-19
2.63474e-19
2.6804e-19
2.77264e-19
2.81228e-19
2.79691e-19
2.72538e-19
2.8456e-19
2.77175e-19
2.78939e-19
2.71338e-19
2.74011e-19
2.65351e-19
2.71883e-19
2.70915e-19
2.50347e-19
2.55872e-19
2.60968e-19
2.53389e-19
2.5725e-19
2.55562e-19
2.49099e-19
2.53258e-19
2.51853e-19
2.71204e-19
2.65919e-19
2.71791e-19
2.73909e-19
2.58481e-19
2.70828e-19
2.75102e-19
2.57635e-19
2.71533e-19
2.60751e-19
2.45218e-19
2.44291e-19
2.43728e-19
2.36316e-19
2.28952e-19
2.2598e-19
2.43911e-19
2.33918e-19
2.28349e-19
2.26594e-19
2.27678e-19
2.22077e-19
2.28883e-19
2.34114e-19
2.29197e-19
2.25368e-19
2.14124e-19
2.20583e-19
2.23903e-19
2.26163e-19
2.28741e-19
2.38148e-19
2.23187e-19
2.33061e-19
2.38434e-19
2.28529e-19
2.41585e-19
2.45066e-19
2.45248e-19
2.37619e-19
2.41572e-19
2.27563e-19
2.38105e-19
2.35517e-19
2.29528e-19
2.10404e-19
2.08563e-19
1.985e-19
1.99692e-19
2.04989e-19
2.13988e-19
2.08855e-19
2.03692e-19
2.08808e-19
2.06605e-19
2.09025e-19
2.09997e-19
1.99073e-19
2.07269e-19
2.14093e-19
2.10106e-19
2.10401e-19
2.05236e-19
2.08123e-19
2.13851e-19
2.1188e-19
2.12002e-19
2.09109e-19
2.21908e-19
2.1151e-19
1.96925e-19
2.07224e-19
2.0671e-19
2.07346e-19
2.09305e-19
2.06524e-19
1.98967e-19
2.07439e-19
2.10938e-19
2.10103e-19
2.10312e-19
2.11522e-19
2.22859e-19
1.92012e-19
1.90264e-19
1.72806e-19
1.86366e-19
1.90739e-19
1.79764e-19
1.85649e-19
1.84682e-19
1.82502e-19
1.79173e-19
1.91268e-19
1.9113e-19
1.90529e-19
1.99997e-19
1.89294e-19
1.78451e-19
1.76519e-19
1.77989e-19
1.78285e-19
1.99438e-19
1.86742e-19
1.88734e-19
1.92933e-19
1.92286e-19
1.86921e-19
1.82794e-19
1.85104e-19
1.81737e-19
1.84439e-19
1.93369e-19
1.86453e-19
1.90604e-19
1.85117e-19
1.80037e-19
1.75199e-19
1.84478e-19
1.83956e-19
1.74459e-19
1.83458e-19
1.83082e-19
1.75235e-19
1.72104e-19
1.65573e-19
1.75501e-19
1.77201e-19
1.77864e-19
1.77526e-19
1.76394e-19
1.74812e-19
1.77477e-19
1.68364e-19
1.62897e-19
1.65948e-19
1.82542e-19
1.98405e-19
1.86215e-19
1.69545e-19
1.93144e-19
1.82213e-19
1.93281e-19
1.99916e-19
1.8991e-19
1.88718e-19
1.88301e-19
1.88429e-19
1.88984e-19
1.78508e-19
1.84675e-19
1.90497e-19
1.91287e-19
1.87745e-19
1.85143e-19
1.98009e-19
1.96907e-19
1.96057e-19
1.86618e-19
1.72243e-19
1.80128e-19
1.737e-19
1.73287e-19
1.8497e-19
1.90329e-19
1.90292e-19
1.91165e-19
1.86843e-19
1.94871e-19
1.98278e-19
1.91528e-19
1.90604e-19
1.89783e-19
1.89071e-19
1.88569e-19
1.87943e-19
1.87245e-19
1.86582e-19
)
;

boundaryField
{
    inlet
    {
        type            cyclic;
    }
    outlet
    {
        type            cyclic;
    }
    wall
    {
        type            zeroGradient;
    }
    procBoundary4to1
    {
        type            processor;
        value           nonuniform List<scalar> 
61
(
1.62769e-19
1.52123e-19
1.92597e-19
1.91378e-19
1.66483e-19
1.74286e-19
1.44052e-19
1.4425e-19
1.24186e-19
1.20778e-19
1.19713e-19
1.19425e-19
1.57378e-19
1.50758e-19
1.77242e-19
1.74545e-19
2.14869e-19
2.17612e-19
2.26477e-19
2.24468e-19
2.35538e-19
2.42449e-19
2.60136e-19
2.42703e-19
2.75174e-19
2.67412e-19
2.68794e-19
2.63122e-19
2.70084e-19
2.65606e-19
2.59891e-19
2.60951e-19
2.56393e-19
2.56382e-19
2.54744e-19
2.56548e-19
2.70084e-19
2.52516e-19
2.4634e-19
2.61e-19
2.59336e-19
2.55422e-19
2.53467e-19
2.81352e-19
2.80156e-19
2.83141e-19
2.71172e-19
2.85778e-19
2.79771e-19
2.93643e-19
2.64334e-19
2.6206e-19
2.22057e-19
2.3277e-19
2.02067e-19
2.21521e-19
1.86624e-19
1.8798e-19
1.75021e-19
1.83502e-19
1.8656e-19
)
;
    }
    procBoundary4to3
    {
        type            processor;
        value           nonuniform List<scalar> 
13
(
1.66738e-19
1.81259e-19
1.91509e-19
1.97168e-19
2.15273e-19
2.29911e-19
2.27606e-19
1.66738e-19
1.62412e-19
1.171e-19
1.20237e-19
1.63021e-19
1.34547e-19
)
;
    }
    procBoundary4to5
    {
        type            processor;
        value           nonuniform List<scalar> 
55
(
2.10964e-19
2.00126e-19
2.15223e-19
2.03341e-19
2.16036e-19
2.24614e-19
2.22858e-19
2.21933e-19
2.20121e-19
2.18178e-19
2.17353e-19
2.06194e-19
2.00431e-19
2.14441e-19
2.27766e-19
2.13786e-19
2.13679e-19
2.19444e-19
2.1815e-19
2.17335e-19
2.10757e-19
2.216e-19
2.31957e-19
2.19987e-19
2.13761e-19
2.18052e-19
2.22132e-19
2.11168e-19
2.0993e-19
2.17473e-19
2.33783e-19
2.27173e-19
2.37986e-19
2.33608e-19
2.29463e-19
2.25656e-19
1.91723e-19
1.92484e-19
1.92645e-19
1.92799e-19
1.79567e-19
1.72142e-19
1.88797e-19
1.92431e-19
1.83639e-19
1.91908e-19
1.93867e-19
1.95438e-19
1.97144e-19
2.04593e-19
2.0256e-19
1.9146e-19
1.95624e-19
1.91031e-19
1.68569e-19
)
;
    }
    procBoundary4to6
    {
        type            processor;
        value           nonuniform List<scalar> 
43
(
2.09727e-19
1.9977e-19
2.29846e-19
2.31097e-19
1.611e-19
1.59308e-19
1.67655e-19
1.96532e-19
1.96532e-19
1.48869e-19
1.61899e-19
1.40181e-19
1.49025e-19
1.35762e-19
1.46972e-19
1.46972e-19
1.35795e-19
1.41172e-19
1.42815e-19
1.40505e-19
1.57136e-19
1.7657e-19
1.34384e-19
1.32147e-19
1.32147e-19
1.36009e-19
1.54778e-19
1.50235e-19
1.53536e-19
1.53536e-19
1.82727e-19
1.67062e-19
1.67062e-19
1.89603e-19
1.67397e-19
1.83619e-19
2.09468e-19
1.62324e-19
1.82115e-19
1.91398e-19
2.1343e-19
1.85822e-19
2.06921e-19
)
;
    }
    procBoundary4to7
    {
        type            processor;
        value           nonuniform List<scalar> 
34
(
2.13273e-19
2.19536e-19
2.17673e-19
2.17439e-19
2.18634e-19
2.18634e-19
2.36512e-19
2.3287e-19
2.34441e-19
2.25941e-19
2.66025e-19
2.5195e-19
2.53063e-19
2.61681e-19
2.52356e-19
2.6398e-19
2.43592e-19
2.39512e-19
2.57465e-19
2.5541e-19
2.77078e-19
2.5323e-19
2.67717e-19
2.77534e-19
2.50856e-19
2.64099e-19
2.29421e-19
2.08872e-19
2.0973e-19
1.88969e-19
2.09484e-19
1.90382e-19
2.11276e-19
1.80886e-19
)
;
    }
}


// ************************************************************************* //
