/*--------------------------------*- C++ -*----------------------------------*\
  =========                 |
  \\      /  F ield         | OpenFOAM: The Open Source CFD Toolbox
   \\    /   O peration     | Website:  https://openfoam.org
    \\  /    A nd           | Version:  7
     \\/     M anipulation  |
\*---------------------------------------------------------------------------*/
FoamFile
{
    version     2.0;
    format      ascii;
    class       volScalarField;
    location    "4000";
    object      nut;
}
// * * * * * * * * * * * * * * * * * * * * * * * * * * * * * * * * * * * * * //

dimensions      [0 2 -1 0 0 0 0];

internalField   nonuniform List<scalar> 
4782
(
3.52239e-06
3.37259e-06
3.22438e-06
3.078e-06
2.93391e-06
2.79246e-06
2.65381e-06
2.518e-06
2.38536e-06
2.25572e-06
1.20452e-05
1.18417e-05
1.16309e-05
1.1415e-05
1.11972e-05
1.0979e-05
1.07618e-05
1.05461e-05
1.03316e-05
1.01187e-05
9.90714e-06
9.69689e-06
9.48825e-06
9.28103e-06
9.07548e-06
8.87159e-06
8.66932e-06
8.46833e-06
8.26861e-06
8.07037e-06
7.87339e-06
7.67772e-06
7.48372e-06
7.2914e-06
7.1005e-06
6.91114e-06
6.72308e-06
6.5363e-06
6.35094e-06
6.16733e-06
5.98549e-06
5.8052e-06
5.62649e-06
5.44965e-06
5.27477e-06
5.10183e-06
4.9307e-06
4.76157e-06
4.59446e-06
4.42924e-06
4.26599e-06
4.10495e-06
3.94617e-06
3.78959e-06
3.63536e-06
3.48347e-06
3.33382e-06
3.18642e-06
3.04138e-06
2.89891e-06
2.75902e-06
2.6219e-06
2.48768e-06
2.35647e-06
2.22818e-06
1.19523e-05
1.17533e-05
1.15464e-05
1.1333e-05
1.11167e-05
1.08993e-05
1.06824e-05
1.04667e-05
1.02526e-05
1.004e-05
9.8291e-06
9.61965e-06
9.41184e-06
9.20542e-06
9.00056e-06
8.79707e-06
8.59525e-06
8.39512e-06
8.19662e-06
7.99947e-06
7.80385e-06
7.60961e-06
7.41702e-06
7.22604e-06
7.03637e-06
6.84792e-06
6.66081e-06
6.47531e-06
6.29136e-06
6.10922e-06
5.92892e-06
5.75023e-06
5.5732e-06
5.398e-06
5.2245e-06
5.05269e-06
4.88263e-06
4.71442e-06
4.54825e-06
4.384e-06
4.22168e-06
4.06138e-06
3.90328e-06
3.74746e-06
3.59399e-06
3.44295e-06
3.29436e-06
3.14827e-06
3.00469e-06
2.86356e-06
2.72494e-06
2.58904e-06
2.45591e-06
2.32589e-06
2.19882e-06
1.18608e-05
1.16644e-05
1.14596e-05
1.12481e-05
1.10334e-05
1.08171e-05
1.06006e-05
1.0385e-05
1.01705e-05
9.95808e-06
9.74777e-06
9.53952e-06
9.33305e-06
9.12782e-06
8.92369e-06
8.72078e-06
8.51957e-06
8.32018e-06
8.12258e-06
7.92661e-06
7.73196e-06
7.53879e-06
7.34698e-06
7.15681e-06
6.96836e-06
6.78147e-06
6.59627e-06
6.4125e-06
6.23009e-06
6.04907e-06
5.86957e-06
5.69184e-06
5.51579e-06
5.34157e-06
5.1691e-06
4.99852e-06
4.82977e-06
4.663e-06
4.49816e-06
4.33545e-06
4.1749e-06
4.01638e-06
3.85994e-06
3.70574e-06
3.55375e-06
3.40402e-06
3.2567e-06
3.11175e-06
2.9692e-06
2.82911e-06
2.69156e-06
2.55668e-06
2.42469e-06
2.29585e-06
2.16996e-06
1.17608e-05
1.15653e-05
1.13615e-05
1.1151e-05
1.0937e-05
1.07215e-05
1.0506e-05
1.02914e-05
1.00788e-05
9.868e-06
9.65926e-06
9.45219e-06
9.24637e-06
9.04185e-06
8.83903e-06
8.63796e-06
8.43859e-06
8.2406e-06
8.04413e-06
7.84895e-06
7.65536e-06
7.46342e-06
7.27306e-06
7.08408e-06
6.89666e-06
6.71083e-06
6.52657e-06
6.34372e-06
6.16252e-06
5.98307e-06
5.80542e-06
5.62954e-06
5.45524e-06
5.28256e-06
5.11173e-06
4.94263e-06
4.7753e-06
4.60981e-06
4.44627e-06
4.2849e-06
4.12573e-06
3.9686e-06
3.8135e-06
3.66049e-06
3.50967e-06
3.36122e-06
3.21513e-06
3.07151e-06
2.93034e-06
2.79166e-06
2.65564e-06
2.52228e-06
2.39177e-06
2.26426e-06
2.13965e-06
1.17594e-05
1.1564e-05
1.13596e-05
1.11478e-05
1.0933e-05
1.07174e-05
1.05025e-05
1.0289e-05
1.0077e-05
9.86643e-06
9.65732e-06
9.45014e-06
9.24477e-06
9.04127e-06
8.83913e-06
8.63821e-06
8.43857e-06
8.2405e-06
8.04383e-06
7.84876e-06
7.65513e-06
7.46311e-06
7.27257e-06
7.08369e-06
6.89645e-06
6.71079e-06
6.52657e-06
6.34395e-06
6.16273e-06
5.98292e-06
5.80461e-06
5.62806e-06
5.4532e-06
5.28019e-06
5.10898e-06
4.93974e-06
4.77252e-06
4.60718e-06
4.44386e-06
4.28253e-06
4.12334e-06
3.96633e-06
3.81137e-06
3.6585e-06
3.50791e-06
3.35956e-06
3.2136e-06
3.07002e-06
2.92898e-06
2.79053e-06
2.65462e-06
2.52133e-06
2.3909e-06
2.26354e-06
2.13902e-06
1.18556e-05
1.16593e-05
1.14545e-05
1.12426e-05
1.10273e-05
1.08111e-05
1.05951e-05
1.038e-05
1.01665e-05
9.95423e-06
9.74328e-06
9.53411e-06
9.32686e-06
9.12152e-06
8.918e-06
8.71618e-06
8.51585e-06
8.31668e-06
8.11885e-06
7.92225e-06
7.72724e-06
7.53394e-06
7.34237e-06
7.15245e-06
6.96392e-06
6.77694e-06
6.59134e-06
6.4073e-06
6.22467e-06
6.04362e-06
5.86397e-06
5.68583e-06
5.50949e-06
5.3351e-06
5.1627e-06
4.99229e-06
4.82382e-06
4.65718e-06
4.49256e-06
4.33006e-06
4.16972e-06
4.01157e-06
3.85562e-06
3.70175e-06
3.55011e-06
3.40064e-06
3.25341e-06
3.10864e-06
2.96641e-06
2.82674e-06
2.68962e-06
2.55517e-06
2.42346e-06
2.29453e-06
2.16827e-06
2.04482e-06
1.92441e-06
1.80715e-06
1.69303e-06
1.194e-05
1.17439e-05
1.15392e-05
1.1327e-05
1.11108e-05
1.08935e-05
1.06764e-05
1.04604e-05
1.02458e-05
1.0033e-05
9.82151e-06
9.6119e-06
9.40424e-06
9.19843e-06
8.99405e-06
8.79123e-06
8.58966e-06
8.38932e-06
8.19025e-06
7.99269e-06
7.79647e-06
7.60179e-06
7.40851e-06
7.21691e-06
7.02707e-06
6.83893e-06
6.65229e-06
6.46734e-06
6.28408e-06
6.10225e-06
5.9218e-06
5.74287e-06
5.56573e-06
5.39032e-06
5.2169e-06
5.04553e-06
4.87618e-06
4.70865e-06
4.54299e-06
4.37936e-06
4.2177e-06
4.05803e-06
3.90058e-06
3.74539e-06
3.5924e-06
3.44178e-06
3.29356e-06
3.14766e-06
3.00414e-06
2.86317e-06
2.72473e-06
2.58897e-06
2.45587e-06
2.32555e-06
2.19794e-06
2.07311e-06
1.95123e-06
1.83249e-06
1.71707e-06
1.60486e-06
1.2023e-05
1.18267e-05
1.1622e-05
1.14097e-05
1.11934e-05
1.09756e-05
1.07577e-05
1.05408e-05
1.03254e-05
1.01117e-05
9.89941e-06
9.68861e-06
9.47969e-06
9.27255e-06
9.06678e-06
8.86251e-06
8.65952e-06
8.4581e-06
8.25828e-06
8.05982e-06
7.86297e-06
7.66769e-06
7.47367e-06
7.2809e-06
7.08967e-06
6.89988e-06
6.7118e-06
6.52551e-06
6.34097e-06
6.15797e-06
5.97677e-06
5.79744e-06
5.61993e-06
5.44404e-06
5.26974e-06
5.09715e-06
4.92648e-06
4.75765e-06
4.59072e-06
4.42591e-06
4.26325e-06
4.10261e-06
3.94403e-06
3.78769e-06
3.63359e-06
3.48188e-06
3.3326e-06
3.18566e-06
3.04107e-06
2.8989e-06
2.75921e-06
2.62209e-06
2.48763e-06
2.35597e-06
2.22707e-06
2.10095e-06
1.97783e-06
1.85776e-06
1.74084e-06
1.62708e-06
1.51662e-06
1.40953e-06
1.30587e-06
1.20566e-06
1.10903e-06
1.01605e-06
9.26746e-07
8.4115e-07
7.58849e-07
6.76793e-07
5.94944e-07
5.17347e-07
4.44368e-07
3.76374e-07
3.13763e-07
2.56897e-07
2.06088e-07
1.61564e-07
1.23416e-07
9.15779e-08
6.57878e-08
4.55855e-08
3.03391e-08
1.92982e-08
1.16595e-08
6.63732e-09
3.52117e-09
1.71402e-09
7.48259e-10
2.82841e-10
8.74373e-11
2.00029e-11
2.78868e-12
1.53798e-13
1.12821e-15
1.21058e-05
1.19084e-05
1.17028e-05
1.149e-05
1.12738e-05
1.10558e-05
1.08374e-05
1.06194e-05
1.04028e-05
1.01876e-05
9.97418e-06
9.76259e-06
9.55248e-06
9.34409e-06
9.13735e-06
8.93191e-06
8.72802e-06
8.52562e-06
8.32444e-06
8.12476e-06
7.92666e-06
7.73017e-06
7.53524e-06
7.34187e-06
7.15005e-06
6.95978e-06
6.77103e-06
6.58362e-06
6.39784e-06
6.21375e-06
6.03134e-06
5.85044e-06
5.67129e-06
5.49399e-06
5.31852e-06
5.14478e-06
4.973e-06
4.8033e-06
4.63571e-06
4.47018e-06
4.30658e-06
4.14498e-06
3.98536e-06
3.82784e-06
3.67259e-06
3.51962e-06
3.36906e-06
3.22088e-06
3.07519e-06
2.93195e-06
2.7912e-06
2.653e-06
2.51745e-06
2.38462e-06
2.25466e-06
2.12745e-06
2.00319e-06
1.88203e-06
1.76399e-06
1.64917e-06
1.53759e-06
1.42931e-06
1.32442e-06
1.22305e-06
1.12531e-06
1.03123e-06
9.40859e-07
8.54244e-07
7.71107e-07
6.89127e-07
6.06293e-07
5.27673e-07
4.53664e-07
3.84652e-07
3.21013e-07
2.63135e-07
2.11344e-07
1.65885e-07
1.26873e-07
9.4257e-08
6.77898e-08
4.70213e-08
3.13227e-08
1.99383e-08
1.20528e-08
6.86367e-09
3.64186e-09
1.77272e-09
7.73706e-10
2.92324e-10
9.02982e-11
2.06307e-11
2.86964e-12
1.5754e-13
1.14439e-15
1.21843e-05
1.1986e-05
1.17793e-05
1.15657e-05
1.13487e-05
1.11301e-05
1.09114e-05
1.06931e-05
1.04761e-05
1.02608e-05
1.00471e-05
9.83459e-06
9.62338e-06
9.4139e-06
9.20623e-06
9.00022e-06
8.79554e-06
8.59246e-06
8.39098e-06
8.19088e-06
7.99247e-06
7.79582e-06
7.60079e-06
7.407e-06
7.21438e-06
7.02299e-06
6.83306e-06
6.6445e-06
6.45747e-06
6.27198e-06
6.08822e-06
5.90604e-06
5.72546e-06
5.54666e-06
5.36953e-06
5.19412e-06
5.02071e-06
4.84943e-06
4.68031e-06
4.51333e-06
4.34847e-06
4.18556e-06
4.02472e-06
3.86596e-06
3.70951e-06
3.55547e-06
3.40383e-06
3.2545e-06
3.10749e-06
2.96292e-06
2.82095e-06
2.68158e-06
2.54487e-06
2.411e-06
2.28003e-06
2.15193e-06
2.02683e-06
1.90476e-06
1.78583e-06
1.67005e-06
1.55748e-06
1.44821e-06
1.34233e-06
1.23997e-06
1.14118e-06
1.04609e-06
9.54755e-07
8.67218e-07
7.83265e-07
7.01328e-07
6.17532e-07
5.37936e-07
4.62926e-07
3.92909e-07
3.2827e-07
2.69397e-07
2.16633e-07
1.70241e-07
1.30363e-07
9.69634e-08
6.98133e-08
4.84734e-08
3.2318e-08
2.05865e-08
1.24513e-08
7.09308e-09
3.7642e-09
1.83223e-09
7.99504e-10
3.01936e-10
9.31969e-11
2.12665e-11
2.95156e-12
1.61321e-13
1.16082e-15
1.22617e-05
1.2063e-05
1.18561e-05
1.1642e-05
1.14244e-05
1.1205e-05
1.09852e-05
1.07662e-05
1.05482e-05
1.03318e-05
1.01171e-05
9.90376e-06
9.69218e-06
9.48239e-06
9.27427e-06
9.06744e-06
8.86213e-06
8.65814e-06
8.45569e-06
8.25492e-06
8.05589e-06
7.85845e-06
7.66218e-06
7.46697e-06
7.2729e-06
7.08029e-06
6.88926e-06
6.69969e-06
6.51177e-06
6.32537e-06
6.14069e-06
5.9576e-06
5.77629e-06
5.59664e-06
5.41882e-06
5.24269e-06
5.06832e-06
4.89592e-06
4.72544e-06
4.55704e-06
4.39063e-06
4.22636e-06
4.06419e-06
3.90419e-06
3.74652e-06
3.5911e-06
3.43807e-06
3.28738e-06
3.1392e-06
2.9935e-06
2.85043e-06
2.71e-06
2.57235e-06
2.43754e-06
2.30551e-06
2.17635e-06
2.05009e-06
1.92696e-06
1.80701e-06
1.6903e-06
1.5768e-06
1.4666e-06
1.35977e-06
1.25641e-06
1.1566e-06
1.06046e-06
9.68089e-07
8.79562e-07
7.94802e-07
7.12923e-07
6.2816e-07
5.47607e-07
4.71647e-07
4.00675e-07
3.35084e-07
2.75278e-07
2.21612e-07
1.74356e-07
1.33669e-07
9.95372e-08
7.17447e-08
4.98632e-08
3.32731e-08
2.12097e-08
1.28351e-08
7.31431e-09
3.88228e-09
1.88968e-09
8.24406e-10
3.11208e-10
9.59897e-11
2.18776e-11
3.02996e-12
1.64903e-13
1.17583e-15
1.23328e-05
1.21343e-05
1.19275e-05
1.17133e-05
1.14955e-05
1.12757e-05
1.10556e-05
1.08362e-05
1.06178e-05
1.04012e-05
1.01863e-05
9.9726e-06
9.76016e-06
9.54938e-06
9.34028e-06
9.13274e-06
8.92644e-06
8.7217e-06
8.51853e-06
8.31664e-06
8.11622e-06
7.91708e-06
7.71947e-06
7.52338e-06
7.32859e-06
7.13526e-06
6.94323e-06
6.75257e-06
6.56357e-06
6.37617e-06
6.19063e-06
6.00692e-06
5.82481e-06
5.64425e-06
5.46536e-06
5.28835e-06
5.11314e-06
4.93986e-06
4.76843e-06
4.59891e-06
4.43152e-06
4.26616e-06
4.10285e-06
3.94166e-06
3.78266e-06
3.62604e-06
3.47172e-06
3.31975e-06
3.17032e-06
3.0234e-06
2.87917e-06
2.73769e-06
2.599e-06
2.46305e-06
2.32999e-06
2.19985e-06
2.07267e-06
1.9486e-06
1.82762e-06
1.70987e-06
1.59543e-06
1.48429e-06
1.37652e-06
1.27223e-06
1.17151e-06
1.07449e-06
9.81226e-07
8.91807e-07
8.06168e-07
7.23633e-07
6.38706e-07
5.57231e-07
4.80338e-07
4.0843e-07
3.41903e-07
2.81174e-07
2.26601e-07
1.78483e-07
1.3699e-07
1.02123e-07
7.36844e-08
5.12601e-08
3.42337e-08
2.1837e-08
1.32215e-08
7.53714e-09
4.00123e-09
1.94757e-09
8.49498e-10
3.2055e-10
9.88029e-11
2.2493e-11
3.10888e-12
1.68509e-13
1.19111e-15
1.24042e-05
1.22039e-05
1.19955e-05
1.17803e-05
1.15616e-05
1.13412e-05
1.11209e-05
1.09015e-05
1.06836e-05
1.04668e-05
1.02517e-05
1.00379e-05
9.82577e-06
9.61492e-06
9.40527e-06
9.19672e-06
8.98927e-06
8.78305e-06
8.5784e-06
8.37514e-06
8.17353e-06
7.97355e-06
7.77504e-06
7.57795e-06
7.38201e-06
7.1872e-06
6.9937e-06
6.80189e-06
6.61192e-06
6.42372e-06
6.23711e-06
6.05226e-06
5.86918e-06
5.68764e-06
5.5077e-06
5.32968e-06
5.15367e-06
4.97963e-06
4.80734e-06
4.63682e-06
4.4682e-06
4.30177e-06
4.1376e-06
3.9757e-06
3.81591e-06
3.65825e-06
3.50284e-06
3.34991e-06
3.19955e-06
3.05181e-06
2.90672e-06
2.76423e-06
2.62449e-06
2.48759e-06
2.35359e-06
2.22251e-06
2.09436e-06
1.9693e-06
1.8474e-06
1.72867e-06
1.61324e-06
1.50118e-06
1.39253e-06
1.28741e-06
1.18586e-06
1.08796e-06
9.93805e-07
9.03468e-07
8.16937e-07
7.33631e-07
6.48726e-07
5.66413e-07
4.88647e-07
4.1586e-07
3.48451e-07
2.86849e-07
2.3142e-07
1.82474e-07
1.40201e-07
1.04627e-07
7.5568e-08
5.26191e-08
3.51696e-08
2.2449e-08
1.3599e-08
7.75495e-09
4.11757e-09
2.0042e-09
8.74042e-10
3.29685e-10
1.01552e-10
2.30936e-11
3.18573e-12
1.72004e-13
1.20572e-15
1.24694e-05
1.22691e-05
1.20606e-05
1.18452e-05
1.16262e-05
1.14056e-05
1.11849e-05
1.0965e-05
1.07461e-05
1.05286e-05
1.03127e-05
1.00983e-05
9.88533e-06
9.67332e-06
9.46235e-06
9.25289e-06
9.04509e-06
8.83892e-06
8.6342e-06
8.43053e-06
8.22794e-06
8.02683e-06
7.8272e-06
7.6288e-06
7.4318e-06
7.23607e-06
7.04197e-06
6.84961e-06
6.65882e-06
6.46984e-06
6.28261e-06
6.09686e-06
5.91262e-06
5.73015e-06
5.5494e-06
5.37062e-06
5.19382e-06
5.01879e-06
4.8455e-06
4.67406e-06
4.50473e-06
4.33757e-06
4.17246e-06
4.00947e-06
3.84883e-06
3.69058e-06
3.53465e-06
3.38117e-06
3.23008e-06
3.08145e-06
2.93547e-06
2.79212e-06
2.65157e-06
2.51387e-06
2.37896e-06
2.24687e-06
2.11758e-06
1.99129e-06
1.86813e-06
1.74825e-06
1.63172e-06
1.51855e-06
1.40888e-06
1.30277e-06
1.20025e-06
1.10141e-06
1.00634e-06
9.15149e-07
8.27796e-07
7.43741e-07
6.58771e-07
5.75549e-07
4.96889e-07
4.23207e-07
3.54922e-07
2.9244e-07
2.36156e-07
1.86396e-07
1.43365e-07
1.071e-07
7.74305e-08
5.39647e-08
3.60974e-08
2.30561e-08
1.39737e-08
7.97128e-09
4.23316e-09
2.06047e-09
8.98435e-10
3.38763e-10
1.04284e-10
2.36902e-11
3.26202e-12
1.75473e-13
1.22033e-15
1.25353e-05
1.23342e-05
1.21244e-05
1.19078e-05
1.16881e-05
1.14674e-05
1.12465e-05
1.10264e-05
1.08072e-05
1.05889e-05
1.03722e-05
1.01567e-05
9.94285e-06
9.73016e-06
9.5186e-06
9.3085e-06
9.0997e-06
8.89256e-06
8.68708e-06
8.48289e-06
8.28e-06
8.07843e-06
7.8784e-06
7.67961e-06
7.48199e-06
7.28558e-06
7.09051e-06
6.8969e-06
6.70505e-06
6.51485e-06
6.32647e-06
6.13969e-06
5.95443e-06
5.7708e-06
5.58905e-06
5.40924e-06
5.23137e-06
5.05533e-06
4.88127e-06
4.70912e-06
4.53911e-06
4.37128e-06
4.20547e-06
4.04177e-06
3.8804e-06
3.72141e-06
3.56468e-06
3.41024e-06
3.25817e-06
3.10867e-06
2.96173e-06
2.81746e-06
2.67584e-06
2.53692e-06
2.40078e-06
2.2676e-06
2.13737e-06
2.01026e-06
1.88634e-06
1.76567e-06
1.64826e-06
1.53419e-06
1.42361e-06
1.3166e-06
1.2132e-06
1.11348e-06
1.0176e-06
9.25621e-07
8.37502e-07
7.52787e-07
6.67854e-07
5.83879e-07
5.04457e-07
4.2998e-07
3.60884e-07
2.9761e-07
2.40558e-07
1.90057e-07
1.46323e-07
1.09413e-07
7.91757e-08
5.52279e-08
3.69698e-08
2.3628e-08
1.43271e-08
8.17556e-09
4.34238e-09
2.11366e-09
9.21485e-10
3.47337e-10
1.0686e-10
2.42518e-11
3.33355e-12
1.78694e-13
1.23345e-15
1.25938e-05
1.23929e-05
1.21833e-05
1.19665e-05
1.17459e-05
1.15242e-05
1.13028e-05
1.10824e-05
1.08628e-05
1.06441e-05
1.04266e-05
1.02108e-05
9.99628e-06
9.78311e-06
9.57146e-06
9.36096e-06
9.15145e-06
8.94295e-06
8.73564e-06
8.53e-06
8.3261e-06
8.12385e-06
7.92293e-06
7.72356e-06
7.52565e-06
7.32886e-06
7.13314e-06
6.93864e-06
6.7458e-06
6.55478e-06
6.36561e-06
6.17828e-06
5.99272e-06
5.80876e-06
5.62662e-06
5.44636e-06
5.26785e-06
5.09122e-06
4.91635e-06
4.74329e-06
4.57223e-06
4.40335e-06
4.23668e-06
4.07211e-06
3.90969e-06
3.74961e-06
3.59186e-06
3.43662e-06
3.28393e-06
3.1337e-06
2.98595e-06
2.84077e-06
2.69826e-06
2.55859e-06
2.42177e-06
2.2879e-06
2.15688e-06
2.02884e-06
1.90391e-06
1.78219e-06
1.66384e-06
1.54892e-06
1.43746e-06
1.32959e-06
1.22539e-06
1.12489e-06
1.02818e-06
9.35393e-07
8.46542e-07
7.61249e-07
6.76458e-07
5.91795e-07
5.11647e-07
4.36436e-07
3.66602e-07
3.02581e-07
2.44785e-07
1.93569e-07
1.49165e-07
1.11642e-07
8.0859e-08
5.64471e-08
3.78126e-08
2.41807e-08
1.46689e-08
8.37316e-09
4.44804e-09
2.16512e-09
9.43785e-10
3.55629e-10
1.09351e-10
2.47942e-11
3.40255e-12
1.81793e-13
1.24601e-15
1.26475e-05
1.24467e-05
1.22377e-05
1.20212e-05
1.18008e-05
1.15784e-05
1.13556e-05
1.11332e-05
1.09122e-05
1.06929e-05
1.04749e-05
1.02586e-05
1.00436e-05
9.83018e-06
9.61788e-06
9.40661e-06
9.19649e-06
8.98788e-06
8.78059e-06
8.57483e-06
8.37031e-06
8.16707e-06
7.96548e-06
7.7655e-06
7.56679e-06
7.36937e-06
7.17362e-06
6.97956e-06
6.78695e-06
6.59581e-06
6.40642e-06
6.21858e-06
6.03228e-06
5.84754e-06
5.66442e-06
5.48297e-06
5.30327e-06
5.12538e-06
4.94947e-06
4.77549e-06
4.60353e-06
4.43377e-06
4.26609e-06
4.1005e-06
3.93709e-06
3.77602e-06
3.61722e-06
3.4607e-06
3.30657e-06
3.15505e-06
3.00621e-06
2.86013e-06
2.71683e-06
2.57639e-06
2.43884e-06
2.30424e-06
2.17258e-06
2.04398e-06
1.91855e-06
1.7963e-06
1.67739e-06
1.5619e-06
1.4499e-06
1.34141e-06
1.23652e-06
1.13533e-06
1.03798e-06
9.44513e-07
8.55e-07
7.69107e-07
6.84335e-07
5.98988e-07
5.18168e-07
4.42295e-07
3.7179e-07
3.07112e-07
2.48665e-07
1.96809e-07
1.51792e-07
1.13702e-07
8.2417e-08
5.75784e-08
3.85962e-08
2.46955e-08
1.49876e-08
8.55759e-09
4.54672e-09
2.21318e-09
9.64611e-10
3.63368e-10
1.11673e-10
2.52991e-11
3.46653e-12
1.84641e-13
1.25721e-15
1.26965e-05
1.2495e-05
1.22852e-05
1.20678e-05
1.18468e-05
1.16246e-05
1.1402e-05
1.11797e-05
1.09587e-05
1.07387e-05
1.05197e-05
1.03018e-05
1.00855e-05
9.87107e-06
9.65825e-06
9.44657e-06
9.23603e-06
9.02706e-06
8.81967e-06
8.61356e-06
8.40895e-06
8.20564e-06
8.0039e-06
7.80367e-06
7.60465e-06
7.40688e-06
7.21067e-06
7.01591e-06
6.82274e-06
6.63094e-06
6.44047e-06
6.25143e-06
6.06411e-06
5.87842e-06
5.69455e-06
5.51233e-06
5.33182e-06
5.15323e-06
4.97647e-06
4.80159e-06
4.62887e-06
4.45835e-06
4.28993e-06
4.1238e-06
3.96001e-06
3.79846e-06
3.6393e-06
3.48251e-06
3.32828e-06
3.17671e-06
3.02779e-06
2.88144e-06
2.7377e-06
2.59663e-06
2.45832e-06
2.32284e-06
2.19024e-06
2.06068e-06
1.93426e-06
1.81105e-06
1.69121e-06
1.57483e-06
1.46198e-06
1.35272e-06
1.24709e-06
1.14522e-06
1.0472e-06
9.5308e-07
8.62933e-07
7.76536e-07
6.9185e-07
6.05883e-07
5.24407e-07
4.47872e-07
3.76717e-07
3.11391e-07
2.52317e-07
1.9986e-07
1.54272e-07
1.15654e-07
8.3896e-08
5.86531e-08
3.93411e-08
2.51853e-08
1.5291e-08
8.7333e-09
4.64077e-09
2.25901e-09
9.84467e-10
3.70747e-10
1.13887e-10
2.578e-11
3.52741e-12
1.87347e-13
1.26782e-15
1.27439e-05
1.25412e-05
1.23304e-05
1.21125e-05
1.18904e-05
1.16669e-05
1.14434e-05
1.12204e-05
1.09982e-05
1.07775e-05
1.05584e-05
1.03408e-05
1.01247e-05
9.90989e-06
9.69655e-06
9.48433e-06
9.27325e-06
9.06368e-06
8.85546e-06
8.64884e-06
8.44362e-06
8.24003e-06
8.03796e-06
7.83708e-06
7.63756e-06
7.4394e-06
7.24269e-06
7.04733e-06
6.85361e-06
6.66154e-06
6.47084e-06
6.28145e-06
6.09342e-06
5.90685e-06
5.72189e-06
5.53881e-06
5.35758e-06
5.17841e-06
5.00133e-06
4.82616e-06
4.65302e-06
4.48185e-06
4.31284e-06
4.14595e-06
3.98141e-06
3.81926e-06
3.65944e-06
3.50214e-06
3.34742e-06
3.19531e-06
3.04571e-06
2.89867e-06
2.75436e-06
2.6128e-06
2.4741e-06
2.33823e-06
2.20521e-06
2.07511e-06
1.94819e-06
1.82454e-06
1.70417e-06
1.58715e-06
1.47359e-06
1.36362e-06
1.25735e-06
1.15488e-06
1.05628e-06
9.61587e-07
8.70886e-07
7.83978e-07
6.99262e-07
6.12678e-07
5.30605e-07
4.53447e-07
3.81656e-07
3.15686e-07
2.55973e-07
2.02894e-07
1.56729e-07
1.17581e-07
8.53549e-08
5.9711e-08
4.00737e-08
2.56667e-08
1.55891e-08
8.90582e-09
4.73309e-09
2.30398e-09
1.00396e-09
3.77991e-10
1.16061e-10
2.62527e-11
3.58739e-12
1.9003e-13
1.27872e-15
1.27872e-05
1.25848e-05
1.23735e-05
1.21543e-05
1.19308e-05
1.17059e-05
1.14812e-05
1.12574e-05
1.10351e-05
1.08142e-05
1.05947e-05
1.03767e-05
1.01597e-05
9.94399e-06
9.72938e-06
9.51635e-06
9.30506e-06
9.09554e-06
8.88777e-06
8.6816e-06
8.47665e-06
8.2731e-06
8.07061e-06
7.86912e-06
7.66878e-06
7.46999e-06
7.27278e-06
7.07683e-06
6.88214e-06
6.68873e-06
6.49673e-06
6.30651e-06
6.1181e-06
5.93128e-06
5.74607e-06
5.5627e-06
5.38103e-06
5.20114e-06
5.02333e-06
4.84766e-06
4.67411e-06
4.50263e-06
4.33327e-06
4.16594e-06
4.00084e-06
3.83791e-06
3.67737e-06
3.51932e-06
3.3638e-06
3.21087e-06
3.06057e-06
2.91295e-06
2.76808e-06
2.626e-06
2.48676e-06
2.35033e-06
2.21684e-06
2.08633e-06
1.95899e-06
1.83483e-06
1.71402e-06
1.59663e-06
1.48273e-06
1.37237e-06
1.26567e-06
1.1627e-06
1.06358e-06
9.6842e-07
8.77222e-07
7.89885e-07
7.05211e-07
6.18118e-07
5.35521e-07
4.57851e-07
3.85557e-07
3.19092e-07
2.58895e-07
2.0534e-07
1.58718e-07
1.1915e-07
8.65486e-08
6.05826e-08
4.06803e-08
2.60669e-08
1.58377e-08
9.05004e-09
4.81038e-09
2.34165e-09
1.02028e-09
3.84048e-10
1.17874e-10
2.6645e-11
3.63664e-12
1.92174e-13
1.28647e-15
1.28247e-05
1.26215e-05
1.24101e-05
1.21915e-05
1.19686e-05
1.17439e-05
1.15191e-05
1.12947e-05
1.10711e-05
1.0849e-05
1.06283e-05
1.04093e-05
1.0192e-05
9.97631e-06
9.76187e-06
9.54871e-06
9.33671e-06
9.12627e-06
8.9175e-06
8.71042e-06
8.50496e-06
8.30095e-06
8.09801e-06
7.89618e-06
7.69583e-06
7.49691e-06
7.29902e-06
7.10212e-06
6.90635e-06
6.71213e-06
6.51954e-06
6.32843e-06
6.13908e-06
5.95163e-06
5.76613e-06
5.58262e-06
5.40112e-06
5.22158e-06
5.04386e-06
4.8681e-06
4.69424e-06
4.52248e-06
4.35288e-06
4.18536e-06
4.02009e-06
3.85704e-06
3.69641e-06
3.53824e-06
3.38243e-06
3.22906e-06
3.0783e-06
2.93014e-06
2.78473e-06
2.64202e-06
2.50205e-06
2.36491e-06
2.23064e-06
2.09929e-06
1.97115e-06
1.84634e-06
1.72489e-06
1.60681e-06
1.49225e-06
1.38131e-06
1.27404e-06
1.17051e-06
1.07085e-06
9.75144e-07
8.8343e-07
7.95697e-07
7.11106e-07
6.23564e-07
5.40481e-07
4.62315e-07
3.89503e-07
3.22525e-07
2.61823e-07
2.07789e-07
1.60711e-07
1.20722e-07
8.77439e-08
6.14533e-08
4.12855e-08
2.64655e-08
1.60851e-08
9.19341e-09
4.88718e-09
2.37908e-09
1.03649e-09
3.90073e-10
1.1968e-10
2.70367e-11
3.68612e-12
1.94364e-13
1.29505e-15
1.28615e-05
1.26573e-05
1.24445e-05
1.22244e-05
1.20006e-05
1.17753e-05
1.15494e-05
1.13241e-05
1.11001e-05
1.08777e-05
1.06569e-05
1.04378e-05
1.02203e-05
1.00045e-05
9.79015e-06
9.57728e-06
9.36578e-06
9.1555e-06
8.94644e-06
8.7385e-06
8.53211e-06
8.32736e-06
8.12413e-06
7.92202e-06
7.72095e-06
7.52105e-06
7.32265e-06
7.12559e-06
6.93006e-06
6.73582e-06
6.54292e-06
6.35164e-06
6.16192e-06
5.97405e-06
5.78815e-06
5.60427e-06
5.4224e-06
5.24248e-06
5.06429e-06
4.88789e-06
4.71358e-06
4.54141e-06
4.37128e-06
4.20334e-06
4.03756e-06
3.87411e-06
3.71303e-06
3.5542e-06
3.39766e-06
3.24362e-06
3.09207e-06
2.94322e-06
2.79715e-06
2.65395e-06
2.51364e-06
2.37628e-06
2.2418e-06
2.11028e-06
1.98185e-06
1.85668e-06
1.73478e-06
1.61629e-06
1.50131e-06
1.38986e-06
1.28206e-06
1.17805e-06
1.07793e-06
9.8179e-07
8.89648e-07
8.01469e-07
7.16499e-07
6.28769e-07
5.45207e-07
4.66546e-07
3.93241e-07
3.25776e-07
2.64599e-07
2.10106e-07
1.62596e-07
1.22203e-07
8.88659e-08
6.227e-08
4.18527e-08
2.6839e-08
1.63168e-08
9.32775e-09
4.95914e-09
2.41416e-09
1.0517e-09
3.95722e-10
1.21374e-10
2.74046e-11
3.73266e-12
1.96435e-13
1.30338e-15
1.28946e-05
1.26899e-05
1.24767e-05
1.2256e-05
1.20313e-05
1.18053e-05
1.15795e-05
1.13546e-05
1.11306e-05
1.09078e-05
1.06868e-05
1.04674e-05
1.02498e-05
1.00336e-05
9.81857e-06
9.60473e-06
9.39251e-06
9.18191e-06
8.97267e-06
8.76442e-06
8.55714e-06
8.35085e-06
8.1457e-06
7.94194e-06
7.73998e-06
7.53985e-06
7.34154e-06
7.14491e-06
6.94969e-06
6.75608e-06
6.56392e-06
6.37342e-06
6.18437e-06
5.99678e-06
5.81069e-06
5.62619e-06
5.44339e-06
5.26238e-06
5.08324e-06
4.90618e-06
4.73111e-06
4.55825e-06
4.38769e-06
4.2194e-06
4.05326e-06
3.88942e-06
3.72784e-06
3.56867e-06
3.41188e-06
3.25764e-06
3.1059e-06
2.95673e-06
2.81021e-06
2.6665e-06
2.52557e-06
2.38749e-06
2.25239e-06
2.12018e-06
1.99107e-06
1.86525e-06
1.74283e-06
1.62387e-06
1.50845e-06
1.39664e-06
1.28851e-06
1.18411e-06
1.08353e-06
9.86932e-07
8.94379e-07
8.0581e-07
7.20539e-07
6.32876e-07
5.48941e-07
4.69916e-07
3.9624e-07
3.28401e-07
2.66851e-07
2.11993e-07
1.64134e-07
1.23421e-07
8.97966e-08
6.29506e-08
4.23265e-08
2.71518e-08
1.65112e-08
9.44057e-09
5.01963e-09
2.44366e-09
1.06448e-09
4.00467e-10
1.22795e-10
2.77122e-11
3.77136e-12
1.98132e-13
1.30982e-15
1.29193e-05
1.27149e-05
1.25022e-05
1.22818e-05
1.20571e-05
1.18311e-05
1.16053e-05
1.13799e-05
1.11554e-05
1.09321e-05
1.07106e-05
1.04912e-05
1.02736e-05
1.00573e-05
9.84211e-06
9.62799e-06
9.41489e-06
9.20288e-06
8.99235e-06
8.78323e-06
8.57513e-06
8.36808e-06
8.16258e-06
7.95882e-06
7.75685e-06
7.55665e-06
7.35812e-06
7.16115e-06
6.96586e-06
6.77229e-06
6.58035e-06
6.38972e-06
6.20033e-06
6.01229e-06
5.82576e-06
5.64104e-06
5.45816e-06
5.27711e-06
5.09817e-06
4.92134e-06
4.74644e-06
4.57343e-06
4.40233e-06
4.23323e-06
4.06625e-06
3.90166e-06
3.73955e-06
3.57996e-06
3.42287e-06
3.26818e-06
3.11599e-06
2.96648e-06
2.8197e-06
2.67558e-06
2.5342e-06
2.39578e-06
2.26038e-06
2.128e-06
1.99878e-06
1.87276e-06
1.75011e-06
1.63089e-06
1.5151e-06
1.40286e-06
1.2943e-06
1.18949e-06
1.08858e-06
9.91644e-07
8.98724e-07
8.09798e-07
7.24216e-07
6.36533e-07
5.52279e-07
4.72929e-07
3.98944e-07
3.30779e-07
2.68894e-07
2.13701e-07
1.65522e-07
1.24515e-07
9.06264e-08
6.35554e-08
4.27476e-08
2.74297e-08
1.66839e-08
9.54079e-09
5.07335e-09
2.46985e-09
1.07583e-09
4.04682e-10
1.24057e-10
2.79857e-11
3.8058e-12
1.99647e-13
1.31567e-15
1.29403e-05
1.27358e-05
1.25228e-05
1.23022e-05
1.20777e-05
1.18513e-05
1.16249e-05
1.13995e-05
1.11753e-05
1.09522e-05
1.07309e-05
1.05111e-05
1.02925e-05
1.00751e-05
9.85901e-06
9.64415e-06
9.43073e-06
9.21869e-06
9.008e-06
8.79852e-06
8.59008e-06
8.38308e-06
8.17765e-06
7.97384e-06
7.77169e-06
7.57122e-06
7.37244e-06
7.17535e-06
6.97993e-06
6.78608e-06
6.59355e-06
6.40247e-06
6.21263e-06
6.02403e-06
5.83685e-06
5.6515e-06
5.46813e-06
5.28682e-06
5.10761e-06
4.93049e-06
4.75544e-06
4.58233e-06
4.41138e-06
4.24265e-06
4.07604e-06
3.91174e-06
3.74975e-06
3.59e-06
3.43259e-06
3.27774e-06
3.12551e-06
2.97581e-06
2.82869e-06
2.68422e-06
2.54252e-06
2.4038e-06
2.26809e-06
2.13528e-06
2.00555e-06
1.87911e-06
1.75606e-06
1.63645e-06
1.52031e-06
1.40778e-06
1.29895e-06
1.19387e-06
1.09268e-06
9.95486e-07
9.02352e-07
8.13215e-07
7.27416e-07
6.39739e-07
5.55193e-07
4.75551e-07
4.01271e-07
3.32811e-07
2.70635e-07
2.15162e-07
1.66711e-07
1.25453e-07
9.13397e-08
6.40761e-08
4.31094e-08
2.76684e-08
1.68322e-08
9.62682e-09
5.11946e-09
2.49233e-09
1.08557e-09
4.08298e-10
1.2514e-10
2.82203e-11
3.83538e-12
2.0095e-13
1.32077e-15
1.29569e-05
1.27522e-05
1.25388e-05
1.23183e-05
1.20938e-05
1.18677e-05
1.16418e-05
1.14166e-05
1.11925e-05
1.09696e-05
1.07477e-05
1.05268e-05
1.03072e-05
1.00893e-05
9.87281e-06
9.65802e-06
9.44447e-06
9.23202e-06
9.02102e-06
8.81155e-06
8.60366e-06
8.39735e-06
8.1925e-06
7.98886e-06
7.78673e-06
7.58622e-06
7.38722e-06
7.18938e-06
6.99276e-06
6.79776e-06
6.60453e-06
6.41307e-06
6.2233e-06
6.03493e-06
5.84797e-06
5.66258e-06
5.47912e-06
5.29763e-06
5.11794e-06
4.94022e-06
4.76439e-06
4.59067e-06
4.41918e-06
4.24996e-06
4.08306e-06
3.91851e-06
3.75635e-06
3.59657e-06
3.43909e-06
3.28407e-06
3.13149e-06
2.98153e-06
2.83417e-06
2.68961e-06
2.54792e-06
2.40908e-06
2.27324e-06
2.14041e-06
2.01072e-06
1.8842e-06
1.76093e-06
1.641e-06
1.52452e-06
1.41166e-06
1.30252e-06
1.1972e-06
1.09579e-06
9.98359e-07
9.04953e-07
8.15593e-07
7.29637e-07
6.41986e-07
5.57238e-07
4.77389e-07
4.02882e-07
3.34207e-07
2.7183e-07
2.16165e-07
1.67536e-07
1.26108e-07
9.18418e-08
6.44441e-08
4.33673e-08
2.78392e-08
1.69386e-08
9.68875e-09
5.15271e-09
2.50855e-09
1.0926e-09
4.10905e-10
1.25919e-10
2.83882e-11
3.85632e-12
2.01848e-13
1.32386e-15
1.29676e-05
1.27626e-05
1.2549e-05
1.2328e-05
1.21035e-05
1.18775e-05
1.16513e-05
1.1426e-05
1.1202e-05
1.0979e-05
1.07569e-05
1.0536e-05
1.03167e-05
1.00991e-05
9.8832e-06
9.66846e-06
9.45494e-06
9.24299e-06
9.03262e-06
8.82357e-06
8.61613e-06
8.41024e-06
8.20551e-06
8.00185e-06
7.7994e-06
7.59845e-06
7.39879e-06
7.20043e-06
7.00369e-06
6.8086e-06
6.61489e-06
6.42254e-06
6.23169e-06
6.0427e-06
5.85568e-06
5.67061e-06
5.4873e-06
5.30589e-06
5.1263e-06
4.94868e-06
4.77296e-06
4.59932e-06
4.42769e-06
4.25827e-06
4.09102e-06
3.92612e-06
3.76362e-06
3.60337e-06
3.44545e-06
3.29009e-06
3.13734e-06
2.98716e-06
2.83969e-06
2.69492e-06
2.55301e-06
2.41395e-06
2.27786e-06
2.14469e-06
2.01467e-06
1.88793e-06
1.76449e-06
1.64449e-06
1.528e-06
1.41506e-06
1.30576e-06
1.20026e-06
1.09867e-06
1.00108e-06
9.07513e-07
8.17995e-07
7.31866e-07
6.44166e-07
5.59231e-07
4.79191e-07
4.04494e-07
3.3562e-07
2.73038e-07
2.17169e-07
1.68348e-07
1.26746e-07
9.2325e-08
6.47963e-08
4.36115e-08
2.79999e-08
1.70383e-08
9.74652e-09
5.18365e-09
2.52363e-09
1.09913e-09
4.13334e-10
1.26648e-10
2.85466e-11
3.87641e-12
2.02749e-13
1.32766e-15
1.29754e-05
1.27707e-05
1.25575e-05
1.23363e-05
1.21107e-05
1.18836e-05
1.16566e-05
1.14303e-05
1.12054e-05
1.0982e-05
1.07602e-05
1.054e-05
1.03209e-05
1.01033e-05
9.88738e-06
9.67301e-06
9.45979e-06
9.24809e-06
9.03796e-06
8.82914e-06
8.62176e-06
8.4155e-06
8.21064e-06
8.00717e-06
7.80471e-06
7.60332e-06
7.40342e-06
7.20512e-06
7.00839e-06
6.81301e-06
6.61925e-06
6.42713e-06
6.23652e-06
6.04767e-06
5.86065e-06
5.6753e-06
5.49185e-06
5.31031e-06
5.13047e-06
4.95241e-06
4.77642e-06
4.60265e-06
4.43114e-06
4.26192e-06
4.09496e-06
3.93015e-06
3.76762e-06
3.60729e-06
3.44926e-06
3.29376e-06
3.14089e-06
2.99061e-06
2.84307e-06
2.69832e-06
2.5563e-06
2.41708e-06
2.28085e-06
2.14761e-06
2.01742e-06
1.89051e-06
1.76696e-06
1.64678e-06
1.53011e-06
1.41707e-06
1.30773e-06
1.20213e-06
1.10042e-06
1.0027e-06
9.08997e-07
8.19311e-07
7.33063e-07
6.45345e-07
5.60285e-07
4.80122e-07
4.05317e-07
3.36331e-07
2.73649e-07
2.17691e-07
1.68782e-07
1.27091e-07
9.25882e-08
6.49884e-08
4.37457e-08
2.8089e-08
1.70939e-08
9.7789e-09
5.20105e-09
2.53213e-09
1.10282e-09
4.14702e-10
1.27057e-10
2.86349e-11
3.88745e-12
2.03226e-13
1.32937e-15
1.29798e-05
1.27747e-05
1.2561e-05
1.23395e-05
1.21138e-05
1.18867e-05
1.16597e-05
1.14334e-05
1.12085e-05
1.09852e-05
1.07631e-05
1.05425e-05
1.0323e-05
1.01054e-05
9.88941e-06
9.67511e-06
9.46226e-06
9.25048e-06
9.0401e-06
8.83125e-06
8.62393e-06
8.41806e-06
8.21354e-06
8.01008e-06
7.80798e-06
7.60726e-06
7.40764e-06
7.20919e-06
7.0123e-06
6.81702e-06
6.62315e-06
6.43087e-06
6.24005e-06
6.05092e-06
5.86337e-06
5.6777e-06
5.494e-06
5.3123e-06
5.13256e-06
4.95464e-06
4.77877e-06
4.60505e-06
4.4335e-06
4.26401e-06
4.0968e-06
3.93196e-06
3.76951e-06
3.60934e-06
3.45163e-06
3.29632e-06
3.14359e-06
2.99338e-06
2.84574e-06
2.70079e-06
2.55873e-06
2.41962e-06
2.28341e-06
2.15006e-06
2.01978e-06
1.89278e-06
1.76918e-06
1.64903e-06
1.53233e-06
1.41917e-06
1.30966e-06
1.20395e-06
1.1021e-06
1.00419e-06