/*--------------------------------*- C++ -*----------------------------------*\
  =========                 |
  \\      /  F ield         | OpenFOAM: The Open Source CFD Toolbox
   \\    /   O peration     | Website:  https://openfoam.org
    \\  /    A nd           | Version:  7
     \\/     M anipulation  |
\*---------------------------------------------------------------------------*/
FoamFile
{
    version     2.0;
    format      ascii;
    class       volScalarField;
    location    "24000";
    object      omega;
}
// * * * * * * * * * * * * * * * * * * * * * * * * * * * * * * * * * * * * * //

dimensions      [0 0 -1 0 0 0 0];

internalField   nonuniform List<scalar> 
4814
(
0.159238
0.158321
0.157494
0.15676
0.188541
0.186386
0.18432
0.182335
0.180428
0.178603
0.176861
0.175205
0.173632
0.172148
0.170752
0.169448
0.168232
0.167107
0.166076
0.165134
0.164285
0.163531
0.16287
0.162303
0.161831
0.161452
0.161168
0.16098
0.160884
0.160884
0.160979
0.16117
0.161451
0.161831
0.162304
0.16287
0.163531
0.164285
0.196425
0.194193
0.192054
0.19
0.188028
0.186141
0.184341
0.182631
0.181007
0.179476
0.178037
0.176692
0.175439
0.174279
0.173217
0.172247
0.171374
0.170598
0.169918
0.169334
0.168849
0.168459
0.168167
0.167974
0.167875
0.167875
0.167973
0.168169
0.168458
0.168849
0.169336
0.169918
0.170598
0.171374
0.172243
0.17321
0.174274
0.175434
0.176688
0.178035
0.179473
0.204733
0.202415
0.200195
0.198064
0.196019
0.194063
0.192199
0.190427
0.188747
0.187164
0.185676
0.184286
0.18299
0.181793
0.180696
0.179695
0.178794
0.177994
0.177292
0.17669
0.17619
0.175788
0.175486
0.175287
0.175185
0.175185
0.175286
0.175488
0.175786
0.176189
0.176692
0.177292
0.177994
0.178794
0.179692
0.18069
0.181788
0.182986
0.184282
0.185674
0.187161
0.188744
0.190425
0.192194
0.213512
0.211099
0.208789
0.206573
0.204447
0.202414
0.200478
0.198639
0.196896
0.195253
0.193711
0.19227
0.190928
0.189688
0.188553
0.187517
0.186585
0.185757
0.185031
0.184408
0.183892
0.183476
0.183164
0.182958
0.182853
0.182853
0.182957
0.183165
0.183474
0.183891
0.18441
0.185031
0.185756
0.186585
0.187514
0.188547
0.189684
0.190924
0.192266
0.193709
0.195251
0.196893
0.198637
0.200473
0.222819
0.220301
0.217891
0.215578
0.213363
0.211245
0.209228
0.207314
0.2055
0.203792
0.202189
0.200692
0.199297
0.198011
0.196831
0.195756
0.194789
0.19393
0.193178
0.192532
0.191997
0.191565
0.191242
0.191029
0.19092
0.19092
0.191028
0.191244
0.191564
0.191996
0.192534
0.193178
0.19393
0.194789
0.195753
0.196826
0.198006
0.199294
0.200688
0.202188
0.203791
0.205498
0.207312
0.209224
0.232716
0.23008
0.227559
0.225141
0.222825
0.220612
0.218507
0.216508
0.214616
0.212835
0.211164
0.209603
0.208151
0.206811
0.205582
0.204464
0.203458
0.202564
0.201782
0.201111
0.200554
0.200105
0.19977
0.199548
0.199435
0.199435
0.199547
0.199771
0.200104
0.200553
0.201112
0.201782
0.202564
0.203458
0.204462
0.205578
0.206806
0.208148
0.2096
0.211163
0.212834
0.214614
0.216507
0.218503
0.243273
0.240507
0.237862
0.235327
0.2329
0.230582
0.228377
0.226285
0.224306
0.222443
0.220696
0.219065
0.217547
0.216148
0.214865
0.213698
0.212649
0.211716
0.2109
0.2102
0.209619
0.209152
0.208802
0.20857
0.208453
0.208453
0.208569
0.208803
0.209151
0.209619
0.210202
0.2109
0.211716
0.212648
0.213696
0.214861
0.216143
0.217545
0.219061
0.220694
0.222441
0.224304
0.226284
0.228374
0.23057
0.254569
0.251659
0.248878
0.246212
0.243661
0.241227
0.238911
0.236715
0.234639
0.232685
0.230853
0.229144
0.227554
0.226089
0.224745
0.223524
0.222426
0.22145
0.220596
0.219864
0.219256
0.218767
0.218401
0.218159
0.218037
0.218037
0.218159
0.218403
0.218767
0.219255
0.219865
0.220596
0.221449
0.222425
0.223521
0.224741
0.226084
0.227552
0.22914
0.230852
0.232684
0.234637
0.236714
0.238909
0.241217
0.266695
0.263626
0.260693
0.257882
0.255195
0.25263
0.250192
0.247881
0.245696
0.243641
0.241715
0.239917
0.238247
0.236708
0.235297
0.234015
0.232862
0.231838
0.230942
0.230174
0.229537
0.229024
0.228641
0.228387
0.228259
0.228259
0.228386
0.228642
0.229024
0.229536
0.230175
0.230942
0.231838
0.232862
0.234013
0.235294
0.236704
0.238245
0.239914
0.241713
0.24364
0.245694
0.24788
0.25019
0.252621
0.279753
0.276507
0.273406
0.270435
0.267595
0.264886
0.262312
0.259872
0.257567
0.2554
0.253369
0.251474
0.249714
0.248093
0.246607
0.245257
0.244043
0.242965
0.242022
0.241214
0.240544
0.240005
0.239601
0.239334
0.239199
0.239199
0.239333
0.239602
0.240004
0.240543
0.241215
0.242022
0.242965
0.244042
0.245254
0.246604
0.248089
0.249712
0.251471
0.253367
0.255399
0.257566
0.259872
0.262311
0.264879
0.293858
0.290417
0.28713
0.283981
0.280972
0.278104
0.275378
0.272796
0.270357
0.268065
0.265916
0.263914
0.262054
0.26034
0.258771
0.257345
0.256064
0.254925
0.25393
0.253078
0.25237
0.251801
0.251376
0.251093
0.250952
0.250952
0.251093
0.251376
0.251801
0.252369
0.253079
0.25393
0.254925
0.256063
0.257343
0.258768
0.260337
0.262052
0.263911
0.265915
0.268063
0.270356
0.272796
0.275377
0.309142
0.305486
0.301992
0.298646
0.295451
0.292404
0.289511
0.286771
0.284183
0.281751
0.279473
0.27735
0.275379
0.273563
0.271901
0.27039
0.269033
0.267828
0.266775
0.265873
0.265123
0.264522
0.264071
0.263772
0.263622
0.263622
0.263772
0.264072
0.264522
0.265122
0.265873
0.266775
0.267828
0.269033
0.270389
0.271898
0.27356
0.275377
0.277348
0.279472
0.28175
0.284183
0.28677
0.289511
0.325757
0.321861
0.318138
0.314575
0.311172
0.307929
0.304849
0.301933
0.29918
0.296593
0.294171
0.291914
0.289819
0.287889
0.286123
0.284519
0.283078
0.281798
0.28068
0.279722
0.278926
0.278288
0.27781
0.277492
0.277333
0.277333
0.277492
0.27781
0.278288
0.278925
0.279722
0.28068
0.281798
0.283077
0.284517
0.286121
0.287887
0.289818
0.291912
0.29417
0.296593
0.29918
0.301933
0.304849
0.343874
0.339713
0.335737
0.331932
0.328298
0.324837
0.32155
0.318439
0.315503
0.312744
0.310161
0.307755
0.305522
0.303466
0.301584
0.299875
0.29834
0.296977
0.295786
0.294767
0.293919
0.29324
0.292731
0.292393
0.292224
0.292224
0.292393
0.292732
0.29324
0.293919
0.294767
0.295787
0.296977
0.298339
0.299874
0.301582
0.303464
0.305521
0.307753
0.310161
0.312743
0.315503
0.318439
0.321551
0.363692
0.359237
0.35498
0.350907
0.347018
0.343314
0.339797
0.336469
0.333329
0.330379
0.327617
0.325045
0.322659
0.320462
0.318451
0.316625
0.314986
0.313531
0.312259
0.31117
0.310265
0.30954
0.308997
0.308636
0.308455
0.308455
0.308636
0.308997
0.30954
0.310265
0.311171
0.312259
0.313531
0.314986
0.316624
0.318449
0.32046
0.322658
0.325044
0.327617
0.330378
0.333329
0.336469
0.339798
0.38544
0.380658
0.37609
0.371719
0.367545
0.363572
0.3598
0.35623
0.352863
0.3497
0.34674
0.343983
0.341426
0.339072
0.336918
0.334962
0.333206
0.331647
0.330286
0.32912
0.328151
0.327375
0.326793
0.326407
0.326213
0.326213
0.326407
0.326794
0.327375
0.32815
0.329121
0.330286
0.331648
0.333206
0.334961
0.336916
0.33907
0.341426
0.343982
0.34674
0.3497
0.352863
0.356231
0.359801
0.40938
0.404237
0.399322
0.394619
0.390131
0.385857
0.381801
0.377963
0.374344
0.370944
0.367762
0.364799
0.362052
0.359522
0.357208
0.355108
0.353222
0.351548
0.350085
0.348834
0.347793
0.34696
0.346336
0.34592
0.345713
0.345713
0.34592
0.346336
0.34696
0.347793
0.348834
0.350086
0.351548
0.353222
0.355107
0.357207
0.359521
0.362052
0.364798
0.367762
0.370944
0.374344
0.377964
0.381803
0.435821
0.430275
0.424974
0.419904
0.415064
0.410456
0.406083
0.401946
0.398045
0.394381
0.390953
0.38776
0.384801
0.382076
0.379583
0.377321
0.37529
0.373487
0.371912
0.370565
0.369444
0.368547
0.367875
0.367428
0.367204
0.367204
0.367428
0.367875
0.368547
0.369443
0.370565
0.371913
0.373487
0.375289
0.37732
0.379582
0.382075
0.384801
0.38776
0.390953
0.394382
0.398046
0.401948
0.406086
0.46512
0.459125
0.453395
0.447914
0.442682
0.437702
0.432976
0.428506
0.424291
0.420331
0.416628
0.413178
0.409982
0.407038
0.404346
0.401903
0.39971
0.397763
0.396063
0.394608
0.393397
0.392429
0.391704
0.391221
0.39098
0.39098
0.391221
0.391704
0.392429
0.393397
0.394608
0.396063
0.397763
0.39971
0.401903
0.404345
0.407038
0.409982
0.413178
0.416628
0.420332
0.424291
0.428507
0.43298
0.497697
0.491201
0.484992
0.479052
0.473383
0.467987
0.462867
0.458023
0.453457
0.449168
0.445156
0.441419
0.437958
0.43477
0.431854
0.429209
0.426833
0.424726
0.422885
0.421309
0.419999
0.418951
0.418165
0.417643
0.417381
0.417381
0.417643
0.418166
0.418951
0.419999
0.42131
0.422885
0.424726
0.426833
0.429209
0.431854
0.434769
0.437958
0.441419
0.445156
0.449169
0.453458
0.458025
0.462871
0.534046
0.52699
0.520245
0.513791
0.507633
0.501771
0.496209
0.490948
0.485988
0.481329
0.476972
0.472914
0.469155
0.465693
0.462527
0.459655
0.457076
0.454787
0.452788
0.451078
0.449655
0.448517
0.447665
0.447097
0.446814
0.446814
0.447097
0.447665
0.448517
0.449655
0.451078
0.452789
0.454788
0.457076
0.459655
0.462527
0.465693
0.469155
0.472915
0.476973
0.481331
0.485989
0.49095
0.496214
0.501799
0.574752
0.567069
0.559722
0.552693
0.545985
0.5396
0.533543
0.527813
0.522411
0.517338
0.512593
0.508174
0.50408
0.50031
0.496863
0.493735
0.490927
0.488435
0.486259
0.484397
0.482848
0.481609
0.480681
0.480063
0.479754
0.479754
0.480063
0.480681
0.481609
0.482848
0.484398
0.48626
0.488436
0.490927
0.493735
0.496863
0.500311
0.504081
0.508174
0.512594
0.517339
0.522413
0.527815
0.533548
0.539631
0.620514
0.612124
0.6041
0.596424
0.589098
0.582126
0.57551
0.569253
0.563354
0.557813
0.552631
0.547806
0.543335
0.539219
0.535454
0.532039
0.528973
0.526252
0.523876
0.521843
0.520151
0.518799
0.517785
0.51711
0.516773
0.516773
0.517111
0.517786
0.518799
0.520151
0.521843
0.523877
0.526253
0.528973
0.53204
0.535455
0.53922
0.543336
0.547807
0.552633
0.557815
0.563355
0.569256
0.575516
0.58216
0.672165
0.662979
0.654192
0.645785
0.637762
0.630126
0.622881
0.616028
0.609567
0.603499
0.597824
0.592539
0.587644
0.583135
0.579012
0.575272
0.571914
0.568935
0.566333
0.564106
0.562253
0.560772
0.559662
0.558923
0.558554
0.558554
0.558924
0.559663
0.560772
0.562254
0.564106
0.566334
0.568935
0.571915
0.575273
0.579013
0.583136
0.587645
0.59254
0.597826
0.603501
0.609569
0.616031
0.622888
0.630164
0.730716
0.720628
0.710977
0.701743
0.69293
0.684543
0.676584
0.669056
0.661959
0.655294
0.649059
0.643254
0.637876
0.632924
0.628395
0.624286
0.620597
0.617324
0.614466
0.61202
0.609984
0.608358
0.607139
0.606327
0.605922
0.605921
0.606327
0.607139
0.608358
0.609985
0.612021
0.614467
0.617325
0.620598
0.624287
0.628396
0.632925
0.637878
0.643256
0.649062
0.655296
0.661962
0.66906
0.676591
0.797392
0.78628
0.775646
0.765472
0.755761
0.746518
0.737749
0.729453
0.721633
0.714288
0.707418
0.70102
0.695094
0.689636
0.684644
0.680117
0.676051
0.672444
0.669294
0.666598
0.664355
0.662562
0.661219
0.660324
0.659877
0.659877
0.660325
0.661219
0.662563
0.664356
0.666599
0.669295
0.672445
0.676052
0.680118
0.684646
0.689637
0.695095
0.701022
0.70742
0.714291
0.721636
0.729458
0.737757
0.873696
0.861413
0.849658
0.83841
0.827674
0.817455
0.807759
0.798587
0.78994
0.781818
0.774221
0.767147
0.760594
0.754559
0.749039
0.744032
0.739536
0.735547
0.732063
0.729083
0.726601
0.724619
0.723133
0.722144
0.72165
0.721649
0.722144
0.723134
0.724619
0.726602
0.729083
0.732065
0.735549
0.739537
0.744033
0.74904
0.75456
0.760596
0.767149
0.774224
0.781821
0.789944
0.798592
0.807768
0.961483
0.947858
0.934815
0.922335
0.910422
0.899083
0.888323
0.878145
0.868549
0.859536
0.851105
0.843254
0.835981
0.829283
0.823157
0.8176
0.812609
0.808182
0.804315
0.801006
0.798252
0.796052
0.794403
0.793304
0.792756
0.792755
0.793305
0.794404
0.796052
0.798253
0.801007
0.804317
0.808183
0.812611
0.817601
0.823158
0.829285
0.835983
0.843257
0.851109
0.85954
0.868554
0.878151
0.888333
1.06307
1.04789
1.03337
1.01946
1.00619
0.993561
0.981574
0.970234
0.959544
0.949502
0.940108
0.93136
0.923256
0.915792
0.908966
0.902773
0.897213
0.892279
0.88797
0.884282
0.881213
0.878761
0.876923
0.875699
0.875088
0.875087
0.8757
0.876924
0.878761
0.881214
0.884283
0.887971
0.892281
0.897214
0.902775
0.908968
0.915795
0.923259
0.931363
0.940112
0.949506
0.959549
0.970241
0.981585
1.18136
1.16439
1.14814
1.13259
1.11774
1.10361
1.0902
1.07751
1.06555
1.05431
1.0438
1.03401
1.02494
1.01659
1.00895
1.00202
0.995792
0.99027
0.985447
0.98132
0.977885
0.97514
0.973083
0.971713
0.971029
0.971028
0.971714
0.973084
0.975141
0.977886
0.981321
0.985449
0.990272
0.995794
1.00202
1.00895
1.01659
1.02494
1.03401
1.0438
1.05431
1.06555
1.07752
1.09021
1.32008
1.30101
1.28274
1.26526
1.24857
1.23268
1.21761
1.20334
1.18989
1.17726
1.16544
1.15444
1.14424
1.13485
1.12626
1.11846
1.11146
1.10525
1.09983
1.09519
1.09133
1.08824
1.08593
1.08438
1.08361
1.08361
1.08439
1.08593
1.08824
1.09133
1.09519
1.09983
1.10526
1.11147
1.11847
1.12626
1.13485
1.14424
1.15444
1.16545
1.17727
1.1899
1.20335
1.21762
1.48401
1.46246
1.44182
1.42207
1.40321
1.38526
1.36822
1.3521
1.3369
1.32262
1.30926
1.29682
1.28529
1.27468
1.26496
1.25616
1.24824
1.24122
1.23509
1.22984
1.22548
1.22199
1.21937
1.21763
1.21676
1.21676
1.21763
1.21937
1.22199
1.22548
1.22985
1.23509
1.24123
1.24825
1.25616
1.26497
1.27468
1.2853
1.29682
1.30927
1.32262
1.33691
1.35211
1.36823
1.6794
1.65491
1.63145
1.609
1.58756
1.56715
1.54778
1.52946
1.51218
1.49594
1.48076
1.46661
1.45351
1.44143
1.43039
1.42038
1.41138
1.4034
1.39642
1.39045
1.38549
1.38152
1.37855
1.37656
1.37557
1.37557
1.37656
1.37855
1.38152
1.38549
1.39046
1.39642
1.4034
1.41138
1.42038
1.4304
1.44144
1.45351
1.46662
1.48076
1.49595
1.51219
1.52947
1.5478
1.56722
1.91453
1.88652
1.85968
1.83399
1.80946
1.7861
1.76394
1.74297
1.7232
1.70462
1.68724
1.67105
1.65605
1.64223
1.62959
1.61813
1.60783
1.59869
1.59071
1.58388
1.57819
1.57365
1.57024
1.56797
1.56684
1.56684
1.56797
1.57024
1.57365
1.57819
1.58388
1.59071
1.59869
1.60783
1.61813
1.6296
1.64224
1.65605
1.67105
1.68724
1.70463
1.72321
1.74298
1.76396
1.78616
2.20058
2.16829
2.13735
2.10773
2.07945
2.05253
2.02698
2.0028
1.98
1.95858
1.93854
1.91988
1.90258
1.88665
1.87207
1.85885
1.84697
1.83643
1.82723
1.81935
1.81279
1.80755
1.80363
1.80101
1.7997
1.7997
1.80101
1.80363
1.80755
1.81279
1.81935
1.82723
1.83644
1.84698
1.85885
1.87208
1.88665
1.90259
1.91988
1.93855
1.95859
1.98002
2.00282
2.027
2.05259
2.55287
2.51533
2.47936
2.44493
2.41205
2.38075
2.35104
2.32292
2.29641
2.27151
2.2482
2.22649
2.20638
2.18785
2.1709
2.15552
2.1417
2.12944
2.11874
2.10957
2.10194
2.09585
2.09128
2.08824
2.08672
2.08672
2.08824
2.09128
2.09585
2.10195
2.10958
2.11874
2.12945
2.14171
2.15552
2.1709
2.18785
2.20638
2.2265
2.24821
2.27152
2.29643
2.32294
2.35106
2.3808
2.41213
2.9929
2.94884
2.90661
2.86617
2.82757
2.79082
2.75593
2.72292
2.69179
2.66254
2.63518
2.60968
2.58606
2.56429
2.54439
2.52632
2.5101
2.4957
2.48312
2.47236
2.4634
2.45624
2.45087
2.4473
2.44551
2.44551
2.4473
2.45087
2.45624
2.4634
2.47236
2.48313
2.4957
2.5101
2.52633
2.54439
2.5643
2.58607
2.60969
2.63519
2.66256
2.69181
2.72295
2.75597
2.79088
2.82765
3.55155
3.49923
3.44909
3.40107
3.35523
3.31158
3.27015
3.23095
3.19397
3.15923
3.12673
3.09644
3.06838
3.04253
3.01888
2.99742
2.97815
2.96104
2.9461
2.93331
2.92266
2.91415
2.90778
2.90353
2.90141
2.90141
2.90353
2.90778
2.91416
2.92267
2.93331
2.9461
2.96105
2.97815
2.99743
3.01889
3.04254
3.06839
3.09646
3.12674
3.15925
3.194
3.23097
3.27019
3.31165
3.35531
3.40118
4.27442
4.21146
4.15111
4.09333
4.03815
3.98562
3.93576
3.88857
3.84407
3.80225
3.76312
3.72667
3.69288
3.66176
3.63329
3.60745
3.58424
3.56365
3.54566
3.53026
3.51744
3.50719
3.49952
3.4944
3.49185
3.49185
3.4944
3.49952
3.5072
3.51744
3.53026
3.54566
3.56366
3.58425
3.60746
3.6333
3.66177
3.6929
3.72668
3.76314
3.80227
3.84409
3.8886
3.9358
3.98569
4.03823
4.09342
5.231
5.15403
5.08024
5.00959
4.94213
4.87789
4.81692
4.75921
4.70479
4.65365
4.60579
4.56121
4.51989
4.48182
4.447
4.41539
4.387
4.36181
4.33979
4.32095
4.30527
4.29274
4.28335
4.27709
4.27396
4.27396
4.27709
4.28335
4.29274
4.30528
4.32096
4.3398
4.36181
4.38701
4.4154
4.44701
4.48184
4.51991
4.56123
4.60582
4.65368
4.70482
4.75925
4.81697
4.87797
4.94221
5.00968
6.53135
6.43544
6.34348
6.25543
6.17135
6.09129
6.01529
5.94337
5.87553
5.81179
5.75213
5.69655
5.64503
5.59757
5.55415
5.51474
5.47934
5.44792
5.42047
5.39697
5.37742
5.36178
5.35007
5.34227
5.33837
5.33837
5.34227
5.35007
5.36179
5.37742
5.39698
5.42048
5.44793
5.47935
5.51476
5.55416
5.59759
5.64505
5.69657
5.75215
5.81182
5.87557
5.94342
6.01536
6.09139
6.17145
6.25553
8.35776
8.23543
8.11812
8.00579
7.89853
7.79639
7.69943
7.60766
7.52111
7.43977
7.36363
7.2927
7.22696
7.16638
7.11095
7.06065
7.01545
6.97534
6.9403
6.9103
6.88533
6.86537
6.85041
6.84045
6.83547
6.83547
6.84045
6.85042
6.86538
6.88534
6.91031
6.94031
6.97536
7.01547
7.06067
7.11097
7.1664
7.22698
7.29273
7.36367
7.43981
7.52116
7.60772
7.69951
7.79652
7.89865
8.00591
11.0289
10.8683
10.7143
10.5668
10.4259
10.2918
10.1644
10.0439
9.9302
9.82334
9.72331
9.63011
9.54372
9.46411
9.39126
9.32514
9.26573
9.21301
9.16693
9.12749
9.09466
9.06842
9.04875
9.03564
9.0291
9.0291
9.03565
9.04875
9.06842
9.09467
9.1275
9.16695
9.21302
9.26576
9.32517
9.39129
9.46414
9.54375
9.63015
9.72336
9.82339
9.93026
10.044
10.1645
10.2919
10.4261
10.5669
10.7145
15.1391
14.9206
14.7109
14.5101
14.3184
14.1357
13.9623
13.7981
13.6432
13.4976
13.3613
13.2342
13.1165
13.0079
12.9086
12.8184
12.7374
12.6654
12.6026
12.5487
12.5039
12.4681
12.4413
12.4234
12.4145
12.4145
12.4234
12.4413
12.4681
12.504
12.5488
12.6026
12.6654
12.7374
12.8184
12.9086
13.008
13.1165
13.2343
13.3613
13.4977
13.6433
13.7982
13.9624
14.1359
14.3186
14.5103
14.7111
21.8799
21.5701
21.2726
20.9875
20.715
20.4553
20.2086
19.9749
19.7544
19.5469
19.3526
19.1715
19.0035
18.8486
18.7067
18.578
18.4622
18.3594
18.2696
18.1927
18.1286
18.0774
18.039
18.0135
18.0007
18.0007
18.0135
18.039
18.0774
18.1286
18.1927
18.2696
18.3595
18.4623
18.578
18.7068
18.8486
19.0035
19.1716
19.3527
19.547
19.7545
19.9751
20.2088
20.4556
20.7153
20.9877
21.2728
33.7898
33.3349
32.8975
32.4778
32.0761
31.6927
31.3279
30.9818
30.6547
30.3466
30.0576
29.7878
29.5373
29.306
29.094
28.9014
28.7281
28.574
28.4393
28.3239
28.2277
28.1508
28.0931
28.0547
28.0355
28.0355
28.0547
28.0931
28.1508
28.2277
28.3239
28.4394
28.5741
28.7281
28.9015
29.0941
29.3061
29.5374
29.7879
30.0577
30.3467
30.6549
30.9821
31.3282
31.6932
32.0765
32.4782
32.8979
57.3021
56.5677
55.8613
55.1831
54.5338
53.9139
53.3241
52.7647
52.2359
51.7381
51.2713
50.8356
50.4312
50.0581
49.7163
49.4057
49.1264
48.8782
48.6613
48.4754
48.3206
48.1969
48.1041
48.0422
48.0113
48.0113
48.0422
48.1041
48.1969
48.3207
48.4755
48.6614
48.8783
49.1265
49.4058
49.7164
50.0583
50.4314
50.8358
51.2715
51.7383
52.2362
52.7651
53.3246
53.9147
54.5345
55.1837
55.8619
113.542
112.189
110.887
109.635
108.436
107.29
106.199
105.163
104.184
103.261
102.395
101.587
100.836
100.143
99.5083
98.9312
98.4119
97.9506
97.5471
97.2014
96.9134
96.6831
96.5104
96.3953
96.3377
96.3378
96.3953
96.5104
96.6831
96.9135
97.2015
97.5472
97.9507
98.4121
98.9314
99.5085
100.144
100.836
101.587
102.395
103.261
104.184
105.164
106.2
107.291
108.437
109.636
110.888
295.774
292.729
289.791
286.963
284.25
281.653
279.177
276.823
274.593
272.49
270.515
268.668
266.951
265.365
263.91
262.586
261.395
260.335
259.407
258.612
257.95
257.42
257.022
256.757
256.625
256.625
256.757
257.022
257.42
257.95
258.613
259.408
260.335
261.395
262.587
263.91
265.366
266.952
268.669
270.516
272.491
274.594
276.824
279.179
281.656
284.253
286.966
289.794
1315.9
1306.76
1297.9
1289.35
1281.12
1273.21
1265.65
1258.44
1251.59
1245.12
1239.02
1233.31
1227.98
1223.05
1218.52
1214.39
1210.67
1207.35
1204.45
1201.95
1199.87
1198.21
1196.96
1196.13
1195.71
1195.71
1196.13
1196.96
1198.21
1199.87
1201.95
1204.45
1207.35
1210.67
1214.39
1218.52
1223.05
1227.98
1233.31
1239.02
1245.12
1251.6
1258.45
1265.66
1273.22
1281.12
1289.36
1297.91
0.188541
0.196425
0.204733
0.213512
0.222819
0.232716
0.243273
0.254569
0.266695
0.279753
0.293858
0.309142
0.325757
0.343874
0.363692
0.38544
0.40938
0.435821
0.46512
0.497697
0.534046
0.574752
0.620514
0.672165
0.730716
0.797393
0.873696
0.961483
1.06307
1.18136
1.32008
1.48401
1.6794
1.91453
2.20058
2.55286
2.9929
3.55155
4.27442
5.231
6.53135
8.35776
11.0289
15.1391
21.8799
33.7897
57.3021
113.542
295.774
1315.9
0.186388
0.194195
0.202416
0.211101
0.220302
0.230081
0.240508
0.25166
0.263627
0.276508
0.290418
0.305486
0.321861
0.339713
0.359237
0.380658
0.404237
0.430275
0.459125
0.491201
0.52699
0.567069
0.612124
0.662979
0.720628
0.786279
0.861413
0.947857
1.04789
1.16439
1.30101
1.46246
1.65491
1.88652
2.16829
2.51533
2.94883
3.49923
4.21146
5.15403
6.43544
8.23542
10.8683
14.9205
21.57
33.3348
56.5677
112.189
292.728
1306.76
0.184322
0.192056
0.200196
0.20879
0.217891
0.227559
0.237862
0.248878
0.260693
0.273406
0.287129
0.301991
0.318138
0.335737
0.35498
0.37609
0.399322
0.424974
0.453395
0.484992
0.520244
0.559721
0.6041
0.654192
0.710977
0.775646
0.849657
0.934814
1.03336
1.14814
1.28274
1.44182
1.63145
1.85968
2.13735
2.47936
2.9066
3.44908
4.1511
5.08023
6.34347
8.11811
10.7142
14.7109
21.2725
32.8975
55.8612
110.886
289.791
1297.9
0.182335
0.189999
0.198063
0.206571
0.215577
0.22514
0.235326
0.246211
0.257882
0.270435
0.283981
0.298646
0.314575
0.331932
0.350907
0.371718
0.394619
0.419903
0.447913
0.479051
0.513791
0.552692
0.596423
0.645784
0.701742
0.76547
0.838408
0.922333
1.01946
1.13258
1.26526
1.42207
1.609
1.83398
2.10773
2.44492
2.86617
3.40107
4.09332
5.00958
6.25542
8.00578
10.5667
14.5101
20.9874
32.4778
55.183
109.635
286.963
1289.35
0.180429
0.188028
0.196019
0.204446
0.213362
0.222824
0.232899
0.24366
0.255194
0.267594
0.280972
0.29545
0.311171
0.328298
0.347017
0.367545
0.39013
0.415063
0.442681
0.473382
0.507632
0.545984
0.589097
0.637761
0.692929
0.755759
0.827672
0.91042
1.00619
1.11774
1.24857
1.40321
1.58756
1.80945
2.07945
2.41204
2.82757
3.35522
4.03814
4.94211
6.17134
7.89851
10.4259
14.3183
20.7149
32.076
54.5336
108.435
284.249
1281.11
0.178604
0.186142
0.194064
0.202415
0.211246
0.220613
0.230583
0.241227
0.252631
0.264887
0.278104
0.292405
0.307929
0.324837
0.343314
0.363572
0.385857
0.410456
0.437702
0.467986
0.50177
0.5396
0.582125
0.630125
0.684541
0.746517
0.817453
0.899081
0.993558
1.1036
1.23268
1.38525
1.56715
1.7861
2.05253
2.38074
2.79081
3.31157
3.98561
4.87788
6.09128
7.79637
10.2918
14.1357
20.4553
31.6926
53.9138
107.29
281.653
1273.21
0.176861
0.184342
0.192199
0.200478
0.209229
0.218507
0.228377
0.238912
0.250192
0.262312
0.275379
0.289511
0.304849
0.32155
0.339797
0.3598
0.381801
0.406083
0.432976
0.462866
0.496208
0.533542
0.575509
0.622879
0.676582
0.737747
0.807756
0.88832
0.981571
1.09019
1.2176
1.36821
1.54778
1.76393
2.02697
2.35103
2.75593
3.27014
3.93575
4.8169
6.01527
7.69941
10.1644
13.9623
20.2085
31.3278
53.324
106.198
279.176
1265.65
0.175204
0.18263
0.190427
0.198638
0.207314
0.216508
0.226285
0.236716
0.247881
0.259873
0.272796
0.286771
0.301933
0.318439
0.336469
0.35623
0.377963
0.401946
0.428505
0.458022
0.490947
0.527812
0.569251
0.616026
0.669054
0.729451
0.798584
0.878142
0.970231
1.0775
1.20334
1.35209
1.52945
1.74296
2.00279
2.32291
2.72291
3.23094
3.88856
4.75919
5.94335
7.60764
10.0439
13.7981
19.9749
30.9817
52.7645
105.163
276.822
1258.44
0.173634
0.18101
0.18875
0.196899
0.205503
0.214619
0.224309
0.234642
0.245698
0.25757
0.270359
0.284185
0.299182
0.315504
0.33333
0.352864
0.374344
0.398046
0.424291
0.453457
0.485988
0.522411
0.563353
0.609566
0.661957
0.721631
0.789937
0.868547
0.95954
1.06554
1.18989
1.33689
1.51217
1.72319
1.98
2.2964
2.69178
3.19396
3.84405
4.70477
5.87551
7.52108
9.93016
13.6432
19.7543
30.6546
52.2358
104.183
274.592
1251.59
0.17215
0.179478
0.187166
0.195256
0.203795
0.212837
0.222445
0.232687
0.243642
0.255401
0.268065
0.281752
0.296594
0.312745
0.330379
0.349701
0.370944
0.394381
0.420331
0.449167
0.481329
0.517337
0.557812
0.603498
0.655292
0.714286
0.781816
0.859533
0.949498
1.0543
1.17726
1.32261
1.49594
1.70461
1.95858
2.2715
2.66253
3.15922
3.80223
4.65363
5.81176
7.43973
9.82329
13.4975
19.5468
30.3465
51.7379
103.26
272.489
1245.12
0.170757
0.17804
0.185679
0.193713
0.202191
0.211165
0.220696
0.230854
0.241715
0.253369
0.265917
0.279474
0.294172
0.310161
0.327617
0.34674
0.367762
0.390953
0.416627
0.445155
0.476971
0.512591
0.55263
0.597822
0.649057
0.707415
0.774218
0.851102
0.940104
1.04379
1.16544
1.30925
1.48075
1.68723
1.93853
2.24819
2.63516
3.12671
3.7631
4.60577
5.7521
7.3636
9.72327
13.3612
19.3525
30.0575
51.2711
102.395
270.514
1239.02
0.169449
0.176692
0.184285
0.192269
0.200691
0.209602
0.219063
0.229142
0.239916
0.251473
0.263912
0.277349
0.291913
0.307754
0.325044
0.343982
0.364798
0.387759
0.413177
0.441418
0.472913
0.508172
0.547804
0.592537
0.643252
0.701017
0.767144
0.843251
0.931356
1.034
1.15443
1.29681
1.4666
1.67104
1.91987
2.22648
2.60967
3.09643
3.72665
4.56119
5.69652
7.29267
9.63007
13.2342
19.1714
29.7877
50.8354
101.586
268.667
1233.3
0.168234
0.17544
0.182992
0.19093
0.1993
0.208153
0.217549
0.227556
0.238249
0.249716
0.262055
0.27538
0.28982
0.305523
0.32266
0.341427
0.362052
0.384801
0.409982
0.437957
0.469154
0.504079
0.543334
0.587642
0.637874
0.695091
0.76059
0.835977
0.923252
1.02493
1.14423
1.28529
1.4535
1.65604
1.90257
2.20636
2.58604
3.06837
3.69286
4.51987
5.645
7.22692
9.54367
13.1164
19.0034
29.5371
50.431
100.836
266.95
1227.98
0.167111
0.174283
0.181797
0.189692
0.198013
0.206813
0.216149
0.22609
0.236709
0.248093
0.260341
0.273564
0.28789
0.303466
0.320462
0.339072
0.359522
0.382075
0.407038
0.434769
0.465692
0.500309
0.539217
0.583133
0.632922
0.689633
0.754555
0.829279
0.915788
1.01658
1.13484
1.27467
1.44143
1.64222
1.88664
2.18783
2.56428
3.04251
3.66174
4.4818
5.59754
7.16634
9.46406
13.0078
18.8485
29.3059
50.0579
100.143
265.364
1223.05
0.166078
0.17322
0.180699
0.188555
0.196834
0.205585
0.214868
0.224747
0.235299
0.246608
0.258772
0.271901
0.286124
0.301584
0.318451
0.336918
0.357208
0.379583
0.404346
0.431853
0.462526
0.496862
0.535453
0.57901
0.628393
0.684642
0.749036
0.823153
0.908962
1.00894
1.12625
1.26496
1.43038
1.62958
1.87206
2.17088
2.54437
3.01886
3.63327
4.44697
5.55411
7.11091
9.39121
12.9085
18.7066
29.0939
49.716
99.5078
263.909
1218.52
0.165139
0.172253
0.1797
0.187522
0.195761
0.204468
0.213702
0.223527
0.234018
0.245259
0.257347
0.270392
0.28452
0.299876
0.316627
0.334963
0.355109
0.377321
0.401903
0.429208
0.459654
0.493734
0.532038
0.575271
0.624284
0.680114
0.744029
0.817596
0.902769
1.00201
1.11846
1.25615
1.42037
1.61812
1.85884
2.1555
2.52631
2.9974
3.60743
4.41537
5.51471
7.06061
9.32509
12.8183
18.5779
28.9012
49.4054
98.9307
262.585
1214.39
0.164292
0.17138
0.1788
0.18659
0.194794
0.203462
0.212652
0.222428
0.232864
0.244045
0.256065
0.269035
0.283079
0.298341
0.314987
0.333207
0.353222
0.375289
0.399709
0.426833
0.457074
0.490926
0.528971
0.571912
0.620595
0.676048
0.739533
0.812605
0.897208
0.995786
1.11146
1.24824
1.41137
1.60782
1.84696
2.14169
2.51008
2.97813
3.58422
4.38697
5.4793
7.01541
9.26568
12.7373
18.4621
28.7279
49.1261
98.4114
261.393
1210.67
0.163537
0.170603
0.177998
0.185761
0.193934
0.202568
0.21172
0.221453
0.231841
0.242967
0.254928
0.26783
0.2818
0.296979
0.313532
0.331648
0.351548
0.373487
0.397763
0.424725
0.454786
0.488434
0.526251
0.568933
0.617322
0.672441
0.735544
0.808178
0.892274
0.990265
1.10525
1.24122
1.40339
1.59868
1.83642
2.12943
2.49568
2.96102
3.56363
4.36178
5.44788
6.9753
9.21295
12.6653
18.3593
28.5739
48.878
97.9501
260.334
1207.35
0.162876
0.169924
0.177297
0.185035
0.193182
0.201786
0.210903
0.220599
0.230945
0.242024
0.253933
0.266777
0.280681
0.295788
0.31226
0.330287
0.350086
0.371913
0.396063
0.422885
0.452788
0.486258
0.523875
0.566331
0.614463
0.669291
0.73206
0.804311
0.887965
0.985442
1.09982
1.23508
1.39641
1.5907
1.82722
2.11872
2.4831
2.94608
3.54563
4.33976
5.42043
6.94025
9.16687
12.6025
18.2695
28.4391
48.661
97.5465
259.406
1204.44
0.16231
0.169341
0.176696
0.184414
0.192538
0.201116
0.210205
0.219868
0.230178
0.241218
0.253081
0.265876
0.279724
0.294769
0.311172
0.329121
0.348835
0.370565
0.394608
0.421309
0.451077
0.484396
0.521841
0.564104
0.612017
0.666595
0.729078
0.801001
0.884277
0.981314
1.09518
1.22984
1.39044
1.58386
1.81934
2.10956
2.47234
2.93329
3.53023
4.32092
5.39693
6.91025
9.12743
12.5487
18.1926
28.3237
48.4751
97.2008
258.611
1201.95
0.161836
0.168853
0.176193
0.183894
0.191999
0.200555
0.209621
0.219257
0.229538
0.240544
0.25237
0.265124
0.278926
0.293919
0.310265
0.328151
0.347793
0.369443
0.393396
0.419998
0.449654
0.482846
0.520149
0.562251
0.609982
0.664351
0.726597
0.798247
0.881208
0.977879
1.09132
1.22547
1.38548
1.57818
1.81278
2.10193
2.46338
2.92264
3.51741
4.30524
5.37738
6.88528
9.09459
12.5038
18.1285
28.2275
48.3203
96.9128
257.949
1199.87
0.161459
0.168465
0.175793
0.18348
0.19157
0.20011
0.209156
0.218771
0.229028
0.240008
0.251804
0.264524
0.27829
0.293241
0.309541
0.327375
0.34696
0.368547
0.392429
0.41895
0.448516
0.481607
0.518797
0.56077
0.608355
0.662559
0.724615
0.796047
0.878755
0.975134
1.08823
1.22198
1.38151
1.57363
1.80754
2.09583
2.45622
2.91413
3.50717
4.2927
5.36174
6.86532
9.06835
12.468
18.0773
28.1506
48.1965
96.6825
257.418
1198.2
0.161174
0.168172
0.175492
0.183169
0.191247
0.199775
0.208807
0.218406
0.228645
0.239605
0.251379
0.264074
0.277812
0.292734
0.308999
0.326795
0.346337
0.367876
0.391704
0.418165
0.447664
0.48068
0.517784
0.55966
0.607136
0.661216
0.723129
0.794398
0.876918
0.973077
1.08592
1.21936
1.37853
1.57023
1.80361
2.09126
2.45085
2.90776
3.49949
4.28331
5.35003
6.85036
9.04868
12.4412
18.0389
28.0929
48.1037
96.5097
257.021
1196.95
0.160983
0.167976
0.175289
0.18296
0.191031
0.19955
0.208572
0.218161
0.228388
0.239335
0.251095
0.263773
0.277493
0.292394
0.308637
0.326407
0.345921
0.367428
0.39122
0.417642
0.447096
0.480061
0.517108
0.558921
0.606324
0.66032
0.722139
0.793299
0.875693
0.971706
1.08438
1.21762
1.37655
1.56796
1.80099
2.08822
2.44728
2.90351
3.49437
4.27705
5.34222
6.84039
9.03557
12.4233
18.0133
28.0545
48.0419
96.3946
256.756
1196.12
0.160889
0.16788
0.17519
0.182857
0.190923
0.199438