/*--------------------------------*- C++ -*----------------------------------*\
  =========                 |
  \\      /  F ield         | OpenFOAM: The Open Source CFD Toolbox
   \\    /   O peration     | Website:  https://openfoam.org
    \\  /    A nd           | Version:  7
     \\/     M anipulation  |
\*---------------------------------------------------------------------------*/
FoamFile
{
    version     2.0;
    format      ascii;
    class       surfaceScalarField;
    location    "24000";
    object      phi;
}
// * * * * * * * * * * * * * * * * * * * * * * * * * * * * * * * * * * * * * //

dimensions      [0 3 -1 0 0 0 0];

internalField   nonuniform List<scalar> 
9474
(
4.84115e-24
-8.77066e-24
2.05599e-24
-4.25731e-23
4.75299e-24
4.77906e-23
7.96013e-24
3.19035e-24
-2.46367e-24
-3.19849e-24
1.39748e-24
1.77282e-23
2.33748e-24
3.23192e-23
1.50627e-24
2.18126e-23
4.59265e-24
6.2679e-23
5.7209e-24
6.94913e-23
7.02044e-24
4.04645e-24
8.34891e-24
3.29385e-23
8.71658e-24
-3.71169e-23
6.16732e-24
2.13812e-23
5.73357e-24
1.12367e-24
6.2373e-24
9.32458e-24
4.66176e-24
-6.3584e-23
5.21721e-24
1.24421e-23
4.64543e-24
-6.05593e-24
2.29983e-24
-4.1501e-23
4.47766e-24
3.42261e-23
5.96684e-24
3.28238e-25
2.19536e-24
-5.15714e-23
7.5831e-25
-3.21687e-23
7.21361e-25
3.96769e-25
2.99535e-25
3.41034e-24
-1.02961e-24
-5.17789e-23
-2.25131e-24
-2.06736e-23
-3.05283e-24
-6.59206e-23
-4.80286e-24
-1.86651e-23
-4.60167e-24
-2.93576e-23
-6.33773e-24
-4.80048e-23
-6.80536e-24
-3.94185e-23
-8.70196e-24
-3.6215e-23
-7.85792e-24
1.67426e-23
-5.59505e-24
1.74421e-23
-6.7428e-24
2.07462e-23
-2.13559e-23
3.14519e-24
-1.1753e-23
-3.35866e-24
1.58731e-24
3.47876e-23
2.26578e-24
2.08395e-23
1.60356e-24
3.01562e-23
4.64578e-24
6.1094e-23
5.56053e-24
3.35927e-23
6.87765e-24
6.91297e-24
8.31326e-24
4.12294e-23
8.64818e-24
-3.80455e-23
6.30167e-24
7.96591e-24
5.37658e-24
-8.12526e-24
6.26447e-24
2.29452e-23
4.57973e-24
-7.31389e-23
5.22667e-24
7.08171e-24
4.46021e-24
-9.09879e-24
2.39217e-24
-4.52461e-23
4.35156e-24
2.53264e-23
5.73746e-24
-7.83739e-24
2.14087e-24
-4.81307e-23
8.03579e-25
-3.15075e-23
5.22483e-25
-2.28205e-24
2.03871e-25
3.80095e-24
-1.20971e-24
-4.82253e-23
-2.25554e-24
-1.77182e-23
-3.0893e-24
-5.09403e-23
-4.76222e-24
-1.66093e-23
-4.66753e-24
-3.74426e-23
-6.31955e-24
-4.7617e-23
-6.73792e-24
-2.67269e-23
-8.55801e-24
-3.47811e-23
-7.8049e-24
1.39871e-23
-5.60705e-24
2.46175e-23
-6.79107e-24
2.02634e-23
-7.67442e-24
-2.3124e-23
-7.33728e-24
2.65083e-23
-5.8993e-24
3.08827e-23
-4.65153e-24
2.45625e-23
-5.11769e-24
1.49192e-23
-7.1144e-24
1.18518e-23
-5.23458e-24
3.64874e-23
2.06179e-23
3.12297e-24
-1.69758e-23
-3.35936e-24
1.57047e-24
2.45057e-23
2.1984e-24
2.00589e-23
1.70696e-24
4.39779e-23
4.47311e-24
5.93787e-23
5.51669e-24
2.07681e-23
6.74299e-24
1.52998e-23
8.18179e-24
4.36058e-23
8.66722e-24
-2.25708e-23
6.37133e-24
2.56694e-23
5.19848e-24
-1.19924e-23
6.24907e-24
3.64366e-23
4.51873e-24
-7.32662e-23
5.1379e-24
-6.27645e-24
4.33804e-24
-1.17774e-23
2.40366e-24
-4.38776e-23
4.16498e-24
1.7072e-23
5.5997e-24
-1.20415e-23
2.06043e-24
-4.53763e-23
8.30335e-25
-2.07153e-23
4.09442e-25
-5.23653e-24
6.40664e-26
2.11727e-25
-1.34691e-24
-4.40784e-23
-2.23119e-24
-2.02457e-23
-3.15631e-24
-5.30662e-23
-4.7623e-24
-1.44848e-23
-4.70459e-24
-3.47997e-23
-6.24934e-24
-4.70503e-23
-6.70435e-24
-2.66725e-23
-8.42294e-24
-2.79419e-23
-7.69906e-24
1.59518e-23
-5.72315e-24
1.95254e-23
-6.77228e-24
2.02638e-23
-7.59492e-24
-1.77825e-23
-7.26835e-24
2.79681e-23
-5.78648e-24
3.5123e-23
-4.75039e-24
7.6952e-24
-5.05058e-24
2.66417e-23
-7.03328e-24
1.88034e-24
-5.31262e-24
3.01144e-23
-2.88289e-24
1.48174e-23
-2.23986e-24
3.48566e-23
-6.72929e-24
-4.29997e-23
4.5735e-24
3.30096e-24
-1.74371e-23
-3.22545e-24
1.61667e-24
2.25952e-23
2.33732e-24
3.11776e-23
1.65717e-24
3.5611e-23
4.25498e-24
5.86654e-23
5.66899e-24
1.36315e-23
6.65115e-24
1.38505e-23
8.05268e-24
3.05554e-23
8.68616e-24
-1.95915e-23
6.27932e-24
2.66115e-23
5.12695e-24
-1.02386e-23
6.02996e-24
3.38841e-23
4.56071e-24
-7.35831e-23
5.13854e-24
2.81035e-24
4.16886e-24
-1.19361e-23
2.40479e-24
-3.82496e-23
3.95908e-24
1.43825e-23
5.44111e-24
2.62476e-25
2.10672e-24
-4.31882e-23
7.98934e-25
-2.00577e-23
2.75757e-25
-3.16195e-24
-1.56833e-26
6.29858e-24
-1.47693e-24
-3.43423e-23
-2.21064e-24
-1.86536e-23
-3.19083e-24
-4.93039e-23
-4.74226e-24
-2.08352e-24
-4.73482e-24
-3.30306e-23
-6.1643e-24
-4.61064e-23
-6.62398e-24
-2.69876e-23
-8.32824e-24
-3.26651e-23
-7.56003e-24
1.08957e-23
-5.83786e-24
1.44666e-23
-6.67377e-24
2.79055e-23
-7.50518e-24
-1.71172e-23
-7.24447e-24
1.52167e-23
-5.83203e-24
3.77334e-23
-4.61772e-24
-6.79161e-24
-5.24729e-24
2.21014e-23
-6.86329e-24
1.79218e-23
-5.36761e-24
2.98712e-23
-2.71664e-24
1.47845e-23
-2.32982e-24
2.87127e-23
-6.71395e-24
-3.99626e-23
-1.63422e-24
3.25615e-24
-1.85068e-23
-3.30327e-24
1.69648e-24
1.5646e-23
2.27817e-24
1.4842e-23
1.66672e-24
3.8915e-23
4.03684e-24
3.87026e-23
5.72715e-24
2.67441e-23
6.46611e-24
1.7581e-23
8.06817e-24
2.87413e-23
8.61015e-24
-5.69612e-24
6.32171e-24
2.75195e-23
5.02884e-24
-1.52133e-23
5.78021e-24
2.20592e-23
4.59291e-24
-5.6767e-23
5.1036e-24
1.04269e-23
3.98237e-24
-1.68533e-23
2.46144e-24
-4.08004e-23
3.89578e-24
2.20573e-23
5.269e-24
-7.13391e-24
2.07563e-24
-3.58215e-23
7.89559e-25
-2.26682e-23
2.40125e-25
-1.99277e-24
-9.26044e-26
-7.58073e-24
-1.59818e-24
-3.32471e-23
-2.17701e-24
-1.29783e-23
-3.15991e-24
-4.9324e-23
-4.7666e-24
3.47961e-24
-4.75671e-24
-2.65482e-23
-6.09313e-24
-4.39504e-23
-6.55624e-24
-2.27368e-23
-8.21489e-24
-3.04238e-23
-7.39314e-24
4.12262e-24
-5.92061e-24
1.08046e-23
-6.57274e-24
3.51522e-23
-7.53482e-24
-3.12116e-23
-7.22323e-24
1.612e-23
-5.78069e-24
2.81884e-23
-4.5127e-24
-5.76875e-24
-5.21265e-24
1.75357e-23
-6.76736e-24
9.78486e-24
-5.40486e-24
2.05168e-23
-2.74355e-24
9.85845e-24
-2.33579e-24
1.40332e-23
-6.6246e-24
-3.79371e-23
-1.26185e-23
3.26807e-24
-1.92294e-23
-3.33301e-24
1.80695e-24
2.75369e-23
2.23438e-24
1.39714e-23
1.64213e-24
4.04964e-23
3.95783e-24
4.65454e-23
5.61226e-24
1.84922e-23
6.36364e-24
1.782e-23
8.08791e-24
3.0475e-23
8.46407e-24
-3.20923e-23
6.39103e-24
6.71195e-24
4.86444e-24
-1.79709e-23
5.70534e-24
1.80288e-23
4.52959e-24
-4.22564e-23
5.10231e-24
8.85629e-24
3.87711e-24
-1.65739e-23
2.53356e-24
-3.57304e-23
3.75115e-24
1.94234e-23
5.16059e-24
-4.183e-24
1.99262e-24
-2.73093e-23
8.31255e-25
-1.77009e-23
1.22915e-25
-3.77459e-26
-1.13114e-25
-4.44477e-24
-1.69409e-24
-3.72411e-23
-2.17007e-24
-1.18131e-23
-3.08363e-24
-4.67081e-23
-4.77283e-24
5.27552e-24
-4.77667e-24
-2.53865e-23
-5.99731e-24
-4.35179e-23
-6.43819e-24
-2.36923e-23
-8.15541e-24
-3.871e-23
-7.19606e-24
1.86976e-23
-5.92913e-24
4.52708e-24
-6.57787e-24
3.11643e-23
-7.41346e-24
-2.99156e-23
-7.19027e-24
6.07563e-24
-5.81744e-24
2.81482e-23
-4.44307e-24
-1.05323e-23
-5.19678e-24
8.91921e-24
-6.5979e-24
1.64512e-23
-5.46729e-24
1.96447e-23
-2.72859e-24
2.82449e-23
-2.27313e-24
3.42105e-23
-6.53471e-24
-4.2575e-23
-9.19114e-24
3.35851e-24
-2.0916e-23
-3.29132e-24
1.8201e-24
1.64619e-23
2.29102e-24
1.34312e-23
1.63471e-24
4.39557e-23
3.79294e-24
4.37958e-23
5.51976e-24
1.48112e-23
6.30302e-24
1.11399e-23
7.94902e-24
3.85433e-23
8.45016e-24
-1.71464e-23
6.34625e-24
2.45915e-23
4.72122e-24
-1.31656e-23
5.6685e-24
1.5945e-23
4.40869e-24
-7.0559e-23
5.03359e-24
7.96667e-24
3.77066e-24
-1.67541e-23
2.5713e-24
-3.25448e-23
3.6023e-24
2.66423e-23
4.99959e-24
9.73589e-24
1.9513e-24
-2.34298e-23
8.22018e-25
-1.60754e-23
4.84702e-26
-8.89045e-24
-1.47055e-25
-7.25617e-24
-1.75604e-24
-3.70233e-23
-2.16581e-24
-1.15389e-23
-2.99927e-24
-3.91824e-23
-4.77262e-24
7.28993e-24
-4.80673e-24
-1.97631e-23
-5.88389e-24
-3.12243e-23
-6.3758e-24
-2.97357e-23
-7.94095e-24
-3.752e-23
-7.05916e-24
1.5324e-23
-5.92906e-24
-1.73333e-24
-6.47167e-24
3.10658e-23
-7.35129e-24
-3.29022e-23
-7.09638e-24
1.17671e-23
-5.67438e-24
2.21044e-23
-4.45536e-24
-1.35959e-23
-5.17179e-24
1.19055e-23
-6.39411e-24
1.65363e-23
-5.49604e-24
2.39657e-23
-2.58363e-24
2.55402e-23
-2.39541e-24
3.65226e-23
-6.35821e-24
-4.53811e-23
-6.85937e-24
-4.63624e-24
-1.36073e-23
3.41122e-24
-1.7977e-23
-3.273e-24
1.85055e-24
1.02819e-23
2.19606e-24
-7.52752e-25
1.68543e-24
4.65116e-23
3.57162e-24
3.74936e-23
5.51413e-24
2.14611e-23
6.28209e-24
1.51623e-23
7.74513e-24
4.13881e-23
8.40895e-24
-7.9565e-24
6.2752e-24
2.26298e-23
4.49234e-24
-2.09384e-23
5.53834e-24
1.72136e-23
4.33855e-24
-6.87011e-23
5.0062e-24
5.45608e-24
3.59368e-24
-2.51269e-23
2.67285e-24
-2.91892e-23
3.54327e-24
2.06806e-23
4.83435e-24
1.74458e-23
1.94784e-24
-1.99415e-23
7.87244e-25
-1.89984e-23
-3.07806e-26
-1.10129e-23
-1.72692e-25
7.06088e-26
-1.78912e-24
-3.96481e-23
-2.12727e-24
-1.58952e-23
-2.92046e-24
-3.66743e-23
-4.76387e-24
-7.10697e-24
-4.78232e-24
-1.45139e-23
-5.83392e-24
-2.82295e-23
-6.26647e-24
-3.1159e-23
-7.75717e-24
-3.66009e-23
-6.93997e-24
3.0272e-23
-5.93359e-24
-3.27141e-24
-6.48354e-24
2.22586e-23
-7.21964e-24
-2.79005e-23
-7.05887e-24
7.10316e-24
-5.53829e-24
2.39326e-23
-4.36413e-24
-1.7284e-23
-5.07838e-24
1.1715e-23
-6.20001e-24
6.74869e-24
-5.42546e-24
2.71464e-23
-2.45926e-24
3.76335e-23
-2.44152e-24
2.90162e-23
-6.22938e-24
-5.33834e-23
-6.63704e-24
-4.78432e-24
-1.94754e-23
3.41758e-24
-1.99941e-23
-3.23884e-24
1.89859e-24
2.73331e-24
2.19039e-24
-1.85382e-23
1.67795e-24
4.03332e-23
3.41006e-24
5.10974e-23
5.49226e-24
3.65489e-23
6.15059e-24
1.57585e-23
7.71752e-24
3.96493e-23
8.25021e-24
1.4713e-24
6.20401e-24
2.54078e-23
4.46056e-24
-3.37813e-23
5.34301e-24
1.66404e-23
4.37597e-24
-5.84425e-23
4.88582e-24
1.062e-24
3.51998e-24
-2.38731e-23
2.70341e-24
-1.88182e-23
3.43764e-24
1.95756e-23
4.68487e-24
1.55003e-23
1.87087e-24
-2.62975e-23
7.56924e-25
-1.49389e-23
-6.71276e-26
-9.29012e-24
-2.37803e-25
5.74439e-24
-1.82602e-24
-3.28082e-23
-2.05701e-24
-2.02555e-23
-2.88721e-24
-3.46558e-23
-4.67237e-24
-1.41782e-23
-4.77141e-24
-1.35039e-23
-5.76597e-24
-2.52678e-23
-6.14495e-24
-3.30612e-23
-7.53257e-24
-3.55192e-23
-6.86038e-24
2.465e-23
-5.90266e-24
-4.80793e-24
-6.37716e-24
3.21465e-23
-7.11156e-24
-2.51965e-23
-7.00795e-24
1.09318e-23
-5.44043e-24
3.20312e-23
-4.22292e-24
-9.159e-24
-5.04421e-24
3.34881e-24
-6.01169e-24
1.93211e-24
-5.42498e-24
2.35205e-23
-2.37567e-24
3.65714e-23
-2.4607e-24
2.02912e-23
-6.07133e-24
-4.78603e-23
-6.50321e-24
-4.30186e-24
-2.5227e-23
3.36131e-24
-6.13642e-24
-3.24652e-24
1.90916e-24
1.0058e-23
2.27776e-24
-1.85757e-23
1.59854e-24
4.35835e-23
3.3148e-24
4.89776e-23
5.39014e-24
4.38183e-23
6.04294e-24
1.73373e-23
7.60572e-24
4.74456e-23
8.10631e-24
-6.44679e-27
6.02972e-24
1.91462e-23
4.26134e-24
-3.00949e-23
5.21523e-24
2.11662e-23
4.30511e-24
-4.28514e-23
4.91595e-24
-4.55865e-24
3.39274e-24
-2.76934e-23
2.75179e-24
-1.01347e-23
3.32894e-24
1.42167e-23
4.57504e-24
3.01393e-23
1.79143e-24
-2.84482e-23
7.51257e-25
-1.41558e-23
-9.21664e-26
-6.6237e-24
-2.62721e-25
7.55663e-24
-1.87736e-24
-3.91177e-23
-1.97818e-24
-1.96456e-23
-2.87138e-24
-3.33962e-23
-4.55672e-24
-1.2392e-23
-4.75363e-24
-3.64142e-24
-5.72279e-24
-1.82333e-23
-6.01305e-24
-1.77321e-23
-7.30966e-24
-3.46336e-23
-6.76453e-24
2.12964e-23
-5.84371e-24
3.71513e-24
-6.31679e-24
2.52162e-23
-7.01289e-24
-1.97253e-23
-6.86582e-24
7.11525e-24
-5.4198e-24
2.80591e-23
-4.20653e-24
-2.05936e-24
-4.90298e-24
1.36999e-23
-5.73392e-24
4.41135e-24
-5.29728e-24
2.52757e-23
-2.36203e-24
3.86912e-23
-2.37931e-24
2.22347e-23
-5.97827e-24
-5.24589e-23
-6.35026e-24
-1.05867e-24
3.35526e-24
2.44337e-24
-3.18776e-24
1.91889e-24
-1.38879e-24
2.28703e-24
-2.29051e-23
1.64899e-24
4.32451e-23
3.20546e-24
3.74832e-23
5.30975e-24
3.72121e-23
5.89416e-24
1.81391e-23
7.43308e-24
5.16905e-23
8.0455e-24
1.75185e-24
5.8889e-24
2.71544e-23
4.14264e-24
-2.6626e-23
5.13563e-24
1.92445e-23
4.15252e-24
-3.39606e-23
4.78476e-24
-4.97613e-24
3.36326e-24
-1.58242e-23
2.73233e-24
-1.05468e-23
3.27999e-24
9.12095e-24
4.36933e-24
2.41854e-23
1.73114e-24
-3.54936e-23
7.79398e-25
-8.38178e-24
-1.32647e-25
-3.88071e-24
-3.16869e-25
9.27928e-24
-1.91544e-24
-3.59511e-23
-1.90284e-24
-1.92531e-23
-2.83715e-24
-3.22153e-23
-4.40965e-24
-1.0775e-23
-4.74184e-24
-7.84732e-24
-5.62925e-24
-1.47961e-23
-5.90428e-24
-1.68296e-23
-7.122e-24
-3.15747e-23
-6.62342e-24
1.33186e-23
-5.7872e-24
3.88424e-24
-6.19264e-24
3.26247e-23
-6.8908e-24
-1.92738e-23
-6.76646e-24
2.0189e-24
-5.28282e-24
2.56504e-23
-4.13876e-24
9.2527e-24
-4.82048e-24
1.7698e-23
-5.5988e-24
4.03238e-24
-5.17694e-24
2.78555e-23
-2.39818e-24
2.5811e-23
-2.38136e-24
2.30682e-23
-5.77522e-24
-5.89377e-23
7.86124e-24
3.26006e-24
-1.35317e-23
-3.25182e-24
1.8986e-24
-8.14332e-24
2.33284e-24
-2.56367e-23
1.68178e-24
2.70461e-23
3.05968e-24
4.84184e-23
5.22796e-24
4.73149e-23
5.81578e-24
3.39749e-23
7.17938e-24
5.05943e-23
7.91074e-24
2.05537e-23
5.74473e-24
7.20524e-24
4.00258e-24
-1.42365e-23
5.12626e-24
1.73351e-23
3.95852e-24
-2.54665e-23
4.75587e-24
-1.00785e-23
3.2284e-24
-9.425e-24
2.74568e-24
-1.19828e-23
3.2256e-24
-1.24873e-24
4.20046e-24
3.18286e-23
1.6603e-24
-3.26099e-23
7.71004e-25
-3.4644e-24
-1.90432e-25
-1.1372e-23
-3.68456e-25
1.14019e-23
-1.93821e-24
-2.86676e-23
-1.84201e-24
-1.8389e-23
-2.78193e-24
-3.53352e-23
-4.28171e-24
-9.40597e-24
-4.69092e-24
-8.8594e-24
-5.52411e-24
-6.2591e-24
-5.79877e-24
-1.86306e-23
-6.92796e-24
-2.96951e-23
-6.45608e-24
6.18336e-24
-5.69479e-24
4.51327e-24
-6.11235e-24
2.73022e-23
-6.82482e-24
-1.80135e-23
-6.64876e-24
-2.36934e-24
-5.10225e-24
1.17597e-23
-4.15631e-24
6.59629e-24
-4.70562e-24
1.02501e-23
-5.51043e-24
-5.21146e-24
-5.10448e-24
2.034e-23
-2.26643e-24
3.60352e-23
-2.40434e-24
6.27262e-24
-5.51047e-24
-5.55183e-23
-7.76344e-24
3.20609e-24
-1.71426e-23
-3.22344e-24
1.88012e-24
-5.28917e-24
2.26854e-24
-2.57928e-23
1.75454e-24
3.70408e-23
2.94062e-24
3.44646e-23
5.17761e-24
5.72387e-23
5.6619e-24
1.94366e-23
7.04174e-24
5.25195e-23
7.68728e-24
1.75032e-23
5.6597e-24
1.11415e-23
3.80174e-24
-2.23436e-23
5.06366e-24
1.50502e-23
3.85089e-24
-3.31944e-23
4.68585e-24
-9.50536e-24
3.11475e-24
-4.83768e-24
2.71791e-24
-1.22478e-23
3.15241e-24
2.93588e-24
4.01871e-24
3.45408e-23
1.65881e-24
-3.86145e-23
7.26259e-25
-2.11572e-24
-1.91643e-25
-1.79771e-23
-4.21419e-25
1.39874e-23
-1.96344e-24
-2.5747e-23
-1.78257e-24
-1.64884e-23
-2.69941e-24
-3.42227e-23
-4.18283e-24
-1.19514e-23
-4.6144e-24
-1.00812e-23
-5.44171e-24
-1.37862e-23
-5.67897e-24
-1.45392e-23
-6.75821e-24
-2.96046e-23
-6.31417e-24
5.36222e-25
-5.60992e-24
5.47541e-24
-6.01791e-24
1.45947e-23
-6.72623e-24
-2.19608e-23
-6.56606e-24
-7.05442e-24
-4.9344e-24
1.10519e-23
-4.14734e-24
1.1346e-24
-4.59521e-24
1.11219e-23
-5.31444e-24
-1.6735e-24
-5.00639e-24
2.53301e-23
-2.25163e-24
3.63492e-23
-2.34632e-24
8.26185e-24
-5.36187e-24
-5.99687e-23
-3.01109e-24
3.1478e-24
-2.56855e-23
-3.11223e-24
1.89301e-24
-6.1757e-24
2.30313e-24
-1.5028e-23
1.77571e-24
3.74755e-23
2.89843e-24
3.32377e-23
5.04724e-24
5.51151e-23
5.53344e-24
2.90503e-23
6.96589e-24
6.11521e-23
7.44565e-24
1.60344e-23
5.54235e-24
1.49955e-23
3.70865e-24
-1.89494e-23
4.86203e-24
9.21209e-24
3.72773e-24
-3.335e-23
4.6443e-24
-1.42074e-23
2.99482e-24
-2.01249e-24
2.70589e-24
-1.00361e-23
3.10166e-24
6.78541e-25
3.80214e-24
3.02193e-23
1.63807e-24
-3.25635e-23
6.74883e-25
-1.04527e-23
-1.58133e-25
-1.56718e-23
-4.70177e-25
1.66802e-23
-1.98722e-24
-1.81811e-23
-1.7435e-24
-7.44716e-24
-2.62397e-24
-3.41955e-23
-4.05473e-24
-2.01809e-23
-4.55991e-24
-1.06228e-23
-5.30632e-24
-1.49847e-24
-5.56724e-24
-1.37914e-23
-6.63922e-24
-2.95217e-23
-6.08546e-24
-2.32898e-24
-5.56382e-24
6.6026e-24
-5.91607e-24
2.13403e-23
-6.62956e-24
-2.24424e-23
-6.48006e-24
-1.79525e-24
-4.78824e-24
1.18795e-23
-4.04356e-24
5.6693e-25
-4.42218e-24
1.02238e-23
-5.18753e-24
-5.09911e-24
-4.88214e-24
2.87778e-23
-2.2546e-24
3.63444e-23
-2.3963e-24
8.57685e-24
-5.18689e-24
-5.6815e-23
-8.19951e-24
3.03252e-24
-3.41613e-23
-3.03684e-24
1.98453e-24
-7.11905e-25
2.28974e-24
-2.32032e-23
1.79181e-24
3.90406e-23
2.74474e-24
2.67259e-23
4.93315e-24
5.35902e-23
5.48636e-24
3.2074e-23
6.70476e-24
6.0222e-23
7.20357e-24
1.05446e-23
5.43058e-24
1.86844e-23
3.58365e-24
-2.37679e-23
4.72872e-24
1.20328e-23
3.62697e-24
-3.28043e-23
4.60026e-24
-1.05198e-23
2.87344e-24
-1.13062e-23
2.66414e-24
-1.34796e-23
3.05743e-24
-1.57142e-25
3.607e-24
1.49403e-23
1.5753e-24
-3.35583e-23
6.60906e-25
-4.93133e-25
-1.32336e-25
-9.48181e-24
-4.83865e-25
9.1712e-24
-2.00615e-24
-2.62385e-23
-1.72321e-24
-7.3881e-24
-2.55921e-24
-3.06187e-23
-3.90532e-24
-1.88361e-23
-4.48209e-24
-1.14009e-23
-5.19962e-24
4.32171e-24
-5.45416e-24
-9.5696e-24
-6.4869e-24
-2.01932e-23
-5.89159e-24
6.77185e-24
-5.48277e-24
1.08652e-23
-5.84271e-24
2.65878e-23
-6.4446e-24
-1.38557e-23
-6.44593e-24
-5.30439e-24
-4.57134e-24
1.34981e-23
-3.99142e-24
-1.64551e-25
-4.3826e-24
1.30588e-23
-4.99645e-24
-4.95534e-24
-4.79517e-24
3.79425e-23
-2.21387e-24
3.51292e-23
-2.36494e-24
1.41652e-23
-5.02739e-24
-5.49454e-23
-9.53611e-24
3.06209e-24
-3.53416e-23
-2.91482e-24
1.90694e-24
-1.05079e-23
2.32762e-24
-1.27925e-23
1.75982e-24
3.23195e-23
2.64029e-24
1.77686e-23
4.75627e-24
3.77361e-23
5.35656e-24
2.84454e-23
6.47494e-24
4.47133e-23
7.03213e-24
8.89094e-24
5.20448e-24
2.20113e-23
3.41722e-24
-2.41162e-23
4.65895e-24
9.81173e-24
3.50915e-24
-4.04639e-23
4.51689e-24
-9.16749e-25
2.79007e-24
-1.75913e-23
2.58783e-24
-1.10466e-23
2.95713e-24
-3.27214e-24
3.47937e-24
5.57455e-24
1.54255e-24
-3.24637e-23
6.3159e-25
-4.6938e-24
-1.26718e-25
-4.99094e-24
-5.2902e-25
1.57329e-24
-1.97131e-24
-2.37302e-23
-1.72061e-24
-8.82025e-24
-2.48721e-24
-2.11484e-23
-3.77098e-24
-1.67743e-23
-4.35402e-24
-2.05113e-24
-5.11006e-24
1.49323e-24
-5.31304e-24
-5.38292e-24
-6.321e-24
-2.14212e-23
-5.73905e-24
4.85819e-24
-5.35604e-24
1.08115e-23
-5.77371e-24
1.5618e-23
-6.34426e-24
-1.07213e-23
-6.29318e-24
-5.78703e-24
-4.40264e-24
2.80215e-23
-3.99757e-24
-4.17624e-24
-4.25539e-24
2.1605e-23
-4.82493e-24
5.44626e-25
-4.64916e-24
4.71633e-23
-2.23744e-24
2.43462e-23
-2.31859e-24
9.39421e-24
-4.8084e-24
-4.19502e-23
-1.18711e-23
3.00749e-24
-3.66174e-23
-2.81345e-24
1.92064e-24
-1.37776e-23
2.30375e-24
-9.12172e-24
1.73309e-24
1.82496e-23
2.57348e-24
1.34521e-23
4.73139e-24
2.15209e-23
5.19455e-24
2.18144e-23
6.31575e-24
3.95916e-23
6.8217e-24
3.24492e-24
5.05997e-24
2.94119e-23
3.31435e-24
-2.22233e-23
4.47548e-24
6.33205e-24
3.44282e-24
-3.58688e-23
4.38064e-24
-5.52302e-24
2.71427e-24
-1.61086e-23
2.52159e-24
-3.14593e-24
2.84014e-24
-3.25383e-24
3.37489e-24
8.65819e-24
1.51186e-24
-3.09601e-23
6.20029e-25
-4.03072e-24
-1.62969e-25
-7.74381e-24
-5.42405e-25
-6.3253e-24
-1.93189e-24
-1.39686e-23
-1.67538e-24
-7.51003e-24
-2.43664e-24
-2.10593e-23
-3.6172e-24
-1.4418e-23
-4.27419e-24
-4.05289e-24
-4.98596e-24
-2.68207e-25
-5.19658e-24
-5.01995e-24
-6.12921e-24
-2.66417e-23
-5.57397e-24
6.81724e-24
-5.28041e-24
1.06598e-23
-5.68089e-24
1.04109e-23
-6.20154e-24
-1.04272e-23
-6.17662e-24
-1.48465e-23
-4.30534e-24
3.79135e-23
-3.86092e-24
-3.58293e-25
-4.10682e-24
2.96645e-23
-4.66852e-24
1.45797e-24
-4.64335e-24
3.16078e-23
-2.21985e-24
1.41314e-23
-2.25056e-24
2.00979e-23
-4.7562e-24
-3.94463e-23
-4.25378e-25
2.93179e-24
-4.24083e-23
-2.71412e-24
1.98208e-24
-1.77547e-23
2.22496e-24
-1.68816e-24
1.74802e-24
6.94867e-24
2.47596e-24
2.40102e-24
4.65769e-24
2.02491e-23
5.01395e-24
2.19615e-23
6.13704e-24
4.2579e-23
6.67942e-24
1.29375e-23
4.84274e-24
3.1597e-23
3.1388e-24
-2.0103e-23
4.35895e-24
3.57892e-24
3.31123e-24
-2.87347e-23
4.28433e-24
-9.45097e-24
2.675e-24
-2.0275e-23
2.40775e-24
-8.33825e-24
2.76147e-24
-3.16765e-24
3.20444e-24
1.1025e-24
1.50451e-24
-2.51978e-23
5.93652e-25
-7.13689e-24
-1.89632e-25
-4.97409e-24
-5.02591e-25
-4.03677e-24
-1.92885e-24
-2.15748e-23
-1.62596e-24
-2.87868e-24
-2.3731e-24
-2.13503e-23
-3.47152e-24
-1.22236e-23
-4.1921e-24
-1.18209e-23
-4.84901e-24
1.10539e-24
-5.09384e-24
-4.01763e-24
-5.93721e-24
-2.74853e-23
-5.41384e-24
-1.44279e-24
-5.19893e-24
6.50896e-24
-5.54914e-24
2.46305e-23
-6.08134e-24
-9.88442e-24
-5.9964e-24
-1.54611e-23
-4.21617e-24
3.6417e-23
-3.75106e-24
8.52566e-24
-3.96629e-24
2.62539e-23
-4.5493e-24
2.17585e-24
-4.58614e-24
3.17115e-23
-2.1322e-24
1.27392e-23
-2.26744e-24
1.49892e-23
-4.58461e-24
-4.114e-23
-1.70062e-25
2.81289e-24
-4.0191e-23
-2.62471e-24
2.02887e-24
-1.83375e-23
2.11711e-24
-1.97891e-24
1.72804e-24
6.56384e-24
2.34002e-24
-2.53817e-24
4.58255e-24
1.83706e-23
4.88396e-24
2.24772e-23
5.9682e-24
3.76551e-23
6.54707e-24
1.16288e-23
4.62477e-24
2.29882e-23
2.95041e-24
-1.81053e-23
4.26451e-24
4.70909e-24
3.12803e-24
-2.82684e-23
4.20869e-24
-1.02961e-23
2.61128e-24
-3.01088e-23
2.34232e-24
-1.04985e-23
2.67241e-24
-7.32158e-24
3.08046e-24
-7.69906e-24
1.44437e-24
-1.96841e-23
5.77079e-25
-6.46083e-24
-2.11311e-25
-2.74727e-24
-4.98134e-25
-4.93083e-24
-1.87789e-24
-2.02477e-23
-1.59356e-24
1.03879e-24
-2.29152e-24
-2.06223e-23
-3.36138e-24
-1.00529e-23
-4.07185e-24
-7.75751e-24
-4.72341e-24
1.96023e-24
-4.98353e-24
-4.46458e-24
-5.74891e-24
-2.39372e-23
-5.24652e-24
-9.53036e-24
-5.06223e-24
2.20965e-24
-5.46621e-24
2.29083e-23
-5.97004e-24
-5.74785e-24
-5.81858e-24
-1.5536e-23
-4.07761e-24
4.16874e-23
-3.69291e-24
8.31454e-24
-3.85163e-24
2.67376e-23
-4.4175e-24
2.51454e-24
-4.51575e-24
2.78261e-23
-2.07552e-24
1.84348e-23
-2.27739e-24
2.96023e-23
-4.41949e-24
-3.87409e-23
-4.37339e-25
2.74068e-24
-4.14773e-23
-2.51223e-24
2.01261e-24
-1.91138e-23
2.06907e-24
-9.23129e-24
1.62876e-24
1.40923e-23
2.28219e-24
1.54165e-23
4.48815e-24
1.22033e-23
4.75067e-24
7.93137e-24
5.76944e-24
3.68896e-23
6.29884e-24
3.2994e-24
4.48366e-24
1.75916e-23
2.83711e-24
-1.65078e-23
4.10093e-24
2.71105e-24
3.00785e-24
-1.94388e-23
4.08537e-24
-3.47116e-24
2.56111e-24
-2.9027e-23
2.26285e-24
-1.96626e-23
2.58948e-24
-1.20801e-23
2.96351e-24
-1.67191e-23
1.42897e-24
-1.79853e-23
5.47327e-25
-9.92385e-24
-2.47627e-25
-1.44474e-24
-4.96445e-25
6.83537e-25
-1.8167e-24
-2.31766e-23
-1.56683e-24
-2.61943e-24
-2.20703e-24
-1.96298e-23
-3.25051e-24
-7.80996e-24
-3.94231e-24
-8.66061e-25
-4.60213e-24
2.70507e-24
-4.84095e-24
-8.73374e-24
-5.59757e-24
-2.38747e-23
-5.08042e-24
-7.31347e-25
-4.90653e-24
-2.19172e-24
-5.38282e-24
2.94232e-23
-5.84312e-24
5.07313e-24
-5.64147e-24
-1.12489e-23
-3.95977e-24
4.32754e-23
-3.62159e-24
1.27465e-24
-3.78755e-24
1.98559e-23
-4.32477e-24
2.23614e-24
-4.46041e-24
2.0665e-23
-1.95514e-24
2.35851e-23
-2.23589e-24
2.58592e-23
-4.2769e-24
-3.60076e-23
9.80757e-24
2.70413e-24
-3.62155e-23
-2.39139e-24
1.98825e-24
-2.00106e-23
2.06054e-24
-2.58481e-24
1.60616e-24
3.59866e-24
2.17597e-24
1.53417e-23
4.34286e-24
1.03914e-23
4.64546e-24
1.45233e-23
5.57153e-24
2.93444e-23
6.07683e-24
-7.3955e-25
4.30279e-24
5.58505e-24
2.66552e-24
-2.1894e-23
3.98086e-24
1.20694e-23
2.90458e-24
-1.39921e-23
3.93291e-24
-1.05907e-24
2.47707e-24
-2.78011e-23
2.19374e-24
-9.43732e-24
2.44685e-24
-1.67084e-23
2.921e-24
-1.23516e-23
1.39463e-24
-1.63544e-23
5.06134e-25
-9.07812e-24
-2.42939e-25
3.6215e-24
-5.05095e-25
2.05306e-24
-1.75628e-24
-2.30082e-23
-1.52609e-24
-2.8537e-24
-2.12675e-24
-1.12205e-23
-3.117e-24
-5.51705e-24
-3.83538e-24
-3.19392e-25
-4.49762e-24
3.27723e-24
-4.70206e-24
-9.03419e-24
-5.43916e-24
-2.73013e-23
-4.92114e-24
-3.47315e-24
-4.74671e-24
1.77029e-24
-5.2601e-24
2.51484e-23
-5.72759e-24
1.31862e-23
-5.44544e-24
-7.72894e-24
-3.87866e-24
4.45491e-23
-3.55448e-24
5.77185e-24
-3.6915e-24
1.62075e-23
-4.21947e-24
-2.64358e-24
-4.29285e-24
2.52331e-23
-1.91428e-24
2.82841e-23
-2.21788e-24
2.65863e-23
-4.11566e-24
-2.66394e-23
-4.55971e-24
5.15178e-26
-1.48228e-23
2.62784e-24
-2.79848e-23
-2.28683e-24
1.97551e-24
-1.47468e-23
1.97484e-24
3.4714e-25
1.61138e-24
3.24645e-24
2.0062e-24
1.49578e-23
4.20571e-24
1.39704e-23
4.50596e-24
1.41333e-23
5.36846e-24
2.30521e-23
5.88583e-24
-4.30409e-24
4.16041e-24
6.90071e-24
2.55179e-24
-1.41762e-23
3.85766e-24
2.02811e-23
2.77755e-24
-8.49393e-24
3.79282e-24
-1.00114e-23
2.43112e-24
-3.00212e-23
2.0887e-24
-1.95192e-23
2.37527e-24
-9.65625e-24
2.8431e-24
-1.46318e-24
1.37323e-24
-1.49159e-23
4.98917e-25
-7.67072e-24
-2.78973e-25
-1.84071e-24
-5.04027e-25
2.57571e-24
-1.70907e-24
-1.94795e-23
-1.45363e-24
-3.03006e-24
-2.06383e-24
-1.97695e-23
-2.98455e-24
-3.35209e-24
-3.72634e-24
-3.63778e-24
-4.37715e-24
3.62675e-24
-4.58073e-24
1.34708e-24
-5.26556e-24
-2.32995e-23
-4.74098e-24
-8.31127e-25
-4.60661e-24
-1.83821e-24
-5.14201e-24
2.17928e-23
-5.63772e-24
1.05309e-23
-5.29679e-24
2.26733e-24
-3.78698e-24
4.11169e-23
-3.49116e-24
1.6752e-23
-3.59041e-24
1.25806e-23
-4.11531e-24
-7.59752e-24
-4.20808e-24
1.95036e-23
-1.8955e-24
2.93825e-23
-2.18659e-24
3.03334e-23
-3.9868e-24
-1.97154e-23
-4.37817e-24
-2.42992e-24
-1.29919e-23
2.58717e-24
-2.07225e-23
-2.1726e-24
1.99858e-24
-2.10343e-23
1.90017e-24
-5.42989e-24
1.57739e-24
-5.91732e-24
1.91808e-24
1.46803e-23
4.14806e-24
1.70313e-23
4.31562e-24
1.43414e-23
5.17683e-24
1.75331e-23
5.64172e-24
-3.50926e-24
3.94983e-24
9.91684e-24
2.45813e-24
-1.66013e-23
3.7405e-24
1.87777e-23
2.59684e-24
-5.82334e-24
3.68443e-24
-8.59669e-24
2.34529e-24
-2.87196e-23
2.01246e-24
-2.51694e-23
2.28737e-24
-1.00133e-23
2.69998e-24
1.53413e-24
1.35188e-24
-1.02901e-23
4.66867e-25
-9.23813e-24
-2.87571e-25
2.21432e-24
-5.12264e-25
2.92454e-24
-1.65626e-24
-1.98592e-23
-1.40223e-24
-6.94029e-24
-1.9702e-24
-2.14534e-23
-2.87455e-24
-4.98823e-24
-3.60197e-24
-2.77948e-24
-4.24478e-24
-3.13379e-24
-4.46666e-24
-2.04593e-24
-5.07732e-24
-2.28003e-23
-4.58754e-24
1.57873e-24
-4.4162e-24
-5.31357e-24
-5.00233e-24
1.24509e-23
-5.49638e-24
8.11982e-24
-5.17435e-24
4.86432e-24
-3.6583e-24
4.44068e-23
-3.4596e-24
1.4286e-23
-3.49599e-24
1.56522e-23
-3.98508e-24
-8.41981e-24
-4.08253e-24
2.34679e-23
-1.82756e-24
2.0748e-23
-2.1421e-24
2.5993e-23
-3.86969e-24
-1.77865e-23
-4.23792e-24
1.79668e-24
-1.95839e-23
2.45631e-24
-1.38164e-23
-2.08951e-24
1.95012e-24
-3.34282e-23
1.81454e-24
-2.78117e-24
1.5525e-24
-6.23649e-24
1.76222e-24
8.85661e-24
3.99816e-24
1.42495e-23
4.17151e-24
1.16163e-23
5.00541e-24
1.79394e-23
5.42987e-24
-3.4534e-24
3.76542e-24
8.81988e-24
2.36705e-24
-8.10178e-24
3.62054e-24
2.21332e-23
2.43173e-24
-6.17053e-24
3.54976e-24
-4.53465e-24
2.26519e-24
-3.02464e-23
1.93668e-24
-2.69278e-23
2.20863e-24
-1.01425e-23
2.61466e-24
1.75664e-24
1.28607e-24
-1.18388e-23
4.59312e-25
-7.17219e-24
-3.156e-25
-3.74421e-24
-5.00261e-25
5.86345e-24
-1.62532e-24
-2.00681e-23
-1.34555e-24
-7.31054e-24
-1.8769e-24
-1.98589e-23
-2.75241e-24
-3.39186e-24
-3.48845e-24
-1.5897e-24
-4.10026e-24
-5.70118e-24
-4.34177e-24
-2.09531e-24
-4.88004e-24
-2.05842e-23
-4.45442e-24
8.75124e-25
-4.26828e-24
-2.538e-24
-4.86264e-24
1.31347e-23
-5.3452e-24
8.82569e-24
-5.01974e-24
8.06925e-24
-3.56966e-24
4.20792e-23
-3.40855e-24
1.69996e-23
-3.43314e-24
1.26502e-23
-3.86435e-24
-1.4484e-23
-3.98038e-24
1.51836e-23
-1.7781e-24
1.7683e-23
-2.13015e-24
2.64587e-23
-3.78649e-24
-1.56819e-23
-4.06297e-24
8.07391e-24
2.36496e-24
-1.70692e-23
-2.03813e-24
1.9736e-24
-2.28218e-23
1.78674e-24
-2.91149e-24
1.51655e-24
-1.25278e-23
1.70386e-24
1.39193e-23
3.836e-24
2.01795e-23
4.04628e-24
1.07278e-23
4.7733e-24
1.23674e-23
5.19773e-24
-3.03387e-24
3.60449e-24
8.53271e-24
2.24558e-24
-7.60866e-24
3.46391e-24
2.08039e-23
2.2956e-24
-1.29493e-24
3.40552e-24
-6.18192e-24
2.17359e-24
-2.85641e-23
1.88828e-24
-2.83786e-23
2.11413e-24
-1.85854e-23
2.51103e-24
4.31952e-24
1.24504e-24
-8.11269e-24
4.1032e-25
-1.04759e-23
-3.04725e-25
-5.58261e-24
-5.079e-25
6.13735e-24
-1.58261e-24
-2.1338e-23
-1.28828e-24
-7.7449e-24
-1.7857e-24
-1.54564e-23
-2.63049e-24
-4.75879e-24
-3.38779e-24
-2.63973e-24
-3.95073e-24
-5.52204e-24
-4.21397e-24
-1.75339e-24
-4.69974e-24
-2.0054e-23
-4.30903e-24
9.34974e-28
-4.10862e-24
-2.45371e-24
-4.72322e-24
1.10167e-23
-5.18583e-24
1.23478e-23
-4.88039e-24
1.65699e-23
-3.49067e-24
4.26947e-23
-3.36182e-24
2.16173e-23
-3.35541e-24
9.5349e-24
-3.75628e-24
-8.7913e-24
-3.85135e-24
1.59253e-23
-1.72199e-24
2.3578e-23
-2.07897e-24
1.84827e-23
-3.68514e-24
-2.22849e-23
7.13561e-24
2.30708e-24
-1.55513e-23
-1.94798e-24
1.91419e-24
-2.4048e-23
1.7193e-24
-9.35043e-24
1.49733e-24
-7.73149e-24
1.60139e-24
1.7132e-23
3.67616e-24
1.47208e-23
3.85082e-24
9.49162e-24
4.58344e-24
3.80784e-24
5.00316e-24
-2.82511e-24
3.45566e-24
2.28992e-24
2.12186e-24
-1.17226e-23
3.33145e-24
1.86516e-23
2.15109e-24
-8.11251e-24
3.23919e-24
-7.73853e-24
2.08665e-24
-2.10034e-23
1.81046e-24
-2.49429e-23
2.063e-24
-1.85567e-23
2.41929e-24
9.44656e-24
1.17773e-24
-7.57025e-24
3.76859e-25
-7.22287e-24
-2.94483e-25
-4.46793e-24
-5.22626e-25
1.16772e-24
-1.53819e-24
-1.49829e-23
-1.22392e-24
-8.13695e-24
-1.70608e-24
-1.40979e-23
-2.51e-24
-6.15936e-25
-3.28183e-24
-9.98801e-25
-3.80355e-24
-2.72726e-24
-4.08047e-24
-1.24767e-24
-4.52254e-24
-1.50649e-23
-4.18155e-24
-3.34586e-24
-3.94511e-24
1.53267e-25
-4.59642e-24
8.62038e-24
-5.03218e-24
1.32585e-23
-4.7488e-24
1.04796e-23
-3.38303e-24
4.08217e-23
-3.33137e-24
2.2009e-23
-3.27735e-24
6.84678e-24
-3.64187e-24
-9.4554e-24
-3.7593e-24
1.92053e-23
-1.68902e-24
1.5287e-23
-2.05677e-24
1.35279e-23
-3.53912e-24
-1.88751e-23
2.6455e-24
2.20184e-24
-1.63038e-23
-1.87131e-24
1.87647e-24
-1.90798e-23
1.67627e-24
-8.50019e-24
1.45721e-24
1.55964e-25
1.52375e-24
2.32613e-23
3.53936e-24
1.10353e-23
3.64926e-24
8.71899e-24
4.38589e-24
4.18328e-24
4.79621e-24
-5.48629e-24
3.28127e-24
6.54077e-24
2.03514e-24
-6.37006e-24
3.18306e-24
8.62698e-24
2.03484e-24
-1.18688e-23
3.10188e-24
-9.34968e-24
2.00634e-24
-1.93479e-23
1.7159e-24
-2.38734e-23
2.01168e-24
-1.64207e-23
2.30259e-24
9.08117e-24
1.10232e-24
-6.95305e-24
3.55587e-25
-4.27616e-25
-3.16288e-25
-3.63582e-24
-5.07891e-25
1.42048e-24
-1.50684e-24
-1.51162e-23
-1.16101e-24
-8.23545e-24
-1.62174e-24
-1.02739e-23
-2.40107e-24
-4.87798e-24
-3.16748e-24
2.14251e-25
-3.65626e-24
-2.10728e-24
-3.95094e-24
-7.06818e-25
-4.34526e-24
-9.92811e-24
-4.04171e-24
-9.27743e-24
-3.79526e-24
2.27513e-24
-4.44724e-24
8.96017e-24
-4.90388e-24
8.73292e-24
-4.5869e-24
7.48879e-24
-3.30988e-24
3.91102e-23
-3.30989e-24
2.31058e-23