/*--------------------------------*- C++ -*----------------------------------*\
  =========                 |
  \\      /  F ield         | OpenFOAM: The Open Source CFD Toolbox
   \\    /   O peration     | Website:  https://openfoam.org
    \\  /    A nd           | Version:  7
     \\/     M anipulation  |
\*---------------------------------------------------------------------------*/
FoamFile
{
    version     2.0;
    format      ascii;
    class       surfaceScalarField;
    location    "228000";
    object      phi;
}
// * * * * * * * * * * * * * * * * * * * * * * * * * * * * * * * * * * * * * //

dimensions      [0 3 -1 0 0 0 0];

internalField   nonuniform List<scalar> 
9375
(
-2.15593e-23
7.34859e-23
-1.40367e-23
1.76246e-23
-1.22344e-23
4.35233e-23
-7.87891e-24
9.70814e-23
-2.21837e-23
-4.33133e-23
6.29629e-23
-8.45677e-24
5.18974e-23
-4.9606e-24
-2.65811e-23
-5.56033e-24
-4.05728e-23
-2.13243e-23
7.48394e-26
-1.49623e-23
6.02621e-23
-1.21305e-23
5.69589e-23
-1.58707e-23
3.79058e-23
-2.81499e-23
4.99982e-23
-2.04847e-23
1.11962e-23
-2.02077e-23
1.27019e-22
-1.38394e-23
4.39057e-23
-1.05763e-23
7.73721e-23
-9.8894e-24
5.76499e-23
-2.04818e-23
1.72697e-23
-2.40492e-23
6.67514e-23
-2.20387e-23
1.22475e-22
-2.16368e-23
8.87304e-23
-2.71783e-23
1.10831e-22
-1.39873e-23
1.51065e-23
-3.04151e-23
5.9656e-24
-3.07408e-23
4.89429e-23
-3.20939e-23
2.01009e-23
-2.93556e-23
8.34122e-23
-3.3548e-23
2.38476e-22
-2.75032e-23
1.39512e-22
-2.11529e-23
2.39441e-22
-1.43245e-23
5.66228e-23
-1.45598e-23
1.33022e-22
8.92573e-23
-8.76484e-24
9.23797e-23
-4.02346e-24
-1.00525e-23
-6.09154e-24
-2.55522e-23
-1.97134e-23
4.45209e-23
-1.44022e-23
2.93645e-23
-1.2607e-23
1.51681e-22
-1.43898e-23
1.57159e-22
-2.76502e-23
7.13479e-23
-1.991e-23
-3.04311e-23
-2.04938e-23
1.71554e-22
-1.26322e-23
9.11714e-23
-1.15999e-23
4.55713e-23
-9.73446e-24
5.56812e-23
-1.85578e-23
9.51456e-24
-2.41239e-23
4.25325e-23
-2.06913e-23
1.19361e-22
-2.20145e-23
5.35754e-23
-2.68793e-23
1.23673e-22
-1.46574e-23
4.24879e-23
-2.89004e-23
1.32279e-23
-3.17622e-23
2.37179e-24
-2.99904e-23
3.37995e-23
-2.79483e-23
8.04873e-23
-3.41234e-23
1.71465e-22
-2.61313e-23
2.01401e-22
-2.35112e-23
1.68326e-22
-1.3651e-23
6.74184e-23
-1.51168e-23
7.00581e-23
-1.64196e-24
9.5844e-23
-6.585e-24
6.49827e-23
-6.2233e-24
8.8679e-23
3.76935e-25
7.88958e-23
1.36649e-22
-8.47388e-24
1.31143e-22
-3.26819e-24
3.67045e-24
-4.97988e-24
-3.97631e-23
-1.88045e-23
6.40806e-23
-1.21226e-23
4.67687e-24
-1.19424e-23
7.78065e-23
-1.62132e-23
1.44583e-22
-2.81471e-23
1.17009e-22
-1.79508e-23
9.03892e-23
-2.10963e-23
1.3983e-22
-1.28136e-23
8.98377e-23
-1.20248e-23
4.10704e-23
-1.01243e-23
4.6742e-23
-1.68749e-23
1.66588e-23
-2.36421e-23
-2.80387e-23
-1.98688e-23
1.47438e-22
-2.18542e-23
4.36891e-23
-2.6711e-23
1.81178e-22
-1.55736e-23
4.55043e-23
-2.82937e-23
2.28257e-23
-3.16833e-23
-2.36415e-23
-2.83316e-23
2.60646e-23
-2.7366e-23
8.19515e-23
-3.21288e-23
1.6956e-22
-2.78273e-23
2.08057e-22
-2.32548e-23
2.07344e-22
-1.46216e-23
8.47925e-23
-1.41237e-23
1.28197e-22
-1.6133e-24
1.84813e-22
-5.79446e-24
3.46493e-23
-6.16912e-24
7.72477e-23
1.72145e-24
6.06848e-23
-6.85334e-25
1.05034e-22
3.41565e-24
2.60766e-24
3.79323e-24
1.0209e-22
4.54593e-24
-7.33709e-23
3.05829e-24
-4.67482e-23
4.33048e-24
2.388e-24
-6.94786e-24
1.75386e-23
-9.06058e-24
-6.33618e-23
-9.018e-25
7.29878e-23
-1.07035e-24
8.70102e-23
6.10589e-24
3.85539e-23
-1.03837e-23
-4.23772e-24
-1.06916e-22
-9.30405e-24
1.70719e-22
-3.3899e-24
4.87457e-23
-3.65953e-24
-2.96966e-23
-1.82463e-23
8.84039e-23
-1.10723e-23
1.21306e-22
-1.02395e-23
9.84491e-23
-1.60119e-23
1.66423e-22
-2.75692e-23
1.54209e-22
-1.78915e-23
4.48435e-23
-2.07569e-23
1.73339e-22
-1.37652e-23
1.33329e-22
-1.19456e-23
-1.68456e-23
-1.0317e-23
4.12915e-23
-1.61745e-23
6.96013e-23
-2.14979e-23
-2.23305e-24
-2.00207e-23
1.13709e-22
-2.02116e-23
9.14233e-23
-2.77487e-23
1.1835e-22
-1.61118e-23
8.29701e-23
-2.83861e-23
2.93985e-23
-3.12696e-23
-2.09397e-23
-2.70719e-23
2.17601e-23
-2.61339e-23
1.11628e-22
-3.06117e-23
1.59386e-22
-2.89347e-23
1.99248e-22
-2.32143e-23
2.8013e-22
-1.50067e-23
9.48621e-23
-1.27328e-23
1.21834e-22
-3.75896e-24
1.13345e-22
-4.15763e-24
1.77212e-23
-7.06746e-24
-1.76949e-23
2.5364e-24
1.23253e-22
-1.22375e-24
7.27982e-23
4.0621e-24
3.4179e-23
2.27297e-24
1.03349e-22
3.96171e-24
-5.27471e-23
4.67864e-24
-3.6281e-23
3.84315e-24
-4.57409e-24
-6.02765e-24
-5.54941e-25
-7.89617e-24
-4.18235e-23
-1.03477e-24
4.8539e-23
-9.94785e-25
3.57336e-23
3.06814e-24
3.42336e-23
-1.11495e-23
3.88516e-23
-2.60871e-23
-8.32733e-24
1.746e-22
-4.26422e-24
8.24479e-23
-2.82211e-24
-2.44335e-23
-1.64706e-23
1.44395e-22
-1.23823e-23
1.05235e-22
-1.00931e-23
1.12657e-22
-1.49187e-23
1.73173e-22
-2.86615e-23
1.60895e-22
-1.79903e-23
4.09873e-23
-2.03791e-23
1.70275e-22
-1.45922e-23
1.4397e-22
-1.02387e-23
4.92369e-23
-1.10172e-23
6.4307e-23
-1.49358e-23
2.05529e-22
-2.07163e-23
1.01606e-23
-1.91399e-23
1.12689e-22
-2.02247e-23
5.72543e-23
-2.71048e-23
9.70495e-23
-1.7208e-23
9.04077e-23
-2.83856e-23
3.47375e-23
-3.12285e-23
-1.78741e-23
-2.55259e-23
9.93855e-24
-2.53222e-23
1.08246e-22
-2.92391e-23
7.08021e-23
-2.84382e-23
1.80447e-22
-2.38561e-23
3.11783e-22
-1.57743e-23
2.22196e-23
-1.23592e-23
1.7034e-22
-6.01132e-24
1.17638e-22
-3.98094e-24
7.5049e-24
-4.86143e-24
-2.48848e-23
1.89985e-24
7.48598e-23
-3.22824e-25
7.91655e-23
5.34483e-24
2.82607e-23
1.41673e-24
2.89117e-23
4.37535e-24
-3.17098e-23
5.68255e-24
-3.08947e-23
2.98869e-24
7.10588e-25
-4.54044e-24
7.64386e-24
-6.62439e-24
-1.87038e-23
-8.29019e-25
6.33361e-23
-1.08756e-24
4.21905e-23
2.55216e-24
5.97149e-23
-1.18463e-23
5.38395e-23
-2.04769e-23
-9.3585e-24
1.83241e-22
-4.38768e-24
8.65383e-23
-1.51496e-24
-1.97323e-23
-1.51788e-23
8.03744e-23
-1.05439e-23
4.769e-23
-9.52238e-24
6.47298e-24
-1.48785e-23
1.55876e-22
-2.8522e-23
1.51761e-22
-1.66451e-23
3.39207e-23
-2.04054e-23
1.36272e-22
-1.47137e-23
1.43523e-22
-1.04571e-23
7.2448e-25
-9.04939e-24
4.34397e-23
-1.5734e-23
1.7463e-22
-2.03957e-23
1.2029e-23
-1.80765e-23
1.24309e-22
-2.0288e-23
6.39626e-23
-2.64836e-23
7.26156e-23
-1.80695e-23
9.7302e-23
-2.823e-23
7.72719e-24
-3.13586e-23
-1.16498e-23
-2.40566e-23
7.46825e-23
-2.55768e-23
1.37074e-22
-2.71446e-23
7.66506e-23
-2.7185e-23
1.68464e-22
-2.60934e-23
2.3516e-22
-1.54881e-23
2.95066e-23
-1.19814e-23
1.71458e-22
-7.31004e-24
1.22533e-22
-3.81721e-24
-1.26144e-24
-4.62977e-24
8.46439e-24
2.36354e-24
5.26602e-23
-6.06408e-25
8.69625e-23
4.89212e-24
9.46874e-24
1.71321e-24
3.31084e-23
1.75253e-24
1.16523e-23
6.47195e-24
4.72788e-23
3.03411e-24
6.77726e-23
-4.06427e-24
1.24076e-23
-5.44475e-24
-4.56575e-24
-4.78348e-25
5.12403e-23
-1.33316e-24
3.86254e-23
7.81059e-25
5.74875e-23
-1.1411e-23
6.65745e-23
-8.16605e-23
-8.36858e-24
5.37582e-23
-3.99926e-24
8.3612e-23
-1.35816e-24
-1.82439e-23
-1.47934e-23
1.01752e-22
-1.04472e-23
1.19501e-22
-8.38355e-24
1.14374e-22
-1.50285e-23
1.01185e-22
-2.84791e-23
1.45984e-22
-1.6624e-23
5.10684e-23
-1.96397e-23
1.43252e-22
-1.5648e-23
1.08409e-22
-9.7554e-24
6.66848e-23
-7.74731e-24
2.00635e-23
-1.58021e-23
1.57366e-22
-2.0078e-23
4.31161e-23
-1.75863e-23
1.20416e-22
-2.06035e-23
2.33942e-23
-2.55849e-23
8.23956e-23
-1.91181e-23
7.0783e-23
-2.76359e-23
-2.76599e-23
-3.04484e-23
-4.32779e-23
-2.37744e-23
1.42601e-22
-2.61019e-23
1.63455e-22
-2.51395e-23
5.84052e-23
-2.70465e-23
1.21181e-22
-2.69651e-23
2.02551e-22
-1.49605e-23
3.64745e-23
-1.09642e-23
1.51169e-22
-9.96319e-24
4.26093e-23
-2.45236e-24
1.10651e-22
-4.40184e-24
1.39928e-23
3.36331e-24
1.22924e-22
-1.46369e-24
9.88554e-23
5.15228e-24
4.31405e-23
2.85149e-24
7.33416e-23
2.01278e-24
-1.23805e-23
6.90788e-24
1.12057e-22
2.56884e-24
5.78382e-23
-5.49205e-24
2.27981e-23
-4.98569e-24
3.38841e-23
-1.21814e-25
8.37308e-23
-1.60279e-24
3.77767e-23
-3.33408e-25
6.11146e-23
-1.24815e-23
7.54458e-23
-1.38637e-22
-7.46384e-24
1.11464e-22
-4.12491e-24
5.9832e-23
-1.15815e-24
-1.53958e-23
-1.37412e-23
8.33194e-23
-9.21903e-24
1.05307e-22
-8.28757e-24
6.96617e-23
-1.38258e-23
5.67778e-23
-2.89817e-23
1.71784e-22
-1.61175e-23
1.55531e-22
-1.96048e-23
1.40347e-22
-1.54986e-23
1.4635e-22
-1.04398e-23
6.17012e-23
-5.88506e-24
1.99137e-23
-1.53308e-23
1.05554e-22
-2.0128e-23
4.6763e-23
-1.78051e-23
8.72135e-23
-1.99894e-23
1.55806e-23
-2.54965e-23
5.87339e-23
-2.00111e-23
7.51673e-23
-2.72681e-23
-2.43728e-23
-2.81027e-23
-4.05408e-23
-2.3921e-23
8.83701e-23
-2.68065e-23
1.49217e-22
-2.339e-23
1.71031e-22
-2.67897e-23
1.11687e-22
-2.74322e-23
2.03106e-22
-1.52752e-23
7.9124e-23
-1.15216e-23
1.45595e-22
-8.97998e-24
1.32214e-23
-3.00541e-24
1.11893e-22
-3.11602e-24
1.84485e-23
3.05245e-24
8.1019e-23
-1.50015e-24
2.50823e-23
5.09242e-24
1.7382e-23
2.0021e-24
3.90772e-23
3.09792e-24
2.80716e-23
7.77341e-24
6.98174e-23
1.77205e-24
5.00521e-23
-4.59729e-24
3.04421e-23
-4.73171e-24
1.91188e-23
-9.07764e-26
7.89201e-23
-1.67014e-24
7.66895e-23
-7.00765e-25
6.06121e-23
-1.31949e-23
1.86842e-24
-1.35441e-22
-6.71415e-24
2.1629e-22
-3.54822e-24
5.42178e-23
2.72387e-26
-1.8095e-23
-1.26073e-23
3.85951e-23
-9.23379e-24
5.70397e-23
-7.82712e-24
6.35942e-23
-1.21487e-23
7.66366e-23
-2.86049e-23
1.6727e-22
-1.76208e-23
2.10555e-22
-1.92074e-23
1.38013e-22
-1.53315e-23
1.10991e-22
-1.13258e-23
2.94886e-23
-4.91429e-24
8.27617e-23
-1.44243e-23
6.4459e-23
-2.02428e-23
2.11579e-23
-1.73337e-23
8.87341e-23
-1.94647e-23
4.84474e-23
-2.5076e-23
7.28578e-23
-2.10591e-23
8.54467e-23
-2.687e-23
-2.10861e-23
-2.6341e-23
-1.5234e-25
-2.35464e-23
8.20736e-23
-2.60642e-23
1.3634e-22
-2.36753e-23
1.57992e-22
-2.67156e-23
7.71931e-23
-2.73253e-23
1.88902e-22
-1.57744e-23
8.13463e-23
-1.18801e-23
1.43149e-22
-7.65032e-24
7.10172e-23
-3.32321e-24
6.74539e-23
-2.43231e-24
2.3932e-23
2.21382e-24
3.5165e-23
-4.10798e-25
-3.7751e-23
4.41402e-24
-2.78783e-23
3.27018e-24
6.12351e-23
2.65993e-24
-4.21652e-24
7.58089e-24
9.24196e-23
1.69804e-24
1.3095e-23
-4.51331e-24
3.55216e-23
-5.03985e-24
-4.76394e-24
-5.7964e-25
6.83528e-23
-1.18247e-24
3.60734e-23
-1.65781e-24
1.92804e-23
-1.43318e-23
-1.11471e-22
-1.3756e-22
-6.65628e-24
2.01868e-22
-3.52312e-24
6.09836e-23
5.60306e-25
6.60549e-23
-1.28678e-23
3.36841e-23
-9.04856e-24
5.01623e-23
-6.46587e-24
9.42523e-23
-1.25007e-23
3.77054e-23
-2.66746e-23
1.2187e-22
-1.9151e-23
1.63694e-22
-1.91368e-23
1.30321e-22
-1.54009e-23
1.14675e-22
-1.12943e-23
-1.38672e-23
-4.72217e-24
1.50399e-22
-1.39355e-23
2.93888e-23
-2.00298e-23
7.50617e-23
-1.70266e-23
1.00093e-22
-1.90936e-23
5.31805e-23
-2.45182e-23
8.44723e-23
-2.20708e-23
1.13424e-22
-2.62937e-23
-1.41874e-23
-2.51123e-23
9.21808e-24
-2.35196e-23
8.1141e-23
-2.47842e-23
1.64301e-22
-2.40495e-23
1.21439e-22
-2.65219e-23
7.23312e-23
-2.73213e-23
1.92668e-22
-1.56903e-23
8.2031e-23
-1.14919e-23
1.43322e-22
-7.22676e-24
6.2941e-23
-4.11046e-24
-1.75211e-23
-1.86054e-24
2.96551e-23
1.30782e-24
-5.5204e-24
-3.28812e-25
9.45149e-24
6.80615e-24
-3.06305e-23
3.02941e-24
-2.35502e-23
3.69963e-24
1.29481e-24
7.19232e-24
7.37175e-23
1.8948e-24
-9.33838e-24
-4.30864e-24
-3.48021e-23
-4.29283e-24
-4.42091e-23
7.64547e-25
1.24234e-22
-2.17484e-24
-3.80216e-24
-3.66259e-24
2.21314e-23
-1.38435e-23
-6.60518e-23
-1.02421e-22
-6.77957e-24
2.09722e-22
-3.55373e-24
6.50347e-23
7.98423e-25
5.82228e-23
-1.2452e-23
-3.57506e-24
-7.82456e-24
4.46392e-23
-5.89368e-24
1.00439e-22
-1.24369e-23
2.97693e-23
-2.52239e-23
8.74603e-23
-2.02971e-23
8.26851e-23
-1.91367e-23
1.19097e-22
-1.55736e-23
1.10933e-22
-9.59302e-24
-3.65794e-23
-5.53106e-24
1.3705e-22
-1.24883e-23
3.61362e-23
-2.02135e-23
5.47662e-23
-1.65004e-23
1.06373e-22
-1.84849e-23
4.70827e-23
-2.39919e-23
1.34809e-23
-2.3211e-23
3.43615e-23
-2.56953e-23
2.31971e-23
-2.40092e-23
5.10842e-23
-2.28597e-23
8.4181e-23
-2.50155e-23
1.58604e-22
-2.37237e-23
1.15789e-22
-2.62472e-23
7.92987e-23
-2.71849e-23
1.99191e-22
-1.63331e-23
1.04395e-22
-1.12853e-23
1.72616e-22
-8.43301e-24
7.7408e-23
-3.37599e-24
1.36216e-23
-1.86186e-24
3.80134e-23
1.57196e-24
2.41406e-23
-9.67727e-25
5.21163e-23
7.52399e-24
1.89813e-23
3.89879e-24
-2.73327e-23
4.13733e-24
1.04051e-24
6.64191e-24
2.2237e-23
2.31196e-24
-1.36814e-23
-5.54359e-24
-1.32791e-23
-2.25501e-24
-6.13532e-23
4.70369e-26
1.16274e-22
-2.37378e-24
-7.15691e-24
-4.55941e-24
2.80096e-23
-1.29497e-23
-6.3878e-23
-1.11844e-22
-7.4603e-24
2.02943e-22
-3.02662e-24
1.49496e-22
5.73665e-25
6.52842e-23
-1.1091e-23
5.88179e-25
-7.41396e-24
4.4525e-23
-4.71896e-24
1.09441e-22
-1.27683e-23
3.91349e-23
-2.46157e-23
1.2801e-22
-1.96558e-23
7.47339e-23
-1.93969e-23
1.09865e-22
-1.60817e-23
1.0723e-22
-8.30248e-24
7.19044e-23
-6.28997e-24
8.84382e-23
-1.16619e-23
4.22213e-23
-2.01056e-23
-1.36558e-23
-1.6402e-23
1.51378e-22
-1.87566e-23
5.46628e-23
-2.35941e-23
3.25277e-23
-2.28405e-23
4.55596e-23
-2.52913e-23
1.60957e-23
-2.30976e-23
9.65048e-23
-2.24446e-23
9.48719e-23
-2.52557e-23
1.23586e-22
-2.29341e-23
1.20876e-22
-2.56414e-23
1.10848e-22
-2.69692e-23
1.96967e-22
-1.59789e-23
1.22285e-22
-1.22477e-23
2.01455e-22
-8.31024e-24
7.15143e-23
-3.69944e-24
5.82819e-24
-1.22931e-24
4.63747e-23
1.775e-24
9.4133e-23
-2.05122e-24
-9.27935e-24
8.11473e-24
1.04968e-22
4.43073e-24
-7.93687e-24
4.01899e-24
5.17988e-24
8.02124e-24
8.08804e-24
9.60256e-25
-1.27869e-23
-4.70389e-24
-9.07969e-23
-1.30376e-24
-1.89037e-23
-3.72982e-25
1.31057e-22
-3.10788e-24
-7.69928e-24
-5.50031e-24
5.24265e-23
-1.34578e-23
-6.58675e-23
-3.82083e-23
-1.67176e-23
-3.05016e-23
-6.7933e-24
2.79778e-22
-3.5879e-24
6.86978e-23
1.15846e-24
6.63754e-23
-1.01904e-23
4.16797e-24
-7.16448e-24
6.23235e-23
-3.82884e-24
1.96858e-22
-1.26799e-23
-2.11565e-24
-2.4309e-23
1.04609e-22
-1.93367e-23
2.62797e-23
-1.86801e-23
6.4704e-23
-1.5594e-23
1.04898e-22
-8.59881e-24
7.86364e-23
-5.9661e-24
1.15176e-22
-1.16593e-23
7.20085e-23
-1.84669e-23
-2.58202e-23
-1.68123e-23
1.23831e-22
-1.85984e-23
6.51134e-23
-2.32411e-23
7.80437e-23
-2.28308e-23
4.65866e-23
-2.43971e-23
1.40539e-23
-2.25454e-23
6.2893e-23
-2.27264e-23
3.23938e-23
-2.516e-23
9.06954e-23
-2.20461e-23
1.19483e-22
-2.58464e-23
3.91949e-23
-2.65252e-23
1.66595e-22
-1.55832e-23
1.14432e-22
-1.33392e-23
1.55811e-22
-8.45014e-24
1.70403e-22
-3.63705e-24
1.09821e-23
-2.09865e-26
5.53628e-23
1.20034e-26
9.34085e-23
-1.1015e-24
7.95098e-24
7.32407e-24
1.0976e-22
4.94978e-24
-3.70953e-23
4.72034e-24
-2.98353e-23
8.32806e-24
6.12101e-23
9.67869e-26
-1.33998e-23
-3.79764e-24
-8.84533e-24
-1.14177e-24
-9.86993e-23
-7.04714e-25
1.29853e-22
-4.51712e-24
-5.76341e-24
-6.13214e-24
9.73885e-23
-1.44306e-23
-6.53461e-23
-5.48187e-23
-1.48789e-23
4.54359e-24
-7.71326e-24
2.74046e-22
-2.91518e-24
1.47405e-22
1.33161e-24
6.52474e-23
-9.69172e-24
1.5677e-23
-5.37388e-24
6.6345e-23
-5.21481e-24
1.97829e-22
-1.23201e-23
-6.97776e-24
-2.38381e-23
1.05794e-22
-1.95906e-23
1.829e-23
-1.79805e-23
5.46153e-23
-1.51618e-23
1.02251e-22
-8.77645e-24
9.96393e-23
-5.78828e-24
1.18363e-22
-1.21831e-23
8.94705e-23
-1.71364e-23
-2.1331e-23
-1.67484e-23
9.11726e-23
-1.78153e-23
4.78351e-23
-2.36495e-23
1.38922e-23
-2.25381e-23
8.30075e-23
-2.38281e-23
3.19476e-23
-2.22662e-23
1.01801e-22
-2.2587e-23
8.19762e-23
-2.46695e-23
6.7846e-23
-2.1966e-23
1.15625e-22
-2.57525e-23
5.26628e-23
-2.55435e-23
1.49062e-22
-1.58588e-23
6.85094e-23
-1.23677e-23
1.48741e-22
-9.92526e-24
9.38492e-23
-2.38895e-24
9.97949e-23
-5.75027e-25
6.24683e-23
4.98393e-25
8.12831e-23
-6.36599e-25
2.04073e-23
6.83013e-24
1.11314e-22
4.71968e-24
-3.06176e-23
5.59345e-24
1.77272e-23
7.94114e-24
3.86485e-23
5.24545e-25
-7.43828e-23
-4.37581e-24
-6.89344e-23
4.93966e-25
-5.82223e-23
-6.17186e-25
1.29571e-22
-3.9403e-24
-4.66003e-23
-7.01928e-24
6.0078e-23
-1.41216e-23
-6.5201e-23
-7.03779e-23
-1.38143e-23
7.4839e-23
-7.79453e-24
2.62695e-22
-3.66833e-24
1.40107e-22
1.83841e-24
5.78736e-23
-8.95903e-24
-9.24652e-24
-5.02613e-24
7.12476e-23
-4.99649e-24
1.99692e-22
-1.26777e-23
-1.22389e-23
-2.39925e-23
4.64621e-23
-1.93715e-23
2.76665e-23
-1.75484e-23
9.14687e-23
-1.45274e-23
8.44944e-23
-8.76421e-24
9.39702e-23
-5.44813e-24
1.18572e-22
-1.25033e-23
3.4901e-23
-1.62904e-23
-1.84357e-23
-1.6828e-23
2.42355e-23
-1.76005e-23
5.36417e-23
-2.28862e-23
3.6024e-23
-2.26484e-23
8.03164e-23
-2.32e-23
4.47725e-23
-2.17914e-23
2.74535e-23
-2.32005e-23
2.04056e-23
-2.37588e-23
6.7798e-23
-2.14005e-23
1.1337e-22
-2.62539e-23
9.8899e-23
-2.48544e-23
1.61786e-22
-1.52955e-23
6.00364e-23
-1.33186e-23
1.38183e-22
-8.90025e-24
9.45733e-23
-2.80686e-24
1.44827e-22
9.31319e-26
6.68232e-23
3.54487e-25
1.2759e-22
-7.11124e-26
3.95569e-23
6.43256e-24
1.1068e-22
4.71925e-24
-2.98171e-23
6.89728e-24
8.06461e-23
7.24336e-24
3.44574e-23
1.75229e-25
-7.30803e-23
-3.97594e-24
-6.62554e-23
2.02651e-24
-5.79177e-23
-1.13618e-24
5.34246e-23
-4.89035e-24
-1.23898e-22
-6.64186e-24
6.44291e-23
-1.56662e-23
-7.42598e-23
-2.68246e-23
-1.96571e-23
1.70987e-22
-1.23829e-23
6.70421e-23
-7.8789e-24
2.55771e-22
-4.25895e-24
1.31759e-22
2.23974e-24
4.64393e-23
-8.34755e-24
5.27349e-24
-2.76653e-24
7.47847e-23
-5.33879e-24
1.86317e-22
-1.30641e-23
-1.28668e-23
-2.35258e-23
5.13787e-23
-1.89698e-23
2.33769e-23
-1.65995e-23
1.54422e-22
-1.34319e-23
1.43464e-22
-8.26018e-24
9.45478e-23
-5.57535e-24
1.24991e-22
-1.27445e-23
1.0896e-23
-1.62431e-23
-1.14143e-23
-1.59534e-23
3.46245e-23
-1.72336e-23
6.66585e-23
-2.2469e-23
8.98098e-23
-2.245e-23
5.75517e-23
-2.35883e-23
3.12445e-23
-2.10894e-23
4.93382e-23
-2.31922e-23
3.80456e-23
-2.31575e-23
7.46211e-23
-2.05201e-23
1.10222e-22
-2.64234e-23
1.99919e-23
-2.49407e-23
1.61498e-22
-1.46834e-23
9.18357e-23
-1.4006e-23
1.35948e-22
-8.66032e-24
1.54573e-22
-3.34066e-24
1.37816e-22
2.25858e-25
2.96568e-23
2.49498e-25
1.7661e-22
-6.01654e-26
4.65908e-23
6.16921e-24
1.29816e-22
5.23249e-24
-3.33353e-23
5.99991e-24
7.19225e-23
6.64673e-24
3.16462e-23
7.63054e-26
-6.94098e-23
-3.54668e-24
-6.53901e-23
1.87252e-24
-5.3624e-23
-6.72708e-25
-4.91578e-24
-4.60885e-24
-1.23421e-22
-6.80884e-24
1.27966e-22
-1.56544e-23
-7.3326e-23
2.69127e-23
-1.92327e-23
1.61676e-22
-1.20319e-23
1.36763e-22
-8.15979e-24
2.53949e-22
-5.14046e-24
1.24129e-22
2.75334e-24
1.00303e-22
-7.82899e-24
-4.57717e-23
-2.1183e-24
1.5515e-22
-4.82348e-24
1.94398e-22
-1.38326e-23
-6.98956e-24
-2.22891e-23
6.05348e-23
-1.8386e-23
1.85394e-23
-1.58181e-23
1.91541e-22
-1.39308e-23
1.03067e-22
-8.13548e-24
9.42707e-23
-6.39528e-24
1.31548e-22
-1.26402e-23
-1.54082e-23
-1.60729e-23
1.23135e-23
-1.51644e-23
4.51171e-23
-1.61874e-23
7.42739e-23
-2.31405e-23
4.32423e-23
-2.18342e-23
7.22074e-23
-2.37247e-23
1.16216e-23
-2.04429e-23
5.88521e-23
-2.32912e-23
-1.67887e-23
-2.24617e-23
1.1885e-22
-2.08082e-23
1.03894e-22
-2.57719e-23
3.31291e-23
-2.47348e-23
7.07484e-23
-1.41225e-23
1.17678e-22
-1.33064e-23
1.37449e-22
-8.41303e-24
1.40759e-22
-3.29728e-24
1.32487e-22
5.73919e-25
-8.90699e-24
3.65742e-26
1.8772e-22
-5.70776e-25
4.92506e-23
6.06035e-24
1.29222e-22
5.37458e-24
-5.96103e-23
5.95981e-24
3.06887e-23
6.46154e-24
2.9479e-23
-2.82887e-25
-6.52029e-23
-2.55039e-24
-6.61765e-23
1.74096e-24
-4.97712e-23
-7.53295e-25
1.84305e-23
-3.70161e-24
-1.22627e-22
-6.74362e-24
9.48521e-23
-1.65136e-23
-8.48501e-23
8.651e-23
-2.36413e-23
-4.02272e-23
-1.89601e-23
6.35138e-23
-1.13115e-23
1.26192e-22
-8.11635e-24
2.49008e-22
-5.44466e-24
1.55354e-22
3.14436e-24
1.63367e-22
-6.49076e-24
-3.22033e-23
-1.62726e-24
1.53815e-22
-6.14878e-24
1.3929e-22
-1.39373e-23
2.39851e-25
-2.21549e-23
7.41661e-23
-1.74696e-23
2.89106e-23
-1.57509e-23
2.04068e-22
-1.38816e-23
8.43678e-23
-7.41716e-24
1.31735e-22
-7.4929e-24
7.40171e-23
-1.22066e-23
-1.04481e-24
-1.57571e-23
2.12456e-23
-1.44079e-23
6.16398e-23
-1.58813e-23
1.57772e-24
-2.30382e-23
-2.50897e-23
-2.14958e-23
6.833e-23
-2.3728e-23
9.41232e-24
-2.04707e-23
1.06414e-22
-2.24616e-23
-6.53705e-24
-2.23747e-23
1.23575e-22
-2.03864e-23
1.31291e-22
-2.64114e-23
4.93359e-23
-2.35687e-23
7.71281e-23
-1.36995e-23
1.08322e-22
-1.28247e-23
1.41058e-22
-9.18814e-24
1.24738e-22
-2.91848e-24
1.63436e-22
1.24636e-24
1.79844e-23
3.02885e-25
1.34451e-22
-1.31496e-25
5.40431e-23
5.7787e-24
1.28957e-22
5.77681e-24
1.58676e-23
6.06587e-24
1.12643e-23
6.00935e-24
4.3189e-23
-7.27905e-25
-6.03569e-23
-2.64847e-24
-6.70299e-23
2.12209e-24
-4.91069e-23
-5.79417e-25
2.98026e-23
-3.37616e-24
-2.65543e-23
-7.20118e-24
1.02197e-22
-1.5532e-23
-8.05678e-23
6.84769e-23
-2.42341e-23
-2.73656e-23
-1.68545e-23
5.44766e-23
-1.06915e-23
1.02396e-22
-7.89581e-24
2.04592e-22
-5.32839e-24
7.02804e-23
3.16882e-24
1.41726e-22
-5.24455e-24
-2.02572e-23
-1.67172e-24
1.54758e-22
-5.99106e-24
8.45457e-23
-1.36771e-23
9.17123e-24
-2.20382e-23
1.64668e-23
-1.57769e-23
2.26762e-23
-1.58256e-23
2.02421e-22
-1.42818e-23
6.71524e-23
-7.59273e-24
1.29401e-22
-7.58662e-24
8.36514e-23
-1.18796e-23
6.73987e-24
-1.54899e-23
3.41504e-23
-1.42858e-23
1.01783e-22
-1.5754e-23
8.00117e-24
-2.23404e-23
-2.04013e-23
-2.11297e-23
5.23225e-23
-2.32619e-23
2.44559e-24
-2.08894e-23
1.01099e-22
-2.16668e-23
-2.62883e-24
-2.21212e-23
8.37657e-23
-2.02699e-23
1.21645e-22
-2.69886e-23
-1.05398e-24
-2.2513e-23
7.41357e-23
-1.32358e-23
9.75873e-23
-1.257e-23
1.44531e-22
-8.65122e-24
1.33717e-22
-3.04049e-24
1.95485e-22
1.21948e-24
1.94936e-23
1.63475e-25
1.4142e-22
-2.25601e-25
7.19493e-23
5.45278e-24
1.72805e-22
5.67623e-24
2.91983e-23
6.63774e-24
4.89659e-23
5.36896e-24
3.52067e-23
-8.74592e-25
-1.99575e-23
-2.84878e-24
5.27833e-24
2.4611e-24
-1.9405e-23
-4.46945e-25
4.00335e-23
-3.97862e-24
-2.00613e-23
-7.45334e-24
9.95115e-23
-1.55481e-23
-4.03715e-23
2.37768e-23
-2.47203e-23
-3.61916e-23
-1.5948e-23
4.14442e-23
-1.02858e-23
9.75648e-23
-7.98938e-24
1.95785e-22
-5.22141e-24
1.3213e-22
3.30456e-24
1.28814e-22
-4.34092e-24
-8.37193e-23
-2.06437e-24
1.55534e-22
-5.31606e-24
9.07643e-23
-1.39019e-23
-5.87077e-23
-2.14738e-23
3.29476e-23
-1.46035e-23
2.03601e-23
-1.57415e-23
1.58377e-22
-1.36363e-23
6.32293e-23
-7.77499e-24
1.69835e-22
-7.35173e-24
4.85919e-23
-1.17375e-23
1.42568e-23
-1.48921e-23
5.863e-23
-1.45945e-23
1.00265e-22
-1.56361e-23
1.26259e-23
-2.17469e-23
-1.742e-23
-2.05934e-23
5.1713e-23
-2.2882e-23
-3.57703e-23
-2.10204e-23
9.32412e-23
-2.12979e-23
1.40997e-23
-2.16025e-23
8.92486e-23
-2.06124e-23
1.30886e-22
-2.68976e-23
6.89707e-24
-2.19387e-23
1.33063e-22
-1.26028e-23
8.57459e-23
-1.23181e-23
1.47885e-22
-9.45131e-24
1.07764e-22
-3.25967e-24
1.91062e-22
1.34434e-24
1.34423e-23
6.55512e-25
1.47966e-22
-5.94213e-25
3.98926e-23
5.39183e-24
2.18103e-22
5.44779e-24
2.53881e-23
6.72794e-24
4.13392e-23
6.07345e-24
3.12286e-23
-1.46728e-24
-2.97015e-23
-2.54807e-24
1.66107e-24
3.20706e-24
3.49761e-23
6.35083e-27
5.22034e-23
-4.48119e-24
-6.69634e-24
-7.80894e-24
6.22346e-23
-1.68747e-23
-1.62672e-23
3.30828e-23
-2.5239e-23
-7.87427e-23
-1.46861e-23
1.23536e-22
-9.58587e-24
9.45303e-23
-7.94488e-24
1.48014e-22
-5.14604e-24
1.46332e-22
3.50615e-24
1.8539e-22
-3.66593e-24
-7.13961e-23
-2.03213e-24
1.72461e-22
-5.57117e-24
3.26763e-23
-1.4133e-23
-8.83491e-23
-2.08453e-23
5.12953e-23
-1.41096e-23
3.73722e-23
-1.49934e-23
1.57198e-22
-1.39818e-23
6.02958e-23
-8.07344e-24
1.07302e-22
-7.25738e-24
5.39187e-23
-1.12506e-23
2.13177e-23
-1.46867e-23
7.72116e-23
-1.44263e-23
9.94146e-23
-1.57097e-23
1.53398e-23
-2.13411e-23
-1.27257e-23
-2.03416e-23
5.51801e-23
-2.22649e-23
-1.42331e-23
-2.10222e-23
8.67348e-23
-2.09594e-23
1.57618e-23
-2.12248e-23
9.52229e-23
-2.09245e-23
1.31021e-22
-2.6313e-23
8.69337e-24
-2.18264e-23
7.56062e-23
-1.15489e-23
1.38611e-22
-1.22489e-23
1.51236e-22
-9.57997e-24
1.166e-22
-3.66828e-24
1.86451e-22
1.76037e-24
3.86665e-24
1.91247e-24
1.51437e-22
-5.58849e-25
4.22459e-23
4.59713e-24
2.34627e-22
6.47443e-24
9.55766e-23
5.98816e-24
-2.30049e-23
5.92784e-24
1.64628e-23
-6.55122e-25
-7.21552e-23
-2.50654e-24
3.47575e-25
3.16283e-24
8.45822e-23
3.49868e-25
6.35377e-23
-5.30402e-24
-9.08274e-23
-7.50955e-24
5.40804e-23
-1.7126e-23
1.34002e-23
3.39431e-23
-2.52881e-23
-1.97122e-23
-1.39059e-23
2.44888e-22
-8.98667e-24
9.1004e-23
-7.22774e-24
1.41653e-22
-4.69399e-24
7.24308e-23
2.47796e-24
9.88871e-23
-3.15945e-24
-9.42994e-23
-1.81747e-24
1.75859e-22
-5.67e-24
-3.51818e-23
-1.31672e-23
-1.16339e-22
-2.05665e-23
8.38997e-23
-1.30018e-23
3.63416e-23
-1.50018e-23
8.00917e-23
-1.418e-23
-6.33019e-24
-8.31151e-24
4.87698e-23
-6.95274e-24
5.59781e-23
-1.07603e-23
3.19183e-23
-1.44295e-23
4.76169e-23
-1.44219e-23
9.58162e-23
-1.57202e-23
1.69576e-23
-2.09352e-23
-5.47254e-24
-1.99951e-23
5.47413e-23
-2.18467e-23
-2.59934e-23
-2.09406e-23
8.35373e-23
-2.05154e-23
2.00083e-23
-2.10687e-23
5.52976e-23
-2.0808e-23
1.33453e-22
-2.65974e-23
1.40365e-23
-2.04527e-23
9.87885e-23
-1.16096e-23
1.32531e-22
-1.15037e-23
1.54909e-22
-9.93083e-24
1.16494e-22
-3.49485e-24
2.42407e-22
1.57076e-24
7.2784e-23
2.51332e-24
1.90312e-22
-5.90253e-25
-3.22855e-23
3.87456e-24
2.78443e-22
6.16953e-24
1.08447e-22
6.3221e-24
-2.57307e-23
6.50118e-24
5.65968e-23
-7.99852e-25
-1.44617e-22
-2.14104e-24
7.22105e-23
3.14537e-24
7.11918e-23
-5.14765e-25
8.02525e-23
-4.75854e-24
-1.75256e-22
-7.52744e-24
5.29715e-23
-1.73641e-23
-3.56149e-23
-2.73564e-23
-2.46168e-23
6.17889e-23
-2.39391e-23
8.91585e-23
-1.47401e-23
2.3182e-22
-8.34909e-24
1.59628e-22
-7.09286e-24
1.26051e-22
-5.07746e-24
7.69857e-23
2.87347e-24
1.30904e-22
-1.54712e-24
-7.82212e-23
-2.56584e-24
1.94046e-22
-5.62992e-24
-2.88397e-23
-1.20841e-23
-9.37333e-23
-2.11813e-23
1.02795e-22
-1.25215e-23
1.00633e-22
-1.47117e-23
8.23944e-23
-1.46087e-23
-4.63694e-23
-7.59941e-24
5.22986e-23
-6.58684e-24
-5.8862e-24
-1.05085e-23
4.12634e-23
-1.4287e-23
5.38035e-23
-1.43253e-23
9.17022e-23
-1.57719e-23
-1.70106e-23
-2.04952e-23
3.32987e-24
-1.97277e-23
9.38615e-23
-2.14533e-23
-2.78113e-23
-2.09708e-23
7.98199e-23
-2.01388e-23
2.1674e-23
-2.0784e-23
6.15025e-23
-2.08139e-23
1.38603e-22
-2.62627e-23
-4.50316e-23
-1.98669e-23
8.51898e-23
-1.09347e-23
1.27471e-22
-1.14013e-23
1.63203e-22
-9.72351e-24
1.1579e-22
-3.51694e-24
2.31767e-22
1.72084e-24
5.02496e-23
1.64176e-24
1.5342e-22
1.22184e-24
-3.58198e-23
3.91745e-24
2.83291e-22
4.62111e-24
1.09828e-22
6.5191e-24
-6.84917e-23
5.7469e-24
5.32928e-23
4.88628e-25
-1.4589e-22
-1.38779e-24
7.28885e-23
2.74933e-24
9.66028e-23
-1.73092e-24
-3.72127e-24
-3.7142e-24
-1.69547e-22
-7.91787e-24
-3.55904e-23
-1.75247e-23
-2.39807e-23
-2.26639e-23
-1.61426e-23
7.3374e-23
-2.33592e-23
1.22122e-22
-2.42548e-23
8.72057e-23
-1.47153e-23
2.33797e-22
-8.34404e-24
1.87384e-22
-7.13547e-24
1.01816e-22
-4.44142e-24
7.87539e-23
3.13613e-24
1.28848e-22
-9.56445e-25
-6.15816e-23
-2.67545e-24
2.02628e-22
-5.52572e-24
-5.78433e-23
-1.12579e-23
-6.27907e-23
-2.1039e-23
2.33861e-23
-1.28843e-23
7.90927e-23
-1.43478e-23
1.46232e-22
-1.46672e-23
-4.60951e-23
-7.05996e-24
5.30294e-23
-5.59692e-24
-3.31447e-24
-1.05468e-23
5.08619e-23
-1.36667e-23
5.76479e-23
-1.46376e-23
8.9305e-23
-1.53816e-23
2.07844e-23
-1.98941e-23
5.94571e-23
-1.98224e-23
9.50506e-23
-2.10789e-23
-2.48029e-23
-2.09202e-23
7.6146e-23
-1.99137e-23
2.18852e-23
-2.03633e-23
3.30143e-23
-2.14326e-23
1.18641e-22
-2.5763e-23
-3.94847e-23
-1.91334e-23
6.02568e-23
-1.07387e-23
1.2345e-22
-1.08451e-23
1.71858e-22
-1.00167e-23
1.19361e-22
-3.58144e-24
2.05596e-22
1.41554e-24
3.79961e-23
1.85878e-24
1.50604e-22
2.23701e-24
3.31398e-23
3.14534e-24
2.128e-22
4.21003e-24
1.07968e-22
6.49344e-24
-1.04001e-22
5.52742e-24
5.44805e-23
1.33126e-24
-1.46863e-22
-9.26635e-25
4.11573e-23
1.95117e-24
9.01849e-23
-2.41621e-24
-3.27272e-23
-3.48993e-24
-1.02736e-22
-7.52407e-24
-7.32286e-23
-1.77854e-23
-7.84893e-23
-8.46465e-23
-1.60116e-23
-1.08494e-24
-2.28077e-23
4.58741e-23
-2.48246e-23
8.42893e-23
-1.41224e-23
2.22543e-22
-8.73873e-24
1.75439e-22
-6.7855e-24
8.77456e-23
-4.27475e-24
1.53922e-22
3.47048e-24
2.02594e-22
-1.00564e-24
-4.79579e-23
-3.25839e-24
2.17305e-22
-4.88921e-24
-4.62135e-23
-1.11311e-23
-6.84402e-23
-2.00167e-23
4.33276e-23
-1.29301e-23
3.44872e-23
-1.49317e-23
1.05829e-22
-1.4785e-23
-4.95125e-23
-6.75549e-24
1.2249e-22
-4.87297e-24
-6.30442e-23
-1.04031e-23
6.11469e-23
-1.33387e-23
5.99638e-23
-1.47584e-23
4.73093e-23
-1.4786e-23
2.08098e-23
-1.98e-23
2.24746e-24
-1.96699e-23
9.67472e-23
-2.0857e-23
-3.87215e-23
-2.08541e-23
7.39395e-23
-1.9738e-23
1.93578e-23
-1.99796e-23
3.54124e-23
-2.17255e-23
5.46795e-23
-2.53346e-23
-3.69984e-23
-1.87965e-23
5.04963e-23
-9.70039e-24
1.42127e-22
-1.07532e-23
1.18131e-22
-9.84857e-24
7.81102e-23
-3.91392e-24
1.78788e-22
1.65217e-24
4.23347e-23
2.47036e-24
1.31359e-22
2.46356e-24
6.8267e-23
2.70866e-24
1.70427e-22
3.7063e-24
1.89473e-22
6.71429e-24
-9.93243e-23
5.98368e-24
5.59662e-23
2.42536e-24
-5.14109e-23
-5.72999e-25
4.53054e-23
6.88279e-25
1.23519e-23
-2.56948e-24
3.55201e-23
-3.80867e-24
-1.3147e-22
-7.23266e-24
-7.21058e-23
-1.75456e-23
-1.00161e-22
-9.24775e-24
-1.54714e-23
-1.07364e-23
1.66661e-23
-2.23264e-23
-2.67951e-23
-2.50597e-23
4.00967e-23
-1.3671e-23
3.03548e-22
-9.13739e-24
1.25533e-22
-6.48798e-24
7.2976e-23
-4.25214e-24
1.17638e-22
3.90954e-24
2.14996e-22
1.21492e-26
-7.16401e-23
-3.99981e-24
2.32283e-22
-4.89202e-24
-1.97333e-23
-1.04143e-23
-7.03324e-23
-1.92199e-23
4.07725e-23
-1.2125e-23
2.77717e-23
-1.54668e-23
1.07458e-22
-1.37915e-23
-5.52382e-23
-7.54043e-24
5.05183e-23
-3.58011e-24
1.12703e-23
-1.01821e-23
7.61222e-23
-1.31729e-23
6.41524e-23
-1.46019e-23
4.57413e-23
-1.45754e-23
1.73314e-23
-1.9267e-23
1.07102e-23
-1.97055e-23
8.73537e-23
-2.06122e-23
-3.71575e-23
-2.08342e-23
7.42881e-23
-1.9514e-23
1.94139e-23
-2.02194e-23
3.61353e-23
-2.15228e-23
5.52892e-23
-2.51742e-23
-3.15022e-23
-1.78449e-23
3.52696e-23
-9.32889e-24
1.32491e-22
-1.08707e-23
6.12196e-23
-9.62661e-24
1.54925e-22
-4.13292e-24
1.56638e-22
8.8269e-25
7.18459e-23
2.87625e-24
1.12802e-22
2.56668e-24
6.78576e-23
2.67391e-24
1.70376e-22
3.15332e-24
1.89508e-22
6.79528e-24
-9.51301e-23
6.08741e-24
9.59922e-23
2.44786e-24
-6.3961e-23
-1.21647e-25
6.24388e-23
1.09107e-24
4.88098e-23
-3.36549e-24
7.35709e-23
-3.67259e-24
-1.6133e-22
-7.54205e-24
-8.29983e-23
-1.75665e-23
-1.62344e-23
6.63839e-23
-1.5545e-23
-3.54369e-23
1.68315e-23
-2.16115e-23
-3.18728e-23
-2.43399e-23
4.0462e-23
-1.4487e-23
2.88052e-22