/*--------------------------------*- C++ -*----------------------------------*\
  =========                 |
  \\      /  F ield         | OpenFOAM: The Open Source CFD Toolbox
   \\    /   O peration     | Website:  https://openfoam.org
    \\  /    A nd           | Version:  7
     \\/     M anipulation  |
\*---------------------------------------------------------------------------*/
FoamFile
{
    version     2.0;
    format      ascii;
    class       volVectorField;
    location    "228000";
    object      vorticity;
}
// * * * * * * * * * * * * * * * * * * * * * * * * * * * * * * * * * * * * * //

dimensions      [0 0 -1 0 0 0 0];

internalField   nonuniform List<vector> 
4850
(
(0.00651891 0.00442026 1.34212e-18)
(0.00561157 0.00516069 6.0189e-18)
(0.00666389 0.00458083 2.29143e-18)
(0.00577128 0.00530583 5.57482e-18)
(0.0058326 0.00507299 4.4963e-18)
(0.00680988 0.00474183 7.32236e-18)
(0.00593169 0.00545161 6.77967e-18)
(0.00599725 0.00521347 4.86392e-18)
(0.00605686 0.00497809 4.78244e-18)
(0.0061131 0.00474286 4.17524e-18)
(0.00695694 0.00490334 1.23977e-17)
(0.00609288 0.00559811 8.60928e-18)
(0.00616267 0.00535461 5.47026e-18)
(0.00622644 0.00511364 4.53122e-18)
(0.00628666 0.00487273 3.66414e-18)
(0.00634339 0.00463196 2.21536e-18)
(0.00710513 0.00506544 1.29214e-17)
(0.00625494 0.0057454 1.03767e-17)
(0.00632895 0.00549648 6.42771e-18)
(0.00639687 0.00524987 4.87519e-18)
(0.00646106 0.00500323 3.63305e-18)
(0.00652157 0.00475663 9.88029e-19)
(0.00657849 0.00451017 6.78275e-19)
(0.00725455 0.00522824 1.04556e-17)
(0.00641796 0.00589357 1.057e-17)
(0.00649618 0.00563914 6.87492e-18)
(0.00656823 0.00538684 5.48186e-18)
(0.00663637 0.00513441 3.76756e-18)
(0.00670065 0.00488194 4.43997e-20)
(0.00676115 0.00462952 -1.03831e-18)
(0.00681794 0.0043772 4.87367e-19)
(0.0068711 0.00412505 3.41312e-18)
(0.00740525 0.0053918 9.25766e-18)
(0.00658202 0.00604268 8.71467e-18)
(0.00666444 0.00578269 6.86861e-18)
(0.00674062 0.00552462 5.88047e-18)
(0.00681269 0.00526634 3.26517e-18)
(0.00688073 0.00500795 -1.09695e-18)
(0.0069448 0.00474952 -1.38348e-18)
(0.00700497 0.00449112 1.12771e-18)
(0.00706132 0.00423281 3.79912e-18)
(0.00711392 0.00397465 3.06518e-18)
(0.0075573 0.00555623 7.84089e-18)
(0.00674719 0.00619281 5.32632e-18)
(0.00683383 0.00592718 6.09113e-18)
(0.00691411 0.00566329 5.74026e-18)
(0.00699011 0.0053991 2.54106e-18)
(0.00706189 0.00513472 -1.38017e-18)
(0.00712952 0.00487023 -6.51902e-19)
(0.00719306 0.0046057 2.09388e-18)
(0.00725259 0.00434119 3.84096e-18)
(0.00730819 0.00407676 2.85925e-18)
(0.00735993 0.00381244 2.19699e-18)
(0.00740787 0.00354828 1.67694e-18)
(0.00745208 0.00328429 1.42158e-18)
(0.00749262 0.0030205 2.22852e-18)
(0.00771078 0.00572159 5.41927e-18)
(0.00691357 0.00634404 3.3896e-18)
(0.00700441 0.00607269 5.40542e-18)
(0.0070888 0.00580291 5.58358e-18)
(0.00716872 0.00553276 1.64723e-18)
(0.00724423 0.00526233 -1.43917e-18)
(0.0073154 0.00499171 1.98485e-19)
(0.00738231 0.00472099 3.09266e-18)
(0.00744501 0.00445023 4.09622e-18)
(0.0075036 0.00417948 3.3951e-18)
(0.00755813 0.00390879 2.39998e-18)
(0.00760869 0.0036382 2.0895e-18)
(0.00765532 0.00336775 1.82832e-18)
(0.0076981 0.00309744 1.97897e-18)
(0.00773709 0.0028273 3.5394e-18)
(0.00777234 0.00255733 4.12618e-18)
(0.00780391 0.00228755 5.1175e-18)
(0.00783183 0.00201794 3.50628e-18)
(0.00786576 0.00588798 2.98286e-18)
(0.00708123 0.00649643 3.10248e-18)
(0.00717628 0.0062193 5.42278e-18)
(0.00726478 0.00594356 4.72009e-18)
(0.00734861 0.00566737 4.40774e-19)
(0.00742785 0.00539083 -9.94547e-19)
(0.00750255 0.00511403 1.11701e-18)
(0.00757281 0.00483706 3.43108e-18)
(0.00763868 0.00455998 4.22347e-18)
(0.00770024 0.00428286 3.94828e-18)
(0.00775757 0.00400575 2.64631e-18)
(0.00781072 0.00372869 2.32703e-18)
(0.00785977 0.00345171 1.78456e-18)
(0.00790478 0.00317484 2.01031e-18)
(0.00794582 0.0028981 3.33993e-18)
(0.00798292 0.0026215 3.85596e-18)
(0.00801616 0.00234504 4.73201e-18)
(0.00804558 0.00206873 3.9856e-18)
(0.00807121 0.00179257 1.48086e-18)
(0.00809311 0.00151654 2.5432e-18)
(0.0080223 0.00605548 7.67391e-19)
(0.00725025 0.00665007 2.59907e-18)
(0.00734952 0.00636707 5.0918e-18)
(0.00744211 0.0060853 3.93935e-18)
(0.00752986 0.005803 1.80921e-19)
(0.00761282 0.00552028 -2.63646e-19)
(0.00769106 0.00523724 2.22277e-18)
(0.00776466 0.00495396 3.46586e-18)
(0.00783369 0.00467051 4.32454e-18)
(0.00789822 0.00438696 4.30264e-18)
(0.00795833 0.00410337 3.3756e-18)
(0.00801408 0.00381978 2.26585e-18)
(0.00806554 0.00353623 1.60071e-18)
(0.00811277 0.00325275 1.89008e-18)
(0.00815584 0.00296936 3.10265e-18)
(0.0081948 0.00268607 4.29374e-18)
(0.0082297 0.0024029 4.97011e-18)
(0.0082606 0.00211985 5.32645e-18)
(0.00828753 0.00183692 2.25779e-18)
(0.00831054 0.0015541 1.78215e-18)
(0.00832966 0.00127138 2.54711e-18)
(0.00834492 0.000988751 1.35177e-18)
(0.00835634 0.000706197 2.62201e-18)
(0.00836395 0.000423695 1.15115e-18)
(0.00818049 0.00622418 4.37784e-20)
(0.00742072 0.00680502 1.91022e-18)
(0.00752421 0.00651608 4.83072e-18)
(0.00762091 0.00622821 3.44891e-18)
(0.00771256 0.00593973 4.0128e-19)
(0.00779924 0.00565076 1.13873e-18)
(0.00788101 0.00536141 2.55941e-18)
(0.00795795 0.00507175 2.54737e-18)
(0.00803013 0.00478186 3.97055e-18)
(0.00809763 0.00449183 4.74678e-18)
(0.00816051 0.0042017 4.22466e-18)
(0.00821885 0.00391152 2.41422e-18)
(0.00827271 0.00362134 1.76212e-18)
(0.00832216 0.00333119 1.39224e-18)
(0.00836726 0.0030411 2.24361e-18)
(0.00840807 0.00275108 4.59192e-18)
(0.00844463 0.00246114 5.52428e-18)
(0.008477 0.0021713 6.68077e-18)
(0.00850523 0.00188155 2.77807e-18)
(0.00852934 0.0015919 1.31171e-18)
(0.00854938 0.00130233 2.57608e-18)
(0.00856538 0.00101284 2.04501e-18)
(0.00857736 0.000723412 3.41875e-18)
(0.00858533 0.000434028 9.72337e-19)
(0.00858932 0.000144672 -4.64608e-19)
(0.00858932 -0.000144674 1.34094e-17)
(0.00858533 -0.00043403 2.29984e-17)
(0.00857736 -0.000723414 1.49006e-17)
(0.00856538 -0.00101284 1.28136e-17)
(0.00834038 0.00639415 1.41938e-18)
(0.00759271 0.00696137 8.1659e-19)
(0.00770043 0.00666639 3.94187e-18)
(0.00780124 0.00637235 2.55959e-18)
(0.00789681 0.00607762 3.06436e-19)
(0.0079872 0.00578233 2.26547e-18)
(0.00807251 0.00548659 2.53907e-18)
(0.00815278 0.00519048 1.86306e-18)
(0.00822811 0.0048941 4.14361e-18)
(0.00829857 0.00459751 5.43156e-18)
(0.00836422 0.00430078 4.56077e-18)
(0.00842515 0.00400396 1.88352e-18)
(0.00848141 0.00370709 1.79067e-18)
(0.00853307 0.00341022 7.23996e-19)
(0.00858019 0.00311336 1.5216e-18)
(0.00862284 0.00281655 4.91705e-18)
(0.00866106 0.0025198 5.97834e-18)
(0.0086949 0.00222312 6.64827e-18)
(0.00872441 0.00192651 2.33586e-18)
(0.00874963 0.00162997 1.47406e-18)
(0.00877059 0.0013335 3.46941e-18)
(0.00878733 0.0010371 3.08882e-18)
(0.00879985 0.000740745 3.95296e-18)
(0.0088082 0.000444431 8.25121e-19)
(0.00881237 0.00014814 -8.45525e-19)
(0.00881237 -0.000148143 1.30562e-17)
(0.0088082 -0.000444433 2.21931e-17)
(0.00879985 -0.000740747 1.40526e-17)
(0.00878733 -0.0010371 1.13646e-17)
(0.00877059 -0.0013335 1.74769e-17)
(0.00874963 -0.00162997 1.70062e-17)
(0.00872441 -0.00192651 1.53557e-17)
(0.00850207 0.00656548 3.63183e-18)
(0.00776631 0.00711918 5.97412e-19)
(0.00787828 0.00681809 3.11604e-18)
(0.0079832 0.00651779 1.66696e-18)
(0.00808268 0.00621673 2.83978e-19)
(0.0081768 0.00591505 3.1601e-18)
(0.00826563 0.00561285 2.92941e-18)
(0.00834925 0.00531023 2.00571e-18)
(0.00842773 0.00500728 4.46314e-18)
(0.00850114 0.00470407 5.44821e-18)
(0.00856956 0.00440067 4.64673e-18)
(0.00863307 0.00409714 1.84642e-18)
(0.00869172 0.00379352 1.9853e-18)
(0.00874559 0.00348986 4.71878e-19)
(0.00879474 0.00318619 6.63626e-19)
(0.00883922 0.00288253 4.5662e-18)
(0.00887909 0.0025789 5.99476e-18)
(0.0089144 0.00227532 5.89317e-18)
(0.0089452 0.00197179 2.26513e-18)
(0.00897151 0.00166832 2.07004e-18)
(0.00899339 0.0013649 3.89744e-18)
(0.00901086 0.00106153 4.06393e-18)
(0.00902394 0.000758205 4.50547e-18)
(0.00903265 0.000454909 6.40834e-19)
(0.009037 0.000151633 -8.44525e-20)
(0.009037 -0.000151636 1.40425e-17)
(0.00903265 -0.000454912 2.20101e-17)
(0.00902394 -0.000758207 1.44922e-17)
(0.00901086 -0.00106153 1.22548e-17)
(0.00899339 -0.0013649 1.6922e-17)
(0.00897151 -0.00166832 1.73474e-17)
(0.00894519 -0.0019718 1.49568e-17)
(0.0089144 -0.00227532 2.96837e-17)
(0.00887909 -0.00257891 5.71544e-17)
(0.00866561 0.00673825 4.29268e-18)
(0.0079416 0.00727853 1.37703e-18)
(0.00805783 0.00697125 1.61626e-18)
(0.00816687 0.0066646 8.98205e-19)
(0.00827027 0.00635714 1.74539e-18)
(0.00836812 0.00604898 4.41738e-18)
(0.00846048 0.00574025 3.47178e-18)
(0.00854744 0.00543104 2.44074e-18)
(0.00862906 0.00512145 4.58926e-18)
(0.00870543 0.00481155 5.32955e-18)
(0.00877662 0.00450141 4.57212e-18)
(0.00884271 0.0041911 1.87696e-18)
(0.00890375 0.00388067 1.93934e-18)
(0.00895983 0.00357017 9.80631e-19)
(0.00901099 0.00325961 2.82618e-19)
(0.00905731 0.00294904 3.76342e-18)
(0.00909883 0.00263848 5.29273e-18)
(0.00913561 0.00232795 4.828e-18)
(0.00916768 0.00201744 2.7039e-18)
(0.0091951 0.00170697 2.82809e-18)
(0.00921789 0.00139655 3.62265e-18)
(0.00923609 0.00108616 4.23705e-18)
(0.00924972 0.000775801 4.98716e-18)
(0.00925879 0.000465469 7.8694e-19)
(0.00926333 0.000155154 1.00712e-18)
(0.00926333 -0.000155156 1.48494e-17)
(0.00925879 -0.000465472 2.11993e-17)
(0.00924972 -0.000775803 1.491e-17)
(0.00923609 -0.00108616 1.48338e-17)
(0.00921789 -0.00139655 1.8908e-17)
(0.0091951 -0.00170697 1.97411e-17)
(0.00916768 -0.00201744 1.84766e-17)
(0.0091356 -0.00232795 3.42068e-17)
(0.00909883 -0.00263849 8.41837e-17)
(0.00883109 0.00691255 2.51475e-18)
(0.00811867 0.00743951 2.28813e-18)
(0.00823918 0.00712593 7.21055e-19)
(0.00835234 0.00681286 9.41406e-19)
(0.00845968 0.00649891 3.12416e-18)
(0.00856126 0.0061842 4.81564e-18)
(0.00865716 0.00586885 4.06771e-18)
(0.00874745 0.00555298 3.11143e-18)
(0.00883223 0.00523667 4.78653e-18)
(0.00891156 0.00492 4.90453e-18)
(0.00898551 0.00460306 3.76346e-18)
(0.00905418 0.0042859 1.6635e-18)
(0.00911761 0.00396859 2.0694e-18)
(0.00917589 0.00365117 1.95891e-18)
(0.00922907 0.00333367 5.09244e-19)
(0.00927722 0.00301613 3.09465e-18)
(0.00932039 0.00269857 4.61786e-18)
(0.00935863 0.00238101 4.25826e-18)
(0.00939198 0.00206347 2.81539e-18)
(0.0094205 0.00174595 3.01029e-18)
(0.0094442 0.00142845 3.46204e-18)
(0.00946313 0.00111098 3.91495e-18)
(0.00947731 0.000793541 5.16246e-18)
(0.00948675 0.000476116 8.1101e-19)
(0.00949146 0.000158703 1.38035e-18)
(0.00949146 -0.000158705 1.48595e-17)
(0.00948675 -0.000476118 1.95146e-17)
(0.00947731 -0.000793543 1.45106e-17)
(0.00946313 -0.00111099 1.72355e-17)
(0.0094442 -0.00142845 2.17153e-17)
(0.0094205 -0.00174595 2.20627e-17)
(0.00939198 -0.00206347 2.29544e-17)
(0.00935863 -0.00238101 4.23267e-17)
(0.00932039 -0.00269857 1.16545e-16)
(0.00899858 0.00708847 1.16999e-18)
(0.0082976 0.00760217 3.40558e-18)
(0.0084224 0.00728221 2.99248e-19)
(0.0085397 0.00696264 1.36969e-18)
(0.00865098 0.00664211 4.74128e-18)
(0.0087563 0.00632076 5.09111e-18)
(0.00885574 0.00599872 4.56362e-18)
(0.00894939 0.0056761 3.49229e-18)
(0.00903732 0.00535299 4.70733e-18)
(0.0091196 0.00502948 4.29742e-18)
(0.00919633 0.00470566 3.12178e-18)
(0.00926757 0.00438158 1.70999e-18)
(0.0093334 0.00405732 2.25654e-18)
(0.00939388 0.0037329 2.86731e-18)
(0.00944908 0.00340839 9.44343e-19)
(0.00949906 0.00308381 2.69131e-18)
(0.00954388 0.00275918 4.42935e-18)
(0.00958358 0.00243454 4.46035e-18)
(0.00961821 0.0021099 2.08732e-18)
(0.00964782 0.00178526 2.13057e-18)
(0.00967244 0.00146064 3.39777e-18)
(0.00969209 0.00113603 3.51805e-18)
(0.00970682 0.000811434 4.94551e-18)
(0.00971662 0.000486854 7.5858e-19)
(0.00972152 0.000162283 2.14759e-18)
(0.00972152 -0.000162285 1.44471e-17)
(0.00971662 -0.000486856 1.79389e-17)
(0.00970682 -0.000811436 1.41418e-17)
(0.00969209 -0.00113603 1.84555e-17)
(0.00967244 -0.00146064 2.29598e-17)
(0.00964782 -0.00178526 2.35047e-17)
(0.00961821 -0.0021099 2.73617e-17)
(0.00958357 -0.00243454 5.86026e-17)
(0.00954387 -0.00275919 1.58194e-16)
(0.00916817 0.00726608 1.45659e-18)
(0.00847848 0.00776661 5.13302e-18)
(0.00860758 0.00744018 3.83536e-19)
(0.00872905 0.00711401 2.25024e-18)
(0.00884428 0.00678681 5.69782e-18)
(0.00895335 0.00645874 4.86987e-18)
(0.00905634 0.00612992 5.05918e-18)
(0.00915334 0.00580047 3.44777e-18)
(0.00924443 0.00547048 4.70329e-18)
(0.00932968 0.00514005 4.17799e-18)
(0.00940918 0.00480927 2.69169e-18)
(0.00948301 0.00447819 1.84344e-18)
(0.00955122 0.00414689 2.16426e-18)
(0.00961391 0.00381542 3.46649e-18)
(0.00967113 0.00348382 1.42186e-18)
(0.00972294 0.00315212 2.15458e-18)
(0.0097694 0.00282037 4.04627e-18)
(0.00981056 0.00248857 4.07506e-18)
(0.00984647 0.00215676 7.11126e-19)
(0.00987718 0.00182493 1.23061e-18)
(0.0099027 0.00149311 3.91499e-18)
(0.00992309 0.0011613 3.17516e-18)
(0.00993836 0.000829489 4.0292e-18)
(0.00994853 0.00049769 8.94978e-19)
(0.00995361 0.000165895 3.01475e-18)
(0.00995361 -0.000165897 1.32867e-17)
(0.00994853 -0.000497692 1.65869e-17)
(0.00993836 -0.000829491 1.4732e-17)
(0.00992309 -0.0011613 1.93335e-17)
(0.0099027 -0.00149311 2.25856e-17)
(0.00987717 -0.00182493 2.27718e-17)
(0.00984647 -0.00215676 2.73348e-17)
(0.00981056 -0.00248857 4.75075e-17)
(0.0097694 -0.00282037 1.24419e-16)
(0.00933993 0.00744548 2.24353e-18)
(0.00866138 0.00793291 6.5477e-18)
(0.00879482 0.0075999 8.78599e-19)
(0.00892046 0.00726703 3.36544e-18)
(0.00903966 0.00693309 5.65539e-18)
(0.00915249 0.0065982 4.83261e-18)
(0.00925905 0.00626251 5.03747e-18)
(0.00935941 0.00592614 2.85391e-18)
(0.00945366 0.00558919 4.69771e-18)
(0.00954189 0.00525176 3.40518e-18)
(0.00962417 0.00491393 2.40203e-18)
(0.00970057 0.00457578 2.74073e-18)
(0.00977119 0.00423737 1.94481e-18)
(0.00983608 0.00389875 3.72995e-18)
(0.00989532 0.00355999 1.42399e-18)
(0.00994896 0.00322111 1.49206e-18)
(0.00999707 0.00288214 3.3578e-18)
(0.0100397 0.00254312 3.0538e-18)
(0.0100769 0.00220406 -3.15046e-19)
(0.0101087 0.00186499 1.22764e-18)
(0.0101351 0.0015259 4.97275e-18)
(0.0101562 0.00118681 3.06373e-18)
(0.010172 0.000847716 2.44674e-18)
(0.0101826 0.000508628 5.33548e-19)
(0.0101878 0.000169542 3.69274e-18)
(0.0101878 -0.000169543 1.21944e-17)
(0.0101826 -0.000508629 1.55483e-17)
(0.010172 -0.000847717 1.51475e-17)
(0.0101562 -0.00118681 1.94923e-17)
(0.0101351 -0.0015259 2.19454e-17)
(0.0101087 -0.00186499 2.19122e-17)
(0.0100769 -0.00220406 2.73031e-17)
(0.0100397 -0.00254312 4.28662e-17)
(0.00999706 -0.00288214 9.97337e-17)
(0.00951394 0.00762676 2.37629e-18)
(0.00884641 0.00810113 6.80095e-18)
(0.00898421 0.00776146 1.98083e-18)
(0.00911404 0.0074218 4.28149e-18)
(0.00923722 0.007081 5.09916e-18)
(0.00935383 0.00673921 4.71229e-18)
(0.00946396 0.00639656 4.61838e-18)
(0.0095677 0.00605318 2.5071e-18)
(0.00966512 0.00570918 4.53146e-18)
(0.00975633 0.00536465 2.28493e-18)
(0.00984139 0.0050197 3.12154e-18)
(0.00992039 0.00467438 3.81222e-18)
(0.0099934 0.00432878 9.61276e-19)
(0.0100605 0.00398295 3.33032e-18)
(0.0101218 0.00363694 1.4232e-18)
(0.0101772 0.00329079 1.20582e-18)
(0.010227 0.00294454 2.80013e-18)
(0.0102711 0.00259822 2.00945e-18)
(0.0103096 0.00225185 -1.12485e-18)
(0.0103424 0.00190544 1.35411e-18)
(0.0103698 0.00155901 5.68677e-18)
(0.0103916 0.00121257 2.99864e-18)
(0.010408 0.000866122 1.23403e-18)
(0.0104189 0.000519673 4.5576e-19)
(0.0104243 0.000173224 4.3288e-18)
(0.0104243 -0.000173226 1.1753e-17)
(0.0104189 -0.000519675 1.45235e-17)
(0.010408 -0.000866124 1.46554e-17)
(0.0103916 -0.00121257 1.90005e-17)
(0.0103698 -0.00155901 2.10294e-17)
(0.0103424 -0.00190544 2.07142e-17)
(0.0103095 -0.00225185 2.68067e-17)
(0.0102711 -0.00259822 3.89974e-17)
(0.010227 -0.00294454 7.60804e-17)
(0.00969029 0.00781 2.05321e-18)
(0.00903365 0.00827137 6.33065e-18)
(0.00917583 0.00792492 3.47006e-18)
(0.00930988 0.00757838 4.64702e-18)
(0.00943706 0.00723063 4.58851e-18)
(0.00955746 0.00688184 4.41575e-18)
(0.00967118 0.00653213 3.84826e-18)
(0.0097783 0.00618165 1.61663e-18)
(0.00987891 0.00583051 3.67944e-18)
(0.0099731 0.0054788 1.62964e-18)
(0.010061 0.00512662 4.61551e-18)
(0.0101426 0.00477406 4.46731e-18)
(0.010218 0.00442118 2.09355e-19)
(0.0102873 0.00406805 3.03144e-18)
(0.0103506 0.00371471 1.18369e-18)
(0.0104079 0.00336121 2.58991e-19)
(0.0104593 0.0030076 1.94688e-18)
(0.0105048 0.00265389 1.48516e-18)
(0.0105446 0.00230012 -1.09525e-18)
(0.0105786 0.00194631 1.27616e-18)
(0.0106068 0.00159246 5.72022e-18)
(0.0106294 0.0012386 3.13656e-18)
(0.0106463 0.000884718 8.75957e-19)
(0.0106576 0.000530833 7.20283e-19)
(0.0106632 0.000176944 4.48698e-18)
(0.0106632 -0.000176945 1.1318e-17)
(0.0106576 -0.000530834 1.39781e-17)
(0.0106463 -0.000884719 1.42758e-17)
(0.0106294 -0.0012386 1.78158e-17)
(0.0106068 -0.00159246 1.96409e-17)
(0.0105786 -0.00194631 1.94778e-17)
(0.0105446 -0.00230012 2.52378e-17)
(0.0105048 -0.00265389 3.5062e-17)
(0.0104593 -0.0030076 5.97984e-17)
(0.00986905 0.0079953 2.02998e-18)
(0.00922319 0.00844371 6.14035e-18)
(0.00936978 0.00809038 4.28359e-18)
(0.00950807 0.00773685 4.02675e-18)
(0.00963927 0.00738205 4.28418e-18)
(0.00976349 0.00702615 3.87816e-18)
(0.00988081 0.0066693 3.19237e-18)
(0.00999133 0.00631162 1.3152e-18)
(0.0100951 0.00595323 2.7448e-18)
(0.0101923 0.00559425 1.60312e-18)
(0.010283 0.00523476 5.6579e-18)
(0.0103672 0.00487486 4.73784e-18)
(0.010445 0.00451461 4.58041e-19)
(0.0105166 0.00415409 3.26827e-18)
(0.0105819 0.00379334 7.58799e-19)
(0.010641 0.00343241 -8.21199e-19)
(0.0106941 0.00307134 1.11625e-18)
(0.0107411 0.00271017 9.23797e-19)
(0.0107821 0.00234893 -8.47032e-19)
(0.0108172 0.00198762 1.2783e-18)
(0.0108464 0.00162627 6.24229e-18)
(0.0108697 0.0012649 3.55861e-18)
(0.0108872 0.000903512 3.60594e-19)
(0.0108988 0.000542111 8.09736e-19)
(0.0109046 0.000180704 4.37702e-18)
(0.0109046 -0.000180705 1.08132e-17)
(0.0108988 -0.000542112 1.35106e-17)
(0.0108872 -0.000903513 1.38608e-17)
(0.0108697 -0.0012649 1.66795e-17)
(0.0108464 -0.00162628 1.84896e-17)
(0.0108172 -0.00198762 1.82688e-17)
(0.0107821 -0.00234893 2.33236e-17)
(0.0107411 -0.00271017 3.16083e-17)
(0.0106941 -0.00307134 4.87251e-17)
(0.0100503 0.00818274 1.81627e-18)
(0.00941513 0.00861823 5.6976e-18)
(0.00956616 0.00825792 4.1804e-18)
(0.00970871 0.00789729 3.71257e-18)
(0.00984396 0.00753534 4.33533e-18)
(0.00997201 0.00717223 3.79959e-18)
(0.0100929 0.00680812 3.02231e-18)
(0.0102069 0.00644314 6.72194e-19)
(0.0103139 0.00607742 1.71746e-18)
(0.0104141 0.00571106 2.94328e-18)
(0.0105076 0.00534417 5.79542e-18)
(0.0105944 0.00497683 3.98796e-18)
(0.0106746 0.00460913 9.37085e-19)
(0.0107484 0.00424112 3.68556e-18)
(0.0108158 0.00387286 3.67706e-19)
(0.0108768 0.00350441 -1.60576e-18)
(0.0109315 0.00313581 2.39707e-19)
(0.01098 0.00276708 9.58051e-19)
(0.0110223 0.00239827 -5.17194e-19)
(0.0110585 0.00202939 1.00438e-18)
(0.0110886 0.00166046 6.79495e-18)
(0.0111126 0.0012915 3.54491e-18)
(0.0111306 0.000922514 -8.6639e-20)
(0.0111426 0.000553514 8.12636e-19)
(0.0111486 0.000184505 3.98101e-18)
(0.0111486 -0.000184506 1.01532e-17)
(0.0111426 -0.000553515 1.27369e-17)
(0.0111306 -0.000922516 1.34786e-17)
(0.0111126 -0.0012915 1.59277e-17)
(0.0110886 -0.00166046 1.75859e-17)
(0.0110585 -0.00202939 1.72838e-17)
(0.0110223 -0.00239827 2.17842e-17)
(0.01098 -0.00276708 2.85663e-17)
(0.0109315 -0.00313581 4.05895e-17)
(0.0108768 -0.00350441 5.61006e-18)
(0.0102342 0.00837242 3.31041e-19)
(0.00960955 0.00879502 4.85676e-18)
(0.00976506 0.00842761 3.84794e-18)
(0.0099119 0.00805977 3.32187e-18)
(0.0100512 0.00769056 4.55177e-18)
(0.0101831 0.00732014 3.70629e-18)
(0.0103077 0.00694867 2.93475e-18)
(0.0104251 0.00657629 4.60906e-19)
(0.0105353 0.00620313 1.69744e-18)
(0.0106385 0.0058293 3.7978e-18)
(0.0107348 0.0054549 4.66418e-18)
(0.0108243 0.00508003 3.55342e-18)
(0.010907 0.00470477 1.93408e-18)
(0.010983 0.00432918 3.45712e-18)
(0.0110523 0.00395332 -1.01262e-21)
(0.0111152 0.00357726 -2.07359e-18)
(0.0111716 0.00320102 -3.89264e-19)
(0.0112216 0.00282466 1.32853e-18)
(0.0112652 0.00244819 -6.90101e-19)
(0.0113025 0.00207164 7.20259e-19)
(0.0113335 0.00169504 7.04416e-18)
(0.0113582 0.0013184 3.18999e-18)
(0.0113768 0.000941734 3.21612e-19)
(0.0113891 0.000565047 1.93195e-18)
(0.0113953 0.00018835 3.60287e-18)
(0.0113953 -0.000188351 8.64917e-18)
(0.0113891 -0.000565048 1.18573e-17)
(0.0113768 -0.000941736 1.3418e-17)
(0.0113582 -0.0013184 1.47895e-17)
(0.0113335 -0.00169505 1.60728e-17)
(0.0113024 -0.00207165 1.62494e-17)
(0.0112652 -0.00244819 2.0074e-17)
(0.0112216 -0.00282466 2.60922e-17)
(0.0111716 -0.00320102 3.45338e-17)
(0.0111152 -0.00357726 6.06353e-18)
(0.0104208 0.00856444 -1.24383e-18)
(0.00980657 0.00897417 3.85175e-18)
(0.00996658 0.00859954 3.53266e-18)
(0.0101177 0.00822439 3.09461e-18)
(0.0102612 0.0078478 4.97453e-18)
(0.0103969 0.00746996 3.24363e-18)
(0.0105252 0.00709102 2.68396e-18)
(0.010646 0.00671113 5.1734e-19)
(0.0107595 0.00633042 1.98998e-18)
(0.0108658 0.00594901 3.91861e-18)
(0.0109649 0.00556701 3.71241e-18)
(0.011057 0.0051845 3.46443e-18)
(0.0111421 0.00480158 2.62977e-18)
(0.0112203 0.00441831 2.85314e-18)
(0.0112918 0.00403476 2.22265e-19)
(0.0113565 0.00365098 -1.60069e-18)
(0.0114145 0.00326702 -6.54823e-19)
(0.011466 0.00288292 7.48047e-19)
(0.0115109 0.0024987 -1.75053e-18)
(0.0115493 0.0021144 4.81952e-19)
(0.0115812 0.00173004 6.31642e-18)
(0.0116067 0.00134563 3.08258e-18)
(0.0116258 0.000961182 1.73783e-18)
(0.0116386 0.000576717 3.39428e-18)
(0.0116449 0.00019224 3.64065e-18)
(0.0116449 -0.000192241 7.23321e-18)
(0.0116386 -0.000576718 1.11044e-17)
(0.0116258 -0.000961183 1.33734e-17)
(0.0116067 -0.00134563 1.33936e-17)
(0.0115812 -0.00173004 1.46036e-17)
(0.0115493 -0.0021144 1.56103e-17)
(0.0115109 -0.0024987 1.82271e-17)
(0.011466 -0.00288292 2.35011e-17)
(0.0114145 -0.00326702 2.86495e-17)
(0.0113565 -0.00365098 6.40646e-18)
(0.0106101 0.00875889 -1.59138e-18)
(0.0100063 0.00915577 2.991e-18)
(0.0101708 0.0087738 3.02823e-18)
(0.0103263 0.00839121 2.4948e-18)
(0.0104739 0.00800714 5.46938e-18)
(0.0106136 0.00762176 3.31141e-18)
(0.0107455 0.00723524 2.15642e-18)
(0.0108698 0.00684773 3.71871e-19)
(0.0109865 0.00645937 1.80617e-18)
(0.0110959 0.00607027 3.54747e-18)
(0.0111978 0.00568055 3.29857e-18)
(0.0112926 0.0052903 3.54236e-18)
(0.0113801 0.00489962 2.34154e-18)
(0.0114606 0.00450857 2.00582e-18)
(0.0115341 0.00411722 1.02887e-18)
(0.0116007 0.00372563 -7.70287e-19)
(0.0116605 0.00333384 -1.0377e-18)
(0.0117134 0.0029419 -1.69115e-19)
(0.0117596 0.00254984 -2.62381e-18)
(0.0117991 0.00215768 2.64828e-19)
(0.011832 0.00176546 4.98273e-18)
(0.0118582 0.00137318 3.47741e-18)
(0.0118779 0.000980866 3.71872e-18)
(0.011891 0.000588529 4.6206e-18)
(0.0118975 0.000196177 3.49595e-18)
(0.0118975 -0.000196178 6.03271e-18)
(0.011891 -0.00058853 1.06146e-17)
(0.0118779 -0.000980867 1.34883e-17)
(0.0118582 -0.00137318 1.21887e-17)
(0.011832 -0.00176546 1.32143e-17)
(0.0117991 -0.00215768 1.50188e-17)
(0.0117596 -0.00254984 1.63251e-17)
(0.0117134 -0.0029419 2.12866e-17)
(0.0116605 -0.00333384 2.45227e-17)
(0.0108023 0.00895587 -1.58979e-18)
(0.0102088 0.0093399 2.92375e-18)
(0.0103779 0.00895048 3.19608e-18)
(0.0105378 0.00856034 2.23898e-18)
(0.0106895 0.00816866 6.05574e-18)
(0.0108331 0.00777563 2.90029e-18)
(0.0109688 0.00738141 5.60185e-19)
(0.0110965 0.00698616 1.41923e-19)
(0.0112166 0.00659003 2.09315e-18)
(0.011329 0.00619313 3.66943e-18)
(0.0114338 0.00579558 3.06405e-18)
(0.0115312 0.00539749 3.14347e-18)
(0.0116213 0.00499893 2.03703e-18)
(0.011704 0.00459999 1.87632e-18)
(0.0117796 0.00420074 1.82208e-18)
(0.0118481 0.00380123 -7.86946e-19)
(0.0119095 0.00340151 -1.54704e-18)
(0.0119639 0.00300163 -5.23467e-19)
(0.0120114 0.00260162 -2.78673e-18)
(0.012052 0.00220151 3.48865e-19)
(0.0120858 0.00180132 4.07247e-18)
(0.0121128 0.00140108 3.87012e-18)
(0.012133 0.0010008 4.76986e-18)
(0.0121465 0.000600489 5.123e-18)
(0.0121532 0.000200164 3.21491e-18)
(0.0121532 -0.000200165 5.15824e-18)
(0.0121465 -0.00060049 1.04225e-17)
(0.012133 -0.0010008 1.38367e-17)
(0.0121128 -0.00140108 1.16812e-17)
(0.0120858 -0.00180132 1.20771e-17)
(0.012052 -0.00220151 1.41844e-17)
(0.0120114 -0.00260162 1.49297e-17)
(0.0119639 -0.00300163 2.00205e-17)
(0.0119095 -0.00340151 2.09603e-17)
(0.0109975 0.00915549 -1.17491e-18)
(0.0104141 0.00952667 3.81618e-18)
(0.0105879 0.00912966 3.08762e-18)
(0.0107522 0.00873185 2.05998e-18)
(0.0109081 0.00833244 6.32839e-18)
(0.0110557 0.00793163 2.00864e-18)
(0.0111951 0.0075296 -4.31125e-19)
(0.0113264 0.00712649 6.82216e-19)
(0.0114497 0.00672247 2.47594e-18)
(0.0115652 0.00631766 3.50322e-18)
(0.0116729 0.00591217 2.75877e-18)
(0.011773 0.00550611 2.99256e-18)
(0.0118655 0.00509957 2.13261e-18)
(0.0119506 0.00469263 1.74627e-18)
(0.0120282 0.00428536 1.86448e-18)
(0.0120986 0.00387782 -1.16065e-18)
(0.0121617 0.00347007 -1.52288e-18)
(0.0122176 0.00306214 -2.57498e-19)
(0.0122664 0.00265408 -2.57026e-18)
(0.0123082 0.00224591 2.55933e-19)
(0.0123429 0.00183766 3.44214e-18)
(0.0123706 0.00142934 3.92732e-18)
(0.0123914 0.00102099 4.95704e-18)
(0.0124053 0.000612604 5.23848e-18)
(0.0124122 0.000204203 3.11925e-18)
(0.0124122 -0.000204204 4.65388e-18)
(0.0124053 -0.000612605 1.01854e-17)
(0.0123914 -0.00102099 1.38599e-17)
(0.0123706 -0.00142934 1.12988e-17)
(0.0123429 -0.00183766 1.12871e-17)
(0.0123082 -0.00224591 1.33425e-17)
(0.0122664 -0.00265408 1.42347e-17)
(0.0122176 -0.00306214 1.98491e-17)
(0.0121617 -0.00347007 1.78842e-17)
(0.0111958 0.00935784 -1.50695e-18)
(0.0106225 0.00971617 4.71999e-18)
(0.0108009 0.00931145 1.88512e-18)
(0.0109697 0.00890583 1.56581e-18)
(0.0111298 0.00849857 6.04828e-18)
(0.0112814 0.00808986 1.67043e-18)
(0.0114246 0.00767988 -6.31068e-19)
(0.0115594 0.0072688 9.22106e-19)
(0.0116861 0.00685677 2.38859e-18)
(0.0118047 0.00644391 3.05196e-18)
(0.0119153 0.00603036 2.57983e-18)
(0.0120181 0.00561622 2.77798e-18)
(0.0121131 0.00520158 2.03048e-18)
(0.0122005 0.00478653 1.9948e-18)
(0.0122802 0.00437113 2.04448e-18)
(0.0123525 0.00395546 -1.27889e-18)
(0.0124173 0.00353955 -1.44408e-18)
(0.0124747 0.00312347 -2.55503e-19)
(0.0125249 0.00270724 -2.49251e-18)
(0.0125677 0.0022909 -1.67533e-19)
(0.0126034 0.00187447 3.05495e-18)
(0.0126319 0.00145798 3.88468e-18)
(0.0126532 0.00104145 4.76285e-18)
(0.0126674 0.000624879 5.00198e-18)
(0.0126745 0.000208295 3.49857e-18)
(0.0126745 -0.000208296 4.59651e-18)
(0.0126674 -0.00062488 1.00858e-17)
(0.0126532 -0.00104145 1.39666e-17)
(0.0126319 -0.00145798 1.09333e-17)
(0.0126034 -0.00187447 1.05558e-17)
(0.0125677 -0.0022909 1.20745e-17)
(0.0125249 -0.00270724 1.38297e-17)
(0.0124747 -0.00312347 1.94136e-17)
(0.0124173 -0.00353955 1.49355e-17)
(0.0113972 0.00956304 -1.19742e-18)
(0.010834 0.0099085 5.09466e-18)
(0.0110171 0.00949593 6.35672e-19)
(0.0111904 0.00908238 2.00653e-18)
(0.0113548 0.00866713 5.49263e-18)
(0.0115104 0.00825039 1.28523e-18)
(0.0116573 0.00783234 -1.26383e-18)
(0.0117958 0.00741315 4.92262e-19)
(0.0119258 0.00699298 2.33482e-18)
(0.0120475 0.00657197 3.2931e-18)
(0.0121611 0.00615023 2.91071e-18)
(0.0122666 0.00572789 2.64933e-18)
(0.0123641 0.00530503 2.23527e-18)
(0.0124538 0.00488174 2.37642e-18)
(0.0125357 0.0044581 1.75797e-18)
(0.0126098 0.00403416 -1.26492e-18)
(0.0126763 0.00361 -1.27803e-18)
(0.0127353 0.00318564 -6.23423e-20)
(0.0127868 0.00276113 -2.77336e-18)
(0.0128308 0.00233651 -1.30004e-18)
(0.0128674 0.00191179 2.65986e-18)
(0.0128966 0.00148701 4.08414e-18)
(0.0129185 0.00106218 4.74962e-18)
(0.0129331 0.000637322 4.68792e-18)
(0.0129404 0.000212443 4.0439e-18)
(0.0129404 -0.000212443 4.80678e-18)
(0.0129331 -0.000637323 9.95948e-18)
(0.0129185 -0.00106218 1.42179e-17)
(0.0128966 -0.00148701 1.07561e-17)
(0.0128674 -0.00191179 9.86526e-18)
(0.0128308 -0.00233651 1.05e-17)
(0.0127868 -0.00276113 1.34825e-17)
(0.0127353 -0.00318564 1.85884e-17)
(0.0116019 0.00977118 7.26337e-19)
(0.0110487 0.0101038 5.01358e-18)
(0.0112366 0.00968321 2.27713e-19)
(0.0114144 0.00926158 2.24645e-18)
(0.0115831 0.00883821 4.38643e-18)
(0.0117428 0.00841331 6.82326e-19)
(0.0118935 0.00798705 -1.20368e-18)
(0.0120356 0.00755963 1.04624e-18)
(0.012169 0.0071312 2.30879e-18)
(0.0122939 0.00670189 3.6213e-18)
(0.0124104 0.00627184 3.67815e-18)
(0.0125187 0.00584117 2.28662e-18)
(0.0126187 0.00540996 1.99853e-18)
(0.0127107 0.00497831 2.50217e-18)
(0.0127947 0.0045463 1.32117e-18)
(0.0128708 0.00411399 -1.20379e-18)
(0.012939 0.00368143 -9.58478e-19)
(0.0129995 0.00324868 1.3624e-20)
(0.0130523 0.00281578 -3.41145e-18)
(0.0130974 0.00238275 -2.10661e-18)
(0.013135 0.00194964 2.34416e-18)
(0.013165 0.00151645 4.24247e-18)
(0.0131875 0.00108321 4.85179e-18)
(0.0132024 0.000649939 4.35036e-18)
(0.0132099 0.000216648 4.53467e-18)
(0.0132099 -0.000216649 5.51009e-18)
(0.0132024 -0.000649939 9.81629e-18)
(0.0131875 -0.00108321 1.40827e-17)
(0.013165 -0.00151645 1.08067e-17)
(0.013135 -0.00194964 9.63025e-18)
(0.0130974 -0.00238275 9.24068e-18)
(0.0130523 -0.00281578 1.22185e-17)
(0.0129995 -0.00324868 1.63969e-17)
(0.0118101 0.0099824 2.98852e-18)
(0.0112667 0.0103021 4.16539e-18)
(0.0114595 0.00987338 -1.15437e-19)
(0.0116419 0.00944354 1.98588e-18)
(0.0118149 0.00901191 3.48624e-18)
(0.0119786 0.0085787 5.96769e-19)
(0.0121333 0.00814411 -4.58381e-19)
(0.012279 0.00770831 1.24643e-18)
(0.0124158 0.00727148 2.13821e-18)
(0.0125439 0.00683375 3.57523e-18)
(0.0126634 0.00639525 4.28862e-18)
(0.0127744 0.00595612 2.10469e-18)
(0.012877 0.00551643 1.66094e-18)
(0.0129713 0.0050763 2.52566e-18)
(0.0130574 0.00463579 1.16305e-18)
(0.0131355 0.00419497 -1.63993e-18)
(0.0132055 0.00375391 -1.02281e-18)
(0.0132675 0.00331264 1.0493e-20)
(0.0133216 0.00287122 -3.72065e-18)
(0.0133679 0.00242967 -2.32872e-18)
(0.0134064 0.00198802 2.04274e-18)
(0.0134372 0.00154631 4.14648e-18)
(0.0134602 0.00110454 4.88374e-18)
(0.0134756 0.000662736 4.0561e-18)
(0.0134832 0.000220914 4.99454e-18)
(0.0134832 -0.000220915 6.70608e-18)
(0.0134756 -0.000662737 9.78878e-18)
(0.0134602 -0.00110454 1.33447e-17)
(0.0134372 -0.00154631 1.04952e-17)
(0.0134064 -0.00198802 9.59463e-18)