/*--------------------------------*- C++ -*----------------------------------*\
  =========                 |
  \\      /  F ield         | OpenFOAM: The Open Source CFD Toolbox
   \\    /   O peration     | Website:  https://openfoam.org
    \\  /    A nd           | Version:  7
     \\/     M anipulation  |
\*---------------------------------------------------------------------------*/
FoamFile
{
    version     2.0;
    format      ascii;
    class       volVectorField;
    location    "68000";
    object      vorticity;
}
// * * * * * * * * * * * * * * * * * * * * * * * * * * * * * * * * * * * * * //

dimensions      [0 0 -1 0 0 0 0];

internalField   nonuniform List<vector> 
4850
(
(4.59744e-05 3.22032e-05 2.75633e-17)
(3.76829e-05 3.9101e-05 2.87092e-17)
(5.0912e-05 3.53354e-05 3.81576e-17)
(3.92385e-05 4.04587e-05 3.78204e-17)
(3.80445e-05 3.9756e-05 2.30132e-17)
(7.19867e-05 4.89517e-05 4.82957e-17)
(4.66301e-05 4.72196e-05 4.87964e-17)
(4.16331e-05 4.20608e-05 2.48821e-17)
(3.9418e-05 4.02738e-05 1.50155e-17)
(3.89309e-05 3.95793e-05 -2.49446e-18)
(0.000142479 9.51136e-05 4.84051e-17)
(7.91878e-05 7.64347e-05 6.66782e-17)
(5.7861e-05 5.51382e-05 2.51595e-17)
(4.68287e-05 4.55324e-05 2.17512e-17)
(4.26182e-05 4.14188e-05 -3.03586e-19)
(4.09317e-05 3.97602e-05 -3.02837e-17)
(0.00032745 0.000219525 2.77033e-17)
(0.000179533 0.000167256 8.11822e-17)
(0.000116794 0.000104796 3.18437e-17)
(7.98081e-05 7.07266e-05 3.28561e-17)
(5.95727e-05 5.32198e-05 1.10726e-17)
(4.89447e-05 4.46548e-05 -3.81716e-17)
(4.50351e-05 4.07876e-05 -6.23945e-17)
(0.000694957 0.000477972 6.21725e-18)
(0.000414987 0.000384353 8.39933e-17)
(0.000279219 0.00024421 5.26918e-17)
(0.000183872 0.000153569 5.96232e-17)
(0.000122122 9.94862e-05 3.79891e-17)
(8.53237e-05 6.89818e-05 -4.51603e-17)
(6.48851e-05 5.27451e-05 -9.25473e-17)
(5.35503e-05 4.43435e-05 -6.58523e-17)
(4.87465e-05 3.98847e-05 -2.06739e-17)
(0.00123969 0.00087745 -1.7103e-17)
(0.000826326 0.000769595 3.90239e-17)
(0.000611212 0.000536653 4.77415e-17)
(0.000432585 0.000357853 8.19026e-17)
(0.000296273 0.000231774 6.37502e-17)
(0.000200201 0.000149567 -4.74908e-17)
(0.000136622 9.94118e-05 -1.0963e-16)
(9.74455e-05 7.02271e-05 -6.74559e-17)
(7.47449e-05 5.36653e-05 -3.70957e-18)
(6.15773e-05 4.43187e-05 -6.0798e-18)
(0.00186952 0.00135248 -1.86447e-17)
(0.0013694 0.00127682 -1.90525e-17)
(0.00111362 0.000982646 -2.00311e-17)
(0.000870215 0.000724445 1.92809e-17)
(0.000653273 0.000511478 3.69311e-17)
(0.000473005 0.000348048 -3.2576e-17)
(0.000333584 0.000231514 -1.08737e-16)
(0.000233025 0.000153786 -4.88252e-17)
(0.000164259 0.000104545 3.70493e-17)
(0.000119536 7.46233e-05 1.13903e-17)
(9.16802e-05 5.62097e-05 -1.4677e-17)
(7.49073e-05 4.49422e-05 -2.30406e-17)
(6.44134e-05 3.78016e-05 -2.30445e-17)
(5.82578e-05 3.29132e-05 6.54746e-18)
(0.0024898 0.00182985 -1.47532e-17)
(0.0019501 0.00181306 -2.72376e-17)
(0.00170369 0.00150066 -3.84835e-17)
(0.00144712 0.00120593 -5.18882e-17)
(0.00119065 0.000936151 -6.36414e-17)
(0.000947327 0.000700297 -9.68581e-17)
(0.000729293 0.000505397 -8.21744e-17)
(0.000545487 0.000353985 -1.24864e-19)
(0.000399793 0.000243316 7.12531e-17)
(0.000290552 0.000166798 3.33061e-17)
(0.000212606 0.00011588 3.53693e-18)
(0.000158452 8.28972e-05 2.51369e-18)
(0.000122097 6.17347e-05 -9.1541e-18)
(9.83554e-05 4.75312e-05 2.27187e-17)
(8.36937e-05 3.83611e-05 3.30489e-17)
(7.38127e-05 3.21556e-05 3.68155e-17)
(6.71553e-05 2.72782e-05 5.46975e-17)
(6.2976e-05 2.347e-05 1.04795e-17)
(0.00306052 0.00227721 -8.00918e-18)
(0.0025038 0.00232067 -1.83372e-17)
(0.00229129 0.00201068 -2.46828e-17)
(0.00206069 0.0017111 -3.52534e-17)
(0.00181571 0.00142421 -8.42449e-17)
(0.00156261 0.00115514 -1.37826e-16)
(0.00131003 0.000910271 -7.74358e-17)
(0.00106945 0.000696031 3.52018e-19)
(0.000851264 0.000517151 5.10174e-17)
(0.000663002 0.00037523 3.88542e-17)
(0.000508475 0.000267771 3.84066e-17)
(0.000387122 0.000189928 2.46733e-17)
(0.000295566 0.000135342 1.21379e-17)
(0.000228615 9.74304e-05 5.14155e-17)
(0.000180488 7.18198e-05 5.16392e-17)
(0.000146452 5.47576e-05 3.91225e-17)
(0.000122529 4.25774e-05 7.12924e-17)
(0.000106086 3.34353e-05 3.25789e-17)
(9.56277e-05 2.68509e-05 -3.12726e-17)
(8.83721e-05 2.19445e-05 -1.68418e-17)
(0.0035803 0.00269195 -3.50115e-18)
(0.00301326 0.00278665 -5.48743e-18)
(0.00283713 0.00248193 -9.50781e-18)
(0.00264334 0.00218648 -2.0534e-17)
(0.00243305 0.00190035 -4.90308e-17)
(0.00220767 0.00162543 -7.30135e-17)
(0.00197017 0.00136463 -4.43336e-17)
(0.00172631 0.00112189 -8.90253e-18)
(0.00148305 0.000901592 6.10818e-18)
(0.00124947 0.000708108 4.74707e-18)
(0.00103408 0.000543963 7.98578e-18)
(0.000843222 0.000410073 1.16972e-17)
(0.000680554 0.000304804 2.91384e-17)
(0.000546756 0.000224297 6.51429e-17)
(0.000439785 0.000164714 6.79447e-17)
(0.000356813 0.000121802 5.12008e-17)
(0.000293682 9.06606e-05 9.42323e-17)
(0.000246507 6.76547e-05 8.50093e-17)
(0.000211712 5.09926e-05 1.41951e-17)
(0.0001864 3.90372e-05 2.53017e-17)
(0.000168212 2.97947e-05 3.79827e-17)
(0.000154979 2.21899e-05 -3.00053e-17)
(0.000145792 1.56634e-05 -3.53271e-17)
(0.00014006 9.89309e-06 -7.38507e-17)
(0.00405835 0.00307985 -2.83357e-19)
(0.00348304 0.00321616 1.53368e-18)
(0.00333871 0.00291436 7.11529e-19)
(0.00317877 0.0026218 -7.02439e-18)
(0.00300428 0.0023382 -2.20195e-17)
(0.00281547 0.00206446 -2.84218e-17)
(0.00261306 0.00180182 -1.14529e-17)
(0.00239882 0.001552 5.12423e-18)
(0.00217538 0.0013172 1.03155e-17)
(0.00194738 0.00110016 -6.57558e-18)
(0.00172049 0.000903419 -2.55208e-17)
(0.00150082 0.000729351 -3.66569e-17)
(0.00129499 0.00057939 -1.35717e-17)
(0.00110809 0.000453289 1.05633e-17)
(0.000943083 0.00035031 3.87535e-17)
(0.00080193 0.00026861 4.66417e-17)
(0.00068433 0.000204589 1.07195e-16)
(0.000588565 0.000154699 1.68837e-16)
(0.000512115 0.000116468 8.14466e-17)
(0.000452712 8.74937e-05 7.64678e-17)
(0.000407581 6.51434e-05 1.15638e-16)
(0.000374031 4.73111e-05 5.10868e-17)
(0.000350309 3.23703e-05 6.87619e-17)
(0.000335267 1.94004e-05 4.94839e-18)
(0.000328246 7.54909e-06 -8.76126e-17)
(0.000328386 -4.02761e-06 1.66494e-16)
(0.000335869 -1.60135e-05 3.7404e-16)
(0.000351184 -2.9097e-05 2.02669e-16)
(0.000375222 -4.41317e-05 1.56242e-16)
(0.00450278 0.00344621 2.87837e-18)
(0.00392085 0.00361635 3.34558e-18)
(0.00380382 0.00331517 5.65431e-18)
(0.00367269 0.00302291 1.27261e-18)
(0.00352889 0.00273938 -5.57705e-18)
(0.00337281 0.00246541 -2.60267e-18)
(0.00320495 0.00220185 4.03454e-18)
(0.00302609 0.00194969 5.46712e-18)
(0.00283727 0.00171008 1.82391e-17)
(0.00264036 0.00148435 1.31752e-17)
(0.00243788 0.00127391 -2.94378e-18)
(0.0022331 0.00108023 -3.76124e-17)
(0.00203033 0.000904685 -3.7085e-17)
(0.00183391 0.000748061 -5.14927e-17)
(0.00164768 0.000610908 -2.96895e-17)
(0.00147612 0.000493298 6.49502e-18)
(0.0013222 0.0003939 4.96705e-17)
(0.00118746 0.000310696 1.11471e-16)
(0.00107219 0.000242076 2.07678e-17)
(0.000976624 0.000186218 -1.8806e-18)
(0.000899773 0.000140569 4.91792e-17)
(0.000840527 0.000102646 4.94136e-17)
(0.000797421 7.01184e-05 1.20582e-16)
(0.000769426 4.12186e-05 4.06218e-17)
(0.000755977 1.45664e-05 -9.41787e-17)
(0.000756395 -1.13606e-05 1.7949e-16)
(0.00077072 -3.8142e-05 4.04091e-16)
(0.000799415 -6.71479e-05 1.90407e-16)
(0.000843316 -9.99161e-05 1.20316e-16)
(0.000903579 -0.000138302 2.45719e-16)
(0.000981112 -0.000184398 1.86164e-16)
(0.00107735 -0.000240569 1.56917e-16)
(0.00491916 0.0037946 5.34293e-18)
(0.0043325 0.00399245 3.62022e-18)
(0.00423947 0.00369042 6.36733e-18)
(0.00413334 0.00339672 4.93764e-18)
(0.00401566 0.00311119 5.01499e-18)
(0.00388712 0.00283473 1.08977e-17)
(0.00374842 0.00256816 1.24752e-17)
(0.00360035 0.00231232 8.76898e-18)
(0.0034438 0.00206807 2.16782e-17)
(0.00327993 0.00183626 2.06737e-17)
(0.00311018 0.0016177 7.54614e-18)
(0.00293633 0.00141321 -2.45471e-17)
(0.00276064 0.0012235 -2.92837e-17)
(0.00258573 0.00104911 -4.35763e-17)
(0.00241428 0.000890519 -4.35422e-17)
(0.00224977 0.000748003 -6.88484e-18)
(0.00209538 0.000621216 -3.70888e-20)
(0.00195365 0.000509286 2.31516e-17)
(0.00182634 0.000411323 -9.35167e-17)
(0.00171573 0.000326283 -1.39036e-16)
(0.00162306 0.000252412 -7.8589e-17)
(0.00154918 0.000187619 -6.04614e-17)
(0.00149404 0.000129633 2.16973e-17)
(0.00145754 7.63748e-05 -5.50528e-17)
(0.00143953 2.60416e-05 -1.83519e-16)
(0.00144012 -2.33065e-05 5.68701e-17)
(0.00145915 -7.37414e-05 2.41983e-16)
(0.0014967 -0.000127148 4.50546e-17)
(0.00155289 -0.000185488 -3.60414e-17)
(0.00162788 -0.000250713 4.31496e-17)
(0.00172125 -0.000324931 -2.77442e-17)
(0.0018325 -0.000410292 -8.64317e-17)
(0.00196048 -0.000508632 -1.00677e-16)
(0.00210278 -0.000621004 4.23896e-16)
(0.00531138 0.0041274 4.24774e-18)
(0.0047219 0.00434804 4.53496e-18)
(0.00465049 0.0040442 5.26493e-18)
(0.00456666 0.00374806 7.00556e-18)
(0.00447195 0.00345936 1.10083e-17)
(0.00436722 0.003179 1.68286e-17)
(0.00425324 0.00290781 1.83744e-17)
(0.00413092 0.00264659 1.47605e-17)
(0.00400126 0.00239614 2.46899e-17)
(0.00386535 0.00215718 2.24031e-17)
(0.00372446 0.0019303 1.06465e-17)
(0.00358002 0.0017161 -1.51183e-17)
(0.00343356 0.00151496 -2.33929e-17)
(0.0032869 0.00132715 -3.33881e-17)
(0.00314197 0.00115288 -3.80006e-17)
(0.003001 0.000992197 -5.8366e-19)
(0.00286634 0.000844853 7.85683e-18)
(0.00274018 0.000710322 1.67982e-17)
(0.00262444 0.000587958 -7.08995e-17)
(0.00252148 0.000476973 -1.21821e-16)
(0.00243327 0.000376145 -9.98723e-17)
(0.00236145 0.000283882 -8.73024e-17)
(0.002307 0.000198304 -4.06841e-17)
(0.00227053 0.000117482 -1.18892e-16)
(0.00225236 3.95742e-05 -2.05127e-16)
(0.00225297 -3.73536e-05 -2.10469e-17)
(0.00227219 -0.00011534 9.38006e-17)
(0.00230976 -0.00019633 -4.97279e-17)
(0.00236525 -0.000282223 -7.77966e-17)
(0.0024379 -0.000374802 2.57057e-19)
(0.00252676 -0.000475892 -8.70295e-18)
(0.00263028 -0.000587185 3.4334e-17)
(0.00274658 -0.000709892 1.15716e-16)
(0.0028732 -0.000844779 6.50855e-16)
(0.0056824 0.00444643 1.89886e-18)
(0.00509187 0.00468568 5.79254e-18)
(0.00504025 0.00437943 3.65086e-18)
(0.00497666 0.00408016 8.12096e-18)
(0.0049027 0.00378763 1.4802e-17)
(0.00481919 0.00350264 1.88179e-17)
(0.0047269 0.00322598 2.0334e-17)
(0.00462683 0.00295844 1.81278e-17)
(0.00451998 0.00270077 2.59464e-17)
(0.00440745 0.00245362 2.18889e-17)
(0.00429047 0.00221752 1.19118e-17)
(0.00417038 0.00199297 -6.90508e-18)
(0.00404859 0.00178028 -1.77922e-17)
(0.00392664 0.00157955 -2.2651e-17)
(0.00380614 0.00139088 -2.74996e-17)
(0.00368875 0.00121417 -1.46478e-18)
(0.00357625 0.0010491 8.09376e-18)
(0.00347039 0.000895183 9.56934e-18)
(0.00337289 0.000751804 -4.23133e-17)
(0.0032856 0.000618208 -7.36e-17)
(0.00321024 0.000493371 -6.27426e-17)
(0.00314837 0.000375997 -4.00617e-17)
(0.00310117 0.000264544 -4.34234e-18)
(0.0030694 0.000157356 -7.69982e-17)
(0.00305357 5.27495e-05 -1.35357e-16)
(0.0030541 -5.09981e-05 -1.11872e-18)
(0.00307093 -0.000155661 6.60974e-17)
(0.00310367 -0.000262998 -2.9395e-17)
(0.00315176 -0.000374678 -2.12112e-17)
(0.00321429 -0.000492266 5.04886e-17)
(0.00329024 -0.000617309 6.42448e-17)
(0.00337805 -0.000751162 1.52352e-16)
(0.00347596 -0.000894821 2.62092e-16)
(0.00358218 -0.00104905 8.25414e-16)
(0.00603468 0.00475317 5.3703e-19)
(0.00544469 0.00500747 6.70684e-18)
(0.00541129 0.00469831 2.72206e-18)
(0.00536627 0.00439544 8.83117e-18)
(0.00531131 0.00409863 1.6281e-17)
(0.00524706 0.00380858 1.85104e-17)
(0.00517433 0.00352605 2.09135e-17)
(0.00509411 0.00325174 1.98139e-17)
(0.00500732 0.00298638 2.55715e-17)
(0.00491506 0.00273058 2.05011e-17)
(0.00481853 0.00248484 1.27332e-17)
(0.00471891 0.00224957 1.73696e-19)
(0.00461763 0.00202506 -1.07206e-17)
(0.00451607 0.00181136 -1.22452e-17)
(0.00441564 0.00160852 -1.64095e-17)
(0.00431779 0.00141641 -8.41615e-19)
(0.004224 0.00123466 1.02792e-17)
(0.00413578 0.00106278 9.72777e-18)
(0.00405461 0.000900161 -2.73484e-17)
(0.00398195 0.000746082 -4.47907e-17)
(0.00391917 0.000599611 -3.46133e-17)
(0.00386753 0.000459599 -1.6918e-17)
(0.0038281 0.000324747 7.40476e-18)
(0.00380152 0.000193632 -4.63073e-17)
(0.00378828 6.47478e-05 -8.20614e-17)
(0.00378874 -6.34005e-05 1.33285e-17)
(0.00380286 -0.000192314 5.39849e-17)
(0.00383026 -0.000323541 -2.86996e-18)
(0.00387043 -0.000458543 2.50679e-17)
(0.00392265 -0.0005987 8.7351e-17)
(0.00398597 -0.000745342 1.13576e-16)
(0.00405912 -0.000899623 2.24186e-16)
(0.00414064 -0.00106246 3.59694e-16)
(0.00422913 -0.00123461 8.63998e-16)
(0.00637036 0.00504897 4.45097e-19)
(0.00578229 0.00531518 8.02722e-18)
(0.00576574 0.00500271 3.12265e-18)
(0.00573789 0.00469586 9.15438e-18)
(0.0057004 0.00439442 1.59383e-17)
(0.00565379 0.00409901 1.70188e-17)
(0.005599 0.00381037 2.00165e-17)
(0.0055368 0.0035291 1.96737e-17)
(0.00546809 0.00325588 2.46266e-17)
(0.00539397 0.0029913 1.93629e-17)
(0.00531553 0.00273584 1.35691e-17)
(0.00523384 0.00248984 5.4628e-18)
(0.00515028 0.00225356 -4.45086e-18)
(0.00506608 0.00202706 -4.88868e-18)
(0.00498247 0.00181036 -8.62735e-18)
(0.00490086 0.00160332 2.37426e-18)
(0.00482253 0.00140558 1.37331e-17)
(0.0047488 0.00121666 1.22943e-17)
(0.00468097 0.00103597 -1.86303e-17)
(0.00462026 0.000862847 -2.69345e-17)
(0.00456782 0.00069644 -1.1614e-17)
(0.00452468 0.000535697 -2.47179e-18)
(0.00449174 0.000379501 1.21992e-17)
(0.00446949 0.000226612 -2.07805e-17)
(0.00445844 7.56622e-05 -3.68833e-17)
(0.00445881 -7.46538e-05 2.80123e-17)
(0.00447064 -0.000225609 5.60772e-17)
(0.00449358 -0.00037857 2.8404e-17)
(0.00452717 -0.000534861 6.09308e-17)
(0.00457083 -0.000695705 1.14313e-16)
(0.00462377 -0.000862254 1.49932e-16)
(0.00468493 -0.00103553 2.58844e-16)
(0.00475307 -0.00121637 3.81888e-16)
(0.00482701 -0.00140552 8.00742e-16)
(0.00669143 0.00533504 6.63459e-19)
(0.00610634 0.0056104 8.82868e-18)
(0.00610547 0.00529425 3.83979e-18)
(0.00609355 0.0049831 9.06556e-18)
(0.00607219 0.00467673 1.48442e-17)
(0.00604189 0.00437574 1.58393e-17)
(0.0060036 0.0040808 1.90391e-17)
(0.00595793 0.00379247 1.90117e-17)
(0.00590575 0.00351134 2.33324e-17)
(0.00584813 0.003238 1.73543e-17)
(0.00578601 0.00297289 1.41976e-17)
(0.00572042 0.00271631 9.40158e-18)
(0.00565267 0.00246851 -6.42541e-19)
(0.00558377 0.00222955 -1.83319e-19)
(0.00551487 0.00199941 -3.35609e-18)
(0.00544733 0.00177799 5.08673e-18)
(0.00538227 0.00156495 1.57647e-17)
(0.00532084 0.00135981 1.30463e-17)
(0.00526426 0.00116204 -1.18568e-17)
(0.00521351 0.000971023 -1.29377e-17)
(0.00516966 0.000785987 5.78476e-18)
(0.00513356 0.000605983 7.39785e-18)
(0.00510593 0.000430033 1.37961e-17)
(0.00508727 0.000257032 -1.23101e-18)
(0.00507802 8.57416e-05 -3.94972e-18)
(0.0050783 -8.5003e-05 3.93602e-17)
(0.00508823 -0.000256298 6.29031e-17)
(0.00510751 -0.000429336 5.39494e-17)
(0.00513569 -0.00060534 8.4823e-17)
(0.00517228 -0.000785411 1.29574e-16)
(0.00521659 -0.000970563 1.68857e-16)
(0.00526775 -0.00116168 2.66688e-16)
(0.00532463 -0.00135954 3.59242e-16)
(0.00538622 -0.00156486 5.85441e-16)
(0.00699963 0.0056125 3.95101e-19)
(0.00641843 0.00589459 9.08477e-18)
(0.00643213 0.00557437 5.10176e-18)
(0.00643503 0.00525863 9.11589e-18)
(0.00642861 0.00494708 1.35243e-17)
(0.00641346 0.0046403 1.48709e-17)
(0.00639038 0.00433891 1.76599e-17)
(0.00635996 0.00404346 1.74201e-17)
(0.006323 0.00375442 2.0997e-17)
(0.00628049 0.00347237 1.53619e-17)
(0.00623324 0.00319772 1.55569e-17)
(0.00618237 0.00293078 1.29339e-17)
(0.00612891 0.00267175 1.43033e-18)
(0.00607382 0.00242073 2.31643e-18)
(0.00601814 0.00217763 3.4459e-20)
(0.00596314 0.00194238 6.60018e-18)
(0.00590986 0.00171472 1.61507e-17)
(0.00585931 0.00149414 1.28924e-17)
(0.00581261 0.00128018 -5.12254e-18)
(0.00577055 0.00107227 -2.12143e-18)
(0.00573414 0.000869703 1.62454e-17)
(0.00570408 0.000671646 1.37545e-17)
(0.00568101 0.000477218 1.51354e-17)
(0.00566542 0.000285422 1.09419e-17)
(0.00565771 9.51564e-05 1.56251e-17)
(0.00565795 -9.46323e-05 4.74652e-17)
(0.00566622 -0.000284916 6.86541e-17)
(0.00568233 -0.00047672 6.95825e-17)
(0.00570587 -0.000671168 9.64186e-17)
(0.0057364 -0.00086927 1.34778e-16)
(0.00577324 -0.00107192 1.73781e-16)
(0.00581563 -0.00127988 2.54779e-16)
(0.00586265 -0.00149389 3.19023e-16)
(0.00591337 -0.00171461 4.15649e-16)
(0.00729654 0.00588237 7.58862e-19)
(0.00672 0.0061691 8.36739e-18)
(0.00674723 0.00584441 5.90464e-18)
(0.00676392 0.00552379 9.03664e-18)
(0.00677141 0.00520683 1.21825e-17)
(0.00677033 0.00489408 1.40013e-17)
(0.00676134 0.0045861 1.61462e-17)
(0.00674503 0.00428346 1.55922e-17)
(0.00672213 0.00398652 1.87869e-17)
(0.00669351 0.00369582 1.43326e-17)
(0.00665993 0.00341177 1.71246e-17)
(0.00662254 0.00313467 1.54626e-17)
(0.00658215 0.00286471 3.14719e-18)
(0.00653965 0.00260201 4.34175e-18)
(0.00649604 0.00234642 2.78981e-18)
(0.0064524 0.00209788 7.10657e-18)
(0.00640979 0.0018562 1.55431e-17)
(0.00636909 0.0016209 1.28912e-17)
(0.00633122 0.00139156 6.29686e-19)
(0.00629696 0.00116765 5.15358e-18)
(0.00626716 0.000948511 2.11267e-17)
(0.0062425 0.000733433 1.77853e-17)
(0.00622348 0.000521605 1.72887e-17)
(0.00621062 0.000312121 1.80316e-17)
(0.00620427 0.000104011 2.62364e-17)
(0.00620449 -0.000103669 5.27496e-17)
(0.0062113 -0.000311793 7.0496e-17)
(0.00622456 -0.00052126 7.60357e-17)
(0.00624397 -0.000733101 1.00069e-16)
(0.0062691 -0.000948212 1.3296e-16)
(0.00629928 -0.00116738 1.68189e-16)
(0.00633378 -0.00139131 2.31927e-16)
(0.00637197 -0.00162068 2.75739e-16)
(0.00641288 -0.00185608 3.08758e-16)
(0.00758359 0.00614564 1.31736e-18)
(0.00701234 0.00643515 7.56242e-18)
(0.00705219 0.00610564 6.39223e-18)
(0.00708173 0.0057798 8.03093e-18)
(0.00710222 0.00545722 1.10013e-17)
(0.00711423 0.00513832 1.34062e-17)
(0.00711833 0.00482363 1.51271e-17)
(0.00711509 0.00451371 1.42388e-17)
(0.0071052 0.00420889 1.63103e-17)
(0.00708942 0.00390963 1.41727e-17)
(0.00706848 0.00361628 1.82769e-17)
(0.00704343 0.00332919 1.64816e-17)
(0.00701506 0.00304858 5.56469e-18)
(0.00698412 0.00277453 6.69694e-18)
(0.00695159 0.0025069 4.88247e-18)
(0.00691833 0.00224555 6.81262e-18)
(0.00688546 0.00199042 1.41618e-17)
(0.00685373 0.00174106 1.36921e-17)
(0.00682385 0.00149704 5.3285e-18)
(0.00679667 0.00125791 1.00289e-17)
(0.00677285 0.00102305 2.37319e-17)
(0.00675309 0.000791851 2.01128e-17)
(0.00673777 0.000563566 1.89015e-17)
(0.0067274 0.00033736 2.16122e-17)
(0.00672222 0.000112383 3.11938e-17)
(0.00672245 -0.000112195 5.51683e-17)
(0.00672794 -0.000337165 6.99437e-17)
(0.00673864 -0.000563341 7.76646e-17)
(0.00675431 -0.000791648 9.91691e-17)
(0.00677447 -0.00102287 1.27146e-16)
(0.00679865 -0.0012577 1.5696e-16)
(0.00682605 -0.00149682 2.05209e-16)
(0.00685618 -0.00174086 2.35371e-16)
(0.00688817 -0.0019903 2.37645e-16)
(0.0078621 0.0064032 1.17918e-18)
(0.00729662 0.00669381 6.49703e-18)
(0.00734837 0.00635921 6.20831e-18)
(0.00738992 0.00602788 7.38556e-18)
(0.00742252 0.00569939 1.08314e-17)
(0.00744673 0.00537418 1.3068e-17)
(0.00746302 0.00505267 1.4194e-17)
(0.0074719 0.00473538 1.30417e-17)
(0.00747409 0.00442265 1.45726e-17)
(0.00747022 0.00411489 1.55244e-17)
(0.00746096 0.00381239 1.84463e-17)
(0.0074473 0.00351545 1.60678e-17)
(0.00743001 0.00322442 7.91883e-18)
(0.00740973 0.00293932 8.82694e-18)
(0.00738737 0.00266003 6.54283e-18)
(0.00736365 0.00238634 6.69227e-18)
(0.00733966 0.00211822 1.28239e-17)
(0.00731612 0.00185537 1.49291e-17)
(0.00729355 0.00159732 8.81663e-18)
(0.00727283 0.00134366 1.26523e-17)
(0.00725447 0.00109383 2.48599e-17)
(0.00723919 0.000847293 2.1396e-17)
(0.00722727 0.000603382 1.99614e-17)
(0.00721915 0.000361322 2.38013e-17)
(0.00721509 0.000120338 3.34063e-17)
(0.00721531 -0.000120278 5.48136e-17)
(0.00721958 -0.000361221 6.74441e-17)
(0.00722794 -0.000603259 7.67452e-17)
(0.00724018 -0.000847195 9.63532e-17)
(0.0072558 -0.00109374 1.19957e-16)
(0.00727449 -0.00134352 1.43873e-16)
(0.00729549 -0.00159714 1.7997e-16)
(0.00731825 -0.0018552 2.0004e-16)
(0.00734206 -0.00211813 1.86512e-16)
(0.00736625 -0.00238636 2.14631e-17)
(0.00813325 0.00665589 -6.67609e-19)
(0.00757402 0.00694615 5.16747e-18)
(0.00763696 0.00660614 6.41739e-18)
(0.00768982 0.00626909 7.31738e-18)
(0.00773368 0.00593444 1.07361e-17)
(0.00776929 0.00560271 1.27926e-17)
(0.0077969 0.00527424 1.33564e-17)
(0.0078171 0.00494952 1.1768e-17)
(0.00783049 0.00462884 1.34291e-17)
(0.00783763 0.00431259 1.63182e-17)
(0.00783924 0.00400105 1.73162e-17)
(0.00783616 0.00369444 1.5135e-17)
(0.00782907 0.00339316 9.97665e-18)
(0.00781865 0.00309728 1.01836e-17)
(0.00780561 0.00280664 7.83812e-18)
(0.00779071 0.00252102 7.24725e-18)
(0.00777487 0.00224036 1.22918e-17)
(0.00775882 0.00196452 1.59443e-17)
(0.00774296 0.00169301 1.0948e-17)
(0.00772811 0.00142543 1.41741e-17)
(0.00771483 0.00116129 2.48847e-17)
(0.00770362 0.000900105 2.1725e-17)
(0.00769482 0.000641305 2.12823e-17)
(0.00768879 0.000384142 2.62919e-17)
(0.0076858 0.000127914 3.4446e-17)
(0.00768597 -0.000127957 5.22593e-17)
(0.0076891 -0.000384099 6.44237e-17)
(0.00769529 -0.000641256 7.52011e-17)
(0.00770442 -0.000900102 9.20251e-17)
(0.00771594 -0.00116129 1.11619e-16)
(0.00772955 -0.00142536 1.31045e-16)
(0.00774469 -0.00169288 1.57811e-16)
(0.00776071 -0.00196439 1.70255e-16)
(0.00777695 -0.0022403 1.48643e-16)
(0.00779299 -0.00252102 1.98699e-17)
(0.00839828 0.00690456 -2.3494e-18)
(0.00784568 0.0071932 4.02085e-18)
(0.00791908 0.00684742 6.4164e-18)
(0.00798253 0.00650438 6.85863e-18)
(0.00803698 0.00616336 1.05254e-17)
(0.00808321 0.00582491 1.20262e-17)
(0.00812135 0.0054893 1.23716e-17)
(0.00815213 0.00515706 1.09686e-17)
(0.00817594 0.00482841 1.33922e-17)
(0.00819324 0.00450364 1.63651e-17)
(0.00820503 0.00418313 1.59593e-17)
(0.00821179 0.00386701 1.47159e-17)
(0.00821408 0.00355563 1.14565e-17)
(0.00821274 0.0032492 1.07354e-17)
(0.00820835 0.00294751 9.16983e-18)
(0.00820159 0.0026503 8.45399e-18)
(0.00819329 0.00235752 1.21494e-17)
(0.00818407 0.00206912 1.5472e-17)
(0.00817442 0.00178465 1.15068e-17)
(0.00816494 0.00150367 1.48897e-17)
(0.00815633 0.0012258 2.40285e-17)
(0.00814883 0.000950593 2.22535e-17)
(0.00814294 0.00067754 2.33372e-17)
(0.00813889 0.000405937 2.89288e-17)
(0.00813688 0.000135159 3.54664e-17)
(0.00813698 -0.000135263 4.94923e-17)
(0.00813909 -0.000405932 6.14638e-17)
(0.00814329 -0.00067757 7.29048e-17)
(0.00814955 -0.000950699 8.70592e-17)
(0.00815738 -0.0012259 1.03239e-16)
(0.00816629 -0.00150369 1.19328e-16)
(0.00817599 -0.00178457 1.38615e-16)
(0.00818582 -0.00206901 1.4485e-16)
(0.00819511 -0.00235746 1.19503e-16)
(0.00820353 -0.00265025 1.93151e-17)
(0.00865837 0.00715008 -2.41187e-18)
(0.00811261 0.00743589 3.62801e-18)
(0.00819587 0.00708404 6.26754e-18)
(0.00826916 0.00673464 6.68148e-18)
(0.00833358 0.00638705 1.05351e-17)
(0.00838971 0.00604166 1.15924e-17)
(0.00843776 0.0056988 1.15337e-17)
(0.00847834 0.00535888 1.02595e-17)
(0.00851185 0.00502221 1.29243e-17)
(0.00853866 0.00468892 1.57008e-17)
(0.0085599 0.00435946 1.50508e-17)
(0.00857577 0.00403394 1.46134e-17)
(0.00858678 0.00371264 1.18497e-17)
(0.00859378 0.00339579 1.0803e-17)
(0.00859742 0.00308329 1.03716e-17)
(0.00859826 0.00277482 9.92902e-18)
(0.00859686 0.00247027 1.21135e-17)
(0.00859398 0.00216971 1.45386e-17)
(0.00859006 0.00187272 1.18031e-17)
(0.00858558 0.00157882 1.51663e-17)
(0.0085812 0.00128772 2.23277e-17)
(0.00857709 0.000999027 2.28171e-17)
(0.00857386 0.000712264 2.56911e-17)
(0.00857166 0.000426824 3.09364e-17)
(0.00857053 0.000142115 3.59349e-17)
(0.0085706 -0.000142258 4.69085e-17)
(0.0085718 -0.000426861 5.88458e-17)
(0.00857424 -0.000712389 7.06501e-17)
(0.00857778 -0.00099925 8.21809e-17)
(0.00858222 -0.00128792 9.5429e-17)
(0.00858683 -0.0015789 1.09295e-16)
(0.00859149 -0.00187267 1.2243e-16)
(0.00859557 -0.0021696 1.23961e-16)
(0.00859852 -0.0024702 9.78236e-17)
(0.00891461 0.00739325 -1.41986e-18)
(0.00837577 0.0076751 3.89164e-18)
(0.00846832 0.0073169 6.26126e-18)
(0.00855081 0.0069608 6.54234e-18)
(0.00862459 0.00660637 9.98586e-18)
(0.00868996 0.00625382 1.11629e-17)
(0.00874733 0.00590355 9.94925e-18)
(0.00879705 0.00555584 9.68497e-18)
(0.0088396 0.00521108 1.27854e-17)
(0.00887536 0.00486925 1.53318e-17)
(0.00890533 0.00453082 1.45333e-17)
(0.00892959 0.00419597 1.39348e-17)
(0.00894876 0.00386489 1.15479e-17)
(0.00896351 0.00353777 1.09739e-17)
(0.00897457 0.00321463 1.11632e-17)
(0.00898248 0.00289518 1.08125e-17)
(0.00898746 0.00257919 1.18062e-17)
(0.00899044 0.00226677 1.39353e-17)
(0.00899182 0.00195763 1.18929e-17)
(0.00899203 0.00165126 1.54471e-17)
(0.0089915 0.0013474 2.13972e-17)
(0.00899054 0.00104568 2.32853e-17)
(0.00898972 0.000745676 2.71119e-17)
(0.00898912 0.000446908 3.1925e-17)
(0.00898884 0.000148811 3.59771e-17)
(0.00898887 -0.000148983 4.48556e-17)
(0.00898926 -0.000447004 5.64321e-17)
(0.00899009 -0.00074589 6.86404e-17)
(0.00899115 -0.00104599 7.82147e-17)
(0.0089924 -0.00134766 8.84347e-17)
(0.00899307 -0.00165137 1.00059e-16)
(0.0089931 -0.00195761 1.08918e-16)
(0.0089918 -0.00226666 1.07401e-16)
(0.00898895 -0.00257907 8.15217e-17)
(0.00916796 0.0076348 -6.18509e-19)
(0.00863612 0.00791175 4.55226e-18)
(0.00873743 0.00754684 5.87478e-18)
(0.0088286 0.00718378 6.61369e-18)
(0.00891112 0.00682219 9.50701e-18)
(0.00898517 0.00646225 1.03364e-17)
(0.00905122 0.00610436 8.92071e-18)
(0.00910948 0.00574872 9.64791e-18)
(0.00916048 0.00539574 1.258e-17)
(0.00920467 0.00504537 1.45281e-17)
(0.00924272 0.00469797 1.40962e-17)
(0.0092748 0.0043538 1.33529e-17)
(0.00930155 0.00401303 1.1573e-17)
(0.00932357 0.0036758 1.10509e-17)
(0.00934148 0.00334214 1.11486e-17)
(0.00935586 0.0030119 1.09229e-17)
(0.00936685 0.00268477 1.18195e-17)
(0.00937518 0.00236078 1.40651e-17)
(0.00938147 0.00203979 1.21734e-17)
(0.00938601 0.00172132 1.55874e-17)
(0.00938902 0.0014051 2.09491e-17)
(0.00939105 0.00109077 2.35271e-17)
(0.0093924 0.000777974 2.74073e-17)
(0.00939324 0.00046631 3.16978e-17)
(0.00939376 0.000155275 3.55716e-17)
(0.00939376 -0.000155471 4.35387e-17)
(0.00939345 -0.000466463 5.44719e-17)
(0.00939275 -0.000778256 6.62323e-17)
(0.00939156 -0.00109115 7.4455e-17)
(0.00938975 -0.00140539 8.25351e-17)
(0.00938682 -0.00172145 9.1897e-17)
(0.00938253 -0.00203978 9.78376e-17)
(0.00937636 -0.00236065 9.43725e-17)
(0.00936804 -0.00268456 6.86808e-17)
(0.00941929 0.00787537 -7.72043e-19)
(0.00889461 0.00814668 5.37265e-18)
(0.00900415 0.00777471 5.27721e-18)
(0.0091036 0.00740443 5.9182e-18)
(0.00919428 0.00703537 9.12643e-18)
(0.00927647 0.00666778 9.26749e-18)
(0.00935057 0.00630203 8.39998e-18)
(0.00941676 0.00593826 9.68904e-18)
(0.00947568 0.00557691 1.18203e-17)
(0.00952778 0.00521795 1.33399e-17)
(0.00957339 0.00486158 1.35711e-17)
(0.00961282 0.00450813 1.28726e-17)
(0.0096466 0.00415769 1.17149e-17)
(0.00967538 0.00381045 1.12965e-17)
(0.00969963 0.0034664 1.15062e-17)
(0.00971994 0.0031255 1.09716e-17)
(0.00973655 0.00278747 1.16467e-17)
(0.00974988 0.00245216 1.38717e-17)
(0.00976067 0.00211957 1.22114e-17)
(0.00976916 0.00178933 1.52476e-17)
(0.00977542 0.00146106 2.03986e-17)
(0.00978027 0.0011345 2.33733e-17)
(0.00978359 0.000809301 2.71858e-17)
(0.00978584 0.000485116 3.11705e-17)
(0.00978706 0.000161537 3.5464e-17)
(0.00978706 -0.000161773 4.26453e-17)
(0.00978614 -0.000485334 5.25414e-17)
(0.00978405 -0.000809623 6.36079e-17)
(0.0097807 -0.00113491 7.06846e-17)
(0.009776 -0.00146137 7.72772e-17)
(0.00976975 -0.00178946 8.46197e-17)
(0.00976145 -0.00211957 8.85294e-17)
(0.00975086 -0.00245201 8.34875e-17)
(0.00973742 -0.00278714 5.84115e-17)
(0.00966949 0.00811563 -9.08434e-19)
(0.00915207 0.00838061 5.21095e-18)
(0.00926946 0.00800129 4.24949e-18)
(0.00937677 0.00762353 5.53349e-18)
(0.00947509 0.0072467 8.74789e-18)
(0.00956492 0.0068712 8.53911e-18)
(0.00964649 0.00649733 7.94555e-18)
(0.00972011 0.00612524 9.30003e-18)
(0.00978643 0.00575532 1.11082e-17)
(0.00984591 0.00538765 1.30506e-17)
(0.00989859 0.00502227 1.36286e-17)
(0.00994492 0.00465954 1.24945e-17)
(0.00998526 0.00429947 1.14682e-17)
(0.0100203 0.00394227 1.12136e-17)
(0.0100504 0.00358794 1.15408e-17)
(0.0100762 0.00323648 1.07149e-17)
(0.010098 0.00288768 1.14792e-17)
(0.0101161 0.00254132 1.37542e-17)
(0.010131 0.00219736 1.18859e-17)
(0.0101431 0.00185559 1.41604e-17)
(0.0101524 0.00151556 1.98037e-17)
(0.0101598 0.00117705 2.35786e-17)
(0.010165 0.000839785 2.7014e-17)
(0.0101685 0.000503404 3.03954e-17)
(0.0101704 0.000167627 3.51248e-17)
(0.0101704 -0.000167919 4.19545e-17)
(0.0101689 -0.000503708 5.10413e-17)
(0.0101656 -0.000840129 6.13567e-17)
(0.0101603 -0.00117746 6.73985e-17)
(0.0101529 -0.00151586 7.22462e-17)
(0.0101435 -0.00185571 7.73683e-17)
(0.0101315 -0.00219736 8.05536e-17)
(0.0101168 -0.0025411 7.45844e-17)
(0.00991942 0.00835627 4.37432e-19)
(0.00940926 0.00861423 5.24951e-18)
(0.00953424 0.00822734 3.8219e-18)
(0.00964899 0.0078418 5.70035e-18)
(0.00975456 0.00745695 7.89138e-18)
(0.00985153 0.00707325 7.74935e-18)
(0.00994008 0.006691 8.05102e-18)
(0.0100208 0.0063104 9.26816e-18)
(0.010094 0.00593171 1.03405e-17)
(0.0101603 0.00555514 1.27229e-17)
(0.0102195 0.00518066 1.33953e-17)
(0.0102723 0.00480861 1.19277e-17)
(0.0103188 0.00443893 1.1088e-17)
(0.0103597 0.0040718 1.10288e-17)
(0.0103953 0.00370727 1.14019e-17)
(0.0104262 0.00334533 1.03717e-17)
(0.0104528 0.00298585 1.15748e-17)
(0.0104753 0.00262861 1.36009e-17)
(0.0104939 0.00227348 1.12795e-17)
(0.0105093 0.00192037 1.32895e-17)
(0.0105216 0.00156883 1.93006e-17)
(0.0105312 0.00121861 2.36433e-17)
(0.0105382 0.000869561 2.68271e-17)
(0.0105429 0.000521267 2.96756e-17)
(0.0105453 0.000173562 3.48001e-17)
(0.0105454 -0.000173925 4.14866e-17)
(0.0105433 -0.000521662 4.94457e-17)
(0.0105389 -0.000869929 5.87949e-17)
(0.0105318 -0.001219 6.44277e-17)
(0.010522 -0.00156909 6.82093e-17)
(0.0105097 -0.00192048 7.12348e-17)
(0.0104943 -0.00227346 7.29533e-17)
(0.0104755 -0.00262829 6.64418e-17)
(0.0101698 0.00859789 2.94154e-18)
(0.00966699 0.00884825 4.80046e-18)
(0.00979923 0.00845347 3.2198e-18)
(0.00992104 0.00805987 5.61031e-18)
(0.0100336 0.00766681 6.42175e-18)
(0.0101373 0.00727464 7.14546e-18)
(0.0102324 0.00688376 8.65067e-18)
(0.0103198 0.00649442 9.0211e-18)
(0.0103994 0.00610676 9.80416e-18)