/*--------------------------------*- C++ -*----------------------------------*\
  =========                 |
  \\      /  F ield         | OpenFOAM: The Open Source CFD Toolbox
   \\    /   O peration     | Website:  https://openfoam.org
    \\  /    A nd           | Version:  7
     \\/     M anipulation  |
\*---------------------------------------------------------------------------*/
FoamFile
{
    version     2.0;
    format      ascii;
    class       volScalarField;
    location    "228000";
    object      omega;
}
// * * * * * * * * * * * * * * * * * * * * * * * * * * * * * * * * * * * * * //

dimensions      [0 0 -1 0 0 0 0];

internalField   nonuniform List<scalar> 
4850
(
0.0287835
0.0285232
0.0292916
0.0290247
0.0287691
0.0298128
0.0295396
0.0292777
0.0290265
0.0287863
0.030347
0.0300675
0.0297994
0.0295422
0.029296
0.029061
0.030894
0.0306083
0.0303342
0.030071
0.029819
0.0295783
0.0293491
0.0314536
0.0311619
0.0308818
0.0306128
0.030355
0.0301088
0.0298742
0.0296514
0.0294406
0.0320257
0.0317281
0.0314421
0.0311673
0.030904
0.0306522
0.0304123
0.0301844
0.0299686
0.0297651
0.0326102
0.0323067
0.032015
0.0317346
0.0314657
0.0312085
0.0309634
0.0307304
0.0305098
0.0303016
0.030106
0.0299232
0.0297531
0.0295959
0.033207
0.0328978
0.0326004
0.0323143
0.03204
0.0317775
0.0315273
0.0312893
0.0310639
0.0308511
0.0306512
0.0304642
0.0302903
0.0301294
0.0299818
0.0298475
0.0297265
0.0296188
0.0338162
0.0335012
0.0331981
0.0329066
0.0326268
0.0323592
0.0321038
0.031861
0.0316308
0.0314136
0.0312093
0.0310183
0.0308405
0.0306761
0.0305252
0.0303878
0.030264
0.0301538
0.0300574
0.0299746
0.0344376
0.0341169
0.0338082
0.0335112
0.0332261
0.0329533
0.0326929
0.0324452
0.0322105
0.0319888
0.0317803
0.0315852
0.0314037
0.0312358
0.0310816
0.0309412
0.0308147
0.0307021
0.0306035
0.0305189
0.0304484
0.0303919
0.0303496
0.0303213
0.0350713
0.0347449
0.0344307
0.0341282
0.0338379
0.0335599
0.0332946
0.0330421
0.0328027
0.0325766
0.032364
0.032165
0.0319797
0.0318084
0.031651
0.0315076
0.0313784
0.0312634
0.0311627
0.0310763
0.0310042
0.0309465
0.0309033
0.0308744
0.03086
0.03086
0.0308744
0.0309033
0.0309465
0.0357173
0.0353853
0.0350655
0.0347576
0.034462
0.0341789
0.0339087
0.0336515
0.0334075
0.0331771
0.0329604
0.0327574
0.0325685
0.0323937
0.0322331
0.0320869
0.0319551
0.0318377
0.0317349
0.0316467
0.0315731
0.0315142
0.03147
0.0314406
0.0314258
0.0314258
0.0314406
0.03147
0.0315142
0.0315731
0.0316467
0.0317349
0.0363756
0.0360379
0.0357126
0.0353994
0.0350985
0.0348104
0.0345352
0.0342733
0.0340249
0.0337902
0.0335693
0.0333625
0.03317
0.0329918
0.0328281
0.032679
0.0325445
0.0324248
0.0323199
0.03223
0.0321549
0.0320948
0.0320497
0.0320197
0.0320046
0.0320046
0.0320197
0.0320497
0.0320948
0.0321549
0.03223
0.0323199
0.0324248
0.0325445
0.0370462
0.036703
0.0363722
0.0360536
0.0357475
0.0354543
0.0351743
0.0349077
0.0346548
0.0344157
0.0341908
0.0339802
0.0337841
0.0336025
0.0334357
0.0332837
0.0331467
0.0330247
0.0329178
0.0328261
0.0327496
0.0326883
0.0326423
0.0326117
0.0325963
0.0325963
0.0326117
0.0326423
0.0326883
0.0327496
0.0328261
0.0329178
0.0330247
0.0331467
0.0377294
0.0373805
0.0370442
0.0367202
0.0364089
0.0361107
0.0358258
0.0355545
0.0352972
0.0350539
0.0348249
0.0346105
0.0344108
0.0342259
0.034056
0.0339012
0.0337616
0.0336373
0.0335284
0.033435
0.033357
0.0332946
0.0332477
0.0332164
0.0332008
0.0332008
0.0332164
0.0332477
0.0332945
0.033357
0.0334349
0.0335284
0.0336373
0.0337616
0.0384251
0.0380705
0.0377287
0.0373994
0.0370829
0.0367796
0.0364899
0.036214
0.0359521
0.0357046
0.0354716
0.0352534
0.0350501
0.0348619
0.034689
0.0345314
0.0343892
0.0342627
0.0341518
0.0340566
0.0339771
0.0339136
0.0338658
0.033834
0.0338181
0.0338181
0.033834
0.0338658
0.0339136
0.0339771
0.0340565
0.0341517
0.0342626
0.0343892
0.0391335
0.0387733
0.0384259
0.0380912
0.0377695
0.0374612
0.0371666
0.036886
0.0366197
0.0363679
0.0361309
0.0359089
0.0357021
0.0355106
0.0353346
0.0351742
0.0350295
0.0349007
0.0347878
0.0346909
0.0346101
0.0345453
0.0344967
0.0344643
0.0344481
0.0344481
0.0344643
0.0344967
0.0345453
0.0346101
0.0346909
0.0347878
0.0349007
0.0350295
0.0398547
0.0394888
0.0391358
0.0387957
0.0384688
0.0381554
0.037856
0.0375707
0.0372999
0.037044
0.036803
0.0365772
0.0363668
0.036172
0.0359929
0.0358298
0.0356826
0.0355515
0.0354366
0.035338
0.0352557
0.0351899
0.0351404
0.0351074
0.0350909
0.0350909
0.0351074
0.0351404
0.0351898
0.0352557
0.035338
0.0354366
0.0355515
0.0356825
0.040589
0.0402173
0.0398587
0.0395131
0.0391809
0.0388625
0.0385582
0.0382682
0.037993
0.0377328
0.0374877
0.0372582
0.0370443
0.0368462
0.0366641
0.0364981
0.0363484
0.0362151
0.0360982
0.0359979
0.0359142
0.0358472
0.0357969
0.0357633
0.0357465
0.0357465
0.0357633
0.0357969
0.0358472
0.0359142
0.0359979
0.0360982
0.036215
0.0363483
0.0413364
0.0409589
0.0405947
0.0402436
0.0399061
0.0395826
0.0392733
0.0389787
0.038699
0.0384345
0.0381854
0.037952
0.0377346
0.0375332
0.037348
0.0371793
0.0370271
0.0368915
0.0367726
0.0366706
0.0365855
0.0365174
0.0364662
0.0364321
0.036415
0.036415
0.0364321
0.0364662
0.0365174
0.0365855
0.0366706
0.0367726
0.0368915
0.037027
0.0420971
0.0417138
0.0413439
0.0409873
0.0406445
0.0403158
0.0400016
0.0397022
0.039418
0.0391492
0.0388961
0.0386589
0.0384379
0.0382332
0.038045
0.0378734
0.0377187
0.0375809
0.03746
0.0373563
0.0372698
0.0372005
0.0371485
0.0371138
0.0370964
0.0370964
0.0371138
0.0371485
0.0372005
0.0372698
0.0373563
0.03746
0.0375808
0.0377186
0.0428715
0.0424822
0.0421065
0.0417444
0.0413962
0.0410623
0.0407431
0.040439
0.0401502
0.0398771
0.0396199
0.0393789
0.0391543
0.0389463
0.038755
0.0385807
0.0384234
0.0382833
0.0381605
0.0380551
0.0379671
0.0378967
0.0378438
0.0378085
0.0377909
0.0377909
0.0378085
0.0378438
0.0378967
0.0379671
0.0380551
0.0381605
0.0382833
0.0384233
0.0385806
0.0436597
0.0432644
0.0428829
0.0425151
0.0421614
0.0418223
0.0414981
0.0411892
0.0408958
0.0406184
0.0403571
0.0401122
0.039884
0.0396726
0.0394783
0.0393011
0.0391413
0.0389989
0.0388741
0.038767
0.0386776
0.038606
0.0385523
0.0385164
0.0384985
0.0384985
0.0385164
0.0385523
0.038606
0.0386776
0.038767
0.0388741
0.0389989
0.0391412
0.0393011
0.0444619
0.0440606
0.0436732
0.0432997
0.0429405
0.0425961
0.0422668
0.041953
0.041655
0.0413732
0.0411077
0.040859
0.0406271
0.0404124
0.0402149
0.040035
0.0398726
0.0397279
0.0396011
0.0394923
0.0394014
0.0393287
0.0392741
0.0392377
0.0392194
0.0392194
0.0392377
0.0392741
0.0393287
0.0394014
0.0394922
0.0396011
0.0397279
0.0398725
0.0400349
0.0452785
0.044871
0.0444776
0.0440984
0.0437336
0.0433838
0.0430494
0.0427306
0.042428
0.0421417
0.0418721
0.0416194
0.0413839
0.0411658
0.0409652
0.0407823
0.0406174
0.0404704
0.0403416
0.040231
0.0401388
0.0400649
0.0400094
0.0399724
0.0399539
0.0399539
0.0399724
0.0400094
0.0400648
0.0401387
0.040231
0.0403416
0.0404704
0.0406173
0.0461098
0.045696
0.0452966
0.0449114
0.044541
0.0441858
0.0438461
0.0435224
0.043215
0.0429243
0.0426504
0.0423938
0.0421546
0.041933
0.0417293
0.0415435
0.041376
0.0412267
0.0410958
0.0409835
0.0408898
0.0408147
0.0407583
0.0407207
0.0407019
0.0407019
0.0407207
0.0407583
0.0408147
0.0408897
0.0409835
0.0410958
0.0412266
0.0413759
0.046956
0.0465358
0.0461302
0.0457391
0.045363
0.0450022
0.0446573
0.0443285
0.0440164
0.0437211
0.043443
0.0431823
0.0429393
0.0427143
0.0425073
0.0423187
0.0421485
0.0419969
0.041864
0.0417499
0.0416547
0.0415784
0.0415212
0.041483
0.0414639
0.0414639
0.041483
0.0415212
0.0415784
0.0416546
0.0417498
0.0418639
0.0419968
0.0421484
0.0478175
0.0473908
0.046979
0.0465818
0.0461998
0.0458335
0.0454832
0.0451493
0.0448323
0.0445324
0.0442499
0.0439852
0.0437384
0.0435099
0.0432997
0.0431081
0.0429352
0.0427813
0.0426463
0.0425304
0.0424337
0.0423562
0.0422981
0.0422593
0.0422399
0.0422399
0.0422593
0.0422981
0.0423562
0.0424337
0.0425304
0.0426462
0.0427812
0.0429352
0.0486946
0.0482614
0.0478431
0.0474398
0.0470519
0.0466798
0.0463241
0.0459851
0.0456631
0.0453585
0.0450717
0.0448028
0.0445522
0.0443201
0.0441066
0.043912
0.0437365
0.0435801
0.043443
0.0433253
0.0432271
0.0431484
0.0430894
0.04305
0.0430303
0.0430303
0.04305
0.0430894
0.0431484
0.0432271
0.0433253
0.043443
0.04358
0.0495877
0.0491478
0.048723
0.0483134
0.0479195
0.0475416
0.0471804
0.0468361
0.0465091
0.0461997
0.0459084
0.0456354
0.0453809
0.0451451
0.0449283
0.0447307
0.0445524
0.0443936
0.0442544
0.0441349
0.0440351
0.0439553
0.0438953
0.0438553
0.0438353
0.0438353
0.0438553
0.0438953
0.0439553
0.0440351
0.0441349
0.0442544
0.0443936
0.0504971
0.0500504
0.049619
0.0492031
0.048803
0.0484193
0.0480523
0.0477027
0.0473706
0.0470564
0.0467606
0.0464833
0.0462248
0.0459854
0.0457652
0.0455645
0.0453835
0.0452222
0.0450808
0.0449594
0.0448581
0.044777
0.0447162
0.0446755
0.0446552
0.0446552
0.0446755
0.0447161
0.044777
0.0448581
0.0449594
0.0450808
0.0514234
0.0509697
0.0505316
0.0501091
0.0497028
0.049313
0.0489404
0.0485852
0.048248
0.0479289
0.0476284
0.0473468
0.0470843
0.0468411
0.0466176
0.0464138
0.0462299
0.0460661
0.0459225
0.0457993
0.0456964
0.045614
0.0455522
0.045511
0.0454903
0.0454903
0.045511
0.0455522
0.045614
0.0456964
0.0457992
0.0459225
0.0523669
0.051906
0.0514611
0.0510319
0.0506192
0.0502234
0.0498449
0.0494842
0.0491416
0.0488176
0.0485124
0.0482263
0.0479597
0.0477128
0.0474857
0.0472787
0.047092
0.0469257
0.0467799
0.0466547
0.0465503
0.0464666
0.0464038
0.0463619
0.046341
0.046341
0.0463619
0.0464038
0.0464666
0.0465502
0.0466547
0.0467798
0.053328
0.0528599
0.0524079
0.051972
0.0515528
0.0511507
0.0507663
0.0503999
0.0500519
0.0497228
0.0494128
0.0491223
0.0488515
0.0486007
0.0483701
0.0481599
0.0479702
0.0478013
0.0476532
0.0475261
0.04742
0.0473351
0.0472713
0.0472288
0.0472075
0.0472075
0.0472288
0.0472713
0.0473351
0.04742
0.0475261
0.0476532
0.0543073
0.0538317
0.0533726
0.0529298
0.0525039
0.0520955
0.0517049
0.0513327
0.0509793
0.050645
0.0503301
0.050035
0.04976
0.0495052
0.049271
0.0490575
0.0488649
0.0486933
0.048543
0.0484139
0.0483061
0.0482199
0.0481551
0.0481119
0.0480903
0.0480903
0.0481119
0.0481551
0.0482199
0.0483061
0.0484138
0.0485429
0.0553052
0.054822
0.0543555
0.0539057
0.053473
0.0530581
0.0526613
0.0522832
0.0519242
0.0515846
0.0512647
0.050965
0.0506856
0.0504268
0.0501889
0.0499721
0.0497765
0.0496022
0.0494495
0.0493184
0.049209
0.0491214
0.0490556
0.0490117
0.0489898
0.0489898
0.0490117
0.0490556
0.0491213
0.049209
0.0493183
0.0494495
0.0563222
0.0558313
0.0553573
0.0549002
0.0544606
0.0540391
0.053636
0.0532518
0.0528871
0.052542
0.0522171
0.0519126
0.0516288
0.0513659
0.0511243
0.050904
0.0507053
0.0505283
0.0503732
0.05024
0.0501289
0.05004
0.0499732
0.0499286
0.0499063
0.0499063
0.0499286
0.0499732
0.0500399
0.0501289
0.05024
0.0503732
0.0573588
0.05686
0.0563784
0.0559139
0.0554673
0.0550389
0.0546293
0.054239
0.0538684
0.0535178
0.0531877
0.0528783
0.05259
0.052323
0.0520775
0.0518538
0.0516519
0.0514722
0.0513146
0.0511793
0.0510665
0.0509761
0.0509083
0.050863
0.0508404
0.0508404
0.050863
0.0509083
0.0509761
0.0510664
0.0511793
0.0513146
0.0584157
0.0579088
0.0574193
0.0569473
0.0564934
0.0560581
0.0556419
0.0552453
0.0548687
0.0545125
0.0541771
0.0538627
0.0535698
0.0532985
0.0530491
0.0528218
0.0526168
0.0524341
0.0522741
0.0521367
0.052022
0.0519302
0.0518613
0.0518154
0.0517924
0.0517924
0.0518154
0.0518613
0.0519302
0.052022
0.0521367
0.0522741
0.0594934
0.0589782
0.0584807
0.058001
0.0575396
0.0570972
0.0566743
0.0562712
0.0558885
0.0555265
0.0551857
0.0548663
0.0545686
0.054293
0.0540396
0.0538086
0.0536003
0.0534148
0.0532522
0.0531126
0.0529961
0.0529029
0.0528329
0.0527862
0.0527629
0.0527629
0.0527862
0.0528329
0.0529029
0.0529961
0.0531126
0.0532522
0.0605926
0.0600688
0.0595631
0.0590754
0.0586065
0.0581568
0.0577269
0.0573173
0.0569283
0.0565605
0.0562141
0.0558895
0.055587
0.0553069
0.0550495
0.0548148
0.0546031
0.0544146
0.0542494
0.0541076
0.0539893
0.0538945
0.0538234
0.053776
0.0537523
0.0537523
0.053776
0.0538234
0.0538945
0.0539893
0.0541076
0.0542494
0.0617137
0.0611813
0.0606671
0.0601714
0.0596947
0.0592376
0.0588006
0.0583842
0.0579888
0.0576149
0.0572628
0.056933
0.0566256
0.0563409
0.0560793
0.0558408
0.0556257
0.0554342
0.0552663
0.0551222
0.055002
0.0549057
0.0548335
0.0547853
0.0547612
0.0547612
0.0547853
0.0548335
0.0549057
0.055002
0.0551222
0.0552663
0.0628576
0.0623162
0.0617934
0.0612894
0.0608048
0.06034
0.0598958
0.0594724
0.0590705
0.0586904
0.0583326
0.0579973
0.0576848
0.0573955
0.0571296
0.0568872
0.0566687
0.056474
0.0563034
0.056157
0.0560348
0.055937
0.0558636
0.0558147
0.0557902
0.0557902
0.0558147
0.0558636
0.055937
0.0560348
0.056157
0.0563034
0.0640249
0.0634743
0.0629427
0.0624302
0.0619374
0.0614649
0.0610131
0.0605827
0.0601741
0.0597877
0.0594239
0.059083
0.0587654
0.0584713
0.058201
0.0579547
0.0577326
0.0575347
0.0573614
0.0572126
0.0570884
0.056989
0.0569144
0.0568646
0.0568398
0.0568398
0.0568646
0.0569144
0.056989
0.0570884
0.0572125
0.0573613
0.0652163
0.0646563
0.0641157
0.0635944
0.0630933
0.0626127
0.0621534
0.0617157
0.0613002
0.0609073
0.0605374
0.0601909
0.059868
0.059569
0.0592943
0.0590439
0.058818
0.058617
0.0584407
0.0582895
0.0581633
0.0580623
0.0579865
0.0579359
0.0579106
0.0579106
0.0579359
0.0579865
0.0580623
0.0581633
0.0582895
0.0584407
0.0664326
0.065863
0.065313
0.0647829
0.0642731
0.0637844
0.0633172
0.0628721
0.0624495
0.06205
0.0616739
0.0613215
0.0609932
0.0606892
0.0604099
0.0601553
0.0599258
0.0597213
0.0595422
0.0593884
0.0592602
0.0591575
0.0590804
0.059029
0.0590033
0.0590033
0.059029
0.0590804
0.0591575
0.0592602
0.0593884
0.0676746
0.067095
0.0665355
0.0659962
0.0654777
0.0649805
0.0645053
0.0640526
0.0636228
0.0632165
0.062834
0.0624756
0.0621418
0.0618327
0.0615486
0.0612898
0.0610564
0.0608485
0.0606664
0.0605101
0.0603797
0.0602753
0.060197
0.0601447
0.0601186
0.0601186
0.0601447
0.060197
0.0602753
0.0603797
0.0605101
0.068943
0.0683533
0.067784
0.0672353
0.0667078
0.066202
0.0657185
0.065258
0.0648208
0.0644075
0.0640184
0.0636539
0.0633144
0.063
0.0627112
0.062448
0.0622106
0.0619993
0.0618141
0.0616552
0.0615226
0.0614164
0.0613368
0.0612836
0.0612571
0.0612571
0.0612836
0.0613368
0.0614164
0.0615226
0.0702387
0.0696386
0.0690593
0.0685009
0.0679641
0.0674495
0.0669576
0.066489
0.0660443
0.0656238
0.065228
0.0648572
0.0645118
0.0641921
0.0638983
0.0636306
0.0633892
0.0631743
0.062986
0.0628243
0.0626895
0.0625816
0.0625006
0.0624465
0.0624195
0.0624195
0.0624466
0.0625006
0.0625816
0.0626895
0.0715627
0.0709519
0.0703623
0.069794
0.0692477
0.0687239
0.0682234
0.0677466
0.067294
0.0668662
0.0664635
0.0660863
0.0657349
0.0654097
0.0651108
0.0648385
0.064593
0.0643743
0.0641828
0.0640184
0.0638813
0.0637715
0.0636892
0.0636342
0.0636067
0.0636067
0.0636342
0.0636891
0.0637715
0.0638813
0.0729158
0.072294
0.0716938
0.0711153
0.0705593
0.0700262
0.0695167
0.0690315
0.0685709
0.0681355
0.0677257
0.0673419
0.0669844
0.0666535
0.0663494
0.0660724
0.0658226
0.0656003
0.0654054
0.0652382
0.0650987
0.0649871
0.0649033
0.0648474
0.0648194
0.0648194
0.0648474
0.0649033
0.0649871
0.0650987
0.074299
0.0736659
0.0730548
0.0724659
0.0718998
0.0713572
0.0708386
0.0703446
0.0698759
0.0694327
0.0690157
0.0686251
0.0682613
0.0679245
0.0676151
0.0673333
0.0670791
0.0668529
0.0666546
0.0664845
0.0663426
0.0662291
0.0661438
0.066087
0.0660585
0.0660585
0.066087
0.0661438
0.066229
0.0663426
0.0757132
0.0750686
0.0744463
0.0738467
0.0732703
0.0727178
0.0721898
0.071687
0.0712098
0.0707587
0.0703342
0.0699366
0.0695663
0.0692236
0.0689087
0.0686219
0.0683633
0.0681331
0.0679314
0.0677583
0.0676139
0.0674983
0.0674116
0.0673537
0.0673248
0.0673248
0.0673537
0.0674116
0.0674983
0.0676139
0.0771597
0.0765031
0.0758694
0.0752587
0.0746718
0.0741091
0.0735715
0.0730595
0.0725736
0.0721144
0.0716822
0.0712775
0.0709006
0.0705517
0.0702312
0.0699393
0.0696761
0.0694418
0.0692365
0.0690603
0.0689134
0.0687958
0.0687075
0.0686487
0.0686192
0.0686192
0.0686487
0.0687075
0.0687958
0.0689134
0.0786394
0.0779705
0.077325
0.076703
0.0761052
0.0755322
0.0749847
0.0744632
0.0739685
0.0735008
0.0730608
0.0726487
0.072265
0.0719098
0.0715835
0.0712863
0.0710184
0.0707799
0.070571
0.0703917
0.0702421
0.0701224
0.0700326
0.0699727
0.0699427
0.0699427
0.0699727
0.0700326
0.0701224
0.0702421
0.0801535
0.079472
0.0788144
0.0781808
0.0775717
0.076988
0.0764303
0.0758992
0.0753953
0.074919
0.0744709
0.0740513
0.0736605
0.0732989
0.0729667
0.0726641
0.0723913
0.0721485
0.0719358
0.0717533
0.0716011
0.0714792
0.0713878
0.0713268
0.0712963
0.0712963
0.0713268
0.0713878
0.0714792
0.071601
0.0817032
0.0810088
0.0803387
0.0796931
0.0790725
0.0784778
0.0779097
0.0773686
0.0768553
0.0763701
0.0759137
0.0754863
0.0750883
0.0747201
0.0743818
0.0740736
0.0737959
0.0735486
0.073332
0.0731462
0.0729912
0.0728672
0.0727741
0.072712
0.0726809
0.0726809
0.072712
0.072774
0.0728671
0.0729912
0.0832897
0.082582
0.0818991
0.0812411
0.0806088
0.0800028
0.0794238
0.0788725
0.0783495
0.0778553
0.0773903
0.0769549
0.0765495
0.0761744
0.0758298
0.075516
0.0752331
0.0749814
0.0747608
0.0745715
0.0744137
0.0742874
0.0741926
0.0741293
0.0740977
0.0740977
0.0741293
0.0741926
0.0742874
0.0744137
0.0849144
0.084193
0.0834969
0.0828262
0.0821817
0.0815641
0.080974
0.0804122
0.0798793
0.0793757
0.0789019
0.0784583
0.0780453
0.0776631
0.0773121
0.0769925
0.0767043
0.0764478
0.0762232
0.0760304
0.0758697
0.075741
0.0756444
0.07558
0.0755478
0.0755478
0.07558
0.0756444
0.075741
0.0758697
0.0865786
0.0858431
0.0851334
0.0844497
0.0837926
0.083163
0.0825616
0.081989
0.0814458
0.0809325
0.0804497
0.0799977
0.0795768
0.0791875
0.0788298
0.0785041
0.0782105
0.0779492
0.0777204
0.077524
0.0773603
0.0772292
0.0771308
0.0770652
0.0770324
0.0770324
0.0770652
0.0771308
0.0772292
0.0773603
0.0882838
0.0875337
0.0868101
0.0861129
0.085443
0.084801
0.0841879
0.0836041
0.0830504
0.0825272
0.0820351
0.0815744
0.0811455
0.0807486
0.0803842
0.0800523
0.0797531
0.0794869
0.0792537
0.0790536
0.0788868
0.0787532
0.078653
0.0785862
0.0785527
0.0785528
0.0785862
0.078653
0.0787532
0.0788868
0.0900314
0.0892664
0.0885283
0.0878173
0.0871341
0.0864795
0.0858543
0.085259
0.0846945
0.0841611
0.0836594
0.0831897
0.0827525
0.082348
0.0819765
0.0816382
0.0813334
0.081062
0.0808244
0.0806205
0.0804505
0.0803144
0.0802122
0.0801441
0.0801101
0.0801101
0.0801441
0.0802122
0.0803144
0.0804504
0.091823
0.0910426
0.0902898
0.0895645
0.0888676
0.0881999
0.0875622
0.0869552
0.0863795
0.0858356
0.085324
0.0848451
0.0843994
0.083987
0.0836083
0.0832634
0.0829526
0.0826761
0.0824338
0.082226
0.0820527
0.081914
0.0818099
0.0817405
0.0817058
0.0817058
0.0817405
0.0818099
0.081914
0.0820527
0.0936603
0.0928641
0.0920959
0.0913559
0.090645
0.0899638
0.0893133
0.0886942
0.0881069
0.0875522
0.0870305
0.0865421
0.0860876
0.0856671
0.0852809
0.0849293
0.0846124
0.0843304
0.0840835
0.0838716
0.0836949
0.0835535
0.0834474
0.0833767
0.0833413
0.0833413
0.0833766
0.0834474
0.0835535
0.0836949
0.0955449
0.0947324
0.0939485
0.0931934
0.0924679
0.0917729
0.0911092
0.0904775
0.0898784
0.0893125
0.0887803
0.0882822
0.0878186
0.0873897
0.0869959
0.0866373
0.0863142
0.0860267
0.0857748
0.0855588
0.0853786
0.0852344
0.0851263
0.0850541
0.085018
0.085018
0.0850541
0.0851263
0.0852344
0.0853786
0.0974788
0.0966495
0.0958493
0.0950785
0.0943381
0.0936288
0.0929515
0.0923069
0.0916956
0.0911182
0.0905753
0.0900671
0.0895941
0.0891566
0.0887549
0.0883892
0.0880596
0.0877663
0.0875094
0.0872891
0.0871054
0.0869583
0.086848
0.0867744
0.0867376
0.0867376
0.0867744
0.086848
0.0869583
0.0871054
0.0994637
0.0986171
0.0978002
0.0970133
0.0962574
0.0955334
0.094842
0.0941841
0.0935603
0.0929711
0.092417
0.0918984
0.0914158
0.0909695
0.0905596
0.0901865
0.0898502
0.089551
0.089289
0.0890642
0.0888768
0.0887268
0.0886143
0.0885392
0.0885017
0.0885017
0.0885392
0.0886143
0.0887268
0.0888768
0.101502
0.100637
0.099803
0.0989995
0.0982277
0.0974885
0.0967827
0.0961111
0.0954743
0.0948728
0.0943073
0.0937781
0.0932855
0.09283
0.0924117
0.092031
0.0916879
0.0913826
0.0911152
0.0908859
0.0906947
0.0905416
0.0904268
0.0903502
0.090312
0.090312
0.0903502
0.0904268
0.0905416
0.0906947
0.103595
0.102712
0.10186
0.101039
0.100251
0.0994961
0.0987754
0.0980896
0.0974395
0.0968254
0.0962481
0.0957078
0.0952051
0.0947401
0.0943132
0.0939246
0.0935744
0.0932628
0.09299
0.0927559
0.0925608
0.0924046
0.0922874
0.0922093
0.0921702
0.0921702
0.0922093
0.0922874
0.0924046
0.0925608
0.103973
0.103135
0.102329
0.101558
0.100822
0.100122
0.0994579
0.0988309
0.0982414
0.0976897
0.0971764
0.0967017
0.094477
0.0943176
0.094198
0.0941182
0.0940784
0.0940783
0.0941182
0.094198
0.0943176
0.094477
0.023831
0.0237971
0.0237717
0.0237547
0.0237463
0.0237463
0.0237547
0.0237717
0.0237971
0.023831
0.0242046
0.0241598
0.024124
0.0240972
0.0240793
0.0240704
0.0240704
0.0240793
0.0240972
0.024124
0.0241598
0.0242046
0.0242586
0.0243217
0.0243942
0.024476
0.0245672
0.0246681
0.0247786
0.0248989
0.025029
0.0246763
0.0246101
0.0245535
0.0245064
0.0244689
0.0244408
0.024422
0.0244127
0.0244127
0.024422
0.0244408
0.0244689
0.0245065
0.0245535
0.0246101
0.0246763
0.0247521
0.0248378
0.0249332
0.0250386
0.025154
0.0252795
0.0254152
0.0255611
0.0257172
0.0258838
0.0260607
0.0253161
0.0252165
0.0251272
0.025048
0.0249789
0.0249198
0.0248706
0.0248313
0.0248019
0.0247823
0.0247725
0.0247725
0.0247823
0.0248019
0.0248313
0.0248706
0.0249198
0.0249789
0.025048
0.0251272
0.0252166
0.0253161
0.0254259
0.025546
0.0256766
0.0258176
0.0259691
0.0261311
0.0263037
0.0264869
0.0266807
0.0268851
0.0271
0.0259541
0.0258294
0.0257153
0.0256119
0.0255189
0.0254365
0.0253645
0.025303
0.0252517
0.0252108
0.0251801
0.0251597
0.0251495
0.0251495
0.0251597
0.0251801
0.0252108
0.0252517
0.025303
0.0253646
0.0254365
0.0255189
0.0256119
0.0257153
0.0258294
0.0259541
0.0260896
0.0262357
0.0263927
0.0265604
0.0267389
0.0269283
0.0271284
0.0273392
0.0275606
0.0277927
0.0280351
0.0282888
0.0266693
0.0265181
0.0263779
0.0262487
0.0261305
0.0260232
0.0259268
0.0258413
0.0257665
0.0257026
0.0256493
0.0256068
0.0255749
0.0255536
0.025543
0.025543
0.0255537
0.0255749
0.0256068
0.0256493
0.0257026
0.0257666
0.0258413
0.0259268
0.0260232
0.0261305
0.0262487
0.0263779
0.0265181
0.0266693
0.0268315
0.0270048
0.027189
0.0273843
0.0275905
0.0278076
0.0280355
0.0282741
0.0285232
0.0287835
0.0272852
0.0271178
0.0269617
0.026817
0.0266835
0.0265612
0.0264502
0.0263505
0.0262619
0.0261845
0.0261182
0.026063
0.0260189
0.0259858
0.0259638
0.0259528
0.0259528
0.0259638
0.0259858
0.0260189
0.026063
0.0261182
0.0261845
0.0262619
0.0263505
0.0264502
0.0265612
0.0266835
0.026817
0.0269618
0.0271178
0.0272852
0.0274638
0.0276537
0.0278547
0.0280669
0.0282901
0.0285242
0.0287692
0.0290247
0.0292916
0.0279372
0.0277534
0.027581
0.0274202
0.0272709
0.0271332
0.0270071
0.0268925
0.0267894
0.0266979
0.0266179
0.0265494
0.0264923
0.0264466
0.0264124
0.0263896
0.0263782
0.0263782
0.0263896
0.0264124
0.0264467
0.0264923
0.0265494
0.0266179
0.0266979
0.0267894
0.0268925
0.0270071
0.0271332
0.0272709
0.0274202
0.027581
0.0277534
0.0279372
0.0281325
0.0283392
0.0285572
0.0287863
0.0290265
0.0292777
0.0295396
0.0298128
0.0286252
0.0284246
0.0282357
0.0280585
0.0278931
0.0277394
0.0275976
0.0274677
0.0273496
0.0272434
0.027149
0.0270664
0.0269957
0.0269368
0.0268897
0.0268544
0.0268308
0.0268191
0.0268191
0.0268308
0.0268544
0.0268897
0.0269368
0.0269957
0.0270664
0.027149
0.0272434
0.0273496
0.0274677
0.0275976
0.0277394
0.0278931
0.0280585
0.0282357
0.0284247
0.0286253
0.0288374
0.0290611
0.029296
0.0295422
0.0297994
0.0300675
0.030347
0.0293491
0.0291316
0.0289259
0.028732
0.02855
0.0283801
0.0282222
0.0280764
0.0279427
0.0278213
0.0277119
0.0276147
0.0275297
0.0274569
0.0273962
0.0273477
0.0273113
0.027287
0.0272749
0.0272749
0.027287
0.0273113
0.0273477
0.0273962
0.0274569
0.0275297
0.0276148
0.0277119
0.0278213
0.0279428
0.0280764
0.0282222
0.0283801
0.02855
0.028732
0.0289259
0.0291316
0.0293492
0.0295783
0.029819
0.030071
0.0303342
0.0306083
0.030894
0.0298742
0.0296514
0.0294406
0.0292418
0.0290553
0.0288809
0.0287189
0.0285692
0.028432
0.0283071
0.0281948
0.0280949
0.0280075
0.0279326
0.0278701
0.0278202
0.0277828
0.0277578
0.0277453
0.0277453
0.0277578
0.0277828
0.0278202
0.0278702
0.0279326
0.0280075
0.0280949
0.0281948
0.0283071
0.028432
0.0285692
0.0287189
0.0288809
0.0290553
0.0292419
0.0294406
0.0296514
0.0298742
0.0301088
0.0303551
0.0306128
0.0308818
0.0311619
0.0314536
0.0306522
0.0304123
0.0301844
0.0299686
0.0297651
0.029574
0.0293954
0.0292293
0.0290758
0.028935
0.028807
0.0286917
0.0285891
0.0284994
0.0284224
0.0283583
0.028307
0.0282685
0.0282429
0.0282301
0.0282301
0.0282429
0.0282686
0.028307
0.0283583
0.0284225
0.0284994
0.0285891
0.0286917
0.028807
0.028935
0.0290758
0.0292293
0.0293954
0.029574
0.0297651
0.0299687
0.0301844
0.0304124
0.0306523
0.030904
0.0311674
0.0314421
0.0317281
0.0320257
0.0314656
0.0312085
0.0309634
0.0307304
0.0305098
0.0303016
0.0301061
0.0299232
0.0297532
0.029596
0.0294517
0.0293205
0.0292023
0.0290972
0.0290052
0.0289262
0.0288605
0.0288078
0.0287684
0.028742
0.0287289
0.0287289
0.028742
0.0287684
0.0288079
0.0288605
0.0289263
0.0290052
0.0290972
0.0292023
0.0293205
0.0294518
0.029596
0.0297532
0.0299232
0.0301061
0.0303016
0.0305098
0.0307305
0.0309634
0.0312086
0.0314657
0.0317346
0.032015
0.0323067
0.0326102
0.03204
0.0317775
0.0315273
0.0312893
0.0310639
0.0308512
0.0306512
0.0304642
0.0302903
0.0301295
0.0299819
0.0298475
0.0297265
0.0296188
0.0295246
0.0294437
0.0293763
0.0293224
0.029282
0.029255
0.0292415
0.0292415
0.029255
0.029282
0.0293224
0.0293764
0.0294438
0.0295246
0.0296189
0.0297265
0.0298475
0.0299819
0.0301295
0.0302903
0.0304643
0.0306512
0.0308512
0.0310639
0.0312894
0.0315273
0.0317776
0.03204
0.0323143
0.0326004
0.0328978
0.0332071
0.0329065
0.0326268
0.0323591
0.0321038
0.031861
0.0316308
0.0314136
0.0312094
0.0310183
0.0308405
0.0306761
0.0305252
0.0303878
0.030264
0.0301539
0.0300574
0.0299747
0.0299057
0.0298505
0.0298091
0.0297815
0.0297677
0.0297677
0.0297815
0.0298091
0.0298505
0.0299057
0.0299747
0.0300574
0.0301539
0.030264
0.0303878
0.0305252
0.0306762
0.0308406
0.0310183
0.0312094
0.0314136
0.0316309
0.031861
0.0321038
0.0323592
0.0326269
0.0329066
0.0331981
0.0335012
0.0338162
0.0335112
0.0332261
0.0329533
0.0326929
0.0324452
0.0322105
0.0319888
0.0317803
0.0315853
0.0314037
0.0312358
0.0310816
0.0309412
0.0308147
0.0307021
0.0306035
0.030519
0.0304484
0.030392
0.0303496
0.0303214
0.0303073
0.0303073
0.0303214
0.0303496
0.030392
0.0304484
0.030519
0.0306036
0.0307022
0.0308147
0.0309413
0.0310816
0.0312358
0.0314037
0.0315853
0.0317803
0.0319888
0.0322105
0.0324453
0.0326929
0.0329533
0.0332262
0.0335112
0.0338083
0.0341169
0.0344376
0.0341282
0.0338379
0.0335599
0.0332945
0.0330421
0.0328027
0.0325766
0.032364
0.032165
0.0319798
0.0318084
0.031651
0.0315076
0.0313785
0.0312635
0.0311627
0.0310763
0.0310043
0.0309466
0.0309033
0.0308745
0.03086
0.03086
0.0308745
0.0309033
0.0309466
0.0310043
0.0310764
0.0311628
0.0312635
0.0313785
0.0315077
0.031651
0.0318084
0.0319798
0.032165
0.032364
0.0325767
0.0328028
0.0330421
0.0332946
0.0335599
0.0338379
0.0341283
0.0344307
0.0347449
0.0350713
0.0347576
0.034462
0.0341789
0.0339087
0.0336515
0.0334075
0.0331771
0.0329604
0.0327575
0.0325685
0.0323937
0.0322332
0.0320869
0.0319551
0.0318377
0.0317349
0.0316467
0.0315732
0.0315143
0.0314701
0.0314406
0.0314259
0.0314259
0.0314406
0.0314701
0.0315143
0.0315732
0.0316467
0.0317349
0.0318378
0.0319551
0.0320869
0.0322332
0.0323938
0.0325686
0.0327575
0.0329604
0.0331771
0.0334076
0.0336515
0.0339087
0.034179
0.034462
0.0347577
0.0350655
0.0353853
0.0357173
0.0353994
0.0350985
0.0348104
0.0345352
0.0342733
0.0340249
0.0337902
0.0335693
0.0333626
0.03317
0.0329918
0.0328281
0.032679
0.0325445
0.0324249
0.03232
0.03223
0.032155
0.0320949
0.0320498
0.0320197
0.0320047
0.0320047
0.0320197
0.0320498
0.0320949
0.032155
0.03223
0.03232
0.0324249
0.0325446
0.032679
0.0328281
0.0329918
0.03317
0.0333626
0.0335694
0.0337902
0.0340249
0.0342734
0.0345353
0.0348104
0.0350986
0.0353994
0.0357126
0.0360379
0.0363756
0.0360535
0.0357475
0.0354543
0.0351743
0.0349077
0.0346548
0.0344157
0.0341909
0.0339802
0.0337841
0.0336026
0.0334357
0.0332838
0.0331467
0.0330247
0.0329178
0.0328261
0.0327496
0.0326883
0.0326424
0.0326117
0.0325964
0.0325964
0.0326117
0.0326424
0.0326884
0.0327496
0.0328261
0.0329179
0.0330248
0.0331468
0.0332838
0.0334358
0.0336026
0.0337841
0.0339803
0.0341909
0.0344158
0.0346548
0.0349077
0.0351743
0.0354543
0.0357475
0.0360536
0.0363722
0.036703
0.0370462
0.0367202
0.0364089
0.0361107
0.0358258
0.0355545
0.0352971
0.0350539
0.0348249
0.0346105
0.0344108
0.0342259
0.034056
0.0339012
0.0337617
0.0336374
0.0335285
0.033435
0.033357
0.0332946
0.0332477
0.0332165
0.0332009
0.0332009
0.0332165
0.0332478
0.0332946
0.033357
0.033435
0.0335285
0.0336374
0.0337617
0.0339013
0.0340561
0.034226
0.0344108
0.0346106
0.034825
0.0350539
0.0352972
0.0355546
0.0358258
0.0361107
0.036409
0.0367202
0.0370442
0.0373805
0.0377294
0.0373993
0.0370829
0.0367796
0.0364899
0.0362139
0.0359521
0.0357046
0.0354716
0.0352534
0.0350501
0.0348619
0.034689
0.0345314
0.0343893
0.0342627
0.0341518
0.0340566
0.0339772
0.0339136
0.0338659
0.0338341
0.0338181
0.0338181
0.0338341
0.0338659
0.0339136
0.0339772
0.0340566
0.0341518
0.0342627
0.0343893
0.0345314
0.034689
0.034862
0.0350502
0.0352535
0.0354717
0.0357046
0.0359521
0.036214
0.0364899
0.0367797
0.0370829
0.0373994
0.0377287
0.0380705
0.0384251
0.0380911
0.0377694
0.0374611
0.0371665
0.036886
0.0366197
0.0363679
0.0361309
0.035909
0.0357021
0.0355106
0.0353346
0.0351742
0.0350296
0.0349007
0.0347878
0.0346909
0.0346101
0.0345454
0.0344968
0.0344644
0.0344482
0.0344482
0.0344644
0.0344968
0.0345454
0.0346101
0.034691
0.0347879
0.0349008
0.0350296
0.0351742
0.0353346
0.0355107
0.0357021
0.035909
0.036131
0.036368
0.0366197
0.036886
0.0371666
0.0374612
0.0377695
0.0380912
0.0384259
0.0387733
0.0391335
0.0387957
0.0384687
0.0381554
0.0378559
0.0375707
0.0372999
0.0370439
0.036803
0.0365772
0.0363668
0.036172
0.035993