/*--------------------------------*- C++ -*----------------------------------*\
  =========                 |
  \\      /  F ield         | OpenFOAM: The Open Source CFD Toolbox
   \\    /   O peration     | Website:  https://openfoam.org
    \\  /    A nd           | Version:  7
     \\/     M anipulation  |
\*---------------------------------------------------------------------------*/
FoamFile
{
    version     2.0;
    format      ascii;
    class       volScalarField;
    location    "16000";
    object      nut;
}
// * * * * * * * * * * * * * * * * * * * * * * * * * * * * * * * * * * * * * //

dimensions      [0 2 -1 0 0 0 0];

internalField   nonuniform List<scalar> 
4814
(
5.06406e-06
5.09003e-06
5.11359e-06
5.13466e-06
4.31565e-06
4.36586e-06
4.41403e-06
4.46093e-06
4.50652e-06
4.55074e-06
4.59345e-06
4.63459e-06
4.67406e-06
4.7117e-06
4.74748e-06
4.7813e-06
4.81312e-06
4.84282e-06
4.87035e-06
4.89563e-06
4.91856e-06
4.93906e-06
4.95708e-06
4.97263e-06
4.98564e-06
4.99612e-06
5.00401e-06
5.00925e-06
5.01188e-06
5.01186e-06
5.0092e-06
5.00391e-06
4.99606e-06
4.98557e-06
4.97255e-06
4.95703e-06
4.93902e-06
4.91859e-06
4.14007e-06
4.1888e-06
4.23557e-06
4.28112e-06
4.32541e-06
4.36837e-06
4.40987e-06
4.44985e-06
4.48822e-06
4.52481e-06
4.55959e-06
4.59248e-06
4.62342e-06
4.6523e-06
4.67906e-06
4.70365e-06
4.72594e-06
4.74589e-06
4.76343e-06
4.77855e-06
4.79121e-06
4.8014e-06
4.80908e-06
4.81417e-06
4.81674e-06
4.81672e-06
4.81413e-06
4.80899e-06
4.80135e-06
4.79114e-06
4.77847e-06
4.76337e-06
4.74585e-06
4.72598e-06
4.70379e-06
4.67931e-06
4.65258e-06
4.62365e-06
4.59264e-06
4.55967e-06
4.52482e-06
3.96698e-06
4.01422e-06
4.05961e-06
4.1038e-06
4.14678e-06
4.18848e-06
4.22878e-06
4.2676e-06
4.30486e-06
4.3404e-06
4.37418e-06
4.40613e-06
4.43619e-06
4.46424e-06
4.49025e-06
4.51414e-06
4.5358e-06
4.55519e-06
4.57224e-06
4.58694e-06
4.59924e-06
4.60915e-06
4.61661e-06
4.62156e-06
4.62406e-06
4.62404e-06
4.62153e-06
4.61652e-06
4.6091e-06
4.59917e-06
4.58685e-06
4.57218e-06
4.55515e-06
4.53585e-06
4.51429e-06
4.4905e-06
4.46453e-06
4.43641e-06
4.40629e-06
4.37426e-06
4.34041e-06
4.30481e-06
4.26758e-06
4.22888e-06
3.79643e-06
3.8422e-06
3.88618e-06
3.92902e-06
3.97069e-06
4.01113e-06
4.05022e-06
4.08789e-06
4.12404e-06
4.15852e-06
4.1913e-06
4.22231e-06
4.2515e-06
4.27872e-06
4.30396e-06
4.32716e-06
4.34819e-06
4.36701e-06
4.38357e-06
4.39785e-06
4.40979e-06
4.41942e-06
4.42667e-06
4.43147e-06
4.43389e-06
4.43388e-06
4.43144e-06
4.42658e-06
4.41937e-06
4.40972e-06
4.39775e-06
4.3835e-06
4.36698e-06
4.34823e-06
4.3273e-06
4.30421e-06
4.279e-06
4.25171e-06
4.22247e-06
4.19138e-06
4.15853e-06
4.12399e-06
4.08787e-06
4.05033e-06
3.62849e-06
3.67277e-06
3.71536e-06
3.75685e-06
3.7972e-06
3.83638e-06
3.87426e-06
3.91077e-06
3.94581e-06
3.97923e-06
4.01101e-06
4.04107e-06
4.06938e-06
4.09578e-06
4.12026e-06
4.14276e-06
4.16315e-06
4.18142e-06
4.19748e-06
4.21134e-06
4.22291e-06
4.23226e-06
4.2393e-06
4.24396e-06
4.2463e-06
4.24629e-06
4.24393e-06
4.23921e-06
4.23221e-06
4.22285e-06
4.21124e-06
4.19741e-06
4.18138e-06
4.1632e-06
4.1429e-06
4.1205e-06
4.09605e-06
4.06958e-06
4.04123e-06
4.01109e-06
3.97924e-06
3.94576e-06
3.91075e-06
3.87438e-06
3.4632e-06
3.50601e-06
3.5472e-06
3.58733e-06
3.62638e-06
3.66429e-06
3.70096e-06
3.7363e-06
3.77023e-06
3.80259e-06
3.83337e-06
3.86249e-06
3.88992e-06
3.91548e-06
3.9392e-06
3.961e-06
3.98076e-06
3.99847e-06
4.01404e-06
4.02747e-06
4.03868e-06
4.04775e-06
4.05456e-06
4.05908e-06
4.06135e-06
4.06134e-06
4.05905e-06
4.05448e-06
4.04769e-06
4.03862e-06
4.02736e-06
4.01396e-06
3.99842e-06
3.98081e-06
3.96114e-06
3.93943e-06
3.91575e-06
3.8901e-06
3.86264e-06
3.83344e-06
3.8026e-06
3.77019e-06
3.73629e-06
3.70108e-06
3.30064e-06
3.34197e-06
3.38176e-06
3.42054e-06
3.45827e-06
3.49493e-06
3.53038e-06
3.56456e-06
3.59738e-06
3.62867e-06
3.65845e-06
3.68663e-06
3.71317e-06
3.7379e-06
3.76085e-06
3.78195e-06
3.80108e-06
3.81822e-06
3.83329e-06
3.84629e-06
3.85715e-06
3.86593e-06
3.87252e-06
3.8769e-06
3.87909e-06
3.87909e-06
3.87688e-06
3.87245e-06
3.86587e-06
3.85709e-06
3.84619e-06
3.83321e-06
3.81817e-06
3.80112e-06
3.78208e-06
3.76107e-06
3.73815e-06
3.71334e-06
3.68676e-06
3.65852e-06
3.62868e-06
3.59733e-06
3.56454e-06
3.5305e-06
3.49518e-06
3.14087e-06
3.18072e-06
3.21911e-06
3.25654e-06
3.29296e-06
3.32835e-06
3.36258e-06
3.3956e-06
3.4273e-06
3.45754e-06
3.48631e-06
3.51354e-06
3.53919e-06
3.56309e-06
3.58528e-06
3.60568e-06
3.62417e-06
3.64074e-06
3.65532e-06
3.66789e-06
3.67839e-06
3.68688e-06
3.69326e-06
3.69749e-06
3.69961e-06
3.6996e-06
3.69747e-06
3.69319e-06
3.68682e-06
3.67833e-06
3.66779e-06
3.65524e-06
3.64069e-06
3.62421e-06
3.6058e-06
3.58548e-06
3.56333e-06
3.53935e-06
3.51367e-06
3.48638e-06
3.45755e-06
3.42725e-06
3.39558e-06
3.36271e-06
3.32861e-06
2.98396e-06
3.02234e-06
3.05933e-06
3.0954e-06
3.13051e-06
3.16463e-06
3.19764e-06
3.2295e-06
3.26008e-06
3.28926e-06
3.31702e-06
3.34331e-06
3.36807e-06
3.39114e-06
3.41255e-06
3.43225e-06
3.4501e-06
3.46611e-06
3.48019e-06
3.49233e-06
3.50247e-06
3.51067e-06
3.51683e-06
3.52091e-06
3.52296e-06
3.52295e-06
3.5209e-06
3.51676e-06
3.51061e-06
3.50242e-06
3.49223e-06
3.48011e-06
3.46606e-06
3.45014e-06
3.43237e-06
3.41275e-06
3.39136e-06
3.36821e-06
3.34342e-06
3.31709e-06
3.28927e-06
3.26003e-06
3.22948e-06
3.19777e-06
3.1649e-06
2.82998e-06
2.86689e-06
2.90248e-06
2.9372e-06
2.97099e-06
3.00385e-06
3.03564e-06
3.06633e-06
3.0958e-06
3.12391e-06
3.15067e-06
3.176e-06
3.19987e-06
3.22211e-06
3.24275e-06
3.26175e-06
3.27896e-06
3.2944e-06
3.30798e-06
3.31969e-06
3.32947e-06
3.33737e-06
3.34331e-06
3.34726e-06
3.34923e-06
3.34923e-06
3.34724e-06
3.34326e-06
3.33731e-06
3.32942e-06
3.31959e-06
3.3079e-06
3.29435e-06
3.279e-06
3.26186e-06
3.24293e-06
3.22232e-06
3.2e-06
3.17611e-06
3.15073e-06
3.12392e-06
3.09575e-06
3.06631e-06
3.03577e-06
3.00412e-06
2.67901e-06
2.71445e-06
2.74864e-06
2.78201e-06
2.81449e-06
2.84608e-06
2.87665e-06
2.90617e-06
2.93452e-06
2.96157e-06
2.98732e-06
3.01171e-06
3.03468e-06
3.05609e-06
3.07595e-06
3.09425e-06
3.11082e-06
3.12569e-06
3.13877e-06
3.15005e-06
3.15947e-06
3.16708e-06
3.1728e-06
3.1766e-06
3.1785e-06
3.1785e-06
3.17659e-06
3.17275e-06
3.16702e-06
3.15942e-06
3.14996e-06
3.13869e-06
3.12564e-06
3.11086e-06
3.09435e-06
3.07612e-06
3.05628e-06
3.0348e-06
3.0118e-06
2.98738e-06
2.96159e-06
2.93447e-06
2.90615e-06
2.87677e-06
2.53113e-06
2.5651e-06
2.59789e-06
2.62991e-06
2.66108e-06
2.6914e-06
2.72076e-06
2.74911e-06
2.77634e-06
2.80233e-06
2.82707e-06
2.8505e-06
2.87258e-06
2.89316e-06
2.91225e-06
2.92984e-06
2.94578e-06
2.96007e-06
2.97265e-06
2.9835e-06
2.99255e-06
2.99987e-06
3.00537e-06
3.00903e-06
3.01086e-06
3.01086e-06
3.00902e-06
3.00532e-06
2.99981e-06
2.99251e-06
2.98341e-06
2.97257e-06
2.96002e-06
2.94581e-06
2.92993e-06
2.91241e-06
2.89333e-06
2.87269e-06
2.85059e-06
2.82712e-06
2.80235e-06
2.77629e-06
2.74909e-06
2.72088e-06
2.3864e-06
2.41892e-06
2.45032e-06
2.48099e-06
2.51086e-06
2.53991e-06
2.56805e-06
2.59523e-06
2.62134e-06
2.64627e-06
2.67001e-06
2.69248e-06
2.71366e-06
2.73341e-06
2.75173e-06
2.76861e-06
2.78391e-06
2.79763e-06
2.8097e-06
2.82012e-06
2.82882e-06
2.83584e-06
2.84113e-06
2.84464e-06
2.84639e-06
2.84639e-06
2.84463e-06
2.84108e-06
2.83578e-06
2.82878e-06
2.82003e-06
2.80963e-06
2.79758e-06
2.78394e-06
2.76869e-06
2.75188e-06
2.73357e-06
2.71376e-06
2.69256e-06
2.67005e-06
2.64629e-06
2.6213e-06
2.59522e-06
2.56817e-06
2.24488e-06
2.27597e-06
2.30599e-06
2.33532e-06
2.36389e-06
2.39168e-06
2.41861e-06
2.44462e-06
2.46962e-06
2.49348e-06
2.51621e-06
2.53774e-06
2.55802e-06
2.57694e-06
2.59449e-06
2.61066e-06
2.62532e-06
2.63846e-06
2.65004e-06
2.66002e-06
2.66836e-06
2.67509e-06
2.68015e-06
2.68352e-06
2.6852e-06
2.6852e-06
2.68351e-06
2.68011e-06
2.67503e-06
2.66832e-06
2.65994e-06
2.64997e-06
2.63841e-06
2.62534e-06
2.61073e-06
2.59462e-06
2.57709e-06
2.55812e-06
2.5378e-06
2.51626e-06
2.4935e-06
2.46958e-06
2.44461e-06
2.41872e-06
2.10664e-06
2.13627e-06
2.16493e-06
2.19293e-06
2.22022e-06
2.24677e-06
2.27251e-06
2.29736e-06
2.32125e-06
2.34406e-06
2.36578e-06
2.38636e-06
2.40575e-06
2.42384e-06
2.44062e-06
2.45608e-06
2.4701e-06
2.48267e-06
2.49375e-06
2.50329e-06
2.51128e-06
2.51771e-06
2.52255e-06
2.52578e-06
2.52739e-06
2.52739e-06
2.52577e-06
2.52251e-06
2.51766e-06
2.51124e-06
2.50322e-06
2.49368e-06
2.48263e-06
2.47012e-06
2.45615e-06
2.44074e-06
2.42397e-06
2.40584e-06
2.38642e-06
2.36582e-06
2.34408e-06
2.32121e-06
2.29735e-06
2.27262e-06
1.97183e-06
2.00002e-06
2.0273e-06
2.05396e-06
2.07995e-06
2.10524e-06
2.12977e-06
2.15348e-06
2.17626e-06
2.19803e-06
2.21877e-06
2.23841e-06
2.25692e-06
2.2742e-06
2.2902e-06
2.30497e-06
2.31835e-06
2.33034e-06
2.34092e-06
2.35004e-06
2.35766e-06
2.3638e-06
2.36843e-06
2.37151e-06
2.37305e-06
2.37305e-06
2.3715e-06
2.36838e-06
2.36375e-06
2.35762e-06
2.34996e-06
2.34086e-06
2.3303e-06
2.31837e-06
2.30502e-06
2.29032e-06
2.27432e-06
2.257e-06
2.23846e-06
2.2188e-06
2.19805e-06
2.17622e-06
2.15346e-06
2.12987e-06
1.84058e-06
1.86733e-06
1.89323e-06
1.91856e-06
1.94325e-06
1.96729e-06
1.99061e-06
2.01315e-06
2.03483e-06
2.05553e-06
2.07527e-06
2.09396e-06
2.11158e-06
2.12803e-06
2.14327e-06
2.15734e-06
2.17009e-06
2.18153e-06
2.19161e-06
2.2003e-06
2.20757e-06
2.21342e-06
2.21783e-06
2.22077e-06
2.22224e-06
2.22224e-06
2.22077e-06
2.21779e-06
2.21337e-06
2.20754e-06
2.20023e-06
2.19155e-06
2.18149e-06
2.17011e-06
2.15739e-06
2.14338e-06
2.12813e-06
2.11165e-06
2.094e-06
2.0753e-06
2.05555e-06
2.03479e-06
2.01314e-06
1.9907e-06
1.71297e-06
1.7383e-06
1.76283e-06
1.78683e-06
1.81024e-06
1.83302e-06
1.85514e-06
1.87652e-06
1.89709e-06
1.91674e-06
1.93547e-06
1.95321e-06
1.96994e-06
1.98556e-06
2.00004e-06
2.0134e-06
2.02552e-06
2.03638e-06
2.04596e-06
2.05422e-06
2.06113e-06
2.06669e-06
2.07088e-06
2.07367e-06
2.07507e-06
2.07507e-06
2.07367e-06
2.07084e-06
2.06664e-06
2.0611e-06
2.05415e-06
2.04591e-06
2.03634e-06
2.02553e-06
2.01344e-06
2.00014e-06
1.98565e-06
1.97e-06
1.95325e-06
1.9355e-06
1.91676e-06
1.89705e-06
1.87651e-06
1.85523e-06
1.58911e-06
1.61302e-06
1.6362e-06
1.65887e-06
1.68101e-06
1.70255e-06
1.72347e-06
1.7437e-06
1.76317e-06
1.78177e-06
1.7995e-06
1.8163e-06
1.83213e-06
1.84693e-06
1.86064e-06
1.8733e-06
1.88478e-06
1.89507e-06
1.90415e-06
1.91198e-06
1.91853e-06
1.9238e-06
1.92777e-06
1.93042e-06
1.93175e-06
1.93175e-06
1.93042e-06
1.92774e-06
1.92376e-06
1.9185e-06
1.91192e-06
1.9041e-06
1.89504e-06
1.88479e-06
1.87334e-06
1.86073e-06
1.84701e-06
1.83219e-06
1.81633e-06
1.79953e-06
1.78179e-06
1.76313e-06
1.74369e-06
1.72356e-06
1.46909e-06
1.4916e-06
1.51343e-06
1.5348e-06
1.55567e-06
1.57598e-06
1.59571e-06
1.6148e-06
1.63317e-06
1.65073e-06
1.66747e-06
1.68333e-06
1.69828e-06
1.71225e-06
1.72521e-06
1.73716e-06
1.74801e-06
1.75774e-06
1.76631e-06
1.77372e-06
1.77991e-06
1.7849e-06
1.78864e-06
1.79115e-06
1.7924e-06
1.7924e-06
1.79115e-06
1.78861e-06
1.78485e-06
1.77989e-06
1.77366e-06
1.76628e-06
1.7577e-06
1.74802e-06
1.7372e-06
1.72529e-06
1.71233e-06
1.69833e-06
1.68336e-06
1.66749e-06
1.65075e-06
1.63314e-06
1.61479e-06
1.59579e-06
1.35303e-06
1.37415e-06
1.39465e-06
1.41473e-06
1.43434e-06
1.45343e-06
1.47199e-06
1.48994e-06
1.50722e-06
1.52374e-06
1.53949e-06
1.55442e-06
1.5685e-06
1.58166e-06
1.59386e-06
1.60512e-06
1.61534e-06
1.6245e-06
1.63258e-06
1.63956e-06
1.64539e-06
1.65009e-06
1.65362e-06
1.65598e-06
1.65717e-06
1.65717e-06
1.65599e-06
1.65359e-06
1.65005e-06
1.64537e-06
1.63951e-06
1.63255e-06
1.62447e-06
1.61534e-06
1.60514e-06
1.59393e-06
1.58173e-06
1.56855e-06
1.55445e-06
1.53952e-06
1.52376e-06
1.50719e-06
1.48992e-06
1.47206e-06
1.45365e-06
1.24104e-06
1.26079e-06
1.27998e-06
1.29877e-06
1.31713e-06
1.33502e-06
1.35241e-06
1.36924e-06
1.38544e-06
1.40093e-06
1.41571e-06
1.42971e-06
1.44292e-06
1.45527e-06
1.46672e-06
1.47729e-06
1.48689e-06
1.49549e-06
1.50308e-06
1.50963e-06
1.51511e-06
1.51953e-06
1.52284e-06
1.52506e-06
1.52617e-06
1.52617e-06
1.52506e-06
1.52282e-06
1.51949e-06
1.51509e-06
1.50959e-06
1.50305e-06
1.49546e-06
1.48689e-06
1.47731e-06
1.46679e-06
1.45533e-06
1.44296e-06
1.42973e-06
1.41573e-06
1.40095e-06
1.38541e-06
1.36922e-06
1.35247e-06
1.33522e-06
1.13323e-06
1.15163e-06
1.16952e-06
1.18704e-06
1.20418e-06
1.22087e-06
1.23711e-06
1.25282e-06
1.26795e-06
1.28243e-06
1.29624e-06
1.30933e-06
1.32168e-06
1.33322e-06
1.34393e-06
1.35382e-06
1.3628e-06
1.37084e-06
1.37795e-06
1.38408e-06
1.38921e-06
1.39334e-06
1.39644e-06
1.39852e-06
1.39956e-06
1.39956e-06
1.39852e-06
1.39642e-06
1.3933e-06
1.38919e-06
1.38404e-06
1.37792e-06
1.37082e-06
1.3628e-06
1.35384e-06
1.34399e-06
1.33328e-06
1.32172e-06
1.30935e-06
1.29626e-06
1.28245e-06
1.26793e-06
1.25281e-06
1.23716e-06
1.22106e-06
1.02971e-06
1.04679e-06
1.06339e-06
1.07967e-06
1.09559e-06
1.11111e-06
1.12621e-06
1.14082e-06
1.1549e-06
1.16837e-06
1.18123e-06
1.19341e-06
1.20491e-06
1.21566e-06
1.22563e-06
1.23484e-06
1.24321e-06
1.25071e-06
1.25733e-06
1.26305e-06
1.26783e-06
1.27169e-06
1.27457e-06
1.27651e-06
1.27749e-06
1.27748e-06
1.27652e-06
1.27456e-06
1.27165e-06
1.26782e-06
1.26301e-06
1.25731e-06
1.25069e-06
1.24321e-06
1.23486e-06
1.22569e-06
1.21572e-06
1.20495e-06
1.19343e-06
1.18125e-06
1.16839e-06
1.15488e-06
1.14081e-06
1.12626e-06
1.11129e-06
9.30544e-07
9.46351e-07
9.61703e-07
9.76758e-07
9.91488e-07
1.00585e-06
1.01983e-06
1.03337e-06
1.04641e-06
1.0589e-06
1.07081e-06
1.0821e-06
1.09276e-06
1.10273e-06
1.11198e-06
1.12052e-06
1.12828e-06
1.13524e-06
1.14138e-06
1.14669e-06
1.15113e-06
1.15471e-06
1.15739e-06
1.15918e-06
1.16009e-06
1.16009e-06
1.15919e-06
1.15737e-06
1.15467e-06
1.15112e-06
1.14666e-06
1.14136e-06
1.13522e-06
1.12828e-06
1.12054e-06
1.11203e-06
1.10278e-06
1.09279e-06
1.08211e-06
1.07082e-06
1.05891e-06
1.04639e-06
1.03335e-06
1.01988e-06
8.35579e-07
8.50286e-07
8.64429e-07
8.78301e-07
8.91883e-07
9.05129e-07
9.1803e-07
9.30528e-07
9.42574e-07
9.54106e-07
9.65092e-07
9.75504e-07
9.85341e-07
9.94544e-07
1.00308e-06
1.01097e-06
1.01814e-06
1.02456e-06
1.03024e-06
1.03515e-06
1.03924e-06
1.04255e-06
1.04503e-06
1.04669e-06
1.04753e-06
1.04752e-06
1.04669e-06
1.04501e-06
1.04252e-06
1.03923e-06
1.03511e-06
1.03022e-06
1.02455e-06
1.01814e-06
1.01098e-06
1.00313e-06
9.94589e-07
9.8537e-07
9.75522e-07
9.65108e-07
9.54122e-07
9.42552e-07
9.30511e-07
9.18071e-07
7.43163e-07
7.57738e-07
7.70833e-07
7.83674e-07
7.96255e-07
8.08532e-07
8.20499e-07
8.32095e-07
8.43278e-07
8.53985e-07
8.64075e-07
8.73641e-07
8.82681e-07
8.91142e-07
8.98992e-07
9.06247e-07
9.12842e-07
9.18756e-07
9.23979e-07
9.28495e-07
9.32266e-07
9.35311e-07
9.3759e-07
9.39121e-07
9.39893e-07
9.3989e-07
9.39126e-07
9.3758e-07
9.35281e-07
9.32257e-07
9.28466e-07
9.23964e-07
9.18742e-07
9.12842e-07
9.06259e-07
8.99035e-07
8.91183e-07
8.82708e-07
8.73657e-07
8.64089e-07
8.53998e-07
8.43258e-07
8.32078e-07
8.20533e-07
6.48967e-07
6.62293e-07
6.75257e-07
6.87992e-07
7.00471e-07
7.12642e-07
7.24512e-07
7.36006e-07
7.47091e-07
7.57672e-07
7.66975e-07
7.75797e-07
7.84141e-07
7.91952e-07
7.99201e-07
8.05904e-07
8.11998e-07
8.17465e-07
8.22294e-07
8.2647e-07
8.29957e-07
8.32775e-07
8.34883e-07
8.36299e-07
8.37014e-07
8.3701e-07
8.36304e-07
8.34875e-07
8.32747e-07
8.29951e-07
8.26444e-07
8.2228e-07
8.17453e-07
8.11998e-07
8.05914e-07
7.9924e-07
7.91989e-07
7.84164e-07
7.75813e-07
7.66987e-07
7.57684e-07
7.47069e-07
7.35983e-07
7.24537e-07
5.59698e-07
5.71757e-07
5.83513e-07
5.95072e-07
6.06407e-07
6.17472e-07
6.28271e-07
6.38733e-07
6.48831e-07
6.58509e-07
6.67707e-07
6.76425e-07
6.84676e-07
6.92397e-07
6.9956e-07
7.06186e-07
7.12207e-07
7.1761e-07
7.22381e-07
7.26509e-07
7.2995e-07
7.32737e-07
7.34815e-07
7.36216e-07
7.36924e-07
7.36917e-07
7.36223e-07
7.34812e-07
7.32706e-07
7.29947e-07
7.26483e-07
7.2237e-07
7.176e-07
7.12207e-07
7.06194e-07
6.99598e-07
6.92434e-07
6.84695e-07
6.76441e-07
6.67717e-07
6.58523e-07
6.48812e-07
6.38714e-07
6.28292e-07
4.7585e-07
4.86634e-07
4.97165e-07
5.07532e-07
5.17709e-07
5.27652e-07
5.37363e-07
5.46779e-07
5.55874e-07
5.64598e-07
5.72901e-07
5.80775e-07
5.88231e-07
5.95213e-07
6.01693e-07
6.07688e-07
6.1314e-07
6.18034e-07
6.22356e-07
6.26095e-07
6.29214e-07
6.3174e-07
6.33625e-07
6.34895e-07
6.35536e-07
6.3553e-07
6.349e-07
6.33622e-07
6.31714e-07
6.29212e-07
6.26073e-07
6.22344e-07
6.18024e-07
6.13139e-07
6.07695e-07
6.01725e-07
5.95244e-07
5.88247e-07
5.80789e-07
5.72909e-07
5.6461e-07
5.55858e-07
5.46762e-07
5.37381e-07
3.97951e-07
4.07455e-07
4.16755e-07
4.2592e-07
4.34928e-07
4.43738e-07
4.52351e-07
4.60711e-07
4.68792e-07
4.76553e-07
4.83947e-07
4.90965e-07
4.97614e-07
5.03846e-07
5.09632e-07
5.14987e-07
5.1986e-07
5.24237e-07
5.28103e-07
5.31448e-07
5.34241e-07
5.36502e-07
5.3819e-07
5.39328e-07
5.39902e-07
5.39895e-07
5.39331e-07
5.38186e-07
5.36479e-07
5.34239e-07
5.31429e-07
5.28092e-07
5.24229e-07
5.1986e-07
5.14994e-07
5.09659e-07
5.03873e-07
4.97629e-07
4.90976e-07
4.83953e-07
4.76562e-07
4.6878e-07
4.60696e-07
4.52366e-07
3.26539e-07
3.3477e-07
3.42839e-07
3.50803e-07
3.58642e-07
3.66319e-07
3.73831e-07
3.81131e-07
3.88195e-07
3.94986e-07
4.01465e-07
4.07621e-07
4.13456e-07
4.1893e-07
4.24018e-07
4.28727e-07
4.33016e-07
4.3687e-07
4.40274e-07
4.43221e-07
4.45685e-07
4.47677e-07
4.49167e-07
4.5017e-07
4.50676e-07
4.50671e-07
4.50172e-07
4.49164e-07
4.47659e-07
4.45682e-07
4.43206e-07
4.40265e-07
4.36862e-07
4.33016e-07
4.28734e-07
4.2404e-07
4.18954e-07
4.13469e-07
4.0763e-07
4.0147e-07
3.94993e-07
3.88184e-07
3.81118e-07
3.73842e-07
2.62137e-07
2.69115e-07
2.75971e-07
2.82749e-07
2.8943e-07
2.95983e-07
3.02403e-07
3.0865e-07
3.14704e-07
3.2053e-07
3.26096e-07
3.31392e-07
3.36415e-07
3.41131e-07
3.45519e-07
3.49583e-07
3.53285e-07
3.56615e-07
3.59559e-07
3.62108e-07
3.64239e-07
3.65964e-07
3.67254e-07
3.68122e-07
3.6856e-07
3.68556e-07
3.68123e-07
3.6725e-07
3.65949e-07
3.64237e-07
3.62094e-07
3.5955e-07
3.56609e-07
3.53286e-07
3.49588e-07
3.45537e-07
3.41151e-07
3.36425e-07
3.31399e-07
3.261e-07
3.20536e-07
3.14695e-07
3.08641e-07
3.02412e-07
2.96047e-07
2.05202e-07
2.10969e-07
2.16648e-07
2.22273e-07
2.27827e-07
2.33284e-07
2.38637e-07
2.43855e-07
2.48918e-07
2.53797e-07
2.58466e-07
2.62914e-07
2.67137e-07
2.71105e-07
2.74802e-07
2.78228e-07
2.81352e-07
2.84163e-07
2.8665e-07
2.88804e-07
2.90607e-07
2.92066e-07
2.93158e-07
2.93892e-07
2.94263e-07
2.9426e-07
2.93893e-07
2.93155e-07
2.92054e-07
2.90605e-07
2.88794e-07
2.86643e-07
2.84158e-07
2.81353e-07
2.78232e-07
2.74817e-07
2.71121e-07
2.67145e-07
2.62919e-07
2.58469e-07
2.53802e-07
2.4891e-07
2.43847e-07
2.38645e-07
2.33332e-07
1.56062e-07
1.60686e-07
1.65251e-07
1.6978e-07
1.7426e-07
1.78671e-07
1.83005e-07
1.87236e-07
1.91348e-07
1.95317e-07
1.99122e-07
2.0275e-07
2.062e-07
2.09445e-07
2.12472e-07
2.1528e-07
2.17841e-07
2.20149e-07
2.22191e-07
2.23962e-07
2.25445e-07
2.26644e-07
2.27544e-07
2.28148e-07
2.28453e-07
2.28451e-07
2.28149e-07
2.27541e-07
2.26635e-07
2.25443e-07
2.23953e-07
2.22186e-07
2.20145e-07
2.17842e-07
2.15283e-07
2.12484e-07
2.09458e-07
2.06206e-07
2.02755e-07
1.99124e-07
1.95321e-07
1.91342e-07
1.8723e-07
1.83011e-07
1.78707e-07
1.14847e-07
1.18425e-07
1.21964e-07
1.25484e-07
1.28972e-07
1.32413e-07
1.358e-07
1.39112e-07
1.42337e-07
1.45455e-07
1.48448e-07
1.51307e-07
1.54029e-07
1.56593e-07
1.58988e-07
1.6121e-07
1.6324e-07
1.65071e-07
1.66692e-07
1.68098e-07
1.69277e-07
1.70231e-07
1.70947e-07
1.71427e-07
1.7167e-07
1.71668e-07
1.71428e-07
1.70944e-07
1.70224e-07
1.69276e-07
1.68092e-07
1.66688e-07
1.65068e-07
1.63241e-07
1.61212e-07
1.58996e-07
1.56603e-07
1.54034e-07
1.51311e-07
1.4845e-07
1.45457e-07
1.42332e-07
1.39108e-07
1.35804e-07
1.32439e-07
1.28981e-07
8.14192e-08
8.40739e-08
8.67067e-08
8.93298e-08
9.19349e-08
9.45099e-08
9.70489e-08
9.95369e-08
1.01963e-07
1.04313e-07
1.06572e-07
1.08735e-07
1.10795e-07
1.12739e-07
1.14557e-07
1.16246e-07
1.1779e-07
1.19184e-07
1.20419e-07
1.21492e-07
1.22391e-07
1.23119e-07
1.23666e-07
1.24033e-07
1.24218e-07
1.24217e-07
1.24033e-07
1.23664e-07
1.23114e-07
1.2239e-07
1.21487e-07
1.20416e-07
1.19181e-07
1.17791e-07
1.16248e-07
1.14563e-07
1.12746e-07
1.10799e-07
1.08737e-07
1.06574e-07
1.04314e-07
1.0196e-07
9.95336e-08
9.70521e-08
9.45286e-08
9.1941e-08
5.53341e-08
5.72122e-08
5.90789e-08
6.09424e-08
6.27966e-08
6.46331e-08
6.6447e-08
6.82277e-08
6.99671e-08
7.16546e-08
7.328e-08
7.48379e-08
7.63244e-08
7.77288e-08
7.90436e-08
8.02662e-08
8.13856e-08
8.23966e-08
8.32937e-08
8.40728e-08
8.47271e-08
8.52566e-08
8.56545e-08
8.59219e-08
8.60567e-08
8.60559e-08
8.5922e-08
8.56533e-08
8.52531e-08
8.47261e-08
8.40696e-08
8.32918e-08
8.23951e-08
8.13859e-08
8.02676e-08
7.9048e-08
7.77336e-08
7.6327e-08
7.48396e-08
7.32809e-08
7.16557e-08
6.99648e-08
6.82254e-08
6.64492e-08
6.46457e-08
6.28007e-08
6.09442e-08
3.58527e-08
3.71112e-08
3.83644e-08
3.96177e-08
4.08671e-08
4.21066e-08
4.3333e-08
4.45389e-08
4.57187e-08
4.68651e-08
4.7971e-08
4.90325e-08
5.00467e-08
5.1006e-08
5.19052e-08
5.27422e-08
5.35093e-08
5.42027e-08
5.48185e-08
5.53537e-08
5.58034e-08
5.61675e-08
5.64412e-08
5.66252e-08
5.6718e-08
5.67174e-08
5.66253e-08
5.64405e-08
5.61652e-08
5.58027e-08
5.53515e-08
5.48172e-08
5.42017e-08
5.35095e-08
5.27432e-08
5.19082e-08
5.10092e-08
5.00484e-08
4.90337e-08
4.79716e-08
4.68658e-08
4.57172e-08
4.45374e-08
4.33344e-08
4.21149e-08
4.08697e-08
3.96188e-08
2.20031e-08
2.27961e-08
2.3587e-08
2.43793e-08
2.51702e-08
2.59561e-08
2.67348e-08
2.75016e-08
2.82528e-08
2.89838e-08
2.96898e-08
3.03684e-08
3.10174e-08
3.16321e-08
3.22088e-08
3.27461e-08
3.3239e-08
3.36849e-08
3.40812e-08
3.44257e-08
3.47155e-08
3.49501e-08
3.51266e-08
3.52453e-08
3.53051e-08
3.53047e-08
3.52453e-08
3.51261e-08
3.49486e-08
3.4715e-08
3.44244e-08
3.40803e-08
3.36843e-08
3.32391e-08
3.27468e-08
3.22107e-08
3.16341e-08
3.10186e-08
3.03691e-08
2.96902e-08
2.89842e-08
2.82518e-08
2.75006e-08
2.67357e-08
2.59612e-08
2.51718e-08
2.43798e-08
1.26864e-08
1.31523e-08
1.36176e-08
1.40843e-08
1.45507e-08
1.50147e-08
1.5475e-08
1.59287e-08
1.63738e-08
1.68074e-08
1.72266e-08
1.76299e-08
1.8016e-08
1.8382e-08
1.87257e-08
1.90461e-08
1.93403e-08
1.96066e-08
1.98434e-08
2.00494e-08
2.02227e-08
2.03631e-08
2.04687e-08
2.05397e-08
2.05755e-08
2.05754e-08
2.05398e-08
2.04684e-08
2.03622e-08
2.02224e-08
2.00486e-08
1.98429e-08
1.96062e-08
1.93404e-08
1.90465e-08
1.87268e-08
1.83832e-08
1.80167e-08
1.76303e-08
1.72268e-08
1.68076e-08
1.63732e-08
1.59282e-08
1.54755e-08
1.50177e-08
1.45516e-08
1.40846e-08
6.79806e-09
7.0506e-09
7.30297e-09
7.55629e-09
7.80972e-09
8.06205e-09
8.31256e-09
8.55974e-09
8.80237e-09
9.03891e-09
9.2678e-09
9.48818e-09
9.6993e-09
9.89955e-09
1.00877e-08
1.02633e-08
1.04245e-08
1.05705e-08
1.07004e-08
1.08135e-08
1.09087e-08
1.09857e-08
1.10438e-08
1.10828e-08
1.11025e-08
1.11024e-08
1.10828e-08
1.10436e-08
1.09853e-08
1.09085e-08
1.08131e-08
1.07002e-08
1.05703e-08
1.04246e-08
1.02635e-08
1.00883e-08
9.90019e-09
9.69966e-09
9.48841e-09
9.26792e-09
9.03903e-09
8.80206e-09
8.55943e-09
8.31284e-09
8.06364e-09
7.8102e-09
7.55645e-09
3.33453e-09
3.45889e-09
3.58321e-09
3.70805e-09
3.83302e-09
3.9575e-09
4.08115e-09
4.20321e-09
4.32309e-09
4.44001e-09
4.55321e-09
4.66225e-09
4.76675e-09
4.8659e-09
4.95913e-09
5.04612e-09
5.12605e-09
5.19846e-09
5.2629e-09
5.31899e-09
5.36621e-09
5.40447e-09
5.43328e-09
5.45265e-09
5.46241e-09
5.46236e-09
5.45266e-09
5.4332e-09
5.40424e-09
5.36613e-09
5.31878e-09
5.26277e-09
5.19836e-09
5.12607e-09
5.04622e-09
4.95943e-09
4.86623e-09
4.76693e-09
4.66236e-09
4.55327e-09
4.44007e-09
4.32294e-09
4.20306e-09
4.08129e-09
3.95828e-09
3.83325e-09
3.70813e-09
3.58324e-09
1.46416e-09
1.51857e-09
1.57295e-09
1.62757e-09
1.68224e-09
1.73672e-09
1.79084e-09
1.84427e-09
1.89676e-09
1.94796e-09
1.99754e-09
2.0453e-09
2.09108e-09
2.13453e-09
2.17539e-09
2.21352e-09
2.24856e-09
2.28031e-09
2.30856e-09
2.33316e-09
2.35387e-09
2.37065e-09
2.38329e-09
2.39178e-09
2.39607e-09
2.39604e-09
2.39179e-09
2.38325e-09
2.37055e-09
2.35384e-09
2.33307e-09
2.3085e-09
2.28026e-09
2.24857e-09
2.21356e-09
2.17552e-09
2.13467e-09
2.09116e-09
2.04535e-09
1.99756e-09
1.94799e-09
1.89669e-09
1.84421e-09
1.7909e-09
1.73706e-09
1.68235e-09
1.6276e-09
1.57296e-09
5.5601e-10
5.7642e-10
5.96811e-10
6.17285e-10
6.37776e-10
6.58188e-10
6.78463e-10
6.98478e-10
7.18134e-10
7.37306e-10
7.55867e-10
7.73746e-10
7.90883e-10
8.07145e-10
8.22434e-10
8.36703e-10
8.49815e-10
8.61695e-10
8.72266e-10
8.8147e-10
8.89217e-10
8.95495e-10
9.00223e-10
9.03402e-10
9.05004e-10
9.04996e-10
9.03403e-10
9.0021e-10
8.95458e-10
8.89205e-10
8.81434e-10
8.72245e-10
8.61679e-10
8.49819e-10
8.36721e-10
8.22486e-10
8.07198e-10
7.90913e-10
7.73766e-10
7.55877e-10
7.37316e-10
7.18108e-10
6.98453e-10
6.78486e-10
6.58319e-10
6.37816e-10
6.17298e-10
5.96815e-10
1.72613e-10
1.78804e-10
1.84983e-10
1.91183e-10
1.97383e-10
2.03556e-10
2.09684e-10
2.15731e-10
2.21666e-10
2.27451e-10
2.33049e-10
2.3844e-10
2.43604e-10
2.48503e-10
2.53108e-10
2.57404e-10
2.6135e-10
2.64925e-10
2.68105e-10
2.70873e-10
2.73203e-10
2.75091e-10
2.76513e-10
2.77468e-10
2.7795e-10
2.77947e-10
2.77469e-10
2.76508e-10
2.75079e-10
2.73199e-10
2.70862e-10
2.68098e-10
2.6492e-10
2.61351e-10
2.57409e-10
2.53124e-10
2.4852e-10
2.43614e-10
2.38446e-10
2.33053e-10
2.27454e-10
2.21658e-10
2.15723e-10
2.09692e-10
2.03597e-10
1.97396e-10
1.91187e-10
1.84984e-10
3.96845e-11
4.10507e-11
4.24117e-11
4.37754e-11
4.51378e-11
4.64925e-11
4.78359e-11
4.91599e-11
5.04582e-11
5.17226e-11
5.29448e-11
5.41205e-11
5.52461e-11
5.63131e-11
5.73152e-11
5.82497e-11
5.91076e-11
5.98843e-11
6.05751e-11
6.1176e-11
6.16816e-11
6.20912e-11
6.23996e-11
6.26068e-11
6.27113e-11
6.27107e-11
6.26069e-11
6.23986e-11
6.20886e-11
6.16808e-11
6.11736e-11
6.05735e-11
5.98832e-11
5.91079e-11
5.8251e-11
5.73188e-11
5.63169e-11
5.52483e-11
5.41219e-11
5.29455e-11
5.17233e-11
5.04564e-11
4.91581e-11
4.78375e-11
4.65017e-11
4.51406e-11
4.37763e-11
4.2412e-11
5.57475e-12
5.75238e-12
5.9287e-12
6.10496e-12
6.28065e-12
6.45496e-12
6.62747e-12
6.79716e-12
6.96324e-12
7.12467e-12
7.28041e-12
7.42998e-12
7.57297e-12
7.70833e-12
7.83528e-12
7.95354e-12
8.06199e-12
8.16009e-12
8.24724e-12
8.32302e-12
8.38672e-12
8.43831e-12
8.47712e-12
8.5032e-12
8.51635e-12
8.51627e-12
8.50321e-12
8.47699e-12
8.43796e-12
8.3866e-12
8.32269e-12
8.24703e-12
8.15993e-12
8.06203e-12
7.95371e-12
7.83577e-12
7.70884e-12
7.57327e-12
7.43017e-12
7.2805e-12
7.12476e-12
6.96299e-12
6.79691e-12
6.6277e-12
6.45623e-12
6.28104e-12
6.10509e-12
5.92874e-12
3.12001e-13
3.20338e-13
3.28553e-13
3.36724e-13
3.4483e-13
3.52836e-13
3.60728e-13
3.68459e-13
3.75996e-13
3.83293e-13
3.90304e-13
3.97013e-13
4.0341e-13
4.09446e-13
4.15092e-13
4.20341e-13
4.25144e-13
4.29479e-13
4.33323e-13
4.36661e-13
4.39462e-13
4.4173e-13
4.43432e-13
4.44577e-13
4.45154e-13
4.4515e-13
4.44577e-13
4.43425e-13
4.41711e-13
4.39456e-13
4.36644e-13
4.33312e-13
4.29471e-13
4.25146e-13
4.2035e-13
4.15118e-13
4.09473e-13
4.03425e-13
3.97023e-13
3.90309e-13
3.83298e-13
3.75983e-13
3.68446e-13
3.60741e-13
3.52906e-13
3.44852e-13
3.36731e-13
3.28555e-13
2.36132e-15
2.39867e-15
2.4347e-15
2.47013e-15
2.50493e-15
2.53894e-15
2.5722e-15
2.60449e-15
2.63571e-15
2.66566e-15
2.69414e-15
2.72118e-15
2.74683e-15
2.77087e-15
2.79321e-15
2.81393e-15
2.83278e-15
2.84972e-15
2.86468e-15
2.87764e-15
2.88846e-15
2.89722e-15
2.90376e-15
2.90817e-15
2.9104e-15
2.91037e-15
2.90817e-15
2.90372e-15
2.8971e-15
2.88842e-15
2.87753e-15
2.86461e-15
2.84966e-15
2.83279e-15
2.81399e-15
2.79339e-15
2.77105e-15
2.74694e-15
2.72125e-15
2.69418e-15
2.66569e-15
2.63562e-15
2.6044e-15
2.57229e-15
2.53944e-15
2.50508e-15
2.47019e-15
2.43472e-15
4.31567e-06
4.14009e-06
3.967e-06
3.79645e-06
3.62851e-06
3.46322e-06
3.30066e-06
3.14089e-06
2.98398e-06
2.83e-06
2.67903e-06
2.53115e-06
2.38642e-06
2.2449e-06
2.10666e-06
1.97185e-06
1.8406e-06
1.71299e-06
1.58912e-06
1.4691e-06
1.35304e-06
1.24105e-06
1.13324e-06
1.02971e-06
9.30551e-07
8.35586e-07
7.4317e-07
6.48973e-07
5.59701e-07
4.75853e-07
3.97954e-07
3.26542e-07
2.62139e-07
2.05203e-07
1.56063e-07
1.14848e-07
8.14199e-08
5.53345e-08
3.5853e-08
2.20033e-08
1.26865e-08
6.79812e-09
3.33456e-09
1.46418e-09
5.56015e-10
1.72615e-10
3.96848e-11
5.5748e-12
3.12003e-13
2.36134e-15
4.3659e-06
4.18884e-06
4.01427e-06
3.84224e-06
3.67282e-06
3.50605e-06
3.34201e-06
3.18077e-06
3.02238e-06
2.86693e-06
2.71448e-06
2.56513e-06
2.41895e-06
2.276e-06
2.1363e-06
2.00005e-06
1.86735e-06
1.73832e-06
1.61304e-06
1.49162e-06
1.37417e-06
1.26081e-06
1.15164e-06
1.0468e-06
9.46361e-07
8.50295e-07
7.57746e-07
6.62299e-07
5.71763e-07
4.86639e-07
4.07459e-07
3.34773e-07
2.69118e-07
2.10971e-07
1.60688e-07
1.18426e-07
8.40749e-08
5.72129e-08
3.71117e-08
2.27964e-08
1.31525e-08
7.0507e-09
3.45894e-09
1.51859e-09
5.76428e-10
1.78807e-10
4.10513e-11
5.75246e-12
3.20343e-13
2.39871e-15
4.41414e-06
4.23569e-06
4.05972e-06
3.8863e-06
3.71547e-06
3.54731e-06
3.38187e-06
3.21922e-06
3.05943e-06
2.90257e-06
2.74873e-06
2.59798e-06
2.4504e-06
2.30607e-06
2.16499e-06
2.02736e-06
1.89329e-06
1.76288e-06
1.63624e-06
1.51347e-06
1.39469e-06
1.28001e-06
1.16954e-06
1.06341e-06
9.61721e-07
8.64443e-07
7.70844e-07
6.75265e-07
5.8352e-07
4.97171e-07
4.16759e-07
3.42843e-07
2.75975e-07
2.16651e-07
1.65253e-07
1.21966e-07
8.6708e-08
5.90798e-08
3.8365e-08
2.35874e-08
1.36179e-08
7.30311e-09
3.58327e-09
1.57298e-09
5.96822e-10
1.84986e-10
4.24125e-11
5.92881e-12
3.28559e-13
2.43475e-15
4.46109e-06
4.28128e-06
4.10396e-06
3.92918e-06
3.75699e-06
3.58747e-06
3.42067e-06
3.25665e-06
3.0955e-06
2.93729e-06
2.78208e-06
2.62998e-06
2.48104e-06
2.33536e-06
2.19297e-06
2.05399e-06
1.91858e-06
1.78685e-06
1.65889e-06
1.53481e-06
1.41474e-06
1.29877e-06
1.18705e-06
1.07967e-06
9.76758e-07
8.78301e-07
7.83672e-07
6.87988e-07
5.95068e-07
5.07529e-07
4.25918e-07
3.50802e-07
2.82749e-07
2.22273e-07
1.6978e-07
1.25484e-07
8.933e-08
6.09425e-08
3.96179e-08
2.43794e-08
1.40843e-08
7.55633e-09
3.70807e-09
1.62758e-09
6.17289e-10
1.91184e-10
4.37757e-11
6.10499e-12
3.36726e-13
2.47015e-15
4.50669e-06
4.32557e-06
4.14694e-06
3.97085e-06
3.79736e-06
3.62652e-06
3.45841e-06
3.29309e-06
3.13062e-06
2.97109e-06
2.81458e-06