/*--------------------------------*- C++ -*----------------------------------*\
  =========                 |
  \\      /  F ield         | OpenFOAM: The Open Source CFD Toolbox
   \\    /   O peration     | Website:  https://openfoam.org
    \\  /    A nd           | Version:  7
     \\/     M anipulation  |
\*---------------------------------------------------------------------------*/
FoamFile
{
    version     2.0;
    format      ascii;
    class       volVectorField;
    location    "32000";
    object      U;
}
// * * * * * * * * * * * * * * * * * * * * * * * * * * * * * * * * * * * * * //

dimensions      [0 1 -1 0 0 0 0];

internalField   nonuniform List<vector> 
4825
(
(-8.51207e-19 2.1982e-21 -0.00608296)
(-6.42448e-19 -4.89904e-19 -0.00608711)
(-9.02851e-19 9.86961e-21 -0.00607098)
(-6.57711e-19 -4.72631e-19 -0.0060763)
(-1.16254e-18 2.88356e-20 -0.00608102)
(-6.50047e-19 2.00136e-19 -0.00608519)
(-4.83957e-19 -7.00111e-19 -0.00608882)
(-9.62598e-19 4.30469e-20 -0.00605614)
(-7.26738e-19 -4.1634e-19 -0.00606259)
(-1.05055e-18 -1.917e-19 -0.00606844)
(-7.78631e-19 2.61623e-19 -0.00607371)
(-4.55492e-19 -7.11878e-19 -0.00607842)
(-1.02737e-18 1.1514e-19 -0.00603848)
(-7.81473e-19 -3.86942e-19 -0.00604602)
(-1.07985e-18 -2.08477e-19 -0.00605296)
(-8.8876e-19 3.2663e-19 -0.00605931)
(-5.28198e-19 -5.81863e-19 -0.00606508)
(-9.98605e-19 1.01926e-19 -0.00601806)
(-7.07963e-19 -5.0395e-19 -0.00602666)
(-1.12192e-18 -1.73713e-19 -0.00603465)
(-9.71151e-19 3.54323e-19 -0.00604204)
(-5.99527e-19 -4.8357e-19 -0.00604883)
(-8.83234e-19 -5.59428e-20 -0.00599496)
(-5.77942e-19 -6.77071e-19 -0.00600457)
(-1.06913e-18 -2.21434e-19 -0.00601357)
(-9.32246e-19 2.3038e-19 -0.00602195)
(-6.25615e-19 -4.3447e-19 -0.00602973)
(-7.72717e-19 -2.28556e-19 -0.00596923)
(-5.29884e-19 -7.44245e-19 -0.00597981)
(-9.91707e-19 -2.98683e-19 -0.00598978)
(-7.80154e-19 -4.14984e-20 -0.00599912)
(-5.78213e-19 -4.5464e-19 -0.00600785)
(-7.92309e-19 -2.55641e-19 -0.00594093)
(-5.65183e-19 -7.09135e-19 -0.00595245)
(-9.77269e-19 -3.25215e-19 -0.00596335)
(-7.25586e-19 -1.82683e-19 -0.00597362)
(-5.00586e-19 -4.87331e-19 -0.00598325)
(-9.01619e-19 -1.63902e-19 -0.00591012)
(-6.82509e-19 -5.90847e-19 -0.00592254)
(-9.77081e-19 -3.30422e-19 -0.00593433)
(-8.42673e-19 -1.09164e-19 -0.00594549)
(-4.69635e-19 -5.06987e-19 -0.00595599)
(-8.99552e-19 -1.73318e-19 -0.00587687)
(-9.32168e-19 -3.35634e-19 -0.00589015)
(-9.65467e-19 -3.5624e-19 -0.0059028)
(-1.00506e-18 2.38348e-20 -0.0059148)
(-4.7366e-19 -4.8772e-19 -0.00592614)
(-7.56729e-19 -3.04007e-19 -0.00584124)
(-1.16863e-18 -9.08061e-20 -0.00585534)
(-1.02526e-18 -3.14177e-19 -0.0058688)
(-1.15465e-18 1.33666e-19 -0.00588162)
(-5.23542e-19 -3.91353e-19 -0.00589376)
(-6.07406e-19 -4.43822e-19 -0.00580329)
(-1.2186e-18 -4.07252e-20 -0.00581817)
(-1.08298e-18 -2.86547e-19 -0.00583242)
(-1.23985e-18 1.54845e-19 -0.005846)
(-5.54024e-19 -3.27085e-19 -0.00585891)
(-5.83087e-19 -4.5036e-19 -0.0057631)
(-1.10027e-18 -1.83414e-19 -0.00577872)
(-1.02966e-18 -3.96641e-19 -0.0057937)
(-1.28098e-18 1.08083e-19 -0.00580802)
(-5.66157e-19 -3.01218e-19 -0.00582166)
(-5.93302e-19 -4.4781e-19 -0.00572072)
(-9.88916e-19 -3.47521e-19 -0.00573705)
(-9.06971e-19 -5.76463e-19 -0.00575273)
(-1.31126e-18 7.01319e-20 -0.00576775)
(-5.46502e-19 -5.20867e-19 -0.00567623)
(-9.93185e-19 -3.86307e-19 -0.00569322)
(-8.45686e-19 -6.71376e-19 -0.00570957)
(-1.3622e-18 7.77876e-20 -0.00572524)
(-5.15306e-19 -5.70412e-19 -0.0056297)
(-1.08491e-18 -3.16958e-19 -0.00564731)
(-8.40446e-19 -6.9498e-19 -0.00566428)
(-1.44941e-18 1.42265e-19 -0.00568058)
(-5.11446e-19 -5.80726e-19 -0.00558119)
(-1.20051e-18 -2.1943e-19 -0.00559938)
(-8.87703e-19 -6.54601e-19 -0.00561694)
(-4.82602e-19 -6.2162e-19 -0.00553078)
(-1.2558e-18 -1.81871e-19 -0.00554951)
(-9.20333e-19 -6.31617e-19 -0.00556762)
(-4.8776e-19 -6.28344e-19 -0.00547852)
(-1.27919e-18 -1.79117e-19 -0.00549777)
(-5.1477e-19 -6.02025e-19 -0.00542449)
(-1.31186e-18 -1.81802e-19 -0.00544421)
(-4.93855e-19 -6.13423e-19 -0.00536876)
(-1.33522e-18 -1.95204e-19 -0.00538891)
(-4.95994e-19 -6.02575e-19 -0.00531138)
(-1.32232e-18 -2.51071e-19 -0.00533193)
(-5.94518e-19 -4.90703e-19 -0.00525243)
(-1.29985e-18 -3.32802e-19 -0.00527334)
(-6.8408e-19 -3.89064e-19 -0.00519198)
(-2.00149e-19 -2.74754e-19 -0.00610946)
(-2.16573e-19 3.21769e-20 -0.00610961)
(-8.65998e-20 -6.58428e-22 -0.00610976)
(-3.31728e-19 -2.21616e-19 -0.00610992)
(-4.05913e-19 -2.47877e-19 -0.00611009)
(-2.06273e-19 -1.04844e-19 -0.00611025)
(-3.57368e-19 1.14528e-19 -0.00611042)
(-1.62002e-19 -2.18366e-20 -0.00611059)
(-2.24007e-19 5.19665e-20 -0.00611076)
(7.89465e-20 1.99395e-19 -0.00611092)
(1.1674e-19 1.33251e-19 -0.00611109)
(-8.11934e-20 -3.98344e-21 -0.00611124)
(1.47309e-20 -2.55492e-19 -0.0061114)
(-3.96558e-19 -1.79669e-19 -0.00611154)
(-5.88132e-19 -1.32949e-19 -0.00611167)
(-7.84489e-19 2.15695e-19 -0.00611178)
(-4.94314e-19 1.21378e-19 -0.00611189)
(-2.37993e-19 2.24457e-19 -0.00611199)
(1.63628e-19 2.17779e-19 -0.00611208)
(9.92473e-20 1.0047e-19 -0.00611216)
(-1.43325e-19 -1.97208e-19 -0.00610914)
(-3.41906e-19 -1.13356e-19 -0.00610928)
(-4.94635e-20 3.59687e-20 -0.00610944)
(-3.92823e-19 -2.24104e-19 -0.0061096)
(-2.42208e-19 -1.62486e-19 -0.00610977)
(-2.26648e-19 -1.45017e-19 -0.00610994)
(-3.05017e-19 1.28583e-19 -0.00611011)
(-1.48147e-19 -1.63585e-20 -0.00611028)
(-4.09221e-19 -6.50086e-20 -0.00611045)
(6.34622e-20 1.52334e-19 -0.00611062)
(1.98788e-19 1.85205e-19 -0.00611078)
(4.94591e-20 6.84743e-20 -0.00611094)
(9.80938e-20 -1.96719e-19 -0.0061111)
(-4.21093e-19 -1.51481e-19 -0.00611124)
(-6.25845e-19 -1.22068e-19 -0.00611137)
(-8.70632e-19 1.8927e-19 -0.00611149)
(-3.79313e-19 1.18684e-19 -0.0061116)
(-3.06622e-19 1.79095e-19 -0.0061117)
(8.21007e-20 1.72038e-19 -0.00611179)
(9.83931e-20 9.35352e-20 -0.00611187)
(-1.03756e-19 -1.17821e-19 -0.00610882)
(-3.63117e-19 -1.7903e-19 -0.00610896)
(7.63907e-20 1.06839e-19 -0.00610911)
(-2.96817e-19 -1.34265e-19 -0.00610928)
(-5.67074e-20 -6.39159e-20 -0.00610945)
(-1.62847e-19 -1.08149e-19 -0.00610962)
(-1.97584e-19 1.82991e-19 -0.0061098)
(-1.65511e-19 1.30623e-20 -0.00610997)
(-5.94693e-19 -1.80272e-19 -0.00611014)
(5.42981e-20 7.71554e-20 -0.00611031)
(2.0855e-19 1.90357e-19 -0.00611048)
(9.34834e-20 1.02176e-19 -0.00611064)
(1.0387e-19 -1.62158e-19 -0.0061108)
(-4.3985e-19 -1.12215e-19 -0.00611094)
(-6.22225e-19 -9.00307e-20 -0.00611107)
(-8.2669e-19 1.84231e-19 -0.00611119)
(-2.91273e-19 1.08789e-19 -0.0061113)
(-2.62511e-19 1.68891e-19 -0.0061114)
(1.5001e-19 1.66754e-19 -0.0061115)
(-2.26589e-20 4.87522e-20 -0.00611158)
(-6.99058e-20 -5.00014e-20 -0.00610851)
(-2.50443e-19 -1.50126e-19 -0.00610864)
(1.67721e-19 1.433e-19 -0.0061088)
(-2.44846e-19 -6.71273e-20 -0.00610896)
(4.76096e-20 -6.68897e-21 -0.00610913)
(-1.21121e-19 -9.15223e-20 -0.0061093)
(-1.8232e-19 1.87573e-19 -0.00610948)
(-1.36214e-19 9.60683e-20 -0.00610966)
(-5.67473e-19 -1.81373e-19 -0.00610983)
(3.5528e-20 -1.44266e-20 -0.00611)
(4.63871e-20 1.18797e-19 -0.00611017)
(7.67555e-20 1.09167e-19 -0.00611033)
(6.17142e-20 -1.42344e-19 -0.00611049)
(-3.96717e-19 -5.96879e-20 -0.00611064)
(-6.34166e-19 -7.73279e-20 -0.00611077)
(-6.81501e-19 2.11747e-19 -0.00611089)
(-1.56493e-19 1.12581e-19 -0.00611101)
(-1.66285e-19 1.64498e-19 -0.00611111)
(2.3254e-19 1.84679e-19 -0.0061112)
(-1.27951e-19 1.35334e-20 -0.00611128)
(2.18727e-20 4.60317e-20 -0.00610821)
(-1.22311e-19 -9.86268e-20 -0.00610834)
(1.21873e-19 9.10024e-20 -0.00610849)
(-2.53754e-19 -4.92232e-20 -0.00610865)
(1.2087e-19 2.6258e-20 -0.00610881)
(-7.46287e-20 -4.52623e-20 -0.00610898)
(-2.44417e-19 1.34909e-19 -0.00610916)
(-1.22446e-19 1.42499e-19 -0.00610934)
(-4.0329e-19 -9.59052e-20 -0.00610951)
(2.56249e-20 -5.16677e-20 -0.00610969)
(-1.25984e-19 3.88138e-20 -0.00610986)
(7.86649e-20 9.61057e-20 -0.00611002)
(8.46989e-21 -1.44335e-19 -0.00611018)
(-4.61549e-19 -4.04366e-20 -0.00611033)
(-5.7242e-19 -4.16921e-20 -0.00611046)
(-6.47031e-19 1.82191e-19 -0.00611059)
(-1.11887e-19 1.02712e-19 -0.0061107)
(-1.30977e-19 1.62889e-19 -0.0061108)
(2.52377e-19 2.09518e-19 -0.0061109)
(-2.05778e-19 -7.42742e-21 -0.00611098)
(6.00748e-20 7.23421e-20 -0.00610794)
(-8.37351e-20 -8.24464e-20 -0.00610806)
(3.81064e-20 2.27668e-20 -0.0061082)
(-1.89982e-19 7.17917e-21 -0.00610835)
(1.09956e-19 -3.00457e-21 -0.00610851)
(-3.86392e-20 -3.33206e-21 -0.00610868)
(-3.60708e-19 6.23538e-20 -0.00610885)
(-1.38302e-19 1.50174e-19 -0.00610902)
(-2.26555e-19 -9.45876e-21 -0.0061092)
(4.11201e-20 -5.45928e-20 -0.00610937)
(-2.52594e-19 -1.4769e-20 -0.00610954)
(5.53196e-20 7.48599e-20 -0.0061097)
(-1.19925e-20 -1.08449e-19 -0.00610986)
(-5.75384e-19 -6.49663e-20 -0.00611001)
(-5.37739e-19 -2.79483e-20 -0.00611015)
(-6.56004e-19 1.73365e-19 -0.00611027)
(-1.02715e-19 7.50629e-20 -0.00611039)
(-2.24643e-19 1.22794e-19 -0.00611049)
(1.5164e-19 2.16428e-19 -0.00611059)
(-1.7265e-19 -8.92854e-21 -0.00611067)
(1.17222e-19 1.24184e-19 -0.00610769)
(-4.1259e-20 -6.40914e-20 -0.0061078)
(5.09965e-20 5.93072e-21 -0.00610793)
(-1.65587e-19 4.25379e-20 -0.00610808)
(1.08285e-19 -1.39981e-20 -0.00610823)
(-7.88837e-20 2.82294e-21 -0.00610839)
(-5.79009e-19 -7.43457e-20 -0.00610855)
(-1.11828e-19 1.41385e-19 -0.00610872)
(-1.45873e-19 2.90604e-20 -0.00610889)
(9.71545e-20 4.59406e-21 -0.00610906)
(-3.61748e-19 -4.82891e-20 -0.00610922)
(-6.43331e-21 1.68385e-20 -0.00610939)
(3.06588e-21 -7.07447e-20 -0.00610954)
(-5.33546e-19 -2.4153e-20 -0.00610969)
(-4.87152e-19 -1.51199e-20 -0.00610983)
(-5.58928e-19 1.68181e-19 -0.00610996)
(3.34212e-20 1.04293e-19 -0.00611007)
(-2.90106e-19 1.19228e-19 -0.00611018)
(1.9337e-19 2.26253e-19 -0.00611027)
(-9.6883e-20 -1.41895e-20 -0.00611035)
(1.35335e-19 1.51447e-19 -0.00610743)
(5.47376e-20 1.28421e-20 -0.00610755)
(3.09203e-20 -2.05072e-20 -0.00610768)
(-7.85621e-20 1.28587e-19 -0.00610782)
(8.26885e-20 -4.34885e-20 -0.00610796)
(-2.48016e-19 -4.82e-20 -0.00610812)
(-6.55202e-19 -1.33282e-19 -0.00610827)
(-7.48043e-20 1.1636e-19 -0.00610843)
(-2.36545e-19 -3.06974e-20 -0.0061086)
(1.4548e-19 5.89145e-20 -0.00610876)
(-3.63907e-19 -6.30095e-21 -0.00610892)
(9.97146e-20 3.13619e-20 -0.00610908)
(-1.18017e-19 -9.75281e-20 -0.00610923)
(-3.83574e-19 2.62863e-20 -0.00610938)
(-3.11381e-19 3.21277e-20 -0.00610952)
(-4.6171e-19 1.74426e-19 -0.00610964)
(1.36459e-19 1.27769e-19 -0.00610976)
(-2.36618e-19 1.31897e-19 -0.00610986)
(2.81604e-19 2.48141e-19 -0.00610995)
(-1.3587e-19 -1.34445e-20 -0.00611003)
(1.44789e-19 2.88347e-19 -0.00611008)
(2.6848e-21 1.62636e-19 -0.00611014)
(1.55193e-19 -3.3414e-20 -0.00611018)
(-3.31081e-20 6.98656e-20 -0.00611021)
(3.94179e-19 -1.71231e-19 -0.00611022)
(2.3203e-19 -4.89891e-19 -0.00611022)
(-1.33401e-19 4.67484e-20 -0.0061102)
(-9.72636e-20 -1.12663e-19 -0.00611018)
(-9.28221e-20 -2.38965e-19 -0.00611013)
(-1.91187e-22 -2.59425e-19 -0.00611008)
(-2.59239e-19 -1.76506e-19 -0.00611001)
(2.45512e-20 -2.39447e-19 -0.00610993)
(-4.9346e-19 -4.11939e-19 -0.00610984)
(-3.73708e-19 -1.68355e-19 -0.00610973)
(-4.42514e-19 -3.62762e-20 -0.00610962)
(7.99556e-20 1.14394e-19 -0.00610713)
(1.67304e-19 9.86847e-20 -0.00610728)
(3.36789e-20 -5.48514e-20 -0.00610742)
(1.3101e-20 2.24983e-19 -0.00610757)
(-3.85222e-22 -6.72949e-20 -0.00610771)
(-4.62113e-19 -1.44665e-19 -0.00610786)
(-4.85673e-19 -6.9987e-20 -0.00610802)
(-3.34163e-20 1.20539e-19 -0.00610817)
(-2.63518e-19 -5.56808e-20 -0.00610833)
(9.7435e-20 4.89531e-20 -0.00610849)
(-3.91688e-19 5.39965e-21 -0.00610864)
(2.45164e-19 8.89446e-20 -0.00610879)
(-2.71901e-19 -1.36172e-19 -0.00610894)
(-1.91416e-19 5.58078e-20 -0.00610908)
(-1.87344e-19 7.31616e-20 -0.00610921)
(-2.97062e-19 2.03553e-19 -0.00610934)
(1.35899e-19 1.30462e-19 -0.00610945)
(-2.2262e-19 1.52509e-19 -0.00610955)
(3.14025e-19 2.73356e-19 -0.00610964)
(-2.13608e-19 -1.88977e-20 -0.00610971)
(1.22882e-19 2.59343e-19 -0.00610977)
(1.6869e-19 1.81282e-19 -0.00610982)
(1.96529e-19 -1.32251e-20 -0.00610986)
(1.09107e-19 7.95039e-20 -0.00610988)
(4.45523e-19 -1.69814e-19 -0.0061099)
(1.40394e-19 -4.3937e-19 -0.0061099)
(-2.71421e-19 6.10764e-20 -0.00610988)
(4.9462e-20 -1.42754e-19 -0.00610985)
(-1.50883e-19 -2.39481e-19 -0.00610981)
(-8.98519e-20 -2.30959e-19 -0.00610976)
(-3.76978e-19 -1.636e-19 -0.00610969)
(1.54336e-19 -2.6691e-19 -0.00610961)
(-3.98815e-19 -4.13029e-19 -0.00610952)
(-3.73988e-19 -1.70725e-19 -0.00610942)
(-3.61749e-19 -4.07347e-20 -0.00610931)
(-3.42353e-19 -9.55258e-20 -0.00610918)
(-1.75252e-19 -3.234e-19 -0.00610906)
(6.13637e-20 1.22636e-19 -0.00610672)
(2.38635e-19 1.48934e-19 -0.00610693)
(3.84032e-20 -8.03784e-20 -0.00610712)
(-2.00321e-20 2.56081e-19 -0.00610729)
(-5.40479e-20 -5.68728e-20 -0.00610745)
(-4.66359e-19 -1.31306e-19 -0.00610761)
(-1.60973e-19 6.94813e-20 -0.00610777)
(6.73976e-21 1.40482e-19 -0.00610792)
(-1.78577e-19 -1.26375e-20 -0.00610808)
(-3.91763e-20 7.15479e-21 -0.00610823)
(-3.93504e-19 2.3097e-20 -0.00610838)
(1.69806e-19 5.67453e-20 -0.00610853)
(-3.28278e-19 -1.48116e-19 -0.00610867)
(-7.12848e-20 4.13579e-20 -0.00610881)
(-1.47362e-19 7.92254e-20 -0.00610893)
(-1.97043e-19 2.36164e-19 -0.00610905)
(6.96311e-20 1.34217e-19 -0.00610916)
(-2.22626e-19 1.53645e-19 -0.00610926)
(3.86496e-19 3.09309e-19 -0.00610934)
(-2.27997e-19 -1.09839e-20 -0.00610941)
(1.72526e-19 2.27796e-19 -0.00610946)
(2.36144e-19 1.93094e-19 -0.00610951)
(2.46799e-19 8.12041e-21 -0.00610955)
(1.53451e-19 1.06361e-19 -0.00610958)
(3.85048e-19 -1.44484e-19 -0.00610959)
(-3.31299e-20 -4.00118e-19 -0.00610959)
(-3.00676e-19 4.91692e-20 -0.00610957)
(1.48693e-19 -1.74204e-19 -0.00610955)
(-2.02251e-19 -2.18322e-19 -0.0061095)
(-1.59332e-19 -2.05854e-19 -0.00610945)
(-3.89162e-19 -1.90671e-19 -0.00610939)
(2.40599e-19 -2.93416e-19 -0.00610931)
(-2.73228e-19 -4.16265e-19 -0.00610922)
(-4.33242e-19 -1.57741e-19 -0.00610912)
(-2.41547e-19 -7.01809e-20 -0.00610901)
(-2.22385e-19 -1.39842e-19 -0.0061089)
(-1.26304e-19 -3.36609e-19 -0.00610877)
(-3.02208e-19 -3.29958e-19 -0.00610864)
(1.55933e-20 1.30975e-19 -0.00610605)
(2.59786e-19 1.67135e-19 -0.0061064)
(-1.01662e-20 -1.66597e-19 -0.00610668)
(-1.08424e-19 2.60291e-19 -0.00610692)
(4.21938e-20 4.24012e-20 -0.00610713)
(-2.22999e-19 5.48795e-21 -0.00610731)
(1.09726e-19 1.93444e-19 -0.00610749)
(2.42029e-20 1.79294e-19 -0.00610766)
(1.07994e-20 1.01713e-19 -0.00610782)
(-1.69767e-19 -3.67434e-20 -0.00610798)
(-3.52665e-19 5.86034e-20 -0.00610813)
(6.64119e-20 1.94555e-20 -0.00610828)
(-3.0373e-19 -1.54141e-19 -0.00610842)
(-1.39932e-20 7.68813e-21 -0.00610855)
(-2.58504e-19 4.55831e-20 -0.00610867)
(-2.85482e-19 2.19125e-19 -0.00610879)
(4.52914e-20 1.43934e-19 -0.00610889)
(-2.42604e-19 1.48214e-19 -0.00610899)
(3.11571e-19 3.17725e-19 -0.00610907)
(-1.48459e-19 5.23478e-21 -0.00610913)
(2.05373e-19 1.97389e-19 -0.00610918)
(2.24812e-19 1.94698e-19 -0.00610923)
(3.10099e-19 3.36836e-20 -0.00610926)
(1.51092e-19 1.40252e-19 -0.00610929)
(3.9916e-19 -1.05719e-19 -0.0061093)
(-8.9912e-20 -3.68408e-19 -0.0061093)
(-3.00147e-19 1.4039e-20 -0.00610929)
(2.28083e-19 -1.97047e-19 -0.00610926)
(-2.3125e-19 -1.96726e-19 -0.00610922)
(-2.09729e-20 -2.16203e-19 -0.00610917)
(-3.53575e-19 -2.22316e-19 -0.00610911)
(1.35724e-19 -2.96685e-19 -0.00610903)
(-1.72647e-19 -4.11195e-19 -0.00610895)
(-4.90297e-19 -1.49312e-19 -0.00610885)
(-1.03356e-19 -1.16853e-19 -0.00610875)
(-1.1485e-19 -1.59328e-19 -0.00610863)
(-1.3412e-19 -3.37537e-19 -0.00610851)
(-1.99946e-19 -3.71915e-19 -0.00610838)
(-2.44276e-19 -2.066e-19 -0.00610824)
(-1.92139e-19 -5.48607e-20 -0.0061081)
(-2.44018e-20 1.12281e-19 -0.00610483)
(4.01079e-19 2.9784e-19 -0.00610546)
(-2.0581e-20 -2.0079e-19 -0.00610595)
(-2.24249e-19 2.22813e-19 -0.00610633)
(2.71194e-19 1.90782e-19 -0.00610665)
(-6.45899e-20 1.09289e-19 -0.00610691)
(2.07192e-19 2.38945e-19 -0.00610714)
(-9.16046e-20 1.23813e-19 -0.00610734)
(1.85718e-19 2.20335e-19 -0.00610753)
(-1.68107e-19 2.72825e-21 -0.00610771)
(-2.64536e-19 1.06105e-19 -0.00610787)
(3.54747e-20 1.18759e-21 -0.00610802)
(-2.26107e-19 -1.43517e-19 -0.00610817)
(-1.26246e-19 -6.37611e-20 -0.0061083)
(-3.07425e-19 4.81174e-20 -0.00610842)
(-3.94228e-19 1.88678e-19 -0.00610854)
(6.03931e-20 1.49473e-19 -0.00610864)
(-2.53291e-19 1.55828e-19 -0.00610873)
(1.88412e-19 3.05062e-19 -0.00610881)
(-7.97252e-20 9.0118e-22 -0.00610888)
(1.02053e-19 1.66578e-19 -0.00610893)
(2.0924e-19 1.9582e-19 -0.00610897)
(3.47701e-19 5.00801e-20 -0.006109)
(1.58799e-19 1.83262e-19 -0.00610903)
(3.95306e-19 -7.49896e-20 -0.00610904)
(-7.13411e-20 -3.50191e-19 -0.00610904)
(-2.72815e-19 -1.6106e-20 -0.00610902)
(2.73932e-19 -2.19273e-19 -0.006109)
(-2.49642e-19 -1.92626e-19 -0.00610896)
(1.24385e-19 -2.32501e-19 -0.00610891)
(-3.04602e-19 -2.18077e-19 -0.00610885)
(8.29072e-21 -2.92023e-19 -0.00610877)
(-2.06606e-19 -4.02847e-19 -0.00610869)
(-4.50774e-19 -1.70569e-19 -0.0061086)
(-1.49113e-19 -1.18455e-19 -0.00610849)
(2.18542e-20 -1.78841e-19 -0.00610838)
(-1.21972e-19 -3.4794e-19 -0.00610825)
(-2.34791e-19 -3.73291e-19 -0.00610812)
(-2.90659e-19 -1.58888e-19 -0.00610797)
(-8.60094e-20 -5.02245e-20 -0.00610782)
(-1.58815e-19 -6.0236e-19 -0.00610767)
(-5.64891e-19 -4.82787e-19 -0.0061075)
(-7.18424e-20 5.48364e-20 -0.00610253)
(4.81143e-19 3.70932e-19 -0.0061037)
(8.4779e-20 -1.24886e-19 -0.00610459)
(-2.86409e-19 2.17714e-19 -0.00610528)
(3.7415e-19 2.69274e-19 -0.00610582)
(-1.18321e-19 1.00363e-19 -0.00610624)
(2.6518e-19 2.99337e-19 -0.00610659)
(-3.42791e-19 3.03941e-21 -0.00610688)
(2.21845e-19 2.30814e-19 -0.00610713)
(-1.54328e-19 3.07765e-20 -0.00610735)
(-6.21076e-20 2.0555e-19 -0.00610755)
(-9.453e-21 -2.60793e-20 -0.00610772)
(-2.06795e-19 -1.3677e-19 -0.00610788)
(-3.17819e-19 -1.63946e-19 -0.00610803)
(-2.68553e-19 6.88294e-20 -0.00610816)
(-3.08087e-19 2.23324e-19 -0.00610828)
(7.11575e-20 1.41673e-19 -0.00610839)
(-2.32093e-19 1.77321e-19 -0.00610848)
(1.16224e-19 3.09574e-19 -0.00610856)
(-8.22358e-20 -9.87071e-21 -0.00610863)
(-2.74985e-20 1.33398e-19 -0.00610868)
(2.06679e-19 1.82184e-19 -0.00610872)
(3.30181e-19 5.99251e-20 -0.00610875)
(1.53734e-19 2.31584e-19 -0.00610878)
(4.16349e-19 -4.80672e-20 -0.00610879)
(-6.6604e-20 -3.48275e-19 -0.00610879)
(-2.44527e-19 -4.64002e-20 -0.00610877)
(2.77826e-19 -2.31531e-19 -0.00610875)
(-2.75062e-19 -1.9266e-19 -0.00610871)
(1.7587e-19 -2.43305e-19 -0.00610866)
(-2.25182e-19 -2.13226e-19 -0.0061086)
(3.64348e-20 -3.10112e-19 -0.00610852)
(-2.7314e-19 -4.02341e-19 -0.00610844)
(-3.57458e-19 -1.99509e-19 -0.00610834)
(-2.90462e-19 -9.47487e-20 -0.00610824)
(7.97963e-20 -1.86994e-19 -0.00610811)
(-9.03783e-20 -3.47297e-19 -0.00610798)
(-3.16076e-19 -3.5325e-19 -0.00610783)
(-3.98388e-19 -1.09867e-19 -0.00610767)
(6.05881e-20 -6.11166e-20 -0.00610749)
(-3.05399e-20 -6.72115e-19 -0.0061073)
(-5.54984e-19 -5.28628e-19 -0.00610708)
(1.76491e-20 -8.89519e-19 -0.00610684)
(-6.74343e-19 -7.29912e-19 -0.00610655)
(-5.07907e-19 -8.74949e-19 -0.0061062)
(-1.38249e-19 2.59959e-20 -0.00609851)
(4.59134e-19 3.48054e-19 -0.00610049)
(1.63885e-19 -3.6083e-20 -0.00610205)
(-3.04558e-19 2.73601e-19 -0.00610329)
(3.03112e-19 2.3768e-19 -0.00610425)
(-1.88839e-19 1.11706e-19 -0.00610501)
(2.72599e-19 3.90982e-19 -0.00610561)
(-4.04762e-19 2.04125e-21 -0.00610609)
(2.36273e-19 2.25581e-19 -0.00610648)
(-2.35667e-19 -1.61106e-20 -0.0061068)
(1.37689e-19 2.8075e-19 -0.00610707)
(-9.66189e-20 -5.89645e-20 -0.0061073)
(-2.50196e-19 -1.41464e-19 -0.00610751)
(-4.42066e-19 -2.4831e-19 -0.00610768)
(-2.6095e-19 5.38265e-20 -0.00610784)
(-1.26873e-19 2.92282e-19 -0.00610798)
(4.03615e-20 1.33914e-19 -0.0061081)
(-2.41685e-19 1.90082e-19 -0.0061082)
(7.00591e-20 3.29728e-19 -0.00610829)
(-2.46868e-21 -1.47473e-20 -0.00610836)
(-7.96232e-20 1.0799e-19 -0.00610841)
(2.27465e-19 1.74533e-19 -0.00610846)
(2.03294e-19 5.62805e-20 -0.00610849)
(1.78201e-19 2.78699e-19 -0.00610852)
(4.69382e-19 -2.93781e-20 -0.00610853)
(-4.84208e-20 -3.55744e-19 -0.00610853)
(-1.93928e-19 -7.00038e-20 -0.00610851)
(2.41932e-19 -2.43944e-19 -0.00610849)
(-2.34322e-19 -2.06181e-19 -0.00610845)
(1.79263e-19 -2.58906e-19 -0.00610839)
(-1.42527e-19 -2.13311e-19 -0.00610833)
(9.17061e-20 -3.2377e-19 -0.00610825)
(-3.22857e-19 -4.10331e-19 -0.00610816)
(-2.93131e-19 -2.15326e-19 -0.00610805)
(-3.2989e-19 -9.10013e-20 -0.00610793)
(1.2549e-20 -1.69004e-19 -0.00610779)
(-4.82494e-20 -3.62762e-19 -0.00610763)
(-4.05055e-19 -3.31803e-19 -0.00610745)
(-4.57008e-19 -7.43705e-20 -0.00610724)
(9.84494e-20 -1.92081e-20 -0.006107)
(2.08049e-19 -7.81731e-19 -0.00610673)
(-4.97795e-19 -5.91134e-19 -0.0061064)
(1.79148e-19 -1.00611e-18 -0.00610601)
(-6.26899e-19 -7.70209e-19 -0.00610554)
(-3.68195e-19 -9.50369e-19 -0.00610494)
(-1.17077e-18 -3.07335e-19 -0.00610419)
(-3.80348e-19 -8.12113e-19 -0.00610322)
(-2.47095e-19 5.45326e-20 -0.00609215)
(3.07595e-19 3.66913e-19 -0.00609515)
(1.63184e-19 1.02864e-21 -0.00609765)
(-2.73991e-19 3.96751e-19 -0.00609969)
(1.94319e-19 2.35689e-19 -0.00610135)
(-3.8804e-19 7.49204e-20 -0.00610268)
(2.92336e-19 5.37941e-19 -0.00610374)
(-2.72437e-19 1.45507e-19 -0.00610459)
(2.26683e-19 2.13837e-19 -0.00610526)
(-3.0532e-19 -9.04473e-20 -0.0061058)
(2.13178e-19 2.75478e-19 -0.00610624)
(-2.21492e-19 -1.08996e-19 -0.0061066)
(-2.05966e-19 -1.05337e-19 -0.0061069)
(-4.19397e-19 -2.929e-19 -0.00610715)
(-2.62223e-19 1.24098e-20 -0.00610736)
(-4.01975e-20 3.45935e-19 -0.00610754)
(4.8391e-20 1.45164e-19 -0.0061077)
(-3.23617e-19 1.83281e-19 -0.00610783)
(5.29386e-20 3.48237e-19 -0.00610793)
(1.75618e-19 -1.03282e-20 -0.00610802)
(-1.57331e-19 7.87806e-20 -0.00610808)
(2.75035e-19 1.78228e-19 -0.00610814)
(6.2034e-20 4.57328e-20 -0.00610818)
(1.4008e-19 3.09711e-19 -0.0061082)
(5.37702e-19 -9.58167e-21 -0.00610822)
(-2.93343e-20 -3.77501e-19 -0.00610822)
(-1.2226e-19 -9.38308e-20 -0.0061082)
(1.98211e-19 -2.58605e-19 -0.00610817)
(-2.02201e-19 -2.22618e-19 -0.00610812)
(7.63962e-20 -2.61484e-19 -0.00610806)
(-1.22507e-19 -2.08748e-19 -0.00610799)
(5.46934e-20 -3.15103e-19 -0.00610789)
(-3.56854e-19 -4.23234e-19 -0.00610778)
(-2.6597e-19 -2.27261e-19 -0.00610765)
(-2.91389e-19 -1.03163e-19 -0.00610749)
(-5.89179e-20 -1.60154e-19 -0.00610731)
(-4.52058e-20 -3.70127e-19 -0.00610709)
(-5.68945e-19 -2.77869e-19 -0.00610683)
(-5.05092e-19 -4.85599e-20 -0.00610652)
(6.60889e-20 4.89734e-20 -0.00610616)
(3.77878e-19 -8.57787e-19 -0.00610571)
(-4.03192e-19 -6.45439e-19 -0.00610516)
(2.43302e-19 -1.05198e-18 -0.00610448)
(-5.95574e-19 -7.62752e-19 -0.00610364)
(-1.78488e-19 -1.02332e-18 -0.00610258)
(-8.20246e-19 -6.01156e-19 -0.00610126)
(-3.56429e-19 -9.70072e-19 -0.0060996)
(-1.2943e-18 -5.3311e-19 -0.00609756)
(-7.77363e-19 -1.96755e-19 -0.00609506)
(-8.90538e-19 -3.83089e-19 -0.00609206)
(-3.98635e-19 5.89252e-20 -0.00608305)
(2.01406e-19 4.56322e-19 -0.0060872)
(1.71123e-19 5.78335e-20 -0.00609078)
(-2.95206e-19 4.58847e-19 -0.00609384)
(1.87462e-19 2.84728e-19 -0.00609642)
(-4.48768e-19 1.06837e-19 -0.00609857)
(3.02089e-19 7.02828e-19 -0.00610034)
(-1.04765e-19 3.71607e-19 -0.00610178)
(2.85171e-19 2.78091e-19 -0.00610295)
(-3.17023e-19 -1.71036e-19 -0.00610389)
(1.43365e-19 1.5722e-19 -0.00610465)
(-3.1715e-19 -1.7764e-19 -0.00610527)
(-2.54988e-20 -4.52269e-20 -0.00610577)
(-2.29495e-19 -2.77602e-19 -0.00610618)
(-2.88925e-19 -4.75098e-20 -0.00610652)
(-7.78694e-20 3.63257e-19 -0.0061068)
(9.46815e-20 1.92835e-19 -0.00610703)
(-4.48059e-19 1.68654e-19 -0.00610722)
(9.05605e-20 3.58447e-19 -0.00610737)
(2.87418e-19 -2.05888e-20 -0.00610749)
(-2.39376e-19 4.07811e-20 -0.00610758)
(1.9372e-19 1.6108e-19 -0.00610766)
(2.07959e-20 5.1397e-20 -0.00610771)
(4.81301e-20 3.3071e-19 -0.00610775)
(6.13052e-19 -9.33787e-21 -0.00610777)
(-5.99577e-20 -4.09032e-19 -0.00610776)
(-1.29695e-19 -1.14491e-19 -0.00610774)
(1.55641e-19 -2.73606e-19 -0.0061077)
(-2.30664e-19 -2.24106e-19 -0.00610764)
(-8.18808e-20 -2.72994e-19 -0.00610756)
(-1.80557e-19 -2.00946e-19 -0.00610746)
(-1.83136e-20 -2.97574e-19 -0.00610733)
(-3.6556e-19 -4.5734e-19 -0.00610717)
(-2.87473e-19 -2.20282e-19 -0.00610698)
(-2.37501e-19 -1.19093e-19 -0.00610674)
(-7.05557e-20 -1.83156e-19 -0.00610646)
(-9.22503e-20 -3.75167e-19 -0.00610612)
(-5.87693e-19 -2.81672e-19 -0.0061057)
(-4.75414e-19 -4.3387e-20 -0.00610518)
(4.828e-20 1.25095e-19 -0.00610456)
(4.0523e-19 -8.45018e-19 -0.00610378)
(-4.89227e-19 -5.95086e-19 -0.00610282)
(2.10381e-19 -1.05343e-18 -0.00610165)
(-6.10328e-19 -7.10103e-19 -0.0061002)
(1.14125e-20 -1.10621e-18 -0.00609844)
(-5.43552e-19 -8.51286e-19 -0.0060963)
(-5.19955e-19 -9.37353e-19 -0.00609373)
(-1.18233e-18 -5.58235e-19 -0.00609067)
(-3.99226e-19 -5.05032e-19 -0.00608709)
(-9.08854e-19 -5.11242e-19 -0.00608295)
(-5.5296e-19 3.95975e-20 -0.00607108)
(1.05085e-19 5.47749e-19 -0.00607639)
(5.64695e-20 2.72904e-20 -0.00608111)
(-3.61232e-19 4.88335e-19 -0.00608528)
(2.95631e-19 3.99805e-19 -0.00608891)
(-3.841e-19 1.73295e-19 -0.00609203)
(2.54593e-19 8.03363e-19 -0.0060947)
(-2.36251e-21 5.39124e-19 -0.00609696)
(4.43601e-19 3.80131e-19 -0.00609884)
(-1.0339e-19 -1.20945e-19 -0.00610041)
(-5.85526e-21 -2.4215e-20 -0.0061017)
(-2.90632e-19 -2.51947e-19 -0.00610276)
(1.77197e-19 -1.19901e-20 -0.00610363)
(-9.47553e-20 -2.82276e-19 -0.00610434)
(-3.37406e-19 -1.09145e-19 -0.00610492)
(-3.49662e-19 3.24781e-19 -0.00610539)
(7.17294e-20 2.4582e-19 -0.00610578)
(-4.20393e-19 1.79361e-19 -0.00610609)
(1.35408e-19 3.54496e-19 -0.00610634)
(2.75199e-19 -5.37867e-20 -0.00610654)
(-2.71086e-19 5.85267e-21 -0.00610669)
(1.45883e-20 1.12165e-19 -0.00610681)
(1.16819e-20 3.10503e-20 -0.0061069)
(9.218e-20 3.46394e-19 -0.00610695)
(6.60217e-19 -3.5156e-21 -0.00610698)
(-1.71635e-19 -4.43424e-19 -0.00610698)
(-1.59395e-19 -1.59273e-19 -0.00610695)
(6.51653e-20 -2.96697e-19 -0.00610689)
(-2.70612e-19 -2.20159e-19 -0.0061068)
(-1.29991e-19 -3.09902e-19 -0.00610667)
(-3.17342e-19 -2.00535e-19 -0.00610651)
(1.05423e-20 -3.11363e-19 -0.0061063)
(-3.988e-19 -4.82788e-19 -0.00610604)
(-3.23058e-19 -2.05464e-19 -0.00610572)
(-8.38083e-20 -1.76802e-19 -0.00610533)
(-4.39327e-20 -2.41224e-19 -0.00610485)
(-5.73587e-20 -4.32022e-19 -0.00610426)
(-5.04784e-19 -3.22335e-19 -0.00610354)
(-3.41676e-19 -6.44949e-20 -0.00610266)
(1.29327e-19 1.78052e-19 -0.00610158)
(5.62036e-19 -8.72694e-19 -0.00610028)
(-4.49649e-19 -6.22116e-19 -0.0060987)
(9.42017e-20 -1.04981e-18 -0.0060968)
(-7.13118e-19 -6.51803e-19 -0.00609455)
(6.2992e-20 -1.15499e-18 -0.00609188)
(-4.37426e-19 -9.38144e-19 -0.00608877)
(-7.30504e-19 -8.11866e-19 -0.00608515)
(-1.13396e-18 -5.55739e-19 -0.00608099)
(-8.54367e-20 -7.50373e-19 -0.00607628)
(-8.4854e-19 -6.57851e-19 -0.00607098)
(-7.03003e-19 -9.86528e-22 -0.00605624)
(-6.25524e-20 5.65076e-19 -0.00606269)
(-1.33409e-20 3.06475e-20 -0.00606854)
(-4.54054e-19 4.54698e-19 -0.00607381)
(3.88021e-19 5.00929e-19 -0.00607852)
(-4.94719e-19 1.30885e-19 -0.00608269)
(2.25158e-19 9.12347e-19 -0.00608635)
(2.52914e-20 6.70409e-19 -0.00608954)
(4.16817e-19 3.57522e-19 -0.00609229)
(-8.07398e-20 -1.02488e-19 -0.00609465)
(-1.03073e-19 -6.32421e-20 -0.00609665)
(-2.3415e-19 -2.69275e-19 -0.00609834)
(3.69559e-19 3.78936e-20 -0.00609975)
(5.63121e-20 -2.52876e-19 -0.00610093)
(-4.65084e-19 -1.5839e-19 -0.00610191)
(-6.40075e-19 2.88525e-19 -0.00610272)
(6.32849e-20 2.97206e-19 -0.00610338)
(-2.60084e-19 2.12101e-19 -0.00610393)
(1.37291e-19 3.40974e-19 -0.00610436)
(2.56797e-19 -1.01543e-19 -0.00610471)
(-2.41481e-19 -5.12699e-20 -0.00610498)
(-8.77285e-20 4.32018e-20 -0.00610519)
(-9.05747e-21 -2.06435e-20 -0.00610534)
(5.53448e-20 3.40175e-19 -0.00610543)
(6.52953e-19 6.95641e-21 -0.00610548)
(-1.18932e-19 -5.00964e-19 -0.00610548)
(-1.36068e-19 -2.26861e-19 -0.00610543)
(-8.39269e-20 -3.17105e-19 -0.00610533)
(-2.84006e-19 -2.32041e-19 -0.00610517)
(-1.18784e-19 -3.88237e-19 -0.00610496)
(-3.90749e-19 -2.31026e-19 -0.00610468)
(3.64841e-20 -3.326e-19 -0.00610432)
(-4.07539e-19 -5.23177e-19 -0.00610387)
(-3.3894e-19 -2.02512e-19 -0.00610333)
(8.70169e-20 -2.39636e-19 -0.00610266)
(-3.73063e-20 -3.06446e-19 -0.00610184)
(2.28186e-21 -5.16717e-19 -0.00610085)
(-4.17919e-19 -3.72862e-19 -0.00609966)
(-1.69807e-19 -1.6216e-19 -0.00609823)
(1.72735e-19 1.34599e-19 -0.00609652)
(6.30686e-19 -9.52322e-19 -0.0060945)
(-3.43949e-19 -6.89272e-19 -0.00609213)
(-2.94242e-20 -1.02614e-18 -0.00608937)
(-8.83273e-19 -5.69767e-19 -0.00608618)
(-7.39287e-20 -1.09249e-18 -0.00608253)
(-5.7249e-19 -8.24925e-19 -0.00607837)
(-8.12247e-19 -7.49512e-19 -0.00607367)
(-1.18949e-18 -4.88537e-19 -0.00606841)
(8.02004e-20 -8.74529e-19 -0.00606257)
(-7.88861e-19 -7.59635e-19 -0.00605613)
(-8.46321e-19 -4.04065e-20 -0.00603858)
(-1.80455e-19 5.59339e-19 -0.00604612)
(-5.36537e-20 3.68663e-20 -0.00605306)
(-5.59714e-19 4.11902e-19 -0.00605941)
(3.19076e-19 5.05482e-19 -0.00606518)
(-6.80488e-19 3.6792e-20 -0.00607039)
(9.26538e-20 9.40654e-19 -0.00607506)
(3.47034e-20 8.35611e-19 -0.00607922)
(2.61563e-19 2.95745e-19 -0.0060829)
(-2.17314e-19 -1.36731e-19 -0.00608613)
(-1.53693e-19 -1.01398e-20 -0.00608894)
(-3.44307e-19 -2.92728e-19 -0.00609138)
(3.77788e-19 8.98047e-20 -0.00609347)
(1.29121e-19 -1.94752e-19 -0.00609526)
(-4.63081e-19 -1.62678e-19 -0.00609678)
(-6.54642e-19 2.86817e-19 -0.00609806)
(1.63827e-19 3.31622e-19 -0.00609912)
(-2.16478e-19 1.964e-19 -0.00610001)
(8.26474e-20 3.10297e-19 -0.00610074)
(3.27507e-19 -1.36121e-19 -0.00610132)
(-2.99536e-19 -1.29782e-19 -0.00610179)
(-7.95739e-20 -4.68954e-20 -0.00610214)
(-3.29162e-20 -1.02118e-19 -0.0061024)
(-1.08674e-19 2.99027e-19 -0.00610256)
(6.30385e-19 -1.69501e-20 -0.00610264)
(1.24467e-19 -5.78037e-19 -0.00610264)
(-1.43116e-19 -3.09626e-19 -0.00610256)
(-1.72949e-19 -3.59983e-19 -0.00610239)
(-2.51476e-19 -2.56832e-19 -0.00610212)
(-9.22133e-20 -4.89323e-19 -0.00610176)
(-3.99868e-19 -2.95201e-19 -0.00610129)
(8.58506e-20 -3.87085e-19 -0.00610069)
(-4.57345e-19 -5.55542e-19 -0.00609996)
(-4.87839e-19 -1.59789e-19 -0.00609906)
(1.06437e-19 -2.6932e-19 -0.00609799)
(-3.41957e-20 -3.74184e-19 -0.0060967)
(4.60138e-21 -5.93874e-19 -0.00609517)