/*--------------------------------*- C++ -*----------------------------------*\
  =========                 |
  \\      /  F ield         | OpenFOAM: The Open Source CFD Toolbox
   \\    /   O peration     | Website:  https://openfoam.org
    \\  /    A nd           | Version:  7
     \\/     M anipulation  |
\*---------------------------------------------------------------------------*/
FoamFile
{
    version     2.0;
    format      ascii;
    class       surfaceScalarField;
    location    "20000";
    object      phi;
}
// * * * * * * * * * * * * * * * * * * * * * * * * * * * * * * * * * * * * * //

dimensions      [0 3 -1 0 0 0 0];

internalField   nonuniform List<scalar> 
3458
(
9.12518e-23
6.2602e-22
-9.81349e-23
3.9752e-23
6.26903e-22
2.64333e-23
8.82206e-22
2.84959e-23
1.05959e-21
-1.81919e-23
3.7406e-22
-5.3504e-25
3.68309e-22
9.51433e-24
1.54706e-22
-1.75685e-24
4.07338e-22
-1.99635e-23
7.46336e-23
3.50898e-22
9.62008e-23
6.76503e-22
-1.00492e-22
3.32943e-23
5.76422e-22
3.0426e-23
9.38134e-22
1.90182e-23
8.32042e-22
-2.02903e-23
4.14529e-22
-2.44493e-24
3.68203e-22
8.53735e-24
7.67349e-23
9.72633e-25
3.25628e-22
-2.38633e-23
-4.48411e-23
3.48096e-22
9.64197e-23
7.0985e-22
-1.04852e-22
3.35368e-23
4.81182e-22
3.13563e-23
9.82394e-22
1.12609e-23
6.36995e-22
-2.1787e-23
3.57323e-22
-4.45317e-24
3.633e-22
8.54845e-24
2.56598e-22
-1.06532e-24
3.15433e-22
-2.40955e-23
-1.09109e-22
5.06993e-22
9.86699e-23
7.34636e-22
-1.08502e-22
3.29881e-23
3.9738e-22
2.83392e-23
1.02784e-21
1.08813e-23
4.07868e-22
-2.69966e-23
4.40757e-22
-3.22014e-24
3.53592e-22
4.97999e-24
1.79247e-22
3.13389e-25
4.84726e-22
-2.09477e-23
-1.2485e-23
6.18616e-22
9.93404e-23
4.42532e-22
-1.09845e-22
3.17524e-23
2.16527e-22
2.49773e-23
7.91623e-22
1.01025e-23
4.7429e-22
-3.15407e-23
1.99642e-22
-2.37283e-24
5.8068e-22
3.55609e-24
1.1829e-22
-2.3618e-25
3.71096e-22
-1.71344e-23
5.37973e-23
6.12609e-22
1.01177e-22
4.79312e-22
-1.04618e-22
2.9111e-23
6.67729e-23
2.58391e-23
9.09692e-22
1.08687e-23
3.52189e-22
-3.23941e-23
6.05731e-23
-3.64413e-24
5.7048e-22
4.11311e-24
1.28309e-22
-1.77443e-24
2.58557e-22
-1.45296e-23
4.28477e-23
3.54333e-22
9.97683e-23
3.2974e-22
-1.00846e-22
3.2152e-23
2.89442e-22
2.18784e-23
1.07134e-21
8.07015e-24
4.76707e-22
-3.17822e-23
-2.27716e-22
-3.44597e-24
7.23952e-22
8.56146e-25
-4.19669e-24
-3.0949e-24
1.58434e-22
-1.45386e-23
-2.87519e-23
4.54493e-22
1.05452e-22
4.35093e-22
-9.54207e-23
3.27821e-23
2.62621e-22
1.85814e-23
9.39129e-22
2.89749e-24
4.64235e-22
-2.89105e-23
-1.0469e-22
-6.91512e-24
6.40923e-22
1.37641e-24
1.23297e-22
-2.36225e-24
1.84866e-22
-1.43765e-23
-2.30692e-23
4.70683e-22
1.1051e-22
5.81459e-22
-9.03226e-23
3.20814e-23
2.9306e-22
1.36074e-23
9.05858e-22
1.30464e-24
5.15016e-22
-2.65475e-23
-6.15793e-23
-8.24827e-24
6.58254e-22
-1.40682e-24
3.26226e-22
-3.12908e-24
1.32286e-22
-1.12916e-23
-2.08067e-22
4.6086e-22
1.11507e-22
7.84115e-22
-8.83508e-23
3.34404e-23
6.20846e-22
9.75793e-24
6.70505e-22
7.06509e-25
5.00775e-22
-2.57574e-23
8.16254e-23
-7.87689e-24
7.53767e-22
-3.68526e-24
4.66124e-22
-6.12733e-24
1.3263e-22
-7.35442e-24
-6.4514e-23
3.04155e-22
1.14461e-22
6.24106e-22
-8.96609e-23
3.07935e-23
1.01255e-21
1.01182e-23
6.63705e-22
-1.13025e-25
6.46805e-22
-2.70551e-23
-1.22223e-22
-9.1202e-24
5.37371e-22
-8.06223e-24
4.61201e-22
-6.00254e-24
-1.07128e-23
-6.77336e-24
-6.83349e-23
3.99294e-22
1.20916e-22
4.56281e-22
-8.78432e-23
2.36903e-23
1.04098e-21
6.67666e-24
7.56675e-22
-2.31369e-24
6.2523e-22
-2.93384e-23
-6.71463e-23
-6.35116e-24
5.53359e-22
-1.35031e-23
3.38746e-22
-4.16832e-24
-6.40503e-23
-6.64347e-24
-6.40207e-23
4.23765e-22
1.26831e-22
5.38918e-22
-8.55781e-23
1.98732e-23
1.18252e-21
5.03959e-24
5.49707e-22
-6.38992e-24
5.15811e-22
-2.72858e-23
-4.49974e-24
-6.81056e-24
5.73872e-22
-1.6214e-23
3.11928e-22
-3.27679e-24
1.70115e-22
-5.56903e-24
7.76323e-23
5.00332e-22
1.33717e-22
4.31554e-22
-8.36501e-23
1.40821e-23
1.53939e-21
1.75891e-24
4.27861e-22
-7.37549e-24
4.5649e-22
-2.63668e-23
2.46299e-23
-8.12019e-24
5.7602e-22
-1.77974e-23
1.77966e-22
-3.38836e-24
1.61487e-22
-5.29598e-24
3.79908e-23
5.40885e-22
1.38499e-22
3.0304e-22
-8.30704e-23
8.57389e-24
1.78711e-21
9.38908e-26
3.40989e-22
-6.31356e-24
6.54634e-22
-2.73166e-23
-1.17705e-23
-1.00684e-23
5.0236e-22
-1.9086e-23
2.79833e-22
-2.09843e-24
2.48191e-22
-4.29012e-24
-3.38996e-24
5.80474e-22
1.45752e-22
2.42858e-22
-8.13722e-23
6.74961e-25
1.95547e-21
-1.72866e-24
1.87697e-22
-8.71747e-24
5.41011e-22
-2.78629e-23
-9.76121e-23
-1.08406e-23
4.61638e-22
-1.9742e-23
3.92592e-22
-1.74054e-24
1.39368e-22
-2.1547e-24
-4.61103e-23
6.1556e-22
1.51889e-22
3.29208e-22
-8.16813e-23
-7.38333e-24
2.12001e-21
-3.12901e-24
2.60888e-22
-9.74155e-24
6.40549e-22
-2.91521e-23
-8.41269e-23
-1.06629e-23
4.28905e-22
-2.17636e-23
3.99839e-22
-2.41717e-24
1.68667e-22
-1.48809e-24
1.8274e-22
6.84107e-22
1.57363e-22
2.39891e-22
-8.29542e-23
-1.69195e-23
1.94068e-21
-4.57157e-24
-4.17991e-23
-9.89358e-24
4.17337e-22
-2.88098e-23
-1.58094e-22
-1.11077e-23
2.78944e-22
-2.30045e-23
1.47242e-22
-2.52697e-25
1.4209e-22
-1.51336e-24
5.99926e-23
6.68748e-22
1.61249e-22
-1.41601e-23
-8.48296e-23
-2.49616e-23
2.13702e-21
-5.94484e-24
-4.14751e-22
-1.00161e-23
5.43261e-22
-2.97058e-23
-2.6632e-22
-1.23716e-23
2.70114e-22
-2.21001e-23
1.3767e-22
2.46236e-25
2.65445e-22
-4.06085e-26
3.01351e-23
4.97379e-22
1.66611e-22
-7.8107e-23
-8.28944e-23
-3.46292e-23
2.30877e-21
-6.64572e-24
-5.31343e-22
-1.0454e-23
5.74002e-22
-2.95864e-23
-2.77772e-22
-1.3242e-23
2.1752e-22
-2.17757e-23
2.09008e-22
1.1491e-24
2.15195e-22
1.70162e-25
1.02119e-23
4.96441e-22
1.73255e-22
-7.31112e-24
-8.06786e-23
-4.56927e-23
2.64945e-21
-5.63958e-24
-5.04218e-22
-1.17045e-23
4.0975e-22
-2.83995e-23
-3.24324e-22
-1.40196e-23
4.11495e-23
-2.16133e-23
2.95006e-22
4.94841e-25
4.21694e-22
2.10087e-24
-4.89522e-23
2.42024e-22
1.78918e-22
5.42191e-23
-8.12234e-23
-5.60588e-23
2.84839e-21
-6.22405e-24
-5.33996e-22
-1.05967e-23
5.61964e-22
-3.0006e-23
-3.05795e-22
-1.19604e-23
8.45488e-23
-2.11884e-23
2.03762e-22
-2.57759e-25
5.13598e-22
3.28094e-24
1.77818e-22
2.30378e-22
1.87062e-22
1.34888e-22
-7.88524e-23
-6.94365e-23
-6.18302e-24
-1.07485e-23
-3.03865e-23
-1.13442e-23
-2.00706e-23
-4.21535e-25
3.33788e-24
-7.85966e-23
1.88246e-22
-1.10043e-22
1.79094e-22
-1.12509e-22
1.61907e-22
-1.10499e-22
1.61984e-22
-1.10827e-22
4.72506e-22
-1.08888e-22
4.49514e-22
-1.09794e-22
4.36596e-22
-1.0732e-22
4.53066e-22
-1.07948e-22
1.92105e-22
-1.08885e-22
-1.70849e-23
-1.05081e-22
1.30569e-22
-1.02707e-22
1.30825e-22
-1.03993e-22
5.59448e-23
-1.03786e-22
2.12406e-22
-1.0448e-22
3.74065e-22
-1.03783e-22
3.60407e-22
-1.05085e-22
3.05553e-22
-1.05161e-22
3.22464e-22
-1.04714e-22
4.36383e-22
-1.01838e-22
4.76955e-22
-1.00004e-22
3.84489e-22
-9.93991e-23
3.08287e-22
-9.64099e-23
1.35412e-22
-9.47511e-23
-9.14603e-23
-6.80004e-23
-9.02171e-23
-3.19572e-23
-8.68046e-23
2.24855e-23
-8.94079e-23
1.57733e-22
-8.93024e-23
2.20167e-22
-8.82019e-23
3.68977e-22
-8.45686e-23
3.70026e-22
-8.7431e-23
4.65978e-22
-8.9396e-23
4.595e-22
-9.0682e-23
2.70231e-22
-9.43133e-23
-6.21255e-23
-9.5343e-23
-2.66204e-23
-9.19242e-23
-4.8362e-23
-9.18747e-23
-2.85231e-22
-8.98239e-23
-2.74201e-22
-8.95599e-23
-2.62858e-22
-8.75304e-23
-3.26251e-22
-8.50778e-23
6.55383e-24
-8.35724e-23
1.60516e-23
-8.459e-23
-3.91206e-24
-8.45681e-23
-5.85847e-23
-8.28448e-23
-8.50486e-23
-8.27928e-23
-1.07229e-22
-8.07154e-23
-8.04527e-23
-1.26131e-22
-7.77831e-23
-1.35925e-22
-7.88428e-23
-1.18172e-22
-7.96857e-23
-8.89763e-23
-7.45433e-23
9.29758e-23
-7.17201e-23
-4.53327e-23
-7.2952e-23
-1.6005e-22
-6.92727e-23
-2.18766e-23
-6.83362e-23
-1.47447e-23
-6.59185e-23
1.55486e-22
-6.48754e-23
1.26671e-22
-6.72787e-23
2.30559e-23
-6.58338e-23
2.62817e-22
-6.60478e-23
2.21613e-22
-6.40675e-23
3.12612e-22
-6.23164e-23
4.18238e-22
-6.17018e-23
2.62552e-22
-6.32437e-23
4.23932e-22
-6.2853e-23
5.81561e-22
-6.25894e-23
7.42519e-22
-6.02917e-23
6.88267e-22
-6.12683e-23
6.5924e-22
-5.99852e-23
5.74826e-22
-5.94658e-23
-5.8073e-23
-5.24617e-22
-8.09933e-23
-2.93171e-22
-7.22314e-23
-6.82435e-23
-6.99727e-23
1.09175e-22
-7.0649e-23
1.02701e-22
-7.05746e-23
1.85218e-22
-7.26392e-23
5.94336e-23
-7.14154e-23
8.84859e-24
-6.76499e-23
-1.20636e-22
-6.76342e-23
-7.52179e-23
-6.75506e-23
-2.19421e-22
-6.63507e-23
-1.72073e-22
-6.3924e-23
9.54743e-24
-6.15099e-23
1.04652e-22
-6.13892e-23
-2.35836e-22
-6.40885e-23
-2.70624e-22
-6.14755e-23
-4.91289e-22
-5.83578e-23
-2.90745e-22
-5.66497e-23
-3.89138e-22
-5.4421e-23
-3.68662e-22
-5.24417e-23
-2.46984e-22
-5.00694e-23
-3.98185e-22
-4.88526e-23
-3.69419e-22
-4.64887e-23
-4.45646e-23
1.09461e-23
-3.22353e-23
-4.21192e-23
-3.03338e-23
7.6084e-23
-2.92816e-23
-3.45216e-23
-2.59955e-23
9.52138e-23
-2.22786e-23
1.81337e-22
-2.04045e-23
3.20702e-22
-1.93152e-23
1.46157e-22
-2.10857e-23
1.47244e-22
-2.19486e-23
1.08158e-22
-2.01415e-23
2.97151e-22
-2.00696e-23
2.00137e-22
-1.72927e-23
1.16144e-22
-1.80605e-23
1.17102e-22
-1.65703e-23
2.40967e-22
-1.40545e-23
3.50611e-22
-1.27457e-23
3.44401e-22
-1.1638e-23
4.82184e-22
-1.1145e-23
5.28554e-22
-1.05809e-23
4.9983e-22
-9.79835e-24
6.38315e-22
-1.05729e-23
5.89187e-22
-9.21456e-24
5.48666e-22
-9.19723e-24
-8.35088e-24
-1.99264e-22
-3.26726e-23
-2.13246e-22
-3.04727e-23
-2.23094e-22
-2.71665e-23
-1.88893e-22
-2.78617e-23
-2.95199e-22
-2.75737e-23
-2.72611e-22
-2.73386e-23
-5.576e-22
-2.96694e-23
-4.06905e-22
-2.41554e-23
-4.40844e-22
-1.92017e-23
-5.69289e-22
-1.68942e-23
-3.2064e-22
-1.30287e-23
-3.05623e-22
-1.26867e-23
-3.11036e-22
-1.06913e-23
-3.01255e-22
-8.89757e-24
-1.97852e-22
-6.2289e-24
-1.91515e-22
-5.72945e-24
-9.4371e-23
-5.51118e-24
2.40443e-23
-5.20087e-24
-6.29596e-24
-4.51289e-24
5.38335e-24
-3.98911e-24
1.38003e-22
-3.26276e-24
7.96368e-23
-4.46663e-24
-2.29908e-23
-5.39763e-24
-3.0033e-24
4.6429e-23
-3.57625e-23
1.74038e-22
-3.60988e-23
-5.02254e-23
-3.74893e-23
8.92968e-23
-3.39693e-23
8.67572e-23
-3.46359e-23
7.73739e-23
-3.56564e-23
2.72472e-22
-3.32483e-23
3.05256e-22
-3.42913e-23
6.84513e-23
-3.41868e-23
-5.18845e-23
-3.35515e-23
4.64344e-23
-3.06014e-23
5.65267e-23
-2.81539e-23
4.62816e-25
-2.75919e-23
1.72491e-22
-2.68904e-23
-6.18648e-23
-2.64054e-23
-1.32718e-22
-2.69169e-23
-1.30997e-22
-2.50614e-23
9.54473e-24
-2.412e-23
-9.80096e-24
-2.29307e-23
-9.77983e-23
-2.14371e-23
-1.76812e-22
-1.95779e-23
-8.81816e-23
-1.82102e-23
5.99143e-23
-1.70737e-23
-1.8268e-23
-3.36473e-22
-4.10978e-23
-2.42519e-22
-3.94912e-23
-2.33878e-22
-3.50648e-23
-4.85172e-22
-3.45589e-23
-3.25092e-22
-3.24052e-23
-2.33055e-22
-3.04636e-23
-1.53667e-22
-2.88802e-23
-1.09221e-22
-2.98007e-23
-3.37901e-23
-3.0018e-23
-4.44946e-24
-2.75244e-23
4.7474e-23
-2.67294e-23
5.62309e-23
-2.68776e-23
-1.46301e-22
-2.47684e-23
-1.80095e-22
-2.18587e-23
-2.95373e-22
-2.09842e-23
-1.85539e-22
-1.88644e-23
-1.80482e-22
-1.67486e-23
-3.11835e-23
-1.69829e-23
-3.44016e-23
-1.77289e-23
-4.25515e-23
-1.98735e-23
-2.99791e-22
-1.97449e-23
-3.46817e-22
-1.9057e-23
-3.52138e-22
-1.93672e-23
-1.82326e-23
1.9866e-22
4.20516e-24
2.70704e-22
5.90234e-24
3.16255e-22
5.55316e-24
1.78706e-22
2.48793e-24
7.57168e-23
1.53877e-24
4.78702e-23
2.07198e-24
7.79362e-23
4.57481e-24
6.15979e-23
7.41527e-24
2.70372e-22
8.48426e-24
2.81773e-22
5.66618e-24
2.5853e-22
3.99487e-24
3.26639e-22
2.38796e-24
2.33778e-22
-2.15217e-25
2.38446e-22
-2.62604e-24
2.4908e-22
-4.8434e-24
2.65298e-22
-7.75443e-24
1.30786e-23
-8.54676e-24
8.20432e-23
-8.21177e-24
9.63297e-23
-8.82154e-24
9.11133e-23
-8.43335e-24
2.04237e-22
-9.77732e-24
-2.80355e-23
-1.13088e-23
-1.17038e-23
-1.22007e-23
-1.20332e-23
-2.71381e-22
-1.57359e-23
-2.66957e-22
-1.67423e-23
-4.47436e-22
-1.77938e-23
-4.37647e-22
-1.72546e-23
-4.32939e-22
-1.85624e-23
-2.53499e-22
-1.97895e-23
-3.23908e-22
-2.23666e-23
-2.92327e-22
-2.18168e-23
-3.98849e-22
-2.25917e-23
-2.57832e-22
-2.1508e-23
-3.85816e-22
-2.27007e-23
-3.4865e-22
-2.35233e-23
-4.3333e-22
-2.31024e-23
-4.30283e-22
-2.1068e-23
-4.42653e-22
-1.97423e-23
-4.41456e-22
-1.85423e-23
-5.13548e-22
-1.85428e-23
-4.89987e-22
-1.77919e-23
-3.92946e-22
-1.67968e-23
-3.58772e-22
-1.63008e-23
-2.84547e-22
-1.65012e-23
-3.18971e-22
-1.64399e-23
-1.97403e-22
-1.70655e-23
-1.76697e-23
-3.3966e-23
-4.27777e-23
-1.91934e-23
-3.72776e-23
2.02613e-23
-3.48606e-23
-1.20447e-22
-3.42979e-23
-7.13112e-23
-2.95373e-23
1.63385e-23
-2.46943e-23
8.181e-23
-2.09465e-23
9.00459e-23
-2.01035e-23
9.32588e-23
-1.76145e-23
7.39095e-23
-1.68024e-23
5.59851e-23
-1.63376e-23
8.33066e-23
-1.33152e-23
4.31047e-23
-1.4058e-23
-2.71162e-25
-1.43178e-23
-2.54855e-23
-1.33324e-23
-4.24362e-23
-1.26261e-23
-6.54521e-23
-1.14684e-23
-1.07762e-23
-9.52314e-24
-7.46863e-24
-9.37294e-24
-8.65471e-23
-8.96959e-24
-2.4939e-22
-7.6545e-24
-3.23859e-22
-6.32315e-24
-2.25169e-22
-5.3247e-24
-3.83571e-24
2.87212e-22
2.15627e-23
-2.11523e-23
1.34606e-23
1.24122e-23
1.35079e-23
6.12275e-25
1.40516e-23
1.0749e-22
1.34366e-23
1.23612e-22
1.16283e-23
7.59112e-23
9.86454e-24
1.2339e-22
8.60996e-24
6.08434e-23
6.63835e-24
8.26583e-23
8.11895e-24
9.42052e-23
7.69349e-24
-8.10073e-23
6.75279e-24
-1.69667e-23
7.39178e-24
1.22662e-22
6.46997e-24
8.23713e-23
5.08753e-24
9.32679e-23
3.75405e-24
9.01123e-23
4.11873e-24
-3.34836e-24
5.49957e-24
-4.53862e-23
6.55523e-24
-3.66726e-24
7.58454e-24
-5.657e-23
7.48883e-24
-9.51881e-23
8.32083e-24
-9.28495e-23
9.18213e-24
9.57666e-24
-1.30384e-22
3.84784e-23
-2.15081e-23
3.75899e-23
1.30565e-22
3.62205e-23
1.91109e-22
3.50119e-23
2.55339e-22
3.25235e-23
5.01343e-23
2.8944e-23
1.17263e-22
2.91245e-23
1.01783e-22
2.81869e-23
2.63701e-22
2.84182e-23
2.16057e-22
2.69142e-23
2.41796e-22
2.5419e-23
1.75366e-22
2.5035e-23
4.18324e-23
2.5371e-23
5.15322e-23
2.59748e-23
5.0876e-23
2.64216e-23
2.89819e-22
2.77968e-23
4.18945e-22
2.73306e-23
3.54056e-22
2.5656e-23
2.94014e-22
2.42744e-23
2.649e-22
2.31511e-23
2.09488e-22
2.2505e-23
1.7482e-22
2.15562e-23
1.57825e-22
2.07105e-23
2.00813e-23
-2.12e-22
3.55063e-25
-2.97793e-22
4.89929e-24
-3.11179e-22
8.64168e-24
-3.28743e-22
9.85866e-24
-3.51162e-22
1.10618e-23
-1.84704e-22
1.3305e-23
-1.51182e-22
1.33816e-23
-1.41535e-22
1.31555e-23
-1.31599e-22
1.22324e-23
-2.33291e-22
1.17334e-23
-2.11543e-22
1.24344e-23
-3.04603e-22
1.21173e-23
-4.0023e-22
1.22804e-23
-3.99121e-22
1.28298e-23
-3.74662e-22
1.37775e-23
-3.39611e-22
1.24905e-23
-3.1156e-22
1.12727e-23
-4.01774e-22
1.07259e-23
-4.29797e-22
1.05942e-23
-4.1871e-22
1.10875e-23
-4.18766e-22
1.13411e-23
-4.02928e-22
1.13712e-23
-3.6926e-22
1.14952e-23
1.17377e-23
3.4835e-23
-1.46372e-23
4.19672e-23
-1.22372e-23
-4.04747e-23
-9.59353e-24
-3.61172e-23
-5.63697e-24
-3.06625e-23
-2.75021e-24
-7.88597e-23
-8.32431e-25
-1.49656e-22
3.65688e-25
-1.21421e-22
1.84551e-24
-1.08894e-22
2.33578e-24
-2.7157e-23
2.78509e-24
2.8462e-23
2.91724e-24
5.64094e-23
3.83558e-24
2.68324e-23
4.86539e-24
8.61776e-23
5.9621e-24
-1.33356e-22
6.42835e-24
-1.05382e-22
9.00174e-24
-5.7933e-23
1.066e-23
-2.47798e-23
1.07971e-23
-3.77811e-24
1.09343e-23
-3.04052e-24
1.12787e-23
-5.13372e-23
1.1026e-23
-3.91824e-23
1.10757e-23
-3.30371e-23
1.05894e-23
1.10292e-23
1.42763e-22
-3.91899e-24
9.61577e-23
-3.49068e-24
4.83453e-23
-3.03654e-24
1.46444e-23
-2.75705e-24
7.97182e-25
-1.38607e-24
-7.42244e-23
-9.79906e-25
-7.80757e-23
-6.02271e-25
-1.54473e-22
-1.95693e-25
-1.35263e-22
1.30378e-24
-1.39612e-22
2.91371e-24
-3.1301e-23
5.00176e-24
-1.50023e-23
6.50032e-24
9.3873e-24
7.5819e-24
1.09115e-23
8.22357e-24
1.06311e-22
8.34726e-24
6.2403e-23
8.05873e-24
-4.03886e-23
7.90558e-24
5.07238e-25
9.01214e-24
4.42036e-23
9.78896e-24
-7.0598e-24
9.88493e-24
3.54195e-23
1.03047e-23
1.10362e-23
1.05116e-23
1.40526e-22
1.08628e-23
1.04606e-23
1.93323e-22
-1.05325e-23
2.07122e-22
-1.19064e-23
1.92644e-22
-1.26809e-23
1.79825e-22
-1.31575e-23
9.35106e-23
-1.41884e-23
1.32967e-23
-1.33164e-23
1.82271e-23
-1.29044e-23
2.25361e-23
-1.10398e-23
1.16756e-22
-1.00394e-23
1.19363e-22
-1.09488e-23
1.33778e-22
-1.01127e-23
6.3527e-23
-9.99161e-24
-3.18598e-23
-9.723e-24
-1.8904e-22
-8.45299e-24
-1.97807e-22
-7.1631e-24
-2.78743e-22
-6.85301e-24
-2.65127e-22
-5.7438e-24
-2.60309e-22
-5.17916e-24
-2.74917e-22
-4.65651e-24
-2.97999e-22
-3.41249e-24
-3.20677e-22
-2.58236e-24
-3.39088e-22
-1.27105e-24
-3.37767e-22
4.54726e-26
1.70959e-24
4.52212e-23
8.71964e-25
5.33436e-23
2.70151e-24
6.83231e-23
7.63527e-25
6.05634e-23
7.76193e-25
1.30051e-22
3.85802e-24
1.27689e-22
4.63017e-24
2.07948e-22
4.15275e-24
1.64959e-22
3.79559e-24
2.14143e-22
2.62842e-24
4.17639e-22
2.52984e-24
3.79723e-22
-1.33544e-24
4.78923e-22
-2.75079e-24
5.4968e-22
-4.98986e-24
4.75371e-22
-5.95093e-24
3.87027e-22
-7.12994e-24
3.96164e-22
-6.15935e-24
3.74747e-22
-5.93188e-24
3.49212e-22
-5.45833e-24
3.9674e-22
-3.44557e-24
2.71824e-22
-3.08152e-24
3.87578e-22
-2.1813e-24
3.39598e-22
-1.82765e-24
2.89669e-22
-1.69719e-24
-1.45522e-24
-1.37688e-22
-2.31812e-23
-9.76365e-23
-2.05073e-23
-5.92734e-23
-1.67696e-23
6.58972e-23
-1.37891e-23
-2.21201e-23
-1.28842e-23
-1.07781e-22
-1.13325e-23
-1.16593e-22
-9.98746e-24
-1.9474e-22
-1.06413e-23
-2.87854e-22
-8.66432e-24
-4.18966e-22
-8.296e-24
-3.0137e-22
-3.54478e-24
-3.5083e-22
-2.50351e-24
-2.29002e-22
1.24878e-25
-2.45803e-22
-1.5717e-24
-9.5938e-23
-1.84977e-24
-1.34658e-22
-2.58259e-24
-2.79665e-23
-2.35134e-24
1.23679e-22
-2.79227e-24
1.16914e-22
-3.44153e-24
9.98181e-23
-3.5657e-24
1.21274e-22
-3.89736e-24
1.54924e-22
-4.59347e-24
1.55424e-22
-4.366e-24
-3.70916e-24
1.92368e-22
-1.22524e-23
3.11981e-22
-9.86053e-24
2.829e-22
-1.02924e-23
2.60586e-22
-7.06336e-24
2.31071e-22
-6.90845e-24
2.05935e-22
-9.35813e-24
1.98627e-22
-1.11641e-23
1.70287e-22
-1.05413e-23
1.56447e-22
-1.03336e-23
1.80755e-22
-1.08911e-23
2.9247e-22
-1.1832e-23
1.60203e-22
-1.59155e-23
1.68254e-22
-1.82945e-23
4.44107e-23
-1.89768e-23
1.98476e-22
-1.96405e-23
1.79548e-22
-2.30487e-23
2.54893e-22
-2.30942e-23
2.58526e-22
-2.32198e-23
2.67776e-22
-2.29804e-23
2.88884e-23
-2.40572e-23
1.12703e-22
-2.23139e-23
1.41624e-22
-2.06415e-23
1.70585e-22
-1.99602e-23
1.28419e-22
-2.09149e-23
1.5434e-22
-2.10604e-23
2.84232e-23
-1.99919e-23
9.60572e-23
-1.97464e-23
9.1327e-23
-1.93233e-23
1.86119e-22
-1.93755e-23
2.91007e-22
-2.06325e-23
-2.13802e-23
2.41133e-22
7.79175e-24
2.27306e-22
3.72628e-24
2.15874e-22
-4.65091e-24
3.00001e-22
-8.31467e-24
-1.54137e-22
-1.21294e-23
6.75206e-23
-9.17652e-24
8.07558e-23
-8.26329e-24
1.00163e-22
-9.40537e-24
1.264e-22
-1.20868e-23
-2.36573e-23
-1.31689e-23
-1.0055e-22
-1.49776e-23
-1.75843e-22
-1.49986e-23
-1.61922e-22
-1.41742e-23
-2.41792e-22
-1.45246e-23
-3.38807e-22
-1.41753e-23
-1.9798e-22
-1.20472e-23
-2.0966e-22
-1.33076e-23
-1.4061e-22
-1.42266e-23
-1.47309e-22
-1.47886e-23
-4.73893e-23
-1.60655e-23
-8.89869e-24
-1.89818e-23
-6.9022e-23
-1.99646e-23
-2.01981e-23
-2.14908e-23
1.14202e-22
-2.17736e-23
2.53928e-22
-2.39966e-23
2.90766e-22
-2.53821e-23
2.84439e-22
-2.72255e-23
1.23701e-22
-2.69589e-23
1.3338e-22
-2.69602e-23
1.8097e-22
-2.50836e-23
-2.48278e-23
-2.8101e-22
-1.74918e-23
-2.37207e-22
-2.04979e-23
-1.99248e-22
-1.6191e-23
-1.83501e-22
-1.37454e-23
-1.66087e-22
-1.34891e-23
-1.64073e-22
-1.33234e-23
-1.54679e-22
-1.18589e-23
-1.65632e-22
-9.46025e-24
-1.63373e-22
-5.06907e-24
-3.47622e-22
-3.31741e-24
-2.74608e-22
9.17625e-25
-2.57268e-22
3.21138e-24
-2.635e-22
5.40547e-24
-2.72674e-22
7.01971e-24
-2.17419e-22
7.19623e-24
-2.29899e-22
5.83182e-24
-1.57513e-22
6.5845e-24
-1.67333e-22
8.35063e-24
-1.56826e-22
7.03729e-24
-1.13379e-22
7.56597e-24
-1.0479e-22
7.13271e-24
-1.97213e-22
6.66312e-24
-8.84712e-23
7.31842e-24
-7.65541e-23
6.20717e-24
6.39134e-24
6.92396e-24
7.02611e-23
5.00676e-24
2.2908e-22
5.23016e-24
3.29844e-22
4.08698e-24
4.97377e-22
3.88355e-24
4.94632e-22
3.15393e-24
1.88441e-24
-2.68107e-22
-1.80167e-23
-5.90799e-23
-1.47808e-23
-1.35705e-23
-1.6381e-23
3.10272e-23
-2.08095e-23
6.69522e-23
-2.10109e-23
-4.70178e-23
-1.91646e-23
-2.04801e-23
-1.85854e-23
1.64912e-22
-1.71742e-23
8.3078e-23
-1.95442e-23
6.42373e-23
-2.35519e-23
1.69505e-22
-2.28756e-23
5.45808e-23
-2.31546e-23
1.0788e-22
-2.45451e-23
2.36421e-23
-2.61964e-23
-1.52147e-22
-2.4678e-23
-7.03139e-23
-2.43691e-23
6.04777e-23
-1.9817e-23
-1.53683e-22
-1.69111e-23
-1.34978e-22
-1.27715e-23
-1.36984e-22
-1.22884e-23
-1.51668e-22
-1.09692e-23
-2.81922e-22
-9.94762e-24
-2.27717e-22
-6.38599e-24
-9.55188e-23
-5.35802e-24
-2.76541e-22
-4.52561e-24
-4.96111e-23
-3.14355e-24
-7.80396e-23
-3.32317e-24
-3.93965e-23
-3.92962e-24
-1.14475e-23
-4.65963e-24
-2.85314e-23
-6.0336e-24
-6.51562e-24
-2.21119e-23
5.24409e-24
-2.9014e-23
6.90832e-24
-5.11743e-23
6.35541e-24
9.9686e-23
4.99478e-24
2.33134e-22
2.84227e-24
2.30363e-22
-1.07411e-24
2.19308e-22
-6.12257e-24
5.31617e-23
-6.58939e-24
-9.4586e-23
-5.44154e-24
1.16785e-22
-4.19249e-24
-5.90506e-23
-5.67283e-24
-1.20481e-22
-6.04458e-24
-1.32814e-22
-7.00959e-24
-2.49531e-22
-5.52273e-24
-3.01862e-22
-4.25731e-24
-6.76573e-23
-2.17117e-24
6.99543e-23
-3.39324e-24
-8.04223e-23
-5.87223e-24
-1.36399e-22
-5.99682e-24
-1.62076e-22
-4.34329e-24
-1.51532e-22
-4.20813e-24
-4.28194e-23
-3.78596e-24
-1.53894e-22
-4.8946e-24
-2.24133e-23
-5.25173e-24
-1.24733e-22
-5.38623e-24
-1.37857e-22
-5.31842e-24
-1.64036e-22
-5.52922e-24
-1.73328e-22
-6.25119e-24
-1.12415e-22
-5.62736e-24
-1.04288e-22
-4.74063e-24
-5.03452e-24
-2.98711e-22
1.42251e-24
-4.19559e-22
2.93159e-24
-5.55981e-22
7.51279e-24
-3.56692e-22
1.16257e-23
-2.77409e-22
1.45297e-23
-2.74101e-22
1.94197e-23
-8.33789e-23
2.12018e-23
-8.93122e-23
1.96577e-23
-1.08655e-22
1.77117e-23
-7.49508e-23
2.03446e-23
-9.88973e-23
2.08532e-23
-5.52568e-23
2.08948e-23
1.69777e-22
2.04632e-23
2.10601e-22
2.09224e-23
1.76388e-22
1.63681e-23
5.72436e-23
1.59008e-23
1.55679e-22
1.26949e-23
9.22163e-23
1.15167e-23
3.53056e-23
1.09995e-23
5.68537e-24
1.19325e-23
1.28989e-22
1.27722e-23
7.11071e-23
1.21695e-23
4.43412e-23
1.32473e-23
4.93756e-23
1.45614e-23
2.40503e-23
1.57228e-23
-2.27421e-22
1.62638e-23
-1.21541e-22
1.81761e-23
-2.06472e-24
2.12754e-23
-8.9301e-23
2.13195e-23
7.68229e-23
2.299e-23
2.4051e-23
2.98867e-22
-2.84562e-23
3.17093e-22
-2.59473e-23
1.7102e-22
-2.22318e-23
1.99815e-22
-2.31476e-23
2.39769e-22
-2.63162e-23
7.00599e-23
-2.27252e-23
9.14029e-23
-2.18469e-23
1.56869e-23
-1.30322e-23
1.90862e-22
-9.65182e-24
1.3611e-22
-1.22319e-23
2.08357e-23
-1.49854e-23
-1.9968e-22
-1.77675e-23
-1.27011e-22
-1.57767e-23
-3.15647e-22
-2.03989e-23
-2.83235e-22
-1.95626e-23
-4.36461e-22
-1.95841e-23
-3.07783e-22
-1.77342e-23
-3.38395e-22
-1.55908e-23
-3.39363e-22
-1.48398e-23
-3.88494e-22
-1.38039e-23
-3.77863e-22
-1.4524e-23
-4.18112e-22
-1.31482e-23
-3.46425e-22
-1.35898e-23
-4.3126e-22
-1.29579e-23
-3.36464e-22
-1.09847e-23
-2.60829e-22
-1.06888e-23
-2.01403e-22
-1.03363e-23
-3.01061e-22
-9.12109e-24
-2.77377e-22
-8.34775e-24
-2.38449e-22
-6.66871e-24
-6.12799e-24
-2.13867e-22
-1.12954e-23
-1.46275e-22
-1.04362e-23
-1.43546e-22
-9.06285e-24
-1.68606e-22
-5.14023e-24
6.35721e-23
2.14495e-24
4.17235e-23
7.68854e-24
1.87032e-22
9.45006e-24
1.97215e-22
6.86232e-24
-1.80844e-22
2.0641e-24
-3.16533e-22
9.43709e-24
-3.59972e-22
1.29474e-23
-3.60787e-22
1.42861e-23
-4.308e-22
1.45347e-23
-1.59176e-22
1.40175e-23
-3.7362e-23
1.31892e-23
1.10157e-22
1.49719e-23
2.29133e-22
1.46088e-23
3.06507e-22
1.42404e-23
2.83153e-22
9.76522e-24
3.56272e-22
1.20383e-23
3.93764e-22
1.34602e-23
4.95144e-22
1.43332e-23
7.29072e-22
1.30262e-23
8.18869e-22
1.22229e-23
6.26675e-22
1.01109e-23
8.23412e-22
9.95991e-24
7.73339e-22
8.07325e-24
7.31892e-22
5.60805e-24
8.53079e-22
4.18077e-24
6.83869e-22
2.10178e-24
1.39574e-24
2.77134e-22
4.95495e-25
4.36033e-22
-3.1036e-24
4.27478e-22
3.02149e-24
5.35179e-22
3.65184e-24
5.37101e-22
8.72086e-24
5.00077e-22
4.78186e-24
3.77373e-22
2.7486e-24
1.73824e-22
3.00555e-24
1.64685e-22
4.80275e-24
9.70496e-23
7.08944e-24
-1.48596e-23
1.01418e-23
-3.28167e-22
1.34521e-23
-2.18932e-22
1.44716e-23
-1.20483e-22
1.73828e-23
2.37906e-23
1.87532e-23
-2.12203e-24
1.6606e-23
4.34907e-23
1.5901e-23
-6.75313e-23
1.55113e-23
7.03446e-23
1.50764e-23
5.11168e-23
1.32829e-23
-9.03373e-23
9.69516e-24
-6.31419e-23
1.03156e-23
-2.83342e-22
1.0206e-23
-1.10381e-22
9.12309e-24
-1.01789e-22
1.13404e-23
-1.88376e-22
1.1942e-23
-3.55527e-22
1.01798e-23
-2.01863e-22
1.00135e-23
-1.45367e-22
1.01854e-23
-1.68133e-22
1.06163e-23
9.52373e-24
-1.33183e-22
5.57783e-24
1.26308e-22
1.134e-24
1.43734e-22
4.66267e-25
1.4183e-22
-5.10863e-24
1.53701e-22
-7.30103e-24
-3.92446e-23
-8.0487e-24
-1.55617e-23
-6.13233e-24
2.10488e-24
-3.49537e-24
1.11132e-22
-5.2518e-24
1.35672e-22
-5.38284e-24
-9.87648e-23
-2.96079e-24
-3.15985e-22
-3.37934e-25
-2.5959e-22
3.22554e-24
-2.26321e-22
4.83605e-24
-2.78156e-22
6.67835e-24
-4.55055e-22
7.6887e-24
-4.09106e-22
9.2586e-24
-9.39871e-23
1.06605e-23
-1.99422e-22
1.03096e-23
-1.34943e-22
1.09061e-23
1.81924e-23
1.26979e-23
1.69807e-22
1.14698e-23
5.99573e-23
1.03275e-23
9.19649e-23
1.11058e-23
2.94194e-23
9.99955e-24
1.24681e-23
1.15871e-23
-7.11368e-24
1.11662e-23
6.84339e-23
1.11214e-23
6.47854e-23
1.21678e-23
5.66933e-23
1.11891e-23
1.21402e-23
2.34863e-22
1.09971e-23
4.51068e-22
1.54395e-23
3.76975e-22
1.00308e-23
3.91323e-22
2.53323e-24
4.58223e-22
-3.06816e-24
3.28679e-22
-8.03189e-24
4.13726e-22
-7.53702e-24
2.76347e-22
-1.17699e-23
3.72676e-22
-1.12472e-23
3.69891e-22
-1.36889e-23
3.03207e-22
-1.66374e-23
1.01029e-22
-1.56599e-23
4.6063e-23
-1.06371e-23
-1.24591e-22
-6.96419e-24
-2.1039e-22
-2.19083e-24
-5.4479e-24
2.94898e-24
-1.07434e-22
4.13378e-24
3.15072e-23
4.45892e-24
-9.09075e-23
4.66568e-24
-1.88567e-23
4.85366e-24
-1.52539e-22
5.12501e-24
-1.82297e-22
4.35045e-24
-1.49599e-22
4.5686e-24
-1.71744e-22
3.34467e-24
-1.74432e-22
2.64518e-24
-3.21246e-22
1.64168e-24
-3.11883e-22
4.5088e-24
-1.65114e-22
7.44503e-24
1.76208e-23
7.31793e-24
1.28082e-22
8.82212e-24
8.27787e-24
-6.47801e-23
2.21536e-24
-1.6037e-22
-1.34975e-24
-1.37791e-22
-1.73702e-24
-1.34791e-22
-5.219e-25
-3.82358e-23
-3.78987e-24
1.20864e-23
-4.06963e-24
-9.01107e-23
-8.97146e-24
-1.00318e-23
-1.14668e-23
-1.4501e-23
-1.77004e-23
-1.5708e-23
-1.77502e-23
1.10504e-22
-1.92552e-23
3.19018e-22
-2.06551e-23
3.08982e-22
-2.28656e-23
3.10145e-22
-2.22414e-23
2.64352e-22
-2.58148e-23
3.71158e-23
-2.83562e-23
-1.42959e-22
-2.55244e-23
-1.09701e-22
-2.36877e-23
-9.47219e-23
-2.40703e-23
-2.05079e-22
-2.32549e-23
-9.71449e-23
-2.29135e-23
6.29858e-23
-2.0672e-23
1.3347e-22
-2.18248e-23
1.14977e-22
-2.23837e-23
1.48017e-22
-2.18621e-23
3.30554e-22
-1.98144e-23
3.66616e-22
-1.98191e-23
3.0679e-22
-2.11275e-23
2.01098e-22
-2.08271e-23
5.64633e-24
-2.19663e-23
-2.11601e-23
1.47595e-22
-6.03839e-24
2.43491e-23
8.23434e-26
-7.48156e-23
-5.754e-24
-1.5569e-22
-1.15676e-24
-8.37435e-23
8.84581e-25
-3.19466e-24
3.41716e-24
-8.81155e-23
-1.3928e-24
-1.22164e-22
-1.91884e-24
1.37637e-23
3.19726e-24
1.49005e-22
8.47926e-25
2.68563e-22
-6.3332e-25
3.62191e-22
-1.59308e-24
4.66519e-22
-8.86593e-25
3.28056e-22
-5.59087e-24
4.58828e-22
-8.01267e-24
4.74975e-22
-9.90529e-24
3.25386e-22
-1.44982e-23
-4.17053e-23
-1.8217e-23
-2.65664e-23
-1.73454e-23
-1.64577e-23
-1.87735e-23
-2.29938e-22
-1.92866e-23
-3.85046e-22
-2.15755e-23
-3.35589e-22
-2.04188e-23
-2.1962e-22
-1.90909e-23
2.83098e-23
-1.99968e-23
7.86701e-24
-2.22809e-23
1.98019e-23
-2.2808e-23
-1.0149e-22
-2.19577e-23
-1.11906e-22
-2.24903e-23
-1.2208e-22
-2.12148e-23
-2.17215e-23
-6.32581e-23
5.67822e-24
2.08992e-23
2.23149e-25
2.40551e-24
3.01921e-24
2.05994e-24
9.24987e-25
-7.07021e-23
-2.36669e-24
-3.48715e-22
-6.65731e-24
-3.4603e-22
-7.04976e-24
-2.18422e-22
-1.07159e-23
-2.38051e-22
-1.33999e-23
-2.47731e-22
-1.67514e-23
-2.67685e-22
-1.662e-23
-9.49275e-23
-1.66775e-23
-1.76561e-22
-1.93704e-23
-3.13896e-22
-1.67967e-23
-1.52803e-22
-1.59792e-23
-1.58056e-22
-1.37706e-23
-9.38638e-23
-1.25769e-23
-1.13107e-22
-1.42331e-23
-8.48621e-23
-1.24559e-23
3.32198e-23
-1.40383e-23
1.42804e-23
-1.27557e-23
1.49994e-22
-1.20962e-23
2.28459e-22
-1.24457e-23
-3.96879e-24
-1.44472e-23
2.37675e-22
-1.42032e-23
4.5917e-22
-1.54785e-23
5.8952e-22
-1.47109e-23
5.50731e-22
-1.7107e-23
5.40958e-22
-1.72422e-23
4.60984e-22
-1.79518e-23
-1.75296e-23
-7.4489e-23
-1.62958e-23
-2.3057e-23
-1.67247e-23
-2.2569e-22
-2.31523e-23
-1.67234e-22
-2.16293e-23
-3.53455e-22
-2.281e-23
-2.9193e-22
-2.57104e-23
-3.41204e-22
-2.27188e-23
-2.57917e-22
-1.92524e-23
-1.0684e-22
-1.328e-23
-5.28243e-23
-1.17177e-23
1.51886e-22
-1.16479e-23
1.88045e-22
-1.20939e-23
3.0574e-22
-1.51499e-23
2.21418e-22
-1.52648e-23
2.0957e-22
-1.37913e-23
1.03649e-22
-1.59645e-23
9.15518e-23
-1.87111e-23
-1.14989e-22
-2.07004e-23
-1.38987e-22
-2.04036e-23
-7.69947e-24
-1.90222e-23
7.10284e-23
-1.93293e-23
-2.11392e-22
-2.21081e-23
-1.79636e-22
-1.97323e-23
-3.95485e-22
-1.74575e-23
-2.82735e-22
-1.69266e-23
-3.03147e-22
-1.49847e-23
-2.88663e-22
-1.3429e-23
-1.66415e-22
-1.13411e-23
-2.70105e-22
-1.08809e-23
-2.11954e-22
-9.48495e-24
-8.79291e-24
-2.11331e-22
-1.07509e-24
-2.29726e-22
1.41627e-24
-2.42539e-22
-1.64859e-25
-2.38373e-22
1.01422e-24
-2.3173e-22
2.16527e-24
-6.74379e-23
5.13633e-24
-1.57841e-22
1.09049e-23
-7.38809e-23
8.27701e-24
-8.57877e-23
8.88698e-24
-2.57525e-23
8.4784e-24
-1.24006e-22
1.14949e-23
8.67179e-23
1.50572e-23
2.27328e-22
1.65138e-23
3.32726e-22
1.54101e-23
1.91151e-22
1.29937e-23
1.28906e-22
1.10526e-23
-1.95097e-23
1.27579e-23
2.07355e-22
1.32344e-23
1.4552e-22
1.54377e-23
6.69892e-23
1.35393e-23
7.97967e-23
1.34211e-23
2.41295e-22
1.39704e-23
3.28476e-22
1.36088e-23
2.53623e-22
1.31038e-23
4.11905e-22
1.27873e-23
5.24277e-22
1.24449e-23
4.85835e-22
1.25874e-23
5.49544e-22
1.12956e-23
5.27164e-22
1.2799e-23
4.85086e-22
1.25594e-23
1.28097e-23
-7.44322e-23
-2.32868e-23
-3.14172e-22
-2.25e-23
-8.25305e-23
-9.26773e-24
-2.60034e-22
-4.92385e-24
-6.49729e-23
-1.18764e-24
-1.53776e-22
-4.955e-24
-1.62442e-22
-6.28078e-24
-8.37216e-23
-5.31862e-24
-4.96509e-23
-5.59604e-24
-1.2637e-23
-5.38187e-24
4.35045e-23
-7.55803e-24
-6.32224e-23
-9.70288e-24
-1.82747e-22
-1.04083e-23
-3.96337e-22
-1.20492e-23
-2.69413e-22
-8.67897e-24
-2.91623e-22
-7.08061e-24
-4.66149e-22