/*--------------------------------*- C++ -*----------------------------------*\
  =========                 |
  \\      /  F ield         | OpenFOAM: The Open Source CFD Toolbox
   \\    /   O peration     | Website:  https://openfoam.org
    \\  /    A nd           | Version:  7
     \\/     M anipulation  |
\*---------------------------------------------------------------------------*/
FoamFile
{
    version     2.0;
    format      ascii;
    class       volScalarField;
    location    "48000";
    object      omega;
}
// * * * * * * * * * * * * * * * * * * * * * * * * * * * * * * * * * * * * * //

dimensions      [0 0 -1 0 0 0 0];

internalField   nonuniform List<scalar> 
4850
(
0.02834
0.0283262
0.0283666
0.0283528
0.0283395
0.0283934
0.0283795
0.0283661
0.0283531
0.0283406
0.0284203
0.0284064
0.028393
0.0283799
0.0283673
0.0283552
0.0284473
0.0284334
0.0284199
0.0284069
0.0283942
0.028382
0.0283703
0.0284745
0.0284605
0.028447
0.0284339
0.0284213
0.028409
0.0283973
0.028386
0.0283753
0.0285017
0.0284878
0.0284742
0.0284611
0.0284484
0.0284362
0.0284244
0.0284131
0.0284023
0.0283921
0.028529
0.0285151
0.0285015
0.0284884
0.0284757
0.0284634
0.0284516
0.0284403
0.0284295
0.0284192
0.0284095
0.0284004
0.0283918
0.0283838
0.0285565
0.0285425
0.0285289
0.0285158
0.0285031
0.0284908
0.0284789
0.0284676
0.0284568
0.0284465
0.0284368
0.0284276
0.028419
0.028411
0.0284036
0.0283969
0.0283908
0.0283853
0.0285839
0.02857
0.0285564
0.0285433
0.0285305
0.0285182
0.0285064
0.028495
0.0284842
0.0284739
0.0284642
0.028455
0.0284464
0.0284384
0.028431
0.0284242
0.028418
0.0284126
0.0284077
0.0284035
0.0286115
0.0285975
0.028584
0.0285708
0.0285581
0.0285457
0.0285339
0.0285226
0.0285117
0.0285014
0.0284916
0.0284824
0.0284738
0.0284658
0.0284584
0.0284516
0.0284455
0.02844
0.0284351
0.0284309
0.0284274
0.0284246
0.0284225
0.028421
0.028639
0.0286251
0.0286116
0.0285984
0.0285857
0.0285734
0.0285615
0.0285502
0.0285393
0.028529
0.0285192
0.02851
0.0285014
0.0284934
0.028486
0.0284792
0.028473
0.0284675
0.0284626
0.0284585
0.0284549
0.0284521
0.02845
0.0284485
0.0284477
0.0284477
0.0284483
0.0284496
0.0284516
0.0286667
0.0286528
0.0286392
0.0286261
0.0286133
0.028601
0.0285892
0.0285778
0.028567
0.0285567
0.0285469
0.0285377
0.0285291
0.028521
0.0285136
0.0285068
0.0285007
0.0284951
0.0284903
0.0284861
0.0284826
0.0284797
0.0284776
0.0284761
0.0284754
0.0284753
0.0284759
0.0284772
0.0284792
0.0284819
0.0284853
0.0284894
0.0286943
0.0286804
0.0286669
0.0286538
0.0286411
0.0286288
0.0286169
0.0286056
0.0285947
0.0285844
0.0285746
0.0285654
0.0285568
0.0285488
0.0285414
0.0285346
0.0285284
0.0285229
0.028518
0.0285138
0.0285103
0.0285075
0.0285053
0.0285039
0.0285031
0.028503
0.0285036
0.028505
0.028507
0.0285097
0.028513
0.0285171
0.0285219
0.0285273
0.0287219
0.0287081
0.0286947
0.0286815
0.0286688
0.0286565
0.0286447
0.0286334
0.0286225
0.0286122
0.0286024
0.0285932
0.0285846
0.0285766
0.0285692
0.0285624
0.0285562
0.0285507
0.0285459
0.0285417
0.0285382
0.0285353
0.0285332
0.0285317
0.0285309
0.0285308
0.0285315
0.0285328
0.0285348
0.0285375
0.0285408
0.0285449
0.0285497
0.0285551
0.0287496
0.0287359
0.0287224
0.0287093
0.0286966
0.0286843
0.0286725
0.0286612
0.0286504
0.0286401
0.0286303
0.0286211
0.0286125
0.0286045
0.0285971
0.0285903
0.0285841
0.0285786
0.0285738
0.0285696
0.0285661
0.0285632
0.0285611
0.0285596
0.0285588
0.0285588
0.0285594
0.0285607
0.0285627
0.0285654
0.0285687
0.0285728
0.0285776
0.028583
0.0287773
0.0287636
0.0287502
0.0287371
0.0287244
0.0287122
0.0287004
0.028689
0.0286782
0.028668
0.0286582
0.028649
0.0286404
0.0286324
0.028625
0.0286183
0.0286121
0.0286066
0.0286018
0.0285976
0.0285941
0.0285912
0.0285891
0.0285876
0.0285868
0.0285867
0.0285873
0.0285886
0.0285906
0.0285933
0.0285967
0.0286007
0.0286055
0.0286109
0.0288053
0.0287914
0.028778
0.0287649
0.0287522
0.02874
0.0287282
0.0287169
0.0287061
0.0286959
0.0286862
0.028677
0.0286684
0.0286604
0.028653
0.0286463
0.0286401
0.0286346
0.0286298
0.0286256
0.0286221
0.0286193
0.0286171
0.0286156
0.0286149
0.0286148
0.0286154
0.0286167
0.0286187
0.0286213
0.0286247
0.0286287
0.0286335
0.0286389
0.0288336
0.0288196
0.028806
0.0287929
0.0287801
0.0287679
0.0287561
0.0287448
0.0287341
0.0287238
0.0287141
0.028705
0.0286964
0.0286885
0.0286811
0.0286743
0.0286682
0.0286627
0.0286579
0.0286537
0.0286502
0.0286474
0.0286452
0.0286437
0.028643
0.0286429
0.0286435
0.0286448
0.0286467
0.0286494
0.0286527
0.0286568
0.0286615
0.0286669
0.0288624
0.0288481
0.0288344
0.0288211
0.0288083
0.028796
0.0287841
0.0287728
0.028762
0.0287518
0.0287421
0.028733
0.0287245
0.0287165
0.0287092
0.0287024
0.0286963
0.0286908
0.028686
0.0286818
0.0286783
0.0286755
0.0286734
0.0286719
0.0286711
0.028671
0.0286716
0.0286729
0.0286749
0.0286775
0.0286808
0.0286848
0.0286895
0.0286949
0.0288916
0.0288771
0.0288632
0.0288498
0.0288368
0.0288244
0.0288124
0.028801
0.0287902
0.0287799
0.0287702
0.0287611
0.0287525
0.0287446
0.0287372
0.0287305
0.0287244
0.028719
0.0287142
0.02871
0.0287065
0.0287037
0.0287015
0.0287001
0.0286993
0.0286992
0.0286998
0.0287011
0.028703
0.0287056
0.0287089
0.0287129
0.0287176
0.028723
0.0289213
0.0289066
0.0288925
0.0288789
0.0288658
0.0288532
0.0288412
0.0288296
0.0288187
0.0288083
0.0287985
0.0287893
0.0287807
0.0287728
0.0287654
0.0287587
0.0287526
0.0287471
0.0287423
0.0287382
0.0287347
0.0287319
0.0287297
0.0287283
0.0287275
0.0287274
0.028728
0.0287292
0.0287312
0.0287338
0.0287371
0.0287411
0.0287457
0.0287512
0.0289515
0.0289366
0.0289223
0.0289085
0.0288952
0.0288825
0.0288703
0.0288587
0.0288476
0.0288371
0.0288272
0.028818
0.0288093
0.0288012
0.0287938
0.028787
0.0287809
0.0287754
0.0287706
0.0287664
0.0287629
0.0287601
0.028758
0.0287565
0.0287557
0.0287556
0.0287562
0.0287575
0.0287594
0.028762
0.0287653
0.0287693
0.0287741
0.0287797
0.0287862
0.0289822
0.0289671
0.0289526
0.0289386
0.0289252
0.0289123
0.0289
0.0288882
0.028877
0.0288664
0.0288564
0.028847
0.0288382
0.0288301
0.0288226
0.0288157
0.0288095
0.028804
0.0287991
0.0287949
0.0287914
0.0287885
0.0287864
0.0287849
0.0287841
0.028784
0.0287846
0.0287859
0.0287879
0.0287905
0.0287939
0.0287979
0.0288028
0.0288086
0.0288153
0.0290135
0.0289981
0.0289834
0.0289693
0.0289557
0.0289426
0.0289301
0.0289182
0.0289069
0.0288962
0.028886
0.0288765
0.0288676
0.0288594
0.0288518
0.0288449
0.0288386
0.028833
0.028828
0.0288238
0.0288202
0.0288173
0.0288151
0.0288136
0.0288128
0.0288127
0.0288134
0.0288147
0.0288167
0.0288194
0.0288228
0.0288269
0.0288319
0.0288379
0.0288447
0.0290452
0.0290297
0.0290148
0.0290004
0.0289866
0.0289734
0.0289608
0.0289487
0.0289373
0.0289264
0.0289162
0.0289065
0.0288975
0.0288892
0.0288815
0.0288744
0.0288681
0.0288624
0.0288574
0.028853
0.0288494
0.0288465
0.0288443
0.0288428
0.028842
0.0288419
0.0288425
0.0288438
0.0288459
0.0288487
0.0288522
0.0288564
0.0288616
0.0288677
0.0290776
0.0290618
0.0290467
0.0290321
0.0290181
0.0290048
0.028992
0.0289798
0.0289682
0.0289572
0.0289468
0.028937
0.0289279
0.0289195
0.0289117
0.0289045
0.028898
0.0288923
0.0288872
0.0288828
0.0288791
0.0288761
0.0288739
0.0288724
0.0288716
0.0288715
0.0288721
0.0288735
0.0288756
0.0288784
0.028882
0.0288864
0.0288917
0.028898
0.0291105
0.0290945
0.0290791
0.0290643
0.0290502
0.0290366
0.0290237
0.0290113
0.0289996
0.0289884
0.0289779
0.028968
0.0289588
0.0289502
0.0289423
0.0289351
0.0289285
0.0289226
0.0289175
0.028913
0.0289093
0.0289063
0.028904
0.0289025
0.0289017
0.0289016
0.0289022
0.0289036
0.0289058
0.0289087
0.0289124
0.028917
0.0289225
0.028929
0.0291439
0.0291277
0.0291121
0.0290971
0.0290828
0.029069
0.0290559
0.0290434
0.0290315
0.0290202
0.0290096
0.0289996
0.0289902
0.0289815
0.0289735
0.0289662
0.0289595
0.0289535
0.0289483
0.0289438
0.02894
0.0289369
0.0289346
0.028933
0.0289322
0.0289322
0.0289329
0.0289343
0.0289365
0.0289395
0.0289434
0.0289482
0.0289539
0.0289605
0.029178
0.0291615
0.0291457
0.0291305
0.029116
0.029102
0.0290887
0.029076
0.029064
0.0290525
0.0290418
0.0290316
0.0290221
0.0290133
0.0290052
0.0289977
0.028991
0.0289849
0.0289796
0.028975
0.0289712
0.0289681
0.0289657
0.0289641
0.0289633
0.0289633
0.028964
0.0289655
0.0289678
0.0289709
0.0289749
0.0289799
0.0289859
0.0292127
0.029196
0.0291799
0.0291645
0.0291497
0.0291356
0.0291221
0.0291092
0.029097
0.0290854
0.0290745
0.0290642
0.0290546
0.0290457
0.0290374
0.0290299
0.029023
0.0290169
0.0290115
0.0290068
0.0290029
0.0289997
0.0289973
0.0289957
0.0289949
0.0289949
0.0289956
0.0289972
0.0289995
0.0290028
0.029007
0.0290122
0.0290183
0.0292479
0.029231
0.0292147
0.0291991
0.0291841
0.0291698
0.0291561
0.029143
0.0291306
0.0291189
0.0291078
0.0290974
0.0290877
0.0290786
0.0290702
0.0290625
0.0290556
0.0290493
0.0290438
0.0290391
0.0290351
0.0290319
0.0290295
0.0290279
0.0290271
0.029027
0.0290278
0.0290294
0.0290319
0.0290352
0.0290396
0.0290449
0.0292838
0.0292666
0.0292501
0.0292343
0.0292191
0.0292045
0.0291906
0.0291774
0.0291648
0.0291529
0.0291417
0.0291311
0.0291213
0.0291121
0.0291036
0.0290958
0.0290887
0.0290823
0.0290768
0.0290719
0.0290679
0.0290646
0.0290622
0.0290606
0.0290597
0.0290597
0.0290605
0.0290622
0.0290647
0.0290682
0.0290726
0.029078
0.0293201
0.0293028
0.0292861
0.02927
0.0292546
0.0292399
0.0292258
0.0292124
0.0291997
0.0291876
0.0291762
0.0291655
0.0291555
0.0291461
0.0291375
0.0291296
0.0291224
0.0291159
0.0291102
0.0291053
0.0291012
0.0290979
0.0290954
0.0290938
0.029093
0.029093
0.0290938
0.0290956
0.0290982
0.0291017
0.0291062
0.0291116
0.0293571
0.0293395
0.0293226
0.0293064
0.0292908
0.0292758
0.0292616
0.029248
0.0292351
0.0292228
0.0292113
0.0292004
0.0291902
0.0291808
0.029172
0.029164
0.0291566
0.0291501
0.0291443
0.0291393
0.0291351
0.0291318
0.0291293
0.0291276
0.0291268
0.0291268
0.0291277
0.0291295
0.0291322
0.0291357
0.0291403
0.0291456
0.0293946
0.0293768
0.0293597
0.0293432
0.0293274
0.0293123
0.0292979
0.0292841
0.029271
0.0292587
0.0292469
0.0292359
0.0292256
0.029216
0.0292071
0.0291989
0.0291915
0.0291849
0.029179
0.0291739
0.0291697
0.0291662
0.0291637
0.029162
0.0291612
0.0291612
0.0291622
0.029164
0.0291667
0.0291703
0.0291749
0.0291802
0.0294328
0.0294147
0.0293973
0.0293806
0.0293646
0.0293493
0.0293347
0.0293208
0.0293076
0.029295
0.0292832
0.029272
0.0292616
0.0292518
0.0292428
0.0292345
0.029227
0.0292202
0.0292142
0.0292091
0.0292048
0.0292013
0.0291987
0.029197
0.0291962
0.0291962
0.0291972
0.0291991
0.0292019
0.0292055
0.02921
0.0292153
0.0294719
0.0294534
0.0294357
0.0294187
0.0294025
0.0293869
0.0293721
0.029358
0.0293446
0.0293319
0.0293199
0.0293087
0.0292981
0.0292882
0.0292791
0.0292707
0.029263
0.0292562
0.0292501
0.0292448
0.0292404
0.0292369
0.0292343
0.0292326
0.0292317
0.0292318
0.0292329
0.0292348
0.0292376
0.0292412
0.0292457
0.029251
0.0295122
0.0294932
0.029475
0.0294576
0.0294411
0.0294252
0.0294102
0.0293958
0.0293823
0.0293694
0.0293573
0.0293458
0.0293351
0.0293252
0.0293159
0.0293074
0.0292996
0.0292926
0.0292865
0.0292812
0.0292767
0.0292731
0.0292705
0.0292687
0.0292679
0.029268
0.0292691
0.029271
0.0292738
0.0292775
0.0292819
0.0292872
0.0295539
0.0295343
0.0295156
0.0294977
0.0294807
0.0294644
0.029449
0.0294344
0.0294206
0.0294075
0.0293952
0.0293836
0.0293727
0.0293626
0.0293532
0.0293446
0.0293367
0.0293297
0.0293234
0.029318
0.0293135
0.0293099
0.0293072
0.0293054
0.0293046
0.0293047
0.0293058
0.0293078
0.0293106
0.0293142
0.0293186
0.0293239
0.0295968
0.0295768
0.0295575
0.0295391
0.0295215
0.0295048
0.029489
0.029474
0.0294598
0.0294464
0.0294338
0.029422
0.029411
0.0294007
0.0293911
0.0293824
0.0293744
0.0293672
0.0293609
0.0293554
0.0293508
0.0293471
0.0293444
0.0293426
0.0293418
0.029342
0.0293431
0.029345
0.0293479
0.0293515
0.0293558
0.0293611
0.0296404
0.0296202
0.0296007
0.0295818
0.0295638
0.0295466
0.0295302
0.0295147
0.0295001
0.0294864
0.0294735
0.0294614
0.0294501
0.0294395
0.0294298
0.0294208
0.0294127
0.0294054
0.0293989
0.0293933
0.0293887
0.0293849
0.0293822
0.0293804
0.0293796
0.0293797
0.0293808
0.0293829
0.0293857
0.0293893
0.0293936
0.0293991
0.0296833
0.0296637
0.0296444
0.0296255
0.0296072
0.0295896
0.0295728
0.0295569
0.0295418
0.0295277
0.0295143
0.0295019
0.0294902
0.0294794
0.0294694
0.0294602
0.0294518
0.0294443
0.0294377
0.029432
0.0294272
0.0294234
0.0294206
0.0294188
0.029418
0.0294181
0.0294193
0.0294213
0.0294242
0.0294278
0.0294323
0.0294379
0.0297243
0.0297058
0.0296873
0.029669
0.0296509
0.0296333
0.0296164
0.0296002
0.0295848
0.0295703
0.0295566
0.0295438
0.0295318
0.0295206
0.0295102
0.0295007
0.0294921
0.0294843
0.0294775
0.0294716
0.0294667
0.0294628
0.0294599
0.029458
0.0294572
0.0294574
0.0294586
0.0294607
0.0294637
0.0294674
0.0294721
0.0294781
0.0297623
0.0297452
0.029728
0.0297108
0.0296936
0.0296766
0.02966
0.029644
0.0296286
0.0296139
0.0296
0.0295869
0.0295746
0.0295631
0.0295525
0.0295426
0.0295337
0.0295257
0.0295186
0.0295125
0.0295073
0.0295033
0.0295003
0.0294984
0.0294975
0.0294978
0.029499
0.0295012
0.0295043
0.0295084
0.0295134
0.0295198
0.029798
0.0297817
0.0297657
0.0297498
0.0297339
0.0297179
0.0297022
0.0296869
0.0296719
0.0296576
0.0296438
0.0296308
0.0296184
0.0296068
0.0295959
0.0295859
0.0295767
0.0295684
0.0295611
0.0295547
0.0295494
0.0295452
0.0295421
0.0295401
0.0295392
0.0295395
0.0295408
0.0295431
0.0295465
0.0295508
0.0295564
0.029563
0.0298341
0.0298169
0.0298011
0.029786
0.0297711
0.0297563
0.0297417
0.0297274
0.0297134
0.0296998
0.0296867
0.0296741
0.0296621
0.0296506
0.0296398
0.0296298
0.0296205
0.0296121
0.0296047
0.0295982
0.0295927
0.0295884
0.0295852
0.0295831
0.0295823
0.0295826
0.029584
0.0295864
0.02959
0.0295947
0.0296007
0.0298766
0.0298552
0.0298372
0.0298213
0.0298064
0.0297921
0.0297783
0.0297649
0.0297519
0.0297393
0.0297271
0.0297154
0.0297041
0.0296932
0.0296829
0.0296732
0.0296642
0.029656
0.0296487
0.0296422
0.0296367
0.0296324
0.0296291
0.0296271
0.0296262
0.0296266
0.029628
0.0296306
0.0296343
0.0296392
0.0296453
0.0299383
0.0299054
0.0298805
0.0298606
0.0298433
0.0298278
0.0298136
0.0298003
0.0297878
0.0297759
0.0297645
0.0297536
0.0297432
0.0297332
0.0297237
0.0297147
0.0297062
0.0296985
0.0296915
0.0296854
0.0296801
0.0296759
0.0296728
0.0296708
0.02967
0.0296703
0.0296718
0.0296744
0.0296781
0.0296829
0.0300489
0.0299879
0.0299452
0.029914
0.0298894
0.0298691
0.0298519
0.0298369
0.0298234
0.0298112
0.0297998
0.0297893
0.0297795
0.0297701
0.0297613
0.029753
0.0297453
0.0297382
0.0297319
0.0297262
0.0297213
0.0297174
0.0297145
0.0297127
0.029712
0.0297124
0.0297138
0.0297163
0.0297198
0.0297243
0.0302749
0.0301499
0.0300643
0.0300049
0.0299613
0.0299283
0.0299026
0.0298818
0.0298645
0.0298496
0.0298367
0.0298252
0.0298149
0.0298054
0.0297967
0.0297887
0.0297814
0.0297749
0.029769
0.0297638
0.0297594
0.0297559
0.0297533
0.0297517
0.0297511
0.0297515
0.0297528
0.0297551
0.0297584
0.0297624
0.0307359
0.0304886
0.0303119
0.0301879
0.0300987
0.0300341
0.0299866
0.0299507
0.0299229
0.0299006
0.0298824
0.0298672
0.0298544
0.0298431
0.0298332
0.0298245
0.0298168
0.0298101
0.0298043
0.0297992
0.029795
0.0297916
0.0297892
0.0297878
0.0297872
0.0297876
0.0297889
0.0297911
0.0297942
0.0297979
0.0315734
0.0311455
0.0308161
0.030571
0.0303875
0.0302525
0.0301536
0.0300811
0.0300268
0.0299856
0.0299538
0.0299287
0.0299086
0.0298919
0.029878
0.0298663
0.0298565
0.0298482
0.0298414
0.0298356
0.0298309
0.0298272
0.0298247
0.0298232
0.0298226
0.029823
0.0298244
0.0298268
0.0298301
0.029834
0.0328777
0.0322436
0.0317189
0.0313014
0.0309665
0.0307057
0.030506
0.0303555
0.0302418
0.0301557
0.0300907
0.0300408
0.0300021
0.0299713
0.0299469
0.0299273
0.0299114
0.0298986
0.0298885
0.0298801
0.0298735
0.0298685
0.0298651
0.0298631
0.0298624
0.0298629
0.0298647
0.0298677
0.0298721
0.0298773
0.03465
0.0338216
0.0330996
0.0324931
0.0319732
0.0315425
0.0311917
0.0309122
0.0306905
0.0305159
0.0303807
0.0302753
0.0301934
0.0301286
0.0300781
0.0300385
0.030007
0.0299825
0.0299635
0.0299484
0.0299368
0.0299281
0.0299223
0.0299188
0.0299174
0.0299183
0.0299211
0.0299261
0.0299334
0.0299423
0.0368308
0.0358407
0.0349469
0.0341684
0.0334689
0.0328582
0.0323349
0.0318937
0.0315244
0.0312169
0.0309668
0.0307629
0.0305982
0.0304637
0.0303568
0.0302717
0.0302037
0.0301508
0.0301102
0.0300782
0.0300538
0.0300358
0.0300236
0.0300164
0.0300134
0.0300149
0.0300203
0.0300303
0.030045
0.030064
0.0393388
0.0382219
0.0371939
0.0362747
0.0354231
0.0346531
0.0339687
0.0333689
0.0328421
0.0323826
0.031991
0.0316558
0.0313717
0.0311279
0.0309256
0.0307584
0.0306202
0.0305097
0.0304232
0.0303539
0.0303003
0.0302608
0.0302336
0.0302173
0.0302105
0.0302136
0.0302254
0.0302471
0.0302793
0.0303213
0.0421123
0.0408962
0.0397578
0.038732
0.0377644
0.0368654
0.0360455
0.0353132
0.0346469
0.0340453
0.0335143
0.0330432
0.0326289
0.032255
0.0319317
0.0316531
0.0314128
0.0312132
0.0310516
0.0309177
0.0308116
0.0307315
0.0306753
0.0306415
0.030627
0.0306333
0.0306575
0.0307021
0.030768
0.0308529
0.0450976
0.043807
0.0425783
0.0414719
0.0404091
0.039414
0.0384874
0.0376481
0.0368735
0.0361544
0.0355063
0.034917
0.0343842
0.0338875
0.0334423
0.0330473
0.0326933
0.0323894
0.0321358
0.0319179
0.0317398
0.0316024
0.0315041
0.0314443
0.0314181
0.0314297
0.0314721
0.0315508
0.0316653
0.03181
0.0482717
0.046911
0.0456113
0.0444347
0.0433005
0.0422229
0.0412178
0.0402969
0.039439
0.0386276
0.0378842
0.0372058
0.036579
0.0359794
0.0354275
0.0349319
0.0344748
0.0340706
0.0337282
0.0334242
0.0331696
0.0329696
0.0328241
0.0327352
0.032696
0.0327137
0.0327774
0.0328939
0.033064
0.033272
0.0516034
0.0501877
0.0488195
0.047586
0.0463938
0.0452511
0.0441804
0.043194
0.0422657
0.0413876
0.0405668
0.0398215
0.0391228
0.0384427
0.0378102
0.0372326
0.0366946
0.0362068
0.0357883
0.0354091
0.0350867
0.0348291
0.0346399
0.0345246
0.0344733
0.0344973
0.0345807
0.0347342
0.034955
0.0352187
0.0550558
0.0536059
0.052181
0.0508959
0.0496597
0.0484657
0.0473313
0.046291
0.0453048
0.0443718
0.0434935
0.0426968
0.0419392
0.0412016
0.0405061
0.0398622
0.0392621
0.0387138
0.0382372
0.0377934
0.0374197
0.0371147
0.0368894
0.0367531
0.0366876
0.0367214
0.0368171
0.0370049
0.0372652
0.0375729
0.0586048
0.0571383
0.0556659
0.0543427
0.0530637
0.0518279
0.0506491
0.0495618
0.0485233
0.0475439
0.046623
0.0457849
0.0449805
0.0441958
0.0434492
0.0427502
0.042101
0.041509
0.0409877
0.0404981
0.0400795
0.0397424
0.0394838
0.039334
0.0392591
0.0392976
0.0394063
0.039622
0.0399141
0.0402546
0.0622382
0.0607534
0.0592488
0.0578899
0.0565781
0.0553095
0.054102
0.0529709
0.0518897
0.0508761
0.04992
0.0490467
0.0482108
0.0473795
0.0465906
0.0458539
0.0451656
0.0445354
0.0439779
0.0434573
0.0429991
0.0426415
0.0423561
0.0421913
0.0421137
0.0421515
0.0422746
0.0425069
0.042824
0.0431887
0.065937
0.0644343
0.0629092
0.0615168
0.0601879
0.0588853
0.0576544
0.0564935
0.0553825
0.0543418
0.0533533
0.0524508
0.0515906
0.0507254
0.0498997
0.0491356
0.0484204
0.0477554
0.0471673
0.0466243
0.046138
0.0457583
0.0454529
0.0452818
0.0452013
0.0452391
0.0453683
0.0456119
0.0459519
0.046339
0.0696801
0.0681668
0.0666306
0.0652138
0.0638636
0.0625343
0.0612854
0.0601011
0.0589659
0.0579131
0.0569
0.0559676
0.0550904
0.0541979
0.0533524
0.0525663
0.0518243
0.0511418
0.0505318
0.0499727
0.0494556
0.0490643
0.0487407
0.0485628
0.0484828
0.0485173
0.0486588
0.0489066
0.0492651
0.049673
0.0734625
0.07194
0.0704003
0.068965
0.0675918
0.0662485
0.0649856
0.0637832
0.0626284
0.0615588
0.0605287
0.059572
0.0586841
0.05777
0.0569096
0.0561091
0.0553547
0.0546536
0.0540377
0.0534604
0.0529228
0.052522
0.0521913
0.052002
0.0519257
0.0519623
0.052107
0.0523619
0.0527296
0.0531488
0.0772805
0.0757463
0.0742089
0.0727518
0.0713688
0.0700082
0.0687312
0.0675226
0.0663514
0.0652627
0.0642196
0.0632469
0.0623504
0.0614271
0.0605569
0.0597401
0.0589804
0.0582732
0.0576473
0.0570628
0.0565136
0.0561101
0.0557641
0.0555719
0.0555039
0.0555361
0.0556781
0.0559463
0.0563197
0.0567466
0.0811287
0.0795804
0.0780455
0.0765685
0.0751768
0.0738082
0.0725205
0.0713022
0.0701213
0.0690146
0.067966
0.06698
0.0660721
0.0651491
0.064265
0.0634385
0.0626805
0.0619711
0.0613467
0.0607504
0.0602015
0.0597919
0.0594433
0.059241
0.0591845
0.0592176
0.0593542
0.0596275
0.0599996
0.060434
0.0850045
0.0834451
0.0819105
0.0804173
0.0790185
0.0776408
0.0763374
0.0751113
0.0739282
0.0728001
0.0717472
0.0707575
0.0698363
0.0689138
0.068028
0.0671966
0.0664344
0.0657344
0.0651068
0.0645042
0.0639655
0.0635513
0.0632058
0.0629971
0.0629421
0.0629746
0.0631129
0.0633901
0.06375
0.0641874
0.0858014
0.0842937
0.0828828
0.0814952
0.080185
0.0789458
0.077759
0.0766198
0.0755597
0.0745701
0.0736405
0.0727153
0.0677889
0.0673751
0.0670254
0.0668121
0.0667695
0.0667916
0.066928
0.0672109
0.067555
0.0680004
0.0280383
0.0280358
0.0280339
0.0280326
0.028032
0.028032
0.0280326
0.0280339
0.0280358
0.0280383
0.0280655
0.0280623
0.0280598
0.0280579
0.0280566
0.0280559
0.0280559
0.0280566
0.0280579
0.0280598
0.0280623
0.0280655
0.0280693
0.0280738
0.0280788
0.0280845
0.0280907
0.0280976
0.028105
0.028113
0.0281216
0.0280982
0.0280938
0.0280899
0.0280867
0.0280842
0.0280822
0.0280809
0.0280803
0.0280803
0.0280809
0.0280822
0.0280841
0.0280867
0.0280899
0.0280938
0.0280982
0.0281033
0.0281091
0.0281154
0.0281223
0.0281298
0.0281379
0.0281466
0.0281558
0.0281655
0.0281758
0.0281865
0.0281402
0.0281339
0.0281282
0.0281231
0.0281186
0.0281147
0.0281115
0.0281089
0.0281069
0.0281056
0.0281049
0.0281049
0.0281056
0.0281069
0.0281088
0.0281114
0.0281147
0.0281185
0.0281231
0.0281282
0.028134
0.0281403
0.0281473
0.0281549
0.0281631
0.0281718
0.0281811
0.0281909
0.0282012
0.0282121
0.0282235
0.0282353
0.0282476
0.02818
0.0281725
0.0281655
0.0281591
0.0281534
0.0281482
0.0281437
0.0281398
0.0281365
0.0281339
0.0281319
0.0281306
0.0281299
0.0281299
0.0281305
0.0281319
0.0281338
0.0281364
0.0281397
0.0281436
0.0281482
0.0281534
0.0281592
0.0281656
0.0281726
0.0281803
0.0281885
0.0281973
0.0282066
0.0282165
0.028227
0.0282379
0.0282493
0.0282613
0.0282737
0.0282865
0.0282998
0.0283135
0.0282226
0.0282139
0.0282057
0.0281981
0.0281911
0.0281846
0.0281788
0.0281736
0.0281691
0.0281651
0.0281618
0.0281592
0.0281572
0.0281558
0.0281552
0.0281552
0.0281558
0.0281571
0.0281591
0.0281617
0.028165
0.028169
0.0281736
0.0281788
0.0281846
0.0281911
0.0281982
0.0282059
0.0282142
0.028223
0.0282324
0.0282424
0.0282529
0.0282639
0.0282754
0.0282874
0.0282999
0.0283128
0.0283262
0.0283399
0.028258
0.0282486
0.0282398
0.0282316
0.0282239
0.0282169
0.0282104
0.0282046
0.0281993
0.0281947
0.0281907
0.0281874
0.0281848
0.0281827
0.0281814
0.0281807
0.0281807
0.0281814
0.0281827
0.0281847
0.0281873
0.0281906
0.0281946
0.0281992
0.0282045
0.0282104
0.0282169
0.028224
0.0282318
0.0282401
0.028249
0.0282585
0.0282685
0.0282791
0.0282902
0.0283017
0.0283138
0.0283263
0.0283393
0.0283527
0.0283666
0.0282941
0.0282842
0.0282748
0.028266
0.0282577
0.02825
0.0282429
0.0282364
0.0282305
0.0282253
0.0282206
0.0282166
0.0282133
0.0282106
0.0282086
0.0282072
0.0282065
0.0282065
0.0282072
0.0282085
0.0282105
0.0282131
0.0282165
0.0282205
0.0282251
0.0282304
0.0282363
0.0282429
0.0282501
0.0282579
0.0282662
0.0282752
0.0282847
0.0282948
0.0283054
0.0283166
0.0283282
0.0283403
0.0283529
0.028366
0.0283794
0.0283933
0.0283311
0.0283206
0.0283107
0.0283013
0.0282924
0.0282841
0.0282763
0.0282692
0.0282627
0.0282567
0.0282514
0.0282468
0.0282428
0.0282394
0.0282367
0.0282346
0.0282333
0.0282326
0.0282326
0.0282332
0.0282345
0.0282365
0.0282392
0.0282426
0.0282466
0.0282512
0.0282566
0.0282625
0.0282691
0.0282763
0.0282842
0.0282926
0.0283016
0.0283112
0.0283213
0.028332
0.0283432
0.0283549
0.028367
0.0283797
0.0283928
0.0284063
0.0284202
0.0283689
0.0283578
0.0283473
0.0283373
0.0283279
0.028319
0.0283106
0.0283028
0.0282957
0.0282891
0.0282831
0.0282778
0.0282731
0.0282691
0.0282657
0.028263
0.0282609
0.0282596
0.0282589
0.0282588
0.0282595
0.0282608
0.0282628
0.0282655
0.0282689
0.0282729
0.0282776
0.0282829
0.0282889
0.0282955
0.0283028
0.0283107
0.0283191
0.0283282
0.0283378
0.028348
0.0283587
0.0283699
0.0283817
0.0283939
0.0284066
0.0284197
0.0284333
0.0284473
0.0283958
0.0283847
0.0283742
0.0283641
0.0283547
0.0283457
0.0283373
0.0283295
0.0283223
0.0283157
0.0283098
0.0283044
0.0282997
0.0282957
0.0282923
0.0282895
0.0282874
0.0282861
0.0282853
0.0282853
0.028286
0.0282873
0.0282893
0.028292
0.0282954
0.0282994
0.0283041
0.0283095
0.0283155
0.0283222
0.0283294
0.0283373
0.0283458
0.0283549
0.0283646
0.0283748
0.0283856
0.0283968
0.0284086
0.0284209
0.0284336
0.0284468
0.0284604
0.0284744
0.0284343
0.0284228
0.0284117
0.0284012
0.0283911
0.0283816
0.0283726
0.0283642
0.0283564
0.0283492
0.0283426
0.0283366
0.0283312
0.0283265
0.0283224
0.028319
0.0283162
0.0283142
0.0283127
0.028312
0.028312
0.0283126
0.028314
0.028316
0.0283187
0.0283221
0.0283261
0.0283309
0.0283362
0.0283423
0.028349
0.0283563
0.0283642
0.0283727
0.0283818
0.0283915
0.0284018
0.0284126
0.0284239
0.0284357
0.028448
0.0284608
0.028474
0.0284876
0.0285017
0.0284735
0.0284615
0.02845
0.0284389
0.0284283
0.0284182
0.0284087
0.0283997
0.0283913
0.0283835
0.0283762
0.0283696
0.0283636
0.0283582
0.0283534
0.0283493
0.0283459
0.0283431
0.028341
0.0283396
0.0283389
0.0283389
0.0283395
0.0283408
0.0283429
0.0283456
0.028349
0.028353
0.0283578
0.0283632
0.0283692
0.0283759
0.0283832
0.0283912
0.0283997
0.0284089
0.0284186
0.0284289
0.0284397
0.0284511
0.0284629
0.0284752
0.028488
0.0285013
0.0285149
0.028529
0.0285008
0.0284888
0.0284772
0.0284661
0.0284555
0.0284455
0.0284359
0.0284269
0.0284185
0.0284106
0.0284034
0.0283967
0.0283907
0.0283853
0.0283805
0.0283764
0.028373
0.0283702
0.0283681
0.0283667
0.0283659
0.0283659
0.0283665
0.0283679
0.0283699
0.0283726
0.028376
0.0283801
0.0283848
0.0283902
0.0283963
0.028403
0.0284104
0.0284183
0.0284269
0.0284361
0.0284458
0.0284561
0.028467
0.0284783
0.0284902
0.0285026
0.0285154
0.0285287
0.0285423
0.0285564
0.0285407
0.0285282
0.0285162
0.0285046
0.0284935
0.0284829
0.0284728
0.0284633
0.0284543
0.0284458
0.028438
0.0284307
0.028424
0.028418
0.0284126
0.0284078
0.0284037
0.0284002
0.0283974
0.0283953
0.0283939
0.0283931
0.0283931
0.0283937
0.0283951
0.0283971
0.0283998
0.0284032
0.0284073
0.028412
0.0284175
0.0284235
0.0284303
0.0284376
0.0284456
0.0284542
0.0284634
0.0284731
0.0284835
0.0284943
0.0285057
0.0285176
0.02853
0.0285428
0.0285561
0.0285698
0.0285839
0.0285681
0.0285557
0.0285436
0.0285321
0.028521
0.0285104
0.0285003
0.0284907
0.0284817
0.0284733
0.0284654
0.0284581
0.0284514
0.0284454
0.02844
0.0284352
0.028431
0.0284276
0.0284248
0.0284227
0.0284212
0.0284205
0.0284204
0.0284211
0.0284224
0.0284244
0.0284271
0.0284305
0.0284346
0.0284394
0.0284448
0.0284509
0.0284576
0.028465
0.028473
0.0284816
0.0284908
0.0285006
0.0285109
0.0285218
0.0285332
0.0285451
0.0285575
0.0285704
0.0285836
0.0285973
0.0286114
0.0285957
0.0285832
0.0285712
0.0285596
0.0285485
0.0285379
0.0285278
0.0285183
0.0285093
0.0285008
0.0284929
0.0284857
0.028479
0.0284729
0.0284675
0.0284627
0.0284586
0.0284551
0.0284523
0.0284501
0.0284487
0.028448
0.0284479
0.0284485
0.0284499
0.0284519
0.0284546
0.028458
0.0284621
0.0284668
0.0284723
0.0284784
0.0284851
0.0284925
0.0285005
0.0285091
0.0285183
0.0285281
0.0285384
0.0285493
0.0285607
0.0285727
0.0285851
0.0285979
0.0286112
0.0286249
0.028639
0.0286232
0.0286108
0.0285988
0.0285872
0.0285761
0.0285656
0.0285555
0.0285459
0.0285369
0.0285285
0.0285206
0.0285133
0.0285066
0.0285006
0.0284951
0.0284903
0.0284862
0.0284827
0.0284799
0.0284778
0.0284763
0.0284755
0.0284755
0.0284761
0.0284774
0.0284795
0.0284822
0.0284856
0.0284897
0.0284944
0.0284998
0.0285059
0.0285127
0.0285201
0.0285281
0.0285367
0.0285459
0.0285557
0.028566
0.0285769
0.0285884
0.0286003
0.0286127
0.0286256
0.0286388
0.0286525
0.0286666
0.0286508
0.0286384
0.0286264
0.0286149
0.0286038
0.0285933
0.0285832
0.0285736
0.0285646
0.0285562
0.0285483
0.0285411
0.0285344
0.0285283
0.0285229
0.0285181
0.0285139
0.0285104
0.0285076
0.0285055
0.028504
0.0285032
0.0285032
0.0285038
0.0285051
0.0285071
0.0285098
0.0285132
0.0285173
0.0285221
0.0285275
0.0285336
0.0285403
0.0285477
0.0285557
0.0285643
0.0285735
0.0285833
0.0285937
0.0286046
0.028616
0.028628
0.0286404
0.0286532
0.0286665
0.0286802
0.0286942
0.0286785
0.0286661
0.0286541
0.0286426
0.0286316
0.028621
0.028611
0.0286014
0.0285924
0.028584
0.0285762
0.0285689
0.0285622
0.0285561
0.0285507
0.0285459
0.0285417
0.0285382
0.0285354
0.0285333
0.0285318
0.028531
0.0285309
0.0285316
0.0285329
0.0285349
0.0285376
0.028541
0.0285451
0.0285498
0.0285553
0.0285613
0.0285681
0.0285755
0.0285834
0.0285921
0.0286013
0.0286111
0.0286214
0.0286323
0.0286437
0.0286557
0.0286681
0.0286809
0.0286942
0.0287079
0.0287219
0.0287061
0.0286938
0.0286819
0.0286704
0.0286593
0.0286488
0.0286388
0.0286293
0.0286203
0.0286119
0.028604
0.0285968
0.0285901
0.028584
0.0285786
0.0285738
0.0285696
0.0285661
0.0285633
0.0285611
0.0285597
0.0285589
0.0285588
0.0285594
0.0285607
0.0285627
0.0285654
0.0285688
0.0285729
0.0285777
0.0285831
0.0285892
0.0285959
0.0286033
0.0286112
0.0286198
0.028629
0.0286388
0.0286492
0.0286601
0.0286715
0.0286834
0.0286958
0.0287087
0.0287219
0.0287356
0.0287495
0.0287338
0.0287215
0.0287096
0.0286982
0.0286872
0.0286766
0.0286666
0.0286571
0.0286482
0.0286398
0.028632
0.0286247
0.0286181
0.028612
0.0286066
0.0286018
0.0285976
0.0285941
0.0285913
0.0285891
0.0285876
0.0285868
0.0285868
0.0285874
0.0285887
0.0285907
0.0285934
0.0285967
0.0286008
0.0286055
0.028611
0.028617
0.0286237
0.0286311
0.0286391
0.0286477
0.0286569
0.0286666
0.028677
0.0286879
0.0286993
0.0287112
0.0287236
0.0287364
0.0287497
0.0287633
0.0287772
0.0287615
0.0287493
0.0287374
0.028726
0.028715
0.0287045
0.0286945
0.0286851
0.0286761
0.0286678
0.0286599
0.0286527
0.0286461
0.02864
0.0286346
0.0286298
0.0286256
0.0286221
0.0286193
0.0286171
0.0286156
0.0286148
0.0286148
0.0286154
0.0286166
0.0286186
0.0286213
0.0286247
0.0286288
0.0286335
0.0286389
0.028645
0.0286517
0.028659
0.028667
0.0286755
0.0286847
0.0286945
0.0287048
0.0287157
0.0287271
0.028739
0.0287514
0.0287642
0.0287775
0.0287911
0.0288052
0.0287894
0.0287771
0.0287652