/*--------------------------------*- C++ -*----------------------------------*\
  =========                 |
  \\      /  F ield         | OpenFOAM: The Open Source CFD Toolbox
   \\    /   O peration     | Website:  https://openfoam.org
    \\  /    A nd           | Version:  7
     \\/     M anipulation  |
\*---------------------------------------------------------------------------*/
FoamFile
{
    version     2.0;
    format      ascii;
    class       volScalarField;
    location    "160000";
    object      omega;
}
// * * * * * * * * * * * * * * * * * * * * * * * * * * * * * * * * * * * * * //

dimensions      [0 0 -1 0 0 0 0];

internalField   nonuniform List<scalar> 
4782
(
0.289246
0.298996
0.309257
0.320068
0.331468
0.343503
0.356221
0.369677
0.38393
0.399044
0.0950771
0.0970118
0.098998
0.101038
0.103133
0.105286
0.1075
0.109776
0.112117
0.114527
0.117007
0.119562
0.122194
0.124909
0.127708
0.130597
0.133579
0.136658
0.139838
0.143124
0.146521
0.150033
0.153667
0.157429
0.161324
0.165359
0.169543
0.173882
0.178384
0.183059
0.187916
0.192965
0.198217
0.203684
0.209378
0.215312
0.221502
0.227962
0.234709
0.241762
0.249139
0.256863
0.264955
0.273442
0.282349
0.291705
0.301544
0.311898
0.322806
0.33431
0.346453
0.359286
0.372863
0.387243
0.402492
0.0958478
0.0977987
0.0998015
0.101858
0.103971
0.106143
0.108375
0.110671
0.113033
0.115463
0.117965
0.120542
0.123198
0.125937
0.128762
0.131677
0.134686
0.137792
0.141001
0.144316
0.147744
0.151288
0.154955
0.15875
0.16268
0.166753
0.170974
0.175352
0.179896
0.184614
0.189515
0.194611
0.199911
0.205429
0.211175
0.217165
0.223412
0.229932
0.236742
0.243861
0.251308
0.259104
0.267272
0.275838
0.284829
0.294273
0.304204
0.314655
0.325666
0.337277
0.349534
0.362486
0.376189
0.390702
0.406092
0.096648
0.0986156
0.100636
0.10271
0.104842
0.107033
0.109285
0.111601
0.113983
0.116436
0.11896
0.121561
0.124242
0.127007
0.129858
0.1328
0.135837
0.138973
0.142211
0.145557
0.149016
0.152593
0.156294
0.160125
0.164092
0.168202
0.172463
0.176883
0.18147
0.186232
0.19118
0.196325
0.201676
0.207246
0.213048
0.219095
0.225402
0.231985
0.238862
0.246049
0.253568
0.26144
0.269688
0.278337
0.287415
0.296951
0.306978
0.317531
0.328648
0.340371
0.352746
0.365823
0.379657
0.394309
0.409845
0.0974773
0.0994622
0.1015
0.103593
0.105744
0.107954
0.110226
0.112563
0.114968
0.117443
0.119993
0.12262
0.125327
0.128118
0.130998
0.133968
0.137034
0.140199
0.143468
0.146847
0.150339
0.15395
0.157687
0.161554
0.16556
0.16971
0.174013
0.178476
0.183107
0.187917
0.192914
0.198109
0.203513
0.209139
0.214999
0.221107
0.227477
0.234127
0.241072
0.248332
0.255927
0.263878
0.27221
0.280947
0.290116
0.299749
0.309878
0.320537
0.331766
0.343607
0.356106
0.369315
0.383287
0.398084
0.413774
0.0974773
0.0994622
0.1015
0.103593
0.105744
0.107954
0.110226
0.112563
0.114968
0.117443
0.119993
0.12262
0.125327
0.128118
0.130998
0.133968
0.137034
0.140199
0.143468
0.146847
0.150339
0.15395
0.157687
0.161554
0.16556
0.16971
0.174013
0.178476
0.183107
0.187917
0.192914
0.198109
0.203513
0.209139
0.214999
0.221107
0.227477
0.234127
0.241072
0.248332
0.255927
0.263878
0.27221
0.280947
0.290116
0.299749
0.309878
0.320537
0.331766
0.343607
0.356106
0.369315
0.383287
0.398084
0.413774
0.096648
0.0986156
0.100636
0.10271
0.104842
0.107033
0.109285
0.111601
0.113983
0.116436
0.11896
0.121561
0.124242
0.127007
0.129858
0.1328
0.135837
0.138973
0.142211
0.145557
0.149016
0.152593
0.156294
0.160125
0.164092
0.168202
0.172463
0.176883
0.18147
0.186232
0.19118
0.196325
0.201676
0.207246
0.213048
0.219095
0.225402
0.231985
0.238862
0.246049
0.253568
0.26144
0.269688
0.278337
0.287415
0.296951
0.306978
0.317531
0.328648
0.340371
0.352746
0.365823
0.379657
0.394309
0.409845
0.42634
0.443873
0.462536
0.48243
0.0958478
0.0977987
0.0998015
0.101858
0.103971
0.106143
0.108375
0.110671
0.113033
0.115463
0.117965
0.120542
0.123198
0.125937
0.128762
0.131677
0.134686
0.137792
0.141001
0.144316
0.147744
0.151288
0.154955
0.15875
0.16268
0.166753
0.170974
0.175352
0.179896
0.184614
0.189515
0.194611
0.199911
0.205429
0.211175
0.217165
0.223412
0.229932
0.236742
0.243861
0.251308
0.259104
0.267272
0.275838
0.284829
0.294273
0.304204
0.314655
0.325666
0.337277
0.349534
0.362486
0.376189
0.390702
0.406092
0.422431
0.439801
0.458291
0.478001
0.499043
0.0950771
0.0970118
0.098998
0.101038
0.103133
0.105286
0.1075
0.109776
0.112117
0.114527
0.117007
0.119562
0.122194
0.124909
0.127708
0.130597
0.133579
0.136658
0.139838
0.143124
0.146521
0.150033
0.153667
0.157429
0.161324
0.165359
0.169543
0.173882
0.178384
0.183059
0.187916
0.192965
0.198217
0.203684
0.209378
0.215312
0.221502
0.227962
0.234709
0.241762
0.249139
0.256863
0.264955
0.273442
0.282349
0.291705
0.301544
0.311898
0.322806
0.33431
0.346453
0.359286
0.372863
0.387243
0.402492
0.418683
0.435896
0.454219
0.473752
0.494605
0.516904
0.540786
0.566411
0.593959
0.623635
0.655681
0.690373
0.728042
0.76908
0.81396
0.863267
0.91773
0.978301
1.04619
1.12288
1.21022
1.31066
1.42755
1.5655
1.73095
1.93307
2.18503
2.50604
2.92462
3.48417
4.25302
5.34343
6.95033
9.43623
13.5369
20.9264
36.0555
73.7353
203.791
1024
0.0943366
0.0962559
0.0982262
0.100249
0.102328
0.104464
0.106659
0.108916
0.111239
0.113628
0.116088
0.118621
0.121231
0.123922
0.126697
0.129561
0.132517
0.13557
0.138723
0.14198
0.145348
0.14883
0.152433
0.156162
0.160023
0.164024
0.168171
0.172472
0.176935
0.181569
0.186384
0.191388
0.196594
0.202013
0.207656
0.213538
0.219672
0.226074
0.232761
0.239751
0.247062
0.254717
0.262737
0.271147
0.279974
0.289246
0.298996
0.309258
0.320068
0.331468
0.343503
0.356222
0.369677
0.38393
0.399044
0.415092
0.432153
0.450316
0.469679
0.490352
0.512458
0.536136
0.561542
0.588855
0.61828
0.650054
0.684452
0.7218
0.762485
0.806975
0.855843
0.909809
0.969801
1.03702
1.11293
1.19936
1.29871
1.41429
1.5506
1.71399
1.91349
2.16207
2.47867
2.89143
3.44323
4.20157
5.27736
6.86324
9.31754
13.3677
20.6697
35.6288
72.9199
201.837
1017.34
0.0936273
0.0955319
0.097487
0.0994946
0.101557
0.103676
0.105854
0.108094
0.110397
0.112768
0.115208
0.117721
0.12031
0.122978
0.125731
0.128571
0.131502
0.134529
0.137656
0.140887
0.144226
0.14768
0.151252
0.154951
0.15878
0.162747
0.16686
0.171125
0.17555
0.180145
0.184919
0.189881
0.195043
0.200415
0.206011
0.211842
0.217924
0.224271
0.2309
0.23783
0.245078
0.252667
0.260617
0.268954
0.277705
0.286897
0.296562
0.306735
0.317452
0.328754
0.340684
0.353293
0.366633
0.380764
0.395749
0.41166
0.428576
0.446585
0.465786
0.486285
0.508207
0.531688
0.556885
0.583973
0.613157
0.644671
0.678787
0.715827
0.756174
0.80029
0.84874
0.902231
0.961671
1.02825
1.10342
1.18898
1.28731
1.40162
1.53638
1.69783
1.89484
2.1402
2.4526
2.85984
3.40426
4.15258
5.21444
6.78029
9.20444
13.2064
20.4249
35.2217
72.1412
199.968
1010.96
0.09295
0.0948406
0.0967812
0.0987739
0.100821
0.102924
0.105086
0.107308
0.109595
0.111947
0.114369
0.116862
0.119431
0.122078
0.124809
0.127626
0.130534
0.133537
0.136639
0.139844
0.143157
0.146583
0.150127
0.153796
0.157594
0.16153
0.165609
0.16984
0.17423
0.178788
0.183523
0.188445
0.193565
0.198893
0.204442
0.210226
0.216258
0.222553
0.229127
0.235999
0.243188
0.250713
0.258598
0.266866
0.275543
0.284659
0.294244
0.304332
0.314959
0.326167
0.337999
0.350503
0.363733
0.377746
0.392608
0.408388
0.425166
0.443029
0.462074
0.482408
0.504154
0.527448
0.552444
0.579318
0.608271
0.639536
0.673383
0.710129
0.750154
0.793914
0.841966
0.895005
0.95392
1.01989
1.09436
1.1791
1.27645
1.38958
1.52287
1.68247
1.87712
2.11944
2.42787
2.82986
3.36728
4.10608
5.1547
6.70151
9.097
13.0532
20.1921
34.8344
71.3998
198.186
1004.85
0.0923054
0.0941827
0.0961096
0.0980882
0.10012
0.102209
0.104355
0.106561
0.108831
0.111166
0.11357
0.116045
0.118595
0.121223
0.123932
0.126728
0.129614
0.132594
0.135672
0.138852
0.14214
0.14554
0.149057
0.152698
0.156468
0.160373
0.164421
0.168619
0.172975
0.177498
0.182196
0.18708
0.19216
0.197447
0.202953
0.208691
0.214675
0.22092
0.227443
0.234261
0.241392
0.248857
0.256679
0.264881
0.27349
0.282533
0.292041
0.302048
0.312591
0.32371
0.335447
0.347852
0.360977
0.374879
0.389624
0.40528
0.421927
0.43965
0.458547
0.478724
0.500302
0.523417
0.548223
0.574893
0.603627
0.634656
0.668247
0.704715
0.744434
0.787856
0.835531
0.888141
0.946561
1.01195
1.08576
1.16972
1.26614
1.37816
1.51006
1.66792
1.86035
2.09979
2.40446
2.8015
3.33229
4.06208
5.09816
6.62693
8.99525
12.908
19.9715
34.4673
70.6964
196.492
999.028
0.0916941
0.0935588
0.0954728
0.097438
0.0994564
0.10153
0.103662
0.105853
0.108107
0.110426
0.112813
0.115271
0.117803
0.120412
0.123102
0.125877
0.128742
0.1317
0.134756
0.137913
0.141177
0.144552
0.148044
0.151658
0.1554
0.159277
0.163296
0.167463
0.171787
0.176277
0.18094
0.185788
0.19083
0.196077
0.201542
0.207237
0.213176
0.219375
0.225848
0.232614
0.239692
0.2471
0.254863
0.263002
0.271545
0.280519
0.289955
0.299886
0.310349
0.321382
0.333031
0.345341
0.358367
0.372164
0.386797
0.402336
0.418858
0.436449
0.455206
0.475234
0.496654
0.5196
0.544225
0.570702
0.599229
0.630034
0.663384
0.699589
0.739021
0.782125
0.829445
0.881657
0.939619
1.00447
1.07765
1.16087
1.25642
1.36737
1.49798
1.6542
1.84453
2.08127
2.3824
2.77476
3.29931
4.0206
5.04485
6.55658
8.89926
12.771
19.7633
34.1205
70.0315
194.89
993.503
0.0911168
0.0929696
0.0948713
0.0968239
0.0988294
0.10089
0.103008
0.105185
0.107424
0.109728
0.112099
0.114541
0.117055
0.119647
0.122319
0.125075
0.12792
0.130857
0.133892
0.137027
0.140269
0.143621
0.147088
0.150677
0.154394
0.158244
0.162234
0.166373
0.170666
0.175124
0.179755
0.184569
0.189575
0.194785
0.200211
0.205866
0.211763
0.217917
0.224344
0.231061
0.238088
0.245443
0.253149
0.26123
0.269711
0.27862
0.287988
0.297847
0.308234
0.319188
0.330752
0.342973
0.355905
0.369603
0.384131
0.399559
0.415964
0.43343
0.452054
0.471942
0.493212
0.515999
0.540454
0.566748
0.59508
0.625675
0.658796
0.694754
0.733914
0.776719
0.823706
0.875541
0.933073
0.997422
1.07
1.15253
1.24726
1.35723
1.48661
1.64129
1.82966
2.06386
2.36167
2.74965
3.26832
3.98163
4.99475
6.49046
8.80901
12.6421
19.5674
33.7941
69.4052
193.378
988.279
0.0905738
0.0924155
0.0943058
0.0962466
0.0982399
0.100288
0.102392
0.104556
0.106782
0.109071
0.111428
0.113854
0.116353
0.118928
0.121582
0.124321
0.127147
0.130065
0.13308
0.136195
0.139415
0.142745
0.14619
0.149756
0.153448
0.157273
0.161237
0.165348
0.169614
0.174042
0.178642
0.183424
0.188397
0.193572
0.198962
0.204578
0.210435
0.216548
0.222931
0.229603
0.236582
0.243887
0.251541
0.259566
0.267989
0.276837
0.286141
0.295932
0.306248
0.317127
0.328612
0.34075
0.353593
0.367198
0.381628
0.396951
0.413245
0.430595
0.449094
0.46885
0.489979
0.512616
0.536911
0.563034
0.591182
0.621579
0.654486
0.690211
0.729117
0.77164
0.818314
0.869797
0.926925
0.990801
1.06282
1.14471
1.23867
1.34771
1.47595
1.62919
1.81574
2.04757
2.34228
2.72615
3.23934
3.94517
4.94787
6.42857
8.72451
12.5215
19.3839
33.4881
68.8178
191.958
983.36
0.0900656
0.091897
0.0937766
0.0957063
0.0976882
0.0997244
0.101817
0.103968
0.106181
0.108457
0.1108
0.113212
0.115696
0.118255
0.120894
0.123616
0.126425
0.129325
0.132321
0.135417
0.138617
0.141927
0.145351
0.148894
0.152564
0.156365
0.160305
0.164391
0.16863
0.173031
0.177602
0.182354
0.187295
0.192438
0.197794
0.203375
0.209195
0.215268
0.221611
0.22824
0.235174
0.242433
0.250037
0.258011
0.26638
0.275171
0.284414
0.294143
0.304392
0.315201
0.326612
0.338672
0.351433
0.364951
0.379288
0.394514
0.410704
0.427944
0.446327
0.465959
0.486957
0.509454
0.533598
0.559561
0.587537
0.617748
0.650455
0.685962
0.72463
0.766891
0.813272
0.864425
0.921177
0.984612
1.05612
1.1374
1.23065
1.33883
1.466
1.61792
1.80276
2.03239
2.32422
2.70428
3.21234
3.91121
4.90419
6.3709
8.64576
12.409
19.2128
33.2027
68.2694
190.631
978.753
0.0895926
0.0914143
0.093284
0.0952036
0.0971749
0.0992002
0.101281
0.103421
0.105622
0.107885
0.110215
0.112614
0.115085
0.11763
0.120254
0.12296
0.125753
0.128637
0.131615
0.134693
0.137875
0.141166
0.14457
0.148093
0.151742
0.155521
0.159438
0.1635
0.167715
0.17209
0.176635
0.181359
0.186271
0.191384
0.196708
0.202256
0.208041
0.214079
0.220384
0.226974
0.233866
0.241081
0.24864
0.256566
0.264884
0.273622
0.28281
0.292479
0.302667
0.31341
0.324752
0.33674
0.349424
0.362861
0.377113
0.392248
0.408342
0.42548
0.443755
0.463271
0.484146
0.506512
0.530518
0.556331
0.584147
0.614186
0.646706
0.68201
0.720456
0.762473
0.808582
0.85943
0.915832
0.978858
1.04989
1.13061
1.2232
1.33058
1.45678
1.60746
1.79073
2.01832
2.30749
2.68401
3.18733
3.87974
4.86372
6.31744
8.57275
12.3046
19.054
32.9379
67.7602
189.398
974.46
0.0891552
0.090968
0.0928285
0.0947386
0.0967002
0.0987154
0.100786
0.102915
0.105105
0.107357
0.109675
0.112062
0.114519
0.117052
0.119662
0.122354
0.125132
0.128001
0.130963
0.134025
0.13719
0.140463
0.143849
0.147353
0.150982
0.154741
0.158637
0.162678
0.166869
0.171221
0.175741
0.180439
0.185325
0.19041
0.195705
0.201222
0.206976
0.21298
0.21925
0.225803
0.232657
0.239832
0.247349
0.25523
0.263502
0.272191
0.281327
0.290943
0.301073
0.311756
0.323035
0.334955
0.347568
0.36093
0.375103
0.390154
0.406159
0.423202
0.441377
0.460787
0.481549
0.503794
0.52767
0.553346
0.581013
0.610892
0.64324
0.678357
0.716598
0.758389
0.804247
0.854813
0.910893
0.973542
1.04413
1.12434
1.21632
1.32297
1.44827
1.59782
1.77965
2.00537
2.29207
2.66534
3.1643
3.85076
4.82643
6.26819
8.50546
12.2085
18.9076
32.6936
67.2902
188.258
970.486
0.0887534
0.0905581
0.0924102
0.0943117
0.0962644
0.0982703
0.100332
0.102451
0.10463
0.106872
0.109179
0.111555
0.114001
0.116521
0.119119
0.121798
0.124563
0.127417
0.130365
0.133412
0.136561
0.139818
0.143187
0.146674
0.150285
0.154026
0.157903
0.161923
0.166094
0.170424
0.174922
0.179596
0.184458
0.189517
0.194785
0.200274
0.205999
0.211972
0.21821
0.22473
0.231549
0.238686
0.246164
0.254005
0.262234
0.270879
0.279967
0.289533
0.299611
0.310239
0.321459
0.333318
0.345866
0.359159
0.373259
0.388233
0.404156
0.421113
0.439195
0.458507
0.479165
0.501299
0.525057
0.550606
0.578137
0.607869
0.640059
0.675004
0.713057
0.754641
0.800269
0.850576
0.906361
0.968665
1.03885
1.11859
1.21002
1.316
1.44047
1.58899
1.7695
1.99351
2.27797
2.64827
3.14324
3.82425
4.79232
6.22313
8.44388
12.1204
18.7736
32.4698
66.8596
187.213
966.833
0.0883877
0.090185
0.0920295
0.0939231
0.0958676
0.0978652
0.099918
0.102028
0.104198
0.106431
0.108728
0.111093
0.113529
0.116038
0.118625
0.121292
0.124044
0.126886
0.129821
0.132854
0.135989
0.139231
0.142585
0.146057
0.149651
0.153375
0.157234
0.161236
0.165389
0.169699
0.174176
0.178829
0.183668
0.188704
0.193948
0.199412
0.20511
0.211055
0.217264
0.223753
0.23054
0.237644
0.245087
0.252891
0.261081
0.269685
0.27873
0.288251
0.298281
0.308858
0.320026
0.331828
0.344317
0.357548
0.371581
0.386485
0.402334
0.419212
0.43721
0.456433
0.476996
0.499029
0.522679
0.548112
0.575519
0.605119
0.637164
0.671952
0.709834
0.75123
0.796649
0.846721
0.902238
0.964228
1.03404
1.11336
1.20429
1.30966
1.43339
1.58097
1.76029
1.98275
2.26518
2.63278
3.12413
3.8002
4.76138
6.18223
8.38798
12.0405
18.6519
32.2665
66.4682
186.263
963.506
0.0880581
0.0898487
0.0916864
0.0935729
0.0955102
0.0975002
0.0995453
0.101647
0.103809
0.106033
0.108322
0.110677
0.113104
0.115604
0.11818
0.120837
0.123578
0.126408
0.129331
0.132351
0.135473
0.138702
0.142043
0.145501
0.14908
0.152789
0.156633
0.160618
0.164753
0.169046
0.173505
0.178139
0.182958
0.187972
0.193194
0.198635
0.204309
0.21023
0.216413
0.222874
0.229632
0.236706
0.244117
0.251888
0.260043
0.26861
0.277617
0.287096
0.297083
0.307616
0.318735
0.330487
0.342923
0.356097
0.370071
0.384911
0.400693
0.4175
0.435423
0.454566
0.475043
0.496985
0.520538
0.545867
0.573162
0.602641
0.634556
0.669204
0.706931
0.748157
0.793388
0.843249
0.898524
0.960234
1.02972
1.10866
1.19913
1.30396
1.42702
1.57377
1.75201
1.97308
2.25369
2.61887
3.10697
3.7786
4.73358
6.14549
8.33776
11.9687
18.5425
32.0838
66.1161
185.407
960.505
0.0877648
0.0895495
0.0913811
0.0932613
0.0951921
0.0971755
0.0992136
0.101309
0.103463
0.105679
0.10796
0.110308
0.112726
0.115217
0.117784
0.120432
0.123163
0.125982
0.128895
0.131904
0.135015
0.138233
0.141561
0.145006
0.148573
0.152268
0.156097
0.160069
0.164189
0.168465
0.172908
0.177524
0.182326
0.187322
0.192524
0.197945
0.203598
0.209496
0.215655
0.222093
0.228825
0.235872
0.243255
0.250996
0.25912
0.267654
0.276627
0.28607
0.296019
0.306511
0.317587
0.329295
0.341683
0.354807
0.368727
0.383512
0.399234
0.415977
0.433833
0.452905
0.473306
0.495167
0.518633
0.543869
0.571065
0.600437
0.632237
0.666758
0.704349
0.745424
0.790488
0.840161
0.895222
0.956681
1.02588
1.10447
1.19455
1.29889
1.42136
1.56737
1.74466
1.96451
2.2435
2.60653
3.09175
3.75943
4.70891
6.11288
8.29318
11.9049
18.4453
31.9215
65.8033
184.646
957.833
0.087508
0.0892875
0.0911137
0.0929885
0.0949136
0.0968911
0.0989232
0.101012
0.10316
0.10537
0.107643
0.109984
0.112395
0.114878
0.117438
0.120077
0.122799
0.12561
0.128513
0.131513
0.134614
0.137821
0.141139
0.144573
0.148129
0.151812
0.155629
0.159587
0.163694
0.167957
0.172385
0.176987
0.181772
0.186752
0.191938
0.197341
0.202975
0.208854
0.214993
0.221408
0.228118
0.235142
0.2425
0.250216
0.258312
0.266817
0.27576
0.285171
0.295087
0.305543
0.316583
0.328251
0.340598
0.353678
0.367552
0.382287
0.397957
0.414645
0.432442
0.451451
0.471785
0.493575
0.516965
0.54212
0.569229
0.598508
0.630206
0.664618
0.702088
0.743032
0.787949
0.837457
0.892331
0.953572
1.02251
1.10081
1.19054
1.29446
1.41642
1.56177
1.73824
1.95701
2.23459
2.59575
3.07845
3.74269
4.68736
6.0844
8.25423
11.8492
18.3604
31.7795
65.5297
183.98
955.492
0.0872876
0.0890628
0.0908844
0.0927544
0.0946747
0.0966472
0.0986741
0.100758
0.1029
0.105104
0.107372
0.109706
0.112111
0.114587
0.11714
0.119773
0.122488
0.125291
0.128186
0.131178
0.13427
0.137469
0.140777
0.144202
0.147748
0.151421
0.155228
0.159175
0.16327
0.167522
0.171937
0.176526
0.181298
0.186264
0.191435
0.196823
0.202441
0.208303
0.214425
0.220822
0.227513
0.234516
0.241853
0.249546
0.25762
0.2661
0.275017
0.284401
0.294288
0.304714
0.315722
0.327357
0.339667
0.35271
0.366544
0.381237
0.396862
0.413502
0.431249
0.450204
0.470482
0.492211
0.515535
0.540621
0.567655
0.596853
0.628465
0.662782
0.70015
0.74098
0.785772
0.835139
0.889853
0.950907
1.01963
1.09768
1.1871
1.29067
1.41218
1.55698
1.73274
1.9506
2.22697
2.58653
3.06707
3.72837
4.66892
6.06001
8.22088
11.8015
18.2877
31.658
65.2954
183.409
953.483
0.0871039
0.0888754
0.0906932
0.0925593
0.0944755
0.0964439
0.0984665
0.100546
0.102683
0.104882
0.107145
0.109475
0.111874
0.114345
0.116893
0.119519
0.122228
0.125025
0.127913
0.130898
0.133984
0.137175
0.140476
0.143892
0.14743
0.151095
0.154893
0.158831
0.162917
0.167158
0.171564
0.176142
0.180903
0.185857
0.191016
0.196391
0.201996
0.207844
0.213951
0.220333
0.227008
0.233995
0.241314
0.248989
0.257043
0.265503
0.274398
0.283759
0.293622
0.304023
0.315004
0.326611
0.338892
0.351903
0.365704
0.380361
0.395949
0.41255
0.430255
0.449165
0.469395
0.491073
0.514344
0.539371
0.566343
0.595474
0.627013
0.661252
0.698534
0.73927
0.783957
0.833207
0.887787
0.948685
1.01723
1.09506
1.18424
1.28751
1.40865
1.553
1.72817
1.94526
2.22063
2.57885
3.0576
3.71645
4.65357
6.03972
8.19313
11.7618
18.2272
31.5568
65.1001
182.933
951.807
0.0869569
0.0887254
0.0905402
0.0924031
0.0943161
0.0962811
0.0983003
0.100376
0.10251
0.104705
0.106964
0.10929
0.111684
0.114152
0.116694
0.119316
0.12202
0.124812
0.127695
0.130674
0.133754
0.136939
0.140234
0.143645
0.147176
0.150834
0.154625
0.158556
0.162634
0.166868
0.171265
0.175835
0.180587
0.185532
0.19068
0.196045
0.201639
0.207477
0.213572
0.219942
0.226604
0.233577
0.240883
0.248542
0.256581
0.265024
0.273902
0.283246
0.293089
0.30347
0.31443
0.326014
0.338272
0.351257
0.365032
0.379661
0.395219
0.411788
0.429459
0.448334
0.468526
0.490163
0.51339
0.538371
0.565293
0.594371
0.625852
0.660028
0.697242
0.737902
0.782505
0.831661
0.886135
0.946909
1.0153
1.09297
1.18195
1.28498
1.40583
1.54981
1.72451
1.94099
2.21556
2.57272
3.05003
3.70692
4.64131
6.0235
8.17094
11.73
18.1788
31.4759
64.944
182.553
950.466
0.0868466
0.0886128
0.0904254
0.092286
0.0941965
0.096159
0.0981756
0.100248
0.10238
0.104572
0.106828
0.109151
0.111542
0.114006
0.116546
0.119164
0.121865
0.124652
0.127531
0.130507
0.133582
0.136763
0.140053
0.143459
0.146985
0.150638
0.154424
0.15835
0.162422
0.16665
0.171041
0.175604
0.180349
0.185287
0.190429
0.195786
0.201372
0.207201
0.213288
0.219648
0.226301
0.233264
0.240559
0.248207
0.256234
0.264666
0.273531
0.28286
0.29269
0.303056
0.314
0.325567
0.337806
0.350773
0.364527
0.379136
0.394672
0.411217
0.428862
0.44771
0.467873
0.48948
0.512675
0.537621
0.564506
0.593543
0.624981
0.65911
0.696272
0.736876
0.781417
0.830503
0.884897
0.945579
1.01387
1.09141
1.18024
1.28309
1.40372
1.54742
1.72177
1.93779
2.21177
2.56812
3.04436
3.69978
4.63211
6.01135
8.15432
11.7062
18.1425
31.4152
64.827
182.267
949.459
0.086773
0.0885378
0.0903488
0.0922078
0.0941168
0.0960776
0.0980925
0.100164
0.102293
0.104484
0.106738
0.109058
0.111448
0.113909
0.116446
0.119062
0.121761
0.124546
0.127422
0.130395
0.133467
0.136645
0.139933
0.143335
0.146858
0.150508
0.15429
0.158212
0.162281
0.166504
0.170891
0.17545
0.180191
0.185124
0.190261
0.195613
0.201194
0.207017
0.213098
0.219453
0.226099
0.233055
0.240343
0.247984
0.256003
0.264426
0.273283
0.282603
0.292423
0.302779
0.313712
0.325268
0.337496
0.35045
0.364191
0.378785
0.394306
0.410836
0.428464
0.447294
0.467439
0.489025
0.512198
0.537121
0.563981
0.592992
0.624401
0.658499
0.695627
0.736193
0.780692
0.829732
0.884074
0.944695
1.01291
1.09037
1.1791
1.28183
1.40231
1.54583
1.71994
1.93566
2.20924
2.56506
3.04059
3.69503
4.62599
6.00325
8.14324
11.6904
18.1184
31.3748
64.749
182.077
948.788
0.0867362
0.0885003
0.0903105
0.0921688
0.0940769
0.0960369
0.0980509
0.100121
0.10225
0.104439
0.106692
0.109012
0.1114
0.113861
0.116397
0.119011
0.121709
0.124492
0.127368
0.130339
0.13341
0.136586
0.139872
0.143273
0.146795
0.150442
0.154223
0.158143
0.16221
0.166432
0.170816
0.175373
0.180112
0.185043
0.190177
0.195527
0.201105
0.206925
0.213003
0.219355
0.225998
0.232951
0.240235
0.247872
0.255888
0.264307
0.273159
0.282475
0.29229
0.302641
0.313569
0.325119
0.33734
0.350289
0.364023
0.37861
0.394124
0.410645
0.428265
0.447086
0.467221
0.488798
0.51196
0.536871
0.563719
0.592716
0.624111
0.658193
0.695304
0.735852
0.78033
0.829347
0.883662
0.944253
1.01243
1.08985
1.17853
1.2812
1.40161
1.54503
1.71903
1.9346
2.20797
2.56353
3.0387
3.69265
4.62293
5.9992
8.13771
11.6825
18.1063
31.3546
64.71
181.982
948.452
0.0867362
0.0885003
0.0903105
0.0921688
0.0940769
0.0960369
0.0980509
0.100121
0.10225
0.104439
0.106692
0.109012
0.1114
0.113861
0.116397
0.119011
0.121709
0.124492
0.127368
0.130339
0.13341
0.136586
0.139872
0.143273
0.146795
0.150442
0.154223
0.158143
0.16221
0.166432
0.170816
0.175373
0.180112
0.185043
0.190177
0.195527
0.201105
0.206925
0.213003
0.219355
0.225998
0.232951
0.240235
0.247872
0.255888
0.264307
0.273159
0.282475
0.29229
0.302641
0.313569
0.325119
0.337341
0.350289
0.364023
0.37861
0.394124
0.410645
0.428265
0.447086
0.467221
0.488798
0.51196
0.536871
0.563719
0.592716
0.624111
0.658193
0.695304
0.735852
0.78033
0.829347
0.883662
0.944253
1.01243
1.08985
1.17853
1.2812
1.40161
1.54503
1.71903
1.9346
2.20797
2.56353
3.0387
3.69265
4.62293
5.9992
8.13771
11.6825
18.1063
31.3546
64.71
181.982
948.452
0.086773
0.0885378
0.0903488
0.0922078
0.0941168
0.0960776
0.0980925
0.100164
0.102293
0.104484
0.106738
0.109058
0.111448
0.113909
0.116446
0.119062
0.121761
0.124546
0.127422
0.130395
0.133467
0.136645
0.139933
0.143335
0.146858
0.150508
0.15429
0.158212
0.162281
0.166504
0.170891
0.17545
0.180191
0.185124
0.190261
0.195613
0.201194
0.207017
0.213098
0.219453
0.226099
0.233055
0.240343
0.247984
0.256003
0.264426
0.273283
0.282603
0.292423
0.302779
0.313712
0.325268
0.337496
0.35045
0.364191
0.378785
0.394306
0.410836
0.428464
0.447294
0.467439
0.489025
0.512198
0.537121
0.563981
0.592992
0.624401
0.658499
0.695627
0.736193
0.780693
0.829732
0.884074
0.944695
1.01291
1.09037
1.1791
1.28183
1.40231
1.54583
1.71994
1.93566
2.20924
2.56506
3.04059
3.69503
4.62599
6.00325
8.14324
11.6904
18.1184
31.3748
64.749
182.077
948.788
0.0868466
0.0886128
0.0904254
0.092286
0.0941965
0.096159
0.0981756
0.100248
0.10238
0.104572
0.106828
0.109151
0.111542
0.114006
0.116546
0.119164
0.121865
0.124652
0.127531
0.130507
0.133582
0.136763
0.140053
0.143459
0.146985
0.150638
0.154424
0.15835
0.162422
0.16665
0.171041
0.175604
0.180349
0.185287
0.190429
0.195786
0.201372
0.207201
0.213288
0.219648
0.226301
0.233264
0.240559
0.248207
0.256234
0.264666
0.273531
0.28286
0.29269
0.303056
0.314
0.325567
0.337806
0.350773
0.364527
0.379136
0.394672
0.411217
0.428862
0.44771
0.467873
0.48948
0.512675
0.537621
0.564506
0.593543
0.624981
0.65911
0.696272
0.736876
0.781417
0.830503
0.884897
0.945579
1.01387
1.09141
1.18024
1.28309
1.40372
1.54742
1.72177
1.93779
2.21177
2.56812
3.04436
3.69978
4.63211
6.01135
8.15432
11.7062
18.1425
31.4152
64.827
182.267
949.459
0.0869569
0.0887254
0.0905402
0.0924031
0.0943161
0.0962811
0.0983003
0.100376
0.10251
0.104705
0.106964
0.10929
0.111684
0.114152
0.116694
0.119316
0.12202
0.124812
0.127695
0.130674
0.133754
0.136939
0.140234
0.143645
0.147176
0.150834
0.154625
0.158556
0.162634
0.166868
0.171265
0.175835
0.180587
0.185532
0.19068
0.196045
0.201639
0.207477
0.213572
0.219942
0.226604
0.233577
0.240883
0.248542
0.256581
0.265024
0.273902
0.283246
0.293089
0.30347
0.31443
0.326014
0.338272
0.351257
0.365032
0.379661
0.395219
0.411788
0.429459
0.448334
0.468526
0.490163
0.51339
0.538371
0.565293
0.594371
0.625852
0.660028
0.697241
0.737902
0.782505
0.831661
0.886135
0.946909
1.0153
1.09297
1.18195
1.28498
1.40583
1.54981
1.72451
1.94099
2.21556
2.57272
3.05003
3.70692
4.64131
6.0235
8.17094
11.73
18.1788
31.4759
64.944
182.553
950.466
0.0871039
0.0888754
0.0906932
0.0925593
0.0944755
0.0964439
0.0984665
0.100546
0.102683
0.104882
0.107145
0.109475
0.111874
0.114345
0.116893
0.119519
0.122228
0.125025
0.127913
0.130898
0.133984
0.137175
0.140476
0.143892
0.14743
0.151095
0.154893
0.158831
0.162917
0.167158
0.171564
0.176142
0.180903
0.185857
0.191016
0.196391
0.201996
0.207844
0.213951
0.220333
0.227008
0.233995
0.241314
0.248989
0.257043
0.265503
0.274398
0.283759
0.293622
0.304023
0.315004
0.326611
0.338892
0.351903
0.365704
0.380361
0.395949
0.41255
0.430255
0.449165
0.469395
0.491073
0.514344
0.539371
0.566343
0.595474
0.627013
0.661252
0.698534
0.73927
0.783957
0.833207
0.887787
0.948685
1.01723
1.09506
1.18424
1.28751
1.40865
1.553
1.72817
1.94526
2.22063
2.57885
3.0576
3.71645
4.65357
6.03972
8.19313
11.7618
18.2272
31.5568
65.1001
182.933
951.807
0.0872877
0.0890628
0.0908844
0.0927544
0.0946747
0.0966472
0.0986742
0.100758
0.1029
0.105104
0.107372
0.109706
0.112111
0.114588
0.11714
0.119773
0.122488
0.125291
0.128186
0.131178
0.13427
0.137469
0.140777
0.144202
0.147748
0.151421
0.155228
0.159175
0.16327
0.167522
0.171937
0.176526
0.181298
0.186264
0.191435
0.196823
0.202441
0.208303
0.214425
0.220822
0.227513
0.234516
0.241853
0.249546
0.25762
0.2661
0.275017
0.284401
0.294288
0.304714
0.315722
0.327357
0.339667
0.35271
0.366544
0.381237
0.396862
0.413502
0.431249
0.450204
0.470482
0.49221
0.515535
0.540621
0.567655
0.596853
0.628465
0.662782
0.70015
0.74098
0.785772
0.835139
0.889853
0.950907
1.01963
1.09768
1.1871
1.29067
1.41218
1.55698
1.73274
1.9506
2.22697
2.58653
3.06707
3.72837
4.66892
6.06001
8.22088
11.8015
18.2877
31.658
65.2954
183.409
953.483
0.087508
0.0892875
0.0911138
0.0929885
0.0949136
0.0968911
0.0989232
0.101012
0.10316
0.10537
0.107643
0.109984
0.112395
0.114878
0.117438
0.120077
0.122799
0.12561
0.128513
0.131513
0.134614
0.137821
0.141139
0.144573
0.148129
0.151812
0.155629
0.159587
0.163694
0.167957
0.172385
0.176987
0.181772
0.186752
0.191938
0.197341
0.202975
0.208854
0.214993
0.221408
0.228118
0.235142
0.2425
0.250216
0.258312
0.266817
0.27576
0.285171
0.295087
0.305543
0.316583
0.328251
0.340598
0.353678
0.367552
0.382287
0.397957
0.414645
0.432442
0.451451
0.471785
0.493575
0.516965
0.54212
0.569229
0.598508
0.630206
0.664618
0.702089
0.743032
0.787949
0.837457
0.892331
0.953572
1.02251
1.10081
1.19054
1.29446
1.41642
1.56177
1.73824
1.95701
2.23459
2.59575
3.07845
3.74269
4.68736
6.0844
8.25423
11.8492
18.3604
31.7795
65.5297
183.98
955.492
0.0877648
0.0895496
0.0913811
0.0932613
0.0951921
0.0971755
0.0992136
0.101309
0.103463
0.105679
0.10796
0.110308
0.112726
0.115217
0.117784
0.120432
0.123163
0.125982
0.128895
0.131904
0.135015
0.138233
0.141561
0.145006
0.148573
0.152268
0.156098
0.160069
0.164189
0.168465
0.172908
0.177524
0.182326
0.187322
0.192524
0.197945
0.203598
0.209496
0.215655
0.222093
0.228825
0.235872
0.243255
0.250996
0.25912
0.267654
0.276627
0.28607
0.296019
0.306511
0.317587
0.329295
0.341683
0.354807
0.368727
0.383512
0.399234
0.415977
0.433833
0.452905
0.473306
0.495167
0.518633
0.543869
0.571065
0.600437
0.632237
0.666758
0.704349
0.745424
0.790488
0.840161
0.895222
0.956681
1.02588
1.10447
1.19455
1.29889
1.42136
1.56737
1.74466
1.96451
2.2435
2.60653
3.09175
3.75943
4.70891
6.11288
8.29318
11.9049
18.4453
31.9215
65.8033
184.646
957.833
0.0880581
0.0898488
0.0916864
0.0935729
0.0955102
0.0975003
0.0995453
0.101648
0.103809
0.106033
0.108322
0.110677
0.113104
0.115604
0.11818
0.120837
0.123578
0.126408
0.129331
0.132351
0.135473
0.138702
0.142043
0.145501
0.149081
0.152789
0.156633
0.160618
0.164753
0.169046
0.173505
0.178139
0.182958
0.187972
0.193194
0.198635
0.204309
0.21023
0.216413
0.222874
0.229632
0.236706
0.244117
0.251888
0.260043
0.26861
0.277617
0.287096
0.297083
0.307616
0.318735
0.330487
0.342923
0.356097
0.370071
0.384911
0.400693
0.4175
0.435423
0.454566
0.475043
0.496985
0.520538
0.545867
0.573162
0.602641
0.634556
0.669204
0.706931
0.748157
0.793388
0.843249
0.898524
0.960234
1.02972
1.10866
1.19913
1.30396
1.42702
1.57377
1.75201
1.97308
2.25369
2.61887
3.10697
3.7786
4.73358
6.14549
8.33776
11.9687
18.5425