/*--------------------------------*- C++ -*----------------------------------*\
  =========                 |
  \\      /  F ield         | OpenFOAM: The Open Source CFD Toolbox
   \\    /   O peration     | Website:  https://openfoam.org
    \\  /    A nd           | Version:  7
     \\/     M anipulation  |
\*---------------------------------------------------------------------------*/
FoamFile
{
    version     2.0;
    format      ascii;
    class       volVectorField;
    location    "160000";
    object      U;
}
// * * * * * * * * * * * * * * * * * * * * * * * * * * * * * * * * * * * * * //

dimensions      [0 1 -1 0 0 0 0];

internalField   nonuniform List<vector> 
4782
(
(1.27982e-18 7.66885e-19 -0.00984653)
(1.32011e-18 6.54999e-19 -0.00975509)
(1.36694e-18 5.88961e-19 -0.00966165)
(1.37004e-18 6.4561e-19 -0.0095661)
(1.3201e-18 7.9026e-19 -0.00946832)
(1.25376e-18 9.3031e-19 -0.0093682)
(1.29031e-18 9.06794e-19 -0.00926562)
(1.36189e-18 8.40549e-19 -0.00916042)
(1.34939e-18 9.03968e-19 -0.00905247)
(1.33223e-18 9.86953e-19 -0.0089416)
(6.15008e-19 8.61668e-19 -0.0127875)
(9.17781e-19 5.577e-19 -0.0127359)
(9.73517e-19 4.8405e-19 -0.0126839)
(8.69692e-19 5.1877e-19 -0.0126314)
(7.68081e-19 5.86162e-19 -0.0125786)
(5.36962e-19 8.21496e-19 -0.0125253)
(1.26366e-19 1.35729e-18 -0.0124716)
(1.00828e-20 1.54379e-18 -0.0124174)
(2.19592e-19 1.28421e-18 -0.0123629)
(4.15708e-19 1.00906e-18 -0.0123078)
(6.10537e-19 7.31698e-19 -0.0122523)
(7.04312e-19 5.91371e-19 -0.0121962)
(8.31107e-19 4.18023e-19 -0.0121397)
(9.30017e-19 2.73693e-19 -0.0120826)
(8.85361e-19 3.74668e-19 -0.012025)
(8.61547e-19 4.76249e-19 -0.0119667)
(8.98553e-19 5.05154e-19 -0.0119079)
(9.51523e-19 4.94607e-19 -0.0118484)
(1.08615e-18 3.51569e-19 -0.0117883)
(1.29573e-18 1.10236e-19 -0.0117276)
(1.45361e-18 -1.19725e-19 -0.0116662)
(1.30899e-18 5.7066e-20 -0.0116041)
(9.13838e-19 5.58497e-19 -0.0115413)
(6.4639e-19 8.96614e-19 -0.0114777)
(6.27796e-19 9.20629e-19 -0.0114134)
(8.2512e-19 6.60641e-19 -0.0113483)
(1.09124e-18 3.10654e-19 -0.0112824)
(1.25623e-18 1.02084e-19 -0.0112157)
(1.18841e-18 2.05252e-19 -0.011148)
(1.06983e-18 3.78229e-19 -0.0110795)
(1.1574e-18 2.61906e-19 -0.01101)
(1.36662e-18 5.23579e-21 -0.0109396)
(1.36887e-18 3.50135e-20 -0.0108681)
(1.18642e-18 2.90453e-19 -0.0107955)
(1.06761e-18 4.52902e-19 -0.0107219)
(1.14823e-18 3.5906e-19 -0.0106471)
(1.23102e-18 2.86649e-19 -0.0105711)
(1.12396e-18 4.46745e-19 -0.0104938)
(1.05341e-18 5.03657e-19 -0.0104152)
(1.07226e-18 4.27799e-19 -0.0103353)
(1.00419e-18 4.69293e-19 -0.0102539)
(8.90122e-19 5.72209e-19 -0.010171)
(8.71365e-19 5.45399e-19 -0.0100865)
(7.60119e-19 6.45084e-19 -0.0100004)
(4.76685e-19 9.83908e-19 -0.00991254)
(3.31992e-19 1.1715e-18 -0.00982286)
(4.7502e-19 9.76211e-19 -0.00973127)
(7.70261e-19 5.70001e-19 -0.00963767)
(8.82955e-19 3.90099e-19 -0.00954195)
(7.57125e-19 5.31085e-19 -0.009444)
(6.04909e-19 7.11233e-19 -0.0093437)
(4.94005e-19 8.31557e-19 -0.00924093)
(5.28012e-19 7.3631e-19 -0.00913554)
(7.16768e-19 4.3319e-19 -0.0090274)
(7.42727e-19 3.51981e-19 -0.00891633)
(4.66196e-19 1.00991e-18 -0.012767)
(3.01982e-19 1.01444e-18 -0.0127153)
(-8.98935e-21 1.24499e-18 -0.0126632)
(-5.75378e-20 1.17393e-18 -0.0126107)
(8.09313e-20 9.51899e-19 -0.0125578)
(1.96654e-19 7.62917e-19 -0.0125045)
(4.06576e-19 6.03581e-19 -0.0124508)
(5.41294e-19 6.13613e-19 -0.0123966)
(4.67397e-19 8.35849e-19 -0.012342)
(3.30324e-19 1.06601e-18 -0.0122868)
(1.74618e-19 1.23712e-18 -0.0122313)
(7.58737e-20 1.29962e-18 -0.0121752)
(3.5332e-20 1.29524e-18 -0.0121186)
(1.42468e-19 1.13223e-18 -0.0120614)
(3.74731e-19 8.5965e-19 -0.0120037)
(4.63169e-19 8.00165e-19 -0.0119454)
(2.99607e-19 1.04793e-18 -0.0118865)
(2.47935e-20 1.42017e-18 -0.0118269)
(-5.12241e-20 1.51451e-18 -0.0117668)
(-2.81954e-20 1.45471e-18 -0.0117059)
(2.10974e-20 1.37493e-18 -0.0116444)
(5.50361e-21 1.37254e-18 -0.0115823)
(-7.35417e-20 1.51423e-18 -0.0115194)
(7.99386e-21 1.49565e-18 -0.0114558)
(1.44332e-19 1.41786e-18 -0.0113914)
(1.78637e-19 1.43219e-18 -0.0113262)
(2.63474e-19 1.34854e-18 -0.0112602)
(5.0264e-19 1.01883e-18 -0.0111934)
(7.13126e-19 7.21882e-19 -0.0111257)
(6.9659e-19 7.56144e-19 -0.011057)
(6.1091e-19 8.79331e-19 -0.0109875)
(6.21963e-19 8.46702e-19 -0.0109169)
(5.55817e-19 8.85681e-19 -0.0108453)
(4.49065e-19 9.87546e-19 -0.0107727)
(5.25005e-19 8.70721e-19 -0.0106989)
(7.04846e-19 6.52645e-19 -0.010624)
(7.0936e-19 6.25506e-19 -0.0105479)
(4.88826e-19 8.71321e-19 -0.0104705)
(2.42772e-19 1.15156e-18 -0.0103918)
(1.73809e-19 1.20935e-18 -0.0103117)
(2.11888e-19 1.13047e-18 -0.0102302)
(2.49638e-19 1.0652e-18 -0.0101471)
(3.31704e-19 9.40605e-19 -0.0100625)
(4.65211e-19 7.53586e-19 -0.00997625)
(6.6048e-19 5.25217e-19 -0.00988824)
(7.59085e-19 4.44191e-19 -0.0097984)
(7.15743e-19 5.28425e-19 -0.00970665)
(6.52795e-19 5.93384e-19 -0.00961287)
(6.53967e-19 5.50861e-19 -0.00951698)
(6.70632e-19 4.85053e-19 -0.00941885)
(5.75542e-19 5.68143e-19 -0.00931837)
(4.01227e-19 7.67131e-19 -0.0092154)
(2.74535e-19 9.17577e-19 -0.00910982)
(3.00973e-19 8.63681e-19 -0.00900147)
(3.68246e-19 7.37642e-19 -0.00889019)
(-1.38957e-18 1.62283e-18 -0.0127459)
(-1.25592e-18 1.46308e-18 -0.0126942)
(-9.60621e-19 1.12059e-18 -0.012642)
(-6.1055e-19 7.00068e-19 -0.0125895)
(-3.88844e-19 4.38628e-19 -0.0125366)
(-1.05049e-19 1.38824e-19 -0.0124832)
(1.76364e-19 -1.26843e-19 -0.0124294)
(1.01684e-19 3.04277e-20 -0.0123752)
(-8.18833e-20 3.0544e-19 -0.0123205)
(-3.28472e-19 6.97738e-19 -0.0122653)
(-4.45344e-19 9.44123e-19 -0.0122097)
(-3.51413e-19 9.72184e-19 -0.0121535)
(1.0946e-20 7.18163e-19 -0.0120969)
(4.9253e-19 3.31812e-19 -0.0120396)
(7.68967e-19 1.44112e-19 -0.0119818)
(8.05086e-19 1.88967e-19 -0.0119234)
(7.28575e-19 3.56361e-19 -0.0118644)
(6.33293e-19 5.72427e-19 -0.0118048)
(5.94541e-19 7.42287e-19 -0.0117446)
(7.88655e-19 6.25481e-19 -0.0116837)
(1.06231e-18 4.13172e-19 -0.0116221)
(1.19348e-18 3.11434e-19 -0.0115599)
(1.24264e-18 3.19606e-19 -0.0114969)
(1.2091e-18 4.46889e-19 -0.0114332)
(1.09838e-18 6.41522e-19 -0.0113687)
(1.02365e-18 7.81959e-19 -0.0113035)
(9.47445e-19 9.24827e-19 -0.0112374)
(9.11818e-19 1.02599e-18 -0.0111705)
(1.08829e-18 8.5072e-19 -0.0111026)
(1.23082e-18 7.02237e-19 -0.0110339)
(1.19802e-18 7.61286e-19 -0.0109642)
(1.16267e-18 8.21123e-19 -0.0108936)
(1.14344e-18 8.54511e-19 -0.0108219)
(1.08639e-18 9.48439e-19 -0.0107491)
(1.15452e-18 8.69273e-19 -0.0106753)
(1.26247e-18 7.1574e-19 -0.0106002)
(1.21364e-18 7.59381e-19 -0.010524)
(1.11379e-18 8.71896e-19 -0.0104465)
(1.07561e-18 9.32944e-19 -0.0103676)
(1.10183e-18 9.18782e-19 -0.0102874)
(1.13121e-18 8.77454e-19 -0.0102058)
(1.10874e-18 8.99975e-19 -0.0101226)
(1.11981e-18 8.94857e-19 -0.0100378)
(1.27569e-18 7.45197e-19 -0.0099514)
(1.41592e-18 6.15063e-19 -0.00986323)
(1.42136e-18 6.24085e-19 -0.00977322)
(1.28564e-18 8.02636e-19 -0.0096813)
(1.1701e-18 9.36504e-19 -0.00958735)
(1.11328e-18 9.8906e-19 -0.00949127)
(1.08125e-18 1.01543e-18 -0.00939295)
(1.17374e-18 8.98674e-19 -0.00929227)
(1.27286e-18 7.79229e-19 -0.0091891)
(1.2748e-18 7.86504e-19 -0.0090833)
(1.22639e-18 8.59012e-19 -0.00897474)
(1.24834e-18 8.45113e-19 -0.00886324)
(4.15631e-19 1.12193e-18 -0.0127243)
(3.98341e-19 1.29467e-18 -0.0126725)
(2.1687e-19 1.59565e-18 -0.0126203)
(2.56687e-19 1.62393e-18 -0.0125678)
(5.80912e-19 1.25018e-18 -0.0125148)
(9.79538e-19 7.95038e-19 -0.0124614)
(1.17886e-18 4.51782e-19 -0.0124075)
(1.08893e-18 4.39588e-19 -0.0123533)
(9.75663e-19 4.63534e-19 -0.0122985)
(9.51618e-19 4.54265e-19 -0.0122433)
(9.8999e-19 4.89811e-19 -0.0121876)
(1.22664e-18 3.2837e-19 -0.0121314)
(1.39834e-18 1.71613e-19 -0.0120746)
(1.35847e-18 1.82387e-19 -0.0120173)
(1.16322e-18 3.35e-19 -0.0119594)
(9.48606e-19 5.5533e-19 -0.0119009)
(8.04203e-19 7.30446e-19 -0.0118418)
(6.92764e-19 9.00231e-19 -0.0117822)
(6.6464e-19 9.99847e-19 -0.0117218)
(6.73415e-19 1.07855e-18 -0.0116609)
(4.80489e-19 1.33997e-18 -0.0115992)
(2.87481e-19 1.58184e-18 -0.0115369)
(3.41825e-19 1.54817e-18 -0.0114739)
(3.61813e-19 1.53812e-18 -0.0114101)
(2.78975e-19 1.63573e-18 -0.0113455)
(2.32503e-19 1.70999e-18 -0.0112802)
(3.44309e-19 1.60643e-18 -0.011214)
(4.96614e-19 1.4502e-18 -0.011147)
(5.30226e-19 1.41767e-18 -0.0110791)
(4.6645e-19 1.49615e-18 -0.0110103)
(3.89509e-19 1.60221e-18 -0.0109405)
(3.88675e-19 1.63655e-18 -0.0108697)
(4.20254e-19 1.62243e-18 -0.0107979)
(2.78784e-19 1.80078e-18 -0.0107251)
(1.03747e-19 2.0441e-18 -0.0106511)
(2.74458e-19 1.90651e-18 -0.0105759)
(4.75996e-19 1.72187e-18 -0.0104995)
(4.60148e-19 1.78108e-18 -0.0104219)
(3.50975e-19 1.94341e-18 -0.0103429)
(1.87219e-19 2.17464e-18 -0.0102626)
(1.73898e-19 2.23531e-18 -0.0101808)
(3.65501e-19 2.06941e-18 -0.0100974)
(7.19558e-19 1.74496e-18 -0.0100125)
(1.05786e-18 1.41233e-18 -0.00992593)
(1.18631e-18 1.28186e-18 -0.00983759)
(1.22643e-18 1.22993e-18 -0.00974742)
(1.06965e-18 1.3884e-18 -0.00965531)
(7.84522e-19 1.71639e-18 -0.00956117)
(7.53292e-19 1.78163e-18 -0.0094649)
(8.26725e-19 1.73477e-18 -0.00936638)
(8.01032e-19 1.79114e-18 -0.00926549)
(8.09727e-19 1.80334e-18 -0.00916211)
(8.75397e-19 1.75052e-18 -0.00905609)
(9.33689e-19 1.70086e-18 -0.0089473)
(9.49595e-19 1.68762e-18 -0.00883557)
(-5.7811e-19 1.28323e-18 -0.0127243)
(-5.22508e-19 1.33354e-18 -0.0126725)
(-4.16057e-19 1.3689e-18 -0.0126203)
(-2.94362e-19 1.40758e-18 -0.0125678)
(-2.61773e-19 1.48904e-18 -0.0125148)
(-3.73833e-19 1.64976e-18 -0.0124614)
(-5.3907e-19 1.80022e-18 -0.0124075)
(-6.44209e-19 1.86082e-18 -0.0123533)
(-5.80688e-19 1.79939e-18 -0.0122985)
(-1.53195e-19 1.45167e-18 -0.0122433)
(2.62584e-19 1.12335e-18 -0.0121876)
(1.2899e-19 1.27489e-18 -0.0121314)
(-1.67264e-19 1.52634e-18 -0.0120746)
(-2.01828e-19 1.50309e-18 -0.0120173)
(5.3345e-20 1.16686e-18 -0.0119594)
(3.7413e-19 7.71399e-19 -0.0119009)
(5.22082e-19 5.55738e-19 -0.0118418)
(6.01376e-19 4.46738e-19 -0.0117822)
(6.94936e-19 3.53086e-19 -0.0117218)
(7.42245e-19 2.97812e-19 -0.0116609)
(6.76059e-19 3.27565e-19 -0.0115992)
(6.93291e-19 3.05238e-19 -0.0115369)
(6.37187e-19 3.52361e-19 -0.0114739)
(4.54585e-19 5.01685e-19 -0.0114101)
(3.61105e-19 5.73013e-19 -0.0113455)
(3.18359e-19 6.00811e-19 -0.0112802)
(1.37678e-19 7.6693e-19 -0.011214)
(-1.81841e-20 8.99472e-19 -0.011147)
(1.49642e-19 7.13698e-19 -0.0110791)
(4.00447e-19 4.60187e-19 -0.0110103)
(4.93683e-19 3.77594e-19 -0.0109405)
(4.30352e-19 4.54827e-19 -0.0108697)
(3.54586e-19 5.5061e-19 -0.0107979)
(4.85002e-19 4.47947e-19 -0.0107251)
(7.15006e-19 2.74339e-19 -0.0106511)
(7.31032e-19 2.88972e-19 -0.0105759)
(6.38664e-19 3.60651e-19 -0.0104995)
(5.7663e-19 3.9377e-19 -0.0104219)
(5.91745e-19 3.73788e-19 -0.0103429)
(6.18615e-19 3.59648e-19 -0.0102626)
(5.6164e-19 4.38172e-19 -0.0101808)
(6.0782e-19 4.14672e-19 -0.0100974)
(5.38997e-19 4.75412e-19 -0.0100125)
(3.35888e-19 6.36103e-19 -0.00992593)
(1.76687e-19 7.25659e-19 -0.00983759)
(5.01294e-20 7.82864e-19 -0.00974742)
(1.26434e-19 6.55828e-19 -0.00965531)
(3.06553e-19 4.5307e-19 -0.00956117)
(3.16074e-19 4.21963e-19 -0.0094649)
(2.56095e-19 4.51853e-19 -0.00936638)
(2.72276e-19 4.05558e-19 -0.00926549)
(2.87628e-19 3.44183e-19 -0.00916211)
(2.10077e-19 3.68836e-19 -0.00905609)
(4.81894e-20 4.70664e-19 -0.0089473)
(-8.07674e-20 5.36891e-19 -0.00883557)
(7.35344e-19 4.01912e-19 -0.0127459)
(6.95954e-19 4.07815e-19 -0.0126942)
(6.33985e-19 4.5586e-19 -0.012642)
(5.57786e-19 5.23133e-19 -0.0125895)
(5.72862e-19 5.27169e-19 -0.0125366)
(5.67594e-19 5.52247e-19 -0.0124832)
(4.5846e-19 7.11112e-19 -0.0124294)
(3.9988e-19 8.39842e-19 -0.0123752)
(6.3922e-19 7.06124e-19 -0.0123205)
(8.73357e-19 5.73215e-19 -0.0122653)
(9.00133e-19 5.74402e-19 -0.0122097)
(8.67931e-19 6.28749e-19 -0.0121535)
(6.33266e-19 8.95202e-19 -0.0120969)
(1.5399e-19 1.39143e-18 -0.0120396)
(-2.5994e-19 1.82441e-18 -0.0119818)
(-3.20682e-19 1.90664e-18 -0.0119234)
(-7.74834e-20 1.71595e-18 -0.0118644)
(2.03283e-19 1.48575e-18 -0.0118048)
(3.09722e-19 1.42244e-18 -0.0117446)
(1.97506e-19 1.54696e-18 -0.0116837)
(3.88405e-20 1.71732e-18 -0.0116221)
(8.83138e-21 1.78163e-18 -0.0115599)
(4.76175e-20 1.7761e-18 -0.0114969)
(6.48382e-20 1.80675e-18 -0.0114332)
(5.9623e-20 1.85674e-18 -0.0113687)
(1.61405e-19 1.82237e-18 -0.0113035)
(3.59341e-19 1.72366e-18 -0.0112374)
(3.74183e-19 1.77161e-18 -0.0111705)
(3.53944e-19 1.80105e-18 -0.0111026)
(5.15357e-19 1.63465e-18 -0.0110339)
(7.05423e-19 1.46148e-18 -0.0109642)
(8.45036e-19 1.34468e-18 -0.0108936)
(8.63615e-19 1.34653e-18 -0.0108219)
(7.86561e-19 1.43052e-18 -0.0107491)
(6.54235e-19 1.5505e-18 -0.0106753)
(4.41832e-19 1.68577e-18 -0.0106002)
(2.63069e-19 1.78397e-18 -0.010524)
(2.83509e-19 1.71471e-18 -0.0104465)
(4.04736e-19 1.57924e-18 -0.0103676)
(4.30803e-19 1.52313e-18 -0.0102874)
(4.58447e-19 1.47389e-18 -0.0102058)
(4.34371e-19 1.47586e-18 -0.0101226)
(4.36867e-19 1.44029e-18 -0.0100378)
(3.90889e-19 1.46324e-18 -0.0099514)
(3.30417e-19 1.50536e-18 -0.00986323)
(4.71666e-19 1.36678e-18 -0.00977322)
(5.82659e-19 1.25274e-18 -0.0096813)
(5.83533e-19 1.22555e-18 -0.00958735)
(6.32902e-19 1.14845e-18 -0.00949127)
(6.52515e-19 1.09127e-18 -0.00939295)
(4.63804e-19 1.21762e-18 -0.00929227)
(3.54963e-19 1.26747e-18 -0.0091891)
(4.40302e-19 1.14901e-18 -0.0090833)
(5.06552e-19 1.06901e-18 -0.00897474)
(5.01734e-19 1.06771e-18 -0.00886324)
(4.5711e-19 1.11139e-18 -0.00874865)
(4.90618e-19 1.09224e-18 -0.00863079)
(6.47857e-19 9.54986e-19 -0.00850947)
(7.8621e-19 8.18858e-19 -0.00838448)
(-7.42953e-19 2.08908e-18 -0.012767)
(-7.20919e-19 2.01204e-18 -0.0127153)
(-5.8248e-19 1.83903e-18 -0.0126632)
(-4.79609e-19 1.72443e-18 -0.0126107)
(-4.58618e-19 1.67787e-18 -0.0125578)
(-3.8153e-19 1.58782e-18 -0.0125045)
(-2.95817e-19 1.48952e-18 -0.0124508)
(-4.32126e-19 1.57932e-18 -0.0123966)
(-5.00343e-19 1.58342e-18 -0.012342)
(-3.22192e-19 1.39875e-18 -0.0122868)
(-1.1458e-19 1.21329e-18 -0.0122313)
(-5.18387e-20 1.14584e-18 -0.0121752)
(-1.47845e-20 1.09651e-18 -0.0121186)
(7.13391e-20 1.04285e-18 -0.0120614)
(7.79805e-20 1.08835e-18 -0.0120037)
(1.26414e-19 1.13209e-18 -0.0119454)
(2.34522e-19 1.11891e-18 -0.0118865)
(4.40401e-19 1.00192e-18 -0.0118269)
(6.99829e-19 8.26383e-19 -0.0117668)
(8.27247e-19 7.30509e-19 -0.0117059)
(8.4657e-19 7.15481e-19 -0.0116444)
(8.32871e-19 7.29564e-19 -0.0115823)
(8.43604e-19 7.47456e-19 -0.0115194)
(8.09101e-19 8.36331e-19 -0.0114558)
(7.97248e-19 9.16489e-19 -0.0113914)
(9.4373e-19 8.66873e-19 -0.0113262)
(8.06031e-19 1.00322e-18 -0.0112602)
(2.36248e-19 1.441e-18 -0.0111934)
(-1.78827e-19 1.75744e-18 -0.0111257)
(-5.85467e-20 1.65031e-18 -0.011057)
(2.42153e-19 1.38303e-18 -0.0109875)
(3.41881e-19 1.25814e-18 -0.0109169)
(3.23716e-19 1.20374e-18 -0.0108453)
(3.4863e-19 1.13997e-18 -0.0107727)
(8.80296e-20 1.31731e-18 -0.0106989)
(-3.43448e-19 1.64826e-18 -0.010624)
(-4.15792e-19 1.6924e-18 -0.0105479)
(-2.21977e-19 1.53417e-18 -0.0104705)
(-2.66424e-20 1.38286e-18 -0.0103918)
(7.28536e-20 1.30614e-18 -0.0103117)
(1.53204e-19 1.24237e-18 -0.0102302)
(1.62967e-19 1.24078e-18 -0.0101471)
(1.33096e-19 1.27515e-18 -0.0100625)
(1.41866e-19 1.26393e-18 -0.00997625)
(5.00097e-20 1.35948e-18 -0.00988824)
(-7.67386e-20 1.49323e-18 -0.0097984)
(-5.37451e-20 1.48336e-18 -0.00970665)
(1.29998e-20 1.41821e-18 -0.00961287)
(-7.30216e-20 1.46797e-18 -0.00951698)
(-1.59369e-19 1.51804e-18 -0.00941885)
(-1.53924e-19 1.50103e-18 -0.00931837)
(-9.29511e-20 1.45393e-18 -0.0092154)
(1.30853e-19 1.26854e-18 -0.00910982)
(3.64364e-19 1.06477e-18 -0.00900147)
(5.01497e-19 9.36378e-19 -0.00889019)
(6.28454e-19 8.22652e-19 -0.00877583)
(7.19755e-19 7.49703e-19 -0.0086582)
(7.00885e-19 7.67393e-19 -0.00853711)
(5.72683e-19 8.54743e-19 -0.00841237)
(5.72132e-19 8.23284e-19 -0.00828374)
(-7.19904e-19 3.51507e-19 -0.0127875)
(-8.40423e-19 5.61979e-19 -0.0127359)
(-7.80391e-19 5.77612e-19 -0.0126839)
(-6.97512e-19 5.32986e-19 -0.0126314)
(-6.74675e-19 5.2521e-19 -0.0125786)
(-6.83368e-19 5.8375e-19 -0.0125253)
(-7.40488e-19 6.91035e-19 -0.0124716)
(-9.01403e-19 8.97625e-19 -0.0124174)
(-7.93025e-19 9.35967e-19 -0.0123629)
(-4.05103e-19 7.54897e-19 -0.0123078)
(-2.04001e-19 6.92086e-19 -0.0122523)
(-1.99703e-19 7.67466e-19 -0.0121962)
(-2.75206e-19 8.97208e-19 -0.0121397)
(-4.09696e-19 1.06154e-18 -0.0120826)
(-4.87558e-19 1.17772e-18 -0.012025)
(-4.33889e-19 1.196e-18 -0.0119667)
(-3.91711e-19 1.21286e-18 -0.0119079)
(-3.37517e-19 1.21987e-18 -0.0118484)
(-4.73467e-19 1.36552e-18 -0.0117883)
(-7.96132e-19 1.61256e-18 -0.0117276)
(-1.01348e-18 1.7508e-18 -0.0116662)
(-9.30276e-19 1.64014e-18 -0.0116041)
(-5.71079e-19 1.32206e-18 -0.0115413)
(-3.37189e-19 1.09695e-18 -0.0114777)
(-3.60671e-19 1.08006e-18 -0.0114134)
(-6.22163e-19 1.23952e-18 -0.0113483)
(-1.08851e-18 1.54489e-18 -0.0112824)
(-1.39254e-18 1.78089e-18 -0.0112157)
(-1.29733e-18 1.75073e-18 -0.011148)
(-1.11569e-18 1.65803e-18 -0.0110795)
(-1.11948e-18 1.68183e-18 -0.01101)
(-1.24693e-18 1.80523e-18 -0.0109396)
(-1.16767e-18 1.76565e-18 -0.0108681)
(-9.42516e-19 1.60247e-18 -0.0107955)
(-8.5635e-19 1.52758e-18 -0.0107219)
(-8.39506e-19 1.53895e-18 -0.0106471)
(-7.80207e-19 1.52929e-18 -0.0105711)
(-5.1567e-19 1.33619e-18 -0.0104938)
(-3.27838e-19 1.17784e-18 -0.0104152)
(-3.29921e-19 1.16237e-18 -0.0103353)
(-2.58059e-19 1.09866e-18 -0.0102539)
(-1.96418e-19 1.03585e-18 -0.010171)
(-2.65361e-19 1.06611e-18 -0.0100865)
(-2.19061e-19 1.00103e-18 -0.0100004)
(-7.87192e-22 8.07383e-19 -0.00991254)
(3.12585e-20 7.72141e-19 -0.00982286)
(-2.06089e-19 9.49317e-19 -0.00973127)
(-4.64192e-19 1.13954e-18 -0.00963767)
(-4.91931e-19 1.14808e-18 -0.00954195)
(-3.50142e-19 1.03778e-18 -0.009444)
(-2.66897e-19 9.76815e-19 -0.0093437)
(-2.17233e-19 9.43641e-19 -0.00924093)
(-2.22859e-19 9.38185e-19 -0.00913554)
(-2.78506e-19 9.61683e-19 -0.0090274)
(-2.49164e-19 9.12551e-19 -0.00891633)
(-1.15394e-19 7.74474e-19 -0.00880219)
(2.03031e-20 6.27839e-19 -0.00868478)
(-3.40225e-20 6.28011e-19 -0.00856392)
(-2.23494e-19 7.36543e-19 -0.0084394)
(-3.07764e-19 7.71396e-19 -0.00831101)
(-2.10402e-19 6.6312e-19 -0.00817852)
(4.07603e-20 4.33842e-19 -0.00804167)
(2.43332e-19 2.54364e-19 -0.00790023)
(2.41356e-19 2.44884e-19 -0.0077539)
(1.73359e-19 2.81248e-19 -0.0076024)
(2.2644e-19 2.08033e-19 -0.00744544)
(3.51574e-19 7.55149e-20 -0.00728269)
(4.40729e-19 -2.55252e-20 -0.00711385)
(4.97962e-19 -1.06594e-19 -0.00693857)
(5.17741e-19 -1.61744e-19 -0.00675653)
(4.92756e-19 -1.84995e-19 -0.0065674)
(4.45646e-19 -1.96277e-19 -0.00637079)
(3.88643e-19 -2.05911e-19 -0.00616611)
(3.59887e-19 -2.35871e-19 -0.00595251)
(4.02121e-19 -3.19081e-19 -0.00572933)
(4.31927e-19 -3.94658e-19 -0.00549623)
(3.7457e-19 -4.06981e-19 -0.00525301)
(2.33274e-19 -3.54046e-19 -0.00499971)
(1.22779e-19 -3.20054e-19 -0.00473665)
(6.55216e-20 -3.19781e-19 -0.00446447)
(1.02718e-20 -3.13399e-19 -0.00418417)
(-2.44533e-20 -3.15884e-19 -0.00389708)
(-3.83931e-20 -3.24091e-19 -0.00360479)
(-4.16379e-20 -3.30013e-19 -0.003309)
(-2.62664e-20 -3.41375e-19 -0.00301137)
(-4.41358e-20 -3.13818e-19 -0.00271341)
(-5.33245e-20 -2.78961e-19 -0.00241634)
(-3.54117e-20 -2.52863e-19 -0.0021211)
(-1.64829e-20 -2.18897e-19 -0.00182833)
(-1.85655e-20 -1.64743e-19 -0.00153842)
(-3.20618e-20 -1.0251e-19 -0.0012516)
(-3.32449e-20 -6.13979e-20 -0.00096796)
(-3.64462e-20 -3.98591e-20 -0.000687539)
(-4.52821e-20 -4.95988e-20 -0.000410324)
(1.33562e-20 2.27158e-20 -0.000136289)
(-3.26231e-19 8.60217e-19 -0.0128075)
(-3.65369e-19 9.63867e-19 -0.0127559)
(-6.95204e-19 1.25105e-18 -0.0127039)
(-8.19568e-19 1.35435e-18 -0.0126515)
(-6.05228e-19 1.203e-18 -0.0125987)
(-2.33866e-19 9.48076e-19 -0.0125454)
(6.14091e-20 7.59513e-19 -0.0124918)
(2.06196e-19 6.77288e-19 -0.0124377)
(2.61258e-19 7.03975e-19 -0.0123831)
(2.77256e-19 6.87845e-19 -0.0123281)
(3.37165e-19 6.03517e-19 -0.0122727)
(3.25528e-19 5.73368e-19 -0.0122167)
(2.90646e-19 6.09038e-19 -0.0121602)
(2.59612e-19 6.11903e-19 -0.0121032)
(1.74342e-19 6.26482e-19 -0.0120456)
(8.10129e-20 6.38781e-19 -0.0119874)
(4.47418e-20 6.2277e-19 -0.0119286)
(1.69176e-19 4.88487e-19 -0.0118693)
(1.13723e-19 4.61296e-19 -0.0118092)
(-2.32609e-19 6.5237e-19 -0.0117486)
(-5.76208e-19 8.76811e-19 -0.0116872)
(-7.58354e-19 9.9889e-19 -0.0116252)
(-7.94084e-19 9.94503e-19 -0.0115625)
(-8.01291e-19 9.43087e-19 -0.011499)
(-8.06808e-19 8.84009e-19 -0.0114348)
(-8.01638e-19 8.28256e-19 -0.0113698)
(-6.4695e-19 6.97544e-19 -0.0113039)
(-5.76458e-19 6.78836e-19 -0.0112373)
(-6.92388e-19 8.29535e-19 -0.0111697)
(-6.92574e-19 9.06152e-19 -0.0111013)
(-4.75368e-19 8.19597e-19 -0.0110319)
(-3.09231e-19 7.71956e-19 -0.0109615)
(-3.78036e-19 9.23235e-19 -0.0108902)
(-5.06669e-19 1.11783e-18 -0.0108177)
(-5.58666e-19 1.26661e-18 -0.0107442)
(-5.69889e-19 1.38158e-18 -0.0106695)
(-7.14392e-19 1.56779e-18 -0.0105936)
(-8.88721e-19 1.74843e-18 -0.0105164)
(-8.70338e-19 1.76678e-18 -0.0104379)
(-6.74898e-19 1.65499e-18 -0.0103581)
(-5.31856e-19 1.57948e-18 -0.0102769)
(-6.16409e-19 1.65322e-18 -0.0101941)
(-7.33867e-19 1.75388e-18 -0.0101098)
(-6.96362e-19 1.74472e-18 -0.0100238)
(-5.97004e-19 1.66936e-18 -0.00993606)
(-5.51222e-19 1.61625e-18 -0.00984653)
(-5.07767e-19 1.57706e-18 -0.00975509)
(-4.57158e-19 1.56264e-18 -0.00966165)
(-3.76739e-19 1.55965e-18 -0.0095661)
(-2.38026e-19 1.51682e-18 -0.00946832)
(-1.40151e-19 1.49471e-18 -0.00936821)
(-1.86259e-19 1.58529e-18 -0.00926562)
(-1.60925e-19 1.62556e-18 -0.00916042)
(-1.26178e-20 1.57399e-18 -0.00905247)
(6.95718e-20 1.56789e-18 -0.00894161)
(1.31879e-19 1.56559e-18 -0.00882766)
(2.1491e-19 1.53902e-18 -0.00871047)
(2.93117e-19 1.50141e-18 -0.00858982)
(3.82662e-19 1.45382e-18 -0.00846552)
(5.57924e-19 1.34906e-18 -0.00833736)
(7.27437e-19 1.24929e-18 -0.00820509)
(8.84394e-19 1.16031e-18 -0.00806847)
(1.08521e-18 1.03321e-18 -0.00792725)
(1.18268e-18 9.84633e-19 -0.00778114)
(1.04861e-18 1.11556e-18 -0.00762986)
(8.64396e-19 1.28879e-18 -0.00747311)
(8.23691e-19 1.34937e-18 -0.00731056)
(8.6021e-19 1.34648e-18 -0.00714189)
(8.81887e-19 1.33922e-18 -0.00696678)
(8.58749e-19 1.35125e-18 -0.00678487)
(7.76139e-19 1.39922e-18 -0.00659583)
(6.56258e-19 1.4735e-18 -0.00639929)
(6.09175e-19 1.49413e-18 -0.00619468)
(6.99648e-19 1.41157e-18 -0.00598117)
(7.95984e-19 1.31691e-18 -0.00575801)
(8.13618e-19 1.26711e-18 -0.00552484)
(8.31015e-19 1.20862e-18 -0.00528144)
(8.44444e-19 1.15275e-18 -0.00502782)
(8.57869e-19 1.09206e-18 -0.00476426)
(8.60031e-19 1.0313e-18 -0.00449137)
(7.94271e-19 1.0122e-18 -0.00421015)
(7.24766e-19 9.91513e-19 -0.00392192)
(6.83378e-19 9.4877e-19 -0.00362826)
(6.24164e-19 9.20319e-19 -0.00333091)
(5.44411e-19 9.03618e-19 -0.00303156)
(5.08482e-19 8.52663e-19 -0.00273176)
(5.1626e-19 7.72268e-19 -0.00243278)
(5.20384e-19 6.94714e-19 -0.00213559)
(5.0418e-19 6.30335e-19 -0.00184085)
(4.63808e-19 5.76658e-19 -0.00154897)
(4.10328e-19 5.20983e-19 -0.00126019)
(3.63782e-19 4.4208e-19 -0.000974613)
(2.96399e-19 3.52784e-19 -0.000692269)
(2.04658e-19 2.46388e-19 -0.000413149)
(6.24334e-20 8.33266e-20 -0.000137228)
(3.60687e-21 5.42079e-19 -0.0128267)
(-1.29464e-19 6.04821e-19 -0.0127751)
(-3.8033e-19 7.98478e-19 -0.0127232)
(-6.19703e-19 1.00816e-18 -0.0126708)
(-6.5936e-19 1.12046e-18 -0.0126181)
(-5.58391e-19 1.13277e-18 -0.0125649)
(-5.18551e-19 1.16662e-18 -0.0125113)
(-4.22995e-19 1.14151e-18 -0.0124572)
(-4.90383e-19 1.19277e-18 -0.0124027)
(-7.47696e-19 1.33715e-18 -0.0123478)
(-7.85747e-19 1.29002e-18 -0.0122923)
(-5.13078e-19 1.03992e-18 -0.0122364)
(-5.27368e-19 9.95609e-19 -0.01218)
(-1.05953e-18 1.27135e-18 -0.012123)
(-1.39589e-18 1.42194e-18 -0.0120655)
(-1.36465e-18 1.33662e-18 -0.0120074)
(-1.32832e-18 1.25066e-18 -0.0119487)
(-1.48235e-18 1.27718e-18 -0.0118894)
(-1.70892e-18 1.32515e-18 -0.0118295)
(-1.74981e-18 1.25938e-18 -0.0117689)
(-1.68563e-18 1.13596e-18 -0.0117076)
(-1.68649e-18 1.07232e-18 -0.0116456)
(-1.65272e-18 9.93951e-19 -0.011583)
(-1.61836e-18 9.27971e-19 -0.0115196)
(-1.59709e-18 8.80972e-19 -0.0114554)
(-1.54612e-18 8.29292e-19 -0.0113905)
(-1.4124e-18 7.1427e-19 -0.0113247)
(-1.11363e-18 4.71773e-19 -0.0112581)
(-7.39124e-19 2.06283e-19 -0.0111907)
(-6.22056e-19 1.17586e-19 -0.0111223)
(-7.34303e-19 1.58825e-19 -0.011053)
(-6.84076e-19 6.58251e-20 -0.0109827)
(-4.38833e-19 -1.40963e-19 -0.0109115)
(-1.92267e-19 -3.19227e-19 -0.0108391)
(-1.30921e-19 -3.66719e-19 -0.0107657)
(-4.42215e-19 -1.56457e-19 -0.0106911)
(-8.73372e-19 1.60145e-19 -0.0106153)
(-1.04547e-18 3.23178e-19 -0.0105382)
(-1.05801e-18 3.85587e-19 -0.0104599)
(-1.08173e-18 4.4746e-19 -0.0103802)
(-1.14173e-18 5.27544e-19 -0.010299)
(-1.16165e-18 5.84094e-19 -0.0102164)
(-1.1524e-18 6.35583e-19 -0.0101322)
(-1.24564e-18 7.5288e-19 -0.0100463)
(-1.33802e-18 8.66192e-19 -0.00995874)
(-1.29344e-18 8.96232e-19 -0.00986935)
(-1.08075e-18 8.05856e-19 -0.00977806)
(-7.08979e-19 5.93105e-19 -0.00968478)
(-4.01388e-19 4.16207e-19 -0.00958938)
(-3.69732e-19 4.32655e-19 -0.00949177)
(-3.39608e-19 4.46699e-19 -0.00939182)
(-2.26132e-19 3.97131e-19 -0.00928941)
(-2.63237e-19 4.53557e-19 -0.00918439)
(-3.90885e-19 5.68609e-19 -0.00907663)
(-5.15028e-19 6.74273e-19 -0.00896595)
(-5.83506e-19 7.40439e-19 -0.00885221)
(-6.81683e-19 8.28631e-19 -0.00873522)
(-8.75966e-19 9.79838e-19 -0.00861478)
(-9.8281e-19 1.07058e-18 -0.00849069)
(-9.68795e-19 1.07427e-18 -0.00836274)
(-8.11693e-19 9.62221e-19 -0.00823069)
(-5.72303e-19 7.83598e-19 -0.00809429)
(-3.84455e-19 6.37217e-19 -0.00795328)
(-2.28141e-19 5.07373e-19 -0.00780739)
(-1.05891e-19 4.00931e-19 -0.00765632)
(-4.64261e-20 3.4629e-19 -0.00749977)
(-5.07352e-20 3.38377e-19 -0.00733741)
(-1.97304e-19 4.22595e-19 -0.00716892)
(-4.00102e-19 5.4491e-19 -0.00699396)
(-4.93881e-19 5.90649e-19 -0.00681218)
(-4.66036e-19 5.51981e-19 -0.00662324)
(-3.58382e-19 4.60451e-19 -0.00642677)
(-2.49087e-19 3.70118e-19 -0.00622225)
(-1.95785e-19 3.18439e-19 -0.00600882)
(-2.22534e-19 3.15883e-19 -0.0057857)
(-2.48218e-19 3.09953e-19 -0.00555247)
(-1.91721e-19 2.44336e-19 -0.00530891)
(-1.40987e-19 1.79246e-19 -0.00505499)
(-1.77893e-19 1.76971e-19 -0.00479096)
(-2.61218e-19 2.12164e-19 -0.00451742)
(-3.33303e-19 2.47101e-19 -0.00423532)
(-3.27216e-19 2.36673e-19 -0.00394599)
(-2.69945e-19 1.96526e-19 -0.00365102)
(-2.60435e-19 1.97022e-19 -0.00335216)
(-2.67598e-19 2.1907e-19 -0.00305115)
(-2.06132e-19 2.03821e-19 -0.00274958)
(-9.63163e-20 1.65491e-19 -0.00244875)
(-4.88423e-21 1.45267e-19 -0.00214966)
(5.67333e-20 1.51189e-19 -0.00185301)
(8.81178e-20 1.80889e-19 -0.00155922)
(1.01975e-19 2.1907e-19 -0.00126854)
(1.21769e-19 2.43675e-19 -0.000981077)
(1.53534e-19 2.42984e-19 -0.000696864)
(1.5592e-19 2.37081e-19 -0.000415893)
(2.55642e-20 2.91681e-20 -0.00013814)
(-5.65577e-19 5.22116e-19 -0.0128452)
(-7.35943e-19 5.34824e-19 -0.0127937)
(-7.41567e-19 4.4727e-19 -0.0127418)
(-6.31045e-19 3.08097e-19 -0.0126895)
(-3.13576e-19 8.48437e-20 -0.0126368)
(-7.54126e-20 -7.20886e-20 -0.0125836)
(1.23053e-20 -1.17914e-19 -0.0125301)
(-1.15536e-19 -1.811e-20 -0.0124761)
(-4.11527e-19 1.8288e-19 -0.0124216)
(-8.27546e-19 4.8196e-19 -0.0123667)
(-1.0218e-18 6.42749e-19 -0.0123113)
(-8.95962e-19 5.92566e-19 -0.0122554)
(-9.17743e-19 5.97529e-19 -0.0121991)
(-1.01044e-18 6.6917e-19 -0.0121422)
(-1.00825e-18 7.10737e-19 -0.0120847)
(-1.00022e-18 7.52386e-19 -0.0120267)
(-1.03991e-18 8.13808e-19 -0.011968)
(-1.10396e-18 8.85704e-19 -0.0119088)
(-1.20213e-18 9.82707e-19 -0.0118489)
(-1.34066e-18 1.12292e-18 -0.0117884)
(-1.43307e-18 1.23801e-18 -0.0117272)
(-1.38247e-18 1.27135e-18 -0.0116653)
(-1.20446e-18 1.2085e-18 -0.0116027)
(-9.79521e-19 1.09104e-18 -0.0115394)
(-7.41439e-19 9.55364e-19 -0.0114753)
(-6.44311e-19 8.99121e-19 -0.0114104)
(-6.49495e-19 9.08582e-19 -0.0113447)
(-4.94495e-19 8.15342e-19 -0.0112782)
(-3.97476e-19 7.38765e-19 -0.0112108)
(-6.10179e-19 8.1954e-19 -0.0111426)
(-8.28572e-19 9.08189e-19 -0.0110733)
(-7.6655e-19 8.16436e-19 -0.0110032)
(-5.14155e-19 5.94356e-19 -0.010932)
(-4.26877e-19 4.65596e-19 -0.0108597)
(-4.66404e-19 3.94977e-19 -0.0107863)
(-2.96016e-19 1.88276e-19 -0.0107118)
(-1.29719e-19 4.79293e-21 -0.0106361)
(-1.55481e-19 -3.22805e-20 -0.0105592)
(-2.44031e-19 -1.59805e-20 -0.010481)
(-2.58251e-19 -5.12055e-20 -0.0104013)
(-2.18315e-19 -1.24746e-19 -0.0103203)
(-1.92665e-19 -1.68465e-19 -0.0102378)
(-2.57704e-19 -1.42947e-19 -0.0101537)
(-3.44685e-19 -9.40477e-20 -0.010068)
(-2.24191e-19 -1.69335e-19 -0.00998054)
(-1.62411e-19 -2.00724e-19 -0.00989129)
(-3.42307e-19 -7.12091e-20 -0.00980014)
(-5.51087e-19 6.51989e-20 -0.009707)
(-5.36728e-19 4.22992e-20 -0.00961175)
(-4.13061e-19 -4.77896e-20 -0.0095143)
(-4.45417e-19 -3.27777e-20 -0.00941451)
(-5.70808e-19 2.47394e-20 -0.00931226)
(-6.2128e-19 2.30051e-20 -0.00920742)
(-6.507e-19 2.1595e-20 -0.00909983)
(-7.02724e-19 3.71469e-20 -0.00898934)
(-6.7466e-19 -6.58573e-21 -0.00887579)
(-6.5429e-19 -5.02656e-20 -0.00875898)
(-6.4506e-19 -7.42536e-20 -0.00863874)
(-6.29291e-19 -9.59987e-20 -0.00851486)
(-7.18626e-19 -5.60184e-20 -0.00838711)
(-8.61844e-19 1.65626e-20 -0.00825527)
(-8.36778e-19 -1.92078e-20 -0.00811908)
(-6.98619e-19 -1.3425e-19 -0.00797828)
(-6.24417e-19 -2.15475e-19 -0.0078326)
(-6.15366e-19 -2.62379e-19 -0.00768173)
(-6.33648e-19 -2.93973e-19 -0.00752537)
(-7.13556e-19 -2.83371e-19 -0.0073632)
(-7.57391e-19 -2.92211e-19 -0.00719488)
(-7.08601e-19 -3.51427e-19 -0.00702007)
(-6.90037e-19 -3.85279e-19 -0.00683842)
(-6.90935e-19 -4.01341e-19 -0.00664958)
(-6.84042e-19 -4.18114e-19 -0.00645318)
(-6.63209e-19 -4.4765e-19 -0.00624874)
(-6.38865e-19 -4.81626e-19 -0.00603541)
(-6.23865e-19 -5.05673e-19 -0.00581233)
(-6.18898e-19 -5.14844e-19 -0.00557906)
(-6.3299e-19 -5.07084e-19 -0.00533536)
(-6.08122e-19 -5.22347e-19 -0.00508116)
(-5.13845e-19 -5.78735e-19 -0.0048167)
(-3.8405e-19 -6.49611e-19 -0.00454253)
(-2.72766e-19 -6.96098e-19 -0.00425961)
(-2.51494e-19 -6.72688e-19 -0.00396923)
(-2.77077e-19 -6.07592e-19 -0.00367301)
(-2.98487e-19 -5.30704e-19 -0.00337271)
(-2.92274e-19 -4.55782e-19 -0.0030701)
(-2.55608e-19 -3.84311e-19 -0.00276682)
(-1.973e-19 -3.13594e-19 -0.0024642)
(-1.2001e-19 -2.4056e-19 -0.00216328)
(-4.89513e-20 -1.55989e-19 -0.00186478)