/*--------------------------------*- C++ -*----------------------------------*\
  =========                 |
  \\      /  F ield         | OpenFOAM: The Open Source CFD Toolbox
   \\    /   O peration     | Website:  https://openfoam.org
    \\  /    A nd           | Version:  7
     \\/     M anipulation  |
\*---------------------------------------------------------------------------*/
FoamFile
{
    version     2.0;
    format      ascii;
    class       volVectorField;
    location    "196000";
    object      vorticity;
}
// * * * * * * * * * * * * * * * * * * * * * * * * * * * * * * * * * * * * * //

dimensions      [0 0 -1 0 0 0 0];

internalField   nonuniform List<vector> 
4844
(
(0.00949903 -0.0030838 5.1228e-18)
(0.00944905 -0.00340838 -5.41397e-17)
(0.00939385 -0.00373289 -3.9078e-17)
(0.0097229 -0.00315211 9.87158e-18)
(0.00967109 -0.00348381 -3.14583e-17)
(0.00961388 -0.00381541 -2.97285e-17)
(0.00955119 -0.00414688 -3.27557e-17)
(0.00948297 -0.00447818 -2.6446e-17)
(0.00940915 -0.00480925 -2.44896e-17)
(0.00932965 -0.00514004 -2.36103e-17)
(0.0092444 -0.00547046 -1.63056e-17)
(0.00994893 -0.0032211 4.17122e-18)
(0.00989528 -0.00355998 -2.62268e-17)
(0.00983605 -0.00389874 -2.57355e-17)
(0.00977116 -0.00423735 -3.33588e-17)
(0.00970054 -0.00457576 -2.74779e-17)
(0.00962413 -0.00491391 -2.62656e-17)
(0.00954186 -0.00525174 -2.49108e-17)
(0.00945363 -0.00558917 -1.76932e-17)
(0.00935938 -0.00592612 -1.23572e-17)
(0.00925902 -0.00626249 -1.21583e-17)
(0.00915246 -0.00659818 -1.3824e-17)
(0.0101772 -0.00329078 3.59519e-18)
(0.0101217 -0.00363693 -1.97088e-17)
(0.0100605 -0.00398294 -2.20213e-17)
(0.00999337 -0.00432877 -2.99871e-17)
(0.00992036 -0.00467437 -2.50694e-17)
(0.00984136 -0.00501968 -2.47279e-17)
(0.0097563 -0.00536464 -2.29201e-17)
(0.00966509 -0.00570916 -1.70523e-17)
(0.00956767 -0.00605316 -1.41269e-17)
(0.00946393 -0.00639654 -1.20802e-17)
(0.0093538 -0.00673919 -1.30012e-17)
(0.00923719 -0.00708098 -1.24174e-17)
(0.00911401 -0.00742178 -1.32894e-17)
(0.00898418 -0.00776143 -1.51777e-17)
(0.00884638 -0.00810111 -1.11352e-17)
(0.00951391 -0.00762674 -3.87351e-18)
(0.0104079 -0.00336121 4.8802e-18)
(0.0103505 -0.0037147 -1.44124e-17)
(0.0102873 -0.00406803 -1.91324e-17)
(0.0102179 -0.00442117 -2.47984e-17)
(0.0101425 -0.00477405 -2.11291e-17)
(0.0100609 -0.00512661 -2.25652e-17)
(0.00997307 -0.00547878 -2.08182e-17)
(0.00987888 -0.00583049 -1.55664e-17)
(0.00977827 -0.00618163 -1.40162e-17)
(0.00967115 -0.00653211 -1.12938e-17)
(0.00955744 -0.00688182 -1.11342e-17)
(0.00943703 -0.00723061 -1.20139e-17)
(0.00930985 -0.00757836 -1.42666e-17)
(0.00917581 -0.0079249 -1.55828e-17)
(0.00903362 -0.00827135 -1.18862e-17)
(0.00969026 -0.00780998 -5.54987e-18)
(0.010641 -0.0034324 5.75209e-18)
(0.0105818 -0.00379333 -1.15207e-17)
(0.0105165 -0.00415408 -1.63363e-17)
(0.010445 -0.0045146 -2.09916e-17)
(0.0103672 -0.00487485 -1.84133e-17)
(0.010283 -0.00523475 -2.08953e-17)
(0.0101923 -0.00559423 -1.9239e-17)
(0.0100951 -0.00595322 -1.47386e-17)
(0.0099913 -0.0063116 -1.25763e-17)
(0.00988078 -0.00666928 -1.03682e-17)
(0.00976346 -0.00702613 -9.92034e-18)
(0.00963924 -0.00738203 -1.07257e-17)
(0.00950804 -0.00773683 -1.35511e-17)
(0.00936976 -0.00809036 -1.45305e-17)
(0.00922316 -0.00844369 -1.0987e-17)
(0.00986903 -0.00799528 -5.65611e-18)
(0.0108157 -0.00387285 -8.79837e-18)
(0.0107484 -0.00424111 -1.34634e-17)
(0.0106746 -0.00460911 -1.85009e-17)
(0.0105944 -0.00497682 -1.68142e-17)
(0.0105075 -0.00534416 -1.96131e-17)
(0.0104141 -0.00571105 -1.80537e-17)
(0.0103139 -0.0060774 -1.43851e-17)
(0.0102069 -0.00644312 -1.16174e-17)
(0.0100929 -0.0068081 -9.39173e-18)
(0.00997198 -0.00717221 -9.4184e-18)
(0.00984393 -0.00753532 -9.49661e-18)
(0.00970868 -0.00789727 -1.22605e-17)
(0.00956614 -0.00825789 -1.28359e-17)
(0.0094151 -0.00861821 -1.03164e-17)
(0.0100503 -0.00818272 -5.56747e-18)
(0.0110523 -0.00395331 -6.1728e-18)
(0.0109829 -0.00432917 -1.11354e-17)
(0.0109069 -0.00470475 -1.67702e-17)
(0.0108242 -0.00508002 -1.62329e-17)
(0.0107348 -0.00545489 -1.91067e-17)
(0.0106385 -0.00582928 -1.73536e-17)
(0.0105353 -0.00620311 -1.3779e-17)
(0.010425 -0.00657627 -1.11618e-17)
(0.0103077 -0.00694865 -9.01398e-18)
(0.0101831 -0.00732012 -9.02243e-18)
(0.0100512 -0.00769054 -8.66028e-18)
(0.00991187 -0.00805975 -1.13319e-17)
(0.00976504 -0.00842758 -1.12331e-17)
(0.00960953 -0.008795 -1.05083e-17)
(0.0102342 -0.0083724 -7.9715e-18)
(0.0112917 -0.00403475 -3.96112e-18)
(0.0112203 -0.0044183 -9.10099e-18)
(0.0111421 -0.00480157 -1.5612e-17)
(0.0110569 -0.00518449 -1.59929e-17)
(0.0109649 -0.00556699 -1.85354e-17)
(0.0108657 -0.005949 -1.70076e-17)
(0.0107595 -0.00633041 -1.31823e-17)
(0.010646 -0.00671112 -1.08494e-17)
(0.0105252 -0.007091 -8.88088e-18)
(0.0103969 -0.00746994 -8.84781e-18)
(0.0102611 -0.00784778 -7.61409e-18)
(0.0101177 -0.00822437 -1.09022e-17)
(0.00996656 -0.00859952 -1.04544e-17)
(0.00980654 -0.00897415 -1.09311e-17)
(0.0104207 -0.00856442 -1.13965e-17)
(0.0116007 -0.00372562 8.00793e-18)
(0.0115341 -0.00411721 -2.36373e-18)
(0.0114606 -0.00450856 -8.0213e-18)
(0.0113801 -0.00489961 -1.48609e-17)
(0.0112925 -0.00529029 -1.54144e-17)
(0.0111978 -0.00568053 -1.76524e-17)
(0.0110958 -0.00607025 -1.67733e-17)
(0.0109865 -0.00645935 -1.23532e-17)
(0.0108698 -0.00684772 -1.05295e-17)
(0.0107455 -0.00723523 -9.24017e-18)
(0.0106135 -0.00762175 -8.69445e-18)
(0.0104738 -0.00800712 -6.4505e-18)
(0.0103263 -0.00839119 -9.76158e-18)
(0.0101708 -0.00877378 -9.78997e-18)
(0.0100062 -0.00915574 -1.13827e-17)
(0.0106101 -0.00875887 -1.34141e-17)
(0.011848 -0.00380122 8.47992e-18)
(0.0117796 -0.00420073 -1.58607e-18)
(0.011704 -0.00459998 -7.5675e-18)
(0.0116212 -0.00499892 -1.42871e-17)
(0.0115312 -0.00539747 -1.48975e-17)
(0.0114338 -0.00579557 -1.68337e-17)
(0.0113289 -0.00619312 -1.62752e-17)
(0.0112166 -0.00659001 -1.1657e-17)
(0.0110965 -0.00698615 -1.00084e-17)
(0.0109687 -0.00738139 -9.76168e-18)
(0.0108331 -0.00777561 -8.46509e-18)
(0.0106895 -0.00816864 -5.83732e-18)
(0.0105378 -0.00856032 -8.41309e-18)
(0.0103779 -0.00895045 -8.64662e-18)
(0.0102087 -0.00933988 -1.1664e-17)
(0.0108023 -0.00895585 -1.2948e-17)
(0.0120986 -0.00387782 9.02821e-18)
(0.0120282 -0.00428535 -2.11456e-18)
(0.0119506 -0.00469262 -7.82119e-18)
(0.0118655 -0.00509956 -1.33596e-17)
(0.011773 -0.00550609 -1.40332e-17)
(0.0116729 -0.00591215 -1.64268e-17)
(0.0115652 -0.00631764 -1.51453e-17)
(0.0114497 -0.00672246 -1.06564e-17)
(0.0113264 -0.00712648 -9.49046e-18)
(0.011195 -0.00752958 -1.01386e-17)
(0.0110557 -0.00793161 -8.62502e-18)
(0.0109081 -0.00833242 -5.62101e-18)
(0.0107522 -0.00873183 -7.47317e-18)
(0.0105879 -0.00912964 -7.41399e-18)
(0.0104141 -0.00952665 -1.08785e-17)
(0.0109975 -0.00915547 -1.2222e-17)
(0.0123524 -0.00395545 9.16199e-18)
(0.0122802 -0.00437112 -1.99442e-18)
(0.0122004 -0.00478652 -8.14309e-18)
(0.0121131 -0.00520157 -1.24727e-17)
(0.0120181 -0.00561621 -1.29494e-17)
(0.0119153 -0.00603035 -1.62852e-17)
(0.0118047 -0.0064439 -1.4749e-17)
(0.0116861 -0.00685675 -1.00845e-17)
(0.0115594 -0.00726878 -9.31454e-18)
(0.0114245 -0.00767986 -9.9477e-18)
(0.0112814 -0.00808984 -8.252e-18)
(0.0111298 -0.00849855 -5.11903e-18)
(0.0109697 -0.00890581 -7.01164e-18)
(0.0108009 -0.00931143 -6.91606e-18)
(0.0106225 -0.00971615 -9.57951e-18)
(0.0111957 -0.00935782 -1.15634e-17)
(0.0126763 -0.00360999 1.77691e-17)
(0.0126098 -0.00403415 9.08263e-18)
(0.0125356 -0.00445809 -2.18178e-18)
(0.0124538 -0.00488173 -8.28259e-18)
(0.0123641 -0.00530502 -1.13769e-17)
(0.0122666 -0.00572788 -1.15519e-17)
(0.0121611 -0.00615022 -1.54341e-17)
(0.0120475 -0.00657196 -1.45745e-17)
(0.0119258 -0.00699297 -9.79925e-18)
(0.0117958 -0.00741314 -9.51261e-18)
(0.0116573 -0.00783232 -1.04479e-17)
(0.0115104 -0.00825037 -8.04499e-18)
(0.0113548 -0.00866711 -5.26308e-18)
(0.0111904 -0.00908236 -6.68161e-18)
(0.0110171 -0.00949591 -6.67818e-18)
(0.010834 -0.00990848 -8.47942e-18)
(0.0113972 -0.00956302 -9.94707e-18)
(0.012939 -0.00368143 1.74695e-17)
(0.0128707 -0.00411398 8.12085e-18)
(0.0127947 -0.00454629 -2.69606e-18)
(0.0127107 -0.0049783 -8.03598e-18)
(0.0126187 -0.00540995 -9.9591e-18)
(0.0125186 -0.00584115 -1.08052e-17)
(0.0124104 -0.00627183 -1.44631e-17)
(0.0122939 -0.00670188 -1.42183e-17)
(0.012169 -0.00713118 -9.58356e-18)
(0.0120356 -0.00755962 -8.62307e-18)
(0.0118935 -0.00798704 -1.1133e-17)
(0.0117427 -0.00841329 -8.29769e-18)
(0.0115831 -0.00883819 -5.60107e-18)
(0.0114144 -0.00926156 -6.94343e-18)
(0.0112366 -0.00968319 -6.70891e-18)
(0.0110487 -0.0101037 -7.68805e-18)
(0.0116019 -0.00977116 -7.36515e-18)
(0.0132675 -0.00331263 1.61416e-17)
(0.0132054 -0.0037539 1.60416e-17)
(0.0131354 -0.00419497 6.46769e-18)
(0.0130574 -0.00463578 -3.1359e-18)
(0.0129713 -0.00507629 -7.65931e-18)
(0.012877 -0.00551642 -8.36291e-18)
(0.0127744 -0.0059561 -1.02492e-17)
(0.0126634 -0.00639524 -1.33907e-17)
(0.0125439 -0.00683373 -1.37756e-17)
(0.0124158 -0.00727146 -9.73289e-18)
(0.0122789 -0.0077083 -7.24524e-18)
(0.0121333 -0.00814409 -1.10801e-17)
(0.0119786 -0.00857868 -8.98117e-18)
(0.0118148 -0.00901189 -6.19886e-18)
(0.0116418 -0.00944352 -7.45503e-18)
(0.0114594 -0.00987336 -6.22341e-18)
(0.0112667 -0.010302 -7.17387e-18)
(0.01181 -0.00998237 -5.82189e-18)
(0.0135393 -0.00337754 1.51736e-17)
(0.0134758 -0.00382745 1.36935e-17)
(0.013404 -0.00427715 5.34087e-18)
(0.0133241 -0.00472661 -3.15171e-18)
(0.0132358 -0.00517574 -7.35554e-18)
(0.0131391 -0.0056245 -7.16171e-18)
(0.0130339 -0.00607279 -9.5898e-18)
(0.0129201 -0.00652052 -1.26409e-17)
(0.0127976 -0.0069676 -1.27921e-17)
(0.0126663 -0.00741389 -9.92635e-18)
(0.012526 -0.00785926 -6.14763e-18)
(0.0123767 -0.00830357 -1.02508e-17)
(0.0122181 -0.00874664 -9.33251e-18)
(0.0120502 -0.0091883 -6.73459e-18)
(0.0118728 -0.00962833 -8.34106e-18)
(0.0116858 -0.0100665 -5.43576e-18)
(0.0114882 -0.0105035 -6.33716e-18)
(0.0120217 -0.0101968 -5.55451e-18)
(0.0138153 -0.00344342 1.32104e-17)
(0.0137502 -0.00390211 1.11924e-17)
(0.0136766 -0.00436059 4.39344e-18)
(0.0135947 -0.00481882 -2.39612e-18)
(0.0135042 -0.00527672 -6.78251e-18)
(0.0134052 -0.00573423 -6.65187e-18)
(0.0132974 -0.00619127 -9.01936e-18)
(0.0131808 -0.00664774 -1.24767e-17)
(0.0130553 -0.00710354 -1.19842e-17)
(0.0129207 -0.00755853 -9.48617e-18)
(0.012777 -0.00801259 -5.58693e-18)
(0.0126239 -0.00846556 -9.69495e-18)
(0.0124614 -0.00891726 -9.2428e-18)
(0.0122893 -0.00936751 -6.87467e-18)
(0.0121075 -0.00981609 -8.849e-18)
(0.0119158 -0.0102628 -5.40478e-18)
(0.0117132 -0.0107082 -5.65444e-18)
(0.0122369 -0.0104144 -5.282e-18)
(0.0140955 -0.00351033 1.06904e-17)
(0.0140287 -0.00397793 8.98951e-18)
(0.0139535 -0.00444533 3.32261e-18)
(0.0138695 -0.00491246 -1.31903e-18)
(0.0137769 -0.00537927 -5.93848e-18)
(0.0136754 -0.00584568 -6.22113e-18)
(0.013565 -0.00631161 -8.60397e-18)
(0.0134456 -0.00677697 -1.23377e-17)
(0.013317 -0.00724163 -1.1403e-17)
(0.0131791 -0.00770548 -8.51797e-18)
(0.0130319 -0.00816837 -5.27736e-18)
(0.0128751 -0.00863015 -9.41208e-18)
(0.0127086 -0.00909063 -9.35029e-18)
(0.0125323 -0.00954962 -6.25897e-18)
(0.0123459 -0.0100069 -8.41349e-18)
(0.0121495 -0.0104623 -6.10582e-18)
(0.011942 -0.0109162 -5.39586e-18)
(0.0124559 -0.0106355 -4.54771e-18)
(0.01438 -0.00357828 8.10378e-18)
(0.0143117 -0.00405495 7.20451e-18)
(0.0142346 -0.0045314 2.68393e-18)
(0.0141487 -0.00500759 -7.25931e-19)
(0.0140538 -0.00548345 -5.17777e-18)
(0.0139499 -0.00595891 -5.50817e-18)
(0.0138369 -0.00643389 -8.03223e-18)
(0.0137146 -0.00690827 -1.19005e-17)
(0.0135829 -0.00738196 -1.08593e-17)
(0.0134417 -0.00785481 -7.68362e-18)
(0.0132909 -0.00832669 -5.18441e-18)
(0.0131303 -0.00879743 -9.63465e-18)
(0.0129598 -0.00926685 -9.59333e-18)
(0.0127792 -0.00973474 -5.99719e-18)
(0.0125884 -0.0102009 -7.86678e-18)
(0.0123871 -0.0106651 -6.14725e-18)
(0.0121746 -0.0111278 -4.88158e-18)
(0.0126788 -0.0108602 -4.05708e-18)
(0.0146691 -0.00364733 5.44959e-18)
(0.0145991 -0.00413321 5.54776e-18)
(0.0145202 -0.00461887 2.78336e-18)
(0.0144323 -0.00510427 3.34452e-19)
(0.0143352 -0.00558933 -4.57113e-18)
(0.0142288 -0.00607399 -5.21504e-18)
(0.0141131 -0.00655816 -7.75024e-18)
(0.0139879 -0.00704173 -1.11419e-17)
(0.0138531 -0.0075246 -9.9657e-18)
(0.0137086 -0.00800662 -7.31445e-18)
(0.0135542 -0.00848764 -5.05515e-18)
(0.0133898 -0.0089675 -9.75435e-18)
(0.0132152 -0.00944602 -9.85316e-18)
(0.0130303 -0.00992298 -6.01907e-18)
(0.0128348 -0.0103982 -6.9384e-18)
(0.0126287 -0.0108713 -5.73044e-18)
(0.0124111 -0.0113429 -4.5421e-18)
(0.0129056 -0.0110885 -3.74908e-18)
(0.0149628 -0.00371752 2.84793e-18)
(0.0148913 -0.00421275 4.13658e-18)
(0.0148105 -0.00470778 2.78167e-18)
(0.0147205 -0.00520254 1.35672e-18)
(0.0146212 -0.00569696 -3.69553e-18)
(0.0145123 -0.00619098 -5.02851e-18)
(0.0143939 -0.00668451 -7.49e-18)
(0.0142658 -0.00717743 -1.0397e-17)
(0.0141279 -0.00766963 -8.99253e-18)
(0.01398 -0.00816097 -7.00651e-18)
(0.0138219 -0.00865131 -4.64225e-18)
(0.0136537 -0.00914046 -9.50923e-18)
(0.0134749 -0.00962824 -1.02333e-17)
(0.0132856 -0.0101144 -6.15008e-18)
(0.0130856 -0.0105988 -6.0529e-18)
(0.0128745 -0.0110811 -4.77387e-18)
(0.0126517 -0.0115618 -4.14881e-18)
(0.0131366 -0.0113206 -3.27693e-18)
(0.0152614 -0.00378887 6.79193e-19)
(0.0151883 -0.00429363 2.84212e-18)
(0.0151057 -0.00479818 2.4195e-18)
(0.0150136 -0.00530246 1.74191e-18)
(0.014912 -0.00580641 -2.81782e-18)
(0.0148006 -0.00630995 -4.82317e-18)
(0.0146795 -0.00681299 -7.26359e-18)
(0.0145484 -0.00731543 -9.7373e-18)
(0.0144073 -0.00781714 -8.33887e-18)
(0.0142559 -0.00831797 -6.62653e-18)
(0.0140942 -0.00881779 -3.95428e-18)
(0.013922 -0.0093164 -8.49182e-18)
(0.0137392 -0.00981362 -1.05697e-17)
(0.0135454 -0.0103092 -6.71223e-18)
(0.0133406 -0.010803 -5.48425e-18)
(0.0131246 -0.0112946 -4.10041e-18)
(0.0128966 -0.0117845 -2.95459e-18)
(0.0133718 -0.0115566 -2.39208e-18)
(0.0155651 -0.00386145 -9.97508e-19)
(0.0154903 -0.00437589 1.52476e-18)
(0.0154058 -0.00489013 2.27746e-18)
(0.0153116 -0.0054041 1.61804e-18)
(0.0152077 -0.00591774 -2.41377e-18)
(0.0150938 -0.00643097 -4.49208e-18)
(0.0149699 -0.0069437 -7.22517e-18)
(0.0148358 -0.00745582 -9.17851e-18)
(0.0146915 -0.00796721 -8.19841e-18)
(0.0145367 -0.00847772 -6.47591e-18)
(0.0143713 -0.00898719 -2.50002e-18)
(0.0141951 -0.00949544 -7.11844e-18)
(0.014008 -0.0100023 -1.10404e-17)
(0.0138098 -0.0105074 -7.3515e-18)
(0.0136002 -0.0110107 -5.17854e-18)
(0.0133792 -0.0115119 -4.8395e-18)
(0.0131458 -0.0120113 -1.48767e-18)
(0.0136115 -0.0117967 -6.19974e-19)
(0.015874 -0.00393528 -2.24009e-18)
(0.0157975 -0.00445958 4.41408e-19)
(0.0157111 -0.00498368 1.92676e-18)
(0.0156148 -0.00550751 8.71658e-19)
(0.0155085 -0.00603102 -2.16163e-18)
(0.0153921 -0.00655411 -3.64513e-18)
(0.0152654 -0.00707671 -7.58387e-18)
(0.0151283 -0.00759869 -9.21402e-18)
(0.0149807 -0.00811993 -7.73323e-18)
(0.0148224 -0.00864029 -6.34482e-18)
(0.0146532 -0.0091596 -1.20259e-18)
(0.014473 -0.00967767 -5.31967e-18)
(0.0142816 -0.0101943 -1.13864e-17)
(0.0140789 -0.0107092 -8.20795e-18)
(0.0138645 -0.0112223 -4.87398e-18)
(0.0136383 -0.0117331 -5.25787e-18)
(0.0133996 -0.0122421 -1.40949e-18)
(0.0138557 -0.012041 1.73369e-18)
(0.0161883 -0.00401041 -3.14179e-18)
(0.01611 -0.00454475 -4.00717e-19)
(0.0160218 -0.00507888 1.8074e-18)
(0.0159234 -0.00561276 2.16344e-19)
(0.0158147 -0.00614631 -2.45923e-18)
(0.0156957 -0.00667945 -3.22758e-18)
(0.0155662 -0.00721209 -7.7374e-18)
(0.015426 -0.00774412 -9.38177e-18)
(0.0152751 -0.0082754 -7.48592e-18)
(0.0151132 -0.0088058 -5.9153e-18)
(0.0149402 -0.00933513 -3.36082e-19)
(0.014756 -0.0098632 -4.01268e-18)
(0.0145602 -0.0103898 -1.20854e-17)
(0.0143529 -0.0109147 -8.74989e-18)
(0.0141336 -0.0114377 -4.14116e-18)
(0.0139023 -0.0119584 -4.24817e-18)
(0.013658 -0.0124772 -1.75262e-18)
(0.0141045 -0.0122897 3.05093e-18)
(0.0165081 -0.0040869 -3.1267e-18)
(0.0164282 -0.00463145 -6.70575e-19)
(0.016338 -0.0051758 1.68463e-18)
(0.0162374 -0.0057199 -1.05572e-19)
(0.0161264 -0.00626368 -2.71237e-18)
(0.0160047 -0.00680706 -3.6922e-18)
(0.0158723 -0.00734994 -7.79355e-18)
(0.0157291 -0.0078922 -9.18738e-18)
(0.0155748 -0.00843372 -7.45005e-18)
(0.0154093 -0.00897434 -5.70534e-18)
(0.0152325 -0.00951388 7.62951e-20)
(0.0150441 -0.0100522 -3.16094e-18)
(0.014844 -0.010589 -1.21651e-17)
(0.0146319 -0.011124 -8.9983e-18)
(0.0144077 -0.0116571 -3.63181e-18)
(0.0141711 -0.0121879 -3.29764e-18)
(0.0139213 -0.0127167 -1.6967e-18)
(0.0143582 -0.0125429 3.12553e-18)
(0.0168338 -0.00416478 -2.52726e-18)
(0.0167522 -0.00471973 -5.32436e-19)
(0.01666 -0.0052745 1.67349e-18)
(0.0165572 -0.00582902 -2.11451e-20)
(0.0164437 -0.00638322 -2.66955e-18)
(0.0163194 -0.00693702 -4.86698e-18)
(0.0161841 -0.00749033 -7.94696e-18)
(0.0160377 -0.00804302 -8.54058e-18)
(0.01588 -0.00859497 -7.38154e-18)
(0.0157109 -0.00914602 -5.82895e-18)
(0.0155301 -0.00969598 2.55811e-19)
(0.0153376 -0.0102447 -2.97978e-18)
(0.015133 -0.0107918 -1.16908e-17)
(0.0149162 -0.0113373 -8.98896e-18)
(0.014687 -0.0118807 -3.45715e-18)
(0.014445 -0.0124217 -3.02921e-18)
(0.0141896 -0.0129608 -1.61626e-18)
(0.014617 -0.0128008 2.70289e-18)
(0.0171655 -0.00424411 -1.55761e-18)
(0.0170821 -0.00480966 -3.95872e-19)
(0.0169879 -0.00537503 1.56173e-18)
(0.0168829 -0.00594017 1.23282e-19)
(0.016767 -0.00650499 -2.15457e-18)
(0.01664 -0.00706942 -6.16622e-18)
(0.0165017 -0.00763336 -7.90623e-18)
(0.0163521 -0.00819669 -7.37307e-18)
(0.016191 -0.00875927 -7.35243e-18)
(0.0160182 -0.00932094 -6.46407e-18)
(0.0158334 -0.00988153 5.16383e-19)
(0.0156366 -0.0104408 -3.01673e-18)
(0.0154275 -0.0109986 -1.07909e-17)
(0.0152059 -0.0115546 -8.55544e-18)
(0.0149716 -0.0121085 -3.28751e-18)
(0.0147243 -0.0126601 -2.68488e-18)
(0.0144631 -0.0132096 -1.97806e-18)
(0.0148809 -0.0130635 2.24205e-18)
(0.0175034 -0.00432493 -1.27854e-18)
(0.0174182 -0.00490129 -1.73178e-19)
(0.017322 -0.00547747 1.36348e-18)
(0.0172148 -0.00605342 -1.86757e-19)
(0.0170963 -0.00662907 -1.26193e-18)
(0.0169666 -0.00720434 -7.4141e-18)
(0.0168254 -0.00777911 -8.34075e-18)
(0.0166725 -0.00835328 -5.95528e-18)
(0.0165079 -0.00892671 -6.38356e-18)
(0.0163313 -0.00949923 -6.98044e-18)
(0.0161425 -0.0100707 -2.75149e-20)
(0.0159414 -0.0106408 -3.12397e-18)
(0.0157278 -0.0112094 -9.93413e-18)
(0.0155013 -0.0117761 -7.2629e-18)
(0.0152618 -0.0123408 -2.61533e-18)
(0.0150089 -0.0129031 -2.20151e-18)
(0.014742 -0.0134632 -2.68661e-18)
(0.0151501 -0.0133312 1.34754e-18)
(0.0179236 -0.00381982 9.17083e-19)
(0.0178477 -0.00440731 -1.45497e-18)
(0.0177607 -0.00499468 -5.38282e-19)
(0.0176625 -0.00558188 1.07439e-18)
(0.017553 -0.00616886 -6.41677e-19)
(0.017432 -0.00675555 -3.86347e-19)
(0.0172995 -0.00734186 -7.74328e-18)
(0.0171552 -0.00792769 -8.58929e-18)
(0.0169991 -0.00851292 -5.17155e-18)
(0.0168309 -0.00909741 -6.09507e-18)
(0.0166505 -0.009681 -7.17172e-18)
(0.0164577 -0.0102635 -9.61346e-19)
(0.0162522 -0.0108447 -3.05751e-18)
(0.0160339 -0.0114243 -9.25965e-18)
(0.0158024 -0.0120021 -6.12832e-18)
(0.0155576 -0.0125777 -1.53552e-18)
(0.0152992 -0.0131509 -1.01944e-18)
(0.0150264 -0.0137219 -3.33616e-18)
(0.0154249 -0.0136041 -1.54015e-19)
(0.0182762 -0.00389258 7.88908e-19)
(0.0181987 -0.00449129 -1.99844e-18)
(0.0181098 -0.00508988 -5.10211e-19)
(0.0180096 -0.00568833 7.9297e-19)
(0.0178977 -0.00628656 -1.68843e-18)
(0.0177742 -0.0068845 -2.5784e-19)
(0.0176389 -0.00748208 -7.58156e-18)
(0.0174915 -0.00807919 -8.3199e-18)
(0.0173321 -0.00867571 -4.25609e-18)
(0.0171603 -0.00927149 -6.19303e-18)
(0.016976 -0.00986636 -7.35364e-18)
(0.016779 -0.0104601 -1.84394e-18)
(0.0165691 -0.0110526 -3.39947e-18)
(0.0163461 -0.0116435 -8.62184e-18)
(0.0161096 -0.0122325 -5.10036e-18)
(0.0158594 -0.0128194 -4.51195e-19)
(0.0155953 -0.0134038 6.05874e-20)
(0.0153165 -0.0139859 -2.82762e-18)
(0.0157054 -0.0138824 -6.76645e-19)
(0.0187033 -0.00335656 6.26504e-18)
(0.0186357 -0.00396678 1.20806e-18)
(0.0185565 -0.00457693 -2.49127e-18)
(0.0184658 -0.00518698 -4.6764e-19)
(0.0183635 -0.00579688 6.78042e-19)
(0.0182493 -0.00640659 -2.74009e-18)
(0.0181232 -0.00701602 -4.95746e-19)
(0.017985 -0.0076251 -7.5369e-18)
(0.0178345 -0.00823372 -8.19372e-18)
(0.0176717 -0.00884175 -3.83896e-18)
(0.0174962 -0.00944905 -5.97542e-18)
(0.017308 -0.0100554 -7.4662e-18)
(0.0171068 -0.0106607 -2.16842e-18)
(0.0168924 -0.0112647 -3.99565e-18)
(0.0166645 -0.0118671 -8.60618e-18)
(0.016423 -0.0124676 -4.62565e-18)
(0.0161674 -0.0130659 1.1373e-18)
(0.0158975 -0.0136617 6.65344e-19)
(0.0156126 -0.0142552 -2.51151e-18)
(0.0159918 -0.0141662 -3.55191e-20)
(0.0190714 -0.00342059 6.15734e-18)
(0.0190023 -0.00404246 1.93212e-18)
(0.0189216 -0.00466429 -2.3133e-18)
(0.018829 -0.00528602 -3.79649e-19)
(0.0187245 -0.00590762 5.01156e-19)
(0.0186079 -0.00652904 -3.62645e-18)
(0.0184791 -0.00715019 -5.19e-19)
(0.018338 -0.00777101 -8.09101e-18)
(0.0181844 -0.00839137 -8.45686e-18)
(0.0180181 -0.00901116 -3.59318e-18)
(0.017839 -0.00963022 -5.77997e-18)
(0.0176468 -0.0102484 -7.30254e-18)
(0.0174413 -0.0108655 -2.3514e-18)
(0.0172223 -0.0114812 -4.55608e-18)
(0.0169895 -0.0120953 -8.73582e-18)
(0.0167427 -0.0127076 -4.37067e-18)
(0.0164817 -0.0133176 2.0472e-18)
(0.0162059 -0.013925 1.69183e-18)
(0.0159148 -0.0145301 -2.9718e-18)
(0.0162842 -0.0144558 9.17357e-19)
(0.0194469 -0.00348591 5.82282e-18)
(0.0193764 -0.00411969 2.70343e-18)
(0.019294 -0.00475342 -1.79237e-18)
(0.0191995 -0.00538708 -5.4561e-19)
(0.0190928 -0.00602062 2.96135e-19)
(0.0189738 -0.00665399 -4.46469e-18)
(0.0188423 -0.00728711 -2.91186e-19)
(0.0186983 -0.00791991 -8.51835e-18)
(0.0185415 -0.00855226 -8.91135e-18)
(0.0183717 -0.00918405 -3.70551e-18)
(0.0181888 -0.00981513 -5.97705e-18)
(0.0179925 -0.0104453 -6.91087e-18)
(0.0177826 -0.0110744 -1.97494e-18)
(0.017559 -0.0117022 -4.98683e-18)
(0.0173213 -0.0123283 -8.73514e-18)
(0.0170692 -0.0129525 -3.47483e-18)
(0.0168025 -0.0135745 2.10346e-18)
(0.0165208 -0.0141939 2.79231e-18)
(0.0162233 -0.0148107 -3.06846e-18)
(0.016583 -0.0147513 1.45174e-18)
(0.0198301 -0.00355258 5.4999e-18)
(0.0197581 -0.00419851 3.41369e-18)
(0.019674 -0.0048444 -6.13327e-19)
(0.0195776 -0.00549024 -4.90983e-19)
(0.0194687 -0.00613597 9.06154e-20)
(0.0193472 -0.00678154 -5.51839e-18)
(0.0192131 -0.00742688 -3.559e-19)
(0.019066 -0.0080719 -8.50542e-18)
(0.0189059 -0.0087165 -9.12148e-18)
(0.0187326 -0.00936056 -3.84107e-18)
(0.0185458 -0.0100039 -6.34208e-18)
(0.0183454 -0.0106464 -6.91152e-18)
(0.0181312 -0.0112877 -1.61821e-18)
(0.0179028 -0.0119278 -5.07604e-18)
(0.01766 -0.0125662 -8.54009e-18)
(0.0174025 -0.0132027 -2.37967e-18)
(0.0171301 -0.0138369 1.6993e-18)
(0.0168424 -0.0144684 3.56235e-18)
(0.0165384 -0.0150974 -2.57665e-18)
(0.0168883 -0.0150529 8.59644e-19)
(0.0202212 -0.00362065 5.25344e-18)
(0.0201478 -0.00427898 3.92844e-18)
(0.020062 -0.00493729 7.40161e-19)
(0.0199636 -0.00559556 -1.71422e-19)
(0.0198524 -0.00625373 -1.11854e-19)
(0.0197285 -0.00691177 -6.48556e-18)
(0.0195915 -0.00756959 -6.91505e-19)
(0.0194415 -0.00822711 -8.17168e-18)
(0.019278 -0.00888422 -9.07902e-18)
(0.0191011 -0.0095408 -4.1084e-18)
(0.0189104 -0.0101967 -6.73343e-18)
(0.0187058 -0.0108517 -7.25908e-18)
(0.0184871 -0.0115056 -9.39588e-19)
(0.0182538 -0.0121582 -4.54095e-18)
(0.0180059 -0.0128092 -8.56343e-18)
(0.017743 -0.0134582 -1.24957e-18)
(0.0174648 -0.0141049 2.10103e-18)
(0.0171708 -0.0147489 3.31617e-18)
(0.0168603 -0.0153902 -2.46463e-18)
(0.0172004 -0.015361 -1.111e-19)
(0.0206207 -0.00369017 5.34975e-18)
(0.0205458 -0.00436116 4.20415e-18)
(0.0204582 -0.00503216 2.04861e-18)
(0.0203577 -0.00570312 2.1996e-19)
(0.0202443 -0.00637401 -6.322e-19)
(0.0201178 -0.00704478 -7.34365e-18)
(0.0199781 -0.00771535 -1.54236e-18)
(0.0198249 -0.00838563 -7.70828e-18)
(0.0196581 -0.00905553 -8.54731e-18)
(0.0194775 -0.00972491 -4.62224e-18)
(0.0192829 -0.0103936 -7.18099e-18)
(0.019074 -0.0110614 -7.76627e-18)
(0.0188506 -0.0117282 -4.74006e-19)
(0.0186125 -0.0123936 -3.56186e-18)
(0.0183593 -0.0130574 -8.01372e-18)
(0.0180909 -0.0137192 2.41136e-20)
(0.0178067 -0.0143787 3.24318e-18)
(0.0175065 -0.0150354 3.20045e-18)
(0.0171893 -0.0156895 -2.62924e-18)
(0.0175194 -0.0156756 -9.57513e-19)
(0.0210287 -0.00376118 5.67896e-18)
(0.0209523 -0.00444512 4.16717e-18)
(0.0208629 -0.00512907 3.05802e-18)
(0.0207604 -0.00581301 6.19615e-19)
(0.0206447 -0.00649689 -1.55325e-18)
(0.0205156 -0.00718066 -8.18935e-18)
(0.020373 -0.00786426 -2.17203e-18)
(0.0202166 -0.0085476 -7.30548e-18)
(0.0200464 -0.00923056 -8.09013e-18)
(0.0198621 -0.00991303 -5.62567e-18)
(0.0196634 -0.0105948 -7.49057e-18)
(0.0194501 -0.0112758 -8.11045e-18)
(0.0192221 -0.0119557 -6.50501e-19)
(0.018979 -0.0126342 -2.34878e-18)
(0.0187205 -0.0133111 -6.47836e-18)
(0.0184464 -0.013986 6.08556e-19)
(0.0181562 -0.0146586 3.48411e-18)
(0.0178496 -0.0153283 4.17767e-18)
(0.0175256 -0.0159953 -2.11863e-18)
(0.0178457 -0.0159971 -1.34722e-18)
(0.0214455 -0.00383374 5.92338e-18)
(0.0213676 -0.00453091 4.10888e-18)
(0.0212764 -0.0052281 4.25443e-18)
(0.0211718 -0.0059253 8.83798e-19)
(0.0210537 -0.00662246 -2.76761e-18)
(0.020922 -0.00731953 -8.75449e-18)
(0.0207765 -0.00801645 -2.31453e-18)
(0.0206169 -0.00871313 -7.23475e-18)
(0.0204432 -0.00940945 -8.14529e-18)
(0.0202551 -0.0101053 -6.56377e-18)
(0.0200523 -0.0108005 -7.38324e-18)
(0.0198346 -0.0114949 -8.5161e-18)
(0.0196018 -0.0121882 -1.30088e-18)
(0.0193536 -0.0128801 -1.74336e-18)
(0.0190897 -0.0135705 -4.36997e-18)
(0.0188098 -0.0142588 1.24265e-18)
(0.0185134 -0.0149447 3.14736e-18)
(0.0182003 -0.0156278 4.82427e-18)
(0.0178694 -0.016308 -1.8033e-18)
(0.0181794 -0.0163257 -1.24027e-18)
(0.0218716 -0.00390791 6.13334e-18)
(0.021792 -0.0046186 4.20875e-18)
(0.021699 -0.00532933 5.4464e-18)
(0.0215923 -0.00604008 3.88006e-19)
(0.0214719 -0.00675082 -4.23975e-18)
(0.0213375 -0.00746149 -8.61619e-18)
(0.021189 -0.00817203 -2.42264e-18)
(0.0210262 -0.00888235 -7.11688e-18)
(0.0208488 -0.00959234 -8.51094e-18)
(0.0206568 -0.0103019 -7.46519e-18)
(0.0204498 -0.0110108 -7.01117e-18)
(0.0202277 -0.0117188 -8.87927e-18)
(0.01999 -0.0124259 -1.52135e-18)
(0.0197366 -0.0131316 -1.20545e-18)
(0.0194672 -0.0138357 -2.42324e-18)
(0.0191814 -0.0145377 2.0302e-18)
(0.0188788 -0.0152373 2.84602e-18)
(0.018559 -0.0159341 5.05462e-18)
(0.0182211 -0.0166278 -2.12261e-18)
(0.0185208 -0.0166616 -1.44162e-18)
(0.0223071 -0.00398375 5.95769e-18)
(0.022226 -0.00470826 4.0123e-18)
(0.0221311 -0.00543283 6.62491e-18)
(0.0220222 -0.00615745 -3.12791e-19)
(0.0218993 -0.00688207 -5.92537e-18)
(0.0217622 -0.00760665 -8.36198e-18)
(0.0216107 -0.00833112 -2.63383e-18)
(0.0214446 -0.00905539 -7.22234e-18)
(0.0212636 -0.00977936 -8.76363e-18)
(0.0210677 -0.0105029 -8.21398e-18)
(0.0208564 -0.0112258 -6.42238e-18)
(0.0206296 -0.0119479 -9.31455e-18)
(0.020387 -0.012669 -2.15067e-18)
(0.0201283 -0.0133888 -2.74126e-19)
(0.0198533 -0.0141069 -5.59765e-19)
(0.0195614 -0.014823 3.01061e-18)
(0.0192525 -0.0155367 2.56398e-18)
(0.018926 -0.0162474 5.86933e-18)
(0.0185808 -0.016955 -2.01907e-18)
(0.0188703 -0.017005 -2.10879e-18)
(0.0227525 -0.00406131 5.73472e-18)
(0.0226698 -0.00479996 3.61483e-18)
(0.022573 -0.0055387 7.91694e-18)
(0.0224619 -0.00627749 -9.82637e-19)
(0.0223366 -0.00701632 -7.67597e-18)
(0.0221967 -0.00775513 -8.20774e-18)
(0.022042 -0.00849385 -2.94124e-18)
(0.0218725 -0.0092324 -7.44735e-18)
(0.0216879 -0.00997066 -8.98353e-18)
(0.0214879 -0.0107085 -9.11094e-18)
(0.0212723 -0.0114458 -5.90988e-18)
(0.0210408 -0.0121823 -9.54387e-18)
(0.0207932 -0.0129177 -3.30231e-18)
(0.0205291 -0.0136519 2.31929e-19)
(0.0202483 -0.0143844 1.42192e-18)
(0.0199503 -0.015115 4.26193e-18)
(0.0196349 -0.015843 2.40466e-18)
(0.0193015 -0.016568 6.65432e-18)
(0.018949 -0.0172898 -1.17096e-18)
(0.019228 -0.0173564 -2.57248e-18)
(0.0232082 -0.00414066 5.38893e-18)
(0.0231238 -0.00489378 2.91206e-18)
(0.023025 -0.005647 8.79866e-18)
(0.0229118 -0.00640031 -1.46275e-18)
(0.0227838 -0.00715367 -8.63309e-18)
(0.0226411 -0.00790704 -7.81654e-18)
(0.0224834 -0.00866035 -3.36255e-18)
(0.0223104 -0.00941351 -7.7176e-18)
(0.022122 -0.0101664 -9.14402e-18)
(0.0219179 -0.0109189 -1.00829e-17)
(0.0216978 -0.0116709 -5.79001e-18)
(0.0214616 -0.0124221 -9.83254e-18)
(0.0212088 -0.0131723 -4.52013e-18)
(0.0209392 -0.0139212 6.8358e-20)
(0.0206525 -0.0146685 3.21049e-18)
(0.0203483 -0.0154137 5.29442e-18)
(0.0200263 -0.0161565 2.12121e-18)
(0.0196859 -0.0168962 7.3813e-18)
(0.0193259 -0.0176325 -9.3686e-20)
(0.0195943 -0.0177159 -2.17784e-18)
(0.0236745 -0.00422186 4.75067e-18)
(0.0235884 -0.0049898 1.98208e-18)
(0.0234876 -0.00575785 9.19186e-18)
(0.0233721 -0.00652601 -1.74499e-18)
(0.0232416 -0.00729425 -9.22217e-18)
(0.023096 -0.00806252 -7.30978e-18)
(0.022935 -0.00883076 -3.69162e-18)
(0.0227585 -0.00959888 -7.84862e-18)
(0.0225663 -0.0103668 -9.38187e-18)
(0.022358 -0.0111343 -1.12674e-17)
(0.0221334 -0.0119013 -5.48708e-18)
(0.0218923 -0.0126676 -9.54794e-18)
(0.0216342 -0.0134329 -5.78751e-18)
(0.0213591 -0.0141969 -8.16881e-19)
(0.0210664 -0.0149593 4.76262e-18)
(0.0207558 -0.0157196 5.98578e-18)
(0.020427 -0.0164775 1.81297e-18)
(0.0200794 -0.0172322 7.76618e-18)
(0.0197118 -0.0179834 7.24854e-19)
(0.0199695 -0.0180838 -1.1253e-18)
(0.0241517 -0.00430499 4.05677e-18)
(0.0240639 -0.00508809 9.63194e-19)
(0.0239611 -0.00587132 9.05697e-18)
(0.0238433 -0.00665469 -2.14643e-18)
(0.0237101 -0.00743816 -9.6846e-18)
(0.0235616 -0.0082217 -6.62972e-18)
(0.0233974 -0.00900523 -4.10639e-18)
(0.0232173 -0.00978867 -8.05812e-18)
(0.0230211 -0.0105719 -9.66721e-18)
(0.0228085 -0.0113548 -1.29227e-17)
(0.0225793 -0.0121372 -5.33477e-18)
(0.0223332 -0.012919 -8.59396e-18)
(0.0220699 -0.0136997 -6.17432e-18)
(0.0217889 -0.0144792 -1.6614e-18)
(0.0214901 -0.0152571 5.95456e-18)
(0.0211731 -0.0160329 6.2858e-18)
(0.0208373 -0.0168062 1.23397e-18)
(0.0204824 -0.0175763 7.32928e-18)
(0.0201071 -0.0183428 1.34293e-18)
(0.020354 -0.0184605 2.5977e-19)
(0.0246404 -0.00439012 3.63785e-18)
(0.0245508 -0.00518874 1.23142e-19)
(0.024446 -0.00598752 8.56133e-18)
(0.0243258 -0.00678646 -2.53798e-18)
(0.02419 -0.00758554 -1.02385e-17)
(0.0240384 -0.00838471 -6.26614e-18)
(0.0238709 -0.0091839 -4.35776e-18)