/*--------------------------------*- C++ -*----------------------------------*\
  =========                 |
  \\      /  F ield         | OpenFOAM: The Open Source CFD Toolbox
   \\    /   O peration     | Website:  https://openfoam.org
    \\  /    A nd           | Version:  7
     \\/     M anipulation  |
\*---------------------------------------------------------------------------*/
FoamFile
{
    version     2.0;
    format      ascii;
    class       volVectorField;
    location    "64000";
    object      U;
}
// * * * * * * * * * * * * * * * * * * * * * * * * * * * * * * * * * * * * * //

dimensions      [0 1 -1 0 0 0 0];

internalField   nonuniform List<vector> 
4844
(
(3.98708e-19 1.604e-18 -0.00956588)
(1.31688e-17 -1.22798e-18 -0.00956573)
(2.34608e-18 5.59962e-19 -0.00956557)
(4.05532e-18 1.5871e-17 -0.00956545)
(1.11315e-17 7.83141e-19 -0.0095653)
(1.8485e-18 1.56786e-18 -0.00956514)
(2.20791e-18 7.51645e-19 -0.00956497)
(1.51952e-18 5.94725e-19 -0.0095648)
(1.38348e-18 2.47039e-19 -0.00956461)
(1.52952e-18 7.17292e-19 -0.00956441)
(6.79479e-19 7.05038e-19 -0.00956421)
(3.92263e-18 1.50533e-17 -0.00956502)
(7.94157e-18 6.16515e-19 -0.00956487)
(1.59878e-18 1.9999e-18 -0.00956472)
(2.05321e-18 1.1953e-18 -0.00956455)
(1.32128e-18 5.03762e-19 -0.00956437)
(1.51468e-18 2.91961e-19 -0.00956418)
(1.52779e-18 5.813e-19 -0.00956399)
(6.5567e-19 7.36486e-19 -0.00956378)
(6.70408e-19 9.41778e-19 -0.00956358)
(1.07653e-18 1.26111e-18 -0.00956336)
(5.42444e-19 3.80761e-19 -0.00956315)
(2.79123e-18 1.07638e-17 -0.00956459)
(5.82442e-18 3.55733e-19 -0.00956445)
(1.44821e-18 1.74045e-18 -0.00956429)
(1.82821e-18 1.29028e-18 -0.00956412)
(1.21297e-18 6.20041e-19 -0.00956395)
(1.57374e-18 2.85286e-19 -0.00956376)
(1.53641e-18 4.22069e-19 -0.00956357)
(7.06693e-19 5.66042e-19 -0.00956337)
(9.07589e-19 9.22752e-19 -0.00956316)
(8.99489e-19 1.06927e-18 -0.00956295)
(4.61468e-19 7.4502e-19 -0.00956273)
(3.91808e-19 5.44816e-19 -0.00956251)
(4.74653e-19 8.81824e-20 -0.0095623)
(5.50023e-19 -1.13988e-19 -0.00956208)
(4.39132e-19 8.31802e-20 -0.00956187)
(2.55747e-20 7.14331e-20 -0.00956166)
(2.02098e-18 8.29616e-18 -0.00956417)
(4.46817e-18 7.78295e-19 -0.00956402)
(1.42729e-18 1.62399e-18 -0.00956387)
(1.7082e-18 1.29258e-18 -0.0095637)
(1.08809e-18 6.96131e-19 -0.00956353)
(1.61968e-18 3.31428e-19 -0.00956334)
(1.46221e-18 2.57532e-19 -0.00956315)
(6.85671e-19 3.61058e-19 -0.00956295)
(8.45562e-19 5.88476e-19 -0.00956274)
(5.57196e-19 2.79754e-19 -0.00956253)
(5.11887e-19 6.76161e-19 -0.00956232)
(4.04498e-19 7.04472e-19 -0.0095621)
(3.9304e-19 5.47201e-21 -0.00956189)
(7.92547e-19 1.93869e-19 -0.00956167)
(3.71255e-19 1.06154e-19 -0.00956146)
(2.26924e-20 -1.5444e-20 -0.00956126)
(1.62427e-18 6.88141e-18 -0.00956374)
(3.56387e-18 1.36343e-18 -0.0095636)
(1.38845e-18 1.80803e-18 -0.00956345)
(1.49273e-18 1.20917e-18 -0.00956328)
(1.02073e-18 8.01921e-19 -0.00956311)
(1.65484e-18 5.01464e-19 -0.00956292)
(1.37609e-18 1.3594e-19 -0.00956273)
(7.47073e-19 3.83908e-19 -0.00956253)
(8.41912e-19 6.40645e-19 -0.00956233)
(5.6662e-19 2.32252e-19 -0.00956212)
(5.43573e-19 4.55961e-19 -0.00956191)
(3.36661e-19 6.5958e-19 -0.00956169)
(4.77437e-19 2.34405e-20 -0.00956148)
(8.35577e-19 1.56639e-19 -0.00956127)
(1.52402e-19 -1.11199e-19 -0.00956106)
(1.43106e-19 4.37019e-20 -0.00956086)
(2.86082e-18 1.7457e-18 -0.00956318)
(1.22701e-18 1.79813e-18 -0.00956303)
(1.25245e-18 9.22827e-19 -0.00956287)
(1.03979e-18 9.23697e-19 -0.00956269)
(1.67017e-18 6.98412e-19 -0.00956251)
(1.38946e-18 3.12694e-19 -0.00956232)
(9.22097e-19 4.89096e-19 -0.00956212)
(9.37251e-19 7.51444e-19 -0.00956192)
(6.16857e-19 4.51722e-19 -0.00956171)
(5.70672e-19 4.067e-19 -0.0095615)
(3.0635e-19 5.65755e-19 -0.00956129)
(6.49591e-19 3.2171e-19 -0.00956108)
(5.85308e-19 -1.01847e-19 -0.00956087)
(-4.8676e-20 -3.8991e-19 -0.00956066)
(1.7413e-19 -4.36973e-20 -0.00956046)
(2.16542e-18 2.03151e-18 -0.00956276)
(9.41321e-19 1.74621e-18 -0.00956261)
(1.11801e-18 8.5442e-19 -0.00956245)
(1.18259e-18 1.05344e-18 -0.00956228)
(1.7067e-18 8.19042e-19 -0.0095621)
(1.4356e-18 5.24048e-19 -0.00956191)
(1.0285e-18 6.33092e-19 -0.00956172)
(8.1116e-19 4.96817e-19 -0.00956151)
(5.50594e-19 3.80855e-19 -0.00956131)
(5.26302e-19 2.97436e-19 -0.0095611)
(2.21147e-19 2.43831e-19 -0.00956089)
(6.00134e-19 2.94459e-19 -0.00956068)
(2.84424e-19 -2.59539e-19 -0.00956048)
(-4.28259e-20 -4.55554e-19 -0.00956027)
(1.79373e-19 -2.11392e-19 -0.00956007)
(1.56944e-18 2.07585e-18 -0.00956235)
(7.0552e-19 1.66602e-18 -0.0095622)
(1.15129e-18 1.05233e-18 -0.00956204)
(1.32067e-18 1.26789e-18 -0.00956187)
(1.70365e-18 9.10237e-19 -0.00956169)
(1.45447e-18 6.42711e-19 -0.00956151)
(1.06003e-18 8.2718e-19 -0.00956131)
(6.27276e-19 2.13143e-19 -0.00956111)
(5.29489e-19 3.09103e-19 -0.00956091)
(3.79209e-19 8.05315e-20 -0.0095607)
(1.45652e-19 4.78237e-20 -0.0095605)
(1.91034e-19 -3.96723e-19 -0.00956029)
(6.95292e-20 -4.68896e-19 -0.00956008)
(-1.14983e-19 -6.45494e-19 -0.00955988)
(1.37398e-20 -5.75462e-19 -0.00955968)
(7.5412e-19 3.91323e-18 -0.00956208)
(1.12842e-18 2.07042e-18 -0.00956194)
(5.91028e-19 1.74387e-18 -0.00956179)
(1.26948e-18 1.31244e-18 -0.00956163)
(1.42873e-18 1.42725e-18 -0.00956147)
(1.64166e-18 8.83126e-19 -0.00956129)
(1.45657e-18 6.29964e-19 -0.0095611)
(9.55689e-19 8.48805e-19 -0.00956091)
(4.43916e-19 2.58968e-20 -0.00956071)
(5.11885e-19 2.70267e-19 -0.00956051)
(3.51476e-19 9.91583e-20 -0.00956031)
(7.10285e-20 1.36818e-19 -0.0095601)
(-6.5169e-21 -6.02937e-19 -0.0095599)
(-7.46702e-20 -7.4663e-19 -0.00955969)
(-1.51004e-19 -7.18187e-19 -0.00955949)
(1.16638e-19 -7.34015e-19 -0.0095593)
(5.60079e-19 3.23806e-18 -0.00956167)
(7.73566e-19 1.8663e-18 -0.00956153)
(5.68898e-19 1.84947e-18 -0.00956139)
(1.38182e-18 1.57465e-18 -0.00956123)
(1.35537e-18 1.36211e-18 -0.00956106)
(1.52978e-18 8.4469e-19 -0.00956089)
(1.5136e-18 8.04206e-19 -0.00956071)
(7.12196e-19 5.91031e-19 -0.00956052)
(3.65601e-19 -2.58249e-20 -0.00956032)
(5.47102e-19 1.35553e-19 -0.00956012)
(3.74451e-19 1.65063e-19 -0.00955992)
(-5.66223e-20 5.86147e-20 -0.00955971)
(6.21887e-20 -2.59698e-19 -0.00955951)
(-2.43392e-20 -6.51218e-19 -0.00955931)
(4.44346e-20 -6.44818e-19 -0.0095591)
(3.38334e-19 -6.15429e-19 -0.0095589)
(3.52455e-19 2.73465e-18 -0.00956127)
(5.46645e-19 1.59665e-18 -0.00956113)
(5.88999e-19 1.69009e-18 -0.00956099)
(1.38987e-18 1.67179e-18 -0.00956083)
(1.20673e-18 1.14076e-18 -0.00956067)
(1.54139e-18 7.63166e-19 -0.00956049)
(1.45438e-18 8.58724e-19 -0.00956031)
(4.83719e-19 5.25237e-19 -0.00956012)
(4.20649e-19 1.12995e-19 -0.00955993)
(5.90267e-19 1.20543e-19 -0.00955973)
(2.78298e-19 9.20406e-20 -0.00955953)
(-1.24942e-19 9.31208e-21 -0.00955932)
(9.15954e-20 -2.24047e-19 -0.00955912)
(5.67764e-20 -4.91366e-19 -0.00955891)
(2.15142e-19 -4.80922e-19 -0.00955871)
(3.71377e-19 -7.37888e-19 -0.00955851)
(2.05799e-19 2.51848e-18 -0.00956087)
(3.91999e-19 1.59686e-18 -0.00956074)
(6.68184e-19 1.67157e-18 -0.00956059)
(1.40137e-18 1.7472e-18 -0.00956044)
(1.0798e-18 1.07661e-18 -0.00956027)
(1.51214e-18 6.91319e-19 -0.0095601)
(1.24656e-18 4.81741e-19 -0.00955992)
(4.63269e-19 6.81972e-19 -0.00955973)
(4.54701e-19 1.75121e-19 -0.00955954)
(5.61821e-19 5.52008e-20 -0.00955934)
(2.69067e-19 1.61105e-19 -0.00955914)
(-1.09938e-19 8.89226e-20 -0.00955893)
(1.10492e-19 -1.20089e-19 -0.00955873)
(1.27256e-19 -4.67489e-19 -0.00955852)
(3.84683e-19 -3.09561e-19 -0.00955832)
(3.51583e-19 -7.49638e-19 -0.00955812)
(-7.98991e-19 2.05227e-18 -0.0095606)
(9.01327e-20 2.27395e-18 -0.00956047)
(3.54711e-19 1.70594e-18 -0.00956034)
(8.43233e-19 1.92733e-18 -0.0095602)
(1.25742e-18 1.50228e-18 -0.00956004)
(9.44215e-19 1.04483e-18 -0.00955988)
(1.4774e-18 7.78034e-19 -0.00955971)
(1.13261e-18 2.4881e-19 -0.00955953)
(4.37664e-19 6.96493e-19 -0.00955934)
(4.54628e-19 3.30663e-19 -0.00955914)
(4.74444e-19 -1.97576e-19 -0.00955894)
(2.87887e-19 2.12344e-19 -0.00955874)
(-1.85905e-19 4.38449e-21 -0.00955854)
(1.83104e-19 -6.60447e-21 -0.00955833)
(2.8161e-19 -2.72907e-19 -0.00955813)
(4.29088e-19 -2.76112e-19 -0.00955792)
(3.40664e-19 -7.21125e-19 -0.00955772)
(-8.42072e-19 1.9307e-18 -0.0095602)
(2.6453e-20 2.06323e-18 -0.00956008)
(3.55514e-19 1.61254e-18 -0.00955995)
(8.54989e-19 2.08969e-18 -0.0095598)
(9.77754e-19 1.06684e-18 -0.00955965)
(8.819e-19 8.67544e-19 -0.00955949)
(1.47056e-18 9.16665e-19 -0.00955931)
(9.89973e-19 8.2781e-20 -0.00955913)
(4.60631e-19 6.65992e-19 -0.00955894)
(5.28895e-19 6.47073e-19 -0.00955875)
(4.44143e-19 -2.22067e-19 -0.00955855)
(2.55026e-19 1.45323e-19 -0.00955835)
(-3.39299e-19 -2.56656e-19 -0.00955814)
(3.19709e-19 8.03721e-20 -0.00955793)
(3.2863e-19 -2.41169e-19 -0.00955773)
(4.91384e-19 -1.29284e-19 -0.00955752)
(2.84539e-19 -7.37748e-19 -0.00955732)
(-7.45771e-19 1.6573e-18 -0.00955992)
(-8.537e-19 1.77496e-18 -0.0095598)
(-5.09608e-20 1.89996e-18 -0.00955968)
(3.7843e-19 1.51489e-18 -0.00955955)
(7.64543e-19 1.90387e-18 -0.00955941)
(7.74928e-19 9.68262e-19 -0.00955925)
(9.08393e-19 7.45734e-19 -0.00955909)
(1.28704e-18 6.41155e-19 -0.00955892)
(8.24546e-19 -1.69486e-19 -0.00955874)
(5.63588e-19 6.0282e-19 -0.00955855)
(5.13481e-19 7.81202e-19 -0.00955835)
(4.25084e-19 -1.12895e-19 -0.00955815)
(8.0251e-20 -1.08147e-20 -0.00955795)
(-3.53926e-19 -3.68908e-19 -0.00955774)
(3.78365e-19 -3.10923e-20 -0.00955754)
(3.25957e-19 -2.89869e-19 -0.00955733)
(3.84641e-19 -2.51121e-19 -0.00955712)
(2.33761e-19 -7.1536e-19 -0.00955692)
(-7.1673e-19 1.61992e-18 -0.00955952)
(-8.71784e-19 1.64502e-18 -0.00955941)
(-6.15865e-20 1.79552e-18 -0.00955929)
(4.27056e-19 1.62672e-18 -0.00955915)
(5.88466e-19 1.52648e-18 -0.00955901)
(7.45793e-19 1.19023e-18 -0.00955886)
(8.95688e-19 8.45239e-19 -0.00955869)
(1.0575e-18 3.63932e-19 -0.00955852)
(9.36844e-19 2.75029e-20 -0.00955834)
(6.61772e-19 4.65902e-19 -0.00955815)
(4.20739e-19 7.03139e-19 -0.00955795)
(3.21718e-19 -8.90843e-20 -0.00955775)
(-3.21283e-20 -1.33541e-19 -0.00955755)
(-1.83112e-19 -1.81612e-19 -0.00955734)
(4.51793e-19 -8.75174e-20 -0.00955713)
(3.07288e-19 -3.05041e-19 -0.00955693)
(1.8291e-19 -4.88772e-19 -0.00955672)
(2.62513e-19 -6.79875e-19 -0.00955651)
(-6.96335e-19 1.47157e-18 -0.00955912)
(-8.8348e-19 1.55104e-18 -0.00955901)
(6.22139e-21 1.89599e-18 -0.00955889)
(3.8174e-19 1.61956e-18 -0.00955876)
(4.4568e-19 1.11293e-18 -0.00955861)
(8.11684e-19 1.44971e-18 -0.00955846)
(8.31573e-19 9.24095e-19 -0.00955829)
(1.04957e-18 4.24151e-19 -0.00955812)
(1.12102e-18 4.05016e-19 -0.00955794)
(6.01376e-19 2.86167e-19 -0.00955775)
(1.85538e-19 3.73407e-19 -0.00955755)
(1.53294e-19 -2.5065e-19 -0.00955735)
(3.17206e-20 -4.34313e-20 -0.00955715)
(5.94886e-20 4.74801e-20 -0.00955694)
(4.92653e-19 -9.23526e-20 -0.00955673)
(1.95283e-19 -3.69764e-19 -0.00955652)
(2.70718e-19 -3.61567e-19 -0.00955631)
(3.90248e-19 -5.00762e-19 -0.00955611)
(-7.34063e-19 1.26655e-18 -0.00955873)
(-7.42965e-19 1.77723e-18 -0.00955861)
(6.11805e-20 1.95694e-18 -0.00955849)
(2.19534e-19 1.54645e-18 -0.00955836)
(4.39066e-19 1.03511e-18 -0.00955821)
(8.76779e-19 1.53644e-18 -0.00955806)
(6.90923e-19 8.34852e-19 -0.00955789)
(1.01547e-18 3.52096e-19 -0.00955772)
(1.06179e-18 3.72093e-19 -0.00955753)
(3.96345e-19 4.4659e-20 -0.00955734)
(-4.85166e-20 4.10724e-20 -0.00955715)
(6.96297e-20 -4.97413e-19 -0.00955695)
(1.57482e-19 -5.95929e-20 -0.00955674)
(2.11963e-19 2.44308e-19 -0.00955653)
(4.53126e-19 -1.08517e-19 -0.00955632)
(2.95091e-19 -2.7834e-19 -0.00955611)
(5.72243e-19 -3.94957e-20 -0.00955591)
(3.50463e-19 -4.99251e-19 -0.0095557)
(-6.48938e-19 1.19698e-18 -0.00955833)
(-5.82784e-19 2.07513e-18 -0.00955821)
(-1.07008e-20 1.90159e-18 -0.00955809)
(1.10912e-19 1.46379e-18 -0.00955795)
(5.57608e-19 1.28705e-18 -0.00955781)
(7.52096e-19 1.29446e-18 -0.00955765)
(5.21844e-19 7.5377e-19 -0.00955749)
(1.0541e-18 4.55636e-19 -0.00955731)
(8.94398e-19 8.94768e-20 -0.00955713)
(2.70232e-19 -4.59591e-20 -0.00955694)
(-6.73247e-20 1.16017e-19 -0.00955674)
(1.46603e-19 -4.64237e-19 -0.00955654)
(2.07956e-19 -2.73403e-19 -0.00955633)
(2.8407e-19 2.37305e-19 -0.00955612)
(5.25923e-19 -8.83574e-21 -0.00955591)
(4.60882e-19 -1.60037e-19 -0.00955571)
(5.41325e-19 -1.11664e-20 -0.0095555)
(1.48235e-19 -6.67107e-19 -0.00955529)
(-5.13156e-19 1.20729e-18 -0.00955792)
(-5.29106e-19 1.94185e-18 -0.00955781)
(-1.0094e-19 1.85558e-18 -0.00955768)
(7.51977e-20 1.49002e-18 -0.00955755)
(5.38095e-19 1.32389e-18 -0.0095574)
(6.05342e-19 1.11364e-18 -0.00955725)
(5.48522e-19 8.17186e-19 -0.00955708)
(1.05416e-18 5.86324e-19 -0.0095569)
(7.25245e-19 -3.27173e-20 -0.00955672)
(3.17256e-19 2.25882e-20 -0.00955653)
(-7.45244e-20 1.13381e-19 -0.00955633)
(2.38865e-19 -2.73075e-19 -0.00955613)
(2.50302e-19 -4.21598e-19 -0.00955592)
(3.39541e-19 1.37334e-19 -0.00955572)
(6.0137e-19 7.70929e-20 -0.0095555)
(4.52157e-19 -1.7499e-19 -0.00955529)
(3.09833e-19 -2.32841e-19 -0.00955508)
(1.46352e-19 -6.86908e-19 -0.00955488)
(-4.24824e-19 1.18143e-18 -0.00955752)
(-5.17899e-19 1.71463e-18 -0.0095574)
(-1.14692e-19 1.88511e-18 -0.00955728)
(3.86527e-20 1.57186e-18 -0.00955714)
(5.18256e-19 1.34162e-18 -0.009557)
(5.68812e-19 1.09982e-18 -0.00955684)
(5.26719e-19 8.7169e-19 -0.00955667)
(9.45656e-19 4.87789e-19 -0.0095565)
(7.59133e-19 1.75003e-19 -0.00955631)
(2.96683e-19 4.90782e-20 -0.00955612)
(-8.07339e-20 1.29009e-19 -0.00955592)
(3.34e-19 -1.62937e-19 -0.00955572)
(2.15403e-19 -6.48281e-19 -0.00955551)
(4.21165e-19 4.77138e-20 -0.0095553)
(5.27809e-19 -6.52371e-20 -0.00955509)
(3.95088e-19 -1.89145e-19 -0.00955488)
(2.50188e-19 -2.39082e-19 -0.00955467)
(2.66477e-19 -5.58382e-19 -0.00955446)
(-3.43543e-19 1.07326e-18 -0.00955711)
(-4.44179e-19 1.64687e-18 -0.009557)
(-1.12553e-19 1.90679e-18 -0.00955687)
(5.03706e-20 1.7861e-18 -0.00955673)
(5.42423e-19 1.58917e-18 -0.00955659)
(4.81222e-19 1.0566e-18 -0.00955643)
(4.64101e-19 7.84118e-19 -0.00955626)
(8.99449e-19 3.9298e-19 -0.00955609)
(7.38949e-19 2.92964e-19 -0.0095559)
(3.15819e-19 1.70574e-19 -0.00955571)
(1.97589e-20 2.65388e-19 -0.00955551)
(2.65302e-19 -1.67398e-19 -0.00955531)
(1.33573e-19 -9.29019e-19 -0.0095551)
(4.9773e-19 -3.62751e-20 -0.00955489)
(3.47909e-19 -3.6098e-19 -0.00955468)
(3.73999e-19 -2.64816e-19 -0.00955446)
(4.36929e-19 3.75717e-20 -0.00955425)
(3.12663e-19 -4.49376e-19 -0.00955404)
(-3.04857e-19 8.68365e-19 -0.0095567)
(-3.63303e-19 1.61806e-18 -0.00955659)
(-9.13519e-20 1.82651e-18 -0.00955646)
(3.32321e-20 1.73666e-18 -0.00955632)
(4.33878e-19 1.54753e-18 -0.00955618)
(3.53748e-19 1.03074e-18 -0.00955602)
(4.00468e-19 7.56722e-19 -0.00955585)
(8.70881e-19 3.63911e-19 -0.00955567)
(7.50449e-19 3.08184e-19 -0.00955549)
(4.20651e-19 4.16541e-19 -0.0095553)
(-6.09357e-21 3.27307e-19 -0.0095551)
(1.09583e-19 -2.90749e-19 -0.00955489)
(1.53939e-19 -1.06858e-18 -0.00955468)
(5.42744e-19 -1.56878e-19 -0.00955447)
(3.64082e-19 -3.36117e-19 -0.00955425)
(4.24093e-19 -4.00295e-19 -0.00955404)
(6.53393e-19 3.49338e-19 -0.00955382)
(2.28414e-19 -4.00812e-19 -0.0095536)
(-3.21887e-19 6.20005e-19 -0.00955629)
(-2.81823e-19 1.47256e-18 -0.00955617)
(-2.05034e-19 1.45518e-18 -0.00955605)
(-1.13835e-19 1.3879e-18 -0.00955591)
(2.96983e-19 1.28564e-18 -0.00955576)
(2.44288e-19 8.99069e-19 -0.0095556)
(3.73793e-19 7.48885e-19 -0.00955544)
(9.11736e-19 4.44721e-19 -0.00955526)
(8.10864e-19 4.21429e-19 -0.00955507)
(3.33479e-19 2.97539e-19 -0.00955488)
(-2.93181e-20 4.69629e-19 -0.00955468)
(-1.9839e-20 -3.28546e-19 -0.00955447)
(3.73957e-19 -8.86708e-19 -0.00955426)
(6.96075e-19 -1.83016e-19 -0.00955404)
(4.80636e-19 -1.66674e-19 -0.00955382)
(4.79458e-19 -4.97475e-19 -0.0095536)
(5.09905e-19 1.64631e-19 -0.00955338)
(1.23845e-19 -3.50937e-19 -0.00955316)
(-2.47856e-19 8.13989e-19 -0.00955587)
(-2.58214e-19 1.36519e-18 -0.00955576)
(-3.1906e-19 1.12054e-18 -0.00955563)
(-1.06866e-19 1.32539e-18 -0.0095555)
(2.63857e-19 1.28742e-18 -0.00955535)
(1.3315e-19 7.19473e-19 -0.00955519)
(3.9254e-19 7.70192e-19 -0.00955502)
(9.61492e-19 5.14736e-19 -0.00955484)
(7.6829e-19 4.51659e-19 -0.00955465)
(3.48798e-19 3.63584e-19 -0.00955445)
(-9.40575e-20 4.46248e-19 -0.00955425)
(4.28129e-20 -1.15625e-19 -0.00955404)
(7.60661e-19 -4.83835e-19 -0.00955383)
(8.29865e-19 -1.37029e-19 -0.00955361)
(4.92024e-19 -9.58221e-20 -0.00955338)
(5.63814e-19 -3.97189e-19 -0.00955316)
(4.67472e-20 -4.44979e-19 -0.00955293)
(8.52541e-20 -3.20099e-19 -0.00955271)
(-1.41587e-19 1.17206e-18 -0.00955545)
(-2.74347e-19 1.40482e-18 -0.00955534)
(-3.08351e-19 1.20455e-18 -0.00955521)
(-1.99881e-20 1.47687e-18 -0.00955508)
(1.73466e-19 1.26507e-18 -0.00955493)
(2.32851e-20 5.68369e-19 -0.00955476)
(4.88123e-19 8.93293e-19 -0.00955459)
(9.70256e-19 5.27489e-19 -0.00955441)
(7.2974e-19 3.54691e-19 -0.00955422)
(2.93753e-19 3.47673e-19 -0.00955402)
(-2.60149e-19 2.49452e-19 -0.00955382)
(2.04162e-19 1.03798e-19 -0.0095536)
(9.46749e-19 -3.29241e-19 -0.00955338)
(7.42958e-19 -3.47102e-19 -0.00955316)
(3.51372e-19 -3.15977e-19 -0.00955293)
(4.96724e-19 -3.38251e-19 -0.0095527)
(-2.58067e-19 -7.96068e-19 -0.00955247)
(1.30972e-19 -3.39524e-19 -0.00955224)
(-1.22006e-19 1.02205e-18 -0.00955503)
(-3.01309e-19 1.39428e-18 -0.00955492)
(-3.42753e-19 1.06621e-18 -0.00955479)
(-4.97409e-20 1.39626e-18 -0.00955465)
(7.32615e-21 1.10386e-18 -0.0095545)
(7.62714e-20 7.17694e-19 -0.00955434)
(6.22951e-19 1.0911e-18 -0.00955416)
(9.14887e-19 4.96835e-19 -0.00955398)
(5.13854e-19 2.58767e-20 -0.00955378)
(3.69271e-20 -7.22975e-20 -0.00955358)
(-3.08811e-19 1.15924e-19 -0.00955337)
(2.49885e-19 5.79055e-20 -0.00955315)
(9.52605e-19 -3.73126e-19 -0.00955293)
(4.94102e-19 -7.20765e-19 -0.0095527)
(2.18729e-19 -5.54232e-19 -0.00955247)
(2.41479e-19 -6.38626e-19 -0.00955224)
(-1.36703e-19 -6.29482e-19 -0.00955201)
(2.12249e-19 -3.24383e-19 -0.00955178)
(-1.74257e-19 6.97099e-19 -0.0095546)
(-3.95521e-19 1.11445e-18 -0.00955448)
(-3.88866e-19 1.00543e-18 -0.00955435)
(-5.32219e-20 1.29451e-18 -0.00955421)
(-6.0891e-20 9.696e-19 -0.00955406)
(1.0728e-19 6.56544e-19 -0.0095539)
(7.49212e-19 1.41996e-18 -0.00955372)
(7.43753e-19 4.51205e-19 -0.00955353)
(2.81e-19 -2.64465e-19 -0.00955333)
(-1.41624e-19 -4.75377e-19 -0.00955313)
(-2.33154e-19 1.53537e-19 -0.00955291)
(3.32248e-19 6.69904e-20 -0.00955269)
(1.0728e-18 -1.55468e-19 -0.00955247)
(3.98898e-19 -8.61223e-19 -0.00955223)
(2.77475e-19 -5.07244e-19 -0.009552)
(7.66978e-20 -8.94821e-19 -0.00955177)
(3.60558e-20 -5.18231e-19 -0.00955154)
(3.01119e-19 -2.03913e-19 -0.00955132)
(-2.53772e-19 4.9291e-19 -0.00955415)
(-3.84964e-19 1.02692e-18 -0.00955404)
(-3.08083e-19 1.13808e-18 -0.00955391)
(-6.34066e-20 1.34605e-18 -0.00955377)
(-1.31366e-19 1.07383e-18 -0.00955361)
(1.08703e-19 3.11203e-19 -0.00955344)
(7.89227e-19 1.40295e-18 -0.00955327)
(4.54915e-19 2.84297e-19 -0.00955308)
(1.95096e-19 -1.30398e-19 -0.00955287)
(-1.53376e-19 -6.09749e-19 -0.00955267)
(-6.1354e-20 1.9556e-19 -0.00955245)
(4.92458e-19 1.22518e-19 -0.00955223)
(1.1405e-18 -9.39647e-21 -0.009552)
(4.4818e-19 -7.08635e-19 -0.00955177)
(4.11549e-19 -3.12867e-19 -0.00955154)
(1.00791e-19 -8.49047e-19 -0.00955131)
(-7.20905e-21 -7.42143e-19 -0.00955109)
(2.26148e-19 -2.88394e-19 -0.00955088)
(-3.46447e-19 5.96382e-19 -0.0095538)
(-2.11127e-19 5.20902e-19 -0.0095537)
(-3.41946e-19 9.92642e-19 -0.00955359)
(-3.22653e-19 1.08909e-18 -0.00955346)
(-1.11929e-19 1.15155e-18 -0.00955331)
(-1.77051e-19 1.27783e-18 -0.00955315)
(1.73071e-19 3.73123e-19 -0.00955298)
(6.11013e-19 8.99023e-19 -0.0095528)
(2.20726e-19 4.93192e-20 -0.00955261)
(2.02797e-19 2.71874e-20 -0.00955241)
(4.16046e-20 -2.72707e-19 -0.0095522)
(5.71548e-20 1.6945e-19 -0.00955198)
(6.29105e-19 1.76674e-19 -0.00955176)
(1.08502e-18 -1.14231e-19 -0.00955153)
(5.43655e-19 -6.01783e-19 -0.00955131)
(4.60481e-19 -2.63947e-19 -0.00955108)
(6.74752e-20 -7.74786e-19 -0.00955087)
(-3.45409e-20 -8.4984e-19 -0.00955066)
(9.24592e-20 -5.78937e-19 -0.00955046)
(-4.16555e-19 4.34945e-19 -0.00955334)
(-1.73952e-19 6.47887e-19 -0.00955324)
(-4.6362e-19 4.51325e-19 -0.00955312)
(-4.14299e-19 7.29698e-19 -0.00955299)
(-1.6621e-19 8.66573e-19 -0.00955284)
(-2.78244e-19 1.08723e-18 -0.00955269)
(1.80576e-19 4.77368e-19 -0.00955251)
(5.12785e-19 7.43136e-19 -0.00955233)
(1.61693e-19 5.12882e-20 -0.00955214)
(2.82515e-19 1.46807e-19 -0.00955194)
(1.85027e-19 -5.52531e-20 -0.00955173)
(1.16292e-19 9.09643e-20 -0.00955152)
(7.08655e-19 1.18109e-19 -0.0095513)
(1.06e-18 -1.71352e-19 -0.00955109)
(6.15955e-19 -5.23793e-19 -0.00955087)
(4.12251e-19 -3.27494e-19 -0.00955066)
(1.76331e-20 -7.82651e-19 -0.00955045)
(1.29046e-19 -6.78888e-19 -0.00955026)
(1.11707e-19 -6.95787e-19 -0.00955008)
(-3.03541e-19 9.58878e-19 -0.00955296)
(-5.08356e-19 3.07633e-19 -0.00955287)
(-2.68772e-19 4.3472e-19 -0.00955277)
(-6.52787e-19 -6.90288e-20 -0.00955265)
(-4.58621e-19 3.75177e-19 -0.00955252)
(-1.62067e-19 7.0619e-19 -0.00955237)
(-3.88847e-19 7.95919e-19 -0.00955222)
(1.86204e-19 3.38484e-19 -0.00955205)
(5.24694e-19 7.89538e-19 -0.00955187)
(1.72373e-19 2.07534e-19 -0.00955168)
(3.84966e-19 3.37887e-19 -0.00955148)
(2.35146e-19 3.68612e-20 -0.00955128)
(2.01703e-19 9.95515e-20 -0.00955108)
(7.86767e-19 4.91967e-20 -0.00955087)
(1.07062e-18 -2.54449e-19 -0.00955066)
(6.99267e-19 -4.62234e-19 -0.00955046)
(3.9524e-19 -3.43893e-19 -0.00955026)
(8.92609e-20 -6.844e-19 -0.00955007)
(3.62859e-19 -4.21148e-19 -0.00954989)
(2.45134e-19 -5.92212e-19 -0.00954972)
(-3.57706e-19 7.00872e-19 -0.00955249)
(-5.74455e-19 4.16071e-19 -0.0095524)
(-4.14423e-19 1.33001e-19 -0.0095523)
(-6.72092e-19 -1.70107e-20 -0.00955218)
(-3.93289e-19 3.37642e-19 -0.00955205)
(-1.66536e-19 5.31099e-19 -0.00955191)
(-4.28829e-19 7.23025e-19 -0.00955176)
(1.7609e-19 1.51413e-19 -0.00955159)
(4.84731e-19 6.14586e-19 -0.00955142)
(1.74134e-19 2.48159e-19 -0.00955123)
(4.71379e-19 4.64675e-19 -0.00955105)
(3.48543e-19 2.3865e-19 -0.00955086)
(2.92146e-19 1.3349e-19 -0.00955066)
(9.4485e-19 1.57037e-19 -0.00955047)
(1.11412e-18 -2.97677e-19 -0.00955027)
(7.27156e-19 -5.00512e-19 -0.00955008)
(3.70779e-19 -3.90534e-19 -0.0095499)
(3.28356e-19 -4.14003e-19 -0.00954972)
(3.11074e-19 -5.36456e-19 -0.00954955)
(2.70569e-19 -4.87805e-19 -0.00954938)
(-3.57238e-19 5.10827e-19 -0.00955203)
(-5.92747e-19 7.6288e-19 -0.00955194)
(-4.81529e-19 1.33267e-19 -0.00955184)
(-6.47849e-19 1.54264e-19 -0.00955173)
(-4.18346e-19 2.94157e-19 -0.0095516)
(-1.99822e-19 2.69843e-19 -0.00955146)
(-4.38694e-19 6.94643e-19 -0.00955132)
(1.80287e-19 4.8798e-20 -0.00955116)
(4.61595e-19 4.43339e-19 -0.00955099)
(1.59604e-19 1.6924e-19 -0.00955082)
(5.47747e-19 4.88803e-19 -0.00955064)
(3.8493e-19 3.12436e-19 -0.00955046)
(4.07714e-19 2.42854e-19 -0.00955028)
(1.13407e-18 3.11759e-19 -0.0095501)
(1.14213e-18 -3.38583e-19 -0.00954991)
(7.13272e-19 -6.0064e-19 -0.00954973)
(2.3312e-19 -6.99952e-19 -0.00954955)
(4.8449e-19 -1.57237e-19 -0.00954938)
(7.59722e-21 -8.76838e-19 -0.0095492)
(2.45576e-19 -5.02251e-19 -0.00954901)
(-3.42657e-19 4.50664e-19 -0.00955159)
(-6.12418e-19 9.31723e-19 -0.0095515)
(-5.90138e-19 1.5911e-19 -0.00955141)
(-6.67639e-19 3.0286e-19 -0.0095513)
(-4.55965e-19 2.96922e-19 -0.00955118)
(-1.64719e-19 2.02616e-19 -0.00955105)
(-3.90177e-19 7.61945e-19 -0.00955091)
(2.96144e-19 2.77013e-19 -0.00955076)
(4.39968e-19 3.0236e-19 -0.0095506)
(2.2855e-19 2.70104e-19 -0.00955044)
(5.71734e-19 4.00218e-19 -0.00955027)
(4.21045e-19 3.22808e-19 -0.0095501)
(5.57336e-19 3.80932e-19 -0.00954993)
(1.20445e-18 3.20955e-19 -0.00954975)
(1.0854e-18 -4.88593e-19 -0.00954957)
(6.77815e-19 -6.43132e-19 -0.00954939)
(4.45009e-20 -1.09062e-18 -0.00954921)
(3.37493e-19 -3.47453e-19 -0.00954901)
(-1.39672e-19 -9.73178e-19 -0.00954881)
(2.7419e-19 -4.80388e-19 -0.00954858)
(-3.59677e-19 4.47968e-19 -0.00955118)
(-7.03381e-19 7.95819e-19 -0.0095511)
(-6.45395e-19 2.27344e-19 -0.009551)
(-6.40115e-19 5.81629e-19 -0.0095509)
(-4.54824e-19 5.53984e-19 -0.00955079)
(-1.25368e-19 1.13476e-19 -0.00955066)
(-2.9866e-19 8.70857e-19 -0.00955053)
(4.85572e-19 7.87026e-19 -0.00955039)
(3.82004e-19 1.01244e-19 -0.00955024)
(3.04774e-19 4.04013e-19 -0.00955008)
(5.18499e-19 1.90405e-19 -0.00954992)
(4.67558e-19 3.44919e-19 -0.00954976)
(6.17308e-19 4.53182e-19 -0.00954958)
(1.18056e-18 2.30172e-19 -0.0095494)
(9.99954e-19 -7.35299e-19 -0.00954922)
(6.60365e-19 -6.52737e-19 -0.00954902)
(-5.33319e-20 -1.24421e-18 -0.00954881)
(1.14193e-19 -6.76058e-19 -0.00954857)
(-1.18326e-19 -9.38963e-19 -0.0095483)
(2.80188e-19 -4.3395e-19 -0.00954797)
(-4.43899e-19 3.72295e-19 -0.0095508)
(-7.85903e-19 5.60508e-19 -0.00955072)
(-6.02234e-19 5.53067e-19 -0.00955063)
(-6.60619e-19 6.44619e-19 -0.00955053)
(-5.10432e-19 7.65819e-19 -0.00955043)
(-5.60904e-20 1.9955e-19 -0.00955031)
(-2.15942e-19 7.61302e-19 -0.00955018)
(5.43493e-19 1.02187e-18 -0.00955004)
(2.60813e-19 -1.16894e-19 -0.0095499)
(3.14833e-19 4.061e-19 -0.00954974)
(4.60738e-19 -1.86044e-20 -0.00954958)
(5.26156e-19 3.5027e-19 -0.00954941)
(6.01774e-19 4.35621e-19 -0.00954922)
(1.23602e-18 3.51394e-19 -0.00954902)
(9.81042e-19 -8.9388e-19 -0.0095488)
(5.9804e-19 -7.19524e-19 -0.00954856)
(-6.97311e-21 -1.12543e-18 -0.00954828)
(1.61371e-19 -6.47861e-19 -0.00954794)
(-1.23793e-19 -9.32864e-19 -0.00954752)
(1.60768e-19 -4.82399e-19 -0.00954698)
(-5.36645e-19 2.66835e-19 -0.00955045)
(-8.23992e-19 3.07584e-19 -0.00955037)
(-5.90944e-19 6.68015e-19 -0.00955029)
(-7.92783e-19 4.4895e-19 -0.00955019)
(-5.52308e-19 8.54749e-19 -0.00955008)
(4.12582e-20 4.12752e-19 -0.00954997)
(-2.37182e-19 5.75146e-19 -0.00954984)
(4.40808e-19 8.18318e-19 -0.0095497)
(1.99939e-19 -2.17074e-19 -0.00954955)
(3.48523e-19 4.37456e-19 -0.00954938)
(4.58769e-19 -1.34218e-19 -0.0095492)
(5.29467e-19 2.98446e-19 -0.009549)
(4.874e-19 2.69167e-19 -0.00954878)
(1.40151e-18 6.76509e-19 -0.00954853)
(9.95463e-19 -8.9375e-19 -0.00954823)
(5.29807e-19 -7.75672e-19 -0.00954788)
(1.97547e-19 -7.76472e-19 -0.00954745)
(3.60936e-19 -2.65634e-19 -0.00954689)
(-1.80242e-19 -8.47576e-19 -0.00954616)
(1.06812e-19 -4.07499e-19 -0.00954518)
(-6.32991e-19 1.42636e-19 -0.00955011)
(-8.63031e-19 1.22287e-19 -0.00955003)
(-6.7221e-19 4.05506e-19 -0.00954994)
(-9.23029e-19 1.90374e-19 -0.00954984)
(-5.63148e-19 9.36596e-19 -0.00954973)
(6.76546e-20 4.27176e-19 -0.00954961)
(-2.9695e-19 4.70063e-19 -0.00954947)
(4.17777e-19 8.22872e-19 -0.00954931)
(2.12914e-19 -2.55198e-19 -0.00954913)
(4.40542e-19 5.98651e-19 -0.00954894)
(4.25779e-19 -2.58941e-19 -0.00954871)
(4.17009e-19 9.76946e-20 -0.00954845)
(3.92394e-19 8.66734e-20 -0.00954814)
(1.46188e-18 8.33147e-19 -0.00954777)
(9.64206e-19 -8.00601e-19 -0.00954731)
(5.65185e-19 -5.75069e-19 -0.00954673)
(2.08071e-19 -6.27517e-19 -0.00954597)
(4.20315e-19 1.13538e-19 -0.00954497)
(-2.47394e-19 -5.43398e-19 -0.00954361)
(2.02321e-19 4.51306e-20 -0.00954179)
(-7.16971e-19 2.57721e-20 -0.00954975)
(-8.86701e-19 1.69502e-19 -0.00954966)
(-7.49191e-19 2.12788e-19 -0.00954956)
(-9.83448e-19 9.4374e-20 -0.00954945)
(-5.56521e-19 1.02393e-18 -0.00954932)
(1.17636e-19 4.9184e-19 -0.00954917)
(-3.39159e-19 4.14385e-19 -0.009549)
(5.31812e-19 1.26432e-18 -0.0095488)
(2.86149e-19 -1.236e-19 -0.00954857)
(5.72302e-19 8.38707e-19 -0.0095483)
(3.28989e-19 -3.62806e-19 -0.00954797)
(3.56131e-19 6.2633e-20 -0.00954757)
(3.48541e-19 6.61514e-20 -0.00954708)
(1.26453e-18 6.43103e-19 -0.00954645)
(8.714e-19 -6.91684e-19 -0.00954564)
(4.72456e-19 -3.07776e-19 -0.00954458)
(-2.72598e-20 -5.94407e-19 -0.00954318)
(9.92647e-20 1.79684e-19 -0.00954132)
(-3.89798e-19 -2.92473e-19 -0.00953887)
(2.93143e-19 3.7888e-19 -0.00953568)
(-7.40133e-19 -5.93791e-20 -0.0095493)
(-9.03889e-19 2.86213e-19 -0.00954919)
(-8.1603e-19 2.39441e-19 -0.00954907)
(-1.01472e-18 3.41185e-20 -0.00954893)
(-5.27009e-19 1.10232e-18 -0.00954875)
(1.68036e-19 5.95975e-19 -0.00954855)
(-4.12881e-19 3.34433e-19 -0.00954831)
(6.05739e-19 1.60623e-18 -0.00954802)
(3.83163e-19 1.76447e-19 -0.00954766)
(5.71495e-19 9.06469e-19 -0.00954723)
(2.07194e-19 -3.67391e-19 -0.00954669)
(3.87288e-19 2.91703e-19 -0.009546)
(2.32242e-19 1.2228e-19 -0.00954511)
(1.0352e-18 6.72685e-19 -0.00954396)
(5.97035e-19 -5.962e-19 -0.00954247)
(1.80915e-19 -5.78661e-20 -0.00954053)
(-8.46069e-20 -3.06935e-19 -0.009538)
(-2.65468e-20 2.40899e-19 -0.00953477)
(-3.39341e-19 -2.72939e-19 -0.0095307)
(1.78089e-19 2.73493e-19 -0.00952566)
(-7.45371e-19 -1.55907e-19 -0.00954865)
(-9.75268e-19 1.86188e-19 -0.0095485)
(-8.9536e-19 4.40756e-19 -0.00954832)
(-1.02705e-18 -1.53408e-20 -0.0095481)
(-4.83236e-19 1.0223e-18 -0.00954784)
(1.31459e-19 4.6574e-19 -0.00954752)
(-5.55467e-19 2.14619e-19 -0.00954712)
(5.36729e-19 1.65517e-18 -0.00954663)
(3.02587e-19 1.6969e-19 -0.00954602)
(4.44184e-19 7.89196e-19 -0.00954524)
(3.59252e-20 -3.22052e-19 -0.00954425)
(2.95502e-19 4.49752e-19 -0.00954299)
(-1.22648e-19 7.09843e-21 -0.00954137)
(8.1995e-19 8.85111e-19 -0.00953929)
(4.4275e-19 -3.76249e-19 -0.00953665)
(2.96329e-19 2.69077e-19 -0.00953333)
(1.86873e-20 -1.21239e-19 -0.00952919)
(2.58487e-20 4.47899e-19 -0.00952414)
(-2.58359e-19 -2.70674e-19 -0.00951809)
(5.59708e-20 6.6333e-21 -0.00951096)
(-7.27865e-19 -2.03801e-19 -0.00954754)
(-1.05513e-18 -4.57487e-20 -0.0095473)
(-9.83988e-19 7.73868e-19 -0.009547)
(-9.61814e-19 3.28436e-19 -0.00954663)
(-4.15857e-19 9.34393e-19 -0.00954617)
(-2.06978e-21 9.92404e-20 -0.0095456)
(-7.02551e-19 1.51655e-19 -0.00954489)
(3.35704e-19 1.56621e-18 -0.009544)
(8.5104e-20 1.24101e-20 -0.00954287)
(2.45454e-19 6.13586e-19 -0.00954146)
(-2.16238e-19 -2.67268e-19 -0.00953967)
(2.44038e-19 5.44751e-19 -0.00953742)
(-2.31729e-19 -1.73145e-19 -0.00953462)
(7.95676e-19 8.54825e-19 -0.00953116)
(4.53691e-19 -1.289e-19 -0.00952693)
(3.49989e-19 4.74129e-19 -0.00952184)
(8.79372e-20 -1.5961e-20 -0.0095158)
(6.59072e-20 6.01977e-19 -0.00950874)
(-6.98761e-20 -1.55695e-19 -0.00950066)
(1.44807e-19 -5.54647e-20 -0.0094915)
(-6.70242e-19 -1.90132e-19 -0.00954545)
(-1.16617e-18 -3.14837e-19 -0.00954503)
(-1.1413e-18 7.97721e-19 -0.00954449)
(-8.43078e-19 8.03127e-19 -0.00954382)
(-3.86974e-19 8.2642e-19 -0.00954298)
(-1.66058e-19 -1.81832e-19 -0.00954194)