/*--------------------------------*- C++ -*----------------------------------*\
  =========                 |
  \\      /  F ield         | OpenFOAM: The Open Source CFD Toolbox
   \\    /   O peration     | Website:  https://openfoam.org
    \\  /    A nd           | Version:  7
     \\/     M anipulation  |
\*---------------------------------------------------------------------------*/
FoamFile
{
    version     2.0;
    format      ascii;
    class       volScalarField;
    location    "264000";
    object      p;
}
// * * * * * * * * * * * * * * * * * * * * * * * * * * * * * * * * * * * * * //

dimensions      [0 2 -2 0 0 0 0];

internalField   nonuniform List<scalar> 
4825
(
-2.32846e-18
-2.31492e-18
-2.32707e-18
-2.31205e-18
-2.32053e-18
-2.30106e-18
-2.32173e-18
-2.32819e-18
-2.30663e-18
-2.31925e-18
-2.29676e-18
-2.32018e-18
-2.32646e-18
-2.31058e-18
-2.31197e-18
-2.2973e-18
-2.31397e-18
-2.3337e-18
-2.3261e-18
-2.31586e-18
-2.30384e-18
-2.31832e-18
-2.34544e-18
-2.31915e-18
-2.32931e-18
-2.30991e-18
-2.32431e-18
-2.33496e-18
-2.30866e-18
-2.31879e-18
-2.31121e-18
-2.32241e-18
-2.3263e-18
-2.3071e-18
-2.31798e-18
-2.30391e-18
-2.32313e-18
-2.32572e-18
-2.29802e-18
-2.32057e-18
-2.2973e-18
-2.31931e-18
-2.33559e-18
-2.29397e-18
-2.32169e-18
-2.30332e-18
-2.31619e-18
-2.3407e-18
-2.303e-18
-2.31445e-18
-2.3029e-18
-2.32009e-18
-2.33442e-18
-2.31278e-18
-2.32372e-18
-2.30801e-18
-2.32104e-18
-2.3283e-18
-2.32008e-18
-2.32791e-18
-2.30935e-18
-2.31856e-18
-2.33434e-18
-2.31482e-18
-2.32617e-18
-2.3075e-18
-2.32968e-18
-2.31163e-18
-2.32244e-18
-2.3086e-18
-2.33324e-18
-2.30316e-18
-2.32225e-18
-2.3034e-18
-2.32606e-18
-2.30787e-18
-2.3179e-18
-2.33089e-18
-2.31045e-18
-2.32356e-18
-2.32212e-18
-2.31048e-18
-2.32523e-18
-2.31038e-18
-2.32808e-18
-2.3123e-18
-2.32534e-18
-2.31614e-18
-2.31346e-18
-2.3112e-18
-2.32355e-18
-2.26209e-18
-2.26152e-18
-2.26283e-18
-2.24477e-18
-2.27867e-18
-2.25957e-18
-2.26626e-18
-2.2588e-18
-2.25878e-18
-2.25242e-18
-2.26545e-18
-2.26558e-18
-2.27378e-18
-2.25329e-18
-2.25484e-18
-2.23799e-18
-2.27154e-18
-2.25205e-18
-2.26255e-18
-2.24649e-18
-2.25475e-18
-2.25211e-18
-2.2612e-18
-2.25887e-18
-2.2696e-18
-2.257e-18
-2.27052e-18
-2.25818e-18
-2.25338e-18
-2.25217e-18
-2.2614e-18
-2.26425e-18
-2.27116e-18
-2.25163e-18
-2.262e-18
-2.25026e-18
-2.27147e-18
-2.25889e-18
-2.27245e-18
-2.24597e-18
-2.25943e-18
-2.26434e-18
-2.26531e-18
-2.26011e-18
-2.27098e-18
-2.2633e-18
-2.27411e-18
-2.25736e-18
-2.25904e-18
-2.25162e-18
-2.25762e-18
-2.25448e-18
-2.25959e-18
-2.25462e-18
-2.26272e-18
-2.25715e-18
-2.26966e-18
-2.25781e-18
-2.27364e-18
-2.25258e-18
-2.26765e-18
-2.26577e-18
-2.26281e-18
-2.2623e-18
-2.26065e-18
-2.26082e-18
-2.27024e-18
-2.26143e-18
-2.26763e-18
-2.24939e-18
-2.25142e-18
-2.25835e-18
-2.26085e-18
-2.25577e-18
-2.26936e-18
-2.25651e-18
-2.27e-18
-2.25728e-18
-2.2704e-18
-2.2539e-18
-2.2681e-18
-2.25931e-18
-2.26025e-18
-2.25917e-18
-2.26112e-18
-2.2608e-18
-2.26556e-18
-2.25421e-18
-2.27003e-18
-2.248e-18
-2.25327e-18
-2.25821e-18
-2.26773e-18
-2.25774e-18
-2.26714e-18
-2.2592e-18
-2.27109e-18
-2.25465e-18
-2.26942e-18
-2.25299e-18
-2.26386e-18
-2.26191e-18
-2.24859e-18
-2.24936e-18
-2.26159e-18
-2.26202e-18
-2.25212e-18
-2.2556e-18
-2.27337e-18
-2.2579e-18
-2.25246e-18
-2.25662e-18
-2.263e-18
-2.25513e-18
-2.2614e-18
-2.25592e-18
-2.27028e-18
-2.24983e-18
-2.27068e-18
-2.2581e-18
-2.26497e-18
-2.2583e-18
-2.25355e-18
-2.26145e-18
-2.25979e-18
-2.25045e-18
-2.25676e-18
-2.25661e-18
-2.26702e-18
-2.25558e-18
-2.25538e-18
-2.25631e-18
-2.26399e-18
-2.26143e-18
-2.27327e-18
-2.2548e-18
-2.2744e-18
-2.25592e-18
-2.26885e-18
-2.25458e-18
-2.25873e-18
-2.27503e-18
-2.25049e-18
-2.25696e-18
-2.26596e-18
-2.25021e-18
-2.26147e-18
-2.25738e-18
-2.26518e-18
-2.25169e-18
-2.26339e-18
-2.26496e-18
-2.25871e-18
-2.26335e-18
-2.27139e-18
-2.25534e-18
-2.26111e-18
-2.25585e-18
-2.27694e-18
-2.2545e-18
-2.25561e-18
-2.25662e-18
-2.26096e-18
-2.26977e-18
-2.27954e-18
-2.26877e-18
-2.26173e-18
-2.27904e-18
-2.26839e-18
-2.2782e-18
-2.26904e-18
-2.28799e-18
-2.28326e-18
-2.28544e-18
-2.29751e-18
-2.24709e-18
-2.26854e-18
-2.24683e-18
-2.25497e-18
-2.25993e-18
-2.24675e-18
-2.2817e-18
-2.2592e-18
-2.26902e-18
-2.24596e-18
-2.26382e-18
-2.27369e-18
-2.26225e-18
-2.26001e-18
-2.26885e-18
-2.25791e-18
-2.25474e-18
-2.2538e-18
-2.27956e-18
-2.25641e-18
-2.25778e-18
-2.2622e-18
-2.26615e-18
-2.26209e-18
-2.27325e-18
-2.26471e-18
-2.26813e-18
-2.27939e-18
-2.27106e-18
-2.27399e-18
-2.27295e-18
-2.28744e-18
-2.28616e-18
-2.28742e-18
-2.29362e-18
-2.30019e-18
-2.30237e-18
-2.26171e-18
-2.27048e-18
-2.25127e-18
-2.25308e-18
-2.2643e-18
-2.26845e-18
-2.28545e-18
-2.25776e-18
-2.28238e-18
-2.24569e-18
-2.26695e-18
-2.26002e-18
-2.26172e-18
-2.26028e-18
-2.26428e-18
-2.25643e-18
-2.2637e-18
-2.25113e-18
-2.26801e-18
-2.25897e-18
-2.26367e-18
-2.26132e-18
-2.2689e-18
-2.26311e-18
-2.27138e-18
-2.27195e-18
-2.27041e-18
-2.27638e-18
-2.27086e-18
-2.2789e-18
-2.27258e-18
-2.28217e-18
-2.28513e-18
-2.28033e-18
-2.2987e-18
-2.30187e-18
-2.29702e-18
-2.30619e-18
-2.26363e-18
-2.273e-18
-2.25646e-18
-2.24976e-18
-2.28224e-18
-2.2588e-18
-2.2778e-18
-2.24898e-18
-2.27581e-18
-2.2466e-18
-2.28316e-18
-2.25758e-18
-2.26876e-18
-2.25667e-18
-2.25753e-18
-2.24833e-18
-2.26168e-18
-2.25286e-18
-2.26353e-18
-2.26242e-18
-2.26083e-18
-2.25896e-18
-2.27194e-18
-2.26378e-18
-2.27098e-18
-2.26904e-18
-2.27122e-18
-2.27748e-18
-2.27161e-18
-2.28408e-18
-2.27058e-18
-2.27588e-18
-2.28178e-18
-2.28915e-18
-2.29653e-18
-2.30244e-18
-2.29642e-18
-2.30644e-18
-2.30822e-18
-2.30597e-18
-2.26169e-18
-2.26992e-18
-2.26259e-18
-2.25173e-18
-2.27684e-18
-2.25455e-18
-2.27126e-18
-2.24158e-18
-2.27661e-18
-2.2522e-18
-2.27838e-18
-2.25806e-18
-2.27621e-18
-2.25037e-18
-2.261e-18
-2.25221e-18
-2.26018e-18
-2.25783e-18
-2.26559e-18
-2.25962e-18
-2.25678e-18
-2.26126e-18
-2.26795e-18
-2.26284e-18
-2.2708e-18
-2.26606e-18
-2.27317e-18
-2.27386e-18
-2.26943e-18
-2.27983e-18
-2.27688e-18
-2.28084e-18
-2.27472e-18
-2.29165e-18
-2.28946e-18
-2.29957e-18
-2.29672e-18
-2.30193e-18
-2.30517e-18
-2.30812e-18
-2.31658e-18
-2.30766e-18
-2.27013e-18
-2.26122e-18
-2.2651e-18
-2.24945e-18
-2.26647e-18
-2.24953e-18
-2.27294e-18
-2.25586e-18
-2.27261e-18
-2.2482e-18
-2.28435e-18
-2.25528e-18
-2.26747e-18
-2.24823e-18
-2.26972e-18
-2.2618e-18
-2.26261e-18
-2.25272e-18
-2.25812e-18
-2.25924e-18
-2.25753e-18
-2.26472e-18
-2.26305e-18
-2.26285e-18
-2.27214e-18
-2.2641e-18
-2.27648e-18
-2.27164e-18
-2.27434e-18
-2.27717e-18
-2.26945e-18
-2.2835e-18
-2.27951e-18
-2.29208e-18
-2.28587e-18
-2.29214e-18
-2.29684e-18
-2.3036e-18
-2.30096e-18
-2.3065e-18
-2.31838e-18
-2.30813e-18
-2.34078e-18
-2.32335e-18
-2.33796e-18
-2.26936e-18
-2.26761e-18
-2.2691e-18
-2.25369e-18
-2.26281e-18
-2.24731e-18
-2.27652e-18
-2.26455e-18
-2.26834e-18
-2.23706e-18
-2.27839e-18
-2.25649e-18
-2.27029e-18
-2.26211e-18
-2.26327e-18
-2.26142e-18
-2.26523e-18
-2.24615e-18
-2.2593e-18
-2.26255e-18
-2.2593e-18
-2.26226e-18
-2.26303e-18
-2.26387e-18
-2.27626e-18
-2.26901e-18
-2.27525e-18
-2.26928e-18
-2.27432e-18
-2.27476e-18
-2.27134e-18
-2.28531e-18
-2.27904e-18
-2.29411e-18
-2.29775e-18
-2.28966e-18
-2.29693e-18
-2.29584e-18
-2.30023e-18
-2.30118e-18
-2.31703e-18
-2.30296e-18
-2.3324e-18
-2.311e-18
-2.33999e-18
-2.3268e-18
-2.34557e-18
-2.26865e-18
-2.26807e-18
-2.2664e-18
-2.25743e-18
-2.26433e-18
-2.25363e-18
-2.26327e-18
-2.26577e-18
-2.27188e-18
-2.24705e-18
-2.27375e-18
-2.26288e-18
-2.27232e-18
-2.25782e-18
-2.26649e-18
-2.25618e-18
-2.26472e-18
-2.24377e-18
-2.27143e-18
-2.25999e-18
-2.25494e-18
-2.25987e-18
-2.26661e-18
-2.26464e-18
-2.27595e-18
-2.26518e-18
-2.2767e-18
-2.27152e-18
-2.272e-18
-2.27008e-18
-2.27165e-18
-2.27676e-18
-2.28172e-18
-2.28562e-18
-2.29782e-18
-2.28809e-18
-2.29362e-18
-2.29757e-18
-2.30312e-18
-2.30035e-18
-2.31157e-18
-2.30643e-18
-2.33331e-18
-2.32011e-18
-2.33697e-18
-2.3276e-18
-2.33642e-18
-2.32397e-18
-2.35083e-18
-2.32094e-18
-2.26796e-18
-2.2674e-18
-2.26616e-18
-2.24934e-18
-2.27759e-18
-2.25494e-18
-2.26994e-18
-2.27267e-18
-2.28289e-18
-2.25829e-18
-2.27106e-18
-2.26528e-18
-2.27596e-18
-2.25548e-18
-2.25949e-18
-2.24476e-18
-2.26479e-18
-2.24987e-18
-2.26649e-18
-2.25379e-18
-2.25987e-18
-2.25394e-18
-2.26795e-18
-2.25568e-18
-2.27136e-18
-2.25978e-18
-2.27256e-18
-2.27125e-18
-2.27095e-18
-2.27483e-18
-2.266e-18
-2.2813e-18
-2.28086e-18
-2.2865e-18
-2.30536e-18
-2.29561e-18
-2.29625e-18
-2.30041e-18
-2.30614e-18
-2.30857e-18
-2.30881e-18
-2.30347e-18
-2.32106e-18
-2.31125e-18
-2.33676e-18
-2.32115e-18
-2.33465e-18
-2.32418e-18
-2.34701e-18
-2.32113e-18
-2.26613e-18
-2.26559e-18
-2.27068e-18
-2.25639e-18
-2.27116e-18
-2.25443e-18
-2.2722e-18
-2.25881e-18
-2.27493e-18
-2.25265e-18
-2.28023e-18
-2.26159e-18
-2.27897e-18
-2.25734e-18
-2.25872e-18
-2.24905e-18
-2.25856e-18
-2.25412e-18
-2.2587e-18
-2.25545e-18
-2.26148e-18
-2.25702e-18
-2.26745e-18
-2.25212e-18
-2.2697e-18
-2.2633e-18
-2.27574e-18
-2.26864e-18
-2.27333e-18
-2.27628e-18
-2.26809e-18
-2.28259e-18
-2.28222e-18
-2.29175e-18
-2.3006e-18
-2.29359e-18
-2.29993e-18
-2.30088e-18
-2.31263e-18
-2.30293e-18
-2.31651e-18
-2.31042e-18
-2.32428e-18
-2.30871e-18
-2.32364e-18
-2.31203e-18
-2.32319e-18
-2.32382e-18
-2.34072e-18
-2.32638e-18
-2.26862e-18
-2.26148e-18
-2.26987e-18
-2.25176e-18
-2.26871e-18
-2.24999e-18
-2.26375e-18
-2.26039e-18
-2.26773e-18
-2.25073e-18
-2.27764e-18
-2.25504e-18
-2.27013e-18
-2.25534e-18
-2.2593e-18
-2.25521e-18
-2.26526e-18
-2.25243e-18
-2.2569e-18
-2.26037e-18
-2.25982e-18
-2.26209e-18
-2.26629e-18
-2.25259e-18
-2.26851e-18
-2.26987e-18
-2.27695e-18
-2.27044e-18
-2.27571e-18
-2.27676e-18
-2.27663e-18
-2.28071e-18
-2.28338e-18
-2.28436e-18
-2.29391e-18
-2.29136e-18
-2.29341e-18
-2.3023e-18
-2.30806e-18
-2.29808e-18
-2.31091e-18
-2.31243e-18
-2.32571e-18
-2.32247e-18
-2.31222e-18
-2.30604e-18
-2.33102e-18
-2.31876e-18
-2.33947e-18
-2.3214e-18
-2.26785e-18
-2.26704e-18
-2.26184e-18
-2.25101e-18
-2.26245e-18
-2.2495e-18
-2.2612e-18
-2.2673e-18
-2.27107e-18
-2.25254e-18
-2.28933e-18
-2.26922e-18
-2.26305e-18
-2.24629e-18
-2.26676e-18
-2.25541e-18
-2.26551e-18
-2.25271e-18
-2.2574e-18
-2.26076e-18
-2.25813e-18
-2.26137e-18
-2.26548e-18
-2.25479e-18
-2.2676e-18
-2.27285e-18
-2.27271e-18
-2.2686e-18
-2.27359e-18
-2.2818e-18
-2.27138e-18
-2.27887e-18
-2.27551e-18
-2.27917e-18
-2.29204e-18
-2.2902e-18
-2.29136e-18
-2.30712e-18
-2.29597e-18
-2.28957e-18
-2.30894e-18
-2.30978e-18
-2.3252e-18
-2.32176e-18
-2.32406e-18
-2.31399e-18
-2.34262e-18
-2.31757e-18
-2.33335e-18
-2.31288e-18
-2.27654e-18
-2.28446e-18
-2.26484e-18
-2.2575e-18
-2.26644e-18
-2.24973e-18
-2.25224e-18
-2.25773e-18
-2.27034e-18
-2.24902e-18
-2.28416e-18
-2.27083e-18
-2.264e-18
-2.25224e-18
-2.25801e-18
-2.25301e-18
-2.26393e-18
-2.24933e-18
-2.25234e-18
-2.26013e-18
-2.2653e-18
-2.25842e-18
-2.27166e-18
-2.25206e-18
-2.26685e-18
-2.26469e-18
-2.27085e-18
-2.26215e-18
-2.27481e-18
-2.27815e-18
-2.26812e-18
-2.27836e-18
-2.27655e-18
-2.29282e-18
-2.28488e-18
-2.29678e-18
-2.29353e-18
-2.30679e-18
-2.29391e-18
-2.29838e-18
-2.30949e-18
-2.30584e-18
-2.32939e-18
-2.32426e-18
-2.32505e-18
-2.31037e-18
-2.33864e-18
-2.32002e-18
-2.31814e-18
-2.31265e-18
-2.28819e-18
-2.27869e-18
-2.27719e-18
-2.26367e-18
-2.27078e-18
-2.24432e-18
-2.25306e-18
-2.24926e-18
-2.26256e-18
-2.25876e-18
-2.27876e-18
-2.26578e-18
-2.27266e-18
-2.25565e-18
-2.26379e-18
-2.25806e-18
-2.25729e-18
-2.24791e-18
-2.24616e-18
-2.25515e-18
-2.26266e-18
-2.26178e-18
-2.27279e-18
-2.25431e-18
-2.26749e-18
-2.26201e-18
-2.26816e-18
-2.26757e-18
-2.28169e-18
-2.27587e-18
-2.27008e-18
-2.28247e-18
-2.27507e-18
-2.29132e-18
-2.28408e-18
-2.29038e-18
-2.29759e-18
-2.29815e-18
-2.30032e-18
-2.30696e-18
-2.307e-18
-2.30912e-18
-2.33612e-18
-2.31587e-18
-2.33163e-18
-2.31256e-18
-2.33968e-18
-2.31047e-18
-2.32548e-18
-2.31104e-18
-2.27836e-18
-2.2687e-18
-2.26745e-18
-2.26419e-18
-2.26921e-18
-2.25646e-18
-2.26469e-18
-2.25875e-18
-2.28287e-18
-2.26479e-18
-2.28788e-18
-2.27015e-18
-2.26973e-18
-2.25537e-18
-2.26972e-18
-2.25431e-18
-2.26064e-18
-2.25181e-18
-2.25618e-18
-2.25243e-18
-2.2591e-18
-2.26164e-18
-2.27221e-18
-2.25601e-18
-2.27062e-18
-2.26355e-18
-2.26452e-18
-2.26505e-18
-2.27139e-18
-2.2769e-18
-2.27824e-18
-2.28142e-18
-2.27648e-18
-2.28804e-18
-2.28414e-18
-2.28513e-18
-2.29522e-18
-2.30146e-18
-2.30013e-18
-2.30051e-18
-2.30237e-18
-2.2917e-18
-2.32005e-18
-2.30918e-18
-2.3196e-18
-2.31196e-18
-2.33941e-18
-2.32038e-18
-2.32896e-18
-2.31813e-18
-2.27056e-18
-2.26697e-18
-2.26717e-18
-2.2573e-18
-2.26996e-18
-2.25976e-18
-2.26172e-18
-2.25717e-18
-2.27618e-18
-2.25432e-18
-2.28057e-18
-2.27844e-18
-2.26706e-18
-2.2504e-18
-2.2675e-18
-2.25454e-18
-2.2567e-18
-2.25224e-18
-2.25977e-18
-2.25065e-18
-2.26316e-18
-2.26567e-18
-2.26991e-18
-2.25719e-18
-2.27082e-18
-2.26601e-18
-2.2674e-18
-2.2657e-18
-2.26768e-18
-2.27798e-18
-2.27983e-18
-2.27729e-18
-2.27441e-18
-2.29361e-18
-2.27773e-18
-2.28835e-18
-2.29295e-18
-2.30484e-18
-2.29356e-18
-2.29731e-18
-2.30959e-18
-2.30131e-18
-2.32262e-18
-2.31169e-18
-2.31425e-18
-2.3088e-18
-2.33463e-18
-2.32049e-18
-2.33163e-18
-2.32059e-18
-2.271e-18
-2.25806e-18
-2.27009e-18
-2.25022e-18
-2.26587e-18
-2.2433e-18
-2.25474e-18
-2.25217e-18
-2.27535e-18
-2.26098e-18
-2.28731e-18
-2.28153e-18
-2.26765e-18
-2.2471e-18
-2.2668e-18
-2.25139e-18
-2.2603e-18
-2.2472e-18
-2.2625e-18
-2.25386e-18
-2.26627e-18
-2.26326e-18
-2.2711e-18
-2.25371e-18
-2.26707e-18
-2.26198e-18
-2.27452e-18
-2.26947e-18
-2.2639e-18
-2.27705e-18
-2.27512e-18
-2.27428e-18
-2.27626e-18
-2.29119e-18
-2.2868e-18
-2.2895e-18
-2.30005e-18
-2.30537e-18
-2.29417e-18
-2.30029e-18
-2.30766e-18
-2.31037e-18
-2.32975e-18
-2.31501e-18
-2.32452e-18
-2.31244e-18
-2.3325e-18
-2.31825e-18
-2.34115e-18
-2.31771e-18
-2.28104e-18
-2.2535e-18
-2.27135e-18
-2.2559e-18
-2.26134e-18
-2.23879e-18
-2.25516e-18
-2.25404e-18
-2.27503e-18
-2.26801e-18
-2.28516e-18
-2.27439e-18
-2.27556e-18
-2.25672e-18
-2.26455e-18
-2.25623e-18
-2.2652e-18
-2.24286e-18
-2.2593e-18
-2.25567e-18
-2.26538e-18
-2.26073e-18
-2.26845e-18
-2.25296e-18
-2.26573e-18
-2.25774e-18
-2.2724e-18
-2.26901e-18
-2.2693e-18
-2.27845e-18
-2.27254e-18
-2.27545e-18
-2.27684e-18
-2.28285e-18
-2.29253e-18
-2.29261e-18
-2.30196e-18
-2.29993e-18
-2.30278e-18
-2.29395e-18
-2.31096e-18
-2.30577e-18
-2.32908e-18
-2.31899e-18
-2.33087e-18
-2.31356e-18
-2.33184e-18
-2.31861e-18
-2.34359e-18
-2.30848e-18
-2.28606e-18
-2.26132e-18
-2.26408e-18
-2.25626e-18
-2.26423e-18
-2.24483e-18
-2.26182e-18
-2.25358e-18
-2.27207e-18
-2.25945e-18
-2.27328e-18
-2.2753e-18
-2.2765e-18
-2.26379e-18
-2.26562e-18
-2.25257e-18
-2.2633e-18
-2.24623e-18
-2.2626e-18
-2.25315e-18
-2.26575e-18
-2.26114e-18
-2.26928e-18
-2.25181e-18
-2.26472e-18
-2.25839e-18
-2.27161e-18
-2.26541e-18
-2.27346e-18
-2.27593e-18
-2.27295e-18
-2.27147e-18
-2.27531e-18
-2.28278e-18
-2.29627e-18
-2.29247e-18
-2.29991e-18
-2.29654e-18
-2.29619e-18
-2.3127e-18
-2.3145e-18
-2.30792e-18
-2.32182e-18
-2.31662e-18
-2.33249e-18
-2.30474e-18
-2.3336e-18
-2.32492e-18
-2.33188e-18
-2.30557e-18
-2.27948e-18
-2.27066e-18
-2.27269e-18
-2.26034e-18
-2.26395e-18
-2.25281e-18
-2.25783e-18
-2.25677e-18
-2.27353e-18
-2.25965e-18
-2.28171e-18
-2.27622e-18
-2.27561e-18
-2.26655e-18
-2.26588e-18
-2.25267e-18
-2.25271e-18
-2.25215e-18
-2.25911e-18
-2.25747e-18
-2.26432e-18
-2.25934e-18
-2.27147e-18
-2.25738e-18
-2.26195e-18
-2.25571e-18
-2.27007e-18
-2.26877e-18
-2.27256e-18
-2.27556e-18
-2.27233e-18
-2.26749e-18
-2.27172e-18
-2.28566e-18
-2.28707e-18
-2.29319e-18
-2.28597e-18
-2.29616e-18
-2.28747e-18
-2.3044e-18
-2.31113e-18
-2.30977e-18
-2.31688e-18
-2.31006e-18
-2.32231e-18
-2.30911e-18
-2.33041e-18
-2.3153e-18
-2.3256e-18
-2.30688e-18
-2.27281e-18
-2.27777e-18
-2.27607e-18
-2.26081e-18
-2.26288e-18
-2.25465e-18
-2.25691e-18
-2.25382e-18
-2.27241e-18
-2.25938e-18
-2.27658e-18
-2.28299e-18
-2.27187e-18
-2.26222e-18
-2.27026e-18
-2.2526e-18
-2.25124e-18
-2.25388e-18
-2.25878e-18
-2.2566e-18
-2.26406e-18
-2.26234e-18
-2.26796e-18
-2.25659e-18
-2.26238e-18
-2.25679e-18
-2.27279e-18
-2.27303e-18
-2.27069e-18
-2.27026e-18
-2.27174e-18
-2.26743e-18
-2.27404e-18
-2.28169e-18
-2.2869e-18
-2.2911e-18
-2.28984e-18
-2.30198e-18
-2.2815e-18
-2.30423e-18
-2.31085e-18
-2.30561e-18
-2.32196e-18
-2.31311e-18
-2.32474e-18
-2.31108e-18
-2.32959e-18
-2.31082e-18
-2.32169e-18
-2.3086e-18
-2.27847e-18
-2.27209e-18
-2.27481e-18
-2.25917e-18
-2.26959e-18
-2.2458e-18
-2.26039e-18
-2.2497e-18
-2.26589e-18
-2.25682e-18
-2.27359e-18
-2.28111e-18
-2.28085e-18
-2.26262e-18
-2.27197e-18
-2.25527e-18
-2.25368e-18
-2.24966e-18
-2.2615e-18
-2.25168e-18
-2.2669e-18
-2.26225e-18
-2.26671e-18
-2.25559e-18
-2.26097e-18
-2.26154e-18
-2.27666e-18
-2.27133e-18
-2.26981e-18
-2.27292e-18
-2.27518e-18
-2.27216e-18
-2.2832e-18
-2.27978e-18
-2.28281e-18
-2.29303e-18
-2.2935e-18
-2.29641e-18
-2.28482e-18
-2.30233e-18
-2.3117e-18
-2.30898e-18
-2.32871e-18
-2.3101e-18
-2.32982e-18
-2.30691e-18
-2.33158e-18
-2.31222e-18
-2.32331e-18
-2.30571e-18
-2.27315e-18
-2.26874e-18
-2.2719e-18
-2.26101e-18
-2.26106e-18
-2.25128e-18
-2.25369e-18
-2.25909e-18
-2.27404e-18
-2.26115e-18
-2.28176e-18
-2.26977e-18
-2.27645e-18
-2.2646e-18
-2.26432e-18
-2.25481e-18
-2.25418e-18
-2.25209e-18
-2.26057e-18
-2.25429e-18
-2.27286e-18
-2.26009e-18
-2.27444e-18
-2.2544e-18
-2.25867e-18
-2.25824e-18
-2.26903e-18
-2.26474e-18
-2.26888e-18
-2.2697e-18
-2.27085e-18
-2.2747e-18
-2.27787e-18
-2.28556e-18
-2.27676e-18
-2.29794e-18
-2.29033e-18
-2.29975e-18
-2.29638e-18
-2.29623e-18
-2.30265e-18
-2.30538e-18
-2.32393e-18
-2.31428e-18
-2.32068e-18
-2.31216e-18
-2.33076e-18
-2.32076e-18
-2.32382e-18
-2.31257e-18
-2.27627e-18
-2.26031e-18
-2.27238e-18
-2.25441e-18
-2.256e-18
-2.25329e-18
-2.25731e-18
-2.25328e-18
-2.26972e-18
-2.26362e-18
-2.28171e-18
-2.26972e-18
-2.28418e-18
-2.25835e-18
-2.26356e-18
-2.25521e-18
-2.25946e-18
-2.25053e-18
-2.25984e-18
-2.25657e-18
-2.27145e-18
-2.26147e-18
-2.26904e-18
-2.25582e-18
-2.26319e-18
-2.26253e-18
-2.27131e-18
-2.26485e-18
-2.26993e-18
-2.26845e-18
-2.27135e-18
-2.27243e-18
-2.27829e-18
-2.28096e-18
-2.28093e-18
-2.29551e-18
-2.28986e-18
-2.29371e-18
-2.29497e-18
-2.29817e-18
-2.29896e-18
-2.30917e-18
-2.32329e-18
-2.31355e-18
-2.32069e-18
-2.32216e-18
-2.33625e-18
-2.31845e-18
-2.33088e-18
-2.30714e-18
-2.2684e-18
-2.26528e-18
-2.26863e-18
-2.25816e-18
-2.25744e-18
-2.25336e-18
-2.25867e-18
-2.25286e-18
-2.26894e-18
-2.25513e-18
-2.28942e-18
-2.2717e-18
-2.28339e-18
-2.26166e-18
-2.26296e-18
-2.25452e-18
-2.25964e-18
-2.25067e-18
-2.26209e-18
-2.25576e-18
-2.26845e-18
-2.26357e-18
-2.26585e-18
-2.25507e-18
-2.26301e-18
-2.26192e-18
-2.2709e-18
-2.26294e-18
-2.26914e-18
-2.27473e-18
-2.27564e-18
-2.26542e-18
-2.27874e-18
-2.27787e-18
-2.28675e-18
-2.29898e-18
-2.28975e-18
-2.29153e-18
-2.2903e-18
-2.29314e-18
-2.30912e-18
-2.30684e-18
-2.3183e-18
-2.31357e-18
-2.32167e-18
-2.32046e-18
-2.33152e-18
-2.31996e-18
-2.32689e-18
-2.30355e-18
-2.27263e-18
-2.26789e-18
-2.27265e-18
-2.27027e-18
-2.25891e-18
-2.25378e-18
-2.26375e-18
-2.2504e-18
-2.27168e-18
-2.25081e-18
-2.28063e-18
-2.27242e-18
-2.27791e-18
-2.26374e-18
-2.26109e-18
-2.2597e-18
-2.26137e-18
-2.25476e-18
-2.26219e-18
-2.25382e-18
-2.26664e-18
-2.26555e-18
-2.2722e-18
-2.25692e-18
-2.26479e-18
-2.25746e-18
-2.27163e-18
-2.25996e-18
-2.26884e-18
-2.27073e-18
-2.27954e-18
-2.26336e-18
-2.27657e-18
-2.27749e-18
-2.28736e-18
-2.30171e-18
-2.29275e-18
-2.29632e-18
-2.29209e-18
-2.29857e-18
-2.31293e-18
-2.30395e-18
-2.31447e-18
-2.30804e-18
-2.32183e-18
-2.3074e-18
-2.31903e-18
-2.31681e-18
-2.32638e-18
-2.30579e-18
-2.26426e-18
-2.26772e-18
-2.26963e-18
-2.27699e-18
-2.26297e-18
-2.25538e-18
-2.26231e-18
-2.24495e-18
-2.26943e-18
-2.25638e-18
-2.28365e-18
-2.26665e-18
-2.2768e-18
-2.26295e-18
-2.26197e-18
-2.26113e-18
-2.25494e-18
-2.2568e-18
-2.25925e-18
-2.2558e-18
-2.26317e-18
-2.27156e-18
-2.27685e-18
-2.26078e-18
-2.26213e-18
-2.25513e-18
-2.26803e-18
-2.26231e-18
-2.26541e-18
-2.26945e-18
-2.27493e-18
-2.2688e-18
-2.27776e-18
-2.28205e-18
-2.28471e-18
-2.29964e-18
-2.29512e-18
-2.29885e-18
-2.29825e-18
-2.29031e-18
-2.31018e-18
-2.3009e-18
-2.31712e-18
-2.30685e-18
-2.32048e-18
-2.30977e-18
-2.31217e-18
-2.31978e-18
-2.3218e-18
-2.31847e-18
-2.26754e-18
-2.26801e-18
-2.26531e-18
-2.26468e-18
-2.26472e-18
-2.25813e-18
-2.26551e-18
-2.25459e-18
-2.26934e-18
-2.25748e-18
-2.28396e-18
-2.27049e-18
-2.28577e-18
-2.26294e-18
-2.26552e-18
-2.259e-18
-2.25752e-18
-2.257e-18
-2.26002e-18
-2.25628e-18
-2.26382e-18
-2.2662e-18
-2.27352e-18
-2.26486e-18
-2.26231e-18
-2.2567e-18
-2.26514e-18
-2.26499e-18
-2.26654e-18
-2.27135e-18
-2.27143e-18
-2.26993e-18
-2.27493e-18
-2.28205e-18
-2.28603e-18
-2.2996e-18
-2.29558e-18
-2.2929e-18
-2.29371e-18
-2.29122e-18
-2.30333e-18
-2.30338e-18
-2.31427e-18
-2.30193e-18
-2.31677e-18
-2.312e-18
-2.3271e-18
-2.3249e-18
-2.31691e-18
-2.31413e-18
-2.26991e-18
-2.27046e-18
-2.26788e-18
-2.2611e-18
-2.26348e-18
-2.25641e-18
-2.26408e-18
-2.24736e-18
-2.27256e-18
-2.26081e-18
-2.28028e-18
-2.27794e-18
-2.28356e-18
-2.26443e-18
-2.27088e-18
-2.25773e-18
-2.25872e-18
-2.25627e-18
-2.26308e-18
-2.25308e-18
-2.26807e-18
-2.26355e-18
-2.27174e-18
-2.26301e-18
-2.26475e-18
-2.25721e-18
-2.26193e-18
-2.2627e-18
-2.26629e-18
-2.26837e-18
-2.27021e-18
-2.26743e-18
-2.27478e-18
-2.28209e-18
-2.28766e-18
-2.29798e-18
-2.29382e-18
-2.29493e-18
-2.29102e-18
-2.29417e-18
-2.29933e-18
-2.30486e-18
-2.326e-18
-2.30547e-18
-2.31675e-18
-2.31187e-18
-2.32613e-18
-2.32571e-18
-2.31627e-18
-2.30892e-18
-2.26645e-18
-2.27455e-18
-2.27089e-18
-2.25413e-18
-2.26277e-18
-2.25797e-18
-2.25991e-18
-2.25181e-18
-2.27308e-18
-2.25521e-18
-2.2829e-18
-2.27655e-18
-2.27469e-18
-2.26392e-18
-2.27287e-18
-2.25984e-18
-2.26212e-18
-2.2559e-18
-2.26101e-18
-2.25449e-18
-2.26806e-18
-2.26475e-18
-2.27235e-18
-2.26196e-18
-2.26198e-18
-2.25758e-18
-2.26409e-18
-2.26173e-18
-2.26605e-18
-2.26676e-18
-2.27433e-18
-2.26661e-18
-2.27726e-18
-2.28127e-18
-2.28575e-18
-2.29434e-18
-2.29116e-18
-2.30131e-18
-2.29091e-18
-2.28929e-18
-2.31041e-18
-2.30489e-18
-2.32255e-18
-2.31038e-18
-2.31815e-18
-2.31158e-18
-2.33289e-18
-2.32113e-18
-2.31354e-18
-2.30649e-18
-2.2536e-18
-2.26879e-18
-2.26115e-18
-2.25162e-18
-2.2605e-18
-2.26279e-18
-2.26721e-18
-2.25719e-18
-2.27141e-18
-2.25393e-18
-2.29003e-18
-2.27217e-18
-2.27243e-18
-2.26622e-18
-2.27847e-18
-2.26176e-18
-2.26427e-18
-2.25758e-18
-2.25908e-18
-2.26044e-18
-2.26779e-18
-2.2654e-18
-2.27271e-18
-2.26082e-18
-2.26449e-18
-2.25784e-18
-2.26457e-18
-2.26331e-18
-2.26586e-18
-2.26726e-18
-2.26989e-18
-2.27123e-18
-2.27632e-18
-2.28047e-18
-2.28511e-18
-2.28916e-18
-2.28842e-18
-2.30479e-18
-2.29369e-18
-2.28641e-18
-2.30973e-18
-2.30429e-18
-2.32363e-18
-2.30455e-18
-2.31422e-18
-2.31356e-18
-2.33277e-18
-2.3236e-18
-2.32114e-18
-2.31698e-18
-2.26327e-18
-2.27182e-18
-2.25239e-18
-2.26286e-18
-2.25465e-18
-2.2597e-18
-2.26503e-18
-2.25028e-18
-2.26671e-18
-2.25677e-18
-2.27873e-18
-2.26393e-18
-2.28328e-18
-2.25948e-18
-2.27159e-18
-2.26136e-18
-2.26223e-18
-2.25789e-18
-2.26058e-18
-2.25945e-18
-2.26847e-18
-2.26766e-18
-2.27153e-18
-2.25913e-18
-2.26322e-18
-2.25797e-18
-2.26342e-18
-2.26185e-18
-2.26397e-18
-2.26945e-18
-2.27149e-18
-2.2715e-18
-2.27837e-18
-2.28051e-18
-2.28998e-18
-2.2976e-18
-2.29861e-18
-2.29209e-18
-2.30058e-18
-2.29875e-18
-2.30598e-18
-2.30514e-18
-2.3184e-18
-2.30847e-18
-2.31784e-18
-2.31903e-18
-2.32432e-18
-2.33291e-18
-2.32174e-18
-2.31076e-18
-2.26873e-18
-2.26747e-18
-2.26313e-18
-2.26926e-18
-2.25685e-18
-2.26111e-18
-2.26224e-18
-2.24892e-18
-2.26518e-18
-2.25808e-18
-2.28519e-18
-2.26747e-18
-2.28732e-18
-2.26869e-18
-2.26793e-18
-2.26087e-18
-2.25944e-18
-2.25938e-18
-2.26168e-18
-2.25837e-18
-2.27006e-18
-2.26186e-18
-2.27095e-18
-2.26193e-18
-2.26373e-18
-2.258e-18
-2.26319e-18
-2.26205e-18
-2.26838e-18
-2.26577e-18
-2.27433e-18
-2.27003e-18
-2.27626e-18
-2.28216e-18
-2.29229e-18
-2.29725e-18
-2.29835e-18
-2.28649e-18
-2.30209e-18
-2.29438e-18
-2.30687e-18
-2.30505e-18
-2.31467e-18
-2.31177e-18
-2.32108e-18
-2.3155e-18
-2.31999e-18
-2.32384e-18
-2.32352e-18
-2.30844e-18
-2.26798e-18
-2.27378e-18
-2.27006e-18
-2.26701e-18
-2.26246e-18
-2.25456e-18
-2.25362e-18
-2.24493e-18
-2.2719e-18
-2.25827e-18
-2.27655e-18
-2.26943e-18
-2.28064e-18
-2.27189e-18
-2.27295e-18
-2.25911e-18
-2.25627e-18
-2.25836e-18
-2.26527e-18
-2.25801e-18
-2.27181e-18
-2.26261e-18
-2.2759e-18
-2.26211e-18
-2.26596e-18
-2.25793e-18
-2.2626e-18
-2.2597e-18
-2.26866e-18
-2.26452e-18
-2.2723e-18
-2.2652e-18
-2.27994e-18
-2.28292e-18
-2.29543e-18
-2.29366e-18
-2.29944e-18
-2.29214e-18
-2.30134e-18
-2.29153e-18
-2.30423e-18
-2.29802e-18
-2.3115e-18
-2.31293e-18
-2.32994e-18
-2.30758e-18
-2.32443e-18
-2.3173e-18
-2.32108e-18
-2.30399e-18
-2.26385e-18
-2.27426e-18
-2.26877e-18
-2.25665e-18
-2.26488e-18
-2.2559e-18
-2.26091e-18
-2.24231e-18
-2.26895e-18
-2.25979e-18
-2.27422e-18
-2.26961e-18
-2.28183e-18
-2.27456e-18
-2.2736e-18
-2.25729e-18
-2.26643e-18
-2.25206e-18
-2.26408e-18
-2.25787e-18
-2.27007e-18
-2.26316e-18
-2.27532e-18
-2.26133e-18
-2.26379e-18
-2.25776e-18
-2.26168e-18
-2.25851e-18
-2.26499e-18
-2.26319e-18
-2.27124e-18
-2.26998e-18
-2.28245e-18
-2.2735e-18
-2.29622e-18
-2.29169e-18
-2.29259e-18
-2.29515e-18
-2.29916e-18
-2.29014e-18
-2.30139e-18
-2.30164e-18
-2.31794e-18
-2.30767e-18
-2.3233e-18
-2.30769e-18
-2.32509e-18
-2.32162e-18
-2.31536e-18
-2.26203e-18
-2.26727e-18
-2.26375e-18
-2.25739e-18
-2.26009e-18
-2.25904e-18
-2.26711e-18
-2.24715e-18
-2.26748e-18
-2.26305e-18
-2.2807e-18
-2.26926e-18
-2.27962e-18
-2.26845e-18
-2.27634e-18
-2.25885e-18
-2.26549e-18
-2.25638e-18
-2.26743e-18
-2.26158e-18
-2.27211e-18
-2.26394e-18
-2.27617e-18
-2.26242e-18
-2.26292e-18
-2.2579e-18
-2.26124e-18
-2.25726e-18
-2.26265e-18
-2.2594e-18
-2.26708e-18
-2.27178e-18
-2.28231e-18
-2.27907e-18
-2.29207e-18
-2.29326e-18
-2.2953e-18
-2.29535e-18
-2.30065e-18
-2.29174e-18
-2.2979e-18
-2.30507e-18
-2.31788e-18
-2.30615e-18
-2.32047e-18
-2.31294e-18
-2.32666e-18
-2.32322e-18
-2.25878e-18
-2.26381e-18
-2.26667e-18
-2.26858e-18
-2.25957e-18
-2.25828e-18
-2.26657e-18
-2.24894e-18
-2.26546e-18
-2.25957e-18
-2.28228e-18
-2.26874e-18
-2.28496e-18
-2.26889e-18
-2.27885e-18
-2.26527e-18
-2.26314e-18
-2.26009e-18
-2.26774e-18
-2.26352e-18
-2.27349e-18
-2.26336e-18
-2.27368e-18
-2.26337e-18
-2.26408e-18
-2.25797e-18
-2.26046e-18
-2.25437e-18
-2.26042e-18
-2.25755e-18
-2.26459e-18
-2.2739e-18
-2.27642e-18
-2.28442e-18
-2.28847e-18
-2.29713e-18
-2.2945e-18
-2.29086e-18
-2.29837e-18
-2.29976e-18
-2.30099e-18
-2.30496e-18
-2.31725e-18
-2.3041e-18
-2.31936e-18
-2.31191e-18
-2.3178e-18
-2.26942e-18
-2.26116e-18
-2.26329e-18
-2.26673e-18
-2.25715e-18
-2.26006e-18
-2.25799e-18
-2.24896e-18
-2.27153e-18
-2.26462e-18
-2.27614e-18
-2.26764e-18
-2.28741e-18
-2.26493e-18
-2.28035e-18
-2.26689e-18
-2.2639e-18
-2.25826e-18
-2.26812e-18
-2.26224e-18
-2.27191e-18
-2.26379e-18
-2.27139e-18
-2.26307e-18
-2.26683e-18
-2.25913e-18
-2.25977e-18
-2.25609e-18
-2.26254e-18
-2.25797e-18
-2.26597e-18
-2.27063e-18
-2.27674e-18
-2.27933e-18
-2.28758e-18
-2.29184e-18
-2.29868e-18
-2.29321e-18
-2.2992e-18
-2.30385e-18
-2.29532e-18
-2.29802e-18
-2.31568e-18
-2.31682e-18
-2.32327e-18
-2.31562e-18
-2.26002e-18
-2.25922e-18
-2.25453e-18
-2.26391e-18
-2.25979e-18
-2.25563e-18
-2.26357e-18
-2.24728e-18
-2.26217e-18
-2.25684e-18
-2.27658e-18
-2.26598e-18
-2.28414e-18
-2.27165e-18
-2.27639e-18
-2.26276e-18
-2.26619e-18
-2.25484e-18
-2.26977e-18
-2.26313e-18
-2.26935e-18
-2.26676e-18
-2.27002e-18
-2.26268e-18
-2.26543e-18
-2.26135e-18
-2.25988e-18
-2.25541e-18
-2.26205e-18
-2.25943e-18
-2.26736e-18
-2.2678e-18
-2.27859e-18
-2.27731e-18
-2.29089e-18
-2.29e-18
-2.29199e-18
-2.30144e-18
-2.30116e-18
-2.29568e-18
-2.30341e-18
-2.30812e-18
-2.31536e-18
-2.3113e-18
-2.32538e-18
-2.25156e-18
-2.25486e-18
-2.25294e-18
-2.25871e-18
-2.25808e-18
-2.24329e-18
-2.26632e-18
-2.24687e-18
-2.25638e-18
-2.25887e-18
-2.27173e-18
-2.26635e-18
-2.28555e-18
-2.27223e-18
-2.27596e-18
-2.26413e-18
-2.26631e-18
-2.2576e-18
-2.27116e-18
-2.26429e-18
-2.26877e-18
-2.26328e-18
-2.27437e-18
-2.26334e-18
-2.26635e-18
-2.25902e-18
-2.25889e-18
-2.25241e-18
-2.26314e-18
-2.26527e-18
-2.26915e-18
-2.27015e-18
-2.27826e-18
-2.28079e-18
-2.29164e-18
-2.29188e-18
-2.29127e-18
-2.29303e-18
-2.29357e-18
-2.29817e-18
-2.30445e-18
-2.31547e-18
-2.3162e-18
-2.30323e-18
-2.3368e-18
-2.25564e-18
-2.26483e-18
-2.26354e-18
-2.26382e-18
-2.2558e-18
-2.25211e-18
-2.26646e-18
-2.24735e-18
-2.26038e-18
-2.26617e-18
-2.27392e-18
-2.26187e-18
-2.28536e-18
-2.26796e-18
-2.27347e-18
-2.26647e-18
-2.26577e-18
-2.25907e-18
-2.27195e-18
-2.26755e-18
-2.269e-18
-2.25938e-18
-2.27403e-18
-2.26499e-18
-2.26475e-18
-2.25778e-18
-2.25796e-18
-2.25486e-18
-2.26757e-18
-2.26439e-18
-2.26434e-18
-2.27095e-18
-2.27799e-18
-2.28123e-18
-2.28809e-18
-2.29372e-18
-2.29635e-18
-2.2902e-18
-2.29763e-18
-2.29522e-18
-2.29611e-18
-2.31027e-18
-2.31713e-18
-2.30422e-18
-2.32943e-18
-2.2562e-18
-2.26377e-18
-2.26607e-18
-2.26855e-18
-2.25837e-18
-2.25511e-18
-2.26298e-18
-2.25182e-18
-2.26857e-18
-2.26311e-18
-2.26878e-18
-2.27069e-18
-2.28401e-18
-2.27573e-18
-2.27681e-18
-2.26229e-18
-2.26996e-18
-2.26217e-18
-2.27176e-18
-2.2635e-18
-2.2657e-18
-2.2626e-18
-2.27205e-18
-2.26728e-18
-2.26395e-18
-2.25796e-18
-2.25743e-18
-2.2586e-18
-2.26625e-18
-2.2653e-18
-2.2664e-18
-2.26777e-18
-2.2745e-18
-2.27948e-18
-2.28998e-18
-2.28984e-18
-2.29178e-18
-2.29301e-18
-2.29744e-18
-2.29866e-18
-2.29313e-18
-2.30205e-18
-2.31326e-18
-2.30878e-18
-2.3292e-18
-2.2554e-18
-2.26075e-18
-2.2588e-18
-2.25975e-18
-2.26288e-18
-2.25664e-18
-2.25591e-18
-2.24882e-18
-2.26675e-18
-2.25969e-18
-2.27521e-18
-2.26814e-18
-2.28807e-18
-2.27631e-18
-2.27774e-18
-2.26155e-18
-2.27065e-18
-2.26228e-18
-2.27063e-18
-2.26123e-18
-2.26533e-18
-2.26142e-18
-2.26914e-18
-2.26491e-18
-2.26426e-18
-2.26058e-18
-2.2569e-18
-2.25691e-18
-2.26254e-18
-2.26158e-18
-2.26666e-18
-2.26638e-18
-2.27286e-18
-2.27773e-18
-2.28592e-18
-2.28883e-18
-2.29289e-18
-2.29331e-18
-2.29413e-18
-2.29306e-18