/*--------------------------------*- C++ -*----------------------------------*\
  =========                 |
  \\      /  F ield         | OpenFOAM: The Open Source CFD Toolbox
   \\    /   O peration     | Website:  https://openfoam.org
    \\  /    A nd           | Version:  7
     \\/     M anipulation  |
\*---------------------------------------------------------------------------*/
FoamFile
{
    version     2.0;
    format      ascii;
    class       volVectorField;
    location    "80000";
    object      U;
}
// * * * * * * * * * * * * * * * * * * * * * * * * * * * * * * * * * * * * * //

dimensions      [0 1 -1 0 0 0 0];

internalField   nonuniform List<vector> 
4814
(
(7.07384e-21 9.02609e-19 -0.00940578)
(2.20406e-19 -1.11353e-19 -0.009418)
(-8.63382e-19 1.85953e-19 -0.00942905)
(-4.06907e-19 7.10172e-19 -0.00943891)
(-2.61384e-19 -6.01612e-19 -0.00903692)
(-4.58959e-19 -4.41431e-19 -0.00906249)
(-2.73536e-19 -6.66655e-19 -0.00908746)
(-3.60771e-19 -2.30866e-19 -0.00911174)
(-5.56486e-19 -1.35545e-18 -0.00913525)
(-1.42797e-18 -2.29608e-19 -0.00915793)
(-4.22138e-19 3.56528e-19 -0.00917972)
(-9.45866e-19 4.37224e-19 -0.00920062)
(2.4031e-19 9.77704e-19 -0.00922056)
(-9.15691e-19 7.44399e-19 -0.00923951)
(-5.09124e-19 -2.01451e-19 -0.00925741)
(-1.16173e-18 4.33358e-19 -0.00927422)
(6.62898e-19 9.65712e-19 -0.00928992)
(-2.53256e-19 2.31083e-19 -0.00930452)
(1.12006e-19 9.33534e-19 -0.00931798)
(2.95743e-19 -7.93549e-20 -0.00933026)
(-8.10067e-19 2.01394e-19 -0.00934137)
(-2.00515e-19 7.35389e-19 -0.00935128)
(1.12195e-19 7.55245e-19 -0.00935997)
(5.38709e-19 2.68222e-19 -0.00936744)
(1.49988e-19 1.42303e-19 -0.0093737)
(-3.52928e-21 -5.93921e-20 -0.0093787)
(8.07278e-19 7.09518e-20 -0.00938247)
(-2.83825e-19 -4.50328e-19 -0.00938498)
(6.71041e-19 -7.29375e-20 -0.00938624)
(-7.78638e-20 -4.04986e-19 -0.00938625)
(2.60793e-19 -8.22954e-20 -0.00938501)
(1.8346e-19 -6.33005e-19 -0.00938252)
(2.04211e-19 -6.10262e-19 -0.00937878)
(-9.59223e-20 -5.88298e-19 -0.0093738)
(-6.74376e-19 -8.00744e-19 -0.00936758)
(-9.02711e-19 -1.39777e-19 -0.0093601)
(-6.93605e-19 9.65205e-20 -0.00935137)
(5.72829e-20 -5.26968e-20 -0.00934142)
(-6.18954e-20 -3.98043e-19 -0.00894574)
(-4.50766e-19 -4.19749e-19 -0.00897147)
(-1.34623e-19 -5.78294e-19 -0.00899659)
(-3.5578e-19 -2.10198e-19 -0.009021)
(-5.79291e-19 -1.38597e-18 -0.00904465)
(-1.22801e-18 -1.42394e-19 -0.00906745)
(-4.10538e-19 3.33577e-19 -0.00908937)
(-8.25504e-19 4.87381e-19 -0.00911038)
(1.62703e-19 9.61358e-19 -0.00913044)
(-1.15837e-18 6.94961e-19 -0.00914949)
(-3.287e-19 -1.38671e-19 -0.00916749)
(-1.13531e-18 3.94502e-19 -0.00918439)
(5.92524e-19 9.17649e-19 -0.00920017)
(-2.9077e-19 2.23231e-19 -0.00921486)
(1.12025e-19 9.18374e-19 -0.00922839)
(3.99713e-19 -4.036e-20 -0.00924074)
(-6.47606e-19 2.44391e-19 -0.0092519)
(-3.19041e-20 7.51597e-19 -0.00926186)
(1.45717e-19 7.67421e-19 -0.00927059)
(3.85715e-19 2.45179e-19 -0.0092781)
(8.24851e-20 1.44247e-19 -0.00928439)
(-6.93651e-20 -9.26673e-20 -0.00928942)
(6.75927e-19 7.19588e-20 -0.00929321)
(-2.421e-19 -4.54333e-19 -0.00929573)
(4.67337e-19 -8.35617e-20 -0.009297)
(-9.68945e-20 -4.02358e-19 -0.00929701)
(3.47643e-19 -1.00088e-19 -0.00929576)
(2.26379e-19 -6.49696e-19 -0.00929326)
(1.84535e-19 -6.02769e-19 -0.00928951)
(3.86465e-21 -5.78826e-19 -0.0092845)
(-6.75126e-19 -7.88334e-19 -0.00927824)
(-8.57095e-19 -1.45067e-19 -0.00927073)
(-7.06622e-19 7.81897e-20 -0.00926196)
(-1.62169e-20 -2.72991e-20 -0.00925196)
(-8.09889e-19 -1.08152e-19 -0.00924076)
(-4.606e-19 2.10224e-19 -0.00922839)
(-2.77048e-19 6.51457e-19 -0.00921483)
(-3.48543e-20 2.96753e-19 -0.00920013)
(5.4388e-20 1.43209e-19 -0.0091843)
(-6.22026e-19 -2.31778e-19 -0.00916738)
(-4.01137e-19 2.52551e-19 -0.00914936)
(2.11767e-19 -1.42089e-19 -0.00885263)
(-4.5764e-19 -4.07556e-19 -0.00887852)
(-3.5439e-20 -5.1838e-19 -0.00890379)
(-4.86419e-19 -2.84126e-19 -0.00892835)
(-5.39364e-19 -1.3916e-18 -0.00895213)
(-8.33315e-19 7.70619e-20 -0.00897507)
(-4.21873e-19 3.08471e-19 -0.00899712)
(-8.61594e-19 4.40179e-19 -0.00901825)
(3.70128e-20 9.22096e-19 -0.00903842)
(-1.29447e-18 6.90005e-19 -0.00905758)
(-1.60006e-19 -8.64158e-20 -0.00907567)
(-1.22651e-18 3.07383e-19 -0.00909267)
(7.89253e-19 9.73409e-19 -0.00910854)
(-2.85693e-19 2.41529e-19 -0.00912331)
(-2.40253e-20 8.57051e-19 -0.00913691)
(4.02978e-19 -4.5199e-20 -0.00914933)
(-3.96034e-19 3.06518e-19 -0.00916056)
(3.42296e-20 7.5177e-19 -0.00917056)
(1.63124e-19 7.83859e-19 -0.00917934)
(3.00569e-19 2.34598e-19 -0.00918689)
(4.08397e-20 1.49881e-19 -0.00919321)
(-1.14113e-19 -1.2421e-19 -0.00919827)
(5.91045e-19 7.1888e-20 -0.00920208)
(-1.78776e-19 -4.53228e-19 -0.00920462)
(3.36071e-19 -8.89405e-20 -0.00920589)
(-1.89234e-19 -4.14312e-19 -0.0092059)
(4.88227e-19 -1.19699e-19 -0.00920464)
(2.04565e-19 -6.49638e-19 -0.00920213)
(1.50964e-19 -5.91473e-19 -0.00919836)
(-3.58856e-22 -5.5539e-19 -0.00919333)
(-5.34703e-19 -8.01591e-19 -0.00918704)
(-8.5407e-19 -1.4293e-19 -0.00917948)
(-6.75915e-19 5.35351e-20 -0.00917067)
(-1.24669e-19 1.15037e-20 -0.00916061)
(-7.26838e-19 -1.33932e-19 -0.00914936)
(-5.77373e-19 2.36099e-19 -0.00913692)
(-1.97246e-20 5.6591e-19 -0.00912328)
(-2.50719e-19 3.90515e-19 -0.0091085)
(-5.16765e-20 2.03911e-19 -0.00909259)
(-5.96903e-19 -2.57559e-19 -0.00907557)
(-5.95322e-19 3.76902e-19 -0.00905745)
(-8.44154e-20 1.32096e-18 -0.00903827)
(-2.65494e-20 -9.52749e-20 -0.00901809)
(1.16906e-19 7.46714e-20 -0.00899693)
(3.11204e-19 -4.57626e-20 -0.00875749)
(-4.09091e-19 -3.26819e-19 -0.00878355)
(-1.44904e-19 -6.25096e-19 -0.00880897)
(-5.81871e-19 -3.32064e-19 -0.00883368)
(-4.20991e-19 -1.37251e-18 -0.00885761)
(-6.15899e-19 1.76867e-19 -0.00888068)
(-3.71271e-19 3.4687e-19 -0.00890286)
(-8.05858e-19 4.5563e-19 -0.00892412)
(-2.64747e-19 7.85845e-19 -0.0089444)
(-1.26687e-18 7.59378e-19 -0.00896367)
(-9.46561e-20 -8.18858e-20 -0.00898187)
(-1.25406e-18 2.3793e-19 -0.00899896)
(8.9078e-19 9.82505e-19 -0.00901493)
(-2.22363e-19 2.99219e-19 -0.00902978)
(-8.22882e-20 8.2339e-19 -0.00904346)
(3.75561e-19 -7.54192e-20 -0.00905594)
(-3.02295e-19 3.26848e-19 -0.00906723)
(2.49737e-20 7.43618e-19 -0.00907729)
(1.01859e-19 7.87842e-19 -0.00908612)
(2.32431e-19 2.31213e-19 -0.00909371)
(2.06601e-20 1.58482e-19 -0.00910007)
(-1.18528e-19 -1.48681e-19 -0.00910516)
(5.7697e-19 7.51579e-20 -0.00910899)
(-1.21782e-19 -4.52603e-19 -0.00911154)
(3.03293e-19 -8.40291e-20 -0.00911282)
(-2.8485e-19 -4.28683e-19 -0.00911283)
(4.50106e-19 -1.35324e-19 -0.00911156)
(2.00314e-19 -6.48113e-19 -0.00910903)
(1.34112e-19 -5.82352e-19 -0.00910525)
(-2.67848e-20 -5.37406e-19 -0.00910018)
(-4.20281e-19 -8.07335e-19 -0.00909386)
(-8.87003e-19 -1.2285e-19 -0.00908626)
(-7.14241e-19 4.90638e-20 -0.0090774)
(-1.74938e-19 2.66787e-20 -0.0090673)
(-5.86383e-19 -1.81187e-19 -0.00905598)
(-6.23654e-19 2.30544e-19 -0.00904347)
(2.74129e-19 4.77316e-19 -0.00902976)
(-3.26731e-19 4.37293e-19 -0.00901489)
(1.43431e-20 1.7313e-19 -0.00899889)
(-5.1582e-19 -3.04932e-19 -0.00898177)
(-6.75624e-19 4.45555e-19 -0.00896354)
(1.01969e-19 1.25953e-18 -0.00894426)
(1.04944e-19 -1.98484e-19 -0.00892395)
(2.35525e-19 2.2596e-20 -0.00890267)
(2.56572e-19 -9.76554e-20 -0.00866023)
(-3.88814e-19 -2.6191e-19 -0.00868645)
(-2.73791e-19 -7.36571e-19 -0.00871204)
(-5.58823e-19 -3.03797e-19 -0.0087369)
(-2.27383e-19 -1.29644e-18 -0.00876097)
(-7.03725e-19 7.12663e-20 -0.00878419)
(-2.74602e-19 4.03519e-19 -0.0088065)
(-7.75639e-19 4.75231e-19 -0.00882789)
(-4.37494e-19 7.22556e-19 -0.00884829)
(-1.12684e-18 8.70232e-19 -0.00886768)
(-8.1589e-21 -6.43369e-20 -0.00888598)
(-1.10753e-18 2.4815e-19 -0.00890317)
(6.91019e-19 8.67793e-19 -0.00891923)
(-2.52008e-19 3.22186e-19 -0.00893416)
(3.66402e-20 8.55715e-19 -0.00894793)
(3.34352e-19 -1.05679e-19 -0.00896048)
(-3.8675e-19 2.98118e-19 -0.00897184)
(5.11181e-20 7.45678e-19 -0.00898195)
(3.15356e-20 7.92519e-19 -0.00899083)
(2.74077e-19 2.41096e-19 -0.00899846)
(2.866e-20 1.70927e-19 -0.00900486)
(-6.08569e-20 -1.6814e-19 -0.00900997)
(5.22759e-19 7.47434e-20 -0.00901382)
(-1.06402e-19 -4.51678e-19 -0.00901639)
(3.08109e-19 -7.4366e-20 -0.00901768)
(-3.35209e-19 -4.40306e-19 -0.00901769)
(3.83444e-19 -1.51441e-19 -0.00901641)
(1.8943e-19 -6.49715e-19 -0.00901387)
(9.92847e-20 -5.67328e-19 -0.00901006)
(-6.44577e-20 -5.17282e-19 -0.00900497)
(-3.79107e-19 -8.01732e-19 -0.00899861)
(-8.98696e-19 -1.04383e-19 -0.00899097)
(-7.29508e-19 3.57323e-20 -0.00898207)
(-1.43676e-19 1.50006e-20 -0.00897191)
(-4.72359e-19 -2.1754e-19 -0.00896052)
(-6.5916e-19 2.15816e-19 -0.00894794)
(3.7861e-19 4.54202e-19 -0.00893415)
(-1.80464e-19 4.03036e-19 -0.0089192)
(6.89367e-20 1.47589e-19 -0.0089031)
(-5.12543e-19 -3.09599e-19 -0.00888588)
(-6.94272e-19 4.7217e-19 -0.00886754)
(2.6415e-19 1.2101e-18 -0.00884814)
(7.98856e-20 -1.90055e-19 -0.00882772)
(2.15959e-19 6.35033e-20 -0.00880631)
(2.76072e-19 -7.45221e-20 -0.00856073)
(-5.08811e-19 -3.17554e-19 -0.00858713)
(-2.93216e-19 -7.65272e-19 -0.00861288)
(-5.07434e-19 -2.6456e-19 -0.00863789)
(-9.35042e-20 -1.25592e-18 -0.00866212)
(-7.25896e-19 1.48735e-20 -0.00868548)
(-3.08595e-19 3.75283e-19 -0.00870794)
(-8.68574e-19 4.2379e-19 -0.00872945)
(-3.54704e-19 7.92405e-19 -0.00874998)
(-1.07189e-18 9.35969e-19 -0.00876948)
(6.53034e-20 -5.50571e-20 -0.00878789)
(-9.59998e-19 2.75696e-19 -0.00880518)
(4.89732e-19 7.66159e-19 -0.00882134)
(-3.27181e-19 3.09105e-19 -0.00883636)
(1.96856e-19 8.97873e-19 -0.00885021)
(2.99292e-19 -1.24026e-19 -0.00886284)
(-4.69818e-19 2.67534e-19 -0.00887426)
(3.55548e-20 7.35227e-19 -0.00888443)
(7.06359e-20 8.17028e-19 -0.00889336)
(2.81765e-19 2.45858e-19 -0.00890104)
(-1.1255e-20 1.7875e-19 -0.00890746)
(2.4758e-20 -1.7759e-19 -0.00891261)
(4.4982e-19 7.72087e-20 -0.00891649)
(-1.18741e-19 -4.58585e-19 -0.00891907)
(2.76409e-19 -6.25472e-20 -0.00892036)
(-4.21111e-19 -4.49817e-19 -0.00892038)
(3.14511e-19 -1.69329e-19 -0.00891909)
(1.89333e-19 -6.50656e-19 -0.00891654)
(8.4065e-20 -5.54273e-19 -0.00891271)
(9.13966e-20 -5.28758e-19 -0.00890758)
(-3.3835e-19 -7.95909e-19 -0.00890118)
(-8.47469e-19 -9.52949e-20 -0.0088935)
(-7.01356e-19 1.1772e-20 -0.00888455)
(-1.01458e-19 -4.26768e-21 -0.00887433)
(-4.04238e-19 -2.38151e-19 -0.00886289)
(-6.56168e-19 1.95115e-19 -0.00885023)
(2.43863e-19 5.14411e-19 -0.00883636)
(-1.33872e-19 4.06354e-19 -0.00882131)
(8.09643e-20 1.49736e-19 -0.00880512)
(-5.29108e-19 -3.05737e-19 -0.00878779)
(-5.33997e-19 4.05536e-19 -0.00876934)
(1.8578e-19 1.29618e-18 -0.00874983)
(1.77155e-19 -2.58064e-19 -0.00872927)
(2.80459e-19 4.20972e-20 -0.00870773)
(3.06882e-19 -3.85952e-20 -0.00845889)
(-5.86556e-19 -3.29238e-19 -0.00848546)
(-2.34209e-19 -7.36057e-19 -0.00851138)
(-4.52727e-19 -2.22587e-19 -0.00853655)
(-1.0683e-19 -1.32548e-18 -0.00856093)
(-6.08795e-19 6.22376e-20 -0.00858445)
(-4.06427e-19 3.12246e-19 -0.00860704)
(-9.86647e-19 3.44596e-19 -0.00862869)
(-2.56612e-19 8.68919e-19 -0.00864935)
(-1.09821e-18 9.65835e-19 -0.00866896)
(1.41461e-19 -4.90561e-20 -0.00868748)
(-8.81563e-19 2.74813e-19 -0.00870489)
(5.66043e-19 7.79594e-19 -0.00872114)
(-4.23174e-19 2.8317e-19 -0.00873625)
(2.21628e-19 8.96565e-19 -0.00875019)
(2.59325e-19 -1.35663e-19 -0.0087629)
(-5.79401e-19 2.32171e-19 -0.00877438)
(-1.04149e-19 6.88527e-19 -0.00878462)
(4.29353e-20 8.29128e-19 -0.0087936)
(1.37504e-19 2.29336e-19 -0.00880132)
(5.79844e-20 1.96347e-19 -0.00880778)
(9.12699e-20 -1.93468e-19 -0.00881296)
(4.09131e-19 8.56481e-20 -0.00881686)
(-7.92311e-20 -4.60293e-19 -0.00881945)
(3.20096e-19 -4.49512e-20 -0.00882076)
(-4.63997e-19 -4.59021e-19 -0.00882077)
(2.43935e-19 -1.92929e-19 -0.00881948)
(1.36987e-19 -6.52849e-19 -0.00881691)
(1.71217e-19 -5.61006e-19 -0.00881306)
(2.57086e-19 -5.39558e-19 -0.0088079)
(-3.12231e-19 -7.79109e-19 -0.00880146)
(-7.62471e-19 -9.36213e-20 -0.00879374)
(-6.2042e-19 -2.49007e-20 -0.00878474)
(-6.06073e-20 -2.21747e-20 -0.00877446)
(-2.59566e-19 -2.80677e-19 -0.00876295)
(-6.17441e-19 1.70838e-19 -0.00875022)
(1.82926e-19 5.51742e-19 -0.00873626)
(-1.23752e-19 4.19401e-19 -0.00872112)
(6.60919e-20 1.58395e-19 -0.00870482)
(-6.55747e-19 -2.61812e-19 -0.00868739)
(-4.48636e-19 3.85913e-19 -0.00866883)
(9.76109e-20 1.39349e-18 -0.00864919)
(3.02753e-19 -3.53725e-19 -0.00862851)
(3.37867e-19 3.26984e-20 -0.00860684)
(-5.62019e-19 -9.65434e-19 -0.00858422)
(2.63564e-19 -7.23068e-20 -0.00835457)
(-5.34062e-19 -2.289e-19 -0.00838133)
(-6.45376e-20 -6.19215e-19 -0.00840742)
(-4.44087e-19 -2.05035e-19 -0.00843276)
(-9.83368e-20 -1.38481e-18 -0.00845729)
(-5.48468e-19 6.69724e-20 -0.00848096)
(-4.23163e-19 3.15946e-19 -0.0085037)
(-1.02e-18 3.1197e-19 -0.00852549)
(-3.19998e-19 8.50727e-19 -0.00854627)
(-1.12755e-18 9.94756e-19 -0.00856601)
(3.53102e-19 1.86635e-20 -0.00858464)
(-9.32718e-19 2.12812e-19 -0.00860216)
(6.54113e-19 8.07049e-19 -0.00861852)
(-5.10491e-19 2.7216e-19 -0.00863372)
(2.23495e-19 8.82348e-19 -0.00864774)
(1.89286e-19 -1.53904e-19 -0.00866053)
(-5.85264e-19 2.30342e-19 -0.00867208)
(-3.47659e-19 6.17371e-19 -0.00868238)
(-4.55429e-20 8.2769e-19 -0.00869142)
(1.65253e-19 2.3009e-19 -0.00869918)
(2.06805e-19 2.1737e-19 -0.00870568)
(1.33749e-20 -2.13966e-19 -0.0087109)
(4.15981e-19 9.7116e-20 -0.00871482)
(-5.77919e-20 -4.71751e-19 -0.00871743)
(3.58962e-19 -2.42884e-20 -0.00871874)
(-3.71696e-19 -4.63671e-19 -0.00871876)
(1.91877e-19 -2.12784e-19 -0.00871746)
(4.73777e-20 -6.58e-19 -0.00871487)
(2.28386e-19 -5.69298e-19 -0.008711)
(2.41286e-19 -5.21098e-19 -0.0087058)
(-3.37658e-19 -7.55177e-19 -0.00869933)
(-6.54155e-19 -9.87463e-20 -0.00869156)
(-5.51353e-19 -5.70841e-20 -0.0086825)
(-7.46439e-20 -3.15111e-20 -0.00867217)
(-2.20859e-19 -2.9148e-19 -0.00866059)
(-6.26756e-19 1.69504e-19 -0.00864778)
(1.8769e-19 5.64805e-19 -0.00863374)
(-5.71952e-20 4.13111e-19 -0.0086185)
(2.25135e-19 1.04901e-19 -0.0086021)
(-9.08658e-19 -1.53876e-19 -0.00858456)
(-5.46284e-19 4.51514e-19 -0.00856587)
(1.37017e-19 1.41263e-18 -0.00854611)
(3.24282e-19 -3.899e-19 -0.0085253)
(3.23179e-19 8.00271e-20 -0.00850349)
(-6.14122e-19 -9.52568e-19 -0.00848073)
(1.75141e-19 -1.51102e-19 -0.00824765)
(-4.24265e-19 -9.16217e-20 -0.0082746)
(1.60403e-19 -4.45775e-19 -0.00830086)
(-4.88108e-19 -2.18559e-19 -0.00832637)
(-4.50689e-21 -1.38262e-18 -0.00835107)
(-7.03814e-19 -7.37347e-20 -0.00837489)
(-5.16236e-19 2.65193e-19 -0.00839778)
(-1.01761e-18 3.08964e-19 -0.00841971)
(-4.98034e-19 7.72857e-19 -0.00844063)
(-1.09901e-18 1.03486e-18 -0.00846049)
(5.73567e-19 9.55274e-20 -0.00847924)
(-9.61235e-19 1.71312e-19 -0.00849686)
(5.01681e-19 7.29525e-19 -0.00851333)
(-4.04971e-19 3.30849e-19 -0.00852863)
(3.2532e-19 9.06365e-19 -0.00854274)
(9.95279e-20 -1.79933e-19 -0.00855561)
(-4.38189e-19 2.76371e-19 -0.00856723)
(-4.91013e-19 5.74064e-19 -0.0085776)
(-3.62806e-20 8.27762e-19 -0.00858669)
(3.01887e-19 2.44195e-19 -0.0085945)
(2.21336e-19 2.35008e-19 -0.00860104)
(-2.03931e-19 -2.5194e-19 -0.00860629)
(4.5242e-19 1.05576e-19 -0.00861023)
(-4.15414e-20 -4.7684e-19 -0.00861286)
(3.06679e-19 -1.07164e-20 -0.00861418)
(-2.58503e-19 -4.69255e-19 -0.00861419)
(1.52718e-19 -2.27056e-19 -0.00861289)
(3.58795e-20 -6.71582e-19 -0.00861028)
(2.14686e-19 -5.69104e-19 -0.00860639)
(1.96178e-19 -4.94673e-19 -0.00860116)
(-3.86206e-19 -7.33421e-19 -0.00859465)
(-5.85354e-19 -9.93508e-20 -0.00858683)
(-4.54947e-19 -9.12855e-20 -0.00857772)
(-1.98618e-19 -3.48241e-21 -0.00856732)
(-3.71163e-19 -2.44592e-19 -0.00855567)
(-7.87225e-19 2.13369e-19 -0.00854278)
(4.64273e-20 6.27298e-19 -0.00852865)
(-3.35974e-21 3.97885e-19 -0.00851332)
(3.78795e-19 6.3158e-20 -0.00849681)
(-9.74858e-19 -1.19728e-19 -0.00847915)
(-6.35788e-19 5.00116e-19 -0.00846035)
(2.7272e-19 1.37514e-18 -0.00844046)
(3.56104e-19 -4.25106e-19 -0.00841951)
(3.66991e-19 8.8418e-20 -0.00839756)
(-5.39602e-19 -1.02871e-18 -0.00837466)
(6.17341e-20 -2.52253e-19 -0.008138)
(-3.97592e-19 -4.34473e-20 -0.00816514)
(3.34264e-19 -3.09586e-19 -0.00819158)
(-4.58879e-19 -1.66385e-19 -0.00821726)
(6.24602e-20 -1.39087e-18 -0.00824212)
(-8.75618e-19 -2.15787e-19 -0.0082661)
(-6.27563e-19 1.95168e-19 -0.00828914)
(-1.15068e-18 2.23089e-19 -0.00831121)
(-5.60304e-19 7.52126e-19 -0.00833227)
(-1.05034e-18 1.07471e-18 -0.00835226)
(6.20694e-19 8.85797e-20 -0.00837113)
(-8.38395e-19 2.11988e-19 -0.00838887)
(3.05446e-19 6.31663e-19 -0.00840544)
(-1.91402e-19 4.14988e-19 -0.00842083)
(4.27341e-19 9.40806e-19 -0.00843504)
(5.63858e-20 -1.93506e-19 -0.008448)
(-2.06389e-19 3.41684e-19 -0.00845969)
(-5.17641e-19 5.62012e-19 -0.00847012)
(4.64958e-20 8.4039e-19 -0.00847927)
(2.68139e-19 2.32365e-19 -0.00848713)
(1.67652e-19 2.5174e-19 -0.00849371)
(-2.73952e-19 -2.74495e-19 -0.00849899)
(4.84134e-19 1.03979e-19 -0.00850296)
(3.74198e-20 -4.7966e-19 -0.00850561)
(2.84874e-19 4.88171e-21 -0.00850694)
(-2.15865e-19 -4.73994e-19 -0.00850695)
(1.05163e-19 -2.39619e-19 -0.00850563)
(3.36591e-20 -6.86161e-19 -0.00850302)
(1.1036e-19 -5.56564e-19 -0.0084991)
(1.88351e-19 -4.71948e-19 -0.00849383)
(-3.3934e-19 -7.28842e-19 -0.00848727)
(-5.78166e-19 -9.36931e-20 -0.00847941)
(-3.99632e-19 -1.09294e-19 -0.00847025)
(-3.29675e-19 3.57722e-20 -0.00845979)
(-4.50315e-19 -2.17508e-19 -0.00844807)
(-9.97817e-19 2.77197e-19 -0.00843509)
(-1.74379e-19 7.0767e-19 -0.00842087)
(-3.03965e-21 3.97304e-19 -0.00840543)
(2.90621e-19 1.28979e-19 -0.00838882)
(-8.67472e-19 -1.65967e-19 -0.00837104)
(-7.04936e-19 5.34909e-19 -0.00835212)
(3.30322e-19 1.37357e-18 -0.0083321)
(4.9015e-19 -5.22758e-19 -0.00831101)
(4.40887e-19 7.77756e-20 -0.00828892)
(-4.81955e-19 -1.08566e-18 -0.00826586)
(-1.00535e-19 -3.89171e-19 -0.00802547)
(-4.40269e-19 -6.9463e-20 -0.00805279)
(4.48587e-19 -2.28465e-19 -0.00807942)
(-3.28967e-19 -2.83189e-20 -0.00810527)
(7.84674e-20 -1.42861e-18 -0.0081303)
(-9.1289e-19 -2.61877e-19 -0.00815444)
(-6.7527e-19 1.69771e-19 -0.00817763)
(-1.27967e-18 1.36121e-19 -0.00819986)
(-5.91538e-19 7.39918e-19 -0.00822105)
(-1.04013e-18 1.09715e-18 -0.00824117)
(5.19558e-19 4.47409e-21 -0.00826016)
(-7.32118e-19 2.4744e-19 -0.00827802)
(1.49778e-19 5.46654e-19 -0.0082947)
(-3.96784e-20 4.70491e-19 -0.00831019)
(3.29427e-19 9.1721e-19 -0.0083245)
(5.11597e-20 -2.02864e-19 -0.00833754)
(3.26242e-20 4.10595e-19 -0.00834931)
(-5.70272e-19 5.48795e-19 -0.00835981)
(1.18604e-19 8.51163e-19 -0.00836902)
(1.13668e-19 2.04287e-19 -0.00837693)
(1.32915e-19 2.65729e-19 -0.00838354)
(-2.5606e-19 -2.94293e-19 -0.00838886)
(5.34556e-19 1.03769e-19 -0.00839286)
(7.17576e-20 -4.8038e-19 -0.00839552)
(2.9324e-19 2.38095e-20 -0.00839685)
(-2.08725e-19 -4.76121e-19 -0.00839687)
(1.20109e-19 -2.53399e-19 -0.00839555)
(1.50971e-20 -6.96146e-19 -0.00839291)
(-3.04389e-20 -5.4125e-19 -0.00838896)
(2.45796e-19 -4.66118e-19 -0.00838366)
(-1.97057e-19 -7.40045e-19 -0.00837707)
(-5.4603e-19 -8.75542e-20 -0.00836915)
(-4.28153e-19 -1.06354e-19 -0.00835993)
(-3.77225e-19 5.29283e-20 -0.00834941)
(-4.03077e-19 -2.23892e-19 -0.00833761)
(-9.95595e-19 2.75036e-19 -0.00832455)
(-3.18382e-19 7.54853e-19 -0.00831024)
(-3.80839e-20 4.09501e-19 -0.0082947)
(1.52086e-19 2.09566e-19 -0.00827798)
(-7.41076e-19 -2.26684e-19 -0.00826008)
(-7.33136e-19 5.5504e-19 -0.00824103)
(3.69431e-19 1.37175e-18 -0.00822087)
(6.09873e-19 -6.14312e-19 -0.00819965)
(4.33387e-19 1.29619e-19 -0.00817741)
(-1.39296e-19 -3.99265e-19 -0.0079099)
(-3.90924e-19 -2.84474e-20 -0.00793742)
(5.22965e-19 -1.91748e-19 -0.00796423)
(-2.27798e-19 9.54221e-20 -0.00799025)
(9.82425e-20 -1.45562e-18 -0.00801545)
(-9.88608e-19 -3.34594e-19 -0.00803976)
(-6.61693e-19 1.8782e-19 -0.00806311)
(-1.27452e-18 1.30845e-19 -0.00808548)
(-7.76258e-19 6.37211e-19 -0.00810681)
(-9.85593e-19 1.14454e-18 -0.00812706)
(4.02643e-19 -8.99605e-20 -0.00814618)
(-7.06128e-19 2.48751e-19 -0.00816416)
(8.88471e-21 4.68078e-19 -0.00818096)
(-2.4267e-20 4.775e-19 -0.00819655)
(7.9153e-20 8.4654e-19 -0.00821095)
(3.12119e-20 -2.33057e-19 -0.00822407)
(1.44259e-19 4.45467e-19 -0.00823592)
(-6.72672e-19 5.28733e-19 -0.00824649)
(1.99745e-19 8.67622e-19 -0.00825576)
(-7.32476e-20 1.71874e-19 -0.00826372)
(1.53499e-19 2.82396e-19 -0.00827038)
(-2.47392e-19 -3.15702e-19 -0.00827573)
(5.13392e-19 9.65202e-20 -0.00827975)
(7.03511e-20 -4.83725e-19 -0.00828243)
(3.40166e-19 4.44218e-20 -0.00828378)
(-1.70697e-19 -4.80664e-19 -0.00828379)
(2.12738e-19 -2.70188e-19 -0.00828246)
(-3.03128e-20 -6.97662e-19 -0.00827981)
(-1.16498e-19 -5.34801e-19 -0.00827584)
(3.40058e-19 -4.72983e-19 -0.0082705)
(-4.38309e-20 -7.51542e-19 -0.00826386)
(-5.12318e-19 -7.59501e-20 -0.0082559)
(-3.81452e-19 -1.17689e-19 -0.00824662)
(-3.64795e-19 4.91843e-20 -0.00823603)
(-2.35242e-19 -2.74028e-19 -0.00822416)
(-7.75466e-19 2.06785e-19 -0.00821101)
(-2.77552e-19 7.38927e-19 -0.0081966)
(-1.08034e-20 3.98596e-19 -0.00818096)
(1.63547e-19 2.20078e-19 -0.00816412)
(-6.60642e-19 -2.69013e-19 -0.0081461)
(-7.87038e-19 5.8786e-19 -0.00812692)
(4.86423e-19 1.32181e-18 -0.00810663)
(6.07409e-19 -6.27334e-19 -0.00808527)
(4.35396e-19 1.80857e-19 -0.00806288)
(2.67378e-20 -2.27746e-19 -0.00779112)
(-2.01892e-19 1.39866e-19 -0.00781884)
(5.10035e-19 -2.22322e-19 -0.00784584)
(-2.95662e-19 8.90343e-20 -0.00787204)
(1.62498e-19 -1.44226e-18 -0.0078974)
(-1.11731e-18 -4.46484e-19 -0.00792188)
(-5.99839e-19 2.26475e-19 -0.00794539)
(-1.26356e-18 1.43308e-19 -0.00796791)
(-9.72991e-19 5.24797e-19 -0.00798939)
(-8.40857e-19 1.23057e-18 -0.00800976)
(4.09276e-19 -1.22215e-19 -0.00802901)
(-7.31917e-19 2.27495e-19 -0.00804711)
(3.92621e-20 4.58729e-19 -0.00806403)
(3.5586e-20 5.0695e-19 -0.00807972)
(-7.57947e-20 8.10252e-19 -0.00809422)
(6.64223e-20 -2.56663e-19 -0.00810744)
(7.61269e-20 4.35658e-19 -0.00811936)
(-8.3883e-19 4.89486e-19 -0.00813001)
(2.97753e-19 8.86983e-19 -0.00813933)
(-1.73264e-19 1.56177e-19 -0.00814735)
(2.32991e-19 3.0055e-19 -0.00815404)
(-2.08698e-19 -3.32375e-19 -0.00815943)
(4.62584e-19 8.86763e-20 -0.00816348)
(1.05946e-19 -4.8825e-19 -0.00816618)
(3.99345e-19 6.39146e-20 -0.00816753)
(-6.11803e-20 -4.86639e-19 -0.00816754)
(2.57356e-19 -2.79166e-19 -0.00816621)
(-4.62788e-20 -6.95889e-19 -0.00816354)
(-1.63138e-19 -5.3803e-19 -0.00815954)
(4.0161e-19 -4.80962e-19 -0.00815416)
(6.11357e-20 -7.51447e-19 -0.00814748)
(-4.87988e-19 -6.08003e-20 -0.00813947)
(-2.54286e-19 -1.50163e-19 -0.00813013)
(-2.79726e-19 2.20742e-20 -0.00811947)
(-1.33344e-19 -3.11212e-19 -0.00810752)
(-5.5728e-19 1.41273e-19 -0.00809429)
(-1.89661e-19 7.11791e-19 -0.00807979)
(-2.68857e-20 4.04753e-19 -0.00806403)
(3.41208e-19 1.57451e-19 -0.00804708)
(-6.60695e-19 -2.65392e-19 -0.00802894)
(-9.14008e-19 6.54455e-19 -0.00800963)
(5.93701e-19 1.27435e-18 -0.0079892)
(5.70902e-19 -6.16041e-19 -0.00796769)
(4.74961e-19 2.0164e-19 -0.00794516)
(2.03654e-19 -6.88092e-20 -0.00766898)
(-9.64763e-20 2.48707e-19 -0.00769689)
(4.69966e-19 -2.57556e-19 -0.00772407)
(-4.59256e-19 4.27563e-21 -0.00775046)
(2.71071e-19 -1.39757e-18 -0.00777599)
(-1.17097e-18 -5.06514e-19 -0.00780063)
(-5.71577e-19 2.41052e-19 -0.0078243)
(-1.36099e-18 9.65812e-20 -0.00784697)
(-1.01876e-18 4.84618e-19 -0.00786859)
(-7.61764e-19 1.27349e-18 -0.00788911)
(4.89193e-19 -1.11035e-19 -0.00790848)
(-7.40858e-19 2.11949e-19 -0.00792671)
(1.63955e-19 4.80195e-19 -0.00794374)
(1.57906e-19 5.67213e-19 -0.00795954)
(-4.66634e-20 8.38737e-19 -0.00797413)
(1.66099e-19 -2.59678e-19 -0.00798744)
(-4.15355e-20 4.21196e-19 -0.00799945)
(-8.96525e-19 4.68299e-19 -0.00801016)
(3.12803e-19 8.83123e-19 -0.00801955)
(-1.77582e-19 1.5522e-19 -0.00802762)
(2.89073e-19 3.13917e-19 -0.00803436)
(-1.74686e-19 -3.44365e-19 -0.00803978)
(4.12072e-19 7.90908e-20 -0.00804386)
(1.45817e-19 -4.96452e-19 -0.00804657)
(4.16278e-19 8.14853e-20 -0.00804793)
(7.43114e-20 -4.90906e-19 -0.00804795)
(2.62905e-19 -2.82552e-19 -0.0080466)
(-3.73679e-20 -6.94841e-19 -0.00804392)
(-1.94156e-19 -5.4241e-19 -0.00803989)
(3.83849e-19 -4.79739e-19 -0.00803448)
(6.69718e-20 -7.3325e-19 -0.00802775)
(-4.5539e-19 -4.95573e-20 -0.00801968)
(-2.41612e-19 -1.57791e-19 -0.00801029)
(-2.41052e-19 1.13983e-20 -0.00799956)
(-1.16282e-19 -3.2505e-19 -0.00798753)
(-4.53037e-19 1.13092e-19 -0.00797421)
(-2.04246e-19 7.31942e-19 -0.00795961)
(-1.28855e-19 4.38349e-19 -0.00794375)
(4.99261e-19 1.02962e-19 -0.00792668)
(-7.84202e-19 -1.88161e-19 -0.00790841)
(-9.72465e-19 6.78323e-19 -0.00788897)
(6.42597e-19 1.25033e-18 -0.00786841)
(5.75741e-19 -6.28672e-19 -0.00784675)
(4.58649e-19 2.5512e-19 -0.00782406)
(2.94926e-19 3.88984e-21 -0.00754327)
(-1.62583e-19 2.10746e-19 -0.00757139)
(4.68771e-19 -2.54045e-19 -0.00759876)
(-5.38548e-19 -1.82318e-20 -0.00762532)
(4.26634e-19 -1.324e-18 -0.00765102)
(-1.14765e-18 -5.09197e-19 -0.00767582)
(-6.48776e-19 1.91183e-19 -0.00769965)
(-1.40631e-18 8.15245e-20 -0.00772248)
(-1.00117e-18 4.73261e-19 -0.00774424)
(-8.20229e-19 1.24151e-18 -0.00776489)
(5.20483e-19 -1.25804e-19 -0.0077844)
(-6.91237e-19 2.21259e-19 -0.00780275)
(2.05418e-19 4.6316e-19 -0.00781989)
(1.20687e-19 5.68204e-19 -0.0078358)
(7.75881e-20 9.0167e-19 -0.00785049)
(2.31804e-19 -2.68014e-19 -0.00786389)
(-1.19448e-19 4.18807e-19 -0.00787598)
(-7.31045e-19 4.97331e-19 -0.00788677)
(2.7851e-19 8.68991e-19 -0.00789622)
(-1.57965e-19 1.56311e-19 -0.00790435)
(2.20574e-19 3.09024e-19 -0.00791112)
(-1.03837e-19 -3.51967e-19 -0.00791658)
(4.18286e-19 7.46569e-20 -0.00792069)
(1.44734e-19 -5.06899e-19 -0.00792342)
(3.54456e-19 9.50125e-20 -0.00792479)
(1.57213e-19 -4.94605e-19 -0.0079248)
(2.61029e-19 -2.79368e-19 -0.00792345)
(-6.87962e-20 -6.88142e-19 -0.00792076)
(-2.40258e-19 -5.44357e-19 -0.00791669)
(3.10719e-19 -4.69912e-19 -0.00791124)
(-6.77373e-21 -7.03402e-19 -0.00790447)
(-4.44772e-19 -3.11886e-20 -0.00789635)
(-3.66908e-19 -1.3207e-19 -0.00788689)
(-2.60078e-19 1.03378e-20 -0.0078761)
(-8.14287e-20 -3.47155e-19 -0.00786399)
(-4.44902e-19 1.21083e-19 -0.00785057)
(-1.59741e-19 7.35291e-19 -0.00783588)
(-2.02418e-19 4.54398e-19 -0.00781991)
(5.04042e-19 1.19943e-19 -0.00780272)
(-1.0004e-18 -6.46128e-20 -0.00778433)
(-8.75415e-19 6.12278e-19 -0.00776476)
(6.83676e-19 1.22968e-18 -0.00774406)
(5.54367e-19 -6.21236e-19 -0.00772226)
(4.91381e-19 2.80514e-19 -0.00769941)
(3.44626e-19 3.97733e-20 -0.00741382)
(-2.12011e-19 1.8983e-19 -0.00744214)
(4.65911e-19 -2.56695e-19 -0.00746968)
(-4.67646e-19 7.24846e-20 -0.00749642)
(5.99567e-19 -1.2406e-18 -0.00752229)
(-1.02435e-18 -4.29574e-19 -0.00754726)
(-7.88507e-19 1.01398e-19 -0.00757124)
(-1.26884e-18 1.69215e-19 -0.00759422)
(-8.95838e-19 5.12331e-19 -0.00761613)
(-9.20775e-19 1.18662e-18 -0.00763691)
(5.47595e-19 -1.47915e-19 -0.00765655)
(-6.08813e-19 2.45638e-19 -0.00767503)
(2.07382e-19 4.37834e-19 -0.00769229)
(-7.19239e-20 5.07359e-19 -0.0077083)
(1.93925e-19 9.56716e-19 -0.00772309)
(2.19788e-19 -2.94981e-19 -0.00773659)
(-1.63661e-19 4.18024e-19 -0.00774876)
(-5.6039e-19 5.25526e-19 -0.00775962)
(2.76717e-19 8.67855e-19 -0.00776914)
(-1.98832e-19 1.49605e-19 -0.00777731)
(1.01774e-19 2.9516e-19 -0.00778413)
(-2.16094e-20 -3.63526e-19 -0.00778963)
(4.31968e-19 7.35519e-20 -0.00779376)
(1.33818e-19 -5.13764e-19 -0.00779651)
(2.35054e-19 1.06855e-19 -0.00779789)
(1.65143e-19 -4.99117e-19 -0.0077979)
(2.15891e-19 -2.70512e-19 -0.00779655)
(-5.97576e-20 -6.82554e-19 -0.00779383)
(-2.85194e-19 -5.44901e-19 -0.00778974)
(2.73862e-19 -4.62708e-19 -0.00778426)
(-5.7577e-20 -6.78609e-19 -0.00777744)
(-4.46745e-19 -9.12633e-21 -0.00776926)
(-3.82002e-19 -1.33041e-19 -0.00775974)
(-2.5464e-19 -2.83862e-21 -0.00774888)
(-4.9273e-20 -3.68257e-19 -0.00773669)
(-5.6662e-19 1.69306e-19 -0.00772318)
(-4.12114e-21 6.99013e-19 -0.00770839)
(-2.38688e-19 4.62426e-19 -0.00769231)
(4.07499e-19 1.89827e-19 -0.00767501)
(-1.1764e-18 3.27771e-20 -0.00765649)
(-7.22759e-19 5.03557e-19 -0.00763679)
(6.51194e-19 1.25531e-18 -0.00761595)
(4.69752e-19 -5.79266e-19 -0.007594)
(6.22206e-19 2.44218e-19 -0.007571)
(3.62118e-19 4.01772e-20 -0.00728042)
(-1.3107e-19 2.87328e-19 -0.00730892)
(4.10999e-19 -3.07621e-19 -0.00733665)
(-2.94124e-19 2.37426e-19 -0.00736356)
(7.69147e-19 -1.16053e-18 -0.00738959)
(-8.44889e-19 -2.9985e-19 -0.00741473)
(-8.18113e-19 8.01213e-20 -0.00743887)
(-1.09374e-18 2.67583e-19 -0.007462)
(-7.22386e-19 5.99821e-19 -0.00748405)
(-1.08417e-18 1.10224e-18 -0.00750496)
(5.87653e-19 -1.72474e-19 -0.00752473)
(-5.28255e-19 2.70837e-19 -0.00754333)
(2.02855e-19 4.1827e-19 -0.00756071)
(-1.19703e-19 4.97032e-19 -0.00757683)
(2.81052e-19 9.9897e-19 -0.00759171)
(1.63456e-19 -3.32281e-19 -0.00760531)
(-1.59687e-19 4.24845e-19 -0.00761755)
(-5.51422e-19 5.12355e-19 -0.00762849)
(2.76485e-19 8.71329e-19 -0.00763807)
(-2.03365e-19 1.52386e-19 -0.0076463)
(4.21982e-20 2.83665e-19 -0.00765317)
(6.68247e-20 -3.77832e-19 -0.00765869)
(3.7238e-19 6.91627e-20 -0.00766286)
(1.38298e-19 -5.15816e-19 -0.00766563)
(1.48196e-19 1.20199e-19 -0.00766702)
(1.46099e-19 -5.04452e-19 -0.00766703)
(1.34369e-19 -2.60266e-19 -0.00766566)
(1.64873e-20 -6.81895e-19 -0.00766293)
(-3.17346e-19 -5.45443e-19 -0.0076588)
(2.95904e-19 -4.64173e-19 -0.00765329)
(-3.26289e-20 -6.65777e-19 -0.00764642)
(-4.13624e-19 3.62402e-21 -0.00763819)
(-2.97036e-19 -1.5923e-19 -0.00762861)
(-2.29132e-19 -2.09299e-20 -0.00761768)
(-1.44127e-21 -3.86637e-19 -0.00760542)
(-7.87029e-19 2.47384e-19 -0.00759181)
(7.60983e-21 7.09861e-19 -0.00757692)
(-2.64676e-19 4.74619e-19 -0.00756073)
(3.09012e-19 2.642e-19 -0.00754331)
(-1.14164e-18 1.75488e-20 -0.00752467)
(-5.43148e-19 3.78901e-19 -0.00750484)
(5.29923e-19 1.33823e-18 -0.00748386)
(3.94504e-19 -5.51342e-19 -0.00746177)
(6.33508e-19 2.86418e-19 -0.00743862)
(3.83436e-19 3.45383e-20 -0.00714285)
(-4.14812e-20 3.96969e-19 -0.00717154)
(3.27219e-19 -3.838e-19 -0.00719945)
(-1.25952e-19 3.87259e-19 -0.00722653)
(9.55218e-19 -1.06597e-18 -0.00725272)
(-6.75733e-19 -1.72007e-19 -0.007278)
(-7.18152e-19 1.45806e-19 -0.0073023)
(-1.02246e-18 2.96826e-19 -0.00732557)
(-6.58269e-19 6.34576e-19 -0.00734776)
(-1.24583e-18 1.02266e-18 -0.00736881)
(5.79108e-19 -2.30783e-19 -0.0073887)
(-5.17136e-19 2.66231e-19 -0.00740742)
(1.78736e-19 3.90278e-19 -0.00742492)