/*--------------------------------*- C++ -*----------------------------------*\
  =========                 |
  \\      /  F ield         | OpenFOAM: The Open Source CFD Toolbox
   \\    /   O peration     | Website:  https://openfoam.org
    \\  /    A nd           | Version:  7
     \\/     M anipulation  |
\*---------------------------------------------------------------------------*/
FoamFile
{
    version     2.0;
    format      ascii;
    class       surfaceScalarField;
    location    "4000";
    object      phi;
}
// * * * * * * * * * * * * * * * * * * * * * * * * * * * * * * * * * * * * * //

dimensions      [0 3 -1 0 0 0 0];

internalField   nonuniform List<scalar> 
9540
(
-3.07649e-24
1.54126e-24
1.75738e-24
2.22432e-24
-2.65134e-24
1.40447e-24
2.49934e-24
-1.5967e-24
2.63764e-24
1.36774e-24
-2.40403e-24
1.25303e-24
1.60244e-24
-2.04984e-24
1.92722e-24
-1.71233e-24
1.19194e-24
-1.56826e-24
2.16058e-24
2.52335e-24
-2.08085e-24
1.68766e-24
1.36517e-24
-2.07304e-24
1.56451e-24
-1.60824e-24
1.56348e-24
-1.66926e-24
2.79569e-24
-8.50639e-25
3.45063e-24
4.23907e-24
-2.13686e-24
2.62142e-24
1.12053e-24
-1.94257e-24
1.78266e-24
-1.37423e-24
4.04187e-26
-1.49914e-24
2.88993e-24
-2.1312e-25
4.04727e-24
-4.24045e-25
4.5206e-24
7.43476e-24
-2.54934e-24
-3.40829e-24
4.97004e-25
-2.26222e-24
1.87404e-24
-1.05305e-24
3.76347e-24
-7.98225e-25
2.43101e-24
-3.97462e-25
4.04425e-24
3.07263e-25
5.71422e-24
-5.46e-25
6.02807e-24
-1.24818e-24
6.46939e-24
4.71817e-24
-1.44991e-24
8.86677e-25
2.06189e-24
-1.60791e-24
1.78205e-24
-1.64365e-24
3.74911e-24
-4.78581e-25
3.50929e-24
1.84421e-25
3.53219e-24
2.01592e-25
4.09199e-24
-3.10391e-25
4.39622e-24
-1.85658e-24
3.37231e-24
-2.59792e-24
4.46157e-24
5.35387e-24
-9.5165e-25
3.91601e-24
2.82205e-24
-1.34133e-24
3.8585e-24
-1.60868e-24
2.70838e-24
-5.46448e-25
2.60674e-24
3.10464e-25
4.59532e-24
2.40555e-25
4.2125e-24
-7.36577e-25
4.66429e-24
-1.7178e-24
3.45786e-24
-2.10907e-24
3.65122e-24
-1.71794e-24
4.05563e-24
-1.8874e-24
3.94888e-24
-1.82013e-24
2.27648e-24
-1.0878e-24
1.23326e-24
-8.40079e-25
-1.00437e-24
4.67182e-24
2.45568e-24
-1.59383e-24
2.6736e-24
-1.59057e-24
2.99053e-24
-4.70919e-25
2.9679e-24
1.48973e-25
3.8094e-24
2.43708e-25
4.75671e-24
-1.27752e-24
5.75499e-24
-1.59423e-24
3.15107e-24
-2.09247e-24
1.94386e-24
-1.6758e-24
3.05558e-24
-1.99515e-24
3.34011e-24
-2.31296e-24
2.90802e-24
-1.47842e-24
4.99595e-24
-2.65127e-24
2.04531e-24
-3.82729e-24
2.82365e-24
-4.28883e-24
1.56078e-24
-4.19185e-24
1.83005e-24
4.92712e-25
-1.22608e-24
4.09123e-24
2.13414e-24
-1.4707e-24
3.43665e-24
-1.63286e-24
3.03385e-24
-3.6849e-25
3.77231e-24
1.0542e-25
4.01664e-24
4.49102e-25
4.58378e-24
-1.76152e-24
6.99925e-25
-1.57232e-24
2.49798e-24
-1.83474e-24
1.82157e-24
-1.81731e-24
2.20816e-24
-2.21981e-24
2.55978e-24
-2.06376e-24
1.61286e-24
-2.09864e-24
4.38697e-24
-2.30061e-24
3.37279e-24
-3.69426e-24
2.89987e-24
-4.14889e-24
1.92549e-24
-4.47312e-24
2.05757e-24
-3.57948e-24
3.76141e-25
-2.56558e-24
-2.01856e-24
-1.98617e-24
-1.48519e-24
3.62084e-24
2.05656e-24
-1.37959e-24
3.98291e-24
-1.43302e-24
3.60251e-24
-3.8805e-25
3.61745e-24
2.66174e-25
2.87347e-24
-6.48213e-25
1.17246e-24
-1.3992e-24
1.0787e-25
-1.63525e-24
9.21447e-25
-1.68929e-24
9.23462e-25
-1.55708e-24
1.21327e-24
-2.37317e-24
2.45824e-24
-1.28097e-24
2.99066e-25
-2.34043e-24
4.69042e-25
-2.45976e-24
1.02444e-24
-3.6214e-24
2.38009e-24
-3.96902e-24
1.64646e-24
-4.86503e-24
2.66076e-24
-3.91276e-24
8.64917e-26
-2.62373e-24
-2.35938e-24
-2.88633e-24
-1.79748e-24
-2.86591e-24
-3.86462e-26
-3.50713e-24
-1.64794e-24
-4.71301e-24
-3.06687e-24
-3.55013e-24
-1.48758e-24
3.39517e-24
2.19094e-24
-1.37994e-24
4.15768e-24
-1.64627e-24
4.20124e-24
-6.42023e-25
3.36676e-24
7.47075e-26
2.50739e-24
-6.91471e-25
3.94537e-24
-1.05431e-24
-1.40817e-25
-1.57318e-24
1.10592e-24
-1.78539e-24
4.4512e-25
-1.38184e-24
7.03366e-25
-2.97677e-24
-7.50256e-25
-1.30345e-24
1.23173e-24
-2.16628e-24
8.35307e-25
-2.4273e-24
5.45239e-25
-3.67539e-24
3.04732e-24
-3.80452e-24
1.62925e-24
-5.17515e-24
-3.91092e-25
-4.21478e-24
1.03264e-25
-2.50021e-24
5.92388e-25
-2.29759e-24
6.1741e-24
-3.23944e-24
1.19068e-24
-3.56212e-24
-9.63628e-25
-4.66615e-24
-1.30306e-24
-3.32977e-24
-1.76538e-26
-6.174e-24
-9.92014e-26
-9.87553e-24
2.22429e-24
-9.93754e-24
1.0455e-24
-8.33661e-24
1.38703e-24
-1.01178e-24
-1.14357e-24
3.23027e-24
1.88546e-24
-1.15767e-24
4.37598e-24
-1.67442e-24
3.11543e-24
-1.03839e-24
3.06298e-24
2.11251e-25
6.13293e-24
-1.38605e-24
5.70066e-24
-1.03591e-24
3.52177e-24
-1.80343e-24
1.61058e-24
-1.50981e-24
1.74972e-24
-1.74492e-24
9.00026e-25
-2.4951e-24
-6.52604e-25
-1.52562e-24
1.06597e-24
-2.25994e-24
-3.10808e-25
-1.91421e-24
-1.14891e-24
-3.75822e-24
1.49432e-25
-3.90797e-24
3.92707e-24
-5.12493e-24
3.80508e-25
-4.00952e-24
3.64448e-24
-1.24001e-24
2.45435e-24
-3.12351e-24
3.94967e-25
-3.58872e-24
1.51802e-24
-3.33981e-24
3.56875e-24
-4.16711e-24
4.60401e-25
-3.25794e-24
8.41449e-25
-5.60748e-24
1.18051e-24
-9.71414e-24
3.7116e-25
-9.61681e-24
1.29557e-24
-8.58711e-24
1.95916e-24
-9.98508e-24
1.20775e-24
-1.19201e-23
-8.8764e-26
-1.30733e-23
-3.07862e-24
-1.11032e-23
-1.03704e-24
4.47798e-24
1.62628e-24
-1.23332e-24
2.39383e-25
-1.652e-24
3.288e-24
-2.45139e-25
6.29297e-24
-1.20489e-25
6.1799e-24
-1.76239e-24
2.52585e-24
-1.15286e-24
1.13775e-24
-1.49486e-24
2.06451e-24
-1.88113e-24
7.89804e-25
-1.7906e-24
6.48006e-25
-2.06804e-24
4.82495e-25
-1.9242e-24
1.64273e-24
-2.22235e-24
3.8827e-25
-1.56051e-24
4.93052e-26
-3.22462e-24
-2.90943e-24
-4.2856e-24
3.48345e-25
-4.43274e-24
3.24634e-25
-3.9732e-24
3.62338e-24
-1.60121e-24
4.9032e-24
-2.90031e-24
2.20351e-24
-3.15935e-24
1.51528e-24
-3.94879e-24
4.83473e-24
-3.8577e-24
1.49254e-24
-3.04507e-24
8.654e-25
-5.3867e-24
1.48252e-24
-9.24926e-24
3.19994e-24
-9.45372e-24
1.86577e-24
-8.29954e-24
5.603e-24
-1.00504e-23
3.56737e-24
-1.20272e-23
1.04069e-24
-1.45485e-23
-1.64135e-24
-1.58373e-23
-4.30489e-24
-1.99572e-23
-2.20771e-23
-3.85179e-23
-1.63466e-24
5.35807e-24
1.48215e-24
-8.22306e-25
4.36324e-24
-1.36757e-24
3.38722e-24
-1.49002e-25
4.95326e-24
-7.42854e-25
2.97065e-24
-1.66726e-24
1.74829e-24
-9.96111e-25
2.55144e-24
-1.7551e-24
4.73597e-25
-1.89844e-24
6.30958e-25
-1.77698e-24
3.72474e-25
-1.80758e-24
2.09534e-24
-1.98577e-24
3.56553e-24
-2.2904e-24
1.06985e-24
-2.04298e-24
-4.79145e-25
-2.70523e-24
-2.69497e-24
-4.00046e-24
1.11372e-24
-4.02367e-24
1.22219e-25
-3.59215e-24
3.90528e-24
-2.42934e-24
3.65733e-24
-2.74571e-24
2.38228e-24
-2.45261e-24
1.15359e-24
-4.40109e-24
3.61442e-25
-3.75978e-24
2.52147e-24
-3.05827e-24
1.20856e-24
-4.78769e-24
2.61437e-24
-9.34352e-24
3.73883e-24
-8.54957e-24
1.80952e-24
-8.35625e-24
1.00628e-23
-1.0139e-23
4.86298e-24
-1.21612e-23
1.5694e-24
-1.4763e-23
-4.25624e-26
-1.87639e-23
6.68998e-25
-2.47162e-23
-1.32437e-23
-3.66861e-23
-1.51566e-24
5.98466e-24
1.41892e-24
-9.97407e-25
3.49141e-24
-1.17213e-24
2.96968e-24
-3.94522e-25
3.90207e-24
-9.976e-25
3.83658e-24
-1.82515e-24
2.70603e-24
-1.53338e-24
2.34711e-24
-1.83768e-24
6.43627e-25
-1.94945e-24
-1.11045e-24
-1.61894e-24
1.51668e-25
-1.43432e-24
2.28557e-24
-2.25378e-24
-3.87962e-25
-2.61845e-24
1.91978e-24
-2.35058e-24
1.74559e-25
-2.3488e-24
-2.74094e-24
-3.9104e-24
-1.79058e-24
-3.40142e-24
-5.64499e-25
-3.55969e-24
-4.77496e-25
-2.55837e-24
-1.06602e-24
-2.63516e-24
2.67148e-24
-2.73481e-24
9.34716e-25
-3.90536e-24
1.34899e-24
-3.99604e-24
-1.45842e-24
-2.53983e-24
1.1036e-24
-4.29762e-24
3.76027e-24
-9.66548e-24
-2.04763e-24
-6.8998e-24
4.13822e-24
-9.02676e-24
3.82659e-24
-1.01594e-23
4.92516e-24
-1.22767e-23
1.6172e-24
-1.44464e-23
5.18336e-24
-2.09812e-23
3.9938e-24
-3.13773e-23
-4.50977e-24
-2.30115e-23
-1.83624e-24
6.63637e-24
1.43365e-24
-1.38102e-24
3.2025e-24
-1.00978e-24
2.21694e-24
-5.28086e-25
4.90553e-24
-1.24412e-24
2.80868e-24
-1.72065e-24
3.17328e-24
-1.53593e-24
1.96332e-24
-1.9167e-24
1.10266e-24
-1.75496e-24
9.63321e-25
-1.22187e-24
3.57751e-25
-1.8091e-24
1.81819e-24
-1.70299e-24
7.96316e-25
-2.85625e-24
-1.08601e-24
-2.43756e-24
2.37907e-25
-2.27337e-24
-2.415e-24
-3.39133e-24
-7.55487e-25
-3.48358e-24
-4.12231e-25
-3.62801e-24
7.03444e-25
-1.95863e-24
1.99827e-24
-2.80847e-24
3.51648e-24
-2.60786e-24
6.89578e-25
-4.10141e-24
-1.72622e-24
-3.75538e-24
3.63579e-24
-1.7695e-24
3.93031e-24
-5.1743e-24
-5.98139e-25
-8.45307e-24
2.69786e-25
-6.90019e-24
7.33345e-24
-8.5003e-24
5.1002e-24
-1.0302e-23
4.90198e-24
-1.15038e-23
2.60003e-24
-1.43965e-23
7.06971e-24
-2.18359e-23
4.83362e-24
-3.42976e-23
8.6505e-24
2.90132e-23
-2.00609e-24
5.78635e-24
1.32948e-24
-1.50389e-24
3.00597e-24
-8.06181e-25
3.37506e-24
-6.2522e-25
6.35685e-24
-1.17688e-24
2.97832e-24
-1.91835e-24
4.00122e-24
-1.51076e-24
1.59798e-24
-1.76287e-24
1.12982e-24
-2.04527e-24
1.76502e-24
-9.94067e-25
2.53078e-25
-1.82927e-24
1.76989e-24
-1.94478e-24
1.47585e-24
-2.66337e-24
2.42779e-25
-2.55688e-24
1.14173e-24
-2.18381e-24
-1.74347e-24
-2.97581e-24
-3.43874e-25
-3.18742e-24
1.05254e-24
-3.35001e-24
2.81723e-24
-1.66695e-24
5.16233e-24
-3.01153e-24
4.854e-24
-3.03585e-24
1.52002e-24
-3.20903e-24
-1.07027e-24
-3.66986e-24
6.39477e-26
-2.1724e-24
7.12896e-24
-4.94864e-24
1.48116e-24
-7.31384e-24
1.65593e-24
-7.0841e-24
7.18154e-24
-8.14882e-24
5.32539e-24
-1.03049e-23
6.26384e-24
-1.06205e-23
7.54252e-24
-1.42704e-23
9.72753e-24
-2.02909e-23
1.15721e-23
-3.13223e-23
2.04469e-23
4.38379e-23
-2.42837e-24
2.5659e-24
1.03152e-24
-1.39866e-24
3.0975e-24
-5.21023e-25
2.7232e-24
-1.19108e-24
2.11093e-24
-1.1647e-24
1.41232e-24
-2.31112e-24
3.79024e-25
-1.50021e-24
2.48061e-25
-1.84151e-24
1.90405e-24
-2.08969e-24
3.17771e-24
-9.60919e-25
4.06764e-24
-1.66968e-24
5.14648e-24
-2.2887e-24
1.24264e-24
-2.50238e-24
1.41871e-24
-2.70871e-24
1.48147e-24
-1.85128e-24
1.77751e-24
-2.97051e-24
1.82382e-24
-2.88005e-24
2.41532e-24
-2.83384e-24
3.55315e-24
-1.52263e-24
4.95117e-24
-3.38276e-24
2.20995e-24
-3.25155e-24
3.03199e-24
-2.98847e-24
-6.01536e-25
-2.66099e-24
2.15474e-24
-2.91382e-24
3.24131e-24
-4.61272e-24
2.71383e-24
-6.59924e-24
2.64861e-24
-7.04874e-24
5.71575e-24
-7.90937e-24
5.54679e-24
-9.71655e-24
7.73909e-24
-1.01419e-23
8.73944e-24
-1.33267e-23
1.21885e-23
-1.80586e-23
1.72743e-23
-2.48993e-23
2.5275e-23
4.67184e-23
-2.24862e-24
1.57005e-24
1.5101e-24
-1.63463e-24
3.01965e-24
-8.01114e-25
2.11079e-24
-1.22788e-24
1.70402e-24
-1.26893e-24
8.15005e-25
-2.24847e-24
1.1259e-24
-1.28637e-24
3.87239e-24
-1.65312e-24
4.49397e-24
-1.8208e-24
5.6175e-24
-9.57656e-25
4.83094e-24
-2.17133e-24
6.75247e-24
-2.33708e-24
7.97846e-25
-2.45194e-24
2.70244e-24
-2.4732e-24
1.7852e-24
-1.80147e-24
1.79685e-24
-2.67837e-24
3.56617e-24
-2.64446e-24
4.30889e-24
-2.54854e-24
5.14545e-24
-1.95624e-24
5.99283e-24
-3.21345e-24
3.71158e-24
-3.55565e-24
4.12997e-24
-2.57075e-24
2.95677e-24
-2.4931e-24
3.25041e-24
-2.76951e-24
4.07401e-24
-4.45459e-24
3.79828e-24
-6.26998e-24
4.0292e-24
-6.75341e-24
6.56792e-24
-7.45264e-24
6.46296e-24
-9.36542e-24
9.06547e-24
-9.4149e-24
1.36474e-23
-1.2052e-23
1.40969e-23
-1.62382e-23
1.97294e-23
-1.94021e-23
3.08e-23
4.74473e-23
-2.05145e-24
2.28492e-24
2.13885e-24
-1.59209e-24
2.80966e-24
-7.89435e-25
3.39881e-24
-1.28329e-24
1.03713e-24
-1.41436e-24
1.97611e-25
-1.68095e-24
-6.64488e-25
-1.17459e-24
3.22991e-24
-1.25728e-24
5.95846e-24
-1.89074e-24
6.24718e-24
-4.24378e-25
7.94933e-24
-2.75807e-24
5.23266e-24
-1.99314e-24
2.35469e-24
-2.52242e-24
2.2044e-24
-2.36901e-24
2.10578e-24
-1.43538e-24
1.29033e-24
-2.50217e-24
4.61422e-24
-2.51581e-24
5.57802e-24
-2.30385e-24
6.07229e-24
-2.1552e-24
6.00817e-24
-3.05124e-24
4.38266e-24
-3.46539e-24
4.52003e-24
-2.64335e-24
2.73715e-24
-2.34287e-24
4.02402e-24
-2.61317e-24
4.40145e-24
-4.3361e-24
5.1233e-24
-5.91949e-24
5.31783e-24
-6.57231e-24
6.41386e-24
-6.84601e-24
7.27626e-24
-8.59492e-24
1.01436e-23
-8.99727e-24
1.47314e-23
-1.09193e-23
1.56228e-23
-1.4233e-23
2.16806e-23
-1.57225e-23
3.22487e-23
4.28474e-23
-2.24409e-24
3.29295e-24
1.86958e-24
-1.56457e-24
3.67955e-24
-7.75148e-25
1.55683e-25
-1.23989e-24
2.27802e-24
-1.5139e-24
5.28061e-24
-1.16155e-24
3.70259e-24
-8.8419e-25
2.75913e-24
-1.32794e-24
5.42869e-24
-1.49514e-24
5.42102e-24
-1.09622e-24
7.2549e-24
-2.89356e-24
2.47446e-24
-2.1504e-24
4.00662e-24
-2.29504e-24
4.58877e-24
-2.53547e-24
2.8163e-24
-8.2389e-25
3.78866e-24
-2.35057e-24
-1.7327e-24
-2.44147e-24
6.09499e-24
-2.11275e-24
6.52276e-24
-2.44545e-24
2.39135e-24
-2.93532e-24
5.01352e-24
-3.56137e-24
5.03813e-24
-2.54171e-24
2.27673e-24
-2.19939e-24
4.52466e-24
-2.29917e-24
4.44025e-24
-4.33886e-24
6.61989e-24
-5.61679e-24
5.887e-24
-6.40526e-24
6.80447e-24
-6.09527e-24
1.18368e-23
-8.1098e-24
1.19939e-23
-8.43421e-24
1.55326e-23
-9.85296e-24
1.65377e-23
-1.24999e-23
2.3e-23
-1.3156e-23
2.98848e-23
3.90008e-23
-2.13715e-24
1.89066e-24
1.78837e-24
-1.90034e-24
3.69176e-24
-7.90927e-25
3.6414e-24
-9.69224e-25
2.67379e-24
-1.32464e-24
1.01649e-24
-1.29277e-24
3.31623e-24
-6.13835e-25
6.22773e-24
-1.28474e-24
3.14852e-24
-1.43087e-24
7.13608e-24
-1.56804e-24
5.80491e-24
-2.77476e-24
3.41453e-24
-1.93783e-24
5.69847e-24
-2.41667e-24
5.85318e-24
-2.42913e-24
3.41323e-24
-1.32659e-24
4.10089e-24
-1.58862e-24
3.71905e-24
-2.20435e-24
6.08215e-24
-2.52418e-24
6.45676e-24
-2.12105e-24
2.31519e-24
-2.76018e-24
5.76967e-24
-3.85066e-24
-1.45199e-24
-2.15845e-24
4.7832e-24
-2.20747e-24
5.13094e-24
-1.82519e-24
3.89016e-24
-4.46152e-24
-2.0357e-24
-5.31305e-24
5.89285e-24
-5.8039e-24
6.60102e-24
-5.68616e-24
1.14344e-23
-7.81987e-24
6.37308e-24
-7.83718e-24
2.00966e-23
-8.86511e-24
1.70106e-23
-1.14003e-23
2.38597e-23
-1.12265e-23
3.08977e-23
-8.50879e-24
3.63865e-23
5.92614e-23
-1.93876e-24
2.14201e-24
1.55132e-24
-1.89172e-24
4.94585e-24
-7.28055e-25
2.60354e-24
-1.04221e-24
2.2632e-24
-1.08828e-24
3.24554e-24
-1.18461e-24
2.76301e-24
-1.13844e-24
5.26058e-24
-7.97809e-25
4.53328e-24
-1.77459e-24
3.89517e-24
-1.73208e-24
5.60576e-24
-2.59971e-24
4.23758e-24
-1.74745e-24
5.49319e-24
-2.68071e-24
2.37271e-24
-2.27218e-24
2.60392e-24
-1.36413e-24
6.07285e-24
-1.33692e-24
2.45891e-24
-2.14302e-24
2.53159e-24
-2.94326e-24
2.38142e-24
-1.55908e-24
6.29409e-24
-3.4388e-24
7.39889e-24
-3.19554e-24
6.26588e-24
-2.06012e-24
8.10132e-24
-2.25684e-24
5.82312e-24
-2.3494e-24
3.55266e-24
-3.62184e-24
-1.30682e-24
-5.10057e-24
2.63224e-24
-5.15534e-24
5.7589e-24
-5.94665e-24
7.38119e-24
-6.30968e-24
5.92787e-24
-7.88542e-24
1.37093e-23
-7.74907e-24
1.61269e-23
-1.03489e-23
2.07948e-23
-9.70805e-24
3.17145e-23
-6.91236e-24
3.88311e-23
5.36431e-23
-1.6112e-24
3.48181e-24
1.64615e-24
-2.07152e-24
5.17891e-24
-8.59988e-25
2.00114e-24
-1.0851e-24
2.65825e-24
-1.09198e-24
3.11983e-24
-7.94871e-25
1.91507e-24
-1.21439e-24
3.48445e-24
-7.61274e-25
4.29924e-24
-1.48075e-24
4.91763e-24
-1.68662e-24
4.67937e-24
-2.60573e-24
5.62924e-24
-2.05187e-24
5.26326e-24
-2.5388e-24
1.48898e-24
-1.92613e-24
7.59347e-24
-1.58022e-24
5.40663e-24
-1.32699e-24
2.79046e-24
-2.00166e-24
3.08923e-24
-2.4922e-24
2.50806e-24
-1.47719e-24
6.43108e-24
-3.29186e-24
4.54577e-24
-3.04981e-24
5.35072e-24
-2.18415e-24
1.21176e-23
-2.51902e-24
6.29741e-24
-2.7322e-24
2.88577e-24
-3.25891e-24
-9.02971e-25
-4.51227e-24
2.95691e-24
-5.04465e-24
5.58174e-24
-5.64754e-24
7.25039e-24
-5.56922e-24
4.87552e-24
-7.23351e-24
1.45493e-23
-7.08476e-24
1.52051e-23
-9.0887e-24
1.78477e-23
-8.31729e-24
2.93221e-23
-6.11335e-24
3.4002e-23
-1.32122e-24
3.23967e-24
1.27564e-24
-2.25232e-24
5.77139e-24
-7.56618e-25
7.80082e-25
-1.12875e-24
3.03736e-24
-1.00638e-24
2.28525e-24
-7.26395e-25
1.47546e-24
-1.05748e-24
3.62176e-24
-8.38977e-25
8.36886e-24
-1.34557e-24
5.08178e-24
-1.40389e-24
5.10361e-24
-2.74132e-24
2.17393e-24
-2.33251e-24
4.92459e-24
-1.7634e-24
3.39942e-24
-2.23633e-24
3.43252e-24
-1.6537e-24
5.12635e-24
-1.47038e-24
4.54953e-24
-1.95818e-24
2.01549e-24
-2.07493e-24
2.14539e-24
-1.63223e-24
6.06545e-24
-3.04881e-24
5.13466e-24
-2.46936e-24
4.71908e-24
-2.65081e-24
7.27377e-24
-2.82217e-24
6.07911e-24
-2.95632e-24
3.49199e-24
-2.99233e-24
9.81607e-25
-4.09929e-24
3.51945e-24
-4.89168e-24
5.75005e-24
-5.55415e-24
7.54127e-24
-4.82151e-24
4.13188e-24
-6.70568e-24
8.37618e-24
-6.52368e-24
1.42472e-23
-7.62805e-24
1.79945e-23
-7.23333e-24
2.7485e-23
3.16432e-23
-9.28643e-25
3.30694e-24
9.15603e-25
-2.80846e-24
2.83564e-24
-4.52406e-25
2.98605e-24
-1.21721e-24
2.01901e-24
-1.02373e-24
1.51465e-24
-4.49885e-25
9.87598e-25
-4.15836e-25
3.52545e-24
-1.22923e-24
7.82242e-24
-1.57304e-24
3.72661e-24
-1.51057e-24
5.39159e-24
-2.54885e-24
1.80259e-24
-2.33617e-24
4.8508e-24
-1.77443e-24
3.56042e-24
-1.99849e-24
4.04187e-24
-1.6459e-24
4.56976e-24
-1.67161e-24
4.36795e-24
-1.75807e-24
7.02029e-24
-1.78691e-24
2.79747e-24
-1.63016e-24
5.36718e-24
-2.98617e-24
1.64445e-24
-2.33553e-24
3.70696e-24
-2.64036e-24
5.56604e-24
-3.02921e-24
5.70555e-24
-3.11277e-24
4.29139e-24
-2.69268e-24
1.23319e-24
-3.83097e-24
3.8035e-24
-4.64506e-24
5.74166e-24
-5.62852e-24
7.86359e-24
-4.4975e-24
7.71494e-24
-5.87263e-24
9.10659e-24
-5.99506e-24
1.36296e-23
-6.57651e-24
1.75825e-23
-6.42708e-24
2.5174e-23
2.8425e-23
-8.23388e-25
3.22122e-24
9.08417e-25
-2.71477e-24
3.53875e-25
-7.57623e-25
8.76341e-25
-1.28594e-24
2.66473e-24
-1.09333e-24
9.5155e-25
-1.18128e-25
4.37627e-24
-3.75145e-25
4.23092e-24
-1.44729e-24
8.18271e-24
-1.45825e-24
3.96873e-24
-1.70054e-24
5.90834e-24
-2.24668e-24
2.5446e-24
-2.40684e-24
5.39626e-24
-1.77855e-24
3.17776e-24
-2.00108e-24
2.25329e-24
-1.5714e-24
5.30684e-24
-1.4053e-24
5.04409e-24
-2.10112e-24
6.30075e-24
-1.39142e-24
2.42226e-24
-1.92648e-24
5.35659e-24
-2.65785e-24
1.67504e-24
-2.20328e-24
2.32775e-24
-2.46509e-24
4.67993e-24
-3.05907e-24
5.30684e-24
-3.35351e-24
5.19314e-24
-2.3684e-24
7.18849e-24
-3.74121e-24
3.098e-24
-4.32411e-24
5.50575e-24
-5.50259e-24
4.32517e-24
-4.36831e-24
7.04084e-24
-5.33307e-24
9.46318e-24
-5.36694e-24
1.30815e-23
-5.93307e-24
1.79348e-23
-5.81446e-24
2.39278e-23
2.55207e-23
-1.11486e-24
3.80323e-24
8.0786e-25
-2.67538e-24
1.31029e-24
-6.42741e-25
6.60702e-24
-1.22781e-24
3.17949e-24
-9.09332e-25
5.16468e-24
-7.49228e-26
7.42014e-24
-1.8965e-25
5.13052e-24
-1.57257e-24
1.00232e-23
-1.45335e-24
8.41363e-24
-1.8684e-24
6.71769e-24
-1.9229e-24
2.65061e-24
-2.5176e-24
1.93499e-24
-1.73149e-24
4.16404e-24
-1.78691e-24
3.6058e-24
-1.54606e-24
4.85257e-24
-1.27796e-24
4.80278e-24
-2.26657e-24
2.74734e-24
-1.20946e-24
1.68555e-24
-2.15553e-24
1.87558e-24
-2.53091e-24
1.50437e-24
-1.97637e-24
6.42922e-24
-2.31364e-24
3.99287e-24
-3.02434e-24
4.81197e-24
-3.12121e-24
5.49471e-24
-2.5948e-24
7.06253e-24
-3.53508e-24
2.77105e-24
-4.32159e-24
5.58014e-24
-5.15219e-24
4.31995e-24
-4.14661e-24
6.61835e-24
-4.84361e-24
5.56656e-24
-4.859e-24
1.24961e-23
-5.2672e-24
1.78346e-23
-5.42968e-24
1.91776e-23
-1.42887e-24
5.01399e-24
7.51909e-25
-2.18764e-24
1.21274e-24
-8.59437e-25
6.46785e-24
-1.15087e-24
4.60926e-24
-5.82567e-25
5.84412e-24
-1.36694e-25
7.95094e-24
1.20132e-25
6.55736e-24
-1.60365e-24
4.73714e-24
-1.62677e-24
7.84619e-24
-1.91371e-24
7.04329e-24
-2.15623e-24
3.39058e-24
-2.30117e-24
2.32695e-24
-1.90297e-24
4.29803e-24
-1.56395e-24
3.09164e-24
-1.47107e-24
3.48018e-24
-1.48046e-24
3.21617e-24
-2.2709e-24
5.10282e-24
-1.24026e-24
1.32898e-24
-2.06331e-24
1.20659e-24
-2.10066e-24
9.7277e-25
-2.0978e-24
4.82148e-24
-2.16009e-24
2.79345e-24
-2.90387e-24
4.59573e-24
-2.9743e-24
5.28846e-24
-2.84505e-24
7.35318e-24
-3.34539e-24
2.40871e-24
-4.34138e-24
1.598e-24
-4.89226e-24
4.25236e-24
-4.07703e-24
6.16731e-24
-4.2307e-24
4.88332e-24
-4.2189e-24
1.06203e-23
-5.1907e-24
1.3955e-23
1.8678e-23
-1.55439e-24
1.5796e-24
5.98009e-25
-1.82511e-24
1.66221e-24
-8.63543e-25
7.19814e-24
-1.07397e-24
4.9134e-24
-5.8839e-25
5.18571e-24
-8.1947e-26
6.83892e-24
-2.50272e-25
5.19022e-24
-1.17447e-24
7.65762e-25
-1.79886e-24
4.6083e-24
-2.07123e-24
7.46124e-24
-2.24795e-24
3.91297e-24
-2.21037e-24
2.46757e-24
-2.05601e-24
2.76903e-24
-1.5253e-24
2.64059e-24
-1.48687e-24
1.84326e-24
-1.34667e-24
3.06217e-24
-2.40213e-24
5.91853e-24
-1.24277e-24
4.97745e-24
-1.86304e-24
1.61864e-25
-1.93691e-24
9.05264e-25
-2.0818e-24
2.96695e-24
-2.03435e-24
1.38287e-24
-2.77436e-24
4.08509e-24
-2.8364e-24
4.82331e-24
-3.05148e-24
7.36431e-24
-3.5199e-24
2.24682e-24
-3.98236e-24
2.53735e-25
-4.7763e-24
4.72177e-24
-4.02844e-24
7.39958e-24
-3.74792e-24
9.27662e-24
-3.85906e-24
9.925e-24
-4.7593e-24
1.33004e-23
-1.44368e-24
7.81104e-25
6.70882e-25
-1.50164e-24
3.76323e-24
-1.15645e-24
6.40601e-24
-9.19273e-25
2.91061e-24
-3.51044e-25
4.21469e-24
-2.17746e-25
2.83953e-24
-5.67325e-25
5.1025e-24
-7.96601e-25
2.13168e-24
-1.60764e-24
7.21228e-25
-2.39588e-24
3.5611e-24
-2.35527e-24
4.54618e-24
-2.17124e-24
3.16306e-24
-1.88207e-24
2.98868e-24
-1.58293e-24
2.69597e-24
-1.2804e-24
3.17992e-24
-1.09807e-24
3.11098e-24
-2.52565e-24
5.78871e-24
-1.56782e-24
4.34608e-24
-1.67164e-24
1.84393e-25
-1.80644e-24
2.42594e-24
-2.04504e-24
2.03682e-24
-1.83294e-24
1.44956e-24
-2.66835e-24
3.68801e-24
-2.67745e-24
4.27794e-24
-3.25198e-24
7.77233e-24
-3.73474e-24
2.97289e-24
-3.54562e-24
4.61749e-24
-4.66434e-24
5.32495e-24
-3.71575e-24
6.80144e-24
-3.73032e-24
4.54664e-24
-3.54194e-24
8.84868e-24
1.14281e-23
-1.26988e-24
1.5382e-24
7.67956e-25
-1.31759e-24
3.95756e-24
-1.18548e-24
6.46734e-24
-6.87009e-25
6.18516e-24
-5.77843e-25
5.69587e-24
-1.67953e-25
3.72902e-24
-8.32654e-25
3.66678e-24
-8.35551e-25
3.37169e-24
-1.3498e-24
-9.6669e-25
-2.26281e-24
-1.01069e-25
-2.3313e-24
3.68309e-24
-2.17556e-24
4.32315e-24
-1.78526e-24
2.60873e-24
-1.48891e-24
2.47277e-24
-1.3318e-24
2.94308e-24
-8.28803e-25
4.43692e-24
-2.58602e-24
2.92917e-24
-1.84127e-24
4.79584e-24
-1.44172e-24
-1.9653e-25
-1.89098e-24
2.38859e-24
-1.9538e-24
2.75695e-24
-1.63296e-24
1.92518e-24
-2.59095e-24
3.31698e-24
-2.46291e-24
3.65056e-24
-3.46793e-24
4.536e-24
-3.60801e-24
2.78629e-24
-3.46659e-24
3.83603e-24
-4.53314e-24
4.49676e-24
-3.81916e-24
6.65203e-24
-3.392e-24
4.3558e-24
-3.25427e-24
7.22058e-24
1.07914e-23
-1.15385e-24
1.96362e-24
9.37741e-25
-1.1441e-24
4.50466e-24
-1.25155e-24
6.31599e-24
-5.85475e-25
6.63533e-24
-7.10744e-25
6.04949e-24
-1.82075e-25
7.96114e-24
-8.24257e-25
3.19341e-24
-1.30695e-24
3.94075e-24
-1.49621e-24
-3.7684e-25
-1.81434e-24
-1.42704e-26
-2.27911e-24
4.89907e-24
-2.12504e-24
6.0188e-24
-1.83104e-24
3.2336e-24
-1.52236e-24
2.57072e-24
-1.03537e-24
2.87466e-24
-9.42035e-25
3.22539e-24
-2.34976e-24
4.51196e-24
-2.15049e-24
4.93364e-24
-1.12258e-24
3.50282e-24
-1.85649e-24
2.63073e-24
-1.95466e-24
1.92177e-24
-1.53131e-24
6.3728e-24
-2.56623e-24
3.50032e-24
-2.45751e-24
2.99749e-24
-3.4408e-24
5.12575e-24
-3.49221e-24
1.4991e-24
-3.43645e-24
3.82562e-24
-4.3885e-24
4.10092e-24
-3.87278e-24
6.64052e-24
-3.15263e-24
3.75743e-24
-2.93985e-24
8.16267e-24
1.15837e-23
-1.17848e-24
5.43645e-25
1.01187e-24
-7.32981e-25
8.93153e-24
-1.20681e-24
6.72813e-24
-6.57799e-25
5.90499e-24
-6.29368e-25
3.97739e-24
-2.84001e-25
7.54507e-24
-6.72046e-25
3.80824e-24
-1.4242e-24
5.10479e-24
-1.55209e-24
-1.11743e-24
-1.35864e-24
-1.72202e-25
-2.25037e-24
8.24569e-25
-2.28563e-24
5.04122e-24
-1.88896e-24
3.70017e-24
-1.4573e-24
2.74118e-24
-1.10737e-24
3.58481e-24
-7.45191e-25
2.79967e-24
-2.25703e-24
1.1833e-24
-2.14981e-24
4.64886e-24
-1.21723e-24
2.41921e-24
-1.90256e-24
2.91052e-24
-1.57551e-24
6.36783e-24
-1.70942e-24
4.7766e-24
-2.56395e-24
1.75709e-24
-2.31877e-24
1.80441e-24
-3.55174e-24
4.31928e-24
-3.31555e-24
1.09359e-24
-3.43941e-24
4.14163e-24
-4.22694e-24
5.0202e-24
-3.99475e-24
6.9716e-24
-2.7944e-24
9.99076e-24
-2.56264e-24
1.24515e-23
1.13203e-23
-6.363e-25
1.45032e-24
1.05532e-24
-6.39969e-25
1.37249e-23
-1.23792e-24
5.84545e-24
-7.42169e-25
3.60658e-24
-5.053e-25
8.06746e-24
-5.78768e-25
7.56785e-24
-5.72228e-25
3.79044e-24
-1.99309e-24
2.14928e-24
-1.28878e-24
3.0503e-24
-1.24563e-24
1.26535e-24
-1.97256e-24
1.59098e-24
-2.31589e-24
5.79439e-24
-1.92629e-24
3.58437e-24
-1.37752e-24
2.50431e-24
-1.02621e-24
6.17552e-24
-9.71694e-25
2.25211e-24
-1.97327e-24
1.94839e-24
-2.32308e-24
2.59483e-24
-1.17065e-24
1.30664e-24
-1.53965e-24
2.9127e-24
-1.65428e-24
4.16508e-24
-1.88978e-24
4.21256e-24
-2.55682e-24
3.33901e-24
-2.20488e-24
2.3617e-24
-3.67406e-24
3.84542e-24
-3.09388e-24
1.66418e-24
-3.32281e-24
4.45141e-24
-4.1317e-24
6.3321e-24
-3.71719e-24
7.58293e-24
-2.63433e-24
1.01483e-23
-2.45232e-24
1.19146e-23
1.15243e-23
-1.76562e-26
4.71952e-24
1.10734e-24
-9.50249e-25
6.74152e-24
-1.39412e-24
6.5453e-24
-4.84602e-25
7.55339e-24
-4.29847e-25
7.75133e-24
-8.0175e-25
5.82306e-24
-6.59609e-25
3.32673e-24
-1.84113e-24
2.28264e-24
-1.39779e-24
2.08401e-24
-1.26676e-24
-1.11355e-24
-1.70103e-24
2.02675e-24
-2.28278e-24
6.58944e-24
-2.02074e-24
4.08013e-24
-1.2146e-24
1.87461e-24
-1.14266e-24
6.0812e-24
-1.09546e-24
-4.79176e-25
-1.74512e-24
2.25372e-24
-2.4858e-24
6.82994e-25
-9.59428e-25
7.08003e-24
-1.4153e-24
4.10163e-24
-1.66648e-24
3.14373e-24
-1.93739e-24
3.50063e-24
-2.54443e-24
2.39655e-24
-2.13175e-24
1.45278e-24
-3.69783e-24
5.14926e-24
-2.95468e-24
5.36714e-24
-3.1542e-24
5.03508e-24
-4.1195e-24
3.0406e-24
-3.39741e-24
9.28653e-24
-2.49537e-24
9.79619e-24
-2.38142e-24
1.03519e-23
9.31539e-24
-9.38404e-26
6.63725e-24
9.45685e-25
-8.4395e-25
5.8354e-24
-1.35292e-24
7.40549e-24
-3.8329e-25
6.45404e-24
-6.289e-25
3.79993e-24
-1.02192e-24
1.49266e-24
-7.47286e-25
2.85859e-24
-1.75473e-24
-1.18315e-24
-1.64499e-24
1.57985e-24
-1.06467e-24
2.77036e-24
-1.494e-24
1.90822e-25
-2.48803e-24
3.45699e-24
-1.92419e-24
5.74135e-24
-1.13035e-24
1.84655e-24
-1.40538e-24
3.38382e-24
-1.07023e-24
-1.13094e-24
-1.66355e-24
2.35593e-24
-2.15572e-24
1.20301e-24
-9.6484e-25
9.98224e-24
-1.43461e-24
3.60756e-24
-1.61763e-24
3.32339e-24
-2.00312e-24
2.84489e-24
-2.5154e-24
2.85044e-24
-1.95582e-24
1.24469e-24
-3.57037e-24
1.9352e-24
-3.0058e-24
5.36732e-24
-3.21839e-24
5.58486e-24
-3.76415e-24
4.43771e-24
-3.2676e-24
1.09203e-23
-2.49118e-24
1.1866e-23
-2.34096e-24
1.21806e-23
1.05033e-23
1.79076e-26
3.89279e-24
9.03368e-25
-8.02144e-25
2.47017e-24
-1.25939e-24
5.9319e-24
-5.58259e-25
7.12438e-24
-6.92876e-25
3.31371e-24
-1.09024e-24
4.52671e-24
-9.26947e-25
2.86214e-24
-1.58548e-24
-3.80177e-25
-1.53954e-24
1.58985e-24
-1.20288e-24
1.96641e-24
-1.38911e-24
1.24891e-24
-2.25922e-24
4.40586e-24
-2.0473e-24
2.03432e-24
-1.11602e-24
9.89659e-25
-1.51597e-24
3.00126e-24
-9.5128e-25
4.03356e-25
-1.61369e-24
2.92124e-24
-1.67919e-24
-9.43471e-27
-1.15578e-24
4.60755e-24
-1.40636e-24
1.86742e-24
-1.6389e-24
2.60028e-24
-2.04691e-24
2.07641e-24
-2.54524e-24
3.03687e-24
-1.9434e-24
1.01581e-24
-3.26165e-24
3.81234e-24
-2.99828e-24
7.84094e-24
-3.23363e-24
6.35371e-24
-3.44538e-24
7.19121e-24
-3.07697e-24
1.15036e-23
-2.51278e-24
1.20878e-23
-2.37952e-24
1.25048e-23
1.43413e-23
-1.20189e-26
5.41709e-24
1.03399e-24
-6.10529e-25
1.8101e-24
-1.06582e-24
5.13831e-24
-8.42558e-25
7.4846e-24
-6.12248e-25
3.61021e-24
-1.15074e-24
5.58018e-25
-1.03223e-24
7.60581e-24
-1.57357e-24
2.03099e-26
-1.32729e-24
2.88786e-24
-1.31293e-24
1.55104e-24
-1.20446e-24
2.05284e-24
-2.37619e-24
1.20135e-24
-2.08481e-24
2.88793e-24
-1.0859e-24
1.1376e-24
-1.58353e-24
2.07443e-24
-8.92854e-25
2.27911e-25
-1.5713e-24
2.01282e-24
-1.51113e-24
1.85792e-24
-1.13042e-24
3.27873e-24
-1.37433e-24
1.17298e-24
-1.66694e-24
1.96857e-24
-2.03651e-24
1.45648e-24
-2.54037e-24
2.99006e-24
-1.79468e-24
5.09922e-24
-3.00812e-24
4.55068e-24
-3.06991e-24
8.55273e-24
-3.11171e-24
6.76494e-24
-3.29351e-24
7.51044e-24
-2.90567e-24
1.17448e-23
-2.48861e-24
1.23139e-23
-2.21279e-24
1.28192e-23
1.45418e-23
-2.6575e-25
2.66808e-24
9.58802e-25
-3.65775e-25
3.82906e-24
-1.00786e-24
1.5808e-24
-9.16632e-25
2.9882e-24
-8.16044e-25
5.45631e-24
-8.32164e-25
-1.59134e-24
-1.29543e-24
3.66717e-24
-1.50199e-24
-1.3756e-24
-1.40499e-24
1.52832e-24
-1.1801e-24
9.95092e-25
-1.13259e-24
1.69716e-24
-2.34846e-24
9.06104e-25
-2.0699e-24
1.67558e-24
-1.04529e-24
1.11064e-24
-1.4991e-24
2.77338e-24
-8.16608e-25
1.25045e-24
-1.43807e-24
3.7064e-24
-1.61674e-24
2.31862e-24
-1.08073e-24
1.85667e-24
-1.27543e-24
2.06687e-24
-1.62892e-24
1.7225e-24
-1.98107e-24
2.73865e-24
-2.33914e-24
2.94473e-24
-1.79917e-24
5.94312e-24
-2.74443e-24
5.86174e-24
-3.12931e-24
7.5933e-24
-2.99472e-24
6.44604e-24
-3.21472e-24
5.86467e-24
-2.78628e-24
1.25124e-23
-2.47706e-24
1.28263e-23
-2.12486e-24
1.33725e-23
1.64875e-23
-7.18741e-26
5.38172e-24
1.15313e-24
-5.28791e-25
1.92352e-24
-8.39431e-25
2.26294e-24
-8.70594e-25
7.92149e-25
-1.04965e-24
1.18483e-24
-6.19064e-25
1.02824e-25
-1.57863e-24
3.15565e-24
-1.35813e-24
-1.15292e-24
-1.37368e-24
3.69181e-24
-1.08233e-24
6.96124e-25
-1.2274e-24
1.81689e-24
-2.29856e-24
2.0174e-24
-2.01139e-24
7.12066e-25
-8.63109e-25
4.83102e-24
-1.54296e-24
3.2898e-24
-6.93346e-25
4.73975e-24
-1.45995e-24
4.06366e-24
-1.65038e-24
2.0146e-24
-8.66958e-25
8.75473e-25
-1.30029e-24
1.07958e-24
-1.53664e-24
5.77685e-24
-1.99304e-24
2.38176e-24
-2.15489e-24
4.31724e-24
-1.80373e-24
5.48919e-24
-2.65749e-24
4.34981e-24
-3.12324e-24
8.02639e-24
-2.9669e-24
6.02172e-24
-2.91697e-24
5.92198e-24
-2.68703e-24
1.05014e-23
-2.38088e-24
1.31731e-23
-1.99703e-24
1.56835e-23
1.84257e-23
-1.7804e-25
8.1487e-24
1.2058e-24
-5.70411e-25
-2.01236e-25
-7.33297e-25
4.32908e-24
-1.02145e-24
1.08583e-24
-1.0985e-24
3.98349e-27
-5.7041e-25
-5.5688e-25
-1.62572e-24
2.41347e-24
-1.1491e-24
6.00239e-24
-1.39712e-24
6.05683e-24
-1.10664e-24
5.06943e-24
-9.56277e-25
6.30278e-24
-2.39589e-24
2.11866e-24
-1.70099e-24
4.54659e-24
-9.68671e-25
4.71123e-24
-1.53111e-24
4.32498e-24
-7.09795e-25
3.3998e-24
-1.47321e-24
5.71659e-26
-1.76222e-24
1.72276e-24
-6.85974e-25
4.31954e-24
-1.17671e-24
9.71561e-25
-1.61738e-24
4.17438e-24
-1.84107e-24
1.69143e-24
-2.08893e-24
1.67172e-24
-1.84792e-24
4.59805e-24
-2.46419e-24
4.18976e-24
-3.17063e-24
6.82868e-24
-2.94628e-24
6.1965e-24
-2.71888e-24
6.27002e-24
-2.50597e-24
1.07146e-23
-2.17145e-24
1.25016e-23
-1.91604e-24
1.43269e-23
1.78652e-23
-3.64312e-25
7.5418e-24
1.13215e-24
-6.61234e-25
2.0852e-24
-6.40662e-25
5.81184e-24
-1.28782e-24
5.08737e-25
-9.08101e-25
4.89099e-24
-5.14532e-25
2.08433e-24
-1.36694e-24
2.6275e-24
-1.16474e-24