/*--------------------------------*- C++ -*----------------------------------*\
  =========                 |
  \\      /  F ield         | OpenFOAM: The Open Source CFD Toolbox
   \\    /   O peration     | Website:  https://openfoam.org
    \\  /    A nd           | Version:  7
     \\/     M anipulation  |
\*---------------------------------------------------------------------------*/
FoamFile
{
    version     2.0;
    format      ascii;
    class       volScalarField;
    location    "20000";
    object      nut;
}
// * * * * * * * * * * * * * * * * * * * * * * * * * * * * * * * * * * * * * //

dimensions      [0 2 -1 0 0 0 0];

internalField   nonuniform List<scalar> 
4838
(
3.98978e-15
3.99186e-15
3.99387e-15
3.99579e-15
3.99763e-15
3.99938e-15
4.00105e-15
4.00263e-15
4.00413e-15
4.00555e-15
4.00688e-15
4.00812e-15
4.00928e-15
4.01035e-15
4.01133e-15
4.01222e-15
4.01302e-15
4.01373e-15
4.01436e-15
4.01489e-15
4.01533e-15
4.01568e-15
4.01594e-15
4.0161e-15
4.01618e-15
4.01617e-15
4.01606e-15
4.01586e-15
4.01558e-15
4.0152e-15
4.01473e-15
4.01417e-15
4.01352e-15
4.01278e-15
4.01195e-15
4.01103e-15
4.01002e-15
4.00892e-15
4.00774e-15
4.00647e-15
4.00511e-15
4.00367e-15
4.00215e-15
4.00054e-15
3.99884e-15
3.99707e-15
3.99521e-15
3.99327e-15
3.99125e-15
3.98913e-15
3.98624e-15
3.98826e-15
3.99027e-15
3.99223e-15
3.99412e-15
3.99593e-15
3.99766e-15
3.99931e-15
4.00087e-15
4.00235e-15
4.00374e-15
4.00504e-15
4.00626e-15
4.00738e-15
4.00841e-15
4.00934e-15
4.01019e-15
4.01094e-15
4.01159e-15
4.01215e-15
4.01262e-15
4.01299e-15
4.01326e-15
4.01344e-15
4.01352e-15
4.0135e-15
4.01339e-15
4.01318e-15
4.01288e-15
4.01248e-15
4.01198e-15
4.01139e-15
4.01071e-15
4.00993e-15
4.00906e-15
4.00809e-15
4.00703e-15
4.00588e-15
4.00464e-15
4.00332e-15
4.0019e-15
4.0004e-15
3.99881e-15
3.99713e-15
3.99538e-15
3.99355e-15
3.99164e-15
3.98966e-15
3.98763e-15
3.98558e-15
3.98258e-15
3.98462e-15
3.98665e-15
3.98863e-15
3.99056e-15
3.99242e-15
3.9942e-15
3.9959e-15
3.99752e-15
3.99906e-15
4.0005e-15
4.00185e-15
4.00312e-15
4.00429e-15
4.00536e-15
4.00634e-15
4.00722e-15
4.00801e-15
4.00869e-15
4.00928e-15
4.00977e-15
4.01015e-15
4.01044e-15
4.01063e-15
4.01071e-15
4.01069e-15
4.01058e-15
4.01036e-15
4.01004e-15
4.00962e-15
4.0091e-15
4.00848e-15
4.00777e-15
4.00695e-15
4.00604e-15
4.00503e-15
4.00393e-15
4.00273e-15
4.00144e-15
4.00005e-15
3.99858e-15
3.99702e-15
3.99538e-15
3.99365e-15
3.99185e-15
3.98997e-15
3.98802e-15
3.98602e-15
3.98398e-15
3.9819e-15
3.9788e-15
3.98088e-15
3.98294e-15
3.98495e-15
3.98692e-15
3.98882e-15
3.99064e-15
3.9924e-15
3.99406e-15
3.99565e-15
3.99714e-15
3.99854e-15
3.99985e-15
4.00107e-15
4.00218e-15
4.0032e-15
4.00412e-15
4.00494e-15
4.00565e-15
4.00626e-15
4.00677e-15
4.00717e-15
4.00747e-15
4.00767e-15
4.00775e-15
4.00774e-15
4.00761e-15
4.00739e-15
4.00705e-15
4.00662e-15
4.00608e-15
4.00543e-15
4.00468e-15
4.00383e-15
4.00289e-15
4.00184e-15
4.00069e-15
3.99945e-15
3.99811e-15
3.99668e-15
3.99516e-15
3.99355e-15
3.99185e-15
3.99008e-15
3.98823e-15
3.98631e-15
3.98432e-15
3.98229e-15
3.98022e-15
3.9781e-15
3.9749e-15
3.97704e-15
3.97913e-15
3.98118e-15
3.98318e-15
3.98512e-15
3.98699e-15
3.98879e-15
3.9905e-15
3.99213e-15
3.99367e-15
3.99511e-15
3.99647e-15
3.99772e-15
3.99887e-15
3.99993e-15
4.00088e-15
4.00173e-15
4.00247e-15
4.0031e-15
4.00363e-15
4.00405e-15
4.00436e-15
4.00456e-15
4.00465e-15
4.00463e-15
4.0045e-15
4.00427e-15
4.00392e-15
4.00347e-15
4.0029e-15
4.00224e-15
4.00146e-15
4.00058e-15
3.9996e-15
3.99851e-15
3.99733e-15
3.99604e-15
3.99466e-15
3.99318e-15
3.99162e-15
3.98996e-15
3.98822e-15
3.9864e-15
3.98451e-15
3.98255e-15
3.98053e-15
3.97846e-15
3.97635e-15
3.97418e-15
3.97091e-15
3.97309e-15
3.97523e-15
3.97732e-15
3.97935e-15
3.98133e-15
3.98324e-15
3.98507e-15
3.98683e-15
3.9885e-15
3.99008e-15
3.99157e-15
3.99296e-15
3.99425e-15
3.99544e-15
3.99652e-15
3.99751e-15
3.99838e-15
3.99914e-15
3.9998e-15
4.00034e-15
4.00078e-15
4.0011e-15
4.00131e-15
4.0014e-15
4.00138e-15
4.00125e-15
4.001e-15
4.00065e-15
4.00018e-15
3.99959e-15
3.9989e-15
3.9981e-15
3.99719e-15
3.99618e-15
3.99506e-15
3.99384e-15
3.99251e-15
3.99109e-15
3.98958e-15
3.98797e-15
3.98627e-15
3.98449e-15
3.98263e-15
3.9807e-15
3.9787e-15
3.97664e-15
3.97454e-15
3.97238e-15
3.97016e-15
3.96681e-15
3.96904e-15
3.97122e-15
3.97335e-15
3.97543e-15
3.97744e-15
3.97939e-15
3.98126e-15
3.98305e-15
3.98476e-15
3.98638e-15
3.9879e-15
3.98933e-15
3.99066e-15
3.99188e-15
3.99299e-15
3.994e-15
3.9949e-15
3.99569e-15
3.99637e-15
3.99693e-15
3.99737e-15
3.9977e-15
3.99791e-15
3.99801e-15
3.99799e-15
3.99785e-15
3.9976e-15
3.99723e-15
3.99675e-15
3.99615e-15
3.99544e-15
3.99461e-15
3.99368e-15
3.99263e-15
3.99148e-15
3.99022e-15
3.98887e-15
3.98741e-15
3.98585e-15
3.98421e-15
3.98247e-15
3.98065e-15
3.97876e-15
3.97679e-15
3.97475e-15
3.97266e-15
3.9705e-15
3.9683e-15
3.96604e-15
3.96263e-15
3.9649e-15
3.96712e-15
3.96929e-15
3.9714e-15
3.97346e-15
3.97544e-15
3.97735e-15
3.97917e-15
3.98092e-15
3.98257e-15
3.98413e-15
3.98559e-15
3.98695e-15
3.9882e-15
3.98934e-15
3.99038e-15
3.9913e-15
3.99211e-15
3.9928e-15
3.99337e-15
3.99383e-15
3.99417e-15
3.99439e-15
3.99449e-15
3.99447e-15
3.99433e-15
3.99407e-15
3.99369e-15
3.99319e-15
3.99257e-15
3.99184e-15
3.99099e-15
3.99003e-15
3.98896e-15
3.98778e-15
3.98649e-15
3.9851e-15
3.98361e-15
3.98202e-15
3.98034e-15
3.97857e-15
3.97672e-15
3.97478e-15
3.97278e-15
3.9707e-15
3.96857e-15
3.96638e-15
3.96413e-15
3.96183e-15
3.95836e-15
3.96066e-15
3.96293e-15
3.96514e-15
3.96729e-15
3.96937e-15
3.97139e-15
3.97333e-15
3.97519e-15
3.97697e-15
3.97866e-15
3.98025e-15
3.98173e-15
3.98312e-15
3.9844e-15
3.98557e-15
3.98663e-15
3.98757e-15
3.9884e-15
3.98911e-15
3.9897e-15
3.99016e-15
3.99051e-15
3.99073e-15
3.99083e-15
3.99081e-15
3.99067e-15
3.9904e-15
3.99001e-15
3.9895e-15
3.98887e-15
3.98812e-15
3.98725e-15
3.98627e-15
3.98517e-15
3.98397e-15
3.98265e-15
3.98123e-15
3.97971e-15
3.97809e-15
3.97637e-15
3.97457e-15
3.97268e-15
3.97071e-15
3.96867e-15
3.96656e-15
3.96439e-15
3.96216e-15
3.95987e-15
3.95753e-15
3.954e-15
3.95635e-15
3.95865e-15
3.96089e-15
3.96308e-15
3.9652e-15
3.96725e-15
3.96922e-15
3.97112e-15
3.97292e-15
3.97464e-15
3.97626e-15
3.97777e-15
3.97919e-15
3.98049e-15
3.98169e-15
3.98277e-15
3.98373e-15
3.98457e-15
3.98529e-15
3.9859e-15
3.98637e-15
3.98673e-15
3.98695e-15
3.98706e-15
3.98703e-15
3.98688e-15
3.98661e-15
3.98621e-15
3.98569e-15
3.98504e-15
3.98428e-15
3.98339e-15
3.98239e-15
3.98127e-15
3.98004e-15
3.97869e-15
3.97725e-15
3.97569e-15
3.97404e-15
3.9723e-15
3.97046e-15
3.96854e-15
3.96654e-15
3.96447e-15
3.96232e-15
3.96011e-15
3.95785e-15
3.95553e-15
3.95315e-15
3.94957e-15
3.95195e-15
3.95428e-15
3.95656e-15
3.95878e-15
3.96093e-15
3.96301e-15
3.96502e-15
3.96694e-15
3.96878e-15
3.97052e-15
3.97217e-15
3.97371e-15
3.97515e-15
3.97648e-15
3.97769e-15
3.97879e-15
3.97977e-15
3.98063e-15
3.98137e-15
3.98198e-15
3.98246e-15
3.98282e-15
3.98306e-15
3.98316e-15
3.98314e-15
3.98298e-15
3.9827e-15
3.98229e-15
3.98176e-15
3.9811e-15
3.98032e-15
3.97942e-15
3.97839e-15
3.97725e-15
3.976e-15
3.97463e-15
3.97316e-15
3.97158e-15
3.9699e-15
3.96813e-15
3.96626e-15
3.96431e-15
3.96228e-15
3.96018e-15
3.958e-15
3.95576e-15
3.95346e-15
3.9511e-15
3.94869e-15
3.94507e-15
3.94748e-15
3.94984e-15
3.95215e-15
3.9544e-15
3.95658e-15
3.9587e-15
3.96073e-15
3.96268e-15
3.96454e-15
3.96631e-15
3.96798e-15
3.96955e-15
3.97101e-15
3.97236e-15
3.97359e-15
3.97471e-15
3.97571e-15
3.97658e-15
3.97733e-15
3.97795e-15
3.97844e-15
3.97881e-15
3.97904e-15
3.97915e-15
3.97912e-15
3.97897e-15
3.97868e-15
3.97826e-15
3.97772e-15
3.97705e-15
3.97625e-15
3.97533e-15
3.97429e-15
3.97313e-15
3.97186e-15
3.97047e-15
3.96897e-15
3.96737e-15
3.96567e-15
3.96387e-15
3.96197e-15
3.96e-15
3.95794e-15
3.9558e-15
3.95359e-15
3.95132e-15
3.94899e-15
3.9466e-15
3.94416e-15
3.9405e-15
3.94294e-15
3.94533e-15
3.94767e-15
3.94995e-15
3.95216e-15
3.95429e-15
3.95635e-15
3.95833e-15
3.96022e-15
3.96201e-15
3.9637e-15
3.96529e-15
3.96677e-15
3.96814e-15
3.96939e-15
3.97053e-15
3.97154e-15
3.97243e-15
3.97318e-15
3.97382e-15
3.97432e-15
3.97469e-15
3.97492e-15
3.97503e-15
3.975e-15
3.97484e-15
3.97455e-15
3.97413e-15
3.97357e-15
3.97289e-15
3.97208e-15
3.97115e-15
3.97009e-15
3.96891e-15
3.96762e-15
3.96621e-15
3.96469e-15
3.96307e-15
3.96134e-15
3.95952e-15
3.9576e-15
3.95559e-15
3.95351e-15
3.95134e-15
3.94911e-15
3.94681e-15
3.94445e-15
3.94203e-15
3.93956e-15
3.93587e-15
3.93833e-15
3.94075e-15
3.94312e-15
3.94542e-15
3.94765e-15
3.94982e-15
3.9519e-15
3.9539e-15
3.95581e-15
3.95763e-15
3.95934e-15
3.96095e-15
3.96245e-15
3.96383e-15
3.9651e-15
3.96625e-15
3.96727e-15
3.96817e-15
3.96894e-15
3.96958e-15
3.97009e-15
3.97046e-15
3.9707e-15
3.97081e-15
3.97078e-15
3.97062e-15
3.97032e-15
3.96989e-15
3.96933e-15
3.96863e-15
3.96781e-15
3.96686e-15
3.96579e-15
3.9646e-15
3.96329e-15
3.96186e-15
3.96032e-15
3.95868e-15
3.95693e-15
3.95508e-15
3.95314e-15
3.95111e-15
3.949e-15
3.94681e-15
3.94455e-15
3.94223e-15
3.93984e-15
3.9374e-15
3.9349e-15
3.93118e-15
3.93367e-15
3.93611e-15
3.9385e-15
3.94082e-15
3.94308e-15
3.94527e-15
3.94737e-15
3.9494e-15
3.95133e-15
3.95316e-15
3.95489e-15
3.95652e-15
3.95804e-15
3.95944e-15
3.96072e-15
3.96188e-15
3.96292e-15
3.96383e-15
3.96461e-15
3.96525e-15
3.96576e-15
3.96614e-15
3.96638e-15
3.96649e-15
3.96646e-15
3.96629e-15
3.96599e-15
3.96555e-15
3.96498e-15
3.96428e-15
3.96345e-15
3.96249e-15
3.9614e-15
3.96019e-15
3.95887e-15
3.95742e-15
3.95587e-15
3.9542e-15
3.95244e-15
3.95057e-15
3.94861e-15
3.94656e-15
3.94443e-15
3.94221e-15
3.93993e-15
3.93758e-15
3.93517e-15
3.9327e-15
3.93018e-15
3.92644e-15
3.92895e-15
3.93141e-15
3.93381e-15
3.93616e-15
3.93844e-15
3.94065e-15
3.94278e-15
3.94482e-15
3.94677e-15
3.94862e-15
3.95037e-15
3.95201e-15
3.95355e-15
3.95496e-15
3.95626e-15
3.95743e-15
3.95848e-15
3.95939e-15
3.96018e-15
3.96083e-15
3.96135e-15
3.96173e-15
3.96198e-15
3.96208e-15
3.96205e-15
3.96188e-15
3.96157e-15
3.96113e-15
3.96055e-15
3.95984e-15
3.959e-15
3.95803e-15
3.95693e-15
3.95571e-15
3.95436e-15
3.95291e-15
3.95133e-15
3.94965e-15
3.94787e-15
3.94598e-15
3.944e-15
3.94193e-15
3.93978e-15
3.93755e-15
3.93524e-15
3.93287e-15
3.93044e-15
3.92795e-15
3.92541e-15
3.92166e-15
3.92417e-15
3.92665e-15
3.92908e-15
3.93144e-15
3.93374e-15
3.93597e-15
3.93811e-15
3.94017e-15
3.94214e-15
3.94401e-15
3.94578e-15
3.94743e-15
3.94898e-15
3.95041e-15
3.95171e-15
3.9529e-15
3.95395e-15
3.95488e-15
3.95567e-15
3.95633e-15
3.95685e-15
3.95724e-15
3.95748e-15
3.95759e-15
3.95755e-15
3.95738e-15
3.95707e-15
3.95662e-15
3.95603e-15
3.95531e-15
3.95446e-15
3.95348e-15
3.95237e-15
3.95114e-15
3.94978e-15
3.94831e-15
3.94672e-15
3.94503e-15
3.94323e-15
3.94133e-15
3.93933e-15
3.93725e-15
3.93507e-15
3.93282e-15
3.9305e-15
3.92811e-15
3.92566e-15
3.92315e-15
3.92059e-15
3.91683e-15
3.91935e-15
3.92185e-15
3.92429e-15
3.92667e-15
3.92899e-15
3.93123e-15
3.93339e-15
3.93547e-15
3.93745e-15
3.93934e-15
3.94112e-15
3.94279e-15
3.94434e-15
3.94578e-15
3.9471e-15
3.94829e-15
3.94935e-15
3.95029e-15
3.95109e-15
3.95175e-15
3.95227e-15
3.95266e-15
3.95291e-15
3.95301e-15
3.95298e-15
3.9528e-15
3.95248e-15
3.95203e-15
3.95144e-15
3.95071e-15
3.94985e-15
3.94886e-15
3.94774e-15
3.94649e-15
3.94513e-15
3.94365e-15
3.94205e-15
3.94034e-15
3.93852e-15
3.93661e-15
3.9346e-15
3.9325e-15
3.93031e-15
3.92804e-15
3.9257e-15
3.9233e-15
3.92083e-15
3.91831e-15
3.91572e-15
3.91197e-15
3.91448e-15
3.917e-15
3.91945e-15
3.92185e-15
3.92418e-15
3.92644e-15
3.92862e-15
3.93071e-15
3.9327e-15
3.9346e-15
3.93639e-15
3.93807e-15
3.93964e-15
3.94109e-15
3.94241e-15
3.94361e-15
3.94469e-15
3.94562e-15
3.94643e-15
3.9471e-15
3.94762e-15
3.94801e-15
3.94826e-15
3.94836e-15
3.94832e-15
3.94814e-15
3.94782e-15
3.94736e-15
3.94677e-15
3.94603e-15
3.94516e-15
3.94416e-15
3.94304e-15
3.94178e-15
3.94041e-15
3.93891e-15
3.9373e-15
3.93558e-15
3.93376e-15
3.93183e-15
3.92981e-15
3.92769e-15
3.92549e-15
3.92321e-15
3.92086e-15
3.91844e-15
3.91596e-15
3.91342e-15
3.91082e-15
3.9121e-15
3.91458e-15
3.91698e-15
3.91932e-15
3.9216e-15
3.92379e-15
3.92589e-15
3.9279e-15
3.92981e-15
3.93161e-15
3.9333e-15
3.93488e-15
3.93633e-15
3.93767e-15
3.93887e-15
3.93995e-15
3.94089e-15
3.9417e-15
3.94237e-15
3.9429e-15
3.94329e-15
3.94354e-15
3.94364e-15
3.9436e-15
3.94342e-15
3.9431e-15
3.94263e-15
3.94203e-15
3.94129e-15
3.94041e-15
3.93941e-15
3.93827e-15
3.93701e-15
3.93562e-15
3.93412e-15
3.9325e-15
3.93077e-15
3.92894e-15
3.927e-15
3.92497e-15
3.92284e-15
3.92063e-15
3.91834e-15
3.91597e-15
3.91354e-15
3.91104e-15
3.90849e-15
3.90589e-15
3.90967e-15
3.91206e-15
3.91443e-15
3.91672e-15
3.91892e-15
3.92103e-15
3.92305e-15
3.92497e-15
3.92678e-15
3.92848e-15
3.93006e-15
3.93152e-15
3.93286e-15
3.93407e-15
3.93516e-15
3.9361e-15
3.93692e-15
3.93759e-15
3.93812e-15
3.93851e-15
3.93876e-15
3.93886e-15
3.93882e-15
3.93863e-15
3.9383e-15
3.93783e-15
3.93722e-15
3.93648e-15
3.9356e-15
3.93458e-15
3.93344e-15
3.93217e-15
3.93078e-15
3.92927e-15
3.92765e-15
3.92591e-15
3.92407e-15
3.92212e-15
3.92008e-15
3.91794e-15
3.91572e-15
3.91342e-15
3.91104e-15
3.9086e-15
3.9061e-15
3.90354e-15
3.90092e-15
3.90949e-15
3.91179e-15
3.91401e-15
3.91613e-15
3.91816e-15
3.92008e-15
3.9219e-15
3.9236e-15
3.92519e-15
3.92666e-15
3.928e-15
3.92922e-15
3.93031e-15
3.93126e-15
3.93207e-15
3.93275e-15
3.93328e-15
3.93367e-15
3.93391e-15
3.93402e-15
3.93397e-15
3.93378e-15
3.93345e-15
3.93298e-15
3.93236e-15
3.93161e-15
3.93073e-15
3.92971e-15
3.92856e-15
3.92729e-15
3.92589e-15
3.92437e-15
3.92274e-15
3.921e-15
3.91915e-15
3.9172e-15
3.91515e-15
3.913e-15
3.91077e-15
3.90847e-15
3.90608e-15
3.90363e-15
3.90112e-15
3.89855e-15
3.89593e-15
3.90684e-15
3.90907e-15
3.91118e-15
3.91322e-15
3.91516e-15
3.91698e-15
3.91869e-15
3.92028e-15
3.92175e-15
3.9231e-15
3.92432e-15
3.9254e-15
3.92636e-15
3.92718e-15
3.92785e-15
3.92839e-15
3.92878e-15
3.92902e-15
3.92912e-15
3.92907e-15
3.92888e-15
3.92854e-15
3.92807e-15
3.92745e-15
3.92669e-15
3.9258e-15
3.92478e-15
3.92363e-15
3.92235e-15
3.92095e-15
3.91943e-15
3.91779e-15
3.91604e-15
3.91419e-15
3.91223e-15
3.91018e-15
3.90803e-15
3.90579e-15
3.90348e-15
3.90109e-15
3.89863e-15
3.89612e-15
3.89354e-15
3.89092e-15
3.9041e-15
3.9062e-15
3.90826e-15
3.9102e-15
3.91202e-15
3.91373e-15
3.91532e-15
3.9168e-15
3.91815e-15
3.91937e-15
3.92046e-15
3.92141e-15
3.92223e-15
3.92291e-15
3.92344e-15
3.92383e-15
3.92408e-15
3.92417e-15
3.92412e-15
3.92393e-15
3.92359e-15
3.92311e-15
3.92248e-15
3.92172e-15
3.92083e-15
3.9198e-15
3.91865e-15
3.91736e-15
3.91596e-15
3.91444e-15
3.9128e-15
3.91105e-15
3.90919e-15
3.90723e-15
3.90517e-15
3.90302e-15
3.90078e-15
3.89847e-15
3.89607e-15
3.89361e-15
3.89109e-15
3.88851e-15
3.88588e-15
3.90325e-15
3.90521e-15
3.90703e-15
3.90873e-15
3.91032e-15
3.91181e-15
3.91316e-15
3.91438e-15
3.91546e-15
3.91643e-15
3.91725e-15
3.91793e-15
3.91846e-15
3.91885e-15
3.91909e-15
3.91918e-15
3.91913e-15
3.91893e-15
3.91859e-15
3.9181e-15
3.91748e-15
3.91671e-15
3.91581e-15
3.91478e-15
3.91362e-15
3.91234e-15
3.91094e-15
3.90941e-15
3.90777e-15
3.90602e-15
3.90416e-15
3.9022e-15
3.90014e-15
3.89799e-15
3.89575e-15
3.89343e-15
3.89103e-15
3.88857e-15
3.88605e-15
3.88347e-15
3.88084e-15
3.9002e-15
3.90202e-15
3.90371e-15
3.90529e-15
3.90679e-15
3.90814e-15
3.90935e-15
3.91044e-15
3.9114e-15
3.91222e-15
3.9129e-15
3.91344e-15
3.91382e-15
3.91406e-15
3.91415e-15
3.9141e-15
3.9139e-15
3.91355e-15
3.91306e-15
3.91243e-15
3.91166e-15
3.91076e-15
3.90972e-15
3.90856e-15
3.90728e-15
3.90588e-15
3.90435e-15
3.90272e-15
3.90096e-15
3.8991e-15
3.89714e-15
3.89508e-15
3.89293e-15
3.89069e-15
3.88837e-15
3.88597e-15
3.88351e-15
3.88099e-15
3.87841e-15
3.87578e-15
3.90175e-15
3.90309e-15
3.9043e-15
3.90537e-15
3.90635e-15
3.90716e-15
3.90785e-15
3.90838e-15
3.90876e-15
3.90899e-15
3.90909e-15
3.90903e-15
3.90883e-15
3.90847e-15
3.90798e-15
3.90735e-15
3.90657e-15
3.90567e-15
3.90463e-15
3.90347e-15
3.90219e-15
3.90079e-15
3.89927e-15
3.89763e-15
3.89588e-15
3.89402e-15
3.89206e-15
3.89e-15
3.88785e-15
3.88561e-15
3.88329e-15
3.8809e-15
3.87844e-15
3.87592e-15
3.87334e-15
3.87072e-15
3.90126e-15
3.90207e-15
3.90277e-15
3.90329e-15
3.90367e-15
3.9039e-15
3.904e-15
3.90394e-15
3.90372e-15
3.90337e-15
3.90286e-15
3.90223e-15
3.90146e-15
3.90055e-15
3.89951e-15
3.89835e-15
3.89707e-15
3.89567e-15
3.89415e-15
3.89252e-15
3.89077e-15
3.88892e-15
3.88696e-15
3.88491e-15
3.88276e-15
3.88052e-15
3.87821e-15
3.87582e-15
3.87336e-15
3.87084e-15
3.86827e-15
3.86565e-15
3.89766e-15
3.89818e-15
3.89855e-15
3.89877e-15
3.89888e-15
3.89881e-15
3.8986e-15
3.89823e-15
3.89772e-15
3.89709e-15
3.89631e-15
3.8954e-15
3.89436e-15
3.8932e-15
3.89193e-15
3.89053e-15
3.88902e-15
3.88739e-15
3.88565e-15
3.8838e-15
3.88185e-15
3.87979e-15
3.87765e-15
3.87542e-15
3.87311e-15
3.87073e-15
3.86827e-15
3.86576e-15
3.8632e-15
3.86058e-15
3.89374e-15
3.89367e-15
3.89345e-15
3.89307e-15
3.89256e-15
3.89194e-15
3.89115e-15
3.89022e-15
3.88919e-15
3.88803e-15
3.88677e-15
3.88538e-15
3.88387e-15
3.88225e-15
3.88051e-15
3.87867e-15
3.87672e-15
3.87467e-15
3.87254e-15
3.87031e-15
3.86801e-15
3.86563e-15
3.86319e-15
3.86068e-15
3.85812e-15
3.85551e-15
3.88676e-15
3.88596e-15
3.88503e-15
3.88401e-15
3.88284e-15
3.88159e-15
3.88021e-15
3.87871e-15
3.87709e-15
3.87536e-15
3.87353e-15
3.87158e-15
3.86955e-15
3.86742e-15
3.8652e-15
3.8629e-15
3.86054e-15
3.8581e-15
3.8556e-15
3.85305e-15
3.85045e-15
3.8788e-15
3.87763e-15
3.87641e-15
3.87503e-15
3.87353e-15
3.87193e-15
3.87021e-15
3.86838e-15
3.86644e-15
3.86441e-15
3.86229e-15
3.86009e-15
3.8578e-15
3.85544e-15
3.85302e-15
3.85053e-15
3.84799e-15
3.8454e-15
3.87122e-15
3.86984e-15
3.86835e-15
3.86676e-15
3.86505e-15
3.86323e-15
3.8613e-15
3.85928e-15
3.85717e-15
3.85498e-15
3.8527e-15
3.85035e-15
3.84794e-15
3.84546e-15
3.84294e-15
3.84036e-15
3.86603e-15
3.86465e-15
3.86316e-15
3.86159e-15
3.85989e-15
3.85808e-15
3.85616e-15
3.85415e-15
3.85206e-15
3.84987e-15
3.84761e-15
3.84527e-15
3.84287e-15
3.84041e-15
3.8379e-15
3.83533e-15
3.86084e-15
3.85946e-15
3.85797e-15
3.85643e-15
3.85474e-15
3.85293e-15
3.85103e-15
3.84902e-15
3.84695e-15
3.84478e-15
3.84252e-15
3.84021e-15
3.83782e-15
3.83537e-15
3.83287e-15
3.83032e-15
3.85127e-15
3.84959e-15
3.8478e-15
3.8459e-15
3.8439e-15
3.84186e-15
3.83969e-15
3.83744e-15
3.83515e-15
3.83278e-15
3.83034e-15
3.82786e-15
3.82533e-15
3.83677e-15
3.83462e-15
3.83238e-15
3.83012e-15
3.82776e-15
3.82534e-15
3.82287e-15
3.82037e-15
3.8251e-15
3.82275e-15
3.82035e-15
3.81791e-15
3.81542e-15
4.0153e-15
4.01555e-15
4.0157e-15
4.01577e-15
4.01573e-15
4.0156e-15
4.01538e-15
4.01507e-15
4.01466e-15
4.01416e-15
4.01357e-15
4.01288e-15
4.0121e-15
4.01123e-15
4.01027e-15
4.00922e-15
4.00808e-15
4.00685e-15
4.00554e-15
4.00413e-15
4.00264e-15
4.00106e-15
3.99939e-15
3.99764e-15
3.9958e-15
3.99388e-15
3.99187e-15
3.98975e-15
4.01261e-15
4.01287e-15
4.01304e-15
4.0131e-15
4.01306e-15
4.01292e-15
4.01269e-15
4.01236e-15
4.01192e-15
4.01139e-15
4.01077e-15
4.01005e-15
4.00923e-15
4.00831e-15
4.0073e-15
4.0062e-15
4.005e-15
4.00372e-15
4.00234e-15
4.00087e-15
3.99931e-15
3.99767e-15
3.99594e-15
3.99413e-15
3.99224e-15
3.99028e-15
3.98826e-15
3.98622e-15
4.00979e-15
4.01006e-15
4.01023e-15
4.01029e-15
4.01025e-15
4.01011e-15
4.00986e-15
4.00951e-15
4.00906e-15
4.0085e-15
4.00784e-15
4.00708e-15
4.00623e-15
4.00527e-15
4.00421e-15
4.00306e-15
4.00181e-15
4.00047e-15
3.99904e-15
3.99752e-15
3.9959e-15
3.9942e-15
3.99242e-15
3.99057e-15
3.98864e-15
3.98665e-15
3.98462e-15
3.98256e-15
4.00683e-15
4.00711e-15
4.00728e-15
4.00734e-15
4.0073e-15
4.00715e-15
4.00689e-15
4.00652e-15
4.00604e-15
4.00546e-15
4.00478e-15
4.00399e-15
4.00309e-15
4.0021e-15
4.001e-15
3.9998e-15
3.99851e-15
3.99712e-15
3.99563e-15
3.99406e-15
3.9924e-15
3.99065e-15
3.98882e-15
3.98692e-15
3.98496e-15
3.98294e-15
3.98089e-15
3.97878e-15
4.00372e-15
4.00401e-15
4.00419e-15
4.00425e-15
4.0042e-15
4.00404e-15
4.00377e-15
4.00339e-15
4.00289e-15
4.00229e-15
4.00158e-15
4.00075e-15
3.99983e-15
3.99879e-15
3.99766e-15
3.99642e-15
3.99508e-15
3.99365e-15
3.99212e-15
3.9905e-15
3.98879e-15
3.987e-15
3.98513e-15
3.98319e-15
3.98119e-15
3.97914e-15
3.97704e-15
3.97489e-15
4.00047e-15
4.00077e-15
4.00095e-15
4.00102e-15
4.00096e-15
4.0008e-15
4.00052e-15
4.00012e-15
3.99961e-15
3.99898e-15
3.99824e-15
3.99739e-15
3.99643e-15
3.99537e-15
3.99419e-15
3.99292e-15
3.99154e-15
3.99006e-15
3.98849e-15
3.98683e-15
3.98508e-15
3.98325e-15
3.98134e-15
3.97937e-15
3.97733e-15
3.97524e-15
3.97309e-15
3.97089e-15
3.99709e-15
3.99739e-15
3.99758e-15
3.99764e-15
3.99759e-15
3.99742e-15
3.99712e-15
3.99671e-15
3.99618e-15
3.99554e-15
3.99478e-15
3.9939e-15
3.99292e-15
3.99182e-15
3.99061e-15
3.9893e-15
3.98788e-15
3.98637e-15
3.98476e-15
3.98306e-15
3.98127e-15
3.9794e-15
3.97746e-15
3.97544e-15
3.97337e-15
3.97123e-15
3.96905e-15
3.9668e-15
3.99357e-15
3.99388e-15
3.99407e-15
3.99414e-15
3.99408e-15
3.99391e-15
3.9936e-15
3.99318e-15
3.99264e-15
3.99197e-15
3.99119e-15
3.99029e-15
3.98928e-15
3.98815e-15
3.98691e-15
3.98557e-15
3.98412e-15
3.98257e-15
3.98092e-15
3.97919e-15
3.97736e-15
3.97546e-15
3.97347e-15
3.97142e-15
3.96931e-15
3.96713e-15
3.96491e-15
3.96262e-15
3.98993e-15
3.99025e-15
3.99044e-15
3.99051e-15
3.99045e-15
3.99027e-15
3.98996e-15
3.98952e-15
3.98896e-15
3.98828e-15
3.98748e-15
3.98656e-15
3.98552e-15
3.98437e-15
3.9831e-15
3.98172e-15
3.98024e-15
3.97866e-15
3.97698e-15
3.97521e-15
3.97335e-15
3.97141e-15
3.9694e-15
3.96731e-15
3.96516e-15
3.96294e-15
3.96068e-15
3.95835e-15
3.98617e-15
3.98649e-15
3.98669e-15
3.98676e-15
3.9867e-15
3.98651e-15
3.98619e-15
3.98574e-15
3.98517e-15
3.98447e-15
3.98365e-15
3.98271e-15
3.98165e-15
3.98047e-15
3.97918e-15
3.97778e-15
3.97627e-15
3.97465e-15
3.97294e-15
3.97114e-15
3.96925e-15
3.96728e-15
3.96523e-15
3.9631e-15
3.96092e-15
3.95867e-15
3.95636e-15
3.95399e-15
3.98229e-15
3.98262e-15
3.98282e-15
3.98289e-15
3.98282e-15
3.98263e-15
3.9823e-15
3.98185e-15
3.98126e-15
3.98055e-15
3.97972e-15
3.97876e-15
3.97767e-15
3.97647e-15
3.97515e-15
3.97372e-15
3.97219e-15
3.97055e-15
3.96881e-15
3.96698e-15
3.96506e-15
3.96305e-15
3.96097e-15
3.95881e-15
3.95659e-15
3.95431e-15
3.95197e-15
3.94957e-15
3.9783e-15
3.97864e-15
3.97884e-15
3.97891e-15
3.97884e-15
3.97864e-15
3.9783e-15
3.97784e-15
3.97725e-15
3.97652e-15
3.97567e-15
3.9747e-15
3.97359e-15
3.97237e-15
3.97103e-15
3.96957e-15
3.96801e-15
3.96635e-15
3.96458e-15
3.96272e-15
3.96077e-15
3.95874e-15
3.95663e-15
3.95444e-15
3.95219e-15
3.94987e-15
3.9475e-15
3.94506e-15
3.97421e-15
3.97455e-15
3.97476e-15
3.97482e-15
3.97475e-15
3.97454e-15
3.9742e-15
3.97372e-15
3.97313e-15
3.9724e-15
3.97153e-15
3.97054e-15
3.96941e-15
3.96817e-15
3.96681e-15
3.96533e-15
3.96374e-15
3.96205e-15
3.96027e-15
3.95838e-15
3.95641e-15
3.95434e-15
3.95221e-15
3.94999e-15
3.94771e-15
3.94537e-15
3.94296e-15
3.9405e-15
3.97002e-15
3.97037e-15
3.97057e-15
3.97064e-15
3.97056e-15
3.97035e-15
3.96999e-15
3.96951e-15
3.96892e-15
3.96817e-15
3.96729e-15
3.96628e-15
3.96514e-15
3.96388e-15
3.9625e-15
3.961e-15
3.95939e-15
3.95767e-15
3.95587e-15
3.95396e-15
3.95196e-15
3.94987e-15
3.94771e-15
3.94547e-15
3.94316e-15
3.94079e-15
3.93836e-15
3.93587e-15
3.96461e-15
3.96386e-15
3.96297e-15
3.96194e-15
3.96079e-15
3.9595e-15
3.9581e-15
3.95658e-15
3.95495e-15
3.95321e-15
3.9514e-15
3.94947e-15
3.94744e-15
3.94533e-15
3.94315e-15
3.94089e-15
3.93855e-15
3.93616e-15
3.9337e-15
3.93119e-15
3.94685e-15
3.9449e-15
3.94285e-15
3.94071e-15
3.93852e-15
3.93624e-15
3.93388e-15
3.93147e-15
3.92899e-15
3.92645e-15
3.93384e-15
3.93153e-15
3.92915e-15
3.92673e-15
3.92423e-15
3.92167e-15
3.92194e-15
3.91943e-15
3.91684e-15
3.8017e-15
3.79668e-15
3.79164e-15
3.88985e-15
3.88478e-15
3.87967e-15
3.87455e-15
3.86942e-15
3.86427e-15
3.85913e-15
3.85398e-15
3.84884e-15
3.8437e-15
3.83857e-15
3.83345e-15
3.82835e-15
3.82327e-15
3.8182e-15
3.81316e-15
3.80814e-15
3.80312e-15
3.79807e-15
3.79301e-15
3.9064e-15
3.90137e-15
3.89632e-15
3.89124e-15
3.88615e-15
3.88104e-15
3.87591e-15
3.87078e-15
3.86563e-15
3.86048e-15
3.85533e-15
3.85018e-15
3.84504e-15
3.8399e-15
3.83478e-15
3.82967e-15
3.82458e-15
3.8195e-15
3.81445e-15
3.80943e-15
3.8044e-15
3.79935e-15
3.79427e-15
3.90763e-15
3.90262e-15
3.89758e-15
3.89251e-15
3.88741e-15
3.8823e-15
3.87717e-15
3.87202e-15
3.86687e-15
3.86172e-15
3.85656e-15
3.85141e-15
3.84625e-15
3.84111e-15
3.83598e-15
3.83086e-15
3.82576e-15
3.82068e-15
3.81562e-15
3.81059e-15
3.80555e-15
3.80049e-15
3.79542e-15
3.90875e-15
3.90375e-15
3.89872e-15
3.89365e-15
3.88855e-15
3.88343e-15
3.8783e-15
3.87315e-15
3.868e-15
3.86283e-15
3.85767e-15
3.85251e-15
3.84735e-15
3.8422e-15
3.83707e-15
3.83194e-15
3.82683e-15
3.82174e-15
3.81667e-15
3.81162e-15
3.80658e-15
3.80152e-15
3.79644e-15
3.90978e-15
3.90478e-15
3.89974e-15
3.89467e-15
3.88957e-15
3.88445e-15
3.87931e-15
3.87416e-15
3.869e-15
3.86383e-15
3.85866e-15
3.85349e-15
3.84833e-15
3.84317e-15
3.83803e-15
3.83289e-15
3.82777e-15
3.82267e-15
3.81759e-15
3.81253e-15
3.80749e-15
3.80242e-15
3.79735e-15
3.99835e-15
3.99492e-15
3.99136e-15
3.98767e-15
3.98386e-15
3.97993e-15
3.97589e-15
3.97174e-15
3.96749e-15
3.96315e-15
3.95872e-15
3.95421e-15
3.94962e-15
3.94495e-15
3.94022e-15
3.93542e-15
3.93057e-15
3.92567e-15
3.92072e-15
3.91574e-15
3.91074e-15
3.90572e-15
3.90066e-15
3.89558e-15
3.89047e-15
3.88534e-15
3.88019e-15
3.87504e-15
3.86987e-15
3.8647e-15
3.85952e-15
3.85435e-15
3.84918e-15
3.84401e-15
3.83886e-15
3.83372e-15
3.82859e-15
3.82348e-15
3.81839e-15
3.81333e-15
3.80827e-15
3.80321e-15
3.79813e-15
3.99891e-15
3.99552e-15
3.99198e-15
3.98831e-15
3.98452e-15
3.9806e-15
3.97658e-15
3.97244e-15
3.96821e-15
3.96388e-15
3.95946e-15
3.95495e-15
3.95037e-15
3.94571e-15
3.94099e-15
3.9362e-15
3.93136e-15
3.92647e-15
3.92153e-15
3.91656e-15
3.91155e-15
3.90651e-15
3.90144e-15
3.89635e-15
3.89124e-15
3.8861e-15
3.88095e-15
3.87578e-15
3.87061e-15
3.86543e-15
3.86025e-15
3.85507e-15
3.8499e-15
3.84473e-15
3.83956e-15
3.83442e-15
3.82928e-15
3.82417e-15
3.81907e-15
3.81399e-15
3.80893e-15
3.80387e-15
3.79879e-15
3.99938e-15
3.99601e-15
3.99249e-15
3.98884e-15
3.98506e-15
3.98116e-15
3.97714e-15
3.97302e-15
3.96879e-15
3.96447e-15
3.96006e-15
3.95556e-15
3.95099e-15
3.94634e-15
3.94162e-15
3.93684e-15
3.93201e-15
3.92712e-15
3.92219e-15
3.91721e-15
3.9122e-15
3.90716e-15
3.90208e-15
3.89698e-15
3.89186e-15
3.88672e-15
3.88157e-15
3.8764e-15
3.87122e-15
3.86603e-15
3.86085e-15
3.85566e-15
3.85048e-15
3.84531e-15
3.84014e-15
3.83499e-15
3.82985e-15
3.82472e-15
3.81962e-15
3.81454e-15
3.80947e-15
3.80441e-15
3.79933e-15
4.01466e-15
4.01195e-15
4.00911e-15
4.00612e-15
4.003e-15
3.99978e-15
3.99641e-15
3.9929e-15
3.98925e-15
3.98548e-15
3.98158e-15
3.97758e-15
3.97346e-15
3.96924e-15
3.96493e-15
3.96052e-15
3.95603e-15
3.95146e-15
3.94682e-15
3.94211e-15
3.93733e-15
3.9325e-15
3.92762e-15
3.92269e-15
3.91771e-15
3.9127e-15
3.90765e-15
3.90258e-15
3.89747e-15
3.89235e-15
3.8872e-15
3.88204e-15
3.87687e-15
3.87169e-15
3.8665e-15
3.86131e-15
3.85612e-15
3.85093e-15
3.84575e-15
3.84058e-15
3.83542e-15
3.83028e-15
3.82515e-15
3.82005e-15
3.81496e-15
3.80989e-15
3.80482e-15
3.79974e-15
4.0149e-15
4.01221e-15
4.00938e-15
4.00641e-15
4.0033e-15
4.00006e-15
3.99669e-15
3.99318e-15
3.98954e-15
3.98577e-15
3.98189e-15
3.97788e-15
3.97377e-15
3.96956e-15
3.96525e-15
3.96085e-15
3.95636e-15
3.9518e-15
3.94716e-15
3.94245e-15
3.93768e-15
3.93285e-15
3.92796e-15
3.92303e-15
3.91806e-15
3.91305e-15
3.908e-15
3.90292e-15
3.89782e-15
3.89269e-15
3.88754e-15
3.88237e-15
3.8772e-15
3.87201e-15
3.86682e-15
3.86163e-15
3.85644e-15
3.85125e-15
3.84607e-15
3.84089e-15
3.83573e-15
3.83058e-15
3.82545e-15
3.82034e-15
3.81525e-15
3.81018e-15
3.80511e-15
3.80003e-15
4.01505e-15
4.01237e-15
4.00955e-15
4.00658e-15
4.00348e-15
4.00024e-15
3.99686e-15
3.99335e-15
3.98971e-15
3.98595e-15
3.98206e-15
3.97806e-15
3.97395e-15
3.96974e-15
3.96543e-15
3.96104e-15
3.95655e-15
3.95199e-15
3.94735e-15
3.94264e-15
3.93787e-15
3.93305e-15
3.92816e-15
3.92323e-15
3.91826e-15
3.91325e-15
3.9082e-15
3.90312e-15
3.89801e-15
3.89288e-15
3.88773e-15
3.88256e-15
3.87739e-15
3.8722e-15
3.86701e-15
3.86181e-15
3.85662e-15
3.85143e-15
3.84624e-15
3.84107e-15
3.8359e-15
3.83075e-15
3.82562e-15
3.82051e-15
3.81542e-15
3.81034e-15
3.80527e-15
3.80019e-15
4.01511e-15
4.01243e-15
4.00961e-15
4.00664e-15
4.00354e-15
4.0003e-15
3.99692e-15
3.9934e-15
3.98976e-15
3.98599e-15
3.98211e-15
3.97811e-15
3.974e-15
3.96979e-15
3.96548e-15
3.96108e-15
3.9566e-15
3.95204e-15
3.9474e-15
3.94269e-15
3.93792e-15
3.9331e-15
3.92821e-15
3.92328e-15
3.91831e-15
3.9133e-15
3.90825e-15
3.90316e-15
3.89806e-15
3.89292e-15
3.88777e-15
3.88261e-15
3.87743e-15
3.87224e-15
3.86705e-15
3.86185e-15
3.85666e-15
3.85146e-15
3.84628e-15
3.8411e-15
3.83594e-15
3.83079e-15
3.82566e-15
3.82054e-15
3.81545e-15
3.81038e-15
3.80531e-15
3.80023e-15
4.01507e-15
4.01239e-15
4.00956e-15
4.0066e-15
4.00349e-15
4.00024e-15
3.99685e-15
3.99333e-15
3.98969e-15
3.98591e-15
3.98202e-15
3.97802e-15
3.97391e-15
3.9697e-15
3.96539e-15
3.96099e-15
3.95651e-15
3.95194e-15
3.94731e-15
3.9426e-15
3.93783e-15
3.933e-15
3.92812e-15
3.92319e-15
3.91821e-15
3.9132e-15
3.90815e-15
3.90306e-15
3.89796e-15
3.89282e-15
3.88767e-15
3.88251e-15
3.87733e-15
3.87214e-15
3.86695e-15
3.86175e-15
3.85656e-15
3.85136e-15
3.84618e-15
3.84101e-15
3.83584e-15
3.83069e-15
3.82556e-15
3.82045e-15
3.81536e-15
3.81029e-15
3.80522e-15
3.80014e-15
4.01494e-15
4.01225e-15
4.00942e-15
4.00644e-15
4.00332e-15
4.00006e-15
3.99667e-15
3.99314e-15
3.98949e-15
3.98571e-15
3.98181e-15
3.97781e-15
3.97369e-15
3.96947e-15
3.96516e-15
3.96076e-15
3.95627e-15
3.95171e-15
3.94707e-15
3.94236e-15
3.93759e-15
3.93276e-15
3.92787e-15
3.92294e-15
3.91797e-15
3.91295e-15
3.9079e-15
3.90282e-15
3.89771e-15
3.89258e-15
3.88742e-15
3.88226e-15
3.87708e-15
3.87189e-15
3.8667e-15
3.86151e-15
3.85631e-15
3.85112e-15
3.84594e-15
3.84077e-15
3.83561e-15
3.83046e-15
3.82534e-15
3.82023e-15
3.81514e-15
3.81007e-15
3.805e-15
3.79992e-15
4.01472e-15
4.01201e-15
4.00916e-15
4.00617e-15
4.00304e-15
3.99977e-15
3.99637e-15
3.99283e-15