/*--------------------------------*- C++ -*----------------------------------*\
  =========                 |
  \\      /  F ield         | OpenFOAM: The Open Source CFD Toolbox
   \\    /   O peration     | Website:  https://openfoam.org
    \\  /    A nd           | Version:  7
     \\/     M anipulation  |
\*---------------------------------------------------------------------------*/
FoamFile
{
    version     2.0;
    format      ascii;
    class       volVectorField;
    location    "200000";
    object      U;
}
// * * * * * * * * * * * * * * * * * * * * * * * * * * * * * * * * * * * * * //

dimensions      [0 1 -1 0 0 0 0];

internalField   nonuniform List<vector> 
4825
(
(-1.47982e-18 3.50157e-19 -0.0125176)
(-8.04862e-19 -5.73468e-19 -0.0125395)
(-1.56462e-18 3.33908e-19 -0.0124638)
(-9.45297e-19 -4.34985e-19 -0.0124857)
(-1.58178e-18 4.08876e-20 -0.0125072)
(-1.08572e-18 2.42226e-19 -0.0125281)
(-9.26172e-19 -4.88448e-19 -0.0125483)
(-1.67441e-18 4.33067e-19 -0.0124095)
(-1.21934e-18 -2.20421e-19 -0.0124316)
(-1.36907e-18 -2.1532e-19 -0.0124531)
(-1.25389e-18 3.8733e-19 -0.012474)
(-7.89836e-19 -6.98512e-19 -0.0124943)
(-1.71152e-18 5.06153e-19 -0.0123547)
(-1.445e-18 -7.3618e-20 -0.0123769)
(-1.54913e-18 4.55853e-21 -0.0123985)
(-1.26018e-18 3.01054e-19 -0.0124195)
(-7.72054e-19 -7.27819e-19 -0.0124399)
(-1.7667e-18 6.04163e-19 -0.0122995)
(-1.31789e-18 -3.04322e-19 -0.0123217)
(-1.7265e-18 1.86417e-19 -0.0123434)
(-1.17408e-18 2.85947e-20 -0.0123645)
(-7.7518e-19 -7.22256e-19 -0.0123849)
(-1.68762e-18 4.67428e-19 -0.0122437)
(-9.02633e-19 -9.05385e-19 -0.012266)
(-1.5514e-18 -5.37266e-20 -0.0122878)
(-1.05148e-18 -2.89513e-19 -0.0123089)
(-7.26494e-19 -7.6504e-19 -0.0123294)
(-1.49149e-18 1.18681e-19 -0.0121874)
(-7.06987e-19 -1.246e-18 -0.0122098)
(-1.34551e-18 -2.86217e-19 -0.0122317)
(-1.0267e-18 -4.3787e-19 -0.0122529)
(-5.94865e-19 -8.7227e-19 -0.0122734)
(-1.57291e-18 1.08389e-19 -0.0121306)
(-8.76968e-19 -1.12633e-18 -0.0121531)
(-1.35455e-18 -2.41834e-19 -0.012175)
(-1.14166e-18 -4.11259e-19 -0.0121963)
(-5.52473e-19 -8.84237e-19 -0.0122169)
(-1.7704e-18 3.00611e-19 -0.0120733)
(-1.22753e-18 -8.09844e-19 -0.0120958)
(-1.37641e-18 -2.05574e-19 -0.0121178)
(-1.30053e-18 -3.33883e-19 -0.0121392)
(-6.19717e-19 -7.91278e-19 -0.0121599)
(-1.70756e-18 2.57468e-19 -0.0120154)
(-1.77563e-18 -2.78149e-19 -0.012038)
(-1.39538e-18 -2.10171e-19 -0.01206)
(-1.49521e-18 -1.95347e-19 -0.0120815)
(-7.17053e-19 -6.85293e-19 -0.0121022)
(-1.36625e-18 -2.01105e-20 -0.011957)
(-2.2422e-18 1.91178e-19 -0.0119796)
(-1.54404e-18 -1.14766e-19 -0.0120017)
(-1.6267e-18 -1.38709e-19 -0.0120232)
(-7.77164e-19 -5.49705e-19 -0.0120441)
(-1.00712e-18 -3.26056e-19 -0.0118979)
(-2.30824e-18 2.52482e-19 -0.0119206)
(-1.68937e-18 -6.03077e-20 -0.0119428)
(-1.72634e-18 -1.42216e-19 -0.0119644)
(-7.83082e-19 -4.69813e-19 -0.0119853)
(-8.9936e-19 -3.72901e-19 -0.0118383)
(-2.11146e-18 3.5708e-20 -0.0118611)
(-1.57461e-18 -3.09203e-19 -0.0118833)
(-1.84458e-18 -1.26277e-19 -0.011905)
(-7.72353e-19 -4.49089e-19 -0.0119259)
(-8.72516e-19 -3.70375e-19 -0.011778)
(-1.89598e-18 -2.61814e-19 -0.0118009)
(-1.2952e-18 -7.30666e-19 -0.0118232)
(-1.91556e-18 -1.273e-19 -0.0118449)
(-7.12048e-19 -5.50674e-19 -0.0117171)
(-1.81727e-18 -4.16572e-19 -0.0117401)
(-1.14864e-18 -9.53315e-19 -0.0117625)
(-1.9804e-18 -8.82372e-20 -0.0117842)
(-5.79912e-19 -6.97849e-19 -0.0116556)
(-1.94782e-18 -3.05172e-19 -0.0116786)
(-1.15379e-18 -9.772e-19 -0.0117011)
(-2.14634e-18 1.11288e-19 -0.0117229)
(-4.92506e-19 -7.70228e-19 -0.0115934)
(-2.13008e-18 -1.19154e-19 -0.0116165)
(-1.22771e-18 -9.06003e-19 -0.011639)
(-4.19203e-19 -8.3447e-19 -0.0115305)
(-2.17776e-18 -6.84088e-20 -0.0115536)
(-1.20053e-18 -9.5071e-19 -0.0115762)
(-4.08355e-19 -8.3181e-19 -0.0114668)
(-2.14824e-18 -1.20406e-19 -0.0114901)
(-4.74574e-19 -7.32255e-19 -0.0114025)
(-2.13788e-18 -1.7817e-19 -0.0114258)
(-5.17111e-19 -6.46138e-19 -0.0113373)
(-2.16908e-18 -1.9762e-19 -0.0113607)
(-5.81301e-19 -5.2437e-19 -0.0112714)
(-2.10163e-18 -3.30507e-19 -0.0112949)
(-8.03444e-19 -2.54427e-19 -0.0112047)
(-1.99968e-18 -5.49504e-19 -0.0112283)
(-9.34794e-19 -8.4224e-20 -0.0111371)
(-3.96172e-19 -1.99897e-19 -0.0132776)
(-7.78651e-19 -3.1353e-19 -0.0132988)
(1.28718e-19 8.927e-20 -0.0133196)
(-9.01709e-19 3.87843e-19 -0.0133397)
(-1.33144e-18 -5.90578e-20 -0.0133592)
(-3.45292e-19 -4.94585e-20 -0.0133781)
(-8.86898e-19 -1.89777e-19 -0.0133963)
(1.13996e-19 3.07527e-19 -0.0134137)
(-9.27642e-19 3.33635e-19 -0.0134303)
(-2.44812e-19 8.79369e-19 -0.0134461)
(-5.47745e-19 6.66196e-19 -0.0134611)
(-8.6309e-19 6.52329e-19 -0.0134752)
(-6.22352e-19 2.2955e-19 -0.0134884)
(-6.20632e-19 4.34927e-19 -0.0135006)
(-1.54202e-18 3.49053e-19 -0.013512)
(-1.51206e-18 1.2244e-18 -0.0135223)
(-1.39582e-18 1.30186e-18 -0.0135317)
(-6.48306e-19 1.11071e-18 -0.0135401)
(-3.21477e-19 6.1234e-19 -0.0135474)
(-2.22752e-19 4.68467e-19 -0.0135537)
(-5.10557e-19 -2.47215e-19 -0.0132293)
(-7.46869e-19 -3.73975e-19 -0.0132507)
(2.00984e-20 -4.68018e-20 -0.0132714)
(-9.462e-19 4.57014e-19 -0.0132916)
(-8.10649e-19 2.64329e-19 -0.0133112)
(-3.49269e-19 -5.28447e-20 -0.0133301)
(-8.13802e-19 -2.11117e-19 -0.0133483)
(5.00899e-20 2.53013e-19 -0.0133657)
(-1.08155e-18 2.70607e-19 -0.0133824)
(-1.89972e-19 8.6353e-19 -0.0133983)
(-3.80867e-19 8.16997e-19 -0.0134133)
(-6.84238e-19 7.59517e-19 -0.0134274)
(-3.16939e-19 3.09172e-19 -0.0134406)
(-7.97769e-19 4.43446e-19 -0.0134529)
(-1.4841e-18 4.71471e-19 -0.0134643)
(-1.92205e-18 1.09496e-18 -0.0134747)
(-1.16718e-18 1.25199e-18 -0.0134841)
(-5.50813e-19 1.08019e-18 -0.0134924)
(-3.09266e-19 6.27996e-19 -0.0134998)
(-5.20977e-19 3.90452e-19 -0.0135062)
(-6.07663e-19 -2.61687e-19 -0.0131808)
(-7.97141e-19 -4.83376e-19 -0.0132021)
(6.29483e-22 -1.12795e-19 -0.013223)
(-7.41695e-19 6.02063e-19 -0.0132432)
(-4.55942e-19 4.58308e-19 -0.0132628)
(-1.92843e-19 7.98363e-20 -0.0132818)
(-5.84397e-19 -1.03188e-19 -0.0133)
(-7.63975e-20 2.23951e-19 -0.0133175)
(-1.36168e-18 1.31218e-19 -0.0133342)
(-1.31089e-19 7.96966e-19 -0.0133501)
(-3.09014e-19 8.90567e-19 -0.0133651)
(-5.60603e-19 8.17025e-19 -0.0133793)
(-1.15059e-19 4.34679e-19 -0.0133926)
(-9.89535e-19 4.80381e-19 -0.0134049)
(-1.33851e-18 5.718e-19 -0.0134163)
(-1.71644e-18 1.11401e-18 -0.0134267)
(-9.41582e-19 1.21292e-18 -0.0134361)
(-5.38583e-19 1.05072e-18 -0.0134445)
(-3.3398e-19 6.5804e-19 -0.0134519)
(-7.1525e-19 3.05995e-19 -0.0134583)
(-5.96127e-19 -1.28281e-19 -0.0131319)
(-8.31142e-19 -6.01512e-19 -0.0131533)
(4.66885e-19 1.05366e-19 -0.0131742)
(-6.1862e-19 6.90716e-19 -0.0131944)
(-4.04204e-19 4.74589e-19 -0.0132141)
(-7.14517e-20 1.8004e-19 -0.0132331)
(-3.6684e-19 2.43299e-20 -0.0132514)
(-2.22289e-20 3.46758e-19 -0.0132689)
(-1.30461e-18 1.47455e-19 -0.0132857)
(-9.07656e-20 6.94272e-19 -0.0133016)
(-5.94858e-19 8.19384e-19 -0.0133167)
(-6.3829e-19 7.94139e-19 -0.0133309)
(-2.45361e-19 4.11378e-19 -0.0133442)
(-9.26291e-19 5.84711e-19 -0.0133565)
(-1.0157e-18 7.06355e-19 -0.0133679)
(-1.36494e-18 1.18244e-18 -0.0133784)
(-7.48077e-19 1.18877e-18 -0.0133878)
(-4.53844e-19 1.05715e-18 -0.0133962)
(-3.70515e-19 7.0126e-19 -0.0134037)
(-7.75122e-19 2.51334e-19 -0.01341)
(-5.04261e-19 2.62041e-20 -0.0130827)
(-5.44178e-19 -5.25483e-19 -0.0131041)
(8.07608e-19 2.56822e-19 -0.013125)
(-6.98109e-19 7.19526e-19 -0.0131454)
(-4.3302e-19 4.10054e-19 -0.0131651)
(5.2076e-20 2.51526e-19 -0.0131841)
(-3.50923e-19 1.91649e-20 -0.0132024)
(-7.4262e-20 4.0022e-19 -0.01322)
(-1.30355e-18 1.69441e-19 -0.0132368)
(-2.00781e-19 6.05868e-19 -0.0132528)
(-9.41771e-19 7.18107e-19 -0.0132679)
(-6.52437e-19 7.6474e-19 -0.0132821)
(-3.68292e-19 3.82171e-19 -0.0132954)
(-9.12452e-19 6.05648e-19 -0.0133078)
(-7.93827e-19 7.81831e-19 -0.0133193)
(-1.1047e-18 1.24176e-18 -0.0133297)
(-5.29766e-19 1.19534e-18 -0.0133392)
(-4.64791e-19 1.05813e-18 -0.0133476)
(-3.29145e-19 7.70793e-19 -0.0133551)
(-6.58768e-19 2.15966e-19 -0.0133615)
(-3.09366e-19 1.94699e-19 -0.0130332)
(-4.74003e-19 -5.98864e-19 -0.0130546)
(7.08637e-19 1.13474e-19 -0.0130756)
(-5.77438e-19 8.86828e-19 -0.013096)
(-4.5986e-19 3.3681e-19 -0.0131157)
(9.43105e-20 2.8695e-19 -0.0131348)
(-5.57058e-19 -6.73762e-20 -0.0131532)
(-2.85006e-19 3.8369e-19 -0.0131708)
(-1.44765e-18 1.05309e-19 -0.0131876)
(-3.85306e-19 4.61568e-19 -0.0132036)
(-1.27786e-18 6.01409e-19 -0.0132188)
(-6.98189e-19 7.11628e-19 -0.013233)
(-3.4353e-19 4.06882e-19 -0.0132464)
(-1.1096e-18 5.58842e-19 -0.0132588)
(-9.66342e-19 7.20484e-19 -0.0132703)
(-9.51476e-19 1.25585e-18 -0.0132807)
(-2.84193e-19 1.23234e-18 -0.0132902)
(-6.30458e-19 1.03752e-18 -0.0132987)
(-4.86489e-19 7.72693e-19 -0.0133061)
(-5.35791e-19 1.79196e-19 -0.0133125)
(-1.37951e-19 3.55817e-19 -0.0129833)
(-4.69535e-19 -6.60881e-19 -0.0130048)
(5.2645e-19 -1.67652e-19 -0.0130258)
(-5.43732e-19 9.74658e-19 -0.0130462)
(-5.33531e-19 2.67433e-19 -0.013066)
(1.83389e-19 3.65357e-19 -0.0130851)
(-1.1375e-18 -3.70288e-19 -0.0131035)
(-3.41754e-19 4.26785e-19 -0.0131212)
(-1.41164e-18 1.50695e-19 -0.0131381)
(-2.16639e-19 5.37084e-19 -0.0131541)
(-1.6418e-18 4.62684e-19 -0.0131693)
(-8.64881e-19 5.53399e-19 -0.0131836)
(-2.98947e-19 4.62815e-19 -0.013197)
(-1.2239e-18 5.74735e-19 -0.0132094)
(-1.03735e-18 6.4518e-19 -0.0132209)
(-8.61527e-19 1.19243e-18 -0.0132314)
(7.71649e-20 1.3292e-18 -0.0132409)
(-7.1842e-19 1.0901e-18 -0.0132494)
(-6.06107e-19 7.66451e-19 -0.0132569)
(-5.15697e-19 1.07443e-19 -0.0132633)
(-8.04895e-20 3.67538e-19 -0.012933)
(-2.17577e-19 -4.77094e-19 -0.0129546)
(2.84996e-19 -4.44753e-19 -0.0129756)
(-5.82693e-19 9.8861e-19 -0.0129961)
(-6.12487e-19 1.50661e-19 -0.0130159)
(-2.74114e-21 3.60735e-19 -0.0130351)
(-1.82464e-18 -7.08893e-19 -0.0130535)
(-3.64552e-19 3.85768e-19 -0.0130712)
(-1.3902e-18 1.31992e-19 -0.0130882)
(1.92504e-19 7.51601e-19 -0.0131042)
(-1.63669e-18 5.67997e-19 -0.0131195)
(-7.64998e-19 4.8352e-19 -0.0131338)
(-4.99241e-19 3.8403e-19 -0.0131472)
(-9.85963e-19 7.02245e-19 -0.0131597)
(-7.30003e-19 7.0235e-19 -0.0131712)
(-8.29812e-19 1.09377e-18 -0.0131817)
(2.9084e-20 1.3191e-18 -0.0131913)
(-6.49852e-19 1.20392e-18 -0.0131998)
(-4.42366e-19 8.161e-19 -0.0132073)
(-5.31515e-19 5.49659e-21 -0.0132137)
(4.24979e-19 6.87169e-19 -0.0132191)
(-1.99782e-19 4.55879e-19 -0.0132234)
(-2.50521e-19 2.15637e-19 -0.0132266)
(1.56987e-19 4.10124e-19 -0.0132288)
(2.18686e-19 1.55767e-19 -0.0132299)
(3.01684e-19 -4.92471e-19 -0.0132299)
(-2.45707e-19 3.35494e-19 -0.0132288)
(1.80987e-19 -9.22053e-20 -0.0132266)
(-1.40906e-19 -1.17762e-19 -0.0132234)
(1.75484e-19 -9.79358e-20 -0.0132191)
(3.68171e-19 2.79132e-19 -0.0132137)
(1.39769e-19 3.83224e-19 -0.0132073)
(-2.15892e-19 -4.84206e-19 -0.0131998)
(-1.68184e-19 2.5888e-19 -0.0131913)
(-3.28324e-19 5.89221e-19 -0.0131817)
(-3.13718e-19 1.48268e-19 -0.0128824)
(2.84599e-20 -2.63432e-19 -0.012904)
(-5.23146e-20 -7.85083e-19 -0.0129251)
(-5.37349e-19 1.0427e-18 -0.0129456)
(-7.81987e-19 4.13346e-20 -0.0129655)
(-4.17111e-19 2.39837e-19 -0.0129847)
(-1.77405e-18 -6.59956e-19 -0.0130032)
(-3.17557e-19 3.48292e-19 -0.013021)
(-1.47685e-18 2.5111e-20 -0.0130379)
(2.6341e-19 7.73217e-19 -0.013054)
(-1.52879e-18 7.09657e-19 -0.0130693)
(-2.59362e-19 6.46578e-19 -0.0130836)
(-7.71755e-19 2.85525e-19 -0.0130971)
(-7.03934e-19 7.63693e-19 -0.0131096)
(-3.46841e-19 8.12427e-19 -0.0131211)
(-7.29976e-19 1.09304e-18 -0.0131317)
(-5.81557e-19 1.16137e-18 -0.0131413)
(-5.98184e-19 1.25298e-18 -0.0131498)
(-1.12956e-19 9.15804e-19 -0.0131573)
(-5.61494e-19 -3.35699e-20 -0.0131637)
(7.79035e-20 6.27622e-19 -0.0131691)
(-2.44646e-19 4.93497e-19 -0.0131734)
(-1.93476e-19 1.66041e-19 -0.0131767)
(3.36668e-19 3.88384e-19 -0.0131789)
(2.9242e-19 1.54062e-19 -0.0131799)
(3.09393e-19 -4.60618e-19 -0.0131799)
(-3.48125e-19 3.30408e-19 -0.0131789)
(5.1555e-19 -1.34097e-19 -0.0131767)
(-2.95185e-19 -9.62348e-20 -0.0131734)
(7.03816e-20 -1.44881e-19 -0.0131691)
(3.97628e-19 2.75333e-19 -0.0131637)
(5.37328e-19 3.5905e-19 -0.0131573)
(-3.9644e-20 -4.94485e-19 -0.0131498)
(-1.51536e-19 2.75597e-19 -0.0131413)
(-1.72037e-19 6.14286e-19 -0.0131317)
(-5.99167e-19 2.14882e-19 -0.0131211)
(-8.64501e-20 -2.8991e-19 -0.0131096)
(-5.17789e-19 -3.45436e-20 -0.0128315)
(1.64213e-19 -1.40674e-19 -0.0128531)
(-3.20722e-19 -1.04017e-18 -0.0128742)
(-5.75633e-19 1.00697e-18 -0.0128948)
(-8.68204e-19 9.03182e-21 -0.0129147)
(-4.54458e-19 2.82111e-19 -0.012934)
(-1.15069e-18 -3.04949e-19 -0.0129525)
(-2.87783e-19 3.69103e-19 -0.0129703)
(-1.48585e-18 -1.99975e-20 -0.0129873)
(1.0052e-19 6.66827e-19 -0.0130034)
(-1.44138e-18 7.78557e-19 -0.0130187)
(1.3696e-19 7.76004e-19 -0.0130331)
(-1.03568e-18 2.22203e-19 -0.0130466)
(-4.59241e-19 7.76563e-19 -0.0130591)
(-2.69376e-19 8.3033e-19 -0.0130707)
(-7.45322e-19 1.14979e-18 -0.0130813)
(-9.9831e-19 1.06627e-18 -0.0130909)
(-5.48029e-19 1.20726e-18 -0.0130994)
(4.16339e-20 9.81003e-19 -0.0131069)
(-4.65211e-19 -4.58846e-21 -0.0131134)
(6.5017e-20 5.95526e-19 -0.0131188)
(-7.11976e-20 5.29738e-19 -0.0131231)
(-2.83253e-20 1.41977e-19 -0.0131264)
(2.86441e-19 3.62365e-19 -0.0131286)
(2.34676e-19 1.59699e-19 -0.0131296)
(2.89604e-19 -4.28944e-19 -0.0131296)
(-3.03713e-19 2.95033e-19 -0.0131286)
(7.05696e-19 -1.62647e-19 -0.0131264)
(-3.63267e-19 -4.77075e-20 -0.0131231)
(-9.61424e-20 -1.75957e-19 -0.0131188)
(2.72967e-19 2.47097e-19 -0.0131134)
(7.74667e-19 3.27283e-19 -0.0131069)
(1.66982e-19 -4.79156e-19 -0.0130994)
(-2.95038e-19 3.68299e-19 -0.0130909)
(1.16983e-19 5.75731e-19 -0.0130813)
(-4.62994e-19 1.37404e-19 -0.0130707)
(6.89482e-20 -3.66933e-19 -0.0130591)
(-7.07651e-20 -2.60386e-19 -0.0130466)
(-5.03803e-19 -1.91903e-20 -0.0127802)
(3.81523e-19 6.70111e-20 -0.0128018)
(-5.11172e-19 -1.22858e-18 -0.012823)
(-6.04951e-19 9.59786e-19 -0.0128436)
(-6.31741e-19 1.67423e-19 -0.0128636)
(-2.55582e-20 5.48064e-19 -0.0128829)
(-6.3056e-19 1.14431e-20 -0.0129014)
(-5.25996e-19 3.01815e-19 -0.0129193)
(-1.18648e-18 1.09494e-19 -0.0129363)
(1.51367e-20 5.93263e-19 -0.0129525)
(-1.35716e-18 8.112e-19 -0.0129678)
(2.13873e-19 8.27042e-19 -0.0129822)
(-1.11981e-18 2.25061e-19 -0.0129958)
(-3.24734e-19 7.27711e-19 -0.0130083)
(-5.64805e-19 7.66237e-19 -0.0130199)
(-9.9728e-19 1.13308e-18 -0.0130305)
(-1.09364e-18 1.03203e-18 -0.0130401)
(-5.16734e-19 1.15805e-18 -0.0130487)
(1.41304e-19 1.0294e-18 -0.0130562)
(-3.25204e-19 1.36474e-20 -0.0130627)
(1.30389e-19 5.75885e-19 -0.0130681)
(-7.4551e-20 5.45065e-19 -0.0130725)
(2.0366e-19 1.41241e-19 -0.0130757)
(2.38423e-19 3.64765e-19 -0.0130779)
(1.1537e-19 1.52856e-19 -0.013079)
(3.88877e-19 -4.125e-19 -0.013079)
(-2.51524e-19 2.47821e-19 -0.0130779)
(9.11094e-19 -1.80315e-19 -0.0130757)
(-4.58228e-19 2.42507e-20 -0.0130725)
(-3.60161e-20 -2.35634e-19 -0.0130681)
(2.11547e-19 1.92571e-19 -0.0130627)
(5.45134e-19 3.69825e-19 -0.0130562)
(3.08549e-19 -4.16246e-19 -0.0130487)
(-4.67003e-19 4.1989e-19 -0.0130401)
(4.57597e-19 4.98244e-19 -0.0130305)
(-2.40587e-19 9.39672e-20 -0.0130199)
(-1.81529e-21 -3.92556e-19 -0.0130083)
(-9.65889e-20 -2.50653e-19 -0.0129958)
(1.16853e-19 -2.17959e-19 -0.0129822)
(-1.68861e-19 3.6406e-19 -0.0129678)
(-5.1662e-19 -8.26927e-20 -0.0127284)
(5.94242e-19 3.04263e-19 -0.0127502)
(-5.94146e-19 -1.28331e-18 -0.0127714)
(-6.19142e-19 8.45801e-19 -0.012792)
(-2.08573e-19 3.82563e-19 -0.012812)
(2.59539e-19 7.31964e-19 -0.0128314)
(-5.03351e-19 1.99167e-19 -0.01285)
(-1.06237e-18 5.75952e-20 -0.0128679)
(-8.57266e-19 2.1631e-19 -0.0128849)
(6.16948e-20 6.3002e-19 -0.0129012)
(-1.14024e-18 9.06656e-19 -0.0129165)
(1.81326e-19 8.10219e-19 -0.012931)
(-1.05547e-18 2.82991e-19 -0.0129445)
(-5.69454e-19 6.03604e-19 -0.0129571)
(-9.37907e-19 6.99595e-19 -0.0129687)
(-1.2295e-18 1.09806e-18 -0.0129794)
(-1.011e-18 1.02076e-18 -0.012989)
(-3.97296e-19 1.0971e-18 -0.0129976)
(1.0768e-19 1.04204e-18 -0.0130051)
(-2.179e-19 5.08019e-20 -0.0130116)
(-1.44033e-20 5.48734e-19 -0.013017)
(-1.25899e-19 5.37234e-19 -0.0130214)
(3.33862e-19 1.24088e-19 -0.0130247)
(2.1293e-19 3.9501e-19 -0.0130268)
(-2.91917e-20 1.37357e-19 -0.0130279)
(4.00893e-19 -4.05529e-19 -0.0130279)
(-1.7519e-19 1.92461e-19 -0.0130268)
(1.06646e-18 -1.86555e-19 -0.0130247)
(-2.94884e-19 7.17023e-20 -0.0130214)
(1.12961e-19 -3.14425e-19 -0.013017)
(2.75799e-19 1.76341e-19 -0.0130116)
(2.25457e-19 4.13411e-19 -0.0130051)
(1.05834e-19 -3.18337e-19 -0.0129976)
(-4.50596e-19 4.35127e-19 -0.012989)
(1.98912e-19 5.44963e-19 -0.0129794)
(1.29914e-19 6.53753e-21 -0.0129687)
(-2.24869e-21 -3.77059e-19 -0.0129571)
(-1.77504e-19 -2.18433e-19 -0.0129445)
(1.05192e-19 -1.87359e-19 -0.012931)
(1.04522e-19 3.1316e-19 -0.0129165)
(-4.91881e-19 -7.78973e-19 -0.0129012)
(-8.32478e-19 -3.72855e-19 -0.0128849)
(-5.07707e-19 -1.29072e-19 -0.0126764)
(5.74784e-19 3.28962e-19 -0.0126981)
(-5.9422e-19 -1.26032e-18 -0.0127193)
(-6.68949e-19 6.84708e-19 -0.01274)
(-5.84525e-20 4.09811e-19 -0.0127601)
(1.19284e-19 6.77941e-19 -0.0127795)
(-4.92748e-19 3.69789e-19 -0.0127982)
(-1.54092e-18 -1.65017e-19 -0.0128161)
(-7.5754e-19 1.37023e-19 -0.0128332)
(4.54746e-20 6.10318e-19 -0.0128494)
(-9.44505e-19 1.00494e-18 -0.0128648)
(-8.11569e-20 7.47955e-19 -0.0128793)
(-1.05121e-18 3.57024e-19 -0.0128929)
(-9.71008e-19 4.39981e-19 -0.0129055)
(-1.0787e-18 6.76754e-19 -0.0129172)
(-1.14367e-18 1.10744e-18 -0.0129278)
(-8.0453e-19 1.01171e-18 -0.0129375)
(-1.8192e-19 1.10522e-18 -0.0129461)
(-2.1945e-19 1.00966e-18 -0.0129536)
(-1.00175e-19 8.2728e-20 -0.0129602)
(-1.81726e-20 5.45453e-19 -0.0129656)
(9.50479e-20 5.37434e-19 -0.01297)
(2.43145e-19 9.68928e-20 -0.0129732)
(1.74004e-19 4.39834e-19 -0.0129754)
(-1.61348e-19 1.27701e-19 -0.0129765)
(3.61866e-19 -4.17917e-19 -0.0129765)
(-7.1478e-20 1.19212e-19 -0.0129754)
(1.06459e-18 -2.05082e-19 -0.0129732)
(5.43955e-20 9.86141e-20 -0.01297)
(1.54258e-19 -3.57358e-19 -0.0129656)
(3.53701e-19 1.70027e-19 -0.0129602)
(2.59335e-19 4.45894e-19 -0.0129536)
(-9.4256e-20 -2.31748e-19 -0.0129461)
(-3.33839e-19 4.20917e-19 -0.0129375)
(-1.03467e-19 5.87189e-19 -0.0129278)
(2.2887e-19 -4.24962e-20 -0.0129172)
(1.92485e-20 -3.62122e-19 -0.0129055)
(-1.26737e-19 -2.3485e-19 -0.0128929)
(1.11005e-20 -1.35777e-19 -0.0128793)
(1.92321e-19 3.27849e-19 -0.0128648)
(-3.32313e-19 -8.1652e-19 -0.0128494)
(-6.2114e-19 -4.98602e-19 -0.0128332)
(-2.5832e-19 -1.0663e-18 -0.0128161)
(-4.83206e-19 -8.86154e-19 -0.0127982)
(-1.12705e-18 -1.3018e-18 -0.0127795)
(-4.23748e-19 -1.11389e-19 -0.0126239)
(3.4245e-19 1.94942e-19 -0.0126456)
(-4.96259e-19 -1.15595e-18 -0.0126669)
(-8.59767e-19 4.21686e-19 -0.0126877)
(-2.47437e-19 2.132e-19 -0.0127078)
(-1.0205e-19 5.44471e-19 -0.0127272)
(-4.86109e-19 5.50352e-19 -0.0127459)
(-1.68304e-18 -1.83163e-19 -0.0127639)
(-8.8e-19 -7.15167e-20 -0.012781)
(-3.8813e-19 3.90478e-19 -0.0127973)
(-8.63443e-19 1.07855e-18 -0.0128128)
(-5.67859e-19 5.76648e-19 -0.0128273)
(-1.26541e-18 3.3761e-19 -0.0128409)
(-1.16713e-18 3.58405e-19 -0.0128535)
(-8.99621e-19 7.01812e-19 -0.0128652)
(-8.01168e-19 1.18372e-18 -0.0128759)
(-6.97009e-19 9.88112e-19 -0.0128856)
(-1.4879e-19 1.10471e-18 -0.0128942)
(-2.73158e-19 1.03443e-18 -0.0129018)
(-7.901e-20 5.7452e-20 -0.0129083)
(-4.31329e-20 5.18926e-19 -0.0129137)
(3.36154e-19 5.74736e-19 -0.0129181)
(1.92067e-20 9.23165e-20 -0.0129214)
(2.06437e-19 4.78345e-19 -0.0129236)
(-2.43939e-20 1.20011e-19 -0.0129247)
(2.28532e-19 -4.4157e-19 -0.0129247)
(6.80974e-20 5.26358e-20 -0.0129236)
(9.63117e-19 -2.31031e-19 -0.0129214)
(2.3415e-19 1.37534e-19 -0.0129181)
(4.30167e-20 -3.62905e-19 -0.0129137)
(3.3393e-19 1.67698e-19 -0.0129083)
(3.51225e-19 4.53253e-19 -0.0129018)
(2.50208e-20 -2.17732e-19 -0.0128942)
(-4.09944e-20 3.8113e-19 -0.0128856)
(5.13286e-20 5.15973e-19 -0.0128759)
(1.18183e-19 -3.19656e-20 -0.0128652)
(7.08956e-20 -3.57033e-19 -0.0128535)
(-1.84782e-19 -1.91512e-19 -0.0128409)
(-1.88085e-19 -2.90169e-20 -0.0128273)
(1.39414e-19 3.84021e-19 -0.0128128)
(-6.10633e-20 -9.34935e-19 -0.0127973)
(-4.92466e-19 -5.92067e-19 -0.012781)
(4.72956e-20 -1.28038e-18 -0.0127639)
(-2.50826e-19 -9.96253e-19 -0.0127459)
(-7.16907e-19 -1.43679e-18 -0.0127272)
(-1.71865e-18 -5.16088e-19 -0.0127078)
(-8.38092e-19 -1.29944e-18 -0.0126877)
(-3.72477e-19 -9.16945e-20 -0.0125709)
(1.54373e-19 6.84227e-20 -0.0125928)
(-3.71555e-19 -1.03121e-18 -0.0126141)
(-1.01263e-18 2.52976e-19 -0.0126349)
(-3.35787e-19 7.1893e-20 -0.0126551)
(-3.33311e-19 3.69493e-19 -0.0126745)
(-3.60144e-19 7.71047e-19 -0.0126933)
(-1.51815e-18 1.36404e-21 -0.0127113)
(-1.02536e-18 -2.22333e-19 -0.0127285)
(-7.90077e-19 1.36718e-19 -0.0127448)
(-8.72186e-19 1.09125e-18 -0.0127603)
(-8.32737e-19 5.63302e-19 -0.0127748)
(-1.41795e-18 3.07832e-19 -0.0127885)
(-1.08517e-18 3.03675e-19 -0.0128012)
(-7.26628e-19 6.91282e-19 -0.0128129)
(-5.76738e-19 1.24624e-18 -0.0128236)
(-5.23227e-19 1.01947e-18 -0.0128332)
(-4.6867e-19 1.01702e-18 -0.0128419)
(3.10178e-20 1.12656e-18 -0.0128495)
(-4.91133e-20 7.14126e-20 -0.012856)
(-7.15805e-20 4.78441e-19 -0.0128615)
(3.50078e-19 5.84994e-19 -0.0128659)
(-1.3879e-19 9.03115e-20 -0.0128692)
(4.33642e-19 4.8123e-19 -0.0128714)
(4.35948e-19 1.46789e-19 -0.0128725)
(1.21261e-19 -4.51731e-19 -0.0128725)
(-1.95537e-20 -1.95698e-20 -0.0128714)
(8.79256e-19 -2.50209e-19 -0.0128692)
(2.02845e-19 2.04371e-19 -0.0128659)
(-4.02422e-21 -3.67246e-19 -0.0128615)
(3.10782e-19 1.4593e-19 -0.012856)
(5.21787e-19 4.36787e-19 -0.0128495)
(1.364e-19 -2.29677e-19 -0.0128419)
(3.05198e-19 3.04754e-19 -0.0128332)
(2.78669e-19 4.68189e-19 -0.0128236)
(-1.0482e-19 3.407e-20 -0.0128129)
(1.88403e-20 -3.2346e-19 -0.0128012)
(-3.48862e-19 -8.44035e-20 -0.0127885)
(-3.58266e-19 5.73145e-20 -0.0127748)
(1.92574e-19 3.36269e-19 -0.0127603)
(4.49298e-19 -1.17595e-18 -0.0127448)
(-4.63037e-19 -6.33528e-19 -0.0127285)
(3.28302e-19 -1.47706e-18 -0.0127113)
(-2.16892e-19 -9.82905e-19 -0.0126933)
(-3.3964e-19 -1.62504e-18 -0.0126745)
(-1.04637e-18 -9.89722e-19 -0.0126551)
(-6.38299e-19 -1.43482e-18 -0.0126349)
(-1.34537e-18 -3.90357e-19 -0.0126141)
(-1.53991e-18 4.90187e-19 -0.0125928)
(-2.0863e-18 -3.99179e-19 -0.0125709)
(-4.16765e-19 -1.5861e-19 -0.0125176)
(1.47196e-19 9.45496e-20 -0.0125395)
(-4.20482e-19 -1.04121e-18 -0.0125609)
(-9.04063e-19 2.60789e-19 -0.0125817)
(-3.04054e-19 3.7959e-20 -0.0126019)
(-3.95385e-19 2.73409e-19 -0.0126214)
(-2.53414e-19 9.28505e-19 -0.0126402)
(-1.19597e-18 3.09902e-19 -0.0126583)
(-9.19658e-19 -2.00547e-19 -0.0126755)
(-9.51804e-19 1.61464e-20 -0.0126919)
(-9.70271e-19 1.05101e-18 -0.0127074)
(-7.71979e-19 6.43822e-19 -0.012722)
(-1.15255e-18 4.24596e-19 -0.0127356)
(-9.61264e-19 2.84598e-19 -0.0127484)
(-8.1354e-19 6.0713e-19 -0.0127601)
(-7.72169e-19 1.17123e-18 -0.0127708)
(-2.91148e-19 1.11129e-18 -0.0127805)
(-6.39535e-19 9.5172e-19 -0.0127892)
(2.64885e-19 1.15543e-18 -0.0127968)
(-3.1437e-20 9.6383e-20 -0.0128033)
(-9.28672e-20 4.54478e-19 -0.0128088)
(3.96883e-19 6.21489e-19 -0.0128132)
(-1.91925e-19 6.60339e-20 -0.0128165)
(5.22922e-19 4.32087e-19 -0.0128187)
(6.19591e-19 1.9079e-19 -0.0128198)
(-1.83408e-20 -3.96514e-19 -0.0128198)
(-1.96551e-19 -7.78102e-20 -0.0128187)
(8.31997e-19 -2.87582e-19 -0.0128165)
(1.2465e-19 2.64579e-19 -0.0128132)
(-1.70295e-20 -3.90086e-19 -0.0128088)
(1.10297e-19 1.38797e-19 -0.0128033)
(6.50966e-19 4.15576e-19 -0.0127968)
(2.52787e-19 -2.41753e-19 -0.0127892)
(3.3605e-19 3.16191e-19 -0.0127805)
(5.48277e-19 4.51116e-19 -0.0127708)
(-9.62131e-20 4.64985e-20 -0.0127601)
(-2.97869e-20 -2.9028e-19 -0.0127484)
(-4.96304e-19 1.34741e-20 -0.0127356)
(-3.38163e-19 3.53212e-20 -0.012722)
(3.05495e-19 2.03668e-19 -0.0127074)
(7.33462e-19 -1.29546e-18 -0.0126919)
(-3.00061e-19 -7.04201e-19 -0.0126755)
(2.36559e-19 -1.4624e-18 -0.0126583)
(-3.51101e-19 -8.85298e-19 -0.0126402)
(-1.53743e-19 -1.74648e-18 -0.0126214)
(-7.77489e-19 -1.16586e-18 -0.0126019)
(-6.97164e-19 -1.36344e-18 -0.0125817)
(-1.03059e-18 -5.20284e-19 -0.0125609)
(-9.93519e-19 8.1465e-20 -0.0125395)
(-1.9583e-18 -5.48363e-19 -0.0125176)
(-5.0472e-19 -2.53829e-19 -0.0124638)
(7.84287e-20 5.90081e-20 -0.0124858)
(-2.73244e-19 -9.13048e-19 -0.0125072)
(-8.57921e-19 2.274e-19 -0.0125281)
(-1.19352e-19 1.15757e-19 -0.0125483)
(-4.17937e-19 2.01959e-19 -0.0125679)
(-2.34151e-19 1.00084e-18 -0.0125868)
(-9.95421e-19 5.2622e-19 -0.0126048)
(-7.98588e-19 -1.14904e-19 -0.0126221)
(-1.20485e-18 -1.35625e-19 -0.0126385)
(-1.05752e-18 9.87461e-19 -0.0126541)
(-8.58745e-19 6.45321e-19 -0.0126687)
(-7.27692e-19 6.10952e-19 -0.0126824)
(-9.3191e-19 2.69887e-19 -0.0126951)
(-1.02659e-18 5.21842e-19 -0.0127069)
(-1.26045e-18 9.8317e-19 -0.0127176)
(-4.60711e-19 1.05381e-18 -0.0127274)
(-4.2916e-19 9.82732e-19 -0.012736)
(2.50468e-19 1.15793e-18 -0.0127437)
(-1.04359e-19 1.32e-19 -0.0127502)
(-2.45256e-19 3.94411e-19 -0.0127557)
(2.71975e-19 6.22601e-19 -0.0127601)
(-1.96398e-19 6.70583e-20 -0.0127634)
(4.09644e-19 3.84649e-19 -0.0127656)
(4.04137e-19 2.42099e-19 -0.0127668)
(-2.63116e-19 -3.54065e-19 -0.0127668)
(-2.17711e-19 -1.67143e-19 -0.0127656)
(7.38096e-19 -3.18898e-19 -0.0127634)
(1.30866e-19 3.23731e-19 -0.0127601)
(-5.8613e-20 -3.81789e-19 -0.0127557)
(-1.46116e-19 1.31624e-19 -0.0127502)
(5.92223e-19 3.96725e-19 -0.0127437)
(3.53827e-19 -2.3621e-19 -0.012736)
(2.8996e-19 3.21614e-19 -0.0127274)
(7.6043e-19 4.12117e-19 -0.0127176)
(1.91039e-19 -4.42179e-21 -0.0127069)
(2.93006e-19 -3.61771e-19 -0.0126951)
(-5.02338e-19 4.84622e-20 -0.0126824)
(-2.54047e-20 -1.27863e-19 -0.0126687)
(5.0878e-19 4.58267e-20 -0.0126541)
(8.58014e-19 -1.35214e-18 -0.0126385)
(-2.96873e-21 -8.20686e-19 -0.0126221)
(-5.56365e-20 -1.28112e-18 -0.0126048)
(-5.8502e-19 -7.59174e-19 -0.0125868)
(-2.08424e-19 -1.73345e-18 -0.0125679)
(-8.15743e-19 -1.1039e-18 -0.0125483)
(-1.19955e-18 -9.89842e-19 -0.0125281)
(-1.01435e-18 -4.91846e-19 -0.0125072)
(-5.92794e-19 -2.15496e-19 -0.0124857)
(-1.58222e-18 -8.72681e-19 -0.0124638)
(-6.27513e-19 -3.63306e-19 -0.0124095)
(-6.26822e-20 -7.86352e-20 -0.0124316)
(-8.20307e-20 -7.53013e-19 -0.0124531)
(-9.20562e-19 1.08697e-19 -0.012474)
(6.00966e-20 1.93693e-19 -0.0124943)
(-5.9433e-19 5.2732e-20 -0.012514)
(-1.88292e-19 1.06783e-18 -0.0125328)
(-9.79541e-19 6.4966e-19 -0.012551)
(-9.01283e-19 -1.14365e-19 -0.0125683)
(-1.39415e-18 -2.31831e-19 -0.0125847)
(-1.29655e-18 8.54711e-19 -0.0126003)
(-1.09873e-18 5.16844e-19 -0.012615)
(-4.55556e-19 7.15487e-19 -0.0126287)
(-6.54379e-19 4.04871e-19 -0.0126415)
(-9.63366e-19 5.65258e-19 -0.0126533)
(-1.42294e-18 9.11842e-19 -0.012664)
(-6.5382e-19 9.34218e-19 -0.0126738)
(-1.38933e-19 9.96736e-19 -0.0126825)
(2.13056e-19 1.17556e-18 -0.0126901)
(8.5236e-20 2.07325e-19 -0.0126967)
(-3.24204e-19 3.71241e-19 -0.0127022)
(1.01317e-19 6.15316e-19 -0.0127066)
(-2.63548e-19 3.81957e-20 -0.0127099)
(2.62489e-19 3.53003e-19 -0.0127122)
(1.73012e-19 2.99792e-19 -0.0127133)
(-1.57772e-19 -3.31356e-19 -0.0127133)
(6.50203e-20 -2.6848e-19 -0.0127122)
(6.91054e-19 -3.5783e-19 -0.0127099)
(1.81874e-19 3.66085e-19 -0.0127066)
(-4.33593e-20 -3.74896e-19 -0.0127022)
(-1.5655e-19 9.2123e-20 -0.0126967)
(5.61702e-19 3.55323e-19 -0.0126901)
(4.48087e-19 -2.43996e-19 -0.0126825)
(1.78857e-19 3.54768e-19 -0.0126738)
(8.6639e-19 3.93652e-19 -0.012664)
(4.44394e-19 -8.61188e-20 -0.0126533)
(5.6779e-19 -3.96873e-19 -0.0126415)
(-4.78079e-19 7.74577e-20 -0.0126287)
(2.96418e-19 -3.15504e-19 -0.012615)
(7.19229e-19 -9.89292e-20 -0.0126003)
(1.02187e-18 -1.42212e-18 -0.0125847)
(3.12244e-19 -8.95494e-19 -0.0125683)
(-2.76781e-19 -1.10215e-18 -0.012551)
(-7.13227e-19 -7.12244e-19 -0.0125328)
(-5.62174e-19 -1.53994e-18 -0.012514)
(-9.248e-19 -9.27344e-19 -0.0124943)
(-1.73097e-18 -5.81908e-19 -0.012474)
(-1.31624e-18 -3.2859e-19 -0.0124531)
(-3.58073e-19 -4.53118e-19 -0.0124316)
(-1.25183e-18 -1.10708e-18 -0.0124095)
(-6.1803e-19 -3.1773e-19 -0.0123547)
(-9.01565e-20 -1.50145e-19 -0.0123769)
(-2.15966e-19 -8.55634e-19 -0.0123985)
(-8.38877e-19 1.07972e-19 -0.0124195)
(-1.4167e-20 1.10154e-19 -0.0124399)
(-7.94748e-19 -1.15837e-19 -0.0124595)
(-3.71064e-19 9.70781e-19 -0.0124785)
(-8.97319e-19 8.26779e-19 -0.0124966)
(-1.10045e-18 -1.53557e-19 -0.012514)
(-1.55683e-18 -3.11665e-19 -0.0125305)
(-1.31292e-18 8.35464e-19 -0.0125461)
(-1.25172e-18 4.07645e-19 -0.0125608)
(-4.58831e-19 6.55293e-19 -0.0125746)
(-5.06064e-19 4.65147e-19 -0.0125874)
(-9.34217e-19 6.26934e-19 -0.0125992)
(-1.34685e-18 9.25447e-19 -0.01261)
(-4.15398e-19 9.13972e-19 -0.0126198)
(1.43296e-19 1.01811e-18 -0.0126285)
(1.6051e-19 1.1852e-18 -0.0126361)
(4.30104e-19 3.18466e-19 -0.0126427)
(-4.19678e-19 3.69387e-19 -0.0126483)
(2.5532e-19 6.43483e-19 -0.0126527)
(-4.78096e-19 1.83942e-20 -0.012656)
(-4.07471e-20 3.17371e-19 -0.0126582)
(-2.15825e-20 3.17797e-19 -0.0126593)
(2.12909e-19 -3.6912e-19 -0.0126593)
(3.55649e-19 -3.52285e-19 -0.0126582)
(6.68621e-19 -3.60966e-19 -0.012656)
(2.84249e-19 4.09084e-19 -0.0126527)
(2.50768e-20 -3.76157e-19 -0.0126483)
(-1.30959e-19 4.19389e-20 -0.0126427)
(5.53453e-19 3.12037e-19 -0.0126361)
(4.12982e-19 -1.95658e-19 -0.0126285)
(-1.85751e-19 4.40242e-19 -0.0126198)
(9.24926e-19 3.45747e-19 -0.01261)
(6.62026e-19 -1.38274e-19 -0.0125992)
(4.7037e-19 -2.86061e-19 -0.0125874)
(-1.79461e-19 -1.90165e-20 -0.0125746)
(2.87675e-19 -3.79945e-19 -0.0125608)
(5.64146e-19 -6.76468e-20 -0.0125461)
(1.03078e-18 -1.42977e-18 -0.0125305)
(6.63161e-19 -9.67829e-19 -0.012514)
(-4.30985e-19 -9.28335e-19 -0.0124966)
(-5.11286e-19 -8.33142e-19 -0.0124785)
(-9.44014e-19 -1.31089e-18 -0.0124595)
(-1.07472e-18 -7.42095e-19 -0.0124399)
(-1.8768e-18 -4.43341e-19 -0.0124195)
(-1.42197e-18 -3.66205e-19 -0.0123985)
(-3.41197e-19 -5.53419e-19 -0.0123769)
(-1.18095e-18 -1.08014e-18 -0.0123547)
(-5.85998e-19 -2.31621e-19 -0.0122995)
(1.70697e-19 7.19383e-20 -0.0123217)
(-3.24573e-19 -9.48593e-19 -0.0123434)
(-7.03115e-19 1.23751e-19 -0.0123645)
(-1.26099e-19 3.65743e-20 -0.0123849)
(-1.05053e-18 -3.02472e-19 -0.0124046)
(-6.23903e-19 7.94504e-19 -0.0124236)
(-8.43703e-19 9.72944e-19 -0.0124419)
(-1.36709e-18 -1.89104e-19 -0.0124593)
(-1.61439e-18 -3.6722e-19 -0.0124758)
(-1.16873e-18 8.80876e-19 -0.0124915)