/*--------------------------------*- C++ -*----------------------------------*\
  =========                 |
  \\      /  F ield         | OpenFOAM: The Open Source CFD Toolbox
   \\    /   O peration     | Website:  https://openfoam.org
    \\  /    A nd           | Version:  7
     \\/     M anipulation  |
\*---------------------------------------------------------------------------*/
FoamFile
{
    version     2.0;
    format      ascii;
    class       volScalarField;
    location    "4000";
    object      nu;
}
// * * * * * * * * * * * * * * * * * * * * * * * * * * * * * * * * * * * * * //

dimensions      [0 2 -1 0 0 0 0];

internalField   nonuniform List<scalar> 
4814
(
0.000117242
0.000119921
0.000122267
0.00012426
4.73803e-05
5.07733e-05
5.43756e-05
5.81588e-05
6.20849e-05
6.61127e-05
7.01984e-05
7.42971e-05
7.83637e-05
8.23545e-05
8.62281e-05
8.99473e-05
9.34875e-05
9.68932e-05
0.000100732
0.000103701
0.000106323
0.000108569
0.000109751
0.000111419
0.000112889
0.000114068
0.00011495
0.000115535
0.000115827
0.000115828
0.000115537
0.000114956
0.000114085
0.000112925
0.000111478
0.000109751
0.00010775
0.000105436
3.75451e-05
4.01374e-05
4.29208e-05
4.58813e-05
4.8998e-05
5.22466e-05
5.5599e-05
5.90236e-05
6.24863e-05
6.5951e-05
6.93807e-05
7.27401e-05
7.60028e-05
7.9193e-05
8.25693e-05
8.54329e-05
8.80023e-05
9.02438e-05
9.18076e-05
9.35049e-05
9.50055e-05
9.62241e-05
9.71427e-05
9.77567e-05
9.80643e-05
9.8065e-05
9.77596e-05
9.715e-05
9.62397e-05
9.50342e-05
9.35415e-05
9.17726e-05
8.9736e-05
8.73957e-05
8.43526e-05
8.1587e-05
7.86776e-05
7.56015e-05
7.23839e-05
6.90559e-05
6.56353e-05
3.00529e-05
3.19603e-05
3.40173e-05
3.62183e-05
3.85532e-05
4.10091e-05
4.35701e-05
4.62168e-05
4.89269e-05
5.1675e-05
5.44338e-05
5.71755e-05
5.98777e-05
6.25468e-05
6.52385e-05
6.76871e-05
6.99202e-05
7.19054e-05
7.35296e-05
7.50665e-05
7.64216e-05
7.75307e-05
7.83727e-05
7.89383e-05
7.92226e-05
7.92235e-05
7.89417e-05
7.83799e-05
7.7544e-05
7.64425e-05
7.50868e-05
7.34911e-05
7.16666e-05
6.95932e-05
6.71016e-05
6.47054e-05
6.2217e-05
5.9626e-05
5.69552e-05
5.42311e-05
5.14669e-05
4.85639e-05
4.58567e-05
4.32814e-05
2.4484e-05
2.58632e-05
2.73489e-05
2.89396e-05
3.06301e-05
3.24138e-05
3.4282e-05
3.62234e-05
3.82243e-05
4.02684e-05
4.23373e-05
4.44116e-05
4.64746e-05
4.85228e-05
5.05442e-05
5.24511e-05
5.42138e-05
5.58054e-05
5.71993e-05
5.84537e-05
5.95546e-05
6.04602e-05
6.1151e-05
6.16167e-05
6.18514e-05
6.18524e-05
6.16199e-05
6.11572e-05
6.04704e-05
5.95688e-05
5.84643e-05
5.71709e-05
5.57007e-05
5.40478e-05
5.2183e-05
5.0299e-05
4.83555e-05
4.63519e-05
4.43063e-05
4.22385e-05
4.01585e-05
3.80301e-05
3.60265e-05
3.41168e-05
2.03786e-05
2.13751e-05
2.24433e-05
2.35829e-05
2.47911e-05
2.60642e-05
2.7397e-05
2.87828e-05
3.02132e-05
3.16779e-05
3.31651e-05
3.46619e-05
3.61564e-05
3.76417e-05
3.90926e-05
4.04856e-05
4.17854e-05
4.29724e-05
4.40446e-05
4.49914e-05
4.58181e-05
4.64999e-05
4.70215e-05
4.7374e-05
4.7552e-05
4.75528e-05
4.73766e-05
4.70263e-05
4.65072e-05
4.58274e-05
4.4997e-05
4.40277e-05
4.29301e-05
4.17067e-05
4.03709e-05
3.89866e-05
3.75612e-05
3.60991e-05
3.46136e-05
3.31185e-05
3.16213e-05
3.01209e-05
2.86853e-05
2.73081e-05
1.73347e-05
1.80622e-05
1.88364e-05
1.96575e-05
2.05234e-05
2.14316e-05
2.2379e-05
2.33612e-05
2.43728e-05
2.54071e-05
2.64564e-05
2.75124e-05
2.85667e-05
2.96123e-05
3.06277e-05
3.16093e-05
3.25303e-05
3.33772e-05
3.41525e-05
3.48324e-05
3.54231e-05
3.59104e-05
3.62838e-05
3.65364e-05
3.66641e-05
3.66647e-05
3.65384e-05
3.62873e-05
3.59156e-05
3.54291e-05
3.48357e-05
3.4144e-05
3.33622e-05
3.24956e-05
3.15642e-05
3.05852e-05
2.95755e-05
2.85412e-05
2.74913e-05
2.64351e-05
2.53785e-05
2.43295e-05
2.3313e-05
2.23295e-05
1.50445e-05
1.55849e-05
1.61551e-05
1.67554e-05
1.73842e-05
1.80396e-05
1.87194e-05
1.94205e-05
2.01393e-05
2.08714e-05
2.16115e-05
2.23542e-05
2.30936e-05
2.38239e-05
2.45298e-05
2.52128e-05
2.5855e-05
2.64478e-05
2.69927e-05
2.74693e-05
2.78814e-05
2.8221e-05
2.84813e-05
2.86574e-05
2.87465e-05
2.87469e-05
2.86589e-05
2.84838e-05
2.82245e-05
2.78853e-05
2.74715e-05
2.6989e-05
2.64438e-05
2.58413e-05
2.51973e-05
2.45147e-05
2.38081e-05
2.3083e-05
2.23457e-05
2.16023e-05
2.08573e-05
2.01193e-05
1.93966e-05
1.86909e-05
1.79683e-05
1.3288e-05
1.36975e-05
1.41259e-05
1.45735e-05
1.50389e-05
1.55206e-05
1.6017e-05
1.65257e-05
1.70442e-05
1.75695e-05
1.80979e-05
1.86257e-05
1.91488e-05
1.96628e-05
2.01576e-05
2.06349e-05
2.10838e-05
2.14985e-05
2.18795e-05
2.22125e-05
2.24991e-05
2.27347e-05
2.29152e-05
2.30373e-05
2.3099e-05
2.30994e-05
2.30384e-05
2.2917e-05
2.27372e-05
2.25017e-05
2.22141e-05
2.18784e-05
2.14987e-05
2.10794e-05
2.06314e-05
2.01537e-05
1.96568e-05
1.9145e-05
1.86228e-05
1.80943e-05
1.75629e-05
1.70352e-05
1.65138e-05
1.60004e-05
1.54781e-05
1.19124e-05
1.22293e-05
1.2558e-05
1.28989e-05
1.32508e-05
1.36126e-05
1.39827e-05
1.43597e-05
1.47416e-05
1.51261e-05
1.55107e-05
1.58929e-05
1.62698e-05
1.66379e-05
1.69909e-05
1.73299e-05
1.76482e-05
1.7942e-05
1.82112e-05
1.84463e-05
1.86478e-05
1.88131e-05
1.89395e-05
1.9025e-05
1.90681e-05
1.90684e-05
1.90257e-05
1.89408e-05
1.88148e-05
1.86496e-05
1.84476e-05
1.82113e-05
1.79436e-05
1.76477e-05
1.73307e-05
1.69912e-05
1.66362e-05
1.62689e-05
1.58925e-05
1.55097e-05
1.51232e-05
1.47377e-05
1.43539e-05
1.3973e-05
1.35887e-05
1.08131e-05
1.10631e-05
1.13205e-05
1.15856e-05
1.18574e-05
1.21351e-05
1.24174e-05
1.2703e-05
1.29907e-05
1.32786e-05
1.35651e-05
1.38481e-05
1.41258e-05
1.43955e-05
1.46531e-05
1.48993e-05
1.51299e-05
1.53424e-05
1.55362e-05
1.57055e-05
1.585e-05
1.59682e-05
1.60585e-05
1.61195e-05
1.61503e-05
1.61505e-05
1.61201e-05
1.60595e-05
1.59695e-05
1.58513e-05
1.57065e-05
1.55369e-05
1.53442e-05
1.51309e-05
1.49015e-05
1.46549e-05
1.43956e-05
1.41262e-05
1.38487e-05
1.35652e-05
1.32777e-05
1.29893e-05
1.27003e-05
1.24118e-05
1.2123e-05
9.91815e-06
1.01189e-05
1.03241e-05
1.05342e-05
1.07484e-05
1.09659e-05
1.11857e-05
1.1407e-05
1.16285e-05
1.18491e-05
1.20674e-05
1.2282e-05
1.24914e-05
1.26938e-05
1.28865e-05
1.30698e-05
1.32409e-05
1.33983e-05
1.35412e-05
1.36659e-05
1.37721e-05
1.38587e-05
1.39248e-05
1.39694e-05
1.39919e-05
1.3992e-05
1.39698e-05
1.39255e-05
1.38596e-05
1.37731e-05
1.36668e-05
1.3542e-05
1.34e-05
1.32424e-05
1.30721e-05
1.28886e-05
1.26947e-05
1.24924e-05
1.2283e-05
1.2068e-05
1.18491e-05
1.16284e-05
1.14059e-05
1.11827e-05
9.17722e-06
9.3409e-06
9.50725e-06
9.6766e-06
9.84835e-06
1.00218e-05
1.01964e-05
1.03711e-05
1.05452e-05
1.07178e-05
1.08878e-05
1.10541e-05
1.12157e-05
1.13712e-05
1.15188e-05
1.16585e-05
1.17886e-05
1.1908e-05
1.2016e-05
1.21101e-05
1.219e-05
1.22551e-05
1.23047e-05
1.23381e-05
1.23549e-05
1.23551e-05
1.23384e-05
1.23052e-05
1.22558e-05
1.21908e-05
1.21109e-05
1.20168e-05
1.19094e-05
1.17901e-05
1.16607e-05
1.15208e-05
1.13724e-05
1.12168e-05
1.10552e-05
1.08886e-05
1.07183e-05
1.05457e-05
1.0371e-05
1.01949e-05
8.55481e-06
8.69007e-06
8.82678e-06
8.96531e-06
9.10516e-06
9.2458e-06
9.38666e-06
9.52712e-06
9.66647e-06
9.804e-06
9.93893e-06
1.00705e-05
1.01977e-05
1.03197e-05
1.04352e-05
1.05441e-05
1.06452e-05
1.07378e-05
1.08213e-05
1.0894e-05
1.09556e-05
1.10056e-05
1.10437e-05
1.10693e-05
1.10823e-05
1.10824e-05
1.10696e-05
1.10441e-05
1.10062e-05
1.09562e-05
1.08946e-05
1.0822e-05
1.07391e-05
1.06466e-05
1.0546e-05
1.04369e-05
1.03209e-05
1.01988e-05
1.00715e-05
9.93985e-06
9.80469e-06
9.66722e-06
9.52746e-06
9.38611e-06
8.02526e-06
8.13832e-06
8.25204e-06
8.36679e-06
8.48217e-06
8.59777e-06
8.71311e-06
8.82769e-06
8.94096e-06
9.05235e-06
9.16126e-06
9.26706e-06
9.3691e-06
9.46661e-06
9.55867e-06
9.64521e-06
9.72539e-06
9.79861e-06
9.86446e-06
9.92176e-06
9.97023e-06
1.00096e-05
1.00394e-05
1.00595e-05
1.00697e-05
1.00697e-05
1.00598e-05
1.00398e-05
1.001e-05
9.97076e-06
9.92232e-06
9.86513e-06
9.79968e-06
9.72661e-06
9.64679e-06
9.56017e-06
9.46769e-06
9.3701e-06
9.26806e-06
9.16217e-06
9.05313e-06
8.94183e-06
8.82831e-06
8.71312e-06
7.56968e-06
7.66511e-06
7.76069e-06
7.85677e-06
7.95305e-06
8.04919e-06
8.1448e-06
8.23947e-06
8.33278e-06
8.42425e-06
8.51342e-06
8.5998e-06
8.68287e-06
8.76203e-06
8.83662e-06
8.90654e-06
8.9712e-06
9.03012e-06
9.08299e-06
9.12896e-06
9.16779e-06
9.19927e-06
9.22314e-06
9.2392e-06
9.24729e-06
9.24735e-06
9.23937e-06
9.22343e-06
9.19965e-06
9.16824e-06
9.12945e-06
9.08359e-06
9.03103e-06
8.97225e-06
8.90788e-06
8.83791e-06
8.76302e-06
8.68379e-06
8.60071e-06
8.51429e-06
8.42506e-06
8.33369e-06
8.24026e-06
8.14515e-06
7.17388e-06
7.25513e-06
7.33618e-06
7.41739e-06
7.49851e-06
7.57927e-06
7.65936e-06
7.73845e-06
7.81618e-06
7.89219e-06
7.96609e-06
8.0375e-06
8.106e-06
8.17114e-06
8.23241e-06
8.28971e-06
8.34259e-06
8.39071e-06
8.4338e-06
8.47124e-06
8.50283e-06
8.52841e-06
8.5478e-06
8.56083e-06
8.5674e-06
8.56745e-06
8.56098e-06
8.54804e-06
8.52874e-06
8.50322e-06
8.47168e-06
8.43434e-06
8.3915e-06
8.34352e-06
8.29085e-06
8.23352e-06
8.17203e-06
8.10684e-06
8.03833e-06
7.9669e-06
7.89299e-06
7.8171e-06
7.73932e-06
7.65993e-06
6.82704e-06
6.89674e-06
6.96599e-06
7.03518e-06
7.1041e-06
7.17253e-06
7.24023e-06
7.30692e-06
7.37231e-06
7.4361e-06
7.49799e-06
7.55766e-06
7.61478e-06
7.66899e-06
7.71991e-06
7.76743e-06
7.81122e-06
7.85101e-06
7.88657e-06
7.91745e-06
7.94349e-06
7.96456e-06
7.98051e-06
7.99123e-06
7.99663e-06
7.99667e-06
7.99135e-06
7.98071e-06
7.96483e-06
7.94383e-06
7.91784e-06
7.88705e-06
7.85168e-06
7.81202e-06
7.7684e-06
7.72087e-06
7.6698e-06
7.61554e-06
7.55842e-06
7.49875e-06
7.43688e-06
7.37321e-06
7.30783e-06
7.24095e-06
6.52078e-06
6.58094e-06
6.64052e-06
6.69987e-06
6.75885e-06
6.81728e-06
6.87494e-06
6.93163e-06
6.98709e-06
7.04109e-06
7.09338e-06
7.1437e-06
7.19179e-06
7.23734e-06
7.28007e-06
7.31988e-06
7.35652e-06
7.38976e-06
7.41944e-06
7.44519e-06
7.46689e-06
7.48443e-06
7.4977e-06
7.50662e-06
7.51111e-06
7.51115e-06
7.50673e-06
7.49788e-06
7.48467e-06
7.46719e-06
7.44554e-06
7.41987e-06
7.39036e-06
7.35722e-06
7.32072e-06
7.2809e-06
7.23806e-06
7.19247e-06
7.1444e-06
7.09409e-06
7.04184e-06
6.98796e-06
6.93256e-06
6.87576e-06
6.24849e-06
6.30071e-06
6.35226e-06
6.40348e-06
6.45427e-06
6.50447e-06
6.55392e-06
6.60243e-06
6.64982e-06
6.69587e-06
6.74039e-06
6.78315e-06
6.82395e-06
6.86255e-06
6.89871e-06
6.93236e-06
6.96328e-06
6.99131e-06
7.0163e-06
7.03798e-06
7.05623e-06
7.07097e-06
7.08212e-06
7.08961e-06
7.09338e-06
7.09342e-06
7.08971e-06
7.08228e-06
7.07118e-06
7.05649e-06
7.03829e-06
7.01669e-06
6.99184e-06
6.9639e-06
6.93309e-06
6.89945e-06
6.8632e-06
6.82458e-06
6.78379e-06
6.74104e-06
6.69658e-06
6.65065e-06
6.60336e-06
6.55481e-06
6.0049e-06
6.05046e-06
6.09528e-06
6.13972e-06
6.18368e-06
6.22706e-06
6.26971e-06
6.31148e-06
6.35221e-06
6.39173e-06
6.42988e-06
6.46647e-06
6.50133e-06
6.53427e-06
6.56509e-06
6.59373e-06
6.62003e-06
6.64385e-06
6.66506e-06
6.68345e-06
6.69892e-06
6.71141e-06
6.72086e-06
6.7272e-06
6.73039e-06
6.73042e-06
6.72728e-06
6.721e-06
6.7116e-06
6.69915e-06
6.68373e-06
6.66541e-06
6.64431e-06
6.62059e-06
6.59438e-06
6.56574e-06
6.53486e-06
6.5019e-06
6.46705e-06
6.43049e-06
6.3924e-06
6.35301e-06
6.3124e-06
6.27066e-06
5.78578e-06
5.82569e-06
5.86484e-06
5.90356e-06
5.94179e-06
5.97945e-06
6.01642e-06
6.05257e-06
6.08776e-06
6.12187e-06
6.15474e-06
6.18623e-06
6.21619e-06
6.24446e-06
6.2709e-06
6.29544e-06
6.31795e-06
6.33832e-06
6.35644e-06
6.37215e-06
6.38536e-06
6.39602e-06
6.40407e-06
6.40948e-06
6.4122e-06
6.41223e-06
6.40955e-06
6.4042e-06
6.39618e-06
6.38557e-06
6.3724e-06
6.35676e-06
6.33874e-06
6.31845e-06
6.29602e-06
6.27149e-06
6.245e-06
6.21671e-06
6.18677e-06
6.15531e-06
6.1225e-06
6.08853e-06
6.05347e-06
6.01742e-06
5.97983e-06
5.58767e-06
5.62276e-06
5.65707e-06
5.69095e-06
5.72434e-06
5.75716e-06
5.78934e-06
5.82076e-06
5.85131e-06
5.88088e-06
5.90934e-06
5.93657e-06
5.96245e-06
5.98686e-06
6.00965e-06
6.03079e-06
6.05016e-06
6.06768e-06
6.08325e-06
6.09674e-06
6.10808e-06
6.11723e-06
6.12414e-06
6.12878e-06
6.13112e-06
6.13114e-06
6.12885e-06
6.12425e-06
6.11738e-06
6.10827e-06
6.09697e-06
6.08354e-06
6.06805e-06
6.05061e-06
6.0313e-06
6.01018e-06
5.98735e-06
5.96294e-06
5.93707e-06
5.90987e-06
5.88148e-06
5.85204e-06
5.82164e-06
5.79037e-06
5.758e-06
5.40773e-06
5.43868e-06
5.46885e-06
5.49858e-06
5.52784e-06
5.55656e-06
5.58467e-06
5.61208e-06
5.6387e-06
5.66443e-06
5.68918e-06
5.71283e-06
5.73528e-06
5.75643e-06
5.77618e-06
5.79447e-06
5.81122e-06
5.82636e-06
5.8398e-06
5.85145e-06
5.86123e-06
5.86912e-06
5.87508e-06
5.87908e-06
5.8811e-06
5.88112e-06
5.87914e-06
5.87519e-06
5.86926e-06
5.86141e-06
5.85166e-06
5.84007e-06
5.8267e-06
5.81162e-06
5.79493e-06
5.77665e-06
5.75688e-06
5.73573e-06
5.71329e-06
5.68967e-06
5.665e-06
5.63939e-06
5.61293e-06
5.58572e-06
5.55775e-06
5.2436e-06
5.27097e-06
5.29758e-06
5.32374e-06
5.34945e-06
5.37464e-06
5.39928e-06
5.42327e-06
5.44654e-06
5.46901e-06
5.4906e-06
5.51121e-06
5.53076e-06
5.54916e-06
5.56633e-06
5.58222e-06
5.59676e-06
5.60989e-06
5.62155e-06
5.63165e-06
5.64013e-06
5.64696e-06
5.65212e-06
5.65559e-06
5.65733e-06
5.65735e-06
5.65564e-06
5.65221e-06
5.64709e-06
5.64029e-06
5.63184e-06
5.6218e-06
5.6102e-06
5.59713e-06
5.58264e-06
5.56676e-06
5.54958e-06
5.53118e-06
5.51164e-06
5.49107e-06
5.46955e-06
5.4472e-06
5.4241e-06
5.40034e-06
5.37613e-06
5.09332e-06
5.11757e-06
5.14109e-06
5.16417e-06
5.18681e-06
5.20897e-06
5.23061e-06
5.25166e-06
5.27206e-06
5.29174e-06
5.31062e-06
5.32864e-06
5.34571e-06
5.36177e-06
5.37674e-06
5.39059e-06
5.40326e-06
5.41469e-06
5.42483e-06
5.43361e-06
5.44098e-06
5.44693e-06
5.45141e-06
5.45442e-06
5.45594e-06
5.45595e-06
5.45447e-06
5.4515e-06
5.44704e-06
5.44113e-06
5.43379e-06
5.42506e-06
5.41497e-06
5.40359e-06
5.39097e-06
5.37713e-06
5.36215e-06
5.3461e-06
5.32904e-06
5.31106e-06
5.29224e-06
5.27269e-06
5.25246e-06
5.23167e-06
4.95522e-06
4.97675e-06
4.99757e-06
5.01797e-06
5.03794e-06
5.05747e-06
5.07652e-06
5.09503e-06
5.11295e-06
5.13022e-06
5.14678e-06
5.16256e-06
5.17751e-06
5.19156e-06
5.20465e-06
5.21675e-06
5.22781e-06
5.23779e-06
5.24664e-06
5.2543e-06
5.26073e-06
5.26591e-06
5.26982e-06
5.27244e-06
5.27377e-06
5.27378e-06
5.27249e-06
5.2699e-06
5.26602e-06
5.26087e-06
5.25447e-06
5.24685e-06
5.23805e-06
5.22812e-06
5.2171e-06
5.20501e-06
5.19192e-06
5.17787e-06
5.16294e-06
5.14719e-06
5.1307e-06
5.11355e-06
5.0958e-06
5.07757e-06
4.8279e-06
4.84704e-06
4.8655e-06
4.88355e-06
4.90119e-06
4.91843e-06
4.93522e-06
4.95152e-06
4.96729e-06
4.98247e-06
4.99702e-06
5.01087e-06
5.02399e-06
5.0363e-06
5.04777e-06
5.05836e-06
5.06805e-06
5.07678e-06
5.08451e-06
5.09121e-06
5.09683e-06
5.10136e-06
5.10477e-06
5.10706e-06
5.10822e-06
5.10823e-06
5.10711e-06
5.10484e-06
5.10145e-06
5.09695e-06
5.09136e-06
5.08471e-06
5.07702e-06
5.06833e-06
5.05868e-06
5.0481e-06
5.03663e-06
5.02432e-06
5.01123e-06
4.99741e-06
4.98293e-06
4.96786e-06
4.95227e-06
4.93626e-06
4.71016e-06
4.72719e-06
4.74357e-06
4.75955e-06
4.77516e-06
4.79039e-06
4.8052e-06
4.81957e-06
4.83346e-06
4.84683e-06
4.85962e-06
4.8718e-06
4.88331e-06
4.89412e-06
4.90419e-06
4.91348e-06
4.92197e-06
4.92962e-06
4.93639e-06
4.94225e-06
4.94717e-06
4.95114e-06
4.95413e-06
4.95613e-06
4.95714e-06
4.95716e-06
4.95617e-06
4.95419e-06
4.95123e-06
4.94729e-06
4.9424e-06
4.93657e-06
4.92984e-06
4.92223e-06
4.91377e-06
4.9045e-06
4.89443e-06
4.88363e-06
4.87213e-06
4.85999e-06
4.84726e-06
4.83401e-06
4.8203e-06
4.80622e-06
4.60096e-06
4.61612e-06
4.63066e-06
4.64483e-06
4.65864e-06
4.6721e-06
4.68518e-06
4.69786e-06
4.7101e-06
4.72187e-06
4.73313e-06
4.74384e-06
4.75397e-06
4.76346e-06
4.7723e-06
4.78046e-06
4.7879e-06
4.79461e-06
4.80056e-06
4.80569e-06
4.81001e-06
4.81348e-06
4.8161e-06
4.81786e-06
4.81874e-06
4.81875e-06
4.81789e-06
4.81616e-06
4.81356e-06
4.81012e-06
4.80583e-06
4.80072e-06
4.79482e-06
4.78815e-06
4.78073e-06
4.77259e-06
4.76375e-06
4.75426e-06
4.74416e-06
4.73348e-06
4.72228e-06
4.71062e-06
4.69855e-06
4.68617e-06
4.49942e-06
4.51292e-06
4.52583e-06
4.53838e-06
4.5506e-06
4.5625e-06
4.57405e-06
4.58524e-06
4.59603e-06
4.6064e-06
4.61631e-06
4.62574e-06
4.63464e-06
4.64299e-06
4.65075e-06
4.65791e-06
4.66445e-06
4.67034e-06
4.67555e-06
4.68006e-06
4.68384e-06
4.68688e-06
4.68918e-06
4.69072e-06
4.6915e-06
4.69151e-06
4.69076e-06
4.68924e-06
4.68696e-06
4.68394e-06
4.68018e-06
4.67571e-06
4.67053e-06
4.66468e-06
4.65817e-06
4.65102e-06
4.64326e-06
4.63492e-06
4.62603e-06
4.61664e-06
4.60679e-06
4.59653e-06
4.58591e-06
4.57502e-06
4.40477e-06
4.41679e-06
4.42824e-06
4.43936e-06
4.45017e-06
4.46068e-06
4.47087e-06
4.48074e-06
4.49025e-06
4.49938e-06
4.5081e-06
4.51639e-06
4.52422e-06
4.53156e-06
4.53837e-06
4.54466e-06
4.5504e-06
4.55557e-06
4.56014e-06
4.5641e-06
4.56741e-06
4.57008e-06
4.5721e-06
4.57345e-06
4.57413e-06
4.57414e-06
4.57348e-06
4.57215e-06
4.57016e-06
4.56751e-06
4.56422e-06
4.56029e-06
4.55575e-06
4.55061e-06
4.5449e-06
4.53863e-06
4.53181e-06
4.52448e-06
4.51668e-06
4.50842e-06
4.49976e-06
4.49073e-06
4.48139e-06
4.47182e-06
4.31633e-06
4.32702e-06
4.33718e-06
4.34702e-06
4.35657e-06
4.36584e-06
4.37483e-06
4.38352e-06
4.3919e-06
4.39993e-06
4.4076e-06
4.41489e-06
4.42176e-06
4.4282e-06
4.43419e-06
4.4397e-06
4.44473e-06
4.44927e-06
4.45328e-06
4.45674e-06
4.45965e-06
4.46199e-06
4.46375e-06
4.46494e-06
4.46554e-06
4.46555e-06
4.46497e-06
4.4638e-06
4.46206e-06
4.45974e-06
4.45686e-06
4.45342e-06
4.44944e-06
4.44494e-06
4.43993e-06
4.43442e-06
4.42844e-06
4.42201e-06
4.41515e-06
4.4079e-06
4.40029e-06
4.39236e-06
4.38415e-06
4.37575e-06
4.23352e-06
4.24302e-06
4.25201e-06
4.2607e-06
4.26913e-06
4.2773e-06
4.28522e-06
4.29286e-06
4.30022e-06
4.30728e-06
4.31401e-06
4.32041e-06
4.32643e-06
4.33208e-06
4.33733e-06
4.34216e-06
4.34657e-06
4.35053e-06
4.35405e-06
4.35708e-06
4.35963e-06
4.36167e-06
4.36322e-06
4.36425e-06
4.36478e-06
4.36479e-06
4.36428e-06
4.36327e-06
4.36174e-06
4.35971e-06
4.35719e-06
4.35418e-06
4.3507e-06
4.34675e-06
4.34237e-06
4.33755e-06
4.33231e-06
4.32667e-06
4.32066e-06
4.3143e-06
4.30762e-06
4.30066e-06
4.29346e-06
4.2861e-06
4.27878e-06
4.15582e-06
4.16424e-06
4.17219e-06
4.17985e-06
4.18727e-06
4.19446e-06
4.20141e-06
4.20811e-06
4.21457e-06
4.22075e-06
4.22665e-06
4.23225e-06
4.23753e-06
4.24247e-06
4.24705e-06
4.25128e-06
4.25513e-06
4.2586e-06
4.26167e-06
4.26432e-06
4.26654e-06
4.26833e-06
4.26968e-06
4.27059e-06
4.27104e-06
4.27105e-06
4.27061e-06
4.26973e-06
4.26839e-06
4.26662e-06
4.26442e-06
4.26179e-06
4.25875e-06
4.25531e-06
4.25148e-06
4.24726e-06
4.24268e-06
4.23775e-06
4.23249e-06
4.22693e-06
4.22108e-06
4.21499e-06
4.2087e-06
4.20227e-06
4.19595e-06
4.08278e-06
4.09023e-06
4.09723e-06
4.10397e-06
4.11048e-06
4.11677e-06
4.12286e-06
4.12873e-06
4.13437e-06
4.13978e-06
4.14493e-06
4.14981e-06
4.15442e-06
4.15872e-06
4.16272e-06
4.1664e-06
4.16976e-06
4.17279e-06
4.17546e-06
4.17777e-06
4.17971e-06
4.18126e-06
4.18244e-06
4.18323e-06
4.18363e-06
4.18364e-06
4.18325e-06
4.18248e-06
4.18132e-06
4.17978e-06
4.17786e-06
4.17558e-06
4.17293e-06
4.16993e-06
4.16659e-06
4.16292e-06
4.15893e-06
4.15463e-06
4.15004e-06
4.14519e-06
4.14009e-06
4.13478e-06
4.12929e-06
4.12369e-06
4.11823e-06
4.01399e-06
4.02056e-06
4.0267e-06
4.03261e-06
4.0383e-06
4.04379e-06
4.0491e-06
4.05421e-06
4.05913e-06
4.06383e-06
4.06831e-06
4.07256e-06
4.07656e-06
4.0803e-06
4.08377e-06
4.08697e-06
4.08988e-06
4.09251e-06
4.09483e-06
4.09683e-06
4.09851e-06
4.09986e-06
4.10088e-06
4.10157e-06
4.10192e-06
4.10192e-06
4.10159e-06
4.10092e-06
4.09992e-06
4.09858e-06
4.09692e-06
4.09494e-06
4.09264e-06
4.09004e-06
4.08715e-06
4.08396e-06
4.08049e-06
4.07676e-06
4.07278e-06
4.06856e-06
4.06413e-06
4.05952e-06
4.05475e-06
4.04991e-06
4.04518e-06
4.03913e-06
3.94909e-06
3.95486e-06
3.96023e-06
3.96538e-06
3.97033e-06
3.9751e-06
3.9797e-06
3.98414e-06
3.98839e-06
3.99246e-06
3.99634e-06
4.00001e-06
4.00347e-06
4.0067e-06
4.0097e-06
4.01246e-06
4.01498e-06
4.01724e-06
4.01925e-06
4.02098e-06
4.02243e-06
4.0236e-06
4.02448e-06
4.02507e-06
4.02537e-06
4.02538e-06
4.0251e-06
4.02452e-06
4.02365e-06
4.0225e-06
4.02107e-06
4.01936e-06
4.01737e-06
4.01513e-06
4.01263e-06
4.00988e-06
4.00689e-06
4.00366e-06
4.00022e-06
3.99658e-06
3.99275e-06
3.98877e-06
3.98466e-06
3.98048e-06
3.97642e-06
3.97122e-06
3.88776e-06
3.8928e-06
3.89748e-06
3.90193e-06
3.90621e-06
3.91033e-06
3.9143e-06
3.91811e-06
3.92177e-06
3.92527e-06
3.92861e-06
3.93176e-06
3.93473e-06
3.9375e-06
3.94008e-06
3.94245e-06
3.9446e-06
3.94655e-06
3.94827e-06
3.94975e-06
3.951e-06
3.952e-06
3.95276e-06
3.95326e-06
3.95352e-06
3.95353e-06
3.95329e-06
3.95279e-06
3.95205e-06
3.95106e-06
3.94984e-06
3.94837e-06
3.94667e-06
3.94475e-06
3.94261e-06
3.94025e-06
3.93768e-06
3.93491e-06
3.93196e-06
3.92884e-06
3.92555e-06
3.92214e-06
3.91862e-06
3.91505e-06
3.91158e-06
3.90712e-06
3.90247e-06
3.82973e-06
3.8341e-06
3.83814e-06
3.84197e-06
3.84564e-06
3.84916e-06
3.85255e-06
3.85581e-06
3.85893e-06
3.86191e-06
3.86475e-06
3.86744e-06
3.86996e-06
3.87232e-06
3.87451e-06
3.87653e-06
3.87836e-06
3.88002e-06
3.88148e-06
3.88274e-06
3.8838e-06
3.88466e-06
3.8853e-06
3.88573e-06
3.88595e-06
3.88596e-06
3.88575e-06
3.88533e-06
3.8847e-06
3.88387e-06
3.88282e-06
3.88158e-06
3.88013e-06
3.8785e-06
3.87668e-06
3.87467e-06
3.87249e-06
3.87014e-06
3.86763e-06
3.86497e-06
3.86218e-06
3.85928e-06
3.85629e-06
3.85328e-06
3.85034e-06
3.84653e-06
3.84256e-06
3.77472e-06
3.77849e-06
3.78194e-06
3.7852e-06
3.78831e-06
3.7913e-06
3.79416e-06
3.79691e-06
3.79955e-06
3.80206e-06
3.80445e-06
3.80671e-06
3.80884e-06
3.81082e-06
3.81266e-06
3.81436e-06
3.8159e-06
3.81729e-06
3.81852e-06
3.81959e-06
3.82048e-06
3.8212e-06
3.82174e-06
3.8221e-06
3.82229e-06
3.82229e-06
3.82212e-06
3.82177e-06
3.82124e-06
3.82054e-06
3.81966e-06
3.81862e-06
3.8174e-06
3.81603e-06
3.8145e-06
3.81282e-06
3.81098e-06
3.80901e-06
3.8069e-06
3.80466e-06
3.80232e-06
3.79988e-06
3.79738e-06
3.79486e-06
3.79241e-06
3.78919e-06
3.78582e-06
3.72252e-06
3.72573e-06
3.72865e-06
3.73139e-06
3.73399e-06
3.73648e-06
3.73887e-06
3.74116e-06
3.74335e-06
3.74543e-06
3.74742e-06
3.74929e-06
3.75105e-06
3.7527e-06
3.75422e-06
3.75563e-06
3.75691e-06
3.75806e-06
3.75908e-06
3.75996e-06
3.7607e-06
3.7613e-06
3.76175e-06
3.76205e-06
3.7622e-06
3.76221e-06
3.76207e-06
3.76178e-06
3.76134e-06
3.76076e-06
3.76004e-06
3.75917e-06
3.75817e-06
3.75703e-06
3.75577e-06
3.75437e-06
3.75285e-06
3.75122e-06
3.74947e-06
3.74762e-06
3.74568e-06
3.74367e-06
3.74161e-06
3.73955e-06
3.73754e-06
3.73485e-06
3.732e-06
3.67291e-06
3.67561e-06
3.67804e-06
3.6803e-06
3.68244e-06
3.68448e-06
3.68643e-06
3.6883e-06
3.69008e-06
3.69178e-06
3.69339e-06
3.69492e-06
3.69635e-06
3.69768e-06
3.69892e-06
3.70006e-06
3.7011e-06
3.70204e-06
3.70287e-06
3.70358e-06
3.70419e-06
3.70467e-06
3.70504e-06
3.70528e-06
3.70541e-06
3.70541e-06
3.7053e-06
3.70507e-06
3.70471e-06
3.70424e-06
3.70365e-06
3.70295e-06
3.70214e-06
3.70122e-06
3.70019e-06
3.69906e-06
3.69783e-06
3.69651e-06
3.69509e-06
3.69359e-06
3.69202e-06
3.6904e-06
3.68874e-06
3.68709e-06
3.68549e-06
3.68327e-06
3.68091e-06
3.62571e-06
3.62794e-06
3.62991e-06
3.63174e-06
3.63346e-06
3.63509e-06
3.63664e-06
3.63812e-06
3.63953e-06
3.64087e-06
3.64215e-06
3.64335e-06
3.64448e-06
3.64554e-06
3.64651e-06
3.64741e-06
3.64823e-06
3.64897e-06
3.64963e-06
3.65019e-06
3.65067e-06
3.65105e-06
3.65134e-06
3.65154e-06
3.65164e-06
3.65165e-06
3.65156e-06
3.65137e-06
3.65109e-06
3.65072e-06
3.65026e-06
3.64971e-06
3.64907e-06
3.64835e-06
3.64754e-06
3.64665e-06
3.64568e-06
3.64463e-06
3.64352e-06
3.64234e-06
3.64111e-06
3.63983e-06
3.63854e-06
3.63727e-06
3.63605e-06
3.63426e-06
3.63234e-06
3.63027e-06
3.58074e-06
3.58253e-06
3.5841e-06
3.58553e-06
3.58685e-06
3.5881e-06
3.58929e-06
3.59042e-06
3.59149e-06
3.59251e-06
3.59347e-06
3.59439e-06
3.59524e-06
3.59604e-06
3.59677e-06
3.59745e-06
3.59807e-06
3.59863e-06
3.59913e-06
3.59956e-06
3.59992e-06
3.60021e-06
3.60043e-06
3.60058e-06
3.60066e-06
3.60067e-06
3.6006e-06
3.60046e-06
3.60025e-06
3.59997e-06
3.59963e-06
3.59921e-06
3.59873e-06
3.59818e-06
3.59757e-06
3.5969e-06
3.59617e-06
3.59538e-06
3.59454e-06
3.59366e-06
3.59273e-06
3.59178e-06
3.59082e-06
3.5899e-06
3.58902e-06
3.58763e-06
3.5861e-06
3.58448e-06
3.53786e-06
3.53924e-06
3.54043e-06
3.54149e-06
3.54246e-06
3.54336e-06
3.54421e-06
3.54502e-06
3.54578e-06
3.5465e-06
3.54718e-06
3.54782e-06
3.54843e-06
3.54899e-06
3.5495e-06
3.54998e-06
3.55042e-06
3.55082e-06
3.55117e-06
3.55148e-06
3.55174e-06
3.55194e-06
3.5521e-06
3.55221e-06
3.55226e-06
3.55227e-06
3.55222e-06
3.55213e-06
3.55198e-06
3.55178e-06
3.55154e-06
3.55125e-06
3.55091e-06
3.55053e-06
3.5501e-06
3.54963e-06
3.54912e-06
3.54857e-06
3.54798e-06
3.54736e-06
3.54671e-06
3.54606e-06
3.54541e-06
3.5448e-06
3.54424e-06
3.54321e-06
3.54205e-06
3.54082e-06
3.49691e-06
3.49792e-06
3.49876e-06
3.49948e-06
3.50012e-06
3.50071e-06
3.50125e-06
3.50175e-06
3.50223e-06
3.50268e-06
3.5031e-06
3.5035e-06
3.50387e-06
3.50421e-06
3.50453e-06
3.50483e-06
3.5051e-06
3.50534e-06
3.50556e-06
3.50576e-06
3.50592e-06
3.50605e-06
3.50615e-06
3.50622e-06
3.50625e-06
3.50626e-06
3.50623e-06
3.50617e-06
3.50608e-06
3.50596e-06
3.50582e-06
3.50564e-06
3.50543e-06
3.5052e-06
3.50494e-06
3.50465e-06
3.50434e-06
3.504e-06
3.50364e-06
3.50327e-06
3.50289e-06
3.5025e-06
3.50213e-06
3.50181e-06
3.50155e-06
3.50084e-06
3.50003e-06
3.49915e-06
3.45777e-06
3.45844e-06
3.45896e-06
3.45936e-06
3.4597e-06
3.45999e-06
3.46025e-06
3.46048e-06
3.46069e-06
3.46089e-06
3.46108e-06
3.46125e-06
3.46141e-06
3.46155e-06
3.46169e-06
3.46181e-06
3.46193e-06
3.46204e-06
3.46214e-06
3.46223e-06
3.4623e-06
3.46236e-06
3.46241e-06
3.46244e-06
3.46246e-06
3.46246e-06
3.46245e-06
3.46243e-06
3.4624e-06
3.46235e-06
3.46228e-06
3.46221e-06
3.46212e-06
3.46203e-06
3.46192e-06
3.4618e-06
3.46167e-06
3.46154e-06
3.46139e-06
3.46124e-06
3.46109e-06
3.46096e-06
3.46085e-06
3.46079e-06
3.4608e-06
3.4604e-06
3.45989e-06
3.45934e-06
3.42032e-06
3.42068e-06
3.42089e-06
3.42101e-06
3.42107e-06
3.42109e-06
3.42108e-06
3.42106e-06
3.42103e-06
3.421e-06
3.42097e-06
3.42093e-06
3.42089e-06
3.42086e-06
3.42082e-06
3.42079e-06
3.42077e-06
3.42075e-06
3.42074e-06
3.42073e-06
3.42073e-06
3.42072e-06
3.42072e-06
3.42072e-06
3.42072e-06
3.42073e-06
3.42073e-06
3.42074e-06
3.42076e-06
3.42077e-06
3.42079e-06
3.42081e-06
3.42084e-06
3.42087e-06
3.4209e-06
3.42094e-06
3.42098e-06
3.42102e-06
3.42107e-06
3.42112e-06
3.4212e-06
3.42129e-06
3.42142e-06
3.42161e-06
3.42187e-06
3.42174e-06
3.42153e-06
3.42127e-06
3.38446e-06
3.38451e-06
3.38445e-06
3.3843e-06
3.3841e-06
3.38387e-06
3.38362e-06
3.38337e-06
3.38312e-06
3.38287e-06
3.38263e-06
3.38241e-06
3.38219e-06
3.38199e-06
3.3818e-06
3.38163e-06
3.38147e-06
3.38134e-06
3.38123e-06
3.38113e-06
3.38105e-06
3.38099e-06
3.38094e-06
3.38091e-06
3.3809e-06
3.3809e-06
3.38092e-06
3.38096e-06
3.38102e-06
3.38109e-06
3.38118e-06
3.38129e-06
3.38142e-06
3.38156e-06
3.38173e-06
3.38191e-06
3.3821e-06
3.38231e-06
3.38254e-06
3.38279e-06
3.38306e-06
3.38336e-06
3.38371e-06
3.38413e-06
3.38462e-06
3.38475e-06
3.3848e-06
3.38482e-06
3.35004e-06
3.34982e-06
3.3495e-06
3.34911e-06
3.34866e-06
3.3482e-06
3.34773e-06
3.34726e-06
3.3468e-06
3.34636e-06
3.34593e-06
3.34552e-06
3.34514e-06
3.34478e-06
3.34445e-06
3.34415e-06
3.34387e-06
3.34363e-06
3.34343e-06
3.34325e-06
3.3431e-06
3.34298e-06
3.34289e-06
3.34283e-06
3.34281e-06
3.34281e-06
3.34285e-06
3.34291e-06
3.34301e-06
3.34314e-06
3.3433e-06
3.34349e-06
3.34371e-06
3.34396e-06
3.34425e-06
3.34456e-06
3.34489e-06
3.34526e-06
3.34565e-06
3.34608e-06
3.34654e-06
3.34704e-06
3.34759e-06
3.34822e-06
3.34893e-06
3.34929e-06
3.34959e-06
3.34986e-06
4.73788e-05
3.75437e-05
3.00519e-05
2.44832e-05
2.0378e-05
1.73342e-05
1.50442e-05
1.32877e-05
1.19122e-05
1.0813e-05
9.91799e-06
9.17709e-06
8.5547e-06
8.02517e-06
7.56959e-06
7.1738e-06
6.82698e-06
6.52072e-06
6.24843e-06
6.00485e-06
5.78573e-06
5.58763e-06
5.40769e-06
5.24357e-06
5.09329e-06
4.95519e-06
4.82787e-06
4.71013e-06
4.60093e-06
4.4994e-06
4.40474e-06
4.31631e-06
4.2335e-06
4.1558e-06
4.08276e-06
4.01397e-06
3.94907e-06
3.88775e-06
3.82971e-06
3.77471e-06
3.72251e-06
3.6729e-06
3.6257e-06
3.58073e-06
3.53784e-06
3.4969e-06
3.45776e-06
3.42031e-06
3.38445e-06
3.35003e-06
5.07654e-05
4.01317e-05
3.19562e-05
2.58602e-05
2.1373e-05
1.80607e-05
1.55837e-05
1.36966e-05
1.22285e-05
1.10626e-05
1.01184e-05
9.34049e-06
8.68972e-06
8.13802e-06
7.66485e-06
7.2549e-06
6.89654e-06
6.58076e-06
6.30055e-06
6.05031e-06
5.82555e-06
5.62263e-06
5.43856e-06
5.27086e-06
5.11747e-06
4.97666e-06
4.84696e-06
4.72711e-06
4.61605e-06
4.51285e-06
4.41672e-06
4.32696e-06
4.24296e-06
4.16419e-06
4.09017e-06
4.0205e-06
3.95481e-06
3.89276e-06
3.83406e-06
3.77845e-06
3.72569e-06
3.67557e-06
3.6279e-06
3.5825e-06
3.53921e-06
3.49789e-06
3.45841e-06
3.42065e-06
3.38448e-06
3.34979e-06
5.43611e-05
4.29101e-05
3.40095e-05
2.73434e-05
2.24393e-05
1.88336e-05
1.6153e-05
1.41243e-05
1.25567e-05
1.13195e-05
1.03233e-05
9.50655e-06
8.82619e-06
8.25153e-06
7.76025e-06
7.33579e-06
6.96565e-06
6.64022e-06
6.35199e-06
6.09503e-06
5.86461e-06
5.65687e-06
5.46866e-06
5.2974e-06
5.14093e-06
4.99742e-06
4.86536e-06
4.74344e-06
4.63054e-06
4.52571e-06
4.42813e-06
4.33707e-06
4.25191e-06
4.1721e-06
4.09714e-06
4.02662e-06
3.96015e-06
3.8974e-06
3.83806e-06
3.78187e-06
3.72858e-06
3.67797e-06
3.62985e-06
3.58404e-06
3.54037e-06
3.4987e-06
3.4589e-06
3.42084e-06
3.3844e-06
3.34945e-06
5.81369e-05
4.58649e-05
3.62065e-05
2.89312e-05
2.35769e-05
1.96532e-05
1.67522e-05
1.45711e-05
1.2897e-05
1.15841e-05
1.0533e-05
9.67559e-06
8.96446e-06
8.36606e-06
7.85614e-06
7.41683e-06
7.03469e-06
6.69944e-06
6.40309e-06
6.13937e-06
5.90324e-06
5.69066e-06
5.49832e-06
5.3235e-06
5.16394e-06
5.01776e-06
4.88335e-06
4.75937e-06
4.64465e-06
4.53822e-06
4.43921e-06
4.34687e-06
4.26057e-06
4.17972e-06
4.10384e-06
4.03249e-06
3.96526e-06
3.90183e-06
3.84187e-06
3.7851e-06
3.73129e-06
3.68021e-06
3.63165e-06
3.58544e-06
3.54141e-06
3.4994e-06
3.45929e-06
3.42094e-06
3.38423e-06
3.34904e-06
6.2055e-05
4.89754e-05
3.85368e-05
3.06184e-05
2.47828e-05
2.05174e-05
1.73798e-05
1.50356e-05
1.32483e-05
1.18554e-05
1.07468e-05
9.84701e-06
9.10403e-06