/*--------------------------------*- C++ -*----------------------------------*\
  =========                 |
  \\      /  F ield         | OpenFOAM: The Open Source CFD Toolbox
   \\    /   O peration     | Website:  https://openfoam.org
    \\  /    A nd           | Version:  7
     \\/     M anipulation  |
\*---------------------------------------------------------------------------*/
FoamFile
{
    version     2.0;
    format      ascii;
    class       volScalarField;
    location    "4000";
    object      strainRate;
}
// * * * * * * * * * * * * * * * * * * * * * * * * * * * * * * * * * * * * * //

dimensions      [0 0 -1 0 0 0 0];

internalField   nonuniform List<scalar> 
4814
(
0.000590015
0.000576431
0.000565036
0.000555706
0.0015225
0.00141448
0.00131531
0.00122504
0.00114353
0.00107041
0.00100517
0.000947225
0.000895951
0.000850738
0.000810997
0.000776172
0.000745683
0.000718522
0.000690176
0.000669738
0.000652667
0.000638719
0.000631619
0.000621856
0.0006135
0.000606953
0.000602152
0.000599004
0.000597446
0.000597444
0.000598995
0.000602118
0.000606862
0.000613297
0.000621513
0.000631614
0.000643737
0.000658348
0.00195413
0.00181843
0.00169214
0.00157562
0.00146902
0.00137218
0.00128471
0.00120611
0.0011358
0.00107317
0.00101759
0.000968437
0.000925024
0.000886166
0.000848433
0.000818851
0.000794004
0.000773523
0.000759847
0.000745539
0.000733328
0.000723702
0.00071661
0.000711947
0.000709633
0.000709627
0.000711925
0.000716554
0.00072358
0.000733099
0.000745236
0.000760149
0.000778071
0.000799734
0.000829766
0.000859077
0.000892223
0.000930153
0.000973423
0.00102261
0.00107859
0.0024897
0.00232756
0.00217465
0.00203165
0.00189904
0.00177691
0.00166514
0.00156341
0.0014713
0.00138829
0.00131382
0.0012473
0.00118798
0.00113464
0.00108548
0.0010443
0.00100936
0.000980203
0.000957564
0.00093708
0.000919731
0.000905998
0.000895844
0.000889149
0.000885821
0.00088581
0.000889109
0.000895758
0.000905836
0.000919468
0.000936816
0.000958089
0.000983621
0.00101433
0.00105386
0.00109488
0.00114097
0.00119326
0.00125239
0.00131902
0.00139425
0.001483
0.00157652
0.00167704
0.00312305
0.00293828
0.002762
0.00259511
0.00243832
0.00229204
0.0021564
0.00203134
0.00191667
0.00181207
0.00171715
0.0016314
0.00155416
0.00148434
0.00142129
0.00136651
0.00131947
0.00127968
0.00124675
0.00121852
0.00119477
0.00117592
0.00116193
0.00115268
0.00114807
0.00114806
0.00115262
0.0011618
0.00117571
0.00119447
0.00121829
0.0012474
0.00128223
0.00132376
0.00137395
0.00142865
0.00148981
0.00155855
0.00163555
0.00172145
0.00181741
0.00192724
0.00204337
0.00216775
0.00383948
0.00363735
0.00344279
0.00325669
0.00307994
0.00291314
0.00275665
0.00261067
0.00247522
0.00235023
0.00223551
0.00213074
0.00203542
0.00194871
0.00187081
0.00180162
0.00174149
0.00168996
0.00164595
0.00160893
0.00157794
0.00155326
0.00153489
0.00152271
0.00151664
0.00151661
0.00152262
0.00153472
0.00155299
0.0015776
0.00160872
0.00164662
0.00169174
0.00174502
0.00180712
0.00187629
0.00195322
0.00203892
0.00213397
0.00223894
0.00235484
0.00248354
0.00262044
0.00276657
0.00462137
0.0044073
0.00419998
0.00400014
0.00380876
0.00362651
0.00345391
0.00329132
0.00313895
0.00299694
0.00286529
0.00274388
0.00263241
0.00253038
0.00243854
0.00235581
0.0022831
0.00222005
0.00216529
0.00211942
0.00208111
0.00205052
0.00202768
0.00201251
0.00200493
0.0020049
0.0020124
0.00202747
0.00205021
0.00208073
0.0021192
0.00216588
0.00222114
0.00228575
0.00235949
0.00244225
0.00253384
0.00263501
0.0027462
0.00286785
0.0030007
0.00314518
0.00329895
0.00346254
0.00545219
0.00523079
0.00501556
0.00480704
0.00460618
0.00441367
0.00423008
0.00405586
0.00389136
0.00373683
0.00359244
0.00345823
0.0033341
0.00321985
0.00311653
0.00302264
0.0029393
0.00286633
0.00280234
0.00274863
0.00270382
0.00266796
0.00264111
0.00262324
0.0026143
0.00261425
0.00262309
0.00264085
0.00266759
0.0027034
0.00274839
0.00280275
0.0028668
0.00294104
0.0030247
0.00311868
0.00322223
0.00333582
0.00345971
0.00359418
0.00373968
0.00389576
0.00406158
0.00423746
0.00443385
0.00631865
0.00609337
0.00587397
0.00566076
0.0054546
0.00525618
0.00506608
0.00488477
0.00471267
0.0045501
0.00439732
0.00425449
0.00412166
0.00399891
0.00388735
0.0037854
0.00369423
0.00361377
0.00354284
0.00348306
0.00343319
0.00339322
0.00336323
0.00334324
0.00333322
0.00333316
0.00334307
0.00336294
0.00339282
0.00343274
0.00348278
0.00354304
0.00361373
0.0036951
0.00378613
0.0038882
0.0040003
0.0041226
0.00425524
0.00439833
0.00455207
0.00471556
0.00488888
0.00507223
0.00527314
0.0072111
0.00698435
0.00676341
0.00654832
0.0063399
0.00613879
0.00594556
0.00576067
0.00558457
0.00541761
0.00526012
0.00511232
0.00497437
0.00484651
0.00472983
0.00462286
0.00452668
0.00444132
0.00436587
0.004302
0.00424871
0.00420595
0.00417382
0.00415237
0.00414162
0.00414155
0.00415218
0.0041735
0.00420552
0.00424823
0.00430165
0.00436584
0.00444088
0.00452681
0.0046226
0.00472971
0.00484707
0.00497466
0.00511248
0.00526053
0.00541881
0.00558628
0.00576346
0.00595048
0.00615168
0.00812289
0.00789631
0.00767558
0.00746053
0.0072519
0.00705029
0.00685624
0.00667023
0.00649268
0.00632398
0.00616447
0.00601442
0.00587406
0.00574373
0.00562442
0.00551486
0.00541599
0.00532793
0.00525
0.00518377
0.00512851
0.00508414
0.00505078
0.00502848
0.00501729
0.00501722
0.00502828
0.00505044
0.00508369
0.005128
0.00518336
0.00524975
0.00532719
0.00541556
0.00551391
0.0056236
0.00574364
0.00587383
0.00601411
0.00616439
0.00632452
0.00649348
0.00667196
0.00685998
0.00705886
0.00904945
0.00882418
0.00860486
0.00839113
0.00818365
0.00798299
0.00778966
0.00760414
0.00742684
0.00725815
0.00709843
0.00694798
0.00680705
0.00667607
0.00655588
0.00644545
0.00634557
0.00625639
0.00617746
0.00611018
0.00605403
0.00600895
0.00597502
0.00595233
0.00594095
0.00594088
0.00595212
0.00597466
0.00600847
0.0060535
0.0061097
0.00617703
0.00625544
0.00634473
0.00644406
0.0065546
0.00667549
0.00680643
0.0069473
0.00709795
0.00725815
0.00742693
0.00760501
0.00779228
0.00998753
0.0097644
0.00954735
0.00933583
0.00913043
0.0089317
0.00874013
0.00855615
0.00838021
0.00821268
0.00805393
0.00790426
0.00776398
0.00763351
0.0075136
0.00740341
0.00730362
0.00721437
0.00713542
0.00706797
0.00701167
0.00696645
0.00693242
0.00690967
0.00689824
0.00689816
0.00690944
0.00693206
0.00696597
0.00701111
0.00706743
0.00713484
0.00721328
0.00730248
0.00740174
0.00751202
0.00763257
0.00776306
0.00790331
0.00805314
0.00821224
0.00837975
0.00855632
0.00874174
0.0109347
0.0107143
0.0105002
0.0102916
0.0100889
0.00989284
0.00970373
0.00952205
0.00934822
0.00918262
0.00902561
0.00887752
0.00873865
0.00860945
0.00849056
0.00838134
0.00828232
0.0081937
0.00811533
0.00804826
0.00799228
0.00794732
0.00791348
0.00789084
0.00787948
0.0078794
0.00789062
0.0079131
0.00794682
0.0079917
0.00804766
0.00811464
0.0081925
0.00828099
0.00837949
0.0084888
0.00860825
0.00873751
0.00887635
0.00902456
0.0091818
0.00934731
0.00952162
0.00970447
0.0118889
0.0116719
0.0114612
0.011256
0.0110567
0.0108638
0.0106777
0.0104988
0.0103277
0.0101645
0.0100098
0.00986384
0.00972692
0.0095995
0.00948214
0.00937434
0.00927657
0.00918901
0.00911161
0.0090453
0.00898994
0.00894548
0.00891201
0.00888963
0.00887838
0.0088783
0.00888939
0.00891163
0.00894496
0.00898933
0.00904465
0.00911083
0.00918774
0.0092751
0.00937239
0.00948025
0.00959811
0.0097256
0.00986249
0.0100085
0.0101634
0.0103264
0.0104979
0.0106776
0.0128487
0.0126354
0.0124286
0.0122273
0.0120317
0.0118424
0.0116597
0.0114842
0.0113161
0.0111559
0.0110039
0.0108604
0.0107258
0.0106006
0.0104851
0.0103791
0.0102829
0.0101967
0.0101205
0.0100552
0.0100007
0.0099569
0.00992393
0.00990188
0.0098908
0.00989072
0.00990164
0.00992354
0.00995637
0.0100001
0.0100545
0.0101197
0.0101954
0.0102813
0.0103771
0.0104831
0.010599
0.0107244
0.0108589
0.0110024
0.0111545
0.0113145
0.0114827
0.0116591
0.0138125
0.0136034
0.0134009
0.0132037
0.0130123
0.0128269
0.0126481
0.0124762
0.0123116
0.0121546
0.0120057
0.0118651
0.0117332
0.0116104
0.0114971
0.0113931
0.0112987
0.0112141
0.0111394
0.0110753
0.0110217
0.0109787
0.0109463
0.0109247
0.0109138
0.0109137
0.0109244
0.0109459
0.0109782
0.0110211
0.0110745
0.0111385
0.0112127
0.011297
0.011391
0.0114951
0.0116087
0.0117316
0.0118635
0.012004
0.012153
0.0123096
0.0124743
0.0126468
0.0147791
0.0145745
0.0143766
0.014184
0.013997
0.013816
0.0136413
0.0134733
0.0133125
0.0131591
0.0130135
0.012876
0.012747
0.0126269
0.0125161
0.0124143
0.0123219
0.0122392
0.0121661
0.0121033
0.0120508
0.0120087
0.011977
0.0119558
0.0119452
0.0119451
0.0119556
0.0119766
0.0120082
0.0120502
0.0121025
0.0121651
0.0122378
0.0123203
0.0124122
0.012514
0.0126252
0.0127453
0.0128743
0.0130117
0.0131572
0.0133103
0.013471
0.0136395
0.0157475
0.0155477
0.0153547
0.0151669
0.0149846
0.0148082
0.0146379
0.0144742
0.0143173
0.0141678
0.0140258
0.0138917
0.0137659
0.0136487
0.0135405
0.0134411
0.013351
0.0132701
0.0131988
0.0131375
0.0130862
0.0130451
0.0130141
0.0129934
0.012983
0.0129829
0.0129932
0.0130137
0.0130445
0.0130855
0.0131367
0.0131978
0.0132687
0.0133492
0.0134391
0.0135384
0.0136468
0.0137641
0.0138899
0.0140239
0.0141657
0.0143149
0.0144715
0.0146355
0.0167166
0.0165219
0.016334
0.0161514
0.0159741
0.0158025
0.0156368
0.0154776
0.015325
0.0151794
0.0150413
0.0149108
0.0147883
0.0146742
0.0145688
0.0144721
0.0143843
0.0143055
0.0142361
0.0141763
0.0141264
0.0140863
0.0140561
0.0140359
0.0140258
0.0140257
0.0140357
0.0140557
0.0140857
0.0141257
0.0141755
0.014235
0.0143041
0.0143825
0.01447
0.0145667
0.0146723
0.0147864
0.0149088
0.0150392
0.0151772
0.0153223
0.0154745
0.0156339
0.0176857
0.0174963
0.0173138
0.0171364
0.0169643
0.0167977
0.016637
0.0164824
0.0163342
0.0161929
0.0160588
0.015932
0.0158131
0.0157023
0.0155999
0.0155059
0.0154205
0.015344
0.0152765
0.0152184
0.0151699
0.0151309
0.0151016
0.0150819
0.0150721
0.015072
0.0150817
0.0151011
0.0151303
0.0151692
0.0152176
0.0152754
0.0153426
0.0154188
0.0155038
0.0155977
0.0157003
0.0158111
0.01593
0.0160566
0.0161906
0.0163314
0.016479
0.0166334
0.0186539
0.0184701
0.0182931
0.0181212
0.0179545
0.0177931
0.0176374
0.0174877
0.0173442
0.0172073
0.0170773
0.0169545
0.0168392
0.0167318
0.0166325
0.0165414
0.0164586
0.0163845
0.016319
0.0162627
0.0162156
0.0161778
0.0161493
0.0161302
0.0161207
0.0161206
0.01613
0.0161489
0.0161772
0.0162148
0.0162618
0.0163178
0.0163829
0.0164568
0.0165393
0.0166303
0.0167297
0.0168372
0.0169524
0.017075
0.0172047
0.0173411
0.017484
0.0176332
0.0177915
0.0196206
0.0194425
0.0192712
0.019105
0.0189438
0.0187879
0.0186373
0.0184926
0.0183539
0.0182215
0.0180958
0.0179771
0.0178656
0.0177617
0.0176657
0.0175776
0.0174975
0.0174258
0.0173624
0.0173079
0.0172623
0.0172257
0.0171982
0.0171797
0.0171705
0.0171704
0.0171795
0.0171977
0.0172251
0.0172616
0.017307
0.0173613
0.0174242
0.0174957
0.0175755
0.0176635
0.0177597
0.0178636
0.0179749
0.0180935
0.0182188
0.0183506
0.0184886
0.0186326
0.0187839
0.0205852
0.0204129
0.0202476
0.0200871
0.0199316
0.0197812
0.019636
0.0194964
0.0193626
0.0192349
0.0191136
0.0189991
0.0188916
0.0187913
0.0186987
0.0186136
0.0185363
0.018467
0.0184059
0.0183533
0.0183093
0.0182739
0.0182473
0.0182295
0.0182205
0.0182204
0.0182292
0.0182469
0.0182733
0.0183085
0.0183523
0.0184047
0.0184655
0.0185345
0.0186114
0.0186964
0.0187892
0.0188894
0.0189969
0.0191112
0.0192321
0.0193591
0.0194921
0.0196306
0.019775
0.0215472
0.0213809
0.0212215
0.021067
0.0209173
0.0207725
0.0206327
0.0204984
0.0203696
0.0202467
0.02013
0.0200197
0.0199162
0.0198197
0.0197305
0.0196486
0.0195742
0.0195074
0.0194486
0.0193979
0.0193555
0.0193214
0.0192958
0.0192786
0.01927
0.0192699
0.0192783
0.0192953
0.0193208
0.0193547
0.0193969
0.0194473
0.0195059
0.0195723
0.0196464
0.0197282
0.0198175
0.019914
0.0200174
0.0201275
0.0202438
0.020366
0.0204938
0.0206268
0.020764
0.0225059
0.0223458
0.0221925
0.022044
0.0219002
0.0217612
0.021627
0.0214979
0.0213743
0.0212563
0.0211442
0.0210383
0.0209389
0.0208462
0.0207605
0.0206818
0.0206103
0.0205462
0.0204897
0.0204409
0.0204002
0.0203675
0.0203428
0.0203263
0.020318
0.0203179
0.0203261
0.0203424
0.0203668
0.0203994
0.0204399
0.0204884
0.0205446
0.0206085
0.0206797
0.0207583
0.020844
0.0209367
0.021036
0.0211416
0.0212533
0.0213705
0.0214931
0.0216204
0.0234611
0.0233072
0.0231601
0.0230178
0.02288
0.0227467
0.0226182
0.0224946
0.0223761
0.0222631
0.0221557
0.0220543
0.0219591
0.0218703
0.0217881
0.0217127
0.0216442
0.0215828
0.0215286
0.0214819
0.0214428
0.0214114
0.0213878
0.021372
0.021364
0.0213639
0.0213717
0.0213873
0.0214108
0.021442
0.0214808
0.0215273
0.0215812
0.0216423
0.0217105
0.0217859
0.021868
0.0219568
0.0220519
0.0221531
0.02226
0.0223722
0.0224894
0.0226111
0.0244124
0.0242647
0.024124
0.0239878
0.0238561
0.0237287
0.0236059
0.0234878
0.0233746
0.0232666
0.023164
0.0230671
0.0229761
0.0228912
0.0228127
0.0227407
0.0226752
0.0226164
0.0225646
0.02252
0.0224826
0.0224526
0.02243
0.0224149
0.0224073
0.0224072
0.0224146
0.0224296
0.022452
0.0224818
0.0225189
0.0225633
0.0226148
0.0226733
0.0227385
0.0228105
0.022889
0.0229738
0.0230646
0.0231613
0.0232634
0.0233705
0.0234824
0.0235983
0.0253593
0.025218
0.0250836
0.0249537
0.0248281
0.0247067
0.0245897
0.0244771
0.0243693
0.0242664
0.0241686
0.0240763
0.0239895
0.0239087
0.0238339
0.0237652
0.0237027
0.0236468
0.0235974
0.0235548
0.0235192
0.0234906
0.023469
0.0234546
0.0234473
0.0234472
0.0234543
0.0234685
0.0234899
0.0235183
0.0235537
0.023596
0.0236451
0.0237008
0.023763
0.0238316
0.0239064
0.0239872
0.0240737
0.0241658
0.024263
0.024365
0.0244715
0.0245817
0.0263016
0.0261668
0.0260388
0.0259152
0.0257957
0.0256804
0.0255691
0.0254622
0.0253598
0.025262
0.0251691
0.0250814
0.024999
0.0249221
0.024851
0.0247858
0.0247264
0.0246732
0.0246263
0.0245858
0.0245519
0.0245247
0.0245042
0.0244905
0.0244836
0.0244835
0.0244902
0.0245038
0.0245241
0.0245511
0.0245847
0.0246249
0.0246716
0.0247245
0.0247836
0.0248487
0.0249198
0.0249966
0.0250788
0.0251662
0.0252585
0.0253554
0.0254563
0.0255607
0.0272389
0.0271106
0.0269891
0.0268719
0.0267587
0.0266493
0.026544
0.0264427
0.0263457
0.0262531
0.0261651
0.026082
0.026004
0.0259312
0.0258638
0.025802
0.0257458
0.0256954
0.0256509
0.0256126
0.0255805
0.0255547
0.0255353
0.0255223
0.0255157
0.0255156
0.025522
0.0255348
0.025554
0.0255796
0.0256115
0.0256496
0.0256937
0.0257439
0.0257998
0.0258615
0.0259288
0.0260015
0.0260794
0.0261622
0.0262495
0.0263411
0.0264366
0.0265352
0.0281711
0.0280494
0.0279344
0.0278235
0.0277166
0.0276133
0.0275139
0.0274183
0.0273267
0.0272393
0.0271563
0.0270778
0.0270042
0.0269355
0.026872
0.0268136
0.0267605
0.0267129
0.0266709
0.0266347
0.0266044
0.0265801
0.0265617
0.0265495
0.0265433
0.0265432
0.0265492
0.0265613
0.0265794
0.0266035
0.0266336
0.0266696
0.0267113
0.0267586
0.0268114
0.0268696
0.0269331
0.0270017
0.0270752
0.0271533
0.0272357
0.0273221
0.027412
0.0275047
0.0290979
0.0289829
0.0288743
0.0287699
0.0286692
0.0285721
0.0284785
0.0283886
0.0283025
0.0282204
0.0281423
0.0280686
0.0279993
0.0279348
0.027875
0.0278201
0.0277703
0.0277255
0.027686
0.0276519
0.0276234
0.0276005
0.0275833
0.0275717
0.0275659
0.0275658
0.0275714
0.0275828
0.0275998
0.0276225
0.0276508
0.0276846
0.0277238
0.0277683
0.0278179
0.0278727
0.0279324
0.0279968
0.0280659
0.0281393
0.0282167
0.0282978
0.0283822
0.028469
0.0300192
0.0299107
0.0298087
0.0297108
0.0296164
0.0295254
0.0294378
0.0293536
0.029273
0.029196
0.029123
0.029054
0.0289891
0.0289287
0.0288728
0.0288214
0.0287747
0.0287327
0.0286957
0.0286638
0.0286371
0.0286157
0.0285995
0.0285887
0.0285832
0.0285831
0.0285884
0.028599
0.028615
0.0286362
0.0286627
0.0286944
0.0287311
0.0287727
0.0288191
0.0288704
0.0289263
0.0289866
0.0290512
0.0291199
0.0291923
0.0292681
0.029347
0.029428
0.029509
0.0309347
0.0308329
0.0307375
0.030646
0.0305579
0.030473
0.0303913
0.0303129
0.0302377
0.0301661
0.030098
0.0300337
0.0299733
0.029917
0.0298649
0.029817
0.0297735
0.0297344
0.0297
0.0296702
0.0296453
0.0296253
0.0296102
0.0296001
0.029595
0.0295949
0.0295998
0.0296097
0.0296246
0.0296444
0.0296691
0.0296986
0.0297327
0.0297715
0.0298148
0.0298625
0.0299146
0.0299708
0.0300309
0.0300949
0.0301623
0.0302328
0.0303061
0.0303812
0.0304554
0.0318443
0.0317492
0.0316603
0.0315753
0.0314935
0.0314147
0.031339
0.0312663
0.0311967
0.0311303
0.0310672
0.0310076
0.0309517
0.0308995
0.0308512
0.0308069
0.0307666
0.0307303
0.0306984
0.0306708
0.0306477
0.0306292
0.0306152
0.0306058
0.0306011
0.030601
0.0306055
0.0306147
0.0306285
0.0306468
0.0306697
0.030697
0.0307286
0.0307645
0.0308046
0.0308488
0.030897
0.0309491
0.0310048
0.031064
0.0311264
0.0311916
0.0312594
0.0313287
0.0313965
0.0327478
0.0326594
0.0325771
0.0324985
0.0324231
0.0323505
0.0322807
0.0322137
0.0321496
0.0320884
0.0320304
0.0319755
0.031924
0.031876
0.0318316
0.0317907
0.0317536
0.0317202
0.0316908
0.0316654
0.0316441
0.031627
0.0316141
0.0316055
0.0316011
0.031601
0.0316052
0.0316136
0.0316263
0.0316432
0.0316642
0.0316894
0.0317185
0.0317516
0.0317884
0.0318291
0.0318735
0.0319214
0.0319727
0.0320271
0.0320845
0.0321445
0.0322066
0.0322701
0.0323322
0.0324121
0.0336452
0.0335635
0.0334878
0.0334156
0.0333465
0.03328
0.0332162
0.0331549
0.0330963
0.0330404
0.0329874
0.0329372
0.0328902
0.0328463
0.0328057
0.0327683
0.0327344
0.0327039
0.032677
0.0326537
0.0326343
0.0326186
0.0326069
0.0325989
0.0325949
0.0325948
0.0325986
0.0326063
0.0326179
0.0326334
0.0326526
0.0326755
0.0327022
0.0327324
0.0327661
0.0328032
0.0328438
0.0328875
0.0329344
0.0329841
0.0330364
0.0330911
0.0331477
0.0332054
0.0332617
0.033334
0.0345363
0.0344614
0.0343922
0.0343265
0.0342636
0.0342033
0.0341454
0.0340898
0.0340367
0.0339861
0.033938
0.0338926
0.03385
0.0338102
0.0337734
0.0337396
0.0337089
0.0336812
0.0336568
0.0336357
0.0336181
0.0336039
0.0335932
0.033586
0.0335824
0.0335823
0.0335857
0.0335927
0.0336032
0.0336172
0.0336346
0.0336554
0.0336795
0.0337068
0.0337373
0.033771
0.0338077
0.0338473
0.0338897
0.0339347
0.033982
0.0340314
0.0340825
0.0341344
0.0341851
0.0342503
0.0343186
0.0354211
0.0353529
0.0352903
0.035231
0.0351744
0.0351201
0.0350681
0.0350183
0.0349707
0.0349252
0.0348822
0.0348415
0.0348033
0.0347676
0.0347347
0.0347044
0.0346768
0.034652
0.0346301
0.0346112
0.0345954
0.0345826
0.034573
0.0345666
0.0345633
0.0345632
0.0345663
0.0345725
0.0345819
0.0345944
0.03461
0.0346286
0.0346502
0.0346747
0.0347021
0.0347322
0.0347651
0.0348006
0.0348385
0.0348788
0.0349212
0.0349653
0.0350109
0.035057
0.035102
0.0351605
0.0352218
0.0362994
0.0362379
0.0361819
0.036129
0.0360786
0.0360305
0.0359844
0.0359402
0.0358981
0.0358579
0.0358197
0.0357837
0.03575
0.0357185
0.0356893
0.0356625
0.0356381
0.0356162
0.0355968
0.03558
0.035566
0.0355547
0.0355462
0.0355405
0.0355375
0.0355374
0.0355402
0.0355457
0.035554
0.035565
0.0355788
0.0355953
0.0356144
0.035636
0.0356602
0.0356868
0.0357159
0.0357473
0.0357808
0.0358164
0.0358537
0.0358927
0.0359327
0.0359732
0.0360125
0.0360645
0.036119
0.0371712
0.0371165
0.037067
0.0370204
0.0369763
0.0369343
0.036894
0.0368556
0.0368188
0.0367838
0.0367507
0.0367193
0.03669
0.0366626
0.0366372
0.0366139
0.0365927
0.0365735
0.0365566
0.036542
0.0365298
0.03652
0.0365126
0.0365076
0.036505
0.0365049
0.0365073
0.036512
0.0365192
0.0365289
0.0365408
0.0365552
0.0365718
0.0365906
0.0366116
0.0366347
0.03666
0.0366872
0.0367164
0.0367473
0.0367797
0.0368134
0.036848
0.0368827
0.0369164
0.0369619
0.03701
0.0380365
0.0379886
0.0379455
0.0379053
0.0378674
0.0378314
0.037797
0.0377642
0.0377329
0.0377031
0.0376748
0.0376482
0.0376232
0.0375999
0.0375783
0.0375584
0.0375404
0.0375241
0.0375097
0.0374972
0.0374868
0.0374784
0.037472
0.0374678
0.0374656
0.0374655
0.0374675
0.0374715
0.0374776
0.0374858
0.037496
0.0375082
0.0375223
0.0375383
0.0375561
0.0375758
0.0375973
0.0376204
0.0376452
0.0376714
0.0376989
0.0377274
0.0377565
0.0377856
0.0378136
0.0378529
0.0378946
0.0388953
0.038854
0.0388174
0.0387836
0.0387519
0.0387218
0.0386933
0.0386661
0.0386402
0.0386155
0.0385922
0.0385702
0.0385495
0.0385303
0.0385125
0.0384961
0.0384812
0.0384677
0.0384557
0.0384454
0.0384368
0.0384298
0.0384246
0.038421
0.0384192
0.0384191
0.0384207
0.038424
0.0384291
0.0384358
0.0384442
0.0384543
0.0384659
0.0384791
0.0384938
0.03851
0.0385277
0.0385468
0.0385671
0.0385887
0.0386113
0.0386346
0.0386583
0.0386817
0.0387042
0.0387371
0.0387726
0.0388108
0.0397474
0.0397128
0.0396826
0.0396551
0.0396296
0.0396055
0.0395828
0.0395612
0.0395406
0.0395211
0.0395026
0.0394852
0.0394689
0.0394538
0.0394397
0.0394268
0.039415
0.0394043
0.0393948
0.0393866
0.0393797
0.0393742
0.03937
0.0393672
0.0393657
0.0393656
0.0393669
0.0393695
0.0393735
0.0393788
0.0393854
0.0393933
0.0394025
0.0394129
0.0394244
0.0394372
0.0394511
0.0394662
0.0394822
0.0394992
0.0395168
0.039535
0.0395533
0.0395711
0.0395879
0.0396147
0.039644
0.0396752
0.0405929
0.040565
0.0405412
0.0405199
0.0405005
0.0404824
0.0404654
0.0404494
0.0404342
0.0404198
0.0404062
0.0403934
0.0403814
0.0403702
0.0403599
0.0403504
0.0403417
0.0403338
0.0403268
0.0403207
0.0403156
0.0403115
0.0403084
0.0403063
0.0403052
0.0403051
0.040306
0.0403079
0.0403108
0.0403147
0.0403195
0.0403253
0.040332
0.0403396
0.0403481
0.0403574
0.0403676
0.0403786
0.0403903
0.0404027
0.0404155
0.0404286
0.0404415
0.0404537
0.0404649
0.0404856
0.0405087
0.0405333
0.0414317
0.0414105
0.041393
0.041378
0.0413647
0.0413525
0.0413413
0.0413308
0.0413209
0.0413116
0.0413028
0.0412945
0.0412868
0.0412797
0.0412731
0.041267
0.0412614
0.0412563
0.0412517
0.0412477
0.0412444
0.0412417
0.0412396
0.0412382
0.0412375
0.0412374
0.0412379
0.0412391
0.0412409
0.0412434
0.0412465
0.0412502
0.0412545
0.0412593
0.0412646
0.0412706
0.0412771
0.0412841
0.0412915
0.0412993
0.0413072
0.0413152
0.0413228
0.0413295
0.041335
0.0413497
0.0413666
0.0413849
0.0422639
0.0422493
0.0422382
0.0422294
0.0422221
0.0422158
0.0422103
0.0422052
0.0422006
0.0421964
0.0421924
0.0421887
0.0421853
0.0421821
0.0421792
0.0421765
0.0421739
0.0421716
0.0421694
0.0421675
0.0421659
0.0421647
0.0421637
0.042163
0.0421626
0.0421625
0.0421626
0.0421631
0.0421639
0.042165
0.0421663
0.0421679
0.0421698
0.0421718
0.0421741
0.0421767
0.0421795
0.0421825
0.0421856
0.0421889
0.042192
0.0421949
0.0421973
0.0421985
0.0421983
0.042207
0.0422179
0.0422299
0.0430894
0.0430815
0.0430767
0.043074
0.0430727
0.0430723
0.0430724
0.0430729
0.0430735
0.0430742
0.043075
0.0430759
0.0430767
0.0430775
0.0430782
0.0430789
0.0430794
0.0430798
0.04308
0.0430802
0.0430804
0.0430805
0.0430805
0.0430805
0.0430805
0.0430804
0.0430802
0.04308
0.0430797
0.0430794
0.043079
0.0430785
0.043078
0.0430773
0.0430765
0.0430757
0.0430748
0.0430739
0.0430728
0.0430715
0.0430699
0.0430678
0.0430649
0.0430606
0.0430548
0.0430576
0.0430625
0.0430683
0.0439085
0.0439072
0.0439086
0.0439121
0.0439168
0.0439222
0.0439279
0.0439338
0.0439396
0.0439454
0.0439509
0.0439562
0.0439613
0.043966
0.0439704
0.0439744
0.043978
0.043981
0.0439837
0.0439859
0.0439878
0.0439893
0.0439904
0.0439911
0.0439914
0.0439913
0.0439908
0.0439899
0.0439886
0.0439868
0.0439847
0.0439822
0.0439792
0.0439758
0.043972
0.0439678
0.0439633
0.0439584
0.0439531
0.0439473
0.043941
0.0439339
0.0439258
0.043916
0.0439047
0.0439016
0.0439005
0.0439002
0.0447218
0.0447271
0.0447348
0.0447443
0.044755
0.0447662
0.0447775
0.0447888
0.0447999
0.0448106
0.0448208
0.0448306
0.0448399
0.0448485
0.0448566
0.0448639
0.0448705
0.0448763
0.0448814
0.0448857
0.0448893
0.0448922
0.0448943
0.0448957
0.0448963
0.0448962
0.0448954
0.0448938
0.0448914
0.0448883
0.0448844
0.0448798
0.0448745
0.0448684
0.0448615
0.044854
0.0448459
0.044837
0.0448275
0.0448173
0.0448062
0.0447941
0.0447808
0.0447656
0.0447487
0.0447398
0.0447327
0.0447262
0.00152255
0.0019542
0.0024898
0.00312316
0.00383961
0.00462152
0.00545235
0.00631882
0.00721127
0.00812307
0.00904963
0.00998771
0.0109349
0.0118891
0.0128489
0.0138127
0.0147793
0.0157477
0.0167168
0.0176859
0.0186541
0.0196208
0.0205854
0.0215474
0.0225062
0.0234614
0.0244126
0.0253595
0.0263018
0.0272391
0.0281713
0.0290982
0.0300194
0.0309349
0.0318445
0.032748
0.0336454
0.0345365
0.0354213
0.0362996
0.0371715
0.0380368
0.0388955
0.0397476
0.0405931
0.0414319
0.0422641
0.0430897
0.0439087
0.044722
0.00141471
0.00181872
0.00232789
0.00293865
0.00363776
0.00440775
0.00523126
0.00609385
0.00698485
0.00789683
0.00882471
0.00976494
0.0107149
0.0116725
0.012636
0.013604
0.0145751
0.0155483
0.0165225
0.0174969
0.0184707
0.0194431
0.0204136
0.0213815
0.0223464
0.0233078
0.0242654
0.0252187
0.0261674
0.0271113
0.0280501
0.0289835
0.0299114
0.0308336
0.0317499
0.0326601
0.0335642
0.0344621
0.0353536
0.0362386
0.0371172
0.0379893
0.0388547
0.0397135
0.0405657
0.0414112
0.04225
0.0430822
0.0439079
0.0447278
0.00131569
0.00169259
0.00217518
0.00276262
0.00344347
0.00420071
0.00501633
0.00587478
0.00676424
0.00767643
0.00860573
0.00954824
0.0105011
0.0114622
0.0124296
0.0134018
0.0143776
0.0153557
0.016335
0.0173148
0.0182941
0.0192723
0.0202486
0.0212225
0.0221936
0.0231612
0.024125
0.0250847
0.0260398
0.0269902
0.0279355
0.0288754
0.0298099
0.0307386
0.0316614
0.0325783
0.0334889
0.0343934
0.0352914
0.036183
0.0370681
0.0379466
0.0388185
0.0396838
0.0405424
0.0413942
0.0422394
0.0430779
0.0439098
0.0447359
0.00122553
0.00157622
0.00203237
0.00259593
0.00325761
0.00400114
0.00480811
0.00566187
0.00654947
0.00746171
0.00839234
0.00933706
0.0102928
0.0112573
0.0122286
0.013205
0.0141853
0.0151683
0.0161527
0.0171378
0.0181226
0.0191064
0.0200886
0.0210684
0.0220455
0.0230193
0.0239893
0.0249552
0.0259167
0.0268734
0.0278251
0.0287714
0.0297123
0.0306475
0.0315768
0.0325001
0.0334172
0.0343281
0.0352325
0.0361306
0.037022
0.0379069
0.0387852
0.0396567
0.0405216
0.0413797
0.042231
0.0430757
0.0439137
0.044746
0.00114411
0.00146975
0.00189991
0.00243935
0.00308109
0.00381001
0.00460752
0.005456
0.00634136
0.0072534
0.00818518
0.009132
0.0100905
0.0110583
0.0120333
0.0130139
0.0139987
0.0149864
0.0159758
0.0169661
0.0179563
0.0189456
0.0199335
0.0209191
0.0219021
0.0228818
0.0238579
0.02483
0.0257976
0.0267606
0.0277185
0.0286712
0.0296183
0.0305598
0.0314954
0.032425
0.0333485
0.0342656
0.0351764
0.0360806
0.0369784
0.0378695
0.0387539
0.0396316
0.0405026
0.0413668
0.0422242
0.0430748
0.0439189
0.0447571
0.00107106
0.001373
0.00177792
0.00229323
0.00291449
0.003628
0.00441526
0.00525786
0.00614054
0.00705209
0.00798483
0.00893359
0.00989476
0.0108657
0.0118444
0.0128289
0.013818
0.0148103
0.0158045
0.0167999
0.0177953
0.01879
0.0197834
0.0207747
0.0217634
0.022749
0.023731
0.024709
0.0256827
0.0266516
0.0276157
0.0285744
0.0295277
0.0304754
0.0314171
0.0323529
0.0332824
0.0342057
0.0351226
0.0360329
0.0369367
0.0378338
0.0387243
0.039608
0.0404849
0.041355
0.0422183
0.0430748
0.0439247
0.0447687
0.00100586
0.00128559
0.00166624
0.00215772
0.00275817
0.0034556
0.0042319
0.00506801
0.00594756
0.00685831
0.00779179
0.0087423
0.00970595
0.0106799
0.011662
0.0126504
0.0136437
0.0146403
0.0156393
0.0166394
0.0176399
0.0186398
0.0196385
0.0206353
0.0216296
0.0226208
0.0236085
0.0245923
0.0255718
0.0265466
0.0275166
0.0284812
0.0294405
0.0303941
0.0313418
0.0322834
0.0332189
0.0341481
0.0350709
0.0359872
0.0368969
0.0377999
0.0386961
0.0395856
0.0404683
0.0413442
0.0422132
0.0430753
0.0439308
0.0447804
0.000947935
0.00120703
0.00156457
0.00203275
0.00261231
0.00329316
0.00405787
0.00488691
0.00576291
0.00667254
0.00760652
0.00855859
0.00952454
0.0105014
0.0114867
0.0124788
0.013476
0.0144769
0.0154803
0.0164851
0.0174904
0.0184954
0.0194992
0.0205012
0.0215008
0.0224975
0.0234907
0.0244801
0.0254652
0.0264457
0.0274213
0.0283917
0.0293566
0.0303159
0.0312694
0.0322168
0.033158
0.034093
0.0350215
0.0359434
0.0368587
0.0377674
0.0386693
0.0395644
0.0404526
0.041334
0.0422085
0.0430761
0.0439371
0.0447921
0.000896649
0.00113672
0.00147247
0.00191813
0.00247695
0.00314092
0.00389352
0.00471498
0.005587
0.00649521
0.00742944
0.00838288
0.00935095
0.0103304
0.0113189
0.0123144
0.0133154
0.0143203
0.015328
0.0163373
0.0173472
0.018357
0.0193657
0.0203728
0.0213775
0.0223794
0.0233779
0.0243726
0.0253631
0.026349
0.02733
0.0283059
0.0292763
0.0302411
0.0312001
0.032153
0.0330998
0.0340402
0.0349741
0.0359016
0.0368223
0.0377364
0.0386437
0.0395442
0.0404378
0.0413245
0.0422042
0.0430771
0.0439433
0.0448035
0.000851392
0.00107405
0.00138945
0.00181354
0.002352
0.00299899
0.00373911
0.00455256
0.00542022
0.0063267
0.00726096
0.00821557
0.00918557
0.0101675
0.0111589
0.0121577
0.0131622
0.014171
0.0151827
0.0161962
0.0172106
0.0182249
0.0192383
0.0202502
0.0212598
0.0222666
0.0232702
0.0242699
0.0252656
0.0262567
0.0272429
0.028224
0.0291997
0.0301698
0.031134
0.0320922
0.0330442
0.0339898
0.034929
0.0358617
0.0367877
0.0377069
0.0386194
0.039525
0.0404237
0.0413154
0.0422003
0.0430782
0.0439493
0.0448145
0.00081157
0.00101839
0.00131492
0.00171858
0.00223729
0.00286739
0.00359481
0.00439991
0.00526288
0.00616736
0.00710143
0.00805701
0.00902877
0.010013
0.0110072
0.012009
0.0130169
0.0140292
0.0150447
0.0160623
0.0170808
0.0180994
0.0191173
0.0201337
0.0211479
0.0221595
0.0231678
0.0241724
0.025173
0.026169
0.0271602
0.0281462
0.0291269
0.030102
0.0310712
0.0320344
0.0329914
0.033942
0.0348862
0.0358238
0.0367548
0.0376789
0.0385963
0.0395068
0.0404103
0.0413069
0.0421966
0.0430792
0.0439551
0.0448251
0.000776631
0.000969152
0.00124834
0.00163281
0.00213255
0.00274607
0.00346074
0.00425725
0.00511528
0.00601752
0.00695119
0.00790757
0.0088809
0.00986729
0.0108639
0.0118686
0.0128796
0.0138954
0.0149145
0.0159358
0.0169583
0.0179809
0.019003
0.0200236
0.0210423
0.0220583
0.0230711
0.0240803
0.0250854
0.0260861
0.027082
0.0280727
0.0290581
0.0300379
0.0310118
0.0319798
0.0329415
0.0338968
0.0348457
0.035788
0.0367237
0.0376525
0.0385745
0.0394896
0.0403978
0.0412989
0.0421931
0.0430803
0.0439607
0.0448351
0.000746067
0.000925744
0.0011891
0.00155575
0.00203747
0.0026349
0.00333693
0.00412476
0.00497765
0.00587746
0.00681054
0.00776754
0.00874227
0.0097306
0.0107296
0.0117369
0.0127508
0.0137697
0.0147922
0.015817
0.0168432
0.0178696
0.0188956
0.0199203
0.020943
0.0219632
0.0229803