/*--------------------------------*- C++ -*----------------------------------*\
  =========                 |
  \\      /  F ield         | OpenFOAM: The Open Source CFD Toolbox
   \\    /   O peration     | Website:  https://openfoam.org
    \\  /    A nd           | Version:  7
     \\/     M anipulation  |
\*---------------------------------------------------------------------------*/
FoamFile
{
    version     2.0;
    format      ascii;
    class       volScalarField;
    location    "20000";
    object      k;
}
// * * * * * * * * * * * * * * * * * * * * * * * * * * * * * * * * * * * * * //

dimensions      [0 2 -2 0 0 0 0];

internalField   nonuniform List<scalar> 
1748
(
5.91995e-07
5.85095e-07
5.78829e-07
5.73155e-07
5.6807e-07
5.63556e-07
5.59591e-07
5.56153e-07
5.53216e-07
5.50756e-07
5.4875e-07
5.47176e-07
5.46013e-07
5.45247e-07
5.44867e-07
5.44867e-07
5.45247e-07
5.46013e-07
5.47176e-07
6.03964e-07
5.97031e-07
5.90537e-07
5.84526e-07
5.79055e-07
5.7414e-07
5.69781e-07
5.65966e-07
5.62682e-07
5.59911e-07
5.57635e-07
5.55838e-07
5.54505e-07
5.53623e-07
5.53184e-07
5.53184e-07
5.53623e-07
5.54505e-07
5.55838e-07
6.17336e-07
6.09989e-07
6.03189e-07
5.96867e-07
5.91061e-07
5.85797e-07
5.81088e-07
5.76935e-07
5.73334e-07
5.70277e-07
5.67753e-07
5.65751e-07
5.64259e-07
5.6327e-07
5.62777e-07
5.62778e-07
5.63271e-07
5.6426e-07
5.65751e-07
6.31638e-07
6.23881e-07
6.16725e-07
6.10082e-07
6.03963e-07
5.98388e-07
5.93371e-07
5.88922e-07
5.85044e-07
5.81735e-07
5.78991e-07
5.76805e-07
5.75173e-07
5.74088e-07
5.73547e-07
5.73547e-07
5.74089e-07
5.75174e-07
5.76806e-07
6.4668e-07
6.38574e-07
6.31078e-07
6.24119e-07
6.17703e-07
6.11842e-07
6.06549e-07
6.01838e-07
5.97714e-07
5.94183e-07
5.91245e-07
5.88898e-07
5.87141e-07
5.85972e-07
5.85388e-07
5.85388e-07
5.85973e-07
5.87142e-07
5.88899e-07
6.62332e-07
6.53934e-07
6.46142e-07
6.38895e-07
6.32204e-07
6.26081e-07
6.2054e-07
6.15593e-07
6.11252e-07
6.07525e-07
6.04415e-07
6.01927e-07
6.0006e-07
5.98817e-07
5.98195e-07
5.98195e-07
5.98817e-07
6.00061e-07
6.01928e-07
6.78486e-07
6.6985e-07
6.61806e-07
6.54309e-07
6.47373e-07
6.41016e-07
6.35252e-07
6.30097e-07
6.25564e-07
6.21663e-07
6.18403e-07
6.1579e-07
6.13828e-07
6.12518e-07
6.11863e-07
6.11863e-07
6.12518e-07
6.13828e-07
6.15791e-07
6.95052e-07
6.86224e-07
6.77972e-07
6.70263e-07
6.63117e-07
6.56555e-07
6.50596e-07
6.45258e-07
6.40556e-07
6.36504e-07
6.33112e-07
6.3039e-07
6.28343e-07
6.26977e-07
6.26293e-07
6.26293e-07
6.26977e-07
6.28344e-07
6.30391e-07
7.11949e-07
7.0297e-07
6.94551e-07
6.86666e-07
6.79344e-07
6.72609e-07
6.66482e-07
6.60986e-07
6.56138e-07
6.51954e-07
6.48449e-07
6.45632e-07
6.43512e-07
6.42096e-07
6.41387e-07
6.41387e-07
6.42096e-07
6.43513e-07
6.45632e-07
7.29107e-07
7.20013e-07
7.11463e-07
7.03438e-07
6.95972e-07
6.89092e-07
6.82825e-07
6.77195e-07
6.72222e-07
6.67927e-07
6.64323e-07
6.61426e-07
6.59243e-07
6.57785e-07
6.57054e-07
6.57054e-07
6.57784e-07
6.59244e-07
6.61426e-07
7.4646e-07
7.37285e-07
7.28636e-07
7.20504e-07
7.12923e-07
7.05927e-07
6.99545e-07
6.93804e-07
6.88729e-07
6.84339e-07
6.80653e-07
6.77687e-07
6.75452e-07
6.73957e-07
6.73208e-07
6.73208e-07
6.73957e-07
6.75452e-07
6.77688e-07
7.63952e-07
7.54724e-07
7.46007e-07
7.37796e-07
7.30129e-07
7.23043e-07
7.1657e-07
7.1074e-07
7.05581e-07
7.01114e-07
6.97361e-07
6.94338e-07
6.92059e-07
6.90535e-07
6.8977e-07
6.8977e-07
6.90534e-07
6.92059e-07
6.94339e-07
7.81528e-07
7.72276e-07
7.63518e-07
7.55254e-07
7.47527e-07
7.40374e-07
7.33832e-07
7.27934e-07
7.22709e-07
7.18181e-07
7.14374e-07
7.11306e-07
7.08991e-07
7.07442e-07
7.06666e-07
7.06666e-07
7.07442e-07
7.08992e-07
7.11306e-07
7.99144e-07
7.89891e-07
7.81115e-07
7.72823e-07
7.65058e-07
7.57861e-07
7.51272e-07
7.45323e-07
7.40049e-07
7.35475e-07
7.31626e-07
7.28523e-07
7.26181e-07
7.24613e-07
7.23827e-07
7.23827e-07
7.24613e-07
7.26182e-07
7.28524e-07
8.16756e-07
8.07523e-07
7.98753e-07
7.90454e-07
7.82672e-07
7.75451e-07
7.68832e-07
7.62851e-07
7.57543e-07
7.52937e-07
7.49058e-07
7.45929e-07
5.91996e-07
5.85095e-07
5.7883e-07
5.73156e-07
5.6807e-07
5.63556e-07
5.59592e-07
5.56153e-07
5.53216e-07
5.50756e-07
5.4875e-07
5.47176e-07
5.46013e-07
5.45247e-07
5.44867e-07
5.44867e-07
5.45247e-07
5.46013e-07
5.47176e-07
5.4875e-07
5.50756e-07
5.53216e-07
5.56153e-07
5.59592e-07
5.63556e-07
5.6807e-07
5.73155e-07
5.78829e-07
5.85095e-07
5.91995e-07
6.03964e-07
5.97032e-07
5.90537e-07
5.84527e-07
5.79055e-07
5.7414e-07
5.69781e-07
5.65966e-07
5.62682e-07
5.59911e-07
5.57635e-07
5.55838e-07
5.54504e-07
5.53623e-07
5.53184e-07
5.53184e-07
5.53623e-07
5.54505e-07
5.55838e-07
5.57635e-07
5.59911e-07
5.62682e-07
5.65967e-07
5.69781e-07
5.7414e-07
5.79055e-07
5.84526e-07
5.90537e-07
5.97032e-07
6.03964e-07
6.17337e-07
6.0999e-07
6.0319e-07
5.96868e-07
5.91061e-07
5.85797e-07
5.81088e-07
5.76935e-07
5.73334e-07
5.70277e-07
5.67753e-07
5.65751e-07
5.64259e-07
5.6327e-07
5.62777e-07
5.62777e-07
5.6327e-07
5.64259e-07
5.65751e-07
5.67753e-07
5.70278e-07
5.73335e-07
5.76935e-07
5.81088e-07
5.85797e-07
5.91061e-07
5.96868e-07
6.03189e-07
6.09989e-07
6.17337e-07
6.31639e-07
6.23882e-07
6.16726e-07
6.10082e-07
6.03963e-07
5.98388e-07
5.93371e-07
5.88922e-07
5.85044e-07
5.81735e-07
5.78991e-07
5.76805e-07
5.75173e-07
5.74088e-07
5.73547e-07
5.73547e-07
5.74088e-07
5.75173e-07
5.76806e-07
5.78991e-07
5.81735e-07
5.85044e-07
5.88923e-07
5.93372e-07
5.98388e-07
6.03963e-07
6.10082e-07
6.16725e-07
6.23881e-07
6.31638e-07
6.46681e-07
6.38574e-07
6.31079e-07
6.2412e-07
6.17703e-07
6.11842e-07
6.0655e-07
6.01838e-07
5.97714e-07
5.94183e-07
5.91245e-07
5.88898e-07
5.87141e-07
5.85972e-07
5.85388e-07
5.85388e-07
5.85972e-07
5.87142e-07
5.88899e-07
5.91245e-07
5.94183e-07
5.97715e-07
6.01838e-07
6.0655e-07
6.11842e-07
6.17703e-07
6.2412e-07
6.31078e-07
6.38574e-07
6.4668e-07
6.62332e-07
6.53935e-07
6.46142e-07
6.38895e-07
6.32204e-07
6.26081e-07
6.2054e-07
6.15593e-07
6.11252e-07
6.07525e-07
6.04415e-07
6.01927e-07
6.0006e-07
5.98816e-07
5.98194e-07
5.98194e-07
5.98816e-07
6.00061e-07
6.01927e-07
6.04416e-07
6.07525e-07
6.11253e-07
6.15594e-07
6.2054e-07
6.26081e-07
6.32204e-07
6.38895e-07
6.46142e-07
6.53934e-07
6.62332e-07
6.78487e-07
6.69851e-07
6.61807e-07
6.54309e-07
6.47374e-07
6.41016e-07
6.35252e-07
6.30097e-07
6.25564e-07
6.21663e-07
6.18403e-07
6.1579e-07
6.13827e-07
6.12518e-07
6.11863e-07
6.11863e-07
6.12518e-07
6.13828e-07
6.15791e-07
6.18404e-07
6.21664e-07
6.25565e-07
6.30098e-07
6.35253e-07
6.41016e-07
6.47374e-07
6.54309e-07
6.61806e-07
6.6985e-07
6.78486e-07
6.95053e-07
6.86224e-07
6.77973e-07
6.70263e-07
6.63117e-07
6.56555e-07
6.50597e-07
6.45258e-07
6.40556e-07
6.36504e-07
6.33112e-07
6.3039e-07
6.28343e-07
6.26976e-07
6.26292e-07
6.26292e-07
6.26977e-07
6.28343e-07
6.3039e-07
6.33113e-07
6.36504e-07
6.40557e-07
6.45259e-07
6.50597e-07
6.56556e-07
6.63117e-07
6.70263e-07
6.77972e-07
6.86224e-07
6.95052e-07
7.1195e-07
7.02971e-07
6.94551e-07
6.86667e-07
6.79345e-07
6.72609e-07
6.66483e-07
6.60986e-07
6.56138e-07
6.51954e-07
6.48449e-07
6.45632e-07
6.43512e-07
6.42096e-07
6.41386e-07
6.41386e-07
6.42095e-07
6.43512e-07
6.45632e-07
6.48449e-07
6.51955e-07
6.56139e-07
6.60987e-07
6.66483e-07
6.72609e-07
6.79345e-07
6.86667e-07
6.94551e-07
7.0297e-07
7.11949e-07
7.29108e-07
7.20014e-07
7.11463e-07
7.03439e-07
6.95972e-07
6.89092e-07
6.82825e-07
6.77195e-07
6.72223e-07
6.67927e-07
6.64323e-07
6.61426e-07
6.59243e-07
6.57784e-07
6.57054e-07
6.57053e-07
6.57784e-07
6.59243e-07
6.61425e-07
6.64324e-07
6.67927e-07
6.72223e-07
6.77196e-07
6.82826e-07
6.89092e-07
6.95972e-07
7.03439e-07
7.11463e-07
7.20013e-07
7.29107e-07
7.46461e-07
7.37285e-07
7.28637e-07
7.20504e-07
7.12924e-07
7.05928e-07
6.99546e-07
6.93805e-07
6.88729e-07
6.84339e-07
6.80653e-07
6.77687e-07
6.75452e-07
6.73957e-07
6.73208e-07
6.73208e-07
6.73957e-07
6.75452e-07
6.77687e-07
6.80654e-07
6.84339e-07
6.88729e-07
6.93805e-07
6.99546e-07
7.05928e-07
7.12924e-07
7.20504e-07
7.28637e-07
7.37285e-07
7.4646e-07
7.63953e-07
7.54725e-07
7.46008e-07
7.37797e-07
7.3013e-07
7.23044e-07
7.1657e-07
7.10741e-07
7.05581e-07
7.01114e-07
6.97361e-07
6.94338e-07
6.92059e-07
6.90534e-07
6.8977e-07
6.8977e-07
6.90534e-07
6.92059e-07
6.94338e-07
6.97361e-07
7.01114e-07
7.05581e-07
7.10741e-07
7.16571e-07
7.23043e-07
7.30129e-07
7.37796e-07
7.46007e-07
7.54724e-07
7.63952e-07
7.81529e-07
7.72277e-07
7.63518e-07
7.55255e-07
7.47527e-07
7.40375e-07
7.33833e-07
7.27934e-07
7.22709e-07
7.18181e-07
7.14374e-07
7.11306e-07
7.08991e-07
7.07442e-07
7.06666e-07
7.06666e-07
7.07442e-07
7.08991e-07
7.11306e-07
7.14374e-07
7.18181e-07
7.22709e-07
7.27935e-07
7.33833e-07
7.40374e-07
7.47527e-07
7.55254e-07
7.63518e-07
7.72276e-07
7.81528e-07
7.99145e-07
7.89891e-07
7.81116e-07
7.72824e-07
7.65058e-07
7.57862e-07
7.51272e-07
7.45324e-07
7.40049e-07
7.35475e-07
7.31626e-07
7.28523e-07
7.26181e-07
7.24613e-07
7.23827e-07
7.23827e-07
7.24613e-07
7.26181e-07
7.28523e-07
7.31627e-07
7.35475e-07
7.40049e-07
7.45324e-07
7.51272e-07
7.57861e-07
7.65058e-07
7.72823e-07
7.81116e-07
7.89891e-07
7.99144e-07
8.16757e-07
8.07524e-07
7.98754e-07
7.90454e-07
7.82672e-07
7.75451e-07
7.68832e-07
7.62851e-07
7.57543e-07
7.52937e-07
7.49058e-07
7.45929e-07
7.43566e-07
7.41984e-07
7.41191e-07
7.41191e-07
7.41984e-07
7.43567e-07
7.45929e-07
7.49058e-07
7.52937e-07
7.57543e-07
7.62851e-07
7.68832e-07
7.75451e-07
7.82672e-07
7.90454e-07
7.98753e-07
8.07524e-07
8.16756e-07
8.34327e-07
8.25135e-07
8.16389e-07
8.08102e-07
8.00322e-07
7.93095e-07
7.86463e-07
7.80466e-07
7.75138e-07
7.70511e-07
7.66613e-07
7.63467e-07
7.61091e-07
7.59499e-07
7.58701e-07
7.58701e-07
7.59499e-07
7.61091e-07
7.63467e-07
7.66613e-07
7.70511e-07
7.75138e-07
7.80466e-07
8.5182e-07
8.42686e-07
8.33982e-07
8.25725e-07
8.17965e-07
8.10748e-07
8.04119e-07
7.9812e-07
7.92785e-07
7.8815e-07
7.84242e-07
7.81086e-07
7.78702e-07
7.77105e-07
7.76304e-07
7.76304e-07
8.69207e-07
8.60145e-07
8.515e-07
8.43289e-07
8.35563e-07
8.28372e-07
8.2176e-07
8.1577e-07
8.10441e-07
8.05807e-07
8.01899e-07
7.98741e-07
8.86458e-07
8.77484e-07
8.68911e-07
8.6076e-07
8.53082e-07
8.45929e-07
9.03548e-07
8.94674e-07
8.86186e-07
8.78108e-07
8.70491e-07
8.63388e-07
9.20456e-07
9.11693e-07
9.03301e-07
8.95306e-07
8.87762e-07
8.8072e-07
5.91996e-07
6.03964e-07
6.17337e-07
6.31639e-07
6.46681e-07
6.62332e-07
6.78487e-07
6.95053e-07
7.1195e-07
7.29108e-07
7.46461e-07
7.63953e-07
7.81529e-07
7.99145e-07
8.16757e-07
8.34327e-07
8.51821e-07
8.69207e-07
8.86458e-07
9.03548e-07
9.20456e-07
5.85096e-07
5.97032e-07
6.0999e-07
6.23882e-07
6.38574e-07
6.53935e-07
6.69851e-07
6.86225e-07
7.02971e-07
7.20014e-07
7.37286e-07
7.54725e-07
7.72277e-07
7.89892e-07
8.07525e-07
8.25135e-07
8.42686e-07
8.60146e-07
8.77484e-07
8.94674e-07
9.11693e-07
5.7883e-07
5.90538e-07
6.0319e-07
6.16726e-07
6.31079e-07
6.46143e-07
6.61807e-07
6.77974e-07
6.94552e-07
7.11464e-07
7.28638e-07
7.46009e-07
7.63519e-07
7.81117e-07
7.98754e-07
8.16389e-07
8.33983e-07
8.515e-07
8.68911e-07
8.86186e-07
9.03301e-07
5.73156e-07
5.84527e-07
5.96868e-07
6.10082e-07
6.2412e-07
6.38896e-07
6.5431e-07
6.70264e-07
6.86668e-07
7.0344e-07
7.20505e-07
7.37797e-07
7.55255e-07
7.72824e-07
7.90455e-07
8.08102e-07
8.25726e-07
8.43289e-07
8.6076e-07
8.78108e-07
8.95307e-07
9.12332e-07
5.68071e-07
5.79056e-07
5.91062e-07
6.03964e-07
6.17704e-07
6.32205e-07
6.47374e-07
6.63118e-07
6.79345e-07
6.95973e-07
7.12925e-07
7.30131e-07
7.47528e-07
7.65059e-07
7.82673e-07
8.00323e-07
8.17966e-07
8.35564e-07
8.53083e-07
8.70492e-07
8.87763e-07
9.0487e-07
9.21792e-07
9.38507e-07
5.63557e-07
5.74141e-07
5.85798e-07
5.98389e-07
6.11843e-07
6.26082e-07
6.41017e-07
6.56556e-07
6.7261e-07
6.89093e-07
7.05929e-07
7.23044e-07
7.40375e-07
7.57862e-07
7.75452e-07
7.93096e-07
8.10749e-07
8.28372e-07
8.4593e-07
8.63389e-07
8.8072e-07
8.97898e-07
9.14899e-07
9.31701e-07
5.59592e-07
5.69781e-07
5.81088e-07
5.93372e-07
6.0655e-07
6.2054e-07
6.35253e-07
6.50597e-07
6.66483e-07
6.82826e-07
6.99546e-07
7.16571e-07
7.33834e-07
7.51273e-07
7.68833e-07
7.86464e-07
8.0412e-07
8.2176e-07
8.39347e-07
8.56847e-07
8.74229e-07
8.91467e-07
9.08536e-07
9.25414e-07
5.56153e-07
5.65967e-07
5.76936e-07
5.88923e-07
6.01839e-07
6.15594e-07
6.30098e-07
6.45259e-07
6.60987e-07
6.77196e-07
6.93805e-07
7.10741e-07
7.27935e-07
7.45324e-07
7.62852e-07
7.80466e-07
7.9812e-07
8.1577e-07
8.33379e-07
8.50911e-07
8.68336e-07
8.85624e-07
9.02751e-07
9.19694e-07
5.53216e-07
5.62683e-07
5.73335e-07
5.85045e-07
5.97715e-07
6.11253e-07
6.25565e-07
6.40557e-07
6.56139e-07
6.72224e-07
6.88729e-07
7.05581e-07
7.22709e-07
7.40049e-07
7.57544e-07
7.75138e-07
7.92785e-07
8.10441e-07
8.28066e-07
8.45624e-07
8.63082e-07
8.80413e-07
8.97588e-07
9.14586e-07
5.50757e-07
5.59911e-07
5.70278e-07
5.81736e-07
5.94184e-07
6.07526e-07
6.21664e-07
6.36505e-07
6.51955e-07
6.67928e-07
6.8434e-07
7.01114e-07
7.18181e-07
7.35476e-07
7.52937e-07
7.70512e-07
7.8815e-07
8.05807e-07
8.23443e-07
8.4102e-07
8.58506e-07
8.75871e-07
8.93087e-07
9.10131e-07
5.48751e-07
5.57636e-07
5.67754e-07
5.78991e-07
5.91246e-07
6.04416e-07
6.18404e-07
6.33113e-07
6.48449e-07
6.64324e-07
6.80654e-07
6.97361e-07
7.14374e-07
7.31627e-07
7.49058e-07
7.66614e-07
7.84242e-07
8.01899e-07
8.19542e-07
8.37134e-07
8.54641e-07
8.72033e-07
8.89282e-07
9.06363e-07
5.47176e-07
5.55839e-07
5.65751e-07
5.76806e-07
5.88899e-07
6.01928e-07
6.15791e-07
6.30391e-07
6.45632e-07
6.61426e-07
6.77688e-07
6.94338e-07
7.11306e-07
7.28523e-07
7.45929e-07
7.63467e-07
7.81087e-07
7.98741e-07
8.16389e-07
8.33992e-07
8.51515e-07
8.68928e-07
8.86202e-07
9.03313e-07
5.46014e-07
5.54505e-07
5.6426e-07
5.75174e-07
5.87142e-07
6.00061e-07
6.13828e-07
6.28344e-07
6.43512e-07
6.59244e-07
6.75452e-07
6.92059e-07
7.08992e-07
7.26182e-07
7.43567e-07
7.61091e-07
7.78703e-07
7.96355e-07
8.14006e-07
8.31616e-07
8.4915e-07
8.66578e-07
8.83872e-07
9.01004e-07
5.45248e-07
5.53623e-07
5.63271e-07
5.74089e-07
5.85973e-07
5.98817e-07
6.12519e-07
6.26977e-07
6.42096e-07
6.57785e-07
6.73957e-07
6.90535e-07
7.07443e-07
7.24614e-07
7.41985e-07
7.59499e-07
7.77105e-07
7.94756e-07
8.12408e-07
8.30022e-07
8.47564e-07
8.65003e-07
8.82308e-07
8.99454e-07
5.44868e-07
5.53185e-07
5.62778e-07
5.73548e-07
5.85389e-07
5.98195e-07
6.11864e-07
6.26293e-07
6.41387e-07
6.57054e-07
6.73208e-07
6.89771e-07
7.06666e-07
7.23827e-07
7.41191e-07
7.58701e-07
7.76304e-07
7.93954e-07
8.11606e-07
8.29223e-07
8.46769e-07
8.64212e-07
8.81523e-07
8.98677e-07
5.44868e-07
5.53185e-07
5.62778e-07
5.73548e-07
5.85389e-07
5.98195e-07
6.11864e-07
6.26293e-07
6.41387e-07
6.57054e-07
6.73209e-07
6.89771e-07
7.06666e-07
7.23828e-07
7.41192e-07
7.58701e-07
7.76304e-07
7.93954e-07
5.45248e-07
5.53623e-07
5.63271e-07
5.74089e-07
5.85973e-07
5.98817e-07
6.12519e-07
6.26977e-07
5.46014e-07
5.54505e-07
5.6426e-07
5.47176e-07
5.55839e-07
5.65751e-07
5.82645e-07
5.75739e-07
5.69747e-07
5.64413e-07
5.59684e-07
5.55526e-07
5.51909e-07
5.48804e-07
5.46179e-07
5.44004e-07
5.42248e-07
5.40883e-07
5.39882e-07
5.39227e-07
5.38904e-07
5.38904e-07
5.39228e-07
5.39882e-07
5.40883e-07
5.75739e-07
5.69225e-07
5.63496e-07
5.58399e-07
5.53902e-07
5.49973e-07
5.46584e-07
5.43699e-07
5.41284e-07
5.39301e-07
5.37716e-07
5.36494e-07
5.35605e-07
5.35027e-07
5.34742e-07
5.34742e-07
5.35027e-07
5.35605e-07
5.36494e-07
5.69746e-07
5.63496e-07
5.58012e-07
5.53151e-07
5.48887e-07
5.45193e-07
5.42034e-07
5.39374e-07
5.37173e-07
5.35388e-07
5.33979e-07
5.32905e-07
5.32133e-07
5.31635e-07
5.31392e-07
5.31392e-07
5.31636e-07
5.32134e-07
5.32905e-07
5.64413e-07
5.58399e-07
5.53151e-07
5.48531e-07
5.44513e-07
5.41066e-07
5.38155e-07
5.35738e-07
5.3377e-07
5.32203e-07
5.3099e-07
5.30085e-07
5.29448e-07
5.29044e-07
5.28848e-07
5.28848e-07
5.29044e-07
5.29448e-07
5.30085e-07
5.59684e-07
5.53901e-07
5.48887e-07
5.44513e-07
5.40748e-07
5.3756e-07
5.34911e-07
5.32755e-07
5.31042e-07
5.29716e-07
5.28723e-07
5.28009e-07
5.27526e-07
5.2723e-07
5.2709e-07
5.2709e-07
5.2723e-07
5.27526e-07
5.28009e-07
5.55525e-07
5.49973e-07
5.45193e-07
5.41066e-07
5.3756e-07
5.34642e-07
5.32269e-07
5.30391e-07
5.28951e-07
5.27887e-07
5.27134e-07
5.26627e-07
5.26305e-07
5.2612e-07
5.26035e-07
5.26035e-07
5.2612e-07
5.26305e-07
5.26627e-07
5.51908e-07
5.46583e-07
5.42034e-07
5.38154e-07
5.34911e-07
5.32269e-07
5.30182e-07
5.28595e-07
5.27444e-07
5.26652e-07
5.26139e-07
5.25825e-07
5.25642e-07
5.25543e-07
5.25498e-07
5.25498e-07
5.25543e-07
5.25642e-07
5.25825e-07
5.48803e-07
5.43699e-07
5.39374e-07
5.35738e-07
5.32755e-07
5.30391e-07
5.28595e-07
5.27306e-07
5.26441e-07
5.25904e-07
5.25593e-07
5.25418e-07
5.25321e-07
5.25267e-07
5.25242e-07
5.25242e-07
5.25267e-07
5.25321e-07
5.25418e-07
5.46179e-07
5.41283e-07
5.37173e-07
5.3377e-07
5.31042e-07
5.28951e-07
5.27444e-07
5.26441e-07
5.25835e-07
5.25499e-07
5.25319e-07
5.25216e-07
5.25149e-07
5.25106e-07
5.25085e-07
5.25085e-07
5.25106e-07
5.25149e-07
5.25216e-07
5.44004e-07
5.39301e-07
5.35388e-07
5.32203e-07
5.29716e-07
5.27887e-07
5.26652e-07
5.25904e-07
5.25499e-07
5.2529e-07
5.25171e-07
5.25087e-07
5.25024e-07
5.24982e-07
5.24961e-07
5.24961e-07
5.24982e-07
5.25024e-07
5.25087e-07
5.42248e-07
5.37715e-07
5.33978e-07
5.3099e-07
5.28723e-07
5.27134e-07
5.26139e-07
5.25593e-07
5.25319e-07
5.25171e-07
5.25067e-07
5.24983e-07
5.24921e-07
5.24879e-07
5.24858e-07
5.24858e-07
5.24879e-07
5.24921e-07
5.24983e-07
5.40882e-07
5.36493e-07
5.32905e-07
5.30085e-07
5.28009e-07
5.26627e-07
5.25825e-07
5.25418e-07
5.25216e-07
5.25087e-07
5.24983e-07
5.249e-07
5.24838e-07
5.24796e-07
5.24776e-07
5.24776e-07
5.24796e-07
5.24838e-07
5.249e-07
5.39882e-07
5.35605e-07
5.32133e-07
5.29448e-07
5.27526e-07
5.26305e-07
5.25642e-07
5.25321e-07
5.25149e-07
5.25024e-07
5.24921e-07
5.24838e-07
5.24776e-07
5.24734e-07
5.24714e-07
5.24714e-07
5.24734e-07
5.24776e-07
5.24838e-07
5.39227e-07
5.35027e-07
5.31635e-07
5.29043e-07
5.2723e-07
5.26119e-07
5.25543e-07
5.25267e-07
5.25106e-07
5.24982e-07
5.24879e-07
5.24796e-07
5.24734e-07
5.24693e-07
5.24672e-07
5.24672e-07
5.24693e-07
5.24734e-07
5.24796e-07
5.38903e-07
5.34742e-07
5.31391e-07
5.28848e-07
5.2709e-07
5.26035e-07
5.25498e-07
5.25242e-07
5.25085e-07
5.24961e-07
5.24858e-07
5.24776e-07
5.24714e-07
5.24672e-07
5.24652e-07
5.24652e-07
5.24672e-07
5.24714e-07
5.24776e-07
5.38903e-07
5.34742e-07
5.31391e-07
5.28848e-07
5.2709e-07
5.26035e-07
5.25498e-07
5.25242e-07
5.25085e-07
5.24961e-07
5.24858e-07
5.24776e-07
5.24714e-07
5.24672e-07
5.24652e-07
5.24652e-07
5.24672e-07
5.24714e-07
5.24776e-07
5.39227e-07
5.35027e-07
5.31635e-07
5.29043e-07
5.2723e-07
5.26119e-07
5.25543e-07
5.25267e-07
5.25106e-07
5.24982e-07
5.24879e-07
5.24796e-07
5.24734e-07
5.24693e-07
5.24672e-07
5.24672e-07
5.24693e-07
5.24734e-07
5.24796e-07
5.39882e-07
5.35605e-07
5.32133e-07
5.29448e-07
5.27526e-07
5.26305e-07
5.25642e-07
5.25321e-07
5.25149e-07
5.25024e-07
5.24921e-07
5.24838e-07
5.24776e-07
5.24734e-07
5.24714e-07
5.24714e-07
5.24734e-07
5.24776e-07
5.24838e-07
5.40882e-07
5.36493e-07
5.32905e-07
5.30085e-07
5.28009e-07
5.26627e-07
5.25825e-07
5.25418e-07
5.25216e-07
5.25087e-07
5.24983e-07
5.249e-07
5.24838e-07
5.24796e-07
5.24776e-07
5.24776e-07
5.24796e-07
5.24838e-07
5.249e-07
5.42248e-07
5.37716e-07
5.33979e-07
5.3099e-07
5.28723e-07
5.27134e-07
5.26139e-07
5.25593e-07
5.25319e-07
5.25171e-07
5.25067e-07
5.24983e-07
5.24921e-07
5.24879e-07
5.24858e-07
5.24858e-07
5.24879e-07
5.24921e-07
5.24983e-07
5.44004e-07
5.39301e-07
5.35388e-07
5.32203e-07
5.29716e-07
5.27887e-07
5.26652e-07
5.25904e-07
5.25499e-07
5.2529e-07
5.25171e-07
5.25087e-07
5.25024e-07
5.24982e-07
5.24961e-07
5.24961e-07
5.24982e-07
5.25024e-07
5.25087e-07
5.46179e-07
5.41283e-07
5.37173e-07
5.3377e-07
5.31042e-07
5.28951e-07
5.27443e-07
5.26441e-07
5.25835e-07
5.25499e-07
5.25319e-07
5.25216e-07
5.25149e-07
5.25106e-07
5.25085e-07
5.25085e-07
5.25106e-07
5.25149e-07
5.25216e-07
5.48803e-07
5.43699e-07
5.39374e-07
5.35737e-07
5.32755e-07
5.30391e-07
5.28595e-07
5.27306e-07
5.26441e-07
5.25904e-07
5.25593e-07
5.25418e-07
5.25321e-07
5.25267e-07
5.25241e-07
5.25241e-07
5.25267e-07
5.25321e-07
5.25418e-07
5.51908e-07
5.46583e-07
5.42034e-07
5.38154e-07
5.34911e-07
5.32269e-07
5.30182e-07
5.28595e-07
5.27444e-07
5.26652e-07
5.26139e-07
5.25825e-07
5.25642e-07
5.25543e-07
5.25498e-07
5.25498e-07
5.25543e-07
5.25642e-07
5.25825e-07
5.55525e-07
5.49973e-07
5.45193e-07
5.41066e-07
5.3756e-07
5.34642e-07
5.32269e-07
5.30391e-07
5.28951e-07
5.27887e-07
5.27134e-07
5.26627e-07
5.26305e-07
5.26119e-07
5.26035e-07
5.26035e-07
5.26119e-07
5.26305e-07
5.26627e-07
5.59684e-07
5.53901e-07
5.48887e-07
5.44513e-07
5.40747e-07
5.3756e-07
5.34911e-07
5.32755e-07
5.31042e-07
5.29716e-07
5.28723e-07
5.28009e-07
5.27526e-07
5.2723e-07
5.2709e-07
5.2709e-07
5.2723e-07
5.27526e-07
5.28009e-07
5.64413e-07
5.58399e-07
5.53151e-07
5.48531e-07
5.44513e-07
5.41066e-07
5.38154e-07
5.35737e-07
5.3377e-07
5.32203e-07
5.3099e-07
5.30085e-07
5.29448e-07
5.29044e-07
5.28848e-07
5.28848e-07
5.29044e-07
5.29448e-07
5.30085e-07
5.69746e-07
5.63496e-07
5.58011e-07
5.53151e-07
5.48887e-07
5.45192e-07
5.42034e-07
5.39374e-07
5.37173e-07
5.35388e-07
5.33979e-07
5.32905e-07
5.32133e-07
5.31635e-07
5.31391e-07
5.31391e-07
5.31635e-07
5.32133e-07
5.32905e-07
5.75739e-07
5.69224e-07
5.63496e-07
5.58399e-07
5.53901e-07
5.49973e-07
5.46583e-07
5.43699e-07
5.41283e-07
5.39301e-07
5.37716e-07
5.36493e-07
5.35605e-07
5.35027e-07
5.34742e-07
5.34742e-07
5.35027e-07
5.35605e-07
5.36494e-07
5.82644e-07
5.75739e-07
5.69746e-07
5.64413e-07
5.59683e-07
5.55525e-07
5.51908e-07
5.48803e-07
5.46179e-07
5.44004e-07
5.42248e-07
5.40882e-07
5.39882e-07
5.39227e-07
5.38903e-07
5.38903e-07
5.39227e-07
5.39882e-07
5.40882e-07
)
;

boundaryField
{
    inlet
    {
        type            cyclic;
    }
    outlet
    {
        type            cyclic;
    }
    wall
    {
        type            fixedValue;
        value           nonuniform 0();
    }
    procBoundary6to4
    {
        type            processor;
        value           nonuniform List<scalar> 
43
(
7.77105e-07
7.78703e-07
7.81087e-07
7.84242e-07
7.96355e-07
7.94756e-07
7.93953e-07
7.77105e-07
7.93953e-07
8.39347e-07
8.33379e-07
8.28066e-07
8.23443e-07
8.19542e-07
7.96355e-07
8.16389e-07
8.39347e-07
8.56846e-07
9.37161e-07
9.28518e-07
9.20232e-07
9.12332e-07
9.04869e-07
8.74229e-07
8.97897e-07
9.37161e-07
9.28518e-07
9.20233e-07
9.20233e-07
9.29163e-07
9.29163e-07
9.4578e-07
9.54999e-07
9.48286e-07
9.4208e-07
9.36431e-07
9.31385e-07
9.2698e-07
9.23254e-07
9.20237e-07
9.17953e-07
9.1642e-07
9.1565e-07
)
;
    }
    procBoundary6to5
    {
        type            processor;
        value           nonuniform List<scalar> 
31
(
7.43566e-07
7.41984e-07
7.41191e-07
7.41191e-07
7.41984e-07
7.43567e-07
7.45929e-07
8.34326e-07
8.25134e-07
8.16388e-07
8.08101e-07
8.00322e-07
7.93094e-07
7.86463e-07
7.80466e-07
7.75138e-07
7.70511e-07
7.66613e-07
7.43566e-07
7.63467e-07
7.86463e-07
7.93095e-07
8.00321e-07
8.08101e-07
8.16388e-07
8.25134e-07
8.34326e-07
7.8815e-07
7.92785e-07
7.86463e-07
7.98119e-07
)
;
    }
    procBoundary6to7
    {
        type            processor;
        value           nonuniform List<scalar> 
72
(
5.48751e-07
5.57635e-07
5.67754e-07
5.78991e-07
5.91246e-07
6.04416e-07
6.18405e-07
6.33113e-07
6.4845e-07
6.64324e-07
6.80654e-07
6.97362e-07
7.14375e-07
7.31627e-07
8.11607e-07
8.29224e-07
8.46769e-07
8.64212e-07
8.81523e-07
8.98677e-07
6.42096e-07
6.57785e-07
6.73958e-07
6.90535e-07
7.07443e-07
7.24614e-07
7.41985e-07
7.595e-07
7.77106e-07
8.11607e-07
7.94757e-07
5.75174e-07
5.87143e-07
6.00062e-07
6.13829e-07
6.42096e-07
6.28344e-07
5.75174e-07
5.48751e-07
5.57636e-07
5.76806e-07
5.67754e-07
5.42248e-07
5.37716e-07
5.33979e-07
5.3099e-07
5.28723e-07
5.27134e-07
5.26139e-07
5.25593e-07
5.25319e-07
5.25171e-07
5.25067e-07
5.24983e-07
5.24921e-07
5.24879e-07
5.24858e-07
5.24858e-07
5.24879e-07
5.24921e-07
5.24983e-07
5.25067e-07
5.25171e-07
5.25319e-07
5.25593e-07
5.26139e-07
5.27134e-07
5.28723e-07
5.3099e-07
5.33979e-07
5.37716e-07
5.42248e-07
)
;
    }
}


// ************************************************************************* //
