/*--------------------------------*- C++ -*----------------------------------*\
  =========                 |
  \\      /  F ield         | OpenFOAM: The Open Source CFD Toolbox
   \\    /   O peration     | Website:  https://openfoam.org
    \\  /    A nd           | Version:  7
     \\/     M anipulation  |
\*---------------------------------------------------------------------------*/
FoamFile
{
    version     2.0;
    format      ascii;
    class       volScalarField;
    location    "20000";
    object      nu;
}
// * * * * * * * * * * * * * * * * * * * * * * * * * * * * * * * * * * * * * //

dimensions      [0 2 -1 0 0 0 0];

internalField   nonuniform List<scalar> 
1748
(
2.3145e-05
2.44796e-05
2.52606e-05
2.62213e-05
2.73272e-05
2.85289e-05
2.97962e-05
3.11003e-05
3.24082e-05
3.36792e-05
3.48648e-05
3.59105e-05
3.67597e-05
3.73601e-05
3.76715e-05
3.76715e-05
3.73601e-05
3.67597e-05
3.59105e-05
1.89925e-05
2.10185e-05
2.17624e-05
2.2609e-05
2.35558e-05
2.45741e-05
2.5635e-05
2.67098e-05
2.77682e-05
2.87767e-05
2.96993e-05
3.04982e-05
3.11368e-05
3.15828e-05
3.18123e-05
3.18123e-05
3.15828e-05
3.11368e-05
3.04982e-05
1.72949e-05
1.91647e-05
1.98862e-05
2.06096e-05
2.13673e-05
2.21609e-05
2.29774e-05
2.37976e-05
2.45991e-05
2.53568e-05
2.60444e-05
2.66354e-05
2.71047e-05
2.74309e-05
2.75982e-05
2.75982e-05
2.74309e-05
2.71047e-05
2.66354e-05
1.60959e-05
1.76158e-05
1.82778e-05
1.89225e-05
1.95671e-05
2.02183e-05
2.08728e-05
2.15203e-05
2.21457e-05
2.27316e-05
2.3259e-05
2.37093e-05
2.4065e-05
2.43112e-05
2.44371e-05
2.44371e-05
2.43112e-05
2.4065e-05
2.37094e-05
1.51144e-05
1.6348e-05
1.69221e-05
1.74876e-05
1.80452e-05
1.85966e-05
1.91398e-05
1.96686e-05
2.0173e-05
2.06408e-05
2.10586e-05
2.1413e-05
2.16915e-05
2.18836e-05
2.19816e-05
2.19816e-05
2.18836e-05
2.16915e-05
2.1413e-05
1.42756e-05
1.52921e-05
1.57847e-05
1.62748e-05
1.67578e-05
1.7231e-05
1.76915e-05
1.81342e-05
1.85519e-05
1.89358e-05
1.92761e-05
1.9563e-05
1.97873e-05
1.99416e-05
2.00201e-05
2.00201e-05
1.99416e-05
1.97873e-05
1.9563e-05
1.35435e-05
1.4394e-05
1.48194e-05
1.52443e-05
1.56634e-05
1.60726e-05
1.64681e-05
1.68452e-05
1.7198e-05
1.75198e-05
1.78032e-05
1.80409e-05
1.8226e-05
1.83529e-05
1.84174e-05
1.84174e-05
1.83529e-05
1.8226e-05
1.80409e-05
1.28957e-05
1.36169e-05
1.3988e-05
1.43587e-05
1.47244e-05
1.50807e-05
1.54237e-05
1.57489e-05
1.60514e-05
1.63257e-05
1.65661e-05
1.67668e-05
1.69225e-05
1.7029e-05
1.7083e-05
1.7083e-05
1.7029e-05
1.69225e-05
1.67668e-05
1.23168e-05
1.29354e-05
1.32624e-05
1.35886e-05
1.39099e-05
1.42225e-05
1.45225e-05
1.48059e-05
1.50684e-05
1.53054e-05
1.55122e-05
1.56842e-05
1.58174e-05
1.59082e-05
1.59542e-05
1.59542e-05
1.59082e-05
1.58174e-05
1.56842e-05
1.17951e-05
1.23312e-05
1.26219e-05
1.29113e-05
1.31959e-05
1.34722e-05
1.37368e-05
1.3986e-05
1.42161e-05
1.44231e-05
1.46031e-05
1.47525e-05
1.48678e-05
1.49463e-05
1.49861e-05
1.49861e-05
1.49463e-05
1.48678e-05
1.47525e-05
1.13217e-05
1.17904e-05
1.2051e-05
1.23098e-05
1.25638e-05
1.28099e-05
1.3045e-05
1.3266e-05
1.34694e-05
1.36519e-05
1.38103e-05
1.39413e-05
1.40423e-05
1.4111e-05
1.41458e-05
1.41458e-05
1.4111e-05
1.40423e-05
1.39413e-05
1.08895e-05
1.13026e-05
1.15379e-05
1.1771e-05
1.19992e-05
1.22199e-05
1.24304e-05
1.26278e-05
1.28091e-05
1.29714e-05
1.31119e-05
1.3228e-05
1.33173e-05
1.3378e-05
1.34086e-05
1.34086e-05
1.3378e-05
1.33173e-05
1.3228e-05
1.04927e-05
1.08595e-05
1.10732e-05
1.12845e-05
1.1491e-05
1.16903e-05
1.188e-05
1.20575e-05
1.22202e-05
1.23656e-05
1.24913e-05
1.2595e-05
1.26746e-05
1.27286e-05
1.27559e-05
1.27559e-05
1.27286e-05
1.26746e-05
1.2595e-05
1.01268e-05
1.04545e-05
1.06498e-05
1.08425e-05
1.10304e-05
1.12114e-05
1.13834e-05
1.1544e-05
1.1691e-05
1.18222e-05
1.19354e-05
1.20286e-05
1.21001e-05
1.21486e-05
1.21731e-05
1.21731e-05
1.21486e-05
1.21001e-05
1.20286e-05
9.78773e-06
1.00824e-05
1.02618e-05
1.04384e-05
1.06103e-05
1.07756e-05
1.09324e-05
1.10786e-05
1.12122e-05
1.13313e-05
1.14338e-05
1.15182e-05
2.31449e-05
2.44796e-05
2.52605e-05
2.62212e-05
2.73271e-05
2.85289e-05
2.97961e-05
3.11003e-05
3.24081e-05
3.36791e-05
3.48648e-05
3.59104e-05
3.67596e-05
3.73601e-05
3.76714e-05
3.76715e-05
3.73601e-05
3.67596e-05
3.59105e-05
3.48648e-05
3.36792e-05
3.24082e-05
3.11003e-05
2.97961e-05
2.85289e-05
2.73272e-05
2.62213e-05
2.52606e-05
2.44796e-05
2.3145e-05
1.89925e-05
2.10185e-05
2.17623e-05
2.26089e-05
2.35558e-05
2.4574e-05
2.56349e-05
2.67097e-05
2.77681e-05
2.87767e-05
2.96993e-05
3.04982e-05
3.11367e-05
3.15828e-05
3.18122e-05
3.18122e-05
3.15828e-05
3.11367e-05
3.04982e-05
2.96993e-05
2.87767e-05
2.77681e-05
2.67098e-05
2.5635e-05
2.45741e-05
2.35558e-05
2.2609e-05
2.17624e-05
2.10185e-05
1.89925e-05
1.72949e-05
1.91646e-05
1.98862e-05
2.06095e-05
2.13673e-05
2.21608e-05
2.29773e-05
2.37976e-05
2.4599e-05
2.53567e-05
2.60443e-05
2.66354e-05
2.71047e-05
2.74309e-05
2.75982e-05
2.75982e-05
2.74309e-05
2.71047e-05
2.66354e-05
2.60444e-05
2.53567e-05
2.4599e-05
2.37976e-05
2.29774e-05
2.21609e-05
2.13673e-05
2.06095e-05
1.98862e-05
1.91647e-05
1.72949e-05
1.60959e-05
1.76158e-05
1.82778e-05
1.89225e-05
1.9567e-05
2.02182e-05
2.08728e-05
2.15203e-05
2.21457e-05
2.27315e-05
2.3259e-05
2.37093e-05
2.4065e-05
2.43111e-05
2.44371e-05
2.44371e-05
2.43111e-05
2.4065e-05
2.37093e-05
2.3259e-05
2.27315e-05
2.21457e-05
2.15203e-05
2.08728e-05
2.02182e-05
1.9567e-05
1.89225e-05
1.82778e-05
1.76158e-05
1.60959e-05
1.51144e-05
1.6348e-05
1.69221e-05
1.74876e-05
1.80452e-05
1.85966e-05
1.91398e-05
1.96686e-05
2.0173e-05
2.06408e-05
2.10586e-05
2.1413e-05
2.16915e-05
2.18835e-05
2.19816e-05
2.19816e-05
2.18835e-05
2.16915e-05
2.1413e-05
2.10586e-05
2.06408e-05
2.0173e-05
1.96686e-05
1.91398e-05
1.85966e-05
1.80452e-05
1.74876e-05
1.69221e-05
1.6348e-05
1.51144e-05
1.42756e-05
1.5292e-05
1.57847e-05
1.62748e-05
1.67578e-05
1.7231e-05
1.76915e-05
1.81342e-05
1.85519e-05
1.89358e-05
1.92761e-05
1.95629e-05
1.97873e-05
1.99415e-05
2.00201e-05
2.00201e-05
1.99415e-05
1.97873e-05
1.9563e-05
1.92761e-05
1.89358e-05
1.85519e-05
1.81342e-05
1.76915e-05
1.7231e-05
1.67578e-05
1.62748e-05
1.57847e-05
1.52921e-05
1.42756e-05
1.35434e-05
1.43939e-05
1.48194e-05
1.52443e-05
1.56634e-05
1.60726e-05
1.64681e-05
1.68451e-05
1.7198e-05
1.75198e-05
1.78032e-05
1.80409e-05
1.8226e-05
1.83529e-05
1.84174e-05
1.84174e-05
1.83529e-05
1.8226e-05
1.80409e-05
1.78032e-05
1.75198e-05
1.7198e-05
1.68452e-05
1.64681e-05
1.60726e-05
1.56634e-05
1.52443e-05
1.48194e-05
1.43939e-05
1.35435e-05
1.28957e-05
1.36169e-05
1.3988e-05
1.43587e-05
1.47244e-05
1.50807e-05
1.54237e-05
1.57489e-05
1.60514e-05
1.63257e-05
1.65661e-05
1.67668e-05
1.69225e-05
1.7029e-05
1.7083e-05
1.7083e-05
1.7029e-05
1.69225e-05
1.67668e-05
1.65661e-05
1.63257e-05
1.60514e-05
1.57489e-05
1.54237e-05
1.50807e-05
1.47244e-05
1.43587e-05
1.3988e-05
1.36169e-05
1.28957e-05
1.23168e-05
1.29354e-05
1.32624e-05
1.35886e-05
1.39099e-05
1.42225e-05
1.45225e-05
1.48059e-05
1.50684e-05
1.53054e-05
1.55122e-05
1.56842e-05
1.58173e-05
1.59082e-05
1.59542e-05
1.59542e-05
1.59082e-05
1.58173e-05
1.56842e-05
1.55122e-05
1.53054e-05
1.50684e-05
1.48059e-05
1.45225e-05
1.42225e-05
1.39099e-05
1.35886e-05
1.32624e-05
1.29354e-05
1.23168e-05
1.17951e-05
1.23311e-05
1.26219e-05
1.29113e-05
1.31959e-05
1.34722e-05
1.37368e-05
1.3986e-05
1.42161e-05
1.44231e-05
1.46031e-05
1.47525e-05
1.48678e-05
1.49463e-05
1.49861e-05
1.49861e-05
1.49463e-05
1.48678e-05
1.47525e-05
1.46031e-05
1.44231e-05
1.42161e-05
1.3986e-05
1.37368e-05
1.34722e-05
1.31959e-05
1.29113e-05
1.26219e-05
1.23312e-05
1.17951e-05
1.13217e-05
1.17904e-05
1.2051e-05
1.23098e-05
1.25637e-05
1.28099e-05
1.3045e-05
1.32659e-05
1.34694e-05
1.36519e-05
1.38103e-05
1.39413e-05
1.40423e-05
1.4111e-05
1.41458e-05
1.41458e-05
1.4111e-05
1.40423e-05
1.39413e-05
1.38103e-05
1.36519e-05
1.34694e-05
1.32659e-05
1.3045e-05
1.28099e-05
1.25638e-05
1.23098e-05
1.2051e-05
1.17904e-05
1.13217e-05
1.08895e-05
1.13026e-05
1.15378e-05
1.17709e-05
1.19992e-05
1.22199e-05
1.24304e-05
1.26278e-05
1.28091e-05
1.29714e-05
1.31119e-05
1.3228e-05
1.33173e-05
1.33779e-05
1.34086e-05
1.34086e-05
1.33779e-05
1.33173e-05
1.3228e-05
1.31119e-05
1.29714e-05
1.28091e-05
1.26278e-05
1.24304e-05
1.22199e-05
1.19992e-05
1.1771e-05
1.15379e-05
1.13026e-05
1.08895e-05
1.04927e-05
1.08595e-05
1.10732e-05
1.12845e-05
1.1491e-05
1.16903e-05
1.188e-05
1.20575e-05
1.22202e-05
1.23656e-05
1.24913e-05
1.25949e-05
1.26746e-05
1.27286e-05
1.27559e-05
1.27559e-05
1.27286e-05
1.26746e-05
1.25949e-05
1.24913e-05
1.23656e-05
1.22202e-05
1.20575e-05
1.188e-05
1.16903e-05
1.1491e-05
1.12845e-05
1.10732e-05
1.08595e-05
1.04927e-05
1.01268e-05
1.04545e-05
1.06498e-05
1.08425e-05
1.10304e-05
1.12114e-05
1.13834e-05
1.1544e-05
1.1691e-05
1.18222e-05
1.19354e-05
1.20286e-05
1.21001e-05
1.21486e-05
1.21731e-05
1.21731e-05
1.21486e-05
1.21001e-05
1.20286e-05
1.19354e-05
1.18222e-05
1.1691e-05
1.1544e-05
1.13834e-05
1.12114e-05
1.10304e-05
1.08425e-05
1.06498e-05
1.04545e-05
1.01268e-05
9.78772e-06
1.00824e-05
1.02618e-05
1.04384e-05
1.06103e-05
1.07756e-05
1.09324e-05
1.10786e-05
1.12122e-05
1.13313e-05
1.14338e-05
1.15182e-05
1.15829e-05
1.16267e-05
1.16488e-05
1.16488e-05
1.16267e-05
1.15829e-05
1.15182e-05
1.14338e-05
1.13313e-05
1.12122e-05
1.10786e-05
1.09324e-05
1.07756e-05
1.06103e-05
1.04384e-05
1.02618e-05
1.00824e-05
9.78773e-06
9.47231e-06
9.73868e-06
9.90419e-06
1.00669e-05
1.02249e-05
1.03767e-05
1.05204e-05
1.06542e-05
1.07763e-05
1.08849e-05
1.09783e-05
1.10551e-05
1.1114e-05
1.11538e-05
1.11739e-05
1.11739e-05
1.11538e-05
1.1114e-05
1.10551e-05
1.09783e-05
1.08849e-05
1.07763e-05
1.06542e-05
9.17781e-06
9.41981e-06
9.57317e-06
9.72365e-06
9.86964e-06
1.00096e-05
1.01419e-05
1.02649e-05
1.0377e-05
1.04766e-05
1.05623e-05
1.06325e-05
1.06863e-05
1.07227e-05
1.07411e-05
1.07411e-05
8.90187e-06
9.12277e-06
9.26543e-06
9.40519e-06
9.54058e-06
9.67018e-06
9.79253e-06
9.90615e-06
1.00096e-05
1.01013e-05
1.01801e-05
1.02448e-05
8.6425e-06
8.845e-06
8.97818e-06
9.10847e-06
9.2345e-06
9.35498e-06
8.39798e-06
8.58437e-06
8.7091e-06
8.83096e-06
8.94869e-06
9.0611e-06
8.16684e-06
8.33903e-06
8.45619e-06
8.57053e-06
8.68086e-06
8.78607e-06
2.31449e-05
1.89924e-05
1.72949e-05
1.60959e-05
1.51144e-05
1.42755e-05
1.35434e-05
1.28957e-05
1.23168e-05
1.17951e-05
1.13217e-05
1.08895e-05
1.04927e-05
1.01268e-05
9.78772e-06
9.47231e-06
9.1778e-06
8.90186e-06
8.6425e-06
8.39798e-06
8.16684e-06
2.44796e-05
2.10185e-05
1.91646e-05
1.76158e-05
1.6348e-05
1.5292e-05
1.43939e-05
1.36169e-05
1.29354e-05
1.23311e-05
1.17904e-05
1.13026e-05
1.08595e-05
1.04545e-05
1.00824e-05
9.73868e-06
9.41981e-06
9.12276e-06
8.845e-06
8.58437e-06
8.33902e-06
2.52605e-05
2.17623e-05
1.98862e-05
1.82778e-05
1.69221e-05
1.57847e-05
1.48194e-05
1.3988e-05
1.32624e-05
1.26219e-05
1.2051e-05
1.15378e-05
1.10732e-05
1.06498e-05
1.02617e-05
9.90418e-06
9.57317e-06
9.26542e-06
8.97818e-06
8.70909e-06
8.45619e-06
2.62212e-05
2.26089e-05
2.06095e-05
1.89225e-05
1.74876e-05
1.62748e-05
1.52443e-05
1.43587e-05
1.35886e-05
1.29113e-05
1.23098e-05
1.17709e-05
1.12845e-05
1.08425e-05
1.04384e-05
1.00668e-05
9.72365e-06
9.40519e-06
9.10846e-06
8.83096e-06
8.57052e-06
8.32533e-06
2.73271e-05
2.35557e-05
2.13673e-05
1.9567e-05
1.80452e-05
1.67577e-05
1.56634e-05
1.47244e-05
1.39099e-05
1.31959e-05
1.25637e-05
1.19992e-05
1.1491e-05
1.10304e-05
1.06103e-05
1.02249e-05
9.86963e-06
9.54057e-06
9.23449e-06
8.94869e-06
8.68085e-06
8.42903e-06
8.19154e-06
7.96693e-06
2.85288e-05
2.4574e-05
2.21608e-05
2.02182e-05
1.85965e-05
1.7231e-05
1.60726e-05
1.50807e-05
1.42225e-05
1.34722e-05
1.28099e-05
1.22199e-05
1.16903e-05
1.12114e-05
1.07756e-05
1.03767e-05
1.00096e-05
9.67017e-06
9.35498e-06
9.06109e-06
8.78606e-06
8.5278e-06
8.28453e-06
8.05471e-06
2.9796e-05
2.56349e-05
2.29773e-05
2.08728e-05
1.91398e-05
1.76915e-05
1.64681e-05
1.54237e-05
1.45225e-05
1.37368e-05
1.3045e-05
1.24304e-05
1.188e-05
1.13834e-05
1.09324e-05
1.05204e-05
1.01419e-05
9.79253e-06
9.46857e-06
9.16694e-06
8.88503e-06
8.62061e-06
8.37182e-06
8.13701e-06
3.11002e-05
2.67097e-05
2.37976e-05
2.15203e-05
1.96686e-05
1.81342e-05
1.68451e-05
1.57489e-05
1.48059e-05
1.3986e-05
1.32659e-05
1.26278e-05
1.20575e-05
1.1544e-05
1.10786e-05
1.06542e-05
1.02649e-05
9.90614e-06
9.57393e-06
9.265e-06
8.9766e-06
8.70641e-06
8.45243e-06
8.21295e-06
3.24081e-05
2.7768e-05
2.4599e-05
2.21457e-05
2.0173e-05
1.85519e-05
1.71979e-05
1.60514e-05
1.50684e-05
1.42161e-05
1.34694e-05
1.2809e-05
1.22202e-05
1.1691e-05
1.12122e-05
1.07762e-05
1.0377e-05
1.00096e-05
9.6697e-06
9.35404e-06
9.05968e-06
8.78416e-06
8.52541e-06
8.28165e-06
3.3679e-05
2.87766e-05
2.53567e-05
2.27315e-05
2.06408e-05
1.89358e-05
1.75197e-05
1.63257e-05
1.53054e-05
1.44231e-05
1.36519e-05
1.29714e-05
1.23656e-05
1.18222e-05
1.13313e-05
1.08849e-05
1.04766e-05
1.01013e-05
9.75461e-06
9.4329e-06
9.13318e-06
8.85289e-06
8.58988e-06
8.34228e-06
3.48647e-05
2.96992e-05
2.60443e-05
2.3259e-05
2.10586e-05
1.9276e-05
1.78032e-05
1.65661e-05
1.55122e-05
1.46031e-05
1.38103e-05
1.31119e-05
1.24913e-05
1.19354e-05
1.14338e-05
1.09783e-05
1.05623e-05
1.01801e-05
9.82745e-06
9.50049e-06
9.19612e-06
8.9117e-06
8.645e-06
8.39408e-06
3.59103e-05
3.04981e-05
2.66353e-05
2.37093e-05
2.1413e-05
1.95629e-05
1.80409e-05
1.67667e-05
1.56842e-05
1.47525e-05
1.39413e-05
1.3228e-05
1.25949e-05
1.20286e-05
1.15182e-05
1.10551e-05
1.06325e-05
1.02448e-05
9.88713e-06
9.55583e-06
9.24762e-06
8.95979e-06
8.69004e-06
8.43639e-06
3.67594e-05
3.11366e-05
2.71046e-05
2.40649e-05
2.16915e-05
1.97873e-05
1.8226e-05
1.69225e-05
1.58173e-05
1.48678e-05
1.40423e-05
1.33173e-05
1.26746e-05
1.21001e-05
1.15829e-05
1.1114e-05
1.06863e-05
1.02942e-05
9.93275e-06
9.59811e-06
9.28694e-06
8.99648e-06
8.72438e-06
8.46863e-06
3.73599e-05
3.15827e-05
2.74308e-05
2.43111e-05
2.18835e-05
1.99415e-05
1.83529e-05
1.7029e-05
1.59081e-05
1.49463e-05
1.4111e-05
1.33779e-05
1.27286e-05
1.21486e-05
1.16267e-05
1.11538e-05
1.07227e-05
1.03276e-05
9.96359e-06
9.62666e-06
9.31349e-06
9.02125e-06
8.74756e-06
8.49038e-06
3.76712e-05
3.18121e-05
2.75981e-05
2.4437e-05
2.19815e-05
2.00201e-05
1.84174e-05
1.7083e-05
1.59542e-05
1.49861e-05
1.41457e-05
1.34086e-05
1.27559e-05
1.21731e-05
1.16488e-05
1.11739e-05
1.07411e-05
1.03445e-05
9.97913e-06
9.64106e-06
9.32687e-06
9.03373e-06
8.75923e-06
8.50133e-06
3.76712e-05
3.18121e-05
2.75981e-05
2.4437e-05
2.19815e-05
2.00201e-05
1.84174e-05
1.7083e-05
1.59542e-05
1.49861e-05
1.41457e-05
1.34086e-05
1.27559e-05
1.21731e-05
1.16488e-05
1.11739e-05
1.07411e-05
1.03445e-05
3.73599e-05
3.15826e-05
2.74308e-05
2.43111e-05
2.18835e-05
1.99415e-05
1.83529e-05
1.7029e-05
3.67594e-05
3.11366e-05
2.71046e-05
3.59103e-05
3.04981e-05
2.66353e-05
1.84091e-05
2.10561e-05
2.27706e-05
2.44804e-05
2.63121e-05
2.82832e-05
3.03895e-05
3.26101e-05
3.49032e-05
3.72029e-05
3.94158e-05
4.14245e-05
4.30964e-05
4.43015e-05
4.49339e-05
4.49339e-05
4.43015e-05
4.30964e-05
4.14244e-05
2.10561e-05
2.47347e-05
2.66988e-05
2.8709e-05
3.08834e-05
3.32426e-05
3.57849e-05
3.84866e-05
4.12972e-05
4.41336e-05
4.68777e-05
4.93799e-05
5.14709e-05
5.29832e-05
5.37787e-05
5.37787e-05
5.29831e-05
5.14708e-05
4.93798e-05
2.27706e-05
2.66988e-05
2.89666e-05
3.13921e-05
3.41012e-05
3.71225e-05
4.0468e-05
4.41258e-05
4.80476e-05
5.21345e-05
5.62239e-05
6.00835e-05
6.34174e-05
6.58975e-05
6.72276e-05
6.72275e-05
6.58974e-05
6.34172e-05
6.00834e-05
2.44804e-05
2.8709e-05
3.13921e-05
3.43436e-05
3.77391e-05
4.16481e-05
4.61306e-05
5.12283e-05
5.69434e-05
6.32062e-05
6.98299e-05
7.64542e-05
8.25018e-05
8.72112e-05
8.98125e-05
8.98123e-05
8.72106e-05
8.25011e-05
7.64537e-05
2.63121e-05
3.08834e-05
3.41012e-05
3.77391e-05
4.20543e-05
4.72066e-05
5.33746e-05
6.07571e-05
6.95498e-05
7.98861e-05
9.16998e-05
0.000104479
0.00011699
0.000127249
0.000133086
0.000133085
0.000127247
0.000116988
0.000104477
2.82832e-05
3.32427e-05
3.71226e-05
4.16481e-05
4.72067e-05
5.41384e-05
6.2897e-05
7.41041e-05
8.85794e-05
0.000107262
0.000130814
0.000158673
0.000187878
0.00021279
0.000227198
0.000227195
0.000212783
0.00018787
0.000158667
3.03896e-05
3.57849e-05
4.04681e-05
4.61307e-05
5.33747e-05
6.2897e-05
7.57746e-05
9.37317e-05
0.000119445
0.000156561
0.000208471
0.000274651
0.000346292
0.000406927
0.000441312
0.000441303
0.000406903
0.000346261
0.000274629
3.26101e-05
3.84867e-05
4.41259e-05
5.12284e-05
6.07572e-05
7.41043e-05
9.37319e-05
0.000124126
0.000173108
0.000252199
0.000371349
0.000523059
0.000669032
0.000773803
0.000827004
0.000826986
0.000773751
0.000668953
0.000522986
3.49033e-05
4.12973e-05
4.80478e-05
5.69436e-05
6.95502e-05
8.85799e-05
0.000119446
0.000173108
0.000270037
0.000438256
0.000680013
0.0009181
0.001
0.001
0.001
0.001
0.001
0.001
0.00091796
3.7203e-05
4.41338e-05
5.21347e-05
6.32066e-05
7.98868e-05
0.000107263
0.000156563
0.000252203
0.000438261
0.000742104
0.001
0.001
0.001
0.001
0.001
0.001
0.001
0.001
0.001
3.94159e-05
4.68779e-05
5.62243e-05
6.98305e-05
9.1701e-05
0.000130816
0.000208476
0.000371361
0.000680033
0.001
0.001
0.001
0.001
0.001
0.001
0.001
0.001
0.001
0.001
4.14246e-05
4.93802e-05
6.00841e-05
7.64552e-05
0.000104481
0.000158678
0.000274663
0.000523086
0.000918139
0.001
0.001
0.001
0.001
0.001
0.001
0.001
0.001
0.001
0.001
4.30967e-05
5.14713e-05
6.34181e-05
8.25032e-05
0.000116993
0.000187886
0.000346314
0.00066908
0.001
0.001
0.001
0.001
0.001
0.001
0.001
0.001
0.001
0.001
0.001
4.43018e-05
5.29837e-05
6.58984e-05
8.7213e-05
0.000127253
0.000212802
0.000406961
0.000773871
0.001
0.001
0.001
0.001
0.001
0.001
0.001
0.001
0.001
0.001
0.001
4.49342e-05
5.37793e-05
6.72286e-05
8.98147e-05
0.000133091
0.000227214
0.000441358
0.000827091
0.001
0.001
0.001
0.001
0.001
0.001
0.001
0.001
0.001
0.001
0.001
4.49342e-05
5.37793e-05
6.72286e-05
8.98147e-05
0.000133091
0.000227214
0.000441357
0.000827089
0.001
0.001
0.001
0.001
0.001
0.001
0.001
0.001
0.001
0.001
0.001
4.43018e-05
5.29837e-05
6.58984e-05
8.7213e-05
0.000127253
0.000212802
0.000406958
0.000773865
0.001
0.001
0.001
0.001
0.001
0.001
0.001
0.001
0.001
0.001
0.001
4.30967e-05
5.14714e-05
6.34182e-05
8.25033e-05
0.000116993
0.000187886
0.00034631
0.000669071
0.001
0.001
0.001
0.001
0.001
0.001
0.001
0.001
0.001
0.001
0.001
4.14247e-05
4.93802e-05
6.00842e-05
7.64553e-05
0.000104481
0.000158678
0.00027466
0.000523077
0.000918126
0.001
0.001
0.001
0.001
0.001
0.001
0.001
0.001
0.001
0.001
3.9416e-05
4.6878e-05
5.62244e-05
6.98307e-05
9.17012e-05
0.000130816
0.000208475
0.000371355
0.000680018
0.001
0.001
0.001
0.001
0.001
0.001
0.001
0.001
0.001
0.001
3.7203e-05
4.41339e-05
5.21348e-05
6.32068e-05
7.9887e-05
0.000107263
0.000156563
0.0002522
0.000438252
0.000742087
0.001
0.001
0.001
0.001
0.001
0.001
0.001
0.001
0.001
3.49034e-05
4.12974e-05
4.80479e-05
5.69438e-05
6.95504e-05
8.85803e-05
0.000119446
0.000173108
0.000270034
0.000438247
0.000679999
0.000918087
0.001
0.001
0.001
0.001
0.001
0.001
0.000917974
3.26102e-05
3.84867e-05
4.4126e-05
5.12286e-05
6.07575e-05
7.41047e-05
9.37323e-05
0.000124127
0.000173107
0.000252197
0.000371345
0.000523052
0.000669025
0.0007738
0.000827005
0.000826991
0.00077376
0.000668966
0.000523
3.03896e-05
3.5785e-05
4.04682e-05
4.61308e-05
5.33749e-05
6.28973e-05
7.5775e-05
9.37322e-05
0.000119445
0.000156561
0.000208471
0.00027465
0.000346291
0.000406928
0.000441315
0.000441308
0.00040691
0.000346269
0.000274635
2.82833e-05
3.32427e-05
3.71227e-05
4.16483e-05
4.72068e-05
5.41386e-05
6.28973e-05
7.41045e-05
8.858e-05
0.000107263
0.000130814
0.000158674
0.000187879
0.000212791
0.0002272
0.000227198
0.000212786
0.000187873
0.00015867
2.63122e-05
3.08835e-05
3.41013e-05
3.77392e-05
4.20545e-05
4.72068e-05
5.33749e-05
6.07574e-05
6.95502e-05
7.98866e-05
9.17004e-05
0.00010448
0.000116991
0.00012725
0.000133087
0.000133086
0.000127248
0.000116989
0.000104478
2.44804e-05
2.87091e-05
3.13922e-05
3.43437e-05
3.77392e-05
4.16483e-05
4.61308e-05
5.12285e-05
5.69437e-05
6.32066e-05
6.98303e-05
7.64547e-05
8.25024e-05
8.72118e-05
8.98132e-05
8.98131e-05
8.72113e-05
8.25018e-05
7.64542e-05
2.27707e-05
2.66989e-05
2.89667e-05
3.13922e-05
3.41013e-05
3.71227e-05
4.04682e-05
4.4126e-05
4.80478e-05
5.21347e-05
5.62243e-05
6.00839e-05
6.34178e-05
6.5898e-05
6.7228e-05
6.72279e-05
6.58978e-05
6.34175e-05
6.00837e-05
2.10561e-05
2.47348e-05
2.66989e-05
2.87091e-05
3.08835e-05
3.32427e-05
3.5785e-05
3.84867e-05
4.12974e-05
4.41338e-05
4.68779e-05
4.93801e-05
5.14712e-05
5.29835e-05
5.37791e-05
5.3779e-05
5.29834e-05
5.14711e-05
4.938e-05
1.84091e-05
2.10561e-05
2.27707e-05
2.44804e-05
2.63122e-05
2.82833e-05
3.03896e-05
3.26102e-05
3.49034e-05
3.7203e-05
3.9416e-05
4.14247e-05
4.30967e-05
4.43018e-05
4.49342e-05
4.49341e-05
4.43017e-05
4.30966e-05
4.14246e-05
)
;

boundaryField
{
    inlet
    {
        type            cyclic;
    }
    outlet
    {
        type            cyclic;
    }
    wall
    {
        type            calculated;
        value           nonuniform 0();
    }
    procBoundary6to4
    {
        type            processor;
        value           nonuniform List<scalar> 
43
(
1.07227e-05
1.06863e-05
1.06325e-05
1.05623e-05
1.02942e-05
1.03276e-05
1.03445e-05
1.07227e-05
1.03445e-05
9.46858e-06
9.57394e-06
9.66971e-06
9.75462e-06
9.82745e-06
1.02942e-05
9.88714e-06
9.46858e-06
9.16695e-06
7.94777e-06
8.10739e-06
8.21776e-06
8.32534e-06
8.42903e-06
8.88503e-06
8.52781e-06
7.94777e-06
8.10739e-06
8.21776e-06
8.21776e-06
8.09382e-06
8.09382e-06
7.87461e-06
7.75396e-06
7.837e-06
7.9148e-06
7.98652e-06
8.05134e-06
8.10851e-06
8.15732e-06
8.19716e-06
8.22751e-06
8.24798e-06
8.25828e-06
)
;
    }
    procBoundary6to5
    {
        type            processor;
        value           nonuniform List<scalar> 
31
(
1.15829e-05
1.16267e-05
1.16488e-05
1.16488e-05
1.16267e-05
1.15829e-05
1.15182e-05
9.47232e-06
9.73869e-06
9.9042e-06
1.00669e-05
1.02249e-05
1.03767e-05
1.05204e-05
1.06542e-05
1.07763e-05
1.08849e-05
1.09783e-05
1.15829e-05
1.10551e-05
1.05204e-05
1.03767e-05
1.02249e-05
1.00669e-05
9.90419e-06
9.73869e-06
9.47232e-06
1.04766e-05
1.0377e-05
1.05204e-05
1.02649e-05
)
;
    }
    procBoundary6to7
    {
        type            processor;
        value           nonuniform List<scalar> 
72
(
3.48649e-05
2.96994e-05
2.60444e-05
2.3259e-05
2.10586e-05
1.92761e-05
1.78032e-05
1.65661e-05
1.55122e-05
1.46031e-05
1.38103e-05
1.31119e-05
1.24913e-05
1.19354e-05
9.97913e-06
9.64106e-06
9.32687e-06
9.03373e-06
8.75923e-06
8.50133e-06
1.59081e-05
1.49463e-05
1.4111e-05
1.33779e-05
1.27286e-05
1.21486e-05
1.16267e-05
1.11538e-05
1.07227e-05
9.97913e-06
1.03276e-05
2.40649e-05
2.16915e-05
1.97873e-05
1.8226e-05
1.59081e-05
1.69225e-05
2.40649e-05
3.48647e-05
2.96992e-05
2.37093e-05
2.60443e-05
3.94158e-05
4.68777e-05
5.62239e-05
6.98296e-05
9.16989e-05
0.00013081
0.00020846
0.000371312
0.000679922
0.001
0.001
0.001
0.001
0.001
0.001
0.001
0.001
0.001
0.001
0.001
0.001
0.000679939
0.000371322
0.000208464
0.000130812
9.16997e-05
6.983e-05
5.62241e-05
4.68779e-05
3.9416e-05
)
;
    }
}


// ************************************************************************* //
