/*--------------------------------*- C++ -*----------------------------------*\
  =========                 |
  \\      /  F ield         | OpenFOAM: The Open Source CFD Toolbox
   \\    /   O peration     | Website:  https://openfoam.org
    \\  /    A nd           | Version:  7
     \\/     M anipulation  |
\*---------------------------------------------------------------------------*/
FoamFile
{
    version     2.0;
    format      ascii;
    class       volVectorField;
    location    "200000";
    object      U;
}
// * * * * * * * * * * * * * * * * * * * * * * * * * * * * * * * * * * * * * //

dimensions      [0 1 -1 0 0 0 0];

internalField   nonuniform List<vector> 
4844
(
(-4.19106e-19 2.91507e-18 -0.0151465)
(1.84895e-17 -2.02677e-18 -0.0151378)
(3.99925e-18 -7.25608e-21 -0.0151283)
(5.66726e-18 2.8043e-17 -0.0151109)
(1.41001e-17 2.12764e-18 -0.0151021)
(3.4556e-18 1.91558e-18 -0.0150924)
(3.94233e-18 6.73495e-19 -0.015082)
(2.83267e-18 7.81152e-19 -0.0150708)
(2.74628e-18 5.30895e-19 -0.0150587)
(2.56018e-18 5.15992e-19 -0.0150459)
(1.39255e-18 5.88418e-19 -0.0150324)
(4.48834e-18 2.27245e-17 -0.0150748)
(9.46718e-18 2.30397e-18 -0.015066)
(3.04353e-18 2.84117e-18 -0.0150563)
(3.80564e-18 1.26516e-18 -0.0150458)
(2.77839e-18 1.03944e-18 -0.0150344)
(2.75453e-18 6.02709e-19 -0.0150223)
(2.56807e-18 6.49923e-19 -0.0150094)
(1.43176e-18 6.61563e-19 -0.0149958)
(1.37722e-18 1.19265e-18 -0.0149814)
(1.60366e-18 1.42925e-18 -0.0149663)
(9.80574e-19 2.09908e-19 -0.0149506)
(2.70018e-18 1.59726e-17 -0.0150384)
(6.67128e-18 2.34816e-18 -0.0150295)
(2.7948e-18 3.03455e-18 -0.0150197)
(3.56423e-18 1.50397e-18 -0.0150091)
(2.60991e-18 1.01538e-18 -0.0149977)
(2.71736e-18 6.15224e-19 -0.0149855)
(2.50341e-18 6.31887e-19 -0.0149726)
(1.43484e-18 5.61987e-19 -0.0149588)
(1.55512e-18 1.12229e-18 -0.0149444)
(1.38645e-18 1.36367e-18 -0.0149292)
(8.45195e-19 4.71409e-19 -0.0149133)
(8.99578e-19 5.15474e-19 -0.0148968)
(7.86732e-19 -4.26952e-20 -0.0148796)
(9.84556e-19 -1.00856e-19 -0.0148619)
(6.22201e-19 6.34941e-21 -0.0148435)
(1.74396e-19 4.06839e-19 -0.0148246)
(1.59693e-18 1.22115e-17 -0.0150017)
(5.05304e-18 3.12829e-18 -0.0149927)
(2.6066e-18 3.30158e-18 -0.0149829)
(3.2856e-18 1.81604e-18 -0.0149722)
(2.37971e-18 8.92936e-19 -0.0149607)
(2.72466e-18 6.34785e-19 -0.0149484)
(2.34754e-18 4.26364e-19 -0.0149354)
(1.40012e-18 3.8254e-19 -0.0149215)
(1.58053e-18 8.57456e-19 -0.014907)
(1.00153e-18 8.19921e-19 -0.0148917)
(8.61787e-19 6.44459e-19 -0.0148757)
(9.57671e-19 7.26622e-19 -0.0148591)
(8.68577e-19 1.26724e-19 -0.0148419)
(1.24636e-18 3.47794e-19 -0.014824)
(3.99589e-19 -2.20891e-19 -0.0148055)
(6.56607e-20 2.02252e-19 -0.0147865)
(1.10528e-18 1.01265e-17 -0.0149646)
(4.09578e-18 4.00855e-18 -0.0149556)
(2.43159e-18 3.78797e-18 -0.0149457)
(2.92661e-18 2.11512e-18 -0.0149349)
(2.25631e-18 1.18439e-18 -0.0149234)
(2.76406e-18 9.08414e-19 -0.014911)
(2.17747e-18 3.35527e-19 -0.0148978)
(1.34841e-18 1.27083e-19 -0.0148839)
(1.53545e-18 7.39429e-19 -0.0148693)
(7.36106e-19 3.37564e-19 -0.0148539)
(9.76499e-19 6.94902e-19 -0.0148378)
(8.74579e-19 6.58927e-19 -0.0148211)
(1.02648e-18 3.27588e-19 -0.0148038)
(1.1368e-18 3.91549e-19 -0.0147858)
(8.98252e-20 -3.64511e-19 -0.0147673)
(1.7688e-19 7.37821e-20 -0.0147481)
(3.33486e-18 4.26216e-18 -0.0149181)
(2.08837e-18 3.99186e-18 -0.0149081)
(2.53215e-18 2.21035e-18 -0.0148973)
(2.31921e-18 1.781e-18 -0.0148857)
(2.74921e-18 1.25373e-18 -0.0148732)
(2.02811e-18 6.37091e-19 -0.01486)
(1.51218e-18 3.91526e-19 -0.014846)
(1.5395e-18 7.06288e-19 -0.0148313)
(7.04456e-19 3.46695e-19 -0.0148158)
(1.10467e-18 7.39977e-19 -0.0147996)
(7.64799e-19 4.53504e-19 -0.0147828)
(1.1561e-18 5.32353e-19 -0.0147654)
(7.02779e-19 7.33191e-20 -0.0147473)
(-1.12351e-19 -5.72286e-19 -0.0147287)
(4.34391e-19 1.12431e-19 -0.0147094)
(2.59076e-18 4.15679e-18 -0.0148803)
(1.7042e-18 3.79805e-18 -0.0148702)
(2.31497e-18 2.31178e-18 -0.0148594)
(2.35879e-18 2.12109e-18 -0.0148477)
(2.61782e-18 1.41881e-18 -0.0148351)
(1.98424e-18 8.50317e-19 -0.0148218)
(1.73713e-18 9.90787e-19 -0.0148077)
(1.37705e-18 6.00675e-19 -0.0147929)
(7.91793e-19 4.93604e-19 -0.0147774)
(1.13421e-18 7.94612e-19 -0.0147611)
(6.97731e-19 3.25638e-19 -0.0147442)
(9.99212e-19 3.94272e-19 -0.0147267)
(1.68791e-19 -2.35263e-19 -0.0147085)
(-6.11974e-20 -6.19462e-19 -0.0146898)
(6.22171e-19 5.53321e-21 -0.0146705)
(1.90267e-18 4.0562e-18 -0.0148421)
(1.38021e-18 3.60353e-18 -0.014832)
(2.20242e-18 2.51325e-18 -0.0148211)
(2.30887e-18 2.26492e-18 -0.0148093)
(2.45746e-18 1.4945e-18 -0.0147967)
(1.91436e-18 8.27825e-19 -0.0147833)
(1.77588e-18 1.25514e-18 -0.0147692)
(1.11589e-18 3.65351e-19 -0.0147543)
(8.78906e-19 5.62901e-19 -0.0147386)
(1.05553e-18 6.78849e-19 -0.0147223)
(6.31599e-19 3.90516e-19 -0.0147053)
(5.94328e-19 -2.69412e-20 -0.0146877)
(-5.47235e-20 -3.42036e-19 -0.0146694)
(2.78506e-19 -3.84449e-19 -0.0146506)
(6.72586e-19 -1.87565e-19 -0.0146312)
(2.1768e-19 6.33303e-18 -0.014813)
(1.38986e-18 3.87144e-18 -0.0148037)
(1.2111e-18 3.58517e-18 -0.0147935)
(2.1593e-18 2.67805e-18 -0.0147825)
(2.22606e-18 2.3742e-18 -0.0147707)
(2.27373e-18 1.64016e-18 -0.014758)
(1.98064e-18 1.07175e-18 -0.0147446)
(1.63518e-18 1.23378e-18 -0.0147303)
(8.95385e-19 2.38266e-19 -0.0147153)
(9.74985e-19 5.80588e-19 -0.0146996)
(9.46091e-19 5.33684e-19 -0.0146832)
(5.07629e-19 4.64425e-19 -0.0146661)
(4.43837e-19 -4.49196e-21 -0.0146484)
(6.72789e-20 -2.08775e-19 -0.01463)
(5.19167e-19 -2.16878e-19 -0.0146111)
(6.62513e-19 -4.42308e-19 -0.0145916)
(9.14704e-20 5.42375e-18 -0.0147742)
(1.02032e-18 3.65534e-18 -0.0147649)
(1.13398e-18 3.66487e-18 -0.0147547)
(2.1165e-18 2.91026e-18 -0.0147436)
(2.08095e-18 2.31178e-18 -0.0147317)
(2.18506e-18 1.71494e-18 -0.014719)
(2.01179e-18 1.40302e-18 -0.0147055)
(1.29813e-18 1.00798e-18 -0.0146911)
(8.52588e-19 3.50197e-19 -0.0146761)
(1.0088e-18 5.12031e-19 -0.0146603)
(8.90422e-19 5.15526e-19 -0.0146438)
(5.13957e-19 5.88443e-19 -0.0146266)
(6.49237e-19 4.8114e-19 -0.0146088)
(1.6342e-19 -2.66631e-20 -0.0145904)
(6.26757e-19 -1.14843e-19 -0.0145714)
(8.56441e-19 -4.23845e-19 -0.0145518)
(2.29166e-20 4.7006e-18 -0.0147352)
(7.92399e-19 3.33144e-18 -0.0147258)
(1.05832e-18 3.36786e-18 -0.0147156)
(2.03189e-18 3.09913e-18 -0.0147044)
(1.87824e-18 2.22554e-18 -0.0146925)
(2.09733e-18 1.70592e-18 -0.0146797)
(1.82617e-18 1.34338e-18 -0.0146661)
(1.05793e-18 9.34719e-19 -0.0146517)
(1.01123e-18 7.86489e-19 -0.0146365)
(1.09279e-18 5.90779e-19 -0.0146207)
(9.75321e-19 6.41188e-19 -0.0146041)
(6.30407e-19 7.30166e-19 -0.0145868)
(6.69066e-19 7.25291e-19 -0.0145689)
(2.42387e-19 2.5183e-19 -0.0145504)
(8.32696e-19 3.90935e-20 -0.0145313)
(1.00708e-18 -3.51985e-19 -0.0145117)
(-2.23249e-20 4.25585e-18 -0.0146959)
(5.46097e-19 3.06527e-18 -0.0146864)
(1.09337e-18 3.24328e-18 -0.0146761)
(1.94704e-18 3.04084e-18 -0.0146649)
(1.68222e-18 2.18889e-18 -0.0146529)
(1.95685e-18 1.60787e-18 -0.01464)
(1.57303e-18 1.07571e-18 -0.0146264)
(1.04892e-18 9.85355e-19 -0.0146119)
(1.14287e-18 1.05248e-18 -0.0145967)
(1.08672e-18 6.53669e-19 -0.0145807)
(1.06351e-18 8.41437e-19 -0.0145641)
(6.38767e-19 8.2174e-19 -0.0145468)
(6.47956e-19 7.81674e-19 -0.0145288)
(4.37015e-19 5.6591e-19 -0.0145102)
(1.0895e-18 4.25925e-19 -0.014491)
(9.00355e-19 -4.87799e-19 -0.0144713)
(-1.31499e-18 2.952e-18 -0.0146648)
(-8.47433e-20 3.83541e-18 -0.0146562)
(4.76875e-19 2.93799e-18 -0.0146467)
(1.28128e-18 3.57653e-18 -0.0146364)
(1.74227e-18 2.84705e-18 -0.0146251)
(1.49901e-18 2.20586e-18 -0.014613)
(1.8518e-18 1.74211e-18 -0.0146001)
(1.36315e-18 7.92472e-19 -0.0145864)
(1.12828e-18 1.137e-18 -0.0145718)
(1.08475e-18 1.01361e-18 -0.0145566)
(1.04835e-18 5.47636e-19 -0.0145405)
(1.15728e-18 9.70381e-19 -0.0145238)
(5.29945e-19 6.84303e-19 -0.0145064)
(7.35364e-19 9.62105e-19 -0.0144883)
(6.02984e-19 7.38292e-19 -0.0144697)
(1.22042e-18 7.60265e-19 -0.0144504)
(7.42091e-19 -5.39568e-19 -0.0144306)
(-1.23258e-18 2.68498e-18 -0.0146249)
(-8.29157e-20 3.53594e-18 -0.0146162)
(5.46825e-19 2.90678e-18 -0.0146067)
(1.34599e-18 3.67829e-18 -0.0145963)
(1.44551e-18 2.55589e-18 -0.014585)
(1.36977e-18 2.05693e-18 -0.0145729)
(1.66211e-18 1.74823e-18 -0.0145599)
(1.25042e-18 7.75245e-19 -0.0145461)
(1.25168e-18 1.28022e-18 -0.0145315)
(1.01415e-18 1.04318e-18 -0.0145161)
(9.6055e-19 3.00355e-19 -0.0145)
(1.10978e-18 9.60234e-19 -0.0144832)
(3.98553e-19 5.05841e-19 -0.0144658)
(9.06591e-19 1.10099e-18 -0.0144476)
(6.47464e-19 7.4302e-19 -0.0144289)
(1.05867e-18 7.31364e-19 -0.0144096)
(6.24392e-19 -5.38252e-19 -0.0143897)
(-1.56518e-18 2.24243e-18 -0.0145924)
(-1.01992e-18 2.76123e-18 -0.0145846)
(-2.00597e-20 3.35539e-18 -0.014576)
(6.25204e-19 2.86153e-18 -0.0145664)
(1.2372e-18 3.41301e-18 -0.014556)
(1.16607e-18 2.41201e-18 -0.0145446)
(1.19798e-18 1.82939e-18 -0.0145324)
(1.45233e-18 1.51102e-18 -0.0145194)
(1.27689e-18 8.53991e-19 -0.0145055)
(1.2523e-18 1.21913e-18 -0.0144909)
(8.98813e-19 1.1833e-18 -0.0144754)
(8.78363e-19 1.19699e-19 -0.0144593)
(9.38053e-19 5.86947e-19 -0.0144424)
(4.36008e-19 4.76322e-19 -0.0144248)
(9.41995e-19 1.05746e-18 -0.0144066)
(5.46128e-19 6.84334e-19 -0.0143878)
(7.44047e-19 4.70759e-19 -0.0143684)
(5.39691e-19 -4.97367e-19 -0.0143485)
(-1.40525e-18 2.21877e-18 -0.0145519)
(-8.2015e-19 2.88207e-18 -0.0145441)
(-1.41525e-20 3.25915e-18 -0.0145354)
(6.54573e-19 2.83165e-18 -0.0145258)
(9.8018e-19 2.6787e-18 -0.0145153)
(9.68984e-19 2.39587e-18 -0.0145039)
(1.12372e-18 1.87768e-18 -0.0144917)
(1.38495e-18 1.54465e-18 -0.0144786)
(1.3852e-18 1.16949e-18 -0.0144647)
(1.2479e-18 1.09323e-18 -0.0144499)
(7.99233e-19 1.25428e-18 -0.0144344)
(8.98593e-19 3.66175e-19 -0.0144182)
(8.48093e-19 3.79793e-19 -0.0144013)
(5.02016e-19 4.14667e-19 -0.0143836)
(9.15134e-19 9.33993e-19 -0.0143654)
(3.89362e-19 5.83419e-19 -0.0143465)
(5.4271e-19 3.40872e-19 -0.014327)
(6.20279e-19 -3.20152e-19 -0.014307)
(-1.23338e-18 2.17389e-18 -0.0145111)
(-7.01457e-19 2.69726e-18 -0.0145033)
(3.95168e-20 3.27382e-18 -0.0144946)
(5.81411e-19 2.97551e-18 -0.0144849)
(7.5955e-19 2.11157e-18 -0.0144744)
(9.8405e-19 2.41667e-18 -0.0144629)
(1.10768e-18 1.99537e-18 -0.0144506)
(1.4162e-18 1.68275e-18 -0.0144375)
(1.52899e-18 1.61087e-18 -0.0144235)
(1.16114e-18 1.04806e-18 -0.0144087)
(6.60475e-19 1.13699e-18 -0.0143932)
(8.50801e-19 3.9571e-19 -0.0143769)
(9.65148e-19 6.5638e-19 -0.0143599)
(6.42548e-19 5.03645e-19 -0.0143422)
(8.21136e-19 7.64944e-19 -0.0143238)
(1.95432e-19 4.42983e-19 -0.0143049)
(7.61817e-19 6.68638e-19 -0.0142853)
(6.69271e-19 -8.25838e-20 -0.0142653)
(-1.04954e-18 2.03877e-18 -0.0144701)
(-5.23671e-19 2.70118e-18 -0.0144622)
(1.25244e-19 3.19955e-18 -0.0144535)
(4.372e-19 2.98733e-18 -0.0144438)
(7.2761e-19 2.19621e-18 -0.0144332)
(1.02367e-18 2.47774e-18 -0.0144217)
(9.84217e-19 1.80948e-18 -0.0144093)
(1.42609e-18 1.64468e-18 -0.0143961)
(1.34098e-18 1.38994e-18 -0.0143821)
(1.00426e-18 1.00182e-18 -0.0143672)
(4.57869e-19 9.44683e-19 -0.0143516)
(9.06207e-19 4.33287e-19 -0.0143353)
(1.10863e-18 7.84131e-19 -0.0143182)
(7.63966e-19 7.99536e-19 -0.0143004)
(6.85318e-19 6.62282e-19 -0.014282)
(2.95876e-19 4.48048e-19 -0.014263)
(9.54305e-19 8.93645e-19 -0.0142434)
(6.62301e-19 2.1479e-19 -0.0142232)
(-8.20508e-19 1.93039e-18 -0.0144287)
(-3.23798e-19 2.84238e-18 -0.0144208)
(1.28514e-19 3.1036e-18 -0.014412)
(3.21105e-19 2.85726e-18 -0.0144023)
(7.17518e-19 2.2238e-18 -0.0143917)
(8.90959e-19 2.30703e-18 -0.0143801)
(8.40541e-19 1.65206e-18 -0.0143677)
(1.34637e-18 1.54458e-18 -0.0143544)
(1.04422e-18 8.6789e-19 -0.0143404)
(8.88863e-19 8.86552e-19 -0.0143255)
(4.40759e-19 9.63344e-19 -0.0143098)
(1.10869e-18 6.76891e-19 -0.0142934)
(1.04921e-18 6.0499e-19 -0.0142762)
(7.9365e-19 8.9139e-19 -0.0142584)
(6.52874e-19 7.14726e-19 -0.0142399)
(4.29365e-19 5.75104e-19 -0.0142208)
(8.53351e-19 7.05884e-19 -0.0142012)
(5.64639e-19 3.10834e-19 -0.014181)
(-5.30863e-19 1.9273e-18 -0.014387)
(-1.61816e-19 2.84423e-18 -0.0143791)
(1.1376e-19 3.02191e-18 -0.0143703)
(2.05011e-19 2.84249e-18 -0.0143605)
(6.11396e-19 2.10673e-18 -0.0143499)
(7.57795e-19 2.05006e-18 -0.0143383)
(8.3532e-19 1.72385e-18 -0.0143258)
(1.24922e-18 1.5174e-18 -0.0143125)
(9.27774e-19 8.36389e-19 -0.0142984)
(9.26244e-19 8.83814e-19 -0.0142834)
(6.03367e-19 1.22456e-18 -0.0142677)
(1.1361e-18 7.6428e-19 -0.0142512)
(9.29748e-19 3.83869e-19 -0.014234)
(7.09513e-19 7.39075e-19 -0.0142161)
(5.81665e-19 6.72615e-19 -0.0141976)
(6.45651e-19 8.58599e-19 -0.0141784)
(7.01921e-19 5.28837e-19 -0.0141587)
(4.07286e-19 2.2779e-19 -0.0141384)
(-2.45081e-19 1.80249e-18 -0.0143451)
(-8.48094e-20 2.63077e-18 -0.0143372)
(6.86492e-20 2.84888e-18 -0.0143283)
(1.33207e-19 2.92879e-18 -0.0143185)
(5.86297e-19 2.28422e-18 -0.0143078)
(7.78205e-19 2.15278e-18 -0.0142961)
(9.14922e-19 1.99849e-18 -0.0142836)
(1.17039e-18 1.51758e-18 -0.0142703)
(9.73173e-19 1.05916e-18 -0.0142561)
(9.96045e-19 9.38981e-19 -0.0142411)
(7.62815e-19 1.54959e-18 -0.0142253)
(1.05795e-18 7.77924e-19 -0.0142087)
(7.52437e-19 1.32297e-19 -0.0141915)
(6.62535e-19 6.15998e-19 -0.0141735)
(7.5553e-19 8.06503e-19 -0.0141549)
(8.13842e-19 1.10778e-18 -0.0141357)
(6.63672e-19 6.54577e-19 -0.0141159)
(4.41616e-19 3.40051e-19 -0.0140956)
(-7.00282e-20 1.40942e-18 -0.0143029)
(-1.66936e-20 2.37744e-18 -0.0142949)
(6.74719e-20 2.5822e-18 -0.014286)
(1.2641e-19 2.98298e-18 -0.0142762)
(6.16194e-19 2.55363e-18 -0.0142654)
(8.252e-19 2.31814e-18 -0.0142537)
(9.17344e-19 2.19119e-18 -0.0142412)
(1.10024e-18 1.59678e-18 -0.0142278)
(9.82409e-19 1.24302e-18 -0.0142135)
(1.13108e-18 1.07525e-18 -0.0141985)
(7.7333e-19 1.56964e-18 -0.0141826)
(7.76752e-19 6.33742e-19 -0.014166)
(5.69822e-19 -1.4965e-19 -0.0141487)
(7.61207e-19 5.21395e-19 -0.0141307)
(8.4467e-19 8.23429e-19 -0.014112)
(7.46152e-19 1.04247e-18 -0.0140928)
(8.72536e-19 1.06379e-18 -0.0140729)
(2.64694e-19 2.90232e-19 -0.0140525)
(3.24421e-20 1.03169e-18 -0.0142603)
(8.95848e-20 2.20536e-18 -0.0142524)
(4.53351e-20 2.22827e-18 -0.0142434)
(3.36306e-20 2.52232e-18 -0.0142335)
(6.34596e-19 2.76031e-18 -0.0142227)
(7.57411e-19 2.22491e-18 -0.014211)
(7.50555e-19 1.90348e-18 -0.0141984)
(1.01586e-18 1.59197e-18 -0.014185)
(1.05786e-18 1.44728e-18 -0.0141707)
(1.1948e-18 1.20867e-18 -0.0141556)
(5.21035e-19 1.32529e-18 -0.0141397)
(4.30431e-19 3.31322e-19 -0.014123)
(5.06552e-19 -3.27255e-19 -0.0141056)
(8.09036e-19 3.66076e-19 -0.0140876)
(7.58886e-19 5.96269e-19 -0.0140689)
(6.87064e-19 8.07132e-19 -0.0140495)
(9.99499e-19 1.44512e-18 -0.0140296)
(-1.44298e-20 1.85486e-19 -0.0140091)
(1.7019e-19 9.74453e-19 -0.0142175)
(1.77749e-19 2.04609e-18 -0.0142095)
(-5.76918e-20 1.89839e-18 -0.0142005)
(-6.29899e-21 1.98188e-18 -0.0141906)
(6.582e-19 2.71933e-18 -0.0141798)
(5.66076e-19 2.0898e-18 -0.014168)
(6.05152e-19 1.64723e-18 -0.0141554)
(1.06173e-18 1.61123e-18 -0.0141419)
(1.12418e-18 1.64154e-18 -0.0141275)
(1.11051e-18 1.19567e-18 -0.0141124)
(3.62235e-19 1.33093e-18 -0.0140964)
(2.06085e-19 2.10945e-19 -0.0140797)
(6.71256e-19 -1.73844e-19 -0.0140623)
(1.1194e-18 6.40659e-19 -0.0140442)
(8.9043e-19 7.34846e-19 -0.0140254)
(6.78996e-19 5.83686e-19 -0.014006)
(6.48113e-19 1.11323e-18 -0.013986)
(-9.84204e-20 3.49824e-19 -0.0139655)
(2.87587e-19 1.20908e-18 -0.0141744)
(2.03304e-19 1.87484e-18 -0.0141664)
(-1.47898e-19 1.66952e-18 -0.0141574)
(8.32265e-20 1.88165e-18 -0.0141474)
(5.73448e-19 2.33683e-18 -0.0141366)
(3.88048e-19 1.87168e-18 -0.0141248)
(6.4195e-19 1.73233e-18 -0.0141121)
(1.12098e-18 1.64915e-18 -0.0140985)
(1.10221e-18 1.67745e-18 -0.0140841)
(1.06246e-18 1.24353e-18 -0.0140689)
(1.97558e-19 1.34927e-18 -0.0140529)
(3.01341e-19 5.8124e-19 -0.0140362)
(1.11299e-18 2.32108e-19 -0.0140187)
(1.45947e-18 9.7537e-19 -0.0140005)
(9.09143e-19 9.15416e-19 -0.0139817)
(5.60866e-19 5.36289e-19 -0.0139622)
(-9.3813e-22 3.44772e-19 -0.0139422)
(-1.45415e-19 3.65463e-19 -0.0139216)
(3.49422e-19 1.48892e-18 -0.014131)
(1.69562e-19 1.71826e-18 -0.014123)
(-1.70321e-19 1.5619e-18 -0.0141139)
(1.75425e-19 1.92591e-18 -0.014104)
(4.2624e-19 1.91649e-18 -0.014093)
(2.84744e-19 1.63593e-18 -0.0140812)
(8.03865e-19 2.06179e-18 -0.0140685)
(1.06761e-18 1.48092e-18 -0.0140549)
(9.11882e-19 1.31923e-18 -0.0140404)
(9.19776e-19 1.14931e-18 -0.0140252)
(3.05334e-20 1.16536e-18 -0.0140091)
(4.73218e-19 8.83369e-19 -0.0139923)
(1.34739e-18 4.55622e-19 -0.0139748)
(1.28564e-18 6.55371e-19 -0.0139566)
(6.32457e-19 6.7497e-19 -0.0139377)
(3.0283e-19 4.15472e-19 -0.0139182)
(-3.43292e-19 -1.00582e-20 -0.0138981)
(-1.30672e-19 3.09437e-19 -0.0138774)
(2.91436e-19 1.63762e-18 -0.0140874)
(1.31755e-19 1.68167e-18 -0.0140793)
(-1.63769e-19 1.48708e-18 -0.0140702)
(2.17854e-19 1.94776e-18 -0.0140602)
(3.22307e-19 1.72142e-18 -0.0140492)
(3.16904e-19 1.44468e-18 -0.0140374)
(9.05211e-19 2.25682e-18 -0.0140246)
(8.32307e-19 1.27022e-18 -0.014011)
(6.83748e-19 8.80421e-19 -0.0139965)
(7.60544e-19 8.75093e-19 -0.0139812)
(-4.76728e-20 1.10313e-18 -0.0139651)
(4.05897e-19 6.97498e-19 -0.0139482)
(1.36917e-18 4.59235e-19 -0.0139306)
(8.70815e-19 6.2499e-20 -0.0139123)
(4.21432e-19 4.61851e-19 -0.0138934)
(-1.73447e-20 1.26783e-19 -0.0138738)
(-2.56091e-19 1.33228e-19 -0.0138537)
(-5.76373e-20 3.40699e-19 -0.013833)
(1.88639e-19 1.58951e-18 -0.0140434)
(9.36866e-20 1.70656e-18 -0.0140353)
(-1.26819e-19 1.52937e-18 -0.0140262)
(2.63794e-19 1.96329e-18 -0.0140161)
(2.39032e-19 1.64992e-18 -0.0140051)
(3.03075e-19 1.15422e-18 -0.0139932)
(9.6035e-19 2.37788e-18 -0.0139804)
(6.36719e-19 1.17816e-18 -0.0139668)
(6.37044e-19 8.61118e-19 -0.0139522)
(4.63563e-19 2.51145e-19 -0.0139369)
(-1.06498e-20 1.25679e-18 -0.0139207)
(3.85026e-19 6.01049e-19 -0.0139038)
(1.40579e-18 5.77533e-19 -0.0138862)
(5.48852e-19 -3.65092e-19 -0.0138678)
(3.61056e-19 4.3126e-19 -0.0138488)
(-2.06753e-19 -7.54349e-20 -0.0138292)
(-1.19997e-19 2.39548e-19 -0.013809)
(-4.10185e-20 4.17471e-19 -0.0137883)
(1.0341e-19 1.39315e-18 -0.0139991)
(5.33223e-20 1.5399e-18 -0.013991)
(-8.21172e-20 1.57957e-18 -0.0139819)
(2.39161e-19 1.87669e-18 -0.0139718)
(1.70964e-19 1.7873e-18 -0.0139608)
(3.48767e-19 8.49244e-19 -0.0139488)
(9.89637e-19 2.31526e-18 -0.013936)
(3.83694e-19 1.01819e-18 -0.0139223)
(5.86922e-19 1.09637e-18 -0.0139077)
(3.17599e-19 -9.24411e-20 -0.0138923)
(1.6388e-19 1.40602e-18 -0.0138761)
(4.33947e-19 6.44088e-19 -0.0138591)
(1.40029e-18 7.25294e-19 -0.0138414)
(4.51572e-19 -3.77804e-19 -0.0138231)
(5.2941e-19 6.88073e-19 -0.013804)
(-2.91743e-19 -1.16311e-19 -0.0137843)
(-1.84326e-19 5.62517e-20 -0.0137641)
(-2.49303e-19 2.07206e-19 -0.0137433)
(-1.84169e-19 1.63374e-18 -0.0139617)
(1.03287e-20 1.20688e-18 -0.0139546)
(4.59745e-20 1.42846e-18 -0.0139464)
(-9.51696e-20 1.36079e-18 -0.0139373)
(2.1364e-19 1.61781e-18 -0.0139271)
(1.66437e-19 2.09039e-18 -0.0139161)
(4.00103e-19 8.40245e-19 -0.0139041)
(8.4231e-19 1.8945e-18 -0.0138912)
(1.44409e-19 6.88406e-19 -0.0138775)
(5.34953e-19 1.13142e-18 -0.0138629)
(4.5623e-19 1.67116e-19 -0.0138474)
(2.04325e-19 1.36464e-18 -0.0138312)
(4.58302e-19 6.76732e-19 -0.0138142)
(1.30742e-18 6.80902e-19 -0.0137964)
(5.84684e-19 -1.48085e-19 -0.013778)
(5.9996e-19 8.58936e-19 -0.0137589)
(-4.73548e-19 -1.32232e-19 -0.0137392)
(-2.72537e-19 -6.73843e-20 -0.0137189)
(-5.39871e-19 -1.75406e-19 -0.013698)
(-2.81851e-19 1.36026e-18 -0.0139169)
(1.59963e-20 1.14326e-18 -0.0139097)
(7.11323e-21 1.2722e-18 -0.0139015)
(-1.73652e-19 1.06758e-18 -0.0138924)
(2.09318e-19 1.22305e-18 -0.0138822)
(9.84117e-20 2.05018e-18 -0.0138711)
(4.20758e-19 9.37828e-19 -0.0138591)
(6.96585e-19 1.6176e-18 -0.0138462)
(6.16132e-20 6.75309e-19 -0.0138324)
(5.22006e-19 1.0861e-18 -0.0138177)
(5.4119e-19 3.11942e-19 -0.0138023)
(1.34596e-19 1.16364e-18 -0.013786)
(3.9375e-19 5.52889e-19 -0.0137689)
(1.23761e-18 6.27337e-19 -0.0137511)
(7.00545e-19 7.48973e-20 -0.0137326)
(4.49446e-19 7.87049e-19 -0.0137135)
(-6.62775e-19 -1.96806e-19 -0.0136937)
(-9.37391e-20 1.84855e-19 -0.0136734)
(-5.24345e-19 -2.70701e-19 -0.0136525)
(-5.52607e-19 1.79211e-18 -0.013878)
(-3.36609e-19 1.32067e-18 -0.0138718)
(2.52395e-20 1.29564e-18 -0.0138646)
(-1.20715e-19 8.70835e-19 -0.0138564)
(-2.22667e-19 8.90449e-19 -0.0138472)
(2.00649e-19 8.37028e-19 -0.013837)
(-1.30884e-20 1.70574e-18 -0.0138259)
(3.75805e-19 8.25012e-19 -0.0138138)
(6.29672e-19 1.48831e-18 -0.0138009)
(1.07486e-19 8.74312e-19 -0.013787)
(6.10527e-19 1.31325e-18 -0.0137723)
(5.70282e-19 4.21414e-19 -0.0137568)
(4.28162e-20 1.00511e-18 -0.0137405)
(3.36909e-19 3.89811e-19 -0.0137234)
(1.25353e-18 6.11827e-19 -0.0137055)
(7.70725e-19 2.30007e-19 -0.013687)
(3.53155e-19 8.59544e-19 -0.0136678)
(-6.84077e-19 -1.4375e-19 -0.013648)
(2.48993e-19 5.93337e-19 -0.0136276)
(-3.71059e-19 -9.58506e-20 -0.0136066)
(-5.65139e-19 1.77866e-18 -0.0138326)
(-3.51489e-19 1.41308e-18 -0.0138264)
(-2.90567e-20 1.31235e-18 -0.0138191)
(-1.88147e-19 8.88185e-19 -0.0138109)
(-2.12162e-19 8.84718e-19 -0.0138017)
(2.24481e-19 6.61503e-19 -0.0137915)
(-8.51516e-20 1.48543e-18 -0.0137803)
(3.17762e-19 5.75559e-19 -0.0137682)
(6.30893e-19 1.4101e-18 -0.0137553)
(1.28098e-19 8.98443e-19 -0.0137414)
(7.07275e-19 1.5481e-18 -0.0137266)
(6.20354e-19 6.87231e-19 -0.0137111)
(-3.49899e-20 9.10447e-19 -0.0136947)
(4.12302e-19 4.42452e-19 -0.0136775)
(1.27549e-18 5.82219e-19 -0.0136597)
(7.69743e-19 2.67538e-19 -0.0136411)
(1.94836e-19 8.27053e-19 -0.0136218)
(-4.07274e-19 2.59054e-19 -0.013602)
(1.59927e-19 4.3177e-19 -0.0135815)
(-2.33725e-19 1.72358e-19 -0.0135605)
(-5.73344e-19 1.52182e-18 -0.0137869)
(-3.45407e-19 1.69196e-18 -0.0137806)
(-1.06073e-19 1.13764e-18 -0.0137734)
(-1.92772e-19 1.00713e-18 -0.0137651)
(-2.49582e-19 8.70078e-19 -0.0137559)
(2.27128e-19 4.71789e-19 -0.0137456)
(-1.35793e-19 1.3853e-18 -0.0137345)
(2.96774e-19 4.33083e-19 -0.0137224)
(6.34811e-19 1.30753e-18 -0.0137093)
(1.13081e-19 7.85524e-19 -0.0136954)
(7.25552e-19 1.50952e-18 -0.0136806)
(5.07713e-19 6.72403e-19 -0.013665)
(5.63569e-20 1.17024e-18 -0.0136486)
(5.24414e-19 5.37344e-19 -0.0136314)
(1.27151e-18 5.57639e-19 -0.0136135)
(5.87928e-19 6.89588e-20 -0.0135949)
(3.5728e-20 6.50798e-19 -0.0135756)
(-2.22115e-19 6.18319e-19 -0.0135556)
(-1.76379e-19 1.54836e-20 -0.0135352)
(-1.46656e-19 2.96408e-19 -0.0135141)
(-5.3823e-19 1.4132e-18 -0.0137409)
(-3.15395e-19 1.96735e-18 -0.0137346)
(-1.96058e-19 1.13885e-18 -0.0137273)
(-2.44612e-19 9.41456e-19 -0.0137191)
(-2.92152e-19 8.87042e-19 -0.0137098)
(2.35675e-19 3.00326e-19 -0.0136995)
(-1.30321e-19 1.37513e-18 -0.0136883)
(3.98369e-19 6.14821e-19 -0.0136762)
(6.40939e-19 1.22756e-18 -0.0136631)
(1.61351e-19 8.38871e-19 -0.0136492)
(6.43674e-19 1.32922e-18 -0.0136343)
(4.37398e-19 5.61857e-19 -0.0136187)
(2.30283e-19 1.46542e-18 -0.0136022)
(5.01452e-19 5.27056e-19 -0.013585)
(1.1684e-18 4.74265e-19 -0.013567)
(4.67652e-19 -2.49507e-21 -0.0135483)
(-2.48402e-19 2.10482e-19 -0.013529)
(-4.90534e-19 3.68872e-19 -0.013509)
(-4.14456e-19 -2.63624e-19 -0.0134885)
(-1.0085e-19 3.14745e-19 -0.0134674)
(-4.88986e-19 1.50489e-18 -0.0136946)
(-3.24613e-19 2.0759e-18 -0.0136883)
(-2.73871e-19 1.30136e-18 -0.013681)
(-2.70987e-19 9.48016e-19 -0.0136727)
(-3.05723e-19 1.01682e-18 -0.0136634)
(3.57947e-19 5.09812e-19 -0.0136531)
(-6.15054e-20 1.40501e-18 -0.0136419)
(6.68553e-19 1.30979e-18 -0.0136297)
(5.85301e-19 1.04995e-18 -0.0136166)
(2.5593e-19 1.04224e-18 -0.0136026)
(5.97108e-19 1.23607e-18 -0.0135877)
(4.93324e-19 6.5088e-19 -0.013572)
(2.47092e-19 1.53686e-18 -0.0135555)
(4.46463e-19 5.04283e-19 -0.0135383)
(1.08107e-18 3.56839e-19 -0.0135202)
(4.14591e-19 1.34184e-19 -0.0135015)
(-5.4497e-19 -9.0811e-20 -0.0134821)
(-7.82251e-19 2.40395e-20 -0.0134621)
(-4.29722e-19 -3.86552e-19 -0.0134415)
(-1.27625e-19 2.06231e-19 -0.0134204)
(-4.99736e-19 1.4986e-18 -0.0136479)
(-3.76684e-19 1.86306e-18 -0.0136416)
(-3.44635e-19 1.49221e-18 -0.0136343)
(-3.18711e-19 9.17046e-19 -0.013626)
(-2.88442e-19 1.0803e-18 -0.0136167)
(5.07536e-19 8.43827e-19 -0.0136064)
(2.26449e-20 1.32032e-18 -0.0135951)
(7.90756e-19 1.6792e-18 -0.0135829)
(4.32521e-19 8.38611e-19 -0.0135698)
(3.47174e-19 1.15563e-18 -0.0135557)
(6.23145e-19 1.33599e-18 -0.0135408)
(5.23073e-19 6.67145e-19 -0.0135251)
(1.77978e-19 1.43783e-18 -0.0135086)
(4.36334e-19 5.95128e-19 -0.0134912)
(9.62562e-19 2.07763e-19 -0.0134732)
(2.17598e-19 3.71215e-20 -0.0134544)
(-3.94422e-19 2.73207e-19 -0.013435)
(-6.56125e-19 2.1393e-19 -0.0134149)
(-3.22231e-19 -3.26872e-19 -0.0133943)
(-1.79788e-19 6.91348e-20 -0.0133731)
(-5.52825e-19 1.42271e-18 -0.013601)
(-4.18407e-19 1.60597e-18 -0.0135947)
(-4.21279e-19 1.50227e-18 -0.0135873)
(-4.14858e-19 7.24048e-19 -0.013579)
(-2.34321e-19 1.16431e-18 -0.0135697)
(5.95152e-19 1.00621e-18 -0.0135593)
(1.27653e-20 1.09489e-18 -0.013548)
(6.42037e-19 1.33717e-18 -0.0135358)
(2.9695e-19 5.90092e-19 -0.0135226)
(4.45625e-19 1.19765e-18 -0.0135086)
(6.27863e-19 1.39851e-18 -0.0134936)
(5.48216e-19 7.78599e-19 -0.0134779)
(4.08498e-20 1.2017e-18 -0.0134613)
(5.44909e-19 8.85477e-19 -0.0134439)
(9.70386e-19 3.45917e-19 -0.0134258)
(1.27547e-19 -7.04566e-20 -0.013407)
(-9.12322e-20 7.05768e-19 -0.0133875)
(-3.75097e-19 7.29226e-19 -0.0133674)
(-9.35711e-20 -3.38842e-20 -0.0133467)
(-5.98021e-20 1.37242e-19 -0.0133255)
(-6.24033e-19 1.29828e-18 -0.0135537)
(-4.2901e-19 1.53277e-18 -0.0135474)
(-5.6536e-19 1.29967e-18 -0.0135401)
(-5.16332e-19 3.98829e-19 -0.0135317)
(-1.38821e-19 1.23763e-18 -0.0135223)
(6.31316e-19 1.15384e-18 -0.013512)
(-4.27576e-20 9.10711e-19 -0.0135006)
(5.36591e-19 1.11709e-18 -0.0134884)
(2.69349e-19 4.71241e-19 -0.0134752)
(6.03537e-19 1.30604e-18 -0.0134611)
(5.03313e-19 1.16079e-18 -0.0134461)
(5.23066e-19 8.13277e-19 -0.0134303)
(3.87816e-20 1.14957e-18 -0.0134137)
(7.03565e-19 1.13232e-18 -0.0133963)
(1.00476e-18 6.06979e-19 -0.0133781)
(1.3995e-20 -1.70227e-19 -0.0133592)
(-1.10065e-19 6.00217e-19 -0.0133397)
(-2.7611e-19 9.35618e-19 -0.0133196)
(2.30751e-19 4.27391e-19 -0.0132988)
(1.44586e-19 4.53071e-19 -0.0132776)
(-6.91544e-19 1.11682e-18 -0.0135062)
(-4.47004e-19 1.49168e-18 -0.0134998)
(-7.28478e-19 1.13728e-18 -0.0134924)
(-5.38611e-19 2.60956e-19 -0.0134841)
(2.04948e-20 1.36584e-18 -0.0134747)
(6.56985e-19 1.28676e-18 -0.0134643)
(-3.06477e-20 9.7202e-19 -0.0134529)
(5.98421e-19 1.30849e-18 -0.0134406)
(3.08834e-19 4.64089e-19 -0.0134274)
(7.3485e-19 1.48708e-18 -0.0134133)
(3.57698e-19 9.61212e-19 -0.0133983)
(5.61005e-19 8.57307e-19 -0.0133824)
(1.6473e-19 1.29569e-18 -0.0133657)
(7.25486e-19 1.17145e-18 -0.0133483)
(8.86872e-19 6.94388e-19 -0.0133301)
(-1.54666e-19 -2.88535e-19 -0.0133112)
(-1.8864e-19 3.71014e-19 -0.0132916)
(-3.57502e-19 7.74596e-19 -0.0132714)
(2.01732e-19 3.53411e-19 -0.0132507)
(1.24601e-19 6.05943e-19 -0.0132293)
(-7.29121e-19 9.72963e-19 -0.0134583)
(-4.53027e-19 1.44191e-18 -0.0134519)
(-8.31058e-19 1.21021e-18 -0.0134445)
(-5.15587e-19 1.67989e-19 -0.0134361)
(1.87169e-19 1.51059e-18 -0.0134267)
(6.48002e-19 1.34954e-18 -0.0134163)
(1.27753e-20 1.04211e-18 -0.0134049)
(6.67988e-19 1.5873e-18 -0.0133926)
(2.96269e-19 3.7416e-19 -0.0133793)
(7.81645e-19 1.45054e-18 -0.0133651)
(3.19695e-19 9.77443e-19 -0.0133501)
(6.31514e-19 9.10236e-19 -0.0133342)
(2.14845e-19 1.34195e-18 -0.0133175)
(7.54574e-19 1.25675e-18 -0.0133)
(7.77329e-19 8.02474e-19 -0.0132818)
(-1.23979e-19 -9.24827e-20 -0.0132628)
(-1.13234e-19 3.94763e-19 -0.0132432)
(-3.90216e-19 7.56891e-19 -0.013223)
(-4.29488e-20 1.75355e-20 -0.0132021)
(-2.68597e-19 1.62285e-19 -0.0131808)
(-7.44586e-19 8.02721e-19 -0.01341)
(-4.46398e-19 1.33341e-18 -0.0134037)
(-9.11066e-19 1.46013e-18 -0.0133962)
(-4.8403e-19 1.42489e-19 -0.0133878)
(3.5198e-19 1.56301e-18 -0.0133784)
(5.26081e-19 1.06408e-18 -0.0133679)
(-1.4424e-21 8.98791e-19 -0.0133565)
(6.35273e-19 1.60141e-18 -0.0133442)
(2.50157e-19 2.91429e-19 -0.0133309)
(7.28118e-19 1.17003e-18 -0.0133167)
(3.07538e-19 1.02504e-18 -0.0133016)
(6.32653e-19 8.52736e-19 -0.0132857)
(2.07312e-19 1.23667e-18 -0.0132689)
(8.3738e-19 1.4155e-18 -0.0132514)
(7.21972e-19 9.6476e-19 -0.0132331)
(-1.19746e-19 4.42856e-20 -0.0132141)
(-7.90779e-21 4.92691e-19 -0.0131944)
(-2.74178e-19 9.93478e-19 -0.0131742)
(-8.0314e-20 7.78616e-20 -0.0131533)
(-5.12399e-19 -1.46735e-19 -0.0131319)
(-7.32557e-19 7.03949e-19 -0.0133615)
(-4.00029e-19 1.18191e-18 -0.0133551)
(-9.67312e-19 1.67767e-18 -0.0133476)
(-3.54472e-19 5.71688e-19 -0.0133392)
(4.5133e-19 1.64269e-18 -0.0133297)
(3.58944e-19 7.49903e-19 -0.0133193)
(2.94015e-22 6.80105e-19 -0.0133078)
(5.46921e-19 1.42444e-18 -0.0132954)
(1.80606e-19 1.84099e-19 -0.0132821)
(7.16209e-19 9.43782e-19 -0.0132679)
(3.76496e-19 1.17904e-18 -0.0132528)
(5.77766e-19 7.04712e-19 -0.0132368)
(1.07696e-19 9.23898e-19 -0.01322)
(9.17897e-19 1.52431e-18 -0.0132024)
(6.50046e-19 1.1548e-18 -0.0131841)
(-1.98423e-19 6.7767e-20 -0.0131651)
(1.00342e-19 5.28342e-19 -0.0131454)
(-3.61086e-19 9.35888e-19 -0.013125)
(-8.49331e-21 3.10603e-19 -0.0131041)
(-3.92891e-19 -1.45016e-22 -0.0130827)
(-6.66436e-19 7.07783e-19 -0.0133126)
(-3.57835e-19 9.82505e-19 -0.0133061)
(-1.00109e-18 1.67255e-18 -0.0132987)
(-2.26348e-19 1.00347e-18 -0.0132902)
(4.68967e-19 1.66173e-18 -0.0132807)
(3.02784e-19 8.54969e-19 -0.0132703)
(-8.55046e-21 4.715e-19 -0.0132588)
(5.00094e-19 1.35639e-18 -0.0132464)
(1.5906e-19 1.65909e-19 -0.013233)
(7.98546e-19 8.51773e-19 -0.0132188)
(4.01816e-19 1.28195e-18 -0.0132036)
(4.49908e-19 5.64251e-19 -0.0131876)
(-1.12364e-20 5.16157e-19 -0.0131708)
(9.71122e-19 1.49062e-18 -0.0131532)
(3.85229e-19 1.03101e-18 -0.0131348)
(-3.01565e-19 5.37894e-20 -0.0131157)
(1.56091e-19 5.78527e-19 -0.013096)
(-5.8207e-19 6.86937e-19 -0.0130756)
(8.09137e-20 4.56838e-19 -0.0130546)
(-2.70074e-19 1.83797e-19 -0.0130332)
(-5.84923e-19 7.47112e-19 -0.0132633)
(-3.26193e-19 7.71481e-19 -0.0132569)
(-1.03363e-18 1.49852e-18 -0.0132494)
(-1.31369e-19 1.26377e-18 -0.0132409)
(4.39841e-19 1.49867e-18 -0.0132314)
(3.01029e-19 1.197e-18 -0.0132209)
(-2.28475e-20 2.92508e-19 -0.0132094)
(5.02815e-19 1.34282e-18 -0.013197)
(1.99634e-19 3.12325e-19 -0.0131836)
(9.15335e-19 8.61972e-19 -0.0131693)
(4.93529e-19 1.53562e-18 -0.0131541)