/*--------------------------------*- C++ -*----------------------------------*\
  =========                 |
  \\      /  F ield         | OpenFOAM: The Open Source CFD Toolbox
   \\    /   O peration     | Website:  https://openfoam.org
    \\  /    A nd           | Version:  7
     \\/     M anipulation  |
\*---------------------------------------------------------------------------*/
FoamFile
{
    version     2.0;
    format      ascii;
    class       volScalarField;
    location    "40000";
    object      omega;
}
// * * * * * * * * * * * * * * * * * * * * * * * * * * * * * * * * * * * * * //

dimensions      [0 0 -1 0 0 0 0];

internalField   nonuniform List<scalar> 
14100
(
0.0227707
0.0224815
0.0222211
0.0219876
0.0217803
0.021598
0.0214394
0.0213029
0.0211872
0.0210909
0.0210129
0.020952
0.0209071
0.0208777
0.0208631
0.0208631
0.0208777
0.0209071
0.0209519
0.0210129
0.0210909
0.0211872
0.0213029
0.0214394
0.021598
0.0217803
0.0219876
0.0222211
0.0224815
0.0227707
0.0232753
0.0229805
0.0227065
0.022455
0.022228
0.0220258
0.021848
0.0216936
0.0215616
0.0214509
0.0213605
0.0212894
0.0212369
0.0212023
0.0211851
0.0211851
0.0212023
0.0212369
0.0212894
0.0213605
0.0214509
0.0215616
0.0216936
0.021848
0.0220258
0.022228
0.022455
0.0227065
0.0229805
0.0232753
0.0238541
0.0235348
0.0232425
0.0229731
0.0227278
0.0225072
0.0223113
0.0221399
0.0219922
0.0218676
0.0217653
0.0216844
0.0216244
0.0215848
0.021565
0.021565
0.0215848
0.0216244
0.0216844
0.0217653
0.0218676
0.0219922
0.0221399
0.0223113
0.0225072
0.0227278
0.0229731
0.0232425
0.0235348
0.0238541
0.024486
0.0241417
0.0238277
0.023539
0.0232756
0.0230375
0.0228249
0.0226376
0.0224755
0.0223379
0.0222244
0.0221344
0.0220674
0.022023
0.0220009
0.0220009
0.022023
0.0220674
0.0221344
0.0222244
0.0223379
0.0224755
0.0226376
0.0228249
0.0230375
0.0232756
0.023539
0.0238277
0.0241417
0.024486
0.0251645
0.0247969
0.0244611
0.0241526
0.0238708
0.0236156
0.0233869
0.0231848
0.0230091
0.0228594
0.0227355
0.022637
0.0225634
0.0225146
0.0224902
0.0224902
0.0225146
0.0225634
0.022637
0.0227355
0.0228594
0.0230091
0.0231848
0.0233869
0.0236156
0.0238708
0.0241526
0.0244611
0.0247969
0.0251645
0.0258856
0.0254966
0.02514
0.0248119
0.024512
0.02424
0.0239959
0.0237795
0.0235909
0.0234298
0.0232962
0.0231896
0.02311
0.023057
0.0230306
0.0230306
0.023057
0.02311
0.0231896
0.0232962
0.0234298
0.0235909
0.0237795
0.0239959
0.02424
0.024512
0.0248119
0.02514
0.0254966
0.0258856
0.0266465
0.0262376
0.0258613
0.0255145
0.0251971
0.0249088
0.0246497
0.0244196
0.0242187
0.0240469
0.023904
0.0237899
0.0237045
0.0236477
0.0236193
0.0236193
0.0236477
0.0237045
0.0237899
0.023904
0.0240469
0.0242187
0.0244196
0.0246497
0.0249088
0.0251971
0.0255145
0.0258613
0.0262376
0.0266465
0.0274449
0.0270172
0.0266224
0.0262579
0.0259237
0.0256197
0.0253462
0.0251031
0.0248904
0.0247082
0.0245566
0.0244354
0.0243446
0.024284
0.0242538
0.0242538
0.024284
0.0243445
0.0244354
0.0245566
0.0247082
0.0248904
0.0251031
0.0253462
0.0256197
0.0259237
0.0262579
0.0266225
0.0270172
0.0274449
0.0282789
0.0278334
0.0274212
0.0270398
0.0266896
0.0263707
0.0260833
0.0258276
0.0256037
0.0254117
0.0252517
0.0251238
0.0250278
0.0249638
0.0249318
0.0249318
0.0249638
0.0250278
0.0251238
0.0252517
0.0254117
0.0256037
0.0258276
0.0260833
0.0263707
0.0266896
0.0270398
0.0274212
0.0278334
0.0282789
0.0291471
0.0286846
0.0282557
0.0278583
0.0274928
0.0271596
0.026859
0.0265913
0.0263567
0.0261553
0.0259874
0.0258529
0.025752
0.0256848
0.0256511
0.0256511
0.0256848
0.025752
0.0258529
0.0259873
0.0261553
0.0263567
0.0265913
0.026859
0.0271596
0.0274928
0.0278583
0.0282558
0.0286846
0.0291471
0.0300482
0.0295695
0.0291247
0.0287119
0.0283317
0.0279848
0.0276716
0.0273923
0.0271474
0.0269371
0.0267615
0.0266209
0.0265153
0.0264449
0.0264097
0.0264097
0.0264449
0.0265153
0.0266209
0.0267615
0.0269371
0.0271474
0.0273923
0.0276716
0.0279848
0.0283317
0.0287119
0.0291247
0.0295695
0.0300482
0.0309814
0.0304869
0.0300267
0.0295992
0.029205
0.0288449
0.0285195
0.0282292
0.0279744
0.0277554
0.0275725
0.027426
0.027316
0.0272426
0.0272058
0.0272058
0.0272426
0.027316
0.027426
0.0275725
0.0277554
0.0279744
0.0282292
0.0285195
0.0288449
0.029205
0.0295992
0.0300268
0.0304869
0.0309814
0.031946
0.0314362
0.0309611
0.0305192
0.0301115
0.0297387
0.0294015
0.0291005
0.0288362
0.0286089
0.028419
0.0282668
0.0281525
0.0280762
0.028038
0.028038
0.0280762
0.0281525
0.0282668
0.028419
0.0286089
0.0288362
0.0291005
0.0294016
0.0297387
0.0301115
0.0305192
0.0309611
0.0314362
0.0319461
0.0329416
0.0324168
0.0319271
0.0314713
0.0310504
0.0306653
0.0303167
0.0300054
0.0297318
0.0294965
0.0292998
0.0291421
0.0290236
0.0289445
0.0289049
0.0289049
0.0289445
0.0290236
0.0291421
0.0292998
0.0294965
0.0297318
0.0300054
0.0303167
0.0306653
0.0310504
0.0314713
0.0319271
0.0324168
0.0329416
0.0339679
0.0334283
0.0329243
0.0324548
0.032021
0.0316239
0.0312642
0.0309428
0.0306603
0.0304171
0.0302138
0.0300508
0.0299283
0.0298465
0.0298055
0.0298055
0.0298465
0.0299283
0.0300508
0.0302138
0.0304171
0.0306603
0.0309428
0.0312642
0.0316239
0.0320211
0.0324549
0.0329243
0.0334283
0.0339679
0.0350248
0.0344706
0.0339524
0.0334695
0.0330231
0.0326141
0.0322436
0.0319123
0.031621
0.0313702
0.0311605
0.0309922
0.0308658
0.0307813
0.0307391
0.0307391
0.0307813
0.0308658
0.0309922
0.0311605
0.0313702
0.031621
0.0319123
0.0322436
0.0326141
0.0330231
0.0334695
0.0339525
0.0344706
0.0350249
0.0361126
0.0355437
0.0350115
0.0345153
0.0340563
0.0336356
0.0332544
0.0329134
0.0326134
0.0323552
0.0321392
0.0319658
0.0318355
0.0317485
0.0317049
0.0317049
0.0317485
0.0318355
0.0319658
0.0321392
0.0323552
0.0326134
0.0329134
0.0332544
0.0336356
0.0340563
0.0345153
0.0350115
0.0355437
0.0361126
0.0372313
0.0366478
0.0361016
0.0355921
0.0351206
0.0346884
0.0342965
0.033946
0.0336375
0.0333718
0.0331496
0.0329712
0.0328371
0.0327476
0.0327027
0.0327027
0.0327475
0.0328371
0.0329712
0.0331496
0.0333718
0.0336375
0.0339459
0.0342965
0.0346884
0.0351206
0.0355921
0.0361016
0.0366478
0.0372313
0.0383816
0.0377833
0.037223
0.0367002
0.0362163
0.0357725
0.0353701
0.03501
0.034693
0.03442
0.0341916
0.0340083
0.0338704
0.0337783
0.0337323
0.0337323
0.0337783
0.0338704
0.0340083
0.0341916
0.03442
0.034693
0.0350099
0.0353701
0.0357725
0.0362162
0.0367002
0.037223
0.0377833
0.0383816
0.0395639
0.0389507
0.0383762
0.03784
0.0373436
0.0368882
0.0364752
0.0361056
0.0357802
0.0354999
0.0352653
0.035077
0.0349354
0.0348409
0.0347935
0.0347935
0.0348409
0.0349354
0.035077
0.0352653
0.0354999
0.0357802
0.0361056
0.0364752
0.0368882
0.0373436
0.03784
0.0383762
0.0389507
0.0395639
0.0407791
0.0401507
0.0395618
0.039012
0.038503
0.038036
0.0376124
0.0372331
0.0368993
0.0366117
0.036371
0.0361777
0.0360324
0.0359353
0.0358867
0.0358867
0.0359353
0.0360324
0.0361777
0.0363709
0.0366117
0.0368993
0.0372331
0.0376124
0.038036
0.038503
0.039012
0.0395618
0.0401507
0.0407791
0.0420279
0.0413841
0.0407805
0.040217
0.0396952
0.0392164
0.038782
0.0383932
0.0380508
0.0377558
0.0375089
0.0373107
0.0371616
0.037062
0.0370122
0.0370122
0.037062
0.0371616
0.0373107
0.0375089
0.0377558
0.0380508
0.0383931
0.038782
0.0392164
0.0396952
0.040217
0.0407805
0.0413841
0.0420279
0.0433114
0.0426517
0.0420333
0.0414558
0.0409209
0.0404302
0.0399849
0.0395863
0.0392353
0.0389328
0.0386797
0.0384764
0.0383236
0.0382215
0.0381704
0.0381704
0.0382215
0.0383236
0.0384764
0.0386797
0.0389328
0.0392352
0.0395862
0.0399849
0.0404302
0.0409209
0.0414558
0.0420333
0.0426517
0.0433114
0.0446306
0.0439548
0.043321
0.0427293
0.0421812
0.0416782
0.0412219
0.0408133
0.0404535
0.0401435
0.039884
0.0396757
0.039519
0.0394144
0.039362
0.039362
0.0394144
0.039519
0.0396757
0.039884
0.0401435
0.0404535
0.0408132
0.0412218
0.0416782
0.0421812
0.0427293
0.043321
0.0439548
0.0446306
0.0459869
0.0452944
0.044645
0.0440386
0.0434769
0.0429615
0.0424938
0.0420751
0.0417064
0.0413887
0.0411228
0.0409093
0.0407488
0.0406415
0.0405878
0.0405879
0.0406415
0.0407488
0.0409093
0.0411228
0.0413887
0.0417064
0.0420751
0.0424938
0.0429615
0.0434769
0.0440386
0.044645
0.0452944
0.0459869
0.0473816
0.0466719
0.0460064
0.045385
0.0448094
0.0442812
0.0438019
0.0433728
0.042995
0.0426695
0.042397
0.0421783
0.0420137
0.0419039
0.0418489
0.0418489
0.0419039
0.0420137
0.0421782
0.042397
0.0426695
0.042995
0.0433728
0.0438019
0.0442812
0.0448094
0.045385
0.0460064
0.046672
0.0473816
0.0488162
0.0480889
0.0474067
0.0467698
0.0461799
0.0456386
0.0451474
0.0447077
0.0443205
0.0439869
0.0437078
0.0434836
0.0433151
0.0432025
0.0431462
0.0431462
0.0432025
0.0433151
0.0434836
0.0437077
0.0439869
0.0443205
0.0447077
0.0451474
0.0456386
0.0461799
0.0467698
0.0474067
0.0480889
0.0488162
0.0502923
0.0495467
0.0488474
0.0481945
0.0475899
0.0470351
0.0465317
0.046081
0.0456843
0.0453424
0.0450564
0.0448267
0.044654
0.0445387
0.0444809
0.0444809
0.0445387
0.044654
0.0448267
0.0450563
0.0453424
0.0456843
0.046081
0.0465317
0.0470351
0.0475899
0.0481945
0.0488474
0.0495467
0.0502923
0.0518118
0.0510473
0.0503302
0.0496609
0.0490409
0.0484722
0.0479562
0.0474943
0.0470877
0.0467374
0.0464442
0.0462089
0.0460319
0.0459138
0.0458546
0.0458546
0.0459138
0.0460319
0.0462089
0.0464442
0.0467374
0.0470877
0.0474943
0.0479562
0.0484722
0.0490409
0.0496609
0.0503302
0.0510473
0.0518118
0.0533766
0.0525924
0.051857
0.0511705
0.0505349
0.0499517
0.0494227
0.0489492
0.0485324
0.0481733
0.0478729
0.0476317
0.0474504
0.0473293
0.0472687
0.0472687
0.0473293
0.0474504
0.0476317
0.0478729
0.0481733
0.0485324
0.0489492
0.0494227
0.0499517
0.0505349
0.0511705
0.051857
0.0525924
0.0533766
0.0549886
0.054184
0.0534295
0.0527254
0.0520734
0.0514754
0.0509329
0.0504474
0.0500201
0.049652
0.049344
0.0490969
0.048911
0.0487869
0.0487248
0.0487248
0.0487869
0.048911
0.0490969
0.049344
0.049652
0.0500201
0.0504474
0.0509329
0.0514754
0.0520735
0.0527254
0.0534296
0.054184
0.0549886
0.05665
0.0558243
0.0550501
0.0543276
0.0536587
0.0530453
0.0524889
0.0519909
0.0515527
0.0511753
0.0508596
0.0506062
0.0504157
0.0502884
0.0502248
0.0502248
0.0502884
0.0504157
0.0506062
0.0508596
0.0511753
0.0515527
0.0519909
0.0524889
0.0530453
0.0536587
0.0543276
0.0550501
0.0558243
0.05665
0.0583633
0.0575155
0.0567208
0.0559793
0.0552929
0.0546634
0.0540926
0.0535818
0.0531323
0.0527452
0.0524214
0.0521616
0.0519663
0.0518358
0.0517705
0.0517705
0.0518358
0.0519662
0.0521616
0.0524214
0.0527452
0.0531323
0.0535818
0.0540926
0.0546634
0.0552929
0.0559793
0.0567208
0.0575156
0.0583633
0.0601308
0.0592602
0.0584441
0.0576828
0.0569782
0.0563321
0.0557463
0.0552221
0.054761
0.0543639
0.0540318
0.0537653
0.0535649
0.0534311
0.0533642
0.0533642
0.0534311
0.0535649
0.0537652
0.0540318
0.0543639
0.054761
0.0552221
0.0557463
0.0563321
0.0569782
0.0576828
0.0584441
0.0592602
0.0601308
0.0619554
0.0610609
0.0602226
0.0594407
0.0587172
0.0580539
0.0574524
0.0569144
0.0564412
0.0560337
0.0556929
0.0554195
0.0552139
0.0550767
0.055008
0.055008
0.0550767
0.0552139
0.0554194
0.0556929
0.0560337
0.0564412
0.0569144
0.0574524
0.0580539
0.0587172
0.0594407
0.0602226
0.0610609
0.0619554
0.0638397
0.0629204
0.062059
0.0612557
0.0605125
0.0598312
0.0592136
0.0586612
0.0581753
0.057757
0.0574072
0.0571266
0.0569157
0.0567749
0.0567044
0.0567044
0.0567749
0.0569157
0.0571266
0.0574072
0.057757
0.0581753
0.0586612
0.0592136
0.0598312
0.0605125
0.0612557
0.062059
0.0629204
0.0638397
0.0657868
0.0648416
0.0639562
0.0631306
0.0623669
0.0616669
0.0610324
0.0604651
0.0599661
0.0595366
0.0591775
0.0588894
0.0586729
0.0585284
0.058456
0.058456
0.0585283
0.0586729
0.0588894
0.0591775
0.0595366
0.0599661
0.0604651
0.0610324
0.0616669
0.0623669
0.0631306
0.0639562
0.0648416
0.0657868
0.0678001
0.0668278
0.0659173
0.0650685
0.0642834
0.063564
0.062912
0.062329
0.0618164
0.0613753
0.0610064
0.0607106
0.0604883
0.0603398
0.0602656
0.0602656
0.0603398
0.0604882
0.0607106
0.0610064
0.0613753
0.0618164
0.062329
0.062912
0.063564
0.0642834
0.0650685
0.0659173
0.0668278
0.0678001
0.0698828
0.0688824
0.0679456
0.0670726
0.0662653
0.0655256
0.0648553
0.0642562
0.0637294
0.0632761
0.0628971
0.0625932
0.0623648
0.0622123
0.062136
0.062136
0.0622123
0.0623648
0.0625931
0.0628971
0.0632761
0.0637294
0.0642562
0.0648553
0.0655256
0.0662653
0.0670726
0.0679456
0.0688824
0.0698828
0.0720386
0.0710088
0.0700448
0.0691465
0.068316
0.0675551
0.0668659
0.0662498
0.0657082
0.0652422
0.0648527
0.0645404
0.0643057
0.064149
0.0640706
0.0640706
0.064149
0.0643057
0.0645403
0.0648527
0.0652422
0.0657082
0.0662498
0.0668659
0.0675551
0.068316
0.0691465
0.0700448
0.0710088
0.0720386
0.0742716
0.073211
0.0722185
0.0712939
0.0704391
0.0696563
0.0689471
0.0683134
0.0677564
0.0672772
0.0668767
0.0665556
0.0663143
0.0661533
0.0660727
0.0660727
0.0661533
0.0663143
0.0665556
0.0668767
0.0672772
0.0677564
0.0683134
0.0689471
0.0696563
0.0704391
0.0712939
0.0722185
0.073211
0.0742716
0.0765858
0.0754931
0.0744708
0.0735187
0.0726387
0.0718328
0.071103
0.0704508
0.0698777
0.0693848
0.0689728
0.0686425
0.0683944
0.0682288
0.0681459
0.0681459
0.0682288
0.0683944
0.0686425
0.0689728
0.0693848
0.0698777
0.0704508
0.071103
0.0718328
0.0726387
0.0735187
0.0744708
0.0754931
0.0765858
0.0789857
0.0778595
0.0768061
0.0758252
0.0749188
0.0740889
0.0733375
0.0726661
0.0720762
0.0715689
0.0711449
0.0708051
0.0705498
0.0703794
0.0702941
0.0702941
0.0703794
0.0705497
0.070805
0.0711449
0.0715689
0.0720762
0.0726661
0.0733375
0.0740889
0.0749188
0.0758252
0.0768061
0.0778595
0.0789857
0.0814761
0.0803147
0.0792289
0.078218
0.077284
0.076429
0.0756549
0.0749635
0.0743561
0.0738337
0.0733973
0.0730474
0.0727846
0.0726092
0.0725215
0.0725215
0.0726092
0.0727846
0.0730474
0.0733973
0.0738337
0.0743561
0.0749635
0.0756549
0.076429
0.077284
0.078218
0.0792289
0.0803148
0.0814761
0.0840621
0.082864
0.0817441
0.0807018
0.079739
0.0788578
0.0780601
0.0773477
0.076722
0.0761839
0.0757344
0.0753741
0.0751034
0.0749228
0.0748325
0.0748325
0.0749228
0.0751034
0.075374
0.0757344
0.0761839
0.0767219
0.0773477
0.0780601
0.0788578
0.079739
0.0807018
0.0817441
0.082864
0.0840621
0.0867491
0.0855125
0.0843571
0.0832819
0.082289
0.0813803
0.080558
0.0798237
0.0791787
0.0786242
0.078161
0.0777898
0.077511
0.0773249
0.0772319
0.0772319
0.0773249
0.077511
0.0777898
0.078161
0.0786242
0.0791787
0.0798237
0.080558
0.0813803
0.082289
0.0832819
0.0843571
0.0855125
0.0867491
0.089543
0.0882661
0.0870734
0.0859639
0.0849394
0.0840021
0.0831539
0.0823966
0.0817316
0.0811599
0.0806825
0.0802998
0.0800124
0.0798206
0.0797247
0.0797247
0.0798206
0.0800124
0.0802998
0.0806824
0.0811599
0.0817316
0.0823966
0.0831539
0.0840021
0.0849394
0.0859639
0.0870734
0.0882661
0.0895429
0.09245
0.0911309
0.0898992
0.0887538
0.0876962
0.0867288
0.0858536
0.0850723
0.0843863
0.0837966
0.0833042
0.0829095
0.0826132
0.0824154
0.0823165
0.0823165
0.0824154
0.0826132
0.0829095
0.0833041
0.0837966
0.0843863
0.0850723
0.0858536
0.0867288
0.0876962
0.0887538
0.0898993
0.0911309
0.09245
0.0954769
0.0941135
0.092841
0.0916579
0.0905657
0.0895669
0.0886633
0.0878569
0.0871488
0.0865403
0.0860322
0.085625
0.0853192
0.0851152
0.0850132
0.0850132
0.0851152
0.0853192
0.0856249
0.0860321
0.0865403
0.0871488
0.0878569
0.0886633
0.0895669
0.0905657
0.0916579
0.0928411
0.0941135
0.0954769
0.0986309
0.0972211
0.0959058
0.0946831
0.0935547
0.0925229
0.0915897
0.0907568
0.0900257
0.0893974
0.0888728
0.0884525
0.0881369
0.0879263
0.087821
0.0878209
0.0879263
0.0881368
0.0884525
0.0888728
0.0893974
0.0900257
0.0907568
0.0915897
0.0925229
0.0935547
0.0946831
0.0959058
0.0972211
0.0986309
0.10192
0.100461
0.0991011
0.097837
0.0966706
0.0956041
0.0946398
0.0937793
0.093024
0.0923749
0.0918331
0.0913989
0.091073
0.0908555
0.0907467
0.0907467
0.0908555
0.0910729
0.0913989
0.091833
0.0923749
0.0930239
0.0937793
0.0946398
0.0956041
0.0966706
0.097837
0.0991011
0.100461
0.10192
0.105352
0.103842
0.102435
0.101127
0.0999211
0.0988184
0.0978214
0.0969318
0.0961511
0.0954803
0.0949203
0.0944717
0.0941349
0.0939102
0.0937978
0.0937978
0.0939102
0.0941349
0.0944717
0.0949203
0.0954803
0.0961511
0.0969318
0.0978214
0.0988184
0.0999211
0.101127
0.102435
0.103842
0.105352
0.108937
0.107373
0.105916
0.104563
0.103315
0.102174
0.101143
0.100223
0.0994153
0.0987216
0.0981426
0.0976788
0.0973305
0.0970982
0.096982
0.096982
0.0970982
0.0973305
0.0976787
0.0981426
0.0987216
0.0994153
0.100223
0.101143
0.102174
0.103315
0.104563
0.105916
0.107373
0.108937
0.112683
0.111063
0.109555
0.108153
0.106861
0.10568
0.104613
0.103661
0.102825
0.102108
0.101509
0.101029
0.100669
0.100428
0.100308
0.100308
0.100428
0.100669
0.101029
0.101509
0.102108
0.102825
0.103661
0.104613
0.10568
0.106861
0.108153
0.109555
0.111063
0.112683
0.116603
0.114923
0.11336
0.111908
0.11057
0.109347
0.108241
0.107256
0.106391
0.105648
0.105028
0.104531
0.104158
0.103909
0.103785
0.103785
0.103909
0.104158
0.104531
0.105028
0.105648
0.106391
0.107256
0.108241
0.109347
0.11057
0.111908
0.11336
0.114923
0.116603
0.120706
0.118964
0.117343
0.115839
0.114451
0.113184
0.112039
0.111018
0.110122
0.109352
0.10871
0.108195
0.107809
0.107552
0.107423
0.107423
0.107552
0.107809
0.108195
0.10871
0.109352
0.110122
0.111018
0.112039
0.113184
0.114451
0.115839
0.117343
0.118964
0.120706
0.125006
0.123198
0.121517
0.119956
0.118518
0.117204
0.116017
0.114958
0.11403
0.113232
0.112566
0.112033
0.111633
0.111366
0.111233
0.111233
0.111366
0.111633
0.112033
0.112566
0.113232
0.11403
0.114958
0.116017
0.117204
0.118518
0.119956
0.121517
0.123198
0.125006
0.129516
0.127639
0.125894
0.124275
0.122782
0.121419
0.120188
0.119089
0.118126
0.117299
0.116609
0.116056
0.115641
0.115365
0.115226
0.115226
0.115365
0.115641
0.116056
0.116609
0.117299
0.118126
0.119089
0.120188
0.121419
0.122782
0.124275
0.125894
0.127639
0.129516
0.134251
0.132301
0.130488
0.128807
0.127258
0.125843
0.124564
0.123425
0.122425
0.121567
0.120851
0.120277
0.119847
0.11956
0.119416
0.119416
0.11956
0.119847
0.120277
0.120851
0.121567
0.122425
0.123425
0.124564
0.125843
0.127258
0.128807
0.130488
0.132301
0.134251
0.139227
0.137199
0.135316
0.133569
0.131959
0.13049
0.129162
0.127979
0.126941
0.12605
0.125306
0.12471
0.124264
0.123966
0.123816
0.123816
0.123966
0.124264
0.12471
0.125306
0.12605
0.126941
0.127979
0.129162
0.13049
0.131959
0.133569
0.135316
0.137199
0.139227
0.144461
0.142351
0.140393
0.138577
0.136904
0.135376
0.133997
0.132767
0.131688
0.130762
0.12999
0.129371
0.128907
0.128597
0.128442
0.128442
0.128597
0.128907
0.129371
0.12999
0.130762
0.131688
0.132767
0.133997
0.135376
0.136904
0.138577
0.140393
0.142351
0.144461
0.149972
0.147776
0.145739
0.143849
0.142109
0.140521
0.139086
0.137807
0.136686
0.135723
0.13492
0.134276
0.133794
0.133472
0.133311
0.133311
0.133472
0.133794
0.134276
0.13492
0.135723
0.136686
0.137807
0.139086
0.140521
0.142109
0.143849
0.145739
0.147776
0.149972
0.155781
0.153494
0.151373
0.149406
0.147595
0.145942
0.144449
0.143118
0.141951
0.140949
0.140113
0.139444
0.138942
0.138607
0.13844
0.13844
0.138607
0.138942
0.139444
0.140113
0.140949
0.141951
0.143118
0.144449
0.145942
0.147595
0.149406
0.151373
0.153494
0.155781
0.161912
0.159528
0.157318
0.155269
0.153383
0.151661
0.150106
0.14872
0.147505
0.146462
0.145592
0.144895
0.144373
0.144024
0.14385
0.14385
0.144024
0.144373
0.144895
0.145592
0.146462
0.147505
0.14872
0.150106
0.151661
0.153383
0.155269
0.157318
0.159528
0.161912
0.168388
0.165902
0.163598
0.161463
0.159496
0.157702
0.156081
0.154637
0.153371
0.152284
0.151377
0.150651
0.150107
0.149744
0.149562
0.149562
0.149744
0.150107
0.150651
0.151377
0.152284
0.153371
0.154637
0.156081
0.157702
0.159496
0.161463
0.163598
0.165902
0.168388
0.175239
0.172644
0.17024
0.168013
0.165962
0.16409
0.1624
0.160894
0.159573
0.15844
0.157494
0.156737
0.156169
0.155791
0.155601
0.155601
0.155791
0.156169
0.156737
0.157494
0.15844
0.159573
0.160894
0.1624
0.16409
0.165962
0.168013
0.17024
0.172644
0.175239
0.182495
0.179784
0.177274
0.174949
0.172808
0.170854
0.16909
0.167518
0.166139
0.164957
0.16397
0.16318
0.162587
0.162192
0.161994
0.161994
0.162192
0.162587
0.16318
0.16397
0.164957
0.166139
0.167518
0.16909
0.170854
0.172808
0.174949
0.177274
0.179784
0.182495
0.190189
0.187355
0.184733
0.182303
0.180066
0.178025
0.176182
0.17454
0.1731
0.171865
0.170834
0.170009
0.16939
0.168977
0.168771
0.168771
0.168977
0.16939
0.170009
0.170834
0.171865
0.1731
0.17454
0.176182
0.178025
0.180066
0.182303
0.184733
0.187355
0.190189
0.198359
0.195395
0.192653
0.190112
0.187773
0.185639
0.183712
0.181995
0.18049
0.179198
0.178121
0.177258
0.176611
0.17618
0.175964
0.175964
0.17618
0.176611
0.177258
0.178121
0.179198
0.18049
0.181995
0.183712
0.185639
0.187773
0.190112
0.192653
0.195395
0.198359
0.207048
0.203944
0.201074
0.198415
0.195967
0.193733
0.191717
0.18992
0.188345
0.186994
0.185866
0.184964
0.184287
0.183835
0.18361
0.18361
0.183835
0.184287
0.184964
0.185866
0.186994
0.188345
0.18992
0.191717
0.193733
0.195967
0.198415
0.201074
0.203944
0.207048
0.2163
0.213048
0.210041
0.207256
0.204692
0.202352
0.20024
0.198358
0.196709
0.195293
0.194112
0.193167
0.192458
0.191985
0.191749
0.191749
0.191985
0.192458
0.193167
0.194112
0.195293
0.196709
0.198358
0.20024
0.202352
0.204692
0.207256
0.210041
0.213048
0.2163
0.226169
0.222757
0.219605
0.216685
0.213996
0.211543
0.209329
0.207356
0.205626
0.204142
0.202905
0.201914
0.201171
0.200675
0.200427
0.200427
0.200675
0.201171
0.201914
0.202905
0.204142
0.205626
0.207356
0.209329
0.211543
0.213996
0.216685
0.219605
0.222757
0.226169
0.236712
0.23313
0.229822
0.226757
0.223936
0.221361
0.219037
0.216966
0.215151
0.213594
0.212295
0.211255
0.210475
0.209955
0.209695
0.209695
0.209955
0.210475
0.211255
0.212295
0.213594
0.215151
0.216966
0.219037
0.221361
0.223936
0.226757
0.229822
0.23313
0.236712
0.247994
0.24423
0.240755
0.237535
0.234571
0.231866
0.229424
0.227249
0.225342
0.223706
0.222341
0.221249
0.22043
0.219884
0.21961
0.21961
0.219884
0.22043
0.221249
0.222341
0.223706
0.225342
0.227249
0.229424
0.231866
0.23457
0.237535
0.240755
0.24423
0.247994
0.260088
0.25613
0.252474
0.249088
0.24597
0.243125
0.240557
0.23827
0.236264
0.234544
0.233109
0.23196
0.231099
0.230524
0.230237
0.230237
0.230524
0.231099
0.23196
0.233109
0.234544
0.236264
0.23827
0.240557
0.243125
0.24597
0.249088
0.252474
0.25613
0.260088
0.273077
0.268909
0.265061
0.261495
0.258213
0.255217
0.252513
0.250105
0.247993
0.246182
0.244671
0.243462
0.242554
0.24195
0.241647
0.241647
0.24195
0.242554
0.243462
0.244671
0.246182
0.247993
0.250105
0.252513
0.255217
0.258213
0.261495
0.265061
0.268909
0.273077
0.287054
0.282661
0.278605
0.274847
0.271386
0.268228
0.265378
0.262839
0.260613
0.258704
0.257111
0.255836
0.25488
0.254242
0.253924
0.253924
0.254242
0.25488
0.255836
0.257111
0.258704
0.260613
0.262839
0.265378
0.268228
0.271386
0.274847
0.278605
0.282661
0.287054
0.302125
0.297489
0.293209
0.289243
0.285591
0.282258
0.279249
0.276569
0.27422
0.272205
0.270524
0.269178
0.268169
0.267496
0.26716
0.26716
0.267496
0.268169
0.269178
0.270524
0.272205
0.27422
0.276569
0.279249
0.282258
0.285591
0.289243
0.293209
0.297489
0.302125
0.318411
0.313512
0.30899
0.304799
0.30094
0.297418
0.294238
0.291406
0.288924
0.286794
0.285017
0.283595
0.282529
0.281818
0.281462
0.281462
0.281818
0.282529
0.283595
0.285017
0.286793
0.288924
0.291406
0.294238
0.297418
0.30094
0.304799
0.30899
0.313512
0.318411
0.336048
0.330866
0.326083
0.321648
0.317564
0.313837
0.310473
0.307475
0.304849
0.302594
0.300715
0.29921
0.298081
0.297329
0.296952
0.296953
0.297329
0.298081
0.29921
0.300715
0.302594
0.304849
0.307476
0.310473
0.313837
0.317564
0.321648
0.326083
0.330866
0.336048
0.355195
0.349706
0.344639
0.339941
0.335614
0.331664
0.328099
0.324923
0.322139
0.31975
0.317758
0.316163
0.314967
0.31417
0.313771
0.313771
0.31417
0.314967
0.316163
0.317758
0.31975
0.322139
0.324923
0.328099
0.331664
0.335614
0.339941
0.344639
0.349706
0.355195
0.376033
0.370212
0.364837
0.359852
0.35526
0.351069
0.347285
0.343914
0.34096
0.338424
0.33631
0.334618
0.333349
0.332502
0.332079
0.332079
0.332502
0.333349
0.334618
0.33631
0.338424
0.34096
0.343914
0.347285
0.351069
0.35526
0.359852
0.364837
0.370212
0.376033
0.398771
0.392589
0.386878
0.381582
0.376702
0.372248
0.368226
0.364643
0.361503
0.358808
0.356561
0.354762
0.353413
0.352513
0.352063
0.352063
0.352513
0.353413
0.354762
0.356561
0.358808
0.361503
0.364643
0.368226
0.372248
0.376702
0.381582
0.386878
0.392589
0.398771
0.423652
0.417077
0.411001
0.405364
0.40017
0.395429
0.391148
0.387334
0.38399
0.381121
0.378729
0.376814
0.375377
0.374419
0.37394
0.37394
0.374419
0.375377
0.376814
0.378729
0.381121
0.38399
0.387334
0.391148
0.395429
0.40017
0.405364
0.411001
0.417077
0.423652
0.450958
0.443955
0.43748
0.431471
0.425934
0.420879
0.416314
0.412247
0.408682
0.405623
0.403071
0.401029
0.399497
0.398475
0.397964
0.397964
0.398475
0.399497
0.401029
0.403071
0.405623
0.408682
0.412247
0.416314
0.420879
0.425934
0.431471
0.43748
0.443955
0.450958
0.48102
0.473549
0.466638
0.460222
0.454309
0.44891
0.444035
0.43969
0.435882
0.432613
0.429887
0.427706
0.426069
0.424977
0.424432
0.424432
0.424977
0.426069
0.427706
0.429887
0.432613
0.435882
0.43969
0.444035
0.44891
0.454309
0.460222
0.466638
0.473549
0.48102
0.514226
0.506242
0.498853
0.491991
0.485666
0.479889
0.474672
0.470023
0.465948
0.46245
0.459533
0.457198
0.455446
0.454277
0.453693
0.453693
0.454277
0.455446
0.457198
0.459533
0.46245
0.465948
0.470023
0.474672
0.479889
0.485666
0.491991
0.498853
0.506242
0.514226
0.551035
0.542489
0.534574
0.527222
0.520443
0.514251
0.508659
0.503675
0.499305
0.495555
0.492426
0.489922
0.488044
0.486791
0.486164
0.486164
0.486791
0.488043
0.489922
0.492426
0.495555
0.499305
0.503675
0.508659
0.514251
0.520443
0.527222
0.534574
0.542489
0.551035
0.591993
0.582829
0.574335
0.566442
0.559163
0.552514
0.546507
0.541153
0.536459
0.53243
0.529069
0.526378
0.52436
0.523013
0.52234
0.52234
0.523013
0.52436
0.526378
0.529069
0.53243
0.536459
0.541153
0.546507
0.552514
0.559163
0.566442
0.574335
0.582829
0.591993
0.637756
0.62791
0.618776
0.610286
0.602454
0.595299
0.588834
0.583071
0.578018
0.57368
0.570061
0.567164
0.56499
0.563541
0.562816
0.562816
0.563541
0.56499
0.567164
0.570061
0.57368
0.578018
0.583071
0.588834
0.595299
0.602454
0.610286
0.618776
0.62791
0.637756
0.689114
0.678514
0.668671
0.659518
0.651074
0.643357
0.636384
0.630167
0.624716
0.620035
0.61613
0.613004
0.610658
0.609094
0.608311
0.608311
0.609094
0.610658
0.613004
0.61613
0.620035
0.624716
0.630167
0.636384
0.643357
0.651074
0.659518
0.668671
0.678514
0.689114
0.747038
0.735599
0.724967
0.715077
0.705949
0.697608
0.690069
0.683346
0.677451
0.672388
0.668165
0.664783
0.662245
0.660553
0.659707
0.659706
0.660553
0.662245
0.664783
0.668165
0.672388
0.677451
0.683346
0.690069
0.697608
0.705949
0.715077
0.724967
0.735599
0.747038
0.812734
0.800356
0.788839
0.778122
0.76823
0.759188
0.751016
0.743727
0.737334
0.731844
0.727263
0.723595
0.720843
0.719007
0.718089
0.718089
0.719007
0.720843
0.723595
0.727263
0.731844
0.737334
0.743727
0.751015
0.759188
0.76823
0.778122
0.788839
0.800356
0.812734
0.887732
0.874291
0.861773
0.850122
0.839367
0.829534
0.820645
0.812717
0.805763
0.799791
0.794807
0.790816
0.787821
0.785824
0.784825
0.784825
0.785824
0.787821
0.790816
0.794807
0.799791
0.805763
0.812717
0.820645
0.829534
0.839367
0.850122
0.861773
0.874291
0.887732
0.974031
0.959369
0.945702
0.93298
0.921234
0.910496
0.900789
0.892131
0.884536
0.878013
0.87257
0.868211
0.86494
0.862758
0.861667
0.861667
0.862758
0.86494
0.868211
0.87257
0.878013
0.884536
0.892131
0.900789
0.910496
0.921234
0.932979
0.945702
0.959369
0.974031
1.07434
1.05824
1.04322
1.02925
1.01634
1.00455
0.993888
0.98438
0.97604
0.968878
0.962902
0.958116
0.954524
0.952129
0.950931
0.950931
0.952129
0.954524
0.958116
0.962902
0.968878
0.97604
0.98438
0.993888
1.00455
1.01634
1.02925
1.04322
1.05824
1.07434
1.1925
1.17465
1.158
1.1425
1.1282
1.11514
1.10333
1.09281
1.08358
1.07565
1.06904
1.06375
1.05977
1.05712
1.0558
1.0558
1.05712
1.05977
1.06375
1.06904
1.07565
1.08358
1.09281
1.10333
1.11514
1.1282
1.1425
1.158
1.17465
1.1925
1.33429
1.31421
1.29547
1.27806
1.262
1.24734
1.2341
1.22231
1.21197
1.20309
1.19569
1.18977
1.18533
1.18236
1.18088
1.18088
1.18236
1.18533
1.18977
1.19569
1.20309
1.21197
1.22231
1.2341
1.24734
1.262
1.27806
1.29547
1.31421
1.33429
1.50884
1.48576
1.46424
1.44426
1.42587
1.40909
1.39396
1.38049
1.3687
1.35858
1.35015
1.3434
1.33834
1.33497
1.33329
1.33329
1.33497
1.33834
1.3434
1.35015
1.35858
1.3687
1.38049
1.39396
1.40909
1.42587
1.44426
1.46424
1.48576
1.50884
1.7314
1.70405
1.67859
1.65499
1.6333
1.61356
1.59577
1.57997
1.56614
1.55429
1.54443
1.53654
1.53063
1.52669
1.52472
1.52472
1.52669
1.53063
1.53654
1.54442
1.55429
1.56614
1.57997
1.59577
1.61356
1.6333
1.65499
1.67859
1.70405
1.7314
2.02837
1.99469
1.96338
1.93442
1.90785
1.88371
1.862
1.84273
1.8259
1.8115
1.79952
1.78995
1.78278
1.778
1.77562
1.77562
1.778
1.78278
1.78995
1.79952
1.8115
1.8259
1.84273
1.862
1.88371
1.90785
1.93442
1.96338
1.99469
2.02837
2.44687
2.40351
2.36326
2.32608
2.29202
2.26112
2.23337
2.20877
2.18731
2.16896
2.15371
2.14154
2.13243
2.12636
2.12333
2.12333
2.12636
2.13243
2.14154
2.15371
2.16896
2.18731
2.20877
2.23337
2.26112
2.29202
2.32608
2.36326
2.40351
2.44687
3.07346
3.01502
2.96078
2.91073
2.86491
2.82337
2.78608
2.75306
2.72426
2.69966
2.67922
2.66292
2.65071
2.64259
2.63854
2.63854
2.64259
2.65071
2.66292
2.67922
2.69966
2.72426
2.75306
2.78608
2.82337
2.86491
2.91073
2.96078
3.01502
3.07346
4.0745
3.992
3.91542
3.84474
3.78003
3.72134
3.66867
3.62201
3.58133
3.54657
3.51771
3.49467
3.47744
3.46597
3.46024
3.46024
3.46597
3.47744
3.49467
3.5177
3.54657
3.58133
3.62201
3.66867
3.72134
3.78003
3.84474
3.91542
3.992
4.0745
5.79505
5.67256
5.55876
5.45365
5.35735
5.26996
5.19149
5.12193
5.06126
5.00941
4.96632
4.93194
4.90621
4.88908
4.88052
4.88052
4.88908
4.90621
4.93194
4.96632
5.00941
5.06126
5.12193
5.19149
5.26996
5.35735
5.45365
5.55876
5.67256
5.79505
9.04032
8.84615
8.6656
8.49865
8.34557
8.20652
8.08157