/*--------------------------------*- C++ -*----------------------------------*\
  =========                 |
  \\      /  F ield         | OpenFOAM: The Open Source CFD Toolbox
   \\    /   O peration     | Website:  https://openfoam.org
    \\  /    A nd           | Version:  7
     \\/     M anipulation  |
\*---------------------------------------------------------------------------*/
FoamFile
{
    version     2.0;
    format      ascii;
    class       volVectorField;
    location    "40000";
    object      U;
}
// * * * * * * * * * * * * * * * * * * * * * * * * * * * * * * * * * * * * * //

dimensions      [0 1 -1 0 0 0 0];

internalField   nonuniform List<vector> 
14100
(
(1.02566e-18 3.89386e-20 -0.0167376)
(6.52656e-19 -3.5095e-19 -0.0167548)
(2.73021e-19 -3.84713e-20 -0.0167699)
(1.86448e-19 1.58211e-19 -0.0167835)
(3.07248e-19 4.05851e-19 -0.0167957)
(7.11506e-20 5.14013e-19 -0.0168064)
(-3.34683e-19 6.19575e-19 -0.0168158)
(-5.70704e-19 7.55731e-19 -0.0168239)
(-1.91009e-19 7.23476e-19 -0.0168308)
(-5.97616e-20 5.22824e-19 -0.0168366)
(1.40152e-19 -1.84323e-20 -0.0168414)
(7.50847e-19 -1.80404e-19 -0.0168451)
(5.7026e-19 -3.43177e-19 -0.0168478)
(-2.03671e-20 -8.15418e-20 -0.0168496)
(-4.08274e-19 3.57391e-19 -0.0168505)
(-6.22324e-20 1.90281e-19 -0.0168505)
(2.53981e-19 6.79322e-20 -0.0168496)
(1.92624e-19 1.63927e-19 -0.0168478)
(-6.16835e-19 5.47282e-19 -0.0168451)
(-1.1365e-18 9.81635e-19 -0.0168414)
(-5.86833e-19 8.09485e-19 -0.0168366)
(-2.27859e-19 7.66619e-19 -0.0168308)
(-2.10253e-19 7.14114e-19 -0.0168239)
(5.07578e-19 1.70561e-19 -0.0168158)
(1.02766e-18 -3.17564e-19 -0.0168064)
(6.35895e-19 -8.06326e-19 -0.0167957)
(5.6067e-19 -8.64382e-19 -0.0167835)
(3.93627e-19 -4.89379e-19 -0.0167699)
(5.76086e-19 -6.22583e-20 -0.0167548)
(1.2084e-18 -1.09498e-19 -0.0167376)
(6.29589e-19 2.54401e-19 -0.016708)
(5.6081e-19 6.60443e-20 -0.0167254)
(4.95422e-19 1.78883e-19 -0.0167413)
(2.14534e-19 6.62425e-20 -0.0167559)
(8.24884e-20 1.2821e-19 -0.0167692)
(-6.07759e-20 -3.61028e-20 -0.016781)
(-1.76392e-19 -2.59802e-19 -0.0167914)
(-1.48034e-19 -1.46522e-19 -0.0168005)
(-1.55586e-19 4.24957e-19 -0.0168083)
(-5.81727e-19 5.363e-19 -0.0168149)
(-8.21318e-21 3.83685e-19 -0.0168203)
(1.22075e-18 1.778e-19 -0.0168245)
(1.1296e-18 2.89183e-19 -0.0168277)
(1.327e-19 5.46483e-19 -0.0168298)
(-7.31703e-19 5.87781e-19 -0.0168308)
(-2.4379e-19 5.28391e-19 -0.0168308)
(4.20711e-19 3.87108e-19 -0.0168298)
(2.90056e-19 1.3997e-19 -0.0168277)
(-2.38144e-19 -8.73499e-20 -0.0168245)
(-7.17225e-19 2.94037e-19 -0.0168203)
(-6.03487e-19 1.92215e-19 -0.0168149)
(-4.95418e-19 -1.63596e-19 -0.0168083)
(-3.54102e-19 1.38182e-19 -0.0168005)
(3.18967e-19 1.04578e-19 -0.0167914)
(5.00795e-19 -1.21978e-19 -0.016781)
(2.90499e-19 -9.54736e-20 -0.0167692)
(5.17481e-19 -1.43347e-19 -0.0167559)
(7.42458e-19 -4.12024e-19 -0.0167413)
(1.30258e-18 -6.00752e-19 -0.0167254)
(1.67147e-18 -6.08155e-19 -0.016708)
(4.87197e-19 6.07429e-19 -0.0166748)
(5.14415e-19 1.12389e-18 -0.0166934)
(3.27711e-19 1.20222e-18 -0.0167102)
(2.10771e-19 6.41702e-19 -0.0167258)
(1.4207e-19 5.11025e-19 -0.01674)
(-3.21511e-19 1.78238e-20 -0.0167528)
(-4.91836e-19 -8.55703e-20 -0.0167642)
(7.02202e-20 5.42968e-19 -0.0167742)
(6.73624e-19 8.31067e-19 -0.0167828)
(-1.68198e-19 8.07947e-19 -0.0167901)
(-7.08188e-19 1.09981e-18 -0.0167962)
(7.6824e-19 9.41009e-19 -0.0168009)
(1.71308e-18 6.7128e-19 -0.0168045)
(6.76418e-19 4.42657e-19 -0.0168068)
(-5.19887e-19 7.04407e-19 -0.016808)
(-2.8916e-19 1.17469e-18 -0.016808)
(-5.97214e-20 9.96657e-19 -0.0168068)
(-3.94803e-19 6.46021e-19 -0.0168045)
(-5.95128e-19 2.94665e-19 -0.0168009)
(-8.71581e-19 6.90963e-19 -0.0167962)
(-1.12828e-18 1.30212e-18 -0.0167901)
(-3.91004e-19 8.15497e-19 -0.0167828)
(2.76478e-19 -6.31375e-20 -0.0167742)
(6.86483e-19 -2.50583e-19 -0.0167642)
(9.93817e-19 -6.68603e-21 -0.0167528)
(8.0728e-19 3.31317e-19 -0.01674)
(6.74224e-19 5.53332e-19 -0.0167258)
(6.18036e-19 5.04575e-19 -0.0167102)
(1.2172e-18 3.05416e-20 -0.0166934)
(1.50173e-18 -5.76987e-19 -0.0166748)
(6.31374e-19 1.49143e-18 -0.0166388)
(1.03129e-18 1.99776e-18 -0.0166587)
(2.1336e-19 1.31272e-18 -0.0166766)
(-4.65725e-19 9.97752e-19 -0.0166931)
(-3.78916e-19 7.33327e-19 -0.0167082)
(-4.49276e-19 3.72128e-19 -0.016722)
(-5.49426e-21 1.16809e-18 -0.0167343)
(1.66126e-19 1.95964e-18 -0.0167451)
(1.56515e-19 1.36607e-18 -0.0167545)
(7.59694e-20 8.3105e-19 -0.0167625)
(-1.62465e-19 1.47424e-18 -0.0167691)
(4.34567e-19 1.90737e-18 -0.0167744)
(8.97299e-19 9.59906e-19 -0.0167783)
(4.63906e-19 3.4336e-20 -0.0167809)
(1.94371e-21 2.42181e-19 -0.0167822)
(-2.60649e-20 7.74298e-19 -0.0167822)
(-2.34441e-19 7.28561e-19 -0.0167809)
(-6.25276e-19 6.88635e-19 -0.0167783)
(-2.99663e-19 6.84489e-19 -0.0167744)
(2.25917e-19 7.9036e-19 -0.0167691)
(-3.41456e-19 1.51009e-18 -0.0167625)
(-1.48029e-18 2.02286e-18 -0.0167545)
(-1.03648e-18 1.13726e-18 -0.0167451)
(8.87901e-19 2.97033e-19 -0.0167343)
(1.35059e-18 2.16249e-19 -0.016722)
(7.71942e-19 2.0308e-19 -0.0167082)
(5.77861e-19 -3.13045e-20 -0.0166931)
(7.20975e-19 1.6233e-19 -0.0166766)
(1.18868e-18 -1.39791e-19 -0.0166587)
(1.15609e-18 -4.74212e-19 -0.0166388)
(3.30397e-19 1.75224e-18 -0.0166003)
(7.91509e-19 1.5199e-18 -0.0166214)
(4.97954e-19 1.28555e-18 -0.0166404)
(-2.2216e-19 1.8052e-18 -0.0166579)
(-6.71795e-19 1.37473e-18 -0.016674)
(-2.22479e-19 8.34976e-19 -0.0166886)
(6.1816e-19 1.8079e-18 -0.0167018)
(1.61905e-19 1.88533e-18 -0.0167134)
(-4.01168e-19 1.41807e-18 -0.0167235)
(-5.30237e-20 1.57387e-18 -0.0167322)
(1.47603e-19 2.02521e-18 -0.0167393)
(4.79358e-20 2.36062e-18 -0.0167451)
(-5.61407e-20 1.04737e-18 -0.0167493)
(2.0493e-20 1.83831e-19 -0.0167522)
(1.61924e-19 -4.35309e-21 -0.0167536)
(1.00766e-19 5.17161e-19 -0.0167536)
(-3.10396e-19 4.61401e-19 -0.0167522)
(-5.49e-19 4.42142e-19 -0.0167493)
(-3.27284e-19 4.06804e-19 -0.0167451)
(-2.73861e-20 2.34321e-19 -0.0167393)
(-4.87629e-19 3.86757e-19 -0.0167322)
(-1.23399e-18 6.10566e-19 -0.0167235)
(-6.12195e-19 8.80271e-19 -0.0167134)
(9.16573e-19 1.08314e-19 -0.0167018)
(9.3963e-19 -4.52341e-19 -0.0166886)
(2.82907e-19 1.56068e-20 -0.016674)
(5.75367e-19 -2.14413e-20 -0.0166579)
(8.54458e-19 4.59199e-20 -0.0166404)
(1.13038e-18 3.38734e-20 -0.0166214)
(9.23762e-19 -2.91177e-19 -0.0166003)
(-1.13288e-20 1.53991e-18 -0.0165595)
(8.46474e-19 1.55848e-18 -0.0165817)
(1.03267e-18 1.74975e-18 -0.0166018)
(2.09038e-19 1.26723e-18 -0.0166203)
(-1.23277e-18 9.03396e-19 -0.0166373)
(-7.01511e-19 9.52163e-19 -0.0166528)
(8.42367e-19 1.76385e-18 -0.0166668)
(3.06769e-19 1.71579e-18 -0.0166791)
(-8.30794e-20 1.6974e-18 -0.01669)
(3.56324e-19 2.09984e-18 -0.0166992)
(4.0419e-19 2.23347e-18 -0.0167069)
(-5.01027e-19 1.37268e-18 -0.016713)
(-1.20043e-18 6.69698e-19 -0.0167176)
(-6.36441e-19 3.01788e-19 -0.0167207)
(2.74701e-19 5.56881e-19 -0.0167222)
(3.36729e-19 5.86753e-19 -0.0167222)
(-5.05053e-19 4.14519e-19 -0.0167207)
(-8.28712e-19 2.35937e-19 -0.0167176)
(-4.29811e-19 3.57174e-19 -0.016713)
(2.17243e-19 2.96621e-19 -0.0167069)
(-3.88551e-19 8.0834e-19 -0.0166992)
(-1.3653e-18 6.14051e-19 -0.01669)
(-9.38249e-19 2.59995e-19 -0.0166791)
(3.37501e-19 -2.85891e-19 -0.0166668)
(8.77776e-19 -1.40543e-18 -0.0166528)
(9.03096e-19 -8.08257e-19 -0.0166373)
(9.73462e-19 7.84884e-20 -0.0166203)
(1.16599e-18 3.20422e-19 -0.0166018)
(1.23396e-18 4.58629e-19 -0.0165817)
(3.38165e-19 1.63293e-19 -0.0165595)
(-1.85822e-19 1.32258e-18 -0.0165167)
(4.82698e-19 1.63098e-18 -0.0165399)
(6.78701e-19 1.60704e-18 -0.016561)
(5.32736e-19 6.40633e-19 -0.0165804)
(-4.9523e-19 8.68992e-19 -0.0165984)
(-5.79433e-19 1.59763e-18 -0.0166147)
(1.03837e-18 1.65823e-18 -0.0166294)
(5.60261e-19 1.80359e-18 -0.0166425)
(-1.06641e-19 1.95474e-18 -0.0166539)
(2.47131e-19 2.25702e-18 -0.0166638)
(-3.68519e-19 1.47284e-18 -0.0166719)
(-1.13764e-18 1.73809e-19 -0.0166785)
(-1.17318e-18 5.4313e-19 -0.0166834)
(-3.4383e-19 9.73163e-19 -0.0166866)
(3.79638e-19 1.14383e-18 -0.0166883)
(-1.21511e-19 5.09313e-19 -0.0166883)
(-9.08645e-19 -8.23408e-20 -0.0166866)
(-7.56222e-19 -3.1286e-19 -0.0166834)
(-7.76286e-20 5.07573e-19 -0.0166785)
(5.00959e-19 3.77207e-19 -0.0166719)
(-5.78955e-19 7.55881e-19 -0.0166638)
(-2.02198e-18 8.48033e-19 -0.0166539)
(-9.3936e-19 7.50732e-19 -0.0166425)
(3.0373e-19 3.17768e-19 -0.0166294)
(9.1385e-19 -4.05354e-19 -0.0166147)
(1.58197e-18 -5.44495e-19 -0.0165984)
(1.7493e-18 1.52084e-19 -0.0165804)
(1.50068e-18 6.61212e-19 -0.016561)
(7.61114e-19 5.55288e-19 -0.0165399)
(-3.46101e-19 4.30602e-19 -0.0165167)
(-1.86685e-19 1.39902e-18 -0.0164719)
(3.78808e-19 2.31794e-18 -0.016496)
(4.13839e-19 1.65271e-18 -0.016518)
(3.40495e-19 1.01421e-18 -0.0165384)
(-6.48871e-20 7.94917e-19 -0.0165572)
(-7.64608e-19 1.3658e-18 -0.0165743)
(7.79682e-19 1.85933e-18 -0.0165898)
(1.00533e-18 1.91333e-18 -0.0166035)
(3.65247e-19 1.87093e-18 -0.0166156)
(6.82202e-21 1.69679e-18 -0.016626)
(-1.16415e-18 1.02582e-18 -0.0166346)
(-1.34363e-18 3.45964e-19 -0.0166415)
(-7.91536e-19 7.18256e-19 -0.0166467)
(-3.6273e-19 1.39383e-18 -0.0166501)
(-1.35327e-19 8.86829e-19 -0.0166519)
(-8.21813e-19 3.30718e-19 -0.0166519)
(-1.42074e-18 4.17438e-19 -0.0166501)
(-3.08189e-19 5.47709e-19 -0.0166467)
(4.12293e-19 7.32945e-19 -0.0166415)
(3.90924e-19 3.92087e-20 -0.0166346)
(-7.80942e-19 -3.93715e-19 -0.016626)
(-1.66024e-18 6.02765e-19 -0.0166156)
(-6.15219e-19 1.21103e-18 -0.0166035)
(1.91416e-19 2.77216e-19 -0.0165898)
(1.21866e-18 4.79633e-19 -0.0165743)
(2.08944e-18 1.84419e-19 -0.0165572)
(2.06182e-18 3.35322e-19 -0.0165384)
(1.01513e-18 1.64488e-19 -0.016518)
(6.63935e-20 2.77555e-19 -0.016496)
(-6.46154e-19 8.19482e-19 -0.0164719)
(-1.11095e-19 1.50696e-18 -0.0164253)
(2.86171e-19 1.87093e-18 -0.0164503)
(8.20827e-20 1.04235e-18 -0.0164732)
(5.69001e-20 1.1941e-18 -0.0164944)
(2.49651e-19 4.14897e-19 -0.016514)
(-1.5352e-19 1.66786e-18 -0.0165318)
(8.64026e-19 2.39112e-18 -0.016548)
(7.57934e-19 2.22406e-18 -0.0165624)
(3.3931e-20 1.85963e-18 -0.016575)
(3.98728e-21 1.00003e-18 -0.0165859)
(-1.33797e-18 8.23014e-19 -0.016595)
(-1.77111e-18 1.08335e-18 -0.0166022)
(-6.7195e-19 1.28021e-18 -0.0166077)
(-3.79717e-19 1.20431e-18 -0.0166113)
(-5.29705e-19 4.36816e-19 -0.0166131)
(-6.67183e-19 2.65461e-19 -0.0166131)
(-8.38329e-19 1.27523e-18 -0.0166113)
(-2.68713e-19 1.62247e-18 -0.0166077)
(-2.27548e-19 1.481e-18 -0.0166022)
(-5.12654e-19 3.52684e-19 -0.016595)
(-7.88292e-19 -7.22906e-19 -0.0165859)
(-9.09337e-19 5.30851e-19 -0.016575)
(-6.85151e-19 1.06781e-18 -0.0165624)
(3.30552e-19 1.88213e-19 -0.016548)
(1.72414e-18 -5.80969e-20 -0.0165318)
(1.98948e-18 -6.8074e-19 -0.016514)
(1.34521e-18 -2.49437e-19 -0.0164944)
(2.11779e-19 -7.17131e-19 -0.0164732)
(-1.40104e-20 -4.76345e-19 -0.0164503)
(-6.22346e-19 1.28867e-18 -0.0164253)
(-3.78887e-19 1.04196e-18 -0.0163769)
(4.49056e-19 9.54902e-19 -0.0164027)
(2.5628e-19 1.15994e-18 -0.0164264)
(-7.61049e-20 7.36851e-19 -0.0164484)
(3.59327e-19 5.14058e-19 -0.0164688)
(3.26393e-19 1.78296e-18 -0.0164874)
(1.04698e-18 1.82303e-18 -0.0165042)
(1.0768e-18 1.41273e-18 -0.0165192)
(-2.1421e-19 1.19565e-18 -0.0165324)
(-4.46009e-19 7.75321e-19 -0.0165437)
(-9.72514e-19 6.46365e-19 -0.0165532)
(-1.45009e-18 1.57946e-18 -0.0165608)
(-1.08271e-18 1.68863e-18 -0.0165665)
(-1.12352e-18 8.81219e-19 -0.0165703)
(-9.35197e-19 6.60755e-20 -0.0165722)
(-2.92868e-19 1.31788e-19 -0.0165722)
(-4.53544e-19 9.98445e-19 -0.0165703)
(-1.26024e-19 1.00087e-18 -0.0165665)
(-4.82324e-19 1.82659e-18 -0.0165608)
(-1.25341e-18 1.03716e-18 -0.0165532)
(-5.94464e-19 7.8239e-19 -0.0165437)
(-3.86446e-19 6.32876e-19 -0.0165324)
(-5.69929e-19 1.03791e-18 -0.0165192)
(3.96066e-19 1.30937e-18 -0.0165042)
(1.10595e-18 -3.98813e-19 -0.0164874)
(1.55165e-18 -1.69808e-18 -0.0164688)
(8.8757e-19 -1.71997e-18 -0.0164484)
(-1.84216e-20 -1.14883e-18 -0.0164264)
(5.006e-19 -9.25913e-19 -0.0164027)
(-4.63521e-19 9.79885e-19 -0.0163769)
(-6.45602e-20 9.93524e-20 -0.0163269)
(5.79214e-19 3.87009e-19 -0.0163535)
(4.04245e-19 4.56131e-19 -0.0163779)
(3.62782e-20 -3.05263e-19 -0.0164007)
(7.83769e-19 3.47062e-19 -0.0164218)
(7.13915e-19 1.10322e-18 -0.016441)
(7.86617e-19 1.20082e-18 -0.0164585)
(1.10402e-18 5.39312e-19 -0.0164741)
(1.80028e-19 4.52249e-19 -0.0164878)
(-2.96682e-19 6.96035e-19 -0.0164996)
(-7.98263e-19 8.89075e-19 -0.0165094)
(-1.14514e-18 2.25311e-19 -0.0165173)
(-1.35364e-18 5.76213e-19 -0.0165233)
(-1.72711e-18 7.19389e-19 -0.0165272)
(-1.24899e-18 1.22275e-18 -0.0165292)
(-7.10869e-20 8.60469e-19 -0.0165292)
(-2.78564e-19 1.09285e-18 -0.0165272)
(2.5237e-19 1.17955e-18 -0.0165233)
(-3.72987e-19 1.51875e-18 -0.0165173)
(-1.27503e-18 1.01633e-18 -0.0165094)
(-5.64638e-19 1.9021e-18 -0.0164996)
(-7.06359e-19 7.86645e-19 -0.0164878)
(-1.79567e-19 2.22894e-19 -0.0164741)
(-3.98186e-21 7.47603e-19 -0.0164585)
(1.34552e-19 -4.13568e-19 -0.016441)
(1.39153e-18 -4.36446e-19 -0.0164217)
(7.50945e-19 -1.95863e-18 -0.0164007)
(6.06607e-19 -1.11237e-18 -0.0163779)
(1.07369e-18 -8.02753e-19 -0.0163535)
(-6.09226e-19 4.26426e-19 -0.0163269)
(4.5027e-19 -1.02278e-18 -0.0162753)
(8.08521e-19 2.78582e-20 -0.0163026)
(4.96158e-19 1.57971e-20 -0.0163278)
(1.76862e-21 -3.95655e-19 -0.0163513)
(1.09047e-18 1.80562e-19 -0.016373)
(1.21535e-18 7.44174e-19 -0.0163929)
(8.53229e-19 8.85826e-19 -0.0164109)
(9.82918e-19 5.70748e-19 -0.0164271)
(3.56871e-19 3.50563e-19 -0.0164413)
(-2.8233e-20 7.28337e-19 -0.0164535)
(-1.26395e-18 4.83738e-19 -0.0164637)
(-1.52062e-18 -1.16209e-18 -0.0164719)
(-7.73052e-19 -4.73667e-19 -0.0164781)
(-9.27182e-19 4.6704e-19 -0.0164822)
(-1.0867e-18 1.58655e-18 -0.0164842)
(-4.34589e-19 1.32147e-18 -0.0164842)
(-2.80605e-19 4.63015e-19 -0.0164822)
(1.49799e-19 1.21777e-18 -0.0164781)
(-9.29862e-19 3.96028e-19 -0.0164719)
(-1.18028e-18 3.85331e-19 -0.0164637)
(-5.92012e-19 1.42213e-18 -0.0164535)
(-1.44137e-18 5.0209e-19 -0.0164413)
(-7.12597e-19 -5.18958e-19 -0.0164271)
(-4.67149e-19 -1.02803e-18 -0.0164109)
(6.89062e-19 -9.21711e-19 -0.0163929)
(1.63654e-18 3.98375e-19 -0.016373)
(6.84683e-19 -8.96847e-19 -0.0163513)
(9.84977e-19 -1.32972e-18 -0.0163278)
(9.36227e-19 -1.26341e-18 -0.0163026)
(-6.52024e-19 -1.81346e-19 -0.0162753)
(7.69405e-19 -1.14785e-18 -0.0162223)
(1.20149e-18 2.43143e-19 -0.0162503)
(7.23318e-19 -1.58341e-19 -0.0162761)
(-2.03373e-19 -1.85171e-19 -0.0163002)
(8.84444e-19 9.59934e-19 -0.0163226)
(1.41251e-18 7.11407e-19 -0.0163431)
(8.96954e-19 7.77741e-19 -0.0163617)
(9.19167e-19 6.66481e-19 -0.0163783)
(5.51147e-19 2.60532e-19 -0.016393)
(-2.11457e-20 1.00639e-18 -0.0164056)
(-1.79344e-18 -6.85761e-20 -0.0164162)
(-1.93253e-18 -5.53342e-19 -0.0164246)
(-4.34251e-19 -6.41734e-19 -0.016431)
(-5.25863e-19 -2.43995e-19 -0.0164353)
(-8.69096e-19 5.93795e-19 -0.0164374)
(-8.83299e-19 9.25062e-19 -0.0164374)
(-4.56794e-19 -6.40353e-19 -0.0164353)
(5.89837e-20 6.23216e-19 -0.016431)
(-1.32422e-18 -5.43946e-19 -0.0164246)
(-7.91144e-19 -1.00683e-19 -0.0164162)
(-8.16715e-19 3.848e-19 -0.0164056)
(-2.11111e-18 1.11919e-19 -0.016393)
(-1.00039e-18 -3.12369e-19 -0.0163783)
(-3.86685e-19 -1.55811e-18 -0.0163617)
(1.46427e-18 -1.25935e-18 -0.0163431)
(1.35543e-18 -1.14726e-18 -0.0163226)
(3.07146e-19 -3.62399e-19 -0.0163002)
(8.4299e-19 -1.01139e-18 -0.0162761)
(7.69819e-19 -1.95456e-18 -0.0162503)
(-1.58581e-20 -5.25066e-19 -0.0162223)
(7.97948e-19 -1.18043e-18 -0.0161679)
(1.406e-18 6.64321e-20 -0.0161965)
(1.00114e-18 -4.20976e-19 -0.0162229)
(1.6089e-19 5.21408e-19 -0.0162477)
(6.00931e-19 1.76978e-18 -0.0162706)
(1.11352e-18 1.03635e-18 -0.0162917)
(9.87117e-19 9.01981e-19 -0.0163108)
(7.60745e-19 7.50777e-19 -0.0163279)
(8.22947e-19 1.23373e-19 -0.016343)
(1.88839e-19 3.96453e-19 -0.016356)
(-1.97589e-18 -3.40611e-19 -0.0163669)
(-2.3435e-18 1.59083e-19 -0.0163756)
(-7.70105e-19 -1.36313e-18 -0.0163822)
(-2.5129e-19 -1.06522e-18 -0.0163866)
(-5.11207e-19 3.1494e-19 -0.0163888)
(-1.31638e-18 4.92512e-19 -0.0163888)
(-5.43591e-19 -3.30221e-19 -0.0163866)
(-2.24123e-21 2.54312e-19 -0.0163822)
(-1.63987e-18 -7.5852e-19 -0.0163756)
(-6.03694e-19 1.61924e-19 -0.0163669)
(-1.00663e-18 -3.3469e-19 -0.016356)
(-2.09511e-18 -1.17576e-19 -0.016343)
(-1.09872e-18 3.83168e-19 -0.0163279)
(-2.99975e-19 -1.10714e-18 -0.0163108)
(1.54797e-18 -1.07254e-18 -0.0162917)
(1.00194e-18 -2.50859e-18 -0.0162706)
(8.84871e-19 -4.91387e-19 -0.0162477)
(1.08188e-18 -6.88212e-20 -0.0162229)
(8.91936e-19 -1.71408e-18 -0.0161965)
(5.95543e-19 -2.73163e-19 -0.0161679)
(3.94061e-19 -7.5823e-19 -0.0161121)
(1.60062e-18 1.54524e-19 -0.0161413)
(1.41182e-18 -9.66135e-20 -0.0161684)
(6.69425e-19 8.53933e-19 -0.0161937)
(7.4134e-19 1.55599e-18 -0.0162171)
(6.88238e-19 1.46822e-18 -0.0162387)
(9.48016e-19 5.08647e-19 -0.0162583)
(5.88074e-19 6.18685e-19 -0.0162759)
(5.60762e-19 1.0158e-21 -0.0162914)
(5.13552e-19 -1.17682e-18 -0.0163048)
(-1.50315e-18 -1.74385e-18 -0.016316)
(-2.81914e-18 -5.86444e-19 -0.016325)
(-1.42386e-18 -1.0399e-18 -0.0163317)
(2.99802e-19 -7.54078e-19 -0.0163363)
(-8.52984e-20 4.49898e-19 -0.0163385)
(-1.40679e-18 1.9426e-19 -0.0163385)
(-5.74948e-19 6.7129e-19 -0.0163363)
(-3.69992e-19 3.73422e-19 -0.0163317)
(-1.45692e-18 -4.77253e-21 -0.016325)
(-3.18593e-19 1.06245e-18 -0.016316)
(-1.17144e-18 6.64502e-19 -0.0163048)
(-1.71368e-18 5.04187e-19 -0.0162914)
(-7.44035e-19 1.50389e-18 -0.0162759)
(1.13719e-19 5.2465e-19 -0.0162583)
(1.40702e-18 -7.14083e-19 -0.0162387)
(1.49254e-18 -1.72463e-18 -0.0162171)
(1.89923e-18 -1.74387e-20 -0.0161937)
(1.05181e-18 4.61895e-19 -0.0161684)
(1.1616e-18 -9.14151e-19 -0.0161413)
(7.89641e-19 -4.62673e-19 -0.0161121)
(6.14854e-20 3.56807e-20 -0.0160551)
(1.26819e-18 3.91158e-19 -0.0160848)
(1.5936e-18 -3.09596e-20 -0.0161124)
(1.10646e-18 8.91555e-19 -0.0161383)
(1.16761e-18 1.25765e-18 -0.0161623)
(6.3987e-19 8.90361e-19 -0.0161844)
(8.5302e-19 4.24381e-21 -0.0162044)
(8.35059e-19 -1.30984e-19 -0.0162224)
(-1.68439e-20 -2.12735e-19 -0.0162383)
(-6.39414e-20 -1.84022e-18 -0.016252)
(-1.12914e-18 -2.09322e-18 -0.0162635)
(-2.0064e-18 -1.30199e-18 -0.0162727)
(-1.3795e-18 7.16821e-20 -0.0162797)
(3.15614e-19 5.73991e-19 -0.0162843)
(-5.95686e-20 8.26205e-19 -0.0162866)
(-1.32412e-18 8.5783e-19 -0.0162866)
(-4.45045e-19 1.08756e-18 -0.0162843)
(-4.90286e-19 8.33956e-19 -0.0162797)
(-1.09455e-18 1.37665e-18 -0.0162727)
(5.95532e-20 2.07205e-18 -0.0162635)
(-1.10382e-18 2.1127e-18 -0.016252)
(-1.2025e-18 1.87139e-18 -0.0162383)
(-2.48146e-19 2.26693e-18 -0.0162224)
(3.01788e-20 2.14241e-18 -0.0162044)
(1.42051e-18 4.9129e-19 -0.0161844)
(2.53047e-18 -2.48888e-19 -0.0161623)
(2.35197e-18 3.85478e-19 -0.0161383)
(6.38088e-19 1.41047e-19 -0.0161124)
(1.19076e-18 -2.94716e-19 -0.0160848)
(8.16368e-19 -7.32617e-19 -0.0160551)
(1.7636e-19 2.97733e-19 -0.0159968)
(8.08974e-19 7.68107e-19 -0.0160271)
(1.73316e-18 7.45664e-20 -0.0160552)
(1.36768e-18 1.21417e-18 -0.0160816)
(1.17114e-18 1.02341e-18 -0.0161061)
(8.50393e-19 -4.55185e-19 -0.0161286)
(7.16352e-19 -4.78685e-19 -0.0161491)
(1.05066e-18 -7.95631e-19 -0.0161675)
(-1.8092e-19 5.33492e-20 -0.0161838)
(-3.50539e-19 -1.2938e-18 -0.0161978)
(-1.229e-18 -1.02298e-18 -0.0162096)
(-1.72744e-18 -1.08851e-18 -0.016219)
(-8.99099e-19 9.62393e-19 -0.0162261)
(4.64777e-19 6.11453e-19 -0.0162309)
(-4.81236e-21 1.1056e-18 -0.0162332)
(-1.37692e-18 1.5673e-18 -0.0162332)
(-6.57039e-19 7.72934e-19 -0.0162309)
(-3.66108e-19 3.3232e-19 -0.0162261)
(-6.84225e-19 1.42023e-18 -0.016219)
(3.78711e-20 1.02091e-18 -0.0162096)
(-1.19157e-18 2.17833e-18 -0.0161978)
(-1.02565e-18 2.78686e-18 -0.0161838)
(-1.79002e-19 2.24787e-18 -0.0161675)
(1.33816e-19 2.35311e-18 -0.0161491)
(1.71603e-18 1.51463e-18 -0.0161286)
(2.75243e-18 5.08326e-19 -0.0161061)
(1.84216e-18 3.1787e-19 -0.0160816)
(1.76173e-20 -5.42686e-19 -0.0160552)
(1.21109e-18 -3.4006e-19 -0.0160271)
(1.01863e-18 -6.87679e-19 -0.0159968)
(3.82673e-19 1.51879e-19 -0.0159374)
(5.12332e-19 8.25715e-19 -0.0159682)
(1.7292e-18 -9.52154e-22 -0.0159968)
(1.87128e-18 8.45597e-19 -0.0160236)
(8.58544e-19 7.07657e-19 -0.0160486)
(4.97368e-19 -3.63917e-19 -0.0160716)
(8.44993e-19 -6.17868e-19 -0.0160925)
(1.30325e-18 -1.96441e-19 -0.0161113)
(-1.19577e-19 1.5472e-19 -0.0161279)
(-6.31631e-19 -1.2241e-18 -0.0161422)
(-1.12457e-18 -1.2194e-18 -0.0161542)
(-1.20303e-18 -8.56002e-19 -0.0161638)
(-8.47721e-19 1.1154e-18 -0.0161711)
(3.01044e-19 2.44675e-19 -0.016176)
(3.79327e-19 7.65248e-19 -0.0161784)
(-1.62813e-18 1.22175e-18 -0.0161784)
(-1.14206e-18 1.17073e-18 -0.016176)
(-2.99521e-19 2.63046e-19 -0.0161711)
(-8.5785e-19 7.78122e-19 -0.0161638)
(8.52605e-21 -2.10406e-19 -0.0161542)
(-5.54325e-19 1.29743e-18 -0.0161422)
(-8.60583e-19 2.71899e-18 -0.0161279)
(-1.68007e-19 2.55403e-18 -0.0161113)
(4.74944e-20 1.99148e-18 -0.0160925)
(1.60569e-18 1.40938e-18 -0.0160716)
(2.48726e-18 4.34779e-19 -0.0160486)
(1.39862e-18 7.30559e-19 -0.0160236)
(4.72748e-19 6.4899e-19 -0.0159968)
(1.43933e-18 -4.79714e-19 -0.0159682)
(1.22125e-18 -4.7486e-19 -0.0159374)
(4.90882e-19 6.30324e-20 -0.0158769)
(7.32193e-19 9.73018e-20 -0.0159081)
(1.35347e-18 2.68284e-19 -0.0159372)
(2.63212e-18 -8.87201e-20 -0.0159645)
(1.28928e-18 4.58509e-19 -0.0159899)
(4.65383e-21 2.86129e-19 -0.0160133)
(7.01768e-19 -6.28489e-19 -0.0160346)
(1.28105e-18 5.70514e-19 -0.0160537)
(-2.67978e-19 -3.37148e-19 -0.0160706)
(-7.7389e-19 -2.15985e-18 -0.0160852)
(-9.88307e-19 -1.70653e-18 -0.0160975)
(-7.30682e-19 -9.29717e-19 -0.0161073)
(-4.95423e-19 3.14997e-19 -0.0161147)
(1.87889e-19 6.99027e-19 -0.0161197)
(4.4747e-19 4.79438e-19 -0.0161222)
(-1.37146e-18 9.44581e-19 -0.0161222)
(-1.18786e-18 1.61546e-18 -0.0161197)
(-6.24383e-19 4.46317e-19 -0.0161147)
(-1.08493e-18 3.59983e-19 -0.0161073)
(2.70993e-19 6.72703e-19 -0.0160975)
(-1.08339e-19 1.02165e-18 -0.0160852)
(-5.02923e-19 2.32633e-18 -0.0160706)
(-2.45092e-19 2.71746e-18 -0.0160537)
(-2.10006e-19 1.726e-18 -0.0160346)
(1.59048e-18 1.27347e-18 -0.0160133)
(2.43357e-18 1.15901e-19 -0.0159899)
(1.74901e-18 9.13543e-19 -0.0159645)
(1.10642e-18 2.65744e-18 -0.0159372)
(1.23467e-18 1.61405e-20 -0.0159081)
(1.27644e-18 -2.87475e-19 -0.0158769)
(2.69522e-19 -3.31644e-20 -0.0158153)
(1.00088e-18 -3.39134e-19 -0.015847)
(9.67292e-19 5.01523e-19 -0.0158764)
(2.69094e-18 -4.25207e-19 -0.0159042)
(1.89921e-18 3.67228e-19 -0.01593)
(2.60321e-20 2.0394e-20 -0.0159537)
(4.15215e-19 3.66113e-19 -0.0159754)
(1.38941e-18 8.0725e-19 -0.0159949)
(-8.38811e-19 -7.77758e-19 -0.0160121)
(-9.57053e-19 -2.78966e-18 -0.016027)
(-5.75616e-19 -1.84346e-18 -0.0160395)
(-3.71933e-19 -9.29074e-19 -0.0160495)
(-1.20168e-19 4.92824e-20 -0.0160571)
(2.89985e-19 6.30784e-19 -0.0160621)
(4.74649e-19 3.43092e-20 -0.0160646)
(-1.2693e-18 7.68488e-19 -0.0160646)
(-1.49026e-18 1.352e-18 -0.0160621)
(-9.57289e-19 5.91785e-19 -0.0160571)
(-7.52808e-19 8.25311e-19 -0.0160495)
(7.21071e-19 1.71329e-18 -0.0160395)
(3.7988e-20 7.71915e-19 -0.016027)
(-2.88622e-19 1.9575e-18 -0.0160121)
(-5.23361e-19 2.17224e-18 -0.0159949)
(-1.41887e-19 2.23459e-18 -0.0159754)
(1.57654e-18 1.35778e-18 -0.0159537)
(2.37094e-18 -4.63319e-20 -0.01593)
(1.88548e-18 1.56999e-20 -0.0159042)
(9.73605e-19 2.71588e-18 -0.0158764)
(1.07971e-18 9.0882e-19 -0.015847)
(1.37708e-18 2.73529e-19 -0.0158153)
(-4.9447e-20 -2.84551e-19 -0.0157527)
(9.11045e-19 -1.50798e-19 -0.0157847)
(9.56907e-19 2.63991e-19 -0.0158146)
(2.22696e-18 4.88808e-19 -0.0158427)
(2.2059e-18 4.83278e-19 -0.0158689)
(4.91912e-19 -1.93219e-19 -0.0158931)
(1.7489e-19 1.31998e-18 -0.0159151)
(1.21851e-18 8.91146e-20 -0.0159349)
(-1.29522e-18 -1.32231e-18 -0.0159524)
(-1.41247e-18 -2.12475e-18 -0.0159675)
(-3.14028e-19 -1.75038e-18 -0.0159802)
(3.65057e-20 -1.05058e-18 -0.0159904)
(1.44414e-19 2.84e-20 -0.0159981)
(2.29655e-19 -5.60149e-19 -0.0160033)
(5.13662e-19 -9.64695e-19 -0.0160058)
(-9.69296e-19 5.07584e-19 -0.0160058)
(-1.46867e-18 1.09552e-18 -0.0160033)
(-8.91169e-19 9.97547e-19 -0.0159981)
(-2.95523e-19 2.04255e-18 -0.0159904)
(5.91116e-19 2.14988e-18 -0.0159802)
(-2.08131e-19 3.39338e-19 -0.0159675)
(-1.28164e-19 1.62975e-18 -0.0159524)
(-6.79123e-19 8.65648e-19 -0.0159349)
(4.51355e-20 2.38912e-18 -0.0159151)
(1.28523e-18 1.29492e-18 -0.0158931)
(2.08916e-18 -3.57127e-20 -0.0158689)
(1.92466e-18 -6.00851e-19 -0.0158427)
(7.374e-19 1.70352e-18 -0.0158146)
(1.16042e-18 1.41564e-18 -0.0157847)
(1.34927e-18 7.48868e-19 -0.0157527)
(-2.50249e-19 -5.38694e-19 -0.0156891)
(4.85822e-19 5.07439e-19 -0.0157215)
(9.58343e-19 4.8218e-19 -0.0157518)
(1.80242e-18 1.37478e-18 -0.0157803)
(2.31695e-18 3.27491e-20 -0.0158068)
(9.19982e-19 -3.12702e-19 -0.0158313)
(3.14043e-19 7.80165e-19 -0.0158537)
(1.02289e-18 -6.97286e-19 -0.0158738)
(-1.27537e-18 -1.65408e-18 -0.0158915)
(-1.73368e-18 -1.20513e-18 -0.0159069)
(-5.54759e-19 -5.60843e-19 -0.0159198)
(2.61414e-19 -4.92755e-19 -0.0159302)
(2.93302e-20 3.54582e-19 -0.015938)
(-1.01554e-20 -1.67352e-18 -0.0159432)
(9.31121e-19 -1.45868e-18 -0.0159458)
(-5.57789e-19 3.29483e-19 -0.0159458)
(-1.47973e-18 7.55751e-19 -0.0159432)
(-5.85261e-19 7.97188e-19 -0.015938)
(3.2392e-20 2.57003e-18 -0.0159302)
(-5.04796e-20 1.29892e-18 -0.0159198)
(-2.9658e-19 4.12416e-19 -0.0159069)
(-1.84915e-19 1.60704e-18 -0.0158915)
(-8.67472e-19 -9.77716e-20 -0.0158738)
(2.74775e-19 1.93989e-18 -0.0158537)
(1.13246e-18 1.43536e-18 -0.0158313)
(2.10865e-18 3.69967e-19 -0.0158068)
(2.24322e-18 -2.03088e-19 -0.0157803)
(8.2863e-19 1.34246e-18 -0.0157518)
(1.15356e-18 1.41763e-18 -0.0157215)
(1.04264e-18 7.90327e-19 -0.0156891)
(-6.91936e-19 3.51036e-20 -0.0156245)
(2.48329e-19 1.15586e-18 -0.0156573)
(4.59322e-19 1.37119e-18 -0.0156879)
(1.58278e-18 1.21833e-18 -0.0157168)
(2.50124e-18 -8.83689e-19 -0.0157437)
(1.14303e-18 -3.14951e-20 -0.0157685)
(6.20195e-19 -3.51148e-19 -0.0157912)
(8.11011e-19 -8.78694e-19 -0.0158115)
(-1.18649e-18 -1.54526e-18 -0.0158296)
(-1.51143e-18 -7.39226e-19 -0.0158451)
(-6.22923e-19 2.32707e-19 -0.0158582)
(2.09444e-19 -6.5073e-22 -0.0158688)
(-3.17916e-19 -2.18511e-19 -0.0158767)
(-4.49191e-19 -1.98527e-18 -0.015882)
(1.34638e-18 -1.92112e-18 -0.0158847)
(-2.10845e-19 -2.94964e-19 -0.0158847)
(-1.4705e-18 4.12842e-19 -0.015882)
(-2.2511e-19 3.39957e-19 -0.0158767)
(-1.60354e-19 1.4113e-18 -0.0158688)
(-6.00102e-19 4.92046e-19 -0.0158582)
(-3.51716e-20 5.79549e-19 -0.0158451)
(-5.03828e-19 1.142e-18 -0.0158296)
(-8.10017e-19 -2.09437e-19 -0.0158115)
(7.20274e-19 1.60196e-18 -0.0157912)
(1.16457e-18 1.46657e-18 -0.0157685)
(2.21179e-18 8.11237e-19 -0.0157437)
(2.42566e-18 9.57241e-20 -0.0157168)
(8.704e-19 1.34502e-18 -0.0156879)
(8.58683e-19 1.16453e-18 -0.0156573)
(5.26081e-19 3.98519e-19 -0.0156245)
(-1.30256e-18 1.10836e-18 -0.015559)
(3.71028e-19 1.10702e-18 -0.0155921)
(3.92726e-21 1.93931e-18 -0.0156231)
(8.41282e-19 1.09765e-18 -0.0156523)
(2.77848e-18 -1.54409e-18 -0.0156795)
(1.38762e-18 5.30212e-20 -0.0157046)
(6.65938e-19 -8.75252e-19 -0.0157276)
(9.44991e-19 -1.05655e-18 -0.0157482)
(-9.72903e-19 -1.85896e-18 -0.0157665)
(-1.41579e-18 -3.94219e-19 -0.0157823)
(-6.15252e-19 2.40655e-19 -0.0157956)
(5.47416e-20 -5.71092e-19 -0.0158062)
(-6.28944e-19 -9.76176e-19 -0.0158143)
(-7.48878e-19 -1.53047e-18 -0.0158197)
(1.60771e-18 -1.98355e-18 -0.0158224)
(2.21653e-19 -9.68028e-19 -0.0158224)
(-1.38529e-18 4.10093e-19 -0.0158197)
(-2.59182e-19 4.07813e-20 -0.0158143)
(-2.23899e-19 5.56481e-19 -0.0158062)
(-4.64627e-19 8.01125e-19 -0.0157956)
(3.886e-20 6.98464e-19 -0.0157823)
(-7.88576e-19 7.47682e-19 -0.0157665)
(-4.31382e-19 2.00784e-19 -0.0157482)
(1.07361e-18 1.40023e-18 -0.0157276)
(1.02619e-18 1.03703e-18 -0.0157046)
(2.0928e-18 5.8945e-19 -0.0156795)
(2.15838e-18 -3.6612e-19 -0.0156523)
(4.181e-19 5.82826e-19 -0.0156231)
(4.14104e-19 8.85633e-19 -0.0155921)
(-7.42309e-20 -5.49272e-19 -0.015559)
(-1.44858e-18 1.68103e-18 -0.0154926)
(4.16852e-19 9.11135e-19 -0.015526)
(2.67632e-19 1.74025e-18 -0.0155573)
(-1.28355e-19 1.30217e-18 -0.0155868)
(2.21416e-18 -1.00093e-18 -0.0156144)
(1.70346e-18 3.13577e-19 -0.0156398)
(5.08321e-19 -8.31545e-19 -0.015663)
(7.42611e-19 -1.04827e-18 -0.0156839)
(-5.23442e-19 -2.41277e-18 -0.0157024)
(-9.72501e-19 -4.00172e-19 -0.0157184)
(-8.68892e-19 2.25825e-19 -0.0157318)
(-1.7355e-20 -1.8999e-18 -0.0157427)
(-6.38152e-19 -9.5431e-19 -0.0157508)
(-9.95705e-19 -8.2412e-19 -0.0157563)
(1.56693e-18 -1.53371e-18 -0.015759)
(6.03274e-19 -9.89263e-19 -0.015759)
(-1.19558e-18 8.81819e-19 -0.0157563)
(-1.46111e-19 4.91205e-19 -0.0157508)
(7.9404e-20 1.21829e-18 -0.0157427)
(-4.33365e-19 1.05319e-18 -0.0157318)
(-3.65693e-20 7.74609e-19 -0.0157184)
(-9.00015e-19 5.40979e-19 -0.0157024)
(-1.25455e-19 3.8116e-19 -0.0156839)
(1.04689e-18 8.53499e-19 -0.015663)
(6.23719e-19 1.88257e-19 -0.0156398)
(1.53015e-18 -4.25403e-19 -0.0156144)
(1.6986e-18 -8.79162e-19 -0.0155868)
(-1.3146e-20 -3.20032e-19 -0.0155573)
(4.09348e-20 6.57109e-19 -0.015526)
(-1.49346e-19 -1.18224e-18 -0.0154926)
(-1.49563e-18 2.02097e-18 -0.0154253)
(2.62961e-19 7.4018e-19 -0.015459)
(7.23107e-19 1.30312e-18 -0.0154906)
(-1.41647e-19 6.11009e-19 -0.0155204)
(1.49811e-18 5.48179e-20 -0.0155483)
(1.57461e-18 7.39719e-19 -0.015574)
(5.7947e-19 -1.38535e-18 -0.0155975)
(5.41091e-19 -1.09419e-18 -0.0156186)
(-5.51392e-19 -2.12289e-18 -0.0156373)
(-3.38913e-19 -1.28637e-18 -0.0156535)
(-1.21769e-18 -1.79981e-19 -0.0156671)
(-2.09049e-19 -2.16534e-18 -0.0156781)
(-3.12145e-19 -5.7494e-19 -0.0156863)
(-1.15163e-18 -2.63016e-19 -0.0156918)
(1.52726e-18 -6.42189e-19 -0.0156946)
(1.05454e-18 -5.42513e-19 -0.0156946)
(-9.46903e-19 7.93631e-19 -0.0156918)
(4.27319e-20 1.50191e-18 -0.0156863)
(8.82131e-20 1.40242e-18 -0.0156781)
(-7.20447e-19 3.80641e-19 -0.0156671)
(-1.93197e-19 6.76804e-19 -0.0156535)
(-1.09921e-18 1.66887e-19 -0.0156373)
(6.4927e-20 5.40461e-19 -0.0156186)
(9.91826e-19 8.37564e-19 -0.0155975)
(3.2403e-19 8.17768e-22 -0.015574)
(1.35664e-18 -9.79345e-19 -0.0155483)
(1.43549e-18 -1.4505e-18 -0.0155204)
(-2.00147e-19 -8.00367e-19 -0.0154906)
(-1.67513e-19 4.72938e-19 -0.015459)
(1.68415e-20 -1.39152e-18 -0.0154253)
(-1.35557e-18 1.88496e-18 -0.0153571)
(-3.93625e-20 5.18343e-19 -0.0153912)
(8.5582e-19 9.7632e-19 -0.0154231)