/*--------------------------------*- C++ -*----------------------------------*\
  =========                 |
  \\      /  F ield         | OpenFOAM: The Open Source CFD Toolbox
   \\    /   O peration     | Website:  https://openfoam.org
    \\  /    A nd           | Version:  7
     \\/     M anipulation  |
\*---------------------------------------------------------------------------*/
FoamFile
{
    version     2.0;
    format      ascii;
    class       surfaceScalarField;
    location    "48000";
    object      phi;
}
// * * * * * * * * * * * * * * * * * * * * * * * * * * * * * * * * * * * * * //

dimensions      [0 3 -1 0 0 0 0];

internalField   nonuniform List<scalar> 
28140
(
4.27574e-23
4.32773e-23
-8.41713e-23
-4.83464e-24
4.01382e-23
1.21992e-23
1.62295e-23
4.78082e-23
3.25153e-23
-2.14761e-23
7.22054e-23
3.32308e-23
-4.07396e-23
1.23456e-22
4.12891e-23
-6.55041e-23
8.68796e-23
4.16322e-23
-1.1748e-22
9.75719e-23
4.10571e-23
-1.56279e-22
-5.46707e-23
4.83556e-23
-1.93526e-22
-1.87285e-23
1.16659e-22
-1.32891e-22
8.86258e-23
1.37479e-22
-9.65649e-23
9.75557e-23
5.783e-23
-8.11851e-23
8.30591e-23
6.40519e-23
-4.73595e-23
8.0852e-23
5.68117e-23
8.08491e-24
1.78526e-23
4.43722e-23
-4.60049e-24
8.90298e-24
3.74654e-23
-5.79264e-23
5.14568e-23
-6.36862e-24
-5.56833e-23
3.36196e-23
1.35088e-23
-9.64694e-24
3.1121e-23
1.24079e-23
-3.42013e-23
-4.63461e-23
2.20639e-23
-6.04171e-23
-2.28368e-23
6.0631e-23
-5.19351e-23
5.16153e-23
4.9509e-23
-3.10311e-23
5.18372e-23
6.54514e-23
-4.08011e-23
1.34956e-23
1.86185e-23
-3.69629e-23
2.12044e-22
1.21993e-23
2.31916e-23
1.34938e-22
-5.43899e-23
1.88701e-23
1.40981e-22
-7.43113e-23
7.13753e-23
1.89927e-22
-8.28352e-23
4.577e-23
7.00283e-23
-1.13059e-22
-6.91475e-24
1.44808e-22
-8.65682e-23
-1.09919e-24
-5.41351e-23
1.51284e-22
4.0193e-23
-1.66086e-23
4.28854e-23
-9.67063e-23
6.15608e-23
6.88807e-23
4.36048e-23
5.72341e-23
5.67365e-23
6.35498e-23
9.9441e-23
3.31367e-23
7.69188e-23
7.80931e-23
4.67738e-23
8.08744e-23
4.53845e-23
9.25298e-23
4.19904e-23
1.3803e-22
-4.94336e-23
2.23973e-22
1.25994e-22
1.76279e-22
1.14691e-22
5.82021e-23
8.32638e-23
7.34247e-23
5.25129e-25
9.96603e-23
-6.53271e-23
8.29679e-23
1.1241e-22
1.20144e-22
7.75851e-23
6.97462e-23
6.77952e-23
2.15683e-23
3.87891e-23
-3.35113e-23
-2.59082e-23
-5.16589e-23
9.80206e-23
-4.69685e-23
-1.16951e-23
-8.81351e-23
7.92986e-23
-1.03331e-23
1.25314e-22
-1.52165e-23
8.7899e-23
-1.03179e-23
1.28283e-22
3.20622e-23
1.16161e-22
6.4024e-23
1.44538e-22
1.96487e-23
2.38526e-22
-4.9159e-23
-9.26792e-23
1.29901e-22
7.41017e-23
6.6971e-23
-9.08343e-23
8.39908e-23
1.60783e-22
8.04821e-23
1.80217e-22
1.2736e-23
1.48023e-22
1.7057e-22
1.76597e-22
8.40653e-23
1.03273e-22
8.71993e-23
1.26909e-22
1.40344e-22
1.6982e-22
1.89134e-22
1.33454e-22
-9.39621e-23
2.17494e-23
-3.29785e-23
1.20091e-22
1.64941e-22
1.84152e-22
1.45049e-22
9.37361e-23
-1.59561e-23
3.96472e-24
-9.0186e-24
5.14938e-23
4.37065e-23
8.7757e-23
1.49739e-23
7.8348e-23
-2.85953e-23
5.72769e-23
6.53551e-24
3.37862e-23
-3.5737e-23
6.04833e-23
2.83549e-23
1.72719e-22
5.63739e-23
1.77927e-22
7.58511e-23
2.21461e-23
1.45181e-22
-2.44993e-23
1.27528e-22
1.02301e-23
1.58739e-22
8.13309e-24
2.69979e-23
-2.52071e-23
8.44339e-23
-2.38015e-23
1.62308e-22
-1.60115e-23
-5.93919e-23
1.31433e-22
1.83773e-22
1.97095e-22
-6.7577e-23
1.86617e-22
1.6239e-22
6.04059e-23
9.96932e-23
1.01278e-22
1.87723e-22
1.02738e-22
1.52769e-22
9.42253e-23
1.29031e-22
1.4423e-22
2.02763e-22
1.19436e-22
2.55315e-22
1.17531e-22
1.84019e-22
2.92297e-23
1.38391e-22
3.01552e-23
1.53905e-22
8.35932e-23
1.64151e-22
5.99277e-23
9.99225e-23
3.44208e-23
4.59015e-23
2.16935e-23
4.46012e-23
3.23436e-23
7.22069e-23
6.65774e-24
6.15404e-23
-4.41678e-23
6.94304e-23
2.84225e-23
1.29415e-22
6.70519e-23
8.0851e-23
-1.71002e-23
4.49405e-23
-1.30811e-22
5.33692e-23
4.98375e-23
1.46737e-22
1.7828e-22
1.25107e-22
9.12289e-23
8.19892e-23
8.40115e-23
2.52243e-23
2.61619e-23
3.04066e-23
1.03768e-22
3.68492e-23
1.18889e-22
-2.33918e-23
-3.83578e-23
1.20026e-22
1.37394e-22
1.45595e-22
-1.11256e-22
1.22101e-22
1.68026e-22
1.47949e-22
1.55448e-22
6.97339e-23
1.70421e-22
7.5296e-23
1.87836e-22
1.29642e-22
9.69751e-23
1.96868e-22
1.72062e-22
4.74777e-23
1.54457e-22
7.53999e-23
1.68584e-22
4.71163e-23
2.01628e-22
4.31121e-23
2.04557e-22
1.34113e-23
2.03295e-22
5.05039e-24
1.08485e-22
2.13411e-23
5.36224e-23
3.95495e-23
5.55472e-24
3.28209e-23
7.41746e-23
1.5224e-23
6.9423e-23
1.50544e-23
7.38339e-23
-9.54067e-24
6.46046e-23
3.6656e-23
9.72801e-23
-1.67919e-23
1.11481e-22
-2.14752e-23
9.59637e-23
5.41326e-23
9.12921e-23
1.66035e-22
-4.61717e-24
3.92903e-23
-7.00008e-23
8.3641e-23
-1.62123e-23
4.06657e-23
-1.93527e-23
8.16684e-23
1.61418e-23
1.01222e-22
1.15554e-23
7.43836e-24
7.58569e-23
1.02793e-22
1.13366e-22
-9.7755e-23
1.18543e-22
1.26258e-22
1.36198e-22
1.45697e-22
7.13765e-23
6.99945e-23
3.6149e-24
7.14692e-23
1.48278e-22
1.86616e-22
1.51655e-22
1.83977e-22
8.47869e-23
2.48898e-22
7.6038e-23
2.16883e-22
6.67997e-23
2.14387e-22
3.8024e-23
2.30872e-22
-7.53536e-23
8.91969e-23
-4.26897e-23
8.72267e-23
-2.74183e-23
5.9974e-23
9.60608e-23
1.59255e-22
2.34145e-23
1.4725e-22
1.98451e-23
8.24884e-23
-3.03196e-24
8.05281e-23
1.75282e-23
1.71777e-22
1.74214e-23
1.94555e-22
-1.73682e-23
1.9834e-22
-2.91654e-23
1.28567e-22
1.49654e-23
5.16557e-23
1.40853e-22
8.84706e-23
8.36389e-23
-3.99243e-23
8.36058e-23
-5.40708e-24
7.84019e-23
7.93651e-24
8.27796e-23
5.13016e-23
6.6688e-23
6.35792e-23
7.2221e-23
2.97546e-23
6.71304e-23
7.92659e-23
-8.26981e-23
1.27937e-22
1.13757e-22
9.93538e-23
2.04855e-22
7.18337e-23
1.48004e-22
2.42431e-23
1.34849e-22
1.20877e-22
7.60493e-23
2.14866e-22
6.78679e-23
5.41292e-23
1.16617e-22
8.08093e-23
1.83186e-22
5.62936e-23
2.21391e-22
-8.53015e-23
1.02428e-22
-7.52038e-23
9.52002e-23
-7.68446e-23
1.32049e-22
4.49649e-23
1.9896e-22
7.81879e-23
1.19993e-22
-2.87492e-23
1.62855e-23
1.29673e-23
3.56406e-23
7.18238e-23
4.72465e-24
5.10885e-23
9.52009e-23
3.568e-23
1.15605e-22
-9.8985e-23
9.46114e-23
-8.69602e-23
1.05421e-22
4.41065e-23
1.62962e-22
3.05627e-23
7.04524e-23
1.18495e-22
8.47228e-23
1.15013e-22
3.38338e-23
8.73749e-23
6.66215e-23
8.207e-23
1.29785e-22
2.27806e-23
8.12274e-23
1.22473e-22
-4.76306e-24
4.81529e-23
1.17332e-22
-7.22889e-23
1.83457e-22
2.39937e-22
4.3552e-23
1.08354e-22
7.9558e-23
1.31746e-22
-5.27896e-24
9.75962e-23
6.16798e-23
2.48597e-22
2.45004e-22
3.18966e-22
1.12411e-22
2.0207e-22
1.00902e-22
1.66573e-22
-2.28502e-23
1.16649e-22
-9.21283e-23
2.03674e-22
-6.51604e-23
8.75857e-23
-3.41984e-23
1.23474e-22
-1.12449e-23
1.77948e-22
4.50278e-26
1.28951e-22
-2.58688e-23
6.93973e-23
-1.52962e-23
1.33779e-22
1.24671e-22
1.90788e-22
7.12321e-23
1.36567e-22
3.34397e-23
5.47062e-23
-9.73938e-23
-2.24989e-23
-5.69305e-23
9.09934e-23
1.31717e-24
1.20753e-22
6.34462e-23
3.72234e-23
7.66751e-23
1.0083e-22
1.34618e-22
2.24097e-22
1.08975e-22
1.30823e-22
4.83969e-23
2.02161e-23
2.15314e-23
1.26011e-22
1.69625e-22
-3.39045e-23
1.11858e-22
1.0671e-22
-7.02271e-23
6.82959e-23
8.65481e-23
8.93595e-23
1.32538e-22
6.55844e-23
1.46836e-22
6.62733e-23
7.87231e-23
9.52239e-23
2.20183e-22
1.79785e-22
2.06578e-22
1.007e-22
2.3569e-22
6.09113e-23
2.22633e-22
3.07326e-23
1.33452e-22
-1.54323e-22
9.17318e-23
-4.92077e-23
2.76595e-22
-5.12135e-24
2.86691e-22
-3.85027e-23
1.93582e-22
-3.7319e-23
1.13322e-22
-1.10309e-23
9.68014e-23
1.89591e-23
1.61746e-22
6.85719e-23
1.53115e-22
2.89369e-23
1.65721e-22
-1.86152e-23
3.10869e-23
-3.25407e-23
-1.96974e-25
-3.68551e-23
9.74737e-23
-4.33359e-23
1.19564e-22
1.19367e-22
1.5057e-22
1.49486e-22
8.023e-23
8.97897e-23
-1.22684e-22
5.16746e-23
2.10844e-23
1.21683e-22
2.10233e-23
-4.21366e-24
3.92042e-23
2.31715e-22
-6.64511e-23
7.9982e-23
1.00048e-22
-4.6887e-23
8.20806e-23
1.0864e-22
8.54174e-23
1.44744e-22
2.45032e-23
4.50377e-24
1.00598e-22
2.96652e-23
9.56034e-23
2.06227e-22
1.63306e-22
1.55429e-22
6.11559e-23
2.59576e-23
1.2086e-23
3.05175e-23
1.44913e-23
1.05442e-22
-5.67332e-23
1.58921e-22
-6.02431e-23
2.649e-22
-5.84494e-23
2.97491e-22
-8.75585e-23
1.87995e-22
-4.09845e-23
1.01069e-22
1.43016e-23
8.24697e-23
1.7217e-23
1.55735e-22
6.18214e-23
9.89509e-23
-3.29658e-23
1.83708e-22
-4.21453e-23
1.10724e-22
1.1992e-23
1.75865e-22
7.06339e-24
1.12697e-22
-1.10983e-23
1.30811e-22
6.39435e-23
3.77905e-22
7.18584e-23
1.222e-22
1.80915e-22
7.61017e-23
8.28641e-23
-5.47899e-23
1.138e-22
5.20599e-23
7.0728e-23
9.21394e-23
1.76306e-22
-1.41375e-22
3.65339e-23
-6.33994e-23
-8.12157e-23
1.18986e-22
4.22668e-23
1.84778e-23
2.88769e-23
2.093e-23
3.3108e-23
1.54227e-22
1.30709e-22
6.42524e-23
8.67807e-23
1.18291e-22
1.15539e-22
7.49491e-23
6.51576e-23
4.48742e-23
6.31318e-23
2.30755e-23
1.01088e-22
1.36557e-23
2.02321e-22
-5.75844e-23
5.26246e-23
-1.1078e-22
1.22515e-22
-1.28042e-22
2.00991e-22
-5.18275e-23
3.62396e-22
3.93107e-23
2.70125e-22
-1.18363e-23
2.29778e-22
9.74309e-23
2.50502e-22
-8.05846e-23
4.80886e-23
-2.38913e-23
1.05783e-22
-1.87972e-23
2.7774e-22
3.72663e-24
1.44886e-22
9.93031e-23
5.35517e-23
-4.03139e-23
-1.01928e-22
3.53828e-23
4.76169e-23
1.24287e-22
1.49296e-22
1.22046e-22
-2.73703e-23
1.28147e-22
4.85036e-23
8.02129e-23
7.47276e-23
7.23707e-23
-1.29705e-22
5.81958e-23
-4.81287e-23
-6.14665e-23
8.03974e-23
6.39954e-23
1.79291e-23
8.45802e-23
4.75303e-23
2.1943e-23
1.41037e-22
3.35956e-23
7.37634e-23
1.32099e-22
7.5292e-23
1.01986e-22
7.37164e-23
7.88878e-23
6.13327e-23
5.15904e-23
6.68326e-23
1.05551e-22
-6.29369e-23
1.046e-22
-3.92644e-23
2.76709e-23
-7.02685e-23
1.20719e-22
-6.83355e-23
1.98014e-22
-9.24827e-23
1.52113e-22
2.80051e-23
1.99749e-22
-1.91205e-23
3.8718e-23
3.01006e-23
1.57909e-22
-5.08386e-23
2.6046e-24
4.43045e-23
7.06151e-23
-7.32308e-23
9.49466e-23
-2.62606e-23
1.46105e-22
5.76931e-23
-9.39201e-24
3.84032e-23
-4.95128e-23
9.94697e-23
1.73576e-23
5.64783e-23
2.08819e-22
1.49766e-22
1.64491e-22
1.57106e-22
-1.10797e-23
7.21526e-23
-1.44104e-22
-7.18477e-23
-8.62157e-23
8.22484e-23
-4.53496e-23
-7.03693e-23
1.12226e-22
3.93814e-23
-1.24127e-23
-5.28524e-23
4.30239e-23
-1.87885e-23
1.55782e-22
1.8589e-22
7.00562e-23
-1.32807e-23
8.62316e-23
1.00258e-22
8.58579e-23
8.58612e-23
6.78334e-23
5.17637e-23
6.47669e-23
1.61388e-22
-9.74049e-23
3.66272e-23
-6.36298e-24
2.02343e-22
-3.67874e-23
1.49092e-22
-9.8653e-23
4.28165e-24
-7.22522e-23
1.53075e-22
-2.91564e-23
2.15932e-22
9.77088e-24
-4.76696e-24
-1.54042e-23
1.78974e-22
-2.48301e-23
-4.99687e-23
5.91827e-23
-2.05932e-23
-3.01531e-23
2.30156e-23
-9.2576e-23
-8.39497e-23
3.95602e-23
7.04952e-23
5.53488e-23
-5.15937e-23
1.99088e-22
1.0224e-22
3.51517e-23
-8.49232e-23
1.02775e-22
8.59275e-23
1.58017e-22
1.18025e-22
8.03167e-23
-1.07559e-22
9.38094e-24
-1.94534e-24
9.98084e-23
-7.77751e-23
-6.97234e-23
1.0406e-22
-1.44205e-23
1.65767e-23
-1.36818e-24
8.8561e-23
1.45486e-22
8.35679e-23
1.92271e-22
9.17693e-23
2.21906e-22
7.53955e-23
9.83083e-23
6.92034e-23
1.17825e-22
9.7062e-23
6.96797e-23
2.84393e-23
3.84336e-23
-5.47218e-23
9.68804e-23
-3.17761e-23
1.7943e-22
-9.19348e-23
-9.21073e-23
-6.91892e-23
-8.13373e-23
-4.97486e-23
1.31587e-22
-9.5401e-23
9.79904e-23
5.99326e-23
9.83652e-23
-7.37432e-23
2.40205e-23
-3.46692e-23
4.87869e-24
7.11662e-23
7.94794e-23
-4.72741e-23
-5.03468e-23
-3.10697e-23
-4.04657e-23
1.00151e-23
2.54754e-23
1.23267e-22
8.07825e-23
1.64175e-22
2.23955e-23
1.19135e-22
-7.05634e-23
9.96382e-23
1.12603e-22
8.47064e-23
1.12432e-22
1.00655e-22
-1.12422e-22
7.526e-23
1.67415e-23
1.18889e-22
7.86551e-23
-4.41939e-23
9.33376e-23
4.3992e-23
6.5986e-23
6.82263e-24
1.02268e-22
1.76332e-22
1.00319e-22
2.07707e-22
6.79709e-23
2.73813e-22
6.80759e-23
8.56818e-23
5.57507e-23
1.86725e-22
7.45338e-23
1.33612e-22
4.97248e-23
-1.1563e-22
-3.56788e-23
-2.75146e-22
-1.1535e-22
-1.76271e-22
-9.09807e-23
1.83464e-23
-1.63043e-23
-2.20362e-23
-6.04372e-23
1.59404e-22
-8.33687e-23
1.21537e-22
2.36929e-23
2.0381e-22
-7.05968e-23
1.18985e-22
-3.33532e-23
1.3118e-22
2.08554e-23
9.61446e-23
-3.6671e-23
2.90029e-22
-1.53239e-23
2.0529e-22
1.79424e-23
2.16904e-22
1.14541e-22
1.8875e-22
1.12693e-22
2.51426e-23
1.68647e-22
1.1497e-22
1.11717e-22
1.91575e-22
3.06591e-23
1.55177e-22
1.15234e-22
9.37551e-23
-5.44785e-23
-1.13922e-23
1.05869e-22
4.01818e-23
-6.22445e-23
1.01837e-22
4.20958e-23
9.82247e-23
6.90668e-24
1.10057e-22
1.59698e-22
1.30817e-22
2.00073e-22
1.24937e-23
1.46136e-22
7.80339e-23
-1.52748e-23
2.40024e-23
-9.1325e-23
2.62021e-23
1.01377e-22
-1.2429e-25
-5.91503e-23
-3.49578e-23
-3.24218e-23
-5.92757e-23
-7.67811e-23
-8.86231e-23
1.18851e-23
2.40552e-23
2.82665e-22
-6.99924e-23
2.60918e-22
-5.08983e-23
3.2385e-22
-8.01945e-24
2.14964e-22
-6.13455e-23
1.84253e-22
-4.42025e-23
2.73349e-22
5.3342e-23
3.55734e-22
-6.75902e-23
3.2229e-22
-7.14337e-24
2.54551e-22
3.8887e-24
2.76763e-22
6.25232e-23
3.54565e-22
1.2161e-22
2.71801e-22
1.65574e-22
2.88434e-22
1.0383e-22
3.02324e-22
2.36036e-23
1.54113e-23
6.83956e-23
6.13391e-23
1.02561e-25
2.5018e-23
7.81611e-23
1.30125e-23
-8.27076e-23
1.01751e-22
3.30543e-23
1.21806e-22
-2.51845e-23
1.02006e-22
2.06108e-22
9.23178e-23
1.55889e-22
8.6378e-25
-7.14849e-23
4.06241e-23
-5.85877e-23
5.18474e-23
-9.47137e-23
2.31944e-24
1.53175e-22
5.23598e-24
5.43614e-25
-3.57282e-23
-2.38848e-25
-4.12514e-23
-4.39702e-23
-1.06371e-23
1.84724e-22
1.47122e-24
1.61596e-24
-4.86817e-23
2.52967e-22
-8.80175e-23
3.74504e-22
-1.60918e-24
1.40185e-22
-4.0671e-23
-1.08678e-23
-2.28441e-23
2.09262e-22
4.98278e-23
1.08038e-22
-7.63596e-23
3.55828e-22
-1.43656e-23
3.77451e-22
1.68622e-23
3.24839e-22
3.39959e-23
3.37578e-22
1.35312e-22
4.26333e-22
1.62654e-22
2.74506e-22
5.22378e-23
1.71835e-22
3.55206e-23
1.56154e-24
6.17146e-23
5.91557e-23
-2.71211e-23
3.903e-23
8.31116e-23
1.30417e-23
-6.56576e-23
8.02324e-23
6.7443e-23
1.48954e-22
-8.15852e-23
1.04781e-22
4.03911e-23
4.18242e-23
1.95388e-22
1.81261e-24
1.60994e-22
2.90185e-23
-4.57956e-23
1.03902e-22
1.45566e-22
-8.42529e-24
-3.32835e-24
-3.92104e-24
-2.06917e-23
-4.99964e-23
-1.36631e-22
3.7486e-24
-9.37418e-23
-4.69459e-23
-1.53281e-23
5.31345e-23
1.33964e-22
-2.30622e-23
5.74368e-23
-1.41367e-22
7.84444e-23
-2.32881e-23
3.07937e-22
-3.57864e-24
2.41258e-22
-3.77422e-23
1.79542e-22
9.00561e-23
1.38727e-22
-6.31515e-23
2.40756e-22
-2.07827e-23
4.28317e-22
2.4431e-23
3.78647e-22
7.32405e-23
3.20783e-22
1.08362e-22
3.4984e-22
1.17515e-22
2.41907e-22
8.85617e-24
2.99657e-22
4.57474e-23
2.0895e-22
4.85653e-23
2.7945e-23
-2.10945e-23
3.65475e-23
7.47717e-23
-6.72203e-23
-4.57926e-23
3.21445e-23
-1.0232e-22
1.72796e-22
-9.97549e-24
1.15699e-22
-1.36195e-22
4.85869e-23
4.22504e-23
-3.28855e-23
1.62688e-23
5.00468e-23
-1.15605e-22
8.06494e-23
1.14709e-22
5.81611e-25
6.7831e-23
-5.12381e-23
-2.47619e-22
-3.71405e-23
-1.51329e-22
1.17046e-23
-9.75431e-23
-1.32008e-23
6.55501e-24
4.18723e-23
1.07296e-22
-2.5899e-23
1.22192e-22
-9.92343e-23
2.03178e-22
-3.34129e-23
2.3886e-22
-2.70034e-23
4.1927e-23
-3.72284e-23
1.57878e-22
1.03989e-22
3.85751e-22
-2.38748e-23
2.79129e-22
-1.45563e-23
3.07518e-22
1.29037e-23
3.85512e-22
8.65205e-23
2.61027e-22
1.02767e-22
2.68915e-22
1.27976e-22
2.02553e-22
-3.39578e-23
1.5616e-22
1.89878e-23
3.90048e-22
4.06396e-23
-4.77786e-23
-5.9553e-23
2.18552e-23
3.75251e-23
-1.20161e-22
-2.41993e-23
5.11198e-23
-1.07754e-22
1.29488e-22
-5.83101e-23
1.5307e-22
-1.38522e-22
4.38009e-23
1.04233e-22
-6.67953e-23
1.10996e-22
8.2454e-23
2.43028e-22
5.95409e-23
1.73257e-22
-5.11414e-23
-5.88948e-23
-3.56614e-23
-2.65852e-22
-2.64843e-23
-2.04467e-22
1.90186e-23
-1.04544e-22
1.57109e-23
-1.81009e-23
4.72438e-23
7.57436e-23
-2.28371e-23
-5.06045e-23
-8.94872e-23
6.96894e-23
-5.89268e-23
2.27672e-22
-1.61349e-23
2.57665e-22
6.05726e-24
3.55952e-22
9.00992e-23
4.75655e-22
-4.21695e-23
1.54211e-22
1.90589e-23
3.25586e-22
-5.93249e-24
2.56983e-22
9.45673e-23
4.00763e-22
1.02449e-22
1.9702e-22
1.36139e-22
1.16727e-22
2.13875e-23
4.52104e-24
-4.49854e-23
1.57161e-22
2.64263e-23
6.04361e-23
-4.6794e-23
3.15579e-24
1.73243e-23
-1.26416e-22
1.78304e-24
6.95032e-23
-1.30529e-22
1.25505e-22
-4.32712e-23
1.90542e-22
1.2539e-23
4.80368e-23
2.22007e-24
-3.034e-23
-6.39791e-23
7.42898e-23
1.39978e-22
3.18766e-23
-8.46891e-24
-8.51863e-23
6.87583e-23
-2.79416e-23
-1.29065e-22
-1.47065e-23
-2.46192e-22
3.19754e-23
-1.67878e-22
3.38087e-23
-2.4673e-23
3.36625e-23
-1.89146e-22
-1.16686e-23
-1.92424e-22
-6.59119e-23
1.3802e-22
-4.30072e-23
1.8811e-22
-7.50843e-24
2.04843e-22
3.19996e-23
5.27087e-22
3.52262e-23
4.48676e-22
-3.49942e-23
1.66336e-22
2.68666e-23
3.80839e-22
7.75698e-24
7.36316e-23
6.27977e-23
3.3172e-22
8.19858e-23
1.76075e-22
1.09446e-22
1.4293e-23
5.43342e-23
-1.80624e-24
-5.64037e-23
-3.31998e-23
2.47926e-23
8.49506e-23
-7.64828e-23
-1.66501e-23
2.50049e-23
-1.91149e-22
1.46898e-23
8.10402e-23
9.06142e-23
1.46536e-22
1.30325e-22
1.80041e-22
2.01721e-22
3.61646e-23
-1.5346e-22
-5.44894e-24
1.25974e-23
4.37803e-23
1.23139e-22
2.88614e-23
-3.45611e-23
-1.0537e-22
-8.58712e-23
-6.70958e-23
5.57547e-24
3.0902e-24
9.53665e-23
5.05816e-23
2.72826e-23
1.47698e-23
6.09004e-23
3.7243e-23
-1.96035e-22
2.83359e-23
-1.43143e-22
-5.64299e-23
4.74031e-23
-2.9096e-23
1.28097e-22
2.7627e-23
1.7521e-22
2.00017e-23
5.28002e-22
8.51783e-24
1.95347e-22
-8.16337e-24
1.79066e-22
7.10571e-24
3.82575e-22
3.44416e-23
1.24758e-22
4.9185e-23
3.1698e-22
5.70146e-23
1.77523e-22
1.08245e-22
1.55021e-22
4.47386e-23
-1.00746e-24
-2.24588e-23
-4.6777e-23
-8.22964e-24
-8.10404e-24
-9.18517e-23
-3.18111e-23
5.45048e-23
8.43825e-23
4.61188e-23
7.30868e-23
7.04654e-23
1.68865e-22
2.80929e-22
1.40814e-22
-5.91023e-24
4.19619e-23
-3.16995e-22
2.05078e-24
6.25157e-23
3.06478e-23
-5.28774e-23
1.0434e-23
1.13527e-23
-9.04384e-23
-1.4386e-23
-5.3691e-23
-3.74799e-23
-7.01345e-24
7.56156e-24
4.09778e-23
-2.32859e-23
-1.92529e-23
-6.76454e-23
5.04694e-23
-2.36319e-22
4.78298e-23
-3.46713e-22
-4.35059e-23
-4.13568e-23
-1.55219e-23
8.50407e-23
7.64402e-23
9.4049e-23
-2.4076e-23
1.14619e-22
1.91197e-23
8.79293e-23
5.38602e-24
2.01067e-22
-4.36325e-24
1.87445e-22
4.43277e-23
-1.83481e-23
5.66764e-23
2.76025e-22
4.51654e-23
1.38363e-22
8.87036e-23
1.14815e-22
2.92519e-23
4.86364e-23
-2.38386e-23
-1.50967e-23
8.23544e-24
-1.28829e-22
-2.66583e-22
-6.00844e-23
6.76844e-23
2.25288e-22
2.84919e-23
8.84728e-23
6.62779e-23
1.18851e-22
2.15278e-22
1.26954e-22
2.278e-22
7.35261e-23
-3.15819e-22
-8.76376e-24
-2.08206e-23
4.50116e-23
1.30884e-22
1.90467e-23
1.77423e-23
-8.96096e-23
-1.44697e-22
-5.07348e-23
1.37049e-22
5.98065e-24
1.61185e-22
2.16516e-23
-6.33743e-23
-3.70363e-23
5.03736e-23
3.63026e-23
-2.69613e-23
7.79927e-23
-1.54687e-22
-3.10436e-23
-1.41875e-22
-4.769e-24
5.28773e-23
6.34787e-23
7.25486e-24
-1.16763e-23
1.21124e-22
2.65235e-23
1.81152e-22
-1.01566e-23
1.81961e-22
-1.80192e-23
1.83103e-22
6.48781e-23
1.46111e-22
4.37234e-23
2.54113e-22
4.35657e-23
1.40958e-22
7.62256e-23
5.21309e-23
2.72719e-23
-1.60084e-22
-3.22744e-23
-1.16519e-22
4.04671e-24
-1.3994e-22
-4.03787e-22
-4.23655e-23
6.04491e-23
2.37768e-22
-1.22384e-23
1.03964e-22
6.99897e-23
1.08636e-22
1.89131e-22
8.16415e-23
2.31641e-22
9.80675e-23
-1.10361e-22
2.21817e-23
8.75392e-23
2.49567e-23
1.8103e-22
1.11876e-23
8.70718e-23
-6.88283e-23
-3.0941e-22
-5.18233e-23
9.25384e-23
-1.33553e-23
1.88759e-22
1.94563e-23
-3.39804e-22
-3.98975e-23
-9.48698e-23
2.61449e-23
-3.63308e-23
7.60138e-23
-1.3769e-22
-8.24719e-24
-5.58585e-23
-9.00506e-24
2.1982e-22
6.11829e-23
1.53943e-22
1.82902e-23
1.00736e-22
1.84694e-23
1.2671e-22
-2.41084e-24
1.64645e-22
-1.23778e-23
1.70093e-22
6.09541e-23
9.33719e-23
3.47511e-23
2.76843e-23
4.55086e-23
-7.91904e-23
5.61345e-23
-2.09339e-22
2.98942e-23
-1.23839e-22
-3.85654e-23
-2.68639e-22
-9.92092e-24
-1.70221e-22
-3.78318e-22
4.89185e-24
5.73472e-23
2.57052e-22
-3.68019e-23
9.25561e-23
9.17711e-23
1.0713e-22
1.78966e-22
5.07449e-23
1.87685e-23
1.09434e-22
4.1605e-23
2.85369e-23
2.20797e-22
1.46247e-23
-2.21109e-23
-2.69951e-23
1.48654e-22
-2.89599e-23
-3.49466e-23
-5.04291e-23
-7.97664e-23
-5.27512e-23
2.4118e-22
3.45569e-23
1.66197e-24
-3.21946e-23
1.70508e-22
1.51361e-23
1.32251e-22
8.01952e-23
1.87586e-23
1.81649e-23
-2.49947e-23
-1.75108e-23
-1.21825e-23
6.55161e-23
2.8622e-22
1.92439e-23
1.41378e-22
1.49688e-23
-1.46461e-22
3.82151e-24
1.14975e-22
-1.72058e-23
5.99732e-24
5.01779e-23
2.50583e-22
2.96712e-23
2.50639e-22
3.01373e-23
8.42823e-23
8.73825e-23
-4.4483e-23
1.53356e-23
-2.58859e-22
-2.65796e-23
-2.32849e-22
-1.42819e-23
-1.60718e-22
-2.53443e-22
3.22681e-23
4.48803e-23
2.41767e-22
-4.47518e-23
9.26026e-23
8.10422e-23
8.26115e-23
1.49788e-22
7.18803e-23
4.93831e-25
1.2202e-22
-1.79679e-23
5.19134e-24
9.3638e-23
3.2133e-23
-8.66035e-24
-4.29308e-23
-2.78467e-22
-3.86021e-23
-6.85685e-24
-2.52786e-23
-1.12092e-22
-7.16202e-23
1.12595e-22
4.78791e-23
8.48361e-23
-2.83177e-23
4.44727e-23
3.56962e-24
8.86611e-23
8.121e-23
2.15014e-22
1.69818e-23
5.91138e-23
4.98532e-24
-1.37307e-23
5.71095e-23
2.77221e-22
-8.78117e-24
-2.2188e-22
3.85748e-23
2.6073e-23
-7.28697e-24
1.40528e-22
6.61564e-24
1.63294e-22
4.40844e-23
1.69917e-22
1.55645e-23
2.36486e-22
-8.41904e-26
9.77253e-23
6.81847e-23
1.38905e-22
1.91514e-23
-1.76225e-22
-3.69958e-23
-3.43525e-22
-1.43805e-23
-1.53978e-22
-2.65716e-22
3.96248e-23
2.63837e-23
1.0251e-22
-5.62566e-23
9.34227e-23
2.24993e-22
6.92846e-23
1.23089e-22
8.03191e-23
2.56165e-22
1.29549e-22
1.28696e-22
-7.88019e-24
5.20206e-23
9.80488e-24
1.88441e-22
-2.69039e-23
-2.42568e-22
-4.65749e-23
-1.52141e-22
-1.15266e-23
7.6232e-23
-6.01939e-23
2.01937e-22
4.38416e-23
4.51403e-22
-2.79111e-23
7.95917e-23
1.361e-23
8.49847e-23
6.79059e-23
2.09007e-22
8.38985e-24
-7.79824e-23
2.29e-23
-3.23262e-23
1.71397e-23
1.24908e-22
9.58762e-24
2.0033e-23
5.02473e-23
-1.35056e-23
-5.47332e-24
-1.73971e-23
1.57789e-23
1.56224e-22
5.26908e-23
8.46212e-23
2.92981e-24
6.09724e-23
1.02657e-23
5.32974e-23
3.6496e-23
1.57116e-22
2.7651e-24
-2.92194e-22
-2.2058e-23
-8.31152e-23
-4.00704e-23
-1.22054e-22
6.34747e-23
5.10655e-23
2.80383e-23
1.4235e-22
-3.29488e-23
8.12715e-23
3.86528e-22
8.21714e-23
8.76942e-23
6.68966e-23
2.47546e-22
1.18399e-22
2.51592e-22
5.82399e-24
-2.04444e-24
-2.31305e-23
3.63743e-23
-2.25453e-23
-2.02441e-22
-1.67674e-23
1.06802e-22
-6.34107e-24
2.00385e-23
-3.61471e-23
3.7447e-23
1.54649e-23
2.15496e-22
-3.41729e-23
-7.56899e-23
2.50945e-23
3.48196e-23
4.08021e-23
-2.92394e-23
1.9641e-23
-6.15704e-23
1.82237e-23
-2.44821e-22
2.28062e-23
1.46061e-22
1.53639e-24
6.26815e-23
5.54947e-23
2.0299e-22
1.21429e-24
-1.41036e-22
3.98321e-24
1.4395e-22
4.63023e-23
6.27787e-23
1.16235e-23
4.82533e-23
1.55083e-23
3.13215e-23
4.34835e-24
-4.23914e-23
1.48334e-23
-8.58181e-23
-2.10454e-23
-3.47881e-23
-3.38178e-23
-2.62167e-22
2.36099e-22
2.11241e-23
2.47594e-23
1.25252e-22
-4.75471e-24
6.12552e-23
4.26908e-22
9.08953e-23
2.55967e-22
6.36859e-23
1.88093e-22
1.01223e-22
2.68685e-22
-1.37329e-24
1.36116e-22
-3.70866e-23
9.9075e-23
-2.47747e-23
-1.75126e-22
-4.17882e-24
1.07319e-22
-1.0648e-23
3.58205e-24
-2.42612e-23
1.04687e-22
-2.0657e-24
2.48632e-22
-3.20076e-23
-4.30175e-23
1.94922e-23
1.69709e-22
3.79436e-23
-8.41335e-24
9.27162e-24
1.43474e-22
3.4061e-23
5.78499e-24
3.00889e-23
3.7858e-22
1.67868e-24
1.82823e-22
3.66416e-23
2.03265e-22
2.12285e-23
-6.71039e-23
-7.41558e-25
1.1445e-22
5.07087e-23
2.06914e-22
6.66004e-24
6.51422e-23
1.90777e-23
8.81126e-24
1.12829e-23
-7.01655e-23
9.44369e-24
-9.47468e-23
-3.73729e-23
2.75964e-23
-3.54276e-24
1.11958e-24
1.11654e-22
-2.76686e-23
3.05985e-23
1.38102e-22
-2.13516e-25
7.08136e-23
4.22416e-22
7.911e-23
2.34981e-22
6.55422e-23
1.30578e-22
1.0949e-22
2.7084e-22
-1.68399e-23
-1.15354e-22
-3.14029e-23
9.85541e-23
-7.83319e-24
-1.57117e-22
-9.77727e-24
1.26498e-22
-7.11978e-24
6.44342e-23
-1.7065e-23
1.49922e-22
-1.61432e-23
8.88894e-23
-1.98259e-23
1.3936e-22
6.3293e-24
9.93411e-23
5.06278e-23
1.21378e-22
5.2234e-24
2.04472e-22
4.4252e-23
2.44799e-23
3.20811e-23
4.16901e-22
-8.37395e-24
8.67292e-23
2.24269e-23
2.51347e-22
3.36169e-23
1.21621e-22
-8.68968e-25
-4.77932e-23
3.20231e-23
1.41157e-22
8.93969e-26
1.00868e-22
-2.93474e-24
3.61911e-22
1.59235e-23
7.84198e-23
1.07084e-23
-9.19188e-23
-3.20897e-23
-1.43514e-22
-3.24292e-23
8.78426e-24
1.53238e-22
-3.71281e-23
2.35821e-23
1.76425e-22
1.36816e-23
6.27557e-23
5.9264e-22
7.26028e-23
1.9373e-22
7.29562e-23
9.38585e-23
7.91103e-23
1.00592e-22
-1.70888e-23
-2.90641e-22
-4.16209e-23
1.40731e-22
1.99611e-24
1.81504e-24
-4.42382e-24
1.65287e-22
-5.05375e-25
1.15659e-22
-2.25753e-23
1.67042e-22
-4.82937e-24
1.13699e-22
-2.96711e-23
1.62197e-22
1.15224e-23
2.15135e-22
5.72322e-23
2.77049e-22
-1.67746e-24
7.88346e-23
5.71842e-23
1.73197e-22
2.26191e-23
4.76814e-22
-6.32807e-24
2.17309e-22
2.12354e-23
2.50287e-22
8.10673e-24
1.39751e-22
8.08917e-24
-4.86697e-23
3.73563e-23
1.31763e-22
1.30031e-23
1.00065e-22
-1.10853e-23
1.17596e-22
6.77425e-24
-9.00879e-24
7.17601e-24
8.05356e-23
-1.67976e-23
3.44994e-23
-1.75981e-23
-1.37773e-22
5.79449e-23
-5.77624e-23
3.82575e-23
1.65341e-22
1.14309e-23
4.46266e-23
3.88678e-22
7.45474e-23
2.95658e-22
5.0279e-23
9.03078e-23
6.80684e-23
3.00303e-22
-9.1654e-24
-1.91723e-22
-4.03757e-23
2.34026e-22
-6.36563e-24
2.32266e-22
2.95209e-24
1.88496e-22
-1.20199e-24
1.45313e-22
-2.63986e-23
1.47049e-22
7.98827e-25
1.53462e-22
-3.06479e-23
8.57736e-23
1.94973e-23
3.41251e-22
4.17114e-23
2.65253e-22
1.24886e-23
1.28006e-22
6.36631e-23
1.88728e-22
1.54752e-23
5.59484e-22
-1.14957e-23
8.30532e-23
1.58438e-23
7.94107e-23
3.2203e-24
9.87074e-23
1.86434e-23
1.34408e-22
4.19351e-23
9.98712e-23
2.12214e-23
4.02565e-23
-1.97069e-23
-5.95153e-23
2.11096e-23
1.31196e-22
9.421e-25
-1.07322e-22
-1.97543e-23
1.15919e-22
-1.77975e-23
-1.52352e-22
-6.79267e-23
-5.51878e-23
4.66061e-23
1.84399e-22
2.04146e-24
4.14887e-23
4.25481e-22
7.26949e-23
5.0106e-22
4.50179e-23
1.33614e-22
6.38636e-23
3.04877e-22
1.59301e-23
-9.1747e-23
-2.90495e-23
2.59138e-22
-4.35978e-24
2.34352e-22
7.27981e-25
2.34074e-22
1.84347e-24
1.23002e-22
-2.79554e-23
1.79099e-22
2.81935e-24
3.45763e-22
-1.97138e-23
1.11129e-22
1.82175e-23
3.28056e-22
3.3361e-23
2.18872e-22
1.9033e-23
3.93641e-22
7.23882e-23
1.49533e-22
-3.7102e-24
3.36615e-22
-1.9583e-23
1.25381e-22
1.33863e-23
9.30553e-23
4.34143e-24
1.11995e-22
8.60773e-24
1.20208e-22
3.64255e-23
5.49971e-23
-1.77947e-24
1.16421e-23
-1.36784e-23
-3.4663e-23
1.02089e-23
9.33051e-23
1.54173e-23
-7.13122e-23
-2.44192e-23
1.591e-22
-3.05454e-23
6.91889e-23
-4.93874e-23
-4.05205e-23
6.02855e-23
5.75233e-22
2.04815e-24
3.4398e-23
2.57801e-22
7.56804e-23
7.07218e-22
3.61558e-23
2.77361e-22
5.26839e-23
3.25205e-22
2.07871e-23
-9.6246e-23
-2.75641e-23
6.8395e-23
-6.83744e-24
2.03779e-22
-1.28425e-24
1.81769e-22
2.58515e-24
2.83139e-22
-1.95199e-23
2.33751e-22
-6.13155e-24
3.24855e-22
-1.38434e-23
1.32523e-22
1.5099e-23
3.56892e-22
4.38915e-23
1.91839e-22
6.6349e-24
1.17305e-22
7.35573e-23
1.3692e-22
-3.47088e-24
3.88538e-22
-2.62365e-23
1.67761e-22
1.71739e-23
3.05193e-22
-2.75659e-24
1.0404e-22
5.19715e-24
-8.1345e-23
3.58539e-23
3.71623e-24
-4.72356e-25
1.63798e-22
-1.53912e-23
9.69149e-23
4.06232e-24
2.46522e-22
1.72349e-23
1.0032e-22
-1.69288e-23
7.26878e-23
-3.83693e-23
-1.00902e-22
-5.56921e-23
-3.04866e-23
5.35299e-23
7.73808e-22
-1.1153e-23
4.68247e-23
2.82758e-22
5.94368e-23
7.62506e-22
1.64637e-23
4.95187e-23
4.8544e-23
3.36913e-22
1.27067e-23
-7.4383e-23
-1.76144e-23
2.76227e-22
-4.03732e-24
2.1051e-22
1.57668e-24
3.5471e-22
2.40768e-24
3.11323e-22
-1.58587e-23
3.59701e-22
-1.06517e-23
3.45596e-22
-1.16262e-23
1.76739e-22
1.41401e-23
3.69686e-22
3.69942e-23
1.9597e-22
1.04135e-23
1.73884e-22
7.77652e-23
2.75419e-22
-1.03175e-23
1.8379e-22
-1.9776e-23
1.17739e-22
7.19951e-24
1.29368e-22
-9.62104e-24
9.48439e-23
1.95581e-24
-1.60793e-22
4.82535e-23
-5.7697e-23
4.69058e-24
-1.83994e-22
-1.36305e-23
9.02316e-23
3.58026e-24
2.3224e-22
2.67526e-23
8.44136e-23
-2.82879e-23
-1.2868e-23
-3.67466e-23
-8.33232e-23
-3.98275e-23
-2.60701e-23
2.48332e-23
5.75444e-22
-2.92807e-23
5.49221e-23
2.24757e-22
4.53076e-23
6.14973e-22
1.87054e-23
1.42968e-22
4.00491e-23
3.52982e-22
2.61904e-23
6.34688e-23
-1.94477e-23
3.42727e-22
2.63166e-24
3.83352e-22
-4.55497e-24
3.4222e-22
1.14927e-23
3.14642e-22
-1.89704e-23
3.72729e-22
-1.35833e-23
3.3117e-22
-1.0741e-23
2.44053e-22
1.1366e-23
3.80141e-22
3.12862e-23
1.77844e-22
2.01152e-23
1.71814e-22
6.89336e-23
2.15067e-22
-1.02766e-23
2.11979e-22
-2.52989e-23
2.42107e-22
9.91139e-24
1.06663e-22
-2.8574e-23
-1.80964e-22
8.93462e-24
-2.18521e-22
4.55171e-23
1.907e-22
1.94677e-23
8.25488e-23
-1.63666e-23
-1.05784e-22
9.51368e-24
3.32304e-22
9.36274e-24
7.82381e-23
-2.46528e-23
-1.62602e-23
-2.27971e-23
-1.32922e-22
9.52582e-24
-2.02406e-23
2.74864e-23
3.98901e-22
-2.92883e-23
6.00245e-23
4.24745e-22
2.93213e-23
6.36657e-22
1.62376e-23
1.74601e-22
3.53889e-23
2.62396e-22
3.31664e-23
2.11054e-22
-1.33604e-23
4.35284e-22
3.10444e-24
3.57746e-22
-1.00762e-23
3.11919e-22
1.81285e-23
3.30125e-22
-2.45994e-23
4.58248e-22
-1.75386e-23
3.08743e-22
-9.21212e-24
2.82311e-22
9.00961e-24
3.66893e-22
2.7574e-23
3.15703e-22
2.04525e-23
1.73453e-22
6.76679e-23
2.2509e-22
-8.16126e-24
-3.74235e-24
-3.3358e-23
1.92452e-22
-3.01893e-24
9.91803e-23
-2.36839e-23
-1.21998e-22
2.22497e-23
1.7579e-23
3.82317e-23
8.79028e-23
1.34649e-23
1.40011e-22
-2.46919e-24
9.28932e-23
4.00848e-24
4.31661e-22
-1.8212e-24
8.08141e-23
-2.01753e-23
9.08371e-25
-2.21987e-23
-1.51626e-22
1.33342e-23
-2.07508e-23
3.13359e-23
3.67134e-22
-2.78874e-23
5.43965e-23
2.27438e-22
1.49693e-23
1.50041e-22
1.0721e-23
1.53382e-22
4.71658e-23
2.49688e-22
3.92828e-23
1.84398e-23
-1.26429e-23
4.87713e-22
2.13112e-24
3.88056e-22
-7.72127e-24
3.12381e-22
2.85289e-23
4.79221e-22
-2.99986e-23
5.3234e-22
-1.75494e-23
2.93704e-22
-9.66411e-24
4.18862e-22
1.26771e-23
3.86126e-22
1.84395e-23
1.33362e-22
1.89296e-23
2.09416e-22
6.35943e-23
2.46836e-22
-6.25405e-24
-1.49436e-22
-3.72758e-23
-1.03616e-23
-1.89426e-23
1.5009e-22
-1.49414e-23
1.21073e-22
1.79466e-23
-3.58403e-23
4.40704e-23
2.38896e-22
9.33881e-25
3.87515e-23
2.01403e-23
4.27e-22
-1.56286e-23
1.53237e-22
7.57908e-25
2.32353e-22
-3.01552e-23
5.26155e-24
-1.9401e-23