/*--------------------------------*- C++ -*----------------------------------*\
  =========                 |
  \\      /  F ield         | OpenFOAM: The Open Source CFD Toolbox
   \\    /   O peration     | Website:  https://openfoam.org
    \\  /    A nd           | Version:  7
     \\/     M anipulation  |
\*---------------------------------------------------------------------------*/
FoamFile
{
    version     2.0;
    format      ascii;
    class       volScalarField;
    location    "156000";
    object      nut;
}
// * * * * * * * * * * * * * * * * * * * * * * * * * * * * * * * * * * * * * //

dimensions      [0 2 -1 0 0 0 0];

internalField   nonuniform List<scalar> 
4825
(
1.26964e-05
1.2808e-05
1.24572e-05
1.25701e-05
1.26657e-05
1.27565e-05
1.28429e-05
1.22191e-05
1.23299e-05
1.24259e-05
1.2518e-05
1.26065e-05
1.19823e-05
1.20901e-05
1.21854e-05
1.22772e-05
1.23659e-05
1.1747e-05
1.18518e-05
1.19458e-05
1.20366e-05
1.21246e-05
1.15134e-05
1.16155e-05
1.17079e-05
1.17975e-05
1.18843e-05
1.12815e-05
1.13812e-05
1.14719e-05
1.15601e-05
1.16457e-05
1.10514e-05
1.1149e-05
1.12381e-05
1.13248e-05
1.1409e-05
1.0823e-05
1.09186e-05
1.10062e-05
1.10915e-05
1.11744e-05
1.05963e-05
1.06902e-05
1.07763e-05
1.08602e-05
1.09417e-05
1.03713e-05
1.04635e-05
1.05482e-05
1.06308e-05
1.0711e-05
1.01479e-05
1.02385e-05
1.03218e-05
1.04031e-05
1.04821e-05
9.92617e-06
1.00151e-05
1.00972e-05
1.01772e-05
1.02549e-05
9.706e-06
9.79344e-06
9.87424e-06
9.95302e-06
9.4874e-06
9.57333e-06
9.6529e-06
9.73045e-06
9.27035e-06
9.3548e-06
9.43315e-06
9.5095e-06
9.05485e-06
9.13784e-06
9.21498e-06
8.84089e-06
8.92243e-06
8.99837e-06
8.62847e-06
8.70859e-06
8.4176e-06
8.4963e-06
8.20829e-06
8.28558e-06
8.00056e-06
8.07644e-06
7.79441e-06
7.86889e-06
7.58987e-06
1.62701e-05
1.63766e-05
1.64803e-05
1.6581e-05
1.66784e-05
1.67723e-05
1.68627e-05
1.69492e-05
1.70318e-05
1.71103e-05
1.71846e-05
1.72545e-05
1.73199e-05
1.73807e-05
1.74368e-05
1.74882e-05
1.75346e-05
1.7576e-05
1.76125e-05
1.76438e-05
1.60297e-05
1.61356e-05
1.62387e-05
1.63388e-05
1.64357e-05
1.65291e-05
1.6619e-05
1.67051e-05
1.67873e-05
1.68655e-05
1.69394e-05
1.7009e-05
1.70741e-05
1.71346e-05
1.71905e-05
1.72416e-05
1.72878e-05
1.73291e-05
1.73653e-05
1.73965e-05
1.57894e-05
1.58947e-05
1.59973e-05
1.60968e-05
1.61932e-05
1.62861e-05
1.63755e-05
1.64612e-05
1.65429e-05
1.66207e-05
1.66942e-05
1.67634e-05
1.68282e-05
1.68885e-05
1.69441e-05
1.69949e-05
1.70409e-05
1.7082e-05
1.71181e-05
1.71492e-05
1.55496e-05
1.56542e-05
1.57561e-05
1.58551e-05
1.59509e-05
1.60433e-05
1.61322e-05
1.62173e-05
1.62986e-05
1.63759e-05
1.64491e-05
1.6518e-05
1.65824e-05
1.66424e-05
1.66977e-05
1.67483e-05
1.6794e-05
1.68349e-05
1.68709e-05
1.69018e-05
1.531e-05
1.5414e-05
1.55153e-05
1.56136e-05
1.57088e-05
1.58007e-05
1.5889e-05
1.59737e-05
1.60545e-05
1.61314e-05
1.62041e-05
1.62726e-05
1.63367e-05
1.63963e-05
1.64513e-05
1.65017e-05
1.65472e-05
1.65879e-05
1.66236e-05
1.66544e-05
1.50709e-05
1.51742e-05
1.52748e-05
1.53725e-05
1.54671e-05
1.55584e-05
1.56462e-05
1.57303e-05
1.58107e-05
1.58871e-05
1.59594e-05
1.60274e-05
1.60912e-05
1.61504e-05
1.62051e-05
1.62552e-05
1.63005e-05
1.63409e-05
1.63765e-05
1.64071e-05
1.48323e-05
1.49349e-05
1.50348e-05
1.51318e-05
1.52258e-05
1.53165e-05
1.54037e-05
1.54873e-05
1.55671e-05
1.5643e-05
1.57148e-05
1.57825e-05
1.58458e-05
1.59047e-05
1.59591e-05
1.60089e-05
1.60539e-05
1.60941e-05
1.61295e-05
1.61599e-05
1.45942e-05
1.4696e-05
1.47952e-05
1.48916e-05
1.49849e-05
1.50749e-05
1.51615e-05
1.52445e-05
1.53238e-05
1.53992e-05
1.54706e-05
1.55378e-05
1.56008e-05
1.56593e-05
1.57133e-05
1.57628e-05
1.58075e-05
1.58475e-05
1.58826e-05
1.59129e-05
1.59381e-05
1.59584e-05
1.59736e-05
1.59838e-05
1.59889e-05
1.59889e-05
1.59838e-05
1.59736e-05
1.59584e-05
1.59381e-05
1.59129e-05
1.58826e-05
1.58475e-05
1.58075e-05
1.57628e-05
1.43567e-05
1.44577e-05
1.45562e-05
1.46518e-05
1.47444e-05
1.48338e-05
1.49198e-05
1.50022e-05
1.5081e-05
1.51558e-05
1.52267e-05
1.52935e-05
1.5356e-05
1.54142e-05
1.54678e-05
1.5517e-05
1.55614e-05
1.56011e-05
1.5636e-05
1.56661e-05
1.56912e-05
1.57113e-05
1.57265e-05
1.57366e-05
1.57417e-05
1.57417e-05
1.57366e-05
1.57265e-05
1.57113e-05
1.56912e-05
1.56661e-05
1.5636e-05
1.56011e-05
1.55614e-05
1.5517e-05
1.54678e-05
1.54142e-05
1.41197e-05
1.422e-05
1.43177e-05
1.44126e-05
1.45045e-05
1.45932e-05
1.46785e-05
1.47604e-05
1.48385e-05
1.49129e-05
1.49832e-05
1.50495e-05
1.51116e-05
1.51694e-05
1.52227e-05
1.52715e-05
1.53156e-05
1.53551e-05
1.53897e-05
1.54196e-05
1.54445e-05
1.54646e-05
1.54796e-05
1.54896e-05
1.54947e-05
1.54947e-05
1.54896e-05
1.54796e-05
1.54646e-05
1.54445e-05
1.54196e-05
1.53897e-05
1.53551e-05
1.53156e-05
1.52715e-05
1.52227e-05
1.51694e-05
1.51116e-05
1.38834e-05
1.39828e-05
1.40798e-05
1.41739e-05
1.42651e-05
1.43531e-05
1.44378e-05
1.4519e-05
1.45966e-05
1.46703e-05
1.47402e-05
1.4806e-05
1.48676e-05
1.4925e-05
1.49779e-05
1.50263e-05
1.50702e-05
1.51094e-05
1.51438e-05
1.51734e-05
1.51982e-05
1.52181e-05
1.5233e-05
1.5243e-05
1.5248e-05
1.5248e-05
1.5243e-05
1.5233e-05
1.52181e-05
1.51982e-05
1.51734e-05
1.51438e-05
1.51094e-05
1.50702e-05
1.50263e-05
1.49779e-05
1.4925e-05
1.48676e-05
1.4806e-05
1.47402e-05
1.36478e-05
1.37464e-05
1.38425e-05
1.39359e-05
1.40263e-05
1.41136e-05
1.41976e-05
1.42782e-05
1.43551e-05
1.44283e-05
1.44976e-05
1.45629e-05
1.46241e-05
1.4681e-05
1.47336e-05
1.47816e-05
1.48252e-05
1.4864e-05
1.48982e-05
1.49277e-05
1.49523e-05
1.4972e-05
1.49868e-05
1.49967e-05
1.50017e-05
1.50017e-05
1.49967e-05
1.49868e-05
1.4972e-05
1.49523e-05
1.49277e-05
1.48982e-05
1.48641e-05
1.48252e-05
1.47816e-05
1.47336e-05
1.4681e-05
1.46241e-05
1.45629e-05
1.44976e-05
1.44283e-05
1.43551e-05
1.34129e-05
1.35106e-05
1.36059e-05
1.36985e-05
1.37882e-05
1.38747e-05
1.3958e-05
1.40379e-05
1.41143e-05
1.41869e-05
1.42556e-05
1.43204e-05
1.43811e-05
1.44376e-05
1.44897e-05
1.45374e-05
1.45806e-05
1.46192e-05
1.46531e-05
1.46823e-05
1.47067e-05
1.47263e-05
1.47411e-05
1.47509e-05
1.47558e-05
1.47558e-05
1.47509e-05
1.47411e-05
1.47263e-05
1.47067e-05
1.46823e-05
1.46531e-05
1.46192e-05
1.45806e-05
1.45374e-05
1.44897e-05
1.44376e-05
1.43811e-05
1.43204e-05
1.42556e-05
1.41869e-05
1.41143e-05
1.40379e-05
1.3958e-05
1.38747e-05
1.31757e-05
1.32756e-05
1.33701e-05
1.34618e-05
1.35507e-05
1.36365e-05
1.37191e-05
1.37983e-05
1.3874e-05
1.3946e-05
1.40142e-05
1.40785e-05
1.41386e-05
1.41946e-05
1.42464e-05
1.42937e-05
1.43365e-05
1.43748e-05
1.44085e-05
1.44375e-05
1.44617e-05
1.44811e-05
1.44958e-05
1.45055e-05
1.45104e-05
1.45104e-05
1.45055e-05
1.44957e-05
1.44811e-05
1.44617e-05
1.44375e-05
1.44085e-05
1.43748e-05
1.43365e-05
1.42937e-05
1.42464e-05
1.41946e-05
1.41386e-05
1.40785e-05
1.40142e-05
1.3946e-05
1.3874e-05
1.37983e-05
1.37191e-05
1.36365e-05
1.35507e-05
1.34618e-05
1.29362e-05
1.30414e-05
1.3135e-05
1.32259e-05
1.3314e-05
1.3399e-05
1.34809e-05
1.35594e-05
1.36344e-05
1.37058e-05
1.37734e-05
1.38371e-05
1.38968e-05
1.39523e-05
1.40036e-05
1.40505e-05
1.4093e-05
1.4131e-05
1.41644e-05
1.41932e-05
1.42172e-05
1.42365e-05
1.4251e-05
1.42606e-05
1.42655e-05
1.42655e-05
1.42606e-05
1.4251e-05
1.42365e-05
1.42172e-05
1.41932e-05
1.41644e-05
1.4131e-05
1.4093e-05
1.40505e-05
1.40036e-05
1.39523e-05
1.38968e-05
1.38371e-05
1.37734e-05
1.37058e-05
1.36344e-05
1.35594e-05
1.34809e-05
1.3399e-05
1.3314e-05
1.32259e-05
1.3135e-05
1.30414e-05
1.29362e-05
1.26964e-05
1.2808e-05
1.29007e-05
1.29908e-05
1.30781e-05
1.31623e-05
1.32434e-05
1.33212e-05
1.33955e-05
1.34663e-05
1.35333e-05
1.35964e-05
1.36556e-05
1.37106e-05
1.37615e-05
1.3808e-05
1.38501e-05
1.38878e-05
1.39209e-05
1.39494e-05
1.39732e-05
1.39924e-05
1.40067e-05
1.40163e-05
1.40211e-05
1.40211e-05
1.40163e-05
1.40067e-05
1.39924e-05
1.39732e-05
1.39494e-05
1.39209e-05
1.38878e-05
1.38501e-05
1.3808e-05
1.37615e-05
1.37106e-05
1.36556e-05
1.35964e-05
1.35333e-05
1.34663e-05
1.33955e-05
1.33212e-05
1.32434e-05
1.31623e-05
1.30781e-05
1.29908e-05
1.29007e-05
1.2808e-05
1.26964e-05
1.24572e-05
1.25701e-05
1.26657e-05
1.27565e-05
1.28429e-05
1.29264e-05
1.30067e-05
1.30837e-05
1.31574e-05
1.32275e-05
1.32939e-05
1.33564e-05
1.3415e-05
1.34696e-05
1.352e-05
1.35661e-05
1.36079e-05
1.36452e-05
1.3678e-05
1.37063e-05
1.37299e-05
1.37489e-05
1.37631e-05
1.37726e-05
1.37774e-05
1.37774e-05
1.37726e-05
1.37631e-05
1.37489e-05
1.37299e-05
1.37063e-05
1.3678e-05
1.36452e-05
1.36079e-05
1.35661e-05
1.352e-05
1.34696e-05
1.34151e-05
1.33564e-05
1.32939e-05
1.32275e-05
1.31574e-05
1.30837e-05
1.30067e-05
1.29264e-05
1.28429e-05
1.27565e-05
1.26657e-05
1.25701e-05
1.24572e-05
1.22191e-05
1.23299e-05
1.24259e-05
1.2518e-05
1.26065e-05
1.26913e-05
1.27708e-05
1.28471e-05
1.292e-05
1.29894e-05
1.30552e-05
1.31172e-05
1.31753e-05
1.32293e-05
1.32792e-05
1.33249e-05
1.33663e-05
1.34033e-05
1.34359e-05
1.34639e-05
1.34873e-05
1.35061e-05
1.35202e-05
1.35296e-05
1.35343e-05
1.35343e-05
1.35296e-05
1.35202e-05
1.35061e-05
1.34873e-05
1.34639e-05
1.34359e-05
1.34033e-05
1.33663e-05
1.33249e-05
1.32792e-05
1.32293e-05
1.31753e-05
1.31172e-05
1.30552e-05
1.29894e-05
1.292e-05
1.28471e-05
1.27708e-05
1.26913e-05
1.26065e-05
1.2518e-05
1.24259e-05
1.23299e-05
1.22191e-05
1.19823e-05
1.20901e-05
1.21854e-05
1.22772e-05
1.23659e-05
1.24512e-05
1.25328e-05
1.2611e-05
1.26835e-05
1.27522e-05
1.28174e-05
1.28787e-05
1.29363e-05
1.29898e-05
1.30392e-05
1.30845e-05
1.31255e-05
1.31622e-05
1.31944e-05
1.32221e-05
1.32453e-05
1.32639e-05
1.32779e-05
1.32873e-05
1.32919e-05
1.32919e-05
1.32873e-05
1.32779e-05
1.32639e-05
1.32453e-05
1.32221e-05
1.31944e-05
1.31622e-05
1.31255e-05
1.30845e-05
1.30392e-05
1.29898e-05
1.29363e-05
1.28787e-05
1.28174e-05
1.27522e-05
1.26835e-05
1.2611e-05
1.25328e-05
1.24512e-05
1.23659e-05
1.22772e-05
1.21854e-05
1.20901e-05
1.19823e-05
1.1747e-05
1.18518e-05
1.19458e-05
1.20366e-05
1.21246e-05
1.22095e-05
1.22912e-05
1.23695e-05
1.24437e-05
1.25141e-05
1.25803e-05
1.26411e-05
1.26981e-05
1.27511e-05
1.28e-05
1.28449e-05
1.28855e-05
1.29218e-05
1.29537e-05
1.29811e-05
1.30041e-05
1.30226e-05
1.30364e-05
1.30457e-05
1.30503e-05
1.30503e-05
1.30457e-05
1.30364e-05
1.30226e-05
1.30041e-05
1.29811e-05
1.29537e-05
1.29218e-05
1.28855e-05
1.28449e-05
1.28e-05
1.27511e-05
1.26981e-05
1.26411e-05
1.25803e-05
1.25141e-05
1.24437e-05
1.23695e-05
1.22912e-05
1.22095e-05
1.21246e-05
1.20366e-05
1.19458e-05
1.18518e-05
1.1747e-05
1.15134e-05
1.16155e-05
1.17079e-05
1.17975e-05
1.18843e-05
1.19683e-05
1.20493e-05
1.21269e-05
1.22011e-05
1.22716e-05
1.23382e-05
1.24005e-05
1.24588e-05
1.2513e-05
1.25617e-05
1.2606e-05
1.26462e-05
1.26822e-05
1.27138e-05
1.2741e-05
1.27637e-05
1.2782e-05
1.27957e-05
1.28049e-05
1.28095e-05
1.28095e-05
1.28049e-05
1.27957e-05
1.2782e-05
1.27637e-05
1.2741e-05
1.27138e-05
1.26822e-05
1.26462e-05
1.2606e-05
1.25617e-05
1.2513e-05
1.24588e-05
1.24005e-05
1.23382e-05
1.22716e-05
1.22011e-05
1.21269e-05
1.20493e-05
1.19683e-05
1.18843e-05
1.17975e-05
1.17079e-05
1.16155e-05
1.15134e-05
1.12815e-05
1.13812e-05
1.14719e-05
1.15601e-05
1.16457e-05
1.17285e-05
1.18084e-05
1.1885e-05
1.19585e-05
1.20284e-05
1.20946e-05
1.21569e-05
1.22153e-05
1.22695e-05
1.23192e-05
1.23646e-05
1.24057e-05
1.24425e-05
1.24747e-05
1.25016e-05
1.25242e-05
1.25422e-05
1.25558e-05
1.25649e-05
1.25694e-05
1.25694e-05
1.25649e-05
1.25558e-05
1.25422e-05
1.25242e-05
1.25016e-05
1.24747e-05
1.24425e-05
1.24057e-05
1.23646e-05
1.23192e-05
1.22695e-05
1.22153e-05
1.21569e-05
1.20946e-05
1.20284e-05
1.19585e-05
1.1885e-05
1.18084e-05
1.17285e-05
1.16457e-05
1.15601e-05
1.14719e-05
1.13812e-05
1.12815e-05
1.10514e-05
1.1149e-05
1.12381e-05
1.13248e-05
1.1409e-05
1.14905e-05
1.15692e-05
1.16447e-05
1.17172e-05
1.17861e-05
1.18515e-05
1.19133e-05
1.19711e-05
1.20249e-05
1.20745e-05
1.212e-05
1.21611e-05
1.21978e-05
1.22301e-05
1.22576e-05
1.22807e-05
1.22991e-05
1.2313e-05
1.23222e-05
1.23269e-05
1.23269e-05
1.23222e-05
1.2313e-05
1.22991e-05
1.22807e-05
1.22576e-05
1.22301e-05
1.21978e-05
1.21611e-05
1.212e-05
1.20745e-05
1.20249e-05
1.19711e-05
1.19133e-05
1.18515e-05
1.17861e-05
1.17172e-05
1.16447e-05
1.15692e-05
1.14905e-05
1.1409e-05
1.13248e-05
1.12381e-05
1.1149e-05
1.10514e-05
1.0823e-05
1.09186e-05
1.10062e-05
1.10915e-05
1.11744e-05
1.12546e-05
1.1332e-05
1.14063e-05
1.14776e-05
1.15455e-05
1.16099e-05
1.16708e-05
1.17279e-05
1.17809e-05
1.18301e-05
1.18751e-05
1.19158e-05
1.19523e-05
1.19843e-05
1.20118e-05
1.20348e-05
1.20532e-05
1.20671e-05
1.20764e-05
1.2081e-05
1.2081e-05
1.20764e-05
1.20671e-05
1.20532e-05
1.20348e-05
1.20118e-05
1.19843e-05
1.19523e-05
1.19158e-05
1.18751e-05
1.18301e-05
1.17809e-05
1.17279e-05
1.16708e-05
1.16099e-05
1.15455e-05
1.14776e-05
1.14063e-05
1.13319e-05
1.12546e-05
1.11744e-05
1.10915e-05
1.10062e-05
1.09186e-05
1.0823e-05
1.05963e-05
1.06902e-05
1.07763e-05
1.08602e-05
1.09417e-05
1.10206e-05
1.10967e-05
1.11699e-05
1.124e-05
1.13068e-05
1.13702e-05
1.14301e-05
1.14863e-05
1.15386e-05
1.1587e-05
1.16314e-05
1.16716e-05
1.17075e-05
1.17391e-05
1.17664e-05
1.17891e-05
1.18074e-05
1.18212e-05
1.18303e-05
1.18349e-05
1.18349e-05
1.18303e-05
1.18212e-05
1.18074e-05
1.17891e-05
1.17664e-05
1.17391e-05
1.17075e-05
1.16716e-05
1.16314e-05
1.1587e-05
1.15386e-05
1.14863e-05
1.14301e-05
1.13702e-05
1.13068e-05
1.124e-05
1.11699e-05
1.10967e-05
1.10206e-05
1.09417e-05
1.08602e-05
1.07763e-05
1.06902e-05
1.05963e-05
1.03713e-05
1.04635e-05
1.05482e-05
1.06308e-05
1.0711e-05
1.07886e-05
1.08635e-05
1.09355e-05
1.10044e-05
1.10701e-05
1.11325e-05
1.11914e-05
1.12467e-05
1.12981e-05
1.13458e-05
1.13895e-05
1.1429e-05
1.14644e-05
1.14955e-05
1.15224e-05
1.15448e-05
1.15629e-05
1.15764e-05
1.15855e-05
1.159e-05
1.159e-05
1.15855e-05
1.15764e-05
1.15629e-05
1.15448e-05
1.15224e-05
1.14955e-05
1.14644e-05
1.1429e-05
1.13895e-05
1.13458e-05
1.12981e-05
1.12467e-05
1.11914e-05
1.11325e-05
1.10701e-05
1.10044e-05
1.09355e-05
1.08635e-05
1.07886e-05
1.0711e-05
1.06308e-05
1.05482e-05
1.04635e-05
1.03713e-05
1.01479e-05
1.02385e-05
1.03218e-05
1.04031e-05
1.04821e-05
1.05585e-05
1.06322e-05
1.0703e-05
1.07708e-05
1.08354e-05
1.08968e-05
1.09547e-05
1.1009e-05
1.10597e-05
1.11065e-05
1.11495e-05
1.11884e-05
1.12232e-05
1.12538e-05
1.12803e-05
1.13024e-05
1.13201e-05
1.13334e-05
1.13423e-05
1.13468e-05
1.13468e-05
1.13423e-05
1.13334e-05
1.13201e-05
1.13024e-05
1.12803e-05
1.12538e-05
1.12232e-05
1.11884e-05
1.11495e-05
1.11065e-05
1.10597e-05
1.1009e-05
1.09547e-05
1.08968e-05
1.08354e-05
1.07708e-05
1.0703e-05
1.06322e-05
1.05585e-05
1.04821e-05
1.04031e-05
1.03218e-05
1.02385e-05
1.01479e-05
9.92617e-06
1.00151e-05
1.00972e-05
1.01772e-05
1.02549e-05
1.03301e-05
1.04027e-05
1.04723e-05
1.05391e-05
1.06027e-05
1.0663e-05
1.072e-05
1.07734e-05
1.08232e-05
1.08693e-05
1.09115e-05
1.09498e-05
1.0984e-05
1.10142e-05
1.10401e-05
1.10619e-05
1.10793e-05
1.10925e-05
1.11012e-05
1.11056e-05
1.11056e-05
1.11012e-05
1.10925e-05
1.10793e-05
1.10619e-05
1.10401e-05
1.10142e-05
1.0984e-05
1.09498e-05
1.09115e-05
1.08693e-05
1.08232e-05
1.07734e-05
1.072e-05
1.0663e-05
1.06027e-05
1.05391e-05
1.04723e-05
1.04026e-05
1.03301e-05
1.02549e-05
1.01772e-05
1.00972e-05
1.00151e-05
9.92617e-06
9.706e-06
9.79344e-06
9.87424e-06
9.95302e-06
1.00295e-05
1.01035e-05
1.01749e-05
1.02435e-05
1.03091e-05
1.03717e-05
1.04311e-05
1.04871e-05
1.05397e-05
1.05887e-05
1.0634e-05
1.06756e-05
1.07132e-05
1.07469e-05
1.07765e-05
1.0802e-05
1.08234e-05
1.08406e-05
1.08535e-05
1.08621e-05
1.08664e-05
1.08664e-05
1.08621e-05
1.08535e-05
1.08406e-05
1.08234e-05
1.0802e-05
1.07765e-05
1.07469e-05
1.07132e-05
1.06756e-05
1.0634e-05
1.05887e-05
1.05397e-05
1.04871e-05
1.04311e-05
1.03717e-05
1.03091e-05
1.02435e-05
1.01749e-05
1.01035e-05
1.00295e-05
9.95302e-06
9.87424e-06
9.79344e-06
9.706e-06
9.4874e-06
9.57333e-06
9.6529e-06
9.73045e-06
9.80575e-06
9.87861e-06
9.94887e-06
1.00164e-05
1.0081e-05
1.01426e-05
1.0201e-05
1.02561e-05
1.03078e-05
1.0356e-05
1.04006e-05
1.04415e-05
1.04785e-05
1.05116e-05
1.05408e-05
1.05659e-05
1.05869e-05
1.06038e-05
1.06165e-05
1.0625e-05
1.06292e-05
1.06292e-05
1.0625e-05
1.06165e-05
1.06038e-05
1.05869e-05
1.05659e-05
1.05408e-05
1.05116e-05
1.04785e-05
1.04415e-05
1.04006e-05
1.0356e-05
1.03078e-05
1.02561e-05
1.0201e-05
1.01426e-05
1.0081e-05
1.00164e-05
9.94887e-06
9.87861e-06
9.80575e-06
9.73045e-06
9.6529e-06
9.57333e-06
9.4874e-06
9.27035e-06
9.3548e-06
9.43315e-06
9.5095e-06
9.58362e-06
9.65534e-06
9.7245e-06
9.79094e-06
9.85452e-06
9.91512e-06
9.97261e-06
1.00269e-05
1.00778e-05
1.01252e-05
1.0169e-05
1.02092e-05
1.02457e-05
1.02783e-05
1.03069e-05
1.03317e-05
1.03523e-05
1.03689e-05
1.03814e-05
1.03897e-05
1.03939e-05
1.03939e-05
1.03897e-05
1.03814e-05
1.03689e-05
1.03523e-05
1.03317e-05
1.03069e-05
1.02783e-05
1.02457e-05
1.02092e-05
1.01691e-05
1.01252e-05
1.00778e-05
1.00269e-05
9.97261e-06
9.91512e-06
9.85452e-06
9.79094e-06
9.7245e-06
9.65534e-06
9.58362e-06
9.5095e-06
9.43315e-06
9.3548e-06
9.27035e-06
9.05485e-06
9.13784e-06
9.21498e-06
9.29014e-06
9.3631e-06
9.43369e-06
9.50175e-06
9.56714e-06
9.62972e-06
9.68936e-06
9.74593e-06
9.79931e-06
9.8494e-06
9.89607e-06
9.93923e-06
9.97878e-06
1.00146e-05
1.00467e-05
1.00749e-05
1.00992e-05
1.01196e-05
1.01359e-05
1.01482e-05
1.01564e-05
1.01605e-05
1.01605e-05
1.01564e-05
1.01482e-05
1.01359e-05
1.01196e-05
1.00992e-05
1.00749e-05
1.00467e-05
1.00146e-05
9.97878e-06
9.93923e-06
9.89607e-06
9.8494e-06
9.79931e-06
9.74593e-06
9.68936e-06
9.62972e-06
9.56714e-06
9.50175e-06
9.43369e-06
9.3631e-06
9.29014e-06
9.21498e-06
9.13784e-06
9.05485e-06
8.84089e-06
8.92243e-06
8.99837e-06
9.07235e-06
9.14416e-06
9.21363e-06
9.28061e-06
9.34496e-06
9.40654e-06
9.46523e-06
9.5209e-06
9.57343e-06
9.62272e-06
9.66864e-06
9.71111e-06
9.75002e-06
9.7853e-06
9.81685e-06
9.84461e-06
9.86853e-06
9.88854e-06
9.90461e-06
9.91669e-06
9.92476e-06
9.92879e-06
9.92879e-06
9.92476e-06
9.91669e-06
9.90461e-06
9.88854e-06
9.86853e-06
9.84461e-06
9.81685e-06
9.7853e-06
9.75003e-06
9.71111e-06
9.66864e-06
9.62272e-06
9.57343e-06
9.5209e-06
9.46523e-06
9.40654e-06
9.34496e-06
9.28061e-06
9.21363e-06
9.14416e-06
9.07235e-06
8.99837e-06
8.92243e-06
8.84089e-06
8.62847e-06
8.70859e-06
8.78333e-06
8.85613e-06
8.92679e-06
8.99515e-06
9.06106e-06
9.12437e-06
9.18497e-06
9.24272e-06
9.2975e-06
9.34919e-06
9.39768e-06
9.44287e-06
9.48466e-06
9.52295e-06
9.55766e-06
9.5887e-06
9.61602e-06
9.63955e-06
9.65924e-06
9.67505e-06
9.68693e-06
9.69487e-06
9.69885e-06
9.69885e-06
9.69487e-06
9.68693e-06
9.67505e-06
9.65924e-06
9.63955e-06
9.61602e-06
9.5887e-06
9.55766e-06
9.52295e-06
9.48466e-06
9.44287e-06
9.39768e-06
9.34919e-06
9.2975e-06
9.24272e-06
9.18497e-06
9.12437e-06
9.06105e-06
8.99515e-06
8.92679e-06
8.85613e-06
8.78333e-06
8.70859e-06
8.62847e-06
8.4176e-06
8.4963e-06
8.56985e-06
8.64147e-06
8.71099e-06
8.77824e-06
8.84308e-06
8.90537e-06
8.96499e-06
9.0218e-06
9.0757e-06
9.12656e-06
9.17427e-06
9.21873e-06
9.25984e-06
9.29752e-06
9.33167e-06
9.36221e-06
9.38909e-06
9.41224e-06
9.43162e-06
9.44717e-06
9.45886e-06
9.46667e-06
9.47058e-06
9.47058e-06
9.46667e-06
9.45886e-06
9.44717e-06
9.43162e-06
9.41224e-06
9.38909e-06
9.36221e-06
9.33167e-06
9.29752e-06
9.25984e-06
9.21873e-06
9.17427e-06
9.12656e-06
9.0757e-06
9.0218e-06
8.96499e-06
8.90537e-06
8.84308e-06
8.77824e-06
8.71099e-06
8.64147e-06
8.56985e-06
8.4963e-06
8.4176e-06
8.20829e-06
8.28558e-06
8.35793e-06
8.42839e-06
8.49676e-06
8.56291e-06
8.62668e-06
8.68795e-06
8.74659e-06
8.80248e-06
8.8555e-06
8.90552e-06
8.95246e-06
8.9962e-06
9.03665e-06
9.07371e-06
9.1073e-06
9.13736e-06
9.1638e-06
9.18658e-06
9.20564e-06
9.22093e-06
9.23244e-06
9.24012e-06
9.24397e-06
9.24397e-06
9.24012e-06
9.23244e-06
9.22093e-06
9.20564e-06
9.18658e-06
9.1638e-06
9.13736e-06
9.1073e-06
9.07371e-06
9.03665e-06
8.9962e-06
8.95246e-06
8.90552e-06
8.85549e-06
8.80248e-06
8.74659e-06
8.68795e-06
8.62668e-06
8.56291e-06
8.49676e-06
8.42839e-06
8.35793e-06
8.28558e-06
8.20829e-06
8.00056e-06
8.07644e-06
8.14759e-06
8.21687e-06
8.28411e-06
8.34915e-06
8.41186e-06
8.47212e-06
8.52978e-06
8.58475e-06
8.63688e-06
8.68609e-06
8.73225e-06
8.77528e-06
8.81506e-06
8.85151e-06
8.88456e-06
8.91412e-06
8.94013e-06
8.96253e-06
8.98128e-06
8.99633e-06
9.00765e-06
9.0152e-06
9.01899e-06
9.01899e-06
9.0152e-06
9.00765e-06
8.99633e-06
8.98128e-06
8.96253e-06
8.94013e-06
8.91412e-06
8.88456e-06
8.85151e-06
8.81506e-06
8.77528e-06
8.73225e-06
8.68609e-06
8.63688e-06
8.58474e-06
8.52978e-06
8.47212e-06
8.41186e-06
8.34915e-06
8.28411e-06
8.21687e-06
8.14759e-06
8.07644e-06
8.00056e-06
7.79441e-06
7.86889e-06
7.93884e-06
8.00695e-06
8.07305e-06
8.13698e-06
8.19863e-06
8.25787e-06
8.31456e-06
8.3686e-06
8.41987e-06
8.46825e-06
8.51364e-06
8.55595e-06
8.59507e-06
8.63092e-06
8.66342e-06
8.69249e-06
8.71807e-06
8.74011e-06
8.75854e-06
8.77334e-06
8.78447e-06
8.79191e-06
8.79563e-06
8.79563e-06
8.79191e-06
8.78447e-06
8.77334e-06
8.75854e-06
8.74011e-06
8.71807e-06
8.69249e-06
8.66342e-06
8.63092e-06
8.59507e-06
8.55595e-06
8.51364e-06
8.46825e-06
8.41987e-06
8.3686e-06
8.31456e-06
8.25786e-06
8.19863e-06
8.13698e-06
8.07305e-06
8.00695e-06
7.93884e-06
7.86889e-06
7.79441e-06
7.58987e-06
7.66295e-06
7.7317e-06
7.79864e-06
7.86358e-06
7.92642e-06
7.987e-06
8.04521e-06
8.10094e-06
8.15405e-06
8.20445e-06
8.25201e-06
8.29664e-06
8.33823e-06
8.37669e-06
8.41194e-06
8.44389e-06
8.47247e-06
8.49763e-06
8.51929e-06
8.53742e-06
8.55197e-06
8.56292e-06
8.57022e-06
8.57388e-06
8.57388e-06
8.57022e-06
8.56291e-06
8.55197e-06
8.53742e-06
8.51929e-06
8.49763e-06
8.47247e-06
8.44389e-06
8.41194e-06
8.37669e-06
8.33823e-06
8.29664e-06
8.25201e-06
8.20445e-06
8.15405e-06
8.10094e-06
8.04521e-06
7.987e-06
7.92641e-06
7.86358e-06
7.79863e-06
7.7317e-06
7.66295e-06
7.58987e-06
7.38695e-06
7.45864e-06
7.52619e-06
7.59194e-06
7.65574e-06
7.71746e-06
7.77698e-06
7.83418e-06
7.88893e-06
7.94112e-06
7.99064e-06
8.03738e-06
8.08124e-06
8.12212e-06
8.15992e-06
8.19456e-06
8.22597e-06
8.25407e-06
8.27879e-06
8.30009e-06
8.31791e-06
8.33221e-06
8.34297e-06
8.35016e-06
8.35375e-06
8.35375e-06
8.35015e-06
8.34297e-06
8.33221e-06
8.31791e-06
8.30009e-06
8.27879e-06
8.25407e-06
8.22597e-06
8.19456e-06
8.15992e-06
8.12212e-06
8.08124e-06
8.03738e-06
7.99064e-06
7.94112e-06
7.88893e-06
7.83418e-06
7.77698e-06
7.71746e-06
7.65574e-06
7.59194e-06
7.52619e-06
7.45864e-06
7.38695e-06
7.18568e-06
7.25599e-06
7.32232e-06
7.38688e-06
7.44954e-06
7.51015e-06
7.5686e-06
7.62477e-06
7.67855e-06
7.72981e-06
7.77846e-06
7.82438e-06
7.86747e-06
7.90763e-06
7.94477e-06
7.97881e-06
8.00967e-06
8.03728e-06
8.06158e-06
8.08251e-06
8.10002e-06
8.11408e-06
8.12465e-06
8.13171e-06
8.13524e-06
8.13524e-06
8.13171e-06
8.12465e-06
8.11408e-06
8.10002e-06
8.08251e-06
8.06158e-06
8.03728e-06
8.00967e-06
7.97881e-06
7.94477e-06
7.90763e-06
7.86747e-06
7.82438e-06
7.77846e-06
7.72981e-06
7.67854e-06
7.62477e-06
7.5686e-06
7.51015e-06
7.44954e-06
7.38688e-06
7.32232e-06
7.25599e-06
7.18568e-06
6.98608e-06
7.055e-06
7.12011e-06
7.18349e-06
7.24499e-06
7.30449e-06
7.36187e-06
7.41701e-06
7.46981e-06
7.52015e-06
7.56792e-06
7.61302e-06
7.65534e-06
7.69478e-06
7.73127e-06
7.7647e-06
7.79502e-06
7.82214e-06
7.846e-06
7.86656e-06
7.88377e-06
7.89758e-06
7.90796e-06
7.9149e-06
7.91837e-06
7.91837e-06
7.9149e-06
7.90796e-06
7.89758e-06
7.88377e-06
7.86656e-06
7.846e-06
7.82214e-06
7.79502e-06
7.7647e-06
7.73127e-06
7.69478e-06
7.65534e-06
7.61302e-06
7.56792e-06
7.52015e-06
7.46981e-06
7.41701e-06
7.36186e-06
7.30448e-06
7.24499e-06
7.18349e-06
7.12011e-06
7.055e-06
6.78817e-06
6.85571e-06
6.9196e-06
6.98178e-06
7.04212e-06
7.1005e-06
7.15681e-06
7.21093e-06
7.26275e-06
7.31216e-06
7.35905e-06
7.40332e-06
7.44487e-06
7.4836e-06
7.51942e-06
7.55225e-06
7.58202e-06
7.60865e-06
7.63208e-06
7.65227e-06
7.66917e-06
7.68273e-06
7.69293e-06
7.69974e-06
7.70315e-06
7.70315e-06
7.69974e-06
7.69293e-06
7.68273e-06
7.66917e-06
7.65227e-06
7.63208e-06
7.60865e-06
7.58202e-06
7.55225e-06
7.51942e-06
7.4836e-06
7.44487e-06
7.40332e-06
7.35905e-06
7.31216e-06
7.26275e-06
7.21093e-06
7.15681e-06
7.1005e-06
7.04212e-06
6.98178e-06
6.9196e-06
6.59198e-06
6.65813e-06
6.7208e-06
6.78178e-06
6.84096e-06
6.89822e-06
6.95345e-06
7.00654e-06
7.05738e-06
7.10586e-06
7.15187e-06
7.19531e-06
7.23608e-06
7.27409e-06
7.30925e-06
7.34147e-06
7.37069e-06
7.39683e-06
7.41984e-06
7.43966e-06
7.45624e-06
7.46956e-06
7.47957e-06
7.48626e-06
7.4896e-06
7.4896e-06
7.48626e-06
7.47957e-06
7.46956e-06
7.45624e-06
7.43966e-06
7.41984e-06
7.39683e-06
7.37069e-06
7.34147e-06
7.30925e-06
7.27409e-06
7.23608e-06
7.19531e-06
7.15187e-06
7.10586e-06
7.05738e-06
7.00654e-06
6.95345e-06
6.89822e-06
6.84096e-06
6.78178e-06
6.39753e-06
6.4623e-06
6.52373e-06
6.58352e-06
6.64153e-06
6.69766e-06
6.75181e-06
6.80387e-06
6.85372e-06
6.90127e-06
6.9464e-06
6.98901e-06
7.02901e-06
7.06629e-06
7.10079e-06
7.1324e-06
7.16106e-06
7.18671e-06
7.20929e-06
7.22873e-06
7.24501e-06
7.25807e-06
7.2679e-06
7.27446e-06
7.27775e-06
7.27775e-06
7.27446e-06
7.2679e-06
7.25807e-06
7.24501e-06
7.22873e-06
7.20929e-06
7.18671e-06
7.16106e-06
7.1324e-06
7.10079e-06
7.06629e-06
7.02901e-06
6.98901e-06
6.9464e-06
6.90127e-06
6.85372e-06
6.80387e-06
6.75181e-06
6.69766e-06
6.64153e-06
6.20486e-06
6.26825e-06
6.32844e-06
6.38701e-06
6.44385e-06
6.49886e-06
6.55192e-06
6.60295e-06
6.65181e-06
6.69842e-06
6.74267e-06
6.78445e-06
6.82366e-06
6.86022e-06
6.89405e-06
6.92505e-06
6.95316e-06
6.97832e-06
7.00046e-06
7.01953e-06
7.03549e-06
7.04831e-06
7.05795e-06
7.06438e-06
7.06761e-06
7.06761e-06
7.06438e-06
7.05795e-06
7.04831e-06
7.03549e-06
7.01953e-06
7.00046e-06
6.97832e-06
6.95316e-06
6.92505e-06
6.89405e-06
6.86022e-06
6.82366e-06
6.78445e-06
6.74267e-06
6.69842e-06
6.65181e-06
6.60294e-06
6.55192e-06
6.49886e-06
6.01399e-06
6.076e-06
6.13494e-06
6.1923e-06
6.24797e-06
6.30184e-06
6.35382e-06
6.4038e-06
6.45168e-06
6.49734e-06
6.5407e-06
6.58164e-06
6.62008e-06
6.65591e-06
6.68906e-06
6.71945e-06
6.74701e-06
6.77167e-06
6.79337e-06
6.81207e-06
6.82772e-06
6.84029e-06
6.84974e-06
6.85605e-06
6.85921e-06
6.85921e-06
6.85605e-06
6.84974e-06
6.84029e-06
6.82772e-06
6.81207e-06
6.79337e-06
6.77167e-06
6.74701e-06
6.71945e-06
6.68906e-06
6.65591e-06
6.62008e-06
6.58164e-06
6.5407e-06
6.49734e-06
6.45168e-06
6.4038e-06
6.35382e-06
6.30184e-06
5.82495e-06
5.88558e-06
5.94327e-06
5.99941e-06
6.0539e-06
6.10663e-06
6.15752e-06
6.20646e-06
6.25334e-06
6.29807e-06
6.34053e-06
6.38063e-06
6.41828e-06
6.45339e-06
6.48587e-06
6.51564e-06
6.54264e-06
6.5668e-06
6.58807e-06
6.60639e-06
6.62173e-06
6.63404e-06
6.6433e-06
6.64948e-06
6.65258e-06
6.65258e-06
6.64948e-06
6.6433e-06
6.63404e-06
6.62173e-06
6.60639e-06
6.58807e-06
6.5668e-06
6.54264e-06
6.51564e-06
6.48587e-06
6.45339e-06
6.41828e-06
6.38063e-06
6.34053e-06
6.29807e-06
6.25334e-06
6.20646e-06
6.15752e-06
6.10663e-06
5.63777e-06
5.69702e-06
5.75346e-06
5.80838e-06
5.86168e-06
5.91327e-06
5.96307e-06
6.01096e-06
6.05684e-06
6.10062e-06
6.14219e-06
6.18145e-06
6.21831e-06
6.25268e-06
6.28448e-06
6.31364e-06
6.34008e-06
6.36374e-06
6.38457e-06
6.40251e-06
6.41753e-06
6.42959e-06
6.43866e-06
6.44472e-06
6.44775e-06
6.44775e-06
6.44472e-06
6.43866e-06
6.42959e-06
6.41753e-06
6.40251e-06
6.38457e-06
6.36374e-06
6.34008e-06
6.31364e-06
6.28448e-06
6.25268e-06
6.21831e-06
6.18145e-06
6.14219e-06
6.10062e-06
6.05684e-06
6.01095e-06
5.96306e-06
5.91327e-06
5.45249e-06
5.51036e-06
5.56554e-06
5.61923e-06
5.67134e-06
5.72179e-06
5.77048e-06
5.81732e-06
5.86221e-06
5.90503e-06
5.9457e-06
5.98412e-06
6.02019e-06
6.05383e-06
6.08495e-06
6.11348e-06
6.13936e-06
6.16252e-06
6.18291e-06
6.20047e-06
6.21517e-06
6.22698e-06
6.23586e-06
6.24179e-06
6.24476e-06
6.24476e-06
6.24179e-06
6.23586e-06
6.22698e-06
6.21517e-06
6.20047e-06
6.18291e-06
6.16252e-06
6.13936e-06
6.11348e-06
6.08495e-06
6.05383e-06
6.02019e-06
5.98412e-06
5.9457e-06
5.90503e-06
5.86221e-06
5.81732e-06
5.77048e-06
5.72179e-06
5.26914e-06
5.32563e-06
5.37954e-06
5.432e-06
5.48292e-06
5.53222e-06
5.57981e-06
5.6256e-06
5.66948e-06
5.71135e-06
5.75112e-06
5.78868e-06
5.82396e-06
5.85686e-06
5.8873e-06
5.91521e-06
5.94052e-06
5.96317e-06
5.98312e-06
6.0003e-06
6.01469e-06
6.02624e-06
6.03492e-06
6.04073e-06
6.04363e-06
6.04363e-06
6.04073e-06
6.03492e-06
6.02624e-06
6.01469e-06
6.0003e-06
5.98312e-06
5.96317e-06
5.94052e-06
5.91521e-06
5.8873e-06
5.85686e-06
5.82396e-06
5.78868e-06
5.75112e-06
5.71135e-06
5.66948e-06
5.6256e-06
5.57981e-06
5.53222e-06
5.08776e-06
5.14286e-06
5.19551e-06
5.24673e-06
5.29645e-06
5.3446e-06
5.39109e-06
5.43581e-06
5.47868e-06
5.5196e-06
5.55846e-06
5.59518e-06
5.62965e-06
5.66181e-06
5.69156e-06
5.71885e-06
5.74359e-06
5.76574e-06
5.78524e-06
5.80204e-06
5.81611e-06
5.8274e-06
5.83589e-06
5.84157e-06
5.84441e-06
5.84441e-06
5.84157e-06
5.83589e-06
5.8274e-06
5.81611e-06
5.80204e-06
5.78524e-06
5.76574e-06
5.74359e-06
5.71885e-06
5.69156e-06
5.66181e-06
5.62965e-06
5.59518e-06
5.55846e-06
5.5196e-06
5.47868e-06
5.43581e-06
5.39109e-06
5.3446e-06
4.90838e-06
4.9621e-06
5.01347e-06
5.06345e-06
5.11198e-06
5.15897e-06
5.20434e-06
5.24801e-06
5.28987e-06
5.32982e-06
5.36778e-06
5.40363e-06
5.43731e-06
5.46872e-06
5.49779e-06
5.52444e-06
5.54862e-06
5.57026e-06
5.58931e-06
5.60573e-06
5.61947e-06
5.63051e-06
5.63881e-06
5.64435e-06
5.64713e-06
5.64713e-06
5.64435e-06
5.63881e-06
5.63051e-06
5.61947e-06
5.60573e-06
5.58931e-06
5.57026e-06
5.54862e-06
5.52444e-06
5.49779e-06
5.46872e-06
5.43731e-06
5.40363e-06
5.36778e-06
5.32982e-06
5.28987e-06
5.24801e-06
5.20434e-06
4.73104e-06
4.78339e-06
4.83347e-06
4.88221e-06
4.92953e-06
4.97536e-06
5.01963e-06
5.06223e-06
5.10307e-06
5.14206e-06
5.1791e-06
5.2141e-06
5.24697e-06
5.27763e-06
5.30601e-06
5.33203e-06
5.35563e-06
5.37676e-06
5.39537e-06
5.4114e-06
5.42482e-06
5.4356e-06
5.4437e-06
5.44912e-06
5.45183e-06
5.45183e-06
5.44912e-06
5.4437e-06
5.43559e-06
5.42482e-06
5.4114e-06
5.39537e-06
5.37676e-06
5.35563e-06
5.33203e-06
5.30601e-06
5.27763e-06
5.24697e-06
5.2141e-06
5.1791e-06
5.14206e-06
5.10307e-06
5.06222e-06
5.01962e-06
4.55579e-06
4.60675e-06
4.65555e-06
4.70304e-06
4.74915e-06
4.79383e-06
4.83697e-06