/*--------------------------------*- C++ -*----------------------------------*\
  =========                 |
  \\      /  F ield         | OpenFOAM: The Open Source CFD Toolbox
   \\    /   O peration     | Website:  https://openfoam.org
    \\  /    A nd           | Version:  7
     \\/     M anipulation  |
\*---------------------------------------------------------------------------*/
FoamFile
{
    version     2.0;
    format      ascii;
    class       volVectorField;
    location    "156000";
    object      U;
}
// * * * * * * * * * * * * * * * * * * * * * * * * * * * * * * * * * * * * * //

dimensions      [0 1 -1 0 0 0 0];

internalField   nonuniform List<vector> 
4825
(
(-1.44453e-18 2.13825e-19 -0.0125175)
(-6.21129e-19 -9.13214e-19 -0.0125394)
(-1.54177e-18 1.96946e-19 -0.0124637)
(-6.48543e-19 -9.0234e-19 -0.0124857)
(-1.51934e-18 2.64891e-19 -0.0125071)
(-7.23749e-19 1.0993e-19 -0.012528)
(-6.8607e-19 -1.03219e-18 -0.0125482)
(-1.67624e-18 2.92021e-19 -0.0124094)
(-8.03783e-19 -7.45493e-19 -0.0124315)
(-1.35279e-18 8.64367e-20 -0.012453)
(-8.84471e-19 1.44052e-19 -0.0124739)
(-6.03825e-19 -1.15717e-18 -0.0124942)
(-1.97239e-18 6.25871e-19 -0.0123546)
(-9.22171e-19 -7.01583e-19 -0.0123768)
(-1.40528e-18 1.75718e-19 -0.0123984)
(-9.43802e-19 7.29486e-20 -0.0124194)
(-7.03764e-19 -1.06502e-18 -0.0124398)
(-1.94466e-18 5.81798e-19 -0.0122994)
(-8.58483e-19 -8.83613e-19 -0.0123216)
(-1.45912e-18 2.52507e-19 -0.0123433)
(-9.58696e-19 -8.70113e-20 -0.0123644)
(-7.61943e-19 -9.65922e-19 -0.0123848)
(-1.53234e-18 4.7845e-20 -0.0122436)
(-7.77851e-19 -1.06173e-18 -0.0122659)
(-1.2906e-18 6.43641e-20 -0.0122877)
(-9.45101e-19 -2.58406e-19 -0.0123088)
(-6.95733e-19 -1.06152e-18 -0.0123293)
(-1.23507e-18 -3.7707e-19 -0.0121874)
(-6.74584e-19 -1.22065e-18 -0.0122097)
(-1.12147e-18 -1.39678e-19 -0.0122316)
(-8.15595e-19 -5.93073e-19 -0.0122528)
(-5.48091e-19 -1.23872e-18 -0.0122734)
(-1.25129e-18 -4.44364e-19 -0.0121306)
(-6.70961e-19 -1.26448e-18 -0.012153)
(-1.07119e-18 -2.08051e-19 -0.0121749)
(-7.9225e-19 -7.77354e-19 -0.0121962)
(-4.72432e-19 -1.29093e-18 -0.0122168)
(-1.42299e-18 -2.79315e-19 -0.0120732)
(-9.70805e-19 -9.51137e-19 -0.0120957)
(-1.04505e-18 -2.54187e-19 -0.0121177)
(-9.0356e-19 -7.90021e-19 -0.0121391)
(-4.83278e-19 -1.26742e-18 -0.0121598)
(-1.48197e-18 -1.74627e-19 -0.0120153)
(-1.48051e-18 -4.34337e-19 -0.0120379)
(-1.03816e-18 -3.36365e-19 -0.01206)
(-1.08344e-18 -6.8807e-19 -0.0120814)
(-4.95377e-19 -1.17184e-18 -0.0121022)
(-1.23632e-18 -3.57092e-19 -0.0119569)
(-1.91648e-18 6.36783e-21 -0.0119795)
(-1.1585e-18 -2.93409e-19 -0.0120016)
(-1.32307e-18 -5.02849e-19 -0.0120231)
(-5.69542e-19 -9.9179e-19 -0.012044)
(-9.4989e-19 -5.74413e-19 -0.0118978)
(-2.02003e-18 1.07173e-19 -0.0119206)
(-1.2798e-18 -2.73026e-19 -0.0119427)
(-1.4363e-18 -4.80806e-19 -0.0119643)
(-5.90077e-19 -8.71778e-19 -0.0119852)
(-7.95812e-19 -6.68402e-19 -0.0118382)
(-1.83716e-18 -1.13684e-19 -0.011861)
(-1.25574e-18 -4.276e-19 -0.0118832)
(-1.49968e-18 -5.36895e-19 -0.0119049)
(-5.7215e-19 -8.09522e-19 -0.0119258)
(-7.05042e-19 -7.42053e-19 -0.0117779)
(-1.62114e-18 -3.85985e-19 -0.0118008)
(-1.07679e-18 -7.44139e-19 -0.0118231)
(-1.55499e-18 -5.69448e-19 -0.0118448)
(-5.89522e-19 -8.71928e-19 -0.011717)
(-1.58537e-18 -4.71708e-19 -0.01174)
(-9.48101e-19 -9.74999e-19 -0.0117624)
(-1.71856e-18 -4.15713e-19 -0.0117841)
(-4.95812e-19 -9.70273e-19 -0.0116555)
(-1.71509e-18 -3.47887e-19 -0.0116785)
(-9.84396e-19 -9.71787e-19 -0.011701)
(-1.99244e-18 -6.67153e-20 -0.0117228)
(-4.55897e-19 -9.99787e-19 -0.0115933)
(-1.89207e-18 -1.56468e-19 -0.0116164)
(-1.01462e-18 -9.61521e-19 -0.0116389)
(-4.86392e-19 -9.55717e-19 -0.0115304)
(-1.98311e-18 -6.57857e-20 -0.0115535)
(-9.47082e-19 -1.06599e-18 -0.0115761)
(-5.83527e-19 -8.57875e-19 -0.0114667)
(-1.98902e-18 -1.01858e-19 -0.01149)
(-6.04158e-19 -8.14198e-19 -0.0114024)
(-1.99631e-18 -1.72233e-19 -0.0114257)
(-5.88045e-19 -7.95042e-19 -0.0113372)
(-1.95876e-18 -2.86037e-19 -0.0113607)
(-6.88674e-19 -6.63474e-19 -0.0112713)
(-1.91088e-18 -4.08903e-19 -0.0112948)
(-9.3976e-19 -3.80261e-19 -0.0112046)
(-1.8308e-18 -6.13054e-19 -0.0112282)
(-1.0883e-18 -2.21935e-19 -0.011137)
(-7.81579e-19 -9.00926e-19 -0.0132775)
(-5.67315e-19 -2.83402e-19 -0.0132988)
(-2.35639e-19 -3.68072e-19 -0.0133195)
(-1.12422e-18 -1.33648e-19 -0.0133396)
(-9.31345e-19 -5.51944e-19 -0.0133591)
(1.0104e-20 -2.28674e-19 -0.013378)
(-6.86435e-19 -2.26558e-19 -0.0133962)
(-7.7323e-20 3.94388e-20 -0.0134136)
(-1.22381e-18 8.45971e-21 -0.0134302)
(-3.37663e-19 4.55349e-19 -0.013446)
(-8.01372e-19 1.60874e-19 -0.013461)
(-9.74391e-19 1.2699e-19 -0.0134751)
(-8.11902e-19 -6.23333e-19 -0.0134883)
(-1.00504e-18 -5.46759e-19 -0.0135005)
(-1.75822e-18 -1.97103e-19 -0.0135119)
(-1.62561e-18 7.97748e-19 -0.0135222)
(-1.71917e-18 1.10623e-18 -0.0135316)
(-1.13393e-18 1.22913e-18 -0.01354)
(-7.43776e-19 4.79413e-19 -0.0135473)
(-4.55521e-19 4.7292e-19 -0.0135536)
(-7.10189e-19 -8.33372e-19 -0.0132292)
(-7.25028e-19 -5.03905e-19 -0.0132506)
(-2.48514e-19 -3.42598e-19 -0.0132713)
(-1.23746e-18 -1.87451e-19 -0.0132915)
(-4.1195e-19 -3.45808e-19 -0.0133111)
(1.18508e-19 -1.72999e-19 -0.01333)
(-7.16485e-19 -2.34225e-19 -0.0133482)
(-2.36495e-19 -9.47052e-22 -0.0133656)
(-1.37011e-18 -6.2746e-20 -0.0133823)
(-3.38489e-19 4.07564e-19 -0.0133982)
(-8.07405e-19 2.31417e-19 -0.0134132)
(-7.52064e-19 2.06341e-19 -0.0134273)
(-3.07089e-19 -4.26769e-19 -0.0134405)
(-1.06299e-18 -4.88088e-19 -0.0134528)
(-1.65234e-18 -1.0545e-19 -0.0134642)
(-2.07101e-18 6.62333e-19 -0.0134746)
(-1.45002e-18 1.10872e-18 -0.013484)
(-1.13476e-18 1.18531e-18 -0.0134923)
(-6.50018e-19 4.73457e-19 -0.0134997)
(-7.58819e-19 3.96628e-19 -0.0135061)
(-6.85286e-19 -7.27871e-19 -0.0131807)
(-9.59393e-19 -7.8327e-19 -0.0132021)
(4.18772e-20 -1.68963e-19 -0.0132229)
(-9.81277e-19 -1.82656e-20 -0.0132431)
(-5.06233e-20 -2.33538e-19 -0.0132627)
(1.669e-19 -1.20324e-19 -0.0132817)
(-5.22401e-19 -9.04614e-20 -0.0132999)
(-3.79462e-19 -2.44508e-20 -0.0133174)
(-1.49735e-18 -1.38752e-19 -0.0133341)
(-3.41936e-19 3.46793e-19 -0.01335)
(-8.21843e-19 2.51869e-19 -0.013365)
(-6.34075e-19 2.28204e-19 -0.0133792)
(-1.9744e-19 -3.25305e-19 -0.0133925)
(-1.2254e-18 -4.33605e-19 -0.0134048)
(-1.6676e-18 -5.16888e-20 -0.0134162)
(-1.98414e-18 6.54968e-19 -0.0134266)
(-1.33274e-18 1.06772e-18 -0.013436)
(-1.06331e-18 1.17604e-18 -0.0134444)
(-6.07502e-19 4.85574e-19 -0.0134518)
(-9.57951e-19 3.21357e-19 -0.0134582)
(-6.40044e-19 -5.74562e-19 -0.0131318)
(-8.07712e-19 -8.11857e-19 -0.0131532)
(3.04482e-19 -7.85226e-20 -0.0131741)
(-6.69287e-19 2.18403e-19 -0.0131944)
(2.67486e-20 -2.71209e-19 -0.013214)
(2.45773e-19 -5.96583e-20 -0.013233)
(-2.89594e-19 9.41675e-20 -0.0132513)
(-4.1281e-19 8.17204e-20 -0.0132688)
(-1.81108e-18 -3.12229e-19 -0.0132856)
(-3.8872e-19 2.46889e-19 -0.0133015)
(-9.48452e-19 2.41654e-19 -0.0133166)
(-7.51183e-19 1.47727e-19 -0.0133308)
(-3.53266e-19 -3.25257e-19 -0.0133441)
(-1.25447e-18 -3.3802e-19 -0.0133564)
(-1.55677e-18 4.06611e-21 -0.0133678)
(-1.73059e-18 6.9112e-19 -0.0133783)
(-1.19016e-18 1.0388e-18 -0.0133877)
(-8.90944e-19 1.18079e-18 -0.0133961)
(-5.56394e-19 5.23332e-19 -0.0134036)
(-1.06706e-18 2.25024e-19 -0.0134099)
(-3.78773e-19 -3.11776e-19 -0.0130826)
(-6.52426e-19 -8.10771e-19 -0.0131041)
(4.0526e-19 -1.04705e-19 -0.013125)
(-5.0074e-19 3.74417e-19 -0.0131453)
(-2.67409e-20 -3.69678e-19 -0.013165)
(3.61909e-19 -9.91599e-21 -0.013184)
(-3.29747e-19 1.21534e-19 -0.0132023)
(-4.46008e-19 2.50184e-19 -0.0132199)
(-1.83556e-18 -3.10522e-19 -0.0132367)
(-5.06511e-19 8.78206e-20 -0.0132527)
(-1.12851e-18 2.03498e-19 -0.0132678)
(-8.19992e-19 1.03193e-19 -0.013282)
(-4.67647e-19 -3.32354e-19 -0.0132953)
(-1.13163e-18 -2.3373e-19 -0.0133077)
(-1.2383e-18 1.16274e-19 -0.0133192)
(-1.43088e-18 7.38025e-19 -0.0133296)
(-1.11056e-18 9.98877e-19 -0.0133391)
(-8.383e-19 1.17861e-18 -0.0133475)
(-5.80444e-19 5.74846e-19 -0.013355)
(-1.17579e-18 1.21207e-19 -0.0133614)
(-1.65569e-19 -1.01575e-19 -0.0130331)
(-7.25515e-19 -9.58157e-19 -0.0130545)
(4.20531e-19 -2.18698e-19 -0.0130755)
(-4.67852e-19 4.5205e-19 -0.0130959)
(-9.8868e-20 -4.82321e-19 -0.0131156)
(3.98042e-19 9.43198e-21 -0.0131347)
(-7.03273e-19 -3.08322e-20 -0.0131531)
(-5.68674e-19 3.13947e-19 -0.0131707)
(-1.52822e-18 -1.23099e-19 -0.0131875)
(-4.39226e-19 7.1417e-20 -0.0132035)
(-1.4463e-18 9.50523e-20 -0.0132187)
(-9.41262e-19 1.04704e-20 -0.0132329)
(-4.54685e-19 -3.11385e-19 -0.0132463)
(-1.11367e-18 -2.00639e-19 -0.0132587)
(-1.05846e-18 1.67869e-19 -0.0132702)
(-1.22935e-18 8.03979e-19 -0.0132806)
(-1.02829e-18 9.9394e-19 -0.0132901)
(-9.366e-19 1.1381e-18 -0.0132986)
(-7.55048e-19 6.01151e-19 -0.0133061)
(-1.10965e-18 5.12901e-20 -0.0133125)
(-1.78006e-21 6.04271e-20 -0.0129832)
(-7.54531e-19 -1.03468e-18 -0.0130047)
(3.75102e-19 -3.95928e-19 -0.0130257)
(-4.55284e-19 5.1538e-19 -0.0130461)
(-1.56632e-19 -5.76141e-19 -0.0130659)
(2.75541e-19 -3.81567e-20 -0.013085)
(-1.22187e-18 -2.58809e-19 -0.0131034)
(-6.45782e-19 3.22565e-19 -0.0131211)
(-1.36155e-18 -4.54115e-20 -0.013138)
(-1.55715e-19 2.27695e-19 -0.013154)
(-1.76986e-18 3.06284e-20 -0.0131692)
(-1.02884e-18 -1.03688e-19 -0.0131835)
(-4.8951e-19 -3.20033e-19 -0.0131969)
(-1.13564e-18 -1.72969e-19 -0.0132093)
(-9.66655e-19 1.78988e-19 -0.0132208)
(-1.19331e-18 7.93471e-19 -0.0132313)
(-7.78194e-19 1.047e-18 -0.0132408)
(-9.43986e-19 1.16413e-18 -0.0132493)
(-6.89551e-19 6.43579e-19 -0.0132568)
(-1.00333e-18 -1.31122e-20 -0.0132632)
(-4.6236e-20 7.20616e-20 -0.0129329)
(-6.48329e-19 -9.64042e-19 -0.0129545)
(2.23076e-19 -6.58308e-19 -0.0129755)
(-3.78916e-19 6.18176e-19 -0.012996)
(-3.87581e-19 -7.62609e-19 -0.0130158)
(-9.39768e-20 -1.8769e-19 -0.013035)
(-1.6732e-18 -4.65553e-19 -0.0130535)
(-6.46543e-19 3.19243e-19 -0.0130712)
(-1.48056e-18 -1.43792e-19 -0.0130881)
(-2.14764e-21 3.42201e-19 -0.0131041)
(-1.94226e-18 6.66765e-20 -0.0131194)
(-8.43374e-19 -1.21411e-19 -0.0131337)
(-6.72207e-19 -3.91078e-19 -0.0131471)
(-9.48089e-19 -1.015e-19 -0.0131596)
(-7.4704e-19 2.34818e-19 -0.0131711)
(-1.1883e-18 7.72611e-19 -0.0131816)
(-7.47259e-19 1.03296e-18 -0.0131912)
(-8.22252e-19 1.20366e-18 -0.0131997)
(-4.64086e-19 7.29567e-19 -0.0132072)
(-1.11299e-18 -7.198e-20 -0.0132136)
(-8.1226e-20 6.54678e-19 -0.013219)
(-3.44672e-19 4.85503e-19 -0.0132233)
(-1.23172e-19 2.07848e-19 -0.0132265)
(1.86799e-19 7.37388e-19 -0.0132287)
(1.84122e-19 3.92426e-19 -0.0132298)
(2.77879e-19 -6.40459e-19 -0.0132298)
(-5.49194e-19 1.50964e-19 -0.0132287)
(5.98755e-20 -6.47581e-19 -0.0132265)
(-6.244e-19 -4.45152e-19 -0.0132233)
(1.17735e-19 -4.8078e-19 -0.013219)
(-1.28801e-19 -1.019e-19 -0.0132136)
(1.66924e-19 2.92253e-19 -0.0132072)
(-3.25842e-19 -8.17172e-19 -0.0131997)
(-4.47333e-19 -2.29698e-19 -0.0131912)
(-6.40755e-19 4.25246e-19 -0.0131816)
(-4.49782e-19 -2.35597e-19 -0.0128823)
(-3.88394e-19 -7.56121e-19 -0.0129039)
(-2.9117e-20 -9.93333e-19 -0.012925)
(-3.27797e-19 7.14245e-19 -0.0129455)
(-7.83756e-19 -9.90255e-19 -0.0129654)
(-3.3854e-19 -2.74562e-19 -0.0129846)
(-1.73843e-18 -4.95008e-19 -0.0130031)
(-5.90872e-19 3.39441e-19 -0.0130209)
(-1.61942e-18 -2.56364e-19 -0.0130378)
(-5.13822e-20 3.3828e-19 -0.0130539)
(-2.07691e-18 9.28395e-20 -0.0130692)
(-3.71307e-19 1.70207e-21 -0.0130835)
(-9.31708e-19 -4.8931e-19 -0.013097)
(-7.32881e-19 -6.44553e-20 -0.0131095)
(-5.42973e-19 3.12187e-19 -0.013121)
(-1.0658e-18 8.16061e-19 -0.0131316)
(-8.71068e-19 9.71544e-19 -0.0131412)
(-7.58308e-19 1.21292e-18 -0.0131497)
(-2.90498e-19 8.33757e-19 -0.0131572)
(-1.20451e-18 -1.01739e-19 -0.0131636)
(-1.93983e-19 5.84004e-19 -0.013169)
(-4.24769e-19 4.89904e-19 -0.0131733)
(-2.38186e-19 1.60371e-19 -0.0131766)
(1.25349e-19 7.04634e-19 -0.0131788)
(4.035e-19 3.97848e-19 -0.0131798)
(2.03949e-20 -5.66249e-19 -0.0131798)
(-6.81022e-19 1.73467e-19 -0.0131788)
(8.41164e-20 -6.51973e-19 -0.0131766)
(-7.93112e-19 -4.3741e-19 -0.0131733)
(-2.90208e-19 -4.69783e-19 -0.013169)
(-3.56295e-19 -8.65558e-20 -0.0131636)
(4.09536e-19 2.28131e-19 -0.0131572)
(-4.26777e-20 -8.30999e-19 -0.0131497)
(-4.31513e-19 -1.76107e-19 -0.0131412)
(-4.56652e-19 3.9785e-19 -0.0131316)
(-5.42711e-19 -9.61868e-21 -0.013121)
(-3.61072e-20 -4.05184e-19 -0.0131095)
(-7.98415e-19 -5.0729e-19 -0.0128314)
(-9.54847e-20 -5.50676e-19 -0.012853)
(-3.49795e-19 -1.34213e-18 -0.0128741)
(-3.95795e-19 7.2476e-19 -0.0128947)
(-9.34214e-19 -1.05971e-18 -0.0129146)
(-3.71052e-19 -2.79067e-19 -0.0129339)
(-1.51908e-18 -3.62789e-19 -0.0129524)
(-4.97858e-19 4.04654e-19 -0.0129702)
(-1.59708e-18 -2.66414e-19 -0.0129872)
(-2.81915e-19 2.57053e-19 -0.0130033)
(-2.14933e-18 8.63374e-20 -0.0130186)
(5.41163e-21 9.18327e-20 -0.013033)
(-1.15101e-18 -5.29148e-19 -0.0130465)
(-5.66125e-19 -8.39296e-20 -0.0130591)
(-5.00128e-19 3.259e-19 -0.0130706)
(-8.89291e-19 8.99468e-19 -0.0130812)
(-9.84695e-19 9.33078e-19 -0.0130908)
(-8.98575e-19 1.14506e-18 -0.0130993)
(-2.42322e-19 9.13119e-19 -0.0131068)
(-1.0977e-18 -7.50995e-20 -0.0131133)
(-1.48224e-19 5.27617e-19 -0.0131187)
(-3.3904e-19 5.19504e-19 -0.013123)
(-2.25413e-19 1.31439e-19 -0.0131263)
(8.75072e-20 6.69942e-19 -0.0131285)
(3.21614e-19 4.28219e-19 -0.0131296)
(-1.41536e-19 -4.9068e-19 -0.0131296)
(-7.01972e-19 1.39881e-19 -0.0131285)
(3.78487e-19 -6.83782e-19 -0.0131263)
(-7.77339e-19 -3.87817e-19 -0.013123)
(-4.78552e-19 -4.80154e-19 -0.0131187)
(-4.25538e-19 -1.48687e-19 -0.0131133)
(4.94966e-19 1.66756e-19 -0.0131068)
(1.52723e-19 -8.19585e-19 -0.0130993)
(-5.94377e-19 -6.57947e-20 -0.0130908)
(-2.45603e-19 3.79154e-19 -0.0130812)
(-5.70803e-19 -4.57098e-20 -0.0130706)
(3.7616e-21 -4.37986e-19 -0.0130591)
(-1.88865e-19 -9.7198e-20 -0.0130465)
(-8.67848e-19 -5.50982e-19 -0.0127801)
(1.97283e-19 -3.0876e-19 -0.0128017)
(-5.76099e-19 -1.58453e-18 -0.0128229)
(-4.4153e-19 6.97508e-19 -0.0128435)
(-6.45878e-19 -8.3087e-19 -0.0128635)
(-2.26927e-19 -1.96343e-19 -0.0128828)
(-1.2262e-18 -2.06913e-19 -0.0129013)
(-7.26475e-19 3.08889e-19 -0.0129192)
(-1.34309e-18 -1.20014e-19 -0.0129362)
(-4.95552e-19 1.88482e-19 -0.0129524)
(-1.90463e-18 1.78532e-19 -0.0129677)
(8.03074e-20 8.03669e-20 -0.0129822)
(-1.1629e-18 -4.93888e-19 -0.0129957)
(-4.20465e-19 -1.16052e-19 -0.0130082)
(-7.52755e-19 2.52272e-19 -0.0130198)
(-1.14727e-18 8.63724e-19 -0.0130304)
(-1.19106e-18 9.07219e-19 -0.01304)
(-1.05334e-18 1.07727e-18 -0.0130486)
(-3.69636e-19 9.20615e-19 -0.0130561)
(-8.84798e-19 -5.00126e-20 -0.0130626)
(-1.47701e-19 4.73777e-19 -0.013068)
(-4.19408e-19 5.28221e-19 -0.0130724)
(-1.29113e-19 1.19216e-19 -0.0130756)
(7.86775e-20 6.52521e-19 -0.0130778)
(2.03695e-19 4.48574e-19 -0.0130789)
(-7.72144e-20 -4.31298e-19 -0.0130789)
(-6.84849e-19 8.13505e-20 -0.0130778)
(6.39768e-19 -7.12198e-19 -0.0130756)
(-7.48114e-19 -3.23557e-19 -0.0130724)
(-2.7127e-19 -5.37913e-19 -0.013068)
(-4.37256e-19 -2.13027e-19 -0.0130626)
(3.77373e-19 1.3046e-19 -0.0130561)
(2.60248e-19 -7.50563e-19 -0.0130486)
(-7.28099e-19 2.20241e-20 -0.01304)
(2.59947e-20 3.01605e-19 -0.0130304)
(-2.94998e-19 -1.42868e-19 -0.0130198)
(-6.25737e-20 -4.50868e-19 -0.0130082)
(-2.07247e-19 -8.7184e-20 -0.0129957)
(2.87214e-19 1.62922e-19 -0.0129822)
(-1.39032e-20 1.07662e-18 -0.0129677)
(-8.66539e-19 -5.75608e-19 -0.0127284)
(4.41854e-19 -9.36042e-20 -0.0127501)
(-6.30617e-19 -1.65413e-18 -0.0127713)
(-4.744e-19 6.09492e-19 -0.0127919)
(-1.60165e-19 -5.12009e-19 -0.0128119)
(-6.88912e-20 -7.86696e-20 -0.0128313)
(-1.07508e-18 -4.46411e-20 -0.0128499)
(-1.403e-18 -4.55216e-20 -0.0128678)
(-1.05134e-18 2.54557e-21 -0.0128848)
(-3.26544e-19 3.05333e-19 -0.0129011)
(-1.56082e-18 3.10994e-19 -0.0129164)
(1.89286e-20 3.68542e-20 -0.0129309)
(-9.59242e-19 -3.8232e-19 -0.0129444)
(-6.47479e-19 -2.3259e-19 -0.012957)
(-1.21611e-18 1.66539e-19 -0.0129686)
(-1.44742e-18 8.05613e-19 -0.0129793)
(-1.34588e-18 8.45668e-19 -0.0129889)
(-9.20607e-19 1.05656e-18 -0.0129975)
(-4.92186e-19 9.1023e-19 -0.013005)
(-7.03713e-19 -2.88047e-20 -0.0130115)
(-3.00847e-19 4.35018e-19 -0.0130169)
(-5.55397e-19 5.18936e-19 -0.0130213)
(-8.72042e-20 8.07396e-20 -0.0130246)
(1.18773e-19 6.51209e-19 -0.0130268)
(1.13185e-19 4.64668e-19 -0.0130278)
(-7.8711e-20 -3.81656e-19 -0.0130278)
(-6.25589e-19 1.07261e-20 -0.0130268)
(8.02153e-19 -7.3751e-19 -0.0130246)
(-4.69087e-19 -2.92235e-19 -0.0130213)
(-4.10744e-21 -6.03486e-19 -0.0130169)
(-3.30546e-19 -2.53864e-19 -0.0130115)
(2.18734e-19 9.98323e-20 -0.013005)
(1.61813e-19 -6.66852e-19 -0.0129975)
(-5.72626e-19 2.26472e-20 -0.0129889)
(3.99754e-22 2.78558e-19 -0.0129793)
(7.26603e-20 -2.45431e-19 -0.0129686)
(-4.24754e-20 -4.27666e-19 -0.012957)
(-2.43857e-19 -7.62684e-20 -0.0129444)
(2.25839e-19 2.08828e-19 -0.0129309)
(4.1637e-19 9.75635e-19 -0.0129164)
(-5.75947e-19 -4.90589e-19 -0.0129011)
(-3.67468e-19 -2.42221e-19 -0.0128848)
(-8.3511e-19 -5.87574e-19 -0.0126763)
(4.91836e-19 -3.33899e-20 -0.012698)
(-6.23005e-19 -1.64856e-18 -0.0127193)
(-5.17255e-19 4.66499e-19 -0.0127399)
(-1.3686e-19 -5.14029e-19 -0.01276)
(-3.96146e-19 -2.37066e-19 -0.0127794)
(-9.72725e-19 1.62129e-19 -0.0127981)
(-1.94334e-18 -3.30431e-19 -0.012816)
(-9.17845e-19 -7.20363e-20 -0.0128331)
(-1.89125e-19 3.96991e-19 -0.0128493)
(-1.16167e-18 5.16922e-19 -0.0128647)
(-1.37289e-19 -4.27645e-20 -0.0128792)
(-1.01144e-18 -3.32686e-19 -0.0128928)
(-1.16216e-18 -3.86753e-19 -0.0129054)
(-1.32014e-18 1.46962e-19 -0.0129171)
(-1.32335e-18 8.3122e-19 -0.0129277)
(-1.39412e-18 7.9335e-19 -0.0129374)
(-6.59377e-19 1.07327e-18 -0.012946)
(-7.24708e-19 8.90128e-19 -0.0129535)
(-5.75219e-19 -1.14654e-20 -0.0129601)
(-4.948e-19 4.03366e-19 -0.0129655)
(-3.69121e-19 5.25137e-19 -0.0129699)
(-1.83214e-19 2.75247e-20 -0.0129731)
(1.83996e-19 6.55822e-19 -0.0129753)
(1.32541e-19 4.9115e-19 -0.0129764)
(3.88817e-20 -3.48544e-19 -0.0129764)
(-5.27818e-19 -7.90781e-20 -0.0129753)
(8.02783e-19 -7.81479e-19 -0.0129731)
(-2.27005e-19 -2.6608e-19 -0.0129699)
(1.34273e-19 -6.27849e-19 -0.0129655)
(-2.59323e-19 -2.66307e-19 -0.0129601)
(2.45366e-19 6.92878e-20 -0.0129535)
(-2.32215e-20 -5.79231e-19 -0.012946)
(-3.20601e-19 -5.29683e-22 -0.0129374)
(-3.26797e-19 3.31743e-19 -0.0129277)
(1.49251e-19 -2.82228e-19 -0.0129171)
(5.73983e-21 -4.12757e-19 -0.0129054)
(-1.63378e-19 -8.98109e-20 -0.0128928)
(2.78174e-20 2.81134e-19 -0.0128792)
(7.7187e-19 8.74521e-19 -0.0128647)
(-1.77525e-19 -6.52962e-19 -0.0128493)
(-2.47645e-19 -3.28307e-19 -0.0128331)
(8.24019e-20 -7.3404e-19 -0.012816)
(-4.92563e-19 -5.74526e-19 -0.0127981)
(-9.21247e-19 -9.25496e-19 -0.0127794)
(-7.3824e-19 -5.4403e-19 -0.0126238)
(4.37815e-19 -5.68328e-20 -0.0126455)
(-4.00373e-19 -1.47161e-18 -0.0126668)
(-7.03941e-19 2.635e-19 -0.0126876)
(-4.23898e-19 -6.81947e-19 -0.0127077)
(-6.32849e-19 -4.02032e-19 -0.0127271)
(-8.17751e-19 3.73165e-19 -0.0127458)
(-2.05437e-18 -3.52111e-19 -0.0127638)
(-1.14333e-18 -3.43057e-19 -0.0127809)
(-4.25611e-19 2.60662e-19 -0.0127972)
(-8.18391e-19 7.0419e-19 -0.0128127)
(-5.44679e-19 -1.50456e-19 -0.0128272)
(-1.34516e-18 -3.66632e-19 -0.0128408)
(-1.39553e-18 -4.95815e-19 -0.0128535)
(-1.11673e-18 1.67128e-19 -0.0128651)
(-1.12042e-18 9.07655e-19 -0.0128758)
(-1.43566e-18 7.41187e-19 -0.0128855)
(-6.71289e-19 1.04666e-18 -0.0128941)
(-8.31099e-19 9.03408e-19 -0.0129017)
(-4.10192e-19 1.95782e-21 -0.0129082)
(-6.97723e-19 3.4914e-19 -0.0129136)
(-1.46136e-19 5.38563e-19 -0.012918)
(-3.88729e-19 -1.08562e-20 -0.0129213)
(3.61048e-19 6.43413e-19 -0.0129235)
(2.88483e-19 5.0222e-19 -0.0129246)
(1.54411e-19 -3.15285e-19 -0.0129246)
(-3.85828e-19 -1.39689e-19 -0.0129235)
(6.78525e-19 -8.08484e-19 -0.0129213)
(-1.86031e-19 -2.31248e-19 -0.012918)
(1.02099e-19 -6.30393e-19 -0.0129136)
(-2.75831e-19 -2.70052e-19 -0.0129082)
(3.09431e-19 3.78096e-20 -0.0129017)
(-1.47561e-19 -5.21643e-19 -0.0128941)
(-1.57871e-19 1.83621e-20 -0.0128855)
(-4.77745e-19 3.67539e-19 -0.0128758)
(6.81665e-20 -3.00539e-19 -0.0128651)
(8.38985e-20 -4.0972e-19 -0.0128534)
(-4.00339e-19 3.53751e-20 -0.0128408)
(-1.45739e-19 3.32463e-19 -0.0128272)
(7.57327e-19 8.74644e-19 -0.0128127)
(3.10262e-19 -8.51745e-19 -0.0127972)
(-1.80595e-19 -3.83189e-19 -0.0127809)
(5.00649e-19 -9.63661e-19 -0.0127638)
(-3.9025e-19 -5.91984e-19 -0.0127458)
(-3.56042e-19 -1.18538e-18 -0.0127271)
(-1.84321e-18 -5.13529e-19 -0.0127077)
(-9.88918e-19 -8.49896e-19 -0.0126876)
(-6.67296e-19 -5.27357e-19 -0.0125708)
(4.47553e-19 -5.91624e-20 -0.0125927)
(-1.67858e-19 -1.2566e-18 -0.012614)
(-8.23484e-19 1.64216e-19 -0.0126348)
(-4.28927e-19 -7.03061e-19 -0.012655)
(-6.57738e-19 -4.64793e-19 -0.0126744)
(-8.47322e-19 4.74187e-19 -0.0126932)
(-1.75987e-18 -8.11164e-20 -0.0127112)
(-1.36853e-18 -5.76824e-19 -0.0127284)
(-7.65151e-19 9.65376e-21 -0.0127447)
(-9.08919e-19 7.14092e-19 -0.0127602)
(-8.6498e-19 -1.83996e-19 -0.0127747)
(-1.36587e-18 -3.27573e-19 -0.0127884)
(-1.15064e-18 -4.69312e-19 -0.0128011)
(-1.14635e-18 9.76513e-20 -0.0128128)
(-9.77445e-19 9.77825e-19 -0.0128235)
(-1.37776e-18 7.5196e-19 -0.0128331)
(-1.15617e-18 9.06686e-19 -0.0128418)
(-6.09688e-19 9.44282e-19 -0.0128494)
(-3.00486e-19 3.08989e-20 -0.0128559)
(-7.19389e-19 3.30579e-19 -0.0128614)
(-1.90837e-19 5.22851e-19 -0.0128658)
(-5.59872e-19 -6.16312e-20 -0.0128691)
(5.72121e-19 6.01939e-19 -0.0128713)
(4.82751e-19 5.39851e-19 -0.0128724)
(6.68225e-20 -2.79587e-19 -0.0128724)
(-1.0752e-19 -2.05504e-19 -0.0128713)
(5.82844e-19 -8.31242e-19 -0.0128691)
(-1.96982e-19 -1.93013e-19 -0.0128658)
(-8.40399e-20 -6.05594e-19 -0.0128614)
(-2.29359e-19 -2.92301e-19 -0.0128559)
(2.69452e-19 3.74277e-20 -0.0128494)
(-1.63214e-19 -4.83255e-19 -0.0128418)
(-2.8272e-19 9.53244e-20 -0.0128331)
(-3.50348e-19 3.25871e-19 -0.0128235)
(-1.30981e-19 -2.85791e-19 -0.0128128)
(5.34474e-20 -3.40167e-19 -0.0128011)
(-6.59261e-19 1.87986e-19 -0.0127884)
(-2.18976e-19 3.1642e-19 -0.0127747)
(5.45467e-19 9.17697e-19 -0.0127602)
(5.78287e-19 -9.65907e-19 -0.0127447)
(-1.50315e-19 -4.14254e-19 -0.0127284)
(4.57516e-19 -9.32569e-19 -0.0127112)
(-3.51452e-19 -5.73107e-19 -0.0126932)
(-9.8787e-20 -1.31087e-18 -0.0126744)
(-1.29415e-18 -8.58073e-19 -0.012655)
(-8.46779e-19 -9.65105e-19 -0.0126348)
(-1.1774e-18 -2.24888e-19 -0.012614)
(-1.11104e-18 1.31675e-19 -0.0125927)
(-1.79141e-18 -4.95284e-19 -0.0125708)
(-7.08412e-19 -6.13516e-19 -0.0125175)
(4.5965e-19 -7.1049e-20 -0.0125394)
(-1.21821e-19 -1.18856e-18 -0.0125608)
(-8.31164e-19 1.40805e-19 -0.0125816)
(-2.1995e-19 -5.52978e-19 -0.0126018)
(-7.28095e-19 -5.33557e-19 -0.0126213)
(-8.39525e-19 5.27507e-19 -0.0126401)
(-1.45926e-18 1.82143e-19 -0.0126582)
(-1.19835e-18 -5.14858e-19 -0.0126754)
(-7.96243e-19 -6.4535e-20 -0.0126918)
(-1.08773e-18 6.51734e-19 -0.0127073)
(-8.72046e-19 -1.33732e-19 -0.0127219)
(-1.08487e-18 -2.10085e-19 -0.0127356)
(-7.94856e-19 -3.69989e-19 -0.0127483)
(-1.17906e-18 5.45747e-20 -0.01276)
(-1.17131e-18 9.26875e-19 -0.0127707)
(-1.37669e-18 8.08313e-19 -0.0127804)
(-1.4096e-18 8.03838e-19 -0.0127891)
(-3.01675e-19 9.48504e-19 -0.0127967)
(-2.8607e-19 5.55226e-20 -0.0128033)
(-7.07977e-19 3.27333e-19 -0.0128087)
(-4.58913e-19 5.09519e-19 -0.0128131)
(-6.07458e-19 -1.2431e-19 -0.0128164)
(5.62261e-19 5.28602e-19 -0.0128186)
(6.12117e-19 5.93893e-19 -0.0128197)
(1.33016e-19 -2.59066e-19 -0.0128197)
(2.86301e-20 -2.67655e-19 -0.0128186)
(5.18872e-19 -8.22495e-19 -0.0128164)
(-1.05182e-19 -1.50244e-19 -0.0128131)
(-3.17376e-19 -5.91596e-19 -0.0128087)
(-3.29155e-19 -3.03879e-19 -0.0128033)
(2.87261e-19 2.57164e-20 -0.0127967)
(-5.1746e-20 -4.63195e-19 -0.0127891)
(-3.40839e-19 1.47873e-19 -0.0127804)
(-2.18399e-22 2.28388e-19 -0.0127707)
(-1.00806e-19 -3.12709e-19 -0.01276)
(-3.37908e-21 -2.76812e-19 -0.0127483)
(-6.33172e-19 2.14305e-19 -0.0127355)
(-9.82964e-20 2.33327e-19 -0.0127219)
(3.66978e-19 9.36521e-19 -0.0127073)
(7.26242e-19 -1.04081e-18 -0.0126918)
(-1.50911e-19 -3.8213e-19 -0.0126754)
(3.52183e-19 -8.67745e-19 -0.0126582)
(-4.59267e-19 -5.16198e-19 -0.0126401)
(1.51545e-19 -1.47067e-18 -0.0126213)
(-7.97712e-19 -1.16813e-18 -0.0126018)
(-9.16762e-19 -9.12679e-19 -0.0125816)
(-1.09959e-18 -2.5377e-19 -0.0125608)
(-6.79311e-19 -1.84816e-19 -0.0125394)
(-1.7328e-18 -5.51382e-19 -0.0125175)
(-6.66923e-19 -6.04934e-19 -0.0124637)
(3.46469e-19 -1.99687e-19 -0.0124857)
(-3.88729e-20 -1.08672e-18 -0.0125071)
(-8.57729e-19 7.58065e-20 -0.012528)
(1.26184e-19 -3.22312e-19 -0.0125482)
(-7.12177e-19 -5.3598e-19 -0.0125678)
(-6.78095e-19 6.65463e-19 -0.0125867)
(-1.35978e-18 3.2292e-19 -0.0126047)
(-9.8154e-19 -4.44655e-19 -0.012622)
(-7.09132e-19 -5.4118e-20 -0.0126384)
(-1.17928e-18 6.4982e-19 -0.012654)
(-8.54995e-19 -9.94295e-20 -0.0126686)
(-6.94372e-19 -6.71142e-20 -0.0126823)
(-7.59511e-19 -3.67424e-19 -0.012695)
(-1.36476e-18 1.63844e-20 -0.0127068)
(-1.6303e-18 8.18551e-19 -0.0127175)
(-1.4926e-18 7.86776e-19 -0.0127273)
(-1.16402e-18 7.85639e-19 -0.012736)
(-3.65978e-19 8.94483e-19 -0.0127436)
(-3.15806e-19 1.03484e-19 -0.0127502)
(-8.07396e-19 3.38448e-19 -0.0127556)
(-5.8575e-19 4.96331e-19 -0.01276)
(-5.76925e-19 -1.95376e-19 -0.0127633)
(2.25412e-19 4.37361e-19 -0.0127656)
(6.35773e-19 6.19383e-19 -0.0127667)
(1.4954e-19 -2.26688e-19 -0.0127667)
(9.2044e-20 -3.0849e-19 -0.0127656)
(4.51233e-19 -8.4152e-19 -0.0127633)
(-3.16092e-20 -9.64097e-20 -0.01276)
(-5.26747e-19 -5.39609e-19 -0.0127556)
(-4.94181e-19 -3.28069e-19 -0.0127502)
(3.47266e-19 -2.16982e-20 -0.0127436)
(1.12107e-19 -4.52972e-19 -0.012736)
(-9.92275e-20 9.66364e-20 -0.0127273)
(4.36392e-19 8.55175e-20 -0.0127175)
(-1.54785e-21 -3.2885e-19 -0.0127068)
(2.00082e-19 -2.87787e-19 -0.012695)
(-4.99685e-19 1.84696e-19 -0.0126823)
(2.53407e-19 6.83903e-20 -0.0126686)
(4.14325e-19 8.59571e-19 -0.012654)
(8.73212e-19 -1.11989e-18 -0.0126384)
(2.72647e-20 -4.45706e-19 -0.012622)
(2.93764e-19 -8.17384e-19 -0.0126047)
(-6.26012e-19 -4.41891e-19 -0.0125867)
(2.33132e-19 -1.59432e-18 -0.0125678)
(-6.20456e-19 -1.19872e-18 -0.0125482)
(-1.31073e-18 -5.57553e-19 -0.012528)
(-1.16944e-18 -2.13474e-19 -0.0125071)
(-6.02808e-19 -2.52932e-19 -0.0124857)
(-1.34952e-18 -8.49345e-19 -0.0124637)
(-6.99542e-19 -6.23996e-19 -0.0124094)
(2.59251e-19 -3.0734e-19 -0.0124315)
(-6.58093e-20 -1.09595e-18 -0.012453)
(-8.33699e-19 2.48647e-20 -0.0124739)
(3.55245e-19 -1.69906e-19 -0.0124942)
(-7.35567e-19 -5.4396e-19 -0.0125139)
(-5.53998e-19 7.6452e-19 -0.0125328)
(-1.21871e-18 4.97247e-19 -0.0125509)
(-9.72399e-19 -4.52068e-19 -0.0125682)
(-8.34118e-19 -1.27436e-19 -0.0125846)
(-1.27475e-18 6.33693e-19 -0.0126002)
(-9.11741e-19 -1.42448e-19 -0.0126149)
(-4.43005e-19 3.76074e-20 -0.0126286)
(-6.20069e-19 -2.5901e-19 -0.0126414)
(-1.70561e-18 -5.23329e-20 -0.0126532)
(-1.68066e-18 8.00116e-19 -0.0126639)
(-1.47876e-18 7.4539e-19 -0.0126737)
(-8.69342e-19 7.98714e-19 -0.0126824)
(-5.92426e-19 8.34866e-19 -0.01269)
(-4.78425e-19 1.04236e-19 -0.0126966)
(-8.58574e-19 3.41538e-19 -0.0127021)
(-4.45266e-19 5.09311e-19 -0.0127065)
(-6.1848e-19 -2.27918e-19 -0.0127098)
(-6.80538e-20 3.5146e-19 -0.0127121)
(5.88819e-19 6.23165e-19 -0.0127132)
(3.17032e-19 -2.12864e-19 -0.0127132)
(3.50625e-19 -3.67388e-19 -0.0127121)
(4.08677e-19 -8.36999e-19 -0.0127098)
(-9.93622e-20 -1.63481e-20 -0.0127065)
(-4.84085e-19 -5.31485e-19 -0.0127021)
(-6.1858e-19 -3.75597e-19 -0.0126966)
(4.12221e-19 -8.71118e-20 -0.01269)
(2.90794e-19 -4.73571e-19 -0.0126824)
(8.76606e-20 4.50695e-20 -0.0126737)
(7.60498e-19 1.66314e-20 -0.0126639)
(3.62698e-20 -3.19988e-19 -0.0126532)
(3.18093e-19 -2.89994e-19 -0.0126414)
(-3.64281e-19 1.40816e-19 -0.0126286)
(6.00491e-19 -1.0123e-19 -0.0126149)
(4.2568e-19 8.25675e-19 -0.0126002)
(1.02408e-18 -1.21042e-18 -0.0125846)
(4.43207e-19 -5.94027e-19 -0.0125682)
(7.48129e-20 -6.36456e-19 -0.0125509)
(-7.33857e-19 -4.1978e-19 -0.0125328)
(-1.85964e-19 -1.38001e-18 -0.0125139)
(-7.48536e-19 -9.73892e-19 -0.0124942)
(-1.70652e-18 -2.26812e-19 -0.0124739)
(-1.17455e-18 -2.79655e-19 -0.012453)
(-6.54011e-19 -2.64722e-19 -0.0124315)
(-1.03117e-18 -1.10403e-18 -0.0124094)
(-7.87449e-19 -6.59752e-19 -0.0123546)
(2.15929e-19 -3.79707e-19 -0.0123768)
(-2.22143e-19 -1.20344e-18 -0.0123984)
(-9.62742e-19 -1.65186e-19 -0.0124194)
(3.56321e-19 -1.72735e-19 -0.0124398)
(-7.87721e-19 -5.73654e-19 -0.0124594)
(-6.10134e-19 7.3519e-19 -0.0124784)
(-1.01202e-18 7.25913e-19 -0.0124966)
(-1.02365e-18 -4.65305e-19 -0.0125139)
(-1.01032e-18 -2.29395e-19 -0.0125304)
(-1.23513e-18 6.81112e-19 -0.012546)
(-9.88349e-19 -2.00725e-19 -0.0125607)
(-5.97399e-19 -6.2176e-20 -0.0125745)
(-5.10166e-19 -1.43417e-19 -0.0125873)
(-1.83746e-18 -4.19066e-20 -0.0125991)
(-1.62655e-18 7.89779e-19 -0.0126099)
(-1.25209e-18 7.60014e-19 -0.0126197)
(-6.27584e-19 8.13209e-19 -0.0126284)
(-6.59222e-19 8.44944e-19 -0.0126361)
(-3.15061e-19 1.59403e-19 -0.0126426)
(-9.36733e-19 3.14573e-19 -0.0126482)
(-1.96548e-19 5.35721e-19 -0.0126526)
(-6.73207e-19 -2.45453e-19 -0.0126559)
(-2.24967e-19 2.68003e-19 -0.0126581)
(5.02676e-19 5.86538e-19 -0.0126592)
(7.76799e-19 -2.2892e-19 -0.0126592)
(5.93867e-19 -3.90985e-19 -0.0126581)
(2.95387e-19 -8.07587e-19 -0.0126559)
(-1.43713e-19 3.92208e-20 -0.0126526)
(-1.75061e-19 -5.45344e-19 -0.0126482)
(-8.25102e-19 -3.98765e-19 -0.0126426)
(4.67482e-19 -1.74365e-19 -0.0126361)
(3.02059e-19 -4.46393e-19 -0.0126284)
(-2.359e-19 1.15992e-19 -0.0126197)
(8.7054e-19 -1.06741e-20 -0.0126099)
(2.15866e-19 -3.31283e-19 -0.0125991)
(1.19578e-19 -1.75502e-19 -0.0125873)
(-1.51837e-19 4.18886e-20 -0.0125745)
(6.15218e-19 -1.10701e-19 -0.0125607)
(3.34922e-19 8.41574e-19 -0.012546)
(1.06581e-18 -1.29605e-18 -0.0125304)
(6.30778e-19 -5.91739e-19 -0.0125139)
(2.02667e-20 -5.08586e-19 -0.0124966)
(-5.44588e-19 -5.34276e-19 -0.0124784)
(-6.65719e-19 -1.12472e-18 -0.0124594)
(-8.36298e-19 -8.11547e-19 -0.0124398)
(-1.7675e-18 -1.56059e-19 -0.0124194)
(-1.22405e-18 -3.33144e-19 -0.0123984)
(-7.03749e-19 -2.87614e-19 -0.0123768)
(-9.01512e-19 -1.15735e-18 -0.0123546)
(-7.59124e-19 -5.94399e-19 -0.0122994)
(4.92363e-19 -1.71972e-19 -0.0123216)
(-2.03283e-19 -1.15617e-18 -0.0123433)
(-1.0045e-18 -2.93708e-19 -0.0123644)
(3.41887e-19 -2.10533e-19 -0.0123848)