/*--------------------------------*- C++ -*----------------------------------*\
  =========                 |
  \\      /  F ield         | OpenFOAM: The Open Source CFD Toolbox
   \\    /   O peration     | Website:  https://openfoam.org
    \\  /    A nd           | Version:  7
     \\/     M anipulation  |
\*---------------------------------------------------------------------------*/
FoamFile
{
    version     2.0;
    format      ascii;
    class       volScalarField;
    location    "56000";
    object      p;
}
// * * * * * * * * * * * * * * * * * * * * * * * * * * * * * * * * * * * * * //

dimensions      [0 2 -2 0 0 0 0];

internalField   nonuniform List<scalar> 
4814
(
-2.89921e-17
-2.89952e-17
-2.90046e-17
-2.90074e-17
-2.89523e-17
-2.89552e-17
-2.89603e-17
-2.89611e-17
-2.89675e-17
-2.89668e-17
-2.89696e-17
-2.89673e-17
-2.89716e-17
-2.89681e-17
-2.8975e-17
-2.89725e-17
-2.89814e-17
-2.89817e-17
-2.89925e-17
-2.89948e-17
-2.9005e-17
-2.90071e-17
-2.90149e-17
-2.90155e-17
-2.90216e-17
-2.90213e-17
-2.90281e-17
-2.90299e-17
-2.90377e-17
-2.90401e-17
-2.90485e-17
-2.90519e-17
-2.9056e-17
-2.90585e-17
-2.90601e-17
-2.90621e-17
-2.9064e-17
-2.90647e-17
-2.89534e-17
-2.89546e-17
-2.89604e-17
-2.89604e-17
-2.89676e-17
-2.89681e-17
-2.89686e-17
-2.89667e-17
-2.89718e-17
-2.89679e-17
-2.8975e-17
-2.89717e-17
-2.89822e-17
-2.89821e-17
-2.89926e-17
-2.89947e-17
-2.90049e-17
-2.90074e-17
-2.90148e-17
-2.90156e-17
-2.90217e-17
-2.90215e-17
-2.90282e-17
-2.90299e-17
-2.90372e-17
-2.90402e-17
-2.90487e-17
-2.90519e-17
-2.90557e-17
-2.90583e-17
-2.90606e-17
-2.90622e-17
-2.90638e-17
-2.90648e-17
-2.90662e-17
-2.9065e-17
-2.90697e-17
-2.90686e-17
-2.90733e-17
-2.90738e-17
-2.90759e-17
-2.89532e-17
-2.89551e-17
-2.89598e-17
-2.89603e-17
-2.89674e-17
-2.89676e-17
-2.89686e-17
-2.89667e-17
-2.8971e-17
-2.89681e-17
-2.89748e-17
-2.89717e-17
-2.89827e-17
-2.89821e-17
-2.89922e-17
-2.89944e-17
-2.90047e-17
-2.90069e-17
-2.90147e-17
-2.90155e-17
-2.90218e-17
-2.90218e-17
-2.90282e-17
-2.903e-17
-2.90375e-17
-2.90401e-17
-2.90483e-17
-2.90518e-17
-2.90558e-17
-2.90581e-17
-2.90608e-17
-2.90622e-17
-2.90641e-17
-2.90648e-17
-2.90663e-17
-2.90654e-17
-2.90703e-17
-2.90678e-17
-2.90739e-17
-2.90741e-17
-2.90759e-17
-2.90773e-17
-2.90838e-17
-2.90837e-17
-2.89522e-17
-2.89557e-17
-2.89595e-17
-2.89612e-17
-2.89674e-17
-2.89669e-17
-2.89696e-17
-2.89673e-17
-2.89707e-17
-2.89691e-17
-2.89746e-17
-2.89724e-17
-2.89818e-17
-2.8982e-17
-2.89924e-17
-2.89942e-17
-2.90047e-17
-2.90067e-17
-2.90144e-17
-2.90161e-17
-2.90219e-17
-2.90216e-17
-2.90281e-17
-2.903e-17
-2.90378e-17
-2.90398e-17
-2.90482e-17
-2.90518e-17
-2.9056e-17
-2.90581e-17
-2.90607e-17
-2.90625e-17
-2.90643e-17
-2.90648e-17
-2.90665e-17
-2.90657e-17
-2.90699e-17
-2.90692e-17
-2.90736e-17
-2.9074e-17
-2.9076e-17
-2.90779e-17
-2.90829e-17
-2.9083e-17
-2.89529e-17
-2.8955e-17
-2.89599e-17
-2.8961e-17
-2.89678e-17
-2.89657e-17
-2.8969e-17
-2.89663e-17
-2.89712e-17
-2.89687e-17
-2.89748e-17
-2.89729e-17
-2.89814e-17
-2.89822e-17
-2.89935e-17
-2.89945e-17
-2.90043e-17
-2.90071e-17
-2.90145e-17
-2.90159e-17
-2.9022e-17
-2.9022e-17
-2.90283e-17
-2.90298e-17
-2.9038e-17
-2.904e-17
-2.90479e-17
-2.90517e-17
-2.90559e-17
-2.90581e-17
-2.90607e-17
-2.90624e-17
-2.90643e-17
-2.90651e-17
-2.90663e-17
-2.90654e-17
-2.90691e-17
-2.90695e-17
-2.90739e-17
-2.9074e-17
-2.90765e-17
-2.90776e-17
-2.90834e-17
-2.90834e-17
-2.89529e-17
-2.89544e-17
-2.89596e-17
-2.89611e-17
-2.89671e-17
-2.89666e-17
-2.89689e-17
-2.89659e-17
-2.89723e-17
-2.89684e-17
-2.89748e-17
-2.89728e-17
-2.89818e-17
-2.89824e-17
-2.8993e-17
-2.89943e-17
-2.90047e-17
-2.90067e-17
-2.90147e-17
-2.90156e-17
-2.9022e-17
-2.90219e-17
-2.90288e-17
-2.903e-17
-2.90378e-17
-2.90402e-17
-2.9048e-17
-2.90514e-17
-2.90561e-17
-2.90584e-17
-2.90603e-17
-2.90623e-17
-2.90647e-17
-2.90649e-17
-2.90666e-17
-2.9066e-17
-2.90685e-17
-2.9069e-17
-2.9074e-17
-2.90737e-17
-2.90767e-17
-2.90766e-17
-2.90837e-17
-2.90834e-17
-2.89528e-17
-2.89552e-17
-2.89601e-17
-2.8961e-17
-2.89666e-17
-2.89664e-17
-2.89687e-17
-2.89662e-17
-2.89714e-17
-2.89684e-17
-2.8975e-17
-2.8973e-17
-2.89828e-17
-2.89818e-17
-2.89925e-17
-2.89944e-17
-2.90043e-17
-2.90063e-17
-2.90145e-17
-2.90156e-17
-2.90222e-17
-2.90219e-17
-2.90287e-17
-2.90302e-17
-2.90377e-17
-2.90403e-17
-2.90478e-17
-2.90511e-17
-2.90562e-17
-2.9058e-17
-2.90605e-17
-2.90626e-17
-2.90649e-17
-2.90651e-17
-2.90666e-17
-2.90666e-17
-2.90693e-17
-2.90692e-17
-2.9074e-17
-2.90732e-17
-2.90762e-17
-2.90771e-17
-2.90835e-17
-2.90834e-17
-2.90907e-17
-2.89526e-17
-2.89553e-17
-2.89604e-17
-2.89604e-17
-2.89669e-17
-2.89657e-17
-2.89689e-17
-2.89665e-17
-2.8971e-17
-2.89687e-17
-2.89754e-17
-2.89727e-17
-2.8982e-17
-2.89818e-17
-2.89931e-17
-2.89941e-17
-2.90049e-17
-2.90065e-17
-2.90144e-17
-2.90158e-17
-2.90223e-17
-2.90218e-17
-2.90288e-17
-2.90305e-17
-2.90377e-17
-2.90405e-17
-2.90478e-17
-2.90514e-17
-2.90561e-17
-2.90578e-17
-2.90604e-17
-2.90626e-17
-2.90651e-17
-2.90646e-17
-2.90664e-17
-2.9066e-17
-2.90691e-17
-2.90691e-17
-2.90748e-17
-2.90728e-17
-2.90761e-17
-2.90777e-17
-2.90833e-17
-2.90832e-17
-2.90913e-17
-2.89524e-17
-2.89555e-17
-2.89602e-17
-2.89606e-17
-2.8967e-17
-2.89651e-17
-2.89685e-17
-2.89659e-17
-2.89712e-17
-2.89687e-17
-2.89751e-17
-2.89734e-17
-2.89815e-17
-2.89829e-17
-2.89933e-17
-2.89942e-17
-2.90051e-17
-2.90067e-17
-2.9015e-17
-2.9016e-17
-2.90222e-17
-2.90219e-17
-2.90286e-17
-2.90305e-17
-2.90378e-17
-2.90403e-17
-2.90479e-17
-2.90514e-17
-2.9056e-17
-2.90578e-17
-2.90605e-17
-2.90622e-17
-2.90649e-17
-2.90648e-17
-2.9066e-17
-2.90658e-17
-2.90683e-17
-2.90692e-17
-2.9074e-17
-2.90735e-17
-2.90764e-17
-2.90776e-17
-2.90837e-17
-2.90838e-17
-2.90916e-17
-2.89526e-17
-2.8955e-17
-2.89599e-17
-2.8961e-17
-2.89665e-17
-2.89653e-17
-2.89686e-17
-2.89656e-17
-2.89715e-17
-2.89688e-17
-2.89748e-17
-2.89733e-17
-2.89818e-17
-2.89829e-17
-2.89934e-17
-2.89944e-17
-2.90055e-17
-2.90063e-17
-2.90148e-17
-2.90156e-17
-2.90222e-17
-2.90222e-17
-2.9029e-17
-2.90305e-17
-2.90377e-17
-2.90402e-17
-2.90478e-17
-2.90512e-17
-2.90557e-17
-2.90578e-17
-2.90609e-17
-2.90624e-17
-2.90651e-17
-2.90645e-17
-2.90663e-17
-2.90659e-17
-2.90684e-17
-2.9069e-17
-2.90736e-17
-2.90738e-17
-2.90764e-17
-2.90773e-17
-2.90839e-17
-2.90838e-17
-2.90915e-17
-2.89522e-17
-2.89549e-17
-2.896e-17
-2.8961e-17
-2.89666e-17
-2.89656e-17
-2.8969e-17
-2.8966e-17
-2.89714e-17
-2.89687e-17
-2.89746e-17
-2.89735e-17
-2.89817e-17
-2.89828e-17
-2.89925e-17
-2.89943e-17
-2.90054e-17
-2.90065e-17
-2.90147e-17
-2.90153e-17
-2.90222e-17
-2.90223e-17
-2.90288e-17
-2.90304e-17
-2.90378e-17
-2.90403e-17
-2.9048e-17
-2.90512e-17
-2.90557e-17
-2.90579e-17
-2.90611e-17
-2.90623e-17
-2.90648e-17
-2.90648e-17
-2.90668e-17
-2.90667e-17
-2.90685e-17
-2.9069e-17
-2.90737e-17
-2.90736e-17
-2.90767e-17
-2.90775e-17
-2.90837e-17
-2.90831e-17
-2.89535e-17
-2.89555e-17
-2.89595e-17
-2.89609e-17
-2.89664e-17
-2.89651e-17
-2.89688e-17
-2.89662e-17
-2.89708e-17
-2.89693e-17
-2.8975e-17
-2.89732e-17
-2.8982e-17
-2.89824e-17
-2.89927e-17
-2.89945e-17
-2.90049e-17
-2.90062e-17
-2.90147e-17
-2.90155e-17
-2.90224e-17
-2.90224e-17
-2.90287e-17
-2.90305e-17
-2.90379e-17
-2.90405e-17
-2.90479e-17
-2.90511e-17
-2.90559e-17
-2.90578e-17
-2.9061e-17
-2.90622e-17
-2.90651e-17
-2.90651e-17
-2.90668e-17
-2.90669e-17
-2.90693e-17
-2.90693e-17
-2.90745e-17
-2.90734e-17
-2.90759e-17
-2.90779e-17
-2.90833e-17
-2.9084e-17
-2.89536e-17
-2.89558e-17
-2.89594e-17
-2.89599e-17
-2.89668e-17
-2.8965e-17
-2.89692e-17
-2.89661e-17
-2.89713e-17
-2.89692e-17
-2.89754e-17
-2.89734e-17
-2.89827e-17
-2.89831e-17
-2.89933e-17
-2.89948e-17
-2.90046e-17
-2.90061e-17
-2.90146e-17
-2.90156e-17
-2.90224e-17
-2.90225e-17
-2.90288e-17
-2.90308e-17
-2.90377e-17
-2.90406e-17
-2.90478e-17
-2.90512e-17
-2.90558e-17
-2.90577e-17
-2.90609e-17
-2.90623e-17
-2.90653e-17
-2.90651e-17
-2.90666e-17
-2.90666e-17
-2.90688e-17
-2.90689e-17
-2.90744e-17
-2.90732e-17
-2.90761e-17
-2.90775e-17
-2.90837e-17
-2.90836e-17
-2.89532e-17
-2.89552e-17
-2.89593e-17
-2.89604e-17
-2.89666e-17
-2.89653e-17
-2.89689e-17
-2.89656e-17
-2.89715e-17
-2.89688e-17
-2.89753e-17
-2.89736e-17
-2.89828e-17
-2.8983e-17
-2.89934e-17
-2.89951e-17
-2.90047e-17
-2.90066e-17
-2.90141e-17
-2.90158e-17
-2.90222e-17
-2.90226e-17
-2.90287e-17
-2.90307e-17
-2.90376e-17
-2.90407e-17
-2.90477e-17
-2.90511e-17
-2.90558e-17
-2.90576e-17
-2.90606e-17
-2.90623e-17
-2.90648e-17
-2.90649e-17
-2.90663e-17
-2.90665e-17
-2.90686e-17
-2.90689e-17
-2.90743e-17
-2.9073e-17
-2.90766e-17
-2.90776e-17
-2.90836e-17
-2.90836e-17
-2.89533e-17
-2.89546e-17
-2.89596e-17
-2.89604e-17
-2.89668e-17
-2.8965e-17
-2.89686e-17
-2.89664e-17
-2.89715e-17
-2.89687e-17
-2.89753e-17
-2.89739e-17
-2.89823e-17
-2.89824e-17
-2.89937e-17
-2.89946e-17
-2.90048e-17
-2.90071e-17
-2.90143e-17
-2.90156e-17
-2.9022e-17
-2.90227e-17
-2.9029e-17
-2.90307e-17
-2.90373e-17
-2.90405e-17
-2.90477e-17
-2.90509e-17
-2.90558e-17
-2.90574e-17
-2.90606e-17
-2.90621e-17
-2.90645e-17
-2.90648e-17
-2.90668e-17
-2.90662e-17
-2.90692e-17
-2.90693e-17
-2.90736e-17
-2.90729e-17
-2.90769e-17
-2.90777e-17
-2.90835e-17
-2.9084e-17
-2.89531e-17
-2.89555e-17
-2.89592e-17
-2.8961e-17
-2.89669e-17
-2.89658e-17
-2.89686e-17
-2.89668e-17
-2.89719e-17
-2.8969e-17
-2.89755e-17
-2.8974e-17
-2.89829e-17
-2.89823e-17
-2.89934e-17
-2.89947e-17
-2.90047e-17
-2.90066e-17
-2.90142e-17
-2.90157e-17
-2.9022e-17
-2.90227e-17
-2.90289e-17
-2.90309e-17
-2.90372e-17
-2.90404e-17
-2.90475e-17
-2.90512e-17
-2.90557e-17
-2.90577e-17
-2.90608e-17
-2.90622e-17
-2.90652e-17
-2.9065e-17
-2.90662e-17
-2.90659e-17
-2.90692e-17
-2.90688e-17
-2.90734e-17
-2.90731e-17
-2.90768e-17
-2.90773e-17
-2.90833e-17
-2.90844e-17
-2.89531e-17
-2.89555e-17
-2.89591e-17
-2.89611e-17
-2.89664e-17
-2.89655e-17
-2.89693e-17
-2.89665e-17
-2.89721e-17
-2.89685e-17
-2.89755e-17
-2.89742e-17
-2.89825e-17
-2.89833e-17
-2.89935e-17
-2.89946e-17
-2.9005e-17
-2.90062e-17
-2.90141e-17
-2.90158e-17
-2.90225e-17
-2.90228e-17
-2.90286e-17
-2.90308e-17
-2.90374e-17
-2.90404e-17
-2.90474e-17
-2.90512e-17
-2.90558e-17
-2.90577e-17
-2.90609e-17
-2.90623e-17
-2.9065e-17
-2.90648e-17
-2.90667e-17
-2.90657e-17
-2.90684e-17
-2.90693e-17
-2.90735e-17
-2.90741e-17
-2.90772e-17
-2.90771e-17
-2.90836e-17
-2.90835e-17
-2.89531e-17
-2.89554e-17
-2.89591e-17
-2.89609e-17
-2.89667e-17
-2.89653e-17
-2.89692e-17
-2.89662e-17
-2.89713e-17
-2.8969e-17
-2.89754e-17
-2.8974e-17
-2.89828e-17
-2.89834e-17
-2.89935e-17
-2.8995e-17
-2.9005e-17
-2.90065e-17
-2.9014e-17
-2.90159e-17
-2.90223e-17
-2.90227e-17
-2.9029e-17
-2.90307e-17
-2.90375e-17
-2.90405e-17
-2.90476e-17
-2.9051e-17
-2.90559e-17
-2.90576e-17
-2.90609e-17
-2.90624e-17
-2.90646e-17
-2.90647e-17
-2.90665e-17
-2.90661e-17
-2.90683e-17
-2.90693e-17
-2.9074e-17
-2.90738e-17
-2.90768e-17
-2.90776e-17
-2.90838e-17
-2.90836e-17
-2.89533e-17
-2.89552e-17
-2.89596e-17
-2.89602e-17
-2.89661e-17
-2.89655e-17
-2.89693e-17
-2.89663e-17
-2.89712e-17
-2.89696e-17
-2.89753e-17
-2.89739e-17
-2.89833e-17
-2.8983e-17
-2.89934e-17
-2.89952e-17
-2.9005e-17
-2.90066e-17
-2.9014e-17
-2.90156e-17
-2.90224e-17
-2.90227e-17
-2.9029e-17
-2.90307e-17
-2.90374e-17
-2.90405e-17
-2.90474e-17
-2.90509e-17
-2.90559e-17
-2.90575e-17
-2.90611e-17
-2.90624e-17
-2.90649e-17
-2.90646e-17
-2.90663e-17
-2.90661e-17
-2.90687e-17
-2.90691e-17
-2.90739e-17
-2.90738e-17
-2.90764e-17
-2.90776e-17
-2.90838e-17
-2.90841e-17
-2.89531e-17
-2.89552e-17
-2.89595e-17
-2.89604e-17
-2.89652e-17
-2.8965e-17
-2.89691e-17
-2.89664e-17
-2.89717e-17
-2.89698e-17
-2.89758e-17
-2.89744e-17
-2.89827e-17
-2.89827e-17
-2.89931e-17
-2.89953e-17
-2.90051e-17
-2.90066e-17
-2.9014e-17
-2.90156e-17
-2.90224e-17
-2.90227e-17
-2.9029e-17
-2.90309e-17
-2.90374e-17
-2.90405e-17
-2.90473e-17
-2.90509e-17
-2.90559e-17
-2.90576e-17
-2.90609e-17
-2.90623e-17
-2.90647e-17
-2.90644e-17
-2.90662e-17
-2.90663e-17
-2.9069e-17
-2.90694e-17
-2.90735e-17
-2.90734e-17
-2.90758e-17
-2.90778e-17
-2.90837e-17
-2.90839e-17
-2.89528e-17
-2.89552e-17
-2.89589e-17
-2.89611e-17
-2.89658e-17
-2.8965e-17
-2.89688e-17
-2.89666e-17
-2.89717e-17
-2.89694e-17
-2.8976e-17
-2.89742e-17
-2.89828e-17
-2.89833e-17
-2.89929e-17
-2.89951e-17
-2.9005e-17
-2.9006e-17
-2.90141e-17
-2.90157e-17
-2.90222e-17
-2.90228e-17
-2.90289e-17
-2.90309e-17
-2.90373e-17
-2.90405e-17
-2.90475e-17
-2.90509e-17
-2.90558e-17
-2.90579e-17
-2.90609e-17
-2.90621e-17
-2.90647e-17
-2.90644e-17
-2.9066e-17
-2.90665e-17
-2.90687e-17
-2.90694e-17
-2.90738e-17
-2.90732e-17
-2.90763e-17
-2.90778e-17
-2.90834e-17
-2.90844e-17
-2.90921e-17
-2.89527e-17
-2.89554e-17
-2.89591e-17
-2.89606e-17
-2.89662e-17
-2.89649e-17
-2.89689e-17
-2.89666e-17
-2.89715e-17
-2.89693e-17
-2.89758e-17
-2.8974e-17
-2.89826e-17
-2.89835e-17
-2.89931e-17
-2.89956e-17
-2.90047e-17
-2.9006e-17
-2.9014e-17
-2.90159e-17
-2.90226e-17
-2.90228e-17
-2.9029e-17
-2.9031e-17
-2.90376e-17
-2.90405e-17
-2.90475e-17
-2.90508e-17
-2.90556e-17
-2.90576e-17
-2.90606e-17
-2.90625e-17
-2.90648e-17
-2.90647e-17
-2.90657e-17
-2.90665e-17
-2.90685e-17
-2.90693e-17
-2.90739e-17
-2.90733e-17
-2.90765e-17
-2.90778e-17
-2.90834e-17
-2.90843e-17
-2.9092e-17
-2.89525e-17
-2.89555e-17
-2.89595e-17
-2.89608e-17
-2.89659e-17
-2.89643e-17
-2.89691e-17
-2.89665e-17
-2.89717e-17
-2.89695e-17
-2.89757e-17
-2.89743e-17
-2.89832e-17
-2.89832e-17
-2.89932e-17
-2.89953e-17
-2.90047e-17
-2.90062e-17
-2.90138e-17
-2.90159e-17
-2.90225e-17
-2.90228e-17
-2.9029e-17
-2.9031e-17
-2.90375e-17
-2.90406e-17
-2.90474e-17
-2.9051e-17
-2.90557e-17
-2.90575e-17
-2.90607e-17
-2.90624e-17
-2.90649e-17
-2.90649e-17
-2.90661e-17
-2.90663e-17
-2.90688e-17
-2.90691e-17
-2.90737e-17
-2.90737e-17
-2.90766e-17
-2.90775e-17
-2.90837e-17
-2.90839e-17
-2.90926e-17
-2.89528e-17
-2.89556e-17
-2.89594e-17
-2.89607e-17
-2.89661e-17
-2.89645e-17
-2.89693e-17
-2.89665e-17
-2.89717e-17
-2.89694e-17
-2.89754e-17
-2.89744e-17
-2.89831e-17
-2.89831e-17
-2.89932e-17
-2.89954e-17
-2.90049e-17
-2.90062e-17
-2.90139e-17
-2.90156e-17
-2.90227e-17
-2.90227e-17
-2.90291e-17
-2.90309e-17
-2.90373e-17
-2.90406e-17
-2.90474e-17
-2.90509e-17
-2.90558e-17
-2.90574e-17
-2.90611e-17
-2.90623e-17
-2.90646e-17
-2.90647e-17
-2.90659e-17
-2.90663e-17
-2.90687e-17
-2.90693e-17
-2.90737e-17
-2.90739e-17
-2.90767e-17
-2.90777e-17
-2.90839e-17
-2.90838e-17
-2.90927e-17
-2.89531e-17
-2.89551e-17
-2.89591e-17
-2.89608e-17
-2.89657e-17
-2.89647e-17
-2.89689e-17
-2.89667e-17
-2.89717e-17
-2.89692e-17
-2.89758e-17
-2.89746e-17
-2.89829e-17
-2.89833e-17
-2.8993e-17
-2.8995e-17
-2.9005e-17
-2.90061e-17
-2.90138e-17
-2.90158e-17
-2.90228e-17
-2.90229e-17
-2.9029e-17
-2.90309e-17
-2.90372e-17
-2.90406e-17
-2.90475e-17
-2.90507e-17
-2.90557e-17
-2.90575e-17
-2.9061e-17
-2.90623e-17
-2.90648e-17
-2.90646e-17
-2.90661e-17
-2.90663e-17
-2.90687e-17
-2.90694e-17
-2.90733e-17
-2.90734e-17
-2.90769e-17
-2.9078e-17
-2.90839e-17
-2.90843e-17
-2.89529e-17
-2.89553e-17
-2.89593e-17
-2.89606e-17
-2.89655e-17
-2.8965e-17
-2.89689e-17
-2.89669e-17
-2.89718e-17
-2.89697e-17
-2.89761e-17
-2.89747e-17
-2.89832e-17
-2.89834e-17
-2.89928e-17
-2.89948e-17
-2.90048e-17
-2.90059e-17
-2.9014e-17
-2.90156e-17
-2.90224e-17
-2.90231e-17
-2.90288e-17
-2.90309e-17
-2.90372e-17
-2.90406e-17
-2.90474e-17
-2.90506e-17
-2.90557e-17
-2.90576e-17
-2.90611e-17
-2.90621e-17
-2.90648e-17
-2.90648e-17
-2.90666e-17
-2.90663e-17
-2.90688e-17
-2.90696e-17
-2.90733e-17
-2.90731e-17
-2.90769e-17
-2.9078e-17
-2.90837e-17
-2.90844e-17
-2.8953e-17
-2.89549e-17
-2.89592e-17
-2.89602e-17
-2.89654e-17
-2.89651e-17
-2.89693e-17
-2.89666e-17
-2.89716e-17
-2.89692e-17
-2.89755e-17
-2.89751e-17
-2.89835e-17
-2.89837e-17
-2.8993e-17
-2.89951e-17
-2.90047e-17
-2.90062e-17
-2.90139e-17
-2.90153e-17
-2.90225e-17
-2.90229e-17
-2.90289e-17
-2.90309e-17
-2.90372e-17
-2.90406e-17
-2.90474e-17
-2.90506e-17
-2.90557e-17
-2.90576e-17
-2.90612e-17
-2.90621e-17
-2.90646e-17
-2.90647e-17
-2.90664e-17
-2.90663e-17
-2.90685e-17
-2.90691e-17
-2.90732e-17
-2.90735e-17
-2.90766e-17
-2.90782e-17
-2.90837e-17
-2.90842e-17
-2.89528e-17
-2.89548e-17
-2.89591e-17
-2.89606e-17
-2.89658e-17
-2.89649e-17
-2.8969e-17
-2.89665e-17
-2.89715e-17
-2.89696e-17
-2.89758e-17
-2.89752e-17
-2.89832e-17
-2.89833e-17
-2.89933e-17
-2.89952e-17
-2.90046e-17
-2.90063e-17
-2.90139e-17
-2.90155e-17
-2.90225e-17
-2.9023e-17
-2.90289e-17
-2.90308e-17
-2.90372e-17
-2.90406e-17
-2.90474e-17
-2.90507e-17
-2.90556e-17
-2.90576e-17
-2.9061e-17
-2.90622e-17
-2.90645e-17
-2.90648e-17
-2.9066e-17
-2.90663e-17
-2.9069e-17
-2.9069e-17
-2.90732e-17
-2.90736e-17
-2.90763e-17
-2.9078e-17
-2.90837e-17
-2.90844e-17
-2.89528e-17
-2.89553e-17
-2.89591e-17
-2.89605e-17
-2.89659e-17
-2.89647e-17
-2.89692e-17
-2.8967e-17
-2.89716e-17
-2.89697e-17
-2.89761e-17
-2.89753e-17
-2.89834e-17
-2.8983e-17
-2.89933e-17
-2.89952e-17
-2.90045e-17
-2.90065e-17
-2.90141e-17
-2.90157e-17
-2.90224e-17
-2.90231e-17
-2.90291e-17
-2.90308e-17
-2.90371e-17
-2.90406e-17
-2.90472e-17
-2.90505e-17
-2.90556e-17
-2.90577e-17
-2.90609e-17
-2.90621e-17
-2.90646e-17
-2.90647e-17
-2.90661e-17
-2.90664e-17
-2.90691e-17
-2.9069e-17
-2.90732e-17
-2.90736e-17
-2.90765e-17
-2.90779e-17
-2.90836e-17
-2.90842e-17
-2.8953e-17
-2.89552e-17
-2.89592e-17
-2.89608e-17
-2.89658e-17
-2.89645e-17
-2.89691e-17
-2.89667e-17
-2.89716e-17
-2.89698e-17
-2.89763e-17
-2.89752e-17
-2.89835e-17
-2.89834e-17
-2.89929e-17
-2.89951e-17
-2.90046e-17
-2.90064e-17
-2.90139e-17
-2.90159e-17
-2.90224e-17
-2.90229e-17
-2.90292e-17
-2.90308e-17
-2.90372e-17
-2.90406e-17
-2.90473e-17
-2.90504e-17
-2.90557e-17
-2.90577e-17
-2.90607e-17
-2.90622e-17
-2.90645e-17
-2.90646e-17
-2.90662e-17
-2.90665e-17
-2.90688e-17
-2.90688e-17
-2.90735e-17
-2.90736e-17
-2.90765e-17
-2.90779e-17
-2.90839e-17
-2.90842e-17
-2.89533e-17
-2.89551e-17
-2.89596e-17
-2.89606e-17
-2.89657e-17
-2.89648e-17
-2.8969e-17
-2.89669e-17
-2.89716e-17
-2.89699e-17
-2.89761e-17
-2.89748e-17
-2.89832e-17
-2.89834e-17
-2.89931e-17
-2.89951e-17
-2.90044e-17
-2.90064e-17
-2.90139e-17
-2.90159e-17
-2.90225e-17
-2.9023e-17
-2.90292e-17
-2.90308e-17
-2.90372e-17
-2.90406e-17
-2.90473e-17
-2.90505e-17
-2.90557e-17
-2.90576e-17
-2.90606e-17
-2.90621e-17
-2.90646e-17
-2.90647e-17
-2.90664e-17
-2.90663e-17
-2.90689e-17
-2.90688e-17
-2.90732e-17
-2.90737e-17
-2.90767e-17
-2.90778e-17
-2.90838e-17
-2.90843e-17
-2.89532e-17
-2.89553e-17
-2.89592e-17
-2.89604e-17
-2.89657e-17
-2.89648e-17
-2.89692e-17
-2.89668e-17
-2.89719e-17
-2.89697e-17
-2.89762e-17
-2.89749e-17
-2.8983e-17
-2.89832e-17
-2.89931e-17
-2.8995e-17
-2.90044e-17
-2.90066e-17
-2.90139e-17
-2.90159e-17
-2.90225e-17
-2.9023e-17
-2.90292e-17
-2.90308e-17
-2.90373e-17
-2.90406e-17
-2.90473e-17
-2.90504e-17
-2.90556e-17
-2.90574e-17
-2.90608e-17
-2.90621e-17
-2.90643e-17
-2.90647e-17
-2.90663e-17
-2.90663e-17
-2.90692e-17
-2.90693e-17
-2.90732e-17
-2.90737e-17
-2.90768e-17
-2.90777e-17
-2.90837e-17
-2.90845e-17
-2.89528e-17
-2.89552e-17
-2.89589e-17
-2.89604e-17
-2.89656e-17
-2.89648e-17
-2.89693e-17
-2.89667e-17
-2.89717e-17
-2.89697e-17
-2.89762e-17
-2.89749e-17
-2.8983e-17
-2.89834e-17
-2.89929e-17
-2.89949e-17
-2.90046e-17
-2.90064e-17
-2.9014e-17
-2.90156e-17
-2.90224e-17
-2.9023e-17
-2.90291e-17
-2.90308e-17
-2.90372e-17
-2.90407e-17
-2.90474e-17
-2.90505e-17
-2.90555e-17
-2.90574e-17
-2.90609e-17
-2.90621e-17
-2.90645e-17
-2.90645e-17
-2.90662e-17
-2.90664e-17
-2.90691e-17
-2.90695e-17
-2.90732e-17
-2.90735e-17
-2.90769e-17
-2.90779e-17
-2.90839e-17
-2.90846e-17
-2.90924e-17
-2.89528e-17
-2.8955e-17
-2.8959e-17
-2.89606e-17
-2.89658e-17
-2.89645e-17
-2.89694e-17
-2.89667e-17
-2.89717e-17
-2.89696e-17
-2.89759e-17
-2.89747e-17
-2.89834e-17
-2.89837e-17
-2.89931e-17
-2.89951e-17
-2.90045e-17
-2.90062e-17
-2.9014e-17
-2.90154e-17
-2.90223e-17
-2.90229e-17
-2.90292e-17
-2.90308e-17
-2.90372e-17
-2.90407e-17
-2.90472e-17
-2.90504e-17
-2.90556e-17
-2.90575e-17
-2.90609e-17
-2.90621e-17
-2.90645e-17
-2.90645e-17
-2.90662e-17
-2.90662e-17
-2.9069e-17
-2.90691e-17
-2.90733e-17
-2.90738e-17
-2.9077e-17
-2.90779e-17
-2.90841e-17
-2.90842e-17
-2.90923e-17
-2.89529e-17
-2.89551e-17
-2.8959e-17
-2.89605e-17
-2.89657e-17
-2.89643e-17
-2.89693e-17
-2.89669e-17
-2.89715e-17
-2.89697e-17
-2.89761e-17
-2.89749e-17
-2.89835e-17
-2.89836e-17
-2.89933e-17
-2.8995e-17
-2.90044e-17
-2.90062e-17
-2.90139e-17
-2.90156e-17
-2.90223e-17
-2.90231e-17
-2.90292e-17
-2.90309e-17
-2.90373e-17
-2.90407e-17
-2.90472e-17
-2.90504e-17
-2.90555e-17
-2.90574e-17
-2.90608e-17
-2.90622e-17
-2.90643e-17
-2.90647e-17
-2.90664e-17
-2.90662e-17
-2.90688e-17
-2.90691e-17
-2.90734e-17
-2.90736e-17
-2.90769e-17
-2.90779e-17
-2.9084e-17
-2.90842e-17
-2.90924e-17
-2.89532e-17
-2.8955e-17
-2.89589e-17
-2.89605e-17
-2.89655e-17
-2.89645e-17
-2.89694e-17
-2.89667e-17
-2.89718e-17
-2.89698e-17
-2.89765e-17
-2.89748e-17
-2.89833e-17
-2.89835e-17
-2.89935e-17
-2.89951e-17
-2.90045e-17
-2.90064e-17
-2.90139e-17
-2.90157e-17
-2.90224e-17
-2.9023e-17
-2.90292e-17
-2.90309e-17
-2.90373e-17
-2.90407e-17
-2.90472e-17
-2.90503e-17
-2.90556e-17
-2.90575e-17
-2.90607e-17
-2.90622e-17
-2.90642e-17
-2.90646e-17
-2.90662e-17
-2.90663e-17
-2.90688e-17
-2.90693e-17
-2.90734e-17
-2.90735e-17
-2.90769e-17
-2.90777e-17
-2.90841e-17
-2.90842e-17
-2.90923e-17
-2.90918e-17
-2.8953e-17
-2.89551e-17
-2.89592e-17
-2.89607e-17
-2.89657e-17
-2.89647e-17
-2.89691e-17
-2.89669e-17
-2.89719e-17
-2.89698e-17
-2.89764e-17
-2.89751e-17
-2.89835e-17
-2.89834e-17
-2.89932e-17
-2.89951e-17
-2.90044e-17
-2.90064e-17
-2.9014e-17
-2.90158e-17
-2.90225e-17
-2.9023e-17
-2.90292e-17
-2.90308e-17
-2.90372e-17
-2.90406e-17
-2.90472e-17
-2.90503e-17
-2.90556e-17
-2.90575e-17
-2.90607e-17
-2.90621e-17
-2.90642e-17
-2.90646e-17
-2.9066e-17
-2.90665e-17
-2.90689e-17
-2.90691e-17
-2.90729e-17
-2.90734e-17
-2.90768e-17
-2.90779e-17
-2.9084e-17
-2.90845e-17
-2.90921e-17
-2.90917e-17
-2.89529e-17
-2.89553e-17
-2.89593e-17
-2.89607e-17
-2.89656e-17
-2.89648e-17
-2.89691e-17
-2.8967e-17
-2.89716e-17
-2.89698e-17
-2.89764e-17
-2.89751e-17
-2.89835e-17
-2.89836e-17
-2.89931e-17
-2.89949e-17
-2.90044e-17
-2.90064e-17
-2.9014e-17
-2.90158e-17
-2.90224e-17
-2.90232e-17
-2.90292e-17
-2.90309e-17
-2.90371e-17
-2.90406e-17
-2.90471e-17
-2.90503e-17
-2.90555e-17
-2.90574e-17
-2.90607e-17
-2.9062e-17
-2.90642e-17
-2.90646e-17
-2.90663e-17
-2.90663e-17
-2.9069e-17
-2.90691e-17
-2.90729e-17
-2.90734e-17
-2.90767e-17
-2.90781e-17
-2.90838e-17
-2.90846e-17
-2.90921e-17
-2.90918e-17
-2.90995e-17
-2.89529e-17
-2.89552e-17
-2.89593e-17
-2.89607e-17
-2.89655e-17
-2.89645e-17
-2.89692e-17
-2.89669e-17
-2.89716e-17
-2.89699e-17
-2.89763e-17
-2.8975e-17
-2.89835e-17
-2.89836e-17
-2.89933e-17
-2.8995e-17
-2.90045e-17
-2.90064e-17
-2.9014e-17
-2.90157e-17
-2.90224e-17
-2.90232e-17
-2.90291e-17
-2.90309e-17
-2.90372e-17
-2.90406e-17
-2.90471e-17
-2.90503e-17
-2.90554e-17
-2.90573e-17
-2.90607e-17
-2.9062e-17
-2.90642e-17
-2.90645e-17
-2.90663e-17
-2.9066e-17
-2.9069e-17
-2.90692e-17
-2.90731e-17
-2.90735e-17
-2.90768e-17
-2.90782e-17
-2.90838e-17
-2.90845e-17
-2.90924e-17
-2.90918e-17
-2.90996e-17
-2.89531e-17
-2.89552e-17
-2.89592e-17
-2.89608e-17
-2.89655e-17
-2.89646e-17
-2.89692e-17
-2.89668e-17
-2.89718e-17
-2.89702e-17
-2.89764e-17
-2.89752e-17
-2.89834e-17
-2.89837e-17
-2.89932e-17
-2.89953e-17
-2.90044e-17
-2.90065e-17
-2.9014e-17
-2.90156e-17
-2.90225e-17
-2.90231e-17
-2.90291e-17
-2.90309e-17
-2.90372e-17
-2.90407e-17
-2.90471e-17
-2.90503e-17
-2.90554e-17
-2.90574e-17
-2.90606e-17
-2.9062e-17
-2.90641e-17
-2.90645e-17
-2.90661e-17
-2.90662e-17
-2.90689e-17
-2.90691e-17
-2.90731e-17
-2.90734e-17
-2.90768e-17
-2.9078e-17
-2.90839e-17
-2.90846e-17
-2.90923e-17
-2.90919e-17
-2.90994e-17
-2.8953e-17
-2.89551e-17
-2.89591e-17
-2.89606e-17
-2.89657e-17
-2.89649e-17
-2.89693e-17
-2.89669e-17
-2.89718e-17
-2.89699e-17
-2.89763e-17
-2.89753e-17
-2.89836e-17
-2.89836e-17
-2.89931e-17
-2.89951e-17
-2.90044e-17
-2.90065e-17
-2.9014e-17
-2.90157e-17
-2.90225e-17
-2.90231e-17
-2.90292e-17
-2.90309e-17
-2.90372e-17
-2.90407e-17
-2.90471e-17
-2.90503e-17
-2.90554e-17
-2.90574e-17
-2.90606e-17
-2.90621e-17
-2.9064e-17
-2.90644e-17
-2.90663e-17
-2.90663e-17
-2.90689e-17
-2.90692e-17
-2.9073e-17
-2.90735e-17
-2.90769e-17
-2.90779e-17
-2.90839e-17
-2.90847e-17
-2.9092e-17
-2.90918e-17
-2.90996e-17
-2.8953e-17
-2.8955e-17
-2.89592e-17
-2.89607e-17
-2.89658e-17
-2.89648e-17
-2.89693e-17
-2.89672e-17
-2.89718e-17
-2.897e-17
-2.89763e-17
-2.89753e-17
-2.89836e-17
-2.89836e-17
-2.89932e-17
-2.8995e-17
-2.90044e-17
-2.90064e-17
-2.9014e-17
-2.90158e-17
-2.90225e-17
-2.90232e-17
-2.90292e-17
-2.9031e-17
-2.90372e-17
-2.90406e-17
-2.90471e-17
-2.90503e-17
-2.90554e-17
-2.90573e-17
-2.90606e-17
-2.90621e-17
-2.90641e-17
-2.90644e-17
-2.90664e-17
-2.90662e-17
-2.90689e-17
-2.90692e-17
-2.90729e-17
-2.90735e-17
-2.90768e-17
-2.90779e-17
-2.90837e-17
-2.90846e-17
-2.9092e-17
-2.90918e-17
-2.90995e-17
-2.89531e-17
-2.89552e-17
-2.89592e-17
-2.89608e-17
-2.89656e-17
-2.89648e-17
-2.89694e-17
-2.8967e-17
-2.89716e-17
-2.897e-17
-2.89764e-17
-2.89753e-17
-2.89836e-17
-2.89837e-17
-2.89931e-17
-2.89952e-17
-2.90044e-17
-2.90064e-17
-2.90139e-17
-2.90158e-17
-2.90224e-17
-2.90232e-17
-2.90292e-17
-2.9031e-17
-2.90372e-17
-2.90406e-17
-2.90471e-17
-2.90503e-17
-2.90555e-17
-2.90573e-17
-2.90605e-17
-2.90621e-17
-2.90641e-17
-2.90644e-17
-2.90661e-17
-2.90662e-17
-2.90689e-17
-2.90691e-17
-2.9073e-17
-2.90735e-17
-2.90768e-17
-2.90781e-17
-2.90839e-17
-2.90844e-17
-2.9092e-17
-2.90918e-17
-2.90994e-17
-2.90985e-17
-2.89531e-17
-2.89551e-17
-2.89591e-17
-2.89607e-17
-2.89657e-17
-2.89648e-17
-2.89694e-17
-2.89671e-17
-2.89716e-17
-2.89699e-17
-2.89764e-17
-2.89753e-17
-2.89835e-17
-2.89838e-17
-2.89932e-17
-2.89952e-17
-2.90045e-17
-2.90064e-17
-2.90139e-17
-2.90157e-17
-2.90224e-17
-2.90232e-17
-2.90292e-17
-2.9031e-17
-2.90372e-17
-2.90406e-17
-2.90471e-17
-2.90502e-17
-2.90554e-17
-2.90574e-17
-2.90607e-17
-2.90621e-17
-2.90641e-17
-2.90643e-17
-2.9066e-17
-2.90661e-17
-2.90688e-17
-2.90692e-17
-2.9073e-17
-2.90734e-17
-2.90769e-17
-2.90782e-17
-2.90839e-17
-2.90844e-17
-2.90921e-17
-2.90916e-17
-2.90995e-17
-2.90986e-17
-2.8953e-17
-2.89551e-17
-2.89592e-17
-2.89606e-17
-2.89656e-17
-2.89647e-17
-2.89693e-17
-2.89671e-17
-2.89717e-17
-2.897e-17
-2.89763e-17
-2.89753e-17
-2.89834e-17
-2.89838e-17
-2.89932e-17
-2.89952e-17
-2.90045e-17
-2.90064e-17
-2.9014e-17
-2.90157e-17
-2.90224e-17
-2.90233e-17
-2.90292e-17
-2.90309e-17
-2.90372e-17
-2.90407e-17
-2.90471e-17
-2.90502e-17
-2.90554e-17
-2.90573e-17
-2.90606e-17
-2.9062e-17
-2.90641e-17
-2.90644e-17
-2.90661e-17
-2.90661e-17
-2.90688e-17
-2.90692e-17
-2.9073e-17
-2.90734e-17
-2.90768e-17
-2.9078e-17
-2.90839e-17
-2.90845e-17
-2.90922e-17
-2.90917e-17
-2.90996e-17
-2.90985e-17
-2.89532e-17
-2.89552e-17
-2.89591e-17
-2.89606e-17
-2.89656e-17
-2.89647e-17
-2.89693e-17
-2.8967e-17
-2.89718e-17
-2.897e-17
-2.89764e-17
-2.89753e-17
-2.89835e-17
-2.89838e-17
-2.89932e-17
-2.89952e-17
-2.90045e-17
-2.90064e-17
-2.9014e-17
-2.90158e-17
-2.90225e-17
-2.90233e-17
-2.90292e-17
-2.9031e-17
-2.90373e-17
-2.90407e-17
-2.90471e-17
-2.90502e-17
-2.90554e-17
-2.90573e-17
-2.90606e-17
-2.9062e-17
-2.90641e-17
-2.90644e-17
-2.90661e-17
-2.90662e-17
-2.90688e-17
-2.90692e-17
-2.9073e-17
-2.90734e-17
-2.90768e-17
-2.9078e-17
-2.9084e-17
-2.90846e-17
-2.90922e-17
-2.90918e-17
-2.90995e-17
-2.90986e-17
-2.89532e-17
-2.89552e-17
-2.89591e-17
-2.89607e-17
-2.89657e-17
-2.89647e-17
-2.89693e-17
-2.8967e-17
-2.89718e-17
-2.897e-17
-2.89764e-17
-2.89753e-17
-2.89835e-17
-2.89838e-17
-2.89932e-17
-2.89951e-17
-2.90045e-17
-2.90064e-17
-2.9014e-17
-2.90158e-17
-2.90224e-17
-2.90232e-17
-2.90292e-17
-2.9031e-17
-2.90373e-17
-2.90407e-17
-2.9047e-17
-2.90503e-17
-2.90554e-17
-2.90574e-17
-2.90606e-17
-2.9062e-17
-2.90641e-17
-2.90644e-17
-2.90661e-17
-2.90662e-17
-2.90688e-17
-2.90691e-17
-2.9073e-17
-2.90735e-17
-2.90769e-17
-2.90779e-17
-2.9084e-17
-2.90846e-17
-2.90921e-17
-2.90917e-17
-2.90995e-17
-2.90986e-17
-2.89531e-17
-2.89552e-17
-2.89592e-17
-2.89607e-17
-2.89656e-17
-2.89648e-17
-2.89694e-17
-2.89671e-17
-2.89718e-17
-2.897e-17
-2.89764e-17
-2.89753e-17
-2.89835e-17
-2.89838e-17
-2.89932e-17
-2.89952e-17
-2.90045e-17
-2.90065e-17
-2.9014e-17
-2.90158e-17
-2.90224e-17
-2.90232e-17
-2.90292e-17
-2.9031e-17
-2.90372e-17
-2.90407e-17
-2.9047e-17
-2.90502e-17
-2.90554e-17
-2.90574e-17
-2.90606e-17
-2.9062e-17
-2.9064e-17
-2.90644e-17
-2.90661e-17
-2.90661e-17
-2.90688e-17
-2.90692e-17
-2.9073e-17
-2.90734e-17
-2.90768e-17
-2.90779e-17
-2.90839e-17
-2.90845e-17
-2.9092e-17
-2.90918e-17
-2.90995e-17
-2.90985e-17
-2.8953e-17
-2.89552e-17
-2.89592e-17
-2.89608e-17
-2.89656e-17
-2.89647e-17
-2.89694e-17
-2.89671e-17
-2.89718e-17
-2.89701e-17
-2.89764e-17
-2.89753e-17
-2.89835e-17
-2.89838e-17
-2.89932e-17
-2.89952e-17
-2.90045e-17
-2.90065e-17
-2.9014e-17
-2.90158e-17
-2.90224e-17
-2.90232e-17
-2.90292e-17
-2.9031e-17
-2.90372e-17
-2.90407e-17
-2.9047e-17
-2.90502e-17
-2.90554e-17
-2.90574e-17
-2.90606e-17
-2.9062e-17
-2.9064e-17
-2.90644e-17
-2.90661e-17
-2.90661e-17
-2.90688e-17
-2.90692e-17
-2.9073e-17
-2.90734e-17
-2.90768e-17
-2.90779e-17
-2.90839e-17
-2.90845e-17
-2.90921e-17
-2.90918e-17
-2.90995e-17
-2.90985e-17
-2.89531e-17
-2.89552e-17
-2.89592e-17
-2.89608e-17
-2.89656e-17
-2.89647e-17
-2.89693e-17
-2.89671e-17
-2.89718e-17
-2.89701e-17
-2.89764e-17
-2.89753e-17
-2.89835e-17
-2.89838e-17
-2.89932e-17
-2.89952e-17
-2.90045e-17
-2.90065e-17
-2.9014e-17
-2.90158e-17
-2.90224e-17
-2.90232e-17
-2.90292e-17
-2.9031e-17
-2.90372e-17
-2.90407e-17
-2.9047e-17
-2.90502e-17
-2.90554e-17
-2.90574e-17
-2.90606e-17
-2.9062e-17
-2.9064e-17
-2.90644e-17
-2.90661e-17
-2.90661e-17
-2.90688e-17
-2.90692e-17
-2.9073e-17
-2.90734e-17
-2.90768e-17
-2.90779e-17
-2.90839e-17
-2.90845e-17
-2.90921e-17
-2.90918e-17
-2.90995e-17
-2.90986e-17
-2.8949e-17
-2.8948e-17
-2.89482e-17
-2.89492e-17
-2.89486e-17
-2.89486e-17
-2.89488e-17
-2.89491e-17
-2.89493e-17
-2.89492e-17
-2.89496e-17
-2.89484e-17
-2.89482e-17
-2.89486e-17
-2.89486e-17
-2.89488e-17
-2.89489e-17
-2.89489e-17
-2.89487e-17