/*--------------------------------*- C++ -*----------------------------------*\
  =========                 |
  \\      /  F ield         | OpenFOAM: The Open Source CFD Toolbox
   \\    /   O peration     | Website:  https://openfoam.org
    \\  /    A nd           | Version:  7
     \\/     M anipulation  |
\*---------------------------------------------------------------------------*/
FoamFile
{
    version     2.0;
    format      ascii;
    class       volScalarField;
    location    "172000";
    object      p;
}
// * * * * * * * * * * * * * * * * * * * * * * * * * * * * * * * * * * * * * //

dimensions      [0 2 -2 0 0 0 0];

internalField   nonuniform List<scalar> 
4764
(
-2.09442e-18
-2.0737e-18
-2.10702e-18
-2.09258e-18
-2.09897e-18
-2.06698e-18
-2.09368e-18
-2.10757e-18
-2.09227e-18
-2.09959e-18
-2.09496e-18
-2.10334e-18
-2.0905e-18
-2.1151e-18
-2.09796e-18
-2.09533e-18
-2.07854e-18
-2.10113e-18
-2.0977e-18
-2.09132e-18
-2.07291e-18
-2.08724e-18
-2.06902e-18
-2.07405e-18
-2.05125e-18
-2.06327e-18
-2.05218e-18
-2.06171e-18
-2.04356e-18
-2.05083e-18
-2.04555e-18
-2.04637e-18
-2.06311e-18
-2.05574e-18
-2.06204e-18
-2.09153e-18
-2.09935e-18
-2.09099e-18
-2.09367e-18
-2.0889e-18
-2.10243e-18
-2.0868e-18
-2.10572e-18
-2.09669e-18
-2.09764e-18
-2.08488e-18
-2.11069e-18
-2.09594e-18
-2.09087e-18
-2.0793e-18
-2.0842e-18
-2.07605e-18
-2.07274e-18
-2.05348e-18
-2.0623e-18
-2.05913e-18
-2.06168e-18
-2.04593e-18
-2.05356e-18
-2.04589e-18
-2.0542e-18
-2.05869e-18
-2.0567e-18
-2.05759e-18
-2.0675e-18
-2.07009e-18
-2.07294e-18
-2.06999e-18
-2.09208e-18
-2.09815e-18
-2.0973e-18
-2.09798e-18
-2.08929e-18
-2.11432e-18
-2.10272e-18
-2.0992e-18
-2.08852e-18
-2.10465e-18
-2.08707e-18
-2.11181e-18
-2.09629e-18
-2.0928e-18
-2.08078e-18
-2.08145e-18
-2.0761e-18
-2.07174e-18
-2.0563e-18
-2.06156e-18
-2.06249e-18
-2.05744e-18
-2.04331e-18
-2.05087e-18
-2.05048e-18
-2.04615e-18
-2.05559e-18
-2.04856e-18
-2.05418e-18
-2.06701e-18
-2.06945e-18
-2.06629e-18
-2.0744e-18
-2.07189e-18
-2.06106e-18
-2.07337e-18
-2.07163e-18
-2.0854e-18
-2.07681e-18
-2.07722e-18
-2.06074e-18
-2.08769e-18
-2.05893e-18
-2.06891e-18
-2.05251e-18
-2.0931e-18
-2.09162e-18
-2.08817e-18
-2.0991e-18
-2.08473e-18
-2.10791e-18
-2.10505e-18
-2.09954e-18
-2.09331e-18
-2.09659e-18
-2.08628e-18
-2.11138e-18
-2.09308e-18
-2.08928e-18
-2.0809e-18
-2.08778e-18
-2.06941e-18
-2.0799e-18
-2.05425e-18
-2.06092e-18
-2.05471e-18
-2.05567e-18
-2.03588e-18
-2.05171e-18
-2.04837e-18
-2.04243e-18
-2.05505e-18
-2.04923e-18
-2.06852e-18
-2.06005e-18
-2.0767e-18
-2.0662e-18
-2.07341e-18
-2.0687e-18
-2.07091e-18
-2.07378e-18
-2.06495e-18
-2.08945e-18
-2.0795e-18
-2.07988e-18
-2.06325e-18
-2.08177e-18
-2.05603e-18
-2.05581e-18
-2.05316e-18
-2.0904e-18
-2.09384e-18
-2.08002e-18
-2.093e-18
-2.09265e-18
-2.102e-18
-2.09867e-18
-2.10862e-18
-2.0946e-18
-2.10202e-18
-2.09369e-18
-2.10729e-18
-2.09188e-18
-2.08368e-18
-2.07746e-18
-2.08563e-18
-2.07116e-18
-2.08084e-18
-2.05721e-18
-2.06161e-18
-2.05244e-18
-2.05318e-18
-2.0423e-18
-2.05839e-18
-2.04744e-18
-2.04507e-18
-2.05924e-18
-2.04729e-18
-2.06666e-18
-2.06044e-18
-2.06896e-18
-2.0702e-18
-2.065e-18
-2.07417e-18
-2.07954e-18
-2.07111e-18
-2.06653e-18
-2.09614e-18
-2.07124e-18
-2.08602e-18
-2.06839e-18
-2.08294e-18
-2.04427e-18
-2.0642e-18
-2.05283e-18
-2.1041e-18
-2.10586e-18
-2.08968e-18
-2.11493e-18
-2.09818e-18
-2.11139e-18
-2.1029e-18
-2.10504e-18
-2.0923e-18
-2.10762e-18
-2.092e-18
-2.1124e-18
-2.096e-18
-2.09442e-18
-2.07492e-18
-2.08279e-18
-2.07032e-18
-2.07905e-18
-2.05966e-18
-2.06471e-18
-2.05441e-18
-2.04874e-18
-2.04165e-18
-2.04693e-18
-2.04857e-18
-2.05394e-18
-2.05837e-18
-2.05029e-18
-2.06307e-18
-2.06168e-18
-2.06254e-18
-2.06671e-18
-2.06833e-18
-2.07534e-18
-2.07325e-18
-2.06521e-18
-2.04835e-18
-2.08014e-18
-2.06463e-18
-2.07245e-18
-2.06561e-18
-2.0817e-18
-2.05496e-18
-2.06875e-18
-2.06076e-18
-2.10874e-18
-2.10333e-18
-2.08811e-18
-2.10877e-18
-2.08527e-18
-2.10405e-18
-2.11011e-18
-2.10279e-18
-2.08535e-18
-2.10616e-18
-2.09404e-18
-2.10839e-18
-2.09662e-18
-2.09887e-18
-2.07413e-18
-2.08676e-18
-2.07238e-18
-2.07667e-18
-2.0617e-18
-2.06479e-18
-2.05843e-18
-2.05084e-18
-2.0419e-18
-2.0432e-18
-2.04855e-18
-2.05412e-18
-2.05451e-18
-2.04972e-18
-2.06938e-18
-2.0554e-18
-2.06362e-18
-2.06331e-18
-2.07048e-18
-2.06921e-18
-2.07033e-18
-2.07113e-18
-2.05707e-18
-2.08186e-18
-2.0672e-18
-2.06555e-18
-2.06154e-18
-2.07591e-18
-2.05565e-18
-2.07249e-18
-2.06341e-18
-2.09443e-18
-2.09683e-18
-2.08294e-18
-2.10747e-18
-2.09065e-18
-2.11158e-18
-2.11323e-18
-2.10388e-18
-2.08107e-18
-2.10627e-18
-2.09145e-18
-2.11221e-18
-2.09175e-18
-2.10262e-18
-2.07807e-18
-2.09003e-18
-2.06776e-18
-2.07779e-18
-2.05708e-18
-2.06183e-18
-2.055e-18
-2.05823e-18
-2.04624e-18
-2.0384e-18
-2.04853e-18
-2.05015e-18
-2.05184e-18
-2.05302e-18
-2.06768e-18
-2.06468e-18
-2.06377e-18
-2.07035e-18
-2.07063e-18
-2.0715e-18
-2.07371e-18
-2.06888e-18
-2.06617e-18
-2.08825e-18
-2.07058e-18
-2.07628e-18
-2.06444e-18
-2.07373e-18
-2.05384e-18
-2.08313e-18
-2.06046e-18
-2.09104e-18
-2.09776e-18
-2.08447e-18
-2.10776e-18
-2.09748e-18
-2.11003e-18
-2.10307e-18
-2.11133e-18
-2.09169e-18
-2.10384e-18
-2.09668e-18
-2.11866e-18
-2.08648e-18
-2.0985e-18
-2.08037e-18
-2.0875e-18
-2.06378e-18
-2.07414e-18
-2.05528e-18
-2.06119e-18
-2.05147e-18
-2.05635e-18
-2.04627e-18
-2.0449e-18
-2.05074e-18
-2.04729e-18
-2.05547e-18
-2.05503e-18
-2.059e-18
-2.06861e-18
-2.06589e-18
-2.07222e-18
-2.06665e-18
-2.08199e-18
-2.06584e-18
-2.07177e-18
-2.06152e-18
-2.08693e-18
-2.07464e-18
-2.08201e-18
-2.06498e-18
-2.07398e-18
-2.05497e-18
-2.08523e-18
-2.05091e-18
-2.0942e-18
-2.10394e-18
-2.0835e-18
-2.10548e-18
-2.08874e-18
-2.09863e-18
-2.10402e-18
-2.11296e-18
-2.09969e-18
-2.10478e-18
-2.09427e-18
-2.11759e-18
-2.09093e-18
-2.10001e-18
-2.07817e-18
-2.08649e-18
-2.06452e-18
-2.07405e-18
-2.05418e-18
-2.06078e-18
-2.05294e-18
-2.05574e-18
-2.0431e-18
-2.05018e-18
-2.04893e-18
-2.04842e-18
-2.05301e-18
-2.05389e-18
-2.05856e-18
-2.06959e-18
-2.06479e-18
-2.07015e-18
-2.06449e-18
-2.07551e-18
-2.08415e-18
-2.07686e-18
-2.06351e-18
-2.0791e-18
-2.07238e-18
-2.08197e-18
-2.05521e-18
-2.07609e-18
-2.06089e-18
-2.07274e-18
-2.04813e-18
-2.09975e-18
-2.09856e-18
-2.08894e-18
-2.10771e-18
-2.08875e-18
-2.10643e-18
-2.10491e-18
-2.11184e-18
-2.10129e-18
-2.10492e-18
-2.09546e-18
-2.1071e-18
-2.09686e-18
-2.09686e-18
-2.0837e-18
-2.08387e-18
-2.06278e-18
-2.07539e-18
-2.05884e-18
-2.05856e-18
-2.0512e-18
-2.05536e-18
-2.04783e-18
-2.04942e-18
-2.04918e-18
-2.04846e-18
-2.04963e-18
-2.05069e-18
-2.06209e-18
-2.05867e-18
-2.06458e-18
-2.0572e-18
-2.06616e-18
-2.06715e-18
-2.07644e-18
-2.07398e-18
-2.0661e-18
-2.07463e-18
-2.06599e-18
-2.07105e-18
-2.05976e-18
-2.07224e-18
-2.05123e-18
-2.06718e-18
-2.04959e-18
-2.10005e-18
-2.09726e-18
-2.08565e-18
-2.10646e-18
-2.08831e-18
-2.10155e-18
-2.1116e-18
-2.10702e-18
-2.09673e-18
-2.1092e-18
-2.09637e-18
-2.10603e-18
-2.09858e-18
-2.09693e-18
-2.08298e-18
-2.08259e-18
-2.06562e-18
-2.0701e-18
-2.05619e-18
-2.06047e-18
-2.05334e-18
-2.05917e-18
-2.05338e-18
-2.04769e-18
-2.04443e-18
-2.04947e-18
-2.0503e-18
-2.05339e-18
-2.0578e-18
-2.05873e-18
-2.06158e-18
-2.06108e-18
-2.07187e-18
-2.06177e-18
-2.07688e-18
-2.07319e-18
-2.0616e-18
-2.07973e-18
-2.06878e-18
-2.07361e-18
-2.06155e-18
-2.07122e-18
-2.04705e-18
-2.06404e-18
-2.05188e-18
-2.09967e-18
-2.09238e-18
-2.10088e-18
-2.08154e-18
-2.10038e-18
-2.08554e-18
-2.09872e-18
-2.10962e-18
-2.11599e-18
-2.09685e-18
-2.1108e-18
-2.09992e-18
-2.10912e-18
-2.09429e-18
-2.09913e-18
-2.07716e-18
-2.0845e-18
-2.06617e-18
-2.06808e-18
-2.05335e-18
-2.06054e-18
-2.05726e-18
-2.06406e-18
-2.05292e-18
-2.04695e-18
-2.04655e-18
-2.05447e-18
-2.05488e-18
-2.06293e-18
-2.05559e-18
-2.05485e-18
-2.06258e-18
-2.0638e-18
-2.06606e-18
-2.06493e-18
-2.0756e-18
-2.07396e-18
-2.06455e-18
-2.08656e-18
-2.0651e-18
-2.07874e-18
-2.05732e-18
-2.07299e-18
-2.04862e-18
-2.06599e-18
-2.04938e-18
-2.09546e-18
-2.09786e-18
-2.09341e-18
-2.09129e-18
-2.10859e-18
-2.08965e-18
-2.10697e-18
-2.09813e-18
-2.11168e-18
-2.09945e-18
-2.104e-18
-2.10027e-18
-2.10956e-18
-2.09661e-18
-2.09969e-18
-2.07981e-18
-2.09061e-18
-2.06452e-18
-2.07606e-18
-2.05027e-18
-2.05879e-18
-2.05223e-18
-2.05547e-18
-2.04656e-18
-2.04615e-18
-2.04562e-18
-2.05076e-18
-2.05833e-18
-2.05798e-18
-2.06205e-18
-2.04899e-18
-2.06558e-18
-2.05972e-18
-2.06999e-18
-2.07654e-18
-2.06971e-18
-2.06527e-18
-2.06186e-18
-2.0824e-18
-2.06865e-18
-2.07003e-18
-2.06217e-18
-2.0719e-18
-2.0572e-18
-2.06687e-18
-2.05653e-18
-2.09134e-18
-2.09914e-18
-2.09675e-18
-2.08572e-18
-2.10536e-18
-2.09234e-18
-2.10691e-18
-2.09837e-18
-2.11957e-18
-2.09422e-18
-2.10405e-18
-2.10142e-18
-2.11408e-18
-2.09489e-18
-2.10053e-18
-2.08205e-18
-2.0894e-18
-2.06627e-18
-2.06997e-18
-2.05162e-18
-2.06302e-18
-2.05676e-18
-2.05869e-18
-2.04788e-18
-2.04729e-18
-2.04656e-18
-2.05186e-18
-2.05608e-18
-2.05879e-18
-2.05718e-18
-2.0524e-18
-2.06215e-18
-2.05885e-18
-2.0635e-18
-2.07443e-18
-2.07142e-18
-2.06235e-18
-2.06692e-18
-2.08196e-18
-2.06732e-18
-2.06992e-18
-2.0714e-18
-2.07708e-18
-2.05435e-18
-2.07436e-18
-2.05166e-18
-2.08876e-18
-2.09364e-18
-2.09867e-18
-2.09783e-18
-2.08589e-18
-2.10438e-18
-2.0845e-18
-2.11408e-18
-2.10059e-18
-2.11855e-18
-2.09803e-18
-2.10518e-18
-2.10096e-18
-2.11326e-18
-2.09573e-18
-2.10353e-18
-2.08113e-18
-2.08668e-18
-2.06862e-18
-2.06613e-18
-2.05071e-18
-2.06267e-18
-2.0583e-18
-2.05917e-18
-2.04717e-18
-2.04653e-18
-2.05214e-18
-2.05768e-18
-2.04823e-18
-2.0587e-18
-2.05382e-18
-2.057e-18
-2.06503e-18
-2.0579e-18
-2.06217e-18
-2.06879e-18
-2.06574e-18
-2.07416e-18
-2.06532e-18
-2.07725e-18
-2.06721e-18
-2.07076e-18
-2.06904e-18
-2.07247e-18
-2.05564e-18
-2.07086e-18
-2.04761e-18
-2.10098e-18
-2.09546e-18
-2.09827e-18
-2.10264e-18
-2.08347e-18
-2.10702e-18
-2.08035e-18
-2.10558e-18
-2.10153e-18
-2.1129e-18
-2.10055e-18
-2.10458e-18
-2.10589e-18
-2.11418e-18
-2.09952e-18
-2.10264e-18
-2.07897e-18
-2.08475e-18
-2.07076e-18
-2.07183e-18
-2.05137e-18
-2.06438e-18
-2.05415e-18
-2.06074e-18
-2.04541e-18
-2.04617e-18
-2.0488e-18
-2.06174e-18
-2.04632e-18
-2.05647e-18
-2.05275e-18
-2.05686e-18
-2.06664e-18
-2.06192e-18
-2.06728e-18
-2.06977e-18
-2.07057e-18
-2.07868e-18
-2.06262e-18
-2.07374e-18
-2.06154e-18
-2.07073e-18
-2.0554e-18
-2.06007e-18
-2.0526e-18
-2.0709e-18
-2.05013e-18
-2.1083e-18
-2.10815e-18
-2.0994e-18
-2.09919e-18
-2.10048e-18
-2.07888e-18
-2.10384e-18
-2.08607e-18
-2.10834e-18
-2.09596e-18
-2.11211e-18
-2.10014e-18
-2.10493e-18
-2.10656e-18
-2.10712e-18
-2.10032e-18
-2.09886e-18
-2.0811e-18
-2.08122e-18
-2.07685e-18
-2.07722e-18
-2.05441e-18
-2.06127e-18
-2.0508e-18
-2.05747e-18
-2.0481e-18
-2.04259e-18
-2.04815e-18
-2.05642e-18
-2.0524e-18
-2.05808e-18
-2.05709e-18
-2.05348e-18
-2.06294e-18
-2.06532e-18
-2.07009e-18
-2.07573e-18
-2.06262e-18
-2.07708e-18
-2.05969e-18
-2.07679e-18
-2.0602e-18
-2.06917e-18
-2.05771e-18
-2.05284e-18
-2.05597e-18
-2.06695e-18
-2.06381e-18
-2.10035e-18
-2.0966e-18
-2.10102e-18
-2.1014e-18
-2.10428e-18
-2.08887e-18
-2.10335e-18
-2.08732e-18
-2.10874e-18
-2.09998e-18
-2.12145e-18
-2.10001e-18
-2.10799e-18
-2.10408e-18
-2.10924e-18
-2.10015e-18
-2.09892e-18
-2.08211e-18
-2.08187e-18
-2.07193e-18
-2.07282e-18
-2.05799e-18
-2.06066e-18
-2.05231e-18
-2.05443e-18
-2.05116e-18
-2.04438e-18
-2.05065e-18
-2.05268e-18
-2.05378e-18
-2.05569e-18
-2.05735e-18
-2.05361e-18
-2.06205e-18
-2.06551e-18
-2.06437e-18
-2.07066e-18
-2.06385e-18
-2.07052e-18
-2.06265e-18
-2.07396e-18
-2.05513e-18
-2.06565e-18
-2.05993e-18
-2.06782e-18
-2.06092e-18
-2.06275e-18
-2.05974e-18
-2.1028e-18
-2.09326e-18
-2.10049e-18
-2.09881e-18
-2.10301e-18
-2.08238e-18
-2.10664e-18
-2.09081e-18
-2.10506e-18
-2.10804e-18
-2.11964e-18
-2.10135e-18
-2.11334e-18
-2.10289e-18
-2.11015e-18
-2.09947e-18
-2.10136e-18
-2.07938e-18
-2.08618e-18
-2.06965e-18
-2.07089e-18
-2.05643e-18
-2.06196e-18
-2.05279e-18
-2.05105e-18
-2.04887e-18
-2.04468e-18
-2.04871e-18
-2.05122e-18
-2.05114e-18
-2.056e-18
-2.05767e-18
-2.05494e-18
-2.05991e-18
-2.06312e-18
-2.06702e-18
-2.068e-18
-2.06668e-18
-2.06638e-18
-2.06408e-18
-2.08533e-18
-2.0585e-18
-2.06535e-18
-2.05986e-18
-2.06644e-18
-2.06145e-18
-2.06289e-18
-2.05456e-18
-2.10571e-18
-2.08647e-18
-2.10003e-18
-2.10003e-18
-2.09901e-18
-2.08754e-18
-2.10725e-18
-2.08579e-18
-2.10757e-18
-2.10724e-18
-2.11079e-18
-2.10108e-18
-2.11491e-18
-2.10502e-18
-2.11341e-18
-2.09779e-18
-2.09876e-18
-2.08079e-18
-2.08627e-18
-2.07118e-18
-2.07179e-18
-2.05557e-18
-2.05944e-18
-2.05276e-18
-2.05388e-18
-2.04839e-18
-2.04489e-18
-2.04813e-18
-2.05508e-18
-2.05024e-18
-2.05897e-18
-2.05584e-18
-2.0527e-18
-2.05608e-18
-2.06031e-18
-2.07313e-18
-2.068e-18
-2.06214e-18
-2.07694e-18
-2.06442e-18
-2.08161e-18
-2.06279e-18
-2.06602e-18
-2.05969e-18
-2.07277e-18
-2.0577e-18
-2.06018e-18
-2.05281e-18
-2.09675e-18
-2.08447e-18
-2.09803e-18
-2.105e-18
-2.10605e-18
-2.09361e-18
-2.1057e-18
-2.08512e-18
-2.11491e-18
-2.10302e-18
-2.10859e-18
-2.10316e-18
-2.12012e-18
-2.10695e-18
-2.1147e-18
-2.09856e-18
-2.09638e-18
-2.08713e-18
-2.08613e-18
-2.07211e-18
-2.0724e-18
-2.05497e-18
-2.0614e-18
-2.05265e-18
-2.055e-18
-2.05093e-18
-2.04547e-18
-2.05012e-18
-2.05123e-18
-2.05526e-18
-2.05814e-18
-2.05491e-18
-2.05172e-18
-2.0506e-18
-2.05748e-18
-2.0759e-18
-2.07014e-18
-2.05918e-18
-2.07744e-18
-2.06407e-18
-2.08289e-18
-2.05634e-18
-2.06175e-18
-2.06186e-18
-2.0726e-18
-2.06089e-18
-2.06749e-18
-2.06463e-18
-2.0975e-18
-2.08802e-18
-2.09534e-18
-2.09284e-18
-2.10212e-18
-2.10362e-18
-2.08778e-18
-2.10113e-18
-2.0886e-18
-2.10455e-18
-2.09369e-18
-2.1187e-18
-2.09658e-18
-2.11371e-18
-2.10612e-18
-2.11111e-18
-2.09835e-18
-2.09708e-18
-2.08607e-18
-2.08697e-18
-2.07459e-18
-2.0719e-18
-2.05372e-18
-2.05921e-18
-2.05287e-18
-2.05447e-18
-2.04962e-18
-2.04424e-18
-2.05382e-18
-2.05379e-18
-2.05597e-18
-2.06035e-18
-2.05484e-18
-2.05581e-18
-2.0582e-18
-2.06721e-18
-2.06374e-18
-2.07689e-18
-2.07146e-18
-2.07487e-18
-2.0651e-18
-2.07751e-18
-2.06004e-18
-2.06541e-18
-2.06759e-18
-2.06487e-18
-2.07039e-18
-2.06786e-18
-2.05777e-18
-2.11031e-18
-2.09343e-18
-2.09929e-18
-2.10171e-18
-2.0953e-18
-2.10259e-18
-2.10055e-18
-2.0871e-18
-2.09972e-18
-2.09014e-18
-2.11143e-18
-2.09738e-18
-2.12204e-18
-2.10592e-18
-2.11011e-18
-2.10561e-18
-2.10691e-18
-2.09971e-18
-2.09744e-18
-2.08492e-18
-2.08876e-18
-2.0694e-18
-2.07198e-18
-2.05648e-18
-2.05927e-18
-2.05302e-18
-2.05484e-18
-2.05043e-18
-2.05087e-18
-2.05086e-18
-2.05755e-18
-2.0554e-18
-2.05886e-18
-2.05638e-18
-2.05692e-18
-2.05774e-18
-2.06572e-18
-2.05866e-18
-2.07835e-18
-2.06704e-18
-2.07657e-18
-2.06553e-18
-2.07369e-18
-2.0631e-18
-2.06863e-18
-2.064e-18
-2.06162e-18
-2.06062e-18
-2.06947e-18
-2.05541e-18
-2.10912e-18
-2.10061e-18
-2.10646e-18
-2.10014e-18
-2.10079e-18
-2.09517e-18
-2.09124e-18
-2.08462e-18
-2.10655e-18
-2.09059e-18
-2.10273e-18
-2.09988e-18
-2.1151e-18
-2.10882e-18
-2.11523e-18
-2.10342e-18
-2.10284e-18
-2.09855e-18
-2.10036e-18
-2.08406e-18
-2.09072e-18
-2.0707e-18
-2.07675e-18
-2.05655e-18
-2.06147e-18
-2.0531e-18
-2.05486e-18
-2.0483e-18
-2.05244e-18
-2.05036e-18
-2.05639e-18
-2.05151e-18
-2.0632e-18
-2.05705e-18
-2.05924e-18
-2.05437e-18
-2.06643e-18
-2.06401e-18
-2.07721e-18
-2.06454e-18
-2.07397e-18
-2.05896e-18
-2.07049e-18
-2.06438e-18
-2.07745e-18
-2.05608e-18
-2.06748e-18
-2.05487e-18
-2.06692e-18
-2.05152e-18
-2.10613e-18
-2.10139e-18
-2.1051e-18
-2.09039e-18
-2.1035e-18
-2.09608e-18
-2.0986e-18
-2.08353e-18
-2.10368e-18
-2.0928e-18
-2.10065e-18
-2.10019e-18
-2.11606e-18
-2.11157e-18
-2.11559e-18
-2.10117e-18
-2.1122e-18
-2.09169e-18
-2.09853e-18
-2.08343e-18
-2.08924e-18
-2.07175e-18
-2.076e-18
-2.05559e-18
-2.05928e-18
-2.05309e-18
-2.05455e-18
-2.04733e-18
-2.04958e-18
-2.0498e-18
-2.05615e-18
-2.05563e-18
-2.0656e-18
-2.04756e-18
-2.06118e-18
-2.05213e-18
-2.05882e-18
-2.06755e-18
-2.07431e-18
-2.0631e-18
-2.07082e-18
-2.06298e-18
-2.07733e-18
-2.0596e-18
-2.07073e-18
-2.05623e-18
-2.06917e-18
-2.06024e-18
-2.06115e-18
-2.05076e-18
-2.10522e-18
-2.09528e-18
-2.10124e-18
-2.09167e-18
-2.09865e-18
-2.09882e-18
-2.1052e-18
-2.08917e-18
-2.10265e-18
-2.09678e-18
-2.10768e-18
-2.10037e-18
-2.11362e-18
-2.10553e-18
-2.11846e-18
-2.10272e-18
-2.11055e-18
-2.09585e-18
-2.10169e-18
-2.08662e-18
-2.09157e-18
-2.07301e-18
-2.07706e-18
-2.05765e-18
-2.05842e-18
-2.05342e-18
-2.05472e-18
-2.0463e-18
-2.04799e-18
-2.0468e-18
-2.05319e-18
-2.05721e-18
-2.06462e-18
-2.05266e-18
-2.05813e-18
-2.05336e-18
-2.06198e-18
-2.06829e-18
-2.07514e-18
-2.06467e-18
-2.06706e-18
-2.06559e-18
-2.07733e-18
-2.05855e-18
-2.06779e-18
-2.06156e-18
-2.07021e-18
-2.06012e-18
-2.0673e-18
-2.05982e-18
-2.10293e-18
-2.09251e-18
-2.10539e-18
-2.10259e-18
-2.09807e-18
-2.09845e-18
-2.10502e-18
-2.09107e-18
-2.10102e-18
-2.09366e-18
-2.11049e-18
-2.10039e-18
-2.11835e-18
-2.10602e-18
-2.12075e-18
-2.10834e-18
-2.10715e-18
-2.0994e-18
-2.10145e-18
-2.08803e-18
-2.09248e-18
-2.07289e-18
-2.07515e-18
-2.05952e-18
-2.05959e-18
-2.05369e-18
-2.05457e-18
-2.04364e-18
-2.04645e-18
-2.04616e-18
-2.05186e-18
-2.05913e-18
-2.05951e-18
-2.05754e-18
-2.0556e-18
-2.05758e-18
-2.06161e-18
-2.06321e-18
-2.07338e-18
-2.0719e-18
-2.0703e-18
-2.06462e-18
-2.07717e-18
-2.05694e-18
-2.06652e-18
-2.06066e-18
-2.06123e-18
-2.05503e-18
-2.06304e-18
-2.05911e-18
-2.11352e-18
-2.09037e-18
-2.10331e-18
-2.10114e-18
-2.09599e-18
-2.10027e-18
-2.09676e-18
-2.09128e-18
-2.10745e-18
-2.09909e-18
-2.10513e-18
-2.09982e-18
-2.12018e-18
-2.1021e-18
-2.12205e-18
-2.10919e-18
-2.10693e-18
-2.09704e-18
-2.10094e-18
-2.08581e-18
-2.09009e-18
-2.07376e-18
-2.07341e-18
-2.05891e-18
-2.06233e-18
-2.05508e-18
-2.05452e-18
-2.04595e-18
-2.04961e-18
-2.04779e-18
-2.05325e-18
-2.05607e-18
-2.05989e-18
-2.05273e-18
-2.055e-18
-2.05329e-18
-2.06662e-18
-2.06501e-18
-2.07478e-18
-2.07599e-18
-2.06447e-18
-2.05752e-18
-2.07538e-18
-2.07009e-18
-2.07059e-18
-2.06566e-18
-2.06351e-18
-2.05728e-18
-2.06477e-18
-2.04464e-18
-2.10451e-18
-2.08984e-18
-2.0945e-18
-2.09974e-18
-2.09899e-18
-2.09517e-18
-2.10225e-18
-2.09022e-18
-2.0984e-18
-2.09172e-18
-2.10589e-18
-2.09908e-18
-2.11703e-18
-2.10886e-18
-2.11793e-18
-2.10467e-18
-2.10904e-18
-2.09349e-18
-2.10249e-18
-2.08614e-18
-2.08675e-18
-2.07717e-18
-2.07258e-18
-2.05856e-18
-2.06169e-18
-2.05753e-18
-2.0553e-18
-2.04622e-18
-2.05009e-18
-2.04973e-18
-2.05502e-18
-2.05344e-18
-2.06186e-18
-2.05058e-18
-2.05859e-18
-2.05161e-18
-2.06039e-18
-2.07269e-18
-2.0766e-18
-2.06818e-18
-2.07244e-18
-2.06738e-18
-2.07452e-18
-2.06498e-18
-2.07316e-18
-2.06217e-18
-2.06362e-18
-2.06231e-18
-2.0652e-18
-2.05224e-18
-2.09723e-18
-2.08673e-18
-2.09293e-18
-2.0959e-18
-2.09694e-18
-2.08216e-18
-2.10524e-18
-2.09086e-18
-2.09288e-18
-2.09345e-18
-2.10166e-18
-2.10038e-18
-2.11852e-18
-2.10947e-18
-2.117e-18
-2.10603e-18
-2.10903e-18
-2.09614e-18
-2.10345e-18
-2.08671e-18
-2.08542e-18
-2.07374e-18
-2.07707e-18
-2.05922e-18
-2.06337e-18
-2.05582e-18
-2.055e-18
-2.04415e-18
-2.05172e-18
-2.05534e-18
-2.05719e-18
-2.05636e-18
-2.06171e-18
-2.05539e-18
-2.05964e-18
-2.05465e-18
-2.06052e-18
-2.06448e-18
-2.06893e-18
-2.06994e-18
-2.0734e-18
-2.07408e-18
-2.07488e-18
-2.05732e-18
-2.08373e-18
-2.06153e-18
-2.06695e-18
-2.06331e-18
-2.06715e-18
-2.05898e-18
-2.1015e-18
-2.09744e-18
-2.10398e-18
-2.10195e-18
-2.09433e-18
-2.09034e-18
-2.10558e-18
-2.0921e-18
-2.09783e-18
-2.10191e-18
-2.1044e-18
-2.09612e-18
-2.11837e-18
-2.10561e-18
-2.1144e-18
-2.10837e-18
-2.10804e-18
-2.09715e-18
-2.10347e-18
-2.08899e-18
-2.08493e-18
-2.06991e-18
-2.07649e-18
-2.06081e-18
-2.06142e-18
-2.05482e-18
-2.05478e-18
-2.04677e-18
-2.05629e-18
-2.05462e-18
-2.05274e-18
-2.05737e-18
-2.06165e-18
-2.05676e-18
-2.056e-18
-2.0572e-18
-2.06647e-18
-2.06184e-18
-2.07332e-18
-2.06662e-18
-2.06541e-18
-2.06889e-18
-2.07535e-18
-2.05838e-18
-2.075e-18
-2.06179e-18
-2.06362e-18
-2.05482e-18
-2.06045e-18
-2.05287e-18
-2.102e-18
-2.09733e-18
-2.10734e-18
-2.10586e-18
-2.09692e-18
-2.09341e-18
-2.10262e-18
-2.09599e-18
-2.10691e-18
-2.10073e-18
-2.09939e-18
-2.10555e-18
-2.11704e-18
-2.11343e-18
-2.11801e-18
-2.10347e-18
-2.11216e-18
-2.09982e-18
-2.10183e-18
-2.08468e-18
-2.08127e-18
-2.07358e-18
-2.07427e-18
-2.06298e-18
-2.06064e-18
-2.05561e-18
-2.05498e-18
-2.05067e-18
-2.05581e-18
-2.05573e-18
-2.05553e-18
-2.05404e-18
-2.05806e-18
-2.05521e-18
-2.05885e-18
-2.05394e-18
-2.06172e-18
-2.06447e-18
-2.0735e-18
-2.06968e-18
-2.06211e-18
-2.06061e-18
-2.07106e-18
-2.06269e-18
-2.07355e-18
-2.06436e-18
-2.05972e-18
-2.05154e-18
-2.0601e-18
-2.04862e-18
-2.10089e-18
-2.09513e-18
-2.10062e-18
-2.09725e-18
-2.10113e-18
-2.09497e-18
-2.09673e-18
-2.09284e-18
-2.10594e-18
-2.09919e-18
-2.10691e-18
-2.10399e-18
-2.12175e-18
-2.11371e-18
-2.11922e-18
-2.10167e-18
-2.11143e-18
-2.09952e-18
-2.09964e-18
-2.08178e-18
-2.08054e-18
-2.07251e-18
-2.07075e-18
-2.06115e-18
-2.06096e-18
-2.05884e-18
-2.05521e-18
-2.04948e-18
-2.0529e-18
-2.05185e-18
-2.05652e-18
-2.05251e-18
-2.05635e-18
-2.05365e-18
-2.05574e-18
-2.05312e-18
-2.06303e-18
-2.06457e-18
-2.06994e-18
-2.06404e-18
-2.06609e-18
-2.06343e-18
-2.07452e-18
-2.07092e-18
-2.0702e-18
-2.06348e-18
-2.0657e-18
-2.05664e-18
-2.06053e-18
-2.04847e-18
-2.10019e-18
-2.09455e-18
-2.10331e-18
-2.09671e-18
-2.10365e-18
-2.09313e-18
-2.10508e-18
-2.08931e-18
-2.10139e-18
-2.09589e-18
-2.10824e-18
-2.10029e-18
-2.12517e-18
-2.10978e-18
-2.11505e-18
-2.10388e-18
-2.11084e-18
-2.09672e-18
-2.10005e-18
-2.08647e-18
-2.08335e-18
-2.07561e-18
-2.07432e-18
-2.06104e-18
-2.0613e-18
-2.05854e-18
-2.05475e-18
-2.04999e-18
-2.05181e-18
-2.0501e-18
-2.05511e-18
-2.05339e-18
-2.06096e-18
-2.05174e-18
-2.05651e-18
-2.05602e-18
-2.06507e-18
-2.06225e-18
-2.0737e-18
-2.06255e-18
-2.07309e-18
-2.06612e-18
-2.07902e-18
-2.0679e-18
-2.06995e-18
-2.0599e-18
-2.06501e-18
-2.05793e-18
-2.06005e-18
-2.04703e-18
-2.09956e-18
-2.09454e-18
-2.10183e-18
-2.10228e-18
-2.10198e-18
-2.09381e-18
-2.10223e-18
-2.09958e-18
-2.09835e-18
-2.09256e-18
-2.10832e-18
-2.10082e-18
-2.11902e-18
-2.10748e-18
-2.11681e-18
-2.10695e-18
-2.10462e-18
-2.0983e-18
-2.09339e-18
-2.08862e-18
-2.08546e-18
-2.07383e-18
-2.07756e-18
-2.06154e-18
-2.06165e-18
-2.05962e-18
-2.05636e-18
-2.05045e-18
-2.05248e-18
-2.05278e-18
-2.05684e-18
-2.05863e-18
-2.05946e-18
-2.05556e-18
-2.059e-18
-2.05611e-18
-2.06175e-18
-2.06257e-18
-2.07517e-18
-2.0643e-18
-2.07539e-18
-2.06732e-18
-2.06836e-18
-2.0675e-18
-2.0665e-18
-2.06316e-18
-2.05855e-18
-2.0598e-18
-2.05965e-18
-2.05172e-18
-2.09866e-18
-2.09479e-18
-2.10422e-18
-2.09596e-18
-2.09942e-18
-2.09343e-18
-2.10176e-18
-2.09926e-18
-2.09865e-18
-2.09799e-18
-2.10919e-18
-2.10053e-18
-2.12174e-18
-2.10941e-18
-2.11932e-18
-2.10626e-18
-2.10188e-18
-2.09616e-18
-2.09322e-18
-2.08939e-18
-2.08222e-18
-2.07265e-18
-2.07885e-18
-2.05991e-18
-2.06167e-18
-2.05632e-18
-2.05796e-18
-2.04615e-18
-2.05281e-18
-2.05338e-18
-2.05454e-18
-2.05976e-18
-2.06436e-18
-2.05893e-18
-2.06049e-18
-2.05416e-18
-2.06183e-18
-2.06151e-18
-2.07412e-18
-2.06359e-18
-2.06829e-18
-2.06422e-18
-2.06603e-18
-2.06711e-18
-2.06473e-18
-2.06348e-18
-2.06335e-18
-2.05465e-18
-2.05963e-18
-2.05542e-18
-2.09714e-18
-2.0962e-18
-2.10042e-18
-2.09469e-18
-2.10041e-18
-2.09141e-18
-2.10104e-18
-2.09799e-18
-2.09735e-18
-2.10389e-18
-2.10983e-18
-2.10137e-18
-2.12006e-18
-2.10955e-18
-2.11702e-18
-2.10586e-18
-2.10803e-18
-2.09602e-18
-2.09405e-18
-2.08917e-18
-2.08004e-18
-2.0724e-18
-2.0773e-18
-2.06214e-18
-2.06272e-18
-2.05602e-18
-2.05566e-18
-2.04875e-18
-2.05317e-18
-2.05429e-18
-2.0562e-18
-2.05792e-18
-2.06269e-18
-2.055e-18
-2.0571e-18
-2.05607e-18
-2.06065e-18
-2.0633e-18
-2.0729e-18
-2.06604e-18
-2.06073e-18
-2.06498e-18
-2.0717e-18
-2.06738e-18
-2.06931e-18
-2.05908e-18
-2.06372e-18
-2.0595e-18
-2.05966e-18
-2.05542e-18
-2.09351e-18
-2.09239e-18
-2.10224e-18
-2.10198e-18
-2.10084e-18
-2.09118e-18
-2.10382e-18
-2.0961e-18
-2.10262e-18
-2.10088e-18
-2.10549e-18
-2.09888e-18
-2.11985e-18
-2.10799e-18
-2.11552e-18
-2.10731e-18
-2.10837e-18
-2.10129e-18
-2.09745e-18
-2.08641e-18
-2.0837e-18
-2.07305e-18
-2.07784e-18
-2.06457e-18
-2.06477e-18
-2.05989e-18
-2.05829e-18
-2.05318e-18
-2.0529e-18
-2.05229e-18
-2.05784e-18
-2.05643e-18
-2.05565e-18
-2.05559e-18
-2.05667e-18
-2.05759e-18
-2.06238e-18
-2.06535e-18
-2.07527e-18
-2.07254e-18
-2.0605e-18
-2.06195e-18
-2.07483e-18
-2.06482e-18
-2.07046e-18
-2.05869e-18
-2.05554e-18
-2.05568e-18
-2.06244e-18
-2.05429e-18
-2.09878e-18
-2.09693e-18
-2.09899e-18
-2.10162e-18
-2.10191e-18
-2.09297e-18
-2.10512e-18
-2.09694e-18
-2.10045e-18
-2.09697e-18
-2.10903e-18
-2.10064e-18
-2.11671e-18
-2.1098e-18
-2.11914e-18
-2.11057e-18
-2.10686e-18
-2.09982e-18
-2.09798e-18
-2.08176e-18
-2.08196e-18
-2.07265e-18
-2.07657e-18
-2.06688e-18
-2.06332e-18
-2.05923e-18
-2.05804e-18
-2.05147e-18
-2.05359e-18
-2.0525e-18
-2.05663e-18
-2.05655e-18
-2.05852e-18
-2.05993e-18
-2.05437e-18
-2.05844e-18
-2.06284e-18
-2.06856e-18
-2.07023e-18
-2.06844e-18
-2.06668e-18
-2.06721e-18
-2.0722e-18
-2.06406e-18
-2.06864e-18
-2.05857e-18
-2.05472e-18
-2.05909e-18
-2.06017e-18
-2.04879e-18
-2.09872e-18
-2.10312e-18
-2.09902e-18
-2.09421e-18
-2.10005e-18
-2.09433e-18
-2.10202e-18
-2.0992e-18
-2.10138e-18
-2.10272e-18
-2.11321e-18
-2.10952e-18
-2.11862e-18
-2.10997e-18
-2.11972e-18
-2.10759e-18
-2.11033e-18
-2.09774e-18
-2.09921e-18
-2.083e-18
-2.08124e-18
-2.07126e-18
-2.07634e-18
-2.06569e-18
-2.06253e-18
-2.05857e-18
-2.05752e-18
-2.05131e-18
-2.0546e-18
-2.05113e-18
-2.05362e-18
-2.05479e-18
-2.0638e-18
-2.05683e-18
-2.0573e-18
-2.0559e-18
-2.06236e-18
-2.06503e-18
-2.06409e-18
-2.06503e-18
-2.06336e-18
-2.06453e-18
-2.07029e-18
-2.06713e-18
-2.06633e-18
-2.06109e-18
-2.06241e-18
-2.05571e-18
-2.05334e-18
-2.04751e-18
-2.10403e-18
-2.09752e-18
-2.1025e-18
-2.09296e-18
-2.10059e-18
-2.10112e-18
-2.1005e-18
-2.0964e-18
-2.10346e-18
-2.09856e-18
-2.11381e-18
-2.1009e-18
-2.12028e-18
-2.11243e-18
-2.11889e-18
-2.10641e-18
-2.11018e-18
-2.09865e-18
-2.09807e-18
-2.08262e-18
-2.08119e-18
-2.07255e-18
-2.0768e-18
-2.06571e-18
-2.06054e-18
-2.05852e-18
-2.05886e-18
-2.05201e-18
-2.05197e-18
-2.05067e-18
-2.05584e-18
-2.05516e-18
-2.0615e-18
-2.05617e-18
-2.05837e-18
-2.05758e-18
-2.06282e-18
-2.06069e-18
-2.07176e-18
-2.06645e-18
-2.06749e-18
-2.06571e-18
-2.07462e-18
-2.06896e-18
-2.05944e-18
-2.06063e-18
-2.06536e-18
-2.05267e-18
-2.05694e-18
-2.04233e-18
-2.10291e-18
-2.09924e-18
-2.10092e-18
-2.09335e-18
-2.10002e-18
-2.09952e-18
-2.10246e-18
-2.09677e-18
-2.10009e-18
-2.09786e-18
-2.1125e-18
-2.0993e-18
-2.12205e-18
-2.11242e-18
-2.11612e-18
-2.10487e-18
-2.10953e-18
-2.09564e-18
-2.09793e-18
-2.08159e-18
-2.08058e-18
-2.07405e-18
-2.07674e-18
-2.06689e-18
-2.06216e-18
-2.05786e-18
-2.05723e-18
-2.05267e-18
-2.05299e-18
-2.05019e-18
-2.05686e-18
-2.05607e-18
-2.06227e-18
-2.05608e-18
-2.05884e-18
-2.05626e-18
-2.06712e-18
-2.05667e-18
-2.07178e-18
-2.06782e-18
-2.0646e-18
-2.0697e-18
-2.07635e-18
-2.06735e-18
-2.05977e-18
-2.05988e-18
-2.06664e-18
-2.0541e-18
-2.05775e-18
-2.04448e-18
-2.09779e-18
-2.102e-18
-2.09941e-18
-2.09836e-18
-2.1006e-18
-2.09599e-18
-2.10804e-18
-2.10018e-18
-2.09935e-18
-2.10276e-18
-2.11163e-18
-2.10298e-18
-2.1165e-18
-2.11149e-18
-2.11635e-18
-2.10359e-18
-2.10928e-18
-2.09465e-18
-2.09615e-18
-2.08487e-18
-2.08088e-18
-2.07344e-18
-2.07616e-18
-2.06627e-18
-2.06345e-18
-2.05603e-18
-2.05654e-18
-2.05329e-18
-2.05429e-18
-2.05084e-18
-2.05586e-18
-2.05781e-18
-2.06279e-18
-2.05595e-18
-2.05962e-18
-2.05605e-18
-2.06598e-18
-2.06436e-18
-2.0676e-18
-2.06773e-18
-2.06371e-18
-2.07078e-18
-2.07194e-18
-2.06352e-18
-2.06228e-18
-2.05857e-18
-2.05833e-18
-2.05488e-18
-2.05533e-18
-2.05121e-18
-2.10123e-18
-2.09885e-18
-2.10194e-18
-2.09705e-18
-2.10228e-18
-2.0903e-18
-2.10594e-18
-2.09608e-18
-2.10219e-18
-2.10089e-18
-2.11253e-18
-2.10565e-18
-2.11422e-18
-2.11279e-18
-2.12117e-18
-2.10478e-18
-2.10686e-18
-2.09673e-18
-2.09617e-18
-2.08463e-18
-2.08063e-18
-2.07564e-18
-2.07679e-18
-2.06563e-18
-2.06303e-18
-2.05678e-18
-2.05588e-18
-2.0536e-18
-2.05416e-18
-2.05116e-18
-2.05546e-18
-2.05722e-18
-2.06223e-18
-2.05776e-18
-2.05816e-18
-2.0541e-18
-2.06182e-18
-2.06569e-18
-2.06884e-18
-2.06822e-18
-2.06585e-18
-2.06773e-18
-2.07398e-18
-2.06522e-18
-2.06937e-18
-2.05646e-18
-2.05722e-18
-2.05349e-18
-2.0594e-18
-2.04696e-18
-2.10175e-18
-2.09627e-18
-2.10052e-18
-2.09756e-18
-2.0995e-18
-2.09552e-18
-2.10586e-18
-2.09441e-18
-2.10797e-18
-2.09954e-18
-2.11294e-18
-2.10437e-18
-2.11642e-18
-2.11374e-18
-2.11856e-18
-2.1031e-18
-2.10843e-18
-2.09511e-18
-2.0968e-18
-2.08269e-18
-2.08011e-18
-2.07442e-18
-2.07859e-18
-2.06692e-18
-2.06235e-18
-2.05805e-18
-2.05636e-18
-2.05305e-18
-2.05544e-18
-2.05311e-18
-2.05314e-18
-2.0569e-18
-2.06311e-18
-2.05674e-18
-2.05979e-18
-2.05709e-18
-2.05915e-18
-2.06317e-18
-2.0687e-18
-2.06681e-18
-2.06657e-18
-2.06176e-18
-2.07523e-18
-2.06388e-18
-2.0652e-18
-2.0591e-18
-2.058e-18
-2.05288e-18
-2.06109e-18
-2.04723e-18
-2.10152e-18
-2.10083e-18
-2.10325e-18
-2.09779e-18
-2.09784e-18
-2.09511e-18
-2.10483e-18
-2.09714e-18
-2.1037e-18
-2.09945e-18
-2.11398e-18
-2.10543e-18
-2.12104e-18
-2.11034e-18
-2.11556e-18
-2.10299e-18
-2.10571e-18
-2.09319e-18
-2.0964e-18
-2.08292e-18
-2.08099e-18
-2.07401e-18
-2.07797e-18
-2.06788e-18
-2.06169e-18
-2.05873e-18
-2.05575e-18
-2.05194e-18
-2.0559e-18
-2.05173e-18
-2.05412e-18
-2.05822e-18
-2.06322e-18
-2.05813e-18
-2.05926e-18
-2.05946e-18
-2.06324e-18
-2.06418e-18
-2.06754e-18
-2.06436e-18
-2.06412e-18
-2.06454e-18
-2.07394e-18
-2.06305e-18
-2.0635e-18
-2.06089e-18
-2.0598e-18
-2.04967e-18
-2.05749e-18
-2.04801e-18
-2.10056e-18
-2.10155e-18
-2.10495e-18
-2.09524e-18
-2.10026e-18
-2.09238e-18
-2.10542e-18
-2.09975e-18
-2.10163e-18
-2.09981e-18
-2.11586e-18
-2.10376e-18
-2.11679e-18
-2.1101e-18
-2.1177e-18
-2.1015e-18
-2.10868e-18
-2.09469e-18
-2.09608e-18
-2.08389e-18
-2.0808e-18
-2.07275e-18
-2.07822e-18
-2.06881e-18
-2.06264e-18
-2.05993e-18
-2.05542e-18
-2.05429e-18
-2.05533e-18
-2.05116e-18
-2.05374e-18
-2.05844e-18
-2.06363e-18
-2.05578e-18
-2.05847e-18
-2.05546e-18