/*--------------------------------*- C++ -*----------------------------------*\
  =========                 |
  \\      /  F ield         | OpenFOAM: The Open Source CFD Toolbox
   \\    /   O peration     | Website:  https://openfoam.org
    \\  /    A nd           | Version:  7
     \\/     M anipulation  |
\*---------------------------------------------------------------------------*/
FoamFile
{
    version     2.0;
    format      ascii;
    class       volVectorField;
    location    "156000";
    object      U;
}
// * * * * * * * * * * * * * * * * * * * * * * * * * * * * * * * * * * * * * //

dimensions      [0 1 -1 0 0 0 0];

internalField   nonuniform List<vector> 
4783
(
(2.14404e-19 -8.16876e-19 -0.015965)
(3.23256e-19 -5.87258e-19 -0.0159755)
(4.14475e-19 -2.63917e-19 -0.0159854)
(5.11505e-19 -3.5933e-19 -0.0159947)
(3.07098e-19 -7.52574e-19 -0.0160034)
(5.26522e-20 -1.11095e-18 -0.0160117)
(3.18441e-20 -1.28958e-18 -0.0160194)
(-6.09193e-20 -1.02452e-18 -0.0160266)
(-1.15885e-19 -5.42327e-19 -0.0160333)
(1.47264e-19 -4.37858e-19 -0.0160395)
(4.9779e-19 -7.52482e-19 -0.0160453)
(2.56346e-19 -9.40855e-19 -0.0160506)
(7.31215e-20 -9.83795e-19 -0.0160555)
(1.73308e-19 -8.56438e-19 -0.0160599)
(2.13396e-19 -5.45203e-19 -0.016064)
(-2.79255e-19 -1.57761e-19 -0.0160676)
(-6.71115e-19 -2.46746e-19 -0.0160708)
(-6.47708e-19 -5.72625e-19 -0.0160736)
(-7.68567e-19 -3.84133e-19 -0.0160761)
(-1.05437e-18 -2.25637e-19 -0.0160782)
(-1.34489e-18 -4.12947e-19 -0.0160799)
(-1.58837e-18 -2.47347e-19 -0.0160813)
(6.70128e-19 -1.22249e-18 -0.0159471)
(8.45117e-19 -9.07379e-19 -0.0159574)
(7.00941e-19 -5.6623e-19 -0.0159673)
(7.48227e-19 -3.25934e-19 -0.0159769)
(6.87087e-19 -3.07751e-19 -0.015986)
(6.26596e-19 -5.66995e-19 -0.0159946)
(4.14616e-19 -9.00225e-19 -0.0160027)
(2.41583e-20 -9.2151e-19 -0.0160103)
(-1.58545e-19 -8.22669e-19 -0.0160174)
(8.00938e-20 -7.91548e-19 -0.016024)
(2.16547e-19 -7.3079e-19 -0.0160301)
(-2.0338e-20 -6.41058e-19 -0.0160358)
(-2.62572e-19 -7.93245e-19 -0.016041)
(-3.47098e-19 -8.88779e-19 -0.0160457)
(-3.92712e-19 -6.67381e-19 -0.01605)
(-3.90232e-19 -3.1348e-19 -0.0160539)
(-2.73177e-19 -5.56995e-19 -0.0160574)
(-2.32975e-19 -8.32707e-19 -0.0160604)
(-4.25481e-19 -2.60814e-19 -0.0160631)
(-7.35467e-19 3.16304e-19 -0.0160653)
(-1.03566e-18 3.88345e-19 -0.0160672)
(-1.37775e-18 3.34181e-19 -0.0160687)
(7.57892e-19 -1.70381e-18 -0.0159276)
(4.35343e-19 -1.1254e-18 -0.0159383)
(1.67293e-19 -6.38525e-19 -0.0159485)
(3.54784e-19 -5.43467e-19 -0.0159583)
(3.90403e-19 -4.56492e-19 -0.0159677)
(6.88576e-19 -4.00152e-19 -0.0159767)
(5.94443e-19 -4.08752e-19 -0.0159851)
(4.5106e-19 -4.40007e-19 -0.0159931)
(4.91631e-19 -6.64457e-19 -0.0160005)
(6.21833e-19 -9.2084e-19 -0.0160075)
(4.41168e-19 -7.53118e-19 -0.0160139)
(-9.81606e-20 -4.02144e-19 -0.0160199)
(-2.24553e-19 -5.45507e-19 -0.0160254)
(-3.68205e-19 -8.55546e-19 -0.0160305)
(-5.17182e-19 -8.34659e-19 -0.0160351)
(-6.10842e-19 -4.47479e-19 -0.0160392)
(-6.76939e-19 -3.82593e-19 -0.0160429)
(-9.19959e-19 -5.72505e-19 -0.0160462)
(-1.16396e-18 -4.9306e-20 -0.016049)
(-1.39973e-18 5.03938e-19 -0.0160514)
(-1.4302e-18 5.2617e-19 -0.0160534)
(-1.38629e-18 4.32459e-19 -0.016055)
(1.98509e-19 -1.43799e-18 -0.0159071)
(-1.65806e-19 -1.31206e-18 -0.0159182)
(-3.64334e-19 -1.02478e-18 -0.0159288)
(-3.6983e-19 -7.34173e-19 -0.0159389)
(-2.19004e-19 -7.89411e-19 -0.0159486)
(1.64836e-19 -8.38469e-19 -0.0159579)
(3.2199e-19 -6.47866e-19 -0.0159667)
(6.01605e-19 -6.36853e-19 -0.0159749)
(8.25198e-19 -6.96842e-19 -0.0159827)
(7.02611e-19 -6.81422e-19 -0.01599)
(7.38628e-20 -2.37819e-19 -0.0159968)
(-1.61498e-19 -4.31492e-20 -0.0160031)
(1.10796e-19 -3.23475e-19 -0.0160089)
(6.50075e-20 -4.87494e-19 -0.0160142)
(-4.04075e-19 -5.98408e-19 -0.0160191)
(-8.00134e-19 -3.2007e-19 -0.0160235)
(-1.0574e-18 -2.07367e-19 -0.0160274)
(-1.26524e-18 -4.03049e-19 -0.0160309)
(-1.53311e-18 7.80738e-20 -0.0160339)
(-1.54653e-18 6.34005e-19 -0.0160365)
(-1.51082e-18 5.02856e-19 -0.0160386)
(-1.31355e-18 3.43083e-19 -0.0160403)
(1.45119e-19 -1.25328e-18 -0.0158856)
(-2.54066e-19 -1.04215e-18 -0.0158972)
(-5.10969e-19 -9.55718e-19 -0.0159082)
(-4.93455e-19 -9.28822e-19 -0.0159187)
(-4.20646e-19 -9.69367e-19 -0.0159287)
(-3.18719e-19 -1.12007e-18 -0.0159383)
(-5.68198e-20 -1.04271e-18 -0.0159474)
(1.40431e-20 -9.79907e-19 -0.015956)
(9.63727e-21 -8.20229e-19 -0.0159641)
(-1.58445e-19 -4.55881e-19 -0.0159717)
(-4.88533e-19 -2.28447e-19 -0.0159788)
(-1.2035e-19 -4.1673e-19 -0.0159853)
(2.72609e-19 -5.99446e-19 -0.0159914)
(2.71963e-19 -1.80347e-19 -0.015997)
(-3.90774e-19 5.69809e-20 -0.0160021)
(-8.53495e-19 1.51206e-19 -0.0160068)
(-9.47349e-19 1.62664e-19 -0.0160109)
(-1.1028e-18 -1.02812e-19 -0.0160146)
(-1.3951e-18 9.53381e-20 -0.0160178)
(-1.12924e-18 5.34798e-19 -0.0160205)
(-9.35258e-19 4.38477e-19 -0.0160228)
(-6.52179e-19 2.45088e-20 -0.0160246)
(3.86617e-20 -1.17523e-18 -0.0158634)
(-2.2795e-19 -1.02103e-18 -0.0158754)
(-2.04348e-19 -8.77772e-19 -0.0158867)
(-2.14294e-19 -7.73352e-19 -0.0158976)
(-2.32435e-19 -8.31466e-19 -0.015908)
(-1.5239e-19 -1.18735e-18 -0.0159179)
(-3.10332e-20 -1.10718e-18 -0.0159273)
(-2.43487e-19 -9.45432e-19 -0.0159362)
(-4.87912e-19 -9.70492e-19 -0.0159446)
(-6.40443e-19 -6.15022e-19 -0.0159525)
(-7.10967e-19 -3.69229e-19 -0.0159599)
(-4.07195e-19 -7.1646e-19 -0.0159667)
(-1.29144e-19 -8.90278e-19 -0.0159731)
(-4.43986e-19 -8.59515e-20 -0.0159789)
(-9.54552e-19 4.79181e-19 -0.0159843)
(-1.11745e-18 2.67985e-19 -0.0159891)
(-7.19098e-19 1.88634e-19 -0.0159935)
(-6.30845e-19 1.69993e-19 -0.0159973)
(-6.23754e-19 7.20482e-20 -0.0160007)
(-4.91343e-19 2.06925e-19 -0.0160036)
(-3.66741e-19 1.73769e-19 -0.0160059)
(-2.41502e-19 -2.31816e-19 -0.0160078)
(-3.2219e-19 -9.88709e-19 -0.0158404)
(-4.95139e-19 -1.11219e-18 -0.0158527)
(-3.52412e-19 -1.11313e-18 -0.0158645)
(-3.44638e-19 -9.15568e-19 -0.0158757)
(-1.16332e-19 -7.27179e-19 -0.0158864)
(8.46084e-20 -1.10316e-18 -0.0158966)
(-3.31007e-20 -1.13839e-18 -0.0159064)
(-1.47989e-19 -6.96381e-19 -0.0159156)
(-2.48836e-19 -6.71264e-19 -0.0159243)
(-5.14425e-19 -5.73394e-19 -0.0159325)
(-7.58399e-19 -4.38453e-19 -0.0159401)
(-7.47225e-19 -8.66442e-19 -0.0159473)
(-8.58038e-19 -9.572e-19 -0.0159539)
(-1.46039e-18 2.32056e-20 -0.01596)
(-1.57397e-18 5.95019e-19 -0.0159655)
(-1.32002e-18 1.29553e-20 -0.0159706)
(-7.08808e-19 -2.67722e-19 -0.0159751)
(-4.39429e-19 -1.07743e-19 -0.0159792)
(-1.49214e-19 5.11565e-20 -0.0159827)
(-9.2336e-20 3.66072e-19 -0.0159857)
(8.19739e-21 3.27506e-19 -0.0159882)
(-2.3184e-19 -1.09973e-19 -0.0159902)
(-7.89585e-19 -5.47006e-19 -0.0158166)
(-8.16983e-19 -1.05272e-18 -0.0158293)
(-5.69914e-19 -1.2153e-18 -0.0158414)
(-3.95837e-19 -1.25862e-18 -0.015853)
(-1.11866e-19 -1.07191e-18 -0.0158641)
(-2.30028e-19 -1.06727e-18 -0.0158746)
(-4.6614e-19 -1.23709e-18 -0.0158847)
(-4.65527e-19 -1.06471e-18 -0.0158942)
(-3.82543e-19 -6.97739e-19 -0.0159032)
(-6.12382e-19 -2.49982e-19 -0.0159116)
(-6.47403e-19 -2.08685e-20 -0.0159196)
(-7.94385e-19 -4.89318e-19 -0.015927)
(-1.38331e-18 -7.03797e-19 -0.0159338)
(-1.72857e-18 -2.06242e-20 -0.0159401)
(-1.2558e-18 3.94266e-19 -0.0159459)
(-9.31965e-19 -2.80382e-19 -0.0159512)
(-8.24495e-19 -6.49977e-19 -0.0159559)
(-7.8965e-19 -4.53359e-19 -0.0159601)
(-6.67989e-19 -3.31947e-19 -0.0159638)
(-4.74574e-19 6.81687e-20 -0.0159669)
(-2.14777e-19 4.53961e-19 -0.0159695)
(-4.46708e-19 5.06833e-19 -0.0159716)
(-7.41645e-19 -1.24488e-19 -0.0157921)
(-4.33966e-19 -8.58793e-19 -0.0158052)
(7.1038e-20 -1.25373e-18 -0.0158177)
(2.03699e-20 -1.3235e-18 -0.0158296)
(-2.72487e-19 -1.03482e-18 -0.015841)
(-3.43162e-19 -8.4584e-19 -0.0158518)
(-1.46104e-19 -1.00677e-18 -0.0158622)
(-4.40801e-19 -1.11512e-18 -0.015872)
(-5.31972e-19 -9.78856e-19 -0.0158813)
(-3.90186e-19 -6.04709e-19 -0.01589)
(-1.95481e-19 -7.01321e-20 -0.0158982)
(-5.45743e-19 1.0641e-19 -0.0159058)
(-1.13646e-18 -2.90656e-19 -0.0159129)
(-1.19267e-18 -3.91078e-19 -0.0159195)
(-8.42121e-19 5.66636e-20 -0.0159255)
(-8.57251e-19 -4.10619e-20 -0.015931)
(-1.22655e-18 -4.09716e-19 -0.0159359)
(-1.15776e-18 -3.82642e-19 -0.0159402)
(-1.32398e-18 -4.10217e-19 -0.015944)
(-1.43858e-18 -2.29704e-19 -0.0159473)
(-1.21496e-18 2.62626e-19 -0.01595)
(-1.13949e-18 4.63256e-19 -0.0159522)
(-2.77576e-19 -2.21488e-19 -0.015767)
(3.4244e-19 -7.00104e-19 -0.0157804)
(4.68832e-19 -1.09731e-18 -0.0157932)
(6.49363e-20 -1.08651e-18 -0.0158054)
(-2.00186e-19 -1.11637e-18 -0.0158171)
(2.47043e-19 -1.11438e-18 -0.0158283)
(4.56683e-19 -8.76656e-19 -0.015839)
(-1.36522e-20 -7.0803e-19 -0.015849)
(-2.09002e-19 -9.67731e-19 -0.0158586)
(-2.78128e-19 -8.84376e-19 -0.0158676)
(-5.46012e-19 -1.44215e-19 -0.015876)
(-9.34123e-19 4.15264e-19 -0.0158839)
(-1.01734e-18 1.03267e-19 -0.0158913)
(-1.04937e-18 -2.94539e-19 -0.015898)
(-1.01959e-18 5.28674e-20 -0.0159043)
(-1.26726e-18 1.97064e-19 -0.0159099)
(-1.59424e-18 -3.46256e-19 -0.015915)
(-1.16581e-18 -3.81854e-19 -0.0159195)
(-1.25131e-18 -1.14417e-19 -0.0159234)
(-1.46004e-18 -1.5151e-19 -0.0159268)
(-1.43108e-18 9.21371e-20 -0.0159296)
(-1.56538e-18 2.31167e-19 -0.0159319)
(-7.55486e-20 -5.95184e-19 -0.0157412)
(4.87069e-19 -6.81681e-19 -0.0157549)
(3.17562e-19 -8.65218e-19 -0.015768)
(1.02027e-19 -8.84413e-19 -0.0157806)
(-1.4667e-19 -1.18564e-18 -0.0157926)
(6.88521e-20 -1.4356e-18 -0.0158041)
(-1.92448e-19 -1.07308e-18 -0.015815)
(-1.90357e-19 -5.37513e-19 -0.0158254)
(-3.44484e-19 -6.88959e-19 -0.0158352)
(-7.58567e-19 -7.57905e-19 -0.0158445)
(-1.27211e-18 -1.89915e-19 -0.0158532)
(-1.51374e-18 3.11768e-19 -0.0158613)
(-1.33871e-18 5.77491e-20 -0.0158688)
(-1.15541e-18 -3.38716e-19 -0.0158758)
(-1.10834e-18 1.2102e-19 -0.0158822)
(-1.14875e-18 5.87363e-19 -0.015888)
(-1.2277e-18 -3.42087e-19 -0.0158933)
(-8.11146e-19 -6.87416e-19 -0.0158979)
(-9.58745e-19 -1.24806e-19 -0.015902)
(-1.05074e-18 -2.37711e-20 -0.0159055)
(-1.17818e-18 3.7383e-19 -0.0159084)
(-1.46592e-18 6.9136e-19 -0.0159108)
(1.52248e-20 -7.22572e-19 -0.0157148)
(1.7049e-19 -9.35103e-19 -0.0157288)
(1.08599e-19 -9.07877e-19 -0.0157422)
(2.12296e-19 -6.16582e-19 -0.0157551)
(1.07249e-19 -7.89039e-19 -0.0157674)
(1.76716e-19 -1.21638e-18 -0.0157792)
(-1.38521e-19 -1.29578e-18 -0.0157904)
(2.80841e-20 -7.72977e-19 -0.015801)
(-3.00041e-19 -4.59598e-19 -0.0158111)
(-6.74942e-19 -4.23501e-19 -0.0158206)
(-1.20764e-18 -2.23646e-20 -0.0158295)
(-1.40988e-18 3.64244e-19 -0.0158379)
(-1.22245e-18 3.31683e-20 -0.0158457)
(-8.56729e-19 -4.48888e-19 -0.0158528)
(-9.79606e-19 -1.48006e-19 -0.0158594)
(-8.53655e-19 5.23646e-19 -0.0158654)
(-5.7832e-19 -2.2444e-19 -0.0158708)
(-6.80869e-19 -6.07928e-19 -0.0158756)
(-1.21829e-18 6.6461e-21 -0.0158798)
(-1.21118e-18 3.51904e-20 -0.0158834)
(-1.32046e-18 4.51404e-19 -0.0158864)
(-1.26131e-18 9.36744e-19 -0.0158888)
(2.17152e-20 -6.6366e-19 -0.0156878)
(-8.16066e-20 -8.72761e-19 -0.0157021)
(-2.48722e-22 -1.23559e-18 -0.0157158)
(1.1015e-19 -9.98769e-19 -0.0157289)
(4.25113e-19 -7.50659e-19 -0.0157415)
(7.95167e-19 -8.94195e-19 -0.0157536)
(5.43886e-19 -1.05431e-18 -0.0157651)
(1.57436e-19 -7.34335e-19 -0.015776)
(-2.55215e-19 -2.95621e-19 -0.0157863)
(-3.98242e-19 -1.49121e-19 -0.015796)
(-7.26189e-19 2.39486e-19 -0.0158052)
(-7.34969e-19 5.03437e-19 -0.0158138)
(-4.3905e-19 5.92361e-20 -0.0158218)
(-2.73932e-19 -3.34943e-19 -0.0158291)
(-7.61605e-19 -5.43349e-20 -0.0158359)
(-9.52953e-19 3.50881e-19 -0.0158421)
(-5.73694e-19 -1.52822e-19 -0.0158476)
(-9.30354e-19 -2.03618e-19 -0.0158526)
(-1.31939e-18 2.13771e-19 -0.0158569)
(-1.26754e-18 3.85535e-20 -0.0158606)
(-1.5001e-18 3.71083e-19 -0.0158637)
(-1.33875e-18 8.35008e-19 -0.0158662)
(-3.27718e-20 -5.66066e-19 -0.0156602)
(3.97925e-20 -6.87233e-19 -0.0156748)
(1.35042e-19 -1.02348e-18 -0.0156888)
(7.29104e-20 -1.25545e-18 -0.0157022)
(6.77677e-19 -1.19588e-18 -0.0157151)
(8.75503e-19 -1.03671e-18 -0.0157274)
(5.91432e-19 -7.96791e-19 -0.0157391)
(-2.80886e-19 -6.27175e-19 -0.0157503)
(-7.16735e-19 -3.86703e-19 -0.0157608)
(-6.20247e-19 -2.42064e-19 -0.0157708)
(-6.2724e-19 1.58702e-19 -0.0157802)
(-2.63669e-19 4.67463e-19 -0.015789)
(1.99835e-19 2.05995e-19 -0.0157972)
(-1.00041e-19 -3.2177e-20 -0.0158047)
(-8.72631e-19 2.60308e-19 -0.0158117)
(-1.076e-18 4.15543e-19 -0.015818)
(-6.23953e-19 -1.06908e-19 -0.0158237)
(-8.72181e-19 -7.08806e-20 -0.0158288)
(-1.02527e-18 3.00994e-19 -0.0158332)
(-9.90648e-19 2.30205e-19 -0.015837)
(-1.34617e-18 4.8932e-19 -0.0158402)
(-1.22124e-18 7.15388e-19 -0.0158428)
(6.14868e-20 -5.2262e-19 -0.0156321)
(1.82536e-19 -6.67377e-19 -0.0156469)
(2.28071e-19 -9.41044e-19 -0.0156612)
(3.3946e-19 -1.2567e-18 -0.0156749)
(8.85726e-19 -1.31705e-18 -0.015688)
(6.72053e-19 -1.13083e-18 -0.0157005)
(2.47777e-19 -5.82172e-19 -0.0157125)
(-5.28829e-19 -1.94159e-19 -0.0157239)
(-6.46801e-19 -2.88943e-19 -0.0157347)
(-8.80168e-19 -4.84625e-19 -0.0157449)
(-8.90496e-19 -2.51109e-19 -0.0157545)
(-3.1462e-19 3.43124e-21 -0.0157635)
(2.15848e-19 2.2971e-19 -0.0157719)
(-4.95922e-19 4.51149e-19 -0.0157797)
(-1.28161e-18 5.45352e-19 -0.0157868)
(-1.16136e-18 2.65556e-19 -0.0157932)
(-7.52465e-19 -2.04201e-19 -0.0157991)
(-1.0195e-18 5.51808e-20 -0.0158043)
(-1.05306e-18 3.31624e-19 -0.0158088)
(-9.18617e-19 3.47883e-19 -0.0158128)
(2.44191e-19 -5.50082e-19 -0.0156034)
(3.10812e-19 -5.16488e-19 -0.0156185)
(3.68223e-19 -7.95375e-19 -0.015633)
(4.90402e-19 -1.41459e-18 -0.0156469)
(6.20605e-19 -1.55965e-18 -0.0156603)
(1.66101e-20 -1.2702e-18 -0.0156731)
(-5.59852e-19 -7.56172e-19 -0.0156853)
(-3.61572e-19 -1.66602e-19 -0.015697)
(-4.75547e-19 3.9529e-20 -0.015708)
(-1.01932e-18 -1.54103e-19 -0.0157184)
(-9.79895e-19 -4.48876e-19 -0.0157283)
(-6.37819e-19 -5.19333e-19 -0.0157374)
(-5.63629e-19 9.48157e-20 -0.015746)
(-1.25264e-18 8.26168e-19 -0.0157539)
(-1.54945e-18 7.45371e-19 -0.0157612)
(-9.73719e-19 2.45403e-19 -0.0157678)
(-7.97522e-19 -1.64832e-19 -0.0157738)
(-1.30357e-18 5.23329e-20 -0.0157791)
(-1.24858e-18 2.14355e-19 -0.0157838)
(4.35371e-19 -6.16461e-19 -0.0155742)
(5.27032e-19 -5.30229e-19 -0.0155895)
(6.54371e-19 -5.0805e-19 -0.0156043)
(5.04682e-19 -1.07414e-18 -0.0156185)
(4.31675e-20 -1.45521e-18 -0.0156321)
(-7.35675e-19 -1.2332e-18 -0.0156451)
(-1.06368e-18 -1.19454e-18 -0.0156576)
(-5.08604e-19 -5.42158e-19 -0.0156694)
(-1.01751e-18 7.6086e-20 -0.0156807)
(-1.23618e-18 -2.7055e-20 -0.0156913)
(-1.29671e-18 -4.64118e-19 -0.0157013)
(-1.25272e-18 -6.35767e-19 -0.0157107)
(-1.44454e-18 1.72688e-21 -0.0157195)
(-1.73124e-18 8.37834e-19 -0.0157275)
(-1.45436e-18 5.33608e-19 -0.015735)
(-6.66616e-19 3.98098e-20 -0.0157418)
(-5.56891e-19 1.24381e-19 -0.0157479)
(5.99168e-19 -5.49446e-19 -0.0155445)
(6.01293e-19 -6.22983e-19 -0.0155601)
(5.64394e-19 -5.03038e-19 -0.015575)
(5.27306e-19 -6.75581e-19 -0.0155894)
(-7.38265e-20 -1.04891e-18 -0.0156033)
(-5.95272e-19 -9.43293e-19 -0.0156166)
(-5.90287e-19 -1.19335e-18 -0.0156293)
(-6.91673e-19 -7.58507e-19 -0.0156413)
(-1.08143e-18 2.01741e-19 -0.0156528)
(-1.38745e-18 1.60845e-19 -0.0156636)
(-1.47668e-18 -3.35852e-19 -0.0156738)
(-1.39191e-18 -6.97185e-19 -0.0156834)
(-1.69293e-18 -1.46119e-19 -0.0156923)
(-1.92194e-18 6.63304e-19 -0.0157006)
(6.13197e-19 -6.06582e-19 -0.0155143)
(5.92508e-19 -5.58485e-19 -0.0155301)
(3.66526e-19 -6.0469e-19 -0.0155453)
(3.81163e-19 -5.67216e-19 -0.0155599)
(-3.58747e-20 -7.60714e-19 -0.015574)
(-2.79624e-19 -7.46416e-19 -0.0155875)
(1.12616e-21 -8.89471e-19 -0.0156004)
(-6.18676e-19 -7.72209e-19 -0.0156127)
(-7.25252e-19 3.29551e-19 -0.0156243)
(-1.23069e-18 4.58907e-19 -0.0156354)
(-1.15031e-18 -1.30357e-19 -0.0156458)
(-1.16152e-18 -5.08409e-19 -0.0156555)
(4.7797e-19 -7.62337e-19 -0.0154836)
(6.01329e-19 -5.49115e-19 -0.0154996)
(2.60102e-19 -5.55631e-19 -0.015515)
(1.2465e-19 -5.85533e-19 -0.0155299)
(-1.68724e-19 -6.68626e-19 -0.0155442)
(-3.51596e-19 -8.52878e-19 -0.0155579)
(-6.52351e-20 -8.36911e-19 -0.015571)
(-6.46612e-19 -7.35807e-19 -0.0155835)
(-8.63385e-19 2.80129e-19 -0.0155953)
(-1.19694e-18 6.7973e-19 -0.0156065)
(4.63221e-19 -7.56846e-19 -0.0154524)
(4.8172e-19 -6.45896e-19 -0.0154687)
(3.23104e-19 -4.01618e-19 -0.0154843)
(1.04877e-19 -4.35679e-19 -0.0154994)
(-1.90748e-19 -4.78507e-19 -0.0155139)
(-4.47395e-19 -8.20428e-19 -0.0155278)
(-6.45787e-19 -1.00225e-18 -0.0155411)
(-1.1078e-18 -8.4029e-19 -0.0155537)
(-1.52828e-18 1.27832e-20 -0.0155658)
(4.4108e-19 -5.86977e-19 -0.0154208)
(5.06029e-19 -7.32731e-19 -0.0154373)
(4.39174e-19 -4.1621e-19 -0.0154531)
(9.47557e-20 -3.28992e-19 -0.0154684)
(-2.26245e-19 -2.68744e-19 -0.0154831)
(-3.8839e-19 -4.42086e-19 -0.0154972)
(-9.54529e-19 -7.86657e-19 -0.0155107)
(-1.59434e-18 -8.76472e-19 -0.0155235)
(4.99139e-19 -4.97575e-19 -0.0153888)
(6.11029e-19 -7.16914e-19 -0.0154054)
(4.99489e-19 -3.33912e-19 -0.0154214)
(-5.48492e-21 -2.35298e-19 -0.0154369)
(-3.0623e-23 -1.1554e-19 -0.0154518)
(-9.94442e-20 -1.10465e-19 -0.0154661)
(-7.95598e-19 -2.57009e-19 -0.0154798)
(4.57547e-19 -4.62486e-19 -0.0153563)
(6.36642e-19 -8.01838e-19 -0.0153731)
(4.18185e-19 -3.67703e-19 -0.0153893)
(5.80856e-20 -2.1048e-19 -0.015405)
(1.61301e-19 -1.11396e-19 -0.0154201)
(2.14051e-20 1.92755e-19 -0.0154345)
(7.62684e-19 -2.91858e-19 -0.0153234)
(7.56728e-19 -7.28998e-19 -0.0153404)
(2.30364e-19 -4.69024e-19 -0.0153568)
(1.42164e-19 -1.7386e-19 -0.0153726)
(4.80095e-20 -2.21092e-19 -0.0153879)
(-2.73972e-19 2.98503e-19 -0.0154025)
(1.11329e-18 -2.79489e-19 -0.0152901)
(6.22447e-19 -5.59738e-19 -0.0153073)
(1.35668e-19 -4.77885e-19 -0.0153239)
(7.81677e-20 -2.36676e-19 -0.0153399)
(-6.16235e-20 -1.67783e-19 -0.0153553)
(9.48363e-19 -4.28495e-19 -0.0152565)
(3.51394e-19 -4.74935e-19 -0.0152738)
(6.90227e-20 -4.59339e-19 -0.0152905)
(-1.96813e-19 -3.80394e-19 -0.0153067)
(6.34323e-19 -5.72202e-19 -0.0152224)
(2.1792e-19 -3.99692e-19 -0.0152399)
(1.07953e-19 -3.12421e-19 -0.0152568)
(-2.1089e-19 -3.43983e-19 -0.0152731)
(4.05114e-19 -4.81747e-19 -0.0151879)
(1.25538e-19 -4.6937e-19 -0.0152056)
(1.04365e-19 -2.95725e-19 -0.0152226)
(4.08354e-19 -2.89203e-19 -0.0151531)
(6.33604e-20 -4.21619e-19 -0.0151709)
(1.58321e-20 -3.32063e-19 -0.0151881)
(4.77634e-19 -1.50724e-19 -0.015118)
(1.35426e-20 -3.48073e-19 -0.0151359)
(2.39803e-20 -2.93809e-19 -0.0151532)
(3.33108e-19 -1.76514e-19 -0.0150824)
(-2.37858e-20 -2.29556e-19 -0.0151005)
(-1.44576e-19 -3.47079e-19 -0.015118)
(-2.62417e-21 -2.87088e-19 -0.0150466)
(1.10935e-19 -3.11404e-20 -0.0150648)
(-2.82125e-19 -3.23733e-19 -0.0150824)
(-2.46975e-19 -4.13382e-19 -0.0150104)
(1.97007e-19 3.86904e-20 -0.0150287)
(-2.76582e-19 -6.61244e-20 -0.0150465)
(-4.16763e-19 -4.51676e-19 -0.0149738)
(1.0725e-19 -1.14083e-19 -0.0149923)
(-2.49839e-19 1.43933e-19 -0.0150102)
(-4.92447e-19 -4.11832e-19 -0.014937)
(-1.13994e-21 -3.14148e-19 -0.0149556)
(-2.66965e-19 2.61817e-19 -0.0149736)
(-5.67499e-19 -3.53073e-19 -0.0148998)
(-1.10733e-20 -4.71007e-19 -0.0149185)
(-3.44285e-19 2.75818e-19 -0.0149366)
(-3.68109e-19 -2.42268e-19 -0.0148623)
(-8.27466e-20 -6.44028e-19 -0.0148811)
(-3.73488e-19 2.01072e-19 -0.0148994)
(-1.56007e-19 -5.93072e-21 -0.0148245)
(-2.4629e-19 -7.74722e-19 -0.0148434)
(-2.94766e-19 4.46733e-20 -0.0148618)
(-1.88214e-19 -1.07144e-20 -0.0147864)
(-3.52515e-19 -8.13889e-19 -0.0148054)
(-6.56549e-20 -5.41696e-20 -0.0148239)
(-3.88379e-19 -7.59198e-20 -0.014748)
(-1.95161e-19 -7.94033e-19 -0.0147671)
(-1.39422e-19 -2.56356e-19 -0.0147857)
(-2.89997e-19 -3.62469e-20 -0.0147093)
(-8.1391e-20 -6.90981e-19 -0.0147286)
(-3.91796e-19 -4.09837e-19 -0.0147472)
(2.22891e-19 -1.22861e-18 -0.015965)
(5.97724e-19 -1.71829e-18 -0.0159471)
(8.8939e-19 -1.76176e-18 -0.0159276)
(5.56641e-19 -1.3107e-18 -0.0159071)
(3.37224e-19 -1.21266e-18 -0.0158856)
(2.20351e-19 -1.00662e-18 -0.0158634)
(1.31875e-19 -6.09191e-19 -0.0158404)
(-2.83109e-19 -8.78441e-20 -0.0158166)
(-7.16158e-19 -8.57634e-20 -0.0157921)
(-6.53809e-19 -5.50881e-19 -0.015767)
(-3.10624e-19 -7.41978e-19 -0.0157412)
(-1.43698e-19 -7.54867e-19 -0.0157148)
(-8.91858e-20 -6.55138e-19 -0.0156878)
(-1.08599e-20 -4.94115e-19 -0.0156602)
(8.9398e-20 -7.11402e-19 -0.0156321)
(1.77108e-19 -8.40382e-19 -0.0156034)
(4.44028e-19 -7.54955e-19 -0.0155742)
(5.87906e-19 -7.1883e-19 -0.0155445)
(7.1572e-19 -9.45643e-19 -0.0155143)
(8.1373e-19 -8.85154e-19 -0.0154836)
(9.43827e-19 -6.19222e-19 -0.0154524)
(8.67047e-19 -4.20864e-19 -0.0154208)
(7.82929e-19 -4.01186e-19 -0.0153888)
(6.67946e-19 -4.04413e-19 -0.0153563)
(4.51785e-19 -5.65505e-19 -0.0153234)
(4.45813e-19 -8.27543e-19 -0.0152901)
(5.34952e-19 -7.77514e-19 -0.0152565)
(6.52751e-19 -3.18451e-19 -0.0152224)
(6.28012e-19 9.55328e-22 -0.0151879)
(4.37538e-19 -8.18331e-20 -0.0151531)
(2.78306e-19 -2.48152e-19 -0.015118)
(2.55608e-19 -2.07524e-19 -0.0150824)
(2.70538e-19 -4.424e-21 -0.0150466)
(2.81963e-19 1.37618e-19 -0.0150104)
(2.17352e-19 2.33207e-19 -0.0149738)
(7.13298e-20 2.76667e-19 -0.014937)
(-1.26338e-19 7.88458e-20 -0.0148998)
(-2.24432e-19 5.7603e-21 -0.0148623)
(-3.29134e-19 -6.76801e-20 -0.0148245)
(-4.64196e-19 -2.20732e-19 -0.0147864)
(-5.10067e-19 -1.80614e-19 -0.014748)
(-6.38429e-19 -2.86057e-19 -0.0147093)
(5.6794e-20 -1.45104e-18 -0.0159755)
(3.19246e-19 -1.67148e-18 -0.0159574)
(4.58579e-19 -1.40608e-18 -0.0159383)
(5.24206e-19 -1.01086e-18 -0.0159182)
(2.08267e-19 -7.96089e-19 -0.0158972)
(1.20566e-19 -8.095e-19 -0.0158754)
(2.34177e-19 -5.40598e-19 -0.0158527)
(2.74633e-19 -9.63916e-20 -0.0158293)
(1.33776e-19 -4.20287e-19 -0.0158052)
(-5.02588e-20 -1.18548e-18 -0.0157804)
(-1.1396e-19 -1.3397e-18 -0.0157549)
(1.07885e-19 -9.96795e-19 -0.0157288)
(7.74822e-20 -7.32768e-19 -0.0157021)
(-1.40519e-20 -8.47249e-19 -0.0156748)
(1.55576e-19 -9.59975e-19 -0.0156469)
(1.17879e-19 -9.2136e-19 -0.0156185)
(2.76079e-19 -9.99416e-19 -0.0155895)
(5.36149e-19 -1.02382e-18 -0.0155601)
(6.42204e-19 -1.06291e-18 -0.0155301)
(6.63965e-19 -9.55578e-19 -0.0154996)
(8.76071e-19 -6.34107e-19 -0.0154687)
(1.08078e-18 -4.23055e-19 -0.0154373)
(1.10491e-18 -3.94261e-19 -0.0154054)
(1.14924e-18 -3.56936e-19 -0.0153731)
(1.00262e-18 -3.54813e-19 -0.0153404)
(7.1207e-19 -2.69396e-19 -0.0153073)
(5.40921e-19 8.58815e-20 -0.0152738)
(4.68784e-19 3.08025e-19 -0.0152399)
(4.8718e-19 2.28042e-19 -0.0152056)
(4.42697e-19 1.43797e-19 -0.0151709)
(3.86434e-19 1.22193e-19 -0.0151359)
(2.65214e-19 1.18553e-19 -0.0151005)
(5.2527e-20 -6.19982e-20 -0.0150648)
(-7.25933e-20 -1.70441e-19 -0.0150287)
(3.99781e-20 -7.09941e-20 -0.0149923)
(5.42217e-20 -1.83238e-19 -0.0149556)
(1.08615e-20 -4.40212e-19 -0.0149185)
(1.37779e-19 -2.31447e-19 -0.0148811)
(3.18588e-19 -2.81467e-20 -0.0148434)
(2.45282e-19 -1.52703e-20 -0.0148054)
(1.49587e-19 -1.53951e-19 -0.0147671)
(6.779e-20 -1.63609e-19 -0.0147286)
(-3.97363e-19 -1.44934e-18 -0.0159854)
(-7.63582e-20 -1.56345e-18 -0.0159673)
(1.24613e-19 -1.22945e-18 -0.0159485)
(4.78012e-19 -8.45865e-19 -0.0159288)
(2.38916e-19 -5.80914e-19 -0.0159082)
(1.5896e-19 -9.11189e-19 -0.0158867)
(3.12564e-19 -7.51538e-19 -0.0158645)
(4.29226e-19 -4.94803e-19 -0.0158414)
(5.77081e-19 -1.04584e-18 -0.0158177)
(4.94325e-19 -1.41993e-18 -0.0157932)
(2.59397e-19 -1.26708e-18 -0.015768)
(2.57687e-19 -1.01506e-18 -0.0157422)
(5.57535e-19 -8.82195e-19 -0.0157158)
(3.13718e-19 -9.89946e-19 -0.0156888)
(2.96565e-19 -1.07032e-18 -0.0156612)
(2.88006e-19 -1.07983e-18 -0.015633)
(1.46881e-19 -1.21488e-18 -0.0156043)
(2.52711e-19 -1.04035e-18 -0.015575)
(4.3806e-19 -7.58286e-19 -0.0155453)
(4.55308e-19 -5.31029e-19 -0.015515)
(4.38265e-19 -3.9618e-19 -0.0154843)
(6.1256e-19 -2.8992e-19 -0.0154531)
(6.75249e-19 -2.16603e-19 -0.0154214)
(7.63179e-19 -4.78132e-20 -0.0153893)
(9.02234e-19 2.61048e-19 -0.0153568)
(8.87269e-19 4.67773e-19 -0.0153239)
(6.94387e-19 4.17247e-19 -0.0152905)
(4.93491e-19 1.4277e-19 -0.0152568)
(4.36046e-19 8.77017e-21 -0.0152226)
(4.44355e-19 -1.07713e-21 -0.0151881)
(4.32025e-19 4.84733e-21 -0.0151532)
(4.53541e-19 1.64362e-19 -0.015118)
(3.81172e-19 2.90638e-19 -0.0150824)
(6.46114e-20 2.88713e-19 -0.0150465)
(-2.29221e-19 2.05536e-19 -0.0150102)
(-3.40483e-19 7.32155e-20 -0.0149736)
(-4.41782e-19 7.88024e-20 -0.0149366)
(-4.86885e-19 1.48135e-19 -0.0148994)
(-3.57037e-19 1.23601e-19 -0.0148618)
(-2.72809e-19 -3.96127e-20 -0.0148239)
(-2.31578e-19 -7.66239e-20 -0.0147857)
(-1.85666e-19 9.13035e-20 -0.0147472)
(-4.08212e-19 -1.38807e-18 -0.0159947)
(-3.87735e-19 -1.65823e-18 -0.0159769)
(-5.40456e-20 -1.51331e-18 -0.0159583)
(1.37708e-19 -7.28445e-19 -0.0159389)
(2.71775e-19 -4.91479e-19 -0.0159187)
(1.06554e-19 -9.21138e-19 -0.0158976)
(2.60715e-19 -7.79359e-19 -0.0158757)
(5.49503e-19 -7.03796e-19 -0.015853)
(6.32909e-19 -1.11632e-18 -0.0158296)
(4.75949e-19 -1.111e-18 -0.0158054)
(3.27109e-19 -1.06012e-18 -0.0157806)
(5.09818e-20 -1.11475e-18 -0.0157551)
(4.39632e-19 -9.98943e-19 -0.0157289)
(6.57627e-19 -9.98178e-19 -0.0157022)
(6.50722e-19 -1.28121e-18 -0.0156749)
(8.77539e-19 -1.28584e-18 -0.0156469)
(6.47807e-19 -1.117e-18 -0.0156185)
(3.20313e-19 -9.41727e-19 -0.0155894)
(2.82432e-19 -6.45472e-19 -0.0155599)
(3.46409e-19 -3.0205e-19 -0.0155299)
(2.82936e-19 -1.51194e-19 -0.0154994)
(3.16443e-19 5.27312e-21 -0.0154684)
(3.98898e-19 2.24637e-19 -0.0154369)
(3.97651e-19 3.78866e-19 -0.015405)
(3.76853e-19 5.35623e-19 -0.0153726)
(4.19782e-19 6.88505e-19 -0.0153399)
(5.48806e-19 6.66505e-19 -0.0153067)
(4.5109e-19 4.75063e-19 -0.0152731)
(2.94183e-19 3.48785e-19 -0.0152391)
(2.27295e-19 3.38596e-19 -0.0152048)
(2.6284e-19 4.36829e-19 -0.01517)
(2.91682e-19 6.30162e-19 -0.0151349)
(3.67709e-19 8.84838e-19 -0.0150995)
(3.2537e-19 1.00297e-18 -0.0150636)
(7.23415e-20 6.63118e-19 -0.0150275)
(-1.29537e-19 3.55984e-19 -0.014991)
(-2.00794e-19 2.74062e-19 -0.0149542)
(-3.40243e-19 -3.19745e-20 -0.014917)
(-4.84394e-19 -3.53124e-19 -0.0148795)
(-3.8945e-19 -2.36799e-19 -0.0148417)
(-2.02896e-19 1.43347e-19 -0.0148037)
(-9.66852e-20 2.98197e-19 -0.0147653)
(-3.53811e-20 -1.17914e-18 -0.0160034)
(-4.53865e-19 -1.65972e-18 -0.015986)
(-2.27897e-19 -1.43419e-18 -0.0159677)
(2.2841e-20 -7.1637e-19 -0.0159486)
(3.2345e-19 -6.41598e-19 -0.0159287)
(1.81251e-19 -9.47921e-19 -0.015908)
(1.18176e-19 -1.06831e-18 -0.0158864)
(4.51805e-19 -1.02526e-18 -0.0158641)
(3.88993e-19 -8.34911e-19 -0.015841)
(4.55699e-19 -8.34209e-19 -0.0158171)
(5.43223e-19 -7.73857e-19 -0.0157926)
(9.84835e-20 -9.44994e-19 -0.0157674)
(1.3504e-19 -1.30788e-18 -0.0157415)
(6.13603e-19 -1.57665e-18 -0.0157151)
(7.06385e-19 -1.77151e-18 -0.015688)
(9.7336e-19 -1.36801e-18 -0.0156603)
(9.64832e-19 -5.64388e-19 -0.0156321)
(6.28675e-19 -2.77767e-19 -0.0156033)
(3.82262e-19 -2.24852e-19 -0.015574)
(3.55474e-19 -1.2034e-20 -0.0155442)
(2.29969e-19 1.27572e-19 -0.0155139)
(6.00772e-20 2.85714e-19 -0.0154831)
(4.62858e-20 4.94103e-19 -0.0154518)
(1.76718e-19 7.98828e-19 -0.0154201)
(2.89616e-19 1.04698e-18 -0.0153879)
(1.521e-19 8.43984e-19 -0.0153553)
(8.02591e-20 6.46856e-19 -0.0153223)
(5.92413e-20 7.50051e-19 -0.0152888)
(-4.34784e-20 7.77781e-19 -0.015255)
(-1.58457e-19 6.69228e-19 -0.0152208)
(-1.51186e-19 6.78767e-19 -0.0151862)
(-1.8085e-20 8.50095e-19 -0.0151512)
(4.85311e-20 9.56131e-19 -0.0151159)
(8.83364e-20 7.15256e-19 -0.0150802)
(1.50814e-20 2.83307e-19 -0.0150442)
(-4.92348e-20 3.43185e-21 -0.0150078)
(-1.41338e-19 -1.77767e-19 -0.0149711)
(-2.25791e-19 -2.42774e-19 -0.0149341)
(-2.90048e-19 -1.09349e-19 -0.0148967)
(-2.42298e-19 -3.8999e-20 -0.014859)
(-2.14249e-19 -3.14119e-20 -0.014821)
(-2.91108e-20 2.05929e-19 -0.0147827)
(4.00492e-19 -9.49747e-19 -0.0160117)
(-1.66575e-19 -1.62435e-18 -0.0159946)
(-2.96199e-19 -1.74259e-18 -0.0159767)
(1.52127e-19 -1.22532e-18 -0.0159579)
(5.33413e-19 -8.6245e-19 -0.0159383)
(5.94963e-19 -1.0824e-18 -0.0159179)
(4.73257e-19 -1.24142e-18 -0.0158966)
(4.48339e-19 -8.63475e-19 -0.0158746)
(2.22322e-19 -7.13277e-19 -0.0158518)
(4.84138e-19 -1.21484e-18 -0.0158283)
(8.03207e-19 -8.49656e-19 -0.0158041)
(5.72036e-19 -1.03463e-18 -0.0157792)
(2.13637e-19 -1.7646e-18 -0.0157536)
(3.86056e-19 -1.75632e-18 -0.0157274)
(4.68881e-19 -1.47418e-18 -0.0157005)
(5.93267e-19 -6.96543e-19 -0.0156731)
(6.3531e-19 2.11468e-19 -0.0156451)
(4.5305e-19 2.58052e-19 -0.0156166)
(3.30304e-19 4.47681e-20 -0.0155875)
(5.18832e-19 1.569e-19 -0.0155579)
(6.18946e-19 4.31942e-19 -0.0155278)
(2.8057e-19 6.99437e-19 -0.0154972)
(-5.09384e-20 7.61049e-19 -0.0154661)
(-1.85883e-19 7.97923e-19 -0.0154345)
(-1.38991e-19 1.00793e-18 -0.0154025)
(-1.20812e-19 1.1495e-18 -0.0153701)
(-1.67815e-19 1.29451e-18 -0.0153373)
(-2.20942e-19 1.35814e-18 -0.015304)
(-3.29177e-19 1.18735e-18 -0.0152703)
(-3.9492e-19 8.99142e-19 -0.0152362)
(-3.08398e-19 6.83312e-19 -0.0152018)
(-1.02651e-19 7.15532e-19 -0.0151669)
(1.67582e-20 6.47942e-19 -0.0151317)
(6.31571e-20 3.63236e-19 -0.0150962)
(1.50192e-20 9.3393e-20 -0.0150603)
(8.0099e-21 5.1425e-20 -0.015024)
(7.79419e-20 2.42884e-19 -0.0149874)
(3.6804e-20 2.75171e-19 -0.0149505)
(-2.25714e-19 -1.30388e-19 -0.0149132)
(-3.38964e-19 -3.26059e-19 -0.0148756)
(-2.26028e-19 -3.44715e-20 -0.0148377)
(-1.7827e-19 1.12499e-19 -0.0147995)
(6.96646e-19 -9.82948e-19 -0.0160194)
(2.4638e-19 -1.46743e-18 -0.0160027)
(-2.54173e-19 -1.69142e-18 -0.0159851)
(5.19151e-21 -1.46585e-18 -0.0159667)
(4.88023e-19 -1.17258e-18 -0.0159474)
(5.08097e-19 -1.1169e-18 -0.0159273)
(4.8068e-19 -1.05336e-18 -0.0159064)
(5.91413e-19 -6.33276e-19 -0.0158847)
(3.70904e-19 -9.15763e-19 -0.0158622)
(2.94304e-19 -1.44196e-18 -0.015839)
(4.88034e-19 -7.08632e-19 -0.015815)
(7.69413e-19 -8.05446e-19 -0.0157904)
(4.52334e-19 -1.42754e-18 -0.0157651)
(1.73339e-19 -1.40784e-18 -0.0157391)
(-4.26056e-20 -9.77379e-19 -0.0157125)
(8.00997e-20 -8.09426e-20 -0.0156853)
(5.36811e-19 5.4578e-19 -0.0156576)
(5.92016e-19 2.34194e-19 -0.0156293)
(3.72513e-19 -3.34575e-19 -0.0156004)
(3.87866e-19 -2.39589e-19 -0.015571)
(7.03886e-19 6.78926e-19 -0.0155411)
(6.83501e-19 1.39484e-18 -0.0155107)
(2.94911e-19 1.30732e-18 -0.0154798)
(-4.84951e-21 1.27391e-18 -0.0154484)
(-1.64233e-19 1.46957e-18 -0.0154166)
(-3.17794e-19 1.41765e-18 -0.0153843)
(-2.52267e-19 1.22732e-18 -0.0153516)
(-1.46567e-19 1.09116e-18 -0.0153185)
(-1.79542e-19 7.5174e-19 -0.015285)