/*--------------------------------*- C++ -*----------------------------------*\
  =========                 |
  \\      /  F ield         | OpenFOAM: The Open Source CFD Toolbox
   \\    /   O peration     | Website:  https://openfoam.org
    \\  /    A nd           | Version:  7
     \\/     M anipulation  |
\*---------------------------------------------------------------------------*/
FoamFile
{
    version     2.0;
    format      ascii;
    class       volScalarField;
    location    "36000";
    object      nut;
}
// * * * * * * * * * * * * * * * * * * * * * * * * * * * * * * * * * * * * * //

dimensions      [0 2 -1 0 0 0 0];

internalField   nonuniform List<scalar> 
4782
(
1.95559e-14
1.87171e-14
1.7869e-14
1.70131e-14
1.61529e-14
1.52936e-14
1.4438e-14
1.35875e-14
1.27463e-14
1.19162e-14
1.32521e-14
1.46129e-14
1.63705e-14
1.84156e-14
2.06221e-14
2.28755e-14
2.33485e-14
2.36924e-14
2.4162e-14
2.4697e-14
2.52582e-14
2.58227e-14
2.6379e-14
2.69108e-14
2.74169e-14
2.78903e-14
2.83261e-14
2.87131e-14
2.90567e-14
2.93538e-14
2.95947e-14
2.9779e-14
2.99134e-14
2.99883e-14
3.00116e-14
2.99802e-14
2.98961e-14
2.97595e-14
2.95708e-14
2.93241e-14
2.90218e-14
2.86655e-14
2.82569e-14
2.78038e-14
2.73016e-14
2.67588e-14
2.61716e-14
2.55434e-14
2.48818e-14
2.41843e-14
2.34548e-14
2.26964e-14
2.19158e-14
2.11126e-14
2.02902e-14
1.94551e-14
1.86073e-14
1.77504e-14
1.68878e-14
1.60245e-14
1.51616e-14
1.43038e-14
1.34539e-14
1.26133e-14
1.17849e-14
1.37628e-14
1.52948e-14
1.71853e-14
1.9312e-14
2.15529e-14
2.32964e-14
2.35247e-14
2.39319e-14
2.44332e-14
2.49813e-14
2.55463e-14
2.61082e-14
2.66575e-14
2.7179e-14
2.76726e-14
2.81317e-14
2.85518e-14
2.89219e-14
2.92478e-14
2.95264e-14
2.97482e-14
2.99205e-14
3.00396e-14
3.0105e-14
3.01106e-14
3.00572e-14
2.99523e-14
2.97883e-14
2.95737e-14
2.93019e-14
2.89817e-14
2.86073e-14
2.81809e-14
2.77104e-14
2.7197e-14
2.66374e-14
2.60346e-14
2.53961e-14
2.47241e-14
2.40169e-14
2.32782e-14
2.2511e-14
2.17222e-14
2.09141e-14
2.00899e-14
1.92527e-14
1.84055e-14
1.75516e-14
1.66941e-14
1.58341e-14
1.4975e-14
1.41217e-14
1.32751e-14
1.24397e-14
1.16179e-14
1.43623e-14
1.60551e-14
1.80591e-14
2.02477e-14
2.25055e-14
2.34116e-14
2.37267e-14
2.41824e-14
2.47094e-14
2.52693e-14
2.58406e-14
2.64061e-14
2.69541e-14
2.74712e-14
2.79514e-14
2.83897e-14
2.87873e-14
2.91421e-14
2.94493e-14
2.97013e-14
2.99048e-14
3.00555e-14
3.01548e-14
3.01998e-14
3.01851e-14
3.01113e-14
2.99856e-14
2.98051e-14
2.95736e-14
2.92922e-14
2.89559e-14
2.85671e-14
2.81279e-14
2.76401e-14
2.71113e-14
2.65415e-14
2.59296e-14
2.52834e-14
2.46004e-14
2.38872e-14
2.31464e-14
2.23784e-14
2.15866e-14
2.07767e-14
1.99494e-14
1.91084e-14
1.82594e-14
1.74029e-14
1.65424e-14
1.56811e-14
1.48221e-14
1.39682e-14
1.31234e-14
1.22904e-14
1.14718e-14
1.50579e-14
1.68988e-14
1.89985e-14
2.12305e-14
2.33741e-14
2.35564e-14
2.39375e-14
2.44286e-14
2.49726e-14
2.55431e-14
2.61181e-14
2.66834e-14
2.72223e-14
2.77281e-14
2.8195e-14
2.86258e-14
2.90143e-14
2.93522e-14
2.96377e-14
2.98768e-14
3.00593e-14
3.01928e-14
3.02682e-14
3.02858e-14
3.02513e-14
3.01588e-14
3.00092e-14
2.98033e-14
2.95486e-14
2.92453e-14
2.88881e-14
2.84794e-14
2.8027e-14
2.75264e-14
2.69805e-14
2.63965e-14
2.57713e-14
2.51121e-14
2.44203e-14
2.36995e-14
2.29526e-14
2.21791e-14
2.1383e-14
2.05672e-14
1.97381e-14
1.88983e-14
1.80484e-14
1.71942e-14
1.63364e-14
1.54783e-14
1.46248e-14
1.37769e-14
1.29385e-14
1.21113e-14
1.1299e-14
1.50798e-14
1.69272e-14
1.90331e-14
2.1272e-14
2.34239e-14
2.36127e-14
2.39963e-14
2.44898e-14
2.50375e-14
2.56071e-14
2.61774e-14
2.67397e-14
2.72761e-14
2.77866e-14
2.82574e-14
2.86848e-14
2.90652e-14
2.94031e-14
2.96874e-14
2.99247e-14
3.0105e-14
3.02281e-14
3.03006e-14
3.03213e-14
3.02822e-14
3.01918e-14
3.00424e-14
2.98356e-14
2.95794e-14
2.9267e-14
2.89069e-14
2.8498e-14
2.80438e-14
2.75456e-14
2.70055e-14
2.64243e-14
2.58061e-14
2.51485e-14
2.44596e-14
2.37374e-14
2.29894e-14
2.2218e-14
2.1423e-14
2.06081e-14
1.97794e-14
1.8937e-14
1.8087e-14
1.723e-14
1.63713e-14
1.55139e-14
1.46588e-14
1.38093e-14
1.29692e-14
1.21413e-14
1.1327e-14
1.44172e-14
1.61247e-14
1.81463e-14
2.03524e-14
2.26275e-14
2.35398e-14
2.38566e-14
2.43102e-14
2.48404e-14
2.54071e-14
2.59851e-14
2.65515e-14
2.70997e-14
2.76222e-14
2.81122e-14
2.85644e-14
2.89729e-14
2.93371e-14
2.96521e-14
2.99108e-14
3.012e-14
3.02756e-14
3.03714e-14
3.04131e-14
3.04021e-14
3.03305e-14
3.01995e-14
3.00169e-14
2.97824e-14
2.94969e-14
2.91614e-14
2.87775e-14
2.83409e-14
2.78544e-14
2.73203e-14
2.67449e-14
2.61317e-14
2.54779e-14
2.47915e-14
2.40735e-14
2.33281e-14
2.2558e-14
2.17664e-14
2.09532e-14
2.01222e-14
1.92769e-14
1.84206e-14
1.7559e-14
1.66927e-14
1.58271e-14
1.49631e-14
1.41056e-14
1.32571e-14
1.24202e-14
1.15964e-14
1.07883e-14
9.99915e-15
9.23002e-15
8.39831e-15
1.3851e-14
1.5407e-14
1.7328e-14
1.94889e-14
2.17635e-14
2.35319e-14
2.37738e-14
2.41902e-14
2.4704e-14
2.52634e-14
2.58439e-14
2.6419e-14
2.69817e-14
2.75214e-14
2.80304e-14
2.85034e-14
2.89285e-14
2.93107e-14
2.96463e-14
2.99308e-14
3.0165e-14
3.03467e-14
3.04751e-14
3.05478e-14
3.0567e-14
3.05247e-14
3.04299e-14
3.0275e-14
3.0062e-14
2.97991e-14
2.94798e-14
2.91068e-14
2.86818e-14
2.82069e-14
2.76842e-14
2.7116e-14
2.65101e-14
2.58632e-14
2.51787e-14
2.44641e-14
2.37173e-14
2.29421e-14
2.21451e-14
2.1329e-14
2.04938e-14
1.96432e-14
1.87833e-14
1.79144e-14
1.70401e-14
1.61658e-14
1.52923e-14
1.44246e-14
1.35639e-14
1.27146e-14
1.18779e-14
1.10567e-14
1.02532e-14
9.47045e-15
8.68026e-15
7.6959e-15
1.33728e-14
1.47689e-14
1.65735e-14
1.86737e-14
2.09381e-14
2.32513e-14
2.37434e-14
2.41103e-14
2.46038e-14
2.51594e-14
2.57467e-14
2.63415e-14
2.69262e-14
2.74855e-14
2.80119e-14
2.84991e-14
2.89422e-14
2.93428e-14
2.96992e-14
3.00005e-14
3.02534e-14
3.04556e-14
3.05976e-14
3.06798e-14
3.07097e-14
3.06783e-14
3.05865e-14
3.04423e-14
3.02379e-14
2.9982e-14
2.96729e-14
2.93139e-14
2.89062e-14
2.84453e-14
2.79401e-14
2.73865e-14
2.67931e-14
2.61567e-14
2.54805e-14
2.47723e-14
2.40341e-14
2.32689e-14
2.24761e-14
2.16629e-14
2.0829e-14
1.99813e-14
1.91198e-14
1.82486e-14
1.73709e-14
1.64902e-14
1.56099e-14
1.4733e-14
1.38628e-14
1.30034e-14
1.21562e-14
1.1324e-14
1.05102e-14
9.71612e-15
8.94459e-15
7.96414e-15
7.01992e-15
6.14184e-15
5.33266e-15
4.59353e-15
3.92491e-15
3.32575e-15
2.79383e-15
2.32635e-15
1.91953e-15
1.5692e-15
1.27069e-15
1.01912e-15
8.09505e-16
6.36897e-16
4.96531e-16
3.83874e-16
2.94707e-16
2.25179e-16
1.71824e-16
1.31561e-16
1.0167e-16
8.40831e-17
7.08834e-17
5.88999e-17
4.81182e-17
3.85184e-17
3.00765e-17
2.27656e-17
1.65576e-17
1.1428e-17
7.36789e-18
4.32213e-18
2.16416e-18
8.19175e-19
1.78929e-19
1.29711e-14
1.42005e-14
1.58684e-14
1.78829e-14
2.01143e-14
2.24377e-14
2.37194e-14
2.40223e-14
2.44825e-14
2.50271e-14
2.56127e-14
2.62106e-14
2.67981e-14
2.73679e-14
2.79121e-14
2.84163e-14
2.88835e-14
2.93087e-14
2.96885e-14
3.00203e-14
3.02941e-14
3.05174e-14
3.06801e-14
3.07823e-14
3.08297e-14
3.08155e-14
3.07465e-14
3.06167e-14
3.0427e-14
3.01856e-14
2.98906e-14
2.95381e-14
2.91367e-14
2.86855e-14
2.81883e-14
2.76466e-14
2.70627e-14
2.6439e-14
2.57782e-14
2.50818e-14
2.43501e-14
2.35866e-14
2.27948e-14
2.19782e-14
2.11435e-14
2.02903e-14
1.94255e-14
1.85492e-14
1.7667e-14
1.67806e-14
1.58935e-14
1.5009e-14
1.41303e-14
1.32606e-14
1.24038e-14
1.15614e-14
1.07361e-14
9.93113e-15
9.14768e-15
8.20283e-15
7.23703e-15
6.33711e-15
5.50631e-15
4.7467e-15
4.05864e-15
3.44128e-15
2.89257e-15
2.40981e-15
1.98933e-15
1.62688e-15
1.31779e-15
1.05705e-15
8.39638e-16
6.60503e-16
5.14733e-16
3.97676e-16
3.04982e-16
2.32673e-16
1.77165e-16
1.3527e-16
1.04169e-16
8.5226e-17
7.18493e-17
5.97036e-17
4.87748e-17
3.90434e-17
3.04854e-17
2.30736e-17
1.67798e-17
1.15786e-17
7.46034e-18
4.3737e-18
2.18816e-18
8.27018e-19
1.80084e-19
1.26435e-14
1.37113e-14
1.52337e-14
1.71484e-14
1.93325e-14
2.16517e-14
2.37449e-14
2.3973e-14
2.43927e-14
2.49201e-14
2.55025e-14
2.6102e-14
2.67044e-14
2.7288e-14
2.78434e-14
2.83626e-14
2.88471e-14
2.92914e-14
2.96838e-14
3.00302e-14
3.03252e-14
3.05616e-14
3.07384e-14
3.08631e-14
3.09256e-14
3.09344e-14
3.08885e-14
3.078e-14
3.06181e-14
3.03951e-14
3.01202e-14
2.97938e-14
2.94106e-14
2.89734e-14
2.84844e-14
2.79458e-14
2.73655e-14
2.67399e-14
2.60772e-14
2.53784e-14
2.46479e-14
2.38846e-14
2.30925e-14
2.22746e-14
2.14378e-14
2.05838e-14
1.97141e-14
1.88324e-14
1.79424e-14
1.70475e-14
1.61511e-14
1.52585e-14
1.43707e-14
1.34926e-14
1.26255e-14
1.17736e-14
1.09392e-14
1.01238e-14
9.33059e-15
8.42298e-15
7.43783e-15
6.51852e-15
5.6686e-15
4.89038e-15
4.18435e-15
3.55014e-15
2.9859e-15
2.48896e-15
2.05561e-15
1.68175e-15
1.36264e-15
1.09325e-15
8.68439e-16
6.83083e-16
5.32164e-16
4.10905e-16
3.1484e-16
2.39872e-16
1.82303e-16
1.38842e-16
1.06583e-16
8.63431e-17
7.27936e-17
6.04894e-17
4.94169e-17
3.95568e-17
3.08851e-17
2.33747e-17
1.69969e-17
1.17259e-17
7.55076e-18
4.42409e-18
2.21158e-18
8.34664e-19
1.81205e-19
1.23779e-14
1.32921e-14
1.46613e-14
1.64591e-14
1.85749e-14
2.08746e-14
2.32345e-14
2.39216e-14
2.42931e-14
2.47932e-14
2.53591e-14
2.5958e-14
2.65644e-14
2.7162e-14
2.77391e-14
2.82804e-14
2.87805e-14
2.92347e-14
2.96468e-14
3.00043e-14
3.03117e-14
3.05686e-14
3.07646e-14
3.09077e-14
3.09964e-14
3.10216e-14
3.09925e-14
3.09083e-14
3.07614e-14
3.05538e-14
3.02864e-14
2.99675e-14
2.95958e-14
2.91746e-14
2.87056e-14
2.81847e-14
2.76151e-14
2.69997e-14
2.63413e-14
2.56477e-14
2.49164e-14
2.41556e-14
2.33638e-14
2.25448e-14
2.17059e-14
2.08465e-14
1.99707e-14
1.9082e-14
1.81867e-14
1.72854e-14
1.63839e-14
1.54832e-14
1.45882e-14
1.37023e-14
1.28268e-14
1.19659e-14
1.11223e-14
1.02981e-14
9.49574e-15
8.62716e-15
7.62477e-15
6.68796e-15
5.82066e-15
5.02528e-15
4.3028e-15
3.65286e-15
3.07409e-15
2.56374e-15
2.11838e-15
1.73379e-15
1.4052e-15
1.12761e-15
8.9581e-16
7.04574e-16
5.48775e-16
4.23528e-16
3.24259e-16
2.46759e-16
1.87225e-16
1.42272e-16
1.08907e-16
8.74309e-17
7.37132e-17
6.12546e-17
5.00422e-17
4.00567e-17
3.12744e-17
2.3668e-17
1.72084e-17
1.18693e-17
7.63885e-18
4.47312e-18
2.23435e-18
8.42088e-19
1.82292e-19
1.21649e-14
1.2939e-14
1.41546e-14
1.58223e-14
1.78543e-14
2.01172e-14
2.24791e-14
2.38783e-14
2.41914e-14
2.46653e-14
2.52264e-14
2.58246e-14
2.64321e-14
2.70365e-14
2.76221e-14
2.81745e-14
2.86872e-14
2.91626e-14
2.95955e-14
2.99744e-14
3.02977e-14
3.05717e-14
3.07853e-14
3.09382e-14
3.1038e-14
3.10744e-14
3.10561e-14
3.09822e-14
3.08446e-14
3.06527e-14
3.03988e-14
3.00922e-14
2.97333e-14
2.93234e-14
2.88643e-14
2.83516e-14
2.77945e-14
2.71947e-14
2.65493e-14
2.58622e-14
2.51412e-14
2.43845e-14
2.3596e-14
2.27792e-14
2.19377e-14
2.10783e-14
2.02011e-14
1.93099e-14
1.8411e-14
1.75051e-14
1.65982e-14
1.56932e-14
1.47933e-14
1.39e-14
1.30182e-14
1.21503e-14
1.12992e-14
1.04672e-14
9.65593e-15
8.8255e-15
7.80637e-15
6.85254e-15
5.9683e-15
5.15635e-15
4.41792e-15
3.75311e-15
3.16026e-15
2.63705e-15
2.17994e-15
1.78486e-15
1.44705e-15
1.16143e-15
9.2276e-16
7.25732e-16
5.65124e-16
4.35951e-16
3.33522e-16
2.53524e-16
1.9205e-16
1.45621e-16
1.11161e-16
8.84856e-17
7.46049e-17
6.19968e-17
5.06486e-17
4.05416e-17
3.1652e-17
2.39524e-17
1.74135e-17
1.20084e-17
7.72433e-18
4.52064e-18
2.25641e-18
8.49268e-19
1.83339e-19
1.19955e-14
1.26468e-14
1.37146e-14
1.52453e-14
1.71788e-14
1.93892e-14
2.17402e-14
2.3853e-14
2.40939e-14
2.45313e-14
2.50706e-14
2.56647e-14
2.62805e-14
2.68969e-14
2.74929e-14
2.80593e-14
2.85884e-14
2.90744e-14
2.95204e-14
2.99135e-14
3.02602e-14
3.05488e-14
3.07786e-14
3.09481e-14
3.10647e-14
3.11263e-14
3.11324e-14
3.10746e-14
3.09544e-14
3.07724e-14
3.05372e-14
3.02413e-14
2.98868e-14
2.94821e-14
2.90277e-14
2.85254e-14
2.79771e-14
2.73851e-14
2.67465e-14
2.60651e-14
2.5344e-14
2.4591e-14
2.38088e-14
2.29966e-14
2.21585e-14
2.12981e-14
2.04193e-14
1.95277e-14
1.8625e-14
1.77171e-14
1.68071e-14
1.58962e-14
1.499e-14
1.40913e-14
1.32031e-14
1.23284e-14
1.14696e-14
1.06296e-14
9.81057e-15
9.01416e-15
7.98214e-15
7.01215e-15
6.11165e-15
5.28409e-15
4.53055e-15
3.85114e-15
3.24468e-15
2.70881e-15
2.24021e-15
1.83487e-15
1.48802e-15
1.19459e-15
9.49206e-16
7.46515e-16
5.81199e-16
4.48174e-16
3.42645e-16
2.60193e-16
1.96815e-16
1.48938e-16
1.13405e-16
8.95036e-17
7.54657e-17
6.27133e-17
5.12341e-17
4.10098e-17
3.20166e-17
2.4227e-17
1.76115e-17
1.21427e-17
7.80691e-18
4.56649e-18
2.27767e-18
8.56182e-19
1.84346e-19
1.18616e-14
1.24085e-14
1.33391e-14
1.4732e-14
1.65577e-14
1.87042e-14
2.10314e-14
2.34177e-14
2.40056e-14
2.4392e-14
2.49075e-14
2.54914e-14
2.61001e-14
2.67102e-14
2.7305e-14
2.78796e-14
2.84229e-14
2.89287e-14
2.93866e-14
2.97933e-14
3.01458e-14
3.04499e-14
3.0694e-14
3.08856e-14
3.10226e-14
3.11037e-14
3.11285e-14
3.10885e-14
3.09846e-14
3.08234e-14
3.06048e-14
3.03316e-14
3.00048e-14
2.96261e-14
2.91906e-14
2.87017e-14
2.81626e-14
2.7575e-14
2.69413e-14
2.6264e-14
2.55501e-14
2.48029e-14
2.40212e-14
2.32089e-14
2.23736e-14
2.15183e-14
2.0643e-14
1.97519e-14
1.88489e-14
1.79376e-14
1.7024e-14
1.6109e-14
1.51982e-14
1.42946e-14
1.33998e-14
1.25172e-14
1.16498e-14
1.08001e-14
9.97095e-15
9.16502e-15
8.16159e-15
7.17421e-15
6.25704e-15
5.41307e-15
4.6438e-15
3.94954e-15
3.32924e-15
2.78074e-15
2.3007e-15
1.88506e-15
1.52914e-15
1.22779e-15
9.75668e-16
7.67293e-16
5.97258e-16
4.6037e-16
3.51733e-16
2.66823e-16
2.01536e-16
1.52208e-16
1.156e-16
9.04817e-17
7.62928e-17
6.34017e-17
5.17968e-17
4.14597e-17
3.23669e-17
2.44908e-17
1.78018e-17
1.22718e-17
7.88631e-18
4.61052e-18
2.29807e-18
8.62807e-19
1.85308e-19
1.1754e-14
1.22131e-14
1.30182e-14
1.4273e-14
1.59809e-14
1.80466e-14
2.03345e-14
2.27119e-14
2.39004e-14
2.42318e-14
2.47136e-14
2.52784e-14
2.58822e-14
2.64916e-14
2.7089e-14
2.76684e-14
2.82196e-14
2.87357e-14
2.92034e-14
2.96275e-14
2.99955e-14
3.03139e-14
3.05794e-14
3.07903e-14
3.0945e-14
3.10426e-14
3.10826e-14
3.10646e-14
3.09806e-14
3.084e-14
3.06427e-14
3.03821e-14
3.00604e-14
2.96864e-14
2.92609e-14
2.8779e-14
2.82503e-14
2.76767e-14
2.70547e-14
2.63879e-14
2.56831e-14
2.49443e-14
2.41698e-14
2.33635e-14
2.2533e-14
2.16813e-14
2.08085e-14
1.99188e-14
1.90159e-14
1.81055e-14
1.71893e-14
1.62732e-14
1.53584e-14
1.44486e-14
1.35471e-14
1.26585e-14
1.17851e-14
1.09299e-14
1.00955e-14
9.28412e-15
8.31187e-15
7.31136e-15
6.38085e-15
5.5236e-15
4.74135e-15
4.03462e-15
3.40273e-15
2.84351e-15
2.35364e-15
1.92915e-15
1.56537e-15
1.2572e-15
9.99194e-16
7.85819e-16
6.11612e-16
4.71299e-16
3.59901e-16
2.728e-16
2.05809e-16
1.55181e-16
1.17608e-16
9.14163e-17
7.70833e-17
6.40598e-17
5.23346e-17
4.18898e-17
3.27018e-17
2.47431e-17
1.79837e-17
1.23952e-17
7.96227e-18
4.65258e-18
2.31754e-18
8.69124e-19
1.86223e-19
1.16689e-14
1.20568e-14
1.27526e-14
1.38784e-14
1.54685e-14
1.74505e-14
1.96935e-14
2.20595e-14
2.3833e-14
2.41028e-14
2.45511e-14
2.50981e-14
2.56936e-14
2.63064e-14
2.69164e-14
2.751e-14
2.80698e-14
2.85969e-14
2.90846e-14
2.95285e-14
2.99229e-14
3.02678e-14
3.05524e-14
3.07761e-14
3.09377e-14
3.10446e-14
3.10947e-14
3.10874e-14
3.10225e-14
3.08922e-14
3.0698e-14
3.04466e-14
3.01386e-14
2.97772e-14
2.93567e-14
2.88864e-14
2.83678e-14
2.77968e-14
2.71827e-14
2.65217e-14
2.58227e-14
2.50879e-14
2.43206e-14
2.35199e-14
2.26901e-14
2.18351e-14
2.09619e-14
2.00737e-14
1.91739e-14
1.82637e-14
1.7347e-14
1.64277e-14
1.55093e-14
1.45972e-14
1.36927e-14
1.28007e-14
1.19227e-14
1.10618e-14
1.02206e-14
9.4016e-15
8.45868e-15
7.44534e-15
6.50135e-15
5.63096e-15
4.83625e-15
4.11756e-15
3.47422e-15
2.9044e-15
2.40493e-15
1.97187e-15
1.60051e-15
1.28572e-15
1.02199e-15
8.03775e-16
6.2553e-16
4.81903e-16
3.67829e-16
2.78606e-16
2.09964e-16
1.5808e-16
1.19575e-16
9.23043e-17
7.78345e-17
6.46852e-17
5.28458e-17
4.22986e-17
3.30201e-17
2.49828e-17
1.81565e-17
1.25125e-17
8.03451e-18
4.69252e-18
2.33602e-18
8.75113e-19
1.87088e-19
1.16019e-14
1.1933e-14
1.25362e-14
1.35442e-14
1.50194e-14
1.69145e-14
1.91069e-14
2.14553e-14
2.38027e-14
2.40116e-14
2.44322e-14
2.49674e-14
2.55556e-14
2.61629e-14
2.67728e-14
2.73694e-14
2.79416e-14
2.84738e-14
2.89684e-14
2.94197e-14
2.98237e-14
3.01771e-14
3.04754e-14
3.07192e-14
3.09068e-14
3.10372e-14
3.111e-14
3.11164e-14
3.10575e-14
3.09422e-14
3.07617e-14
3.05258e-14
3.02346e-14
2.98818e-14
2.94771e-14
2.90217e-14
2.8511e-14
2.79482e-14
2.73406e-14
2.66865e-14
2.59892e-14
2.5257e-14
2.44878e-14
2.36857e-14
2.2854e-14
2.20005e-14
2.11245e-14
2.02303e-14
1.93216e-14
1.84048e-14
1.7483e-14
1.65597e-14
1.56383e-14
1.47221e-14
1.38144e-14
1.2917e-14
1.20343e-14
1.11691e-14
1.0324e-14
9.50061e-15
8.58764e-15
7.56386e-15
6.60953e-15
5.72821e-15
4.92242e-15
4.19306e-15
3.5398e-15
2.96053e-15
2.45241e-15
2.01145e-15
1.63309e-15
1.31214e-15
1.04313e-15
8.2044e-16
6.38452e-16
4.91755e-16
3.75196e-16
2.84003e-16
2.13825e-16
1.6077e-16
1.21394e-16
9.31428e-17
7.85437e-17
6.52757e-17
5.33285e-17
4.26846e-17
3.33207e-17
2.52092e-17
1.83198e-17
1.26234e-17
8.10278e-18
4.73022e-18
2.35345e-18
8.80756e-19
1.87902e-19
1.15497e-14
1.18363e-14
1.23626e-14
1.3267e-14
1.46357e-14
1.64472e-14
1.85904e-14
2.09234e-14
2.3319e-14
2.39719e-14
2.4355e-14
2.48676e-14
2.54453e-14
2.60546e-14
2.667e-14
2.72747e-14
2.78567e-14
2.84077e-14
2.89213e-14
2.93846e-14
2.98031e-14
3.01642e-14
3.04727e-14
3.07198e-14
3.09128e-14
3.10497e-14
3.11294e-14
3.11429e-14
3.10912e-14
3.09829e-14
3.08171e-14
3.05946e-14
3.03162e-14
2.99759e-14
2.95764e-14
2.91197e-14
2.86149e-14
2.80573e-14
2.74508e-14
2.67975e-14
2.61057e-14
2.53774e-14
2.46109e-14
2.38133e-14
2.2989e-14
2.21375e-14
2.12665e-14
2.03759e-14
1.9473e-14
1.8561e-14
1.7641e-14
1.67172e-14
1.57933e-14
1.48729e-14
1.39594e-14
1.30563e-14
1.21666e-14
1.12945e-14
1.04424e-14
9.61195e-15
8.72467e-15
7.68816e-15
6.72107e-15
5.82758e-15
5.00991e-15
4.26945e-15
3.6057e-15
3.0167e-15
2.49972e-15
2.05087e-15
1.6655e-15
1.33845e-15
1.06416e-15
8.36985e-16
6.5127e-16
5.0151e-16
3.82481e-16
2.89327e-16
2.17623e-16
1.63403e-16
1.23163e-16
9.39286e-17
7.92086e-17
6.58293e-17
5.37811e-17
4.30465e-17
3.36026e-17
2.54215e-17
1.84729e-17
1.27273e-17
8.16683e-18
4.76555e-18
2.36977e-18
8.86034e-19
1.88662e-19
1.15079e-14
1.17591e-14
1.22213e-14
1.30336e-14
1.43017e-14
1.60286e-14
1.81166e-14
2.04257e-14
2.28249e-14
2.39366e-14
2.42854e-14
2.47859e-14
2.53663e-14
2.59781e-14
2.66015e-14
2.72111e-14
2.77953e-14
2.83446e-14
2.88598e-14
2.93341e-14
2.97545e-14
3.01271e-14
3.0448e-14
3.07153e-14
3.09185e-14
3.10574e-14
3.11374e-14
3.11595e-14
3.11207e-14
3.10153e-14
3.08524e-14
3.06315e-14
3.03533e-14
3.0019e-14
2.96299e-14
2.91863e-14
2.86856e-14
2.81374e-14
2.75371e-14
2.68943e-14
2.6211e-14
2.54851e-14
2.47253e-14
2.39299e-14
2.3106e-14
2.22581e-14
2.13857e-14
2.04966e-14
1.9594e-14
1.86816e-14
1.77604e-14
1.68347e-14
1.59103e-14
1.49885e-14
1.40746e-14
1.31702e-14
1.22788e-14
1.14035e-14
1.0547e-14
9.71265e-15
8.85135e-15
7.80409e-15
6.82564e-15
5.92096e-15
5.09272e-15
4.34198e-15
3.66853e-15
3.07051e-15
2.54523e-15
2.08882e-15
1.69676e-15
1.36381e-15
1.08447e-15
8.53005e-16
6.63697e-16
5.10982e-16
3.89567e-16
2.94522e-16
2.21347e-16
1.66009e-16
1.24939e-16
9.50001e-17
7.98268e-17
6.63441e-17
5.42019e-17
4.33831e-17
3.38647e-17
2.5619e-17
1.86153e-17
1.28239e-17
8.22644e-18
4.79838e-18
2.38492e-18
8.90932e-19
1.89365e-19
1.14746e-14
1.16979e-14
1.21077e-14
1.28405e-14
1.40168e-14
1.56626e-14
1.76973e-14
1.99842e-14
2.23855e-14
2.39305e-14
2.42365e-14
2.47149e-14
2.52845e-14
2.58921e-14
2.65146e-14
2.71317e-14
2.77278e-14
2.82956e-14
2.88256e-14
2.93129e-14
2.97474e-14
3.01261e-14
3.04549e-14
3.07304e-14
3.09505e-14
3.11116e-14
3.12071e-14
3.12374e-14
3.12025e-14
3.11025e-14
3.09459e-14
3.07323e-14
3.04544e-14
3.01217e-14
2.97348e-14
2.92951e-14
2.88042e-14
2.82644e-14
2.76719e-14
2.70305e-14
2.63488e-14
2.56238e-14
2.48646e-14
2.4069e-14
2.32443e-14
2.2391e-14
2.15157e-14
2.06227e-14
1.97155e-14
1.87977e-14
1.78728e-14
1.69445e-14
1.60164e-14
1.50919e-14
1.41744e-14
1.32657e-14
1.23707e-14
1.14918e-14
1.06323e-14
9.79363e-15
8.95715e-15
7.9018e-15
6.91526e-15
6.00173e-15
5.16471e-15
4.40522e-15
3.72342e-15
3.11774e-15
2.58528e-15
2.12235e-15
1.72439e-15
1.38631e-15
1.10252e-15
8.67272e-16
6.74808e-16
5.19491e-16
3.95967e-16
2.99245e-16
2.24762e-16
1.68423e-16
1.26603e-16
9.61236e-17
8.0396e-17
6.68182e-17
5.45895e-17
4.36931e-17
3.41061e-17
2.58008e-17
1.87465e-17
1.2913e-17
8.28137e-18
4.8286e-18
2.39887e-18
8.95435e-19
1.90011e-19
1.14477e-14
1.1649e-14
1.20161e-14
1.26813e-14
1.37751e-14
1.53451e-14
1.7326e-14
1.95867e-14
2.19841e-14
2.39359e-14
2.42043e-14
2.46647e-14
2.52274e-14
2.58405e-14
2.64658e-14
2.70899e-14
2.76907e-14
2.82586e-14
2.87914e-14
2.92846e-14
2.97311e-14
3.01299e-14
3.0469e-14
3.07559e-14
3.09855e-14
3.11502e-14
3.12587e-14
3.13004e-14
3.12849e-14
3.12027e-14
3.10552e-14
3.08511e-14
3.0588e-14
3.02693e-14
2.9896e-14
2.94626e-14
2.8979e-14
2.84401e-14
2.78495e-14
2.72101e-14
2.65248e-14
2.5802e-14
2.50442e-14
2.42497e-14
2.34271e-14
2.25754e-14
2.17024e-14
2.08116e-14
1.99033e-14
1.89818e-14
1.80537e-14
1.712e-14
1.6187e-14
1.52558e-14
1.43304e-14
1.34144e-14
1.25108e-14
1.1623e-14
1.07548e-14
9.90865e-15
9.0867e-15
8.02225e-15
7.0228e-15
6.09708e-15
5.24839e-15
4.47788e-15
3.78583e-15
3.17073e-15
2.62973e-15
2.15926e-15
1.75471e-15
1.41088e-15
1.12214e-15
8.82725e-16
6.86774e-16
5.28609e-16
4.02795e-16
3.04258e-16
2.28363e-16
1.70947e-16
1.28325e-16
9.72601e-17
8.09143e-17
6.72499e-17
5.49424e-17
4.39754e-17
3.4326e-17
2.59664e-17
1.88659e-17
1.29941e-17
8.33143e-18
4.8561e-18
2.41155e-18
8.99528e-19
1.90598e-19
1.14252e-14
1.16092e-14
1.19418e-14
1.25498e-14
1.35703e-14
1.50687e-14
1.6997e-14
1.92293e-14
2.1622e-14
2.39466e-14
2.41775e-14
2.46188e-14
2.51744e-14
2.5782e-14
2.64077e-14
2.70289e-14
2.7635e-14
2.82169e-14
2.87583e-14
2.9254e-14
2.97074e-14
3.01136e-14
3.04607e-14
3.0756e-14
3.09967e-14
3.11721e-14
3.12913e-14
3.1344e-14
3.13308e-14
3.12603e-14
3.11316e-14
3.09369e-14
3.06862e-14
3.03718e-14
3.00016e-14
2.95716e-14
2.90845e-14
2.85491e-14
2.79607e-14
2.73227e-14
2.66438e-14
2.59262e-14
2.51677e-14
2.43773e-14
2.35532e-14
2.27038e-14
2.18322e-14
2.09385e-14
2.00273e-14
1.91027e-14
1.81685e-14
1.72312e-14
1.62938e-14
1.53579e-14
1.4429e-14
1.35103e-14
1.26034e-14
1.17131e-14
1.08408e-14
9.99051e-15
9.16361e-15
8.11488e-15
7.10689e-15
6.17272e-15
5.31528e-15
4.53666e-15
3.83687e-15
3.21455e-15
2.66692e-15
2.19036e-15
1.78033e-15
1.43172e-15
1.13885e-15
8.9591e-16
6.97015e-16
5.36431e-16
4.08661e-16
3.08571e-16
2.31467e-16
1.73128e-16
1.29818e-16
9.8252e-17
8.13799e-17
6.76377e-17
5.52595e-17
4.4229e-17
3.45235e-17
2.61152e-17
1.89732e-17
1.30669e-17
8.37642e-18
4.8808e-18
2.42293e-18
9.03199e-19
1.91123e-19
1.14061e-14
1.15763e-14
1.18807e-14
1.24405e-14
1.3396e-14
1.48276e-14
1.67028e-14
1.89024e-14
2.12808e-14
2.37103e-14
2.41148e-14
2.45315e-14
2.50718e-14
2.56747e-14
2.63032e-14
2.69335e-14
2.75479e-14
2.81375e-14
2.86939e-14
2.92028e-14
2.96689e-14
3.00789e-14
3.04396e-14
3.07386e-14
3.09816e-14
3.116e-14
3.12733e-14
3.13295e-14
3.13269e-14
3.12653e-14
3.11363e-14
3.09499e-14
3.07058e-14
3.03973e-14
3.00343e-14
2.96103e-14
2.91351e-14
2.86035e-14
2.80251e-14
2.73956e-14
2.67187e-14
2.6003e-14
2.52508e-14
2.44653e-14
2.36454e-14
2.27985e-14
2.19251e-14
2.10322e-14
2.01207e-14
1.9198e-14
1.82648e-14
1.73276e-14
1.63877e-14
1.54511e-14
1.45193e-14
1.3596e-14
1.26861e-14
1.17912e-14
1.09144e-14
1.00595e-14
9.22879e-15
8.19388e-15
7.1784e-15
6.23679e-15
5.37236e-15
4.58669e-15
3.88004e-15
3.25136e-15
2.69803e-15
2.2163e-15
1.80173e-15
1.44913e-15
1.15281e-15
9.06943e-16
7.05597e-16
5.42994e-16
4.13589e-16
3.122e-16
2.34082e-16
1.74967e-16
1.31078e-16
9.90901e-17
8.1791e-17
6.79801e-17
5.55395e-17
4.4453e-17
3.4698e-17
2.62466e-17
1.9068e-17
1.31313e-17
8.41617e-18
4.90261e-18
2.43298e-18
9.06436e-19
1.91585e-19
1.13904e-14
1.15497e-14
1.18318e-14
1.23521e-14
1.32527e-14
1.46256e-14
1.64522e-14
1.86204e-14
2.09863e-14
2.34196e-14
2.40794e-14
2.44798e-14
2.50142e-14
2.56121e-14
2.6241e-14
2.68688e-14
2.74861e-14
2.80806e-14
2.86358e-14
2.91521e-14
2.9618e-14
3.003e-14
3.03934e-14
3.07022e-14
3.0957e-14
3.11473e-14
3.12731e-14
3.1334e-14
3.13294e-14
3.12657e-14
3.11359e-14
3.09493e-14
3.07053e-14
3.04047e-14
3.00487e-14
2.96313e-14
2.91623e-14
2.8643e-14
2.80739e-14
2.74537e-14
2.67859e-14
2.60738e-14
2.53211e-14
2.45311e-14
2.37073e-14
2.28576e-14
2.19848e-14
2.10915e-14
2.01827e-14
1.92589e-14
1.83245e-14
1.73859e-14
1.64465e-14
1.55076e-14
1.45734e-14
1.36489e-14
1.27372e-14
1.18413e-14
1.09643e-14
1.01078e-14
9.27534e-15
8.25468e-15
7.23406e-15
6.28676e-15
5.41683e-15
4.62577e-15
3.91417e-15
3.2808e-15
2.72299e-15
2.23718e-15
1.81897e-15
1.46316e-15
1.16409e-15
9.15876e-16
7.12577e-16
5.48351e-16
4.17626e-16
3.15184e-16
2.36243e-16
1.76498e-16
1.32138e-16
9.98075e-17
8.21461e-17
6.8276e-17
5.57814e-17
4.46465e-17
3.48487e-17
2.63602e-17
1.91499e-17
1.31869e-17
8.45054e-18
4.92144e-18
2.44165e-18
9.09229e-19
1.91984e-19
1.13777e-14
1.15286e-14
1.17933e-14
1.22821e-14
1.31374e-14
1.44603e-14
1.62438e-14
1.83824e-14
2.07311e-14
2.31589e-14
2.40266e-14
2.4407e-14
2.49244e-14
2.5516e-14
2.614e-14
2.6764e-14
2.73782e-14
2.79622e-14
2.85154e-14
2.90302e-14
2.95012e-14
2.99243e-14
3.02941e-14
3.0602e-14
3.08553e-14
3.10492e-14
3.11828e-14
3.12487e-14
3.12536e-14
3.11968e-14
3.10804e-14
3.09025e-14
3.06662e-14
3.0372e-14
3.0021e-14
2.96127e-14
2.91493e-14
2.86331e-14
2.80618e-14
2.74447e-14
2.67825e-14
2.60744e-14
2.53294e-14
2.45502e-14
2.37356e-14
2.28943e-14
2.20294e-14
2.11409e-14
2.02333e-14
1.93129e-14
1.83831e-14
1.74462e-14
1.65061e-14
1.55669e-14
1.46321e-14
1.37066e-14
1.27934e-14
1.18949e-14
1.10141e-14
1.01547e-14
9.31935e-15
8.30903e-15
7.28307e-15
6.33091e-15
5.456e-15
4.66013e-15
3.94397e-15
3.30633e-15
2.74472e-15
2.25545e-15
1.83408e-15
1.47549e-15
1.17399e-15
9.23709e-16
7.18669e-16
5.53011e-16
4.21126e-16
3.17761e-16
2.381e-16
1.77806e-16
1.33033e-16
1.00403e-16
8.24441e-17
6.85242e-17
5.59844e-17
4.48089e-17
3.49752e-17
2.64555e-17
1.92186e-17
1.32336e-17
8.47938e-18
4.93723e-18
2.44892e-18
9.11571e-19
1.92318e-19
1.13682e-14
1.1513e-14
1.17647e-14
1.22297e-14
1.305e-14
1.43339e-14
1.60841e-14
1.82011e-14
2.05423e-14
2.29699e-14
2.40113e-14
2.4374e-14
2.48871e-14
2.5477e-14
2.60968e-14
2.67265e-14
2.73406e-14
2.79273e-14
2.8483e-14
2.89943e-14
2.94646e-14
2.98861e-14
3.02559e-14
3.05734e-14
3.0834e-14
3.10298e-14
3.11669e-14
3.12461e-14
3.12666e-14
3.12196e-14
3.11062e-14
3.09331e-14
3.07005e-14
3.04113e-14
3.00664e-14
2.966e-14
2.91952e-14
2.86742e-14
2.8106e-14
2.74862e-14
2.68181e-14
2.61089e-14
2.53613e-14
2.45783e-14
2.37633e-14
2.29199e-14
2.20529e-14
2.11646e-14
2.02567e-14
1.93365e-14
1.84047e-14
1.74681e-14
1.65277e-14
1.55897e-14
1.46575e-14
1.37327e-14
1.28201e-14
1.19228e-14
1.10429e-14
1.01836e-14
9.34743e-15
8.34647e-15
7.31731e-15
6.36169e-15
5.48335e-15
4.68442e-15
3.96518e-15
3.32462e-15
2.76016e-15
2.2684e-15
1.84486e-15
1.48428e-15
1.18109e-15
9.29341e-16
7.23059e-16
5.56382e-16
4.23672e-16
3.19649e-16
2.39473e-16
1.78783e-16
1.33715e-16
1.0087e-16
8.26838e-17
6.87239e-17
5.61477e-17
4.49395e-17
3.50769e-17
2.65321e-17
1.92739e-17
1.32711e-17
8.50259e-18
4.94994e-18
2.45477e-18
9.13453e-19
1.92586e-19
1.13615e-14
1.1502e-14
1.17445e-14
1.21925e-14
1.29875e-14
1.42427e-14
1.59678e-14
1.80682e-14
2.04004e-14
2.2827e-14
2.39961e-14
2.43448e-14
2.48484e-14
2.5434e-14
2.60554e-14
2.66809e-14
2.72923e-14
2.78842e-14
2.84385e-14
2.89571e-14
2.94314e-14
2.98515e-14
3.02145e-14
3.05265e-14
3.07839e-14
3.09825e-14
3.11237e-14
3.12067e-14
3.12223e-14
3.11799e-14
3.10696e-14
3.09012e-14
3.06744e-14
3.0388e-14
3.00379e-14
2.96338e-14
2.91769e-14
2.86622e-14
2.80996e-14
2.74848e-14
2.68274e-14
2.6124e-14
2.53788e-14
2.45986e-14
2.37834e-14
2.29414e-14
2.20757e-14
2.11862e-14
2.02774e-14
1.93562e-14
1.84262e-14
1.74882e-14
1.65488e-14
1.56106e-14
1.46779e-14
1.37525e-14
1.28391e-14
1.194e-14
1.10589e-14
1.01991e-14
9.3621e-15
8.36903e-15
7.3388e-15
6.38152e-15
5.50119e-15
4.7003e-15
3.97922e-15
3.33688e-15
2.77074e-15
2.27738e-15
1.85232e-15
1.4904e-15
1.18601e-15
9.33267e-16
7.26141e-16
5.58758e-16
4.25469e-16
3.20984e-16
2.40444e-16
1.79475e-16
1.34197e-16
1.01198e-16
8.28643e-17
6.88743e-17
5.62707e-17
4.50379e-17
3.51536e-17
2.65898e-17
1.93155e-17
1.32994e-17
8.52007e-18
4.9595e-18
2.45917e-18
9.14869e-19
1.92787e-19
1.1357e-14
1.14945e-14
1.17308e-14
1.21672e-14
1.29446e-14
1.41791e-14
1.58855e-14
1.79717e-14
2.02967e-14
2.27209e-14
2.39788e-14
2.43234e-14
2.48231e-14
2.5406e-14
2.60269e-14
2.66531e-14
2.72661e-14
2.78602e-14
2.8423e-14
2.89419e-14
2.94182e-14
2.98407e-14
3.02129e-14
3.05315e-14
3.07881e-14
3.09904e-14
3.11275e-14
3.11993e-14
3.1214e-14
3.11701e-14
3.1059e-14
3.08881e-14
3.06598e-14
3.03665e-14
3.00162e-14
2.96118e-14
2.91475e-14
2.86311e-14
2.80663e-14
2.74551e-14
2.67986e-14
2.60958e-14
2.53558e-14
2.45812e-14
2.3774e-14
2.2935e-14
2.20713e-14
2.11837e-14
2.02766e-14
1.93561e-14
1.84258e-14
1.74893e-14
1.65512e-14
1.56149e-14
1.46822e-14
1.37569e-14
1.28436e-14
1.19453e-14
1.10643e-14
1.02042e-14
9.36789e-15
8.38042e-15
7.34919e-15
6.39133e-15
5.51064e-15
4.70888e-15
3.98693e-15
3.34364e-15
2.77659e-15
2.28231e-15
1.85644e-15
1.49379e-15
1.18876e-15
9.35445e-16
7.27843e-16
5.60058e-16
4.26444e-16
3.21698e-16
2.40953e-16
1.79826e-16
1.34428e-16
1.01343e-16
8.2985e-17
6.89748e-17
5.63529e-17
4.51037e-17
3.52048e-17
2.66284e-17
1.93434e-17
1.33183e-17
8.53177e-18
4.9659e-18
2.46211e-18
9.15816e-19
1.92922e-19
1.13546e-14
1.14904e-14
1.17233e-14
1.21531e-14
1.292e-14
1.41414e-14
1.58344e-14
1.79096e-14
2.02259e-14
2.26458e-14
2.39445e-14
2.42845e-14
2.47807e-14
2.53606e-14
2.59788e-14
2.66067e-14
2.72212e-14
2.78094e-14
2.83674e-14
2.88895e-14
2.93675e-14
2.97977e-14
3.01707e-14
3.04845e-14
3.07434e-14
3.09386e-14
3.10781e-14
3.11601e-14
3.11751e-14
3.11239e-14
3.10152e-14
3.08461e-14
3.06195e-14
3.03278e-14
2.99808e-14
2.9577e-14
2.91185e-14
2.86075e-14
2.80414e-14
2.74297e-14
2.67726e-14
2.60734e-14
2.53365e-14
2.45601e-14
2.37517e-14
2.29157e-14
2.20556e-14
2.11712e-14
2.02695e-14
1.9352e-14
1.84256e-14
1.74914e-14
1.65535e-14
1.56158e-14
1.46833e-14
1.376e-14
1.28474e-14
1.19491e-14
1.10683e-14
1.02087e-14
9.37256e-15
8.38868e-15
7.35734e-15
6.39888e-15
5.51725e-15