/*--------------------------------*- C++ -*----------------------------------*\
  =========                 |
  \\      /  F ield         | OpenFOAM: The Open Source CFD Toolbox
   \\    /   O peration     | Website:  https://openfoam.org
    \\  /    A nd           | Version:  7
     \\/     M anipulation  |
\*---------------------------------------------------------------------------*/
FoamFile
{
    version     2.0;
    format      ascii;
    class       volScalarField;
    location    "36000";
    object      strainRate;
}
// * * * * * * * * * * * * * * * * * * * * * * * * * * * * * * * * * * * * * //

dimensions      [0 0 -1 0 0 0 0];

internalField   nonuniform List<scalar> 
4782
(
0.088447
0.090079
0.0916944
0.0932935
0.0948761
0.0964423
0.0979923
0.0995259
0.101043
0.102544
0.00311215
0.0047725
0.00665399
0.00863141
0.0106385
0.0126532
0.0146728
0.0166987
0.0187321
0.0207723
0.0228179
0.024867
0.0269177
0.028968
0.0310163
0.0330608
0.0351003
0.0371333
0.0391588
0.0411757
0.0431831
0.0451802
0.0471662
0.0491405
0.0511024
0.0530515
0.0549872
0.0569092
0.058817
0.0607103
0.0625888
0.0644522
0.0663004
0.068133
0.0699499
0.071751
0.0735361
0.0753051
0.0770579
0.0787944
0.0805146
0.0822184
0.0839058
0.0855767
0.0872312
0.0888692
0.0904908
0.0920959
0.0936846
0.095257
0.0968131
0.0983528
0.0998764
0.101384
0.102875
0.0037411
0.00550451
0.007431
0.00941949
0.0114251
0.0134362
0.0154528
0.0174765
0.0195075
0.0215448
0.0235869
0.0256316
0.0276772
0.0297217
0.0317634
0.0338009
0.0358328
0.0378578
0.0398749
0.041883
0.0438813
0.045869
0.0478454
0.0498098
0.0517617
0.0537006
0.055626
0.0575375
0.0594347
0.0613174
0.0631851
0.0650378
0.0668751
0.0686969
0.0705029
0.0722931
0.0740672
0.0758253
0.0775672
0.0792928
0.0810021
0.082695
0.0843716
0.0860317
0.0876754
0.0893027
0.0909136
0.0925082
0.0940863
0.0956482
0.0971938
0.0987232
0.100236
0.101734
0.103215
0.00443805
0.00628012
0.00823545
0.0102285
0.0122315
0.0142394
0.0162536
0.0182751
0.0203036
0.0223379
0.024376
0.0264161
0.0284561
0.0304944
0.0325293
0.0345594
0.0365834
0.0386
0.0406083
0.0426074
0.0445963
0.0465743
0.0485407
0.050495
0.0524366
0.054365
0.0562798
0.0581805
0.0600669
0.0619387
0.0637955
0.0656371
0.0674633
0.0692739
0.0710688
0.0728478
0.0746108
0.0763578
0.0780885
0.079803
0.0815012
0.083183
0.0848485
0.0864976
0.0881303
0.0897467
0.0913467
0.0929304
0.0944978
0.096049
0.0975839
0.0991028
0.100605
0.102092
0.103563
0.00519798
0.00709729
0.00907055
0.0110656
0.0130668
0.0150732
0.0170863
0.0191067
0.0211335
0.0231651
0.0251997
0.0272353
0.0292701
0.0313023
0.0333305
0.0353533
0.0373694
0.0393778
0.0413773
0.0433672
0.0453466
0.0473148
0.0492712
0.0512152
0.0531463
0.055064
0.0569679
0.0588576
0.0607329
0.0625934
0.0644389
0.0662691
0.0680839
0.0698831
0.0716664
0.0734339
0.0751853
0.0769206
0.0786398
0.0803427
0.0820293
0.0836996
0.0853536
0.0869912
0.0886125
0.0902174
0.0918061
0.0933784
0.0949346
0.0964745
0.0979983
0.0995061
0.100998
0.102473
0.103933
0.00519749
0.00709699
0.0090704
0.0110655
0.0130668
0.0150733
0.0170864
0.0191068
0.0211335
0.0231652
0.0251998
0.0272354
0.0292702
0.0313024
0.0333306
0.0353534
0.0373695
0.0393778
0.0413774
0.0433672
0.0453466
0.0473148
0.0492712
0.0512152
0.0531463
0.055064
0.0569679
0.0588577
0.060733
0.0625935
0.0644389
0.0662692
0.0680839
0.0698831
0.0716664
0.0734339
0.0751853
0.0769206
0.0786398
0.0803427
0.0820293
0.0836996
0.0853536
0.0869912
0.0886125
0.0902174
0.0918061
0.0933785
0.0949346
0.0964746
0.0979984
0.0995061
0.100998
0.102473
0.103933
0.0044365
0.0062792
0.00823506
0.0102285
0.0122317
0.0142397
0.0162539
0.0182754
0.020304
0.0223382
0.0243764
0.0264164
0.0284564
0.0304947
0.0325296
0.0345597
0.0365836
0.0386003
0.0406085
0.0426076
0.0445964
0.0465744
0.0485409
0.0504952
0.0524367
0.0543651
0.0562799
0.0581806
0.060067
0.0619387
0.0637955
0.0656371
0.0674633
0.069274
0.0710689
0.0728479
0.0746109
0.0763578
0.0780885
0.079803
0.0815012
0.083183
0.0848485
0.0864976
0.0881303
0.0897467
0.0913467
0.0929304
0.0944978
0.096049
0.097584
0.0991028
0.100606
0.102092
0.103563
0.105018
0.106457
0.107881
0.109288
0.0037385
0.00550315
0.00743067
0.0094198
0.0114257
0.013437
0.0154536
0.0174772
0.0195082
0.0215455
0.0235875
0.0256322
0.0276777
0.0297222
0.0317639
0.0338014
0.0358332
0.0378582
0.0398752
0.0418833
0.0438816
0.0458693
0.0478457
0.0498101
0.0517619
0.0537008
0.0556262
0.0575376
0.0594348
0.0613175
0.0631852
0.0650379
0.0668752
0.0686969
0.0705029
0.0722931
0.0740672
0.0758253
0.0775672
0.0792928
0.0810021
0.082695
0.0843716
0.0860317
0.0876754
0.0893027
0.0909136
0.0925081
0.0940863
0.0956482
0.0971938
0.0987233
0.100237
0.101734
0.103215
0.10468
0.10613
0.107563
0.108981
0.110384
0.00310934
0.00477163
0.00665458
0.00863274
0.0106401
0.0126548
0.0146742
0.0167
0.0187333
0.0207734
0.0228189
0.0248679
0.0269185
0.0289688
0.031017
0.0330615
0.0351009
0.0371339
0.0391593
0.0411762
0.0431835
0.0451806
0.0471666
0.0491408
0.0511027
0.0530517
0.0549874
0.0569093
0.0588171
0.0607104
0.0625889
0.0644523
0.0663004
0.068133
0.0699499
0.071751
0.0735361
0.075305
0.0770578
0.0787943
0.0805145
0.0822183
0.0839056
0.0855766
0.087231
0.088869
0.0904906
0.0920957
0.0936844
0.0952568
0.0968129
0.0983527
0.0998762
0.101384
0.102875
0.10435
0.10581
0.107253
0.108681
0.110094
0.11149
0.112871
0.114237
0.115588
0.116923
0.118244
0.119549
0.12084
0.122116
0.123378
0.124625
0.125858
0.127076
0.128281
0.129471
0.130648
0.131811
0.132961
0.134097
0.135219
0.136329
0.137426
0.138509
0.13958
0.140638
0.141684
0.142718
0.143739
0.144748
0.145745
0.14673
0.147703
0.148665
0.149616
0.150555
0.00255613
0.00409448
0.00591415
0.00787174
0.0098774
0.0118953
0.0139178
0.015946
0.0179814
0.020024
0.0220727
0.0241257
0.026181
0.0282366
0.0302909
0.032342
0.0343886
0.0364293
0.0384628
0.0404881
0.0425042
0.0445103
0.0465055
0.0484893
0.0504609
0.0524198
0.0543655
0.0562976
0.0582156
0.0601192
0.0620081
0.063882
0.0657407
0.0675838
0.0694114
0.0712231
0.0730188
0.0747984
0.0765618
0.078309
0.0800397
0.0817541
0.083452
0.0851334
0.0867984
0.0884468
0.0900788
0.0916943
0.0932933
0.0948759
0.0964422
0.0979921
0.0995257
0.101043
0.102544
0.10403
0.105499
0.106952
0.10839
0.109812
0.111218
0.112608
0.113984
0.115343
0.116688
0.118018
0.119332
0.120632
0.121917
0.123187
0.124443
0.125684
0.126911
0.128124
0.129323
0.130508
0.131679
0.132837
0.133981
0.135111
0.136229
0.137333
0.138425
0.139503
0.140569
0.141622
0.142663
0.143691
0.144707
0.145711
0.146703
0.147684
0.148652
0.14961
0.150555
0.00208166
0.00347942
0.00521627
0.00714111
0.00914037
0.0111605
0.0131862
0.0152169
0.0172544
0.0192993
0.0213509
0.0234074
0.025467
0.0275277
0.0295876
0.0316451
0.0336985
0.0357464
0.0377876
0.0398209
0.0418455
0.0438602
0.0458644
0.0478573
0.0498383
0.0518067
0.0537621
0.055704
0.0576319
0.0595455
0.0614445
0.0633286
0.0651975
0.0670509
0.0688887
0.0707107
0.0725167
0.0743067
0.0760804
0.0778379
0.0795789
0.0813036
0.0830118
0.0847034
0.0863785
0.0880371
0.0896792
0.0913047
0.0929138
0.0945063
0.0960825
0.0976422
0.0991856
0.100713
0.102224
0.103719
0.105197
0.10666
0.108107
0.109538
0.110953
0.112353
0.113737
0.115106
0.11646
0.117798
0.119121
0.12043
0.121723
0.123002
0.124266
0.125516
0.126751
0.127972
0.129179
0.130372
0.131551
0.132717
0.133869
0.135007
0.136132
0.137244
0.138343
0.139428
0.140501
0.141562
0.14261
0.143645
0.144668
0.145679
0.146678
0.147665
0.14864
0.149604
0.150556
0.00168499
0.00293154
0.00456677
0.00644473
0.00843117
0.0104519
0.0124809
0.0145144
0.0165541
0.0186011
0.0206552
0.022715
0.0247785
0.0268438
0.0289091
0.0309724
0.0330322
0.035087
0.0371355
0.0391766
0.0412091
0.0432322
0.0452449
0.0472466
0.0492366
0.0512141
0.0531788
0.0551302
0.0570676
0.0589909
0.0608996
0.0627935
0.0646722
0.0665355
0.0683833
0.0702152
0.0720312
0.0738311
0.0756149
0.0773823
0.0791333
0.0808679
0.082586
0.0842875
0.0859725
0.0876409
0.0892927
0.090928
0.0925467
0.0941489
0.0957346
0.0973039
0.0988567
0.100393
0.101914
0.103418
0.104906
0.106377
0.107833
0.109273
0.110698
0.112106
0.113499
0.114877
0.116239
0.117586
0.118918
0.120235
0.121536
0.122823
0.124096
0.125353
0.126597
0.127826
0.12904
0.130241
0.131428
0.132601
0.13376
0.134906
0.136039
0.137158
0.138264
0.139357
0.140437
0.141504
0.142559
0.143601
0.144631
0.145648
0.146654
0.147647
0.148629
0.149599
0.150558
0.00135976
0.0024533
0.00397195
0.00578811
0.00775341
0.00977176
0.0118036
0.01384
0.0158819
0.017931
0.0199874
0.0220501
0.0241172
0.0261868
0.0282569
0.0303257
0.0323915
0.0344528
0.0365083
0.0385566
0.0405967
0.0426277
0.0446486
0.0466587
0.0486573
0.0506436
0.0526172
0.0545776
0.0565242
0.0584568
0.0603748
0.0622781
0.0641663
0.0660391
0.0678964
0.0697379
0.0715635
0.073373
0.0751664
0.0769434
0.078704
0.0804481
0.0821757
0.0838868
0.0855813
0.0872591
0.0889204
0.090565
0.092193
0.0938045
0.0953994
0.0969779
0.0985399
0.100085
0.101615
0.103128
0.104625
0.106105
0.10757
0.109019
0.110452
0.111869
0.11327
0.114656
0.116027
0.117382
0.118722
0.120046
0.121356
0.122651
0.123931
0.125197
0.126448
0.127685
0.128907
0.130115
0.131309
0.13249
0.133656
0.134809
0.135949
0.137075
0.138188
0.139287
0.140374
0.141448
0.14251
0.143558
0.144595
0.145619
0.146631
0.14763
0.148618
0.149595
0.150559
0.00109849
0.0020441
0.00343561
0.0051754
0.00710988
0.00912196
0.0111558
0.0131952
0.0152395
0.0172905
0.019349
0.0214143
0.0234846
0.025558
0.0276327
0.0297066
0.031778
0.0338454
0.0359074
0.0379626
0.04001
0.0420484
0.0440771
0.0460952
0.0481019
0.0500966
0.0520787
0.0540477
0.0560031
0.0579445
0.0598715
0.0617838
0.063681
0.065563
0.0674294
0.0692801
0.0711148
0.0729335
0.0747361
0.0765223
0.0782921
0.0800454
0.0817821
0.0835023
0.0852059
0.0868928
0.0885631
0.0902167
0.0918537
0.093474
0.0950778
0.096665
0.0982358
0.0997901
0.101328
0.10285
0.104355
0.105844
0.107317
0.108774
0.110215
0.111641
0.11305
0.114444
0.115823
0.117186
0.118533
0.119866
0.121184
0.122486
0.123774
0.125047
0.126305
0.127549
0.128779
0.129994
0.131195
0.132383
0.133556
0.134716
0.135862
0.136995
0.138115
0.139221
0.140315
0.141395
0.142463
0.143518
0.14456
0.145591
0.146608
0.147614
0.148608
0.14959
0.150561
0.000892565
0.00170074
0.00295964
0.00461004
0.00650328
0.00850417
0.0105386
0.012581
0.0146279
0.0166809
0.0187414
0.020809
0.0228822
0.0249592
0.027038
0.0291166
0.0311932
0.0332663
0.0353344
0.0373961
0.0394502
0.0414958
0.0435318
0.0455574
0.0475719
0.0495745
0.0515647
0.0535419
0.0555057
0.0574555
0.0593909
0.0613118
0.0632176
0.0651082
0.0669834
0.0688428
0.0706863
0.0725138
0.0743251
0.07612
0.0778986
0.0796607
0.0814062
0.0831351
0.0848473
0.0865429
0.0882218
0.089884
0.0915295
0.0931584
0.0947706
0.0963662
0.0979453
0.0995079
0.101054
0.102584
0.104097
0.105594
0.107076
0.108541
0.10999
0.111423
0.11284
0.114242
0.115628
0.116998
0.118354
0.119694
0.121019
0.122328
0.123623
0.124903
0.126169
0.12742
0.128656
0.129879
0.131087
0.132281
0.133461
0.134627
0.13578
0.136919
0.138045
0.139158
0.140258
0.141344
0.142418
0.143479
0.144528
0.145564
0.146587
0.147599
0.148599
0.149586
0.150562
0.00073142
0.00141651
0.00254382
0.00409537
0.00593718
0.00792105
0.00995401
0.0119991
0.0140485
0.0161036
0.0181659
0.0202356
0.0223114
0.0243916
0.0264741
0.028557
0.0306385
0.0327169
0.0347907
0.0368584
0.0389189
0.0409711
0.0430141
0.0450468
0.0470686
0.0490787
0.0510765
0.0530615
0.0550331
0.0569908
0.0589344
0.0608633
0.0627773
0.0646762
0.0665595
0.0684272
0.0702791
0.0721149
0.0739345
0.0757378
0.0775247
0.079295
0.0810488
0.082786
0.0845065
0.0862103
0.0878973
0.0895677
0.0912213
0.0928583
0.0944785
0.0960821
0.0976692
0.0992396
0.100794
0.102331
0.103852
0.105357
0.106846
0.108318
0.109775
0.111216
0.11264
0.114049
0.115443
0.11682
0.118183
0.11953
0.120862
0.122178
0.12348
0.124767
0.126039
0.127297
0.12854
0.129769
0.130983
0.132184
0.13337
0.134543
0.135702
0.136847
0.137979
0.139098
0.140204
0.141296
0.142376
0.143442
0.144497
0.145538
0.146568
0.147585
0.14859
0.149583
0.150564
0.000606368
0.00118439
0.00218585
0.00363281
0.00541399
0.00737456
0.00940344
0.0114505
0.0135026
0.0155597
0.0176237
0.0196952
0.0217734
0.0238564
0.0259424
0.0280292
0.0301152
0.0321985
0.0342775
0.0363509
0.0384173
0.0404758
0.0425251
0.0445645
0.0465932
0.0486103
0.0506153
0.0526076
0.0545866
0.0565518
0.0585029
0.0604395
0.0623612
0.0642678
0.066159
0.0680345
0.0698942
0.0717378
0.0735653
0.0753764
0.0771712
0.0789494
0.080711
0.082456
0.0841843
0.0858958
0.0875906
0.0892687
0.09093
0.0925745
0.0942024
0.0958135
0.0974081
0.098986
0.100547
0.102092
0.103621
0.105133
0.106629
0.108109
0.109572
0.11102
0.112451
0.113867
0.115268
0.116652
0.118021
0.119375
0.120713
0.122037
0.123345
0.124638
0.125917
0.127181
0.12843
0.129665
0.130886
0.132092
0.133285
0.134463
0.135628
0.136779
0.137917
0.139041
0.140152
0.14125
0.142336
0.143408
0.144467
0.145514
0.146549
0.147571
0.148581
0.149579
0.150566
0.000510403
0.000998039
0.00188271
0.00322231
0.00493486
0.00686578
0.0088877
0.0109361
0.0129907
0.01505
0.0171158
0.019189
0.0212692
0.0233548
0.0254439
0.0275344
0.0296244
0.0317122
0.0337961
0.0358747
0.0379466
0.0400108
0.0420662
0.0441118
0.0461469
0.0481706
0.0501823
0.0521813
0.0541672
0.0561395
0.0580977
0.0600415
0.0619704
0.0638842
0.0657827
0.0676655
0.0695326
0.0713836
0.0732184
0.0750369
0.076839
0.0786246
0.0803936
0.0821459
0.0838815
0.0856003
0.0873024
0.0889877
0.0906562
0.0923079
0.0939429
0.0955611
0.0971627
0.0987476
0.100316
0.101868
0.103403
0.104922
0.106425
0.107911
0.109381
0.110836
0.112274
0.113696
0.115103
0.116494
0.117869
0.119229
0.120574
0.121903
0.123218
0.124517
0.125802
0.127072
0.128327
0.129568
0.130794
0.132006
0.133204
0.134388
0.135559
0.136715
0.137858
0.138988
0.140104
0.141208
0.142298
0.143375
0.14444
0.145492
0.146531
0.147558
0.148573
0.149576
0.150567
0.000436548
0.000848951
0.00162844
0.00286263
0.0045014
0.00639693
0.00840866
0.0104572
0.0125143
0.0145757
0.0166432
0.018718
0.0208001
0.022888
0.0249798
0.0270736
0.0291673
0.0312591
0.0333475
0.0354309
0.0375079
0.0395775
0.0416384
0.0436898
0.0457307
0.0477605
0.0497784
0.0517838
0.0537762
0.055755
0.0577198
0.0596702
0.0616058
0.0635264
0.0654317
0.0673213
0.0691952
0.0710531
0.0728948
0.0747201
0.0765291
0.0783216
0.0800974
0.0818565
0.0835989
0.0853246
0.0870334
0.0887254
0.0904007
0.0920591
0.0937007
0.0953256
0.0969337
0.0985252
0.1001
0.101658
0.1032
0.104725
0.106234
0.107727
0.109204
0.110664
0.112108
0.113537
0.114949
0.116346
0.117728
0.119093
0.120444
0.121779
0.123099
0.124404
0.125694
0.12697
0.12823
0.129477
0.130708
0.131926
0.133129
0.134318
0.135494
0.136656
0.137804
0.138938
0.14006
0.141168
0.142263
0.143345
0.144414
0.145471
0.146515
0.147546
0.148566
0.149573
0.150569
0.000379576
0.000730151
0.00141711
0.00255107
0.00411369
0.00596927
0.00796771
0.0100151
0.0120744
0.0141378
0.0162069
0.0182832
0.0203669
0.0224568
0.0245511
0.0266478
0.0287448
0.0308404
0.0329328
0.0350206
0.0371023
0.0391767
0.0412427
0.0432994
0.0453458
0.0473812
0.0494048
0.051416
0.0534143
0.0553991
0.05737
0.0593265
0.0612684
0.0631952
0.0651067
0.0670027
0.0688829
0.0707471
0.0725951
0.0744269
0.0762422
0.078041
0.0798232
0.0815886
0.0833373
0.0850693
0.0867844
0.0884827
0.0901641
0.0918287
0.0934765
0.0951075
0.0967217
0.0983192
0.0999
0.101464
0.103012
0.104543
0.106058
0.107556
0.109039
0.110505
0.111955
0.113389
0.114807
0.11621
0.117596
0.118968
0.120323
0.121664
0.122989
0.1243
0.125595
0.126875
0.128141
0.129392
0.130629
0.131851
0.13306
0.134254
0.135434
0.1366
0.137753
0.138892
0.140018
0.141131
0.14223
0.143317
0.14439
0.145451
0.1465
0.147535
0.148559
0.14957
0.15057
0.00033559
0.000635935
0.00124309
0.00228431
0.003771
0.00558342
0.0075658
0.00961075
0.0116717
0.0137371
0.0158077
0.0178854
0.0199706
0.0220622
0.0241587
0.0262579
0.028358
0.0304569
0.032553
0.0346447
0.0367306
0.0388094
0.0408801
0.0429415
0.0449929
0.0470334
0.0490622
0.0510788
0.0530825
0.0550728
0.0570492
0.0590114
0.0609589
0.0628915
0.0648088
0.0667105
0.0685965
0.0704665
0.0723203
0.0741579
0.075979
0.0777836
0.0795716
0.0813429
0.0830974
0.0848351
0.0865559
0.0882599
0.089947
0.0916173
0.0932707
0.0949073
0.0965272
0.0981302
0.0997166
0.101286
0.102839
0.104376
0.105896
0.1074
0.108888
0.110359
0.111814
0.113253
0.114677
0.116084
0.117476
0.118852
0.120213
0.121558
0.122888
0.124204
0.125504
0.126789
0.128059
0.129315
0.130556
0.131783
0.132996
0.134194
0.135379
0.13655
0.137707
0.13885
0.13998
0.141097
0.1422
0.143291
0.144369
0.145433
0.146486
0.147525
0.148553
0.149568
0.150571
0.000301708
0.000561776
0.00110154
0.00205898
0.00347197
0.00523936
0.00720339
0.00924465
0.0113068
0.0133742
0.0154463
0.0175252
0.0196117
0.0217049
0.0238033
0.0259048
0.0280075
0.0301094
0.0322087
0.034304
0.0363936
0.0384765
0.0405513
0.0426171
0.044673
0.0467181
0.0487516
0.050773
0.0527816
0.0547768
0.0567583
0.0587256
0.0606782
0.062616
0.0645384
0.0664454
0.0683366
0.0702119
0.072071
0.0739139
0.0757403
0.0775501
0.0793434
0.0811199
0.0828796
0.0846226
0.0863486
0.0880578
0.0897501
0.0914255
0.0930841
0.0947258
0.0963506
0.0979587
0.0995501
0.101125
0.102683
0.104224
0.105749
0.107258
0.10875
0.110226
0.111686
0.11313
0.114558
0.11597
0.117367
0.118747
0.120113
0.121462
0.122797
0.124116
0.125421
0.12671
0.127985
0.129245
0.13049
0.131721
0.132938
0.13414
0.135329
0.136504
0.137665
0.138812
0.139946
0.141066
0.142173
0.143268
0.144349
0.145417
0.146473
0.147516
0.148547
0.149566
0.150572
0.000275639
0.000503724
0.000987552
0.00187108
0.00321466
0.00493685
0.00688104
0.00891752
0.0109805
0.0130497
0.0151233
0.0172033
0.019291
0.0213855
0.0234856
0.0255891
0.0276941
0.0297986
0.0319009
0.0339992
0.0360923
0.0381786
0.0402572
0.0423269
0.0443867
0.0464359
0.0484736
0.0504993
0.0525123
0.054512
0.0564979
0.0584698
0.060427
0.0623693
0.0642965
0.0662081
0.068104
0.069984
0.0718478
0.0736954
0.0755265
0.0773411
0.079139
0.0809203
0.0826847
0.0844323
0.086163
0.0878768
0.0895738
0.0912538
0.0929169
0.0945632
0.0961926
0.0978052
0.099401
0.10098
0.102543
0.104088
0.105618
0.107131
0.108627
0.110108
0.111572
0.11302
0.114452
0.115868
0.117269
0.118654
0.120023
0.121377
0.122715
0.124038
0.125347
0.12664
0.127918
0.129182
0.130431
0.131666
0.132886
0.134092
0.135284
0.136462
0.137627
0.138778
0.139915
0.141039
0.142149
0.143247
0.144331
0.145403
0.146462
0.147508
0.148542
0.149564
0.150573
0.000255531
0.000458302
0.000896244
0.00171616
0.00299674
0.00467554
0.00659937
0.00863028
0.0106936
0.0127644
0.0148393
0.0169204
0.019009
0.0211048
0.0232063
0.0253115
0.0274185
0.0295253
0.0316301
0.0337312
0.0358271
0.0379166
0.0399984
0.0420714
0.0441347
0.0461875
0.048229
0.0502584
0.0522752
0.0542788
0.0562687
0.0582445
0.0602058
0.0621522
0.0640834
0.0659992
0.0678992
0.0697833
0.0716513
0.073503
0.0753383
0.077157
0.0789591
0.0807445
0.082513
0.0842647
0.0859996
0.0877175
0.0894185
0.0911025
0.0927697
0.09442
0.0960534
0.0976699
0.0992697
0.100853
0.102419
0.103969
0.105502
0.107019
0.108519
0.110003
0.111471
0.112923
0.114359
0.115779
0.117183
0.118571
0.119944
0.121301
0.122643
0.12397
0.125281
0.126578
0.12786
0.129127
0.130379
0.131617
0.13284
0.13405
0.135245
0.136426
0.137594
0.138747
0.139888
0.141014
0.142128
0.143228
0.144316
0.14539
0.146452
0.147501
0.148538
0.149562
0.150574
0.000240082
0.000423006
0.000823926
0.0015904
0.00281563
0.00445443
0.00635849
0.00838346
0.0104468
0.0125188
0.0145949
0.016677
0.0187665
0.0208632
0.0229659
0.0250726
0.0271813
0.02929
0.0313969
0.0335003
0.0355988
0.0376909
0.0397754
0.0418514
0.0439177
0.0459736
0.0480182
0.0500509
0.052071
0.0540779
0.0560712
0.0580505
0.0600152
0.0619651
0.0638998
0.0658191
0.0677227
0.0696104
0.0714819
0.0733372
0.0751761
0.0769984
0.078804
0.080593
0.0823651
0.0841203
0.0858587
0.0875801
0.0892846
0.0909722
0.0926428
0.0942965
0.0959334
0.0975534
0.0991565
0.100743
0.102313
0.103866
0.105402
0.106922
0.108426
0.109913
0.111384
0.112839
0.114278
0.115701
0.117108
0.1185
0.119875
0.121236
0.122581
0.12391
0.125225
0.126524
0.127809
0.129079
0.130334
0.131575
0.132801
0.134013
0.135211
0.136395
0.137565
0.138721
0.139864
0.140993
0.142109
0.143212
0.144302
0.145379
0.146443
0.147495
0.148534
0.14956
0.150575
0.000228354
0.000395969
0.000767676
0.00149056
0.00266889
0.00427242
0.00615827
0.0081774
0.0102404
0.0123135
0.0143906
0.0164735
0.0185637
0.0206612
0.0227649
0.0248727
0.0269828
0.0290932
0.0312018
0.0333072
0.0354077
0.037502
0.0395889
0.0416673
0.0437361
0.0457946
0.0478418
0.0498772
0.0519
0.0539098
0.055906
0.0578881
0.0598557
0.0618085
0.0637462
0.0656684
0.067575
0.0694656
0.0713402
0.0731984
0.0750403
0.0768656
0.0786742
0.0804661
0.0822412
0.0839994
0.0857407
0.0874651
0.0891726
0.0908631
0.0925366
0.0941932
0.0958329
0.0974558
0.0990618
0.100651
0.102224
0.103779
0.105319
0.106841
0.108348
0.109838
0.111312
0.112769
0.114211
0.115636
0.117046
0.11844
0.119818
0.121181
0.122529
0.123861
0.125178
0.12648
0.127767
0.129039
0.130296
0.131539
0.132768
0.133982
0.135183
0.136369
0.137541
0.1387
0.139844
0.140976
0.142094
0.143199
0.144291
0.14537
0.146436
0.14749
0.14853
0.149559
0.150576
0.000219667
0.000375799
0.00072521
0.00141393
0.00255434
0.00412843
0.00599853
0.00801233
0.0100748
0.0121488
0.0142268
0.0163103
0.018401
0.0204992
0.0226036
0.0247125
0.0268237
0.0289352
0.0310453
0.0331522
0.0352544
0.0373505
0.0394392
0.0415195
0.0435903
0.0456508
0.0477002
0.0497378
0.0517628
0.0537748
0.0557732
0.0577576
0.0597276
0.0616828
0.0636228
0.0655474
0.0674563
0.0693494
0.0712263
0.073087
0.0749312
0.0767589
0.07857
0.0803643
0.0821417
0.0839023
0.085646
0.0873728
0.0890826
0.0907754
0.0924513
0.0941102
0.0957522
0.0973774
0.0989857
0.100577
0.102152
0.10371
0.105252
0.106777
0.108285
0.109777
0.111253
0.112713
0.114157
0.115584
0.116996
0.118392
0.119773
0.121137
0.122487
0.123821
0.12514
0.126444
0.127733
0.129007
0.130266
0.131511
0.132742
0.133958
0.13516
0.136348
0.137522
0.138682
0.139829
0.140962
0.142082
0.143188
0.144282
0.145362
0.14643
0.147485
0.148528
0.149558
0.150576
0.000213534
0.000361481
0.000694795
0.00135833
0.00247013
0.00402143
0.00587901
0.00788841
0.00995044
0.012025
0.0141036
0.0161876
0.0182788
0.0203775
0.0224825
0.024592
0.026704
0.0288165
0.0309277
0.0330357
0.0351391
0.0372365
0.0393267
0.0414084
0.0434807
0.0455428
0.0475937
0.0496329
0.0516596
0.0536733
0.0556734
0.0576596
0.0596313
0.0615882
0.06353
0.0654564
0.0673671
0.0692619
0.0711407
0.0730031
0.0748492
0.0766787
0.0784915
0.0802876
0.0820669
0.0838293
0.0855748
0.0873033
0.0890149
0.0907095
0.0923871
0.0940478
0.0956915
0.0973184
0.0989284
0.100522
0.102098
0.103658
0.105201
0.106728
0.108238
0.109732
0.111209
0.112671
0.114116
0.115545
0.116958
0.118356
0.119738
0.121104
0.122455
0.123791
0.125111
0.126417
0.127707
0.128983
0.130243
0.13149
0.132722
0.133939
0.135142
0.136332
0.137507
0.138669
0.139817
0.140951
0.142072
0.14318
0.144275
0.145357
0.146426
0.147482
0.148526
0.149557
0.150577
0.000209622
0.00035231
0.000675189
0.00132217
0.00241483
0.0039506
0.00579949
0.00780576
0.00986738
0.0119424
0.0140214
0.0161057
0.0181972
0.0202962
0.0224016
0.0245115
0.0266241
0.0287373
0.0308491
0.0329579
0.0350622
0.0371604
0.0392515
0.0413342
0.0434075
0.0454706
0.0475226
0.0495629
0.0515907
0.0536055
0.0556068
0.057594
0.0595669
0.061525
0.063468
0.0653956
0.0673075
0.0692035
0.0710835
0.0729471
0.0747944
0.0766251
0.0784391
0.0802364
0.0820169
0.0837805
0.0855272
0.0872569
0.0889697
0.0906654
0.0923442
0.0940061
0.095651
0.097279
0.0988902
0.100485
0.102062
0.103623
0.105167
0.106695
0.108206
0.109701
0.11118
0.112642
0.114089
0.115519
0.116933
0.118332
0.119715
0.121082
0.122434
0.123771
0.125092
0.126399
0.12769
0.128966
0.130228
0.131476
0.132708
0.133927
0.135131
0.136321
0.137498
0.13866
0.139809
0.140944
0.142066
0.143175
0.144271
0.145353
0.146423
0.14748
0.148525
0.149557
0.150577
0.000207722
0.00034784
0.000665592
0.00130437
0.00238744
0.00391535
0.00575978
0.00776442
0.00982582
0.011901
0.0139803
0.0160648
0.0181564
0.0202555
0.0223611
0.0244713
0.0265841
0.0286976
0.0308098
0.032919
0.0350236
0.0371223
0.0392138
0.041297
0.0433708
0.0454344
0.047487
0.0495278
0.0515562
0.0535715
0.0555734
0.0575612
0.0595347
0.0614934
0.063437
0.0653651
0.0672777
0.0691743
0.0710548
0.0729191
0.0747669
0.0765983
0.0784129
0.0802108
0.0819919
0.0837561
0.0855033
0.0872337
0.088947
0.0906434
0.0923227
0.0939852
0.0956307
0.0972593
0.098871
0.100466
0.102044
0.103606
0.10515
0.106679
0.108191
0.109686
0.111165
0.112628
0.114075
0.115506
0.116921
0.11832
0.119703
0.121071
0.122424
0.123761
0.125083
0.12639
0.127681
0.128958
0.130221
0.131468
0.132702
0.133921
0.135125
0.136316
0.137493
0.138656
0.139805
0.140941
0.142063
0.143172
0.144268
0.145351
0.146422
0.147479
0.148524
0.149556
0.150577
0.000207734
0.000347855
0.000665612
0.00130439
0.00238746
0.00391536
0.00575979
0.00776442
0.00982582
0.011901
0.0139803
0.0160647
0.0181564
0.0202555
0.0223611
0.0244713
0.0265841
0.0286976
0.0308097
0.0329189
0.0350236
0.0371223
0.0392138
0.041297
0.0433708
0.0454344
0.047487
0.0495278
0.0515561
0.0535715
0.0555733
0.0575612
0.0595347
0.0614934
0.0634369
0.0653651
0.0672776
0.0691743
0.0710548
0.0729191
0.0747669
0.0765982
0.0784129
0.0802108
0.0819919
0.083756
0.0855033
0.0872336
0.088947
0.0906433
0.0923227
0.0939852
0.0956307
0.0972592
0.098871
0.100466
0.102044
0.103606
0.10515
0.106679
0.108191
0.109686
0.111165
0.112628
0.114075
0.115506
0.116921
0.11832
0.119703
0.121071
0.122424
0.123761
0.125083
0.12639
0.127681
0.128958
0.130221
0.131468
0.132702
0.13392
0.135125
0.136316
0.137493
0.138656
0.139805
0.140941
0.142063
0.143172
0.144268
0.145351
0.146421
0.147479
0.148524
0.149556
0.150577
0.000209657
0.000352356
0.000675248
0.00132224
0.0024149
0.00395065
0.00579952
0.00780577
0.00986738
0.0119423
0.0140214
0.0161057
0.0181972
0.0202962
0.0224015
0.0245115
0.0266241
0.0287372
0.030849
0.0329579
0.0350621
0.0371604
0.0392514
0.0413341
0.0434074
0.0454705
0.0475225
0.0495628
0.0515906
0.0536054
0.0556067
0.057594
0.0595669
0.0615249
0.0634679
0.0653955
0.0673074
0.0692035
0.0710834
0.0729471
0.0747943
0.076625
0.0784391
0.0802364
0.0820168
0.0837804
0.0855271
0.0872568
0.0889696
0.0906653
0.0923442
0.094006
0.0956509
0.0972789
0.0988901
0.100484
0.102062
0.103623
0.105167
0.106695
0.108206
0.109701
0.11118
0.112642
0.114089
0.115519
0.116933
0.118332
0.119715
0.121082
0.122434
0.123771
0.125092
0.126399
0.12769
0.128966
0.130228
0.131475
0.132708
0.133927
0.135131
0.136321
0.137497
0.13866
0.139809
0.140944
0.142066
0.143175
0.14427
0.145353
0.146423
0.14748
0.148525
0.149557
0.150577
0.000213594
0.000361558
0.000694894
0.00135845
0.00247024
0.00402151
0.00587906
0.00788842
0.00995042
0.012025
0.0141036
0.0161876
0.0182788
0.0203774
0.0224824
0.0245919
0.0267039
0.0288164
0.0309276
0.0330356
0.0351391
0.0372364
0.0393266
0.0414083
0.0434806
0.0455427
0.0475936
0.0496328
0.0516595
0.0536732
0.0556733
0.0576595
0.0596312
0.0615881
0.0635299
0.0654563
0.067367
0.0692618
0.0711406
0.073003
0.0748491
0.0766786
0.0784914
0.0802875
0.0820668
0.0838292
0.0855747
0.0873032
0.0890148
0.0907094
0.092387
0.0940477
0.0956914
0.0973183
0.0989283
0.100522
0.102098
0.103658
0.105201
0.106728
0.108238
0.109732
0.111209
0.11267
0.114116
0.115545
0.116958
0.118356
0.119738
0.121104
0.122455
0.123791
0.125111
0.126417
0.127707
0.128982
0.130243
0.13149
0.132721
0.133939
0.135142
0.136332
0.137507
0.138669
0.139817
0.140951
0.142072
0.14318
0.144275
0.145357
0.146426
0.147482
0.148526
0.149557
0.150576
0.000219752
0.000375908
0.000725349
0.00141408
0.00255449
0.00412853
0.00599858
0.00801233
0.0100748
0.0121487
0.0142267
0.0163102
0.0184009
0.0204991
0.0226035
0.0247124
0.0268235
0.0289351
0.0310452
0.0331521
0.0352543
0.0373504
0.0394391
0.0415194
0.0435902
0.0456507
0.0477001
0.0497376
0.0517627
0.0537747
0.0557731
0.0577575
0.0597274
0.0616826
0.0636226
0.0655472
0.0674562
0.0693492
0.0712261
0.0730868
0.074931
0.0767587
0.0785698
0.0803641
0.0821416
0.0839022
0.0856459
0.0873726
0.0890824
0.0907752
0.0924511
0.09411
0.0957521
0.0973772
0.0989855
0.100577
0.102152
0.10371
0.105251
0.106776
0.108285
0.109777
0.111253
0.112713
0.114156
0.115584
0.116996
0.118392
0.119772
0.121137
0.122487
0.123821
0.12514
0.126444
0.127732
0.129007
0.130266
0.131511
0.132741
0.133957
0.135159
0.136347
0.137522
0.138682
0.139829
0.140962
0.142082
0.143188
0.144282
0.145362
0.14643
0.147485
0.148528
0.149558
0.150576
0.000228466
0.000396111
0.000767855
0.00149076
0.00266907
0.00427255
0.00615832
0.00817739
0.0102403
0.0123134
0.0143905
0.0164734
0.0185635
0.0206611
0.0227647
0.0248726
0.0269827
0.029093
0.0312017
0.033307
0.0354075
0.0375019
0.0395887
0.0416671
0.0437359
0.0457944
0.0478416
0.049877
0.0518998
0.0539096
0.0559057
0.0578878
0.0598555
0.0618083
0.063746
0.0656682
0.0675747
0.0694654
0.0713399
0.0731982
0.07504
0.0768653
0.078674
0.0804659
0.082241
0.0839992
0.0857405
0.0874649
0.0891723
0.0908628
0.0925364
0.094193
0.0958327
0.0974555
0.0990615
0.100651
0.102223
0.103779
0.105318
0.106841
0.108348
0.109838
0.111311
0.112769
0.11421
0.115636
0.117046
0.11844
0.119818
0.121181
0.122528
0.12386
0.125177
0.126479
0.127766
0.129039
0.130296
0.131539
0.132768
0.133982
0.135182
0.136368
0.137541
0.138699
0.139844
0.140976
0.142094
0.143199
0.144291
0.14537
0.146436
0.147489
0.14853
0.149559
0.150575
0.000240221
0.000423182
0.000824141
0.00159063
0.00281583
0.00445455
0.00635852
0.00838343
0.0104467
0.0125187
0.0145948
0.0166768
0.0187663
0.020863
0.0229657
0.0250724
0.027181
0.0292898
0.0313967
0.0335001
0.0355985
0.0376906
0.0397752
0.0418511
0.0439175
0.0459733
0.048018
0.0500506
0.0520707
0.0540777
0.056071
0.0580502
0.0600149
0.0619648
0.0638996
0.0658188
0.0677224
0.0696101
0.0714816
0.0733369
0.0751758
0.0769981
0.0788037
0.0805927
0.0823648
0.08412
0.0858584
0.0875798
0.0892843
0.0909719
0.0926425
0.0942962
0.0959331
0.097553
0.0991562
0.100743
0.102312
0.103865
0.105402
0.106922
0.108426
0.109913
0.111384
0.112839
0.114278
0.115701
0.117108
0.118499
0.119875
0.121235
0.12258
0.12391
0.125225
0.126524
0.127809
0.129078
0.130334
0.131574
0.132801
0.134013
0.135211
0.136395