/*--------------------------------*- C++ -*----------------------------------*\
  =========                 |
  \\      /  F ield         | OpenFOAM: The Open Source CFD Toolbox
   \\    /   O peration     | Website:  https://openfoam.org
    \\  /    A nd           | Version:  7
     \\/     M anipulation  |
\*---------------------------------------------------------------------------*/
FoamFile
{
    version     2.0;
    format      ascii;
    class       volScalarField;
    location    "220000";
    object      nut;
}
// * * * * * * * * * * * * * * * * * * * * * * * * * * * * * * * * * * * * * //

dimensions      [0 2 -1 0 0 0 0];

internalField   nonuniform List<scalar> 
4814
(
4.67722e-06
4.69991e-06
4.72049e-06
4.73892e-06
4.01639e-06
4.06107e-06
4.10386e-06
4.14545e-06
4.18582e-06
4.22491e-06
4.26264e-06
4.29895e-06
4.33374e-06
4.36693e-06
4.39846e-06
4.42825e-06
4.45623e-06
4.48233e-06
4.50648e-06
4.52864e-06
4.54875e-06
4.56675e-06
4.5826e-06
4.59625e-06
4.60769e-06
4.61687e-06
4.62377e-06
4.62838e-06
4.63069e-06
4.63069e-06
4.62838e-06
4.62377e-06
4.61687e-06
4.60769e-06
4.59625e-06
4.5826e-06
4.56675e-06
4.54875e-06
3.85968e-06
3.90317e-06
3.94484e-06
3.98536e-06
4.02469e-06
4.06279e-06
4.09957e-06
4.13495e-06
4.16887e-06
4.20125e-06
4.23199e-06
4.26105e-06
4.28834e-06
4.3138e-06
4.33737e-06
4.35899e-06
4.37861e-06
4.39617e-06
4.41164e-06
4.42497e-06
4.43613e-06
4.44509e-06
4.45183e-06
4.45633e-06
4.45858e-06
4.45858e-06
4.45633e-06
4.45183e-06
4.44509e-06
4.43613e-06
4.42497e-06
4.41164e-06
4.39617e-06
4.37861e-06
4.35899e-06
4.33737e-06
4.3138e-06
4.28834e-06
4.26104e-06
4.23199e-06
4.20124e-06
3.70476e-06
3.74704e-06
3.78759e-06
3.82703e-06
3.86531e-06
3.9024e-06
3.93822e-06
3.97269e-06
4.00573e-06
4.03726e-06
4.06722e-06
4.09553e-06
4.12213e-06
4.14695e-06
4.16993e-06
4.191e-06
4.21013e-06
4.22726e-06
4.24234e-06
4.25534e-06
4.26622e-06
4.27496e-06
4.28153e-06
4.28592e-06
4.28811e-06
4.28811e-06
4.28592e-06
4.28153e-06
4.27496e-06
4.26622e-06
4.25534e-06
4.24234e-06
4.22726e-06
4.21013e-06
4.191e-06
4.16993e-06
4.14695e-06
4.12213e-06
4.09553e-06
4.06722e-06
4.03726e-06
4.00573e-06
3.97268e-06
3.93822e-06
3.55166e-06
3.59274e-06
3.63216e-06
3.6705e-06
3.70773e-06
3.74381e-06
3.77866e-06
3.8122e-06
3.84436e-06
3.87505e-06
3.90421e-06
3.93178e-06
3.95767e-06
3.98184e-06
4.00422e-06
4.02475e-06
4.04338e-06
4.06006e-06
4.07475e-06
4.08742e-06
4.09802e-06
4.10653e-06
4.11293e-06
4.11721e-06
4.11935e-06
4.11935e-06
4.11721e-06
4.11293e-06
4.10653e-06
4.09802e-06
4.08742e-06
4.07475e-06
4.06006e-06
4.04338e-06
4.02475e-06
4.00422e-06
3.98184e-06
3.95767e-06
3.93178e-06
3.90421e-06
3.87505e-06
3.84435e-06
3.8122e-06
3.77866e-06
3.40047e-06
3.44034e-06
3.47862e-06
3.51585e-06
3.55203e-06
3.58708e-06
3.62095e-06
3.65356e-06
3.68482e-06
3.71467e-06
3.74303e-06
3.76983e-06
3.79502e-06
3.81854e-06
3.84031e-06
3.86028e-06
3.87841e-06
3.89465e-06
3.90895e-06
3.92127e-06
3.93159e-06
3.93988e-06
3.94611e-06
3.95027e-06
3.95236e-06
3.95235e-06
3.95027e-06
3.94611e-06
3.93988e-06
3.93159e-06
3.92127e-06
3.90895e-06
3.89465e-06
3.87841e-06
3.86028e-06
3.84031e-06
3.81854e-06
3.79502e-06
3.76983e-06
3.74303e-06
3.71467e-06
3.68482e-06
3.65356e-06
3.62095e-06
3.25125e-06
3.28989e-06
3.32702e-06
3.36315e-06
3.39825e-06
3.43228e-06
3.46517e-06
3.49683e-06
3.52719e-06
3.55618e-06
3.58373e-06
3.60978e-06
3.63425e-06
3.6571e-06
3.67826e-06
3.69768e-06
3.7153e-06
3.73109e-06
3.74499e-06
3.75697e-06
3.76701e-06
3.77506e-06
3.78112e-06
3.78517e-06
3.78719e-06
3.78719e-06
3.78517e-06
3.78112e-06
3.77506e-06
3.76701e-06
3.75697e-06
3.74499e-06
3.73109e-06
3.7153e-06
3.69768e-06
3.67826e-06
3.6571e-06
3.63425e-06
3.60978e-06
3.58373e-06
3.55618e-06
3.52719e-06
3.49683e-06
3.46517e-06
3.10406e-06
3.14148e-06
3.17745e-06
3.21246e-06
3.24649e-06
3.27948e-06
3.31137e-06
3.34208e-06
3.37154e-06
3.39967e-06
3.4264e-06
3.45168e-06
3.47543e-06
3.49761e-06
3.51816e-06
3.53701e-06
3.55412e-06
3.56945e-06
3.58295e-06
3.59459e-06
3.60433e-06
3.61216e-06
3.61804e-06
3.62197e-06
3.62394e-06
3.62394e-06
3.62197e-06
3.61804e-06
3.61216e-06
3.60433e-06
3.59459e-06
3.58295e-06
3.56945e-06
3.55412e-06
3.53701e-06
3.51816e-06
3.49761e-06
3.47543e-06
3.45167e-06
3.4264e-06
3.39967e-06
3.37154e-06
3.34208e-06
3.31137e-06
3.27948e-06
2.95898e-06
2.99516e-06
3.02997e-06
3.06386e-06
3.0968e-06
3.12875e-06
3.15965e-06
3.1894e-06
3.21794e-06
3.24519e-06
3.2711e-06
3.2956e-06
3.31864e-06
3.34014e-06
3.36006e-06
3.37834e-06
3.39494e-06
3.40981e-06
3.4229e-06
3.43419e-06
3.44365e-06
3.45124e-06
3.45695e-06
3.46076e-06
3.46267e-06
3.46267e-06
3.46076e-06
3.45695e-06
3.45124e-06
3.44365e-06
3.43419e-06
3.4229e-06
3.40981e-06
3.39494e-06
3.37834e-06
3.36006e-06
3.34014e-06
3.31863e-06
3.2956e-06
3.2711e-06
3.24519e-06
3.21794e-06
3.1894e-06
3.15964e-06
3.12875e-06
2.81608e-06
2.85102e-06
2.88466e-06
2.91742e-06
2.94927e-06
2.98017e-06
3.01006e-06
3.03884e-06
3.06646e-06
3.09284e-06
3.11792e-06
3.14164e-06
3.16394e-06
3.18476e-06
3.20406e-06
3.22176e-06
3.23784e-06
3.25224e-06
3.26493e-06
3.27587e-06
3.28503e-06
3.29239e-06
3.29792e-06
3.30161e-06
3.30346e-06
3.30346e-06
3.30161e-06
3.29792e-06
3.29238e-06
3.28503e-06
3.27587e-06
3.26493e-06
3.25224e-06
3.23784e-06
3.22176e-06
3.20406e-06
3.18476e-06
3.16394e-06
3.14164e-06
3.11792e-06
3.09284e-06
3.06646e-06
3.03884e-06
3.01006e-06
2.98017e-06
2.67544e-06
2.70914e-06
2.7416e-06
2.77322e-06
2.80397e-06
2.83382e-06
2.86269e-06
2.89051e-06
2.9172e-06
2.94269e-06
2.96693e-06
2.98986e-06
3.01143e-06
3.03157e-06
3.05022e-06
3.06735e-06
3.08291e-06
3.09684e-06
3.10912e-06
3.1197e-06
3.12856e-06
3.13568e-06
3.14103e-06
3.14461e-06
3.1464e-06
3.14639e-06
3.14461e-06
3.14103e-06
3.13568e-06
3.12856e-06
3.1197e-06
3.10912e-06
3.09684e-06
3.08291e-06
3.06735e-06
3.05022e-06
3.03157e-06
3.01143e-06
2.98986e-06
2.96693e-06
2.94269e-06
2.9172e-06
2.89051e-06
2.86269e-06
2.83382e-06
2.53715e-06
2.5696e-06
2.60088e-06
2.63135e-06
2.661e-06
2.68979e-06
2.71764e-06
2.74448e-06
2.77023e-06
2.79483e-06
2.81823e-06
2.84037e-06
2.86119e-06
2.88064e-06
2.89866e-06
2.9152e-06
2.93022e-06
2.94368e-06
2.95554e-06
2.96577e-06
2.97433e-06
2.98121e-06
2.98638e-06
2.98984e-06
2.99156e-06
2.99156e-06
2.98984e-06
2.98638e-06
2.98121e-06
2.97433e-06
2.96577e-06
2.95554e-06
2.94368e-06
2.93022e-06
2.9152e-06
2.89866e-06
2.88064e-06
2.86119e-06
2.84037e-06
2.81823e-06
2.79483e-06
2.77023e-06
2.74448e-06
2.71764e-06
2.40128e-06
2.43248e-06
2.46257e-06
2.4919e-06
2.52044e-06
2.54816e-06
2.57498e-06
2.60084e-06
2.62565e-06
2.64935e-06
2.6719e-06
2.69324e-06
2.71331e-06
2.73206e-06
2.74944e-06
2.7654e-06
2.77989e-06
2.79287e-06
2.80431e-06
2.81418e-06
2.82244e-06
2.82907e-06
2.83406e-06
2.83739e-06
2.83906e-06
2.83906e-06
2.83739e-06
2.83406e-06
2.82907e-06
2.82244e-06
2.81418e-06
2.80431e-06
2.79287e-06
2.77989e-06
2.7654e-06
2.74944e-06
2.73206e-06
2.71331e-06
2.69324e-06
2.6719e-06
2.64935e-06
2.62565e-06
2.60083e-06
2.57498e-06
2.26795e-06
2.29789e-06
2.32678e-06
2.35495e-06
2.38239e-06
2.40903e-06
2.43482e-06
2.45968e-06
2.48355e-06
2.50635e-06
2.52805e-06
2.54858e-06
2.5679e-06
2.58595e-06
2.60268e-06
2.61804e-06
2.63199e-06
2.64449e-06
2.65551e-06
2.66502e-06
2.67297e-06
2.67936e-06
2.68417e-06
2.68738e-06
2.68899e-06
2.68899e-06
2.68738e-06
2.68417e-06
2.67936e-06
2.67297e-06
2.66502e-06
2.65551e-06
2.64449e-06
2.63199e-06
2.61804e-06
2.60268e-06
2.58595e-06
2.5679e-06
2.54858e-06
2.52805e-06
2.50635e-06
2.48355e-06
2.45968e-06
2.43482e-06
2.13723e-06
2.16591e-06
2.19361e-06
2.22062e-06
2.24693e-06
2.2725e-06
2.29725e-06
2.32112e-06
2.34403e-06
2.36593e-06
2.38677e-06
2.40649e-06
2.42505e-06
2.44239e-06
2.45847e-06
2.47323e-06
2.48664e-06
2.49866e-06
2.50926e-06
2.51839e-06
2.52604e-06
2.53219e-06
2.53681e-06
2.5399e-06
2.54144e-06
2.54144e-06
2.53989e-06
2.53681e-06
2.53219e-06
2.52604e-06
2.51839e-06
2.50926e-06
2.49866e-06
2.48664e-06
2.47323e-06
2.45847e-06
2.44239e-06
2.42505e-06
2.40649e-06
2.38677e-06
2.36593e-06
2.34403e-06
2.32112e-06
2.29725e-06
2.00923e-06
2.03665e-06
2.06314e-06
2.08899e-06
2.11419e-06
2.13867e-06
2.16238e-06
2.18525e-06
2.2072e-06
2.22819e-06
2.24816e-06
2.26707e-06
2.28487e-06
2.3015e-06
2.31692e-06
2.33108e-06
2.34395e-06
2.35548e-06
2.36565e-06
2.37441e-06
2.38176e-06
2.38766e-06
2.39209e-06
2.39505e-06
2.39653e-06
2.39653e-06
2.39505e-06
2.39209e-06
2.38766e-06
2.38176e-06
2.37441e-06
2.36565e-06
2.35548e-06
2.34395e-06
2.33108e-06
2.31692e-06
2.3015e-06
2.28487e-06
2.26707e-06
2.24816e-06
2.22819e-06
2.2072e-06
2.18525e-06
2.16238e-06
1.88405e-06
1.91021e-06
1.9355e-06
1.96019e-06
1.98425e-06
2.00765e-06
2.03032e-06
2.05218e-06
2.07317e-06
2.09324e-06
2.11235e-06
2.13044e-06
2.14747e-06
2.16339e-06
2.17815e-06
2.19171e-06
2.20403e-06
2.21507e-06
2.2248e-06
2.2332e-06
2.24023e-06
2.24588e-06
2.25013e-06
2.25296e-06
2.25438e-06
2.25438e-06
2.25296e-06
2.25013e-06
2.24588e-06
2.24023e-06
2.2332e-06
2.2248e-06
2.21507e-06
2.20403e-06
2.19171e-06
2.17815e-06
2.16339e-06
2.14747e-06
2.13044e-06
2.11235e-06
2.09324e-06
2.07317e-06
2.05218e-06
2.03032e-06
1.7618e-06
1.7867e-06
1.81079e-06
1.83431e-06
1.85725e-06
1.87956e-06
1.90118e-06
1.92203e-06
1.94206e-06
1.96121e-06
1.97945e-06
1.99672e-06
2.01297e-06
2.02817e-06
2.04227e-06
2.05522e-06
2.06699e-06
2.07754e-06
2.08684e-06
2.09487e-06
2.10159e-06
2.10699e-06
2.11105e-06
2.11376e-06
2.11511e-06
2.11511e-06
2.11376e-06
2.11105e-06
2.10699e-06
2.10159e-06
2.09487e-06
2.08684e-06
2.07754e-06
2.06699e-06
2.05522e-06
2.04227e-06
2.02817e-06
2.01297e-06
1.99672e-06
1.97945e-06
1.96121e-06
1.94206e-06
1.92203e-06
1.90118e-06
1.6426e-06
1.66624e-06
1.68913e-06
1.71148e-06
1.73329e-06
1.75451e-06
1.77508e-06
1.79492e-06
1.81398e-06
1.83221e-06
1.84957e-06
1.86602e-06
1.88151e-06
1.89599e-06
1.90942e-06
1.92176e-06
1.93298e-06
1.94303e-06
1.9519e-06
1.95955e-06
1.96596e-06
1.9711e-06
1.97497e-06
1.97756e-06
1.97885e-06
1.97885e-06
1.97756e-06
1.97497e-06
1.9711e-06
1.96596e-06
1.95955e-06
1.9519e-06
1.94303e-06
1.93298e-06
1.92176e-06
1.90942e-06
1.89599e-06
1.88151e-06
1.86602e-06
1.84957e-06
1.83221e-06
1.81398e-06
1.79492e-06
1.77508e-06
1.52657e-06
1.54894e-06
1.57063e-06
1.59182e-06
1.6125e-06
1.63263e-06
1.65214e-06
1.67098e-06
1.68907e-06
1.70638e-06
1.72286e-06
1.73848e-06
1.7532e-06
1.76695e-06
1.77972e-06
1.79145e-06
1.80211e-06
1.81167e-06
1.8201e-06
1.82737e-06
1.83347e-06
1.83836e-06
1.84204e-06
1.8445e-06
1.84573e-06
1.84573e-06
1.8445e-06
1.84204e-06
1.83836e-06
1.83347e-06
1.82737e-06
1.8201e-06
1.81167e-06
1.80211e-06
1.79145e-06
1.77972e-06
1.76695e-06
1.7532e-06
1.73848e-06
1.72286e-06
1.70638e-06
1.68907e-06
1.67098e-06
1.65214e-06
1.41381e-06
1.43494e-06
1.45542e-06
1.47545e-06
1.495e-06
1.51404e-06
1.53251e-06
1.55033e-06
1.56745e-06
1.58384e-06
1.59945e-06
1.61424e-06
1.62818e-06
1.64121e-06
1.65331e-06
1.66443e-06
1.67453e-06
1.6836e-06
1.69159e-06
1.69849e-06
1.70426e-06
1.70891e-06
1.7124e-06
1.71472e-06
1.71589e-06
1.71589e-06
1.71472e-06
1.7124e-06
1.70891e-06
1.70426e-06
1.69849e-06
1.69159e-06
1.6836e-06
1.67453e-06
1.66443e-06
1.65331e-06
1.64121e-06
1.62818e-06
1.61424e-06
1.59945e-06
1.58384e-06
1.56745e-06
1.55033e-06
1.53251e-06
1.30447e-06
1.32435e-06
1.34364e-06
1.36251e-06
1.38094e-06
1.39889e-06
1.4163e-06
1.43311e-06
1.44927e-06
1.46473e-06
1.47947e-06
1.49344e-06
1.5066e-06
1.51891e-06
1.53034e-06
1.54084e-06
1.55039e-06
1.55896e-06
1.56651e-06
1.57303e-06
1.57849e-06
1.58288e-06
1.58618e-06
1.58838e-06
1.58949e-06
1.58949e-06
1.58838e-06
1.58618e-06
1.58288e-06
1.57849e-06
1.57303e-06
1.56651e-06
1.55896e-06
1.55039e-06
1.54084e-06
1.53034e-06
1.51891e-06
1.5066e-06
1.49344e-06
1.47947e-06
1.46473e-06
1.44927e-06
1.43311e-06
1.4163e-06
1.39889e-06
1.19866e-06
1.2173e-06
1.2354e-06
1.25312e-06
1.27043e-06
1.2873e-06
1.30367e-06
1.31947e-06
1.33466e-06
1.34921e-06
1.36307e-06
1.37621e-06
1.3886e-06
1.40019e-06
1.41095e-06
1.42084e-06
1.42984e-06
1.43791e-06
1.44502e-06
1.45117e-06
1.45631e-06
1.46045e-06
1.46356e-06
1.46563e-06
1.46667e-06
1.46667e-06
1.46563e-06
1.46356e-06
1.46045e-06
1.45631e-06
1.45117e-06
1.44502e-06
1.43791e-06
1.42984e-06
1.42084e-06
1.41095e-06
1.40019e-06
1.3886e-06
1.37621e-06
1.36307e-06
1.34921e-06
1.33466e-06
1.31947e-06
1.30367e-06
1.2873e-06
1.09651e-06
1.11393e-06
1.13086e-06
1.14743e-06
1.16363e-06
1.17942e-06
1.19474e-06
1.20955e-06
1.22378e-06
1.23741e-06
1.2504e-06
1.26272e-06
1.27434e-06
1.28521e-06
1.2953e-06
1.30459e-06
1.31303e-06
1.3206e-06
1.32728e-06
1.33305e-06
1.33788e-06
1.34176e-06
1.34468e-06
1.34663e-06
1.3476e-06
1.3476e-06
1.34663e-06
1.34468e-06
1.34176e-06
1.33788e-06
1.33305e-06
1.32728e-06
1.3206e-06
1.31303e-06
1.30459e-06
1.2953e-06
1.28521e-06
1.27434e-06
1.26272e-06
1.2504e-06
1.23741e-06
1.22378e-06
1.20955e-06
1.19474e-06
1.17942e-06
9.98161e-07
1.01437e-06
1.03012e-06
1.04556e-06
1.06066e-06
1.07538e-06
1.08968e-06
1.10349e-06
1.11677e-06
1.12949e-06
1.14162e-06
1.15312e-06
1.16397e-06
1.17413e-06
1.18356e-06
1.19223e-06
1.20012e-06
1.2072e-06
1.21345e-06
1.21884e-06
1.22336e-06
1.22699e-06
1.22972e-06
1.23154e-06
1.23245e-06
1.23245e-06
1.23154e-06
1.22972e-06
1.22699e-06
1.22336e-06
1.21884e-06
1.21345e-06
1.2072e-06
1.20012e-06
1.19223e-06
1.18356e-06
1.17413e-06
1.16397e-06
1.15312e-06
1.14162e-06
1.12949e-06
1.11677e-06
1.10349e-06
1.08968e-06
1.07538e-06
9.0369e-07
9.18704e-07
9.33318e-07
9.4764e-07
9.61655e-07
9.75325e-07
9.88605e-07
1.00144e-06
1.01377e-06
1.02559e-06
1.03686e-06
1.04756e-06
1.05765e-06
1.0671e-06
1.07587e-06
1.08394e-06
1.09128e-06
1.09787e-06
1.10369e-06
1.10871e-06
1.11291e-06
1.1163e-06
1.11884e-06
1.12053e-06
1.12138e-06
1.12138e-06
1.12053e-06
1.11884e-06
1.1163e-06
1.11291e-06
1.10871e-06
1.10369e-06
1.09787e-06
1.09128e-06
1.08394e-06
1.07587e-06
1.0671e-06
1.05765e-06
1.04756e-06
1.03686e-06
1.02559e-06
1.01377e-06
1.00144e-06
9.88605e-07
8.13067e-07
8.26932e-07
8.4044e-07
8.53687e-07
8.66656e-07
8.79313e-07
8.91615e-07
9.03504e-07
9.1491e-07
9.25839e-07
9.36269e-07
9.4617e-07
9.5551e-07
9.64257e-07
9.72383e-07
9.7986e-07
9.86663e-07
9.9277e-07
9.98159e-07
1.00281e-06
1.00671e-06
1.00985e-06
1.0122e-06
1.01378e-06
1.01456e-06
1.01456e-06
1.01378e-06
1.0122e-06
1.00985e-06
1.00671e-06
1.00281e-06
9.98159e-07
9.9277e-07
9.86663e-07
9.7986e-07
9.72383e-07
9.64257e-07
9.5551e-07
9.4617e-07
9.36269e-07
9.25838e-07
9.14909e-07
9.03504e-07
8.91614e-07
7.2564e-07
7.38487e-07
7.51021e-07
7.63324e-07
7.75378e-07
7.87148e-07
7.98595e-07
8.09651e-07
8.20158e-07
8.3023e-07
8.39846e-07
8.48978e-07
8.57594e-07
8.65666e-07
8.73167e-07
8.80071e-07
8.86354e-07
8.91995e-07
8.96974e-07
9.01274e-07
9.04879e-07
9.07776e-07
9.09951e-07
9.11399e-07
9.12124e-07
9.12124e-07
9.11399e-07
9.09951e-07
9.07776e-07
9.04879e-07
9.01273e-07
8.96974e-07
8.91995e-07
8.86354e-07
8.80071e-07
8.73167e-07
8.65666e-07
8.57594e-07
8.48977e-07
8.39846e-07
8.3023e-07
8.20158e-07
8.09651e-07
7.98595e-07
6.35511e-07
6.48282e-07
6.60782e-07
6.73055e-07
6.85079e-07
6.96819e-07
7.08238e-07
7.19172e-07
7.28882e-07
7.38194e-07
7.47091e-07
7.55543e-07
7.63521e-07
7.70999e-07
7.7795e-07
7.8435e-07
7.90176e-07
7.95408e-07
8.00027e-07
8.04017e-07
8.07363e-07
8.10052e-07
8.1206e-07
8.1339e-07
8.14055e-07
8.14055e-07
8.1339e-07
8.1206e-07
8.10052e-07
8.07363e-07
8.04017e-07
8.00027e-07
7.95408e-07
7.90176e-07
7.8435e-07
7.7795e-07
7.70999e-07
7.63521e-07
7.55543e-07
7.47091e-07
7.38194e-07
7.28881e-07
7.19172e-07
7.08237e-07
5.49209e-07
5.60811e-07
5.72181e-07
5.83354e-07
5.94311e-07
6.05017e-07
6.15437e-07
6.25519e-07
6.35174e-07
6.44439e-07
6.53289e-07
6.61696e-07
6.69631e-07
6.77068e-07
6.83979e-07
6.90342e-07
6.96133e-07
7.01333e-07
7.05924e-07
7.09889e-07
7.13214e-07
7.15886e-07
7.17811e-07
7.19034e-07
7.19647e-07
7.19647e-07
7.19034e-07
7.17811e-07
7.15886e-07
7.13214e-07
7.09888e-07
7.05924e-07
7.01333e-07
6.96133e-07
6.90342e-07
6.83979e-07
6.77068e-07
6.69631e-07
6.61696e-07
6.53289e-07
6.44439e-07
6.35174e-07
6.25519e-07
6.15437e-07
4.67893e-07
4.78305e-07
4.88523e-07
4.98577e-07
5.08444e-07
5.18094e-07
5.27495e-07
5.366e-07
5.4533e-07
5.53714e-07
5.61728e-07
5.69346e-07
5.7654e-07
5.83285e-07
5.89558e-07
5.95334e-07
6.00594e-07
6.05319e-07
6.09491e-07
6.13095e-07
6.16119e-07
6.18549e-07
6.20372e-07
6.21584e-07
6.2219e-07
6.2219e-07
6.21584e-07
6.20372e-07
6.18549e-07
6.16119e-07
6.13095e-07
6.09491e-07
6.05319e-07
6.00594e-07
5.95334e-07
5.89558e-07
5.83285e-07
5.7654e-07
5.69346e-07
5.61728e-07
5.53714e-07
5.4533e-07
5.366e-07
5.27495e-07
3.9211e-07
4.0132e-07
4.1037e-07
4.19286e-07
4.28047e-07
4.36625e-07
4.4499e-07
4.531e-07
4.60888e-07
4.68373e-07
4.75534e-07
4.82346e-07
4.88783e-07
4.94823e-07
5.00442e-07
5.0562e-07
5.10337e-07
5.14575e-07
5.1832e-07
5.21556e-07
5.24271e-07
5.26454e-07
5.28092e-07
5.29182e-07
5.29727e-07
5.29727e-07
5.29182e-07
5.28092e-07
5.26454e-07
5.24271e-07
5.21555e-07
5.1832e-07
5.14575e-07
5.10337e-07
5.0562e-07
5.00442e-07
4.94823e-07
4.88783e-07
4.82346e-07
4.75534e-07
4.68373e-07
4.60888e-07
4.531e-07
4.4499e-07
3.22429e-07
3.30432e-07
3.38309e-07
3.46081e-07
3.53727e-07
3.61224e-07
3.68543e-07
3.75647e-07
3.8248e-07
3.89054e-07
3.9535e-07
4.01343e-07
4.07012e-07
4.12335e-07
4.1729e-07
4.21859e-07
4.26024e-07
4.29768e-07
4.33077e-07
4.35938e-07
4.38339e-07
4.4027e-07
4.4172e-07
4.42685e-07
4.43168e-07
4.43168e-07
4.42685e-07
4.4172e-07
4.4027e-07
4.38339e-07
4.35938e-07
4.33077e-07
4.29768e-07
4.26024e-07
4.21859e-07
4.1729e-07
4.12335e-07
4.07012e-07
4.01343e-07
3.9535e-07
3.89054e-07
3.8248e-07
3.75647e-07
3.68542e-07
2.59403e-07
2.6621e-07
2.72923e-07
2.79557e-07
2.86094e-07
2.92512e-07
2.98786e-07
3.04886e-07
3.10762e-07
3.16422e-07
3.21848e-07
3.27019e-07
3.31915e-07
3.36516e-07
3.40802e-07
3.44758e-07
3.48366e-07
3.51611e-07
3.54481e-07
3.56963e-07
3.59047e-07
3.60724e-07
3.61983e-07
3.62822e-07
3.63242e-07
3.63242e-07
3.62822e-07
3.61983e-07
3.60724e-07
3.59047e-07
3.56963e-07
3.54481e-07
3.51611e-07
3.48366e-07
3.44758e-07
3.40802e-07
3.36516e-07
3.31915e-07
3.27019e-07
3.21848e-07
3.16422e-07
3.10761e-07
3.04886e-07
2.98786e-07
2.92512e-07
2.03521e-07
2.09166e-07
2.14744e-07
2.20266e-07
2.25716e-07
2.31076e-07
2.36325e-07
2.41435e-07
2.46366e-07
2.51123e-07
2.55689e-07
2.60045e-07
2.64174e-07
2.68058e-07
2.7168e-07
2.75026e-07
2.78079e-07
2.80828e-07
2.8326e-07
2.85365e-07
2.87133e-07
2.88556e-07
2.89626e-07
2.90338e-07
2.90695e-07
2.90695e-07
2.90338e-07
2.89626e-07
2.88556e-07
2.87133e-07
2.85365e-07
2.8326e-07
2.80828e-07
2.78079e-07
2.75026e-07
2.7168e-07
2.68058e-07
2.64174e-07
2.60045e-07
2.55689e-07
2.51123e-07
2.46366e-07
2.41435e-07
2.36325e-07
2.31077e-07
1.55153e-07
1.59694e-07
1.6419e-07
1.6865e-07
1.73061e-07
1.77406e-07
1.81668e-07
1.85825e-07
1.89844e-07
1.93726e-07
1.97458e-07
2.01024e-07
2.04407e-07
2.07593e-07
2.10568e-07
2.13318e-07
2.15831e-07
2.18094e-07
2.20098e-07
2.21833e-07
2.23292e-07
2.24466e-07
2.25349e-07
2.25938e-07
2.26233e-07
2.26233e-07
2.25938e-07
2.25349e-07
2.24466e-07
2.23292e-07
2.21833e-07
2.20098e-07
2.18094e-07
2.15831e-07
2.13318e-07
2.10568e-07
2.07593e-07
2.04407e-07
2.01024e-07
1.97458e-07
1.93726e-07
1.89844e-07
1.85825e-07
1.81668e-07
1.77406e-07
1.14468e-07
1.17992e-07
1.2149e-07
1.24966e-07
1.28411e-07
1.31811e-07
1.35152e-07
1.38417e-07
1.41579e-07
1.4464e-07
1.47585e-07
1.50404e-07
1.53082e-07
1.55607e-07
1.57968e-07
1.60152e-07
1.6215e-07
1.63951e-07
1.65547e-07
1.6693e-07
1.68092e-07
1.6903e-07
1.69734e-07
1.70204e-07
1.7044e-07
1.7044e-07
1.70204e-07
1.69734e-07
1.69029e-07
1.68092e-07
1.6693e-07
1.65547e-07
1.63951e-07
1.6215e-07
1.60152e-07
1.57968e-07
1.55607e-07
1.53082e-07
1.50404e-07
1.47585e-07
1.44639e-07
1.41579e-07
1.38417e-07
1.35152e-07
1.31811e-07
1.28411e-07
8.13712e-08
8.39955e-08
8.66056e-08
8.92051e-08
9.17861e-08
9.43388e-08
9.68519e-08
9.93119e-08
1.01699e-07
1.04014e-07
1.06245e-07
1.08383e-07
1.10418e-07
1.12339e-07
1.14136e-07
1.15802e-07
1.17326e-07
1.18702e-07
1.19923e-07
1.20981e-07
1.21871e-07
1.22589e-07
1.23129e-07
1.23489e-07
1.2367e-07
1.2367e-07
1.23489e-07
1.23129e-07
1.22589e-07
1.21871e-07
1.20981e-07
1.19922e-07
1.18702e-07
1.17326e-07
1.15802e-07
1.14136e-07
1.12339e-07
1.10418e-07
1.08383e-07
1.06245e-07
1.04014e-07
1.01699e-07
9.93118e-08
9.68519e-08
9.43388e-08
9.17861e-08
5.54654e-08
5.73286e-08
5.91855e-08
6.10385e-08
6.2882e-08
6.47087e-08
6.65104e-08
6.82772e-08
6.99952e-08
7.16632e-08
7.3274e-08
7.48198e-08
7.62927e-08
7.76852e-08
7.89899e-08
8.02e-08
8.1309e-08
8.23107e-08
8.31998e-08
8.39713e-08
8.46209e-08
8.51448e-08
8.55392e-08
8.58025e-08
8.59345e-08
8.59344e-08
8.58025e-08
8.55392e-08
8.51447e-08
8.46208e-08
8.39713e-08
8.31998e-08
8.23107e-08
8.1309e-08
8.02e-08
7.89899e-08
7.76852e-08
7.62927e-08
7.48197e-08
7.3274e-08
7.16632e-08
6.99952e-08
6.82772e-08
6.65104e-08
6.47087e-08
6.2882e-08
6.10385e-08
3.60553e-08
3.73085e-08
3.85597e-08
3.98106e-08
4.10573e-08
4.22948e-08
4.35174e-08
4.47184e-08
4.58882e-08
4.70257e-08
4.81258e-08
4.91829e-08
5.01916e-08
5.11464e-08
5.2042e-08
5.28736e-08
5.36364e-08
5.43261e-08
5.49387e-08
5.54706e-08
5.59187e-08
5.62803e-08
5.65527e-08
5.67346e-08
5.68258e-08
5.68258e-08
5.67346e-08
5.65527e-08
5.62803e-08
5.59187e-08
5.54706e-08
5.49386e-08
5.43261e-08
5.36364e-08
5.28736e-08
5.2042e-08
5.11463e-08
5.01916e-08
4.91829e-08
4.81257e-08
4.70256e-08
4.58881e-08
4.47183e-08
4.35174e-08
4.22948e-08
4.10573e-08
3.98106e-08
2.22085e-08
2.30014e-08
2.37943e-08
2.45882e-08
2.53806e-08
2.61683e-08
2.69478e-08
2.77145e-08
2.84625e-08
2.91908e-08
2.9896e-08
3.05746e-08
3.12228e-08
3.1837e-08
3.24138e-08
3.29498e-08
3.3442e-08
3.38873e-08
3.42831e-08
3.4627e-08
3.49169e-08
3.51509e-08
3.53272e-08
3.5445e-08
3.55041e-08
3.55041e-08
3.5445e-08
3.53272e-08
3.51509e-08
3.49169e-08
3.4627e-08
3.42831e-08
3.38873e-08
3.34419e-08
3.29498e-08
3.24138e-08
3.1837e-08
3.12228e-08
3.05746e-08
2.9896e-08
2.91908e-08
2.84625e-08
2.77145e-08
2.69478e-08
2.61684e-08
2.53806e-08
2.45882e-08
1.28586e-08
1.33266e-08
1.37951e-08
1.42648e-08
1.47342e-08
1.52014e-08
1.56642e-08
1.612e-08
1.65651e-08
1.69991e-08
1.74197e-08
1.78248e-08
1.82122e-08
1.85796e-08
1.89249e-08
1.9246e-08
1.95411e-08
1.98083e-08
2.00459e-08
2.02524e-08
2.04266e-08
2.05673e-08
2.06733e-08
2.07442e-08
2.07797e-08
2.07797e-08
2.07442e-08
2.06733e-08
2.05673e-08
2.04266e-08
2.02524e-08
2.00459e-08
1.98083e-08
1.95411e-08
1.9246e-08
1.89249e-08
1.85796e-08
1.82122e-08
1.78248e-08
1.74197e-08
1.69991e-08
1.65651e-08
1.612e-08
1.56642e-08
1.52014e-08
1.47342e-08
1.42648e-08
6.92429e-09
7.17926e-09
7.43467e-09
7.69096e-09
7.94731e-09
8.20268e-09
8.45586e-09
8.70543e-09
8.94937e-09
9.18735e-09
9.41822e-09
9.64073e-09
9.85364e-09
1.00557e-08
1.02458e-08
1.04226e-08
1.05852e-08
1.07325e-08
1.08635e-08
1.09775e-08
1.10736e-08
1.11512e-08
1.12098e-08
1.12489e-08
1.12685e-08
1.12685e-08
1.12489e-08
1.12098e-08
1.11512e-08
1.10736e-08
1.09774e-08
1.08635e-08
1.07325e-08
1.05852e-08
1.04226e-08
1.02458e-08
1.00557e-08
9.85364e-09
9.64073e-09
9.41821e-09
9.18735e-09
8.94937e-09
8.70542e-09
8.45586e-09
8.20268e-09
7.94731e-09
7.69096e-09
3.41676e-09
3.54308e-09
3.66967e-09
3.79674e-09
3.92392e-09
4.05066e-09
4.1764e-09
4.30039e-09
4.42165e-09
4.54001e-09
4.65488e-09
4.76565e-09
4.87168e-09
4.97236e-09
5.06708e-09
5.15526e-09
5.23635e-09
5.30983e-09
5.37523e-09
5.43212e-09
5.48011e-09
5.51889e-09
5.54813e-09
5.56768e-09
5.57748e-09
5.57748e-09
5.56768e-09
5.54813e-09
5.51889e-09
5.48011e-09
5.43211e-09
5.37523e-09
5.30983e-09
5.23635e-09
5.15526e-09
5.06708e-09
4.97236e-09
4.87168e-09
4.76565e-09
4.65488e-09
4.54001e-09
4.42165e-09
4.30039e-09
4.1764e-09
4.05067e-09
3.92392e-09
3.79674e-09
3.66966e-09
1.51161e-09
1.56729e-09
1.62307e-09
1.67909e-09
1.73515e-09
1.79103e-09
1.84648e-09
1.90117e-09
1.95466e-09
2.00688e-09
2.05757e-09
2.10646e-09
2.15326e-09
2.19772e-09
2.23954e-09
2.27849e-09
2.3143e-09
2.34676e-09
2.37566e-09
2.40079e-09
2.422e-09
2.43914e-09
2.45207e-09
2.4607e-09
2.46504e-09
2.46504e-09
2.4607e-09
2.45206e-09
2.43914e-09
2.422e-09
2.40079e-09
2.37566e-09
2.34676e-09
2.3143e-09
2.27849e-09
2.23954e-09
2.19772e-09
2.15326e-09
2.10646e-09
2.05757e-09
2.00688e-09
1.95466e-09
1.90117e-09
1.84648e-09
1.79103e-09
1.73515e-09
1.67909e-09
1.62307e-09
5.79782e-10
6.00876e-10
6.21999e-10
6.43203e-10
6.64421e-10
6.85567e-10
7.06544e-10
7.27229e-10
7.47459e-10
7.67204e-10
7.86369e-10
8.0485e-10
8.22543e-10
8.39344e-10
8.55152e-10
8.69869e-10
8.83404e-10
8.95671e-10
9.06588e-10
9.16086e-10
9.241e-10
9.30575e-10
9.35457e-10
9.38721e-10
9.40357e-10
9.40357e-10
9.38721e-10
9.35457e-10
9.30575e-10
9.241e-10
9.16086e-10
9.06588e-10
8.9567e-10
8.83404e-10
8.69869e-10
8.55152e-10
8.39344e-10
8.22543e-10
8.0485e-10
7.86369e-10
7.67204e-10
7.47459e-10
7.27229e-10
7.06544e-10
6.85568e-10
6.64421e-10
6.43203e-10
6.21999e-10
1.82544e-10
1.89031e-10
1.9552e-10
2.02029e-10
2.08539e-10
2.15022e-10
2.2145e-10
2.27785e-10
2.33976e-10
2.40017e-10
2.45877e-10
2.51526e-10
2.56931e-10
2.62063e-10
2.66889e-10
2.71381e-10
2.75511e-10
2.79253e-10
2.82583e-10
2.85479e-10
2.87922e-10
2.89896e-10
2.91384e-10
2.92379e-10
2.92878e-10
2.92878e-10
2.92379e-10
2.91384e-10
2.89896e-10
2.87922e-10
2.85479e-10
2.82583e-10
2.79253e-10
2.75511e-10
2.71381e-10
2.66889e-10
2.62063e-10
2.56931e-10
2.51526e-10
2.45877e-10
2.40017e-10
2.33976e-10
2.27785e-10
2.2145e-10
2.15022e-10
2.08538e-10
2.02029e-10
1.9552e-10
4.28809e-11
4.43426e-11
4.58022e-11
4.72644e-11
4.87249e-11
5.01779e-11
5.16168e-11
5.30334e-11
5.44163e-11
5.57641e-11
5.70705e-11
5.83288e-11
5.95319e-11
6.06731e-11
6.17458e-11
6.27436e-11
6.36604e-11
6.44907e-11
6.52292e-11
6.58712e-11
6.64127e-11
6.68501e-11
6.71797e-11
6.73999e-11
6.75103e-11
6.75103e-11
6.73999e-11
6.71797e-11
6.68501e-11
6.64127e-11
6.58712e-11
6.52292e-11
6.44907e-11
6.36604e-11
6.27436e-11
6.17458e-11
6.06731e-11
5.95319e-11
5.83287e-11
5.70705e-11
5.57641e-11
5.44163e-11
5.30334e-11
5.16168e-11
5.0178e-11
4.87249e-11
4.72644e-11
4.58022e-11
6.24932e-12
6.44628e-12
6.64233e-12
6.83826e-12
7.03353e-12
7.22737e-12
7.41894e-12
7.60714e-12
7.79047e-12
7.96882e-12
8.1414e-12
8.30735e-12
8.46581e-12
8.6159e-12
8.7568e-12
8.8877e-12
9.00787e-12
9.11658e-12
9.21319e-12
9.29712e-12
9.36787e-12
9.42497e-12
9.46798e-12
9.49671e-12
9.5111e-12
9.5111e-12
9.49671e-12
9.46798e-12
9.42497e-12
9.36786e-12
9.29712e-12
9.21319e-12
9.11657e-12
9.00786e-12
8.8877e-12
8.7568e-12
8.6159e-12
8.4658e-12
8.30735e-12
8.1414e-12
7.96881e-12
7.79047e-12
7.60714e-12
7.41893e-12
7.22737e-12
7.03353e-12
6.83826e-12
6.64233e-12
3.76066e-13
3.85997e-13
3.95815e-13
4.05579e-13
4.15265e-13
4.24839e-13
4.3426e-13
4.43477e-13
4.52412e-13
4.61073e-13
4.69424e-13
4.77429e-13
4.8505e-13
4.92248e-13
4.98987e-13
5.05234e-13
5.10955e-13
5.16121e-13
5.20704e-13
5.2468e-13
5.28027e-13
5.30725e-13
5.32755e-13
5.34109e-13
5.34787e-13
5.34787e-13
5.34109e-13
5.32755e-13
5.30725e-13
5.28027e-13
5.2468e-13
5.20704e-13
5.16121e-13
5.10955e-13
5.05234e-13
4.98987e-13
4.92248e-13
4.85049e-13
4.77429e-13
4.69424e-13
4.61072e-13
4.52412e-13
4.43476e-13
4.3426e-13
4.24839e-13
4.15265e-13
4.05579e-13
3.95815e-13
3.3204e-15
3.37219e-15
3.42248e-15
3.47193e-15
3.5205e-15
3.56805e-15
3.61443e-15
3.65936e-15
3.70241e-15
3.74379e-15
3.78341e-15
3.82113e-15
3.85681e-15
3.89032e-15
3.92152e-15
3.9503e-15
3.97653e-15
4.00013e-15
4.02099e-15
4.03902e-15
4.05416e-15
4.06634e-15
4.07546e-15
4.08152e-15
4.08455e-15
4.08455e-15
4.08152e-15
4.07546e-15
4.06634e-15
4.05416e-15
4.03902e-15
4.02098e-15
4.00013e-15
3.97653e-15
3.9503e-15
3.92152e-15
3.89032e-15
3.85681e-15
3.82113e-15
3.78341e-15
3.74379e-15
3.7024e-15
3.65936e-15
3.61442e-15
3.56805e-15
3.5205e-15
3.47193e-15
3.42248e-15
4.01639e-06
3.85968e-06
3.70476e-06
3.55166e-06
3.40047e-06
3.25125e-06
3.10406e-06
2.95898e-06
2.81608e-06
2.67544e-06
2.53715e-06
2.40128e-06
2.26795e-06
2.13723e-06
2.00923e-06
1.88405e-06
1.7618e-06
1.6426e-06
1.52657e-06
1.41381e-06
1.30447e-06
1.19866e-06
1.09651e-06
9.98161e-07
9.0369e-07
8.13067e-07
7.2564e-07
6.35511e-07
5.49209e-07
4.67893e-07
3.9211e-07
3.22429e-07
2.59403e-07
2.03521e-07
1.55153e-07
1.14468e-07
8.13712e-08
5.54654e-08
3.60553e-08
2.22085e-08
1.28586e-08
6.92429e-09
3.41676e-09
1.51161e-09
5.79782e-10
1.82544e-10
4.28809e-11
6.24932e-12
3.76066e-13
3.3204e-15
4.06107e-06
3.90317e-06
3.74704e-06
3.59274e-06
3.44034e-06
3.28989e-06
3.14148e-06
2.99516e-06
2.85102e-06
2.70914e-06
2.5696e-06
2.43248e-06
2.29789e-06
2.16591e-06
2.03665e-06
1.91021e-06
1.7867e-06
1.66624e-06
1.54894e-06
1.43494e-06
1.32435e-06
1.2173e-06
1.11393e-06
1.01437e-06
9.18704e-07
8.26932e-07
7.38487e-07
6.48282e-07
5.60811e-07
4.78305e-07
4.0132e-07
3.30432e-07
2.6621e-07
2.09166e-07
1.59694e-07
1.17992e-07
8.39955e-08
5.73286e-08
3.73085e-08
2.30014e-08
1.33266e-08
7.17926e-09
3.54308e-09
1.56729e-09
6.00876e-10
1.89031e-10
4.43426e-11
6.44628e-12
3.85997e-13
3.37219e-15
4.10386e-06
3.94484e-06
3.78759e-06
3.63216e-06
3.47862e-06
3.32702e-06
3.17745e-06
3.02997e-06
2.88466e-06
2.7416e-06
2.60088e-06
2.46257e-06
2.32678e-06
2.19361e-06
2.06314e-06
1.9355e-06
1.81079e-06
1.68913e-06
1.57063e-06
1.45542e-06
1.34364e-06
1.2354e-06
1.13086e-06
1.03012e-06
9.33318e-07
8.4044e-07
7.51021e-07
6.60782e-07
5.72181e-07
4.88523e-07
4.1037e-07
3.38309e-07
2.72923e-07
2.14744e-07
1.6419e-07
1.2149e-07
8.66056e-08
5.91855e-08
3.85597e-08
2.37943e-08
1.37951e-08
7.43467e-09
3.66967e-09
1.62307e-09
6.21999e-10
1.9552e-10
4.58022e-11
6.64233e-12
3.95815e-13
3.42248e-15
4.14545e-06
3.98536e-06
3.82703e-06
3.6705e-06
3.51586e-06
3.36315e-06
3.21246e-06
3.06386e-06
2.91742e-06
2.77322e-06
2.63135e-06
2.4919e-06
2.35495e-06
2.22062e-06
2.08899e-06
1.96019e-06
1.83431e-06
1.71148e-06
1.59182e-06
1.47545e-06
1.36251e-06
1.25312e-06
1.14743e-06
1.04556e-06
9.4764e-07
8.53687e-07
7.63324e-07
6.73055e-07
5.83354e-07
4.98577e-07
4.19286e-07
3.46081e-07
2.79557e-07
2.20266e-07
1.6865e-07
1.24966e-07
8.9205e-08
6.10385e-08
3.98106e-08
2.45882e-08
1.42648e-08
7.69096e-09
3.79674e-09
1.67909e-09
6.43203e-10
2.02029e-10
4.72644e-11
6.83826e-12
4.05579e-13
3.47193e-15
4.18582e-06
4.02469e-06
3.86531e-06
3.70773e-06
3.55203e-06
3.39826e-06
3.24649e-06
3.0968e-06
2.94927e-06
2.80397e-06
2.661e-06
2.52044e-06