/*--------------------------------*- C++ -*----------------------------------*\
  =========                 |
  \\      /  F ield         | OpenFOAM: The Open Source CFD Toolbox
   \\    /   O peration     | Website:  https://openfoam.org
    \\  /    A nd           | Version:  7
     \\/     M anipulation  |
\*---------------------------------------------------------------------------*/
FoamFile
{
    version     2.0;
    format      ascii;
    class       volScalarField;
    location    "52000";
    object      nut;
}
// * * * * * * * * * * * * * * * * * * * * * * * * * * * * * * * * * * * * * //

dimensions      [0 2 -1 0 0 0 0];

internalField   nonuniform List<scalar> 
4825
(
1.25218e-13
1.24531e-13
1.27581e-13
1.26428e-13
1.25528e-13
1.24818e-13
1.24262e-13
1.31549e-13
1.29657e-13
1.28147e-13
1.26944e-13
1.26005e-13
1.37792e-13
1.3492e-13
1.32529e-13
1.30558e-13
1.28983e-13
1.4663e-13
1.42737e-13
1.3932e-13
1.36367e-13
1.3391e-13
1.57741e-13
1.53052e-13
1.48732e-13
1.448e-13
1.41371e-13
1.50303e-13
1.55471e-13
1.60296e-13
1.55646e-13
1.51417e-13
1.43411e-13
1.45342e-13
1.48151e-13
1.52025e-13
1.5736e-13
1.41959e-13
1.42129e-13
1.42734e-13
1.43888e-13
1.45919e-13
1.4351e-13
1.42726e-13
1.42132e-13
1.41804e-13
1.42042e-13
1.46706e-13
1.45411e-13
1.44179e-13
1.43054e-13
1.42315e-13
1.50754e-13
1.49202e-13
1.47651e-13
1.4612e-13
1.44867e-13
1.55188e-13
1.53534e-13
1.51851e-13
1.50132e-13
1.48621e-13
1.59709e-13
1.58048e-13
1.56346e-13
1.54579e-13
1.6415e-13
1.6254e-13
1.60877e-13
1.59139e-13
1.68375e-13
1.6687e-13
1.65291e-13
1.6363e-13
1.72314e-13
1.70924e-13
1.69462e-13
1.75906e-13
1.74649e-13
1.73313e-13
1.79092e-13
1.77994e-13
1.81837e-13
1.80919e-13
1.84133e-13
1.83384e-13
1.85948e-13
1.85384e-13
1.87284e-13
1.86905e-13
1.88136e-13
1.16768e-13
1.16575e-13
1.1639e-13
1.16214e-13
1.16048e-13
1.15892e-13
1.15747e-13
1.15612e-13
1.15487e-13
1.15372e-13
1.15266e-13
1.15167e-13
1.15073e-13
1.14982e-13
1.14897e-13
1.14816e-13
1.14741e-13
1.14672e-13
1.14608e-13
1.14549e-13
1.17242e-13
1.17044e-13
1.16854e-13
1.16674e-13
1.16503e-13
1.16343e-13
1.16194e-13
1.16055e-13
1.15928e-13
1.1581e-13
1.15701e-13
1.156e-13
1.15503e-13
1.15411e-13
1.15323e-13
1.15241e-13
1.15164e-13
1.15092e-13
1.15026e-13
1.14965e-13
1.17725e-13
1.17523e-13
1.17328e-13
1.17143e-13
1.16967e-13
1.16802e-13
1.16649e-13
1.16506e-13
1.16374e-13
1.16253e-13
1.16141e-13
1.16037e-13
1.15938e-13
1.15843e-13
1.15753e-13
1.15669e-13
1.1559e-13
1.15517e-13
1.15449e-13
1.15387e-13
1.18216e-13
1.18011e-13
1.17812e-13
1.17622e-13
1.17441e-13
1.17272e-13
1.17114e-13
1.16967e-13
1.16831e-13
1.16705e-13
1.1659e-13
1.16482e-13
1.1638e-13
1.16282e-13
1.1619e-13
1.16103e-13
1.16022e-13
1.15947e-13
1.15878e-13
1.15816e-13
1.1871e-13
1.18503e-13
1.18303e-13
1.18109e-13
1.17926e-13
1.17752e-13
1.1759e-13
1.17438e-13
1.17298e-13
1.17168e-13
1.17048e-13
1.16937e-13
1.16831e-13
1.16731e-13
1.16636e-13
1.16546e-13
1.16463e-13
1.16386e-13
1.16316e-13
1.16254e-13
1.19198e-13
1.18995e-13
1.18795e-13
1.18602e-13
1.18417e-13
1.18241e-13
1.18075e-13
1.1792e-13
1.17776e-13
1.17642e-13
1.17519e-13
1.17404e-13
1.17295e-13
1.17191e-13
1.17092e-13
1.17e-13
1.16914e-13
1.16836e-13
1.16765e-13
1.16704e-13
1.19672e-13
1.19475e-13
1.19281e-13
1.19091e-13
1.18908e-13
1.18733e-13
1.18566e-13
1.1841e-13
1.18263e-13
1.18127e-13
1.18e-13
1.17882e-13
1.1777e-13
1.17663e-13
1.17561e-13
1.17466e-13
1.17378e-13
1.17298e-13
1.17227e-13
1.17166e-13
1.20123e-13
1.19936e-13
1.19751e-13
1.19568e-13
1.1939e-13
1.19219e-13
1.19056e-13
1.18901e-13
1.18754e-13
1.18617e-13
1.18489e-13
1.18369e-13
1.18254e-13
1.18145e-13
1.18041e-13
1.17944e-13
1.17854e-13
1.17772e-13
1.17701e-13
1.17641e-13
1.17588e-13
1.17549e-13
1.17519e-13
1.17499e-13
1.1749e-13
1.17492e-13
1.17505e-13
1.17528e-13
1.17561e-13
1.17605e-13
1.17659e-13
1.17724e-13
1.17798e-13
1.17881e-13
1.17971e-13
1.20547e-13
1.20371e-13
1.20196e-13
1.20023e-13
1.19855e-13
1.19691e-13
1.19534e-13
1.19384e-13
1.1924e-13
1.19105e-13
1.18979e-13
1.18859e-13
1.18744e-13
1.18634e-13
1.18529e-13
1.1843e-13
1.18339e-13
1.18257e-13
1.18185e-13
1.18125e-13
1.18074e-13
1.18036e-13
1.18007e-13
1.17987e-13
1.17979e-13
1.17981e-13
1.17994e-13
1.18017e-13
1.1805e-13
1.18095e-13
1.18151e-13
1.18217e-13
1.18293e-13
1.18377e-13
1.1847e-13
1.18567e-13
1.18672e-13
1.20946e-13
1.20779e-13
1.20614e-13
1.20452e-13
1.20293e-13
1.2014e-13
1.19992e-13
1.19849e-13
1.19712e-13
1.19582e-13
1.1946e-13
1.19343e-13
1.1923e-13
1.19122e-13
1.19017e-13
1.18919e-13
1.18829e-13
1.18747e-13
1.18675e-13
1.18615e-13
1.18564e-13
1.18526e-13
1.18498e-13
1.1848e-13
1.18472e-13
1.18474e-13
1.18487e-13
1.1851e-13
1.18544e-13
1.18589e-13
1.18646e-13
1.18712e-13
1.18789e-13
1.18874e-13
1.18967e-13
1.19066e-13
1.19171e-13
1.1928e-13
1.21334e-13
1.21169e-13
1.21009e-13
1.20854e-13
1.20704e-13
1.20561e-13
1.20422e-13
1.20289e-13
1.2016e-13
1.20038e-13
1.19922e-13
1.19811e-13
1.19703e-13
1.19598e-13
1.19497e-13
1.19402e-13
1.19313e-13
1.19233e-13
1.19163e-13
1.19103e-13
1.19052e-13
1.19015e-13
1.18988e-13
1.18971e-13
1.18963e-13
1.18966e-13
1.18979e-13
1.19002e-13
1.19036e-13
1.19081e-13
1.19137e-13
1.19203e-13
1.19279e-13
1.19363e-13
1.19456e-13
1.19553e-13
1.19656e-13
1.19764e-13
1.19877e-13
1.19995e-13
1.21736e-13
1.21559e-13
1.21396e-13
1.21241e-13
1.21095e-13
1.20957e-13
1.20826e-13
1.20701e-13
1.20581e-13
1.20467e-13
1.20359e-13
1.20255e-13
1.20154e-13
1.20055e-13
1.19958e-13
1.19867e-13
1.19782e-13
1.19705e-13
1.19638e-13
1.19579e-13
1.19529e-13
1.19493e-13
1.19468e-13
1.19451e-13
1.19445e-13
1.19448e-13
1.19461e-13
1.19484e-13
1.19516e-13
1.1956e-13
1.19615e-13
1.19679e-13
1.19753e-13
1.19836e-13
1.19925e-13
1.20019e-13
1.20118e-13
1.20222e-13
1.2033e-13
1.20444e-13
1.20561e-13
1.20684e-13
1.22192e-13
1.21984e-13
1.218e-13
1.21633e-13
1.21482e-13
1.21342e-13
1.21213e-13
1.21092e-13
1.20977e-13
1.2087e-13
1.20769e-13
1.20672e-13
1.20577e-13
1.20484e-13
1.20393e-13
1.20307e-13
1.20227e-13
1.20155e-13
1.2009e-13
1.20034e-13
1.19986e-13
1.19951e-13
1.19927e-13
1.19912e-13
1.19907e-13
1.19911e-13
1.19924e-13
1.19945e-13
1.19977e-13
1.20019e-13
1.20071e-13
1.20133e-13
1.20204e-13
1.20283e-13
1.20368e-13
1.20458e-13
1.20552e-13
1.2065e-13
1.20753e-13
1.20861e-13
1.20974e-13
1.21093e-13
1.21217e-13
1.21349e-13
1.21487e-13
1.22776e-13
1.22501e-13
1.2227e-13
1.22069e-13
1.21895e-13
1.21741e-13
1.21604e-13
1.21478e-13
1.21362e-13
1.21255e-13
1.21158e-13
1.21065e-13
1.20975e-13
1.20887e-13
1.20801e-13
1.2072e-13
1.20645e-13
1.20576e-13
1.20515e-13
1.20461e-13
1.20415e-13
1.20382e-13
1.2036e-13
1.20347e-13
1.20342e-13
1.20346e-13
1.20359e-13
1.2038e-13
1.20409e-13
1.20449e-13
1.20499e-13
1.20558e-13
1.20626e-13
1.20701e-13
1.20783e-13
1.20868e-13
1.20957e-13
1.21051e-13
1.2115e-13
1.21256e-13
1.21367e-13
1.21487e-13
1.21616e-13
1.21754e-13
1.21903e-13
1.22064e-13
1.22244e-13
1.23623e-13
1.23214e-13
1.22885e-13
1.22613e-13
1.22388e-13
1.22197e-13
1.22033e-13
1.21889e-13
1.21761e-13
1.21646e-13
1.21544e-13
1.21449e-13
1.21359e-13
1.21272e-13
1.21188e-13
1.2111e-13
1.21037e-13
1.20972e-13
1.20913e-13
1.20861e-13
1.20817e-13
1.20785e-13
1.20765e-13
1.20753e-13
1.20749e-13
1.20754e-13
1.20766e-13
1.20786e-13
1.20814e-13
1.20852e-13
1.209e-13
1.20956e-13
1.21021e-13
1.21095e-13
1.21174e-13
1.21257e-13
1.21345e-13
1.21438e-13
1.21537e-13
1.21646e-13
1.21763e-13
1.21893e-13
1.22037e-13
1.22196e-13
1.22374e-13
1.22577e-13
1.22811e-13
1.23085e-13
1.23414e-13
1.23827e-13
1.24984e-13
1.24318e-13
1.23798e-13
1.23384e-13
1.23054e-13
1.22786e-13
1.22564e-13
1.22376e-13
1.22216e-13
1.22078e-13
1.21959e-13
1.21852e-13
1.21754e-13
1.21661e-13
1.21574e-13
1.21493e-13
1.2142e-13
1.21354e-13
1.21295e-13
1.21243e-13
1.21199e-13
1.21168e-13
1.21148e-13
1.21137e-13
1.21134e-13
1.21139e-13
1.21151e-13
1.2117e-13
1.21197e-13
1.21235e-13
1.21282e-13
1.21338e-13
1.21403e-13
1.21477e-13
1.21558e-13
1.21643e-13
1.21735e-13
1.21834e-13
1.21943e-13
1.22064e-13
1.222e-13
1.22356e-13
1.22534e-13
1.22739e-13
1.22979e-13
1.23264e-13
1.23609e-13
1.24031e-13
1.24553e-13
1.25227e-13
1.27298e-13
1.2617e-13
1.25294e-13
1.24606e-13
1.2407e-13
1.23647e-13
1.23309e-13
1.23032e-13
1.22805e-13
1.22615e-13
1.22458e-13
1.22321e-13
1.222e-13
1.2209e-13
1.21989e-13
1.21899e-13
1.21818e-13
1.21746e-13
1.21684e-13
1.21628e-13
1.21582e-13
1.21549e-13
1.21528e-13
1.21517e-13
1.21514e-13
1.21519e-13
1.21532e-13
1.21552e-13
1.21579e-13
1.21618e-13
1.21668e-13
1.21726e-13
1.21796e-13
1.21876e-13
1.21964e-13
1.2206e-13
1.22164e-13
1.22281e-13
1.22413e-13
1.22566e-13
1.22742e-13
1.22951e-13
1.232e-13
1.23497e-13
1.2386e-13
1.24306e-13
1.24863e-13
1.25564e-13
1.26446e-13
1.27588e-13
1.31215e-13
1.29345e-13
1.2786e-13
1.26682e-13
1.25766e-13
1.25048e-13
1.24483e-13
1.24032e-13
1.23669e-13
1.23375e-13
1.23138e-13
1.2294e-13
1.2277e-13
1.22622e-13
1.22491e-13
1.22377e-13
1.22278e-13
1.22192e-13
1.22117e-13
1.22053e-13
1.22e-13
1.21961e-13
1.21937e-13
1.21924e-13
1.2192e-13
1.21926e-13
1.2194e-13
1.21961e-13
1.21992e-13
1.22036e-13
1.22092e-13
1.2216e-13
1.22241e-13
1.22336e-13
1.22443e-13
1.22563e-13
1.22697e-13
1.22852e-13
1.23034e-13
1.2325e-13
1.23508e-13
1.23824e-13
1.24211e-13
1.24688e-13
1.25286e-13
1.26034e-13
1.2698e-13
1.28173e-13
1.29664e-13
1.31553e-13
1.37415e-13
1.34556e-13
1.32184e-13
1.30238e-13
1.28689e-13
1.27456e-13
1.26478e-13
1.25699e-13
1.25078e-13
1.24582e-13
1.24188e-13
1.23866e-13
1.23599e-13
1.23373e-13
1.2318e-13
1.23018e-13
1.2288e-13
1.22763e-13
1.22664e-13
1.22579e-13
1.22511e-13
1.22461e-13
1.2243e-13
1.22412e-13
1.22406e-13
1.22412e-13
1.22429e-13
1.22455e-13
1.22493e-13
1.22548e-13
1.22619e-13
1.22706e-13
1.22812e-13
1.22938e-13
1.23085e-13
1.23253e-13
1.23449e-13
1.23681e-13
1.23962e-13
1.24303e-13
1.24722e-13
1.25243e-13
1.25893e-13
1.26704e-13
1.27724e-13
1.28995e-13
1.30583e-13
1.32541e-13
1.34911e-13
1.37792e-13
1.46233e-13
1.42336e-13
1.38927e-13
1.35993e-13
1.33559e-13
1.31551e-13
1.29913e-13
1.28582e-13
1.27507e-13
1.26643e-13
1.25957e-13
1.25399e-13
1.24942e-13
1.24565e-13
1.24251e-13
1.23992e-13
1.23777e-13
1.23597e-13
1.23449e-13
1.23325e-13
1.23227e-13
1.23154e-13
1.23107e-13
1.23078e-13
1.23068e-13
1.23074e-13
1.23098e-13
1.23133e-13
1.23187e-13
1.23264e-13
1.23365e-13
1.2349e-13
1.23646e-13
1.23835e-13
1.24061e-13
1.24326e-13
1.24641e-13
1.25025e-13
1.25496e-13
1.26074e-13
1.26791e-13
1.27683e-13
1.28794e-13
1.30162e-13
1.31854e-13
1.33905e-13
1.36386e-13
1.39317e-13
1.42707e-13
1.46626e-13
1.57351e-13
1.52639e-13
1.48313e-13
1.44389e-13
1.40975e-13
1.38029e-13
1.35524e-13
1.33411e-13
1.3165e-13
1.30198e-13
1.29024e-13
1.28057e-13
1.27261e-13
1.26606e-13
1.26065e-13
1.25621e-13
1.25258e-13
1.24958e-13
1.24714e-13
1.24513e-13
1.24355e-13
1.24237e-13
1.2416e-13
1.24111e-13
1.24091e-13
1.24098e-13
1.24132e-13
1.24187e-13
1.24271e-13
1.24393e-13
1.24554e-13
1.24754e-13
1.25007e-13
1.25317e-13
1.25693e-13
1.26142e-13
1.26681e-13
1.27342e-13
1.28152e-13
1.29141e-13
1.30353e-13
1.31834e-13
1.3364e-13
1.35795e-13
1.38367e-13
1.41359e-13
1.4482e-13
1.48716e-13
1.53001e-13
1.57731e-13
1.50005e-13
1.55186e-13
1.59876e-13
1.55223e-13
1.51e-13
1.47188e-13
1.438e-13
1.40807e-13
1.38214e-13
1.35991e-13
1.34136e-13
1.32565e-13
1.31244e-13
1.30139e-13
1.29217e-13
1.28457e-13
1.27832e-13
1.27315e-13
1.26896e-13
1.26552e-13
1.26285e-13
1.26083e-13
1.25947e-13
1.25859e-13
1.25822e-13
1.25829e-13
1.25884e-13
1.25977e-13
1.26118e-13
1.26324e-13
1.26595e-13
1.26935e-13
1.27364e-13
1.27892e-13
1.28532e-13
1.29298e-13
1.3021e-13
1.31318e-13
1.32654e-13
1.34247e-13
1.3615e-13
1.38399e-13
1.41048e-13
1.44083e-13
1.47553e-13
1.5141e-13
1.55684e-13
1.60276e-13
1.55466e-13
1.503e-13
1.4311e-13
1.45018e-13
1.47824e-13
1.51712e-13
1.57073e-13
1.58634e-13
1.54587e-13
1.50857e-13
1.4749e-13
1.44486e-13
1.41889e-13
1.39607e-13
1.37627e-13
1.35925e-13
1.3447e-13
1.33247e-13
1.32225e-13
1.31371e-13
1.30673e-13
1.30095e-13
1.29647e-13
1.29302e-13
1.29067e-13
1.28912e-13
1.28844e-13
1.28852e-13
1.28943e-13
1.29099e-13
1.29339e-13
1.29686e-13
1.30141e-13
1.30709e-13
1.31419e-13
1.32287e-13
1.33328e-13
1.34554e-13
1.35986e-13
1.37687e-13
1.3968e-13
1.41983e-13
1.44643e-13
1.47667e-13
1.51097e-13
1.54869e-13
1.59013e-13
1.57459e-13
1.52171e-13
1.4819e-13
1.45301e-13
1.43393e-13
1.41685e-13
1.41816e-13
1.42402e-13
1.43549e-13
1.4558e-13
1.48474e-13
1.52363e-13
1.57282e-13
1.59063e-13
1.55485e-13
1.52288e-13
1.49376e-13
1.46766e-13
1.44448e-13
1.42405e-13
1.40646e-13
1.39145e-13
1.37863e-13
1.36801e-13
1.35908e-13
1.35209e-13
1.34663e-13
1.34288e-13
1.34036e-13
1.33924e-13
1.33932e-13
1.34077e-13
1.34324e-13
1.34702e-13
1.35249e-13
1.35959e-13
1.36832e-13
1.37911e-13
1.39209e-13
1.40737e-13
1.42494e-13
1.44492e-13
1.468e-13
1.49423e-13
1.5235e-13
1.55627e-13
1.59222e-13
1.57466e-13
1.52602e-13
1.48831e-13
1.45976e-13
1.44025e-13
1.42758e-13
1.42064e-13
1.41933e-13
1.43271e-13
1.42439e-13
1.41821e-13
1.41478e-13
1.41709e-13
1.42428e-13
1.43734e-13
1.45611e-13
1.481e-13
1.51276e-13
1.55221e-13
1.59789e-13
1.583e-13
1.55514e-13
1.52992e-13
1.50767e-13
1.48821e-13
1.47127e-13
1.45698e-13
1.44474e-13
1.43504e-13
1.42737e-13
1.42205e-13
1.41844e-13
1.41681e-13
1.41691e-13
1.41899e-13
1.42247e-13
1.42777e-13
1.43545e-13
1.44531e-13
1.45721e-13
1.47173e-13
1.48887e-13
1.50866e-13
1.53085e-13
1.55535e-13
1.58296e-13
1.59751e-13
1.55191e-13
1.51359e-13
1.48215e-13
1.45793e-13
1.43975e-13
1.42776e-13
1.42091e-13
1.41955e-13
1.42161e-13
1.42652e-13
1.43487e-13
1.465e-13
1.45156e-13
1.43897e-13
1.42755e-13
1.42006e-13
1.41555e-13
1.41454e-13
1.41697e-13
1.42277e-13
1.43278e-13
1.4477e-13
1.46583e-13
1.48782e-13
1.51276e-13
1.54038e-13
1.57049e-13
1.60215e-13
1.58764e-13
1.57064e-13
1.55581e-13
1.54398e-13
1.5345e-13
1.52793e-13
1.52337e-13
1.52135e-13
1.52145e-13
1.52413e-13
1.52842e-13
1.53493e-13
1.54438e-13
1.55651e-13
1.57076e-13
1.58807e-13
1.60255e-13
1.57126e-13
1.54099e-13
1.51237e-13
1.48706e-13
1.4654e-13
1.44711e-13
1.43341e-13
1.42378e-13
1.41856e-13
1.41683e-13
1.41878e-13
1.42378e-13
1.43221e-13
1.44217e-13
1.45339e-13
1.46684e-13
1.50579e-13
1.48975e-13
1.47397e-13
1.4585e-13
1.44587e-13
1.43514e-13
1.42658e-13
1.42024e-13
1.41568e-13
1.41386e-13
1.41562e-13
1.41892e-13
1.4249e-13
1.43248e-13
1.4418e-13
1.45283e-13
1.46527e-13
1.47828e-13
1.49151e-13
1.50392e-13
1.51592e-13
1.52604e-13
1.53487e-13
1.54064e-13
1.54395e-13
1.54402e-13
1.54156e-13
1.53533e-13
1.52647e-13
1.51611e-13
1.50462e-13
1.49141e-13
1.47841e-13
1.46573e-13
1.45364e-13
1.44237e-13
1.43199e-13
1.42398e-13
1.41833e-13
1.41473e-13
1.41434e-13
1.41641e-13
1.42156e-13
1.42861e-13
1.43805e-13
1.44948e-13
1.463e-13
1.477e-13
1.4914e-13
1.50723e-13
1.5504e-13
1.53333e-13
1.51624e-13
1.49888e-13
1.48368e-13
1.46985e-13
1.45749e-13
1.44659e-13
1.43651e-13
1.42834e-13
1.42304e-13
1.4184e-13
1.41569e-13
1.4139e-13
1.41342e-13
1.41415e-13
1.41628e-13
1.41914e-13
1.42257e-13
1.42579e-13
1.42971e-13
1.43296e-13
1.43654e-13
1.43856e-13
1.44002e-13
1.44007e-13
1.43949e-13
1.43688e-13
1.43343e-13
1.42982e-13
1.42665e-13
1.42243e-13
1.41924e-13
1.41678e-13
1.415e-13
1.41387e-13
1.41334e-13
1.41465e-13
1.41752e-13
1.4218e-13
1.42867e-13
1.43696e-13
1.44756e-13
1.4593e-13
1.47258e-13
1.4872e-13
1.50319e-13
1.519e-13
1.53479e-13
1.55137e-13
1.59585e-13
1.5787e-13
1.56142e-13
1.54359e-13
1.52726e-13
1.51213e-13
1.49818e-13
1.48502e-13
1.47226e-13
1.46081e-13
1.4518e-13
1.44299e-13
1.43581e-13
1.42888e-13
1.42324e-13
1.41828e-13
1.41498e-13
1.41226e-13
1.4104e-13
1.4086e-13
1.4083e-13
1.40782e-13
1.40855e-13
1.40854e-13
1.40904e-13
1.40916e-13
1.40953e-13
1.40889e-13
1.40823e-13
1.40832e-13
1.40964e-13
1.41028e-13
1.41242e-13
1.4155e-13
1.41929e-13
1.4236e-13
1.42831e-13
1.4345e-13
1.44193e-13
1.45031e-13
1.4609e-13
1.47234e-13
1.48567e-13
1.49967e-13
1.51484e-13
1.53082e-13
1.54776e-13
1.56408e-13
1.57999e-13
1.59653e-13
1.64046e-13
1.62383e-13
1.60694e-13
1.58939e-13
1.57291e-13
1.55766e-13
1.54321e-13
1.52922e-13
1.51534e-13
1.50249e-13
1.49178e-13
1.4808e-13
1.47144e-13
1.46183e-13
1.45357e-13
1.44564e-13
1.43942e-13
1.43381e-13
1.42901e-13
1.42457e-13
1.42196e-13
1.41955e-13
1.41881e-13
1.41766e-13
1.4177e-13
1.41776e-13
1.41866e-13
1.41915e-13
1.41993e-13
1.42188e-13
1.4257e-13
1.4289e-13
1.4339e-13
1.44006e-13
1.44679e-13
1.45384e-13
1.46133e-13
1.46986e-13
1.47957e-13
1.4899e-13
1.50227e-13
1.5152e-13
1.5297e-13
1.54455e-13
1.56023e-13
1.57663e-13
1.59348e-13
1.60951e-13
1.62496e-13
1.64087e-13
1.68289e-13
1.66729e-13
1.65125e-13
1.63448e-13
1.6183e-13
1.6036e-13
1.58953e-13
1.57554e-13
1.56148e-13
1.54825e-13
1.53689e-13
1.52498e-13
1.51478e-13
1.504e-13
1.49444e-13
1.48513e-13
1.47738e-13
1.47041e-13
1.46408e-13
1.45824e-13
1.45437e-13
1.45106e-13
1.44952e-13
1.44783e-13
1.44768e-13
1.44768e-13
1.44887e-13
1.44995e-13
1.45131e-13
1.4543e-13
1.4594e-13
1.46384e-13
1.47045e-13
1.47812e-13
1.48643e-13
1.49475e-13
1.50343e-13
1.51304e-13
1.52359e-13
1.53462e-13
1.54765e-13
1.561e-13
1.57574e-13
1.5906e-13
1.60619e-13
1.62232e-13
1.63841e-13
1.65362e-13
1.66828e-13
1.68304e-13
1.72244e-13
1.70799e-13
1.69312e-13
1.67744e-13
1.6621e-13
1.64834e-13
1.63513e-13
1.62167e-13
1.60786e-13
1.59501e-13
1.58371e-13
1.57159e-13
1.56123e-13
1.55007e-13
1.5402e-13
1.53034e-13
1.52194e-13
1.51432e-13
1.50726e-13
1.50084e-13
1.49627e-13
1.49256e-13
1.49078e-13
1.48882e-13
1.48853e-13
1.4886e-13
1.48983e-13
1.49118e-13
1.49282e-13
1.4963e-13
1.50195e-13
1.507e-13
1.51441e-13
1.52264e-13
1.53168e-13
1.54042e-13
1.54956e-13
1.55944e-13
1.56995e-13
1.58105e-13
1.59408e-13
1.60721e-13
1.62162e-13
1.63596e-13
1.65097e-13
1.66627e-13
1.68138e-13
1.69545e-13
1.70884e-13
1.72235e-13
1.75849e-13
1.74538e-13
1.73176e-13
1.71738e-13
1.70314e-13
1.69075e-13
1.67854e-13
1.66596e-13
1.6529e-13
1.64067e-13
1.62991e-13
1.61801e-13
1.608e-13
1.59707e-13
1.58727e-13
1.57749e-13
1.56883e-13
1.56105e-13
1.55386e-13
1.54727e-13
1.54227e-13
1.53858e-13
1.53683e-13
1.53473e-13
1.53441e-13
1.5344e-13
1.53574e-13
1.5372e-13
1.53885e-13
1.54237e-13
1.54824e-13
1.55344e-13
1.56132e-13
1.56963e-13
1.57887e-13
1.58753e-13
1.59661e-13
1.60614e-13
1.61629e-13
1.62699e-13
1.63946e-13
1.65209e-13
1.66582e-13
1.67915e-13
1.69327e-13
1.70747e-13
1.72149e-13
1.73405e-13
1.7461e-13
1.75803e-13
1.79046e-13
1.77894e-13
1.7666e-13
1.75382e-13
1.74083e-13
1.73e-13
1.71901e-13
1.70754e-13
1.69547e-13
1.68411e-13
1.67405e-13
1.66279e-13
1.65345e-13
1.64303e-13
1.6335e-13
1.62409e-13
1.61564e-13
1.60802e-13
1.60083e-13
1.59432e-13
1.58926e-13
1.58577e-13
1.5842e-13
1.58203e-13
1.58163e-13
1.58154e-13
1.58295e-13
1.5844e-13
1.58604e-13
1.58942e-13
1.59519e-13
1.60037e-13
1.6083e-13
1.6164e-13
1.62554e-13
1.63379e-13
1.64263e-13
1.6515e-13
1.66085e-13
1.67086e-13
1.68251e-13
1.69436e-13
1.70717e-13
1.71941e-13
1.73243e-13
1.74533e-13
1.75796e-13
1.76886e-13
1.7794e-13
1.78977e-13
1.81801e-13
1.80831e-13
1.79736e-13
1.78628e-13
1.77465e-13
1.76536e-13
1.75575e-13
1.74568e-13
1.73475e-13
1.72429e-13
1.71516e-13
1.70485e-13
1.69625e-13
1.68667e-13
1.67749e-13
1.66865e-13
1.66061e-13
1.65334e-13
1.64648e-13
1.64019e-13
1.63522e-13
1.6319e-13
1.63062e-13
1.62854e-13
1.62813e-13
1.62797e-13
1.62943e-13
1.63067e-13
1.63232e-13
1.63544e-13
1.64087e-13
1.64596e-13
1.65364e-13
1.66147e-13
1.67019e-13
1.67795e-13
1.68633e-13
1.69435e-13
1.70273e-13
1.71183e-13
1.7225e-13
1.73323e-13
1.74511e-13
1.75594e-13
1.7677e-13
1.77933e-13
1.79046e-13
1.79959e-13
1.80852e-13
1.81725e-13
1.84106e-13
1.83305e-13
1.82358e-13
1.81426e-13
1.8042e-13
1.79656e-13
1.78827e-13
1.7797e-13
1.77001e-13
1.76059e-13
1.75255e-13
1.74342e-13
1.7356e-13
1.72696e-13
1.71845e-13
1.71014e-13
1.70278e-13
1.69586e-13
1.68958e-13
1.68347e-13
1.6788e-13
1.67575e-13
1.6747e-13
1.67287e-13
1.67248e-13
1.67224e-13
1.6736e-13
1.67473e-13
1.67617e-13
1.67896e-13
1.68414e-13
1.68899e-13
1.69618e-13
1.70374e-13
1.71179e-13
1.7189e-13
1.72683e-13
1.73386e-13
1.74114e-13
1.74919e-13
1.75864e-13
1.76811e-13
1.77895e-13
1.78841e-13
1.79883e-13
1.80893e-13
1.81849e-13
1.82592e-13
1.83317e-13
1.84021e-13
1.85928e-13
1.85314e-13
1.84519e-13
1.83766e-13
1.8292e-13
1.82313e-13
1.81638e-13
1.80938e-13
1.80085e-13
1.79255e-13
1.78571e-13
1.77781e-13
1.77089e-13
1.76327e-13
1.75566e-13
1.74799e-13
1.74138e-13
1.73478e-13
1.72931e-13
1.72344e-13
1.7191e-13
1.71639e-13
1.71563e-13
1.71388e-13
1.71357e-13
1.71338e-13
1.71449e-13
1.71565e-13
1.71667e-13
1.71923e-13
1.72412e-13
1.72846e-13
1.73526e-13
1.7423e-13
1.74962e-13
1.7561e-13
1.76333e-13
1.76929e-13
1.77539e-13
1.78245e-13
1.79045e-13
1.79859e-13
1.80832e-13
1.81631e-13
1.82532e-13
1.83398e-13
1.84181e-13
1.84763e-13
1.85316e-13
1.85847e-13
1.87271e-13
1.86843e-13
1.86186e-13
1.8563e-13
1.84942e-13
1.84484e-13
1.83966e-13
1.83427e-13
1.82694e-13
1.81982e-13
1.81426e-13
1.80763e-13
1.80169e-13
1.79513e-13
1.78864e-13
1.78166e-13
1.77572e-13
1.76966e-13
1.76504e-13
1.75947e-13
1.75549e-13
1.75315e-13
1.75258e-13
1.75107e-13
1.75069e-13
1.75069e-13
1.75159e-13
1.75272e-13
1.7533e-13
1.75558e-13
1.76002e-13
1.76393e-13
1.7703e-13
1.77675e-13
1.7833e-13
1.78891e-13
1.79553e-13
1.80036e-13
1.80522e-13
1.81122e-13
1.81776e-13
1.8245e-13
1.83293e-13
1.83953e-13
1.8471e-13
1.85414e-13
1.86024e-13
1.86441e-13
1.86821e-13
1.87192e-13
1.88129e-13
1.87871e-13
1.87366e-13
1.86991e-13
1.86473e-13
1.86169e-13
1.85794e-13
1.85417e-13
1.84823e-13
1.84231e-13
1.83793e-13
1.83257e-13
1.82783e-13
1.82237e-13
1.81686e-13
1.81076e-13
1.8055e-13
1.80007e-13
1.79618e-13
1.79108e-13
1.78749e-13
1.78539e-13
1.78506e-13
1.78392e-13
1.78335e-13
1.78367e-13
1.78436e-13
1.78531e-13
1.78558e-13
1.78753e-13
1.79139e-13
1.79495e-13
1.80071e-13
1.80653e-13
1.81243e-13
1.81711e-13
1.82295e-13
1.82658e-13
1.83032e-13
1.83524e-13
1.84014e-13
1.84559e-13
1.85258e-13
1.85774e-13
1.86387e-13
1.86942e-13
1.87365e-13
1.87631e-13
1.87838e-13
1.88051e-13
1.88486e-13
1.88397e-13
1.88053e-13
1.87858e-13
1.87507e-13
1.87344e-13
1.87124e-13
1.86912e-13
1.86454e-13
1.85984e-13
1.85669e-13
1.85245e-13
1.84907e-13
1.84472e-13
1.84022e-13
1.83502e-13
1.8303e-13
1.82568e-13
1.82241e-13
1.81793e-13
1.81475e-13
1.81276e-13
1.81286e-13
1.81191e-13
1.81134e-13
1.81179e-13
1.81228e-13
1.81306e-13
1.81314e-13
1.8146e-13
1.81789e-13
1.82103e-13
1.82633e-13
1.8315e-13
1.83673e-13
1.84044e-13
1.84533e-13
1.84775e-13
1.85049e-13
1.85415e-13
1.85743e-13
1.86172e-13
1.86728e-13
1.87098e-13
1.87567e-13
1.8796e-13
1.882e-13
1.88315e-13
1.88351e-13
1.88408e-13
1.88361e-13
1.88422e-13
1.88234e-13
1.88217e-13
1.88024e-13
1.88017e-13
1.87952e-13
1.87888e-13
1.87579e-13
1.87229e-13
1.87025e-13
1.86726e-13
1.8651e-13
1.86185e-13
1.85852e-13
1.85422e-13
1.85008e-13
1.84612e-13
1.8435e-13
1.83977e-13
1.83701e-13
1.83516e-13
1.83555e-13
1.83479e-13
1.83437e-13
1.83495e-13
1.83525e-13
1.83571e-13
1.83572e-13
1.83668e-13
1.83928e-13
1.84211e-13
1.8468e-13
1.85143e-13
1.85599e-13
1.8587e-13
1.86266e-13
1.86385e-13
1.86543e-13
1.86784e-13
1.86967e-13
1.87278e-13
1.87681e-13
1.87904e-13
1.88232e-13
1.8848e-13
1.88541e-13
1.88507e-13
1.88362e-13
1.88268e-13
1.87747e-13
1.87954e-13
1.87926e-13
1.88084e-13
1.88044e-13
1.88176e-13
1.88274e-13
1.88358e-13
1.88178e-13
1.87959e-13
1.87854e-13
1.87692e-13
1.87598e-13
1.87368e-13
1.8715e-13
1.86809e-13
1.86469e-13
1.86125e-13
1.85945e-13
1.85645e-13
1.85396e-13
1.85241e-13
1.85312e-13
1.85252e-13
1.85226e-13
1.85282e-13
1.85308e-13
1.85322e-13
1.85299e-13
1.85346e-13
1.85539e-13
1.85787e-13
1.86195e-13
1.86604e-13
1.86992e-13
1.87178e-13
1.87468e-13
1.87479e-13
1.87507e-13
1.87642e-13
1.87679e-13
1.87859e-13
1.88129e-13
1.88205e-13
1.88383e-13
1.88504e-13
1.8839e-13
1.88199e-13
1.87892e-13
1.86669e-13
1.87003e-13
1.87138e-13
1.87454e-13
1.8757e-13
1.87826e-13
1.88081e-13
1.8831e-13
1.88268e-13
1.88163e-13
1.8817e-13
1.88141e-13
1.88153e-13
1.88015e-13
1.87912e-13
1.87658e-13
1.87391e-13
1.87113e-13
1.87002e-13
1.86771e-13
1.86565e-13
1.86439e-13
1.8653e-13
1.86494e-13
1.86489e-13
1.86542e-13
1.86564e-13
1.86548e-13
1.86499e-13
1.86498e-13
1.86612e-13
1.86838e-13
1.87187e-13
1.87539e-13
1.87848e-13
1.8796e-13
1.88136e-13
1.88038e-13
1.87953e-13
1.87972e-13
1.87879e-13
1.87932e-13
1.8806e-13
1.88005e-13
1.88038e-13
1.88024e-13
1.8775e-13
1.87413e-13
1.8513e-13
1.85595e-13
1.85883e-13
1.86339e-13
1.86602e-13
1.86989e-13
1.87395e-13
1.87752e-13
1.87855e-13
1.87844e-13
1.87976e-13
1.88073e-13
1.88177e-13
1.88128e-13
1.88137e-13
1.87981e-13
1.87787e-13
1.87558e-13
1.87516e-13
1.87353e-13
1.87188e-13
1.87105e-13
1.87204e-13
1.87189e-13
1.87218e-13
1.87257e-13
1.87273e-13
1.87243e-13
1.87168e-13
1.8712e-13
1.87158e-13
1.87346e-13
1.87637e-13
1.87948e-13
1.88165e-13
1.88203e-13
1.88286e-13
1.88079e-13
1.87884e-13
1.87779e-13
1.87572e-13
1.87501e-13
1.87495e-13
1.87299e-13
1.87207e-13
1.87051e-13
1.86636e-13
1.83146e-13
1.83745e-13
1.84175e-13
1.84766e-13
1.85165e-13
1.85679e-13
1.86214e-13
1.86695e-13
1.86934e-13
1.87026e-13
1.87265e-13
1.87483e-13
1.87691e-13
1.87726e-13
1.87832e-13
1.87769e-13
1.87646e-13
1.87477e-13
1.87506e-13
1.87392e-13
1.87267e-13
1.87224e-13
1.87348e-13
1.87352e-13
1.87401e-13
1.8744e-13
1.87437e-13
1.87407e-13
1.87307e-13
1.87198e-13
1.87177e-13
1.87313e-13
1.87562e-13
1.87817e-13
1.87948e-13
1.87911e-13
1.87907e-13
1.87607e-13
1.87292e-13
1.87071e-13
1.86765e-13
1.86563e-13
1.86444e-13
1.86111e-13
1.85888e-13
1.85601e-13
1.80739e-13
1.81472e-13
1.82033e-13
1.82741e-13
1.83277e-13
1.83909e-13
1.84555e-13
1.85153e-13
1.85521e-13
1.85721e-13
1.8605e-13
1.86396e-13
1.86691e-13
1.86819e-13
1.87004e-13
1.87031e-13
1.86977e-13
1.86878e-13
1.86962e-13
1.86896e-13
1.86808e-13
1.86803e-13
1.86968e-13
1.86989e-13
1.87042e-13
1.87096e-13
1.87074e-13
1.8703e-13
1.86905e-13
1.86752e-13
1.86675e-13
1.8676e-13
1.86969e-13
1.87156e-13
1.87205e-13
1.87109e-13
1.87023e-13
1.86633e-13
1.8619e-13
1.85862e-13
1.85459e-13
1.85145e-13
1.84908e-13
1.84457e-13
1.84111e-13
1.77942e-13
1.78798e-13
1.79478e-13
1.80295e-13
1.80946e-13
1.81699e-13
1.82449e-13
1.83158e-13
1.83633e-13
1.83945e-13
1.8436e-13
1.84814e-13
1.85191e-13
1.85419e-13
1.85681e-13
1.8578e-13
1.85806e-13
1.8577e-13
1.8591e-13
1.85889e-13
1.85836e-13
1.85868e-13
1.86059e-13
1.86094e-13
1.86166e-13
1.8622e-13
1.86193e-13
1.86137e-13
1.85975e-13
1.85793e-13
1.85647e-13
1.85697e-13
1.85869e-13
1.85987e-13
1.85963e-13
1.85795e-13
1.85635e-13
1.85157e-13
1.84606e-13
1.8418e-13
1.83682e-13
1.83263e-13
1.82906e-13
1.82354e-13
1.81884e-13
1.74767e-13
1.75734e-13
1.76522e-13
1.77441e-13
1.78194e-13
1.7906e-13
1.79917e-13
1.80718e-13
1.81303e-13
1.81718e-13
1.82213e-13
1.82757e-13
1.83211e-13
1.8353e-13
1.8388e-13
1.84033e-13
1.84134e-13
1.84169e-13
1.84351e-13
1.84372e-13
1.84365e-13
1.8443e-13
1.84635e-13
1.84696e-13
1.84772e-13
1.8484e-13
1.84796e-13
1.84728e-13
1.84544e-13
1.8432e-13
1.84122e-13
1.84139e-13
1.84263e-13
1.84328e-13
1.84224e-13
1.83988e-13
1.8376e-13
1.8321e-13
1.82558e-13
1.82043e-13
1.81455e-13
1.80926e-13
1.8047e-13
1.79813e-13
1.79239e-13
1.71251e-13
1.72309e-13
1.73202e-13
1.74204e-13
1.75059e-13
1.76028e-13
1.76982e-13
1.77857e-13
1.7855e-13
1.79062e-13
1.79618e-13
1.80258e-13
1.80784e-13
1.81187e-13
1.81606e-13
1.8181e-13
1.81994e-13
1.82081e-13
1.82318e-13
1.82364e-13
1.82411e-13
1.82509e-13
1.82729e-13
1.82811e-13
1.82892e-13
1.82974e-13
1.829e-13
1.82834e-13
1.82616e-13
1.82366e-13
1.82118e-13
1.82104e-13
1.82184e-13
1.82187e-13
1.82021e-13
1.8172e-13
1.81419e-13
1.80803e-13
1.80066e-13
1.79459e-13
1.78787e-13
1.78169e-13
1.77623e-13
1.76868e-13
1.7619e-13
1.67417e-13
1.68557e-13
1.69544e-13
1.70621e-13
1.71555e-13
1.72616e-13
1.73659e-13
1.74611e-13
1.75403e-13
1.7599e-13
1.76611e-13
1.7733e-13
1.77932e-13
1.784e-13
1.78897e-13
1.79145e-13
1.79407e-13
1.79541e-13
1.79819e-13
1.79899e-13
1.79997e-13
1.80111e-13
1.80346e-13
1.80449e-13
1.80534e-13
1.8063e-13
1.8054e-13
1.80464e-13
1.80214e-13
1.79939e-13
1.79655e-13
1.79602e-13
1.79643e-13
1.79588e-13
1.79364e-13
1.79015e-13
1.78637e-13
1.77967e-13
1.77144e-13
1.76465e-13
1.75716e-13
1.75015e-13
1.74381e-13
1.73546e-13
1.72774e-13
1.63292e-13
1.64506e-13
1.65566e-13
1.66709e-13
1.6772e-13
1.68864e-13
1.69976e-13
1.70996e-13
1.71877e-13
1.72541e-13
1.73219e-13
1.74011e-13
1.7467e-13
1.75207e-13
1.75766e-13
1.76063e-13
1.76399e-13
1.76573e-13
1.76892e-13
1.77001e-13
1.77134e-13
1.77275e-13
1.77526e-13
1.77634e-13
1.77733e-13
1.77833e-13
1.77738e-13
1.77644e-13
1.77374e-13
1.77077e-13
1.76757e-13
1.76669e-13
1.76675e-13
1.76556e-13
1.7629e-13
1.75896e-13
1.75451e-13
1.74722e-13
1.73818e-13
1.73087e-13
1.72267e-13
1.71492e-13
1.7077e-13
1.69862e-13
1.69008e-13
1.58896e-13
1.60175e-13
1.61306e-13
1.62496e-13
1.63581e-13
1.64789e-13
1.65971e-13
1.67041e-13
1.68002e-13
1.68732e-13
1.69469e-13
1.70317e-13
1.71038e-13
1.71635e-13
1.72241e-13
1.72591e-13
1.72984e-13
1.73204e-13
1.73552e-13
1.73697e-13
1.73861e-13
1.74014e-13
1.7428e-13
1.74404e-13
1.74506e-13
1.74611e-13
1.74511e-13
1.744e-13
1.74122e-13
1.73794e-13
1.7345e-13
1.73332e-13
1.73307e-13
1.7313e-13
1.72826e-13
1.72382e-13
1.71887e-13
1.71095e-13
1.70128e-13
1.69353e-13
1.68469e-13
1.67628e-13
1.66828e-13
1.65847e-13
1.6493e-13
1.54259e-13
1.55591e-13
1.56784e-13
1.58019e-13
1.59166e-13
1.6043e-13
1.61664e-13
1.62784e-13
1.63808e-13
1.64594e-13
1.65389e-13
1.66288e-13
1.67053e-13
1.67713e-13
1.68352e-13
1.68757e-13
1.69194e-13
1.69463e-13
1.69827e-13
1.70015e-13
1.70196e-13
1.7037e-13
1.70651e-13
1.70787e-13
1.70891e-13
1.70991e-13
1.70887e-13
1.70761e-13
1.70475e-13
1.7012e-13
1.69765e-13
1.69619e-13
1.69559e-13
1.69338e-13
1.6899e-13
1.68511e-13
1.67964e-13
1.67118e-13
1.661e-13
1.65282e-13
1.6435e-13
1.6345e-13
1.62576e-13
1.61538e-13
1.49413e-13
1.50782e-13
1.52026e-13
1.53305e-13
1.54504e-13
1.55807e-13
1.57093e-13
1.58254e-13
1.59325e-13
1.60165e-13
1.6101e-13
1.61944e-13
1.62756e-13
1.63462e-13
1.64139e-13
1.64591e-13
1.65058e-13
1.6537e-13
1.6575e-13
1.65975e-13
1.6618e-13
1.6637e-13
1.66657e-13
1.66804e-13
1.66918e-13
1.67006e-13
1.66898e-13
1.66758e-13
1.66475e-13
1.66095e-13
1.65729e-13
1.6556e-13
1.6546e-13
1.6521e-13
1.64823e-13
1.64304e-13
1.63713e-13
1.6282e-13
1.61766e-13
1.60904e-13
1.59938e-13
1.5899e-13
1.58043e-13
1.56964e-13
1.44385e-13
1.45782e-13
1.47061e-13
1.48375e-13
1.49622e-13
1.50956e-13
1.52277e-13
1.53479e-13