/*--------------------------------*- C++ -*----------------------------------*\
  =========                 |
  \\      /  F ield         | OpenFOAM: The Open Source CFD Toolbox
   \\    /   O peration     | Website:  https://openfoam.org
    \\  /    A nd           | Version:  7
     \\/     M anipulation  |
\*---------------------------------------------------------------------------*/
FoamFile
{
    version     2.0;
    format      ascii;
    class       volScalarField;
    location    "196000";
    object      k;
}
// * * * * * * * * * * * * * * * * * * * * * * * * * * * * * * * * * * * * * //

dimensions      [0 2 -2 0 0 0 0];

internalField   nonuniform List<scalar> 
4782
(
1.30203e-06
1.29324e-06
1.28381e-06
1.27369e-06
1.26285e-06
1.25124e-06
1.23881e-06
1.22552e-06
1.21131e-06
1.19612e-06
1.33214e-06
1.33618e-06
1.34008e-06
1.34382e-06
1.34741e-06
1.35085e-06
1.35413e-06
1.35725e-06
1.36021e-06
1.363e-06
1.36562e-06
1.36807e-06
1.37034e-06
1.37243e-06
1.37432e-06
1.37603e-06
1.37754e-06
1.37884e-06
1.37994e-06
1.38082e-06
1.38149e-06
1.38193e-06
1.38214e-06
1.38211e-06
1.38184e-06
1.38131e-06
1.38053e-06
1.37947e-06
1.37814e-06
1.37652e-06
1.3746e-06
1.37237e-06
1.36982e-06
1.36694e-06
1.36371e-06
1.36012e-06
1.35615e-06
1.35179e-06
1.34701e-06
1.3418e-06
1.33614e-06
1.33001e-06
1.32337e-06
1.31621e-06
1.3085e-06
1.3002e-06
1.29129e-06
1.28172e-06
1.27147e-06
1.26049e-06
1.24874e-06
1.23617e-06
1.22273e-06
1.20836e-06
1.19302e-06
1.33398e-06
1.33796e-06
1.34179e-06
1.34547e-06
1.34899e-06
1.35237e-06
1.35558e-06
1.35864e-06
1.36153e-06
1.36425e-06
1.36681e-06
1.36919e-06
1.37139e-06
1.3734e-06
1.37523e-06
1.37686e-06
1.3783e-06
1.37953e-06
1.38055e-06
1.38136e-06
1.38195e-06
1.38231e-06
1.38244e-06
1.38233e-06
1.38198e-06
1.38137e-06
1.3805e-06
1.37936e-06
1.37795e-06
1.37624e-06
1.37423e-06
1.37192e-06
1.36928e-06
1.3663e-06
1.36297e-06
1.35929e-06
1.35522e-06
1.35075e-06
1.34587e-06
1.34055e-06
1.33478e-06
1.32853e-06
1.32178e-06
1.3145e-06
1.30667e-06
1.29824e-06
1.2892e-06
1.27951e-06
1.26912e-06
1.258e-06
1.2461e-06
1.23338e-06
1.21978e-06
1.20525e-06
1.18974e-06
1.33581e-06
1.33972e-06
1.34349e-06
1.3471e-06
1.35056e-06
1.35387e-06
1.35702e-06
1.36e-06
1.36283e-06
1.36548e-06
1.36797e-06
1.37027e-06
1.3724e-06
1.37434e-06
1.37609e-06
1.37765e-06
1.37901e-06
1.38016e-06
1.38111e-06
1.38183e-06
1.38234e-06
1.38263e-06
1.38268e-06
1.38249e-06
1.38205e-06
1.38136e-06
1.3804e-06
1.37918e-06
1.37767e-06
1.37588e-06
1.37378e-06
1.37137e-06
1.36863e-06
1.36556e-06
1.36214e-06
1.35835e-06
1.35418e-06
1.3496e-06
1.34462e-06
1.33919e-06
1.33331e-06
1.32694e-06
1.32007e-06
1.31267e-06
1.30471e-06
1.29615e-06
1.28698e-06
1.27714e-06
1.26661e-06
1.25535e-06
1.2433e-06
1.23042e-06
1.21666e-06
1.20198e-06
1.18629e-06
1.33763e-06
1.34148e-06
1.34517e-06
1.34872e-06
1.35211e-06
1.35534e-06
1.35842e-06
1.36134e-06
1.36409e-06
1.36667e-06
1.36908e-06
1.37131e-06
1.37336e-06
1.37523e-06
1.3769e-06
1.37838e-06
1.37966e-06
1.38073e-06
1.38159e-06
1.38224e-06
1.38267e-06
1.38287e-06
1.38283e-06
1.38256e-06
1.38204e-06
1.38126e-06
1.38021e-06
1.3789e-06
1.3773e-06
1.37541e-06
1.37322e-06
1.37072e-06
1.36788e-06
1.36471e-06
1.36119e-06
1.35729e-06
1.35301e-06
1.34834e-06
1.34324e-06
1.3377e-06
1.3317e-06
1.32521e-06
1.31822e-06
1.31069e-06
1.3026e-06
1.29391e-06
1.2846e-06
1.27462e-06
1.26395e-06
1.25253e-06
1.24033e-06
1.22729e-06
1.21337e-06
1.19851e-06
1.18265e-06
1.33763e-06
1.34148e-06
1.34517e-06
1.34872e-06
1.35211e-06
1.35534e-06
1.35842e-06
1.36134e-06
1.36409e-06
1.36667e-06
1.36908e-06
1.37131e-06
1.37336e-06
1.37523e-06
1.3769e-06
1.37838e-06
1.37966e-06
1.38073e-06
1.38159e-06
1.38224e-06
1.38267e-06
1.38287e-06
1.38283e-06
1.38256e-06
1.38204e-06
1.38126e-06
1.38021e-06
1.3789e-06
1.3773e-06
1.37541e-06
1.37322e-06
1.37072e-06
1.36788e-06
1.36471e-06
1.36119e-06
1.35729e-06
1.35301e-06
1.34834e-06
1.34324e-06
1.3377e-06
1.3317e-06
1.32521e-06
1.31822e-06
1.31069e-06
1.3026e-06
1.29391e-06
1.2846e-06
1.27462e-06
1.26395e-06
1.25253e-06
1.24033e-06
1.22729e-06
1.21337e-06
1.19851e-06
1.18265e-06
1.33581e-06
1.33972e-06
1.34349e-06
1.3471e-06
1.35056e-06
1.35387e-06
1.35702e-06
1.36e-06
1.36283e-06
1.36548e-06
1.36797e-06
1.37027e-06
1.3724e-06
1.37434e-06
1.37609e-06
1.37765e-06
1.37901e-06
1.38016e-06
1.38111e-06
1.38183e-06
1.38234e-06
1.38263e-06
1.38268e-06
1.38249e-06
1.38205e-06
1.38136e-06
1.3804e-06
1.37918e-06
1.37767e-06
1.37588e-06
1.37378e-06
1.37137e-06
1.36863e-06
1.36556e-06
1.36214e-06
1.35835e-06
1.35418e-06
1.3496e-06
1.34462e-06
1.33919e-06
1.33331e-06
1.32694e-06
1.32007e-06
1.31267e-06
1.30471e-06
1.29615e-06
1.28698e-06
1.27714e-06
1.26661e-06
1.25535e-06
1.2433e-06
1.23042e-06
1.21666e-06
1.20198e-06
1.18629e-06
1.16956e-06
1.1517e-06
1.13265e-06
1.11233e-06
1.33398e-06
1.33796e-06
1.34179e-06
1.34547e-06
1.34899e-06
1.35237e-06
1.35558e-06
1.35864e-06
1.36153e-06
1.36425e-06
1.36681e-06
1.36919e-06
1.37139e-06
1.3734e-06
1.37523e-06
1.37686e-06
1.3783e-06
1.37953e-06
1.38055e-06
1.38136e-06
1.38195e-06
1.38231e-06
1.38244e-06
1.38233e-06
1.38198e-06
1.38137e-06
1.3805e-06
1.37936e-06
1.37795e-06
1.37624e-06
1.37423e-06
1.37192e-06
1.36928e-06
1.3663e-06
1.36297e-06
1.35929e-06
1.35522e-06
1.35075e-06
1.34587e-06
1.34055e-06
1.33478e-06
1.32853e-06
1.32178e-06
1.3145e-06
1.30667e-06
1.29824e-06
1.2892e-06
1.27951e-06
1.26912e-06
1.258e-06
1.2461e-06
1.23338e-06
1.21978e-06
1.20525e-06
1.18974e-06
1.17318e-06
1.1555e-06
1.13663e-06
1.1165e-06
1.09502e-06
1.33214e-06
1.33618e-06
1.34008e-06
1.34382e-06
1.34741e-06
1.35085e-06
1.35413e-06
1.35725e-06
1.36021e-06
1.363e-06
1.36562e-06
1.36807e-06
1.37034e-06
1.37243e-06
1.37432e-06
1.37603e-06
1.37754e-06
1.37884e-06
1.37994e-06
1.38082e-06
1.38149e-06
1.38193e-06
1.38214e-06
1.38211e-06
1.38184e-06
1.38131e-06
1.38052e-06
1.37947e-06
1.37814e-06
1.37652e-06
1.3746e-06
1.37237e-06
1.36982e-06
1.36694e-06
1.36371e-06
1.36012e-06
1.35615e-06
1.35179e-06
1.34701e-06
1.3418e-06
1.33614e-06
1.33001e-06
1.32337e-06
1.31621e-06
1.3085e-06
1.3002e-06
1.29129e-06
1.28172e-06
1.27147e-06
1.26049e-06
1.24874e-06
1.23617e-06
1.22273e-06
1.20836e-06
1.19302e-06
1.17662e-06
1.15912e-06
1.14043e-06
1.12048e-06
1.09919e-06
1.07647e-06
1.05224e-06
1.0264e-06
9.98851e-07
9.69509e-07
9.38273e-07
9.05052e-07
8.69763e-07
8.32332e-07
7.92699e-07
7.50813e-07
7.06569e-07
6.59954e-07
6.11067e-07
5.60112e-07
5.07431e-07
4.53527e-07
3.9909e-07
3.44995e-07
2.92282e-07
2.42086e-07
1.95531e-07
1.53604e-07
1.17028e-07
8.61814e-08
6.10748e-08
4.13967e-08
2.65958e-08
1.59767e-08
8.78436e-09
4.26793e-09
1.72175e-09
5.10085e-10
8.38158e-11
3.62297e-12
1.33031e-06
1.33441e-06
1.33837e-06
1.34217e-06
1.34583e-06
1.34933e-06
1.35267e-06
1.35585e-06
1.35887e-06
1.36173e-06
1.36442e-06
1.36693e-06
1.36927e-06
1.37142e-06
1.37339e-06
1.37516e-06
1.37674e-06
1.37812e-06
1.37929e-06
1.38024e-06
1.38098e-06
1.3815e-06
1.38178e-06
1.38183e-06
1.38164e-06
1.38119e-06
1.38049e-06
1.37951e-06
1.37826e-06
1.37673e-06
1.37489e-06
1.37275e-06
1.37029e-06
1.3675e-06
1.36437e-06
1.36087e-06
1.357e-06
1.35273e-06
1.34805e-06
1.34295e-06
1.3374e-06
1.33137e-06
1.32484e-06
1.3178e-06
1.3102e-06
1.30203e-06
1.29324e-06
1.28381e-06
1.27369e-06
1.26285e-06
1.25123e-06
1.23881e-06
1.22552e-06
1.21131e-06
1.19612e-06
1.17989e-06
1.16255e-06
1.14403e-06
1.12426e-06
1.10315e-06
1.08061e-06
1.05657e-06
1.03091e-06
1.00356e-06
9.74402e-07
9.4335e-07
9.10307e-07
8.75186e-07
8.37911e-07
7.98418e-07
7.56653e-07
7.12517e-07
6.65982e-07
6.1713e-07
5.66153e-07
5.13378e-07
4.59298e-07
4.04589e-07
3.50124e-07
2.96945e-07
2.46201e-07
1.99042e-07
1.5649e-07
1.19306e-07
8.7902e-08
6.23137e-08
4.22428e-08
2.71394e-08
1.63008e-08
8.95986e-09
4.35099e-09
1.75379e-09
5.18802e-10
8.49877e-11
3.64952e-12
1.32849e-06
1.33266e-06
1.33667e-06
1.34054e-06
1.34425e-06
1.34781e-06
1.35121e-06
1.35446e-06
1.35754e-06
1.36046e-06
1.36321e-06
1.36578e-06
1.36818e-06
1.3704e-06
1.37244e-06
1.37428e-06
1.37592e-06
1.37737e-06
1.37861e-06
1.37964e-06
1.38045e-06
1.38103e-06
1.38139e-06
1.38152e-06
1.3814e-06
1.38103e-06
1.3804e-06
1.3795e-06
1.37834e-06
1.37688e-06
1.37513e-06
1.37307e-06
1.3707e-06
1.368e-06
1.36495e-06
1.36154e-06
1.35776e-06
1.35359e-06
1.34902e-06
1.34401e-06
1.33856e-06
1.33264e-06
1.32622e-06
1.31929e-06
1.3118e-06
1.30375e-06
1.29508e-06
1.28577e-06
1.27578e-06
1.26507e-06
1.25359e-06
1.24131e-06
1.22816e-06
1.2141e-06
1.19906e-06
1.18299e-06
1.16582e-06
1.14747e-06
1.12786e-06
1.10693e-06
1.08457e-06
1.0607e-06
1.03523e-06
1.00806e-06
9.79083e-07
9.48209e-07
9.15339e-07
8.80384e-07
8.43263e-07
8.03909e-07
7.62265e-07
7.18238e-07
6.71785e-07
6.22973e-07
5.71981e-07
5.19125e-07
4.64882e-07
4.09921e-07
3.55107e-07
3.01484e-07
2.50214e-07
2.02474e-07
1.59316e-07
1.2154e-07
8.95912e-08
6.35312e-08
4.30748e-08
2.7674e-08
1.66196e-08
9.13243e-09
4.43263e-09
1.78526e-09
5.27352e-10
8.61333e-11
3.67529e-12
1.3267e-06
1.33093e-06
1.335e-06
1.33892e-06
1.34269e-06
1.34631e-06
1.34977e-06
1.35307e-06
1.35621e-06
1.35919e-06
1.362e-06
1.36464e-06
1.3671e-06
1.36938e-06
1.37148e-06
1.37339e-06
1.3751e-06
1.37661e-06
1.37792e-06
1.37901e-06
1.37989e-06
1.38055e-06
1.38098e-06
1.38117e-06
1.38113e-06
1.38083e-06
1.38028e-06
1.37946e-06
1.37837e-06
1.37699e-06
1.37532e-06
1.37335e-06
1.37105e-06
1.36843e-06
1.36547e-06
1.36215e-06
1.35846e-06
1.35439e-06
1.3499e-06
1.34499e-06
1.33964e-06
1.33382e-06
1.32751e-06
1.32068e-06
1.31331e-06
1.30536e-06
1.29681e-06
1.28762e-06
1.27775e-06
1.26717e-06
1.25583e-06
1.24368e-06
1.23067e-06
1.21675e-06
1.20186e-06
1.18594e-06
1.16892e-06
1.15073e-06
1.13129e-06
1.11052e-06
1.08834e-06
1.06464e-06
1.03935e-06
1.01235e-06
9.83552e-07
9.52851e-07
9.2015e-07
8.85357e-07
8.48386e-07
8.09169e-07
7.67644e-07
7.23726e-07
6.77357e-07
6.28589e-07
5.77591e-07
5.24663e-07
4.70273e-07
4.15076e-07
3.59932e-07
3.05888e-07
2.54117e-07
2.05817e-07
1.62074e-07
1.23723e-07
9.12441e-08
6.47236e-08
4.38901e-08
2.81981e-08
1.69322e-08
9.30158e-09
4.51261e-09
1.81606e-09
5.35711e-10
8.72503e-11
3.70026e-12
1.32495e-06
1.32923e-06
1.33336e-06
1.33734e-06
1.34117e-06
1.34484e-06
1.34836e-06
1.35171e-06
1.35491e-06
1.35794e-06
1.36081e-06
1.36351e-06
1.36603e-06
1.36837e-06
1.37053e-06
1.3725e-06
1.37427e-06
1.37585e-06
1.37722e-06
1.37838e-06
1.37933e-06
1.38005e-06
1.38055e-06
1.38081e-06
1.38084e-06
1.38061e-06
1.38013e-06
1.37938e-06
1.37837e-06
1.37706e-06
1.37547e-06
1.37357e-06
1.37136e-06
1.36882e-06
1.36594e-06
1.36271e-06
1.35911e-06
1.35512e-06
1.35072e-06
1.34591e-06
1.34065e-06
1.33492e-06
1.32871e-06
1.32199e-06
1.31472e-06
1.30688e-06
1.29844e-06
1.28937e-06
1.27962e-06
1.26915e-06
1.25793e-06
1.24591e-06
1.23304e-06
1.21926e-06
1.20451e-06
1.18873e-06
1.17186e-06
1.15383e-06
1.13454e-06
1.11394e-06
1.09192e-06
1.06839e-06
1.04326e-06
1.01644e-06
9.87807e-07
9.57274e-07
9.24736e-07
8.90099e-07
8.53275e-07
8.14191e-07
7.72785e-07
7.28975e-07
6.82691e-07
6.3397e-07
5.82971e-07
5.29982e-07
4.75456e-07
4.20041e-07
3.64588e-07
3.10146e-07
2.57896e-07
2.0906e-07
1.64754e-07
1.25848e-07
9.28548e-08
6.58866e-08
4.46857e-08
2.87096e-08
1.72373e-08
9.46668e-09
4.59065e-09
1.8461e-09
5.43852e-10
8.83352e-11
3.72437e-12
1.32325e-06
1.32758e-06
1.33177e-06
1.3358e-06
1.33968e-06
1.3434e-06
1.34697e-06
1.35038e-06
1.35364e-06
1.35672e-06
1.35965e-06
1.3624e-06
1.36498e-06
1.36738e-06
1.3696e-06
1.37162e-06
1.37346e-06
1.37509e-06
1.37653e-06
1.37775e-06
1.37876e-06
1.37955e-06
1.38011e-06
1.38044e-06
1.38053e-06
1.38037e-06
1.37996e-06
1.37929e-06
1.37834e-06
1.37711e-06
1.37559e-06
1.37377e-06
1.37163e-06
1.36917e-06
1.36637e-06
1.36322e-06
1.35969e-06
1.35579e-06
1.35148e-06
1.34675e-06
1.34158e-06
1.33595e-06
1.32984e-06
1.32321e-06
1.31604e-06
1.30831e-06
1.29997e-06
1.291e-06
1.28137e-06
1.27102e-06
1.25992e-06
1.24802e-06
1.23527e-06
1.22162e-06
1.20701e-06
1.19137e-06
1.17465e-06
1.15675e-06
1.13762e-06
1.11717e-06
1.09531e-06
1.07194e-06
1.04697e-06
1.02031e-06
9.91843e-07
9.61471e-07
9.29091e-07
8.94605e-07
8.57923e-07
8.1897e-07
7.77679e-07
7.33975e-07
6.87775e-07
6.39105e-07
5.8811e-07
5.35068e-07
4.8042e-07
4.24802e-07
3.69061e-07
3.14243e-07
2.6154e-07
2.12193e-07
1.67347e-07
1.27906e-07
9.44171e-08
6.70155e-08
4.54584e-08
2.92067e-08
1.75337e-08
9.62708e-09
4.66645e-09
1.87526e-09
5.51743e-10
8.93842e-11
3.74756e-12
1.32161e-06
1.32599e-06
1.33022e-06
1.3343e-06
1.33824e-06
1.34201e-06
1.34563e-06
1.3491e-06
1.3524e-06
1.35554e-06
1.35851e-06
1.36132e-06
1.36395e-06
1.36641e-06
1.36868e-06
1.37077e-06
1.37266e-06
1.37435e-06
1.37584e-06
1.37713e-06
1.3782e-06
1.37905e-06
1.37967e-06
1.38007e-06
1.38022e-06
1.38013e-06
1.37978e-06
1.37917e-06
1.37829e-06
1.37713e-06
1.37568e-06
1.37393e-06
1.37186e-06
1.36948e-06
1.36675e-06
1.36367e-06
1.36023e-06
1.35641e-06
1.35218e-06
1.34754e-06
1.34245e-06
1.33691e-06
1.33088e-06
1.32435e-06
1.31727e-06
1.30964e-06
1.3014e-06
1.29254e-06
1.28301e-06
1.27277e-06
1.26179e-06
1.25e-06
1.23737e-06
1.22385e-06
1.20936e-06
1.19386e-06
1.17727e-06
1.15951e-06
1.14053e-06
1.12022e-06
1.0985e-06
1.07529e-06
1.05048e-06
1.02397e-06
9.95658e-07
9.6544e-07
9.3321e-07
8.98869e-07
8.62325e-07
8.23497e-07
7.82319e-07
7.38719e-07
6.92603e-07
6.43984e-07
5.92998e-07
5.39911e-07
4.85152e-07
4.29349e-07
3.73339e-07
3.18167e-07
2.65036e-07
2.15203e-07
1.69843e-07
1.29891e-07
9.59247e-08
6.81059e-08
4.62052e-08
2.96871e-08
1.78203e-08
9.78212e-09
4.73969e-09
1.90341e-09
5.59355e-10
9.03937e-11
3.76977e-12
1.32003e-06
1.32446e-06
1.32874e-06
1.33287e-06
1.33685e-06
1.34067e-06
1.34434e-06
1.34785e-06
1.35121e-06
1.3544e-06
1.35742e-06
1.36028e-06
1.36296e-06
1.36547e-06
1.36779e-06
1.36993e-06
1.37188e-06
1.37363e-06
1.37518e-06
1.37652e-06
1.37764e-06
1.37855e-06
1.37924e-06
1.37969e-06
1.3799e-06
1.37987e-06
1.37959e-06
1.37904e-06
1.37822e-06
1.37713e-06
1.37574e-06
1.37406e-06
1.37206e-06
1.36975e-06
1.36709e-06
1.36409e-06
1.36072e-06
1.35697e-06
1.35282e-06
1.34825e-06
1.34325e-06
1.33779e-06
1.33185e-06
1.3254e-06
1.31842e-06
1.31087e-06
1.30274e-06
1.29397e-06
1.28454e-06
1.27441e-06
1.26353e-06
1.25186e-06
1.23934e-06
1.22593e-06
1.21157e-06
1.19619e-06
1.17972e-06
1.1621e-06
1.14325e-06
1.12308e-06
1.10151e-06
1.07844e-06
1.05377e-06
1.02741e-06
9.99246e-07
9.69175e-07
9.37089e-07
9.02886e-07
8.66473e-07
8.27766e-07
7.86697e-07
7.43197e-07
6.97163e-07
6.48597e-07
5.97623e-07
5.44498e-07
4.89641e-07
4.33667e-07
3.77407e-07
3.21906e-07
2.68373e-07
2.18081e-07
1.72232e-07
1.31793e-07
9.73715e-08
6.91531e-08
4.69227e-08
3.01489e-08
1.80957e-08
9.93113e-09
4.81006e-09
1.93045e-09
5.66657e-10
9.13598e-11
3.79092e-12
1.31852e-06
1.32299e-06
1.32732e-06
1.3315e-06
1.33552e-06
1.33939e-06
1.34311e-06
1.34667e-06
1.35006e-06
1.3533e-06
1.35637e-06
1.35928e-06
1.36201e-06
1.36457e-06
1.36694e-06
1.36913e-06
1.37113e-06
1.37293e-06
1.37453e-06
1.37592e-06
1.3771e-06
1.37807e-06
1.37881e-06
1.37931e-06
1.37959e-06
1.37961e-06
1.37939e-06
1.3789e-06
1.37814e-06
1.37711e-06
1.37579e-06
1.37417e-06
1.37223e-06
1.36998e-06
1.36739e-06
1.36446e-06
1.36116e-06
1.35748e-06
1.3534e-06
1.34891e-06
1.34399e-06
1.3386e-06
1.33274e-06
1.32638e-06
1.31948e-06
1.31202e-06
1.30397e-06
1.2953e-06
1.28596e-06
1.27593e-06
1.26515e-06
1.25358e-06
1.24117e-06
1.22787e-06
1.21362e-06
1.19835e-06
1.18201e-06
1.16451e-06
1.14579e-06
1.12575e-06
1.10431e-06
1.08138e-06
1.05685e-06
1.03063e-06
1.0026e-06
9.7267e-07
9.4072e-07
9.06649e-07
8.70361e-07
8.31769e-07
7.90804e-07
7.47402e-07
7.01448e-07
6.52934e-07
6.01976e-07
5.4882e-07
4.93874e-07
4.37743e-07
3.81254e-07
3.25447e-07
2.71537e-07
2.20815e-07
1.74505e-07
1.33605e-07
9.8751e-08
7.01523e-08
4.76078e-08
3.05898e-08
1.83588e-08
1.00734e-08
4.87723e-09
1.95624e-09
5.73616e-10
9.22785e-11
3.81093e-12
1.31709e-06
1.32161e-06
1.32598e-06
1.3302e-06
1.33426e-06
1.33818e-06
1.34194e-06
1.34554e-06
1.34898e-06
1.35226e-06
1.35537e-06
1.35832e-06
1.3611e-06
1.3637e-06
1.36612e-06
1.36836e-06
1.37041e-06
1.37226e-06
1.37391e-06
1.37535e-06
1.37658e-06
1.3776e-06
1.37839e-06
1.37895e-06
1.37927e-06
1.37935e-06
1.37918e-06
1.37875e-06
1.37805e-06
1.37707e-06
1.37581e-06
1.37425e-06
1.37238e-06
1.37019e-06
1.36766e-06
1.36479e-06
1.36155e-06
1.35794e-06
1.35393e-06
1.34951e-06
1.34465e-06
1.33934e-06
1.33356e-06
1.32727e-06
1.32045e-06
1.31307e-06
1.3051e-06
1.29652e-06
1.28727e-06
1.27732e-06
1.26664e-06
1.25516e-06
1.24286e-06
1.22966e-06
1.21551e-06
1.20036e-06
1.18413e-06
1.16675e-06
1.14814e-06
1.12822e-06
1.10691e-06
1.0841e-06
1.0597e-06
1.03361e-06
1.00572e-06
9.75912e-07
9.4409e-07
9.10144e-07
8.73973e-07
8.35491e-07
7.94624e-07
7.51309e-07
7.0543e-07
6.56968e-07
6.06029e-07
5.52849e-07
4.97825e-07
4.41555e-07
3.84856e-07
3.28767e-07
2.74509e-07
2.23387e-07
1.76647e-07
1.35314e-07
1.00054e-07
7.10967e-08
4.82556e-08
3.10069e-08
1.86076e-08
1.0208e-08
4.94074e-09
1.98061e-09
5.80182e-10
9.31429e-11
3.82961e-12
1.31575e-06
1.3203e-06
1.32471e-06
1.32897e-06
1.33308e-06
1.33703e-06
1.34083e-06
1.34447e-06
1.34796e-06
1.35128e-06
1.35443e-06
1.35742e-06
1.36024e-06
1.36289e-06
1.36535e-06
1.36763e-06
1.36972e-06
1.37162e-06
1.37331e-06
1.3748e-06
1.37608e-06
1.37715e-06
1.37798e-06
1.37859e-06
1.37897e-06
1.3791e-06
1.37898e-06
1.3786e-06
1.37795e-06
1.37703e-06
1.37581e-06
1.37431e-06
1.37249e-06
1.37036e-06
1.36789e-06
1.36508e-06
1.3619e-06
1.35835e-06
1.35441e-06
1.35005e-06
1.34526e-06
1.34002e-06
1.3343e-06
1.32808e-06
1.32133e-06
1.31403e-06
1.30614e-06
1.29763e-06
1.28846e-06
1.2786e-06
1.268e-06
1.25662e-06
1.2444e-06
1.2313e-06
1.21725e-06
1.2022e-06
1.18607e-06
1.1688e-06
1.1503e-06
1.1305e-06
1.1093e-06
1.08661e-06
1.06233e-06
1.03636e-06
1.00859e-06
9.78904e-07
9.47201e-07
9.13371e-07
8.77311e-07
8.38931e-07
7.98156e-07
7.54921e-07
7.09113e-07
6.60702e-07
6.09784e-07
5.56585e-07
5.01494e-07
4.45097e-07
3.88208e-07
3.31862e-07
2.77284e-07
2.25791e-07
1.78651e-07
1.36916e-07
1.01276e-07
7.19832e-08
4.8864e-08
3.13988e-08
1.88414e-08
1.03344e-08
5.00038e-09
2.00348e-09
5.86339e-10
9.39514e-11
3.84695e-12
1.31449e-06
1.31909e-06
1.32353e-06
1.32783e-06
1.33197e-06
1.33597e-06
1.3398e-06
1.34348e-06
1.347e-06
1.35036e-06
1.35355e-06
1.35658e-06
1.35944e-06
1.36212e-06
1.36463e-06
1.36695e-06
1.36908e-06
1.37102e-06
1.37276e-06
1.37429e-06
1.37561e-06
1.37672e-06
1.3776e-06
1.37825e-06
1.37867e-06
1.37885e-06
1.37878e-06
1.37844e-06
1.37784e-06
1.37697e-06
1.37581e-06
1.37435e-06
1.37259e-06
1.37051e-06
1.36809e-06
1.36533e-06
1.36221e-06
1.35872e-06
1.35483e-06
1.35053e-06
1.3458e-06
1.34062e-06
1.33497e-06
1.32881e-06
1.32213e-06
1.3149e-06
1.30708e-06
1.29864e-06
1.28955e-06
1.27977e-06
1.26925e-06
1.25795e-06
1.24582e-06
1.2328e-06
1.21884e-06
1.20388e-06
1.18785e-06
1.17068e-06
1.15228e-06
1.13258e-06
1.11149e-06
1.08891e-06
1.06474e-06
1.03888e-06
1.01122e-06
9.81651e-07
9.50059e-07
9.16336e-07
8.80378e-07
8.42094e-07
8.01406e-07
7.58245e-07
7.12504e-07
6.64143e-07
6.13246e-07
5.60032e-07
5.04882e-07
4.48373e-07
3.91311e-07
3.3473e-07
2.79859e-07
2.28025e-07
1.80516e-07
1.38408e-07
1.02415e-07
7.28102e-08
4.94317e-08
3.17645e-08
1.90596e-08
1.04524e-08
5.05603e-09
2.02482e-09
5.92077e-10
9.47034e-11
3.86303e-12
1.31334e-06
1.31796e-06
1.32244e-06
1.32677e-06
1.33095e-06
1.33498e-06
1.33885e-06
1.34256e-06
1.34612e-06
1.34951e-06
1.35274e-06
1.3558e-06
1.3587e-06
1.36142e-06
1.36396e-06
1.36631e-06
1.36848e-06
1.37046e-06
1.37224e-06
1.37381e-06
1.37517e-06
1.37632e-06
1.37724e-06
1.37793e-06
1.3784e-06
1.37861e-06
1.37858e-06
1.37829e-06
1.37774e-06
1.37691e-06
1.37579e-06
1.37438e-06
1.37267e-06
1.37063e-06
1.36826e-06
1.36555e-06
1.36249e-06
1.35904e-06
1.35521e-06
1.35096e-06
1.34629e-06
1.34116e-06
1.33557e-06
1.32947e-06
1.32286e-06
1.31568e-06
1.30793e-06
1.29956e-06
1.29054e-06
1.28082e-06
1.27038e-06
1.25915e-06
1.2471e-06
1.23416e-06
1.22029e-06
1.20541e-06
1.18947e-06
1.17238e-06
1.15408e-06
1.13447e-06
1.11348e-06
1.091e-06
1.06693e-06
1.04117e-06
1.01362e-06
9.84152e-07
9.52662e-07
9.19038e-07
8.83175e-07
8.4498e-07
8.04371e-07
7.6128e-07
7.15601e-07
6.67287e-07
6.16412e-07
5.63187e-07
5.07984e-07
4.51375e-07
3.94158e-07
3.37365e-07
2.82226e-07
2.30082e-07
1.82235e-07
1.39784e-07
1.03467e-07
7.35741e-08
4.99564e-08
3.21026e-08
1.92614e-08
1.05615e-08
5.10747e-09
2.04453e-09
5.97373e-10
9.53966e-11
3.87779e-12
1.31228e-06
1.31694e-06
1.32145e-06
1.32581e-06
1.33002e-06
1.33408e-06
1.33798e-06
1.34172e-06
1.34531e-06
1.34873e-06
1.352e-06
1.35509e-06
1.35802e-06
1.36077e-06
1.36334e-06
1.36573e-06
1.36794e-06
1.36995e-06
1.37176e-06
1.37336e-06
1.37476e-06
1.37594e-06
1.37691e-06
1.37764e-06
1.37814e-06
1.37839e-06
1.3784e-06
1.37815e-06
1.37763e-06
1.37684e-06
1.37577e-06
1.3744e-06
1.37273e-06
1.37074e-06
1.36841e-06
1.36575e-06
1.36273e-06
1.35933e-06
1.35554e-06
1.35135e-06
1.34672e-06
1.34165e-06
1.3361e-06
1.33006e-06
1.3235e-06
1.31639e-06
1.30869e-06
1.30038e-06
1.29142e-06
1.28177e-06
1.27139e-06
1.26023e-06
1.24825e-06
1.23538e-06
1.22158e-06
1.20679e-06
1.19092e-06
1.17392e-06
1.1557e-06
1.13618e-06
1.11527e-06
1.09288e-06
1.06891e-06
1.04324e-06
1.01578e-06
9.86407e-07
9.55009e-07
9.21475e-07
8.85699e-07
8.47584e-07
8.07049e-07
7.64021e-07
7.18401e-07
6.70129e-07
6.19275e-07
5.66042e-07
5.10795e-07
4.54097e-07
3.96741e-07
3.39758e-07
2.84379e-07
2.31954e-07
1.83802e-07
1.4104e-07
1.04427e-07
7.42719e-08
5.04358e-08
3.24116e-08
1.94458e-08
1.06612e-08
5.15447e-09
2.06253e-09
6.02208e-10
9.60284e-11
3.89121e-12
1.31134e-06
1.31602e-06
1.32056e-06
1.32495e-06
1.32918e-06
1.33327e-06
1.3372e-06
1.34097e-06
1.34458e-06
1.34804e-06
1.35132e-06
1.35445e-06
1.3574e-06
1.36018e-06
1.36279e-06
1.36521e-06
1.36744e-06
1.36948e-06
1.37132e-06
1.37296e-06
1.37439e-06
1.37561e-06
1.3766e-06
1.37737e-06
1.3779e-06
1.37819e-06
1.37823e-06
1.37802e-06
1.37754e-06
1.37678e-06
1.37575e-06
1.37441e-06
1.37278e-06
1.37082e-06
1.36854e-06
1.36592e-06
1.36293e-06
1.35958e-06
1.35584e-06
1.35168e-06
1.3471e-06
1.34208e-06
1.33658e-06
1.33059e-06
1.32407e-06
1.31701e-06
1.30937e-06
1.30111e-06
1.2922e-06
1.28261e-06
1.27229e-06
1.26119e-06
1.24927e-06
1.23647e-06
1.22274e-06
1.20801e-06
1.19221e-06
1.17528e-06
1.15714e-06
1.13769e-06
1.11687e-06
1.09456e-06
1.07066e-06
1.04508e-06
1.0177e-06
9.88415e-07
9.571e-07
9.23646e-07
8.87948e-07
8.49905e-07
8.09436e-07
7.66466e-07
7.20898e-07
6.72667e-07
6.21833e-07
5.68594e-07
5.13308e-07
4.56532e-07
3.99055e-07
3.41903e-07
2.86311e-07
2.33635e-07
1.8521e-07
1.42169e-07
1.05291e-07
7.49003e-08
5.08677e-08
3.269e-08
1.96119e-08
1.0751e-08
5.19681e-09
2.07874e-09
6.06559e-10
9.65963e-11
3.90324e-12
1.3105e-06
1.31521e-06
1.31977e-06
1.32418e-06
1.32844e-06
1.33255e-06
1.3365e-06
1.3403e-06
1.34394e-06
1.34742e-06
1.35073e-06
1.35388e-06
1.35686e-06
1.35966e-06
1.36229e-06
1.36474e-06
1.367e-06
1.36907e-06
1.37094e-06
1.37261e-06
1.37406e-06
1.37531e-06
1.37633e-06
1.37712e-06
1.37769e-06
1.37801e-06
1.37808e-06
1.3779e-06
1.37745e-06
1.37672e-06
1.37572e-06
1.37442e-06
1.37282e-06
1.3709e-06
1.36865e-06
1.36606e-06
1.36311e-06
1.3598e-06
1.35609e-06
1.35197e-06
1.34743e-06
1.34245e-06
1.33699e-06
1.33104e-06
1.32457e-06
1.31755e-06
1.30995e-06
1.30174e-06
1.29289e-06
1.28334e-06
1.27307e-06
1.26203e-06
1.25016e-06
1.23742e-06
1.22374e-06
1.20907e-06
1.19334e-06
1.17647e-06
1.15839e-06
1.13902e-06
1.11826e-06
1.09602e-06
1.0722e-06
1.04669e-06
1.01939e-06
9.90174e-07
9.58931e-07
9.2555e-07
8.89919e-07
8.51941e-07
8.1153e-07
7.68612e-07
7.2309e-07
6.74895e-07
6.24079e-07
5.70836e-07
5.15518e-07
4.58676e-07
4.01092e-07
3.43793e-07
2.88015e-07
2.3512e-07
1.86454e-07
1.43168e-07
1.06056e-07
7.54565e-08
5.12502e-08
3.29366e-08
1.97591e-08
1.08305e-08
5.2343e-09
2.0931e-09
6.10409e-10
9.70982e-11
3.91385e-12
1.30977e-06
1.3145e-06
1.31908e-06
1.32352e-06
1.3278e-06
1.33193e-06
1.3359e-06
1.33972e-06
1.34338e-06
1.34688e-06
1.35022e-06
1.35339e-06
1.35639e-06
1.35921e-06
1.36187e-06
1.36434e-06
1.36662e-06
1.36871e-06
1.3706e-06
1.3723e-06
1.37378e-06
1.37505e-06
1.37609e-06
1.37691e-06
1.3775e-06
1.37785e-06
1.37794e-06
1.37779e-06
1.37737e-06
1.37667e-06
1.37569e-06
1.37442e-06
1.37285e-06
1.37096e-06
1.36874e-06
1.36618e-06
1.36326e-06
1.35998e-06
1.3563e-06
1.35222e-06
1.34771e-06
1.34276e-06
1.33734e-06
1.33143e-06
1.32499e-06
1.31801e-06
1.31045e-06
1.30229e-06
1.29347e-06
1.28397e-06
1.27374e-06
1.26275e-06
1.25093e-06
1.23823e-06
1.22461e-06
1.20999e-06
1.19431e-06
1.1775e-06
1.15947e-06
1.14016e-06
1.11946e-06
1.09728e-06
1.07352e-06
1.04808e-06
1.02084e-06
9.91683e-07
9.60504e-07
9.27183e-07
8.91612e-07
8.53689e-07
8.13328e-07
7.70455e-07
7.24974e-07
6.7681e-07
6.26011e-07
5.72766e-07
5.1742e-07
4.60522e-07
4.02849e-07
3.45424e-07
2.89486e-07
2.36402e-07
1.87529e-07
1.44031e-07
1.06717e-07
7.59381e-08
5.15814e-08
3.31501e-08
1.98865e-08
1.08994e-08
5.26677e-09
2.10552e-09
6.13741e-10
9.75322e-11
3.923e-12
1.30917e-06
1.31391e-06
1.31851e-06
1.32296e-06
1.32726e-06
1.33141e-06
1.3354e-06
1.33924e-06
1.34291e-06
1.34643e-06
1.34978e-06
1.35297e-06
1.35599e-06
1.35884e-06
1.36151e-06
1.364e-06
1.3663e-06
1.36841e-06
1.37032e-06
1.37203e-06
1.37354e-06
1.37482e-06
1.37589e-06
1.37673e-06
1.37734e-06
1.37771e-06
1.37783e-06
1.3777e-06
1.3773e-06
1.37662e-06
1.37567e-06
1.37442e-06
1.37287e-06
1.37101e-06
1.36881e-06
1.36628e-06
1.36339e-06
1.36013e-06
1.35648e-06
1.35243e-06
1.34795e-06
1.34302e-06
1.33763e-06
1.33175e-06
1.32535e-06
1.3184e-06
1.31087e-06
1.30274e-06
1.29396e-06
1.28449e-06
1.2743e-06
1.26334e-06
1.25156e-06
1.23891e-06
1.22532e-06
1.21075e-06
1.19511e-06
1.17835e-06
1.16037e-06
1.1411e-06
1.12046e-06
1.09833e-06
1.07462e-06
1.04923e-06
1.02204e-06
9.92942e-07
9.61815e-07
9.28546e-07
8.93025e-07
8.55148e-07
8.1483e-07
7.71995e-07
7.26548e-07
6.7841e-07
6.27626e-07
5.74379e-07
5.19012e-07
4.62066e-07
4.04319e-07
3.4679e-07
2.90718e-07
2.37477e-07
1.88431e-07
1.44757e-07
1.07273e-07
7.63428e-08
5.18598e-08
3.33297e-08
1.99937e-08
1.09574e-08
5.29407e-09
2.11597e-09
6.16541e-10
9.78964e-11
3.93067e-12
1.30868e-06
1.31344e-06
1.31805e-06
1.32251e-06
1.32683e-06
1.33099e-06
1.335e-06
1.33885e-06
1.34254e-06
1.34607e-06
1.34944e-06
1.35264e-06
1.35567e-06
1.35853e-06
1.36122e-06
1.36372e-06
1.36604e-06
1.36817e-06
1.3701e-06
1.37182e-06
1.37334e-06
1.37465e-06
1.37573e-06
1.37659e-06
1.37721e-06
1.3776e-06
1.37774e-06
1.37762e-06
1.37724e-06
1.37658e-06
1.37565e-06
1.37442e-06
1.37289e-06
1.37104e-06
1.36887e-06
1.36636e-06
1.36349e-06
1.36025e-06
1.35662e-06
1.35259e-06
1.34813e-06
1.34323e-06
1.33786e-06
1.332e-06
1.32563e-06
1.3187e-06
1.3112e-06
1.3031e-06
1.29434e-06
1.28491e-06
1.27475e-06
1.26382e-06
1.25207e-06
1.23945e-06
1.2259e-06
1.21136e-06
1.19576e-06
1.17903e-06
1.16109e-06
1.14186e-06
1.12125e-06
1.09917e-06
1.0755e-06
1.05015e-06
1.02301e-06
9.9395e-07
9.62865e-07
9.29638e-07
8.94156e-07
8.56317e-07
8.16033e-07
7.73228e-07
7.27809e-07
6.79693e-07
6.28921e-07
5.75673e-07
5.20288e-07
4.63306e-07
4.055e-07
3.47887e-07
2.91709e-07
2.38342e-07
1.89158e-07
1.4534e-07
1.07721e-07
7.66689e-08
5.20841e-08
3.34743e-08
2.00801e-08
1.1004e-08
5.31606e-09
2.12438e-09
6.18795e-10
9.81896e-11
3.93684e-12
1.30831e-06
1.31308e-06
1.3177e-06
1.32218e-06
1.3265e-06
1.33067e-06
1.33469e-06
1.33855e-06
1.34225e-06
1.3458e-06
1.34917e-06
1.35239e-06
1.35543e-06
1.3583e-06
1.361e-06
1.36352e-06
1.36584e-06
1.36798e-06
1.36992e-06
1.37166e-06
1.37319e-06
1.37451e-06
1.37561e-06
1.37648e-06
1.37712e-06
1.37752e-06
1.37767e-06
1.37756e-06
1.37719e-06
1.37655e-06
1.37563e-06
1.37442e-06
1.3729e-06
1.37107e-06
1.36891e-06
1.36641e-06
1.36356e-06
1.36034e-06
1.35673e-06
1.35271e-06
1.34827e-06
1.34339e-06
1.33804e-06
1.3322e-06
1.32584e-06
1.31893e-06
1.31145e-06
1.30337e-06
1.29463e-06
1.28522e-06
1.27508e-06
1.26418e-06
1.25245e-06
1.23985e-06
1.22633e-06
1.21181e-06
1.19624e-06
1.17954e-06
1.16163e-06
1.14243e-06
1.12185e-06
1.0998e-06
1.07616e-06
1.05084e-06
1.02373e-06
9.94706e-07
9.63653e-07
9.30457e-07
8.95005e-07
8.57195e-07
8.16937e-07
7.74155e-07
7.28756e-07
6.80657e-07
6.29894e-07
5.76645e-07
5.21248e-07
4.64239e-07
4.06388e-07
3.48713e-07
2.92456e-07
2.38994e-07
1.89705e-07
1.45781e-07
1.08058e-07
7.69147e-08
5.22533e-08
3.35835e-08
2.01452e-08
1.10392e-08
5.33265e-09
2.13073e-09
6.20495e-10
9.84105e-11
3.94148e-12
1.30806e-06
1.31284e-06
1.31747e-06
1.32195e-06
1.32628e-06
1.33046e-06
1.33449e-06
1.33835e-06
1.34206e-06
1.34561e-06
1.349e-06
1.35222e-06
1.35527e-06
1.35815e-06
1.36085e-06
1.36338e-06
1.36571e-06
1.36786e-06
1.36981e-06
1.37156e-06
1.37309e-06
1.37442e-06
1.37553e-06
1.37641e-06
1.37705e-06
1.37746e-06
1.37762e-06
1.37752e-06
1.37717e-06
1.37653e-06
1.37562e-06
1.37442e-06
1.37291e-06
1.37109e-06
1.36894e-06
1.36645e-06
1.36361e-06
1.36039e-06
1.35679e-06
1.35279e-06
1.34836e-06
1.34349e-06
1.33815e-06
1.33232e-06
1.32598e-06
1.31909e-06
1.31162e-06
1.30355e-06
1.29483e-06
1.28543e-06
1.27531e-06
1.26441e-06
1.2527e-06
1.24012e-06
1.22662e-06
1.21212e-06
1.19656e-06
1.17988e-06
1.16199e-06
1.14281e-06
1.12225e-06
1.10021e-06
1.0766e-06
1.05131e-06
1.02421e-06
9.9521e-07
9.64179e-07
9.31004e-07
8.95572e-07
8.5778e-07
8.17539e-07
7.74773e-07
7.29389e-07
6.813e-07
6.30543e-07
5.77294e-07
5.21889e-07
4.64862e-07
4.06981e-07
3.49265e-07
2.92954e-07
2.3943e-07
1.90071e-07
1.46075e-07
1.08284e-07
7.70792e-08
5.23665e-08
3.36565e-08
2.01888e-08
1.10628e-08
5.34375e-09
2.13497e-09
6.21632e-10
9.85582e-11
3.94458e-12
1.30794e-06
1.31272e-06
1.31735e-06
1.32184e-06
1.32617e-06
1.33036e-06
1.33438e-06
1.33826e-06
1.34197e-06
1.34552e-06
1.34891e-06
1.35213e-06
1.35519e-06
1.35807e-06
1.36078e-06
1.36331e-06
1.36565e-06
1.3678e-06
1.36975e-06
1.3715e-06
1.37305e-06
1.37437e-06
1.37548e-06
1.37637e-06
1.37702e-06
1.37743e-06
1.37759e-06
1.3775e-06
1.37715e-06
1.37652e-06
1.37562e-06
1.37442e-06
1.37291e-06
1.3711e-06
1.36895e-06
1.36647e-06
1.36363e-06
1.36042e-06
1.35683e-06
1.35283e-06
1.34841e-06
1.34354e-06
1.33821e-06
1.33239e-06
1.32605e-06
1.31916e-06
1.3117e-06
1.30364e-06
1.29493e-06
1.28553e-06
1.27542e-06
1.26453e-06
1.25283e-06
1.24026e-06
1.22676e-06
1.21227e-06
1.19672e-06
1.18005e-06
1.16217e-06
1.143e-06
1.12245e-06
1.10042e-06
1.07682e-06
1.05154e-06
1.02446e-06
9.95463e-07
9.64442e-07