/*--------------------------------*- C++ -*----------------------------------*\
  =========                 |
  \\      /  F ield         | OpenFOAM: The Open Source CFD Toolbox
   \\    /   O peration     | Website:  https://openfoam.org
    \\  /    A nd           | Version:  7
     \\/     M anipulation  |
\*---------------------------------------------------------------------------*/
FoamFile
{
    version     2.0;
    format      ascii;
    class       volScalarField;
    location    "56000";
    object      k;
}
// * * * * * * * * * * * * * * * * * * * * * * * * * * * * * * * * * * * * * //

dimensions      [0 2 -2 0 0 0 0];

internalField   nonuniform List<scalar> 
4825
(
3.8988e-07
3.87386e-07
3.95896e-07
3.93502e-07
3.91081e-07
3.88632e-07
3.86273e-07
4.0169e-07
3.99398e-07
3.97079e-07
3.94734e-07
3.92469e-07
4.0726e-07
4.05072e-07
4.02854e-07
4.00612e-07
3.98443e-07
4.12607e-07
4.10515e-07
4.08404e-07
4.06257e-07
4.04184e-07
4.17728e-07
4.15735e-07
4.13729e-07
4.11676e-07
4.09692e-07
4.22623e-07
4.20722e-07
4.18821e-07
4.16859e-07
4.14965e-07
4.27282e-07
4.25482e-07
4.23686e-07
4.21806e-07
4.20011e-07
4.31712e-07
4.30013e-07
4.28316e-07
4.26523e-07
4.24829e-07
4.35902e-07
4.34306e-07
4.32707e-07
4.31008e-07
4.29417e-07
4.3986e-07
4.38359e-07
4.3686e-07
4.3526e-07
4.33764e-07
4.43582e-07
4.42168e-07
4.4077e-07
4.39276e-07
4.37877e-07
4.47066e-07
4.4574e-07
4.44444e-07
4.43052e-07
4.41745e-07
4.50301e-07
4.49071e-07
4.4787e-07
4.46588e-07
4.53292e-07
4.52157e-07
4.51053e-07
4.4987e-07
4.56028e-07
4.54996e-07
4.5399e-07
4.52906e-07
4.58512e-07
4.57576e-07
4.56669e-07
4.60734e-07
4.599e-07
4.59086e-07
4.62697e-07
4.61964e-07
4.64387e-07
4.63764e-07
4.65809e-07
4.65288e-07
4.66949e-07
4.66537e-07
4.67808e-07
4.67505e-07
4.68375e-07
2.75963e-07
2.71989e-07
2.68115e-07
2.64383e-07
2.60636e-07
2.56987e-07
2.53473e-07
2.50122e-07
2.46842e-07
2.43762e-07
2.40875e-07
2.38161e-07
2.3557e-07
2.33112e-07
2.3084e-07
2.28753e-07
2.26873e-07
2.25155e-07
2.2368e-07
2.22307e-07
2.84683e-07
2.80774e-07
2.76967e-07
2.73291e-07
2.69597e-07
2.65998e-07
2.62525e-07
2.59216e-07
2.55983e-07
2.52929e-07
2.50073e-07
2.47376e-07
2.44814e-07
2.42373e-07
2.40127e-07
2.38061e-07
2.36172e-07
2.34466e-07
2.33005e-07
2.31628e-07
2.93289e-07
2.89448e-07
2.857e-07
2.82089e-07
2.78462e-07
2.74919e-07
2.71492e-07
2.68234e-07
2.65052e-07
2.6203e-07
2.59201e-07
2.56529e-07
2.54016e-07
2.51596e-07
2.49382e-07
2.47329e-07
2.45448e-07
2.43756e-07
2.42304e-07
2.40936e-07
3.01759e-07
2.98002e-07
2.94316e-07
2.90778e-07
2.87207e-07
2.83736e-07
2.80359e-07
2.77147e-07
2.7403e-07
2.71046e-07
2.68251e-07
2.65611e-07
2.63141e-07
2.60757e-07
2.58568e-07
2.56534e-07
2.54666e-07
2.5299e-07
2.51556e-07
2.50207e-07
3.10099e-07
3.06416e-07
3.02804e-07
2.99336e-07
2.95834e-07
2.92425e-07
2.89113e-07
2.85952e-07
2.82903e-07
2.79961e-07
2.77194e-07
2.74603e-07
2.72182e-07
2.69836e-07
2.67666e-07
2.65666e-07
2.63815e-07
2.62145e-07
2.60737e-07
2.59408e-07
3.183e-07
3.14694e-07
3.11147e-07
3.07755e-07
3.04334e-07
3.0099e-07
2.97744e-07
2.9464e-07
2.91648e-07
2.88764e-07
2.86025e-07
2.83489e-07
2.81112e-07
2.78803e-07
2.76669e-07
2.74695e-07
2.72876e-07
2.71215e-07
2.69828e-07
2.68517e-07
3.26345e-07
3.2283e-07
3.19348e-07
3.16028e-07
3.12698e-07
3.09423e-07
3.06233e-07
3.03188e-07
3.00265e-07
2.97432e-07
2.94734e-07
2.92257e-07
2.89918e-07
2.8766e-07
2.85563e-07
2.83607e-07
2.81823e-07
2.80182e-07
2.78823e-07
2.77517e-07
3.34224e-07
3.30816e-07
3.274e-07
3.24159e-07
3.20909e-07
3.17705e-07
3.14583e-07
3.11601e-07
3.08739e-07
3.05958e-07
3.03314e-07
3.009e-07
2.98603e-07
2.96395e-07
2.94339e-07
2.92401e-07
2.90643e-07
2.89033e-07
2.87697e-07
2.86406e-07
2.85344e-07
2.8446e-07
2.8378e-07
2.83377e-07
2.83138e-07
2.83214e-07
2.83422e-07
2.83909e-07
2.84573e-07
2.85438e-07
2.86398e-07
2.87611e-07
2.88906e-07
2.90429e-07
2.92179e-07
3.41939e-07
3.38632e-07
3.35293e-07
3.32126e-07
3.2896e-07
3.25829e-07
3.22788e-07
3.1986e-07
3.17061e-07
3.14346e-07
3.11756e-07
3.09398e-07
3.07156e-07
3.04987e-07
3.02976e-07
3.01067e-07
2.99338e-07
2.97758e-07
2.96441e-07
2.95174e-07
2.94116e-07
2.93257e-07
2.92577e-07
2.92184e-07
2.91952e-07
2.92024e-07
2.92236e-07
2.92714e-07
2.93367e-07
2.94214e-07
2.95165e-07
2.96344e-07
2.97619e-07
2.99119e-07
3.00841e-07
3.02699e-07
3.04697e-07
3.49466e-07
3.46266e-07
3.43017e-07
3.39922e-07
3.36853e-07
3.33785e-07
3.30829e-07
3.27969e-07
3.25237e-07
3.22589e-07
3.20051e-07
3.17744e-07
3.1556e-07
3.13441e-07
3.11465e-07
3.09596e-07
3.07901e-07
3.06348e-07
3.05045e-07
3.03811e-07
3.0276e-07
3.01914e-07
3.01245e-07
3.00866e-07
3.00636e-07
3.00709e-07
3.0092e-07
3.0138e-07
3.02034e-07
3.02863e-07
3.0379e-07
3.0495e-07
3.062e-07
3.07676e-07
3.09359e-07
3.11187e-07
3.13128e-07
3.1535e-07
3.5679e-07
3.53706e-07
3.50558e-07
3.47542e-07
3.44565e-07
3.41575e-07
3.38695e-07
3.35906e-07
3.33245e-07
3.30678e-07
3.28193e-07
3.25929e-07
3.23806e-07
3.21738e-07
3.19813e-07
3.1798e-07
3.16312e-07
3.14797e-07
3.13512e-07
3.1231e-07
3.11254e-07
3.10435e-07
3.09774e-07
3.09401e-07
3.09182e-07
3.09247e-07
3.09467e-07
3.0991e-07
3.10562e-07
3.11378e-07
3.12277e-07
3.13407e-07
3.14628e-07
3.16091e-07
3.17723e-07
3.19522e-07
3.21411e-07
3.2358e-07
3.25834e-07
3.28165e-07
3.63908e-07
3.60937e-07
3.57892e-07
3.54973e-07
3.52084e-07
3.49184e-07
3.46387e-07
3.43672e-07
3.41086e-07
3.38593e-07
3.36173e-07
3.33944e-07
3.31886e-07
3.2987e-07
3.27998e-07
3.2621e-07
3.24574e-07
3.23084e-07
3.21835e-07
3.20651e-07
3.19602e-07
3.18801e-07
3.18157e-07
3.17782e-07
3.17582e-07
3.17642e-07
3.17869e-07
3.18296e-07
3.18946e-07
3.19736e-07
3.2062e-07
3.21719e-07
3.22907e-07
3.24345e-07
3.25937e-07
3.27694e-07
3.29538e-07
3.31644e-07
3.33855e-07
3.36138e-07
3.38571e-07
3.4101e-07
3.70808e-07
3.67946e-07
3.65016e-07
3.62189e-07
3.59404e-07
3.56596e-07
3.53878e-07
3.51252e-07
3.48747e-07
3.46321e-07
3.43967e-07
3.41789e-07
3.3979e-07
3.37838e-07
3.36013e-07
3.34268e-07
3.32667e-07
3.31213e-07
3.29993e-07
3.28839e-07
3.27795e-07
3.27014e-07
3.26375e-07
3.26011e-07
3.25827e-07
3.25886e-07
3.26105e-07
3.26527e-07
3.27177e-07
3.27943e-07
3.28796e-07
3.29865e-07
3.31027e-07
3.3243e-07
3.33991e-07
3.35694e-07
3.37499e-07
3.39539e-07
3.41704e-07
3.43927e-07
3.46291e-07
3.48654e-07
3.51166e-07
3.53832e-07
3.56507e-07
3.77489e-07
3.74729e-07
3.7192e-07
3.69179e-07
3.66502e-07
3.63796e-07
3.61164e-07
3.5863e-07
3.56213e-07
3.5386e-07
3.51575e-07
3.49451e-07
3.47513e-07
3.45619e-07
3.43844e-07
3.42143e-07
3.40592e-07
3.39173e-07
3.37989e-07
3.36852e-07
3.35823e-07
3.35053e-07
3.34428e-07
3.34066e-07
3.33911e-07
3.33968e-07
3.34179e-07
3.34596e-07
3.35235e-07
3.35988e-07
3.36809e-07
3.37846e-07
3.38977e-07
3.40346e-07
3.41862e-07
3.43521e-07
3.45282e-07
3.47254e-07
3.49371e-07
3.5153e-07
3.53823e-07
3.56101e-07
3.58535e-07
3.61115e-07
3.63709e-07
3.66324e-07
3.68924e-07
3.83948e-07
3.81293e-07
3.78602e-07
3.75949e-07
3.73381e-07
3.70776e-07
3.68233e-07
3.65794e-07
3.63459e-07
3.61183e-07
3.58968e-07
3.56912e-07
3.55032e-07
3.53197e-07
3.51489e-07
3.49832e-07
3.48322e-07
3.46952e-07
3.45797e-07
3.44677e-07
3.43673e-07
3.42919e-07
3.42306e-07
3.41948e-07
3.41808e-07
3.41866e-07
3.42077e-07
3.42488e-07
3.43108e-07
3.43847e-07
3.44644e-07
3.45649e-07
3.46745e-07
3.48068e-07
3.49548e-07
3.51149e-07
3.52872e-07
3.54771e-07
3.56829e-07
3.58931e-07
3.6114e-07
3.63337e-07
3.65689e-07
3.68173e-07
3.70683e-07
3.73205e-07
3.75709e-07
3.78307e-07
3.81015e-07
3.83664e-07
3.90185e-07
3.87637e-07
3.85063e-07
3.82495e-07
3.80029e-07
3.77523e-07
3.75079e-07
3.72724e-07
3.70473e-07
3.68277e-07
3.66134e-07
3.64159e-07
3.62342e-07
3.60568e-07
3.58921e-07
3.57317e-07
3.55855e-07
3.54522e-07
3.53403e-07
3.52312e-07
3.5133e-07
3.50595e-07
3.49982e-07
3.4963e-07
3.49518e-07
3.49564e-07
3.49775e-07
3.50191e-07
3.5078e-07
3.51517e-07
3.52287e-07
3.53257e-07
3.54315e-07
3.55591e-07
3.57033e-07
3.58569e-07
3.60244e-07
3.62078e-07
3.64075e-07
3.66105e-07
3.68229e-07
3.70351e-07
3.72621e-07
3.75009e-07
3.77435e-07
3.79855e-07
3.82261e-07
3.84757e-07
3.8736e-07
3.89911e-07
3.96199e-07
3.93752e-07
3.91292e-07
3.88819e-07
3.86446e-07
3.84045e-07
3.81691e-07
3.79429e-07
3.77254e-07
3.75137e-07
3.73077e-07
3.71182e-07
3.69422e-07
3.67707e-07
3.66126e-07
3.64575e-07
3.63163e-07
3.61879e-07
3.6079e-07
3.59738e-07
3.58779e-07
3.58068e-07
3.57452e-07
3.57106e-07
3.57012e-07
3.5706e-07
3.57268e-07
3.57689e-07
3.58246e-07
3.58971e-07
3.59709e-07
3.60645e-07
3.6166e-07
3.629e-07
3.64292e-07
3.6577e-07
3.67385e-07
3.69162e-07
3.71099e-07
3.73045e-07
3.75086e-07
3.7714e-07
3.79327e-07
3.81622e-07
3.83955e-07
3.86283e-07
3.88589e-07
3.90984e-07
3.93477e-07
3.95939e-07
4.01991e-07
3.99646e-07
3.9729e-07
3.9492e-07
3.9264e-07
3.90334e-07
3.88077e-07
3.85898e-07
3.83809e-07
3.81762e-07
3.79782e-07
3.77967e-07
3.76266e-07
3.74618e-07
3.73097e-07
3.71604e-07
3.70247e-07
3.69002e-07
3.67946e-07
3.66933e-07
3.66005e-07
3.6531e-07
3.647e-07
3.64361e-07
3.64277e-07
3.64336e-07
3.6454e-07
3.64956e-07
3.65492e-07
3.66195e-07
3.66909e-07
3.678e-07
3.68779e-07
3.69984e-07
3.71316e-07
3.72742e-07
3.74289e-07
3.76019e-07
3.77888e-07
3.79761e-07
3.81718e-07
3.83692e-07
3.85809e-07
3.88011e-07
3.90241e-07
3.92479e-07
3.94684e-07
3.96978e-07
3.99363e-07
4.01736e-07
4.0756e-07
4.0532e-07
4.03067e-07
4.00797e-07
3.98613e-07
3.96398e-07
3.94228e-07
3.92141e-07
3.90129e-07
3.88152e-07
3.86259e-07
3.84514e-07
3.82886e-07
3.81299e-07
3.79842e-07
3.78392e-07
3.77091e-07
3.75884e-07
3.74864e-07
3.7389e-07
3.73002e-07
3.72315e-07
3.71718e-07
3.71388e-07
3.71314e-07
3.71373e-07
3.71573e-07
3.71996e-07
3.72498e-07
3.73182e-07
3.73869e-07
3.74727e-07
3.75668e-07
3.76828e-07
3.78111e-07
3.79485e-07
3.80967e-07
3.82637e-07
3.84441e-07
3.8625e-07
3.88125e-07
3.90018e-07
3.92065e-07
3.94166e-07
3.96304e-07
3.98443e-07
4.00555e-07
4.02739e-07
4.05019e-07
4.07304e-07
4.12905e-07
4.10761e-07
4.08613e-07
4.0644e-07
4.04353e-07
4.02237e-07
4.00154e-07
3.98148e-07
3.96214e-07
3.94316e-07
3.92509e-07
3.90834e-07
3.89267e-07
3.87752e-07
3.86349e-07
3.8495e-07
3.83707e-07
3.82535e-07
3.81554e-07
3.80606e-07
3.79766e-07
3.7908e-07
3.78504e-07
3.78181e-07
3.78121e-07
3.78169e-07
3.78373e-07
3.78795e-07
3.79272e-07
3.79931e-07
3.80598e-07
3.81424e-07
3.82326e-07
3.83443e-07
3.84678e-07
3.85999e-07
3.87416e-07
3.89016e-07
3.90757e-07
3.92502e-07
3.94307e-07
3.96116e-07
3.98085e-07
4.00087e-07
4.02134e-07
4.04175e-07
4.06192e-07
4.08276e-07
4.10454e-07
4.1265e-07
4.18025e-07
4.1598e-07
4.13936e-07
4.11857e-07
4.09859e-07
4.07841e-07
4.05854e-07
4.03928e-07
4.02073e-07
4.00254e-07
3.98531e-07
3.96925e-07
3.95412e-07
3.93966e-07
3.92618e-07
3.91278e-07
3.90083e-07
3.88944e-07
3.88005e-07
3.87082e-07
3.86289e-07
3.85614e-07
3.85057e-07
3.84742e-07
3.84696e-07
3.84733e-07
3.8494e-07
3.85353e-07
3.85815e-07
3.86439e-07
3.87096e-07
3.87891e-07
3.88751e-07
3.89818e-07
3.91005e-07
3.92272e-07
3.93636e-07
3.95166e-07
3.96847e-07
3.98527e-07
4.00251e-07
4.01987e-07
4.03879e-07
4.05782e-07
4.0774e-07
4.09682e-07
4.11603e-07
4.13589e-07
4.15655e-07
4.17765e-07
4.22918e-07
4.20965e-07
4.19026e-07
4.17039e-07
4.15131e-07
4.1321e-07
4.11326e-07
4.09472e-07
4.07696e-07
4.05965e-07
4.04324e-07
4.02787e-07
4.01327e-07
3.9995e-07
3.98649e-07
3.97375e-07
3.96229e-07
3.95122e-07
3.94227e-07
3.93327e-07
3.92569e-07
3.91907e-07
3.91375e-07
3.91067e-07
3.9103e-07
3.91065e-07
3.91275e-07
3.91671e-07
3.92115e-07
3.92718e-07
3.93362e-07
3.94118e-07
3.94934e-07
3.95951e-07
3.97092e-07
3.98317e-07
3.99614e-07
4.01087e-07
4.027e-07
4.04314e-07
4.05967e-07
4.07628e-07
4.09438e-07
4.1125e-07
4.13119e-07
4.14955e-07
4.16788e-07
4.18675e-07
4.20632e-07
4.22648e-07
4.27576e-07
4.25724e-07
4.2389e-07
4.21985e-07
4.20176e-07
4.1835e-07
4.16562e-07
4.14787e-07
4.13091e-07
4.11437e-07
4.09877e-07
4.08409e-07
4.07004e-07
4.05704e-07
4.04451e-07
4.0324e-07
4.02135e-07
4.01067e-07
4.0021e-07
3.99339e-07
3.98608e-07
3.97967e-07
3.9746e-07
3.97158e-07
3.97121e-07
3.97153e-07
3.97376e-07
3.97747e-07
3.98172e-07
3.98767e-07
3.99386e-07
4.00103e-07
4.00883e-07
4.01853e-07
4.02939e-07
4.04131e-07
4.05361e-07
4.06777e-07
4.08314e-07
4.09873e-07
4.11451e-07
4.1303e-07
4.14759e-07
4.16481e-07
4.18263e-07
4.20001e-07
4.21745e-07
4.23534e-07
4.25381e-07
4.27297e-07
4.32005e-07
4.30254e-07
4.28518e-07
4.26701e-07
4.24993e-07
4.2326e-07
4.21559e-07
4.19872e-07
4.18247e-07
4.16669e-07
4.1519e-07
4.13801e-07
4.12449e-07
4.11228e-07
4.10012e-07
4.08863e-07
4.078e-07
4.06768e-07
4.05951e-07
4.05108e-07
4.04414e-07
4.03784e-07
4.0331e-07
4.03013e-07
4.0297e-07
4.03007e-07
4.03243e-07
4.0358e-07
4.03985e-07
4.04573e-07
4.05167e-07
4.05856e-07
4.06599e-07
4.07524e-07
4.08556e-07
4.09704e-07
4.10875e-07
4.12234e-07
4.13699e-07
4.15192e-07
4.16695e-07
4.18201e-07
4.19843e-07
4.21473e-07
4.2317e-07
4.24809e-07
4.26473e-07
4.28163e-07
4.29901e-07
4.3172e-07
4.36194e-07
4.34546e-07
4.32908e-07
4.31185e-07
4.2958e-07
4.2793e-07
4.26317e-07
4.24717e-07
4.23162e-07
4.2167e-07
4.20271e-07
4.18951e-07
4.17661e-07
4.1651e-07
4.1534e-07
4.14243e-07
4.13223e-07
4.12233e-07
4.11452e-07
4.10643e-07
4.09977e-07
4.09366e-07
4.08914e-07
4.08631e-07
4.08584e-07
4.08625e-07
4.08865e-07
4.0918e-07
4.09564e-07
4.10137e-07
4.10705e-07
4.11366e-07
4.12069e-07
4.12951e-07
4.1393e-07
4.15044e-07
4.16155e-07
4.17459e-07
4.18853e-07
4.2027e-07
4.21704e-07
4.2313e-07
4.24687e-07
4.26234e-07
4.27838e-07
4.29387e-07
4.3097e-07
4.32562e-07
4.3419e-07
4.35913e-07
4.4015e-07
4.38598e-07
4.37059e-07
4.35436e-07
4.33926e-07
4.32366e-07
4.30834e-07
4.29328e-07
4.27844e-07
4.26438e-07
4.25117e-07
4.23859e-07
4.22638e-07
4.21549e-07
4.20425e-07
4.19379e-07
4.18411e-07
4.17462e-07
4.16709e-07
4.15933e-07
4.15296e-07
4.14711e-07
4.14281e-07
4.1401e-07
4.13963e-07
4.14005e-07
4.14252e-07
4.14545e-07
4.14905e-07
4.15458e-07
4.16007e-07
4.16632e-07
4.17303e-07
4.18143e-07
4.19071e-07
4.20142e-07
4.21197e-07
4.22439e-07
4.23773e-07
4.25107e-07
4.26471e-07
4.27824e-07
4.2929e-07
4.30762e-07
4.32266e-07
4.33732e-07
4.35226e-07
4.36719e-07
4.38246e-07
4.39875e-07
4.4387e-07
4.42406e-07
4.40968e-07
4.3945e-07
4.38038e-07
4.36567e-07
4.35115e-07
4.33696e-07
4.3229e-07
4.3096e-07
4.29719e-07
4.28522e-07
4.2737e-07
4.26345e-07
4.25273e-07
4.2427e-07
4.23354e-07
4.22453e-07
4.21721e-07
4.20984e-07
4.20378e-07
4.19808e-07
4.19409e-07
4.1915e-07
4.19103e-07
4.19146e-07
4.19392e-07
4.19663e-07
4.20008e-07
4.20532e-07
4.21072e-07
4.21661e-07
4.22299e-07
4.23089e-07
4.23975e-07
4.24994e-07
4.25992e-07
4.27174e-07
4.28449e-07
4.29708e-07
4.31002e-07
4.32274e-07
4.33659e-07
4.35047e-07
4.36459e-07
4.37833e-07
4.39238e-07
4.40641e-07
4.42065e-07
4.43596e-07
4.47352e-07
4.45976e-07
4.44641e-07
4.43226e-07
4.41905e-07
4.40522e-07
4.39158e-07
4.37827e-07
4.36498e-07
4.35244e-07
4.34074e-07
4.32947e-07
4.31862e-07
4.30894e-07
4.29882e-07
4.28921e-07
4.28059e-07
4.27203e-07
4.26496e-07
4.25787e-07
4.25212e-07
4.24664e-07
4.24297e-07
4.24047e-07
4.24004e-07
4.24045e-07
4.24284e-07
4.24532e-07
4.2487e-07
4.2536e-07
4.25897e-07
4.26451e-07
4.27046e-07
4.27796e-07
4.28639e-07
4.296e-07
4.30546e-07
4.3167e-07
4.32879e-07
4.34062e-07
4.35295e-07
4.36484e-07
4.37782e-07
4.39087e-07
4.40407e-07
4.41688e-07
4.43004e-07
4.44317e-07
4.45645e-07
4.47071e-07
4.50586e-07
4.49306e-07
4.48066e-07
4.4676e-07
4.45524e-07
4.44228e-07
4.42962e-07
4.4171e-07
4.40465e-07
4.39287e-07
4.38179e-07
4.37131e-07
4.36115e-07
4.35195e-07
4.3425e-07
4.33331e-07
4.32515e-07
4.31702e-07
4.31021e-07
4.30338e-07
4.29805e-07
4.29278e-07
4.28933e-07
4.28692e-07
4.28653e-07
4.28701e-07
4.28926e-07
4.29158e-07
4.2948e-07
4.29946e-07
4.30473e-07
4.30992e-07
4.3155e-07
4.32263e-07
4.33061e-07
4.33965e-07
4.34857e-07
4.35917e-07
4.37061e-07
4.38176e-07
4.39341e-07
4.40445e-07
4.41656e-07
4.42878e-07
4.44114e-07
4.45302e-07
4.46531e-07
4.47752e-07
4.48976e-07
4.50307e-07
4.53575e-07
4.52391e-07
4.51249e-07
4.50042e-07
4.48893e-07
4.47682e-07
4.46513e-07
4.45341e-07
4.4418e-07
4.43077e-07
4.42041e-07
4.41063e-07
4.40116e-07
4.39245e-07
4.38366e-07
4.37496e-07
4.36728e-07
4.35956e-07
4.35293e-07
4.34645e-07
4.34146e-07
4.33645e-07
4.33323e-07
4.3309e-07
4.33057e-07
4.33102e-07
4.33315e-07
4.3354e-07
4.33844e-07
4.34279e-07
4.34796e-07
4.35279e-07
4.358e-07
4.36485e-07
4.37237e-07
4.38078e-07
4.38922e-07
4.3991e-07
4.40992e-07
4.42038e-07
4.43136e-07
4.44163e-07
4.45287e-07
4.46426e-07
4.47579e-07
4.48672e-07
4.49814e-07
4.50937e-07
4.52062e-07
4.53293e-07
4.5631e-07
4.55229e-07
4.54184e-07
4.53076e-07
4.52008e-07
4.50888e-07
4.4981e-07
4.48725e-07
4.47647e-07
4.4662e-07
4.45655e-07
4.4474e-07
4.43862e-07
4.43048e-07
4.42227e-07
4.41413e-07
4.40685e-07
4.39962e-07
4.3932e-07
4.38703e-07
4.38232e-07
4.37764e-07
4.37457e-07
4.37238e-07
4.37214e-07
4.37254e-07
4.37458e-07
4.37675e-07
4.37952e-07
4.38364e-07
4.38864e-07
4.39311e-07
4.39801e-07
4.40451e-07
4.41166e-07
4.41945e-07
4.4273e-07
4.43656e-07
4.44669e-07
4.45644e-07
4.46677e-07
4.47624e-07
4.48664e-07
4.49727e-07
4.5079e-07
4.51794e-07
4.52842e-07
4.53866e-07
4.54899e-07
4.56032e-07
4.58793e-07
4.57808e-07
4.56862e-07
4.55852e-07
4.54865e-07
4.53843e-07
4.52856e-07
4.5186e-07
4.50856e-07
4.49913e-07
4.49019e-07
4.48167e-07
4.47356e-07
4.46594e-07
4.4583e-07
4.45079e-07
4.44392e-07
4.43709e-07
4.43088e-07
4.4251e-07
4.42059e-07
4.41623e-07
4.4134e-07
4.41134e-07
4.41111e-07
4.41155e-07
4.41343e-07
4.4155e-07
4.41809e-07
4.42197e-07
4.42673e-07
4.43093e-07
4.43551e-07
4.44158e-07
4.44836e-07
4.45562e-07
4.46287e-07
4.47152e-07
4.48089e-07
4.49001e-07
4.49962e-07
4.50835e-07
4.51791e-07
4.52778e-07
4.53752e-07
4.54665e-07
4.55619e-07
4.56546e-07
4.57484e-07
4.58513e-07
4.61014e-07
4.60131e-07
4.59278e-07
4.58365e-07
4.57461e-07
4.56543e-07
4.55641e-07
4.54733e-07
4.5381e-07
4.52943e-07
4.52129e-07
4.51332e-07
4.50589e-07
4.49886e-07
4.49172e-07
4.48484e-07
4.47837e-07
4.47202e-07
4.46603e-07
4.46062e-07
4.45624e-07
4.45226e-07
4.44968e-07
4.44774e-07
4.44754e-07
4.44792e-07
4.44974e-07
4.45171e-07
4.4541e-07
4.45774e-07
4.46227e-07
4.46612e-07
4.47046e-07
4.47611e-07
4.48252e-07
4.48925e-07
4.49588e-07
4.50385e-07
4.51256e-07
4.52103e-07
4.52986e-07
4.53791e-07
4.54664e-07
4.55567e-07
4.56452e-07
4.57281e-07
4.58142e-07
4.58963e-07
4.59813e-07
4.60732e-07
4.62975e-07
4.62194e-07
4.61436e-07
4.60619e-07
4.59798e-07
4.58984e-07
4.58168e-07
4.57348e-07
4.56506e-07
4.55715e-07
4.54973e-07
4.5424e-07
4.53563e-07
4.52919e-07
4.52248e-07
4.51622e-07
4.51024e-07
4.50438e-07
4.49851e-07
4.49348e-07
4.48932e-07
4.4857e-07
4.48337e-07
4.48153e-07
4.4813e-07
4.48162e-07
4.48339e-07
4.48527e-07
4.48753e-07
4.49092e-07
4.49523e-07
4.49874e-07
4.50283e-07
4.50797e-07
4.51402e-07
4.52022e-07
4.5263e-07
4.5336e-07
4.54159e-07
4.54945e-07
4.55746e-07
4.56481e-07
4.5727e-07
4.58098e-07
4.58894e-07
4.5963e-07
4.60399e-07
4.61114e-07
4.61874e-07
4.62686e-07
4.64665e-07
4.63992e-07
4.6333e-07
4.6261e-07
4.61872e-07
4.61155e-07
4.60425e-07
4.59693e-07
4.58939e-07
4.58217e-07
4.57547e-07
4.56877e-07
4.56268e-07
4.55688e-07
4.55054e-07
4.54491e-07
4.53941e-07
4.53403e-07
4.52837e-07
4.52371e-07
4.51978e-07
4.51642e-07
4.51443e-07
4.51269e-07
4.51244e-07
4.51269e-07
4.51443e-07
4.51612e-07
4.51833e-07
4.52146e-07
4.52551e-07
4.52874e-07
4.53248e-07
4.53721e-07
4.54281e-07
4.54858e-07
4.55408e-07
4.56072e-07
4.56799e-07
4.57524e-07
4.58245e-07
4.58901e-07
4.59614e-07
4.60359e-07
4.61066e-07
4.61715e-07
4.62386e-07
4.63001e-07
4.63671e-07
4.64375e-07
4.66085e-07
4.65515e-07
4.64948e-07
4.64325e-07
4.63677e-07
4.63058e-07
4.62407e-07
4.61771e-07
4.61097e-07
4.60443e-07
4.59854e-07
4.59248e-07
4.58699e-07
4.58183e-07
4.57593e-07
4.57085e-07
4.56592e-07
4.56095e-07
4.55556e-07
4.55119e-07
4.54749e-07
4.54448e-07
4.54274e-07
4.54114e-07
4.54091e-07
4.54108e-07
4.54273e-07
4.54432e-07
4.54638e-07
4.54926e-07
4.55312e-07
4.55607e-07
4.55938e-07
4.56378e-07
4.56887e-07
4.5742e-07
4.57919e-07
4.58518e-07
4.59165e-07
4.59828e-07
4.6047e-07
4.61046e-07
4.61683e-07
4.62345e-07
4.62963e-07
4.63524e-07
4.64104e-07
4.64619e-07
4.65191e-07
4.65796e-07
4.67224e-07
4.66762e-07
4.66293e-07
4.65767e-07
4.65209e-07
4.64681e-07
4.64116e-07
4.6357e-07
4.62975e-07
4.62397e-07
4.61882e-07
4.61339e-07
4.60858e-07
4.604e-07
4.5986e-07
4.59409e-07
4.58971e-07
4.58509e-07
4.58002e-07
4.57595e-07
4.57249e-07
4.56981e-07
4.56834e-07
4.56679e-07
4.5666e-07
4.56675e-07
4.56825e-07
4.5698e-07
4.57163e-07
4.57434e-07
4.57803e-07
4.58061e-07
4.58357e-07
4.58755e-07
4.59214e-07
4.5971e-07
4.6015e-07
4.60683e-07
4.61253e-07
4.61861e-07
4.62417e-07
4.62911e-07
4.63479e-07
4.64052e-07
4.64581e-07
4.6506e-07
4.65542e-07
4.65963e-07
4.66437e-07
4.66942e-07
4.68082e-07
4.6773e-07
4.67359e-07
4.66922e-07
4.66461e-07
4.66019e-07
4.65539e-07
4.65085e-07
4.64569e-07
4.64066e-07
4.63626e-07
4.63154e-07
4.62732e-07
4.62334e-07
4.6185e-07
4.61455e-07
4.61067e-07
4.60646e-07
4.60172e-07
4.59794e-07
4.59471e-07
4.59236e-07
4.5911e-07
4.58966e-07
4.58944e-07
4.58965e-07
4.591e-07
4.59252e-07
4.59411e-07
4.59664e-07
4.60012e-07
4.60238e-07
4.60498e-07
4.60854e-07
4.61264e-07
4.61717e-07
4.62103e-07
4.62572e-07
4.63055e-07
4.63609e-07
4.64087e-07
4.64498e-07
4.6499e-07
4.65481e-07
4.65921e-07
4.66309e-07
4.66701e-07
4.67019e-07
4.67396e-07
4.67801e-07
4.68647e-07
4.68405e-07
4.68133e-07
4.67786e-07
4.67428e-07
4.67073e-07
4.66678e-07
4.66316e-07
4.65878e-07
4.65451e-07
4.65087e-07
4.6468e-07
4.64317e-07
4.63985e-07
4.63557e-07
4.63219e-07
4.62881e-07
4.62502e-07
4.62058e-07
4.61711e-07
4.6141e-07
4.61201e-07
4.61097e-07
4.60969e-07
4.60938e-07
4.60972e-07
4.61094e-07
4.61236e-07
4.61375e-07
4.61612e-07
4.61933e-07
4.62134e-07
4.62356e-07
4.62664e-07
4.63025e-07
4.63435e-07
4.63766e-07
4.64178e-07
4.64574e-07
4.65068e-07
4.65468e-07
4.65801e-07
4.66217e-07
4.6662e-07
4.66969e-07
4.67274e-07
4.67575e-07
4.67789e-07
4.68068e-07
4.68374e-07
4.68919e-07
4.68787e-07
4.68609e-07
4.68358e-07
4.68097e-07
4.6783e-07
4.67527e-07
4.67252e-07
4.66898e-07
4.66546e-07
4.66253e-07
4.6591e-07
4.65613e-07
4.65341e-07
4.64974e-07
4.64695e-07
4.644e-07
4.6407e-07
4.63649e-07
4.6334e-07
4.63061e-07
4.62878e-07
4.62796e-07
4.62681e-07
4.62645e-07
4.62683e-07
4.62792e-07
4.62924e-07
4.63049e-07
4.63272e-07
4.63559e-07
4.63734e-07
4.63925e-07
4.64184e-07
4.64496e-07
4.64866e-07
4.6514e-07
4.65488e-07
4.65804e-07
4.66238e-07
4.66553e-07
4.66813e-07
4.67154e-07
4.67469e-07
4.67728e-07
4.67947e-07
4.68152e-07
4.68266e-07
4.68441e-07
4.68649e-07
4.68891e-07
4.68865e-07
4.68781e-07
4.68631e-07
4.68461e-07
4.68289e-07
4.68078e-07
4.67884e-07
4.67615e-07
4.67345e-07
4.67123e-07
4.66845e-07
4.66614e-07
4.66404e-07
4.66095e-07
4.65876e-07
4.65625e-07
4.65338e-07
4.64943e-07
4.64674e-07
4.64416e-07
4.64259e-07
4.64194e-07
4.64091e-07
4.64057e-07
4.641e-07
4.64197e-07
4.64311e-07
4.64427e-07
4.64637e-07
4.64891e-07
4.65039e-07
4.65192e-07
4.6541e-07
4.65673e-07
4.66003e-07
4.66218e-07
4.66496e-07
4.66737e-07
4.67108e-07
4.67342e-07
4.67529e-07
4.67789e-07
4.68014e-07
4.68183e-07
4.68322e-07
4.68424e-07
4.68445e-07
4.68515e-07
4.6862e-07
4.68556e-07
4.68637e-07
4.68647e-07
4.68598e-07
4.68521e-07
4.68439e-07
4.68319e-07
4.68207e-07
4.68028e-07
4.6784e-07
4.67685e-07
4.67478e-07
4.67306e-07
4.67158e-07
4.66915e-07
4.66749e-07
4.66541e-07
4.66298e-07
4.65936e-07
4.65707e-07
4.65469e-07
4.65339e-07
4.65291e-07
4.65198e-07
4.65168e-07
4.65208e-07
4.653e-07
4.65397e-07
4.65503e-07
4.65694e-07
4.65916e-07
4.66037e-07
4.66151e-07
4.66334e-07
4.66548e-07
4.66834e-07
4.66993e-07
4.67203e-07
4.67367e-07
4.67669e-07
4.67829e-07
4.67934e-07
4.68113e-07
4.68256e-07
4.68334e-07
4.68387e-07
4.68391e-07
4.6831e-07
4.68282e-07
4.67907e-07
4.68096e-07
4.682e-07
4.68247e-07
4.68269e-07
4.68276e-07
4.68242e-07
4.68214e-07
4.68131e-07
4.68017e-07
4.6793e-07
4.67801e-07
4.67688e-07
4.67604e-07
4.67417e-07
4.67307e-07
4.6715e-07
4.66944e-07
4.66619e-07
4.66425e-07
4.66213e-07
4.6611e-07
4.66074e-07
4.65995e-07
4.6597e-07
4.66008e-07
4.66096e-07
4.66175e-07
4.6627e-07
4.66443e-07
4.66627e-07
4.66727e-07
4.66801e-07
4.66943e-07
4.67112e-07
4.6735e-07
4.67453e-07
4.67595e-07
4.67686e-07
4.67915e-07
4.68006e-07
4.68028e-07
4.68127e-07
4.68181e-07
4.68167e-07
4.68133e-07
4.68046e-07
4.67862e-07
4.66935e-07
4.67229e-07
4.67427e-07
4.6757e-07
4.67691e-07
4.67795e-07
4.67845e-07
4.67901e-07
4.67916e-07
4.67877e-07
4.67859e-07
4.67806e-07
4.67746e-07
4.67727e-07
4.67603e-07
4.67542e-07
4.67443e-07
4.67268e-07
4.66986e-07
4.6682e-07
4.6664e-07
4.66565e-07
4.66542e-07
4.66469e-07
4.66456e-07
4.66486e-07
4.66569e-07
4.66637e-07
4.6672e-07
4.6687e-07
4.67023e-07
4.67094e-07
4.67135e-07
4.67236e-07
4.6736e-07
4.67544e-07
4.67596e-07
4.6767e-07
4.67687e-07
4.67838e-07
4.67859e-07
4.67803e-07
4.67817e-07
4.67788e-07
4.6768e-07
4.6756e-07
4.6738e-07
4.65628e-07
4.66027e-07
4.66324e-07
4.66563e-07
4.66786e-07
4.6698e-07
4.67121e-07
4.67261e-07
4.67369e-07
4.67404e-07
4.67462e-07
4.67487e-07
4.67478e-07
4.67526e-07
4.67463e-07
4.67453e-07
4.67405e-07
4.67269e-07
4.67027e-07
4.66891e-07
4.66742e-07
4.66688e-07
4.66687e-07
4.66618e-07
4.66612e-07
4.66639e-07
4.66711e-07
4.66769e-07
4.6684e-07
4.66966e-07
4.6709e-07
4.67138e-07
4.67145e-07
4.67204e-07
4.67276e-07
4.67415e-07
4.67407e-07
4.67413e-07
4.67362e-07
4.67437e-07
4.67387e-07
4.6725e-07
4.67174e-07
4.67062e-07
4.6686e-07
4.66653e-07
4.63983e-07
4.64481e-07
4.64883e-07
4.6522e-07
4.65538e-07
4.65829e-07
4.66056e-07
4.66286e-07
4.66486e-07
4.66597e-07
4.66724e-07
4.66827e-07
4.66877e-07
4.66986e-07
4.66989e-07
4.67031e-07
4.67029e-07
4.66938e-07
4.66735e-07
4.6663e-07
4.66512e-07
4.6648e-07
4.66493e-07
4.66435e-07
4.66435e-07
4.6646e-07
4.66522e-07
4.66569e-07
4.66627e-07
4.66724e-07
4.66819e-07
4.6685e-07
4.66815e-07
4.6684e-07
4.66858e-07
4.66947e-07
4.66885e-07
4.66818e-07
4.66702e-07
4.66702e-07
4.66574e-07
4.66356e-07
4.66197e-07
4.66e-07
4.65704e-07
4.61991e-07
4.6259e-07
4.63089e-07
4.6353e-07
4.63944e-07
4.64333e-07
4.64645e-07
4.64959e-07
4.65255e-07
4.65439e-07
4.65644e-07
4.65818e-07
4.65931e-07
4.66104e-07
4.66173e-07
4.66267e-07
4.66305e-07
4.6626e-07
4.66099e-07
4.66021e-07
4.65939e-07
4.65929e-07
4.65953e-07
4.65911e-07
4.65911e-07
4.6594e-07
4.65992e-07
4.66027e-07
4.66073e-07
4.66134e-07
4.66207e-07
4.66215e-07
4.66143e-07
4.66128e-07
4.66099e-07
4.66132e-07
4.66014e-07
4.6588e-07
4.65698e-07
4.65619e-07
4.65418e-07
4.65118e-07
4.64875e-07
4.64589e-07
4.64196e-07
4.59637e-07
4.60337e-07
4.60933e-07
4.6148e-07
4.6199e-07
4.62478e-07
4.6288e-07
4.63279e-07
4.63664e-07
4.63923e-07
4.64205e-07
4.64458e-07
4.64633e-07
4.6487e-07
4.65005e-07
4.65153e-07
4.65231e-07
4.65225e-07
4.65111e-07
4.65061e-07
4.65014e-07
4.65022e-07
4.65062e-07
4.65029e-07
4.65036e-07
4.65069e-07
4.65111e-07
4.65128e-07
4.65162e-07
4.65193e-07
4.65246e-07
4.65224e-07
4.6512e-07
4.65058e-07
4.64988e-07
4.64967e-07
4.64786e-07
4.64584e-07
4.64334e-07
4.64184e-07
4.6391e-07
4.63525e-07
4.63194e-07
4.62818e-07
4.62334e-07
4.56911e-07
4.57719e-07
4.58413e-07
4.59064e-07
4.59666e-07
4.60253e-07
4.6075e-07
4.61236e-07
4.61705e-07
4.62043e-07
4.62403e-07
4.62729e-07
4.62973e-07
4.63269e-07
4.63468e-07
4.63677e-07
4.6379e-07
4.63829e-07
4.63762e-07
4.6374e-07
4.63729e-07
4.63747e-07
4.63805e-07
4.63786e-07
4.638e-07
4.63831e-07
4.6387e-07
4.63868e-07
4.6389e-07
4.63892e-07
4.63918e-07
4.63866e-07
4.63729e-07
4.63627e-07
4.6351e-07
4.63435e-07
4.63196e-07
4.6292e-07
4.62602e-07
4.62381e-07
4.62034e-07
4.61569e-07
4.6115e-07
4.60677e-07
4.60107e-07
4.53805e-07
4.5472e-07
4.55516e-07
4.56273e-07
4.56961e-07
4.57648e-07
4.58247e-07
4.58818e-07
4.59373e-07
4.5979e-07
4.60223e-07
4.60629e-07
4.60939e-07
4.61297e-07
4.61554e-07
4.61824e-07
4.61977e-07
4.62063e-07
4.62041e-07
4.62048e-07
4.62066e-07
4.62101e-07
4.62177e-07
4.62172e-07
4.62193e-07
4.6222e-07
4.62252e-07
4.62237e-07
4.62247e-07
4.62219e-07
4.62213e-07
4.62132e-07
4.61967e-07
4.61825e-07
4.6166e-07
4.61527e-07
4.61228e-07
4.60884e-07
4.60496e-07
4.60206e-07
4.59778e-07
4.59233e-07
4.58726e-07
4.58157e-07
4.57505e-07
4.50313e-07
4.51336e-07
4.52229e-07
4.53092e-07
4.5387e-07
4.54658e-07
4.55352e-07
4.56015e-07
4.56657e-07
4.57153e-07
4.57658e-07
4.58139e-07
4.58521e-07
4.58941e-07
4.59256e-07
4.59583e-07
4.59777e-07
4.59916e-07
4.59932e-07
4.59967e-07
4.60014e-07
4.60067e-07
4.60162e-07
4.60176e-07
4.60198e-07
4.60228e-07
4.60246e-07
4.60224e-07
4.60217e-07
4.60159e-07
4.60127e-07
4.6001e-07
4.59816e-07
4.59641e-07
4.59422e-07
4.59231e-07
4.58878e-07
4.58464e-07
4.58001e-07
4.57642e-07
4.57134e-07
4.56512e-07
4.55918e-07
4.55253e-07
4.54518e-07
4.4642e-07
4.47551e-07
4.48545e-07
4.4951e-07
4.50383e-07
4.51267e-07
4.52062e-07
4.52811e-07
4.53547e-07
4.54121e-07
4.54698e-07
4.55256e-07
4.55708e-07
4.56186e-07
4.56565e-07
4.56944e-07
4.57183e-07
4.57369e-07
4.57429e-07
4.57492e-07
4.5757e-07
4.57639e-07
4.57755e-07
4.57787e-07
4.5781e-07
4.57842e-07
4.57847e-07
4.57818e-07
4.57793e-07
4.57704e-07
4.57643e-07
4.57489e-07
4.57272e-07
4.57058e-07
4.56785e-07
4.56542e-07
4.56134e-07
4.55651e-07
4.5511e-07
4.54679e-07
4.54095e-07
4.53395e-07
4.52714e-07
4.51952e-07
4.51135e-07
4.42115e-07
4.43354e-07
4.44453e-07
4.45515e-07
4.46488e-07
4.47469e-07
4.4836e-07
4.492e-07
4.50025e-07
4.50676e-07
4.51326e-07
4.51961e-07
4.52483e-07
4.5302e-07
4.53467e-07
4.53893e-07
4.54184e-07
4.54412e-07
4.54515e-07
4.54612e-07
4.54719e-07
4.54805e-07
4.54936e-07
4.54988e-07
4.55016e-07
4.55051e-07
4.55043e-07
4.55006e-07
4.54965e-07
4.54845e-07
4.54748e-07
4.54563e-07
4.54317e-07
4.54064e-07
4.53743e-07
4.53443e-07
4.52979e-07
4.52432e-07
4.51812e-07
4.5131e-07
4.5065e-07
4.49872e-07
4.49098e-07
4.48245e-07
4.37392e-07
4.38734e-07
4.39939e-07
4.41102e-07
4.42174e-07
4.43248e-07
4.44239e-07
4.45171e-07
4.46079e-07
4.46812e-07
4.47535e-07
4.48243e-07
4.48839e-07
4.49436e-07
4.49946e-07
4.5042e-07
4.50761e-07
4.51031e-07
4.51177e-07
4.51314e-07
4.51446e-07
4.51553e-07
4.51701e-07
4.51765e-07
4.51805e-07
4.51836e-07
4.51821e-07
4.51771e-07
4.51713e-07
4.51561e-07
4.51431e-07
4.5122e-07
4.50944e-07
4.50653e-07
4.50284e-07
4.49921e-07
4.49406e-07
4.4879e-07
4.48095e-07
4.47517e-07
4.46787e-07
4.45929e-07
4.45058e-07
4.44119e-07
4.3224e-07
4.33686e-07
4.34989e-07
4.36254e-07
4.3743e-07
4.38597e-07
4.39688e-07
4.4071e-07