/*--------------------------------*- C++ -*----------------------------------*\
  =========                 |
  \\      /  F ield         | OpenFOAM: The Open Source CFD Toolbox
   \\    /   O peration     | Website:  https://openfoam.org
    \\  /    A nd           | Version:  7
     \\/     M anipulation  |
\*---------------------------------------------------------------------------*/
FoamFile
{
    version     2.0;
    format      ascii;
    class       surfaceScalarField;
    location    "56000";
    object      phi;
}
// * * * * * * * * * * * * * * * * * * * * * * * * * * * * * * * * * * * * * //

dimensions      [0 3 -1 0 0 0 0];

internalField   nonuniform List<scalar> 
9490
(
-3.33357e-23
1.41476e-22
3.93035e-23
-1.48181e-23
-3.32333e-23
1.72714e-22
3.91739e-23
-3.45219e-23
-1.26468e-23
-3.21641e-23
1.43113e-22
-2.72874e-23
6.4934e-23
1.67418e-23
-3.34519e-23
1.72329e-22
3.73485e-23
-3.3805e-23
5.22942e-23
-3.20987e-23
1.15194e-22
-2.67227e-23
5.81224e-23
1.63359e-23
-3.2985e-23
1.99739e-22
3.53174e-23
-3.46719e-23
5.30574e-23
-3.17131e-23
1.78135e-22
-2.70415e-23
9.04609e-23
2.01769e-23
-3.175e-23
1.60436e-22
3.3946e-23
-3.46117e-23
-2.76616e-23
-3.14309e-23
1.74208e-22
-2.72211e-23
1.17217e-22
2.41692e-23
-3.29286e-23
7.53083e-23
3.24609e-23
-3.31458e-23
-8.40551e-23
-3.23305e-23
1.34811e-22
-2.71431e-23
7.26965e-23
-2.36255e-23
-3.29526e-23
7.32673e-23
3.30266e-23
-3.23194e-23
-4.84311e-23
-3.14924e-23
1.31445e-22
-2.756e-23
1.08886e-23
-2.25196e-23
-3.20292e-23
1.10816e-22
3.34386e-23
-3.14864e-23
-5.18322e-23
-3.13226e-23
1.25269e-22
-2.72694e-23
7.25812e-24
-5.06342e-23
-3.27258e-23
1.09808e-22
3.25755e-23
-3.02085e-23
6.82686e-24
-3.18822e-23
1.20224e-22
-2.70604e-23
3.72293e-23
-5.16559e-23
-3.30567e-23
1.11139e-22
3.09149e-23
-2.94096e-23
1.21068e-22
-3.22743e-23
1.20013e-22
-2.70823e-23
5.90043e-23
-5.20139e-23
-3.20585e-23
4.93928e-23
2.98375e-23
-2.98058e-23
1.19644e-22
-3.17354e-23
1.13788e-22
-2.75416e-23
1.02381e-22
-2.43464e-23
-3.11111e-23
5.11956e-23
2.9428e-23
-2.97401e-23
1.16393e-22
-3.26062e-23
1.07698e-22
-2.77783e-23
9.48625e-23
-2.73124e-23
-2.94506e-23
-2.75036e-24
2.92644e-23
-2.97477e-23
8.27933e-23
-3.2939e-23
6.7058e-23
-2.79408e-23
8.27996e-23
-2.8924e-23
2.0212e-24
2.84589e-23
-2.93746e-23
8.12596e-23
-3.27274e-23
3.35437e-23
7.43783e-23
-2.84588e-23
6.15888e-24
2.86417e-23
-2.92587e-23
8.35896e-23
-3.29717e-23
3.24861e-23
1.02213e-22
-2.81561e-23
-5.03188e-23
2.80222e-23
-2.85386e-23
1.20452e-22
-3.27334e-23
3.78594e-23
-2.75181e-23
1.35208e-23
2.79585e-23
-2.85991e-23
1.28285e-22
9.76438e-24
-2.66581e-23
-1.7363e-23
2.73963e-23
-2.82024e-23
1.34893e-22
-2.60184e-23
-1.64392e-23
2.76681e-23
1.35238e-22
-2.58616e-23
1.77323e-23
2.70548e-23
1.36888e-22
-2.52272e-23
-1.31806e-23
2.61623e-23
1.12855e-22
-2.50913e-23
1.9801e-23
2.5724e-23
9.06172e-23
-2.43527e-23
8.26307e-23
2.59729e-23
2.49912e-23
-7.74058e-24
-3.12429e-23
6.06233e-24
-1.0587e-23
-3.93436e-23
-1.22299e-23
-8.22045e-23
-1.25693e-23
-1.79162e-23
-1.54351e-23
1.82878e-23
-1.43865e-23
-5.9922e-23
-1.10876e-23
3.39937e-23
-1.0728e-23
-9.89668e-25
-8.90539e-24
9.55947e-23
-1.51053e-23
-3.4762e-23
-7.66967e-24
2.16736e-24
-2.32588e-23
1.22783e-23
-2.00242e-23
-1.53769e-23
-1.75283e-23
7.39329e-23
4.65927e-24
1.00692e-22
1.20592e-23
1.51537e-22
4.6676e-24
4.4737e-23
7.74476e-24
-3.38466e-23
-7.77812e-25
1.09722e-23
-7.80592e-23
-7.5731e-24
-1.32856e-23
5.2622e-24
-1.1304e-23
9.52144e-24
-9.85114e-24
-1.03455e-22
-1.29072e-23
-2.10169e-23
-1.66713e-23
-4.38987e-23
-1.35956e-23
-6.04792e-23
-1.15213e-23
2.20292e-23
-9.02014e-24
-9.13782e-24
-1.03747e-23
1.65094e-22
-1.51641e-23
-3.44989e-23
-7.50845e-24
-1.2453e-23
-2.26803e-23
-4.61101e-23
-1.83493e-23
-4.99554e-24
-1.7143e-23
1.179e-22
7.10747e-24
1.36189e-22
9.58469e-24
1.24032e-22
2.11417e-24
7.79116e-23
8.31787e-24
-2.27989e-23
-4.18635e-24
-3.64941e-23
-8.53552e-23
-5.63967e-24
-4.63723e-23
3.37261e-24
-1.27157e-23
-1.88594e-23
-9.71735e-24
-9.42137e-23
-1.27119e-23
-2.19289e-23
-1.65233e-23
-7.07381e-23
-1.24825e-23
-6.37521e-23
-1.13484e-23
2.16131e-23
-7.06593e-24
-2.41161e-23
-1.34593e-23
1.77655e-22
-1.46118e-23
-4.47227e-23
-9.31417e-24
-1.40821e-23
-2.03539e-23
-3.36947e-23
-1.51615e-23
3.26497e-23
-1.72245e-23
1.22088e-22
7.61419e-24
1.25583e-22
8.26678e-24
5.65505e-23
1.94634e-24
2.53239e-23
7.44987e-24
-2.58331e-23
-6.14399e-24
-6.38642e-23
-6.61137e-23
-6.52199e-24
-4.15886e-23
1.1592e-24
-1.25318e-23
-7.61699e-23
-9.40959e-24
-6.60524e-23
-1.40818e-23
-5.33333e-23
-1.50035e-23
-3.04473e-23
-1.20795e-23
-1.15823e-22
-9.76673e-24
-1.67352e-23
-3.84363e-24
-5.69398e-23
-1.59846e-23
1.13953e-22
-1.49144e-23
-5.22169e-23
-8.56932e-24
1.9488e-23
-1.79633e-23
-1.91185e-23
-1.29347e-23
4.29386e-23
-1.68327e-23
1.83713e-22
5.95233e-24
1.26984e-22
8.05547e-24
7.45002e-23
1.20046e-24
-3.62688e-23
5.80718e-24
-4.05884e-23
-6.37425e-24
-5.76161e-23
-4.6212e-23
-7.99853e-24
-4.1439e-23
2.92117e-25
-1.23929e-23
-4.64298e-23
-9.34237e-24
-1.01705e-22
-1.32154e-23
-4.94335e-23
-1.55806e-23
-2.72659e-23
-1.05943e-23
-1.23112e-22
-9.59602e-24
2.13177e-23
-2.92892e-24
-3.0447e-23
-1.70266e-23
5.74769e-23
-1.48742e-23
-1.44741e-23
-9.06619e-24
5.52644e-23
-1.54403e-23
-1.37092e-23
-9.6992e-24
1.70899e-23
-1.73973e-23
1.26879e-22
3.7849e-24
1.52426e-22
5.63721e-24
6.87076e-23
1.41036e-24
-1.93432e-23
5.2602e-24
-4.8981e-23
-7.29169e-24
-5.62387e-23
9.11999e-24
-8.12024e-24
-9.9606e-23
7.70155e-25
-1.27587e-23
-4.13356e-23
-9.94633e-24
-1.0273e-22
-1.27041e-23
-4.41902e-23
-1.5987e-23
-2.63058e-23
-9.41496e-24
-1.3055e-22
-7.85182e-24
3.416e-23
-2.24612e-24
-3.46496e-23
-1.55388e-23
4.10993e-23
-1.41083e-23
-8.62409e-23
-9.00759e-24
1.09363e-22
-1.34318e-23
-6.98346e-24
-7.64849e-24
6.07773e-23
-1.62192e-23
1.22368e-22
9.50768e-25
1.71176e-22
3.37758e-24
7.65536e-23
7.36149e-25
-1.76545e-23
4.8278e-24
1.81172e-23
-6.18274e-24
-9.03473e-23
1.96866e-24
-8.53495e-24
-1.33019e-22
6.60395e-25
-1.15871e-23
2.90536e-24
-9.32754e-24
-8.74985e-23
-1.30835e-23
-7.80741e-23
-1.71135e-23
-3.03661e-23
-6.64762e-24
-8.04538e-23
-7.97942e-24
8.78891e-23
-3.06623e-24
-4.58219e-23
-1.46275e-23
4.89557e-23
-1.29548e-23
-8.13479e-23
-9.85923e-24
1.46122e-22
-1.24825e-23
3.47371e-23
-7.38683e-24
7.11468e-23
-1.31654e-23
5.43496e-23
-3.28296e-24
1.26482e-22
1.46469e-24
7.93926e-23
2.17668e-24
-5.20878e-23
2.53811e-24
1.03307e-23
-4.43876e-24
-1.30313e-23
6.62174e-23
-6.35237e-24
-1.03016e-22
2.72645e-24
-1.26948e-23
-4.77545e-23
-1.00691e-23
-6.79395e-23
-1.22951e-23
-1.33774e-22
-1.58578e-23
-4.38671e-23
-4.32657e-24
-9.54405e-23
-7.47996e-24
1.36668e-22
-4.46e-24
-8.17598e-23
-1.40325e-23
4.34829e-23
-1.11019e-23
-7.90954e-23
-9.86096e-24
1.45497e-22
-1.23183e-23
1.03863e-23
-6.54962e-24
1.03791e-22
-1.16925e-23
1.60635e-25
-4.81165e-24
5.07978e-23
2.29214e-25
8.00044e-23
3.17462e-24
-1.02743e-23
2.82642e-24
7.58667e-24
-3.82031e-24
-4.20751e-23
-7.84881e-25
6.99292e-23
6.44397e-24
-4.43044e-23
1.33393e-24
2.6043e-23
-5.58707e-24
-1.81684e-23
-3.26755e-24
-8.97614e-23
-2.03742e-23
-6.92713e-23
-2.38843e-23
6.87183e-24
-8.2064e-24
1.07541e-22
-2.52253e-23
-1.30096e-23
-2.57187e-23
-1.44669e-24
-2.42836e-23
1.12107e-24
-1.77805e-23
7.49742e-24
-2.15565e-23
1.52107e-23
-2.22034e-23
-3.8298e-24
-1.77697e-23
1.73613e-23
-1.73268e-23
-4.78423e-24
-2.22242e-23
4.48066e-24
-1.27737e-23
-6.15351e-23
-1.00154e-23
-2.6115e-23
-1.11229e-23
-1.30551e-22
-1.48443e-23
4.27007e-23
-2.12216e-24
-4.45891e-23
-8.5979e-24
6.01882e-23
-4.68681e-24
-5.75254e-23
-1.43677e-23
8.18118e-23
-8.58733e-24
-5.03089e-23
-9.03914e-24
1.47015e-22
-1.20547e-23
-6.01068e-23
-8.5579e-24
1.05282e-22
-1.11622e-23
1.012e-24
-4.77143e-24
5.35721e-23
-1.30265e-24
7.68787e-23
2.98545e-24
5.46877e-23
2.26912e-24
9.24712e-24
-2.14688e-24
-6.42944e-23
-2.32409e-24
7.33885e-23
6.7502e-24
-2.54402e-23
7.75916e-25
-9.32015e-24
-7.19493e-24
-2.69506e-23
-3.46851e-24
-1.4449e-23
-1.83732e-23
-3.46817e-23
-2.24258e-23
5.36956e-23
-1.04442e-23
9.73627e-23
-2.51108e-23
-7.45137e-23
-2.55917e-23
2.19714e-23
-2.35724e-23
3.87036e-23
-1.66817e-23
1.19936e-23
-2.10494e-23
-3.83361e-23
-2.13817e-23
-5.38223e-23
-1.66817e-23
1.20216e-23
-1.63978e-23
-1.02852e-23
-1.73991e-23
-2.866e-24
-8.02444e-23
-6.0854e-24
-4.02692e-23
2.54852e-24
-1.20679e-23
-8.25827e-23
-1.14364e-23
2.9723e-23
-9.51093e-24
-1.25434e-22
-1.36044e-23
4.4199e-23
-3.23964e-24
-1.18615e-22
-8.90965e-24
-1.68647e-24
-2.89584e-24
-6.91111e-23
-1.45866e-23
1.86765e-23
-8.05503e-24
-5.69915e-23
-1.00215e-23
1.48959e-22
-1.01401e-23
-4.46637e-23
-9.69103e-24
1.26019e-22
-1.04099e-23
6.63892e-24
-4.38135e-24
3.47287e-23
-4.65357e-25
3.80005e-23
1.16042e-24
5.01602e-23
1.8432e-24
4.27126e-23
-4.10417e-25
-6.84211e-23
-3.37274e-24
8.20755e-23
6.03316e-24
-2.25237e-23
1.00329e-24
-1.35183e-23
-7.13e-24
-3.77728e-23
-4.08378e-24
-1.11421e-23
-1.63181e-23
-3.39334e-23
-2.24475e-23
-1.59801e-23
-1.30032e-23
9.69203e-23
-2.38887e-23
-5.67121e-23
-2.4407e-23
8.63344e-24
-2.447e-23
4.39231e-23
-1.64257e-23
1.67407e-23
-2.05024e-23
-6.0172e-23
-2.05707e-23
-7.38226e-23
-1.44183e-23
6.59164e-23
-1.67343e-23
-3.90247e-23
-1.88391e-23
-2.65516e-23
-1.97611e-23
-7.18017e-23
-4.27459e-23
-6.05071e-24
-4.16884e-23
2.40983e-24
-1.22266e-23
-9.42643e-23
-1.18788e-23
5.53092e-23
-7.12503e-24
-9.15723e-23
-1.61718e-23
-1.94707e-23
-2.5318e-24
-1.03401e-22
-8.28893e-24
-2.3401e-23
-2.52841e-24
-4.28461e-23
-1.4379e-23
-1.61918e-23
-5.91571e-24
-7.31616e-23
-1.11721e-23
9.30181e-23
-8.53522e-24
-4.28235e-23
-1.0463e-23
1.36999e-22
-1.16563e-23
1.6216e-23
-3.52933e-24
6.63602e-23
5.68737e-25
5.16055e-23
6.24932e-25
4.82312e-23
9.90486e-25
3.6574e-23
1.24202e-24
-5.89051e-24
-4.28678e-24
3.31018e-23
4.77182e-24
-3.41819e-23
1.21037e-24
3.34451e-25
-6.95948e-24
-6.39345e-23
-4.173e-24
-6.44657e-24
-1.63121e-23
-3.04914e-23
-2.09749e-23
-1.02645e-23
-1.49979e-23
9.57961e-23
-2.37964e-23
-7.87132e-23
-2.23337e-23
1.0136e-23
-2.55172e-23
-1.55921e-23
-1.68049e-23
3.59399e-23
-1.98546e-23
-3.91797e-23
-1.83584e-23
-6.33424e-23
-1.55101e-23
5.62633e-23
-1.63491e-23
-3.47956e-23
-1.8114e-23
-2.02314e-23
-1.94609e-23
-6.60433e-23
-2.23812e-23
-6.89054e-23
-1.6158e-23
-9.23253e-23
-3.99765e-23
-5.79445e-24
-4.43606e-23
3.14321e-24
-1.17038e-23
-8.21544e-23
-1.2741e-23
7.33084e-23
-7.39673e-24
-9.24321e-23
-1.59893e-23
-9.61469e-24
-2.80516e-24
-1.21644e-22
-6.80789e-24
-4.82497e-23
-2.04365e-24
4.3473e-23
-1.35854e-23
-1.54407e-23
-5.65017e-24
2.19727e-25
-1.06826e-23
1.01031e-22
-7.22995e-24
-4.31688e-23
-1.08251e-23
6.12469e-23
-1.10679e-23
3.00466e-23
-4.02985e-24
7.39402e-23
5.52746e-25
1.12366e-22
-1.59779e-25
1.05535e-22
1.50239e-24
2.06623e-23
5.64333e-25
-2.15818e-23
-4.03148e-24
4.08862e-23
5.02047e-24
-1.50749e-23
1.93399e-25
-2.29977e-24
-6.34832e-24
-5.7702e-23
-4.25378e-24
-2.61493e-24
-1.63907e-23
-1.55916e-23
-1.94839e-23
-1.23151e-23
-1.71619e-23
9.15732e-23
-2.33506e-23
-8.11058e-23
-2.23484e-23
4.20518e-23
-2.5149e-23
-1.1563e-23
-1.67394e-23
-1.49774e-25
-1.98711e-23
-4.63303e-23
-1.61588e-23
-3.46311e-23
-1.65431e-23
1.48368e-23
-1.51016e-23
-3.11656e-23
-1.78407e-23
-3.95238e-23
-2.01019e-23
-6.19922e-23
-2.13231e-23
-5.10086e-23
-1.54084e-23
-7.7338e-23
-2.22083e-23
-5.63825e-23
-3.41745e-23
-4.964e-23
-4.90853e-23
-6.31744e-24
-3.99256e-23
2.51022e-24
-1.11384e-23
-1.02515e-22
-1.25871e-23
4.88754e-23
-7.39e-24
-9.49705e-23
-1.62934e-23
-2.67317e-23
-2.03174e-24
-5.0808e-23
-4.55761e-24
-4.18798e-23
-3.77045e-24
4.12997e-23
-1.29696e-23
-1.42121e-23
-4.97661e-24
-1.38149e-23
-1.04906e-23
1.89217e-23
-6.10718e-24
1.30359e-23
-1.11207e-23
1.02428e-22
-1.00721e-23
1.04707e-22
-3.69571e-24
3.97182e-23
7.32779e-25
6.92853e-23
-1.36336e-24
9.68092e-23
1.42817e-24
1.75348e-23
1.70903e-25
3.82099e-23
-4.51151e-24
5.24469e-23
4.70787e-24
3.78187e-23
-9.10397e-25
-3.62868e-23
-5.69294e-24
-2.55534e-23
-4.05541e-24
-5.58639e-24
-1.67844e-23
-5.77992e-24
-1.8321e-23
2.19272e-23
-1.92344e-23
2.88334e-23
-2.25648e-23
-8.37276e-23
-2.20256e-23
5.62847e-24
-2.48018e-23
-1.39208e-23
-1.60953e-23
1.57673e-23
-1.85527e-23
-5.32599e-23
-1.58199e-23
-3.76724e-23
-1.675e-23
1.41305e-23
-1.48084e-23
5.61025e-23
-1.80386e-23
-3.25666e-23
-1.89162e-23
-5.74383e-23
-2.12479e-23
-7.71978e-23
-1.53135e-23
-6.22134e-23
-2.01659e-23
-7.3145e-23
-3.36997e-23
-7.62358e-23
-2.90041e-23
-4.58027e-23
-3.27337e-23
-3.91846e-23
-3.83344e-23
-2.39341e-23
-3.61821e-23
-5.62084e-24
-3.77407e-23
2.95628e-24
-1.09896e-23
-1.53567e-22
-1.25939e-23
-8.67093e-24
-8.13563e-24
-6.51151e-23
-1.64339e-23
-1.38315e-23
-4.01311e-25
-8.20658e-24
-3.00024e-24
-4.26856e-23
-5.32981e-24
4.41042e-23
-1.23402e-23
3.1161e-23
-4.43222e-24
-6.7451e-24
-9.18698e-24
1.78483e-23
-6.25624e-24
2.38506e-23
-9.25819e-24
7.14988e-23
-1.17475e-23
5.1355e-23
-2.58901e-24
9.28489e-23
5.65741e-25
2.4922e-23
-2.6377e-24
5.08663e-23
2.57705e-24
6.89118e-23
-5.14578e-25
7.29397e-23
-4.28054e-24
1.86335e-23
3.25977e-24
3.31026e-23
-1.13203e-24
-3.54645e-23
-5.41044e-24
6.97214e-24
-3.94882e-24
-6.29254e-24
-1.65446e-23
-2.98245e-23
-1.88731e-23
2.51439e-25
-2.00117e-23
3.27999e-23
-2.22683e-23
-6.77046e-23
-2.1608e-23
3.26493e-24
-2.44745e-23
-1.13436e-23
-1.60886e-23
1.98058e-24
-1.74194e-23
-6.53918e-23
-1.50176e-23
-3.76803e-23
-1.50284e-23
-4.95641e-23
-1.60639e-23
-7.70927e-24
-1.78281e-23
-3.42019e-23
-1.96467e-23
-5.57694e-23
-1.96603e-23
-3.46243e-23
-1.54994e-23
-4.45192e-23
-1.92505e-23
-8.08906e-23
-3.34093e-23
-7.75255e-23
-2.79873e-23
-2.69999e-23
-3.24798e-23
-6.45478e-23
-3.67716e-23
-2.52029e-23
-4.06617e-23
-5.03824e-23
-4.08282e-23
5.1302e-23
-1.12087e-23
-5.79538e-24
-3.15382e-23
3.27248e-24
-1.13691e-23
-1.34584e-22
-1.19666e-23
-9.36916e-24
-7.89444e-24
-6.63429e-23
-1.51998e-23
4.29247e-25
-1.42534e-24
-2.39588e-23
-5.49466e-25
-1.27034e-23
-4.69752e-24
5.29191e-23
-1.26318e-23
5.38515e-23
-4.52166e-24
7.34423e-23
-8.25722e-24
1.50549e-23
-5.04859e-24
2.69218e-23
-8.80814e-24
8.4383e-23
-1.2158e-23
4.26745e-23
-3.45297e-24
4.87927e-23
1.35601e-24
1.27001e-23
-3.1278e-24
4.83477e-23
4.15987e-24
9.26817e-23
-2.35214e-24
1.23545e-23
-3.78518e-24
5.3782e-24
2.27658e-24
8.90131e-23
-8.90875e-25
-2.70541e-23
-5.69073e-24
8.91554e-24
-4.1072e-24
-2.39579e-23
-1.63466e-23
-3.13944e-23
-1.88164e-23
-2.99369e-24
-2.08846e-23
1.35293e-24
-2.22409e-23
-6.0463e-23
-2.10612e-23
7.72331e-25
-2.41605e-23
1.86843e-23
-1.63957e-23
-1.43508e-23
-1.63444e-23
-3.64999e-23
-1.50625e-23
-3.32843e-23
-1.37498e-23
-2.10906e-23
-1.54986e-23
-1.04063e-23
-1.77788e-23
-8.35108e-25
-1.99034e-23
-5.72375e-23
-1.94865e-23
-2.65477e-23
-1.51748e-23
-6.19633e-23
-1.95557e-23
-6.6856e-23
-3.18228e-23
-1.34072e-22
-2.83763e-23
-4.85271e-23
-3.17495e-23
-8.51737e-23
-3.61179e-23
-6.15354e-23
-3.9826e-23
-8.95445e-23
-4.00832e-23
1.1809e-23
-3.97568e-23
-1.42133e-23
-3.15709e-23
6.24095e-23
-4.09116e-23
1.06342e-22
9.21458e-23
-6.3978e-24
-2.37748e-23
3.52491e-24
-1.05958e-23
-1.25359e-22
-1.21018e-23
-4.83584e-24
-6.15251e-24
-3.73969e-23
-1.67437e-23
-7.36304e-23
-3.98159e-25
1.86843e-23
-8.58394e-25
-4.97173e-23
-4.70271e-24
-2.91938e-23
-1.17893e-23
3.42977e-24
-5.50441e-24
2.85657e-23
-7.35364e-24
7.11834e-23
-4.78717e-24
2.50987e-23
-9.66689e-24
4.35123e-23
-1.17561e-23
3.24133e-23
-4.23892e-24
7.40028e-23
2.49363e-24
6.04429e-23
-2.5754e-24
1.62232e-23
3.88545e-24
7.62204e-23
-2.57941e-24
-2.57074e-23
-2.82195e-24
6.25022e-23
6.81408e-25
8.66843e-23
-6.90115e-25
-1.05851e-23
-6.20326e-24
1.32116e-23
-4.04156e-24
-8.63064e-24
-1.63741e-23
-2.74894e-23
-1.88845e-23
3.21269e-23
-2.13162e-23
1.81386e-23
-2.20004e-23
-5.48885e-23
-1.98977e-23
3.30001e-23
-2.5346e-23
1.97053e-23
-1.55323e-23
2.70328e-23
-1.64418e-23
-3.37772e-23
-1.46527e-23
-2.99198e-23
-1.33562e-23
-2.75691e-23
-1.43568e-23
-5.55588e-23
-1.85408e-23
-1.52688e-23
-1.89497e-23
-6.01148e-23
-1.90171e-23
-1.76317e-23
-1.47482e-23
-5.36005e-23
-1.97825e-23
-1.38414e-22
-3.05715e-23
-1.63937e-22
-2.79304e-23
-2.95193e-23
-3.05103e-23
-6.41164e-23
-3.56801e-23
-2.79397e-23
-3.89537e-23
-1.28809e-22
-3.79763e-23
-3.35214e-23
-3.89645e-23
-1.5658e-23
-3.05614e-23
5.07223e-23
-3.99882e-23
2.51285e-23
9.82129e-23
-6.85212e-24
-2.07032e-24
3.71116e-24
-1.03648e-23
-1.12245e-22
-1.19883e-23
-3.64024e-23
-7.44958e-24
-3.83843e-23
-1.54165e-23
-5.78168e-23
-1.32796e-24
1.14341e-24
-7.15034e-25
-5.11318e-23
-2.94902e-24
-1.91328e-23
-1.12599e-23
1.69814e-23
-4.21893e-24
8.84034e-23
-7.99104e-24
3.91328e-23
-4.1771e-24
5.83769e-23
-9.59979e-24
1.46948e-24
-1.13563e-23
1.18282e-23
-3.4973e-24
9.58408e-23
2.02161e-24
1.08462e-22
-1.53761e-24
4.80803e-23
2.55433e-24
4.98548e-23
-1.6371e-24
4.11548e-24
-2.98078e-24
6.03199e-23
1.39452e-26
8.71541e-23
-1.06206e-24
3.78917e-23
-6.62003e-24
2.1341e-23
-4.15646e-24
4.71069e-24
-1.58284e-23
-2.09383e-23
-1.91378e-23
3.04467e-23
-2.20786e-23
-5.11563e-24
-2.09718e-23
-4.15337e-23
-1.96337e-23
2.79132e-23
-2.53125e-23
2.28206e-23
-1.54877e-23
4.42804e-23
-1.59048e-23
-6.53491e-23
-1.43783e-23
-2.12259e-23
-1.32548e-23
-3.54521e-23
-1.4028e-23
-7.57914e-23
-1.82079e-23
-5.03234e-23
-1.87716e-23
-7.726e-23
-1.85812e-23
-1.32058e-23
-1.60086e-23
-1.3993e-22
-1.91489e-23
-1.27125e-22
-2.949e-23
-1.9818e-22
-2.7967e-23
-5.76717e-23
-3.09426e-23
-5.64575e-23
-3.5266e-23
5.66698e-24
-3.79035e-23
-1.2928e-22
-3.63692e-23
-3.82581e-23
-3.74913e-23
4.68089e-23
-3.02707e-23
7.1615e-23
-3.78837e-23
-3.00506e-23
9.86332e-24
-7.29905e-24
9.30884e-24
3.23542e-24
-1.04191e-23
-8.89054e-23
-1.17465e-23
-6.04619e-23
-6.86014e-24
-4.02886e-23
-1.53452e-23
-4.12491e-23
-1.9313e-24
2.26958e-23
2.94364e-25
-5.25157e-23
-3.05455e-24
-8.91087e-24
-9.95862e-24
6.52786e-23
-4.58077e-24
8.74573e-23
-7.8191e-24
8.2435e-23
-4.16148e-24
1.26503e-22
-8.9527e-24
1.83498e-23
-1.05895e-23
-4.07118e-24
-3.18238e-24
1.24462e-22
1.73923e-24
1.31044e-22
-2.383e-24
1.31603e-23
2.37946e-24
3.48758e-23
-3.25081e-25
3.29324e-23
-3.48621e-24
2.81141e-23
9.9514e-26
8.8407e-23
-1.90063e-24
1.94071e-23
-6.5681e-24
3.14148e-23
-4.40177e-24
2.95561e-23
-1.52349e-23
-1.84033e-23
-1.99855e-23
-3.70387e-24
-2.24755e-23
-5.27919e-23
-2.03128e-23
-4.15567e-23
-1.91978e-23
2.35392e-23
-2.4931e-23
2.90547e-23
-1.67298e-23
1.46583e-23
-1.49549e-23
-6.16238e-23
-1.46433e-23
-4.77247e-23
-1.27048e-23
-4.15657e-23
-1.33012e-23
-8.04627e-23
-1.79471e-23
-4.6879e-23
-1.79573e-23
-8.25012e-23
-1.99904e-23
-9.4734e-24
-1.60189e-23
-1.33131e-22
-1.86035e-23
-1.20179e-22
-2.7362e-23
-1.77713e-22
-2.69226e-23
-8.80528e-23
-2.9731e-23
-4.92019e-23
-3.66744e-23
-2.34597e-23
-3.63929e-23
-3.87105e-23
-3.47644e-23
-3.52655e-24
-3.87798e-23
1.03624e-22
-2.97871e-23
9.52627e-23
-3.67887e-23
-4.36244e-23
-1.76332e-23
-7.70535e-24
3.5884e-23
2.81687e-24
-1.1288e-23
-7.3808e-23
-1.12763e-23
9.93101e-24
-7.09814e-24
-1.1813e-23
-1.36091e-23
-3.11202e-23
-1.88334e-24
7.42443e-23
1.19662e-24
-5.67214e-23
-1.65375e-24
-3.47907e-23
-9.24875e-24
7.43944e-23
-4.36697e-24
8.24303e-23
-6.85198e-24
4.5963e-23
-5.92479e-24
1.34085e-22
-9.05713e-24
7.43247e-23
-9.06336e-24
5.00774e-23
-3.36821e-24
8.06481e-23
5.72879e-25
1.22012e-22
-2.81519e-24
1.20514e-23
2.55408e-24
1.91675e-23
1.76081e-25
3.08249e-23
-3.44413e-24
8.63868e-25
-4.31177e-26
9.96605e-23
-2.50717e-24
-2.00392e-23
-6.46698e-24
5.56225e-23
-5.107e-24
2.05672e-23
-1.51931e-23
-1.88338e-23
-2.1037e-23
-6.89146e-23
-2.20524e-23
-4.41146e-23
-1.94163e-23
-4.11226e-23
-1.84771e-23
2.06136e-23
-2.54142e-23
5.29226e-24
-1.66653e-23
2.30871e-23
-1.472e-23
-6.18596e-23
-1.4438e-23
-3.11645e-23
-1.19364e-23
3.91755e-23
-1.30175e-23
-9.3287e-23
-1.72982e-23
-4.05296e-23
-1.71414e-23
-8.87248e-23
-2.06479e-23
-4.17883e-23
-1.56263e-23
-1.28769e-22
-1.84776e-23
-7.82074e-23
-2.60674e-23
-1.65543e-22
-2.62601e-23
-1.37759e-22
-2.92269e-23
-8.25732e-23
-3.60669e-23
-1.61541e-23
-3.73922e-23
-3.96247e-23
-3.31066e-23
-9.1304e-24
-3.9389e-23
3.59174e-23
-2.99607e-23
8.02748e-23
-3.54804e-23
-3.1912e-23
1.29611e-23
-7.17264e-24
-5.47309e-24
2.08983e-24
-1.12373e-23
-1.18212e-22
-1.10243e-23
1.41923e-23
-7.05033e-24
4.9885e-23
-1.2727e-23
-2.3664e-23
-3.36092e-24
9.59751e-23
1.40939e-24
-2.55395e-23
8.68252e-26
-3.15177e-23
-8.63474e-24
8.24801e-23
-4.79932e-24
1.42841e-22
-5.15605e-24
4.75199e-23
-6.08908e-24
1.38445e-22
-9.35866e-24
9.85398e-23
-8.6359e-24
2.63267e-23
-2.69338e-24
1.59366e-22
-1.02924e-24
1.76864e-22
-2.8908e-24
-2.91251e-24
2.6889e-24
6.04386e-24
6.58886e-25
6.73382e-23
-2.90866e-24
-3.01314e-23
-1.14065e-24
6.41079e-23
-1.82837e-24
-1.02115e-24
-7.11568e-24
2.17596e-23
-5.44128e-24
4.3631e-23
-1.61929e-23
-1.73333e-23
-2.0822e-23
-6.38296e-23
-2.20276e-23
-3.861e-23
-1.81064e-23
8.9499e-24
-1.8589e-23
1.65345e-23
-2.52984e-23
9.78866e-24
-1.67645e-23
6.50575e-23
-1.44035e-23
-6.20028e-23
-1.30971e-23
-2.20206e-23
-1.29378e-23
-9.29944e-25
-1.19862e-23
-6.81028e-23
-1.74547e-23
-1.26487e-22
-1.68888e-23
-5.46238e-23
-2.07312e-23
-7.64962e-23
-1.52914e-23
-1.16258e-22
-1.9155e-23
-7.13583e-23
-2.5556e-23
-1.5966e-22
-2.47756e-23
-1.28729e-22
-2.83967e-23
-8.23854e-23
-3.47879e-23
-4.87716e-23
-3.7049e-23
-4.29522e-23
-3.20802e-23
-9.30602e-24
-3.8876e-23
-1.4378e-23
-3.17518e-23
7.24673e-23
-3.45943e-23
3.68961e-23
4.37352e-23
-8.43211e-24
-4.53861e-23
1.48753e-24
-1.01333e-23
-1.45097e-22
-1.15524e-23
-1.67346e-23
-7.23437e-24
1.46707e-23
-1.26913e-23
-5.54415e-23
-3.37131e-24
8.87732e-23
1.04334e-24
2.50766e-23
1.23439e-24
-3.02339e-23
-7.35379e-24
1.28598e-22
-6.69492e-24
1.35333e-22
-4.51166e-24
7.62414e-23
-5.63373e-24
1.41508e-22
-1.05074e-23
9.05413e-23
-7.72401e-24
3.18497e-23
-2.30077e-24
1.50894e-22
-2.59631e-24
1.58291e-22
-2.26213e-24
2.04229e-23
2.4375e-24
5.51538e-23
8.94003e-25
1.31375e-22
-2.90857e-24
-2.18264e-23
-1.44106e-24
6.79249e-23
-1.85387e-24
-2.33948e-23
-6.69628e-24
1.2097e-23
-6.23217e-24
4.00482e-23
-1.69419e-23
-1.41779e-23
-2.08883e-23
-5.34092e-23
-2.12805e-23
-3.48259e-23
-1.76876e-23
1.71693e-24
-1.85724e-23
-4.72841e-23
-2.4507e-23
1.35782e-23
-1.71387e-23
7.66251e-23
-1.40366e-23
-1.00576e-22
-1.24634e-23
-8.20198e-24
-1.376e-23
1.35389e-24
-1.28407e-23
-6.52143e-23
-1.55162e-23
-1.1902e-22
-1.74176e-23
-8.52038e-23
-2.00072e-23
-7.48981e-23
-1.40477e-23
-1.18241e-22
-1.95372e-23
-1.01928e-22
-2.41897e-23
-1.59835e-22
-2.379e-23
-1.16779e-22
-2.82508e-23
-1.1122e-22
-3.31087e-23
-4.87017e-23
-3.63183e-23
-4.72696e-23
-3.11479e-23
2.44563e-23
-3.84409e-23
-6.32071e-23
-3.10205e-23
9.63963e-23
-3.47299e-23
4.43364e-23
4.07517e-23
-8.62894e-24
-5.13929e-23
2.86634e-24
-1.00735e-23
-1.04841e-22
-1.03308e-23
-9.72018e-24
-7.74903e-24
-3.09421e-23
-1.11159e-23
-5.32927e-23
-4.23735e-24
8.30741e-23
8.18418e-25
1.5233e-23
2.88415e-24
-2.81484e-23
-6.37431e-24
8.00776e-23
-6.29984e-24
7.07196e-23
-3.75808e-24
2.77046e-23
-6.20968e-24
1.50364e-22
-1.03142e-23
9.92012e-23
-6.09289e-24
3.10464e-23
-2.5158e-24
1.32219e-22
-3.70647e-24
1.53821e-22
-2.13609e-24
5.71446e-24
3.05343e-24
4.29233e-23
2.33263e-25
1.11681e-22
-3.07652e-24
-1.22404e-23
-1.52599e-24
7.2368e-23
-2.03587e-24
-1.1381e-23
-6.30661e-24
-1.19246e-24
-6.83972e-24
4.35285e-23
-1.737e-23
-4.92797e-23
-2.11039e-23
-4.18175e-23
-2.07015e-23
3.62676e-24
-1.80182e-23
3.23633e-23
-1.77536e-23
-1.48404e-23
-2.35247e-23
1.43049e-23
-1.82241e-23
5.69165e-23
-1.37809e-23
-1.06123e-22
-1.14856e-23
-8.05609e-24
-1.3791e-23
5.80413e-24
-1.36137e-23
-6.29761e-23
-1.51931e-23
-8.32518e-23
-1.70083e-23
-8.48027e-23
-2.03779e-23
-6.58407e-23
-1.3505e-23
-1.21928e-22
-1.97466e-23
-9.34313e-23
-2.49801e-23
-9.10075e-23
-2.34837e-23
-7.82831e-23
-2.70708e-23
-4.56448e-23
-3.22172e-23
-5.21708e-23
-3.51618e-23
-4.87945e-23
-3.09966e-23
2.50591e-23
-3.73604e-23
-4.78199e-23
-3.13012e-23
9.29833e-23
-3.41259e-23
5.29341e-23
4.66367e-24
-7.79437e-24
-2.36569e-23
4.69256e-24
-9.89886e-24
-9.77339e-23
-9.66559e-24
-4.35739e-24
-7.73948e-24
-3.15408e-23
-1.0125e-23
-6.66982e-23
-3.59486e-24
-5.15849e-24
1.06095e-24
5.88528e-24
3.58228e-24
-2.93645e-23
-6.26343e-24
6.37804e-23
-6.38936e-24
8.95402e-23
-2.60131e-24
7.9799e-23
-7.13258e-24
1.24523e-22
-1.03524e-23
1.06272e-22
-5.42777e-24
5.78772e-23
-2.28494e-24
1.24834e-22
-5.02433e-24
9.23413e-23
-1.55292e-24
3.48213e-23
3.38654e-24
3.23667e-23
-2.81912e-26
1.05057e-22
-3.29519e-24
6.96062e-24
-1.8821e-24
8.15697e-23
-2.58485e-24
-3.03145e-23
-5.69132e-24
9.97228e-24
-7.82242e-24
1.10179e-23
-1.71119e-23
-8.01127e-23
-2.08412e-23
-5.70738e-23
-2.06197e-23
3.80544e-23
-1.8316e-23
5.94241e-23
-1.72736e-23
-2.09999e-23
-2.28722e-23
6.23594e-24
-1.90725e-23
1.81221e-23
-1.331e-23
-1.13616e-22
-9.89013e-24
2.12751e-23
-1.48445e-23
-4.75724e-23
-1.32665e-23
1.29288e-23
-1.48897e-23
-7.94372e-23
-1.64456e-23
-4.49803e-23
-2.11854e-23
-5.62837e-23
-1.2472e-23
-9.12497e-23
-1.86846e-23
-8.66787e-23
-2.4497e-23
-1.23083e-22
-2.28782e-23
-3.47326e-23
-2.6679e-23
-4.22447e-23
-3.26695e-23
-5.2642e-23
-3.44531e-23
7.64903e-24
-3.07386e-23
5.73393e-23
-3.65905e-23
-3.17621e-23
-3.1146e-23
9.01952e-23
-3.4419e-23
6.66261e-23
-2.76266e-23
-8.33365e-24
-1.09318e-23
5.049e-24
-9.27591e-24
-5.35401e-23
-9.80378e-24
3.31589e-24
-7.63511e-24
-2.0076e-23
-1.03525e-23
-6.70369e-23
-3.26012e-24
7.76093e-23
1.06793e-24
3.64614e-23
3.90929e-24
-2.82076e-23
-5.70458e-24
4.67683e-23
-5.57275e-24
7.8053e-23
-1.71533e-24
6.04454e-23
-7.05869e-24
4.09337e-23
-1.0694e-23
1.44283e-22
-4.83617e-24
1.17227e-22
-2.80412e-24
1.21946e-22
-5.3998e-24
1.2154e-22
-1.69036e-24
3.26799e-23
4.23322e-24
5.41346e-23
-1.96431e-25
9.44084e-23
-3.40026e-24
1.39396e-23
-2.90755e-24
2.56575e-23
-2.36843e-24
-1.80814e-23
-5.90625e-24
-8.35526e-24
-8.47654e-24
2.0794e-23
-1.69391e-23
-7.376e-23
-1.98465e-23
-4.50632e-23
-2.04588e-23
7.21806e-24
-1.87942e-23
5.40258e-23
-1.67345e-23
5.85573e-23
-2.28413e-23
3.94207e-24
-1.95016e-23
1.39108e-23
-1.27077e-23
-5.74557e-23
-9.86685e-24
1.89778e-23
-1.37545e-23
-1.08642e-22
-1.39318e-23
-7.80785e-24
-1.40952e-23
-7.47848e-23
-1.65261e-23
-6.8089e-23
-2.13187e-23
-8.05216e-23
-1.19862e-23
-3.55895e-23
-1.91065e-23
-1.15745e-22
-2.33166e-23
-1.045e-22
-2.17996e-23
-6.08236e-23
-2.66046e-23
-3.96484e-23
-3.10069e-23
-4.92605e-23
-3.42004e-23
-2.3013e-23
-3.05405e-23
5.45492e-23
-3.5799e-23
-7.58223e-24
-3.05554e-23
8.74081e-23
-3.43673e-23
-5.98132e-24
-2.05552e-23
-8.87664e-24
4.77645e-24
4.12781e-24
-8.84872e-24
4.55868e-23
-1.01767e-23
7.18921e-24
-7.4676e-24
1.29522e-23
-9.03187e-24
-6.96692e-23
-2.89446e-24
1.3254e-22
1.00151e-24
3.47245e-23
4.83672e-24
-2.76247e-23
-5.04423e-24
2.86259e-23
-5.43322e-24
3.3453e-23
-1.59226e-24
5.35445e-23
-5.69643e-24
4.87974e-23
-1.0785e-23
1.54189e-22
-5.50885e-24
1.0663e-22
-2.96528e-24
1.15798e-22
-5.80211e-24
1.08792e-22
-1.78717e-24
1.08002e-23
4.64267e-24
1.3073e-22
-3.26167e-25
8.44877e-23
-3.99601e-24
-1.3101e-23
-2.78876e-24
2.94563e-23
-2.47669e-24
5.7468e-24
-5.88125e-24
4.84438e-24
-9.17954e-24
2.50693e-23
-1.67278e-23
-6.75632e-23
-1.92536e-23
-2.25151e-23
-2.00148e-23
1.01653e-23
-1.83275e-23
5.14959e-23
-1.74515e-23
5.37039e-23
-2.30955e-23
-4.43866e-24
-1.90201e-23
6.88473e-23
-1.27025e-23
-6.03182e-23
-1.01381e-23
2.00333e-23
-1.23927e-23
-7.06129e-23
-1.39347e-23
-2.70865e-23
-1.38437e-23
-6.7655e-23
-1.64866e-23
-8.76418e-23
-2.02177e-23
-1.30769e-22
-1.30028e-23
-5.72245e-23
-1.81002e-23
-7.26155e-23
-2.29446e-23
-1.16106e-22
-2.14637e-23
-2.4085e-23
-2.61193e-23
-6.50257e-23
-3.0128e-23
-4.37266e-23
-3.4134e-23
-5.0794e-23
-3.08426e-23
5.66881e-23
-3.44728e-23
-3.16255e-23
-3.07199e-23
4.71733e-23
-3.42594e-23
-9.31361e-23
-1.58919e-23
-8.41125e-24
-4.16816e-23
3.54622e-24
-9.36935e-24
5.23576e-23
-9.4683e-24
8.1614e-24
-7.86974e-24
3.56511e-23
-8.64303e-24
-3.58352e-23
-2.73401e-24
1.28482e-22
5.31147e-25
2.91792e-23
5.28285e-24
5.69866e-23
-5.57322e-24
4.39566e-23
-5.11863e-24
2.3509e-23
-8.27241e-25
8.27506e-23
-5.51363e-24
2.4574e-23
-1.05368e-23
1.0487e-22
-5.74567e-24
6.73262e-23
-3.08193e-24
1.11223e-22
-6.41622e-24
1.05388e-22
-9.60831e-25
-1.21622e-23
4.38768e-24
1.56711e-22
-1.179e-24
5.98486e-23
-4.22968e-24
2.59336e-23
-2.89874e-24
3.41532e-23
-2.4574e-24
1.68115e-23
-5.76874e-24
1.7829e-23
-9.81233e-24
4.50409e-23
-1.65568e-23
-5.97384e-23
-1.87657e-23
-1.5485e-23
-1.98728e-23
1.53991e-23
-1.75212e-23
8.38841e-23
-1.79918e-23
4.68619e-23
-2.26167e-23
-6.00612e-24
-1.95149e-23
6.28543e-23
-1.23407e-23
-6.60866e-23
-9.92122e-24
2.14715e-23
-1.15893e-23
-6.92644e-23
-1.43003e-23
-1.09911e-22
-1.36162e-23
-6.42386e-23
-1.66693e-23
-1.04917e-22
-1.95868e-23
-9.37729e-23
-1.15049e-23
-6.81959e-23
-1.82552e-23
-1.25772e-22
-2.17213e-23
-1.17341e-22
-2.13845e-23
-1.94575e-23
-2.5622e-23
-9.11262e-23
-2.92059e-23
-9.30361e-23
-3.31923e-23
-7.82896e-23
-2.96856e-23
9.10053e-23
-3.42786e-23
-5.32299e-23
-3.16635e-23
4.40491e-23
-3.30145e-23
-3.04933e-23
1.97608e-23
-7.96509e-24
-2.76342e-23
3.82834e-24
-9.51933e-24
5.66105e-23
-1.0527e-23
1.24423e-23
-7.6522e-24
3.78024e-23
-7.55316e-24
-3.79876e-23
-2.88295e-24
1.55587e-22
5.10703e-25
5.60833e-23
5.32264e-24
5.18265e-23
-5.65469e-24
2.54134e-23
-4.00634e-24
1.09517e-23
-7.95017e-25
7.85049e-23
-5.47894e-24
2.98462e-23
-1.02855e-23
8.21485e-23
-5.73553e-24
3.57951e-23
-3.2431e-24
1.08311e-22
-6.83917e-24
1.09499e-22
4.36058e-25
2.94543e-23
3.86436e-24
1.50419e-22
-1.24849e-24
6.48841e-23
-4.66156e-24
7.23731e-24
-2.85454e-24
3.34584e-23
-2.30065e-24
5.89714e-23
-5.80276e-24
-6.44944e-24
-1.04896e-23
-1.0816e-23
-1.63557e-23
-1.98324e-23
-1.82776e-23
2.19288e-23
-1.92201e-23
2.01649e-23
-1.77146e-23
7.63503e-23
-1.81951e-23
4.52117e-23
-2.23442e-23
-1.54574e-23
-1.97962e-23
6.10537e-23
-1.25356e-23
-3.83541e-23
-9.53592e-24
5.7223e-23
-1.25013e-23
-6.3579e-23
-1.32108e-23
-7.9166e-23
-1.35833e-23
-6.02299e-23
-1.61158e-23
-5.11897e-23
-1.97184e-23
-6.01695e-23
-1.12222e-23
-4.46366e-23
-1.75335e-23
-1.24446e-22
-2.07821e-23
-1.22439e-22
-2.15448e-23
-4.83074e-23
-2.48938e-23
-8.28826e-23
-2.92586e-23
-5.10605e-23
-3.16191e-23
-1.00386e-22
-2.98755e-23
9.02356e-23
-3.36806e-23
-4.16158e-23
-3.14668e-23
4.07276e-23
-3.17764e-23
-2.74035e-23
1.74733e-23
-6.83638e-24
-7.63535e-23
4.23898e-24
-9.69894e-24