/*--------------------------------*- C++ -*----------------------------------*\
  =========                 |
  \\      /  F ield         | OpenFOAM: The Open Source CFD Toolbox
   \\    /   O peration     | Website:  https://openfoam.org
    \\  /    A nd           | Version:  7
     \\/     M anipulation  |
\*---------------------------------------------------------------------------*/
FoamFile
{
    version     2.0;
    format      ascii;
    class       volScalarField;
    location    "80000";
    object      k;
}
// * * * * * * * * * * * * * * * * * * * * * * * * * * * * * * * * * * * * * //

dimensions      [0 2 -2 0 0 0 0];

internalField   nonuniform List<scalar> 
4782
(
5.91024e-07
5.86369e-07
5.81177e-07
5.75417e-07
5.69063e-07
5.62092e-07
5.54476e-07
5.46182e-07
5.37185e-07
5.2745e-07
4.67982e-07
4.75722e-07
4.83256e-07
4.90587e-07
4.97722e-07
5.04656e-07
5.11395e-07
5.17934e-07
5.24277e-07
5.30426e-07
5.36372e-07
5.42115e-07
5.47661e-07
5.53e-07
5.58139e-07
5.63074e-07
5.67804e-07
5.7232e-07
5.76625e-07
5.80716e-07
5.84584e-07
5.88226e-07
5.91642e-07
5.94827e-07
5.97778e-07
6.00487e-07
6.02949e-07
6.05152e-07
6.07097e-07
6.0877e-07
6.10163e-07
6.11268e-07
6.12075e-07
6.12578e-07
6.12767e-07
6.12629e-07
6.12149e-07
6.11317e-07
6.1012e-07
6.08538e-07
6.06555e-07
6.04159e-07
6.0133e-07
5.98047e-07
5.94291e-07
5.90043e-07
5.85275e-07
5.79963e-07
5.74082e-07
5.6761e-07
5.60516e-07
5.52776e-07
5.44361e-07
5.35239e-07
5.25381e-07
4.71159e-07
4.78802e-07
4.86241e-07
4.93484e-07
5.00533e-07
5.0738e-07
5.14033e-07
5.20492e-07
5.26751e-07
5.32809e-07
5.3867e-07
5.44328e-07
5.49789e-07
5.55045e-07
5.601e-07
5.64946e-07
5.69588e-07
5.74016e-07
5.78234e-07
5.82237e-07
5.86018e-07
5.89577e-07
5.92911e-07
5.96014e-07
5.98877e-07
6.01494e-07
6.03864e-07
6.05977e-07
6.07824e-07
6.09398e-07
6.10695e-07
6.11707e-07
6.12419e-07
6.12827e-07
6.12919e-07
6.12679e-07
6.12096e-07
6.1116e-07
6.09857e-07
6.08168e-07
6.06077e-07
6.03565e-07
6.00621e-07
5.97218e-07
5.93343e-07
5.88968e-07
5.84075e-07
5.7864e-07
5.72638e-07
5.66041e-07
5.58821e-07
5.50952e-07
5.42404e-07
5.33151e-07
5.23166e-07
4.74342e-07
4.81884e-07
4.89229e-07
4.96377e-07
5.03329e-07
5.10086e-07
5.16648e-07
5.23016e-07
5.29182e-07
5.35153e-07
5.40928e-07
5.46506e-07
5.51886e-07
5.5706e-07
5.62027e-07
5.66785e-07
5.71337e-07
5.75681e-07
5.79813e-07
5.83726e-07
5.87415e-07
5.90882e-07
5.94122e-07
5.9713e-07
5.99903e-07
6.02429e-07
6.04708e-07
6.06728e-07
6.08487e-07
6.09973e-07
6.11176e-07
6.12093e-07
6.1271e-07
6.13021e-07
6.1301e-07
6.12671e-07
6.11987e-07
6.10948e-07
6.09536e-07
6.07741e-07
6.05544e-07
6.02927e-07
5.9987e-07
5.96358e-07
5.92366e-07
5.87874e-07
5.82862e-07
5.77303e-07
5.71171e-07
5.64442e-07
5.57088e-07
5.49082e-07
5.404e-07
5.31013e-07
5.20895e-07
4.77612e-07
4.85061e-07
4.92316e-07
4.9937e-07
5.06224e-07
5.1288e-07
5.19344e-07
5.25615e-07
5.31687e-07
5.37565e-07
5.43249e-07
5.48736e-07
5.54019e-07
5.59098e-07
5.63971e-07
5.6864e-07
5.73104e-07
5.77355e-07
5.81394e-07
5.85219e-07
5.8882e-07
5.922e-07
5.95348e-07
5.9826e-07
6.00936e-07
6.03364e-07
6.05544e-07
6.07463e-07
6.0912e-07
6.10506e-07
6.11614e-07
6.12434e-07
6.12952e-07
6.13159e-07
6.13047e-07
6.126e-07
6.11807e-07
6.10656e-07
6.09135e-07
6.07227e-07
6.04918e-07
6.02184e-07
5.99009e-07
5.95373e-07
5.91256e-07
5.86639e-07
5.81497e-07
5.7581e-07
5.69549e-07
5.62688e-07
5.55205e-07
5.47069e-07
5.38256e-07
5.28734e-07
5.18481e-07
4.77584e-07
4.85041e-07
4.92295e-07
4.99348e-07
5.06207e-07
5.12875e-07
5.19343e-07
5.25619e-07
5.31696e-07
5.37573e-07
5.43251e-07
5.48734e-07
5.54015e-07
5.59099e-07
5.63976e-07
5.68646e-07
5.73106e-07
5.77359e-07
5.81395e-07
5.85218e-07
5.88817e-07
5.92194e-07
5.9534e-07
5.98254e-07
6.00927e-07
6.03357e-07
6.05534e-07
6.07455e-07
6.09113e-07
6.10496e-07
6.116e-07
6.12416e-07
6.12931e-07
6.13137e-07
6.13021e-07
6.12574e-07
6.11784e-07
6.10634e-07
6.09113e-07
6.07202e-07
6.04889e-07
6.02156e-07
5.98981e-07
5.95345e-07
5.91231e-07
5.86613e-07
5.81474e-07
5.75784e-07
5.69525e-07
5.62669e-07
5.55187e-07
5.47052e-07
5.3824e-07
5.28723e-07
5.18471e-07
4.74277e-07
4.81832e-07
4.89188e-07
4.96341e-07
5.03299e-07
5.10062e-07
5.16624e-07
5.22986e-07
5.29154e-07
5.3512e-07
5.40889e-07
5.46456e-07
5.51824e-07
5.56993e-07
5.6196e-07
5.66725e-07
5.71283e-07
5.75628e-07
5.79761e-07
5.83675e-07
5.8737e-07
5.90844e-07
5.94086e-07
5.97097e-07
5.99871e-07
6.024e-07
6.04675e-07
6.06696e-07
6.08451e-07
6.09937e-07
6.11142e-07
6.12055e-07
6.12669e-07
6.12972e-07
6.12959e-07
6.12616e-07
6.11933e-07
6.1089e-07
6.09474e-07
6.07674e-07
6.05474e-07
6.02855e-07
5.99801e-07
5.96287e-07
5.92297e-07
5.87807e-07
5.82792e-07
5.77233e-07
5.71102e-07
5.64377e-07
5.57027e-07
5.49028e-07
5.40353e-07
5.30974e-07
5.20859e-07
5.09981e-07
4.98317e-07
4.8584e-07
4.72527e-07
4.71065e-07
4.78709e-07
4.86156e-07
4.93399e-07
5.00439e-07
5.07284e-07
5.13935e-07
5.20385e-07
5.2664e-07
5.32694e-07
5.38552e-07
5.44207e-07
5.49664e-07
5.5492e-07
5.59976e-07
5.64827e-07
5.69466e-07
5.73896e-07
5.78115e-07
5.82118e-07
5.85903e-07
5.89465e-07
5.92801e-07
5.95905e-07
5.98773e-07
6.01394e-07
6.03763e-07
6.05878e-07
6.07732e-07
6.09318e-07
6.10622e-07
6.11637e-07
6.12358e-07
6.12769e-07
6.12861e-07
6.12626e-07
6.12051e-07
6.1112e-07
6.09818e-07
6.08134e-07
6.06048e-07
6.03543e-07
6.006e-07
5.97205e-07
5.93332e-07
5.88963e-07
5.84075e-07
5.78642e-07
5.72638e-07
5.66041e-07
5.58822e-07
5.50954e-07
5.42408e-07
5.33158e-07
5.23173e-07
5.12423e-07
5.00883e-07
4.8853e-07
4.75341e-07
4.61293e-07
4.67834e-07
4.75582e-07
4.8313e-07
4.90473e-07
4.97613e-07
5.0455e-07
5.11286e-07
5.17821e-07
5.24161e-07
5.30306e-07
5.36256e-07
5.42008e-07
5.47563e-07
5.52913e-07
5.58056e-07
5.62991e-07
5.67716e-07
5.72233e-07
5.76539e-07
5.80627e-07
5.84498e-07
5.88148e-07
5.91567e-07
5.94752e-07
5.97702e-07
6.00406e-07
6.02864e-07
6.05069e-07
6.0701e-07
6.0868e-07
6.10073e-07
6.11183e-07
6.12e-07
6.12509e-07
6.12703e-07
6.12567e-07
6.12093e-07
6.11264e-07
6.10065e-07
6.08486e-07
6.06511e-07
6.04118e-07
6.0129e-07
5.9801e-07
5.94255e-07
5.90007e-07
5.85243e-07
5.79935e-07
5.74059e-07
5.67589e-07
5.60496e-07
5.52754e-07
5.44334e-07
5.35211e-07
5.25351e-07
5.14727e-07
5.03313e-07
4.91081e-07
4.78009e-07
4.64074e-07
4.49261e-07
4.33558e-07
4.16963e-07
3.99475e-07
3.8111e-07
3.61894e-07
3.41858e-07
3.21033e-07
2.99457e-07
2.77236e-07
2.54523e-07
2.31516e-07
2.08448e-07
1.85588e-07
1.63231e-07
1.41682e-07
1.21238e-07
1.0217e-07
8.47039e-08
6.90035e-08
5.51631e-08
4.3205e-08
3.30853e-08
2.47047e-08
1.79224e-08
1.257e-08
8.46479e-09
5.42009e-09
3.25319e-09
1.79091e-09
8.72993e-10
3.54272e-10
1.06075e-10
1.78073e-11
8.0553e-13
4.64653e-07
4.7249e-07
4.80126e-07
4.87553e-07
4.94782e-07
5.01814e-07
5.08641e-07
5.15266e-07
5.21694e-07
5.27926e-07
5.3396e-07
5.39797e-07
5.45428e-07
5.50858e-07
5.56087e-07
5.61105e-07
5.65918e-07
5.70523e-07
5.74912e-07
5.79087e-07
5.83044e-07
5.8678e-07
5.90286e-07
5.93556e-07
5.96591e-07
5.99381e-07
6.01924e-07
6.0421e-07
6.06237e-07
6.07996e-07
6.09481e-07
6.10678e-07
6.11581e-07
6.12182e-07
6.12469e-07
6.12431e-07
6.12056e-07
6.1133e-07
6.1024e-07
6.08771e-07
6.06902e-07
6.04621e-07
6.01905e-07
5.98736e-07
5.95097e-07
5.90963e-07
5.86315e-07
5.81125e-07
5.75372e-07
5.69026e-07
5.62059e-07
5.54444e-07
5.46152e-07
5.37154e-07
5.27423e-07
5.16927e-07
5.05637e-07
4.9353e-07
4.80577e-07
4.66759e-07
4.52056e-07
4.36453e-07
4.19945e-07
4.02538e-07
3.84241e-07
3.65079e-07
3.45081e-07
3.24285e-07
3.02718e-07
2.80478e-07
2.57714e-07
2.34619e-07
2.11428e-07
1.88408e-07
1.65856e-07
1.44081e-07
1.23389e-07
1.04058e-07
8.6325e-08
7.03632e-08
5.62758e-08
4.40923e-08
3.37735e-08
2.52228e-08
1.82997e-08
1.28347e-08
8.64244e-09
5.53302e-09
3.32019e-09
1.82715e-09
8.90182e-10
3.60941e-10
1.0791e-10
1.806e-11
8.11611e-13
4.61568e-07
4.69496e-07
4.77221e-07
4.84737e-07
4.92055e-07
4.99166e-07
5.06081e-07
5.12792e-07
5.19306e-07
5.25625e-07
5.31747e-07
5.37665e-07
5.43379e-07
5.48894e-07
5.54202e-07
5.593e-07
5.64194e-07
5.6888e-07
5.73355e-07
5.77612e-07
5.81651e-07
5.85465e-07
5.89049e-07
5.92404e-07
5.9552e-07
5.98397e-07
6.01029e-07
6.03406e-07
6.0552e-07
6.07365e-07
6.08938e-07
6.10229e-07
6.11225e-07
6.11915e-07
6.12291e-07
6.12338e-07
6.12052e-07
6.11413e-07
6.10412e-07
6.09034e-07
6.07263e-07
6.05078e-07
6.02465e-07
5.99401e-07
5.95869e-07
5.91847e-07
5.87309e-07
5.8223e-07
5.76587e-07
5.70351e-07
5.63499e-07
5.56004e-07
5.47831e-07
5.38955e-07
5.29347e-07
5.18975e-07
5.07813e-07
4.95827e-07
4.82996e-07
4.69293e-07
4.54699e-07
4.39199e-07
4.22786e-07
4.05463e-07
3.87237e-07
3.68132e-07
3.4818e-07
3.27419e-07
3.05865e-07
2.83611e-07
2.60804e-07
2.37631e-07
2.14325e-07
1.91155e-07
1.68419e-07
1.46429e-07
1.25497e-07
1.05912e-07
8.79196e-08
7.17022e-08
5.73726e-08
4.49674e-08
3.44527e-08
2.57343e-08
1.86724e-08
1.30962e-08
8.81794e-09
5.64458e-09
3.38637e-09
1.86293e-09
9.07148e-10
3.67519e-10
1.09718e-10
1.83084e-11
8.17573e-13
4.58563e-07
4.66588e-07
4.74401e-07
4.82005e-07
4.89402e-07
4.96602e-07
5.03597e-07
5.10396e-07
5.16992e-07
5.23386e-07
5.29575e-07
5.35568e-07
5.41361e-07
5.46955e-07
5.52347e-07
5.57529e-07
5.625e-07
5.67258e-07
5.71804e-07
5.76137e-07
5.80253e-07
5.84148e-07
5.87813e-07
5.91249e-07
5.94451e-07
5.9741e-07
6.00125e-07
6.02584e-07
6.04782e-07
6.0671e-07
6.08367e-07
6.09738e-07
6.1082e-07
6.11598e-07
6.12067e-07
6.1221e-07
6.12015e-07
6.1147e-07
6.10561e-07
6.09277e-07
6.07597e-07
6.0551e-07
6.02992e-07
6.00028e-07
5.96599e-07
5.92679e-07
5.88244e-07
5.8327e-07
5.77737e-07
5.71613e-07
5.64876e-07
5.57492e-07
5.49436e-07
5.40678e-07
5.31184e-07
5.20927e-07
5.09877e-07
4.98006e-07
4.85287e-07
4.71695e-07
4.57208e-07
4.41809e-07
4.25489e-07
4.08247e-07
3.90091e-07
3.7104e-07
3.51128e-07
3.30394e-07
3.08855e-07
2.86592e-07
2.63744e-07
2.40499e-07
2.17088e-07
1.93779e-07
1.70869e-07
1.48677e-07
1.27521e-07
1.07695e-07
8.9455e-08
7.29937e-08
5.8432e-08
4.58137e-08
3.511e-08
2.62297e-08
1.90335e-08
1.33496e-08
8.98804e-09
5.75271e-09
3.45049e-09
1.89759e-09
9.23567e-10
3.73876e-10
1.11461e-10
1.85466e-11
8.23168e-13
4.55605e-07
4.63707e-07
4.71604e-07
4.79291e-07
4.86776e-07
4.94054e-07
5.01127e-07
5.08001e-07
5.14678e-07
5.21156e-07
5.27436e-07
5.33511e-07
5.3938e-07
5.45048e-07
5.50514e-07
5.55776e-07
5.60826e-07
5.65667e-07
5.70299e-07
5.74711e-07
5.78901e-07
5.82871e-07
5.86612e-07
5.90119e-07
5.93388e-07
5.96419e-07
5.99205e-07
6.01737e-07
6.04007e-07
6.06012e-07
6.07746e-07
6.09199e-07
6.10358e-07
6.11219e-07
6.1177e-07
6.12e-07
6.11898e-07
6.1145e-07
6.10639e-07
6.09449e-07
6.0787e-07
6.0588e-07
6.03462e-07
6.00596e-07
5.97261e-07
5.93441e-07
5.89109e-07
5.84239e-07
5.78811e-07
5.72794e-07
5.66165e-07
5.58893e-07
5.50951e-07
5.42303e-07
5.32923e-07
5.2278e-07
5.11843e-07
5.00084e-07
4.8747e-07
4.73981e-07
4.59595e-07
4.44292e-07
4.2806e-07
4.10898e-07
3.92811e-07
3.73821e-07
3.53953e-07
3.33248e-07
3.11725e-07
2.89457e-07
2.66577e-07
2.43269e-07
2.19761e-07
1.96321e-07
1.73248e-07
1.50864e-07
1.2949e-07
1.09433e-07
9.0954e-08
7.42558e-08
5.94681e-08
4.6642e-08
3.57538e-08
2.67151e-08
1.93874e-08
1.3598e-08
9.15478e-09
5.85869e-09
3.51333e-09
1.93154e-09
9.39651e-10
3.80101e-10
1.13166e-10
1.87791e-11
8.28626e-13
4.5273e-07
4.60908e-07
4.68879e-07
4.76645e-07
4.84207e-07
4.91568e-07
4.98728e-07
5.05688e-07
5.12449e-07
5.19012e-07
5.25369e-07
5.3152e-07
5.37471e-07
5.43223e-07
5.48766e-07
5.541e-07
5.59223e-07
5.64132e-07
5.68832e-07
5.73314e-07
5.77579e-07
5.8162e-07
5.85432e-07
5.8901e-07
5.92356e-07
5.95465e-07
5.98331e-07
6.00942e-07
6.03292e-07
6.0538e-07
6.07192e-07
6.08721e-07
6.09957e-07
6.10896e-07
6.11522e-07
6.11829e-07
6.11805e-07
6.11437e-07
6.10707e-07
6.09599e-07
6.08099e-07
6.06193e-07
6.03864e-07
6.01092e-07
5.97853e-07
5.94125e-07
5.89889e-07
5.85121e-07
5.79795e-07
5.73886e-07
5.67365e-07
5.60199e-07
5.52362e-07
5.43824e-07
5.34553e-07
5.24518e-07
5.13689e-07
5.02036e-07
4.89529e-07
4.7614e-07
4.6185e-07
4.46639e-07
4.30494e-07
4.13413e-07
3.95398e-07
3.76464e-07
3.5664e-07
3.35963e-07
3.14457e-07
2.92186e-07
2.69279e-07
2.45915e-07
2.22319e-07
1.98758e-07
1.75532e-07
1.52967e-07
1.31389e-07
1.11111e-07
9.24025e-08
7.54768e-08
6.04716e-08
4.7445e-08
3.63783e-08
2.71862e-08
1.9731e-08
1.38393e-08
9.31673e-09
5.96162e-09
3.57436e-09
1.96451e-09
9.55259e-10
3.86137e-10
1.14818e-10
1.90038e-11
8.33865e-13
4.49975e-07
4.58237e-07
4.6629e-07
4.74136e-07
4.81778e-07
4.89217e-07
4.96454e-07
5.03491e-07
5.10321e-07
5.16945e-07
5.23369e-07
5.29594e-07
5.35613e-07
5.41424e-07
5.47027e-07
5.52425e-07
5.57618e-07
5.62602e-07
5.67375e-07
5.71929e-07
5.76261e-07
5.80373e-07
5.84255e-07
5.8791e-07
5.91333e-07
5.94513e-07
5.97451e-07
6.00134e-07
6.02557e-07
6.04717e-07
6.06607e-07
6.0822e-07
6.0954e-07
6.10564e-07
6.11276e-07
6.11667e-07
6.11728e-07
6.11442e-07
6.10796e-07
6.09775e-07
6.08363e-07
6.06548e-07
6.04308e-07
6.01624e-07
5.98479e-07
5.94853e-07
5.90717e-07
5.8605e-07
5.80823e-07
5.75012e-07
5.68591e-07
5.61528e-07
5.53797e-07
5.45366e-07
5.362e-07
5.26268e-07
5.15539e-07
5.03981e-07
4.91565e-07
4.78268e-07
4.64067e-07
4.48937e-07
4.32871e-07
4.1586e-07
3.97907e-07
3.79025e-07
3.5924e-07
3.38592e-07
3.17104e-07
2.94832e-07
2.71897e-07
2.48477e-07
2.24794e-07
2.01116e-07
1.77744e-07
1.55004e-07
1.33229e-07
1.12737e-07
9.38086e-08
7.66634e-08
6.14475e-08
4.82263e-08
3.69863e-08
2.7645e-08
2.00658e-08
1.40743e-08
9.47451e-09
6.06191e-09
3.63382e-09
1.99663e-09
9.7046e-10
3.92014e-10
1.16425e-10
1.92222e-11
8.3898e-13
4.47383e-07
4.55727e-07
4.63855e-07
4.71776e-07
4.79493e-07
4.87e-07
4.94307e-07
5.01407e-07
5.08301e-07
5.14989e-07
5.21472e-07
5.27755e-07
5.3384e-07
5.39716e-07
5.45384e-07
5.50849e-07
5.56108e-07
5.6116e-07
5.65995e-07
5.70612e-07
5.75007e-07
5.79177e-07
5.83124e-07
5.86843e-07
5.90329e-07
5.93579e-07
5.96586e-07
5.99339e-07
6.01837e-07
6.04068e-07
6.06031e-07
6.07711e-07
6.09101e-07
6.1019e-07
6.10974e-07
6.11437e-07
6.11571e-07
6.11359e-07
6.10793e-07
6.09852e-07
6.08523e-07
6.06792e-07
6.04636e-07
6.02038e-07
5.98981e-07
5.95443e-07
5.91397e-07
5.86819e-07
5.81684e-07
5.75969e-07
5.69641e-07
5.62676e-07
5.55039e-07
5.46699e-07
5.37624e-07
5.27786e-07
5.17152e-07
5.05692e-07
4.93375e-07
4.80175e-07
4.66063e-07
4.51018e-07
4.3503e-07
4.18091e-07
4.00201e-07
3.81371e-07
3.61629e-07
3.41012e-07
3.19546e-07
2.97278e-07
2.74325e-07
2.5086e-07
2.27106e-07
2.03324e-07
1.79819e-07
1.56919e-07
1.34962e-07
1.14273e-07
9.51382e-08
7.77866e-08
6.23725e-08
4.89676e-08
3.75636e-08
2.80809e-08
2.03839e-08
1.42977e-08
9.62453e-09
6.15726e-09
3.69033e-09
2.02714e-09
9.84895e-10
3.97589e-10
1.17946e-10
1.94279e-11
8.43708e-13
4.4486e-07
4.53284e-07
4.6149e-07
4.69479e-07
4.77254e-07
4.84826e-07
4.92196e-07
4.99365e-07
5.06326e-07
5.1308e-07
5.19628e-07
5.25976e-07
5.32117e-07
5.38056e-07
5.43793e-07
5.49325e-07
5.54645e-07
5.59751e-07
5.64641e-07
5.69318e-07
5.73778e-07
5.78019e-07
5.82032e-07
5.85818e-07
5.89367e-07
5.9268e-07
5.95745e-07
5.98558e-07
6.01117e-07
6.03409e-07
6.05428e-07
6.0717e-07
6.08627e-07
6.09789e-07
6.10641e-07
6.11177e-07
6.11381e-07
6.11244e-07
6.10749e-07
6.0988e-07
6.08627e-07
6.06973e-07
6.049e-07
6.02385e-07
5.99408e-07
5.95952e-07
5.91989e-07
5.875e-07
5.82459e-07
5.76835e-07
5.706e-07
5.63725e-07
5.5618e-07
5.47936e-07
5.38958e-07
5.29218e-07
5.1868e-07
5.07311e-07
4.95081e-07
4.81961e-07
4.67931e-07
4.52967e-07
4.37051e-07
4.20179e-07
4.0235e-07
3.83572e-07
3.63869e-07
3.43279e-07
3.21834e-07
2.99573e-07
2.76607e-07
2.53105e-07
2.29285e-07
2.0541e-07
1.81783e-07
1.58735e-07
1.36608e-07
1.15732e-07
9.64028e-08
7.88563e-08
6.32541e-08
4.96747e-08
3.81145e-08
2.8497e-08
2.06877e-08
1.45111e-08
9.76781e-09
6.24832e-09
3.7443e-09
2.05627e-09
9.9867e-10
4.02905e-10
1.19395e-10
1.96235e-11
8.48178e-13
4.42464e-07
4.50948e-07
4.5922e-07
4.67282e-07
4.75129e-07
4.82763e-07
4.90195e-07
4.97418e-07
5.04439e-07
5.11261e-07
5.17875e-07
5.2429e-07
5.30497e-07
5.36496e-07
5.42287e-07
5.47874e-07
5.5325e-07
5.58412e-07
5.63359e-07
5.68093e-07
5.72605e-07
5.76898e-07
5.80968e-07
5.84811e-07
5.88422e-07
5.91791e-07
5.94919e-07
5.97799e-07
6.0042e-07
6.02775e-07
6.04862e-07
6.06672e-07
6.08199e-07
6.09426e-07
6.10344e-07
6.10948e-07
6.1122e-07
6.11148e-07
6.10724e-07
6.09927e-07
6.08744e-07
6.0716e-07
6.05154e-07
6.02708e-07
5.99801e-07
5.96417e-07
5.92526e-07
5.88107e-07
5.83132e-07
5.77579e-07
5.71419e-07
5.64623e-07
5.57161e-07
5.49e-07
5.40109e-07
5.30454e-07
5.20003e-07
5.08724e-07
4.96585e-07
4.83555e-07
4.6961e-07
4.54728e-07
4.38893e-07
4.22091e-07
4.04323e-07
3.85598e-07
3.65941e-07
3.45383e-07
3.23963e-07
3.01709e-07
2.7873e-07
2.55192e-07
2.31312e-07
2.07352e-07
1.83613e-07
1.60431e-07
1.38148e-07
1.17101e-07
9.75908e-08
7.9862e-08
6.40836e-08
5.03405e-08
3.86337e-08
2.88894e-08
2.09742e-08
1.47124e-08
9.90299e-09
6.33422e-09
3.7952e-09
2.08375e-09
1.01165e-09
4.07913e-10
1.20758e-10
1.98067e-11
8.52317e-13
4.40244e-07
4.48781e-07
4.57105e-07
4.65218e-07
4.73122e-07
4.8082e-07
4.88314e-07
4.95598e-07
5.02673e-07
5.09547e-07
5.16213e-07
5.22671e-07
5.28921e-07
5.34969e-07
5.40812e-07
5.46451e-07
5.51883e-07
5.57105e-07
5.62117e-07
5.66909e-07
5.71485e-07
5.75835e-07
5.79963e-07
5.83858e-07
5.87521e-07
5.90948e-07
5.94133e-07
5.97065e-07
5.99743e-07
6.02159e-07
6.04308e-07
6.06175e-07
6.07757e-07
6.09041e-07
6.10022e-07
6.10683e-07
6.11013e-07
6.11005e-07
6.1064e-07
6.09904e-07
6.08785e-07
6.07269e-07
6.05331e-07
6.02958e-07
6.00129e-07
5.96819e-07
5.93009e-07
5.88671e-07
5.83783e-07
5.78319e-07
5.7225e-07
5.65543e-07
5.58168e-07
5.50092e-07
5.41283e-07
5.31708e-07
5.21334e-07
5.10131e-07
4.98065e-07
4.85106e-07
4.7123e-07
4.56413e-07
4.40639e-07
4.23896e-07
4.0618e-07
3.87501e-07
3.67881e-07
3.47351e-07
3.25951e-07
3.03707e-07
2.80718e-07
2.5715e-07
2.33214e-07
2.09173e-07
1.85331e-07
1.62021e-07
1.39593e-07
1.18386e-07
9.87072e-08
8.08084e-08
6.4865e-08
5.09681e-08
3.91233e-08
2.92595e-08
2.12446e-08
1.49024e-08
1.00306e-08
6.41532e-09
3.84325e-09
2.10967e-09
1.02391e-09
4.12636e-10
1.22043e-10
1.99792e-11
8.56208e-13
4.38176e-07
4.46773e-07
4.55157e-07
4.63322e-07
4.71278e-07
4.79027e-07
4.86565e-07
4.93892e-07
5.01018e-07
5.07941e-07
5.14664e-07
5.21178e-07
5.27491e-07
5.33595e-07
5.39496e-07
5.45187e-07
5.50665e-07
5.55929e-07
5.60983e-07
5.65825e-07
5.70445e-07
5.74845e-07
5.79023e-07
5.82974e-07
5.86694e-07
5.90172e-07
5.93408e-07
5.96393e-07
5.99124e-07
6.01591e-07
6.03786e-07
6.05707e-07
6.07341e-07
6.08677e-07
6.09705e-07
6.10421e-07
6.10807e-07
6.10855e-07
6.10552e-07
6.0988e-07
6.08827e-07
6.07372e-07
6.05497e-07
6.03184e-07
6.00417e-07
5.97175e-07
5.93429e-07
5.89161e-07
5.84345e-07
5.78953e-07
5.72955e-07
5.66318e-07
5.59018e-07
5.51019e-07
5.4229e-07
5.32797e-07
5.22504e-07
5.11379e-07
4.9939e-07
4.8651e-07
4.72707e-07
4.57959e-07
4.42246e-07
4.2556e-07
4.07898e-07
3.89266e-07
3.69686e-07
3.49186e-07
3.27811e-07
3.05577e-07
2.82581e-07
2.58985e-07
2.35002e-07
2.10889e-07
1.86952e-07
1.63524e-07
1.40958e-07
1.196e-07
9.97621e-08
8.17026e-08
6.56036e-08
5.15614e-08
3.95862e-08
2.96095e-08
2.15003e-08
1.50821e-08
1.01513e-08
6.492e-09
3.88869e-09
2.13419e-09
1.03549e-09
4.17102e-10
1.23258e-10
2.01425e-11
8.59937e-13
4.36248e-07
4.44901e-07
4.5334e-07
4.61558e-07
4.69557e-07
4.7735e-07
4.84936e-07
4.92318e-07
4.99496e-07
5.06465e-07
5.13224e-07
5.19781e-07
5.26135e-07
5.32286e-07
5.38232e-07
5.43972e-07
5.49504e-07
5.54827e-07
5.59933e-07
5.64824e-07
5.69493e-07
5.73943e-07
5.78168e-07
5.82165e-07
5.85931e-07
5.8946e-07
5.92742e-07
5.95773e-07
5.98545e-07
6.01053e-07
6.03294e-07
6.0526e-07
6.06937e-07
6.08322e-07
6.09399e-07
6.10163e-07
6.10602e-07
6.10698e-07
6.10444e-07
6.09824e-07
6.08823e-07
6.07421e-07
6.05604e-07
6.03349e-07
6.0064e-07
5.9745e-07
5.93763e-07
5.89553e-07
5.84794e-07
5.7946e-07
5.73523e-07
5.66952e-07
5.59716e-07
5.51784e-07
5.43123e-07
5.33695e-07
5.23471e-07
5.12416e-07
5.00499e-07
4.87686e-07
4.73951e-07
4.5927e-07
4.43624e-07
4.26997e-07
4.09388e-07
3.90801e-07
3.71256e-07
3.50787e-07
3.29431e-07
3.07207e-07
2.84205e-07
2.60588e-07
2.36563e-07
2.1239e-07
1.88371e-07
1.64843e-07
1.42161e-07
1.20672e-07
1.00696e-07
8.24955e-08
6.62596e-08
5.20893e-08
3.99986e-08
2.99216e-08
2.17285e-08
1.52425e-08
1.0259e-08
6.56046e-09
3.92924e-09
2.15606e-09
1.04581e-09
4.21073e-10
1.24334e-10
2.02857e-11
8.6305e-13
4.34499e-07
4.43201e-07
4.51686e-07
4.59958e-07
4.68011e-07
4.75857e-07
4.83489e-07
4.90917e-07
4.98134e-07
5.0515e-07
5.11956e-07
5.1856e-07
5.24962e-07
5.31161e-07
5.37149e-07
5.42933e-07
5.48505e-07
5.53861e-07
5.59007e-07
5.6394e-07
5.68651e-07
5.73143e-07
5.77406e-07
5.81443e-07
5.85248e-07
5.88812e-07
5.92136e-07
5.95207e-07
5.98026e-07
6.0058e-07
6.02867e-07
6.04875e-07
6.066e-07
6.08032e-07
6.09162e-07
6.09974e-07
6.10462e-07
6.10613e-07
6.10409e-07
6.09841e-07
6.08888e-07
6.0754e-07
6.05778e-07
6.03579e-07
6.00928e-07
5.978e-07
5.94175e-07
5.9003e-07
5.85334e-07
5.80061e-07
5.74186e-07
5.67676e-07
5.60503e-07
5.52631e-07
5.44028e-07
5.3466e-07
5.24492e-07
5.13491e-07
5.01628e-07
4.8887e-07
4.7519e-07
4.60558e-07
4.44958e-07
4.28376e-07
4.10808e-07
3.92255e-07
3.72739e-07
3.52289e-07
3.30945e-07
3.08728e-07
2.85725e-07
2.62089e-07
2.38027e-07
2.13797e-07
1.89702e-07
1.66079e-07
1.43286e-07
1.21675e-07
1.01569e-07
8.32377e-08
6.68736e-08
5.25833e-08
4.03844e-08
3.02136e-08
2.19419e-08
1.53926e-08
1.03598e-08
6.6245e-09
3.96718e-09
2.17652e-09
1.05547e-09
4.24793e-10
1.25343e-10
2.04206e-11
8.66066e-13
4.32951e-07
4.41692e-07
4.50217e-07
4.5852e-07
4.66612e-07
4.74496e-07
4.82174e-07
4.89646e-07
4.96907e-07
5.03966e-07
5.10815e-07
5.17463e-07
5.23908e-07
5.30144e-07
5.3617e-07
5.41985e-07
5.47593e-07
5.52993e-07
5.58177e-07
5.63141e-07
5.6789e-07
5.72419e-07
5.7672e-07
5.80795e-07
5.84639e-07
5.88242e-07
5.91604e-07
5.94715e-07
5.97568e-07
6.00162e-07
6.02489e-07
6.04541e-07
6.0631e-07
6.07782e-07
6.08952e-07
6.0981e-07
6.1034e-07
6.10534e-07
6.10374e-07
6.09846e-07
6.08939e-07
6.07637e-07
6.05918e-07
6.03768e-07
6.01161e-07
5.98081e-07
5.94506e-07
5.90407e-07
5.85757e-07
5.80531e-07
5.74702e-07
5.68241e-07
5.61118e-07
5.53299e-07
5.44753e-07
5.35445e-07
5.25337e-07
5.14399e-07
5.02594e-07
4.89894e-07
4.76267e-07
4.61689e-07
4.46141e-07
4.29605e-07
4.12075e-07
3.93559e-07
3.74073e-07
3.53647e-07
3.32319e-07
3.10111e-07
2.87104e-07
2.63451e-07
2.39355e-07
2.15074e-07
1.90909e-07
1.67201e-07
1.44309e-07
1.22587e-07
1.02364e-07
8.39127e-08
6.7432e-08
5.30326e-08
4.07355e-08
3.04794e-08
2.21362e-08
1.55291e-08
1.04515e-08
6.68281e-09
4.00171e-09
2.19515e-09
1.06427e-09
4.2818e-10
1.26263e-10
2.05436e-11
8.68843e-13
4.3157e-07
4.40351e-07
4.48907e-07
4.57248e-07
4.65378e-07
4.73299e-07
4.81012e-07
4.8852e-07
4.95817e-07
5.02903e-07
5.09779e-07
5.16453e-07
5.22923e-07
5.2919e-07
5.35251e-07
5.41105e-07
5.46751e-07
5.52187e-07
5.57412e-07
5.62418e-07
5.67207e-07
5.7177e-07
5.76112e-07
5.80221e-07
5.84099e-07
5.87737e-07
5.91128e-07
5.94273e-07
5.97167e-07
5.99801e-07
6.02165e-07
6.04255e-07
6.06061e-07
6.07572e-07
6.08782e-07
6.09676e-07
6.10242e-07
6.10468e-07
6.10341e-07
6.09852e-07
6.08981e-07
6.07715e-07
6.06036e-07
6.03928e-07
6.01364e-07
5.98328e-07
5.94792e-07
5.90738e-07
5.86134e-07
5.80959e-07
5.75179e-07
5.68769e-07
5.61694e-07
5.53925e-07
5.45424e-07
5.36159e-07
5.26097e-07
5.15202e-07
5.0344e-07
4.90781e-07
4.77197e-07
4.62661e-07
4.47151e-07
4.30654e-07
4.13162e-07
3.94676e-07
3.75212e-07
3.54802e-07
3.33486e-07
3.11284e-07
2.88276e-07
2.64609e-07
2.40486e-07
2.16164e-07
1.91943e-07
1.68164e-07
1.45188e-07
1.23372e-07
1.03049e-07
8.44958e-08
6.79153e-08
5.3422e-08
4.10399e-08
3.071e-08
2.23048e-08
1.56477e-08
1.05312e-08
6.73343e-09
4.0317e-09
2.21131e-09
1.0719e-09
4.31115e-10
1.27058e-10
2.06493e-11
8.71163e-13
4.30386e-07
4.39198e-07
4.47794e-07
4.56175e-07
4.64334e-07
4.72275e-07
4.80009e-07
4.87536e-07
4.94859e-07
5.01977e-07
5.08892e-07
5.15603e-07
5.2211e-07
5.28407e-07
5.345e-07
5.40381e-07
5.46054e-07
5.5152e-07
5.56768e-07
5.61803e-07
5.66617e-07
5.71206e-07
5.75573e-07
5.79715e-07
5.83626e-07
5.87297e-07
5.90723e-07
5.93898e-07
5.96817e-07
5.99479e-07
6.0187e-07
6.03988e-07
6.05821e-07
6.07358e-07
6.08594e-07
6.09515e-07
6.10113e-07
6.10372e-07
6.10283e-07
6.09832e-07
6.09e-07
6.07769e-07
6.06124e-07
6.04043e-07
6.01509e-07
5.98503e-07
5.95003e-07
5.90984e-07
5.86422e-07
5.81284e-07
5.75542e-07
5.6917e-07
5.62137e-07
5.54406e-07
5.45945e-07
5.36722e-07
5.26703e-07
5.15853e-07
5.0414e-07
4.91526e-07
4.77986e-07
4.63492e-07
4.4802e-07
4.31555e-07
4.14092e-07
3.95632e-07
3.76191e-07
3.558e-07
3.34494e-07
3.12299e-07
2.8929e-07
2.65611e-07
2.41465e-07
2.17108e-07
1.9284e-07
1.69001e-07
1.45952e-07
1.24056e-07
1.03645e-07
8.50031e-08
6.83356e-08
5.37606e-08
4.13047e-08
3.09105e-08
2.24515e-08
1.57509e-08
1.06005e-08
6.77748e-09
4.05778e-09
2.22538e-09
1.07854e-09
4.33667e-10
1.27749e-10
2.07412e-11
8.73189e-13
4.29437e-07
4.38283e-07
4.46907e-07
4.55308e-07
4.63489e-07
4.71454e-07
4.79211e-07
4.86763e-07
4.94104e-07
5.01241e-07
5.08175e-07
5.14906e-07
5.21427e-07
5.27743e-07
5.33855e-07
5.39754e-07
5.45445e-07
5.50919e-07
5.56183e-07
5.61232e-07
5.66064e-07
5.70675e-07
5.75062e-07
5.79221e-07
5.83148e-07
5.86837e-07
5.90286e-07
5.93481e-07
5.96424e-07
5.99108e-07
6.01525e-07
6.03668e-07
6.05528e-07
6.07093e-07
6.08351e-07
6.09298e-07
6.09921e-07
6.1021e-07
6.1015e-07
6.09727e-07
6.08927e-07
6.07728e-07
6.06119e-07
6.04079e-07
6.01585e-07
5.9862e-07
5.9516e-07
5.91178e-07
5.86648e-07
5.81547e-07
5.75847e-07
5.69515e-07
5.62517e-07
5.54823e-07
5.46399e-07
5.37213e-07
5.27231e-07
5.16416e-07
5.04732e-07
4.92151e-07
4.78642e-07
4.64179e-07
4.48736e-07
4.323e-07
4.14864e-07
3.96427e-07
3.77006e-07
3.5663e-07
3.35338e-07
3.13153e-07
2.90145e-07
2.66458e-07
2.42293e-07
2.17906e-07
1.93598e-07
1.69708e-07
1.46599e-07
1.24633e-07
1.0415e-07
8.54323e-08
6.86913e-08
5.40472e-08
4.15289e-08
3.10803e-08
2.25757e-08
1.58382e-08
1.06591e-08
6.81475e-09
4.07986e-09
2.23728e-09
1.08415e-09
4.35827e-10
1.28334e-10
2.08191e-11
8.74918e-13
4.28635e-07
4.37496e-07
4.46142e-07
4.54572e-07
4.6278e-07
4.7077e-07
4.78552e-07
4.86128e-07
4.93498e-07
5.00658e-07
5.07614e-07
5.14359e-07
5.20902e-07
5.2724e-07
5.33368e-07
5.39289e-07
5.44998e-07
5.5049e-07
5.55772e-07
5.60835e-07
5.65681e-07
5.70308e-07
5.74712e-07
5.7889e-07
5.82837e-07
5.86542e-07
5.90007e-07
5.93226e-07
5.96192e-07
5.98895e-07
6.01327e-07
6.03485e-07
6.05362e-07
6.06948e-07
6.08233e-07
6.09203e-07
6.09846e-07
6.10155e-07
6.10111e-07
6.09705e-07
6.08918e-07
6.07737e-07
6.06145e-07
6.04123e-07
6.01651e-07
5.98708e-07
5.95271e-07
5.91316e-07
5.86814e-07
5.81741e-07
5.76064e-07
5.69759e-07
5.62789e-07
5.55127e-07
5.46737e-07
5.37583e-07
5.27633e-07
5.16853e-07
5.05205e-07
4.92656e-07
4.79175e-07
4.64735e-07
4.49314e-07
4.32898e-07
4.1548e-07
3.97062e-07
3.77657e-07
3.57293e-07
3.36006e-07
3.13826e-07
2.9082e-07
2.67126e-07
2.42949e-07
2.18538e-07
1.94196e-07
1.70265e-07
1.47107e-07
1.25088e-07
1.04547e-07
8.57708e-08
6.8972e-08
5.42736e-08
4.1706e-08
3.12145e-08
2.26739e-08
1.59073e-08
1.07056e-08
6.84425e-09
4.09733e-09
2.24669e-09
1.08859e-09
4.37533e-10
1.28795e-10
2.08802e-11
8.7624e-13
4.28048e-07
4.36934e-07
4.45596e-07
4.54034e-07
4.62261e-07
4.70278e-07
4.78079e-07
4.85675e-07
4.93059e-07
5.00233e-07
5.07197e-07
5.13953e-07
5.20505e-07
5.26855e-07
5.33e-07
5.38933e-07
5.44653e-07
5.50165e-07
5.55459e-07
5.60541e-07
5.65407e-07
5.70047e-07
5.74459e-07
5.78643e-07
5.82597e-07
5.86314e-07
5.89792e-07
5.93023e-07
5.96003e-07
5.98724e-07
6.01174e-07
6.03351e-07
6.05246e-07
6.06851e-07
6.0815e-07
6.0914e-07
6.09802e-07
6.10127e-07
6.10104e-07
6.09721e-07
6.08956e-07
6.07795e-07
6.0622e-07
6.04216e-07
6.01758e-07
5.98831e-07
5.95411e-07
5.9147e-07
5.86982e-07
5.81924e-07
5.76268e-07
5.69979e-07
5.6303e-07
5.55387e-07
5.47018e-07
5.37885e-07
5.27956e-07
5.17193e-07
5.05561e-07
4.93032e-07
4.79571e-07
4.65153e-07
4.49757e-07
4.33363e-07
4.15962e-07
3.97559e-07
3.78165e-07
3.57809e-07
3.36529e-07
3.14353e-07
2.91344e-07
2.67643e-07
2.43451e-07
2.19022e-07
1.94656e-07
1.70693e-07
1.47499e-07
1.25438e-07
1.04852e-07
8.60311e-08
6.9188e-08
5.44477e-08
4.18422e-08
3.13177e-08
2.27494e-08
1.59604e-08
1.07412e-08
6.86691e-09
4.11075e-09
2.25393e-09
1.092e-09
4.38845e-10
1.2915e-10
2.09274e-11
8.77286e-13
4.2763e-07
4.36521e-07
4.45198e-07
4.53651e-07
4.61892e-07
4.69915e-07
4.77723e-07
4.85317e-07
4.92708e-07
4.99888e-07
5.06864e-07
5.13638e-07
5.20202e-07
5.26562e-07
5.32718e-07
5.38661e-07
5.44391e-07
5.49913e-07
5.55224e-07
5.60315e-07
5.65191e-07
5.69841e-07
5.7427e-07
5.78472e-07
5.82438e-07
5.8617e-07
5.89656e-07
5.92891e-07
5.95876e-07
5.98602e-07
6.01058e-07
6.03241e-07
6.05143e-07
6.0675e-07
6.08057e-07
6.09054e-07
6.09724e-07
6.1006e-07
6.10044e-07
6.09662e-07
6.08904e-07
6.07753e-07
6.06191e-07
6.04201e-07
6.01761e-07
5.98847e-07
5.9544e-07
5.91511e-07
5.87035e-07
5.81989e-07
5.76344e-07
5.70071e-07
5.63137e-07
5.55511e-07
5.47154e-07
5.38033e-07
5.28115e-07
5.17367e-07
5.05749e-07
4.93234e-07
4.79789e-07
4.65384e-07
4.49999e-07
4.33617e-07
4.16231e-07
3.97838e-07
3.78455e-07
3.58108e-07
3.36835e-07
3.14662e-07
2.91656e-07
2.67954e-07
2.43757e-07
2.19319e-07
1.94939e-07
1.70958e-07
1.47742e-07
1.25656e-07
1.05044e-07
8.61949e-08
6.9324e-08
5.45575e-08
4.19282e-08
3.1383e-08
2.27972e-08
1.5994e-08
1.07638e-08
6.88127e-09
4.11925e-09
2.25851e-09
1.09416e-09
4.39673e-10
1.29373e-10
2.09566e-11
8.77885e-13
4.27393e-07
4.36288e-07
4.44967e-07
4.53423e-07
4.61657e-07
4.69673e-07
4.7748e-07
4.8508e-07
4.92475e-07
4.99665e-07
5.06651e-07
5.13433e-07
5.20003e-07
5.26369e-07
5.32529e-07
5.38483e-07
5.44222e-07
5.49746e-07
5.55058e-07
5.60157e-07
5.6504e-07
5.69704e-07
5.74139e-07
5.78342e-07
5.82315e-07
5.86047e-07
5.89538e-07
5.92783e-07
5.95772e-07
5.98497e-07
6.00957e-07
6.03144e-07
6.05049e-07
6.06659e-07
6.07967e-07
6.08964e-07
6.09639e-07
6.09979e-07
6.09971e-07
6.09602e-07
6.08855e-07
6.07716e-07
6.06166e-07
6.04183e-07
6.0175e-07
5.98848e-07
5.95453e-07
5.91537e-07
5.87078e-07
5.82045e-07
5.76415e-07
5.70153e-07
5.63227e-07
5.55605e-07
5.47257e-07
5.38149e-07
5.28242e-07
5.17501e-07
5.05891e-07
4.93384e-07
4.79947e-07
4.65554e-07
4.50178e-07
4.33803e-07
4.16419e-07
3.98032e-07
3.78651e-07
3.58305e-07