/*--------------------------------*- C++ -*----------------------------------*\
  =========                 |
  \\      /  F ield         | OpenFOAM: The Open Source CFD Toolbox
   \\    /   O peration     | Website:  https://openfoam.org
    \\  /    A nd           | Version:  7
     \\/     M anipulation  |
\*---------------------------------------------------------------------------*/
FoamFile
{
    version     2.0;
    format      ascii;
    class       volScalarField;
    location    "80000";
    object      nu;
}
// * * * * * * * * * * * * * * * * * * * * * * * * * * * * * * * * * * * * * //

dimensions      [0 2 -1 0 0 0 0];

internalField   nonuniform List<scalar> 
4782
(
2.42677e-06
2.38085e-06
2.33579e-06
2.2916e-06
2.24829e-06
2.20588e-06
2.16438e-06
2.12381e-06
2.08416e-06
2.04547e-06
5.43266e-06
5.33828e-06
5.24554e-06
5.15443e-06
5.06498e-06
4.97717e-06
4.89095e-06
4.80629e-06
4.72315e-06
4.64148e-06
4.56121e-06
4.48228e-06
4.40467e-06
4.32834e-06
4.25327e-06
4.17944e-06
4.10679e-06
4.03528e-06
3.96489e-06
3.89559e-06
3.82732e-06
3.76008e-06
3.69384e-06
3.62861e-06
3.56435e-06
3.50104e-06
3.43866e-06
3.37717e-06
3.31657e-06
3.25685e-06
3.19798e-06
3.13996e-06
3.08277e-06
3.02643e-06
2.97092e-06
2.91624e-06
2.86238e-06
2.80936e-06
2.75716e-06
2.70578e-06
2.65521e-06
2.60548e-06
2.55658e-06
2.50851e-06
2.46129e-06
2.41492e-06
2.36939e-06
2.32472e-06
2.28093e-06
2.23801e-06
2.19599e-06
2.15488e-06
2.11469e-06
2.07543e-06
2.03712e-06
5.39451e-06
5.30098e-06
5.20907e-06
5.11883e-06
5.03025e-06
4.9433e-06
4.85794e-06
4.77412e-06
4.69178e-06
4.61085e-06
4.53128e-06
4.45305e-06
4.37613e-06
4.30047e-06
4.22606e-06
4.15284e-06
4.08078e-06
4.00985e-06
3.94003e-06
3.87129e-06
3.80359e-06
3.73692e-06
3.67126e-06
3.60658e-06
3.54285e-06
3.48004e-06
3.41814e-06
3.35713e-06
3.29699e-06
3.23772e-06
3.1793e-06
3.12173e-06
3.06501e-06
3.00912e-06
2.95407e-06
2.89984e-06
2.84643e-06
2.79385e-06
2.74208e-06
2.69114e-06
2.641e-06
2.59169e-06
2.5432e-06
2.49554e-06
2.44872e-06
2.40274e-06
2.35762e-06
2.31337e-06
2.26998e-06
2.22747e-06
2.18585e-06
2.14513e-06
2.10533e-06
2.06646e-06
2.02853e-06
5.3556e-06
5.26298e-06
5.17199e-06
5.08265e-06
4.99494e-06
4.90884e-06
4.82429e-06
4.74124e-06
4.65964e-06
4.57946e-06
4.50066e-06
4.4232e-06
4.34704e-06
4.27209e-06
4.19833e-06
4.12573e-06
4.05429e-06
3.98398e-06
3.91476e-06
3.84659e-06
3.77944e-06
3.7133e-06
3.64816e-06
3.58398e-06
3.52075e-06
3.45845e-06
3.39705e-06
3.33654e-06
3.2769e-06
3.21812e-06
3.16018e-06
3.10309e-06
3.04684e-06
2.99141e-06
2.93681e-06
2.88303e-06
2.83007e-06
2.77793e-06
2.72661e-06
2.6761e-06
2.62642e-06
2.57755e-06
2.5295e-06
2.48229e-06
2.4359e-06
2.39035e-06
2.34566e-06
2.30181e-06
2.25883e-06
2.21673e-06
2.17551e-06
2.13519e-06
2.09578e-06
2.05731e-06
2.01979e-06
5.31234e-06
5.22092e-06
5.13111e-06
5.04289e-06
4.95621e-06
4.87108e-06
4.78746e-06
4.70534e-06
4.62466e-06
4.54539e-06
4.46747e-06
4.39086e-06
4.31548e-06
4.2413e-06
4.16829e-06
4.09644e-06
4.02573e-06
3.95612e-06
3.88758e-06
3.82009e-06
3.75362e-06
3.68814e-06
3.62362e-06
3.56003e-06
3.49736e-06
3.4356e-06
3.37474e-06
3.31475e-06
3.25564e-06
3.19739e-06
3.14e-06
3.08344e-06
3.02772e-06
2.9728e-06
2.91871e-06
2.86542e-06
2.81294e-06
2.76127e-06
2.71042e-06
2.66039e-06
2.61118e-06
2.56278e-06
2.51519e-06
2.46841e-06
2.42247e-06
2.37736e-06
2.33311e-06
2.28971e-06
2.24717e-06
2.2055e-06
2.16472e-06
2.12483e-06
2.08586e-06
2.04781e-06
2.01071e-06
5.31222e-06
5.22085e-06
5.13106e-06
5.04284e-06
4.95619e-06
4.87111e-06
4.78754e-06
4.70544e-06
4.62475e-06
4.54543e-06
4.46744e-06
4.39077e-06
4.31538e-06
4.24122e-06
4.16825e-06
4.09642e-06
4.02571e-06
3.9561e-06
3.88756e-06
3.82007e-06
3.75359e-06
3.68811e-06
3.62358e-06
3.56e-06
3.49735e-06
3.4356e-06
3.37475e-06
3.31478e-06
3.25567e-06
3.19742e-06
3.14001e-06
3.08343e-06
3.02769e-06
2.97276e-06
2.91865e-06
2.86536e-06
2.81289e-06
2.76124e-06
2.71039e-06
2.66035e-06
2.61113e-06
2.56273e-06
2.51514e-06
2.46837e-06
2.42244e-06
2.37734e-06
2.33308e-06
2.28968e-06
2.24714e-06
2.20548e-06
2.1647e-06
2.12482e-06
2.08585e-06
2.04781e-06
2.0107e-06
5.35512e-06
5.26268e-06
5.17188e-06
5.08266e-06
4.99504e-06
4.90898e-06
4.82443e-06
4.74135e-06
4.65972e-06
4.57948e-06
4.50059e-06
4.42303e-06
4.34677e-06
4.27179e-06
4.19805e-06
4.12551e-06
4.05412e-06
3.98384e-06
3.91463e-06
3.84648e-06
3.77936e-06
3.71325e-06
3.64813e-06
3.58397e-06
3.52075e-06
3.45845e-06
3.39704e-06
3.33652e-06
3.27688e-06
3.21811e-06
3.16018e-06
3.10308e-06
3.04681e-06
2.99136e-06
2.93675e-06
2.88297e-06
2.83001e-06
2.77786e-06
2.72653e-06
2.67602e-06
2.62633e-06
2.57747e-06
2.52943e-06
2.48222e-06
2.43584e-06
2.39029e-06
2.34559e-06
2.30175e-06
2.25877e-06
2.21668e-06
2.17547e-06
2.13516e-06
2.09577e-06
2.05731e-06
2.01979e-06
1.98323e-06
1.94764e-06
1.91304e-06
1.87945e-06
5.39392e-06
5.30057e-06
5.20887e-06
5.11876e-06
5.03024e-06
4.9433e-06
4.85792e-06
4.77404e-06
4.69163e-06
4.61065e-06
4.53105e-06
4.4528e-06
4.37587e-06
4.30023e-06
4.22584e-06
4.15265e-06
4.0806e-06
4.00969e-06
3.93987e-06
3.87114e-06
3.80345e-06
3.7368e-06
3.67114e-06
3.60646e-06
3.54272e-06
3.4799e-06
3.41798e-06
3.35696e-06
3.29683e-06
3.23758e-06
3.17918e-06
3.12162e-06
3.06491e-06
3.00902e-06
2.95396e-06
2.89974e-06
2.84634e-06
2.79376e-06
2.742e-06
2.69106e-06
2.64094e-06
2.59164e-06
2.54317e-06
2.49553e-06
2.44872e-06
2.40276e-06
2.35765e-06
2.31339e-06
2.27e-06
2.22749e-06
2.18587e-06
2.14516e-06
2.10536e-06
2.06649e-06
2.02857e-06
1.99161e-06
1.95562e-06
1.92063e-06
1.88666e-06
1.85371e-06
5.43186e-06
5.33768e-06
5.24516e-06
5.15426e-06
5.06492e-06
4.97713e-06
4.89086e-06
4.80611e-06
4.72288e-06
4.64115e-06
4.56088e-06
4.48201e-06
4.40449e-06
4.32823e-06
4.2532e-06
4.17936e-06
4.10668e-06
4.03516e-06
3.96476e-06
3.89546e-06
3.82723e-06
3.76003e-06
3.69382e-06
3.62858e-06
3.56429e-06
3.50094e-06
3.43851e-06
3.377e-06
3.31637e-06
3.25662e-06
3.19773e-06
3.13972e-06
3.08256e-06
3.02624e-06
2.97075e-06
2.91609e-06
2.86226e-06
2.80925e-06
2.75706e-06
2.7057e-06
2.65516e-06
2.60544e-06
2.55656e-06
2.5085e-06
2.46129e-06
2.41492e-06
2.36941e-06
2.32476e-06
2.28098e-06
2.23807e-06
2.19605e-06
2.15493e-06
2.11473e-06
2.07547e-06
2.03715e-06
1.9998e-06
1.96343e-06
1.92806e-06
1.8937e-06
1.86038e-06
1.82812e-06
1.79693e-06
1.76682e-06
1.73782e-06
1.70993e-06
1.6831e-06
1.65701e-06
1.63113e-06
1.60551e-06
1.58086e-06
1.55764e-06
1.536e-06
1.51603e-06
1.4978e-06
1.48138e-06
1.46678e-06
1.45402e-06
1.44303e-06
1.43373e-06
1.42599e-06
1.41966e-06
1.41454e-06
1.41046e-06
1.4072e-06
1.4046e-06
1.40249e-06
1.40074e-06
1.39924e-06
1.39791e-06
1.39669e-06
1.39553e-06
1.39442e-06
1.39334e-06
1.39228e-06
1.39125e-06
5.46886e-06
5.37385e-06
5.28048e-06
5.18873e-06
5.09859e-06
5.01005e-06
4.92305e-06
4.83757e-06
4.75362e-06
4.67117e-06
4.5902e-06
4.51063e-06
4.4324e-06
4.35547e-06
4.27981e-06
4.20536e-06
4.1321e-06
4.06001e-06
3.98906e-06
3.91921e-06
3.85044e-06
3.78271e-06
3.71597e-06
3.65021e-06
3.5854e-06
3.52154e-06
3.45861e-06
3.39659e-06
3.33548e-06
3.27525e-06
3.2159e-06
3.15742e-06
3.09978e-06
3.04301e-06
2.98707e-06
2.93198e-06
2.87772e-06
2.8243e-06
2.77171e-06
2.71995e-06
2.66901e-06
2.61889e-06
2.5696e-06
2.52114e-06
2.47352e-06
2.42675e-06
2.38083e-06
2.33579e-06
2.29161e-06
2.24832e-06
2.20591e-06
2.16442e-06
2.12384e-06
2.0842e-06
2.0455e-06
2.00778e-06
1.97104e-06
1.93531e-06
1.90059e-06
1.86692e-06
1.8343e-06
1.80275e-06
1.7723e-06
1.74296e-06
1.71474e-06
1.6876e-06
1.66132e-06
1.63531e-06
1.60946e-06
1.58447e-06
1.56092e-06
1.53894e-06
1.51863e-06
1.50008e-06
1.48333e-06
1.46844e-06
1.4554e-06
1.44416e-06
1.43464e-06
1.42671e-06
1.42022e-06
1.41498e-06
1.41079e-06
1.40746e-06
1.40481e-06
1.40266e-06
1.40088e-06
1.39936e-06
1.39801e-06
1.39677e-06
1.39561e-06
1.39449e-06
1.3934e-06
1.39234e-06
1.39129e-06
5.50484e-06
5.40902e-06
5.31485e-06
5.22232e-06
5.1314e-06
5.04207e-06
4.95433e-06
4.86814e-06
4.78349e-06
4.70037e-06
4.61871e-06
4.53846e-06
4.45959e-06
4.38205e-06
4.30577e-06
4.23071e-06
4.15687e-06
4.08422e-06
4.01271e-06
3.94232e-06
3.873e-06
3.80471e-06
3.73744e-06
3.67116e-06
3.60586e-06
3.54152e-06
3.47813e-06
3.41566e-06
3.35409e-06
3.29342e-06
3.23364e-06
3.17473e-06
3.11667e-06
3.05946e-06
3.00309e-06
2.94755e-06
2.89285e-06
2.83899e-06
2.78596e-06
2.73378e-06
2.68243e-06
2.63191e-06
2.58222e-06
2.53337e-06
2.48537e-06
2.43822e-06
2.39192e-06
2.34649e-06
2.30192e-06
2.25824e-06
2.21545e-06
2.17358e-06
2.13263e-06
2.09263e-06
2.05358e-06
2.0155e-06
1.97842e-06
1.94233e-06
1.90727e-06
1.87326e-06
1.8403e-06
1.80841e-06
1.77763e-06
1.74796e-06
1.71942e-06
1.69199e-06
1.66553e-06
1.6394e-06
1.61332e-06
1.58802e-06
1.56414e-06
1.54182e-06
1.52119e-06
1.50231e-06
1.48526e-06
1.47008e-06
1.45676e-06
1.44527e-06
1.43553e-06
1.42742e-06
1.42077e-06
1.41541e-06
1.41112e-06
1.40772e-06
1.40501e-06
1.40282e-06
1.40101e-06
1.39947e-06
1.39811e-06
1.39686e-06
1.39569e-06
1.39456e-06
1.39346e-06
1.39239e-06
1.39134e-06
5.53974e-06
5.44317e-06
5.34824e-06
5.25493e-06
5.16323e-06
5.07317e-06
4.98473e-06
4.89787e-06
4.81254e-06
4.72871e-06
4.64634e-06
4.56541e-06
4.48591e-06
4.40777e-06
4.33094e-06
4.25535e-06
4.18095e-06
4.10771e-06
4.03561e-06
3.96464e-06
3.89478e-06
3.82598e-06
3.75821e-06
3.69146e-06
3.6257e-06
3.5609e-06
3.49705e-06
3.43413e-06
3.37211e-06
3.31099e-06
3.25076e-06
3.1914e-06
3.13292e-06
3.0753e-06
3.01853e-06
2.96261e-06
2.90752e-06
2.85326e-06
2.79983e-06
2.74724e-06
2.69549e-06
2.64457e-06
2.5945e-06
2.54526e-06
2.49688e-06
2.44934e-06
2.40266e-06
2.35685e-06
2.31191e-06
2.26786e-06
2.22471e-06
2.18248e-06
2.14118e-06
2.10083e-06
2.06143e-06
2.023e-06
1.98557e-06
1.94915e-06
1.91375e-06
1.8794e-06
1.84612e-06
1.81391e-06
1.78281e-06
1.75283e-06
1.72398e-06
1.69626e-06
1.66956e-06
1.64328e-06
1.61703e-06
1.59146e-06
1.56726e-06
1.54463e-06
1.52368e-06
1.50449e-06
1.48714e-06
1.47168e-06
1.4581e-06
1.44637e-06
1.43642e-06
1.42812e-06
1.42132e-06
1.41583e-06
1.41145e-06
1.40798e-06
1.40521e-06
1.40298e-06
1.40115e-06
1.39959e-06
1.39821e-06
1.39695e-06
1.39577e-06
1.39463e-06
1.39353e-06
1.39245e-06
1.39139e-06
5.57349e-06
5.47609e-06
5.38037e-06
5.28631e-06
5.19391e-06
5.10313e-06
5.01396e-06
4.9264e-06
4.84043e-06
4.75602e-06
4.67308e-06
4.59157e-06
4.51143e-06
4.43264e-06
4.35519e-06
4.27902e-06
4.20408e-06
4.13034e-06
4.05776e-06
3.98631e-06
3.91595e-06
3.84665e-06
3.77839e-06
3.71113e-06
3.64487e-06
3.57959e-06
3.51527e-06
3.45189e-06
3.38943e-06
3.32787e-06
3.26721e-06
3.20743e-06
3.14853e-06
3.0905e-06
3.03333e-06
2.97702e-06
2.92157e-06
2.86695e-06
2.81317e-06
2.76022e-06
2.7081e-06
2.65682e-06
2.60637e-06
2.55676e-06
2.508e-06
2.46009e-06
2.41304e-06
2.36687e-06
2.32157e-06
2.27717e-06
2.23368e-06
2.19111e-06
2.14946e-06
2.10877e-06
2.06903e-06
2.03027e-06
1.99251e-06
1.95576e-06
1.92003e-06
1.88536e-06
1.85176e-06
1.81924e-06
1.78782e-06
1.75753e-06
1.72838e-06
1.70037e-06
1.67341e-06
1.64696e-06
1.62058e-06
1.59479e-06
1.5703e-06
1.54736e-06
1.5261e-06
1.50662e-06
1.48898e-06
1.47324e-06
1.4594e-06
1.44744e-06
1.43729e-06
1.42881e-06
1.42186e-06
1.41625e-06
1.41177e-06
1.40823e-06
1.40541e-06
1.40314e-06
1.40128e-06
1.3997e-06
1.39831e-06
1.39704e-06
1.39585e-06
1.3947e-06
1.39359e-06
1.3925e-06
1.39143e-06
5.60585e-06
5.50763e-06
5.41112e-06
5.31632e-06
5.22323e-06
5.13181e-06
5.04204e-06
4.95391e-06
4.86735e-06
4.78233e-06
4.69878e-06
4.61666e-06
4.53595e-06
4.45662e-06
4.37861e-06
4.30187e-06
4.22636e-06
4.15205e-06
4.07893e-06
4.00696e-06
3.9361e-06
3.86631e-06
3.79756e-06
3.72984e-06
3.66314e-06
3.59744e-06
3.53272e-06
3.46894e-06
3.40609e-06
3.34415e-06
3.28311e-06
3.22294e-06
3.16365e-06
3.10522e-06
3.04766e-06
2.99097e-06
2.93513e-06
2.88013e-06
2.82598e-06
2.77265e-06
2.72016e-06
2.66851e-06
2.6177e-06
2.56775e-06
2.51864e-06
2.47039e-06
2.423e-06
2.37649e-06
2.33087e-06
2.28614e-06
2.24232e-06
2.19942e-06
2.15744e-06
2.11642e-06
2.07636e-06
2.03728e-06
1.9992e-06
1.96213e-06
1.92609e-06
1.8911e-06
1.85719e-06
1.82436e-06
1.79265e-06
1.76207e-06
1.73264e-06
1.70434e-06
1.67712e-06
1.6505e-06
1.624e-06
1.59801e-06
1.57323e-06
1.55e-06
1.52845e-06
1.50868e-06
1.49076e-06
1.47476e-06
1.46067e-06
1.44849e-06
1.43813e-06
1.42948e-06
1.42238e-06
1.41666e-06
1.41209e-06
1.40847e-06
1.4056e-06
1.40329e-06
1.4014e-06
1.3998e-06
1.3984e-06
1.39712e-06
1.39592e-06
1.39477e-06
1.39365e-06
1.39255e-06
1.39148e-06
5.63675e-06
5.53784e-06
5.44069e-06
5.34528e-06
5.25157e-06
5.15956e-06
5.0692e-06
4.98046e-06
4.89326e-06
4.80757e-06
4.72339e-06
4.64067e-06
4.55937e-06
4.47941e-06
4.40078e-06
4.32347e-06
4.24744e-06
4.17266e-06
4.09907e-06
4.02662e-06
3.95527e-06
3.88502e-06
3.81583e-06
3.74769e-06
3.68059e-06
3.61448e-06
3.54934e-06
3.48515e-06
3.42189e-06
3.35955e-06
3.29813e-06
3.23761e-06
3.17798e-06
3.11922e-06
3.06131e-06
3.00427e-06
2.94807e-06
2.89272e-06
2.83821e-06
2.78453e-06
2.7317e-06
2.67971e-06
2.62857e-06
2.57827e-06
2.52884e-06
2.48028e-06
2.43258e-06
2.38576e-06
2.33982e-06
2.29477e-06
2.25063e-06
2.20742e-06
2.16514e-06
2.12381e-06
2.08344e-06
2.04405e-06
2.00565e-06
1.96827e-06
1.93192e-06
1.89663e-06
1.86242e-06
1.8293e-06
1.79729e-06
1.76643e-06
1.73671e-06
1.70815e-06
1.68068e-06
1.6539e-06
1.6273e-06
1.60111e-06
1.57605e-06
1.55254e-06
1.53071e-06
1.51066e-06
1.49248e-06
1.47622e-06
1.46189e-06
1.44949e-06
1.43894e-06
1.43012e-06
1.42288e-06
1.41704e-06
1.41238e-06
1.40869e-06
1.40577e-06
1.40343e-06
1.40152e-06
1.3999e-06
1.39848e-06
1.39719e-06
1.39598e-06
1.39482e-06
1.3937e-06
1.3926e-06
1.39152e-06
5.66644e-06
5.56688e-06
5.4691e-06
5.37306e-06
5.27874e-06
5.18611e-06
5.09512e-06
5.00573e-06
4.91789e-06
4.83156e-06
4.74674e-06
4.6634e-06
4.58152e-06
4.50103e-06
4.42189e-06
4.34408e-06
4.26758e-06
4.19232e-06
4.11826e-06
4.04533e-06
3.97352e-06
3.90281e-06
3.83318e-06
3.76462e-06
3.69711e-06
3.63061e-06
3.5651e-06
3.50056e-06
3.43695e-06
3.37427e-06
3.3125e-06
3.25162e-06
3.19162e-06
3.13249e-06
3.07424e-06
3.01684e-06
2.9603e-06
2.90461e-06
2.84978e-06
2.79578e-06
2.74264e-06
2.69035e-06
2.6389e-06
2.5883e-06
2.53857e-06
2.4897e-06
2.4417e-06
2.39457e-06
2.34832e-06
2.30298e-06
2.25854e-06
2.21502e-06
2.17244e-06
2.1308e-06
2.09012e-06
2.05043e-06
2.01174e-06
1.97408e-06
1.93745e-06
1.90188e-06
1.86738e-06
1.83399e-06
1.80171e-06
1.77058e-06
1.7406e-06
1.71178e-06
1.68407e-06
1.65714e-06
1.63044e-06
1.60406e-06
1.57874e-06
1.55496e-06
1.53287e-06
1.51256e-06
1.49413e-06
1.47762e-06
1.46307e-06
1.45046e-06
1.43972e-06
1.43074e-06
1.42337e-06
1.41742e-06
1.41267e-06
1.40892e-06
1.40595e-06
1.40357e-06
1.40163e-06
1.4e-06
1.39857e-06
1.39727e-06
1.39605e-06
1.39488e-06
1.39375e-06
1.39264e-06
1.39156e-06
5.69447e-06
5.59438e-06
5.49604e-06
5.39938e-06
5.30439e-06
5.21108e-06
5.11947e-06
5.0295e-06
4.94111e-06
4.85423e-06
4.76886e-06
4.68497e-06
4.60253e-06
4.52153e-06
4.44192e-06
4.36365e-06
4.28666e-06
4.21089e-06
4.13631e-06
4.06293e-06
3.99072e-06
3.91964e-06
3.84965e-06
3.78073e-06
3.71284e-06
3.64597e-06
3.58008e-06
3.51516e-06
3.45118e-06
3.38814e-06
3.326e-06
3.26477e-06
3.20444e-06
3.145e-06
3.08644e-06
3.02874e-06
2.97189e-06
2.9159e-06
2.86075e-06
2.80644e-06
2.75299e-06
2.70039e-06
2.64865e-06
2.59776e-06
2.54773e-06
2.49856e-06
2.45026e-06
2.40285e-06
2.35633e-06
2.3107e-06
2.26598e-06
2.22218e-06
2.17931e-06
2.1374e-06
2.09646e-06
2.0565e-06
2.01754e-06
1.9796e-06
1.94269e-06
1.90685e-06
1.87209e-06
1.83843e-06
1.8059e-06
1.7745e-06
1.74428e-06
1.71522e-06
1.68728e-06
1.66021e-06
1.63341e-06
1.60686e-06
1.5813e-06
1.55727e-06
1.53493e-06
1.51438e-06
1.4957e-06
1.47897e-06
1.4642e-06
1.45139e-06
1.44048e-06
1.43134e-06
1.42384e-06
1.41778e-06
1.41295e-06
1.40913e-06
1.40612e-06
1.40371e-06
1.40175e-06
1.4001e-06
1.39865e-06
1.39734e-06
1.39612e-06
1.39494e-06
1.39381e-06
1.39269e-06
1.3916e-06
5.72077e-06
5.61998e-06
5.52107e-06
5.4239e-06
5.32841e-06
5.23457e-06
5.14236e-06
5.05179e-06
4.96283e-06
4.87545e-06
4.78961e-06
4.70526e-06
4.62237e-06
4.54088e-06
4.46077e-06
4.38201e-06
4.30454e-06
4.22833e-06
4.15334e-06
4.07954e-06
4.0069e-06
3.93541e-06
3.86504e-06
3.79575e-06
3.72752e-06
3.6603e-06
3.59408e-06
3.52883e-06
3.46453e-06
3.40116e-06
3.33871e-06
3.27719e-06
3.21657e-06
3.15683e-06
3.09796e-06
3.03996e-06
2.98282e-06
2.92653e-06
2.8711e-06
2.81652e-06
2.76279e-06
2.70991e-06
2.65788e-06
2.6067e-06
2.55638e-06
2.50693e-06
2.45835e-06
2.41065e-06
2.36383e-06
2.31792e-06
2.27292e-06
2.22885e-06
2.18572e-06
2.14355e-06
2.10235e-06
2.06213e-06
2.02292e-06
1.98473e-06
1.94759e-06
1.9115e-06
1.8765e-06
1.84261e-06
1.80984e-06
1.77821e-06
1.74775e-06
1.71846e-06
1.69033e-06
1.66311e-06
1.63623e-06
1.60951e-06
1.58372e-06
1.55946e-06
1.53688e-06
1.5161e-06
1.4972e-06
1.48025e-06
1.46528e-06
1.45228e-06
1.4412e-06
1.43192e-06
1.42429e-06
1.41813e-06
1.41322e-06
1.40934e-06
1.40628e-06
1.40384e-06
1.40186e-06
1.40019e-06
1.39873e-06
1.39742e-06
1.39618e-06
1.395e-06
1.39386e-06
1.39274e-06
1.39164e-06
5.74562e-06
5.64415e-06
5.54457e-06
5.44679e-06
5.35075e-06
5.25642e-06
5.16376e-06
5.07271e-06
4.98324e-06
4.89536e-06
4.80899e-06
4.72411e-06
4.64068e-06
4.55869e-06
4.47812e-06
4.39893e-06
4.32107e-06
4.24451e-06
4.16918e-06
4.09505e-06
4.02208e-06
3.95024e-06
3.87952e-06
3.80987e-06
3.74129e-06
3.67375e-06
3.60721e-06
3.54165e-06
3.47704e-06
3.41338e-06
3.35064e-06
3.28881e-06
3.22788e-06
3.16784e-06
3.10868e-06
3.05039e-06
2.99296e-06
2.93638e-06
2.88066e-06
2.82579e-06
2.77178e-06
2.71863e-06
2.66634e-06
2.6149e-06
2.56434e-06
2.51464e-06
2.46581e-06
2.41788e-06
2.37083e-06
2.3247e-06
2.27948e-06
2.23518e-06
2.19182e-06
2.14941e-06
2.10796e-06
2.0675e-06
2.02805e-06
1.98961e-06
1.95222e-06
1.9159e-06
1.88066e-06
1.84652e-06
1.81352e-06
1.78167e-06
1.75099e-06
1.7215e-06
1.69317e-06
1.66583e-06
1.63886e-06
1.612e-06
1.58599e-06
1.56151e-06
1.53871e-06
1.51771e-06
1.4986e-06
1.48144e-06
1.46629e-06
1.45311e-06
1.44187e-06
1.43246e-06
1.42471e-06
1.41846e-06
1.41348e-06
1.40954e-06
1.40644e-06
1.40397e-06
1.40196e-06
1.40028e-06
1.39881e-06
1.39748e-06
1.39624e-06
1.39506e-06
1.39391e-06
1.39278e-06
1.39168e-06
5.76872e-06
5.66667e-06
5.56657e-06
5.46824e-06
5.37165e-06
5.27675e-06
5.1835e-06
5.09187e-06
5.00188e-06
4.91351e-06
4.82671e-06
4.74145e-06
4.65767e-06
4.57534e-06
4.49442e-06
4.41486e-06
4.3366e-06
4.25961e-06
4.18388e-06
4.10938e-06
4.03606e-06
3.96391e-06
3.89288e-06
3.82296e-06
3.7541e-06
3.68626e-06
3.61942e-06
3.55356e-06
3.48865e-06
3.42469e-06
3.36166e-06
3.29955e-06
3.23833e-06
3.17801e-06
3.11857e-06
3.06e-06
3.0023e-06
2.94547e-06
2.88951e-06
2.83441e-06
2.78016e-06
2.72677e-06
2.67424e-06
2.62256e-06
2.57175e-06
2.52181e-06
2.47275e-06
2.42458e-06
2.37731e-06
2.33094e-06
2.28549e-06
2.24096e-06
2.19738e-06
2.15475e-06
2.11309e-06
2.07242e-06
2.03275e-06
1.9941e-06
1.9565e-06
1.91996e-06
1.88451e-06
1.85017e-06
1.81696e-06
1.7849e-06
1.75402e-06
1.72433e-06
1.69582e-06
1.66837e-06
1.64132e-06
1.61432e-06
1.58812e-06
1.56343e-06
1.54043e-06
1.51922e-06
1.49991e-06
1.48257e-06
1.46723e-06
1.45389e-06
1.4425e-06
1.43296e-06
1.42511e-06
1.41876e-06
1.41371e-06
1.40972e-06
1.40658e-06
1.40408e-06
1.40205e-06
1.40036e-06
1.39888e-06
1.39755e-06
1.3963e-06
1.39511e-06
1.39395e-06
1.39282e-06
1.39172e-06
5.79006e-06
5.68746e-06
5.58684e-06
5.48799e-06
5.39084e-06
5.29539e-06
5.20166e-06
5.10961e-06
5.0192e-06
4.93038e-06
4.8431e-06
4.75737e-06
4.67316e-06
4.59044e-06
4.50916e-06
4.42927e-06
4.35072e-06
4.27347e-06
4.19746e-06
4.12265e-06
4.04903e-06
3.97656e-06
3.90523e-06
3.83501e-06
3.76586e-06
3.69776e-06
3.63065e-06
3.56451e-06
3.49932e-06
3.43507e-06
3.37176e-06
3.30938e-06
3.24791e-06
3.18734e-06
3.12765e-06
3.06885e-06
3.01093e-06
2.95387e-06
2.89767e-06
2.84235e-06
2.78788e-06
2.73427e-06
2.68152e-06
2.62963e-06
2.5786e-06
2.52844e-06
2.47916e-06
2.43077e-06
2.38328e-06
2.33669e-06
2.29102e-06
2.24629e-06
2.20249e-06
2.15966e-06
2.11779e-06
2.07691e-06
2.03704e-06
1.9982e-06
1.9604e-06
1.92367e-06
1.88803e-06
1.8535e-06
1.8201e-06
1.78786e-06
1.7568e-06
1.72692e-06
1.69824e-06
1.67064e-06
1.64349e-06
1.6164e-06
1.59005e-06
1.56518e-06
1.542e-06
1.52061e-06
1.50112e-06
1.48361e-06
1.46811e-06
1.45462e-06
1.44309e-06
1.43343e-06
1.42548e-06
1.41906e-06
1.41394e-06
1.4099e-06
1.40672e-06
1.40419e-06
1.40215e-06
1.40044e-06
1.39895e-06
1.39761e-06
1.39636e-06
1.39516e-06
1.394e-06
1.39287e-06
1.39175e-06
5.80934e-06
5.70619e-06
5.60507e-06
5.50579e-06
5.40824e-06
5.31239e-06
5.21822e-06
5.12572e-06
5.03487e-06
4.94563e-06
4.85798e-06
4.77191e-06
4.68739e-06
4.60435e-06
4.52275e-06
4.44253e-06
4.36364e-06
4.28605e-06
4.20973e-06
4.13465e-06
4.06076e-06
3.98802e-06
3.91641e-06
3.84591e-06
3.77647e-06
3.70808e-06
3.6407e-06
3.5743e-06
3.50888e-06
3.4444e-06
3.38086e-06
3.31825e-06
3.25656e-06
3.19578e-06
3.1359e-06
3.07689e-06
3.01877e-06
2.9615e-06
2.9051e-06
2.84956e-06
2.79488e-06
2.74107e-06
2.68811e-06
2.63603e-06
2.58481e-06
2.53447e-06
2.48501e-06
2.43644e-06
2.38877e-06
2.342e-06
2.29614e-06
2.25121e-06
2.20723e-06
2.1642e-06
2.12215e-06
2.08108e-06
2.04101e-06
2.00197e-06
1.96399e-06
1.92707e-06
1.89125e-06
1.85654e-06
1.82297e-06
1.79055e-06
1.75932e-06
1.72928e-06
1.70044e-06
1.67268e-06
1.64544e-06
1.61828e-06
1.59182e-06
1.56678e-06
1.54343e-06
1.52187e-06
1.50222e-06
1.48455e-06
1.4689e-06
1.45527e-06
1.44363e-06
1.43386e-06
1.42582e-06
1.41931e-06
1.41414e-06
1.41005e-06
1.40684e-06
1.40429e-06
1.40223e-06
1.4005e-06
1.39901e-06
1.39766e-06
1.39641e-06
1.3952e-06
1.39404e-06
1.3929e-06
1.39178e-06
5.82691e-06
5.72322e-06
5.62157e-06
5.52177e-06
5.42374e-06
5.32748e-06
5.23295e-06
5.14011e-06
5.04892e-06
4.95935e-06
4.87139e-06
4.785e-06
4.70016e-06
4.6168e-06
4.53487e-06
4.45433e-06
4.37515e-06
4.2973e-06
4.22072e-06
4.14536e-06
4.0712e-06
3.99822e-06
3.92637e-06
3.85562e-06
3.78595e-06
3.71733e-06
3.64972e-06
3.5831e-06
3.51745e-06
3.45276e-06
3.38903e-06
3.32624e-06
3.26436e-06
3.20339e-06
3.14331e-06
3.08412e-06
3.02581e-06
2.96836e-06
2.91178e-06
2.85605e-06
2.80119e-06
2.7472e-06
2.69407e-06
2.64181e-06
2.59042e-06
2.53991e-06
2.49027e-06
2.44153e-06
2.39367e-06
2.34671e-06
2.30067e-06
2.25556e-06
2.2114e-06
2.1682e-06
2.12598e-06
2.08475e-06
2.04453e-06
2.00534e-06
1.9672e-06
1.93013e-06
1.89415e-06
1.85928e-06
1.82555e-06
1.79299e-06
1.7616e-06
1.73141e-06
1.70242e-06
1.67454e-06
1.64721e-06
1.61998e-06
1.59341e-06
1.56823e-06
1.54472e-06
1.52301e-06
1.50321e-06
1.4854e-06
1.46962e-06
1.45587e-06
1.44411e-06
1.43424e-06
1.42612e-06
1.41955e-06
1.41431e-06
1.41019e-06
1.40694e-06
1.40437e-06
1.40229e-06
1.40056e-06
1.39906e-06
1.39771e-06
1.39645e-06
1.39524e-06
1.39407e-06
1.39293e-06
1.39181e-06
5.8424e-06
5.73825e-06
5.63617e-06
5.53597e-06
5.43758e-06
5.34097e-06
5.24611e-06
5.15296e-06
5.06144e-06
4.97152e-06
4.88318e-06
4.79643e-06
4.71124e-06
4.62758e-06
4.54538e-06
4.4646e-06
4.3852e-06
4.30713e-06
4.23034e-06
4.15478e-06
4.08042e-06
4.00722e-06
3.93516e-06
3.8642e-06
3.79431e-06
3.72546e-06
3.65763e-06
3.59081e-06
3.52499e-06
3.46014e-06
3.39624e-06
3.33329e-06
3.27125e-06
3.21012e-06
3.14988e-06
3.09052e-06
3.03204e-06
2.97441e-06
2.91765e-06
2.86175e-06
2.80673e-06
2.75257e-06
2.69928e-06
2.64687e-06
2.59533e-06
2.54466e-06
2.49487e-06
2.44597e-06
2.39797e-06
2.35087e-06
2.30469e-06
2.25944e-06
2.21514e-06
2.17179e-06
2.12942e-06
2.08804e-06
2.04766e-06
2.00832e-06
1.97003e-06
1.93281e-06
1.89668e-06
1.86168e-06
1.82781e-06
1.79511e-06
1.7636e-06
1.73328e-06
1.70416e-06
1.67616e-06
1.64875e-06
1.62147e-06
1.5948e-06
1.56949e-06
1.54585e-06
1.52402e-06
1.50409e-06
1.48615e-06
1.47025e-06
1.45639e-06
1.44454e-06
1.43458e-06
1.42638e-06
1.41975e-06
1.41447e-06
1.41031e-06
1.40704e-06
1.40445e-06
1.40236e-06
1.40062e-06
1.39911e-06
1.39775e-06
1.39648e-06
1.39528e-06
1.3941e-06
1.39296e-06
1.39183e-06
5.85567e-06
5.75122e-06
5.64891e-06
5.54848e-06
5.44978e-06
5.35276e-06
5.25746e-06
5.16389e-06
5.07203e-06
4.98185e-06
4.89332e-06
4.80639e-06
4.72102e-06
4.63713e-06
4.55469e-06
4.47366e-06
4.394e-06
4.31569e-06
4.23866e-06
4.16287e-06
4.08829e-06
4.01487e-06
3.94261e-06
3.87148e-06
3.80145e-06
3.73247e-06
3.6645e-06
3.59752e-06
3.53153e-06
3.46651e-06
3.40245e-06
3.33933e-06
3.27713e-06
3.21583e-06
3.15543e-06
3.09592e-06
3.03729e-06
2.97954e-06
2.92266e-06
2.86666e-06
2.81152e-06
2.75724e-06
2.70381e-06
2.65125e-06
2.59956e-06
2.54874e-06
2.49882e-06
2.44979e-06
2.40166e-06
2.35443e-06
2.30812e-06
2.26274e-06
2.21831e-06
2.17484e-06
2.13233e-06
2.09082e-06
2.05033e-06
2.01087e-06
1.97246e-06
1.93513e-06
1.89889e-06
1.86377e-06
1.82978e-06
1.79696e-06
1.76533e-06
1.7349e-06
1.70567e-06
1.67756e-06
1.65009e-06
1.62276e-06
1.59601e-06
1.57059e-06
1.54684e-06
1.52489e-06
1.50485e-06
1.4868e-06
1.4708e-06
1.45685e-06
1.44491e-06
1.43488e-06
1.42662e-06
1.41993e-06
1.41461e-06
1.41042e-06
1.40713e-06
1.40452e-06
1.40242e-06
1.40066e-06
1.39915e-06
1.39779e-06
1.39652e-06
1.39531e-06
1.39413e-06
1.39298e-06
1.39186e-06
5.867e-06
5.7623e-06
5.65971e-06
5.55897e-06
5.45996e-06
5.36267e-06
5.26712e-06
5.1733e-06
5.08119e-06
4.99077e-06
4.90202e-06
4.81487e-06
4.72927e-06
4.64518e-06
4.56254e-06
4.48131e-06
4.40144e-06
4.32288e-06
4.24561e-06
4.16962e-06
4.09486e-06
4.02129e-06
3.94888e-06
3.87759e-06
3.80738e-06
3.73824e-06
3.67013e-06
3.60302e-06
3.5369e-06
3.47175e-06
3.40756e-06
3.34432e-06
3.28199e-06
3.22056e-06
3.16003e-06
3.10039e-06
3.04163e-06
2.98376e-06
2.92677e-06
2.87065e-06
2.8154e-06
2.76101e-06
2.70749e-06
2.65484e-06
2.60306e-06
2.55216e-06
2.50214e-06
2.453e-06
2.40476e-06
2.35743e-06
2.31103e-06
2.26555e-06
2.22101e-06
2.17742e-06
2.13482e-06
2.0932e-06
2.0526e-06
2.01304e-06
1.97452e-06
1.93708e-06
1.90073e-06
1.86551e-06
1.83142e-06
1.7985e-06
1.76677e-06
1.73625e-06
1.70693e-06
1.67874e-06
1.65121e-06
1.62385e-06
1.59703e-06
1.57152e-06
1.54767e-06
1.52562e-06
1.50549e-06
1.48735e-06
1.47127e-06
1.45724e-06
1.44522e-06
1.43513e-06
1.42681e-06
1.42009e-06
1.41473e-06
1.41051e-06
1.4072e-06
1.40458e-06
1.40246e-06
1.40071e-06
1.39919e-06
1.39782e-06
1.39655e-06
1.39533e-06
1.39416e-06
1.393e-06
1.39188e-06
5.87586e-06
5.77086e-06
5.66806e-06
5.56716e-06
5.46802e-06
5.37058e-06
5.27487e-06
5.1809e-06
5.08864e-06
4.99804e-06
4.90908e-06
4.82171e-06
4.73591e-06
4.65165e-06
4.56885e-06
4.48746e-06
4.40743e-06
4.32872e-06
4.25129e-06
4.17511e-06
4.10017e-06
4.02644e-06
3.95388e-06
3.88246e-06
3.81213e-06
3.74287e-06
3.67465e-06
3.60745e-06
3.54123e-06
3.47598e-06
3.41167e-06
3.34831e-06
3.28589e-06
3.22438e-06
3.16379e-06
3.10407e-06
3.04523e-06
2.98727e-06
2.93017e-06
2.87394e-06
2.81857e-06
2.76408e-06
2.71045e-06
2.6577e-06
2.60583e-06
2.55484e-06
2.50474e-06
2.45553e-06
2.40721e-06
2.3598e-06
2.3133e-06
2.26773e-06
2.22311e-06
2.17945e-06
2.13677e-06
2.09509e-06
2.05441e-06
2.01477e-06
1.97618e-06
1.93866e-06
1.90223e-06
1.86693e-06
1.83276e-06
1.79975e-06
1.76794e-06
1.73734e-06
1.70795e-06
1.67969e-06
1.65211e-06
1.62472e-06
1.59785e-06
1.57226e-06
1.54833e-06
1.52621e-06
1.506e-06
1.4878e-06
1.47164e-06
1.45755e-06
1.44547e-06
1.43533e-06
1.42697e-06
1.42021e-06
1.41483e-06
1.41059e-06
1.40726e-06
1.40462e-06
1.4025e-06
1.40074e-06
1.39922e-06
1.39785e-06
1.39657e-06
1.39535e-06
1.39418e-06
1.39302e-06
1.39189e-06
5.88259e-06
5.77738e-06
5.67438e-06
5.57329e-06
5.47401e-06
5.37651e-06
5.28073e-06
5.18666e-06
5.09426e-06
5.0035e-06
4.91434e-06
4.82678e-06
4.74081e-06
4.65641e-06
4.57349e-06
4.49198e-06
4.41184e-06
4.33303e-06
4.25553e-06
4.17929e-06
4.10429e-06
4.03046e-06
3.95777e-06
3.88619e-06
3.81572e-06
3.74633e-06
3.678e-06
3.6107e-06
3.54441e-06
3.47909e-06
3.41473e-06
3.35131e-06
3.28882e-06
3.22724e-06
3.16657e-06
3.10679e-06
3.04788e-06
2.98985e-06
2.9327e-06
2.87642e-06
2.821e-06
2.76644e-06
2.71275e-06
2.65993e-06
2.60798e-06
2.55692e-06
2.50674e-06
2.45745e-06
2.40906e-06
2.36158e-06
2.31502e-06
2.26939e-06
2.22471e-06
2.18099e-06
2.13825e-06
2.0965e-06
2.05576e-06
2.01605e-06
1.9774e-06
1.93982e-06
1.90333e-06
1.86797e-06
1.83375e-06
1.8007e-06
1.76883e-06
1.73817e-06
1.70872e-06
1.68041e-06
1.6528e-06
1.62538e-06
1.59847e-06
1.57282e-06
1.54883e-06
1.52666e-06
1.50639e-06
1.48813e-06
1.47192e-06
1.45778e-06
1.44566e-06
1.43548e-06
1.42709e-06
1.42031e-06
1.4149e-06
1.41064e-06
1.4073e-06
1.40466e-06
1.40253e-06
1.40076e-06
1.39924e-06
1.39787e-06
1.39659e-06
1.39537e-06
1.39419e-06
1.39304e-06
1.3919e-06
5.88708e-06
5.78173e-06
5.67863e-06
5.57748e-06
5.47813e-06
5.38049e-06
5.28455e-06
5.19029e-06
5.09774e-06
5.00687e-06
4.91766e-06
4.83008e-06
4.74406e-06
4.65958e-06
4.57658e-06
4.49499e-06
4.41476e-06
4.33589e-06
4.25832e-06
4.18202e-06
4.10694e-06
4.03305e-06
3.96033e-06
3.88874e-06
3.81824e-06
3.74881e-06
3.68041e-06
3.61303e-06
3.54665e-06
3.48125e-06
3.41681e-06
3.35333e-06
3.29077e-06
3.22914e-06
3.16841e-06
3.10857e-06
3.04962e-06
2.99155e-06
2.93434e-06
2.87799e-06
2.82252e-06
2.76792e-06
2.7142e-06
2.66135e-06
2.60938e-06
2.55829e-06
2.50807e-06
2.45874e-06
2.4103e-06
2.36277e-06
2.31616e-06
2.2705e-06
2.22578e-06
2.18202e-06
2.13923e-06
2.09744e-06
2.05666e-06
2.01691e-06
1.97821e-06
1.94059e-06
1.90407e-06
1.86866e-06
1.8344e-06
1.80131e-06
1.76941e-06
1.73871e-06
1.70923e-06
1.68089e-06
1.65325e-06
1.62582e-06
1.59888e-06
1.57319e-06
1.54917e-06
1.52695e-06
1.50665e-06
1.48836e-06
1.47211e-06
1.45794e-06
1.4458e-06
1.43559e-06
1.42718e-06
1.42037e-06
1.41495e-06
1.41068e-06
1.40733e-06
1.40469e-06
1.40256e-06
1.40079e-06
1.39926e-06
1.39788e-06
1.3966e-06
1.39539e-06
1.3942e-06
1.39305e-06
1.39192e-06
5.88949e-06
5.78401e-06
5.68081e-06
5.57953e-06
5.48001e-06
5.38221e-06
5.28615e-06
5.19186e-06
5.09931e-06
5.00847e-06
4.9193e-06
4.83172e-06
4.74569e-06
4.66117e-06
4.57812e-06
4.4965e-06
4.41623e-06
4.3373e-06
4.25967e-06
4.18334e-06
4.10825e-06
4.03437e-06
3.96163e-06
3.89e-06
3.81946e-06
3.74999e-06
3.68156e-06
3.61416e-06
3.54775e-06
3.48231e-06
3.41784e-06
3.35432e-06
3.29174e-06
3.23006e-06
3.16929e-06
3.10941e-06
3.05042e-06
2.99231e-06
2.93509e-06
2.87874e-06
2.82326e-06
2.76866e-06
2.71492e-06
2.66205e-06
2.61005e-06
2.55893e-06
2.5087e-06
2.45936e-06
2.41091e-06
2.36338e-06
2.31676e-06
2.27107e-06
2.22633e-06
2.18254e-06
2.13973e-06
2.09792e-06
2.05712e-06
2.01735e-06
1.97864e-06
1.941e-06
1.90445e-06
1.86903e-06
1.83475e-06
1.80164e-06
1.76972e-06
1.739e-06
1.7095e-06