/*--------------------------------*- C++ -*----------------------------------*\
  =========                 |
  \\      /  F ield         | OpenFOAM: The Open Source CFD Toolbox
   \\    /   O peration     | Website:  https://openfoam.org
    \\  /    A nd           | Version:  7
     \\/     M anipulation  |
\*---------------------------------------------------------------------------*/
FoamFile
{
    version     2.0;
    format      ascii;
    class       volScalarField;
    location    "80000";
    object      nut;
}
// * * * * * * * * * * * * * * * * * * * * * * * * * * * * * * * * * * * * * //

dimensions      [0 2 -1 0 0 0 0];

internalField   nonuniform List<scalar> 
4782
(
2.0045e-06
1.92471e-06
1.84541e-06
1.76668e-06
1.68859e-06
1.61124e-06
1.53471e-06
1.45907e-06
1.38441e-06
1.31082e-06
4.93106e-06
4.90589e-06
4.87704e-06
4.84479e-06
4.80942e-06
4.77107e-06
4.72998e-06
4.68622e-06
4.64001e-06
4.59145e-06
4.54057e-06
4.48747e-06
4.43234e-06
4.37522e-06
4.31628e-06
4.25561e-06
4.1933e-06
4.12938e-06
4.06395e-06
3.99712e-06
3.92888e-06
3.85933e-06
3.78859e-06
3.71675e-06
3.64388e-06
3.57003e-06
3.49525e-06
3.41957e-06
3.34311e-06
3.2659e-06
3.18799e-06
3.10945e-06
3.03035e-06
2.9508e-06
2.87085e-06
2.79057e-06
2.71002e-06
2.62928e-06
2.54843e-06
2.46749e-06
2.38655e-06
2.3057e-06
2.225e-06
2.14452e-06
2.06435e-06
1.98454e-06
1.90517e-06
1.8263e-06
1.74801e-06
1.6704e-06
1.59354e-06
1.51751e-06
1.4424e-06
1.36829e-06
1.29524e-06
4.92181e-06
4.8952e-06
4.86502e-06
4.83163e-06
4.79525e-06
4.75597e-06
4.71404e-06
4.66957e-06
4.62262e-06
4.57327e-06
4.5217e-06
4.46797e-06
4.41226e-06
4.35463e-06
4.29521e-06
4.23404e-06
4.17126e-06
4.10691e-06
4.04112e-06
3.97396e-06
3.90546e-06
3.83574e-06
3.76489e-06
3.69296e-06
3.61997e-06
3.54599e-06
3.47111e-06
3.39537e-06
3.31882e-06
3.24155e-06
3.16365e-06
3.08518e-06
3.00619e-06
2.92678e-06
2.84701e-06
2.76692e-06
2.68658e-06
2.60608e-06
2.52548e-06
2.44483e-06
2.3642e-06
2.28365e-06
2.20327e-06
2.12313e-06
2.04332e-06
1.96389e-06
1.88493e-06
1.80651e-06
1.72871e-06
1.6516e-06
1.57524e-06
1.49974e-06
1.42515e-06
1.35158e-06
1.2791e-06
4.91119e-06
4.88318e-06
4.85179e-06
4.81726e-06
4.77979e-06
4.73955e-06
4.69669e-06
4.65133e-06
4.60352e-06
4.55346e-06
4.50128e-06
4.44708e-06
4.39093e-06
4.33285e-06
4.27294e-06
4.2113e-06
4.1481e-06
4.08342e-06
4.01733e-06
3.94985e-06
3.88105e-06
3.81105e-06
3.73995e-06
3.66779e-06
3.59466e-06
3.52058e-06
3.44564e-06
3.36988e-06
3.29338e-06
3.21619e-06
3.13836e-06
3.06e-06
2.98115e-06
2.9019e-06
2.82229e-06
2.74241e-06
2.6623e-06
2.58206e-06
2.50173e-06
2.42139e-06
2.34113e-06
2.26097e-06
2.18099e-06
2.10129e-06
2.02191e-06
1.94293e-06
1.86443e-06
1.78648e-06
1.70915e-06
1.63252e-06
1.55667e-06
1.48167e-06
1.40763e-06
1.33462e-06
1.26272e-06
4.89592e-06
4.86687e-06
4.83456e-06
4.79911e-06
4.76069e-06
4.71948e-06
4.67573e-06
4.62959e-06
4.5811e-06
4.53045e-06
4.47773e-06
4.42302e-06
4.36634e-06
4.30778e-06
4.24745e-06
4.1855e-06
4.12202e-06
4.05705e-06
3.99072e-06
3.92309e-06
3.85419e-06
3.78413e-06
3.71294e-06
3.64067e-06
3.56744e-06
3.49327e-06
3.41828e-06
3.34249e-06
3.26602e-06
3.18892e-06
3.11126e-06
3.03311e-06
2.95447e-06
2.87544e-06
2.79608e-06
2.71644e-06
2.6366e-06
2.55664e-06
2.47664e-06
2.39667e-06
2.31679e-06
2.23703e-06
2.15748e-06
2.07819e-06
1.99924e-06
1.92073e-06
1.84272e-06
1.76529e-06
1.6885e-06
1.61243e-06
1.53717e-06
1.46277e-06
1.38934e-06
1.31695e-06
1.24568e-06
4.8955e-06
4.8666e-06
4.8343e-06
4.79883e-06
4.7605e-06
4.71947e-06
4.67582e-06
4.62974e-06
4.58129e-06
4.53057e-06
4.47772e-06
4.4229e-06
4.36618e-06
4.30768e-06
4.24743e-06
4.18551e-06
4.12201e-06
4.05706e-06
3.99071e-06
3.92305e-06
3.85413e-06
3.78405e-06
3.71284e-06
3.6406e-06
3.56737e-06
3.49323e-06
3.41824e-06
3.34248e-06
3.26603e-06
3.18891e-06
3.11122e-06
3.03301e-06
2.95433e-06
2.87527e-06
2.79588e-06
2.71625e-06
2.63644e-06
2.5565e-06
2.47651e-06
2.39652e-06
2.31661e-06
2.23686e-06
2.15731e-06
2.07803e-06
1.99911e-06
1.92061e-06
1.84261e-06
1.76517e-06
1.6884e-06
1.61235e-06
1.53709e-06
1.46271e-06
1.38929e-06
1.31691e-06
1.24565e-06
4.90997e-06
4.88231e-06
4.85126e-06
4.81693e-06
4.77962e-06
4.73951e-06
4.69665e-06
4.65121e-06
4.60338e-06
4.55322e-06
4.50087e-06
4.44644e-06
4.39008e-06
4.33193e-06
4.27207e-06
4.21056e-06
4.14748e-06
4.08285e-06
4.01679e-06
3.94935e-06
3.88064e-06
3.81074e-06
3.73968e-06
3.66757e-06
3.59447e-06
3.5204e-06
3.44543e-06
3.36967e-06
3.29316e-06
3.21599e-06
3.13818e-06
3.0598e-06
2.98091e-06
2.9016e-06
2.82196e-06
2.74207e-06
2.66197e-06
2.58172e-06
2.50136e-06
2.42101e-06
2.34073e-06
2.26058e-06
2.18064e-06
2.10094e-06
2.02158e-06
1.94262e-06
1.86412e-06
1.78618e-06
1.70887e-06
1.63227e-06
1.55645e-06
1.48149e-06
1.40749e-06
1.33452e-06
1.26264e-06
1.19195e-06
1.12253e-06
1.05446e-06
9.8784e-07
4.92016e-06
4.89378e-06
4.86393e-06
4.83072e-06
4.79434e-06
4.75509e-06
4.71312e-06
4.66851e-06
4.62146e-06
4.57203e-06
4.52041e-06
4.46666e-06
4.41093e-06
4.35334e-06
4.29397e-06
4.23289e-06
4.17014e-06
4.10583e-06
4.04008e-06
3.97294e-06
3.9045e-06
3.83484e-06
3.76402e-06
3.69211e-06
3.61916e-06
3.5452e-06
3.47029e-06
3.39456e-06
3.31809e-06
3.24092e-06
3.16309e-06
3.08467e-06
3.00575e-06
2.92636e-06
2.84659e-06
2.76653e-06
2.68625e-06
2.60578e-06
2.5252e-06
2.44458e-06
2.36399e-06
2.2835e-06
2.20316e-06
2.12307e-06
2.04329e-06
1.96389e-06
1.88496e-06
1.80655e-06
1.72874e-06
1.65163e-06
1.57528e-06
1.49978e-06
1.42521e-06
1.35164e-06
1.27917e-06
1.20786e-06
1.13781e-06
1.06912e-06
1.00186e-06
9.36128e-07
4.92861e-06
4.90376e-06
4.87534e-06
4.84346e-06
4.80829e-06
4.77002e-06
4.72886e-06
4.68498e-06
4.63864e-06
4.59e-06
4.53916e-06
4.48625e-06
4.43132e-06
4.37439e-06
4.31555e-06
4.25488e-06
4.19251e-06
4.12858e-06
4.06318e-06
3.99633e-06
3.92817e-06
3.85875e-06
3.78808e-06
3.71623e-06
3.64333e-06
3.5694e-06
3.49455e-06
3.41886e-06
3.34234e-06
3.26507e-06
3.18716e-06
3.10867e-06
3.02967e-06
2.95019e-06
2.87031e-06
2.79008e-06
2.7096e-06
2.6289e-06
2.54806e-06
2.46717e-06
2.3863e-06
2.30549e-06
2.22482e-06
2.14438e-06
2.06422e-06
1.98443e-06
1.9051e-06
1.82626e-06
1.74801e-06
1.67042e-06
1.59356e-06
1.51752e-06
1.44239e-06
1.36826e-06
1.29521e-06
1.22331e-06
1.15267e-06
1.08337e-06
1.01549e-06
9.49131e-07
8.84377e-07
8.21319e-07
7.60044e-07
7.00629e-07
6.43151e-07
5.87637e-07
5.33901e-07
4.79621e-07
4.23977e-07
3.71015e-07
3.21031e-07
2.74316e-07
2.31149e-07
1.91776e-07
1.56399e-07
1.25147e-07
9.80658e-08
7.50978e-08
5.60768e-08
4.07319e-08
2.87017e-08
1.95588e-08
1.28414e-08
8.08508e-09
4.85224e-09
2.75365e-09
1.46158e-09
7.1447e-10
3.14498e-10
1.20466e-10
3.80036e-11
8.97625e-12
1.32197e-12
8.12184e-14
7.48771e-16
4.93596e-06
4.91252e-06
4.88533e-06
4.85457e-06
4.82054e-06
4.78342e-06
4.74331e-06
4.70039e-06
4.65492e-06
4.60707e-06
4.55695e-06
4.50466e-06
4.45022e-06
4.3938e-06
4.33548e-06
4.27531e-06
4.21343e-06
4.14995e-06
4.08491e-06
4.01842e-06
3.95057e-06
3.88141e-06
3.81096e-06
3.73928e-06
3.6665e-06
3.59265e-06
3.51786e-06
3.44214e-06
3.36561e-06
3.28834e-06
3.21039e-06
3.13179e-06
3.05264e-06
2.97301e-06
2.89298e-06
2.81259e-06
2.73192e-06
2.65105e-06
2.57004e-06
2.48895e-06
2.40782e-06
2.32674e-06
2.24576e-06
2.16496e-06
2.08444e-06
2.00426e-06
1.92451e-06
1.84524e-06
1.76655e-06
1.68851e-06
1.61118e-06
1.53466e-06
1.45903e-06
1.38437e-06
1.31079e-06
1.23835e-06
1.16714e-06
1.09727e-06
1.02882e-06
9.61872e-07
8.96518e-07
8.32847e-07
7.70949e-07
7.10915e-07
6.52825e-07
5.96718e-07
5.42472e-07
4.88547e-07
4.32239e-07
3.78592e-07
3.27905e-07
2.80475e-07
2.3659e-07
1.96507e-07
1.60437e-07
1.28523e-07
1.00823e-07
7.72923e-08
5.77738e-08
4.20035e-08
2.9622e-08
2.02001e-08
1.32699e-08
8.35841e-09
5.0177e-09
2.84794e-09
1.51163e-09
7.38823e-10
3.25115e-10
1.24468e-10
3.92338e-11
9.25462e-12
1.35985e-12
8.31663e-14
7.59343e-16
4.94267e-06
4.92063e-06
4.89477e-06
4.86524e-06
4.83233e-06
4.79619e-06
4.75707e-06
4.71509e-06
4.6705e-06
4.62346e-06
4.57409e-06
4.52244e-06
4.46862e-06
4.4128e-06
4.35498e-06
4.29527e-06
4.23381e-06
4.17073e-06
4.10609e-06
4.03992e-06
3.97232e-06
3.90334e-06
3.83303e-06
3.76153e-06
3.68887e-06
3.61518e-06
3.54051e-06
3.46491e-06
3.38843e-06
3.31116e-06
3.23319e-06
3.1546e-06
3.0754e-06
2.99565e-06
2.91544e-06
2.83483e-06
2.75392e-06
2.67276e-06
2.59145e-06
2.51005e-06
2.42862e-06
2.34722e-06
2.26593e-06
2.1848e-06
2.10394e-06
2.0234e-06
1.94325e-06
1.86356e-06
1.78441e-06
1.70589e-06
1.62809e-06
1.55109e-06
1.47497e-06
1.39982e-06
1.32572e-06
1.25278e-06
1.18106e-06
1.11066e-06
1.04167e-06
9.74164e-07
9.08244e-07
8.43999e-07
7.81521e-07
7.20905e-07
6.62229e-07
6.05554e-07
5.50827e-07
4.97261e-07
4.40312e-07
3.86004e-07
3.34638e-07
2.86518e-07
2.41937e-07
2.01164e-07
1.64419e-07
1.31858e-07
1.03552e-07
7.94675e-08
5.94587e-08
4.32677e-08
3.05381e-08
2.08391e-08
1.36973e-08
8.63123e-09
5.18294e-09
2.94215e-09
1.56164e-09
7.63158e-10
3.35722e-10
1.28464e-10
4.04615e-11
9.5321e-12
1.39753e-12
8.50962e-14
7.69736e-16
4.94854e-06
4.92802e-06
4.90349e-06
4.87518e-06
4.84332e-06
4.80826e-06
4.77011e-06
4.72913e-06
4.68539e-06
4.63903e-06
4.5902e-06
4.53911e-06
4.4859e-06
4.43066e-06
4.37347e-06
4.31432e-06
4.2533e-06
4.19051e-06
4.1261e-06
4.06018e-06
3.99282e-06
3.92408e-06
3.85401e-06
3.78272e-06
3.71029e-06
3.63674e-06
3.56218e-06
3.48665e-06
3.41021e-06
3.33293e-06
3.25492e-06
3.17623e-06
3.09696e-06
3.01713e-06
2.93685e-06
2.85615e-06
2.77509e-06
2.69375e-06
2.61221e-06
2.53055e-06
2.44883e-06
2.36712e-06
2.2855e-06
2.20405e-06
2.12283e-06
2.04191e-06
1.96136e-06
1.88125e-06
1.80169e-06
1.72274e-06
1.6445e-06
1.56704e-06
1.49046e-06
1.41483e-06
1.34024e-06
1.26678e-06
1.19454e-06
1.12361e-06
1.05408e-06
9.86045e-07
9.19584e-07
8.5479e-07
7.91756e-07
7.30575e-07
6.71332e-07
6.14095e-07
5.58856e-07
5.05222e-07
4.48105e-07
3.93165e-07
3.41147e-07
2.92363e-07
2.47115e-07
2.05679e-07
1.68284e-07
1.35101e-07
1.0621e-07
8.15901e-08
6.11055e-08
4.45055e-08
3.14365e-08
2.14666e-08
1.41175e-08
8.89971e-09
5.34565e-09
3.03496e-09
1.61091e-09
7.87136e-10
3.46172e-10
1.32399e-10
4.16693e-11
9.80468e-12
1.43444e-12
8.69759e-14
7.79697e-16
4.95316e-06
4.93389e-06
4.91061e-06
4.88348e-06
4.85283e-06
4.81877e-06
4.78153e-06
4.74139e-06
4.69853e-06
4.6531e-06
4.60519e-06
4.55485e-06
4.5022e-06
4.44744e-06
4.39068e-06
4.33202e-06
4.27147e-06
4.20919e-06
4.14527e-06
4.07973e-06
4.01265e-06
3.94415e-06
3.87428e-06
3.8031e-06
3.7307e-06
3.6572e-06
3.58268e-06
3.50715e-06
3.43069e-06
3.35341e-06
3.27537e-06
3.19663e-06
3.11726e-06
3.03733e-06
2.95694e-06
2.87614e-06
2.79499e-06
2.71357e-06
2.6319e-06
2.55006e-06
2.46815e-06
2.38621e-06
2.30432e-06
2.22255e-06
2.14098e-06
2.0597e-06
1.97878e-06
1.8983e-06
1.81834e-06
1.73898e-06
1.66032e-06
1.58244e-06
1.50541e-06
1.42932e-06
1.35426e-06
1.28031e-06
1.20758e-06
1.13615e-06
1.0661e-06
9.97535e-07
9.30544e-07
8.65215e-07
8.01641e-07
7.39916e-07
6.80129e-07
6.22356e-07
5.6659e-07
5.12495e-07
4.55658e-07
4.00115e-07
3.47476e-07
2.98056e-07
2.52166e-07
2.10089e-07
1.72066e-07
1.38278e-07
1.08818e-07
8.36758e-08
6.27262e-08
4.57252e-08
3.23228e-08
2.20863e-08
1.45328e-08
9.16524e-09
5.50667e-09
3.12683e-09
1.6597e-09
8.10878e-10
3.56516e-10
1.36293e-10
4.28638e-11
1.0074e-11
1.47084e-12
8.88231e-14
7.89423e-16
4.95673e-06
4.93866e-06
4.91651e-06
4.89053e-06
4.86096e-06
4.82803e-06
4.79194e-06
4.75287e-06
4.71098e-06
4.66642e-06
4.61923e-06
4.56955e-06
4.51761e-06
4.46351e-06
4.40729e-06
4.34905e-06
4.28888e-06
4.22689e-06
4.16323e-06
4.09794e-06
4.03115e-06
3.96286e-06
3.89316e-06
3.82214e-06
3.74993e-06
3.67662e-06
3.60226e-06
3.52688e-06
3.45054e-06
3.37334e-06
3.29533e-06
3.21657e-06
3.13713e-06
3.05712e-06
2.97658e-06
2.89561e-06
2.81429e-06
2.73267e-06
2.65079e-06
2.5687e-06
2.4865e-06
2.40428e-06
2.32212e-06
2.24008e-06
2.15822e-06
2.07662e-06
1.99537e-06
1.91455e-06
1.83424e-06
1.75453e-06
1.67549e-06
1.5972e-06
1.51974e-06
1.44322e-06
1.36771e-06
1.29331e-06
1.22011e-06
1.14819e-06
1.07765e-06
1.00858e-06
9.41073e-07
8.75232e-07
8.11143e-07
7.48905e-07
6.88603e-07
6.30311e-07
5.74038e-07
5.19497e-07
4.62933e-07
4.06812e-07
3.53579e-07
3.03555e-07
2.5705e-07
2.1436e-07
1.75735e-07
1.41365e-07
1.11355e-07
8.57083e-08
6.43074e-08
4.69168e-08
3.31898e-08
2.26932e-08
1.49399e-08
9.42575e-09
5.66473e-09
3.21705e-09
1.70763e-09
8.34198e-10
3.66676e-10
1.40116e-10
4.40358e-11
1.03379e-11
1.50645e-12
9.06229e-14
7.98818e-16
4.95963e-06
4.94295e-06
4.92213e-06
4.89742e-06
4.86903e-06
4.83721e-06
4.80214e-06
4.76399e-06
4.72284e-06
4.67885e-06
4.63226e-06
4.58323e-06
4.5318e-06
4.47807e-06
4.42216e-06
4.36427e-06
4.30451e-06
4.24298e-06
4.17973e-06
4.11478e-06
4.04821e-06
3.98017e-06
3.91071e-06
3.83996e-06
3.76798e-06
3.69482e-06
3.62056e-06
3.54525e-06
3.46895e-06
3.39178e-06
3.31382e-06
3.23513e-06
3.15575e-06
3.07576e-06
2.99522e-06
2.91418e-06
2.83276e-06
2.75098e-06
2.66893e-06
2.58666e-06
2.50427e-06
2.42184e-06
2.33943e-06
2.25712e-06
2.17499e-06
2.09314e-06
2.01161e-06
1.93049e-06
1.84985e-06
1.76977e-06
1.69035e-06
1.61167e-06
1.53382e-06
1.45689e-06
1.38095e-06
1.30609e-06
1.23241e-06
1.16e-06
1.08895e-06
1.01937e-06
9.51357e-07
8.84998e-07
8.20396e-07
7.57645e-07
6.9683e-07
6.38029e-07
5.81264e-07
5.26298e-07
4.69997e-07
4.13319e-07
3.59511e-07
3.08896e-07
2.61796e-07
2.18512e-07
1.79303e-07
1.44369e-07
1.13827e-07
8.76898e-08
6.58511e-08
4.80815e-08
3.40381e-08
2.32876e-08
1.53389e-08
9.68126e-09
5.81983e-09
3.30561e-09
1.75467e-09
8.57094e-10
3.76649e-10
1.43867e-10
4.51854e-11
1.05966e-11
1.54129e-12
9.23795e-14
8.07954e-16
4.96263e-06
4.94733e-06
4.92775e-06
4.90419e-06
4.87691e-06
4.84602e-06
4.81182e-06
4.7744e-06
4.73391e-06
4.69052e-06
4.64441e-06
4.59583e-06
4.5449e-06
4.49167e-06
4.43624e-06
4.37881e-06
4.31948e-06
4.25833e-06
4.19538e-06
4.13069e-06
4.06435e-06
3.99646e-06
3.92718e-06
3.85659e-06
3.78477e-06
3.71177e-06
3.63768e-06
3.5625e-06
3.48636e-06
3.40928e-06
3.33137e-06
3.25267e-06
3.17323e-06
3.09314e-06
3.0125e-06
2.93136e-06
2.84981e-06
2.7679e-06
2.68571e-06
2.60331e-06
2.52076e-06
2.43816e-06
2.35555e-06
2.27302e-06
2.19067e-06
2.10856e-06
2.02675e-06
1.94532e-06
1.86435e-06
1.78395e-06
1.70418e-06
1.62513e-06
1.54689e-06
1.46953e-06
1.39316e-06
1.31787e-06
1.24376e-06
1.17092e-06
1.09944e-06
1.02942e-06
9.60954e-07
8.9413e-07
8.29057e-07
7.65832e-07
7.0454e-07
6.45265e-07
5.88044e-07
5.32685e-07
4.76647e-07
4.19452e-07
3.65109e-07
3.13949e-07
2.66296e-07
2.22455e-07
1.82696e-07
1.47231e-07
1.16186e-07
8.95849e-08
6.73296e-08
4.91985e-08
3.48527e-08
2.3859e-08
1.57229e-08
9.92734e-09
5.96931e-09
3.39099e-09
1.80004e-09
8.79173e-10
3.86264e-10
1.47483e-10
4.62924e-11
1.08454e-11
1.57473e-12
9.40568e-14
8.16556e-16
4.96428e-06
4.95044e-06
4.93218e-06
4.90969e-06
4.88324e-06
4.85318e-06
4.81977e-06
4.78317e-06
4.74346e-06
4.70078e-06
4.65531e-06
4.6073e-06
4.55681e-06
4.50407e-06
4.44918e-06
4.39225e-06
4.33327e-06
4.27235e-06
4.20958e-06
4.14513e-06
4.07912e-06
4.0116e-06
3.94262e-06
3.87229e-06
3.80064e-06
3.72779e-06
3.65376e-06
3.57864e-06
3.50253e-06
3.42545e-06
3.34749e-06
3.26875e-06
3.18931e-06
3.10924e-06
3.02858e-06
2.94741e-06
2.86578e-06
2.78377e-06
2.70145e-06
2.61888e-06
2.53616e-06
2.45338e-06
2.37061e-06
2.28788e-06
2.20528e-06
2.12291e-06
2.04083e-06
1.95914e-06
1.87792e-06
1.79722e-06
1.71714e-06
1.63776e-06
1.55916e-06
1.48146e-06
1.40473e-06
1.32908e-06
1.25457e-06
1.18132e-06
1.10941e-06
1.03895e-06
9.70039e-07
9.02777e-07
8.37255e-07
7.73579e-07
7.11843e-07
6.52124e-07
5.94467e-07
5.38732e-07
4.82947e-07
4.25266e-07
3.70425e-07
3.18753e-07
2.70577e-07
2.26212e-07
1.85935e-07
1.49967e-07
1.18443e-07
9.13995e-08
6.87471e-08
5.02708e-08
3.56355e-08
2.44086e-08
1.60926e-08
1.01644e-08
6.11335e-09
3.4733e-09
1.84379e-09
9.00461e-10
3.95534e-10
1.50968e-10
4.73587e-11
1.10848e-11
1.60686e-12
9.56627e-14
8.24733e-16
4.96521e-06
4.95238e-06
4.93524e-06
4.91395e-06
4.88862e-06
4.85948e-06
4.82685e-06
4.79087e-06
4.75183e-06
4.7099e-06
4.66516e-06
4.61782e-06
4.56796e-06
4.51569e-06
4.46116e-06
4.40455e-06
4.3459e-06
4.28529e-06
4.22282e-06
4.15864e-06
4.09281e-06
4.02545e-06
3.95666e-06
3.88652e-06
3.81508e-06
3.74237e-06
3.6685e-06
3.59354e-06
3.51752e-06
3.44051e-06
3.36264e-06
3.28398e-06
3.2046e-06
3.12452e-06
3.04382e-06
2.9626e-06
2.8809e-06
2.79879e-06
2.71637e-06
2.6337e-06
2.55084e-06
2.46788e-06
2.38488e-06
2.30191e-06
2.21907e-06
2.13643e-06
2.05407e-06
1.97206e-06
1.89049e-06
1.80945e-06
1.72903e-06
1.64932e-06
1.5704e-06
1.49236e-06
1.41529e-06
1.33928e-06
1.26443e-06
1.19082e-06
1.11856e-06
1.04773e-06
9.78445e-07
9.10799e-07
8.44893e-07
7.80819e-07
7.18674e-07
6.58547e-07
6.00498e-07
5.44422e-07
4.88874e-07
4.30739e-07
3.75427e-07
3.23271e-07
2.74605e-07
2.2975e-07
1.88988e-07
1.52549e-07
1.20578e-07
9.31186e-08
7.00916e-08
5.12888e-08
3.63794e-08
2.49315e-08
1.64446e-08
1.03902e-08
6.25066e-09
3.55179e-09
1.88551e-09
9.20767e-10
4.04375e-10
1.5429e-10
4.83748e-11
1.13127e-11
1.63738e-12
9.71827e-14
8.32394e-16
4.9663e-06
4.95436e-06
4.93805e-06
4.91756e-06
4.8931e-06
4.8649e-06
4.83316e-06
4.79799e-06
4.75958e-06
4.71821e-06
4.67397e-06
4.62698e-06
4.57741e-06
4.52548e-06
4.47134e-06
4.41509e-06
4.35684e-06
4.29668e-06
4.23468e-06
4.17088e-06
4.10542e-06
4.03834e-06
3.96978e-06
3.89978e-06
3.82847e-06
3.75593e-06
3.6822e-06
3.60732e-06
3.53139e-06
3.45448e-06
3.37668e-06
3.29802e-06
3.21861e-06
3.13849e-06
3.05776e-06
2.97645e-06
2.89464e-06
2.81243e-06
2.72987e-06
2.64703e-06
2.56402e-06
2.4809e-06
2.39774e-06
2.31462e-06
2.23162e-06
2.14881e-06
2.06627e-06
1.98407e-06
1.90232e-06
1.82109e-06
1.74046e-06
1.66052e-06
1.58133e-06
1.50299e-06
1.4256e-06
1.34924e-06
1.27402e-06
1.20004e-06
1.12738e-06
1.05616e-06
9.86473e-07
9.18426e-07
8.52117e-07
7.87647e-07
7.25106e-07
6.64591e-07
6.06166e-07
5.49766e-07
4.94443e-07
4.35884e-07
3.80134e-07
3.27528e-07
2.78403e-07
2.33085e-07
1.91867e-07
1.54984e-07
1.22592e-07
9.47422e-08
7.13629e-08
5.22527e-08
3.70846e-08
2.54275e-08
1.67787e-08
1.06048e-08
6.38117e-09
3.62642e-09
1.92519e-09
9.40077e-10
4.12781e-10
1.57448e-10
4.93403e-11
1.15291e-11
1.66633e-12
9.86205e-14
8.39606e-16
4.96702e-06
4.95611e-06
4.94081e-06
4.92115e-06
4.89744e-06
4.86992e-06
4.83869e-06
4.80398e-06
4.7661e-06
4.72527e-06
4.68162e-06
4.63524e-06
4.58634e-06
4.53498e-06
4.48137e-06
4.42552e-06
4.36755e-06
4.30757e-06
4.24574e-06
4.18218e-06
4.11691e-06
4.05007e-06
3.98174e-06
3.91201e-06
3.84094e-06
3.76854e-06
3.69492e-06
3.62013e-06
3.54428e-06
3.4674e-06
3.38959e-06
3.31094e-06
3.2315e-06
3.15133e-06
3.0705e-06
2.98912e-06
2.90724e-06
2.82495e-06
2.74233e-06
2.65942e-06
2.57632e-06
2.49308e-06
2.40977e-06
2.32647e-06
2.24327e-06
2.16027e-06
2.07751e-06
1.99511e-06
1.91314e-06
1.83168e-06
1.7508e-06
1.67058e-06
1.59113e-06
1.51252e-06
1.43486e-06
1.35823e-06
1.28272e-06
1.20843e-06
1.13546e-06
1.06392e-06
9.93901e-07
9.25505e-07
8.58836e-07
7.94002e-07
7.31105e-07
6.70236e-07
6.11468e-07
5.54776e-07
4.99659e-07
4.40707e-07
3.84552e-07
3.31525e-07
2.81975e-07
2.36229e-07
1.94584e-07
1.57285e-07
1.24496e-07
9.62772e-08
7.25653e-08
5.31647e-08
3.77522e-08
2.58973e-08
1.70953e-08
1.08081e-08
6.5049e-09
3.69718e-09
1.96281e-09
9.58388e-10
4.20752e-10
1.60442e-10
5.02553e-11
1.17341e-11
1.69373e-12
9.99803e-14
8.46437e-16
4.9673e-06
4.95733e-06
4.94293e-06
4.92408e-06
4.90098e-06
4.874e-06
4.84341e-06
4.80942e-06
4.7722e-06
4.73184e-06
4.68851e-06
4.64249e-06
4.59392e-06
4.54296e-06
4.48972e-06
4.4343e-06
4.37679e-06
4.3173e-06
4.25586e-06
4.1926e-06
4.12759e-06
4.06098e-06
3.99284e-06
3.92326e-06
3.85233e-06
3.78011e-06
3.7066e-06
3.63188e-06
3.55603e-06
3.47913e-06
3.40131e-06
3.32264e-06
3.24317e-06
3.16298e-06
3.08212e-06
3.00069e-06
2.91877e-06
2.8364e-06
2.75368e-06
2.67068e-06
2.58748e-06
2.50411e-06
2.42068e-06
2.33724e-06
2.25389e-06
2.17069e-06
2.08773e-06
2.00511e-06
1.92291e-06
1.8412e-06
1.76008e-06
1.67962e-06
1.59991e-06
1.52105e-06
1.44313e-06
1.36622e-06
1.29043e-06
1.21586e-06
1.14262e-06
1.07079e-06
1.00047e-06
9.31786e-07
8.64826e-07
7.99688e-07
7.36479e-07
6.75291e-07
6.16205e-07
5.59214e-07
5.03913e-07
4.45022e-07
3.88502e-07
3.35104e-07
2.85172e-07
2.39043e-07
1.9702e-07
1.59351e-07
1.26209e-07
9.76612e-08
7.36513e-08
5.39899e-08
3.83572e-08
2.63237e-08
1.7383e-08
1.09931e-08
6.61753e-09
3.76162e-09
1.99708e-09
9.75071e-10
4.28014e-10
1.63169e-10
5.10878e-11
1.19203e-11
1.71855e-12
1.01203e-13
8.52422e-16
4.96731e-06
4.95811e-06
4.94447e-06
4.92647e-06
4.9042e-06
4.87799e-06
4.848e-06
4.81454e-06
4.77774e-06
4.73787e-06
4.69504e-06
4.64951e-06
4.60143e-06
4.55093e-06
4.49804e-06
4.44294e-06
4.38568e-06
4.32636e-06
4.26514e-06
4.20212e-06
4.13734e-06
4.07092e-06
4.00292e-06
3.93345e-06
3.86261e-06
3.7904e-06
3.71695e-06
3.64229e-06
3.56653e-06
3.48971e-06
3.41195e-06
3.33329e-06
3.25384e-06
3.17367e-06
3.09285e-06
3.01143e-06
2.92948e-06
2.84709e-06
2.7643e-06
2.68122e-06
2.59789e-06
2.51441e-06
2.43087e-06
2.34732e-06
2.26385e-06
2.18052e-06
2.09745e-06
2.01469e-06
1.93232e-06
1.85042e-06
1.76909e-06
1.68841e-06
1.60848e-06
1.52936e-06
1.45117e-06
1.37398e-06
1.2979e-06
1.22303e-06
1.14947e-06
1.07734e-06
1.00673e-06
9.37732e-07
8.70459e-07
8.05014e-07
7.41498e-07
6.80002e-07
6.20611e-07
5.63323e-07
5.07761e-07
4.49015e-07
3.92165e-07
3.38426e-07
2.88145e-07
2.41663e-07
1.99287e-07
1.61275e-07
1.27804e-07
9.89499e-08
7.4663e-08
5.47588e-08
3.89211e-08
2.67212e-08
1.76513e-08
1.11656e-08
6.7226e-09
3.82175e-09
2.02906e-09
9.90637e-10
4.34788e-10
1.65712e-10
5.18644e-11
1.20941e-11
1.7417e-12
1.02345e-13
8.58062e-16
4.96769e-06
4.95911e-06
4.94604e-06
4.92848e-06
4.90674e-06
4.88106e-06
4.85169e-06
4.81883e-06
4.78257e-06
4.74321e-06
4.70086e-06
4.65577e-06
4.60811e-06
4.55791e-06
4.50529e-06
4.45038e-06
4.39337e-06
4.33436e-06
4.27338e-06
4.2105e-06
4.1459e-06
4.07966e-06
4.01181e-06
3.94249e-06
3.87176e-06
3.79966e-06
3.7263e-06
3.65171e-06
3.57597e-06
3.49921e-06
3.42151e-06
3.34292e-06
3.26352e-06
3.18336e-06
3.10252e-06
3.0211e-06
2.93912e-06
2.85668e-06
2.77383e-06
2.69065e-06
2.60724e-06
2.52367e-06
2.44001e-06
2.35635e-06
2.27274e-06
2.18928e-06
2.10605e-06
2.02311e-06
1.94054e-06
1.85843e-06
1.77687e-06
1.69597e-06
1.6158e-06
1.53647e-06
1.45807e-06
1.38068e-06
1.30439e-06
1.22931e-06
1.15553e-06
1.08316e-06
1.01229e-06
9.43043e-07
8.75516e-07
8.09807e-07
7.46018e-07
6.84255e-07
6.24599e-07
5.67052e-07
5.11264e-07
4.52639e-07
3.95488e-07
3.4144e-07
2.90842e-07
2.4404e-07
2.01345e-07
1.63021e-07
1.29253e-07
1.00122e-07
7.55836e-08
5.54587e-08
3.94345e-08
2.70833e-08
1.78958e-08
1.13229e-08
6.8184e-09
3.87658e-09
2.05823e-09
1.00483e-09
4.40968e-10
1.68032e-10
5.25726e-11
1.22524e-11
1.7628e-12
1.03384e-13
8.63206e-16
4.96774e-06
4.95978e-06
4.94723e-06
4.93025e-06
4.90907e-06
4.88393e-06
4.85505e-06
4.82266e-06
4.78682e-06
4.74774e-06
4.70561e-06
4.66071e-06
4.61322e-06
4.56326e-06
4.51095e-06
4.45637e-06
4.39967e-06
4.34094e-06
4.28027e-06
4.21769e-06
4.15335e-06
4.08728e-06
4.01962e-06
3.95042e-06
3.87979e-06
3.80776e-06
3.73442e-06
3.65989e-06
3.58428e-06
3.50763e-06
3.42999e-06
3.35146e-06
3.27211e-06
3.19198e-06
3.11116e-06
3.02971e-06
2.94768e-06
2.86515e-06
2.7822e-06
2.69894e-06
2.61542e-06
2.53175e-06
2.448e-06
2.36423e-06
2.28052e-06
2.19694e-06
2.11357e-06
2.03049e-06
1.94779e-06
1.86555e-06
1.78385e-06
1.70279e-06
1.62245e-06
1.54293e-06
1.46432e-06
1.3867e-06
1.31019e-06
1.23488e-06
1.16086e-06
1.08825e-06
1.01715e-06
9.47665e-07
8.79902e-07
8.13962e-07
7.49946e-07
6.87949e-07
6.28051e-07
5.7027e-07
5.1428e-07
4.55773e-07
3.98364e-07
3.44049e-07
2.93179e-07
2.46102e-07
2.03133e-07
1.64541e-07
1.30516e-07
1.01144e-07
7.63876e-08
5.6071e-08
3.98844e-08
2.74009e-08
1.81104e-08
1.1461e-08
6.90259e-09
3.92478e-09
2.08388e-09
1.01732e-09
4.464e-10
1.70071e-10
5.31946e-11
1.23914e-11
1.78128e-12
1.04291e-13
8.67623e-16
4.96769e-06
4.96035e-06
4.94853e-06
4.93224e-06
4.91152e-06
4.8866e-06
4.85788e-06
4.82561e-06
4.79003e-06
4.75133e-06
4.70969e-06
4.66526e-06
4.61817e-06
4.5685e-06
4.51644e-06
4.46204e-06
4.4055e-06
4.34692e-06
4.28634e-06
4.22389e-06
4.15962e-06
4.09362e-06
4.02605e-06
3.95701e-06
3.88655e-06
3.81469e-06
3.7415e-06
3.66706e-06
3.59146e-06
3.51482e-06
3.43719e-06
3.35866e-06
3.27927e-06
3.1991e-06
3.11823e-06
3.03673e-06
2.95468e-06
2.87214e-06
2.78921e-06
2.70597e-06
2.62245e-06
2.53873e-06
2.45488e-06
2.37098e-06
2.28711e-06
2.20339e-06
2.11989e-06
2.0367e-06
1.95388e-06
1.87151e-06
1.78966e-06
1.70846e-06
1.62797e-06
1.54829e-06
1.4695e-06
1.39172e-06
1.31504e-06
1.23956e-06
1.16539e-06
1.09261e-06
1.02133e-06
9.51669e-07
8.8371e-07
8.17563e-07
7.5334e-07
6.91136e-07
6.31039e-07
5.73064e-07
5.169e-07
4.58491e-07
4.00857e-07
3.4631e-07
2.95205e-07
2.47891e-07
2.04687e-07
1.65863e-07
1.31616e-07
1.02035e-07
7.70881e-08
5.66045e-08
4.02762e-08
2.76776e-08
1.82975e-08
1.15814e-08
6.976e-09
3.96682e-09
2.10625e-09
1.02821e-09
4.51138e-10
1.71849e-10
5.3737e-11
1.25125e-11
1.79738e-12
1.0508e-13
8.71466e-16
4.9683e-06
4.96156e-06
4.9502e-06
4.93422e-06
4.9138e-06
4.8892e-06
4.86081e-06
4.82886e-06
4.79349e-06
4.755e-06
4.71356e-06
4.66933e-06
4.62236e-06
4.57286e-06
4.52096e-06
4.46668e-06
4.41021e-06
4.3516e-06
4.29102e-06
4.22859e-06
4.1644e-06
4.09853e-06
4.03106e-06
3.96204e-06
3.89158e-06
3.81976e-06
3.74663e-06
3.67224e-06
3.59671e-06
3.52011e-06
3.44253e-06
3.36404e-06
3.28469e-06
3.20453e-06
3.12364e-06
3.04211e-06
2.96004e-06
2.8775e-06
2.79456e-06
2.71129e-06
2.62776e-06
2.54401e-06
2.46016e-06
2.37627e-06
2.29242e-06
2.20868e-06
2.12515e-06
2.04188e-06
1.95897e-06
1.87651e-06
1.79459e-06
1.71328e-06
1.63268e-06
1.55287e-06
1.47395e-06
1.39603e-06
1.31921e-06
1.24357e-06
1.16923e-06
1.09628e-06
1.02483e-06
9.55e-07
8.8687e-07
8.20559e-07
7.5617e-07
6.93799e-07
6.33536e-07
5.75399e-07
5.19099e-07
4.60779e-07
4.0296e-07
3.48222e-07
2.96919e-07
2.49404e-07
2.06001e-07
1.66982e-07
1.32545e-07
1.02788e-07
7.76809e-08
5.7056e-08
4.06081e-08
2.7912e-08
1.84559e-08
1.16834e-08
7.0382e-09
4.00244e-09
2.1252e-09
1.03743e-09
4.55153e-10
1.73355e-10
5.41965e-11
1.26151e-11
1.81101e-12
1.05748e-13
8.74722e-16
4.96804e-06
4.96155e-06
4.95058e-06
4.9351e-06
4.91515e-06
4.89096e-06
4.86293e-06
4.83133e-06
4.79635e-06
4.75811e-06
4.71687e-06
4.67273e-06
4.62593e-06
4.57661e-06
4.52482e-06
4.47073e-06
4.41437e-06
4.35585e-06
4.29535e-06
4.23293e-06
4.16874e-06
4.10288e-06
4.03543e-06
3.96648e-06
3.89609e-06
3.82429e-06
3.7512e-06
3.6769e-06
3.60145e-06
3.52488e-06
3.44727e-06
3.36875e-06
3.28939e-06
3.20928e-06
3.12846e-06
3.04698e-06
2.9649e-06
2.88232e-06
2.79931e-06
2.71595e-06
2.63231e-06
2.54847e-06
2.46453e-06
2.38056e-06
2.29663e-06
2.21283e-06
2.12923e-06
2.04591e-06
1.96293e-06
1.8804e-06
1.79838e-06
1.71698e-06
1.63629e-06
1.5564e-06
1.4774e-06
1.3994e-06
1.32248e-06
1.24676e-06
1.17232e-06
1.09926e-06
1.02769e-06
9.57709e-07
8.89436e-07
8.2298e-07
7.58449e-07
6.95941e-07
6.35543e-07
5.77275e-07
5.20855e-07
4.62603e-07
4.04637e-07
3.49745e-07
2.98286e-07
2.50611e-07
2.07046e-07
1.6787e-07
1.33284e-07
1.03387e-07
7.81525e-08
5.74156e-08
4.08726e-08
2.80989e-08
1.85824e-08
1.17649e-08
7.08789e-09
4.0309e-09
2.14035e-09
1.04481e-09
4.58362e-10
1.74559e-10
5.45635e-11
1.2697e-11
1.82187e-12
1.06278e-13
8.77274e-16
4.96809e-06
4.96195e-06
4.95121e-06
4.93587e-06
4.91622e-06
4.89248e-06
4.86479e-06
4.83348e-06
4.79867e-06
4.76056e-06
4.71935e-06
4.67523e-06
4.62847e-06
4.57923e-06
4.52758e-06
4.47357e-06
4.41729e-06
4.35892e-06
4.29853e-06
4.23628e-06
4.17224e-06
4.10644e-06
4.03896e-06
3.96993e-06
3.89946e-06
3.82764e-06
3.75454e-06
3.68024e-06
3.6048e-06
3.5283e-06
3.45076e-06
3.3723e-06
3.29298e-06
3.21289e-06
3.13206e-06
3.0506e-06
2.96853e-06
2.88594e-06
2.80294e-06
2.71961e-06
2.63598e-06
2.55213e-06
2.46814e-06
2.38412e-06
2.30012e-06
2.21624e-06
2.13257e-06
2.04915e-06
1.96608e-06
1.88346e-06
1.80137e-06
1.71989e-06
1.63912e-06
1.55915e-06
1.48008e-06
1.40199e-06
1.32498e-06
1.24915e-06
1.17461e-06
1.10145e-06
1.02979e-06
9.59727e-07
8.91376e-07
8.24833e-07
7.60204e-07
6.97597e-07
6.37094e-07
5.78723e-07
5.22214e-07
4.64008e-07
4.05925e-07
3.50911e-07
2.99329e-07
2.51532e-07
2.07845e-07
1.6855e-07
1.3385e-07
1.03845e-07
7.85134e-08
5.76907e-08
4.10749e-08
2.8242e-08
1.86791e-08
1.18272e-08
7.12588e-09
4.05267e-09
2.15193e-09
1.05045e-09
4.60815e-10
1.75479e-10
5.48441e-11
1.27596e-11
1.83019e-12
1.06685e-13
8.79249e-16
4.9678e-06
4.96177e-06
4.95129e-06
4.93623e-06
4.91681e-06
4.89316e-06
4.8655e-06
4.83411e-06
4.79933e-06
4.76128e-06
4.72025e-06
4.6764e-06
4.6298e-06
4.58066e-06
4.5291e-06
4.47516e-06
4.41894e-06
4.36066e-06
4.3004e-06
4.2382e-06
4.17421e-06
4.10848e-06
4.04113e-06
3.97226e-06
3.90189e-06
3.83014e-06
3.75705e-06
3.6827e-06
3.6072e-06
3.53065e-06
3.45308e-06
3.37458e-06
3.29524e-06
3.21509e-06
3.13424e-06
3.05275e-06
2.97067e-06
2.88808e-06
2.80505e-06
2.72164e-06
2.63796e-06
2.55409e-06
2.47012e-06
2.38611e-06
2.30213e-06
2.21825e-06
2.13455e-06
2.0511e-06
1.96798e-06
1.88532e-06
1.80318e-06
1.72166e-06
1.64086e-06
1.56086e-06
1.48173e-06
1.40357e-06
1.32651e-06
1.25063e-06
1.17602e-06
1.10281e-06
1.03109e-06
9.60969e-07
8.92552e-07
8.2595e-07
7.61267e-07
6.98598e-07
6.38038e-07
5.79611e-07
5.23052e-07
4.64883e-07
4.06731e-07
3.51646e-07
2.99989e-07
2.52116e-07
2.08354e-07
1.68984e-07
1.34211e-07
1.04139e-07
7.87456e-08
5.7868e-08
4.12054e-08
2.83343e-08
1.87416e-08
1.18675e-08
7.15049e-09
4.06677e-09
2.15944e-09
1.0541e-09
4.62404e-10
1.76075e-10
5.50257e-11
1.28001e-11
1.83554e-12
1.06945e-13
8.80469e-16
4.9675e-06
4.96149e-06
4.95103e-06
4.93595e-06
4.91637e-06
4.89255e-06
4.86485e-06
4.83356e-06
4.7989e-06
4.76107e-06
4.72024e-06
4.67654e-06
4.63004e-06
4.58096e-06
4.52945e-06
4.4756e-06
4.41947e-06
4.36117e-06
4.3009e-06
4.23877e-06
4.17486e-06
4.10926e-06
4.04198e-06
3.9731e-06
3.90275e-06
3.83098e-06
3.75791e-06
3.68362e-06
3.60814e-06
3.53154e-06
3.45396e-06
3.37546e-06
3.29611e-06
3.21594e-06
3.13504e-06
3.0535e-06
2.9714e-06
2.88881e-06
2.8058e-06
2.72245e-06
2.63882e-06
2.555e-06
2.47105e-06
2.38703e-06
2.30304e-06
2.21917e-06
2.13549e-06
2.05206e-06
1.96899e-06
1.88634e-06
1.80422e-06
1.72269e-06
1.64186e-06
1.56181e-06
1.48266e-06
1.4045e-06
1.32741e-06
1.2515e-06
1.17686e-06
1.10362e-06
1.03187e-06
9.61728e-07
8.93284e-07