/*--------------------------------*- C++ -*----------------------------------*\
  =========                 |
  \\      /  F ield         | OpenFOAM: The Open Source CFD Toolbox
   \\    /   O peration     | Website:  https://openfoam.org
    \\  /    A nd           | Version:  7
     \\/     M anipulation  |
\*---------------------------------------------------------------------------*/
FoamFile
{
    version     2.0;
    format      ascii;
    class       volScalarField;
    location    "80000";
    object      omega;
}
// * * * * * * * * * * * * * * * * * * * * * * * * * * * * * * * * * * * * * //

dimensions      [0 0 -1 0 0 0 0];

internalField   nonuniform List<scalar> 
4782
(
0.277786
0.286862
0.296382
0.306375
0.316875
0.327917
0.33954
0.351786
0.364703
0.378344
0.0885059
0.090624
0.0927788
0.0949731
0.0972098
0.0994915
0.101821
0.104202
0.106636
0.109127
0.111678
0.114292
0.116973
0.119725
0.12255
0.125453
0.128439
0.13151
0.134672
0.137928
0.141285
0.144748
0.14832
0.15201
0.155821
0.159762
0.163838
0.168057
0.172426
0.176954
0.181649
0.18652
0.191577
0.196831
0.202292
0.207972
0.213883
0.22004
0.226456
0.233147
0.240129
0.247419
0.255038
0.263004
0.271341
0.280071
0.289221
0.298819
0.308893
0.319478
0.33061
0.342326
0.35467
0.36769
0.381439
0.0893483
0.0914764
0.093642
0.0958479
0.098097
0.100392
0.102736
0.105131
0.107581
0.110088
0.112656
0.115289
0.117989
0.12076
0.123606
0.126531
0.129539
0.132634
0.13582
0.139103
0.142486
0.145976
0.149578
0.153298
0.157141
0.161114
0.165224
0.169478
0.173885
0.178451
0.183186
0.188099
0.1932
0.198499
0.204007
0.209736
0.215698
0.221908
0.228379
0.235128
0.242169
0.249523
0.257207
0.265241
0.273649
0.282455
0.291682
0.301361
0.311521
0.322195
0.333419
0.345232
0.357679
0.370807
0.384669
0.090222
0.0923604
0.0945375
0.0967557
0.0990179
0.101327
0.103685
0.106096
0.108562
0.111087
0.113674
0.116325
0.119045
0.121837
0.124705
0.127653
0.130684
0.133803
0.137016
0.140325
0.143737
0.147256
0.150888
0.154639
0.158515
0.162523
0.166669
0.170961
0.175405
0.180012
0.184789
0.189746
0.194892
0.200238
0.205795
0.211575
0.217591
0.223856
0.230385
0.237193
0.244298
0.251716
0.259468
0.267573
0.276055
0.284937
0.294245
0.304007
0.314255
0.325021
0.336341
0.348256
0.360809
0.374049
0.388029
0.0911274
0.0932773
0.0954666
0.0976979
0.0999739
0.102297
0.104671
0.107099
0.109582
0.112125
0.114731
0.117402
0.120143
0.122957
0.125848
0.12882
0.131876
0.135021
0.138261
0.141598
0.14504
0.148589
0.152254
0.156038
0.159949
0.163992
0.168176
0.172507
0.176992
0.181641
0.186462
0.191465
0.196659
0.202054
0.207663
0.213497
0.219569
0.225892
0.232482
0.239353
0.246524
0.254011
0.261834
0.270014
0.278574
0.287537
0.29693
0.306781
0.317121
0.327983
0.339405
0.351425
0.364089
0.377445
0.391548
0.0911278
0.0932778
0.0954671
0.0976984
0.0999744
0.102298
0.104672
0.107099
0.109583
0.112126
0.114731
0.117403
0.120144
0.122958
0.125849
0.12882
0.131877
0.135022
0.138261
0.141599
0.14504
0.14859
0.152254
0.156039
0.159949
0.163993
0.168176
0.172507
0.176993
0.181642
0.186463
0.191466
0.196659
0.202055
0.207664
0.213498
0.21957
0.225894
0.232484
0.239355
0.246526
0.254013
0.261836
0.270017
0.278576
0.287539
0.296932
0.306783
0.317123
0.327985
0.339406
0.351427
0.364091
0.377446
0.391548
0.0902217
0.0923606
0.0945379
0.0967562
0.0990184
0.101327
0.103686
0.106096
0.108563
0.111087
0.113674
0.116326
0.119046
0.121838
0.124706
0.127654
0.130686
0.133805
0.137018
0.140327
0.143739
0.147258
0.15089
0.154642
0.158518
0.162525
0.166671
0.170963
0.175408
0.180014
0.184791
0.189748
0.194894
0.20024
0.205797
0.211578
0.217594
0.223859
0.230388
0.237197
0.244302
0.25172
0.259472
0.267578
0.276059
0.284941
0.294249
0.304012
0.314259
0.325025
0.336345
0.348259
0.360811
0.37405
0.388029
0.402808
0.418453
0.435042
0.45266
0.0893471
0.0914754
0.0936413
0.0958474
0.0980965
0.100392
0.102735
0.105131
0.107581
0.110088
0.112657
0.11529
0.11799
0.120761
0.123608
0.126533
0.129541
0.132636
0.135823
0.139105
0.142489
0.14598
0.149582
0.153301
0.157144
0.161118
0.165228
0.169483
0.173889
0.178456
0.183191
0.188104
0.193205
0.198504
0.204012
0.209741
0.215703
0.221913
0.228384
0.235132
0.242174
0.249527
0.25721
0.265244
0.273652
0.282456
0.291683
0.301361
0.31152
0.322193
0.333417
0.34523
0.357676
0.370803
0.384665
0.399319
0.414834
0.431283
0.448752
0.467339
0.0885021
0.0906208
0.0927763
0.0949711
0.0972081
0.0994901
0.10182
0.104201
0.106635
0.109127
0.111678
0.114293
0.116974
0.119726
0.122552
0.125455
0.12844
0.131512
0.134674
0.137931
0.141288
0.14475
0.148323
0.152013
0.155825
0.159766
0.163842
0.168061
0.172431
0.176959
0.181655
0.186526
0.191584
0.196838
0.202299
0.207979
0.21389
0.220047
0.226463
0.233153
0.240134
0.247425
0.255042
0.263008
0.271345
0.280075
0.289224
0.298821
0.308895
0.319479
0.33061
0.342325
0.35467
0.36769
0.381439
0.395975
0.411363
0.427679
0.445006
0.46344
0.483093
0.504094
0.526593
0.550772
0.576844
0.605071
0.635771
0.669348
0.706306
0.747235
0.792832
0.843976
0.901792
0.967734
1.04369
1.13212
1.23629
1.36049
1.5105
1.69409
1.92195
2.20898
2.57646
3.0556
3.69363
4.56485
5.79152
7.58616
10.3441
14.8666
22.9714
39.4678
80.2397
219.252
1075.8
0.0876883
0.089798
0.0919435
0.0941275
0.096353
0.0986228
0.10094
0.103306
0.105726
0.108202
0.110737
0.113335
0.115998
0.118731
0.121537
0.12442
0.127383
0.130432
0.133571
0.136803
0.140135
0.143571
0.147116
0.150777
0.154559
0.158468
0.162512
0.166698
0.171032
0.175524
0.180181
0.185013
0.19003
0.19524
0.200657
0.20629
0.212153
0.218259
0.224622
0.231257
0.238181
0.245411
0.252966
0.260867
0.269135
0.277793
0.286868
0.296387
0.30638
0.316879
0.327921
0.339543
0.351789
0.364706
0.378346
0.392766
0.408033
0.42422
0.441409
0.459695
0.479189
0.500017
0.522329
0.546301
0.572146
0.600118
0.630529
0.663774
0.700349
0.740843
0.785941
0.836507
0.893645
0.958783
1.03378
1.12105
1.22381
1.34629
1.49419
1.67518
1.8998
2.18278
2.54512
3.01765
3.64704
4.50666
5.7173
7.48896
10.2124
14.6797
22.6891
39.0011
79.3542
217.155
1068.83
0.0869069
0.0890083
0.0911445
0.0933185
0.0955332
0.0977912
0.100096
0.102449
0.104855
0.107316
0.109836
0.112417
0.115063
0.117778
0.120565
0.123428
0.126371
0.129399
0.132515
0.135724
0.139031
0.142442
0.145961
0.149594
0.153347
0.157227
0.16124
0.165393
0.169694
0.174151
0.178771
0.183565
0.188542
0.193711
0.199085
0.204674
0.21049
0.216548
0.22286
0.229443
0.236312
0.243485
0.250981
0.25882
0.267023
0.275614
0.284618
0.294063
0.303978
0.314396
0.325353
0.336886
0.349038
0.361856
0.375392
0.389703
0.404853
0.420916
0.437972
0.456117
0.475457
0.49612
0.518252
0.542028
0.567654
0.595382
0.625518
0.658445
0.694656
0.734736
0.77936
0.829377
0.885872
0.950247
1.02433
1.1105
1.21192
1.33278
1.47867
1.65718
1.87872
2.15784
2.51529
2.98153
3.60267
4.45123
5.6466
7.39635
10.0868
14.5016
22.42
38.5559
78.5086
215.15
1062.15
0.0861575
0.0882513
0.0903791
0.0925438
0.0947483
0.0969956
0.0992883
0.10163
0.104022
0.106469
0.108974
0.11154
0.11417
0.116868
0.119637
0.122482
0.125405
0.128412
0.131507
0.134694
0.137978
0.141365
0.144859
0.148466
0.152192
0.156043
0.160026
0.164149
0.168418
0.172841
0.177427
0.182185
0.187124
0.192254
0.197587
0.203133
0.208905
0.214916
0.22118
0.227713
0.23453
0.241648
0.249087
0.256866
0.265007
0.273533
0.28247
0.291844
0.301686
0.312027
0.322902
0.33435
0.346413
0.359137
0.372574
0.38678
0.401819
0.417763
0.434694
0.452703
0.471899
0.492405
0.514367
0.537955
0.563374
0.590872
0.620749
0.653379
0.689247
0.728934
0.773109
0.822605
0.87849
0.942143
1.01536
1.10049
1.20065
1.31995
1.46394
1.64011
1.85873
2.13418
2.48699
2.94726
3.56056
4.39862
5.57947
7.3084
9.96758
14.3324
22.1642
38.1324
77.7037
213.238
1055.75
0.0854416
0.0875282
0.0896482
0.0918043
0.0939995
0.0962367
0.0985186
0.100848
0.103229
0.105663
0.108154
0.110705
0.11332
0.116001
0.118754
0.121581
0.124486
0.127474
0.130548
0.133714
0.136977
0.14034
0.14381
0.147392
0.151092
0.154917
0.158872
0.162966
0.167204
0.171596
0.176149
0.180873
0.185776
0.190869
0.196163
0.201669
0.207399
0.213366
0.219584
0.226069
0.232836
0.239902
0.247286
0.255009
0.263091
0.271555
0.280427
0.289734
0.299505
0.309773
0.320571
0.331937
0.343915
0.356549
0.369892
0.383998
0.398931
0.414764
0.431575
0.449457
0.468516
0.488873
0.510674
0.534085
0.55931
0.586591
0.616223
0.648575
0.684122
0.723435
0.767183
0.816185
0.871494
0.934464
1.00686
1.09101
1.18998
1.30782
1.45002
1.62396
1.83982
2.11181
2.46022
2.91483
3.52072
4.34882
5.51592
7.22512
9.85463
14.172
21.9218
37.7309
76.9399
211.422
1049.66
0.0847604
0.0868404
0.0889533
0.0911015
0.0932881
0.0955159
0.0977877
0.100107
0.102475
0.104897
0.107375
0.109913
0.112513
0.11518
0.117916
0.120727
0.123614
0.126584
0.12964
0.132786
0.136028
0.13937
0.142818
0.146376
0.150052
0.153852
0.157781
0.161846
0.166056
0.170418
0.174939
0.17963
0.1845
0.189557
0.194814
0.200282
0.205972
0.211897
0.218072
0.224511
0.231231
0.238248
0.245581
0.25325
0.261276
0.269682
0.278493
0.287736
0.29744
0.307636
0.318361
0.32965
0.341547
0.354096
0.367348
0.38136
0.396193
0.411919
0.428617
0.446379
0.465308
0.485525
0.507173
0.530418
0.555458
0.582534
0.611937
0.644028
0.679271
0.718234
0.76158
0.810119
0.864885
0.927214
0.998848
1.08207
1.17991
1.29638
1.43689
1.60874
1.822
2.09072
2.43498
2.88425
3.48314
4.30185
5.45595
7.14653
9.74803
14.0207
21.6928
37.3516
76.2177
209.701
1043.87
0.0841149
0.0861892
0.0882955
0.0904365
0.0926151
0.0948342
0.0970966
0.0994054
0.101763
0.104174
0.10664
0.109164
0.111751
0.114404
0.117126
0.119921
0.122792
0.125745
0.128783
0.131911
0.135133
0.138455
0.141882
0.145419
0.149072
0.152847
0.156751
0.160791
0.164974
0.169307
0.1738
0.17846
0.183297
0.188322
0.193544
0.198975
0.204627
0.210513
0.216646
0.223043
0.229718
0.236688
0.243972
0.25159
0.259563
0.267913
0.276665
0.285847
0.295487
0.305617
0.316271
0.327487
0.339306
0.351774
0.364941
0.378863
0.393601
0.409227
0.425819
0.443467
0.462274
0.48236
0.503864
0.526952
0.551821
0.578704
0.607891
0.639736
0.674695
0.713329
0.756299
0.804404
0.858662
0.920392
0.991308
1.07367
1.17045
1.28564
1.42456
1.59445
1.80526
2.07091
2.41127
2.85552
3.44782
4.25769
5.39958
7.07263
9.64776
13.8782
21.4773
36.9944
75.5372
208.079
1038.4
0.0835065
0.0855755
0.0876756
0.0898099
0.091981
0.0941919
0.0964455
0.0987448
0.101093
0.103492
0.105947
0.10846
0.111035
0.113674
0.116382
0.119163
0.122019
0.124956
0.127978
0.131088
0.134293
0.137596
0.141003
0.14452
0.148151
0.151904
0.155785
0.1598
0.163958
0.168265
0.17273
0.177361
0.182168
0.187161
0.192351
0.197748
0.203364
0.209213
0.215309
0.221665
0.228298
0.235224
0.242462
0.250032
0.257954
0.266252
0.27495
0.284074
0.293654
0.303721
0.31431
0.325457
0.337204
0.349596
0.362684
0.376521
0.391171
0.406703
0.423194
0.440735
0.459427
0.479389
0.50076
0.523701
0.548408
0.575112
0.604097
0.635712
0.670404
0.708731
0.751349
0.799048
0.852832
0.914001
0.984248
1.0658
1.1616
1.27558
1.41302
1.58108
1.7896
2.05238
2.38909
2.82864
3.41479
4.21638
5.34683
7.00346
9.5539
13.7449
21.2755
36.6597
74.8991
206.555
1033.25
0.0829344
0.0849986
0.0870934
0.0892214
0.0913856
0.0935891
0.0958347
0.0981255
0.100464
0.102854
0.105299
0.107801
0.110364
0.112991
0.115686
0.118453
0.121296
0.124218
0.127224
0.130319
0.133507
0.136792
0.140181
0.143679
0.14729
0.151022
0.154881
0.158874
0.163008
0.16729
0.171729
0.176334
0.181113
0.186077
0.191236
0.196602
0.202185
0.208
0.214059
0.220377
0.226971
0.233856
0.241052
0.248577
0.256453
0.264702
0.273348
0.282419
0.291944
0.301952
0.312479
0.323562
0.335242
0.347563
0.360575
0.374334
0.388901
0.404344
0.420742
0.438182
0.456767
0.476614
0.497859
0.520663
0.545218
0.571754
0.600551
0.631953
0.666397
0.704437
0.746727
0.794049
0.847392
0.908041
0.977666
1.05847
1.15336
1.26622
1.40228
1.56863
1.77503
2.03513
2.36845
2.80362
3.38402
4.17791
5.29769
6.93902
9.46644
13.6206
21.0874
36.3476
74.3036
205.132
1028.43
0.0824001
0.0844599
0.0865497
0.0886724
0.0908306
0.0930274
0.0952657
0.0975486
0.099879
0.10226
0.104695
0.107187
0.109739
0.112355
0.115039
0.117794
0.120623
0.123532
0.126524
0.129604
0.132776
0.136045
0.139417
0.142897
0.14649
0.150203
0.154042
0.158013
0.162125
0.166385
0.1708
0.17538
0.180133
0.18507
0.1902
0.195536
0.201089
0.206871
0.212897
0.21918
0.225737
0.232585
0.23974
0.247224
0.255056
0.26326
0.27186
0.280882
0.290354
0.300309
0.31078
0.321804
0.333421
0.345677
0.35862
0.372306
0.386796
0.402157
0.418467
0.435814
0.454298
0.474036
0.495163
0.517839
0.542253
0.568633
0.597254
0.628457
0.662671
0.700446
0.742434
0.789407
0.842343
0.90251
0.971561
1.05167
1.14572
1.25755
1.39233
1.55711
1.76153
2.01916
2.34933
2.78044
3.35552
4.14226
5.25216
6.87929
9.38536
13.5054
20.9129
36.058
73.7508
203.809
1023.93
0.0819054
0.0839609
0.0860462
0.0881638
0.0903165
0.0925073
0.0947391
0.0970148
0.0993375
0.10171
0.104136
0.106619
0.109162
0.111768
0.11444
0.117184
0.120002
0.122898
0.125877
0.128943
0.132101
0.135355
0.138711
0.142174
0.14575
0.149445
0.153266
0.157218
0.161309
0.165548
0.169941
0.174498
0.179227
0.184139
0.189244
0.194552
0.200077
0.20583
0.211825
0.218076
0.2246
0.231412
0.238532
0.245977
0.25377
0.261932
0.270487
0.279463
0.288887
0.298791
0.309208
0.320176
0.331734
0.343928
0.356806
0.370423
0.384841
0.400125
0.416355
0.433616
0.452008
0.471647
0.492667
0.515225
0.53951
0.565746
0.594207
0.625227
0.65923
0.696761
0.73847
0.785122
0.837685
0.89741
0.965933
1.0454
1.13868
1.24956
1.38317
1.54649
1.74911
2.00445
2.33172
2.75909
3.32926
4.10941
5.2102
6.82425
9.31062
13.3992
20.7519
35.7908
73.2405
202.586
1019.77
0.0814494
0.0835013
0.0855826
0.0876956
0.0898432
0.0920285
0.0942542
0.0965235
0.0988394
0.101205
0.103623
0.106098
0.108632
0.111228
0.113891
0.116624
0.119431
0.122315
0.125282
0.128336
0.131481
0.134721
0.138063
0.141511
0.145071
0.14875
0.152553
0.156488
0.16056
0.164779
0.169153
0.173688
0.178396
0.183285
0.188366
0.19365
0.199149
0.204875
0.210842
0.217064
0.223557
0.230337
0.237423
0.244833
0.252589
0.260712
0.269228
0.278162
0.287542
0.2974
0.307769
0.318685
0.33019
0.342328
0.355147
0.368701
0.383052
0.398266
0.414421
0.431602
0.449909
0.469456
0.490376
0.512826
0.536992
0.563096
0.591408
0.622261
0.65607
0.693378
0.734833
0.781192
0.833412
0.892734
0.960775
1.03966
1.13223
1.24224
1.37479
1.53678
1.73774
1.991
2.31561
2.73957
3.30525
4.07936
5.1718
6.77387
9.24222
13.3019
20.6046
35.5461
72.7729
201.465
1015.95
0.0810334
0.083082
0.0851598
0.0872689
0.089412
0.0915923
0.0938127
0.0960763
0.098386
0.100745
0.103156
0.105623
0.108149
0.110737
0.113391
0.116114
0.118911
0.121786
0.124742
0.127784
0.130916
0.134144
0.137473
0.140907
0.144453
0.148117
0.151904
0.155823
0.159879
0.16408
0.168435
0.172952
0.177639
0.182508
0.187567
0.192829
0.198304
0.204005
0.209946
0.216141
0.222606
0.229357
0.236412
0.24379
0.251513
0.259601
0.26808
0.276976
0.286316
0.296132
0.306457
0.317328
0.328785
0.340872
0.353638
0.367136
0.381427
0.396578
0.412666
0.429775
0.448005
0.467469
0.488299
0.51065
0.534708
0.560693
0.588872
0.619574
0.65321
0.690318
0.731541
0.777633
0.829543
0.888498
0.956102
1.03446
1.12639
1.23562
1.36719
1.52798
1.72744
1.9788
2.30101
2.72186
3.28347
4.05211
5.13698
6.72819
9.18017
13.2137
20.4709
35.324
72.3482
200.446
1012.47
0.0806585
0.082704
0.0847785
0.086884
0.0890232
0.0911991
0.0934147
0.095673
0.097977
0.10033
0.102735
0.105195
0.107713
0.110294
0.11294
0.115655
0.118443
0.121308
0.124254
0.127286
0.130408
0.133624
0.136941
0.140364
0.143897
0.147547
0.151321
0.155225
0.159266
0.163451
0.16779
0.172289
0.176959
0.181809
0.186848
0.192089
0.197543
0.203222
0.20914
0.21531
0.22175
0.228474
0.235501
0.242851
0.250542
0.258599
0.267045
0.275905
0.285209
0.294986
0.305271
0.3161
0.327513
0.339553
0.35227
0.365717
0.379955
0.395049
0.411076
0.428121
0.446282
0.465672
0.486422
0.508686
0.532648
0.558527
0.586588
0.617156
0.65064
0.687568
0.728583
0.774434
0.826065
0.884691
0.951902
1.02979
1.12114
1.22966
1.36037
1.52008
1.71818
1.96785
2.2879
2.70596
3.2639
4.02762
5.10568
6.68711
9.12438
13.1343
20.3506
35.1241
71.966
199.528
1009.33
0.0803245
0.0823671
0.0844386
0.0865408
0.0886765
0.0908486
0.09306
0.0953138
0.097613
0.0999606
0.10236
0.104814
0.107326
0.1099
0.112539
0.115246
0.118026
0.120883
0.123821
0.126843
0.129956
0.133162
0.136469
0.13988
0.143402
0.147041
0.150802
0.154693
0.15872
0.162892
0.167216
0.1717
0.176353
0.181186
0.186208
0.191431
0.196866
0.202525
0.208421
0.21457
0.220987
0.227688
0.23469
0.242014
0.249678
0.257707
0.266123
0.274952
0.284224
0.293968
0.304218
0.31501
0.326384
0.338384
0.351058
0.36446
0.378649
0.393692
0.409665
0.426652
0.444751
0.464074
0.484752
0.506938
0.530814
0.556598
0.584553
0.615002
0.648349
0.685118
0.725949
0.771588
0.822971
0.881306
0.948171
1.02564
1.11648
1.22438
1.35431
1.51307
1.70997
1.95813
2.27626
2.69184
3.24654
4.00589
5.0779
6.65065
9.07485
13.0639
20.2438
34.9466
71.6263
198.711
1006.53
0.0800305
0.0820706
0.0841396
0.0862391
0.0883719
0.0905407
0.0927485
0.0949984
0.0972933
0.0996363
0.102031
0.104479
0.106986
0.109554
0.112187
0.114888
0.117662
0.120511
0.123441
0.126456
0.12956
0.132758
0.136056
0.139458
0.14297
0.146598
0.150348
0.154228
0.158244
0.162403
0.166714
0.171184
0.175824
0.180642
0.185649
0.190855
0.196273
0.201914
0.207793
0.213923
0.22032
0.227
0.233981
0.241282
0.248923
0.256927
0.265317
0.274119
0.283362
0.293077
0.303295
0.314054
0.325394
0.337358
0.349994
0.363356
0.377503
0.392502
0.408428
0.425365
0.443411
0.462676
0.483292
0.50541
0.529211
0.554913
0.582775
0.613121
0.646349
0.68298
0.723649
0.769103
0.820271
0.878352
0.944913
1.02202
1.11241
1.21977
1.34903
1.50694
1.70281
1.94965
2.2661
2.67952
3.23137
3.98691
5.05364
6.6188
9.03158
13.0023
20.1505
34.7915
71.3293
197.997
1004.08
0.0797789
0.0818166
0.0838835
0.0859808
0.0881108
0.0902765
0.0924811
0.0947275
0.0970188
0.0993581
0.101748
0.104193
0.106695
0.109258
0.111885
0.114581
0.117349
0.120192
0.123116
0.126124
0.129221
0.132412
0.135701
0.139095
0.142599
0.146218
0.14996
0.153829
0.157835
0.161984
0.166284
0.170743
0.17537
0.180176
0.18517
0.190363
0.195766
0.201393
0.207256
0.21337
0.21975
0.226412
0.233374
0.240656
0.248276
0.256259
0.264627
0.273407
0.282626
0.292314
0.302506
0.313238
0.324548
0.336481
0.349085
0.362413
0.376524
0.391485
0.40737
0.424263
0.442262
0.461478
0.482039
0.504099
0.527837
0.553467
0.581251
0.611507
0.644634
0.681146
0.721678
0.766973
0.817956
0.87582
0.942122
1.01892
1.10893
1.21582
1.3445
1.5017
1.69667
1.94239
2.2574
2.66897
3.2184
3.97066
5.03288
6.59155
8.99455
12.9496
20.0706
34.6586
71.075
197.385
1001.98
0.0795691
0.0816051
0.0836702
0.0857654
0.0878932
0.0900565
0.0922584
0.0945019
0.09679
0.0991258
0.101512
0.103953
0.106451
0.10901
0.111633
0.114324
0.117087
0.119925
0.122844
0.125846
0.128938
0.132123
0.135406
0.138793
0.14229
0.145902
0.149636
0.153498
0.157495
0.161636
0.165926
0.170376
0.174994
0.179789
0.184773
0.189954
0.195346
0.200961
0.206811
0.212912
0.219277
0.225925
0.232872
0.240137
0.24774
0.255705
0.264054
0.272814
0.282012
0.29168
0.301849
0.312557
0.323842
0.335749
0.348326
0.361625
0.375706
0.390634
0.406485
0.423343
0.441304
0.460478
0.480995
0.503006
0.526691
0.552262
0.57998
0.610161
0.643203
0.679616
0.720033
0.765195
0.816025
0.873708
0.939795
1.01633
1.10603
1.21253
1.34074
1.49734
1.69157
1.93634
2.25017
2.6602
3.2076
3.95715
5.01559
6.56886
8.96372
12.9058
20.0041
34.548
70.8631
196.875
1000.22
0.0794006
0.081435
0.0834988
0.0855925
0.0877186
0.08988
0.0920798
0.094321
0.0966068
0.0989399
0.101324
0.103762
0.106256
0.108812
0.111432
0.114119
0.116878
0.119712
0.122626
0.125624
0.128711
0.131891
0.13517
0.138552
0.142043
0.14565
0.149377
0.153233
0.157224
0.161357
0.165641
0.170083
0.174693
0.17948
0.184454
0.189627
0.195009
0.200614
0.206454
0.212544
0.218898
0.225534
0.232469
0.239721
0.247312
0.255263
0.263597
0.272342
0.281524
0.291174
0.301326
0.312015
0.323281
0.335167
0.347721
0.360997
0.375053
0.389956
0.405779
0.422607
0.440536
0.459677
0.480158
0.502131
0.525772
0.551296
0.578962
0.609084
0.642058
0.678393
0.718717
0.763775
0.814482
0.872021
0.937936
1.01426
1.10371
1.2099
1.33773
1.49386
1.68749
1.93152
2.24439
2.65319
3.19897
3.94634
5.00178
6.55073
8.93908
12.8707
19.9509
34.4596
70.6937
196.467
998.821
0.0792743
0.0813076
0.0833703
0.0854628
0.0875878
0.089748
0.0919463
0.0941859
0.0964697
0.0988009
0.101183
0.103618
0.106111
0.108664
0.111281
0.113965
0.116721
0.119553
0.122464
0.125458
0.128542
0.131718
0.134993
0.138371
0.141858
0.14546
0.149184
0.153035
0.157021
0.161149
0.165427
0.169864
0.174468
0.179249
0.184217
0.189382
0.194758
0.200355
0.206187
0.212269
0.218615
0.225241
0.232167
0.239409
0.24699
0.25493
0.263254
0.271987
0.281157
0.290795
0.300933
0.311608
0.322859
0.33473
0.347268
0.360527
0.374565
0.389448
0.405251
0.422057
0.439963
0.459079
0.479532
0.501474
0.525083
0.550571
0.578196
0.608274
0.641197
0.677472
0.717728
0.762707
0.813323
0.870754
0.936541
1.01271
1.10197
1.20793
1.33547
1.49125
1.68443
1.9279
2.24006
2.64793
3.1925
3.93825
4.99144
6.53714
8.92062
12.8444
19.9111
34.3933
70.5667
196.161
997.767
0.079189
0.0812216
0.0832838
0.0853757
0.0875
0.0896592
0.0918566
0.0940951
0.0963779
0.0987079
0.101088
0.103523
0.106014
0.108565
0.11118
0.113863
0.116617
0.119447
0.122355
0.125348
0.128429
0.131603
0.134875
0.13825
0.141735
0.145334
0.149054
0.152902
0.156885
0.161009
0.165284
0.169717
0.174317
0.179094
0.184058
0.189219
0.19459
0.200183
0.20601
0.212086
0.218426
0.225048
0.231967
0.239203
0.246777
0.25471
0.263026
0.271751
0.280913
0.290542
0.300671
0.311337
0.322578
0.334439
0.346966
0.360213
0.37424
0.38911
0.4049
0.421692
0.439582
0.458681
0.479117
0.50104
0.524627
0.550091
0.57769
0.607737
0.640627
0.676863
0.717073
0.761999
0.812553
0.869912
0.935613
1.01168
1.10081
1.20662
1.33397
1.48951
1.6824
1.92549
2.23717
2.64444
3.1882
3.93286
4.98455
6.5281
8.90833
12.827
19.8846
34.3492
70.4822
195.957
997.066
0.0791461
0.0811783
0.0832402
0.0853318
0.0874555
0.0896143
0.0918112
0.0940493
0.0963316
0.0986611
0.101041
0.103475
0.105965
0.108516
0.11113
0.113812
0.116565
0.119394
0.122301
0.125293
0.128373
0.131546
0.134816
0.13819
0.141673
0.145271
0.14899
0.152836
0.156817
0.16094
0.165213
0.169644
0.174243
0.179018
0.183979
0.189139
0.194507
0.200098
0.205922
0.211996
0.218334
0.224952
0.231868
0.239101
0.246671
0.254601
0.262913
0.271634
0.280792
0.290416
0.300541
0.311201
0.322437
0.334292
0.346814
0.360055
0.374075
0.388939
0.404721
0.421505
0.439387
0.458478
0.478904
0.500817
0.524393
0.549845
0.577431
0.607464
0.640337
0.676553
0.716741
0.76164
0.812165
0.869488
0.935146
1.01116
1.10023
1.20596
1.33322
1.48864
1.68138
1.92429
2.23573
2.64269
3.18605
3.93017
4.9811
6.52358
8.90218
12.8182
19.8713
34.3271
70.4398
195.855
996.714
0.0791454
0.0811775
0.0832393
0.085331
0.0874551
0.0896141
0.0918112
0.0940495
0.0963319
0.0986615
0.101041
0.103475
0.105965
0.108516
0.11113
0.113812
0.116565
0.119394
0.122302
0.125293
0.128373
0.131546
0.134817
0.138191
0.141674
0.145272
0.148991
0.152837
0.156819
0.160942
0.165215
0.169646
0.174244
0.179019
0.18398
0.189139
0.194508
0.200098
0.205922
0.211995
0.218333
0.224951
0.231867
0.2391
0.24667
0.2546
0.262913
0.271634
0.280792
0.290417
0.300542
0.311203
0.322439
0.334294
0.346816
0.360057
0.374076
0.38894
0.404722
0.421506
0.439388
0.458479
0.478906
0.500819
0.524395
0.549848
0.577434
0.607467
0.64034
0.676557
0.716744
0.761644
0.812168
0.869491
0.935149
1.01117
1.10024
1.20596
1.33322
1.48864
1.68138
1.92429
2.23573
2.64269
3.18605
3.93018
4.98112
6.52359
8.90221
12.8182
19.8713
34.3272
70.44
195.856
996.716
0.0791874
0.0812202
0.0832824
0.0853745
0.087499
0.0896586
0.0918562
0.0940951
0.0963782
0.0987085
0.101089
0.103523
0.106014
0.108566
0.111181
0.113864
0.116619
0.119448
0.122357
0.12535
0.128431
0.131605
0.134877
0.138252
0.141737
0.145336
0.149056
0.152904
0.156887
0.161012
0.165286
0.169719
0.174319
0.179096
0.18406
0.189221
0.194592
0.200184
0.206011
0.212086
0.218426
0.225047
0.231966
0.239202
0.246776
0.254709
0.263025
0.27175
0.280912
0.290542
0.300671
0.311337
0.322579
0.334439
0.346967
0.360214
0.37424
0.389111
0.4049
0.421692
0.439583
0.458682
0.479118
0.501041
0.524628
0.550093
0.577692
0.607739
0.640629
0.676864
0.717074
0.762
0.812554
0.869913
0.935613
1.01168
1.10081
1.20662
1.33397
1.48951
1.6824
1.92549
2.23718
2.64444
3.18821
3.93287
4.98456
6.52812
8.90836
12.827
19.8846
34.3493
70.4823
195.958
997.067
0.0792716
0.0813051
0.083368
0.0854608
0.087586
0.0897465
0.0919452
0.0941851
0.0964694
0.0988011
0.101183
0.103619
0.106112
0.108665
0.111283
0.113968
0.116724
0.119555
0.122466
0.125461
0.128545
0.131721
0.134996
0.138374
0.141861
0.145463
0.149186
0.153037
0.157023
0.161151
0.165429
0.169866
0.17447
0.179251
0.184219
0.189385
0.19476
0.200356
0.206188
0.212269
0.218615
0.225241
0.232166
0.239408
0.246988
0.254928
0.263252
0.271984
0.281154
0.290792
0.30093
0.311605
0.322856
0.334727
0.347265
0.360524
0.374562
0.389445
0.405248
0.422054
0.43996
0.459075
0.479528
0.50147
0.525079
0.550567
0.578192
0.60827
0.641194
0.67747
0.717727
0.762706
0.813322
0.870754
0.936541
1.01271
1.10197
1.20793
1.33547
1.49125
1.68443
1.9279
2.24006
2.64794
3.19251
3.93825
4.99144
6.53715
8.92063
12.8444
19.9111
34.3933
70.5668
196.161
997.768
0.0793972
0.0814317
0.0834957
0.0855898
0.0877164
0.0898783
0.0920786
0.0943204
0.0966065
0.0989401
0.101324
0.103762
0.106258
0.108814
0.111434
0.114121
0.116881
0.119715
0.12263
0.125628
0.128715
0.131895
0.135174
0.138556
0.142047
0.145653
0.149381
0.153237
0.157227
0.16136
0.165644
0.170086
0.174696
0.179483
0.184457
0.189629
0.195011
0.200615
0.206455
0.212544
0.218898
0.225533
0.232467
0.239719
0.247309
0.255259
0.263594
0.272338
0.28152
0.29117
0.301321
0.312009
0.323275
0.33516
0.347714
0.36099
0.375045
0.389947
0.40577
0.422598
0.440527
0.459667
0.480148
0.50212
0.525761
0.551286
0.578951
0.609074
0.642049
0.678385
0.71871
0.763768
0.814476
0.872016
0.937931
1.01426
1.10371
1.2099
1.33772
1.49385
1.68749
1.93151
2.24438
2.65318
3.19896
3.94633
5.00177
6.55071
8.93905
12.8707
19.9509
34.4595
70.6935
196.467
998.819
0.0795649
0.081601
0.0836663
0.0857619
0.08789
0.0900537
0.0922561
0.0945
0.0967886
0.0991248
0.101512
0.103953
0.106451
0.109011
0.111634
0.114326
0.117089
0.119928
0.122846
0.125849
0.128941
0.132126
0.135409
0.138797
0.142294
0.145906
0.14964
0.153502
0.157499
0.161639
0.16593
0.17038
0.174997
0.179792
0.184775
0.189956
0.195348
0.200962
0.206812
0.212911
0.219276
0.225923
0.232869
0.240134
0.247737
0.255701
0.264049
0.272808
0.282006
0.291672
0.301841
0.312547
0.323832
0.335738
0.348314
0.361612
0.375693
0.390621
0.406472
0.423329
0.44129
0.460464
0.480982
0.502993
0.526678
0.55225
0.579969
0.610152
0.643195
0.67961
0.720027
0.765191
0.816022
0.873706
0.939793
1.01633
1.10603
1.21253
1.34073
1.49734
1.69156
1.93634
2.25016
2.66019
3.20758
3.95712
5.01556
6.56882
8.96366
12.9057
20.004
34.5478
70.8627
196.874
1000.22
0.0797757
0.0818135
0.0838805
0.0859777
0.0881079
0.0902739
0.0924787
0.0947253
0.0970167
0.099356
0.101746
0.104191
0.106693
0.109257
0.111885
0.114581
0.117349
0.120193
0.123117
0.126125
0.129223
0.132414
0.135704
0.139098
0.142602
0.146222
0.149963
0.153833
0.157839
0.161988
0.166288
0.170747
0.175374
0.18018
0.185173
0.190366
0.195769
0.201395
0.207258
0.213371
0.219751
0.226412
0.233373
0.240654
0.248273
0.256254
0.264621
0.273399
0.282616
0.292303
0.302494
0.313224
0.324533
0.336465
0.349067
0.362394
0.376504
0.391464
0.407348
0.424241
0.44224
0.461456
0.482018
0.504078
0.527817
0.553448
0.581233
0.611491
0.644619
0.681133
0.721666
0.766963
0.817947
0.875813
0.942116
1.01891
1.10893
1.21581
1.3445
1.5017
1.69666
1.94237
2.25738
2.66895
3.21836
3.97062
5.03281
6.59146
8.99443
12.9495
20.0704
34.6582
71.0741
197.383
1001.97
0.0800268
0.0820669
0.0841359
0.0862354
0.0883679
0.0905367
0.0927446
0.0949946
0.0972896
0.0996328
0.102027
0.104477
0.106984
0.109552
0.112185
0.114886
0.11766
0.12051
0.123441
0.126456
0.12956
0.132759
0.136057
0.139459
0.142971
0.1466
0.15035
0.15423
0.158246
0.162405
0.166715
0.171186
0.175825
0.180643
0.18565
0.190856
0.196274
0.201915
0.207793
0.213923
0.220319
0.226998
0.233978
0.241278
0.248918
0.256921
0.26531
0.274112
0.283354
0.293067
0.303284
0.314042
0.325381
0.337344
0.349979
0.363341
0.377487
0.392486
0.408411
0.425347
0.443393
0.462658
0.483274
0.505393
0.529195
0.554897
0.582761
0.613107
0.646337
0.68297
0.72364
0.769095
0.820265
0.878347
0.944909
1.02202
1.11241
1.21976
1.34902
1.50694
1.7028
1.94963
2.26608
2.67949
3.23133
3.98685
5.05357
6.6187
9.03144
13.0021
20.1502
34.791
71.3283
197.995
1004.07
0.0803206
0.0823629
0.0844342
0.0865362
0.0886718
0.0908438
0.0930552
0.095309
0.0976081
0.0999558
0.102355
0.104809
0.107322
0.109896
0.112535
0.115243
0.118023
0.12088
0.123818
0.126841
0.129954
0.133161
0.136468
0.139879
0.143402
0.14704
0.150802
0.154693
0.15872
0.162892
0.167215
0.171699
0.176353
0.181185
0.186207
0.191429
0.196864
0.202523
0.208419
0.214568
0.220984
0.227685
0.234687
0.24201
0.249674
0.257702
0.266118
0.274947
0.284218
0.293961
0.30421
0.315002
0.326375
0.338374
0.351047
0.364449
0.378637
0.39368
0.409652
0.426639
0.444737
0.46406
0.484739
0.506925
0.530802
0.556586
0.584542
0.614992
0.648341
0.685112
0.725943
0.771584
0.822969
0.881305
0.94817
1.02564
1.11648
1.22438
1.35431
1.51306
1.70996
1.95812
2.27624
2.69181
3.24649
4.00583
5.07783
6.65054
9.0747
13.0637
20.2435
34.9461
71.6253
198.709
1006.52
0.0806543
0.0826994
0.0847734
0.0868787
0.0890176
0.0911933
0.0934086
0.0956669
0.0979709
0.100324
0.102729
0.105189
0.107708
0.110288
0.112934
0.115649
0.118437
0.121303
0.124249
0.127281
0.130403
0.13362
0.136938
0.14036
0.143894
0.147544
0.151318
0.155222
0.159263
0.163449
0.167787
0.172287
0.176956
0.181806
0.186845
0.192086
0.19754
0.203218
0.209136
0.215307
0.221746
0.228471
0.235498
0.242847
0.250539
0.258596
0.267041
0.275902
0.285206
0.294984
0.305269
0.316098
0.327511
0.339552
0.35227
0.365717
0.379955
0.395049
0.411076
0.428121
0.446282
0.465671
0.486422
0.508686
0.532648
0.558527
0.586588
0.617156
0.65064
0.687569
0.728584
0.774436
0.826067
0.884693
0.951904