/*--------------------------------*- C++ -*----------------------------------*\
  =========                 |
  \\      /  F ield         | OpenFOAM: The Open Source CFD Toolbox
   \\    /   O peration     | Website:  https://openfoam.org
    \\  /    A nd           | Version:  7
     \\/     M anipulation  |
\*---------------------------------------------------------------------------*/
FoamFile
{
    version     2.0;
    format      ascii;
    class       volScalarField;
    location    "120000";
    object      strainRate;
}
// * * * * * * * * * * * * * * * * * * * * * * * * * * * * * * * * * * * * * //

dimensions      [0 0 -1 0 0 0 0];

internalField   nonuniform List<scalar> 
4783
(
0.0015873
0.00146679
0.0013687
0.00125069
0.0011235
0.000993032
0.000863296
0.00073797
0.000620781
0.000515213
0.000423883
0.000347992
0.000287383
0.000240443
0.000205313
0.000179601
0.000161266
0.000148429
0.000139401
0.000133091
0.000128945
0.000126339
0.00214195
0.00183188
0.00171649
0.00159229
0.00145971
0.00132244
0.00118401
0.00104749
0.000915745
0.00079155
0.000677517
0.000575772
0.000487654
0.00041348
0.000352727
0.000304067
0.000265651
0.000235917
0.00021333
0.000196422
0.000184071
0.000175328
0.00254589
0.00216282
0.00201899
0.00188614
0.00175505
0.00162275
0.00148932
0.00135603
0.00122454
0.00109671
0.000974517
0.000859947
0.000754821
0.000660558
0.000577988
0.000507269
0.000447911
0.000399093
0.000359755
0.000328648
0.000304493
0.000286337
0.00287669
0.00249344
0.00233528
0.00219052
0.00205424
0.00192225
0.00179231
0.00166374
0.00153679
0.0014122
0.00129104
0.00117456
0.00106413
0.000961124
0.000866757
0.000781957
0.000707264
0.000642805
0.000588362
0.000543431
0.000507321
0.000479376
0.00318242
0.00281037
0.00265189
0.00250195
0.00236066
0.00222619
0.0020966
0.00197058
0.00184752
0.00172737
0.00161047
0.00149739
0.00138892
0.00128594
0.00118941
0.00110026
0.00101931
0.000947159
0.00088421
0.00083063
0.000786402
0.000751381
0.00347571
0.00311435
0.00296002
0.00281072
0.00266795
0.00253183
0.00240161
0.00227642
0.00215558
0.00203874
0.00192585
0.00181709
0.00171284
0.00161359
0.00151997
0.00143263
0.00135226
0.0012795
0.00121492
0.00115899
0.00111204
0.00107432
0.00376016
0.00340858
0.00325859
0.00311225
0.00297076
0.00283487
0.00270471
0.00258003
0.00246046
0.00234572
0.00223567
0.00213036
0.00202995
0.00193474
0.00184512
0.00176153
0.00168447
0.00161445
0.00155198
0.00149753
0.00145152
0.00141431
0.0040376
0.00369533
0.00354902
0.00340596
0.00326693
0.00313263
0.00300351
0.00287974
0.00276128
0.00264806
0.00254
0.00243715
0.00233961
0.00224758
0.00216134
0.00208121
0.00200755
0.00194076
0.00188123
0.00182936
0.00178552
0.00175002
0.00430931
0.00397605
0.00383279
0.00369273
0.00355636
0.00342423
0.00329681
0.00317443
0.00305727
0.00294543
0.00283898
0.00273798
0.00264255
0.00255287
0.00246915
0.00239167
0.00232069
0.00225654
0.00219953
0.00214997
0.00210816
0.00207435
0.00457623
0.00425169
0.00411103
0.00397359
0.00383973
0.00370987
0.00358441
0.00346371
0.00334806
0.00323767
0.00313267
0.00303323
0.00293948
0.00285161
0.0027698
0.0026943
0.00262533
0.00256316
0.00250805
0.00246026
0.00242001
0.00238753
0.00483907
0.00452294
0.00438457
0.00424942
0.00411782
0.00399011
0.00386662
0.00374772
0.00363369
0.00352479
0.00342124
0.00332323
0.00323094
0.00314456
0.00306429
0.00299034
0.00292292
0.00286227
0.00280859
0.00276212
0.00272305
0.00269156
0.00509841
0.00479037
0.00465401
0.0045209
0.00439132
0.00426557
0.00414397
0.00402681
0.00391441
0.00380703
0.00370492
0.00360828
0.00351734
0.00343229
0.00335334
0.00328068
0.00321453
0.00315509
0.00310255
0.00305712
0.00301897
0.00298824
0.00535474
0.00505444
0.00491988
0.00478857
0.0046608
0.00453684
0.00441696
0.00430147
0.00419063
0.00408473
0.00398401
0.00388871
0.00379904
0.00371522
0.00363745
0.00356594
0.00350088
0.00344247
0.0033909
0.00334632
0.00330891
0.0032788
0.00560846
0.00531555
0.00518259
0.0050529
0.00492675
0.0048044
0.0046861
0.00457214
0.00446277
0.00435827
0.00425888
0.00416485
0.00407639
0.00399372
0.00391705
0.00384659
0.00378251
0.00372501
0.00367427
0.00363044
0.00359366
0.00356408
0.00585994
0.00557405
0.00544252
0.00531428
0.00518959
0.00506868
0.00495181
0.00483925
0.00473124
0.00462805
0.00452991
0.00443707
0.00434974
0.00426816
0.00419251
0.00412301
0.00405983
0.00400316
0.00395316
0.00390999
0.00610951
0.00583028
0.00570003
0.00557308
0.00544968
0.00533007
0.00521449
0.0051032
0.00499643
0.00489444
0.00479746
0.00470573
0.00461946
0.00453888
0.00446419
0.00439557
0.00433322
0.0042773
0.00422799
0.00635746
0.00608454
0.00595541
0.00582961
0.00570736
0.00558891
0.0054745
0.00536435
0.00525871
0.00515781
0.00506189
0.00497118
0.00488589
0.00480624
0.00473242
0.00466462
0.00460303
0.00660409
0.00633711
0.00620898
0.00608418
0.00596296
0.00584554
0.00573215
0.00562303
0.0055184
0.0054185
0.00532354
0.00523376
0.00514936
0.00507056
0.00684963
0.00658827
0.006461
0.00633708
0.00621675
0.00610024
0.00598777
0.00587956
0.00577583
0.00567681
0.00558273
0.00549379
0.00709433
0.00683826
0.00671173
0.00658857
0.00646902
0.0063533
0.00624163
0.00613422
0.00603129
0.00593306
0.00733841
0.00708731
0.00696141
0.0068389
0.00672002
0.00660498
0.006494
0.00638729
0.00628506
0.00758209
0.00733565
0.00721027
0.00708831
0.00696999
0.00685553
0.00674514
0.00663903
0.00782556
0.0075835
0.00745853
0.00733701
0.00721916
0.00710519
0.00699529
0.00806901
0.00783106
0.00770641
0.00758523
0.00746775
0.00735416
0.00831264
0.00807852
0.0079541
0.00783318
0.00771597
0.00760268
0.00855661
0.00832608
0.00820179
0.00808104
0.00796402
0.00880111
0.00857391
0.00844968
0.008329
0.00904628
0.00882219
0.00869793
0.00857725
0.00929229
0.00907109
0.00894673
0.0095393
0.00932078
0.00919623
0.00978746
0.00957141
0.00944661
0.0100369
0.00982315
0.00969803
0.0102878
0.0100762
0.00995063
0.0105403
0.0103306
0.0102046
0.0107946
0.0105866
0.01046
0.0110507
0.0108443
0.0107172
0.0113088
0.0111038
0.0109761
0.0115691
0.0113654
0.0112369
0.0118318
0.0116292
0.0114999
0.0120968
0.0118952
0.0117651
0.0123645
0.0121637
0.0120327
0.0126349
0.0124349
0.0123028
0.00158726
0.00214192
0.00254586
0.00287667
0.0031824
0.00347568
0.00376014
0.00403759
0.0043093
0.00457622
0.00483906
0.00509841
0.00535473
0.00560845
0.00585994
0.00610951
0.00635747
0.00660409
0.00684964
0.00709434
0.00733842
0.0075821
0.00782557
0.00806902
0.00831265
0.00855662
0.00880111
0.00904628
0.0092923
0.00953931
0.00978746
0.0100369
0.0102878
0.0105403
0.0107946
0.0110507
0.0113088
0.0115691
0.0118318
0.0120968
0.0123645
0.0126349
0.0014668
0.00183188
0.00216282
0.00249344
0.00281037
0.00311435
0.00340858
0.00369534
0.00397605
0.00425169
0.00452295
0.00479038
0.00505445
0.00531556
0.00557406
0.00583029
0.00608455
0.00633713
0.00658828
0.00683827
0.00708732
0.00733567
0.00758352
0.00783107
0.00807853
0.00832609
0.00857391
0.00882219
0.00907109
0.00932078
0.00957141
0.00982315
0.0100762
0.0103306
0.0105866
0.0108443
0.0111038
0.0113654
0.0116292
0.0118952
0.0121637
0.0124349
0.00136871
0.00171649
0.00201899
0.00233528
0.00265189
0.00296002
0.0032586
0.00354902
0.00383279
0.00411104
0.00438458
0.00465403
0.00491989
0.0051826
0.00544254
0.00570004
0.00595543
0.006209
0.00646102
0.00671175
0.00696143
0.00721029
0.00745856
0.00770643
0.00795412
0.00820182
0.0084497
0.00869795
0.00894674
0.00919624
0.00944661
0.00969802
0.00995063
0.0102046
0.01046
0.0107171
0.010976
0.0112369
0.0114998
0.0117651
0.0120327
0.0123028
0.00125069
0.0015923
0.00188614
0.00219052
0.00250195
0.00281072
0.00311225
0.00340597
0.00369274
0.0039736
0.00424944
0.00452092
0.0047886
0.00505292
0.00531431
0.0055731
0.00582963
0.00608421
0.00633711
0.0065886
0.00683893
0.00708834
0.00733704
0.00758527
0.00783321
0.00808107
0.00832903
0.00857729
0.008826
0.00907534
0.00932549
0.00957661
0.00982885
0.0100824
0.0103373
0.0105939
0.0108521
0.0111123
0.0113745
0.0116389
0.0119057
0.0121749
0.00112349
0.00145972
0.00175505
0.00205424
0.00236066
0.00266795
0.00297076
0.00326693
0.00355637
0.00383975
0.00411784
0.00439134
0.00466083
0.00492678
0.00518962
0.00544971
0.0057074
0.005963
0.00621679
0.00646906
0.00672006
0.00697003
0.0072192
0.00746779
0.00771601
0.00796407
0.00821214
0.00846042
0.00870909
0.00895831
0.00920827
0.00945912
0.00971103
0.00996415
0.0102187
0.0104747
0.0107324
0.0109919
0.0112534
0.011517
0.011783
0.0120513
0.000993021
0.00132244
0.00162275
0.00192225
0.0022262
0.00253183
0.00283487
0.00313263
0.00342424
0.00370988
0.00399012
0.0042656
0.00453687
0.00480443
0.00506871
0.00533011
0.00558896
0.00584559
0.00610029
0.00635335
0.00660504
0.00685559
0.00710524
0.00735422
0.00760274
0.00785101
0.00809922
0.00834756
0.0085962
0.00884534
0.00909513
0.00934575
0.00959737
0.00985013
0.0101042
0.0103598
0.0106169
0.0108758
0.0111367
0.0113996
0.0116647
0.0119322
0.000863279
0.001184
0.00148932
0.00179231
0.0020966
0.00240161
0.00270471
0.00300351
0.00329682
0.00358442
0.00386664
0.00414399
0.004417
0.00468614
0.00495185
0.00521454
0.00547455
0.00573221
0.00598783
0.00624169
0.00649407
0.00674521
0.00699536
0.00724475
0.0074936
0.0077421
0.00799046
0.00823888
0.00848754
0.00873661
0.00898628
0.0092367
0.00948805
0.00974049
0.00999419
0.0102493
0.0105059
0.0107643
0.0110245
0.0112868
0.0115512
0.0118179
0.000737946
0.00104748
0.00135603
0.00166374
0.00197058
0.00227643
0.00258003
0.00287974
0.00317443
0.00346372
0.00374773
0.00402684
0.0043015
0.00457218
0.00483929
0.00510325
0.0053644
0.00562309
0.00587962
0.00613429
0.00638737
0.00663912
0.00688978
0.00713959
0.00738877
0.00763753
0.00788607
0.0081346
0.00838329
0.00863232
0.00888189
0.00913215
0.00938327
0.00963542
0.00988877
0.0101435
0.0103997
0.0106575
0.0109172
0.0111788
0.0114425
0.0117085
0.00062075
0.00091573
0.00122453
0.00153679
0.00184752
0.00215558
0.00246046
0.00276129
0.00305728
0.00334808
0.00363371
0.00391444
0.00419067
0.00446281
0.00473129
0.00499649
0.00525877
0.00551847
0.00577591
0.00603138
0.00628516
0.00653752
0.0067887
0.00703894
0.00728847
0.0075375
0.00778624
0.00803489
0.00828363
0.00853266
0.00878215
0.00903227
0.0092832
0.00953509
0.00978812
0.0100424
0.0102982
0.0105556
0.0108147
0.0110758
0.0113389
0.0116042
0.000515177
0.000791528
0.0010967
0.0014122
0.00172737
0.00203874
0.00234572
0.00264806
0.00294544
0.00323768
0.00352481
0.00380706
0.00408476
0.00435831
0.0046281
0.0048945
0.00515788
0.00541857
0.0056769
0.00593317
0.00618765
0.00644061
0.00669231
0.00694299
0.00719288
0.00744219
0.00769115
0.00793994
0.00818876
0.0084378
0.00868723
0.00893725
0.00918801
0.00943968
0.00969243
0.00994642
0.0102018
0.0104588
0.0107174
0.0109779
0.0112404
0.0115051
0.000423843
0.000677488
0.0009745
0.00129103
0.00161047
0.00192585
0.00223567
0.00254001
0.00283898
0.00313269
0.00342126
0.00370494
0.00398404
0.00425893
0.00452996
0.00479753
0.00506197
0.00532363
0.00558283
0.00583987
0.00609504
0.00634861
0.00660083
0.00685195
0.0071022
0.0073518
0.00760098
0.00784993
0.00809884
0.00834791
0.00859732
0.00884725
0.00909787
0.00934935
0.00960186
0.00985555
0.0101106
0.0103671
0.0106253
0.0108854
0.0111473
0.0114115
0.00034795
0.000575737
0.000859924
0.00117455
0.00149739
0.00181709
0.00213036
0.00243716
0.00273798
0.00303324
0.00332325
0.00360831
0.00388874
0.00416489
0.00443712
0.0047058
0.00497126
0.00523386
0.0054939
0.0057517
0.00600755
0.00626171
0.00651444
0.006766
0.00701661
0.00726651
0.00751592
0.00776503
0.00801405
0.00826316
0.00851257
0.00876244
0.00901294
0.00926426
0.00951655
0.00976998
0.0100247
0.0102809
0.0105387
0.0107983
0.0110598
0.0113233
0.0115891
0.000287339
0.000487613
0.000754791
0.00106411
0.00138891
0.00171284
0.00202995
0.00233962
0.00264256
0.0029395
0.00323097
0.00351737
0.00379907
0.00407643
0.0043498
0.00461953
0.00488598
0.00514947
0.00541033
0.00566887
0.00592536
0.00618009
0.00643333
0.00668532
0.0069363
0.00718649
0.00743613
0.00768542
0.00793455
0.00818373
0.00843314
0.00868297
0.00893339
0.00918456
0.00943666
0.00968986
0.00994431
0.0102002
0.0104576
0.0107168
0.0109778
0.0112409
0.0115062
0.0117738
0.000240399
0.000413435
0.000660521
0.0009611
0.00128593
0.00161359
0.00193475
0.00224759
0.00255288
0.00285162
0.00314459
0.00343232
0.00371526
0.00399377
0.00426822
0.00453896
0.00480633
0.00507068
0.00533232
0.00559155
0.00584867
0.00610396
0.00635768
0.00661009
0.00686142
0.00711192
0.00736179
0.00761125
0.00786051
0.00810976
0.0083592
0.008609
0.00885934
0.0091104
0.00936234
0.00961533
0.00986954
0.0101251
0.0103822
0.010641
0.0109017
0.0111643
0.0114291
0.0116962
0.000205271
0.000352679
0.000577944
0.000866725
0.00118939
0.00151996
0.00184512
0.00216135
0.00246917
0.00276982
0.00306432
0.00335337
0.00363749
0.0039171
0.00419257
0.00446427
0.00473252
0.00499768
0.00526005
0.00551995
0.00577767
0.00603349
0.00628767
0.00654048
0.00679216
0.00704294
0.00729304
0.00754269
0.00779208
0.00804141
0.00829088
0.00854066
0.00879095
0.00904191
0.00929371
0.00954653
0.00980052
0.0100559
0.0103127
0.0105712
0.0108314
0.0110937
0.0113581
0.0116247
0.0118938
0.00017956
0.000304016
0.000507219
0.000781919
0.00110024
0.00143262
0.00176153
0.00208121
0.00239168
0.00269432
0.00299036
0.00328071
0.00356598
0.00384664
0.00412307
0.00439566
0.00466474
0.00493065
0.00519371
0.00545423
0.00571251
0.00596883
0.00622346
0.00647665
0.00672866
0.00697972
0.00723005
0.00747987
0.00772939
0.0079788
0.00822831
0.0084781
0.00872834
0.00897922
0.00923091
0.00948358
0.00973738
0.00999249
0.0102491
0.0105072
0.0107672
0.0110291
0.0112931
0.0115593
0.0118279
0.000161227
0.000265598
0.000447856
0.000707218
0.00101928
0.00135224
0.00168446
0.00200755
0.0023207
0.00262535
0.00292295
0.00321456
0.00350093
0.00378257
0.0040599
0.00433332
0.00460316
0.00486977
0.00513347
0.00539457
0.00565338
0.00591016
0.0061652
0.00641875
0.00667107
0.00692239
0.00717293
0.00742292
0.00767257
0.00792207
0.00817163
0.00842142
0.00867164
0.00892246
0.00917405
0.00942658
0.00968023
0.00993514
0.0101915
0.0104494
0.0107091
0.0109707
0.0112343
0.0115002
0.0117684
0.0120391
0.000148392
0.000235864
0.000399034
0.000642752
0.000947124
0.00127948
0.00161444
0.00194076
0.00225655
0.00256318
0.00286229
0.00315512
0.00344252
0.00372507
0.00400324
0.00427741
0.00454796
0.00481521
0.00507949
0.00534113
0.00560041
0.00585762
0.00611303
0.00636692
0.00661952
0.00687108
0.00712183
0.00737198
0.00762175
0.00787133
0.00812094
0.00837075
0.00862095
0.00887172
0.00912323
0.00937565
0.00962916
0.00988391
0.0101401
0.0103978
0.0106572
0.0109185
0.0111818
0.0114474
0.0117152
0.0119856
0.0122586
0.000139366
0.000213277
0.000359692
0.000588303
0.000884167
0.0012149
0.00155197
0.00188124
0.00219954
0.00250807
0.00280862
0.00310259
0.00339094
0.00367433
0.00395325
0.00422811
0.00449929
0.00476711
0.00503192
0.00529403
0.00555374
0.00581133
0.00606709
0.00632128
0.00657414
0.00682592
0.00707685
0.00732715
0.00757703
0.0078267
0.00807635
0.00832618
0.00857637
0.00882711
0.00907855
0.00933089
0.00958427
0.00983887
0.0100949
0.0103524
0.0106116
0.0108727
0.0111357
0.011401
0.0116686
0.0119386
0.0122113
0.000133059
0.000196369
0.000328581
0.000543364
0.000830581
0.00115896
0.00149752
0.00182937
0.00214998
0.00246027
0.00276215
0.00305716
0.00334637
0.00363051
0.0039101
0.00418556
0.00445729
0.00472562
0.00499089
0.00525341
0.0055135
0.00577143
0.00602749
0.00628194
0.00653503
0.006787
0.0070381
0.00728853
0.00753851
0.00778825
0.00803796
0.00828781
0.008538
0.0087887
0.0090401
0.00929236
0.00954565
0.00980013
0.010056
0.0103133
0.0105724
0.0108332
0.0110961
0.0113611
0.0116284
0.0118982
0.0121706
0.000128916
0.000184019
0.000304421
0.000507248
0.000786345
0.00111201
0.00145151
0.00178552
0.00210817
0.00242003
0.00272308
0.003019
0.00330896
0.00359375
0.00387391
0.00414989
0.00442208
0.00469084
0.00495651
0.00521939
0.00547979
0.00573801
0.00599433
0.006249
0.00650229
0.00675443
0.00700566
0.00725621
0.00750628
0.00775609
0.00800584
0.00825571
0.0085059
0.00875658
0.00900794
0.00926015
0.00951336
0.00976775
0.0100235
0.0102807
0.0105396
0.0108003
0.011063
0.0113278
0.0115949
0.0118644
0.0121366
0.000126312
0.000175275
0.000286261
0.000479296
0.000751317
0.00107428
0.0014143
0.00175002
0.00207436
0.00238754
0.00269159
0.00298828
0.00327886
0.00356417
0.0038448
0.00412121
0.00439379
0.0046629
0.00492888
0.00519205
0.00545271
0.00571117
0.00596769
0.00622255
0.006476
0.00672828
0.00697962
0.00723026
0.00748041
0.00773027
0.00798006
0.00822995
0.00848014
0.00873081
0.00898214
0.0092343
0.00948745
0.00974176
0.0099974
0.0102545
0.0105133
0.0107739
0.0110364
0.0113011
0.011568
0.0118373
0.0121093
0.012384
0.000124636
0.000169317
0.000273398
0.000458946
0.000725302
0.0010459
0.00138615
0.00172315
0.00204879
0.00236301
0.00266783
0.00296511
0.00325617
0.0035419
0.00382289
0.00409962
0.00437249
0.00464186
0.00490808
0.00517147
0.00543234
0.00569097
0.00594765
0.00620265
0.00645622
0.0067086
0.00696004
0.00721075
0.00746096
0.00771086
0.00796068
0.00821058
0.00846078
0.00871144
0.00896275
0.00921487
0.00946797
0.00972223
0.00997781
0.0102349
0.0104935
0.010754
0.0110165
0.011281
0.0115478
0.011817
0.0120888
0.0123634
0.000123621
0.0001656
0.000265192
0.000445696
0.0007081
0.00102696
0.00136727
0.00170511
0.00203165
0.00234657
0.00265193
0.00294961
0.003241
0.003527
0.00380823
0.00408518
0.00435825
0.0046278
0.00489419
0.00515772
0.00541872
0.00567747
0.00593426
0.00618935
0.00644301
0.00669546
0.00694696
0.00719772
0.00744796
0.0076979
0.00794773
0.00819766
0.00844785
0.00869851
0.0089498
0.0092019
0.00945497
0.00970919
0.00996473
0.0102217
0.0104804
0.0107408
0.0110031
0.0112676
0.0115343
0.0118035
0.0120752
0.0123496
0.0126269
0.000123139
0.000163813
0.0002612
0.000439171
0.000699546
0.00101748
0.0013578
0.00169605
0.00202304
0.00233833
0.00264395
0.00294184
0.0032334
0.00351953
0.00380089
0.00407794
0.00435111
0.00462076
0.00488723
0.00515084
0.0054119
0.00567072
0.00592756
0.0061827
0.00643639
0.00668888
0.00694041
0.0071912
0.00744146
0.00769142
0.00794126
0.00819119
0.00844138
0.00869204
0.00894332
0.00919541
0.00944847
0.00970268
0.00995819
0.0102152
0.0104738
0.0107341
0.0109965
0.0112609
0.0115276
0.0117967
0.0120683
0.0123427
0.01262
0.000123139
0.000163812
0.000261199
0.00043917
0.000699544
0.00101747
0.0013578
0.00169605
0.00202304
0.00233832
0.00264395
0.00294184
0.00323339
0.00351953
0.00380089
0.00407794
0.00435111
0.00462076
0.00488722
0.00515084
0.0054119
0.00567072
0.00592756
0.0061827
0.00643639
0.00668888
0.00694041
0.0071912
0.00744147
0.00769142
0.00794127
0.00819119
0.00844139
0.00869204
0.00894332
0.00919541
0.00944848
0.00970268
0.00995819
0.0102152
0.0104738
0.0107342
0.0109965
0.0112609
0.0115276
0.0117967
0.0120683
0.0123427
0.01262
0.0129003
0.00012362
0.0001656
0.00026519
0.000445692
0.000708095
0.00102695
0.00136727
0.0017051
0.00203164
0.00234657
0.00265192
0.0029496
0.00324099
0.00352699
0.00380822
0.00408517
0.00435824
0.00462779
0.00489418
0.00515772
0.00541872
0.00567747
0.00593426
0.00618935
0.00644301
0.00669547
0.00694697
0.00719773
0.00744798
0.00769792
0.00794775
0.00819767
0.00844787
0.00869852
0.00894981
0.00920191
0.00945499
0.00970922
0.00996475
0.0102217
0.0104804
0.0107408
0.0110031
0.0112676
0.0115343
0.0118035
0.0120752
0.0123496
0.0126269
0.0129073
0.000124636
0.000169316
0.000273394
0.00045894
0.000725293
0.00104589
0.00138614
0.00172314
0.00204878
0.002363
0.00266782
0.0029651
0.00325616
0.00354188
0.00382287
0.0040996
0.00437247
0.00464185
0.00490807
0.00517147
0.00543233
0.00569097
0.00594765
0.00620265
0.00645622
0.00670861
0.00696006
0.00721077
0.00746098
0.00771089
0.0079607
0.00821061
0.00846081
0.00871147
0.00896277
0.00921489
0.009468
0.00972226
0.00997784
0.0102349
0.0104936
0.0107541
0.0110165
0.011281
0.0115478
0.011817
0.0120888
0.0123634
0.0126408
0.0129213
0.000126311
0.000175273
0.000286256
0.000479288
0.000751305
0.00107426
0.00141428
0.00175001
0.00207435
0.00238753
0.00269157
0.00298826
0.00327884
0.00356416
0.00384479
0.00412119
0.00439377
0.00466288
0.00492886
0.00519204
0.00545271
0.00571117
0.00596769
0.00622255
0.00647601
0.00672829
0.00697964
0.00723029
0.00748044
0.00773031
0.00798009
0.00822999
0.00848018
0.00873085
0.00898218
0.00923433
0.00948749
0.0097418
0.00999744
0.0102546
0.0105133
0.0107739
0.0110365
0.0113011
0.011568
0.0118374
0.0121093
0.012384
0.0126616
0.0129423
0.000128915
0.000184016
0.000304414
0.000507237
0.00078633
0.00111199
0.00145149
0.0017855
0.00210815
0.00242
0.00272306
0.00301898
0.00330894
0.00359372
0.00387389
0.00414987
0.00442206
0.00469083
0.00495649
0.00521937
0.00547978
0.00573801
0.00599433
0.00624901
0.0065023
0.00675445
0.00700569
0.00725624
0.00750631
0.00775613
0.00800588
0.00825576
0.00850595
0.00875664
0.00900799
0.00926019
0.00951341
0.0097678
0.0100235
0.0102808
0.0105397
0.0108004
0.011063
0.0113278
0.0115949
0.0118645
0.0121366
0.0124115
0.0126893
0.0129702
0.000133058
0.000196366
0.000328573
0.00054335
0.000830562
0.00115894
0.00149749
0.00182934
0.00214996
0.00246025
0.00276212
0.00305713
0.00334635
0.00363048
0.00391007
0.00418554
0.00445726
0.0047256
0.00499087
0.0052534
0.00551349
0.00577143
0.00602749
0.00628195
0.00653504
0.00678703
0.00703812
0.00728856
0.00753855
0.0077883
0.00803801
0.00828787
0.00853806
0.00878877
0.00904017
0.00929243
0.00954572
0.00980021
0.0100561
0.0103134
0.0105724
0.0108333
0.0110962
0.0113612
0.0116285
0.0118983
0.0121706
0.0124458
0.0127239
0.0130051
0.000139365
0.000213273
0.000359682
0.000588286
0.000884145
0.00121488
0.00155194
0.00188121
0.00219951
0.00250804
0.00280859
0.00310256
0.00339091
0.00367431
0.00395323
0.00422809
0.00449926
0.00476709
0.0050319
0.00529402
0.00555373
0.00581133
0.0060671
0.00632129
0.00657416
0.00682594
0.00707688
0.00732719
0.00757708
0.00782675
0.00807641
0.00832625
0.00857645
0.00882719
0.00907864
0.00933097
0.00958436
0.00983897
0.010095
0.0103525
0.0106117
0.0108727
0.0111358
0.0114011
0.0116686
0.0119387
0.0122114
0.0124868
0.0127653
0.0130468
0.000148391
0.000235859
0.000399022
0.000642732
0.000947097
0.00127945
0.00161441
0.00194073
0.00225652
0.00256315
0.00286226
0.00315509
0.00344249
0.00372504
0.00400321
0.00427739
0.00454793
0.00481519
0.00507948
0.00534111
0.0056004
0.00585762
0.00611304
0.00636693
0.00661954
0.00687111
0.00712186
0.00737202
0.0076218
0.0078714
0.00812101
0.00837083
0.00862104
0.00887182
0.00912333
0.00937576
0.00962926
0.00988401
0.0101402
0.0103979
0.0106573
0.0109186
0.0111819
0.0114475
0.0117153
0.0119857
0.0122587
0.0125346
0.0128134
0.0130954
0.000161227
0.000265593
0.000447842
0.000707195
0.00101925
0.00135221
0.00168443
0.00200752
0.00232067
0.00262532
0.00292291
0.00321453
0.0035009
0.00378254
0.00405988
0.00433329
0.00460314
0.00486975
0.00513346
0.00539456
0.00565337
0.00591016
0.00616521
0.00641877
0.00667109
0.00692242
0.00717298
0.00742298
0.00767263
0.00792214
0.00817171
0.00842151
0.00867174
0.00892257
0.00917416
0.0094267
0.00968034
0.00993525
0.0101916
0.0104495
0.0107092
0.0109708
0.0112344
0.0115003
0.0117685
0.0120392
0.0123127
0.012589
0.0128682
0.0131507
0.00017956
0.00030401
0.000507203
0.000781892
0.00110021
0.00143258
0.00176149
0.00208117
0.00239164
0.00269428
0.00299033
0.00328068
0.00356595
0.00384661
0.00412305
0.00439563
0.00466472
0.00493063
0.0051937
0.00545422
0.00571251
0.00596883
0.00622347
0.00647667
0.00672869
0.00697976
0.0072301
0.00747993
0.00772946
0.00797889
0.0082284
0.0084782
0.00872845
0.00897934
0.00923103
0.0094837
0.0097375
0.00999261
0.0102492
0.0105074
0.0107673
0.0110292
0.0112932
0.0115594
0.011828
0.0120992
0.0123731
0.0126499
0.0129297
0.0132126
0.000205271
0.000352671
0.000577924
0.000866693
0.00118935
0.00151992
0.00184508
0.0021613
0.00246912
0.00276978
0.00306428
0.00335333
0.00363746
0.00391707
0.00419255
0.00446424
0.0047325
0.00499766
0.00526004
0.00551994
0.00577766
0.00603349
0.00628768
0.0065405
0.00679219
0.00704299
0.0072931
0.00754276
0.00779216
0.0080415
0.00829098
0.00854078
0.00879107
0.00904203
0.00929384
0.00954666
0.00980065
0.010056
0.0103128
0.0105713
0.0108316
0.0110938
0.0113582
0.0116248
0.0118939
0.0121656
0.01244
0.0127173
0.0129976
0.0132812
0.0002404
0.000413424
0.000660496
0.000961063
0.00128588
0.00161354
0.0019347
0.00224754
0.00255284
0.00285158
0.00314455
0.00343229
0.00371523
0.00399374
0.00426819
0.00453894
0.00480632
0.00507067
0.00533231
0.00559154
0.00584867
0.00610397
0.0063577
0.00661012
0.00686146
0.00711197
0.00736185
0.00761133
0.0078606
0.00810987
0.00835931
0.00860912
0.00885946
0.00911053
0.00936247
0.00961547
0.00986967
0.0101253
0.0103824
0.0106412
0.0109018
0.0111645
0.0114293
0.0116964
0.011966
0.0122382
0.0125131
0.012791
0.013072
0.0133563
0.00028734
0.0004876
0.000754761
0.00106407
0.00138886
0.00171278
0.0020299
0.00233957
0.00264251
0.00293946
0.00323093
0.00351734
0.00379905
0.00407641
0.00434978
0.00461952
0.00488597
0.00514946
0.00541033
0.00566886
0.00592536
0.0061801
0.00643335
0.00668535
0.00693634
0.00718655
0.0074362
0.0076855
0.00793465
0.00818384
0.00843326
0.0086831
0.00893352
0.0091847
0.0094368
0.00969
0.00994445
0.0102003
0.0104578
0.0107169
0.010978
0.0112411
0.0115064
0.011774
0.0120441
0.0123169
0.0125925
0.012871
0.0131527
0.0134377
0.000347949
0.000575719
0.000859887
0.0011745
0.00149733
0.00181703
0.00213031
0.0024371
0.00273794
0.0030332
0.00332321
0.00360828
0.00388871
0.00416487
0.0044371
0.00470578
0.00497125
0.00523385
0.0054939
0.00575171
0.00600755
0.00626172
0.00651446
0.00676603
0.00701666
0.00726657
0.00751599
0.00776512
0.00801415
0.00826328
0.00851269
0.00876257
0.00901308
0.0092644
0.0095167
0.00977013
0.0100249
0.0102811
0.0105389
0.0107984
0.0110599
0.0113235
0.0115893
0.0118575
0.0121282
0.0124017
0.0126779
0.0129572
0.0132397
0.0135255
0.000423839
0.000677463
0.000974456
0.00129098
0.00161041
0.00192579
0.00223562
0.00253996
0.00283894
0.00313264
0.00342122
0.00370491
0.00398402
0.00425891
0.00452995
0.00479751
0.00506196
0.00532363
0.00558283
0.00583988
0.00609506
0.00634863
0.00660086
0.00685199
0.00710225
0.00735187
0.00760106
0.00785002
0.00809894
0.00834802
0.00859744
0.00884738
0.00909802
0.00934951
0.00960202
0.00985571
0.0101108
0.0103673
0.0106255
0.0108855
0.0111475
0.0114116
0.011678
0.0119468
0.0122182
0.0124924
0.0127694
0.0130494
0.0133327
0.0136194
0.000515167
0.000791495
0.00109665
0.00141214
0.00172731
0.00203868
0.00234566
0.00264801
0.00294539
0.00323764
0.00352477
0.00380703
0.00408474
0.0043583
0.00462809
0.00489449
0.00515788
0.00541858
0.00567691
0.00593318
0.00618767
0.00644064
0.00669235
0.00694304
0.00719294
0.00744226
0.00769123
0.00794003
0.00818886
0.00843791
0.00868736
0.00893739
0.00918816
0.00943985
0.00969261
0.0099466
0.010202
0.0104589
0.0107176
0.0109781
0.0112406
0.0115053
0.0117723
0.0120418
0.0123139
0.0125888
0.0128666
0.0131476
0.0134317
0.0137193
0.000620731
0.000915687
0.00122447
0.00153672
0.00184745
0.00215552
0.0024604
0.00276123
0.00305723
0.00334804
0.00363367
0.00391441
0.00419065
0.0044628
0.00473128
0.00499649
0.00525877
0.00551848
0.00577592
0.0060314
0.00628519
0.00653755
0.00678874
0.00703899
0.00728853
0.00753757
0.00778632
0.00803498
0.00828374
0.00853278
0.00878228
0.00903242
0.00928336
0.00953527
0.00978831
0.0100426
0.0102984
0.0105558
0.0108149
0.011076
0.0113391
0.0116044
0.0118721
0.0121423
0.0124152
0.0126909
0.0129696
0.0132514
0.0135366
0.0138252
0.000737915
0.00104743
0.00135596
0.00166367
0.00197051
0.00227636
0.00257997
0.00287969
0.00317439
0.00346369
0.00374771
0.00402682
0.00430149
0.00457217
0.00483929
0.00510325
0.00536441
0.0056231
0.00587964
0.00613432
0.0063874
0.00663916
0.00688983
0.00713965
0.00738884
0.00763761
0.00788616
0.0081347
0.0083834
0.00863245
0.00888203
0.0091323
0.00938344
0.00963561
0.00988896
0.0101437
0.0103998
0.0106577
0.0109174
0.011179
0.0114427
0.0117087
0.0119771
0.0122481
0.0125218
0.0127984
0.0130781
0.0133609
0.013647
0.0139367
0.000863236
0.00118394
0.00148925
0.00179224
0.00209653
0.00240155
0.00270465
0.00300346
0.00329678
0.00358439
0.00386662
0.00414397
0.00441699
0.00468613
0.00495186
0.00521455
0.00547456
0.00573223
0.00598785
0.00624172
0.00649411
0.00674526
0.00699542
0.00724482
0.00749367
0.00774218
0.00799056
0.00823899
0.00848766
0.00873674
0.00898642
0.00923686
0.00948823
0.00974068
0.00999438
0.0102495
0.0105061
0.0107645
0.0110247
0.011287
0.0115514
0.0118181
0.0120873
0.0123592
0.0126338
0.0129113
0.0131919
0.0134758
0.013763
0.0140538
0.000992966
0.00132237
0.00162267
0.00192217
0.00222612
0.00253176
0.00283481
0.00313258
0.0034242
0.00370985
0.0039901
0.00426559
0.00453686
0.00480443
0.00506872
0.00533012
0.00558898
0.00584561
0.00610032
0.00635339
0.00660508
0.00685564
0.0071053
0.0073543
0.00760283
0.0078511
0.00809932
0.00834766
0.00859632
0.00884547
0.00909528
0.00934592
0.00959755
0.00985032
0.0101044
0.0103599
0.0106171
0.010876
0.0111369
0.0113998
0.0116649
0.0119325
0.0122025
0.0124752
0.0127507
0.0130293
0.0133109
0.0135959
0.0138843
0.0141763
0.00112343
0.00145964
0.00175497
0.00205416
0.00236059
0.00266789
0.00297071
0.00326689
0.00355634
0.00383972
0.00411783
0.00439134
0.00466083
0.00492679
0.00518963
0.00544973
0.00570743
0.00596303
0.00621683
0.00646911
0.00672012
0.0069701
0.00721928
0.00746788
0.00771611
0.00796416
0.00821224
0.00846053
0.00870921
0.00895845
0.00920842
0.00945929
0.00971121
0.00996434
0.0102188
0.0104749
0.0107326
0.0109921
0.0112536
0.0115172
0.0117832
0.0120515
0.0123224
0.0125961
0.0128726
0.0131522
0.013435
0.0137211
0.0140107
0.014304
0.00125061
0.00159221
0.00188606
0.00219044
0.00250188
0.00281066
0.0031122
0.00340593
0.00369271
0.00397359
0.00424943
0.00452092
0.0047886
0.00505294
0.00531433
0.00557313
0.00582967
0.00608425
0.00633716
0.00658865
0.00683899
0.00708841
0.00733712
0.00758536
0.00783331
0.00808117
0.00832914
0.0085774
0.00882613
0.00907549
0.00932565
0.00957678
0.00982902
0.0100825
0.0103375
0.010594
0.0108523
0.0111125
0.0113747
0.0116391
0.0119058
0.0121751
0.0124469
0.0127216
0.0129992
0.0132799
0.0135638
0.0138512
0.0141421
0.0144368
0.00136863
0.0017164
0.0020189
0.0023352
0.00265182
0.00295996
0.00325855
0.00354899
0.00383277
0.00411103
0.00438458
0.00465404
0.00491991
0.00518263
0.00544257
0.00570008
0.00595548
0.00620905
0.00646107