/*--------------------------------*- C++ -*----------------------------------*\
  =========                 |
  \\      /  F ield         | OpenFOAM: The Open Source CFD Toolbox
   \\    /   O peration     | Website:  https://openfoam.org
    \\  /    A nd           | Version:  7
     \\/     M anipulation  |
\*---------------------------------------------------------------------------*/
FoamFile
{
    version     2.0;
    format      ascii;
    class       volScalarField;
    location    "240000";
    object      p;
}
// * * * * * * * * * * * * * * * * * * * * * * * * * * * * * * * * * * * * * //

dimensions      [0 2 -2 0 0 0 0];

internalField   nonuniform List<scalar> 
4814
(
-2.14623e-18
-2.13573e-18
-2.12682e-18
-2.11813e-18
-2.17989e-18
-2.17833e-18
-2.17868e-18
-2.17491e-18
-2.17588e-18
-2.17777e-18
-2.18688e-18
-2.17893e-18
-2.17971e-18
-2.16976e-18
-2.17231e-18
-2.15699e-18
-2.15696e-18
-2.14514e-18
-2.14892e-18
-2.13383e-18
-2.12966e-18
-2.11594e-18
-2.11692e-18
-2.103e-18
-2.1032e-18
-2.09154e-18
-2.09462e-18
-2.09342e-18
-2.09383e-18
-2.09217e-18
-2.09759e-18
-2.09766e-18
-2.10284e-18
-2.107e-18
-2.10761e-18
-2.10507e-18
-2.10497e-18
-2.10267e-18
-2.18553e-18
-2.17554e-18
-2.17995e-18
-2.17018e-18
-2.17661e-18
-2.18535e-18
-2.18174e-18
-2.17543e-18
-2.18125e-18
-2.16796e-18
-2.17304e-18
-2.15148e-18
-2.16214e-18
-2.14814e-18
-2.14984e-18
-2.13371e-18
-2.12947e-18
-2.11643e-18
-2.11574e-18
-2.10281e-18
-2.1033e-18
-2.09288e-18
-2.09435e-18
-2.09332e-18
-2.09199e-18
-2.09216e-18
-2.09823e-18
-2.09787e-18
-2.10025e-18
-2.10592e-18
-2.11044e-18
-2.10564e-18
-2.10404e-18
-2.10287e-18
-2.10095e-18
-2.08775e-18
-2.08831e-18
-2.07747e-18
-2.07448e-18
-2.06763e-18
-2.06638e-18
-2.18471e-18
-2.17806e-18
-2.17705e-18
-2.16886e-18
-2.17676e-18
-2.18372e-18
-2.18157e-18
-2.17569e-18
-2.17679e-18
-2.16842e-18
-2.17098e-18
-2.15176e-18
-2.165e-18
-2.14835e-18
-2.14759e-18
-2.13236e-18
-2.12875e-18
-2.1136e-18
-2.11554e-18
-2.10197e-18
-2.10286e-18
-2.09442e-18
-2.09381e-18
-2.09411e-18
-2.09377e-18
-2.09152e-18
-2.09619e-18
-2.09807e-18
-2.10097e-18
-2.10547e-18
-2.11148e-18
-2.10647e-18
-2.10548e-18
-2.10336e-18
-2.10131e-18
-2.08883e-18
-2.09309e-18
-2.07361e-18
-2.07741e-18
-2.0689e-18
-2.06681e-18
-2.06637e-18
-2.07228e-18
-2.07041e-18
-2.17958e-18
-2.18131e-18
-2.17561e-18
-2.17438e-18
-2.17801e-18
-2.18077e-18
-2.18645e-18
-2.17843e-18
-2.17529e-18
-2.17278e-18
-2.16963e-18
-2.15531e-18
-2.15935e-18
-2.14762e-18
-2.14834e-18
-2.13098e-18
-2.12896e-18
-2.11248e-18
-2.11368e-18
-2.10514e-18
-2.10335e-18
-2.09326e-18
-2.09268e-18
-2.09315e-18
-2.09494e-18
-2.08969e-18
-2.09539e-18
-2.09825e-18
-2.10225e-18
-2.1056e-18
-2.1111e-18
-2.10813e-18
-2.10633e-18
-2.10268e-18
-2.102e-18
-2.08952e-18
-2.09242e-18
-2.08174e-18
-2.07464e-18
-2.06841e-18
-2.06779e-18
-2.07001e-18
-2.06871e-18
-2.06668e-18
-2.18299e-18
-2.17865e-18
-2.17821e-18
-2.17384e-18
-2.18032e-18
-2.17543e-18
-2.18391e-18
-2.17367e-18
-2.17769e-18
-2.17041e-18
-2.17003e-18
-2.1573e-18
-2.15697e-18
-2.14882e-18
-2.15395e-18
-2.13266e-18
-2.12697e-18
-2.1147e-18
-2.11332e-18
-2.1048e-18
-2.1033e-18
-2.09523e-18
-2.0933e-18
-2.09219e-18
-2.0944e-18
-2.0907e-18
-2.09461e-18
-2.09814e-18
-2.10208e-18
-2.10572e-18
-2.11076e-18
-2.1072e-18
-2.10603e-18
-2.10398e-18
-2.0999e-18
-2.08731e-18
-2.08846e-18
-2.08295e-18
-2.07611e-18
-2.06873e-18
-2.0704e-18
-2.0678e-18
-2.07126e-18
-2.06885e-18
-2.18346e-18
-2.17603e-18
-2.17709e-18
-2.17458e-18
-2.1776e-18
-2.18105e-18
-2.18337e-18
-2.17165e-18
-2.18304e-18
-2.16887e-18
-2.17048e-18
-2.15564e-18
-2.15906e-18
-2.14993e-18
-2.1513e-18
-2.13148e-18
-2.12949e-18
-2.11322e-18
-2.1144e-18
-2.10304e-18
-2.103e-18
-2.09377e-18
-2.09501e-18
-2.09264e-18
-2.0939e-18
-2.09222e-18
-2.09441e-18
-2.09719e-18
-2.10275e-18
-2.1075e-18
-2.10908e-18
-2.10683e-18
-2.10713e-18
-2.10277e-18
-2.10121e-18
-2.09005e-18
-2.08599e-18
-2.08059e-18
-2.07592e-18
-2.06738e-18
-2.07135e-18
-2.06238e-18
-2.07323e-18
-2.06838e-18
-2.18317e-18
-2.18108e-18
-2.18011e-18
-2.17477e-18
-2.17623e-18
-2.18057e-18
-2.18212e-18
-2.17377e-18
-2.17811e-18
-2.16863e-18
-2.17126e-18
-2.15555e-18
-2.16437e-18
-2.14668e-18
-2.14906e-18
-2.13213e-18
-2.12769e-18
-2.11088e-18
-2.11415e-18
-2.10317e-18
-2.10411e-18
-2.09339e-18
-2.09397e-18
-2.09307e-18
-2.09343e-18
-2.09313e-18
-2.09312e-18
-2.09598e-18
-2.10259e-18
-2.10598e-18
-2.10991e-18
-2.10808e-18
-2.10741e-18
-2.10401e-18
-2.10037e-18
-2.09243e-18
-2.09028e-18
-2.08148e-18
-2.07521e-18
-2.06494e-18
-2.0689e-18
-2.06516e-18
-2.07261e-18
-2.06798e-18
-2.07645e-18
-2.18212e-18
-2.18177e-18
-2.18208e-18
-2.17241e-18
-2.17892e-18
-2.17784e-18
-2.18221e-18
-2.17554e-18
-2.17566e-18
-2.16911e-18
-2.1726e-18
-2.15302e-18
-2.16053e-18
-2.14682e-18
-2.15196e-18
-2.1314e-18
-2.131e-18
-2.11274e-18
-2.11396e-18
-2.10404e-18
-2.10392e-18
-2.09244e-18
-2.09403e-18
-2.09401e-18
-2.0943e-18
-2.09483e-18
-2.09292e-18
-2.09797e-18
-2.10218e-18
-2.1053e-18
-2.10941e-18
-2.10824e-18
-2.10796e-18
-2.10126e-18
-2.09904e-18
-2.08894e-18
-2.08979e-18
-2.08052e-18
-2.07897e-18
-2.06328e-18
-2.06859e-18
-2.06834e-18
-2.07128e-18
-2.06704e-18
-2.07957e-18
-2.18143e-18
-2.18257e-18
-2.18123e-18
-2.17373e-18
-2.1796e-18
-2.17539e-18
-2.18011e-18
-2.17274e-18
-2.17606e-18
-2.16879e-18
-2.16971e-18
-2.15551e-18
-2.15763e-18
-2.152e-18
-2.15207e-18
-2.13214e-18
-2.13172e-18
-2.11422e-18
-2.1172e-18
-2.10537e-18
-2.103e-18
-2.09249e-18
-2.09331e-18
-2.09337e-18
-2.09463e-18
-2.09415e-18
-2.09399e-18
-2.09862e-18
-2.10205e-18
-2.1054e-18
-2.10972e-18
-2.1058e-18
-2.10594e-18
-2.10139e-18
-2.09649e-18
-2.08729e-18
-2.08577e-18
-2.08006e-18
-2.07583e-18
-2.06765e-18
-2.07008e-18
-2.06818e-18
-2.07276e-18
-2.07027e-18
-2.08036e-18
-2.18271e-18
-2.18005e-18
-2.18019e-18
-2.17592e-18
-2.17754e-18
-2.17707e-18
-2.18028e-18
-2.17143e-18
-2.17772e-18
-2.16918e-18
-2.16745e-18
-2.15442e-18
-2.15856e-18
-2.1513e-18
-2.15226e-18
-2.13304e-18
-2.13376e-18
-2.11255e-18
-2.11587e-18
-2.10333e-18
-2.1029e-18
-2.09351e-18
-2.09541e-18
-2.09273e-18
-2.09496e-18
-2.09297e-18
-2.09374e-18
-2.09825e-18
-2.10065e-18
-2.10575e-18
-2.11108e-18
-2.10695e-18
-2.10676e-18
-2.10001e-18
-2.09678e-18
-2.08791e-18
-2.08635e-18
-2.0791e-18
-2.07427e-18
-2.06964e-18
-2.07008e-18
-2.06751e-18
-2.07398e-18
-2.07072e-18
-2.07892e-18
-2.18096e-18
-2.18035e-18
-2.18127e-18
-2.17652e-18
-2.17857e-18
-2.17882e-18
-2.18227e-18
-2.17319e-18
-2.17676e-18
-2.1681e-18
-2.166e-18
-2.15498e-18
-2.15709e-18
-2.14985e-18
-2.14789e-18
-2.13261e-18
-2.13314e-18
-2.11402e-18
-2.11586e-18
-2.10229e-18
-2.10333e-18
-2.09397e-18
-2.09451e-18
-2.0921e-18
-2.09531e-18
-2.09281e-18
-2.09522e-18
-2.09838e-18
-2.1015e-18
-2.10658e-18
-2.11095e-18
-2.10632e-18
-2.10513e-18
-2.10111e-18
-2.09904e-18
-2.09189e-18
-2.08718e-18
-2.07913e-18
-2.07492e-18
-2.06868e-18
-2.07153e-18
-2.06872e-18
-2.07284e-18
-2.06733e-18
-2.18657e-18
-2.18332e-18
-2.1793e-18
-2.17651e-18
-2.17743e-18
-2.17627e-18
-2.18091e-18
-2.17451e-18
-2.17378e-18
-2.17053e-18
-2.16744e-18
-2.15312e-18
-2.15782e-18
-2.14771e-18
-2.14844e-18
-2.1331e-18
-2.13045e-18
-2.11226e-18
-2.11639e-18
-2.10313e-18
-2.10428e-18
-2.09365e-18
-2.09364e-18
-2.09266e-18
-2.09615e-18
-2.0936e-18
-2.09521e-18
-2.09827e-18
-2.1028e-18
-2.10643e-18
-2.11063e-18
-2.10545e-18
-2.10715e-18
-2.10216e-18
-2.09888e-18
-2.09291e-18
-2.09062e-18
-2.08033e-18
-2.07885e-18
-2.06842e-18
-2.06841e-18
-2.07105e-18
-2.07083e-18
-2.07145e-18
-2.18759e-18
-2.1849e-18
-2.17891e-18
-2.17165e-18
-2.17964e-18
-2.176e-18
-2.18231e-18
-2.17386e-18
-2.17586e-18
-2.16937e-18
-2.16887e-18
-2.15366e-18
-2.16077e-18
-2.15066e-18
-2.15088e-18
-2.13398e-18
-2.12883e-18
-2.11209e-18
-2.11628e-18
-2.1039e-18
-2.10454e-18
-2.094e-18
-2.09397e-18
-2.09344e-18
-2.09557e-18
-2.09411e-18
-2.09496e-18
-2.0991e-18
-2.10219e-18
-2.10558e-18
-2.10988e-18
-2.10599e-18
-2.10797e-18
-2.10179e-18
-2.09803e-18
-2.09089e-18
-2.08799e-18
-2.07824e-18
-2.07871e-18
-2.06778e-18
-2.06922e-18
-2.06903e-18
-2.07271e-18
-2.06914e-18
-2.18596e-18
-2.18222e-18
-2.17875e-18
-2.17437e-18
-2.17914e-18
-2.17776e-18
-2.181e-18
-2.17133e-18
-2.17638e-18
-2.16689e-18
-2.16766e-18
-2.15388e-18
-2.16035e-18
-2.14968e-18
-2.15141e-18
-2.13502e-18
-2.12955e-18
-2.11458e-18
-2.11418e-18
-2.10484e-18
-2.10369e-18
-2.09408e-18
-2.09361e-18
-2.0928e-18
-2.09503e-18
-2.09415e-18
-2.09516e-18
-2.09876e-18
-2.10297e-18
-2.10475e-18
-2.10803e-18
-2.10603e-18
-2.10573e-18
-2.1004e-18
-2.09609e-18
-2.09025e-18
-2.08692e-18
-2.07853e-18
-2.07839e-18
-2.06723e-18
-2.07168e-18
-2.06969e-18
-2.07247e-18
-2.06934e-18
-2.18622e-18
-2.17971e-18
-2.18036e-18
-2.1749e-18
-2.18014e-18
-2.17641e-18
-2.17881e-18
-2.17489e-18
-2.17607e-18
-2.16574e-18
-2.16718e-18
-2.15478e-18
-2.15782e-18
-2.14639e-18
-2.15275e-18
-2.13281e-18
-2.13018e-18
-2.11739e-18
-2.11537e-18
-2.10405e-18
-2.10278e-18
-2.09434e-18
-2.09537e-18
-2.0924e-18
-2.09396e-18
-2.09284e-18
-2.09546e-18
-2.09832e-18
-2.10295e-18
-2.10393e-18
-2.10737e-18
-2.1054e-18
-2.1039e-18
-2.09981e-18
-2.09839e-18
-2.08885e-18
-2.08949e-18
-2.08041e-18
-2.07562e-18
-2.06708e-18
-2.07333e-18
-2.06989e-18
-2.07184e-18
-2.07085e-18
-2.18539e-18
-2.18395e-18
-2.17882e-18
-2.17802e-18
-2.18062e-18
-2.17967e-18
-2.17886e-18
-2.17648e-18
-2.17757e-18
-2.16647e-18
-2.16728e-18
-2.15477e-18
-2.16016e-18
-2.14516e-18
-2.15106e-18
-2.13296e-18
-2.12966e-18
-2.1159e-18
-2.11538e-18
-2.10443e-18
-2.103e-18
-2.09446e-18
-2.09461e-18
-2.09307e-18
-2.09347e-18
-2.09242e-18
-2.09467e-18
-2.09994e-18
-2.10263e-18
-2.10529e-18
-2.10804e-18
-2.10575e-18
-2.10718e-18
-2.10105e-18
-2.09563e-18
-2.08714e-18
-2.08969e-18
-2.078e-18
-2.07526e-18
-2.06823e-18
-2.07351e-18
-2.06851e-18
-2.07113e-18
-2.07238e-18
-2.18515e-18
-2.1842e-18
-2.17858e-18
-2.17858e-18
-2.17883e-18
-2.17828e-18
-2.18162e-18
-2.175e-18
-2.17766e-18
-2.16409e-18
-2.16661e-18
-2.155e-18
-2.15758e-18
-2.14914e-18
-2.15135e-18
-2.13211e-18
-2.13094e-18
-2.11431e-18
-2.11511e-18
-2.10509e-18
-2.10492e-18
-2.09496e-18
-2.09357e-18
-2.09267e-18
-2.09468e-18
-2.09242e-18
-2.09483e-18
-2.10026e-18
-2.10315e-18
-2.10524e-18
-2.10859e-18
-2.10608e-18
-2.10632e-18
-2.09986e-18
-2.09804e-18
-2.08596e-18
-2.08601e-18
-2.07973e-18
-2.07594e-18
-2.07329e-18
-2.07493e-18
-2.06765e-18
-2.07235e-18
-2.06843e-18
-2.18548e-18
-2.1836e-18
-2.1791e-18
-2.1774e-18
-2.18007e-18
-2.1772e-18
-2.18112e-18
-2.17363e-18
-2.17407e-18
-2.16577e-18
-2.1658e-18
-2.154e-18
-2.1583e-18
-2.14908e-18
-2.15161e-18
-2.13335e-18
-2.13113e-18
-2.11624e-18
-2.11468e-18
-2.10579e-18
-2.10396e-18
-2.09451e-18
-2.09541e-18
-2.09187e-18
-2.09505e-18
-2.09241e-18
-2.0959e-18
-2.09905e-18
-2.10335e-18
-2.10469e-18
-2.10834e-18
-2.1066e-18
-2.1042e-18
-2.0995e-18
-2.09699e-18
-2.08809e-18
-2.08547e-18
-2.0802e-18
-2.07828e-18
-2.07236e-18
-2.0733e-18
-2.07011e-18
-2.07327e-18
-2.0688e-18
-2.18596e-18
-2.18312e-18
-2.18114e-18
-2.17479e-18
-2.17785e-18
-2.17791e-18
-2.18123e-18
-2.17417e-18
-2.17338e-18
-2.16803e-18
-2.16515e-18
-2.15308e-18
-2.16e-18
-2.14724e-18
-2.15104e-18
-2.13411e-18
-2.13165e-18
-2.11699e-18
-2.11507e-18
-2.10458e-18
-2.10424e-18
-2.09413e-18
-2.09543e-18
-2.09185e-18
-2.09503e-18
-2.09238e-18
-2.09555e-18
-2.09886e-18
-2.10356e-18
-2.10404e-18
-2.10851e-18
-2.10661e-18
-2.10547e-18
-2.09875e-18
-2.09609e-18
-2.08799e-18
-2.08755e-18
-2.0793e-18
-2.07836e-18
-2.07258e-18
-2.07173e-18
-2.06963e-18
-2.07296e-18
-2.07069e-18
-2.18538e-18
-2.18319e-18
-2.18082e-18
-2.17561e-18
-2.17446e-18
-2.17597e-18
-2.18029e-18
-2.1743e-18
-2.17501e-18
-2.1681e-18
-2.16667e-18
-2.15483e-18
-2.15741e-18
-2.14569e-18
-2.14953e-18
-2.13424e-18
-2.13181e-18
-2.11702e-18
-2.11519e-18
-2.10462e-18
-2.10435e-18
-2.09431e-18
-2.09546e-18
-2.09287e-18
-2.09485e-18
-2.09233e-18
-2.0955e-18
-2.09896e-18
-2.10396e-18
-2.10445e-18
-2.10726e-18
-2.10586e-18
-2.10464e-18
-2.09802e-18
-2.09533e-18
-2.08853e-18
-2.08876e-18
-2.08075e-18
-2.07686e-18
-2.07149e-18
-2.06993e-18
-2.07052e-18
-2.0725e-18
-2.07002e-18
-2.18448e-18
-2.18359e-18
-2.17856e-18
-2.17864e-18
-2.17689e-18
-2.17549e-18
-2.17887e-18
-2.17503e-18
-2.17465e-18
-2.1662e-18
-2.16675e-18
-2.15387e-18
-2.15775e-18
-2.14778e-18
-2.14857e-18
-2.13287e-18
-2.13145e-18
-2.11471e-18
-2.11598e-18
-2.1049e-18
-2.10347e-18
-2.09491e-18
-2.09495e-18
-2.09283e-18
-2.09486e-18
-2.09226e-18
-2.09628e-18
-2.09896e-18
-2.10335e-18
-2.10558e-18
-2.10717e-18
-2.10476e-18
-2.10468e-18
-2.09812e-18
-2.0946e-18
-2.08967e-18
-2.0875e-18
-2.08087e-18
-2.07812e-18
-2.07097e-18
-2.07211e-18
-2.07076e-18
-2.07153e-18
-2.07195e-18
-2.07709e-18
-2.18432e-18
-2.18431e-18
-2.17958e-18
-2.17658e-18
-2.17832e-18
-2.17475e-18
-2.17922e-18
-2.17505e-18
-2.17373e-18
-2.16537e-18
-2.16564e-18
-2.15256e-18
-2.15681e-18
-2.14845e-18
-2.14945e-18
-2.1345e-18
-2.13053e-18
-2.11509e-18
-2.11562e-18
-2.1055e-18
-2.10513e-18
-2.09501e-18
-2.09509e-18
-2.09269e-18
-2.09588e-18
-2.09227e-18
-2.09668e-18
-2.09877e-18
-2.10267e-18
-2.10399e-18
-2.10602e-18
-2.10591e-18
-2.10527e-18
-2.09927e-18
-2.09355e-18
-2.08936e-18
-2.08682e-18
-2.08045e-18
-2.07883e-18
-2.07164e-18
-2.07284e-18
-2.07091e-18
-2.07136e-18
-2.0716e-18
-2.07649e-18
-2.18361e-18
-2.18486e-18
-2.18128e-18
-2.1773e-18
-2.17744e-18
-2.17281e-18
-2.17974e-18
-2.1744e-18
-2.17418e-18
-2.16579e-18
-2.16486e-18
-2.15376e-18
-2.15888e-18
-2.14704e-18
-2.1495e-18
-2.13349e-18
-2.13035e-18
-2.11567e-18
-2.11504e-18
-2.10545e-18
-2.10471e-18
-2.09491e-18
-2.09523e-18
-2.09288e-18
-2.09567e-18
-2.09234e-18
-2.09664e-18
-2.09979e-18
-2.10358e-18
-2.10384e-18
-2.10613e-18
-2.10565e-18
-2.10551e-18
-2.10003e-18
-2.09509e-18
-2.08854e-18
-2.08769e-18
-2.07986e-18
-2.07843e-18
-2.07286e-18
-2.07314e-18
-2.07022e-18
-2.07268e-18
-2.07027e-18
-2.07877e-18
-2.18449e-18
-2.18533e-18
-2.18108e-18
-2.17675e-18
-2.17817e-18
-2.17325e-18
-2.18011e-18
-2.17393e-18
-2.17369e-18
-2.16481e-18
-2.1635e-18
-2.15398e-18
-2.15865e-18
-2.14622e-18
-2.14959e-18
-2.13347e-18
-2.13103e-18
-2.11619e-18
-2.11567e-18
-2.10438e-18
-2.10556e-18
-2.09437e-18
-2.09554e-18
-2.09247e-18
-2.09507e-18
-2.09231e-18
-2.09678e-18
-2.09945e-18
-2.10387e-18
-2.10352e-18
-2.10731e-18
-2.10483e-18
-2.10435e-18
-2.09929e-18
-2.09444e-18
-2.08847e-18
-2.0875e-18
-2.08042e-18
-2.07863e-18
-2.07385e-18
-2.07352e-18
-2.07081e-18
-2.07341e-18
-2.06967e-18
-2.07872e-18
-2.18568e-18
-2.18373e-18
-2.18022e-18
-2.17703e-18
-2.17694e-18
-2.17388e-18
-2.17845e-18
-2.17437e-18
-2.17353e-18
-2.16386e-18
-2.16483e-18
-2.15432e-18
-2.15784e-18
-2.14649e-18
-2.14902e-18
-2.13199e-18
-2.13157e-18
-2.11593e-18
-2.11542e-18
-2.105e-18
-2.1057e-18
-2.09502e-18
-2.09545e-18
-2.09237e-18
-2.09474e-18
-2.09241e-18
-2.09707e-18
-2.09879e-18
-2.1037e-18
-2.10376e-18
-2.10671e-18
-2.1049e-18
-2.10483e-18
-2.09881e-18
-2.09524e-18
-2.08832e-18
-2.08771e-18
-2.08102e-18
-2.07774e-18
-2.07248e-18
-2.07435e-18
-2.07159e-18
-2.07374e-18
-2.07156e-18
-2.18535e-18
-2.18439e-18
-2.18095e-18
-2.17644e-18
-2.17641e-18
-2.17489e-18
-2.17841e-18
-2.17478e-18
-2.17363e-18
-2.16521e-18
-2.16562e-18
-2.15469e-18
-2.15861e-18
-2.14656e-18
-2.14837e-18
-2.13122e-18
-2.13075e-18
-2.11557e-18
-2.11613e-18
-2.1041e-18
-2.10432e-18
-2.09577e-18
-2.09499e-18
-2.09235e-18
-2.09491e-18
-2.09204e-18
-2.09697e-18
-2.09837e-18
-2.10369e-18
-2.10421e-18
-2.10699e-18
-2.10412e-18
-2.10478e-18
-2.09926e-18
-2.09678e-18
-2.08853e-18
-2.08809e-18
-2.08151e-18
-2.07801e-18
-2.07173e-18
-2.07442e-18
-2.07153e-18
-2.07283e-18
-2.07165e-18
-2.18556e-18
-2.1834e-18
-2.1807e-18
-2.17544e-18
-2.17611e-18
-2.17523e-18
-2.17964e-18
-2.1737e-18
-2.17254e-18
-2.16307e-18
-2.16341e-18
-2.15594e-18
-2.15945e-18
-2.14761e-18
-2.14874e-18
-2.13218e-18
-2.13066e-18
-2.11644e-18
-2.11611e-18
-2.10358e-18
-2.10472e-18
-2.09529e-18
-2.09544e-18
-2.09224e-18
-2.09478e-18
-2.09225e-18
-2.09696e-18
-2.09863e-18
-2.10399e-18
-2.10397e-18
-2.10727e-18
-2.10417e-18
-2.10401e-18
-2.09932e-18
-2.09594e-18
-2.08857e-18
-2.08709e-18
-2.08003e-18
-2.07784e-18
-2.07314e-18
-2.07343e-18
-2.07217e-18
-2.07316e-18
-2.07099e-18
-2.18524e-18
-2.18284e-18
-2.18099e-18
-2.17678e-18
-2.17735e-18
-2.17448e-18
-2.1785e-18
-2.17325e-18
-2.17225e-18
-2.16434e-18
-2.16411e-18
-2.15594e-18
-2.15871e-18
-2.14596e-18
-2.14914e-18
-2.13278e-18
-2.13039e-18
-2.11695e-18
-2.11611e-18
-2.10432e-18
-2.1047e-18
-2.09551e-18
-2.09552e-18
-2.09191e-18
-2.09489e-18
-2.092e-18
-2.09703e-18
-2.0988e-18
-2.10365e-18
-2.10416e-18
-2.10664e-18
-2.10436e-18
-2.10384e-18
-2.09958e-18
-2.09486e-18
-2.08866e-18
-2.08864e-18
-2.07998e-18
-2.0781e-18
-2.07338e-18
-2.07249e-18
-2.07176e-18
-2.07321e-18
-2.07158e-18
-2.18523e-18
-2.18448e-18
-2.18108e-18
-2.17647e-18
-2.17791e-18
-2.17375e-18
-2.17903e-18
-2.1743e-18
-2.17238e-18
-2.16431e-18
-2.16494e-18
-2.15612e-18
-2.15896e-18
-2.1452e-18
-2.1489e-18
-2.13253e-18
-2.13023e-18
-2.11768e-18
-2.11655e-18
-2.10499e-18
-2.10464e-18
-2.09584e-18
-2.09602e-18
-2.09226e-18
-2.09473e-18
-2.09216e-18
-2.09677e-18
-2.09861e-18
-2.10361e-18
-2.10447e-18
-2.10604e-18
-2.10413e-18
-2.10416e-18
-2.09902e-18
-2.09524e-18
-2.089e-18
-2.08888e-18
-2.08019e-18
-2.07855e-18
-2.07374e-18
-2.07322e-18
-2.07136e-18
-2.07301e-18
-2.07089e-18
-2.18557e-18
-2.18427e-18
-2.18112e-18
-2.17713e-18
-2.17761e-18
-2.1731e-18
-2.17864e-18
-2.17339e-18
-2.17221e-18
-2.16444e-18
-2.16518e-18
-2.15551e-18
-2.15917e-18
-2.14633e-18
-2.14782e-18
-2.13238e-18
-2.13048e-18
-2.11758e-18
-2.11602e-18
-2.10555e-18
-2.10473e-18
-2.09529e-18
-2.09618e-18
-2.09212e-18
-2.09518e-18
-2.09223e-18
-2.09717e-18
-2.09843e-18
-2.10384e-18
-2.10438e-18
-2.10548e-18
-2.10409e-18
-2.10371e-18
-2.09881e-18
-2.09566e-18
-2.08919e-18
-2.08781e-18
-2.07986e-18
-2.07961e-18
-2.07363e-18
-2.07317e-18
-2.07134e-18
-2.07405e-18
-2.07097e-18
-2.1867e-18
-2.18415e-18
-2.1824e-18
-2.17669e-18
-2.17745e-18
-2.17407e-18
-2.17817e-18
-2.17375e-18
-2.17207e-18
-2.16478e-18
-2.16472e-18
-2.15419e-18
-2.15845e-18
-2.14606e-18
-2.14817e-18
-2.13234e-18
-2.13014e-18
-2.11752e-18
-2.11609e-18
-2.10562e-18
-2.10495e-18
-2.09536e-18
-2.09634e-18
-2.09222e-18
-2.09512e-18
-2.09228e-18
-2.0975e-18
-2.09867e-18
-2.10394e-18
-2.10398e-18
-2.10545e-18
-2.10393e-18
-2.10396e-18
-2.09897e-18
-2.09614e-18
-2.08881e-18
-2.088e-18
-2.07983e-18
-2.07903e-18
-2.07411e-18
-2.07378e-18
-2.07114e-18
-2.07389e-18
-2.07134e-18
-2.18643e-18
-2.18488e-18
-2.18136e-18
-2.17621e-18
-2.17747e-18
-2.17408e-18
-2.17868e-18
-2.17319e-18
-2.17283e-18
-2.16437e-18
-2.1647e-18
-2.15438e-18
-2.15792e-18
-2.1452e-18
-2.14819e-18
-2.13203e-18
-2.13018e-18
-2.11813e-18
-2.11617e-18
-2.10567e-18
-2.10501e-18
-2.09547e-18
-2.09634e-18
-2.09236e-18
-2.09532e-18
-2.09236e-18
-2.09758e-18
-2.09866e-18
-2.10364e-18
-2.10366e-18
-2.10583e-18
-2.10407e-18
-2.10322e-18
-2.09883e-18
-2.09591e-18
-2.08883e-18
-2.08889e-18
-2.08121e-18
-2.07916e-18
-2.07416e-18
-2.07403e-18
-2.07077e-18
-2.07358e-18
-2.07179e-18
-2.18527e-18
-2.18462e-18
-2.1804e-18
-2.17646e-18
-2.17703e-18
-2.17383e-18
-2.17861e-18
-2.17292e-18
-2.17214e-18
-2.16403e-18
-2.16478e-18
-2.15434e-18
-2.1579e-18
-2.14568e-18
-2.14743e-18
-2.13182e-18
-2.13063e-18
-2.11754e-18
-2.11622e-18
-2.10504e-18
-2.10475e-18
-2.09521e-18
-2.09639e-18
-2.0922e-18
-2.09524e-18
-2.09259e-18
-2.09789e-18
-2.09881e-18
-2.1032e-18
-2.10368e-18
-2.10597e-18
-2.10403e-18
-2.10363e-18
-2.09847e-18
-2.09553e-18
-2.08941e-18
-2.08865e-18
-2.08162e-18
-2.07945e-18
-2.07404e-18
-2.07416e-18
-2.07121e-18
-2.07421e-18
-2.07223e-18
-2.07697e-18
-2.18531e-18
-2.18415e-18
-2.18077e-18
-2.17689e-18
-2.1776e-18
-2.17302e-18
-2.17881e-18
-2.17265e-18
-2.17201e-18
-2.16363e-18
-2.16387e-18
-2.1538e-18
-2.15886e-18
-2.14624e-18
-2.14793e-18
-2.13227e-18
-2.13063e-18
-2.11698e-18
-2.11627e-18
-2.1047e-18
-2.10458e-18
-2.09518e-18
-2.09664e-18
-2.09219e-18
-2.09549e-18
-2.09261e-18
-2.09775e-18
-2.09858e-18
-2.10342e-18
-2.1037e-18
-2.10609e-18
-2.10397e-18
-2.10369e-18
-2.09834e-18
-2.09549e-18
-2.08866e-18
-2.08814e-18
-2.08067e-18
-2.07986e-18
-2.07462e-18
-2.07442e-18
-2.0712e-18
-2.07465e-18
-2.07095e-18
-2.07702e-18
-2.18575e-18
-2.18437e-18
-2.1806e-18
-2.1767e-18
-2.17757e-18
-2.17274e-18
-2.17853e-18
-2.17295e-18
-2.17161e-18
-2.16383e-18
-2.16427e-18
-2.154e-18
-2.15879e-18
-2.14584e-18
-2.14822e-18
-2.13198e-18
-2.13029e-18
-2.11709e-18
-2.11601e-18
-2.1052e-18
-2.10454e-18
-2.09553e-18
-2.09672e-18
-2.09229e-18
-2.09579e-18
-2.09252e-18
-2.09782e-18
-2.09859e-18
-2.10327e-18
-2.10361e-18
-2.10569e-18
-2.10403e-18
-2.10328e-18
-2.09872e-18
-2.09595e-18
-2.08872e-18
-2.08772e-18
-2.08077e-18
-2.08001e-18
-2.07432e-18
-2.07421e-18
-2.07126e-18
-2.07449e-18
-2.07106e-18
-2.07719e-18
-2.18635e-18
-2.18421e-18
-2.18046e-18
-2.17665e-18
-2.17706e-18
-2.17313e-18
-2.17855e-18
-2.17238e-18
-2.17229e-18
-2.16393e-18
-2.16503e-18
-2.15376e-18
-2.15844e-18
-2.14544e-18
-2.14862e-18
-2.13228e-18
-2.13052e-18
-2.11754e-18
-2.11605e-18
-2.10552e-18
-2.10477e-18
-2.09546e-18
-2.09678e-18
-2.09231e-18
-2.09578e-18
-2.09257e-18
-2.09788e-18
-2.09844e-18
-2.10357e-18
-2.1038e-18
-2.10535e-18
-2.10403e-18
-2.10307e-18
-2.09852e-18
-2.09547e-18
-2.08914e-18
-2.08776e-18
-2.08102e-18
-2.08016e-18
-2.07401e-18
-2.07412e-18
-2.07063e-18
-2.07477e-18
-2.07101e-18
-2.07708e-18
-2.07167e-18
-2.1859e-18
-2.18433e-18
-2.18117e-18
-2.17708e-18
-2.17769e-18
-2.17365e-18
-2.17793e-18
-2.17272e-18
-2.17236e-18
-2.16393e-18
-2.16476e-18
-2.15442e-18
-2.15876e-18
-2.14519e-18
-2.14791e-18
-2.13235e-18
-2.13039e-18
-2.11749e-18
-2.11639e-18
-2.10555e-18
-2.10495e-18
-2.09543e-18
-2.09689e-18
-2.09215e-18
-2.0955e-18
-2.09245e-18
-2.09796e-18
-2.09853e-18
-2.1038e-18
-2.10367e-18
-2.10527e-18
-2.10386e-18
-2.10321e-18
-2.09857e-18
-2.09507e-18
-2.08947e-18
-2.08786e-18
-2.08061e-18
-2.07912e-18
-2.07392e-18
-2.07399e-18
-2.071e-18
-2.07431e-18
-2.07172e-18
-2.07659e-18
-2.07164e-18
-2.18574e-18
-2.18491e-18
-2.18132e-18
-2.17714e-18
-2.17742e-18
-2.17377e-18
-2.17778e-18
-2.17301e-18
-2.17182e-18
-2.16393e-18
-2.16471e-18
-2.15432e-18
-2.15867e-18
-2.14561e-18
-2.14748e-18
-2.13187e-18
-2.13043e-18
-2.11754e-18
-2.11626e-18
-2.10571e-18
-2.10484e-18
-2.09576e-18
-2.097e-18
-2.09231e-18
-2.09544e-18
-2.09235e-18
-2.09786e-18
-2.09839e-18
-2.10345e-18
-2.10348e-18
-2.10537e-18
-2.10355e-18
-2.10311e-18
-2.09845e-18
-2.0957e-18
-2.089e-18
-2.088e-18
-2.08071e-18
-2.07907e-18
-2.07408e-18
-2.07371e-18
-2.07148e-18
-2.07395e-18
-2.07189e-18
-2.07657e-18
-2.07185e-18
-2.07756e-18
-2.18569e-18
-2.18462e-18
-2.18127e-18
-2.177e-18
-2.17736e-18
-2.17316e-18
-2.17794e-18
-2.17275e-18
-2.17178e-18
-2.16417e-18
-2.16453e-18
-2.15408e-18
-2.15861e-18
-2.14554e-18
-2.14787e-18
-2.13201e-18
-2.13066e-18
-2.1176e-18
-2.11621e-18
-2.10551e-18
-2.10478e-18
-2.09581e-18
-2.09685e-18
-2.09238e-18
-2.09548e-18
-2.09247e-18
-2.09796e-18
-2.09849e-18
-2.1033e-18
-2.10348e-18
-2.10533e-18
-2.1035e-18
-2.10319e-18
-2.09814e-18
-2.0955e-18
-2.08853e-18
-2.08798e-18
-2.08086e-18
-2.07967e-18
-2.07421e-18
-2.07389e-18
-2.07162e-18
-2.07399e-18
-2.0717e-18
-2.07714e-18
-2.07201e-18
-2.07764e-18
-2.18599e-18
-2.18469e-18
-2.18097e-18
-2.17729e-18
-2.17737e-18
-2.17331e-18
-2.17787e-18
-2.17243e-18
-2.17216e-18
-2.16463e-18
-2.16453e-18
-2.15425e-18
-2.15848e-18
-2.14564e-18
-2.14768e-18
-2.13252e-18
-2.13054e-18
-2.11786e-18
-2.11626e-18
-2.10529e-18
-2.10501e-18
-2.09566e-18
-2.09691e-18
-2.09236e-18
-2.09561e-18
-2.09256e-18
-2.09809e-18
-2.09852e-18
-2.10337e-18
-2.10353e-18
-2.10519e-18
-2.10346e-18
-2.10297e-18
-2.09821e-18
-2.09509e-18
-2.08884e-18
-2.0877e-18
-2.08075e-18
-2.07962e-18
-2.07407e-18
-2.07391e-18
-2.07121e-18
-2.0743e-18
-2.07187e-18
-2.07692e-18
-2.07217e-18
-2.07723e-18
-2.18574e-18
-2.18437e-18
-2.18075e-18
-2.17688e-18
-2.17777e-18
-2.17389e-18
-2.17799e-18
-2.17256e-18
-2.17213e-18
-2.16412e-18
-2.16448e-18
-2.15447e-18
-2.15865e-18
-2.14539e-18
-2.14742e-18
-2.13218e-18
-2.13063e-18
-2.11778e-18
-2.1162e-18
-2.10544e-18
-2.10499e-18
-2.09573e-18
-2.09707e-18
-2.09239e-18
-2.09567e-18
-2.09254e-18
-2.09819e-18
-2.09841e-18
-2.10331e-18
-2.10348e-18
-2.10508e-18
-2.10357e-18
-2.10278e-18
-2.098e-18
-2.09557e-18
-2.08902e-18
-2.08776e-18
-2.08078e-18
-2.07952e-18
-2.07427e-18
-2.07416e-18
-2.07104e-18
-2.07419e-18
-2.07201e-18
-2.07629e-18
-2.072e-18
-2.07763e-18
-2.18587e-18
-2.1842e-18
-2.18089e-18
-2.17712e-18
-2.17795e-18
-2.17384e-18
-2.17799e-18
-2.17301e-18
-2.17196e-18
-2.1642e-18
-2.16448e-18
-2.15449e-18
-2.1587e-18
-2.14534e-18
-2.14744e-18
-2.13192e-18
-2.13053e-18
-2.11768e-18
-2.11615e-18
-2.10564e-18
-2.10503e-18
-2.09572e-18
-2.09706e-18
-2.09248e-18
-2.09565e-18
-2.09256e-18
-2.09815e-18
-2.09841e-18
-2.10346e-18
-2.10331e-18
-2.10499e-18
-2.10356e-18
-2.103e-18
-2.09793e-18
-2.09573e-18
-2.0889e-18
-2.08789e-18
-2.08087e-18
-2.07935e-18
-2.07436e-18
-2.07402e-18
-2.07109e-18
-2.07392e-18
-2.07175e-18
-2.07628e-18
-2.07188e-18
-2.07745e-18
-2.18601e-18
-2.18456e-18
-2.18097e-18
-2.17737e-18
-2.17776e-18
-2.17366e-18
-2.17814e-18
-2.17268e-18
-2.1717e-18
-2.16417e-18
-2.16452e-18
-2.15432e-18
-2.1586e-18
-2.14548e-18
-2.14733e-18
-2.13242e-18
-2.1305e-18
-2.1176e-18
-2.11608e-18
-2.10571e-18
-2.10485e-18
-2.09583e-18
-2.09706e-18
-2.09249e-18
-2.09558e-18
-2.09258e-18
-2.09813e-18
-2.09844e-18
-2.10348e-18
-2.10335e-18
-2.10492e-18
-2.10353e-18
-2.10313e-18
-2.09794e-18
-2.09508e-18
-2.0889e-18
-2.08777e-18
-2.08072e-18
-2.0797e-18
-2.07443e-18
-2.07388e-18
-2.07138e-18
-2.07425e-18
-2.07147e-18
-2.07636e-18
-2.07193e-18
-2.07726e-18
-2.06885e-18
-2.18594e-18
-2.18446e-18
-2.18077e-18
-2.17715e-18
-2.17787e-18
-2.17364e-18
-2.1781e-18
-2.17271e-18
-2.17153e-18
-2.16387e-18
-2.16456e-18
-2.15425e-18
-2.15831e-18
-2.14552e-18
-2.14736e-18
-2.13229e-18
-2.13072e-18
-2.1177e-18
-2.11607e-18
-2.10547e-18
-2.10482e-18
-2.09584e-18
-2.09713e-18
-2.09246e-18
-2.09559e-18
-2.0926e-18
-2.09814e-18
-2.09839e-18
-2.10337e-18
-2.10345e-18
-2.10515e-18
-2.10349e-18
-2.10309e-18
-2.09774e-18
-2.09504e-18
-2.08874e-18
-2.08766e-18
-2.08089e-18
-2.07973e-18
-2.0743e-18
-2.07411e-18
-2.07163e-18
-2.0742e-18
-2.07151e-18
-2.07646e-18
-2.07154e-18
-2.07752e-18
-2.06908e-18
-2.18568e-18
-2.18443e-18
-2.18094e-18
-2.17701e-18
-2.17769e-18
-2.17344e-18
-2.178e-18
-2.17268e-18
-2.17184e-18
-2.16409e-18
-2.1644e-18
-2.15423e-18
-2.15824e-18
-2.1455e-18
-2.14751e-18
-2.13224e-18
-2.1307e-18
-2.11771e-18
-2.11611e-18
-2.10551e-18
-2.10496e-18
-2.0959e-18
-2.09719e-18
-2.09237e-18
-2.09565e-18
-2.09263e-18
-2.09818e-18
-2.09832e-18
-2.10325e-18
-2.10335e-18
-2.10509e-18
-2.10342e-18
-2.1031e-18
-2.09791e-18
-2.09522e-18
-2.08876e-18
-2.08756e-18
-2.08082e-18
-2.07971e-18
-2.07441e-18
-2.0739e-18
-2.07128e-18
-2.07427e-18
-2.07163e-18
-2.07668e-18
-2.07182e-18
-2.07758e-18
-2.06875e-18
-2.18609e-18
-2.18458e-18
-2.18071e-18
-2.17701e-18
-2.17782e-18
-2.17341e-18
-2.17792e-18
-2.17252e-18
-2.17197e-18
-2.1641e-18
-2.16457e-18
-2.15432e-18
-2.15833e-18
-2.14549e-18
-2.14739e-18
-2.13224e-18
-2.13061e-18
-2.11771e-18
-2.11621e-18
-2.1056e-18
-2.10502e-18
-2.09589e-18
-2.09718e-18
-2.09242e-18
-2.09567e-18
-2.09263e-18
-2.09819e-18
-2.0984e-18
-2.10328e-18
-2.10329e-18
-2.10499e-18
-2.1033e-18
-2.10308e-18
-2.09797e-18
-2.09521e-18
-2.08886e-18
-2.08762e-18
-2.08085e-18
-2.0796e-18
-2.07441e-18
-2.07404e-18
-2.07113e-18
-2.07438e-18
-2.07174e-18
-2.07666e-18
-2.07193e-18
-2.07748e-18
-2.06895e-18
-2.18613e-18
-2.18459e-18
-2.1807e-18
-2.17716e-18
-2.17805e-18
-2.17355e-18
-2.17795e-18
-2.17247e-18
-2.17197e-18
-2.16405e-18
-2.16445e-18
-2.15427e-18
-2.15844e-18
-2.14554e-18
-2.14737e-18
-2.13219e-18
-2.13073e-18
-2.11773e-18
-2.11622e-18
-2.10563e-18
-2.10494e-18
-2.09582e-18
-2.09711e-18
-2.09241e-18
-2.09567e-18
-2.09264e-18
-2.09821e-18
-2.09844e-18
-2.10335e-18
-2.10337e-18
-2.10495e-18
-2.10327e-18
-2.10302e-18
-2.09788e-18
-2.0953e-18
-2.08883e-18
-2.08764e-18
-2.08072e-18
-2.07961e-18
-2.07451e-18
-2.07408e-18
-2.07097e-18
-2.07439e-18
-2.07177e-18
-2.07654e-18
-2.07171e-18
-2.07745e-18
-2.0689e-18
-2.18599e-18
-2.18462e-18
-2.18086e-18
-2.17719e-18
-2.17785e-18
-2.17366e-18
-2.17805e-18
-2.17259e-18
-2.17189e-18
-2.16411e-18
-2.16453e-18
-2.15421e-18
-2.15838e-18
-2.14551e-18
-2.14745e-18
-2.13228e-18
-2.13067e-18
-2.11785e-18
-2.1162e-18
-2.10563e-18
-2.1049e-18
-2.0958e-18
-2.09711e-18
-2.09235e-18
-2.09567e-18
-2.09264e-18
-2.09819e-18
-2.09842e-18
-2.10337e-18
-2.10342e-18
-2.10495e-18
-2.10326e-18
-2.10295e-18
-2.09785e-18
-2.09524e-18
-2.08874e-18
-2.08761e-18
-2.08082e-18
-2.07973e-18
-2.07442e-18
-2.07401e-18
-2.0711e-18
-2.07434e-18
-2.07164e-18
-2.07644e-18
-2.07191e-18
-2.07748e-18
-2.06873e-18
-2.18585e-18
-2.18448e-18
-2.18093e-18
-2.17726e-18
-2.17777e-18
-2.17351e-18
-2.17804e-18
-2.17259e-18
-2.17189e-18
-2.16415e-18
-2.16452e-18
-2.15422e-18
-2.15829e-18
-2.14549e-18
-2.14747e-18
-2.13224e-18
-2.1306e-18
-2.11787e-18
-2.11618e-18
-2.10562e-18
-2.10489e-18
-2.09584e-18
-2.09716e-18
-2.09234e-18
-2.09567e-18
-2.09264e-18
-2.0982e-18
-2.09839e-18
-2.10332e-18
-2.10342e-18
-2.10495e-18
-2.10328e-18
-2.10296e-18
-2.09788e-18
-2.0953e-18
-2.08876e-18
-2.08758e-18
-2.08086e-18
-2.07972e-18
-2.07442e-18
-2.07398e-18
-2.07114e-18
-2.0743e-18
-2.07163e-18
-2.07659e-18
-2.07193e-18
-2.07741e-18
-2.06871e-18
-2.1859e-18
-2.18448e-18
-2.18084e-18
-2.17728e-18
-2.17781e-18
-2.17352e-18
-2.178e-18
-2.17258e-18
-2.17191e-18
-2.16415e-18
-2.16451e-18
-2.15426e-18
-2.1583e-18
-2.14547e-18
-2.14747e-18
-2.13226e-18
-2.13055e-18
-2.11781e-18
-2.11616e-18
-2.1056e-18
-2.1049e-18
-2.09584e-18
-2.09717e-18
-2.09235e-18
-2.09567e-18
-2.09263e-18
-2.09822e-18
-2.09839e-18
-2.10332e-18
-2.1034e-18
-2.10494e-18
-2.1033e-18
-2.103e-18
-2.09792e-18
-2.09526e-18
-2.08874e-18
-2.0876e-18
-2.08081e-18
-2.07968e-18
-2.07442e-18
-2.07397e-18
-2.07112e-18
-2.0743e-18
-2.07169e-18
-2.07658e-18
-2.07191e-18
-2.07737e-18
-2.06884e-18
-2.19101e-18
-2.1861e-18
-2.18762e-18
-2.19288e-18
-2.18986e-18
-2.18975e-18
-2.1904e-18
-2.19167e-18
-2.19257e-18
-2.19137e-18
-2.19331e-18
-2.18778e-18
-2.18705e-18
-2.18876e-18
-2.18858e-18
-2.18958e-18
-2.18998e-18
-2.18983e-18
-2.18951e-18
-2.19026e-18