/*--------------------------------*- C++ -*----------------------------------*\
  =========                 |
  \\      /  F ield         | OpenFOAM: The Open Source CFD Toolbox
   \\    /   O peration     | Website:  https://openfoam.org
    \\  /    A nd           | Version:  7
     \\/     M anipulation  |
\*---------------------------------------------------------------------------*/
FoamFile
{
    version     2.0;
    format      ascii;
    class       volScalarField;
    location    "12000";
    object      p;
}
// * * * * * * * * * * * * * * * * * * * * * * * * * * * * * * * * * * * * * //

dimensions      [0 2 -2 0 0 0 0];

internalField   nonuniform List<scalar> 
4844
(
-4.9836e-19
-7.16992e-18
-6.70074e-18
-5.33318e-18
-7.36433e-18
-6.67141e-18
-6.76364e-18
-6.86309e-18
-6.83512e-18
-6.91141e-18
-6.93517e-18
-6.67448e-18
-7.29638e-18
-6.69761e-18
-6.7954e-18
-6.8425e-18
-6.80826e-18
-6.94057e-18
-6.93037e-18
-6.92422e-18
-6.90133e-18
-6.94138e-18
-6.64992e-18
-7.02207e-18
-6.7287e-18
-6.80503e-18
-6.87475e-18
-6.84011e-18
-6.94932e-18
-6.96093e-18
-6.96978e-18
-7.0274e-18
-6.90806e-18
-6.90981e-18
-6.92534e-18
-6.87363e-18
-6.99566e-18
-6.94592e-18
-6.55123e-18
-6.91569e-18
-6.70606e-18
-6.78684e-18
-6.84036e-18
-6.80019e-18
-7.0127e-18
-6.92644e-18
-6.95798e-18
-7.02224e-18
-6.91449e-18
-6.94044e-18
-6.91186e-18
-6.95103e-18
-6.99522e-18
-6.96076e-18
-6.55067e-18
-6.83933e-18
-6.7039e-18
-6.83469e-18
-6.7839e-18
-6.80321e-18
-6.94792e-18
-6.91164e-18
-6.97065e-18
-6.96482e-18
-6.92322e-18
-6.95255e-18
-6.86254e-18
-6.98201e-18
-6.98306e-18
-6.90886e-18
-6.86979e-18
-6.75198e-18
-6.79793e-18
-6.79847e-18
-6.81774e-18
-6.91761e-18
-6.88712e-18
-6.97812e-18
-6.88997e-18
-6.92042e-18
-6.95501e-18
-6.8689e-18
-6.99854e-18
-6.95572e-18
-6.95112e-18
-6.88412e-18
-6.78935e-18
-6.80001e-18
-6.81743e-18
-6.85471e-18
-6.91874e-18
-6.86553e-18
-6.96801e-18
-6.92537e-18
-6.95695e-18
-6.95648e-18
-6.97374e-18
-7.01322e-18
-6.90764e-18
-6.93793e-18
-6.86618e-18
-6.77078e-18
-6.78018e-18
-6.84005e-18
-6.85525e-18
-6.92218e-18
-6.89693e-18
-6.98037e-18
-6.91975e-18
-6.95724e-18
-6.93565e-18
-6.97565e-18
-6.98354e-18
-6.85241e-18
-6.98214e-18
-6.76412e-18
-6.85704e-18
-6.75692e-18
-6.79289e-18
-6.85136e-18
-6.83422e-18
-6.932e-18
-6.95834e-18
-6.99085e-18
-6.9356e-18
-6.97387e-18
-6.93312e-18
-6.8774e-18
-6.9119e-18
-6.90347e-18
-6.95263e-18
-6.81927e-18
-6.88891e-18
-6.79088e-18
-6.80878e-18
-6.90664e-18
-6.86286e-18
-6.90381e-18
-7.00667e-18
-6.91007e-18
-6.94257e-18
-6.95009e-18
-6.89369e-18
-6.87612e-18
-6.89667e-18
-6.90525e-18
-6.88303e-18
-6.80555e-18
-6.87664e-18
-6.7923e-18
-6.8266e-18
-6.89423e-18
-6.87722e-18
-6.96086e-18
-6.94519e-18
-6.90477e-18
-6.92705e-18
-6.938e-18
-6.91936e-18
-6.92243e-18
-6.89184e-18
-6.88282e-18
-6.87524e-18
-6.82899e-18
-6.87475e-18
-6.79266e-18
-6.87056e-18
-6.88983e-18
-6.86802e-18
-7.00046e-18
-6.92619e-18
-6.92487e-18
-6.96272e-18
-6.95938e-18
-6.94285e-18
-6.90477e-18
-6.90392e-18
-6.8661e-18
-6.91034e-18
-6.88263e-18
-6.84742e-18
-6.86495e-18
-6.77875e-18
-6.9096e-18
-6.89342e-18
-6.86436e-18
-6.95546e-18
-6.89673e-18
-6.95749e-18
-7.02497e-18
-6.93159e-18
-6.95318e-18
-6.92838e-18
-6.92903e-18
-6.90196e-18
-6.92585e-18
-6.8862e-18
-6.85563e-18
-6.85522e-18
-6.85116e-18
-6.92253e-18
-6.90732e-18
-6.87368e-18
-6.96751e-18
-6.93428e-18
-6.9269e-18
-6.99033e-18
-7.01404e-18
-6.94749e-18
-6.93097e-18
-6.96693e-18
-6.97533e-18
-6.92882e-18
-6.94135e-18
-6.89238e-18
-6.86565e-18
-6.87935e-18
-6.90611e-18
-6.89038e-18
-6.92321e-18
-6.92327e-18
-6.94338e-18
-6.96888e-18
-6.94074e-18
-6.94244e-18
-7.04148e-18
-6.90369e-18
-6.95367e-18
-6.94098e-18
-6.97097e-18
-6.91768e-18
-6.92458e-18
-6.90118e-18
-6.86744e-18
-6.87459e-18
-6.91262e-18
-6.89094e-18
-6.88687e-18
-6.90071e-18
-6.85055e-18
-6.95361e-18
-6.95997e-18
-6.90979e-18
-6.9676e-18
-6.89864e-18
-7.02269e-18
-6.96073e-18
-6.93079e-18
-6.88561e-18
-6.98341e-18
-6.90123e-18
-6.85674e-18
-6.87638e-18
-6.88757e-18
-6.88555e-18
-6.9035e-18
-6.87888e-18
-6.90994e-18
-6.96929e-18
-6.98714e-18
-6.90403e-18
-6.94947e-18
-6.86307e-18
-6.99646e-18
-6.94428e-18
-6.89208e-18
-6.89809e-18
-6.95589e-18
-6.87599e-18
-6.89931e-18
-6.9181e-18
-6.85929e-18
-6.90578e-18
-6.92301e-18
-6.92005e-18
-6.97048e-18
-6.9648e-18
-6.97664e-18
-6.88026e-18
-6.98117e-18
-6.91289e-18
-6.95621e-18
-6.89397e-18
-6.94473e-18
-6.95897e-18
-6.94983e-18
-6.89623e-18
-6.90696e-18
-6.97326e-18
-6.92774e-18
-6.94914e-18
-6.90467e-18
-6.93975e-18
-6.96423e-18
-6.9627e-18
-6.948e-18
-6.89593e-18
-6.99447e-18
-6.93588e-18
-6.96575e-18
-6.92522e-18
-6.99747e-18
-6.9467e-18
-6.9544e-18
-6.95006e-18
-6.92296e-18
-6.90727e-18
-6.90098e-18
-6.91937e-18
-6.88972e-18
-6.93867e-18
-6.95106e-18
-6.9444e-18
-6.9357e-18
-6.92308e-18
-7.0052e-18
-6.96504e-18
-6.96258e-18
-6.94026e-18
-6.95882e-18
-6.93215e-18
-6.98721e-18
-6.95389e-18
-6.94568e-18
-6.90413e-18
-6.8773e-18
-6.91409e-18
-6.85346e-18
-6.94415e-18
-6.91829e-18
-6.9228e-18
-6.94943e-18
-6.93151e-18
-7.01897e-18
-6.9452e-18
-6.95245e-18
-6.94361e-18
-6.93335e-18
-6.91804e-18
-7.00405e-18
-6.9476e-18
-6.94964e-18
-6.95736e-18
-6.8948e-18
-6.93153e-18
-6.91434e-18
-6.94828e-18
-6.92074e-18
-6.93721e-18
-6.95376e-18
-6.95343e-18
-6.99307e-18
-6.95351e-18
-6.98422e-18
-6.95817e-18
-6.90015e-18
-6.91898e-18
-6.98267e-18
-6.95797e-18
-6.98153e-18
-6.96949e-18
-6.88163e-18
-6.94836e-18
-6.95861e-18
-6.9195e-18
-6.93298e-18
-6.97131e-18
-6.96275e-18
-6.95233e-18
-6.98804e-18
-6.9579e-18
-6.95924e-18
-6.98033e-18
-6.95816e-18
-6.93865e-18
-6.98193e-18
-6.98118e-18
-6.99099e-18
-6.95816e-18
-6.93064e-18
-6.97189e-18
-6.91436e-18
-6.93537e-18
-6.95171e-18
-6.97241e-18
-6.99857e-18
-6.93212e-18
-6.9244e-18
-6.93351e-18
-6.95121e-18
-6.94805e-18
-7.05384e-18
-6.92847e-18
-6.94536e-18
-6.97614e-18
-6.96755e-18
-6.9354e-18
-6.96341e-18
-6.96505e-18
-6.882e-18
-6.94792e-18
-6.96947e-18
-6.94264e-18
-7.00773e-18
-6.8737e-18
-6.90362e-18
-6.95203e-18
-6.98389e-18
-6.92658e-18
-7.04608e-18
-6.94485e-18
-6.94488e-18
-6.98091e-18
-6.95704e-18
-6.91372e-18
-6.96295e-18
-6.97028e-18
-6.91053e-18
-6.98926e-18
-7.00437e-18
-7.00611e-18
-7.00429e-18
-6.92441e-18
-6.97292e-18
-7.02923e-18
-7.02546e-18
-6.98646e-18
-6.96891e-18
-6.93312e-18
-6.97884e-18
-6.99598e-18
-6.94015e-18
-6.92477e-18
-6.93856e-18
-6.94943e-18
-6.93154e-18
-6.97012e-18
-7.00625e-18
-7.00187e-18
-6.98646e-18
-6.94263e-18
-6.97273e-18
-7.03774e-18
-6.98906e-18
-6.99383e-18
-6.95347e-18
-6.9294e-18
-6.98872e-18
-6.97416e-18
-6.93986e-18
-6.95224e-18
-6.91464e-18
-6.98539e-18
-6.96733e-18
-6.95447e-18
-6.92316e-18
-6.9876e-18
-6.97039e-18
-6.92092e-18
-6.94513e-18
-6.9488e-18
-6.97443e-18
-6.94278e-18
-6.98796e-18
-6.92538e-18
-7.00908e-18
-7.00367e-18
-6.93737e-18
-6.9779e-18
-6.918e-18
-6.95722e-18
-6.9809e-18
-7.01434e-18
-6.95041e-18
-6.9421e-18
-6.97741e-18
-6.89464e-18
-6.99269e-18
-6.92896e-18
-6.96489e-18
-6.9586e-18
-7.02894e-18
-6.97563e-18
-7.03051e-18
-6.97276e-18
-7.03206e-18
-6.98264e-18
-7.01825e-18
-6.94792e-18
-6.92319e-18
-6.99054e-18
-6.97626e-18
-6.97779e-18
-6.9337e-18
-7.0037e-18
-6.91832e-18
-7.00995e-18
-6.93429e-18
-6.99869e-18
-6.92744e-18
-6.96833e-18
-6.98054e-18
-7.01304e-18
-6.97987e-18
-7.04428e-18
-6.97829e-18
-6.99706e-18
-6.99235e-18
-6.93024e-18
-6.99304e-18
-6.93132e-18
-6.96251e-18
-6.95818e-18
-7.00047e-18
-6.939e-18
-6.9861e-18
-6.93576e-18
-7.01199e-18
-6.95528e-18
-6.92831e-18
-6.94624e-18
-6.9853e-18
-7.01657e-18
-7.00633e-18
-7.04489e-18
-6.95325e-18
-6.98417e-18
-6.99462e-18
-6.96885e-18
-6.98023e-18
-6.94721e-18
-6.95586e-18
-6.94355e-18
-7.02157e-18
-6.91633e-18
-7.00153e-18
-6.92225e-18
-7.00552e-18
-6.93325e-18
-6.95774e-18
-6.91576e-18
-7.01658e-18
-6.99833e-18
-7.0003e-18
-7.02749e-18
-6.94678e-18
-6.98564e-18
-6.97181e-18
-6.95549e-18
-6.99263e-18
-6.9611e-18
-6.96315e-18
-6.93544e-18
-6.99693e-18
-6.91293e-18
-7.00367e-18
-6.95981e-18
-7.02236e-18
-6.88263e-18
-7.03013e-18
-6.94608e-18
-7.04724e-18
-6.99592e-18
-7.00314e-18
-7.01145e-18
-6.96508e-18
-6.99562e-18
-6.97877e-18
-6.94041e-18
-7.02054e-18
-6.94094e-18
-6.9925e-18
-6.93503e-18
-6.97337e-18
-6.89525e-18
-7.01287e-18
-6.99612e-18
-7.04753e-18
-6.94881e-18
-7.05553e-18
-6.95602e-18
-6.99072e-18
-7.01719e-18
-6.9638e-18
-6.99138e-18
-6.95115e-18
-6.97509e-18
-6.96706e-18
-6.89231e-18
-7.00454e-18
-6.93379e-18
-7.00002e-18
-6.94203e-18
-6.98622e-18
-6.93728e-18
-7.03589e-18
-6.92876e-18
-7.04711e-18
-7.01075e-18
-6.9744e-18
-6.95402e-18
-6.98747e-18
-7.03473e-18
-6.96966e-18
-7.01533e-18
-6.94443e-18
-6.94979e-18
-6.98e-18
-6.88539e-18
-7.03478e-18
-6.93432e-18
-7.00406e-18
-6.93597e-18
-6.99444e-18
-6.92381e-18
-7.03284e-18
-6.96413e-18
-7.02463e-18
-6.98083e-18
-7.00118e-18
-6.96423e-18
-6.991e-18
-7.05603e-18
-6.96509e-18
-6.99636e-18
-6.94433e-18
-6.95199e-18
-7.00811e-18
-6.95636e-18
-7.01917e-18
-6.94106e-18
-6.96524e-18
-6.95649e-18
-7.01881e-18
-6.87537e-18
-7.00594e-18
-6.98819e-18
-6.9477e-18
-6.90493e-18
-7.00169e-18
-6.9989e-18
-7.00662e-18
-7.03618e-18
-6.99623e-18
-7.02951e-18
-6.95742e-18
-6.97687e-18
-7.02742e-18
-6.99629e-18
-7.02351e-18
-6.95481e-18
-6.99905e-18
-6.99096e-18
-7.03125e-18
-6.90686e-18
-7.01844e-18
-6.92943e-18
-7.03052e-18
-6.90721e-18
-6.98761e-18
-6.90546e-18
-7.00182e-18
-7.04025e-18
-7.0274e-18
-7.01741e-18
-6.92375e-18
-6.97935e-18
-6.99975e-18
-6.94421e-18
-6.9967e-18
-6.92632e-18
-7.0221e-18
-6.94484e-18
-6.97983e-18
-6.95689e-18
-6.98676e-18
-6.96119e-18
-7.03623e-18
-6.97519e-18
-6.96922e-18
-6.9517e-18
-7.02018e-18
-7.00874e-18
-6.98383e-18
-6.99789e-18
-6.96097e-18
-6.97108e-18
-6.99098e-18
-6.92468e-18
-6.95974e-18
-6.95591e-18
-7.00637e-18
-6.94374e-18
-6.99051e-18
-6.9355e-18
-7.03051e-18
-6.95632e-18
-6.99892e-18
-6.97948e-18
-7.01961e-18
-6.97178e-18
-6.99532e-18
-7.04236e-18
-6.98052e-18
-7.00502e-18
-6.97295e-18
-6.98423e-18
-6.9994e-18
-6.957e-18
-7.00065e-18
-6.98185e-18
-6.99988e-18
-6.95951e-18
-7.02788e-18
-6.9044e-18
-7.00369e-18
-6.93257e-18
-7.00317e-18
-6.93195e-18
-6.98014e-18
-7.02118e-18
-6.97285e-18
-7.0486e-18
-6.96889e-18
-6.98093e-18
-6.96074e-18
-7.02823e-18
-6.99945e-18
-6.97499e-18
-7.01027e-18
-7.00474e-18
-6.99648e-18
-6.95525e-18
-7.01707e-18
-6.94517e-18
-6.99853e-18
-6.92896e-18
-7.00565e-18
-6.94899e-18
-6.96769e-18
-6.97077e-18
-6.9885e-18
-7.03392e-18
-6.98988e-18
-6.95676e-18
-6.9798e-18
-7.00872e-18
-7.00358e-18
-7.00345e-18
-6.99727e-18
-6.9859e-18
-6.98859e-18
-6.98944e-18
-7.04293e-18
-6.94365e-18
-7.00347e-18
-6.95273e-18
-7.00481e-18
-6.95164e-18
-6.97963e-18
-6.95978e-18
-6.99618e-18
-7.03725e-18
-7.00745e-18
-6.97827e-18
-6.99558e-18
-6.99043e-18
-7.00345e-18
-6.992e-18
-6.98595e-18
-6.99545e-18
-6.9674e-18
-6.96781e-18
-7.02804e-18
-6.97432e-18
-7.05927e-18
-6.96934e-18
-7.02382e-18
-6.97461e-18
-6.96739e-18
-6.98264e-18
-6.98816e-18
-7.04518e-18
-7.0247e-18
-6.96968e-18
-7.00894e-18
-6.95975e-18
-6.99054e-18
-6.9779e-18
-6.97709e-18
-6.97782e-18
-6.9777e-18
-6.9715e-18
-7.02435e-18
-6.99462e-18
-7.05538e-18
-6.97022e-18
-7.01373e-18
-6.9663e-18
-6.99108e-18
-6.96238e-18
-6.97933e-18
-7.05637e-18
-7.0185e-18
-7.00146e-18
-7.01238e-18
-6.99647e-18
-6.99219e-18
-7.0231e-18
-6.98406e-18
-6.98153e-18
-7.00113e-18
-6.99306e-18
-6.99027e-18
-6.99812e-18
-7.00843e-18
-6.92966e-18
-7.0292e-18
-6.99219e-18
-6.96198e-18
-6.97986e-18
-6.99302e-18
-7.05446e-18
-7.03029e-18
-7.00969e-18
-7.00859e-18
-7.02184e-18
-6.98903e-18
-7.02648e-18
-6.99646e-18
-6.99891e-18
-7.05053e-18
-6.98577e-18
-6.99986e-18
-6.985e-18
-7.04798e-18
-6.94768e-18
-7.02494e-18
-6.98235e-18
-7.01015e-18
-7.02875e-18
-6.99513e-18
-7.02881e-18
-7.02629e-18
-6.98254e-18
-7.03667e-18
-7.0363e-18
-6.98674e-18
-7.01101e-18
-6.99905e-18
-7.02125e-18
-7.05363e-18
-6.94781e-18
-7.04634e-18
-6.95018e-18
-6.9972e-18
-6.96775e-18
-7.033e-18
-6.94665e-18
-7.00992e-18
-6.98434e-18
-6.9893e-18
-7.00332e-18
-7.00948e-18
-7.0154e-18
-7.02264e-18
-7.03777e-18
-6.99407e-18
-7.01414e-18
-6.9821e-18
-6.99313e-18
-7.03117e-18
-6.96798e-18
-7.04075e-18
-6.96802e-18
-7.01505e-18
-6.91609e-18
-7.05389e-18
-6.97734e-18
-6.9909e-18
-6.98658e-18
-7.01208e-18
-7.02417e-18
-6.98452e-18
-7.03265e-18
-6.99152e-18
-7.0295e-18
-6.99857e-18
-6.99385e-18
-6.97068e-18
-7.01867e-18
-7.02108e-18
-6.95217e-18
-7.05412e-18
-6.99511e-18
-7.04138e-18
-6.93459e-18
-7.02882e-18
-6.95939e-18
-7.0115e-18
-6.99746e-18
-6.99257e-18
-7.03836e-18
-7.00488e-18
-7.03464e-18
-6.97982e-18
-7.00621e-18
-7.0024e-18
-7.01019e-18
-6.96164e-18
-7.0172e-18
-7.0507e-18
-6.97699e-18
-7.03152e-18
-6.98781e-18
-7.05275e-18
-7.00692e-18
-7.04671e-18
-6.95249e-18
-7.06388e-18
-6.97233e-18
-7.00095e-18
-7.04686e-18
-7.00825e-18
-7.04412e-18
-7.02477e-18
-7.00277e-18
-7.00473e-18
-6.98553e-18
-6.96697e-18
-6.99655e-18
-7.05511e-18
-6.97086e-18
-7.03318e-18
-6.96493e-18
-7.06505e-18
-7.01998e-18
-7.0122e-18
-6.97134e-18
-7.04141e-18
-6.9705e-18
-7.00071e-18
-7.01738e-18
-7.0179e-18
-7.01054e-18
-7.02226e-18
-7.00455e-18
-6.99727e-18
-6.99305e-18
-6.98698e-18
-7.00179e-18
-7.03524e-18
-6.989e-18
-7.04395e-18
-7.00177e-18
-7.06089e-18
-7.02637e-18
-7.00675e-18
-6.98115e-18
-7.04811e-18
-7.00069e-18
-6.97951e-18
-7.0375e-18
-7.01756e-18
-7.0148e-18
-7.04793e-18
-7.04121e-18
-7.01076e-18
-7.00591e-18
-7.00275e-18
-7.02834e-18
-7.02613e-18
-6.97866e-18
-6.99879e-18
-6.96888e-18
-7.06066e-18
-7.00878e-18
-7.01545e-18
-6.98065e-18
-7.06299e-18
-7.00738e-18
-7.04254e-18
-7.03776e-18
-7.03215e-18
-7.01098e-18
-7.02512e-18
-7.00781e-18
-7.04253e-18
-7.00547e-18
-7.01151e-18
-6.9599e-18
-7.01887e-18
-6.97913e-18
-6.97483e-18
-6.97416e-18
-7.0542e-18
-7.02861e-18
-7.01924e-18
-6.98668e-18
-7.01921e-18
-7.01443e-18
-7.0219e-18
-7.01008e-18
-6.97826e-18
-6.95055e-18
-6.99932e-18
-6.97359e-18
-7.0473e-18
-7.01397e-18
-6.97146e-18
-6.98365e-18
-6.90762e-18
-6.99307e-18
-6.93959e-18
-6.98451e-18
-6.95809e-18
-7.04992e-18
-6.90385e-18
-6.96228e-18
-7.08163e-18
-6.92014e-18
-6.95915e-18
-7.02896e-18
-6.87571e-18
-6.96448e-18
-6.96872e-18
-6.99594e-18
-6.95523e-18
-7.01932e-18
-7.00367e-18
-6.97376e-18
-6.92688e-18
-7.01296e-18
-7.00928e-18
-6.95435e-18
-6.94001e-18
-6.98005e-18
-6.94806e-18
-6.97973e-18
-7.00052e-18
-6.95042e-18
-6.92208e-18
-6.92448e-18
-6.93606e-18
-6.97734e-18
-6.95015e-18
-6.9842e-18
-6.95941e-18
-6.90309e-18
-6.9029e-18
-6.96019e-18
-7.0308e-18
-6.98868e-18
-6.88767e-18
-6.93999e-18
-6.93321e-18
-7.04947e-18
-6.95044e-18
-6.86955e-18
-7.06619e-18
-6.95228e-18
-6.98132e-18
-6.93803e-18
-6.89167e-18
-7.05545e-18
-6.96847e-18
-6.99723e-18
-6.97895e-18
-7.02793e-18
-6.92762e-18
-7.07408e-18
-6.98111e-18
-7.03596e-18
-6.95164e-18
-7.01642e-18
-6.89612e-18
-7.05258e-18
-6.94924e-18
-7.03071e-18
-6.94814e-18
-7.02021e-18
-6.93107e-18
-6.9673e-18
-6.98776e-18
-6.98463e-18
-7.03232e-18
-6.98248e-18
-7.02515e-18
-6.99831e-18
-6.97065e-18
-6.9444e-18
-7.03202e-18
-6.97283e-18
-7.03079e-18
-7.04196e-18
-6.98805e-18
-7.0462e-18
-6.95037e-18
-6.94224e-18
-6.94504e-18
-7.04008e-18
-6.94694e-18
-6.99981e-18
-6.96021e-18
-6.99401e-18
-7.03082e-18
-6.91888e-18
-6.89618e-18
-6.92834e-18
-6.95598e-18
-7.00809e-18
-6.94728e-18
-7.01651e-18
-6.93292e-18
-6.98649e-18
-6.98983e-18
-6.97794e-18
-6.9532e-18
-6.95186e-18
-6.94615e-18
-7.04557e-18
-7.01475e-18
-7.03468e-18
-7.02351e-18
-7.0469e-18
-7.01509e-18
-7.00737e-18
-6.9907e-18
-6.99302e-18
-6.97303e-18
-6.9984e-18
-6.98922e-18
-7.00615e-18
-7.0081e-18
-7.04878e-18
-7.03557e-18
-6.99767e-18
-7.00539e-18
-7.00193e-18
-6.99594e-18
-7.01431e-18
-7.008e-18
-6.99082e-18
-7.01913e-18
-6.9849e-18
-7.04759e-18
-7.02814e-18
-7.02052e-18
-6.979e-18
-7.01159e-18
-7.02472e-18
-6.96286e-18
-7.00241e-18
-7.02789e-18
-6.97467e-18
-7.02121e-18
-7.01804e-18
-6.99925e-18
-6.98846e-18
-7.004e-18
-7.01134e-18
-7.02235e-18
-6.99467e-18
-6.98621e-18
-7.00054e-18
-7.05632e-18
-7.00382e-18
-7.01163e-18
-6.9834e-18
-7.03855e-18
-6.94592e-18
-7.07829e-18
-6.97609e-18
-6.97997e-18
-7.02382e-18
-7.0427e-18
-7.00896e-18
-7.01194e-18
-6.99855e-18
-7.00496e-18
-6.94798e-18
-7.02312e-18
-6.95758e-18
-6.94688e-18
-7.00765e-18
-7.02341e-18
-7.01891e-18
-6.99377e-18
-6.9823e-18
-6.97441e-18
-7.00178e-18
-6.98102e-18
-6.97682e-18
-6.9798e-18
-6.99995e-18
-6.99465e-18
-6.98593e-18
-6.98644e-18
-6.99539e-18
-6.96959e-18
-6.9895e-18
-6.97816e-18
-6.97392e-18
-7.01864e-18
-6.99388e-18
-6.97888e-18
-6.99849e-18
-6.97133e-18
-7.02947e-18
-6.95079e-18
-6.98966e-18
-7.0094e-18
-6.97814e-18
-7.00555e-18
-6.97335e-18
-6.98833e-18
-6.99623e-18
-6.99879e-18
-7.03712e-18
-7.02217e-18
-6.98764e-18
-7.0319e-18
-6.95816e-18
-7.03842e-18
-6.95741e-18
-6.99197e-18
-7.00415e-18
-6.99183e-18
-6.99733e-18
-6.96669e-18
-7.0264e-18
-7.00013e-18
-6.9853e-18
-6.98406e-18
-6.98994e-18
-6.9829e-18
-6.95004e-18
-6.95098e-18
-6.98897e-18
-7.01839e-18
-7.06387e-18
-7.09141e-18
-7.11626e-18
-7.09685e-18
-7.06147e-18
-7.08757e-18
-7.01828e-18
-7.06547e-18
-7.05951e-18
-7.04352e-18
-7.05269e-18
-7.02869e-18
-7.00862e-18
-6.99427e-18
-7.00342e-18
-6.97061e-18
-7.00638e-18
-7.03935e-18
-7.0453e-18
-7.06425e-18
-6.99158e-18
-6.95662e-18
-6.94177e-18
-6.97077e-18
-6.9021e-18
-6.86852e-18
-6.92277e-18
-6.96087e-18
-6.9835e-18
-7.00866e-18
-6.97371e-18
-6.98034e-18
-7.06848e-18
-7.02163e-18
-6.91132e-18
-6.93249e-18
-6.91773e-18
-6.93905e-18
-7.00598e-18
-6.96418e-18
-6.9634e-18
-6.97864e-18
-6.94845e-18
-7.00217e-18
-6.98585e-18
-6.97487e-18
-6.98739e-18
-7.05607e-18
-7.05627e-18
-7.00019e-18
-7.01241e-18
-7.01139e-18
-7.01466e-18
-6.99917e-18
-7.00034e-18
-6.99912e-18
-7.01475e-18
-7.04247e-18
-7.05064e-18
-7.09763e-18
-7.00776e-18
-7.03139e-18
-7.01345e-18
-7.02927e-18
-7.02436e-18
-7.01393e-18
-7.04411e-18
-7.03274e-18
-7.02247e-18
-7.01334e-18
-7.04413e-18
-7.01079e-18
-7.02798e-18
-7.05729e-18
-7.05468e-18
-6.98743e-18
-7.01209e-18
-6.99278e-18
-7.03569e-18
-6.99406e-18
-6.93401e-18
-6.9888e-18
-7.02717e-18
-7.02925e-18
-6.99953e-18
-6.99438e-18
-7.03677e-18
-7.00757e-18
-6.98501e-18
-6.99285e-18
-6.99586e-18
-7.04655e-18
-6.90555e-18
-6.9455e-18
-6.93372e-18
-6.9288e-18
-6.96817e-18
-6.95241e-18
-6.9342e-18
-6.94857e-18
-6.98022e-18
-7.04698e-18
-6.99791e-18
-6.95578e-18
-6.93776e-18
-7.00737e-18
-7.00109e-18
-6.97262e-18
-6.97767e-18
-6.97722e-18
-6.97735e-18
-7.0055e-18
-6.98564e-18
-6.96386e-18
-6.99146e-18
-7.00677e-18
-6.99453e-18
-7.0027e-18
-7.02058e-18
-7.03737e-18
-7.01586e-18
-7.0174e-18
-7.01171e-18
-7.03571e-18
-7.04593e-18
-6.99556e-18
-6.98537e-18
-6.97377e-18
-6.98942e-18
-7.02111e-18
-7.02428e-18
-6.99021e-18
-6.99977e-18
-6.99577e-18
-7.00114e-18
-7.00248e-18
-6.979e-18
-6.99324e-18
-7.01069e-18
-7.03612e-18
-7.01591e-18
-6.99854e-18
-7.0411e-18
-7.05389e-18
-7.01311e-18
-7.04746e-18
-7.05147e-18
-7.01866e-18
-6.96656e-18
-7.05143e-18
-7.07963e-18
-6.99017e-18
-7.00513e-18
-6.99252e-18
-6.98267e-18
-7.02517e-18
-7.03251e-18
-7.06762e-18
-7.03474e-18
-6.99457e-18
-7.01275e-18
-7.00205e-18
-6.98147e-18
-6.95099e-18
-6.94383e-18
-6.99245e-18
-6.99122e-18
-6.98862e-18
-6.97012e-18
-6.97456e-18
-6.98561e-18
-7.01034e-18
-7.07241e-18
-7.06802e-18
-6.98925e-18
-7.0107e-18
-6.95074e-18
-7.01674e-18
-7.04009e-18
-7.04124e-18
-7.0255e-18
-6.98028e-18
-6.9904e-18
-7.00895e-18
-7.01776e-18
-7.00116e-18
-7.03671e-18
-7.02641e-18
-7.03175e-18
-6.97305e-18
-6.96949e-18
-7.0298e-18
-7.03675e-18
-7.02106e-18
-6.99045e-18
-7.00144e-18
-7.00814e-18
-7.0129e-18
-7.02511e-18
-7.0272e-18
-6.98055e-18
-7.02111e-18
-6.99735e-18
-6.9996e-18
-7.00399e-18
-7.00982e-18
-7.02391e-18
-7.00555e-18
-6.94541e-18
-6.9785e-18
-6.99825e-18
-6.9907e-18
-7.02446e-18
-7.07102e-18
-7.00796e-18
-7.0001e-18
-7.00457e-18
-7.05173e-18
-7.02418e-18
-7.02362e-18
-7.02155e-18
-7.01948e-18
-7.06051e-18
-7.09129e-18
-7.01699e-18
-6.97509e-18
-6.99441e-18
-7.03361e-18
-7.00477e-18
-6.98198e-18
-6.97391e-18
-6.99676e-18
-6.9583e-18
-6.9657e-18
-6.99869e-18
-7.02102e-18
-7.03012e-18
-7.02288e-18
-7.02286e-18
-7.00061e-18
-6.98298e-18
-6.96485e-18
-6.97404e-18
-6.99801e-18
-7.03999e-18
-7.02329e-18
-6.99204e-18
-7.01399e-18
-7.05814e-18
-6.97455e-18
-7.00242e-18
-6.99109e-18
-6.91792e-18
-6.95198e-18
-7.00793e-18
-6.97587e-18
-6.9928e-18
-7.00008e-18
-6.97279e-18
-6.99683e-18
-6.94356e-18
-6.99726e-18
-7.0121e-18
-7.0233e-18
-7.04494e-18
-7.07619e-18
-7.01815e-18
-6.98836e-18
-6.99607e-18
-6.96656e-18
-6.97576e-18
-6.98942e-18
-6.98281e-18
-6.97061e-18
-7.00237e-18
-6.98907e-18
-6.99008e-18
-6.97623e-18
-6.97918e-18
-6.98048e-18
-6.98602e-18
-6.96886e-18
-7.00493e-18
-7.00105e-18
-6.99029e-18
-6.91804e-18
-6.95665e-18
-6.9894e-18
-6.95802e-18
-6.99264e-18
-7.06632e-18
-6.98252e-18
-6.95345e-18
-6.9579e-18
-6.96097e-18
-6.99655e-18
-7.02879e-18
-7.04751e-18
-7.01716e-18
-7.00007e-18
-6.98219e-18
-6.98292e-18
-7.02161e-18
-7.05407e-18
-7.10407e-18
-7.05056e-18
-7.01626e-18
-6.98662e-18
-6.98271e-18
-7.00325e-18
-6.98724e-18
-6.98469e-18
-7.00357e-18
-7.01439e-18
-7.03007e-18
-7.00086e-18
-7.00891e-18
-7.0053e-18
-7.02039e-18
-6.99667e-18
-6.9606e-18
-6.95206e-18
-6.94244e-18
-6.96489e-18
-6.96279e-18
-7.00124e-18
-6.98951e-18
-6.98321e-18
-6.98355e-18
-6.98455e-18
-6.97869e-18
-6.96768e-18
-6.93307e-18
-6.92362e-18
-6.97161e-18
-6.99389e-18
-6.9722e-18
-6.96201e-18
-7.004e-18
-7.00595e-18
-6.97759e-18
-6.98242e-18
-7.00332e-18
-7.04719e-18
-7.00514e-18
-6.9611e-18
-6.95421e-18
-6.98353e-18
-6.97809e-18
-6.9864e-18
-6.97386e-18
-6.99075e-18
-6.97909e-18
-6.94705e-18
-6.94186e-18
-6.9816e-18
-6.98735e-18
-6.98756e-18
-6.98852e-18
-6.9971e-18
-7.00315e-18
-6.96407e-18
-6.96938e-18
-6.94938e-18
-6.94696e-18
-6.93495e-18
-6.98856e-18
-6.98308e-18
-6.9792e-18
-6.96749e-18
-6.98245e-18
-6.99802e-18
-7.01888e-18
-6.99778e-18
-6.97425e-18
-6.97967e-18
-6.99353e-18
-6.98232e-18
-6.99782e-18
-7.01872e-18
-7.0063e-18
-7.01118e-18
-7.06899e-18
-7.01877e-18
-6.96287e-18
-6.96586e-18
-6.98913e-18
-6.95398e-18
-6.92617e-18
-6.95744e-18
-6.9697e-18
-6.99217e-18
-7.03497e-18
-6.9873e-18
-6.98028e-18
-6.9599e-18
-6.974e-18
-6.99102e-18
-7.01591e-18
-7.00717e-18
-7.00454e-18
-6.98701e-18
-6.98437e-18
-6.97984e-18
-6.97804e-18
-6.97028e-18
-6.95412e-18
-6.97423e-18
-6.98076e-18
-6.98596e-18
-7.01033e-18
-7.06627e-18
-7.04601e-18
-6.98999e-18
-6.9706e-18
-6.93295e-18
-6.95774e-18
-6.94786e-18
-6.99564e-18
-7.01718e-18
-7.01819e-18
-7.01176e-18
-7.01601e-18
-6.99505e-18
-6.99086e-18
-7.01251e-18
-6.96738e-18
-6.99635e-18
-7.01079e-18
-6.99214e-18
-7.00173e-18
-7.0199e-18
-6.99193e-18
-6.95907e-18
-6.94255e-18
-6.98498e-18
-6.9806e-18
-6.98191e-18
-6.98566e-18
-6.98146e-18
-6.99801e-18
-6.98261e-18
-6.99082e-18
-7.00908e-18
-6.97588e-18
-6.94302e-18
-6.96056e-18
-6.99316e-18
-6.96339e-18
-6.95746e-18
-6.97456e-18
-6.97644e-18
-7.00309e-18
-6.96281e-18
-6.96728e-18
-6.9568e-18
-6.97592e-18
-7.03784e-18
-7.00557e-18
-6.9969e-18
-6.9774e-18
-6.95317e-18
-6.96132e-18
-6.99311e-18
-6.98217e-18
-6.99698e-18
-6.96567e-18
-6.93547e-18
-7.01224e-18
-6.99135e-18
-6.92605e-18
-6.93444e-18
-6.99096e-18
-6.98664e-18
-6.95996e-18
-6.97562e-18
-6.97755e-18
-6.95169e-18
-6.94986e-18
-6.95087e-18
-6.98897e-18
-6.98305e-18
-6.97749e-18
-6.97327e-18
-6.97089e-18
-6.96351e-18
-6.96157e-18
-6.98265e-18
-6.98004e-18
-6.96463e-18
-6.96732e-18
-6.97242e-18
-7.01033e-18
-7.04692e-18
-6.99989e-18
-6.97647e-18
-6.98176e-18
-6.99332e-18
-6.97248e-18
-6.98227e-18
-6.99669e-18
-6.98227e-18
-7.01093e-18
-7.00902e-18
-7.00703e-18
-6.98179e-18
-6.99132e-18
-6.99727e-18
-7.0131e-18
-7.00435e-18
-6.98941e-18
-6.97775e-18
-6.9923e-18
-6.98832e-18
-6.9396e-18
-6.9302e-18
-6.96562e-18
-6.9831e-18
-6.94209e-18
-6.96602e-18
-6.95636e-18
-6.94847e-18
-6.94509e-18
-6.96201e-18
-6.9326e-18
-6.90138e-18
-6.92478e-18
-6.94993e-18
-6.94106e-18
-6.91455e-18
-6.88521e-18
-6.88713e-18
-6.90315e-18
-6.94266e-18
-6.92841e-18
-6.97043e-18
-6.97125e-18
-6.97103e-18
-6.97374e-18
-6.96523e-18
-6.99332e-18
-7.01728e-18
-7.00145e-18
-6.98196e-18
-6.9574e-18
-6.95972e-18
-6.93874e-18
-6.94825e-18
-6.97838e-18
-6.92831e-18
-6.96882e-18
-6.94964e-18
-6.97453e-18
-6.99929e-18
-6.97015e-18
-6.9718e-18
-6.97924e-18
-6.93467e-18
-6.94818e-18
-6.93515e-18
-6.91762e-18
-6.9448e-18
-6.9755e-18
-6.96503e-18
-6.98484e-18
-6.98247e-18
-6.96169e-18
-6.95203e-18
-6.92875e-18
-6.89807e-18
-6.93882e-18
-6.95378e-18
-6.96918e-18
-6.96856e-18
-6.97872e-18
-6.95837e-18
-6.99262e-18
-6.99978e-18
-6.99649e-18
-7.00387e-18
-6.97607e-18
-6.95396e-18
-6.96503e-18
-6.96293e-18
-6.98329e-18
-6.99838e-18
-6.92082e-18
-6.93156e-18
-6.97889e-18
-6.9688e-18
-6.96643e-18
-6.92259e-18
-6.92031e-18
-6.89766e-18
-6.91282e-18
-6.91842e-18
-6.9253e-18
-6.90971e-18
-6.87366e-18
-6.86611e-18
-6.89738e-18
-6.90144e-18
-6.92948e-18
-6.90104e-18
-6.84423e-18
-6.88912e-18
-6.91982e-18
-6.94395e-18
-6.94202e-18
-6.9365e-18
-6.93698e-18
-6.95408e-18
-6.92805e-18
-6.9408e-18
-6.92865e-18
-6.92513e-18
-6.92295e-18
-6.9237e-18
-6.92281e-18
-6.93057e-18
-6.92188e-18
-6.95442e-18
-6.96302e-18
-6.98446e-18
-6.96704e-18
-6.97137e-18
-6.9424e-18
-6.92856e-18
-6.90106e-18
-6.89739e-18
-6.93392e-18
-6.98301e-18
-6.97778e-18
-6.95136e-18
-6.94984e-18
-6.94879e-18
-6.92721e-18
-6.94499e-18
-6.97127e-18
-6.98482e-18
-6.94745e-18
-6.97123e-18
-7.00416e-18
-6.99021e-18
-6.97857e-18
-6.98174e-18
-6.98508e-18
-6.9928e-18
-7.00323e-18
-6.97056e-18
-6.98062e-18
-6.98446e-18
-6.99404e-18
-7.00795e-18
-6.99322e-18
-6.96933e-18
-7.01019e-18
-7.01887e-18
-6.98209e-18
-6.98361e-18
-7.00252e-18
-6.97234e-18
-6.97805e-18
-7.02205e-18
-6.99329e-18
-6.94496e-18
-6.9741e-18
-6.95051e-18
-6.92572e-18
-6.96151e-18
-6.95029e-18
-6.95304e-18
-6.90995e-18
-6.90167e-18
-6.91455e-18
-6.92946e-18
-6.91371e-18
-6.90842e-18
-6.88371e-18
-6.91547e-18
-6.91381e-18
-6.91368e-18
-6.94763e-18
-6.91228e-18
-6.9102e-18
-6.93445e-18
-6.94727e-18
-6.948e-18
-6.95929e-18
-6.94744e-18
-6.94963e-18
-6.94059e-18
-6.92532e-18
-6.94408e-18
-6.9503e-18
-6.946e-18
-6.93183e-18
-6.91797e-18
-6.9242e-18
-6.90403e-18
-6.91802e-18
-6.90921e-18
-6.91263e-18
-6.93211e-18
-6.91798e-18
-6.94065e-18
-6.9501e-18
-6.96349e-18
-6.98406e-18
-6.97509e-18
-6.97591e-18
-6.9937e-18
-6.98468e-18
-6.98106e-18
-6.97477e-18
-6.98397e-18
-7.00617e-18
-7.0116e-18
-6.98398e-18
-6.97349e-18
-6.99182e-18
-6.97195e-18
-6.98873e-18
-7.04826e-18
-6.96592e-18
-6.93308e-18
-6.95025e-18
-6.94538e-18
-6.97372e-18
-6.99542e-18
-6.94724e-18
-6.95161e-18
-6.941e-18
-6.9632e-18
-6.97283e-18
-6.99087e-18
-7.0204e-18
-6.96756e-18
-6.95866e-18
-6.96645e-18
-6.97665e-18
-6.93921e-18
-6.94161e-18
-6.95073e-18
-6.94344e-18
-6.92973e-18
-6.94651e-18
-6.95023e-18
-6.94739e-18
-6.93286e-18
-6.93062e-18
-6.92287e-18
-6.9321e-18
-6.96006e-18
-6.97668e-18
-6.98726e-18
-7.00141e-18
-6.95519e-18
-6.93467e-18
-6.91176e-18
-6.92234e-18
-6.9633e-18
-6.93324e-18
-6.94976e-18
-6.95827e-18
-6.95927e-18
-6.95978e-18
-6.95084e-18
-6.93499e-18
-6.95662e-18
-6.9672e-18
-6.96367e-18
-6.94129e-18
-6.95856e-18
-6.96974e-18
-6.97726e-18
-6.99226e-18
-6.98992e-18
-7.00044e-18
-6.99277e-18
-7.01057e-18
-6.99161e-18
-6.97243e-18
-6.97961e-18
-6.98582e-18
-6.98811e-18
-6.98165e-18
-6.97304e-18
-6.95878e-18
-6.97097e-18
-6.96969e-18
-6.96446e-18
-6.96188e-18
-6.96356e-18
-6.95543e-18
-6.94652e-18
-6.99878e-18
-7.01128e-18
-6.98506e-18
-6.9786e-18
-6.98065e-18
-6.97393e-18
-6.94693e-18
-6.94527e-18
-6.97816e-18
-6.99668e-18
-6.9866e-18
-6.99877e-18
-6.99517e-18
-6.96222e-18
-6.96421e-18
-6.95326e-18
-6.9584e-18
-6.95463e-18
-6.96323e-18
-6.9574e-18
-6.96249e-18
-6.98436e-18
-7.00823e-18
-6.99119e-18
-6.99116e-18
-7.01042e-18
-7.00133e-18
-6.96356e-18
-6.96153e-18
-6.96132e-18
-6.95911e-18
-6.95165e-18
-6.93851e-18
-6.95593e-18
-6.96568e-18
-6.99048e-18
-7.02383e-18
-6.96346e-18
-6.96951e-18
-6.97679e-18
-6.97429e-18
-6.96673e-18
-6.99731e-18
-6.98773e-18
-6.98269e-18
-6.99137e-18
-7.01146e-18
-6.99512e-18
-6.98813e-18
-6.98936e-18
-6.98958e-18
-6.97972e-18
-6.97111e-18
-6.99229e-18
-6.97215e-18
-6.9916e-18
-6.9786e-18
-6.99971e-18
-6.98173e-18
-6.92556e-18
-6.93937e-18
-6.98307e-18
-6.97365e-18
-6.9765e-18
-6.9885e-18
-6.94698e-18
-6.96308e-18
-6.98724e-18
-6.97241e-18
-6.96367e-18
-6.96721e-18
-6.97862e-18
-6.99798e-18
-6.9711e-18
-6.94616e-18
-6.957e-18
-6.97008e-18
-6.98498e-18
-6.97325e-18
-6.97126e-18
-6.97196e-18
-6.96558e-18
-6.95177e-18
-6.97014e-18
-6.97925e-18
-6.96801e-18
-6.94017e-18
-6.96979e-18
-6.983e-18
-6.9863e-18
-6.99096e-18
-6.98523e-18
-6.94463e-18
-6.94399e-18
-6.93561e-18
-6.95303e-18
-6.95915e-18
-6.95812e-18
-6.95711e-18
-6.95447e-18
-6.95496e-18
-6.95919e-18
-6.96741e-18
-6.98439e-18
-6.94562e-18
-6.8973e-18
-6.94824e-18
-6.98754e-18
-6.96685e-18
-6.94311e-18
-6.96167e-18
-6.97327e-18
-6.97555e-18
-6.96931e-18
-6.95513e-18
-6.96963e-18
-6.97642e-18
-6.97584e-18
-6.96803e-18
-6.95257e-18
-6.96769e-18
-6.97624e-18
-6.96399e-18
-6.96062e-18
-6.95729e-18
-6.95442e-18
-6.95282e-18
-6.95199e-18
-6.95261e-18
-6.95266e-18
-6.9505e-18
-6.94788e-18
-6.94638e-18
-6.9291e-18
-6.90477e-18
-6.98039e-18
-6.94071e-18
-6.94479e-18
-6.95381e-18
-6.94938e-18
-6.93647e-18
-6.95577e-18
-6.96291e-18
-6.95946e-18
-6.95244e-18
-6.99404e-18
-7.00408e-18
-6.98409e-18
-6.97335e-18
-6.95794e-18
-6.97301e-18
-6.98911e-18
-7.01002e-18
-6.93513e-18
-6.92255e-18
-6.96525e-18
-6.95589e-18
-6.94124e-18
-6.92345e-18
-6.95598e-18
-6.98257e-18
-6.95382e-18
-6.92175e-18
-6.94314e-18
-6.95749e-18
-6.96257e-18
-6.98284e-18
-6.97336e-18
-6.98269e-18
-6.98767e-18
-6.97443e-18
-6.95372e-18
-7.00258e-18
-6.97539e-18
-6.95584e-18
-6.95894e-18
-6.95904e-18
-6.95413e-18
-6.94301e-18
-6.9509e-18
-6.94003e-18
-6.9424e-18
-6.96502e-18
-6.96804e-18
-6.97749e-18
-6.96235e-18
-6.96536e-18
-6.97207e-18
-6.97713e-18
-7.01642e-18
-7.04062e-18
-6.9877e-18
-6.95345e-18
-6.91962e-18
-6.92271e-18
-6.94463e-18
-6.93693e-18
-6.92275e-18
-6.98692e-18
-6.95959e-18
-6.96737e-18
-6.94422e-18
-6.97079e-18
-6.98478e-18
-6.96515e-18
-6.94087e-18
-6.96143e-18
-6.98157e-18
-7.00649e-18
-6.99285e-18
-6.98614e-18
-6.98901e-18
-6.98393e-18
-6.98029e-18
-7.01775e-18
-6.93018e-18
-6.9423e-18
-6.97415e-18
-7.00865e-18
-6.94657e-18
-6.95617e-18
-6.98366e-18
-6.96505e-18
-6.95659e-18
-6.95996e-18
-6.973e-18
-6.98774e-18
-6.96673e-18
-6.96051e-18
-6.96285e-18
-6.93891e-18
-6.94791e-18
-6.93761e-18
-6.96198e-18
-6.9922e-18
-7.00203e-18
-6.99474e-18
-6.96482e-18
-6.94113e-18