/*--------------------------------*- C++ -*----------------------------------*\
  =========                 |
  \\      /  F ield         | OpenFOAM: The Open Source CFD Toolbox
   \\    /   O peration     | Website:  https://openfoam.org
    \\  /    A nd           | Version:  7
     \\/     M anipulation  |
\*---------------------------------------------------------------------------*/
FoamFile
{
    version     2.0;
    format      ascii;
    class       volScalarField;
    location    "244000";
    object      omega;
}
// * * * * * * * * * * * * * * * * * * * * * * * * * * * * * * * * * * * * * //

dimensions      [0 0 -1 0 0 0 0];

internalField   nonuniform List<scalar> 
4850
(
0.0293325
0.0290647
0.0298521
0.0295791
0.0293169
0.0303825
0.0301043
0.029837
0.02958
0.0293336
0.0309238
0.0306404
0.030368
0.0301061
0.0298549
0.0296145
0.0314759
0.0311873
0.0309099
0.030643
0.030387
0.030142
0.0299083
0.0320388
0.0317451
0.0314627
0.0311909
0.0309301
0.0306805
0.0304423
0.0302156
0.0300007
0.0326126
0.0323138
0.0320263
0.0317497
0.0314841
0.0312299
0.0309872
0.0307563
0.0305374
0.0303305
0.0331974
0.0328935
0.032601
0.0323194
0.0320491
0.0317903
0.0315432
0.0313081
0.031085
0.0308743
0.030676
0.0304904
0.0303175
0.0301575
0.0337931
0.0334841
0.0331866
0.0329002
0.0326251
0.0323617
0.0321102
0.0318708
0.0316437
0.0314291
0.0312272
0.0310381
0.030862
0.0306989
0.0305491
0.0304126
0.0302895
0.0301799
0.0344
0.0340858
0.0337832
0.0334919
0.0332122
0.0329442
0.0326883
0.0324446
0.0322135
0.031995
0.0317895
0.0315969
0.0314176
0.0312515
0.031099
0.0309599
0.0308345
0.0307229
0.030625
0.030541
0.035018
0.0346986
0.0343911
0.0340949
0.0338103
0.0335378
0.0332774
0.0330295
0.0327943
0.032572
0.0323628
0.0321669
0.0319843
0.0318153
0.0316599
0.0315184
0.0313907
0.031277
0.0311773
0.0310918
0.0310204
0.0309633
0.0309204
0.0308918
0.0356473
0.0353228
0.0350101
0.034709
0.0344197
0.0341425
0.0338778
0.0336256
0.0333864
0.0331602
0.0329474
0.032748
0.0325622
0.0323902
0.0322321
0.032088
0.0319581
0.0318423
0.0317409
0.0316538
0.0315812
0.031523
0.0314793
0.0314502
0.0314356
0.0314356
0.0314502
0.0314793
0.031523
0.0362881
0.0359583
0.0356406
0.0353345
0.0350404
0.0347586
0.0344894
0.034233
0.0339897
0.0337597
0.0335432
0.0333403
0.0331514
0.0329764
0.0328155
0.0326689
0.0325367
0.0324189
0.0323157
0.032227
0.0321531
0.0320939
0.0320495
0.0320198
0.032005
0.032005
0.0320198
0.0320495
0.0320939
0.0321531
0.032227
0.0323156
0.0369404
0.0366054
0.0362825
0.0359714
0.0356725
0.0353861
0.0351124
0.0348518
0.0346044
0.0343705
0.0341503
0.033944
0.0337518
0.0335738
0.0334102
0.0332611
0.0331266
0.0330067
0.0329017
0.0328116
0.0327363
0.0326761
0.0326309
0.0326007
0.0325856
0.0325856
0.0326007
0.0326309
0.0326761
0.0327363
0.0328116
0.0329017
0.0330067
0.0331265
0.0376045
0.0372641
0.0369361
0.03662
0.0363162
0.0360251
0.0357469
0.035482
0.0352305
0.0349927
0.0347689
0.0345591
0.0343637
0.0341827
0.0340163
0.0338646
0.0337278
0.033606
0.0334992
0.0334075
0.033331
0.0332697
0.0332237
0.033193
0.0331777
0.0331777
0.033193
0.0332237
0.0332697
0.033331
0.0334075
0.0334992
0.033606
0.0337278
0.0382804
0.0379347
0.0376014
0.0372803
0.0369716
0.0366758
0.0363931
0.0361238
0.0358682
0.0356265
0.035399
0.0351858
0.0349871
0.034803
0.0346339
0.0344797
0.0343406
0.0342167
0.0341081
0.0340148
0.033937
0.0338747
0.0338279
0.0337967
0.0337811
0.0337811
0.0337967
0.0338279
0.0338747
0.033937
0.0340148
0.034108
0.0342167
0.0343406
0.0389685
0.0386174
0.0382788
0.0379525
0.0376389
0.0373384
0.0370511
0.0367775
0.0365177
0.036272
0.0360408
0.035824
0.0356221
0.035435
0.0352631
0.0351063
0.0349649
0.0348389
0.0347285
0.0346337
0.0345546
0.0344913
0.0344437
0.034412
0.0343962
0.0343961
0.034412
0.0344437
0.0344913
0.0345546
0.0346337
0.0347285
0.0348389
0.0349649
0.0396689
0.0393122
0.0389683
0.0386369
0.0383183
0.0380129
0.0377211
0.037443
0.037179
0.0369294
0.0366944
0.0364741
0.0362689
0.0360788
0.035904
0.0357447
0.0356009
0.0354729
0.0353607
0.0352643
0.0351839
0.0351195
0.0350712
0.0350389
0.0350228
0.0350228
0.0350389
0.0350712
0.0351195
0.0351839
0.0352643
0.0353607
0.0354729
0.0356009
0.0403817
0.0400195
0.0396702
0.0393336
0.0390099
0.0386997
0.0384032
0.0381207
0.0378525
0.0375988
0.03736
0.0371362
0.0369276
0.0367344
0.0365568
0.0363949
0.0362488
0.0361187
0.0360046
0.0359067
0.035825
0.0357596
0.0357104
0.0356777
0.0356613
0.0356613
0.0356777
0.0357104
0.0357596
0.035825
0.0359067
0.0360046
0.0361187
0.0362488
0.0411074
0.0407395
0.0403847
0.0400428
0.039714
0.0393989
0.0390976
0.0388106
0.0385382
0.0382805
0.0380378
0.0378104
0.0375985
0.0374022
0.0372217
0.0370572
0.0369087
0.0367765
0.0366606
0.0365611
0.0364781
0.0364116
0.0363616
0.0363283
0.0363117
0.0363117
0.0363283
0.0363616
0.0364116
0.0364781
0.0365611
0.0366606
0.0367765
0.0369087
0.041846
0.0414724
0.041112
0.0407647
0.0404308
0.0401107
0.0398047
0.0395131
0.0392363
0.0389745
0.038728
0.038497
0.0382816
0.0380822
0.0378988
0.0377317
0.0375808
0.0374465
0.0373287
0.0372276
0.0371432
0.0370757
0.037025
0.0369911
0.0369742
0.0369742
0.0369911
0.037025
0.0370757
0.0371432
0.0372276
0.0373287
0.0374465
0.0375808
0.0425978
0.0422184
0.0418525
0.0414997
0.0411605
0.0408353
0.0405245
0.0402283
0.0399471
0.0396812
0.0394307
0.039196
0.0389773
0.0387747
0.0385884
0.0384185
0.0382653
0.0381288
0.0380092
0.0379064
0.0378207
0.0377521
0.0377006
0.0376662
0.037649
0.037649
0.0376662
0.0377006
0.0377521
0.0378207
0.0379064
0.0380092
0.0381288
0.0382653
0.0433632
0.0429779
0.0426062
0.0422479
0.0419034
0.0415731
0.0412573
0.0409565
0.0406709
0.0404007
0.0401463
0.0399079
0.0396856
0.0394798
0.0392906
0.039118
0.0389624
0.0388237
0.0387022
0.0385978
0.0385107
0.038441
0.0383886
0.0383537
0.0383363
0.0383363
0.0383537
0.0383886
0.038441
0.0385107
0.0385978
0.0387022
0.0388237
0.0389624
0.039118
0.0441424
0.0437511
0.0433736
0.0430096
0.0426597
0.0423242
0.0420035
0.0416979
0.0414078
0.0411333
0.0408749
0.0406327
0.040407
0.0401979
0.0400056
0.0398304
0.0396722
0.0395314
0.0394079
0.0393019
0.0392134
0.0391426
0.0390894
0.039054
0.0390362
0.0390362
0.039054
0.0390894
0.0391426
0.0392134
0.0393019
0.0394079
0.0395314
0.0396722
0.0398303
0.0449357
0.0445383
0.0441548
0.0437852
0.0434298
0.043089
0.0427632
0.0424528
0.0421581
0.0418793
0.0416168
0.0413708
0.0411415
0.0409291
0.0407338
0.0405558
0.0403952
0.0402521
0.0401267
0.040019
0.0399291
0.0398572
0.0398031
0.0397671
0.0397491
0.0397491
0.0397671
0.0398031
0.0398572
0.0399291
0.040019
0.0401266
0.0402521
0.0403951
0.0405557
0.0457435
0.0453398
0.0449504
0.0445749
0.0442139
0.0438677
0.0435368
0.0432215
0.0429221
0.042639
0.0423723
0.0421224
0.0418895
0.0416737
0.0414754
0.0412945
0.0411314
0.040986
0.0408586
0.0407493
0.040658
0.0405849
0.04053
0.0404934
0.0404751
0.0404751
0.0404934
0.04053
0.0405849
0.040658
0.0407492
0.0408586
0.040986
0.0411313
0.046566
0.046156
0.0457604
0.045379
0.0450123
0.0446607
0.0443246
0.0440043
0.0437002
0.0434125
0.0431417
0.0428878
0.0426512
0.0424321
0.0422306
0.0420469
0.0418811
0.0417335
0.0416041
0.041493
0.0414003
0.0413261
0.0412703
0.0412332
0.0412146
0.0412146
0.0412332
0.0412703
0.0413261
0.0414003
0.041493
0.0416041
0.0417335
0.0418811
0.0474036
0.0469872
0.0465854
0.0461979
0.0458254
0.0454683
0.0451268
0.0448015
0.0444925
0.0442004
0.0439252
0.0436673
0.043427
0.0432044
0.0429997
0.0428131
0.0426448
0.0424948
0.0423634
0.0422505
0.0421564
0.042081
0.0420244
0.0419866
0.0419677
0.0419677
0.0419866
0.0420244
0.042081
0.0421564
0.0422505
0.0423634
0.0424948
0.0426448
0.0482568
0.0478338
0.0474256
0.047032
0.0466536
0.0462907
0.0459439
0.0456134
0.0452995
0.0450027
0.0447232
0.0444613
0.0442171
0.043991
0.0437831
0.0435935
0.0434226
0.0432702
0.0431367
0.0430221
0.0429265
0.0428499
0.0427924
0.042754
0.0427349
0.0427349
0.042754
0.0427924
0.0428499
0.0429265
0.0430221
0.0431367
0.0432702
0.0434225
0.0491258
0.0486961
0.0482814
0.0478816
0.0474971
0.0471285
0.0467761
0.0464403
0.0461215
0.04582
0.045536
0.0452699
0.0450219
0.0447922
0.044581
0.0443885
0.0442148
0.0440601
0.0439245
0.0438081
0.0437109
0.0436331
0.0435747
0.0435358
0.0435163
0.0435163
0.0435358
0.0435747
0.0436331
0.0437109
0.043808
0.0439245
0.0440601
0.0500112
0.0495746
0.0491532
0.048747
0.0483564
0.0479819
0.0476239
0.0472828
0.0469589
0.0466525
0.0463641
0.0460937
0.0458418
0.0456084
0.0453939
0.0451983
0.0450219
0.0448647
0.044727
0.0446087
0.04451
0.044431
0.0443717
0.0443321
0.0443123
0.0443123
0.0443321
0.0443717
0.044431
0.04451
0.0446087
0.0447269
0.0448647
0.0509132
0.0504696
0.0500415
0.0496287
0.0492319
0.0488514
0.0484876
0.048141
0.0478119
0.0475007
0.0472076
0.046933
0.046677
0.0464399
0.046222
0.0460233
0.0458441
0.0456844
0.0455445
0.0454244
0.0453241
0.0452439
0.0451836
0.0451434
0.0451233
0.0451233
0.0451434
0.0451836
0.0452439
0.0453241
0.0454244
0.0455445
0.0518323
0.0513816
0.0509465
0.0505272
0.0501239
0.0497373
0.0493677
0.0490155
0.0486811
0.0483649
0.0480671
0.0477881
0.047528
0.0472872
0.0470657
0.0468639
0.0466818
0.0465196
0.0463775
0.0462554
0.0461536
0.0460721
0.0460109
0.0459701
0.0459496
0.0459496
0.04597
0.0460109
0.0460721
0.0461536
0.0462554
0.0463775
0.0527691
0.052311
0.0518689
0.0514427
0.051033
0.0506401
0.0502645
0.0499066
0.0495669
0.0492455
0.048943
0.0486594
0.0483952
0.0481505
0.0479255
0.0477204
0.0475354
0.0473707
0.0472263
0.0471023
0.0469989
0.046916
0.0468539
0.0468124
0.0467916
0.0467916
0.0468124
0.0468538
0.046916
0.0469988
0.0471023
0.0472263
0.0537239
0.0532584
0.0528091
0.0523759
0.0519595
0.0515602
0.0511785
0.0508148
0.0504696
0.050143
0.0498356
0.0495474
0.0492789
0.0490303
0.0488017
0.0485934
0.0484054
0.048238
0.0480913
0.0479653
0.0478603
0.0477761
0.0477129
0.0476708
0.0476497
0.0476497
0.0476708
0.0477129
0.0477761
0.0478602
0.0479653
0.0480913
0.0546973
0.0542241
0.0537674
0.0533272
0.0529039
0.0524981
0.0521102
0.0517406
0.0513897
0.0510578
0.0507454
0.0504526
0.0501797
0.0499271
0.0496948
0.0494831
0.0492921
0.049122
0.0489729
0.048845
0.0487382
0.0486527
0.0485885
0.0485457
0.0485243
0.0485243
0.0485457
0.0485885
0.0486527
0.0487382
0.048845
0.0489729
0.0556898
0.0552088
0.0547446
0.0542971
0.0538668
0.0534543
0.05306
0.0526844
0.0523277
0.0519904
0.0516728
0.0513753
0.051098
0.0508412
0.0506052
0.05039
0.050196
0.0500232
0.0498717
0.0497416
0.0496332
0.0495463
0.0494811
0.0494376
0.0494158
0.0494158
0.0494376
0.0494811
0.0495463
0.0496332
0.0497416
0.0498717
0.0567018
0.0562129
0.0557409
0.055286
0.0548486
0.0544293
0.0540285
0.0536466
0.0532841
0.0529413
0.0526185
0.052316
0.0520342
0.0517732
0.0515333
0.0513147
0.0511175
0.0509419
0.0507879
0.0506558
0.0505456
0.0504573
0.050391
0.0503468
0.0503247
0.0503247
0.0503468
0.050391
0.0504573
0.0505456
0.0506558
0.0507879
0.0577341
0.057237
0.0567571
0.0562946
0.0558499
0.0554236
0.0550161
0.0546279
0.0542594
0.0539109
0.0535827
0.0532753
0.0529889
0.0527236
0.0524798
0.0522576
0.0520571
0.0518787
0.0517222
0.0515879
0.0514759
0.0513862
0.0513189
0.051274
0.0512515
0.0512515
0.051274
0.0513189
0.0513862
0.0514759
0.0515879
0.0517222
0.0587871
0.0582816
0.0577937
0.0573234
0.0568712
0.0564378
0.0560235
0.0556288
0.0552541
0.0548998
0.0545662
0.0542537
0.0539625
0.0536928
0.053445
0.0532191
0.0530154
0.052834
0.052675
0.0525385
0.0524247
0.0523335
0.0522651
0.0522194
0.0521966
0.0521966
0.0522194
0.0522651
0.0523335
0.0524247
0.0525385
0.052675
0.0598615
0.0593474
0.0588512
0.0583729
0.0579132
0.0574724
0.0570511
0.0566498
0.0562688
0.0559085
0.0555694
0.0552516
0.0549556
0.0546815
0.0544295
0.0541999
0.0539928
0.0538084
0.0536468
0.0535081
0.0533924
0.0532997
0.0532302
0.0531838
0.0531606
0.0531606
0.0531838
0.0532302
0.0532997
0.0533924
0.0535081
0.0536468
0.0609578
0.0604349
0.0599303
0.0594439
0.0589763
0.058528
0.0580996
0.0576915
0.057304
0.0569377
0.0565928
0.0562698
0.0559688
0.0556901
0.0554339
0.0552005
0.05499
0.0548025
0.0546382
0.0544972
0.0543796
0.0542854
0.0542147
0.0541675
0.0541439
0.0541439
0.0541675
0.0542147
0.0542854
0.0543796
0.0544972
0.0546382
0.0620768
0.0615449
0.0610316
0.0605369
0.0600613
0.0596053
0.0591696
0.0587545
0.0583604
0.0579879
0.0576372
0.0573087
0.0570026
0.0567192
0.0564587
0.0562214
0.0560074
0.0558168
0.0556497
0.0555064
0.0553868
0.055291
0.0552192
0.0551712
0.0551472
0.0551472
0.0551712
0.0552192
0.055291
0.0553868
0.0555064
0.0556497
0.0632191
0.062678
0.0621558
0.0616525
0.0611687
0.0607049
0.0602617
0.0598394
0.0594387
0.0590597
0.0587031
0.0583689
0.0580577
0.0577695
0.0575046
0.0572633
0.0570456
0.0568518
0.056682
0.0565362
0.0564146
0.0563173
0.0562442
0.0561955
0.0561711
0.0561711
0.0561955
0.0562442
0.0563173
0.0564146
0.0565362
0.056682
0.0643855
0.0638349
0.0633036
0.0627915
0.0622993
0.0618275
0.0613765
0.060947
0.0605393
0.0601539
0.0597911
0.0594512
0.0591346
0.0588415
0.0585722
0.0583267
0.0581054
0.0579083
0.0577356
0.0575874
0.0574637
0.0573647
0.0572904
0.0572409
0.0572161
0.0572161
0.0572409
0.0572904
0.0573647
0.0574637
0.0575874
0.0577356
0.0655766
0.0650163
0.0644757
0.0639546
0.0634538
0.0629737
0.0625149
0.0620779
0.0616631
0.061271
0.0609019
0.0605562
0.0602341
0.059936
0.059662
0.0594124
0.0591873
0.0589868
0.0588112
0.0586605
0.0585347
0.058434
0.0583585
0.0583081
0.0582829
0.0582829
0.0583081
0.0583585
0.058434
0.0585347
0.0586604
0.0588112
0.0667932
0.066223
0.0656728
0.0651425
0.0646329
0.0641443
0.0636774
0.0632327
0.0628107
0.0624118
0.0620362
0.0616845
0.0613569
0.0610536
0.0607749
0.060521
0.060292
0.0600881
0.0599094
0.0597561
0.0596282
0.0595258
0.059449
0.0593977
0.0593721
0.0593721
0.0593977
0.059449
0.0595258
0.0596282
0.0597561
0.0680362
0.0674558
0.0668958
0.0663561
0.0658373
0.0653401
0.0648649
0.0644124
0.0639829
0.0635769
0.0631948
0.0628369
0.0625036
0.062195
0.0619115
0.0616531
0.0614202
0.0612128
0.061031
0.0608751
0.060745
0.0606408
0.0605627
0.0605105
0.0604845
0.0604845
0.0605105
0.0605627
0.0606408
0.060745
0.0608751
0.0693063
0.0687155
0.0681454
0.067596
0.0670679
0.0665618
0.0660782
0.0656176
0.0651805
0.0647673
0.0643784
0.0640142
0.063675
0.063361
0.0630725
0.0628096
0.0625726
0.0623616
0.0621767
0.062018
0.0618857
0.0617797
0.0617002
0.0616472
0.0616207
0.0616207
0.0616472
0.0617002
0.0617797
0.0618857
0.0706045
0.070003
0.0694225
0.0688632
0.0683256
0.0678103
0.067318
0.0668491
0.0664041
0.0659836
0.0655878
0.0652171
0.0648719
0.0645523
0.0642587
0.0639912
0.0637501
0.0635354
0.0633472
0.0631858
0.0630511
0.0629433
0.0628624
0.0628084
0.0627814
0.0627814
0.0628084
0.0628624
0.0629433
0.0630511
0.0719316
0.0713191
0.070728
0.0701585
0.0696111
0.0690865
0.0685852
0.0681078
0.0676548
0.0672267
0.0668238
0.0664465
0.0660951
0.0657698
0.065471
0.0651988
0.0649533
0.0647348
0.0645433
0.0643791
0.064242
0.0641323
0.06405
0.0639951
0.0639676
0.0639676
0.0639951
0.06405
0.0641323
0.064242
0.0732886
0.0726647
0.0720628
0.0714828
0.0709253
0.0703911
0.0698807
0.0693946
0.0689334
0.0684975
0.0680873
0.0677031
0.0673454
0.0670143
0.0667101
0.066433
0.0661832
0.0659608
0.0657659
0.0655987
0.0654592
0.0653476
0.0652638
0.0652079
0.06518
0.06518
0.0652079
0.0652638
0.0653476
0.0654592
0.0746765
0.074041
0.0734278
0.0728371
0.0722693
0.0717252
0.0712054
0.0707103
0.0702407
0.0697968
0.0693791
0.068988
0.0686238
0.0682867
0.067977
0.0676949
0.0674406
0.0672142
0.0670158
0.0668456
0.0667036
0.06659
0.0665047
0.0664478
0.0664194
0.0664194
0.0664478
0.0665047
0.06659
0.0667036
0.0760962
0.0754488
0.0748242
0.0742224
0.073644
0.0730898
0.0725602
0.072056
0.0715777
0.0711256
0.0707003
0.070302
0.0699311
0.0695878
0.0692725
0.0689853
0.0687263
0.0684958
0.0682939
0.0681206
0.0679761
0.0678604
0.0677735
0.0677156
0.0676867
0.0676867
0.0677156
0.0677735
0.0678604
0.0679761
0.0775488
0.0768892
0.0762528
0.0756397
0.0750504
0.0744858
0.0739463
0.0734327
0.0729454
0.0724849
0.0720517
0.071646
0.0712683
0.0709187
0.0705976
0.0703051
0.0700414
0.0698067
0.0696011
0.0694246
0.0692775
0.0691597
0.0690713
0.0690123
0.0689828
0.0689828
0.0690123
0.0690713
0.0691597
0.0692775
0.0790356
0.0783634
0.0777149
0.0770901
0.0764896
0.0759142
0.0753646
0.0748413
0.0743448
0.0738757
0.0734344
0.0730212
0.0726364
0.0722804
0.0719533
0.0716554
0.0713868
0.0711478
0.0709384
0.0707587
0.0706088
0.0704889
0.0703989
0.0703388
0.0703088
0.0703088
0.0703388
0.0703989
0.0704889
0.0706088
0.0805575
0.0798724
0.0792115
0.0785747
0.0779627
0.0773763
0.0768162
0.076283
0.0757771
0.0752991
0.0748495
0.0744285
0.0740365
0.0736738
0.0733406
0.0730371
0.0727636
0.0725201
0.0723068
0.0721238
0.0719712
0.071849
0.0717573
0.0716962
0.0716656
0.0716656
0.0716962
0.0717573
0.071849
0.0719712
0.0821159
0.0814175
0.0807438
0.0800946
0.0794709
0.0788732
0.0783023
0.0777588
0.0772433
0.0767562
0.076298
0.075869
0.0754696
0.0751001
0.0747606
0.0744514
0.0741728
0.0739247
0.0737074
0.073521
0.0733655
0.0732411
0.0731477
0.0730854
0.0730543
0.0730543
0.0730854
0.0731477
0.0732411
0.0733655
0.0837119
0.083
0.0823131
0.0816513
0.0810153
0.080406
0.0798241
0.0792701
0.0787446
0.0782482
0.0777812
0.077344
0.076937
0.0765604
0.0762145
0.0758994
0.0756155
0.0753627
0.0751414
0.0749514
0.074793
0.0746662
0.0745711
0.0745076
0.0744759
0.0744759
0.0745076
0.0745711
0.0746662
0.074793
0.085347
0.0846211
0.0839206
0.0832458
0.0825973
0.0819761
0.0813828
0.080818
0.0802823
0.0797762
0.0793001
0.0788545
0.0784397
0.0780558
0.0777033
0.0773823
0.0770929
0.0768353
0.0766097
0.0764162
0.0762548
0.0761256
0.0760286
0.075964
0.0759316
0.0759316
0.075964
0.0760286
0.0761256
0.0762548
0.0870225
0.0862822
0.0855678
0.0848795
0.0842182
0.0835847
0.0829796
0.0824037
0.0818575
0.0813415
0.0808562
0.0804019
0.079979
0.0795878
0.0792284
0.0789012
0.0786062
0.0783437
0.0781138
0.0779165
0.077752
0.0776203
0.0775215
0.0774556
0.0774227
0.0774227
0.0774556
0.0775215
0.0776203
0.077752
0.0887399
0.0879847
0.087256
0.0865539
0.0858794
0.0852332
0.0846161
0.0840288
0.0834718
0.0829456
0.0824507
0.0819875
0.0815563
0.0811574
0.080791
0.0804574
0.0801567
0.0798891
0.0796547
0.0794537
0.079286
0.0791517
0.079051
0.0789839
0.0789503
0.0789503
0.0789839
0.079051
0.0791517
0.079286
0.0905006
0.0897302
0.0889867
0.0882704
0.0875823
0.0869231
0.0862936
0.0856945
0.0851264
0.0845897
0.084085
0.0836126
0.0831729
0.0827661
0.0823926
0.0820524
0.0817458
0.081473
0.081234
0.081029
0.080858
0.0807212
0.0806185
0.08055
0.0805158
0.0805158
0.08055
0.0806185
0.0807212
0.080858
0.0923063
0.0915203
0.0907615
0.0900306
0.0893284
0.0886558
0.0880136
0.0874024
0.0868228
0.0862754
0.0857606
0.0852787
0.0848302
0.0844154
0.0840344
0.0836875
0.0833748
0.0830966
0.0828529
0.0826438
0.0824695
0.08233
0.0822253
0.0821554
0.0821205
0.0821205
0.0821554
0.0822253
0.08233
0.0824695
0.0941585
0.0933565
0.0925821
0.091836
0.0911194
0.090433
0.0897776
0.089154
0.0885626
0.0880041
0.0874789
0.0869873
0.0865298
0.0861066
0.085718
0.0853641
0.0850452
0.0847614
0.0845129
0.0842996
0.0841219
0.0839795
0.0838728
0.0838016
0.083766
0.083766
0.0838016
0.0838728
0.0839795
0.0841218
0.0960592
0.0952405
0.09445
0.0936884
0.0929569
0.0922563
0.0915874
0.0909509
0.0903474
0.0897774
0.0892415
0.08874
0.0882732
0.0878414
0.0874449
0.0870839
0.0867585
0.086469
0.0862155
0.085998
0.0858166
0.0856715
0.0855625
0.0854899
0.0854536
0.0854536
0.0854899
0.0855626
0.0856715
0.0858166
0.09801
0.0971743
0.0963671
0.0955895
0.0948426
0.0941274
0.0934445
0.0927948
0.0921789
0.0915972
0.0910502
0.0905383
0.090062
0.0896213
0.0892167
0.0888484
0.0885164
0.088221
0.0879623
0.0877404
0.0875554
0.0874073
0.0872962
0.0872221
0.087185
0.087185
0.0872221
0.0872962
0.0874073
0.0875554
0.100013
0.0991597
0.0983352
0.0975411
0.0967784
0.0960481
0.0953509
0.0946876
0.0940588
0.0934649
0.0929066
0.0923841
0.0918979
0.0914482
0.0910353
0.0906593
0.0903205
0.0900191
0.0897551
0.0895286
0.0893398
0.0891887
0.0890753
0.0889997
0.0889619
0.0889619
0.0889997
0.0890753
0.0891887
0.0893398
0.10207
0.101199
0.100356
0.0995452
0.0987663
0.0980204
0.0973085
0.0966311
0.095989
0.0953827
0.0948126
0.0942792
0.0937828
0.0933237
0.0929022
0.0925184
0.0921726
0.0918649
0.0915955
0.0913643
0.0911716
0.0910173
0.0909016
0.0908245
0.0907859
0.0907859
0.0908245
0.0909016
0.0910174
0.0911716
0.104184
0.103293
0.102433
0.101604
0.100808
0.100046
0.0993191
0.0986273
0.0979715
0.0973523
0.0967702
0.0962255
0.0957186
0.0952499
0.0948195
0.0944276
0.0940746
0.0937604
0.0934853
0.0932494
0.0930526
0.0928952
0.092777
0.0926983
0.0926589
0.0926589
0.0926983
0.092777
0.0928952
0.0930526
0.104566
0.103719
0.102906
0.102128
0.101385
0.100678
0.100008
0.0993758
0.0987812
0.0982249
0.0977073
0.0972285
0.0949848
0.094824
0.0947034
0.094623
0.0945828
0.0945828
0.094623
0.0947034
0.0948241
0.0949848
0.0239778
0.0239374
0.0239071
0.0238869
0.0238768
0.0238768
0.0238869
0.0239071
0.0239374
0.0239778
0.024416
0.0243639
0.0243222
0.0242909
0.0242701
0.0242597
0.0242597
0.0242701
0.0242909
0.0243222
0.0243639
0.024416
0.0244785
0.0245514
0.0246348
0.0247285
0.0248326
0.0249471
0.0250719
0.0252071
0.0253526
0.0249556
0.0248805
0.0248162
0.0247626
0.0247197
0.0246875
0.0246661
0.0246554
0.0246554
0.0246661
0.0246875
0.0247197
0.0247626
0.0248162
0.0248805
0.0249556
0.0250413
0.0251377
0.0252447
0.0253624
0.0254907
0.0256296
0.025779
0.0259388
0.0261092
0.0262898
0.0264809
0.025669
0.0255591
0.0254601
0.0253721
0.025295
0.0252289
0.0251738
0.0251297
0.0250966
0.0250746
0.0250635
0.0250635
0.0250746
0.0250966
0.0251297
0.0251738
0.0252289
0.025295
0.0253721
0.0254601
0.0255591
0.025669
0.0257899
0.0259215
0.026064
0.0262173
0.0263812
0.0265558
0.026741
0.0269367
0.0271427
0.0273591
0.0275857
0.0263642
0.0262292
0.0261053
0.0259926
0.025891
0.0258007
0.0257216
0.0256537
0.0255972
0.0255519
0.025518
0.0254953
0.025484
0.025484
0.0254953
0.025518
0.0255519
0.0255972
0.0256537
0.0257216
0.0258007
0.025891
0.0259926
0.0261053
0.0262292
0.0263642
0.0265103
0.0266673
0.0268353
0.0270141
0.0272037
0.0274039
0.0276148
0.0278361
0.0280677
0.0283095
0.0285613
0.0288238
0.0271289
0.0269682
0.0268186
0.0266804
0.0265534
0.0264379
0.0263338
0.0262412
0.0261602
0.0260906
0.0260326
0.0259862
0.0259514
0.0259282
0.0259165
0.0259165
0.0259282
0.0259514
0.0259862
0.0260326
0.0260906
0.0261602
0.0262413
0.0263339
0.0264379
0.0265534
0.0266804
0.0268186
0.0269682
0.0271289
0.0273008
0.0274838
0.0276777
0.0278825
0.028098
0.0283242
0.0285608
0.0288077
0.0290647
0.0293325
0.0277778
0.027602
0.0274376
0.0272846
0.0271431
0.0270132
0.026895
0.0267884
0.0266936
0.0266105
0.0265393
0.0264799
0.0264324
0.0263967
0.0263729
0.026361
0.026361
0.0263729
0.0263967
0.0264324
0.0264799
0.0265393
0.0266105
0.0266936
0.0267884
0.026895
0.0270132
0.0271431
0.0272846
0.0274376
0.027602
0.0277778
0.0279648
0.0281631
0.0283723
0.0285925
0.0288234
0.0290649
0.0293169
0.0295791
0.0298521
0.0284571
0.028266
0.0280864
0.0279184
0.027762
0.0276173
0.0274845
0.0273635
0.0272546
0.0271575
0.0270726
0.0269997
0.0269389
0.0268902
0.0268537
0.0268294
0.0268172
0.0268172
0.0268294
0.0268537
0.0268902
0.0269389
0.0269997
0.0270726
0.0271576
0.0272546
0.0273636
0.0274845
0.0276173
0.027762
0.0279184
0.0280864
0.0282661
0.0284571
0.0286596
0.0288733
0.029098
0.0293336
0.02958
0.029837
0.0301043
0.0303825
0.0291672
0.0289606
0.0287655
0.0285821
0.0284104
0.0282507
0.0281029
0.0279672
0.0278436
0.0277322
0.027633
0.0275462
0.0274716
0.0274095
0.0273597
0.0273224
0.0272975
0.027285
0.027285
0.0272975
0.0273224
0.0273597
0.0274095
0.0274716
0.0275462
0.027633
0.0277322
0.0278436
0.0279672
0.0281029
0.0282507
0.0284105
0.0285821
0.0287655
0.0289606
0.0291672
0.0293853
0.0296145
0.0298549
0.0301061
0.030368
0.0306404
0.0309238
0.0299083
0.0296859
0.0294751
0.0292761
0.0290889
0.0289137
0.0287507
0.0285998
0.0284612
0.028335
0.0282212
0.0281199
0.0280312
0.027955
0.0278915
0.0278407
0.0278025
0.0277771
0.0277643
0.0277643
0.0277771
0.0278025
0.0278407
0.0278915
0.027955
0.0280312
0.0281199
0.0282212
0.028335
0.0284612
0.0285998
0.0287507
0.0289138
0.0290889
0.0292761
0.0294751
0.0296859
0.0299083
0.030142
0.030387
0.0306431
0.0309099
0.0311873
0.0314759
0.0304423
0.0302156
0.0300007
0.0297978
0.0296069
0.0294282
0.0292618
0.0291079
0.0289664
0.0288376
0.0287215
0.0286181
0.0285275
0.0284497
0.0283849
0.028333
0.028294
0.028268
0.0282551
0.0282551
0.028268
0.028294
0.028333
0.0283849
0.0284497
0.0285275
0.0286181
0.0287215
0.0288376
0.0289664
0.0291079
0.0292618
0.0294282
0.0296069
0.0297978
0.0300007
0.0302156
0.0304423
0.0306805
0.0309301
0.0311909
0.0314627
0.0317451
0.0320388
0.0312299
0.0309872
0.0307563
0.0305374
0.0303305
0.0301359
0.0299537
0.0297841
0.0296271
0.0294829
0.0293515
0.029233
0.0291275
0.0290351
0.0289558
0.0288896
0.0288366
0.0287969
0.0287703
0.0287571
0.0287571
0.0287703
0.0287969
0.0288366
0.0288896
0.0289558
0.0290351
0.0291275
0.029233
0.0293515
0.0294829
0.0296271
0.0297841
0.0299538
0.0301359
0.0303305
0.0305374
0.0307563
0.0309873
0.0312299
0.0314841
0.0317497
0.0320264
0.0323138
0.0326126
0.0320491
0.0317903
0.0315432
0.0313081
0.031085
0.0308743
0.030676
0.0304904
0.0303175
0.0301575
0.0300104
0.0298765
0.0297557
0.0296481
0.0295539
0.029473
0.0294055
0.0293515
0.0293109
0.0292839
0.0292704
0.0292704
0.0292839
0.0293109
0.0293515
0.0294055
0.029473
0.0295539
0.0296481
0.0297557
0.0298765
0.0300104
0.0301575
0.0303175
0.0304904
0.030676
0.0308743
0.031085
0.0313081
0.0315432
0.0317903
0.0320491
0.0323194
0.032601
0.0328935
0.0331974
0.0326251
0.0323617
0.0321102
0.0318708
0.0316437
0.0314291
0.0312272
0.0310381
0.030862
0.030699
0.0305491
0.0304126
0.0302895
0.0301799
0.0300839
0.0300014
0.0299326
0.0298776
0.0298362
0.0298087
0.0297949
0.0297949
0.0298087
0.0298362
0.0298776
0.0299327
0.0300014
0.0300839
0.0301799
0.0302895
0.0304126
0.0305491
0.030699
0.030862
0.0310381
0.0312272
0.0314291
0.0316437
0.0318708
0.0321102
0.0323617
0.0326251
0.0329002
0.0331866
0.0334841
0.0337931
0.0334919
0.0332121
0.0329442
0.0326882
0.0324446
0.0322135
0.031995
0.0317895
0.0315969
0.0314176
0.0312516
0.031099
0.0309599
0.0308345
0.0307229
0.030625
0.030541
0.030471
0.0304149
0.0303727
0.0303446
0.0303306
0.0303306
0.0303447
0.0303727
0.0304149
0.030471
0.030541
0.030625
0.0307229
0.0308346
0.0309599
0.031099
0.0312516
0.0314176
0.0315969
0.0317895
0.031995
0.0322135
0.0324446
0.0326883
0.0329442
0.0332122
0.0334919
0.0337832
0.0340858
0.0344
0.0340948
0.0338103
0.0335377
0.0332774
0.0330295
0.0327943
0.032572
0.0323628
0.0321669
0.0319843
0.0318153
0.03166
0.0315184
0.0313907
0.031277
0.0311774
0.0310918
0.0310205
0.0309633
0.0309204
0.0308918
0.0308775
0.0308775
0.0308918
0.0309204
0.0309633
0.0310205
0.0310918
0.0311774
0.031277
0.0313907
0.0315184
0.03166
0.0318153
0.0319843
0.0321669
0.0323628
0.0325721
0.0327944
0.0330295
0.0332774
0.0335378
0.0338103
0.0340949
0.0343911
0.0346987
0.035018
0.034709
0.0344197
0.0341425
0.0338777
0.0336256
0.0333864
0.0331602
0.0329474
0.032748
0.0325622
0.0323902
0.0322321
0.032088
0.0319581
0.0318423
0.0317409
0.0316538
0.0315812
0.031523
0.0314793
0.0314502
0.0314356
0.0314356
0.0314502
0.0314793
0.031523
0.0315812
0.0316538
0.0317409
0.0318423
0.0319581
0.032088
0.0322321
0.0323902
0.0325622
0.032748
0.0329474
0.0331603
0.0333864
0.0336256
0.0338778
0.0341425
0.0344197
0.034709
0.0350101
0.0353228
0.0356473
0.0353345
0.0350404
0.0347586
0.0344894
0.034233
0.0339897
0.0337597
0.0335432
0.0333403
0.0331514
0.0329764
0.0328155
0.0326689
0.0325367
0.0324189
0.0323157
0.0322271
0.0321531
0.0320939
0.0320495
0.0320198
0.032005
0.032005
0.0320198
0.0320495
0.0320939
0.0321531
0.0322271
0.0323157
0.0324189
0.0325367
0.0326689
0.0328155
0.0329764
0.0331514
0.0333404
0.0335432
0.0337597
0.0339897
0.034233
0.0344894
0.0347586
0.0350404
0.0353345
0.0356406
0.0359583
0.0362881
0.0359714
0.0356725
0.0353861
0.0351124
0.0348517
0.0346044
0.0343705
0.0341503
0.033944
0.0337518
0.0335738
0.0334102
0.0332611
0.0331266
0.0330068
0.0329017
0.0328116
0.0327364
0.0326761
0.0326309
0.0326008
0.0325857
0.0325857
0.0326008
0.0326309
0.0326761
0.0327364
0.0328116
0.0329017
0.0330068
0.0331266
0.0332611
0.0334102
0.0335738
0.0337518
0.033944
0.0341503
0.0343705
0.0346044
0.0348518
0.0351124
0.0353861
0.0356725
0.0359714
0.0362825
0.0366054
0.0369404
0.03662
0.0363162
0.0360251
0.0357469
0.035482
0.0352305
0.0349927
0.0347689
0.0345591
0.0343637
0.0341827
0.0340163
0.0338646
0.0337278
0.033606
0.0334992
0.0334075
0.033331
0.0332697
0.0332237
0.033193
0.0331777
0.0331777
0.033193
0.0332237
0.0332697
0.033331
0.0334075
0.0334992
0.033606
0.0337279
0.0338647
0.0340163
0.0341827
0.0343637
0.0345591
0.0347689
0.0349927
0.0352305
0.035482
0.035747
0.0360251
0.0363162
0.03662
0.0369361
0.0372641
0.0376045
0.0372803
0.0369716
0.0366758
0.0363931
0.0361238
0.0358682
0.0356265
0.035399
0.0351858
0.0349871
0.034803
0.0346339
0.0344797
0.0343406
0.0342167
0.0341081
0.0340148
0.033937
0.0338747
0.033828
0.0337968
0.0337812
0.0337812
0.0337968
0.033828
0.0338747
0.033937
0.0340148
0.0341081
0.0342167
0.0343406
0.0344797
0.0346339
0.0348031
0.0349871
0.0351858
0.035399
0.0356265
0.0358682
0.0361239
0.0363931
0.0366758
0.0369717
0.0372803
0.0376014
0.0379347
0.0382804
0.0379525
0.0376389
0.0373383
0.0370511
0.0367774
0.0365177
0.036272
0.0360408
0.035824
0.0356221
0.035435
0.0352631
0.0351063
0.0349649
0.0348389
0.0347285
0.0346337
0.0345546
0.0344913
0.0344437
0.034412
0.0343962
0.0343962
0.034412
0.0344438
0.0344913
0.0345547
0.0346337
0.0347285
0.034839
0.0349649
0.0351063
0.0352631
0.035435
0.0356221
0.0358241
0.0360408
0.0362721
0.0365177
0.0367775
0.0370511
0.0373384
0.037639
0.0379525
0.0382788
0.0386174
0.0389685
0.0386369
0.0383183
0.0380129
0.037721
0.037443
0.037179
0.0369294
0.0366944
0.0364741
0.0362689
0.0360788
0.035904
0.0357447
0.0356009
0.0354729
0.0353607
0.0352643
0.0351839
0.0351195
0.0350712
0.035039
0.0350228
0.0350228
0.035039
0.0350712
0.0351195
0.0351839
0.0352643
0.0353607
0.0354729
0.035601
0.0357447
0.035904
0.0360788
0.0362689
0.0364742
0.0366944
0.0369294
0.0371791
0.037443
0.0377211
0.0380129
0.0383183
0.0386369
0.0389683
0.0393122
0.0396689
0.0393335
0.0390099
0.0386997
0.0384031
0.0381207
0.0378525
0.0375988
0.03736
0.0371362
0.0369276
0.0367344
0.0365568
0.0363949