/*--------------------------------*- C++ -*----------------------------------*\
  =========                 |
  \\      /  F ield         | OpenFOAM: The Open Source CFD Toolbox
   \\    /   O peration     | Website:  https://openfoam.org
    \\  /    A nd           | Version:  7
     \\/     M anipulation  |
\*---------------------------------------------------------------------------*/
FoamFile
{
    version     2.0;
    format      ascii;
    class       volScalarField;
    location    "4000";
    object      p;
}
// * * * * * * * * * * * * * * * * * * * * * * * * * * * * * * * * * * * * * //

dimensions      [0 2 -2 0 0 0 0];

internalField   nonuniform List<scalar> 
4844
(
-1.12612e-19
-7.90299e-19
-7.44266e-19
-6.01867e-19
-8.15916e-19
-7.44297e-19
-7.37068e-19
-7.30114e-19
-7.16951e-19
-7.11999e-19
-7.06383e-19
-7.44027e-19
-8.11722e-19
-7.4818e-19
-7.41026e-19
-7.30046e-19
-7.1391e-19
-7.14231e-19
-7.06689e-19
-6.98309e-19
-6.91366e-19
-6.91461e-19
-7.48472e-19
-7.85541e-19
-7.50917e-19
-7.40727e-19
-7.34125e-19
-7.16577e-19
-7.15301e-19
-7.10608e-19
-7.04096e-19
-7.04214e-19
-6.88081e-19
-6.85222e-19
-6.82477e-19
-6.74209e-19
-6.86416e-19
-6.80122e-19
-7.42592e-19
-7.74479e-19
-7.44716e-19
-7.36477e-19
-7.2938e-19
-7.11308e-19
-7.21368e-19
-7.05613e-19
-7.03512e-19
-7.0308e-19
-6.89399e-19
-6.89469e-19
-6.78524e-19
-6.81272e-19
-6.83369e-19
-6.81368e-19
-7.4069e-19
-7.62878e-19
-7.3924e-19
-7.39896e-19
-7.22725e-19
-7.11437e-19
-7.15113e-19
-7.0225e-19
-7.04972e-19
-6.98224e-19
-6.91384e-19
-6.91495e-19
-6.77363e-19
-6.85021e-19
-6.81552e-19
-6.74731e-19
-7.62875e-19
-7.41691e-19
-7.33369e-19
-7.22022e-19
-7.12876e-19
-7.13113e-19
-6.99353e-19
-7.06355e-19
-6.91275e-19
-6.91702e-19
-6.91951e-19
-6.80106e-19
-6.8884e-19
-6.78837e-19
-6.77447e-19
-7.59327e-19
-7.42387e-19
-7.32594e-19
-7.22251e-19
-7.16301e-19
-7.13752e-19
-6.98303e-19
-7.06066e-19
-6.95386e-19
-6.95286e-19
-6.91899e-19
-6.92052e-19
-6.88995e-19
-6.74131e-19
-6.75911e-19
-7.54496e-19
-7.36947e-19
-7.28753e-19
-7.23055e-19
-7.16092e-19
-7.13739e-19
-7.01913e-19
-7.07878e-19
-6.95132e-19
-6.94915e-19
-6.89564e-19
-6.92804e-19
-6.8791e-19
-6.6995e-19
-6.80657e-19
-7.43576e-19
-7.50279e-19
-7.31583e-19
-7.26832e-19
-7.22947e-19
-7.13313e-19
-7.14921e-19
-7.08603e-19
-7.06428e-19
-6.96569e-19
-6.96041e-19
-6.89175e-19
-6.81138e-19
-6.8044e-19
-6.75292e-19
-6.80181e-19
-7.44877e-19
-7.49821e-19
-7.32882e-19
-7.23897e-19
-7.27504e-19
-7.15334e-19
-7.11022e-19
-7.13593e-19
-6.96639e-19
-6.97184e-19
-6.94706e-19
-6.85732e-19
-6.80726e-19
-6.77893e-19
-6.75627e-19
-6.71989e-19
-7.39613e-19
-7.44653e-19
-7.31359e-19
-7.24697e-19
-7.24689e-19
-7.15512e-19
-7.17291e-19
-7.07477e-19
-6.98062e-19
-6.96219e-19
-6.94026e-19
-6.88939e-19
-6.85922e-19
-6.78085e-19
-6.7205e-19
-6.69735e-19
-7.38821e-19
-7.41365e-19
-7.28328e-19
-7.28708e-19
-7.22727e-19
-7.13811e-19
-7.21567e-19
-7.06163e-19
-7.00799e-19
-7.00069e-19
-6.96545e-19
-6.91933e-19
-6.83805e-19
-6.80803e-19
-6.70072e-19
-6.7286e-19
-7.40032e-19
-7.36914e-19
-7.36673e-19
-7.24204e-19
-7.32311e-19
-7.21913e-19
-7.12509e-19
-7.15504e-19
-7.03084e-19
-7.05144e-19
-7.06825e-19
-6.9337e-19
-6.93354e-19
-6.86926e-19
-6.82301e-19
-6.744e-19
-6.73564e-19
-7.3778e-19
-7.34741e-19
-7.32246e-19
-7.30594e-19
-7.30905e-19
-7.21928e-19
-7.12882e-19
-7.15557e-19
-7.07213e-19
-7.01106e-19
-7.02803e-19
-7.02931e-19
-6.93435e-19
-6.8719e-19
-6.86021e-19
-6.81624e-19
-6.73415e-19
-7.38288e-19
-7.35888e-19
-7.33465e-19
-7.3159e-19
-7.34833e-19
-7.2563e-19
-7.22048e-19
-7.17735e-19
-7.12881e-19
-7.11066e-19
-7.02652e-19
-6.96453e-19
-7.06825e-19
-6.88593e-19
-6.89857e-19
-6.82811e-19
-6.80904e-19
-6.71948e-19
-7.34023e-19
-7.34041e-19
-7.31245e-19
-7.27839e-19
-7.35453e-19
-7.23523e-19
-7.16883e-19
-7.14378e-19
-7.03711e-19
-7.09244e-19
-7.04728e-19
-6.91501e-19
-6.98693e-19
-6.86075e-19
-6.9673e-19
-6.83455e-19
-6.77155e-19
-6.68316e-19
-7.38234e-19
-7.31527e-19
-7.28202e-19
-7.25953e-19
-7.30481e-19
-7.21919e-19
-7.1767e-19
-7.10833e-19
-7.09406e-19
-7.10923e-19
-7.07354e-19
-6.91072e-19
-6.96531e-19
-6.80323e-19
-6.93161e-19
-6.81666e-19
-6.73614e-19
-6.68981e-19
-7.32761e-19
-7.26161e-19
-7.30427e-19
-7.29655e-19
-7.25685e-19
-7.22715e-19
-7.18644e-19
-7.1398e-19
-7.14793e-19
-7.09375e-19
-7.0565e-19
-6.90804e-19
-6.99411e-19
-6.86219e-19
-6.88704e-19
-6.76409e-19
-6.80299e-19
-6.75678e-19
-7.30088e-19
-7.26165e-19
-7.29592e-19
-7.3437e-19
-7.31183e-19
-7.26144e-19
-7.16225e-19
-7.15018e-19
-7.12791e-19
-7.07651e-19
-7.02244e-19
-6.92403e-19
-7.01288e-19
-6.89168e-19
-6.88542e-19
-6.79606e-19
-6.85867e-19
-6.73854e-19
-7.28294e-19
-7.29055e-19
-7.29483e-19
-7.24335e-19
-7.26601e-19
-7.2139e-19
-7.13258e-19
-7.13597e-19
-7.10142e-19
-7.04281e-19
-7.00114e-19
-6.95313e-19
-7.02869e-19
-6.92113e-19
-6.88084e-19
-6.80987e-19
-6.80912e-19
-6.71574e-19
-7.29568e-19
-7.27751e-19
-7.30524e-19
-7.23065e-19
-7.21774e-19
-7.18565e-19
-7.07333e-19
-7.12455e-19
-7.04368e-19
-7.00901e-19
-7.00601e-19
-6.95786e-19
-7.0392e-19
-6.89681e-19
-6.87027e-19
-6.8105e-19
-6.78954e-19
-6.69679e-19
-7.3072e-19
-7.25336e-19
-7.28145e-19
-7.29584e-19
-7.22012e-19
-7.19575e-19
-7.13484e-19
-7.1131e-19
-7.03263e-19
-7.01471e-19
-7.00585e-19
-6.9784e-19
-7.0066e-19
-6.90652e-19
-6.90191e-19
-6.81576e-19
-6.74257e-19
-6.69904e-19
-7.26381e-19
-7.24872e-19
-7.28343e-19
-7.29313e-19
-7.18697e-19
-7.20854e-19
-7.17659e-19
-7.0729e-19
-7.0426e-19
-7.04355e-19
-6.99858e-19
-6.97147e-19
-7.00563e-19
-6.9109e-19
-6.86726e-19
-6.83584e-19
-6.78824e-19
-6.71977e-19
-7.24439e-19
-7.25718e-19
-7.27096e-19
-7.26572e-19
-7.21809e-19
-7.22416e-19
-7.11934e-19
-7.09214e-19
-7.05886e-19
-7.03553e-19
-7.02884e-19
-6.94488e-19
-6.92669e-19
-6.88171e-19
-6.85577e-19
-6.80493e-19
-6.89575e-19
-6.70061e-19
-7.18388e-19
-7.23429e-19
-7.22846e-19
-7.22597e-19
-7.23808e-19
-7.19848e-19
-7.0666e-19
-7.1044e-19
-7.06627e-19
-6.99616e-19
-7.03164e-19
-6.86823e-19
-6.89691e-19
-6.8986e-19
-6.88332e-19
-6.7869e-19
-6.88131e-19
-6.71827e-19
-7.16607e-19
-7.22253e-19
-7.20165e-19
-7.18634e-19
-7.23014e-19
-7.19319e-19
-7.0897e-19
-7.14369e-19
-7.09792e-19
-7.06505e-19
-7.0218e-19
-6.91853e-19
-6.96739e-19
-6.98353e-19
-6.92157e-19
-6.85456e-19
-6.79423e-19
-6.70251e-19
-7.19699e-19
-7.22242e-19
-7.16736e-19
-7.18945e-19
-7.18134e-19
-7.14663e-19
-7.09704e-19
-7.10532e-19
-7.09143e-19
-7.04388e-19
-7.00046e-19
-6.93153e-19
-6.9573e-19
-6.97477e-19
-6.87159e-19
-6.85423e-19
-6.77463e-19
-6.69675e-19
-7.17252e-19
-7.18911e-19
-7.15953e-19
-7.19392e-19
-7.14193e-19
-7.18321e-19
-7.13801e-19
-7.07536e-19
-6.99884e-19
-7.03051e-19
-6.98083e-19
-6.89606e-19
-6.9107e-19
-6.85961e-19
-6.85495e-19
-6.78213e-19
-6.81304e-19
-6.68911e-19
-7.16847e-19
-7.2172e-19
-7.14881e-19
-7.20245e-19
-7.13493e-19
-7.14373e-19
-7.15035e-19
-7.1401e-19
-7.02483e-19
-6.97103e-19
-6.9847e-19
-6.85673e-19
-6.96361e-19
-6.82927e-19
-6.84231e-19
-6.79244e-19
-6.86216e-19
-6.74963e-19
-7.19711e-19
-7.11807e-19
-7.23617e-19
-7.20451e-19
-7.23082e-19
-7.15992e-19
-7.09778e-19
-7.15651e-19
-7.08767e-19
-7.04725e-19
-6.95192e-19
-7.00934e-19
-6.88542e-19
-6.97696e-19
-6.83479e-19
-6.88132e-19
-6.74496e-19
-6.78739e-19
-6.75498e-19
-7.15756e-19
-7.12346e-19
-7.22638e-19
-7.20717e-19
-7.19951e-19
-7.20515e-19
-7.09624e-19
-7.14687e-19
-7.02081e-19
-7.02328e-19
-6.97542e-19
-6.99297e-19
-6.90784e-19
-6.93743e-19
-6.82948e-19
-6.89281e-19
-6.77506e-19
-6.73021e-19
-6.70887e-19
-7.06247e-19
-7.14669e-19
-7.1508e-19
-7.21496e-19
-7.1604e-19
-7.17523e-19
-7.19227e-19
-7.12927e-19
-7.10997e-19
-7.03241e-19
-7.00885e-19
-6.94802e-19
-7.01531e-19
-6.87051e-19
-6.95159e-19
-6.80402e-19
-6.87773e-19
-6.74107e-19
-6.76285e-19
-6.66596e-19
-7.11067e-19
-7.1049e-19
-7.13389e-19
-7.18794e-19
-7.13205e-19
-7.17177e-19
-7.14873e-19
-7.09861e-19
-7.11013e-19
-7.04173e-19
-7.00945e-19
-6.93286e-19
-6.9817e-19
-6.85861e-19
-6.94799e-19
-6.84383e-19
-6.89338e-19
-6.66607e-19
-6.85294e-19
-6.7007e-19
-7.15675e-19
-7.08254e-19
-7.12301e-19
-7.15905e-19
-7.14093e-19
-7.16403e-19
-7.14045e-19
-7.06615e-19
-7.13366e-19
-7.00942e-19
-7.04179e-19
-6.92938e-19
-6.94511e-19
-6.82601e-19
-6.95235e-19
-6.88423e-19
-6.92501e-19
-6.74402e-19
-6.87936e-19
-6.70742e-19
-7.08977e-19
-7.10279e-19
-7.07231e-19
-7.1261e-19
-7.11478e-19
-7.11159e-19
-7.10755e-19
-6.98915e-19
-7.10481e-19
-6.9949e-19
-7.04307e-19
-6.93412e-19
-6.95657e-19
-6.87316e-19
-6.97952e-19
-6.78761e-19
-6.92336e-19
-6.82186e-19
-6.76769e-19
-6.69836e-19
-7.0745e-19
-7.11781e-19
-7.0718e-19
-7.1618e-19
-7.09509e-19
-7.05995e-19
-7.10874e-19
-6.97324e-19
-7.13683e-19
-6.98786e-19
-7.04033e-19
-6.92131e-19
-6.9621e-19
-6.8489e-19
-6.9715e-19
-6.82425e-19
-6.89538e-19
-6.77644e-19
-6.79976e-19
-6.70525e-19
-7.06937e-19
-7.14236e-19
-7.05985e-19
-7.12493e-19
-7.08092e-19
-7.05129e-19
-7.13598e-19
-7.05611e-19
-7.10871e-19
-6.98654e-19
-6.98625e-19
-6.93532e-19
-6.9946e-19
-6.77573e-19
-6.93553e-19
-6.84328e-19
-6.7885e-19
-6.67194e-19
-6.79601e-19
-6.74491e-19
-7.07952e-19
-7.11447e-19
-7.09399e-19
-7.15928e-19
-7.08236e-19
-7.07702e-19
-7.14964e-19
-7.10149e-19
-7.10874e-19
-6.99378e-19
-7.02579e-19
-6.97074e-19
-7.01046e-19
-6.80302e-19
-6.94221e-19
-6.76824e-19
-6.88499e-19
-6.67184e-19
-6.7733e-19
-6.61441e-19
-7.05545e-19
-7.11098e-19
-7.12792e-19
-7.13181e-19
-7.02185e-19
-7.07164e-19
-7.10142e-19
-7.02292e-19
-7.06614e-19
-6.94685e-19
-7.04904e-19
-6.90367e-19
-6.93904e-19
-6.86512e-19
-6.89079e-19
-6.80475e-19
-6.88756e-19
-6.75824e-19
-6.74871e-19
-6.68005e-19
-7.06596e-19
-7.06225e-19
-7.05953e-19
-7.09294e-19
-7.05901e-19
-7.05148e-19
-7.07873e-19
-6.98454e-19
-7.00803e-19
-6.97942e-19
-7.01852e-19
-6.89869e-19
-6.94499e-19
-6.83301e-19
-6.94275e-19
-6.79354e-19
-6.83385e-19
-6.75706e-19
-6.81512e-19
-6.70752e-19
-7.02635e-19
-7.09667e-19
-7.04591e-19
-7.09039e-19
-7.06745e-19
-7.06082e-19
-7.07828e-19
-7.01274e-19
-7.05507e-19
-7.00641e-19
-7.00206e-19
-6.91308e-19
-6.98806e-19
-6.78889e-19
-6.90074e-19
-6.75618e-19
-6.83709e-19
-6.68797e-19
-6.75751e-19
-6.77717e-19
-6.9901e-19
-7.09814e-19
-7.02052e-19
-7.05083e-19
-7.04238e-19
-7.11125e-19
-7.06832e-19
-7.02258e-19
-7.05951e-19
-7.03159e-19
-6.99408e-19
-6.89914e-19
-6.96769e-19
-6.83321e-19
-6.88964e-19
-6.74251e-19
-6.83784e-19
-6.70893e-19
-6.73678e-19
-6.70107e-19
-7.00362e-19
-7.07234e-19
-7.0368e-19
-7.00999e-19
-7.05101e-19
-7.07559e-19
-7.06452e-19
-7.05641e-19
-7.03631e-19
-6.99528e-19
-6.97621e-19
-6.93622e-19
-6.99661e-19
-6.81975e-19
-6.88985e-19
-6.76851e-19
-6.83307e-19
-6.71128e-19
-6.74285e-19
-6.67873e-19
-7.00525e-19
-7.07036e-19
-7.04967e-19
-7.0233e-19
-7.057e-19
-7.0414e-19
-7.055e-19
-7.03503e-19
-7.01685e-19
-6.99634e-19
-6.93913e-19
-6.89866e-19
-6.9686e-19
-6.84864e-19
-6.96026e-19
-6.78357e-19
-6.85552e-19
-6.73762e-19
-6.71762e-19
-6.70093e-19
-6.9869e-19
-7.07653e-19
-7.06251e-19
-6.99736e-19
-7.06129e-19
-6.98965e-19
-7.02652e-19
-7.00536e-19
-6.99778e-19
-6.96715e-19
-6.94742e-19
-6.89547e-19
-6.95447e-19
-6.87159e-19
-6.9474e-19
-6.77825e-19
-6.83797e-19
-6.72264e-19
-6.74746e-19
-6.66475e-19
-6.96853e-19
-7.07966e-19
-7.04524e-19
-7.02802e-19
-7.05485e-19
-7.02627e-19
-7.01972e-19
-7.05739e-19
-6.99914e-19
-6.96617e-19
-6.97321e-19
-6.9172e-19
-6.9025e-19
-6.87099e-19
-6.87713e-19
-6.71586e-19
-6.85779e-19
-6.75341e-19
-6.70083e-19
-6.68754e-19
-6.97776e-19
-7.06681e-19
-7.05302e-19
-7.02916e-19
-7.03875e-19
-7.04789e-19
-7.00916e-19
-7.05289e-19
-7.00814e-19
-6.98368e-19
-7.03583e-19
-6.9018e-19
-6.91438e-19
-6.84782e-19
-6.93082e-19
-6.73655e-19
-6.85084e-19
-6.73448e-19
-6.76877e-19
-6.75358e-19
-6.97006e-19
-7.02349e-19
-7.03886e-19
-6.98264e-19
-7.06696e-19
-7.05659e-19
-6.99673e-19
-7.02331e-19
-7.00575e-19
-7.00737e-19
-7.03132e-19
-6.84018e-19
-6.97627e-19
-6.79463e-19
-6.8569e-19
-6.75818e-19
-6.85923e-19
-6.68122e-19
-6.76627e-19
-6.68719e-19
-6.9522e-19
-6.98169e-19
-7.00758e-19
-7.01771e-19
-7.03464e-19
-7.05007e-19
-6.99597e-19
-7.01941e-19
-6.97617e-19
-6.96335e-19
-6.997e-19
-6.8627e-19
-6.95955e-19
-6.81317e-19
-6.87674e-19
-6.67876e-19
-6.88391e-19
-6.72156e-19
-6.73599e-19
-6.68683e-19
-6.97607e-19
-7.00233e-19
-6.96374e-19
-7.03072e-19
-6.98142e-19
-7.03194e-19
-6.9935e-19
-6.98787e-19
-6.95431e-19
-6.99274e-19
-6.97733e-19
-6.83555e-19
-6.96923e-19
-6.84532e-19
-6.91182e-19
-6.70026e-19
-6.84921e-19
-6.69396e-19
-6.76583e-19
-6.69764e-19
-6.93995e-19
-7.01354e-19
-6.98428e-19
-7.02234e-19
-6.9531e-19
-6.98979e-19
-6.9904e-19
-7.00444e-19
-6.93651e-19
-6.98656e-19
-7.0123e-19
-6.86236e-19
-6.93272e-19
-6.82725e-19
-6.92927e-19
-6.80041e-19
-6.8761e-19
-6.68284e-19
-6.84293e-19
-6.65942e-19
-6.94898e-19
-7.01898e-19
-6.97967e-19
-7.02675e-19
-7.00851e-19
-6.97746e-19
-6.9871e-19
-6.95817e-19
-6.93708e-19
-6.9529e-19
-7.01467e-19
-6.84367e-19
-6.93052e-19
-6.78786e-19
-6.94374e-19
-6.8151e-19
-6.82535e-19
-6.70506e-19
-6.80678e-19
-6.65142e-19
-6.94537e-19
-6.97271e-19
-6.98618e-19
-6.97104e-19
-6.99952e-19
-6.96954e-19
-6.96684e-19
-6.96068e-19
-6.95966e-19
-6.95657e-19
-6.98392e-19
-6.86537e-19
-6.94275e-19
-6.83768e-19
-6.93369e-19
-6.82441e-19
-6.81451e-19
-6.71328e-19
-6.81455e-19
-6.6948e-19
-6.91265e-19
-7.00079e-19
-6.97801e-19
-6.97077e-19
-7.03209e-19
-7.01139e-19
-6.97699e-19
-6.96815e-19
-6.97699e-19
-6.98931e-19
-6.96622e-19
-6.84617e-19
-6.86987e-19
-6.78051e-19
-6.93476e-19
-6.80033e-19
-6.82476e-19
-6.70831e-19
-6.83807e-19
-6.70079e-19
-7.01617e-19
-6.99849e-19
-6.99883e-19
-6.96789e-19
-7.0038e-19
-6.95375e-19
-6.98465e-19
-6.88283e-19
-6.88459e-19
-6.76558e-19
-6.86895e-19
-6.75482e-19
-6.7614e-19
-6.69707e-19
-6.82582e-19
-6.73124e-19
-6.98578e-19
-6.91727e-19
-6.9453e-19
-6.89331e-19
-6.89648e-19
-6.83447e-19
-6.80282e-19
-6.70818e-19
-6.80316e-19
-6.69445e-19
-6.81506e-19
-6.70813e-19
-6.34704e-19
-6.34237e-19
-6.29608e-19
-6.36363e-19
-6.32941e-19
-6.36077e-19
-6.3423e-19
-6.43302e-19
-6.28343e-19
-6.35111e-19
-6.46942e-19
-6.29228e-19
-6.34799e-19
-6.40958e-19
-6.22526e-19
-6.32745e-19
-6.3576e-19
-6.3714e-19
-6.31802e-19
-6.39935e-19
-6.39198e-19
-6.34807e-19
-6.28579e-19
-6.39495e-19
-6.39661e-19
-6.3185e-19
-6.30303e-19
-6.37156e-19
-6.34001e-19
-6.36631e-19
-6.37169e-19
-6.31547e-19
-6.29556e-19
-6.31456e-19
-6.31813e-19
-6.35771e-19
-6.31706e-19
-6.3573e-19
-6.35172e-19
-6.28994e-19
-6.28013e-19
-6.327e-19
-6.41228e-19
-6.38086e-19
-6.27042e-19
-6.31622e-19
-6.29916e-19
-6.44085e-19
-6.34072e-19
-6.24135e-19
-6.46155e-19
-6.31389e-19
-6.36975e-19
-6.32636e-19
-6.26888e-19
-6.44136e-19
-6.3264e-19
-6.37861e-19
-6.38878e-19
-6.44956e-19
-6.31502e-19
-6.46276e-19
-6.33647e-19
-6.41372e-19
-6.36011e-19
-6.42842e-19
-6.28607e-19
-6.44522e-19
-6.30354e-19
-6.40896e-19
-6.36472e-19
-6.43533e-19
-6.33394e-19
-6.37201e-19
-6.37206e-19
-6.34901e-19
-6.4045e-19
-6.40922e-19
-6.4362e-19
-6.41447e-19
-6.37515e-19
-6.33428e-19
-6.41814e-19
-6.3367e-19
-6.40216e-19
-6.46731e-19
-6.39382e-19
-6.46408e-19
-6.35326e-19
-6.36602e-19
-6.33061e-19
-6.42003e-19
-6.30339e-19
-6.37007e-19
-6.36707e-19
-6.41157e-19
-6.44747e-19
-6.31095e-19
-6.30954e-19
-6.35819e-19
-6.34228e-19
-6.38124e-19
-6.30544e-19
-6.39758e-19
-6.33197e-19
-6.39936e-19
-6.41002e-19
-6.38067e-19
-6.37793e-19
-6.40358e-19
-6.32591e-19
-6.42976e-19
-6.3928e-19
-6.41766e-19
-6.43547e-19
-6.47023e-19
-6.44029e-19
-6.41094e-19
-6.41474e-19
-6.45626e-19
-6.35896e-19
-6.37428e-19
-6.36669e-19
-6.38435e-19
-6.41506e-19
-6.46467e-19
-6.46324e-19
-6.39625e-19
-6.42745e-19
-6.46633e-19
-6.38765e-19
-6.39397e-19
-6.39212e-19
-6.36835e-19
-6.43273e-19
-6.38401e-19
-6.46704e-19
-6.43391e-19
-6.43985e-19
-6.42759e-19
-6.41084e-19
-6.40767e-19
-6.33625e-19
-6.38617e-19
-6.44847e-19
-6.37194e-19
-6.43007e-19
-6.42058e-19
-6.41823e-19
-6.42953e-19
-6.3981e-19
-6.39034e-19
-6.41094e-19
-6.37648e-19
-6.39826e-19
-6.40193e-19
-6.47174e-19
-6.40036e-19
-6.43737e-19
-6.41666e-19
-6.44266e-19
-6.30539e-19
-6.48607e-19
-6.34952e-19
-6.38226e-19
-6.4284e-19
-6.45493e-19
-6.40649e-19
-6.43817e-19
-6.43244e-19
-6.3982e-19
-6.3112e-19
-6.41148e-19
-6.32363e-19
-6.33283e-19
-6.40235e-19
-6.43122e-19
-6.41935e-19
-6.41057e-19
-6.40667e-19
-6.35765e-19
-6.39091e-19
-6.35472e-19
-6.35194e-19
-6.37273e-19
-6.3881e-19
-6.39627e-19
-6.37962e-19
-6.39622e-19
-6.41947e-19
-6.35161e-19
-6.37727e-19
-6.34859e-19
-6.3464e-19
-6.41564e-19
-6.37498e-19
-6.3755e-19
-6.39707e-19
-6.37514e-19
-6.45807e-19
-6.32669e-19
-6.38072e-19
-6.39461e-19
-6.35118e-19
-6.39272e-19
-6.34194e-19
-6.38564e-19
-6.39347e-19
-6.41416e-19
-6.46352e-19
-6.42934e-19
-6.38235e-19
-6.42651e-19
-6.32576e-19
-6.4381e-19
-6.31575e-19
-6.3872e-19
-6.40501e-19
-6.40493e-19
-6.40714e-19
-6.32745e-19
-6.39575e-19
-6.37424e-19
-6.36447e-19
-6.36965e-19
-6.37956e-19
-6.37914e-19
-6.35647e-19
-6.3575e-19
-6.38738e-19
-6.41044e-19
-6.45491e-19
-6.4879e-19
-6.5308e-19
-6.50138e-19
-6.45687e-19
-6.4945e-19
-6.41712e-19
-6.47133e-19
-6.46297e-19
-6.44746e-19
-6.46503e-19
-6.43388e-19
-6.4075e-19
-6.38398e-19
-6.39396e-19
-6.34754e-19
-6.39403e-19
-6.44026e-19
-6.44924e-19
-6.4807e-19
-6.37886e-19
-6.28726e-19
-6.27451e-19
-6.323e-19
-6.26106e-19
-6.2244e-19
-6.29076e-19
-6.33506e-19
-6.36393e-19
-6.39909e-19
-6.36844e-19
-6.38753e-19
-6.50713e-19
-6.44525e-19
-6.30238e-19
-6.33517e-19
-6.32171e-19
-6.33593e-19
-6.40556e-19
-6.36162e-19
-6.36251e-19
-6.37987e-19
-6.34172e-19
-6.40726e-19
-6.38399e-19
-6.36682e-19
-6.38054e-19
-6.46756e-19
-6.46674e-19
-6.392e-19
-6.4076e-19
-6.40941e-19
-6.4159e-19
-6.39087e-19
-6.3519e-19
-6.34977e-19
-6.36431e-19
-6.40253e-19
-6.40599e-19
-6.45452e-19
-6.36545e-19
-6.39029e-19
-6.37967e-19
-6.39627e-19
-6.39668e-19
-6.3875e-19
-6.4186e-19
-6.40996e-19
-6.39943e-19
-6.38773e-19
-6.41524e-19
-6.38342e-19
-6.40377e-19
-6.43666e-19
-6.43966e-19
-6.36028e-19
-6.39405e-19
-6.36893e-19
-6.42145e-19
-6.36326e-19
-6.28224e-19
-6.355e-19
-6.41053e-19
-6.4156e-19
-6.37798e-19
-6.3702e-19
-6.42893e-19
-6.38708e-19
-6.35576e-19
-6.36542e-19
-6.37024e-19
-6.4448e-19
-6.21242e-19
-6.26501e-19
-6.26247e-19
-6.26344e-19
-6.30383e-19
-6.29345e-19
-6.27349e-19
-6.29616e-19
-6.33422e-19
-6.40076e-19
-6.34555e-19
-6.31184e-19
-6.30429e-19
-6.38126e-19
-6.36401e-19
-6.32097e-19
-6.32395e-19
-6.31676e-19
-6.31857e-19
-6.36098e-19
-6.34044e-19
-6.32429e-19
-6.36234e-19
-6.38046e-19
-6.36238e-19
-6.37306e-19
-6.39505e-19
-6.41681e-19
-6.39164e-19
-6.39509e-19
-6.3896e-19
-6.4184e-19
-6.42903e-19
-6.36178e-19
-6.34918e-19
-6.33463e-19
-6.36399e-19
-6.41258e-19
-6.33508e-19
-6.31371e-19
-6.33076e-19
-6.32674e-19
-6.33765e-19
-6.34507e-19
-6.32509e-19
-6.34047e-19
-6.36155e-19
-6.39259e-19
-6.37205e-19
-6.35038e-19
-6.40441e-19
-6.41869e-19
-6.36214e-19
-6.41184e-19
-6.42169e-19
-6.38601e-19
-6.31889e-19
-6.42131e-19
-6.46194e-19
-6.35627e-19
-6.37695e-19
-6.35851e-19
-6.34458e-19
-6.39602e-19
-6.4054e-19
-6.45045e-19
-6.40838e-19
-6.35873e-19
-6.38274e-19
-6.3682e-19
-6.3421e-19
-6.30711e-19
-6.30298e-19
-6.37096e-19
-6.36965e-19
-6.36799e-19
-6.28542e-19
-6.29508e-19
-6.30321e-19
-6.32718e-19
-6.39986e-19
-6.39875e-19
-6.30245e-19
-6.32738e-19
-6.27095e-19
-6.34761e-19
-6.39439e-19
-6.39021e-19
-6.36607e-19
-6.3075e-19
-6.32035e-19
-6.35094e-19
-6.36549e-19
-6.34046e-19
-6.38739e-19
-6.3657e-19
-6.37951e-19
-6.31533e-19
-6.31539e-19
-6.38896e-19
-6.39239e-19
-6.37891e-19
-6.34467e-19
-6.36553e-19
-6.37943e-19
-6.39084e-19
-6.41172e-19
-6.41797e-19
-6.35864e-19
-6.41727e-19
-6.38787e-19
-6.39199e-19
-6.4005e-19
-6.41231e-19
-6.43485e-19
-6.33891e-19
-6.29183e-19
-6.31135e-19
-6.3255e-19
-6.31627e-19
-6.34704e-19
-6.39376e-19
-6.32175e-19
-6.31668e-19
-6.32324e-19
-6.38375e-19
-6.36158e-19
-6.36572e-19
-6.36553e-19
-6.37201e-19
-6.42163e-19
-6.46439e-19
-6.38632e-19
-6.32819e-19
-6.35444e-19
-6.39797e-19
-6.37029e-19
-6.34637e-19
-6.33114e-19
-6.36288e-19
-6.31535e-19
-6.32455e-19
-6.3681e-19
-6.39902e-19
-6.41458e-19
-6.40706e-19
-6.40992e-19
-6.3831e-19
-6.36379e-19
-6.34294e-19
-6.35797e-19
-6.39758e-19
-6.46426e-19
-6.44033e-19
-6.30966e-19
-6.32881e-19
-6.37856e-19
-6.28361e-19
-6.32473e-19
-6.31765e-19
-6.23631e-19
-6.26928e-19
-6.32584e-19
-6.29831e-19
-6.31466e-19
-6.32398e-19
-6.29277e-19
-6.31758e-19
-6.24728e-19
-6.31922e-19
-6.34568e-19
-6.36641e-19
-6.39251e-19
-6.43596e-19
-6.37848e-19
-6.34993e-19
-6.3637e-19
-6.33045e-19
-6.33991e-19
-6.35814e-19
-6.3552e-19
-6.34454e-19
-6.38825e-19
-6.37358e-19
-6.37919e-19
-6.3656e-19
-6.37168e-19
-6.3768e-19
-6.38715e-19
-6.36677e-19
-6.42077e-19
-6.41503e-19
-6.39984e-19
-6.20333e-19
-6.24982e-19
-6.2892e-19
-6.26711e-19
-6.30988e-19
-6.39163e-19
-6.28849e-19
-6.24805e-19
-6.25193e-19
-6.27815e-19
-6.33067e-19
-6.36888e-19
-6.38903e-19
-6.34936e-19
-6.32674e-19
-6.31004e-19
-6.31012e-19
-6.35715e-19
-6.39168e-19
-6.46013e-19
-6.39946e-19
-6.35894e-19
-6.32397e-19
-6.31887e-19
-6.34878e-19
-6.33278e-19
-6.33354e-19
-6.36111e-19
-6.37701e-19
-6.3978e-19
-6.36587e-19
-6.38337e-19
-6.38373e-19
-6.40966e-19
-6.3778e-19
-6.32575e-19
-6.31249e-19
-6.30307e-19
-6.33764e-19
-6.3083e-19
-6.33086e-19
-6.29951e-19
-6.28582e-19
-6.28494e-19
-6.28455e-19
-6.27575e-19
-6.26608e-19
-6.2393e-19
-6.24513e-19
-6.29011e-19
-6.29974e-19
-6.25818e-19
-6.24245e-19
-6.30937e-19
-6.30574e-19
-6.28068e-19
-6.28569e-19
-6.31082e-19
-6.37038e-19
-6.328e-19
-6.26906e-19
-6.25797e-19
-6.30002e-19
-6.29913e-19
-6.31897e-19
-6.30461e-19
-6.33066e-19
-6.32066e-19
-6.28588e-19
-6.28562e-19
-6.34399e-19
-6.35446e-19
-6.35923e-19
-6.36605e-19
-6.3811e-19
-6.3968e-19
-6.34864e-19
-6.36065e-19
-6.26884e-19
-6.25899e-19
-6.24057e-19
-6.27452e-19
-6.26983e-19
-6.26688e-19
-6.25639e-19
-6.26427e-19
-6.27279e-19
-6.28504e-19
-6.26527e-19
-6.2391e-19
-6.24782e-19
-6.25624e-19
-6.23573e-19
-6.25579e-19
-6.28292e-19
-6.27473e-19
-6.28927e-19
-6.363e-19
-6.31132e-19
-6.25221e-19
-6.26976e-19
-6.29421e-19
-6.25546e-19
-6.22005e-19
-6.26765e-19
-6.28786e-19
-6.32405e-19
-6.38583e-19
-6.33354e-19
-6.3297e-19
-6.30965e-19
-6.3343e-19
-6.36182e-19
-6.39768e-19
-6.39085e-19
-6.39328e-19
-6.37457e-19
-6.26885e-19
-6.25765e-19
-6.24874e-19
-6.23946e-19
-6.22667e-19
-6.23619e-19
-6.24598e-19
-6.25084e-19
-6.27469e-19
-6.33442e-19
-6.30104e-19
-6.24324e-19
-6.21948e-19
-6.17478e-19
-6.21007e-19
-6.20211e-19
-6.26741e-19
-6.29631e-19
-6.3059e-19
-6.30472e-19
-6.31139e-19
-6.28612e-19
-6.28479e-19
-6.31324e-19
-6.26303e-19
-6.30904e-19
-6.33669e-19
-6.31742e-19
-6.33611e-19
-6.36904e-19
-6.34657e-19
-6.31346e-19
-6.29848e-19
-6.35915e-19
-6.3539e-19
-6.3598e-19
-6.37208e-19
-6.37322e-19
-6.2536e-19
-6.23199e-19
-6.24226e-19
-6.25647e-19
-6.21793e-19
-6.17786e-19
-6.21176e-19
-6.25001e-19
-6.2347e-19
-6.23003e-19
-6.2451e-19
-6.25106e-19
-6.27551e-19
-6.21858e-19
-6.21764e-19
-6.20002e-19
-6.22803e-19
-6.30698e-19
-6.28072e-19
-6.27601e-19
-6.26146e-19
-6.23623e-19
-6.24895e-19
-6.29765e-19
-6.2914e-19
-6.31089e-19
-6.26836e-19
-6.23161e-19
-6.33861e-19
-6.32044e-19
-6.24479e-19
-6.25962e-19
-6.339e-19
-6.33515e-19
-6.30071e-19
-6.33038e-19
-6.34022e-19
-6.20378e-19
-6.19622e-19
-6.1961e-19
-6.23159e-19
-6.22673e-19
-6.22223e-19
-6.2245e-19
-6.22791e-19
-6.22988e-19
-6.23183e-19
-6.24251e-19
-6.24385e-19
-6.23861e-19
-6.24273e-19
-6.24964e-19
-6.29002e-19
-6.33811e-19
-6.29194e-19
-6.27394e-19
-6.28878e-19
-6.31408e-19
-6.29338e-19
-6.30632e-19
-6.32257e-19
-6.30723e-19
-6.34105e-19
-6.3445e-19
-6.34352e-19
-6.31912e-19
-6.33834e-19
-6.35203e-19
-6.37959e-19
-6.37419e-19
-6.36063e-19
-6.34781e-19
-6.37308e-19
-6.37462e-19
-6.1868e-19
-6.1829e-19
-6.21549e-19
-6.22582e-19
-6.18617e-19
-6.22398e-19
-6.22393e-19
-6.22149e-19
-6.22794e-19
-6.25057e-19
-6.21587e-19
-6.17991e-19
-6.21022e-19
-6.24246e-19
-6.23323e-19
-6.21036e-19
-6.18396e-19
-6.19986e-19
-6.22302e-19
-6.26361e-19
-6.23195e-19
-6.28136e-19
-6.28025e-19
-6.27639e-19
-6.28369e-19
-6.26762e-19
-6.30043e-19
-6.33327e-19
-6.32144e-19
-6.30539e-19
-6.28018e-19
-6.2874e-19
-6.26166e-19
-6.27908e-19
-6.32829e-19
-6.26338e-19
-6.21608e-19
-6.19708e-19
-6.22305e-19
-6.25401e-19
-6.22275e-19
-6.23154e-19
-6.24976e-19
-6.21147e-19
-6.23491e-19
-6.22791e-19
-6.21227e-19
-6.23734e-19
-6.26582e-19
-6.26006e-19
-6.28372e-19
-6.29187e-19
-6.27725e-19
-6.27029e-19
-6.24515e-19
-6.2078e-19
-6.25636e-19
-6.27822e-19
-6.30046e-19
-6.30306e-19
-6.31403e-19
-6.28744e-19
-6.32806e-19
-6.33832e-19
-6.34193e-19
-6.36083e-19
-6.32557e-19
-6.29703e-19
-6.31494e-19
-6.31162e-19
-6.34532e-19
-6.36913e-19
-6.16062e-19
-6.17068e-19
-6.22918e-19
-6.22843e-19
-6.23539e-19
-6.1968e-19
-6.20382e-19
-6.18177e-19
-6.20525e-19
-6.21843e-19
-6.23304e-19
-6.22124e-19
-6.18465e-19
-6.1842e-19
-6.21963e-19
-6.22444e-19
-6.26165e-19
-6.23161e-19
-6.16975e-19
-6.22304e-19
-6.25585e-19
-6.28629e-19
-6.2869e-19
-6.27729e-19
-6.2705e-19
-6.28721e-19
-6.25518e-19
-6.27497e-19
-6.26448e-19
-6.26614e-19
-6.26989e-19
-6.27325e-19
-6.27276e-19
-6.28272e-19
-6.27028e-19
-6.21532e-19
-6.22011e-19
-6.24843e-19
-6.23949e-19
-6.24998e-19
-6.22978e-19
-6.21854e-19
-6.2006e-19
-6.19586e-19
-6.24855e-19
-6.3151e-19
-6.31025e-19
-6.27567e-19
-6.27256e-19
-6.26824e-19
-6.24476e-19
-6.2725e-19
-6.30213e-19
-6.31314e-19
-6.27652e-19
-6.31352e-19
-6.35408e-19
-6.34085e-19
-6.32811e-19
-6.33558e-19
-6.34104e-19
-6.35211e-19
-6.36867e-19
-6.33154e-19
-6.35113e-19
-6.36062e-19
-6.38057e-19
-6.40554e-19
-6.3875e-19
-6.21977e-19
-6.26231e-19
-6.26544e-19
-6.22936e-19
-6.2332e-19
-6.25561e-19
-6.2299e-19
-6.24961e-19
-6.30911e-19
-6.29072e-19
-6.23923e-19
-6.26688e-19
-6.23828e-19
-6.20884e-19
-6.24476e-19
-6.24876e-19
-6.26153e-19
-6.20805e-19
-6.19894e-19
-6.22367e-19
-6.24205e-19
-6.22731e-19
-6.22502e-19
-6.20108e-19
-6.25398e-19
-6.26205e-19
-6.25911e-19
-6.30412e-19
-6.26052e-19
-6.2576e-19
-6.28564e-19
-6.2981e-19
-6.29484e-19
-6.31079e-19
-6.20593e-19
-6.21161e-19
-6.2009e-19
-6.1836e-19
-6.20432e-19
-6.21261e-19
-6.21423e-19
-6.20983e-19
-6.20182e-19
-6.21766e-19
-6.2026e-19
-6.22226e-19
-6.22006e-19
-6.22023e-19
-6.23807e-19
-6.22349e-19
-6.25022e-19
-6.25935e-19
-6.27593e-19
-6.30425e-19
-6.29589e-19
-6.2982e-19
-6.31874e-19
-6.3125e-19
-6.31254e-19
-6.30984e-19
-6.32935e-19
-6.36592e-19
-6.37306e-19
-6.33804e-19
-6.32288e-19
-6.35093e-19
-6.32773e-19
-6.35702e-19
-6.32712e-19
-6.24036e-19
-6.2123e-19
-6.22903e-19
-6.2134e-19
-6.25065e-19
-6.27824e-19
-6.22432e-19
-6.23654e-19
-6.23137e-19
-6.25717e-19
-6.26873e-19
-6.29124e-19
-6.32819e-19
-6.26635e-19
-6.26739e-19
-6.28572e-19
-6.30026e-19
-6.24566e-19
-6.25255e-19
-6.26175e-19
-6.25277e-19
-6.23255e-19
-6.25899e-19
-6.26751e-19
-6.27163e-19
-6.25969e-19
-6.26604e-19
-6.26384e-19
-6.27706e-19
-6.31312e-19
-6.33538e-19
-6.35364e-19
-6.37578e-19
-6.26429e-19
-6.24774e-19
-6.22169e-19
-6.23511e-19
-6.28959e-19
-6.2664e-19
-6.27595e-19
-6.27629e-19
-6.27457e-19
-6.27296e-19
-6.26208e-19
-6.24075e-19
-6.26105e-19
-6.26971e-19
-6.26431e-19
-6.24274e-19
-6.26757e-19
-6.2886e-19
-6.30249e-19
-6.32486e-19
-6.31734e-19
-6.32777e-19
-6.31745e-19
-6.33753e-19
-6.3232e-19
-6.30557e-19
-6.32819e-19
-6.34426e-19
-6.35063e-19
-6.34928e-19
-6.34566e-19
-6.33294e-19
-6.35562e-19
-6.28487e-19
-6.28762e-19
-6.29164e-19
-6.30024e-19
-6.29584e-19
-6.28298e-19
-6.33161e-19
-6.34497e-19
-6.31587e-19
-6.30701e-19
-6.29885e-19
-6.28859e-19
-6.25719e-19
-6.24656e-19
-6.28457e-19
-6.30716e-19
-6.30397e-19
-6.32277e-19
-6.31393e-19
-6.27e-19
-6.27675e-19
-6.26477e-19
-6.2741e-19
-6.27239e-19
-6.29146e-19
-6.28768e-19
-6.29396e-19
-6.3348e-19
-6.37637e-19
-6.36124e-19
-6.3668e-19
-6.39927e-19
-6.38681e-19
-6.31091e-19
-6.30524e-19
-6.3026e-19
-6.29781e-19
-6.2908e-19
-6.27226e-19
-6.29512e-19
-6.30537e-19
-6.33003e-19
-6.37097e-19
-6.29814e-19
-6.30345e-19
-6.30934e-19
-6.30109e-19
-6.29009e-19
-6.33483e-19
-6.33089e-19
-6.32743e-19
-6.33771e-19
-6.35642e-19
-6.34437e-19
-6.34227e-19
-6.34911e-19
-6.35227e-19
-6.34555e-19
-6.3406e-19
-6.37999e-19
-6.35668e-19
-6.38574e-19
-6.36806e-19
-6.39722e-19
-6.37389e-19
-6.27166e-19
-6.28309e-19
-6.33101e-19
-6.32821e-19
-6.33787e-19
-6.35358e-19
-6.30051e-19
-6.32242e-19
-6.3445e-19
-6.33516e-19
-6.33132e-19
-6.33639e-19
-6.35004e-19
-6.37276e-19
-6.33887e-19
-6.30813e-19
-6.3284e-19
-6.34734e-19
-6.36472e-19
-6.34821e-19
-6.34544e-19
-6.34893e-19
-6.34532e-19
-6.32774e-19
-6.35316e-19
-6.36603e-19
-6.35153e-19
-6.31715e-19
-6.36192e-19
-6.38416e-19
-6.39271e-19
-6.40149e-19
-6.36709e-19
-6.30987e-19
-6.31171e-19
-6.30088e-19
-6.31917e-19
-6.32474e-19
-6.33086e-19
-6.33668e-19
-6.34135e-19
-6.34607e-19
-6.35164e-19
-6.35829e-19
-6.3744e-19
-6.33418e-19
-6.28419e-19
-6.34679e-19
-6.39471e-19
-6.36805e-19
-6.34231e-19
-6.35752e-19
-6.36585e-19
-6.36746e-19
-6.36282e-19
-6.34619e-19
-6.36471e-19
-6.37407e-19
-6.37646e-19
-6.37074e-19
-6.35308e-19
-6.37447e-19
-6.38482e-19
-6.34644e-19
-6.34725e-19
-6.34366e-19
-6.34017e-19
-6.33856e-19
-6.33862e-19
-6.34154e-19
-6.34431e-19
-6.34451e-19
-6.34402e-19
-6.34449e-19
-6.32897e-19
-6.30273e-19
-6.38927e-19
-6.34455e-19
-6.35192e-19
-6.36379e-19
-6.35777e-19
-6.34261e-19
-6.36682e-19
-6.38093e-19
-6.38087e-19
-6.37454e-19
-6.42598e-19
-6.44277e-19
-6.41726e-19
-6.40129e-19
-6.38112e-19
-6.40391e-19
-6.42898e-19
-6.45899e-19
-6.34131e-19
-6.32825e-19
-6.3749e-19
-6.35386e-19
-6.33329e-19
-6.31003e-19
-6.35354e-19
-6.39065e-19
-6.35698e-19
-6.32437e-19
-6.34575e-19
-6.36059e-19
-6.37012e-19
-6.39242e-19
-6.38909e-19
-6.40965e-19
-6.41348e-19
-6.4e-19
-6.38372e-19
-6.4504e-19
-6.41337e-19
-6.38573e-19
-6.38586e-19
-6.38644e-19
-6.37838e-19
-6.36292e-19
-6.37145e-19
-6.35924e-19
-6.36241e-19
-6.39493e-19
-6.40223e-19
-6.35389e-19
-6.34976e-19
-6.35834e-19
-6.36541e-19
-6.36994e-19
-6.41319e-19
-6.45036e-19
-6.39083e-19
-6.35855e-19
-6.32728e-19
-6.31864e-19
-6.34459e-19
-6.32949e-19
-6.31079e-19
-6.3887e-19
-6.35761e-19
-6.37506e-19
-6.34949e-19
-6.39879e-19
-6.41542e-19
-6.38426e-19
-6.35201e-19
-6.38235e-19
-6.4126e-19
-6.44569e-19
-6.42717e-19
-6.42026e-19
-6.42603e-19
-6.42091e-19
-6.4166e-19
-6.47158e-19
-6.30725e-19
-6.3256e-19
-6.3596e-19
-6.40845e-19
-6.33846e-19
-6.34912e-19
-6.37727e-19
-6.35762e-19
-6.35142e-19
-6.3528e-19
-6.36353e-19
-6.37615e-19
-6.36021e-19
-6.35991e-19
-6.3695e-19
-6.34222e-19
-6.34923e-19
-6.33267e-19
-6.36107e-19
-6.39386e-19
-6.39434e-19