/*--------------------------------*- C++ -*----------------------------------*\
  =========                 |
  \\      /  F ield         | OpenFOAM: The Open Source CFD Toolbox
   \\    /   O peration     | Website:  https://openfoam.org
    \\  /    A nd           | Version:  7
     \\/     M anipulation  |
\*---------------------------------------------------------------------------*/
FoamFile
{
    version     2.0;
    format      ascii;
    class       volScalarField;
    location    "104000";
    object      nut;
}
// * * * * * * * * * * * * * * * * * * * * * * * * * * * * * * * * * * * * * //

dimensions      [0 2 -1 0 0 0 0];

internalField   nonuniform List<scalar> 
4850
(
1.64686e-05
1.64222e-05
1.65544e-05
1.65115e-05
1.64679e-05
1.66333e-05
1.65939e-05
1.65539e-05
1.65132e-05
1.64722e-05
1.67049e-05
1.66693e-05
1.6633e-05
1.65958e-05
1.6558e-05
1.65201e-05
1.67692e-05
1.67375e-05
1.67048e-05
1.66712e-05
1.66369e-05
1.66022e-05
1.65674e-05
1.68259e-05
1.67981e-05
1.67691e-05
1.67392e-05
1.67085e-05
1.66772e-05
1.66456e-05
1.66139e-05
1.65822e-05
1.68748e-05
1.68509e-05
1.68259e-05
1.67998e-05
1.67726e-05
1.67447e-05
1.67165e-05
1.66878e-05
1.66591e-05
1.66303e-05
1.69158e-05
1.6896e-05
1.68749e-05
1.68525e-05
1.6829e-05
1.68047e-05
1.67798e-05
1.67541e-05
1.67284e-05
1.67025e-05
1.6677e-05
1.6652e-05
1.66277e-05
1.66043e-05
1.69489e-05
1.69331e-05
1.69159e-05
1.68974e-05
1.68775e-05
1.68568e-05
1.68352e-05
1.68128e-05
1.67901e-05
1.67671e-05
1.67443e-05
1.67221e-05
1.67002e-05
1.66788e-05
1.66584e-05
1.66395e-05
1.66217e-05
1.66053e-05
1.69739e-05
1.69621e-05
1.69489e-05
1.69343e-05
1.69181e-05
1.69008e-05
1.68827e-05
1.68635e-05
1.68439e-05
1.6824e-05
1.68039e-05
1.67843e-05
1.67649e-05
1.67459e-05
1.67277e-05
1.67105e-05
1.66945e-05
1.66795e-05
1.66662e-05
1.66547e-05
1.69909e-05
1.69832e-05
1.69738e-05
1.6963e-05
1.69506e-05
1.6937e-05
1.69221e-05
1.69063e-05
1.68897e-05
1.68728e-05
1.68557e-05
1.68387e-05
1.68218e-05
1.68052e-05
1.67893e-05
1.67739e-05
1.67596e-05
1.67462e-05
1.67342e-05
1.67239e-05
1.67151e-05
1.67078e-05
1.67024e-05
1.66986e-05
1.70001e-05
1.69964e-05
1.69909e-05
1.69838e-05
1.6975e-05
1.69649e-05
1.69535e-05
1.69409e-05
1.69277e-05
1.69137e-05
1.68995e-05
1.68851e-05
1.68708e-05
1.68566e-05
1.68428e-05
1.68296e-05
1.68169e-05
1.68051e-05
1.67945e-05
1.67853e-05
1.67775e-05
1.6771e-05
1.67661e-05
1.67629e-05
1.67612e-05
1.67612e-05
1.67629e-05
1.6766e-05
1.67709e-05
1.70018e-05
1.7002e-05
1.70002e-05
1.69968e-05
1.69915e-05
1.69849e-05
1.69768e-05
1.69676e-05
1.69577e-05
1.69466e-05
1.69354e-05
1.69236e-05
1.69117e-05
1.69001e-05
1.68885e-05
1.68771e-05
1.68662e-05
1.6856e-05
1.68467e-05
1.68388e-05
1.68319e-05
1.68263e-05
1.6822e-05
1.68191e-05
1.68178e-05
1.68178e-05
1.68192e-05
1.68219e-05
1.68261e-05
1.68316e-05
1.68381e-05
1.68459e-05
1.6996e-05
1.69999e-05
1.70018e-05
1.7002e-05
1.70002e-05
1.6997e-05
1.69924e-05
1.69863e-05
1.69795e-05
1.69715e-05
1.6963e-05
1.6954e-05
1.69446e-05
1.69354e-05
1.69259e-05
1.69164e-05
1.69072e-05
1.68987e-05
1.6891e-05
1.68842e-05
1.68782e-05
1.68735e-05
1.68699e-05
1.68673e-05
1.68663e-05
1.68662e-05
1.68674e-05
1.68698e-05
1.68734e-05
1.68781e-05
1.68837e-05
1.68902e-05
1.68976e-05
1.69058e-05
1.6983e-05
1.69906e-05
1.69959e-05
1.69994e-05
1.70013e-05
1.70014e-05
1.7e-05
1.69972e-05
1.69934e-05
1.69884e-05
1.69827e-05
1.69764e-05
1.69694e-05
1.69625e-05
1.69552e-05
1.69476e-05
1.69402e-05
1.69333e-05
1.6927e-05
1.69213e-05
1.69165e-05
1.69128e-05
1.69097e-05
1.69075e-05
1.69066e-05
1.69064e-05
1.69075e-05
1.69095e-05
1.69125e-05
1.69166e-05
1.69212e-05
1.69265e-05
1.69323e-05
1.69389e-05
1.69631e-05
1.69741e-05
1.69828e-05
1.69896e-05
1.69947e-05
1.69981e-05
1.7e-05
1.70003e-05
1.69996e-05
1.69974e-05
1.69944e-05
1.69907e-05
1.69863e-05
1.69815e-05
1.69762e-05
1.69707e-05
1.69651e-05
1.69598e-05
1.6955e-05
1.69504e-05
1.69466e-05
1.69438e-05
1.69413e-05
1.69394e-05
1.69387e-05
1.69385e-05
1.69394e-05
1.69411e-05
1.69435e-05
1.69468e-05
1.69504e-05
1.69545e-05
1.69589e-05
1.69639e-05
1.69365e-05
1.69507e-05
1.69627e-05
1.69728e-05
1.69811e-05
1.69877e-05
1.69926e-05
1.69958e-05
1.6998e-05
1.69987e-05
1.69984e-05
1.69973e-05
1.69952e-05
1.69925e-05
1.69893e-05
1.69858e-05
1.69819e-05
1.69782e-05
1.69747e-05
1.69713e-05
1.69685e-05
1.69665e-05
1.69647e-05
1.69633e-05
1.69626e-05
1.69625e-05
1.69631e-05
1.69644e-05
1.69663e-05
1.69688e-05
1.69713e-05
1.69742e-05
1.69773e-05
1.69808e-05
1.69037e-05
1.69209e-05
1.6936e-05
1.69493e-05
1.69605e-05
1.69701e-05
1.69779e-05
1.69841e-05
1.69891e-05
1.69925e-05
1.69947e-05
1.69961e-05
1.69962e-05
1.69957e-05
1.69946e-05
1.69929e-05
1.69908e-05
1.69886e-05
1.69864e-05
1.69843e-05
1.69825e-05
1.69811e-05
1.69798e-05
1.69789e-05
1.69783e-05
1.69785e-05
1.69788e-05
1.69797e-05
1.69811e-05
1.69826e-05
1.69842e-05
1.6986e-05
1.69878e-05
1.69898e-05
1.68646e-05
1.68849e-05
1.69029e-05
1.69191e-05
1.69333e-05
1.69457e-05
1.69563e-05
1.69652e-05
1.69729e-05
1.6979e-05
1.69836e-05
1.69874e-05
1.69897e-05
1.69913e-05
1.69923e-05
1.69925e-05
1.6992e-05
1.69912e-05
1.69903e-05
1.69894e-05
1.69885e-05
1.69878e-05
1.69871e-05
1.69866e-05
1.69861e-05
1.69863e-05
1.69866e-05
1.6987e-05
1.69878e-05
1.69886e-05
1.69893e-05
1.69899e-05
1.69905e-05
1.6991e-05
1.68197e-05
1.68428e-05
1.68637e-05
1.68827e-05
1.68998e-05
1.69149e-05
1.69281e-05
1.69396e-05
1.69498e-05
1.69584e-05
1.69655e-05
1.69714e-05
1.69759e-05
1.69796e-05
1.69824e-05
1.69844e-05
1.69856e-05
1.69862e-05
1.69865e-05
1.69866e-05
1.69866e-05
1.69867e-05
1.69866e-05
1.69864e-05
1.69861e-05
1.69863e-05
1.69865e-05
1.69866e-05
1.69868e-05
1.69868e-05
1.69866e-05
1.69863e-05
1.69856e-05
1.69846e-05
1.67691e-05
1.67949e-05
1.68187e-05
1.68403e-05
1.68601e-05
1.68778e-05
1.68935e-05
1.69075e-05
1.69201e-05
1.6931e-05
1.69405e-05
1.69485e-05
1.69551e-05
1.69607e-05
1.69654e-05
1.69692e-05
1.69718e-05
1.69737e-05
1.69752e-05
1.69764e-05
1.69773e-05
1.6978e-05
1.69785e-05
1.69786e-05
1.69785e-05
1.69786e-05
1.69788e-05
1.69787e-05
1.69782e-05
1.69775e-05
1.69765e-05
1.69752e-05
1.69733e-05
1.6971e-05
1.6713e-05
1.67415e-05
1.67679e-05
1.67922e-05
1.68144e-05
1.68346e-05
1.68529e-05
1.68692e-05
1.6884e-05
1.68972e-05
1.69088e-05
1.6919e-05
1.69276e-05
1.69351e-05
1.69414e-05
1.69468e-05
1.69509e-05
1.69541e-05
1.69569e-05
1.6959e-05
1.69608e-05
1.69621e-05
1.69631e-05
1.69635e-05
1.69636e-05
1.69637e-05
1.69638e-05
1.69634e-05
1.69623e-05
1.6961e-05
1.69591e-05
1.69569e-05
1.69539e-05
1.69502e-05
1.66517e-05
1.66827e-05
1.67116e-05
1.67385e-05
1.67632e-05
1.67856e-05
1.68062e-05
1.68249e-05
1.68419e-05
1.68571e-05
1.68708e-05
1.6883e-05
1.68935e-05
1.69028e-05
1.69108e-05
1.69177e-05
1.69232e-05
1.69276e-05
1.69317e-05
1.69346e-05
1.69373e-05
1.69392e-05
1.69406e-05
1.69414e-05
1.69417e-05
1.69417e-05
1.69417e-05
1.69409e-05
1.69395e-05
1.69375e-05
1.69349e-05
1.69316e-05
1.69275e-05
1.69226e-05
1.69168e-05
1.65854e-05
1.66188e-05
1.665e-05
1.66792e-05
1.67063e-05
1.6731e-05
1.67538e-05
1.67747e-05
1.67937e-05
1.68111e-05
1.68268e-05
1.68408e-05
1.68532e-05
1.68642e-05
1.68738e-05
1.68821e-05
1.6889e-05
1.68946e-05
1.68997e-05
1.69036e-05
1.6907e-05
1.69096e-05
1.69115e-05
1.69125e-05
1.69129e-05
1.6913e-05
1.69128e-05
1.69117e-05
1.69099e-05
1.69073e-05
1.6904e-05
1.68998e-05
1.68946e-05
1.68885e-05
1.68813e-05
1.65143e-05
1.65499e-05
1.65835e-05
1.66149e-05
1.66442e-05
1.6671e-05
1.66959e-05
1.67189e-05
1.674e-05
1.67594e-05
1.67768e-05
1.67926e-05
1.68068e-05
1.68195e-05
1.68305e-05
1.68402e-05
1.68484e-05
1.68553e-05
1.68614e-05
1.68663e-05
1.68702e-05
1.68735e-05
1.68758e-05
1.68771e-05
1.68777e-05
1.68778e-05
1.68774e-05
1.6876e-05
1.68737e-05
1.68705e-05
1.68666e-05
1.68615e-05
1.68553e-05
1.68481e-05
1.68397e-05
1.64384e-05
1.64761e-05
1.65119e-05
1.65456e-05
1.65769e-05
1.66059e-05
1.66328e-05
1.66579e-05
1.66808e-05
1.67021e-05
1.67212e-05
1.67388e-05
1.67547e-05
1.6769e-05
1.67814e-05
1.67923e-05
1.68019e-05
1.68099e-05
1.68168e-05
1.68226e-05
1.68274e-05
1.68312e-05
1.68339e-05
1.68354e-05
1.68363e-05
1.68363e-05
1.68357e-05
1.6834e-05
1.68314e-05
1.68276e-05
1.68229e-05
1.68171e-05
1.68099e-05
1.68016e-05
1.6358e-05
1.63978e-05
1.64357e-05
1.64715e-05
1.65048e-05
1.65358e-05
1.65647e-05
1.65916e-05
1.66164e-05
1.66395e-05
1.66603e-05
1.66795e-05
1.6697e-05
1.67128e-05
1.67266e-05
1.67387e-05
1.67495e-05
1.67586e-05
1.67665e-05
1.6773e-05
1.67784e-05
1.67828e-05
1.6786e-05
1.67878e-05
1.67888e-05
1.67888e-05
1.6788e-05
1.67859e-05
1.6783e-05
1.67787e-05
1.67734e-05
1.67667e-05
1.67588e-05
1.67492e-05
1.62731e-05
1.63151e-05
1.63549e-05
1.63928e-05
1.64281e-05
1.6461e-05
1.64917e-05
1.65205e-05
1.6547e-05
1.65716e-05
1.65941e-05
1.6615e-05
1.6634e-05
1.66511e-05
1.66663e-05
1.66795e-05
1.66915e-05
1.67017e-05
1.67104e-05
1.67176e-05
1.67238e-05
1.67286e-05
1.67322e-05
1.67344e-05
1.67355e-05
1.67355e-05
1.67345e-05
1.67321e-05
1.67288e-05
1.67241e-05
1.67181e-05
1.67108e-05
1.67019e-05
1.66914e-05
1.61842e-05
1.6228e-05
1.62698e-05
1.63095e-05
1.63467e-05
1.63814e-05
1.64139e-05
1.64444e-05
1.64727e-05
1.64988e-05
1.6523e-05
1.65453e-05
1.65657e-05
1.65842e-05
1.66006e-05
1.66151e-05
1.6628e-05
1.66393e-05
1.66489e-05
1.66568e-05
1.66636e-05
1.66689e-05
1.66729e-05
1.66753e-05
1.66765e-05
1.66766e-05
1.66753e-05
1.66728e-05
1.66692e-05
1.66641e-05
1.66574e-05
1.66494e-05
1.66396e-05
1.66282e-05
1.60912e-05
1.61369e-05
1.61805e-05
1.6222e-05
1.62609e-05
1.62974e-05
1.63317e-05
1.63638e-05
1.63938e-05
1.64213e-05
1.6447e-05
1.64707e-05
1.64925e-05
1.65123e-05
1.65299e-05
1.65456e-05
1.65594e-05
1.65716e-05
1.6582e-05
1.65907e-05
1.65981e-05
1.66038e-05
1.66083e-05
1.66108e-05
1.66122e-05
1.66123e-05
1.66109e-05
1.6608e-05
1.6604e-05
1.65986e-05
1.65914e-05
1.65827e-05
1.65721e-05
1.59944e-05
1.60418e-05
1.60871e-05
1.61302e-05
1.61709e-05
1.6209e-05
1.62449e-05
1.62787e-05
1.63102e-05
1.63393e-05
1.63663e-05
1.63914e-05
1.64145e-05
1.64355e-05
1.64543e-05
1.6471e-05
1.64859e-05
1.64989e-05
1.65101e-05
1.65195e-05
1.65274e-05
1.65337e-05
1.65384e-05
1.65412e-05
1.65427e-05
1.65427e-05
1.65412e-05
1.65381e-05
1.65338e-05
1.65279e-05
1.65202e-05
1.65108e-05
1.64996e-05
1.58938e-05
1.59429e-05
1.59898e-05
1.60346e-05
1.60767e-05
1.61166e-05
1.61541e-05
1.61893e-05
1.62223e-05
1.62528e-05
1.62812e-05
1.63076e-05
1.63318e-05
1.6354e-05
1.63739e-05
1.63916e-05
1.64074e-05
1.64213e-05
1.64333e-05
1.64435e-05
1.64518e-05
1.64585e-05
1.64635e-05
1.64666e-05
1.64682e-05
1.64682e-05
1.64665e-05
1.64633e-05
1.64586e-05
1.64523e-05
1.64441e-05
1.64341e-05
1.57896e-05
1.58403e-05
1.58888e-05
1.59351e-05
1.59787e-05
1.60201e-05
1.60591e-05
1.60957e-05
1.61301e-05
1.6162e-05
1.61917e-05
1.62194e-05
1.62448e-05
1.62681e-05
1.62889e-05
1.63077e-05
1.63243e-05
1.6339e-05
1.63518e-05
1.63626e-05
1.63714e-05
1.63786e-05
1.63839e-05
1.63871e-05
1.63888e-05
1.63888e-05
1.6387e-05
1.63836e-05
1.63786e-05
1.63719e-05
1.63632e-05
1.63527e-05
1.5682e-05
1.57342e-05
1.57841e-05
1.58319e-05
1.58769e-05
1.59197e-05
1.59602e-05
1.59982e-05
1.60339e-05
1.60671e-05
1.60981e-05
1.61269e-05
1.61534e-05
1.61777e-05
1.61995e-05
1.62193e-05
1.62367e-05
1.62523e-05
1.62657e-05
1.62771e-05
1.62864e-05
1.62939e-05
1.62995e-05
1.6303e-05
1.63049e-05
1.63049e-05
1.63029e-05
1.62993e-05
1.6294e-05
1.62869e-05
1.62777e-05
1.62667e-05
1.55711e-05
1.56247e-05
1.56759e-05
1.57251e-05
1.57716e-05
1.58157e-05
1.58575e-05
1.58968e-05
1.59338e-05
1.59683e-05
1.60004e-05
1.60304e-05
1.60579e-05
1.60832e-05
1.6106e-05
1.61266e-05
1.61449e-05
1.61613e-05
1.61753e-05
1.61872e-05
1.6197e-05
1.62049e-05
1.62108e-05
1.62145e-05
1.62165e-05
1.62164e-05
1.62144e-05
1.62106e-05
1.6205e-05
1.61975e-05
1.61879e-05
1.61764e-05
1.5457e-05
1.55119e-05
1.55644e-05
1.56149e-05
1.56628e-05
1.57082e-05
1.57512e-05
1.57918e-05
1.583e-05
1.58657e-05
1.5899e-05
1.593e-05
1.59585e-05
1.59846e-05
1.60084e-05
1.60298e-05
1.60489e-05
1.60661e-05
1.60807e-05
1.6093e-05
1.61033e-05
1.61115e-05
1.61177e-05
1.61217e-05
1.61237e-05
1.61237e-05
1.61216e-05
1.61177e-05
1.61117e-05
1.61039e-05
1.60938e-05
1.60818e-05
1.53398e-05
1.53959e-05
1.54498e-05
1.55015e-05
1.55507e-05
1.55973e-05
1.56414e-05
1.56833e-05
1.57226e-05
1.57594e-05
1.57938e-05
1.58258e-05
1.58552e-05
1.58823e-05
1.5907e-05
1.59291e-05
1.5949e-05
1.59668e-05
1.5982e-05
1.59948e-05
1.60055e-05
1.6014e-05
1.60204e-05
1.60247e-05
1.60268e-05
1.60269e-05
1.60247e-05
1.60207e-05
1.60144e-05
1.60061e-05
1.59957e-05
1.59831e-05
1.52196e-05
1.5277e-05
1.5332e-05
1.53849e-05
1.54352e-05
1.5483e-05
1.55284e-05
1.55714e-05
1.56117e-05
1.56496e-05
1.5685e-05
1.5718e-05
1.57484e-05
1.57763e-05
1.58019e-05
1.58247e-05
1.58453e-05
1.58636e-05
1.58794e-05
1.58927e-05
1.59037e-05
1.59126e-05
1.59192e-05
1.59237e-05
1.59259e-05
1.5926e-05
1.59238e-05
1.59196e-05
1.59131e-05
1.59045e-05
1.58938e-05
1.58805e-05
1.50967e-05
1.51552e-05
1.52114e-05
1.52653e-05
1.53168e-05
1.53657e-05
1.54121e-05
1.54561e-05
1.54976e-05
1.55364e-05
1.55729e-05
1.56067e-05
1.5638e-05
1.56667e-05
1.56931e-05
1.57166e-05
1.57379e-05
1.57567e-05
1.57729e-05
1.57868e-05
1.57982e-05
1.58075e-05
1.58143e-05
1.58189e-05
1.58211e-05
1.58213e-05
1.58191e-05
1.58147e-05
1.5808e-05
1.5799e-05
1.5788e-05
1.57742e-05
1.4971e-05
1.50306e-05
1.50879e-05
1.51428e-05
1.51954e-05
1.52453e-05
1.52928e-05
1.53378e-05
1.53803e-05
1.542e-05
1.54574e-05
1.54921e-05
1.55242e-05
1.55537e-05
1.55808e-05
1.5605e-05
1.5627e-05
1.56463e-05
1.5663e-05
1.56773e-05
1.56891e-05
1.56986e-05
1.57056e-05
1.57104e-05
1.57127e-05
1.57129e-05
1.57107e-05
1.57062e-05
1.56992e-05
1.569e-05
1.56785e-05
1.56642e-05
1.48426e-05
1.49033e-05
1.49616e-05
1.50176e-05
1.50711e-05
1.5122e-05
1.51705e-05
1.52164e-05
1.52598e-05
1.53004e-05
1.53386e-05
1.53743e-05
1.54072e-05
1.54374e-05
1.54652e-05
1.54901e-05
1.55127e-05
1.55324e-05
1.55495e-05
1.55643e-05
1.55765e-05
1.55863e-05
1.55935e-05
1.55983e-05
1.56007e-05
1.5601e-05
1.55987e-05
1.55941e-05
1.5587e-05
1.55775e-05
1.55655e-05
1.55509e-05
1.47118e-05
1.47734e-05
1.48327e-05
1.48897e-05
1.49442e-05
1.49959e-05
1.50454e-05
1.50921e-05
1.51364e-05
1.51779e-05
1.52169e-05
1.52533e-05
1.52871e-05
1.5318e-05
1.53463e-05
1.53719e-05
1.5395e-05
1.54153e-05
1.54328e-05
1.54479e-05
1.54606e-05
1.54705e-05
1.5478e-05
1.54829e-05
1.54854e-05
1.54856e-05
1.54833e-05
1.54786e-05
1.54713e-05
1.54616e-05
1.54493e-05
1.54341e-05
1.45786e-05
1.46411e-05
1.47014e-05
1.47592e-05
1.48146e-05
1.48672e-05
1.49175e-05
1.49651e-05
1.50101e-05
1.50524e-05
1.50922e-05
1.51294e-05
1.51639e-05
1.51955e-05
1.52244e-05
1.52506e-05
1.52743e-05
1.5295e-05
1.53129e-05
1.53283e-05
1.53413e-05
1.53515e-05
1.53592e-05
1.53642e-05
1.53667e-05
1.5367e-05
1.53646e-05
1.53599e-05
1.53524e-05
1.53424e-05
1.53297e-05
1.53142e-05
1.44431e-05
1.45064e-05
1.45676e-05
1.46263e-05
1.46824e-05
1.47359e-05
1.4787e-05
1.48353e-05
1.48811e-05
1.49242e-05
1.49647e-05
1.50026e-05
1.50378e-05
1.507e-05
1.50996e-05
1.51263e-05
1.51505e-05
1.51716e-05
1.51899e-05
1.52057e-05
1.52189e-05
1.52294e-05
1.52373e-05
1.52424e-05
1.5245e-05
1.52452e-05
1.52428e-05
1.5238e-05
1.52304e-05
1.52201e-05
1.52071e-05
1.51912e-05
1.43055e-05
1.43696e-05
1.44315e-05
1.4491e-05
1.45479e-05
1.46022e-05
1.46539e-05
1.47031e-05
1.47495e-05
1.47933e-05
1.48345e-05
1.48731e-05
1.49089e-05
1.49418e-05
1.49719e-05
1.49992e-05
1.50237e-05
1.50453e-05
1.5064e-05
1.50801e-05
1.50936e-05
1.51043e-05
1.51123e-05
1.51177e-05
1.51202e-05
1.51204e-05
1.5118e-05
1.51131e-05
1.51053e-05
1.50948e-05
1.50815e-05
1.50653e-05
1.41658e-05
1.42306e-05
1.42932e-05
1.43535e-05
1.44111e-05
1.44661e-05
1.45185e-05
1.45684e-05
1.46155e-05
1.466e-05
1.47017e-05
1.47411e-05
1.47774e-05
1.48109e-05
1.48415e-05
1.48693e-05
1.48942e-05
1.49162e-05
1.49353e-05
1.49517e-05
1.49654e-05
1.49762e-05
1.49845e-05
1.499e-05
1.49926e-05
1.49928e-05
1.49904e-05
1.49853e-05
1.49773e-05
1.49667e-05
1.49531e-05
1.49366e-05
1.40242e-05
1.40896e-05
1.41528e-05
1.42138e-05
1.42721e-05
1.43277e-05
1.43808e-05
1.44313e-05
1.4479e-05
1.45241e-05
1.45665e-05
1.46065e-05
1.46433e-05
1.46774e-05
1.47084e-05
1.47367e-05
1.4762e-05
1.47843e-05
1.48038e-05
1.48205e-05
1.48344e-05
1.48455e-05
1.48539e-05
1.48594e-05
1.48622e-05
1.48623e-05
1.48598e-05
1.48546e-05
1.48465e-05
1.48358e-05
1.48219e-05
1.38807e-05
1.39466e-05
1.40105e-05
1.4072e-05
1.4131e-05
1.41871e-05
1.42409e-05
1.4292e-05
1.43403e-05
1.4386e-05
1.4429e-05
1.44695e-05
1.45068e-05
1.45414e-05
1.45728e-05
1.46016e-05
1.46272e-05
1.46499e-05
1.46697e-05
1.46867e-05
1.47008e-05
1.4712e-05
1.47206e-05
1.47262e-05
1.47291e-05
1.47293e-05
1.47267e-05
1.47214e-05
1.47131e-05
1.47022e-05
1.46881e-05
1.37353e-05
1.38017e-05
1.38662e-05
1.39283e-05
1.39878e-05
1.40445e-05
1.40988e-05
1.41505e-05
1.41994e-05
1.42456e-05
1.42892e-05
1.43302e-05
1.4368e-05
1.4403e-05
1.44348e-05
1.4464e-05
1.449e-05
1.4513e-05
1.45331e-05
1.45504e-05
1.45647e-05
1.45761e-05
1.45847e-05
1.45904e-05
1.45934e-05
1.45936e-05
1.4591e-05
1.45856e-05
1.45771e-05
1.4566e-05
1.35882e-05
1.36552e-05
1.37201e-05
1.37827e-05
1.38428e-05
1.38999e-05
1.39548e-05
1.4007e-05
1.40564e-05
1.41031e-05
1.41472e-05
1.41886e-05
1.42269e-05
1.42623e-05
1.42946e-05
1.4324e-05
1.43505e-05
1.43738e-05
1.43941e-05
1.44116e-05
1.44262e-05
1.44377e-05
1.44465e-05
1.44522e-05
1.44552e-05
1.44554e-05
1.44528e-05
1.44473e-05
1.44387e-05
1.44275e-05
1.34395e-05
1.35069e-05
1.35723e-05
1.36354e-05
1.36959e-05
1.37535e-05
1.38088e-05
1.38615e-05
1.39114e-05
1.39586e-05
1.40031e-05
1.4045e-05
1.40836e-05
1.41195e-05
1.41521e-05
1.41819e-05
1.42087e-05
1.42322e-05
1.42529e-05
1.42706e-05
1.42853e-05
1.42971e-05
1.43059e-05
1.43117e-05
1.43147e-05
1.43149e-05
1.43123e-05
1.43066e-05
1.4298e-05
1.42865e-05
1.32893e-05
1.3357e-05
1.34229e-05
1.34863e-05
1.35472e-05
1.36054e-05
1.36611e-05
1.37142e-05
1.37645e-05
1.38122e-05
1.38571e-05
1.38993e-05
1.39383e-05
1.39745e-05
1.40075e-05
1.40376e-05
1.40647e-05
1.40886e-05
1.41095e-05
1.41274e-05
1.41423e-05
1.41541e-05
1.4163e-05
1.41689e-05
1.4172e-05
1.41722e-05
1.41695e-05
1.41638e-05
1.4155e-05
1.41434e-05
1.31375e-05
1.32057e-05
1.32719e-05
1.33357e-05
1.33969e-05
1.34555e-05
1.35116e-05
1.35651e-05
1.36159e-05
1.36639e-05
1.37091e-05
1.37517e-05
1.3791e-05
1.38276e-05
1.3861e-05
1.38914e-05
1.39187e-05
1.39429e-05
1.3964e-05
1.3982e-05
1.39971e-05
1.40091e-05
1.4018e-05
1.4024e-05
1.40271e-05
1.40273e-05
1.40246e-05
1.40188e-05
1.401e-05
1.39982e-05
1.29844e-05
1.30529e-05
1.31194e-05
1.31835e-05
1.32451e-05
1.33041e-05
1.33605e-05
1.34144e-05
1.34655e-05
1.35138e-05
1.35594e-05
1.36024e-05
1.3642e-05
1.36788e-05
1.37125e-05
1.37432e-05
1.37708e-05
1.37952e-05
1.38166e-05
1.38347e-05
1.38499e-05
1.3862e-05
1.3871e-05
1.38771e-05
1.38802e-05
1.38804e-05
1.38776e-05
1.38717e-05
1.38628e-05
1.3851e-05
1.2822e-05
1.28987e-05
1.29655e-05
1.303e-05
1.30918e-05
1.31512e-05
1.32079e-05
1.3262e-05
1.33134e-05
1.3362e-05
1.3408e-05
1.34512e-05
1.34911e-05
1.35282e-05
1.35623e-05
1.35932e-05
1.36209e-05
1.36456e-05
1.36672e-05
1.36855e-05
1.37007e-05
1.3713e-05
1.37221e-05
1.37282e-05
1.37313e-05
1.37315e-05
1.37287e-05
1.37228e-05
1.37137e-05
1.37018e-05
1.26536e-05
1.27432e-05
1.28103e-05
1.2875e-05
1.29371e-05
1.29968e-05
1.30537e-05
1.31082e-05
1.31598e-05
1.32087e-05
1.3255e-05
1.32984e-05
1.33386e-05
1.33759e-05
1.34103e-05
1.34414e-05
1.34693e-05
1.34941e-05
1.3516e-05
1.35344e-05
1.35498e-05
1.35621e-05
1.35712e-05
1.35775e-05
1.35806e-05
1.35807e-05
1.35779e-05
1.3572e-05
1.35628e-05
1.35508e-05
1.24821e-05
1.25819e-05
1.26538e-05
1.27188e-05
1.27811e-05
1.2841e-05
1.28982e-05
1.29529e-05
1.30048e-05
1.30539e-05
1.31004e-05
1.3144e-05
1.31845e-05
1.3222e-05
1.32566e-05
1.3288e-05
1.3316e-05
1.3341e-05
1.33631e-05
1.33816e-05
1.3397e-05
1.34094e-05
1.34186e-05
1.3425e-05
1.34281e-05
1.34282e-05
1.34254e-05
1.34195e-05
1.34102e-05
1.33981e-05
1.23088e-05
1.24087e-05
1.24856e-05
1.25573e-05
1.26238e-05
1.26839e-05
1.27413e-05
1.27962e-05
1.28483e-05
1.28976e-05
1.29443e-05
1.29882e-05
1.30289e-05
1.30665e-05
1.31014e-05
1.31329e-05
1.31611e-05
1.31863e-05
1.32085e-05
1.32271e-05
1.32426e-05
1.32551e-05
1.32644e-05
1.32708e-05
1.32739e-05
1.32741e-05
1.32712e-05
1.32652e-05
1.32558e-05
1.32437e-05
1.21348e-05
1.22319e-05
1.23101e-05
1.23842e-05
1.24542e-05
1.25206e-05
1.25832e-05
1.26383e-05
1.26906e-05
1.27401e-05
1.27869e-05
1.28309e-05
1.28718e-05
1.29097e-05
1.29447e-05
1.29763e-05
1.30047e-05
1.303e-05
1.30523e-05
1.3071e-05
1.30866e-05
1.30992e-05
1.31086e-05
1.3115e-05
1.31181e-05
1.31183e-05
1.31154e-05
1.31093e-05
1.30999e-05
1.30877e-05
1.1961e-05
1.20546e-05
1.21325e-05
1.2207e-05
1.22781e-05
1.23466e-05
1.24117e-05
1.24727e-05
1.25303e-05
1.25812e-05
1.26282e-05
1.26723e-05
1.27135e-05
1.27514e-05
1.27865e-05
1.28183e-05
1.28469e-05
1.28723e-05
1.28946e-05
1.29135e-05
1.29291e-05
1.29418e-05
1.29512e-05
1.29576e-05
1.29608e-05
1.2961e-05
1.2958e-05
1.29519e-05
1.29425e-05
1.29302e-05
1.1788e-05
1.18785e-05
1.1955e-05
1.20289e-05
1.21e-05
1.21688e-05
1.22346e-05
1.22975e-05
1.23571e-05
1.24126e-05
1.24645e-05
1.25125e-05
1.25538e-05
1.25918e-05
1.26271e-05
1.2659e-05
1.26877e-05
1.27132e-05
1.27356e-05
1.27545e-05
1.27703e-05
1.2783e-05
1.27924e-05
1.27989e-05
1.2802e-05
1.28023e-05
1.27992e-05
1.27931e-05
1.27837e-05
1.27713e-05
1.16161e-05
1.17039e-05
1.17787e-05
1.18516e-05
1.1922e-05
1.19903e-05
1.20558e-05
1.2119e-05
1.21791e-05
1.2236e-05
1.22897e-05
1.23398e-05
1.23857e-05
1.24276e-05
1.24663e-05
1.24983e-05
1.25271e-05
1.25527e-05
1.25752e-05
1.25942e-05
1.261e-05
1.26228e-05
1.26323e-05
1.26388e-05
1.26419e-05
1.26422e-05
1.26391e-05
1.2633e-05
1.26236e-05
1.2611e-05
1.14454e-05
1.1531e-05
1.16043e-05
1.16759e-05
1.17452e-05
1.18126e-05
1.18774e-05
1.19399e-05
1.19997e-05
1.20567e-05
1.21106e-05
1.21615e-05
1.22089e-05
1.22522e-05
1.22922e-05
1.23276e-05
1.23594e-05
1.23875e-05
1.24124e-05
1.24327e-05
1.24485e-05
1.24613e-05
1.24709e-05
1.24774e-05
1.24805e-05
1.24808e-05
1.24777e-05
1.24716e-05
1.24621e-05
1.24495e-05
1.12758e-05
1.13597e-05
1.14315e-05
1.15019e-05
1.157e-05
1.16363e-05
1.17001e-05
1.17617e-05
1.18207e-05
1.18772e-05
1.19307e-05
1.19814e-05
1.2029e-05
1.20726e-05
1.21129e-05
1.21494e-05
1.21822e-05
1.22112e-05
1.22368e-05
1.22582e-05
1.22758e-05
1.22899e-05
1.23004e-05
1.23076e-05
1.23109e-05
1.23111e-05
1.23075e-05
1.23007e-05
1.22901e-05
1.22761e-05
1.11072e-05
1.11896e-05
1.12602e-05
1.13294e-05
1.13965e-05
1.14616e-05
1.15244e-05
1.1585e-05
1.1643e-05
1.16987e-05
1.17514e-05
1.18015e-05
1.18486e-05
1.1892e-05
1.19321e-05
1.19687e-05
1.20016e-05
1.20307e-05
1.20565e-05
1.20782e-05
1.20964e-05
1.21109e-05
1.21218e-05
1.21292e-05
1.21325e-05
1.21327e-05
1.21289e-05
1.21218e-05
1.21109e-05
1.20964e-05
1.09394e-05
1.10204e-05
1.10901e-05
1.11584e-05
1.12245e-05
1.12885e-05
1.13503e-05
1.14099e-05
1.14669e-05
1.15218e-05
1.15736e-05
1.16228e-05
1.16692e-05
1.1712e-05
1.17517e-05
1.17879e-05
1.18205e-05
1.18494e-05
1.18749e-05
1.18966e-05
1.19147e-05
1.19294e-05
1.19403e-05
1.19478e-05
1.19511e-05
1.19512e-05
1.19475e-05
1.19402e-05
1.19294e-05
1.19147e-05
1.07723e-05
1.08522e-05
1.0921e-05
1.09884e-05
1.10537e-05
1.11168e-05
1.11777e-05
1.12363e-05
1.12925e-05
1.13464e-05
1.13973e-05
1.14456e-05
1.14912e-05
1.15334e-05
1.15725e-05
1.16081e-05
1.16401e-05
1.16686e-05
1.16938e-05
1.17153e-05
1.17331e-05
1.17477e-05
1.17586e-05
1.17659e-05
1.17693e-05
1.17694e-05
1.17657e-05
1.17584e-05
1.17478e-05
1.17332e-05
1.06057e-05
1.06845e-05
1.07527e-05
1.08193e-05
1.08838e-05
1.09463e-05
1.10063e-05
1.1064e-05
1.11195e-05
1.11725e-05
1.12226e-05
1.127e-05
1.13148e-05
1.13563e-05
1.13947e-05
1.14297e-05
1.14612e-05
1.14893e-05
1.15141e-05
1.15352e-05
1.15527e-05
1.1567e-05
1.15778e-05
1.1585e-05
1.15884e-05
1.15885e-05
1.15849e-05
1.15777e-05
1.15673e-05
1.1553e-05
1.04395e-05
1.05174e-05
1.05849e-05
1.06509e-05
1.07147e-05
1.07765e-05
1.08358e-05
1.08928e-05
1.09476e-05
1.09998e-05
1.10492e-05
1.10957e-05
1.11398e-05
1.11807e-05
1.12185e-05
1.12529e-05
1.12839e-05
1.13116e-05
1.1336e-05
1.13567e-05
1.13738e-05
1.13878e-05
1.13984e-05
1.14055e-05
1.1409e-05
1.14091e-05
1.14055e-05
1.13985e-05
1.13883e-05
1.13743e-05
1.02736e-05
1.03505e-05
1.04175e-05
1.04829e-05
1.05462e-05
1.06074e-05
1.06661e-05
1.07224e-05
1.07765e-05
1.08281e-05
1.08768e-05
1.09227e-05
1.09661e-05
1.10064e-05
1.10437e-05
1.10775e-05
1.11081e-05
1.11354e-05
1.11593e-05
1.11797e-05
1.11964e-05
1.12102e-05
1.12206e-05
1.12275e-05
1.12311e-05
1.12312e-05
1.12277e-05
1.12209e-05
1.12109e-05
1.11972e-05
1.02505e-05
1.03153e-05
1.0378e-05
1.04387e-05
1.04968e-05
1.05525e-05
1.06061e-05
1.06571e-05
1.07052e-05
1.07506e-05
1.07934e-05
1.08332e-05
1.10205e-05
1.10341e-05
1.10441e-05
1.1051e-05
1.10546e-05
1.10546e-05
1.10513e-05
1.10447e-05
1.10348e-05
1.10214e-05
1.52726e-05
1.5267e-05
1.5263e-05
1.52604e-05
1.52592e-05
1.52592e-05
1.52606e-05
1.52632e-05
1.52673e-05
1.52728e-05
1.53458e-05
1.53358e-05
1.5328e-05
1.53223e-05
1.53186e-05
1.53168e-05
1.53168e-05
1.53187e-05
1.53225e-05
1.53282e-05
1.53359e-05
1.53459e-05
1.53582e-05
1.53732e-05
1.53908e-05
1.54114e-05
1.5435e-05
1.54617e-05
1.54917e-05
1.5525e-05
1.55615e-05
1.5463e-05
1.54452e-05
1.54302e-05
1.54179e-05
1.54083e-05
1.54011e-05
1.53965e-05
1.53941e-05
1.53942e-05
1.53965e-05
1.54012e-05
1.54084e-05
1.5418e-05
1.54302e-05
1.54451e-05
1.54628e-05
1.54834e-05
1.5507e-05
1.55337e-05
1.55635e-05
1.55963e-05
1.56321e-05
1.56708e-05
1.57123e-05
1.57565e-05
1.58032e-05
1.5852e-05
1.56425e-05
1.56138e-05
1.55881e-05
1.55654e-05
1.55457e-05
1.55289e-05
1.55151e-05
1.55041e-05
1.54959e-05
1.54905e-05
1.54878e-05
1.54878e-05
1.54905e-05
1.54959e-05
1.55041e-05
1.5515e-05
1.55288e-05
1.55455e-05
1.55651e-05
1.55877e-05
1.56132e-05
1.56418e-05
1.56733e-05
1.57077e-05
1.57448e-05
1.57846e-05
1.58268e-05
1.58714e-05
1.5918e-05
1.59664e-05
1.60163e-05
1.60675e-05
1.61196e-05
1.58236e-05
1.57885e-05
1.5756e-05
1.57264e-05
1.56996e-05
1.56758e-05
1.5655e-05
1.56372e-05
1.56223e-05
1.56105e-05
1.56017e-05
1.55958e-05
1.55928e-05
1.55928e-05
1.55958e-05
1.56016e-05
1.56104e-05
1.56222e-05
1.56369e-05
1.56547e-05
1.56754e-05
1.5699e-05
1.57256e-05
1.57551e-05
1.57874e-05
1.58224e-05
1.58599e-05
1.58998e-05
1.59418e-05
1.59858e-05
1.60315e-05
1.60788e-05
1.61272e-05
1.61765e-05
1.62264e-05
1.62767e-05
1.63268e-05
1.63766e-05
1.60156e-05
1.59762e-05
1.5939e-05
1.59041e-05
1.58715e-05
1.58418e-05
1.58147e-05
1.57905e-05
1.57691e-05
1.57508e-05
1.57355e-05
1.57233e-05
1.57141e-05
1.5708e-05
1.57049e-05
1.57048e-05
1.57079e-05
1.5714e-05
1.57231e-05
1.57352e-05
1.57504e-05
1.57687e-05
1.57899e-05
1.58139e-05
1.58408e-05
1.58705e-05
1.59028e-05
1.59376e-05
1.59748e-05
1.60139e-05
1.6055e-05
1.60978e-05
1.61422e-05
1.61876e-05
1.62339e-05
1.62808e-05
1.63281e-05
1.63755e-05
1.64223e-05
1.64687e-05
1.6167e-05
1.61272e-05
1.6089e-05
1.60527e-05
1.60186e-05
1.59866e-05
1.59572e-05
1.59304e-05
1.59062e-05
1.5885e-05
1.58666e-05
1.58512e-05
1.58389e-05
1.58296e-05
1.58234e-05
1.58202e-05
1.58201e-05
1.58232e-05
1.58294e-05
1.58386e-05
1.58508e-05
1.58661e-05
1.58844e-05
1.59054e-05
1.59294e-05
1.59561e-05
1.59854e-05
1.60172e-05
1.60513e-05
1.60873e-05
1.61254e-05
1.61649e-05
1.6206e-05
1.62483e-05
1.62915e-05
1.63354e-05
1.63796e-05
1.64239e-05
1.6468e-05
1.65114e-05
1.65544e-05
1.63114e-05
1.62724e-05
1.62344e-05
1.61979e-05
1.6163e-05
1.61302e-05
1.60992e-05
1.60707e-05
1.60445e-05
1.60209e-05
1.6e-05
1.59818e-05
1.59667e-05
1.59546e-05
1.59453e-05
1.59393e-05
1.59361e-05
1.59359e-05
1.5939e-05
1.59451e-05
1.59543e-05
1.59663e-05
1.59813e-05
1.59992e-05
1.60199e-05
1.60433e-05
1.60694e-05
1.60978e-05
1.61286e-05
1.61615e-05
1.61961e-05
1.62325e-05
1.62701e-05
1.63091e-05
1.63492e-05
1.63897e-05
1.64309e-05
1.64721e-05
1.65133e-05
1.65539e-05
1.65939e-05
1.66334e-05
1.6446e-05
1.64088e-05
1.63722e-05
1.63364e-05
1.63018e-05
1.62687e-05
1.62374e-05
1.62078e-05
1.61804e-05
1.61552e-05
1.61324e-05
1.61123e-05
1.60946e-05
1.60799e-05
1.60681e-05
1.60592e-05
1.60533e-05
1.60502e-05
1.605e-05
1.60529e-05
1.60588e-05
1.60678e-05
1.60794e-05
1.6094e-05
1.61113e-05
1.61314e-05
1.61539e-05
1.61789e-05
1.62062e-05
1.62356e-05
1.6267e-05
1.62998e-05
1.63342e-05
1.63697e-05
1.64064e-05
1.64439e-05
1.64816e-05
1.65198e-05
1.65579e-05
1.65957e-05
1.66329e-05
1.66695e-05
1.6705e-05
1.65689e-05
1.65342e-05
1.64998e-05
1.64657e-05
1.64323e-05
1.63998e-05
1.63688e-05
1.63393e-05
1.63113e-05
1.62852e-05
1.62614e-05
1.62396e-05
1.62203e-05
1.62034e-05
1.61893e-05
1.61781e-05
1.61694e-05
1.61637e-05
1.61607e-05
1.61605e-05
1.61634e-05
1.6169e-05
1.61776e-05
1.61887e-05
1.62028e-05
1.62192e-05
1.62383e-05
1.62598e-05
1.62836e-05
1.63093e-05
1.63372e-05
1.63667e-05
1.63977e-05
1.64299e-05
1.6463e-05
1.64972e-05
1.6532e-05
1.65668e-05
1.66019e-05
1.66368e-05
1.66711e-05
1.67047e-05
1.67375e-05
1.67692e-05
1.66472e-05
1.66155e-05
1.65838e-05
1.65523e-05
1.65216e-05
1.64915e-05
1.64625e-05
1.64349e-05
1.64087e-05
1.63842e-05
1.63618e-05
1.63412e-05
1.63228e-05
1.6307e-05
1.62936e-05
1.6283e-05
1.62748e-05
1.62693e-05
1.62665e-05
1.62663e-05
1.6269e-05
1.62744e-05
1.62824e-05
1.6293e-05
1.63063e-05
1.63219e-05
1.63398e-05
1.636e-05
1.63825e-05
1.64066e-05
1.64326e-05
1.64602e-05
1.6489e-05
1.65189e-05
1.65497e-05
1.65813e-05
1.66131e-05
1.6645e-05
1.66769e-05
1.67084e-05
1.67392e-05
1.67691e-05
1.67981e-05
1.68259e-05
1.67464e-05
1.67182e-05
1.66895e-05
1.66607e-05
1.66319e-05
1.66038e-05
1.65762e-05
1.65495e-05
1.65238e-05
1.64995e-05
1.64768e-05
1.64558e-05
1.64366e-05
1.64193e-05
1.64045e-05
1.6392e-05
1.63819e-05
1.63742e-05
1.63691e-05
1.63665e-05
1.63663e-05
1.63689e-05
1.6374e-05
1.63813e-05
1.63913e-05
1.64038e-05
1.64184e-05
1.64352e-05
1.6454e-05
1.64748e-05
1.64973e-05
1.65216e-05
1.6547e-05
1.65736e-05
1.6601e-05
1.66294e-05
1.66581e-05
1.66869e-05
1.67158e-05
1.67444e-05
1.67725e-05
1.67997e-05
1.68259e-05
1.68511e-05
1.68749e-05
1.68306e-05
1.68065e-05
1.67815e-05
1.67559e-05
1.67302e-05
1.67043e-05
1.66788e-05
1.66538e-05
1.66294e-05
1.66059e-05
1.65834e-05
1.65624e-05
1.65431e-05
1.65252e-05
1.65092e-05
1.64954e-05
1.64838e-05
1.64744e-05
1.64672e-05
1.64624e-05
1.646e-05
1.64599e-05