/*--------------------------------*- C++ -*----------------------------------*\
  =========                 |
  \\      /  F ield         | OpenFOAM: The Open Source CFD Toolbox
   \\    /   O peration     | Website:  https://openfoam.org
    \\  /    A nd           | Version:  7
     \\/     M anipulation  |
\*---------------------------------------------------------------------------*/
FoamFile
{
    version     2.0;
    format      ascii;
    class       volVectorField;
    location    "52000";
    object      vorticity;
}
// * * * * * * * * * * * * * * * * * * * * * * * * * * * * * * * * * * * * * //

dimensions      [0 0 -1 0 0 0 0];

internalField   nonuniform List<vector> 
4764
(
(0.000231673 8.40193e-05 2.01194e-17)
(0.000230276 7.52932e-05 -2.8936e-17)
(0.000230023 6.70613e-05 -1.81705e-17)
(0.000230431 5.90795e-05 -1.43847e-17)
(0.000231309 5.12312e-05 -2.07475e-17)
(0.000232739 4.34683e-05 1.18748e-17)
(0.000599526 0.000427454 2.01697e-17)
(0.000512657 0.000343228 -5.3768e-17)
(0.000446512 0.000280262 -2.15249e-18)
(0.000395981 0.000232527 4.22043e-17)
(0.000357389 0.000195778 1.65244e-17)
(0.000328013 0.000167014 -2.87209e-18)
(0.000305578 0.00014398 -1.64631e-17)
(0.000288353 0.000125075 -1.10716e-17)
(0.000274819 0.000109194 4.16527e-17)
(0.000263197 9.5161e-05 2.48924e-17)
(0.000255492 8.32315e-05 -3.41321e-17)
(0.0002501 7.26713e-05 -1.79542e-17)
(0.000246342 6.29735e-05 -1.13515e-17)
(0.000243877 5.38482e-05 -2.47587e-17)
(0.000242666 4.5072e-05 1.37307e-17)
(0.00024324 3.67733e-05 1.0329e-17)
(0.000242998 2.84728e-05 -3.59585e-18)
(0.000242636 2.01011e-05 1.2216e-17)
(0.000242334 1.17837e-05 -2.08101e-17)
(0.000242137 3.52733e-06 -1.82638e-17)
(0.000242051 -4.68785e-06 2.12007e-17)
(0.000242089 -1.28871e-05 2.18534e-17)
(0.000242279 -2.10981e-05 2.6589e-17)
(0.000242674 -2.9348e-05 3.52335e-19)
(0.000243348 -3.76258e-05 1.1722e-17)
(0.000244516 -4.59975e-05 -9.63017e-18)
(0.000246328 -5.46577e-05 -9.43178e-18)
(0.000248977 -6.37321e-05 2.61653e-17)
(0.000252986 -7.3399e-05 -2.38176e-17)
(0.00104851 0.000744036 2.95748e-17)
(0.000875308 0.000582347 -5.92992e-17)
(0.00074017 0.000460997 -6.09272e-19)
(0.000634685 0.00036939 5.1711e-17)
(0.000552485 0.000299705 1.36263e-17)
(0.000488655 0.000246265 -3.18008e-18)
(0.000438774 0.00020463 -1.46691e-17)
(0.000399536 0.00017163 -1.72336e-17)
(0.000368263 0.00014507 4.50012e-17)
(0.000342874 0.000122925 2.87886e-17)
(0.00032376 0.000104535 -3.89896e-17)
(0.000309144 8.90357e-05 -1.5645e-17)
(0.000297955 7.55114e-05 -5.16502e-18)
(0.000289539 6.33761e-05 -2.88244e-17)
(0.000283574 5.21584e-05 1.45745e-17)
(0.000279883 4.19197e-05 1.27222e-17)
(0.000276817 3.2218e-05 -4.85338e-18)
(0.000274433 2.26374e-05 1.77147e-17)
(0.000272809 1.32518e-05 -2.14717e-17)
(0.00027196 4.01436e-06 -2.24846e-17)
(0.000271881 -5.15359e-06 2.48229e-17)
(0.000272591 -1.43394e-05 2.84015e-17)
(0.000274139 -2.36362e-05 2.9248e-17)
(0.000276618 -3.3142e-05 -4.74046e-18)
(0.000280169 -4.29357e-05 1.51927e-17)
(0.000285133 -5.31896e-05 -9.11797e-18)
(0.000291843 -6.42208e-05 -1.04326e-17)
(0.000300641 -7.63269e-05 2.90144e-17)
(0.000312331 -8.9985e-05 -3.02505e-17)
(0.000328698 -0.000106 -3.90951e-17)
(0.000347469 -0.000124189 -9.96978e-18)
(0.000370786 -0.000145655 5.92537e-18)
(0.000400553 -0.000171582 -3.23619e-18)
(0.00188769 0.00133688 3.51004e-17)
(0.00157283 0.00104302 -5.66962e-17)
(0.00131804 0.000817115 -2.98194e-18)
(0.00111308 0.000643931 5.91878e-17)
(0.000949359 0.000511221 1.0094e-17)
(0.000819681 0.000409574 -8.29348e-18)
(0.000716596 0.000331067 -9.52633e-18)
(0.000634422 0.00026983 -2.07399e-17)
(0.000568598 0.000221614 4.25905e-17)
(0.000516108 0.000182927 2.92407e-17)
(0.000474789 0.000151506 -3.89855e-17)
(0.000442318 0.000125845 -8.58107e-18)
(0.000416826 0.000104326 3.26172e-18)
(0.000397011 8.58071e-05 -3.26642e-17)
(0.000382008 6.94144e-05 1.47686e-17)
(0.00037077 5.48943e-05 1.66696e-17)
(0.000362395 4.17186e-05 -6.06405e-18)
(0.000356222 2.91352e-05 2.41173e-17)
(0.000352136 1.70401e-05 -1.98439e-17)
(0.000350072 5.26505e-06 -2.65412e-17)
(0.000349997 -6.38505e-06 2.8674e-17)
(0.000351933 -1.81151e-05 3.72988e-17)
(0.000355976 -3.01414e-05 3.05174e-17)
(0.000362308 -4.26971e-05 -1.2953e-17)
(0.000371217 -5.60298e-05 1.94931e-17)
(0.000383274 -7.05134e-05 -6.63827e-18)
(0.000399155 -8.67049e-05 -1.03002e-17)
(0.000419566 -0.000105229 2.95513e-17)
(0.000445798 -0.000127046 -3.6992e-17)
(0.000479942 -0.000153147 -4.34696e-17)
(0.000521142 -0.000184186 -1.25799e-17)
(0.000572121 -0.000222308 4.11326e-18)
(0.000636398 -0.000270017 -5.93913e-18)
(0.000718613 -0.000331296 -1.11529e-17)
(0.000820161 -0.000409327 -3.5531e-17)
(0.000947951 -0.000510187 -3.35824e-18)
(0.00110966 -0.000641838 7.03529e-18)
(0.00131259 -0.000813748 5.35722e-18)
(0.0015654 -0.00103821 9.79959e-18)
(0.00187841 -0.00133056 4.06399e-17)
(0.00225963 -0.00170725 9.03826e-19)
(0.00271543 -0.0021866 -2.89037e-17)
(0.00324984 -0.00278705 -4.73624e-17)
(0.00385867 -0.0035223 -8.04299e-18)
(0.00465247 -0.00427561 5.49984e-17)
(0.00329902 0.002336 3.24416e-17)
(0.00279693 0.00185308 -5.18003e-17)
(0.00236961 0.00146638 -1.43451e-17)
(0.00201081 0.00115998 6.28636e-17)
(0.00171343 0.000918979 1.2887e-17)
(0.00147032 0.000730873 -1.34022e-17)
(0.00127195 0.000583946 -4.17463e-18)
(0.00111056 0.000468867 -2.053e-17)
(0.000979563 0.000378428 3.52891e-17)
(0.000874374 0.000306808 2.65544e-17)
(0.000789837 0.000249381 -3.41445e-17)
(0.000722306 0.00020317 5.56157e-18)
(0.000668556 0.000165311 1.54164e-17)
(0.000626137 0.000133647 -3.52434e-17)
(0.000593216 0.000106543 1.49287e-17)
(0.000567798 8.31185e-05 2.18177e-17)
(0.000548928 6.24484e-05 -7.03312e-18)
(0.000535251 4.33416e-05 3.20539e-17)
(0.000526301 2.53343e-05 -1.48571e-17)
(0.000521841 7.99812e-06 -2.79712e-17)
(0.000521765 -9.0999e-06 3.48806e-17)
(0.000526105 -2.63994e-05 4.78252e-17)
(0.00053505 -4.43617e-05 2.95553e-17)
(0.000548964 -6.34908e-05 -2.40827e-17)
(0.000568439 -8.4362e-05 2.40134e-17)
(0.000594487 -0.000107746 -1.93839e-18)
(0.000628439 -0.000134682 -7.75919e-18)
(0.000671714 -0.000166418 2.65127e-17)
(0.00072647 -0.000204709 -4.20684e-17)
(0.000795312 -0.000251204 -4.40822e-17)
(0.000879859 -0.000308103 -1.62476e-17)
(0.000983897 -0.000379198 7.93957e-19)
(0.00111329 -0.000469255 -4.0959e-18)
(0.00127475 -0.000584415 -2.80559e-18)
(0.00147156 -0.000730701 -3.10962e-17)
(0.00171252 -0.000917855 -1.37559e-18)
(0.00200759 -0.00115763 -6.73389e-18)
(0.00236414 -0.00146262 -6.17235e-18)
(0.00278941 -0.00184785 2.36697e-17)
(0.00328985 -0.00232944 5.56773e-17)
(0.00386701 -0.00292216 -1.7349e-17)
(0.00451764 -0.00363942 -1.95006e-17)
(0.00523289 -0.00448998 -9.90107e-18)
(0.00599667 -0.00547568 2.66211e-17)
(0.0069621 -0.00641106 5.96489e-17)
(0.00537151 0.00380511 2.62227e-17)
(0.00468599 0.00310524 -4.30864e-17)
(0.00406892 0.00251756 -3.3199e-17)
(0.00352382 0.00203138 5.32187e-17)
(0.00305047 0.00163382 1.30803e-17)
(0.00264601 0.00131247 -2.75581e-17)
(0.00230349 0.00105437 -1.06869e-18)
(0.00201591 0.000847756 -8.76565e-18)
(0.00177646 0.000682682 2.57008e-17)
(0.00157982 0.000550816 1.95939e-17)
(0.00141824 0.000444683 -1.85622e-17)
(0.00128662 0.000359094 2.90001e-17)
(0.00118016 0.000289328 2.68647e-17)
(0.0010949 0.00023161 -3.20416e-17)
(0.00102762 0.000183016 1.97174e-17)
(0.000975146 0.000141566 2.77078e-17)
(0.000935841 0.000105497 -5.62125e-18)
(0.000907469 7.28841e-05 4.11513e-17)
(0.000888979 4.25967e-05 -5.66785e-18)
(0.000879817 1.36825e-05 -2.31349e-17)
(0.000879739 -1.47666e-05 4.53918e-17)
(0.000888791 -4.36555e-05 5.94163e-17)
(0.000907326 -7.3928e-05 2.88056e-17)
(0.000936036 -0.000106618 -3.62329e-17)
(0.000976034 -0.000142923 2.65577e-17)
(0.00102907 -0.000184356 4.26339e-18)
(0.00109755 -0.000232851 -3.10365e-18)
(0.00118397 -0.000290727 1.86004e-17)
(0.00129167 -0.000361017 -4.69953e-17)
(0.00142423 -0.000446724 -4.17989e-17)
(0.00158584 -0.000552201 -1.98067e-17)
(0.00178161 -0.000683557 -3.48746e-18)
(0.00201948 -0.000848342 -5.67584e-19)
(0.00230659 -0.00105483 2.78336e-18)
(0.00264754 -0.00131214 -2.03521e-17)
(0.00304976 -0.00163243 1.30698e-17)
(0.00352078 -0.00202874 -2.54243e-17)
(0.00406376 -0.00251362 -1.86437e-17)
(0.00467914 -0.00310011 3.21646e-17)
(0.00536358 -0.00379915 6.39126e-17)
(0.00610869 -0.00461836 -2.35671e-17)
(0.00690059 -0.00556162 5.16153e-19)
(0.00772017 -0.00662621 1.9752e-17)
(0.00854546 -0.00780376 5.38973e-17)
(0.00958578 -0.00884352 6.96576e-17)
(0.00801445 0.00567905 2.70626e-17)
(0.00721376 0.00478182 -2.69423e-17)
(0.00645382 0.00399425 -4.79902e-17)
(0.00574732 0.00331349 3.95752e-17)
(0.00510275 0.00273268 1.50472e-17)
(0.00452444 0.0022433 -4.37115e-17)
(0.00401302 0.00183534 -2.76937e-18)
(0.00356646 0.00149771 8.80831e-18)
(0.0031814 0.00121987 2.05942e-17)
(0.00285423 0.000992253 8.68669e-18)
(0.00257757 0.000805507 -2.076e-18)
(0.00234627 0.000652314 5.46556e-17)
(0.00215497 0.000525985 3.69865e-17)
(0.00199872 0.000420808 -2.15213e-17)
(0.00187317 0.000332133 3.17695e-17)
(0.00177412 0.000256413 3.78922e-17)
(0.00169895 0.00019055 2.88293e-18)
(0.0016445 0.000131457 5.36639e-17)
(0.00160898 7.68973e-05 9.29038e-18)
(0.0015914 2.49838e-05 -1.01615e-17)
(0.00159132 -2.60512e-05 6.02181e-17)
(0.00160881 -7.79551e-05 7.09755e-17)
(0.00164444 -0.000132538 3.25464e-17)
(0.00169934 -0.000191766 -4.61572e-17)
(0.00177527 -0.000257887 2.42641e-17)
(0.00187485 -0.000333625 1.14793e-17)
(0.00200171 -0.00042228 2.53984e-18)
(0.00215934 -0.00052769 4.83806e-18)
(0.00235197 -0.00065454 -4.79181e-17)
(0.00258371 -0.000807622 -2.99701e-17)
(0.00286032 -0.000993589 -1.72606e-17)
(0.00318691 -0.00122071 -3.93373e-18)
(0.00357054 -0.00149833 5.17115e-19)
(0.00401605 -0.0018356 6.73325e-18)
(0.00452604 -0.00224271 -1.27966e-18)
(0.00510237 -0.00273111 3.69004e-17)
(0.00574498 -0.00331089 -3.75449e-17)
(0.00644988 -0.00399072 -2.17402e-17)
(0.00720875 -0.00477761 4.26887e-17)
(0.008009 -0.00567463 7.05532e-17)
(0.00883536 -0.00668147 -1.94144e-17)
(0.00966929 -0.00779415 2.37235e-17)
(0.0104899 -0.00900345 3.64938e-17)
(0.0112777 -0.0102975 7.12019e-17)
(0.0123049 -0.0113704 8.12624e-17)
(0.0109942 0.00779048 2.88233e-17)
(0.0101782 0.00674722 -1.05001e-17)
(0.0093687 0.00579883 -5.34197e-17)
(0.00858168 0.00494804 3.36274e-17)
(0.00783057 0.00419388 2.57987e-17)
(0.00712544 0.00353313 -5.59732e-17)
(0.00647454 0.00296086 -3.2157e-18)
(0.00588271 0.00246962 3.59515e-17)
(0.00535249 0.00205104 1.87317e-17)
(0.00488454 0.00169657 -9.40419e-18)
(0.00447573 0.00139722 1.04681e-17)
(0.0041235 0.00114494 6.74079e-17)
(0.00382428 0.000931981 2.14209e-17)
(0.003574 0.000751204 -2.49245e-17)
(0.00336853 0.000596378 3.77211e-17)
(0.00320364 0.00046233 3.984e-17)
(0.00307651 0.000344424 9.00148e-18)
(0.00298367 0.000238094 6.301e-17)
(0.00292282 0.000139598 2.56434e-17)
(0.00289265 4.56785e-05 7.92306e-18)
(0.00289258 -4.67322e-05 7.26628e-17)
(0.0029227 -0.000140663 7.43903e-17)
(0.00298372 -0.000239225 3.71583e-17)
(0.00307708 -0.000345741 -5.35642e-17)
(0.00320492 -0.000463904 2.38914e-17)
(0.00337025 -0.000597994 2.55043e-17)
(0.00357696 -0.000752849 8.22449e-18)
(0.00382863 -0.000933864 -4.59425e-18)
(0.00412896 -0.0011472 -4.20089e-17)
(0.00448103 -0.00139908 -1.01384e-17)
(0.00488967 -0.00169754 -6.5706e-18)
(0.00535739 -0.00205154 -2.21673e-18)
(0.00588654 -0.00246997 5.55044e-18)
(0.00647702 -0.0029607 1.68048e-17)
(0.00712683 -0.00353221 1.78472e-17)
(0.00783058 -0.00419224 6.01722e-17)
(0.00858041 -0.00494577 -3.82477e-17)
(0.00936651 -0.00579614 -1.62777e-17)
(0.0101755 -0.00674439 5.43587e-17)
(0.0109915 -0.00778791 7.71272e-17)
(0.0117989 -0.00892209 -1.00104e-17)
(0.0125811 -0.0101401 4.01971e-17)
(0.0133219 -0.011432 4.20754e-17)
(0.0140082 -0.0127876 8.024e-17)
(0.0149715 -0.0138539 8.87976e-17)
(0.0140642 0.00996378 2.9347e-17)
(0.0133149 0.00882492 -2.6114e-19)
(0.0125467 0.00776463 -5.63831e-17)
(0.0117736 0.00678741 3.07406e-17)
(0.0110087 0.00589536 3.68267e-17)
(0.0102635 0.00508876 -6.15412e-17)
(0.00954988 0.00436684 -7.0482e-19)
(0.00887723 0.00372618 5.87542e-17)
(0.00825302 0.00316177 2.03323e-17)
(0.00768241 0.00266767 -2.31771e-17)
(0.00716784 0.00223704 1.96269e-17)
(0.006711 0.00186282 7.13017e-17)
(0.00631212 0.00153773 -4.96451e-18)
(0.00597012 0.00125443 -3.70817e-17)
(0.00568297 0.001006 3.83712e-17)
(0.00544811 0.000786218 3.85088e-17)
(0.00526401 0.000589238 1.27271e-17)
(0.00512812 0.000409174 6.61471e-17)
(0.00503847 0.000240742 4.17437e-17)
(0.00499387 7.9148e-05 2.71211e-17)
(0.00499383 -8.01934e-05 7.64696e-17)
(0.00503842 -0.000241821 6.61119e-17)
(0.00512828 -0.000410359 4.03382e-17)
(0.00526463 -0.000590636 -5.78044e-17)
(0.00544924 -0.000787839 2.93753e-17)
(0.00568437 -0.00100766 4.57879e-17)
(0.00597242 -0.0012561 1.2526e-17)
(0.00631551 -0.00153954 -9.4941e-18)
(0.00671501 -0.00186473 -3.1059e-17)
(0.00717119 -0.00223827 8.49192e-18)
(0.00768557 -0.00266797 7.52438e-18)
(0.00825634 -0.00316166 2.47344e-18)
(0.00888005 -0.00372599 1.32017e-17)
(0.00955147 -0.00436613 2.73503e-17)
(0.0102645 -0.00508751 2.97066e-17)
(0.011009 -0.00589374 7.51092e-17)
(0.0117734 -0.00678561 -3.34853e-17)
(0.0125462 -0.00776283 -9.80237e-18)
(0.0133143 -0.00882337 5.96584e-17)
(0.0140638 -0.00996275 8.00492e-17)
(0.0147825 -0.0111758 -1.26019e-18)
(0.0154586 -0.0124563 4.80075e-17)
(0.0160812 -0.0137964 4.18416e-17)
(0.0166424 -0.0151886 8.36859e-17)
(0.0175254 -0.0162376 8.9012e-17)
(0.0170655 0.0120864 2.71922e-17)
(0.0164241 0.0108823 2.71644e-18)
(0.0157514 0.0097448 -5.89666e-17)
(0.0150579 0.008678 2.70452e-17)
(0.014354 0.00768447 4.34094e-17)
(0.0136497 0.0067657 -6.151e-17)
(0.0129564 0.00592276 1.29023e-18)
(0.0122844 0.00515469 7.12632e-17)
(0.011643 0.00445907 2.40944e-17)
(0.0110398 0.00383238 -2.95992e-17)
(0.010481 0.00327024 3.02891e-17)
(0.00997194 0.00276741 7.76456e-17)
(0.00951654 0.00231798 -1.867e-17)
(0.00911725 0.00191554 -3.72754e-17)
(0.0087751 0.00155351 4.80838e-17)
(0.00849036 0.00122552 4.72054e-17)
(0.00826371 0.00092522 1.97446e-17)
(0.0080946 0.000646028 6.82109e-17)
(0.00798224 0.000381588 5.96286e-17)
(0.00792614 0.000125887 4.64545e-17)
(0.00792613 -0.00012693 7.63599e-17)
(0.00798225 -0.000382684 5.5763e-17)
(0.00809479 -0.000647254 4.41025e-17)
(0.0082642 -0.000926653 -5.54877e-17)
(0.00849103 -0.00122711 3.98737e-17)
(0.00877578 -0.0015551 6.31672e-17)
(0.00911834 -0.00191707 1.36347e-17)
(0.00951821 -0.00231948 -1.23221e-17)
(0.00997368 -0.00276869 -2.19206e-17)
(0.0104819 -0.00327067 1.83822e-17)
(0.0110406 -0.00383192 1.67654e-17)
(0.0116444 -0.00445827 6.03019e-18)
(0.0122858 -0.00515388 1.84907e-17)
(0.012957 -0.00592155 3.36479e-17)
(0.0136503 -0.00676421 3.21482e-17)
(0.0143546 -0.00768293 7.94046e-17)
(0.0150585 -0.00867661 -2.99922e-17)
(0.0157521 -0.00974371 -5.14434e-18)
(0.0164249 -0.0108816 5.67469e-17)
(0.0170665 -0.0120864 7.62578e-17)
(0.0176683 -0.0133538 2.583e-18)
(0.0182221 -0.0146792 4.97658e-17)
(0.0187207 -0.0160568 3.91715e-17)
(0.0191587 -0.0174814 8.2722e-17)
(0.0199635 -0.0185183 8.30253e-17)
(0.0199382 0.0141167 2.26537e-17)
(0.0194127 0.0128582 2.50982e-18)
(0.0188525 0.0116591 -6.16233e-17)
(0.0182652 0.0105224 2.13034e-17)
(0.017659 0.00945009 4.45981e-17)
(0.0170418 0.00844359 -5.877e-17)
(0.0164228 0.00750415 2.50348e-18)
(0.0158114 0.00663167 7.31001e-17)
(0.0152163 0.00582491 2.48718e-17)
(0.0146452 0.00508173 -3.04535e-17)
(0.0141056 0.00439938 3.88966e-17)
(0.0136045 0.0037741 7.76372e-17)
(0.0131477 0.0032014 -2.78973e-17)
(0.0127401 0.00267605 -3.37128e-17)
(0.0123852 0.00219235 5.57445e-17)
(0.0120856 0.00174443 5.67134e-17)
(0.0118442 0.00132611 2.39706e-17)
(0.0116623 0.000930803 6.81413e-17)
(0.0115408 0.000551795 7.45316e-17)
(0.0114799 0.000182511 6.10457e-17)
(0.0114799 -0.000183557 7.42782e-17)
(0.0115408 -0.000552904 4.56629e-17)
(0.0116625 -0.000932046 4.65547e-17)
(0.0118444 -0.00132753 -4.82161e-17)
(0.0120857 -0.00174593 4.82718e-17)
(0.012385 -0.0021938 7.19096e-17)
(0.0127399 -0.00267734 1.30277e-17)
(0.0131476 -0.00320248 -1.14691e-17)
(0.013604 -0.00377473 -1.34525e-17)
(0.0141044 -0.00439912 2.03022e-17)
(0.014644 -0.00508067 1.8809e-17)
(0.015216 -0.00582357 6.62818e-18)
(0.0158116 -0.00663036 1.82655e-17)
(0.0164227 -0.00750261 3.26388e-17)
(0.017042 -0.00844197 2.58164e-17)
(0.0176597 -0.00944863 7.51829e-17)
(0.0182662 -0.0105213 -2.88402e-17)
(0.0188538 -0.0116585 -3.38572e-18)
(0.0194143 -0.0128581 4.9033e-17)
(0.0199399 -0.0141172 6.73527e-17)
(0.0204242 -0.0154327 1.46195e-18)
(0.020861 -0.016801 4.75119e-17)
(0.0212447 -0.0182177 3.62155e-17)
(0.0215708 -0.0196789 7.86866e-17)
(0.0223049 -0.0207131 7.41712e-17)
(0.0226834 0.0160559 1.71613e-17)
(0.0222658 0.0147435 1.34494e-18)
(0.0218137 0.0134859 -6.4491e-17)
(0.0213333 0.0122853 1.41363e-17)
(0.0208312 0.0111432 4.05123e-17)
(0.0203138 0.0100605 -5.70833e-17)
(0.019789 0.00903812 2.84067e-18)
(0.0192642 0.0080759 6.95808e-17)
(0.0187471 0.00717288 2.06687e-17)
(0.0182445 0.00632743 -3.20603e-17)
(0.0177636 0.00553747 4.35359e-17)
(0.0173113 0.00480007 7.19938e-17)
(0.0168938 0.00411165 -3.62281e-17)
(0.0165168 0.00346789 -2.86868e-17)
(0.0161847 0.00286395 5.78319e-17)
(0.0159017 0.00229461 5.95927e-17)
(0.0156716 0.00175422 2.16116e-17)
(0.0154971 0.00123658 6.22641e-17)
(0.0153799 0.000735236 7.99526e-17)
(0.015321 0.000243651 6.51224e-17)
(0.015321 -0.000244699 6.82843e-17)
(0.0153799 -0.000736349 3.63735e-17)
(0.0154971 -0.00123782 4.60244e-17)
(0.0156715 -0.00175558 -4.09881e-17)
(0.0159012 -0.002296 5.00471e-17)
(0.0161838 -0.00286523 7.24003e-17)
(0.0165154 -0.00346894 1.11504e-17)
(0.0168922 -0.00411235 -1.08371e-17)
(0.0173092 -0.0048002 -6.03334e-18)
(0.017761 -0.00553675 1.6933e-17)
(0.0182421 -0.00632602 1.38382e-17)
(0.0187457 -0.00717123 2.02737e-18)
(0.0192635 -0.00807429 1.4397e-17)
(0.0197884 -0.00903641 2.70402e-17)
(0.0203139 -0.0100589 1.45822e-17)
(0.0208318 -0.0111418 6.41358e-17)
(0.0213344 -0.0122843 -3.0529e-17)
(0.0218152 -0.0134854 -3.95059e-18)
(0.0222677 -0.0147436 4.05147e-17)
(0.0226854 -0.0160566 5.58232e-17)
(0.0230627 -0.0174221 -2.38729e-18)
(0.0233942 -0.018837 4.39211e-17)
(0.0236749 -0.0202979 3.35319e-17)
(0.0239006 -0.0218012 7.307e-17)
(0.0245707 -0.0228415 6.51891e-17)
(0.0253242 0.0179206 1.11376e-17)
(0.0250029 0.0165512 -4.56647e-19)
(0.0246478 0.0152332 -6.72801e-17)
(0.0242644 0.0139684 5.78646e-18)
(0.0238586 0.0127579 3.25338e-17)
(0.0234362 0.0116022 -5.56195e-17)
(0.0230037 0.0105018 2.64892e-18)
(0.0225676 0.00945635 6.29054e-17)
(0.0221344 0.00846479 1.39397e-17)
(0.0217101 0.00752558 -3.55047e-17)
(0.021301 0.00663681 4.37551e-17)
(0.0209133 0.00579589 6.22201e-17)
(0.0205528 0.00499966 -4.43874e-17)
(0.0202247 0.00424439 -2.59519e-17)
(0.0199339 0.00352584 5.28928e-17)
(0.0196845 0.00283933 5.41461e-17)
(0.0194806 0.00217975 1.32936e-17)
(0.0193252 0.00154148 5.11268e-17)
(0.0192206 0.000918536 7.56002e-17)
(0.0191679 0.00030481 5.87274e-17)
(0.0191679 -0.000305858 5.84141e-17)
(0.0192205 -0.000919643 2.685e-17)
(0.0193251 -0.00154269 4.39087e-17)
(0.0194802 -0.00218104 -3.49455e-17)
(0.0196836 -0.0028406 4.51225e-17)
(0.0199324 -0.00352697 6.62371e-17)
(0.0202227 -0.00424525 7.27949e-18)
(0.0205503 -0.00500011 -1.1606e-17)
(0.0209103 -0.00579571 1.32612e-19)
(0.0212977 -0.00663587 1.10213e-17)
(0.0217072 -0.00752405 4.56998e-18)
(0.0221324 -0.00846303 -4.58729e-18)
(0.0225664 -0.00945461 7.90207e-18)
(0.0230029 -0.0105001 1.97588e-17)
(0.0234361 -0.0116006 3.04929e-18)
(0.0238592 -0.0127566 4.9292e-17)
(0.0242656 -0.0139676 -3.49135e-17)
(0.0246494 -0.0152329 -5.93732e-18)
(0.0250048 -0.0165513 3.22816e-17)
(0.0253261 -0.0179213 4.39502e-17)
(0.0256079 -0.0193406 -6.69672e-18)
(0.0258452 -0.0208066 4.01494e-17)
(0.0260329 -0.022316 3.06223e-17)
(0.0261668 -0.0238655 6.74253e-17)
(0.0267775 -0.0249186 5.76886e-17)
(0.0280799 0.0212035 8.28324e-18)
(0.0278844 0.0197278 5.27269e-18)
(0.0276497 0.0182986 -2.39328e-18)
(0.0273811 0.0169177 -6.89525e-17)
(0.0270839 0.0155867 -2.76611e-18)
(0.0267637 0.0143065 2.25955e-17)
(0.0264259 0.0130776 -5.38025e-17)
(0.0260764 0.0118999 2.00432e-18)
(0.025721 0.0107732 5.46458e-17)
(0.0253654 0.00969612 7.58777e-18)
(0.025015 0.00866721 -3.96986e-17)
(0.0246754 0.00768452 3.98788e-17)
(0.0243518 0.00674559 5.19516e-17)
(0.0240495 0.00584748 -5.06098e-17)
(0.0237732 0.00498676 -2.69034e-17)
(0.0235273 0.00415957 4.28473e-17)
(0.0233157 0.00336166 4.30578e-17)
(0.0231421 0.00258837 2.63767e-18)
(0.0230095 0.0018346 3.72773e-17)
(0.02292 0.00109491 6.42899e-17)
(0.0228749 0.000363684 4.56126e-17)
(0.0228749 -0.000364727 4.61384e-17)
(0.0229199 -0.001096 1.7938e-17)
(0.0230092 -0.00183578 4.08239e-17)
(0.0231415 -0.0025896 -3.08908e-17)
(0.0233146 -0.00336284 3.74745e-17)
(0.0235256 -0.00416059 5.72666e-17)
(0.0237709 -0.00498748 1.84197e-18)
(0.0240467 -0.00584777 -1.2663e-17)
(0.0243485 -0.00674528 4.12738e-18)
(0.0246719 -0.00768353 4.24349e-18)
(0.025012 -0.00866569 -5.70214e-18)
(0.0253632 -0.00969438 -1.08971e-17)
(0.0257196 -0.0107714 5.2063e-19)
(0.0260756 -0.0118982 1.28349e-17)
(0.0264257 -0.013076 -6.41908e-18)
(0.0267642 -0.0143052 3.39058e-17)
(0.027085 -0.0155859 -4.01558e-17)
(0.0273826 -0.0169173 -8.18611e-18)
(0.0276515 -0.0182987 2.47702e-17)
(0.0278862 -0.0197285 3.30359e-17)
(0.0280816 -0.0212046 -1.03645e-17)
(0.0282326 -0.0227246 3.64706e-17)
(0.0283344 -0.0242854 2.71117e-17)
(0.0283826 -0.0258838 6.2969e-17)
(0.0289362 -0.0269544 5.19578e-17)
(0.0304973 0.0230246 6.04221e-18)
(0.030382 0.0214903 -1.82327e-19)
(0.0302269 0.0199994 -3.59378e-18)
(0.030037 0.0185538 -6.88908e-17)
(0.0298176 0.0171551 -9.96888e-18)
(0.0295741 0.0158039 1.28595e-17)
(0.0293115 0.0145008 -5.1752e-17)
(0.0290355 0.0132456 8.69261e-19)
(0.0287514 0.0120379 4.56819e-17)
(0.0284645 0.0108764 3.33185e-18)
(0.0281797 0.00975964 -4.25387e-17)
(0.0279019 0.00868563 3.38285e-17)
(0.027636 0.00765199 4.27439e-17)
(0.0273865 0.00665592 -5.43398e-17)
(0.0271576 0.0056942 -2.9614e-17)
(0.0269532 0.00476325 3.1371e-17)
(0.026777 0.00385913 3.01867e-17)
(0.0266321 0.00297752 -7.83872e-18)
(0.0265211 0.00211376 2.37807e-17)
(0.0264462 0.00126288 5.05595e-17)
(0.0264084 0.000419756 3.0406e-17)
(0.0264083 -0.000420789 3.4116e-17)
(0.026446 -0.00126395 1.03506e-17)
(0.0265208 -0.00211489 3.70237e-17)
(0.0266313 -0.00297868 -2.78117e-17)
(0.0267757 -0.00386023 3.03904e-17)
(0.0269514 -0.00476419 4.89094e-17)
(0.0271552 -0.00569484 -3.27432e-18)
(0.0273835 -0.00665612 -1.37926e-17)
(0.0276326 -0.00765162 6.14954e-18)
(0.0278985 -0.00868465 -1.90639e-18)
(0.0281767 -0.0097582 -1.39829e-17)
(0.0284623 -0.0108747 -1.53155e-17)
(0.0287499 -0.0120362 -6.21372e-18)
(0.0290346 -0.013244 7.10213e-18)
(0.0293113 -0.0144993 -1.34171e-17)
(0.0295745 -0.0158027 2.01546e-17)
(0.0298186 -0.0171542 -4.38852e-17)
(0.0300384 -0.0185535 -9.82602e-18)
(0.0302285 -0.0199995 1.83853e-17)
(0.0303837 -0.0214909 2.38929e-17)
(0.0304989 -0.0230257 -1.2864e-17)
(0.0305691 -0.0246014 3.26516e-17)
(0.0305896 -0.026215 2.35567e-17)
(0.0305561 -0.0278634 5.97075e-17)
(0.0310536 -0.0289549 4.77781e-17)
(0.0328679 0.0248101 4.71126e-18)
(0.0328287 0.0232164 -4.66648e-18)
(0.0327484 0.021663 -3.84038e-18)
(0.032632 0.0201519 -6.73052e-17)
(0.0324847 0.0186846 -1.55851e-17)
(0.0323114 0.0172618 4.37549e-18)
(0.0321173 0.015884 -4.96675e-17)
(0.0319076 0.0145511 -2.54396e-19)
(0.0316874 0.0132626 3.74369e-17)
(0.0314616 0.0120173 9.58923e-19)
(0.0312348 0.0108137 -4.34462e-17)
(0.0310117 0.00964994 2.81245e-17)
(0.0307965 0.00852373 3.51376e-17)
(0.0305935 0.00743238 -5.55947e-17)
(0.0304064 0.00637286 -3.1849e-17)
(0.0302387 0.00534178 2.13603e-17)
(0.0300937 0.00433546 1.83825e-17)
(0.0299741 0.00334989 -1.62276e-17)
(0.0298824 0.00238076 1.27629e-17)
(0.0298204 0.00142349 3.7654e-17)
(0.0297891 0.000473366 1.69971e-17)
(0.029789 -0.000474385 2.41262e-17)
(0.0298202 -0.00142454 4.33464e-18)
(0.029882 -0.00238186 3.36844e-17)
(0.0299733 -0.003351 -2.44692e-17)
(0.0300923 -0.0043365 2.50916e-17)
(0.0302368 -0.00534264 4.30052e-17)
(0.030404 -0.00637343 -6.32647e-18)
(0.0305906 -0.00743254 -1.46671e-17)
(0.0307933 -0.00852336 6.60715e-18)
(0.0310085 -0.00964902 -6.11199e-18)
(0.031232 -0.0108123 -1.90968e-17)
(0.0314594 -0.0120157 -1.75866e-17)
(0.0316859 -0.0132609 -1.07571e-17)
(0.0319067 -0.0145495 3.38343e-18)
(0.032117 -0.0158825 -1.85487e-17)
(0.0323117 -0.0172606 9.03004e-18)
(0.0324855 -0.0186837 -4.53715e-17)
(0.0326333 -0.0201515 -1.01022e-17)
(0.0327499 -0.021663 1.33583e-17)
(0.0328302 -0.0232169 1.66278e-17)
(0.0328693 -0.0248111 -1.43116e-17)
(0.0328623 -0.0264431 2.85828e-17)
(0.0328048 -0.0281101 2.01776e-17)
(0.0326923 -0.0298089 5.70236e-17)
(0.0331339 -0.0309239 4.44946e-17)
(0.0351162 0.0282525 5.97051e-17)
(0.0351975 0.0265643 4.29247e-18)
(0.0352315 0.0249111 -7.99206e-18)
(0.035223 0.0232951 -3.3219e-18)
(0.0351767 0.0217184 -6.45338e-17)
(0.0350974 0.0201824 -1.99613e-17)
(0.0349903 0.0186879 -2.68818e-18)
(0.0348601 0.0172355 -4.75636e-17)
(0.0347118 0.0158251 -1.05244e-18)
(0.0345504 0.0144562 3.08443e-17)
(0.0343804 0.0131277 -2.13259e-19)
(0.0342063 0.0118383 -4.2512e-17)
(0.0340324 0.0105861 2.41324e-17)
(0.0338627 0.00936896 2.94624e-17)
(0.0337011 0.00818435 -5.43325e-17)
(0.0335511 0.00702939 -3.24763e-17)
(0.0334159 0.00590091 1.39752e-17)
(0.0332985 0.00479545 8.99907e-18)
(0.0332014 0.00370925 -2.19898e-17)
(0.0331267 0.00263831 5.22754e-18)
(0.033076 0.00157836 2.74786e-17)
(0.0330504 0.000525052 7.25032e-18)
(0.0330504 -0.000526055 1.69584e-17)
(0.0330758 -0.00157939 -3.10323e-19)
(0.0331262 -0.00263937 3.12649e-17)
(0.0332005 -0.00371031 -2.01379e-17)
(0.0332972 -0.00479642 2.19299e-17)
(0.0334141 -0.00590171 3.94895e-17)
(0.0335488 -0.00702991 -7.35333e-18)
(0.0336984 -0.00818448 -1.45724e-17)
(0.0338597 -0.00936861 6.66781e-18)
(0.0340293 -0.0105852 -8.08205e-18)
(0.0342036 -0.011837 -2.13397e-17)
(0.0343783 -0.0131262 -1.85034e-17)
(0.0345489 -0.0144546 -1.26735e-17)
(0.0347109 -0.0158236 1.83888e-18)
(0.0348598 -0.0172341 -2.19855e-17)
(0.0349905 -0.0186868 6.84065e-19)
(0.0350982 -0.0201816 -4.51158e-17)
(0.0351778 -0.021718 -9.31427e-18)
(0.0352243 -0.0232951 9.55856e-18)
(0.0352329 -0.0249115 1.12594e-17)
(0.0351987 -0.0265652 -1.44231e-17)
(0.0351171 -0.0282537 2.43546e-17)
(0.0349837 -0.029974 1.73543e-17)
(0.0347943 -0.0317232 5.48526e-17)
(0.0351797 -0.0328636 4.20321e-17)
(0.0373356 0.0300343 5.69042e-17)
(0.0374896 0.0282899 4.1101e-18)
(0.0375949 0.0265775 -1.08059e-17)
(0.0376559 0.0248992 -2.58865e-18)
(0.0376772 0.0232572 -6.09398e-17)
(0.0376635 0.0216529 -2.33919e-17)
(0.0376196 0.0200872 -7.83247e-18)
(0.0375503 0.0185606 -4.53109e-17)
(0.0374602 0.0170733 -2.07057e-18)
(0.0373542 0.0156247 2.59768e-17)
(0.0372365 0.0142139 -6.20598e-19)
(0.0371115 0.0128396 -4.0054e-17)
(0.0369832 0.0115002 2.21048e-17)
(0.0368555 0.0101935 2.5628e-17)
(0.0367319 0.00891733 -5.13576e-17)
(0.0366158 0.00766885 -3.12261e-17)
(0.0365102 0.00644512 9.32997e-18)
(0.0364178 0.00524289 2.18358e-18)
(0.0363409 0.00405864 -2.49425e-17)
(0.0362815 0.00288861 1.05078e-18)
(0.0362412 0.00172884 2.05871e-17)
(0.0362207 0.000575266 1.33744e-18)
(0.0362206 -0.000576252 1.28005e-17)
(0.0362409 -0.00172985 -3.29634e-18)
(0.036281 -0.00288963 2.98626e-17)
(0.03634 -0.00405965 -1.47829e-17)
(0.0364164 -0.00524382 2.03966e-17)
(0.0365084 -0.00644588 3.7321e-17)
(0.0366136 -0.00766934 -6.97344e-18)
(0.0367293 -0.00891744 -1.35808e-17)
(0.0368526 -0.0101932 6.89477e-18)
(0.0369803 -0.0114994 -7.96307e-18)
(0.0371089 -0.0128384 -2.16226e-17)
(0.0372345 -0.0142125 -1.86888e-17)
(0.0373527 -0.0156232 -1.27739e-17)
(0.0374593 -0.0170718 1.77555e-18)
(0.0375499 -0.0185593 -2.35681e-17)
(0.0376198 -0.0200861 -5.19933e-18)
(0.0376641 -0.0216521 -4.41537e-17)
(0.0376782 -0.0232568 -7.48674e-18)
(0.0376571 -0.0248992 6.95528e-18)
(0.0375962 -0.0265778 7.42666e-18)
(0.0374908 -0.0282907 -1.31551e-17)
(0.0373364 -0.0300353 2.07342e-17)
(0.0371289 -0.0318088 1.57107e-17)
(0.0368641 -0.033608 5.30205e-17)
(0.0371928 -0.0347756 4.01117e-17)
(0.0392415 0.0336148 4.40836e-17)
(0.0395213 0.0317888 5.427e-17)
(0.0397466 0.0299887 3.64196e-18)
(0.0399215 0.0282175 -1.27319e-17)
(0.0400503 0.0264775 -2.10408e-18)
(0.0401374 0.0247708 -5.74339e-17)
(0.0401874 0.0230987 -2.61663e-17)
(0.0402048 0.0214624 -1.17705e-17)
(0.0401943 0.0198625 -4.27645e-17)
(0.0401603 0.0182989 -3.05393e-18)
(0.0401073 0.0167715 2.23e-17)
(0.0400396 0.0152794 -5.2855e-19)
(0.0399613 0.0138213 -3.64847e-17)
(0.0398763 0.0123959 2.17687e-17)
(0.0397882 0.0110012 2.29802e-17)
(0.0397004 0.00963487 -4.71461e-17)
(0.0396161 0.00829454 -2.87123e-17)
(0.0395381 0.00697737 6.61296e-18)
(0.0394689 0.00568032 -1.84344e-18)
(0.0394109 0.0044001 -2.5213e-17)
(0.0393658 0.00313317 -5.95477e-19)
(0.0393349 0.00187585 1.66063e-17)
(0.0393192 0.000624318 -1.38421e-18)
(0.0393192 -0.000625284 1.1327e-17)
(0.0393346 -0.00187683 -4.72304e-18)
(0.0393652 -0.00313416 2.89084e-17)
(0.03941 -0.00440106 -9.0623e-18)
(0.0394676 -0.00568121 2.02913e-17)
(0.0395363 -0.00697809 3.57361e-17)
(0.0396139 -0.008295 -5.97808e-18)
(0.0396979 -0.00963497 -1.17948e-17)
(0.0397855 -0.0110008 7.38998e-18)
(0.0398736 -0.0123952 -6.2061e-18)
(0.0399589 -0.0138202 -2.07905e-17)
(0.0400377 -0.015278 -1.86349e-17)
(0.0401059 -0.0167701 -1.19789e-17)
(0.0401594 -0.0182975 2.7242e-18)
(0.0401939 -0.0198612 -2.33467e-17)
(0.040205 -0.0214613 -9.25768e-18)
(0.040188 -0.0230979 -4.334e-17)
(0.0401383 -0.0247703 -5.25853e-18)
(0.0400514 -0.0264775 5.59303e-18)
(0.0399226 -0.0282178 4.69196e-18)
(0.0397476 -0.0299894 -1.17794e-17)
(0.039522 -0.0317897 1.81253e-17)
(0.0392418 -0.0336158 1.54049e-17)
(0.0389031 -0.0354647 5.15752e-17)
(0.0391745 -0.0366609 3.81332e-17)
(0.0413236 0.0353952 4.45357e-17)
(0.0416747 0.0335171 5.12815e-17)
(0.04197 0.0316619 2.36596e-18)
(0.0422132 0.0298326 -1.40851e-17)
(0.0424084 0.0280315 -2.04046e-18)
(0.04256 0.0262606 -5.42568e-17)
(0.0426721 0.0245216 -2.81008e-17)
(0.0427493 0.0228155 -1.47481e-17)
(0.042796 0.021143 -3.98755e-17)
(0.0428164 0.0195042 -3.81596e-18)
(0.042815 0.0178989 1.96149e-17)