/*--------------------------------*- C++ -*----------------------------------*\
  =========                 |
  \\      /  F ield         | OpenFOAM: The Open Source CFD Toolbox
   \\    /   O peration     | Website:  https://openfoam.org
    \\  /    A nd           | Version:  7
     \\/     M anipulation  |
\*---------------------------------------------------------------------------*/
FoamFile
{
    version     2.0;
    format      ascii;
    class       surfaceScalarField;
    location    "132000";
    object      phi;
}
// * * * * * * * * * * * * * * * * * * * * * * * * * * * * * * * * * * * * * //

dimensions      [0 3 -1 0 0 0 0];

internalField   nonuniform List<scalar> 
9444
(
5.53201e-24
8.16186e-24
1.7245e-23
-1.87154e-23
-2.34325e-25
9.93383e-24
-2.09438e-23
2.17691e-23
-5.27667e-24
-2.06526e-23
-2.12695e-23
-1.0539e-23
-1.68124e-23
4.54808e-24
2.5334e-24
-2.73569e-23
-2.95202e-23
1.09934e-23
-4.50203e-23
-1.64886e-23
1.9713e-23
-3.92435e-23
-1.64332e-23
3.13429e-23
-3.29162e-23
3.78838e-23
3.81281e-23
-2.67187e-23
-1.97545e-23
1.41632e-23
-3.16474e-23
-2.91294e-23
1.53821e-23
-5.2643e-24
-3.50629e-23
2.38933e-23
-1.86523e-23
-3.10189e-23
2.88095e-23
-2.67637e-23
-3.98869e-23
3.2788e-23
-1.78876e-23
-2.2782e-23
4.29167e-23
1.61876e-24
2.21244e-23
4.60093e-23
-2.72485e-23
-2.27262e-23
3.58132e-23
-6.24984e-23
-3.37345e-23
1.65238e-23
-7.39591e-23
1.25784e-23
2.73028e-23
-7.42453e-23
5.14513e-24
3.19686e-23
-8.69784e-23
-2.32288e-23
5.26123e-23
-9.04777e-23
7.97428e-23
-7.9025e-23
-9.17455e-24
-1.45556e-23
2.09754e-23
-4.22031e-23
-1.65017e-23
7.50168e-24
1.04126e-23
-6.29153e-24
2.58521e-24
8.59926e-24
-1.05841e-23
-3.37515e-23
-8.04757e-24
-1.75358e-23
2.46761e-24
-9.74025e-24
1.95411e-23
-6.4386e-24
3.08453e-23
-1.40301e-23
2.73216e-23
-1.37029e-23
1.73403e-23
-1.53484e-23
1.71509e-23
-2.33485e-23
3.98223e-23
-2.41764e-23
3.5433e-23
-1.65289e-23
3.68384e-23
4.97608e-24
2.95175e-23
-5.86726e-23
3.32259e-23
-2.0062e-23
5.63754e-23
1.49358e-23
6.16639e-23
4.1829e-23
7.64361e-23
2.48892e-23
7.31941e-23
7.35848e-23
-1.67441e-23
1.95671e-23
4.96739e-23
-1.34524e-24
3.15696e-23
-2.38764e-24
1.08625e-23
-1.20583e-23
1.32798e-23
8.13354e-24
3.47392e-23
-4.1068e-24
9.26277e-26
-5.29638e-24
4.40407e-24
5.38657e-24
-3.04815e-24
-2.03882e-23
-1.79321e-23
-3.82313e-23
-2.51107e-23
-2.42466e-23
1.65787e-24
2.16941e-23
3.68235e-23
-2.93169e-23
1.55428e-23
-3.53836e-23
3.81878e-23
-3.639e-23
4.18392e-23
5.81623e-24
5.93841e-23
-1.5816e-23
6.0097e-23
-2.09515e-23
6.61656e-23
3.48604e-23
7.53279e-23
3.57273e-23
8.32262e-23
3.56469e-23
8.30941e-23
7.45887e-23
-8.5265e-24
1.80157e-23
1.34546e-23
-4.04492e-24
2.38969e-23
7.26533e-24
6.26379e-23
3.25794e-23
5.39753e-23
-2.69609e-23
2.61791e-23
6.82562e-24
3.62258e-23
-9.53544e-24
1.95291e-23
-2.20733e-23
5.7474e-24
-3.47805e-23
-1.32919e-23
-1.44477e-23
2.08505e-23
2.64839e-23
3.17586e-23
-1.66196e-23
8.27136e-24
-8.39887e-24
1.25589e-24
-3.31215e-23
-1.44948e-23
-1.86223e-23
2.55218e-23
3.13721e-24
4.1284e-23
-5.35358e-24
6.74063e-23
-9.97544e-24
7.08621e-23
4.41329e-23
8.67078e-23
3.71804e-23
8.09106e-23
2.72332e-23
9.6098e-23
7.9431e-23
-2.11873e-24
3.16634e-23
-2.06558e-24
4.46925e-23
4.40956e-23
8.7607e-24
2.79596e-23
2.04274e-23
3.60774e-23
-5.73265e-24
4.70299e-23
-3.25945e-24
3.19048e-23
-1.32133e-23
2.51448e-23
-4.26e-23
2.83336e-23
1.47744e-23
4.7779e-23
4.63294e-24
2.69995e-23
4.54528e-24
3.06836e-23
-1.938e-23
2.48446e-23
-3.42784e-23
6.35605e-24
1.14595e-23
7.13257e-24
-7.17485e-24
3.28446e-23
4.16798e-23
5.81793e-23
-4.16345e-24
3.81273e-23
9.77525e-24
5.11086e-23
2.43626e-23
7.19918e-23
5.56298e-23
5.53993e-23
3.07349e-24
2.79266e-23
3.0125e-23
7.98359e-24
4.01394e-23
-4.76735e-24
1.88118e-23
3.89951e-23
4.34149e-24
3.5364e-23
1.7197e-23
1.48129e-23
-2.09132e-23
1.41276e-23
-2.38825e-23
2.61297e-23
-9.19818e-24
9.2113e-24
-1.45795e-23
2.52739e-23
-2.14027e-23
4.41872e-23
1.49569e-23
5.00136e-23
-6.31657e-24
4.08055e-23
-2.04557e-23
3.03404e-23
-3.43525e-23
2.08157e-23
5.15876e-23
4.89818e-23
2.62066e-23
6.31736e-23
2.57331e-23
6.03897e-23
9.97893e-24
4.49495e-23
2.63774e-23
3.17038e-23
1.76058e-24
2.02482e-23
2.77689e-23
3.88928e-23
3.23842e-24
5.27726e-23
5.04415e-23
2.70277e-23
5.08005e-23
-1.11196e-23
1.24214e-23
5.34706e-23
-2.92231e-24
4.7777e-23
1.54178e-23
5.91078e-23
-1.72878e-25
2.46849e-23
-4.36005e-23
-1.84135e-24
3.09072e-25
3.31323e-23
8.27129e-24
1.20549e-23
-1.70984e-23
-2.99486e-24
4.79252e-24
1.24477e-23
-4.45645e-24
3.6437e-23
-3.14996e-23
4.36316e-23
-3.07998e-24
6.12041e-23
6.84575e-23
1.00132e-22
3.03075e-23
9.14131e-23
9.94569e-25
7.86561e-23
4.53383e-24
4.00054e-23
6.09832e-24
3.95338e-23
1.34532e-23
2.68225e-23
3.72015e-23
2.45962e-23
4.82331e-24
1.98591e-23
3.28988e-23
3.37931e-23
6.10892e-23
-4.34228e-23
1.78777e-23
6.25487e-23
1.13695e-23
4.74627e-23
-1.43323e-23
1.262e-23
-1.09959e-23
1.81075e-23
-1.34888e-24
5.37962e-23
-2.01926e-23
5.39907e-23
-9.37299e-24
6.54326e-23
-7.92092e-24
5.32834e-23
1.33903e-23
5.16073e-23
1.15126e-23
2.52783e-23
-1.22961e-23
3.93497e-23
2.24242e-23
8.79701e-23
3.97024e-23
7.31722e-23
2.92909e-23
2.73647e-23
-4.23563e-23
2.51989e-23
5.79021e-24
6.73613e-23
-1.08209e-23
6.60395e-23
1.37263e-23
7.83631e-23
3.70385e-23
7.80325e-23
2.15427e-23
6.44755e-23
7.05276e-23
3.26586e-23
2.41112e-23
-6.23931e-23
3.49601e-24
1.92736e-23
-8.44561e-24
-1.51376e-23
-2.13509e-23
2.21368e-23
2.02684e-23
4.21231e-23
-7.83502e-24
1.22969e-23
-1.09609e-23
-1.896e-23
-2.23344e-23
3.49401e-24
4.06324e-24
2.36128e-23
-1.27843e-23
-6.5579e-24
1.26308e-23
-1.80806e-25
2.28213e-23
2.60387e-23
-2.16909e-24
4.38609e-23
1.45673e-24
5.93663e-23
2.68271e-23
6.53943e-23
-1.77323e-24
6.15726e-23
4.39547e-24
7.41836e-23
8.28061e-24
6.79949e-23
1.57103e-23
7.81364e-23
2.5373e-23
9.78241e-23
3.07275e-23
8.71722e-23
8.06917e-23
3.01429e-23
2.60168e-23
-3.28055e-23
-2.71116e-23
-4.65168e-24
-1.30713e-26
1.89709e-23
-1.19767e-23
2.44881e-23
-1.63098e-24
2.48552e-23
-5.02938e-23
-1.22048e-23
1.98314e-24
-8.97799e-24
-1.49109e-23
1.3123e-23
-2.07655e-23
2.59627e-23
-1.46504e-23
5.14722e-23
3.59087e-23
7.03605e-23
4.77699e-23
8.26211e-23
1.56732e-23
6.51438e-23
9.43965e-24
6.08252e-23
3.28579e-23
4.80629e-23
1.82077e-23
8.1903e-23
-1.14034e-24
1.00604e-22
1.11083e-23
7.19322e-23
3.05341e-23
6.71231e-23
1.33182e-23
6.08139e-23
3.47642e-23
8.1413e-23
1.11212e-22
8.30858e-24
3.67172e-23
-1.77812e-23
-5.69868e-24
5.21682e-24
-2.7842e-24
1.36665e-23
2.10295e-24
1.55248e-23
-2.00961e-23
3.79544e-23
-3.69708e-23
6.95712e-23
3.07748e-24
7.12713e-23
-5.35981e-24
2.54456e-23
-3.14502e-24
2.90529e-23
2.50074e-24
5.573e-23
5.08809e-23
8.5414e-23
4.28522e-23
8.54643e-23
1.77543e-23
8.9296e-23
-1.73393e-24
7.83349e-23
5.03059e-23
6.64206e-23
3.66107e-23
2.87182e-23
-2.95498e-23
4.94059e-23
1.0487e-23
4.52847e-23
2.75859e-23
6.18604e-23
2.42506e-23
7.71268e-23
5.19552e-23
8.14045e-23
8.15616e-23
-4.17491e-24
8.76922e-24
-3.90226e-23
6.54583e-24
5.6026e-23
-3.80347e-24
2.06894e-23
1.25496e-23
-8.02158e-24
-4.95771e-24
-1.37092e-23
-3.4849e-23
-2.95137e-23
-2.10852e-23
-1.65406e-23
1.1151e-24
2.91769e-24
4.21046e-24
2.66045e-23
2.64973e-23
3.93265e-23
4.60662e-23
6.36645e-23
4.68322e-23
7.68813e-23
1.1249e-23
5.37672e-23
-8.8027e-24
2.90824e-23
1.71805e-23
5.49236e-23
5.59867e-23
6.61424e-23
-3.53843e-23
2.6322e-23
1.76214e-23
6.80521e-23
3.53428e-23
1.16667e-22
3.12329e-23
9.27116e-23
5.02783e-23
9.37033e-23
7.90614e-23
3.02885e-23
4.19842e-23
-5.44143e-25
-2.6145e-24
1.65242e-23
-2.59168e-23
3.78365e-23
1.53996e-23
7.11503e-23
-2.55522e-23
2.44591e-23
-2.70877e-23
-2.83957e-23
-3.78295e-23
-8.53173e-24
1.07382e-23
1.61177e-23
1.50998e-23
2.13996e-23
2.65547e-23
3.12648e-23
4.73675e-23
4.52841e-23
2.77897e-23
2.39974e-23
-4.92236e-24
1.83698e-23
1.12581e-24
2.40363e-23
2.20376e-23
4.21326e-23
3.31123e-23
6.29002e-23
-6.23619e-24
7.50991e-23
4.96012e-23
8.429e-23
2.3319e-23
7.71845e-23
3.46368e-23
9.1787e-23
3.85667e-23
1.03247e-22
1.11739e-22
1.70363e-23
3.856e-23
-1.81527e-23
1.96976e-24
1.96459e-23
-1.67923e-23
-1.5459e-23
-1.65686e-23
2.76567e-24
-4.94216e-23
-1.50911e-23
-1.63811e-23
2.59362e-24
-1.60906e-23
-2.70154e-24
1.70856e-23
5.15674e-23
1.35992e-23
8.74217e-23
3.08363e-23
7.74152e-23
3.32325e-23
5.01587e-23
2.75279e-23
3.32199e-23
1.04872e-24
-2.15589e-23
1.07141e-23
2.34639e-23
3.93764e-23
8.22411e-23
3.01953e-23
7.43546e-23
1.01731e-23
3.5513e-23
4.41711e-23
6.55658e-23
3.42817e-23
8.692e-23
3.36944e-23
8.61254e-23
4.66098e-23
4.77047e-24
3.53955e-24
-3.66862e-23
-4.36861e-24
1.32622e-23
-1.31589e-23
5.44572e-23
-3.38457e-23
1.50511e-23
-3.7221e-23
-1.12384e-23
-2.77251e-23
-3.7269e-24
1.37835e-23
2.20408e-23
3.43301e-23
3.98443e-23
1.96486e-23
2.95753e-23
2.04141e-23
8.46841e-23
2.31752e-23
1.12136e-22
6.16287e-24
5.59873e-23
2.11594e-23
2.85083e-23
4.64522e-23
6.49346e-23
4.31403e-23
9.19161e-23
2.1448e-23
1.0159e-22
2.33794e-23
1.11184e-22
5.2316e-23
1.11652e-22
3.304e-23
1.1138e-22
6.76418e-24
1.0747e-23
-1.72004e-23
6.52499e-24
2.59618e-24
-2.96608e-23
-3.28374e-23
-3.8081e-23
1.68398e-23
-2.95131e-23
3.59229e-23
-1.01748e-23
8.54683e-23
2.21308e-23
1.08932e-22
1.81458e-23
5.23529e-23
3.76028e-23
7.72819e-23
3.25449e-23
9.15647e-23
7.71402e-24
6.63686e-23
-2.62352e-24
7.39766e-23
4.24901e-23
1.00377e-22
6.27792e-23
1.15555e-22
4.86925e-23
1.15292e-22
2.82576e-23
6.4944e-23
1.5028e-23
6.35541e-23
5.58579e-23
2.46003e-24
1.25247e-23
-6.03038e-24
-5.43314e-24
-1.23895e-24
3.62099e-24
-2.84873e-24
-3.5226e-23
8.2979e-24
5.12169e-24
5.04734e-23
9.34784e-24
8.17134e-23
9.61041e-26
1.18758e-22
3.45066e-23
7.91793e-23
5.38742e-23
1.25247e-22
3.54928e-23
1.15026e-22
2.06275e-23
1.44698e-22
7.91498e-24
1.49798e-22
4.60546e-23
1.24216e-22
6.45705e-23
1.0181e-22
2.81379e-23
2.8237e-23
2.91747e-24
2.09215e-23
-1.17124e-23
-1.37618e-23
7.50406e-24
6.4699e-24
9.23916e-24
-1.11335e-23
-1.37904e-23
3.65065e-24
4.18023e-23
2.21286e-23
5.88841e-23
-3.24859e-23
4.73138e-23
5.72528e-23
1.03475e-22
4.26765e-23
7.06716e-23
5.04386e-23
1.03729e-22
2.36786e-23
1.04842e-22
2.88321e-24
1.04176e-22
4.04573e-23
-2.76079e-24
5.3437e-24
-1.39857e-23
6.33439e-24
-4.46449e-24
-1.03204e-23
1.8907e-23
1.6854e-23
4.89954e-23
1.30388e-23
4.7643e-23
1.01842e-23
6.43727e-23
3.42594e-24
4.96624e-23
2.27011e-23
8.45153e-23
5.95655e-23
7.51209e-23
5.1571e-23
1.06402e-22
1.76648e-23
-2.85463e-24
1.1194e-23
-4.48986e-24
7.56395e-24
1.34949e-23
3.39827e-24
2.37561e-23
1.85652e-23
3.98143e-23
1.23277e-23
5.56294e-23
2.43531e-24
7.14909e-23
1.42659e-23
6.73807e-23
1.58698e-23
7.4576e-23
7.46072e-23
1.07608e-22
-5.34578e-24
1.42089e-23
-3.37116e-24
1.44922e-23
3.05451e-23
8.60934e-24
1.04005e-23
1.60718e-23
3.19848e-23
2.1659e-23
4.51808e-23
1.76738e-24
8.74673e-23
2.447e-23
1.34079e-22
2.59726e-23
1.56044e-22
-3.26566e-24
-4.4238e-24
-1.64226e-23
7.00807e-24
2.31492e-23
9.82458e-24
1.23779e-23
2.91446e-23
5.50235e-23
2.96497e-23
4.38965e-23
2.20282e-23
5.42511e-23
2.59327e-23
1.24506e-22
4.80241e-24
5.64354e-24
-1.14312e-23
5.57237e-24
1.53291e-23
1.7715e-23
4.34981e-24
1.84465e-23
5.52716e-23
3.65396e-23
5.26985e-23
4.01692e-23
4.44082e-23
6.53759e-24
1.70633e-23
-1.19551e-23
3.72077e-24
2.02929e-23
2.969e-23
2.28862e-23
1.44811e-23
7.12441e-23
4.35804e-23
5.7464e-23
3.12038e-23
-1.27564e-24
-4.11778e-23
-2.26115e-23
7.3073e-24
1.36646e-23
3.01358e-23
4.00788e-23
1.75078e-23
9.2771e-24
2.88674e-23
4.86381e-23
3.64768e-24
4.19045e-24
-2.26013e-24
1.7858e-23
7.18987e-24
1.61836e-23
4.61107e-23
2.51909e-23
4.256e-23
1.32538e-23
3.10382e-23
4.22432e-24
2.0619e-23
3.79369e-23
1.82115e-23
1.78818e-23
2.90868e-23
1.35397e-23
-2.29375e-24
-3.91179e-25
1.45692e-23
6.1973e-24
2.2104e-23
1.47989e-23
2.00116e-23
-2.73908e-24
-1.20171e-23
1.84724e-23
1.79518e-23
1.12963e-23
2.09212e-23
1.00043e-24
-1.67289e-23
2.17195e-23
2.45026e-23
6.62691e-24
2.28246e-23
7.00604e-24
-1.74811e-23
1.91465e-23
3.04238e-23
9.94305e-24
3.17105e-23
-8.18362e-24
-1.14404e-23
1.92548e-23
4.40136e-23
4.82256e-23
3.98348e-23
4.77799e-23
-2.80638e-24
2.25548e-23
-2.9966e-23
4.45751e-23
2.79668e-23
4.2362e-23
-1.74587e-23
3.14787e-23
2.22376e-25
3.94341e-23
2.67486e-23
4.20497e-23
-2.2649e-23
3.65169e-23
1.65326e-23
3.59557e-23
2.30834e-23
5.48592e-23
-3.17786e-23
3.05347e-23
1.43412e-23
1.97986e-23
2.54165e-23
4.21626e-23
-4.03818e-23
3.01708e-23
1.10631e-23
4.39859e-23
1.95976e-23
4.28874e-23
-5.13287e-23
3.34622e-23
4.33742e-23
3.14155e-23
2.14075e-23
-3.84795e-24
-5.12683e-23
2.49359e-23
5.01808e-23
7.91939e-24
2.81775e-23
1.70466e-23
-3.74315e-23
2.07653e-23
6.58251e-23
7.00219e-23
2.60343e-23
3.76188e-23
-3.44176e-23
1.88112e-23
3.66143e-23
6.30372e-25
2.45029e-23
-3.83253e-23
1.63755e-23
-3.19519e-24
-3.73469e-23
-1.99653e-23
3.40238e-23
-3.11173e-24
6.78767e-24
9.82655e-24
1.52224e-23
6.41006e-24
1.28236e-23
2.33031e-24
1.46807e-23
-9.45204e-24
-2.12942e-23
-3.87279e-23
-1.47918e-23
-3.99279e-23
-3.06796e-24
-4.70411e-23
9.81622e-24
-4.17433e-23
-1.19437e-24
-1.55426e-23
2.46882e-23
9.83254e-25
-1.26886e-23
-3.05732e-23
-9.24051e-24
-1.51488e-23
2.03088e-23
-3.12267e-24
9.76943e-24
-6.01509e-24
6.31687e-24
-1.21222e-24
-2.79124e-24
-4.28956e-25
1.69691e-23
7.34637e-24
5.83646e-24
7.69819e-24
-5.53644e-24
9.21345e-24
5.14379e-24
7.55544e-24
-9.05198e-24
-1.84821e-24
-2.23527e-23
-4.21764e-24
3.83046e-23
1.51361e-24
3.29451e-24
-8.53762e-24
-5.86931e-24
-2.37115e-23
-5.05223e-23
-3.31765e-23
-3.01185e-23
-3.11543e-23
-1.86124e-23
-2.75502e-23
-1.01646e-23
-2.81441e-23
2.07937e-23
-3.79826e-23
-6.44245e-23
-4.97971e-23
-3.92496e-23
-3.7699e-23
-9.32257e-23
-4.28437e-23
-7.71665e-23
-3.3621e-23
-3.43905e-23
-3.10249e-23
-2.2496e-23
-2.10086e-23
2.11992e-24
-2.61199e-23
2.5087e-24
-2.9857e-23
2.91747e-24
-2.60914e-23
-2.52101e-23
9.12477e-24
-2.65068e-23
-1.502e-23
3.85468e-23
2.56795e-23
-1.77211e-24
-7.35857e-24
9.96406e-24
-2.61612e-24
-8.41313e-24
-3.63451e-23
6.99611e-24
-1.71784e-23
-1.61937e-23
-1.59612e-23
-2.38544e-23
-2.15907e-23
6.69781e-24
-3.51051e-24
4.7236e-23
3.1856e-23
3.31819e-23
2.18619e-24
-1.71664e-23
-1.19187e-23
1.77575e-23
-5.03198e-24
1.04329e-23
-1.05097e-23
1.00517e-23
-2.24384e-24
1.89918e-23
-1.11698e-23
2.25984e-23
2.10568e-24
1.46796e-23
1.21987e-23
2.805e-23
-6.98947e-24
7.37608e-24
-6.67371e-24
-1.64293e-23
-1.00368e-23
-8.49734e-24
-4.74568e-24
-1.70544e-23
-2.11663e-24
-2.8824e-23
-5.82561e-25
-3.39125e-23
-4.66017e-24
-2.301e-23
-1.44862e-23
-5.31476e-23
-2.3947e-23
-2.66664e-23
-1.82889e-23
-3.07515e-23
-2.06222e-23
-3.42806e-23
-2.28433e-23
-3.68915e-23
-2.07015e-23
-5.08316e-23
-2.14786e-23
1.41176e-23
-2.41207e-23
-3.17191e-23
-3.24258e-23
-3.66559e-23
-3.36031e-23
-1.45346e-23
-2.79872e-23
-2.16392e-23
-2.69814e-23
-4.32362e-23
-3.20263e-23
-3.61498e-23
-2.71828e-23
-2.99232e-23
-2.28067e-23
4.41232e-24
-1.6599e-23
-1.26584e-23
3.41881e-23
-4.33074e-23
-1.7492e-23
1.92388e-23
-2.15574e-23
2.29279e-23
-6.39043e-24
-1.614e-23
-2.11257e-23
3.05316e-24
-2.23794e-23
8.10162e-24
-1.30007e-23
-3.13138e-24
7.44501e-25
-7.2921e-24
-1.7103e-23
4.96411e-23
4.66433e-24
1.60925e-23
-1.53589e-24
3.03435e-23
-2.13122e-25
1.66441e-23
5.59186e-24
-3.91061e-24
1.92165e-23
5.01679e-23
9.56833e-24
-2.55252e-23
6.63359e-24
5.76053e-23
2.35263e-23
2.69532e-23
-1.02253e-23
1.25231e-23
-1.46219e-23
4.2082e-24
3.37495e-24
7.56782e-24
-8.65948e-24
8.29001e-25
-1.39428e-23
-1.36778e-24
-1.17457e-23
-4.94232e-24
-1.74924e-23
-2.77736e-23
-2.56325e-23
-6.65435e-23
-2.30511e-23
-7.78898e-23
-1.59185e-23
-4.0678e-23
-1.92293e-23
-3.06727e-23
-2.66071e-23
-2.31052e-23
-2.32405e-23
-2.2621e-23
-2.57722e-23
-2.47494e-23
-2.47023e-23
-5.53922e-23
-3.01519e-23
-5.55198e-23
-2.99426e-23
-4.73073e-23
-3.47525e-23
-3.81923e-23
-3.78786e-23
-2.12875e-23
-4.29825e-23
-4.01826e-23
-4.15752e-23
-3.23293e-23
-3.96812e-23
-2.63702e-23
-2.53188e-23
-1.0559e-23
-1.99097e-23
4.02628e-23
-2.29804e-23
-2.19464e-23
4.66125e-23
-1.57738e-24
-2.42126e-23
3.29599e-23
-9.44914e-24
2.3905e-23
2.61134e-24
-1.30501e-23
-4.15105e-23
4.84848e-24
-3.00863e-23
2.49733e-23
-2.70419e-23
-1.84423e-23
-2.23963e-23
3.05736e-23
4.31591e-24
2.10074e-23
1.96398e-23
1.27654e-23
8.45717e-24
2.14146e-23
-7.08154e-24
5.21517e-23
-1.84707e-23
-2.92238e-23
-2.01835e-23
3.57428e-23
1.15528e-23
1.82525e-23
2.94479e-23
9.37055e-24
3.46696e-23
1.28024e-23
3.15007e-23
3.73586e-23
8.37831e-24
-2.03162e-23
-1.90372e-23
-5.89223e-24
-2.04628e-23
-6.07874e-24
-1.88145e-23
-3.2597e-23
-3.33497e-23
-4.24288e-23
-2.42676e-23
-6.10326e-23
-2.54947e-23
-5.83893e-23
-4.03409e-23
-8.3472e-23
-4.72969e-23
-7.24122e-23
-3.38568e-23
-3.35148e-23
-2.60682e-23
-6.25996e-23
-3.50846e-23
-5.35159e-23
-3.48462e-23
-4.68045e-23
-3.30776e-23
-7.13197e-23
-2.90489e-23
-1.03306e-22
-3.58601e-23
-9.62916e-23
-3.19397e-23
-7.77507e-23
-2.53055e-23
-5.43456e-23
-1.71769e-23
-2.6182e-23
-1.68513e-23
3.49807e-23
-3.62947e-24
2.72957e-23
-8.64348e-24
2.31107e-23
-9.65985e-24
-1.73339e-23
-1.21536e-23
-6.38616e-24
3.93893e-23
-2.46799e-23
-1.42152e-23
5.1973e-23
-2.76622e-23
3.8982e-24
-1.46483e-23
1.37644e-23
2.1172e-23
-6.73177e-24
4.26338e-25
2.84642e-23
1.60039e-23
1.93535e-23
-6.49495e-24
2.75606e-23
4.53366e-24
7.74195e-25
-2.54138e-23
1.39223e-23
-5.348e-24
-3.30871e-24
1.27879e-23
5.50505e-23
5.3369e-25
1.24323e-23
1.76549e-23
5.63462e-23
4.41264e-23
5.03243e-23
3.05838e-23
-6.50767e-24
2.27342e-23
-2.49991e-23
-1.06451e-23
-1.71323e-23
-7.44995e-24
-1.97886e-23
-1.70893e-23
-2.64814e-23
-1.61556e-23
-2.23108e-23
-2.77221e-23
-2.75734e-23
-3.76534e-23
-5.6239e-23
-4.55396e-23
-8.41581e-23
-5.24334e-23
-9.9079e-23
-3.73311e-23
-4.42172e-23
-3.36616e-23
-7.931e-23
-4.49191e-23
-6.82011e-23
-4.60256e-23
-7.08084e-23
-4.28134e-23
-5.32497e-23
-4.09718e-23
-5.39806e-23
-3.80544e-23
-8.10047e-23
-3.71207e-23
-7.68403e-23
-3.47515e-23
-3.93304e-23
-3.03989e-23
-3.76265e-23
-2.54635e-23
4.45354e-24
-1.88047e-23
6.57638e-24
-1.90725e-23
-8.50219e-24
-2.30971e-23
1.39593e-23
-2.3603e-23
3.01597e-23
-1.95242e-23
9.65008e-24
-2.03612e-23
-2.41222e-23
3.49525e-23
1.37306e-23
3.56158e-25
5.6003e-23
2.25631e-23
4.59539e-23
-4.49727e-24
6.16978e-24
-1.29604e-23
1.06465e-23
1.1983e-24
1.55223e-23
2.09273e-23
4.56175e-23
3.53634e-23
-7.92235e-24
-7.21702e-24
2.76869e-23
5.43538e-24
5.21264e-23
4.04329e-23
-2.98653e-23
2.64469e-23
6.87539e-23
2.67501e-23
6.9482e-23
1.71969e-23
3.51706e-23
4.03444e-24
4.26917e-23
1.50958e-23
-5.31217e-23
-4.13238e-24
-5.30913e-23
-1.95947e-23
-3.76003e-23
-3.14368e-23
-3.89551e-23
-1.60825e-23
-4.54784e-23
-6.56306e-24
-6.78384e-23
-9.85839e-24
-3.81482e-23
-2.91789e-23
-4.19414e-23
-4.76847e-23
-5.31458e-23
-5.06139e-23
-6.86232e-23
-6.75773e-23
-8.57561e-23
-6.55425e-23
-8.19799e-23
-5.87745e-23
-8.30021e-23
-5.49227e-23
-6.95104e-23
-5.61224e-23
-3.18435e-23
-4.58889e-23
-7.79895e-23
-4.41076e-23
-8.4132e-23
-3.59539e-23
-5.48476e-23
-2.64121e-23
-2.4574e-23
-2.31195e-23
-2.71843e-23
-1.55724e-23
-2.34395e-23
-1.93932e-23
-2.73913e-23
-1.74441e-23
8.19404e-25
-1.12089e-23
1.2763e-23
-8.05761e-24
4.9979e-23
-1.25054e-23
7.86689e-24
-1.63626e-23
-1.17177e-23
3.15964e-23
3.82746e-24
-1.02556e-23
4.93349e-23
4.74618e-24
4.52447e-23
-6.83319e-24
2.72816e-23
-7.27737e-26
1.6952e-23
5.33703e-24
2.6913e-23
4.71831e-24
8.76598e-24
-9.08033e-24
-2.0123e-24
6.36448e-24
5.33157e-23
-2.34097e-23
4.87903e-23
-1.88141e-23
-2.81202e-23
-1.81459e-23
5.18367e-23
4.79735e-24
4.4086e-23
2.25902e-23
3.89622e-23
9.52765e-25
1.2909e-23
-2.7087e-23
-7.40938e-23
-3.3225e-23
-8.03607e-23
-1.25467e-23
-1.88784e-23
2.0145e-23
-2.27993e-23
-1.20065e-23
-5.00373e-23
-2.13668e-23
-1.10898e-22
-3.03213e-23
-1.08519e-22
-3.49543e-23
-6.99584e-23
-4.64135e-23
-1.25381e-22
-4.5717e-23
-7.40816e-23
-4.18372e-23
-6.15123e-23
-5.154e-23
-8.38656e-23
-4.39604e-23
-9.93178e-23
-3.45608e-23
-3.90869e-23
-2.94022e-23
-1.31988e-23
-3.27032e-23
-2.12407e-23
-3.69865e-23
-5.89574e-23
-3.34913e-23
-1.11146e-23
-3.32775e-23
-3.97606e-23
-3.69251e-23
-2.88752e-23
-2.57828e-23
-1.7529e-23
-2.59306e-23
-6.17736e-24
-2.57001e-23
1.21847e-23
-2.26664e-23
-4.13839e-24
-2.24757e-23
1.6473e-23
-2.79461e-23
3.49863e-23
-2.86853e-23
-3.58037e-23
1.94161e-23
-5.92201e-24
-2.10165e-23
3.23759e-23
-1.31279e-23
5.47626e-23
-2.24854e-23
4.25263e-23
7.76881e-24
1.14844e-23
2.85657e-23
1.48701e-23
7.51323e-25
2.38065e-23
-1.69243e-23
-3.74682e-23
3.41814e-24
4.75755e-23
1.93129e-23
2.57603e-23
-1.56032e-24
1.64417e-23
-1.28545e-23
3.79071e-23
-1.81449e-23
1.94102e-23
-2.72983e-23
-1.19162e-23
-3.19248e-23
-1.29828e-24
-4.85581e-23
-1.34676e-23
-3.28226e-23
-4.18504e-23
-5.02811e-23
-7.0273e-23
-7.12758e-23
-5.40805e-23
-3.6762e-23
-5.38725e-23
-3.19491e-23
-1.41138e-22
-4.06924e-23
-1.38311e-22
-4.57178e-23
-1.0478e-22
-3.93233e-23
-1.07487e-22
-4.54812e-23
-1.0754e-22
-4.88224e-23
-5.32646e-23
-3.04573e-23
-6.76127e-23
-3.07845e-23
-7.076e-23
-2.89501e-23
-6.99758e-23
-2.8907e-23
-3.52385e-23
-2.3486e-23
-3.64887e-23
-2.91641e-23
-3.44283e-23
-2.82053e-23
-3.53534e-23
-3.11632e-23
-6.92504e-24
-2.40459e-23
-5.19054e-24
-2.11433e-23
-5.60889e-24
-2.11646e-23
-2.04172e-24
-1.9012e-23
-7.11931e-24
-1.09689e-23
-5.35613e-23
-8.37025e-24
-1.97646e-23
-1.23966e-23
-3.59358e-23
-1.2119e-23
-1.49802e-23
1.10035e-23
-6.24407e-23
-2.48225e-23
2.39003e-23
-1.75081e-23
7.24575e-23
4.96176e-25
6.24793e-23
1.27212e-23
-9.76955e-25
-3.27867e-23
-6.7573e-24
2.71389e-24
4.0702e-23
5.74181e-24
-2.39186e-23
3.35004e-24
1.392e-23
-1.81074e-23
8.89846e-24
3.28025e-25
1.28826e-23
-1.82072e-23
1.1326e-23
-2.69242e-23
1.56312e-23
-3.53243e-23
-4.89445e-23
-3.38043e-23
6.68365e-24
-4.22207e-23
-4.20431e-23
-5.63925e-23
-9.28071e-23
-7.27778e-23
-4.00771e-23
-6.14642e-23
-5.09726e-23
-7.54706e-23
-8.64937e-23
-8.93022e-23
-1.39107e-22
-8.07038e-23
-1.23333e-22
-6.12948e-23
-1.42463e-22
-5.083e-23
-1.16453e-22
-3.2923e-23
-5.35059e-23
-2.24213e-23
-6.39365e-23
-2.22957e-23
-7.23571e-23
-2.67635e-23
-4.526e-23
-1.90491e-23
-5.25422e-23
-2.05525e-23
-4.66825e-23
-1.87233e-23
-5.65992e-23
-1.29201e-23
-2.46839e-23
-1.25104e-23
-2.03019e-24
-6.26144e-24
-9.66869e-24
-8.10006e-24
1.9462e-23
-5.29894e-24
2.1472e-23
-5.01735e-24
1.13593e-23
7.05957e-25
3.36328e-24
6.26634e-25
-3.61754e-23
-7.56581e-24
-3.06633e-23
-1.40095e-23
-3.7063e-23
-2.02204e-23
-2.0526e-23
3.53383e-23
-5.53388e-24
-1.78856e-23
3.10863e-23
-3.59792e-25
8.00302e-23
1.99238e-23
3.2442e-23
-9.92178e-24
1.96242e-23
-3.09192e-23
-6.0646e-24
-3.83323e-23
3.102e-23
-3.30014e-23
-3.41897e-23
-5.26956e-23
3.51193e-23
-1.58571e-23
-1.96998e-23
-1.03895e-23
-1.80151e-23
-2.48309e-23
9.59624e-25
-4.84036e-23
4.13342e-24
-5.25254e-23
-4.57473e-23
-5.76935e-23
-4.34412e-23
-4.29356e-23
-5.68783e-23
-5.57244e-23
-8.27863e-23
-5.71103e-23
-6.70427e-23
-7.32216e-23
-7.92186e-23
-7.8527e-23
-6.62053e-23
-6.10956e-23
-8.2241e-23
-5.96944e-23
-8.23778e-23
-5.81403e-23
-9.87622e-23
-3.94061e-23
-6.72493e-23
-2.64538e-23
-6.86403e-23
-2.49989e-23
-5.93462e-23
-3.16957e-23
-5.65292e-23
-3.32874e-23
-4.32548e-23
-2.95369e-23
-4.19238e-23
-2.1917e-23
-3.42718e-23
-2.22854e-23
-2.96624e-23
-1.97215e-23
-3.22709e-23
-6.20429e-24
-1.74558e-23
-9.57369e-24
-8.42409e-24
-9.10235e-24
8.24056e-24
-1.19266e-23
2.20171e-23
-1.94365e-23
3.43838e-23
-1.81904e-23
-4.51622e-23
-2.43906e-23
-8.35096e-23
-2.51901e-23
-8.91046e-23
-4.03135e-23
-8.87014e-23
-2.91312e-23
-1.79695e-23
3.98017e-23
5.00966e-24
-4.29978e-23
3.90775e-23
-5.39401e-24
5.13665e-23
1.65393e-24
1.85416e-23
-5.37438e-23
1.8706e-23
-3.5071e-23
-1.03171e-24
-2.57485e-23
-4.9427e-24
-2.93044e-23
1.28533e-24
-5.56738e-23
3.10183e-23
-4.42096e-23
-3.77187e-23
-6.48789e-23
-4.95514e-23
-7.83943e-23
-3.06998e-23
-7.44383e-23
-1.34516e-23
-7.55872e-23
-1.42884e-23
-6.00029e-23
-7.48606e-23
-4.9202e-23
-3.07352e-23
-3.36045e-23
-1.17939e-22
-4.22153e-23
-8.11387e-23
-4.56331e-23
-5.50648e-23
-3.92117e-23
-5.21611e-23
-5.40119e-23
-5.76264e-23
-5.19186e-23
-3.21575e-23
-4.66303e-23
-7.35475e-23
-4.90972e-23
-6.15433e-23
-4.81443e-23
-1.17621e-22
-4.74617e-23
-7.66392e-23
-3.32496e-23
-4.58611e-23
-2.44024e-23
-3.68142e-23
-3.25002e-23
-3.07711e-23
-2.5183e-23
-2.72807e-23
-2.34719e-23
-1.09242e-24
-1.30315e-23
-2.91344e-23
-1.68317e-23
-1.95593e-23
-1.61541e-23
-4.16444e-23
-1.30574e-23
-3.50233e-23
-1.86857e-23
9.9576e-25
-1.38219e-23
-3.24176e-23
-1.79345e-23
-8.90158e-23
-2.21145e-23
-1.26932e-22
-8.2293e-25
-5.42344e-23
1.60052e-23
3.42657e-23
1.43794e-23
5.10524e-24
3.16482e-23
8.30355e-24
-3.29271e-23
3.59072e-23
-1.37971e-23
1.35865e-23
-4.9287e-23
3.92719e-23
-1.33381e-23
2.53397e-23
-1.14272e-23
7.70869e-24
-1.85367e-23
-2.37841e-23
-3.58639e-24
-2.16645e-24
-1.25058e-23
4.97543e-24
-5.39407e-23
-5.15961e-23
-7.94077e-23
-5.34932e-23
-7.39472e-23
-4.57554e-23
-7.74928e-23
7.32086e-24
-5.82328e-23
8.382e-25
-5.75844e-23
-2.02654e-23
-3.51526e-23
-3.74584e-23
-3.05162e-23
-1.16609e-22
-3.51028e-23
-7.99802e-23
-2.0767e-23
-8.10958e-23
-2.76994e-23
-3.99579e-23
-3.32254e-23
-4.73969e-23
-4.08379e-23
-5.08508e-23
-3.85276e-23
-5.74145e-23
-4.62514e-23
-6.67298e-23
-4.31602e-23
-7.3403e-23
-4.5462e-23
-5.93067e-23
-4.9048e-23
-5.034e-23
-3.69919e-23
-2.22323e-23
-2.73869e-23
-2.28772e-23
-2.75065e-23
-5.98452e-24
-3.6736e-23
-2.85319e-23
-3.64686e-23
-1.5565e-23
-2.9416e-23
-8.52967e-24
-2.84558e-23
-6.83939e-23
-2.93662e-23
-2.45286e-23
-2.26228e-23
-2.28689e-23
-2.61563e-23
-5.11014e-24
-2.2789e-23
6.27346e-23
-1.484e-23
2.12251e-23
-2.04665e-23
-4.1394e-23
-2.47509e-23
-6.56007e-23
-1.90575e-23
-9.37682e-23
-2.10257e-23
-2.2022e-23
2.30972e-23
7.48534e-24
-2.39306e-23
1.4906e-23
-8.08319e-24
3.23707e-23
-3.74226e-24
4.48637e-23
-2.8144e-23
3.63939e-23
-5.70369e-24
2.07274e-23
-1.52814e-23
-3.19388e-23
-2.55614e-23
-5.87622e-23
-5.62843e-23
-1.56448e-23
-2.81106e-23
-3.63717e-23
-5.11127e-23
-5.9317e-23
-5.36359e-23
-2.46513e-23
-4.28539e-23
1.04873e-23
-2.5231e-23
5.43207e-23
-2.76492e-23
-1.81354e-24
-4.79269e-23
-4.67601e-23
-6.49905e-23
-7.94267e-23
-7.56773e-23
-9.69174e-23
-7.41246e-23
-1.20458e-22
-7.58118e-23
-7.93253e-23
-7.56282e-23
-5.50929e-23
-6.21008e-23
-7.46351e-23
-6.51934e-23
-7.06784e-23
-4.76692e-23
-8.03146e-23
-4.02049e-23
-9.07984e-23
-3.62102e-23
-3.05598e-23
-3.36223e-23
-3.00676e-23
-4.62075e-23
-5.70899e-23
-3.92572e-23
-4.32844e-23
-4.14315e-23
-1.24193e-23
-3.45013e-23
-2.67599e-23
-2.80953e-23
-7.86989e-24
-1.90178e-23
-2.18893e-23
-2.30194e-23
-2.75515e-23
-2.61645e-23
-3.41988e-23
-2.20985e-23
-7.44821e-24
-2.14321e-23
-9.57737e-24
-2.1385e-23
-6.07649e-24
-2.29603e-23
-1.51715e-24
-2.65869e-23
-3.59756e-23
-2.9216e-23
-7.16276e-23
-3.03229e-23
-7.24705e-23
-2.18207e-23
-4.81721e-23
-1.41736e-23
-1.16934e-23
1.72654e-23
1.42492e-23
-2.94083e-23
1.35143e-23
-9.16943e-24
9.32795e-24
-3.43969e-24
5.77018e-23
-9.02692e-24
2.74955e-23
-5.40134e-23
1.17398e-23
-8.99339e-23
-7.65153e-23
-1.21992e-22
-4.10146e-23
-8.62971e-23
-3.94368e-23
-4.47494e-23
-3.48641e-23
-5.03166e-23
-4.73647e-23
-3.34281e-23
-6.97148e-25
-2.48414e-23
5.66396e-24
-3.22685e-23
6.78425e-24
-4.07127e-23
-3.4542e-23
-7.91429e-23
-8.06719e-23
-9.48566e-23
-7.15717e-23
-9.87963e-23
-1.20458e-22
-9.85089e-23
-1.29351e-22
-7.445e-23
-4.6608e-23
-4.3388e-23
-7.45149e-23
-3.45769e-23
-2.65093e-23
-3.13339e-23
-3.87219e-23
-3.97066e-23
-8.28285e-23
-4.3734e-23
-5.69267e-23
-3.24742e-23
-8.04195e-23
-2.01323e-23
1.2158e-23
-9.82111e-24
-6.14003e-23
-2.11242e-23
-1.22077e-23
-1.64017e-23
-1.44543e-24
-3.16346e-23
-3.03936e-24
-3.33601e-23
-1.62256e-23
-4.63076e-23
-3.166e-23
-4.96216e-23
-2.39967e-23
-3.48016e-23
-2.37327e-23
-2.61653e-23
-2.47523e-23
-2.48064e-23
-3.07284e-23
-2.1412e-23
-3.04516e-23
-1.79596e-23
-2.71335e-23
-2.26893e-23
-2.78719e-23
-2.47579e-23
-1.4727e-24
-2.1904e-23
-4.71882e-24
-2.61006e-23
-4.04617e-23
-3.35258e-23
-3.78048e-23
1.5006e-24
-1.10187e-23
-4.78171e-23
7.65685e-24
-2.0383e-23
2.11844e-24
-3.33012e-24
1.68695e-23
-2.7562e-23
5.51428e-24
-4.45394e-23
-1.71681e-23
-7.04555e-23
-5.64775e-23
-7.99395e-23
-8.17405e-25
-8.00475e-23
-4.69232e-23
-7.65694e-23
-1.90026e-23
-7.41502e-23
-3.58266e-23
-8.66913e-23
-2.23303e-23
-5.2192e-23
-1.39946e-23
-5.5186e-23
-5.76661e-23
-7.19506e-23
-6.74454e-23
-7.588e-23
-8.82687e-23
-7.75919e-23
-6.84581e-23
-5.79946e-23
-5.96413e-23
-4.6221e-23
-3.6679e-23
-3.95261e-23
-3.77314e-23
-3.9377e-23
-3.7749e-23
-3.06034e-23
-4.46081e-23
-2.45448e-23
-6.19103e-23
-2.06713e-23
-5.4416e-23
-1.5071e-23
-3.18531e-23
-2.09371e-23
-4.0934e-23
-1.40291e-23
-4.45894e-23
-1.30474e-23
-5.42269e-23
-1.35952e-23
-9.34195e-23
-1.82989e-23
-3.53535e-23
-1.14108e-23
-6.47866e-23
-1.16388e-23
-2.37465e-23
-7.28104e-24
2.9886e-23
-2.0733e-23
2.19893e-23
-2.71543e-23
2.26236e-23
-3.08944e-23
1.85971e-23
-2.89364e-23
1.61793e-23
-2.60858e-23
-5.65112e-23
-3.22086e-23
-5.00411e-23
-2.86553e-23
-3.97172e-23
-3.0978e-23
-5.84941e-23
-3.8247e-23
-7.93796e-23
-3.46914e-23
-1.08601e-22
-3.42737e-23
-9.97521e-23
-3.03655e-23
-2.59255e-23
-4.36394e-24
-5.93922e-23
-1.71148e-23
1.03796e-23
-3.85549e-23
-2.07554e-23
-4.14902e-23
-8.37402e-24
-4.25944e-23
-8.30005e-24
-7.21766e-23
-2.01825e-23
-6.75345e-23
-4.60805e-23
-4.8599e-23
7.47873e-25
-6.59642e-24
-3.41778e-23
-4.58412e-23
-4.98725e-23
-6.20249e-23
6.0204e-25
-7.63996e-23
-3.67633e-23
-9.41488e-23
-3.63253e-23
-6.84763e-23
-4.9397e-23
-6.28742e-23
-7.60699e-23
-4.83996e-23
-4.04902e-23
-5.19199e-23
-4.39713e-23
-5.10671e-23
-4.18291e-23
-4.24022e-23
-3.72106e-23
-4.56935e-23
-4.06543e-23
-3.78061e-23
-2.70144e-23
-4.39193e-23
-4.47783e-23
-4.782e-23
-6.67413e-23
-4.0687e-23
-5.28562e-23
-2.63305e-23
-2.8871e-23
-9.03481e-24
-3.89319e-23
-8.86932e-24
-4.30844e-23
-1.24592e-23
-4.48443e-23
-1.29653e-23
-4.60388e-23
-1.19809e-23
-4.83046e-23
-1.42561e-23
-4.67914e-23
-1.7527e-23
-1.32569e-22
-1.30649e-23
-2.79553e-23
7.36861e-25
-5.01312e-23
-4.15592e-24
1.11247e-23
-1.18008e-24
-1.02243e-23
-8.82664e-24
-2.18136e-23
-1.51329e-23
-4.43059e-23
-8.89375e-24
-6.06713e-23
-7.79437e-24
-7.15924e-23
-1.60111e-23
5.59652e-24
-2.12468e-23
-8.48126e-23
-2.89794e-23
-4.20883e-23
-3.01234e-23
-3.89584e-23
-2.75177e-23
-2.14515e-23
6.66479e-24
-1.26278e-23
2.28252e-23
4.49661e-24
3.60266e-23
-2.32017e-23