/*--------------------------------*- C++ -*----------------------------------*\
  =========                 |
  \\      /  F ield         | OpenFOAM: The Open Source CFD Toolbox
   \\    /   O peration     | Website:  https://openfoam.org
    \\  /    A nd           | Version:  7
     \\/     M anipulation  |
\*---------------------------------------------------------------------------*/
FoamFile
{
    version     2.0;
    format      ascii;
    class       volVectorField;
    location    "8000";
    object      vorticity;
}
// * * * * * * * * * * * * * * * * * * * * * * * * * * * * * * * * * * * * * //

dimensions      [0 0 -1 0 0 0 0];

internalField   nonuniform List<vector> 
4850
(
(0.0047802 0.00324209 -4.63416e-19)
(0.00412073 0.00378979 2.66677e-18)
(0.0048749 0.00335178 -3.21589e-18)
(0.00422729 0.00388651 8.03181e-19)
(0.00427695 0.0037213 6.15535e-19)
(0.00497097 0.00346212 2.11206e-18)
(0.00433485 0.00398422 1.30495e-18)
(0.00438707 0.00381507 -5.25456e-19)
(0.00443532 0.0036477 -2.42277e-19)
(0.00448141 0.0034801 2.76689e-19)
(0.00506833 0.00357301 6.56928e-18)
(0.00444341 0.00408291 3.04748e-18)
(0.00449824 0.00390983 5.97418e-19)
(0.00454903 0.00373834 -3.42471e-19)
(0.00459754 0.00356661 -1.16752e-18)
(0.00464382 0.00339473 -4.01531e-19)
(0.00516695 0.00368449 8.18264e-18)
(0.00455293 0.00418247 5.16908e-18)
(0.00461046 0.0040055 2.15344e-18)
(0.00466385 0.00382994 4.99501e-19)
(0.0047148 0.00365403 -1.31248e-18)
(0.00476331 0.0034779 -1.94577e-18)
(0.00480946 0.00330163 5.92899e-19)
(0.00526685 0.00379661 7.82875e-18)
(0.00466344 0.00428296 6.09482e-18)
(0.0047237 0.00410205 3.00678e-18)
(0.00477974 0.0039224 2.36675e-18)
(0.00483316 0.00374238 3.73536e-19)
(0.00488395 0.003562 -1.38403e-18)
(0.00493222 0.0033814 -1.28568e-18)
(0.004978 0.0032006 -2.27896e-18)
(0.00502127 0.00301951 9.65458e-19)
(0.00536806 0.00390945 8.02023e-18)
(0.004775 0.00438439 5.17695e-18)
(0.00483799 0.0041995 3.08569e-18)
(0.00489669 0.00401575 3.06144e-18)
(0.00495261 0.00383156 4.02561e-19)
(0.00500576 0.00364699 -1.69149e-18)
(0.00505618 0.00346208 -2.20112e-18)
(0.00510395 0.00327692 -2.19973e-18)
(0.00514909 0.00309147 1.26701e-18)
(0.00519165 0.00290578 2.69447e-18)
(0.00547062 0.00402305 7.70084e-18)
(0.00488764 0.00448681 3.42605e-18)
(0.00495338 0.00429789 3.51028e-18)
(0.00501474 0.00410999 3.25468e-18)
(0.00507317 0.00392161 4.06123e-19)
(0.00512869 0.0037328 -1.11337e-18)
(0.00518135 0.00354361 -8.16201e-19)
(0.00523116 0.0033541 -6.7469e-19)
(0.00527821 0.00316426 1.33117e-18)
(0.00532248 0.00297413 1.69774e-18)
(0.00536403 0.0027838 1.86006e-18)
(0.00540279 0.00259314 9.3549e-19)
(0.00543878 0.00240217 -2.12339e-19)
(0.00547203 0.00221093 1.10558e-18)
(0.00557456 0.00413749 7.15091e-18)
(0.00500142 0.00459026 2.43093e-18)
(0.0050699 0.00439726 2.95177e-18)
(0.00513393 0.00420517 2.57788e-18)
(0.00519488 0.00401256 4.77795e-19)
(0.00525279 0.00381947 -7.17872e-20)
(0.00530769 0.00362596 9.47519e-21)
(0.00535962 0.00343208 3.5835e-19)
(0.00540861 0.00323786 2.01291e-18)
(0.00545465 0.0030433 2.00186e-18)
(0.00549781 0.00284848 2.06612e-18)
(0.0055381 0.00265339 1.12432e-18)
(0.00557553 0.00245797 -9.70571e-20)
(0.00561008 0.00226227 1.24181e-19)
(0.00564179 0.00206637 2.23811e-18)
(0.0056706 0.00187024 3.29101e-18)
(0.00569653 0.00167385 3.61578e-18)
(0.00571963 0.0014773 2.44187e-18)
(0.0056799 0.00425281 3.02573e-18)
(0.00511637 0.00469478 2.05334e-18)
(0.00518761 0.00449765 3.13857e-18)
(0.0052543 0.00430131 2.68738e-18)
(0.00531778 0.00410441 5.58148e-19)
(0.0053781 0.00390701 1.3319e-19)
(0.00543526 0.00370914 1.19898e-19)
(0.0054893 0.00351087 8.09108e-19)
(0.00554027 0.00331222 2.71252e-18)
(0.00558816 0.00311322 2.91018e-18)
(0.00563299 0.00291391 2.3598e-18)
(0.00567484 0.00271432 1.23279e-18)
(0.00571371 0.00251441 1.09175e-20)
(0.00574957 0.0023142 3.53708e-19)
(0.00578243 0.00211377 1.88624e-18)
(0.00581231 0.00191313 2.48392e-18)
(0.00583922 0.00171223 2.6071e-18)
(0.00586315 0.00151113 1.79455e-18)
(0.00588414 0.00130995 -4.82441e-19)
(0.00590213 0.00110865 1.02859e-18)
(0.00578667 0.00436906 -1.11959e-18)
(0.00523253 0.00480041 1.64621e-18)
(0.00530654 0.0045991 3.10423e-18)
(0.0053759 0.00439846 2.39417e-18)
(0.00544193 0.00419722 6.82886e-19)
(0.00550466 0.00399545 2.59609e-19)
(0.0055641 0.00379318 5.6972e-19)
(0.00562027 0.00359047 1.4683e-18)
(0.00567322 0.00338736 3.33383e-18)
(0.00572297 0.00318387 3.16665e-18)
(0.00576952 0.00298005 2.89151e-18)
(0.00581297 0.00277591 1.3889e-18)
(0.0058533 0.00257147 -9.36958e-20)
(0.00589051 0.00236672 3.83293e-19)
(0.00592455 0.00216173 2.05018e-18)
(0.00595553 0.00195652 2.89571e-18)
(0.00598342 0.00175106 2.72087e-18)
(0.00600818 0.00154539 2.33958e-18)
(0.00602984 0.0013396 -2.40318e-19)
(0.00604842 0.00113371 5.30918e-20)
(0.00606399 0.000927695 5.87207e-19)
(0.00607645 0.000721572 3.63245e-19)
(0.00608581 0.000515344 2.63521e-18)
(0.0060921 0.000309076 1.50296e-18)
(0.00589489 0.00448631 -2.86381e-18)
(0.00534995 0.0049072 4.78197e-19)
(0.00542674 0.00470165 2.92696e-18)
(0.0054988 0.00449666 2.24205e-18)
(0.00556738 0.00429103 9.87386e-19)
(0.00563252 0.00408483 9.87118e-19)
(0.00569424 0.00387811 6.93784e-19)
(0.00575255 0.00367092 1.26191e-18)
(0.00580751 0.00346329 2.97112e-18)
(0.00585913 0.00325528 3.42555e-18)
(0.00590743 0.0030469 3.72206e-18)
(0.00595247 0.00283818 1.55633e-18)
(0.00599428 0.00262914 1.39606e-19)
(0.00603284 0.00241981 3.53711e-19)
(0.00606815 0.00221022 1.87488e-18)
(0.00610023 0.00200039 2.95982e-18)
(0.0061291 0.00179033 3.17674e-18)
(0.00615474 0.00158006 3.59149e-18)
(0.0061771 0.00136965 5.35491e-19)
(0.00619631 0.0011591 -5.64455e-19)
(0.00621233 0.000948438 -5.50953e-19)
(0.0062252 0.000737699 1.92431e-19)
(0.00623485 0.000526848 2.91347e-18)
(0.00624131 0.000315935 1.26149e-18)
(0.00624465 0.000105026 1.05761e-18)
(0.00624477 -0.000105879 1.00092e-17)
(0.00624167 -0.000316795 1.56736e-17)
(0.00623536 -0.000527676 1.12146e-17)
(0.00622592 -0.000738497 9.68108e-18)
(0.00600461 0.00460462 -8.82045e-19)
(0.00546869 0.0050152 -6.034e-19)
(0.00554827 0.00480534 2.92091e-18)
(0.00562304 0.00459596 1.92927e-18)
(0.00569419 0.00438588 1.067e-18)
(0.00576175 0.00417519 1.50299e-18)
(0.00582575 0.00396396 7.12197e-19)
(0.00588623 0.00375224 9.81853e-19)
(0.0059432 0.00354005 2.97161e-18)
(0.0059967 0.00332746 4.22356e-18)
(0.00604676 0.00311448 4.23567e-18)
(0.00609343 0.00290113 1.58947e-18)
(0.00613672 0.00268745 2.69813e-19)
(0.00617664 0.00247347 5.39334e-20)
(0.0062132 0.00225924 1.68363e-18)
(0.0062464 0.00204475 3.20985e-18)
(0.00627626 0.00183003 3.59342e-18)
(0.00630277 0.00161511 3.61643e-18)
(0.00632592 0.00140003 6.13442e-19)
(0.00634578 0.00118481 -1.80905e-19)
(0.00636231 0.000969458 1.48881e-19)
(0.00637558 0.000754026 9.65465e-19)
(0.00638555 0.00053851 3.00901e-18)
(0.00639219 0.000322912 5.64023e-19)
(0.00639555 0.000107312 2.54382e-19)
(0.00639563 -0.000108256 1.00585e-17)
(0.00639239 -0.000323833 1.63262e-17)
(0.00638585 -0.000539398 1.11666e-17)
(0.00637604 -0.000754913 9.34545e-18)
(0.00636299 -0.000970306 1.41244e-17)
(0.00634659 -0.00118557 1.47121e-17)
(0.00632692 -0.00140073 1.50385e-17)
(0.00611589 0.00472406 1.9351e-18)
(0.0055888 0.00512444 -4.70449e-19)
(0.0056712 0.00491022 2.58675e-18)
(0.0057487 0.00469638 1.26935e-18)
(0.00582242 0.00448181 7.62029e-19)
(0.00589241 0.00426658 1.87011e-18)
(0.00595869 0.00405078 1.65538e-18)
(0.00602133 0.00383446 1.46471e-18)
(0.00608033 0.00361766 3.52936e-18)
(0.00613573 0.00340043 4.46451e-18)
(0.00618757 0.0031828 4.02361e-18)
(0.00623587 0.00296478 1.83665e-18)
(0.00628066 0.00274641 1.95767e-19)
(0.00632195 0.00252774 -4.43482e-19)
(0.00635975 0.0023088 6.18044e-19)
(0.00639409 0.00208962 2.92634e-18)
(0.00642495 0.00187018 4.1156e-18)
(0.00645235 0.00165055 3.67071e-18)
(0.00647629 0.00143075 1.06139e-18)
(0.0064968 0.0012108 2.55124e-19)
(0.0065139 0.00099072 4.85694e-19)
(0.0065276 0.000770551 1.73532e-18)
(0.00653788 0.00055031 3.62976e-18)
(0.00654474 0.000329995 7.94399e-19)
(0.00654816 0.000109661 1.16579e-18)
(0.0065482 -0.000110645 1.05185e-17)
(0.00654485 -0.000330946 1.55685e-17)
(0.00653807 -0.000551238 1.11243e-17)
(0.0065279 -0.000771489 1.01405e-17)
(0.00651431 -0.000991602 1.48609e-17)
(0.00649732 -0.00121159 1.63262e-17)
(0.00647691 -0.00143148 1.71065e-17)
(0.00645319 -0.00165117 2.75265e-17)
(0.0064261 -0.00187054 4.50164e-17)
(0.00622875 0.00484467 3.00137e-18)
(0.00571033 0.00523498 7.90929e-19)
(0.00579557 0.00501634 1.72428e-18)
(0.00587581 0.00479799 7.75014e-19)
(0.00595212 0.00457886 1.30513e-18)
(0.00602455 0.00435904 2.66232e-18)
(0.00609313 0.0041386 1.8847e-18)
(0.00615793 0.00391763 1.2623e-18)
(0.00621897 0.00369616 3.80539e-18)
(0.00627627 0.00347423 4.28039e-18)
(0.00632989 0.00325189 3.96696e-18)
(0.00637984 0.00302915 1.94241e-18)
(0.00642615 0.00280605 1.22729e-19)
(0.00646881 0.00258263 1.57306e-19)
(0.00650787 0.00235893 2.09423e-19)
(0.00654334 0.00213498 2.44974e-18)
(0.00657523 0.00191079 3.5407e-18)
(0.00660353 0.00168639 3.15469e-18)
(0.00662826 0.00146182 1.83652e-18)
(0.00664944 0.00123709 1.07456e-18)
(0.0066671 0.00101222 8.90946e-19)
(0.00668123 0.00078727 2.14952e-18)
(0.00669184 0.000562248 4.12942e-18)
(0.00669892 0.00033716 9.60187e-19)
(0.00670244 0.000112045 1.37618e-18)
(0.00670246 -0.000113053 1.12183e-17)
(0.00669899 -0.00033814 1.52965e-17)
(0.006692 -0.000563214 1.11278e-17)
(0.00668148 -0.000788237 1.1295e-17)
(0.0066674 -0.00101312 1.56302e-17)
(0.00664981 -0.00123789 1.72753e-17)
(0.00662869 -0.00146256 1.86848e-17)
(0.00660405 -0.00168704 3.29483e-17)
(0.00657601 -0.00191122 7.11987e-17)
(0.00634325 0.00496653 1.43709e-18)
(0.00583333 0.00534687 1.99722e-18)
(0.00592143 0.00512373 1.3613e-18)
(0.00600442 0.00490081 7.53997e-19)
(0.00608334 0.00467707 1.37977e-18)
(0.00615823 0.00445261 2.83534e-18)
(0.00622913 0.00422748 2.29712e-18)
(0.00629611 0.00400178 2.059e-18)
(0.00635918 0.00377557 4.31044e-18)
(0.0064184 0.0035489 3.956e-18)
(0.0064738 0.00332179 3.53651e-18)
(0.00652541 0.00309427 1.92812e-18)
(0.00657323 0.00286638 4.70811e-19)
(0.00661729 0.00263815 7.06642e-19)
(0.00665762 0.00240964 -1.84752e-19)
(0.00669423 0.00218087 2.21463e-18)
(0.00672715 0.00195187 3.5205e-18)
(0.00675634 0.00172264 3.15099e-18)
(0.00678187 0.00149325 1.91714e-18)
(0.00680374 0.00126368 1.09307e-18)
(0.00682197 0.00103398 1.02057e-18)
(0.00683654 0.000804189 2.25837e-18)
(0.00684747 0.000574329 4.58373e-18)
(0.00685476 0.000344411 1.45533e-18)
(0.0068584 0.000114459 1.7438e-18)
(0.00685842 -0.000115485 1.16815e-17)
(0.00685482 -0.000345415 1.44356e-17)
(0.00684762 -0.000575329 1.07587e-17)
(0.00683675 -0.000805178 1.26104e-17)
(0.00682222 -0.00103489 1.6361e-17)
(0.00680405 -0.00126449 1.77398e-17)
(0.00678224 -0.001494 1.92438e-17)
(0.00675674 -0.00172331 3.63137e-17)
(0.00672768 -0.00195234 1.03022e-16)
(0.00645942 0.00508967 -7.99981e-20)
(0.00595787 0.00546015 2.75799e-18)
(0.00604885 0.00523246 1.05401e-18)
(0.00613458 0.00500488 1.08607e-18)
(0.00621614 0.00477648 2.44238e-18)
(0.00629351 0.00454731 3.29444e-18)
(0.00636675 0.00431744 2.538e-18)
(0.0064359 0.00408696 2.60943e-18)
(0.00650102 0.00385595 4.4568e-18)
(0.00656217 0.00362445 3.57104e-18)
(0.00661935 0.00339251 2.88684e-18)
(0.00667264 0.00316016 2.2657e-18)
(0.006722 0.00292742 9.44795e-19)
(0.00676746 0.00269434 1.2348e-18)
(0.00680906 0.00246096 -1.93728e-19)
(0.00684682 0.00222731 1.85491e-18)
(0.00688076 0.00199343 3.79489e-18)
(0.00691086 0.00175932 3.64734e-18)
(0.00693719 0.00152504 1.37042e-18)
(0.00695977 0.00129058 5.377e-19)
(0.00697857 0.00105599 1.60909e-18)
(0.00699358 0.000821315 2.62768e-18)
(0.00700482 0.00058656 4.28322e-18)
(0.00701234 0.000351743 1.33945e-18)
(0.00701611 0.000116898 2.34255e-18)
(0.00701614 -0.000117943 1.1423e-17)
(0.00701242 -0.000352777 1.33512e-17)
(0.00700499 -0.000587587 1.05976e-17)
(0.00699378 -0.000822315 1.3799e-17)
(0.00697878 -0.00105691 1.66101e-17)
(0.00696004 -0.00129141 1.80045e-17)
(0.00693753 -0.00152579 2.19597e-17)
(0.00691122 -0.00175999 4.54515e-17)
(0.00688114 -0.00199389 1.34089e-16)
(0.0065773 0.00521417 -5.97936e-19)
(0.006084 0.00557489 4.04403e-18)
(0.00617788 0.00534258 1.3569e-18)
(0.00626639 0.00511028 1.38816e-18)
(0.00635058 0.00487712 2.68047e-18)
(0.00643044 0.00464318 2.82653e-18)
(0.00650604 0.00440852 2.98145e-18)
(0.00657739 0.0041732 3.04054e-18)
(0.00664457 0.00393732 4.85208e-18)
(0.00670764 0.00370094 3.29637e-18)
(0.00676662 0.0034641 2.1939e-18)
(0.00682159 0.00322684 2.6561e-18)
(0.00687249 0.0029892 1.09864e-18)
(0.00691939 0.00275121 1.67824e-18)
(0.00696227 0.0025129 3.5959e-19)
(0.00700119 0.00227432 1.46097e-18)
(0.00703615 0.0020355 3.51055e-18)
(0.00706716 0.00179645 3.24139e-18)
(0.0070943 0.00155721 4.62269e-19)
(0.00711757 0.00131781 3.21893e-19)
(0.00713694 0.00107827 2.63908e-18)
(0.00715241 0.00083865 2.71385e-18)
(0.00716398 0.000598941 3.74624e-18)
(0.00717173 0.000359162 1.71746e-18)
(0.00717563 0.000119362 3.08314e-18)
(0.00717566 -0.000120433 1.02513e-17)
(0.00717185 -0.000360227 1.26388e-17)
(0.00716417 -0.000599986 1.14466e-17)
(0.0071526 -0.000839652 1.45641e-17)
(0.00713714 -0.0010792 1.63432e-17)
(0.00711784 -0.00131865 1.70502e-17)
(0.00709463 -0.00155797 2.16058e-17)
(0.00706748 -0.00179709 3.76782e-17)
(0.00703643 -0.0020359 1.04903e-16)
(0.00669696 0.00534008 -3.40259e-19)
(0.00621178 0.00569112 5.21839e-18)
(0.00630858 0.00545412 1.55636e-18)
(0.00639991 0.00521705 1.5695e-18)
(0.00648674 0.00497906 2.80395e-18)
(0.0065691 0.00474028 2.85807e-18)
(0.00664706 0.00450075 3.60781e-18)
(0.00672062 0.00426053 2.99398e-18)
(0.00678989 0.00401972 5.16519e-18)
(0.0068549 0.00377839 2.65985e-18)
(0.00691571 0.00353659 1.50101e-18)
(0.00697235 0.00329436 2.91476e-18)
(0.0070248 0.00305175 1.05947e-18)
(0.00707312 0.00280878 2.17224e-18)
(0.00711731 0.00256549 5.59681e-19)
(0.00715738 0.00232192 1.32262e-18)
(0.00719338 0.0020781 3.26588e-18)
(0.00722533 0.00183404 2.55015e-18)
(0.00725328 0.00158978 -3.5988e-19)
(0.00727723 0.00134536 4.75096e-19)
(0.00729716 0.00110082 3.93295e-18)
(0.00731309 0.000856195 2.50599e-18)
(0.00732502 0.00061147 1.85771e-18)
(0.00733302 0.00036667 1.31812e-18)
(0.00733702 0.000121856 4.01355e-18)
(0.00733705 -0.000122958 9.36375e-18)
(0.00733313 -0.000367766 1.23019e-17)
(0.00732521 -0.000612528 1.22144e-17)
(0.00731329 -0.000857199 1.46981e-17)
(0.00729738 -0.00110176 1.63157e-17)
(0.00727751 -0.00134622 1.63714e-17)
(0.0072536 -0.00159054 2.15304e-17)
(0.0072256 -0.00183464 3.48399e-17)
(0.00719362 -0.00207843 8.17709e-17)
(0.00681845 0.00546747 -9.94641e-19)
(0.00634126 0.00580889 5.58564e-18)
(0.00644102 0.00556714 2.34841e-18)
(0.00653518 0.00532524 1.79774e-18)
(0.00662466 0.00508236 2.87439e-18)
(0.00670954 0.00483865 2.88375e-18)
(0.00678988 0.00459418 3.84067e-18)
(0.00686567 0.004349 2.82921e-18)
(0.00693704 0.00410319 4.78022e-18)
(0.00700402 0.00385685 1.64809e-18)
(0.00706666 0.00361002 1.98233e-18)
(0.00712497 0.00336275 3.64594e-18)
(0.00717899 0.0031151 8.27994e-19)
(0.00722873 0.00286708 2.14233e-18)
(0.00727422 0.00261875 5.52959e-19)
(0.00731548 0.00237012 1.14633e-18)
(0.00735252 0.00212123 2.62576e-18)
(0.00738543 0.00187211 1.88002e-18)
(0.00741418 0.00162277 -8.85478e-19)
(0.00743881 0.00137327 4.47959e-19)
(0.00745932 0.00112366 4.63051e-18)
(0.00747571 0.000873959 2.86938e-18)
(0.00748801 0.000624149 1.10226e-18)
(0.00749624 0.00037427 1.19248e-18)
(0.00750036 0.000124386 4.32486e-18)
(0.00750038 -0.00012551 9.03123e-18)
(0.00749633 -0.000375398 1.19464e-17)
(0.00748819 -0.000625227 1.22572e-17)
(0.00747593 -0.000874969 1.44456e-17)
(0.00745956 -0.00112461 1.58395e-17)
(0.00743911 -0.00137415 1.56514e-17)
(0.00741449 -0.0016235 2.12155e-17)
(0.00738567 -0.00187267 3.21537e-17)
(0.00735274 -0.00212152 6.10799e-17)
(0.00694183 0.00559641 -5.78679e-19)
(0.0064725 0.00592827 5.36477e-18)
(0.00657524 0.00568168 2.74899e-18)
(0.00667224 0.00543487 2.1175e-18)
(0.00676441 0.00518703 3.16501e-18)
(0.00685184 0.00493833 2.51908e-18)
(0.00693457 0.00468886 3.10762e-18)
(0.00701263 0.00443865 2.04624e-18)
(0.00708612 0.00418777 4.15774e-18)
(0.00715507 0.00393634 1.86144e-18)
(0.00721955 0.00368442 3.31355e-18)
(0.00727954 0.00343203 3.71551e-18)
(0.00733513 0.00317927 3.06106e-19)
(0.0073863 0.00292614 1.71982e-18)
(0.00743309 0.00267268 6.16861e-19)
(0.00747555 0.00241894 7.75654e-19)
(0.00751366 0.00216492 1.75338e-18)
(0.00754752 0.00191066 1.15822e-18)
(0.00757709 0.00165618 -8.11269e-19)
(0.0076024 0.00140154 9.00666e-19)
(0.00762349 0.00114679 4.96153e-18)
(0.00764036 0.000891946 3.19397e-18)
(0.00765301 0.000636991 7.22448e-19)
(0.00766147 0.00038197 1.15681e-18)
(0.00766571 0.000126948 4.09442e-18)
(0.00766573 -0.000128092 8.61013e-18)
(0.00766155 -0.000383124 1.17024e-17)
(0.00765317 -0.000638091 1.19979e-17)
(0.00764058 -0.000892972 1.40329e-17)
(0.00762377 -0.00114776 1.52448e-17)
(0.00760272 -0.00140242 1.49209e-17)
(0.00757739 -0.00165689 2.01078e-17)
(0.00754777 -0.00191118 2.89782e-17)
(0.00751385 -0.00216518 4.63788e-17)
(0.00706716 0.00572697 2.72274e-19)
(0.00660559 0.00604933 4.90822e-18)
(0.0067113 0.0057978 2.89429e-18)
(0.00681117 0.00554601 1.7816e-18)
(0.00690606 0.00529314 2.84716e-18)
(0.00699605 0.00503938 2.40026e-18)
(0.00708119 0.00478481 3.07254e-18)
(0.00716156 0.0045295 2.1637e-18)
(0.00723717 0.0042735 3.51316e-18)
(0.0073081 0.0040169 2.02302e-18)
(0.00737443 0.00375981 3.41311e-18)
(0.00743613 0.00350226 3.35625e-18)
(0.00749329 0.0032443 7.67816e-19)
(0.0075459 0.00298598 2.21057e-18)
(0.00759398 0.00272733 4.11753e-19)
(0.00763766 0.0024684 -2.99661e-19)
(0.00767687 0.00220918 8.54862e-19)
(0.00771168 0.00194972 8.56385e-19)
(0.00774206 0.00169005 -2.70967e-19)
(0.00776808 0.00143019 1.19952e-18)
(0.00778974 0.00117022 5.51375e-18)
(0.00780708 0.000910165 3.42961e-18)
(0.0078201 0.000650001 9.94327e-20)
(0.00782879 0.000389769 8.44562e-19)
(0.00783315 0.000129541 3.83436e-18)
(0.00783318 -0.000130703 8.60637e-18)
(0.00782887 -0.000390945 1.14244e-17)
(0.00782025 -0.000651127 1.16431e-17)
(0.00780732 -0.00091122 1.37103e-17)
(0.00779005 -0.00117121 1.44853e-17)
(0.0077684 -0.00143106 1.35951e-17)
(0.00774235 -0.00169073 1.87078e-17)
(0.00771193 -0.0019502 2.6132e-17)
(0.00767703 -0.00220937 3.64936e-17)
(0.00719448 0.00585921 8.28595e-19)
(0.00674058 0.00617213 4.19537e-18)
(0.00684929 0.00591558 2.40983e-18)
(0.00695205 0.00565871 1.70591e-18)
(0.00704969 0.00540075 3.39375e-18)
(0.00714226 0.00514184 2.92105e-18)
(0.00722983 0.00488209 3.14121e-18)
(0.00731249 0.00462161 1.97971e-18)
(0.00739024 0.0043604 2.69775e-18)
(0.00746319 0.00409857 2.9966e-18)
(0.00753137 0.00383623 3.48405e-18)
(0.0075948 0.00357343 2.66372e-18)
(0.00765355 0.00331022 1.18138e-18)
(0.00770759 0.00304665 2.65219e-18)
(0.00775701 0.00278272 1.62278e-19)
(0.00780189 0.00251851 -8.38066e-19)
(0.00784221 0.00225404 3.63412e-19)
(0.00787796 0.00198931 9.26109e-19)
(0.00790918 0.00172436 2.41669e-20)
(0.00793591 0.00145923 1.18137e-18)
(0.00795816 0.00119397 5.71053e-18)
(0.00797594 0.000928627 3.29026e-18)
(0.00798935 0.00066318 -5.8841e-20)
(0.00799828 0.000397673 6.43297e-19)
(0.00800276 0.000132168 3.30748e-18)
(0.00800278 -0.000133349 8.14802e-18)
(0.00799836 -0.000398869 1.08552e-17)
(0.00798951 -0.000664338 1.14471e-17)
(0.00797622 -0.00092971 1.35503e-17)
(0.00795847 -0.00119497 1.39185e-17)
(0.00793622 -0.00146008 1.21738e-17)
(0.00790948 -0.00172502 1.74521e-17)
(0.00787822 -0.00198974 2.37058e-17)
(0.00784234 -0.00225415 2.92558e-17)
(0.007802 -0.00251786 2.14622e-18)
(0.00732387 0.00599319 -4.37184e-19)
(0.00687753 0.00629671 3.00199e-18)
(0.00698929 0.00603507 2.45697e-18)
(0.00709497 0.00577304 1.911e-18)
(0.00719537 0.0055099 3.4946e-18)
(0.00729054 0.00524576 2.69159e-18)
(0.00738056 0.00498076 3.02195e-18)
(0.00746551 0.004715 1.95055e-18)
(0.00754544 0.00444852 2.68555e-18)
(0.0076204 0.00418138 3.38854e-18)
(0.00769046 0.00391373 2.51807e-18)
(0.00775563 0.0036456 2.34483e-18)
(0.00781596 0.00337706 2.34529e-18)
(0.00787148 0.00310816 2.88354e-18)
(0.00792226 0.00283889 -3.92237e-19)
(0.00796833 0.00256931 -1.22294e-18)
(0.00800975 0.0022995 2.37967e-19)
(0.00804645 0.00202944 1.14424e-18)
(0.00807852 0.00175914 -3.87717e-19)
(0.00810598 0.00148866 1.18899e-18)
(0.0081288 0.00121806 5.92421e-18)
(0.00814707 0.00094734 2.93063e-18)
(0.00816084 0.000676535 1.11367e-19)
(0.00817 0.000405685 1.01401e-18)
(0.00817459 0.000134832 2.83018e-18)
(0.00817462 -0.000136035 7.03891e-18)
(0.0081701 -0.000406908 1.02633e-17)
(0.00816102 -0.000677725 1.16666e-17)
(0.00814735 -0.000948447 1.30487e-17)
(0.00812913 -0.00121905 1.29855e-17)
(0.00810628 -0.0014895 1.09761e-17)
(0.00807883 -0.00175978 1.58279e-17)
(0.00804673 -0.00202982 2.13548e-17)
(0.00800989 -0.00229953 2.38007e-17)
(0.00796829 -0.00256852 2.37315e-18)
(0.00745536 0.00612898 -2.59121e-18)
(0.0070165 0.00642314 1.92235e-18)
(0.00713135 0.00615633 2.87275e-18)
(0.00723997 0.00588905 1.57219e-18)
(0.00734315 0.00562064 3.64812e-18)
(0.00744095 0.00535121 2.56462e-18)
(0.00753344 0.00508087 3.2464e-18)
(0.00762071 0.00480974 1.9842e-18)
(0.00770282 0.0045379 2.58106e-18)
(0.00777983 0.00426539 3.09759e-18)
(0.00785177 0.00399233 1.81971e-18)
(0.00791869 0.0037188 2.26783e-18)
(0.00798062 0.00344485 3.29491e-18)
(0.00803763 0.00317053 2.45429e-18)
(0.00808977 0.00289584 -8.25539e-19)
(0.00813707 0.00262084 -6.84804e-19)
(0.00817958 0.00234561 3.10769e-19)
(0.00821726 0.00207013 5.28296e-19)
(0.00825019 0.00179441 -1.14469e-18)
(0.00827836 0.00151851 1.31885e-18)
(0.00830179 0.00124248 5.29908e-18)
(0.00832055 0.000966317 2.56453e-18)
(0.00833467 0.00069008 1.22173e-18)
(0.00834405 0.000413813 2.15805e-18)
(0.00834874 0.000137534 2.87204e-18)
(0.00834879 -0.000138761 6.02161e-18)
(0.00834416 -0.000415059 9.68264e-18)
(0.00833482 -0.000691297 1.18192e-17)
(0.00832081 -0.000967443 1.22818e-17)
(0.00830208 -0.00124346 1.17361e-17)
(0.00827865 -0.00151934 1.00152e-17)
(0.00825048 -0.00179503 1.40294e-17)
(0.00821755 -0.00207046 1.88467e-17)
(0.00817974 -0.00234551 1.96704e-17)
(0.0081369 -0.0026199 2.83115e-18)
(0.00758903 0.00626665 -3.80227e-18)
(0.00715757 0.00655147 1.44134e-18)
(0.00727553 0.00627939 3.3801e-18)
(0.00738712 0.00600679 1.30621e-18)
(0.00749311 0.00573302 3.79424e-18)
(0.00759355 0.0054582 2.53659e-18)
(0.00768854 0.00518245 3.00077e-18)
(0.00777815 0.00490588 1.74072e-18)
(0.00786247 0.00462859 2.45406e-18)
(0.00794153 0.00435061 2.70469e-18)
(0.00801538 0.00407208 1.58559e-18)
(0.00808407 0.00379307 2.27291e-18)
(0.00814765 0.00351363 3.4321e-18)
(0.00820614 0.0032338 1.86232e-18)
(0.00825965 0.00295362 -4.87907e-19)
(0.00830818 0.00267311 1.97293e-19)
(0.00835179 0.00239237 3.49027e-19)
(0.00839047 0.0021114 -3.51112e-19)
(0.00842426 0.00183019 -1.92799e-18)
(0.00845313 0.00154878 1.20413e-18)
(0.00847719 0.00126724 4.54881e-18)
(0.00849647 0.000985569 2.6785e-18)
(0.0085109 0.000703827 2.63809e-18)
(0.00852051 0.000422064 3.32872e-18)
(0.00852531 0.000140276 2.81199e-18)
(0.00852536 -0.000141529 5.05509e-18)
(0.00852061 -0.000423324 9.0164e-18)
(0.00851103 -0.000705062 1.20633e-17)
(0.00849666 -0.000986707 1.17299e-17)
(0.00847745 -0.00126823 1.05294e-17)
(0.00845342 -0.0015496 9.33406e-18)
(0.00842451 -0.00183078 1.20492e-17)
(0.00839076 -0.00211169 1.66422e-17)
(0.00835196 -0.00239215 1.68666e-17)
(0.00772495 0.00640626 -4.18909e-18)
(0.0073008 0.00668177 1.64246e-18)
(0.00742189 0.00640433 3.64743e-18)
(0.00753649 0.00612631 8.64521e-19)
(0.00764531 0.0058471 3.70591e-18)
(0.00774843 0.0055668 2.7884e-18)
(0.00784595 0.00528556 1.99314e-18)
(0.00793792 0.00500346 1.58221e-18)
(0.00802446 0.00472062 2.71064e-18)
(0.0081056 0.0044371 2.7068e-18)
(0.00818138 0.00415301 1.68966e-18)
(0.00825185 0.00386843 2.24518e-18)
(0.00831708 0.00358342 3.66258e-18)
(0.00837709 0.00329802 1.7999e-18)
(0.00843198 0.00301225 -1.54788e-19)
(0.00848174 0.00272615 3.30949e-19)
(0.00852646 0.00243982 4.08618e-20)
(0.00856614 0.00215327 -7.43102e-19)
(0.00860079 0.00186648 -2.08044e-18)
(0.00863041 0.0015795 9.99989e-19)
(0.00865509 0.00129236 3.72261e-18)
(0.00867486 0.0010051 2.78818e-18)
(0.00868963 0.000717785 3.53685e-18)
(0.00869947 0.000430437 3.99155e-18)
(0.0087044 0.000143058 2.68122e-18)
(0.00870446 -0.000144338 4.32458e-18)
(0.00869957 -0.000431708 8.30008e-18)
(0.00868975 -0.000719025 1.22258e-17)
(0.008675 -0.00100625 1.15514e-17)
(0.00865531 -0.00129335 9.79302e-18)
(0.00863065 -0.00158029 9.10649e-18)
(0.00860102 -0.00186706 1.03443e-17)
(0.00856643 -0.00215351 1.47251e-17)
(0.00852669 -0.00243945 1.48692e-17)
(0.00786318 0.00654789 -4.47918e-18)
(0.00744627 0.00681411 2.10249e-18)
(0.00757054 0.00653123 3.28315e-18)
(0.00768817 0.0062477 5.43875e-19)
(0.00779983 0.00596293 3.79774e-18)
(0.00790565 0.00567707 2.92623e-18)
(0.00800573 0.00539024 1.27764e-18)
(0.0081001 0.00510253 1.8951e-18)
(0.00818888 0.00481406 2.86634e-18)
(0.00827214 0.00452491 2.45218e-18)
(0.00834986 0.00423517 1.69913e-18)
(0.00842212 0.00394492 2.28384e-18)
(0.00848899 0.00365425 3.55279e-18)
(0.00855055 0.00336319 1.77434e-18)
(0.00860684 0.00307176 2.85786e-19)
(0.00865785 0.00277999 -2.35251e-20)
(0.00870367 0.00248797 3.72355e-20)
(0.00874436 0.00219575 -5.03785e-19)
(0.00877988 0.00190331 -1.9396e-18)
(0.00881026 0.00161066 9.38311e-19)
(0.00883556 0.00131785 3.24308e-18)
(0.0088558 0.00102493 2.65571e-18)
(0.00887095 0.00073195 3.54997e-18)
(0.00888103 0.000438935 4.12685e-18)
(0.00888609 0.000145878 2.67436e-18)
(0.00888615 -0.000147185 3.97513e-18)
(0.00888112 -0.000440214 7.96168e-18)
(0.00887107 -0.000733193 1.23874e-17)
(0.00885593 -0.00102608 1.15794e-17)
(0.00883575 -0.00131884 9.16515e-18)
(0.00881045 -0.00161145 8.31741e-18)
(0.00878009 -0.00190388 9.09805e-18)
(0.00874466 -0.00219597 1.38345e-17)
(0.00870383 -0.00248743 1.35077e-17)
(0.0080038 0.00669163 -4.01064e-18)
(0.00759405 0.00694857 2.53431e-18)
(0.00772154 0.00666014 2.29567e-18)
(0.00784223 0.006371 1.50059e-19)
(0.00795679 0.0060806 3.71924e-18)
(0.00806534 0.00578907 2.69451e-18)
(0.00816799 0.00549655 9.75038e-19)
(0.0082648 0.00520315 1.71791e-18)
(0.00835585 0.00490895 2.24777e-18)
(0.00844122 0.00461407 2.01932e-18)
(0.0085209 0.00431859 1.79907e-18)
(0.00859496 0.0040226 2.38232e-18)
(0.0086635 0.00372616 3.38069e-18)
(0.0087266 0.00342934 2.1893e-18)
(0.00878431 0.00313217 7.74663e-19)
(0.0088366 0.00283465 -3.29756e-19)
(0.00888353 0.00253687 -4.91502e-20)
(0.00892521 0.00223888 -5.44348e-19)
(0.00896162 0.00194069 -1.95716e-18)
(0.00899277 0.0016423 6.20215e-19)
(0.0090187 0.00134373 2.72797e-18)
(0.00903942 0.00104505 2.5075e-18)
(0.00905493 0.000746327 3.59084e-18)
(0.00906527 0.000447558 4.0462e-18)
(0.00907047 0.000148741 3.14058e-18)
(0.00907051 -0.00015007 3.91684e-18)
(0.00906535 -0.000448844 7.51738e-18)
(0.00905504 -0.000747572 1.2183e-17)
(0.00903954 -0.00104621 1.12193e-17)
(0.00901884 -0.00134472 9.01141e-18)
(0.00899291 -0.00164307 7.68264e-18)
(0.00896179 -0.00194126 8.03689e-18)
(0.00892551 -0.00223903 1.30612e-17)
(0.0088835 -0.00253613 1.20237e-17)
(0.00814688 0.00683756 -2.3171e-18)
(0.00774423 0.0070852 2.02737e-18)
(0.00787497 0.00679112 9.0175e-19)
(0.00799875 0.00649628 5.38888e-19)
(0.00811625 0.00620016 3.57565e-18)
(0.00822756 0.00590286 2.37129e-18)
(0.00833281 0.00560455 6.19414e-19)
(0.00843209 0.00530535 9.95103e-19)
(0.00852544 0.00500535 1.89324e-18)
(0.00861292 0.00470464 2.45699e-18)
(0.00869456 0.00440333 2.38027e-18)
(0.00877046 0.0041015 2.26966e-18)
(0.00884069 0.00379921 3.02933e-18)
(0.00890536 0.00349653 2.79164e-18)
(0.00896447 0.00319351 1.04744e-18)
(0.00901805 0.00289016 -4.45832e-19)
(0.00906612 0.00258652 1.22194e-19)
(0.00910882 0.00228268 -3.74556e-19)
(0.00914612 0.00197865 -2.20288e-18)
(0.00917803 0.00167441 -1.20294e-19)
(0.00920458 0.00137 2.17799e-18)
(0.00922579 0.00106549 2.37372e-18)
(0.00924168 0.000760923 3.54555e-18)
(0.00925228 0.000456308 3.80146e-18)
(0.00925761 0.000151649 3.75579e-18)
(0.00925763 -0.000152993 4.1229e-18)
(0.00925234 -0.000457606 7.26066e-18)
(0.00924179 -0.000762174 1.22498e-17)
(0.00922591 -0.00106664 1.10622e-17)
(0.00920469 -0.00137098 8.74531e-18)
(0.00917813 -0.00167517 6.28177e-18)
(0.00914622 -0.0019792 6.9141e-18)
(0.00910895 -0.00228271 1.24915e-17)
(0.00829249 0.00698575 -2.23598e-19)
(0.00789689 0.00722409 1.40433e-18)
(0.00803091 0.00692426 9.84732e-20)
(0.00815782 0.0066236 1.24819e-18)
(0.00827829 0.00632166 2.73376e-18)
(0.0083924 0.00601851 1.84639e-18)
(0.00850027 0.0057143 9.45791e-19)
(0.00860202 0.00540919 1.07575e-18)
(0.00869771 0.00510329 1.82651e-18)
(0.00878732 0.00479666 2.85592e-18)
(0.00887095 0.00448941 3.08862e-18)
(0.00894871 0.00418165 2.17178e-18)
(0.00902066 0.00387341 2.82265e-18)
(0.0090869 0.00356478 3.06572e-18)
(0.00914744 0.00325582 1.05003e-18)
(0.00920232 0.00294654 -2.86061e-19)
(0.00925156 0.00263696 2.93924e-19)
(0.00929526 0.00232716 -3.85514e-19)
(0.00933346 0.0020172 -2.66783e-18)
(0.00936614 0.00170703 -9.54937e-19)
(0.00939333 0.00139669 1.82046e-18)
(0.00941504 0.00108625 2.5701e-18)
(0.00943131 0.000775748 3.53352e-18)
(0.00944216 0.000465196 3.49563e-18)
(0.0094476 0.000154605 4.42326e-18)
(0.00944762 -0.000155961 4.81992e-18)
(0.0094422 -0.000466506 6.82227e-18)
(0.0094314 -0.000777003 1.18542e-17)
(0.00941514 -0.00108739 1.10639e-17)
(0.00939339 -0.00139765 8.88387e-18)
(0.00936619 -0.00170777 5.42176e-18)
(0.00933347 -0.0020177 5.39012e-18)
(0.00929514 -0.00232703 1.1306e-17)
(0.00844071 0.00713628 2.26539e-18)
(0.0080521 0.00736531 7.11524e-19)
(0.00818946 0.00705963 -1.12474e-19)
(0.00831952 0.00675304 1.59729e-18)
(0.00844299 0.00644516 1.28554e-18)
(0.00855994 0.00613606 1.96596e-18)
(0.00867047 0.00582585 1.63572e-18)
(0.00877471 0.00551473 5.725e-19)
(0.00887273 0.00520281 1.66084e-18)
(0.00896452 0.00489017 3.18763e-18)
(0.00905014 0.00457689 3.66929e-18)
(0.00912979 0.00426309 2.27846e-18)
(0.00920349 0.00394881 2.52666e-18)
(0.00927133 0.00363414 2.84656e-18)
(0.00933331 0.00331914 9.23487e-19)
(0.0093895 0.00300383 -1.84427e-19)
(0.00943992 0.00268821 1.17642e-19)
(0.00948464 0.00237236 -4.31829e-19)