/*--------------------------------*- C++ -*----------------------------------*\
  =========                 |
  \\      /  F ield         | OpenFOAM: The Open Source CFD Toolbox
   \\    /   O peration     | Website:  https://openfoam.org
    \\  /    A nd           | Version:  7
     \\/     M anipulation  |
\*---------------------------------------------------------------------------*/
FoamFile
{
    version     2.0;
    format      ascii;
    class       volVectorField;
    location    "156000";
    object      U;
}
// * * * * * * * * * * * * * * * * * * * * * * * * * * * * * * * * * * * * * //

dimensions      [0 1 -1 0 0 0 0];

internalField   nonuniform List<vector> 
4782
(
(1.51084e-18 6.93919e-19 -0.00984631)
(1.53839e-18 6.43747e-19 -0.00975487)
(1.57192e-18 6.1616e-19 -0.00966143)
(1.54461e-18 7.21755e-19 -0.00956588)
(1.50692e-18 8.48819e-19 -0.00946811)
(1.46155e-18 9.4974e-19 -0.00936799)
(1.50892e-18 9.06564e-19 -0.0092654)
(1.62464e-18 7.7018e-19 -0.0091602)
(1.61572e-18 8.14695e-19 -0.00905225)
(1.58744e-18 8.93685e-19 -0.00894139)
(4.6188e-19 9.71436e-19 -0.0127873)
(7.9425e-19 7.31942e-19 -0.0127357)
(8.8563e-19 7.42749e-19 -0.0126836)
(8.15995e-19 9.25966e-19 -0.0126312)
(8.06026e-19 9.57794e-19 -0.0125783)
(6.20595e-19 1.15935e-18 -0.0125251)
(3.61236e-19 1.52573e-18 -0.0124714)
(4.70857e-19 1.40507e-18 -0.0124172)
(7.32211e-19 1.05817e-18 -0.0123626)
(9.236e-19 7.67678e-19 -0.0123076)
(1.08203e-18 5.17725e-19 -0.012252)
(1.14493e-18 4.06308e-19 -0.012196)
(1.13577e-18 4.17577e-19 -0.0121395)
(1.05148e-18 5.23588e-19 -0.0120824)
(1.02349e-18 5.89087e-19 -0.0120247)
(1.07553e-18 5.70678e-19 -0.0119665)
(1.12199e-18 5.78531e-19 -0.0119076)
(1.18726e-18 5.25926e-19 -0.0118482)
(1.25333e-18 4.57858e-19 -0.0117881)
(1.39992e-18 2.65226e-19 -0.0117274)
(1.61761e-18 -6.78853e-20 -0.0116659)
(1.52556e-18 -1.41732e-20 -0.0116038)
(1.07329e-18 5.28363e-19 -0.011541)
(7.33825e-19 9.35454e-19 -0.0114775)
(7.33671e-19 9.10065e-19 -0.0114132)
(9.63534e-19 6.10391e-19 -0.0113481)
(1.25449e-18 2.26987e-19 -0.0112822)
(1.4444e-18 -1.67232e-20 -0.0112154)
(1.46695e-18 -2.13596e-20 -0.0111478)
(1.40808e-18 5.83686e-20 -0.0110793)
(1.44651e-18 5.10622e-21 -0.0110098)
(1.61278e-18 -1.86217e-19 -0.0109393)
(1.63865e-18 -2.02175e-19 -0.0108679)
(1.46248e-18 5.52946e-20 -0.0107953)
(1.34208e-18 2.31106e-19 -0.0107217)
(1.42993e-18 1.38376e-19 -0.0106469)
(1.51269e-18 6.83311e-20 -0.0105709)
(1.42464e-18 2.06583e-19 -0.0104936)
(1.3523e-18 2.85335e-19 -0.010415)
(1.34701e-18 2.52318e-19 -0.0103351)
(1.27195e-18 3.32432e-19 -0.0102537)
(1.23714e-18 3.48621e-19 -0.0101708)
(1.26504e-18 2.74748e-19 -0.0100863)
(1.1867e-18 3.39113e-19 -0.0100002)
(9.81361e-19 5.84255e-19 -0.00991232)
(8.45365e-19 7.51824e-19 -0.00982264)
(9.05854e-19 6.67988e-19 -0.00973105)
(1.06792e-18 4.32216e-19 -0.00963745)
(1.14055e-18 3.0224e-19 -0.00954173)
(9.82751e-19 4.83072e-19 -0.00944378)
(8.02204e-19 6.96027e-19 -0.00934349)
(7.17223e-19 7.94718e-19 -0.00924071)
(7.70497e-19 6.87435e-19 -0.00913533)
(9.29444e-19 4.27018e-19 -0.00902718)
(9.06807e-19 4.17556e-19 -0.00891612)
(8.64843e-19 1.02664e-18 -0.0127668)
(6.31776e-19 1.12796e-18 -0.0127151)
(5.29111e-19 1.08878e-18 -0.012663)
(4.79088e-19 1.00951e-18 -0.0126105)
(4.5063e-19 9.61916e-19 -0.0125576)
(5.73213e-19 7.82411e-19 -0.0125043)
(6.93168e-19 7.01132e-19 -0.0124505)
(7.01994e-19 8.42994e-19 -0.0123964)
(6.41792e-19 9.97706e-19 -0.0123417)
(5.48791e-19 1.15204e-18 -0.0122866)
(4.42341e-19 1.23976e-18 -0.012231)
(3.97019e-19 1.20921e-18 -0.012175)
(3.84197e-19 1.14113e-18 -0.0121183)
(4.36242e-19 1.04815e-18 -0.0120612)
(6.26728e-19 8.78928e-19 -0.0120035)
(7.22051e-19 8.38137e-19 -0.0119451)
(5.97122e-19 1.06123e-18 -0.0118862)
(3.68561e-19 1.39464e-18 -0.0118267)
(2.118e-19 1.60472e-18 -0.0117665)
(1.74888e-19 1.65307e-18 -0.0117057)
(1.94621e-19 1.60442e-18 -0.0116442)
(1.67394e-19 1.60582e-18 -0.011582)
(1.1698e-19 1.68791e-18 -0.0115192)
(1.91604e-19 1.6787e-18 -0.0114555)
(4.2398e-19 1.49108e-18 -0.0113911)
(5.42069e-19 1.4117e-18 -0.011326)
(5.75794e-19 1.37717e-18 -0.01126)
(7.9984e-19 1.05321e-18 -0.0111931)
(9.94395e-19 7.5816e-19 -0.0111254)
(9.14504e-19 8.31114e-19 -0.0110568)
(8.86856e-19 8.39717e-19 -0.0109872)
(9.48407e-19 7.13372e-19 -0.0109167)
(9.05523e-19 6.95331e-19 -0.0108451)
(8.38273e-19 7.26388e-19 -0.0107724)
(8.50535e-19 6.83946e-19 -0.0106987)
(9.95729e-19 5.01448e-19 -0.0106238)
(9.78276e-19 5.05712e-19 -0.0105476)
(7.94575e-19 7.13235e-19 -0.0104703)
(6.11797e-19 9.1993e-19 -0.0103916)
(5.97726e-19 9.12004e-19 -0.0103115)
(6.62085e-19 8.01146e-19 -0.0102299)
(6.42891e-19 7.99598e-19 -0.0101469)
(6.51067e-19 7.53453e-19 -0.0100623)
(6.9509e-19 6.61691e-19 -0.00997603)
(7.77152e-19 5.4754e-19 -0.00988802)
(8.55259e-19 4.73129e-19 -0.00979818)
(8.12087e-19 5.34085e-19 -0.00970643)
(6.88166e-19 6.7357e-19 -0.00961266)
(6.75718e-19 6.57693e-19 -0.00951676)
(7.10049e-19 5.77425e-19 -0.00941863)
(7.29907e-19 5.40233e-19 -0.00931815)
(6.93515e-19 5.8934e-19 -0.00921519)
(6.00162e-19 7.18681e-19 -0.0091096)
(6.16383e-19 6.99701e-19 -0.00900125)
(7.28505e-19 5.55609e-19 -0.00888998)
(-1.14989e-18 2.12787e-18 -0.0127457)
(-9.84699e-19 1.94279e-18 -0.0126939)
(-7.60509e-19 1.68264e-18 -0.0126418)
(-6.01891e-19 1.47891e-18 -0.0125893)
(-2.65595e-19 1.01416e-18 -0.0125363)
(4.21399e-20 6.27566e-19 -0.012483)
(3.02277e-19 3.45704e-19 -0.0124292)
(4.34559e-19 2.68085e-19 -0.0123749)
(3.56336e-19 4.44344e-19 -0.0123203)
(1.8641e-19 7.14966e-19 -0.0122651)
(-8.53852e-21 1.0083e-18 -0.0122095)
(-4.87725e-21 1.08667e-18 -0.0121533)
(2.63761e-19 8.86863e-19 -0.0120966)
(7.96604e-19 3.88717e-19 -0.0120394)
(1.18222e-18 4.19813e-20 -0.0119816)
(1.21595e-18 7.82613e-20 -0.0119232)
(1.12996e-18 2.66367e-19 -0.0118642)
(1.0274e-18 4.9564e-19 -0.0118046)
(9.84388e-19 6.72344e-19 -0.0117443)
(1.06968e-18 7.08962e-19 -0.0116835)
(1.2539e-18 6.1189e-19 -0.0116219)
(1.41928e-18 5.12237e-19 -0.0115596)
(1.47781e-18 5.1928e-19 -0.0114967)
(1.51471e-18 5.71852e-19 -0.011433)
(1.49445e-18 7.00164e-19 -0.0113685)
(1.34642e-18 9.36415e-19 -0.0113032)
(1.19377e-18 1.18215e-18 -0.0112372)
(1.17264e-18 1.27493e-18 -0.0111702)
(1.31833e-18 1.14686e-18 -0.0111024)
(1.40394e-18 1.05287e-18 -0.0110337)
(1.34448e-18 1.12308e-18 -0.010964)
(1.30255e-18 1.14956e-18 -0.0108934)
(1.34015e-18 1.09929e-18 -0.0108217)
(1.38583e-18 1.05596e-18 -0.0107489)
(1.51616e-18 9.02511e-19 -0.0106751)
(1.66226e-18 7.02301e-19 -0.0106)
(1.67217e-18 6.65797e-19 -0.0105238)
(1.58782e-18 7.65585e-19 -0.0104463)
(1.49623e-18 8.68474e-19 -0.0103674)
(1.45835e-18 9.10496e-19 -0.0102872)
(1.40493e-18 9.38263e-19 -0.0102055)
(1.37619e-18 9.42373e-19 -0.0101224)
(1.37004e-18 9.33276e-19 -0.0100376)
(1.47208e-18 8.18447e-19 -0.00995118)
(1.65448e-18 6.30215e-19 -0.00986301)
(1.66483e-18 6.34748e-19 -0.00977301)
(1.54421e-18 7.74661e-19 -0.00968108)
(1.49801e-18 8.22499e-19 -0.00958713)
(1.43778e-18 8.73834e-19 -0.00949105)
(1.42433e-18 8.75726e-19 -0.00939273)
(1.55723e-18 7.14363e-19 -0.00929205)
(1.68166e-18 5.58312e-19 -0.00918888)
(1.73974e-18 4.86779e-19 -0.00908309)
(1.77749e-18 4.50496e-19 -0.00897452)
(1.77521e-18 4.54286e-19 -0.00886303)
(4.90167e-19 1.15356e-18 -0.012724)
(6.05627e-19 1.17445e-18 -0.0126723)
(5.69846e-19 1.33391e-18 -0.0126201)
(4.50477e-19 1.60303e-18 -0.0125675)
(5.24089e-19 1.63088e-18 -0.0125145)
(9.82701e-19 1.15189e-18 -0.0124611)
(1.37641e-18 6.82959e-19 -0.0124073)
(1.41894e-18 5.61299e-19 -0.012353)
(1.19863e-18 7.31247e-19 -0.0122983)
(9.60898e-19 9.62172e-19 -0.0122431)
(9.32926e-19 1.04267e-18 -0.0121874)
(1.18267e-18 8.42658e-19 -0.0121311)
(1.42361e-18 6.06651e-19 -0.0120744)
(1.42762e-18 5.68063e-19 -0.012017)
(1.29592e-18 6.23901e-19 -0.0119592)
(1.21038e-18 6.61504e-19 -0.0119007)
(1.14619e-18 7.19284e-19 -0.0118416)
(1.03064e-18 8.66453e-19 -0.0117819)
(9.85355e-19 9.61939e-19 -0.0117216)
(9.42469e-19 1.0787e-18 -0.0116606)
(8.10494e-19 1.28785e-18 -0.011599)
(6.11867e-19 1.55531e-18 -0.0115367)
(5.52421e-19 1.65024e-18 -0.0114736)
(7.12764e-19 1.49339e-18 -0.0114098)
(7.37391e-19 1.46815e-18 -0.0113453)
(6.48216e-19 1.59883e-18 -0.0112799)
(7.19898e-19 1.56166e-18 -0.0112138)
(8.73118e-19 1.42369e-18 -0.0111468)
(8.07972e-19 1.51539e-18 -0.0110789)
(5.44961e-19 1.82639e-18 -0.01101)
(4.10501e-19 2.01344e-18 -0.0109403)
(4.99579e-19 1.96637e-18 -0.0108695)
(6.89915e-19 1.7998e-18 -0.0107977)
(6.86735e-19 1.83782e-18 -0.0107248)
(5.26972e-19 2.0705e-18 -0.0106508)
(6.10285e-19 2.02996e-18 -0.0105757)
(8.35814e-19 1.81024e-18 -0.0104993)
(8.08962e-19 1.86651e-18 -0.0104217)
(6.29594e-19 2.09828e-18 -0.0103427)
(4.71547e-19 2.31049e-18 -0.0102624)
(4.29723e-19 2.40285e-18 -0.0101805)
(5.72216e-19 2.29953e-18 -0.0100972)
(8.25452e-19 2.07624e-18 -0.0100123)
(1.14382e-18 1.76195e-18 -0.00992571)
(1.32413e-18 1.55538e-18 -0.00983737)
(1.26002e-18 1.59239e-18 -0.0097472)
(1.05093e-18 1.79371e-18 -0.00965509)
(7.90541e-19 2.07567e-18 -0.00956095)
(7.47749e-19 2.13363e-18 -0.00946468)
(8.67056e-19 2.023e-18 -0.00936616)
(8.95237e-19 2.00448e-18 -0.00926528)
(8.98966e-19 2.00655e-18 -0.00916189)
(9.45786e-19 1.95715e-18 -0.00905588)
(1.02454e-18 1.8656e-18 -0.00894709)
(1.02991e-18 1.83658e-18 -0.00883536)
(-5.53864e-19 1.23951e-18 -0.012724)
(-5.14546e-19 1.22984e-18 -0.0126723)
(-3.29934e-19 1.10248e-18 -0.0126201)
(-1.31645e-19 9.91823e-19 -0.0125675)
(4.1501e-20 9.71418e-19 -0.0125145)
(-3.73994e-20 1.14392e-18 -0.0124611)
(-2.06188e-19 1.32496e-18 -0.0124073)
(-3.79943e-19 1.41828e-18 -0.012353)
(-4.02923e-19 1.39568e-18 -0.0122983)
(-8.53001e-20 1.1601e-18 -0.0122431)
(2.02588e-19 9.9857e-19 -0.0121874)
(1.54807e-19 1.16152e-18 -0.0121311)
(-8.95987e-20 1.4334e-18 -0.0120744)
(-1.16693e-19 1.45445e-18 -0.012017)
(1.24248e-19 1.16461e-18 -0.0119592)
(4.31752e-19 7.94907e-19 -0.0119007)
(6.02886e-19 5.53197e-19 -0.0118416)
(6.84054e-19 4.26419e-19 -0.0117819)
(7.97064e-19 3.01374e-19 -0.0117216)
(8.86674e-19 1.91321e-19 -0.0116606)
(9.09251e-19 1.44873e-19 -0.011599)
(8.69054e-19 1.53277e-19 -0.0115367)
(7.60061e-19 2.45565e-19 -0.0114736)
(6.05996e-19 3.67992e-19 -0.0114098)
(5.76543e-19 3.57445e-19 -0.0113453)
(5.71343e-19 3.32381e-19 -0.0112799)
(3.34452e-19 5.30486e-19 -0.0112138)
(1.42251e-19 6.78496e-19 -0.0111468)
(2.2918e-19 5.66756e-19 -0.0110789)
(4.35665e-19 3.7313e-19 -0.01101)
(5.42916e-19 3.05521e-19 -0.0109403)
(5.42638e-19 3.71459e-19 -0.0108695)
(5.18243e-19 4.49622e-19 -0.0107977)
(6.88191e-19 3.24677e-19 -0.0107248)
(9.40571e-19 1.34043e-19 -0.0106508)
(9.17761e-19 1.9472e-19 -0.0105757)
(7.99425e-19 3.05416e-19 -0.0104993)
(7.80368e-19 3.18365e-19 -0.0104217)
(7.70877e-19 3.37323e-19 -0.0103427)
(7.9412e-19 3.43802e-19 -0.0102624)
(8.09867e-19 3.61931e-19 -0.0101805)
(8.07182e-19 3.88099e-19 -0.0100972)
(6.54891e-19 5.50271e-19 -0.0100123)
(3.15715e-19 8.57445e-19 -0.00992571)
(6.05114e-20 1.0461e-18 -0.00983737)
(-2.6878e-20 1.06779e-18 -0.0097472)
(8.31988e-20 9.15969e-19 -0.00965509)
(2.76761e-19 7.00081e-19 -0.00956095)
(3.01077e-19 6.50879e-19 -0.00946468)
(2.59756e-19 6.65013e-19 -0.00936616)
(3.00539e-19 5.96919e-19 -0.00926528)
(3.38184e-19 5.20002e-19 -0.00916189)
(2.86376e-19 5.34337e-19 -0.00905588)
(1.71256e-19 6.03018e-19 -0.00894709)
(5.09655e-20 6.69196e-19 -0.00883536)
(1.91341e-19 9.53767e-19 -0.0127457)
(1.99764e-19 8.83069e-19 -0.0126939)
(2.1003e-19 8.36259e-19 -0.0126418)
(3.99868e-19 6.61274e-19 -0.0125893)
(5.90127e-19 4.82229e-19 -0.0125363)
(6.42713e-19 4.11784e-19 -0.012483)
(3.645e-19 6.66431e-19 -0.0124292)
(1.20659e-19 9.04652e-19 -0.0123749)
(4.32075e-19 7.0665e-19 -0.0123203)
(8.44815e-19 4.13108e-19 -0.0122651)
(1.17613e-18 1.74909e-19 -0.0122095)
(1.25351e-18 1.52998e-19 -0.0121533)
(9.31558e-19 4.94282e-19 -0.0120966)
(3.55157e-19 1.0789e-18 -0.0120394)
(-1.54384e-19 1.59286e-18 -0.0119816)
(-2.4995e-19 1.7067e-18 -0.0119232)
(-6.21189e-20 1.55167e-18 -0.0118642)
(1.91926e-19 1.36187e-18 -0.0118046)
(2.91222e-19 1.31717e-18 -0.0117443)
(2.31372e-19 1.39798e-18 -0.0116835)
(1.02572e-19 1.53326e-18 -0.0116219)
(1.98342e-20 1.64098e-18 -0.0115596)
(4.84652e-20 1.65447e-18 -0.0114967)
(8.84111e-20 1.67126e-18 -0.011433)
(9.6098e-20 1.72081e-18 -0.0113685)
(1.61811e-19 1.71262e-18 -0.0113032)
(2.96053e-19 1.65717e-18 -0.0112372)
(4.13103e-19 1.61e-18 -0.0111702)
(5.07613e-19 1.54315e-18 -0.0111024)
(6.33432e-19 1.41292e-18 -0.0110337)
(9.50044e-19 1.1402e-18 -0.010964)
(1.20261e-18 9.36091e-19 -0.0108934)
(1.17392e-18 9.79277e-19 -0.0108217)
(1.08236e-18 1.09866e-18 -0.0107489)
(9.47983e-19 1.23233e-18 -0.0106751)
(7.29769e-19 1.38881e-18 -0.0106)
(6.52925e-19 1.41144e-18 -0.0105238)
(6.88677e-19 1.34282e-18 -0.0104463)
(7.324e-19 1.28113e-18 -0.0103674)
(7.19807e-19 1.27055e-18 -0.0102872)
(6.22357e-19 1.32225e-18 -0.0102055)
(6.68787e-19 1.25066e-18 -0.0101224)
(6.86522e-19 1.19964e-18 -0.0100376)
(5.0766e-19 1.33636e-18 -0.00995118)
(3.60903e-19 1.45537e-18 -0.00986301)
(3.65046e-19 1.44988e-18 -0.00977301)
(4.06424e-19 1.40901e-18 -0.00968108)
(3.54808e-19 1.43593e-18 -0.00958713)
(4.139e-19 1.3586e-18 -0.00949105)
(5.31506e-19 1.2327e-18 -0.00939273)
(4.31562e-19 1.29144e-18 -0.00929205)
(4.1673e-19 1.26916e-18 -0.00918888)
(5.15505e-19 1.14895e-18 -0.00908309)
(5.61144e-19 1.09224e-18 -0.00897452)
(5.84564e-19 1.06973e-18 -0.00886303)
(5.39058e-19 1.11962e-18 -0.00874844)
(5.66939e-19 1.12009e-18 -0.00863058)
(7.51258e-19 9.74163e-19 -0.00850926)
(9.03146e-19 8.34772e-19 -0.00838427)
(-1.00916e-18 2.36348e-18 -0.0127668)
(-9.54387e-19 2.34833e-18 -0.0127151)
(-5.72931e-19 2.06775e-18 -0.012663)
(-3.06998e-19 1.89904e-18 -0.0126105)
(-2.4057e-19 1.84398e-18 -0.0125576)
(-1.71406e-19 1.77154e-18 -0.0125043)
(-8.72658e-20 1.6739e-18 -0.0124506)
(-7.19414e-20 1.6836e-18 -0.0123964)
(-4.00758e-20 1.64599e-18 -0.0123417)
(1.16553e-19 1.47195e-18 -0.0122866)
(2.94716e-19 1.27931e-18 -0.012231)
(3.31574e-19 1.21023e-18 -0.012175)
(3.41233e-19 1.17791e-18 -0.0121183)
(3.76787e-19 1.14246e-18 -0.0120612)
(3.19444e-19 1.24532e-18 -0.0120035)
(2.71202e-19 1.3645e-18 -0.0119451)
(4.84476e-19 1.26746e-18 -0.0118862)
(8.31059e-19 1.0418e-18 -0.0118267)
(1.01907e-18 9.21647e-19 -0.0117665)
(1.07106e-18 8.9692e-19 -0.0117057)
(1.16397e-18 8.21216e-19 -0.0116442)
(1.22395e-18 7.8027e-19 -0.011582)
(1.21812e-18 8.17473e-19 -0.0115192)
(1.21093e-18 8.86962e-19 -0.0114555)
(1.22098e-18 9.49328e-19 -0.0113911)
(1.28722e-18 9.66459e-19 -0.011326)
(1.09173e-18 1.15792e-18 -0.01126)
(5.8254e-19 1.55196e-18 -0.0111931)
(1.67972e-19 1.85351e-18 -0.0111254)
(2.96302e-19 1.73852e-18 -0.0110568)
(6.3765e-19 1.43741e-18 -0.0109872)
(7.06339e-19 1.30745e-18 -0.0109167)
(8.08413e-19 1.12926e-18 -0.0108451)
(9.35851e-19 9.44329e-19 -0.0107724)
(6.40902e-19 1.12198e-18 -0.0106987)
(1.56593e-19 1.46962e-18 -0.0106238)
(1.42639e-20 1.54986e-18 -0.0105476)
(1.70772e-19 1.3896e-18 -0.0104703)
(3.13759e-19 1.26298e-18 -0.0103916)
(2.79786e-19 1.27863e-18 -0.0103115)
(2.33862e-19 1.31061e-18 -0.0102299)
(2.42623e-19 1.30969e-18 -0.0101469)
(1.93282e-19 1.34505e-18 -0.0100623)
(8.17402e-20 1.43451e-18 -0.00997603)
(1.4843e-20 1.516e-18 -0.00988802)
(2.15591e-20 1.55045e-18 -0.00979818)
(4.38927e-20 1.55635e-18 -0.00970643)
(1.11464e-19 1.5071e-18 -0.00961266)
(1.5056e-19 1.4787e-18 -0.00951676)
(1.04548e-19 1.50302e-18 -0.00941863)
(5.26304e-20 1.52916e-18 -0.00931815)
(1.0131e-19 1.47955e-18 -0.00921519)
(2.588e-19 1.33605e-18 -0.0091096)
(4.38833e-19 1.17154e-18 -0.00900125)
(5.49825e-19 1.06191e-18 -0.00888998)
(6.75974e-19 9.47874e-19 -0.00877562)
(7.73608e-19 8.73322e-19 -0.00865799)
(7.34221e-19 9.13241e-19 -0.0085369)
(6.50529e-19 9.73196e-19 -0.00841215)
(6.6841e-19 9.31496e-19 -0.00828353)
(-3.75688e-19 1.75079e-19 -0.0127873)
(-5.49654e-19 4.49747e-19 -0.0127357)
(-4.20119e-19 4.61964e-19 -0.0126836)
(-2.73503e-19 4.01186e-19 -0.0126312)
(-3.18156e-19 4.83156e-19 -0.0125783)
(-3.7072e-19 6.0206e-19 -0.0125251)
(-4.2756e-19 7.5425e-19 -0.0124714)
(-5.63157e-19 9.52405e-19 -0.0124172)
(-5.98576e-19 1.08953e-18 -0.0123626)
(-3.54766e-19 1.00718e-18 -0.0123076)
(7.19041e-20 7.71591e-19 -0.012252)
(3.14225e-19 6.62088e-19 -0.012196)
(1.58482e-19 8.66615e-19 -0.0121395)
(-3.39048e-21 1.06835e-18 -0.0120824)
(-5.81453e-20 1.18624e-18 -0.0120247)
(-7.12345e-20 1.27896e-18 -0.0119665)
(-3.94211e-20 1.33749e-18 -0.0119076)
(-2.04717e-20 1.37827e-18 -0.0118482)
(-1.08641e-19 1.50452e-18 -0.0117881)
(-3.53863e-19 1.73611e-18 -0.0117274)
(-5.54539e-19 1.90286e-18 -0.0116659)
(-4.64379e-19 1.80422e-18 -0.0116038)
(-1.14441e-19 1.50917e-18 -0.011541)
(1.04395e-19 1.3065e-18 -0.0114775)
(8.94291e-20 1.29236e-18 -0.0114132)
(-1.38726e-19 1.43639e-18 -0.0113481)
(-6.24263e-19 1.78184e-18 -0.0112822)
(-9.74561e-19 2.05921e-18 -0.0112154)
(-8.11387e-19 1.97449e-18 -0.0111478)
(-5.78845e-19 1.8342e-18 -0.0110793)
(-6.82416e-19 1.92099e-18 -0.0110098)
(-9.00802e-19 2.09275e-18 -0.0109393)
(-9.28569e-19 2.12913e-18 -0.0108679)
(-7.58288e-19 1.98108e-18 -0.0107953)
(-6.22569e-19 1.83692e-18 -0.0107217)
(-5.9635e-19 1.80488e-18 -0.0106469)
(-5.12398e-19 1.75062e-18 -0.0105709)
(-2.43333e-19 1.52214e-18 -0.0104936)
(-4.03975e-20 1.3187e-18 -0.010415)
(-2.89396e-20 1.25985e-18 -0.0103351)
(3.26868e-20 1.18366e-18 -0.0102537)
(8.60503e-20 1.11545e-18 -0.0101708)
(3.98445e-20 1.12558e-18 -0.0100863)
(1.28407e-19 1.02627e-18 -0.0100002)
(3.29664e-19 8.52321e-19 -0.00991232)
(2.89794e-19 8.65442e-19 -0.00982264)
(2.96509e-20 1.05194e-18 -0.00973105)
(-1.99766e-19 1.21099e-18 -0.00963745)
(-3.06012e-19 1.27063e-18 -0.00954173)
(-3.59896e-19 1.29494e-18 -0.00944378)
(-3.90662e-19 1.31603e-18 -0.00934349)
(-3.37771e-19 1.27488e-18 -0.00924071)
(-2.79733e-19 1.22139e-18 -0.00913533)
(-2.89005e-19 1.20911e-18 -0.00902718)
(-2.18495e-19 1.12531e-18 -0.00891612)
(-3.94635e-20 9.5229e-19 -0.00880197)
(9.3948e-20 8.02238e-19 -0.00868457)
(3.91656e-20 7.97309e-19 -0.0085637)
(-1.15741e-19 8.72236e-19 -0.00843919)
(-1.70761e-19 8.75304e-19 -0.0083108)
(-7.28274e-20 7.60596e-19 -0.00817831)
(1.50878e-19 5.49245e-19 -0.00804146)
(3.55452e-19 3.61701e-19 -0.00790002)
(3.15318e-19 3.75005e-19 -0.00775369)
(2.01559e-19 4.38602e-19 -0.00760219)
(2.47695e-19 3.61731e-19 -0.00744523)
(3.76541e-19 2.21038e-19 -0.00728249)
(4.35697e-19 1.40281e-19 -0.00711364)
(4.52399e-19 9.09255e-20 -0.00693837)
(5.38303e-19 -1.86308e-20 -0.00675634)
(5.64278e-19 -8.34881e-20 -0.0065672)
(4.93498e-19 -7.68427e-20 -0.0063706)
(4.20572e-19 -7.02195e-20 -0.00616592)
(3.93854e-19 -1.0475e-19 -0.00595232)
(4.15424e-19 -1.72731e-19 -0.00572915)
(4.24581e-19 -2.33031e-19 -0.00549604)
(3.77478e-19 -2.54472e-19 -0.00525283)
(2.57121e-19 -2.22957e-19 -0.00499954)
(1.54376e-19 -2.03384e-19 -0.00473648)
(8.83482e-20 -2.11765e-19 -0.0044643)
(2.47727e-20 -2.20602e-19 -0.00418401)
(-2.99412e-20 -2.32082e-19 -0.00389694)
(-6.08447e-20 -2.60163e-19 -0.00360466)
(-8.97067e-20 -2.88674e-19 -0.00330888)
(-1.10476e-19 -3.22691e-19 -0.00301126)
(-1.45039e-19 -3.38945e-19 -0.00271331)
(-1.80872e-19 -3.41986e-19 -0.00241625)
(-1.89608e-19 -3.48967e-19 -0.00212102)
(-1.84744e-19 -3.45262e-19 -0.00182826)
(-1.96278e-19 -3.01303e-19 -0.00153836)
(-2.00525e-19 -2.28683e-19 -0.00125155)
(-1.62058e-19 -1.48513e-19 -0.000967923)
(-8.0791e-20 -5.01214e-20 -0.000687513)
(4.12005e-20 7.44745e-20 -0.000410308)
(-7.05853e-20 -8.29454e-20 -0.000136283)
(-3.54913e-19 1.00631e-18 -0.0128072)
(-1.54887e-19 9.56625e-19 -0.0127556)
(-2.4426e-19 1.09371e-18 -0.0127036)
(-2.8643e-19 1.12566e-18 -0.0126512)
(-4.71736e-20 9.67018e-19 -0.0125984)
(3.45406e-19 7.14334e-19 -0.0125452)
(5.50556e-19 6.02476e-19 -0.0124915)
(5.60336e-19 6.1793e-19 -0.0124375)
(6.02946e-19 6.45865e-19 -0.0123829)
(5.99982e-19 6.5689e-19 -0.0123279)
(6.26996e-19 6.04905e-19 -0.0122724)
(7.12121e-19 4.80516e-19 -0.0122165)
(7.85723e-19 4.01012e-19 -0.01216)
(7.25597e-19 4.0811e-19 -0.0121029)
(5.94465e-19 4.22274e-19 -0.0120454)
(4.81931e-19 4.24772e-19 -0.0119872)
(4.48635e-19 3.90061e-19 -0.0119284)
(6.04001e-19 2.17093e-19 -0.011869)
(6.85514e-19 7.59962e-20 -0.011809)
(4.08731e-19 2.1388e-19 -0.0117483)
(-2.21125e-20 4.91335e-19 -0.011687)
(-2.91136e-19 6.63551e-19 -0.011625)
(-3.84215e-19 6.87411e-19 -0.0115622)
(-4.06583e-19 6.37227e-19 -0.0114988)
(-3.82777e-19 5.60927e-19 -0.0114345)
(-3.34253e-19 4.76679e-19 -0.0113695)
(-2.70086e-19 4.09671e-19 -0.0113037)
(-3.31675e-19 4.93936e-19 -0.011237)
(-5.39107e-19 7.17241e-19 -0.0111695)
(-6.09342e-19 8.32156e-19 -0.0111011)
(-4.5108e-19 7.79688e-19 -0.0110317)
(-2.5287e-19 7.16886e-19 -0.0109613)
(-2.37745e-19 8.09129e-19 -0.0108899)
(-4.49278e-19 1.06709e-18 -0.0108175)
(-6.17492e-19 1.29095e-18 -0.0107439)
(-6.42722e-19 1.41317e-18 -0.0106692)
(-8.23309e-19 1.62588e-18 -0.0105933)
(-1.10226e-18 1.87953e-18 -0.0105162)
(-1.15537e-18 1.94898e-18 -0.0104377)
(-9.81125e-19 1.85063e-18 -0.0103579)
(-7.9503e-19 1.73879e-18 -0.0102766)
(-7.34627e-19 1.70218e-18 -0.0101939)
(-7.78357e-19 1.74554e-18 -0.0101095)
(-7.91867e-19 1.76787e-18 -0.0100235)
(-7.28134e-19 1.70962e-18 -0.00993584)
(-6.99126e-19 1.66594e-18 -0.00984631)
(-6.83344e-19 1.64694e-18 -0.00975487)
(-6.53284e-19 1.65945e-18 -0.00966143)
(-5.63545e-19 1.65355e-18 -0.00956588)
(-3.75978e-19 1.57971e-18 -0.00946811)
(-2.06785e-19 1.50874e-18 -0.00936799)
(-1.6042e-19 1.53864e-18 -0.0092654)
(-1.44246e-19 1.59038e-18 -0.0091602)
(-9.12061e-20 1.61744e-18 -0.00905225)
(-3.56027e-20 1.63129e-18 -0.00894139)
(-1.26567e-20 1.65731e-18 -0.00882745)
(4.40928e-21 1.67759e-18 -0.00871025)
(4.48003e-20 1.67155e-18 -0.00858961)
(1.33906e-19 1.62843e-18 -0.00846531)
(3.26705e-19 1.51077e-18 -0.00833715)
(5.2546e-19 1.38682e-18 -0.00820488)
(6.98992e-19 1.28433e-18 -0.00806826)
(8.82347e-19 1.17025e-18 -0.00792704)
(9.71552e-19 1.12706e-18 -0.00778094)
(8.40652e-19 1.26011e-18 -0.00762966)
(6.68501e-19 1.42506e-18 -0.0074729)
(6.53988e-19 1.46925e-18 -0.00731036)
(7.27763e-19 1.4371e-18 -0.00714169)
(7.4704e-19 1.43584e-18 -0.00696657)
(7.19648e-19 1.45464e-18 -0.00678467)
(6.55251e-19 1.49105e-18 -0.00659563)
(5.59268e-19 1.54823e-18 -0.00639909)
(5.41265e-19 1.54784e-18 -0.00619449)
(6.20905e-19 1.4742e-18 -0.00598098)
(7.07517e-19 1.38452e-18 -0.00575783)
(7.35399e-19 1.32756e-18 -0.00552466)
(7.31658e-19 1.28413e-18 -0.00528126)
(7.04288e-19 1.25176e-18 -0.00502764)
(7.03151e-19 1.19068e-18 -0.00476409)
(7.04684e-19 1.11295e-18 -0.00449121)
(6.67455e-19 1.04837e-18 -0.00421)
(6.14745e-19 9.78724e-19 -0.00392177)
(5.54438e-19 9.05235e-19 -0.00362812)
(4.71998e-19 8.35328e-19 -0.00333078)
(3.58517e-19 7.74896e-19 -0.00303144)
(2.79321e-19 6.80581e-19 -0.00273166)
(2.42057e-19 5.51352e-19 -0.00243269)
(2.12072e-19 4.21017e-19 -0.00213551)
(1.70646e-19 3.05799e-19 -0.00184078)
(1.15078e-19 2.15255e-19 -0.00154891)
(6.93927e-20 1.39623e-19 -0.00126014)
(5.27433e-20 7.31843e-20 -0.000974576)
(4.35534e-20 4.52815e-20 -0.000692242)
(5.18967e-20 5.73281e-20 -0.000413133)
(-2.39862e-20 -3.30893e-20 -0.000137223)
(6.42881e-19 6.48612e-19 -0.0128265)
(6.09786e-19 6.45667e-19 -0.0127749)
(2.61174e-19 8.49493e-19 -0.012723)
(3.10997e-21 1.01439e-18 -0.0126706)
(-1.31337e-20 1.04979e-18 -0.0126178)
(-3.11258e-21 1.04002e-18 -0.0125647)
(-1.12514e-19 1.08153e-18 -0.0125111)
(-1.67219e-19 1.09256e-18 -0.012457)
(-3.66002e-19 1.16735e-18 -0.0124025)
(-6.92887e-19 1.31937e-18 -0.0123476)
(-7.43037e-19 1.26829e-18 -0.0122921)
(-5.24672e-19 1.04513e-18 -0.0122362)
(-5.86182e-19 1.00637e-18 -0.0121798)
(-1.13477e-18 1.26543e-18 -0.0121228)
(-1.51772e-18 1.42654e-18 -0.0120653)
(-1.48405e-18 1.32688e-18 -0.0120072)
(-1.45144e-18 1.22025e-18 -0.0119485)
(-1.66477e-18 1.26117e-18 -0.0118892)
(-1.77932e-18 1.21354e-18 -0.0118292)
(-1.7168e-18 1.04137e-18 -0.0117686)
(-1.71104e-18 9.23824e-19 -0.0117074)
(-1.75123e-18 8.59825e-19 -0.0116454)
(-1.73792e-18 7.75558e-19 -0.0115827)
(-1.62324e-18 6.42089e-19 -0.0115193)
(-1.51804e-18 5.25004e-19 -0.0114552)
(-1.47066e-18 4.56966e-19 -0.0113903)
(-1.32866e-18 3.11366e-19 -0.0113245)
(-1.02258e-18 7.16745e-20 -0.0112579)
(-7.23574e-19 -1.37611e-19 -0.0111905)
(-6.48647e-19 -1.88798e-19 -0.0111221)
(-7.03322e-19 -1.78836e-19 -0.0110528)
(-6.58938e-19 -2.51156e-19 -0.0109825)
(-5.47e-19 -3.64759e-19 -0.0109112)
(-4.27858e-19 -4.63418e-19 -0.0108389)
(-3.61924e-19 -5.13641e-19 -0.0107654)
(-5.72816e-19 -3.6145e-19 -0.0106908)
(-9.70368e-19 -6.47182e-20 -0.010615)
(-1.13042e-18 1.17797e-19 -0.010538)
(-1.09757e-18 1.79496e-19 -0.0104597)
(-1.11508e-18 2.62264e-19 -0.0103799)
(-1.19807e-18 3.79439e-19 -0.0102988)
(-1.20202e-18 4.39935e-19 -0.0102162)
(-1.16665e-18 4.8016e-19 -0.0101319)
(-1.26241e-18 6.01541e-19 -0.0100461)
(-1.34535e-18 7.13122e-19 -0.00995852)
(-1.291e-18 7.3085e-19 -0.00986913)
(-9.60232e-19 5.56637e-19 -0.00977785)
(-5.24269e-19 2.92443e-19 -0.00968456)
(-3.64374e-19 2.13965e-19 -0.00958916)
(-5.28134e-19 3.63652e-19 -0.00949155)
(-5.94162e-19 4.36953e-19 -0.0093916)
(-4.55673e-19 3.68537e-19 -0.00928919)
(-3.94277e-19 3.59195e-19 -0.00918417)
(-5.28048e-19 4.8894e-19 -0.00907641)
(-7.19351e-19 6.50555e-19 -0.00896574)
(-7.6752e-19 7.08609e-19 -0.008852)
(-8.13754e-19 7.68847e-19 -0.008735)
(-9.33094e-19 8.74075e-19 -0.00861456)
(-1.03766e-18 9.69138e-19 -0.00849048)
(-1.05202e-18 9.98303e-19 -0.00836253)
(-9.03425e-19 8.98224e-19 -0.00823048)
(-6.65547e-19 7.23432e-19 -0.00809408)
(-4.66145e-19 5.72232e-19 -0.00795307)
(-2.86926e-19 4.30266e-19 -0.00780718)
(-1.76345e-19 3.34964e-19 -0.00765612)
(-1.2821e-19 2.92144e-19 -0.00749956)
(-1.39983e-19 2.92584e-19 -0.00733721)
(-2.71221e-19 3.72712e-19 -0.00716872)
(-4.37927e-19 4.75308e-19 -0.00699376)
(-5.29736e-19 5.27585e-19 -0.00681198)
(-5.11113e-19 5.00324e-19 -0.00662304)
(-4.06246e-19 4.16449e-19 -0.00642657)
(-2.78202e-19 3.16914e-19 -0.00622205)
(-2.52349e-19 2.86576e-19 -0.00600863)
(-3.04572e-19 3.03357e-19 -0.00578551)
(-3.06367e-19 2.80478e-19 -0.00555229)
(-2.59268e-19 2.18681e-19 -0.00530873)
(-2.12718e-19 1.51095e-19 -0.00505481)
(-2.4546e-19 1.38938e-19 -0.00479079)
(-3.38827e-19 1.65298e-19 -0.00451725)
(-4.14192e-19 1.78349e-19 -0.00423516)
(-4.22351e-19 1.42204e-19 -0.00394584)
(-3.89383e-19 7.20506e-20 -0.00365088)
(-4.10411e-19 3.4107e-20 -0.00335203)
(-4.56198e-19 1.18108e-20 -0.00305104)
(-4.43775e-19 -4.97446e-20 -0.00274947)
(-3.71871e-19 -1.49029e-19 -0.00244866)
(-3.13211e-19 -2.32599e-19 -0.00214958)
(-2.90309e-19 -2.78596e-19 -0.00185294)
(-2.83988e-19 -2.92985e-19 -0.00155916)
(-2.75461e-19 -2.79425e-19 -0.00126849)
(-2.41892e-19 -2.4888e-19 -0.000981039)
(-1.68283e-19 -2.01875e-19 -0.000696837)
(-8.57738e-20 -1.09031e-19 -0.000415877)
(-5.87382e-20 -8.29867e-20 -0.000138135)
(-4.55149e-19 6.74961e-19 -0.012845)
(-7.06619e-19 6.87025e-19 -0.0127935)
(-8.02237e-19 5.77469e-19 -0.0127416)
(-7.12859e-19 4.04741e-19 -0.0126893)
(-5.65037e-19 2.31169e-19 -0.0126365)
(-5.26493e-19 1.29214e-19 -0.0125834)
(-4.92943e-19 5.79052e-20 -0.0125298)
(-6.61438e-19 1.37047e-19 -0.0124758)
(-8.58812e-19 2.48661e-19 -0.0124214)
(-1.03392e-18 3.83787e-19 -0.0123665)
(-1.10697e-18 4.57718e-19 -0.0123111)
(-9.45514e-19 3.75935e-19 -0.0122552)
(-9.47896e-19 3.71053e-19 -0.0121988)
(-1.02252e-18 4.3978e-19 -0.0121419)
(-9.3871e-19 4.55515e-19 -0.0120845)
(-9.52218e-19 5.14635e-19 -0.0120264)
(-1.05254e-18 6.26565e-19 -0.0119678)
(-1.06256e-18 6.90797e-19 -0.0119086)
(-1.09374e-18 7.82115e-19 -0.0118487)
(-1.22679e-18 9.35544e-19 -0.0117881)
(-1.31911e-18 1.07158e-18 -0.0117269)
(-1.26768e-18 1.10425e-18 -0.0116651)
(-1.06109e-18 1.03617e-18 -0.0116025)
(-8.08408e-19 9.18932e-19 -0.0115391)
(-5.69129e-19 7.95485e-19 -0.0114751)
(-5.06401e-19 7.66755e-19 -0.0114102)
(-4.08566e-19 7.12363e-19 -0.0113445)
(-1.62455e-19 5.66902e-19 -0.011278)
(-1.39622e-19 5.39758e-19 -0.0112106)
(-3.95095e-19 6.54987e-19 -0.0111423)
(-6.11675e-19 7.38087e-19 -0.0110731)
(-5.56803e-19 6.4367e-19 -0.0110029)
(-4.13154e-19 4.9914e-19 -0.0109317)
(-4.43542e-19 4.54555e-19 -0.0108595)
(-4.557e-19 3.82237e-19 -0.0107861)
(-2.65245e-19 1.74776e-19 -0.0107116)
(2.88328e-20 -8.31047e-20 -0.0106359)
(1.48689e-19 -2.05173e-19 -0.010559)
(-1.8683e-20 -1.41081e-19 -0.0104807)
(-1.29116e-19 -1.20835e-19 -0.0104011)
(-1.33117e-19 -1.64851e-19 -0.0103201)
(-9.0302e-20 -2.18242e-19 -0.0102376)
(-1.945e-19 -1.57085e-19 -0.0101535)
(-3.33777e-19 -6.85156e-20 -0.0100678)
(-3.08972e-19 -7.46728e-20 -0.00998032)
(-3.37366e-19 -3.80546e-20 -0.00989107)
(-5.67151e-19 1.29141e-19 -0.00979992)
(-7.92904e-19 2.65015e-19 -0.00970678)
(-6.97951e-19 1.86702e-19 -0.00961153)
(-5.75498e-19 1.001e-19 -0.00951408)
(-5.61338e-19 9.6355e-20 -0.00941429)
(-5.25449e-19 5.53403e-20 -0.00931204)
(-4.30178e-19 -3.05048e-20 -0.0092072)
(-4.43115e-19 -4.57887e-20 -0.00909961)
(-5.53352e-19 7.49009e-21 -0.00898913)
(-5.78548e-19 9.98402e-22 -0.00887557)
(-6.14904e-19 -1.25957e-21 -0.00875877)
(-6.55659e-19 5.65697e-21 -0.00863853)
(-6.27099e-19 -2.69874e-20 -0.00851464)
(-6.94315e-19 -4.18983e-21 -0.0083869)
(-8.54732e-19 7.7189e-20 -0.00825505)
(-8.46575e-19 4.80452e-20 -0.00811887)
(-7.18408e-19 -6.4039e-20 -0.00797807)
(-6.51582e-19 -1.45053e-19 -0.00783239)
(-6.47557e-19 -1.93281e-19 -0.00768152)
(-6.78033e-19 -2.21605e-19 -0.00752517)
(-7.07048e-19 -2.48615e-19 -0.007363)
(-6.92797e-19 -2.97237e-19 -0.00719468)
(-6.47997e-19 -3.56784e-19 -0.00701987)
(-6.29473e-19 -3.93378e-19 -0.00683822)
(-6.34947e-19 -4.0984e-19 -0.00664938)
(-6.37058e-19 -4.23843e-19 -0.00645298)
(-6.30656e-19 -4.48701e-19 -0.00624855)
(-6.19573e-19 -4.79119e-19 -0.00603522)
(-6.1137e-19 -5.02935e-19 -0.00581214)
(-6.09372e-19 -5.18369e-19 -0.00557888)
(-6.2804e-19 -5.20721e-19 -0.00533518)
(-6.08323e-19 -5.46923e-19 -0.00508099)
(-5.22825e-19 -6.16946e-19 -0.00481653)
(-4.04207e-19 -7.073e-19 -0.00454237)
(-3.02711e-19 -7.85162e-19 -0.00425945)
(-3.05502e-19 -7.94928e-19 -0.00396908)
(-3.70208e-19 -7.65236e-19 -0.00367287)
(-4.3338e-19 -7.34028e-19 -0.00337258)
(-4.70577e-19 -7.14248e-19 -0.00306999)
(-4.84349e-19 -7.04587e-19 -0.00276671)
(-4.80129e-19 -6.97108e-19 -0.00246411)
(-4.56107e-19 -6.90713e-19 -0.0021632)
(-4.19255e-19 -6.73002e-19 -0.00186471)
(-3.75306e-19 -6.34594e-19 -0.00156908)