/*--------------------------------*- C++ -*----------------------------------*\
  =========                 |
  \\      /  F ield         | OpenFOAM: The Open Source CFD Toolbox
   \\    /   O peration     | Website:  https://openfoam.org
    \\  /    A nd           | Version:  7
     \\/     M anipulation  |
\*---------------------------------------------------------------------------*/
FoamFile
{
    version     2.0;
    format      ascii;
    class       surfaceScalarField;
    location    "108000";
    object      phi;
}
// * * * * * * * * * * * * * * * * * * * * * * * * * * * * * * * * * * * * * //

dimensions      [0 3 -1 0 0 0 0];

internalField   nonuniform List<scalar> 
9375
(
-4.47813e-24
1.01331e-22
7.85066e-24
5.62177e-23
-1.8659e-24
3.99467e-23
1.18329e-24
1.26232e-22
-9.2029e-24
3.10142e-23
1.14741e-22
2.53733e-24
1.28334e-22
4.4328e-24
-2.26053e-25
-2.47473e-26
7.61979e-23
-1.12856e-23
5.99381e-23
-2.9826e-24
1.37582e-22
9.56691e-25
3.42682e-23
-4.45737e-24
9.26907e-23
-9.49557e-24
1.05459e-23
-1.30312e-23
2.22478e-23
-3.83545e-24
1.53151e-22
7.29479e-24
9.89032e-23
-1.99589e-25
3.01305e-23
5.91304e-25
8.90261e-23
-8.62206e-24
8.69478e-23
-5.34323e-24
1.14624e-22
-5.60039e-24
1.13998e-22
-4.41626e-24
1.10478e-22
-8.70715e-24
1.08112e-22
-2.33156e-24
9.01059e-23
-1.26357e-23
-4.4724e-23
-1.60643e-23
2.76022e-23
-2.03613e-23
-6.10577e-24
-1.85463e-23
-3.39597e-23
-1.9103e-23
6.6833e-23
-1.11271e-23
1.22346e-23
-5.49576e-24
1.09564e-22
-1.13908e-23
-2.98261e-23
-5.73461e-24
2.17388e-23
8.56229e-23
1.65525e-24
1.19244e-22
5.74567e-24
-6.89997e-24
-7.16718e-25
8.58565e-23
-1.01165e-23
1.453e-22
-3.9373e-24
1.2073e-22
1.32059e-24
1.4573e-22
-4.58559e-24
1.30173e-22
-8.89453e-24
2.31431e-23
-1.14755e-23
6.94641e-24
-4.39145e-24
2.09279e-22
6.74014e-24
1.48069e-22
-5.73405e-25
-7.23865e-25
2.04828e-24
7.58467e-23
-7.942e-24
8.10529e-23
-6.15927e-24
4.00122e-23
-4.69375e-24
1.18781e-22
-4.73458e-24
7.82725e-23
-8.61944e-24
1.12786e-22
-4.13834e-24
6.17616e-23
-1.16494e-23
-3.5419e-23
-1.72647e-23
1.5655e-23
-2.01146e-23
-4.0799e-23
-1.79683e-23
-4.91014e-23
-1.93759e-23
3.92857e-23
-1.00795e-23
7.71564e-23
-7.33825e-24
7.94066e-23
-1.07072e-23
-1.92318e-23
-5.19069e-24
2.4848e-24
3.1318e-24
5.80804e-23
-7.41575e-25
-6.80285e-24
-3.57857e-24
2.17873e-23
2.3724e-24
9.50685e-24
1.17907e-22
1.95426e-24
1.61781e-22
6.93542e-24
-3.38131e-24
1.05529e-24
6.00809e-23
-1.03868e-23
1.54453e-22
-3.01836e-24
1.01307e-22
1.17325e-24
8.93647e-23
-6.31371e-24
1.29309e-22
-8.84922e-24
8.04207e-23
-8.84573e-24
1.1142e-22
-5.4616e-24
1.2975e-22
4.84635e-24
1.44883e-22
-5.63372e-25
5.55181e-24
3.17944e-24
5.87773e-23
-8.45032e-24
1.04473e-22
-5.44021e-24
4.84479e-23
-4.47002e-24
1.58434e-22
-4.64897e-24
1.64868e-23
-9.55703e-24
1.51667e-22
-5.10897e-24
4.5136e-23
-1.11135e-23
-2.32076e-23
-1.87163e-23
-9.78588e-23
-1.95338e-23
-4.70506e-23
-1.72925e-23
-6.62084e-23
-1.78702e-23
4.06814e-23
-1.11122e-23
8.60528e-23
-7.47031e-24
1.15834e-22
-1.0752e-23
-7.8319e-24
-4.68486e-24
4.17072e-23
3.42182e-24
1.65518e-22
-1.01177e-24
-5.819e-23
-2.21727e-24
3.00798e-23
2.92629e-24
1.94384e-23
4.3071e-24
9.27411e-23
9.33011e-24
1.71704e-23
6.5405e-24
8.73004e-23
-4.62877e-24
-4.24905e-23
-9.62885e-25
-1.16999e-24
-4.37057e-24
4.62155e-23
-7.46416e-24
8.72038e-23
-1.16444e-23
-2.66834e-23
1.3557e-24
6.54208e-23
-3.93868e-24
6.38238e-23
-7.175e-24
9.0009e-24
-9.40365e-24
-3.49594e-23
-4.86165e-23
8.97633e-25
2.0853e-22
7.26916e-24
3.68654e-23
3.05376e-24
5.77458e-23
-1.06068e-23
1.73903e-22
-3.14215e-24
1.57492e-22
2.12038e-24
8.38567e-23
-6.15152e-24
1.0723e-22
-8.39693e-24
1.26862e-22
-8.70346e-24
8.3784e-23
-4.77886e-24
2.10696e-22
2.38086e-24
1.76059e-22
-2.81701e-25
-2.32146e-23
4.66795e-24
4.62997e-23
-8.63301e-24
1.07628e-22
-4.40922e-24
4.90144e-24
-6.221e-24
8.1617e-23
-2.61194e-24
5.76231e-23
-1.16152e-23
1.3092e-22
-5.27178e-24
1.15076e-22
-1.27816e-23
-1.0711e-23
-1.81463e-23
-9.02399e-23
-1.94876e-23
-5.62681e-23
-1.57506e-23
-1.21895e-23
-1.68454e-23
4.78577e-23
-1.16048e-23
7.81359e-23
-7.96926e-24
1.43774e-22
-1.04049e-23
2.4289e-24
-3.19758e-24
1.6079e-23
8.72371e-25
5.32295e-23
4.37584e-25
-1.18694e-23
-1.75672e-24
-4.34946e-23
2.70507e-24
5.64776e-23
4.79005e-24
5.58568e-23
9.35442e-24
-1.1633e-23
5.20099e-24
8.36495e-23
-4.68243e-24
-2.17983e-23
1.09805e-24
2.72034e-24
-4.89033e-24
5.48126e-23
-7.12692e-24
5.1601e-23
-1.06665e-23
-2.46056e-23
6.86959e-25
4.44988e-23
-4.4093e-24
2.0782e-23
-8.70857e-24
8.67967e-24
-9.48488e-24
3.84673e-23
7.92683e-24
1.32444e-24
2.05637e-22
6.79828e-24
1.19331e-22
4.34785e-24
4.79544e-23
-1.02472e-23
1.82457e-22
-5.20701e-24
1.4474e-22
1.51022e-24
1.12751e-22
-4.37627e-24
1.86245e-22
-9.46234e-24
1.43783e-22
-8.16606e-24
8.31004e-23
-4.97551e-24
2.07046e-22
5.87374e-25
1.85844e-22
1.07353e-24
4.81541e-23
4.69937e-24
5.62596e-23
-8.40805e-24
1.48901e-22
-4.39706e-24
-7.65947e-24
-5.93963e-24
8.93049e-23
-1.46898e-24
1.979e-23
-1.19693e-23
6.68509e-23
-6.72177e-24
9.96902e-23
-1.42814e-23
5.40064e-24
-1.81169e-23
-8.64043e-23
-1.83932e-23
-6.4429e-23
-1.508e-23
-2.0213e-23
-1.61015e-23
-2.80415e-23
-1.1388e-23
7.67894e-23
-8.26772e-24
1.75594e-22
-1.08384e-23
-7.15519e-23
-3.02939e-24
5.75722e-23
-2.2487e-25
6.92543e-23
-1.53844e-25
-1.00635e-23
7.19093e-25
-3.73329e-23
1.65979e-24
-1.19469e-23
5.75955e-24
4.91315e-23
1.10159e-23
-2.30551e-23
4.4639e-24
1.39064e-23
-3.92048e-24
-6.5223e-24
2.67919e-24
-3.33537e-24
-6.11183e-24
3.37345e-23
-6.19571e-24
4.93338e-23
-9.51212e-24
-1.74474e-23
4.72319e-25
1.09513e-22
-5.06356e-24
3.30537e-23
-7.46531e-24
3.72922e-23
-1.03144e-23
3.92642e-23
-6.57712e-24
5.25686e-25
2.09525e-22
6.3935e-24
1.1917e-22
5.54971e-24
3.47902e-23
-9.37114e-24
1.17688e-22
-4.21113e-24
9.98903e-23
2.33316e-24
2.19765e-23
-4.6902e-24
2.01808e-22
-9.40362e-24
1.59382e-22
-6.41192e-24
7.69657e-23
-5.50145e-24
1.62447e-22
-3.92753e-25
1.8989e-22
3.249e-25
7.81781e-24
6.01812e-24
2.8905e-23
-8.90748e-24
1.36718e-22
-4.47039e-24
-2.23233e-23
-5.49912e-24
1.16466e-22
-1.34794e-24
8.79166e-24
-1.15995e-23
4.67586e-23
-7.78419e-24
8.55156e-23
-1.5446e-23
-1.54737e-23
-1.83875e-23
-7.83486e-23
-1.743e-23
1.00067e-23
-1.53405e-23
7.25735e-24
-1.43702e-23
5.76327e-24
-1.06168e-23
7.06762e-23
-1.02175e-23
1.42976e-22
-1.04382e-23
-6.65596e-23
-2.56284e-24
6.02985e-23
-4.56416e-25
8.98873e-23
-6.36099e-25
-1.36862e-23
6.36129e-25
1.04263e-23
1.964e-24
-1.08272e-24
5.54438e-24
4.0309e-23
1.10831e-23
-4.5494e-24
4.83761e-24
1.82755e-23
-6.06685e-24
3.32053e-23
3.70697e-24
7.19188e-23
-6.09354e-24
2.66945e-23
-6.16465e-24
4.61003e-23
-7.60018e-24
-1.13298e-23
-2.72391e-27
9.05896e-23
-5.95056e-24
3.21711e-23
-7.84006e-24
3.24467e-23
-1.00641e-23
3.83424e-23
-6.50854e-23
1.58199e-24
1.16921e-22
6.47662e-24
1.18342e-22
5.69576e-24
2.1051e-23
-9.17017e-24
9.07624e-23
-4.82311e-24
1.26895e-22
4.05364e-24
1.39374e-22
-5.52018e-24
1.84694e-22
-9.58966e-24
1.73683e-22
-6.20778e-24
1.04923e-22
-4.95726e-24
1.53731e-22
-2.23821e-24
1.52352e-22
3.76704e-25
3.42988e-23
6.98123e-24
-2.16807e-24
-9.11262e-24
1.51101e-22
-4.06402e-24
-4.92496e-24
-5.9989e-24
1.13986e-22
-1.43234e-24
2.18977e-23
-1.09401e-23
5.64746e-23
-8.95156e-24
3.46721e-23
-1.60134e-23
-3.83863e-23
-1.75135e-23
-5.68731e-23
-1.77311e-23
3.89293e-23
-1.55284e-23
3.37375e-23
-1.30971e-23
8.39968e-24
-1.03402e-23
7.93013e-23
-1.15279e-23
9.26049e-23
-9.75894e-24
-6.17854e-23
-1.31918e-24
1.00782e-22
-2.01112e-24
2.86112e-23
1.35343e-25
1.14715e-22
6.64748e-25
1.31522e-23
2.17035e-24
4.15836e-23
5.43664e-24
2.79634e-23
1.13046e-23
2.13899e-23
6.1176e-24
-2.21391e-24
-5.56965e-24
-1.31314e-23
3.2836e-24
9.07884e-23
-5.53003e-24
3.03915e-23
-7.93969e-24
4.74245e-23
-6.48111e-24
7.39287e-23
-2.44368e-25
1.38036e-22
-6.80727e-24
2.83055e-23
-7.82553e-24
2.2801e-23
-1.10062e-23
4.38161e-23
-1.258e-22
1.84682e-24
1.53594e-22
5.96639e-24
1.49479e-22
5.33765e-24
7.55323e-24
-8.29777e-24
5.89623e-23
-3.45054e-24
1.20623e-22
5.09643e-24
1.00703e-22
-5.26776e-24
7.37152e-23
-1.02654e-23
2.25642e-22
-6.07817e-24
1.28514e-22
-4.88834e-24
1.47332e-22
-3.5144e-24
1.81425e-22
-2.41873e-25
1.75471e-23
8.87567e-24
6.06535e-23
-9.34825e-24
1.27944e-22
-3.96179e-24
-2.06972e-23
-6.362e-24
6.41294e-23
-1.40799e-24
1.29421e-23
-1.12949e-23
3.89734e-23
-9.50401e-24
2.82307e-23
-1.61108e-23
-2.75596e-23
-1.66169e-23
-5.14603e-23
-1.78474e-23
3.10758e-24
-1.57057e-23
3.40168e-23
-1.1503e-23
8.49256e-23
-1.10412e-23
7.18777e-23
-1.21679e-23
8.30553e-23
-9.1265e-24
-3.23118e-23
-2.23161e-24
1.14999e-22
-3.86466e-26
1.50633e-23
-1.2334e-24
8.51395e-23
1.28456e-24
1.16703e-23
1.54087e-24
1.23527e-23
6.20905e-24
-2.3958e-23
1.03969e-23
5.55761e-23
5.95968e-24
-4.29569e-23
-4.46463e-24
-3.60127e-24
4.06458e-24
5.66623e-23
-5.53699e-24
4.30329e-23
-6.78898e-24
4.41823e-23
-6.01082e-24
5.76906e-23
-1.10016e-24
1.23936e-22
-7.42993e-24
6.61313e-23
-7.16766e-24
1.25071e-23
-1.15405e-23
-3.36167e-23
-1.15554e-22
2.76322e-24
2.34852e-22
5.5552e-24
1.48834e-22
5.94172e-24
4.19628e-24
-7.06174e-24
3.88704e-23
-3.29219e-24
7.97805e-23
5.31957e-24
9.14581e-23
-3.27991e-24
7.88997e-23
-1.15473e-23
2.44404e-22
-6.70705e-24
1.40775e-22
-4.59613e-24
1.37833e-22
-4.71819e-24
1.60394e-22
-2.0324e-25
4.35041e-24
9.3757e-24
1.08693e-22
-9.51169e-24
9.76776e-23
-3.87731e-24
-5.54886e-24
-5.80517e-24
5.82371e-23
-1.51344e-24
3.76702e-23
-1.14513e-23
4.64457e-23
-1.00721e-23
1.65002e-23
-1.6141e-23
-1.38556e-23
-1.6095e-23
3.43088e-25
-1.75533e-23
9.63563e-24
-1.52155e-23
3.81271e-23
-1.13617e-23
7.96904e-23
-1.19803e-23
3.52155e-23
-1.22263e-23
1.14877e-22
-8.35815e-24
-2.66623e-23
-2.85743e-24
1.33947e-22
1.441e-24
6.25609e-23
-1.93233e-24
9.35186e-24
1.30559e-24
1.61578e-23
7.72885e-25
-1.39866e-23
8.35388e-24
-2.77937e-23
8.21707e-24
1.69493e-24
7.41567e-24
-9.03214e-24
-4.25936e-24
-6.50358e-23
3.8795e-24
8.0852e-23
-5.16813e-24
8.81574e-24
-6.29603e-24
4.0348e-23
-6.20771e-24
3.23355e-24
-2.2951e-24
1.13656e-22
-7.58746e-24
8.09294e-24
-7.15161e-24
1.22894e-23
-1.23048e-23
-1.21288e-22
-1.08791e-22
3.19843e-24
2.35178e-22
4.67635e-24
1.48979e-22
6.10114e-24
7.50132e-23
-7.30598e-24
5.11027e-23
-3.01094e-24
7.38275e-23
6.1459e-24
1.58181e-22
-2.728e-24
6.1488e-23
-1.20333e-23
1.76228e-22
-6.95775e-24
1.04007e-22
-4.53854e-24
1.40526e-22
-5.71014e-24
1.76121e-22
1.52531e-25
-2.23382e-24
9.44515e-24
1.47634e-22
-9.74918e-24
7.07139e-23
-4.24424e-24
2.32402e-23
-5.37484e-24
5.58021e-23
-1.72096e-24
3.21342e-23
-1.1498e-23
5.13658e-23
-1.03815e-23
3.95957e-23
-1.57437e-23
9.60513e-26
-1.61166e-23
6.69076e-24
-1.75278e-23
1.78793e-23
-1.42685e-23
8.1609e-23
-1.15111e-23
9.75739e-23
-1.20353e-23
3.21869e-23
-1.29363e-23
1.13876e-22
-7.13917e-24
-2.38653e-23
-2.8908e-24
1.51229e-22
1.53188e-24
3.71885e-23
-2.43266e-24
-9.77659e-23
1.34345e-24
1.26321e-23
7.08327e-25
-4.46834e-23
8.33053e-24
-7.89892e-24
9.36086e-24
-3.70248e-24
6.76323e-24
-4.21183e-23
-2.0858e-24
-6.69639e-23
3.47248e-24
7.59166e-23
-4.78394e-24
-4.83088e-23
-5.86862e-24
-4.22502e-23
-5.21741e-24
-1.74807e-23
-1.80772e-24
1.43926e-22
-8.39433e-24
-4.60052e-23
-8.50724e-24
4.66384e-24
-1.17149e-23
-5.49363e-23
-6.60252e-23
3.26662e-24
2.45901e-22
3.78647e-24
1.38067e-22
6.15827e-24
8.65221e-23
-7.07904e-24
2.1425e-23
-1.15556e-24
6.62347e-23
5.88922e-24
1.41963e-22
-2.4658e-24
7.79776e-23
-1.22542e-23
1.61125e-22
-7.02165e-24
1.13447e-22
-4.53403e-24
1.45217e-22
-6.3886e-24
1.87538e-22
1.16042e-24
5.98446e-23
8.97416e-24
1.5878e-22
-9.28701e-24
7.79923e-23
-4.71946e-24
3.04299e-23
-4.87016e-24
5.88317e-23
-1.61557e-24
6.17443e-23
-1.14843e-23
1.33592e-23
-1.0735e-23
-5.08434e-24
-1.54346e-23
3.51192e-23
-1.61386e-23
4.72826e-23
-1.67953e-23
2.70187e-23
-1.42098e-23
9.08306e-23
-1.16767e-23
8.41366e-23
-1.22332e-23
-1.50913e-23
-1.32844e-23
1.15129e-22
-6.73948e-24
-1.91713e-24
-3.32572e-24
1.39392e-22
-3.06284e-25
5.80802e-23
-1.10684e-24
-4.92443e-23
9.00373e-25
1.37727e-23
1.4595e-24
4.00027e-23
7.91806e-24
6.40011e-23
9.69738e-24
1.66368e-23
6.53339e-24
-5.78755e-23
-4.50802e-25
-5.22797e-23
2.40512e-24
8.38985e-24
-4.00245e-24
-4.50568e-23
-6.33914e-24
-1.82472e-24
-3.60694e-24
-3.94078e-23
-3.19331e-24
1.39607e-22
-8.34583e-24
-3.31152e-23
-8.5063e-24
1.90329e-24
-1.09573e-23
-5.2237e-23
-6.44884e-23
2.59797e-24
2.51386e-22
3.8431e-24
2.14878e-22
5.48524e-24
8.19175e-23
-5.88385e-24
3.62109e-23
-3.22046e-25
5.89978e-23
6.62222e-24
1.2783e-22
-2.68493e-24
4.91682e-23
-1.2176e-23
1.94904e-22
-6.46637e-24
1.1443e-22
-4.74922e-24
1.43842e-22
-6.41983e-24
1.93457e-22
1.09262e-24
1.07145e-22
8.1014e-24
1.03346e-22
-9.08945e-24
8.58587e-23
-5.19106e-24
-1.43134e-23
-4.26723e-24
9.5049e-23
-2.34072e-24
6.70962e-23
-1.16141e-23
1.31225e-23
-1.01729e-23
-7.00489e-24
-1.52702e-23
4.90231e-23
-1.61304e-23
1.00105e-22
-1.63708e-23
3.95678e-23
-1.43811e-23
1.13424e-22
-1.20819e-23
6.86128e-23
-1.13588e-23
5.92836e-23
-1.34161e-23
1.53312e-22
-6.08483e-24
3.12442e-23
-3.96676e-24
1.88929e-22
-8.56522e-25
7.544e-23
-1.01709e-24
-3.32699e-23
1.80799e-24
2.77011e-23
1.9453e-24
3.73143e-23
6.22566e-24
1.05468e-23
9.99476e-24
8.62776e-23
6.29216e-24
-5.17199e-23
2.03252e-25
-4.40663e-23
3.6044e-24
4.4353e-24
-4.89826e-24
-3.8693e-23
-5.06115e-24
-8.29054e-23
-2.94619e-24
1.73834e-23
-4.17722e-24
1.33547e-22
-8.93485e-24
-2.59866e-23
-8.63474e-24
4.21115e-23
-1.1465e-23
-5.4208e-23
1.26032e-23
-1.68264e-24
8.84339e-25
3.12523e-24
3.25705e-22
2.91576e-24
1.3789e-22
5.73547e-24
8.11522e-23
-5.23236e-24
3.46934e-23
2.26184e-25
8.79521e-23
6.78404e-24
1.93629e-22
-2.11954e-24
-1.52938e-24
-1.22212e-23
1.71844e-22
-6.28621e-24
5.0356e-23
-3.99067e-24
1.10592e-22
-6.34933e-24
1.93735e-22
1.31388e-25
9.34622e-23
8.41458e-24
1.61864e-22
-9.33592e-24
7.15941e-23
-4.59747e-24
5.31761e-23
-4.16349e-24
1.15812e-22
-2.75927e-24
7.08579e-23
-1.17038e-23
3.8862e-23
-9.57182e-24
-1.37079e-23
-1.46559e-23
6.26428e-23
-1.64798e-23
3.49497e-23
-1.61195e-23
-2.66506e-23
-1.49082e-23
8.6576e-23
-1.16973e-23
5.55042e-23
-1.12511e-23
1.20251e-23
-1.37146e-23
8.07312e-23
-5.38524e-24
2.63309e-23
-4.67065e-24
1.21013e-22
-1.69613e-24
1.21838e-22
-7.60932e-25
-2.26382e-23
2.18831e-24
2.91539e-23
1.44479e-24
9.53805e-23
6.26672e-24
-2.02367e-24
8.98226e-24
7.17594e-23
6.34109e-24
-9.14045e-23
1.6937e-24
-5.49345e-23
3.7728e-24
3.88238e-23
-5.45969e-24
-3.13343e-23
-3.56736e-24
-1.22072e-23
-3.46849e-24
-6.35098e-23
-4.77267e-24
1.32493e-22
-9.90518e-24
-2.10078e-23
-8.76435e-24
1.16797e-22
-1.23102e-23
-5.58707e-23
6.77514e-24
3.12209e-25
3.30259e-23
2.19985e-24
2.58133e-22
3.16185e-24
2.12119e-22
5.4421e-24
8.09035e-23
-4.70872e-24
5.14506e-23
1.89457e-24
8.13966e-23
4.72194e-24
1.90795e-22
-1.05086e-24
5.66801e-24
-1.22176e-23
1.87649e-22
-6.3537e-24
4.73211e-23
-3.30227e-24
1.09292e-22
-6.61505e-24
1.93154e-22
1.21697e-26
1.37513e-22
7.57698e-24
1.63055e-22
-8.52434e-24
8.20646e-23
-4.66022e-24
4.29812e-23
-4.407e-24
7.63443e-23
-2.63425e-24
1.06136e-22
-1.24641e-23
-3.8217e-23
-8.47913e-24
1.91925e-23
-1.48799e-23
5.01543e-23
-1.68357e-23
7.80744e-23
-1.54146e-23
2.06335e-23
-1.50979e-23
7.54466e-23
-1.17677e-23
4.94657e-23
-1.16818e-23
8.41535e-24
-1.28351e-23
9.35442e-23
-5.65521e-24
-4.26157e-23
-3.77309e-24
1.25342e-22
-3.04666e-24
6.26157e-23
4.26476e-25
5.8031e-23
1.69615e-24
2.64532e-23
2.04491e-24
8.48093e-23
6.09899e-24
-1.32391e-23
8.26961e-24
5.93011e-23
6.13144e-24
-8.75073e-23
2.72845e-24
-2.0384e-23
3.55968e-24
5.70745e-25
-4.97321e-24
-1.00086e-22
-3.43372e-24
-2.99594e-23
-2.49878e-24
-2.97798e-23
-4.92901e-24
1.38488e-22
-8.60989e-24
-4.92114e-23
-9.59077e-24
7.59242e-23
-1.17969e-23
-5.89748e-23
5.80781e-24
8.93779e-25
1.05588e-22
2.71567e-24
2.53611e-22
2.08605e-24
2.10535e-22
5.51094e-24
8.00444e-23
-4.11094e-24
2.23768e-23
2.29632e-24
7.722e-23
4.41681e-24
1.88042e-22
-7.7316e-25
1.37062e-23
-1.2896e-23
1.07717e-22
-5.97541e-24
1.03654e-22
-2.84338e-24
1.67488e-22
-6.56712e-24
1.51628e-22
-4.90776e-26
1.32837e-22
6.89915e-24
1.62579e-22
-7.83482e-24
7.95705e-23
-5.05674e-24
3.98341e-23
-4.03724e-24
5.96031e-23
-3.63682e-24
1.0442e-22
-1.21019e-23
-3.36507e-23
-8.17786e-24
1.50796e-23
-1.45738e-23
1.73831e-23
-1.69529e-23
5.56744e-23
-1.53753e-23
1.32312e-24
-1.49667e-23
7.88034e-23
-1.1411e-23
4.0707e-23
-1.22859e-23
4.70833e-23
-1.28661e-23
1.05873e-22
-4.80817e-24
-4.63599e-23
-4.61443e-24
1.30224e-22
-2.19905e-24
6.23609e-23
-6.11543e-26
9.76492e-23
2.5086e-24
1.96061e-23
1.79426e-24
1.14334e-22
6.16447e-24
1.05789e-23
7.70653e-24
5.14966e-23
6.13207e-24
-8.91294e-23
4.08921e-24
1.03243e-23
3.12081e-24
-2.70117e-24
-4.63908e-24
-9.45249e-23
-2.88352e-24
-3.20653e-23
-1.5875e-24
-3.69501e-23
-5.59762e-24
7.54372e-23
-8.99204e-24
-1.18739e-22
-9.20439e-24
7.56592e-23
-1.29396e-23
-7.43186e-23
2.32445e-23
-9.37372e-24
2.26834e-22
1.83291e-24
1.01486e-22
3.2726e-24
2.48424e-22
1.17022e-24
2.10023e-22
5.37943e-24
7.88982e-23
-3.58882e-24
3.53806e-23
4.57359e-24
7.42548e-23
3.71545e-24
1.50288e-22
-9.9106e-25
1.87118e-23
-1.20949e-23
1.22783e-22
-5.8003e-24
9.68116e-23
-2.34952e-24
2.29399e-22
-5.92565e-24
1.94781e-22
4.12942e-25
1.22633e-22
6.37509e-24
1.44257e-22
-7.76314e-24
5.54349e-23
-5.30786e-24
3.94372e-23
-3.52962e-24
5.9011e-23
-4.61714e-24
1.03742e-22
-1.1895e-23
7.57254e-24
-7.95895e-24
2.77369e-23
-1.41627e-23
2.81648e-23
-1.68968e-23
-2.25626e-25
-1.53676e-23
1.21342e-23
-1.51701e-23
8.07577e-23
-1.07679e-23
3.09705e-23
-1.25464e-23
-2.08159e-23
-1.33609e-23
1.01376e-22
-3.93725e-24
-1.7869e-23
-5.31925e-24
1.36176e-22
-2.25284e-24
1.14588e-22
-7.23751e-25
9.8877e-23
2.74437e-24
-1.88009e-24
1.77038e-24
1.44078e-22
5.58505e-24
-1.5864e-25
7.27141e-24
7.88037e-23
6.43007e-24
-9.38358e-23
3.60865e-24
6.138e-24
2.77999e-24
-5.07818e-24
-4.1995e-24
-9.16936e-23
-2.24364e-24
-3.74146e-23
-2.13939e-24
-3.80989e-23
-5.32184e-24
4.35648e-23
-8.24245e-24
-1.10923e-22
-9.37429e-24
1.4142e-22
-1.28337e-23
-7.1738e-23
6.00917e-23
-9.21293e-24
2.22962e-22
1.65461e-24
1.72761e-22
3.69568e-24
2.48678e-22
-6.69826e-26
2.16289e-22
5.29674e-24
1.14986e-22
-3.21318e-24
4.93178e-24
5.03767e-24
1.445e-22
4.17942e-24
1.5038e-22
-1.53034e-24
2.34514e-23
-1.07119e-23
1.31325e-22
-5.35709e-24
9.08288e-23
-2.21914e-24
2.67157e-22
-6.75125e-24
1.58022e-22
4.98023e-25
1.11055e-22
5.41931e-24
1.3088e-22
-7.62517e-24
3.58121e-23
-5.43873e-24
7.48563e-23
-3.05547e-24
5.59345e-23
-4.77002e-24
9.77836e-23
-1.22765e-23
2.55443e-23
-7.62868e-24
7.17827e-23
-1.46241e-23
-2.18723e-23
-1.60534e-23
1.38468e-23
-1.54132e-23
-1.92657e-23
-1.51877e-23
1.26114e-22
-1.1072e-23
2.17829e-23
-1.21344e-23
-1.97797e-23
-1.36725e-23
3.12792e-23
-3.0928e-24
6.40103e-23
-4.70657e-24
1.38512e-22
-2.1684e-24
1.04764e-22
-7.27196e-25
1.03734e-22
2.93954e-24
-2.34518e-23
1.52054e-24
1.33483e-22
4.92975e-24
-8.2845e-24
6.81291e-24
6.88815e-23
6.39131e-24
-1.28478e-22
3.87843e-24
-3.60003e-23
2.83812e-24
-1.48221e-24
-4.14388e-24
-8.94124e-23
-1.0047e-24
-3.99442e-23
-2.39466e-24
-3.54532e-23
-5.73501e-24
8.5136e-23
-6.8853e-24
-1.06591e-22
-9.35852e-24
1.10639e-22
-1.38017e-23
-8.52462e-23
9.70217e-23
-1.66283e-23
-4.91077e-23
-9.21114e-24
1.13691e-22
1.83995e-24
1.69707e-22
4.44255e-24
2.44487e-22
-9.86384e-25
2.13708e-22
5.55454e-24
1.88174e-22
-2.3277e-24
1.63731e-23
5.3876e-24
1.43751e-22
2.89022e-24
1.11716e-22
-1.45986e-24
2.18143e-23
-1.04303e-23
1.38041e-22
-4.51127e-24
1.2473e-22
-2.76118e-24
2.52322e-22
-7.22851e-24
1.14256e-22
1.07357e-24
1.65846e-22
4.47797e-24
1.03081e-22
-7.08857e-24
5.36023e-23
-5.62344e-24
7.24011e-23
-2.73922e-24
6.89696e-23
-4.8065e-24
1.32788e-23
-1.22726e-23
-5.38158e-23
-8.22656e-24
6.82504e-23
-1.44191e-23
-1.18536e-23
-1.57726e-23
3.26179e-23
-1.47725e-23
-1.17621e-23
-1.58617e-23
1.27685e-22
-1.07928e-23
5.31239e-23
-1.26564e-23
-2.16784e-23
-1.26074e-23
2.69797e-23
-2.96521e-24
5.72624e-23
-4.23243e-24
1.37682e-22
-3.0432e-24
9.56694e-23
-3.3845e-25
1.49871e-22
3.10451e-24
-1.64074e-23
1.75144e-24
1.16891e-22
5.22869e-24
-1.5792e-23
6.18237e-24
6.03342e-23
6.73691e-24
-6.18933e-23
4.37632e-24
-5.70213e-23
2.56713e-24
1.51279e-23
-4.19674e-24
-8.55123e-23
-8.55236e-25
-4.35761e-23
-1.93959e-24
-3.18739e-23
-6.09688e-24
9.44365e-23
-6.06934e-24
3.54003e-23
-9.90134e-24
1.19729e-22
-1.30947e-23
-8.19037e-23
8.26439e-23
-1.68307e-23
-4.36269e-23
-7.28533e-24
1.15166e-22
1.96099e-24
1.2725e-22
4.95291e-24
1.97346e-22
-1.00999e-24
1.33614e-22
5.33127e-24
1.52284e-22
-1.56077e-24
2.61614e-23
5.37291e-24
1.46741e-22
2.82253e-24
5.30274e-23
-9.89697e-25
2.12978e-23
-9.86505e-24
7.09508e-23
-3.50525e-24
1.12512e-22
-3.37104e-24
2.48636e-22
-7.63154e-24
7.80482e-23
9.25276e-25
1.49277e-22
4.12263e-24
9.69592e-23
-6.80174e-24
7.01407e-23
-5.78089e-24
6.75668e-23
-3.03251e-24
1.07004e-22
-4.96553e-24
1.08151e-23
-1.15917e-23
-4.20695e-23
-8.65098e-24
5.02466e-23
-1.41967e-23
-8.4931e-24
-1.55897e-23
4.28543e-23
-1.4142e-23
-7.71484e-24
-1.63812e-23
8.35994e-23
-1.0944e-23
4.09504e-23
-1.30397e-23
-3.77987e-23
-1.15509e-23
1.99383e-23
-2.81689e-24
5.30582e-23
-3.92436e-24
1.34466e-22
-2.58088e-24
9.12156e-23
-7.2035e-25
1.63074e-22
3.11139e-24
-2.70784e-23
1.05671e-24
1.15951e-22
5.10224e-24
4.33146e-23
5.57268e-24
9.20493e-23
6.68989e-24
-4.80079e-23
5.28409e-24
-3.25235e-23
2.10016e-24
2.07192e-23
-4.02422e-24
-2.04049e-23
-7.30168e-25
2.63892e-23
-1.53488e-24
-1.11201e-23
-6.02947e-24
1.02387e-22
-6.61278e-24
3.58345e-23
-1.02926e-23
1.29466e-22
-1.3344e-23
-3.16179e-23
4.87797e-23
-1.6754e-23
-4.07089e-23
-6.8336e-24
9.33614e-23
2.06673e-24
1.25217e-22
5.1375e-24
1.92783e-22
-1.16829e-24
1.57255e-22
5.4108e-24
1.52368e-22
-1.14932e-24
-5.76762e-23
4.98846e-24
1.45885e-22
3.20519e-24
6.19244e-23
-1.03096e-24
-5.19188e-23
-8.88998e-24
7.34089e-23
-2.89623e-24
9.69761e-23
-3.95909e-24
2.09294e-22
-6.98012e-24
7.32066e-23
7.37632e-25
1.98494e-22
4.2562e-24
1.02281e-22
-6.79739e-24
6.88367e-23
-5.51105e-24
9.83249e-23
-3.7097e-24
1.04489e-22
-5.08528e-24
1.48803e-23
-1.10865e-23
-3.44767e-23
-8.70361e-24
4.78937e-23
-1.40699e-23
-4.10144e-23
-1.52938e-23
4.8296e-23
-1.39228e-23
5.63062e-24
-1.66534e-23
8.41786e-23
-1.11016e-23
7.08101e-23
-1.31936e-23
-4.01331e-23
-1.09476e-23
5.11955e-23
-2.52181e-24
4.83049e-23
-3.79253e-24
1.33745e-22
-3.46779e-24
5.14423e-23
-1.04143e-24
1.64146e-22
3.28897e-24
-3.61615e-23
1.4872e-24
1.15981e-22
4.30188e-24
3.49043e-25
5.21583e-24
1.11022e-22
6.47466e-24
-5.03331e-23
5.82318e-24
-4.14811e-23
3.1628e-24
2.74051e-23
-4.62246e-24
-2.88201e-23
-2.22806e-25
2.39336e-23
-6.68003e-25
8.5823e-24
-5.62784e-24
1.1007e-22
-7.00012e-24
3.55696e-23
-1.07319e-23
9.03005e-23
-1.49165e-23
-6.97183e-24
9.74027e-23
-1.69111e-23
-7.07709e-23
-5.89061e-24
1.62601e-22
2.4798e-24
1.28009e-22
5.04101e-24
1.72913e-22
-9.30241e-25
1.53103e-22
5.3106e-24
1.62913e-22
-8.07204e-25
-4.81327e-23
5.02492e-24
1.83261e-22
2.61602e-24
3.55861e-23
-1.11335e-24
-6.23852e-23
-7.90622e-24
7.0854e-23
-2.78489e-24
1.44478e-22
-3.92533e-24
2.09295e-22
-7.10127e-24
8.85016e-23
7.27812e-25
1.68624e-22
3.73357e-24
9.58241e-23
-6.18207e-24
7.6275e-23
-5.84745e-24
1.55809e-22
-3.8168e-24
1.0002e-22
-5.42194e-24
2.37867e-23
-1.07984e-23
-2.83572e-23
-8.90835e-24
4.34568e-23
-1.36701e-23
-1.26756e-23
-1.50226e-23
5.16099e-23
-1.37469e-23
4.74278e-24
-1.68241e-23
8.74128e-23
-1.1506e-23
6.21222e-23
-1.29972e-23
-4.45499e-23
-1.05404e-23
2.69064e-24
-1.79136e-24
8.37723e-23
-4.00874e-24
1.33421e-22
-3.46447e-24
6.64246e-23
-1.66815e-24
1.66121e-22
3.76957e-24
-4.45571e-23
2.4919e-24
1.18075e-22
3.84419e-24
1.13228e-24
4.31103e-24
1.5381e-22
7.60888e-24
1.39181e-23
5.55755e-24
-6.22796e-23
3.35458e-24
-4.40747e-24
-3.88363e-24
-6.43294e-23
-2.92831e-25
2.45132e-23
-2.85e-25
5.03552e-23
-5.36983e-24
1.15902e-22
-7.69021e-24
-3.66481e-23
-1.0359e-23
1.00631e-22
-1.51666e-23
1.5626e-23
8.12031e-23
-1.68285e-23
-5.07081e-23
-5.23615e-24
2.7419e-22
2.96285e-24
1.28772e-22
5.20365e-24
1.63786e-22
-6.23282e-25
6.92783e-23
4.47305e-24
6.51119e-23
-4.20875e-25
-7.50764e-23
5.31588e-24
1.80838e-22
2.10658e-24
-2.87784e-23
-3.82292e-25
-9.49542e-23
-6.80213e-24
1.10468e-22
-2.39379e-24
1.31911e-22
-4.39138e-24
1.35648e-22
-6.96709e-24
4.25955e-23
3.18495e-25
1.20718e-22
3.49335e-24
8.95003e-23
-5.1388e-24
8.06221e-23
-6.54773e-24
1.09124e-22
-3.93473e-24
9.4789e-23
-5.76141e-24
3.39643e-23
-1.05664e-23
-2.21139e-23
-8.85544e-24
4.21967e-23
-1.34834e-23
-2.80961e-23
-1.47662e-23
5.30044e-23
-1.34412e-23
6.67628e-24
-1.72316e-23
3.00483e-23
-1.15131e-23
5.85136e-23
-1.34953e-23
-4.32135e-23
-9.17041e-24
3.4549e-23
-1.96654e-24
8.08229e-23
-3.55757e-24
1.30819e-22
-3.60866e-24
6.48515e-23
-1.77489e-24
2.04007e-22
3.6308e-24
2.62741e-23
2.83417e-24
1.33688e-22
3.69441e-24
-7.1783e-23
3.18383e-24
1.75966e-22
7.86002e-24
7.06806e-23
5.74984e-24
-7.07585e-23
4.48893e-24
5.80962e-23
-4.11382e-24
-1.33378e-22
-2.11045e-25
9.25629e-23
2.00018e-25
4.80316e-23
-6.12227e-24
1.27319e-22
-7.1225e-24
-1.132e-22
-1.03883e-23
1.13448e-22
-1.55322e-23
-4.29237e-23
1.78466e-23
-1.75459e-23
7.08678e-23
-1.51856e-23
4.02143e-23
-6.03973e-24
2.54873e-22
3.45167e-24
1.73933e-22
4.73559e-24
1.21105e-22
-1.15946e-24
6.34792e-23
5.1245e-24
7.60824e-23
9.76846e-25
-6.69148e-23
4.69649e-24
2.2234e-22
1.70506e-24
-1.92766e-23
6.3532e-25
-5.23347e-23
-6.81046e-24
1.13308e-22
-2.52764e-24
1.72187e-22
-4.33834e-24
1.36209e-22
-7.15192e-24
2.5847e-23
6.10647e-25
1.098e-22
3.42954e-24
2.36808e-23
-4.43778e-24
8.27646e-23
-7.20493e-24
1.07898e-22
-3.9073e-24
9.11021e-23
-6.18351e-24
5.80429e-24
-1.03137e-23
-1.69697e-23
-8.85214e-24
7.72919e-23
-1.32913e-23
-3.22798e-23
-1.46708e-23
5.47959e-23
-1.33548e-23
7.52547e-24
-1.74006e-23
3.45661e-23
-1.15864e-23
1.01843e-22
-1.32624e-23
-1.0399e-22
-8.6573e-24
2.73179e-23
-1.46153e-24
7.68266e-23
-3.71571e-24
1.26243e-22
-3.39226e-24
6.63353e-23
-1.86284e-24
2.02861e-22
3.62326e-24
-1.52248e-23
1.94273e-24
9.6043e-23
5.08034e-24
-7.72584e-23
3.42066e-24
1.88369e-22
6.46271e-24
6.36477e-23
6.04514e-24
-1.19027e-22
4.10707e-24
5.56456e-23
-2.92697e-24
-1.32642e-22
3.08012e-25
8.63055e-23
2.39887e-25
8.84281e-23
-7.08478e-24
6.09922e-23
-6.15186e-24
-1.16139e-22
-1.08642e-23
1.15472e-23
-1.58406e-23
-2.95295e-23
2.1662e-23
-1.32071e-23
1.13161e-22
-1.69325e-23
1.17687e-22
-1.51611e-23
4.60049e-23
-6.13598e-24
2.4585e-22
3.29631e-24
1.80251e-22
4.1921e-24
9.52042e-23
-7.22987e-25
7.63619e-23
5.7511e-24
7.15675e-23
1.6269e-24
-5.77301e-23
4.52561e-24
2.21492e-22
1.52822e-24
-4.65681e-23
1.12304e-24
-1.95018e-23
-6.21041e-24
4.77868e-23
-3.27728e-24
1.04098e-22
-3.98414e-24
1.91217e-22
-7.28586e-24
2.25289e-23
7.63077e-25
1.05127e-22
4.01768e-24
2.19762e-23
-4.06523e-24
8.38047e-23
-7.29575e-24
1.10532e-22
-4.22699e-24
8.66658e-23
-6.22731e-24
2.56053e-23
-9.92699e-24
2.6453e-23
-9.13108e-24
6.97666e-23
-1.30939e-23
-3.59336e-23
-1.45354e-23
5.73718e-23
-1.33709e-23
6.73771e-24
-1.70633e-23
-2.29568e-23
-1.26383e-23
6.15201e-23
-1.282e-23
-1.04049e-22
-8.04818e-24
3.2601e-24
-1.50665e-24
7.36837e-23
-3.33162e-24
1.17091e-22
-3.58982e-24
6.48416e-23
-2.25775e-24
1.76312e-22
3.31735e-24
-2.23414e-23
2.10579e-24
9.88241e-23
5.81296e-24
-1.1629e-23
2.73854e-24
1.02605e-22
6.19155e-24
5.40469e-23
6.17035e-24
-1.58868e-22
4.25284e-24
5.25477e-23
-2.24061e-24
-1.34472e-22
6.71647e-25
4.17598e-23
-7.35606e-26
8.64875e-23
-7.71854e-24
2.86996e-23
-6.07341e-24
-5.76265e-23
-1.03983e-23
-8.16371e-25
-1.63218e-23
-5.33962e-23
-2.03361e-23
-1.33402e-23
2.61426e-23
-1.6835e-23
7.98814e-23
-1.55057e-23
4.92124e-23
-5.74008e-24
2.47009e-22
2.92739e-24
1.74861e-22
4.09868e-24
9.24448e-23
-8.36748e-25
1.5423e-22
6.40045e-24
1.37092e-22
1.62145e-24
-4.98217e-23
3.96058e-24
2.19138e-22
1.9879e-24
-3.42098e-23
1.02432e-24
-2.61102e-23
-5.34354e-24
4.8143e-23
-3.31838e-24
8.7446e-23
-4.57249e-24
1.50489e-22
-7.50123e-24
2.16808e-23
6.65948e-25
1.70338e-22
4.38334e-24
4.4095e-24
-3.49095e-24
7.94255e-23
-7.67708e-24
1.15041e-22
-4.48339e-24
6.70424e-23
-5.98802e-24
3.43169e-23
-9.98925e-24
-4.60754e-24
-9.13495e-24
6.33734e-23
-1.29714e-23
-5.3116e-23
-1.4445e-23
5.59215e-23
-1.36896e-23
6.2766e-24
-1.67215e-23
-1.94729e-23
-1.32323e-23
4.36548e-23
-1.23564e-23
-1.05613e-22
-7.84251e-24
-8.57718e-24
-8.0482e-25
8.64931e-23
-3.35835e-24
7.13515e-23
-3.32023e-24
2.72088e-23
-2.79704e-24
1.22721e-22
3.52825e-24
-3.37644e-23
2.60451e-24
3.96716e-23
5.63848e-24
1.81731e-23
2.50243e-24
4.99452e-23
5.85509e-24
1.36583e-22
6.51994e-24
-1.58494e-22
5.04984e-24
4.8463e-23
-1.36186e-24
-5.93142e-23
1.00573e-24
3.33295e-23
-8.87777e-25
1.91199e-23
-7.86266e-24
5.20557e-23
-6.29248e-24
-7.50957e-23
-1.00131e-23
8.48786e-24
-1.63124e-23
-7.34525e-23
2.58599e-23
-1.26792e-23
3.66686e-23
9.11743e-24
-1.69947e-23
7.45894e-25
-1.5488e-23
1.99686e-23
-5.54813e-24
3.12932e-22
2.55264e-24
1.03707e-22
3.96093e-24
8.91456e-23
-1.16286e-24
1.01242e-22
7.16465e-24
1.70166e-22
2.54715e-24
-1.09978e-22
3.30253e-24
2.19386e-22
1.87823e-24
-1.70907e-23
1.33025e-24
-3.14614e-23
-4.38585e-24
4.59341e-23
-2.68517e-24
8.58876e-23
-5.1229e-24
1.46714e-22
-6.60343e-24
2.44211e-23
-1.45234e-25
1.30653e-22
4.92399e-24
6.76449e-23
-2.84226e-24
7.63838e-23
-7.98582e-24
1.23929e-22
-4.59645e-24
6.38965e-23
-5.96311e-24
4.17762e-23
-9.91944e-24
-1.7538e-24
-9.22748e-24
9.74531e-23
-1.28121e-23
-5.87197e-23
-1.43952e-23
5.11167e-23
-1.39116e-23
2.47593e-24
-1.66144e-23
-1.66653e-23
-1.37657e-23
3.79658e-23
-1.21574e-23
-1.11143e-22
-7.11481e-24
-1.75577e-23
-5.8982e-25
8.02467e-23
-3.64333e-24
5.6417e-23
-3.28382e-24
7.41712e-23
-3.04424e-24
6.74086e-23
2.53753e-24
-1.79055e-24
3.27894e-24
4.6381e-23
5.18554e-24
1.65284e-23
2.79366e-24
5.95003e-23
5.38317e-24
1.35686e-22
6.72202e-24
-1.60201e-22
5.34958e-24
8.38509e-23
-1.42547e-24
-9.63436e-23
1.57059e-24
6.76727e-23
-4.84281e-25
5.84172e-23
-8.20198e-24
7.33683e-23
-6.12736e-24
-1.11479e-22
-1.02881e-23
-4.31831e-23
-1.67634e-23
1.32258e-23
9.98327e-23
-1.28252e-23
4.18743e-24
9.42428e-24
-1.67198e-23
1.50397e-23
-1.47775e-23
2.60959e-23
-6.62313e-24
3.1094e-22
3.44627e-24
1.26038e-22
3.89403e-24
3.01654e-23
-7.99821e-25
1.10399e-22
6.92793e-24
2.01572e-22
3.04582e-24
-1.08107e-22
3.79036e-24