/*--------------------------------*- C++ -*----------------------------------*\
  =========                 |
  \\      /  F ield         | OpenFOAM: The Open Source CFD Toolbox
   \\    /   O peration     | Website:  https://openfoam.org
    \\  /    A nd           | Version:  7
     \\/     M anipulation  |
\*---------------------------------------------------------------------------*/
FoamFile
{
    version     2.0;
    format      ascii;
    class       volVectorField;
    location    "260000";
    object      vorticity;
}
// * * * * * * * * * * * * * * * * * * * * * * * * * * * * * * * * * * * * * //

dimensions      [0 0 -1 0 0 0 0];

internalField   nonuniform List<vector> 
4850
(
(0.00651893 0.00442027 -5.24903e-18)
(0.00561159 0.0051607 5.10466e-18)
(0.00666391 0.00458085 -2.89277e-18)
(0.0057713 0.00530584 6.38444e-18)
(0.00583262 0.005073 4.16849e-18)
(0.0068099 0.00474184 3.18883e-18)
(0.0059317 0.00545162 7.48485e-18)
(0.00599726 0.00521349 5.55181e-18)
(0.00605688 0.00497811 3.99207e-18)
(0.00611312 0.00474287 2.24023e-18)
(0.00695695 0.00490335 9.2696e-18)
(0.0060929 0.00559812 8.00093e-18)
(0.00616268 0.00535463 5.97054e-18)
(0.00622646 0.00511366 4.89507e-18)
(0.00628668 0.00487275 3.32723e-18)
(0.00634341 0.00463198 1.15136e-18)
(0.00710515 0.00506546 1.08466e-17)
(0.00625496 0.00574542 8.25774e-18)
(0.00632897 0.00549649 5.89123e-18)
(0.00639689 0.00524988 4.47973e-18)
(0.00646108 0.00500324 3.32334e-18)
(0.00652159 0.00475665 1.53207e-18)
(0.00657851 0.00451018 -3.66715e-19)
(0.00725457 0.00522825 9.89256e-18)
(0.00641798 0.00589358 8.24462e-18)
(0.0064962 0.00563916 5.73436e-18)
(0.00656825 0.00538685 4.63944e-18)
(0.00663639 0.00513442 3.32849e-18)
(0.00670067 0.00488195 1.1066e-18)
(0.00676117 0.00462953 -7.68785e-19)
(0.00681796 0.00437722 -6.70442e-19)
(0.00687112 0.00412506 1.68607e-18)
(0.00740526 0.00539182 8.71494e-18)
(0.00658203 0.00604269 6.20462e-18)
(0.00666446 0.0057827 5.22578e-18)
(0.00674064 0.00552463 4.62831e-18)
(0.00681271 0.00526636 2.27042e-18)
(0.00688075 0.00500796 -6.53289e-19)
(0.00694481 0.00474953 -1.13265e-18)
(0.00700499 0.00449113 1.03663e-18)
(0.00706134 0.00423283 3.93846e-18)
(0.00711394 0.00397466 3.16962e-18)
(0.00755732 0.00555624 7.31401e-18)
(0.00674721 0.00619282 2.99681e-18)
(0.00683384 0.00592719 4.4449e-18)
(0.00691413 0.0056633 3.90942e-18)
(0.00699013 0.00539912 1.43692e-18)
(0.00706191 0.00513474 -1.28361e-18)
(0.00712953 0.00487024 -1.20255e-18)
(0.00719308 0.00460571 1.78869e-18)
(0.00725261 0.0043412 4.23503e-18)
(0.00730821 0.00407677 3.99655e-18)
(0.00735995 0.00381245 2.83738e-18)
(0.00740789 0.00354829 1.42218e-18)
(0.0074521 0.0032843 7.08206e-19)
(0.00749264 0.00302051 1.90762e-18)
(0.0077108 0.0057216 5.90024e-18)
(0.00691358 0.00634405 1.1459e-18)
(0.00700443 0.00607271 3.74233e-18)
(0.00708882 0.00580293 3.55537e-18)
(0.00716874 0.00553277 1.05844e-18)
(0.00724425 0.00526234 -1.54377e-18)
(0.00731542 0.00499172 -9.70905e-19)
(0.00738232 0.004721 2.23967e-18)
(0.00744503 0.00445024 4.05216e-18)
(0.00750362 0.00417949 4.42155e-18)
(0.00755815 0.0039088 3.77883e-18)
(0.00760871 0.00363821 2.65181e-18)
(0.00765534 0.00336776 1.93016e-18)
(0.00769812 0.00309745 2.9415e-18)
(0.00773711 0.00282731 4.53431e-18)
(0.00777236 0.00255734 5.23258e-18)
(0.00780393 0.00228755 5.89638e-18)
(0.00783186 0.00201794 3.30119e-18)
(0.00786577 0.00588799 2.48715e-18)
(0.00708124 0.00649644 1.447e-18)
(0.00717629 0.00621931 3.7918e-18)
(0.00726479 0.00594357 2.98468e-18)
(0.00734863 0.00566738 1.6125e-19)
(0.00742786 0.00539084 -1.89694e-18)
(0.00750257 0.00511404 -4.88785e-19)
(0.00757283 0.00483707 2.29816e-18)
(0.0076387 0.00455999 3.91942e-18)
(0.00770026 0.00428287 4.48693e-18)
(0.00775759 0.00400576 3.95538e-18)
(0.00781074 0.0037287 2.49851e-18)
(0.00785979 0.00345172 1.5158e-18)
(0.0079048 0.00317485 3.01204e-18)
(0.00794584 0.00289811 4.97946e-18)
(0.00798295 0.00262151 5.56621e-18)
(0.00801618 0.00234505 6.20087e-18)
(0.0080456 0.00206874 5.20429e-18)
(0.00807124 0.00179257 1.61632e-18)
(0.00809313 0.00151654 2.09807e-18)
(0.00802232 0.00605549 -1.44771e-18)
(0.00725026 0.00665008 1.38339e-18)
(0.00734953 0.00636708 3.16974e-18)
(0.00744213 0.00608531 2.35369e-18)
(0.00752988 0.00580302 -1.03132e-19)
(0.00761283 0.0055203 -1.50766e-18)
(0.00769108 0.00523725 2.49072e-19)
(0.00776468 0.00495397 1.96341e-18)
(0.00783371 0.00467052 3.80922e-18)
(0.00789824 0.00438697 4.54042e-18)
(0.00795835 0.00410338 3.92217e-18)
(0.0080141 0.00381979 1.59563e-18)
(0.00806556 0.00353624 8.76463e-19)
(0.00811279 0.00325276 2.45877e-18)
(0.00815586 0.00296936 4.38401e-18)
(0.00819482 0.00268608 5.52509e-18)
(0.00822972 0.0024029 6.45957e-18)
(0.00826062 0.00211985 6.88224e-18)
(0.00828755 0.00183692 2.80824e-18)
(0.00831056 0.0015541 2.02194e-18)
(0.00832968 0.00127138 2.32316e-18)
(0.00834494 0.000988754 4.29339e-19)
(0.00835636 0.000706198 1.62759e-18)
(0.00836397 0.000423696 1.29339e-18)
(0.0081805 0.00622419 -3.00701e-18)
(0.00742073 0.00680504 5.3121e-19)
(0.00752422 0.00651609 2.84832e-18)
(0.00762092 0.00622822 2.03329e-18)
(0.00771258 0.00593974 -1.46794e-19)
(0.00779926 0.00565078 -3.06692e-19)
(0.00788103 0.00536142 6.30515e-19)
(0.00795797 0.00507176 8.83774e-19)
(0.00803015 0.00478187 3.24498e-18)
(0.00809765 0.00449184 4.72118e-18)
(0.00816053 0.00420171 4.30707e-18)
(0.00821887 0.00391153 1.26763e-18)
(0.00827273 0.00362135 6.44059e-19)
(0.00832218 0.0033312 1.5189e-18)
(0.00836728 0.0030411 2.98657e-18)
(0.00840809 0.00275108 5.13876e-18)
(0.00844465 0.00246115 6.66789e-18)
(0.00847702 0.0021713 7.76515e-18)
(0.00850525 0.00188156 2.7294e-18)
(0.00852936 0.0015919 1.28307e-18)
(0.00854941 0.00130234 2.94276e-18)
(0.0085654 0.00101284 1.60909e-18)
(0.00857738 0.000723413 3.15074e-18)
(0.00858536 0.000434029 2.87381e-18)
(0.00858934 0.000144672 1.97374e-18)
(0.00858934 -0.000144675 1.49001e-17)
(0.00858536 -0.000434031 2.47413e-17)
(0.00857738 -0.000723416 1.76178e-17)
(0.0085654 -0.00101285 1.47587e-17)
(0.0083404 0.00639416 -1.10377e-18)
(0.00759272 0.00696138 -6.65774e-19)
(0.00770045 0.0066664 2.15611e-18)
(0.00780125 0.00637236 1.3578e-18)
(0.00789682 0.00607763 -6.27092e-20)
(0.00798722 0.00578234 8.91916e-19)
(0.00807252 0.0054866 8.81373e-19)
(0.0081528 0.00519049 3.61626e-19)
(0.00822813 0.00489411 3.25407e-18)
(0.00829859 0.00459752 5.15183e-18)
(0.00836424 0.00430079 4.28762e-18)
(0.00842517 0.00400397 7.89111e-19)
(0.00848143 0.0037071 5.87997e-19)
(0.00853309 0.00341023 4.63307e-19)
(0.00858021 0.00311337 1.65256e-18)
(0.00862286 0.00281656 4.85493e-18)
(0.00866108 0.00251981 6.78847e-18)
(0.00869492 0.00222312 7.47398e-18)
(0.00872443 0.00192651 1.73738e-18)
(0.00874965 0.00162997 6.33015e-19)
(0.00877061 0.00133351 3.28963e-18)
(0.00878735 0.0010371 2.24564e-18)
(0.00879988 0.000740747 3.4145e-18)
(0.00880822 0.000444432 2.22452e-18)
(0.00881239 0.00014814 1.88641e-18)
(0.00881239 -0.000148143 1.61363e-17)
(0.00880822 -0.000444434 2.67417e-17)
(0.00879988 -0.000740749 2.0383e-17)
(0.00878735 -0.0010371 1.88443e-17)
(0.00877061 -0.00133351 2.37525e-17)
(0.00874965 -0.00162997 2.52993e-17)
(0.00872443 -0.00192651 2.66883e-17)
(0.00850208 0.00656549 1.6235e-18)
(0.00776632 0.00711919 -9.81801e-19)
(0.0078783 0.0068181 1.34026e-18)
(0.00798321 0.0065178 7.89094e-19)
(0.0080827 0.00621674 -2.38721e-19)
(0.00817682 0.00591506 1.50423e-18)
(0.00826565 0.00561286 1.46999e-18)
(0.00834926 0.00531024 1.07194e-18)
(0.00842774 0.00500729 3.82875e-18)
(0.00850116 0.00470408 5.22294e-18)
(0.00856958 0.00440068 4.08526e-18)
(0.00863308 0.00409715 6.44156e-19)
(0.00869174 0.00379353 6.01356e-19)
(0.00874561 0.00348987 -2.58153e-19)
(0.00879475 0.0031862 3.12673e-19)
(0.00883924 0.00288254 4.47099e-18)
(0.00887911 0.00257891 6.73837e-18)
(0.00891442 0.00227533 6.31758e-18)
(0.00894522 0.0019718 1.37341e-18)
(0.00897153 0.00166832 6.9414e-19)
(0.00899341 0.0013649 2.76055e-18)
(0.00901088 0.00106153 2.85258e-18)
(0.00902396 0.000758207 3.82205e-18)
(0.00903267 0.00045491 1.19911e-18)
(0.00903702 0.000151634 1.83393e-18)
(0.00903702 -0.000151636 1.67695e-17)
(0.00903267 -0.000454913 2.61619e-17)
(0.00902396 -0.000758209 1.98264e-17)
(0.00901088 -0.00106154 1.98679e-17)
(0.00899341 -0.00136491 2.71216e-17)
(0.00897153 -0.00166833 3.09864e-17)
(0.00894521 -0.0019718 3.58277e-17)
(0.00891442 -0.00227533 4.68989e-17)
(0.00887911 -0.00257891 6.18331e-17)
(0.00866562 0.00673826 2.16263e-18)
(0.00794162 0.00727855 -2.925e-19)
(0.00805785 0.00697126 -1.5917e-19)
(0.00816688 0.00666461 -2.22586e-20)
(0.00827029 0.00635715 6.25485e-19)
(0.00836814 0.00604899 2.95542e-18)
(0.0084605 0.00574026 2.29107e-18)
(0.00854745 0.00543105 1.69365e-18)
(0.00862908 0.00512146 4.13458e-18)
(0.00870545 0.00481156 4.92057e-18)
(0.00877664 0.00450142 3.95293e-18)
(0.00884273 0.00419111 5.81983e-19)
(0.00890377 0.00388068 5.06171e-19)
(0.00895985 0.00357017 -1.38385e-19)
(0.00901101 0.00325962 -1.47967e-19)
(0.00905733 0.00294905 3.84724e-18)
(0.00909885 0.00263849 5.75802e-18)
(0.00913563 0.00232795 4.79214e-18)
(0.0091677 0.00201744 1.73806e-18)
(0.00919512 0.00170698 1.43471e-18)
(0.00921791 0.00139655 2.32372e-18)
(0.00923611 0.00108616 3.19244e-18)
(0.00924974 0.000775802 4.29448e-18)
(0.00925881 0.00046547 7.0271e-19)
(0.00926335 0.000155154 1.31344e-18)
(0.00926335 -0.000155157 1.6332e-17)
(0.00925881 -0.000465473 2.42384e-17)
(0.00924974 -0.000775804 1.81647e-17)
(0.00923611 -0.00108616 1.94494e-17)
(0.00921791 -0.00139655 2.7071e-17)
(0.00919512 -0.00170698 3.13857e-17)
(0.0091677 -0.00201745 3.91152e-17)
(0.00913562 -0.00232795 5.85902e-17)
(0.00909885 -0.00263849 1.03716e-16)
(0.0088311 0.00691256 1.24257e-18)
(0.00811869 0.00743952 8.70167e-19)
(0.00823919 0.00712594 -5.18136e-19)
(0.00835236 0.00681287 1.65647e-19)
(0.00845969 0.00649892 1.96973e-18)
(0.00856127 0.00618421 3.56377e-18)
(0.00865717 0.00586886 2.93835e-18)
(0.00874747 0.00555299 2.59447e-18)
(0.00883224 0.00523667 4.28868e-18)
(0.00891157 0.00492001 4.29247e-18)
(0.00898553 0.00460307 3.31066e-18)
(0.00905419 0.00428591 6.17538e-19)
(0.00911763 0.0039686 7.16363e-19)
(0.00917591 0.00365117 5.80437e-19)
(0.00922909 0.00333367 -4.52864e-20)
(0.00927724 0.00301613 3.1848e-18)
(0.00932041 0.00269857 5.09388e-18)
(0.00935865 0.00238101 4.212e-18)
(0.009392 0.00206347 1.90679e-18)
(0.00942052 0.00174595 1.69034e-18)
(0.00944422 0.00142845 2.38359e-18)
(0.00946315 0.00111099 3.49803e-18)
(0.00947733 0.000793542 4.63564e-18)
(0.00948677 0.000476117 2.04872e-19)
(0.00949148 0.000158704 7.32051e-19)
(0.00949148 -0.000158706 1.59807e-17)
(0.00948677 -0.000476119 2.24957e-17)
(0.00947733 -0.000793544 1.64125e-17)
(0.00946315 -0.00111099 1.91565e-17)
(0.00944422 -0.00142846 2.58981e-17)
(0.00942052 -0.00174595 2.98311e-17)
(0.009392 -0.00206347 3.73166e-17)
(0.00935865 -0.00238102 6.05825e-17)
(0.00932041 -0.00269857 1.51609e-16)
(0.0089986 0.00708848 8.2591e-19)
(0.00829761 0.00760218 1.96882e-18)
(0.00842241 0.00728223 -8.73851e-19)
(0.00853972 0.00696265 4.80053e-19)
(0.00865099 0.00664212 3.59474e-18)
(0.00875631 0.00632077 3.94775e-18)
(0.00885576 0.00599873 3.58225e-18)
(0.0089494 0.00567611 3.23497e-18)
(0.00903733 0.005353 4.19536e-18)
(0.00911962 0.00502949 3.80459e-18)
(0.00919635 0.00470567 2.77892e-18)
(0.00926759 0.00438159 1.12617e-18)
(0.00933342 0.00405732 9.16268e-19)
(0.0093939 0.00373291 1.27843e-18)
(0.0094491 0.0034084 3.01312e-19)
(0.00949908 0.00308381 2.75997e-18)
(0.00954389 0.00275919 4.97788e-18)
(0.0095836 0.00243455 4.12297e-18)
(0.00961823 0.0021099 1.12637e-18)
(0.00964784 0.00178526 1.48577e-18)
(0.00967246 0.00146064 2.86365e-18)
(0.00969211 0.00113603 3.56358e-18)
(0.00970684 0.000811436 4.6552e-18)
(0.00971664 0.000486855 -6.37552e-20)
(0.00972154 0.000162283 9.34293e-19)
(0.00972154 -0.000162285 1.52885e-17)
(0.00971664 -0.000486857 2.0428e-17)
(0.00970683 -0.000811438 1.53121e-17)
(0.00969211 -0.00113603 1.91802e-17)
(0.00967245 -0.00146064 2.47486e-17)
(0.00964784 -0.00178526 2.86794e-17)
(0.00961823 -0.0021099 3.80823e-17)
(0.00958359 -0.00243455 6.65704e-17)
(0.00954389 -0.00275919 1.8858e-16)
(0.00916818 0.00726609 5.62333e-19)
(0.00847849 0.00776662 3.29786e-18)
(0.0086076 0.00744019 -1.18461e-18)
(0.00872906 0.00711402 1.185e-18)
(0.00884429 0.00678682 4.42262e-18)
(0.00895336 0.00645875 3.80695e-18)
(0.00905636 0.00612993 4.44174e-18)
(0.00915336 0.00580047 3.56344e-18)
(0.00924444 0.00547049 4.4775e-18)
(0.0093297 0.00514006 3.67503e-18)
(0.0094092 0.00480927 2.21357e-18)
(0.00948302 0.0044782 1.51362e-18)
(0.00955124 0.0041469 7.50104e-19)
(0.00961393 0.00381543 1.85237e-18)
(0.00967114 0.00348382 9.39828e-19)
(0.00972296 0.00315213 2.2424e-18)
(0.00976942 0.00282037 4.80157e-18)
(0.00981058 0.00248858 3.66175e-18)
(0.00984649 0.00215676 -2.42769e-19)
(0.00987719 0.00182494 1.24387e-18)
(0.00990272 0.00149311 3.7741e-18)
(0.00992311 0.0011613 3.53081e-18)
(0.00993838 0.000829491 3.93439e-18)
(0.00994855 0.000497691 -8.67225e-20)
(0.00995363 0.000165896 1.39403e-18)
(0.00995363 -0.000165898 1.41027e-17)
(0.00994855 -0.000497692 1.915e-17)
(0.00993838 -0.000829493 1.54642e-17)
(0.00992311 -0.0011613 1.92774e-17)
(0.00990272 -0.00149312 2.34159e-17)
(0.00987719 -0.00182494 2.68148e-17)
(0.00984649 -0.00215676 3.6281e-17)
(0.00981058 -0.00248858 5.67268e-17)
(0.00976941 -0.00282037 1.50243e-16)
(0.00933994 0.00744549 1.0502e-18)
(0.00866139 0.00793292 4.46521e-18)
(0.00879484 0.00759991 -8.85036e-19)
(0.00892048 0.00726705 2.52439e-18)
(0.00903967 0.0069331 4.65869e-18)
(0.00915251 0.00659821 4.28095e-18)
(0.00925906 0.00626252 4.79424e-18)
(0.00935943 0.00592615 3.02145e-18)
(0.00945368 0.0055892 4.83004e-18)
(0.0095419 0.00525176 3.15108e-18)
(0.00962418 0.00491393 1.76701e-18)
(0.00970059 0.00457578 2.43304e-18)
(0.00977121 0.00423737 6.28726e-19)
(0.0098361 0.00389876 2.16004e-18)
(0.00989533 0.00355999 1.14026e-18)
(0.00994898 0.00322111 1.59867e-18)
(0.00999709 0.00288215 4.15775e-18)
(0.0100397 0.00254313 2.37963e-18)
(0.0100769 0.00220407 -1.1543e-18)
(0.0101087 0.00186499 1.96377e-18)
(0.0101351 0.0015259 5.25981e-18)
(0.0101563 0.00118681 3.52756e-18)
(0.0101721 0.000847717 2.4167e-18)
(0.0101826 0.000508628 -3.12716e-19)
(0.0101879 0.000169542 2.19209e-18)
(0.0101879 -0.000169544 1.3121e-17)
(0.0101826 -0.00050863 1.80377e-17)
(0.0101721 -0.000847719 1.56405e-17)
(0.0101563 -0.00118681 1.90591e-17)
(0.0101351 -0.0015259 2.2278e-17)
(0.0101087 -0.00186499 2.53294e-17)
(0.0100769 -0.00220407 3.53579e-17)
(0.0100397 -0.00254313 5.20948e-17)
(0.00999708 -0.00288215 1.13955e-16)
(0.00951395 0.00762677 1.65811e-18)
(0.00884642 0.00810114 4.95955e-18)
(0.00898422 0.00776147 6.50903e-19)
(0.00911405 0.00742181 3.57858e-18)
(0.00923723 0.00708101 4.03337e-18)
(0.00935385 0.00673922 4.48072e-18)
(0.00946398 0.00639657 4.58794e-18)
(0.00956771 0.00605319 2.53609e-18)
(0.00966514 0.00570919 4.77997e-18)
(0.00975634 0.00536466 2.02143e-18)
(0.0098414 0.0050197 2.2443e-18)
(0.0099204 0.00467439 3.58527e-18)
(0.00999342 0.00432879 -1.36294e-20)
(0.0100605 0.00398296 1.90066e-18)
(0.0101218 0.00363695 1.33438e-18)
(0.0101773 0.0032908 1.29146e-18)
(0.010227 0.00294455 3.50907e-18)
(0.0102711 0.00259822 1.76605e-18)
(0.0103096 0.00225185 -1.60849e-18)
(0.0103425 0.00190544 2.02833e-18)
(0.0103698 0.00155901 6.12807e-18)
(0.0103917 0.00121257 3.5436e-18)
(0.010408 0.000866124 1.36534e-18)
(0.0104189 0.000519674 -3.00382e-19)
(0.0104244 0.000173224 2.84775e-18)
(0.0104244 -0.000173226 1.25674e-17)
(0.0104189 -0.000519676 1.69563e-17)
(0.010408 -0.000866125 1.53295e-17)
(0.0103917 -0.00121257 1.85754e-17)
(0.0103698 -0.00155901 2.12762e-17)
(0.0103425 -0.00190544 2.40403e-17)
(0.0103096 -0.00225185 3.40243e-17)
(0.0102711 -0.00259822 4.5972e-17)
(0.010227 -0.00294455 8.16562e-17)
(0.0096903 0.00781001 9.05561e-19)
(0.00903366 0.00827138 4.57359e-18)
(0.00917584 0.00792493 2.34915e-18)
(0.00930989 0.00757839 3.73718e-18)
(0.00943707 0.00723064 3.72682e-18)
(0.00955748 0.00688185 4.46447e-18)
(0.0096712 0.00653214 3.89296e-18)
(0.00977832 0.00618166 1.53302e-18)
(0.00987893 0.00583051 4.17608e-18)
(0.00997312 0.00547881 1.31999e-18)
(0.010061 0.00512663 3.32014e-18)
(0.0101426 0.00477407 4.6473e-18)
(0.010218 0.00442119 -3.11155e-19)
(0.0102873 0.00406805 1.66336e-18)
(0.0103506 0.00371472 1.31078e-18)
(0.0104079 0.00336122 3.76937e-19)
(0.0104593 0.0030076 2.34473e-18)
(0.0105049 0.0026539 1.34988e-18)
(0.0105446 0.00230013 -1.11146e-18)
(0.0105786 0.00194631 2.37747e-18)
(0.0106069 0.00159246 6.32934e-18)
(0.0106294 0.0012386 3.50626e-18)
(0.0106463 0.000884719 1.03797e-18)
(0.0106576 0.000530833 -2.56753e-20)
(0.0106632 0.000176944 3.38597e-18)
(0.0106632 -0.000176946 1.20996e-17)
(0.0106576 -0.000530835 1.60248e-17)
(0.0106463 -0.000884721 1.49037e-17)
(0.0106294 -0.0012386 1.75888e-17)
(0.0106069 -0.00159247 2.01587e-17)
(0.0105786 -0.00194631 2.27233e-17)
(0.0105446 -0.00230013 3.14227e-17)
(0.0105049 -0.0026539 3.95775e-17)
(0.0104593 -0.0030076 5.94524e-17)
(0.00986907 0.00799531 5.0366e-19)
(0.0092232 0.00844372 4.76276e-18)
(0.0093698 0.00809039 3.49939e-18)
(0.00950808 0.00773686 3.03745e-18)
(0.00963928 0.00738206 3.26054e-18)
(0.0097635 0.00702616 4.08616e-18)
(0.00988082 0.00666931 3.32418e-18)
(0.00999134 0.00631163 1.56199e-18)
(0.0100952 0.00595324 3.78683e-18)
(0.0101923 0.00559426 1.3901e-18)
(0.010283 0.00523477 3.80798e-18)
(0.0103672 0.00487487 4.76532e-18)
(0.010445 0.00451462 2.35483e-19)
(0.0105166 0.00415409 2.27571e-18)
(0.0105819 0.00379334 1.03564e-18)
(0.010641 0.00343241 -8.73341e-19)
(0.0106941 0.00307135 1.05893e-18)
(0.0107411 0.00271018 1.07292e-18)
(0.0107822 0.00234893 -5.11641e-19)
(0.0108172 0.00198762 2.5751e-18)
(0.0108464 0.00162628 6.77585e-18)
(0.0108697 0.0012649 3.68973e-18)
(0.0108872 0.000903513 7.15827e-19)
(0.0108988 0.000542112 2.67983e-20)
(0.0109046 0.000180704 3.63677e-18)
(0.0109046 -0.000180705 1.17211e-17)
(0.0108988 -0.000542113 1.51527e-17)
(0.0108872 -0.000903515 1.43863e-17)
(0.0108697 -0.00126491 1.66928e-17)
(0.0108464 -0.00162628 1.92297e-17)
(0.0108172 -0.00198762 2.1341e-17)
(0.0107822 -0.00234893 2.86223e-17)
(0.0107411 -0.00271018 3.44512e-17)
(0.0106941 -0.00307135 4.50305e-17)
(0.0100503 0.00818275 3.67488e-19)
(0.00941514 0.00861824 4.74947e-18)
(0.00956617 0.00825793 3.59933e-18)
(0.00970872 0.0078973 2.49072e-18)
(0.00984397 0.00753535 3.02216e-18)
(0.00997202 0.00717224 4.08311e-18)
(0.010093 0.00680813 3.34974e-18)
(0.0102069 0.00644315 1.25206e-18)
(0.0103139 0.00607743 2.73751e-18)
(0.0104141 0.00571107 2.29185e-18)
(0.0105076 0.00534418 3.9398e-18)
(0.0105944 0.00497684 4.35941e-18)
(0.0106747 0.00460913 1.01268e-18)
(0.0107484 0.00424112 2.71118e-18)
(0.0108158 0.00387287 6.45678e-19)
(0.0108768 0.00350442 -1.80386e-18)
(0.0109315 0.00313581 -4.14546e-20)
(0.01098 0.00276709 1.62203e-18)
(0.0110223 0.00239827 1.58293e-20)
(0.0110585 0.00202939 2.25258e-18)
(0.0110886 0.00166047 7.05446e-18)
(0.0111126 0.0012915 3.6124e-18)
(0.0111306 0.000922516 4.63096e-19)
(0.0111426 0.000553515 2.24635e-19)
(0.0111486 0.000184505 3.69569e-18)
(0.0111486 -0.000184507 1.10484e-17)
(0.0111426 -0.000553516 1.39483e-17)
(0.0111306 -0.000922517 1.4022e-17)
(0.0111126 -0.0012915 1.61098e-17)
(0.0110886 -0.00166047 1.83964e-17)
(0.0110585 -0.00202939 1.99277e-17)
(0.0110223 -0.00239827 2.62469e-17)
(0.01098 -0.00276709 3.05988e-17)
(0.0109315 -0.00313581 3.46028e-17)
(0.0108768 -0.00350441 6.99848e-18)
(0.0102342 0.00837243 -8.7875e-19)
(0.00960956 0.00879503 4.17489e-18)
(0.00976507 0.00842761 3.34451e-18)
(0.00991191 0.00805978 2.13231e-18)
(0.0100512 0.00769057 3.3917e-18)
(0.0101831 0.00732015 3.78267e-18)
(0.0103077 0.00694868 3.49599e-18)
(0.0104251 0.0065763 1.29502e-18)
(0.0105353 0.00620314 2.50474e-18)
(0.0106386 0.0058293 2.83552e-18)
(0.0107348 0.00545491 2.8793e-18)
(0.0108243 0.00508004 3.87567e-18)
(0.010907 0.00470477 2.15985e-18)
(0.010983 0.00432918 2.86891e-18)
(0.0110524 0.00395333 3.01882e-19)
(0.0111152 0.00357726 -2.36714e-18)
(0.0111716 0.00320103 -5.78448e-19)
(0.0112216 0.00282466 2.26275e-18)
(0.0112652 0.00244819 -1.76817e-20)
(0.0113025 0.00207165 2.10065e-18)
(0.0113335 0.00169505 7.01566e-18)
(0.0113582 0.00131841 3.17114e-18)
(0.0113768 0.000941736 7.35606e-19)
(0.0113892 0.000565048 1.39562e-18)
(0.0113953 0.00018835 3.80306e-18)
(0.0113953 -0.000188351 9.63342e-18)
(0.0113892 -0.000565049 1.27211e-17)
(0.0113768 -0.000941737 1.37905e-17)
(0.0113582 -0.00131841 1.51718e-17)
(0.0113335 -0.00169505 1.70907e-17)
(0.0113025 -0.00207165 1.85798e-17)
(0.0112652 -0.00244819 2.38658e-17)
(0.0112216 -0.00282466 2.76749e-17)
(0.0111716 -0.00320103 2.72868e-17)
(0.0111152 -0.00357726 5.55032e-18)
(0.0104208 0.00856445 -2.3511e-18)
(0.00980658 0.00897418 3.60191e-18)
(0.0099666 0.00859955 3.43738e-18)
(0.0101177 0.0082244 1.91055e-18)
(0.0102612 0.00784781 3.60694e-18)
(0.0103969 0.00746997 2.8445e-18)
(0.0105252 0.00709103 3.58899e-18)
(0.010646 0.00671114 1.37512e-18)
(0.0107595 0.00633043 2.45958e-18)
(0.0108658 0.00594902 2.75005e-18)
(0.0109649 0.00556701 2.46408e-18)
(0.011057 0.00518451 3.9961e-18)
(0.0111421 0.00480159 2.97015e-18)
(0.0112203 0.00441832 2.80466e-18)
(0.0112918 0.00403477 2.35675e-19)
(0.0113565 0.00365099 -2.2319e-18)
(0.0114146 0.00326703 -5.82452e-19)
(0.011466 0.00288292 2.1042e-18)
(0.0115109 0.00249871 -6.60326e-19)
(0.0115493 0.0021144 1.82809e-18)
(0.0115812 0.00173004 6.10535e-18)
(0.0116067 0.00134563 3.07738e-18)
(0.0116258 0.000961183 1.97282e-18)
(0.0116386 0.000576718 3.07467e-18)
(0.0116449 0.00019224 4.10649e-18)
(0.0116449 -0.000192241 8.23038e-18)
(0.0116386 -0.000576719 1.17596e-17)
(0.0116258 -0.000961184 1.35824e-17)
(0.0116067 -0.00134563 1.38223e-17)
(0.0115812 -0.00173004 1.54012e-17)
(0.0115493 -0.0021144 1.74983e-17)
(0.0115109 -0.00249871 2.12988e-17)
(0.011466 -0.00288292 2.43102e-17)
(0.0114146 -0.00326703 2.24925e-17)
(0.0113565 -0.00365099 5.04896e-18)
(0.0106101 0.0087589 -2.36147e-18)
(0.0100063 0.00915578 3.08005e-18)
(0.0101708 0.00877381 3.13042e-18)
(0.0103263 0.00839122 1.63065e-18)
(0.0104739 0.00800715 3.8036e-18)
(0.0106136 0.00762177 2.42488e-18)
(0.0107455 0.00723525 3.51547e-18)
(0.0108698 0.00684774 1.3613e-18)
(0.0109866 0.00645937 2.31733e-18)
(0.0110959 0.00607028 2.46518e-18)
(0.0111979 0.00568056 2.35472e-18)
(0.0112926 0.00529031 3.84061e-18)
(0.0113802 0.00489962 2.81115e-18)
(0.0114607 0.00450857 2.38489e-18)
(0.0115342 0.00411722 9.0849e-19)
(0.0116007 0.00372563 -1.52385e-18)
(0.0116605 0.00333385 -8.39583e-19)
(0.0117134 0.0029419 1.21974e-18)
(0.0117596 0.00254984 -1.59142e-18)
(0.0117991 0.00215768 1.33155e-18)
(0.011832 0.00176546 4.82976e-18)
(0.0118582 0.00137318 3.39602e-18)
(0.0118779 0.000980868 3.77374e-18)
(0.011891 0.00058853 4.5937e-18)
(0.0118975 0.000196178 4.342e-18)
(0.0118975 -0.000196179 7.16209e-18)
(0.011891 -0.000588531 1.09552e-17)
(0.0118779 -0.000980869 1.36292e-17)
(0.0118582 -0.00137318 1.27247e-17)
(0.011832 -0.00176546 1.37836e-17)
(0.0117991 -0.00215768 1.65127e-17)
(0.0117596 -0.00254984 1.84626e-17)
(0.0117134 -0.0029419 2.13325e-17)
(0.0116605 -0.00333384 1.90239e-17)
(0.0108023 0.00895588 -1.52453e-18)
(0.0102088 0.00933991 2.97536e-18)
(0.0103779 0.00895049 3.39096e-18)
(0.0105378 0.00856035 1.6055e-18)
(0.0106895 0.00816867 3.88949e-18)
(0.0108331 0.00777564 2.32683e-18)
(0.0109688 0.00738142 2.47195e-18)
(0.0110966 0.00698617 1.10257e-18)
(0.0112166 0.00659004 2.43199e-18)
(0.011329 0.00619314 2.74378e-18)
(0.0114338 0.00579559 2.49847e-18)
(0.0115312 0.00539749 3.2414e-18)
(0.0116213 0.00499894 2.65345e-18)
(0.011704 0.0046 2.26656e-18)
(0.0117796 0.00420074 1.30562e-18)
(0.0118481 0.00380123 -1.34387e-18)
(0.0119095 0.00340152 -1.00525e-18)
(0.0119639 0.00300163 1.05813e-18)
(0.0120114 0.00260162 -1.8856e-18)
(0.012052 0.00220151 1.06113e-18)
(0.0120858 0.00180133 3.96124e-18)
(0.0121128 0.00140108 3.60636e-18)
(0.012133 0.0010008 4.98653e-18)
(0.0121465 0.00060049 5.36333e-18)
(0.0121532 0.000200165 4.15647e-18)
(0.0121532 -0.000200165 6.32399e-18)
(0.0121465 -0.000600491 1.03274e-17)
(0.012133 -0.0010008 1.3749e-17)
(0.0121128 -0.00140108 1.22671e-17)
(0.0120858 -0.00180133 1.25985e-17)
(0.012052 -0.00220151 1.53713e-17)
(0.0120114 -0.00260162 1.61486e-17)
(0.0119639 -0.00300163 1.88142e-17)
(0.0119095 -0.00340151 1.67235e-17)
(0.0109975 0.0091555 -2.61753e-19)
(0.0104141 0.00952668 3.85072e-18)
(0.0105879 0.00912967 3.43127e-18)
(0.0107522 0.00873186 1.58982e-18)
(0.0109081 0.00833245 3.76857e-18)
(0.0110557 0.00793164 1.98005e-18)
(0.0111951 0.0075296 1.50887e-18)
(0.0113264 0.0071265 1.32995e-18)
(0.0114497 0.00672248 2.70595e-18)
(0.0115652 0.00631766 2.71502e-18)
(0.011673 0.00591217 2.39965e-18)
(0.011773 0.00550611 2.84148e-18)
(0.0118656 0.00509957 2.87944e-18)
(0.0119506 0.00469263 2.32531e-18)
(0.0120283 0.00428537 1.51404e-18)
(0.0120986 0.00387783 -1.31708e-18)
(0.0121617 0.00347008 -8.1991e-19)
(0.0122176 0.00306215 1.40185e-18)
(0.0122665 0.00265408 -1.77295e-18)
(0.0123082 0.00224591 8.66166e-19)
(0.0123429 0.00183766 3.42705e-18)
(0.0123707 0.00142935 3.55076e-18)
(0.0123914 0.00102099 5.2159e-18)
(0.0124053 0.000612605 5.58772e-18)
(0.0124122 0.000204203 4.08637e-18)
(0.0124122 -0.000204204 5.63901e-18)
(0.0124053 -0.000612605 9.93039e-18)
(0.0123914 -0.00102099 1.37504e-17)
(0.0123707 -0.00142935 1.18776e-17)
(0.0123429 -0.00183766 1.16224e-17)
(0.0123082 -0.00224591 1.39987e-17)
(0.0122665 -0.00265408 1.42009e-17)
(0.0122176 -0.00306215 1.64928e-17)
(0.0121617 -0.00347007 1.58044e-17)
(0.0111958 0.00935785 5.07018e-19)
(0.0106225 0.00971618 4.82983e-18)
(0.010801 0.00931146 2.53288e-18)
(0.0109697 0.00890584 9.31576e-19)
(0.0111298 0.00849858 3.3952e-18)
(0.0112814 0.00808987 1.96352e-18)
(0.0114246 0.00767989 1.1646e-18)
(0.0115594 0.00726881 1.3158e-18)
(0.0116861 0.00685677 2.5694e-18)
(0.0118047 0.00644392 2.6404e-18)
(0.0119153 0.00603037 2.43638e-18)
(0.0120181 0.00561623 2.66405e-18)
(0.0121131 0.00520159 2.85912e-18)
(0.0122005 0.00478653 2.6119e-18)
(0.0122802 0.00437114 1.80555e-18)
(0.0123525 0.00395546 -1.00818e-18)
(0.0124173 0.00353956 -4.10945e-19)
(0.0124747 0.00312347 1.3836e-18)
(0.0125249 0.00270724 -1.87934e-18)
(0.0125677 0.0022909 1.25173e-19)
(0.0126034 0.00187448 2.85264e-18)
(0.0126319 0.00145798 3.59872e-18)
(0.0126532 0.00104145 5.13404e-18)
(0.0126674 0.00062488 5.38125e-18)
(0.0126745 0.000208295 4.53295e-18)
(0.0126745 -0.000208296 5.33103e-18)
(0.0126674 -0.000624881 9.50018e-18)
(0.0126532 -0.00104145 1.36989e-17)
(0.0126319 -0.00145798 1.14981e-17)
(0.0126034 -0.00187448 1.09894e-17)
(0.0125677 -0.0022909 1.24388e-17)
(0.0125249 -0.00270724 1.23678e-17)
(0.0124747 -0.00312347 1.45187e-17)
(0.0124173 -0.00353955 1.48868e-17)
(0.0113972 0.00956305 1.01357e-18)
(0.010834 0.00990851 5.01661e-18)
(0.0110172 0.00949594 1.43136e-18)
(0.0111904 0.00908239 8.01661e-19)
(0.0113548 0.00866714 3.02778e-18)
(0.0115104 0.0082504 2.14643e-18)
(0.0116574 0.00783235 5.18457e-19)
(0.0117958 0.00741316 9.32738e-19)
(0.0119258 0.00699299 2.50731e-18)
(0.0120476 0.00657198 3.01767e-18)
(0.0121611 0.00615024 2.95632e-18)
(0.0122666 0.00572789 2.48122e-18)
(0.0123642 0.00530503 2.85747e-18)
(0.0124538 0.00488175 2.99308e-18)
(0.0125357 0.0044581 2.0153e-18)
(0.0126098 0.00403417 -5.99952e-19)
(0.0126764 0.00361 -8.26332e-20)
(0.0127353 0.00318564 1.34265e-18)
(0.0127868 0.00276113 -2.37624e-18)
(0.0128308 0.00233651 -1.08427e-18)
(0.0128674 0.00191179 2.41279e-18)
(0.0128966 0.00148701 3.94305e-18)
(0.0129185 0.00106218 5.02866e-18)
(0.0129331 0.000637323 5.01744e-18)
(0.0129404 0.000212443 5.2019e-18)
(0.0129404 -0.000212443 5.2631e-18)
(0.0129331 -0.000637324 9.08099e-18)
(0.0129185 -0.00106219 1.38547e-17)
(0.0128966 -0.00148701 1.13333e-17)
(0.0128674 -0.00191179 1.03259e-17)
(0.0128308 -0.00233651 1.0297e-17)
(0.0127868 -0.00276113 1.07547e-17)
(0.0127353 -0.00318564 1.39455e-17)
(0.011602 0.00977119 2.12057e-18)
(0.0110487 0.0101038 4.78746e-18)
(0.0112366 0.00968322 6.93798e-19)
(0.0114144 0.00926159 6.67821e-19)
(0.0115831 0.00883822 2.1961e-18)
(0.0117428 0.00841331 2.0559e-18)
(0.0118936 0.00798706 5.94274e-19)
(0.0120356 0.00755964 1.37364e-18)
(0.012169 0.0071312 2.66599e-18)
(0.0122939 0.0067019 3.51059e-18)
(0.0124104 0.00627185 3.71079e-18)
(0.0125187 0.00584117 2.18807e-18)
(0.0126187 0.00540997 2.68298e-18)
(0.0127107 0.00497832 2.92814e-18)
(0.0127947 0.00454631 1.76427e-18)
(0.0128708 0.00411399 -2.58761e-19)
(0.012939 0.00368144 5.09299e-19)
(0.0129995 0.00324869 1.38568e-18)
(0.0130523 0.00281578 -3.10587e-18)
(0.0130975 0.00238276 -2.1176e-18)
(0.013135 0.00194964 2.10026e-18)
(0.013165 0.00151645 4.27446e-18)
(0.0131875 0.00108321 5.00237e-18)
(0.0132024 0.00064994 4.56859e-18)
(0.0132099 0.000216649 5.76245e-18)
(0.0132099 -0.000216649 5.68699e-18)
(0.0132024 -0.00064994 8.61344e-18)
(0.0131875 -0.00108321 1.3754e-17)
(0.013165 -0.00151645 1.1518e-17)
(0.013135 -0.00194964 9.96813e-18)
(0.0130975 -0.00238276 8.30331e-18)
(0.0130523 -0.00281578 9.16726e-18)
(0.0129995 -0.00324869 1.40975e-17)
(0.0118101 0.0099824 3.65131e-18)
(0.0112667 0.0103021 3.57155e-18)
(0.0114595 0.00987339 5.03738e-19)
(0.0116419 0.00944355 6.75536e-19)
(0.0118149 0.00901192 1.43748e-18)
(0.0119787 0.00857871 1.97874e-18)
(0.0121333 0.00814412 1.27107e-18)
(0.012279 0.00770832 1.55048e-18)
(0.0124158 0.00727148 2.59686e-18)
(0.0125439 0.00683375 3.75869e-18)
(0.0126634 0.00639526 4.22578e-18)
(0.0127744 0.00595612 1.98585e-18)
(0.012877 0.00551644 2.20208e-18)
(0.0129713 0.00507631 2.86853e-18)
(0.0130575 0.0046358 1.75979e-18)
(0.0131355 0.00419498 -4.15399e-19)
(0.0132055 0.00375391 4.76455e-19)
(0.0132675 0.00331265 1.41302e-18)
(0.0133216 0.00287122 -3.28324e-18)
(0.0133679 0.00242967 -2.45345e-18)
(0.0134064 0.00198802 1.99102e-18)
(0.0134372 0.00154631 4.34486e-18)
(0.0134602 0.00110454 4.80036e-18)
(0.0134756 0.000662737 4.07957e-18)
(0.0134832 0.000220914 6.08883e-18)
(0.0134832 -0.000220915 6.77812e-18)
(0.0134756 -0.000662737 8.42977e-18)
(0.0134602 -0.00110454 1.29328e-17)
(0.0134372 -0.00154631 1.15148e-17)
(0.0134064 -0.00198802 9.89652e-18)