/*--------------------------------*- C++ -*----------------------------------*\
  =========                 |
  \\      /  F ield         | OpenFOAM: The Open Source CFD Toolbox
   \\    /   O peration     | Website:  https://openfoam.org
    \\  /    A nd           | Version:  7
     \\/     M anipulation  |
\*---------------------------------------------------------------------------*/
FoamFile
{
    version     2.0;
    format      ascii;
    class       surfaceScalarField;
    location    "260000";
    object      phi;
}
// * * * * * * * * * * * * * * * * * * * * * * * * * * * * * * * * * * * * * //

dimensions      [0 3 -1 0 0 0 0];

internalField   nonuniform List<scalar> 
9474
(
7.48852e-24
-4.90145e-23
8.71315e-24
-6.79401e-23
1.33197e-23
9.47621e-23
-3.17422e-23
2.31433e-24
-8.17573e-24
-1.7398e-24
4.06932e-24
9.11243e-23
4.93119e-24
4.51117e-23
3.31929e-24
2.0769e-23
5.5096e-24
1.76857e-22
1.03457e-23
1.61914e-22
1.23998e-23
-1.15134e-23
1.53784e-23
1.15616e-22
1.58109e-23
-5.01528e-23
1.19407e-23
6.04425e-23
9.03793e-24
-1.04602e-23
1.51939e-23
1.29563e-22
9.72101e-24
-2.22893e-22
8.95768e-24
1.16459e-24
7.39885e-24
-3.00775e-23
8.77823e-24
-6.38588e-23
1.29103e-23
5.26301e-23
1.8268e-23
-3.39865e-23
1.28656e-23
-1.00261e-22
7.47825e-24
-9.09467e-23
3.03254e-24
-2.16635e-23
6.68542e-24
3.23423e-23
1.55469e-24
-1.0347e-22
1.66321e-24
1.48674e-23
-2.13192e-24
-1.09221e-22
-1.37251e-24
-2.21333e-23
-5.07644e-24
-6.817e-23
-5.39703e-24
-5.99759e-23
-5.7613e-24
-7.93353e-23
-8.94082e-24
-3.23096e-23
-7.4639e-24
9.02001e-23
-2.71113e-24
1.05571e-22
9.24615e-25
9.0467e-23
9.97272e-24
2.3748e-24
-4.56021e-23
-2.17448e-24
4.15174e-24
1.30443e-22
4.84667e-24
3.08331e-23
3.28785e-24
1.3032e-23
5.55107e-24
1.38546e-22
9.63917e-24
8.96498e-23
1.23431e-23
3.3087e-23
1.50349e-23
1.308e-22
1.58163e-23
-4.27496e-23
1.19211e-23
2.68284e-23
8.45198e-24
-4.04896e-23
1.46888e-23
1.53343e-22
9.47867e-24
-2.51012e-22
9.12022e-24
-1.47722e-23
7.22723e-24
-3.18691e-23
8.45757e-24
-7.59299e-23
1.30027e-23
2.98465e-23
1.77337e-23
-6.09402e-23
1.30433e-23
-1.06712e-22
7.31778e-24
-9.03422e-23
3.01816e-24
-1.60085e-23
6.43217e-24
3.23054e-23
1.43194e-24
-9.74078e-23
1.62481e-24
1.55973e-23
-2.24436e-24
-8.87534e-23
-1.4291e-24
-2.98386e-23
-5.14915e-24
-9.93474e-23
-5.44067e-24
-5.95837e-23
-5.53623e-24
-3.98824e-23
-8.38852e-24
-3.65986e-23
-7.51211e-24
6.41725e-23
-2.60526e-24
9.04239e-23
6.18899e-25
1.2411e-22
-3.71038e-25
2.2292e-23
-1.15879e-24
9.02105e-23
2.07783e-24
1.01618e-22
2.57927e-24
3.20839e-23
2.88303e-24
2.24214e-23
-2.1376e-24
-3.18383e-23
-1.75818e-24
5.84304e-23
7.67917e-23
2.45144e-24
-4.27099e-23
-2.10436e-24
3.76648e-24
1.1139e-22
4.52584e-24
3.05365e-23
3.26333e-24
5.3085e-23
5.24705e-24
1.45659e-22
9.23657e-24
4.97313e-23
1.20825e-23
6.95739e-23
1.45554e-23
1.17556e-22
1.61557e-23
8.51326e-24
1.17179e-23
9.48208e-23
8.29969e-24
-2.75193e-23
1.41724e-23
1.79663e-22
9.23219e-24
-2.47865e-22
9.06046e-24
-6.55124e-23
7.10306e-24
-6.79595e-23
7.96735e-24
-7.48254e-23
1.286e-23
1.86699e-23
1.74511e-23
-5.37227e-23
1.31792e-23
-1.1396e-22
7.21245e-24
-9.64548e-23
3.08345e-24
-2.62168e-23
6.06316e-24
1.18309e-23
1.36482e-24
-8.90105e-23
1.59608e-24
-9.7772e-25
-2.43355e-24
-7.79998e-23
-1.55115e-24
-3.62873e-23
-5.14262e-24
-9.03354e-23
-5.29887e-24
-5.72602e-23
-5.47415e-24
-3.36602e-23
-7.90118e-24
-7.71892e-25
-7.60436e-24
5.55737e-23
-2.30383e-24
8.43873e-23
4.0713e-25
1.1755e-22
-1.29638e-25
4.36307e-23
-1.27554e-24
8.66493e-23
2.1927e-24
1.13614e-22
2.32734e-24
-6.87042e-24
3.17737e-24
6.25246e-23
-2.08074e-24
-6.65807e-23
-2.06347e-24
4.1098e-23
4.04982e-24
7.31421e-23
6.3401e-25
3.5717e-23
-6.92707e-24
-7.39076e-23
-2.54573e-23
3.12711e-24
-4.7281e-23
-1.7134e-24
3.56626e-24
1.18833e-22
4.83598e-24
6.39069e-23
2.81523e-24
4.82791e-23
4.776e-24
1.48251e-22
9.50647e-24
5.27097e-23
1.18564e-23
6.92174e-23
1.42212e-23
8.72219e-23
1.65181e-23
-1.80419e-24
1.11055e-23
1.0725e-22
8.24437e-24
-2.77713e-23
1.31958e-23
1.65291e-22
9.2185e-24
-2.46027e-22
9.2211e-24
-5.89992e-23
6.90187e-24
-5.79459e-23
7.53189e-24
-1.17847e-23
1.26419e-23
2.46978e-23
1.69598e-23
-3.88095e-23
1.34974e-23
-1.19771e-22
7.14077e-24
-1.26589e-22
2.99662e-24
-1.8275e-23
5.89711e-24
2.56748e-23
1.22315e-24
-8.74424e-23
1.65769e-24
1.67396e-24
-2.71333e-24
-1.08513e-22
-1.56362e-24
1.76214e-23
-5.1943e-24
-8.10082e-23
-5.12955e-24
-5.35264e-23
-5.24905e-24
-3.19502e-23
-7.69411e-24
6.77598e-24
-7.6019e-24
4.06693e-23
-2.05316e-24
8.16107e-23
3.85988e-25
1.27011e-22
2.42251e-26
3.09409e-23
-1.38728e-24
4.89622e-23
1.84782e-24
9.99557e-23
2.82838e-24
-2.69873e-23
2.73819e-24
6.25132e-23
-1.7706e-24
-4.22365e-23
-2.05992e-24
3.74628e-23
4.81137e-24
6.69692e-23
3.9293e-25
7.85092e-24
-6.90287e-24
-6.70157e-23
-4.02457e-23
3.20431e-24
-4.87514e-23
-1.96232e-24
3.39379e-24
5.88218e-23
4.64869e-24
2.86207e-23
2.49464e-24
7.1806e-23
4.42284e-24
6.42741e-23
9.40338e-24
8.02026e-23
1.14071e-23
1.05326e-22
1.42382e-23
8.49246e-23
1.67137e-23
4.37435e-23
1.09259e-23
1.19616e-22
8.10501e-24
-1.86973e-23
1.21574e-23
1.37854e-22
9.08804e-24
-1.85398e-22
9.45531e-24
3.20773e-24
6.7763e-24
-6.87918e-23
7.15577e-24
-4.91024e-23
1.26246e-23
3.47369e-23
1.65168e-23
-7.05763e-23
1.34507e-23
-7.76521e-23
7.27902e-24
-1.59342e-22
3.10364e-24
-1.29128e-23
5.61098e-24
-1.40564e-23
1.21188e-24
-5.99276e-23
1.54823e-24
-4.46973e-24
-2.55515e-24
-9.833e-23
-1.81542e-24
2.25536e-23
-5.2893e-24
-5.86222e-23
-5.02811e-24
-4.85527e-23
-5.01648e-24
-1.22511e-23
-7.57424e-24
2.39912e-24
-7.56234e-24
1.85874e-24
-1.85012e-24
7.54459e-23
2.94419e-25
1.4097e-22
-1.94282e-25
1.31957e-23
-1.60927e-24
5.00809e-23
1.86691e-24
8.50185e-23
3.18309e-24
-3.50586e-23
2.75927e-24
4.39759e-23
-1.75652e-24
-2.97656e-23
-2.04649e-24
1.73154e-23
4.94773e-24
5.55835e-23
5.36465e-25
-3.29296e-23
-6.58587e-24
-5.90695e-23
-5.71142e-23
3.32855e-24
-5.19697e-23
-2.09686e-24
3.53079e-24
9.69769e-23
4.54017e-24
2.89785e-23
1.93226e-24
6.12124e-23
4.5091e-24
1.00057e-22
8.98015e-24
3.75663e-23
1.11132e-23
1.1158e-22
1.43281e-23
9.27896e-23
1.66906e-23
-3.56958e-23
1.09675e-23
3.72537e-23
7.69871e-24
-1.08412e-23
1.16392e-23
1.02164e-22
8.84264e-24
-1.22503e-22
9.65603e-24
6.66433e-24
6.73191e-24
-7.39307e-23
6.96311e-24
-1.14895e-23
1.234e-23
3.73554e-23
1.64418e-23
-4.25976e-23
1.29788e-23
-5.93598e-23
7.69321e-24
-1.41129e-22
2.98448e-24
-5.83147e-24
5.56153e-24
-1.66041e-23
9.93958e-25
-8.05682e-23
1.49605e-24
4.22383e-24
-2.39662e-24
-9.20238e-23
-1.9794e-24
1.16126e-23
-5.44308e-24
-4.76366e-23
-4.86147e-24
-3.28122e-23
-4.73266e-24
-7.61023e-24
-7.69604e-24
-5.95742e-23
-7.35143e-24
1.81572e-23
-1.51494e-24
7.49853e-23
3.06552e-26
1.22905e-22
-1.8849e-25
5.62099e-24
-1.7606e-24
3.97526e-23
1.42275e-24
8.50789e-23
3.43264e-24
-3.37324e-23
2.86818e-24
4.95271e-23
-1.78395e-24
-1.44136e-23
-2.14701e-24
1.31237e-23
5.10233e-24
1.14024e-22
8.53986e-25
1.92603e-23
-6.32451e-24
-4.51028e-23
-6.38379e-23
3.73232e-24
-5.61567e-23
-2.02194e-24
3.40048e-24
3.1985e-23
4.68777e-24
3.01478e-23
1.5244e-24
6.5508e-23
4.18464e-24
9.6863e-23
8.79755e-24
4.00092e-23
1.09376e-23
7.15667e-23
1.3984e-23
1.28113e-22
1.69558e-23
1.20209e-24
1.08896e-23
8.08541e-23
7.19386e-24
-2.90105e-23
1.14113e-23
8.93154e-23
8.38221e-24
-2.0493e-22
9.58357e-24
1.27318e-23
6.791e-24
-6.52167e-23
6.65573e-24
-1.04449e-23
1.20356e-23
5.38235e-23
1.61269e-23
-1.51428e-23
1.26734e-23
-5.75812e-23
7.92043e-24
-1.39331e-22
2.91639e-24
-3.56362e-23
5.46159e-24
-1.91984e-23
9.1569e-25
-8.9029e-23
1.40774e-24
9.38397e-24
-2.29398e-24
-7.75946e-23
-2.081e-24
5.12601e-24
-5.60097e-24
-4.86475e-23
-4.71498e-24
7.06326e-24
-4.79346e-24
-4.6225e-23
-7.42482e-24
-5.7815e-23
-7.09669e-24
2.34459e-23
-1.36029e-24
7.28198e-23
1.01559e-25
1.22324e-22
-3.05292e-25
-1.25682e-23
-1.83028e-24
6.33375e-23
1.5637e-24
4.74901e-23
3.48172e-24
-3.09082e-23
2.76838e-24
3.74444e-23
-1.75402e-24
-1.46166e-23
-2.15986e-24
4.98076e-23
5.51197e-24
9.99693e-23
7.49683e-25
3.32422e-23
-6.06183e-24
-5.22744e-23
-9.40339e-24
-3.28426e-23
-1.02796e-23
3.94849e-24
-4.59441e-23
-2.04086e-24
3.43376e-24
3.82954e-23
4.33908e-24
-4.68583e-24
1.38951e-24
6.69157e-23
3.70393e-24
1.06678e-22
8.78722e-24
4.7697e-23
1.10233e-23
5.63274e-23
1.33638e-23
1.62487e-22
1.71347e-23
3.35383e-23
1.06981e-23
7.49215e-23
6.53714e-24
-3.95202e-23
1.09648e-23
1.19958e-22
8.13221e-24
-1.67541e-22
9.67927e-24
2.76235e-23
6.54059e-24
-8.49419e-23
6.58193e-24
6.73593e-25
1.19364e-23
2.11065e-23
1.58196e-23
1.79328e-23
1.2492e-23
-5.76421e-23
8.04495e-24
-1.21809e-22
2.8948e-24
-6.92786e-23
5.29952e-24
-8.39268e-24
9.42091e-25
-7.18202e-23
1.35116e-24
-6.09138e-24
-2.22304e-24
-7.9103e-23
-2.23732e-24
-3.56315e-23
-5.49523e-24
-5.7286e-23
-4.94014e-24
5.74046e-24
-4.59881e-24
-4.46329e-23
-7.27034e-24
-5.91916e-23
-6.84181e-24
6.03093e-23
-1.39103e-24
6.20403e-23
-2.21729e-25
8.19734e-23
-2.04239e-25
1.09183e-24
-2.20294e-24
2.94828e-23
1.75137e-24
8.15955e-23
3.71701e-24
-1.25274e-23
2.86193e-24
2.91308e-23
-1.61689e-24
-6.54514e-23
-2.01236e-24
8.3661e-23
5.85784e-24
1.18284e-22
8.71469e-25
1.33023e-23
-5.95569e-24
-8.83838e-23
-9.1713e-24
-3.92032e-23
-3.65002e-23
4.12512e-24
-3.80194e-23
-1.98862e-24
3.47782e-24
2.61254e-23
4.25048e-24
-7.44546e-23
1.20332e-24
3.90562e-23
3.23508e-24
1.29319e-22
8.71083e-24
8.45994e-23
1.10059e-23
5.50629e-23
1.3267e-23
1.62778e-22
1.69663e-23
9.42132e-23
1.06109e-23
7.9794e-23
6.564e-24
-8.8462e-23
1.03323e-23
9.12257e-23
8.18914e-24
-1.31628e-22
9.44652e-24
-3.51314e-24
6.58757e-24
-7.6903e-23
6.28892e-24
1.78898e-23
1.17563e-23
9.76058e-24
1.55212e-23
1.80266e-23
1.22345e-23
-8.83869e-23
7.92512e-24
-1.21213e-22
3.06287e-24
-6.66677e-23
5.13932e-24
6.79567e-24
8.19787e-25
-6.01024e-23
1.37688e-24
5.85344e-24
-2.2705e-24
-7.75357e-23
-2.3051e-24
-2.91306e-23
-5.36536e-24
-5.01618e-23
-5.09044e-24
6.32582e-24
-4.38655e-24
-4.47974e-23
-7.09787e-24
-6.21771e-23
-6.66649e-24
5.01031e-23
-1.40516e-24
5.27985e-23
-1.26116e-25
9.6933e-23
-3.09089e-25
-1.77364e-23
-2.36426e-24
6.79825e-23
1.79389e-24
1.18317e-22
4.03022e-24
5.14673e-23
2.62467e-24
8.62699e-24
-1.3157e-24
-6.02246e-23
-2.27928e-24
1.00659e-22
6.08676e-24
1.05117e-22
1.00906e-24
3.0179e-24
-5.8089e-24
-8.72067e-23
-9.23664e-24
-4.19089e-23
-6.59592e-23
4.09127e-24
2.68443e-24
-2.17126e-24
3.33697e-24
3.44653e-23
4.51578e-24
-7.25934e-23
7.26664e-25
4.07073e-23
2.9911e-24
1.32811e-22
8.48384e-24
1.04397e-22
1.10898e-23
5.54018e-23
1.30228e-23
1.51942e-22
1.67256e-23
9.06526e-23
1.02277e-23
4.82417e-23
5.97283e-24
-8.79106e-23
1.00536e-23
9.11181e-23
7.84268e-24
-1.12776e-22
9.82328e-24
4.25135e-24
6.36127e-24
-8.29953e-23
6.13819e-24
5.09664e-23
1.15596e-23
-1.06105e-23
1.53332e-23
5.0782e-23
1.19396e-23
-9.80686e-23
7.9269e-24
-1.21174e-22
3.24152e-24
-6.77664e-23
5.08476e-24
6.60415e-24
7.51856e-25
-1.12715e-22
1.30873e-24
6.04779e-24
-2.23513e-24
-7.93914e-23
-2.41449e-24
-3.1849e-23
-5.28229e-24
-2.59663e-23
-5.3139e-24
-1.36012e-24
-4.16718e-24
1.54075e-23
-6.93377e-24
-6.28902e-23
-6.49527e-24
5.28552e-23
-1.41572e-24
6.27691e-23
-2.21953e-25
7.12809e-23
-2.57717e-25
8.3026e-25
-2.32734e-24
3.67991e-23
1.66639e-24
1.07607e-22
3.82543e-24
3.80108e-23
2.73781e-24
3.62208e-23
-7.04506e-25
-2.44131e-23
-2.29186e-24
1.01218e-22
6.13065e-24
1.57079e-22
1.35941e-24
4.28024e-24
-5.82647e-24
-9.7395e-23
-9.20715e-24
-4.68454e-23
4.19481e-24
3.9619e-23
-2.14849e-24
3.26734e-24
2.67868e-23
4.50942e-24
-9.32013e-23
7.60529e-25
5.75913e-23
2.63349e-24
1.06187e-22
8.38041e-24
8.81093e-23
1.08955e-23
5.62452e-23
1.27748e-23
1.5668e-22
1.67358e-23
8.62481e-23
9.97971e-24
7.94225e-23
5.63412e-24
-8.77509e-23
9.86837e-24
7.72e-23
7.48792e-24
-1.13723e-22
9.6011e-24
-3.34852e-24
6.45606e-24
-4.72174e-23
5.76167e-24
4.93356e-23
1.14774e-23
-3.01284e-23
1.49108e-23
3.31837e-23
1.16787e-23
-1.0725e-22
8.02208e-24
-8.82676e-23
3.33242e-24
-6.84795e-23
4.85829e-24
8.42368e-24
8.01035e-25
-1.09352e-22
1.22621e-24
8.09261e-24
-2.17343e-24
-7.76655e-23
-2.43887e-24
-3.34483e-23
-5.28719e-24
-3.88454e-23
-5.26874e-24
-8.00363e-25
-4.06666e-24
2.09271e-24
-6.86487e-24
-7.75664e-23
-6.28201e-24
3.91858e-23
-1.39555e-24
5.57572e-23
-1.44866e-25
1.01258e-22
-2.28932e-25
5.81309e-24
-2.36509e-24
2.70628e-24
1.75608e-24
1.10392e-22
3.9248e-24
5.55715e-23
2.75171e-24
4.08829e-23
-6.87469e-25
-3.00477e-23
-2.15864e-24
9.7788e-23
5.82871e-24
1.13358e-22
1.45742e-24
4.92717e-24
-5.60096e-24
-1.24001e-22
-2.97533e-23
4.08028e-24
9.77448e-24
-2.63576e-24
2.98013e-24
4.84634e-24
4.73618e-24
-6.42155e-23
7.25804e-25
4.20045e-24
2.12466e-24
1.31492e-22
8.30317e-24
1.16714e-22
1.09024e-23
8.64949e-23
1.22746e-23
1.60075e-22
1.65671e-23
1.58196e-22
9.66934e-24
2.18402e-23
5.26394e-24
-5.42438e-23
9.81473e-24
7.8814e-23
7.15278e-24
-8.04578e-23
9.71357e-24
-3.34588e-23
6.22818e-24
-1.37881e-23
5.51052e-24
4.39686e-23
1.13915e-23
-2.95786e-23
1.46714e-23
6.25809e-23
1.13781e-23
-9.9794e-23
7.93031e-24
-7.03196e-23
3.34067e-24
-8.21121e-23
4.6559e-24
7.63106e-24
8.76296e-25
-1.14835e-22
1.09872e-24
7.52963e-24
-2.07891e-24
-6.44955e-23
-2.5155e-24
-2.1559e-23
-5.20938e-24
-3.76936e-23
-5.25789e-24
-1.15083e-23
-3.98279e-24
-9.14093e-25
-6.68092e-24
-1.14394e-22
-6.04525e-24
2.81845e-23
-1.27317e-24
5.06716e-23
-1.7318e-25
8.42308e-23
-5.01257e-25
1.1955e-23
-2.26164e-24
-4.40685e-24
1.85654e-24
6.55785e-23
3.76496e-24
5.8653e-23
2.83136e-24
1.57333e-23
-8.30541e-25
-6.33689e-23
-2.18041e-24
6.61904e-23
6.08373e-24
1.65005e-22
1.45788e-24
-5.12399e-23
-5.19254e-24
-1.19843e-22
-8.25925e-23
4.05149e-24
-5.7405e-24
-2.7993e-24
2.83925e-24
1.17839e-23
4.47309e-24
-6.32895e-23
8.23172e-25
3.79342e-23
1.73042e-24
9.45786e-23
8.30923e-24
1.68686e-22
1.07605e-23
5.57918e-23
1.21782e-23
1.76895e-22
1.61455e-23
1.53355e-22
9.50535e-24
2.51228e-23
4.77045e-24
-8.12616e-23
9.54755e-24
6.90647e-23
7.07303e-24
-8.06248e-23
9.7994e-24
-4.32623e-23
6.00987e-24
-3.71207e-23
5.27876e-24
4.27205e-23
1.10991e-23
6.42524e-24
1.44035e-23
9.82608e-23
1.13043e-23
-1.23668e-22
7.77618e-24
-7.32375e-23
3.43127e-24
-9.52208e-23
4.37012e-24
6.80068e-24
1.02024e-24
-1.09249e-22
1.06179e-24
-7.59259e-24
-1.97501e-24
-6.29183e-23
-2.71208e-24
-1.02208e-23
-5.17669e-24
-3.81178e-23
-5.21852e-24
-4.95825e-24
-4.02973e-24
1.42657e-23
-6.41051e-24
-1.14772e-22
-5.91082e-24
3.22579e-23
-1.20015e-24
4.67402e-23
-1.30872e-25
5.34435e-23
-7.07134e-25
-1.33278e-23
-2.27578e-24
-2.80772e-23
1.92872e-24
6.4004e-23
3.64828e-24
4.51601e-23
2.88189e-24
1.73237e-23
-6.10363e-25
-7.11444e-23
-2.04453e-24
7.88614e-23
5.88047e-24
1.58058e-22
1.71905e-24
-3.10453e-23
-5.18033e-24
-1.58485e-22
-4.86154e-23
3.9898e-24
-4.9815e-23
-2.66369e-24
2.84419e-24
3.17962e-24
4.56983e-24
-3.29753e-23
8.23603e-25
3.97855e-23
1.61751e-24
8.84856e-23
8.08453e-24
1.65594e-22
1.06737e-23
7.31732e-23
1.22983e-23
2.08932e-22
1.56514e-23
1.47624e-22
9.28045e-24
2.84991e-23
4.64311e-24
-7.74117e-23
8.93833e-24
4.65819e-23
6.82587e-24
-7.99564e-23
9.9051e-24
-6.31869e-23
5.8835e-24
-3.3695e-23
5.22728e-24
2.49466e-23
1.08838e-23
1.36518e-23
1.39291e-23
7.74777e-23
1.11268e-23
-9.94423e-23
7.68079e-24
-6.3422e-23
3.52701e-24
-9.41786e-23
4.11198e-24
8.67588e-24
1.08493e-24
-8.09955e-23
1.0214e-24
-1.03843e-23
-1.82123e-24
-6.11939e-23
-2.87518e-24
-3.51495e-23
-5.08513e-24
-3.21612e-23
-5.17036e-24
8.46045e-24
-4.09579e-24
8.99791e-24
-6.26934e-24
-1.12281e-22
-5.55527e-24
3.82411e-23
-1.25546e-24
4.54162e-23
-1.17063e-25
6.66655e-23
-9.34375e-25
-7.53795e-24
-2.22705e-24
-1.86929e-23
1.93127e-24
4.71009e-23
3.83378e-24
4.74849e-23
3.09228e-24
2.07891e-23
-5.7348e-25
-7.69518e-23
-1.84209e-24
1.0582e-22
5.65296e-24
1.49508e-22
1.51409e-24
-4.28173e-23
-4.97506e-24
-1.54533e-22
-7.25736e-23
3.76865e-24
-8.39421e-23
-2.58171e-24
3.10853e-24
1.18833e-23
4.5326e-24
-6.23867e-23
8.25233e-25
4.22801e-23
1.13412e-24
5.58133e-23
7.8837e-24
1.61372e-22
1.09161e-23
1.02149e-22
1.1825e-23
2.10857e-22
1.51504e-23
1.26512e-22
9.08993e-24
3.25122e-23
4.42886e-24
-1.01756e-22
8.57528e-24
5.86299e-23
6.65942e-24
-7.92523e-23
1.00109e-23
-3.83384e-23
5.68194e-24
-5.75572e-23
5.21568e-24
4.90648e-24
1.059e-23
8.34768e-24
1.35795e-23
5.23692e-23
1.0904e-23
-1.18676e-22
7.57541e-24
-4.9761e-23
3.5837e-24
-7.8177e-23
4.0292e-24
-3.90587e-24
1.01818e-24
-9.25158e-23
1.0195e-24
-1.41493e-23
-1.71419e-24
-4.51054e-23
-2.96032e-24
-3.00393e-23
-5.01567e-24
-2.74567e-23
-5.18441e-24
3.52088e-23
-4.11573e-24
1.69172e-23
-6.02081e-24
-8.2484e-23
-5.34208e-24
4.43281e-23
-1.26516e-24
6.07843e-23
-1.26837e-25
9.72102e-23
-9.42093e-25
9.44015e-25
-2.4009e-24
-2.88263e-23
2.26247e-24
6.12869e-23
3.84198e-24
4.83471e-23
2.85459e-24
4.09581e-23
-2.93322e-25
-7.96188e-23
-1.84236e-24
1.46814e-22
5.52609e-24
1.39669e-22
1.62613e-24
-1.025e-23
-4.83693e-24
-1.50636e-22
-6.7302e-23
4.03595e-24
-8.65108e-23
-2.34074e-24
2.8124e-24
-1.29741e-23
4.68701e-24
-3.58286e-23
6.47847e-25
1.74196e-23
8.74221e-25
2.39503e-23
7.55987e-24
1.12104e-22
1.08258e-23
8.62467e-23
1.14467e-23
1.67422e-22
1.48872e-23
1.20442e-22
8.52249e-24
3.60061e-23
4.11894e-24
-8.09104e-23
8.43914e-24
5.4454e-23
6.50574e-24
-1.07424e-22
9.96217e-24
-3.37036e-24
5.57351e-24
-7.95586e-23
5.0941e-24
1.83302e-23
1.02138e-23
1.79467e-23
1.33283e-23
2.47211e-23
1.07549e-23
-1.10502e-22
7.46999e-24
-5.20606e-23
3.59991e-24
-6.26927e-23
3.82667e-24
8.32145e-26
1.06706e-24
-8.61005e-23
9.59579e-25
-2.16886e-23
-1.58025e-24
-1.43083e-23
-3.09758e-24
-2.5211e-23
-4.74951e-24
-6.36858e-24
-5.33421e-24
2.29678e-23
-4.01609e-24
3.82992e-23
-5.84938e-24
-8.04227e-23
-5.13424e-24
4.64776e-23
-1.11702e-24
6.0693e-23
-2.75894e-25
7.13028e-23
-1.16942e-24
-8.19352e-24
-2.19139e-24
-2.62588e-23
2.43171e-24
8.64686e-23
3.64252e-24
3.57535e-23
2.88531e-24
6.40301e-23
-2.74775e-26
-6.52431e-23
-1.68496e-24
1.75558e-22
5.22067e-24
1.00621e-22
1.7379e-24
-1.87356e-23
-4.45461e-24
-1.14247e-22
-7.64899e-23
4.04238e-24
-8.91088e-23
-2.18701e-24
2.79068e-24
-2.58121e-23
4.67482e-24
-2.27672e-23
4.98031e-25
-1.8794e-23
7.72241e-25
4.64832e-24
7.747e-24
6.46885e-23
1.06731e-23
6.83795e-23
1.13082e-23
1.55395e-22
1.44786e-23
8.8498e-23
8.3434e-24
6.71862e-23
3.95142e-24
-7.91486e-23
7.90059e-24
3.23913e-23
6.53761e-24
-8.99689e-23
9.73307e-24
-1.37719e-23
5.52034e-24
-7.07851e-23
5.06769e-24
4.57593e-23
9.7294e-24
1.38602e-23
1.31474e-23
5.29477e-23
1.06344e-23
-1.02038e-22
7.39925e-24
-5.45794e-23
3.55314e-24
-7.37007e-23
3.619e-24
-9.16119e-24
1.14166e-24
-5.08402e-23
9.96615e-25
-2.32144e-23
-1.51526e-24
-1.28494e-23
-3.19948e-24
-2.16211e-23
-4.59219e-24
1.23218e-23
-5.35464e-24
-9.8288e-25
-4.03474e-24
3.06127e-23
-5.59447e-24
-9.27013e-23
-4.90849e-24
3.01316e-23
-1.1441e-24
6.09333e-23
-4.53698e-25
5.62172e-23
-1.15307e-24
-2.1891e-24
-2.21511e-24
-5.42683e-23
2.44709e-24
1.27724e-22
3.8852e-24
5.27585e-23
3.02602e-24
8.39699e-23
1.90612e-25
-6.61644e-23
-2.01585e-24
1.06823e-22
5.06648e-24
6.28532e-23
1.87256e-24
2.79109e-23
-4.63095e-24
-1.11285e-22
-4.69314e-23
3.97225e-24
-1.18693e-22
-2.03494e-24
2.95108e-24
-3.6233e-23
4.5049e-24
3.45255e-24
4.60785e-25
-5.4197e-23
6.11168e-25
-2.46017e-23
7.77073e-24
6.10369e-23
1.04576e-23
6.71653e-23
1.10543e-23
1.73955e-22
1.43636e-23
1.13646e-22
7.88045e-24
6.81733e-23
3.50589e-24
-7.72122e-23
7.66325e-24
2.81081e-23
6.35561e-24
-7.15653e-23
9.64619e-24
-3.54385e-23
5.57864e-24
-9.28091e-23
4.84669e-24
3.04654e-23
9.45016e-24
8.39562e-24
1.26983e-23
2.59557e-23
1.05578e-23
-8.16217e-23
7.29732e-24
-5.98076e-23
3.57761e-24
-5.51625e-23
3.54353e-24
-5.00214e-24
1.0571e-24
-6.02971e-23
1.05441e-24
-9.05758e-24
-1.43069e-24
-1.20572e-23
-3.22638e-24
-1.80156e-23
-4.58308e-24
1.80727e-25
-5.27994e-24
4.78569e-24
-4.08985e-24
2.65039e-23
-5.42317e-24
-9.0413e-23
-4.63425e-24
-1.45306e-24
-1.1522e-24
4.46849e-23
-4.75381e-25
9.58158e-23
-1.24386e-24
9.29792e-25
-2.02284e-24
-5.54848e-23
2.43386e-24
1.24185e-22
3.98093e-24
9.43857e-23
3.18169e-24
7.22992e-23
2.52812e-25
-6.52615e-23
-2.1219e-24
1.08686e-22
5.17762e-24
5.80403e-23
1.66021e-24
2.4158e-24
-4.41029e-24
-1.24883e-22
-4.4677e-23
3.77941e-24
-1.08922e-22
-1.87385e-24
3.06679e-24
-3.38859e-23
4.24449e-24
2.21757e-24
3.31104e-25
-5.27773e-23
2.80482e-25
-4.06054e-23
7.80879e-24
5.80298e-23
1.04476e-23
6.6538e-23
1.08131e-23
1.40535e-22
1.43057e-23
1.08616e-22
7.4232e-24
2.99777e-23
3.03234e-24
-7.54816e-23
7.47382e-24
3.7894e-23
5.99244e-24
-7.07751e-23
9.6268e-24
-3.89334e-23
5.60961e-24
-1.12067e-22
4.76954e-24
1.49832e-23
9.14901e-24
-1.027e-23
1.24086e-23
-5.38676e-25
1.03154e-23
-6.38568e-23
7.24303e-24
-6.10652e-23
3.55241e-24
-5.19342e-23
3.43011e-24
-9.99106e-25
1.07211e-24
-5.54679e-23
1.04283e-24
6.20152e-24
-1.30458e-24
-1.41042e-23
-3.31894e-24
-1.42058e-23
-4.49489e-24
1.68079e-23
-5.25651e-24
1.16459e-23
-4.11171e-24
2.47865e-23
-5.25625e-24
-7.09037e-23
-4.3411e-24
-1.99272e-23
-1.01647e-24
3.11095e-23
-6.46417e-25
7.96593e-23
-1.37575e-24
1.77081e-23
-1.82451e-24
-5.86348e-23
2.62782e-24
1.49982e-22
3.83518e-24
9.40614e-23
3.25853e-24
7.35274e-23
3.61965e-25
-6.39e-23
-2.19863e-24
9.84219e-23
5.1415e-24
8.09088e-23
1.49715e-24
5.79636e-23
-4.18695e-24
-1.24051e-22
-4.28273e-23
3.76188e-24
-1.11554e-22
-1.61953e-24
2.95329e-24
-3.13759e-23
4.19945e-24
-2.11886e-23
-7.40707e-26
-1.87917e-23
2.3124e-25
3.05903e-23
7.7901e-24
4.08696e-23
1.03781e-23
3.05977e-23
1.05265e-23
1.35406e-22
1.38191e-23
7.57296e-23
7.2456e-24
5.09374e-24
2.84667e-24
-7.27709e-23
7.03466e-24
3.59984e-23
5.86815e-24
-4.52084e-23
9.47454e-24
-1.51168e-23
5.62329e-24
-1.0321e-22
4.6352e-24
-2.50479e-23
8.90423e-24
-2.99763e-23
1.21046e-23
-2.64663e-23
1.02332e-23
-6.05073e-23
7.1358e-24
-7.50934e-23
3.4968e-24
-4.80795e-23
3.27139e-24
1.78134e-23
1.12456e-24
-6.34918e-23
9.87478e-25
-5.75467e-24
-1.16653e-24
-1.75453e-23
-3.38515e-24
-1.14812e-23
-4.37012e-24
3.17253e-23
-5.25002e-24
6.03183e-24
-4.02552e-24
1.02721e-23
-5.20286e-24
-6.71125e-23
-4.09511e-24
3.07912e-24
-8.51612e-25
1.74551e-23
-7.88502e-25
9.26476e-23
-1.45949e-24
4.83261e-23
-1.61521e-24
-4.98018e-23
2.74229e-24
1.62354e-22
3.73286e-24
7.06253e-23
3.15926e-24
4.75242e-23
3.49447e-25
-6.16497e-23
-2.32745e-24
7.4334e-23
5.33236e-24
8.25273e-23
1.50278e-24
4.92249e-23
-4.0342e-24
-1.24248e-22
-3.54507e-24
3.88513e-24
-8.86682e-23
-1.32978e-24
2.82342e-24
-3.02222e-23
4.30896e-24
1.01916e-23
-1.90176e-25
-3.74165e-23
-3.05083e-27
2.64519e-23
7.62876e-24
3.66412e-23
1.0347e-23
5.21641e-23
1.02588e-23
1.03844e-22
1.342e-23
5.66384e-23
6.9221e-24
-3.30361e-23
2.45599e-24
-9.40796e-23
6.74626e-24
6.90488e-23
5.81112e-24
-3.41789e-23
9.22615e-24
-6.93898e-24
5.48737e-24
-9.50738e-23
4.53919e-24
4.1879e-25
8.46724e-24
-4.72249e-23
1.2039e-23
6.04803e-25
1.00891e-23
-5.72716e-23
6.97798e-24
-7.49009e-23
3.57954e-24
-2.9597e-23
3.07064e-24
2.15055e-23
1.16665e-24
-5.98428e-23
9.54887e-25
-8.40727e-24
-1.04354e-24
-1.20582e-23
-3.37483e-24
-8.80757e-24
-4.32804e-24
3.3303e-23
-5.26418e-24
1.43692e-24
-3.9618e-24
1.04877e-23
-5.15458e-24
-7.82503e-23
-3.84681e-24
-1.45616e-23
-7.10563e-25
3.09695e-23
-7.93755e-25
7.94959e-23
-1.56956e-24
7.35307e-23
-1.32308e-24
-4.1146e-23
2.72494e-24
1.6712e-22
3.60074e-24
6.5457e-23
3.17124e-24
3.47328e-23
3.96212e-25
-6.56871e-23
-2.1025e-24
8.80071e-23
5.28798e-24
1.04997e-22
1.38931e-24
5.39677e-23
-3.79345e-24
-8.76114e-23
-6.84778e-24
-4.1416e-23
-6.17381e-23
3.86159e-24
-5.6601e-23
-1.10888e-24
2.7637e-24
-1.7877e-23
4.16445e-24
1.70997e-23
-2.3924e-25
-3.3235e-23
-4.57117e-25
2.22504e-23
7.50557e-24
5.48164e-23
1.01855e-23
4.77763e-23
9.97937e-24
7.17614e-23
1.31599e-23
3.98612e-23
6.71739e-24
-3.10671e-23
2.27106e-24
-6.45354e-23
6.4599e-24
9.12648e-23
5.66766e-24
-2.29103e-23
9.03098e-24
-3.23478e-23
5.44903e-24
-1.00262e-22
4.34264e-24
-3.58461e-23
8.31494e-24
-2.80677e-23
1.18124e-23
7.69397e-24
9.98647e-24
-5.43186e-23
6.94222e-24
-7.32146e-23
3.50456e-24
-4.81373e-23
2.90912e-24
3.64255e-24
1.15183e-24
-4.31332e-23
9.74233e-25
-8.12867e-24
-9.38719e-25
-4.22224e-23
-3.34904e-24
-5.63369e-24
-4.30358e-24
3.85349e-23
-5.18759e-24
6.14413e-24
-3.96717e-24
3.71475e-23
-5.07323e-24
-6.61023e-23
-3.50688e-24
-7.93159e-24
-6.35955e-25
1.88353e-23
-8.35426e-25
6.80975e-23
-1.76183e-24
6.19925e-23
-1.1978e-24
-7.34961e-24
2.7131e-24
1.51505e-22
3.50277e-24
9.06664e-23
3.22627e-24
2.1264e-23
4.19499e-25
-8.61533e-23
-2.16741e-24
6.71362e-23
5.15079e-24
1.14012e-22
1.33421e-24
6.87422e-23
-3.67767e-24
-5.60679e-23
-6.48112e-24
-5.6008e-23
-4.9202e-23
3.94599e-24
-3.55686e-23
-8.65127e-25
2.87018e-24
-5.00436e-23
4.07284e-24
6.74101e-24
-4.26272e-25
-7.77731e-23
-5.95996e-25
1.85552e-23
7.68921e-24
8.49768e-23
9.80914e-24
4.55344e-23
9.76491e-24
5.36488e-23
1.26804e-23
4.23557e-23
6.26727e-24
-3.18035e-23
2.13007e-24
-6.73314e-23
6.21151e-24
9.06539e-23
5.33781e-24
-2.35591e-23
8.94393e-24
-2.4262e-23
5.26421e-24
-9.42681e-23
4.2235e-24
-5.81265e-23
8.00844e-24
-3.47487e-23
1.14383e-23
1.85683e-23
9.86986e-24
-4.18091e-23
6.83341e-24
-7.95762e-23
3.45805e-24
-3.15377e-23
2.7632e-24
7.6688e-24
1.14215e-24
-5.81658e-23
9.34351e-25
-2.07411e-23
-7.49088e-25
-5.71365e-23
-3.32146e-24
-1.06546e-23
-4.25939e-24
3.76286e-23
-5.1093e-24
-5.73295e-26
-3.9828e-24
1.86058e-23
-4.93619e-24
-6.19614e-23
-3.25631e-24
-2.80061e-24
-3.76443e-25
6.55179e-24
-7.88789e-25
2.37289e-23
-1.77295e-24
5.24898e-23
-1.18535e-24
1.8693e-24
2.81376e-24
1.45129e-22
3.32235e-24
7.73658e-23
3.248e-24
4.00413e-23
5.7686e-25
-8.05962e-23
-2.08265e-24
8.13097e-23
5.19537e-24
7.43406e-23
1.35579e-24
6.77259e-23
-3.6258e-24
-5.30898e-23
-6.24885e-24
-4.63818e-23
-9.29386e-23
3.67738e-24
-1.2743e-23
-6.90535e-25
2.76498e-24
-1.06507e-22
3.8698e-24
1.48129e-23
-5.45889e-25
-7.28066e-23
-9.71404e-25
-1.74368e-23
7.49489e-24
7.85776e-23
9.61497e-24
3.20517e-23
9.64052e-24
4.79467e-23
1.22845e-23
3.61958e-23
5.96302e-24
-3.50086e-23
2.00236e-24
-3.40987e-23
5.932e-24
1.12129e-22
5.05883e-24
-2.4552e-23
8.75266e-24
-1.99265e-23
5.09385e-24
-1.01124e-22
4.08447e-24
-6.73698e-23
7.74182e-24
-3.88455e-23
1.12765e-23
1.83185e-23
9.59096e-24
-5.2087e-23
6.80916e-24
-7.38494e-23
3.33092e-24
-4.95593e-23
2.64392e-24
1.74688e-24
1.09033e-24
-5.40292e-23
8.87306e-25
-2.36256e-23
-5.45122e-25
-6.09899e-23
-3.25183e-24
-7.30474e-24
-4.18979e-24
3.55651e-23
-5.04728e-24
-5.95884e-24
-3.92301e-24
2.33651e-23
-4.76977e-24
-5.25482e-23
-3.08079e-24
-1.01254e-23
-3.04978e-25
1.7415e-23
-7.06385e-25
2.66332e-23
-1.75045e-24
5.47454e-23
-1.09924e-24
1.03614e-23
2.82811e-24
1.41004e-22
3.23819e-24
8.78541e-23
3.13938e-24
2.67139e-23
7.10826e-25
-8.59585e-23
-2.10839e-24
2.58825e-23
5.23344e-24
6.9774e-23
1.21211e-24
7.35367e-23
-3.69863e-24
-4.91105e-23
-5.86471e-24
-1.32206e-23
3.55931e-24
-2.76388e-23
-5.93804e-25
2.96816e-24
-8.36253e-23
3.90306e-24
1.27522e-23
-7.23171e-25
-8.82311e-23
-9.23482e-25
4.92303e-25
7.24633e-24
9.21211e-23
9.47517e-24
2.89023e-23
9.29254e-24
3.01481e-23
1.18233e-23
3.23745e-23
5.74869e-24
-4.04521e-23
1.78629e-24
-2.63033e-23
5.51164e-24
1.1312e-22
4.821e-24
-3.17693e-24
8.55631e-24
-2.25886e-23
4.87813e-24
-9.93258e-23
4.04869e-24
-7.68846e-23
7.41315e-24
-6.78205e-23
1.10404e-23
2.62819e-23
9.41621e-24
-4.25134e-23
6.63472e-24
-8.07064e-23
3.28692e-24
-6.61031e-23
2.49055e-24
7.33595e-24
1.07029e-24
-5.79117e-23
8.36166e-25
-2.79094e-23
-3.33636e-25
-4.11991e-23
-3.17265e-24
-1.80133e-23
-4.13854e-24
3.88109e-23
-4.95468e-24
-2.18326e-24
-3.86839e-24
2.73847e-23
-4.66899e-24
-4.53128e-23
-2.85341e-24
-1.8082e-23
-1.7478e-25
1.86853e-23
-6.23674e-25
1.88744e-23
-1.69243e-24
6.77944e-23
-1.06107e-24
4.59677e-23
2.80289e-24
1.47926e-22
3.13007e-24
9.37279e-23
3.12998e-24
1.68295e-23
7.20294e-25
-6.07293e-23
-1.95058e-24
3.05346e-23
5.29375e-24
7.40456e-23
1.20489e-24
4.59754e-23
-3.66071e-24
-7.52478e-23
-1.33238e-23
3.53275e-24
-2.0284e-23
-3.25518e-25
2.88991e-24
-8.46962e-23
3.79277e-24
-1.26618e-23
-8.42869e-25
-6.69441e-23
-1.0731e-24
8.95661e-24
7.02554e-24
7.12289e-23
9.05851e-24
2.63706e-23
9.09574e-24
-2.84557e-25
1.14954e-23
2.73316e-23
5.59701e-24
-4.46567e-23
1.56649e-24
-4.01945e-23
5.20239e-24
1.2648e-22
4.51509e-24
-1.40572e-23
8.25931e-24
-2.39359e-23
4.67356e-24
-6.35776e-23
3.91891e-24
-8.13621e-23
7.23056e-24
-7.41549e-23
1.08452e-23
5.57507e-23
9.16083e-24
-4.31083e-23
6.47561e-24
-6.89365e-23
3.28348e-24
-6.12589e-23
2.31153e-24
-1.11574e-23
1.0413e-24
-4.50442e-23
8.37832e-25
-3.05024e-23
-1.9404e-25
-4.47873e-23
-3.03878e-24
-7.14044e-24
-4.08296e-24
3.96304e-23
-4.84955e-24
7.89586e-24
-3.78246e-24
3.08886e-23
-4.5832e-24
-4.80746e-23
-2.69952e-24
-3.29962e-23
-1.99019e-26
1.58952e-23
-5.89257e-25
2.10234e-23
-1.63198e-24
7.08841e-23
-1.05266e-24
2.31408e-23
2.85484e-24
1.44082e-22
2.97677e-24
9.17993e-23
3.12143e-24
6.21813e-24
7.70383e-25
-5.90409e-23
-1.99638e-24
4.23464e-23
5.31703e-24
4.43195e-23
1.0716e-24
1.7478e-23
-3.42869e-24
-5.9886e-23
-2.22694e-23
3.30212e-24
-2.2997e-23
-7.53425e-26
2.9119e-24
-6.45945e-23
3.77018e-24
-2.87225e-23
-1.02781e-24
-3.8352e-23
-1.1127e-24
4.0794e-23
6.89457e-24
5.99006e-23
8.60926e-24
2.48194e-23
8.85346e-24
2.14544e-25
1.11662e-23
1.08436e-23
5.30839e-24
-1.72508e-23
1.5625e-24
-1.23669e-23
4.85511e-24
8.54014e-23
4.26367e-24
-2.65939e-23
8.08988e-24
-2.44651e-23
4.42912e-24
-6.43864e-23
3.75735e-24
-8.00809e-23
7.08475e-24
-6.00438e-23
1.05286e-23
5.27955e-23
8.85953e-24
-4.1809e-23
6.36486e-24
-3.81841e-23
3.13748e-24
-5.5824e-23
2.21647e-24
-5.43039e-24
9.94173e-25
-4.2893e-23
8.29981e-25
-3.22126e-23
-2.63669e-26
-2.61857e-23
-2.92819e-24
-1.3047e-23
-3.97655e-24
4.07311e-23
-4.72037e-24
6.37556e-24
-3.76861e-24
3.36679e-23
-4.42416e-24
-3.07777e-23
-2.52738e-24
-5.79328e-23
1.55432e-25
2.4573e-23
-4.80418e-25
2.18446e-23
-1.65939e-24
6.40684e-23
-9.17253e-25
1.46615e-23
2.76089e-24
1.40571e-22
2.78596e-24
9.26041e-23
3.13843e-24
4.82679e-24
8.20639e-25
-3.70175e-23
-2.12083e-24
4.84192e-23
5.33963e-24
3.89376e-23
1.05489e-24
3.12801e-24
-3.34406e-24
-5.5954e-23
-2.14038e-23
3.17209e-24
-2.92938e-24
1.74651e-25
2.85339e-24
-4.17021e-23
3.69813e-24
-2.5529e-25
-1.02597e-24
-7.73427e-23
-1.30205e-24