/*--------------------------------*- C++ -*----------------------------------*\
  =========                 |
  \\      /  F ield         | OpenFOAM: The Open Source CFD Toolbox
   \\    /   O peration     | Website:  https://openfoam.org
    \\  /    A nd           | Version:  7
     \\/     M anipulation  |
\*---------------------------------------------------------------------------*/
FoamFile
{
    version     2.0;
    format      ascii;
    class       volScalarField;
    location    "0";
    object      strainRate;
}
// * * * * * * * * * * * * * * * * * * * * * * * * * * * * * * * * * * * * * //

dimensions      [0 0 -1 0 0 0 0];

internalField   nonuniform List<scalar> 
1762
(
0.0248078
0.02504
0.0252998
0.0255867
0.0258998
0.0262375
0.0265974
0.0270117
0.025634
0.0258733
0.0261412
0.0264371
0.02676
0.0271086
0.0274803
0.0279047
0.0256228
0.025654
0.0257166
0.0258102
0.025935
0.0260906
0.0262769
0.0264936
0.0267403
0.0270166
0.0273219
0.0276553
0.0280153
0.0283996
0.0288344
0.026587
0.0265226
0.0264903
0.0264903
0.0265226
0.026587
0.0266837
0.0268123
0.0269728
0.027165
0.0273885
0.0276431
0.0279283
0.0282434
0.0285877
0.0289598
0.0293575
0.0298057
0.0274939
0.0274274
0.0273941
0.0273941
0.0274274
0.0274939
0.0275936
0.0277264
0.0278921
0.0280904
0.0283211
0.028584
0.0288785
0.029204
0.0295598
0.0299444
0.0303564
0.0308267
0.0284396
0.0283709
0.0283366
0.0283366
0.028371
0.0284396
0.0285426
0.0286796
0.0288507
0.0290555
0.0292938
0.0295654
0.0298697
0.0302061
0.030574
0.030972
0.0314005
0.0319025
0.0294266
0.0293557
0.0293202
0.0293202
0.0293557
0.0294266
0.029533
0.0296746
0.0298514
0.030063
0.0303093
0.03059
0.0309046
0.0312526
0.0316342
0.0320493
0.0324988
0.0330327
0.0304577
0.0303844
0.0303477
0.0303477
0.0303844
0.0304577
0.0305677
0.0307141
0.0308969
0.0311158
0.0313704
0.0316609
0.0319876
0.0323504
0.0327496
0.0331868
0.0336604
0.0342166
0.031536
0.0314601
0.0314221
0.0314221
0.0314601
0.031536
0.0316497
0.0318013
0.0319905
0.0322178
0.0324831
0.032786
0.0331282
0.03351
0.0339301
0.0343889
0.0348845
0.0354555
0.0326671
0.032588
0.0325484
0.0325484
0.032588
0.0326671
0.0327856
0.0329435
0.0331408
0.0333787
0.0336577
0.0339763
0.0343358
0.0347363
0.0351758
0.0356531
0.0361676
0.0367522
0.0338615
0.0337784
0.0337368
0.0337368
0.0337784
0.0338615
0.0339861
0.0341521
0.0343595
0.0346092
0.0349015
0.0352354
0.0356108
0.0360272
0.0364836
0.0369784
0.0375108
0.0381101
0.0352582
0.0351276
0.0350406
0.034997
0.034997
0.0350406
0.0351276
0.0352582
0.0354321
0.0356494
0.03591
0.0362138
0.0365609
0.0369504
0.0373819
0.0378545
0.0383667
0.0389172
0.0395334
0.036601
0.0364652
0.0363747
0.0363294
0.0363294
0.0363747
0.0364652
0.036601
0.0367818
0.0370077
0.0372782
0.037593
0.0379526
0.038356
0.0388026
0.0392918
0.0398221
0.0403918
0.0410271
0.0380133
0.0378726
0.0377787
0.0377318
0.0377318
0.0377787
0.0378726
0.0380133
0.0382008
0.0384349
0.0387151
0.0390412
0.0394135
0.0398311
0.0402935
0.0408002
0.0413497
0.04194
0.0425968
0.0394977
0.0393519
0.0392546
0.0392059
0.0392059
0.0392546
0.0393519
0.0394977
0.039692
0.0399345
0.0402248
0.0405627
0.0409483
0.041381
0.0418603
0.0423857
0.0429557
0.0435681
0.0442486
0.0410588
0.0409076
0.0408067
0.0407563
0.0407562
0.0408067
0.0409076
0.0410588
0.0412603
0.0415117
0.0418127
0.0421631
0.042563
0.0430119
0.0435093
0.0440547
0.0446467
0.0452831
0.0459893
0.0427027
0.0425458
0.042441
0.0423887
0.0423887
0.042441
0.0425457
0.0427027
0.0429119
0.0431729
0.0434853
0.0438492
0.0442645
0.0447308
0.0452477
0.0458145
0.0464303
0.0470925
0.0478265
0.0444367
0.0442736
0.0441647
0.0441103
0.0441103
0.0441647
0.0442736
0.0444368
0.0446541
0.0449254
0.0452503
0.0456287
0.0460606
0.0465456
0.0470834
0.0476733
0.0483144
0.0490044
0.0497684
0.046269
0.0460991
0.0459858
0.0459292
0.0459292
0.0459858
0.0460991
0.046269
0.0464952
0.0467776
0.0471159
0.0475099
0.0479596
0.0484648
0.049025
0.0496397
0.0503081
0.0510278
0.051824
0.0482083
0.0480313
0.0479132
0.0478542
0.0478542
0.0479132
0.0480313
0.0482084
0.0484442
0.0487386
0.0490912
0.049502
0.049971
0.0504978
0.0510821
0.0517235
0.052421
0.0531726
0.0540033
0.0502649
0.0500801
0.0499568
0.0498952
0.0498952
0.0499568
0.0500801
0.0502649
0.0505111
0.0508183
0.0511864
0.0516154
0.052105
0.0526551
0.0532653
0.0539352
0.0546639
0.0554497
0.0563174
0.0524495
0.0522564
0.0521276
0.0520632
0.0520632
0.0521276
0.0522564
0.0524495
0.0527068
0.053028
0.0534128
0.0538611
0.054373
0.0549481
0.0555861
0.0562865
0.0570487
0.0578712
0.0587785
0.0547744
0.0545723
0.0544375
0.0543701
0.0543701
0.0544375
0.0545723
0.0547744
0.0550437
0.0553798
0.0557825
0.0562518
0.0567876
0.0573895
0.0580573
0.0587906
0.0595887
0.0604503
0.0614002
0.057253
0.0570413
0.0569001
0.0568295
0.0568295
0.0569001
0.0570413
0.0572531
0.0575352
0.0578874
0.0583094
0.0588012
0.0593627
0.0599936
0.0606935
0.061462
0.0622986
0.0632022
0.0641977
0.0599005
0.0596784
0.0595303
0.0594563
0.0594562
0.0595303
0.0596785
0.0599006
0.0601966
0.0605662
0.061009
0.061525
0.0621142
0.0627761
0.0635105
0.0643169
0.0651949
0.0661436
0.0671881
0.0627338
0.0625005
0.0623449
0.0622672
0.0622672
0.062345
0.0625006
0.0627339
0.0630449
0.0634331
0.0638983
0.0644405
0.0650595
0.065755
0.0665265
0.0673736
0.068296
0.0692931
0.0703903
0.065772
0.0655265
0.0653629
0.0652812
0.0652812
0.0653629
0.0655266
0.065772
0.0660991
0.0665075
0.0669969
0.0675672
0.0682184
0.06895
0.0697616
0.0706526
0.0716228
0.0726719
0.0738258
0.0690364
0.0687779
0.0686056
0.0685195
0.0685195
0.0686056
0.0687779
0.0690364
0.069381
0.0698111
0.0703266
0.0709274
0.0716133
0.0723839
0.0732387
0.0741771
0.0751988
0.0763039
0.0775187
0.0729148
0.0725514
0.0722788
0.0720971
0.0720063
0.0720063
0.0720971
0.0722788
0.0725514
0.0729148
0.0733685
0.0739122
0.0745458
0.0752693
0.0760821
0.0769835
0.077973
0.0790504
0.0802157
0.0814964
0.0767283
0.0763445
0.0760566
0.0758648
0.0757689
0.0757689
0.0758648
0.0760567
0.0763445
0.0767283
0.0772075
0.0777817
0.078451
0.0792151
0.0800735
0.0810254
0.0820702
0.0832076
0.084438
0.0857895
0.0808531
0.0804472
0.0801428
0.0799399
0.0798385
0.0798385
0.0799399
0.0801428
0.0804472
0.0808531
0.0813599
0.0819672
0.0826751
0.0834832
0.084391
0.0853975
0.0865022
0.0877044
0.0890051
0.0904331
0.0853251
0.0848952
0.0845728
0.084358
0.0842506
0.0842507
0.084358
0.0845729
0.0848952
0.0853251
0.0858619
0.086505
0.0872548
0.0881107
0.089072
0.0901378
0.0913072
0.0925797
0.0939563
0.0954669
0.0901855
0.0897296
0.0893877
0.0891599
0.089046
0.089046
0.0891599
0.0893877
0.0897295
0.0901855
0.0907548
0.0914369
0.0922321
0.0931398
0.0941592
0.0952893
0.096529
0.0978776
0.0993362
0.100936
0.0954814
0.0949972
0.0946341
0.0943922
0.0942712
0.0942713
0.0943922
0.0946341
0.0949972
0.0954813
0.0960861
0.0968105
0.0976551
0.0986191
0.0997016
0.100901
0.102217
0.103648
0.105196
0.106892
0.101267
0.100752
0.100366
0.100109
0.0999799
0.09998
0.100109
0.100366
0.100752
0.101267
0.10191
0.102681
0.103579
0.104604
0.105755
0.107031
0.108429
0.10995
0.111593
0.113394
0.107605
0.107056
0.106645
0.106371
0.106234
0.106234
0.106371
0.106645
0.107056
0.107605
0.10829
0.10911
0.110067
0.111158
0.112384
0.113742
0.11523
0.116847
0.118595
0.120508
0.114566
0.113981
0.113543
0.11325
0.113104
0.113104
0.11325
0.113543
0.113981
0.114566
0.115296
0.116171
0.117191
0.118355
0.119662
0.121109
0.122694
0.124417
0.126277
0.128312
0.122234
0.121609
0.121141
0.120829
0.120673
0.120673
0.120829
0.121141
0.121609
0.122234
0.123014
0.123948
0.125037
0.126279
0.127673
0.129217
0.130908
0.132743
0.134725
0.13689
0.130703
0.130035
0.129535
0.129201
0.129035
0.129035
0.129201
0.129535
0.130035
0.130703
0.131536
0.132535
0.133698
0.135026
0.136515
0.138163
0.139967
0.141925
0.144038
0.146343
0.140083
0.139369
0.138833
0.138476
0.138298
0.138298
0.138476
0.138833
0.139369
0.140082
0.140974
0.142042
0.143286
0.144705
0.146296
0.148057
0.149984
0.152074
0.154326
0.156781
0.150498
0.149734
0.149161
0.148779
0.148588
0.148587
0.148779
0.149161
0.149734
0.150498
0.151452
0.152594
0.153925
0.155443
0.157144
0.159025
0.161083
0.163312
0.165714
0.168328
0.16209
0.161272
0.160659
0.16025
0.160045
0.160045
0.16025
0.160659
0.161272
0.16209
0.163111
0.164334
0.165757
0.167379
0.169197
0.171207
0.173403
0.175781
0.17834
0.18112
0.175019
0.174144
0.173488
0.17305
0.172831
0.172831
0.17305
0.173488
0.174144
0.175019
0.176111
0.177418
0.178939
0.180672
0.182613
0.184757
0.187099
0.189632
0.192354
0.195307
0.189461
0.188526
0.187825
0.187357
0.187123
0.187123
0.187357
0.187825
0.188526
0.18946
0.190627
0.192022
0.193646
0.195494
0.197563
0.199847
0.202338
0.205032
0.207921
0.21105
0.205608
0.204612
0.203865
0.203366
0.203116
0.203116
0.203366
0.203865
0.204612
0.205608
0.206851
0.208338
0.210067
0.212035
0.214235
0.216661
0.219306
0.222161
0.225219
0.228526
0.223676
0.222618
0.221824
0.221293
0.221028
0.221028
0.221294
0.221823
0.222618
0.223675
0.224997
0.226581
0.228422
0.230515
0.232853
0.235429
0.238233
0.241256
0.244489
0.247988
0.243949
0.242828
0.241985
0.241423
0.241141
0.241141
0.241423
0.241985
0.242827
0.243949
0.245357
0.247064
0.249048
0.251301
0.253816
0.256584
0.259596
0.262838
0.2663
0.270048
0.267094
0.26589
0.264984
0.26438
0.264077
0.264077
0.26438
0.264984
0.265889
0.267094
0.268613
0.270469
0.272624
0.275071
0.277801
0.280805
0.284069
0.287581
0.291325
0.295347
0.293861
0.292556
0.291575
0.290919
0.290591
0.290591
0.290919
0.291575
0.292556
0.293861
0.295497
0.297476
0.299771
0.302373
0.305272
0.308456
0.31191
0.315618
0.319561
0.323763
0.324182
0.322811
0.321778
0.321088
0.320743
0.320743
0.321088
0.321778
0.322811
0.324182
0.325891
0.327933
0.330297
0.332971
0.335943
0.339197
0.342717
0.346482
0.350467
0.35469
0.357339
0.355966
0.35493
0.354237
0.35389
0.35389
0.354237
0.35493
0.355965
0.357339
0.359045
0.361078
0.363423
0.366069
0.369
0.372197
0.375639
0.379303
0.383162
0.38722
0.392117
0.390813
0.389828
0.389169
0.388838
0.388838
0.389169
0.389828
0.390813
0.392117
0.393731
0.395647
0.397851
0.400327
0.403058
0.406023
0.4092
0.412562
0.416078
0.419744
0.426383
0.425234
0.424364
0.423781
0.423488
0.423488
0.423781
0.424364
0.425234
0.426383
0.427801
0.429475
0.431394
0.433541
0.435898
0.438444
0.441156
0.444008
0.446968
0.450024
0.4573
0.456378
0.455679
0.455209
0.454973
0.454973
0.455209
0.455679
0.456378
0.4573
0.458433
0.459765
0.461285
0.462979
0.46483
0.466821
0.46893
0.471135
0.473407
0.475725
0.48222
0.481551
0.481043
0.480701
0.48053
0.480529
0.480701
0.481043
0.481551
0.48222
0.483039
0.483995
0.485083
0.486293
0.487612
0.489026
0.490519
0.492074
0.493666
0.495267
0.499844
0.499397
0.499057
0.498828
0.498713
0.498713
0.498828
0.499057
0.499397
0.499845
0.500391
0.501024
0.501744
0.502545
0.503419
0.504356
0.505345
0.506375
0.507425
0.508462
0.510745
0.51045
0.510226
0.510076
0.51
0.51
0.510076
0.510226
0.51045
0.510746
0.511104
0.511517
0.511988
0.512513
0.513088
0.513708
0.514366
0.515054
0.515753
0.516425
0.516787
0.516576
0.516416
0.516309
0.516255
0.516255
0.516309
0.516416
0.516576
0.516787
0.517042
0.517334
0.517668
0.518044
0.518457
0.518906
0.519386
0.51989
0.520402
0.520878
0.520035
0.519862
0.519732
0.519644
0.519601
0.519601
0.519644
0.519732
0.519862
0.520035
0.520243
0.52048
0.520752
0.521059
0.521399
0.52177
0.522169
0.522589
0.523017
0.5234
0.522006
0.52185
0.521731
0.521652
0.521613
0.521613
0.521652
0.521732
0.52185
0.522006
0.522194
0.522408
0.522654
0.522931
0.52324
0.523577
0.523941
0.524325
0.524715
0.525053
0.523517
0.523369
0.523258
0.523183
0.523145
0.523145
0.523183
0.523258
0.523369
0.523518
0.523696
0.523897
0.524129
0.524392
0.524684
0.525003
0.525348
0.525712
0.526081
0.526392
0.524894
0.524752
0.524645
0.524574
0.524538
0.524538
0.524574
0.524646
0.524753
0.524894
0.525065
0.525257
0.525479
0.525729
0.526008
0.526314
0.526643
0.526992
0.527344
0.527632
0.0893878
0.0946342
0.100366
0.106645
0.113543
0.121141
0.129535
0.138833
0.149161
0.160659
0.173488
0.187825
0.203865
0.221824
0.241985
0.264984
0.291575
0.321778
0.35493
0.389828
0.424364
0.455679
0.481043
0.499056
0.510226
0.516416
0.519732
0.521731
0.523257
0.524645
0.0897297
0.0949973
0.100752
0.107056
0.113981
0.121609
0.130035
0.139369
0.149734
0.161272
0.174144
0.188526
0.204612
0.222618
0.242827
0.265889
0.292556
0.322811
0.355965
0.390813
0.425234
0.456378
0.481551
0.499397
0.51045
0.516576
0.519862
0.52185
0.523369
0.524753
0.0901855
0.0954814
0.101267
0.107605
0.114566
0.122234
0.130703
0.140083
0.150498
0.16209
0.175019
0.189461
0.205608
0.223676
0.243949
0.267094
0.293861
0.324182
0.357339
0.392117
0.426383
0.4573
0.48222
0.499844
0.510746
0.516787
0.520035
0.522006
0.523517
0.524894
0.0907547
0.096086
0.10191
0.108289
0.115296
0.123014
0.131536
0.140974
0.151452
0.163111
0.176111
0.190627
0.206851
0.224997
0.245357
0.268613
0.295497
0.325891
0.359046
0.393732
0.427801
0.458434
0.483039
0.500391
0.511104
0.517043
0.520243
0.522195
0.523696
0.525065
0.0914368
0.0968104
0.10268
0.10911
0.116171
0.123948
0.132535
0.142042
0.152594
0.164333
0.177418
0.192022
0.208338
0.226581
0.247064
0.270469
0.297476
0.327933
0.361078
0.395647
0.429475
0.459765
0.483995
0.501024
0.511517
0.517335
0.52048
0.522408
0.523898
0.525257
0.092232
0.0976549
0.103579
0.110067
0.117191
0.125037
0.133698
0.143286
0.153925
0.165757
0.178939
0.193646
0.210067
0.228422
0.249048
0.272624
0.299771
0.330297
0.363424
0.397851
0.431394
0.461285
0.485084
0.501745
0.511988
0.517669
0.520752
0.522654
0.524129
0.525479
0.0834831
0.0881106
0.0931397
0.098619
0.104604
0.111158
0.118355
0.126279
0.135026
0.144705
0.155443
0.167379
0.180672
0.195494
0.212035
0.230515
0.251301
0.275071
0.302373
0.332971
0.366069
0.400327
0.433541
0.462979
0.486294
0.502546
0.512513
0.518044
0.521059
0.522931
0.524392
0.525729
0.0252998
0.0261412
0.0270166
0.0279283
0.0288785
0.0298697
0.0309046
0.0319876
0.0331282
0.0343359
0.0356108
0.0369505
0.038356
0.0398311
0.041381
0.0430119
0.0447308
0.0465456
0.0484648
0.0504978
0.0526551
0.0549481
0.0573896
0.0599936
0.0627762
0.065755
0.06895
0.0723839
0.0760821
0.0800735
0.084391
0.089072
0.0941593
0.0997016
0.105755
0.112384
0.119662
0.127673
0.136514
0.146296
0.157144
0.169197
0.182613
0.197563
0.214235
0.232853
0.253816
0.277801
0.305272
0.335943
0.369
0.403058
0.435898
0.46483
0.487612
0.503419
0.513088
0.518457
0.521399
0.52324
0.524684
0.526008
0.0255867
0.0264371
0.0273219
0.0282434
0.029204
0.0302061
0.0312526
0.0323504
0.0335101
0.0347363
0.0360272
0.0373819
0.0388026
0.0402936
0.0418603
0.0435093
0.0452477
0.0470834
0.049025
0.0510821
0.0532653
0.0555861
0.0580574
0.0606935
0.0635106
0.0665265
0.0697616
0.0732387
0.0769836
0.0810255
0.0853976
0.0901379
0.0952894
0.100901
0.107031
0.113742
0.121109
0.129217
0.138163
0.148057
0.159025
0.171206
0.184757
0.199847
0.216661
0.235429
0.256584
0.280805
0.308456
0.339197
0.372197
0.406023
0.438444
0.466821
0.489026
0.504356
0.513708
0.518906
0.52177
0.523577
0.525003
0.526314
0.0258998
0.02676
0.0276553
0.0285877
0.0295598
0.030574
0.0316342
0.0327497
0.0339301
0.0351758
0.0364837
0.0378546
0.0392918
0.0408002
0.0423857
0.0440547
0.0458145
0.0476733
0.0496397
0.0517234
0.0539351
0.0562865
0.0587906
0.061462
0.0643169
0.0673736
0.0706526
0.0741771
0.0779731
0.0820702
0.0865022
0.0913072
0.096529
0.102217
0.108429
0.11523
0.122694
0.130908
0.139967
0.149984
0.161083
0.173403
0.187099
0.202339
0.219306
0.238234
0.259596
0.284069
0.31191
0.342717
0.375639
0.4092
0.441156
0.46893
0.490519
0.505345
0.514366
0.519386
0.522169
0.523941
0.525348
0.526643
0.0262375
0.0271086
0.0280153
0.0289598
0.0299444
0.030972
0.0320493
0.0331869
0.0343889
0.0356532
0.0369784
0.0383667
0.0398221
0.0413497
0.0429557
0.0446467
0.0464302
0.0483144
0.050308
0.0524209
0.0546638
0.0570487
0.0595887
0.0622985
0.0651948
0.0682959
0.0716228
0.0751987
0.0790503
0.0832075
0.0877044
0.0925797
0.0978775
0.103648
0.10995
0.116847
0.124417
0.132744
0.141926
0.152074
0.163313
0.175781
0.189633
0.205032
0.222161
0.241256
0.262838
0.287581
0.315618
0.346482
0.379303
0.412562
0.444008
0.471135
0.492074
0.506375
0.515054
0.51989
0.522589
0.524325
0.525712
0.526992
0.0265974
0.0274803
0.0283996
0.0293574
0.0303564
0.0314005
0.0324989
0.0336604
0.0348845
0.0361677
0.0375108
0.0389173
0.0403918
0.04194
0.0435682
0.0452832
0.0470925
0.0490044
0.0510278
0.0531726
0.0554497
0.0578711
0.0604503
0.0632022
0.0661435
0.069293
0.0726719
0.0763038
0.0802157
0.0844379
0.089005
0.0939562
0.0993361
0.105196
0.111593
0.118595
0.126277
0.134725
0.144038
0.154326
0.165714
0.17834
0.192354
0.207921
0.225219
0.244489
0.266301
0.291325
0.319561
0.350467
0.383162
0.416078
0.446968
0.473407
0.493666
0.507425
0.515753
0.520402
0.523017
0.524715
0.526081
0.527344
0.0270117
0.0279047
0.0288344
0.0298057
0.0308267
0.0319025
0.0330327
0.0342166
0.0354556
0.0367522
0.0381101
0.0395334
0.0410271
0.0425968
0.0442486
0.0459893
0.0478265
0.0497684
0.051824
0.0540033
0.0563174
0.0587785
0.0614002
0.0641977
0.067188
0.0703903
0.0738258
0.0775187
0.0814964
0.0857895
0.0904331
0.0954669
0.100936
0.106892
0.113394
0.120508
0.128312
0.13689
0.146343
0.156781
0.168328
0.18112
0.195307
0.21105
0.228526
0.247988
0.270048
0.295347
0.323763
0.35469
0.38722
0.419744
0.450024
0.475725
0.495267
0.508462
0.516425
0.520878
0.5234
0.525053
0.526392
0.527632
)
;

boundaryField
{
    inlet
    {
        type            cyclic;
    }
    outlet
    {
        type            cyclic;
    }
    wall
    {
        type            calculated;
        value           nonuniform List<scalar> 
33
(
0.525324
0.525429
0.525567
0.525733
0.525921
0.526137
0.526381
0.526653
0.526952
0.527273
0.527613
0.527957
0.528233
0.525567
0.525428
0.525324
0.525254
0.525219
0.525219
0.525254
0.525324
0.525429
0.525567
0.525733
0.525921
0.526137
0.526381
0.526653
0.526952
0.527273
0.527613
0.527957
0.528233
)
;
    }
    procBoundary2to0
    {
        type            processor;
        value           nonuniform List<scalar> 
30
(
0.0891599
0.0943922
0.100109
0.106371
0.11325
0.120829
0.129201
0.138476
0.148779
0.16025
0.17305
0.187357
0.203366
0.221294
0.241423
0.26438
0.290919
0.321088
0.354237
0.389169
0.423781
0.455209
0.480701
0.498827
0.510075
0.516309
0.519644
0.521652
0.523182
0.524573
)
;
    }
    procBoundary2to1
    {
        type            processor;
        value           nonuniform List<scalar> 
39
(
0.0845729
0.0848953
0.0853251
0.0858618
0.0865049
0.082675
0.0872547
0.0872547
0.02504
0.0258733
0.0267403
0.0276431
0.028584
0.0295654
0.03059
0.0316609
0.032786
0.0339763
0.0352355
0.0365609
0.0379526
0.0394135
0.0409483
0.042563
0.0442646
0.0460606
0.0479597
0.049971
0.052105
0.054373
0.0567876
0.0593627
0.0621142
0.0650594
0.0682184
0.0716132
0.0752693
0.079215
0.079215
)
;
    }
    procBoundary2to3
    {
        type            processor;
        value           nonuniform List<scalar> 
60
(
0.0275936
0.0285426
0.029533
0.0305677
0.0316497
0.0327856
0.0339861
0.0339861
0.0354321
0.0367818
0.0382008
0.039692
0.0412602
0.0429118
0.0446541
0.0464952
0.0484442
0.0505111
0.0527068
0.0550437
0.0575352
0.0601966
0.0630449
0.0660991
0.069381
0.069381
0.0733686
0.0772076
0.08136
0.0858619
0.0907548
0.0960861
0.10191
0.10829
0.115296
0.123014
0.131536
0.140974
0.151452
0.163111
0.176111
0.190627
0.206851
0.224997
0.245357
0.268613
0.295497
0.325891
0.359045
0.393731
0.427801
0.458433
0.483039
0.50039
0.511104
0.517042
0.520243
0.522194
0.523696
0.525065
)
;
    }
    procBoundary2to5
    {
        type            processor;
        value           nonuniform List<scalar> 
28
(
0.024013
0.0242384
0.0244905
0.0247689
0.0250725
0.0253998
0.0257486
0.0261531
0.0246039
0.0247893
0.0248196
0.0248803
0.0249712
0.0250922
0.0252432
0.0254239
0.0254239
0.0257166
0.025654
0.0256227
0.0256227
0.0266837
0.0244906
0.0247689
0.0250725
0.0253998
0.0257486
0.0261531
)
;
    }
}


// ************************************************************************* //
