/*--------------------------------*- C++ -*----------------------------------*\
  =========                 |
  \\      /  F ield         | OpenFOAM: The Open Source CFD Toolbox
   \\    /   O peration     | Website:  https://openfoam.org
    \\  /    A nd           | Version:  7
     \\/     M anipulation  |
\*---------------------------------------------------------------------------*/
FoamFile
{
    version     2.0;
    format      ascii;
    class       volVectorField;
    location    "4000";
    object      vorticity;
}
// * * * * * * * * * * * * * * * * * * * * * * * * * * * * * * * * * * * * * //

dimensions      [0 0 -1 0 0 0 0];

internalField   nonuniform List<vector> 
4783
(
(-1.77465e-05 3.82516e-05 -5.65356e-19)
(-3.38786e-05 2.26763e-05 -4.43834e-19)
(-3.30866e-05 2.27792e-05 4.4278e-19)
(-3.21856e-05 2.23901e-05 5.04279e-19)
(-3.11345e-05 2.18497e-05 3.80522e-20)
(-2.99871e-05 2.12392e-05 -9.85556e-20)
(-2.87584e-05 2.06076e-05 -3.41728e-19)
(-2.74586e-05 1.99794e-05 -4.36872e-19)
(-2.60962e-05 1.93677e-05 -9.86267e-20)
(-2.46788e-05 1.87801e-05 3.87105e-19)
(-2.32132e-05 1.8221e-05 5.03209e-19)
(-2.17051e-05 1.76933e-05 2.52537e-19)
(-2.01601e-05 1.71988e-05 -4.20892e-20)
(-1.85832e-05 1.67387e-05 -5.96094e-20)
(-1.69793e-05 1.63137e-05 1.01877e-19)
(-1.53533e-05 1.59243e-05 1.72898e-19)
(-1.37108e-05 1.55707e-05 2.60002e-19)
(-1.20578e-05 1.5253e-05 3.36567e-19)
(-1.04009e-05 1.49717e-05 3.123e-19)
(-8.74779e-06 1.47275e-05 2.90403e-19)
(-7.16894e-06 1.4515e-05 2.48532e-19)
(-5.71493e-06 1.43233e-05 2.91035e-19)
(-1.86051e-05 4.54698e-05 -4.40425e-19)
(-3.39849e-05 2.99393e-05 -2.37192e-19)
(-3.41764e-05 2.89351e-05 -1.9971e-19)
(-3.377e-05 2.79851e-05 -1.67057e-19)
(-3.29676e-05 2.70567e-05 -1.55215e-19)
(-3.19339e-05 2.6132e-05 -1.06946e-19)
(-3.0745e-05 2.52265e-05 -6.41103e-20)
(-2.94409e-05 2.43547e-05 -8.72163e-21)
(-2.80452e-05 2.35259e-05 5.30369e-20)
(-2.65736e-05 2.27456e-05 1.23911e-19)
(-2.50375e-05 2.20162e-05 1.64108e-19)
(-2.34461e-05 2.13388e-05 1.19387e-19)
(-2.18068e-05 2.07132e-05 8.04158e-20)
(-2.01264e-05 2.01391e-05 1.37788e-19)
(-1.84111e-05 1.96156e-05 2.09825e-19)
(-1.66669e-05 1.91416e-05 2.02379e-19)
(-1.49002e-05 1.8716e-05 2.53474e-19)
(-1.31178e-05 1.83379e-05 3.17833e-19)
(-1.13271e-05 1.80062e-05 2.6359e-19)
(-9.53686e-06 1.77199e-05 1.92715e-19)
(-7.81072e-06 1.74717e-05 1.88439e-19)
(-6.21663e-06 1.72657e-05 1.74333e-19)
(-2.02472e-05 4.72251e-05 -2.17009e-19)
(-3.49291e-05 3.123e-05 -1.31616e-19)
(-3.51714e-05 2.99368e-05 -8.50654e-20)
(-3.50147e-05 2.89026e-05 -9.08512e-20)
(-3.44309e-05 2.80461e-05 -8.61328e-20)
(-3.35408e-05 2.72723e-05 -9.14038e-20)
(-3.24302e-05 2.65488e-05 -1.15537e-19)
(-3.11562e-05 2.58659e-05 -6.38853e-20)
(-2.9756e-05 2.52224e-05 -8.35924e-21)
(-2.82543e-05 2.46189e-05 4.95987e-20)
(-2.66688e-05 2.4056e-05 1.23502e-19)
(-2.50126e-05 2.3534e-05 1.21966e-19)
(-2.32961e-05 2.30526e-05 1.33627e-19)
(-2.15281e-05 2.2611e-05 1.56948e-19)
(-1.97163e-05 2.22085e-05 1.33108e-19)
(-1.78682e-05 2.18441e-05 1.02724e-19)
(-1.59911e-05 2.15166e-05 1.5606e-19)
(-1.40928e-05 2.12248e-05 2.62554e-19)
(-1.21818e-05 2.09678e-05 2.64771e-19)
(-1.02678e-05 2.07444e-05 2.36178e-19)
(-8.41058e-06 2.0548e-05 2.547e-19)
(-6.68068e-06 2.03803e-05 2.04663e-19)
(-2.21774e-05 4.91581e-05 3.57219e-19)
(-3.63778e-05 3.31881e-05 7.57669e-20)
(-3.64454e-05 3.16989e-05 1.01501e-19)
(-3.62882e-05 3.05436e-05 1.07755e-19)
(-3.57851e-05 2.96619e-05 7.82316e-20)
(-3.49821e-05 2.89417e-05 6.79867e-20)
(-3.39346e-05 2.8321e-05 1.32666e-20)
(-3.26935e-05 2.77669e-05 -2.30208e-20)
(-3.12983e-05 2.7263e-05 -3.69557e-20)
(-2.97783e-05 2.68012e-05 1.83242e-20)
(-2.81555e-05 2.63771e-05 5.43763e-20)
(-2.64465e-05 2.5988e-05 5.04369e-20)
(-2.46643e-05 2.5632e-05 7.28095e-20)
(-2.28198e-05 2.53075e-05 7.20197e-20)
(-2.09224e-05 2.50129e-05 6.35364e-20)
(-1.8981e-05 2.47469e-05 1.06624e-19)
(-1.70039e-05 2.45081e-05 1.97491e-19)
(-1.5e-05 2.4295e-05 2.81872e-19)
(-1.29788e-05 2.41066e-05 2.60848e-19)
(-1.09509e-05 2.39415e-05 2.00655e-19)
(-8.97242e-06 2.37939e-05 1.92186e-19)
(-7.11673e-06 2.3665e-05 1.74175e-19)
(-2.42515e-05 5.12629e-05 5.06375e-19)
(-3.81056e-05 3.54131e-05 2.76042e-19)
(-3.79709e-05 3.38715e-05 1.59209e-19)
(-3.77053e-05 3.26518e-05 1.56321e-19)
(-3.71752e-05 3.17373e-05 1.55626e-19)
(-3.63852e-05 3.10318e-05 1.55887e-19)
(-3.53593e-05 3.04673e-05 1.15827e-19)
(-3.41312e-05 2.99985e-05 6.93268e-20)
(-3.27339e-05 2.95974e-05 8.18376e-20)
(-3.11956e-05 2.92469e-05 1.14585e-19)
(-2.95391e-05 2.89365e-05 1.10737e-19)
(-2.77827e-05 2.86597e-05 1.1756e-19)
(-2.59413e-05 2.84121e-05 1.01202e-19)
(-2.40274e-05 2.81901e-05 3.29344e-20)
(-2.20519e-05 2.79913e-05 2.01869e-20)
(-2.00246e-05 2.78135e-05 6.23218e-20)
(-1.79552e-05 2.76547e-05 1.42016e-19)
(-1.58533e-05 2.75131e-05 1.84652e-19)
(-1.37295e-05 2.73873e-05 1.45209e-19)
(-1.15949e-05 2.7276e-05 1.25308e-19)
(-9.50291e-06 2.71736e-05 1.39047e-19)
(-7.52904e-06 2.70808e-05 1.28889e-19)
(-2.64169e-05 5.34987e-05 1.15255e-19)
(-3.99989e-05 3.77899e-05 1.8502e-19)
(-3.96744e-05 3.62741e-05 1.50022e-19)
(-3.92663e-05 3.50504e-05 1.4659e-19)
(-3.86514e-05 3.4129e-05 1.41255e-19)
(-3.78184e-05 3.34353e-05 1.42822e-19)
(-3.67715e-05 3.29079e-05 1.5616e-19)
(-3.55286e-05 3.24992e-05 1.46134e-19)
(-3.4113e-05 3.21749e-05 1.49548e-19)
(-3.25481e-05 3.19119e-05 1.57349e-19)
(-3.08548e-05 3.16945e-05 1.23773e-19)
(-2.90512e-05 3.15121e-05 1.66505e-19)
(-2.71529e-05 3.13573e-05 1.374e-19)
(-2.51731e-05 3.12248e-05 6.01277e-20)
(-2.31236e-05 3.11105e-05 1.49961e-20)
(-2.10154e-05 3.10112e-05 4.82033e-20)
(-1.88588e-05 3.09243e-05 9.088e-20)
(-1.66644e-05 3.08474e-05 1.47798e-19)
(-1.44434e-05 3.07786e-05 1.63746e-19)
(-1.22079e-05 3.07164e-05 1.12253e-19)
(-1.00083e-05 3.06555e-05 1.08709e-19)
(-7.92225e-06 3.05958e-05 1.48041e-19)
(-2.86456e-05 5.58199e-05 8.84479e-20)
(-4.19961e-05 4.02618e-05 1.8656e-19)
(-4.14983e-05 3.88125e-05 1.89334e-19)
(-4.09417e-05 3.7627e-05 1.56261e-19)
(-4.02161e-05 3.67283e-05 1.286e-19)
(-3.93061e-05 3.60587e-05 1.32034e-19)
(-3.8206e-05 3.55665e-05 1.41911e-19)
(-3.69227e-05 3.5207e-05 9.99623e-20)
(-3.54706e-05 3.49447e-05 8.53316e-20)
(-3.38671e-05 3.47531e-05 1.07806e-19)
(-3.213e-05 3.4613e-05 1.69986e-19)
(-3.02759e-05 3.45105e-05 2.50197e-19)
(-2.83196e-05 3.44357e-05 1.84905e-19)
(-2.62746e-05 3.43812e-05 6.47415e-20)
(-2.41531e-05 3.43415e-05 -1.3751e-20)
(-2.19665e-05 3.43121e-05 3.41464e-20)
(-1.9726e-05 3.42897e-05 1.06079e-19)
(-1.74428e-05 3.42712e-05 1.31715e-19)
(-1.51287e-05 3.42542e-05 1.02564e-19)
(-1.27965e-05 3.42368e-05 4.61986e-20)
(-1.0494e-05 3.42136e-05 6.75165e-20)
(-8.3005e-06 3.41842e-05 1.12963e-19)
(-3.09175e-05 5.8187e-05 3.06355e-19)
(-4.40588e-05 4.279e-05 1.98094e-19)
(-4.34019e-05 4.14299e-05 2.53766e-19)
(-4.27002e-05 4.03099e-05 2.20425e-19)
(-4.18546e-05 3.94579e-05 1.76945e-19)
(-4.08495e-05 3.88279e-05 1.47131e-19)
(-3.96752e-05 3.83769e-05 1.40671e-19)
(-3.83317e-05 3.80649e-05 1.01686e-19)
(-3.6827e-05 3.78578e-05 5.7577e-20)
(-3.5173e-05 3.7728e-05 2.26964e-20)
(-3.33839e-05 3.76546e-05 1.03056e-19)
(-3.1474e-05 3.76214e-05 1.60004e-19)
(-2.94569e-05 3.76164e-05 1.61572e-19)
(-2.73456e-05 3.76306e-05 1.39407e-19)
(-2.51523e-05 3.76569e-05 6.81009e-20)
(-2.28885e-05 3.769e-05 9.3383e-20)
(-2.05659e-05 3.77256e-05 6.56807e-20)
(-1.81962e-05 3.77598e-05 9.02522e-20)
(-1.57918e-05 3.77898e-05 9.54832e-20)
(-1.33659e-05 3.7813e-05 1.10349e-19)
(-1.09641e-05 3.78241e-05 1.50708e-19)
(-8.66729e-06 3.78219e-05 1.05458e-19)
(-3.3216e-05 6.05692e-05 5.22994e-19)
(-4.61597e-05 4.53453e-05 2.6176e-19)
(-4.53561e-05 4.40882e-05 3.40156e-19)
(-4.45157e-05 4.30511e-05 2.63453e-19)
(-4.35484e-05 4.22636e-05 1.46137e-19)
(-4.24399e-05 4.16873e-05 1.2849e-19)
(-4.11789e-05 4.1286e-05 1.35325e-19)
(-3.97619e-05 4.10244e-05 1.15022e-19)
(-3.81921e-05 4.08707e-05 7.75542e-20)
(-3.64774e-05 4.07981e-05 1.15854e-19)
(-3.46284e-05 4.07848e-05 1.30551e-19)
(-3.26572e-05 4.08134e-05 9.4344e-20)
(-3.05757e-05 4.08707e-05 1.20319e-19)
(-2.83961e-05 4.0946e-05 1.22972e-19)
(-2.61301e-05 4.10314e-05 4.87942e-20)
(-2.37892e-05 4.11205e-05 5.64345e-20)
(-2.13853e-05 4.12082e-05 6.12581e-20)
(-1.89305e-05 4.12902e-05 9.08939e-20)
(-1.64377e-05 4.13628e-05 1.05498e-19)
(-1.39205e-05 4.14228e-05 1.0632e-19)
(-1.14225e-05 4.14647e-05 1.36214e-19)
(-9.02568e-06 4.14865e-05 1.45945e-19)
(-3.55271e-05 6.29427e-05 6.22426e-19)
(-4.82783e-05 4.79051e-05 3.58693e-19)
(-4.73387e-05 4.67598e-05 3.64339e-19)
(-4.63669e-05 4.58172e-05 2.87276e-19)
(-4.528e-05 4.51068e-05 2.21995e-19)
(-4.40653e-05 4.45956e-05 1.62522e-19)
(-4.27111e-05 4.42523e-05 1.02282e-19)
(-4.1212e-05 4.40456e-05 3.36759e-20)
(-3.95685e-05 4.39465e-05 1.67213e-20)
(-3.77852e-05 4.39294e-05 1.17089e-19)
(-3.58699e-05 4.39725e-05 9.09476e-20)
(-3.38324e-05 4.40582e-05 7.74541e-21)
(-3.16831e-05 4.4172e-05 7.53676e-20)
(-2.94329e-05 4.43027e-05 6.34971e-20)
(-2.7093e-05 4.44413e-05 2.6596e-20)
(-2.46744e-05 4.45808e-05 5.17721e-20)
(-2.21893e-05 4.47156e-05 8.75358e-20)
(-1.96501e-05 4.48408e-05 9.11983e-20)
(-1.70703e-05 4.4952e-05 7.60497e-20)
(-1.44638e-05 4.50455e-05 7.67215e-20)
(-1.18723e-05 4.51146e-05 1.34838e-19)
(-9.37845e-06 4.51561e-05 1.553e-19)
(-3.78387e-05 6.52898e-05 4.82379e-19)
(-5.03984e-05 5.04518e-05 3.97736e-19)
(-4.93326e-05 4.9424e-05 3.31938e-19)
(-4.82365e-05 4.85836e-05 2.51645e-19)
(-4.7034e-05 4.79593e-05 2.38311e-19)
(-4.57133e-05 4.7522e-05 1.85885e-19)
(-4.42632e-05 4.72439e-05 1.03684e-19)
(-4.26775e-05 4.7097e-05 8.4092e-22)
(-4.09547e-05 4.70548e-05 5.32346e-21)
(-3.90973e-05 4.70931e-05 1.05497e-19)
(-3.71108e-05 4.71908e-05 8.07027e-20)
(-3.50031e-05 4.73303e-05 2.48991e-20)
(-3.2783e-05 4.74967e-05 1.06976e-19)
(-3.04603e-05 4.76782e-05 7.49454e-20)
(-2.80451e-05 4.7865e-05 -1.18823e-20)
(-2.55483e-05 4.80498e-05 -2.14886e-21)
(-2.29816e-05 4.82269e-05 7.23105e-20)
(-2.03582e-05 4.83911e-05 1.08527e-19)
(-1.7692e-05 4.85373e-05 7.15999e-20)
(-1.49982e-05 4.86615e-05 1.99377e-20)
(-1.23167e-05 4.87543e-05 9.09097e-20)
(-9.72857e-06 4.88091e-05 1.09316e-19)
(-4.01405e-05 6.75969e-05 3.63625e-19)
(-5.25072e-05 5.29715e-05 3.74922e-19)
(-5.13238e-05 5.20646e-05 2.59707e-19)
(-5.01107e-05 5.13317e-05 1.82508e-19)
(-4.87972e-05 5.07999e-05 1.9315e-19)
(-4.73726e-05 5.04429e-05 2.16074e-19)
(-4.58263e-05 5.02358e-05 1.41162e-19)
(-4.4152e-05 5.01532e-05 7.09793e-20)
(-4.23469e-05 5.01705e-05 5.53125e-20)
(-4.0412e-05 5.02649e-05 9.16828e-20)
(-3.83511e-05 5.04163e-05 6.5341e-20)
(-3.61702e-05 5.06074e-05 3.7258e-20)
(-3.38772e-05 5.08234e-05 5.99153e-20)
(-3.14806e-05 5.10518e-05 5.259e-20)
(-2.89894e-05 5.12825e-05 9.89382e-21)
(-2.64136e-05 5.15078e-05 3.04625e-20)
(-2.37648e-05 5.17226e-05 6.57885e-20)
(-2.1057e-05 5.19216e-05 9.70613e-20)
(-1.83045e-05 5.20988e-05 7.54018e-20)
(-1.55252e-05 5.22521e-05 7.16721e-20)
(-1.27596e-05 5.2367e-05 1.29495e-19)
(-1.00798e-05 5.24222e-05 6.97081e-20)
(-4.24236e-05 6.98537e-05 1.41123e-19)
(-5.45942e-05 5.54532e-05 3.00069e-19)
(-5.33013e-05 5.46694e-05 2.43975e-19)
(-5.19779e-05 5.40471e-05 1.96048e-19)
(-5.05584e-05 5.36121e-05 1.71309e-19)
(-4.9033e-05 5.33403e-05 1.79034e-19)
(-4.73919e-05 5.32086e-05 8.60436e-20)
(-4.56287e-05 5.31937e-05 4.36453e-20)
(-4.37402e-05 5.32728e-05 5.02882e-20)
(-4.17261e-05 5.34242e-05 5.46693e-20)
(-3.95889e-05 5.36287e-05 2.22169e-20)
(-3.73333e-05 5.38696e-05 2.82896e-20)
(-3.4966e-05 5.41326e-05 4.31272e-20)
(-3.24946e-05 5.44047e-05 3.32134e-20)
(-2.99275e-05 5.46757e-05 -1.85345e-22)
(-2.72724e-05 5.4936e-05 4.30877e-21)
(-2.45409e-05 5.51839e-05 7.63467e-20)
(-2.17488e-05 5.54139e-05 1.08637e-19)
(-1.89084e-05 5.56155e-05 4.78192e-20)
(-1.60435e-05 5.58006e-05 2.64985e-20)
(-1.32028e-05 5.58778e-05 1.08849e-19)
(-1.04357e-05 5.59128e-05 7.11858e-20)
(-4.46801e-05 7.2052e-05 -7.06409e-20)
(-5.66508e-05 5.78881e-05 1.07205e-19)
(-5.52557e-05 5.72281e-05 1.10542e-19)
(-5.38286e-05 5.67184e-05 1.05887e-19)
(-5.23082e-05 5.63832e-05 1.41426e-19)
(-5.06856e-05 5.61998e-05 1.52255e-19)
(-4.8952e-05 5.61467e-05 1.25249e-19)
(-4.71011e-05 5.62021e-05 8.7549e-20)
(-4.51294e-05 5.63445e-05 1.0267e-19)
(-4.3036e-05 5.65533e-05 7.58936e-20)
(-4.08218e-05 5.681e-05 -1.41421e-20)
(-3.84905e-05 5.70989e-05 8.80805e-21)
(-3.60483e-05 5.74068e-05 1.23826e-20)
(-3.35021e-05 5.77195e-05 -5.01099e-20)
(-3.08604e-05 5.80279e-05 -4.57594e-20)
(-2.81263e-05 5.83164e-05 -2.20526e-20)
(-2.53109e-05 5.85921e-05 5.53703e-20)
(-2.24365e-05 5.88517e-05 8.65184e-20)
(-1.9503e-05 5.90659e-05 1.95894e-20)
(-1.65872e-05 5.91754e-05 1.27015e-20)
(-1.36947e-05 5.91967e-05 1.00193e-19)
(-1.0805e-05 5.91974e-05 8.08763e-20)
(-4.69036e-05 7.41858e-05 -2.46755e-20)
(-5.86698e-05 6.0269e-05 7.51642e-20)
(-5.71794e-05 5.97329e-05 7.53386e-20)
(-5.56547e-05 5.93367e-05 6.38467e-20)
(-5.40386e-05 5.91027e-05 1.23511e-19)
(-5.2323e-05 5.90096e-05 1.14763e-19)
(-5.04997e-05 5.9037e-05 9.35652e-20)
(-4.8563e-05 5.91643e-05 6.85779e-20)
(-4.65095e-05 5.93709e-05 9.05095e-20)
(-4.43376e-05 5.9637e-05 1.13948e-19)
(-4.20472e-05 5.99444e-05 7.06411e-20)
(-3.96396e-05 6.02782e-05 7.22252e-20)
(-3.71228e-05 6.06294e-05 -5.93825e-20)
(-3.45012e-05 6.09782e-05 -1.34358e-19)
(-3.17888e-05 6.13256e-05 -8.87303e-20)
(-2.89775e-05 6.16309e-05 3.63502e-21)
(-2.60737e-05 6.193e-05 2.99729e-20)
(-2.31169e-05 6.21606e-05 2.37047e-20)
(-2.01605e-05 6.23122e-05 -1.06438e-21)
(-1.71963e-05 6.23546e-05 6.9102e-20)
(-4.90881e-05 7.62503e-05 -9.96742e-20)
(-6.06453e-05 6.25902e-05 9.03032e-20)
(-5.9066e-05 6.21772e-05 7.21427e-20)
(-5.74496e-05 6.18944e-05 8.72266e-20)
(-5.57429e-05 6.17623e-05 1.66936e-19)
(-5.39385e-05 6.17603e-05 1.07692e-19)
(-5.2029e-05 6.18688e-05 9.33338e-20)
(-5.0009e-05 6.20681e-05 7.31179e-20)
(-4.78755e-05 6.23388e-05 1.12763e-19)
(-4.56272e-05 6.26615e-05 1.44383e-19)
(-4.32626e-05 6.30173e-05 1.01402e-19)
(-4.0778e-05 6.33903e-05 6.4259e-20)
(-3.81881e-05 6.37855e-05 -1.02764e-19)
(-3.54879e-05 6.4164e-05 -1.62237e-19)
(-3.27017e-05 6.44918e-05 -1.42304e-19)
(-2.98197e-05 6.48024e-05 -7.10119e-20)
(-2.68565e-05 6.50699e-05 -6.1945e-21)
(-2.3861e-05 6.52571e-05 6.90763e-20)
(-2.08312e-05 6.53704e-05 1.21293e-19)
(-5.12287e-05 7.82415e-05 -1.41525e-19)
(-6.25726e-05 6.48467e-05 1.03862e-19)
(-6.09102e-05 6.45555e-05 6.67712e-20)
(-5.92078e-05 6.43853e-05 8.07375e-20)
(-5.74155e-05 6.43547e-05 1.44727e-19)
(-5.55267e-05 6.44435e-05 8.40019e-20)
(-5.35347e-05 6.46327e-05 1.26985e-19)
(-5.14342e-05 6.49029e-05 1.36267e-19)
(-4.92228e-05 6.52361e-05 1.06173e-19)
(-4.69006e-05 6.56137e-05 1.06941e-19)
(-4.4467e-05 6.60164e-05 1.11671e-19)
(-4.19025e-05 6.64196e-05 9.63612e-20)
(-3.92285e-05 6.67948e-05 -1.07457e-19)
(-3.64816e-05 6.71406e-05 -1.66967e-19)
(-3.3628e-05 6.74457e-05 -8.14512e-20)
(-3.06719e-05 6.77469e-05 1.98925e-20)
(-2.7648e-05 6.80074e-05 7.43819e-20)
(-5.3321e-05 8.01565e-05 1.73034e-20)
(-6.44473e-05 6.70344e-05 8.45228e-20)
(-6.27075e-05 6.68634e-05 3.96583e-20)
(-6.09246e-05 6.68044e-05 8.7858e-20)
(-5.90517e-05 6.68739e-05 1.43338e-19)
(-5.70831e-05 6.70522e-05 1.0892e-19)
(-5.50126e-05 6.73202e-05 1.43996e-19)
(-5.28348e-05 6.76584e-05 1.11392e-19)
(-5.05475e-05 6.80505e-05 3.51944e-20)
(-4.81536e-05 6.84849e-05 6.38753e-20)
(-4.5642e-05 6.88609e-05 8.91077e-20)
(-4.30294e-05 6.92272e-05 7.73724e-20)
(-4.02992e-05 6.95662e-05 -2.7345e-20)
(-3.74658e-05 6.98983e-05 -2.82885e-20)
(-5.53612e-05 8.19928e-05 1.53687e-19)
(-6.6266e-05 6.915e-05 1.05324e-19)
(-6.44541e-05 6.9097e-05 8.25387e-20)
(-6.25961e-05 6.91472e-05 1.09554e-19)
(-6.06475e-05 6.93145e-05 8.38845e-20)
(-5.86035e-05 6.95798e-05 -4.59162e-21)
(-5.64594e-05 6.99238e-05 6.93973e-20)
(-5.42081e-05 7.03247e-05 7.17481e-20)
(-5.18453e-05 7.07756e-05 4.59983e-20)
(-4.93935e-05 7.11344e-05 4.83029e-20)
(-4.68405e-05 7.14605e-05 1.06802e-19)
(-4.41418e-05 7.1811e-05 1.63743e-19)
(-5.7346e-05 8.37483e-05 1.77491e-20)
(-6.80258e-05 7.11903e-05 6.70664e-20)
(-6.61469e-05 7.1253e-05 5.4277e-20)
(-6.4219e-05 7.14097e-05 6.24885e-20)
(-6.21998e-05 7.16716e-05 7.29128e-20)
(-6.00847e-05 7.202e-05 5.98139e-21)
(-5.78725e-05 7.24365e-05 1.01486e-19)
(-5.55515e-05 7.28991e-05 1.16693e-19)
(-5.31445e-05 7.32582e-05 7.45868e-20)
(-5.06447e-05 7.3555e-05 7.92865e-20)
(-5.92727e-05 8.54214e-05 -1.01698e-19)
(-6.9724e-05 7.31528e-05 5.2179e-20)
(-6.77829e-05 7.33285e-05 2.89513e-20)
(-6.57908e-05 7.35887e-05 3.36042e-20)
(-6.37061e-05 7.39407e-05 9.45223e-20)
(-6.15232e-05 7.4366e-05 5.29388e-20)
(-5.92488e-05 7.48588e-05 7.88468e-20)
(-5.68898e-05 7.52294e-05 1.05834e-19)
(-5.4437e-05 7.55252e-05 7.51958e-20)
(-6.11387e-05 8.70105e-05 4.68012e-20)
(-7.13585e-05 7.50348e-05 1.18485e-19)
(-6.93597e-05 7.53207e-05 7.88778e-20)
(-6.73092e-05 7.56813e-05 3.90567e-20)
(-6.51658e-05 7.61178e-05 3.47239e-20)
(-6.29146e-05 7.66161e-05 -7.5252e-21)
(-6.06055e-05 7.70409e-05 9.9716e-21)
(-5.82097e-05 7.73487e-05 1.46396e-19)
(-6.29422e-05 8.85145e-05 2.84594e-19)
(-7.29274e-05 7.68341e-05 1.75458e-19)
(-7.08747e-05 7.72271e-05 6.68782e-20)
(-6.87721e-05 7.76853e-05 2.21671e-20)
(-6.65777e-05 7.82022e-05 2.4078e-20)
(-6.43028e-05 7.87006e-05 -1.51646e-20)
(-6.19322e-05 7.903e-05 2.39335e-20)
(-6.46818e-05 8.99323e-05 4.95004e-19)
(-7.44294e-05 7.85483e-05 2.10353e-19)
(-7.23255e-05 7.90451e-05 4.86923e-20)
(-7.0176e-05 7.95981e-05 1.59372e-20)
(-6.79589e-05 8.01877e-05 3.03883e-21)
(-6.56452e-05 8.05949e-05 -2.3681e-20)
(-6.63565e-05 9.12633e-05 5.53397e-19)
(-7.58639e-05 8.01753e-05 1.39785e-19)
(-7.37101e-05 8.07712e-05 -3.78288e-21)
(-7.1516e-05 8.14225e-05 7.32083e-20)
(-6.928e-05 8.19581e-05 6.10487e-20)
(-6.69689e-05 8.23317e-05 1.15198e-20)
(-6.79658e-05 9.25075e-05 3.75364e-19)
(-7.72311e-05 8.17133e-05 1.09246e-19)
(-7.50256e-05 8.24033e-05 3.05698e-20)
(-7.28247e-05 8.30972e-05 1.49133e-19)
(-7.05454e-05 8.35506e-05 1.02091e-19)
(-6.95099e-05 9.36652e-05 -1.23516e-19)
(-7.85322e-05 8.3161e-05 4.14531e-20)
(-7.62828e-05 8.39319e-05 9.23246e-21)
(-7.4058e-05 8.4596e-05 1.40797e-19)
(-7.09887e-05 9.47378e-05 -4.49599e-19)
(-7.97696e-05 8.45198e-05 -3.05949e-20)
(-7.74878e-05 8.53232e-05 -2.53392e-21)
(-7.52496e-05 8.59667e-05 1.34579e-19)
(-7.24018e-05 9.57272e-05 -4.07758e-19)
(-8.09544e-05 8.57844e-05 -7.21849e-20)
(-7.86421e-05 8.66171e-05 9.5782e-21)
(-7.37481e-05 9.66357e-05 -2.33617e-19)
(-8.20799e-05 8.69716e-05 -1.26947e-19)
(-7.97641e-05 8.78475e-05 -4.59997e-20)
(-7.50232e-05 9.7466e-05 -2.016e-19)
(-8.31443e-05 8.80881e-05 -1.8076e-19)
(-8.08346e-05 8.90229e-05 -5.2162e-20)
(-7.62227e-05 9.82184e-05 -3.65248e-19)
(-8.41374e-05 8.91357e-05 -2.02765e-19)
(-8.18359e-05 9.01499e-05 -6.20084e-20)
(-7.73426e-05 9.88918e-05 -5.19798e-19)
(-8.50549e-05 9.01115e-05 -1.88022e-19)
(-8.27627e-05 9.12071e-05 -2.44619e-20)
(-7.83786e-05 9.94845e-05 -3.35695e-19)
(-8.58942e-05 9.10138e-05 -1.10947e-19)
(-8.36152e-05 9.21887e-05 -3.22028e-20)
(-7.93258e-05 9.9994e-05 -3.41811e-20)
(-8.66525e-05 9.18418e-05 -7.21948e-21)
(-8.43936e-05 9.3091e-05 3.72649e-20)
(-8.0178e-05 0.000100417 2.15981e-19)
(-8.73273e-05 9.25958e-05 1.22917e-19)
(-8.50981e-05 9.39118e-05 2.971e-20)
(-8.0927e-05 0.000100751 4.29804e-19)
(-8.7916e-05 9.32779e-05 2.08101e-19)
(-8.57292e-05 9.46492e-05 2.10749e-20)
(-8.15867e-05 0.000101028 5.7618e-19)
(-8.84167e-05 9.38933e-05 2.61065e-19)
(-8.62878e-05 9.53015e-05 7.64224e-21)
(-8.23567e-05 0.000101512 5.35168e-19)
(-8.88438e-05 9.44466e-05 2.33117e-19)
(-8.67759e-05 9.58657e-05 -1.3213e-20)
(-8.34723e-05 0.000102354 3.24616e-19)
(-8.94342e-05 9.51008e-05 1.79622e-19)
(-8.72305e-05 9.63885e-05 8.53798e-21)
(-8.46084e-05 0.0001031 1.61434e-19)
(-9.03097e-05 9.58996e-05 1.89963e-19)
(-8.7794e-05 9.69072e-05 2.31591e-20)
(-8.53988e-05 0.000103455 1.25256e-19)
(-9.11728e-05 9.66179e-05 1.93628e-19)
(-8.86266e-05 9.75963e-05 2.61206e-20)
(-3.73279e-05 1.84969e-05 -1.79854e-18)
(-4.47792e-05 1.93273e-05 -7.93923e-19)
(-4.65273e-05 2.09555e-05 -5.7275e-19)
(-4.84752e-05 2.28721e-05 -1.06851e-19)
(-5.05942e-05 2.49325e-05 2.34364e-19)
(-5.28438e-05 2.70844e-05 1.75327e-19)
(-5.51786e-05 2.92999e-05 2.92341e-20)
(-5.7559e-05 3.15589e-05 3.2596e-19)
(-5.99542e-05 3.38447e-05 6.11428e-19)
(-6.23409e-05 3.61432e-05 4.67149e-19)
(-6.47011e-05 3.84423e-05 3.63335e-19)
(-6.70216e-05 4.07316e-05 5.04556e-19)
(-6.92921e-05 4.30019e-05 3.97269e-19)
(-7.1505e-05 4.52455e-05 2.98873e-19)
(-7.36541e-05 4.74553e-05 4.04596e-19)
(-7.57351e-05 4.96255e-05 2.87337e-19)
(-7.77444e-05 5.17509e-05 1.92702e-19)
(-7.96794e-05 5.38268e-05 3.21932e-19)
(-8.1538e-05 5.5849e-05 4.03321e-19)
(-8.33188e-05 5.78141e-05 3.9856e-19)
(-8.50207e-05 5.97188e-05 4.10987e-19)
(-8.6643e-05 6.15601e-05 3.49145e-19)
(-8.81855e-05 6.33355e-05 3.35053e-19)
(-8.96481e-05 6.50428e-05 4.93018e-19)
(-9.10311e-05 6.668e-05 6.28944e-19)
(-9.23351e-05 6.82457e-05 4.6344e-19)
(-9.35603e-05 6.97388e-05 5.94231e-21)
(-9.47071e-05 7.11587e-05 -2.60006e-19)
(-9.57754e-05 7.2505e-05 -2.91471e-19)
(-9.67643e-05 7.37775e-05 -2.5262e-19)
(-9.76721e-05 7.49758e-05 -3.05598e-19)
(-9.84967e-05 7.60988e-05 -4.53267e-19)
(-9.92354e-05 7.71445e-05 -5.10837e-19)
(-9.98851e-05 7.81101e-05 -3.93626e-19)
(-0.000100442 7.89915e-05 -1.75765e-19)
(-0.0001009 7.9783e-05 3.78665e-20)
(-0.000101255 8.04768e-05 2.70555e-19)
(-0.000101565 8.11075e-05 4.2062e-19)
(-0.000102107 8.18684e-05 3.97064e-19)
(-0.000102966 8.29347e-05 2.68274e-19)
(-0.000103653 8.39964e-05 2.55907e-19)
(-0.000103874 8.47482e-05 2.58914e-19)
(-2.17961e-05 3.46119e-05 -1.03255e-18)
(-2.92176e-05 3.47276e-05 -5.96392e-19)
(-3.05265e-05 3.56598e-05 -3.61065e-19)
(-3.24994e-05 3.70956e-05 -2.13113e-19)
(-3.4739e-05 3.88104e-05 -7.57e-20)
(-3.71301e-05 4.06907e-05 5.73197e-20)
(-3.9616e-05 4.26752e-05 2.20875e-19)
(-4.2158e-05 4.47254e-05 4.44369e-19)
(-4.47269e-05 4.68141e-05 5.5968e-19)
(-4.73004e-05 4.89207e-05 5.23536e-19)
(-4.98608e-05 5.10292e-05 4.06102e-19)
(-5.23946e-05 5.31264e-05 3.17406e-19)
(-5.48909e-05 5.52019e-05 2.81377e-19)
(-5.73411e-05 5.7247e-05 2.37288e-19)
(-5.97385e-05 5.92545e-05 2.38913e-19)
(-6.20774e-05 6.12183e-05 1.7707e-19)
(-6.43535e-05 6.31334e-05 1.53056e-19)
(-6.65631e-05 6.49955e-05 2.12988e-19)
(-6.87033e-05 6.68009e-05 2.98154e-19)
(-7.07718e-05 6.85467e-05 3.28248e-19)
(-7.27666e-05 7.023e-05 3.14085e-19)
(-7.46862e-05 7.18485e-05 3.19283e-19)
(-7.65297e-05 7.34004e-05 3.41735e-19)
(-7.82959e-05 7.4884e-05 4.02618e-19)
(-7.99845e-05 7.62979e-05 3.93219e-19)
(-8.15948e-05 7.76411e-05 2.0513e-19)
(-8.31264e-05 7.89128e-05 -6.82112e-20)
(-8.4579e-05 8.01124e-05 -2.7917e-19)
(-8.5952e-05 8.12394e-05 -3.15848e-19)
(-8.72446e-05 8.22934e-05 -2.46029e-19)
(-8.84561e-05 8.32738e-05 -2.12904e-19)
(-8.95852e-05 8.41795e-05 -1.81042e-19)
(-9.06311e-05 8.50094e-05 -1.34782e-19)
(-9.15928e-05 8.57617e-05 -8.22604e-20)
(-9.24697e-05 8.6434e-05 -2.19639e-21)
(-9.32621e-05 8.70238e-05 1.09409e-19)
(-9.39717e-05 8.7528e-05 2.20282e-19)
(-9.46047e-05 8.79452e-05 2.9363e-19)
(-9.51962e-05 8.83249e-05 2.92639e-19)
(-9.58758e-05 8.88841e-05 2.19608e-19)
(-9.65703e-05 8.96171e-05 2.0803e-19)
(-9.70256e-05 9.02443e-05 1.59115e-19)
(-2.18892e-05 3.38516e-05 -8.25255e-20)
(-2.82227e-05 3.49263e-05 -4.75139e-19)
(-2.92424e-05 3.59095e-05 -2.58737e-19)
(-3.10215e-05 3.71707e-05 -1.73676e-19)
(-3.321e-05 3.86833e-05 -1.23746e-21)
(-3.56279e-05 4.03739e-05 6.08577e-20)
(-3.81809e-05 4.21851e-05 1.51475e-19)
(-4.08125e-05 4.40765e-05 2.75819e-19)
(-4.34846e-05 4.60188e-05 2.79944e-19)
(-4.61699e-05 4.79901e-05 3.22848e-19)
(-4.88478e-05 4.9973e-05 3.22417e-19)
(-5.15024e-05 5.19538e-05 3.14911e-19)
(-5.41216e-05 5.39211e-05 3.63647e-19)
(-5.66957e-05 5.58658e-05 2.89774e-19)
(-5.92169e-05 5.778e-05 2.43055e-19)
(-6.16793e-05 5.96574e-05 2.06738e-19)
(-6.40778e-05 6.14924e-05 1.86537e-19)
(-6.64085e-05 6.32806e-05 2.31302e-19)
(-6.86682e-05 6.50179e-05 2.59053e-19)
(-7.08544e-05 6.67011e-05 2.33e-19)
(-7.29649e-05 6.83274e-05 1.83223e-19)
(-7.49982e-05 6.98942e-05 1.91297e-19)
(-7.69528e-05 7.13995e-05 1.95266e-19)
(-7.88279e-05 7.28416e-05 1.83359e-19)
(-8.06225e-05 7.4219e-05 1.51433e-19)
(-8.2336e-05 7.55305e-05 6.50989e-20)
(-8.39679e-05 7.6775e-05 -1.66321e-20)
(-8.55177e-05 7.79519e-05 -7.01567e-20)
(-8.69848e-05 7.90603e-05 -6.75817e-20)
(-8.83686e-05 8.00996e-05 -2.28127e-20)
(-8.96685e-05 8.10691e-05 -2.22388e-20)
(-9.08837e-05 8.19679e-05 -2.17185e-20)
(-9.20133e-05 8.27952e-05 -3.09848e-20)
(-9.30562e-05 8.35498e-05 -2.56175e-20)
(-9.40112e-05 8.42304e-05 3.16409e-20)
(-9.48766e-05 8.48356e-05 8.94407e-20)
(-9.56503e-05 8.5364e-05 9.77656e-20)
(-9.63292e-05 8.58142e-05 7.77197e-20)
(-9.6909e-05 8.61866e-05 7.92874e-20)
(-9.74899e-05 8.65687e-05 9.38137e-20)
(-9.80368e-05 8.70304e-05 8.48836e-20)
(-9.84042e-05 8.74971e-05 6.04654e-20)
(-2.15228e-05 3.29567e-05 2.07522e-19)
(-2.72821e-05 3.45266e-05 -2.65539e-19)
(-2.82183e-05 3.57587e-05 -1.278e-19)
(-2.98769e-05 3.70201e-05 -5.57577e-20)
(-3.20012e-05 3.84251e-05 6.16232e-22)
(-3.44151e-05 3.99742e-05 -1.39134e-21)
(-3.70062e-05 4.16378e-05 6.56786e-20)
(-3.9703e-05 4.33849e-05 1.22822e-19)
(-4.24578e-05 4.51894e-05 1.43757e-19)
(-4.52372e-05 4.703e-05 2.3907e-19)
(-4.80169e-05 4.88898e-05 2.85748e-19)
(-5.07785e-05 5.07546e-05 2.69033e-19)
(-5.35079e-05 5.2613e-05 3.06578e-19)
(-5.61942e-05 5.44554e-05 2.64319e-19)
(-5.88287e-05 5.62739e-05 2.37086e-19)
(-6.14046e-05 5.80617e-05 2.50853e-19)
(-6.39165e-05 5.98131e-05 2.36397e-19)
(-6.63598e-05 6.15233e-05 2.4486e-19)
(-6.8731e-05 6.31882e-05 2.10378e-19)
(-7.10274e-05 6.48043e-05 1.56278e-19)
(-7.32465e-05 6.63686e-05 1.34255e-19)
(-7.53865e-05 6.78785e-05 1.5095e-19)
(-7.74459e-05 6.9332e-05 1.14692e-19)
(-7.94235e-05 7.0727e-05 1.07151e-19)
(-8.13184e-05 7.20621e-05 1.30088e-19)
(-8.31296e-05 7.33359e-05 7.74494e-20)
(-8.48566e-05 7.45472e-05 9.06631e-20)
(-8.64987e-05 7.56952e-05 7.91666e-20)
(-8.80553e-05 7.67789e-05 8.59304e-20)
(-8.95259e-05 7.77977e-05 6.29196e-20)
(-9.09097e-05 7.87507e-05 3.56467e-20)
(-9.22059e-05 7.96372e-05 3.31106e-20)
(-9.34137e-05 8.04563e-05 3.95004e-20)
(-9.45318e-05 8.12071e-05 2.92904e-22)
(-9.55586e-05 8.18884e-05 -2.66333e-20)
(-9.64921e-05 8.24989e-05 -5.52108e-20)
(-9.73297e-05 8.30368e-05 -7.48209e-20)
(-9.80681e-05 8.35003e-05 -4.7828e-20)
(-9.87028e-05 8.38867e-05 -8.21937e-22)
(-9.92546e-05 8.42081e-05 3.69127e-20)
(-9.96582e-05 8.44824e-05 5.05255e-22)
(-9.99047e-05 8.47582e-05 1.72399e-20)
(-2.09931e-05 3.19254e-05 1.82832e-19)
(-2.63554e-05 3.37428e-05 -3.45153e-20)
(-2.7364e-05 3.5192e-05 -1.01001e-19)
(-2.89983e-05 3.65333e-05 -1.59722e-20)
(-3.10909e-05 3.79111e-05 5.00482e-20)
(-3.34986e-05 3.93751e-05 4.90784e-21)
(-3.61129e-05 4.0928e-05 3.03123e-20)
(-3.88569e-05 4.2555e-05 7.50797e-20)
(-4.16763e-05 4.42379e-05 6.73708e-20)
(-4.45329e-05 4.59592e-05 1.24118e-19)
(-4.73986e-05 4.77035e-05 2.1668e-19)
(-5.02525e-05 4.94576e-05 2.05219e-19)
(-5.30785e-05 5.12106e-05 2.45865e-19)
(-5.58644e-05 5.29529e-05 2.81211e-19)
(-5.86003e-05 5.46767e-05 2.67133e-19)
(-6.12787e-05 5.6375e-05 2.32757e-19)
(-6.38934e-05 5.80422e-05 2.09151e-19)
(-6.64394e-05 5.96734e-05 1.44756e-19)
(-6.89129e-05 6.12642e-05 5.06197e-20)
(-7.13105e-05 6.28112e-05 6.08497e-20)
(-7.36298e-05 6.43112e-05 1.21342e-19)
(-7.58685e-05 6.57616e-05 8.94993e-20)
(-7.8025e-05 6.71601e-05 8.53999e-20)
(-8.00979e-05 6.85047e-05 1.16874e-19)
(-8.2086e-05 6.97938e-05 1.20048e-19)
(-8.39884e-05 7.1026e-05 6.57847e-20)
(-8.58042e-05 7.22e-05 7.15071e-20)
(-8.75327e-05 7.33147e-05 4.10426e-20)
(-8.91733e-05 7.43693e-05 1.99028e-20)
(-9.07251e-05 7.53629e-05 -1.81269e-20)
(-9.21876e-05 7.62947e-05 -3.3905e-20)
(-9.35597e-05 7.71639e-05 -3.30951e-20)
(-9.48405e-05 7.79697e-05 -8.52923e-20)
(-9.60287e-05 7.87111e-05 -1.16551e-19)
(-9.71225e-05 7.93872e-05 -1.49919e-19)
(-9.812e-05 7.99965e-05 -1.54718e-19)
(-9.90185e-05 8.05378e-05 -1.61417e-19)
(-9.98148e-05 8.1009e-05 -1.53392e-19)
(-0.000100505 8.14081e-05 -1.52708e-19)
(-0.000101086 8.17327e-05 -1.69247e-19)
(-0.000101442 8.19317e-05 -1.67436e-19)
(-0.00010158 8.20434e-05 -1.50278e-19)
(-2.03933e-05 3.07971e-05 2.07443e-20)
(-2.54331e-05 3.27281e-05 -7.43614e-21)
(-2.65929e-05 3.43204e-05 -1.21173e-19)
(-2.82814e-05 3.57481e-05 6.18576e-21)
(-3.03894e-05 3.71383e-05 7.26637e-20)
(-3.28096e-05 3.8559e-05 5.29491e-20)
(-3.54486e-05 4.00347e-05 3.59389e-20)
(-3.82325e-05 4.15665e-05 5.66815e-20)
(-4.11059e-05 4.31458e-05 1.87544e-20)
(-4.40277e-05 4.47607e-05 7.04505e-20)
(-4.69672e-05 4.63988e-05 1.61866e-19)
(-4.99013e-05 4.80491e-05 2.05179e-19)
(-5.28124e-05 4.97013e-05 1.81491e-19)
(-5.56867e-05 5.13467e-05 1.63903e-19)
(-5.85135e-05 5.29777e-05 1.22576e-19)
(-6.12843e-05 5.45877e-05 9.98828e-20)
(-6.39922e-05 5.61709e-05 1.37909e-19)
(-6.66318e-05 5.77226e-05 5.81601e-20)
(-6.91987e-05 5.92385e-05 7.42254e-21)
(-7.16894e-05 6.07149e-05 5.99196e-21)
(-7.41008e-05 6.21488e-05 7.374e-20)
(-7.64307e-05 6.35374e-05 1.26981e-20)
(-7.8677e-05 6.48785e-05 2.88247e-20)
(-8.08383e-05 6.61699e-05 7.80042e-20)
(-8.29131e-05 6.74099e-05 3.30479e-20)
(-8.49004e-05 6.85971e-05 1.2556e-20)
(-8.67991e-05 6.97301e-05 1.96081e-20)
(-8.86084e-05 7.08078e-05 4.81316e-20)
(-9.03276e-05 7.18293e-05 3.5377e-20)
(-9.19558e-05 7.27934e-05 -3.10559e-20)
(-9.34921e-05 7.36995e-05 -5.62729e-20)
(-9.49356e-05 7.45466e-05 -5.51237e-20)
(-9.62851e-05 7.53339e-05 -8.42053e-20)
(-9.75392e-05 7.60604e-05 -6.32228e-20)
(-9.86958e-05 7.67251e-05 -9.36468e-20)
(-9.97529e-05 7.73266e-05 -1.1582e-19)
(-0.000100707 7.78637e-05 -1.72632e-19)
(-0.000101556 7.83344e-05 -2.10172e-19)
(-0.000102293 7.87367e-05 -2.25882e-19)
(-0.000102915 7.90682e-05 -2.62433e-19)
(-0.000103302 7.92687e-05 -2.41423e-19)
(-0.000103454 7.9341e-05 -2.23199e-19)
(-1.97718e-05 2.95875e-05 -4.48133e-19)
(-2.45302e-05 3.15586e-05 -5.88445e-20)
(-2.58724e-05 3.32291e-05 -1.90573e-19)
(-2.76642e-05 3.47195e-05 -1.89359e-20)
(-2.9829e-05 3.61308e-05 7.86039e-20)
(-3.2287e-05 3.75302e-05 8.77281e-20)
(-3.49618e-05 3.89523e-05 2.30193e-20)
(-3.77874e-05 4.04095e-05 6.88896e-20)
(-4.07108e-05 4.19017e-05 3.80262e-20)
(-4.36907e-05 4.34229e-05 5.2213e-20)
(-4.66956e-05 4.49648e-05 8.42745e-20)