/*--------------------------------*- C++ -*----------------------------------*\
  =========                 |
  \\      /  F ield         | OpenFOAM: The Open Source CFD Toolbox
   \\    /   O peration     | Website:  https://openfoam.org
    \\  /    A nd           | Version:  7
     \\/     M anipulation  |
\*---------------------------------------------------------------------------*/
FoamFile
{
    version     2.0;
    format      ascii;
    class       volScalarField;
    location    "48000";
    object      nu;
}
// * * * * * * * * * * * * * * * * * * * * * * * * * * * * * * * * * * * * * //

dimensions      [0 2 -1 0 0 0 0];

internalField   nonuniform List<scalar> 
4825
(
0.000297547
0.000341436
0.000198072
0.000238562
0.000279608
0.000321166
0.000360861
0.00011949
0.000148691
0.000181575
0.000217982
0.000256648
6.87836e-05
8.6397e-05
0.000107677
0.00013284
0.000161764
4.00605e-05
4.96379e-05
6.16224e-05
7.63666e-05
9.41879e-05
2.47371e-05
2.97567e-05
3.60828e-05
4.39833e-05
5.37485e-05
1.65914e-05
1.9257e-05
2.25783e-05
2.67075e-05
3.18112e-05
1.21126e-05
1.35914e-05
1.53941e-05
1.75974e-05
2.02825e-05
9.51255e-06
1.03833e-05
1.1416e-05
1.2649e-05
1.41196e-05
7.90297e-06
8.45084e-06
9.08169e-06
9.81533e-06
1.06687e-05
6.83767e-06
7.20607e-06
7.61819e-06
8.08488e-06
8.6138e-06
6.08667e-06
6.34989e-06
6.63686e-06
6.95396e-06
7.30462e-06
5.52755e-06
5.72545e-06
5.93667e-06
6.16529e-06
6.41279e-06
5.09263e-06
5.24749e-06
5.41008e-06
5.58321e-06
4.74271e-06
4.86765e-06
4.99718e-06
5.1334e-06
4.4539e-06
4.55706e-06
4.66296e-06
4.77331e-06
4.21085e-06
4.29754e-06
4.38585e-06
4.00314e-06
4.07702e-06
4.15181e-06
3.82341e-06
3.8871e-06
3.6663e-06
3.72172e-06
3.52774e-06
3.57637e-06
3.40461e-06
3.44757e-06
3.29445e-06
3.33266e-06
3.19532e-06
0.000500714
0.000507779
0.000514208
0.000520585
0.000526811
0.000532806
0.000538505
0.000543855
0.000548822
0.000553395
0.00055737
0.000560877
0.000564286
0.000567672
0.00057111
0.000574649
0.000578303
0.000582058
0.000585857
0.000589544
0.000488835
0.000496722
0.000503857
0.000510864
0.000517666
0.000524184
0.000530353
0.000536129
0.000541492
0.000546441
0.000550747
0.000554474
0.000558052
0.000561547
0.000565013
0.000568478
0.000571914
0.000575202
0.000578053
0.000579825
0.000474728
0.000483212
0.000490922
0.000498502
0.000505884
0.000512979
0.000519713
0.00052603
0.000531905
0.000537325
0.000542084
0.000546213
0.000550096
0.000553811
0.0005574
0.000560863
0.000564124
0.000566966
0.000568901
0.000568938
0.000459404
0.000467908
0.000475781
0.000483633
0.000491387
0.000498933
0.000506169
0.000513017
0.000519428
0.000525359
0.000530646
0.000535299
0.0005396
0.000543641
0.000547448
0.000550997
0.000554168
0.00055667
0.000557891
0.000556657
0.000444997
0.000452687
0.00046006
0.00046764
0.000475325
0.000482975
0.000490455
0.00049765
0.000504474
0.00051085
0.00051664
0.000521828
0.000526594
0.000531019
0.000535114
0.00053883
0.000542014
0.000544338
0.000545161
0.000543321
0.000433836
0.000439749
0.000445781
0.000452347
0.000459312
0.000466505
0.000473754
0.000480905
0.000487832
0.000494418
0.000500529
0.000506119
0.000511275
0.000516048
0.000520426
0.000524338
0.00052761
0.000529916
0.000530679
0.000528961
0.00042825
0.000431438
0.000435227
0.000439931
0.000445388
0.000451401
0.000457767
0.000464298
0.000470826
0.0004772
0.000483273
0.000488963
0.000494279
0.000499226
0.000503768
0.000507809
0.000511169
0.000513553
0.000514517
0.000513505
0.000430312
0.000429989
0.000430703
0.000432712
0.00043584
0.000439879
0.00044461
0.000449818
0.000455307
0.000460892
0.000466408
0.000471737
0.000476824
0.000481627
0.000486077
0.000490058
0.000493394
0.000495838
0.000497107
0.000497073
0.000496115
0.000494789
0.000494186
0.000494147
0.000494291
0.000494318
0.000494042
0.000493368
0.000492259
0.000490712
0.000488741
0.000486362
0.000483569
0.000480282
0.000476176
0.000441446
0.000437191
0.000434239
0.000432869
0.000432935
0.000434246
0.000436589
0.00043974
0.000443485
0.00044762
0.000451961
0.000456357
0.000460706
0.00046492
0.0004689
0.000472514
0.000475593
0.000477947
0.000479441
0.000480276
0.000481666
0.000481252
0.000480863
0.000480772
0.000480802
0.000480723
0.000480368
0.000479642
0.000478501
0.000476937
0.000474961
0.000472583
0.000469785
0.00046647
0.000462343
0.000456567
0.000451401
0.000461637
0.000453802
0.000447126
0.000442064
0.000438591
0.000436598
0.000435916
0.000436347
0.000437679
0.000439706
0.000442231
0.000445085
0.000448129
0.00045124
0.000454294
0.000457146
0.00045964
0.000461637
0.000463116
0.000464442
0.000466921
0.000467205
0.000467028
0.000466911
0.000466846
0.000466688
0.0004663
0.000465592
0.000464524
0.000463086
0.000461286
0.000459134
0.000456611
0.000453634
0.000450027
0.000445688
0.000441171
0.000435416
0.000487891
0.000478347
0.000469004
0.000460741
0.000453831
0.000448374
0.000444334
0.000441598
0.000440003
0.000439371
0.000439513
0.000440258
0.000441448
0.00044294
0.000444592
0.000446255
0.000447786
0.000449088
0.000450212
0.000451555
0.000453996
0.000454604
0.000454528
0.000454355
0.000454198
0.000453986
0.00045362
0.000453025
0.000452164
0.00045103
0.000449631
0.000447979
0.000446065
0.00044384
0.000441259
0.000438746
0.000435625
0.000432086
0.000428204
0.000425939
0.000511929
0.000505057
0.000496132
0.00048674
0.000477696
0.00046951
0.000462443
0.000456584
0.000451914
0.000448341
0.000445735
0.000443955
0.000442854
0.00044229
0.000442117
0.000442192
0.00044239
0.000442647
0.000443049
0.000443941
0.000445752
0.000446289
0.000446142
0.000445844
0.000445577
0.000445334
0.00044505
0.000444667
0.000444156
0.000443511
0.000442746
0.000441874
0.000440901
0.000439819
0.000438693
0.000438009
0.00043685
0.000436069
0.000435227
0.000435259
0.000435273
0.000437189
0.000518669
0.000521599
0.000518959
0.00051302
0.00050526
0.000496786
0.000488359
0.000480452
0.000473339
0.000467142
0.000461876
0.0004575
0.000453937
0.00045108
0.000448811
0.000447013
0.000445589
0.000444508
0.000443868
0.000443932
0.000444801
0.000444934
0.000444532
0.000444024
0.000443621
0.000443361
0.000443212
0.000443134
0.000443102
0.000443116
0.000443189
0.000443339
0.000443583
0.000443952
0.000444574
0.000445833
0.000446957
0.000448853
0.000451245
0.000453888
0.000457178
0.000461461
0.000465614
0.000471936
0.000478654
0.000489876
0.000509847
0.000521042
0.000525583
0.000525173
0.000521364
0.000515449
0.000508417
0.000500997
0.000493686
0.000486789
0.000480484
0.000474857
0.000469918
0.000465629
0.000461941
0.000458815
0.000456266
0.000454403
0.000453411
0.000453204
0.000452712
0.000451911
0.000451122
0.000450558
0.000450291
0.000450316
0.000450606
0.000451143
0.000451926
0.000452965
0.000454277
0.000455881
0.000457827
0.000460261
0.00046342
0.000466744
0.000470949
0.000475791
0.000480516
0.000486134
0.000491542
0.000496857
0.000502196
0.000506111
0.000505979
0.000503825
0.000416474
0.000454681
0.000484183
0.000505542
0.000519519
0.00052726
0.000530075
0.000529233
0.000525869
0.000520916
0.000515079
0.000508886
0.000502719
0.000496811
0.000491303
0.000486285
0.000481834
0.000478051
0.000475082
0.000473069
0.000471855
0.000470689
0.000469447
0.00046836
0.000467636
0.000467367
0.000467572
0.000468234
0.000469337
0.00047087
0.000472831
0.000475218
0.000478036
0.000481317
0.000485165
0.000489651
0.000494351
0.000499663
0.000505227
0.000510065
0.000514964
0.000518218
0.000520422
0.000519677
0.000514941
0.000504665
0.000488464
0.000463614
0.000433861
0.000396663
0.000311476
0.000359004
0.00040232
0.000440063
0.00047123
0.000495483
0.000513109
0.000524841
0.000531648
0.000534562
0.00053455
0.000532464
0.000529021
0.00052477
0.000520125
0.000515408
0.00051089
0.000506826
0.000503451
0.000500932
0.000499134
0.000497545
0.000496027
0.000494754
0.000493929
0.000493663
0.000493992
0.000494905
0.000496375
0.000498368
0.000500848
0.000503766
0.00050707
0.000510723
0.000514712
0.000518908
0.000522876
0.000526622
0.000529545
0.000530533
0.000529789
0.000525524
0.000518052
0.000505034
0.000485923
0.00046059
0.000428027
0.000388853
0.000345859
0.000299525
0.000205114
0.000248354
0.000293024
0.000337332
0.00037937
0.000417442
0.000450362
0.00047757
0.000499012
0.000515056
0.000526347
0.000533648
0.000537765
0.000539441
0.000539335
0.000538019
0.000535996
0.000533725
0.000531593
0.000529866
0.00052852
0.000527254
0.000525985
0.000524873
0.000524123
0.000523867
0.000524152
0.000524963
0.000526248
0.000527927
0.000529896
0.000532021
0.00053414
0.000536081
0.000537645
0.000538471
0.000538016
0.000535905
0.000531328
0.000523196
0.000511302
0.000494332
0.000472508
0.00044446
0.000410694
0.000372349
0.00032979
0.000285444
0.000241324
0.000199057
0.000122535
0.000153269
0.000188225
0.000226586
0.000267122
0.000308222
0.000348209
0.000385659
0.000419412
0.000448733
0.000473358
0.000493341
0.000509002
0.000520851
0.000529484
0.000535511
0.000539534
0.000542149
0.000543878
0.000545112
0.000545985
0.000546398
0.000546369
0.000546078
0.00054574
0.000545504
0.000545426
0.000545476
0.000545563
0.000545541
0.000545218
0.000544348
0.000542641
0.000539767
0.000535356
0.000528898
0.000519816
0.000507607
0.000491566
0.000471021
0.000445975
0.000416139
0.000382206
0.000344361
0.000304074
0.000263062
0.000222526
0.000184495
0.000150002
0.000119861
6.99756e-05
8.82836e-05
0.000110499
0.00013671
0.000166746
0.000199988
0.00023547
0.000272086
0.000308553
0.000343643
0.000376405
0.000406096
0.000432229
0.000454673
0.000473531
0.00048906
0.000501625
0.000511681
0.000519711
0.000526123
0.000531135
0.000534794
0.000537199
0.000538542
0.000539039
0.00053884
0.000538
0.000536477
0.00053415
0.000530827
0.000526258
0.000520143
0.000512141
0.000501889
0.000489017
0.000473146
0.000453957
0.000431246
0.000404844
0.000374833
0.000341841
0.00030654
0.00027003
0.00023331
0.000197809
0.000164725
0.000134828
0.000108883
8.69353e-05
6.89136e-05
4.0501e-05
5.03534e-05
6.27095e-05
7.79178e-05
9.62721e-05
0.000117847
0.000142483
0.000169851
0.000199311
0.000230031
0.00026118
0.000291866
0.000321207
0.000348581
0.000373563
0.000395883
0.000415425
0.000432217
0.000446451
0.000458332
0.000467984
0.000475441
0.000480781
0.000484143
0.000485689
0.000485541
0.000483744
0.000480264
0.000474998
0.000467791
0.000458451
0.000446774
0.000432556
0.000415626
0.000395868
0.000373314
0.000348121
0.000320579
0.000291087
0.000260256
0.000229016
0.000198244
0.000168799
0.00014144
0.000116855
9.53901e-05
7.71413e-05
6.20718e-05
4.98381e-05
4.01042e-05
2.4896e-05
3.0017e-05
3.64804e-05
4.45629e-05
5.45477e-05
6.66664e-05
8.10736e-05
9.78597e-05
0.000116925
0.000138
0.00016074
0.000184632
0.000209003
0.000233262
0.000256856
0.000279274
0.000300075
0.000318897
0.00033559
0.000350053
0.000362185
0.000371875
0.000379071
0.000383781
0.000386062
0.000385968
0.000383532
0.000378754
0.000371613
0.000362078
0.00035013
0.00033578
0.000319091
0.000300183
0.000279254
0.000256703
0.000232995
0.000208652
0.000184214
0.00016027
0.000137507
0.000116431
9.7388e-05
8.06266e-05
6.62589e-05
5.41949e-05
4.42637e-05
3.62406e-05
2.98271e-05
2.47516e-05
1.66478e-05
1.93498e-05
2.27205e-05
2.69172e-05
3.21044e-05
3.84507e-05
4.61152e-05
5.52432e-05
6.59113e-05
7.81185e-05
9.18209e-05
0.000106856
0.000122909
0.000139664
0.000156758
0.000173783
0.00019031
0.000205891
0.000220234
0.000233065
0.000244132
0.000253201
0.000260099
0.000264716
0.000267004
0.000266955
0.000264586
0.000259937
0.000253069
0.000244079
0.000233101
0.000220321
0.000205977
0.00019035
0.000173761
0.000156673
0.000139528
0.000122737
0.000106659
9.16098e-05
7.79047e-05
6.57042e-05
5.50492e-05
4.59364e-05
3.82918e-05
3.19689e-05
2.68048e-05
2.26318e-05
1.92807e-05
1.6596e-05
1.21319e-05
1.36236e-05
1.5444e-05
1.76721e-05
2.03882e-05
2.36822e-05
2.76472e-05
3.23745e-05
3.79392e-05
4.43918e-05
5.17616e-05
6.00265e-05
6.90806e-05
7.88047e-05
8.9031e-05
9.95381e-05
0.00011006
0.000120276
0.000129943
0.000138806
0.000146616
0.000153143
0.000158192
0.000161623
0.000163346
0.000163324
0.000161566
0.000158122
0.000153086
0.000146593
0.000138818
0.000129974
0.000120305
0.00011007
9.95208e-05
8.89882e-05
7.87421e-05
6.90046e-05
5.99421e-05
5.16736e-05
4.43047e-05
3.78562e-05
3.22976e-05
2.75774e-05
2.3621e-05
2.03365e-05
1.763e-05
1.54114e-05
1.35989e-05
1.21139e-05
9.51843e-06
1.03936e-05
1.14327e-05
1.26748e-05
1.41571e-05
1.59219e-05
1.80142e-05
2.04786e-05
2.3357e-05
2.66841e-05
3.04829e-05
3.47582e-05
3.9483e-05
4.46144e-05
5.00826e-05
5.57862e-05
6.15922e-05
6.73257e-05
7.28399e-05
7.79726e-05
8.25581e-05
8.64373e-05
8.94716e-05
9.1552e-05
9.26054e-05
9.2597e-05
9.15303e-05
8.94451e-05
8.64158e-05
8.25485e-05
7.79754e-05
7.28489e-05
6.7333e-05
6.15919e-05
5.57758e-05
5.00627e-05
4.45871e-05
3.94509e-05
3.47233e-05
3.04471e-05
2.6649e-05
2.33239e-05
2.0448e-05
1.79867e-05
1.58981e-05
1.41373e-05
1.26592e-05
1.14209e-05
1.03852e-05
9.51278e-06
7.90413e-06
8.45339e-06
9.08644e-06
9.82345e-06
1.06813e-05
1.16792e-05
1.28376e-05
1.41761e-05
1.57142e-05
1.74681e-05
1.94482e-05
2.1658e-05
2.409e-05
2.67256e-05
2.95332e-05
3.24664e-05
3.54627e-05
3.84412e-05
4.13228e-05
4.40206e-05
4.64442e-05
4.85058e-05
5.01265e-05
5.12427e-05
5.18103e-05
5.18074e-05
5.12352e-05
5.01172e-05
4.84981e-05
4.64403e-05
4.40205e-05
4.13245e-05
3.8442e-05
3.54606e-05
3.24607e-05
2.9524e-05
2.67138e-05
2.40765e-05
2.16434e-05
1.94335e-05
1.74537e-05
1.57007e-05
1.41637e-05
1.28266e-05
1.16698e-05
1.06737e-05
9.81775e-06
9.08248e-06
8.45092e-06
7.90288e-06
6.8373e-06
7.20602e-06
7.61883e-06
8.08673e-06
8.6174e-06
9.21948e-06
9.90191e-06
1.06731e-05
1.15411e-05
1.25126e-05
1.35911e-05
1.47768e-05
1.60662e-05
1.74489e-05
1.89091e-05
2.04239e-05
2.19634e-05
2.3491e-05
2.4966e-05
2.63448e-05
2.75825e-05
2.86351e-05
2.9463e-05
3.00336e-05
3.03242e-05
3.03233e-05
3.00311e-05
2.94598e-05
2.86324e-05
2.75808e-05
2.63442e-05
2.49658e-05
2.34904e-05
2.19617e-05
2.04209e-05
1.89048e-05
1.74437e-05
1.60602e-05
1.47705e-05
1.35848e-05
1.25065e-05
1.15354e-05
1.06679e-05
9.8974e-06
9.21577e-06
8.61456e-06
8.08481e-06
7.61776e-06
7.20567e-06
6.83751e-06
6.08591e-06
6.3491e-06
6.63622e-06
6.95372e-06
7.30506e-06
7.694e-06
8.12431e-06
8.59939e-06
9.12242e-06
9.69566e-06
1.03197e-05
1.09936e-05
1.17147e-05
1.2477e-05
1.32715e-05
1.40862e-05
1.49061e-05
1.57137e-05
1.64882e-05
1.7208e-05
1.7851e-05
1.83959e-05
1.88234e-05
1.91177e-05
1.92675e-05
1.92672e-05
1.91168e-05
1.88223e-05
1.83949e-05
1.78503e-05
1.72075e-05
1.64877e-05
1.5713e-05
1.4905e-05
1.40846e-05
1.32694e-05
1.24745e-05
1.1712e-05
1.09908e-05
1.03169e-05
9.69296e-06
9.11991e-06
8.59716e-06
8.12243e-06
7.69254e-06
7.30407e-06
6.95322e-06
6.63616e-06
6.34942e-06
6.08652e-06
5.52679e-06
5.72456e-06
5.93576e-06
6.16449e-06
6.41222e-06
6.68048e-06
6.97072e-06
7.28413e-06
7.62172e-06
7.98398e-06
8.37047e-06
8.77999e-06
9.21052e-06
9.65823e-06
1.01179e-05
1.05829e-05
1.10453e-05
1.1496e-05
1.19244e-05
1.23193e-05
1.26698e-05
1.29652e-05
1.3196e-05
1.33544e-05
1.3435e-05
1.34349e-05
1.33541e-05
1.31956e-05
1.29648e-05
1.26694e-05
1.2319e-05
1.1924e-05
1.14955e-05
1.10446e-05
1.0582e-05
1.01168e-05
9.65699e-06
9.20919e-06
8.77863e-06
8.36913e-06
7.98271e-06
7.62057e-06
7.28313e-06
6.96992e-06
6.67992e-06
6.41193e-06
6.16448e-06
5.93601e-06
5.72503e-06
5.52743e-06
5.09196e-06
5.24669e-06
5.40921e-06
5.58234e-06
5.76664e-06
5.9626e-06
6.17064e-06
6.39099e-06
6.62374e-06
6.86867e-06
7.12505e-06
7.39176e-06
7.66724e-06
7.949e-06
8.23385e-06
8.51792e-06
8.79677e-06
9.06549e-06
9.31829e-06
9.5493e-06
9.75274e-06
9.92315e-06
1.00557e-05
1.01463e-05
1.01924e-05
1.01924e-05
1.01463e-05
1.00555e-05
9.92299e-06
9.75255e-06
9.54906e-06
9.31798e-06
9.0651e-06
8.79631e-06
8.51738e-06
8.23324e-06
7.94834e-06
7.66654e-06
7.39106e-06
7.12436e-06
6.86803e-06
6.62317e-06
6.39052e-06
6.17029e-06
5.96241e-06
5.76661e-06
5.5825e-06
5.40953e-06
5.24716e-06
5.09252e-06
4.74214e-06
4.86698e-06
4.99643e-06
5.13263e-06
5.27569e-06
5.42567e-06
5.58251e-06
5.74607e-06
5.91606e-06
6.09202e-06
6.2732e-06
6.45864e-06
6.64712e-06
6.83695e-06
7.02608e-06
7.21215e-06
7.39249e-06
7.56429e-06
7.72426e-06
7.86914e-06
7.99574e-06
8.10111e-06
8.18265e-06
8.23825e-06
8.26643e-06
8.26642e-06
8.23822e-06
8.1826e-06
8.10103e-06
7.99562e-06
7.86897e-06
7.72404e-06
7.56402e-06
7.39219e-06
7.21181e-06
7.02571e-06
6.83656e-06
6.64671e-06
6.45824e-06
6.27282e-06
6.09166e-06
5.91575e-06
5.74582e-06
5.58235e-06
5.42561e-06
5.27576e-06
5.13282e-06
4.99674e-06
4.86738e-06
4.74263e-06
4.45344e-06
4.5565e-06
4.66234e-06
4.77265e-06
4.88735e-06
5.00632e-06
5.12932e-06
5.25606e-06
5.38615e-06
5.51906e-06
5.65413e-06
5.79054e-06
5.92734e-06
6.06334e-06
6.19713e-06
6.32719e-06
6.45184e-06
6.56933e-06
6.6777e-06
6.77504e-06
6.85948e-06
6.92934e-06
6.98315e-06
7.01972e-06
7.03821e-06
7.03821e-06
7.01971e-06
6.98313e-06
6.9293e-06
6.8594e-06
6.77492e-06
6.67755e-06
6.56914e-06
6.45163e-06
6.32696e-06
6.19689e-06
6.06308e-06
5.92708e-06
5.79028e-06
5.65389e-06
5.51885e-06
5.38597e-06
5.25593e-06
5.12925e-06
5.00632e-06
4.88744e-06
4.77283e-06
4.66261e-06
4.55685e-06
4.45384e-06
4.21046e-06
4.29707e-06
4.38533e-06
4.47666e-06
4.5709e-06
4.66785e-06
4.76723e-06
4.86871e-06
4.97189e-06
5.07628e-06
5.1813e-06
5.28627e-06
5.39045e-06
5.49296e-06
5.5928e-06
5.6889e-06
5.78016e-06
5.86542e-06
5.94345e-06
6.01302e-06
6.07302e-06
6.12239e-06
6.16026e-06
6.18592e-06
6.19888e-06
6.19888e-06
6.18592e-06
6.16025e-06
6.12236e-06
6.07296e-06
6.01294e-06
5.94333e-06
5.86528e-06
5.78001e-06
5.68874e-06
5.59263e-06
5.49279e-06
5.39028e-06
5.2861e-06
5.18114e-06
5.07614e-06
4.97178e-06
4.86863e-06
4.7672e-06
4.66787e-06
4.57099e-06
4.47682e-06
4.38556e-06
4.29736e-06
4.2108e-06
4.00281e-06
4.07663e-06
4.15137e-06
4.22827e-06
4.30715e-06
4.38779e-06
4.46992e-06
4.5532e-06
4.63728e-06
4.72171e-06
4.80601e-06
4.88962e-06
4.97196e-06
5.05233e-06
5.13002e-06
5.20424e-06
5.27422e-06
5.33914e-06
5.39819e-06
5.45054e-06
5.49546e-06
5.53228e-06
5.56043e-06
5.57946e-06
5.58905e-06
5.58905e-06
5.57946e-06
5.56042e-06
5.53226e-06
5.49542e-06
5.45048e-06
5.3981e-06
5.33904e-06
5.2741e-06
5.20412e-06
5.12989e-06
5.0522e-06
4.97183e-06
4.8895e-06
4.80589e-06
4.72161e-06
4.6372e-06
4.55315e-06
4.4699e-06
4.38782e-06
4.30724e-06
4.22841e-06
4.15157e-06
4.07687e-06
4.00309e-06
3.82313e-06
3.88677e-06
3.95086e-06
4.01649e-06
4.08349e-06
4.15164e-06
4.22068e-06
4.29033e-06
4.36025e-06
4.43007e-06
4.49938e-06
4.56773e-06
4.63463e-06
4.69956e-06
4.76195e-06
4.82123e-06
4.87682e-06
4.92812e-06
4.97456e-06
5.01556e-06
5.05061e-06
5.07925e-06
5.10109e-06
5.11582e-06
5.12324e-06
5.12324e-06
5.11582e-06
5.10108e-06
5.07923e-06
5.05058e-06
5.01551e-06
4.97449e-06
4.92804e-06
4.87673e-06
4.82114e-06
4.76185e-06
4.69946e-06
4.63453e-06
4.56763e-06
4.4993e-06
4.43e-06
4.36019e-06
4.2903e-06
4.22068e-06
4.15167e-06
4.08356e-06
4.01661e-06
3.95103e-06
3.88698e-06
3.82338e-06
3.66606e-06
3.72144e-06
3.77696e-06
3.83359e-06
3.89118e-06
3.94951e-06
4.00836e-06
4.06747e-06
4.12654e-06
4.18528e-06
4.24332e-06
4.30029e-06
4.35581e-06
4.40944e-06
4.46076e-06
4.50931e-06
4.55465e-06
4.59634e-06
4.63394e-06
4.66703e-06
4.69524e-06
4.71823e-06
4.73573e-06
4.74752e-06
4.75345e-06
4.75345e-06
4.74752e-06
4.73572e-06
4.71821e-06
4.69521e-06
4.66699e-06
4.63388e-06
4.59628e-06
4.55458e-06
4.50924e-06
4.46069e-06
4.40937e-06
4.35573e-06
4.30022e-06
4.24325e-06
4.18522e-06
4.1265e-06
4.06744e-06
4.00836e-06
3.94954e-06
3.89125e-06
3.8337e-06
3.77711e-06
3.72162e-06
3.66627e-06
3.52753e-06
3.57612e-06
3.62464e-06
3.67396e-06
3.72394e-06
3.7744e-06
3.82512e-06
3.87588e-06
3.92644e-06
3.97652e-06
4.02582e-06
4.07405e-06
4.12087e-06
4.16595e-06
4.20894e-06
4.24947e-06
4.2872e-06
4.32179e-06
4.3529e-06
4.38022e-06
4.40345e-06
4.42236e-06
4.43673e-06
4.4464e-06
4.45126e-06
4.45126e-06
4.44639e-06
4.43672e-06
4.42234e-06
4.40343e-06
4.38018e-06
4.35286e-06
4.32174e-06
4.28715e-06
4.24941e-06
4.20887e-06
4.16589e-06
4.12081e-06
4.07399e-06
4.02577e-06
3.97647e-06
3.92641e-06
3.87587e-06
3.82512e-06
3.77443e-06
3.724e-06
3.67406e-06
3.62477e-06
3.57628e-06
3.52771e-06
3.40442e-06
3.44736e-06
3.49007e-06
3.53337e-06
3.57712e-06
3.62115e-06
3.66528e-06
3.70931e-06
3.75303e-06
3.7962e-06
3.83858e-06
3.87991e-06
3.91992e-06
3.95833e-06
3.99485e-06
4.0292e-06
4.06109e-06
4.09026e-06
4.11644e-06
4.13938e-06
4.15887e-06
4.1747e-06
4.18671e-06
4.1948e-06
4.19886e-06
4.19886e-06
4.19479e-06
4.18671e-06
4.17468e-06
4.15884e-06
4.13935e-06
4.1164e-06
4.09022e-06
4.06105e-06
4.02915e-06
3.9948e-06
3.95828e-06
3.91987e-06
3.87986e-06
3.83854e-06
3.79617e-06
3.753e-06
3.7093e-06
3.66529e-06
3.62118e-06
3.57718e-06
3.53346e-06
3.49019e-06
3.4475e-06
3.40458e-06
3.29428e-06
3.33246e-06
3.37032e-06
3.40859e-06
3.44716e-06
3.48588e-06
3.52458e-06
3.5631e-06
3.60124e-06
3.6388e-06
3.67559e-06
3.71137e-06
3.74592e-06
3.77901e-06
3.8104e-06
3.83986e-06
3.86716e-06
3.89208e-06
3.91441e-06
3.93394e-06
3.95051e-06
3.96396e-06
3.97416e-06
3.98101e-06
3.98445e-06
3.98445e-06
3.98101e-06
3.97415e-06
3.96394e-06
3.95049e-06
3.93392e-06
3.91438e-06
3.89205e-06
3.86712e-06
3.83982e-06
3.81036e-06
3.77897e-06
3.74588e-06
3.71133e-06
3.67555e-06
3.63877e-06
3.60122e-06
3.56309e-06
3.52459e-06
3.4859e-06
3.44721e-06
3.40867e-06
3.37042e-06
3.33259e-06
3.29443e-06
3.19517e-06
3.2293e-06
3.26304e-06
3.29708e-06
3.3313e-06
3.36557e-06
3.39975e-06
3.43369e-06
3.46722e-06
3.50017e-06
3.53236e-06
3.56361e-06
3.59372e-06
3.62249e-06
3.64974e-06
3.67526e-06
3.69887e-06
3.72039e-06
3.73964e-06
3.75646e-06
3.77071e-06
3.78226e-06
3.79102e-06
3.7969e-06
3.79986e-06
3.79986e-06
3.7969e-06
3.79101e-06
3.78225e-06
3.77069e-06
3.75644e-06
3.73961e-06
3.72036e-06
3.69884e-06
3.67523e-06
3.6497e-06
3.62245e-06
3.59368e-06
3.56357e-06
3.53233e-06
3.50015e-06
3.4672e-06
3.43369e-06
3.39976e-06
3.3656e-06
3.33135e-06
3.29715e-06
3.26314e-06
3.22942e-06
3.1953e-06
3.1055e-06
3.13617e-06
3.1664e-06
3.19683e-06
3.22736e-06
3.25788e-06
3.28825e-06
3.31834e-06
3.34801e-06
3.37711e-06
3.40549e-06
3.43298e-06
3.45942e-06
3.48464e-06
3.50849e-06
3.53079e-06
3.55139e-06
3.57013e-06
3.58688e-06
3.6015e-06
3.61387e-06
3.6239e-06
3.63149e-06
3.63659e-06
3.63915e-06
3.63915e-06
3.63659e-06
3.63149e-06
3.62389e-06
3.61386e-06
3.60148e-06
3.58686e-06
3.5701e-06
3.55136e-06
3.53076e-06
3.50846e-06
3.48461e-06
3.45939e-06
3.43295e-06
3.40546e-06
3.37709e-06
3.348e-06
3.31834e-06
3.28826e-06
3.2579e-06
3.2274e-06
3.19689e-06
3.16648e-06
3.13627e-06
3.10562e-06
3.02399e-06
3.05166e-06
3.07887e-06
3.10621e-06
3.13359e-06
3.1609e-06
3.18803e-06
3.21487e-06
3.24128e-06
3.26714e-06
3.29231e-06
3.31665e-06
3.34002e-06
3.36229e-06
3.38331e-06
3.40293e-06
3.42104e-06
3.4375e-06
3.45219e-06
3.465e-06
3.47583e-06
3.4846e-06
3.49124e-06
3.4957e-06
3.49794e-06
3.49793e-06
3.4957e-06
3.49124e-06
3.48459e-06
3.47582e-06
3.46498e-06
3.45217e-06
3.43747e-06
3.42101e-06
3.40291e-06
3.38328e-06
3.36226e-06
3.34e-06
3.31662e-06
3.29228e-06
3.26712e-06
3.24127e-06
3.21486e-06
3.18804e-06
3.16092e-06
3.13363e-06
3.10627e-06
3.07894e-06
3.05175e-06
3.0241e-06
2.94958e-06
2.97464e-06
2.99923e-06
3.0239e-06
3.04856e-06
3.07312e-06
3.09747e-06
3.12152e-06
3.14516e-06
3.16826e-06
3.19071e-06
3.21239e-06
3.23317e-06
3.25295e-06
3.27159e-06
3.28897e-06
3.305e-06
3.31954e-06
3.33251e-06
3.34382e-06
3.35337e-06
3.36109e-06
3.36694e-06
3.37087e-06
3.37284e-06
3.37283e-06
3.37086e-06
3.36694e-06
3.36109e-06
3.35335e-06
3.3438e-06
3.3325e-06
3.31952e-06
3.30497e-06
3.28895e-06
3.27156e-06
3.25292e-06
3.23315e-06
3.21236e-06
3.19069e-06
3.16824e-06
3.14515e-06
3.12152e-06
3.09748e-06
3.07314e-06
3.04859e-06
3.02395e-06
2.9993e-06
2.97473e-06
2.88137e-06
2.90416e-06
2.92646e-06
2.94881e-06
2.97111e-06
2.99328e-06
3.01524e-06
3.03689e-06
3.05814e-06
3.07887e-06
3.099e-06
3.1184e-06
3.13699e-06
3.15464e-06
3.17127e-06
3.18676e-06
3.20101e-06
3.21395e-06
3.22547e-06
3.2355e-06
3.24398e-06
3.25083e-06
3.25601e-06
3.25949e-06
3.26123e-06
3.26123e-06
3.25949e-06
3.25601e-06
3.25082e-06
3.24397e-06
3.23549e-06
3.22545e-06
3.21393e-06
3.20099e-06
3.18673e-06
3.17125e-06
3.15462e-06
3.13697e-06
3.11838e-06
3.09898e-06
3.07886e-06
3.05813e-06
3.03689e-06
3.01525e-06
2.9933e-06
2.97114e-06
2.94886e-06
2.92653e-06
2.81863e-06
2.83941e-06
2.85972e-06
2.88002e-06
2.90027e-06
2.92036e-06
2.94024e-06
2.95981e-06
2.97899e-06
2.99768e-06
3.0158e-06
3.03325e-06
3.04994e-06
3.06578e-06
3.08068e-06
3.09455e-06
3.1073e-06
3.11886e-06
3.12915e-06
3.13811e-06
3.14567e-06
3.15178e-06
3.1564e-06
3.15949e-06
3.16105e-06
3.16105e-06
3.15949e-06
3.15639e-06
3.15177e-06
3.14566e-06
3.1381e-06
3.12914e-06
3.11885e-06
3.10729e-06
3.09453e-06
3.08066e-06
3.06576e-06
3.04992e-06
3.03323e-06
3.01578e-06
2.99767e-06
2.97898e-06
2.95981e-06
2.94025e-06
2.92038e-06
2.9003e-06
2.88007e-06
2.76073e-06
2.77974e-06
2.79828e-06
2.81679e-06
2.83523e-06
2.8535e-06
2.87156e-06
2.88931e-06
2.90669e-06
2.9236e-06
2.93998e-06
2.95574e-06
2.9708e-06
2.98507e-06
2.99848e-06
3.01095e-06
3.02242e-06
3.0328e-06
3.04203e-06
3.05006e-06
3.05683e-06
3.06231e-06
3.06645e-06
3.06922e-06
3.07061e-06
3.07061e-06
3.06922e-06
3.06644e-06
3.0623e-06
3.05683e-06
3.05005e-06
3.04202e-06
3.03278e-06
3.0224e-06
3.01094e-06
2.99846e-06
2.98505e-06
2.97078e-06
2.95572e-06
2.93997e-06
2.92359e-06
2.90668e-06
2.88931e-06
2.87157e-06
2.85352e-06
2.83526e-06
2.70713e-06
2.72457e-06
2.74154e-06
2.75847e-06
2.77531e-06
2.79198e-06
2.80843e-06
2.82459e-06
2.84039e-06
2.85575e-06
2.87061e-06
2.88489e-06
2.89852e-06
2.91143e-06
2.92356e-06
2.93482e-06
2.94516e-06
2.95452e-06
2.96284e-06
2.97008e-06
2.97617e-06
2.9811e-06
2.98482e-06
2.98732e-06
2.98857e-06
2.98857e-06
2.98731e-06
2.98482e-06
2.98109e-06
2.97617e-06
2.97007e-06
2.96283e-06
2.95451e-06
2.94515e-06
2.9348e-06
2.92354e-06
2.91142e-06
2.89851e-06
2.88488e-06
2.8706e-06
2.85574e-06
2.84038e-06
2.82459e-06
2.80844e-06
2.792e-06
2.65737e-06
2.6734e-06
2.68898e-06
2.70451e-06
2.71993e-06
2.73518e-06
2.75022e-06
2.76497e-06
2.77937e-06
2.79337e-06
2.8069e-06
2.81988e-06
2.83227e-06
2.84399e-06
2.85498e-06
2.86519e-06
2.87456e-06
2.88303e-06
2.89056e-06
2.8971e-06
2.90261e-06
2.90706e-06
2.91042e-06
2.91267e-06
2.9138e-06
2.9138e-06
2.91267e-06
2.91042e-06
2.90705e-06
2.9026e-06
2.89709e-06
2.89055e-06
2.88302e-06
2.87454e-06
2.86518e-06
2.85497e-06
2.84397e-06
2.83225e-06
2.81987e-06
2.80689e-06
2.79337e-06
2.77937e-06
2.76497e-06
2.75023e-06
2.7352e-06
2.61106e-06
2.62584e-06
2.64017e-06
2.65444e-06
2.6686e-06
2.68259e-06
2.69637e-06
2.70987e-06
2.72304e-06
2.73583e-06
2.74818e-06
2.76002e-06
2.77131e-06
2.78198e-06
2.79199e-06
2.80127e-06
2.80978e-06
2.81748e-06
2.82431e-06
2.83024e-06
2.83524e-06
2.83928e-06
2.84233e-06
2.84437e-06
2.84539e-06
2.84539e-06
2.84437e-06
2.84232e-06
2.83927e-06
2.83524e-06
2.83024e-06
2.8243e-06
2.81747e-06
2.80977e-06
2.80126e-06
2.79197e-06
2.78197e-06
2.7713e-06
2.76001e-06
2.74817e-06
2.73583e-06
2.72304e-06
2.70987e-06
2.69637e-06
2.6826e-06
2.56785e-06
2.5815e-06
2.59472e-06
2.60786e-06
2.62089e-06
2.63375e-06
2.64641e-06
2.6588e-06
2.67088e-06
2.68259e-06
2.69389e-06
2.70473e-06
2.71504e-06
2.72479e-06
2.73392e-06
2.74239e-06
2.75015e-06
2.75716e-06
2.76338e-06
2.76878e-06
2.77333e-06
2.777e-06
2.77977e-06
2.78163e-06
2.78256e-06
2.78256e-06
2.78163e-06
2.77977e-06
2.777e-06
2.77332e-06
2.76877e-06
2.76337e-06
2.75715e-06
2.75014e-06
2.74238e-06
2.73391e-06
2.72478e-06
2.71503e-06
2.70472e-06
2.69389e-06
2.68259e-06
2.67088e-06
2.6588e-06
2.64642e-06
2.63377e-06
2.52745e-06
2.54008e-06
2.55229e-06
2.56442e-06
2.57644e-06
2.58829e-06
2.59994e-06
2.61134e-06
2.62244e-06
2.6332e-06
2.64356e-06
2.6535e-06
2.66295e-06
2.67187e-06
2.68023e-06
2.68797e-06
2.69507e-06
2.70147e-06
2.70715e-06
2.71208e-06
2.71624e-06
2.71958e-06
2.72211e-06
2.72381e-06
2.72465e-06
2.72465e-06
2.7238e-06
2.72211e-06
2.71958e-06
2.71623e-06
2.71208e-06
2.70715e-06
2.70146e-06
2.69506e-06
2.68796e-06
2.68022e-06
2.67186e-06
2.66294e-06
2.65349e-06
2.64356e-06
2.63319e-06
2.62244e-06
2.61134e-06
2.59995e-06
2.5883e-06
2.48959e-06
2.50129e-06
2.5126e-06
2.52382e-06
2.53492e-06
2.54586e-06
2.55661e-06
2.56711e-06
2.57734e-06
2.58724e-06
2.59677e-06
2.6059e-06
2.61458e-06
2.62278e-06
2.63044e-06
2.63754e-06
2.64404e-06
2.64991e-06
2.65511e-06
2.65962e-06
2.66342e-06
2.66648e-06
2.6688e-06
2.67035e-06
2.67112e-06
2.67112e-06
2.67034e-06
2.66879e-06
2.66648e-06
2.66342e-06
2.65962e-06
2.6551e-06
2.6499e-06
2.64403e-06
2.63753e-06
2.63043e-06
2.62277e-06
2.61458e-06
2.6059e-06
2.59677e-06
2.58723e-06
2.57734e-06
2.56712e-06
2.55661e-06
2.54587e-06
2.45404e-06
2.46491e-06
2.47539e-06
2.48578e-06
2.49606e-06
2.50618e-06
2.51611e-06
2.52581e-06
2.53525e-06
2.54438e-06
2.55317e-06
2.56157e-06
2.56956e-06
2.5771e-06
2.58415e-06
2.59067e-06
2.59664e-06
2.60203e-06
2.6068e-06
2.61094e-06
2.61443e-06
2.61724e-06
2.61936e-06
2.62078e-06
2.62149e-06
2.62149e-06
2.62077e-06
2.61935e-06
2.61723e-06
2.61442e-06
2.61094e-06
2.6068e-06
2.60202e-06
2.59663e-06
2.59066e-06
2.58414e-06
2.57709e-06
2.56956e-06
2.56157e-06
2.55316e-06
2.54437e-06
2.53525e-06
2.52581e-06
2.51612e-06
2.50619e-06
2.42061e-06
2.43071e-06
2.44044e-06
2.45009e-06
2.45961e-06
2.46899e-06
2.47818e-06
2.48716e-06
2.49588e-06
2.50431e-06
2.51243e-06
2.52019e-06
2.52756e-06
2.5345e-06
2.54099e-06
2.547e-06
2.5525e-06
2.55745e-06
2.56184e-06
2.56565e-06
2.56885e-06
2.57144e-06
2.57338e-06
2.57469e-06
2.57534e-06
2.57534e-06
2.57469e-06
2.57338e-06
2.57143e-06
2.56885e-06
2.56565e-06
2.56184e-06
2.55744e-06
2.55249e-06
2.54699e-06
2.54099e-06
2.53449e-06
2.52755e-06
2.52018e-06
2.51242e-06
2.50431e-06
2.49588e-06
2.48716e-06
2.47819e-06
2.3891e-06
2.39851e-06
2.40756e-06
2.41652e-06
2.42536e-06
2.43406e-06
2.44258e-06
2.4509e-06
2.45898e-06
2.46678e-06
2.47429e-06
2.48146e-06
2.48827e-06
2.49468e-06
2.50068e-06
2.50622e-06
2.51129e-06
2.51586e-06
2.5199e-06
2.52341e-06
2.52636e-06
2.52874e-06
2.53053e-06
2.53173e-06
2.53233e-06
2.53233e-06
2.53173e-06
2.53053e-06
2.52874e-06
2.52636e-06
2.52341e-06
2.5199e-06
2.51585e-06
2.51128e-06
2.50621e-06
2.50067e-06
2.49468e-06
2.48826e-06
2.48146e-06
2.47429e-06
2.46678e-06
2.45898e-06
2.4509e-06
2.44259e-06
2.35937e-06
2.36813e-06
2.37656e-06
2.3849e-06
2.39312e-06
2.4012e-06
2.40912e-06
2.41683e-06